/*--------------------------------*- C++ -*----------------------------------*\
| =========                 |                                                 |
| \\      /  F ield         | OpenFOAM: The Open Source CFD Toolbox           |
|  \\    /   O peration     | Version:  v1912                                 |
|   \\  /    A nd           | Website:  www.openfoam.com                      |
|    \\/     M anipulation  |                                                 |
\*---------------------------------------------------------------------------*/
FoamFile
{
    version     2.0;
    format      ascii;
    class       volScalarField;
    location    "0.14/fluid";
    object      p;
}
// * * * * * * * * * * * * * * * * * * * * * * * * * * * * * * * * * * * * * //

dimensions      [0 2 -2 0 0 0 0];


internalField   nonuniform List<scalar> 
14592
(
0.0871188
0.0818442
0.0798402
0.0780942
0.076727
0.0755338
0.074424
0.0734077
0.0724531
0.0716434
0.070803
0.0704541
0.0696365
0.0703987
0.0695387
0.0734949
0.0827805
0.0811394
0.0794559
0.0780193
0.0767169
0.0755595
0.0744658
0.0734642
0.0725252
0.0717404
0.0709256
0.0706375
0.0698702
0.0708176
0.0700371
0.0748909
0.0809312
0.0801943
0.0788443
0.0776924
0.0765007
0.0754148
0.0743556
0.0733724
0.0724415
0.071664
0.0708539
0.0705918
0.0698485
0.0708982
0.0701897
0.0753494
0.0795687
0.0792864
0.0782739
0.0773529
0.0762777
0.0752618
0.0742368
0.0732696
0.0723435
0.0715683
0.0707603
0.070522
0.0698144
0.0709791
0.0703927
0.0757864
0.0787373
0.0785931
0.0777663
0.0769847
0.0759962
0.0750333
0.0740311
0.0730647
0.0721209
0.071312
0.0704529
0.0701503
0.069356
0.0704589
0.0697881
0.0753486
0.0781352
0.0780554
0.0773575
0.0766703
0.0757443
0.0748165
0.0738251
0.072851
0.0718856
0.0710462
0.0701601
0.0698459
0.0690855
0.0703297
0.0698728
0.0759109
0.0777369
0.0776812
0.077047
0.0764066
0.0755101
0.0745919
0.0735888
0.0725801
0.0715541
0.0706145
0.069582
0.0690275
0.0679262
0.0686801
0.0674832
0.0733451
0.0774958
0.0774516
0.0768426
0.0762183
0.0753257
0.0743981
0.0733708
0.0723232
0.0712468
0.0702413
0.0691549
0.0685423
0.0674787
0.0684322
0.0676332
0.0757694
0.0869493
0.0816761
0.0797138
0.0780147
0.0767113
0.0755907
0.0745654
0.0736453
0.0727977
0.0721032
0.0713735
0.0710947
0.0703046
0.070761
0.0696708
0.0714169
0.0826117
0.0809704
0.07933
0.0779409
0.0767031
0.0756193
0.0746109
0.0737065
0.0728754
0.0722061
0.0714999
0.0712751
0.0705178
0.0711027
0.0700176
0.0721612
0.08076
0.0800225
0.0787154
0.0776109
0.0764835
0.0754707
0.0744961
0.073609
0.0727842
0.0721202
0.0714142
0.0712111
0.0704637
0.0711315
0.0700783
0.0724184
0.0793956
0.0791125
0.0781425
0.0772686
0.0762573
0.0753137
0.0743724
0.0735001
0.0726786
0.0720162
0.0713104
0.071134
0.0704188
0.0712086
0.0702621
0.0728101
0.0785604
0.0784157
0.0776306
0.0768952
0.0759691
0.0750767
0.0741554
0.0732804
0.0724363
0.0717346
0.0709678
0.0707201
0.0698968
0.0706219
0.069546
0.0722801
0.0779543
0.0778743
0.0772174
0.0765754
0.0757102
0.0748507
0.0739374
0.0730515
0.0721823
0.0714487
0.0706544
0.0704092
0.069632
0.0705559
0.0697191
0.0730092
0.077551
0.0774954
0.0769012
0.0763047
0.0754669
0.074614
0.0736843
0.0727575
0.0718183
0.0709724
0.0700116
0.0695071
0.068343
0.0687724
0.0670819
0.0702965
0.0773046
0.0772608
0.0766908
0.0761093
0.0752731
0.0744076
0.0734499
0.0724794
0.0714851
0.0705716
0.0695599
0.069022
0.0679312
0.0686927
0.0674954
0.0733571
0.086831
0.0815579
0.0796279
0.0779666
0.0767174
0.0756616
0.0747162
0.0738952
0.0731755
0.0726504
0.0721638
0.0722113
0.0719552
0.0729824
0.0730589
0.0750043
0.0824941
0.0808516
0.0792445
0.0778939
0.0767111
0.075693
0.0747658
0.0739623
0.0732617
0.072766
0.0723092
0.0724196
0.0722102
0.073374
0.0734966
0.0757669
0.0806402
0.0799009
0.0786271
0.0775609
0.0764884
0.0755409
0.0746469
0.0738598
0.0731647
0.0726738
0.0722158
0.0723494
0.0721482
0.0733999
0.0735576
0.0760176
0.0792737
0.078989
0.0780519
0.0772161
0.0762591
0.0753802
0.0745185
0.0737452
0.0730517
0.0725614
0.0721012
0.0722639
0.0720919
0.0734766
0.0737358
0.0764062
0.0784349
0.0782887
0.0775358
0.0768376
0.0759645
0.0751349
0.0742906
0.073511
0.0727892
0.0722524
0.0717183
0.0717969
0.0714859
0.0727897
0.0728554
0.0757039
0.0778249
0.0777436
0.0771182
0.0765125
0.0756988
0.0749
0.0740607
0.073266
0.0725135
0.0719385
0.071366
0.0714419
0.0711554
0.0726661
0.0729207
0.0763371
0.0774168
0.0773602
0.0767966
0.0762353
0.0754468
0.0746515
0.0737911
0.0729481
0.0721138
0.0714087
0.0706369
0.0704102
0.0696438
0.0705762
0.0697369
0.0730241
0.0771653
0.0771208
0.0765805
0.0760329
0.0752438
0.0744329
0.0735398
0.0726469
0.0717481
0.0709633
0.0701206
0.0698419
0.0691036
0.0703653
0.069907
0.075945
0.0867506
0.0814769
0.0795717
0.0779401
0.0767343
0.0757301
0.0748469
0.0740972
0.0734584
0.0730155
0.0726141
0.0726987
0.0724787
0.0733354
0.0733278
0.0748139
0.0824144
0.0807702
0.0791888
0.0778684
0.0767297
0.0757639
0.0748997
0.0741686
0.0735499
0.0731368
0.0727645
0.0729077
0.0727256
0.073693
0.0737047
0.0754256
0.0805583
0.079817
0.0785688
0.0775328
0.0765041
0.0756086
0.074777
0.0740615
0.073447
0.0730371
0.0726603
0.072823
0.0726389
0.0736818
0.0737059
0.0755903
0.0791899
0.0789032
0.0779915
0.0771855
0.076272
0.0754446
0.0746446
0.073942
0.073328
0.072918
0.0725371
0.0727299
0.0725705
0.0737484
0.0738611
0.0759488
0.0783479
0.0781997
0.0774716
0.0768025
0.0759718
0.0751923
0.0744076
0.073696
0.0730501
0.0725898
0.0721283
0.0722336
0.0719215
0.0730177
0.0729101
0.0751777
0.0777343
0.0776513
0.07705
0.0764727
0.0757001
0.0749498
0.0741678
0.0734386
0.0727588
0.0722589
0.0717568
0.0718671
0.0715811
0.0729119
0.0729934
0.0758473
0.0773218
0.0772638
0.0767235
0.0761896
0.0754405
0.0746911
0.0738847
0.0731026
0.0723345
0.0716969
0.0709828
0.0707825
0.0699909
0.0707462
0.0696746
0.0724061
0.0770656
0.07702
0.0765023
0.0759811
0.0752296
0.0744622
0.0736198
0.072784
0.0719471
0.0712277
0.0704413
0.0702021
0.0694499
0.0705923
0.0699261
0.0754921
0.0866978
0.0814233
0.0795369
0.0779282
0.0767565
0.0757939
0.0749618
0.0742732
0.0737089
0.0733529
0.0730671
0.0732708
0.0732416
0.0742171
0.0744799
0.0758526
0.0823621
0.0807163
0.0791545
0.0778575
0.0767535
0.0758299
0.0750176
0.0743487
0.0738062
0.0734822
0.0732288
0.0734947
0.0735091
0.0745952
0.0748857
0.0764572
0.0805043
0.079761
0.0785323
0.0775195
0.0765255
0.075672
0.0748919
0.0742381
0.0736991
0.0733777
0.0731187
0.0734037
0.073413
0.0745723
0.0748682
0.0765923
0.0791343
0.0788456
0.0779532
0.0771702
0.076291
0.0755052
0.0747562
0.0741146
0.0735752
0.0732531
0.0729883
0.0733041
0.0733346
0.0746308
0.0750073
0.0769322
0.0782894
0.0781394
0.07743
0.0767834
0.0759861
0.0752469
0.0745116
0.0738587
0.0732842
0.0729082
0.072556
0.0727793
0.0726427
0.0738515
0.073982
0.0760852
0.0776727
0.0775881
0.077005
0.0764496
0.0757093
0.0749979
0.0742633
0.0735904
0.0729787
0.0725598
0.0721612
0.0723878
0.072266
0.0737128
0.07401
0.0767046
0.0772565
0.077197
0.0766744
0.0761615
0.0754433
0.0747308
0.0739688
0.0732389
0.0725327
0.0719679
0.0713426
0.0712433
0.0705803
0.071429
0.0704962
0.0730531
0.0769964
0.0769496
0.0764488
0.0759478
0.0752256
0.0744931
0.0736923
0.0729047
0.0721245
0.0714719
0.0707644
0.0706197
0.0699757
0.0712126
0.0706437
0.0760684
0.0866648
0.0813895
0.0795166
0.0779245
0.0767778
0.0758455
0.0750501
0.0744038
0.0738877
0.0735797
0.0733471
0.0735762
0.0735814
0.0744945
0.0747401
0.0759777
0.0823296
0.0806822
0.0791345
0.0778544
0.0767759
0.0758831
0.0751082
0.0744823
0.0739888
0.0737136
0.0735138
0.073804
0.0738505
0.0748656
0.0751314
0.076543
0.0804704
0.0797253
0.0785106
0.0775147
0.0765461
0.0757231
0.0749801
0.0743689
0.0738783
0.0736049
0.0733978
0.0737055
0.0737421
0.0748251
0.0750863
0.0766425
0.0790991
0.0788087
0.0779301
0.0771638
0.0763098
0.0755543
0.0748419
0.0742424
0.0737508
0.0734762
0.0732622
0.0736008
0.0736555
0.0748754
0.0752098
0.0769649
0.0782519
0.0781003
0.0774044
0.076774
0.0760012
0.0752914
0.0745915
0.0739792
0.0734504
0.0731199
0.0728149
0.0730594
0.07294
0.0740721
0.0741477
0.0760815
0.0776328
0.0775468
0.0769768
0.0764371
0.0757205
0.0750374
0.074337
0.073703
0.073135
0.0727602
0.0724064
0.0726561
0.0725487
0.0739276
0.0741635
0.0766942
0.0772136
0.0771529
0.0766428
0.0761451
0.0754495
0.074764
0.0740341
0.0733405
0.0726743
0.0721497
0.0715626
0.071483
0.0708218
0.071603
0.0705805
0.0729673
0.0769504
0.0769025
0.0764139
0.0759274
0.0752267
0.0745196
0.0737489
0.0729952
0.072252
0.0716374
0.070965
0.0708432
0.0702002
0.0713879
0.0707284
0.0760088
0.0866459
0.08137
0.0795059
0.0779246
0.0767943
0.0758819
0.075111
0.0744927
0.0740093
0.0737353
0.073544
0.0738038
0.0738584
0.0747775
0.075068
0.0762546
0.082311
0.0806626
0.079124
0.077855
0.0767932
0.0759208
0.0751707
0.0745734
0.0741133
0.0738729
0.0737157
0.0740376
0.0741351
0.0751553
0.0754673
0.0768165
0.0804508
0.0797045
0.078499
0.0775141
0.0765621
0.0757594
0.075041
0.0744582
0.0740007
0.0737618
0.0735967
0.0739356
0.0740215
0.0751082
0.0754121
0.0769022
0.0790786
0.078787
0.0779175
0.0771621
0.0763246
0.0755891
0.0749012
0.0743298
0.0738708
0.0736305
0.0734577
0.0738278
0.0739299
0.0751539
0.0755267
0.077215
0.0782299
0.0780771
0.07739
0.0767703
0.0760135
0.0753232
0.0746469
0.0740617
0.0735642
0.0732666
0.0730003
0.0732749
0.0731979
0.0743329
0.0744381
0.0763049
0.0776091
0.077522
0.0769605
0.0764312
0.0757302
0.0750659
0.0743881
0.0737801
0.073242
0.0728988
0.0725815
0.0728612
0.072792
0.0741757
0.074433
0.0768988
0.0771879
0.0771263
0.0766244
0.0761366
0.0754558
0.0747881
0.0740795
0.0734102
0.0727714
0.0722757
0.0717201
0.0716667
0.071033
0.0718142
0.0707898
0.0731043
0.0769225
0.0768739
0.076393
0.075916
0.0752295
0.0745392
0.0737884
0.0730573
0.0723393
0.0717514
0.071107
0.0710103
0.0703886
0.0715789
0.0709059
0.0761264
0.0866371
0.0813614
0.0795009
0.0779253
0.0768028
0.0759001
0.0751408
0.0745357
0.0740671
0.073807
0.0736315
0.0738978
0.0739631
0.0748662
0.0751547
0.0763128
0.0823028
0.0806535
0.0791193
0.0778558
0.0768021
0.0759394
0.0752011
0.0746171
0.074172
0.0739456
0.0738041
0.0741318
0.0742391
0.075241
0.0755491
0.0768648
0.0804417
0.0796949
0.0784938
0.0775142
0.0765704
0.0757774
0.0750707
0.074501
0.0740582
0.0738331
0.0736833
0.0740276
0.0741221
0.0751892
0.0754867
0.0769417
0.0790693
0.078777
0.0779118
0.0771617
0.0763322
0.0756064
0.07493
0.0743716
0.0739273
0.0737006
0.0735428
0.0739183
0.074028
0.0752322
0.0755963
0.0772488
0.0782197
0.0780662
0.0773834
0.0767688
0.07602
0.075339
0.0746739
0.0741013
0.0736179
0.0733335
0.0730815
0.0733615
0.0732907
0.0744063
0.0745
0.0763307
0.0775981
0.0775104
0.0769531
0.0764287
0.0757353
0.07508
0.074413
0.0738172
0.0732926
0.0729622
0.0726584
0.0729437
0.0728794
0.0742451
0.0744877
0.0769176
0.0771758
0.0771137
0.0766158
0.0761328
0.0754593
0.0748002
0.0741018
0.0734439
0.0728177
0.0723339
0.0717903
0.0717422
0.0711108
0.0718746
0.070829
0.0731052
0.0769093
0.0768603
0.0763833
0.0759108
0.0752312
0.074549
0.0738078
0.0730874
0.072381
0.0718043
0.0711707
0.0710794
0.0704587
0.0716338
0.0709361
0.0761201
0.0972755
0.0870006
0.0832501
0.0800977
0.0778298
0.0758892
0.0741166
0.0724301
0.0707546
0.0690443
0.0672419
0.0653296
0.0631794
0.0609187
0.0582085
0.0555452
0.0929297
0.0861035
0.0827924
0.0799676
0.0777826
0.0758839
0.0741285
0.072453
0.0707859
0.0690837
0.0672896
0.065387
0.0632444
0.0609946
0.0582854
0.0556265
0.0910536
0.0850965
0.082146
0.0796169
0.0775613
0.0757458
0.0740347
0.0723852
0.0707335
0.0690414
0.0672553
0.0653616
0.0632298
0.0609938
0.058301
0.0556586
0.089683
0.0841747
0.0815613
0.0792662
0.077337
0.0755997
0.0739313
0.0723063
0.070668
0.0689836
0.0672031
0.0653151
0.0631926
0.060968
0.0582958
0.0556713
0.0888499
0.0834844
0.0810596
0.0789103
0.0770794
0.075408
0.0737788
0.0721757
0.0705481
0.0688678
0.0670893
0.0652032
0.0630899
0.0608764
0.0582354
0.0556381
0.0882583
0.0829589
0.0806637
0.0786133
0.0768548
0.0752315
0.0736302
0.0720414
0.0704188
0.0687383
0.0669585
0.0650717
0.0629686
0.0607665
0.0581658
0.0555997
0.0878779
0.082603
0.080375
0.0783781
0.0766618
0.0750658
0.0734786
0.0718941
0.0702688
0.068581
0.066794
0.0649
0.062803
0.0606068
0.0580505
0.0555176
0.0876602
0.0823951
0.0801962
0.0782218
0.0765216
0.0749334
0.0733462
0.0717558
0.0701205
0.0684207
0.066624
0.0647224
0.062635
0.0604488
0.0579466
0.0554519
0.0929011
0.0860674
0.0827499
0.07992
0.0777328
0.0758307
0.074067
0.0723802
0.0706995
0.0689822
0.0671672
0.0652485
0.063071
0.0608133
0.0580475
0.0554128
0.0885379
0.0853301
0.0823314
0.0798124
0.0776973
0.0758323
0.0740815
0.0724023
0.070727
0.069015
0.0672048
0.0652928
0.0631192
0.0608698
0.0581028
0.0554742
0.0866733
0.0843615
0.0817049
0.0794758
0.0774823
0.0756968
0.0739882
0.0723339
0.0706731
0.0689707
0.0671683
0.065265
0.0631021
0.0608665
0.0581162
0.0555044
0.0853033
0.0834414
0.0811273
0.0791323
0.0772628
0.0755544
0.073888
0.0722577
0.0706105
0.0689161
0.0671198
0.0652227
0.0630704
0.0608467
0.0581182
0.0555238
0.0844751
0.0827509
0.0806286
0.0787791
0.0770066
0.0753638
0.0737367
0.0721288
0.0704927
0.0688031
0.0670097
0.0651152
0.0629735
0.0607609
0.0580659
0.0554972
0.0838846
0.0822234
0.0802341
0.0784843
0.0767841
0.0751894
0.073591
0.0719979
0.0703677
0.0686788
0.0668858
0.0649921
0.0628637
0.060664
0.0580142
0.0554752
0.0835055
0.0818672
0.0799467
0.0782507
0.0765923
0.0750251
0.0734416
0.0718534
0.0702211
0.0685257
0.0667267
0.0648261
0.0627058
0.0605107
0.05791
0.0554007
0.0832884
0.0816597
0.0797692
0.078096
0.0764536
0.0748945
0.0733118
0.0717185
0.0700773
0.0683711
0.0665646
0.064658
0.0625522
0.0603689
0.0578308
0.0553583
0.0910185
0.0850519
0.0821006
0.0795749
0.0775321
0.075732
0.0740368
0.0724049
0.0707712
0.0691007
0.0673208
0.0654546
0.0632638
0.0610613
0.0581255
0.0555164
0.0866699
0.0843555
0.0817049
0.0794848
0.0775061
0.0757395
0.0740562
0.072432
0.0708043
0.0691402
0.0673664
0.0655094
0.0633236
0.0611344
0.0581957
0.0555995
0.084817
0.0834084
0.0810929
0.0791596
0.077297
0.0756068
0.0739638
0.0723632
0.0707495
0.0690948
0.0673287
0.0654812
0.0633072
0.061134
0.0582136
0.0556363
0.0834527
0.0824968
0.0805223
0.0788222
0.0770813
0.0754665
0.0738643
0.072287
0.0706861
0.0690389
0.067279
0.065438
0.0632763
0.0611164
0.0582228
0.0556643
0.0826282
0.0818097
0.0800263
0.0784709
0.0768254
0.0752749
0.0737105
0.0721541
0.0705629
0.0689187
0.06716
0.0653193
0.0631684
0.061017
0.0581636
0.0556299
0.0820383
0.0812826
0.0796325
0.0781765
0.0766025
0.0750991
0.073562
0.0720189
0.070432
0.0687868
0.0670276
0.0651858
0.0630516
0.0609124
0.0581188
0.0556156
0.0816588
0.0809258
0.0793443
0.0779416
0.0764087
0.0749318
0.0734079
0.0718676
0.0702761
0.0686206
0.0668516
0.0649958
0.0628672
0.0607219
0.0579892
0.0555083
0.0814403
0.080717
0.0791655
0.0777852
0.0762677
0.0747978
0.0732731
0.0717257
0.070123
0.0684538
0.0666756
0.0648099
0.0627003
0.0605637
0.0579165
0.0554718
0.0896212
0.0841003
0.0814966
0.0792183
0.0773233
0.0756282
0.0740092
0.0724412
0.0708648
0.0692544
0.0675167
0.0657199
0.0634914
0.0613546
0.0581187
0.055543
0.0852731
0.0834048
0.0811076
0.0791349
0.077302
0.0756392
0.0740315
0.0724709
0.0709006
0.0692974
0.0675661
0.0657811
0.0635577
0.0614415
0.0582006
0.0556519
0.0834251
0.082465
0.0805015
0.0788148
0.0770954
0.0755074
0.0739385
0.0724006
0.0708433
0.0692491
0.0675251
0.0657503
0.0635395
0.0614417
0.0582199
0.0556922
0.0820637
0.081558
0.0799346
0.0784809
0.0768818
0.075368
0.0738389
0.0723233
0.0707781
0.0691909
0.067473
0.0657051
0.0635091
0.061427
0.0582386
0.0557321
0.0812414
0.0808733
0.07944
0.0781303
0.0766254
0.0751745
0.0736817
0.0721853
0.0706479
0.0690612
0.0673425
0.0655712
0.0633856
0.0613077
0.0581692
0.0556861
0.0806519
0.0803469
0.0790465
0.0778359
0.0764016
0.0749966
0.0735296
0.072045
0.0705101
0.0689202
0.0672003
0.0654265
0.0632641
0.0612008
0.058147
0.0556991
0.0802718
0.0799896
0.0787574
0.0775996
0.0762054
0.0748255
0.0733698
0.0718853
0.0703423
0.068737
0.0670021
0.0652039
0.063044
0.0609584
0.0579855
0.0555482
0.080052
0.0797797
0.0785771
0.0774413
0.0760616
0.0746874
0.0732291
0.0717351
0.0701784
0.068556
0.0668111
0.0650002
0.0628706
0.0607968
0.0579526
0.0555603
0.0887692
0.0833908
0.0809971
0.07889
0.0771321
0.0755511
0.0740314
0.0725581
0.0710772
0.0695787
0.0679435
0.0663129
0.0641329
0.0622186
0.0586708
0.0562376
0.0844269
0.0826947
0.0806114
0.07881
0.0771138
0.0755654
0.0740576
0.072593
0.0711198
0.0696314
0.0680056
0.0663943
0.0642247
0.062348
0.0587992
0.0564172
0.0825824
0.0817578
0.0800077
0.0784916
0.0769075
0.0754328
0.0739629
0.0725202
0.0710595
0.0695798
0.0679616
0.0663625
0.0642081
0.0623556
0.0588274
0.0564702
0.0812235
0.0808535
0.0794425
0.0781589
0.0766939
0.0752925
0.0738613
0.0724398
0.07099
0.0695164
0.067904
0.0663127
0.0641765
0.0623454
0.05886
0.0565314
0.0804016
0.0801694
0.0789474
0.077807
0.0764347
0.0750943
0.0736972
0.0722922
0.0708467
0.0693692
0.0677509
0.0661488
0.0640187
0.0621832
0.0587565
0.0564528
0.0798114
0.0796424
0.0785525
0.0775104
0.0762073
0.0749111
0.0735373
0.0721409
0.0706943
0.0692091
0.0675863
0.0659767
0.0638744
0.0620552
0.0587439
0.0564898
0.0794291
0.0792831
0.0782607
0.0772704
0.0760057
0.0747322
0.0733663
0.0719653
0.0705039
0.0689928
0.0673424
0.0656859
0.0635681
0.061689
0.0584704
0.0562051
0.0792064
0.0790704
0.0780769
0.0771078
0.075856
0.0745857
0.0732139
0.0717989
0.0703183
0.0687823
0.0671159
0.0654352
0.0633523
0.0614795
0.0584389
0.05624
0.0881327
0.0828185
0.0805808
0.0786045
0.0769671
0.0754924
0.0740723
0.0726984
0.0713181
0.0699361
0.0683929
0.0669094
0.0647016
0.0629157
0.0587951
0.0563237
0.0837911
0.0821186
0.0801954
0.0785259
0.0769508
0.0755093
0.0741017
0.0727373
0.0713657
0.0699959
0.0684636
0.0670052
0.0648105
0.063079
0.0589548
0.056541
0.0819466
0.0811808
0.079591
0.0782067
0.0767432
0.0753746
0.074004
0.0726606
0.0713004
0.0699388
0.0684131
0.0669681
0.0647887
0.0630851
0.058975
0.0565789
0.080588
0.0802768
0.0790258
0.0778736
0.0765285
0.0752323
0.0738993
0.0725759
0.0712254
0.069869
0.0683487
0.066913
0.0647559
0.0630827
0.0590266
0.0566719
0.0797652
0.0795919
0.078529
0.0775191
0.0762653
0.0750284
0.0737271
0.0724171
0.071067
0.0697015
0.0681694
0.0667146
0.064557
0.0628713
0.0588861
0.0565708
0.0791731
0.0790634
0.078132
0.0772196
0.0760334
0.0748388
0.0735583
0.0722538
0.0708991
0.0695219
0.0679839
0.0665217
0.0644046
0.0627542
0.0589389
0.0567237
0.078788
0.0787016
0.0778368
0.0769752
0.0758256
0.0746511
0.0733747
0.07206
0.0706831
0.0692686
0.0676891
0.0661556
0.0640027
0.0622536
0.0585537
0.0563246
0.0785618
0.0784857
0.0776492
0.0768078
0.0756691
0.0744953
0.0732094
0.0718762
0.0704751
0.0690296
0.0674334
0.0658748
0.063781
0.0620697
0.0586439
0.0565927
0.087686
0.0823964
0.080262
0.0783822
0.0768494
0.0754777
0.0741657
0.0729124
0.0716724
0.0704793
0.0691538
0.0680313
0.066138
0.0649731
0.0607533
0.0586079
0.083346
0.0816945
0.0798772
0.0783051
0.0768353
0.0754976
0.0741993
0.0729574
0.0717287
0.0705527
0.0692439
0.0681604
0.0662942
0.0652144
0.0609919
0.0587941
0.0815007
0.0807549
0.0792711
0.077984
0.0766254
0.0753602
0.074098
0.0728764
0.0716582
0.0704904
0.0691885
0.0681224
0.0662747
0.0652349
0.0610218
0.0588283
0.0801416
0.0798503
0.0787047
0.0776493
0.0764085
0.0752148
0.0739891
0.0727861
0.0715761
0.0704124
0.0691151
0.0680615
0.0662408
0.0652501
0.0611071
0.0589925
0.0793165
0.0791633
0.078205
0.0772909
0.0761398
0.0750033
0.0738065
0.0726128
0.0713975
0.0702168
0.0688965
0.0678094
0.0659693
0.064953
0.0608815
0.0588672
0.0787217
0.0786323
0.0778047
0.076987
0.0759018
0.0748053
0.0736259
0.0724332
0.0712076
0.0700078
0.0686743
0.0675735
0.0657746
0.0648155
0.0609668
0.0591854
0.0783327
0.0782669
0.0775049
0.0767367
0.0756858
0.074606
0.0734256
0.072215
0.0709551
0.0696981
0.0682929
0.0670705
0.065168
0.0640175
0.0602368
0.0584947
0.078102
0.0780468
0.0773122
0.0765627
0.0755205
0.0744381
0.0732434
0.0720073
0.070714
0.0694126
0.0679769
0.0667099
0.0648598
0.0637618
0.0603366
0.0590516
0.0873561
0.0820771
0.0800178
0.0782127
0.0767685
0.0754887
0.0742763
0.073133
0.0720131
0.070964
0.0697734
0.068832
0.0670242
0.0658983
0.0611552
0.0567454
0.0830169
0.0813734
0.0796332
0.0781366
0.0767563
0.0755113
0.0743135
0.0731829
0.0720756
0.0710458
0.0698735
0.068977
0.0672014
0.0661643
0.0613473
0.05609
0.0811697
0.0804311
0.0790245
0.0778128
0.0765434
0.0753703
0.0742078
0.0730963
0.0719981
0.0709754
0.0698079
0.0689292
0.0671679
0.0661673
0.0613216
0.0558568
0.0798092
0.079525
0.0784563
0.0774759
0.0763236
0.0752213
0.0740942
0.0730001
0.0719084
0.070889
0.0697251
0.0688633
0.0671328
0.066202
0.0614464
0.0561048
0.0789812
0.0788351
0.0779528
0.0771128
0.0760488
0.0750017
0.0739005
0.0728119
0.0717096
0.0706663
0.0694688
0.0685622
0.0667919
0.0658321
0.0611568
0.0560979
0.078383
0.0783011
0.0775485
0.0768039
0.0758042
0.0747947
0.073708
0.0726166
0.0714999
0.0704343
0.0692223
0.0683103
0.0665974
0.0657601
0.0614102
0.0569143
0.0779895
0.0779315
0.0772436
0.0765472
0.0755794
0.0745834
0.0734908
0.0723744
0.071213
0.0700741
0.0687659
0.0676957
0.0658187
0.0647372
0.060421
0.0563052
0.0777538
0.0777069
0.0770452
0.0763663
0.075405
0.0744032
0.073292
0.0721447
0.0709444
0.069756
0.0684179
0.0673165
0.0655259
0.0646306
0.0608615
0.0580633
0.0774048
0.0773636
0.0767449
0.0761077
0.075192
0.0742321
0.0731582
0.0720429
0.0708692
0.0697024
0.0683807
0.067291
0.0655056
0.0646101
0.0608281
0.0580091
0.0774703
0.0774244
0.076762
0.0760848
0.075123
0.0741153
0.0729882
0.0718106
0.0705665
0.0693052
0.0679005
0.066656
0.0648182
0.0637242
0.060288
0.0589871
0.0777025
0.0776381
0.0768942
0.0761469
0.0751149
0.0740415
0.0728472
0.071594
0.0702605
0.0688703
0.0673172
0.06579
0.0637146
0.0620111
0.0585772
0.056512
0.0781676
0.0780453
0.0771594
0.0763004
0.0751745
0.074024
0.0727624
0.0714441
0.0700457
0.0685772
0.0669639
0.0653223
0.0632638
0.0614032
0.0583594
0.0561503
0.0788742
0.0786163
0.0775319
0.0765184
0.0752788
0.074039
0.0727048
0.0713205
0.0698573
0.068312
0.066628
0.0648624
0.0627625
0.0607048
0.0578619
0.0554628
0.0801676
0.0794604
0.0780342
0.0767845
0.0754168
0.0740907
0.0726994
0.0712703
0.0697687
0.0681831
0.0664711
0.0646551
0.0625788
0.0604614
0.057819
0.0553701
0.0819463
0.0803354
0.0785754
0.0770385
0.075553
0.0741446
0.0727015
0.0712325
0.0696978
0.0680799
0.0663435
0.0644899
0.0624203
0.0602585
0.057728
0.0552534
0.0863071
0.0810647
0.078996
0.0771582
0.0756143
0.0741777
0.0727325
0.0712673
0.0697393
0.0681283
0.0664022
0.0645537
0.0625028
0.0603383
0.057844
0.0553474
0.0772079
0.0771675
0.0765868
0.0759909
0.0751291
0.0742275
0.0732176
0.0721711
0.0710676
0.0699759
0.068704
0.0676606
0.0657969
0.0647183
0.0603789
0.0562263
0.0772679
0.077223
0.0765977
0.0759605
0.0750503
0.0740978
0.0730302
0.0719158
0.0707361
0.0695444
0.0681897
0.0670043
0.0651216
0.063978
0.0601764
0.0584064
0.0774948
0.0774317
0.076724
0.0760154
0.0750326
0.0740109
0.0728712
0.0716739
0.0703953
0.0690608
0.0675432
0.066055
0.0639277
0.0621888
0.0584725
0.0562198
0.0779555
0.0778349
0.0769844
0.0761631
0.0750846
0.0739832
0.0727724
0.0715054
0.0701566
0.0687374
0.0671585
0.0655548
0.0634688
0.0616047
0.0583772
0.0560941
0.078658
0.078402
0.0773526
0.0763759
0.075182
0.0739888
0.072702
0.0713643
0.069945
0.0684409
0.0667852
0.0650457
0.0629231
0.0608569
0.0578816
0.0554318
0.079949
0.0792441
0.0778525
0.0766394
0.0753164
0.0740356
0.0726899
0.0713049
0.0698445
0.0682966
0.066612
0.0648191
0.0627319
0.0606094
0.0578796
0.0553902
0.0817257
0.0801175
0.0783918
0.0768909
0.0754496
0.0740854
0.0726862
0.0712593
0.0697636
0.0681802
0.0664695
0.064635
0.0625592
0.0603897
0.0577957
0.055281
0.0860869
0.0808487
0.078814
0.0770123
0.0755121
0.0741201
0.0727197
0.0712974
0.0698093
0.068234
0.0665358
0.0647082
0.062656
0.0604857
0.0579367
0.0553989
0.0770632
0.0770224
0.0764705
0.0759072
0.07509
0.0742391
0.0732876
0.0723089
0.0712846
0.0702939
0.0691396
0.068271
0.0665788
0.0657468
0.0613551
0.0567946
0.0771179
0.077073
0.0764756
0.0758697
0.0750018
0.0740966
0.0730825
0.0720285
0.0709171
0.06981
0.0685477
0.0675
0.0657281
0.0647783
0.0608921
0.0590649
0.0773399
0.077277
0.0765962
0.0759179
0.0749751
0.0739973
0.0729058
0.0717608
0.070538
0.0692674
0.0678115
0.0664094
0.0643244
0.0626861
0.0588408
0.0565889
0.0777964
0.0776764
0.0768522
0.07606
0.0750198
0.0739597
0.0727933
0.0715728
0.0702722
0.068905
0.0673736
0.0658311
0.0637677
0.0619663
0.0586369
0.0563555
0.0784952
0.07824
0.0772163
0.076268
0.0751106
0.0739564
0.0727106
0.0714144
0.0700363
0.0685735
0.0669523
0.0652512
0.0631337
0.061093
0.058031
0.0555636
0.079784
0.0790802
0.0777141
0.076529
0.0752418
0.0739985
0.0726919
0.0713459
0.0699232
0.0684111
0.0667558
0.0649908
0.062906
0.0607935
0.0579995
0.0554826
0.0815587
0.0799521
0.0782516
0.0767783
0.0753722
0.0740446
0.0726827
0.0712927
0.069832
0.0682806
0.0665953
0.0647816
0.0627062
0.0605362
0.0578916
0.0553433
0.0859204
0.0806849
0.0786752
0.0769012
0.0754359
0.0740807
0.0727185
0.0713337
0.0698813
0.0683389
0.0666672
0.0648607
0.0628111
0.0606391
0.0580447
0.0554698
0.0769587
0.0769171
0.0763869
0.0758489
0.0750672
0.0742569
0.073352
0.0724243
0.0714536
0.070518
0.0694044
0.068564
0.0668254
0.0658768
0.0611297
0.0559574
0.0770086
0.0769632
0.0763868
0.0758052
0.0749709
0.0741037
0.0731325
0.0721252
0.0710623
0.0700055
0.0687812
0.0677681
0.0659645
0.0649631
0.0608277
0.0587396
0.0772262
0.0771631
0.0765024
0.0758473
0.0749363
0.0739939
0.0729414
0.0718378
0.0706566
0.0694275
0.0680003
0.0666238
0.0645057
0.0628354
0.0587984
0.0564265
0.0776791
0.0775591
0.0767544
0.0759847
0.0749747
0.0739479
0.0728176
0.0716348
0.0703714
0.0690408
0.0675357
0.0660176
0.0639341
0.0621201
0.0586603
0.0563154
0.0783745
0.0781195
0.077115
0.0761883
0.0750599
0.0739369
0.0727246
0.0714625
0.0701175
0.0686857
0.0670866
0.0654037
0.0632706
0.0612187
0.058062
0.055549
0.0796614
0.0789581
0.0776109
0.0764473
0.0751881
0.0739752
0.0727006
0.0713868
0.069995
0.0685113
0.066877
0.0651282
0.0630349
0.0609138
0.0580538
0.0554984
0.0814344
0.0798287
0.0781467
0.0766946
0.0753161
0.0740179
0.0726868
0.0713275
0.0698959
0.0683708
0.0667053
0.0649055
0.0628251
0.0606461
0.0579524
0.0553678
0.0857965
0.0805628
0.0785716
0.0768188
0.0753809
0.0740554
0.0727247
0.0713713
0.0699489
0.0684338
0.0667835
0.0649923
0.0629411
0.0607616
0.0581238
0.0555115
0.0768853
0.0768428
0.0763287
0.07581
0.075056
0.0742781
0.0734111
0.0725264
0.071604
0.0707234
0.0696678
0.0688953
0.0672055
0.0662924
0.0614183
0.0558852
0.0769312
0.0768851
0.0763242
0.075761
0.0749529
0.0741159
0.0731793
0.0722106
0.07119
0.0701804
0.0690024
0.0680444
0.0662688
0.0653017
0.0610579
0.0588366
0.0771451
0.0770815
0.0764357
0.0757981
0.0749118
0.0739972
0.0729761
0.0719065
0.0707609
0.0695694
0.0681754
0.0668363
0.0647248
0.0630724
0.0589353
0.056504
0.0775948
0.0774747
0.0766844
0.0759315
0.0749449
0.0739442
0.0728428
0.0716905
0.0704583
0.0691593
0.0676808
0.0661906
0.0641082
0.0623046
0.0587679
0.0563867
0.0782875
0.0780324
0.0770419
0.0761315
0.0750253
0.0739269
0.0727412
0.0715066
0.0701889
0.0687832
0.067205
0.065541
0.0634048
0.061354
0.0581357
0.0555914
0.0795728
0.0788696
0.0775362
0.0763887
0.0751512
0.0739618
0.0727127
0.0714248
0.0700582
0.068598
0.0669822
0.0652482
0.0631522
0.0610279
0.0581211
0.0555354
0.0813443
0.079739
0.0780707
0.0766344
0.0752771
0.0740019
0.0726952
0.0713604
0.0699525
0.0684489
0.0668001
0.0650123
0.0629297
0.0607448
0.0580141
0.0553995
0.0857067
0.0804742
0.0784967
0.0767597
0.0753428
0.0740405
0.0727348
0.0714066
0.0700086
0.0685157
0.0668832
0.0651047
0.0630531
0.0608677
0.0581959
0.0555521
0.0768361
0.0767927
0.0762902
0.0757854
0.0750516
0.0742974
0.0734579
0.0726038
0.0717138
0.0708659
0.0698371
0.0690822
0.0673765
0.0664088
0.0613625
0.0555254
0.0768789
0.0768321
0.0762823
0.0757323
0.0749433
0.0741283
0.0732171
0.0722761
0.0712845
0.0703041
0.0691496
0.0682098
0.0664207
0.0654244
0.0610541
0.0586985
0.0770898
0.0770257
0.0763905
0.0757655
0.0748971
0.074003
0.073005
0.07196
0.0708396
0.0696727
0.068297
0.0669723
0.0648466
0.0631757
0.0589404
0.0564402
0.0775371
0.0774167
0.0766365
0.0758957
0.0749261
0.0739446
0.0728645
0.0717346
0.0705249
0.0692474
0.0677849
0.0663075
0.064215
0.0624007
0.058794
0.0563709
0.0782276
0.0779724
0.0769918
0.076093
0.0750029
0.0739225
0.0727565
0.0715423
0.0702445
0.0688574
0.0672927
0.0656388
0.0634948
0.0614351
0.058165
0.055589
0.0795116
0.0788085
0.0774849
0.0763488
0.075127
0.073955
0.0727247
0.0714561
0.0701082
0.068665
0.067062
0.0653367
0.0632359
0.0611039
0.0581589
0.0555459
0.081282
0.079677
0.0780183
0.0765933
0.0752514
0.073993
0.0727043
0.0713879
0.0699977
0.06851
0.0668732
0.0650932
0.0630077
0.0608154
0.0580553
0.0554154
0.0856447
0.080413
0.0784451
0.0767195
0.0753178
0.0740326
0.0727454
0.071436
0.0700563
0.0685799
0.0669605
0.0651906
0.0631377
0.0609457
0.0582472
0.0555775
0.076806
0.076762
0.076267
0.0757711
0.0750507
0.0743121
0.0734909
0.0726571
0.0717892
0.070964
0.0699567
0.0692206
0.0675199
0.06654
0.0614129
0.0553964
0.0768466
0.0767993
0.0762567
0.0757153
0.0749387
0.0741383
0.0732439
0.0723213
0.0713493
0.0703888
0.0692519
0.0683281
0.0665395
0.0655374
0.0611034
0.0586721
0.0770555
0.076991
0.0763626
0.0757459
0.0748891
0.0740085
0.0730258
0.0719972
0.0708937
0.0697434
0.0683812
0.0670683
0.064939
0.0632633
0.0589749
0.056435
0.0775012
0.0773805
0.0766069
0.0758739
0.0749154
0.0739465
0.0728805
0.0717655
0.0705708
0.0693076
0.0678564
0.0663882
0.0642919
0.0624737
0.0588268
0.056378
0.0781902
0.0779348
0.0769606
0.0760693
0.0749897
0.0739211
0.0727682
0.0715675
0.070283
0.0689083
0.067353
0.065706
0.0635582
0.061494
0.0581926
0.0555961
0.0794733
0.0787702
0.0774528
0.0763242
0.0751126
0.073952
0.0727342
0.0714784
0.070143
0.0687111
0.0671167
0.0653972
0.0632936
0.0611568
0.0581877
0.0555563
0.081243
0.0796381
0.0779855
0.0765679
0.0752359
0.0739886
0.0727119
0.0714077
0.0700293
0.0685522
0.0669235
0.0651486
0.0630611
0.0608639
0.0580846
0.0554275
0.0856059
0.0803747
0.0784129
0.0766946
0.0753029
0.0740289
0.072754
0.0714572
0.0700896
0.0686242
0.0670134
0.0652492
0.0631954
0.0609987
0.0582824
0.0555949
0.0767917
0.0767473
0.076256
0.0757645
0.0750506
0.0743196