/*--------------------------------*- C++ -*----------------------------------*\
| =========                 |                                                 |
| \\      /  F ield         | OpenFOAM: The Open Source CFD Toolbox           |
|  \\    /   O peration     | Version:  v1912                                 |
|   \\  /    A nd           | Website:  www.openfoam.com                      |
|    \\/     M anipulation  |                                                 |
\*---------------------------------------------------------------------------*/
FoamFile
{
    version     2.0;
    format      ascii;
    class       volVectorField;
    location    "0.14/fluid";
    object      U;
}
// * * * * * * * * * * * * * * * * * * * * * * * * * * * * * * * * * * * * * //

dimensions      [0 1 -1 0 0 0 0];


internalField   nonuniform List<vector> 
14592
(
(0.0902177 0.0126251 -0.000194479)
(0.082478 0.00625324 -0.000697253)
(0.0763873 0.00313035 -0.0012185)
(0.0737268 0.00139404 -0.00181774)
(0.072104 0.000756917 -0.00261445)
(0.0708799 0.000512635 -0.00364576)
(0.0697723 0.000441694 -0.00497539)
(0.0685734 0.000445254 -0.00669507)
(0.0671535 0.00048866 -0.0089431)
(0.0654899 0.000547993 -0.0119352)
(0.0631254 0.000624575 -0.0159838)
(0.0606112 0.000639556 -0.02165)
(0.0555909 0.000675634 -0.0298084)
(0.0510412 0.000321997 -0.0420026)
(0.0368051 0.000147541 -0.0606808)
(0.0221916 -0.00193583 -0.0708148)
(0.103707 0.0112057 -0.000414173)
(0.104191 0.00752343 -0.00113265)
(0.103616 0.00473405 -0.00183236)
(0.102326 0.00286218 -0.00262264)
(0.101102 0.00202844 -0.00366703)
(0.0997977 0.00169417 -0.00502728)
(0.0984362 0.00164569 -0.0067896)
(0.0968682 0.00176826 -0.00907703)
(0.0949651 0.00201336 -0.0120737)
(0.0926878 0.00234939 -0.0160649)
(0.089482 0.0027681 -0.0214654)
(0.085906 0.00318901 -0.0290085)
(0.0791028 0.00365884 -0.0398221)
(0.0723675 0.0037892 -0.0559182)
(0.0528034 0.00392624 -0.080089)
(0.0323032 0.0016399 -0.0931352)
(0.102891 0.00692559 -0.000419423)
(0.104319 0.00687135 -0.00114521)
(0.105176 0.00533788 -0.0018488)
(0.104676 0.00395946 -0.00264156)
(0.104011 0.00322732 -0.00368838)
(0.103026 0.00294557 -0.00505094)
(0.101874 0.0029987 -0.00681493)
(0.100447 0.00330233 -0.00910338)
(0.0986428 0.00381504 -0.0121009)
(0.0964314 0.0045103 -0.0160962)
(0.0932341 0.00537674 -0.0215078)
(0.0896058 0.00634899 -0.0290911)
(0.0825646 0.00742482 -0.0399835)
(0.07544 0.0082909 -0.0563101)
(0.0549149 0.00893384 -0.0808577)
(0.0331578 0.00653791 -0.0945216)
(0.101522 0.00505964 -0.000380883)
(0.102774 0.00599664 -0.0010803)
(0.104084 0.00519821 -0.00176484)
(0.104122 0.0043311 -0.00253614)
(0.103923 0.00385809 -0.00355225)
(0.103278 0.00375875 -0.00487079)
(0.102392 0.00398774 -0.00657294)
(0.101188 0.00450411 -0.0087762)
(0.0995846 0.00529205 -0.0116578)
(0.0975618 0.00634839 -0.0154987)
(0.0945239 0.00768131 -0.0207045)
(0.0910173 0.00926299 -0.0280339)
(0.0839605 0.01109 -0.0385925)
(0.0766878 0.0128932 -0.054602)
(0.0556515 0.0144327 -0.0787617)
(0.0331126 0.0115302 -0.0928298)
(0.100963 0.00380571 -0.000323713)
(0.101991 0.00510706 -0.000983247)
(0.103368 0.00487845 -0.00164034)
(0.103682 0.00446494 -0.00238078)
(0.103799 0.00428322 -0.00335217)
(0.103451 0.00440651 -0.00460621)
(0.102845 0.00484411 -0.00621713)
(0.101914 0.00559608 -0.00829333)
(0.100587 0.0066759 -0.0109991)
(0.0988572 0.00810941 -0.0145997)
(0.0961221 0.0099287 -0.019474)
(0.0929178 0.0121513 -0.0263679)
(0.0860728 0.0147702 -0.0363158)
(0.0788624 0.0175588 -0.0516428)
(0.0572738 0.0200648 -0.0748454)
(0.0336711 0.0163716 -0.0892895)
(0.100718 0.00301731 -0.000255957)
(0.10161 0.00433932 -0.000867626)
(0.103001 0.00443341 -0.00149214)
(0.103508 0.00434234 -0.00219583)
(0.103875 0.00441794 -0.00311353)
(0.103796 0.00475856 -0.0042897)
(0.103471 0.00540226 -0.00578969)
(0.102838 0.00638094 -0.00771002)
(0.10184 0.00774174 -0.010198)
(0.100473 0.00955854 -0.0134974)
(0.0981345 0.0119248 -0.017952)
(0.0953257 0.0149944 -0.0242877)
(0.0887842 0.0188887 -0.0334448)
(0.0816844 0.0237282 -0.0478796)
(0.0594614 0.0290746 -0.0697976)
(0.0345791 0.0261202 -0.0848078)
(0.100628 0.00236466 -0.000179293)
(0.101478 0.00359963 -0.000736887)
(0.102911 0.00390994 -0.00132462)
(0.103575 0.00406598 -0.0019866)
(0.104154 0.00436228 -0.00284295)
(0.104325 0.00489595 -0.00392947)
(0.104288 0.00571998 -0.00530016)
(0.103994 0.00688719 -0.00703517)
(0.103412 0.00846854 -0.00925628)
(0.102574 0.0105742 -0.0121681)
(0.100948 0.0133329 -0.0160457)
(0.0990814 0.0170085 -0.0215283)
(0.0938174 0.0217595 -0.0293346)
(0.0882697 0.02806 -0.0418937)
(0.0666969 0.0353681 -0.0607245)
(0.0411274 0.0323682 -0.0756379)
(0.100608 0.00175821 -9.74393e-05)
(0.101489 0.0028407 -0.000597345)
(0.103011 0.00328747 -0.00114588)
(0.103825 0.00362979 -0.00176337)
(0.104598 0.00410568 -0.00255419)
(0.105 0.00479669 -0.00354482)
(0.10524 0.00576126 -0.00477725)
(0.105281 0.00706742 -0.00631439)
(0.105117 0.00881074 -0.00825226)
(0.104795 0.0111544 -0.0107566)
(0.103849 0.0143093 -0.0140408)
(0.102796 0.0188306 -0.0186626)
(0.0986189 0.0252513 -0.0251535)
(0.09437 0.0359693 -0.0359144)
(0.07363 0.0519518 -0.0519014)
(0.0504304 0.0677798 -0.0677144)
(0.0901695 0.0126289 -0.000368832)
(0.0822828 0.00626392 -0.000908124)
(0.0759931 0.00314115 -0.00138621)
(0.0731506 0.00140649 -0.0019244)
(0.0713221 0.000772834 -0.00265188)
(0.06986 0.000533669 -0.00360902)
(0.0684542 0.000470048 -0.00485441)
(0.0668707 0.000483935 -0.00646705)
(0.0649471 0.000542399 -0.00856076)
(0.0626256 0.000624156 -0.0112921)
(0.0594159 0.000737286 -0.0148769)
(0.0558135 0.000812877 -0.0195602)
(0.0496097 0.000959714 -0.0257761)
(0.0433774 0.000821757 -0.0333182)
(0.0289561 0.000968961 -0.0426765)
(0.0127988 -0.000396253 -0.0374954)
(0.103644 0.0112244 -0.000614335)
(0.103942 0.00755824 -0.00137715)
(0.10311 0.00477608 -0.00202673)
(0.101573 0.00291339 -0.00274216)
(0.10007 0.00209409 -0.00370013)
(0.0984424 0.00178064 -0.00496651)
(0.0966754 0.00176132 -0.00662149)
(0.094584 0.00192391 -0.00877239)
(0.0919932 0.00222368 -0.0115726)
(0.0888121 0.00263355 -0.0152341)
(0.0844317 0.00315431 -0.0200483)
(0.0793325 0.00371179 -0.0263585)
(0.0708025 0.00438016 -0.034729)
(0.0617092 0.00477919 -0.0449952)
(0.041622 0.00526417 -0.0575419)
(0.0191562 0.0032575 -0.0507931)
(0.102829 0.00696205 -0.000622128)
(0.10407 0.00693455 -0.00139349)
(0.104669 0.00541704 -0.00204657)
(0.103922 0.00405687 -0.00276377)
(0.10298 0.00335202 -0.00372345)
(0.101673 0.00310965 -0.00499151)
(0.100117 0.00321805 -0.00664769)
(0.0981696 0.00359749 -0.00879919)
(0.0956797 0.00421298 -0.0115997)
(0.0925663 0.00504479 -0.0152635)
(0.088191 0.00609324 -0.0200839)
(0.0830338 0.00729282 -0.0264181)
(0.0742394 0.00867022 -0.0348303)
(0.0647256 0.00985198 -0.045202)
(0.0436235 0.0108546 -0.0578835)
(0.0198256 0.00813587 -0.0510966)
(0.101462 0.00510931 -0.000584779)
(0.10253 0.00608223 -0.00133085)
(0.10359 0.00530683 -0.00196538)
(0.103391 0.00446566 -0.00266181)
(0.102926 0.00403089 -0.00359188)
(0.101972 0.00398678 -0.00481756)
(0.100701 0.00429365 -0.0064143)
(0.0990013 0.0049177 -0.00848415)
(0.0967433 0.00585296 -0.011174)
(0.0938586 0.00710717 -0.0146913)
(0.0896876 0.00870661 -0.0193183)
(0.0847103 0.0106248 -0.0254156)
(0.0759406 0.0129011 -0.0335216)
(0.0663317 0.0151645 -0.0435945)
(0.0446794 0.0172374 -0.0559331)
(0.0200122 0.013704 -0.0494617)
(0.100905 0.00386817 -0.00052921)
(0.101757 0.00521413 -0.00123677)
(0.102894 0.00501492 -0.00184473)
(0.102983 0.00463452 -0.00251141)
(0.10285 0.0045015 -0.00339842)
(0.102214 0.00469532 -0.00456211)
(0.101251 0.00523287 -0.0060714)
(0.0998592 0.00612403 -0.00802002)
(0.0979263 0.00739585 -0.0105434)
(0.0953986 0.00908974 -0.013836)
(0.0916071 0.0112629 -0.0181581)
(0.0870358 0.0139366 -0.0238666)
(0.0785614 0.0171632 -0.0314485)
(0.0691299 0.0205722 -0.0409728)
(0.0468433 0.0238185 -0.0526373)
(0.0209634 0.0191904 -0.0466779)
(0.100662 0.00308926 -0.000463441)
(0.101386 0.00446248 -0.00112473)
(0.10255 0.00459075 -0.00170122)
(0.102848 0.0045383 -0.00233248)
(0.102984 0.00467079 -0.00316783)
(0.102642 0.00509421 -0.00425674)
(0.101993 0.0058562 -0.00565989)
(0.100946 0.00700164 -0.00746025)
(0.0994014 0.0085964 -0.0097783)
(0.0973169 0.0107385 -0.012791)
(0.0940163 0.0135609 -0.0167307)
(0.0899669 0.0172412 -0.0219484)
(0.0818903 0.0220033 -0.0288638)
(0.0727118 0.0278201 -0.0376968)
(0.0496926 0.034464 -0.0484927)
(0.0223514 0.0303915 -0.0432774)
(0.100575 0.00244355 -0.000389126)
(0.101266 0.00373438 -0.000998144)
(0.102487 0.00408225 -0.00153914)
(0.102958 0.00428085 -0.00213022)
(0.103329 0.0046399 -0.0029066)
(0.103267 0.00526516 -0.00390959)
(0.102947 0.00622063 -0.00518948)
(0.102296 0.00757429 -0.00681475)
(0.101249 0.00941916 -0.00888411)
(0.0998103 0.0118952 -0.0115444)
(0.0973841 0.015178 -0.0149762)
(0.0945219 0.019569 -0.0194863)
(0.0879891 0.0253486 -0.0253529)
(0.0807937 0.0328467 -0.0329133)
(0.058403 0.0418107 -0.0419001)
(0.0302438 0.0373563 -0.0374342)
(0.100557 0.00184053 -0.000309874)
(0.10129 0.00298114 -0.000863142)
(0.102615 0.00346712 -0.00136632)
(0.103255 0.0038539 -0.00191457)
(0.103843 0.00439544 -0.00262795)
(0.104044 0.00518252 -0.00353908)
(0.104045 0.00628566 -0.00468719)
(0.103789 0.0077901 -0.00612555)
(0.103242 0.00981726 -0.00793081)
(0.102435 0.0125692 -0.01022)
(0.100837 0.0163188 -0.0131269)
(0.0989977 0.021703 -0.0169207)
(0.0937587 0.0294423 -0.0217579)
(0.088238 0.0419645 -0.0281199)
(0.0666888 0.0608018 -0.0354499)
(0.0411354 0.0757418 -0.03244)
(0.09013 0.0126326 -0.000457098)
(0.0821155 0.00627383 -0.000991562)
(0.0756481 0.00315132 -0.00141945)
(0.0726354 0.00141824 -0.00189147)
(0.0706115 0.000787763 -0.00253505)
(0.0689219 0.000553209 -0.00338979)
(0.0672308 0.000495936 -0.00450727)
(0.0652772 0.000518174 -0.0059538)
(0.0628619 0.000587299 -0.00782305)
(0.0598716 0.00068201 -0.0102351)
(0.0557671 0.000809821 -0.0133622)
(0.0509125 0.000900931 -0.0173417)
(0.0432631 0.00105889 -0.0225251)
(0.0350708 0.000942075 -0.0284765)
(0.0206553 0.00104948 -0.0355314)
(0.00602022 -0.000203133 -0.0309401)
(0.103591 0.0112422 -0.000705493)
(0.103726 0.00759111 -0.00145656)
(0.102663 0.00481589 -0.00204283)
(0.100897 0.00296188 -0.00267412)
(0.0991304 0.00215611 -0.00352467)
(0.0971936 0.0018621 -0.00465843)
(0.0950405 0.00186978 -0.00614645)
(0.0924491 0.00206888 -0.00807917)
(0.0891959 0.00241717 -0.0105829)
(0.0851188 0.00288985 -0.0138208)
(0.0795417 0.00349069 -0.018022)
(0.0727908 0.00414373 -0.0233852)
(0.0623362 0.00492619 -0.0303454)
(0.0507222 0.00544178 -0.0384168)
(0.0305377 0.00600576 -0.0477877)
(0.00999819 0.0039201 -0.0415891)
(0.102777 0.00699672 -0.000714504)
(0.103855 0.00699445 -0.00147447)
(0.104223 0.00549209 -0.00206387)
(0.103246 0.00414914 -0.00269647)
(0.102041 0.00346996 -0.00354826)
(0.100426 0.00326456 -0.00468332)
(0.0984856 0.00342469 -0.00617232)
(0.0960401 0.00387479 -0.00810562)
(0.092889 0.00458535 -0.0106098)
(0.0888788 0.00554214 -0.0138498)
(0.0832988 0.00675402 -0.0180566)
(0.076475 0.00815242 -0.023439)
(0.0657158 0.00978169 -0.0304326)
(0.0536285 0.0112071 -0.0385826)
(0.0323623 0.0124614 -0.04805)
(0.010475 0.00941474 -0.0418215)
(0.101412 0.00515651 -0.000679956)
(0.102321 0.00616341 -0.00141669)
(0.103157 0.00540979 -0.00198889)
(0.102736 0.00459307 -0.00260234)
(0.102018 0.00419428 -0.00342693)
(0.10077 0.0042021 -0.00452317)
(0.0991322 0.00458204 -0.00595794)
(0.0969564 0.00530694 -0.00781709)
(0.0940654 0.00637984 -0.0102214)
(0.09032 0.0078184 -0.0133304)
(0.0849833 0.00966517 -0.0173661)
(0.0783862 0.011894 -0.0225421)
(0.0676753 0.0145815 -0.0292751)
(0.0555148 0.0172612 -0.037179)
(0.0336235 0.0198148 -0.0463832)
(0.0107532 0.0157896 -0.0404603)
(0.100857 0.00392746 -0.00062841)
(0.101555 0.00531563 -0.00132956)
(0.102479 0.00514419 -0.00187723)
(0.102358 0.004795 -0.00246332)
(0.101988 0.00470781 -0.00324841)
(0.101077 0.00496795 -0.00428795)
(0.0997717 0.0055994 -0.00564303)
(0.0979384 0.00662128 -0.00739232)
(0.0954173 0.00807352 -0.00964696)
(0.0920883 0.0100127 -0.0125559)
(0.0872019 0.0125211 -0.0163241)
(0.0811049 0.015626 -0.0211654)
(0.0707585 0.01944 -0.0274584)
(0.0588597 0.0234642 -0.0349195)
(0.0362184 0.0274644 -0.0436119)
(0.0119174 0.0221795 -0.0381641)
(0.100616 0.00315749 -0.000567445)
(0.101194 0.00457915 -0.00122582)
(0.102157 0.0047397 -0.00174447)
(0.102259 0.00472365 -0.00229801)
(0.102175 0.00490967 -0.00303574)
(0.101582 0.00541092 -0.00400693)
(0.100624 0.00628404 -0.00526538)
(0.0991779 0.00758612 -0.00688047)
(0.0971022 0.00940106 -0.0089506)
(0.0942945 0.0118504 -0.0116105)
(0.0899936 0.0151077 -0.015042)
(0.084548 0.0193766 -0.0194583)
(0.0746998 0.0249871 -0.0251839)
(0.0631896 0.0317802 -0.0320736)
(0.0396798 0.0397402 -0.0400822)
(0.0136153 0.0349677 -0.0352823)
(0.100531 0.00251829 -0.000498619)
(0.101086 0.00386194 -0.00110868)
(0.102118 0.00424528 -0.00159461)
(0.10241 0.00448397 -0.00211127)
(0.102583 0.00490207 -0.00279499)
(0.102297 0.00561346 -0.00368779)
(0.101706 0.00669248 -0.00483442)
(0.10071 0.00822164 -0.0062919)
(0.0992088 0.0103157 -0.00814055)
(0.0971602 0.0131449 -0.0104914)
(0.0938895 0.0169362 -0.0134856)
(0.0898688 0.0220355 -0.01731)
(0.0818182 0.0288644 -0.0221823)
(0.0726702 0.0376353 -0.0280893)
(0.0496794 0.0484089 -0.0347728)
(0.022351 0.0432036 -0.030671)
(0.100516 0.00191847 -0.000425277)
(0.101122 0.003114 -0.000983808)
(0.102274 0.00363699 -0.00143491)
(0.102751 0.00406566 -0.00191223)
(0.103163 0.00466896 -0.00253826)
(0.103171 0.00554636 -0.00334726)
(0.102942 0.00677973 -0.00437424)
(0.102399 0.00847081 -0.00566318)
(0.101479 0.0107667 -0.00727557)
(0.100179 0.0139087 -0.00929825)
(0.0978984 0.0182386 -0.011833)
(0.0951453 0.0244806 -0.0150427)
(0.0886545 0.033578 -0.0190433)
(0.0816122 0.0479869 -0.0239696)
(0.0594408 0.0699329 -0.0293508)
(0.0345895 0.0849898 -0.0263731)
(0.0900977 0.0126358 -0.000473059)
(0.0819747 0.00628264 -0.000965145)
(0.0753541 0.00316046 -0.00133296)
(0.0721914 0.00142885 -0.00173136)
(0.0699949 0.000801248 -0.00227629)
(0.0681067 0.000570933 -0.00300257)
(0.066174 0.000519641 -0.00395132)
(0.0639219 0.000550173 -0.00517123)
(0.0611396 0.000630861 -0.0067265)
(0.0576998 0.000742255 -0.00868659)
(0.0530953 0.000894291 -0.0111446)
(0.0476703 0.00102428 -0.0141011)
(0.0396615 0.0012394 -0.0177036)
(0.0311627 0.00122857 -0.0213316)
(0.0176808 0.00144857 -0.0250228)
(0.00469332 0.000353883 -0.0202161)
(0.103548 0.0112583 -0.000704485)
(0.103543 0.00762072 -0.00139304)
(0.102281 0.00485181 -0.00189998)
(0.100311 0.00300562 -0.00243534)
(0.0983121 0.00221199 -0.00315771)
(0.0961051 0.0019354 -0.00412348)
(0.093623 0.00196734 -0.00538987)
(0.090624 0.00219941 -0.00702437)
(0.0868668 0.00259196 -0.00911502)
(0.0821697 0.00312333 -0.0117599)
(0.0758897 0.0038016 -0.0150855)
(0.0683367 0.00455475 -0.0191151)
(0.0573187 0.00546719 -0.024023)
(0.0452504 0.0061442 -0.0290725)
(0.0262465 0.00687455 -0.0341186)
(0.00791758 0.00478452 -0.0276566)
(0.102735 0.00702808 -0.00071354)
(0.103672 0.00704855 -0.00141055)
(0.103841 0.00555983 -0.00192023)
(0.102662 0.00423233 -0.00245656)
(0.101224 0.0035761 -0.00317986)
(0.0993395 0.00340368 -0.00414665)
(0.0970716 0.00360977 -0.00541386)
(0.0942203 0.00412237 -0.00704886)
(0.0905673 0.00491655 -0.00913981)
(0.085939 0.00598266 -0.0117858)
(0.0796556 0.00733631 -0.0151142)
(0.072029 0.00890713 -0.019154)
(0.0606971 0.0107527 -0.0240771)
(0.0481502 0.0123947 -0.0291616)
(0.0280527 0.0138724 -0.0342365)
(0.00839092 0.0105914 -0.0277139)
(0.101371 0.0051992 -0.000683224)
(0.102144 0.00623675 -0.00135994)
(0.102787 0.00550272 -0.00185451)
(0.10217 0.00470789 -0.00237412)
(0.101229 0.00434123 -0.00307377)
(0.0997234 0.0043952 -0.00400695)
(0.0977731 0.00483973 -0.00522744)
(0.0952108 0.00565299 -0.00679899)
(0.0918416 0.00684495 -0.00880529)
(0.0875076 0.00844024 -0.0113413)
(0.0814985 0.0104922 -0.0145284)
(0.0741351 0.0129707 -0.0184)
(0.0628694 0.0159748 -0.023116)
(0.050265 0.0189593 -0.0280069)
(0.0294868 0.0218376 -0.0328837)
(0.00875898 0.0174195 -0.0266152)
(0.100818 0.00398106 -0.000637879)
(0.101386 0.00540729 -0.00128339)
(0.102125 0.0052608 -0.00175649)
(0.101819 0.00493954 -0.00225226)
(0.101239 0.0048932 -0.00291764)
(0.100087 0.00521215 -0.0038018)
(0.0984916 0.00592623 -0.00495383)
(0.0963002 0.00706181 -0.00643178)
(0.0933368 0.00866836 -0.00831207)
(0.0894651 0.0108122 -0.0106823)
(0.0839563 0.0135909 -0.0136526)
(0.0771541 0.0170266 -0.0172608)
(0.0662869 0.0212655 -0.0216428)
(0.053978 0.025695 -0.0262137)
(0.0323549 0.0301429 -0.030747)
(0.0100427 0.0243139 -0.0248877)
(0.100578 0.00321914 -0.000584276)
(0.101034 0.00468446 -0.00119224)
(0.101822 0.00487399 -0.00163997)
(0.101752 0.00489047 -0.00210741)
(0.101475 0.00512414 -0.00273171)
(0.100661 0.00569423 -0.0035569)
(0.0994392 0.00666465 -0.00462611)
(0.0976707 0.0081019 -0.00599013)
(0.0951978 0.0101027 -0.00771584)
(0.091905 0.0128029 -0.00988123)
(0.0870448 0.0163993 -0.0125811)
(0.0809718 0.0210968 -0.0158589)
(0.070644 0.0272798 -0.0198171)
(0.058771 0.0346511 -0.0239859)
(0.0361654 0.0433051 -0.0280754)
(0.0118833 0.0378864 -0.0227648)
(0.100496 0.00258577 -0.000523792)
(0.100935 0.00397703 -0.00108936)
(0.101806 0.0043922 -0.0015085)
(0.10194 0.0046667 -0.00194388)
(0.101937 0.0051373 -0.00252142)
(0.101456 0.00592469 -0.00327914)
(0.100633 0.00711155 -0.00425292)
(0.0993578 0.00879127 -0.00548413)
(0.0975169 0.0110937 -0.00702653)
(0.0950622 0.0142066 -0.00894265)
(0.0913283 0.0183855 -0.0113016)
(0.0868119 0.023982 -0.0141403)
(0.078385 0.0314858 -0.0174993)
(0.0690141 0.0409574 -0.0210375)
(0.0467913 0.052614 -0.0243491)
(0.02094 0.046663 -0.019691)
(0.100483 0.00198879 -0.000459374)
(0.100982 0.00323382 -0.00097972)
(0.101985 0.00379002 -0.00136844)
(0.102319 0.00425608 -0.00176964)
(0.102576 0.00491423 -0.00229726)
(0.102414 0.00587117 -0.00298288)
(0.101987 0.00721782 -0.00385461)
(0.101211 0.00906798 -0.00494385)
(0.100012 0.011586 -0.00629067)
(0.0983876 0.0150351 -0.00794195)
(0.095739 0.0197927 -0.00994194)
(0.0926173 0.0266042 -0.0123238)
(0.0858445 0.0365089 -0.0150696)
(0.0787233 0.0518354 -0.0179838)
(0.0572197 0.0751122 -0.0205498)
(0.033666 0.0896418 -0.0168425)
(0.090072 0.0126386 -0.000429788)
(0.0818605 0.00629008 -0.000847396)
(0.0751139 0.0031682 -0.00114518)
(0.0718262 0.00143784 -0.00146296)
(0.0694857 0.000812636 -0.0018979)
(0.0674327 0.000585828 -0.0024784)
(0.0653022 0.00053939 -0.00323563)
(0.0628091 0.000576426 -0.00420446)
(0.0597356 0.000665625 -0.00542912)
(0.0559429 0.000788197 -0.00695259)
(0.0509512 0.00095388 -0.0088331)
(0.0450819 0.00110243 -0.0110428)
(0.0367927 0.00133662 -0.0136735)
(0.0280763 0.00136122 -0.0162223)
(0.0153692 0.00159349 -0.0186905)
(0.00368252 0.000543812 -0.0150559)
(0.103513 0.011272 -0.000627623)
(0.103395 0.00764589 -0.00121026)
(0.101968 0.00488236 -0.00162241)
(0.0998289 0.00304279 -0.00205092)
(0.0976347 0.00225936 -0.00262887)
(0.0952034 0.00199738 -0.00340228)
(0.0924516 0.00204949 -0.00441484)
(0.0891234 0.00230869 -0.00571524)
(0.0849669 0.00273698 -0.00736448)
(0.0797861 0.00331449 -0.00942407)
(0.0729691 0.00405078 -0.0119723)
(0.0648077 0.00487435 -0.0149882)
(0.0533794 0.00586897 -0.0185714)
(0.04102 0.00663577 -0.0221135)
(0.0230208 0.00743634 -0.0254698)
(0.0064354 0.00528494 -0.0205319)
(0.102701 0.00705481 -0.000635704)
(0.103524 0.00709462 -0.00122568)
(0.103529 0.00561748 -0.00164015)
(0.102179 0.00430305 -0.00206937)
(0.100547 0.00366613 -0.00264803)
(0.0984394 0.00352137 -0.00342225)
(0.0959029 0.0037658 -0.00443555)
(0.0927239 0.00433019 -0.00573654)
(0.0886728 0.00519293 -0.00738632)
(0.0835616 0.0063475 -0.00944714)
(0.0767394 0.00781362 -0.0119981)
(0.0685015 0.00951796 -0.015022)
(0.056749 0.0115248 -0.0186169)
(0.0439029 0.0133202 -0.0221839)
(0.0248015 0.0149436 -0.0255594)
(0.00689893 0.0114585 -0.0205792)
(0.101338 0.0052356 -0.000610852)
(0.102 0.00629922 -0.00118421)
(0.102484 0.0055818 -0.00158628)
(0.101704 0.00480547 -0.00200185)
(0.100576 0.00446584 -0.0025613)
(0.0988567 0.0045585 -0.00330832)
(0.09665 0.00505688 -0.00428401)
(0.0937754 0.00594333 -0.00553424)
(0.0900271 0.00723306 -0.00711687)
(0.0852328 0.00895571 -0.00909133)
(0.078708 0.011172 -0.0115328)
(0.0707585 0.0138476 -0.0144283)
(0.0590814 0.0170961 -0.0178687)
(0.0461823 0.020311 -0.0212944)
(0.026352 0.0234239 -0.0245326)
(0.00732214 0.0186916 -0.0197555)
(0.100786 0.00402675 -0.000573567)
(0.101248 0.00548536 -0.00112131)
(0.101836 0.00536002 -0.00150584)
(0.101376 0.00506232 -0.001902)
(0.10062 0.00505032 -0.00243364)
(0.0992681 0.00541853 -0.00314104)
(0.0974341 0.00620143 -0.00406168)
(0.0949534 0.0074311 -0.00523719)
(0.0916394 0.0091643 -0.00672013)
(0.0873428 0.0114746 -0.00856498)
(0.0813561 0.0144709 -0.0108394)
(0.0740122 0.0181707 -0.0135354)
(0.0627549 0.0227439 -0.0167288)
(0.0501687 0.0274918 -0.0199238)
(0.0294146 0.0322817 -0.022926)
(0.00868747 0.0260361 -0.0184683)
(0.100548 0.00327166 -0.000529518)
(0.100903 0.00477413 -0.00104645)
(0.10155 0.00498822 -0.00141023)
(0.101335 0.00503213 -0.00178333)
(0.100896 0.00530581 -0.00228166)
(0.0998996 0.00593346 -0.00294144)
(0.0984611 0.00698478 -0.00379558)
(0.0964317 0.00853356 -0.00488026)
(0.0936442 0.0106863 -0.0062411)
(0.0899722 0.0135896 -0.00792586)
(0.0846835 0.0174577 -0.00999182)
(0.0781291 0.022495 -0.0124365)
(0.0674429 0.0291257 -0.0153139)
(0.0553246 0.0369476 -0.0182136)
(0.0334917 0.0461278 -0.0209025)
(0.0106394 0.0402291 -0.0168612)
(0.100468 0.00264324 -0.000479828)
(0.100814 0.004075 -0.000961958)
(0.101552 0.00451712 -0.00130239)
(0.101554 0.0048218 -0.00164943)
(0.101404 0.00533646 -0.00210989)
(0.10076 0.00618734 -0.0027153)
(0.0997467 0.00746376 -0.00349306)
(0.0982454 0.00926757 -0.0044724)
(0.0961354 0.0117403 -0.00568958)
(0.0933626 0.0150831 -0.00718195)
(0.0892731 0.0195732 -0.00898974)
(0.0843728 0.0255667 -0.0111095)
(0.0756608 0.0336054 -0.0135555)
(0.0661364 0.0436368 -0.0160153)
(0.0445711 0.0559865 -0.0181848)
(0.0199259 0.0495123 -0.0146362)
(0.100457 0.00204865 -0.000426925)
(0.10087 0.00333578 -0.000871945)
(0.101752 0.0039201 -0.00118752)
(0.101967 0.00441766 -0.00150679)
(0.102093 0.0051218 -0.00192683)
(0.101788 0.00614513 -0.00247415)
(0.101199 0.0075857 -0.00317022)
(0.100234 0.00956668 -0.00403686)
(0.0988148 0.0122656 -0.00510036)
(0.0969368 0.0159623 -0.00638724)
(0.0940097 0.0210617 -0.0079203)
(0.0906075 0.0283241 -0.00969621)
(0.0836315 0.0388632 -0.0116887)
(0.0764718 0.054912 -0.0136947)
(0.0555386 0.0792227 -0.0153418)
(0.0330454 0.0934512 -0.01248)
(0.0900527 0.0126407 -0.000340227)
(0.0817738 0.00629591 -0.000657596)
(0.0749307 0.00317423 -0.000876736)
(0.0715468 0.00144491 -0.001108)
(0.0690956 0.000821579 -0.00142426)
(0.0669173 0.000597525 -0.00184626)
(0.064639 0.000554904 -0.00239532)
(0.0619712 0.00059712 -0.00309368)
(0.0586957 0.000693245 -0.00396785)
(0.054673 0.000825346 -0.00503893)
(0.0494576 0.00100354 -0.00633368)
(0.0433679 0.00117077 -0.00780726)
(0.0350271 0.00142794 -0.00949457)
(0.0263506 0.00149228 -0.0110223)
(0.0142161 0.00175566 -0.0123677)
(0.00334416 0.000734563 -0.00975107)
(0.103487 0.0112828 -0.000491235)
(0.103281 0.00766569 -0.000933144)
(0.101729 0.00490631 -0.0012374)
(0.0994589 0.00307195 -0.00155)
(0.0971148 0.00229645 -0.00197104)
(0.0945125 0.00204582 -0.00253419)
(0.0915584 0.00211358 -0.0032696)
(0.0879902 0.00239376 -0.00420876)
(0.0835542 0.00284964 -0.00538878)
(0.0780535 0.00346285 -0.00684141)
(0.0709169 0.00424426 -0.00860331)
(0.0624413 0.00512359 -0.0106273)
(0.0509075 0.00618469 -0.0129443)
(0.0385894 0.00702663 -0.0150978)
(0.0213519 0.00789244 -0.0169577)
(0.00587987 0.00569281 -0.013393)
(0.102675 0.00707585 -0.000497545)
(0.103411 0.00713085 -0.000945133)
(0.103289 0.00566274 -0.00125117)
(0.10181 0.00435851 -0.00156426)
(0.100028 0.00373661 -0.00198581)
(0.0977497 0.00361328 -0.00254957)
(0.0950119 0.00388731 -0.00328558)
(0.0915939 0.00449145 -0.00422525)
(0.0872644 0.00540646 -0.00540575)
(0.0818345 0.00662801 -0.00685921)
(0.0746929 0.00817846 -0.0086227)
(0.066141 0.0099823 -0.0106511)
(0.0542797 0.0121078 -0.0129737)
(0.0414748 0.0140164 -0.0151391)
(0.0231307 0.0157458 -0.0170038)
(0.00634937 0.0121098 -0.013408)
(0.101313 0.0052642 -0.000479126)
(0.10189 0.00634832 -0.000914367)
(0.102252 0.0056439 -0.00121122)
(0.101347 0.00488199 -0.00151421)
(0.100075 0.00456334 -0.00192162)
(0.0981927 0.00468594 -0.00246543)
(0.095794 0.00522577 -0.00317397)
(0.092692 0.00616816 -0.00407677)
(0.0886792 0.00753191 -0.00520885)
(0.0835825 0.00934985 -0.00660054)
(0.0767544 0.0116872 -0.00828663)
(0.068508 0.0145054 -0.0102252)
(0.0567275 0.0179262 -0.0124415)
(0.0438712 0.0212997 -0.0145108)
(0.0247629 0.0245677 -0.0162849)
(0.00681112 0.0196043 -0.0128343)
(0.100762 0.00406268 -0.000451386)
(0.101144 0.00554672 -0.000867616)
(0.101615 0.00543792 -0.00115149)
(0.101036 0.00515856 -0.00144017)
(0.100145 0.00517321 -0.00182714)
(0.0986409 0.00557946 -0.00234193)
(0.0966283 0.00641521 -0.00301034)
(0.0939371 0.00771652 -0.00385902)
(0.090379 0.0095451 -0.00491954)
(0.0858049 0.0119789 -0.00621921)
(0.0795399 0.0151335 -0.00778853)
(0.0719268 0.0190207 -0.00958994)
(0.0605759 0.0238238 -0.0116406)
(0.0480377 0.0287822 -0.0135592)
(0.0279498 0.0337871 -0.0151859)
(0.00822663 0.0272366 -0.0119627)
(0.100526 0.00331294 -0.000418649)
(0.100804 0.00484458 -0.000811984)
(0.101342 0.00507788 -0.00108049)
(0.101017 0.00514312 -0.00135218)
(0.100452 0.00544782 -0.00171468)
(0.0993165 0.00611985 -0.00219461)
(0.0977159 0.00723311 -0.00281461)
(0.095497 0.00886646 -0.00359764)
(0.0924911 0.0111328 -0.00457074)
(0.0885729 0.0141852 -0.00575712)
(0.0830382 0.0182477 -0.00718122)
(0.0762512 0.0235201 -0.00881086)
(0.0654854 0.0304483 -0.0106507)
(0.0534266 0.0385529 -0.0123777)
(0.0321927 0.0480449 -0.0138103)
(0.0102447 0.0417932 -0.0108802)
(0.100447 0.0026884 -0.000381715)
(0.100721 0.00415196 -0.000749202)
(0.101359 0.00461514 -0.00100044)
(0.101259 0.00494329 -0.00125294)
(0.100996 0.00549207 -0.00158766)
(0.100227 0.00639185 -0.00202788)
(0.0990713 0.0077367 -0.00259245)
(0.0974055 0.00963432 -0.00329971)
(0.095109 0.0122338 -0.00417072)
(0.0921306 0.0157441 -0.00522262)
(0.08784 0.0204548 -0.00647013)
(0.082763 0.0267185 -0.00788368)
(0.0740043 0.0351051 -0.00944604)
(0.0645776 0.0454771 -0.0109023)
(0.0435331 0.0582237 -0.0120309)
(0.0196588 0.0513655 -0.00944823)
(0.100437 0.00209568 -0.000342406)
(0.100785 0.00341587 -0.00068233)
(0.101574 0.00402216 -0.000915189)
(0.101697 0.00454419 -0.00114724)
(0.101723 0.00528393 -0.00145231)
(0.101309 0.00635833 -0.00185011)
(0.100598 0.00787053 -0.00235541)
(0.0994953 0.00995008 -0.0029816)
(0.0979237 0.012783 -0.00374336)
(0.0958833 0.0166586 -0.00465143)
(0.0928024 0.0219965 -0.00571051)
(0.0892828 0.0295588 -0.00689443)
(0.0822965 0.0404972 -0.00816371)
(0.0752842 0.0569657 -0.00933939)
(0.0548118 0.0818429 -0.0101643)
(0.0329998 0.0958458 -0.00805532)
(0.0900399 0.0126421 -0.000217214)
(0.0817154 0.00629994 -0.000416046)
(0.0748071 0.00317834 -0.00054944)
(0.0713577 0.00144977 -0.000690083)
(0.0688316 0.000827701 -0.000881814)
(0.0665691 0.000605523 -0.00113757)
(0.0641925 0.000565476 -0.00146966)
(0.0614103 0.000611149 -0.00189033)
(0.0580054 0.000711802 -0.00241377)
(0.0538389 0.000849941 -0.00304957)
(0.0484887 0.00103559 -0.00381038)
(0.0422713 0.00121322 -0.00466361)
(0.0339124 0.00148148 -0.00562702)
(0.0252815 0.00156417 -0.00648056)
(0.0135135 0.00183724 -0.00720815)
(0.00314108 0.000824545 -0.0056752)
(0.10347 0.0112902 -0.000312289)
(0.103205 0.00767934 -0.000587795)
(0.101567 0.00492277 -0.000774045)
(0.099208 0.003092 -0.000964124)
(0.0967624 0.00232191 -0.00121978)
(0.0940448 0.00207903 -0.00156148)
(0.0909561 0.00215739 -0.00200686)
(0.0872304 0.00245173 -0.00257341)
(0.0826146 0.00292607 -0.00328116)
(0.0769132 0.00356288 -0.0041451)
(0.0695834 0.00437353 -0.00518249)
(0.0609259 0.005288 -0.00635712)
(0.0493485 0.00638914 -0.00768228)
(0.0370881 0.00727367 -0.0088871)
(0.0203432 0.00817253 -0.00989249)
(0.00555584 0.00593312 -0.00779393)
(0.102658 0.00709034 -0.000315884)
(0.103335 0.00715579 -0.000595225)
(0.103128 0.00569387 -0.000782883)
(0.101559 0.00439665 -0.000973188)
(0.099676 0.00378499 -0.00122921)
(0.0972828 0.00367627 -0.00157128)
(0.0944109 0.00397038 -0.00201706)
(0.0908361 0.00460135 -0.00258398)
(0.0863276 0.00555143 -0.00329213)
(0.0806976 0.00681754 -0.00415669)
(0.0733626 0.00842341 -0.00519524)
(0.0646286 0.0102918 -0.00637259)
(0.0527213 0.0124925 -0.00770142)
(0.0399735 0.0144711 -0.00891319)
(0.0221196 0.0162631 -0.00992167)
(0.00602805 0.0125249 -0.00780556)
(0.101297 0.00528391 -0.000304785)
(0.101816 0.00638214 -0.000576327)
(0.102096 0.00568663 -0.000758324)
(0.101105 0.00493459 -0.000942359)
(0.0997358 0.00463026 -0.00118975)
(0.0977433 0.00477323 -0.00151963)
(0.0952167 0.00534115 -0.00194872)
(0.0919655 0.00632126 -0.00249332)
(0.0877827 0.00773457 -0.00317232)
(0.0824964 0.00961583 -0.00399989)
(0.0754849 0.0120327 -0.00499251)
(0.0670666 0.0149435 -0.00611689)
(0.0552423 0.0184745 -0.00738394)
(0.0424425 0.0219478 -0.00854024)
(0.0238012 0.0253102 -0.00949795)
(0.00651236 0.0201945 -0.0074691)
(0.100747 0.00408744 -0.000287628)
(0.101073 0.00558898 -0.000547504)
(0.101466 0.00549151 -0.000721595)
(0.100806 0.0052247 -0.000896894)
(0.0998231 0.00525752 -0.00113183)
(0.0982164 0.00568963 -0.00144405)
(0.0960848 0.00656115 -0.00184881)
(0.0932556 0.0079107 -0.00236075)
(0.0895409 0.00980303 -0.00299683)
(0.0847928 0.0123188 -0.00376963)
(0.07836 0.0155773 -0.00469346)
(0.0705914 0.0195863 -0.00573787)
(0.0592014 0.0245367 -0.00690994)
(0.0467207 0.0296291 -0.00798087)
(0.0270637 0.0347672 -0.00885803)
(0.00795802 0.0280188 -0.00696447)
(0.100511 0.00334138 -0.000267509)
(0.100738 0.0048931 -0.000513281)
(0.101201 0.00513956 -0.000677911)
(0.100801 0.00521938 -0.000842806)
(0.100152 0.00554521 -0.0010628)
(0.0989219 0.00624738 -0.00135381)
(0.0972133 0.00740249 -0.00172923)
(0.0948701 0.00909262 -0.00220154)
(0.0917243 0.0114347 -0.00278517)
(0.0876523 0.0145855 -0.00349042)
(0.08197 0.0187748 -0.00432839)