/*--------------------------------*- C++ -*----------------------------------*\
| =========                 |                                                 |
| \\      /  F ield         | OpenFOAM: The Open Source CFD Toolbox           |
|  \\    /   O peration     | Version:  v1912                                 |
|   \\  /    A nd           | Website:  www.openfoam.com                      |
|    \\/     M anipulation  |                                                 |
\*---------------------------------------------------------------------------*/
FoamFile
{
    version     2.0;
    format      ascii;
    class       surfaceScalarField;
    location    "0.67/fluid";
    object      meshPhi;
}
// * * * * * * * * * * * * * * * * * * * * * * * * * * * * * * * * * * * * * //

dimensions      [0 3 -1 0 0 0 0];
oriented        oriented;


internalField   nonuniform List<scalar> 
41600
(
1.66909e-13
-4.20419e-13
1.57827e-13
-1.63043e-13
3.18698e-13
-1.22468e-12
4.65164e-13
-4.80784e-13
4.61441e-13
-1.97094e-12
7.66485e-13
-7.92971e-13
6.00691e-13
-2.68544e-12
1.08175e-12
-1.12061e-12
7.41835e-13
-3.38583e-12
1.42895e-12
-1.48276e-12
8.90603e-13
-4.07996e-12
1.82486e-12
-1.89749e-12
1.0538e-12
-4.76358e-12
2.28558e-12
-2.38256e-12
1.24048e-12
-5.41599e-12
2.82658e-12
-2.95577e-12
1.46424e-12
-5.99201e-12
3.46244e-12
-3.63522e-12
1.74788e-12
-6.40747e-12
4.20612e-12
-4.43971e-12
2.13365e-12
-6.51277e-12
5.06826e-12
-5.39069e-12
2.70582e-12
-6.04194e-12
6.05903e-12
-6.52042e-12
3.63309e-12
-4.51285e-12
7.19612e-12
-7.89642e-12
5.21205e-12
-1.07121e-12
8.51589e-12
-9.67508e-12
7.56078e-12
5.16338e-12
9.99652e-12
-1.20233e-11
1.555e-11
1.25431e-11
-1.83015e-11
4.96712e-13
-8.28407e-13
4.69385e-13
-4.84911e-13
9.48302e-13
-2.41369e-12
1.38333e-12
-1.4298e-12
1.37267e-12
-3.88622e-12
2.27906e-12
-2.35782e-12
1.78611e-12
-5.29869e-12
3.21573e-12
-3.33117e-12
2.20446e-12
-6.68749e-12
4.24653e-12
-4.40626e-12
2.64439e-12
-8.07097e-12
5.4212e-12
-5.6366e-12
3.12533e-12
-9.44553e-12
6.78734e-12
-7.07465e-12
3.67243e-12
-1.07785e-11
8.39064e-12
-8.77281e-12
4.32171e-12
-1.19957e-11
1.02737e-11
-1.07837e-11
5.13027e-12
-1.29603e-11
1.24728e-11
-1.31596e-11
6.19713e-12
-1.34415e-11
1.50127e-11
-1.59538e-11
7.70575e-12
-1.30711e-11
1.79029e-11
-1.92306e-11
9.9887e-12
-1.13119e-11
2.11368e-11
-2.3096e-11
1.35435e-11
-7.54528e-12
2.46795e-11
-2.77519e-11
1.83175e-11
-1.81837e-12
2.8293e-11
-3.32295e-11
4.97034e-12
3.1085e-11
-4.02648e-11
8.14768e-13
-1.21175e-12
7.68995e-13
-7.94438e-13
1.55509e-12
-3.53185e-12
2.26599e-12
-2.34211e-12
2.24982e-12
-5.6906e-12
3.73217e-12
-3.86104e-12
2.92511e-12
-7.76762e-12
5.26369e-12
-5.45236e-12
3.60628e-12
-9.82003e-12
6.94699e-12
-7.20766e-12
4.31967e-12
-1.1881e-11
8.86292e-12
-9.2139e-12
5.0951e-12
-1.39556e-11
1.1089e-11
-1.15562e-11
5.96923e-12
-1.60134e-11
1.36995e-11
-1.43195e-11
6.99065e-12
-1.79753e-11
1.67635e-11
-1.75877e-11
8.22838e-12
-1.96933e-11
2.03376e-11
-2.14408e-11
9.78732e-12
-2.09243e-11
2.44533e-11
-2.59487e-11
1.1835e-11
-2.13074e-11
2.90972e-11
-3.11655e-11
1.46238e-11
-2.03867e-11
3.41789e-11
-3.71241e-11
1.84237e-11
-1.77906e-11
3.94697e-11
-4.38118e-11
2.28354e-11
-1.38619e-11
4.44173e-11
-5.07924e-11
-9.52756e-12
4.83049e-11
-5.93234e-11
1.11392e-12
-1.55796e-12
1.04944e-12
-1.08414e-12
2.12515e-12
-4.54296e-12
3.0917e-12
-3.19543e-12
3.07219e-12
-7.32635e-12
5.08983e-12
-5.26524e-12
3.9898e-12
-1.00149e-11
7.17361e-12
-7.43003e-12
4.91146e-12
-1.26881e-11
9.45959e-12
-9.81327e-12
5.87154e-12
-1.53984e-11
1.20569e-11
-1.25321e-11
6.90784e-12
-1.81683e-11
1.50703e-11
-1.57015e-11
8.06447e-12
-2.09838e-11
1.8601e-11
-1.94359e-11
9.39489e-12
-2.37851e-11
2.27436e-11
-2.38487e-11
1.09648e-11
-2.6449e-11
2.75765e-11
-2.90457e-11
1.28553e-11
-2.87678e-11
3.31426e-11
-3.51126e-11
1.51635e-11
-3.04291e-11
3.94149e-11
-4.20916e-11
1.79853e-11
-3.10238e-11
4.62371e-11
-4.99418e-11
2.13358e-11
-3.01509e-11
5.32214e-11
-5.8461e-11
2.47341e-11
-2.78535e-11
5.95403e-11
-6.68729e-11
-2.44998e-11
6.41142e-11
-7.60284e-11
1.38781e-12
-1.85477e-12
1.30437e-12
-1.34741e-12
2.64615e-12
-5.41113e-12
3.8415e-12
-3.97009e-12
3.82148e-12
-8.73548e-12
6.32016e-12
-6.53735e-12
4.95563e-12
-1.19607e-11
8.89924e-12
-9.21619e-12
6.08867e-12
-1.51897e-11
1.17211e-11
-1.21574e-11
7.26134e-12
-1.84971e-11
1.49192e-11
-1.5504e-11
8.51754e-12
-2.19288e-11
1.86217e-11
-1.93963e-11
9.90673e-12
-2.54994e-11
2.29539e-11
-2.39748e-11
1.14853e-11
-2.9186e-11
2.80349e-11
-2.938e-11
1.33149e-11
-3.29181e-11
3.39684e-11
-3.57457e-11
1.54565e-11
-3.65609e-11
4.08209e-11
-4.31829e-11
1.79533e-11
-3.98882e-11
4.85812e-11
-5.17493e-11
2.07859e-11
-4.25412e-11
5.70816e-11
-6.13852e-11
2.37845e-11
-4.39787e-11
6.58431e-11
-7.17824e-11
2.63923e-11
-4.36414e-11
7.3762e-11
-8.18538e-11
-4.08303e-11
7.93358e-11
-9.20089e-11
1.63129e-12
-2.09045e-12
1.52865e-12
-1.57894e-12
3.10809e-12
-6.10199e-12
4.50017e-12
-4.65031e-12
4.48294e-12
-9.86175e-12
7.3976e-12
-7.65085e-12
5.80293e-12
-1.35264e-11
1.04035e-11
-1.07723e-11
7.11297e-12
-1.72209e-11
1.36808e-11
-1.41873e-11
8.45842e-12
-2.10426e-11
1.73817e-11
-1.80588e-11
9.88777e-12
-2.50636e-11
2.16531e-11
-2.25469e-11
1.14552e-11
-2.93317e-11
2.6639e-11
-2.78126e-11
1.32221e-11
-3.38704e-11
3.24801e-11
-3.40193e-11
1.52553e-11
-3.8678e-11
3.9306e-11
-4.13286e-11
1.76224e-11
-4.37211e-11
4.72183e-11
-4.98886e-11
2.03756e-11
-4.89206e-11
5.62557e-11
-5.98088e-11
2.35066e-11
-5.41012e-11
6.63167e-11
-7.10987e-11
2.68463e-11
-5.88521e-11
7.69725e-11
-8.35084e-11
2.97524e-11
-6.22812e-11
8.69769e-11
-9.57976e-11
-6.1982e-11
9.44703e-11
-1.08171e-10
1.84056e-12
-2.25442e-12
1.71867e-12
-1.77499e-12
3.50375e-12
-6.58442e-12
5.05696e-12
-5.22498e-12
5.04606e-12
-1.06538e-11
8.30422e-12
-8.58721e-12
6.51783e-12
-1.46388e-11
1.16604e-11
-1.20717e-11
7.96681e-12
-1.86832e-11
1.5303e-11
-1.58662e-11
9.44098e-12
-2.29043e-11
1.93968e-11
-2.01472e-11
1.09915e-11
-2.73979e-11
2.41001e-11
-2.50869e-11
1.26762e-11
-3.22427e-11
2.95687e-11
-3.08586e-11
1.45622e-11
-3.75052e-11
3.59567e-11
-3.76402e-11
1.67289e-11
-4.32472e-11
4.34127e-11
-4.56132e-11
1.92716e-11
-4.95352e-11
5.20712e-11
-5.49601e-11
2.23049e-11
-5.64555e-11
6.2033e-11
-6.58567e-11
2.59543e-11
-6.41236e-11
7.33147e-11
-7.84411e-11
3.02885e-11
-7.26306e-11
8.56817e-11
-9.26889e-11
3.47646e-11
-8.15073e-11
9.79966e-11
-1.07492e-10
-9.03417e-11
1.08281e-10
-1.23618e-10
2.01339e-12
1.87243e-12
-1.93351e-12
-2.33789e-12
3.82909e-12
5.50618e-12
-5.68825e-12
-6.83257e-12
5.50526e-12
9.03094e-12
-9.33707e-12
-1.10691e-11
7.09332e-12
1.26574e-11
-1.31012e-11
-1.52369e-11
8.64161e-12
1.65709e-11
-1.71768e-11
-1.9493e-11
1.01983e-11
2.09419e-11
-2.1746e-11
-2.39697e-11
1.18146e-11
2.59323e-11
-2.69848e-11
-2.87798e-11
1.35483e-11
3.16996e-11
-3.30683e-11
-3.40237e-11
1.54685e-11
3.83987e-11
-4.01746e-11
-3.97957e-11
1.76613e-11
4.61807e-11
-4.84872e-11
-4.61933e-11
2.02406e-11
5.51886e-11
-5.81964e-11
-5.33318e-11
2.33651e-11
6.55502e-11
-6.95048e-11
-6.13663e-11
2.72571e-11
7.73512e-11
-8.26233e-11
-7.05177e-11
3.21662e-11
9.05178e-11
-9.77057e-11
-8.10606e-11
3.76057e-11
1.04049e-10
-1.13808e-10
-9.25657e-11
1.17089e-10
-1.33768e-10
-1.07885e-10
1.67969e-13
-4.29501e-13
1.46866e-13
3.20484e-13
-1.25125e-12
4.3268e-13
4.63434e-13
-2.01415e-12
7.12359e-13
6.02109e-13
-2.74544e-12
1.00408e-12
7.41479e-13
-3.46377e-12
1.32401e-12
8.86565e-13
-4.17807e-12
1.68695e-12
1.04296e-12
-4.88559e-12
2.1065e-12
1.2177e-12
-5.56816e-12
2.59477e-12
1.42087e-12
-6.18561e-12
3.16131e-12
1.66907e-12
-6.66442e-12
3.81064e-12
1.99326e-12
-6.87851e-12
4.53778e-12
2.45529e-12
-6.6159e-12
5.32033e-12
3.17619e-12
-5.52125e-12
6.10341e-12
4.34843e-12
-3.03604e-12
6.76739e-12
5.99216e-12
1.28209e-12
7.08515e-12
7.05549e-12
6.70129e-12
4.99925e-13
-8.46225e-13
4.36785e-13
9.53745e-13
-2.46581e-12
1.28672e-12
1.37885e-12
-3.971e-12
2.11813e-12
1.79081e-12
-5.41645e-12
2.98488e-12
2.20423e-12
-6.84045e-12
3.93485e-12
2.63377e-12
-8.26331e-12
5.01185e-12
3.09542e-12
-9.68402e-12
6.2562e-12
3.60853e-12
-1.10742e-11
7.70385e-12
4.19925e-12
-1.23679e-11
9.383e-12
4.90747e-12
-1.34455e-11
1.13066e-11
5.80185e-12
-1.41126e-11
1.34582e-11
7.00908e-12
-1.40794e-11
1.57661e-11
8.75342e-12
-1.29702e-11
1.8057e-11
1.13322e-11
-1.0467e-11
1.99699e-11
1.45996e-11
-6.86931e-12
2.09054e-11
-4.10668e-12
1.93996e-11
8.20245e-13
-1.23769e-12
7.15599e-13
1.56449e-12
-3.60773e-12
2.10778e-12
2.26083e-12
-5.81406e-12
3.46873e-12
2.93436e-12
-7.93915e-12
4.88608e-12
3.60853e-12
-1.00427e-11
6.43767e-12
4.30663e-12
-1.21604e-11
8.19478e-12
5.0533e-12
-1.43006e-11
1.02232e-11
5.87652e-12
-1.64376e-11
1.2582e-11
6.81017e-12
-1.85013e-11
1.5318e-11
7.89821e-12
-2.0362e-11
1.84537e-11
9.20266e-12
-2.18141e-11
2.19636e-11
1.08165e-11
-2.25746e-11
2.57323e-11
1.28677e-11
-2.23392e-11
2.94816e-11
1.54458e-11
-2.09941e-11
3.26617e-11
1.81958e-11
-1.90581e-11
3.44533e-11
-1.8079e-11
3.35682e-11
1.12185e-12
-1.59116e-12
9.76623e-13
2.13898e-12
-4.64009e-12
2.876e-12
3.08903e-12
-7.48443e-12
4.73089e-12
4.00549e-12
-1.02345e-11
6.65964e-12
4.91961e-12
-1.2973e-11
8.76724e-12
5.86208e-12
-1.57552e-11
1.115e-11
6.86452e-12
-1.86065e-11
1.38974e-11
7.96066e-12
-2.15176e-11
1.70904e-11
9.18648e-12
-2.44356e-11
2.07953e-11
1.05783e-11
-2.72519e-11
2.50485e-11
1.21674e-11
-2.97879e-11
2.98265e-11
1.3968e-11
-3.17906e-11
3.4993e-11
1.5945e-11
-3.29662e-11
4.02084e-11
1.7948e-11
-3.31158e-11
4.48048e-11
1.95878e-11
-3.24465e-11
4.77855e-11
-3.20602e-11
4.76959e-11
1.39841e-12
-1.89414e-12
1.21396e-12
2.66494e-12
-5.52634e-12
3.57382e-12
3.84524e-12
-8.92299e-12
5.87512e-12
4.97982e-12
-1.22212e-11
8.26277e-12
6.10648e-12
-1.55273e-11
1.08652e-11
7.26211e-12
-1.89189e-11
1.38002e-11
8.48422e-12
-2.24447e-11
1.71778e-11
9.81156e-12
-2.61219e-11
2.10989e-11
1.12825e-11
-2.9932e-11
2.56496e-11
1.29285e-11
-3.38121e-11
3.08845e-11
1.47596e-11
-3.76422e-11
3.67955e-11
1.67332e-11
-4.12262e-11
4.32525e-11
1.86941e-11
-4.42658e-11
4.98998e-11
2.03017e-11
-4.63375e-11
5.5996e-11
2.10877e-11
-4.70256e-11
6.03426e-11
-4.66679e-11
6.11932e-11
1.64474e-12
-2.13468e-12
1.42287e-12
3.1323e-12
-6.23146e-12
4.18713e-12
4.51456e-12
-1.00725e-11
6.87768e-12
5.83744e-12
-1.38192e-11
9.66108e-12
7.14378e-12
-1.76002e-11
1.26844e-11
8.4754e-12
-2.15158e-11
1.60824e-11
9.87491e-12
-2.564e-11
1.99811e-11
1.13867e-11
-3.0022e-11
2.44977e-11
1.30556e-11
-3.46861e-11
2.97353e-11
1.49213e-11
-3.96309e-11
3.57683e-11
1.70047e-11
-4.48236e-11
4.26128e-11
1.92775e-11
-5.01849e-11
5.0169e-11
2.15996e-11
-5.55401e-11
5.81099e-11
2.36199e-11
-6.04825e-11
6.56843e-11
2.47476e-11
-6.41676e-11
7.15245e-11
-6.49903e-11
7.35923e-11
1.85693e-12
-2.30202e-12
1.59997e-12
3.5336e-12
-6.72377e-12
4.70592e-12
5.08608e-12
-1.08808e-11
7.72193e-12
6.56383e-12
-1.49542e-11
1.08305e-11
8.01292e-12
-1.90918e-11
1.4192e-11
9.4784e-12
-2.34135e-11
1.79524e-11
1.10066e-11
-2.80167e-11
2.2248e-11
1.26472e-11
-3.29798e-11
2.72058e-11
1.44542e-11
-3.83675e-11
3.29399e-11
1.64849e-11
-4.42363e-11
3.95389e-11
1.8797e-11
-5.06426e-11
4.70414e-11
2.14395e-11
-5.7652e-11
5.53839e-11
2.44255e-11
-6.53382e-11
6.42944e-11
2.76527e-11
-7.37063e-11
7.30682e-11
3.06005e-11
-8.22292e-11
8.02328e-11
-8.98698e-11
8.33812e-11
2.03261e-12
1.74342e-12
-2.3872e-12
3.86452e-12
5.12488e-12
-6.97698e-12
5.55373e-12
8.39936e-12
-1.13044e-11
7.15113e-12
1.17593e-11
-1.55642e-11
8.70389e-12
1.53722e-11
-1.99173e-11
1.0258e-11
1.93893e-11
-2.44984e-11
1.1861e-11
2.39503e-11
-2.94217e-11
1.35649e-11
2.91836e-11
-3.47862e-11
1.5429e-11
3.52043e-11
-4.06824e-11
1.75237e-11
4.21027e-11
-4.71996e-11
1.99358e-11
4.99234e-11
-5.4437e-11
2.27769e-11
5.86208e-11
-6.2519e-11
2.61862e-11
6.79628e-11
-7.16073e-11
3.0278e-11
7.73189e-11
-8.18577e-11
3.45876e-11
8.52197e-11
-9.27473e-11
8.88309e-11
-1.05652e-10
1.68303e-13
-4.37388e-13
1.30715e-13
3.20816e-13
-1.27436e-12
3.84949e-13
4.63116e-13
-2.05181e-12
6.33278e-13
6.00068e-13
-2.79782e-12
8.91511e-13
7.36005e-13
-3.53194e-12
1.17351e-12
8.74917e-13
-4.26431e-12
1.49159e-12
1.0207e-12
-4.99409e-12
1.85651e-12
1.17749e-12
-5.70673e-12
2.27684e-12
1.35032e-12
-6.36935e-12
2.75731e-12
1.54662e-12
-6.92385e-12
3.29547e-12
1.77988e-12
-7.27737e-12
3.87564e-12
2.07684e-12
-7.29055e-12
4.45842e-12
2.48614e-12
-6.7663e-12
4.96329e-12
3.06546e-12
-5.46478e-12
5.24605e-12
3.7456e-12
-3.32264e-12
5.12374e-12
-5.66027e-13
4.61422e-12
5.00999e-13
-8.61683e-13
3.88758e-13
9.54907e-13
-2.51108e-12
1.1448e-12
1.37822e-12
-4.04472e-12
1.88304e-12
1.78531e-12
-5.51889e-12
2.65033e-12
2.18893e-12
-6.97355e-12
3.48773e-12
2.6008e-12
-8.43108e-12
4.43175e-12
3.03209e-12
-9.89371e-12
5.51434e-12
3.49399e-12
-1.1339e-11
6.76106e-12
3.99859e-12
-1.27125e-11
8.18626e-12
4.56091e-12
-1.3919e-11
9.78344e-12
5.20414e-12
-1.48135e-11
1.15076e-11
5.96898e-12
-1.52053e-11
1.32459e-11
6.9184e-12
-1.49038e-11
1.4771e-11
8.09035e-12
-1.38668e-11
1.56934e-11
9.26101e-12
-1.25065e-11
1.55681e-11
-1.21249e-11
1.41091e-11
8.22274e-13
-1.26014e-12
6.36945e-13
1.56698e-12
-3.67347e-12
1.8754e-12
2.26086e-12
-5.92101e-12
3.08392e-12
2.92717e-12
-8.08754e-12
4.33877e-12
3.58657e-12
-1.02349e-11
5.70671e-12
4.25787e-12
-1.24014e-11
7.24725e-12
4.95845e-12
-1.45988e-11
9.01272e-12
5.70423e-12
-1.68076e-11
1.10455e-11
6.50868e-12
-1.897e-11
1.33709e-11
7.38086e-12
-2.09807e-11
1.59818e-11
8.32237e-12
-2.26828e-11
1.88131e-11
9.32092e-12
-2.38862e-11
2.16982e-11
1.03307e-11
-2.44464e-11
2.43096e-11
1.12178e-11
-2.44543e-11
2.61152e-11
1.16953e-11
-2.44398e-11
2.6563e-11
-2.53747e-11
2.56672e-11
1.12517e-12
-1.61982e-12
8.69346e-13
2.14356e-12
-4.72394e-12
2.55914e-12
3.09118e-12
-7.6207e-12
4.20646e-12
3.99925e-12
-1.04232e-11
5.91434e-12
4.89561e-12
-1.32165e-11
7.7729e-12
5.80551e-12
-1.60584e-11
9.86269e-12
6.75182e-12
-1.89772e-11
1.22551e-11
7.75394e-12
-2.19682e-11
1.5009e-11
8.8241e-12
-2.49874e-11
1.81624e-11
9.95917e-12
-2.7944e-11
2.17138e-11
1.1125e-11
-3.06946e-11
2.55914e-11
1.22279e-11
-3.30543e-11
2.96031e-11
1.30699e-11
-3.48474e-11
3.33715e-11
1.33196e-11
-3.6037e-11
3.62959e-11
1.27194e-11
-3.68763e-11
3.77436e-11
-3.80877e-11
3.77022e-11
1.40341e-12
-1.92799e-12
1.08074e-12
2.67252e-12
-5.62535e-12
3.18045e-12
3.85121e-12
-9.08376e-12
5.22452e-12
4.97757e-12
-1.24434e-11
7.33918e-12
6.08571e-12
-1.5813e-11
9.63473e-12
7.20674e-12
-1.92722e-11
1.22098e-11
8.36892e-12
-2.28712e-11
1.51526e-11
9.59603e-12
-2.6629e-11
1.85373e-11
1.0902e-11
-3.05304e-11
2.24152e-11
1.22786e-11
-3.4519e-11
2.67954e-11
1.3671e-11
-3.8489e-11
3.1611e-11
1.4932e-11
-4.22742e-11
3.66657e-11
1.57527e-11
-4.56356e-11
4.15618e-11
1.56291e-11
-4.82568e-11
4.565e-11
1.4236e-11
-4.98258e-11
4.81803e-11
-5.05592e-11
4.90206e-11
1.65179e-12
-2.17257e-12
1.2669e-12
3.14372e-12
-6.34223e-12
3.7268e-12
4.52595e-12
-1.02522e-11
6.11706e-12
5.84206e-12
-1.40672e-11
8.5828e-12
7.13126e-12
-1.7918e-11
1.12505e-11
8.42977e-12
-2.19063e-11
1.42331e-11
9.77132e-12
-2.61061e-11
1.76319e-11
1.11861e-11
-3.05651e-11
2.15336e-11
1.26959e-11
-3.53045e-11
2.60012e-11
1.43034e-11
-4.03169e-11
3.10555e-11
1.59687e-11
-4.55602e-11
3.66402e-11
1.75644e-11
-5.09406e-11
4.25659e-11
1.87999e-11
-5.62629e-11
4.84282e-11
1.91529e-11
-6.11112e-11
5.35303e-11
1.81491e-11
-6.46957e-11
5.69853e-11
-6.5512e-11
5.85698e-11
1.8663e-12
-2.34264e-12
1.42481e-12
3.54953e-12
-6.8425e-12
4.18927e-12
5.10419e-12
-1.10733e-11
6.86923e-12
6.57764e-12
-1.52196e-11
9.62383e-12
8.01267e-12
-1.94311e-11
1.2591e-11
9.44933e-12
-2.38285e-11
1.58934e-11
1.09261e-11
-2.85076e-11
1.96408e-11
1.248e-11
-3.35427e-11
2.39272e-11
1.4145e-11
-3.89898e-11
2.88231e-11
1.59461e-11
-4.48896e-11
3.43569e-11
1.78872e-11
-5.12699e-11
4.04808e-11
1.9926e-11
-5.81439e-11
4.70127e-11
2.19278e-11
-6.54899e-11
5.35409e-11
2.35965e-11
-7.31573e-11
5.93068e-11
2.44636e-11
-8.04982e-11
6.3245e-11
-8.6368e-11
6.49415e-11
2.04447e-12
1.55283e-12
-2.42914e-12
3.88533e-12
4.56309e-12
-7.09959e-12
5.57931e-12
7.47342e-12
-1.15033e-11
7.17555e-12
1.04517e-11
-1.58381e-11
8.71845e-12
1.36422e-11
-2.02672e-11
1.02498e-11
1.71723e-11
-2.49251e-11
1.18106e-11
2.11544e-11
-2.99236e-11
1.34425e-11
2.56839e-11
-3.53559e-11
1.51885e-11
3.08314e-11
-4.13005e-11
1.70924e-11
3.66251e-11
-4.78256e-11
1.91965e-11
4.30179e-11
-5.49925e-11
2.15341e-11
4.98287e-11
-6.28583e-11
2.41126e-11
5.66429e-11
-7.14653e-11
2.68548e-11
6.26742e-11
-8.07748e-11
2.93146e-11
6.67414e-11
-9.0128e-11
6.77094e-11
-1.00391e-10
1.68085e-13
-4.4397e-13
1.10073e-13
3.20052e-13
-1.29364e-12
3.24051e-13
4.61104e-13
-2.08323e-12
5.32713e-13
5.95613e-13
-2.84153e-12
7.49088e-13
7.27177e-13
-3.58886e-12
9.84404e-13
8.58655e-13
-4.33646e-12
1.24834e-12
9.92152e-13
-5.08532e-12
1.54887e-12
1.12889e-12
-5.82435e-12
1.89151e-12
1.26905e-12
-6.52757e-12
2.27764e-12
1.41184e-12
-7.15054e-12
2.70138e-12
1.55656e-12
-7.62722e-12
3.14457e-12
1.70505e-12
-7.86932e-12
3.56973e-12
1.86443e-12
-7.76993e-12
3.91245e-12
2.0403e-12
-7.21606e-12
4.08253e-12
2.19417e-12
-6.17126e-12
4.00932e-12
-4.38636e-12
3.92911e-12
5.00445e-13
-8.74579e-13
3.27379e-13
9.52841e-13
-2.54884e-12
9.6373e-13
1.37261e-12
-4.10617e-12
1.58408e-12
1.77267e-12
-5.60419e-12
2.22703e-12
2.16371e-12
-7.08423e-12
2.92586e-12
2.55421e-12
-8.57051e-12
3.70927e-12
2.95023e-12
-1.00682e-11
4.601e-12
3.35481e-12
-1.15605e-11
5.61763e-12
3.76666e-12
-1.30038e-11
6.76372e-12
4.17887e-12
-1.43237e-11
8.02293e-12
4.57835e-12
-1.54142e-11
9.34388e-12
4.9471e-12
-1.61524e-11
1.06207e-11
5.26287e-12
-1.64443e-11
1.16742e-11
5.48942e-12
-1.6323e-11
1.22608e-11
5.55386e-12
-1.60558e-11
1.22091e-11
-1.6272e-11
1.15805e-11
8.21674e-13
-1.27885e-12
5.36418e-13
1.56425e-12
-3.72822e-12
1.57888e-12
2.25283e-12
-6.00994e-12
2.5945e-12
2.90843e-12
-8.21056e-12
3.64612e-12
3.54853e-12
-1.03937e-11
4.78786e-12
4.18704e-12
-1.25995e-11
6.06657e-12
4.83374e-12
-1.4843e-11
7.52127e-12
5.49248e-12
-1.71103e-11
9.17985e-12
6.15764e-12
-1.93539e-11
1.10516e-11
6.80828e-12
-2.14889e-11
1.31142e-11
7.3998e-12
-2.33949e-11
1.52926e-11
7.85354e-12
-2.49411e-11
1.74333e-11
8.04799e-12
-2.60572e-11
1.92823e-11
7.83617e-12
-2.6864e-11
2.05138e-11
7.2041e-12
-2.7719e-11
2.09213e-11
-2.90976e-11
2.08066e-11
1.12495e-12
-1.64364e-12
7.32213e-13
2.14115e-12
-4.79357e-12
2.15474e-12
3.08248e-12
-7.73356e-12
3.53929e-12
3.97745e-12
-1.05787e-11
4.97078e-12
4.84996e-12
-1.34159e-11
6.52231e-12
5.7193e-12
-1.63044e-11
8.25742e-12
6.59915e-12
-1.92748e-11
1.02295e-11
7.49472e-12
-2.23257e-11
1.24779e-11
8.39636e-12
-2.54199e-11
1.50187e-11
9.26806e-12
-2.8479e-11
1.78293e-11
1.00284e-11
-3.13833e-11
2.08238e-11
1.05231e-11
-3.39849e-11
2.38242e-11
1.05013e-11
-3.6154e-11
2.65418e-11
9.66903e-12
-3.78694e-11
2.86194e-11
8.08024e-12
-3.92707e-11
2.98201e-11
-4.07384e-11
3.04222e-11
1.40408e-12
-1.95605e-12
9.10371e-13
2.67152e-12
-5.70728e-12
2.67822e-12
3.84387e-12
-9.21627e-12
4.3965e-12
4.95625e-12
-1.26253e-11
6.16927e-12
6.03847e-12
-1.60445e-11
8.08608e-12
7.11522e-12
-1.95545e-11
1.02249e-11
8.205e-12
-2.32056e-11
1.26518e-11
9.31678e-12
-2.70172e-11
1.54168e-11
1.04423e-11
-3.09738e-11
1.8544e-11
1.15409e-11
-3.50202e-11
2.20144e-11
1.25135e-11
-3.90536e-11
2.57395e-11
1.31604e-11
-4.29142e-11
2.95305e-11
1.31367e-11
-4.63702e-11
3.30791e-11
1.20004e-11
-4.91043e-11
3.59995e-11
9.73946e-12
-5.07683e-11
3.79944e-11
-5.13883e-11
3.92794e-11
1.65383e-12
-2.20386e-12
1.06735e-12
3.14524e-12
-6.43353e-12
3.13878e-12
4.522e-12
-1.03996e-11
5.14845e-12
5.82472e-12
-1.42687e-11
7.21601e-12
7.08833e-12
-1.8173e-11
9.44422e-12
8.34269e-12
-2.22137e-11
1.19225e-11
9.61205e-12
-2.64633e-11
1.4727e-11
1.09123e-11
-3.09654e-11
1.79162e-11
1.22444e-11
-3.57342e-11
2.15213e-11
1.35811e-11
-4.07507e-11
2.55275e-11
1.4842e-11
-4.59535e-11
2.98461e-11
1.58527e-11
-5.12181e-11
3.42796e-11
1.62917e-11
-5.63045e-11
3.84946e-11
1.5699e-11
-6.07459e-11
4.20537e-11
1.39023e-11
-6.37572e-11
4.45781e-11
-6.3866e-11
4.6282e-11
1.87014e-12
-2.37607e-12
1.20059e-12
3.55451e-12
-6.93999e-12
3.52889e-12
5.10536e-12
-1.12305e-11
5.7826e-12
6.56726e-12
-1.5434e-11
8.09299e-12
7.97904e-12
-1.97009e-11
1.05723e-11
9.37486e-12
-2.41508e-11
1.33177e-11
1.07845e-11
-2.88759e-11
1.64117e-11
1.22323e-11
-3.39434e-11
1.99181e-11
1.37335e-11
-3.93961e-11
2.38716e-11
1.52865e-11
-4.52527e-11
2.82593e-11
1.68587e-11
-5.15037e-11
3.29899e-11
1.8363e-11
-5.81011e-11
3.78527e-11
1.96295e-11
-6.49283e-11
4.24747e-11
2.04026e-11
-7.17162e-11
4.63265e-11
2.04854e-11
-7.78043e-11
4.88942e-11
-8.21535e-11
5.03771e-11
2.05039e-12
1.30869e-12
-2.46355e-12
3.89442e-12
3.84449e-12
-7.19993e-12
5.58683e-12
6.29246e-12
-1.16649e-11
7.17428e-12
8.79122e-12
-1.60582e-11
8.69769e-12
1.14584e-11
-2.05432e-11
1.01938e-11
1.43949e-11
-2.52529e-11
1.1696e-11
1.76855e-11
-3.02941e-11
1.32352e-11
2.13947e-11
-3.57508e-11
1.48383e-11
2.55565e-11
-4.16851e-11
1.65267e-11
3.01554e-11
-4.81376e-11
1.83107e-11
3.5095e-11
-5.5125e-11
2.01822e-11
4.0151e-11
-6.26328e-11
2.21083e-11
4.4917e-11
-7.0597e-11
2.40231e-11
4.87836e-11
-7.88537e-11
2.57052e-11
5.11062e-11
-8.67665e-11
5.1643e-11
-9.52274e-11
1.6753e-13
-4.49189e-13
8.57636e-14
3.18646e-13
-1.30892e-12
2.5241e-13
4.58183e-13
-2.10811e-12
4.14689e-13
5.90021e-13
-2.87613e-12
5.82567e-13
7.17053e-13
-3.63388e-12
7.64487e-13
8.41113e-13
-4.39339e-12
9.67514e-13
9.62763e-13
-5.15706e-12
1.19716e-12
1.08092e-12
-5.91642e-12
1.45669e-12
1.19229e-12
-6.6503e-12
1.7458e-12
1.29104e-12
-7.32298e-12
2.05828e-12
1.36936e-12
-7.88323e-12
2.37905e-12
1.41998e-12
-8.26545e-12
2.68102e-12
1.44177e-12
-8.38989e-12
2.92472e-12
1.44528e-12
-8.15447e-12
3.06725e-12
1.4435e-12
-7.45819e-12
3.08984e-12
-5.84166e-12
3.22257e-12
4.98894e-13
-8.84812e-13
2.55088e-13
9.48881e-13
-2.57879e-12
7.50702e-13
1.36429e-12
-4.15486e-12
1.23319e-12
1.75664e-12
-5.67163e-12
1.73206e-12
2.13459e-12
-7.17145e-12
2.27234e-12
2.50368e-12
-8.67987e-12
2.87502e-12
2.86565e-12
-1.02043e-11
3.55651e-12
3.21704e-12
-1.17319e-11
4.32673e-12
3.54714e-12
-1.32264e-11
5.18515e-12
3.83582e-12
-1.46263e-11
6.11436e-12
4.05279e-12
-1.58461e-11
7.07153e-12
4.16178e-12
-1.67897e-11
7.98001e-12
4.13436e-12
-1.73823e-11
8.72837e-12
3.97867e-12
-1.76213e-11
9.19555e-12
3.77552e-12
-1.7622e-11
9.32919e-12
-1.77444e-11
9.14526e-12
8.19448e-13
-1.2937e-12
4.17995e-13
1.55844e-12
-3.77162e-12
1.22997e-12
2.24035e-12
-6.08029e-12
2.01997e-12
2.88403e-12
-8.30749e-12
2.836e-12
3.50389e-12
-1.0518e-11
3.71881e-12
4.1094e-12
-1.27534e-11
4.70267e-12
4.70383e-12
-1.50308e-11
5.81468e-12
5.28159e-12
-1.73398e-11
7.07171e-12
5.82385e-12
-1.96396e-11
8.47445e-12
6.29234e-12
-2.18563e-11
9.9979e-12
6.623e-12
-2.38864e-11
1.15791e-11
6.72412e-12
-2.5618e-11
1.3106e-11
6.49326e-12
-2.69833e-11
1.44197e-11
5.88853e-12
-2.80464e-11
1.53548e-11
5.11152e-12
-2.9019e-11
1.58435e-11
-3.02165e-11
1.60488e-11
1.12251e-12
-1.66252e-12
5.70623e-13
2.13448e-12
-4.84866e-12
1.67876e-12
3.06762e-12
-7.82256e-12
2.75586e-12
3.94773e-12
-1.07006e-11
3.86681e-12
4.79491e-12
-1.35707e-11
5.06666e-12
5.62304e-12
-1.64931e-11
6.40197e-12
6.438e-12
-1.94992e-11
7.90994e-12
7.23395e-12
-2.25893e-11
9.61465e-12
7.98649e-12
-2.57286e-11
1.15198e-11
8.64182e-12
-2.88436e-11
1.35973e-11
9.10207e-12
-3.18209e-11
1.5773e-11
9.2112e-12
-3.45171e-11
1.79154e-11
8.7644e-12
-3.67913e-11
1.98429e-11
7.61378e-12
-3.85706e-11
2.13757e-11
6.03621e-12
-3.99027e-11
2.24292e-11
-4.10932e-11
2.31316e-11
1.40197e-12
-1.97824e-12
7.09556e-13
2.66517e-12
-5.77193e-12
2.08688e-12
3.82874e-12
-9.32032e-12
3.4238e-12
4.92477e-12
-1.27669e-11
4.79984e-12
5.97896e-12
-1.62227e-11
6.28246e-12
7.01011e-12
-1.9768e-11
7.9289e-12
8.02844e-12
-2.34524e-11
9.78529e-12
9.03151e-12
-2.72934e-11
1.18825e-11
9.99636e-12
-3.12725e-11
1.42282e-11
1.08662e-11
-3.53295e-11
1.67938e-11
1.15299e-11
-3.93537e-11
1.94992e-11
1.1796e-11
-4.3171e-11
2.22004e-11
1.13834e-11
-4.65241e-11
2.46988e-11
1.00164e-11
-4.90554e-11
2.67964e-11
7.89654e-12
-5.03939e-11
2.83753e-11
-5.05809e-11
2.95237e-11
1.65256e-12
-2.22853e-12
8.32027e-13
3.14037e-12
-6.50532e-12
2.44612e-12
4.5087e-12
-1.05148e-11
4.01001e-12
5.79506e-12
-1.44247e-11
5.61518e-12
7.03026e-12
-1.83673e-11
7.33912e-12
8.2383e-12
-2.24428e-11
9.24755e-12
9.43529e-12
-2.67206e-11
1.13937e-11
1.06262e-11
-3.1239e-11
1.38137e-11
1.17985e-11
-3.60028e-11
1.65186e-11
1.29105e-11
-4.09778e-11
1.94794e-11
1.38734e-11
-4.60793e-11
2.26104e-11
1.45255e-11
-5.11481e-11
2.57526e-11
1.46142e-11
-5.58987e-11
2.86791e-11
1.38479e-11
-5.98266e-11
3.11512e-11
1.22578e-11
-6.21904e-11
3.30101e-11
-6.1697e-11
3.43706e-11
1.87018e-12
-2.40235e-12
9.3604e-13
3.55215e-12
-7.01639e-12
2.75058e-12
5.09574e-12
-1.13528e-11
4.50469e-12
6.54258e-12
-1.55989e-11
6.2988e-12
7.92755e-12
-1.99047e-11
8.21762e-12
9.27938e-12
-2.43877e-11
1.03327e-11
1.06204e-11
-2.91355e-11
1.27017e-11
1.19649e-11
-3.42066e-11
1.5364e-11
1.33161e-11
-3.96294e-11
1.83315e-11
1.46599e-11
-4.53994e-11
2.15737e-11
1.59563e-11
-5.14718e-11
2.49965e-11
1.71301e-11
-5.77473e-11
2.84203e-11
1.80726e-11
-6.40459e-11
3.15733e-11
1.868e-11
-7.00537e-11
3.41392e-11
1.8947e-11
-7.5195e-11
3.58849e-11
-7.87006e-11
3.69862e-11
2.05209e-12
1.02047e-12
-2.49054e-12
3.89536e-12
2.99703e-12
-7.27833e-12
5.58231e-12
4.90272e-12
-1.17902e-11
7.15695e-12
6.84364e-12
-1.62267e-11
8.65668e-12
8.9087e-12
-2.07502e-11
1.01134e-11
1.11723e-11
-2.54911e-11
1.1554e-11
1.36937e-11
-3.05505e-11
1.30005e-11
1.65126e-11
-3.60018e-11
1.44696e-11
1.96394e-11
-4.18898e-11
1.59715e-11
2.304e-11
-4.82284e-11
1.75094e-11
2.66116e-11
-5.4994e-11
1.90822e-11
3.01553e-11
-6.21173e-11
2.07024e-11
3.33589e-11
-6.94715e-11
2.24225e-11
3.58283e-11
-7.68571e-11
2.41861e-11
3.72439e-11
-8.37551e-11
3.75685e-11
-9.13007e-11
1.6686e-13
-4.53031e-13
5.86826e-14
3.17073e-13
-1.32017e-12
1.72668e-13
4.55149e-13
-2.12645e-12
2.83555e-13
5.84549e-13
-2.90164e-12
3.98064e-13
7.07591e-13
-3.66698e-12
5.21811e-13
8.25301e-13
-4.43502e-12
6.59386e-13
9.37134e-13
-5.20904e-12
8.14205e-13
1.04051e-12
-5.98211e-12
9.88045e-13
1.13028e-12
-6.73569e-12
1.18013e-12
1.1986e-12
-7.43804e-12
1.38582e-12
1.23624e-12
-8.04331e-12
1.59512e-12
1.23681e-12
-8.49055e-12
1.79194e-12
1.2056e-12
-8.69799e-12
1.95549e-12
1.16953e-12
-8.5434e-12
2.06695e-12
1.16344e-12
-7.88167e-12
2.11961e-12
-6.21007e-12
2.27515e-12
4.97001e-13
-8.92377e-13
1.74546e-13
9.44409e-13
-2.60093e-12
5.13569e-13
1.3556e-12
-4.19083e-12
8.43282e-13
1.74089e-12
-5.72136e-12
1.18359e-12
2.10728e-12
-7.23548e-12
1.55112e-12
2.45802e-12
-8.75952e-12
1.95953e-12
2.79172e-12
-1.03022e-11
2.41903e-12
3.10077e-12
-1.1853e-11
2.935e-12
3.36949e-12
-1.33794e-11
3.50545e-12
3.5728e-12
-1.4825e-11
4.1172e-12
3.67825e-12
-1.61107e-11
4.74182e-12
3.65589e-12
-1.71422e-11
5.33321e-12
3.50279e-12
-1.78294e-11
5.83121e-12
3.28277e-12
-1.81186e-11
6.17825e-12
3.13441e-12
-1.80465e-11
6.34892e-12
-1.79233e-11
6.31257e-12
8.16639e-13
-1.3047e-12
2.8604e-13
1.55172e-12
-3.80375e-12
8.41526e-13
2.22712e-12
-6.13225e-12
1.38144e-12
2.85982e-12
-8.3788e-12
1.93815e-12
3.46171e-12
-1.06088e-11
2.53875e-12
4.03882e-12
-1.28647e-11
3.20555e-12
4.58974e-12
-1.51643e-11
3.95544e-12
5.10293e-12
-1.74992e-11
4.79771e-12
5.55278e-12
-1.98312e-11
5.73011e-12
5.89551e-12
-2.20895e-11
6.7333e-12
6.0678e-12
-2.41732e-11
7.76502e-12
5.99525e-12
-2.59652e-11
8.7571e-12
5.626e-12
-2.73722e-11
9.62188e-12
5.01222e-12
-2.83968e-11
1.02766e-11
4.42321e-12
-2.91837e-11
1.06811e-11
-3.00521e-11
1.08873e-11
1.11922e-12
-1.67651e-12
3.90525e-13
2.12643e-12
-4.88944e-12
1.1487e-12
3.05145e-12
-7.88818e-12
1.88493e-12
3.91772e-12
-1.07899e-11
2.64291e-12
4.74226e-12
-1.3683e-11
3.4593e-12
5.53472e-12
-1.6628e-11
4.36443e-12
6.29542e-12
-1.96563e-11
5.38154e-12
7.01166e-12
-2.27678e-11
6.52403e-12
7.65188e-12
-2.59276e-11
7.79061e-12
8.15804e-12
-2.90604e-11
9.15861e-12
8.43797e-12
-3.20486e-11
1.05773e-11
8.36496e-12
-3.47363e-11
1.19654e-11
7.80635e-12
-3.69534e-11
1.32211e-11
6.73173e-12
-3.85763e-11
1.42524e-11
5.47236e-12
-3.96195e-11
1.50054e-11
-4.04318e-11
1.55029e-11
1.39866e-12
-1.99466e-12
4.85669e-13
2.65684e-12
-5.81967e-12
1.42815e-12
3.81147e-12
-9.39681e-12
2.34208e-12
4.89208e-12
-1.28702e-11
3.28104e-12
5.92094e-12
-1.63509e-11
4.28998e-12
6.91232e-12
-1.99187e-11
5.40624e-12
7.87052e-12
-2.36216e-11
6.65865e-12
8.78611e-12
-2.74742e-11
8.06451e-12
9.62953e-12
-3.14533e-11
9.62403e-12
1.03416e-11
-3.54907e-11
1.13128e-11
1.08216e-11
-3.94632e-11
1.30744e-11
1.09162e-11
-4.31767e-11
1.4817e-11
1.04299e-11
-4.63454e-11
1.64259e-11
9.21533e-12
-4.85826e-11
1.7797e-11
7.51325e-12
-4.95296e-11
1.88556e-11
-4.93107e-11
1.96022e-11
1.64973e-12
-2.24676e-12
5.69574e-13
3.1328e-12
-6.55821e-12
1.67422e-12
4.49222e-12
-1.05992e-11
2.74345e-12
5.76285e-12
-1.45378e-11
3.83893e-12
6.97201e-12
-1.8506e-11
5.01231e-12
8.1392e-12
-2.26024e-11
6.30653e-12
9.27472e-12
-2.68931e-11
7.75483e-12
1.0377e-11
-3.14108e-11
9.37751e-12
1.14275e-11
-3.61508e-11
1.11759e-11
1.2384e-11
-4.10646e-11
1.31237e-11
1.31702e-11
-4.60464e-11
1.51581e-11
1.36661e-11
-5.091e-11
1.71735e-11
1.3708e-11
-5.53418e-11
1.90331e-11
1.31338e-11
-5.88307e-11
2.06056e-11
1.20061e-11
-6.06984e-11
2.17973e-11
-5.982e-11
2.26379e-11
1.86825e-12
-2.42172e-12
6.4086e-13
3.5463e-12
-7.07254e-12
1.88284e-12
5.08174e-12
-1.14421e-11
3.0823e-12
6.51365e-12
-1.57178e-11
4.30694e-12
7.87362e-12
-2.00489e-11
5.61331e-12
9.1861e-12
-2.45506e-11
7.04815e-12
1.0468e-11
-2.93057e-11
8.64753e-12
1.17278e-11
-3.43645e-11
1.04333e-11
1.29634e-11
-3.97426e-11
1.24068e-11
1.41606e-11
-4.54157e-11
1.45389e-11
1.52919e-11
-5.1312e-11
1.67583e-11
1.6321e-11
-5.72996e-11
1.89411e-11
1.72219e-11
-6.31707e-11
2.09167e-11
1.80119e-11
-6.86186e-11
2.25024e-11
1.87187e-11
-7.3169e-11
2.35689e-11
-7.62573e-11
2.42116e-11
2.05139e-12
6.98745e-13
-2.51038e-12
3.89195e-12
2.05178e-12
-7.3358e-12
5.57211e-12
3.35508e-12
-1.18814e-11
7.13353e-12
4.68023e-12
-1.63476e-11
8.61062e-12
6.08663e-12
-2.08958e-11
1.00314e-11
7.62296e-12
-2.56533e-11
1.14181e-11
9.32625e-12
-3.07156e-11
1.27873e-11
1.12184e-11
-3.61464e-11
1.41513e-11
1.32992e-11
-4.1976e-11
1.55199e-11
1.55361e-11
-4.81961e-11
1.69062e-11
1.78497e-11
-5.47544e-11
1.83414e-11
2.01e-11