/*--------------------------------*- C++ -*----------------------------------*\
| =========                 |                                                 |
| \\      /  F ield         | OpenFOAM: The Open Source CFD Toolbox           |
|  \\    /   O peration     | Version:  v1912                                 |
|   \\  /    A nd           | Website:  www.openfoam.com                      |
|    \\/     M anipulation  |                                                 |
\*---------------------------------------------------------------------------*/
FoamFile
{
    version     2.0;
    format      ascii;
    class       volScalarField;
    location    "0.67/fluid";
    object      p;
}
// * * * * * * * * * * * * * * * * * * * * * * * * * * * * * * * * * * * * * //

dimensions      [0 2 -2 0 0 0 0];


internalField   nonuniform List<scalar> 
14592
(
0.053397
0.0477853
0.0458941
0.0443084
0.0434043
0.042705
0.0421594
0.041689
0.041246
0.0408864
0.0404782
0.0402832
0.0398025
0.0400464
0.0392524
0.0411774
0.0492248
0.0474792
0.045803
0.0444487
0.0435362
0.0428188
0.042249
0.0417665
0.0413208
0.0409695
0.0405765
0.0404185
0.039975
0.0403661
0.039541
0.0424424
0.0472426
0.0466311
0.0453989
0.0444006
0.0435595
0.0428661
0.0422841
0.0417915
0.0413414
0.040998
0.0406274
0.0405232
0.0401436
0.0407181
0.0399582
0.0436214
0.0460614
0.0459142
0.0450534
0.0442985
0.0435451
0.0428817
0.04229
0.0417811
0.0413159
0.0409679
0.0406054
0.0405408
0.0402181
0.0409506
0.0403078
0.044395
0.0453592
0.0453358
0.044705
0.0441093
0.0434372
0.0428086
0.0422152
0.0416888
0.0411968
0.0408193
0.0404246
0.0403385
0.0399889
0.0407681
0.0401385
0.0445289
0.0448995
0.0449133
0.0444266
0.0439257
0.0433109
0.0427058
0.0421086
0.0415633
0.0410436
0.0406367
0.0402157
0.0401261
0.0397951
0.0407128
0.0402498
0.045162
0.0445993
0.0446197
0.0442072
0.0437544
0.0431692
0.0425696
0.0419555
0.0413741
0.040799
0.0403125
0.0397801
0.0395318
0.0389621
0.0395842
0.0385743
0.0435507
0.0444191
0.044441
0.0440592
0.0436235
0.0430447
0.0424365
0.0417997
0.0411822
0.0405602
0.0400141
0.0394196
0.0391113
0.0385207
0.0393083
0.0385627
0.0459191
0.0533074
0.0476978
0.0458437
0.044299
0.0434482
0.0428079
0.0423292
0.0419342
0.0415787
0.0413169
0.0410257
0.0409302
0.0405895
0.0407429
0.0400696
0.0407256
0.0491353
0.0473899
0.0457517
0.0444389
0.0435804
0.0429228
0.0424206
0.0420142
0.0416568
0.041404
0.0411274
0.0410643
0.0407471
0.0409914
0.0402573
0.0413265
0.0471492
0.0465362
0.0453411
0.044384
0.0435972
0.0429645
0.0424506
0.0420348
0.0416728
0.0414281
0.0411721
0.0411598
0.0408961
0.0412868
0.0405685
0.0420568
0.0459656
0.0458165
0.0449914
0.0442767
0.0435768
0.0429735
0.0424492
0.0420163
0.0416384
0.0413885
0.0411386
0.0411651
0.0409499
0.0414804
0.0408432
0.0425897
0.0452605
0.0452348
0.0446386
0.0440818
0.0434616
0.0428916
0.0423634
0.0419104
0.0415017
0.0412181
0.0409281
0.0409268
0.0406654
0.0412279
0.0405476
0.0425148
0.0447979
0.0448095
0.0443563
0.0438932
0.0433286
0.0427798
0.0422452
0.0417704
0.0413299
0.0410135
0.0406914
0.0406869
0.040434
0.0411479
0.0405977
0.043056
0.0444942
0.0445124
0.0441326
0.0437164
0.0431793
0.0426331
0.0420776
0.0415612
0.0410573
0.040651
0.0401996
0.0400187
0.0394801
0.0398812
0.0386368
0.0411635
0.0443101
0.0443299
0.0439802
0.04358
0.0430473
0.0424897
0.041908
0.0413509
0.040794
0.040322
0.0397999
0.0395611
0.0389939
0.0396227
0.0386039
0.0435952
0.0532537
0.0476457
0.04582
0.0443089
0.0435038
0.042917
0.0425027
0.0421851
0.0419282
0.0417893
0.0416732
0.0417895
0.0418138
0.0423161
0.0424598
0.0432432
0.0490816
0.0473366
0.0457275
0.0444488
0.0436369
0.0430335
0.0425965
0.0422687
0.0420113
0.0418836
0.041785
0.0419363
0.0419904
0.0425748
0.0427055
0.0437989
0.0470918
0.0464778
0.0453106
0.0443873
0.0436475
0.0430697
0.0426216
0.0422849
0.0420233
0.0419044
0.0418266
0.0420316
0.0421437
0.0428837
0.0430747
0.0445398
0.0459055
0.0457549
0.0449568
0.0442748
0.0436211
0.0430722
0.0426131
0.0422588
0.0419803
0.0418565
0.0417844
0.0420317
0.0421953
0.0430865
0.0433786
0.045091
0.045197
0.0451697
0.0445993
0.044074
0.0434985
0.0429812
0.0425162
0.0421394
0.0418264
0.0416651
0.0415458
0.0417614
0.0418656
0.0427887
0.0430126
0.0449378
0.0447312
0.0447412
0.044313
0.0438802
0.0433585
0.0428605
0.0423863
0.0419845
0.0416353
0.0414365
0.0412772
0.0414862
0.0415825
0.0426623
0.0429736
0.0453929
0.0444238
0.0444405
0.0440848
0.0436977
0.0432013
0.0427031
0.0422041
0.0417551
0.0413337
0.0410334
0.0407232
0.0407304
0.0404788
0.0411968
0.0406244
0.0430732
0.0442359
0.0442541
0.0439279
0.0435557
0.0430617
0.0425494
0.0420203
0.0415252
0.0410428
0.0406667
0.0402683
0.0402012
0.0398761
0.0408098
0.0403219
0.0452574
0.0532231
0.0476162
0.0458117
0.0443264
0.0435567
0.043011
0.0426452
0.0423821
0.0421891
0.0421163
0.0420801
0.0422508
0.0423616
0.0428199
0.0430316
0.0435755
0.049051
0.0473061
0.0457188
0.0444664
0.0436905
0.0431287
0.0427407
0.0424681
0.0422752
0.042214
0.0421954
0.0423985
0.0425347
0.0430522
0.0432381
0.0439934
0.0470577
0.0464428
0.0452964
0.0443991
0.0436955
0.0431599
0.0427613
0.0424799
0.0422824
0.0422293
0.0422285
0.0424803
0.0426636
0.0433127
0.0435343
0.0445797
0.0458687
0.045717
0.0449386
0.0442818
0.0436638
0.0431565
0.0427461
0.0424467
0.0422312
0.0421723
0.0421744
0.0424658
0.0426917
0.043479
0.0437777
0.0450367
0.0451569
0.0451283
0.0445767
0.0440754
0.0435344
0.0430575
0.0426396
0.0423157
0.0420628
0.0419632
0.0419121
0.0421666
0.0423188
0.0431273
0.0433229
0.0447761
0.044688
0.0446967
0.0442866
0.0438767
0.043388
0.0429288
0.0424997
0.0421485
0.0418561
0.0417164
0.04162
0.0418662
0.0419993
0.0429651
0.0432168
0.0451576
0.0443771
0.0443925
0.0440542
0.0436889
0.043224
0.0427624
0.0423055
0.0419035
0.0415334
0.041286
0.0410278
0.0410641
0.0408239
0.041421
0.0407212
0.0426829
0.0441857
0.0442026
0.0438934
0.043542
0.0430778
0.0426001
0.0421103
0.0416589
0.041223
0.0408955
0.040542
0.0405031
0.0401777
0.0410063
0.0403543
0.0448012
0.0532084
0.0476025
0.0458142
0.0443495
0.0436085
0.0430973
0.0427736
0.04256
0.0424279
0.0424237
0.0424782
0.0427352
0.0429815
0.0435104
0.0439029
0.0443879
0.0490364
0.0472917
0.0457212
0.0444898
0.0437432
0.0432164
0.0428711
0.0426487
0.0425178
0.0425267
0.0426005
0.042891
0.0431649
0.0437474
0.0441168
0.0447719
0.0470402
0.0464247
0.0452943
0.0444177
0.0437437
0.0432435
0.042888
0.0426571
0.0425214
0.042538
0.0426279
0.0429647
0.0432798
0.0439824
0.0443794
0.0452889
0.0458488
0.0456962
0.0449331
0.0442964
0.0437073
0.043235
0.0428673
0.0426179
0.0424634
0.0424736
0.0425646
0.0429399
0.0432928
0.0441285
0.0445916
0.0457019
0.045134
0.0451045
0.0445672
0.0440851
0.043572
0.043129
0.0427523
0.0424769
0.0422824
0.0422493
0.0422821
0.0426167
0.0428853
0.043736
0.0440728
0.0453696
0.0446623
0.0446701
0.0442738
0.0438821
0.0434201
0.0429933
0.0426036
0.0422987
0.0420617
0.0419855
0.0419675
0.0422905
0.0425286
0.0435331
0.0438984
0.0456783
0.0443483
0.0443628
0.0440377
0.0436896
0.0432499
0.042819
0.0423988
0.0420397
0.04172
0.0415302
0.04134
0.0414434
0.0412839
0.0419053
0.0412581
0.0430402
0.0441537
0.0441699
0.0438732
0.0435382
0.0430979
0.042649
0.0421933
0.0417814
0.041391
0.0411155
0.0408207
0.0408413
0.0405765
0.0414226
0.0407716
0.0450242
0.0532022
0.047597
0.0458201
0.0443698
0.0436491
0.0431617
0.0428663
0.042684
0.042588
0.0426189
0.042714
0.0429943
0.0432759
0.0437842
0.044193
0.0446235
0.0490303
0.0472857
0.0457269
0.0445104
0.0437844
0.0432817
0.0429651
0.0427743
0.04268
0.0427242
0.0428389
0.043152
0.04346
0.0440156
0.044397
0.0449714
0.0470317
0.0464158
0.0452967
0.0444346
0.0437813
0.0433056
0.0429789
0.0427799
0.0426802
0.0427315
0.0428601
0.043216
0.0435581
0.0442218
0.0446178
0.045424
0.0458385
0.0456852
0.0449327
0.0443101
0.0437412
0.0432932
0.0429539
0.042736
0.0426168
0.0426609
0.0427886
0.0431808
0.0435551
0.044345
0.0447938
0.0457923
0.0451213
0.045091
0.0445638
0.0440951
0.0436014
0.0431818
0.0428326
0.0425875
0.0424267
0.0424257
0.0424917
0.0428403
0.0431223
0.0439212
0.0442264
0.0454068
0.0446474
0.0446544
0.0442676
0.0438886
0.0434452
0.0430408
0.0426773
0.0424014
0.0421961
0.0421504
0.0421623
0.0424977
0.0427421
0.0436925
0.0440088
0.0456704
0.0443309
0.0443446
0.0440285
0.0436926
0.0432704
0.0428606
0.042465
0.0421328
0.041842
0.0416797
0.0415144
0.0416268
0.041463
0.0420262
0.0413019
0.0429553
0.0441338
0.0441493
0.0438613
0.0435377
0.0431141
0.042685
0.0422522
0.0418653
0.0415011
0.0412507
0.0409768
0.0410051
0.0407291
0.0415185
0.040771
0.0448876
0.0532009
0.0475961
0.0458268
0.0443863
0.0436794
0.0432086
0.0429335
0.0427743
0.0427059
0.0427657
0.0428963
0.0432049
0.0435267
0.0440446
0.0444866
0.044893
0.0490289
0.0472845
0.0457336
0.0445271
0.0438152
0.0433295
0.0430334
0.0428662
0.0428
0.0428739
0.043025
0.043367
0.0437158
0.0442793
0.0446941
0.0452303
0.0470288
0.0464126
0.045301
0.0444489
0.0438098
0.0433513
0.0430453
0.04287
0.0427983
0.0428789
0.0430427
0.0434256
0.0438048
0.0444702
0.0448926
0.0456489
0.0458342
0.0456806
0.0449352
0.0443221
0.0437672
0.0433361
0.0430173
0.0428229
0.0427313
0.0428043
0.0429659
0.0433841
0.0437922
0.0445802
0.0450482
0.0459924
0.0451154
0.0450847
0.0445641
0.0441045
0.0436242
0.043221
0.0428916
0.0426691
0.0425347
0.0425614
0.042659
0.0430316
0.0433423
0.0441356
0.0444492
0.045573
0.0446398
0.0446465
0.044266
0.0438956
0.043465
0.0430762
0.0427316
0.0424773
0.042297
0.0422775
0.0423185
0.042676
0.0429437
0.043886
0.0441986
0.0458024
0.0443216
0.0443349
0.0440249
0.043697
0.0432869
0.0428918
0.0425138
0.0422019
0.0419338
0.0417954
0.0416552
0.0417867
0.0416381
0.0421883
0.0414403
0.0430275
0.0441228
0.044138
0.0438557
0.0435397
0.0431275
0.0427122
0.0422957
0.0419274
0.0415838
0.041355
0.0411025
0.041147
0.0408793
0.0416528
0.0408649
0.0449099
0.0532005
0.0475965
0.0458302
0.0443948
0.0436941
0.043231
0.0429648
0.0428152
0.0427575
0.042827
0.0429681
0.0432811
0.0436098
0.0441202
0.0445646
0.0449614
0.049029
0.0472844
0.0457372
0.0445355
0.0438301
0.0433521
0.0430649
0.0429074
0.0428518
0.0429351
0.0430963
0.0434419
0.0437966
0.0443507
0.0447672
0.0452888
0.0470279
0.0464116
0.0453036
0.0444561
0.0438236
0.0433727
0.0430757
0.0429099
0.0428485
0.0429379
0.0431106
0.0434954
0.0438776
0.0445295
0.0449501
0.0456875
0.0458327
0.0456788
0.0449368
0.0443281
0.0437797
0.0433562
0.0430462
0.0428611
0.0427795
0.042861
0.0430308
0.0434499
0.0438589
0.0446312
0.0450934
0.0460168
0.0451129
0.0450819
0.0445646
0.0441092
0.0436351
0.0432393
0.0429183
0.0427049
0.04258
0.0426147
0.0427196
0.0430924
0.043402
0.0441779
0.0444811
0.0455828
0.0446366
0.0446429
0.0442655
0.0438991
0.0434744
0.0430927
0.0427562
0.0425106
0.0423392
0.0423273
0.0423747
0.0427319
0.0429966
0.0439201
0.0442163
0.0457966
0.0443175
0.0443305
0.0440234
0.0436993
0.0432948
0.0429063
0.042536
0.0422322
0.0419723
0.041841
0.0417063
0.0418371
0.0416836
0.0422145
0.0414436
0.0430038
0.0441179
0.0441327
0.0438532
0.0435408
0.0431339
0.0427249
0.0423156
0.0419548
0.0416188
0.0413963
0.0411484
0.0411918
0.0409171
0.0416696
0.0408514
0.0448629
0.0627293
0.0519867
0.0483469
0.0453681
0.0436556
0.0423191
0.0412674
0.0403047
0.0393628
0.0383933
0.0373203
0.0361626
0.0347834
0.0333023
0.0314626
0.0295981
0.0584599
0.0512336
0.0479695
0.0452741
0.0436179
0.0423116
0.0412706
0.0403155
0.0393816
0.0384216
0.0373587
0.0362142
0.0348495
0.0333865
0.0315618
0.0297083
0.0564561
0.0501941
0.0473363
0.0449777
0.0434501
0.0422263
0.0412204
0.0402858
0.0393653
0.0384169
0.0373675
0.0362391
0.0348981
0.0334626
0.031671
0.0298434
0.0552085
0.0493869
0.046866
0.044739
0.0433257
0.0421671
0.041186
0.0402617
0.0393445
0.0383972
0.0373514
0.0362297
0.0349024
0.0334838
0.0317163
0.0299106
0.0544643
0.0487734
0.0464588
0.0444853
0.0431691
0.0420705
0.0411174
0.040205
0.0392904
0.0383415
0.0372952
0.036174
0.0348548
0.033447
0.0317029
0.0299211
0.0539794
0.0483381
0.0461577
0.0442803
0.0430329
0.0419762
0.0410431
0.0401372
0.0392211
0.0382673
0.0372176
0.0360941
0.0347817
0.0333836
0.0316668
0.0299131
0.0536736
0.048047
0.0459382
0.0441137
0.0429076
0.0418757
0.0409539
0.0400488
0.0391266
0.0381631
0.0371046
0.0359717
0.0346599
0.033264
0.0315753
0.0298517
0.0535026
0.0478808
0.0458035
0.044001
0.0428118
0.0417876
0.0408672
0.0399567
0.0390254
0.0380514
0.0369851
0.035845
0.0345385
0.0331502
0.0314984
0.0298114
0.0584604
0.051232
0.047965
0.0452652
0.0436036
0.0422904
0.0412436
0.0402826
0.039336
0.0383592
0.0372751
0.0361088
0.0347123
0.0332257
0.0313573
0.0295072
0.0542624
0.0508357
0.0477614
0.0452854
0.0436381
0.0423271
0.0412705
0.0403041
0.0393553
0.0383784
0.0372961
0.0361346
0.0347457
0.0332727
0.0314214
0.0295848
0.0522565
0.0498886
0.0472036
0.045058
0.0435153
0.0422681
0.0412338
0.04028
0.0393379
0.0383668
0.0372936
0.0361439
0.0347749
0.0333236
0.0314994
0.0296862
0.0510233
0.049101
0.0467645
0.0448521
0.0434173
0.042228
0.0412125
0.0402637
0.0393202
0.0383477
0.0372766
0.0361322
0.0347762
0.0333411
0.0315405
0.0297487
0.050285
0.0484834
0.0463635
0.0446072
0.0432686
0.0421377
0.0411487
0.0402104
0.0392682
0.0382939
0.0372224
0.036079
0.0347317
0.0333075
0.0315304
0.0297618
0.0498033
0.0480423
0.046063
0.0444047
0.0431355
0.0420466
0.0410774
0.0401455
0.0392024
0.0382241
0.0371507
0.0360067
0.0346685
0.033256
0.0315087
0.0297684
0.049499
0.0477474
0.0458429
0.0442387
0.0430114
0.0419477
0.0409899
0.0400591
0.0391111
0.0381243
0.0370436
0.0358917
0.0345561
0.0331471
0.0314307
0.0297197
0.0493286
0.0475798
0.0457083
0.0441269
0.0429171
0.0418618
0.0409054
0.0399699
0.0390145
0.0380187
0.0369325
0.0357759
0.0344493
0.033051
0.0313765
0.0297022
0.0564769
0.0502139
0.047362
0.0450089
0.0434892
0.0422733
0.0412821
0.0403627
0.0394427
0.0384915
0.0374212
0.0362719
0.03485
0.033349
0.0313308
0.0293966
0.0522784
0.0499119
0.0472376
0.0451036
0.0435757
0.0423451
0.0413344
0.0404043
0.0394778
0.0385245
0.0374556
0.0363113
0.0348977
0.0334105
0.0314092
0.0294911
0.0502717
0.0490331
0.0467703
0.0449751
0.0435271
0.0423357
0.0413296
0.0404015
0.0394751
0.0385237
0.0374623
0.0363292
0.0349354
0.0334683
0.0314865
0.0295801
0.0490545
0.048278
0.0463796
0.0448241
0.0434743
0.0423285
0.0413299
0.0403988
0.0394659
0.0385097
0.037449
0.0363208
0.0349406
0.03349
0.0315307
0.0296446
0.0483266
0.0476735
0.0460027
0.0446077
0.0433502
0.0422563
0.041277
0.0403506
0.0394149
0.0384535
0.0373902
0.0362607
0.0348881
0.033447
0.0315118
0.0296497
0.0478516
0.0472369
0.045712
0.0444173
0.0432279
0.0421729
0.0412091
0.0402855
0.0393464
0.0383788
0.0373122
0.0361815
0.0348196
0.033393
0.031496
0.0296696
0.0475502
0.0469429
0.0454953
0.0442556
0.0431075
0.0420758
0.0411197
0.0401939
0.0392473
0.0382675
0.0371902
0.0360471
0.0346859
0.0332598
0.031404
0.0296144
0.0473803
0.0467749
0.0453612
0.0441446
0.0430134
0.0419887
0.0410311
0.0400983
0.0391427
0.0381515
0.037067
0.0359175
0.0345681
0.0331559
0.0313603
0.0296211
0.0552514
0.0494295
0.0469281
0.0448232
0.0434392
0.0423132
0.0413738
0.0404936
0.0396047
0.0386874
0.0376383
0.0365179
0.0350628
0.0335488
0.0312994
0.0292466
0.0510679
0.0491473
0.0468365
0.0449538
0.0435566
0.0424098
0.0414448
0.0405486
0.0396501
0.0387298
0.0376822
0.0365684
0.0351237
0.0336285
0.0313945
0.029359
0.0490766
0.0483001
0.0464172
0.0448805
0.0435546
0.0424356
0.0414649
0.0405628
0.0396592
0.0387383
0.0376978
0.0365955
0.035171
0.0336932
0.0314643
0.0294174
0.0478759
0.0475663
0.046054
0.0447607
0.0435284
0.0424482
0.041478
0.0405676
0.0396539
0.0387264
0.0376861
0.0365891
0.0351792
0.0337188
0.0315077
0.029476
0.0471596
0.0469746
0.0456931
0.0445623
0.0434195
0.0423864
0.0414304
0.0405202
0.0396001
0.0386642
0.0376186
0.0365177
0.0351132
0.0336599
0.0314722
0.0294647
0.046692
0.0465447
0.04541
0.0443796
0.0433032
0.0423062
0.0413624
0.040452
0.0395257
0.0385812
0.037531
0.0364282
0.0350372
0.0336026
0.0314667
0.0295077
0.0463939
0.0462534
0.0451962
0.0442204
0.0431839
0.0422077
0.0412688
0.0403528
0.039415
0.0384533
0.0373871
0.0362649
0.0348705
0.0334307
0.0313517
0.0294418
0.0462245
0.0460855
0.045062
0.0441089
0.0430881
0.0421171
0.0411745
0.0402491
0.0392995
0.0383229
0.0372472
0.0361163
0.0347384
0.0333186
0.0313312
0.0294987
0.0545307
0.0488412
0.046566
0.0446403
0.0433881
0.0423632
0.041498
0.0406839
0.0398562
0.0390093
0.0380209
0.036982
0.0355331
0.0340631
0.0315175
0.0293163
0.0503534
0.0485543
0.0464808
0.0447808
0.0435159
0.0424702
0.0415778
0.0407468
0.0399102
0.0390618
0.0380773
0.0370492
0.0356157
0.0341747
0.0316434
0.0294533
0.0483715
0.0477182
0.0460836
0.0447352
0.0435391
0.0425168
0.0416133
0.040772
0.0399285
0.0390793
0.0381035
0.0370896
0.0356778
0.0342527
0.0317012
0.0294604
0.0471823
0.0469968
0.0457361
0.0446331
0.0435284
0.0425409
0.0416335
0.0407802
0.0399245
0.0390678
0.0380926
0.0370863
0.0356916
0.0342879
0.0317475
0.0295148
0.0464751
0.0464147
0.0453867
0.044447
0.0434297
0.0424856
0.0415879
0.0407304
0.0398641
0.0389951
0.0380108
0.036997
0.0356047
0.0342059
0.0316884
0.0294833
0.0460135
0.0459907
0.0451098
0.04427
0.0433174
0.0424062
0.0415173
0.0406558
0.0397794
0.0388981
0.0379065
0.0368893
0.0355136
0.0341414
0.0316969
0.0295663
0.0457179
0.0457018
0.0448982
0.0441122
0.0431976
0.0423042
0.0414165
0.0405444
0.03965
0.0387431
0.0377258
0.0366757
0.0352859
0.033895
0.0315274
0.0294673
0.0455481
0.0455333
0.044763
0.0439989
0.0430985
0.0422076
0.0413134
0.0404276
0.039516
0.038588
0.0375555
0.0364903
0.0351196
0.0337555
0.0315254
0.0295983
0.0540579
0.0484192
0.0463024
0.0445034
0.043362
0.0424278
0.0416376
0.0408955
0.0401375
0.0393712
0.0384526
0.0375052
0.036052
0.0346161
0.0316237
0.0291953
0.0498837
0.0481251
0.0462168
0.0446459
0.0434931
0.0425386
0.0417212
0.0409628
0.0401969
0.039431
0.0385188
0.0375878
0.0361555
0.0347609
0.031762
0.0292862
0.0479065
0.0472903
0.0458256
0.044609
0.0435253
0.0425933
0.0417627
0.0409925
0.0402195
0.0394539
0.0385525
0.0376397
0.0362289
0.0348441
0.0317649
0.0291347
0.0467239
0.0465747
0.0454843
0.0445133
0.0435197
0.0426207
0.0417838
0.0409995
0.040213
0.0394398
0.0385399
0.0376374
0.0362457
0.0348854
0.031795
0.0291407
0.0460222
0.0459978
0.04514
0.0443318
0.0434239
0.042566
0.0417355
0.0409432
0.0401423
0.0393527
0.0384392
0.0375247
0.0361296
0.0347703
0.0316965
0.02907
0.0455641
0.0455771
0.0448658
0.0441565
0.0433114
0.042484
0.0416594
0.0408595
0.0400447
0.0392391
0.0383156
0.0373971
0.0360233
0.0347048
0.0317365
0.0292293
0.0452695
0.0452891
0.0446545
0.0439978
0.0431887
0.0423762
0.0415489
0.040733
0.0398931
0.0390523
0.0380907
0.0371221
0.0357184
0.0343618
0.0315014
0.029105
0.0450984
0.0451193
0.0445175
0.0438816
0.0430849
0.0422724
0.0414355
0.0406013
0.0397389
0.0388702
0.0378881
0.0368997
0.0355238
0.034217
0.0315795
0.0294459
0.0537462
0.0481242
0.0461106
0.0444033
0.0433563
0.0425092
0.0418037
0.0411519
0.0404939
0.0398551
0.0390818
0.0383468
0.0370784
0.0359671
0.0328122
0.0304715
0.0495734
0.0478244
0.0460227
0.0445449
0.043488
0.0426213
0.0418895
0.041223
0.040559
0.0399237
0.0391605
0.0384497
0.0372092
0.0361598
0.0329727
0.0305066
0.0475966
0.0469867
0.0456301
0.0445078
0.0435211
0.0426769
0.0419316
0.0412535
0.0405831
0.0399504
0.0392016
0.0385171
0.0373044
0.0362787
0.0329681
0.0302662
0.0464168
0.0462728
0.04529
0.0444129
0.0435154
0.042703
0.0419496
0.0412565
0.040572
0.0399322
0.039187
0.0385199
0.0373339
0.0363522
0.0330197
0.0302698
0.0457172
0.0456976
0.0449469
0.0442316
0.0434184
0.0426448
0.0418948
0.0411902
0.0404872
0.0398266
0.0390623
0.038379
0.0371836
0.0362061
0.0328845
0.0301688
0.0452603
0.045278
0.0446731
0.0440555
0.043303
0.0425578
0.0418101
0.041094
0.0403725
0.0396913
0.0389124
0.0382238
0.0370524
0.0361364
0.0329542
0.0304236
0.0449651
0.0449893
0.0444604
0.0438939
0.0431751
0.0424419
0.041687
0.040948
0.0401919
0.0394616
0.0386244
0.0378558
0.0366139
0.0356084
0.0325185
0.0301356
0.0447916
0.0448173
0.0443204
0.0437736
0.043065
0.0423291
0.0415604
0.0407971
0.0400105
0.0392419
0.0383719
0.0375693
0.0363478
0.0354059
0.0326094
0.0307197
0.0535354
0.0479204
0.0459783
0.0443393
0.0433693
0.0425981
0.041971
0.0414038
0.0408386
0.0403116
0.0396584
0.0390755
0.0379085
0.0369235
0.0333457
0.0305119
0.049363
0.0476168
0.0458886
0.0444801
0.043501
0.0427108
0.0420584
0.0414776
0.0409079
0.0403863
0.039745
0.0391904
0.0380469
0.0371121
0.033337
0.029874
0.0473842
0.0467741
0.0454908
0.0444384
0.0435301
0.0427631
0.0420978
0.041506
0.0409307
0.0404136
0.0397887
0.0392657
0.0381453
0.0372232
0.0331827
0.0290463
0.0462045
0.0460594
0.0451488
0.0443406
0.0435209
0.0427847
0.0421104
0.0415028
0.0409127
0.0403891
0.0397685
0.0392679
0.0381749
0.0373023
0.0331893
0.0288386
0.0455044
0.0454834
0.0448039
0.0441562
0.0434194
0.0427201
0.0420465
0.0414244
0.0408117
0.0402628
0.0396166
0.0390944
0.0379807
0.0371104
0.032992
0.0286524
0.0450468
0.045063
0.0445284
0.0439769
0.0432993
0.042626
0.0419518
0.0413146
0.0406793
0.040106
0.0394411
0.0389152
0.0378302
0.0370524
0.0331283
0.0290448
0.0447495
0.0447723
0.0443129
0.0438111
0.0431652
0.0425008
0.0418147
0.0411486
0.0404695
0.0398343
0.039091
0.0384572
0.0372577
0.03634
0.0324922
0.0285523
0.044573
0.0445972
0.0441692
0.043686
0.0430483
0.0423786
0.0416744
0.0409789
0.0402628
0.0395815
0.0387977
0.038128
0.036961
0.0361787
0.0327808
0.0296774
0.0443457
0.0443688
0.0439809
0.0435329
0.0429345
0.0422983
0.0416222
0.0409481
0.0402475
0.0395769
0.0387977
0.0381275
0.0369482
0.0361457
0.0326895
0.0295026
0.044382
0.0444054
0.0439765
0.0434922
0.0428531
0.0421769
0.0414598
0.0407372
0.0399805
0.0392332
0.0383741
0.0375745
0.0363396
0.0353754
0.032518
0.030565
0.044541
0.0445583
0.0440418
0.043489
0.042788
0.0420576
0.0412908
0.0405133
0.0396928
0.0388539
0.0378878
0.0369041
0.0355139
0.0341822
0.0314851
0.0292941
0.0448748
0.0448561
0.0441831
0.0435159
0.0427308
0.0419433
0.0411355
0.040319
0.0394594
0.0385684
0.037557
0.0364997
0.0351174
0.0337302
0.0314486
0.0294706
0.0454601
0.0453171
0.0443994
0.043555
0.0426636
0.0418115
0.0409707
0.0401244
0.0392344
0.0383008
0.0372503
0.0361297
0.034743
0.0333022
0.0312704
0.0293919
0.0465532
0.045945
0.0446446
0.0435464
0.0425559
0.0416591
0.0408152
0.0399703
0.0390781
0.0381332
0.0370762
0.0359384
0.0345821
0.0331504
0.0313157
0.0295338
0.0484605
0.0467128
0.0449619
0.0435053
0.0424418
0.0415179
0.0406769
0.0398351
0.0389502
0.0380033
0.0369465
0.0358026
0.0344708
0.0330542
0.0313445
0.0296298
0.052635
0.0470241
0.0450714
0.0433952
0.0423517
0.0414583
0.040649
0.0398311
0.0389722
0.0380453
0.0370071
0.0358783
0.0345654
0.0331578
0.0314702
0.0297418
0.0442323
0.0442533
0.0438967
0.043483
0.042929
0.04234
0.0417144
0.0410939
0.040448
0.0398369
0.0391066
0.038478
0.0372612
0.0363157
0.0323679
0.0282983
0.0442641
0.0442856
0.0438874
0.0434364
0.0428397
0.0422083
0.0415378
0.0408637
0.040155
0.0394591
0.0386409
0.03788
0.0366192
0.0355824
0.0323918
0.0299081
0.0444181
0.0444336
0.0439476
0.0434274
0.0427672
0.0420781
0.0413542
0.0406193
0.0398389
0.0390406
0.0381024
0.0371423
0.0357184
0.0343272
0.0313746
0.0288928
0.0447472
0.0447269
0.0440839
0.0434485
0.0427036
0.0419556
0.0411871
0.0404089
0.0395843
0.0387275
0.0377389
0.0367006
0.035295
0.033873
0.0314291
0.0292958
0.0453284
0.0451839
0.0442959
0.0434827
0.0426299
0.0418159
0.0410116
0.0401995
0.0393397
0.0384341
0.0374011
0.0362935
0.0348878
0.0334208
0.0312795
0.0293066
0.0464184
0.0458092
0.0445385
0.0434711
0.0425183
0.0416583
0.0408494
0.0400365
0.039172
0.0382519
0.0372105
0.0360839
0.0347148
0.0332645
0.0313563
0.0295099
0.0483247
0.046577
0.044856
0.0434296
0.0424025
0.0415128
0.0407054
0.0398949
0.0390354
0.0381112
0.0370687
0.0359347
0.034594
0.0331633
0.0314019
0.0296386
0.0524993
0.0468903
0.0449674
0.0433216
0.0423147
0.0414564
0.0406802
0.0398937
0.0390626
0.0381599
0.0371383
0.0360219
0.0347039
0.0332853
0.0315509
0.0297736
0.0441538
0.0441733
0.0438393
0.0434524
0.0429352
0.0423883
0.0418102
0.0412443
0.0406606
0.0401262
0.0394838
0.0389703
0.03786
0.0370399
0.0329412
0.0286253
0.0441813
0.0442016
0.0438255
0.0434002
0.0428381
0.042246
0.041619
0.0409932
0.0403376
0.039705
0.0389542
0.0382794
0.037081
0.0361193
0.0327709
0.0300681
0.0443311
0.0443453
0.043881
0.0433859
0.0427586
0.0421054
0.0414207
0.0407275
0.0399906
0.0392411
0.0383492
0.0374436
0.0360415
0.0346739
0.0315622
0.0289209
0.0446561
0.0446346
0.0440129
0.0434017
0.042689
0.0419746
0.0412416
0.0405003
0.0397123
0.0388946
0.0379404
0.0369396
0.0355428
0.0341288
0.0315722
0.029334
0.0452339
0.0450883
0.0442213
0.0434316
0.0426093
0.0418274
0.0410555
0.0402756
0.0394467
0.0385722
0.0375642
0.0364812
0.0350761
0.0336069
0.0313847
0.0293387
0.0463214
0.0457114
0.0444616
0.0434173
0.0424942
0.0416649
0.0408867
0.0401033
0.0392662
0.0383726
0.0373515
0.0362431
0.034873
0.0334175
0.0314519
0.0295508
0.0482269
0.0464792
0.0447792
0.0433755
0.0423769
0.0415156
0.0407372
0.0399548
0.0391204
0.0382196
0.0371944
0.0360748
0.0347327
0.0332961
0.0314926
0.0296863
0.0524016
0.0467939
0.0448921
0.0432693
0.0422912
0.0414613
0.0407143
0.0399569
0.0391519
0.0382738
0.037271
0.0361705
0.0348534
0.03343
0.031657
0.0298356
0.0440997
0.0441181
0.0438003
0.0434333
0.0429443
0.0424297
0.0418876
0.0413607
0.0408171
0.0403232
0.0397127
0.0392167
0.038075
0.0371524
0.0327599
0.0280377
0.0441237
0.0441428
0.0437826
0.0433764
0.0428408
0.0422792
0.0416853
0.0410947
0.0404744
0.0398771
0.0391523
0.0384936
0.0372669
0.0362335
0.0326639
0.0296833
0.0442698
0.044283
0.0438342
0.0433579
0.0427556
0.0421303
0.0414758
0.0408139
0.0401069
0.0393866
0.0385141
0.0376196
0.0361899
0.0347685
0.0314879
0.0286657
0.0445915
0.044569
0.0439625
0.0433693
0.0426811
0.041993
0.0412878
0.0405745
0.0398129
0.0390203
0.0380823
0.0370914
0.0356744
0.0342247
0.0315536
0.0292014
0.0451665
0.0450202
0.044168
0.0433959
0.0425968
0.0418401
0.0410938
0.0403389
0.0395331
0.0386799
0.0376854
0.0366106
0.0351909
0.0336971
0.0313966
0.0292761
0.0462521
0.0456415
0.0444065
0.0433795
0.0424789
0.0416739
0.0409201
0.04016
0.0393442
0.03847
0.0374615
0.0363611
0.0349813
0.0335085
0.0314884
0.0295336
0.048157
0.0464092
0.0447243
0.0433374
0.0423606
0.0415216
0.0407665
0.0400067
0.0391923
0.0383096
0.0372964
0.0361847
0.0348363
0.0333873
0.0315442
0.0296966
0.0523317
0.046725
0.0448384
0.0432327
0.0422766
0.0414691
0.0407457
0.0400121
0.0392282
0.0383694
0.0373804
0.0362899
0.0349692
0.0335357
0.031726
0.0298631
0.0440645
0.044082
0.0437763
0.0434248
0.0429583
0.0424704
0.0419593
0.0414676
0.0409629
0.0405125
0.0399462
0.0394931
0.0383726
0.0374342
0.0328848
0.0278767
0.0440854
0.0441038
0.0437553
0.0433637
0.0428491
0.0423124
0.0417468
0.0411876
0.0406009
0.0400403
0.0393502
0.0387246
0.0375061
0.0364562
0.0327525
0.0295818
0.0442285
0.044241
0.0438036
0.0433415
0.0427588
0.0421563
0.0415273
0.0408928
0.0402142
0.0395236
0.0386768
0.0378056
0.0363748
0.0349356
0.0315454
0.0285915
0.0445475
0.0445244
0.0439288
0.0433493
0.0426802
0.0420133
0.0413312
0.0406422
0.0399049
0.039137
0.038219
0.0372454
0.0358252
0.0343611
0.0316117
0.0291723
0.0451203
0.0449734
0.044132
0.043373
0.0425918
0.0418552
0.04113
0.0403966
0.0396117
0.038779
0.0378004
0.0367385
0.0353153
0.0338102
0.0314544
0.0292746
0.0462043
0.0455933
0.044369
0.0433548
0.0424715
0.0416858
0.0409519
0.0402114
0.0394146
0.0385584
0.0375636
0.0364739
0.0350915
0.0336097
0.0315495
0.0295509
0.0481085
0.0463608
0.0446867
0.0433124
0.0423522
0.0415308
0.0407945
0.0400536
0.0392568
0.0383905
0.0373896
0.0362874
0.0349374
0.0334813
0.0316084
0.0297265
0.0522834
0.0466774
0.0448018
0.0432088
0.0422696
0.0414796
0.0407754
0.0400616
0.0392959
0.0384546
0.0374789
0.036399
0.0350783
0.0336388
0.0318011
0.0299035
0.0440421
0.0440589
0.0437615
0.0434209
0.0429701
0.0425006
0.0420105
0.0415413
0.0410595
0.0406307
0.0400799
0.039631
0.0384881
0.0374885
0.0327887
0.0275645
0.0440606
0.0440784
0.0437379
0.0433565
0.0428568
0.0423374
0.041791
0.0412523
0.0406858
0.0401442
0.0394667
0.0388449
0.0376055
0.0365084
0.0326864
0.0293734
0.0442014
0.0442135
0.0437839
0.0433316
0.0427628
0.0421762
0.0415648
0.0409486
0.0402876
0.0396132
0.0387766
0.0379085
0.0364597
0.0349851
0.0315043
0.02845
0.0445184
0.0444948
0.0439068
0.0433369
0.0426812
0.0420292
0.0413632
0.0406908
0.0399691
0.0392154
0.0383063
0.0373361
0.0359024
0.0344133
0.0316
0.0290932
0.0450896
0.0449422
0.0441082
0.0433584
0.0425898
0.0418675
0.0411572
0.0404387
0.0396677
0.0388477
0.0378769
0.0368188
0.0353861
0.033864
0.0314635
0.0292373
0.0461724
0.0455611
0.0443441
0.043339
0.0424678
0.0416959
0.0409763
0.0402497
0.0394658
0.0386214
0.0376342
0.0365487
0.03516
0.0336661
0.0315735
0.0295403
0.0480762
0.0463285
0.0446617
0.0432963
0.0423478
0.0415391
0.0408164
0.0400891
0.0393045
0.0384495
0.0374561
0.0363585
0.0350047
0.0335399
0.0316427
0.0297335
0.0522511
0.0466457
0.0447776
0.0431936
0.0422664
0.041489
0.0407986
0.0400993
0.0393466
0.0385172
0.0375502
0.0364761
0.035153
0.033706
0.0318455
0.0299204
0.0440293
0.0440458
0.0437538
0.0434205
0.0429803
0.0425237
0.0420484
0.041596
0.0411321
0.0407218
0.0401877
0.0397506
0.0386056
0.0375807
0.0327969
0.0274286
0.0440462
0.0440637
0.0437284
0.0433538
0.042864
0.0423566
0.0418238
0.0413001
0.0407492
0.0402235
0.0395594
0.0389469
0.0377028
0.0365849
0.0326943
0.0292885
0.0441855
0.0441973
0.0437728
0.043327
0.0427674
0.0421918
0.0415927
0.0409898
0.0403422
0.0396812
0.038855
0.0379942
0.03654
0.035049
0.0315146
0.0283941
0.0445011
0.0444773
0.0438941
0.0433305
0.0426837
0.0420418
0.0413871
0.0407265
0.0400165
0.0392742
0.0383736
0.0374093
0.0359711
0.0344698
0.0316178
0.0290661
0.0450711
0.0449236
0.0440943
0.0433504
0.0425903
0.0418776
0.0411776
0.0404696
0.0397089
0.0388986
0.0379351
0.0368819
0.035446
0.0339153
0.0314875
0.0292301
0.0461531
0.0455417
0.0443294
0.0433301
0.042467
0.0417044
0.0409944
0.0402776
0.0395031
0.0386676
0.0376869
0.0366059
0.0352151
0.0337148
0.0316021
0.0295454
0.0480567
0.046309
0.0446469
0.0432873
0.0423465
0.0415462
0.0408327
0.0401148
0.0393391
0.0384923
0.0375051
0.0364118
0.0350568
0.0335873
0.0316747
0.0297469
0.0522316
0.0466266
0.0447633
0.0431851
0.0422657
0.0414967
0.0408158
0.0401264
0.0393829
0.0385623
0.0376019
0.0365328
0.0352093
0.0337581
0.031883
0.0299391
0.0440235