/*--------------------------------*- C++ -*----------------------------------*\
| =========                 |                                                 |
| \\      /  F ield         | OpenFOAM: The Open Source CFD Toolbox           |
|  \\    /   O peration     | Version:  v1912                                 |
|   \\  /    A nd           | Website:  www.openfoam.com                      |
|    \\/     M anipulation  |                                                 |
\*---------------------------------------------------------------------------*/
FoamFile
{
    version     2.0;
    format      ascii;
    class       volScalarField;
    location    "0.67/fluid";
    object      T;
}
// * * * * * * * * * * * * * * * * * * * * * * * * * * * * * * * * * * * * * //

dimensions      [0 0 0 1 0 0 0];


internalField   nonuniform List<scalar> 
14592
(
273.267
273.812
274.382
274.983
275.623
276.309
277.051
277.857
278.738
279.706
280.774
281.961
283.286
284.784
286.514
288.63
273.265
273.807
274.373
274.97
275.606
276.288
277.026
277.827
278.703
279.665
280.728
281.909
283.23
284.724
286.446
288.514
273.263
273.799
274.359
274.951
275.58
276.255
276.984
277.776
278.642
279.594
280.646
281.816
283.128
284.616
286.337
288.412
273.26
273.79
274.343
274.926
275.546
276.212
276.929
277.709
278.561
279.496
280.531
281.683
282.979
284.458
286.183
288.288
273.256
273.778
274.323
274.897
275.507
276.16
276.864
277.627
278.46
279.374
280.384
281.51
282.78
284.239
285.964
288.11
273.252
273.766
274.301
274.865
275.462
276.101
276.788
277.532
278.342
279.228
280.206
281.295
282.525
283.946
285.648
287.827
273.248
273.752
274.277
274.829
275.414
276.037
276.706
277.427
278.209
279.063
280
281.039
282.21
283.56
285.192
287.342
273.243
273.737
274.252
274.792
275.362
275.969
276.617
277.314
278.067
278.882
279.772
280.749
281.838
283.078
284.55
286.471
273.272
273.829
274.411
275.026
275.682
276.388
277.154
277.99
278.909
279.924
281.051
282.312
283.731
285.347
287.224
289.484
273.271
273.823
274.401
275.013
275.665
276.367
277.128
277.96
278.873
279.882
281.004
282.259
283.674
285.288
287.159
289.39
273.268
273.815
274.388
274.992
275.638
276.332
277.085
277.907
278.81
279.808
280.918
282.162
283.568
285.178
287.054
289.301
273.265
273.805
274.37
274.967
275.603
276.287
277.029
277.837
278.725
279.706
280.798
282.024
283.415
285.017
286.902
289.191
273.261
273.794
274.35
274.937
275.562
276.234
276.96
277.751
278.619
279.577
280.643
281.842
283.207
284.793
286.684
289.027
273.257
273.781
274.327
274.903
275.516
276.172
276.881
277.652
278.495
279.424
280.456
281.615
282.939
284.486
286.362
288.757
273.252
273.766
274.302
274.866
275.465
276.105
276.795
277.541
278.356
279.249
280.238
281.344
282.603
284.077
285.881
288.267
273.247
273.751
274.276
274.827
275.411
276.034
276.702
277.423
278.205
279.058
279.995
281.034
282.204
283.555
285.187
287.338
273.277
273.844
274.438
275.066
275.738
276.462
277.25
278.113
279.064
280.12
281.296
282.613
284.098
285.782
287.708
289.933
273.276
273.839
274.428
275.052
275.72
276.44
277.223
278.081
279.027
280.076
281.247
282.559
284.04
285.722
287.646
289.854
273.273
273.83
274.414
275.032
275.692
276.404
277.179
278.027
278.962
280
281.158
282.46
283.932
285.613
287.544
289.772
273.27
273.82
274.396
275.005
275.656
276.358
277.12
277.954
278.874
279.894
281.033
282.317
283.775
285.45
287.394
289.668
273.266
273.808
274.375
274.974
275.614
276.302
277.049
277.865
278.764
279.76
280.873
282.128
283.561
285.22
287.175
289.509
273.261
273.795
274.352
274.939
275.566
276.239
276.967
277.762
278.635
279.6
280.677
281.892
283.282
284.904
286.848
289.243
273.257
273.78
274.326
274.901
275.513
276.169
276.877
277.647
278.489
279.418
280.449
281.608
282.931
284.479
286.355
288.753
273.252
273.764
274.299
274.861
275.457
276.095
276.781
277.523
278.332
279.217
280.194
281.282
282.512
283.933
285.637
287.819
273.282
273.858
274.462
275.102
275.787
276.527
277.334
278.22
279.199
280.287
281.5
282.859
284.385
286.1
288.026
290.179
273.28
273.852
274.452
275.088
275.769
276.505
277.307
278.188
279.161
280.243
281.45
282.804
284.326
286.04
287.967
290.106
273.278
273.844
274.437
275.066
275.74
276.468
277.261
278.132
279.094
280.164
281.359
282.702
284.217
285.93
287.866
290.028
273.274
273.833
274.419
275.039
275.703
276.42
277.201
278.057
279.003
280.055
281.231
282.556
284.056
285.766
287.716
289.926
273.27
273.821
274.398
275.008
275.66
276.363
277.128
277.966
278.89
279.917
281.066
282.362
283.837
285.533
287.496
289.769
273.266
273.807
274.373
274.972
275.61
276.297
277.043
277.859
278.756
279.752
280.864
282.119
283.551
285.211
287.166
289.504
273.261
273.792
274.347
274.932
275.556
276.225
276.95
277.74
278.606
279.562
280.628
281.825
283.19
284.776
286.669
289.017
273.255
273.776
274.319
274.891
275.498
276.149
276.85
277.612
278.442
279.354
280.363
281.488
282.758
284.217
285.944
288.096
273.286
273.87
274.482
275.132
275.828
276.582
277.404
278.309
279.31
280.422
281.663
283.049
284.598
286.324
288.234
290.322
273.284
273.864
274.472
275.117
275.81
276.559
277.377
278.276
279.271
280.377
281.612
282.993
284.539
286.265
288.175
290.251
273.281
273.855
274.457
275.096
275.78
276.521
277.33
278.219
279.203
280.297
281.519
282.89
284.429
286.154
288.075
290.175
273.278
273.845
274.439
275.068
275.743
276.472
277.268
278.142
279.109
280.185
281.389
282.741
284.266
285.988
287.926
290.074
273.274
273.832
274.417
275.036
275.698
276.414
277.193
278.048
278.993
280.044
281.22
282.544
284.044
285.753
287.705
289.917
273.269
273.818
274.392
274.999
275.647
276.347
277.107
277.939
278.856
279.875
281.013
282.295
283.753
285.427
287.374
289.654
273.264
273.802
274.365
274.958
275.592
276.273
277.011
277.817
278.702
279.68
280.771
281.995
283.385
284.988
286.876
289.172
273.259
273.786
274.336
274.916
275.533
276.194
276.909
277.685
278.534
279.467
280.499
281.649
282.944
284.423
286.151
288.264
273.289
273.879
274.498
275.155
275.86
276.624
277.459
278.377
279.394
280.524
281.783
283.187
284.748
286.475
288.366
290.407
273.287
273.873
274.488
275.141
275.841
276.601
277.43
278.344
279.354
280.478
281.732
283.13
284.689
286.416
288.308
290.338
273.284
273.864
274.473
275.118
275.812
276.563
277.383
278.286
279.285
280.397
281.638
283.026
284.578
286.305
288.208
290.263
273.281
273.853
274.454
275.091
275.773
276.513
277.32
278.208
279.19
280.283
281.505
282.875
284.413
286.138
288.059
290.162
273.276
273.841
274.431
275.057
275.728
276.453
277.244
278.112
279.072
280.14
281.334
282.675
284.189
285.902
287.838
290.006
273.272
273.826
274.406
275.02
275.676
276.385
277.156
278.001
278.933
279.968
281.124
282.423
283.895
285.574
287.507
289.743
273.267
273.81
274.378
274.979
275.62
276.31
277.058
277.876
278.775
279.77
280.877
282.119
283.523
285.132
287.009
289.265
273.261
273.793
274.349
274.936
275.56
276.23
276.954
277.742
278.604
279.552
280.6
281.768
283.078
284.564
286.286
288.368
273.291
273.885
274.509
275.171
275.882
276.653
277.495
278.423
279.45
280.592
281.862
283.276
284.843
286.568
288.445
290.456
273.289
273.879
274.498
275.156
275.863
276.629
277.467
278.389
279.41
280.546
281.81
283.219
284.784
286.509
288.387
290.387
273.286
273.87
274.483
275.134
275.833
276.591
277.419
278.331
279.34
280.463
281.716
283.114
284.672
286.398
288.287
290.313
273.283
273.859
274.464
275.106
275.794
276.54
277.355
278.252
279.245
280.349
281.582
282.962
284.507
286.231
288.138
290.212
273.278
273.846
274.441
275.072
275.749
276.48
277.278
278.155
279.125
280.204
281.409
282.761
284.281
285.993
287.917
290.056
273.274
273.832
274.416
275.034
275.696
276.411
277.189
278.042
278.984
280.03
281.197
282.506
283.985
285.665
287.586
289.795
273.268
273.816
274.388
274.993
275.639
276.335
277.09
277.916
278.824
279.829
280.947
282.199
283.612
285.222
287.089
289.319
273.263
273.799
274.358
274.949
275.578
276.254
276.985
277.78
278.651
279.609
280.668
281.845
283.163
284.653
286.369
288.43
273.292
273.888
274.514
275.179
275.893
276.667
277.514
278.446
279.479
280.625
281.901
283.319
284.889
286.612
288.481
290.479
273.29
273.882
274.504
275.165
275.874
276.644
277.485
278.412
279.439
280.579
281.849
283.263
284.829
286.553
288.424
290.41
273.287
273.873
274.489
275.142
275.844
276.605
277.437
278.354
279.368
280.497
281.755
283.157
284.718
286.442
288.324
290.335
273.284
273.862
274.469
275.114
275.805
276.554
277.373
278.274
279.272
280.382
281.62
283.005
284.552
286.275
288.175
290.235
273.279
273.849
274.447
275.08
275.759
276.494
277.296
278.177
279.152
280.236
281.446
282.802
284.326
286.037
287.954
290.079
273.274
273.835
274.421
275.042
275.706
276.424
277.206
278.063
279.01
280.061
281.233
282.547
284.029
285.708
287.623
289.818
273.269
273.818
274.393
275
275.649
276.347
277.106
277.936
278.849
279.859
280.982
282.239
283.654
285.265
287.126
289.344
273.264
273.801
274.363
274.956
275.588
276.266
277
277.8
278.675
279.637
280.701
281.883
283.205
284.696
286.408
288.459
273.238
273.722
274.224
274.746
275.29
275.858
276.452
277.07
277.712
278.372
279.043
279.714
280.369
280.989
281.549
282.022
273.236
273.718
274.217
274.737
275.279
275.844
276.435
277.051
277.689
278.346
279.013
279.681
280.333
280.95
281.507
281.978
273.235
273.712
274.207
274.723
275.26
275.821
276.406
277.016
277.649
278.299
278.96
279.62
280.266
280.877
281.429
281.896
273.232
273.705
274.195
274.704
275.235
275.789
276.367
276.969
277.593
278.234
278.885
279.535
280.171
280.772
281.316
281.777
273.229
273.696
274.18
274.682
275.205
275.751
276.32
276.912
277.525
278.153
278.792
279.429
280.051
280.639
281.172
281.623
273.226
273.686
274.163
274.657
275.172
275.708
276.267
276.847
277.446
278.06
278.683
279.304
279.909
280.482
280.999
281.439
273.223
273.675
274.144
274.63
275.135
275.661
276.208
276.775
277.359
277.957
278.562
279.164
279.75
280.304
280.804
281.228
273.219
273.664
274.125
274.602
275.097
275.612
276.146
276.699
277.268
277.848
278.434
279.015
279.58
280.111
280.591
280.998
273.238
273.724
274.227
274.751
275.299
275.871
276.47
277.095
277.745
278.415
279.1
279.788
280.463
281.106
281.689
282.185
273.237
273.72
274.22
274.742
275.286
275.856
276.452
277.074
277.72
278.388
279.069
279.753
280.425
281.065
281.646
282.14
273.235
273.714
274.21
274.727
275.266
275.831
276.421
277.038
277.678
278.339
279.013
279.69
280.355
280.988
281.564
282.054
273.233
273.706
274.197
274.708
275.241
275.799
276.382
276.99
277.621
278.272
278.936
279.603
280.257
280.881
281.448
281.931
273.23
273.697
274.182
274.685
275.211
275.76
276.334
276.931
277.551
278.19
278.841
279.493
280.134
280.744
281.299
281.773
273.227
273.687
274.164
274.66
275.177
275.717
276.279
276.865
277.471
278.095
278.729
279.365
279.988
280.581
281.12
281.581
273.223
273.676
274.146
274.633
275.14
275.669
276.22
276.792
277.383
277.99
278.606
279.222
279.824
280.396
280.916
281.36
273.219
273.665
274.126
274.604
275.102
275.619
276.157
276.715
277.29
277.878
278.474
279.068
279.647
280.196
280.694
281.119
273.24
273.729
274.236
274.765
275.319
275.899
276.508
277.146
277.813
278.505
279.217
279.938
280.654
281.343
281.976
282.519
273.239
273.725
274.229
274.755
275.306
275.883
276.489
277.124
277.787
278.475
279.183
279.901
280.613
281.299
281.93
282.471
273.237
273.718
274.218
274.739
275.285
275.857
276.457
277.086
277.742
278.424
279.124
279.834
280.539
281.219
281.844
282.381
273.234
273.711
274.205
274.72
275.259
275.823
276.416
277.036
277.683
278.354
279.044
279.743
280.437
281.105
281.722
282.252
273.231
273.702
274.189
274.697
275.228
275.784
276.366
276.976
277.611
278.269
278.944
279.628
280.307
280.961
281.564
282.083
273.228
273.691
274.172
274.671
275.193
275.739
276.31
276.907
277.528
278.17
278.828
279.493
280.152
280.787
281.372
281.876
273.224
273.68
274.152
274.643
275.155
275.69
276.249
276.831
277.436
278.06
278.698
279.342
279.977
280.589
281.151
281.636
273.221
273.669
274.133
274.614
275.116
275.639
276.185
276.752
277.339
277.944
278.56
279.178
279.788
280.372
280.908
281.369
273.243
273.738
274.251
274.788
275.351
275.943
276.567
277.224
277.915
278.639
279.39
280.162
280.939
281.7
282.413
283.034
273.242
273.733
274.244
274.777
275.337
275.926
276.546
277.2
277.888
278.607
279.355
280.122
280.896
281.654
282.364
282.984
273.239
273.727
274.232
274.761
275.315
275.898
276.513
277.16
277.841
278.553
279.292
280.052
280.817
281.569
282.274
282.889
273.237
273.719
274.219
274.741
275.288
275.864
276.47
277.108
277.778
278.48
279.207
279.954
280.708
281.447
282.143
282.751
273.234
273.709
274.202
274.717
275.256
275.823
276.418
277.045
277.703
278.389
279.102
279.832
280.568
281.291
281.972
282.568
273.23
273.699
274.184
274.691
275.22
275.776
276.36
276.973
277.615
278.285
278.978
279.687
280.402
281.102
281.761
282.34
273.227
273.687
274.165
274.662
275.181
275.726
276.296
276.894
277.519
278.169
278.839
279.524
280.211
280.883
281.514
282.068
273.223
273.675
274.144
274.632
275.141
275.673
276.229
276.811
277.417
278.045
278.691
279.347
280.002
280.641
281.238
281.76
273.247
273.749
274.272
274.818
275.393
276
276.643
277.325
278.048
278.811
279.615
280.452
281.312
282.174
283.004
283.745
273.245
273.744
274.264
274.807
275.379
275.983
276.622
277.3
278.019
278.778
279.577
280.41
281.266
282.125
282.952
283.692
273.243
273.738
274.252
274.79
275.356
275.954
276.587
277.258
277.969
278.721
279.511
280.335
281.183
282.034
282.856
283.592
273.24
273.73
274.238
274.769
275.328
275.918
276.542
277.203
277.903
278.643
279.42
280.231
281.065
281.904
282.715
283.444
273.237
273.72
274.221
274.745
275.295
275.875
276.488
277.137
277.823
278.547
279.307
280.099
280.914
281.735
282.529
283.246
273.234
273.709
274.202
274.717
275.257
275.826
276.427
277.061
277.731
278.435
279.174
279.942
280.731
281.525
282.295
282.991
273.23
273.697
274.182
274.687
275.217
275.774
276.36
276.978
277.628
278.311
279.024
279.763
280.52
281.279
282.013
282.676
273.226
273.685
274.161
274.656
275.174
275.718
276.29
276.89
277.519
278.178
278.862
279.568
280.286
281.002
281.69
282.308
273.251
273.763
274.296
274.855
275.444
276.069
276.735
277.445
278.204
279.015
279.88
280.797
281.76
282.754
283.745
284.667
273.25
273.758
274.288
274.843
275.429
276.051
276.712
277.419
278.173
278.98
279.84
280.752
281.711
282.701
283.69
284.611
273.247
273.751
274.276
274.826
275.406
276.021
276.676
277.375
278.121
278.919
279.769
280.672
281.622
282.605
283.588
284.507
273.245
273.743
274.261
274.804
275.376
275.983
276.628
277.317
278.052
278.836
279.673
280.561
281.496
282.466
283.439
284.352
273.241
273.733
274.243
274.778
275.342
275.938
276.572
277.247
277.967
278.734
279.551
280.418
281.332
282.281
283.238
284.139
273.238
273.721
274.224
274.75
275.303
275.887
276.507
277.166
277.868
278.614
279.407
280.247
281.131
282.05
282.977
283.855
273.234
273.709
274.203
274.718
275.26
275.832
276.437
277.078
277.759
278.48
279.244
280.05
280.895
281.77
282.651
283.488
273.23
273.696
274.181
274.686
275.216
275.773
276.362
276.984
277.642
278.336
279.067
279.833
280.63
281.449
282.266
283.034
273.256
273.779
274.323
274.896
275.501
276.146
276.836
277.578
278.377
279.24
280.172
281.178
282.261
283.414
284.619
285.815
273.255
273.774
274.315
274.884
275.486
276.127
276.813
277.55
278.345
279.203
280.13
281.132
282.209
283.359
284.562
285.753
273.252
273.767
274.302
274.865
275.461
276.096
276.775
277.504
278.29
279.138
280.056
281.047
282.115
283.258
284.456
285.645
273.25
273.758
274.287
274.843
275.43
276.056
276.725
277.443
278.216
279.051
279.952
280.928
281.98
283.11
284.3
285.49
273.246
273.747
274.269
274.816
275.394
276.009
276.665
277.369
278.126
278.941
279.822
280.774
281.804
282.912
284.086
285.271
273.242
273.735
274.248
274.786
275.353
275.955
276.597
277.284
278.021
278.813
279.667
280.588
281.584
282.657
283.799
284.964
273.238
273.723
274.226
274.754
275.309
275.897
276.523
277.19
277.904
278.668
279.489
280.371
281.32
282.34
283.426
284.538
273.234
273.709
274.203
274.719
275.262
275.836
276.444
277.09
277.778
278.512
279.295
280.13
281.02
281.967
282.961
283.968
273.261
273.795
274.352
274.939
275.562
276.227
276.943
277.717
278.558
279.474
280.476
281.575
282.783
284.113
285.58
287.178
273.26
273.79
274.344
274.927
275.546
276.207
276.919
277.688
278.524
279.435
280.432
281.526
282.729
284.056
285.517
287.099
273.258
273.783
274.331
274.908
275.52
276.175
276.879
277.64
278.466
279.367
280.353
281.436
282.63
283.95
285.409
286.991
273.255
273.774
274.315
274.884
275.488
276.133
276.827
277.576
278.389
279.274
280.244
281.31
282.488
283.796
285.252
286.845
273.251
273.763
274.296
274.856
275.45
276.084
276.764
277.498
278.293
279.158
280.105
281.146
282.299
283.586
285.031
286.637
273.247
273.75
274.275
274.825
275.407
276.028
276.692
277.408
278.181
279.021
279.938
280.945
282.06
283.31
284.725
286.327
273.243
273.737
274.252
274.791
275.361
275.966
276.614
277.308
278.056
278.866
279.746
280.708
281.77
282.956
284.304
285.851
273.238
273.723
274.227
274.755
275.312
275.902
276.53
277.202
277.922
278.697
279.534
280.442
281.433
282.526
283.75
285.133
273.238
273.723
274.226
274.754
275.31
275.9
276.527
277.199
277.919
278.694
279.53
280.438
281.429
282.522
283.746
285.129
273.233
273.708
274.202
274.717
275.259
275.832
276.439
277.085
277.772
278.506
279.288
280.122
281.013
281.959
282.954
283.961
273.229
273.695
274.178
274.683
275.212
275.768
276.356
276.977
277.634
278.327
279.057
279.823
280.62
281.439
282.256
283.025
273.225
273.683
274.158
274.652
275.17
275.712
276.282
276.881
277.51
278.167
278.851
279.556
280.274
280.99
281.678
282.297
273.222
273.674
274.141
274.628
275.135
275.666
276.221
276.802
277.406
278.033
278.678
279.334
279.989
280.628
281.225
281.748
273.22
273.667
274.129
274.61
275.11
275.632
276.176
276.742
277.328
277.931
278.546
279.164
279.774
280.357
280.894
281.356
273.219
273.663
274.123
274.6
275.096
275.612
276.148
276.704
277.278
277.865
278.46
279.053
279.632
280.181
280.68
281.106
273.218
273.662
274.121
274.597
275.091
275.604
276.137
276.688
277.255
277.835
278.419
279
279.564
280.096
280.577
280.985
273.242
273.736
274.249
274.788
275.357
275.962
276.608
277.301
278.049
278.857
279.737
280.698
281.76
282.947
284.295
285.843
273.238
273.721
274.224
274.75
275.304
275.891
276.515
277.181
277.893
278.657
279.477
280.358
281.307
282.327
283.413
284.526
273.233
273.707
274.2
274.714
275.254
275.824
276.428
277.067
277.746
278.467
279.23
280.035
280.88
281.754
282.636
283.474
273.229
273.695
274.178
274.682
275.21
275.765
276.35
276.966
277.615
278.296
279.008
279.746
280.503
281.262
281.996
282.661
273.226
273.685
274.161
274.656
275.174
275.717
276.285
276.881
277.505
278.153
278.822
279.506
280.192
280.865
281.497
282.052
273.224
273.678
274.148
274.638
275.148
275.681
276.237
276.818
277.421
278.044
278.68
279.323
279.958
280.569
281.133
281.619
273.222
273.674
274.141
274.627
275.132
275.659
276.208
276.778
277.367
277.972
278.587
279.202
279.804
280.377
280.898
281.343
273.222
273.673
274.14
274.624
275.127
275.651
276.196
276.76
277.343
277.94
278.543
279.145
279.73
280.284
280.785
281.211
273.246
273.748
274.271
274.82
275.401
276.02
276.682
277.396
278.168
279.006
279.922
280.928
282.043
283.293
284.71
286.314
273.241
273.733
274.244
274.78
275.346
275.946
276.585
277.27
278.005
278.795
279.648
280.568
281.563
282.636
283.78
284.947
273.237
273.719
274.219
274.743
275.294
275.876
276.494
277.151
277.85
278.595
279.386
280.225
281.109
282.027
282.955
283.835
273.233
273.706
274.197
274.71
275.248
275.815
276.413
277.045
277.712
278.415
279.152
279.919
280.707
281.501
282.272
282.969
273.229
273.696
274.179
274.683
275.21
275.764
276.345
276.956
277.596
278.263
278.955
279.663
280.377
281.077
281.737
282.318
273.227
273.688
274.166
274.664
275.183
275.726
276.295
276.889
277.508
278.148
278.804
279.468
280.127
280.762
281.348
281.854
273.225
273.684
274.159
274.652
275.167
275.704
276.264
276.846
277.451
278.072
278.705
279.34
279.963
280.556
281.096
281.559
273.225
273.683
274.157
274.649
275.161
275.695
276.251
276.828
277.425
278.037
278.659
279.279
279.884
280.456
280.975
281.417
273.25
273.76
274.291
274.849
275.44
276.071
276.748
277.479
278.272
279.135
280.08
281.12
282.273
283.56
285.007
286.616
273.245
273.744
274.263
274.807
275.383
275.994
276.648
277.349
278.103
278.916
279.795
280.746
281.774
282.883
284.058
285.245
273.24
273.729
274.237
274.769
275.329
275.923
276.553
277.225
277.942
278.707
279.522
280.388
281.301
282.25
283.207
284.111
273.236
273.716
274.214
274.735
275.282
275.859
276.469
277.114
277.798
278.519
279.277
280.068
280.882
281.702
282.498
283.217
273.232
273.705
274.196
274.707
275.243
275.806
276.399
277.022
277.677
278.361
279.071
279.8
280.536
281.259
281.94
282.539
273.23
273.697
274.182
274.687
275.214
275.767
276.346
276.952
277.585
278.24
278.913
279.596
280.274
280.928
281.532
282.054
273.228
273.693
274.174
274.675
275.198
275.743
276.314
276.908
277.525
278.161
278.81
279.461
280.101
280.712
281.269
281.745
273.228
273.692
274.172
274.672
275.192
275.734
276.3
276.889
277.498
278.124
278.761
279.397
280.018
280.607
281.141
281.596
273.253
273.769
274.307
274.873
275.473
276.114
276.804
277.549
278.359
279.241
280.208
281.272
282.449
283.757
285.214
286.812
273.248
273.753
274.279
274.831
275.414
276.036
276.7
277.415
278.184
279.015
279.915
280.888
281.94
283.069
284.26
285.452
273.243
273.738
274.252
274.791
275.359
275.962
276.603
277.287
278.018
278.8
279.633
280.52
281.454
282.423
283.398
284.313
273.239
273.724
274.229
274.756
275.311
275.896
276.516
277.173
277.869
278.606
279.38
280.189
281.022
281.862
282.674
283.406
273.235
273.713
274.21
274.727
275.271
275.842
276.444
277.078
277.744
278.442
279.167
279.913
280.665
281.405
282.102
282.713
273.232
273.705
274.196
274.707
275.241
275.802
276.39
277.006
277.649
278.317
279.004
279.702
280.395
281.064
281.682
282.216
273.231
273.701
274.188
274.695
275.224
275.777
276.356
276.96
277.588
278.235
278.897
279.562
280.216
280.84
281.41
281.897
273.23
273.7
274.186
274.691
275.218
275.768
276.342
276.94
277.56
278.197
278.846
279.495
280.13
280.732
281.278
281.743
273.256
273.776
274.32
274.892
275.499
276.148
276.847
277.603
278.425
279.322
280.305
281.385
282.577
283.896
285.354
286.939
273.25
273.76
274.291
274.849
275.439
276.068
276.741
277.465
278.247
279.091
280.005
280.994
282.06
283.202
284.4
285.591
273.245
273.744
274.264
274.808
275.383
275.992
276.642
277.335
278.077
278.871
279.718
280.618
281.567
282.549
283.534
284.454
273.241
273.731
274.24
274.773
275.333
275.925
276.553
277.219
277.925
278.672
279.459
280.281
281.128
281.98
282.803
283.542
273.237
273.72
274.22
274.743
275.292
275.87
276.479
277.121
277.797
278.505
279.242
279.999
280.764
281.515
282.222
282.842
273.235
273.711
274.206
274.722
275.262
275.829
276.423
277.047
277.699
278.377
279.075
279.783
280.487
281.167
281.795
282.337
273.233
273.707
274.198
274.71
275.244
275.803
276.389
277
277.636
278.293
278.965
279.64
280.305
280.939
281.518
282.012
273.232
273.706
274.196
274.706
275.238
275.794
276.374
276.979
277.608
278.254
278.912
279.572
280.217
280.829
281.383
281.855
273.257
273.782
274.328
274.905
275.516
276.171
276.876
277.64
278.47
279.376
280.369
281.459
282.659
283.983
285.44
287.015
273.252
273.765
274.299
274.861
275.456
276.09
276.769
277.5
278.289
279.142
280.065
281.064
282.139
283.288
284.488
285.677
273.247
273.749
274.272
274.82
275.399
276.013
276.668
277.368
278.117
278.919
279.775
280.684
281.642
282.631
283.621
284.543
273.242
273.735
274.248
274.784
275.349
275.945
276.578
277.25
277.963
278.718
279.513
280.343
281.198
282.057
282.886
283.63
273.239
273.724
274.228
274.754
275.307
275.889
276.503
277.151
277.833
278.548
279.292
280.057
280.83
281.589
282.302
282.926
273.236
273.716
274.213
274.733
275.276
275.847
276.447
277.076
277.734
278.418
279.123
279.838
280.55
281.237
281.871
282.417
273.234
273.711
274.205
274.72
275.258
275.822
276.411
277.028
277.67
278.333
279.011
279.693
280.365
281.005
281.59
282.089
273.234
273.71
274.203
274.716
275.252
275.812
276.397
277.007
277.64
278.293
278.958
279.623
280.275
280.894
281.454
281.931
273.258
273.784
274.333
274.911
275.525
276.183
276.891
277.658
278.492
279.403
280.401
281.496
282.7
284.026
285.481
287.05
273.253
273.767
274.304
274.867
275.464
276.101
276.783
277.518
278.311
279.168
280.096
281.098
282.178
283.329
284.531
285.718
273.248
273.752
274.276
274.826
275.407
276.024
276.682
277.385
278.138
278.943
279.803
280.717
281.679
282.672
283.663
284.586
273.243
273.738
274.252
274.79
275.356
275.955
276.591
277.266
277.982
278.74
279.539
280.374
281.233
282.096
282.928
283.673
273.239
273.726
274.232
274.76
275.314
275.899
276.515
277.166
277.851
278.57
279.317
280.086
280.863
281.625
282.341
282.968
273.237
273.718
274.217
274.738
275.284
275.857
276.458
277.09
277.751
278.439
279.147
279.866
280.581
281.271
281.908
282.457
273.235
273.713
274.209
274.726
275.265
275.831
276.423
277.042
277.686
278.353
279.034
279.72
280.395
281.039
281.626
282.128
273.234
273.712
274.207
274.722
275.259
275.821
276.408
277.021
277.657
278.313
278.981
279.65
280.305
280.926
281.49
281.969
273.215
273.653
274.105
274.573
275.059
275.562
276.084
276.622
277.174
277.736
278.302
278.862
279.403
279.912
280.37
280.758
273.212
273.642
274.086
274.546
275.021
275.514
276.023
276.547
277.083
277.627
278.172
278.71
279.229
279.714
280.15
280.519
273.208
273.632
274.068
274.52
274.987
275.469
275.966
276.477
276.998
277.524
278.05
278.567
279.063
279.526
279.941
280.292
273.205
273.623
274.053
274.497
274.956
275.429
275.916
276.414
276.921
277.432
277.941
278.438
278.914
279.357
279.752
280.086
273.203
273.615
274.04
274.479
274.931
275.396
275.874
276.363
276.858
277.355
277.849
278.33
278.789
279.214
279.593
279.912
273.201
273.61
274.031
274.465
274.912
275.372
275.843
276.324
276.81
277.297
277.778
278.246
278.692
279.103
279.468
279.776
273.2
273.607
274.026
274.457
274.901
275.357
275.824
276.298
276.778
277.258
277.731
278.191
278.626
279.028
279.384
279.684
273.2
273.606
274.024
274.454
274.897
275.351
275.815
276.287
276.764
277.24
277.709
278.164
278.594
278.991
279.343
279.638
273.216
273.653
274.106
274.576
275.063
275.569
276.094
276.636
277.195
277.764
278.339
278.909
279.464
279.988
280.462
280.865
273.212
273.642
274.087
274.548
275.025
275.52
276.032
276.56
277.101
277.652
278.205
278.753
279.282
279.781
280.23
280.612
273.209
273.632
274.069
274.522
274.99
275.474
275.975
276.489
277.014
277.547
278.08
278.605
279.111
279.584
280.01
280.371
273.206
273.623
274.054
274.499
274.959
275.434
275.924
276.425
276.937
277.453
277.967
278.472
278.956
279.407
279.812
280.154
273.203
273.616
274.041
274.48
274.934
275.401
275.882
276.373
276.872
277.374
277.873
278.36
278.826
279.258
279.644
279.97
273.201
273.61
274.032
274.467
274.915
275.377
275.85
276.334
276.823
277.314
277.801
278.274
278.725
279.142
279.514
279.828
273.2
273.607
274.027
274.459
274.905
275.362
275.831
276.309
276.792
277.275
277.753
278.217
278.658
279.065
279.427
279.732
273.2
273.607
274.026
274.457
274.901
275.357
275.823
276.298
276.778
277.258
277.731
278.19
278.626
279.027
279.384
279.684
273.217
273.657
274.112
274.585
275.076
275.588
276.119
276.671
277.241
277.824
278.417
279.01
279.591
280.145
280.652
281.087
273.213
273.646
274.093
274.556
275.038
275.537
276.056
276.592
277.144
277.707
278.276
278.843
279.396
279.919
280.396
280.804
273.21
273.635
274.075
274.53
275.002
275.491
275.997
276.518
277.053
277.597
278.144
278.685
279.21
279.705
280.153
280.534
273.207
273.626
274.059
274.507
274.97
275.449
275.944
276.453
276.972
277.498
278.025
278.544
279.044
279.512
279.934
280.293
273.204
273.618
274.046
274.488
274.944
275.416
275.901
276.398
276.905
277.416
277.925
278.425
278.904
279.35
279.75
280.09
273.202
273.613
274.037
274.474
274.926
275.391
275.869
276.358
276.854
277.354
277.849
278.333
278.796
279.225
279.608
279.933
273.201
273.61
274.032
274.467
274.915
275.377
275.85
276.333
276.822
277.314
277.8
278.273
278.724
279.142
279.513
279.827
273.201
273.61
274.031
274.465
274.912
275.372
275.843
276.323
276.809
277.296
277.777
278.245
278.69
279.102
279.467
279.776
273.219
273.663
274.124
274.601
275.099
275.619
276.161
276.726
277.313
277.918
278.537
279.163
279.785
280.386
280.944
281.43
273.215
273.652
274.103
274.572
275.059
275.567
276.095
276.643
277.21
277.793
278.385
278.981
279.567
280.13
280.649
281.098
273.212
273.641
274.085
274.545
275.022
275.518
276.033
276.566
277.114
277.675
278.242
278.808
279.361
279.888
280.369
280.783
273.208
273.632
274.068
274.521
274.99
275.476
275.978
276.497
277.029
277.57
278.114
278.653
279.177
279.671
280.119
280.502
273.206
273.624
274.055
274.501
274.963
275.44
275.933
276.44
276.958
277.482
278.006
278.523
279.022
279.489
279.91
280.268
273.204
273.618
274.046
274.487
274.944
275.415
275.9
276.398
276.904
277.415
277.924
278.424
278.903
279.349
279.749
280.089
273.203
273.615
274.041
274.48
274.933
275.4
275.88
276.372
276.871
277.372
277.871
278.358
278.824
279.256
279.642
279.969
273.203
273.615
274.04
274.478
274.93
275.395
275.873
276.361
276.856
277.354
277.847
278.328
278.787
279.212
279.59
279.91
273.222
273.672
274.139
274.625
275.131
275.662
276.218
276.8
277.408
278.04
278.694
279.364
280.04
280.707
281.341
281.905
273.218
273.66
274.118
274.594
275.09
275.607
276.148
276.712
277.298
277.905
278.528
279.161
279.793
280.41
280.989
281.497
273.214
273.649
274.099
274.565
275.051
275.556
276.083
276.63
277.195
277.777
278.371
278.968
279.56
280.129
280.657
281.115
273.211
273.639
274.082
274.54
275.017
275.511
276.025
276.556
277.104
277.663
278.23
278.796
279.35
279.879
280.362
280.778
273.208
273.631
274.068
274.52
274.989
275.475
275.977
276.496
277.027
277.568
278.112
278.652
279.175
279.67
280.118
280.501
273.206
273.626
274.058
274.506
274.969
275.448
275.943
276.451
276.97
277.496
278.022
278.541
279.041
279.51
279.932
280.291
273.205
273.623
274.053
274.498
274.958
275.433
275.922
276.423
276.934
277.45
277.964
278.469
278.953
279.404
279.809
280.151