/*--------------------------------*- C++ -*----------------------------------*\
| =========                 |                                                 |
| \\      /  F ield         | OpenFOAM: The Open Source CFD Toolbox           |
|  \\    /   O peration     | Version:  v1912                                 |
|   \\  /    A nd           | Website:  www.openfoam.com                      |
|    \\/     M anipulation  |                                                 |
\*---------------------------------------------------------------------------*/
FoamFile
{
    version     2.0;
    format      ascii;
    class       volVectorField;
    location    "0.67/fluid";
    object      U;
}
// * * * * * * * * * * * * * * * * * * * * * * * * * * * * * * * * * * * * * //

dimensions      [0 1 -1 0 0 0 0];


internalField   nonuniform List<vector> 
14592
(
(0.0877167 0.0173143 0.000620296)
(0.0721612 0.01178 0.00103229)
(0.0569142 0.00740297 0.000862672)
(0.0483401 0.00365514 0.000284946)
(0.0430513 0.00168434 -0.00059272)
(0.0401678 0.000712122 -0.00167934)
(0.0383585 0.000306007 -0.00297605)
(0.0370884 0.000140227 -0.00453705)
(0.0358727 6.76826e-05 -0.00646456)
(0.0346865 -7.16478e-07 -0.0089162)
(0.0330678 -0.000102877 -0.0121415)
(0.0315132 -0.000340655 -0.0164648)
(0.0285646 -0.000694406 -0.0225849)
(0.0260971 -0.00158845 -0.0306392)
(0.0184451 -0.00211464 -0.0411824)
(0.0104632 -0.00507333 -0.0391808)
(0.103987 0.0180093 0.000848382)
(0.103621 0.0176882 0.00147808)
(0.100454 0.0143643 0.00132979)
(0.096575 0.00974182 0.000512434)
(0.092881 0.00621822 -0.000876012)
(0.0899445 0.00390104 -0.00271328)
(0.0874722 0.00262982 -0.00497759)
(0.0852649 0.00203073 -0.00773968)
(0.0829176 0.0018255 -0.0111601)
(0.0803557 0.00180914 -0.0155015)
(0.0769489 0.00185549 -0.0211701)
(0.0730373 0.00179823 -0.0287172)
(0.0665698 0.00159472 -0.0391268)
(0.0592477 0.000677138 -0.0526109)
(0.0425915 -0.000337285 -0.0684398)
(0.0246433 -0.00443605 -0.0632165)
(0.103997 0.0119522 0.000918067)
(0.108464 0.0161798 0.00161794)
(0.111493 0.0153169 0.00148706)
(0.112082 0.0120462 0.000631168)
(0.111398 0.00887575 -0.000855059)
(0.110039 0.00646765 -0.00285484)
(0.108283 0.00501253 -0.0053469)
(0.106257 0.00432522 -0.00840626)
(0.103782 0.00419121 -0.0122044)
(0.10084 0.00441114 -0.0170307)
(0.0967899 0.0048414 -0.0233273)
(0.0918518 0.00530383 -0.0317264)
(0.0837511 0.00571806 -0.0432804)
(0.0740035 0.00546473 -0.0584058)
(0.0530478 0.00447029 -0.0761747)
(0.0297652 -0.000439243 -0.0716097)
(0.102132 0.00767501 0.000946429)
(0.106736 0.0125849 0.00168499)
(0.111489 0.0133188 0.00157321)
(0.114196 0.0117528 0.00072658)
(0.115417 0.00965671 -0.000751424)
(0.115441 0.00785839 -0.00274345)
(0.114618 0.00673755 -0.00522902)
(0.113174 0.00630903 -0.00828402)
(0.111047 0.00648656 -0.0120788)
(0.108282 0.00715263 -0.0169084)
(0.104246 0.00822038 -0.0232173)
(0.0991244 0.00956095 -0.0316771)
(0.0904994 0.0111105 -0.0433574)
(0.0798047 0.0122001 -0.0588606)
(0.0569679 0.0119724 -0.0773018)
(0.031004 0.00562448 -0.0737418)
(0.101095 0.00500286 0.000972687)
(0.104771 0.00932952 0.00175083)
(0.109376 0.0108059 0.0016722)
(0.112746 0.0104661 0.000857958)
(0.114942 0.00941156 -0.000577269)
(0.115926 0.00837931 -0.00250916)
(0.115937 0.0077915 -0.00491199)
(0.115169 0.00778732 -0.00785611)
(0.113597 0.00838883 -0.0115017)
(0.111304 0.00957005 -0.0161379)
(0.107671 0.011315 -0.0221903)
(0.102889 0.0135674 -0.030351)
(0.0944046 0.016301 -0.0416632)
(0.0835761 0.018783 -0.056944)
(0.0596935 0.0194804 -0.0753394)
(0.0316549 0.0108863 -0.0729401)
(0.100632 0.00336097 0.00100162)
(0.103545 0.00673719 0.00182482)
(0.107669 0.00836392 0.00179239)
(0.111177 0.00874661 0.00102669)
(0.113863 0.0085074 -0.000347937)
(0.115488 0.0082029 -0.00219745)
(0.116161 0.00820852 -0.00448663)
(0.116019 0.00871846 -0.00727538)
(0.115034 0.0098335 -0.010708)
(0.113306 0.0116279 -0.0150601)
(0.110225 0.0141902 -0.0207267)
(0.10599 0.0176296 -0.0284093)
(0.0979165 0.0220882 -0.0390929)
(0.0873076 0.0270236 -0.0538487)
(0.0626825 0.0304881 -0.0718168)
(0.0327595 0.0202551 -0.0709502)
(0.10046 0.00218547 0.0010367)
(0.102955 0.00460534 0.00191209)
(0.106743 0.00610299 0.00193692)
(0.110283 0.00686955 0.00123313)
(0.113261 0.00722508 -6.61638e-05)
(0.115344 0.00753723 -0.00181554)
(0.116562 0.0080961 -0.003965)
(0.117016 0.00910069 -0.0065567)
(0.116689 0.0106927 -0.00970777)
(0.115723 0.0130233 -0.0136612)
(0.113574 0.0162595 -0.0187463)
(0.110525 0.0206695 -0.0256184)
(0.103905 0.0265253 -0.0350874)
(0.0950737 0.0335473 -0.0484328)
(0.0710119 0.0395055 -0.0644919)
(0.0401327 0.0273574 -0.0654197)
(0.100405 0.00120883 0.00107657)
(0.102745 0.00269826 0.00200946)
(0.106423 0.00391483 0.00209813)
(0.11004 0.00486337 0.0014642)
(0.11325 0.00565634 0.000248426)
(0.115681 0.00648203 -0.00139262)
(0.117334 0.00753007 -0.00339214)
(0.118298 0.00897802 -0.00577199)
(0.118578 0.0109893 -0.00861975)
(0.118346 0.0137936 -0.0121407)
(0.117138 0.0176604 -0.0165951)
(0.115304 0.0231778 -0.0225786)
(0.110261 0.0310015 -0.0307226)
(0.103605 0.0426315 -0.0425359)
(0.0809299 0.0568923 -0.0567308)
(0.0525764 0.061474 -0.061124)
(0.0876854 0.0173171 0.000388163)
(0.0719812 0.011793 0.000616546)
(0.0565059 0.00741452 0.000417032)
(0.04773 0.00366143 -9.71055e-05)
(0.042251 0.00168859 -0.000860803)
(0.0391833 0.000717278 -0.00181864)
(0.0371621 0.000314488 -0.00298384)
(0.035625 0.000152574 -0.00440155)
(0.0340599 8.51482e-05 -0.00615669)
(0.0324007 2.40249e-05 -0.00834851)
(0.0301827 -6.2485e-05 -0.0111635)
(0.0277762 -0.000265578 -0.0146754)
(0.0239538 -0.000544829 -0.0193118)
(0.0199567 -0.00125882 -0.0240937)
(0.0122603 -0.00170094 -0.0286792)
(0.00330683 -0.00369982 -0.0192401)
(0.103944 0.0180234 0.00052352)
(0.103369 0.0177253 0.000855752)
(0.0998626 0.0144115 0.000601271)
(0.0956252 0.00978886 -0.000173564)
(0.0915624 0.00626782 -0.00141337)
(0.0882496 0.00396161 -0.00304933)
(0.085356 0.0027122 -0.00508956)
(0.0826356 0.00214359 -0.00760385)
(0.079628 0.00197862 -0.0107311)
(0.0761847 0.00201243 -0.0146553)
(0.0716344 0.00212745 -0.0196812)
(0.0661515 0.00215833 -0.0260197)
(0.0579183 0.00208035 -0.0342422)
(0.0479832 0.00132866 -0.0430461)
(0.0307517 0.000319638 -0.0504732)
(0.0112813 -0.00333733 -0.0332971)
(0.103957 0.0119761 0.000568671)
(0.108205 0.016238 0.000933689)
(0.110877 0.0154013 0.000670348)
(0.111075 0.0121459 -0.000155107)
(0.109977 0.00899201 -0.00149079)
(0.108187 0.00661115 -0.00327531)
(0.105949 0.00520086 -0.0055209)
(0.103342 0.00457704 -0.0083053)
(0.100122 0.00452884 -0.0117787)
(0.0961913 0.00485702 -0.0161492)
(0.0908484 0.00542853 -0.0217465)
(0.0841435 0.00605408 -0.0288378)
(0.0740072 0.00666733 -0.038014)
(0.0613063 0.00656443 -0.0479757)
(0.0395376 0.00549542 -0.0563474)
(0.0145719 0.000221575 -0.0372949)
(0.102095 0.00770169 0.000593391)
(0.10648 0.012652 0.000984617)
(0.11088 0.0134251 0.000733028)
(0.113199 0.0118917 -8.56552e-05)
(0.11401 0.00983062 -0.00141333)
(0.113605 0.0080807 -0.0031892)
(0.112303 0.00703164 -0.00542647)
(0.110282 0.0067039 -0.00820438)
(0.107415 0.00701961 -0.011672)
(0.103666 0.00786537 -0.0160426)
(0.098333 0.00917143 -0.0216445)
(0.0914326 0.0107956 -0.0287731)
(0.0807211 0.0126989 -0.0380135)
(0.0669859 0.0140563 -0.0481503)
(0.0432205 0.0138231 -0.0567427)
(0.0154006 0.00640629 -0.0375879)
(0.101059 0.00503335 0.000621453)
(0.10452 0.00940657 0.00104886)
(0.108779 0.010933 0.000828664)
(0.111774 0.010641 4.24628e-05)
(0.113577 0.00963882 -0.00124302)
(0.114155 0.00867491 -0.00296133)
(0.113714 0.00818405 -0.00512025)
(0.112404 0.00831551 -0.00779385)
(0.110135 0.00910514 -0.0111214)
(0.106914 0.0105363 -0.0153115)
(0.102044 0.0126195 -0.0206742)
(0.0955582 0.015286 -0.0275237)
(0.0850287 0.0185549 -0.0364136)
(0.0711912 0.0214652 -0.0462859)
(0.0462565 0.0222928 -0.0547124)
(0.0161164 0.0119775 -0.0362168)
(0.100597 0.00339536 0.000652775)
(0.1033 0.00682382 0.00112459)
(0.107084 0.00850913 0.000949784)
(0.110234 0.00895165 0.000211856)
(0.11255 0.00877949 -0.00101463)
(0.113798 0.00856124 -0.00265455)
(0.114056 0.0086871 -0.00470624)
(0.113418 0.00936619 -0.00723412)
(0.111795 0.0107198 -0.0103625)
(0.109216 0.0128409 -0.0142897)
(0.104988 0.0158607 -0.0192978)
(0.0991671 0.0198919 -0.025716)
(0.0891325 0.0251676 -0.0340445)
(0.0756252 0.030865 -0.0434453)
(0.0498242 0.0349105 -0.0515152)
(0.0175207 0.0223179 -0.0342051)
(0.100426 0.00222434 0.000689309)
(0.102716 0.00470164 0.00121291)
(0.106176 0.0062641 0.00109423)
(0.109374 0.00709897 0.000416866)
(0.112007 0.0075324 -0.000737251)
(0.113749 0.00794418 -0.00228211)
(0.114598 0.00864079 -0.0042026)
(0.114618 0.00984002 -0.00654726)
(0.113738 0.0117093 -0.00941659)
(0.112041 0.0144272 -0.0129848)
(0.108901 0.0182163 -0.0174819)
(0.104501 0.023366 -0.0232236)
(0.0961494 0.0302767 -0.0305884)
(0.0848001 0.0383579 -0.0390108)
(0.0594618 0.0453264 -0.0460443)
(0.0260477 0.0301889 -0.0306405)
(0.100372 0.00125142 0.000729248)
(0.102512 0.00280185 0.00130926)
(0.105874 0.00408705 0.00125279)
(0.109169 0.00510898 0.000643024)
(0.11206 0.00598636 -0.000431286)
(0.114188 0.00691992 -0.00187301)
(0.11552 0.00811677 -0.0036522)
(0.116117 0.00977645 -0.00579918)
(0.115933 0.0120927 -0.00838846)
(0.1151 0.0153337 -0.0115661)
(0.11307 0.0198391 -0.0155065)
(0.11014 0.0262596 -0.0205034)
(0.103631 0.0354333 -0.0268076)
(0.0949362 0.0486377 -0.0341657)
(0.0709931 0.0648379 -0.040188)
(0.0402231 0.0660094 -0.0277937)
(0.0876615 0.0173197 0.000226455)
(0.0718417 0.0118038 0.000328885)
(0.0561796 0.00742468 0.000116285)
(0.047223 0.0036671 -0.000335961)
(0.0415607 0.00169188 -0.000989343)
(0.0383062 0.000720943 -0.00181202)
(0.0360682 0.000320284 -0.00282345)
(0.0342584 0.00016047 -0.00406016)
(0.0323408 9.51863e-05 -0.00559118)
(0.0301999 3.6266e-05 -0.00747746)
(0.0273762 -4.53158e-05 -0.0098645)
(0.0241022 -0.000234627 -0.0127334)
(0.0194216 -0.000491551 -0.0164044)
(0.0141571 -0.00112216 -0.019878)
(0.00689557 -0.0016216 -0.0227432)
(-0.00067333 -0.00320374 -0.0151192)
(0.10391 0.0180371 0.000298008)
(0.103172 0.0177598 0.000428918)
(0.0993878 0.0144567 0.000115727)
(0.0948361 0.00983557 -0.000598568)
(0.0904282 0.0063174 -0.00168364)
(0.0867482 0.00402115 -0.00310298)
(0.083437 0.00279111 -0.00488124)
(0.0802083 0.00224964 -0.00708186)
(0.0765565 0.00212059 -0.00982046)
(0.0722591 0.00219869 -0.0132225)
(0.0666278 0.00237239 -0.0175182)
(0.0596794 0.00247488 -0.022766)
(0.0499196 0.00248495 -0.0293471)
(0.0379959 0.00183418 -0.0358558)
(0.021194 0.000739645 -0.0403843)
(0.00368794 -0.00280389 -0.025846)
(0.103926 0.0120004 0.000325238)
(0.108003 0.0162948 0.000463977)
(0.110384 0.0154841 0.000125587)
(0.110239 0.012245 -0.000644839)
(0.108757 0.00910776 -0.00182049)
(0.10655 0.00675249 -0.00337243)
(0.103838 0.0053834 -0.00533127)
(0.100657 0.00481801 -0.00776993)
(0.0967139 0.00484919 -0.0108147)
(0.091831 0.00527737 -0.0146118)
(0.0852739 0.00597836 -0.0194084)
(0.0769357 0.00675024 -0.0253041)
(0.065047 0.00753382 -0.032677)
(0.0500979 0.00754362 -0.040085)
(0.0286092 0.00636449 -0.0451789)
(0.00571579 0.00068544 -0.0288365)
(0.102066 0.00772966 0.00034587)
(0.106283 0.0127193 0.000501324)
(0.110394 0.0135306 0.000169056)
(0.112375 0.0120295 -0.000597002)
(0.112806 0.0100023 -0.00176558)
(0.111986 0.00829784 -0.00330906)
(0.110212 0.00731527 -0.0052594)
(0.107621 0.0070807 -0.00769137)
(0.104034 0.00752434 -0.0107304)
(0.0993357 0.00853557 -0.0145281)
(0.0927796 0.0100595 -0.0193291)
(0.0842269 0.0119375 -0.0252574)
(0.0717009 0.0141506 -0.0326805)
(0.0556203 0.0157291 -0.0402189)
(0.0320101 0.0154865 -0.0454373)
(0.00620073 0.00719116 -0.0289817)
(0.101032 0.0050651 0.000373083)
(0.104328 0.00948395 0.000560263)
(0.108305 0.0110586 0.000256176)
(0.110973 0.010813 -0.000479665)
(0.112412 0.00986085 -0.00160887)
(0.112596 0.00896119 -0.00309969)
(0.111708 0.00856077 -0.00497924)
(0.10986 0.00881843 -0.00731781)
(0.10691 0.00978312 -0.0102322)
(0.102788 0.0114457 -0.0138713)
(0.0967445 0.0138405 -0.0184644)
(0.0886625 0.0168826 -0.0241548)
(0.0763317 0.0206328 -0.0312842)
(0.0601443 0.0239225 -0.0386097)
(0.0352206 0.0249102 -0.0437098)
(0.00690227 0.0132967 -0.0278581)
(0.100571 0.00343038 0.000403922)
(0.103112 0.00690971 0.000632418)
(0.106624 0.00865103 0.000370449)
(0.109461 0.0091509 -0.000320484)
(0.111433 0.00904253 -0.00139497)
(0.112315 0.00890539 -0.00281438)
(0.11216 0.00914392 -0.00459723)
(0.111028 0.00998099 -0.00680539)
(0.108777 0.0115572 -0.00954266)
(0.105369 0.0139814 -0.0129504)
(0.100044 0.0174238 -0.0172349)
(0.092727 0.0219933 -0.0225577)
(0.0809479 0.0280075 -0.0292184)
(0.0651593 0.034388 -0.0361695)
(0.0392128 0.0390231 -0.0410319)
(0.00845978 0.0247816 -0.0262357)
(0.100401 0.00226281 0.000439236)
(0.102534 0.00479539 0.000716302)
(0.105731 0.0064195 0.000506436)
(0.108634 0.00731957 -0.000128546)
(0.110948 0.00782684 -0.0011365)
(0.112355 0.00833247 -0.00246988)
(0.112834 0.00915878 -0.00413504)
(0.112418 0.0105408 -0.00618061)
(0.110987 0.0126704 -0.00869045)
(0.108569 0.0157506 -0.0117888)
(0.104469 0.020056 -0.0156414)
(0.098771 0.0258898 -0.0204118)
(0.0888501 0.0337751 -0.0263131)
(0.0754925 0.0428457 -0.032553)
(0.0498278 0.0508679 -0.0367884)
(0.0175906 0.0338031 -0.0236513)
(0.100347 0.00129245 0.000476999)
(0.102337 0.00290096 0.000806668)
(0.105448 0.00425111 0.000654438)
(0.108465 0.00534266 8.18647e-05)
(0.111062 0.00629991 -0.000853096)
(0.112889 0.00733537 -0.00209317)
(0.113898 0.00867291 -0.0036313)
(0.114121 0.0105323 -0.00550083)
(0.113473 0.0131363 -0.00776379)
(0.112039 0.0167879 -0.0105236)
(0.109208 0.0218947 -0.0139019)
(0.105215 0.029158 -0.0180571)
(0.0973671 0.0395987 -0.0231097)
(0.0870483 0.0542953 -0.0285539)
(0.0626749 0.0725456 -0.032174)
(0.0329435 0.0720221 -0.0214747)
(0.0876434 0.0173221 0.000119243)
(0.0717344 0.011813 0.000142945)
(0.0559233 0.00743354 -6.30896e-05)
(0.0468158 0.00367233 -0.000447456)
(0.0409976 0.00169548 -0.000987298)
(0.0375849 0.000725404 -0.00166509)
(0.0351719 0.000327589 -0.00249985)
(0.0331573 0.000171537 -0.00351637)
(0.0310027 0.000111643 -0.00476141)
(0.0285733 6.1288e-05 -0.00625632)
(0.0254602 -4.0858e-06 -0.00808454)
(0.02184 -0.00015826 -0.0101465)
(0.0170237 -0.000352037 -0.0125949)
(0.0116206 -0.000832775 -0.0145122)
(0.00512788 -0.00119925 -0.0153907)
(-0.00110354 -0.00246298 -0.00921377)
(0.103885 0.0180498 0.000149677)
(0.103019 0.0177906 0.000157383)
(0.0990122 0.0144976 -0.000167903)
(0.0941989 0.00987871 -0.000796321)
(0.0894971 0.00636396 -0.00171043)
(0.0855028 0.00407718 -0.00289227)
(0.0818433 0.0028651 -0.00437009)
(0.0782114 0.00234943 -0.0061932)
(0.0740879 0.0022559 -0.00844432)
(0.0692201 0.00238095 -0.0111883)
(0.0629691 0.00262191 -0.0145593)
(0.0553053 0.00282013 -0.0184839)
(0.0450852 0.00297198 -0.0231051)
(0.032821 0.00253782 -0.0270862)
(0.0172258 0.00162147 -0.0286293)
(0.00206502 -0.00176959 -0.016667)
(0.103902 0.0120231 0.000164562)
(0.107847 0.0163466 0.000165347)
(0.109994 0.0155598 -0.000192709)
(0.109565 0.0123364 -0.000876559)
(0.107755 0.00921476 -0.00187186)
(0.10519 0.00688259 -0.0031676)
(0.10208 0.00555025 -0.00479839)
(0.0984395 0.00503724 -0.00682286)
(0.0939576 0.00514072 -0.00933293)
(0.088425 0.00566255 -0.01241)
(0.0811494 0.00648997 -0.0161979)
(0.0719874 0.0074195 -0.0206489)
(0.0595221 0.00841265 -0.025885)
(0.0441534 0.00865152 -0.030501)
(0.0239411 0.00761886 -0.0322691)
(0.00371004 0.00173589 -0.0186483)
(0.102044 0.00775629 0.000181081)
(0.10613 0.0127819 0.000191773)
(0.110011 0.013628 -0.000164072)
(0.111711 0.0121565 -0.00084543)
(0.111818 0.01016 -0.00183499)
(0.110643 0.0084957 -0.00312338)
(0.108473 0.00757134 -0.00474669)
(0.105425 0.00741802 -0.00676553)
(0.101302 0.00797328 -0.00927127)
(0.0959582 0.00912916 -0.01235)
(0.0886828 0.0108449 -0.0161423)
(0.0793057 0.0129521 -0.0206182)
(0.0661863 0.0154558 -0.0258842)
(0.0496716 0.0172921 -0.0305695)
(0.0273103 0.017187 -0.0323485)
(0.00419681 0.00832001 -0.0185657)
(0.101011 0.00509525 0.000205523)
(0.10418 0.00955594 0.000242794)
(0.107933 0.0111745 -8.91016e-05)
(0.110331 0.0109705 -0.000743932)
(0.11146 0.0100631 -0.00169901)
(0.111306 0.00921974 -0.00294186)
(0.110044 0.00889766 -0.00450469)
(0.107766 0.00926357 -0.00644454)
(0.104311 0.0103771 -0.00884584)
(0.0995838 0.0122338 -0.0117931)
(0.0928623 0.0148866 -0.015415)
(0.0840048 0.0182352 -0.0196981)
(0.0711038 0.0223725 -0.0247274)
(0.0545013 0.0259808 -0.0292358)
(0.0307472 0.0271432 -0.03091)
(0.00502358 0.0146643 -0.017609)
(0.100552 0.00346321 0.000233595)
(0.102969 0.00698903 0.000307123)
(0.106264 0.00878095 1.21238e-05)
(0.108842 0.00933206 -0.000603206)
(0.110523 0.00928006 -0.00151058)
(0.11109 0.00921351 -0.00269188)
(0.11059 0.00954867 -0.00417223)
(0.109064 0.0105191 -0.00600189)
(0.106352 0.0122797 -0.00825488)
(0.102393 0.0149484 -0.011011)
(0.0964487 0.0187208 -0.0143819)
(0.0884285 0.0236909 -0.0183716)
(0.0761191 0.0302247 -0.0230367)
(0.0599593 0.0370447 -0.0272629)
(0.0350813 0.0419943 -0.0287951)
(0.0067466 0.0266453 -0.0163507)
(0.100382 0.00229825 0.000265431)
(0.102396 0.00488099 0.00038188)
(0.105385 0.00656046 0.000132651)
(0.108044 0.00751848 -0.00043378)
(0.110086 0.0080907 -0.00128356)
(0.111207 0.0086776 -0.0023912)
(0.111375 0.00961439 -0.00377195)
(0.110611 0.011149 -0.0054658)
(0.108776 0.0134908 -0.00753172)
(0.105885 0.0168556 -0.0100391)
(0.101252 0.0215499 -0.0130723)
(0.0949661 0.0278658 -0.0166477)
(0.0845918 0.0363886 -0.0207729)
(0.0709642 0.0460243 -0.0245442)
(0.0462178 0.0545219 -0.0258056)
(0.0161174 0.0361826 -0.0147043)
(0.100329 0.00132959 0.000299028)
(0.102204 0.00299036 0.000461839)
(0.105118 0.00439848 0.000263152)
(0.107906 0.00555173 -0.000248945)
(0.110254 0.00657896 -0.00103559)
(0.111823 0.00770226 -0.00206341)
(0.112558 0.00915889 -0.0033366)
(0.112482 0.0111833 -0.00488337)
(0.111493 0.0140179 -0.00674623)
(0.109671 0.0179836 -0.00898167)
(0.106403 0.0235247 -0.0116448)
(0.101954 0.0313434 -0.0147608)
(0.0937511 0.0425354 -0.0182878)
(0.0832998 0.0579428 -0.0215606)
(0.0597209 0.0769142 -0.0226108)
(0.0318654 0.074998 -0.01339)
(0.0876293 0.017324 5.26342e-05)
(0.0716514 0.0118201 3.40855e-05)
(0.0557231 0.00744038 -0.00014723)
(0.0464922 0.00367619 -0.000456772)
(0.040543 0.00169777 -0.000881288)
(0.0369947 0.000727963 -0.00141222)
(0.0344314 0.00033177 -0.00206647)
(0.032242 0.000177663 -0.00286127)
(0.0298881 0.000120226 -0.00382906)
(0.0272202 7.35176e-05 -0.00497508)
(0.0238738 1.53859e-05 -0.00635188)
(0.0199885 -0.000121074 -0.00785999)
(0.0150847 -0.000282715 -0.00958567)
(0.0096555 -0.000683418 -0.0108471)
(0.00382422 -0.000989228 -0.0112041)
(-0.00133506 -0.00211143 -0.0067245)
(0.103865 0.0180604 5.91424e-05)
(0.1029 0.0178161 4.10022e-06)
(0.0987178 0.0145317 -0.000293129)
(0.0936915 0.00991513 -0.000811624)
(0.0887457 0.00640339 -0.00154127)
(0.0844855 0.00412428 -0.00247478)
(0.0805306 0.00292666 -0.00363904)
(0.076559 0.00243165 -0.00507176)
(0.0720447 0.00236634 -0.00683213)
(0.0667148 0.00252814 -0.008954)
(0.0599797 0.00282082 -0.0115194)
(0.0517885 0.00309075 -0.014432)
(0.0412821 0.00334618 -0.0177435)
(0.0289363 0.00305979 -0.0204254)
(0.0144329 0.00225124 -0.0210353)
(0.00121487 -0.00112781 -0.0121715)
(0.103884 0.0120427 6.61274e-05)
(0.107725 0.0163908 -2.52797e-06)
(0.109688 0.0156242 -0.000332907)
(0.109028 0.0124145 -0.000900597)
(0.106946 0.00930643 -0.0016981)
(0.10408 0.00699371 -0.0027239)
(0.100633 0.00569193 -0.00401068)
(0.0966047 0.00522236 -0.00560431)
(0.091676 0.00538566 -0.00757141)
(0.0856164 0.00598458 -0.00995846)
(0.0777781 0.0069153 -0.012853)
(0.0680064 0.00797212 -0.0161748)
(0.0551736 0.00913232 -0.0199519)
(0.0396844 0.00954696 -0.0230908)
(0.0206508 0.00862036 -0.0237983)
(0.00263814 0.00250342 -0.0136313)
(0.102027 0.00777961 7.86491e-05)
(0.106012 0.012836 1.53317e-05)
(0.109711 0.0137118 -0.000315142)
(0.111183 0.0122657 -0.000881673)
(0.111022 0.0102955 -0.00167484)
(0.109547 0.00866502 -0.00269478)
(0.107041 0.00778932 -0.00397563)
(0.103608 0.00770363 -0.00556511)
(0.0990398 0.00835143 -0.00752963)
(0.0931709 0.00962647 -0.00991968)
(0.0853299 0.0114989 -0.0128203)
(0.0753399 0.0137912 -0.0161649)
(0.0618362 0.0165262 -0.0199683)
(0.0451888 0.0185636 -0.0231604)
(0.0239877 0.0185635 -0.0238642)
(0.00313291 0.00922074 -0.0135705)
(0.100995 0.00512175 9.89153e-05)
(0.104066 0.00961844 5.66029e-05)
(0.107642 0.0112744 -0.000254762)
(0.109821 0.0111061 -0.000799641)
(0.110693 0.0102366 -0.00156461)
(0.110255 0.00944081 -0.00254768)
(0.108675 0.00918442 -0.00378004)
(0.106033 0.00964065 -0.00530674)
(0.102158 0.0108778 -0.00718901)
(0.0969372 0.0128948 -0.00947675)
(0.0896806 0.0157587 -0.0122466)
(0.0802447 0.0193553 -0.0154457)
(0.0669709 0.0238017 -0.0190745)
(0.0502423 0.0276624 -0.022141)
(0.0275821 0.0289646 -0.0227815)
(0.0040472 0.0158146 -0.0128672)
(0.100536 0.00349194 0.000122455)
(0.102858 0.00705774 0.000109833)
(0.105984 0.00889282 -0.00017139)
(0.108353 0.00948755 -0.000683877)
(0.109792 0.00948337 -0.0014099)
(0.110094 0.00947634 -0.00234319)
(0.109299 0.00989254 -0.00350938)
(0.107439 0.0109742 -0.00494837)
(0.104343 0.0128879 -0.00671346)
(0.0999349 0.0157577 -0.00885172)
(0.0935002 0.0197987 -0.0114276)
(0.0849553 0.0250903 -0.0144035)
(0.0722989 0.0320334 -0.0177616)
(0.0560365 0.0391968 -0.0206254)
(0.0321654 0.044387 -0.0211879)
(0.00588829 0.0282201 -0.0119337)
(0.100367 0.00232899 0.000149025)
(0.10229 0.00495472 0.000171746)
(0.105118 0.0066814 -7.20044e-05)
(0.107579 0.00768864 -0.000544507)
(0.109397 0.00831588 -0.00122376)
(0.110275 0.00897134 -0.00209777)
(0.110177 0.0100009 -0.00318451)
(0.109116 0.011663 -0.00451619)
(0.106944 0.0141811 -0.00613507)
(0.103663 0.0177805 -0.00808173)
(0.098606 0.0227917 -0.0104023)
(0.0918784 0.0294959 -0.0130723)
(0.0812063 0.038522 -0.0160455)
(0.0675308 0.048604 -0.0186017)
(0.0436661 0.0574694 -0.0190361)
(0.0154132 0.0382283 -0.0107823)
(0.100315 0.00136148 0.000176854)
(0.102103 0.00306687 0.000237716)
(0.104864 0.0045243 3.53924e-05)
(0.107468 0.00572984 -0.000392755)
(0.109609 0.00681635 -0.00102084)
(0.110959 0.0080138 -0.00183062)
(0.11146 0.00957057 -0.00283147)
(0.111129 0.011733 -0.00404673)
(0.109852 0.0147591 -0.00550652)
(0.107708 0.0189836 -0.00724305)
(0.104093 0.0248785 -0.00928262)
(0.0993019 0.0331435 -0.011611)
(0.0908729 0.0449268 -0.0141545)
(0.0804574 0.0608961 -0.0163687)
(0.0576476 0.0804298 -0.0167221)
(0.0314251 0.077646 -0.00983726)
(0.0876192 0.0173254 1.68638e-05)
(0.0715917 0.0118256 -1.57358e-05)
(0.0555777 0.00744565 -0.000156468)
(0.0462552 0.00367939 -0.000383094)
(0.0402089 0.00169995 -0.000687857)
(0.0365613 0.000730689 -0.00106674)
(0.0338922 0.000336344 -0.00153192)
(0.0315861 0.000184832 -0.00209319)
(0.0291105 0.000131157 -0.00276904)
(0.026311 9.03554e-05 -0.00355378)
(0.0228622 4.26788e-05 -0.00447197)
(0.0188868 -7.33087e-05 -0.00543687)
(0.0140303 -0.000200448 -0.00648193)
(0.00871523 -0.000534415 -0.00715162)
(0.00327488 -0.000780218 -0.00711019)
(-0.00131071 -0.00183764 -0.0040964)
(0.10385 0.0180688 1.25474e-05)
(0.102814 0.017836 -5.87426e-05)
(0.0985027 0.0145582 -0.000294681)
(0.0933179 0.00994391 -0.000680875)
(0.0881894 0.00643482 -0.00121111)
(0.0837315 0.00416203 -0.00188281)
(0.0795618 0.00297614 -0.00271641)
(0.0753524 0.00249812 -0.00373657)
(0.0705803 0.0024564 -0.00497943)
(0.0649674 0.00264969 -0.00645572)
(0.0579715 0.00298736 -0.00820402)
(0.0495421 0.00332042 -0.0101285)
(0.0390011 0.00366741 -0.0122218)
(0.0268127 0.0035057 -0.0137732)
(0.0130423 0.00279964 -0.013741)
(0.000981246 -0.000612301 -0.00767178)
(0.10387 0.0120582 1.51151e-05)
(0.107637 0.0164254 -7.0278e-05)
(0.109464 0.0156747 -0.000334048)
(0.108632 0.012476 -0.000758703)
(0.106347 0.00937875 -0.00134008)
(0.103256 0.00708131 -0.00207983)
(0.0995614 0.00580338 -0.003003)
(0.0952595 0.00536773 -0.00414045)
(0.090031 0.00557794 -0.00553375)
(0.0836416 0.00623779 -0.00720227)
(0.0754886 0.00725081 -0.0091871)
(0.0654276 0.0084108 -0.0114013)
(0.0525183 0.00970815 -0.0138158)
(0.0371859 0.0102707 -0.015666)
(0.0189708 0.00944774 -0.0156526)
(0.00231053 0.00313434 -0.00863922)
(0.102015 0.0077982 2.38489e-05)
(0.105927 0.0128787 -5.89998e-05)
(0.109493 0.0137779 -0.000323855)
(0.110795 0.0123518 -0.000748134)
(0.110432 0.010402 -0.00132656)
(0.108734 0.00879773 -0.00206216)
(0.105982 0.00795932 -0.00298119)
(0.102275 0.00792523 -0.00411602)
(0.0974089 0.00864338 -0.00550818)
(0.0912118 0.0100087 -0.00718005)
(0.0830551 0.0119994 -0.00917088)
(0.0727759 0.0144318 -0.0114028)
(0.0591889 0.0173422 -0.0138362)
(0.0426989 0.0195366 -0.0157198)
(0.0223092 0.0196275 -0.0156912)
(0.00283139 0.00993184 -0.00858054)
(0.100984 0.00514288 3.89556e-05)
(0.103983 0.00966795 -2.87515e-05)
(0.107431 0.0113532 -0.000279736)
(0.109446 0.0112127 -0.000688038)
(0.110126 0.0103727 -0.00124566)
(0.109476 0.00961325 -0.00195425)
(0.107663 0.00940669 -0.00283807)
(0.104764 0.00993089 -0.00392767)
(0.100609 0.0112602 -0.00526108)
(0.0950819 0.0133954 -0.00686061)
(0.0875308 0.016413 -0.00876)
(0.0778297 0.0201882 -0.0108914)
(0.0644812 0.0248536 -0.0132062)
(0.0479149 0.0288938 -0.0150057)
(0.0260209 0.0302931 -0.0149398)
(0.00381263 0.0166658 -0.00809704)
(0.100526 0.00351478 5.66435e-05)
(0.102779 0.00711206 1.09135e-05)
(0.10578 0.00898087 -0.000217788)
(0.107995 0.00960949 -0.000602115)
(0.109252 0.00964213 -0.00113102)
(0.109356 0.00968039 -0.0018032)
(0.108346 0.0101576 -0.00263898)
(0.106251 0.0113218 -0.00366538)
(0.102899 0.0133476 -0.00491502)
(0.0982159 0.016362 -0.00640872)
(0.091517 0.0205916 -0.00817253)
(0.0827415 0.0261031 -0.01015)
(0.0700253 0.033316 -0.0122824)
(0.053936 0.0406968 -0.0139492)
(0.0307716 0.0460168 -0.0138485)
(0.00573388 0.029287 -0.00747013)
(0.100357 0.00235328 7.65553e-05)
(0.102214 0.00501276 5.70998e-05)
(0.104924 0.00677625 -0.000143845)
(0.107239 0.00782163 -0.000498664)
(0.108888 0.00849108 -0.00099324)
(0.109585 0.00919848 -0.00162228)
(0.109294 0.0102975 -0.00240073)
(0.108023 0.0120535 -0.00335045)
(0.105627 0.014699 -0.00449682)
(0.10211 0.0184641 -0.00585724)
(0.0968281 0.0236925 -0.00744696)
(0.0899163 0.0306531 -0.00922074)
(0.0792057 0.039996 -0.0111063)
(0.0657196 0.0503415 -0.0125878)
(0.0424824 0.0593857 -0.0124509)
(0.0153465 0.0395414 -0.00676022)
(0.100306 0.00138649 9.73162e-05)
(0.102031 0.00312678 0.0001062)
(0.10468 0.00462261 -6.40679e-05)
(0.107148 0.00586854 -0.000386174)
(0.109134 0.00700042 -0.000843252)
(0.110321 0.00825385 -0.00142558)
(0.110651 0.00988514 -0.00214209)
(0.110138 0.0121484 -0.00300869)
(0.108672 0.0153116 -0.00404282)
(0.106334 0.0197157 -0.00525731)
(0.102541 0.0258474 -0.00665589)
(0.0976194 0.0343968 -0.00820325)
(0.0891839 0.0465337 -0.00981544)
(0.0789849 0.06281 -0.0110942)
(0.0567316 0.0825877 -0.0109651)
(0.0314908 0.0792619 -0.00620021)
(0.0876124 0.0173264 2.01282e-06)
(0.0715521 0.0118293 -2.6054e-05)
(0.0554811 0.00744904 -0.000114531)
(0.0460967 0.00368136 -0.000253482)
(0.0399841 0.0017011 -0.000437384)
(0.036268 0.000732015 -0.00066548)
(0.0335256 0.000338604 -0.000945119)
(0.0311391 0.000188348 -0.00128181)
(0.0285799 0.000136402 -0.00168572)
(0.0256914 9.82655e-05 -0.00215135)
(0.0221743 5.54865e-05 -0.00269101)
(0.0181432 -5.03412e-05 -0.00325062)
(0.0133222 -0.000160035 -0.00384467)
(0.00809764 -0.000459799 -0.00421374)
(0.00292247 -0.000678356 -0.00414951)
(-0.00130156 -0.00170597 -0.00239974)
(0.103841 0.0180745 -4.61137e-06)
(0.102757 0.0178495 -6.01323e-05)
(0.0983596 0.0145763 -0.000211311)
(0.0930679 0.00996352 -0.000450066)
(0.0878152 0.00645622 -0.0007726)
(0.0832218 0.00418762 -0.00117885)
(0.0789045 0.00300952 -0.00168179)
(0.0745324 0.00254273 -0.00229604)
(0.0695852 0.00251653 -0.0030421)
(0.0637832 0.00273033 -0.00392325)
(0.056617 0.003097 -0.00495819)
(0.0480419 0.0034701 -0.0060843)
(0.0374956 0.00387424 -0.00728719)
(0.025446 0.00378687 -0.00815261)
(0.0121774 0.00313645 -0.00805223)
(0.000848608 -0.000315535 -0.00449048)
(0.103861 0.0120689 -3.80781e-06)
(0.107579 0.0164492 -6.97311e-05)
(0.109315 0.0157094 -0.000239531)
(0.108367 0.0125183 -0.000502549)
(0.105944 0.00942851 -0.000856929)
(0.102699 0.00714152 -0.00130488)
(0.0988346 0.00587982 -0.00186243)
(0.0943449 0.00546721 -0.00254808)
(0.0889126 0.0057092 -0.00338567)
(0.0823022 0.00641017 -0.00438357)
(0.0739432 0.00747841 -0.00556171)
(0.0637032 0.00870698 -0.00686197)
(0.0507633 0.0100944 -0.00825596)
(0.0355743 0.0107509 -0.00929483)
(0.0179224 0.00998942 -0.00919418)
(0.00212266 0.00353142 -0.00506162)
(0.102007 0.0078111 1.25418e-06)
(0.10587 0.0129083 -6.34897e-05)
(0.109347 0.0138235 -0.000234409)
(0.110535 0.0124112 -0.000497353)
(0.110035 0.0104755 -0.000850047)
(0.108184 0.00888918 -0.0012955)
(0.105263 0.00807624 -0.00185059)
(0.101369 0.00807729 -0.00253477)
(0.0962995 0.00884323 -0.00337193)
(0.089882 0.0102696 -0.00437233)
(0.0815177 0.01234 -0.00555487)
(0.0710587 0.0148659 -0.00686676)
(0.0574357 0.0178921 -0.00827349)
(0.041089 0.0201883 -0.00933324)
(0.0212589 0.0203343 -0.00922334)
(0.0026582 0.0103971 -0.0050309)
(0.100977 0.0051576 1.05804e-05)
(0.103929 0.00970226 -4.50502e-05)
(0.107291 0.0114076 -0.000207583)
(0.109196 0.0112864 -0.00046073)
(0.109745 0.0104666 -0.000800672)
(0.108949 0.00973215 -0.00122961)
(0.106976 0.0095597 -0.00176331)
(0.103901 0.0101303 -0.00242013)
(0.0995544 0.0115224 -0.00322196)
(0.0938216 0.0137377 -0.00417911)
(0.0860764 0.016859 -0.00530754)
(0.07621 0.020754 -0.0065605)
(0.0628295 0.0255646 -0.00789894)
(0.0464076 0.029723 -0.00891139)
(0.025043 0.0311832 -0.00878453)
(0.00368008 0.017237 -0.00475298)
(0.100518 0.00353069 2.15342e-05)
(0.102726 0.00714972 -2.06017e-05)
(0.105646 0.00904178 -0.00016943)
(0.107755 0.00969374 -0.000407849)
(0.10889 0.00975171 -0.000730183)
(0.108858 0.00982105 -0.00113688)
(0.1077 0.01034 -0.00164137)
(0.105443 0.0115607 -0.0022599)
(0.101917 0.0136627 -0.00301119)
(0.0970478 0.016775 -0.00390479)
(0.0901746 0.0211316 -0.00495236)
(0.0812557 0.02679 -0.00611393)
(0.0685162 0.0341808 -0.00734565)
(0.0525758 0.0417043 -0.00828103)
(0.0299 0.0471057 -0.00813905)
(0.00565225 0.0300072 -0.00438436)