/*--------------------------------*- C++ -*----------------------------------*\
| =========                 |                                                 |
| \\      /  F ield         | OpenFOAM: The Open Source CFD Toolbox           |
|  \\    /   O peration     | Version:  v1912                                 |
|   \\  /    A nd           | Website:  www.openfoam.com                      |
|    \\/     M anipulation  |                                                 |
\*---------------------------------------------------------------------------*/
FoamFile
{
    version     2.0;
    format      ascii;
    class       volVectorField;
    location    "0.4/fluid";
    object      cellMotionU;
}
// * * * * * * * * * * * * * * * * * * * * * * * * * * * * * * * * * * * * * //

dimensions      [0 1 -1 0 0 0 0];


internalField   nonuniform List<vector> 
14592
(
(1.79649e-10 -4.24983e-10 3.21066e-10)
(5.00808e-10 -1.18836e-09 9.08288e-10)
(7.96126e-10 -1.89852e-09 1.4854e-09)
(1.07509e-09 -2.58075e-09 2.08867e-09)
(1.34826e-09 -3.25507e-09 2.75495e-09)
(1.62417e-09 -3.92826e-09 3.51509e-09)
(1.91301e-09 -4.59743e-09 4.40046e-09)
(2.2276e-09 -5.24549e-09 5.44182e-09)
(2.58736e-09 -5.83197e-09 6.66912e-09)
(3.02694e-09 -6.27808e-09 8.11201e-09)
(3.61896e-09 -6.43363e-09 9.80595e-09)
(4.53114e-09 -5.99661e-09 1.18132e-08)
(6.16949e-09 -4.29544e-09 1.43126e-08)
(9.61557e-09 3.99626e-10 1.79021e-08)
(1.74455e-08 1.25543e-08 2.42406e-08)
(3.202e-08 3.76205e-08 3.47698e-08)
(5.3513e-10 -1.2618e-09 9.5448e-10)
(1.49224e-09 -3.5291e-09 2.70091e-09)
(2.37068e-09 -5.63902e-09 4.41412e-09)
(3.20207e-09 -7.67119e-09 6.2087e-09)
(4.01328e-09 -9.67764e-09 8.18402e-09)
(4.83183e-09 -1.16864e-08 1.04365e-08)
(5.68696e-09 -1.36938e-08 1.30584e-08)
(6.61431e-09 -1.56548e-08 1.61383e-08)
(7.66479e-09 -1.74635e-08 1.97614e-08)
(8.92341e-09 -1.89155e-08 2.40055e-08)
(1.05531e-08 -1.96418e-08 2.89386e-08)
(1.2881e-08 -1.89962e-08 3.46309e-08)
(1.66288e-08 -1.58305e-08 4.12309e-08)
(2.32074e-08 -8.20195e-09 4.90955e-08)
(3.48274e-08 6.44706e-09 5.88819e-08)
(5.06534e-08 2.60212e-08 6.95154e-08)
(8.80291e-10 -2.0609e-09 1.56431e-09)
(2.45423e-09 -5.7656e-09 4.42521e-09)
(3.89894e-09 -9.21943e-09 7.23192e-09)
(5.26371e-09 -1.25496e-08 1.01655e-08)
(6.59463e-09 -1.58506e-08 1.3393e-08)
(7.93574e-09 -1.91752e-08 1.707e-08)
(9.33354e-09 -2.25305e-08 2.13465e-08)
(1.08421e-08 -2.58657e-08 2.63676e-08)
(1.2532e-08 -2.90466e-08 3.22709e-08)
(1.45073e-08 -3.18141e-08 3.91762e-08)
(1.69392e-08 -3.37211e-08 4.7167e-08)
(2.01417e-08 -3.40553e-08 5.62749e-08)
(2.4721e-08 -3.17787e-08 6.64845e-08)
(3.17684e-08 -2.56975e-08 7.78049e-08)
(4.28417e-08 -1.54236e-08 9.03474e-08)
(5.70084e-08 -4.78737e-09 1.02911e-07)
(1.20836e-09 -2.79662e-09 2.1356e-09)
(3.36813e-09 -7.82758e-09 6.0399e-09)
(5.34921e-09 -1.25253e-08 9.8661e-09)
(7.21911e-09 -1.70704e-08 1.3861e-08)
(9.0394e-09 -2.15963e-08 1.82475e-08)
(1.08707e-08 -2.6191e-08 2.32377e-08)
(1.27754e-08 -3.08879e-08 2.90355e-08)
(1.48229e-08 -3.56554e-08 3.58388e-08)
(1.70958e-08 -4.03755e-08 4.38374e-08)
(1.96986e-08 -4.48042e-08 5.31962e-08)
(2.27667e-08 -4.8522e-08 6.40209e-08)
(2.64951e-08 -5.08788e-08 7.63102e-08)
(3.1209e-08 -5.09898e-08 8.99142e-08)
(3.74166e-08 -4.79246e-08 1.04453e-07)
(4.59038e-08 -4.1452e-08 1.19285e-07)
(5.61167e-08 -3.41147e-08 1.32291e-07)
(1.5129e-09 -3.44396e-09 2.65534e-09)
(4.21652e-09 -9.64423e-09 7.50816e-09)
(6.69402e-09 -1.54463e-08 1.22575e-08)
(9.02815e-09 -2.10787e-08 1.72046e-08)
(1.12964e-08 -2.67214e-08 2.26251e-08)
(1.35738e-08 -3.25015e-08 2.8778e-08)
(1.59378e-08 -3.84917e-08 3.59139e-08)
(1.84739e-08 -4.47036e-08 4.42801e-08)
(2.12786e-08 -5.1072e-08 5.41173e-08)
(2.44626e-08 -5.74275e-08 6.56456e-08)
(2.81367e-08 -6.34539e-08 7.90202e-08)
(3.24206e-08 -6.8629e-08 9.42916e-08)
(3.73996e-08 -7.21397e-08 1.11274e-07)
(4.31076e-08 -7.28317e-08 1.29397e-07)
(4.96341e-08 -6.93897e-08 1.47363e-07)
(5.66676e-08 -6.24265e-08 1.61773e-07)
(1.78882e-09 -3.97921e-09 3.11372e-09)
(4.98398e-09 -1.11479e-08 8.80076e-09)
(7.90771e-09 -1.78712e-08 1.43558e-08)
(1.06567e-08 -2.44257e-08 2.01274e-08)
(1.33202e-08 -3.10323e-08 2.64297e-08)
(1.59867e-08 -3.78618e-08 3.35606e-08)
(1.87485e-08 -4.50342e-08 4.18086e-08)
(2.17083e-08 -5.26184e-08 5.14607e-08)
(2.49851e-08 -6.06285e-08 6.2805e-08)
(2.87164e-08 -6.90108e-08 7.61204e-08)
(3.30529e-08 -7.76201e-08 9.1652e-08)
(3.81561e-08 -8.61604e-08 1.09571e-07)
(4.41546e-08 -9.4046e-08 1.29897e-07)
(5.10293e-08 -1.00035e-07 1.52261e-07)
(5.84559e-08 -1.01501e-07 1.75267e-07)
(6.50733e-08 -9.5489e-08 1.9391e-07)
(2.03135e-09 -4.37928e-09 3.5031e-09)
(5.65772e-09 -1.2275e-08 9.89641e-09)
(8.97011e-09 -1.96987e-08 1.61272e-08)
(1.20746e-08 -2.69658e-08 2.25767e-08)
(1.50707e-08 -3.43368e-08 2.95897e-08)
(1.80566e-08 -4.20225e-08 3.74892e-08)
(2.11369e-08 -5.01893e-08 4.65885e-08)
(2.44309e-08 -5.8966e-08 5.72006e-08)
(2.80832e-08 -6.84519e-08 6.96461e-08)
(3.22745e-08 -7.87235e-08 8.42523e-08)
(3.72452e-08 -8.98438e-08 1.01354e-07)
(4.33289e-08 -1.01864e-07 1.21296e-07)
(5.10246e-08 -1.14795e-07 1.44459e-07)
(6.10249e-08 -1.28385e-07 1.71174e-07)
(7.40368e-08 -1.41243e-07 2.01103e-07)
(8.78845e-08 -1.4867e-07 2.28555e-07)
(2.23725e-09 -4.6251e-09 3.81932e-09)
(6.22832e-09 -1.29717e-08 1.07835e-08)
(9.86563e-09 -2.08393e-08 1.75517e-08)
(1.32614e-08 -2.85747e-08 2.45274e-08)
(1.65195e-08 -3.64672e-08 3.207e-08)
(1.97443e-08 -4.476e-08 4.05157e-08)
(2.30469e-08 -5.36571e-08 5.01865e-08)
(2.6556e-08 -6.3336e-08 6.1402e-08)
(3.04325e-08 -7.39626e-08 7.44893e-08)
(3.48883e-08 -8.5713e-08 8.97884e-08)
(4.023e-08 -9.88083e-08 1.07668e-07)
(4.69431e-08 -1.13587e-07 1.28573e-07)
(5.58772e-08 -1.30649e-07 1.53142e-07)
(6.86208e-08 -1.5114e-07 1.82422e-07)
(8.80946e-08 -1.76998e-07 2.17982e-07)
(1.14459e-07 -2.06686e-07 2.56338e-07)
(1.78073e-10 -4.33336e-10 3.05034e-10)
(4.96129e-10 -1.21185e-09 8.62972e-10)
(7.86807e-10 -1.93632e-09 1.40946e-09)
(1.0596e-09 -2.63332e-09 1.98041e-09)
(1.3225e-09 -3.32203e-09 2.6074e-09)
(1.58271e-09 -4.01173e-09 3.31993e-09)
(1.84708e-09 -4.7012e-09 4.1456e-09)
(2.12301e-09 -5.37599e-09 5.11011e-09)
(2.42077e-09 -6.00122e-09 6.23566e-09)
(2.75872e-09 -6.51141e-09 7.53965e-09)
(3.17658e-09 -6.78467e-09 9.02888e-09)
(3.76547e-09 -6.59842e-09 1.06997e-08)
(4.75975e-09 -5.49701e-09 1.25535e-08)
(6.65137e-09 -2.49667e-09 1.46083e-08)
(1.03034e-08 4.39753e-09 1.68407e-08)
(1.53118e-08 1.59225e-08 1.81562e-08)
(5.30684e-10 -1.28635e-09 9.06994e-10)
(1.47812e-09 -3.59779e-09 2.56468e-09)
(2.34418e-09 -5.75e-09 4.18893e-09)
(3.15635e-09 -7.82297e-09 5.88402e-09)
(3.93858e-09 -9.87318e-09 7.74405e-09)
(4.71224e-09 -1.19312e-08 9.85623e-09)
(5.49721e-09 -1.39978e-08 1.23017e-08)
(6.31405e-09 -1.60351e-08 1.51551e-08)
(7.18824e-09 -1.79531e-08 1.84807e-08)
(8.16002e-09 -1.95777e-08 2.23203e-08)
(9.30641e-09 -2.0613e-08 2.66742e-08)
(1.08025e-08 -2.05702e-08 3.14724e-08)
(1.29942e-08 -1.86994e-08 3.6507e-08)
(1.64921e-08 -1.3986e-08 4.13054e-08)
(2.17123e-08 -5.87894e-09 4.46925e-08)
(2.67078e-08 2.43564e-09 4.44904e-08)
(8.73352e-10 -2.10046e-09 1.48613e-09)
(2.43249e-09 -5.87648e-09 4.20182e-09)
(3.85749e-09 -9.39719e-09 6.86118e-09)
(5.19334e-09 -1.2795e-08 9.63381e-09)
(6.47976e-09 -1.6167e-08 1.26736e-08)
(7.75202e-09 -1.95706e-08 1.61222e-08)
(9.04254e-09 -2.30191e-08 2.01125e-08)
(1.03828e-08 -2.64715e-08 2.47673e-08)
(1.18057e-08 -2.98122e-08 3.01917e-08)
(1.33508e-08 -3.28224e-08 3.64549e-08)
(1.50762e-08 -3.51383e-08 4.35503e-08)
(1.70903e-08 -3.62305e-08 5.13363e-08)
(1.95968e-08 -3.54567e-08 5.94296e-08)
(2.28791e-08 -3.24087e-08 6.70109e-08)
(2.69193e-08 -2.79809e-08 7.25169e-08)
(3.00474e-08 -2.58157e-08 7.38328e-08)
(1.19965e-09 -2.84976e-09 2.02855e-09)
(3.34135e-09 -7.97599e-09 5.73509e-09)
(5.29799e-09 -1.27641e-08 9.36051e-09)
(7.13167e-09 -1.73989e-08 1.31359e-08)
(8.89695e-09 -2.20201e-08 1.72682e-08)
(1.06432e-08 -2.67194e-08 2.19497e-08)
(1.24157e-08 -3.15363e-08 2.73612e-08)
(1.4257e-08 -3.64487e-08 3.36717e-08)
(1.62053e-08 -4.1356e-08 4.10303e-08)
(1.82883e-08 -4.60493e-08 4.95383e-08)
(2.05144e-08 -5.01844e-08 5.92022e-08)
(2.28635e-08 -5.32708e-08 6.98518e-08)
(2.52342e-08 -5.47561e-08 8.09737e-08)
(2.73876e-08 -5.43646e-08 9.14755e-08)
(2.87663e-08 -5.29194e-08 9.93017e-08)
(2.84535e-08 -5.28954e-08 1.01718e-07)
(1.50374e-09 -3.50888e-09 2.52264e-09)
(4.18771e-09 -9.82526e-09 7.12943e-09)
(6.63854e-09 -1.57369e-08 1.163e-08)
(8.9335e-09 -2.14798e-08 1.63068e-08)
(1.11416e-08 -2.72378e-08 2.14138e-08)
(1.33263e-08 -3.31427e-08 2.71871e-08)
(1.55473e-08 -3.92722e-08 3.38498e-08)
(1.78617e-08 -4.56444e-08 4.1614e-08)
(2.03194e-08 -5.2205e-08 5.06719e-08)
(2.29504e-08 -5.88075e-08 6.11696e-08)
(2.57459e-08 -6.51833e-08 7.31633e-08)
(2.858e-08 -7.09161e-08 8.64963e-08)
(3.11269e-08 -7.54324e-08 1.00662e-07)
(3.26445e-08 -7.81077e-08 1.14399e-07)
(3.19284e-08 -7.87368e-08 1.25171e-07)
(2.84814e-08 -7.86633e-08 1.29239e-07)
(1.78014e-09 -4.05341e-09 2.95849e-09)
(4.95636e-09 -1.13551e-08 8.3577e-09)
(7.85407e-09 -1.82044e-08 1.36228e-08)
(1.05639e-08 -2.48845e-08 1.90793e-08)
(1.31678e-08 -3.16221e-08 2.50181e-08)
(1.57425e-08 -3.85917e-08 3.17103e-08)
(1.83635e-08 -4.59157e-08 3.94132e-08)
(2.11069e-08 -5.36655e-08 4.83742e-08)
(2.40477e-08 -6.18579e-08 5.88255e-08)
(2.72511e-08 -7.04443e-08 7.09654e-08)
(3.07462e-08 -7.92926e-08 8.49117e-08)
(3.44714e-08 -8.81412e-08 1.00621e-07)
(3.81142e-08 -9.64992e-08 1.17699e-07)
(4.08092e-08 -1.03413e-07 1.34992e-07)
(4.07205e-08 -1.07193e-07 1.49763e-07)
(3.61064e-08 -1.06474e-07 1.57082e-07)
(2.02414e-09 -4.46046e-09 3.32888e-09)
(5.63418e-09 -1.25017e-08 9.39964e-09)
(8.92321e-09 -2.00627e-08 1.5306e-08)
(1.19923e-08 -2.74674e-08 2.14049e-08)
(1.49336e-08 -3.49808e-08 2.80145e-08)
(1.78355e-08 -4.28168e-08 3.54294e-08)
(2.0788e-08 -5.11422e-08 4.39296e-08)
(2.38877e-08 -6.00843e-08 5.37852e-08)
(2.72414e-08 -6.97362e-08 6.52557e-08)
(3.09709e-08 -8.01636e-08 7.85801e-08)
(3.52106e-08 -9.14088e-08 9.39439e-08)
(4.0099e-08 -1.03485e-07 1.11428e-07)
(4.5712e-08 -1.16328e-07 1.30861e-07)
(5.18549e-08 -1.29561e-07 1.51429e-07)
(5.7376e-08 -1.41764e-07 1.70604e-07)
(5.90228e-08 -1.49049e-07 1.82184e-07)
(2.23215e-09 -4.7104e-09 3.62991e-09)
(6.21105e-09 -1.32097e-08 1.02439e-08)
(9.8296e-09 -2.12221e-08 1.66612e-08)
(1.31954e-08 -2.91018e-08 2.32584e-08)
(1.64069e-08 -3.71435e-08 3.03686e-08)
(1.95601e-08 -4.55923e-08 3.8298e-08)
(2.27546e-08 -5.46512e-08 4.73349e-08)
(2.61011e-08 -6.44923e-08 5.77548e-08)
(2.97316e-08 -7.52697e-08 6.98225e-08)
(3.38135e-08 -8.71367e-08 8.37871e-08)
(3.85735e-08 -1.00272e-07 9.98603e-08)
(4.43412e-08 -1.14924e-07 1.18188e-07)
(5.16176e-08 -1.31493e-07 1.38763e-07)
(6.11802e-08 -1.5063e-07 1.61129e-07)
(7.38738e-08 -1.72953e-07 1.83315e-07)
(8.76425e-08 -1.95234e-07 1.98626e-07)
(1.7577e-10 -4.40407e-10 2.77999e-10)
(4.8903e-10 -1.23167e-09 7.85907e-10)
(7.73859e-10 -1.96825e-09 1.28311e-09)
(1.03802e-09 -2.67729e-09 1.80058e-09)
(1.28805e-09 -3.37869e-09 2.36699e-09)
(1.52853e-09 -4.0829e-09 3.00754e-09)
(1.76221e-09 -4.79114e-09 3.74517e-09)
(1.98994e-09 -5.49161e-09 4.59889e-09)
(2.21056e-09 -6.15917e-09 5.58341e-09)
(2.42182e-09 -6.74315e-09 6.70095e-09)
(2.62343e-09 -7.16266e-09 7.93447e-09)
(2.8266e-09 -7.28329e-09 9.22844e-09)
(3.05146e-09 -6.88895e-09 1.04493e-08)
(3.32292e-09 -5.59448e-09 1.1325e-08)
(3.44129e-09 -2.81608e-09 1.12143e-08)
(2.59338e-09 1.31843e-09 9.03076e-09)
(5.2389e-10 -1.3071e-09 8.26338e-10)
(1.45767e-09 -3.65596e-09 2.33606e-09)
(2.30632e-09 -5.84352e-09 3.8125e-09)
(3.09374e-09 -7.95163e-09 5.34946e-09)
(3.83887e-09 -1.0039e-08 7.03002e-09)
(4.5557e-09 -1.21396e-08 8.92922e-09)
(5.25255e-09 -1.42587e-08 1.11138e-08)
(5.93148e-09 -1.63694e-08 1.36416e-08)
(6.58653e-09 -1.83996e-08 1.65514e-08)
(7.20346e-09 -2.02206e-08 1.98495e-08)
(7.76189e-09 -2.16236e-08 2.34739e-08)
(8.23636e-09 -2.23176e-08 2.72316e-08)
(8.60877e-09 -2.1947e-08 3.06972e-08)
(8.77164e-09 -2.02488e-08 3.29667e-08)
(8.2717e-09 -1.75508e-08 3.24001e-08)
(6.33404e-09 -1.57142e-08 2.77805e-08)
(8.62718e-10 -2.13394e-09 1.35395e-09)
(2.40052e-09 -5.97007e-09 3.82739e-09)
(3.79839e-09 -9.54781e-09 6.24472e-09)
(5.09582e-09 -1.3002e-08 8.7592e-09)
(6.32472e-09 -1.64333e-08 1.1506e-08)
(7.50901e-09 -1.9903e-08 1.46072e-08)
(8.6639e-09 -2.34313e-08 1.81733e-08)
(9.79302e-09 -2.69883e-08 2.22985e-08)
(1.08843e-08 -3.04851e-08 2.70514e-08)
(1.19004e-08 -3.37513e-08 3.24453e-08)
(1.27682e-08 -3.65304e-08 3.83909e-08)
(1.33628e-08 -3.84998e-08 4.4606e-08)
(1.34774e-08 -3.93967e-08 5.04708e-08)
(1.27559e-08 -3.93678e-08 5.48157e-08)
(1.06292e-08 -3.95738e-08 5.58334e-08)
(7.0671e-09 -4.17865e-08 5.26587e-08)
(1.18629e-09 -2.89448e-09 1.84873e-09)
(3.30075e-09 -8.10147e-09 5.22371e-09)
(5.2232e-09 -1.29653e-08 8.52046e-09)
(7.00833e-09 -1.76751e-08 1.19446e-08)
(8.7011e-09 -2.23737e-08 1.5679e-08)
(1.0337e-08 -2.71571e-08 1.98897e-08)
(1.19403e-08 -3.20702e-08 2.47271e-08)
(1.35206e-08 -3.7102e-08 3.03235e-08)
(1.50622e-08 -4.21714e-08 3.67771e-08)
(1.65077e-08 -4.71145e-08 4.41237e-08)
(1.77225e-08 -5.1675e-08 5.22703e-08)
(1.84395e-08 -5.55357e-08 6.08904e-08)
(1.81829e-08 -5.8449e-08 6.92829e-08)
(1.61703e-08 -6.05672e-08 7.61181e-08)
(1.15232e-08 -6.2896e-08 7.94096e-08)
(5.04953e-09 -6.64602e-08 7.79558e-08)
(1.48874e-09 -3.56336e-09 2.29901e-09)
(4.14223e-09 -9.97746e-09 6.49495e-09)
(6.55467e-09 -1.5981e-08 1.05877e-08)
(8.79514e-09 -2.18139e-08 1.483e-08)
(1.09222e-08 -2.76633e-08 1.94462e-08)
(1.29841e-08 -3.36639e-08 2.46397e-08)
(1.50181e-08 -3.98968e-08 3.05974e-08)
(1.70459e-08 -4.63843e-08 3.74852e-08)
(1.90629e-08 -5.30838e-08 4.54361e-08)
(2.10121e-08 -5.98713e-08 5.45156e-08)
(2.27307e-08 -6.65305e-08 6.46471e-08)
(2.38743e-08 -7.27504e-08 7.55366e-08)
(2.37295e-08 -7.81624e-08 8.64348e-08)
(2.10712e-08 -8.24849e-08 9.59368e-08)
(1.4443e-08 -8.58408e-08 1.01802e-07)
(5.04958e-09 -8.87981e-08 1.02195e-07)
(1.76471e-09 -4.11551e-09 2.69645e-09)
(4.90977e-09 -1.15287e-08 7.61511e-09)
(7.76782e-09 -1.84822e-08 1.2404e-08)
(1.04216e-08 -2.52636e-08 1.73544e-08)
(1.2942e-08 -3.21024e-08 2.27232e-08)
(1.53911e-08 -3.91739e-08 2.87446e-08)
(1.78222e-08 -4.66001e-08 3.56339e-08)
(2.02778e-08 -5.44503e-08 4.35864e-08)
(2.27795e-08 -6.27374e-08 5.2764e-08)
(2.53073e-08 -7.14107e-08 6.32641e-08)
(2.77525e-08 -8.03382e-08 7.5059e-08)
(2.98191e-08 -8.92726e-08 8.78832e-08)
(3.08194e-08 -9.77732e-08 1.01041e-07)
(2.93651e-08 -1.05037e-07 1.13085e-07)
(2.33173e-08 -1.09715e-07 1.21554e-07)
(1.2695e-08 -1.10532e-07 1.23976e-07)
(2.00957e-09 -4.52804e-09 3.03472e-09)
(5.58976e-09 -1.26904e-08 8.56599e-09)
(8.84085e-09 -2.03644e-08 1.39391e-08)
(1.18558e-08 -2.78782e-08 1.94735e-08)
(1.47169e-08 -3.54987e-08 2.54497e-08)
(1.74988e-08 -4.34388e-08 3.21231e-08)
(2.02713e-08 -5.18612e-08 3.9728e-08)
(2.31001e-08 -6.08832e-08 4.84772e-08)
(2.60455e-08 -7.05814e-08 5.85531e-08)
(2.9151e-08 -8.09923e-08 7.00769e-08)
(3.24244e-08 -9.21079e-08 8.30569e-08)
(3.57794e-08 -1.03854e-07 9.72755e-08)
(3.89037e-08 -1.16011e-07 1.12083e-07)
(4.09964e-08 -1.27967e-07 1.25987e-07)
(4.04077e-08 -1.38118e-07 1.36147e-07)
(3.56438e-08 -1.43143e-07 1.39174e-07)
(2.21925e-09 -4.78109e-09 3.30974e-09)
(6.17174e-09 -1.34071e-08 9.33716e-09)
(9.756e-09 -2.15374e-08 1.51764e-08)
(1.30727e-08 -2.95303e-08 2.11639e-08)
(1.62114e-08 -3.76818e-08 2.75945e-08)
(1.92561e-08 -4.62344e-08 3.47333e-08)
(2.2289e-08 -5.53836e-08 4.28219e-08)
(2.53954e-08 -6.52864e-08 5.20773e-08)
(2.86668e-08 -7.60704e-08 6.26844e-08)
(3.22056e-08 -8.78407e-08 7.47683e-08)
(3.61282e-08 -1.00691e-07 8.83447e-08)
(4.05634e-08 -1.14709e-07 1.03216e-07)
(4.56378e-08 -1.29989e-07 1.18753e-07)
(5.14571e-08 -1.4658e-07 1.33412e-07)
(5.80145e-08 -1.64177e-07 1.43869e-07)
(6.43465e-08 -1.79767e-07 1.45264e-07)
(1.73035e-10 -4.46115e-10 2.41118e-10)
(4.80889e-10 -1.24766e-09 6.81552e-10)
(7.58859e-10 -1.99391e-09 1.11148e-09)
(1.01372e-09 -2.71258e-09 1.5587e-09)
(1.24991e-09 -3.42434e-09 2.0461e-09)
(1.46945e-09 -4.14066e-09 2.59471e-09)
(1.67114e-09 -4.86407e-09 3.22194e-09)
(1.84969e-09 -5.58717e-09 3.94155e-09)
(1.99397e-09 -6.29065e-09 4.76057e-09)
(2.08532e-09 -6.93958e-09 5.67335e-09)
(2.0944e-09 -7.4822e-09 6.6514e-09)
(1.97749e-09 -7.84635e-09 7.62557e-09)
(1.66962e-09 -7.93457e-09 8.47334e-09)
(1.01717e-09 -7.60156e-09 8.97292e-09)
(-3.46567e-10 -6.5817e-09 8.85364e-09)
(-2.77979e-09 -4.62594e-09 7.9903e-09)
(5.15968e-10 -1.3239e-09 7.16812e-10)
(1.4338e-09 -3.70292e-09 2.02538e-09)
(2.26295e-09 -5.91901e-09 3.30369e-09)
(3.02311e-09 -8.0555e-09 4.63082e-09)
(3.72812e-09 -1.01728e-08 6.07716e-09)
(4.38434e-09 -1.23074e-08 7.70346e-09)
(4.98901e-09 -1.44696e-08 9.56175e-09)
(5.52678e-09 -1.66405e-08 1.16923e-08)
(5.96485e-09 -1.87669e-08 1.41149e-08)
(6.24491e-09 -2.07551e-08 1.68118e-08)
(6.27393e-09 -2.24668e-08 1.96934e-08)
(5.92084e-09 -2.37351e-08 2.25578e-08)
(4.99925e-09 -2.4408e-08 2.49994e-08)
(3.27399e-09 -2.44361e-08 2.63636e-08)
(5.54341e-10 -2.39903e-08 2.58188e-08)
(-2.47007e-09 -2.34837e-08 2.35095e-08)
(8.50284e-10 -2.16095e-09 1.17468e-09)
(2.36307e-09 -6.04603e-09 3.31861e-09)
(3.73034e-09 -9.66954e-09 5.41161e-09)
(4.98518e-09 -1.31689e-08 7.58335e-09)
(6.15139e-09 -1.66467e-08 9.94732e-09)
(7.24143e-09 -2.01681e-08 1.26033e-08)
(8.25358e-09 -2.3758e-08 1.56369e-08)
(9.16615e-09 -2.7398e-08 1.91157e-08)
(9.92776e-09 -3.10194e-08 2.30761e-08)
(1.04408e-08 -3.44947e-08 2.74955e-08)
(1.0542e-08 -3.76446e-08 3.22479e-08)
(9.98196e-09 -4.02765e-08 3.70378e-08)
(8.41995e-09 -4.23016e-08 4.13229e-08)
(5.49728e-09 -4.39588e-08 4.42802e-08)
(1.22349e-09 -4.60134e-08 4.50958e-08)
(-2.81165e-09 -4.89133e-08 4.42281e-08)
(1.17028e-09 -2.93079e-09 1.60357e-09)
(3.25295e-09 -8.2029e-09 4.53065e-09)
(5.13624e-09 -1.31279e-08 7.38492e-09)
(6.86699e-09 -1.78967e-08 1.03426e-08)
(8.48003e-09 -2.26546e-08 1.3557e-08)
(9.99661e-09 -2.75005e-08 1.71632e-08)
(1.14206e-08 -3.24835e-08 2.12793e-08)
(1.2731e-08 -3.76e-08 2.60002e-08)
(1.38673e-08 -4.27859e-08 3.13822e-08)
(1.4704e-08 -4.79096e-08 3.74095e-08)
(1.50138e-08 -5.27751e-08 4.39432e-08)
(1.44227e-08 -5.71641e-08 5.06575e-08)
(1.23599e-08 -6.09473e-08 5.69316e-08)
(8.17173e-09 -6.43148e-08 6.19029e-08)
(1.73332e-09 -6.7935e-08 6.47356e-08)
(-4.59425e-09 -7.19166e-08 6.56215e-08)
(1.47052e-09 -3.6073e-09 1.9948e-09)
(4.08774e-09 -1.01005e-08 5.63391e-09)
(6.45552e-09 -1.61773e-08 9.17828e-09)
(8.63417e-09 -2.20798e-08 1.28434e-08)
(1.06709e-08 -2.79971e-08 1.6817e-08)
(1.25983e-08 -3.4065e-08 2.12655e-08)
(1.44318e-08 -4.03649e-08 2.63356e-08)
(1.61609e-08 -4.69214e-08 3.21477e-08)
(1.77335e-08 -5.36961e-08 3.87796e-08)
(1.90242e-08 -6.05773e-08 4.62296e-08)
(1.97895e-08 -6.73746e-08 5.43774e-08)
(1.95731e-08 -7.3818e-08 6.28609e-08)
(1.76233e-08 -7.95933e-08 7.10686e-08)
(1.29018e-08 -8.44258e-08 7.80768e-08)
(4.79099e-09 -8.8237e-08 8.2965e-08)
(-4.02437e-09 -9.10512e-08 8.55323e-08)
(1.74563e-09 -4.1655e-09 2.34032e-09)
(4.8524e-09 -1.16683e-08 6.60679e-09)
(7.66356e-09 -1.87043e-08 1.07549e-08)
(1.02523e-08 -2.55629e-08 1.50323e-08)
(1.26782e-08 -3.24742e-08 1.96544e-08)
(1.49876e-08 -3.96124e-08 2.48128e-08)
(1.7212e-08 -4.70957e-08 3.06771e-08)
(1.93619e-08 -5.49867e-08 3.73884e-08)
(2.14135e-08 -6.32882e-08 4.50426e-08)
(2.32834e-08 -7.19346e-08 5.36585e-08)
(2.47793e-08 -8.07738e-08 6.31168e-08)
(2.55124e-08 -8.95285e-08 7.30775e-08)
(2.47516e-08 -9.77121e-08 8.28805e-08)
(2.13096e-08 -1.04459e-07 9.15295e-08)
(1.39213e-08 -1.08323e-07 9.7951e-08)
(4.14888e-09 -1.08001e-07 1.01717e-07)
(1.9907e-09 -4.5822e-09 2.63425e-09)
(5.53325e-09 -1.28415e-08 7.43317e-09)
(8.73789e-09 -2.06041e-08 1.20882e-08)
(1.16887e-08 -2.81994e-08 1.6871e-08)
(1.44569e-08 -3.58942e-08 2.20171e-08)
(1.71024e-08 -4.38975e-08 2.77355e-08)
(1.96744e-08 -5.23636e-08 3.42107e-08)
(2.22096e-08 -6.13951e-08 4.15965e-08)
(2.47256e-08 -7.10437e-08 4.99996e-08)
(2.72086e-08 -8.13055e-08 5.94489e-08)
(2.95865e-08 -9.21069e-08 6.98293e-08)
(3.16786e-08 -1.03266e-07 8.07888e-08)
(3.3107e-08 -1.14398e-07 9.16007e-08)
(3.3211e-08 -1.24679e-07 1.01064e-07)
(3.11439e-08 -1.32386e-07 1.07685e-07)
(2.7078e-08 -1.34803e-07 1.10806e-07)
(2.20172e-09 -4.83747e-09 2.87348e-09)
(6.11899e-09 -1.35643e-08 8.10387e-09)
(9.65984e-09 -2.17863e-08 1.31635e-08)
(1.29164e-08 -2.98628e-08 1.8339e-08)
(1.59684e-08 -3.80882e-08 2.38777e-08)
(1.88865e-08 -4.66993e-08 2.99974e-08)
(2.17349e-08 -5.58797e-08 3.68881e-08)
(2.45729e-08 -6.57657e-08 4.47057e-08)
(2.74552e-08 -7.64491e-08 5.35564e-08)
(3.04328e-08 -8.79774e-08 6.34657e-08)
(3.35498e-08 -1.00348e-07 7.43102e-08)
(3.6839e-08 -1.13493e-07 8.57122e-08)
(4.03293e-08 -1.27255e-07 9.68652e-08)
(4.41512e-08 -1.41362e-07 1.06319e-07)
(4.88309e-08 -1.55317e-07 1.11899e-07)
(5.49285e-08 -1.67224e-07 1.12155e-07)
(1.70275e-10 -4.50481e-10 1.95989e-10)
(4.72555e-10 -1.25979e-09 5.53465e-10)
(7.43932e-10 -2.01315e-09 9.02828e-10)
(9.89625e-10 -2.73955e-09 1.26439e-09)
(1.21262e-09 -3.45886e-09 1.65798e-09)
(1.41255e-09 -4.1843e-09 2.09889e-09)
(1.58507e-09 -4.91899e-09 2.59966e-09)
(1.7202e-09 -5.6589e-09 3.16973e-09)
(1.80044e-09 -6.38801e-09 3.81102e-09)
(1.79767e-09 -7.08248e-09 4.51621e-09)
(1.67051e-09 -7.70416e-09 5.25799e-09)
(1.36155e-09 -8.20792e-09 5.98579e-09)
(7.84663e-10 -8.53389e-09 6.61023e-09)
(-2.09641e-10 -8.57489e-09 7.0505e-09)
(-1.93463e-09 -8.05524e-09 7.28487e-09)
(-4.5306e-09 -6.48622e-09 7.4067e-09)
(5.07872e-10 -1.33673e-09 5.82488e-10)
(1.40973e-09 -3.73871e-09 1.64598e-09)
(2.21945e-09 -5.97684e-09 2.68259e-09)
(2.95315e-09 -8.13448e-09 3.75761e-09)
(3.61986e-09 -1.02749e-08 4.9253e-09)
(4.21929e-09 -1.2435e-08 6.23222e-09)
(4.73964e-09 -1.46287e-08 7.71636e-09)
(5.15277e-09 -1.68427e-08 9.40363e-09)
(5.40825e-09 -1.90374e-08 1.13025e-08)
(5.424e-09 -2.11384e-08 1.33868e-08)
(5.08056e-09 -2.30452e-08 1.55777e-08)
(4.21823e-09 -2.46402e-08 1.7708e-08)
(2.6609e-09 -2.58151e-08 1.95199e-08)
(2.84664e-10 -2.64796e-08 2.06471e-08)
(-2.73651e-09 -2.65068e-08 2.0782e-08)
(-5.24571e-09 -2.57587e-08 2.01095e-08)
(8.37531e-10 -2.18177e-09 9.54715e-10)
(2.32523e-09 -6.10441e-09 2.69718e-09)
(3.66202e-09 -9.76283e-09 4.3956e-09)
(4.87537e-09 -1.32966e-08 6.15452e-09)
(5.98136e-09 -1.68086e-08 8.06309e-09)
(6.98275e-09 -2.03666e-08 1.01975e-08)
(7.86395e-09 -2.39992e-08 1.26202e-08)
(8.58483e-09 -2.76954e-08 1.53764e-08)
(9.06839e-09 -3.13984e-08 1.84814e-08)
(9.18705e-09 -3.5006e-08 2.19009e-08)
(8.74685e-09 -3.83747e-08 2.55186e-08)
(7.48655e-09 -4.13567e-08 2.91035e-08)
(5.12267e-09 -4.38779e-08 3.22872e-08)
(1.53849e-09 -4.60641e-08 3.46367e-08)
(-2.71771e-09 -4.83011e-08 3.58891e-08)
(-5.68291e-09 -5.06465e-08 3.63822e-08)
(1.15395e-09 -2.95875e-09 1.30404e-09)
(3.20424e-09 -8.28127e-09 3.6825e-09)
(5.04852e-09 -1.32529e-08 5.99968e-09)
(6.72583e-09 -1.80654e-08 8.39559e-09)
(8.26199e-09 -2.28661e-08 1.09909e-08)
(9.66571e-09 -2.77543e-08 1.3889e-08)
(1.09244e-08 -3.27817e-08 1.71766e-08)
(1.19947e-08 -3.79482e-08 2.09172e-08)
(1.27878e-08 -4.31985e-08 2.51379e-08)
(1.3147e-08 -4.84153e-08 2.98045e-08)
(1.28216e-08 -5.34261e-08 3.4788e-08)
(1.14427e-08 -5.80309e-08 3.98083e-08)
(8.56054e-09 -6.20879e-08 4.44781e-08)
(3.85381e-09 -6.56609e-08 4.83389e-08)
(-2.1838e-09 -6.91156e-08 5.11421e-08)
(-6.98469e-09 -7.24049e-08 5.29671e-08)
(1.45172e-09 -3.64126e-09 1.62227e-09)
(4.03172e-09 -1.01953e-08 4.58047e-09)
(6.35458e-09 -1.63275e-08 7.45836e-09)
(8.47208e-09 -2.22813e-08 1.04277e-08)
(1.04207e-08 -2.82451e-08 1.3636e-08)
(1.22201e-08 -3.4355e-08 1.72113e-08)
(1.38672e-08 -4.06908e-08 2.1261e-08)
(1.53285e-08 -4.72756e-08 2.58666e-08)
(1.65228e-08 -5.40682e-08 3.10671e-08)
(1.72974e-08 -6.09563e-08 3.68371e-08)
(1.73861e-08 -6.77444e-08 4.3027e-08)
(1.63704e-08 -7.41529e-08 4.93689e-08)
(1.36427e-08 -7.98225e-08 5.54199e-08)
(8.56258e-09 -8.43705e-08 6.07144e-08)
(1.1652e-09 -8.75346e-08 6.49659e-08)
(-5.78289e-09 -8.9384e-08 6.79821e-08)
(1.72557e-09 -4.20406e-09 1.90339e-09)
(4.79276e-09 -1.17758e-08 5.37265e-09)
(7.55614e-09 -1.88737e-08 8.74137e-09)
(1.00797e-08 -2.57874e-08 1.22071e-08)
(1.24128e-08 -3.27468e-08 1.59395e-08)
(1.45877e-08 -3.99227e-08 2.00858e-08)
(1.66181e-08 -4.74277e-08 2.47706e-08)
(1.84911e-08 -5.53145e-08 3.00887e-08)
(2.01564e-08 -6.35718e-08 3.60898e-08)
(2.1503e-08 -7.21115e-08 4.27481e-08)
(2.23267e-08 -8.0747e-08 4.99221e-08)
(2.2274e-08 -8.91485e-08 5.73015e-08)
(2.0778e-08 -9.67554e-08 6.4406e-08)
(1.70645e-08 -1.02612e-07 7.06765e-08)
(1.05481e-08 -1.05242e-07 7.57472e-08)
(2.86131e-09 -1.03686e-07 7.93811e-08)
(1.97056e-09 -4.62383e-09 2.14301e-09)
(5.47336e-09 -1.29572e-08 6.04581e-09)
(8.62999e-09 -2.07856e-08 9.82683e-09)
(1.15159e-08 -2.84386e-08 1.37026e-08)
(1.41914e-08 -3.61801e-08 1.78589e-08)
(1.67038e-08 -4.42142e-08 2.24564e-08)
(1.9085e-08 -5.26852e-08 2.76306e-08)
(2.13504e-08 -6.16787e-08 3.34841e-08)
(2.34923e-08 -7.12199e-08 4.00709e-08)
(2.54718e-08 -8.12627e-08 4.73632e-08)
(2.72044e-08 -9.167e-08 5.52061e-08)
(2.85399e-08 -1.0217e-07 6.32493e-08)
(2.92449e-08 -1.12263e-07 7.09072e-08)
(2.90394e-08 -1.21044e-07 7.74117e-08)
(2.77395e-08 -1.26911e-07 8.21265e-08)
(2.5655e-08 -1.27881e-07 8.49499e-08)
(2.18252e-09 -4.88067e-09 2.33803e-09)
(6.06183e-09 -1.36843e-08 6.59243e-09)
(9.55689e-09 -2.19739e-08 1.07024e-08)
(1.27514e-08 -3.01082e-08 1.48974e-08)
(1.57157e-08 -3.83783e-08 1.9372e-08)
(1.85083e-08 -4.70135e-08 2.42942e-08)
(2.11782e-08 -5.61843e-08 2.98031e-08)
(2.3765e-08 -6.60046e-08 3.60019e-08)
(2.63014e-08 -7.6531e-08 4.29421e-08)
(2.88142e-08 -8.77566e-08 5.05867e-08)
(3.13328e-08 -9.95966e-08 5.87611e-08)
(3.39062e-08 -1.1187e-07 6.70695e-08)
(3.66692e-08 -1.24289e-07 7.48136e-08)
(4.00504e-08 -1.36501e-07 8.09628e-08)
(4.51579e-08 -1.48229e-07 8.4381e-08)
(5.28398e-08 -1.58559e-07 8.47518e-08)
(1.67814e-10 -4.53467e-10 1.44351e-10)
(4.65311e-10 -1.2681e-09 4.07995e-10)
(7.30855e-10 -2.02679e-09 6.64257e-10)
(9.68773e-10 -2.75724e-09 9.30296e-10)
(1.18085e-09 -3.48347e-09 1.21881e-09)
(1.36475e-09 -4.2153e-09 1.54083e-09)
(1.51393e-09 -4.95791e-09 1.90476e-09)
(1.61576e-09 -5.70799e-09 2.31606e-09)
(1.64953e-09 -6.45345e-09 2.77547e-09)
(1.58437e-09 -7.1726e-09 3.2758e-09)
(1.37852e-09 -7.83448e-09 3.7979e-09)
(9.78922e-10 -8.39785e-09 4.30647e-09)
(3.16726e-10 -8.80398e-09 4.76625e-09)
(-7.24475e-10 -8.92344e-09 5.14321e-09)
(-2.4158e-09 -8.44111e-09 5.4973e-09)
(-4.88647e-09 -6.81369e-09 5.87175e-09)
(5.00772e-10 -1.34572e-09 4.29415e-10)
(1.38858e-09 -3.7641e-09 1.21233e-09)
(2.18146e-09 -6.01657e-09 1.97543e-09)
(2.89289e-09 -8.1919e-09 2.76525e-09)
(3.5272e-09 -1.03471e-08 3.62112e-09)
(4.07992e-09 -1.25243e-08 4.57556e-09)
(4.53264e-09 -1.47381e-08 5.65369e-09)
(4.84992e-09 -1.69792e-08 6.87167e-09)
(4.97257e-09 -1.92127e-08 8.23136e-09)
(4.81278e-09 -2.13749e-08 9.71066e-09)
(4.25255e-09 -2.33746e-08 1.12495e-08)
(3.15639e-09 -2.51003e-08 1.27489e-08)
(1.41071e-09 -2.64194e-08 1.40486e-08)
(-9.88209e-10 -2.71583e-08 1.49777e-08)
(-3.70803e-09 -2.70157e-08 1.53858e-08)
(-5.6565e-09 -2.58023e-08 1.52573e-08)
(8.26358e-10 -2.19664e-09 7.03828e-10)
(2.29192e-09 -6.14588e-09 1.98706e-09)
(3.60257e-09 -9.83038e-09 3.23741e-09)
(4.78005e-09 -1.33866e-08 4.52986e-09)
(5.83566e-09 -1.69235e-08 5.92897e-09)
(6.76382e-09 -2.05057e-08 7.48749e-09)
(7.53995e-09 -2.41646e-08 9.24752e-09)
(8.11254e-09 -2.78922e-08 1.12368e-08)
(8.39377e-09 -3.16384e-08 1.34607e-08)
(8.24965e-09 -3.5308e-08 1.58872e-08)
(7.49632e-09 -3.87656e-08 1.84321e-08)
(5.91864e-09 -4.1859e-08 2.09421e-08)
(3.34881e-09 -4.4461e-08 2.32059e-08)
(-1.32129e-10 -4.65744e-08 2.50037e-08)
(-3.7682e-09 -4.83857e-08 2.62092e-08)
(-5.81105e-09 -5.00111e-08 2.68618e-08)
(1.13952e-09 -2.97902e-09 9.60978e-10)
(3.1614e-09 -8.33781e-09 2.71407e-09)
(4.97151e-09 -1.3342e-08 4.41975e-09)
(6.60337e-09 -1.81869e-08 6.18081e-09)
(8.07415e-09 -2.30147e-08 8.08301e-09)
(9.38427e-09 -2.79288e-08 1.01991e-08)
(1.05096e-08 -3.29798e-08 1.25872e-08)
(1.13937e-08 -3.81689e-08 1.52872e-08)
(1.1936e-08 -4.34413e-08 1.83099e-08)
(1.19763e-08 -4.86813e-08 2.16207e-08)
(1.12835e-08 -5.37125e-08 2.51175e-08)
(9.56297e-09 -5.83162e-08 2.86269e-08)
(6.51728e-09 -6.22892e-08 3.19062e-08)
(2.08096e-09 -6.55694e-08 3.47317e-08)
(-3.03681e-09 -6.8374e-08 3.69703e-08)
(-6.63848e-09 -7.08266e-08 3.84599e-08)
(1.43499e-09 -3.66576e-09 1.19595e-09)
(3.98224e-09 -1.0264e-08 3.37644e-09)
(6.26595e-09 -1.64363e-08 5.49562e-09)
(8.33011e-09 -2.24237e-08 7.67811e-09)
(1.02043e-08 -2.8418e-08 1.00298e-08)
(1.18969e-08 -3.45511e-08 1.26402e-08)
(1.3393e-08 -4.09012e-08 1.55822e-08)
(1.46453e-08 -4.74866e-08 1.89061e-08)
(1.55619e-08 -5.42602e-08 2.26291e-08)
(1.59889e-08 -6.10989e-08 2.67134e-08)
(1.56927e-08 -6.77914e-08 3.10571e-08)
(1.43368e-08 -7.40191e-08 3.5454e-08)
(1.15054e-08 -7.93661e-08 3.96473e-08)
(6.84158e-09 -8.33566e-08 4.33916e-08)
(5.95739e-10 -8.56602e-08 4.65286e-08)
(-4.94564e-09 -8.65965e-08 4.87238e-08)
(1.70772e-09 -4.23212e-09 1.40372e-09)
(4.73961e-09 -1.18534e-08 3.96117e-09)
(7.46067e-09 -1.89947e-08 6.44208e-09)
(9.92815e-09 -2.59468e-08 8.98984e-09)
(1.21813e-08 -3.29343e-08 1.17258e-08)
(1.42433e-08 -4.01274e-08 1.47534e-08)
(1.61149e-08 -4.76318e-08 1.81568e-08)
(1.77706e-08 -5.54903e-08 2.19946e-08)
(1.91492e-08 -6.36757e-08 2.62867e-08)
(2.01424e-08 -7.20764e-08 3.09973e-08)
(2.05777e-08 -8.04707e-08 3.60059e-08)
(2.01982e-08 -8.84853e-08 4.10862e-08)
(1.86321e-08 -9.55016e-08 4.59224e-08)
(1.54041e-08 -1.00526e-07 5.02042e-08)
(1.01556e-08 -1.02136e-07 5.37342e-08)
(4.00558e-09 -9.97357e-08 5.62054e-08)
(1.95241e-09 -4.65395e-09 1.58057e-09)
(5.41953e-09 -1.30407e-08 4.45818e-09)
(8.53367e-09 -2.09158e-08 7.24308e-09)
(1.1362e-08 -2.8606e-08 1.00924e-08)
(1.3958e-08 -3.63744e-08 1.31396e-08)
(1.63576e-08 -4.44184e-08 1.64974e-08)
(1.85816e-08 -5.28729e-08 2.02571e-08)
(2.06325e-08 -6.18083e-08 2.44814e-08)
(2.24935e-08 -7.12251e-08 2.91902e-08)
(2.41279e-08 -8.10422e-08 3.43418e-08)
(2.54822e-08 -9.10744e-08 3.97986e-08)
(2.64924e-08 -1.00991e-07 4.5288e-08)
(2.7112e-08 -1.10247e-07 5.03993e-08)
(2.7347e-08 -1.17946e-07 5.46732e-08)
(2.72449e-08 -1.22674e-07 5.7768e-08)
(2.66311e-08 -1.2294e-07 5.95976e-08)