/*--------------------------------*- C++ -*----------------------------------*\
| =========                 |                                                 |
| \\      /  F ield         | OpenFOAM: The Open Source CFD Toolbox           |
|  \\    /   O peration     | Version:  v1912                                 |
|   \\  /    A nd           | Website:  www.openfoam.com                      |
|    \\/     M anipulation  |                                                 |
\*---------------------------------------------------------------------------*/
FoamFile
{
    version     2.0;
    format      ascii;
    class       volScalarField;
    location    "0.4/fluid";
    object      p;
}
// * * * * * * * * * * * * * * * * * * * * * * * * * * * * * * * * * * * * * //

dimensions      [0 2 -2 0 0 0 0];


internalField   nonuniform List<scalar> 
14592
(
0.0627981
0.0572473
0.0553974
0.0538216
0.0528529
0.0520364
0.0513343
0.0507032
0.0500949
0.049593
0.0490422
0.0487571
0.0481782
0.0484588
0.047617
0.0499509
0.0585696
0.0568463
0.055204
0.0538767
0.0529219
0.0521093
0.0514007
0.0507704
0.0501683
0.0496822
0.0491536
0.0489149
0.0483833
0.0488292
0.0480061
0.0513653
0.0566344
0.0560094
0.0547827
0.0537781
0.0528868
0.0521029
0.0513912
0.0507577
0.0501544
0.0496753
0.0491642
0.0489701
0.048495
0.0490995
0.0483452
0.0522859
0.0554223
0.0552463
0.0543721
0.0535933
0.052788
0.052045
0.0513406
0.0507061
0.0500985
0.04962
0.0491171
0.0489564
0.0485296
0.0492669
0.0486309
0.0528814
0.0547015
0.0546515
0.053991
0.0533569
0.0526255
0.0519185
0.051219
0.0505737
0.0499435
0.0494351
0.0488949
0.0487006
0.0482323
0.0489859
0.0483481
0.0528317
0.0542077
0.0542
0.0536758
0.0531315
0.0524553
0.0517747
0.0510778
0.0504204
0.0497685
0.0492335
0.0486676
0.0484649
0.0480094
0.0488819
0.0484014
0.0533508
0.0538878
0.0538916
0.0534363
0.0529364
0.0522863
0.0516104
0.0508979
0.0502055
0.0494985
0.0488811
0.0481995
0.0478279
0.0471243
0.0476798
0.046645
0.0515954
0.0536944
0.0537021
0.0532753
0.052791
0.0521461
0.0514616
0.0507277
0.0500004
0.0492481
0.048571
0.0478273
0.0473922
0.0466649
0.0473734
0.0465992
0.0538454
0.0626837
0.0571348
0.0553218
0.0537872
0.0528728
0.0521169
0.0514843
0.0509329
0.0504165
0.0500186
0.0495899
0.0494099
0.0489687
0.0491396
0.0483941
0.0492565
0.0584553
0.0567321
0.0551275
0.0538422
0.0529426
0.0521915
0.0515532
0.0510034
0.0504942
0.0501132
0.0497065
0.0495691
0.0491646
0.049444
0.0486643
0.04998
0.056517
0.0558907
0.0547009
0.0537385
0.0529026
0.0521805
0.0515391
0.0509859
0.0504747
0.0500999
0.0497079
0.0496113
0.0492512
0.0496578
0.0489089
0.0505348
0.0553027
0.055125
0.054287
0.0535495
0.0527991
0.0521173
0.0514824
0.0509272
0.0504104
0.0500353
0.0496489
0.0495845
0.0492646
0.0497904
0.0491262
0.0509539
0.054579
0.0545271
0.0539019
0.0533079
0.05263
0.0519826
0.0513502
0.0507813
0.0502375
0.0498274
0.049395
0.0492896
0.0489083
0.0494393
0.0487211
0.0507382
0.0540821
0.0540727
0.0535829
0.0530776
0.0524534
0.0518305
0.0511982
0.0506142
0.0500446
0.0496043
0.0491406
0.0490275
0.0486504
0.0493183
0.0487291
0.0512133
0.0537585
0.0537605
0.053339
0.0528766
0.0522765
0.0516555
0.0510034
0.0503789
0.0497458
0.0492125
0.0486147
0.0483146
0.0476434
0.0479798
0.0466955
0.049207
0.053561
0.0535671
0.0531734
0.0527255
0.0521286
0.0514964
0.0508194
0.0501554
0.0494709
0.048872
0.0482041
0.0478439
0.047145
0.0477056
0.0466639
0.0516197
0.06261
0.0570625
0.055278
0.0537776
0.0529099
0.0522098
0.0516452
0.0511771
0.0507666
0.0505029
0.0502623
0.0503145
0.0502635
0.0508156
0.050949
0.0519632
0.0583818
0.0566585
0.0550832
0.0538328
0.0529809
0.0522864
0.0517171
0.051252
0.0508507
0.0506063
0.0503912
0.0504893
0.0504816
0.0511376
0.0512802
0.0526405
0.0564403
0.0558129
0.0546518
0.0537241
0.0529363
0.0522711
0.0516988
0.0512303
0.0508265
0.0505884
0.0503873
0.0505276
0.050566
0.0513548
0.0515607
0.0532075
0.0552237
0.0550447
0.0542345
0.0535311
0.0528282
0.0522028
0.0516362
0.0511649
0.0507542
0.0505153
0.0503185
0.0504932
0.050572
0.0514883
0.0517874
0.0536323
0.0544968
0.0544435
0.0538452
0.0532842
0.0526524
0.0520599
0.0514935
0.0510056
0.0505635
0.0502847
0.0500334
0.0501606
0.050161
0.0510778
0.0512859
0.0533129
0.0539968
0.053986
0.0535223
0.053049
0.0524693
0.0518992
0.0513303
0.050824
0.0503513
0.0500373
0.0497459
0.0498605
0.0498466
0.0509025
0.0511894
0.0536848
0.0536693
0.05367
0.0532737
0.052842
0.0522845
0.0517134
0.0511205
0.0505676
0.0500221
0.0496023
0.049154
0.0490544
0.0486815
0.0493529
0.0487478
0.0512226
0.0534678
0.0534727
0.0531035
0.052685
0.0521287
0.0515437
0.0509218
0.0503239
0.0497188
0.0492228
0.0486865
0.0485095
0.0480644
0.0489492
0.0484501
0.0534057
0.0625631
0.0570164
0.0552532
0.0537789
0.0529473
0.0522896
0.0517755
0.0513648
0.051021
0.0508271
0.0506688
0.0507777
0.050812
0.0513121
0.0515047
0.0522499
0.058335
0.0566115
0.0550581
0.0538344
0.0530192
0.0523678
0.0518495
0.0514425
0.0511086
0.0509346
0.0508019
0.0509542
0.051027
0.0516089
0.0517945
0.0527832
0.0563907
0.0557621
0.0546224
0.0537212
0.0529703
0.0523485
0.0518271
0.0514165
0.0510791
0.0509102
0.0507881
0.0509778
0.0510862
0.0517806
0.052007
0.0532251
0.0551718
0.0549913
0.0542019
0.0535245
0.052858
0.0522755
0.0517591
0.0513451
0.0509996
0.0508287
0.0507082
0.0509298
0.0510706
0.0518828
0.0521802
0.0535738
0.0544419
0.054387
0.0538087
0.0532728
0.0526764
0.0521254
0.0516076
0.0511747
0.0507945
0.0505802
0.0503987
0.0505678
0.0506162
0.0514207
0.0515952
0.0531604
0.0539388
0.0539265
0.0534821
0.0530329
0.0524874
0.0519574
0.0514351
0.0509816
0.0505677
0.0503155
0.0500889
0.0502443
0.0502684
0.0512154
0.0514416
0.0534745
0.0536077
0.053607
0.0532293
0.0528207
0.0522958
0.0517627
0.0512134
0.0507094
0.0502171
0.0498527
0.0494582
0.0493908
0.0490309
0.0495868
0.0488531
0.0508575
0.0534025
0.0534062
0.0530549
0.0526586
0.0521334
0.0515844
0.0510034
0.0504511
0.0498945
0.0494497
0.0489606
0.0488158
0.0483741
0.0491637
0.0485076
0.0530112
0.0625359
0.05699
0.0552432
0.0537897
0.0529878
0.0523662
0.0518966
0.0515392
0.051261
0.0511424
0.0510818
0.0512864
0.0514656
0.0520437
0.0524276
0.0531032
0.0583079
0.0565843
0.055048
0.0538455
0.0530606
0.0524459
0.051973
0.0516202
0.0513532
0.0512562
0.0512231
0.0514724
0.0516921
0.0523458
0.0527254
0.0535985
0.0563612
0.0557318
0.0546087
0.0537287
0.0530083
0.0524234
0.0519474
0.0515909
0.0513199
0.0512274
0.0512032
0.0514875
0.0517374
0.0524941
0.0529056
0.0539848
0.0551403
0.0549589
0.0541854
0.0535288
0.0528923
0.0523463
0.0518749
0.0515143
0.0512343
0.051139
0.0511144
0.0514297
0.0517074
0.0525783
0.0530497
0.0542958
0.0544077
0.0543517
0.0537888
0.0532729
0.0527055
0.05219
0.0517155
0.0513342
0.0510166
0.0508748
0.0507839
0.0510422
0.0512166
0.052074
0.0523994
0.0538117
0.0539019
0.0538885
0.0534589
0.053029
0.0525114
0.0520156
0.0515347
0.0511307
0.0507761
0.0505932
0.0504515
0.0506926
0.0508312
0.0518283
0.0521785
0.0540555
0.0535677
0.053566
0.0532024
0.0528122
0.0523137
0.0518128
0.0513023
0.0508441
0.0504057
0.0501041
0.0497834
0.0497912
0.0495205
0.0501111
0.0494379
0.0512665
0.0533592
0.053362
0.0530244
0.0526455
0.0521455
0.0516268
0.0510817
0.0505717
0.050064
0.0496761
0.0492511
0.0491738
0.0488015
0.0496209
0.0489766
0.0533008
0.0625207
0.0569751
0.0552398
0.0538009
0.0530196
0.0524227
0.0519826
0.0516581
0.0514176
0.0513359
0.051317
0.0515458
0.0517599
0.0523144
0.0527121
0.053324
0.0582928
0.056569
0.0550445
0.053857
0.0530932
0.0525035
0.0520605
0.0517411
0.0515121
0.0514523
0.0514611
0.0517337
0.0519865
0.0526096
0.052998
0.0537794
0.0563441
0.055714
0.0546024
0.0537374
0.0530381
0.0524783
0.0520322
0.051709
0.0514754
0.0514192
0.0514346
0.0517391
0.0520158
0.0527323
0.0531407
0.0541129
0.0551217
0.0549393
0.054177
0.0535349
0.0529193
0.0523982
0.0519561
0.0516284
0.0513849
0.0513252
0.0513385
0.0516722
0.0519718
0.0527974
0.0532544
0.0543877
0.0543869
0.0543299
0.0537776
0.0532757
0.0527285
0.0522372
0.051791
0.0514414
0.0511585
0.0510504
0.0509938
0.0512679
0.0514569
0.0522643
0.0525597
0.0538563
0.0538789
0.0538646
0.0534453
0.0530287
0.0525306
0.0520579
0.0516043
0.0512305
0.0509088
0.050758
0.0506476
0.0509032
0.0510502
0.0519963
0.052301
0.0540617
0.0535422
0.0535397
0.0531859
0.0528084
0.0523284
0.0518495
0.0513644
0.0509344
0.050526
0.0502535
0.0499589
0.0499779
0.0497048
0.0502404
0.0494927
0.0511942
0.0533312
0.0533332
0.053005
0.0526383
0.0521558
0.0516578
0.0511367
0.0506529
0.0501725
0.0498114
0.0494088
0.0493416
0.0489609
0.0497287
0.0489931
0.05319
0.0625133
0.0569681
0.0552404
0.0538115
0.0530444
0.0524649
0.0520463
0.0517468
0.0515362
0.0514864
0.0515061
0.0517668
0.0520245
0.0525904
0.0530237
0.0536059
0.0582855
0.0565616
0.0550451
0.0538678
0.0531186
0.0525467
0.0521255
0.0518316
0.0516331
0.0516061
0.0516544
0.0519595
0.0522565
0.0528889
0.0533126
0.0540494
0.0563356
0.055705
0.0546011
0.0537462
0.0530616
0.0525198
0.0520955
0.0517977
0.0515944
0.0515705
0.0516244
0.05196
0.0522776
0.0529984
0.0534357
0.0543551
0.055112
0.0549291
0.0541742
0.053542
0.0529409
0.0524375
0.052017
0.0517145
0.0515007
0.0514729
0.0515236
0.0518874
0.0522251
0.0530524
0.0535319
0.0546097
0.0543757
0.0543182
0.053773
0.0532805
0.0527474
0.0522731
0.0518479
0.0515225
0.051268
0.0511904
0.0511687
0.051471
0.0516931
0.0524992
0.0528072
0.0540465
0.0538662
0.0538514
0.0534388
0.0530314
0.0525466
0.0520905
0.0516568
0.0513062
0.0510114
0.0508896
0.0508115
0.0510935
0.0512685
0.0522113
0.0525172
0.0542199
0.0535277
0.0535247
0.0531774
0.0528085
0.0523413
0.0518779
0.0514115
0.0510031
0.0506192
0.0503731
0.0501067
0.0501485
0.0498951
0.0504223
0.0496547
0.0512892
0.053315
0.0533166
0.0529945
0.052636
0.0521655
0.0516822
0.0511784
0.0507146
0.0502565
0.0499192
0.0495409
0.0494938
0.0491257
0.049883
0.049112
0.0532407
0.06251
0.0569655
0.0552408
0.053817
0.0530563
0.0524847
0.0520754
0.051786
0.0515866
0.0515469
0.0515774
0.0518427
0.0521069
0.0526642
0.0530986
0.0536691
0.0582826
0.0565585
0.0550457
0.0538733
0.0531307
0.0525667
0.0521549
0.0518711
0.0516837
0.0516666
0.0517252
0.0520339
0.0523362
0.0529575
0.0533812
0.0541014
0.0563318
0.055701
0.0546009
0.0537506
0.0530728
0.0525389
0.0521239
0.0518361
0.0516435
0.051629
0.0516922
0.0520299
0.0523504
0.0530569
0.0534909
0.0543906
0.0551078
0.0549245
0.0541732
0.0535455
0.052951
0.0524555
0.0520442
0.0517514
0.0515481
0.0515294
0.0515888
0.0519541
0.052293
0.0531044
0.0535771
0.054634
0.0543706
0.0543128
0.053771
0.0532829
0.0527562
0.0522896
0.0518732
0.0515572
0.0513127
0.0512438
0.05123
0.0515332
0.0517549
0.052544
0.0528411
0.0540584
0.0538604
0.0538453
0.053436
0.0530327
0.0525541
0.0521053
0.0516801
0.0513386
0.0510533
0.0509398
0.0508688
0.0511514
0.0513243
0.0522492
0.052539
0.0542184
0.0535211
0.0535177
0.0531735
0.0528086
0.0523473
0.0518908
0.0514324
0.0510326
0.0506575
0.0504191
0.0501588
0.050201
0.0499435
0.0504523
0.0496621
0.0512696
0.0533075
0.0533087
0.0529897
0.0526349
0.05217
0.0516933
0.051197
0.0507412
0.0502912
0.049961
0.0495879
0.0495407
0.0491668
0.0499048
0.0491043
0.0532013
0.0723289
0.0616564
0.0580799
0.0551253
0.0533596
0.0519026
0.0506761
0.0495165
0.0483607
0.0471768
0.045883
0.0445113
0.0429044
0.0412077
0.0391287
0.0370539
0.0680276
0.0608628
0.0576633
0.0550089
0.0533139
0.0518955
0.0506825
0.0495325
0.0483852
0.04721
0.0459257
0.0445662
0.0429731
0.0412938
0.0392277
0.0371624
0.0660646
0.0598613
0.0570672
0.0547414
0.0531666
0.0518219
0.0506385
0.049506
0.0483689
0.0472022
0.0459281
0.0445812
0.043006
0.0413463
0.0393042
0.0372566
0.0648
0.0590342
0.0565749
0.0544772
0.0530147
0.0517357
0.0505814
0.0494639
0.0483336
0.0471708
0.0459018
0.0445613
0.0429984
0.0413532
0.0393326
0.0373037
0.0640486
0.0584167
0.0561588
0.0542089
0.0528377
0.0516158
0.0504899
0.049386
0.0482603
0.0470976
0.045829
0.0444889
0.0429338
0.0412981
0.0393014
0.0372964
0.0635416
0.0579616
0.0558349
0.0539789
0.0526745
0.0514949
0.0503908
0.0492959
0.0481722
0.0470072
0.0457375
0.0443965
0.0428501
0.0412254
0.0392596
0.0372842
0.0632236
0.0576605
0.0556027
0.0537973
0.0525317
0.0513761
0.0502827
0.0491886
0.0480605
0.0468865
0.045609
0.0442589
0.0427148
0.0410936
0.0391604
0.0372175
0.0630433
0.0574858
0.0554581
0.0536739
0.052424
0.0512763
0.0501836
0.0490839
0.047948
0.0467636
0.0454793
0.0441225
0.0425862
0.0409745
0.0390833
0.0371786
0.0680231
0.060855
0.0576501
0.05499
0.0532892
0.051865
0.0506491
0.0494925
0.0483304
0.0471392
0.0458335
0.0444524
0.0428264
0.0411231
0.0390106
0.0369441
0.0637706
0.0603783
0.0573611
0.0549465
0.0532831
0.0518797
0.0506679
0.0495141
0.048353
0.0471641
0.045862
0.0444868
0.0428687
0.0411765
0.0390754
0.0370218
0.0618065
0.0594578
0.0568287
0.0547352
0.0531696
0.0518248
0.0506334
0.0494908
0.0483353
0.0471516
0.0458572
0.0444919
0.04289
0.0412152
0.0391357
0.0370975
0.0605535
0.0586434
0.0563598
0.0544946
0.0530345
0.0517499
0.0505833
0.0494526
0.0483022
0.0471214
0.0458317
0.0444728
0.0428833
0.041223
0.039165
0.0371455
0.0598079
0.0580222
0.0559497
0.0542341
0.0528639
0.0516346
0.0504947
0.0493767
0.0482308
0.0470503
0.0457616
0.0444036
0.0428226
0.0411723
0.039139
0.0371429
0.0593034
0.0575619
0.0556267
0.0540069
0.0527038
0.0515163
0.0503979
0.0492895
0.0481462
0.0469644
0.045676
0.0443188
0.0427489
0.0411115
0.0391116
0.0371452
0.0589868
0.0572582
0.055395
0.0538267
0.0525629
0.051399
0.0502914
0.0491846
0.0480376
0.0468476
0.0455525
0.0441872
0.0426213
0.0409881
0.0390239
0.0370894
0.0588071
0.0570826
0.0552511
0.0537047
0.0524571
0.051301
0.0501942
0.0490829
0.0479293
0.0467303
0.0454305
0.0440607
0.042506
0.040885
0.0389678
0.0370718
0.0660703
0.0598643
0.0570718
0.0547485
0.0531797
0.051846
0.0506783
0.0495582
0.0484245
0.0472633
0.0459766
0.0446205
0.0429743
0.041267
0.0390052
0.0368705
0.061819
0.0594717
0.0568514
0.0547672
0.0532146
0.0518881
0.050716
0.0495938
0.0484591
0.0472999
0.0460176
0.0446686
0.0430315
0.0413371
0.0390853
0.0369624
0.0598623
0.0586122
0.0563905
0.0546259
0.0531486
0.0518631
0.0506995
0.0495813
0.0484484
0.0472925
0.0460175
0.0446787
0.0430586
0.0413814
0.039148
0.0370355
0.0586241
0.0578227
0.0559543
0.0544184
0.0530375
0.0518039
0.0506587
0.0495484
0.0484181
0.0472638
0.0459933
0.0446613
0.0430551
0.0413941
0.0391832
0.0370903
0.0578877
0.057212
0.0555604
0.0541746
0.0528793
0.0516961
0.0505734
0.0494725
0.0483441
0.0471877
0.0459163
0.0445833
0.042985
0.0413332
0.03915
0.0370831
0.057388
0.0567549
0.0552435
0.0539538
0.052724
0.05158
0.0504765
0.0493831
0.0482555
0.0470962
0.0458242
0.0444916
0.0429063
0.0412701
0.0391298
0.0370998
0.0570734
0.0564518
0.0550137
0.0537756
0.0525839
0.0514615
0.0503665
0.0492724
0.0481382
0.0469671
0.0456848
0.0443392
0.0427557
0.0411201
0.039026
0.0370339
0.0568935
0.0562755
0.0548697
0.0536534
0.0524771
0.0513609
0.0502651
0.049165
0.0480221
0.0468395
0.0455508
0.0441987
0.0426291
0.0410081
0.038979
0.0370368
0.0648139
0.0590457
0.0565993
0.0545181
0.053081
0.0518363
0.0507238
0.0496502
0.0485549
0.0474359
0.0461775
0.0448605
0.0431887
0.041485
0.0389954
0.0367735
0.0605752
0.0586662
0.0564039
0.0545627
0.0531357
0.051893
0.0507715
0.0496932
0.0485962
0.0474795
0.0462263
0.0449187
0.0432588
0.0415745
0.0390976
0.036892
0.0586326
0.0578306
0.0559749
0.0544539
0.0530936
0.0518839
0.0507644
0.049686
0.0485888
0.0474743
0.0462288
0.0449323
0.0432909
0.0416245
0.039159
0.0369527
0.0574074
0.0570564
0.0555555
0.054263
0.0529948
0.0518328
0.0507281
0.0496549
0.0485586
0.0474449
0.0462039
0.0449153
0.0432896
0.0416421
0.0391995
0.037013
0.0566797
0.0564549
0.0551714
0.0540287
0.0528432
0.0517285
0.0506431
0.0495763
0.0484791
0.0473607
0.0461163
0.044824
0.0432045
0.0415644
0.0391521
0.036995
0.0561849
0.0560023
0.0548588
0.0538118
0.05269
0.0516128
0.0505444
0.0494829
0.0483845
0.0472612
0.0460153
0.0447226
0.0431192
0.0414986
0.0391435
0.0370347
0.0558722
0.0557009
0.0546304
0.0536342
0.0525492
0.0514917
0.0504296
0.0493641
0.0482555
0.0471154
0.0458538
0.0445406
0.0429345
0.041307
0.0390129
0.0369497
0.0556921
0.0555242
0.0544857
0.0535108
0.0524403
0.0513876
0.050323
0.0492491
0.0481292
0.0469746
0.0457045
0.0443823
0.0427945
0.0411859
0.038986
0.0369934
0.0640697
0.0584364
0.0562104
0.054301
0.0529888
0.0518413
0.0508048
0.0498036
0.0487776
0.0477399
0.0465536
0.0453342
0.043682
0.0420477
0.0392664
0.0369323
0.059837
0.0580526
0.056021
0.0543542
0.0530518
0.0519052
0.0508586
0.0498529
0.0488264
0.047793
0.0466146
0.0454098
0.0437755
0.0421724
0.0394072
0.0370888
0.0579029
0.0572258
0.0556067
0.0542613
0.0530224
0.0519049
0.050857
0.0498491
0.0488214
0.0477904
0.0466209
0.04543
0.0438169
0.0422341
0.0394675
0.0371282
0.0566864
0.0564609
0.0551971
0.05408
0.0529306
0.0518582
0.0508223
0.0498176
0.0487894
0.0477587
0.0465943
0.0454134
0.0438195
0.0422616
0.0395186
0.0372015
0.0559651
0.0558662
0.0548198
0.0538518
0.0527827
0.0517547
0.0507347
0.049733
0.0487004
0.047661
0.0464892
0.0453004
0.0437095
0.0421574
0.0394495
0.0371714
0.0554739
0.0554172
0.0545103
0.0536371
0.0526299
0.0516371
0.0506314
0.0496318
0.0485947
0.0475471
0.0463712
0.0451804
0.0436086
0.0420832
0.0394555
0.037252
0.0551622
0.0551167
0.0542823
0.0534588
0.0524864
0.051511
0.0505078
0.0494993
0.0484458
0.0473729
0.0461712
0.0449455
0.0433594
0.0418111
0.0392631
0.0371221
0.054981
0.0549389
0.054136
0.0533329
0.0523732
0.0514006
0.0503921
0.0493709
0.0483014
0.0472077
0.0459919
0.0447504
0.0431845
0.0416594
0.0392485
0.0372262
0.063555
0.0579743
0.055903
0.0541173
0.0529129
0.0518562
0.0508989
0.0499763
0.0490277
0.0480807
0.0469741
0.0458614
0.0442177
0.0426418
0.0394087
0.0368729
0.0593246
0.0575837
0.0557133
0.0541725
0.0529788
0.051923
0.0509561
0.0500299
0.0490819
0.0481414
0.0470458
0.0459541
0.0443354
0.0428062
0.0395748
0.0369977
0.0573937
0.0567576
0.0553022
0.0540836
0.0529526
0.0519249
0.0509553
0.050026
0.0490765
0.048139
0.0470538
0.0459795
0.0443834
0.0428734
0.0395998
0.0369299
0.0561817
0.0559964
0.0548959
0.0539051
0.0528625
0.0518782
0.0509191
0.0499915
0.0490406
0.0481031
0.0470235
0.0459618
0.0443876
0.0429088
0.0396511
0.0369941
0.0554637
0.0554048
0.054521
0.0536782
0.0527142
0.0517722
0.0508261
0.0498983
0.048939
0.0479885
0.0468963
0.0458211
0.0442442
0.042768
0.0395497
0.0369487
0.0549741
0.0549574
0.0542123
0.0534631
0.0525595
0.0516507
0.0507161
0.0497873
0.0488204
0.047858
0.0467591
0.0456809
0.044128
0.0426923
0.0395921
0.0371179
0.054662
0.0546566
0.0539832
0.0532825
0.0524118
0.0515177
0.0505818
0.0496389
0.0486484
0.0476508
0.0465132
0.0453818
0.0437975
0.0423172
0.039328
0.0369559
0.0544789
0.054477
0.0538345
0.0531531
0.0522935
0.0514
0.0504554
0.0494956
0.0484841
0.0474594
0.0463024
0.0451501
0.0435938
0.0421572
0.039387
0.0372577
0.0632097
0.0576476
0.055677
0.0539809
0.0528685
0.0518999
0.0510309
0.0502057
0.0493663
0.0485603
0.0476144
0.0467372
0.0453003
0.0440828
0.0406681
0.0381701
0.0589807
0.0572525
0.0554861
0.0540366
0.0529358
0.0519691
0.0510916
0.0502643
0.0494274
0.0486314
0.047701
0.0468543
0.0454525
0.0443061
0.0408723
0.0382175
0.0570501
0.0564241
0.0550736
0.0539468
0.0529088
0.0519699
0.0510894
0.0502588
0.0494206
0.0486288
0.0477113
0.0468886
0.0455151
0.0443998
0.0408878
0.0380536
0.0558398
0.0556639
0.0546677
0.053768
0.0528175
0.051921
0.0510496
0.0502197
0.0493791
0.0485876
0.0476767
0.046872
0.045527
0.0444604
0.0409632
0.038132
0.0551225
0.0550729
0.0542925
0.0535397
0.0526662
0.0518097
0.0509485
0.0501147
0.0492613
0.0484512
0.0475207
0.0466959
0.0453398
0.0442763
0.0408233
0.038081
0.0546328
0.0546254
0.0539829
0.0533224
0.0525076
0.0516819
0.0508291
0.0499906
0.049125
0.0482982
0.0473556
0.0465252
0.0451947
0.0441914
0.0409009
0.0383807
0.054319
0.054323
0.0537512
0.0531377
0.0523539
0.0515394
0.0506806
0.0498212
0.0489222
0.0480455
0.0470429
0.0461273
0.0447229
0.0436222
0.0404357
0.0380884
0.054133
0.0541406
0.053599
0.0530035
0.0522289
0.0514121
0.0505404
0.049658
0.0487302
0.0478156
0.046781
0.0458296
0.0444448
0.0434016
0.0405121
0.0386721
0.0629645
0.0574099
0.0555097
0.0538809
0.0528454
0.0519547
0.0511671
0.050432
0.049692
0.0490072
0.0481916
0.0474813
0.0461586
0.0450719
0.0411804
0.0379391
0.0587358
0.0570112
0.0553173
0.0539362
0.0529133
0.0520255
0.0512303
0.0504943
0.0497584
0.0490861
0.0482887
0.047615
0.0463275
0.0453083
0.0412461
0.0372256
0.0568033
0.0561787
0.0549008
0.0538425
0.0528827
0.0520232
0.0512248
0.0504854
0.049748
0.0490809
0.0482972
0.0476513
0.0463878
0.0453877
0.0411282
0.0365202
0.0555926
0.0554175
0.054493
0.0536612
0.0527881
0.0519702
0.05118
0.0504404
0.0496997
0.0490325
0.0482553
0.047631
0.0463972
0.0454528
0.0411819
0.0364735
0.0548741
0.0548252
0.0541154
0.0534295
0.0526318
0.051852
0.0510693
0.0503225
0.0495644
0.0488732
0.0480683
0.0474164
0.0461586
0.0452152
0.040989
0.0364059
0.0543828
0.0543762
0.0538034
0.0532086
0.0524681
0.0517168
0.0509399
0.050185
0.0494105
0.0486986
0.0478774
0.0472207
0.0459932
0.0451432
0.041149
0.0369142
0.0540664
0.0540711
0.0535683
0.0530192
0.0523073
0.0515642
0.0507768
0.0499946
0.0491773
0.048402
0.0474999
0.0467288
0.0453825
0.0443868
0.0404924
0.0364958
0.0538769
0.0538855
0.053412
0.0528798
0.0521753
0.0514268
0.0506228
0.0498125
0.04896
0.048139
0.0471972
0.0463884
0.0450741
0.0442122
0.0407847
0.0377235
0.0536191
0.0536281
0.0531936
0.0526968
0.0520317
0.0513178
0.0505432
0.0497568
0.048923
0.0481162
0.047183
0.0463783
0.0450588
0.0441854
0.0407205
0.0376073
0.0536678
0.053676
0.0532009
0.0526666
0.0519611
0.0512065
0.050389
0.0495512
0.0486586
0.0477711
0.0467542
0.0458128
0.0444246
0.0433699
0.0404415
0.0385612
0.0538463
0.0538447
0.0532874
0.0526876
0.0519203
0.0511097
0.0502393
0.0493406
0.0483779
0.0473906
0.0462584
0.0451204
0.0435622
0.042114
0.0393064
0.03714
0.054218
0.0541761
0.0534707
0.052764
0.0519164
0.0510437
0.0501244
0.0491776
0.0481679
0.0471202
0.0459357
0.0447129
0.0431487
0.0416143
0.0391719
0.0371166
0.0548272
0.0546594
0.0537279
0.0528601
0.0519156
0.0509775
0.0500138
0.0490242
0.0479726
0.0468706
0.0456369
0.0443371
0.0427543
0.0411389
0.0389128
0.036891
0.0559596
0.0553431
0.0540521
0.052952
0.0519111
0.0509195
0.0499332
0.0489231
0.0478538
0.046728
0.0454788
0.0441513
0.0425893
0.0409632
0.0389122
0.0369432
0.0578238
0.0561037
0.0543937
0.0529698
0.0518635
0.0508362
0.0498448
0.0488295
0.0477532
0.0466138
0.0453557
0.0440121
0.0424667
0.0408423
0.0389062
0.0369855
0.0620592
0.0565147
0.0546104
0.0529483
0.0518388
0.0508163
0.0498387
0.0488376
0.0477784
0.046653
0.0454097
0.0440784
0.0425509
0.0409351
0.039025
0.0370951
0.0534811
0.0534885
0.0530864
0.0526248
0.0520054
0.0513406
0.050618
0.0498879
0.0491115
0.0483679
0.0474867
0.0467284
0.0453764
0.044365
0.0404046
0.0363234
0.0535252
0.0535321
0.0530887
0.0525885
0.0519269
0.0512187
0.0504495
0.0496627
0.0488209
0.0479885
0.0470156
0.0461181
0.0447092
0.0435921
0.0403393
0.0379256
0.0536991
0.0536963
0.0531702
0.0526036
0.0518779
0.0511109
0.0502846
0.049431
0.048511
0.0475677
0.0464663
0.0453563
0.0437689
0.0422716
0.0392226
0.0367937
0.0540663
0.0540235
0.0533488
0.052675
0.0518676
0.051036
0.050158
0.0492521
0.04828
0.0472698
0.0461108
0.044911
0.0433265
0.0417649
0.039168
0.0369777
0.0546717
0.0545031
0.053602
0.0527662
0.051861
0.0509619
0.0500365
0.0490838
0.0480652
0.0469945
0.0457807
0.0444971
0.042897
0.0412598
0.0389271
0.036822
0.0558013
0.0551844
0.0539237
0.0528552
0.0518526
0.0508993
0.0499498
0.0489742
0.0479355
0.0468378
0.0456069
0.0442934
0.0427193
0.0410769
0.0389516
0.0369224
0.0576641
0.0559444
0.0542646
0.0528718
0.0518028
0.0508121
0.0498561
0.0488737
0.0478262
0.0467126
0.0454713
0.04414
0.042586
0.0409485
0.0389586
0.0369907
0.0618997
0.0563574
0.0544833
0.0528522
0.0517801
0.0507936
0.0498519
0.0488852
0.0478558
0.0467576
0.0455331
0.0442164
0.0426839
0.0410578
0.0390992
0.0371225
0.0533834
0.0533897
0.0530113
0.0525778
0.0519968
0.0513757
0.050703
0.050031
0.049321
0.0486602
0.0478736
0.04724
0.0460047
0.0451305
0.0410198
0.0366333
0.0534232
0.0534292
0.0530089
0.0525353
0.0519103
0.0512429
0.0505192
0.049784
0.048999
0.0482355
0.0473358
0.0465331
0.0451958
0.0441682
0.0407666
0.0381331
0.0535928
0.0535891
0.0530858
0.0525447
0.0518532
0.0511241
0.0503387
0.0495296
0.0486564
0.0477665
0.0467162
0.0456678
0.0441094
0.0426489
0.039454
0.036891
0.0539562
0.0539126
0.0532601
0.0526114
0.0518367
0.0510403
0.0501997
0.0493332
0.0484009
0.047434
0.0463133
0.0451567
0.0435859
0.0420416
0.0393403
0.0370639
0.0545581
0.0543889
0.0535096
0.052698
0.0518244
0.0509584
0.0500671
0.0491492
0.0481643
0.0471283
0.0459428
0.0446881
0.0430916
0.0414579
0.0390472
0.0368796
0.0556854
0.0550681
0.0538291
0.0527845
0.0518122
0.0508911
0.049974
0.0490302
0.0480218
0.046954
0.0457461
0.0444543
0.0428809
0.041236
0.039053
0.0369728
0.0575469
0.0558274
0.0541692
0.0527999
0.0517603
0.0508
0.0498748
0.0489224
0.0479026
0.0468155
0.0455939
0.0442796
0.0427252
0.0410829
0.0390494
0.0370396
0.0617827
0.056242
0.0543896
0.052782
0.0517394
0.0507828
0.0498721
0.0489366
0.0479357
0.0468649
0.0456613
0.0443627
0.0428316
0.0412017
0.0392031
0.0371839
0.0533141
0.0533193
0.0529582
0.0525459
0.0519943
0.0514068
0.0507715
0.0501403
0.049472
0.0488542
0.0481015
0.0474885
0.0462241
0.0452505
0.0408372
0.0359984
0.0533502
0.0533552
0.0529516
0.0524983
0.0519013
0.0512654
0.0505761
0.049878
0.0491301
0.0484042
0.0475326
0.0467492
0.0453866
0.0442932
0.0406697
0.0377492
0.0535162
0.0535116
0.0530246
0.0525028
0.0518377
0.051138
0.0503839
0.0496078
0.0487663
0.0479077
0.0468784
0.0458439
0.0442602
0.0427521
0.0393934
0.0366616
0.0538762
0.0538319
0.0531954
0.0525657
0.0518162
0.0510473
0.0502358
0.0493991
0.0484949
0.0475552
0.0464523
0.0453078
0.0437182
0.0421425
0.0393302
0.0369503
0.0544754
0.0543055
0.0534419
0.0526486
0.0517994
0.0509593
0.0500949
0.049204
0.048244
0.0472313
0.0460606
0.0448159
0.043205
0.041549
0.0390607
0.0368247
0.0556007
0.054983
0.0537596
0.052733
0.0517843
0.0508885
0.0499971
0.0490786
0.0480933
0.0470469
0.045853
0.0445706
0.0429871
0.0413256
0.0390863
0.0369545
0.0574611
0.0557417
0.0540991
0.0527474
0.0517306
0.0507945
0.049894
0.0489657
0.0479678
0.0469007
0.0456923
0.0443871
0.0428258
0.041171
0.0390954
0.0370448
0.0616973
0.0561576
0.0543209
0.0527311
0.0517115
0.0507785
0.0498929
0.0489828
0.0480047
0.0469551
0.0457663
0.0444786
0.0429433
0.0413031
0.0392658
0.0372059
0.0532674
0.0532718
0.0529236
0.0525279
0.052
0.0514405
0.0508378
0.0502443
0.0496179
0.0490477
0.0483438
0.0477802
0.0465434
0.0455611
0.0409865
0.0358283
0.0533003
0.0533046
0.0529135
0.0524758
0.0519011
0.0512913
0.0506318
0.0499673
0.0492556
0.0485702
0.0477372
0.0469926
0.0456439
0.0445421
0.0407857
0.0376672
0.0534632
0.053458
0.0529831
0.0524761
0.0518318
0.0511561
0.0504288
0.0496822
0.0488711
0.0480454
0.047045
0.0460382
0.0444578
0.0429393
0.0394762
0.0366211
0.0538205
0.0537756
0.0531508
0.0525356
0.0518059
0.0510592
0.0502721
0.0494617
0.0485837
0.0476714
0.0465911
0.0454674
0.0438774
0.0422925
0.0394054
0.0369463
0.0544173
0.054247
0.0533948
0.0526153
0.051785
0.0509658
0.0501236
0.049256
0.0483187
0.0473289
0.0461759
0.0449466
0.0433337
0.0416693
0.0391269
0.0368364
0.055541
0.054923
0.053711
0.0526979
0.0517675
0.0508918
0.0500213
0.0491242
0.0481596
0.0471334
0.0459547
0.0446848
0.0430993
0.0414299
0.0391496
0.0369754
0.0574006
0.0556812
0.0540499
0.0527114
0.0517119
0.050795
0.0499147
0.0490065
0.0480277
0.0469789
0.045784
0.0444896
0.0429267
0.0412651
0.0391581
0.0370733
0.0616369
0.0560981
0.0542728
0.0526963
0.0516943
0.05078
0.0499147
0.0490257
0.0480673
0.0470367
0.0458624
0.0445864
0.0430509
0.0414048
0.039338
0.0372441
0.0532368
0.0532404
0.0529012
0.0525171
0.0520057
0.0514656
0.0508847
0.050315
0.0497125
0.0491654
0.0484782
0.0479207
0.0466629
0.0456214
0.0408907
0.0354948
0.0532672
0.0532708
0.0528883
0.0524616
0.0519026
0.0513108
0.0506715
0.0500286
0.0493382
0.0486732
0.0478541
0.0471152
0.0457472
0.0446012
0.0407245
0.0374568
0.0534277
0.053422
0.0529555
0.0524589
0.0518291
0.0511703
0.0504614
0.0497342
0.0489417
0.0481335
0.0471442
0.0461422
0.044545
0.0429941
0.0394418
0.0364906
0.0537829
0.0537376
0.053121
0.0525159
0.0518001
0.0510691
0.050299
0.0495062
0.0486449
0.0477481
0.0466774
0.0455584
0.0439555
0.0423477
0.0393977
0.0368756
0.054378
0.0542073
0.053363
0.0525932
0.0517764
0.0509719
0.0501455
0.049294
0.0483716
0.0473955
0.0462511
0.0450264
0.0434041
0.0417235
0.0391362
0.0368021
0.0555005
0.0548823
0.0536781
0.0526745
0.0517572
0.0508958
0.0500403
0.0491584
0.0482078
0.0471944
0.046024
0.0447588
0.0431666
0.0414851
0.0391711
0.036963
0.0573594
0.05564
0.0540165
0.0526874
0.0517002
0.0507972
0.0499315
0.0490377
0.0480723
0.0470356
0.0458489
0.0445595
0.0429922
0.0413213
0.0391884
0.0370764
0.0615959
0.0560577
0.0542402
0.0526732
0.0516838
0.0507831
0.0499325
0.0490588
0.0481144
0.0470968
0.0459316
0.0446618
0.0431233
0.0414692
0.0393782
0.037257
0.0532187
0.0532219
0.0528887
0.0525122
0.0520121
0.0514855
0.0509205
0.0503687
0.0497856
0.049259
0.0485909
0.0480483
0.0467915
0.0457278
0.0409104
0.0353557
0.0532474
0.0532507
0.0528738
0.0524544
0.0519059
0.0513268
0.0507018
0.0500751
0.0494016
0.0487543
0.0479505
0.0472236
0.0458537
0.0446904
0.0407447
0.0373794
0.0534063
0.0534003
0.0529392
0.0524495
0.0518295
0.0511823
0.0504865
0.0497735
0.0489956
0.0482022
0.0472249
0.0462323
0.0446318
0.0430677
0.0394633
0.0364485
0.0537601
0.0537145
0.0531031
0.0525048
0.0517982
0.051078
0.0503198
0.0495397
0.0486911
0.047807
0.046746
0.0456344
0.0440283
0.0424106
0.0394232
0.0368589
0.054354
0.0541831
0.0533438
0.0525804
0.0517725
0.050978
0.0501625
0.0493224
0.0484112
0.047446
0.0463097
0.045091
0.043466
0.041778
0.0391636
0.0368001
0.0554756
0.0548573
0.0536581
0.0526608
0.0517522
0.0509002
0.0500549
0.0491837
0.0482433
0.0472398
0.0460766
0.0448167
0.0432224
0.0415349
0.0392
0.036969
0.057334
0.0556147
0.0539961
0.0526732
0.051694
0.0508003
0.0499446
0.0490607
0.0481049
0.0470773
0.0458972
0.0446126
0.0430439
0.0413683
0.0392191
0.0370885
0.0615706
0.0560328
0.0542205
0.0526596
0.0516784
0.0507867
0.0499461
0.049083
0.0481484
0.0471403
0.0459823
0.0447179
0.0431786
0.0415204
0.0394138
0.0372741
0.0532102
0.0532131
0.0528828
0.0525099
0.0520151