/*--------------------------------*- C++ -*----------------------------------*\
| =========                 |                                                 |
| \\      /  F ield         | OpenFOAM: The Open Source CFD Toolbox           |
|  \\    /   O peration     | Version:  v1912                                 |
|   \\  /    A nd           | Website:  www.openfoam.com                      |
|    \\/     M anipulation  |                                                 |
\*---------------------------------------------------------------------------*/
FoamFile
{
    version     2.0;
    format      ascii;
    class       volScalarField;
    location    "0.4/fluid";
    object      T;
}
// * * * * * * * * * * * * * * * * * * * * * * * * * * * * * * * * * * * * * //

dimensions      [0 0 0 1 0 0 0];


internalField   nonuniform List<scalar> 
14592
(
273.18
273.55
273.946
274.379
274.863
275.409
276.03
276.743
277.561
278.501
279.583
280.828
282.262
283.927
285.894
288.348
273.178
273.545
273.938
274.368
274.847
275.389
276.006
276.713
277.525
278.459
279.534
280.773
282.203
283.866
285.833
288.269
273.176
273.538
273.925
274.349
274.821
275.355
275.963
276.66
277.461
278.382
279.444
280.671
282.092
283.752
285.725
288.183
273.173
273.528
273.908
274.324
274.787
275.31
275.905
276.587
277.371
278.274
279.316
280.522
281.927
283.579
285.563
288.064
273.169
273.516
273.887
274.293
274.744
275.253
275.833
276.496
277.257
278.135
279.148
280.325
281.701
283.335
285.324
287.882
273.164
273.502
273.863
274.257
274.695
275.188
275.748
276.388
277.122
277.966
278.941
280.075
281.405
282.998
284.973
287.589
273.159
273.487
273.836
274.217
274.64
275.114
275.652
276.266
276.967
277.772
278.698
279.773
281.033
282.548
284.452
287.075
273.154
273.47
273.808
274.175
274.581
275.036
275.55
276.134
276.798
277.557
278.425
279.425
280.588
281.97
283.693
286.093
273.186
273.569
273.979
274.43
274.933
275.503
276.154
276.903
277.766
278.764
279.916
281.248
282.792
284.591
286.715
289.293
273.184
273.564
273.971
274.418
274.917
275.482
276.129
276.872
277.729
278.719
279.865
281.191
282.731
284.53
286.656
289.23
273.182
273.556
273.958
274.398
274.89
275.447
276.084
276.817
277.662
278.639
279.771
281.086
282.617
284.415
286.553
289.156
273.179
273.546
273.94
274.372
274.854
275.4
276.023
276.74
277.568
278.526
279.637
280.931
282.447
284.24
286.395
289.05
273.175
273.534
273.918
274.339
274.809
275.341
275.948
276.645
277.449
278.38
279.461
280.724
282.212
283.99
286.158
288.884
273.17
273.519
273.893
274.302
274.758
275.272
275.858
276.531
277.306
278.202
279.243
280.461
281.902
283.641
285.803
288.608
273.165
273.503
273.865
274.26
274.7
275.195
275.758
276.403
277.143
277.997
278.986
280.141
281.508
283.165
285.261
288.098
273.159
273.486
273.835
274.216
274.639
275.113
275.651
276.264
276.965
277.769
278.696
279.77
281.031
282.545
284.449
287.073
273.192
273.587
274.011
274.477
274.998
275.59
276.268
277.049
277.952
278.997
280.207
281.606
283.224
285.095
287.262
289.771
273.19
273.582
274.002
274.464
274.981
275.569
276.241
277.017
277.913
278.952
280.154
281.547
283.162
285.034
287.206
289.716
273.188
273.574
273.988
274.444
274.954
275.532
276.195
276.96
277.844
278.869
280.058
281.439
283.046
284.918
287.104
289.646
273.184
273.563
273.97
274.417
274.916
275.483
276.132
276.88
277.746
278.751
279.919
281.28
282.871
284.742
286.948
289.546
273.18
273.551
273.947
274.383
274.87
275.422
276.053
276.781
277.622
278.599
279.736
281.065
282.63
284.486
286.711
289.385
273.175
273.536
273.921
274.344
274.816
275.35
275.96
276.662
277.473
278.414
279.509
280.791
282.309
284.128
286.352
289.113
273.17
273.519
273.892
274.301
274.756
275.27
275.856
276.528
277.303
278.199
279.239
280.457
281.898
283.637
285.799
288.606
273.164
273.501
273.862
274.255
274.692
275.185
275.744
276.383
277.116
277.96
278.935
280.068
281.399
282.992
284.967
287.585
273.197
273.603
274.039
274.518
275.056
275.667
276.368
277.176
278.112
279.196
280.449
281.896
283.558
285.46
287.618
290.031
273.195
273.598
274.03
274.505
275.039
275.645
276.34
277.143
278.072
279.149
280.395
281.836
283.496
285.399
287.563
289.978
273.193
273.59
274.016
274.484
275.01
275.607
276.293
277.084
278.001
279.064
280.296
281.725
283.378
285.283
287.462
289.911
273.189
273.579
273.997
274.456
274.971
275.556
276.228
277.003
277.9
278.942
280.153
281.562
283.2
285.104
287.306
289.812
273.185
273.565
273.974
274.422
274.924
275.493
276.146
276.899
277.772
278.785
279.965
281.342
282.953
284.846
287.069
289.653
273.18
273.55
273.947
274.382
274.868
275.419
276.05
276.777
277.618
278.594
279.731
281.06
282.624
284.481
286.707
289.383
273.174
273.533
273.917
274.337
274.806
275.337
275.942
276.638
277.441
278.371
279.452
280.715
282.203
283.981
286.151
288.88
273.168
273.515
273.885
274.289
274.74
275.248
275.826
276.488
277.248
278.124
279.137
280.313
281.689
283.323
285.314
287.875
273.201
273.616
274.062
274.553
275.104
275.731
276.45
277.281
278.243
279.356
280.641
282.118
283.806
285.716
287.849
290.182
273.2
273.611
274.053
274.54
275.086
275.708
276.422
277.247
278.202
279.308
280.586
282.058
283.743
285.655
287.794
290.131
273.197
273.603
274.039
274.519
275.057
275.67
276.374
277.187
278.129
279.221
280.485
281.945
283.624
285.538
287.694
290.064
273.193
273.592
274.019
274.49
275.017
275.618
276.307
277.103
278.026
279.097
280.339
281.779
283.444
285.358
287.537
289.966
273.189
273.578
273.995
274.454
274.968
275.553
276.223
276.997
277.894
278.936
280.146
281.555
283.193
285.097
287.3
289.808
273.184
273.562
273.968
274.413
274.911
275.477
276.125
276.872
277.736
278.74
279.907
281.267
282.859
284.729
286.937
289.538
273.178
273.545
273.937
274.367
274.848
275.392
276.014
276.729
277.555
278.511
279.622
280.915
282.43
284.224
286.381
289.04
273.172
273.526
273.904
274.318
274.78
275.301
275.894
276.574
277.356
278.257
279.298
280.503
281.908
283.56
285.546
288.052
273.205
273.627
274.081
274.58
275.141
275.78
276.514
277.362
278.343
279.476
280.782
282.279
283.979
285.888
287.996
290.272
273.203
273.622
274.071
274.567
275.124
275.757
276.486
277.327
278.301
279.427
280.727
282.218
283.916
285.827
287.941
290.222
273.2
273.613
274.057
274.545
275.094
275.718
276.436
277.266
278.226
279.339
280.624
282.104
283.796
285.71
287.841
290.156
273.197
273.602
274.037
274.516
275.053
275.665
276.368
277.18
278.121
279.213
280.476
281.936
283.614
285.529
287.685
290.057
273.192
273.588
274.012
274.48
275.003
275.599
276.283
277.073
277.988
279.049
280.281
281.708
283.361
285.266
287.446
289.9
273.187
273.572
273.984
274.438
274.945
275.522
276.182
276.944
277.826
278.849
280.037
281.417
283.023
284.896
287.084
289.632
273.181
273.554
273.953
274.391
274.88
275.435
276.069
276.799
277.642
278.617
279.747
281.06
282.591
284.389
286.528
289.137
273.175
273.535
273.92
274.341
274.811
275.342
275.947
276.641
277.439
278.358
279.418
280.643
282.063
283.723
285.698
288.162
273.207
273.634
274.093
274.599
275.167
275.814
276.557
277.416
278.409
279.556
280.875
282.383
284.089
285.994
288.083
290.324
273.205
273.629
274.084
274.585
275.149
275.791
276.529
277.381
278.367
279.507
280.819
282.322
284.025
285.933
288.029
290.274
273.203
273.62
274.069
274.563
275.119
275.751
276.478
277.319
278.292
279.417
280.716
282.207
283.904
285.815
287.929
290.208
273.199
273.609
274.049
274.533
275.078
275.697
276.409
277.232
278.185
279.29
280.566
282.037
283.722
285.633
287.772
290.11
273.194
273.595
274.024
274.497
275.027
275.63
276.323
277.123
278.05
279.124
280.369
281.808
283.467
285.37
287.534
289.952
273.189
273.578
273.996
274.454
274.968
275.552
276.221
276.993
277.887
278.922
280.123
281.514
283.128
284.999
287.171
289.685
273.183
273.56
273.964
274.407
274.903
275.464
276.107
276.846
277.7
278.687
279.83
281.154
282.693
284.491
286.617
289.194
273.177
273.541
273.93
274.357
274.832
275.37
275.983
276.686
277.494
278.425
279.497
280.734
282.163
283.824
285.79
288.226
273.208
273.638
274.1
274.608
275.18
275.831
276.579
277.443
278.442
279.596
280.921
282.434
284.142
286.044
288.124
290.348
273.207
273.632
274.09
274.595
275.162
275.808
276.55
277.408
278.4
279.546
280.865
282.372
284.078
285.983
288.07
290.298
273.204
273.624
274.075
274.572
275.131
275.768
276.5
277.345
278.324
279.456
280.761
282.257
283.957
285.865
287.97
290.232
273.2
273.612
274.055
274.542
275.09
275.714
276.43
277.259
278.218
279.328
280.611
282.087
283.774
285.683
287.813
290.134
273.195
273.598
274.03
274.506
275.039
275.646
276.344
277.149
278.081
279.162
280.412
281.857
283.518
285.419
287.575
289.976
273.19
273.581
274.001
274.463
274.98
275.567
276.241
277.018
277.917
278.959
280.165
281.562
283.178
285.048
287.212
289.71
273.184
273.563
273.969
274.415
274.914
275.479
276.126
276.87
277.729
278.722
279.871
281.201
282.742
284.539
286.659
289.22
273.178
273.544
273.935
274.364
274.843
275.384
276.001
276.709
277.522
278.459
279.537
280.778
282.211
283.873
285.834
288.257
273.144
273.439
273.752
274.088
274.454
274.854
275.293
275.773
276.295
276.855
277.447
278.059
278.673
279.266
279.807
280.264
273.143
273.436
273.746
274.08
274.443
274.841
275.276
275.753
276.271
276.827
277.415
278.023
278.633
279.221
279.76
280.214
273.141
273.431
273.737
274.067
274.425
274.817
275.247
275.717
276.228
276.777
277.356
277.955
278.557
279.138
279.669
280.119
273.139
273.423
273.724
274.048
274.4
274.784
275.206
275.667
276.168
276.705
277.272
277.859
278.448
279.017
279.537
279.979
273.136
273.414
273.709
274.025
274.369
274.744
275.155
275.605
276.092
276.614
277.166
277.736
278.308
278.861
279.367
279.797
273.132
273.404
273.691
273.999
274.333
274.697
275.096
275.532
276.003
276.508
277.041
277.59
278.142
278.674
279.162
279.576
273.129
273.392
273.671
273.97
274.293
274.646
275.031
275.45
275.904
276.389
276.9
277.426
277.953
278.461
278.926
279.321
273.125
273.38
273.65
273.939
274.251
274.591
274.961
275.364
275.798
276.261
276.748
277.248
277.748
278.229
278.668
279.041
273.145
273.442
273.758
274.097
274.467
274.872
275.317
275.806
276.338
276.912
277.521
278.153
278.792
279.413
279.985
280.47
273.144
273.439
273.752
274.088
274.455
274.858
275.3
275.785
276.313
276.883
277.487
278.115
278.75
279.367
279.935
280.418
273.142
273.433
273.742
274.074
274.436
274.833
275.269
275.748
276.269
276.83
277.426
278.046
278.672
279.281
279.842
280.32
273.14
273.426
273.729
274.056
274.411
274.8
275.228
275.696
276.207
276.757
277.34
277.947
278.56
279.157
279.707
280.176
273.137
273.417
273.713
274.032
274.379
274.759
275.176
275.633
276.13
276.664
277.232
277.821
278.417
278.996
279.532
279.988
273.133
273.406
273.695
274.006
274.343
274.712
275.116
275.558
276.039
276.556
277.103
277.671
278.245
278.803
279.319
279.759
273.129
273.395
273.675
273.976
274.303
274.659
275.05
275.476
275.938
276.434
276.959
277.502
278.05
278.582
279.073
279.493
273.125
273.382
273.654
273.945
274.26
274.604
274.979
275.388
275.83
276.303
276.803
277.319
277.837
278.34
278.803
279.198
273.147
273.45
273.77
274.116
274.494
274.909
275.367
275.872
276.425
277.026
277.669
278.343
279.033
279.712
280.345
280.889
273.146
273.446
273.764
274.107
274.482
274.894
275.349
275.85
276.399
276.995
277.633
278.303
278.988
279.663
280.293
280.836
273.144
273.44
273.754
274.092
274.462
274.869
275.317
275.811
276.353
276.94
277.569
278.23
278.906
279.573
280.196
280.733
273.142
273.433
273.741
274.073
274.436
274.835
275.274
275.758
276.289
276.864
277.48
278.127
278.789
279.442
280.054
280.583
273.139
273.423
273.725
274.049
274.404
274.793
275.221
275.693
276.209
276.768
277.366
277.995
278.638
279.273
279.869
280.384
273.135
273.412
273.706
274.022
274.366
274.744
275.159
275.616
276.115
276.655
277.232
277.837
278.457
279.068
279.641
280.137
273.131
273.401
273.685
273.992
274.325
274.69
275.091
275.53
276.01
276.528
277.08
277.658
278.249
278.83
279.375
279.847
273.127
273.388
273.664
273.96
274.281
274.633
275.018
275.439
275.897
276.391
276.916
277.463
278.021
278.568
279.079
279.521
273.151
273.461
273.789
274.145
274.534
274.964
275.441
275.97
276.554
277.194
277.887
278.624
279.39
280.159
280.892
281.533
273.15
273.457
273.783
274.136
274.522
274.949
275.422
275.947
276.527
277.162
277.849
278.581
279.343
280.108
280.838
281.478
273.148
273.451
273.773
274.12
274.502
274.922
275.389
275.907
276.478
277.104
277.782
278.504
279.256
280.012
280.735
281.371
273.145
273.443
273.759
274.1
274.474
274.887
275.344
275.851
276.411
277.023
277.687
278.394
279.131
279.874
280.585
281.211
273.142
273.433
273.742
274.076
274.441
274.843
275.289
275.782
276.326
276.922
277.567
278.254
278.97
279.693
280.385
280.997
273.138
273.422
273.723
274.047
274.402
274.793
275.224
275.702
276.228
276.802
277.424
278.085
278.774
279.469
280.136
280.727
273.134
273.41
273.702
274.016
274.359
274.736
275.153
275.612
276.117
276.667
277.261
277.892
278.547
279.207
279.84
280.4
273.13
273.397
273.679
273.983
274.314
274.677
275.076
275.516
275.998
276.521
277.084
277.68
278.296
278.913
279.503
280.024
273.155
273.475
273.814
274.183
274.587
275.036
275.537
276.096
276.719
277.409
278.166
278.985
279.854
280.749
281.626
282.417
273.154
273.471
273.808
274.173
274.574
275.02
275.517
276.072
276.69
277.375
278.126
278.94
279.804
280.695
281.569
282.359
273.152
273.465
273.797
274.157
274.553
274.992
275.482
276.029
276.638
277.313
278.055
278.858
279.712
280.594
281.462
282.248
273.15
273.456
273.783
274.136
274.524
274.955
275.435
275.971
276.567
277.228
277.954
278.741
279.579
280.446
281.302
282.081
273.146
273.446
273.765
274.11
274.489
274.909
275.377
275.898
276.478
277.12
277.825
278.59
279.405
280.25
281.087
281.851
273.143
273.435
273.745
274.081
274.449
274.856
275.309
275.813
276.373
276.992
277.671
278.406
279.19
280.003
280.811
281.55
273.138
273.422
273.723
274.048
274.404
274.797
275.233
275.718
276.255
276.847
277.494
278.194
278.938
279.709
280.473
281.174
273.134
273.408
273.699
274.013
274.356
274.734
275.152
275.616
276.127
276.689
277.301
277.96
278.656
279.373
280.08
280.725
273.161
273.491
273.844
274.227
274.649
275.12
275.649
276.244
276.912
277.661
278.493
279.411
280.407
281.464
282.541
283.556
273.16
273.487
273.837
274.217
274.636
275.103
275.628
276.218
276.881
277.624
278.451
279.363
280.354
281.408
282.483
283.497
273.158
273.481
273.825
274.2
274.613
275.074
275.591
276.173
276.827
277.559
278.375
279.276
280.257
281.302
282.372
283.385
273.155
273.472
273.811
274.178
274.583
275.035
275.541
276.111
276.751
277.468
278.267
279.151
280.114
281.145
282.204
283.213
273.151
273.462
273.792
274.151
274.546
274.987
275.48
276.034
276.656
277.353
278.129
278.987
279.926
280.933
281.973
282.971
273.147
273.45
273.771
274.12
274.504
274.931
275.408
275.943
276.544
277.215
277.962
278.787
279.691
280.661
281.668
282.641
273.143
273.436
273.748
274.086
274.457
274.868
275.328
275.842
276.417
277.058
277.769
278.554
279.409
280.327
281.281
282.205
273.138
273.422
273.724
274.049
274.406
274.802
275.242
275.733
276.28
276.887
277.558
278.293
279.09
279.938
280.813
281.654
273.167
273.51
273.876
274.276
274.718
275.213
275.772
276.406
277.124
277.936
278.852
279.879
281.021
282.274
283.613
284.962
273.166
273.506
273.869
274.265
274.704
275.195
275.75
276.378
277.091
277.898
278.808
279.829
280.966
282.216
283.554
284.903
273.163
273.499
273.857
274.248
274.68
275.165
275.711
276.331
277.033
277.829
278.727
279.736
280.863
282.106
283.441
284.794
273.161
273.49
273.842
274.225
274.649
275.123
275.659
276.265
276.953
277.732
278.612
279.603
280.712
281.941
283.271
284.627
273.157
273.479
273.823
274.196
274.61
275.072
275.594
276.183
276.852
277.608
278.463
279.427
280.51
281.715
283.029
284.383
273.153
273.466
273.801
274.164
274.565
275.013
275.517
276.087
276.731
277.46
278.283
279.21
280.253
281.417
282.698
284.035
273.148
273.452
273.776
274.128
274.515
274.947
275.432
275.979
276.595
277.29
278.073
278.953
279.94
281.042
282.257
283.538
273.143
273.438
273.75
274.089
274.462
274.877
275.341
275.862
276.448
277.105
277.841
278.663
279.578
280.59
281.695
282.852
273.173
273.53
273.911
274.327
274.79
275.311
275.901
276.575
277.343
278.221
279.222
280.362
281.656
283.123
284.778
286.616
273.172
273.525
273.903
274.316
274.775
275.292
275.878
276.546
277.309
278.181
279.176
280.309
281.599
283.063
284.718
286.552
273.17
273.518
273.891
274.298
274.751
275.26
275.837
276.496
277.248
278.108
279.09
280.212
281.492
282.95
284.607
286.451
273.167
273.509
273.875
274.274
274.717
275.216
275.782
276.427
277.163
278.005
278.968
280.07
281.333
282.781
284.438
286.302
273.163
273.497
273.855
274.244
274.677
275.163
275.713
276.34
277.055
277.873
278.81
279.883
281.118
282.543
284.194
286.079
273.159
273.484
273.832
274.21
274.63
275.1
275.632
276.237
276.927
277.715
278.615
279.649
280.84
282.224
283.847
285.739
273.154
273.469
273.806
274.172
274.577
275.031
275.542
276.122
276.782
277.532
278.389
279.368
280.496
281.808
283.358
285.204
273.149
273.454
273.779
274.132
274.521
274.956
275.445
275.998
276.623
277.332
278.135
279.048
280.09
281.29
282.692
284.356
273.149
273.454
273.778
274.131
274.521
274.955
275.444
275.996
276.622
277.33
278.133
279.046
280.088
281.288
282.691
284.355
273.143
273.437
273.75
274.088
274.461
274.875
275.339
275.86
276.445
277.102
277.837
278.659
279.574
280.587
281.692
282.849
273.138
273.422
273.723
274.048
274.405
274.8
275.239
275.73
276.276
276.883
277.553
278.288
279.085
279.933
280.808
281.65
273.134
273.408
273.698
274.012
274.354
274.731
275.149
275.612
276.123
276.684
277.296
277.954
278.65
279.367
280.074
280.72
273.13
273.396
273.678
273.981
274.311
274.674
275.073
275.512
275.993
276.516
277.078
277.673
278.289
278.907
279.497
280.019
273.127
273.387
273.662
273.958
274.279
274.629
275.014
275.434
275.892
276.385
276.91
277.457
278.014
278.562
279.073
279.516
273.125
273.382
273.652
273.943
274.257
274.6
274.975
275.383
275.825
276.297
276.796
277.312
277.831
278.333
278.797
279.192
273.124
273.379
273.648
273.936
274.248
274.587
274.957
275.359
275.792
276.255
276.741
277.241
277.741
278.222
278.662
279.035
273.154
273.469
273.805
274.171
274.575
275.028
275.539
276.119
276.778
277.528
278.384
279.363
280.491
281.803
283.353
285.2
273.148
273.452
273.775
274.126
274.513
274.944
275.429
275.974
276.59
277.285
278.067
278.946
279.933
281.035
282.251
283.532
273.143
273.436
273.747
274.084
274.454
274.865
275.323
275.837
276.411
277.051
277.762
278.546
279.402
280.32
281.274
282.198
273.138
273.421
273.721
274.046
274.401
274.793
275.228
275.712
276.248
276.839
277.486
278.186
278.93
279.7
280.465
281.167
273.134
273.409
273.7
274.014
274.356
274.732
275.148
275.606
276.11
276.66
277.253
277.883
278.538
279.198
279.831
280.392
273.131
273.4
273.684
273.989
274.321
274.686
275.085
275.524
276.003
276.52
277.071
277.649
278.239
278.821
279.367
279.839
273.129
273.394
273.673
273.973
274.299
274.655
275.044
275.469
275.931
276.426
276.95
277.493
278.041
278.573
279.064
279.485
273.128
273.391
273.669
273.967
274.289
274.641
275.025
275.444
275.896
276.381
276.891
277.416
277.943
278.452
278.918
279.313
273.158
273.483
273.83
274.208
274.626
275.096
275.627
276.231
276.92
277.707
278.607
279.64
280.831
282.215
283.839
285.733
273.152
273.465
273.799
274.161
274.561
275.008
275.512
276.08
276.723
277.451
278.273
279.2
280.242
281.407
282.688
284.026
273.147
273.449
273.769
274.117
274.5
274.925
275.401
275.936
276.535
277.205
277.951
278.776
279.679
280.649
281.657
282.631
273.142
273.433
273.743
274.077
274.444
274.85
275.302
275.805
276.364
276.982
277.659
278.394
279.178
279.991
280.799
281.54
273.138
273.421
273.721
274.044
274.397
274.787
275.217
275.694
276.218
276.792
277.412
278.073
278.762
279.457
280.124
280.716
273.135
273.411
273.704
274.019
274.362
274.738
275.152
275.607
276.105
276.644
277.22
277.825
278.444
279.056
279.629
280.127
273.133
273.405
273.693
274.002
274.338
274.706
275.109
275.55
276.029
276.545
277.091
277.659
278.233
278.791
279.307
279.748
273.132
273.402
273.688
273.995
274.328
274.691
275.089
275.523
275.993
276.497
277.029
277.578
278.129
278.662
279.15
279.565
273.162
273.496
273.852
274.241
274.672
275.156
275.705
276.33
277.044
277.861
278.796
279.869
281.104
282.53
284.182
286.068
273.156
273.478
273.82
274.192
274.604
275.065
275.585
276.173
276.84
277.595
278.449
279.412
280.494
281.699
283.014
284.37
273.151
273.46
273.789
274.147
274.541
274.979
275.471
276.023
276.643
277.339
278.114
278.971
279.91
280.916
281.958
282.957
273.146
273.445
273.762
274.106
274.483
274.901
275.367
275.887
276.465
277.106
277.809
278.573
279.388
280.233
281.071
281.836
273.141
273.431
273.739
274.071
274.435
274.835
275.279
275.771
276.314
276.908
277.551
278.238
278.953
279.676
280.37
280.983
273.138
273.421
273.721
274.045
274.397
274.785
275.211
275.681
276.196
276.754
277.351
277.978
278.621
279.257
279.853
280.37
273.136
273.415
273.71
274.028
274.373
274.751
275.167
275.621
276.117
276.65
277.216
277.805
278.4
278.98
279.516
279.975
273.135
273.412
273.706
274.02
274.362
274.736
275.146
275.593
276.079
276.6
277.151
277.72
278.292
278.845
279.352
279.783
273.166
273.507
273.871
274.268
274.71
275.207
275.77
276.412
277.147
277.987
278.948
280.05
281.312
282.76
284.419
286.285
273.16
273.488
273.838
274.219
274.641
275.113
275.646
276.251
276.936
277.713
278.591
279.581
280.69
281.919
283.249
284.607
273.154
273.47
273.806
274.172
274.575
275.024
275.529
276.096
276.734
277.449
278.246
279.128
280.092
281.122
282.183
283.193
273.149
273.454
273.778
274.13
274.516
274.944
275.422
275.955
276.55
277.209
277.933
278.718
279.556
280.423
281.281
282.061
273.144
273.44
273.755
274.094
274.466
274.876
275.331
275.836
276.393
277.004
277.666
278.372
279.109
279.852
280.564
281.192
273.141
273.43
273.737
274.067
274.428
274.824
275.261
275.743
276.271
276.845
277.459
278.105
278.767
279.421
280.034
280.564
273.139
273.423
273.725
274.049
274.403
274.79
275.215
275.682
276.19
276.738
277.32
277.925
278.538
279.135
279.687
280.159
273.138
273.421
273.72
274.042
274.392
274.774
275.194
275.652
276.151
276.686
277.252
277.838
278.426
278.996
279.518
279.962
273.169
273.515
273.885
274.29
274.74
275.246
275.82
276.476
277.225
278.082
279.062
280.182
281.461
282.92
284.578
286.424
273.162
273.496
273.852
274.239
274.669
275.15
275.694
276.31
277.01
277.802
278.698
279.706
280.832
282.075
283.411
284.765
273.156
273.478
273.82
274.192
274.602
275.06
275.574
276.152
276.803
277.533
278.347
279.246
280.226
281.271
282.342
283.357
273.151
273.461
273.791
274.148
274.541
274.978
275.465
276.009
276.615
277.287
278.026
278.828
279.681
280.564
281.433
282.222
273.147
273.447
273.767
274.112
274.49
274.908
275.372
275.886
276.455
277.078
277.754
278.475
279.226
279.983
280.707
281.345
273.143
273.437
273.748
274.084
274.451
274.855
275.3
275.792
276.33
276.915
277.543
278.202
278.877
279.545
280.169
280.71
273.141
273.43
273.737
274.066
274.426
274.82
275.253
275.728
276.247
276.806
277.4
278.018
278.644
279.254
279.817
280.298
273.14
273.427
273.732
274.059
274.414
274.804
275.231
275.698
276.207
276.753
277.331
277.929
278.53
279.111
279.644
280.097
273.17
273.521
273.895
274.305
274.76
275.272
275.854
276.518
277.278
278.146
279.138
280.269
281.558
283.021
284.675
286.508
273.164
273.501
273.861
274.253
274.688
275.176
275.726
276.351
277.059
277.863
278.77
279.789
280.925
282.174
283.513
284.862
273.158
273.483
273.829
274.205
274.62
275.084
275.604
276.19
276.85
277.59
278.414
279.324
280.314
281.367
282.443
283.46
273.153
273.466
273.8
274.161
274.559
275.001
275.494
276.045
276.659
277.341
278.09
278.901
279.765
280.656
281.532
282.325
273.148
273.452
273.775
274.124
274.507
274.93
275.4
275.921
276.497
277.129
277.814
278.544
279.305
280.07
280.802
281.446
273.145
273.442
273.756
274.096
274.467
274.876
275.327
275.825
276.37
276.963
277.599
278.267
278.952
279.627
280.26
280.806
273.143
273.435
273.744
274.078
274.441
274.84
275.279
275.76
276.286
276.852
277.455
278.081
278.716
279.333
279.903
280.39
273.142
273.432
273.739
274.07
274.43
274.824
275.256
275.73
276.245
276.798
277.384
277.99
278.6
279.189
279.729
280.188
273.171
273.524
273.9
274.312
274.77
275.286
275.872
276.54
277.304
278.178
279.175
280.312
281.605
283.07
284.722
286.547
273.165
273.504
273.866
274.261
274.698
275.188
275.743
276.371
277.085
277.893
278.805
279.83
280.971
282.223
283.562
284.909
273.159
273.486
273.833
274.212
274.629
275.096
275.62
276.21
276.874
277.618
278.447
279.363
280.358
281.415
282.493
283.51
273.154
273.469
273.804
274.168
274.568
275.012
275.508
276.063
276.682
277.368
278.121
278.938
279.806
280.701
281.581
282.375
273.149
273.455
273.779
274.131
274.516
274.941
275.414
275.938
276.518
277.154
277.844
278.579
279.344
280.114
280.849
281.495
273.146
273.444
273.761
274.102
274.476
274.887
275.34
275.841
276.391
276.988
277.628
278.3
278.989
279.669
280.305
280.854
273.143
273.437
273.749
274.084
274.449
274.851
275.292
275.777
276.305
276.876
277.482
278.113
278.751
279.373
279.947
280.437
273.142
273.434
273.743
274.076
274.438
274.834
275.269
275.746
276.264
276.822
277.411
278.021
278.635
279.228
279.772
280.234
273.121
273.368
273.628
273.907
274.208
274.535
274.89
275.275
275.689
276.13
276.591
277.064
277.535
277.986
278.398
278.747
273.117
273.356
273.607
273.876
274.166
274.479
274.82
275.187
275.582
276
276.435
276.88
277.322
277.744
278.127
278.451
273.113
273.344
273.587
273.847
274.126
274.427
274.753
275.105
275.48
275.876
276.288
276.706
277.119
277.512
277.868
278.168
273.11
273.334
273.57
273.821
274.09
274.381
274.694
275.03
275.388
275.765
276.154
276.547
276.935
277.301
277.632
277.911
273.107
273.325
273.555
273.799
274.06
274.341
274.644
274.967
275.31
275.67
276.04
276.413
276.778
277.122
277.432
277.691
273.105
273.319
273.543
273.782
274.037
274.311
274.605
274.918
275.25
275.596
275.951
276.307
276.655
276.982
277.274
277.519
273.103
273.314
273.536
273.771
274.022
274.291
274.579
274.886
275.209
275.546
275.891
276.236
276.571
276.886
277.167
277.402
273.103
273.313
273.533
273.766
274.015
274.282
274.567
274.87
275.189
275.522
275.861
276.201
276.53
276.838
277.113
277.342
273.121
273.37
273.632
273.913
274.217
274.547
274.907
275.297
275.719
276.169
276.641
277.128
277.616
278.087
278.518
278.886
273.117
273.358
273.611
273.882
274.174
274.491
274.835
275.208
275.609
276.035
276.481
276.938
277.394
277.832
278.233
278.573
273.114
273.346
273.591
273.852
274.134
274.438
274.768
275.124
275.505
275.908
276.329
276.757
277.183
277.589
277.959
278.272
273.11
273.336
273.573
273.826
274.097
274.391
274.707
275.048
275.411
275.794
276.191
276.594
276.991
277.369
277.711
278
273.107
273.327
273.558
273.803
274.067
274.351
274.656
274.984
275.332
275.697
276.074
276.454
276.828
277.181
277.5
277.768
273.105
273.32
273.546
273.787
274.044
274.32
274.617
274.934
275.27
275.621
275.982
276.345
276.7
277.035
277.335
277.587
273.104
273.316
273.539
273.776
274.029
274.3
274.591
274.901
275.229
275.57
275.921
276.272
276.614
276.935
277.223
277.463
273.103
273.314
273.536
273.771
274.022
274.291
274.579
274.885
275.209
275.546
275.891
276.236
276.571
276.886
277.167
277.401
273.123
273.375
273.641
273.927
274.236
274.574
274.943
275.345
275.781
276.25
276.745
277.26
277.782
278.292
278.765
279.173
273.119
273.363
273.62
273.895
274.193
274.516
274.869
275.253
275.667
276.109
276.576
277.057
277.542
278.013
278.449
278.821
273.115
273.351
273.599
273.865
274.151
274.462
274.799
275.165
275.558
275.976
276.414
276.864
277.314
277.747
278.145
278.485
273.112
273.34
273.581
273.838
274.114
274.413
274.737
275.086
275.46
275.856
276.268
276.689
277.106
277.507
277.871
278.181
273.109
273.331
273.565
273.815
274.083
274.372
274.684
275.019
275.377
275.753
276.144
276.54
276.93
277.302
277.639
277.923
273.107
273.325
273.554
273.797
274.059
274.34
274.643
274.968
275.312
275.674
276.047
276.423
276.793
277.142
277.457
277.723
273.105
273.32
273.546
273.786
274.044
274.32
274.617
274.934
275.27
275.621
275.982
276.345
276.7
277.034
277.335
277.587
273.105
273.319
273.543
273.782
274.037
274.311
274.605
274.918
275.249
275.596
275.951
276.307
276.654
276.981
277.274
277.519
273.126
273.384
273.656
273.949
274.267
274.616
274.998
275.417
275.875
276.37
276.9
277.457
278.03
278.601
279.142
279.616
273.122
273.371
273.634
273.916
274.222
274.555
274.921
275.32
275.753
276.22
276.716
277.235
277.764
278.285
278.775
279.201
273.118
273.358
273.612
273.884
274.178
274.499
274.848
275.227
275.638
276.077
276.541
277.022
277.509
277.983
278.425
278.805
273.114
273.347
273.593
273.856
274.14
274.448
274.782
275.144
275.533
275.948
276.383
276.83
277.278
277.711
278.11
278.451
273.111
273.338
273.577
273.833
274.107
274.405
274.726
275.073
275.445
275.838
276.248
276.666
277.082
277.48
277.844
278.153
273.109
273.331
273.565
273.815
274.083
274.372
274.684
275.019
275.376
275.753
276.143
276.539
276.93
277.301
277.638
277.923
273.107
273.327
273.558
273.803
274.067
274.35
274.656
274.983
275.331
275.696
276.073
276.453
276.827
277.181
277.499
277.768
273.107
273.325
273.555
273.799
274.06
274.341
274.643
274.966
275.31
275.669
276.039
276.412
276.777
277.121
277.431
277.691
273.129
273.395
273.676
273.978
274.307
274.67
275.069
275.51
275.996
276.526
277.1
277.713
278.355
279.011
279.649
280.225
273.125
273.381
273.652
273.943
274.259
274.606
274.987
275.406
275.865
276.362
276.898
277.464
278.052
278.643
279.21
279.714
273.121
273.368
273.63
273.91
274.214
274.546
274.91
275.308
275.74
276.207
276.705
277.226
277.761
278.291
278.793
279.231
273.117
273.357
273.61
273.881
274.174
274.493
274.84
275.219
275.628
276.067
276.53
277.011
277.499
277.976
278.42
278.804
273.114
273.347
273.593
273.856
274.14
274.447
274.781
275.143
275.533
275.947
276.382
276.829
277.277
277.71
278.109
278.45
273.112
273.34
273.581
273.837
274.114
274.413
274.736
275.085
275.459
275.855
276.267
276.687
277.105
277.505
277.87
278.18
273.11
273.335
273.573
273.825
274.097
274.39
274.706
275.047
275.41
275.793
276.19
276.592
276.99
277.368
277.71
277.999