/*--------------------------------*- C++ -*----------------------------------*\
| =========                 |                                                 |
| \\      /  F ield         | OpenFOAM: The Open Source CFD Toolbox           |
|  \\    /   O peration     | Version:  v1912                                 |
|   \\  /    A nd           | Website:  www.openfoam.com                      |
|    \\/     M anipulation  |                                                 |
\*---------------------------------------------------------------------------*/
FoamFile
{
    version     2.0;
    format      ascii;
    class       pointVectorField;
    location    "0.05/fluid";
    object      pointMotionU;
}
// * * * * * * * * * * * * * * * * * * * * * * * * * * * * * * * * * * * * * //

dimensions      [0 1 -1 0 0 0 0];


internalField   nonuniform List<vector> 
16859
(
(0 0 0)
(0 0 0)
(0 0 0)
(0 0 0)
(0 0 0)
(0 0 0)
(0 0 0)
(0 0 0)
(0 0 0)
(0 0 0)
(0 0 0)
(0 0 0)
(0 0 0)
(0 0 0)
(0 0 0)
(0 0 0)
(-1.12269e-07 4.57914e-07 -3.56054e-08)
(0 0 0)
(9.02949e-09 -2.07262e-08 1.34688e-08)
(1.56523e-08 -4.19702e-08 2.73483e-08)
(1.92704e-08 -6.57615e-08 4.32502e-08)
(1.92411e-08 -9.36679e-08 6.25993e-08)
(1.47231e-08 -1.26737e-07 8.67366e-08)
(4.43637e-09 -1.65587e-07 1.17116e-07)
(-1.28422e-08 -2.09612e-07 1.55287e-07)
(-3.80452e-08 -2.56524e-07 2.02377e-07)
(-7.2179e-08 -3.03569e-07 2.58405e-07)
(-1.15076e-07 -3.47156e-07 3.21535e-07)
(-1.63531e-07 -3.80691e-07 3.87649e-07)
(-2.12237e-07 -3.94162e-07 4.51285e-07)
(-2.62782e-07 -3.74617e-07 5.07509e-07)
(-3.25112e-07 -2.98928e-07 5.49971e-07)
(-3.77108e-07 -1.41526e-07 5.60428e-07)
(-2.58678e-08 3.28363e-07 3.76368e-07)
(0 0 0)
(1.73402e-08 -4.13133e-08 2.675e-08)
(3.00192e-08 -8.3602e-08 5.43204e-08)
(3.67158e-08 -1.31053e-07 8.59147e-08)
(3.60908e-08 -1.86861e-07 1.24352e-07)
(2.65438e-08 -2.5311e-07 1.72342e-07)
(6.18155e-09 -3.30627e-07 2.3285e-07)
(-2.66334e-08 -4.17919e-07 3.08909e-07)
(-7.33933e-08 -5.11396e-07 4.02708e-07)
(-1.35246e-07 -6.06734e-07 5.14465e-07)
(-2.10163e-07 -6.9709e-07 6.40594e-07)
(-2.90092e-07 -7.70799e-07 7.72794e-07)
(-3.61996e-07 -8.12404e-07 8.9977e-07)
(-4.19829e-07 -8.06748e-07 1.01103e-06)
(-4.56841e-07 -7.38554e-07 1.09715e-06)
(-4.21219e-07 -6.0965e-07 1.13922e-06)
(1.41969e-07 -3.64675e-07 1.13135e-06)
(0 0 0)
(2.49743e-08 -6.0833e-08 3.95132e-08)
(4.31775e-08 -1.23105e-07 8.02397e-08)
(5.2562e-08 -1.93114e-07 1.26892e-07)
(5.12331e-08 -2.75531e-07 1.83631e-07)
(3.72814e-08 -3.73302e-07 2.54544e-07)
(8.96424e-09 -4.87169e-07 3.4404e-07)
(-3.53169e-08 -6.15474e-07 4.56548e-07)
(-9.68774e-08 -7.54629e-07 5.95552e-07)
(-1.75309e-07 -8.99073e-07 7.61702e-07)
(-2.65418e-07 -1.03961e-06 9.50025e-07)
(-3.54453e-07 -1.16177e-06 1.14855e-06)
(-4.23832e-07 -1.24773e-06 1.3402e-06)
(-4.63576e-07 -1.28324e-06 1.5087e-06)
(-4.63407e-07 -1.26151e-06 1.64265e-06)
(-3.77574e-07 -1.19233e-06 1.72408e-06)
(1.83165e-07 -1.02471e-06 1.73414e-06)
(0 0 0)
(3.20891e-08 -7.83591e-08 5.14978e-08)
(5.54804e-08 -1.58609e-07 1.0455e-07)
(6.75546e-08 -2.48893e-07 1.65256e-07)
(6.61179e-08 -3.55186e-07 2.3904e-07)
(4.94893e-08 -4.81004e-07 3.31249e-07)
(1.63945e-08 -6.27377e-07 4.47566e-07)
(-3.40237e-08 -7.93012e-07 5.93803e-07)
(-1.01518e-07 -9.74472e-07 7.74828e-07)
(-1.83007e-07 -1.16578e-06 9.9203e-07)
(-2.69825e-07 -1.35682e-06 1.23973e-06)
(-3.46202e-07 -1.53209e-06 1.50306e-06)
(-3.92755e-07 -1.67295e-06 1.75978e-06)
(-4.03219e-07 -1.76541e-06 1.987e-06)
(-3.76551e-07 -1.80452e-06 2.16687e-06)
(-2.82127e-07 -1.79269e-06 2.27323e-06)
(2.43547e-07 -1.67571e-06 2.27042e-06)
(0 0 0)
(3.88444e-08 -9.31417e-08 6.25135e-08)
(6.7326e-08 -1.88553e-07 1.26842e-07)
(8.25057e-08 -2.95828e-07 2.00295e-07)
(8.22049e-08 -4.21993e-07 2.89399e-07)
(6.51697e-08 -5.71153e-07 4.00579e-07)
(3.10258e-08 -7.44696e-07 5.40628e-07)
(-1.95885e-08 -9.41805e-07 7.16655e-07)
(-8.4114e-08 -1.15944e-06 9.3485e-07)
(-1.5609e-07 -1.39192e-06 1.19757e-06)
(-2.23428e-07 -1.62922e-06 1.49908e-06)
(-2.6895e-07 -1.85614e-06 1.82302e-06)
(-2.75673e-07 -2.05487e-06 2.14404e-06)
(-2.44479e-07 -2.21305e-06 2.43499e-06)
(-1.87471e-07 -2.32666e-06 2.67129e-06)
(-9.03882e-08 -2.38469e-06 2.81332e-06)
(3.90373e-07 -2.32265e-06 2.80092e-06)
(0 0 0)
(4.53799e-08 -1.04628e-07 7.24203e-08)
(7.90683e-08 -2.11748e-07 1.46798e-07)
(9.80589e-08 -3.32023e-07 2.31437e-07)
(1.0047e-07 -4.73087e-07 3.33736e-07)
(8.56242e-08 -6.39595e-07 4.61007e-07)
(5.42239e-08 -8.33487e-07 6.20963e-07)
(8.61e-09 -1.05434e-06 8.21693e-07)
(-4.59054e-08 -1.2997e-06 1.07053e-06)
(-9.92558e-08 -1.56432e-06 1.3707e-06)
(-1.36299e-07 -1.83848e-06 1.71682e-06)
(-1.39039e-07 -2.10803e-06 2.09252e-06)
(-9.26698e-08 -2.35824e-06 2.47321e-06)
(-2.76591e-09 -2.58255e-06 2.83327e-06)
(1.12597e-07 -2.78554e-06 3.14916e-06)
(2.51569e-07 -2.95151e-06 3.37075e-06)
(6.99886e-07 -2.98189e-06 3.39818e-06)
(0 0 0)
(5.17831e-08 -1.1244e-07 8.11126e-08)
(9.08797e-08 -2.27396e-07 1.64195e-07)
(1.14434e-07 -3.56127e-07 2.58329e-07)
(1.20979e-07 -5.06526e-07 3.71569e-07)
(1.10529e-07 -6.83683e-07 5.11823e-07)
(8.48633e-08 -8.90123e-07 6.87352e-07)
(4.79817e-08 -1.12576e-06 9.06716e-07)
(7.93769e-09 -1.3886e-06 1.17792e-06)
(-2.23888e-08 -1.67341e-06 1.50469e-06)
(-2.59689e-08 -1.97031e-06 1.88168e-06)
(1.53984e-08 -2.26636e-06 2.2934e-06)
(1.15519e-07 -2.55043e-06 2.7189e-06)
(2.7099e-07 -2.82241e-06 3.14006e-06)
(4.77082e-07 -3.09887e-06 3.54823e-06)
(7.34589e-07 -3.36965e-06 3.90366e-06)
(1.31115e-06 -3.78266e-06 4.18518e-06)
(0 0 0)
(5.8049e-08 -1.16284e-07 8.85126e-08)
(1.02613e-07 -2.35049e-07 1.78926e-07)
(1.31189e-07 -3.67412e-07 2.80909e-07)
(1.42755e-07 -5.21437e-07 4.02964e-07)
(1.38092e-07 -7.02612e-07 5.53173e-07)
(1.20113e-07 -9.13435e-07 7.39649e-07)
(9.44307e-08 -1.15427e-06 9.71e-07)
(7.06005e-08 -1.42316e-06 1.25511e-06)
(6.24512e-08 -1.71451e-06 1.59533e-06)
(8.67169e-08 -2.01826e-06 1.98558e-06)
(1.60744e-07 -2.32118e-06 2.41074e-06)
(2.95645e-07 -2.61372e-06 2.85274e-06)
(4.89511e-07 -2.89708e-06 3.2989e-06)
(7.44526e-07 -3.18319e-06 3.74948e-06)
(1.05297e-06 -3.44981e-06 4.16462e-06)
(1.90115e-06 -3.92154e-06 4.88476e-06)
(0 0 0)
(0 0 0)
(0 0 0)
(0 0 0)
(0 0 0)
(0 0 0)
(0 0 0)
(0 0 0)
(0 0 0)
(0 0 0)
(0 0 0)
(0 0 0)
(0 0 0)
(0 0 0)
(0 0 0)
(0 0 0)
(-7.61454e-07 9.19518e-08 2.57314e-07)
(0 0 0)
(8.12093e-09 -2.04383e-08 1.29538e-08)
(1.36404e-08 -4.16911e-08 2.63769e-08)
(1.57222e-08 -6.59388e-08 4.18659e-08)
(1.35276e-08 -9.4801e-08 6.08281e-08)
(6.07737e-09 -1.29342e-07 8.46216e-08)
(-8.08655e-09 -1.70131e-07 1.14721e-07)
(-3.07113e-08 -2.16631e-07 1.52678e-07)
(-6.38252e-08 -2.66904e-07 1.99763e-07)
(-1.10176e-07 -3.18527e-07 2.56439e-07)
(-1.72492e-07 -3.68249e-07 3.21606e-07)
(-2.52598e-07 -4.10218e-07 3.92504e-07)
(-3.54134e-07 -4.36188e-07 4.65997e-07)
(-4.92961e-07 -4.36434e-07 5.41114e-07)
(-7.01686e-07 -3.94355e-07 6.20819e-07)
(-9.88615e-07 -2.92737e-07 7.07007e-07)
(-1.45589e-06 -1.34701e-07 9.14379e-07)
(0 0 0)
(1.55248e-08 -4.0799e-08 2.57401e-08)
(2.60356e-08 -8.31206e-08 5.24061e-08)
(2.9796e-08 -1.31376e-07 8.31576e-08)
(2.51153e-08 -1.88896e-07 1.20797e-07)
(1.00318e-08 -2.57915e-07 1.68069e-07)
(-1.7867e-08 -3.39397e-07 2.27967e-07)
(-6.12127e-08 -4.32055e-07 3.03585e-07)
(-1.23164e-07 -5.32537e-07 3.97437e-07)
(-2.07624e-07 -6.36811e-07 5.10445e-07)
(-3.17157e-07 -7.38523e-07 6.40294e-07)
(-4.50854e-07 -8.2674e-07 7.80778e-07)
(-6.06414e-07 -8.87667e-07 9.23734e-07)
(-7.88912e-07 -9.08647e-07 1.06328e-06)
(-9.98346e-07 -8.78321e-07 1.1991e-06)
(-1.18351e-06 -8.00943e-07 1.33211e-06)
(-1.37465e-06 -7.57877e-07 1.64096e-06)
(0 0 0)
(2.23114e-08 -6.01276e-08 3.80345e-08)
(3.73827e-08 -1.22439e-07 7.74172e-08)
(4.26152e-08 -1.93527e-07 1.22792e-07)
(3.55657e-08 -2.78376e-07 1.78315e-07)
(1.37463e-08 -3.80241e-07 2.48093e-07)
(-2.53677e-08 -5.00189e-07 3.36595e-07)
(-8.45075e-08 -6.36695e-07 4.48407e-07)
(-1.66753e-07 -7.86108e-07 5.87407e-07)
(-2.74799e-07 -9.43094e-07 7.55143e-07)
(-4.08492e-07 -1.09873e-06 9.48183e-07)
(-5.62387e-07 -1.2387e-06 1.15681e-06)
(-7.27612e-07 -1.34587e-06 1.36716e-06)
(-9.00344e-07 -1.40692e-06 1.56715e-06)
(-1.06697e-06 -1.41674e-06 1.75316e-06)
(-1.17584e-06 -1.38699e-06 1.92651e-06)
(-1.34299e-06 -1.3647e-06 2.2471e-06)
(0 0 0)
(2.86645e-08 -7.74995e-08 4.95794e-08)
(4.80725e-08 -1.57801e-07 1.00866e-07)
(5.49096e-08 -2.49464e-07 1.59871e-07)
(4.62988e-08 -3.58892e-07 2.3199e-07)
(1.98199e-08 -4.90091e-07 3.22609e-07)
(-2.65972e-08 -6.44398e-07 4.37497e-07)
(-9.47986e-08 -8.20462e-07 5.82654e-07)
(-1.86143e-07 -1.01472e-06 7.63445e-07)
(-3.00407e-07 -1.22119e-06 9.82234e-07)
(-4.33601e-07 -1.42953e-06 1.23485e-06)
(-5.76796e-07 -1.6236e-06 1.50859e-06)
(-7.19564e-07 -1.7842e-06 1.78395e-06)
(-8.60494e-07 -1.89691e-06 2.04168e-06)
(-9.94715e-07 -1.95738e-06 2.27102e-06)
(-1.08933e-06 -1.97111e-06 2.46642e-06)
(-1.27357e-06 -1.96884e-06 2.78232e-06)
(0 0 0)
(3.47523e-08 -9.21745e-08 6.0187e-08)
(5.85129e-08 -1.87664e-07 1.22346e-07)
(6.75341e-08 -2.96591e-07 1.93673e-07)
(5.88766e-08 -4.26491e-07 2.80658e-07)
(3.05309e-08 -5.82005e-07 3.89759e-07)
(-1.85502e-08 -7.64782e-07 5.27862e-07)
(-8.84379e-08 -9.73888e-07 7.02324e-07)
(-1.77715e-07 -1.20608e-06 9.19885e-07)
(-2.82139e-07 -1.45535e-06 1.18386e-06)
(-3.93489e-07 -1.71085e-06 1.48986e-06)
(-5.00675e-07 -1.95576e-06 1.82314e-06)
(-5.95563e-07 -2.17062e-06 2.16044e-06)
(-6.85423e-07 -2.34172e-06 2.4776e-06)
(-7.83241e-07 -2.46505e-06 2.75707e-06)
(-8.79068e-07 -2.53389e-06 2.98313e-06)
(-1.099e-06 -2.55946e-06 3.29984e-06)
(0 0 0)
(4.07295e-08 -1.03593e-07 6.9714e-08)
(6.91181e-08 -2.10795e-07 1.41535e-07)
(8.12888e-08 -3.32843e-07 2.23634e-07)
(7.45504e-08 -4.77981e-07 3.23352e-07)
(4.75261e-08 -6.51428e-07 4.48026e-07)
(4.22555e-10 -8.55334e-07 6.0549e-07)
(-6.46947e-08 -1.08913e-06 8.041e-07)
(-1.43075e-07 -1.35004e-06 1.05176e-06)
(-2.25966e-07 -1.63213e-06 1.35261e-06)
(-3.00817e-07 -1.92421e-06 1.70219e-06)
(-3.54487e-07 -2.2096e-06 2.08513e-06)
(-3.80508e-07 -2.47085e-06 2.47783e-06)
(-3.91876e-07 -2.69972e-06 2.85682e-06)
(-4.12399e-07 -2.90173e-06 3.20483e-06)
(-4.57587e-07 -3.06976e-06 3.49774e-06)
(-7.24241e-07 -3.128e-06 3.85189e-06)
(0 0 0)
(4.67268e-08 -1.11346e-07 7.8047e-08)
(8.01472e-08 -2.26333e-07 1.58208e-07)
(9.65346e-08 -3.5679e-07 2.4941e-07)
(9.35997e-08 -5.11342e-07 3.59631e-07)
(7.06763e-08 -6.95689e-07 4.968e-07)
(2.9301e-08 -9.12442e-07 6.6928e-07)
(-2.64113e-08 -1.16136e-06 8.85952e-07)
(-8.84071e-08 -1.43995e-06 1.15535e-06)
(-1.44019e-07 -1.74201e-06 1.48191e-06)
(-1.77191e-07 -2.05566e-06 1.86093e-06)
(-1.72751e-07 -2.36439e-06 2.27713e-06)
(-1.23326e-07 -2.65326e-06 2.70948e-06)
(-3.72948e-08 -2.91971e-06 3.14063e-06)
(7.87515e-08 -3.18027e-06 3.56517e-06)
(2.22855e-07 -3.43573e-06 3.96658e-06)
(1.18213e-07 -3.78225e-06 4.42353e-06)
(0 0 0)
(5.27695e-08 -1.15133e-07 8.50993e-08)
(9.15329e-08 -2.3377e-07 1.72261e-07)
(1.12868e-07 -3.67781e-07 2.70983e-07)
(1.14938e-07 -5.2599e-07 3.89675e-07)
(9.79863e-08 -7.14292e-07 5.36395e-07)
(6.48647e-08 -9.35306e-07 7.19338e-07)
(2.14929e-08 -1.18911e-06 9.47363e-07)
(-2.19854e-08 -1.47322e-06 1.22883e-06)
(-5.08982e-08 -1.78094e-06 1.56775e-06)
(-4.79758e-08 -2.09962e-06 1.95853e-06)
(2.67379e-09 -2.41193e-06 2.38538e-06)
(1.08164e-07 -2.70337e-06 2.82931e-06)
(2.64076e-07 -2.97027e-06 3.27732e-06)
(4.77196e-07 -3.21968e-06 3.72917e-06)
(7.55441e-07 -3.432e-06 4.15737e-06)
(1.35982e-06 -3.55812e-06 4.7928e-06)
(0 0 0)
(0 0 0)
(0 0 0)
(0 0 0)
(0 0 0)
(0 0 0)
(0 0 0)
(0 0 0)
(0 0 0)
(0 0 0)
(0 0 0)
(0 0 0)
(0 0 0)
(0 0 0)
(0 0 0)
(0 0 0)
(-1.16514e-06 -1.59538e-07 1.50795e-07)
(0 0 0)
(6.9973e-09 -2.04082e-08 1.20435e-08)
(1.12326e-08 -4.18679e-08 2.45967e-08)
(1.16151e-08 -6.67042e-08 3.91837e-08)
(7.05035e-09 -9.66572e-08 5.71548e-08)
(-3.66189e-09 -1.32853e-07 7.98255e-08)
(-2.20805e-08 -1.75707e-07 1.08601e-07)
(-5.03599e-08 -2.24597e-07 1.44931e-07)
(-9.16361e-08 -2.78048e-07 1.90097e-07)
(-1.5057e-07 -3.34451e-07 2.44803e-07)
(-2.32926e-07 -3.91223e-07 3.0844e-07)
(-3.45795e-07 -4.43868e-07 3.79005e-07)
(-5.02069e-07 -4.876e-07 4.53925e-07)
(-7.3051e-07 -5.19394e-07 5.30779e-07)
(-1.09015e-06 -5.3992e-07 6.08697e-07)
(-1.62668e-06 -5.58791e-07 6.85758e-07)
(-2.35725e-06 -5.92114e-07 6.39876e-07)
(0 0 0)
(1.33412e-08 -4.07364e-08 2.39546e-08)
(2.13577e-08 -8.34529e-08 4.8902e-08)
(2.18545e-08 -1.32804e-07 7.78462e-08)
(1.26932e-08 -1.92304e-07 1.13473e-07)
(-8.43301e-09 -2.64275e-07 1.5844e-07)
(-4.43118e-08 -3.4958e-07 2.15608e-07)
(-9.85359e-08 -4.47101e-07 2.87916e-07)
(-1.76067e-07 -5.54165e-07 3.7791e-07)
(-2.83699e-07 -6.67491e-07 4.86838e-07)
(-4.28804e-07 -7.81562e-07 6.13142e-07)
(-6.1827e-07 -8.87208e-07 7.51759e-07)
(-8.61322e-07 -9.74404e-07 8.95223e-07)
(-1.17287e-06 -1.03604e-06 1.03481e-06)
(-1.56745e-06 -1.07169e-06 1.16302e-06)
(-2.00597e-06 -1.09309e-06 1.27215e-06)
(-2.38296e-06 -1.14468e-06 1.29209e-06)
(0 0 0)
(1.91661e-08 -6.00337e-08 3.5424e-08)
(3.0664e-08 -1.22896e-07 7.22736e-08)
(3.12787e-08 -1.9549e-07 1.14956e-07)
(1.80082e-08 -2.83042e-07 1.67453e-07)
(-1.21721e-08 -3.89008e-07 2.33744e-07)
(-6.2521e-08 -5.14628e-07 3.18109e-07)
(-1.36888e-07 -6.58535e-07 4.24942e-07)
(-2.40211e-07 -8.17415e-07 5.58102e-07)
(-3.78443e-07 -9.86455e-07 7.19416e-07)
(-5.569e-07 -1.15736e-06 9.06229e-07)
(-7.78442e-07 -1.31705e-06 1.11005e-06)
(-1.04487e-06 -1.45104e-06 1.31779e-06)
(-1.35691e-06 -1.54941e-06 1.51434e-06)
(-1.70533e-06 -1.6134e-06 1.68873e-06)
(-2.0435e-06 -1.6571e-06 1.8343e-06)
(-2.36118e-06 -1.71071e-06 1.8806e-06)
(0 0 0)
(2.46614e-08 -7.74001e-08 4.62054e-08)
(3.95524e-08 -1.58402e-07 9.41962e-08)
(4.06356e-08 -2.51938e-07 1.49669e-07)
(2.43711e-08 -3.64737e-07 2.17796e-07)
(-1.23781e-08 -5.01153e-07 3.03773e-07)
(-7.24822e-08 -6.62763e-07 4.13152e-07)
(-1.58788e-07 -8.48257e-07 5.51715e-07)
(-2.7432e-07 -1.05408e-06 7.24693e-07)
(-4.21945e-07 -1.27433e-06 9.34551e-07)
(-6.03046e-07 -1.49864e-06 1.17769e-06)
(-8.16743e-07 -1.71108e-06 1.44239e-06)
(-1.06232e-06 -1.89372e-06 1.71003e-06)
(-1.34042e-06 -2.03449e-06 1.95912e-06)
(-1.6479e-06 -2.13498e-06 2.17393e-06)
(-1.95796e-06 -2.20606e-06 2.34517e-06)
(-2.28267e-06 -2.27532e-06 2.40336e-06)
(0 0 0)
(2.99958e-08 -9.21098e-08 5.61194e-08)
(4.84438e-08 -1.88446e-07 1.14285e-07)
(5.07922e-08 -2.99577e-07 1.81312e-07)
(3.33614e-08 -4.33402e-07 2.63388e-07)
(-6.60806e-09 -5.94998e-07 3.6675e-07)
(-7.08911e-08 -7.86299e-07 4.98068e-07)
(-1.60294e-07 -1.00624e-06 6.64405e-07)
(-2.74578e-07 -1.25129e-06 8.72246e-07)
(-4.12106e-07 -1.51492e-06 1.12474e-06)
(-5.69546e-07 -1.78535e-06 1.41759e-06)
(-7.43308e-07 -2.04468e-06 1.73651e-06)
(-9.34483e-07 -2.27329e-06 2.0589e-06)
(-1.15288e-06 -2.45911e-06 2.3588e-06)
(-1.41558e-06 -2.60448e-06 2.61643e-06)
(-1.72192e-06 -2.71094e-06 2.81772e-06)
(-2.08492e-06 -2.79756e-06 2.89156e-06)
(0 0 0)
(3.53417e-08 -1.03592e-07 6.50301e-08)
(5.77963e-08 -2.11764e-07 1.3224e-07)
(6.2638e-08 -3.36196e-07 2.09336e-07)
(4.63692e-08 -4.85617e-07 3.03325e-07)
(6.88186e-09 -6.65759e-07 4.21298e-07)
(-5.61462e-08 -8.78981e-07 5.70834e-07)
(-1.40909e-07 -1.12445e-06 7.59964e-07)
(-2.43242e-07 -1.39874e-06 9.96146e-07)
(-3.56353e-07 -1.69479e-06 1.28301e-06)
(-4.71754e-07 -1.99951e-06 1.61567e-06)
(-5.82837e-07 -2.29384e-06 1.97839e-06)
(-6.91988e-07 -2.55857e-06 2.34724e-06)
(-8.15779e-07 -2.78581e-06 2.69579e-06)
(-9.85913e-07 -2.98601e-06 3.00427e-06)
(-1.23273e-06 -3.15986e-06 3.25221e-06)
(-1.64995e-06 -3.24341e-06 3.36358e-06)
(0 0 0)
(4.0857e-08 -1.11408e-07 7.2831e-08)
(6.79252e-08 -2.27407e-07 1.47845e-07)
(7.65912e-08 -3.60286e-07 2.33434e-07)
(6.3716e-08 -5.19319e-07 3.37231e-07)
(2.79745e-08 -7.10747e-07 4.66899e-07)
(-2.93411e-08 -9.37216e-07 6.30488e-07)
(-1.03848e-07 -1.19809e-06 8.36527e-07)
(-1.87639e-07 -1.48987e-06 1.0929e-06)
(-2.69205e-07 -1.80479e-06 1.40328e-06)
(-3.35302e-07 -2.12833e-06 1.76215e-06)
(-3.75865e-07 -2.4403e-06 2.15295e-06)
(-3.91168e-07 -2.72232e-06 2.55282e-06)
(-3.92659e-07 -2.97005e-06 2.93909e-06)
(-3.94981e-07 -3.19859e-06 3.29778e-06)
(-4.13191e-07 -3.40782e-06 3.60449e-06)
(-6.59815e-07 -3.7243e-06 3.76277e-06)
(0 0 0)
(4.65964e-08 -1.15219e-07 7.94437e-08)
(7.88121e-08 -2.34776e-07 1.60987e-07)
(9.22646e-08 -3.71208e-07 2.5361e-07)
(8.42946e-08 -5.34035e-07 3.65337e-07)
(5.46343e-08 -7.29512e-07 5.03879e-07)
(6.14367e-09 -9.60263e-07 6.77177e-07)
(-5.47649e-08 -1.22576e-06 8.93613e-07)
(-1.17602e-07 -1.5224e-06 1.1609e-06)
(-1.6793e-07 -1.84166e-06 1.4822e-06)
(-1.89825e-07 -2.16764e-06 1.85069e-06)
(-1.71279e-07 -2.4789e-06 2.24919e-06)
(-1.10876e-07 -2.75633e-06 2.65628e-06)
(-1.52734e-08 -2.99201e-06 3.05322e-06)
(1.20788e-07 -3.18742e-06 3.4294e-06)
(3.07547e-07 -3.31731e-06 3.75062e-06)
(8.14147e-07 -3.28397e-06 3.98823e-06)
(0 0 0)
(0 0 0)
(0 0 0)
(0 0 0)
(0 0 0)
(0 0 0)
(0 0 0)
(0 0 0)
(0 0 0)
(0 0 0)
(0 0 0)
(0 0 0)
(0 0 0)
(0 0 0)
(0 0 0)
(0 0 0)
(-1.29848e-06 -2.55729e-07 1.39566e-07)
(0 0 0)
(5.90816e-09 -2.04356e-08 1.07052e-08)
(8.92371e-09 -4.20954e-08 2.19204e-08)
(7.71606e-09 -6.74379e-08 3.50324e-08)
(9.67917e-10 -9.8317e-08 5.12808e-08)
(-1.27346e-08 -1.35905e-07 7.18532e-08)
(-3.51597e-08 -1.80561e-07 9.80146e-08)
(-6.8909e-08 -2.31711e-07 1.31087e-07)
(-1.18077e-07 -2.88286e-07 1.72268e-07)
(-1.88833e-07 -3.49313e-07 2.22282e-07)
(-2.88959e-07 -4.12854e-07 2.80645e-07)
(-4.2807e-07 -4.75368e-07 3.45254e-07)
(-6.2195e-07 -5.34104e-07 4.12691e-07)
(-9.03688e-07 -5.90226e-07 4.7844e-07)
(-1.33971e-06 -6.52139e-07 5.37479e-07)
(-1.9648e-06 -7.30762e-07 5.81301e-07)
(-2.69083e-06 -7.94112e-07 5.67291e-07)
(0 0 0)
(1.12248e-08 -4.07663e-08 2.13064e-08)
(1.68635e-08 -8.3867e-08 4.35994e-08)
(1.42864e-08 -1.34193e-07 6.96109e-08)
(9.48635e-10 -1.95437e-07 1.01787e-07)
(-2.58509e-08 -2.70022e-07 1.42544e-07)
(-6.93847e-08 -3.58822e-07 1.9448e-07)
(-1.34114e-07 -4.60877e-07 2.60262e-07)
(-2.26583e-07 -5.74121e-07 3.42269e-07)
(-3.5594e-07 -6.96024e-07 4.4174e-07)
(-5.32656e-07 -8.21791e-07 5.5721e-07)
(-7.67141e-07 -9.43483e-07 6.83523e-07)
(-1.07118e-06 -1.0532e-06 8.12099e-07)
(-1.46059e-06 -1.14721e-06 9.31533e-07)
(-1.94723e-06 -1.22851e-06 1.02951e-06)
(-2.46264e-06 -1.3004e-06 1.09256e-06)
(-2.7998e-06 -1.36087e-06 1.13011e-06)
(0 0 0)
(1.61172e-08 -6.00494e-08 3.15246e-08)
(2.41945e-08 -1.23454e-07 6.44577e-08)
(2.04372e-08 -1.9742e-07 1.02799e-07)
(1.28428e-09 -2.8742e-07 1.50165e-07)
(-3.68489e-08 -3.97093e-07 2.10195e-07)
(-9.79529e-08 -5.27818e-07 2.86779e-07)
(-1.86961e-07 -6.78446e-07 3.83911e-07)
(-3.10498e-07 -8.46058e-07 5.05152e-07)
(-4.77146e-07 -1.02633e-06 6.5215e-07)
(-6.9566e-07 -1.21141e-06 8.22239e-07)
(-9.72303e-07 -1.38902e-06 1.00685e-06)
(-1.30982e-06 -1.54599e-06 1.19188e-06)
(-1.70562e-06 -1.67453e-06 1.36019e-06)
(-2.14102e-06 -1.77729e-06 1.49704e-06)
(-2.53758e-06 -1.86033e-06 1.59128e-06)
(-2.79409e-06 -1.92716e-06 1.65189e-06)
(0 0 0)
(2.07835e-08 -7.74111e-08 4.11399e-08)
(3.13513e-08 -1.59094e-07 8.40336e-08)
(2.69721e-08 -2.54338e-07 1.3384e-07)
(3.43333e-09 -3.70193e-07 1.95261e-07)
(-4.31065e-08 -5.11297e-07 2.73041e-07)
(-1.1632e-07 -6.79439e-07 3.72246e-07)
(-2.20049e-07 -8.73416e-07 4.98144e-07)
(-3.58858e-07 -1.08973e-06 6.55446e-07)
(-5.38104e-07 -1.32248e-06 8.46191e-07)
(-7.62476e-07 -1.56113e-06 1.06653e-06)
(-1.03403e-06 -1.78964e-06 1.30452e-06)
(-1.35184e-06 -1.99061e-06 1.54093e-06)
(-1.71123e-06 -2.15377e-06 1.75355e-06)
(-2.09776e-06 -2.28292e-06 1.92523e-06)
(-2.45509e-06 -2.38477e-06 2.04441e-06)
(-2.71079e-06 -2.46745e-06 2.1199e-06)
(0 0 0)
(2.53996e-08 -9.21399e-08 4.99933e-08)
(3.87796e-08 -1.89277e-07 1.01989e-07)
(3.4799e-08 -3.02388e-07 1.62144e-07)
(9.0248e-09 -4.39761e-07 2.36082e-07)
(-4.20477e-08 -6.06841e-07 3.29503e-07)
(-1.20923e-07 -8.05779e-07 4.48512e-07)
(-2.29133e-07 -1.03542e-06 5.9951e-07)
(-3.67625e-07 -1.29188e-06 7.88223e-07)
(-5.36855e-07 -1.56802e-06 1.01705e-06)
(-7.36413e-07 -1.85103e-06 1.28106e-06)
(-9.65273e-07 -2.12194e-06 1.56543e-06)
(-1.22408e-06 -2.36085e-06 1.84706e-06)
(-1.51754e-06 -2.55744e-06 2.10018e-06)
(-1.85275e-06 -2.71727e-06 2.30572e-06)
(-2.2023e-06 -2.84072e-06 2.44988e-06)
(-2.4973e-06 -2.93011e-06 2.53948e-06)
(0 0 0)
(3.01575e-08 -1.0366e-07 5.7969e-08)
(4.69676e-08 -2.1272e-07 1.18065e-07)
(4.48552e-08 -3.39316e-07 1.87241e-07)
(1.95342e-08 -4.92626e-07 2.71849e-07)
(-3.1853e-08 -6.78821e-07 3.78385e-07)
(-1.10149e-07 -9.00411e-07 5.13786e-07)
(-2.13893e-07 -1.15623e-06 6.85284e-07)
(-3.39625e-07 -1.44209e-06 8.99344e-07)
(-4.8211e-07 -1.74968e-06 1.15853e-06)
(-6.35247e-07 -2.06406e-06 1.45688e-06)
(-7.94685e-07 -2.36405e-06 1.77757e-06)
(-9.62648e-07 -2.62941e-06 2.09565e-06)
(-1.15198e-06 -2.85364e-06 2.38449e-06)
(-1.3866e-06 -3.05019e-06 2.62466e-06)
(-1.67312e-06 -3.22099e-06 2.79789e-06)
(-2.0278e-06 -3.28561e-06 2.90605e-06)
(0 0 0)
(3.52295e-08 -1.11513e-07 6.49789e-08)
(5.62622e-08 -2.28438e-07 1.32077e-07)
(5.75965e-08 -3.63572e-07 2.08868e-07)
(3.52606e-08 -5.26717e-07 3.02262e-07)
(-1.27197e-08 -7.24555e-07 4.19265e-07)
(-8.53143e-08 -9.59758e-07 5.67252e-07)
(-1.78083e-07 -1.2311e-06 7.53839e-07)
(-2.83308e-07 -1.53399e-06 9.8578e-07)
(-3.90445e-07 -1.85893e-06 1.26546e-06)
(-4.88021e-07 -2.18885e-06 1.58585e-06)
(-5.67824e-07 -2.50071e-06 1.92895e-06)
(-6.30415e-07 -2.77431e-06 2.27003e-06)
(-6.84759e-07 -3.0057e-06 2.58434e-06)
(-7.38468e-07 -3.21167e-06 2.8547e-06)
(-7.86375e-07 -3.39543e-06 3.05768e-06)
(-9.76054e-07 -3.69008e-06 3.17971e-06)
(0 0 0)
(4.06924e-08 -1.15329e-07 7.09446e-08)
(6.66518e-08 -2.3582e-07 1.43944e-07)
(7.25864e-08 -3.74547e-07 2.27065e-07)
(5.50259e-08 -5.41601e-07 3.27558e-07)
(1.31771e-08 -7.43628e-07 4.52499e-07)
(-5.01031e-08 -9.83104e-07 6.09106e-07)
(-1.28008e-07 -1.25873e-06 8.04845e-07)
(-2.09819e-07 -1.56564e-06 1.04627e-06)
(-2.815e-07 -1.89335e-06 1.33509e-06)
(-3.28176e-07 -2.22304e-06 1.66316e-06)
(-3.39252e-07 -2.52996e-06 2.01174e-06)
(-3.14142e-07 -2.79277e-06 2.35735e-06)
(-2.57886e-07 -3.00339e-06 2.67856e-06)
(-1.59126e-07 -3.16367e-06 2.96036e-06)
(7.48553e-09 -3.25344e-06 3.1739e-06)
(5.65625e-07 -3.20481e-06 3.32131e-06)
(0 0 0)
(0 0 0)
(0 0 0)
(0 0 0)
(0 0 0)
(0 0 0)
(0 0 0)
(0 0 0)
(0 0 0)
(0 0 0)
(0 0 0)
(0 0 0)
(0 0 0)
(0 0 0)
(0 0 0)
(0 0 0)
(-1.3471e-06 -2.87725e-07 1.22326e-07)
(0 0 0)
(4.88985e-09 -2.05514e-08 8.99437e-09)
(6.79505e-09 -4.24323e-08 1.84558e-08)
(4.17129e-09 -6.82173e-08 2.95693e-08)
(-4.52799e-09 -9.98781e-08 4.33879e-08)
(-2.09202e-08 -1.3865e-07 6.09373e-08)
(-4.69837e-08 -1.84873e-07 8.33087e-08)
(-8.57169e-08 -2.38071e-07 1.11622e-07)
(-1.41815e-07 -2.97472e-07 1.4692e-07)
(-2.22161e-07 -3.62461e-07 1.89812e-07)
(-3.3514e-07 -4.31416e-07 2.39744e-07)
(-4.90664e-07 -5.01227e-07 2.94521e-07)
(-7.04219e-07 -5.69928e-07 3.50465e-07)
(-1.0081e-06 -6.39519e-07 4.03133e-07)
(-1.4672e-06 -7.18897e-07 4.49359e-07)
(-2.10499e-06 -8.14068e-07 4.86394e-07)
(-2.81417e-06 -8.74769e-07 4.83172e-07)
(0 0 0)
(9.23297e-09 -4.09756e-08 1.7911e-08)
(1.26862e-08 -8.45205e-08 3.67248e-08)
(7.33974e-09 -1.35724e-07 5.8768e-08)
(-9.75202e-09 -1.98472e-07 8.61299e-08)
(-4.16727e-08 -2.75295e-07 1.20895e-07)
(-9.21827e-08 -3.67136e-07 1.65286e-07)
(-1.66483e-07 -4.73287e-07 2.21584e-07)
(-2.72013e-07 -5.92002e-07 2.91845e-07)
(-4.18979e-07 -7.21138e-07 3.77042e-07)
(-6.18666e-07 -8.56291e-07 4.756e-07)
(-8.81398e-07 -9.8995e-07 5.82343e-07)
(-1.21717e-06 -1.11485e-06 6.88657e-07)
(-1.63793e-06 -1.22738e-06 7.83999e-07)
(-2.14841e-06 -1.32899e-06 8.59596e-07)
(-2.66194e-06 -1.41494e-06 9.09862e-07)
(-2.9603e-06 -1.47024e-06 9.46604e-07)
(0 0 0)
(1.32304e-08 -6.03321e-08 2.65123e-08)
(1.81429e-08 -1.24383e-07 5.43114e-08)
(1.04164e-08 -1.99614e-07 8.67991e-08)
(-1.40383e-08 -2.91738e-07 1.27075e-07)
(-5.93719e-08 -4.04578e-07 1.78261e-07)
(-1.30276e-07 -5.39716e-07 2.43693e-07)
(-2.32521e-07 -6.96238e-07 3.26799e-07)
(-3.7373e-07 -8.71444e-07 4.3059e-07)
(-5.63568e-07 -1.06118e-06 5.56278e-07)
(-8.1142e-07 -1.25766e-06 7.01018e-07)
(-1.1228e-06 -1.44866e-06 8.56341e-07)
(-1.49697e-06 -1.62122e-06 1.00868e-06)
(-1.92482e-06 -1.76733e-06 1.14276e-06)
(-2.37786e-06 -1.88816e-06 1.24844e-06)
(-2.76045e-06 -1.98345e-06 1.32264e-06)
(-2.96795e-06 -2.05005e-06 1.3757e-06)
(0 0 0)
(1.71046e-08 -7.77573e-08 3.46144e-08)
(2.36661e-08 -1.60255e-07 7.08279e-08)
(1.43254e-08 -2.57078e-07 1.1303e-07)
(-1.57835e-08 -3.75581e-07 1.65242e-07)
(-7.11833e-08 -5.20681e-07 2.31536e-07)
(-1.56299e-07 -6.94412e-07 3.16264e-07)
(-2.75758e-07 -8.95714e-07 4.23928e-07)
(-4.34986e-07 -1.12105e-06 5.58449e-07)
(-6.4025e-07 -1.36425e-06 7.21186e-07)
(-8.96571e-07 -1.61428e-06 9.07976e-07)
(-1.20466e-06 -1.85464e-06 1.10712e-06)
(-1.55922e-06 -2.06787e-06 1.30054e-06)
(-1.9478e-06 -2.2438e-06 1.46912e-06)
(-2.34583e-06 -2.386e-06 1.60173e-06)
(-2.6823e-06 -2.49714e-06 1.69553e-06)
(-2.88539e-06 -2.58058e-06 1.76021e-06)
(0 0 0)
(2.10562e-08 -9.25385e-08 4.20875e-08)
(2.97588e-08 -1.90607e-07 8.59988e-08)
(2.00455e-08 -3.05534e-07 1.36975e-07)
(-1.3225e-08 -4.45954e-07 1.99808e-07)
(-7.43174e-08 -6.17687e-07 2.79392e-07)
(-1.66424e-07 -8.23137e-07 3.8098e-07)
(-2.91626e-07 -1.06107e-06 5.10008e-07)
(-4.51473e-07 -1.32721e-06 6.71163e-07)
(-6.47018e-07 -1.61359e-06 8.65893e-07)
(-8.7794e-07 -1.9063e-06 1.08873e-06)
(-1.14171e-06 -2.18541e-06 1.32513e-06)
(-1.43437e-06 -2.43074e-06 1.55356e-06)
(-1.75304e-06 -2.63279e-06 1.75221e-06)
(-2.09576e-06 -2.79817e-06 1.90921e-06)
(-2.42217e-06 -2.92463e-06 2.02051e-06)
(-2.66527e-06 -3.01083e-06 2.09429e-06)
(0 0 0)
(2.53013e-08 -1.04086e-07 4.88413e-08)
(3.69423e-08 -2.14142e-07 9.96265e-08)
(2.85886e-08 -3.42682e-07 1.58256e-07)
(-4.83736e-09 -4.99318e-07 2.30138e-07)
(-6.69458e-08 -6.90669e-07 3.20851e-07)
(-1.59064e-07 -9.19375e-07 4.36348e-07)
(-2.79983e-07 -1.18396e-06 5.82747e-07)
(-4.2646e-07 -1.4794e-06 7.65244e-07)
(-5.93571e-07 -1.79611e-06 9.85198e-07)
(-7.75182e-07 -2.11752e-06 1.23591e-06)
(-9.6548e-07 -2.42098e-06 1.50073e-06)
(-1.16257e-06 -2.686e-06 1.75618e-06)
(-1.37273e-06 -2.90763e-06 1.97956e-06)
(-1.61192e-06 -3.10137e-06 2.15879e-06)
(-1.87513e-06 -3.26851e-06 2.28674e-06)
(-2.18152e-06 -3.32545e-06 2.36806e-06)
(0 0 0)
(3.00225e-08 -1.11931e-07 5.48127e-08)
(4.55729e-08 -2.29873e-07 1.11574e-07)
(4.03478e-08 -3.67013e-07 1.7668e-07)
(9.54581e-09 -5.33687e-07 2.56021e-07)
(-4.94484e-08 -7.36995e-07 3.55608e-07)
(-1.3585e-07 -9.79583e-07 4.81737e-07)
(-2.45093e-07 -1.25964e-06 6.40817e-07)
(-3.69385e-07 -1.57144e-06 8.38199e-07)
(-4.98295e-07 -1.90393e-06 1.07492e-06)
(-6.20143e-07 -2.238e-06 1.34318e-06)
(-7.25471e-07 -2.5488e-06 1.62501e-06)
(-8.11621e-07 -2.81598e-06 1.89671e-06)
(-8.82307e-07 -3.03784e-06 2.13662e-06)
(-9.37518e-07 -3.23432e-06 2.33327e-06)
(-9.61199e-07 -3.41148e-06 2.47609e-06)
(-1.1069e-06 -3.7083e-06 2.56315e-06)
(0 0 0)
(3.5276e-08 -1.15729e-07 5.99537e-08)
(5.55888e-08 -2.37196e-07 1.21778e-07)
(5.4783e-08 -3.77969e-07 1.923e-07)
(2.86041e-08 -5.48675e-07 2.77697e-07)
(-2.42079e-08 -7.56234e-07 3.83992e-07)
(-1.00806e-07 -1.00298e-06 5.1735e-07)
(-1.93994e-07 -1.28686e-06 6.83989e-07)
(-2.92757e-07 -1.60178e-06 8.89051e-07)
(-3.82928e-07 -1.93555e-06 1.13301e-06)
(-4.4925e-07 -2.26696e-06 1.40699e-06)
(-4.80347e-07 -2.56952e-06 1.69271e-06)
(-4.73578e-07 -2.82193e-06 1.96746e-06)
(-4.30199e-07 -3.01855e-06 2.21148e-06)
(-3.32804e-07 -3.16487e-06 2.41414e-06)
(-1.48382e-07 -3.24558e-06 2.56073e-06)
(4.65092e-07 -3.2102e-06 2.66117e-06)
(0 0 0)
(0 0 0)
(0 0 0)
(0 0 0)
(0 0 0)
(0 0 0)
(0 0 0)
(0 0 0)
(0 0 0)
(0 0 0)
(0 0 0)
(0 0 0)
(0 0 0)
(0 0 0)
(0 0 0)
(0 0 0)
(-1.36255e-06 -2.96588e-07 9.44699e-08)
(0 0 0)
(3.94803e-09 -2.08069e-08 6.99367e-09)
(4.86808e-09 -4.29727e-08 1.43662e-08)
(1.02219e-09 -6.91749e-08 2.30435e-08)
(-9.35358e-09 -1.01505e-07 3.38599e-08)
(-2.80358e-08 -1.41214e-07 4.763e-08)
(-5.73031e-08 -1.88773e-07 6.52012e-08)
(-1.00459e-07 -2.4387e-07 8.74614e-08)
(-1.62214e-07 -3.05665e-07 1.15245e-07)
(-2.49295e-07 -3.73641e-07 1.4897e-07)
(-3.69427e-07 -4.4624e-07 1.88035e-07)
(-5.31296e-07 -5.20343e-07 2.30449e-07)
(-7.49144e-07 -5.93973e-07 2.72975e-07)
(-1.05574e-06 -6.69021e-07 3.12147e-07)
(-1.51667e-06 -7.53777e-07 3.46443e-07)
(-2.15359e-06 -8.51144e-07 3.74791e-07)
(-2.85033e-06 -9.04436e-07 3.70887e-07)
(0 0 0)
(7.37912e-09 -4.1471e-08 1.39321e-08)
(8.87694e-09 -8.55977e-08 2.85984e-08)
(1.1274e-09 -1.37642e-07 4.58212e-08)
(-1.9172e-08 -2.01651e-07 6.72537e-08)
(-5.54826e-08 -2.80269e-07 9.45382e-08)
(-1.12155e-07 -3.74763e-07 1.29421e-07)
(-1.94765e-07 -4.8449e-07 1.73712e-07)
(-3.10829e-07 -6.07674e-07 2.29005e-07)
(-4.70183e-07 -7.4229e-07 2.9594e-07)
(-6.82709e-07 -8.83808e-07 3.72955e-07)
(-9.56388e-07 -1.02461e-06 4.55434e-07)
(-1.29857e-06 -1.15718e-06 5.36012e-07)
(-1.72132e-06 -1.27759e-06 6.06558e-07)
(-2.22902e-06 -1.38582e-06 6.61743e-07)
(-2.73248e-06 -1.47303e-06 6.98718e-07)
(-3.0061e-06 -1.52178e-06 7.23314e-07)
(0 0 0)
(1.05278e-08 -6.10483e-08 2.06293e-08)
(1.25911e-08 -1.25963e-07 4.23088e-08)
(1.41363e-09 -2.02415e-07 6.7705e-08)
(-2.75742e-08 -2.96312e-07 9.92607e-08)
(-7.91031e-08 -4.11732e-07 1.39443e-07)
(-1.58534e-07 -5.50563e-07 1.90879e-07)
(-2.72137e-07 -7.12053e-07 2.56263e-07)
(-4.2756e-07 -8.93423e-07 3.37919e-07)
(-6.33755e-07 -1.09031e-06 4.36563e-07)
(-8.98171e-07 -1.29458e-06 5.49434e-07)
(-1.22295e-06 -1.4936e-06 6.69088e-07)
(-1.60369e-06 -1.67413e-06 7.84117e-07)
(-2.03098e-06 -1.82799e-06 8.82885e-07)
(-2.47588e-06 -1.95517e-06 9.59487e-07)
(-2.84186e-06 -2.05217e-06 1.01319e-06)
(-3.02047e-06 -2.115e-06 1.04838e-06)
(0 0 0)
(1.3654e-08 -7.86658e-08 2.69444e-08)
(1.66079e-08 -1.62261e-07 5.51988e-08)
(2.9513e-09 -2.60614e-07 8.82009e-08)
(-3.27656e-08 -3.81338e-07 1.29116e-07)
(-9.57475e-08 -5.2967e-07 1.81159e-07)
(-1.91122e-07 -7.07974e-07 2.47762e-07)
(-3.23945e-07 -9.15295e-07 3.32461e-07)
(-4.99574e-07 -1.14786e-06 4.38225e-07)
(-7.23293e-07 -1.39893e-06 5.65747e-07)
(-9.97761e-07 -1.65672e-06 7.11021e-07)
(-1.31986e-06 -1.90415e-06 8.63817e-07)
(-1.68001e-06 -2.12356e-06 1.00913e-06)
(-2.06529e-06 -2.30516e-06 1.1326e-06)
(-2.45123e-06 -2.45216e-06 1.22811e-06)
(-2.76763e-06 -2.56466e-06 1.2953e-06)
(-2.94081e-06 -2.64545e-06 1.33801e-06)
(0 0 0)
(1.70028e-08 -9.3586e-08 3.27812e-08)