/*--------------------------------*- C++ -*----------------------------------*\
| =========                 |                                                 |
| \\      /  F ield         | OpenFOAM: The Open Source CFD Toolbox           |
|  \\    /   O peration     | Version:  v1912                                 |
|   \\  /    A nd           | Website:  www.openfoam.com                      |
|    \\/     M anipulation  |                                                 |
\*---------------------------------------------------------------------------*/
FoamFile
{
    version     2.0;
    format      ascii;
    class       volVectorField;
    location    "0.05/fluid";
    object      U;
}
// * * * * * * * * * * * * * * * * * * * * * * * * * * * * * * * * * * * * * //

dimensions      [0 1 -1 0 0 0 0];


internalField   nonuniform List<vector> 
14592
(
(0.0947635 0.00645481 -0.00145817)
(0.0911301 0.00267561 -0.00195328)
(0.0889704 0.0013439 -0.00236127)
(0.0874564 0.000767036 -0.00291783)
(0.0864688 0.000569504 -0.00369674)
(0.0854801 0.000526452 -0.00474525)
(0.0844207 0.000556704 -0.00613429)
(0.0831956 0.000632853 -0.00797076)
(0.0817252 0.000744521 -0.0104129)
(0.079919 0.000886568 -0.0136991)
(0.0776479 0.00105286 -0.0182039)
(0.0746942 0.00122927 -0.0245462)
(0.0700516 0.00140107 -0.0337978)
(0.0650517 0.00141243 -0.0481625)
(0.0477531 0.00151853 -0.0711981)
(0.0322575 0.000520689 -0.0980357)
(0.102537 0.00557837 -0.00168207)
(0.101597 0.00320116 -0.00225645)
(0.101526 0.0020553 -0.00271973)
(0.100446 0.00149227 -0.00334805)
(0.0995782 0.00129875 -0.00422756)
(0.098562 0.00130356 -0.00541281)
(0.0974085 0.00143318 -0.0069842)
(0.096045 0.00165962 -0.00906274)
(0.0943922 0.00197225 -0.0118275)
(0.0923493 0.00236624 -0.0155485)
(0.0897665 0.00283375 -0.0206498)
(0.0863923 0.00335455 -0.0278325)
(0.0810775 0.00389434 -0.038309)
(0.0752301 0.00429559 -0.0545643)
(0.0554738 0.00467981 -0.0805723)
(0.0375985 0.0037292 -0.110766)
(0.101743 0.00381357 -0.00165209)
(0.101059 0.00337759 -0.00221774)
(0.101528 0.00270687 -0.00267268)
(0.100776 0.00231346 -0.0032885)
(0.100148 0.00220403 -0.00414924)
(0.0992984 0.00231148 -0.00530754)
(0.0982741 0.0025942 -0.00684128)
(0.0970233 0.00303491 -0.00886822)
(0.0954756 0.00362971 -0.0115634)
(0.0935301 0.00437938 -0.0151923)
(0.0910269 0.00527982 -0.0201741)
(0.0876946 0.00630962 -0.0272069)
(0.0823259 0.00741668 -0.0375021)
(0.0763468 0.00844714 -0.0535654)
(0.0561458 0.00934021 -0.0793395)
(0.0377792 0.00849268 -0.109604)
(0.101148 0.00316344 -0.00159399)
(0.100478 0.00328105 -0.00214204)
(0.101163 0.00293131 -0.00258174)
(0.100648 0.00274195 -0.00317532)
(0.100225 0.00277218 -0.0040028)
(0.0995516 0.00300942 -0.00511348)
(0.0986887 0.00344291 -0.0065807)
(0.0975965 0.00407388 -0.00851602)
(0.0962111 0.00491329 -0.0110863)
(0.0944309 0.00597662 -0.0145463)
(0.0920853 0.00727542 -0.0193025)
(0.0888782 0.00880335 -0.0260373)
(0.0835394 0.0105163 -0.0359445)
(0.0774835 0.012249 -0.0515335)
(0.0568552 0.013861 -0.0766436)
(0.0379685 0.0130067 -0.106738)
(0.100908 0.0027805 -0.00151791)
(0.100223 0.00316261 -0.00204289)
(0.101004 0.00306236 -0.00246255)
(0.100653 0.00305546 -0.00302684)
(0.10041 0.00323139 -0.00381034)
(0.0999192 0.00360881 -0.00485776)
(0.0992449 0.00420069 -0.00623602)
(0.098355 0.00502727 -0.0080476)
(0.0971915 0.00611844 -0.0104468)
(0.0956542 0.00751249 -0.0136715)
(0.0935634 0.00925066 -0.0181053)
(0.0905976 0.011365 -0.0244012)
(0.0854086 0.0138577 -0.033715)
(0.0793691 0.0165888 -0.0485467)
(0.0582344 0.0193657 -0.0725546)
(0.0386291 0.0187698 -0.102327)
(0.100819 0.0025294 -0.00142781)
(0.100146 0.00301804 -0.00192549)
(0.101005 0.00308226 -0.00232133)
(0.100793 0.00321946 -0.00285067)
(0.100717 0.00352426 -0.00358152)
(0.100414 0.00402865 -0.00455279)
(0.0999509 0.00476127 -0.00582308)
(0.0993026 0.0057593 -0.00748279)
(0.0984216 0.00707347 -0.00966869)
(0.0972163 0.00877152 -0.0125931)
(0.0955103 0.0109406 -0.0166028)
(0.0929716 0.0136873 -0.0222975)
(0.0881776 0.0171398 -0.0307557)
(0.0824161 0.0213748 -0.044429)
(0.060826 0.0263754 -0.0666758)
(0.0403244 0.0277149 -0.0958693)
(0.100802 0.00230385 -0.0013274)
(0.10017 0.00283155 -0.00179464)
(0.101121 0.0030062 -0.00216387)
(0.101041 0.00325303 -0.00265404)
(0.101129 0.00366199 -0.00332569)
(0.101019 0.00426937 -0.0042109)
(0.100784 0.0051132 -0.00535825)
(0.100411 0.00624409 -0.00684303)
(0.0998695 0.00773238 -0.00877916)
(0.0990917 0.00967697 -0.0113437)
(0.0979321 0.0122173 -0.0148273)
(0.0961039 0.0155473 -0.0197385)
(0.0922318 0.0199236 -0.0269987)
(0.0876233 0.0257129 -0.0388558)
(0.0668331 0.0327976 -0.0580165)
(0.0460961 0.035733 -0.0853051)
(0.100823 0.00204908 -0.0012208)
(0.100257 0.00257826 -0.00165575)
(0.10132 0.00282891 -0.00199673)
(0.10137 0.0031574 -0.00244527)
(0.10162 0.00364355 -0.00305384)
(0.101705 0.00432265 -0.00384701)
(0.101706 0.00523677 -0.00486208)
(0.101631 0.00644496 -0.00615681)
(0.101473 0.0080331 -0.00781751)
(0.101203 0.0101326 -0.00997665)
(0.100727 0.0129596 -0.0128516)
(0.0998177 0.0168996 -0.0168288)
(0.0972047 0.0226791 -0.0226352)
(0.093946 0.0322738 -0.0322467)
(0.0741008 0.0477428 -0.0477219)
(0.054813 0.0734904 -0.0734671)
(0.0946876 0.00646439 -0.00150505)
(0.0909252 0.00268981 -0.00199124)
(0.0885756 0.00135989 -0.00237005)
(0.0868778 0.000786832 -0.00288969)
(0.0856697 0.000595064 -0.0036252)
(0.0844097 0.000560199 -0.00462277)
(0.0830017 0.000601798 -0.00594881)
(0.0813154 0.000693461 -0.00770018)
(0.0792223 0.000826071 -0.0100136)
(0.076565 0.000996546 -0.0130797)
(0.0731296 0.00120177 -0.0171598)
(0.068618 0.0014344 -0.022599)
(0.0620429 0.00169447 -0.0298212)
(0.0547651 0.00186348 -0.0391016)
(0.0371884 0.00223737 -0.0508464)
(0.0209168 0.00170495 -0.0534899)
(0.102451 0.00560505 -0.00172927)
(0.101366 0.00323707 -0.00229338)
(0.101081 0.00209769 -0.00272451)
(0.0997919 0.00154492 -0.00331195)
(0.0986743 0.00136679 -0.00414323)
(0.0973501 0.00139352 -0.00527167)
(0.0958009 0.00155361 -0.00677272)
(0.093914 0.00182166 -0.00875623)
(0.091554 0.00219052 -0.0113775)
(0.0885436 0.00265967 -0.0148535)
(0.0846345 0.00322691 -0.0194824)
(0.0794781 0.0038796 -0.0256604)
(0.0719355 0.00459518 -0.0338774)
(0.0634481 0.00523219 -0.0444658)
(0.043229 0.00594129 -0.0578634)
(0.0244202 0.00524044 -0.0609022)
(0.101659 0.00386339 -0.00170054)
(0.100833 0.00344275 -0.00225629)
(0.101092 0.0027848 -0.00267931)
(0.100137 0.00241034 -0.00325456)
(0.0992649 0.00232932 -0.0040676)
(0.098116 0.00247738 -0.00516989)
(0.0967073 0.0028167 -0.00663447)
(0.0949477 0.00333513 -0.00856804)
(0.0927116 0.00403539 -0.0111221)
(0.0898218 0.00492664 -0.0145092)
(0.08602 0.00601454 -0.0190234)
(0.0809365 0.00728807 -0.0250578)
(0.0733667 0.00870398 -0.033103)
(0.0647777 0.0100943 -0.0435054)
(0.0440786 0.0114206 -0.056699)
(0.0247342 0.0105353 -0.0597599)
(0.101067 0.00323034 -0.00164437)
(0.100259 0.00336835 -0.00218311)
(0.100744 0.00303608 -0.00259135)
(0.100033 0.00287238 -0.00314507)
(0.0993776 0.00294115 -0.00392589)
(0.0984199 0.00323376 -0.00498208)
(0.0971921 0.00374488 -0.00638233)
(0.095617 0.00448336 -0.0082275)
(0.0935773 0.00547033 -0.0106615)
(0.0908969 0.00673455 -0.0138874)
(0.0873078 0.00830376 -0.0181887)
(0.0824148 0.0101894 -0.023948)
(0.0749358 0.012363 -0.0316492)
(0.066341 0.0146328 -0.04166)
(0.045152 0.0168973 -0.0543924)
(0.0252096 0.015924 -0.0575016)
(0.10083 0.00286307 -0.0015708)
(0.100015 0.00327028 -0.00208724)
(0.100605 0.00319177 -0.00247608)
(0.100071 0.00321681 -0.00300143)
(0.0996103 0.00344084 -0.00373969)
(0.098855 0.00388767 -0.00473471)
(0.0978426 0.00457759 -0.00604907)
(0.0965059 0.00554125 -0.00777514)
(0.094737 0.00682317 -0.0100454)
(0.0923644 0.00848155 -0.0130483)
(0.0891142 0.0105839 -0.0170492)
(0.0845662 0.0131937 -0.0224112)
(0.0773375 0.0163456 -0.0296018)
(0.0688799 0.0198711 -0.0390169)
(0.0470846 0.0236463 -0.0510245)
(0.0262957 0.0229029 -0.0541958)
(0.100746 0.00262404 -0.0014837)
(0.0999502 0.00314141 -0.00197374)
(0.100631 0.00323067 -0.00233952)
(0.100249 0.00340472 -0.00283106)
(0.0999747 0.00376519 -0.00351839)
(0.0994317 0.00435031 -0.00443984)
(0.0986635 0.00519779 -0.00565014)
(0.0976147 0.00635814 -0.00723047)
(0.0961926 0.00790147 -0.00929756)
(0.0942413 0.00992356 -0.0120182)
(0.0914973 0.0125512 -0.0156292)
(0.0875357 0.0159445 -0.0204588)
(0.0808709 0.0202995 -0.0269367)
(0.0729033 0.0256993 -0.0354819)
(0.0505278 0.0322877 -0.0463807)
(0.0286586 0.0336938 -0.0495765)
(0.100734 0.00240668 -0.00138663)
(0.0999877 0.00296557 -0.00184726)
(0.100775 0.00316748 -0.00218729)
(0.10054 0.0034545 -0.00264094)
(0.100451 0.00392429 -0.00327104)
(0.100129 0.00462027 -0.00410944)
(0.0996279 0.00559096 -0.00520147)
(0.0989098 0.00690285 -0.00661447)
(0.097907 0.00865022 -0.008445)
(0.096498 0.010968 -0.0108306)
(0.094466 0.014049 -0.0139661)
(0.0914513 0.0181616 -0.0181214)
(0.0860053 0.0236553 -0.0236471)
(0.0796309 0.0309172 -0.0309306)
(0.0580884 0.0400252 -0.0400494)
(0.0358615 0.0428699 -0.0428944)
(0.10076 0.00215584 -0.00128362)
(0.10009 0.00271737 -0.00171303)
(0.101004 0.00299629 -0.00202573)
(0.100916 0.00336644 -0.00243912)
(0.101011 0.00391571 -0.00300829)
(0.100913 0.00468694 -0.00375797)
(0.100693 0.00573345 -0.00472298)
(0.100334 0.00713183 -0.00595477)
(0.0998066 0.00899557 -0.00752597)
(0.0990408 0.0115006 -0.00953798)
(0.0978918 0.0149366 -0.0121324)
(0.0960735 0.0198111 -0.0155047)
(0.0922108 0.0270449 -0.0199122)
(0.0876114 0.0388862 -0.0257223)
(0.0668294 0.0580426 -0.0328167)
(0.0460974 0.0853369 -0.0357521)
(0.0946201 0.00647346 -0.00145371)
(0.0907396 0.00270322 -0.00190901)
(0.0882144 0.00137502 -0.00224999)
(0.0863441 0.000805579 -0.00271812)
(0.0849282 0.000619257 -0.00338441)
(0.0834142 0.000592131 -0.00429053)
(0.0816846 0.000644467 -0.00549399)
(0.0795817 0.000750728 -0.00707568)
(0.0769423 0.000902979 -0.00914472)
(0.073565 0.00109938 -0.0118443)
(0.0691829 0.00133836 -0.0153553)
(0.0634331 0.00161356 -0.0198933)
(0.0553632 0.00192214 -0.0256967)
(0.0461369 0.0021474 -0.0327522)
(0.0281575 0.00253844 -0.0413746)
(0.0129478 0.00198804 -0.0425726)
(0.102374 0.0056303 -0.00166616)
(0.101156 0.00327104 -0.00219444)
(0.100674 0.0021378 -0.00258314)
(0.0991883 0.00159475 -0.00311291)
(0.0978349 0.00143116 -0.00386655)
(0.0962222 0.00147861 -0.00489222)
(0.0943077 0.00166742 -0.00625537)
(0.0919472 0.00197459 -0.00804791)
(0.088966 0.00239596 -0.0103941)
(0.0851358 0.00293455 -0.0134571)
(0.0801471 0.0035917 -0.017444)
(0.0735771 0.00435765 -0.0226019)
(0.0643237 0.00520802 -0.0292053)
(0.0536254 0.005995 -0.0372479)
(0.0329247 0.00683925 -0.047045)
(0.0153287 0.00609944 -0.0483484)
(0.101584 0.00391055 -0.00163976)
(0.100628 0.0035044 -0.00216037)
(0.100694 0.00285854 -0.00254155)
(0.0995468 0.00250202 -0.00306003)
(0.0984452 0.00244784 -0.00379682)
(0.0970159 0.00263422 -0.00479842)
(0.0952524 0.00302683 -0.0061281)
(0.0930328 0.0036181 -0.00787503)
(0.0901924 0.00441664 -0.0101602)
(0.0865034 0.00543851 -0.0131433)
(0.0816451 0.00669682 -0.0170283)
(0.0751704 0.00818688 -0.0220611)
(0.0659036 0.00986705 -0.0285194)
(0.0551085 0.0115515 -0.0364103)
(0.033874 0.0132015 -0.046057)
(0.0156878 0.0122516 -0.0474049)
(0.100995 0.00329365 -0.0015878)
(0.100061 0.00345097 -0.00209268)
(0.10036 0.00313521 -0.0024602)
(0.099466 0.00299578 -0.00295881)
(0.0985919 0.00310096 -0.00366591)
(0.0973676 0.00344573 -0.00462512)
(0.0958031 0.00402981 -0.00589587)
(0.0937918 0.00486879 -0.00756221)
(0.0911786 0.00599272 -0.00973868)
(0.0877379 0.00744139 -0.0125775)
(0.083139 0.00925522 -0.0162745)
(0.0769072 0.0114582 -0.0210692)
(0.0677757 0.0140298 -0.0272377)
(0.0570183 0.0167542 -0.0348092)
(0.0352235 0.0195488 -0.0441037)
(0.0163327 0.0185018 -0.0455243)
(0.100762 0.00294121 -0.00151975)
(0.0998274 0.00337216 -0.00200401)
(0.100241 0.0033142 -0.00235361)
(0.0995346 0.00336942 -0.00282606)
(0.0988693 0.00363883 -0.00349398)
(0.0978661 0.00415099 -0.00439702)
(0.0965418 0.00493283 -0.00558922)
(0.0948019 0.00602428 -0.00714734)
(0.0925032 0.00748237 -0.00917633)
(0.0894271 0.00938188 -0.0118166)
(0.0852384 0.0118107 -0.0152505)
(0.0794357 0.0148557 -0.0197045)
(0.0706329 0.0185733 -0.0254472)
(0.0600983 0.0227711 -0.0325364)
(0.0376005 0.0273726 -0.0412761)
(0.0176952 0.0265864 -0.0427824)
(0.100681 0.00271358 -0.00143918)
(0.0997738 0.00325813 -0.00189904)
(0.10029 0.00337105 -0.00222737)
(0.0997495 0.00357991 -0.00266864)
(0.0992874 0.00399284 -0.00328971)
(0.0985193 0.00465384 -0.00412529)
(0.0974699 0.00560879 -0.00522256)
(0.0960599 0.0069199 -0.00664866)
(0.0941651 0.00867383 -0.00849552)
(0.0915872 0.0109893 -0.0108864)
(0.0880063 0.0140239 -0.0139824)
(0.0829191 0.0179779 -0.0179859)
(0.0748147 0.0230966 -0.0231435)
(0.0649336 0.0294643 -0.0295402)
(0.0417493 0.0373448 -0.0374373)
(0.0205228 0.0389029 -0.0389968)
(0.100674 0.00250395 -0.00134942)
(0.0998244 0.00309234 -0.00178208)
(0.100461 0.00332001 -0.00208665)
(0.100082 0.00364495 -0.00249303)
(0.0998238 0.00417204 -0.0030615)
(0.099303 0.00495118 -0.00382106)
(0.0985567 0.00604029 -0.00481067)
(0.0975272 0.00751971 -0.00608575)
(0.0961215 0.00950389 -0.0077217)
(0.0941838 0.0121571 -0.00981882)
(0.0914513 0.015714 -0.0125073)
(0.0875 0.0205013 -0.0159495)
(0.0808447 0.0269478 -0.0203428)
(0.0728869 0.0354722 -0.0257707)
(0.0505204 0.0463612 -0.0323746)
(0.0286558 0.0495571 -0.0337817)
(0.100705 0.00225682 -0.00125416)
(0.0999401 0.00284895 -0.00165797)
(0.100717 0.00315456 -0.00193733)
(0.100501 0.00356402 -0.00230665)
(0.100448 0.00417271 -0.00281918)
(0.10018 0.0050303 -0.00349763)
(0.0997535 0.00620016 -0.00437188)
(0.0991393 0.00777399 -0.00548399)
(0.0982881 0.00988819 -0.00688994)
(0.0971084 0.0127541 -0.00866196)
(0.0954248 0.0167172 -0.0108905)
(0.0929064 0.0223767 -0.0136846)
(0.0881315 0.0308106 -0.0171734)
(0.0823893 0.0444712 -0.0214342)
(0.0608166 0.066719 -0.0264477)
(0.0403248 0.0959248 -0.0277875)
(0.0945616 0.00648163 -0.00131547)
(0.090577 0.00271531 -0.00171922)
(0.0878967 0.00138867 -0.00201299)
(0.0858726 0.000822488 -0.00241573)
(0.0842719 0.000641062 -0.00299021)
(0.082534 0.000620875 -0.0037714)
(0.0805255 0.000682788 -0.00480577)
(0.0780695 0.000802039 -0.00615611)
(0.0749825 0.000971585 -0.00790283)
(0.071043 0.00119076 -0.0101433)
(0.0659729 0.00145907 -0.0129854)
(0.0594229 0.00177175 -0.0165283)
(0.0506047 0.00212527 -0.0208225)
(0.0406835 0.00241277 -0.025612)
(0.0236313 0.00285658 -0.0308449)
(0.00998621 0.00235963 -0.0298812)
(0.102307 0.0056531 -0.00150531)
(0.100972 0.00330169 -0.00197376)
(0.100315 0.00217398 -0.00230906)
(0.0986546 0.00163968 -0.00276519)
(0.0970913 0.00148916 -0.0034154)
(0.0952243 0.00155516 -0.00430018)
(0.0929926 0.00176959 -0.00547246)
(0.0902306 0.00211149 -0.00700373)
(0.0867398 0.00257915 -0.00898563)
(0.0822689 0.00317831 -0.0115295)
(0.0764948 0.00391307 -0.014759)
(0.0690096 0.00477569 -0.0187887)
(0.0588942 0.00574043 -0.0236791)
(0.0474044 0.00665864 -0.0291471)
(0.0277322 0.0076296 -0.0351016)
(0.0119138 0.00689252 -0.0339765)
(0.101519 0.00395311 -0.00148223)
(0.100448 0.00356004 -0.00194398)
(0.100343 0.00292507 -0.00227269)
(0.0990253 0.00258467 -0.00271894)
(0.0977194 0.00255457 -0.00335444)
(0.0960428 0.00277524 -0.00421827)
(0.0939713 0.00321532 -0.00536156)
(0.091362 0.00387113 -0.00685354)
(0.0880266 0.004756 -0.00878328)
(0.0837139 0.00589141 -0.0112595)
(0.0780893 0.0072957 -0.0144036)
(0.0707175 0.00896785 -0.0183299)
(0.0606006 0.0108647 -0.023102)
(0.0490183 0.0127839 -0.0284471)
(0.0287732 0.0146775 -0.034283)
(0.012326 0.0136598 -0.0331932)
(0.100932 0.00335079 -0.00143659)
(0.0998884 0.00352552 -0.00188453)
(0.100023 0.00322464 -0.00220128)
(0.0989653 0.00310701 -0.00263015)
(0.0978964 0.00324481 -0.00323976)
(0.0964371 0.00363621 -0.00406674)
(0.0945806 0.00428515 -0.00515903)
(0.0922001 0.00521293 -0.00658172)
(0.0891179 0.0064567 -0.00841882)
(0.0850855 0.00806477 -0.0107734)
(0.0797574 0.0100865 -0.0137615)
(0.0726673 0.012553 -0.0174939)
(0.0627145 0.0154449 -0.0220368)
(0.0511901 0.0185196 -0.0271377)
(0.0303149 0.021693 -0.0327211)
(0.0130767 0.0205423 -0.031715)
(0.100702 0.00301173 -0.0013768)
(0.099663 0.00346409 -0.00180664)
(0.099921 0.00342462 -0.00210772)
(0.0990614 0.00350694 -0.00251374)
(0.0982139 0.00381698 -0.0030892)
(0.096992 0.00438744 -0.00386742)
(0.0953972 0.00525084 -0.00489189)
(0.0933165 0.00645477 -0.00622179)
(0.0905855 0.00806632 -0.00793371)
(0.0869639 0.0101727 -0.0101219)
(0.0821014 0.0128763 -0.0128935)
(0.0755016 0.0162775 -0.016352)
(0.0659264 0.0204409 -0.0205633)
(0.0546658 0.0251416 -0.0253037)
(0.0329872 0.0303131 -0.0304999)
(0.0145994 0.0294134 -0.0296056)
(0.100626 0.00279438 -0.00130603)
(0.0996199 0.00336343 -0.00171446)
(0.0999913 0.00349764 -0.00199691)
(0.099309 0.00373771 -0.00237573)
(0.09868 0.0041976 -0.00291041)
(0.0977132 0.00492619 -0.00363017)
(0.09642 0.00597626 -0.00457284)
(0.0947047 0.00741963 -0.00578995)
(0.0924249 0.00935599 -0.00734804)
(0.0893633 0.0119212 -0.00932888)
(0.0851862 0.0152942 -0.0118252)
(0.0793933 0.0196992 -0.0149268)
(0.0705993 0.0254037 -0.0186916)
(0.0600746 0.0324648 -0.0229287)
(0.0375861 0.0411889 -0.0275543)
(0.0176851 0.0426943 -0.0267744)
(0.100622 0.00259172 -0.00122719)
(0.0996822 0.0032067 -0.00161175)
(0.100185 0.00345752 -0.00187344)
(0.0996777 0.00381647 -0.00222181)
(0.0992703 0.00439478 -0.00271077)
(0.0985737 0.00524788 -0.00336473)
(0.0976144 0.00644157 -0.00421486)
(0.0963217 0.00806743 -0.0053034)
(0.0945882 0.0102557 -0.00668429)
(0.0922439 0.0131922 -0.00842276)
(0.0890169 0.0171403 -0.0105911)
(0.0844891 0.0224617 -0.0132557)
(0.077279 0.0296228 -0.0164528)
(0.0688415 0.0390194 -0.0200152)
(0.0470646 0.05102 -0.0238109)
(0.0262844 0.0541922 -0.0230728)
(0.100657 0.00234794 -0.00114353)
(0.0998103 0.00296763 -0.00150278)
(0.100467 0.00329723 -0.00174243)
(0.100136 0.00374192 -0.00205851)
(0.0999521 0.00440368 -0.00249887)
(0.099533 0.005338 -0.00308273)
(0.0989268 0.0066166 -0.00383391)
(0.0980958 0.00834333 -0.00478416)
(0.0969815 0.0106722 -0.00597278)
(0.0954847 0.01384 -0.00744498)
(0.0934284 0.0182295 -0.00924677)
(0.0904931 0.0244931 -0.0114132)
(0.0853327 0.0337867 -0.013948)
(0.0793233 0.0486118 -0.0167129)
(0.058215 0.0726306 -0.0195076)
(0.0386238 0.102427 -0.0189187)
(0.0945132 0.00648858 -0.0011032)
(0.0904416 0.0027256 -0.00143734)
(0.0876313 0.00140028 -0.0016753)
(0.0854782 0.000836875 -0.00200074)
(0.083723 0.000659585 -0.00246515)
(0.0817999 0.000645245 -0.00309578)
(0.0795643 0.00071521 -0.0039275)
(0.076828 0.000845294 -0.00500567)
(0.0733972 0.00102921 -0.00638515)
(0.0690461 0.00126702 -0.00812666)
(0.0635061 0.00155913 -0.0102869)
(0.0564653 0.00190135 -0.0128988)
(0.0472831 0.00228875 -0.0159346)
(0.0371193 0.00261933 -0.0191363)
(0.0209454 0.00308999 -0.0224111)
(0.00848042 0.00260547 -0.0212503)
(0.102252 0.00567251 -0.00126111)
(0.100819 0.0033278 -0.00164874)
(0.100015 0.00220477 -0.00192061)
(0.0982079 0.00167789 -0.00228939)
(0.0964691 0.0015384 -0.00281531)
(0.0943914 0.00162004 -0.0035299)
(0.0919015 0.00185597 -0.00447296)
(0.0888203 0.00222683 -0.00569621)
(0.0849377 0.00273277 -0.00726228)
(0.0799969 0.00338155 -0.00924078)
(0.0736855 0.00417895 -0.0116972)
(0.0656372 0.00511805 -0.0146701)
(0.0550985 0.00617054 -0.0181305)
(0.0433317 0.00718465 -0.0217897)
(0.0246439 0.00823859 -0.0255179)
(0.0101673 0.00748058 -0.0241733)
(0.101466 0.00398938 -0.0012422)
(0.100298 0.00360743 -0.00162437)
(0.100049 0.00298169 -0.00189086)
(0.0985889 0.00265494 -0.00225157)
(0.0971121 0.00264519 -0.0027655)
(0.0952309 0.00289472 -0.00346307)
(0.0929087 0.00337457 -0.00438271)
(0.0899897 0.00408409 -0.00557439)
(0.086274 0.0050402 -0.00709886)
(0.081505 0.00626822 -0.00902386)
(0.0753573 0.00778983 -0.0114136)
(0.0674351 0.0096054 -0.0143069)
(0.0569018 0.0116683 -0.0176781)
(0.0450418 0.0137612 -0.0212468)
(0.025748 0.0158247 -0.0248916)
(0.0106131 0.0147394 -0.0235804)
(0.100881 0.00339946 -0.0012047)
(0.0997441 0.00358902 -0.00157552)
(0.0997407 0.00330074 -0.00183223)
(0.0985466 0.00320157 -0.00217875)
(0.0973147 0.00336691 -0.00267158)
(0.0956609 0.00379751 -0.00333925)
(0.0935667 0.0045007 -0.00421768)
(0.0908931 0.00550217 -0.00535374)
(0.0874514 0.00684447 -0.00680447)
(0.0829872 0.00858188 -0.00863374)
(0.0771634 0.0107694 -0.0109024)
(0.0695497 0.0134416 -0.0136482)
(0.0591973 0.0165761 -0.016849)
(0.0474019 0.0199073 -0.0202412)
(0.0274204 0.0233434 -0.0237123)
(0.0114308 0.0220951 -0.0224756)
(0.100653 0.00307179 -0.00115558)
(0.0995263 0.00354237 -0.00151154)
(0.0996541 0.00351857 -0.00175543)
(0.0986658 0.0036238 -0.00208331)
(0.0976659 0.00396811 -0.00254836)
(0.0962631 0.0045875 -0.00317649)
(0.0944482 0.00551897 -0.00400024)
(0.0920971 0.00681599 -0.00506203)
(0.0890354 0.0085531 -0.00641353)
(0.0850172 0.0108263 -0.00811261)
(0.0796994 0.013747 -0.0102145)
(0.0726176 0.0174228 -0.0127537)
(0.0626716 0.0219184 -0.0157111)
(0.0511577 0.02698 -0.0188468)
(0.030291 0.0325395 -0.0220548)
(0.0130545 0.0315272 -0.0209177)
(0.10058 0.0028632 -0.00109744)
(0.099492 0.0034531 -0.00143582)
(0.0997423 0.00360533 -0.00166449)
(0.098941 0.00387179 -0.00197019)
(0.0981723 0.00437122 -0.00240208)
(0.0970411 0.00515647 -0.00298289)
(0.0955495 0.00628573 -0.00374081)
(0.0935923 0.00783818 -0.00471259)
(0.0910185 0.0099231 -0.00594269)
(0.0876067 0.0126882 -0.00748047)
(0.0830299 0.0163259 -0.00937235)
(0.0768162 0.0210735 -0.0116456)
(0.0677003 0.0272059 -0.0142805)
(0.0569632 0.0347512 -0.0170647)
(0.0351853 0.0440332 -0.0198927)
(0.0162997 0.0454527 -0.018864)
(0.100579 0.00266647 -0.00103267)
(0.0995642 0.00330406 -0.00135147)
(0.0999562 0.00357449 -0.00156317)
(0.0993406 0.00396215 -0.00184406)
(0.0988079 0.00458356 -0.00223882)
(0.0979656 0.00549857 -0.00276644)
(0.0968329 0.00677915 -0.00345006)
(0.0953316 0.00852539 -0.00431956)
(0.0933481 0.010879 -0.00541045)
(0.0907106 0.0140407 -0.00676099)
(0.0871555 0.0182917 -0.00840495)
(0.0822914 0.0240133 -0.0103571)
(0.074838 0.0316882 -0.0125897)
(0.0662746 0.0416837 -0.0149152)
(0.0451115 0.0544128 -0.0172064)
(0.0251776 0.0575217 -0.0162514)
(0.100618 0.00242552 -0.000963952)
(0.0997028 0.00306867 -0.00126198)
(0.100259 0.00341858 -0.00145568)
(0.0998318 0.003893 -0.00171027)
(0.0995378 0.00459939 -0.00206559)
(0.0989932 0.00559788 -0.00253661)
(0.0982407 0.00696667 -0.00314093)
(0.0972376 0.00881875 -0.00390074)
(0.0959224 0.0113207 -0.00484125)
(0.094198 0.0147267 -0.00598738)
(0.0918981 0.0194421 -0.00735667)
(0.0887305 0.0261495 -0.00894644)
(0.0834272 0.0360433 -0.0107143)
(0.0774122 0.0516365 -0.012501)
(0.0568157 0.0767756 -0.0141423)
(0.0379428 0.106916 -0.0133218)
(0.0944759 0.00649397 -0.000831589)
(0.0903368 0.00273371 -0.00108142)
(0.0874257 0.0014094 -0.00125649)
(0.0851727 0.000848193 -0.00149536)
(0.0832983 0.000674137 -0.00183613)
(0.0812337 0.000664352 -0.00229803)
(0.0788272 0.000740554 -0.00290495)
(0.0758843 0.000879003 -0.00368687)
(0.0722075 0.00107389 -0.00467815)
(0.0675739 0.00132586 -0.00591355)
(0.06173 0.00163568 -0.00741941)
(0.0544015 0.00199948 -0.00919818)
(0.0450556 0.00241088 -0.0112026)
(0.0348472 0.00277065 -0.0132344)
(0.0193509 0.00325862 -0.0152055)
(0.00768999 0.0027785 -0.0142375)
(0.102209 0.00568776 -0.000950039)
(0.1007 0.00334834 -0.00123979)
(0.0997828 0.00222894 -0.00143997)
(0.0978617 0.00170787 -0.00171075)
(0.0959874 0.001577 -0.0020968)
(0.0937487 0.00167079 -0.00262041)
(0.0910642 0.00192337 -0.00330885)
(0.0877477 0.00231651 -0.00419634)
(0.0835845 0.0028517 -0.00532222)
(0.0783209 0.00353799 -0.00672641)
(0.0716614 0.00438216 -0.00843955)
(0.0632822 0.00537736 -0.0104652)
(0.0525516 0.00649278 -0.012751)
(0.0407347 0.00757375 -0.0150739)
(0.0228109 0.00868341 -0.0173169)
(0.0092492 0.00790532 -0.0161961)
(0.101424 0.00401791 -0.000935962)
(0.100182 0.0036447 -0.0012217)
(0.0998223 0.00302615 -0.00141796)
(0.0982508 0.00271008 -0.00168275)
(0.096642 0.00271618 -0.00205998)
(0.0946044 0.00298813 -0.00257108)
(0.0920934 0.00349873 -0.00324236)
(0.0889461 0.00424952 -0.00410688)
(0.0849585 0.00525993 -0.00520266)
(0.0798764 0.00655781 -0.00656846)
(0.0733906 0.00816676 -0.00823426)
(0.065146 0.0100873 -0.0102041)
(0.0544246 0.0122692 -0.0124282)
(0.0425124 0.0144839 -0.0146893)
(0.0239585 0.0166621 -0.016877)
(0.00971764 0.0155224 -0.0157815)
(0.100841 0.00343773 -0.000908108)
(0.0996326 0.00363894 -0.00118538)
(0.0995224 0.00336053 -0.00137439)
(0.0982222 0.00327576 -0.00162869)
(0.0968646 0.00346255 -0.00199036)
(0.0950621 0.00392355 -0.00247947)
(0.092789 0.00466862 -0.00312059)
(0.0898996 0.00572661 -0.00394461)
(0.086201 0.00714378 -0.0049871)
(0.0814413 0.00897837 -0.00628435)
(0.0752984 0.0112887 -0.00786448)
(0.0673797 0.0141104 -0.00973135)
(0.0568485 0.0174174 -0.0118389)
(0.0450019 0.0209267 -0.0139816)
(0.0257179 0.0245386 -0.0160563)
(0.0105786 0.023213 -0.0150168)
(0.100615 0.00311901 -0.000871581)
(0.0994205 0.0036039 -0.00113783)
(0.0994475 0.00359235 -0.00131735)
(0.0983595 0.00371546 -0.00155789)
(0.097242 0.00408643 -0.00189909)
(0.0957008 0.00474374 -0.00235917)
(0.0937204 0.00572764 -0.00296034)
(0.0911703 0.00709585 -0.00373042)
(0.0878727 0.00892802 -0.00470144)
(0.083584 0.0113259 -0.00590591)
(0.0779748 0.0144061 -0.00736873)
(0.0706147 0.0182798 -0.00909261)
(0.0605062 0.0230089 -0.0110351)
(0.0489476 0.0283176 -0.0130073)
(0.0287187 0.0341329 -0.0149132)
(0.0122665 0.0330303 -0.0139487)
(0.100544 0.0029173 -0.000828361)
(0.0993932 0.00352356 -0.00108155)
(0.0995496 0.0036899 -0.00124982)
(0.0986561 0.00397692 -0.00147398)
(0.0977796 0.00450708 -0.00179077)
(0.0965227 0.00533618 -0.00221615)
(0.0948817 0.00652635 -0.00276929)
(0.0927466 0.00816198 -0.00347416)
(0.0899637 0.0103589 -0.00435804)
(0.0863138 0.0132725 -0.00544809)
(0.0814831 0.0171033 -0.00676414)
(0.0750303 0.0220949 -0.00830558)
(0.0657799 0.0285236 -0.0100318)
(0.0550178 0.0363945 -0.0117735)
(0.0338044 0.046037 -0.0134384)
(0.0156124 0.0473792 -0.0125563)
(0.100547 0.00272522 -0.000780215)
(0.0994731 0.00338058 -0.00101886)
(0.099779 0.00366633 -0.00117458)
(0.0990797 0.00407636 -0.00138045)
(0.0984502 0.00473124 -0.00166992)
(0.0974965 0.00569411 -0.00205633)
(0.0962332 0.00704138 -0.00255536)
(0.0945784 0.00887917 -0.00318632)
(0.0924172 0.0113569 -0.00397063)
(0.0895814 0.0146849 -0.00492858)
(0.0858201 0.0191552 -0.00607265)
(0.08077 0.0251592 -0.00739609)
(0.0732273 0.0331859 -0.00885628)
(0.0646843 0.0435791 -0.0103031)
(0.0440135 0.0567747 -0.0116354)
(0.0246628 0.0598219 -0.0108188)
(0.100589 0.0024865 -0.000729132)
(0.0996199 0.00314807 -0.000952358)
(0.100098 0.00351384 -0.00109478)
(0.0995965 0.00401142 -0.00128124)
(0.0992174 0.00475246 -0.00154172)
(0.0985767 0.0058005 -0.00188672)
(0.0977137 0.00723843 -0.00232807)
(0.0965838 0.00918564 -0.00287994)
(0.095126 0.0118172 -0.00355705)
(0.0932483 0.0153981 -0.0043714)
(0.0907981 0.0203474 -0.00532608)
(0.0875099 0.0273636 -0.00640505)
(0.0821764 0.0376606 -0.00755976)
(0.0762486 0.0537514 -0.00866084)
(0.0560711 0.0795926 -0.00958938)
(0.0376993 0.109949 -0.00887397)
(0.0944508 0.00649761 -0.000516518)
(0.0902653 0.00273933 -0.000671382)
(0.0872854 0.00141564 -0.000778058)
(0.0849642 0.000855982 -0.000923915)
(0.0830089 0.000684124 -0.00113184)
(0.0808491 0.000677443 -0.0014132)
(0.078329 0.000757886 -0.00178186)
(0.075251 0.00090199 -0.00225467)
(0.071417 0.00110427 -0.00285016)
(0.0666084 0.00136566 -0.00358561)
(0.0605853 0.0016872 -0.0044713)
(0.0531012 0.00206503 -0.00550092)
(0.0436917 0.00249179 -0.00663767)
(0.0335069 0.00286978 -0.00775792)
(0.0184553 0.00336844 -0.00880876)
(0.00728367 0.00288934 -0.00818889)
(0.102181 0.00569828 -0.000590386)
(0.100619 0.00336252 -0.000769232)
(0.099624 0.00224555 -0.000891572)
(0.0976253 0.00172849 -0.00105676)
(0.095659 0.0016035 -0.00129237)
(0.093312 0.00170558 -0.0016114)
(0.090498 0.00196946 -0.00202969)
(0.0870275 0.00237768 -0.00256649)
(0.0826848 0.00293254 -0.00324303)
(0.0772211 0.00364387 -0.00407923)
(0.0703562 0.00451894 -0.00508717)
(0.0617976 0.00555077 -0.00626008)
(0.0509912 0.00670665 -0.00755681)
(0.0392022 0.00782985 -0.00883782)
(0.021781 0.00897394 -0.0100335)
(0.0087762 0.00818081 -0.00931588)
(0.101396 0.00403758 -0.000581422)
(0.100103 0.00367038 -0.000758084)
(0.0996671 0.00305675 -0.000878234)
(0.0980199 0.002748 -0.00103974)
(0.0963216 0.00276494 -0.00126996)
(0.0941786 0.00305218 -0.00158137)
(0.091542 0.00358367 -0.00198924)
(0.0882455 0.00436235 -0.00251215)
(0.0840839 0.00540924 -0.00317059)
(0.078808 0.00675368 -0.00398384)
(0.072123 0.00842026 -0.00496367)
(0.0637042 0.0104093 -0.00610367)
(0.0529089 0.0126676 -0.00736451)
(0.0410227 0.0149593 -0.00860972)
(0.0229557 0.017208 -0.00977411)
(0.00925856 0.0160311 -0.00907201)
(0.100814 0.00346408 -0.000564386)
(0.0995565 0.00367332 -0.000735658)
(0.0993733 0.00340167 -0.000851352)
(0.0980007 0.00332678 -0.0010064)
(0.0965577 0.00352822 -0.0012271)
(0.0946551 0.00400995 -0.00152506)
(0.0922631 0.00478343 -0.00191456)
(0.0892325 0.00587956 -0.00241289)
(0.0853699 0.00734692 -0.00303917)
(0.0804277 0.00924607 -0.00381131)
(0.0740974 0.0116371 -0.0047402)
(0.0660147 0.0145559 -0.0058196)
(0.0554145 0.0179729 -0.00701272)
(0.0435928 0.0215941 -0.00818976)
(0.0247681 0.0253133 -0.00929098)
(0.0101454 0.0239349 -0.00862316)
(0.10059 0.00315156 -0.000541885)
(0.0993484 0.00364627 -0.000706383)
(0.0993064 0.00364313 -0.000816281)
(0.0981503 0.00377846 -0.000962901)
(0.0969529 0.00416764 -0.00117109)
(0.0953187 0.00485076 -0.00145136)
(0.0932281 0.00587019 -0.00181657)
(0.0905481 0.00728634 -0.00228229)
(0.0871001 0.00918203 -0.00286559)
(0.0826446 0.0116624 -0.00358236)
(0.0768651 0.014847 -0.00444188)
(0.0693569 0.018848 -0.00543763)
(0.0591878 0.0237249 -0.00653563)
(0.0476556 0.0291873 -0.00761549)
(0.0278475 0.0351576 -0.0086233)
(0.0118712 0.0339933 -0.00800162)
(0.10052 0.00295457 -0.000515279)
(0.0993259 0.00357209 -0.000671733)
(0.099418 0.00374809 -0.000774723)
(0.0984617 0.00404919 -0.000911313)
(0.0975119 0.00460032 -0.00110458)
(0.0961703 0.00545923 -0.0013637)
(0.0944301 0.0066906 -0.00169976)
(0.0921788 0.00838214 -0.00212609)
(0.0892625 0.0106537 -0.0026571)