/*--------------------------------*- C++ -*----------------------------------*\
| =========                 |                                                 |
| \\      /  F ield         | OpenFOAM: The Open Source CFD Toolbox           |
|  \\    /   O peration     | Version:  v1912                                 |
|   \\  /    A nd           | Website:  www.openfoam.com                      |
|    \\/     M anipulation  |                                                 |
\*---------------------------------------------------------------------------*/
FoamFile
{
    version     2.0;
    format      ascii;
    class       volVectorField;
    location    "0.89/solid";
    object      D_0_0;
}
// * * * * * * * * * * * * * * * * * * * * * * * * * * * * * * * * * * * * * //

dimensions      [0 1 0 0 0 0 0];


internalField   nonuniform List<vector> 
256
(
(3.02203e-08 4.21068e-08 3.34478e-08)
(4.19394e-09 2.47595e-08 3.06049e-08)
(-4.22694e-09 2.43349e-08 3.0411e-08)
(-2.91525e-08 4.03913e-08 3.29368e-08)
(5.00898e-08 3.3213e-08 6.59592e-08)
(1.04691e-08 2.23298e-08 6.21403e-08)
(-9.61325e-09 2.17678e-08 6.18757e-08)
(-4.774e-08 3.13876e-08 6.5238e-08)
(5.31562e-08 1.57925e-08 8.46418e-08)
(1.20398e-08 1.14076e-08 8.0451e-08)
(-1.00714e-08 1.08255e-08 8.01919e-08)
(-4.96942e-08 1.40305e-08 8.39179e-08)
(5.25613e-08 -4.08547e-10 9.93845e-08)
(1.18659e-08 -2.74154e-09 9.46555e-08)
(-8.77706e-09 -3.31902e-09 9.44014e-08)
(-4.79768e-08 -2.13725e-09 9.86651e-08)
(5.33574e-08 -1.62518e-08 1.13941e-07)
(1.21481e-08 -1.93358e-08 1.08582e-07)
(-7.95643e-09 -1.99084e-08 1.08321e-07)
(-4.76482e-08 -1.79591e-08 1.13197e-07)
(5.82967e-08 -3.42145e-08 1.30324e-07)
(1.4104e-08 -3.87737e-08 1.24396e-07)
(-8.84444e-09 -3.93422e-08 1.24116e-07)
(-5.15008e-08 -3.58949e-08 1.29525e-07)
(6.99225e-08 -6.15897e-08 1.49644e-07)
(1.84007e-08 -6.50217e-08 1.43768e-07)
(-1.21716e-08 -6.55561e-08 1.43458e-07)
(-6.21299e-08 -6.31614e-08 1.48758e-07)
(8.59965e-08 -1.22463e-07 1.68355e-07)
(2.30369e-08 -1.18377e-07 1.63738e-07)
(-1.61033e-08 -1.18589e-07 1.63387e-07)
(-7.73713e-08 -1.23162e-07 1.67364e-07)
(2.09339e-08 1.88856e-08 7.4747e-09)
(2.23317e-09 4.62912e-09 8.97154e-09)
(-2.15221e-09 4.36776e-09 8.99479e-09)
(-1.98098e-08 1.75905e-08 7.53822e-09)
(3.50902e-08 1.20973e-08 2.80164e-08)
(6.67332e-09 2.9928e-09 3.09405e-08)
(-5.60007e-09 2.51835e-09 3.09527e-08)
(-3.26469e-08 1.04896e-08 2.80495e-08)
(3.69174e-08 -2.35327e-10 4.5411e-08)
(7.79542e-09 -4.00908e-09 4.87869e-08)
(-5.57116e-09 -4.55924e-09 4.88009e-08)
(-3.33535e-08 -1.92097e-09 4.54451e-08)
(3.59801e-08 -1.36083e-08 5.97117e-08)
(7.57492e-09 -1.57389e-08 6.30888e-08)
(-4.20949e-09 -1.63057e-08 6.31082e-08)
(-3.12834e-08 -1.53155e-08 5.97549e-08)
(3.64888e-08 -2.78834e-08 7.30717e-08)
(7.83344e-09 -3.09108e-08 7.62807e-08)
(-3.34343e-09 -3.14797e-08 7.62975e-08)
(-3.0644e-08 -2.95899e-08 7.31011e-08)
(4.12455e-08 -4.37925e-08 8.67822e-08)
(9.77626e-09 -4.84255e-08 8.97892e-08)
(-4.18911e-09 -4.89952e-08 8.97929e-08)
(-3.42742e-08 -4.5487e-08 8.6768e-08)
(5.32242e-08 -6.58527e-08 1.00001e-07)
(1.41663e-08 -6.92519e-08 1.02917e-07)
(-7.57043e-09 -6.97993e-08 1.029e-07)
(-4.52001e-08 -6.74692e-08 9.99214e-08)
(7.04963e-08 -1.15415e-07 1.07469e-07)
(1.89604e-08 -1.10085e-07 1.10422e-07)
(-1.16096e-08 -1.10336e-07 1.10391e-07)
(-6.15715e-08 -1.16212e-07 1.07344e-07)
(1.43984e-08 1.15345e-08 3.61921e-09)
(4.93339e-10 -3.11141e-10 5.66517e-09)
(-4.12478e-10 -5.3345e-10 5.68892e-09)
(-1.33094e-08 1.03507e-08 3.68744e-09)
(2.41387e-08 1.34303e-09 1.73769e-08)
(3.15918e-09 -6.14019e-09 2.1254e-08)
(-2.08315e-09 -6.57314e-09 2.12859e-08)
(-2.17402e-08 -1.60142e-10 1.74724e-08)
(2.51013e-08 -1.0804e-08 3.2239e-08)
(3.83491e-09 -1.40039e-08 3.66891e-08)
(-1.59468e-09 -1.45299e-08 3.67213e-08)
(-2.15754e-08 -1.24336e-08 3.23361e-08)
(2.40922e-08 -2.26839e-08 4.57692e-08)
(3.58745e-09 -2.47123e-08 5.03136e-08)
(-1.88075e-10 -2.52711e-08 5.03457e-08)
(-1.94194e-08 -2.43778e-08 4.5863e-08)
(2.45768e-08 -3.47335e-08 5.8049e-08)
(3.84949e-09 -3.78179e-08 6.2538e-08)
(6.95848e-10 -3.839e-08 6.25658e-08)
(-1.87321e-08 -3.64573e-08 5.81256e-08)
(2.93995e-08 -4.72783e-08 6.91721e-08)
(5.80448e-09 -5.20286e-08 7.35586e-08)
(-1.36192e-10 -5.26104e-08 7.35762e-08)
(-2.23929e-08 -4.9016e-08 6.92135e-08)
(4.16829e-08 -6.43324e-08 7.7652e-08)
(1.02716e-08 -6.78286e-08 8.19201e-08)
(-3.56344e-09 -6.83981e-08 8.19257e-08)
(-3.35759e-08 -6.60181e-08 7.76504e-08)
(5.93313e-08 -1.07727e-07 8.00563e-08)
(1.51632e-08 -1.02362e-07 8.42438e-08)
(-7.66197e-09 -1.02642e-07 8.42475e-08)
(-5.02675e-08 -1.08609e-07 8.00383e-08)
(1.14142e-08 9.16754e-09 3.24118e-09)
(-2.55671e-10 -1.24952e-09 4.57454e-09)
(3.21704e-10 -1.46523e-09 4.5883e-09)
(-1.03704e-08 8.0173e-09 3.28566e-09)
(1.90144e-08 -2.97986e-09 1.35007e-08)
(1.52107e-09 -9.47605e-09 1.60413e-08)
(-4.8882e-10 -9.89645e-09 1.60658e-08)
(-1.66952e-08 -4.44547e-09 1.35816e-08)
(1.96756e-08 -1.60518e-08 2.53389e-08)
(1.99087e-09 -1.89084e-08 2.82442e-08)
(1.97338e-10 -1.94242e-08 2.82707e-08)
(-1.62343e-08 -1.76568e-08 2.54277e-08)
(1.88574e-08 -2.75036e-08 3.6859e-08)
(1.80072e-09 -2.95083e-08 3.97937e-08)
(1.55457e-09 -3.00643e-08 3.98188e-08)
(-1.426e-08 -2.91949e-08 3.69426e-08)
(1.95614e-08 -3.79301e-08 4.72185e-08)
(2.14352e-09 -4.10924e-08 5.00834e-08)
(2.37453e-09 -4.16697e-08 5.01037e-08)
(-1.37731e-08 -3.96744e-08 4.72858e-08)
(2.45711e-08 -4.7994e-08 5.57668e-08)
(4.15086e-09 -5.28495e-08 5.85441e-08)
(1.51216e-09 -5.34439e-08 5.85569e-08)
(-1.75924e-08 -4.9773e-08 5.58078e-08)
(3.69309e-08 -6.2298e-08 6.12749e-08)
(8.62306e-09 -6.59957e-08 6.39782e-08)
(-1.89474e-09 -6.65831e-08 6.3984e-08)
(-2.8815e-08 -6.40396e-08 6.12882e-08)
(5.44381e-08 -1.03012e-07 6.22021e-08)
(1.34999e-08 -9.81937e-08 6.49327e-08)
(-5.94939e-09 -9.84937e-08 6.49394e-08)
(-4.53235e-08 -1.03951e-07 6.22086e-08)
(1.02915e-08 8.21708e-09 2.91818e-09)
(-4.40423e-10 -1.48162e-09 3.59173e-09)
(4.94464e-10 -1.69495e-09 3.60018e-09)
(-9.28158e-09 7.08726e-09 2.94757e-09)
(1.71497e-08 -4.51822e-09 1.07195e-08)
(1.06083e-09 -1.05393e-08 1.19909e-08)
(-6.95843e-11 -1.09557e-08 1.20085e-08)
(-1.48995e-08 -5.96623e-09 1.07802e-08)
(1.7839e-08 -1.80636e-08 1.96237e-08)
(1.50354e-09 -2.07848e-08 2.10511e-08)
(6.28045e-10 -2.12975e-08 2.10716e-08)
(-1.44797e-08 -1.96593e-08 1.96953e-08)
(1.72819e-08 -2.9404e-08 2.85071e-08)
(1.40362e-09 -3.14422e-08 2.99066e-08)
(1.89476e-09 -3.19986e-08 2.99262e-08)
(-1.27647e-08 -3.10985e-08 2.85765e-08)
(1.8243e-08 -3.89911e-08 3.6463e-08)
(1.84145e-09 -4.22276e-08 3.77855e-08)
(2.62997e-09 -4.281e-08 3.78014e-08)
(-1.25224e-08 -4.07531e-08 3.65206e-08)
(2.34057e-08 -4.78216e-08 4.27065e-08)
(3.89576e-09 -5.27495e-08 4.3963e-08)
(1.73708e-09 -5.33535e-08 4.39737e-08)
(-1.64744e-08 -4.96315e-08 4.27458e-08)
(3.57053e-08 -6.10081e-08 4.64243e-08)
(8.33398e-09 -6.48678e-08 4.76559e-08)
(-1.61624e-09 -6.54675e-08 4.76623e-08)
(-2.76103e-08 -6.27886e-08 4.64456e-08)
(5.29594e-08 -1.00497e-07 4.70461e-08)
(1.31606e-08 -9.61807e-08 4.83489e-08)
(-5.59894e-09 -9.64937e-08 4.83564e-08)
(-4.38359e-08 -1.01476e-07 4.70638e-08)
(9.88461e-09 7.7803e-09 2.2921e-09)
(-4.433e-10 -1.57664e-09 2.59562e-09)
(4.89048e-10 -1.7881e-09 2.60106e-09)
(-8.89671e-09 6.6651e-09 2.31122e-09)
(1.65643e-08 -4.98759e-09 7.86071e-09)
(1.02174e-09 -1.08126e-08 8.4154e-09)
(-6.06138e-11 -1.12268e-08 8.42741e-09)
(-1.43625e-08 -6.42378e-09 7.90245e-09)
(1.73831e-08 -1.85739e-08 1.40439e-08)
(1.50312e-09 -2.12699e-08 1.46413e-08)
(5.83493e-10 -2.17816e-08 1.4656e-08)
(-1.40856e-08 -2.0165e-08 1.40956e-08)
(1.70435e-08 -2.98246e-08 2.02207e-08)
(1.48188e-09 -3.19144e-08 2.07741e-08)
(1.76736e-09 -3.24721e-08 2.07886e-08)
(-1.25906e-08 -3.15229e-08 2.02726e-08)
(1.81965e-08 -3.90763e-08 2.57321e-08)
(1.99059e-09 -4.23696e-08 2.62245e-08)
(2.43651e-09 -4.2956e-08 2.62368e-08)
(-1.25338e-08 -4.08512e-08 2.57769e-08)
(2.34473e-08 -4.74764e-08 2.99716e-08)
(4.07234e-09 -5.2443e-08 3.04245e-08)
(1.52687e-09 -5.30534e-08 3.04334e-08)
(-1.65607e-08 -4.9307e-08 3.00048e-08)
(3.5658e-08 -6.03274e-08 3.24502e-08)
(8.47316e-09 -6.42717e-08 3.29045e-08)
(-1.77532e-09 -6.48794e-08 3.29107e-08)
(-2.75899e-08 -6.21332e-08 3.24722e-08)
(5.26983e-08 -9.91973e-08 3.29633e-08)
(1.32536e-08 -9.51803e-08 3.34803e-08)
(-5.69685e-09 -9.55015e-08 3.34874e-08)
(-4.35821e-08 -1.00202e-07 3.29832e-08)
(9.7211e-09 7.58209e-09 1.45005e-09)
(-4.19922e-10 -1.61328e-09 1.57647e-09)
(4.6052e-10 -1.82344e-09 1.5796e-09)
(-8.74617e-09 6.47616e-09 1.46095e-09)
(1.63751e-08 -5.07881e-09 4.8012e-09)
(1.06015e-09 -1.08298e-08 5.02167e-09)
(-1.18173e-10 -1.12425e-08 5.02877e-09)
(-1.42028e-08 -6.50697e-09 4.82559e-09)
(1.73038e-08 -1.85577e-08 8.43893e-09)
(1.58096e-09 -2.1264e-08 8.6626e-09)
(4.75796e-10 -2.17752e-08 8.67155e-09)
(-1.40457e-08 -2.01455e-08 8.46993e-09)
(1.71041e-08 -2.97207e-08 1.20508e-08)
(1.61087e-09 -3.18528e-08 1.22413e-08)
(1.60407e-09 -3.24114e-08 1.22504e-08)
(-1.2694e-08 -3.14214e-08 1.20827e-08)
(1.8371e-08 -3.8868e-08 1.52629e-08)
(2.16107e-09 -4.21967e-08 1.54173e-08)
(2.23331e-09 -4.27857e-08 1.54252e-08)
(-1.27485e-08 -4.06509e-08 1.52913e-08)
(2.36639e-08 -4.71843e-08 1.77209e-08)
(4.25565e-09 -5.21666e-08 1.78562e-08)
(1.31683e-09 -5.2781e-08 1.78623e-08)
(-1.68101e-08 -4.90274e-08 1.77431e-08)
(3.58062e-08 -5.99845e-08 1.91655e-08)
(8.63022e-09 -6.39605e-08 1.93087e-08)
(-1.95069e-09 -6.45729e-08 1.93133e-08)
(-2.77603e-08 -6.18054e-08 1.91816e-08)
(5.27048e-08 -9.85414e-08 1.95176e-08)
(1.33791e-08 -9.46666e-08 1.9699e-08)
(-5.8314e-09 -9.49927e-08 1.97041e-08)
(-4.35989e-08 -9.95615e-08 1.95325e-08)
(9.65589e-09 7.50646e-09 4.94864e-10)
(-4.0698e-10 -1.62232e-09 5.29602e-10)
(4.45126e-10 -1.83183e-09 5.30631e-10)
(-8.68697e-09 6.40495e-09 4.98414e-10)
(1.6308e-08 -5.07243e-09 1.61401e-09)
(1.08422e-09 -1.07985e-08 1.67254e-09)
(-1.51468e-10 -1.12103e-08 1.6749e-09)
(-1.41496e-08 -6.49651e-09 1.62203e-09)
(1.72921e-08 -1.84659e-08 2.81447e-09)
(1.62548e-09 -2.11829e-08 2.87112e-09)
(4.16592e-10 -2.16938e-08 2.87412e-09)
(-1.4053e-08 -2.00519e-08 2.82478e-09)
(1.71579e-08 -2.95761e-08 4.00073e-09)
(1.67925e-09 -3.17303e-08 4.04565e-09)
(1.51835e-09 -3.22893e-08 4.04873e-09)
(-1.27689e-08 -3.12778e-08 4.0115e-09)
(1.84757e-08 -3.86998e-08 5.0537e-09)
(2.24773e-09 -4.20448e-08 5.08689e-09)
(2.12959e-09 -4.26351e-08 5.08963e-09)
(-1.28735e-08 -4.04864e-08 5.06345e-09)
(2.37848e-08 -4.70232e-08 5.85911e-09)
(4.3471e-09 -5.20101e-08 5.88686e-09)
(1.21091e-09 -5.26264e-08 5.88901e-09)
(-1.69481e-08 -4.88721e-08 5.86692e-09)
(3.58924e-08 -5.98366e-08 6.33573e-09)
(8.7089e-09 -6.38208e-08 6.36712e-09)
(-2.03991e-09 -6.44354e-08 6.36882e-09)
(-2.78586e-08 -6.16645e-08 6.34159e-09)
(5.27219e-08 -9.82629e-08 6.46114e-09)
(1.34421e-08 -9.44411e-08 6.50506e-09)
(-5.90059e-09 -9.47693e-08 6.50689e-09)
(-4.36225e-08 -9.929e-08 6.46663e-09)
)
;

boundaryField
{
    interface
    {
        type            solidTraction;
        traction        uniform (0 0 0);
        pressure        uniform 0;
        secondOrder     false;
        setEffectiveTraction false;
        relaxationFactor 1;
        value           nonuniform List<vector> 
192
(
(8.92372e-08 6.21843e-08 3.08252e-08)
(1.0546e-07 3.89469e-08 6.15942e-08)
(1.09708e-07 1.64104e-08 7.99254e-08)
(1.10901e-07 -3.58195e-10 9.46436e-08)
(1.13827e-07 -1.48179e-08 1.0921e-07)
(1.21494e-07 -3.0073e-08 1.25627e-07)
(1.36737e-07 -5.46644e-08 1.45055e-07)
(1.59749e-07 -1.17785e-07 1.63955e-07)
(6.97142e-08 3.28916e-08 3.519e-09)
(8.14701e-08 1.60931e-08 2.15283e-08)
(8.39638e-08 -1.28845e-11 3.83969e-08)
(8.43529e-08 -1.37154e-08 5.2594e-08)
(8.67525e-08 -2.65669e-08 6.58761e-08)
(9.42869e-08 -3.96084e-08 7.95575e-08)
(1.10556e-07 -5.85397e-08 9.29407e-08)
(1.37365e-07 -1.10543e-07 1.00803e-07)
(5.68844e-08 2.11687e-08 1.2391e-09)
(6.56757e-08 4.01874e-09 1.33576e-08)
(6.73992e-08 -1.08156e-08 2.79282e-08)
(6.76418e-08 -2.2815e-08 4.14882e-08)
(7.00177e-08 -3.34065e-08 5.38168e-08)
(7.77866e-08 -4.30015e-08 6.50032e-08)
(9.47896e-08 -5.6849e-08 7.35784e-08)
(1.22668e-07 -1.02737e-07 7.60415e-08)
(5.0163e-08 1.67747e-08 2.21437e-09)
(5.73412e-08 -9.14525e-10 1.17533e-08)
(5.88846e-08 -1.6091e-08 2.35231e-08)
(5.93499e-08 -2.75321e-08 3.51562e-08)
(6.19938e-08 -3.65015e-08 4.56349e-08)
(7.00632e-08 -4.36514e-08 5.42681e-08)
(8.73457e-08 -5.48308e-08 5.97803e-08)
(1.15204e-07 -9.79768e-08 6.0609e-08)
(4.6847e-08 1.50774e-08 2.53572e-09)
(5.34236e-08 -2.63135e-09 1.01069e-08)
(5.50633e-08 -1.80305e-08 1.90505e-08)
(5.58395e-08 -2.93029e-08 2.80535e-08)
(5.87939e-08 -3.746e-08 3.61216e-08)
(6.70844e-08 -4.34557e-08 4.24254e-08)
(8.43833e-08 -5.36193e-08 4.6106e-08)
(1.11922e-07 -9.54628e-08 4.6611e-08)
(4.51655e-08 1.43925e-08 2.14946e-09)
(5.16006e-08 -3.11297e-09 7.66697e-09)
(5.34055e-08 -1.84541e-08 1.391e-08)
(5.44398e-08 -2.96211e-08 2.01762e-08)
(5.76279e-08 -3.74752e-08 2.5764e-08)
(6.60438e-08 -4.31107e-08 3.0036e-08)
(8.32726e-08 -5.30142e-08 3.24753e-08)
(1.105e-07 -9.41846e-08 3.28996e-08)
(4.4296e-08 1.41061e-08 1.39285e-09)
(5.07174e-08 -3.18313e-09 4.73708e-09)
(5.26508e-08 -1.83754e-08 8.41612e-09)
(5.38512e-08 -2.94538e-08 1.20793e-08)
(5.71793e-08 -3.72279e-08 1.53326e-08)
(6.56555e-08 -4.28252e-08 1.78052e-08)
(8.28149e-08 -5.27238e-08 1.92241e-08)
(1.09827e-07 -9.35522e-08 1.95234e-08)
(4.3915e-08 1.39974e-08 4.78555e-10)
(5.03389e-08 -3.16338e-09 1.59723e-09)
(5.23359e-08 -1.82534e-08 2.81153e-09)
(5.36142e-08 -2.92801e-08 4.01417e-09)
(5.70054e-08 -3.70429e-08 5.07986e-09)
(6.5505e-08 -4.26686e-08 5.88934e-09)
(8.26258e-08 -5.26019e-08 6.35727e-09)
(1.09531e-07 -9.32879e-08 6.46539e-09)
(3.08215e-08 6.69587e-08 9.36527e-08)
(5.13186e-08 4.60116e-08 1.2217e-07)
(5.44678e-08 2.4149e-08 1.42046e-07)
(5.37508e-08 6.91647e-09 1.58705e-07)
(5.43845e-08 -8.51682e-09 1.75478e-07)
(5.91647e-08 -2.52887e-08 1.94537e-07)
(7.07492e-08 -5.20819e-08 2.17302e-07)
(8.70434e-08 -1.17401e-07 2.42797e-07)
(3.43508e-09 4.79459e-08 8.43216e-08)
(9.44886e-09 3.47914e-08 1.12046e-07)
(1.09281e-08 1.95365e-08 1.30616e-07)
(1.0621e-08 4.29121e-09 1.46098e-07)
(1.07438e-08 -1.19008e-08 1.61855e-07)
(1.25528e-08 -2.99771e-08 1.80173e-07)
(1.68551e-08 -5.51862e-08 2.03417e-07)
(2.17961e-08 -1.13102e-07 2.32838e-07)
(-3.64361e-09 4.74067e-08 8.31444e-08)
(-8.83815e-09 3.42131e-08 1.10849e-07)
(-9.20384e-09 1.89571e-08 1.29395e-07)
(-7.77381e-09 3.71325e-09 1.44853e-07)
(-6.80165e-09 -1.24796e-08 1.60582e-07)
(-7.56127e-09 -3.05579e-08 1.78862e-07)
(-1.09232e-08 -5.57384e-08 2.02056e-07)
(-1.51956e-08 -1.13321e-07 2.31443e-07)
(-2.98671e-08 6.49351e-08 9.03236e-08)
(-4.91336e-08 4.41329e-08 1.18772e-07)
(-5.11743e-08 2.23874e-08 1.38545e-07)
(-4.93364e-08 5.18266e-09 1.55124e-07)
(-4.88552e-08 -1.02442e-08 1.71811e-07)
(-5.25675e-08 -2.70048e-08 1.90763e-07)
(-6.31833e-08 -5.37017e-08 2.134e-07)
(-7.86771e-08 -1.18118e-07 2.38857e-07)
(-8.32094e-08 5.96146e-08 3.02439e-08)
(-9.80965e-08 3.65231e-08 6.07681e-08)
(-1.0113e-07 1.40899e-08 7.90929e-08)
(-1.01088e-07 -2.64869e-09 9.38122e-08)
(-1.02787e-07 -1.70781e-08 1.08343e-07)
(-1.09277e-07 -3.22745e-08 1.24685e-07)
(-1.2344e-07 -5.66938e-08 1.43999e-07)
(-1.45479e-07 -1.18845e-07 1.62761e-07)
(-6.37244e-08 3.07047e-08 3.5774e-09)
(-7.42e-08 1.38756e-08 2.15495e-08)
(-7.54937e-08 -2.26178e-09 3.84153e-08)
(-7.46402e-08 -1.59928e-08 5.26154e-08)
(-7.57741e-08 -2.88421e-08 6.5872e-08)
(-8.20614e-08 -4.18481e-08 7.94909e-08)
(-9.7157e-08 -6.06449e-08 9.27829e-08)
(-1.22897e-07 -1.11735e-07 1.00568e-07)
(-5.10902e-08 1.91131e-08 1.32756e-09)
(-5.86004e-08 1.90639e-09 1.34845e-08)
(-5.91169e-08 -1.30138e-08 2.80563e-08)
(-5.81013e-08 -2.50886e-08 4.16071e-08)
(-5.9176e-08 -3.57139e-08 5.39079e-08)
(-6.5636e-08 -4.53051e-08 6.5043e-08)
(-8.13785e-08 -5.90493e-08 7.35542e-08)
(-1.08096e-07 -1.0404e-07 7.59764e-08)
(-4.45367e-08 1.47837e-08 2.27866e-09)
(-5.04648e-08 -2.97946e-09 1.18714e-08)
(-5.08054e-08 -1.82656e-08 2.36538e-08)
(-5.0001e-08 -2.98102e-08 3.52789e-08)
(-5.13159e-08 -3.88413e-08 4.57334e-08)
(-5.803e-08 -4.60125e-08 5.43282e-08)
(-7.3985e-08 -5.71067e-08 5.97968e-08)
(-1.00607e-07 -9.93593e-08 6.06008e-08)
(-4.13376e-08 1.31325e-08 2.57914e-09)
(-4.66987e-08 -4.66668e-09 1.0197e-08)
(-4.71476e-08 -2.0193e-08 1.91582e-08)
(-4.66499e-08 -3.15878e-08 2.81591e-08)
(-4.82567e-08 -3.98257e-08 3.62108e-08)
(-5.51598e-08 -4.58594e-08 4.24879e-08)
(-7.10857e-08 -5.59481e-08 4.61394e-08)
(-9.73365e-08 -9.68994e-08 4.66285e-08)
(-3.97294e-08 1.24799e-08 2.17736e-09)
(-4.49752e-08 -5.12654e-09 7.72826e-09)
(-4.56017e-08 -2.06079e-08 1.39871e-08)
(-4.53624e-08 -3.19108e-08 2.0255e-08)
(-4.7192e-08 -3.98586e-08 2.58335e-08)
(-5.41999e-08 -4.5543e-08 3.00888e-08)
(-7.00269e-08 -5.53778e-08 3.25097e-08)
(-9.59335e-08 -9.56561e-08 3.2924e-08)
(-3.89025e-08 1.22134e-08 1.40852e-09)
(-4.41509e-08 -5.18207e-09 4.77238e-09)
(-4.49151e-08 -2.05227e-08 8.46178e-09)
(-4.48436e-08 -3.17457e-08 1.21273e-08)
(-4.68078e-08 -3.96218e-08 1.53763e-08)
(-5.38642e-08 -4.52744e-08 1.784e-08)
(-6.96047e-08 -5.5108e-08 1.92488e-08)
(-9.52761e-08 -9.50444e-08 1.95427e-08)
(-3.8541e-08 1.21141e-08 4.83613e-10)
(-4.37997e-08 -5.155e-09 1.60874e-09)
(-4.46322e-08 -2.03971e-08 2.82659e-09)
(-4.46399e-08 -3.15727e-08 4.03024e-09)
(-4.6665e-08 -3.94415e-08 5.09471e-09)
(-5.37394e-08 -4.51257e-08 5.90143e-09)
(-6.94335e-08 -5.49958e-08 6.36618e-09)
(-9.49887e-08 -9.47897e-08 6.47254e-09)
(8.73159e-08 -1.9697e-07 1.69123e-07)
(7.16009e-08 -1.83173e-07 1.03785e-07)
(6.04866e-08 -1.72117e-07 7.69555e-08)
(5.57524e-08 -1.64909e-07 6.03944e-08)
(5.43987e-08 -1.60584e-07 4.60925e-08)
(5.42017e-08 -1.58089e-07 3.24744e-08)
(5.42321e-08 -1.56725e-07 1.9284e-08)
(5.42553e-08 -1.56119e-07 6.39151e-09)
(2.20694e-08 -1.8754e-07 1.64302e-07)
(1.76916e-08 -1.69839e-07 1.06418e-07)
(1.38928e-08 -1.58327e-07 8.12709e-08)
(1.23713e-08 -1.51815e-07 6.33874e-08)
(1.21606e-08 -1.48231e-07 4.75956e-08)
(1.23305e-08 -1.46207e-07 3.31018e-08)
(1.24928e-08 -1.45079e-07 1.95142e-08)
(1.25696e-08 -1.44566e-07 6.44867e-09)
(-1.4906e-08 -1.86698e-07 1.63958e-07)
(-1.0077e-08 -1.69024e-07 1.06405e-07)
(-6.09939e-09 -1.57551e-07 8.12871e-08)
(-4.50905e-09 -1.51066e-07 6.34023e-08)
(-4.27412e-09 -1.47498e-07 4.76084e-08)
(-4.44045e-09 -1.45484e-07 3.31121e-08)
(-4.6068e-09 -1.44361e-07 1.9521e-08)
(-4.68749e-09 -1.43851e-07 6.45106e-09)
(-7.83853e-08 -1.94691e-07 1.68148e-07)
(-6.23397e-08 -1.80908e-07 1.03706e-07)
(-5.1059e-08 -1.69951e-07 7.69733e-08)
(-4.62541e-08 -1.62816e-07 6.04256e-08)
(-4.48778e-08 -1.58538e-07 4.61266e-08)
(-4.4679e-08 -1.56071e-07 3.25045e-08)
(-4.47142e-08 -1.54723e-07 1.93045e-08)
(-4.47414e-08 -1.54125e-07 6.39875e-09)
)
;
        gradient        uniform (0 0 0);
    }
    symmetry
    {
        type            solidSymmetry;
        patchType       symmetry;
        secondOrder     false;
        value           nonuniform List<vector> 
32
(
(9.65589e-09 7.50646e-09 0)
(1.6308e-08 -5.07243e-09 0)
(1.72921e-08 -1.84659e-08 0)
(1.71579e-08 -2.95761e-08 0)
(1.84757e-08 -3.86998e-08 0)
(2.37848e-08 -4.70232e-08 0)
(3.58924e-08 -5.98366e-08 0)
(5.27219e-08 -9.82629e-08 0)
(-4.0698e-10 -1.62232e-09 0)
(1.08422e-09 -1.07985e-08 0)
(1.62548e-09 -2.11829e-08 0)
(1.67925e-09 -3.17303e-08 0)
(2.24773e-09 -4.20448e-08 0)
(4.3471e-09 -5.20101e-08 0)
(8.7089e-09 -6.38208e-08 0)
(1.34421e-08 -9.44411e-08 0)
(4.45126e-10 -1.83183e-09 0)
(-1.51468e-10 -1.12103e-08 0)
(4.16592e-10 -2.16938e-08 0)
(1.51835e-09 -3.22893e-08 0)
(2.12959e-09 -4.26351e-08 0)
(1.21091e-09 -5.26264e-08 0)
(-2.03991e-09 -6.44354e-08 0)
(-5.90059e-09 -9.47693e-08 0)
(-8.68697e-09 6.40495e-09 0)
(-1.41496e-08 -6.49651e-09 0)
(-1.4053e-08 -2.00519e-08 0)
(-1.27689e-08 -3.12778e-08 0)
(-1.28735e-08 -4.04864e-08 0)
(-1.69481e-08 -4.88721e-08 0)
(-2.78586e-08 -6.16645e-08 0)
(-4.36225e-08 -9.929e-08 0)
)
;
    }
    bottom
    {
        type            fixedDisplacement;
        value           uniform (0 0 0);
    }
}


// ************************************************************************* //
