/*--------------------------------*- C++ -*----------------------------------*\
| =========                 |                                                 |
| \\      /  F ield         | OpenFOAM: The Open Source CFD Toolbox           |
|  \\    /   O peration     | Version:  v1912                                 |
|   \\  /    A nd           | Website:  www.openfoam.com                      |
|    \\/     M anipulation  |                                                 |
\*---------------------------------------------------------------------------*/
FoamFile
{
    version     2.0;
    format      ascii;
    class       volSymmTensorField;
    location    "0.89/solid";
    object      epsilon;
}
// * * * * * * * * * * * * * * * * * * * * * * * * * * * * * * * * * * * * * //

dimensions      [0 0 0 0 0 0 0];


internalField   nonuniform List<symmTensor> 
256
(
(-2.8907e-06 2.32168e-07 -8.17216e-08 1.52203e-06 2.70485e-07 -2.93484e-06)
(-6.98953e-07 -2.98408e-08 -3.52382e-08 9.5209e-07 2.68092e-07 -2.58718e-06)
(-6.76137e-07 1.49715e-08 3.27057e-08 9.32027e-07 2.67259e-07 -2.54252e-06)
(-2.66468e-06 -2.28369e-07 7.9853e-08 1.45027e-06 2.67938e-07 -2.80769e-06)
(-3.02192e-06 6.67003e-09 -1.26984e-07 -5.33178e-07 4.70397e-08 -3.01877e-06)
(-1.21371e-06 -3.625e-08 -5.92184e-08 -2.72351e-07 5.8155e-08 -2.62959e-06)
(-1.18268e-06 3.13026e-08 5.62206e-08 -2.75049e-07 5.86323e-08 -2.58585e-06)
(-2.78556e-06 -7.74474e-09 1.24349e-07 -5.3249e-07 4.78533e-08 -2.89358e-06)
(-3.10075e-06 -3.17466e-08 -1.37982e-07 -6.86087e-07 7.94754e-09 -3.09389e-06)
(-1.28714e-06 -3.63707e-08 -6.56966e-08 -5.12914e-07 9.44576e-09 -2.65012e-06)
(-1.2561e-06 3.45165e-08 6.30827e-08 -5.12668e-07 9.76883e-09 -2.60522e-06)
(-2.86018e-06 3.08091e-08 1.3533e-07 -6.82473e-07 8.51263e-09 -2.96442e-06)
(-3.16444e-06 -2.26744e-08 -1.44012e-07 -6.56519e-07 1.54563e-08 -3.18031e-06)
(-1.24982e-06 -2.86512e-08 -6.89222e-08 -6.29707e-07 1.14775e-08 -2.69959e-06)
(-1.21872e-06 2.72656e-08 6.65687e-08 -6.28975e-07 1.15301e-08 -2.65349e-06)
(-2.91924e-06 2.21683e-08 1.41421e-07 -6.53873e-07 1.5391e-08 -3.04723e-06)
(-3.2605e-06 -2.14207e-09 -1.50274e-07 -6.94337e-07 3.97372e-08 -3.29368e-06)
(-1.25014e-06 -1.45044e-08 -7.24326e-08 -7.38898e-07 3.41084e-08 -2.78782e-06)
(-1.21857e-06 1.29839e-08 7.01429e-08 -7.38189e-07 3.39713e-08 -2.74072e-06)
(-3.01061e-06 1.67708e-09 1.47718e-07 -6.91858e-07 3.91698e-08 -3.15784e-06)
(-3.43051e-06 3.80081e-08 -1.55344e-07 -9.31084e-07 8.48831e-08 -3.45517e-06)
(-1.36965e-06 1.15014e-08 -7.5546e-08 -9.37504e-07 8.14453e-08 -2.93479e-06)
(-1.33767e-06 -1.39566e-08 7.31727e-08 -9.3617e-07 8.1136e-08 -2.88676e-06)
(-3.17645e-06 -3.88392e-08 1.52801e-07 -9.26735e-07 8.38461e-08 -3.31691e-06)
(-3.72456e-06 1.05645e-07 -1.52401e-07 -1.79736e-06 1.50287e-07 -3.71699e-06)
(-1.67448e-06 5.05453e-08 -7.43883e-08 -1.62268e-06 1.57345e-07 -3.217e-06)
(-1.64188e-06 -5.51109e-08 7.17993e-08 -1.61479e-06 1.56798e-07 -3.16799e-06)
(-3.46632e-06 -1.06923e-07 1.4985e-07 -1.7755e-06 1.48687e-07 -3.57654e-06)
(-4.23343e-06 1.35736e-07 -1.35462e-07 -4.21777e-06 1.74001e-07 -4.21534e-06)
(-2.08044e-06 6.65483e-08 -6.64468e-08 -3.85158e-06 1.91103e-07 -3.8482e-06)
(-2.04508e-06 -6.38199e-08 6.36186e-08 -3.80169e-06 1.90523e-07 -3.79873e-06)
(-3.96648e-06 -1.33208e-07 1.32939e-07 -4.07726e-06 1.72487e-07 -4.07617e-06)
(-2.33147e-06 1.40212e-07 -6.50705e-08 6.22937e-07 5.46638e-08 -6.04007e-07)
(-4.68409e-07 -5.54389e-08 -2.22874e-08 1.51125e-07 1.54923e-07 -5.05366e-07)
(-4.46855e-07 5.0677e-08 2.42858e-08 1.36392e-07 1.57108e-07 -5.0078e-07)
(-2.1108e-06 -1.32722e-07 6.55452e-08 5.64589e-07 6.02822e-08 -5.91717e-07)
(-2.43407e-06 -1.06878e-08 -1.02164e-07 -3.91057e-07 6.4097e-08 -9.86342e-07)
(-8.2727e-07 -4.04462e-08 -4.47047e-08 -1.79984e-07 1.17521e-07 -8.30766e-07)
(-7.989e-07 4.06704e-08 4.72952e-08 -1.85394e-07 1.18567e-07 -8.24428e-07)
(-2.20819e-06 1.14294e-08 1.02542e-07 -3.9748e-07 6.64641e-08 -9.68729e-07)
(-2.476e-06 -3.35935e-08 -1.0838e-07 -5.2668e-07 5.36558e-08 -1.06564e-06)
(-8.65213e-07 -3.47465e-08 -4.92795e-08 -3.85344e-07 7.01824e-08 -8.90733e-07)
(-8.37447e-07 3.50497e-08 5.24127e-08 -3.86728e-07 7.06893e-08 -8.84433e-07)
(-2.24749e-06 3.33935e-08 1.0882e-07 -5.27199e-07 5.46105e-08 -1.04773e-06)
(-2.51495e-06 -2.37994e-08 -1.10535e-07 -5.67188e-07 5.63895e-08 -1.09131e-06)
(-8.19342e-07 -2.70807e-08 -5.00084e-08 -5.51705e-07 5.76309e-08 -9.03435e-07)
(-7.91746e-07 2.67977e-08 5.37037e-08 -5.51593e-07 5.77308e-08 -8.97204e-07)
(-2.28214e-06 2.37181e-08 1.11141e-07 -5.66167e-07 5.62681e-08 -1.07345e-06)
(-2.59593e-06 -3.91822e-09 -1.13865e-07 -6.19935e-07 8.89508e-08 -1.13841e-06)
(-8.12797e-07 -1.41636e-08 -5.19813e-08 -6.70223e-07 8.49607e-08 -9.38752e-07)
(-7.84717e-07 1.34792e-08 5.59654e-08 -6.69785e-07 8.46913e-08 -9.32444e-07)
(-2.35783e-06 3.86131e-09 1.146e-07 -6.18244e-07 8.77993e-08 -1.12032e-06)
(-2.76459e-06 3.82397e-08 -1.165e-07 -7.80134e-07 1.42662e-07 -1.24631e-06)
(-9.27838e-07 1.16767e-08 -5.4178e-08 -7.87016e-07 1.37485e-07 -1.03717e-06)
(-8.99141e-07 -1.3376e-08 5.8148e-08 -7.8606e-07 1.36895e-07 -1.03067e-06)
(-2.52092e-06 -3.86208e-08 1.17307e-07 -7.76801e-07 1.4059e-07 -1.22773e-06)
(-3.09155e-06 1.14134e-07 -1.1394e-07 -1.45998e-06 1.83986e-07 -1.46747e-06)
(-1.24146e-06 5.34982e-08 -5.34905e-08 -1.2582e-06 1.82633e-07 -1.26204e-06)
(-1.21178e-06 -5.76038e-08 5.73097e-08 -1.25114e-06 1.81833e-07 -1.25511e-06)
(-2.84186e-06 -1.15034e-07 1.14824e-07 -1.44003e-06 1.81371e-07 -1.44788e-06)
(-3.72706e-06 1.52574e-07 -1.05303e-07 -3.71951e-06 1.51133e-07 -1.79833e-06)
(-1.67471e-06 7.44309e-08 -5.04878e-08 -3.22097e-06 1.58072e-07 -1.62047e-06)
(-1.64188e-06 -7.18786e-08 5.46836e-08 -3.17124e-06 1.57538e-07 -1.61268e-06)
(-3.46705e-06 -1.49979e-07 1.06534e-07 -3.57686e-06 1.49577e-07 -1.77675e-06)
(-1.98111e-06 7.56014e-08 -2.76596e-08 2.55155e-07 1.16727e-07 -8.74245e-08)
(-2.99915e-07 -8.41023e-08 -4.39883e-09 -1.34999e-07 2.15752e-07 -9.06174e-08)
(-2.79092e-07 8.1241e-08 5.10901e-09 -1.48091e-07 2.1657e-07 -9.07308e-08)
(-1.76772e-06 -6.7644e-08 2.76731e-08 2.0104e-07 1.19206e-07 -8.75673e-08)
(-2.08778e-06 -2.12234e-08 -4.25457e-08 -4.57437e-07 1.39478e-07 -2.97588e-07)
(-5.3211e-07 -4.61318e-08 -1.28911e-08 -2.83472e-07 1.90377e-07 -3.05131e-07)
(-5.04747e-07 4.82971e-08 1.36278e-08 -2.89208e-07 1.90821e-07 -3.04673e-07)
(-1.86907e-06 2.27066e-08 4.2501e-08 -4.65052e-07 1.40596e-07 -2.95991e-07)
(-2.1248e-06 -3.25703e-08 -4.27337e-08 -4.9314e-07 1.29746e-07 -4.11741e-07)
(-5.42665e-07 -3.34337e-08 -1.37465e-08 -3.82662e-07 1.45783e-07 -4.20972e-07)
(-5.16048e-07 3.5104e-08 1.45448e-08 -3.84752e-07 1.45965e-07 -4.20429e-07)
(-1.90362e-06 3.28942e-08 4.27038e-08 -4.95556e-07 1.29989e-07 -4.09769e-07)
(-2.15978e-06 -2.32505e-08 -4.11954e-08 -4.91609e-07 1.2308e-07 -4.69412e-07)
(-4.94217e-07 -2.61448e-08 -1.24966e-08 -4.89034e-07 1.24616e-07 -4.78004e-07)
(-4.67855e-07 2.66565e-08 1.35407e-08 -4.89497e-07 1.24527e-07 -4.77558e-07)
(-1.93433e-06 2.34864e-08 4.12568e-08 -4.92111e-07 1.22523e-07 -4.67597e-07)
(-2.24025e-06 -4.27675e-09 -4.07729e-08 -5.05751e-07 1.37711e-07 -5.3149e-07)
(-4.86747e-07 -1.45713e-08 -1.22515e-08 -5.60593e-07 1.34529e-07 -5.38023e-07)
(-4.59859e-07 1.42853e-08 1.3483e-08 -5.60585e-07 1.3415e-07 -5.37586e-07)
(-2.00901e-06 4.42621e-09 4.09277e-08 -5.05243e-07 1.36317e-07 -5.29628e-07)
(-2.41693e-06 3.89806e-08 -4.05246e-08 -6.09041e-07 1.58414e-07 -6.3756e-07)
(-6.02919e-07 1.1326e-08 -1.27381e-08 -6.16732e-07 1.53651e-07 -6.41712e-07)
(-5.75218e-07 -1.29319e-08 1.40047e-08 -6.1619e-07 1.53039e-07 -6.41128e-07)
(-2.17887e-06 -3.92227e-08 4.07536e-08 -6.06814e-07 1.56324e-07 -6.3525e-07)
(-2.76609e-06 1.16764e-07 -3.97522e-08 -1.23215e-06 1.48436e-07 -7.95441e-07)
(-9.23981e-07 5.41689e-08 -1.31952e-08 -1.02698e-06 1.4314e-07 -7.9923e-07)
(-8.94966e-07 -5.84679e-08 1.45072e-08 -1.02032e-06 1.42487e-07 -7.98332e-07)
(-2.52007e-06 -1.17599e-07 4.01086e-08 -1.21309e-06 1.46215e-07 -7.92262e-07)
(-3.43578e-06 1.55573e-07 -3.92764e-08 -3.45955e-06 8.823e-08 -9.29555e-07)
(-1.36661e-06 7.55613e-08 -1.3118e-08 -2.94105e-06 8.47644e-08 -9.33565e-07)
(-1.33407e-06 -7.32034e-08 1.50485e-08 -2.89187e-06 8.44512e-08 -9.32343e-07)
(-3.17755e-06 -1.52963e-07 4.00407e-08 -3.31783e-06 8.71995e-08 -9.25494e-07)
(-1.78556e-06 4.87305e-08 -7.36274e-09 1.1902e-07 1.37682e-07 -1.48534e-08)
(-2.23984e-07 -9.38947e-08 4.11912e-09 -2.22056e-07 1.98896e-07 -4.26735e-08)
(-2.03762e-07 9.10096e-08 -3.88124e-09 -2.34816e-07 1.99211e-07 -4.29308e-08)
(-1.57772e-06 -4.10521e-08 7.24694e-09 6.61051e-08 1.39011e-07 -1.54854e-08)
(-1.88779e-06 -2.36869e-08 -9.82132e-09 -5.16009e-07 1.66502e-07 -1.36659e-07)
(-3.94638e-07 -4.71045e-08 4.60022e-09 -3.6407e-07 1.97358e-07 -1.89521e-07)
(-3.67985e-07 4.95347e-08 -4.54424e-09 -3.6977e-07 1.97492e-07 -1.89666e-07)
(-1.67463e-06 2.52763e-08 9.58573e-09 -5.23922e-07 1.67005e-07 -1.36939e-07)
(-1.92767e-06 -2.96565e-08 -7.53588e-09 -5.03183e-07 1.65411e-07 -2.58639e-07)
(-3.94757e-07 -3.13172e-08 5.94167e-09 -4.1236e-07 1.74224e-07 -3.1997e-07)
(-3.68799e-07 3.34503e-08 -6.03849e-09 -4.14666e-07 1.74207e-07 -3.19991e-07)
(-1.71195e-06 3.0189e-08 7.26047e-09 -5.06354e-07 1.65289e-07 -2.58523e-07)
(-1.96665e-06 -2.09106e-08 -4.9366e-09 -4.49723e-07 1.56031e-07 -3.54112e-07)
(-3.51102e-07 -2.44347e-08 7.73144e-09 -4.55787e-07 1.5539e-07 -4.17907e-07)
(-3.2538e-07 2.5338e-08 -7.80669e-09 -4.56576e-07 1.55202e-07 -4.17895e-07)
(-1.74656e-06 2.13207e-08 4.6835e-09 -4.51159e-07 1.55333e-07 -3.53826e-07)
(-2.05199e-06 -2.98779e-09 -3.21265e-09 -4.21881e-07 1.5084e-07 -4.43044e-07)
(-3.49398e-07 -1.40379e-08 8.77189e-09 -4.79398e-07 1.47524e-07 -5.07241e-07)
(-3.23103e-07 1.39388e-08 -8.76782e-09 -4.79713e-07 1.47152e-07 -5.07177e-07)
(-1.82571e-06 3.24578e-09 3.00882e-09 -4.22274e-07 1.49572e-07 -4.42535e-07)
(-2.23613e-06 3.92587e-08 -2.36817e-09 -5.01957e-07 1.39096e-07 -5.43239e-07)
(-4.70032e-07 1.0724e-08 8.82087e-09 -5.12192e-07 1.35454e-07 -6.06634e-07)
(-4.42795e-07 -1.23698e-08 -8.75248e-09 -5.11915e-07 1.34954e-07 -6.06434e-07)
(-2.00218e-06 -3.94505e-08 2.22864e-09 -5.00459e-07 1.37413e-07 -5.42283e-07)
(-2.59509e-06 1.14403e-07 -3.04481e-09 -1.12097e-06 1.00612e-07 -6.40978e-07)
(-7.92308e-07 5.18415e-08 7.70568e-09 -9.24753e-07 9.6243e-08 -7.02388e-07)
(-7.63521e-07 -5.63329e-08 -7.4922e-09 -9.18244e-07 9.57807e-08 -7.02005e-07)
(-2.35172e-06 -1.15222e-07 3.03453e-09 -1.10226e-06 9.89938e-08 -6.39428e-07)
(-3.26722e-06 1.50939e-07 -4.76058e-09 -3.30551e-06 4.67839e-08 -6.78013e-07)
(-1.23129e-06 7.25381e-08 7.35922e-09 -2.80012e-06 4.16435e-08 -7.36243e-07)
(-1.19872e-06 -7.02841e-08 -6.57046e-09 -2.75127e-06 4.14527e-08 -7.35789e-07)
(-3.01009e-06 -1.48307e-07 5.08966e-09 -3.16445e-06 4.61029e-08 -6.76168e-07)
(-1.67844e-06 4.07811e-08 -9.29467e-10 6.84572e-08 1.25484e-07 -1.95633e-08)
(-1.97487e-07 -9.31757e-08 4.98599e-09 -2.48365e-07 1.56047e-07 -4.05195e-08)
(-1.77689e-07 9.007e-08 -4.87704e-09 -2.6105e-07 1.56236e-07 -4.06457e-08)
(-1.47436e-06 -3.33937e-08 8.36562e-10 1.61084e-08 1.26406e-07 -1.9956e-08)
(-1.77673e-06 -2.25074e-08 4.50971e-10 -5.37409e-07 1.50612e-07 -1.15517e-07)
(-3.47804e-07 -4.52972e-08 7.96264e-09 -3.9733e-07 1.65086e-07 -1.55947e-07)
(-3.21697e-07 4.75582e-08 -8.02487e-09 -4.03056e-07 1.65148e-07 -1.56086e-07)
(-1.56744e-06 2.40171e-08 -6.54684e-10 -5.45666e-07 1.50967e-07 -1.15983e-07)
(-1.82045e-06 -2.68014e-08 2.83432e-09 -5.10288e-07 1.56663e-07 -2.31236e-07)
(-3.48148e-07 -2.9238e-08 9.695e-09 -4.2987e-07 1.59526e-07 -2.78221e-07)
(-3.22689e-07 3.13899e-08 -9.93901e-09 -4.32284e-07 1.59464e-07 -2.78288e-07)
(-1.60852e-06 2.73601e-08 -3.09789e-09 -5.13934e-07 1.56512e-07 -2.3149e-07)
(-1.86495e-06 -1.85982e-08 4.99413e-09 -4.3011e-07 1.49231e-07 -3.40753e-07)
(-3.11633e-07 -2.2868e-08 1.11307e-08 -4.40483e-07 1.47182e-07 -3.89217e-07)
(-2.86371e-07 2.38782e-08 -1.14444e-08 -4.41449e-07 1.46996e-07 -3.89209e-07)
(-1.64852e-06 1.90681e-08 -5.2727e-09 -4.32114e-07 1.48637e-07 -3.40756e-07)
(-1.95582e-06 -1.64345e-09 6.50908e-09 -3.79377e-07 1.34322e-07 -4.40234e-07)
(-3.16913e-07 -1.33849e-08 1.20115e-08 -4.37712e-07 1.31405e-07 -4.8848e-07)
(-2.91037e-07 1.33509e-08 -1.23147e-08 -4.38217e-07 1.31105e-07 -4.88385e-07)
(-1.73291e-06 1.95062e-09 -6.76981e-09 -3.80335e-07 1.33342e-07 -4.39932e-07)
(-2.14496e-06 3.89865e-08 7.06965e-09 -4.53677e-07 1.07944e-07 -5.28665e-07)
(-4.413e-07 1.00142e-08 1.20506e-08 -4.65724e-07 1.05758e-07 -5.75885e-07)
(-4.14401e-07 -1.16951e-08 -1.22979e-08 -4.65592e-07 1.05394e-07 -5.75672e-07)
(-1.91382e-06 -3.9152e-08 -7.28408e-09 -4.52602e-07 1.06727e-07 -5.27961e-07)
(-2.50654e-06 1.11134e-07 6.04296e-09 -1.07294e-06 6.51977e-08 -5.90885e-07)
(-7.61229e-07 4.91815e-08 1.10242e-08 -8.85484e-07 6.30296e-08 -6.36504e-07)
(-7.32637e-07 -5.37734e-08 -1.11193e-08 -8.7904e-07 6.27176e-08 -6.36178e-07)
(-2.26508e-06 -1.11937e-07 -6.1543e-09 -1.0544e-06 6.40855e-08 -5.89771e-07)
(-3.17187e-06 1.45798e-07 4.38646e-09 -3.20828e-06 2.61091e-08 -5.9958e-07)
(-1.19356e-06 6.93898e-08 1.0799e-08 -2.71949e-06 2.26956e-08 -6.4441e-07)
(-1.16102e-06 -6.71811e-08 -1.04456e-08 -2.67078e-06 2.25741e-08 -6.44084e-07)
(-2.91561e-06 -1.43144e-07 -4.25012e-09 -3.06749e-06 2.56555e-08 -5.98354e-07)
(-1.6191e-06 3.92014e-08 1.96504e-10 5.01831e-08 9.74776e-08 -3.00752e-08)
(-1.89287e-07 -9.01191e-08 3.33064e-09 -2.55737e-07 1.11304e-07 -4.1227e-08)
(-1.69754e-07 8.6838e-08 -3.26856e-09 -2.68381e-07 1.11434e-07 -4.1299e-08)
(-1.41735e-06 -3.20131e-08 -2.51375e-10 -1.77511e-09 9.81084e-08 -3.03496e-08)
(-1.71594e-06 -2.07606e-08 1.71374e-09 -5.38701e-07 1.14675e-07 -1.21128e-07)
(-3.35617e-07 -4.3239e-08 5.72708e-09 -4.0507e-07 1.20373e-07 -1.42547e-07)
(-3.09863e-07 4.53038e-08 -5.78169e-09 -4.10847e-07 1.20422e-07 -1.42664e-07)
(-1.50906e-06 2.21802e-08 -1.84208e-09 -5.47255e-07 1.14957e-07 -1.21596e-07)
(-1.76294e-06 -2.47682e-08 3.36902e-09 -5.09034e-07 1.21734e-07 -2.28912e-07)
(-3.39662e-07 -2.77566e-08 6.98549e-09 -4.33689e-07 1.21802e-07 -2.53432e-07)
(-3.14529e-07 2.98005e-08 -7.18376e-09 -4.36192e-07 1.21757e-07 -2.53522e-07)
(-1.55336e-06 2.52935e-08 -3.54853e-09 -5.13048e-07 1.21654e-07 -2.29326e-07)
(-1.81194e-06 -1.70259e-08 4.74784e-09 -4.21198e-07 1.16825e-07 -3.36889e-07)
(-3.09274e-07 -2.18663e-08 7.86483e-09 -4.33262e-07 1.14712e-07 -3.61487e-07)
(-2.84309e-07 2.28528e-08 -8.14635e-09 -4.34338e-07 1.14577e-07 -3.61513e-07)
(-1.59774e-06 1.74974e-08 -4.95249e-09 -4.23579e-07 1.16423e-07 -3.37109e-07)
(-1.90701e-06 -7.87516e-10 5.69429e-09 -3.6354e-07 1.0158e-07 -4.3413e-07)
(-3.19837e-07 -1.29938e-08 8.37518e-09 -4.21617e-07 9.9527e-08 -4.5786e-07)
(-2.94226e-07 1.29597e-08 -8.67618e-09 -4.2223e-07 9.93183e-08 -4.57798e-07)
(-1.68612e-06 1.10949e-09 -5.89768e-09 -3.64843e-07 1.00918e-07 -4.34065e-07)
(-2.09894e-06 3.85804e-08 5.95757e-09 -4.3783e-07 7.57941e-08 -5.11754e-07)
(-4.4636e-07 9.44631e-09 8.35398e-09 -4.50458e-07 7.47687e-08 -5.34489e-07)
(-4.19677e-07 -1.11489e-08 -8.62067e-09 -4.50403e-07 7.45274e-08 -5.34326e-07)
(-1.86948e-06 -3.8731e-08 -6.13296e-09 -4.36996e-07 7.4992e-08 -5.11345e-07)
(-2.46027e-06 1.08704e-07 5.1617e-09 -1.05336e-06 4.15312e-08 -5.58358e-07)
(-7.63386e-07 4.73627e-08 7.69392e-09 -8.71236e-07 4.09213e-08 -5.80383e-07)
(-7.34928e-07 -5.19971e-08 -7.84448e-09 -8.6482e-07 4.07218e-08 -5.80141e-07)
(-2.21995e-06 -1.09492e-07 -5.26678e-09 -1.03489e-06 4.08138e-08 -5.57638e-07)
(-3.11826e-06 1.42292e-07 3.98701e-09 -3.14788e-06 1.54076e-08 -5.63836e-07)
(-1.19006e-06 6.73382e-08 7.56664e-09 -2.67049e-06 1.37597e-08 -5.86503e-07)
(-1.15756e-06 -6.51447e-08 -7.40948e-09 -2.62183e-06 1.36843e-08 -5.86274e-07)
(-2.8625e-06 -1.3962e-07 -3.92844e-09 -3.00718e-06 1.51193e-08 -5.63055e-07)
(-1.58702e-06 3.90575e-08 1.31042e-10 4.44485e-08 6.12175e-08 -3.67881e-08)
(-1.8655e-07 -8.78317e-08 1.6771e-09 -2.56717e-07 6.70413e-08 -4.22623e-08)
(-1.67167e-07 8.4436e-08 -1.64232e-09 -2.69329e-07 6.71197e-08 -4.23201e-08)
(-1.38661e-06 -3.19881e-08 -1.58264e-10 -7.25037e-09 6.15845e-08 -3.70169e-08)
(-1.68348e-06 -1.95733e-08 9.51346e-10 -5.3417e-07 7.07496e-08 -1.2784e-07)
(-3.32945e-07 -4.19032e-08 2.93621e-09 -4.04044e-07 7.27121e-08 -1.37935e-07)
(-3.0739e-07 4.38317e-08 -2.96568e-09 -4.09859e-07 7.27469e-08 -1.38047e-07)
(-1.47799e-06 2.09318e-08 -1.01748e-09 -5.4291e-07 7.0934e-08 -1.28294e-07)
(-1.73267e-06 -2.35946e-08 1.82717e-09 -5.04866e-07 7.54783e-08 -2.29833e-07)
(-3.40252e-07 -2.69228e-08 3.59774e-09 -4.31904e-07 7.4911e-08 -2.40811e-07)
(-3.15303e-07 2.88644e-08 -3.71455e-09 -4.34472e-07 7.48888e-08 -2.40923e-07)
(-1.52444e-06 2.40843e-08 -1.92481e-09 -5.0913e-07 7.54524e-08 -2.30317e-07)
(-1.78457e-06 -1.61556e-08 2.54112e-09 -4.17101e-07 7.26463e-08 -3.32036e-07)
(-3.13863e-07 -2.13531e-08 4.03019e-09 -4.29684e-07 7.12298e-08 -3.42322e-07)
(-2.89062e-07 2.2287e-08 -4.20659e-09 -4.30828e-07 7.11526e-08 -3.42389e-07)
(-1.57162e-06 1.66124e-08 -2.65815e-09 -4.19724e-07 7.24266e-08 -3.32398e-07)
(-1.88219e-06 -3.49336e-10 3.01661e-09 -3.59545e-07 6.21975e-08 -4.23378e-07)
(-3.27574e-07 -1.28223e-08 4.26405e-09 -4.17083e-07 6.1054e-08 -4.32623e-07)
(-3.02108e-07 1.27666e-08 -4.46227e-09 -4.17757e-07 6.09344e-08 -4.32615e-07)
(-1.66242e-06 6.71147e-10 -3.13736e-09 -3.61054e-07 6.18251e-08 -4.23506e-07)
(-2.07549e-06 3.82812e-08 3.1219e-09 -4.34951e-07 4.48894e-08 -4.93729e-07)
(-4.55093e-07 9.10493e-09 4.23486e-09 -4.47508e-07 4.45205e-08 -5.02245e-07)
(-4.28525e-07 -1.08227e-08 -4.41707e-09 -4.47494e-07 4.43841e-08 -5.02149e-07)
(-1.84694e-06 -3.84248e-08 -3.22867e-09 -4.34252e-07 4.44384e-08 -4.93565e-07)
(-2.43593e-06 1.07295e-07 2.67242e-09 -1.0459e-06 2.36641e-08 -5.34671e-07)
(-7.69985e-07 4.63883e-08 3.90465e-09 -8.66359e-07 2.36858e-08 -5.43113e-07)
(-7.41598e-07 -5.104e-08 -4.01804e-09 -8.59955e-07 2.35747e-08 -5.42953e-07)
(-2.19623e-06 -1.08072e-07 -2.73943e-09 -1.02746e-06 2.32635e-08 -5.34248e-07)
(-3.08868e-06 1.4035e-07 1.98705e-09 -3.11319e-06 8.46894e-09 -5.42422e-07)
(-1.19291e-06 6.6258e-08 3.82958e-09 -2.64191e-06 7.84366e-09 -5.51873e-07)
(-1.16042e-06 -6.40677e-08 -3.76672e-09 -2.59327e-06 7.80246e-09 -5.51727e-07)
(-2.83317e-06 -1.37664e-07 -1.96206e-09 -2.97251e-06 8.30939e-09 -5.41953e-07)
(-1.57279e-06 3.90681e-08 2.46945e-11 4.31284e-08 2.08235e-08 -3.98084e-08)
(-1.85548e-07 -8.67682e-08 4.9231e-10 -2.56199e-07 2.24392e-08 -4.30821e-08)
(-1.66232e-07 8.33161e-08 -4.8086e-10 -2.68794e-07 2.24654e-08 -4.3137e-08)
(-1.37299e-06 -3.20543e-08 -3.28758e-11 -8.44173e-09 2.09437e-08 -4.00214e-08)
(-1.66915e-06 -1.90444e-08 2.58879e-10 -5.3067e-07 2.38367e-08 -1.31294e-07)
(-3.32278e-07 -4.1314e-08 8.59812e-10 -4.02122e-07 2.43001e-08 -1.36946e-07)
(-3.06811e-07 4.31754e-08 -8.68544e-10 -4.07955e-07 2.43128e-08 -1.3706e-07)
(-1.46429e-06 2.03735e-08 -2.79033e-10 -5.39496e-07 2.39005e-08 -1.31739e-07)
(-1.71939e-06 -2.30851e-08 5.22107e-10 -5.01948e-07 2.54261e-08 -2.30336e-07)
(-3.41244e-07 -2.65727e-08 1.05544e-09 -4.29951e-07 2.51612e-08 -2.35983e-07)
(-3.16377e-07 2.84586e-08 -1.09309e-09 -4.32551e-07 2.5155e-08 -2.36107e-07)
(-1.51176e-06 2.35552e-08 -5.5265e-10 -5.06335e-07 2.54218e-08 -2.30845e-07)
(-1.77264e-06 -1.57845e-08 7.37778e-10 -4.15449e-07 2.44851e-08 -3.28591e-07)
(-3.16739e-07 -2.11496e-08 1.18109e-09 -4.28148e-07 2.40021e-08 -3.33287e-07)
(-2.9201e-07 2.20493e-08 -1.23983e-09 -4.29326e-07 2.39775e-08 -3.33378e-07)
(-1.56026e-06 1.62305e-08 -7.75327e-10 -4.18191e-07 2.44166e-08 -3.29018e-07)
(-1.87144e-06 -1.71641e-10 8.79197e-10 -3.59129e-07 2.08451e-08 -4.15949e-07)
(-3.31862e-07 -1.27636e-08 1.24616e-09 -4.16309e-07 2.04861e-08 -4.19631e-07)
(-3.06458e-07 1.26912e-08 -1.31374e-09 -4.17012e-07 2.04474e-08 -4.19656e-07)
(-1.65217e-06 4.90635e-10 -9.18684e-10 -3.60736e-07 2.07259e-08 -4.16177e-07)
(-2.06528e-06 3.81373e-08 9.07125e-10 -4.35305e-07 1.48725e-08 -4.82764e-07)
(-4.59755e-07 8.95592e-09 1.23499e-09 -4.47697e-07 1.47915e-08 -4.85914e-07)
(-4.33236e-07 -1.06823e-08 -1.29819e-09 -4.477e-07 1.47476e-08 -4.8586e-07)
(-1.83713e-06 -3.82785e-08 -9.42478e-10 -4.34669e-07 1.47275e-08 -4.8273e-07)
(-2.42512e-06 1.06675e-07 7.66092e-10 -1.04348e-06 7.75707e-09 -5.21997e-07)
(-7.73582e-07 4.59871e-08 1.13841e-09 -8.64936e-07 7.82564e-09 -5.25358e-07)
(-7.45224e-07 -5.06455e-08 -1.17916e-09 -8.58537e-07 7.78997e-09 -5.25246e-07)
(-2.18568e-06 -1.07447e-07 -7.88672e-10 -1.02506e-06 7.62841e-09 -5.2173e-07)
(-3.07524e-06 1.39513e-07 5.41144e-10 -3.09747e-06 2.73601e-09 -5.31523e-07)
(-1.19467e-06 6.58132e-08 1.11201e-09 -2.62872e-06 2.58742e-09 -5.35911e-07)
(-1.16218e-06 -6.36231e-08 -1.0957e-09 -2.58009e-06 2.5743e-09 -5.35811e-07)
(-2.81982e-06 -1.36821e-07 -5.34131e-10 -2.9568e-06 2.68497e-09 -5.31214e-07)
)
;

boundaryField
{
    interface
    {
        type            calculated;
        value           nonuniform List<symmTensor> 
192
(
(-4.7289e-06 2.23819e-12 1.71199e-11 1.52203e-06 2.70485e-07 -2.93484e-06)
(-4.43775e-06 2.36239e-12 2.78219e-11 -5.33178e-07 4.70397e-08 -3.01877e-06)
(-4.5328e-06 8.46725e-13 3.19872e-11 -6.86087e-07 7.94754e-09 -3.09389e-06)
(-4.67643e-06 -2.02391e-12 3.33436e-11 -6.56519e-07 1.54563e-08 -3.18031e-06)
(-4.84709e-06 -4.63546e-12 3.3278e-11 -6.94337e-07 3.97372e-08 -3.29368e-06)
(-5.06498e-06 -9.19001e-12 3.26014e-11 -9.31084e-07 8.48831e-08 -3.45517e-06)
(-5.35456e-06 -1.26923e-11 3.02612e-11 -1.79736e-06 1.50287e-07 -3.71699e-06)
(-5.90958e-06 -2.88656e-11 2.84712e-11 -4.21777e-06 1.74001e-07 -4.21534e-06)
(-3.90695e-06 1.61417e-12 8.38825e-12 6.22937e-07 5.46638e-08 -6.04007e-07)
(-3.71628e-06 1.89418e-12 1.45687e-11 -3.91057e-07 6.4097e-08 -9.86342e-07)
(-3.76999e-06 6.05e-13 1.65181e-11 -5.2668e-07 5.36558e-08 -1.06564e-06)
(-3.87634e-06 -2.2887e-12 1.68171e-11 -5.67188e-07 5.63895e-08 -1.09131e-06)
(-4.02763e-06 -5.0168e-12 1.63168e-11 -6.19935e-07 8.89508e-08 -1.13841e-06)
(-4.24957e-06 -1.00086e-11 1.55007e-11 -7.80134e-07 1.42662e-07 -1.24631e-06)
(-4.59386e-06 -1.38681e-11 1.3985e-11 -1.45998e-06 1.83986e-07 -1.46747e-06)
(-5.359e-06 -3.08065e-11 1.28011e-11 -3.71951e-06 1.51133e-07 -1.79833e-06)
(-3.4012e-06 1.38497e-12 6.56185e-12 2.55155e-07 1.16727e-07 -8.74245e-08)
(-3.32687e-06 1.65946e-12 1.12366e-11 -4.57437e-07 1.39478e-07 -2.97588e-07)
(-3.38822e-06 4.26873e-13 1.26744e-11 -4.9314e-07 1.29746e-07 -4.11741e-07)
(-3.4886e-06 -2.57625e-12 1.28563e-11 -4.91609e-07 1.2308e-07 -4.69412e-07)
(-3.64005e-06 -5.52318e-12 1.24312e-11 -5.05751e-07 1.37711e-07 -5.3149e-07)
(-3.8758e-06 -1.1031e-11 1.1768e-11 -6.09041e-07 1.58414e-07 -6.3756e-07)
(-4.25495e-06 -1.5425e-11 1.06873e-11 -1.23215e-06 1.48436e-07 -7.95441e-07)
(-5.07651e-06 -3.3451e-11 9.80004e-12 -3.45955e-06 8.823e-08 -9.29555e-07)
(-3.10117e-06 1.03878e-12 3.96519e-12 1.1902e-07 1.37682e-07 -1.48534e-08)
(-3.06937e-06 1.16213e-12 7.18114e-12 -5.16009e-07 1.66502e-07 -1.36659e-07)
(-3.14058e-06 -8.55763e-14 8.12253e-12 -5.03183e-07 1.65411e-07 -2.58639e-07)
(-3.24361e-06 -3.09622e-12 8.1535e-12 -4.49723e-07 1.56031e-07 -3.54112e-07)
(-3.39912e-06 -6.12983e-12 7.76537e-12 -4.21881e-07 1.5084e-07 -4.43044e-07)
(-3.64428e-06 -1.18471e-11 7.23738e-12 -5.01957e-07 1.39096e-07 -5.43239e-07)
(-4.04006e-06 -1.64731e-11 6.56097e-12 -1.12097e-06 1.00612e-07 -6.40978e-07)
(-4.8715e-06 -3.47328e-11 6.0464e-12 -3.30551e-06 4.67839e-08 -6.78013e-07)
(-2.92512e-06 8.70029e-13 2.88076e-12 6.84572e-08 1.25484e-07 -1.95633e-08)
(-2.90463e-06 8.46481e-13 5.21651e-12 -5.37409e-07 1.50612e-07 -1.15517e-07)
(-2.98137e-06 -4.68453e-13 5.90813e-12 -5.10288e-07 1.56663e-07 -2.31236e-07)
(-3.08851e-06 -3.51808e-12 5.92797e-12 -4.3011e-07 1.49231e-07 -3.40753e-07)
(-3.24844e-06 -6.6491e-12 5.64051e-12 -3.79377e-07 1.34322e-07 -4.40234e-07)
(-3.49925e-06 -1.25458e-11 5.24779e-12 -4.53677e-07 1.07944e-07 -5.28665e-07)
(-3.90137e-06 -1.73826e-11 4.77943e-12 -1.07294e-06 6.51977e-08 -5.90885e-07)
(-4.72747e-06 -3.58884e-11 4.4139e-12 -3.20828e-06 2.61091e-08 -5.9958e-07)
(-2.82285e-06 7.37592e-13 1.74114e-12 5.01831e-08 9.74776e-08 -3.00752e-08)
(-2.8053e-06 5.89272e-13 3.26462e-12 -5.38701e-07 1.14675e-07 -1.21128e-07)
(-2.88494e-06 -7.88647e-13 3.72114e-12 -5.09034e-07 1.21734e-07 -2.28912e-07)
(-2.99541e-06 -3.86188e-12 3.7238e-12 -4.21198e-07 1.16825e-07 -3.36889e-07)
(-3.15878e-06 -7.04568e-12 3.52326e-12 -3.6354e-07 1.0158e-07 -4.3413e-07)
(-3.41271e-06 -1.30286e-11 3.25753e-12 -4.3783e-07 7.57941e-08 -5.11754e-07)
(-3.81645e-06 -1.79724e-11 2.97195e-12 -1.05336e-06 4.15312e-08 -5.58358e-07)
(-4.63473e-06 -3.65929e-11 2.76168e-12 -3.14788e-06 1.54076e-08 -5.63836e-07)
(-2.76626e-06 6.72325e-13 1.01629e-12 4.44485e-08 6.12175e-08 -3.67881e-08)
(-2.74962e-06 4.3778e-13 1.90377e-12 -5.3417e-07 7.07496e-08 -1.2784e-07)
(-2.83078e-06 -9.91701e-13 2.17197e-12 -5.04866e-07 7.54783e-08 -2.29833e-07)
(-2.94339e-06 -4.08893e-12 2.17431e-12 -4.17101e-07 7.26463e-08 -3.32036e-07)
(-3.10892e-06 -7.31364e-12 2.05858e-12 -3.59545e-07 6.21975e-08 -4.23378e-07)
(-3.36438e-06 -1.33564e-11 1.9016e-12 -4.34951e-07 4.48894e-08 -4.93729e-07)
(-3.76808e-06 -1.83754e-11 1.74091e-12 -1.0459e-06 2.36641e-08 -5.34671e-07)
(-4.58039e-06 -3.70842e-11 1.61494e-12 -3.11319e-06 8.46894e-09 -5.42422e-07)
(-2.74095e-06 6.32407e-13 2.98484e-13 4.31284e-08 2.08235e-08 -3.98084e-08)
(-2.72464e-06 3.53101e-13 5.80804e-13 -5.3067e-07 2.38367e-08 -1.31294e-07)
(-2.80647e-06 -1.1003e-12 6.67415e-13 -5.01948e-07 2.54261e-08 -2.30336e-07)
(-2.92009e-06 -4.20447e-12 6.66944e-13 -4.15449e-07 2.44851e-08 -3.28591e-07)
(-3.08663e-06 -7.44511e-12 6.29022e-13 -3.59129e-07 2.08451e-08 -4.15949e-07)
(-3.34269e-06 -1.35086e-11 5.77581e-13 -4.35305e-07 1.48725e-08 -4.82764e-07)
(-3.74611e-06 -1.85617e-11 5.30234e-13 -1.04348e-06 7.75707e-09 -5.21997e-07)
(-4.55536e-06 -3.73059e-11 4.91015e-13 -3.09747e-06 2.73601e-09 -5.31523e-07)
(-2.8907e-06 2.32168e-07 -2.36806e-11 1.52203e-06 -5.78384e-12 -4.82026e-06)
(-3.02192e-06 6.67003e-09 -4.04899e-11 -5.33178e-07 -7.23718e-12 -4.50072e-06)
(-3.10075e-06 -3.17466e-08 -4.78999e-11 -6.86087e-07 -6.44666e-12 -4.59678e-06)
(-3.16444e-06 -2.26744e-08 -5.09713e-11 -6.56519e-07 -4.95086e-12 -4.75082e-06)
(-3.2605e-06 -2.14207e-09 -5.22043e-11 -6.94337e-07 -4.27234e-12 -4.92835e-06)
(-3.43051e-06 3.80081e-08 -5.3194e-11 -9.31084e-07 -4.52369e-12 -5.14192e-06)
(-3.72456e-06 1.05645e-07 -5.44375e-11 -1.79736e-06 -5.46534e-12 -5.4171e-06)
(-4.23343e-06 1.35736e-07 -6.01333e-11 -4.21777e-06 -6.79308e-12 -5.95912e-06)
(-6.98953e-07 -2.98408e-08 -1.37934e-11 9.5209e-07 -3.45565e-12 -4.29979e-06)
(-1.21371e-06 -3.625e-08 -2.65485e-11 -2.72351e-07 -5.6451e-12 -3.99451e-06)
(-1.28714e-06 -3.63707e-08 -3.1732e-11 -5.12914e-07 -5.3369e-12 -4.01499e-06)
(-1.24982e-06 -2.86512e-08 -3.36823e-11 -6.29707e-07 -3.63496e-12 -4.11718e-06)
(-1.25014e-06 -1.45044e-08 -3.44859e-11 -7.38898e-07 -2.4008e-12 -4.26334e-06)
(-1.36965e-06 1.15014e-08 -3.5538e-11 -9.37504e-07 -1.69961e-12 -4.46274e-06)
(-1.67448e-06 5.05453e-08 -3.78476e-11 -1.62268e-06 -1.81528e-12 -4.77243e-06)
(-2.08044e-06 6.65483e-08 -4.52635e-11 -3.85158e-06 -2.27711e-12 -5.52994e-06)
(-6.76137e-07 1.49715e-08 -1.3528e-11 9.32027e-07 -2.5455e-12 -4.21952e-06)
(-1.18268e-06 3.13026e-08 -2.63421e-11 -2.75049e-07 -4.72218e-12 -3.91865e-06)
(-1.2561e-06 3.45165e-08 -3.17206e-11 -5.12668e-07 -4.59405e-12 -3.93671e-06)
(-1.21872e-06 2.72656e-08 -3.37837e-11 -6.28975e-07 -2.71553e-12 -4.03655e-06)
(-1.21857e-06 1.29839e-08 -3.45814e-11 -7.38189e-07 -1.09123e-12 -4.18091e-06)
(-1.33767e-06 -1.39566e-08 -3.54777e-11 -9.3617e-07 2.6921e-13 -4.37869e-06)
(-1.64188e-06 -5.51109e-08 -3.74809e-11 -1.61479e-06 9.88451e-13 -4.68687e-06)
(-2.04508e-06 -6.38199e-08 -4.46659e-11 -3.80169e-06 1.12697e-12 -5.44468e-06)
(-2.66468e-06 -2.28369e-07 -1.44846e-11 1.45027e-06 -2.08586e-12 -4.59003e-06)
(-2.78556e-06 -7.74474e-09 -2.948e-11 -5.3249e-07 -4.1774e-12 -4.28227e-06)
(-2.86018e-06 3.08091e-08 -3.62528e-11 -6.82473e-07 -4.06556e-12 -4.3701e-06)
(-2.91924e-06 2.21683e-08 -3.89772e-11 -6.53873e-07 -2.02193e-12 -4.5172e-06)
(-3.01061e-06 1.67708e-09 -4.00127e-11 -6.91858e-07 -1.99312e-13 -4.68972e-06)
(-3.17645e-06 -3.88392e-08 -4.1179e-11 -9.26735e-07 1.48033e-12 -4.89901e-06)
(-3.46632e-06 -1.06923e-07 -4.30187e-11 -1.7755e-06 2.68289e-12 -5.1708e-06)
(-3.96648e-06 -1.33208e-07 -5.06561e-11 -4.07726e-06 3.79966e-12 -5.71803e-06)
(-4.32249e-06 4.52577e-12 3.59707e-12 1.45027e-06 2.67938e-07 -2.80769e-06)
(-4.02707e-06 6.38016e-12 7.3556e-12 -5.3249e-07 4.78533e-08 -2.89358e-06)
(-4.11375e-06 5.20593e-12 8.63696e-12 -6.82473e-07 8.51263e-09 -2.96442e-06)
(-4.24823e-06 2.05707e-12 9.34142e-12 -6.53873e-07 1.5391e-08 -3.04723e-06)
(-4.41043e-06 2.38758e-13 9.95428e-12 -6.91858e-07 3.91698e-08 -3.15784e-06)
(-4.62081e-06 -2.31901e-12 1.16175e-11 -9.26735e-07 8.38461e-08 -3.31691e-06)
(-4.90329e-06 -2.15191e-12 1.30832e-11 -1.7755e-06 1.48687e-07 -3.57654e-06)
(-5.44641e-06 -1.61718e-11 1.70349e-11 -4.07726e-06 1.72487e-07 -4.07617e-06)
(-3.5087e-06 1.80068e-12 -2.10395e-12 5.64589e-07 6.02822e-08 -5.91717e-07)
(-3.32126e-06 2.94936e-12 -2.31409e-12 -3.9748e-07 6.64641e-08 -9.68729e-07)
(-3.36851e-06 2.4872e-12 -2.93112e-12 -5.27199e-07 5.46105e-08 -1.04773e-06)
(-3.4659e-06 6.96951e-13 -3.0585e-12 -5.66167e-07 5.62681e-08 -1.07345e-06)
(-3.60758e-06 2.04776e-13 -2.68287e-12 -6.18244e-07 8.77993e-08 -1.12032e-06)
(-3.81964e-06 -1.23196e-12 -1.25559e-12 -7.76801e-07 1.4059e-07 -1.22773e-06)
(-4.15381e-06 3.54614e-13 6.08007e-13 -1.44003e-06 1.81371e-07 -1.44788e-06)
(-4.90461e-06 -1.24253e-11 3.43901e-12 -3.57686e-06 1.49577e-07 -1.77675e-06)
(-3.01606e-06 9.98433e-13 -1.34858e-12 2.0104e-07 1.19206e-07 -8.75673e-08)
(-2.94418e-06 1.62705e-12 -1.01236e-12 -4.65052e-07 1.40596e-07 -2.95991e-07)
(-2.99909e-06 1.46449e-12 -8.74895e-13 -4.95556e-07 1.29989e-07 -4.09769e-07)
(-3.09043e-06 3.92278e-13 -5.24149e-13 -4.92111e-07 1.22523e-07 -4.67597e-07)
(-3.23134e-06 7.04039e-13 6.75392e-14 -5.05243e-07 1.36317e-07 -5.29628e-07)
(-3.45508e-06 -6.61061e-14 1.27517e-12 -6.06814e-07 1.56324e-07 -6.3525e-07)