/*--------------------------------*- C++ -*----------------------------------*\
| =========                 |                                                 |
| \\      /  F ield         | OpenFOAM: The Open Source CFD Toolbox           |
|  \\    /   O peration     | Version:  v1912                                 |
|   \\  /    A nd           | Website:  www.openfoam.com                      |
|    \\/     M anipulation  |                                                 |
\*---------------------------------------------------------------------------*/
FoamFile
{
    version     2.0;
    format      ascii;
    class       volVectorField;
    location    "0.89/solid";
    object      heatFlux;
}
// * * * * * * * * * * * * * * * * * * * * * * * * * * * * * * * * * * * * * //

dimensions      [1 0 -3 0 0 0 0];


internalField   nonuniform List<vector> 
256
(
(-63317.3 74990.9 -66506.9)
(-13405.6 45313.6 -65620.6)
(11738.4 44710.5 -64217.4)
(55722.1 71869.8 -62418)
(-59635.9 12149.6 -63244.8)
(-16874.8 8124.17 -65600.9)
(14817.7 8033.47 -64155.2)
(51688.5 11762.3 -59153.3)
(-60670.2 2997.84 -64422.2)
(-17521.8 1928.05 -67232.9)
(15376.6 1899.98 -65731.3)
(52564.4 2882.51 -60197.1)
(-62480.4 2715.05 -66262.2)
(-17972.7 1673.83 -69281)
(15772.2 1656.31 -67737.9)
(54208.5 2633.45 -61930.2)
(-64970.8 4512.87 -68749.8)
(-18580.5 3048.65 -72129.2)
(16336.2 3032.95 -70554.7)
(56536.9 4441.38 -64335.2)
(-68359 10255.1 -72150.1)
(-19452.6 8462.82 -76304.7)
(17164.9 8419.8 -74700)
(59767.3 10121.8 -67657.1)
(-71272.4 29617.3 -75180)
(-20415.8 29389.9 -80772.6)
(17995.1 29116.3 -79138)
(62478.6 28872.9 -70615.8)
(-64898.6 69214.2 -69092.1)
(-19953.6 76001.3 -75903.3)
(16647.9 74438.2 -74356)
(55651.3 64876.9 -64810.4)
(-60947 41465.2 -18565.1)
(-12239.9 13489.4 -16389.5)
(11262.2 13292.1 -16187.6)
(53774.4 39490.4 -17976.2)
(-60824.6 7443.82 -23999.4)
(-15933.1 3082.09 -21854.8)
(14738.8 3050.77 -21596.6)
(53409.7 7213.24 -23256.2)
(-62344.1 1826.07 -24953.4)
(-16633 666.34 -22842.9)
(15393.4 656.541 -22570.4)
(54778.3 1755.14 -24174.6)
(-64374.2 1649.9 -25507.6)
(-17102.7 523.443 -23410.5)
(15827.6 515.373 -23131.3)
(56637.4 1587.82 -24714.6)
(-67252.3 3013.52 -26232.8)
(-17767.5 1317.77 -24195.3)
(16457.7 1307.78 -23912.8)
(59334.9 2948.23 -25437.1)
(-71478.1 8306.71 -27306)
(-18808.4 5933.62 -25467.4)
(17458 5893.63 -25183.3)
(63368.9 8168.76 -26517.2)
(-75999.6 28791.8 -28744.9)
(-20180.6 27457.6 -27435.7)
(18692.9 27168.4 -27152.3)
(67647 27988.5 -27972.9)
(-71352.2 75361.1 -29559.7)
(-20431.8 80923.2 -29358.9)
(17988.9 79264.5 -29093)
(62496 70718.6 -28851.7)
(-55085.5 32426.4 -5041.86)
(-11028.1 7069.28 -3058.01)
(10151.7 6926.36 -3031.41)
(48169.6 30637.4 -4936.19)
(-55745.7 5761.4 -6923.29)
(-14472 1670.7 -4489.03)
(13416.4 1650.66 -4451.34)
(48616.8 5563.93 -6781.17)
(-57274.6 1489.65 -7228.73)
(-15138.8 372.422 -4734.04)
(14044.9 365.205 -4694.05)
(49994 1424.11 -7080.55)
(-59268.4 1435.61 -7347.2)
(-15596.4 321.474 -4832.62)
(14468.1 313.911 -4792.06)
(51811.4 1370.9 -7199.28)
(-62163.3 2714.46 -7482.62)
(-16260.5 991.742 -4963.12)
(15094.3 980.96 -4922.89)
(54507.3 2638.8 -7340.26)
(-66538.1 7742.99 -7706.15)
(-17329.9 5222.43 -5216.17)
(16115.1 5180.31 -5177.25)
(58652.1 7585.96 -7576.33)
(-71583.8 27363.6 -8267.37)
(-18823.2 25498.3 -5925.79)
(17457.9 25206.6 -5889.35)
(63398.4 26538.3 -8158.15)
(-68545.2 72425.4 -10187.3)
(-19486.9 76538.2 -8430.69)
(17155.1 74895.9 -8395.81)
(59812.9 67816.2 -10095.7)
(-50904.6 29500 -1837.96)
(-10229.5 5942.4 -568.25)
(9384.02 5809.37 -562.351)
(44164.8 27773 -1794.45)
(-51613.6 5256.95 -2459.33)
(-13461.2 1406.05 -850.132)
(12446.6 1388.13 -841.616)
(44671.9 5068.87 -2402.66)
(-53084 1402.16 -2551.79)
(-14098.3 322.748 -896.143)
(13046.8 315.819 -887.205)
(45991.9 1337.02 -2493.47)
(-55036.8 1396 -2577.66)
(-14547.5 294.366 -909.724)
(13460.9 286.53 -900.849)
(47763.8 1328.11 -2520.54)
(-57914 2654.58 -2601.5)
(-15207.8 934.209 -927.354)
(14080.6 922.585 -918.894)
(50427.9 2571.19 -2548.52)
(-62305.6 7521.96 -2659.53)
(-16279.5 4970.95 -984.293)
(15097.9 4927.17 -976.771)
(54562.6 7350.88 -2614.96)
(-67506.2 26310.6 -2949.75)
(-17802.6 24243.1 -1304.59)
(16460.5 23949.8 -1298.8)
(59420.3 25469.1 -2919.54)
(-65307.3 69165.7 -4399.02)
(-18640.3 72490 -2990.27)
(16323.9 70859.2 -2985.55)
(56634.9 64582.7 -4382.18)
(-48334.6 28129.1 -928.766)
(-9752.47 5650.9 -172.435)
(8925.49 5522.4 -169.422)
(41712.5 26440.3 -901.755)
(-49018.3 5047.58 -1211.35)
(-12854.3 1342.81 -250.665)
(11863.9 1325.81 -246.335)
(42200.8 4864.92 -1176.41)
(-50451.8 1371.32 -1249.02)
(-13474.2 312.83 -261.964)
(12447.6 305.972 -257.448)
(43484.6 1306.23 -1213.14)
(-52383.2 1385.9 -1256.7)
(-13919.6 290.263 -264.057)
(12857.3 282.222 -259.617)
(45231.6 1315.85 -1221.76)
(-55248.7 2632.59 -1263.35)
(-14577.9 917.172 -267.254)
(13473.2 905.038 -263.075)
(47874.5 2544.37 -1231.08)
(-59632.3 7394.74 -1292.19)
(-15647.2 4845.2 -289.718)
(14484.5 4800.41 -286.091)
(51983.4 7214.93 -1265.06)
(-64864.7 25624.1 -1472.86)
(-17172.3 23492.4 -465.865)
(15842.9 23197.8 -463.302)
(56845.6 24771.1 -1454.6)
(-63051.3 66908.4 -2415.65)
(-18073.5 69863.3 -1492.08)
(15763.2 68237 -1490.6)
(54417.3 62334.4 -2407.44)
(-46787.2 27359.9 -523.793)
(-9470.15 5519.3 -83.312)
(8654.7 5393.61 -81.4848)
(40237.8 25694.9 -507.412)
(-47453.8 4936.7 -676.405)
(-12496.2 1316.52 -118.611)
(11520.9 1300.1 -115.968)
(40712.6 4757.48 -655.11)
(-48868.5 1356.81 -695.277)
(-13106.7 309.355 -123.218)
(12095.7 302.537 -120.459)
(41977.7 1291.68 -673.419)
(-50789.3 1381.68 -698.365)
(-13550.4 289.076 -123.756)
(12503.2 280.903 -121.047)
(43711.3 1310.17 -677.175)
(-53647.2 2619.09 -701.804)
(-14207.5 908.549 -124.979)
(13116.8 896.111 -122.428)
(46339.9 2527.89 -682.286)
(-58017.3 7312.45 -720.628)
(-15273.4 4772.34 -137.286)
(14122.5 4726.94 -135.053)
(50424.2 7127.36 -704.16)
(-63242 25187.1 -834.713)
(-16793 23040.7 -239.542)
(15471.8 22745.3 -237.929)
(55262.4 24326.8 -823.474)
(-61606.4 65456.9 -1418.57)
(-17715.3 68236.3 -849.712)
(15408.6 66611.8 -848.874)
(52993.7 60885.9 -1413.86)
(-45900.5 26928.9 -274.015)
(-9310.17 5448.98 -42.1806)
(8501.39 5324.94 -41.1921)
(39392.9 25277.7 -265.29)
(-46558.5 4876.09 -352.479)
(-12293.8 1302.9 -59.6497)
(11327.4 1286.83 -58.2098)
(39860.9 4698.91 -341.078)
(-47963.7 1349.36 -361.807)
(-12899.4 307.684 -61.8353)
(11897.4 300.893 -60.329)
(41116.4 1284.17 -350.098)
(-49879 1379.37 -363.198)
(-13342.3 288.502 -62.0418)
(12303.8 280.253 -60.5623)
(42842.8 1306.98 -351.872)
(-52731.7 2610.32 -365.221)
(-13998.5 903.643 -62.6706)
(12915.9 891.033 -61.2755)
(45462.1 2517.39 -354.811)
(-57089.8 7261.84 -376.355)
(-15061.6 4730.64 -69.2267)
(13917.6 4684.9 -67.9992)
(49527.8 7073.74 -367.572)
(-62299.5 24926.2 -440.055)
(-16575.5 22779.9 -123.556)
(15259 22484 -122.654)
(54341.6 24061.4 -434.051)
(-60746.4 64587.9 -759.96)
(-17503.8 67282.5 -450.376)
(15199.1 65658.7 -449.921)
(52144.8 60017.7 -757.581)
(-45494.3 26733.4 -85.5955)
(-9237.32 5417.47 -13.0662)
(8431.59 5294.21 -12.7539)
(39005.6 25088.5 -82.8646)
(-46148.5 4848.91 -109.934)
(-12201.9 1296.87 -18.4379)
(11239.4 1280.97 -17.9812)
(39470.8 4672.67 -106.354)
(-47549.7 1346.09 -112.781)
(-12805.3 306.963 -19.1)
(11807.4 300.185 -18.6215)
(40722.2 1280.88 -109.101)
(-49462.7 1378.26 -113.197)
(-13247.8 288.24 -19.1591)
(12213.4 279.957 -18.689)
(42445.3 1305.46 -109.641)
(-52312.5 2605.93 -113.887)
(-13903.6 901.364 -19.3617)
(12824.6 888.674 -18.9184)
(45059.8 2512.19 -110.624)
(-56663.9 7237.61 -117.589)
(-14965.1 4711.45 -21.4385)
(13824.2 4665.56 -21.048)
(49115.7 7048.12 -114.842)
(-61863.8 24803.5 -138.111)
(-16475.6 22659.6 -38.5473)
(15161.3 22363.4 -38.2588)
(53915.4 23936.7 -136.243)
(-60343.7 64179.1 -240.208)
(-17405.2 66838.5 -141.81)
(15101.4 65215.1 -141.666)
(51746.7 59609 -239.502)
)
;

boundaryField
{
    interface
    {
        type            calculated;
        value           nonuniform List<vector> 
192
(
(-100354 74990.9 -66506.9)
(-86198 12149.6 -63244.8)
(-87008.5 2997.84 -64422.2)
(-89747.5 2715.05 -66262.2)
(-93527.4 4512.87 -68749.8)
(-98576.2 10255.1 -72150.1)
(-102546 29617.3 -75180)
(-91200.8 69214.2 -69092.1)
(-97585.8 41465.2 -18565.1)
(-90006 7443.82 -23999.4)
(-91656.5 1826.07 -24953.4)
(-94785.6 1649.9 -25507.6)
(-99220.1 3013.52 -26232.8)
(-105602 8306.71 -27306)
(-111968 28791.8 -28744.9)
(-102682 75361.1 -29559.7)
(-88241.4 32426.4 -5041.86)
(-82706.8 5761.4 -6923.29)
(-84438.2 1489.65 -7228.73)
(-87517.7 1435.61 -7347.2)
(-91987.4 2714.46 -7482.62)
(-98611.6 7742.99 -7706.15)
(-105787 27363.6 -8267.37)
(-98895.3 72425.4 -10187.3)
(-81468.7 29500 -1837.96)
(-76452.4 5256.95 -2459.33)
(-78125.6 1402.16 -2551.79)
(-81140 1396 -2577.66)
(-85582.5 2654.58 -2601.5)
(-92237 7521.96 -2659.53)
(-99664.8 26310.6 -2949.75)
(-94105.3 69165.7 -4399.02)
(-77279.1 28129.1 -928.766)
(-72470.3 5047.58 -1211.35)
(-74104 1371.32 -1249.02)
(-77083.1 1385.9 -1256.7)
(-81506.5 2632.59 -1263.35)
(-88150.6 7394.74 -1292.19)
(-95639.4 25624.1 -1472.86)
(-90725 66908.4 -2415.65)
(-74746.5 27359.9 -523.793)
(-70054.3 4936.7 -676.405)
(-71668.9 1356.81 -695.277)
(-74630.3 1381.68 -698.365)
(-79041 2619.09 -701.804)
(-85665.2 7312.45 -720.628)
(-93150.5 25187.1 -834.713)
(-88550.6 65456.9 -1418.57)
(-73291.8 26928.9 -274.015)
(-68666.2 4876.09 -352.479)
(-70271.8 1349.36 -361.807)
(-73224 1379.37 -363.198)
(-77626 2610.32 -365.221)
(-84232.2 7261.84 -376.355)
(-91699.2 24926.2 -440.055)
(-87252.9 64587.9 -759.96)
(-72624.4 26733.4 -85.5955)
(-68029.2 4848.91 -109.934)
(-69631.1 1346.09 -112.781)
(-72579.4 1378.26 -113.197)
(-76976.8 2605.93 -113.887)
(-83572.7 7237.61 -117.589)
(-91026.9 24803.5 -138.111)
(-86644.4 64179.1 -240.208)
(-63317.3 74990.9 -103478)
(-59635.9 12149.6 -88973.7)
(-60670.2 2997.84 -89897.1)
(-62480.4 2715.05 -92665.1)
(-64970.8 4512.87 -96422.1)
(-68359 10255.1 -101442)
(-71272.4 29617.3 -105386)
(-64898.6 69214.2 -93675.1)
(-13405.6 45313.6 -103678)
(-16874.8 8124.17 -95116.5)
(-17521.8 1928.05 -96818.6)
(-17972.7 1673.83 -99953.2)
(-18580.5 3048.65 -104310)
(-19452.6 8462.82 -110539)
(-20415.8 29389.9 -116539)
(-19953.6 76001.3 -105871)
(11738.4 44710.5 -101231)
(14817.7 8033.47 -92677.9)
(15376.6 1899.98 -94292.9)
(15772.2 1656.31 -97356.5)
(16336.2 3032.95 -101658)
(17164.9 8419.8 -107830)
(17995.1 29116.3 -113772)
(16647.9 74438.2 -103246)
(55722.1 71869.8 -96320.6)
(51688.5 11762.3 -82063.3)
(52564.4 2882.51 -82780.7)
(54208.5 2633.45 -85362.3)
(56536.9 4441.38 -88965.5)
(59767.3 10121.8 -93829.9)
(62478.6 28872.9 -97620.8)
(55651.3 64876.9 -86367.8)
(87437 71869.8 -62418)
(73065.8 11762.3 -59153.3)
(73663.9 2882.51 -60197.1)
(76140.7 2633.45 -61930.2)
(79654.8 4441.38 -64335.2)
(84441.5 10121.8 -67657.1)
(88134.2 28872.9 -70615.8)
(76696.1 64876.9 -64810.4)
(84852.7 39490.4 -17976.2)
(77119 7213.24 -23256.2)
(78535.6 1755.14 -24174.6)
(81377 1587.82 -24714.6)
(85503.9 2948.23 -25437.1)
(91559.2 8168.76 -26517.2)
(97577.8 27988.5 -27972.9)
(88173 70718.6 -28851.7)
(75909.3 30637.4 -4936.19)
(70241.4 5563.93 -6781.17)
(71731.6 1424.11 -7080.55)
(74512.9 1370.9 -7199.28)
(78644.2 2638.8 -7340.26)
(84878.6 7585.96 -7576.33)
(91615.1 26538.3 -8158.15)
(84536.8 67816.2 -10095.7)
(69443 27773 -1794.45)
(64303 5068.87 -2402.66)
(65735.8 1337.02 -2493.47)
(68444.3 1328.11 -2520.54)
(72524.7 2571.19 -2548.52)
(78744.8 7350.88 -2614.96)
(85662 25469.1 -2919.54)
(79850.8 64582.7 -4382.18)
(65459.3 26440.3 -901.755)
(60531.6 4864.92 -1176.41)
(61925.3 1306.23 -1213.14)
(64592.7 1315.85 -1221.76)
(68637.8 2544.37 -1231.08)
(74817.7 7214.93 -1265.06)
(81751 24771.1 -1454.6)
(76538.8 62334.4 -2407.44)
(63053.8 25694.9 -507.412)
(58244.6 4757.48 -655.11)
(59618.7 1291.68 -673.419)
(62263.7 1310.17 -677.175)
(66284.7 2527.89 -682.286)
(72425.8 7127.36 -704.16)
(79328.8 24326.8 -823.474)
(74402 60885.9 -1413.86)
(61671.9 25277.7 -265.29)
(56930.2 4698.91 -341.078)
(58294.8 1284.17 -350.098)
(60927.4 1306.98 -351.872)
(64932.7 2517.39 -354.811)
(71044.6 7073.74 -367.572)
(77914 24061.4 -434.051)
(73123.9 60017.7 -757.581)
(61037.5 25088.5 -82.8646)
(56326.7 4672.67 -106.354)
(57687.4 1280.88 -109.101)
(60314.3 1305.46 -109.641)
(64311.6 2512.19 -110.624)
(70408.1 7048.12 -114.842)
(77257.6 23936.7 -136.243)
(72523.3 59609 -239.502)
(-64898.6 93859.5 -69092.1)
(-71352.2 105688 -29559.7)
(-68545.2 101912 -10187.3)
(-65307.3 97137 -4399.02)
(-63051.3 93776 -2415.65)
(-61606.4 91605.2 -1418.57)
(-60746.4 90302.8 -759.96)
(-60343.7 89689.4 -240.208)
(-19953.6 106031 -75903.3)
(-20431.8 116804 -29358.9)
(-19486.9 110952 -8430.69)
(-18640.3 104948 -2990.27)
(-18073.5 100973 -1492.08)
(-17715.3 98492.5 -849.712)
(-17503.8 97031.9 -450.376)
(-17405.2 96350.6 -141.81)
(16647.9 103383 -74356)
(17988.9 113997 -29093)
(17155.1 108180 -8395.81)
(16323.9 102200 -2985.55)
(15763.2 98235.6 -1490.6)
(15408.6 95759.4 -848.874)
(15199.1 94301 -449.921)
(15101.4 93620.5 -141.666)
(55651.3 86477.2 -64810.4)
(62496 97802.6 -28851.7)
(59812.9 94113.3 -10095.7)
(56634.9 89406.1 -4382.18)
(54417.3 86074.9 -2407.44)
(52993.7 83918.1 -1413.86)
(52144.8 82622.2 -757.581)
(51746.7 82011.5 -239.502)
)
;
    }
    symmetry
    {
        type            symmetry;
    }
    bottom
    {
        type            calculated;
        value           nonuniform List<vector> 
32
(
(-63317.3 129429 -66506.9)
(-60947 70358.1 -18565.1)
(-55085.5 55168.9 -5041.86)
(-50904.6 50190.6 -1837.96)
(-48334.6 47817.1 -928.766)
(-46787.2 46475.6 -523.793)
(-45900.5 45721.9 -274.015)
(-45494.3 45379.5 -85.5955)
(-13405.6 76867.5 -65620.6)
(-12239.9 21741.6 -16389.5)
(-11028.1 11309.7 -3058.01)
(-10229.5 9509.63 -568.25)
(-9752.47 9036.68 -172.435)
(-9470.15 8819.89 -83.312)
(-9310.17 8703.43 -42.1806)
(-9237.32 8651.16 -13.0662)
(11738.4 75807 -64217.4)
(11262.2 21398.3 -16187.6)
(10151.7 11056.6 -3031.41)
(9384.02 9272.67 -562.351)
(8925.49 8807.17 -169.422)
(8654.7 8594.98 -81.4848)
(8501.39 8481.23 -41.1921)
(8431.59 8430.21 -12.7539)
(55722.1 123821 -62418)
(53774.4 66790.5 -17976.2)
(48169.6 51916.4 -4936.19)
(44164.8 47045.7 -1794.45)
(41712.5 44738.6 -901.755)
(40237.8 43438.7 -507.412)
(39392.9 42709 -265.29)
(39005.6 42377.5 -82.8646)
)
;
    }
}


// ************************************************************************* //
