/*--------------------------------*- C++ -*----------------------------------*\
| =========                 |                                                 |
| \\      /  F ield         | OpenFOAM: The Open Source CFD Toolbox           |
|  \\    /   O peration     | Version:  v1912                                 |
|   \\  /    A nd           | Website:  www.openfoam.com                      |
|    \\/     M anipulation  |                                                 |
\*---------------------------------------------------------------------------*/
FoamFile
{
    version     2.0;
    format      ascii;
    class       pointVectorField;
    location    "0.89/solid";
    object      pointD;
}
// * * * * * * * * * * * * * * * * * * * * * * * * * * * * * * * * * * * * * //

dimensions      [0 1 0 0 0 0 0];


internalField   nonuniform List<vector> 
405
(
(4.03069e-08 4.35474e-08 4.18184e-08)
(8.68268e-09 2.90989e-08 4.47518e-08)
(-6.49247e-11 2.4168e-08 4.2108e-08)
(-8.51099e-09 2.84316e-08 4.35885e-08)
(-3.79402e-08 4.19769e-08 4.04581e-08)
(6.98152e-08 5.41867e-08 7.78808e-08)
(2.4103e-08 4.95993e-08 1.03899e-07)
(5.87877e-11 4.16822e-08 9.84009e-08)
(-2.32748e-08 4.83082e-08 1.01534e-07)
(-6.56425e-08 5.19303e-08 7.57322e-08)
(8.10618e-08 3.17582e-08 1.02833e-07)
(3.20197e-08 3.15498e-08 1.2815e-07)
(5.09769e-10 2.72504e-08 1.221e-07)
(-3.01827e-08 3.03484e-08 1.25704e-07)
(-7.57136e-08 2.96828e-08 1.0053e-07)
(8.3065e-08 1.17659e-08 1.20685e-07)
(3.29279e-08 1.37904e-08 1.46245e-07)
(1.0334e-09 1.16739e-08 1.39544e-07)
(-3.00448e-08 1.26569e-08 1.43721e-07)
(-7.6611e-08 9.80943e-09 1.18301e-07)
(8.40593e-08 -4.60551e-09 1.36772e-07)
(3.28311e-08 -2.62768e-09 1.62809e-07)
(1.5447e-09 -4.42009e-09 1.55529e-07)
(-2.89203e-08 -3.72482e-09 1.60215e-07)
(-7.65113e-08 -6.4939e-09 1.34312e-07)
(8.80787e-08 -2.0524e-08 1.53885e-07)
(3.46593e-08 -1.96949e-08 1.8068e-07)
(2.0285e-09 -2.19958e-08 1.72929e-07)
(-2.97706e-08 -2.07623e-08 1.78007e-07)
(-7.94822e-08 -2.23427e-08 1.51326e-07)
(9.79949e-08 -4.1975e-08 1.73728e-07)
(4.03239e-08 -4.20139e-08 2.01943e-07)
(2.46313e-09 -4.42197e-08 1.94099e-07)
(-3.45528e-08 -4.30197e-08 1.99176e-07)
(-8.84423e-08 -4.36628e-08 1.71041e-07)
(1.14668e-07 -8.77734e-08 1.95747e-07)
(4.96786e-08 -8.66662e-08 2.27554e-07)
(2.7905e-09 -8.65008e-08 2.20804e-07)
(-4.32091e-08 -8.72925e-08 2.24713e-07)
(-1.04296e-07 -8.8864e-08 1.92936e-07)
(1.12513e-07 -1.46863e-07 1.95596e-07)
(5.51565e-08 -1.56528e-07 2.05896e-07)
(3.05496e-09 -1.52851e-07 2.01689e-07)
(-4.81224e-08 -1.55784e-07 2.04057e-07)
(-1.02607e-07 -1.46384e-07 1.93285e-07)
(3.99345e-08 2.40254e-08 8.73861e-09)
(0 0 0)
(0 0 0)
(0 0 0)
(-3.68655e-08 2.28188e-08 8.58565e-09)
(8.70176e-08 3.79274e-08 2.99381e-08)
(2.0279e-08 2.03011e-08 3.40839e-08)
(2.26911e-10 1.35727e-08 3.37438e-08)
(-1.91767e-08 1.92705e-08 3.38491e-08)
(-8.02344e-08 3.55688e-08 2.9532e-08)
(9.58892e-08 1.79536e-08 5.14249e-08)
(2.69345e-08 1.16976e-08 5.69476e-08)
(7.262e-10 7.86785e-09 5.66577e-08)
(-2.47434e-08 1.05804e-08 5.66474e-08)
(-8.78773e-08 1.56935e-08 5.08964e-08)
(9.8001e-08 2.97755e-10 6.78782e-08)
(2.76501e-08 -1.49636e-09 7.35951e-08)
(1.26563e-09 -3.36749e-09 7.32414e-08)
(-2.43845e-08 -2.60126e-09 7.32812e-08)
(-8.8816e-08 -1.89426e-09 6.73138e-08)
(9.97154e-08 -1.45218e-08 8.24586e-08)
(2.76165e-08 -1.65283e-08 8.805e-08)
(1.79085e-09 -1.81299e-08 8.75192e-08)
(-2.32951e-08 -1.76051e-08 8.77196e-08)
(-8.93564e-08 -1.66582e-08 8.18526e-08)
(1.04869e-07 -2.88232e-08 9.73321e-08)
(2.95466e-08 -3.35496e-08 1.02733e-07)
(2.29392e-09 -3.57367e-08 1.01991e-07)
(-2.42067e-08 -3.4593e-08 1.02368e-07)
(-9.3368e-08 -3.08811e-08 9.66524e-08)
(1.16659e-07 -4.7307e-08 1.13449e-07)
(3.53387e-08 -5.50229e-08 1.18668e-07)
(2.75484e-09 -5.72789e-08 1.17808e-07)
(-2.90606e-08 -5.60041e-08 1.1825e-07)
(-1.04095e-07 -4.92148e-08 1.12661e-07)
(1.37163e-07 -8.77254e-08 1.28667e-07)
(4.4809e-08 -9.33867e-08 1.33819e-07)
(3.11476e-09 -9.31964e-08 1.33104e-07)
(-3.77641e-08 -9.40132e-08 1.33341e-07)
(-1.2365e-07 -8.90226e-08 1.27756e-07)
(1.15096e-07 -1.54948e-07 1.37556e-07)
(5.02237e-08 -1.87198e-07 1.39058e-07)
(3.33893e-09 -1.80981e-07 1.38373e-07)
(-4.2654e-08 -1.85432e-07 1.38575e-07)
(-1.03886e-07 -1.54044e-07 1.36708e-07)
(3.17735e-08 1.36431e-08 1.24791e-09)
(0 0 0)
(0 0 0)
(0 0 0)
(-2.876e-08 1.25639e-08 1.27302e-09)
(6.87953e-08 1.86621e-08 1.02015e-08)
(1.358e-08 5.58886e-09 1.57934e-08)
(2.81872e-10 2.76685e-11 1.71104e-08)
(-1.24031e-08 4.71206e-09 1.58137e-08)
(-6.21267e-08 1.65066e-08 1.02314e-08)
(7.51233e-08 2.12478e-09 2.59562e-08)
(1.81067e-08 -2.61083e-09 3.33634e-08)
(8.11376e-10 -5.83519e-09 3.5218e-08)
(-1.57958e-08 -3.64502e-09 3.33642e-08)
(-6.72231e-08 -3.27214e-11 2.59489e-08)
(7.63516e-08 -1.23859e-08 4.11253e-08)
(1.83796e-08 -1.37847e-08 4.89006e-08)
(1.3706e-09 -1.5457e-08 5.08926e-08)
(-1.49613e-08 -1.4859e-08 4.88886e-08)
(-6.72586e-08 -1.4551e-08 4.10866e-08)
(7.76882e-08 -2.5009e-08 5.48195e-08)
(1.8245e-08 -2.69068e-08 6.26006e-08)
(1.91314e-09 -2.84684e-08 6.45703e-08)
(-1.3738e-08 -2.798e-08 6.25732e-08)
(-6.73836e-08 -2.7162e-08 5.47414e-08)
(8.27346e-08 -3.68695e-08 6.77727e-08)
(2.01239e-08 -4.1635e-08 7.54792e-08)
(2.43452e-09 -4.38508e-08 7.7372e-08)
(-1.45588e-08 -4.26916e-08 7.54235e-08)
(-7.12253e-08 -3.89745e-08 6.7631e-08)
(9.50124e-08 -5.11542e-08 7.97795e-08)
(2.60176e-08 -5.90908e-08 8.73368e-08)
(2.91636e-09 -6.13883e-08 8.91517e-08)
(-1.94656e-08 -6.01033e-08 8.72415e-08)
(-8.23513e-08 -5.31417e-08 7.95514e-08)
(1.17221e-07 -8.44622e-08 8.80603e-08)
(3.58429e-08 -9.0199e-08 9.53921e-08)
(3.30069e-09 -8.98674e-08 9.71648e-08)
(-2.84662e-08 -9.0882e-08 9.52637e-08)
(-1.03507e-07 -8.58776e-08 8.77504e-08)
(9.89638e-08 -1.44879e-07 9.16925e-08)
(4.13815e-08 -1.73581e-07 9.44161e-08)
(3.55565e-09 -1.66274e-07 9.61383e-08)
(-3.34145e-08 -1.71868e-07 9.43085e-08)
(-8.74469e-08 -1.44079e-07 9.14353e-08)
(2.68338e-08 9.54854e-09 8.96467e-10)
(0 0 0)
(0 0 0)
(0 0 0)
(-2.39091e-08 8.51396e-09 9.26937e-10)
(5.77376e-08 1.02401e-08 7.33173e-09)
(9.34858e-09 1.06994e-10 1.09137e-08)
(2.82038e-10 -4.62476e-09 1.21657e-08)
(-8.19038e-09 -7.23506e-10 1.09452e-08)
(-5.12475e-08 8.16111e-09 7.40163e-09)
(6.26424e-08 -6.29687e-09 1.96094e-08)
(1.24672e-08 -1.00242e-08 2.43919e-08)
(8.16116e-10 -1.27905e-08 2.61479e-08)
(-1.01687e-08 -1.10232e-08 2.44213e-08)
(-5.49142e-08 -8.41076e-09 1.96793e-08)
(6.36463e-08 -1.99996e-08 3.28031e-08)
(1.25282e-08 -2.12201e-08 3.77748e-08)
(1.38604e-09 -2.27558e-08 3.96616e-08)
(-9.10197e-09 -2.22815e-08 3.77927e-08)
(-5.47049e-08 -2.21605e-08 3.28487e-08)
(6.50686e-08 -3.10572e-08 4.51061e-08)
(1.24519e-08 -3.30086e-08 4.99948e-08)
(1.94275e-09 -3.45738e-08 5.18754e-08)
(-7.90848e-09 -3.40899e-08 4.99959e-08)
(-5.48811e-08 -3.32413e-08 4.51137e-08)
(7.03203e-08 -4.04202e-08 5.60364e-08)
(1.44121e-08 -4.53062e-08 6.07993e-08)
(2.48026e-09 -4.75757e-08 6.26317e-08)
(-8.77584e-09 -4.63887e-08 6.07761e-08)
(-5.88744e-08 -4.25868e-08 5.599e-08)
(8.30016e-08 -5.1215e-08 6.47297e-08)
(2.04126e-08 -5.93057e-08 6.93747e-08)
(2.97982e-09 -6.16821e-08 7.11492e-08)
(-1.37483e-08 -6.03598e-08 6.93229e-08)
(-7.03285e-08 -5.32913e-08 6.46181e-08)
(1.05749e-07 -8.02837e-08 6.91898e-08)
(3.03476e-08 -8.62111e-08 7.37809e-08)
(3.38386e-09 -8.59965e-08 7.55181e-08)
(-2.28116e-08 -8.69469e-08 7.3711e-08)
(-9.1933e-08 -8.1806e-08 6.90247e-08)
(8.93446e-08 -1.37029e-07 7.02017e-08)
(3.60227e-08 -1.64375e-07 7.22091e-08)
(3.66336e-09 -1.57148e-07 7.40437e-08)
(-2.78435e-08 -1.62731e-07 7.21598e-08)
(-7.76491e-08 -1.36334e-07 7.00695e-08)
(2.42995e-08 7.99709e-09 1.21885e-09)
(0 0 0)
(0 0 0)
(0 0 0)
(-2.14443e-08 6.98652e-09 1.24037e-09)
(5.20998e-08 6.99674e-09 6.81381e-09)
(7.54652e-09 -1.7684e-09 8.51549e-09)
(2.72069e-10 -6.03929e-09 9.26078e-09)
(-6.42251e-09 -2.58532e-09 8.53884e-09)
(-4.5761e-08 4.95509e-09 6.87232e-09)
(5.64131e-08 -9.8207e-09 1.64891e-08)
(1.00841e-08 -1.3111e-08 1.8737e-08)
(8.00675e-10 -1.56282e-08 1.97782e-08)
(-7.83163e-09 -1.41004e-08 1.87643e-08)
(-4.88476e-08 -1.19194e-08 1.65617e-08)
(5.75322e-08 -2.34757e-08 2.70728e-08)
(1.01589e-08 -2.47092e-08 2.93334e-08)
(1.37366e-09 -2.61856e-08 3.04381e-08)
(-6.77158e-09 -2.57706e-08 2.93537e-08)
(-4.87438e-08 -2.56451e-08 2.71331e-08)
(5.92425e-08 -3.37229e-08 3.71102e-08)
(1.02462e-08 -3.58098e-08 3.92304e-08)
(1.93965e-09 -3.73999e-08 4.03116e-08)
(-5.72218e-09 -3.69038e-08 3.92369e-08)
(-4.91829e-08 -3.59394e-08 3.71415e-08)
(6.47807e-08 -4.15424e-08 4.56914e-08)
(1.23501e-08 -4.65496e-08 4.76733e-08)
(2.48987e-09 -4.88689e-08 4.87099e-08)
(-6.70598e-09 -4.76571e-08 4.76609e-08)
(-5.34224e-08 -4.37638e-08 4.56814e-08)
(7.76763e-08 -5.04712e-08 5.18745e-08)
(1.84093e-08 -5.86343e-08 5.3792e-08)
(3.00392e-09 -6.10903e-08 5.47901e-08)
(-1.17045e-08 -5.97232e-08 5.37595e-08)
(-6.50345e-08 -5.26198e-08 5.18175e-08)
(1.00418e-07 -7.75613e-08 5.45685e-08)
(2.82886e-08 -8.36602e-08 5.65458e-08)
(3.42363e-09 -8.36373e-08 5.75404e-08)
(-2.06757e-08 -8.44353e-08 5.65024e-08)
(-8.65663e-08 -7.91638e-08 5.44753e-08)
(8.50946e-08 -1.32214e-07 5.47062e-08)
(3.40507e-08 -1.58869e-07 5.56402e-08)
(3.72125e-09 -1.52023e-07 5.67699e-08)
(-2.57554e-08 -1.57273e-07 5.56123e-08)
(-7.33054e-08 -1.31596e-07 5.46312e-08)
(2.30402e-08 7.39131e-09 1.1998e-09)
(0 0 0)
(0 0 0)
(0 0 0)
(-2.02315e-08 6.39783e-09 1.21397e-09)
(4.93905e-08 5.83404e-09 5.74773e-09)
(6.95167e-09 -2.40914e-09 6.44333e-09)
(2.62946e-10 -6.45958e-09 6.8033e-09)
(-5.85582e-09 -3.21936e-09 6.45965e-09)
(-4.31572e-08 3.81783e-09 5.78964e-09)
(5.358e-08 -1.09724e-08 1.29817e-08)
(9.35466e-09 -1.41498e-08 1.38562e-08)
(7.84459e-10 -1.65615e-08 1.43499e-08)
(-7.1454e-09 -1.5137e-08 1.38777e-08)
(-4.61353e-08 -1.30633e-08 1.30394e-08)
(5.49129e-08 -2.45918e-08 2.0777e-08)
(9.53613e-09 -2.59178e-08 2.1587e-08)
(1.35665e-09 -2.73867e-08 2.20947e-08)
(-6.19272e-09 -2.69836e-08 2.16053e-08)
(-4.62437e-08 -2.67708e-08 2.08309e-08)
(5.69113e-08 -3.44785e-08 2.81848e-08)
(9.78801e-09 -3.66994e-08 2.88636e-08)
(1.92765e-09 -3.83213e-08 2.9341e-08)
(-5.29699e-09 -3.78054e-08 2.88726e-08)
(-4.69551e-08 -3.67214e-08 2.82204e-08)
(6.26813e-08 -4.16223e-08 3.43924e-08)
(1.20143e-08 -4.67135e-08 3.49654e-08)
(2.4867e-09 -4.90699e-08 3.54073e-08)
(-6.38419e-09 -4.78405e-08 3.49612e-08)
(-5.13987e-08 -4.38851e-08 3.43996e-08)
(7.56552e-08 -4.98333e-08 3.86672e-08)
(1.80883e-08 -5.80115e-08 3.92173e-08)
(3.01157e-09 -6.0521e-08 3.96386e-08)
(-1.13737e-08 -5.91255e-08 3.91996e-08)
(-6.30508e-08 -5.20339e-08 3.86424e-08)
(9.82254e-08 -7.60899e-08 4.0465e-08)
(2.78695e-08 -8.22804e-08 4.10997e-08)
(3.44304e-09 -8.23996e-08 4.15331e-08)
(-2.02203e-08 -8.30826e-08 4.10749e-08)
(-8.4365e-08 -7.77482e-08 4.04161e-08)
(8.35316e-08 -1.29483e-07 4.04442e-08)
(3.36629e-08 -1.55694e-07 4.07273e-08)
(3.75348e-09 -1.49166e-07 4.12605e-08)
(-2.53037e-08 -1.54128e-07 4.07131e-08)
(-7.16942e-08 -1.28915e-07 4.04045e-08)
(2.2399e-08 7.14562e-09 9.06841e-10)
(0 0 0)
(0 0 0)
(0 0 0)
(-1.96187e-08 6.16361e-09 9.15475e-10)
(4.80685e-08 5.45122e-09 4.08084e-09)
(6.78393e-09 -2.61139e-09 4.34972e-09)
(2.56425e-10 -6.56353e-09 4.50494e-09)
(-5.70716e-09 -3.4171e-09 4.36022e-09)
(-4.1901e-08 3.45259e-09 4.10741e-09)
(5.22941e-08 -1.11909e-08 8.88707e-09)
(9.20014e-09 -1.43738e-08 9.19361e-09)
(7.72161e-10 -1.67499e-08 9.39883e-09)
(-7.02212e-09 -1.536e-08 9.20832e-09)
(-4.49274e-08 -1.32758e-08 8.92569e-09)
(5.38122e-08 -2.4702e-08 1.39683e-08)
(9.48647e-09 -2.61206e-08 1.42075e-08)
(1.3424e-09 -2.76015e-08 1.44075e-08)
(-6.17762e-09 -2.71903e-08 1.42211e-08)
(-4.52224e-08 -2.68875e-08 1.40069e-08)
(5.60172e-08 -3.44363e-08 1.87749e-08)
(9.85657e-09 -3.67534e-08 1.89239e-08)
(1.91565e-09 -3.84022e-08 1.90994e-08)
(-5.395e-09 -3.78682e-08 1.89321e-08)
(-4.61319e-08 -3.66971e-08 1.88035e-08)
(6.19332e-08 -4.13765e-08 2.27663e-08)
(1.21605e-08 -4.65146e-08 2.28515e-08)
(2.48009e-09 -4.8894e-08 2.30043e-08)
(-6.54826e-09 -4.7655e-08 2.28516e-08)
(-5.07042e-08 -4.36669e-08 2.27778e-08)
(7.49213e-08 -4.94144e-08 2.54791e-08)
(1.82298e-08 -5.75817e-08 2.55612e-08)
(3.0122e-09 -6.01181e-08 2.57052e-08)
(-1.15174e-08 -5.87122e-08 2.5553e-08)
(-6.23461e-08 -5.1649e-08 2.5471e-08)
(9.73234e-08 -7.53427e-08 2.66449e-08)
(2.79288e-08 -8.15621e-08 2.67929e-08)
(3.45167e-09 -8.17579e-08 2.69499e-08)
(-2.0264e-08 -8.23817e-08 2.67805e-08)
(-8.3463e-08 -7.70369e-08 2.66219e-08)
(8.29787e-08 -1.27991e-07 2.66462e-08)
(3.372e-08 -1.53896e-07 2.66818e-08)
(3.77052e-09 -1.47555e-07 2.68945e-08)
(-2.53271e-08 -1.52349e-07 2.66757e-08)
(-7.11171e-08 -1.27455e-07 2.66276e-08)
(2.20854e-08 7.04633e-09 4.79074e-10)
(0 0 0)
(0 0 0)
(0 0 0)
(-1.93203e-08 6.07079e-09 4.83181e-10)
(4.74386e-08 5.34162e-09 2.10001e-09)
(6.73587e-09 -2.65837e-09 2.19456e-09)
(2.52606e-10 -6.569e-09 2.25141e-09)
(-5.66988e-09 -3.46135e-09 2.19973e-09)
(-4.13066e-08 3.35328e-09 2.11287e-09)
(5.17111e-08 -1.11456e-08 4.49417e-09)
(9.18175e-09 -1.43522e-08 4.59099e-09)
(7.64753e-10 -1.67189e-08 4.6631e-09)
(-7.022e-09 -1.53377e-08 4.59844e-09)
(-4.43874e-08 -1.32265e-08 4.51333e-09)
(5.3342e-08 -2.45532e-08 6.99222e-09)
(9.534e-09 -2.60313e-08 7.05123e-09)
(1.33339e-09 -2.75244e-08 7.11722e-09)
(-6.24631e-09 -2.71033e-08 7.05842e-09)
(-4.47968e-08 -2.67418e-08 7.01203e-09)
(5.56629e-08 -3.42249e-08 9.34401e-09)
(9.97017e-09 -3.65962e-08 9.35912e-09)
(1.90744e-09 -3.82618e-08 9.4122e-09)
(-5.52779e-09 -3.77162e-08 9.36393e-09)
(-4.58183e-08 -3.64957e-08 9.35957e-09)
(6.16539e-08 -4.11367e-08 1.12902e-08)
(1.2314e-08 -4.62966e-08 1.12766e-08)
(2.47468e-09 -4.86878e-08 1.13191e-08)
(-6.71486e-09 -4.74447e-08 1.12776e-08)
(-5.04565e-08 -4.34426e-08 1.12979e-08)
(7.46372e-08 -4.91775e-08 1.26121e-08)
(1.83759e-08 -5.73308e-08 1.26002e-08)
(3.01084e-09 -5.98778e-08 1.26399e-08)
(-1.16678e-08 -5.84704e-08 1.25973e-08)
(-6.20801e-08 -5.14313e-08 1.26105e-08)
(9.69305e-08 -7.49892e-08 1.31951e-08)
(2.80245e-08 -8.121e-08 1.32174e-08)
(3.45489e-09 -8.14389e-08 1.32645e-08)
(-2.0354e-08 -8.20392e-08 1.32125e-08)
(-8.30721e-08 -7.67035e-08 1.31864e-08)
(8.276e-08 -1.27246e-07 1.32117e-08)
(3.38042e-08 -1.52968e-07 1.3198e-08)
(3.77847e-09 -1.46714e-07 1.32684e-08)
(-2.53955e-08 -1.51431e-07 1.3196e-08)
(-7.08873e-08 -1.26727e-07 1.32047e-08)
(1.78992e-08 7.17744e-09 0)
(2.33002e-09 1.45159e-09 0)
(1.06713e-11 -8.97546e-10 0)
(-2.06723e-09 1.11393e-09 0)
(-1.57228e-08 6.14986e-09 0)
(3.01685e-08 3.19929e-09 0)
(6.72418e-09 -2.66338e-09 0)
(2.51356e-10 -6.56241e-09 0)
(-5.66168e-09 -3.46545e-09 0)
(-2.62969e-08 1.56218e-09 0)
(3.42534e-08 -1.16478e-08 0)
(9.18132e-09 -1.43233e-08 0)
(7.62299e-10 -1.66884e-08 0)
(-7.02754e-09 -1.53086e-08 0)
(-2.92069e-08 -1.34425e-08 0)
(3.531e-08 -2.46057e-08 0)
(9.55513e-09 -2.5972e-08 0)
(1.33034e-09 -2.74696e-08 0)
(-6.27449e-09 -2.70446e-08 0)
(-2.90944e-08 -2.65102e-08 0)
(3.67921e-08 -3.4626e-08 0)
(1.00121e-08 -3.6517e-08 0)
(1.90457e-09 -3.81881e-08 0)
(-5.57627e-09 -3.76386e-08 0)
(-2.93451e-08 -3.6607e-08 0)
(4.14852e-08 -4.25727e-08 0)
(1.23679e-08 -4.621e-08 0)
(2.47267e-09 -4.86046e-08 0)
(-6.77351e-09 -4.73605e-08 0)
(-3.27699e-08 -4.45923e-08 0)
(5.24042e-08 -5.20422e-08 0)
(1.84268e-08 -5.72475e-08 0)
(3.01012e-09 -5.9797e-08 0)
(-1.17206e-08 -5.83901e-08 0)
(-4.24326e-08 -5.40284e-08 0)
(7.08711e-08 -7.79777e-08 0)
(2.80587e-08 -8.11027e-08 0)
(3.45565e-09 -8.13405e-08 0)
(-2.03869e-08 -8.19351e-08 0)
(-5.97261e-08 -7.9464e-08 0)
(7.2947e-08 -1.18201e-07 0)
(3.36722e-08 -1.25652e-07 0)
(3.71273e-09 -1.21631e-07 0)
(-2.54148e-08 -1.25155e-07 0)
(-6.20585e-08 -1.18133e-07 0)
)
;

boundaryField
{
    interface
    {
        type            calculated;
    }
    symmetry
    {
        type            symmetry;
    }
    bottom
    {
        type            calculated;
    }
}


// ************************************************************************* //
