/*--------------------------------*- C++ -*----------------------------------*\
| =========                 |                                                 |
| \\      /  F ield         | OpenFOAM: The Open Source CFD Toolbox           |
|  \\    /   O peration     | Version:  v1912                                 |
|   \\  /    A nd           | Website:  www.openfoam.com                      |
|    \\/     M anipulation  |                                                 |
\*---------------------------------------------------------------------------*/
FoamFile
{
    version     2.0;
    format      ascii;
    class       pointVectorField;
    location    "0.89/solid";
    object      pointDD;
}
// * * * * * * * * * * * * * * * * * * * * * * * * * * * * * * * * * * * * * //

dimensions      [0 1 0 0 0 0 0];


internalField   nonuniform List<vector> 
405
(
(1.42978e-10 2.4881e-10 1.62427e-10)
(5.89258e-11 1.85714e-10 1.28855e-10)
(-6.43294e-12 1.64401e-10 1.20595e-10)
(-6.63766e-11 1.72374e-10 1.10457e-10)
(-1.23388e-10 2.2908e-10 1.339e-10)
(3.01495e-10 3.29525e-10 4.09087e-10)
(1.72581e-10 3.35225e-10 4.24853e-10)
(-2.10212e-11 2.95733e-10 4.0464e-10)
(-2.01429e-10 3.17125e-10 3.79905e-10)
(-2.81706e-10 3.1333e-10 3.51239e-10)
(4.09755e-10 1.89069e-10 6.97942e-10)
(2.38177e-10 2.13588e-10 7.13966e-10)
(-3.72718e-11 1.87825e-10 6.8567e-10)
(-2.96923e-10 2.12689e-10 6.55184e-10)
(-4.13665e-10 1.99596e-10 6.15346e-10)
(4.27274e-10 -6.44449e-12 9.25369e-10)
(2.41702e-10 3.38708e-11 9.37466e-10)
(-5.51699e-11 2.51358e-11 9.0026e-10)
(-3.35897e-10 4.89095e-11 8.68754e-10)
(-4.63335e-10 2.89872e-11 8.25988e-10)
(4.1989e-10 -2.04962e-10 1.12905e-09)
(2.26625e-10 -1.618e-10 1.13533e-09)
(-7.6938e-11 -1.62047e-10 1.0893e-09)
(-3.64087e-10 -1.32857e-10 1.05879e-09)
(-4.9642e-10 -1.47163e-10 1.01659e-09)
(4.28402e-10 -4.23854e-10 1.33293e-09)
(2.22256e-10 -3.8578e-10 1.33186e-09)
(-1.03301e-10 -3.81902e-10 1.27818e-09)
(-4.12068e-10 -3.43734e-10 1.24839e-09)
(-5.54552e-10 -3.44411e-10 1.20892e-09)
(4.76366e-10 -7.22338e-10 1.54479e-09)
(2.44484e-10 -6.88286e-10 1.53927e-09)
(-1.34942e-10 -6.75113e-10 1.48281e-09)
(-4.96816e-10 -6.32094e-10 1.44922e-09)
(-6.61727e-10 -6.19541e-10 1.40982e-09)
(5.44616e-10 -1.14167e-09 1.72964e-09)
(2.8058e-10 -1.10795e-09 1.72798e-09)
(-1.72643e-10 -1.07798e-09 1.67825e-09)
(-6.06501e-10 -1.03206e-09 1.63182e-09)
(-7.98707e-10 -1.00769e-09 1.58486e-09)
(5.667e-10 -1.4007e-09 1.81298e-09)
(2.96277e-10 -1.38221e-09 1.81003e-09)
(-1.94517e-10 -1.3377e-09 1.77122e-09)
(-6.64813e-10 -1.28296e-09 1.72187e-09)
(-8.77623e-10 -1.24347e-09 1.67489e-09)
(9.80833e-11 1.27693e-10 7.61015e-11)
(0 0 0)
(0 0 0)
(0 0 0)
(-6.57826e-11 1.18982e-10 6.49134e-11)
(2.72818e-10 1.9855e-10 2.85123e-10)
(0 0 0)
(0 0 0)
(0 0 0)
(-2.12748e-10 1.94079e-10 2.47789e-10)
(3.68362e-10 4.72086e-11 5.30777e-10)
(0 0 0)
(0 0 0)
(0 0 0)
(-3.23009e-10 6.87408e-11 4.68494e-10)
(3.83915e-10 -1.40956e-10 7.42678e-10)
(0 0 0)
(0 0 0)
(0 0 0)
(-3.63629e-10 -9.4353e-11 6.62946e-10)
(3.77615e-10 -3.27544e-10 9.37003e-10)
(0 0 0)
(0 0 0)
(0 0 0)
(-3.91866e-10 -2.57238e-10 8.43482e-10)
(3.881e-10 -5.26951e-10 1.12992e-09)
(0 0 0)
(0 0 0)
(0 0 0)
(-4.46619e-10 -4.33062e-10 1.02421e-09)
(4.4328e-10 -7.91054e-10 1.32386e-09)
(0 0 0)
(0 0 0)
(0 0 0)
(-5.55606e-10 -6.72011e-10 1.20685e-09)
(5.27311e-10 -1.16801e-09 1.48567e-09)
(0 0 0)
(0 0 0)
(0 0 0)
(-7.0224e-10 -1.01709e-09 1.35936e-09)
(5.39621e-10 -1.41066e-09 1.56517e-09)
(2.73769e-10 -1.40475e-09 1.57091e-09)
(-1.79213e-10 -1.34877e-09 1.54638e-09)
(-6.12944e-10 -1.29628e-09 1.50542e-09)
(-8.0375e-10 -1.24419e-09 1.45099e-09)
(6.19891e-11 6.38509e-11 2.92284e-11)
(0 0 0)
(0 0 0)
(0 0 0)
(-2.82309e-11 5.46101e-11 2.33803e-11)
(1.79644e-10 5.95605e-11 1.45176e-10)
(0 0 0)
(0 0 0)
(0 0 0)
(-1.11548e-10 5.34507e-11 1.2308e-10)
(2.48136e-10 -9.74514e-11 3.26267e-10)
(0 0 0)
(0 0 0)
(0 0 0)
(-1.85401e-10 -7.88358e-11 2.85542e-10)
(2.56276e-10 -2.7208e-10 5.10885e-10)
(0 0 0)
(0 0 0)
(0 0 0)
(-2.10808e-10 -2.29443e-10 4.55296e-10)
(2.4874e-10 -4.40141e-10 6.86579e-10)
(0 0 0)
(0 0 0)
(0 0 0)
(-2.31168e-10 -3.7433e-10 6.18602e-10)
(2.61935e-10 -6.10181e-10 8.52908e-10)
(0 0 0)
(0 0 0)
(0 0 0)
(-2.82726e-10 -5.21217e-10 7.73966e-10)
(3.28342e-10 -8.25441e-10 1.00262e-09)
(0 0 0)
(0 0 0)
(0 0 0)
(-3.97425e-10 -7.12185e-10 9.14034e-10)
(4.36287e-10 -1.14481e-09 1.1074e-09)
(0 0 0)
(0 0 0)
(0 0 0)
(-5.62374e-10 -1.00124e-09 1.01198e-09)
(4.63774e-10 -1.36497e-09 1.14572e-09)
(2.29339e-10 -1.35532e-09 1.15167e-09)
(-1.4942e-10 -1.29178e-09 1.14354e-09)
(-5.10356e-10 -1.25125e-09 1.10486e-09)
(-6.7367e-10 -1.20585e-09 1.06171e-09)
(3.61571e-11 3.13684e-11 1.65534e-11)
(0 0 0)
(0 0 0)
(0 0 0)
(-1.34478e-12 1.98887e-11 1.26652e-11)
(1.11157e-10 -1.06012e-11 9.51675e-11)
(0 0 0)
(0 0 0)
(0 0 0)
(-3.75984e-11 -2.20449e-11 8.02978e-11)
(1.59115e-10 -1.72312e-10 2.33919e-10)
(0 0 0)
(0 0 0)
(0 0 0)
(-8.41879e-11 -1.60305e-10 2.05701e-10)
(1.64332e-10 -3.4185e-10 3.88624e-10)
(0 0 0)
(0 0 0)
(0 0 0)
(-1.00158e-10 -3.06406e-10 3.48639e-10)
(1.59603e-10 -4.95223e-10 5.39713e-10)
(0 0 0)
(0 0 0)
(0 0 0)
(-1.17336e-10 -4.3684e-10 4.89259e-10)
(1.78064e-10 -6.3835e-10 6.76111e-10)
(0 0 0)
(0 0 0)
(0 0 0)
(-1.68717e-10 -5.56998e-10 6.16273e-10)
(2.52733e-10 -8.14269e-10 7.84131e-10)
(0 0 0)
(0 0 0)
(0 0 0)
(-2.86691e-10 -7.08968e-10 7.16331e-10)
(3.72113e-10 -1.09042e-09 8.41796e-10)
(0 0 0)
(0 0 0)
(0 0 0)
(-4.58423e-10 -9.5526e-10 7.68865e-10)
(4.05976e-10 -1.29406e-09 8.48965e-10)
(1.96605e-10 -1.28894e-09 8.51476e-10)
(-1.26361e-10 -1.22686e-09 8.51086e-10)
(-4.31801e-10 -1.18919e-09 8.16574e-10)
(-5.72091e-10 -1.14248e-09 7.85502e-10)
(2.36749e-11 1.7104e-11 1.56239e-11)
(0 0 0)
(0 0 0)
(0 0 0)
(1.19443e-11 3.76532e-12 1.29008e-11)
(7.85078e-11 -3.95067e-11 8.03853e-11)
(0 0 0)
(0 0 0)
(0 0 0)
(-1.18239e-12 -5.58092e-11 7.00814e-11)
(1.18044e-10 -2.01041e-10 1.8978e-10)
(0 0 0)
(0 0 0)
(0 0 0)
(-3.47683e-11 -1.95592e-10 1.70123e-10)
(1.24643e-10 -3.6702e-10 3.12581e-10)
(0 0 0)
(0 0 0)
(0 0 0)
(-4.7205e-11 -3.38906e-10 2.84192e-10)
(1.24905e-10 -5.104e-10 4.3306e-10)
(0 0 0)
(0 0 0)
(0 0 0)
(-6.45019e-11 -4.59608e-10 3.96473e-10)
(1.49116e-10 -6.36113e-10 5.37926e-10)
(0 0 0)
(0 0 0)
(0 0 0)
(-1.17038e-10 -5.62393e-10 4.93826e-10)
(2.28743e-10 -7.89528e-10 6.13116e-10)
(0 0 0)
(0 0 0)
(0 0 0)
(-2.35721e-10 -6.91807e-10 5.627e-10)
(3.51105e-10 -1.04251e-09 6.44353e-10)
(0 0 0)
(0 0 0)
(0 0 0)
(-4.06535e-10 -9.14763e-10 5.89999e-10)
(3.85579e-10 -1.23787e-09 6.38255e-10)
(1.88272e-10 -1.23982e-09 6.3479e-10)
(-1.08932e-10 -1.18289e-09 6.33989e-10)
(-3.885e-10 -1.14365e-09 6.09017e-10)
(-5.17784e-10 -1.09262e-09 5.91128e-10)
(1.87111e-11 1.19883e-11 1.42062e-11)
(0 0 0)
(0 0 0)
(0 0 0)
(1.74419e-11 -2.60721e-12 1.2363e-11)
(6.60949e-11 -4.82825e-11 6.62637e-11)
(0 0 0)
(0 0 0)
(0 0 0)
(1.36503e-11 -6.8104e-11 5.9333e-11)
(1.03949e-10 -2.0671e-10 1.48575e-10)
(0 0 0)
(0 0 0)
(0 0 0)
(-1.52545e-11 -2.06388e-10 1.35333e-10)
(1.13624e-10 -3.6859e-10 2.38989e-10)
(0 0 0)
(0 0 0)
(0 0 0)
(-2.73082e-11 -3.46481e-10 2.19666e-10)
(1.18721e-10 -5.05458e-10 3.26981e-10)
(0 0 0)
(0 0 0)
(0 0 0)
(-4.5796e-11 -4.61016e-10 3.01731e-10)
(1.47501e-10 -6.22073e-10 4.01613e-10)
(0 0 0)
(0 0 0)
(0 0 0)
(-9.93165e-11 -5.54726e-10 3.70805e-10)
(2.29721e-10 -7.65406e-10 4.51977e-10)
(0 0 0)
(0 0 0)
(0 0 0)
(-2.17207e-10 -6.73873e-10 4.1647e-10)
(3.51927e-10 -1.00809e-09 4.69817e-10)
(0 0 0)
(0 0 0)
(0 0 0)
(-3.84759e-10 -8.86195e-10 4.31387e-10)
(3.85953e-10 -1.1992e-09 4.61291e-10)
(1.93405e-10 -1.20596e-09 4.54496e-10)
(-9.62109e-11 -1.15354e-09 4.51785e-10)
(-3.68036e-10 -1.11251e-09 4.36328e-10)
(-4.93245e-10 -1.05881e-09 4.27987e-10)
(1.70069e-11 1.05459e-11 1.05953e-11)
(0 0 0)
(0 0 0)
(0 0 0)
(1.94679e-11 -4.83337e-12 9.4588e-12)
(6.22689e-11 -4.93282e-11 4.69645e-11)
(0 0 0)
(0 0 0)
(0 0 0)
(1.89415e-11 -7.14348e-11 4.26989e-11)
(1.00804e-10 -2.03898e-10 1.0193e-10)
(0 0 0)
(0 0 0)
(0 0 0)
(-8.77201e-12 -2.07072e-10 9.3767e-11)
(1.13348e-10 -3.61785e-10 1.60948e-10)
(0 0 0)
(0 0 0)
(0 0 0)
(-2.14325e-11 -3.43924e-10 1.48962e-10)
(1.22021e-10 -4.9454e-10 2.17749e-10)
(0 0 0)
(0 0 0)
(0 0 0)
(-4.1007e-11 -4.54691e-10 2.01947e-10)
(1.53842e-10 -6.07069e-10 2.65134e-10)
(0 0 0)
(0 0 0)
(0 0 0)
(-9.50327e-11 -5.44359e-10 2.4569e-10)
(2.37381e-10 -7.46789e-10 2.9615e-10)
(0 0 0)
(0 0 0)
(0 0 0)
(-2.11806e-10 -6.59722e-10 2.73596e-10)
(3.58813e-10 -9.8534e-10 3.06343e-10)
(0 0 0)
(0 0 0)
(0 0 0)
(-3.76336e-10 -8.67603e-10 2.81844e-10)
(3.92248e-10 -1.17426e-09 2.99724e-10)
(2.01249e-10 -1.18372e-09 2.93353e-10)
(-8.75693e-11 -1.13417e-09 2.90315e-10)
(-3.58477e-10 -1.09216e-09 2.8178e-10)
(-4.8259e-10 -1.0373e-09 2.78486e-10)
(1.64915e-11 1.02827e-11 5.59225e-12)
(0 0 0)
(0 0 0)
(0 0 0)
(2.01551e-11 -5.52407e-12 5.05132e-12)
(6.13269e-11 -4.84528e-11 2.42091e-11)
(0 0 0)
(0 0 0)
(0 0 0)
(2.06691e-11 -7.18329e-11 2.21791e-11)
(1.00724e-10 -2.00083e-10 5.16672e-11)
(0 0 0)
(0 0 0)
(0 0 0)
(-6.87721e-12 -2.05258e-10 4.77773e-11)
(1.15103e-10 -3.55138e-10 8.07086e-11)
(0 0 0)
(0 0 0)
(0 0 0)
(-2.0096e-11 -3.39768e-10 7.49761e-11)
(1.25862e-10 -4.85591e-10 1.08426e-10)
(0 0 0)
(0 0 0)
(0 0 0)
(-4.032e-11 -4.48477e-10 1.0083e-10)
(1.59367e-10 -5.96515e-10 1.31342e-10)
(0 0 0)
(0 0 0)
(0 0 0)
(-9.45304e-11 -5.36585e-10 1.21948e-10)
(2.4355e-10 -7.35228e-10 1.46152e-10)
(0 0 0)
(0 0 0)
(0 0 0)
(-2.10491e-10 -6.50839e-10 1.35212e-10)
(3.64412e-10 -9.72258e-10 1.50885e-10)
(0 0 0)
(0 0 0)
(0 0 0)
(-3.7309e-10 -8.57e-10 1.38972e-10)
(3.97398e-10 -1.16018e-09 1.47449e-10)
(2.06817e-10 -1.17094e-09 1.43818e-10)
(-8.25659e-11 -1.12287e-09 1.41954e-10)
(-3.53963e-10 -1.08051e-09 1.38192e-10)
(-4.77913e-10 -1.02523e-09 1.37119e-10)
(2.12589e-11 4.80213e-12 0)
(8.92086e-12 -9.65812e-12 0)
(5.72287e-13 -1.69162e-11 0)
(-3.38506e-12 -1.46202e-11 0)
(9.82615e-12 -1.15538e-11 0)
(5.72579e-11 -5.8526e-11 0)
(3.20381e-11 -8.2984e-11 0)
(4.33254e-12 -9.79266e-11 0)
(-1.30033e-11 -9.06498e-11 0)
(-1.43403e-12 -7.70394e-11 0)
(9.26972e-11 -2.03728e-10 0)
(5.21152e-11 -2.20884e-10 0)
(9.3178e-12 -2.3265e-10 0)
(-2.16972e-11 -2.21879e-10 0)
(-2.43846e-11 -2.07814e-10 0)
(1.05463e-10 -3.54801e-10 0)
(5.84605e-11 -3.65474e-10 0)
(1.02059e-11 -3.71561e-10 0)
(-2.65963e-11 -3.56957e-10 0)
(-3.58063e-11 -3.41353e-10 0)
(1.14876e-10 -4.8686e-10 0)
(6.12026e-11 -5.00711e-10 0)
(5.35067e-12 -5.05046e-10 0)
(-3.91712e-11 -4.81639e-10 0)
(-5.46955e-11 -4.54608e-10 0)
(1.46572e-10 -6.05744e-10 0)
(7.71239e-11 -6.31169e-10 0)
(-5.76284e-12 -6.35928e-10 0)
(-7.70505e-11 -6.00907e-10 0)
(-1.07341e-10 -5.53678e-10 0)
(2.25955e-10 -7.53533e-10 0)
(1.21459e-10 -7.85719e-10 0)
(-2.36495e-11 -7.8495e-10 0)
(-1.56182e-10 -7.43204e-10 0)
(-2.19281e-10 -6.80004e-10 0)
(3.37969e-10 -9.88383e-10 0)
(1.82683e-10 -1.00409e-09 0)
(-4.90234e-11 -9.84619e-10 0)
(-2.65748e-10 -9.45074e-10 0)
(-3.74905e-10 -8.86909e-10 0)
(3.86885e-10 -1.15336e-09 0)
(2.10973e-10 -1.15012e-09 0)
(-7.23035e-11 -1.11004e-09 0)
(-3.38252e-10 -1.07059e-09 0)
(-4.6977e-10 -1.02928e-09 0)
)
;

boundaryField
{
    interface
    {
        type            calculated;
    }
    symmetry
    {
        type            symmetry;
    }
    bottom
    {
        type            calculated;
    }
}


// ************************************************************************* //
