/*--------------------------------*- C++ -*----------------------------------*\
| =========                 |                                                 |
| \\      /  F ield         | OpenFOAM: The Open Source CFD Toolbox           |
|  \\    /   O peration     | Version:  v1912                                 |
|   \\  /    A nd           | Website:  www.openfoam.com                      |
|    \\/     M anipulation  |                                                 |
\*---------------------------------------------------------------------------*/
FoamFile
{
    version     2.0;
    format      ascii;
    class       volScalarField;
    location    "0.89/solid";
    object      sigmaHyd;
}
// * * * * * * * * * * * * * * * * * * * * * * * * * * * * * * * * * * * * * //

dimensions      [1 -1 -2 0 0 0 0];


internalField   nonuniform List<scalar> 
256
(
-717253
-389007
-381104
-670349
-1.09564e+06
-685941
-673930
-1.03527e+06
-1.14679e+06
-741696
-728998
-1.08451e+06
-1.16688e+06
-763187
-750197
-1.10339e+06
-1.20809e+06
-796142
-782913
-1.14338e+06
-1.30279e+06
-873657
-860100
-1.23668e+06
-1.53982e+06
-1.08569e+06
-1.07078e+06
-1.46973e+06
-2.11109e+06
-1.63004e+06
-1.60758e+06
-2.01998e+06
-385424
-137108
-135207
-356321
-635245
-306337
-301454
-595734
-678053
-356882
-351435
-637070
-695574
-379080
-373424
-653625
-725713
-403629
-397824
-682733
-798504
-458670
-452644
-754242
-1.00317e+06
-626949
-619673
-954960
-1.54082e+06
-1.08603e+06
-1.07097e+06
-1.47011e+06
-302230
-87588.5
-86319
-275707
-473800
-186785
-183105
-438352
-504947
-224383
-220205
-468158
-520133
-243543
-239152
-482340
-546249
-264227
-259672
-507314
-610589
-310227
-305423
-570156
-798948
-458366
-452270
-754237
-1.30415e+06
-873538
-859714
-1.23681e+06
-280232
-81452.3
-80251.4
-254517
-423410
-158038
-154570
-389249
-448248
-187848
-183909
-412805
-461748
-204133
-199975
-425258
-486153
-222673
-218332
-448420
-546888
-264810
-260191
-507487
-726173
-403242
-397295
-682235
-1.20846e+06
-794609
-780962
-1.14178e+06
-271591
-81061.9
-79897.5
-246368
-404943
-150180
-146806
-371515
-426995
-176040
-172210
-392325
-439303
-190222
-186172
-403566
-462571
-207184
-202940
-425529
-521216
-247152
-242611
-482397
-695061
-380536
-374643
-651542
-1.16329e+06
-759577
-745981
-1.09691e+06
-266499
-81041.9
-79905.7
-241580
-395961
-147206
-143896
-362985
-416814
-171130
-167374
-382623
-428338
-184004
-180027
-393072
-450779
-199886
-195709
-414171
-508088
-238551
-234068
-469636
-678665
-369167
-363315
-635414
-1.13833e+06
-741176
-727611
-1.07212e+06
-263226
-80921.7
-79802.7
-238479
-390915
-145821
-142549
-358199
-411229
-168828
-165116
-377314
-422284
-180978
-177046
-387290
-444186
-196213
-192080
-407831
-500695
-234141
-229695
-462459
-669416
-363243
-357418
-626322
-1.12405e+06
-731115
-717569
-1.05794e+06
-261578
-80804.9
-79693.8
-236909
-388520
-145224
-141971
-355920
-408612
-167863
-164172
-374823
-419447
-179696
-175786
-384578
-441087
-194634
-190521
-404848
-497224
-232228
-227799
-459088
-665100
-360646
-354834
-622078
-1.11737e+06
-726550
-713013
-1.05131e+06
)
;

boundaryField
{
    interface
    {
        type            zeroGradient;
    }
    symmetry
    {
        type            symmetry;
    }
    bottom
    {
        type            zeroGradient;
    }
}


// ************************************************************************* //
