/*--------------------------------*- C++ -*----------------------------------*\
| =========                 |                                                 |
| \\      /  F ield         | OpenFOAM: The Open Source CFD Toolbox           |
|  \\    /   O peration     | Version:  v1912                                 |
|   \\  /    A nd           | Website:  www.openfoam.com                      |
|    \\/     M anipulation  |                                                 |
\*---------------------------------------------------------------------------*/
FoamFile
{
    version     2.0;
    format      ascii;
    class       volSymmTensorField;
    location    "0.89/solid";
    object      sigma;
}
// * * * * * * * * * * * * * * * * * * * * * * * * * * * * * * * * * * * * * //

dimensions      [1 -1 -2 0 0 0 0];


internalField   nonuniform List<symmTensor> 
256
(
(-132350 35718.1 -12572.6 546532 41613.1 -139140)
(103579 -4590.89 -5421.26 357585 41245 -186917)
(105931 2303.3 5031.64 353341 41116.7 -181204)
(-100155 -35133.7 12285.1 532914 41221.3 -122156)
(-157594 1026.16 -19536 225289 7236.87 -157109)
(-9188.47 -5576.92 -9110.53 135635 8946.92 -227017)
(-4548.06 4815.79 8649.33 135088 9020.35 -220419)
(-122414 -1191.5 19130.5 224212 7362.04 -139033)
(-158294 -4884.09 -21228.1 213193 1222.7 -157238)
(-27977.8 -5595.49 -10107.2 91134.4 1453.19 -237666)
(-23306.4 5310.24 9705.03 91067.8 1502.9 -230863)
(-122903 4739.86 20819.9 212129 1309.63 -138940)
(-153890 -3488.37 -22155.7 231944 2377.89 -156331)
(-20021.7 -4407.88 -10603.4 75381 1765.77 -243062)
(-15393.6 4194.71 10241.3 75336.6 1773.87 -236126)
(-118075 3410.51 21757 230442 2367.84 -137767)
(-157432 -329.55 -23119.1 237363 6113.42 -162536)
(-18131.6 -2231.45 -11143.5 60520.3 5247.45 -254698)
(-13450.9 1997.52 10791.2 60453.9 5226.35 -247628)
(-120966 258.013 22725.9 235764 6026.12 -143617)
(-176097 5847.4 -23899.1 208430 13058.9 -179890)
(-38719.6 1769.44 -11622.5 27764.3 12530.1 -279510)
(-33956.8 -2147.18 11257.3 27813 12482.5 -272277)
(-138891 -5975.26 23507.8 207219 12899.4 -160501)
(-202107 16253.1 -23446.3 94385.4 23121.1 -200943)
(-72302.8 7776.2 -11444.3 -64333.1 24206.9 -309613)
(-67370.2 -8478.6 11046 -63202.7 24122.7 -302156)
(-163961 -16449.7 23053.8 96164.2 22874.9 -180919)
(-118780 20882.5 -20840.3 -116371 26769.4 -115997)
(63028.7 10238.2 -10222.6 -209454 29400.5 -208934)
(67630.3 -9818.44 9787.48 -202618 29311.2 -202163)
(-80898 -20493.5 20452.2 -97941.9 26536.4 -97774)
(-185782 21571 -10010.8 268742 8409.82 79981.7)
(-31098.9 -8529.06 -3428.84 64214.1 23834.3 -36784.5)
(-28612.4 7796.46 3736.28 61117.8 24170.4 -36908.6)
(-153981 -20418.7 10083.9 257617 9274.19 79723.6)
(-217366 -1644.27 -15717.5 96943.7 9861.07 5361.48)
(-138001 -6222.49 -6877.65 -38418.6 18080.2 -138539)
(-133043 6256.98 7276.19 -38657.4 18241.1 -136970)
(-182333 1758.36 15775.7 96238.1 10225.2 8353.54)
(-224511 -5168.23 -16673.9 75384.5 8254.73 -7532.07)
(-167244 -5345.62 -7581.46 -93418.3 10797.3 -171170)
(-162130 5392.26 8063.49 -92788.9 10875.3 -169359)
(-189045 5137.46 16741.6 75615.6 8401.62 -4465.34)
(-225923 -3661.45 -17005.4 73732.2 8675.31 -6901.91)
(-170484 -4166.26 -7693.6 -129309 8866.29 -183421)
(-165354 4122.72 8262.1 -128408 8881.66 -181579)
(-189909 3648.94 17098.6 74085.8 8656.63 -3957.74)
(-234710 -602.803 -17517.8 69289.6 13684.7 -10475.7)
(-178457 -2179.01 -7997.12 -156523 13070.9 -197835)
(-173250 2073.72 8610.06 -155568 13029.4 -195977)
(-197937 594.047 17630.8 69691.2 13507.6 -7551.78)
(-260250 5883.04 -17923.1 45050.2 21948 -26668.5)
(-209332 1796.42 -8335.07 -187667 21151.5 -226152)
(-204027 -2057.84 8945.84 -186630 21060.8 -224262)
(-222598 -5941.66 18047.2 45728.4 21629.3 -23645.2)
(-295375 17559.1 -17529.2 -44364.6 28305.6 -45516.1)
(-250671 8230.49 -8229.31 -253246 28097.4 -253838)
(-245199 -8862.13 8816.88 -251254 27974.4 -251865)
(-256649 -17697.5 17665.2 -40983 27903.2 -42190.5)
(-202437 23472.9 -16200.5 -201275 23251.2 94290.6)
(-72117.6 11450.9 -7767.35 -310004 24318.7 -63773.5)
(-67155.7 -11058.2 8412.87 -302441 24236.7 -62662.7)
(-164043 -23073.6 16389.9 -180937 23011.8 96002.4)
(-169217 11631 -4255.33 174824 17958 122119)
(-36093.5 -12938.8 -676.744 -10721.7 33192.6 -3893.86)
(-33593.1 12498.6 786.002 -13439 33318.5 -4614.33)
(-138353 -10406.8 4257.39 164533 18339.4 120132)
(-183357 -3265.13 -6545.49 67464.7 21458.1 92056.8)
(-105130 -7097.2 -1983.25 -66877.5 29288.8 -70209.6)
(-100363 7430.33 2096.59 -67202.7 29357 -69582)
(-149567 3493.32 6538.62 66435.5 21630.2 92444.9)
(-187630 -5010.81 -6574.42 63394.5 19960.9 75917.4)
(-126376 -5143.65 -2114.85 -101760 22428.1 -107654)
(-121471 5400.61 2237.66 -101272 22456.1 -106761)
(-153398 5060.64 6569.82 63227.6 19998.3 76425.6)
(-189269 -3577.01 -6337.76 67372.2 18935.4 70787.2)
(-129283 -4022.28 -1922.55 -128485 19171.7 -126788)
(-124359 4100.99 2083.19 -127688 19158 -125851)
(-154458 3613.29 6347.19 67422.1 18849.7 71193.5)
(-198096 -657.962 -6272.76 68750.6 21186.3 64790.7)
(-137321 -2241.74 -1884.85 -148682 20696.8 -145209)
(-132302 2197.73 2074.31 -147799 20638.5 -144260)
(-162447 680.955 6296.57 68901.8 20971.9 65150.3)
(-223594 5997.02 -6234.55 54543.7 24371.4 50156.2)
(-167379 1742.45 -1959.71 -169504 23638.7 -173347)
(-162232 -1989.52 2154.57 -168535 23544.5 -172372)
(-186905 -6034.26 6269.78 54949.9 24049.8 50575.1)
(-260365 17963.7 -6115.73 -24374.6 22836.3 42812.1)
(-208431 8333.67 -2030.02 -224277 22021.5 -189238)
(-203072 -8995.06 2231.87 -222357 21921.1 -188205)
(-222370 -18092.2 6170.55 -21296.6 22494.6 43446.9)
(-176406 23934.3 -6042.52 -180063 13573.9 209167)
(-37395.6 11624.8 -2018.16 -279617 13040.7 29227)
(-32553.5 -11262.1 2315.15 -272216 12992.5 29250.4)
(-138620 -23532.8 6160.11 -160202 13415.3 207850)
(-155017 7496.99 -1132.73 137995 21181.9 117399)
(-31414 -14445.3 633.711 -31117.4 30599.3 -3520.06)
(-28952.4 14001.5 -597.115 -33729.9 30647.9 -4209.19)
(-124895 -6315.71 1114.91 128001 21386.3 115449)
(-159750 -3644.15 -1510.97 51293.2 25615.6 109655)
(-80999.6 -7246.84 707.727 -76296.9 30362.8 -49443.2)
(-76343.2 7620.73 -699.114 -76617.8 30383.4 -48909.5)
(-126826 3888.66 1474.73 50207 25693 109743)
(-161775 -4562.53 -1159.37 57376.8 25447.9 94998.9)
(-96193.8 -4818.03 914.103 -98902 26803.7 -84688.2)
(-91402.6 5146.21 -928.999 -98459.1 26801.1 -83893.7)
(-128408 4644.46 1117 57069 25429 95196.7)
(-163371 -3217.01 -759.477 70003.2 24004.7 84712.6)
(-98144.7 -3759.19 1189.45 -114250 23906.2 -108422)
(-93327.4 3898.15 -1201.03 -113511 23877.2 -107560)
(-129396 3280.11 720.539 69897.3 23897.4 84871.6)
(-172243 -459.661 -494.253 78543.2 23206.1 75287.4)
(-105966 -2159.67 1349.52 -125966 22696 -130250)
(-101041 2144.43 -1348.9 -125134 22638.8 -129360)
(-137363 499.351 462.895 78550.4 23011.1 75433.3)
(-197407 6039.8 -364.333 69389 21399.4 63037.8)
(-135093 1649.85 1357.06 -141580 20839.1 -156109)
(-130014 -1903.04 -1346.54 -140648 20762.2 -155190)
(-161369 -6069.32 342.867 69665.2 21140.5 63230.7)
(-233915 17600.4 -468.433 -7127.48 15478.7 66717.4)
(-174841 7975.62 1185.49 -195218 14806.6 -161008)
(-169515 -8666.6 -1152.65 -193319 14735.5 -160051)
(-196387 -17726.4 466.85 -4163.53 15229.8 67042.1)
(-156281 23221.4 -732.397 -162172 7197.53 242059)
(-12917.6 11159.7 1132.19 -254275 6406.69 63244)
(-8098.92 -10812.9 -1010.84 -246954 6377.34 63120.5)
(-118832 -22816.5 783.025 -142581 7092.76 240232)
(-147389 6274.01 -142.995 121364 19305.3 107822)
(-30023.1 -14334.7 767.076 -37850.5 24007.3 -5874.29)
(-27605.7 13856.9 -750.315 -40430.4 24036.3 -6522.06)
(-117771 -5137.49 128.702 111532 19447.1 105984)
(-149316 -3462.67 69.3802 41348.7 23171 106255)
(-72685.9 -6968.81 1225.02 -80305.3 25397.9 -43169.4)
(-68112 7316.65 -1234.6 -80628.8 25407.3 -42633.4)
(-116959 3694.94 -100.721 40238.2 23225.7 106343)
(-150635 -4123.3 436.05 50928.2 24101.9 93859.4)
(-85385.5 -4498.15 1491.54 -97958 24542.4 -74627.5)
(-80676.8 4829.22 -1529.08 -97537.6 24532.9 -73845.9)
(-117835 4209.25 -476.599 50563.4 24078.7 94016.3)
(-152394 -2861.27 768.328 68351.5 22958.6 82098.6)
(-87021.8 -3518.16 1712.41 -106845 22643.4 -98957.7)
(-82280.7 3673.56 -1760.68 -106139 22614.8 -98101.9)
(-118965 2933.55 -811.185 68175.1 22867.2 82230.1)
(-161443 -252.838 1001.4 81085.9 20664.9 71723.3)
(-94885.1 -2059.22 1847.92 -113470 20216.2 -121280)
(-90026.3 2053.98 -1894.57 -112669 20170 -120388)
(-127063 300.096 -1041.51 81025.4 20514.2 71856.6)
(-186366 5997.92 1087.64 73831.1 16606.8 62294.4)
(-123454 1540.65 1853.94 -127211 16270.4 -144159)
(-118425 -1799.24 -1891.98 -126301 16214.4 -143236)
(-150746 -6023.38 -1120.63 74056.9 16419.6 62463.1)
(-222256 17097.5 929.685 -1702.35 10030.4 72460.5)
(-162124 7566.39 1696.02 -181240 9696.86 -142936)
(-156826 -8272.83 -1710.66 -179349 9648.86 -141986)
(-185033 -17221.1 -946.816 1227.02 9859.31 72707.8)
(-148261 22430.4 674.841 -153863 4016.78 247476)
(-6633.44 10675.3 1661.38 -241392 3491.62 77851.6)
(-1830.49 -10335.6 -1607.02 -234102 3472.94 77697.5)
(-111020 -22022.1 -653.864 -134387 3947.01 245480)
(-143119 6030.98 30.2314 113694 14996.6 101346)
(-30102.8 -13864.5 512.407 -40325.9 17123.7 -7324.28)
(-27716.7 13359.7 -502.855 -42890 17143.7 -7954.38)
(-113810 -4925.09 -38.6731 103971 15093.6 99575.3)
(-144591 -3193.94 263.652 36521.6 17642.3 100764)
(-70686.8 -6652.16 881.089 -81371.8 18519 -40983.8)
(-66169.5 6969.82 -889.491 -81705.6 18526.5 -40446.7)
(-112581 3412.33 -283.396 35389.5 17685.7 100875)
(-145895 -3810.49 518.31 47013.4 18728.3 90109.2)
(-82693.2 -4270.25 1074.69 -97158.9 18738.8 -69427)
(-78042.2 4584.69 -1105.19 -96759.4 18731.8 -68656.4)
(-113443 3891.3 -545.928 46605.8 18716 90255.4)
(-147856 -2619.37 730.437 66104.2 17973.1 79074.9)
(-84375.8 -3364.05 1209.97 -103451 17648.1 -92408.4)
(-79688.6 3515.82 -1253.28 -102770 17627.2 -91566.2)
(-114761 2691.9 -761.921 65879.5 17911.3 79182.5)
(-157032 -121.156 876.045 80424.4 15627.6 69564.4)
(-92323.6 -1999.04 1288.49 -107982 15311.8 -113558)
(-87512.6 1993.8 -1334.8 -107206 15279.7 -112678)
(-122954 170.691 -907.336 80319.6 15525.9 69670)
(-181744 5935.45 916.55 73811.6 11660.6 62438.7)
(-120516 1453.28 1285.23 -121146 11502.9 -134074)
(-115525 -1715.22 -1326.26 -120252 11465.8 -133163)
(-146375 -5958.62 -943.532 74006.4 11537.2 62568)
(-217106 16723.7 794.108 -658.519 6389.42 75496.3)
(-158449 7286.57 1183.68 -175041 6295.59 -130294)
(-153174 -7999.56 -1206.84 -173157 6264.9 -129361)
(-180066 -16844.9 -810.274 2251.41 6279.04 75675.1)
(-145205 21891.1 613.386 -149762 2370.4 247783)
(-6884.84 10359.7 1164.1 -234643 2116.87 85970.8)
(-2096.32 -10022.3 -1139.92 -227370 2105.28 85793.4)
(-108086 -21479.9 -604.376 -130344 2326.05 245675)
(-140628 6008.84 20.1602 110367 9418.08 97868.6)
(-30326.3 -13512.6 258.016 -41121.2 10314.1 -8128.16)
(-27958.3 12990.1 -252.664 -43675.6 10326.1 -8751.1)
(-111494 -4921.25 -24.3483 100715 9474.54 96135.3)
(-142169 -3011.28 146.361 34648.3 10884.5 97160.6)
(-70347.2 -6446.65 451.725 -81285.5 11186.5 -40345.6)
(-65862.8 6743.34 -456.259 -81627.4 11191.8 -39810.2)
(-110354 3220.28 -156.535 33503.7 10912.9 97290.9)
(-143598 -3629.93 281.104 45295.5 11612 87608.3)
(-82258.3 -4141.97 553.499 -96358.7 11524.8 -66959.7)
(-77641 4440.67 -571.469 -95974.6 11521.4 -66197.9)
(-111342 3705.28 -296.124 44859 11608.1 87753.3)
(-145703 -2485.48 390.941 64676 11176.3 77762.9)
(-84058.8 -3285.09 620.029 -101877 10958.4 -88437.2)
(-79403.4 3428.77 -647.168 -101214 10946.6 -87607.6)
(-112795 2555.76 -408.946 64419.4 11142.6 77854.2)
(-154933 -53.7441 464.095 79320.4 9568.84 69500)
(-92054.4 -1972.65 656.007 -105825 9392.93 -108216)
(-87271.8 1964.09 -686.503 -105064 9374.52 -107350)
(-121023 103.253 -482.671 79187.5 9511.55 69579.4)
(-179487 5889.42 480.293 72903.3 6906.06 63860.6)
(-120001 1400.76 651.517 -118834 6849.3 -127255)
(-115032 -1665.03 -679.549 -117951 6828.33 -126359)
(-144258 -5911.5 -496.719 73078.7 6836.68 63953.7)
(-214506 16506.9 411.142 -654.598 3640.63 77995.5)
(-157487 7136.66 600.716 -172314 3643.98 -122584)
(-152228 -7852.31 -618.161 -170436 3626.88 -121667)
(-177566 -16626.5 -421.451 2243.86 3578.99 78122.4)
(-143760 21592.2 305.701 -147531 1302.91 247971)
(-8070.83 10193.5 589.166 -230995 1206.72 90549.5)
(-3290.81 -9856.57 -579.495 -223730 1200.38 90353.7)
(-106705 -21179 -301.855 -128143 1278.37 245789)
(-139438 6010.47 3.79915 109164 3203.61 96404.9)
(-30417.9 -13349 75.74 -41287.3 3452.18 -8500.08)
(-28058 12817.9 -73.9785 -43836.7 3456.22 -9120.28)
(-110383 -4931.43 -5.05782 99547.2 3222.11 94688.8)
(-141055 -2929.91 39.8276 34096.8 3667.18 95539.3)
(-70292.4 -6356 132.279 -81037.7 3738.48 -40241.4)
(-65822.8 6642.37 -133.622 -81383.5 3740.42 -39707.4)
(-109328 3134.39 -42.9282 32947.4 3677 95679.2)
(-142563 -3551.55 80.3241 44736.3 3911.7 86522.8)
(-82220.4 -4088.1 162.376 -95867.5 3870.95 -66026.3)
(-77618.2 4378.24 -168.167 -95491.1 3870.01 -65269)
(-110395 3623.88 -85.0231 44285.9 3911.05 86669)
(-144735 -2428.39 113.504 64064 3766.94 77426.8)
(-84092.6 -3253.79 181.707 -101232 3692.63 -86638.5)
(-79451.4 3392.2 -190.743 -100577 3688.84 -85815.8)
(-111912 2497.01 -119.281 63791.5 3756.41 77510.6)
(-153980 -26.4064 135.261 78682.9 3206.95 69941.4)
(-92104.5 -1963.64 191.717 -105096 3151.71 -105607)
(-87334.6 1952.49 -202.115 -104343 3145.76 -104750)
(-120146 75.4822 -141.336 78536 3188.6 70006.7)
(-178453 5867.28 139.558 72312 2288.07 65010.7)
(-119929 1377.83 189.999 -118074 2275.62 -123954)
(-114971 -1643.43 -199.721 -117196 2268.86 -123067)
(-143285 -5888.99 -144.997 72478 2265.77 65083.9)
(-213307 16411.6 117.86 -748.113 1193.39 79480.7)
(-157207 7074.94 175.14 -171261 1203.94 -119018)
(-151953 -7791.61 -181.409 -169386 1198.46 -118111)
(-176412 -16530.4 -121.334 2144.83 1173.6 79580.4)
(-143076 21463.6 83.2529 -146497 420.924 248264)
(-8726.01 10125.1 171.079 -229350 398.065 92620.8)
(-3949.52 -9788.17 -168.569 -222089 396.046 92415)
(-106048 -21049.4 -82.174 -127122 413.072 246046)
)
;

boundaryField
{
    interface
    {
        type            calculated;
        value           nonuniform List<symmTensor> 
192
(
(-38.7128 0.344337 2.63384 961643 41613.1 275971)
(-40.3502 0.363445 4.28029 600662 7236.87 218264)
(-42.0587 0.130265 4.92111 591760 1222.7 221329)
(-43.23 -0.311371 5.12979 618405 2377.89 230130)
(-43.6772 -0.713147 5.11969 638841 6113.42 238943)
(-44.6928 -1.41385 5.0156 635939 13058.9 247619)
(-43.1868 -1.95266 4.65557 547220 23121.1 251891)
(-46.8511 -4.44086 4.38018 260232 26769.4 260606)
(-37.7563 0.248333 1.2905 696868 8409.82 508107)
(-38.4764 0.291413 2.24134 511534 9861.07 419952)
(-39.5189 0.0930769 2.54125 498931 8254.73 416015)
(-40.3076 -0.352107 2.58724 509059 8675.31 428425)
(-40.4645 -0.771816 2.51028 524220 13684.7 444455)
(-41.3405 -1.53979 2.38472 533718 21948 462000)
(-39.5354 -2.13355 2.15154 482095 28305.6 480944)
(-43.266 -4.73946 1.96941 252186 23251.2 547752)
(-40.2671 0.213072 1.00952 562476 17958 509772)
(-40.8949 0.255302 1.72871 441410 21458.1 466002)
(-41.9184 0.0656727 1.94991 445354 19960.9 457877)
(-42.7201 -0.396347 1.97789 461032 18935.4 464447)
(-42.8061 -0.849721 1.91249 482157 21186.3 478197)
(-43.6098 -1.69707 1.81046 502535 24371.4 498148)
(-41.374 -2.37307 1.6442 465004 22836.3 532191)
(-44.8601 -5.1463 1.5077 248718 13573.9 637948)
(-40.5 0.159813 0.610029 495373 21181.9 474778)
(-40.9475 0.178789 1.10479 392784 25615.6 451146)
(-41.758 -0.0131656 1.24962 405711 25447.9 443333)
(-42.43 -0.476341 1.25438 429787 24004.7 444496)
(-42.3871 -0.943051 1.19467 457995 23206.1 454739)
(-43.1048 -1.82263 1.11344 483391 21399.4 477040)
(-40.7101 -2.53432 1.00938 449050 15478.7 522895)
(-44.1115 -5.34351 0.930216 240878 7197.53 645108)
(-41.2718 0.133851 0.443193 460510 19305.3 446968)
(-41.6703 0.130228 0.80254 364146 23171 429053)
(-42.3842 -0.0720698 0.908943 380125 24101.9 423056)
(-42.9994 -0.541243 0.911996 408941 22958.6 422688)
(-42.8766 -1.02294 0.86777 441352 20664.9 431990)
(-43.5173 -1.93012 0.807352 468507 16606.8 456970)
(-40.954 -2.67425 0.735297 435102 10030.4 509264)
(-44.2038 -5.52129 0.679061 233677 4016.78 635015)
(-41.4854 0.113476 0.267867 441964 14996.6 429617)
(-41.8372 0.0906572 0.502249 348665 17642.3 412908)
(-42.4673 -0.12133 0.572482 365482 18728.3 408577)
(-43.0279 -0.594136 0.572892 395989 17973.1 408960)
(-42.8439 -1.08395 0.542039 429995 15627.6 419135)
(-43.4347 -2.00441 0.501159 457630 11660.6 446257)
(-40.7909 -2.76499 0.457222 425050 6389.42 501204)
(-43.9774 -5.62968 0.424873 228702 2370.4 626247)
(-41.7411 0.103435 0.156353 432374 9418.08 419876)
(-42.0772 0.0673508 0.292888 340796 10884.5 403308)
(-42.6629 -0.152569 0.33415 357790 11612 400103)
(-43.1932 -0.629066 0.334509 388616 11176.3 401703)
(-42.9715 -1.12518 0.316704 422938 9568.84 413117)
(-43.5257 -2.05483 0.292554 450637 6906.06 441594)
(-40.8194 -2.82698 0.267832 418756 3640.63 497406)
(-43.9492 -5.70526 0.248453 225679 1302.91 621182)
(-41.8063 0.0972933 0.0459206 428278 3203.61 415519)
(-42.1309 0.0543232 0.0893545 337492 3667.18 398935)
(-42.692 -0.169276 0.102679 354499 3911.7 396285)
(-43.2052 -0.646841 0.102607 385287 3766.94 398650)
(-42.9666 -1.1454 0.0967727 419573 3206.95 410832)
(-43.5032 -2.07824 0.0888586 447247 2288.07 439946)
(-40.7778 -2.85564 0.0815744 415748 1193.39 495977)
(-43.8788 -5.73937 0.0755408 224247 420.924 619008)
(296841 35718.1 -3.64316 975722 -0.889821 -13.4096)
(227498 1026.16 -6.22922 610381 -1.11341 -9.4629)
(230153 -4884.09 -7.36921 601639 -0.991794 -5.41521)
(244054 -3488.37 -7.84173 629888 -0.761671 -3.5872)
(256590 -329.55 -8.03143 651384 -0.657282 -2.99208)
(263291 5847.4 -8.18369 647818 -0.695953 -3.45167)
(260387 16253.1 -8.375 556879 -0.840821 -5.1757)
(265484 20882.5 -9.25128 267893 -1.04509 -6.60422)
(553958 -4590.89 -2.12206 807965 -0.531639 -17.0805)
(427799 -5576.92 -4.08438 572623 -0.868477 -16.2161)
(419654 -5595.49 -4.88184 538766 -0.821061 -14.8092)
(441117 -4407.88 -5.18189 536520 -0.559225 -14.2439)
(463556 -2231.45 -5.30553 542208 -0.369354 -14.0238)
(475846 1769.44 -5.46738 542330 -0.261479 -14.2051)
(476593 7776.2 -5.82271 484562 -0.279274 -14.7509)
(530678 10238.2 -6.96361 258195 -0.350324 -15.0239)
(545122 2303.3 -2.08123 792531 -0.391615 -14.3071)
(420904 4815.79 -4.05263 560540 -0.726489 -13.6621)
(412390 5310.24 -4.88009 526764 -0.706778 -12.337)
(433500 4194.71 -5.1975 524230 -0.417773 -11.7568)
(455734 1997.52 -5.32022 529638 -0.167881 -11.554)
(467837 -2147.18 -5.45811 529606 0.0414169 -11.7305)
(468448 -8478.6 -5.76629 472616 0.152069 -12.3424)
(523003 -9818.44 -6.87167 252755 0.17338 -13.067)
(296193 -35133.7 -2.2284 929263 -0.320901 -14.5052)
(230249 -1191.5 -4.53539 576875 -0.642677 -14.1465)
(232282 4739.86 -5.57735 567314 -0.625471 -12.9743)
(245828 3410.51 -5.99649 594345 -0.311066 -12.5029)
(258312 258.013 -6.1558 615043 -0.0306634 -12.4126)
(264996 -5975.26 -6.33524 611106 0.227743 -12.6013)
(262215 -16449.7 -6.61826 522341 0.412752 -13.0621)
(269456 -20493.5 -7.79324 252412 0.584563 -13.6573)
(-7.19228 0.696272 0.553396 888110 41221.3 233039)
(-4.86471 0.981563 1.13163 537623 7362.04 174377)
(-2.25193 0.800913 1.32876 527886 1309.63 176817)
(-0.798421 0.316472 1.43714 552977 2367.84 184768)
(-0.177919 0.036732 1.53143 572088 6026.12 192707)
(1.3617 -0.356771 1.78732 568321 12899.4 200601)
(1.02677 -0.331063 2.0128 481199 22874.9 204116)
(9.4259 -2.48797 2.62075 210647 26536.4 210815)
(-10.8756 0.277027 -0.323684 626649 9274.19 448756)
(-10.4418 0.453748 -0.356014 449801 10225.2 361917)
(-9.61139 0.382646 -0.450941 437115 8401.62 357034)
(-8.98405 0.107223 -0.470539 446104 8656.63 368060)
(-8.73081 0.031504 -0.412749 459889 13507.6 382646)
(-7.21581 -0.189532 -0.193168 468122 21629.3 398748)
(-7.19396 0.054556 0.0935396 417498 27903.2 416291)
(1.0615 -1.91158 0.529078 204271 23011.8 481211)
(-11.1466 0.153605 -0.207474 494927 18339.4 450525)
(-10.8396 0.250316 -0.155747 381393 21630.2 407403)
(-10.199 0.225306 -0.134599 385149 19998.3 398347)
(-9.5606 0.0603505 -0.0806383 399732 18849.7 403503)
(-9.23152 0.108314 0.0103906 419390 20971.9 415639)
(-7.39731 -0.0101702 0.196181 438187 24049.8 433812)
(-7.08627 0.345072 0.393871 401198 22494.6 465942)
(1.61384 -1.68085 0.649716 201125 13415.3 569176)
(-12.3888 0.0678987 -0.219291 429533 21386.3 416981)
(-12.2868 0.106208 -0.171934 334209 25693 393745)
(-11.9549 0.113621 -0.126211 346866 25429 384994)
(-11.4142 0.0424328 -0.0647041 369792 23897.4 384766)
(-11.0723 0.194394 0.0144753 396432 23011.1 393315)
(-9.03408 0.168393 0.147783 420051 21140.5 413616)
(-8.42101 0.594741 0.278322 385935 15229.8 457140)
(0.455735 -1.41658 0.433186 193529 7092.76 576342)
(-12.6748 0.0528759 -0.101955 395783 19447.1 390235)
(-12.5657 0.0709072 -0.0213132 306542 23225.7 372647)
(-12.2732 0.0964079 0.0536487 322220 24078.7 365673)
(-11.6908 0.072211 0.121368 349843 22867.2 363898)
(-11.2796 0.277067 0.186666 380611 20514.2 371442)
(-9.09769 0.292268 0.272137 405864 16419.6 394271)
(-8.3579 0.7361 0.339403 372491 9859.31 443972)
(0.599102 -1.30762 0.411515 186546 3947.01 566414)
(-13.0814 0.0478777 -0.0686013 377933 15093.6 373537)
(-12.9761 0.060118 -0.00414654 291649 17685.7 357135)
(-12.7109 0.0990493 0.0589675 308143 18716 351792)
(-12.1067 0.103804 0.110995 337428 17911.3 350731)
(-11.6509 0.341625 0.156516 369740 15525.9 359090)
(-9.37881 0.382098 0.209166 395398 11537.2 383960)
(-8.54655 0.83216 0.246433 362736 6279.04 436160)
(0.469732 -1.22746 0.284426 181700 2326.05 557719)
(-13.2021 0.0510844 -0.0249971 368749 9474.54 364170)
(-13.0815 0.0642528 0.0207342 284115 10912.9 347902)
(-12.8058 0.11078 0.0634379 300767 11608.1 343662)
(-12.1737 0.128739 0.0962485 330353 11142.6 343788)
(-11.6851 0.381509 0.122962 362952 9511.55 353344)
(-9.36282 0.431803 0.150381 388630 6836.68 379505)
(-8.49275 0.881165 0.167382 356604 3578.99 432483)
(0.551408 -1.19372 0.182405 178745 1278.37 552677)
(-13.3032 0.0518536 -0.011464 364840 3222.11 359981)
(-13.1799 0.0661349 0.00282146 280964 3677 343695)
(-12.9018 0.116705 0.0170347 297619 3911.05 340002)
(-12.2589 0.14108 0.027847 327157 3756.41 340876)
(-11.7541 0.400819 0.0367228 359707 3188.6 351177)
(-9.40822 0.456118 0.0455463 385339 2265.77 377945)
(-8.51192 0.905126 0.051421 353666 1173.6 431102)
(0.543439 -1.17558 0.056204 177339 413.072 550507)
(266304 9.35931 -20840.3 -5.95699 -0.881457 269086)
(261279 8.52437 -16200.5 -4.20908 -0.675589 558007)
(264733 8.40431 -6042.52 -1.80251 -0.465611 650306)
(260139 8.36668 -732.397 -0.356094 -0.309794 658478)
(252595 8.41096 674.841 0.769448 -0.219822 648332)
(246141 8.43912 613.386 1.55334 -0.137267 639129)
(241978 8.46845 305.701 2.05019 -0.0815934 633710)
(240028 8.4808 83.2529 2.28821 -0.0250517 631369)
(531472 7.03363 -10222.6 -14.5075 -0.150019 259509)
(477892 5.89829 -7767.35 -14.093 -0.0697171 486237)
(478691 5.55658 -2018.16 -13.1385 0.0337451 545313)
(470865 5.42131 1132.19 -12.4778 0.0600935 547026)
(457434 5.3844 1661.38 -11.9021 0.061438 541919)
(445430 5.36202 1164.1 -11.4876 0.0511103 538286)
(437465 5.35793 589.166 -11.2151 0.0317669 536085)
(433671 5.35484 171.079 -11.0729 0.0118245 535018)
(523687 6.94092 9787.48 -12.5842 0.395256 253893)
(469590 5.82365 8412.87 -11.7152 0.38912 474083)
(470463 5.5193 2315.15 -10.7028 0.371112 532267)
(462732 5.41138 -1010.84 -10.0503 0.303861 533952)
(449336 5.38782 -1607.02 -9.46655 0.240782 528864)
(437342 5.37328 -1139.92 -9.08431 0.169451 525232)
(429379 5.37263 -579.495 -8.81982 0.101363 523024)
(425587 5.3704 -168.569 -8.69918 0.0334231 521951)
(269918 7.82412 20452.2 -13.2308 0.812166 253042)
(262791 6.63419 16389.9 -12.5371 0.658637 522837)
(266152 6.34715 6160.11 -11.7866 0.560591 612621)
(261576 6.20356 783.025 -11.2655 0.441048 620641)
(253980 6.17078 -653.864 -10.7523 0.344378 610480)
(247479 6.14505 -604.376 -10.4375 0.238329 601240)
(243288 6.14076 -301.855 -10.2064 0.143359 595783)
(241326 6.13653 -82.174 -10.1027 0.0467788 593420)
)
;
    }
    symmetry
    {
        type            symmetry;
    }
    bottom
    {
        type            calculated;
        value           nonuniform List<symmTensor> 
32
(
(-724461 98768.9 -12572.6 243518 94956 -731250)
(-521661 64617.4 -10010.8 71342.9 -225.799 -255897)
(-436509 41168 -4255.33 10883.4 7786.95 -145173)
(-397721 31043.9 -1132.73 -10058.9 15262.8 -125305)
(-378346 27467.1 -142.995 -19060.3 16218.8 -123135)
(-367665 26230.9 30.2314 -22950.5 13448.7 -123200)
(-361644 25738.9 20.1602 -24320.9 8708.67 -123147)
(-358861 25540.4 3.79915 -24658.9 3000.06 -123018)
(-255656 -1210.14 -5421.26 159934 87320.3 -546152)
(-141386 -8410.74 -3428.84 -11942.4 17639.7 -147072)
(-94442.4 -15493.4 -676.744 -52621.8 26550.2 -62242.7)
(-77319.4 -17961.4 633.711 -58983.1 26964.6 -49425.4)
(-72126 -18004.3 767.076 -60784.9 22095.6 -47977.2)
(-70884.1 -17489.9 512.407 -61983.1 16134.2 -48105.6)
(-70600.9 -17090 258.016 -62566.7 9853.68 -48402.8)
(-70504.8 -16904 75.74 -62730.3 3320.26 -48587)
(-248395 -2580.87 5031.64 158304 86680.2 -535531)
(-137504 6384.5 3736.28 -14642.2 18061.2 -145800)
(-90929.9 13756.1 786.002 -55086.9 26734.9 -61951.2)
(-73930.2 16216.6 -597.115 -61405.8 27037.2 -49187)
(-68820.2 16230.3 -750.315 -63204.5 22135.3 -47736.6)
(-67630.4 15694.7 -502.855 -64397.2 16159.8 -47868.1)
(-67376.6 15281.3 -252.664 -64974.8 9868.69 -48169.4)
(-67293.7 15088.8 -73.9785 -65135.1 3325.23 -48356)
(-665159 -96808.8 12285.1 246417 93245.6 -687160)
(-473000 -61966.8 10083.9 69826.7 870.647 -239295)
(-390225 -38540.6 4257.39 9469.33 8331.29 -131740)
(-352712 -28547.2 1114.91 -11523.7 15543.4 -112368)
(-334160 -25066.4 128.702 -20552.6 16399.2 -110405)
(-323975 -23888.9 -38.6731 -24424.4 13567.2 -110590)
(-318234 -23430.2 -24.3483 -25769.8 8776.47 -110605)
(-315577 -23246.9 -5.05782 -26092.9 3022.13 -110505)
)
;
    }
}


// ************************************************************************* //
