/*--------------------------------*- C++ -*----------------------------------*\
| =========                 |                                                 |
| \\      /  F ield         | OpenFOAM: The Open Source CFD Toolbox           |
|  \\    /   O peration     | Version:  v1912                                 |
|   \\  /    A nd           | Website:  www.openfoam.com                      |
|    \\/     M anipulation  |                                                 |
\*---------------------------------------------------------------------------*/
FoamFile
{
    version     2.0;
    format      ascii;
    class       volVectorField;
    location    "0.91/fluid";
    object      U;
}
// * * * * * * * * * * * * * * * * * * * * * * * * * * * * * * * * * * * * * //

dimensions      [0 1 -1 0 0 0 0];


internalField   nonuniform List<vector> 
14592
(
(0.0877192 0.0173258 0.000580472)
(0.0718682 0.0119225 0.00103592)
(0.0559212 0.0076554 0.000966815)
(0.0464239 0.00391599 0.000470167)
(0.0402312 0.00187068 -0.000385418)
(0.0366537 0.000805043 -0.00149529)
(0.0344002 0.000327673 -0.00283239)
(0.0329017 0.000118984 -0.00442523)
(0.0316135 2.32558e-05 -0.0063645)
(0.0304582 -5.94829e-05 -0.00879636)
(0.0289622 -0.000176602 -0.0119644)
(0.0276106 -0.000433367 -0.0161595)
(0.0250171 -0.000821906 -0.0220363)
(0.0230715 -0.00171418 -0.0296077)
(0.0163804 -0.00213775 -0.0393346)
(0.00942509 -0.00494479 -0.0368591)
(0.103946 0.0182518 0.000824259)
(0.103253 0.0184414 0.00157878)
(0.0994123 0.015601 0.00165957)
(0.0946434 0.0111809 0.00105544)
(0.0900034 0.00752748 -0.000231736)
(0.0862376 0.0048748 -0.00209324)
(0.0831409 0.00322902 -0.00446741)
(0.0805279 0.00231547 -0.00736968)
(0.0779612 0.0018794 -0.0109246)
(0.0753153 0.00169401 -0.0153698)
(0.071942 0.00159532 -0.0210997)
(0.0681529 0.00138079 -0.0286227)
(0.0619784 0.000976676 -0.0388395)
(0.0550739 -0.000218394 -0.0516635)
(0.0394934 -0.00142739 -0.0661798)
(0.0229946 -0.00537896 -0.0599472)
(0.104003 0.0123085 0.000915579)
(0.108474 0.0172392 0.00179502)
(0.11147 0.0170621 0.00196042)
(0.111978 0.0141346 0.00138049)
(0.111149 0.0108814 4.14616e-05)
(0.109589 0.00808657 -0.00196745)
(0.107607 0.00613403 -0.00459035)
(0.105359 0.004982 -0.00784358)
(0.102693 0.00447521 -0.0118543)
(0.099585 0.00440769 -0.0168808)
(0.0954051 0.00459512 -0.0233501)
(0.09034 0.00480778 -0.0318559)
(0.0821732 0.00491973 -0.043368)
(0.0723635 0.00420541 -0.0580431)
(0.0516767 0.00273546 -0.0746768)
(0.0288732 -0.00227575 -0.0690326)
(0.102154 0.00791766 0.000954398)
(0.106989 0.013449 0.00189894)
(0.112177 0.0148622 0.00211237)
(0.11541 0.0137195 0.0015634)
(0.117116 0.0116687 0.000247114)
(0.117481 0.00960706 -0.00174765)
(0.116831 0.00806992 -0.00436742)
(0.115412 0.0072084 -0.00763211)
(0.113208 0.00701072 -0.0116686)
(0.110284 0.00737396 -0.0167417)
(0.10604 0.00818847 -0.0232814)
(0.100626 0.0092812 -0.0319282)
(0.091667 0.0105386 -0.0436779)
(0.0805078 0.01117 -0.0589106)
(0.057246 0.0104038 -0.0764625)
(0.0309073 0.00387857 -0.0720697)
(0.101102 0.00511549 0.000982439)
(0.105024 0.00987685 0.00197405)
(0.11017 0.0119112 0.00222912)
(0.114271 0.0120046 0.00171625)
(0.117217 0.0111111 0.000442852)
(0.118825 0.00997487 -0.00149299)
(0.119268 0.00911645 -0.00403145)
(0.11873 0.00878473 -0.00718971)
(0.117223 0.00907854 -0.0110875)
(0.11485 0.0100031 -0.0159868)
(0.111033 0.0115412 -0.022303)
(0.105926 0.0136075 -0.0307044)
(0.0970091 0.0161335 -0.0421731)
(0.0855378 0.0182506 -0.0573318)
(0.0608769 0.0184165 -0.0750638)
(0.0319622 0.00953572 -0.0720151)
(0.100621 0.0033787 0.00100909)
(0.103706 0.00699556 0.00204428)
(0.108291 0.00901014 0.00234555)
(0.112508 0.00976616 0.00188011)
(0.115998 0.00974481 0.000664966)
(0.11836 0.00946523 -0.00119017)
(0.119612 0.00934786 -0.00361484)
(0.119848 0.00966204 -0.00661807)
(0.119057 0.010575 -0.010306)
(0.11735 0.0121985 -0.0149306)
(0.114156 0.0146364 -0.0208801)
(0.109642 0.0179846 -0.0288397)
(0.101149 0.0223556 -0.0397462)
(0.0898824 0.0270682 -0.0545009)
(0.0643582 0.0300883 -0.0719979)
(0.0333235 0.0194384 -0.0706225)
(0.10044 0.00216363 0.00104064)
(0.103037 0.00467565 0.00212329)
(0.107181 0.0063905 0.00247918)
(0.111348 0.00742303 0.00207472)
(0.115101 0.00798889 0.000934157)
(0.117954 0.00840056 -0.000820349)
(0.119823 0.00895297 -0.0031038)
(0.120749 0.00988567 -0.00590947)
(0.120712 0.011389 -0.00931747)
(0.119855 0.0136489 -0.0135494)
(0.117669 0.0168572 -0.0189311)
(0.114416 0.0212811 -0.0261079)
(0.107444 0.0271738 -0.0358549)
(0.0980355 0.0341193 -0.0493062)
(0.0730975 0.0397407 -0.0650715)
(0.0410446 0.0270758 -0.0656174)
(0.100381 0.00117041 0.00107728)
(0.102783 0.00263532 0.00221237)
(0.106751 0.00390634 0.00262939)
(0.110935 0.00499031 0.00229553)
(0.114888 0.00594707 0.0012409)
(0.118095 0.00690871 -0.000401367)
(0.120436 0.00804152 -0.00253082)
(0.121927 0.00953084 -0.00512221)
(0.122561 0.0115663 -0.00822603)
(0.122507 0.0144034 -0.0120271)
(0.121334 0.0183392 -0.016784)
(0.119378 0.0239698 -0.0230876)
(0.114075 0.0319437 -0.0315489)
(0.106949 0.0436512 -0.0435602)
(0.083448 0.0577763 -0.0576395)
(0.0538847 0.062196 -0.0617945)
(0.0876875 0.0173288 0.000354312)
(0.071684 0.0119363 0.000619871)
(0.0554988 0.00766812 0.000504906)
(0.045788 0.00392245 5.87785e-05)
(0.0393963 0.00187451 -0.000685199)
(0.0356334 0.000808937 -0.00165964)
(0.0331751 0.000334524 -0.00285338)
(0.0314226 0.000129677 -0.00429122)
(0.029803 3.88498e-05 -0.00604918)
(0.0281963 -3.73431e-05 -0.00821657)
(0.0261306 -0.000139876 -0.0109768)
(0.0239623 -0.000364599 -0.0143782)
(0.0205484 -0.000680799 -0.0188239)
(0.0171342 -0.00142793 -0.0232581)
(0.0104848 -0.00181147 -0.0273482)
(0.00269198 -0.00363732 -0.0180672)
(0.103902 0.0182671 0.000503497)
(0.102994 0.0184817 0.000941124)
(0.0987979 0.0156534 0.000876544)
(0.0936461 0.0112317 0.000275571)
(0.0886081 0.00757689 -0.000884384)
(0.084444 0.0049294 -0.00254205)
(0.0809156 0.00330027 -0.00467019)
(0.0777908 0.00241344 -0.00729456)
(0.0745753 0.00201373 -0.0105263)
(0.071067 0.00187219 -0.0145288)
(0.0665798 0.00183173 -0.0195992)
(0.0612601 0.0016874 -0.0259133)
(0.0533813 0.00138005 -0.0339781)
(0.0439738 0.000294653 -0.0422747)
(0.0279363 -0.000980581 -0.0487395)
(0.0101223 -0.00440051 -0.0313924)
(0.103962 0.0123339 0.000567042)
(0.108209 0.017301 0.00108179)
(0.110832 0.0171531 0.00106104)
(0.110921 0.0142405 0.000456998)
(0.10964 0.0109994 -0.000765951)
(0.107613 0.00822414 -0.00256339)
(0.105119 0.00630814 -0.00491691)
(0.102271 0.00521233 -0.00785792)
(0.0988525 0.00478381 -0.011503)
(0.0947554 0.00481351 -0.0160365)
(0.0892895 0.00512447 -0.0217776)
(0.082471 0.0054705 -0.0289631)
(0.0722957 0.00573218 -0.0381158)
(0.0595907 0.0050952 -0.0477253)
(0.0381789 0.00346266 -0.055196)
(0.013901 -0.00178291 -0.0356448)
(0.102117 0.00794444 0.000600813)
(0.10673 0.0135164 0.00116248)
(0.111549 0.0149711 0.00117505)
(0.114367 0.0138618 0.000592829)
(0.115622 0.0118437 -0.00061262)
(0.115517 0.00982469 -0.00239716)
(0.114351 0.00835197 -0.00474582)
(0.112326 0.00758378 -0.00769409)
(0.109362 0.00751594 -0.0113587)
(0.10544 0.00804679 -0.0159308)
(0.0998885 0.00908022 -0.0217287)
(0.092686 0.0104239 -0.0290236)
(0.0816333 0.0119806 -0.0383357)
(0.0674475 0.0127915 -0.0482527)
(0.0433119 0.011905 -0.0560822)
(0.0153091 0.00441887 -0.0363434)
(0.101067 0.00514448 0.00063095)
(0.10477 0.00995031 0.00123454)
(0.109554 0.0120355 0.00128453)
(0.113252 0.0121788 0.000736738)
(0.115766 0.0113383 -0.00042691)
(0.116928 0.0102679 -0.00215428)
(0.116881 0.00950159 -0.0044257)
(0.11577 0.0092995 -0.00727367)
(0.113542 0.00977405 -0.0108078)
(0.11022 0.0109378 -0.0152174)
(0.105146 0.0127967 -0.0208055)
(0.0983113 0.0152475 -0.0278675)
(0.0873209 0.0182565 -0.0368991)
(0.072825 0.0207113 -0.0466558)
(0.0471425 0.0208734 -0.0544442)
(0.0162919 0.0103241 -0.0353048)
(0.100587 0.00341045 0.000660964)
(0.103456 0.00707575 0.00130777)
(0.107686 0.00914853 0.0014031)
(0.111516 0.00996761 0.000902477)
(0.114595 0.0100167 -0.000203454)
(0.116543 0.00982418 -0.00185284)
(0.117343 0.00982527 -0.00401679)
(0.117054 0.0103048 -0.00671968)
(0.1156 0.0114508 -0.0100582)
(0.113021 0.0133927 -0.0142139)
(0.108654 0.0162744 -0.0194645)
(0.102522 0.0201905 -0.0261253)
(0.0920278 0.025333 -0.0346477)
(0.0778278 0.0307211 -0.0440179)
(0.0511445 0.0341811 -0.0515661)
(0.0178712 0.021172 -0.033577)
(0.100407 0.00219957 0.000694899)
(0.102792 0.00476459 0.00138963)
(0.10659 0.00654334 0.00153911)
(0.110386 0.0076483 0.00109861)
(0.113755 0.00829744 6.58228e-05)
(0.116228 0.00881235 -0.00148745)
(0.117694 0.0095036 -0.00351901)
(0.118158 0.0106295 -0.00603866)
(0.117544 0.0124068 -0.00912046)
(0.115933 0.0150489 -0.0129235)
(0.112728 0.018801 -0.0176758)
(0.108084 0.0239476 -0.0236836)
(0.0993324 0.0308581 -0.0312878)
(0.0873564 0.0387836 -0.0397635)
(0.0611473 0.0452724 -0.04641)
(0.0266779 0.0295833 -0.0303368)
(0.100348 0.00121037 0.000732134)
(0.102545 0.00273211 0.00147888)
(0.106176 0.00407102 0.00168834)
(0.110006 0.00523328 0.00131664)
(0.113603 0.00628124 0.000367332)
(0.116467 0.0073568 -0.00107912)
(0.118455 0.00864213 -0.00296611)
(0.119552 0.0103439 -0.00528635)
(0.119699 0.0126833 -0.00808814)
(0.11902 0.0159549 -0.011503)
(0.116996 0.0205249 -0.0157047)
(0.113901 0.0270477 -0.0209815)
(0.107076 0.0363415 -0.0275582)
(0.0978467 0.0495484 -0.0350454)
(0.0730647 0.0654654 -0.0408271)
(0.0411615 0.066355 -0.0278134)
(0.0876633 0.0173316 0.000199619)
(0.0715429 0.0119479 0.00033481)
(0.0551664 0.00767925 0.000192795)
(0.0452677 0.00392883 -0.00020409)
(0.0386871 0.00187783 -0.000841653)
(0.0347366 0.000811696 -0.00167658)
(0.0320673 0.00033917 -0.00270804)
(0.0300534 0.000136517 -0.00395623)
(0.0280986 4.78551e-05 -0.00548343)
(0.0260329 -2.63671e-05 -0.00734188)
(0.0233941 -0.000124264 -0.00967501)
(0.0203986 -0.000335309 -0.0124418)
(0.0161838 -0.000625838 -0.0159428)
(0.0115554 -0.00129987 -0.0191104)
(0.00540015 -0.00178234 -0.0215852)
(-0.00100215 -0.00316979 -0.0141243)
(0.103868 0.0182822 0.000283764)
(0.102795 0.0185195 0.000504789)
(0.0983135 0.0157039 0.000348111)
(0.0928316 0.0112839 -0.000227763)
(0.0874298 0.00762899 -0.0012524)
(0.0828805 0.00498624 -0.0026925)
(0.0789242 0.00337186 -0.00454159)
(0.0752904 0.00250868 -0.00682758)
(0.0714408 0.00214156 -0.00964475)
(0.0670979 0.00203946 -0.0131021)
(0.0615634 0.00205032 -0.0174237)
(0.0548255 0.00196624 -0.0226364)
(0.0454914 0.00173073 -0.0290676)
(0.0342013 0.000720379 -0.0351299)
(0.0186745 -0.000687083 -0.0388302)
(0.00286447 -0.00391751 -0.0241936)
(0.103932 0.0123602 0.00032651)
(0.108007 0.017362 0.000591128)
(0.110332 0.0172435 0.000450134)
(0.110061 0.0143486 -0.000146615)
(0.108371 0.0111214 -0.00123892)
(0.105897 0.00836507 -0.00280828)
(0.102902 0.0064828 -0.00485716)
(0.099462 0.00543848 -0.00742149)
(0.095311 0.00508238 -0.0106022)
(0.0902617 0.00520273 -0.0145278)
(0.0835931 0.00562934 -0.019437)
(0.0751624 0.00609986 -0.0254028)
(0.0632717 0.00649679 -0.0327417)
(0.0483734 0.00592324 -0.039819)
(0.0273106 0.00412351 -0.0441006)
(0.00518776 -0.00142292 -0.0273288)
(0.102089 0.00797339 0.000354767)
(0.106534 0.0135857 0.000652155)
(0.111059 0.0150816 0.000532873)
(0.113523 0.014007 -4.94619e-05)
(0.114371 0.0120219 -0.00112891)
(0.113818 0.0100435 -0.0026879)
(0.112147 0.00863054 -0.00473201)
(0.109523 0.00794813 -0.00730174)
(0.10582 0.00800001 -0.0104988)
(0.100935 0.00868522 -0.0144588)
(0.0941551 0.00991999 -0.0194191)
(0.0853001 0.0114912 -0.025482)
(0.0724392 0.0133149 -0.0329543)
(0.0559228 0.0142804 -0.0402687)
(0.0319821 0.0132953 -0.0447662)
(0.00607872 0.00500997 -0.0277644)
(0.101041 0.00517579 0.000384017)
(0.10458 0.0100263 0.000717367)
(0.109077 0.0121615 0.000630114)
(0.112434 0.0123542 7.88632e-05)
(0.114557 0.0115654 -0.000962011)
(0.115292 0.0105575 -0.00246885)
(0.114764 0.00987702 -0.00444303)
(0.113084 0.00979485 -0.00692288)
(0.110151 0.0104367 -0.0100038)
(0.10591 0.011821 -0.0138212)
(0.0996471 0.0139752 -0.0185992)
(0.0912032 0.0167751 -0.0244641)
(0.0783989 0.0202201 -0.0317012)
(0.0615422 0.0229788 -0.0388864)
(0.0358902 0.0231918 -0.043353)
(0.0069464 0.011384 -0.0268816)
(0.100562 0.0034438 0.000414141)
(0.10327 0.00715725 0.000787754)
(0.107221 0.00928662 0.000742273)
(0.110724 0.0101666 0.000235219)
(0.113433 0.0102832 -0.000751892)
(0.114982 0.0101732 -0.00218726)
(0.115337 0.010285 -0.0040643)
(0.114524 0.0109181 -0.0064144)
(0.112418 0.0122803 -0.00932159)
(0.108988 0.0145159 -0.0129157)
(0.103506 0.0178057 -0.0174)
(0.0958568 0.0222362 -0.0229225)
(0.0835939 0.0280739 -0.029734)
(0.0670846 0.034068 -0.036614)
(0.0402632 0.0379993 -0.0409338)
(0.00861798 0.0233469 -0.0254805)
(0.100383 0.00223576 0.000447526)
(0.102611 0.00485245 0.000866517)
(0.10614 0.00669249 0.000871595)
(0.109622 0.00786635 0.000420514)
(0.112645 0.00859487 -0.000499188)
(0.114753 0.00920753 -0.00184688)
(0.115818 0.0100291 -0.00360506)
(0.115817 0.0113355 -0.00579274)
(0.114627 0.0133687 -0.00847495)
(0.112272 0.0163659 -0.0117656)
(0.108085 0.0206231 -0.0158292)
(0.102117 0.0264341 -0.0208195)
(0.0917631 0.0342809 -0.0269103)
(0.0777385 0.0431222 -0.0331524)
(0.0512011 0.0505457 -0.0369646)
(0.0179747 0.0329164 -0.0231803)
(0.100325 0.001249 0.000483037)
(0.102369 0.00282495 0.000950841)
(0.105741 0.00422819 0.00101175)
(0.109275 0.00546427 0.00062424)
(0.112549 0.00659884 -0.00021907)
(0.115083 0.00778198 -0.00146944)
(0.116716 0.0092108 -0.00309766)
(0.117412 0.0111122 -0.00510803)
(0.11707 0.013737 -0.00754391)
(0.115769 0.0174148 -0.0104987)
(0.112918 0.0225781 -0.0140941)
(0.10873 0.0299283 -0.0184815)
(0.100527 0.0404554 -0.0237532)
(0.0896218 0.0550825 -0.0292683)
(0.0643972 0.0729283 -0.0325987)
(0.0335825 0.072037 -0.0212987)
(0.0876451 0.0173342 9.86529e-05)
(0.0714353 0.0119576 0.000150503)
(0.0549081 0.00768896 1.96581e-06)
(0.0448545 0.00393477 -0.00033881)
(0.0381138 0.00188116 -0.000866975)
(0.0340041 0.00081508 -0.00155413)
(0.0311634 0.000345136 -0.00240292)
(0.0289523 0.00014627 -0.00342545)
(0.0267723 6.29768e-05 -0.00466369)
(0.0244328 -2.8381e-06 -0.00613236)
(0.0215245 -8.46076e-05 -0.0079142)
(0.0182037 -0.000259394 -0.00989342)
(0.0138756 -0.000482802 -0.0122094)
(0.00911983 -0.00099839 -0.0138955)
(0.00372085 -0.00137585 -0.0145005)
(-0.00136614 -0.00243994 -0.00852974)
(0.103843 0.0182962 0.000140199)
(0.102641 0.018553 0.000223227)
(0.0979352 0.0157494 2.40709e-05)
(0.092183 0.0113322 -0.000496588)
(0.0864736 0.00767825 -0.00136735)
(0.0815953 0.00504067 -0.00256899)
(0.0772802 0.00344031 -0.00410344)
(0.0732393 0.00259995 -0.00599192)
(0.0689218 0.00226584 -0.00830145)
(0.0640183 0.00220764 -0.0110846)
(0.0578824 0.00228228 -0.0144719)
(0.0504521 0.00229088 -0.0183653)
(0.0406906 0.00219662 -0.0228666)
(0.029096 0.00141138 -0.0264999)
(0.0148133 0.000181638 -0.0274187)
(0.00131487 -0.00285454 -0.0154504)
(0.103908 0.0123849 0.000167795)
(0.107852 0.0174179 0.000272171)
(0.109942 0.0173263 7.13869e-05)
(0.109378 0.0144489 -0.000479114)
(0.107342 0.0112354 -0.00141591)
(0.104486 0.00849685 -0.00273181)
(0.101068 0.00664509 -0.00443704)
(0.0971482 0.00564737 -0.00656114)
(0.0924442 0.00535831 -0.00917767)
(0.0867365 0.00556638 -0.0123555)
(0.0793466 0.00611255 -0.0162335)
(0.0700919 0.0067328 -0.0207431)
(0.0576305 0.00733107 -0.025955)
(0.0423243 0.00698278 -0.0303034)
(0.022579 0.00533847 -0.0314156)
(0.00317509 -0.00032372 -0.0175033)
(0.102068 0.00800127 0.000190482)
(0.106384 0.0136507 0.000316923)
(0.110679 0.0151844 0.000129342)
(0.112854 0.0141421 -0.00041249)
(0.11336 0.0121876 -0.00134047)
(0.112424 0.0102459 -0.00264863)
(0.110326 0.00888557 -0.00435025)
(0.107217 0.00827834 -0.00647927)
(0.102953 0.00843566 -0.00911032)
(0.0974027 0.00925841 -0.012319)
(0.0898864 0.0106763 -0.0162417)
(0.0801904 0.0124656 -0.0208317)
(0.0667221 0.0145654 -0.0261425)
(0.0497634 0.0157719 -0.0306407)
(0.0271079 0.0149079 -0.0318089)
(0.00399267 0.00612101 -0.0176013)
(0.101021 0.00520603 0.000216693)
(0.104435 0.010098 0.000372697)
(0.108709 0.0122789 0.000211284)
(0.111787 0.0125168 -0.000304258)
(0.113583 0.0117747 -0.0011987)
(0.113954 0.0108221 -0.00246179)
(0.11302 0.0102164 -0.00410358)
(0.11088 0.0102375 -0.00615653)
(0.107415 0.0110222 -0.00869025)
(0.102544 0.0125937 -0.0117808)
(0.0955804 0.0149969 -0.0155542)
(0.0863373 0.018091 -0.0199832)
(0.0729399 0.0219043 -0.0251026)
(0.0556518 0.0249528 -0.0294841)
(0.0312035 0.0253045 -0.0305977)
(0.00496312 0.0126779 -0.0167896)
(0.100544 0.00347558 0.000244372)
(0.10313 0.00723359 0.000435676)
(0.106865 0.0094143 0.0003105)
(0.1101 0.0103493 -0.000166412)
(0.112501 0.0105262 -0.00101358)
(0.113709 0.0104883 -0.00221474)
(0.113688 0.0106955 -0.00377341)
(0.112451 0.0114585 -0.00571661)
(0.109858 0.0130005 -0.00810477)
(0.105853 0.0154744 -0.0110106)
(0.0997264 0.0190859 -0.0145443)
(0.0913478 0.0239045 -0.0186988)
(0.0785287 0.0302402 -0.0234853)
(0.0616282 0.0366359 -0.0276347)
(0.035907 0.040827 -0.0286679)
(0.0067935 0.0250898 -0.0156744)
(0.100365 0.00226946 0.00027477)
(0.102476 0.00493339 0.000506397)
(0.105796 0.00682872 0.000425611)
(0.109025 0.00806432 -2.20322e-06)
(0.111758 0.00886297 -0.000790592)
(0.113553 0.00956052 -0.00191646)
(0.114278 0.0104934 -0.00337429)
(0.113901 0.0119509 -0.00518172)
(0.112282 0.0141931 -0.00738476)
(0.109429 0.0174705 -0.0100464)
(0.104683 0.0221098 -0.0132508)
(0.0980983 0.0283922 -0.0170057)
(0.0872627 0.0368552 -0.0212814)
(0.0729433 0.0462204 -0.0250333)
(0.0473509 0.0540546 -0.0258924)
(0.0163671 0.0351599 -0.0142441)
(0.100308 0.00128406 0.000306524)
(0.102239 0.0029089 0.000581336)
(0.105411 0.00436969 0.000549574)
(0.108705 0.00567129 0.00017744)
(0.111711 0.00688182 -0.000544642)
(0.113961 0.0081581 -0.0015872)
(0.115293 0.00970872 -0.00293489)
(0.115663 0.0117753 -0.00459416)
(0.114955 0.0146294 -0.00659461)
(0.113239 0.0186185 -0.00898646)
(0.109927 0.0242115 -0.0118253)
(0.105252 0.0321079 -0.0151298)
(0.0966645 0.0433646 -0.0188303)
(0.0855974 0.0586535 -0.0221398)
(0.0611884 0.077133 -0.0229008)
(0.0323419 0.0747751 -0.0131653)
(0.0876309 0.0173364 3.77924e-05)
(0.0713528 0.0119652 4.23461e-05)
(0.054708 0.00769656 -9.42572e-05)
(0.0445291 0.00393912 -0.000371019)
(0.0376551 0.00188319 -0.000787303)
(0.0334096 0.000816758 -0.00132523)
(0.030422 0.000348252 -0.00198883)
(0.0280428 0.000151425 -0.00278579)
(0.0256744 7.07187e-05 -0.00374511)
(0.0231101 8.663e-06 -0.00486692)
(0.0199873 -6.56262e-05 -0.00620321)
(0.0164217 -0.00022143 -0.00764215)
(0.0120266 -0.000410017 -0.00925929)
(0.00725921 -0.000836426 -0.0103381)
(0.00250005 -0.00115757 -0.0104836)
(-0.00154202 -0.00208872 -0.00619391)
(0.103823 0.0183079 5.36113e-05)
(0.102523 0.0185809 5.8812e-05)
(0.0976415 0.0157875 -0.000141092)
(0.0916722 0.011373 -0.000579147)
(0.0857096 0.00772013 -0.00127892)
(0.080555 0.00508687 -0.00222991)
(0.0759368 0.00349782 -0.00343751)
(0.0715534 0.00267583 -0.00491789)
(0.0668492 0.00236827 -0.00671884)
(0.0614936 0.00234517 -0.0088651)
(0.0548918 0.00247025 -0.0114359)
(0.0469569 0.00255086 -0.0143153)
(0.03694 0.00256412 -0.0175221)
(0.0252927 0.00193982 -0.0199231)
(0.0121258 0.000831501 -0.0200529)
(0.000530892 -0.00218159 -0.0112179)
(0.10389 0.0124062 7.05344e-05)
(0.107733 0.0174655 8.36043e-05)
(0.109639 0.0173968 -0.000126569)
(0.108839 0.0145347 -0.000595881)
(0.10652 0.0113334 -0.00135399)
(0.103345 0.00861029 -0.0023996)
(0.0995709 0.00678412 -0.00374509)
(0.0952468 0.00582523 -0.00541405)
(0.0900849 0.00559212 -0.00745996)
(0.0838444 0.00587349 -0.00992049)
(0.0758922 0.00651951 -0.0128795)
(0.0660323 0.00726459 -0.0162399)
(0.0532144 0.00803034 -0.0199869)
(0.0378057 0.0078644 -0.0229002)
(0.0192737 0.00633963 -0.0230803)
(0.00213346 0.00049692 -0.0127272)
(0.102052 0.00802586 8.78045e-05)
(0.10627 0.0137073 0.000115076)
(0.110386 0.0152732 -8.77593e-05)
(0.112329 0.0142589 -0.000552315)
(0.112554 0.0123308 -0.00130479)
(0.111298 0.0104203 -0.00234509)
(0.108841 0.00910419 -0.00368828)
(0.105323 0.00855964 -0.00536185)
(0.100594 0.00880469 -0.00742054)
(0.0945023 0.00974152 -0.00990793)
(0.0864089 0.0113107 -0.0129061)
(0.076091 0.0132793 -0.0163347)
(0.0622338 0.0156046 -0.0201634)
(0.0451477 0.017007 -0.0231908)
(0.0236874 0.0162439 -0.0233905)
(0.00290918 0.0070215 -0.0127954)
(0.101006 0.00523285 0.000109485)
(0.104325 0.0101607 0.000159734)
(0.108426 0.0123809 -2.28771e-05)
(0.111282 0.0126575 -0.000466502)
(0.112809 0.0119554 -0.00119186)
(0.112874 0.0110497 -0.00219571)
(0.111598 0.0105068 -0.00349092)
(0.109069 0.0106139 -0.00510407)
(0.105163 0.0115175 -0.00708623)
(0.0997793 0.0132437 -0.00948202)
(0.0922639 0.0158515 -0.0123661)
(0.0824279 0.0191855 -0.0156744)
(0.0686467 0.0232963 -0.0193636)
(0.0512321 0.0265803 -0.0223109)
(0.0279122 0.0270518 -0.0224812)
(0.00395533 0.0137849 -0.0121972)
(0.100529 0.00350365 0.000132813)
(0.103024 0.00730029 0.000211897)
(0.106592 0.00952501 5.87153e-05)
(0.109615 0.0105069 -0.000353333)
(0.111761 0.0107351 -0.00104006)
(0.112685 0.010758 -0.00199367)
(0.112346 0.0110452 -0.00322205)
(0.110752 0.0119164 -0.00474776)
(0.107752 0.0136073 -0.00661489)
(0.103278 0.016277 -0.00886617)
(0.0966434 0.0201502 -0.011565)
(0.0877238 0.0252807 -0.0146643)
(0.0745445 0.0320093 -0.0181067)
(0.0575383 0.0387213 -0.0208896)
(0.0328567 0.043116 -0.0210285)
(0.00589949 0.0265811 -0.0113713)
(0.100351 0.00229886 0.000158334)
(0.102374 0.0050035 0.00027072)
(0.105533 0.006946 0.000153914)
(0.108561 0.00823411 -0.000218005)
(0.111057 0.00909223 -0.000856851)
(0.11259 0.00986139 -0.00174966)
(0.113028 0.0108877 -0.00289747)
(0.11233 0.012471 -0.00431586)
(0.110352 0.0148864 -0.00603832)
(0.107089 0.0183939 -0.00810151)
(0.101901 0.0233439 -0.0105515)
(0.0948568 0.0300049 -0.0133559)
(0.0837082 0.0389532 -0.0164358)
(0.0693336 0.0487324 -0.0189566)
(0.044651 0.0568875 -0.019045)
(0.0156066 0.0371057 -0.0103871)
(0.100295 0.00131422 0.000184709)
(0.102141 0.00298082 0.000332694)
(0.10516 0.0044905 0.000256084)
(0.108265 0.00584772 -7.03953e-05)
(0.111051 0.00712251 -0.000655295)
(0.113064 0.00847721 -0.00148095)
(0.114139 0.01013 -0.00254074)
(0.114231 0.0123345 -0.00384188)
(0.113215 0.0153783 -0.00540573)
(0.111158 0.0196228 -0.00726058)
(0.10748 0.0255645 -0.00943315)
(0.102443 0.0338978 -0.0119032)
(0.0936119 0.0457261 -0.0145719)
(0.0825687 0.0615372 -0.0167963)
(0.0589524 0.0805117 -0.0168956)
(0.031818 0.0772443 -0.00962683)
(0.0876207 0.017338 6.86449e-06)
(0.0712935 0.0119711 -8.52531e-06)
(0.0545635 0.00770233 -0.000117288)
(0.0442919 0.00394261 -0.000321139)
(0.0373193 0.00188507 -0.000620615)
(0.0329744 0.000818656 -0.00100453)
(0.0298832 0.0003518 -0.00147581)
(0.0273918 0.000157575 -0.00203762)
(0.0249087 8.06611e-05 -0.00270625)
(0.0222217 2.45231e-05 -0.00347259)
(0.0190082 -3.92168e-05 -0.00436104)
(0.0153647 -0.000173757 -0.00527662)
(0.0110285 -0.000326153 -0.00624547)
(0.00638109 -0.00068158 -0.00678924)
(0.00200094 -0.000940258 -0.00660737)
(-0.00149103 -0.00181215 -0.00374177)
(0.103808 0.0183171 9.57889e-06)
(0.102438 0.0186025 -1.76525e-05)
(0.0974283 0.0158169 -0.000184315)
(0.0912982 0.011405 -0.000514829)
(0.0851472 0.00775339 -0.00102597)
(0.0797872 0.00512393 -0.00171158)
(0.0749479 0.00354423 -0.00257615)
(0.0703237 0.00273752 -0.00362915)
(0.0653631 0.00245249 -0.00489912)
(0.0597299 0.00246011 -0.00639079)
(0.0528779 0.00263025 -0.00814097)
(0.0447183 0.00277619 -0.0100403)
(0.0346847 0.00288733 -0.0120575)
(0.0232128 0.00240152 -0.0134099)
(0.0107899 0.00141103 -0.0130439)
(0.000336511 -0.00163287 -0.00701741)
(0.103877 0.0124231 1.92789e-05)
(0.107647 0.0175028 -6.9421e-06)
(0.109419 0.017452 -0.000185751)
(0.108445 0.0146021 -0.000542954)
(0.105915 0.0114108 -0.00109966)
(0.102502 0.00869999 -0.00185618)
(0.0984655 0.006894 -0.00282226)
(0.0938533 0.00596573 -0.00401307)
(0.088381 0.00577705 -0.00546151)
(0.0818033 0.00611748 -0.00718145)
(0.0735331 0.00684521 -0.00921176)
(0.0633834 0.00769526 -0.0114535)
(0.0504941 0.00860477 -0.0138455)
(0.0352565 0.00860098 -0.0155318)
(0.0175746 0.00719783 -0.0151403)
(0.00182833 0.00118469 -0.00801551)
(0.10204 0.00804551 3.13708e-05)
(0.106188 0.0137521 1.37213e-05)
(0.110173 0.0153433 -0.000161443)
(0.111945 0.014351 -0.000516391)
(0.11196 0.0124438 -0.00106983)
(0.110466 0.0105576 -0.00182308)
(0.107744 0.00927559 -0.00278802)
(0.103934 0.00877916 -0.00398289)
(0.0988888 0.00909148 -0.00544169)
(0.0924541 0.010116 -0.00718283)
(0.0840322 0.0118016 -0.00924385)
(0.0734149 0.01391 -0.011537)
(0.0594695 0.0164128 -0.0139887)
(0.0425486 0.0179778 -0.0157506)
(0.021937 0.0173127 -0.0153536)
(0.00260402 0.00775643 -0.00804042)
(0.100996 0.00525436 4.74934e-05)
(0.104247 0.0102107 4.62052e-05)
(0.108222 0.0124616 -0.000114654)
(0.110913 0.0127685 -0.000454471)
(0.11224 0.0120975 -0.000988041)
(0.112078 0.011228 -0.00171463)
(0.11055 0.0107329 -0.00264473)
(0.107745 0.0109051 -0.00379608)
(0.103538 0.0118978 -0.0052003)
(0.0978312 0.0137393 -0.00687686)
(0.0900058 0.0164982 -0.00885854)
(0.0798909 0.0200084 -0.0110692)
(0.0660264 0.0243356 -0.0134269)
(0.04878 0.0277952 -0.0151359)
(0.0262643 0.028359 -0.014722)
(0.00371396 0.0146307 -0.00762506)
(0.100519 0.00352609 6.50674e-05)
(0.102948 0.00735326 8.50666e-05)
(0.106395 0.00961247 -5.41895e-05)
(0.109261 0.0106309 -0.000370702)
(0.111219 0.0108987 -0.000875754)
(0.11193 0.0109683 -0.00156547)
(0.111358 0.0113158 -0.00244693)
(0.109509 0.0122677 -0.00353517)
(0.106235 0.014068 -0.00485705)
(0.101468 0.0168793 -0.00643115)
(0.0945538 0.0209379 -0.00828311)
(0.0853895 0.0262839 -0.0103493)
(0.0721415 0.0332751 -0.0125408)
(0.0553132 0.0401911 -0.0141435)
(0.0313745 0.0446965 -0.0137266)
(0.00573803 0.0276099 -0.00706924)
(0.100341 0.00232218 8.42605e-05)
(0.102301 0.00505887 0.000129038)
(0.105345 0.00703825 1.66969e-05)
(0.108224 0.00836712 -0.000270169)
(0.110544 0.00927101 -0.00074)
(0.111882 0.0100946 -0.00138533)
(0.112108 0.011191 -0.00220852)
(0.111183 0.0128673 -0.00321995)
(0.108962 0.0154082 -0.00443951)
(0.105446 0.019079 -0.00588256)
(0.100018 0.024243 -0.00756449)
(0.0927746 0.0311555 -0.0094342)
(0.0815775 0.0404107 -0.011394)
(0.0673941 0.0504347 -0.0128436)
(0.0433706 0.0587396 -0.0124463)
(0.0155183 0.038364 -0.00647476)
(0.100286 0.0013379 0.000103968)
(0.102072 0.00303721 0.000175208)
(0.104981 0.00458496 9.26703e-05)
(0.107946 0.00598519 -0.000160633)
(0.110569 0.00730927 -0.000590872)
(0.112404 0.0087234 -0.00118727)
(0.113291 0.0104525 -0.00194688)
(0.113184 0.0127579 -0.00287451)
(0.111961 0.0159378 -0.00398207)
(0.109694 0.0203603 -0.00528028)
(0.105821 0.0265358 -0.00677331)
(0.10064 0.0351483 -0.00842124)
(0.0917911 0.0473179 -0.0101205)
(0.0809624 0.0634097 -0.0114002)
(0.0579292 0.0825815 -0.0110782)
(0.0318409 0.078743 -0.00604469)
(0.0876138 0.017339 -3.69257e-06)
(0.0712544 0.0119749 -2.11056e-05)
(0.0544679 0.00770605 -9.03572e-05)
(0.0441341 0.00394476 -0.000215881)
(0.0370946 0.00188602 -0.000396821)
(0.0326813 0.000819439 -0.000627883)
(0.0295186 0.000353404 -0.000910783)
(0.0269502 0.000160492 -0.00124708)
(0.0243888 8.54216e-05 -0.00164565)
(0.0216195 3.21047e-05 -0.00209897)
(0.0183464 -2.64719e-05 -0.0026192)
(0.0146561 -0.000150126 -0.00314752)
(0.0103632 -0.000283854 -0.00369399)
(0.0058095 -0.000602933 -0.00398661)
(0.00168397 -0.000833472 -0.0038393)
(-0.00146673 -0.00167869 -0.00218385)
(0.103798 0.0183234 -5.91661e-06)
(0.102382 0.0186171 -3.45092e-05)
(0.0972872 0.0158369 -0.000144151)
(0.0910495 0.0114267 -0.000350163)
(0.0847708 0.00777605 -0.000662104)
(0.0792708 0.00514913 -0.00107721)
(0.0742801 0.00357567 -0.00159857)
(0.0694915 0.00277917 -0.00223169)
(0.0643575 0.00250917 -0.00299261)
(0.0585396 0.0025372 -0.00388111)
(0.0515257 0.00273708 -0.00491476)
(0.0432306 0.00292552 -0.00602288)
(0.0332041 0.00309932 -0.00717628)
(0.0218826 0.00269784 -0.00791866)
(0.00996428 0.00177251 -0.00761747)
(0.00023119 -0.00131143 -0.00409241)
(0.103868 0.0124347 -8.31225e-07)
(0.107591 0.0175284 -3.08418e-05)
(0.109274 0.0174898 -0.000149955)
(0.108183 0.0146484 -0.00037357)
(0.10551 0.011464 -0.000714497)
(0.101934 0.00876178 -0.0011735)
(0.0977188 0.00696961 -0.00175704)
(0.0929099 0.00606228 -0.00247418)
(0.0872271 0.00590398 -0.00334374)
(0.0804242 0.00628479 -0.004371)
(0.0719465 0.00706819 -0.00557453)
(0.0616188 0.00798941 -0.00688893)
(0.0487035 0.00899537 -0.00826587)
(0.0336196 0.00909711 -0.00920138)
(0.0165198 0.00776781 -0.00886974)
(0.00165538 0.00161913 -0.00468021)
(0.102032 0.00805917 6.24281e-06)
(0.106133 0.0137831 -1.90892e-05)
(0.110032 0.0153917 -0.000136714)
(0.11169 0.0144146 -0.000359397)
(0.111563 0.0125218 -0.000698697)
(0.109907 0.0106524 -0.00115594)
(0.107004 0.00939376 -0.00173899)
(0.102994 0.00893021 -0.00245884)
(0.0977335 0.00928843 -0.0033351)
(0.0910688 0.0103726 -0.00437589)
(0.0824316 0.0121373 -0.00559916)
(0.0716289 0.0143402 -0.00694611)
(0.0576454 0.016962 -0.00836091)
(0.0408746 0.0186343 -0.00934257)
(0.0208465 0.01803 -0.00900541)
(0.00243135 0.00823982 -0.00469825)
(0.100988 0.00526938 1.617e-05)
(0.104195 0.0102454 5.96372e-07)
(0.108087 0.0125175 -0.000108525)
(0.110668 0.0128453 -0.000322057)
(0.11186 0.0121958 -0.000649243)
(0.111543 0.0113512 -0.00109021)
(0.109843 0.0108888 -0.00165208)
(0.106847 0.0111054 -0.00234562)
(0.102437 0.0121589 -0.00318908)
(0.096513 0.0140788 -0.00419137)
(0.0884837 0.0169399 -0.00536787)
(0.0781957 0.020569 -0.00666679)
(0.0642948 0.0250409 -0.00802828)
(0.0471983 0.0286174 -0.00898144)
(0.0252363 0.02924 -0.00863916)
(0.00357951 0.0152002 -0.00446092)
(0.100512 0.00354176 2.70728e-05)
(0.102899 0.00739009 2.45473e-05)
(0.106266 0.00967308 -7.13401e-05)
(0.109027 0.0107167 -0.000270599)
(0.110857 0.0110117 -0.000580291)
(0.111424 0.0111133 -0.000998695)
(0.110692 0.0115021 -0.00153097)
(0.108668 0.012509 -0.00218624)
(0.105208 0.0143837 -0.00298003)
(0.100244 0.017291 -0.00392076)
(0.0931452 0.0214744 -0.00501988)
(0.0838293 0.0269647 -0.00623307)
(0.0705534 0.0341293 -0.00749746)
(0.0538788 0.0411801 -0.00838957)
(0.0304518 0.0457549 -0.00805142)
(0.0056541 0.0283059 -0.0041349)
(0.100335 0.0023384 3.89752e-05)
(0.102254 0.00509726 5.17009e-05)