/*--------------------------------*- C++ -*----------------------------------*\
| =========                 |                                                 |
| \\      /  F ield         | OpenFOAM: The Open Source CFD Toolbox           |
|  \\    /   O peration     | Version:  v1912                                 |
|   \\  /    A nd           | Website:  www.openfoam.com                      |
|    \\/     M anipulation  |                                                 |
\*---------------------------------------------------------------------------*/
FoamFile
{
    version     2.0;
    format      ascii;
    class       surfaceScalarField;
    location    "0.39/fluid";
    object      meshPhi;
}
// * * * * * * * * * * * * * * * * * * * * * * * * * * * * * * * * * * * * * //

dimensions      [0 3 -1 0 0 0 0];
oriented        oriented;


internalField   nonuniform List<scalar> 
41600
(
2.13597e-13
-5.72464e-13
2.12743e-13
-2.19626e-13
4.06892e-13
-1.66798e-12
6.26731e-13
-6.47317e-13
5.86687e-13
-2.68581e-12
1.03175e-12
-1.0666e-12
7.59006e-13
-3.66272e-12
1.45414e-12
-1.50515e-12
9.29454e-13
-4.62392e-12
1.91744e-12
-1.98781e-12
1.10373e-12
-5.58155e-12
2.4434e-12
-2.53789e-12
1.28836e-12
-6.53247e-12
3.0526e-12
-3.17797e-12
1.49204e-12
-7.45295e-12
3.76442e-12
-3.93014e-12
1.72843e-12
-8.28829e-12
4.59642e-12
-4.81602e-12
2.02258e-12
-8.9335e-12
5.56292e-12
-5.8568e-12
2.42534e-12
-9.19786e-12
6.6738e-12
-7.07531e-12
3.04644e-12
-8.73465e-12
7.93666e-12
-8.5066e-12
4.11964e-12
-6.89698e-12
9.36917e-12
-1.02322e-11
6.08293e-12
-2.49401e-12
1.10213e-11
-1.24592e-11
9.19506e-12
5.80061e-12
1.28902e-11
-1.5434e-11
2.03093e-11
1.6298e-11
-2.397e-11
6.36589e-13
-1.12782e-12
6.32749e-13
-6.53284e-13
1.21259e-12
-3.28684e-12
1.86393e-12
-1.92534e-12
1.74818e-12
-5.29466e-12
3.06809e-12
-3.17197e-12
2.26123e-12
-7.2247e-12
4.32328e-12
-4.47511e-12
2.76837e-12
-9.12855e-12
5.69925e-12
-5.90842e-12
3.28644e-12
-1.10341e-11
7.26055e-12
-7.54109e-12
3.83429e-12
-1.29412e-11
9.06818e-12
-9.43998e-12
4.43605e-12
-1.48133e-11
1.11795e-11
-1.16703e-11
5.12759e-12
-1.65613e-11
1.3646e-11
-1.4295e-11
5.97053e-12
-1.80158e-11
1.65077e-11
-1.73729e-11
7.08249e-12
-1.88851e-11
1.9785e-11
-2.09582e-11
8.70306e-12
-1.86974e-11
2.34736e-11
-2.51134e-11
1.13039e-11
-1.67523e-11
2.75472e-11
-2.99548e-11
1.56649e-11
-1.22234e-11
3.19607e-11
-3.57432e-11
2.19578e-11
-5.12068e-12
3.6458e-11
-4.25774e-11
3.12594e-12
4.00833e-11
-5.18651e-11
1.04721e-12
-1.64915e-12
1.03678e-12
-1.07055e-12
1.99451e-12
-4.80774e-12
3.05376e-12
-3.15468e-12
2.87484e-12
-7.74954e-12
5.02533e-12
-5.19583e-12
3.71737e-12
-1.05848e-11
7.07857e-12
-7.32729e-12
4.54939e-12
-1.33939e-11
9.32704e-12
-9.66908e-12
5.39819e-12
-1.62256e-11
1.18761e-11
-1.2334e-11
6.29352e-12
-1.90931e-11
1.48252e-11
-1.54311e-11
7.27111e-12
-2.19645e-11
1.82685e-11
-1.90665e-11
8.37891e-12
-2.47464e-11
2.22899e-11
-2.33417e-11
9.68874e-12
-2.72567e-11
2.69525e-11
-2.83466e-11
1.13208e-11
-2.91905e-11
3.22791e-11
-3.41486e-11
1.34929e-11
-3.00898e-11
3.82251e-11
-4.07838e-11
1.65815e-11
-2.9372e-11
4.46419e-11
-4.82543e-11
2.10982e-11
-2.6559e-11
5.12167e-11
-5.65181e-11
2.6803e-11
-2.20697e-11
5.72799e-11
-6.50558e-11
-1.70722e-11
6.20989e-11
-7.5833e-11
1.43767e-12
-2.11932e-12
1.41527e-12
-1.46144e-12
2.73764e-12
-6.18085e-12
4.16775e-12
-4.30566e-12
3.94472e-12
-9.97083e-12
6.85584e-12
-7.08848e-12
5.0986e-12
-1.36361e-11
9.65136e-12
-9.99014e-12
6.23659e-12
-1.72877e-11
1.27079e-11
-1.31729e-11
7.39587e-12
-2.10008e-11
1.6168e-11
-1.67896e-11
8.61608e-12
-2.48122e-11
2.01672e-11
-2.09879e-11
9.94226e-12
-2.87128e-11
2.48344e-11
-2.59128e-11
1.14282e-11
-3.2634e-11
3.02868e-11
-3.17029e-11
1.31404e-11
-3.64261e-11
3.6614e-11
-3.848e-11
1.51657e-11
-3.98288e-11
4.38504e-11
-4.63271e-11
1.76251e-11
-4.24429e-11
5.19278e-11
-5.52567e-11
2.06773e-11
-4.37352e-11
6.06007e-11
-6.51596e-11
2.44781e-11
-4.3167e-11
6.93283e-11
-7.57181e-11
2.86825e-11
-4.07369e-11
7.70637e-11
-8.59443e-11
-3.68459e-11
8.26007e-11
-9.72348e-11
1.80064e-12
-2.5216e-12
1.7598e-12
-1.81718e-12
3.42786e-12
-7.35729e-12
5.18088e-12
-5.35214e-12
4.93695e-12
-1.18795e-11
8.51753e-12
-8.80605e-12
6.37713e-12
-1.627e-11
1.19806e-11
-1.24001e-11
7.79489e-12
-2.06711e-11
1.57581e-11
-1.6333e-11
9.23678e-12
-2.51881e-11
2.00252e-11
-2.07922e-11
1.07523e-11
-2.98888e-11
2.4949e-11
-2.59596e-11
1.23963e-11
-3.48007e-11
3.06906e-11
-3.2015e-11
1.42307e-11
-3.99034e-11
3.74002e-11
-3.91338e-11
1.63218e-11
-4.51142e-11
4.52021e-11
-4.74754e-11
1.8735e-11
-5.02644e-11
5.41631e-11
-5.71583e-11
2.15187e-11
-5.50593e-11
6.42372e-11
-6.82165e-11
2.46571e-11
-5.90101e-11
7.51615e-11
-8.05136e-11
2.79963e-11
-6.13458e-11
8.62617e-11
-9.35746e-11
3.10135e-11
-6.12098e-11
9.60975e-11
-1.05962e-10
-5.76852e-11
1.02877e-10
-1.18419e-10
2.12964e-12
-2.84008e-12
2.06361e-12
-2.13072e-12
4.05254e-12
-8.29049e-12
6.07297e-12
-6.27312e-12
5.83281e-12
-1.33995e-11
9.9764e-12
-1.03132e-11
7.52766e-12
-1.83805e-11
1.40166e-11
-1.45056e-11
9.19156e-12
-2.34051e-11
1.84095e-11
-1.90785e-11
1.08796e-11
-2.86085e-11
2.3356e-11
-2.42468e-11
1.26512e-11
-3.40927e-11
2.90486e-11
-3.02196e-11
1.45735e-11
-3.99281e-11
3.56751e-11
-3.72055e-11
1.67232e-11
-4.61541e-11
4.34161e-11
-4.54131e-11
1.91865e-11
-5.27765e-11
5.24342e-11
-5.50434e-11
2.20544e-11
-5.97594e-11
6.28491e-11
-6.62722e-11
2.54051e-11
-6.70005e-11
7.46912e-11
-7.92166e-11
2.92425e-11
-7.42529e-11
8.77986e-11
-9.38521e-11
3.33654e-11
-8.0909e-11
1.01571e-10
-1.09799e-10
3.69767e-11
-8.56373e-11
1.14356e-10
-1.25388e-10
-8.44468e-11
1.23792e-10
-1.40839e-10
2.41919e-12
-3.06054e-12
2.32177e-12
-2.39696e-12
4.60112e-12
-8.93865e-12
6.82941e-12
-7.0535e-12
6.61654e-12
-1.44623e-11
1.1208e-11
-1.15847e-11
8.52867e-12
-1.98705e-11
1.57239e-11
-1.627e-11
1.0398e-11
-2.53594e-11
2.06131e-11
-2.13589e-11
1.22866e-11
-3.10904e-11
2.60942e-11
-2.70848e-11
1.42622e-11
-3.71961e-11
3.23764e-11
-3.36747e-11
1.64042e-11
-4.37864e-11
3.96648e-11
-4.13561e-11
1.88084e-11
-5.09562e-11
4.81609e-11
-5.03602e-11
2.15952e-11
-5.8795e-11
5.80581e-11
-6.09216e-11
2.49205e-11
-6.74014e-11
6.95291e-11
-7.32751e-11
2.89901e-11
-7.69042e-11
8.27034e-11
-8.76496e-11
3.40558e-11
-8.74789e-11
9.76047e-11
-1.04236e-10
4.03283e-11
-9.92863e-11
1.13936e-10
-1.23034e-10
4.71147e-11
-1.11736e-10
1.3022e-10
-1.42622e-10
-1.24361e-10
1.43844e-10
-1.64283e-10
2.66523e-12
2.53146e-12
-2.61302e-12
-3.17128e-12
5.06594e-12
7.44205e-12
-7.68498e-12
-9.26754e-12
7.27688e-12
1.21992e-11
-1.26071e-11
-1.50116e-11
9.36475e-12
1.70841e-11
-1.76744e-11
-2.06597e-11
1.13934e-11
2.23442e-11
-2.31484e-11
-2.64251e-11
1.34286e-11
2.82065e-11
-2.92715e-11
-3.2488e-11
1.5543e-11
3.48864e-11
-3.6277e-11
-3.9003e-11
1.7823e-11
4.25933e-11
-4.43972e-11
-4.61074e-11
2.03774e-11
5.1533e-11
-5.38679e-11
-5.39315e-11
2.33511e-11
6.19066e-11
-6.49323e-11
-6.26125e-11
2.69504e-11
7.39067e-11
-7.78476e-11
-7.23157e-11
3.14833e-11
8.7713e-11
-9.29e-11
-8.32697e-11
3.74091e-11
1.03467e-10
-1.10418e-10
-9.58143e-11
4.53217e-11
1.21131e-10
-1.30717e-10
-1.10412e-10
5.46518e-11
1.39454e-10
-1.52689e-10
-1.266e-10
1.57416e-10
-1.81654e-10
-1.49698e-10
2.11508e-13
-5.83555e-13
1.98043e-13
4.02326e-13
-1.70035e-12
5.83207e-13
5.78653e-13
-2.73819e-12
9.59372e-13
7.45788e-13
-3.73499e-12
1.35057e-12
9.08327e-13
-4.71727e-12
1.77807e-12
1.0704e-12
-5.69876e-12
2.26115e-12
1.23602e-12
-6.67848e-12
2.81734e-12
1.40977e-12
-7.6365e-12
3.46202e-12
1.59837e-12
-8.52575e-12
4.20692e-12
1.81458e-12
-9.25725e-12
5.05658e-12
2.0866e-12
-9.67526e-12
6.00215e-12
2.47864e-12
-9.51246e-12
7.01065e-12
3.1254e-12
-8.3082e-12
8.00451e-12
4.2476e-12
-5.30954e-12
8.81657e-12
5.88301e-12
1.43699e-13
9.13112e-12
7.64475e-12
8.12157e-12
6.30538e-13
-1.14943e-12
5.88994e-13
1.19936e-12
-3.34987e-12
1.73438e-12
1.72494e-12
-5.3967e-12
2.8527e-12
2.22305e-12
-7.36567e-12
4.01523e-12
2.70743e-12
-9.31081e-12
5.28502e-12
3.19039e-12
-1.12627e-11
6.71922e-12
3.68365e-12
-1.32248e-11
8.36988e-12
4.19972e-12
-1.51671e-11
1.02828e-11
4.75504e-12
-1.70127e-11
1.24927e-11
5.37765e-12
-1.86177e-11
1.50127e-11
6.12575e-12
-1.97438e-11
1.78146e-11
7.12675e-12
-2.00314e-11
2.07948e-11
8.63332e-12
-1.90078e-11
2.37128e-11
1.10118e-11
-1.626e-11
2.60777e-11
1.41812e-11
-1.21319e-11
2.70816e-11
-9.23581e-12
2.45066e-11
1.03785e-12
-1.68039e-12
9.65045e-13
1.97405e-12
-4.89886e-12
2.84138e-12
2.83893e-12
-7.89714e-12
4.67237e-12
3.65849e-12
-1.07889e-11
6.57421e-12
4.45551e-12
-1.36575e-11
8.6495e-12
5.25048e-12
-1.65554e-11
1.09915e-11
6.06235e-12
-1.94996e-11
1.36854e-11
6.90958e-12
-2.24654e-11
1.68067e-11
7.81154e-12
-2.53724e-11
2.0414e-11
8.79219e-12
-2.80654e-11
2.45307e-11
9.89091e-12
-3.02936e-11
2.9114e-11
1.11846e-11
-3.17088e-11
3.39989e-11
1.28106e-11
-3.19367e-11
3.8805e-11
1.49219e-11
-3.08384e-11
4.27981e-11
1.72853e-11
-2.90374e-11
4.49043e-11
-2.83808e-11
4.32095e-11
1.42606e-12
-2.15907e-12
1.31736e-12
2.71224e-12
-6.29683e-12
3.87798e-12
3.90008e-12
-1.01587e-11
6.37457e-12
5.0254e-12
-1.38958e-11
8.96428e-12
6.11998e-12
-1.76227e-11
1.17858e-11
7.21268e-12
-2.1418e-11
1.49655e-11
8.33021e-12
-2.53223e-11
1.86197e-11
9.49696e-12
-2.93321e-11
2.28531e-11
1.0733e-11
-3.33892e-11
2.77494e-11
1.20495e-11
-3.73642e-11
3.33498e-11
1.34423e-11
-4.10381e-11
3.96128e-11
1.48802e-11
-4.40958e-11
4.63445e-11
1.6282e-11
-4.61649e-11
5.30831e-11
1.74899e-11
-4.69832e-11
5.89408e-11
1.82644e-11
-4.67697e-11
6.26182e-11
-4.68743e-11
6.20063e-11
1.7881e-12
-2.56851e-12
1.63819e-12
3.40029e-12
-7.49419e-12
4.82111e-12
4.88832e-12
-1.21012e-11
7.92046e-12
6.29718e-12
-1.65763e-11
1.1129e-11
7.66743e-12
-2.10654e-11
1.46167e-11
9.03681e-12
-2.56768e-11
1.85387e-11
1.04412e-11
-3.04812e-11
2.3039e-11
1.19141e-11
-3.55091e-11
2.82492e-11
1.34823e-11
-4.07448e-11
3.42797e-11
1.51555e-11
-4.61153e-11
4.11968e-11
1.69056e-11
-5.14716e-11
4.89804e-11
1.86236e-11
-5.65608e-11
5.74465e-11
2.00441e-11
-6.09815e-11
6.61124e-11
2.06899e-11
-6.41416e-11
7.39919e-11
2.0146e-11
-6.54219e-11
7.95172e-11
-6.54601e-11
8.02014e-11
2.11753e-12
-2.8926e-12
1.92126e-12
4.02567e-12
-8.44372e-12
5.65204e-12
5.78498e-12
-1.36477e-11
9.27843e-12
7.44853e-12
-1.8723e-11
1.30223e-11
9.06504e-12
-2.38449e-11
1.70788e-11
1.06812e-11
-2.91515e-11
2.16262e-11
1.23437e-11
-3.47458e-11
2.68305e-11
1.40993e-11
-4.06982e-11
3.2846e-11
1.59925e-11
-4.7047e-11
3.98069e-11
1.80569e-11
-5.37955e-11
4.78083e-11
2.02953e-11
-6.09041e-11
5.68654e-11
2.26318e-11
-6.82651e-11
6.68381e-11
2.48118e-11
-7.56265e-11
7.7284e-11
2.62632e-11
-8.2393e-11
8.71982e-11
2.6212e-11
-8.73427e-11
9.47716e-11
-8.79881e-11
9.71545e-11
2.40872e-12
-3.11686e-12
2.16197e-12
4.57748e-12
-9.103e-12
6.35712e-12
6.57373e-12
-1.47285e-11
1.04257e-11
8.45695e-12
-2.02375e-11
1.46111e-11
1.02826e-11
-2.583e-11
1.91267e-11
1.21052e-11
-3.16695e-11
2.41667e-11
1.39818e-11
-3.78885e-11
2.99118e-11
1.59744e-11
-4.45942e-11
3.65303e-11
1.8152e-11
-5.1875e-11
4.41733e-11
2.05908e-11
-5.98085e-11
5.29573e-11
2.33719e-11
-6.84706e-11
6.29315e-11
2.65659e-11
-7.79472e-11
7.40091e-11
3.01843e-11
-8.83303e-11
8.58214e-11
3.40493e-11
-9.96185e-11
9.74105e-11
3.74049e-11
-1.11102e-10
1.06774e-10
-1.21359e-10
1.10406e-10
2.65733e-12
2.35767e-12
-3.22944e-12
5.04745e-12
6.92867e-12
-9.43729e-12
7.24228e-12
1.13498e-11
-1.52865e-11
9.30535e-12
1.58781e-11
-2.10388e-11
1.12964e-11
2.07374e-11
-2.69109e-11
1.32752e-11
2.61296e-11
-3.30849e-11
1.53058e-11
3.22407e-11
-3.97141e-11
1.74614e-11
3.92429e-11
-4.69314e-11
1.983e-11
4.72897e-11
-5.48573e-11
2.25238e-11
5.65027e-11
-6.36109e-11
2.56923e-11
6.6942e-11
-7.33249e-11
2.954e-11
7.85476e-11
-8.4166e-11
3.43382e-11
9.10051e-11
-9.63547e-11
4.03563e-11
1.03443e-10
-1.10115e-10
4.69894e-11
1.13816e-10
-1.24769e-10
1.17601e-10
-1.42358e-10
2.08539e-13
-5.92962e-13
1.76276e-13
3.9599e-13
-1.72783e-12
5.18923e-13
5.67794e-13
-2.78273e-12
8.53037e-13
7.28334e-13
-3.7965e-12
1.19962e-12
8.80935e-13
-4.79675e-12
1.57697e-12
1.02779e-12
-5.79889e-12
2.00125e-12
1.16984e-12
-6.80459e-12
2.48643e-12
1.30665e-12
-7.79902e-12
3.04368e-12
1.43635e-12
-8.74552e-12
3.67922e-12
1.5564e-12
-9.57718e-12
4.38987e-12
1.66609e-12
-1.01857e-11
5.15505e-12
1.77156e-12
-1.04076e-11
5.92319e-12
1.88724e-12
-1.00107e-11
6.58885e-12
2.00734e-12
-8.71353e-12
6.9613e-12
2.01571e-12
-6.44543e-12
6.79316e-12
-3.53207e-12
6.13934e-12
6.21895e-13
-1.16774e-12
5.24254e-13
1.18093e-12
-3.40335e-12
1.54323e-12
1.69338e-12
-5.48331e-12
2.53656e-12
2.17239e-12
-7.48519e-12
3.56656e-12
2.62803e-12
-9.46503e-12
4.68746e-12
3.06705e-12
-1.14561e-11
5.94717e-12
3.49245e-12
-1.34663e-11
7.38731e-12
3.90263e-12
-1.54737e-11
9.04128e-12
4.2903e-12
-1.74181e-11
1.0928e-11
4.64227e-12
-1.91897e-11
1.30391e-11
4.94248e-12
-2.06198e-11
1.53156e-11
5.17879e-12
-2.14876e-11
1.76104e-11
5.34243e-12
-2.15763e-11
1.96291e-11
5.37768e-12
-2.08519e-11
2.08656e-11
5.0803e-12
-1.98012e-11
2.07338e-11
-2.00583e-11
1.90011e-11
1.02433e-12
-1.70681e-12
8.59012e-13
1.94522e-12
-4.97599e-12
2.52835e-12
2.78962e-12
-8.02194e-12
4.15487e-12
3.57947e-12
-1.09608e-11
5.84003e-12
4.3319e-12
-1.38785e-11
7.67215e-12
5.05892e-12
-1.68303e-11
9.72941e-12
5.76642e-12
-1.98381e-11
1.20803e-11
6.45195e-12
-2.28854e-11
1.47804e-11
7.10057e-12
-2.59087e-11
1.78632e-11
7.67914e-12
-2.87867e-11
2.13199e-11
8.13012e-12
-3.13364e-11
2.50654e-11
8.36453e-12
-3.33378e-11
2.88846e-11
8.25083e-12
-3.46311e-11
3.23578e-11
7.60524e-12
-3.53433e-11
3.48076e-11
6.33527e-12
-3.60835e-11
3.55285e-11
-3.78916e-11
3.4726e-11
1.40888e-12
-2.19258e-12
1.17274e-12
2.67563e-12
-6.39457e-12
3.45113e-12
3.83751e-12
-1.03167e-11
5.66921e-12
4.92528e-12
-1.41128e-11
7.96415e-12
5.96366e-12
-1.79001e-11
1.04554e-11
6.97119e-12
-2.17598e-11
1.32489e-11
7.95876e-12
-2.57356e-11
1.64385e-11
8.92588e-12
-2.98299e-11
2.01022e-11
9.85268e-12
-3.3996e-11
2.42903e-11
1.06862e-11
-3.81286e-11
2.90021e-11
1.13185e-11
-4.20572e-11
3.41446e-11
1.15522e-11
-4.55596e-11
3.94713e-11
1.10642e-11
-4.84256e-11
4.45029e-11
9.4479e-12
-5.0614e-11
4.8484e-11
6.71732e-12
-5.24067e-11
5.06129e-11
-5.4642e-11
5.10507e-11
1.76877e-12
-2.60788e-12
1.45856e-12
3.35907e-12
-7.60892e-12
4.2911e-12
4.81787e-12
-1.22864e-11
7.04512e-12
6.18453e-12
-1.68298e-11
9.88886e-12
7.4919e-12
-2.13875e-11
1.29686e-11
8.76658e-12
-2.60692e-11
1.64148e-11
1.00276e-11
-3.09466e-11
2.03439e-11
1.12823e-11
-3.60512e-11
2.48544e-11
1.25159e-11
-4.13701e-11
3.00152e-11
1.36733e-11
-4.68375e-11
3.58401e-11
1.46226e-11
-5.23222e-11
4.22442e-11
1.5093e-11
-5.76114e-11
4.89765e-11
1.45912e-11
-6.23896e-11
5.55338e-11
1.2425e-11
-6.62307e-11
6.11016e-11
8.46735e-12
-6.87019e-11
6.47307e-11
-7.0307e-11
6.64324e-11
2.0976e-12
-2.93643e-12
1.71089e-12
3.98312e-12
-8.57138e-12
5.03155e-12
5.71217e-12
-1.38533e-11
8.25443e-12
7.33209e-12
-1.90037e-11
1.15731e-11
8.88392e-12
-2.41995e-11
1.51557e-11
1.04034e-11
-2.95789e-11
1.91522e-11
1.19206e-11
-3.52432e-11
2.36969e-11
1.34572e-11
-4.12586e-11
2.89057e-11
1.50181e-11
-4.76558e-11
3.48638e-11
1.65748e-11
-5.44267e-11
4.16013e-11
1.803e-11
-6.15136e-11
4.9048e-11
1.91473e-11
-6.87824e-11
5.69619e-11
1.94364e-11
-7.59505e-11
6.48268e-11
1.80794e-11
-8.24238e-11
7.17573e-11
1.45576e-11
-8.71169e-11
7.66196e-11
-8.78702e-11
7.93696e-11
2.38964e-12
-3.16363e-12
1.92558e-12
4.53661e-12
-9.23914e-12
5.66023e-12
6.50358e-12
-1.49475e-11
9.27671e-12
8.34459e-12
-2.05357e-11
1.29875e-11
1.01079e-11
-2.62049e-11
1.69764e-11
1.18381e-11
-3.21175e-11
2.14069e-11
1.35772e-11
-3.84017e-11
2.64254e-11
1.53645e-11
-4.51557e-11
3.21583e-11
1.72336e-11
-5.24521e-11
3.87012e-11
1.92048e-11
-6.03408e-11
4.60949e-11
2.12664e-11
-6.88493e-11
5.42805e-11
2.33316e-11
-7.7976e-11
6.30219e-11
2.51589e-11
-8.76573e-11
7.17806e-11
2.62451e-11
-9.76424e-11
7.95576e-11
2.59511e-11
-1.07038e-10
8.4937e-11
-1.14401e-10
8.76257e-11
2.64027e-12
2.10025e-12
-3.27752e-12
5.01069e-12
6.17025e-12
-9.57722e-12
7.17882e-12
1.01009e-11
-1.55115e-11
9.20331e-12
1.41166e-11
-2.13446e-11
1.11376e-11
1.84102e-11
-2.72942e-11
1.30329e-11
2.31522e-11
-3.35402e-11
1.49405e-11
2.84931e-11
-4.02299e-11
1.69143e-11
3.45619e-11
-4.74844e-11
1.90129e-11
4.14547e-11
-5.54031e-11
2.13009e-11
4.92124e-11
-6.40688e-11
2.38481e-11
5.77754e-11
-7.35504e-11
2.6718e-11
6.69042e-11
-8.39015e-11
2.99401e-11
7.60426e-11
-9.51407e-11
3.34298e-11
8.41198e-11
-1.07158e-10
3.6613e-11
8.95131e-11
-1.1903e-10
9.07821e-11
-1.31816e-10
2.05102e-13
-6.00569e-13
1.48393e-13
3.88731e-13
-1.75004e-12
4.3671e-13
5.55525e-13
-2.8187e-12
7.17461e-13
7.08903e-13
-3.84616e-12
1.00803e-12
8.5086e-13
-4.86099e-12
1.32332e-12
9.81643e-13
-5.87995e-12
1.67608e-12
1.09926e-12
-6.90715e-12
2.0768e-12
1.19868e-12
-7.9325e-12
2.53299e-12
1.27069e-12
-8.92886e-12
3.0471e-12
1.3006e-12
-9.84847e-12
3.61256e-12
1.26743e-12
-1.06206e-11
4.20739e-12
1.14279e-12
-1.11533e-11
4.78558e-12
8.86169e-13
-1.13419e-11
5.26814e-12
4.32849e-13
-1.10871e-11
5.54524e-12
-2.5284e-13
-1.03625e-11
5.5305e-12
-8.7523e-12
5.57564e-12
6.11877e-13
-1.18258e-12
4.41359e-13
1.15979e-12
-3.44667e-12
1.29883e-12
1.65767e-12
-5.55339e-12
2.13359e-12
2.11587e-12
-7.5817e-12
2.99718e-12
2.54063e-12
-9.58919e-12
3.93375e-12
2.93315e-12
-1.16114e-11
4.98114e-12
3.28808e-12
-1.36601e-11
6.17067e-12
3.59097e-12
-1.57208e-11
7.52494e-12
3.81431e-12
-1.77481e-11
9.05185e-12
3.91283e-12
-1.96612e-11
1.07332e-11
3.81946e-12
-2.13456e-11
1.25069e-11
3.44316e-12
-2.26734e-11
1.42432e-11
2.66957e-12
-2.356e-11
1.57229e-11
1.38347e-12
-2.40713e-11
1.66511e-11
-3.18584e-13
-2.44888e-11
1.68172e-11
-2.54844e-11
1.62972e-11
1.00858e-12
-1.72825e-12
7.23274e-13
1.91201e-12
-5.03851e-12
2.12823e-12
2.73357e-12
-8.12284e-12
3.49529e-12
3.49085e-12
-1.10991e-11
4.90834e-12
4.19509e-12
-1.4055e-11
6.43923e-12
4.84985e-12
-1.7048e-11
8.14982e-12
5.44853e-12
-2.01038e-11
1.00918e-11
5.96975e-12
-2.32131e-11
1.23033e-11
6.36979e-12
-2.63266e-11
1.47996e-11
6.57218e-12
-2.93504e-11
1.75564e-11
6.45618e-12
-3.21518e-11
2.04836e-11
5.84866e-12
-3.45907e-11
2.33934e-11
4.54001e-12
-3.66064e-11
2.59785e-11
2.3991e-12
-3.83609e-11
2.78487e-11
-1.81392e-13
-4.02236e-11
2.875e-11
-4.25812e-11
2.90609e-11
1.38868e-12
-2.21973e-12
9.87589e-13
2.63307e-12
-6.47365e-12
2.90548e-12
3.76574e-12
-1.04439e-11
4.77006e-12
4.81194e-12
-1.42862e-11
6.69466e-12
5.78909e-12
-1.8119e-11
8.77639e-12
6.70534e-12
-2.20253e-11
1.10993e-11
7.55648e-12
-2.60506e-11
1.37345e-11
8.3196e-12
-3.02013e-11
1.67359e-11
8.94193e-12
-3.44387e-11
2.01287e-11
9.3235e-12
-3.86741e-11
2.38897e-11
9.29306e-12
-4.27685e-11
2.79163e-11
8.58175e-12
-4.65499e-11
3.19921e-11
6.83128e-12
-4.987e-11
3.57708e-11
3.77393e-12
-5.271e-11
3.88308e-11
-3.83133e-14
-5.52016e-11
4.08764e-11
-5.77219e-11
4.22225e-11
1.74568e-12
-2.63968e-12
1.22852e-12
3.31043e-12
-7.70141e-12
3.61332e-12
4.73588e-12
-1.24346e-11
5.92884e-12
6.05523e-12
-1.70306e-11
8.31397e-12
7.29327e-12
-2.16383e-11
1.08877e-11
8.46532e-12
-2.63677e-11
1.37537e-11
9.57421e-12
-3.12893e-11
1.70001e-11
1.06036e-11
-3.64333e-11
2.06956e-11
1.15052e-11
-4.17852e-11
2.48767e-11
1.21773e-11
-4.72788e-11
2.95256e-11
1.24289e-11
-5.27856e-11
3.45375e-11
1.19295e-11
-5.81002e-11
3.96827e-11
1.01784e-11
-6.29198e-11
4.45914e-11
6.66595e-12
-6.6827e-11
4.88084e-11
1.81526e-12
-6.9355e-11
5.19609e-11
-7.07079e-11
5.42713e-11
2.07324e-12
-2.97169e-12
1.44131e-12
3.93178e-12
-8.67377e-12
4.23759e-12
5.62566e-12
-1.40169e-11
6.94777e-12
7.19585e-12
-1.92239e-11
9.73167e-12
8.67521e-12
-2.44718e-11
1.27261e-11
1.00882e-11
-2.98968e-11
1.60501e-11
1.14489e-11
-3.55962e-11
1.98059e-11
1.27559e-11
-4.16285e-11
2.40738e-11
1.39818e-11
-4.80122e-11
2.88996e-11
1.50541e-11
-5.47196e-11
3.42714e-11
1.58195e-11
-6.16634e-11
4.00836e-11
1.59855e-11
-6.86641e-11
4.6093e-11
1.50561e-11
-7.53784e-11
5.18914e-11
1.23965e-11
-8.11568e-11
5.69503e-11
8.04606e-12
-8.4953e-11
6.07924e-11
-8.46464e-11
6.3674e-11
2.36552e-12
-3.20108e-12
1.62246e-12
4.48573e-12
-9.34778e-12
4.76789e-12
6.41783e-12
-1.51206e-11
7.80955e-12
8.2097e-12
-2.07676e-11
1.09229e-11
9.90182e-12
-2.6489e-11
1.42576e-11
1.15282e-11
-3.24438e-11
1.79436e-11
1.31159e-11
-3.87532e-11
2.20921e-11
1.46831e-11
-4.55025e-11
2.67903e-11
1.62338e-11
-5.2743e-11
3.20889e-11
1.77475e-11
-6.04892e-11
3.79775e-11
1.91587e-11
-6.87114e-11
4.43451e-11
2.03207e-11
-7.73165e-11
5.09248e-11
2.09644e-11
-8.61041e-11
5.72427e-11
2.07195e-11
-9.46662e-11
6.26267e-11
1.94731e-11
-1.02136e-10
6.64087e-11
-1.07336e-10
6.88616e-11
2.61765e-12
1.76993e-12
-3.31587e-12
4.96292e-12
5.19833e-12
-9.68835e-12
7.09822e-12
8.50474e-12
-1.56883e-11
9.07657e-12
1.18746e-11
-2.15805e-11
1.09444e-11
1.54651e-11
-2.75814e-11
1.27435e-11
1.94118e-11
-3.38661e-11
1.45119e-11
2.38292e-11
-4.05731e-11
1.62851e-11
2.88055e-11
-4.78073e-11
1.8096e-11
3.43899e-11
-5.56414e-11
1.99729e-11
4.05677e-11
-6.4115e-11
2.19356e-11
4.72171e-11
-7.32274e-11
2.39855e-11
5.40466e-11
-8.29234e-11
2.6101e-11
6.05217e-11
-9.30642e-11
2.82573e-11
6.58377e-11
-1.03365e-10
3.03158e-11
6.91311e-11
-1.12977e-10
7.0069e-11
-1.23276e-10
2.0165e-13
-6.06377e-13
1.15542e-13
3.81491e-13
-1.76697e-12
3.39938e-13
5.43403e-13
-2.84611e-12
5.58191e-13
6.89915e-13
-3.88406e-12
7.83663e-13
8.21824e-13
-4.91e-12
1.02762e-12
9.37735e-13
-5.94162e-12
1.2994e-12
1.03334e-12
-6.9848e-12
1.60635e-12
1.10033e-12
-8.0329e-12
1.9532e-12
1.12487e-12
-9.06536e-12
2.34049e-12
1.08613e-12
-1.00463e-11
2.76169e-12
9.5536e-13
-1.09253e-11
3.19949e-12
6.96212e-13
-1.16411e-11
3.62222e-12
2.66184e-13
-1.21251e-11
3.98361e-12
-3.74737e-13
-1.22883e-11
4.23347e-12
-1.17497e-12
-1.20033e-11
4.34522e-12
-1.05372e-11
4.63755e-12
6.01815e-13
-1.19398e-12
3.43684e-13
1.1387e-12
-3.47992e-12
1.01113e-12
1.62236e-12
-5.60712e-12
1.66016e-12
2.06056e-12
-7.65551e-12
2.33033e-12
2.45611e-12
-9.68369e-12
3.05499e-12
2.80551e-12
-1.17287e-11
3.86192e-12
3.09686e-12
-1.3805e-11
4.7731e-12
3.30653e-12
-1.59033e-11
5.80287e-12
3.3946e-12
-1.79882e-11
6.95331e-12
3.29996e-12
-1.99962e-11
8.20616e-12
2.93792e-12
-2.18407e-11
9.51227e-12
2.20523e-12
-2.34298e-11
1.07816e-11
1.00411e-12
-2.47028e-11
1.18828e-11
-6.77577e-13
-2.56746e-11
1.26719e-11
-2.50704e-12
-2.64165e-11
1.30697e-11
-2.72441e-11
1.30333e-11
9.92721e-13
-1.74479e-12
5.63294e-13
1.87879e-12
-5.0867e-12
1.6571e-12
2.67799e-12
-8.20037e-12
2.72021e-12
3.40383e-12
-1.12047e-11
3.8169e-12
4.06231e-12
-1.41883e-11
5.00142e-12
4.64985e-12
-1.72102e-11
6.31925e-12
5.15003e-12
-2.02983e-11
7.80684e-12
5.52812e-12
-2.34477e-11
9.48859e-12
5.72318e-12
-2.66176e-11
1.13698e-11
5.63882e-12
-2.97292e-11
1.34247e-11
5.13697e-12
-3.26722e-11
1.55811e-11
4.04608e-12
-3.53313e-11
1.7707e-11
2.21791e-12
-3.76478e-11
1.96157e-11
-2.84427e-13
-3.97066e-11
2.111e-11
-2.76441e-12
-4.1686e-11
2.20789e-11
-4.37807e-11
2.26534e-11
1.36825e-12
-2.24072e-12
7.69291e-13
2.59029e-12
-6.53464e-12
2.26274e-12
3.69418e-12
-1.05415e-11
3.71304e-12
4.70002e-12
-1.44178e-11
5.20691e-12
5.61869e-12
-1.82827e-11
6.81767e-12
6.44958e-12
-2.22194e-11
8.60724e-12
7.17661e-12
-2.62743e-11
1.06259e-11
7.76128e-12
-3.04545e-11
1.29083e-11
8.13177e-12
-3.47246e-11
1.54651e-11
8.1686e-12
-3.90014e-11
1.82681e-11
7.68958e-12
-4.3154e-11
2.12321e-11
6.44722e-12
-4.70159e-11
2.42026e-11
4.18744e-12
-5.04238e-11
2.69674e-11
8.95616e-13
-5.32907e-11
2.93132e-11
-2.57653e-12
-5.56288e-11
3.1099e-11
-5.77265e-11
3.23824e-11
1.72213e-12
-2.66422e-12
9.57154e-13
3.26111e-12
-7.77256e-12
2.81455e-12
4.65344e-12
-1.25478e-11
4.6159e-12
5.9265e-12
-1.71818e-11
6.46743e-12
7.09783e-12
-2.18232e-11
8.45901e-12
8.17317e-12
-2.6581e-11
1.0667e-11
9.14263e-12
-3.15233e-11
1.3154e-11
9.97361e-12
-3.66766e-11
1.59641e-11
1.0599e-11
-4.20208e-11
1.91138e-11
1.08997e-11
-4.74817e-11
2.2575e-11
1.06807e-11
-5.2919e-11
2.62555e-11
9.64801e-12
-5.81082e-11
2.99848e-11
7.43285e-12
-6.27139e-11
3.35287e-11
3.81044e-12
-6.62686e-11
3.66511e-11
-5.09524e-13
-6.82779e-11
3.91644e-11
-6.89538e-11
4.10634e-11
2.04808e-12
-2.99881e-12
1.12314e-12
3.87911e-12
-8.75221e-12
3.30139e-12
5.53767e-12
-1.41411e-11
5.41007e-12
7.05872e-12
-1.93882e-11
7.5714e-12
8.46766e-12
-2.46695e-11
9.88871e-12
9.77928e-12
-3.01185e-11
1.245e-11
1.0995e-11
-3.58268e-11
1.53274e-11
1.20977e-11
-4.18436e-11
1.85725e-11
1.30421e-11
-4.81728e-11
2.22058e-11
1.37404e-11
-5.47641e-11
2.61989e-11
1.40384e-11
-6.14966e-11
3.04513e-11
1.36854e-11
-6.81442e-11
3.47704e-11
1.23238e-11
-7.43066e-11
3.88802e-11
9.61295e-12
-7.92952e-11
4.24871e-11
5.88164e-12
-8.21388e-11
4.5353e-11
-8.09584e-11
4.75263e-11
2.34018e-12
-3.22978e-12
1.2645e-12
4.43269e-12
-9.43061e-12
3.71508e-12
6.32929e-12
-1.52511e-11
6.08198e-12
8.07197e-12
-2.0939e-11
8.49942e-12
9.69407e-12
-2.66924e-11
1.10805e-11
1.12203e-11
-3.2666e-11
1.39214e-11
1.26659e-11
-3.89724e-11
1.71003e-11
1.40343e-11
-4.56833e-11
2.06729e-11
1.53132e-11
-5.28275e-11
2.46606e-11
1.64676e-11
-6.03853e-11
2.90316e-11
1.74304e-11
-6.82762e-11
3.36722e-11
1.80903e-11
-7.63374e-11
3.8357e-11
1.83013e-11
-8.42889e-11
4.27415e-11
1.79666e-11
-9.16837e-11
4.64181e-11
1.72705e-11
-9.78129e-11
4.90522e-11
-1.01916e-10
5.07996e-11
2.59337e-12
1.3796e-12
-3.34513e-12
4.91207e-12
4.05098e-12
-9.77271e-12
7.01339e-12
6.62424e-12
-1.58208e-11
8.94485e-12
9.24132e-12
-2.17535e-11
1.07463e-11
1.20213e-11
-2.77845e-11
1.24511e-11
1.50642e-11
-3.40834e-11
1.40867e-11
1.84507e-11
-4.07786e-11
1.56755e-11
2.22364e-11
-4.79581e-11
1.72351e-11
2.644e-11
-5.56684e-11
1.87806e-11
3.10233e-11
-6.39088e-11
2.03268e-11
3.58582e-11
-7.26212e-11
2.18982e-11
4.06873e-11
-8.1675e-11
2.35648e-11
4.51012e-11
-9.08526e-11
2.552e-11
4.85774e-11
-9.98454e-11
2.7897e-11
5.06664e-11
-1.08018e-10
5.12452e-11
-1.17172e-10
1.98618e-13
-6.10447e-13
7.89654e-14
3.75164e-13
-1.77887e-12
2.32278e-13
5.32886e-13
-2.86548e-12
3.81276e-13
6.73578e-13
-3.91096e-12
5.35007e-13
7.9711e-13
-4.94477e-12
7.00986e-13
9.00888e-13
-5.98508e-12
8.85296e-13
9.79081e-13
-7.03883e-12
1.09255e-12
1.02153e-12
-8.10139e-12
1.32549e-12
1.01254e-12
-9.15561e-12
1.584e-12
9.30083e-13
-1.0171e-11
1.86338e-12
7.46424e-13
-1.11039e-11
2.15276e-12
4.3139e-13
-1.18988e-11
2.43394e-12
-4.19666e-14
-1.24815e-11
2.68291e-12
-6.87436e-13
-1.27321e-11
2.87664e-12
-1.43934e-12
-1.24593e-11
3.0003e-12
-1.08721e-11
3.27407e-12
5.92977e-13
-1.2021e-12
2.34912e-13
1.12026e-12
-3.50365e-12
6.91e-13
1.5917e-12
-5.64553e-12
1.13418e-12
2.01293e-12
-7.70823e-12
1.59117e-12
2.38409e-12
-9.75079e-12
2.08421e-12
2.69825e-12
-1.18109e-11
2.63143e-12
2.93923e-12
-1.39048e-11
3.24666e-12
3.07834e-12
-1.60259e-11
3.93827e-12
3.07072e-12
-1.81435e-11
4.70619e-12
2.85299e-12
-2.02012e-11
5.53725e-12
2.34572e-12
-2.21203e-11
6.40019e-12
1.46755e-12
-2.38101e-11
7.24237e-12
1.71798e-13
-2.51876e-11
7.9933e-12
-1.47328e-12
-2.61975e-11
8.58029e-12
-3.10461e-12
-2.68109e-11
8.95007e-12
-2.72896e-11
9.01193e-12
9.78787e-13
-1.75672e-12
3.8509e-13
1.84972e-12
-5.12142e-12
1.1327e-12
2.62964e-12
-8.25611e-12
1.85879e-12
3.32873e-12
-1.12801e-11
2.60673e-12
3.94889e-12
-1.42825e-11
3.41266e-12
4.48136e-12
-1.73227e-11
4.30631e-12
4.90332e-12
-2.04296e-11
5.31073e-12
5.1728e-12
-2.36004e-11
6.44023e-12
5.22261e-12
-2.67971e-11
7.6959e-12
4.95549e-12
-2.99452e-11
9.05868e-12
4.2464e-12
-3.29373e-11
1.04818e-11
2.96585e-12
-3.56502e-11
1.18868e-11
1.05441e-12
-3.79901e-11
1.31704e-11
-1.29944e-12
-3.99615e-11
1.4226e-11
-3.38229e-12
-4.16617e-11
1.49686e-11
-4.3306e-11
1.54049e-11
1.35025e-12
-2.25593e-12
5.26025e-13
2.55273e-12
-6.57878e-12
1.54702e-12
3.63171e-12
-1.06117e-11
2.53775e-12
4.60308e-12
-1.45115e-11
3.55666e-12
5.4726e-12
-1.83971e-11
4.65261e-12
6.2333e-12
-2.23517e-11
5.86614e-12
6.8614e-12
-2.64208e-11
7.22909e-12
7.31017e-12
-3.06108e-11
8.76193e-12
7.50175e-12
-3.48848e-11
1.04681e-11
7.31885e-12
-3.91574e-11
1.23255e-11
6.60133e-12
-4.32912e-11
1.4278e-11
5.16296e-12
-4.7103e-11
1.62313e-11
2.86901e-12
-5.03911e-11
1.80651e-11
-1.43838e-13
-5.30023e-11
1.96602e-11
-3.04053e-12
-5.49107e-11
2.09053e-11
-5.64721e-11
2.1753e-11
1.70128e-12
-2.68204e-12
6.54606e-13
3.21761e-12
-7.82404e-12
1.92465e-12
4.58112e-12
-1.26291e-11
3.15538e-12
5.81443e-12
-1.72886e-11
4.41834e-12
6.92941e-12
-2.19509e-11
5.77344e-12
7.92482e-12
-2.67231e-11
7.27075e-12
8.78255e-12
-3.16704e-11
8.94988e-12
9.46163e-12
-3.68145e-11
1.08368e-11
9.88987e-12
-4.21277e-11
1.29375e-11
9.9534e-12
-4.75246e-11
1.52284e-11
9.48629e-12
-5.28478e-11
1.7646e-11
8.26935e-12
-5.78473e-11
2.00824e-11
6.07269e-12
-6.21523e-11
2.23996e-11
2.83705e-12
-6.52594e-11
2.44613e-11
-7.71521e-13
-6.66931e-11
2.61257e-11
-6.67748e-11
2.7311e-11
2.02565e-12
-3.01846e-12
7.68252e-13
3.83231e-12
-8.8088e-12
2.25791e-12
5.45994e-12
-1.42297e-11
3.69879e-12
6.93851e-12
-1.95034e-11
5.17319e-12
8.2876e-12
-2.48042e-11
6.75006e-12
9.51488e-12
-3.02624e-11
8.48707e-12
1.06136e-11
-3.59642e-11
1.04299e-11
1.15586e-11
-4.19498e-11
1.26086e-11
1.23004e-11
-4.8209e-11
1.50305e-11
1.2758e-11
-5.46711e-11
1.76697e-11
1.28091e-11
-6.11875e-11
2.04533e-11
1.22823e-11
-6.74981e-11
2.32534e-11
1.09653e-11
-7.31723e-11
2.58995e-11
8.68951e-12
-7.75215e-11
2.82171e-11
5.73429e-12
-7.9665e-11
3.00418e-11
-7.79518e-11
3.13404e-11
2.31737e-12
-3.25052e-12
8.65049e-13
4.38512e-12
-9.49014e-12
2.54115e-12
6.25038e-12
-1.53438e-11
4.15864e-12
7.95023e-12
-2.10581e-11
5.80792e-12
9.5123e-12
-2.6829e-11
7.56458e-12
1.09545e-11
-3.28064e-11
9.49157e-12
1.22843e-11
-3.90954e-11
1.16384e-11
1.34976e-11
-4.57551e-11
1.4037e-11
1.45782e-11
-5.27951e-11
1.66941e-11
1.54976e-11
-6.01681e-11
1.95793e-11
1.62184e-11
-6.77577e-11
2.2607e-11
1.67033e-11
-7.53616e-11
2.56212e-11
1.69432e-11
-8.26733e-11
2.84009e-11
1.701e-11
-8.92735e-11
3.06996e-11
1.70577e-11
-9.46028e-11
3.23087e-11
-9.81893e-11
3.32966e-11
2.57123e-12
9.4388e-13
-3.3662e-12
4.86593e-12
2.77116e-12
-9.83309e-12
6.93694e-12
4.52985e-12
-1.59144e-11
8.82719e-12
6.3156e-12
-2.18729e-11
1.05713e-11
8.208e-12
-2.79191e-11
1.21961e-11
1.02727e-11
-3.42176e-11
1.37222e-11
1.25605e-11
-4.08872e-11
1.51648e-11
1.51029e-11
-4.80017e-11
1.65378e-11
1.79041e-11
-5.55852e-11
1.78607e-11
2.09278e-11
-6.36066e-11
1.91726e-11
2.40756e-11
-7.19694e-11