/*--------------------------------*- C++ -*----------------------------------*\
| =========                 |                                                 |
| \\      /  F ield         | OpenFOAM: The Open Source CFD Toolbox           |
|  \\    /   O peration     | Version:  v1912                                 |
|   \\  /    A nd           | Website:  www.openfoam.com                      |
|    \\/     M anipulation  |                                                 |
\*---------------------------------------------------------------------------*/
FoamFile
{
    version     2.0;
    format      ascii;
    class       surfaceScalarField;
    location    "0.39/fluid";
    object      phi;
}
// * * * * * * * * * * * * * * * * * * * * * * * * * * * * * * * * * * * * * //

dimensions      [0 3 -1 0 0 0 0];
oriented        oriented;


internalField   nonuniform List<scalar> 
41600
(
5.07202e-05
1.19814e-05
3.35785e-07
-5.37405e-07
4.20437e-05
9.00487e-06
3.87925e-07
-7.16259e-07
3.63471e-05
6.01953e-06
1.08932e-07
-4.31922e-07
3.32685e-05
3.34147e-06
-3.25216e-07
6.23308e-08
3.15768e-05
1.87885e-06
-8.88825e-07
7.01738e-07
3.05492e-05
1.14239e-06
-1.58071e-06
1.4659e-06
2.97648e-05
8.33552e-07
-2.43317e-06
2.38401e-06
2.9016e-05
7.3071e-07
-3.49437e-06
3.51245e-06
2.81871e-05
7.33217e-07
-4.83318e-06
4.92893e-06
2.71907e-05
7.77456e-07
-6.55365e-06
6.77258e-06
2.59394e-05
8.38288e-07
-8.80876e-06
9.22174e-06
2.42654e-05
8.36766e-07
-1.17805e-05
1.26177e-05
2.18953e-05
7.86025e-07
-1.58863e-05
1.74704e-05
1.80939e-05
3.55482e-07
-2.10235e-05
2.44693e-05
1.14526e-05
-4.69332e-08
-2.73752e-05
3.40635e-05
-2.51869e-06
-2.34176e-05
3.73889e-05
6.51834e-05
9.56801e-06
3.86844e-07
-6.56795e-07
6.47616e-05
9.88788e-06
3.93984e-07
-8.55241e-07
6.3444e-05
7.82009e-06
-3.86522e-08
-4.44292e-07
6.19477e-05
5.25295e-06
-7.16911e-07
3.01756e-07
6.06076e-05
3.5296e-06
-1.6071e-06
1.29643e-06
5.94141e-05
2.53802e-06
-2.71667e-06
2.51453e-06
5.82518e-05
2.09593e-06
-4.09807e-06
3.99799e-06
5.69924e-05
1.98721e-06
-5.83145e-06
5.83433e-06
5.55167e-05
2.08989e-06
-8.03023e-06
8.14931e-06
5.36782e-05
2.32198e-06
-1.08642e-05
1.11581e-05
5.13065e-05
2.64049e-06
-1.45777e-05
1.51473e-05
4.80287e-05
2.96049e-06
-1.94814e-05
2.06355e-05
4.33351e-05
3.27013e-06
-2.61662e-05
2.83757e-05
3.56613e-05
3.23037e-06
-3.45877e-05
3.93867e-05
2.32798e-05
2.92884e-06
-4.43232e-05
5.37289e-05
4.51031e-08
-3.75383e-05
5.82543e-05
6.61333e-05
6.21771e-06
3.93319e-07
-6.76267e-07
6.82179e-05
8.29229e-06
3.83737e-07
-8.72757e-07
6.90269e-05
7.52744e-06
-8.08417e-08
-4.35568e-07
6.88892e-05
5.83843e-06
-7.99953e-07
3.52238e-07
6.82947e-05
4.46262e-06
-1.74252e-06
1.404e-06
6.74591e-05
3.59707e-06
-2.92066e-06
2.69722e-06
6.64439e-05
3.22562e-06
-4.39104e-06
4.27653e-06
6.52114e-05
3.22448e-06
-6.23994e-06
6.23511e-06
6.36765e-05
3.50609e-06
-8.5882e-06
8.70692e-06
6.16895e-05
4.00575e-06
-1.16196e-05
1.19228e-05
5.9045e-05
4.68861e-06
-1.55943e-05
1.61907e-05
5.52999e-05
5.48787e-06
-2.0859e-05
2.20767e-05
4.9832e-05
6.38565e-06
-2.80317e-05
3.03841e-05
4.08601e-05
7.05086e-06
-3.71317e-05
4.22831e-05
2.64531e-05
7.16083e-06
-4.76311e-05
5.78062e-05
3.68819e-06
-4.06223e-05
6.34322e-05
6.48848e-05
4.11654e-06
4.06299e-07
-6.89946e-07
6.71868e-05
6.48358e-06
4.08038e-07
-9.01319e-07
6.86869e-05
6.5483e-06
-4.89943e-08
-4.7198e-07
6.92993e-05
5.6777e-06
-7.58342e-07
3.06708e-07
6.93047e-05
4.79924e-06
-1.6876e-06
1.34561e-06
6.88965e-05
4.232e-06
-2.84797e-06
2.62122e-06
6.81768e-05
4.06317e-06
-4.29415e-06
4.17629e-06
6.71522e-05
4.25755e-06
-6.11096e-06
6.10251e-06
6.57665e-05
4.7769e-06
-8.41624e-06
8.53107e-06
6.38791e-05
5.5939e-06
-1.13944e-05
1.16937e-05
6.12737e-05
6.69988e-06
-1.53015e-05
1.58956e-05
5.74726e-05
8.06653e-06
-2.04992e-05
2.17216e-05
5.17916e-05
9.68984e-06
-2.75993e-05
2.99762e-05
4.23685e-05
1.12323e-05
-3.66972e-05
4.19388e-05
2.71217e-05
1.20109e-05
-4.7274e-05
5.76707e-05
7.45661e-06
-4.05676e-05
6.39209e-05
6.40625e-05
2.83631e-06
4.29151e-07
-7.11429e-07
6.60809e-05
4.95783e-06
4.58815e-07
-9.51437e-07
6.77037e-05
5.44554e-06
2.62323e-08
-5.46304e-07
6.86749e-05
5.15707e-06
-6.57534e-07
2.06971e-07
6.90789e-05
4.73671e-06
-1.55466e-06
1.21322e-06
6.90325e-05
4.50574e-06
-2.67136e-06
2.44394e-06
6.8623e-05
4.59302e-06
-4.05657e-06
3.93625e-06
6.78697e-05
5.02432e-06
-5.78941e-06
5.77593e-06
6.67343e-05
5.80615e-06
-7.97891e-06
8.08512e-06
6.50859e-05
6.95754e-06
-1.08029e-05
1.10876e-05
6.2706e-05
8.50911e-06
-1.45006e-05
1.50713e-05
5.90846e-05
1.0504e-05
-1.94399e-05
2.06239e-05
5.34629e-05
1.29949e-05
-2.62002e-05
2.85168e-05
4.38219e-05
1.57167e-05
-3.49872e-05
4.01439e-05
2.78271e-05
1.7733e-05
-4.5284e-05
5.55566e-05
1.2079e-05
-3.91746e-05
6.23792e-05
6.36477e-05
1.96962e-06
4.56974e-07
-7.37963e-07
6.54091e-05
3.6878e-06
5.22888e-07
-1.01433e-06
6.70247e-05
4.34886e-06
1.23137e-07
-6.42043e-07
6.81879e-05
4.44351e-06
-5.2784e-07
7.81924e-08
6.88655e-05
4.40042e-06
-1.38475e-06
1.04343e-06
6.91112e-05
4.4888e-06
-2.44669e-06
2.21793e-06
6.89867e-05
4.84139e-06
-3.75501e-06
3.63117e-06
6.85111e-05
5.52022e-06
-5.38114e-06
5.36083e-06
6.76546e-05
6.56811e-06
-7.42263e-06
7.51714e-06
6.62923e-05
8.0554e-06
-1.00474e-05
1.03118e-05
6.42024e-05
1.00621e-05
-1.34717e-05
1.40085e-05
6.08412e-05
1.2741e-05
-1.80661e-05
1.91903e-05
5.53767e-05
1.62437e-05
-2.43594e-05
2.65751e-05
4.55954e-05
2.05098e-05
-3.26971e-05
3.76853e-05
2.88539e-05
2.44847e-05
-4.25412e-05
5.2531e-05
1.81276e-05
-3.72912e-05
6.00965e-05
6.34739e-05
1.27595e-06
4.89662e-07
-7.69862e-07
6.51017e-05
2.55072e-06
5.97951e-07
-1.08873e-06
6.6719e-05
3.25013e-06
2.37165e-07
-7.55698e-07
6.80141e-05
3.59827e-06
-3.75186e-07
-7.46811e-08
6.88994e-05
3.85767e-06
-1.1847e-06
8.42128e-07
6.93952e-05
4.2249e-06
-2.18133e-06
1.94947e-06
6.95506e-05
4.81584e-06
-3.39621e-06
3.26633e-06
6.93928e-05
5.70956e-06
-4.88903e-06
4.85754e-06
6.89137e-05
6.97276e-06
-6.73945e-06
6.81393e-06
6.80209e-05
8.72156e-06
-9.09392e-06
9.32054e-06
6.65351e-05
1.1082e-05
-1.21257e-05
1.25916e-05
6.39405e-05
1.43543e-05
-1.61775e-05
1.71588e-05
5.94056e-05
1.88432e-05
-2.16629e-05
2.35983e-05
5.03382e-05
2.51503e-05
-2.90572e-05
3.34842e-05
3.34038e-05
3.25354e-05
-3.7671e-05
4.65546e-05
3.04019e-05
-3.35562e-05
5.46858e-05
6.34208e-05
5.25127e-07
-8.05118e-07
6.35155e-07
6.50193e-05
6.79224e-07
-1.17009e-06
1.44304e-06
6.66806e-05
3.6069e-07
-8.79791e-07
2.10795e-06
6.80933e-05
-2.1013e-07
-2.41006e-07
2.63667e-06
6.91484e-05
-9.69205e-07
6.24299e-07
3.14753e-06
6.98532e-05
-1.89653e-06
1.66055e-06
3.75603e-06
7.02548e-05
-3.01252e-06
2.87571e-06
4.55103e-06
7.039e-05
-4.36439e-06
4.32094e-06
5.61783e-06
7.02698e-05
-6.01358e-06
6.06752e-06
7.03902e-06
6.98311e-05
-8.08338e-06
8.27206e-06
8.97161e-06
6.89351e-05
-1.07038e-05
1.11002e-05
1.15816e-05
6.71092e-05
-1.41844e-05
1.50257e-05
1.53389e-05
6.35986e-05
-1.88203e-05
2.04857e-05
2.06885e-05
5.56191e-05
-2.52245e-05
2.91051e-05
2.92491e-05
3.97192e-05
-3.26121e-05
4.044e-05
4.06074e-05
-3.04156e-05
5.01592e-05
5.03774e-05
5.06558e-05
1.19866e-05
1.93332e-07
4.18627e-05
9.02047e-06
1.60547e-07
3.6042e-05
6.03744e-06
-1.07827e-07
3.28453e-05
3.35951e-06
-4.87976e-07
3.10342e-05
1.90049e-06
-9.78222e-07
2.98723e-05
1.171e-06
-1.58979e-06
2.89219e-05
8.72622e-07
-2.35539e-06
2.79586e-05
7.83631e-07
-3.31475e-06
2.68462e-05
8.05158e-07
-4.52592e-06
2.54782e-05
8.74693e-07
-6.06033e-06
2.37349e-05
9.72877e-07
-8.03834e-06
2.1451e-05
1.02527e-06
-1.05218e-05
1.83004e-05
1.06189e-06
-1.37975e-05
1.38273e-05
7.85912e-07
-1.73363e-05
6.89053e-06
5.16183e-07
-2.09547e-05
-1.48686e-06
-1.50403e-05
6.50932e-05
9.58142e-06
1.98903e-07
6.45057e-05
9.92006e-06
8.1833e-08
6.29932e-05
7.86322e-06
-3.51934e-07
6.12946e-05
5.30336e-06
-9.62158e-07
5.9743e-05
3.59172e-06
-1.74671e-06
5.83116e-05
2.61858e-06
-2.73279e-06
5.68591e-05
2.20355e-06
-3.97652e-06
5.52273e-05
2.13151e-06
-5.54754e-06
5.32602e-05
2.28394e-06
-7.54191e-06
5.07725e-05
2.58067e-06
-1.00825e-05
4.75384e-05
2.98704e-06
-1.33578e-05
4.31726e-05
3.41664e-06
-1.7507e-05
3.71051e-05
3.87607e-06
-2.29129e-05
2.82195e-05
4.00589e-06
-2.89222e-05
1.52378e-05
3.80399e-06
-3.46294e-05
8.75017e-07
-2.46624e-05
6.60411e-05
6.23704e-06
1.96575e-07
6.79531e-05
8.33785e-06
5.39859e-08
6.85565e-05
7.59321e-06
-4.14276e-07
6.82025e-05
5.92077e-06
-1.06332e-06
6.73805e-05
4.56634e-06
-1.89513e-06
6.62891e-05
3.73189e-06
-2.94257e-06
6.49629e-05
3.40531e-06
-4.26661e-06
6.33317e-05
3.46575e-06
-5.94299e-06
6.12702e-05
3.8314e-06
-8.07412e-06
5.85847e-05
4.44111e-06
-1.07946e-05
5.50095e-05
5.27186e-06
-1.43039e-05
5.00821e-05
6.25181e-06
-1.87668e-05
4.31165e-05
7.38573e-06
-2.45758e-05
3.28056e-05
8.27275e-06
-3.10877e-05
1.77155e-05
8.50371e-06
-3.72408e-05
4.48725e-06
-2.6519e-05
6.47942e-05
4.14084e-06
2.08268e-07
6.69253e-05
6.54079e-06
7.40395e-08
6.82231e-05
6.63382e-06
-3.87414e-07
6.86239e-05
5.78846e-06
-1.02683e-06
6.84075e-05
4.94087e-06
-1.84571e-06
6.77505e-05
4.41706e-06
-2.87621e-06
6.67288e-05
4.31037e-06
-4.17746e-06
6.53165e-05
4.59093e-06
-5.82388e-06
6.34176e-05
5.22915e-06
-7.91509e-06
6.08464e-05
6.20437e-06
-1.05865e-05
5.73243e-05
7.52537e-06
-1.40329e-05
5.23498e-05
9.15904e-06
-1.84319e-05
4.5166e-05
1.11362e-05
-2.41661e-05
3.4379e-05
1.30065e-05
-3.0644e-05
1.83947e-05
1.40087e-05
-3.67947e-05
8.51643e-06
-2.62021e-05
6.39741e-05
2.86513e-06
2.30769e-07
6.58256e-05
5.02554e-06
1.22588e-07
6.7253e-05
5.54817e-06
-3.15537e-07
6.80223e-05
5.29209e-06
-9.30491e-07
6.82169e-05
4.91078e-06
-1.71914e-06
6.79375e-05
4.73405e-06
-2.70895e-06
6.72461e-05
4.89882e-06
-3.95363e-06
6.61314e-05
5.43871e-06
-5.52254e-06
6.45169e-05
6.37221e-06
-7.5074e-06
6.22274e-05
7.7296e-06
-1.00387e-05
5.89819e-05
9.56699e-06
-1.32968e-05
5.42399e-05
1.19288e-05
-1.74676e-05
4.71571e-05
1.49249e-05
-2.2906e-05
3.61499e-05
1.81436e-05
-2.91171e-05
1.93181e-05
2.05964e-05
-3.50399e-05
1.36284e-05
-2.49684e-05
6.35616e-05
2.00245e-06
2.58057e-07
6.51615e-05
3.76427e-06
1.84307e-07
6.65902e-05
4.46521e-06
-2.22607e-07
6.75632e-05
4.59769e-06
-8.06489e-07
6.80465e-05
4.60019e-06
-1.5574e-06
6.80783e-05
4.75171e-06
-2.49618e-06
6.76968e-05
5.19468e-06
-3.66942e-06
6.68925e-05
6.0016e-06
-5.1397e-06
6.55997e-05
7.23087e-06
-6.98847e-06
6.36505e-05
8.97011e-06
-9.33872e-06
6.07622e-05
1.13347e-05
-1.23511e-05
5.63528e-05
1.44912e-05
-1.62192e-05
4.94939e-05
1.86797e-05
-2.12553e-05
3.83627e-05
2.36725e-05
-2.70947e-05
2.06679e-05
2.84273e-05
-3.26774e-05
2.03863e-05
-2.33813e-05
6.33907e-05
1.31172e-06
2.89723e-07
6.48633e-05
2.6333e-06
2.56266e-07
6.63038e-05
3.37567e-06
-1.13743e-07
6.74224e-05
3.7651e-06
-6.61221e-07
6.81314e-05
4.07427e-06
-1.36782e-06
6.84374e-05
4.5103e-06
-2.24589e-06
6.83687e-05
5.19988e-06
-3.33273e-06
6.79276e-05
6.23454e-06
-4.68083e-06
6.70761e-05
7.69914e-06
-6.35628e-06
6.56855e-05
9.73305e-06
-8.46619e-06
6.35254e-05
1.25058e-05
-1.11367e-05
6.00397e-05
1.63511e-05
-1.45517e-05
5.43022e-05
2.16931e-05
-1.89387e-05
4.40081e-05
2.8997e-05
-2.40876e-05
2.60305e-05
3.76208e-05
-2.88869e-05
3.35806e-05
-2.072e-05
6.33406e-05
3.23704e-07
6.72526e-07
6.47909e-05
3.33721e-07
1.52847e-06
6.62861e-05
3.67047e-09
2.23755e-06
6.75368e-05
-5.04736e-07
2.80904e-06
6.84345e-05
-1.16412e-06
3.37147e-06
6.89747e-05
-1.97761e-06
4.05116e-06
6.91864e-05
-2.97271e-06
4.94838e-06
6.90854e-05
-4.19114e-06
6.16231e-06
6.86588e-05
-5.68309e-06
7.79524e-06
6.78136e-05
-7.53818e-06
1.00331e-05
6.63719e-05
-9.84718e-06
1.30907e-05
6.3821e-05
-1.27798e-05
1.74975e-05
5.93307e-05
-1.64754e-05
2.38385e-05
5.03108e-05
-2.08925e-05
3.3685e-05
3.34137e-05
-2.49054e-05
4.68112e-05
-1.84381e-05
5.50167e-05
5.06045e-05
1.19915e-05
9.72721e-08
4.1715e-05
9.03454e-06
1.55451e-08
3.57845e-05
6.054e-06
-2.31359e-07
3.2476e-05
3.37658e-06
-5.56039e-07
3.05467e-05
1.9208e-06
-9.69662e-07
2.92486e-05
1.19734e-06
-1.48909e-06
2.81289e-05
9.0791e-07
-2.14355e-06
2.69459e-05
8.30466e-07
-2.96222e-06
2.55406e-05
8.67252e-07
-3.98788e-06
2.37844e-05
9.55982e-07
-5.26013e-06
2.15248e-05
1.08036e-06
-6.85915e-06
1.86067e-05
1.16683e-06
-8.77046e-06
1.47281e-05
1.24896e-06
-1.11679e-05
9.83582e-06
1.04316e-06
-1.34872e-05
3.5471e-06
7.63061e-07
-1.5429e-05
-1.09743e-06
-1.03957e-05
6.50204e-05
9.59444e-06
7.55552e-08
6.42948e-05
9.9505e-06
-1.08528e-07
6.26105e-05
7.90437e-06
-5.17945e-07
6.07234e-05
5.3519e-06
-1.0504e-06
5.89667e-05
3.65123e-06
-1.72045e-06
5.72999e-05
2.69504e-06
-2.56365e-06
5.55589e-05
2.30479e-06
-3.63246e-06
5.35575e-05
2.26617e-06
-4.98184e-06
5.11038e-05
2.4636e-06
-6.68451e-06
4.79764e-05
2.81781e-06
-8.81689e-06
4.39036e-05
3.30021e-06
-1.15048e-05
3.85163e-05
3.82001e-06
-1.47729e-05
3.12953e-05
4.39254e-06
-1.88355e-05
2.17377e-05
4.62988e-06
-2.29513e-05
9.57886e-06
4.43964e-06
-2.61471e-05
1.34083e-06
-1.75218e-05
6.59669e-05
6.25612e-06
6.80226e-08
6.77348e-05
8.38181e-06
-1.45261e-07
6.8157e-05
7.65656e-06
-5.88689e-07
6.7602e-05
6.00012e-06
-1.15646e-06
6.656e-05
4.66588e-06
-1.86784e-06
6.52163e-05
3.86044e-06
-2.76419e-06
6.35816e-05
3.57569e-06
-3.90283e-06
6.15556e-05
3.69345e-06
-5.34425e-06
5.89742e-05
4.13715e-06
-7.16627e-06
5.56037e-05
4.84816e-06
-9.45447e-06
5.11281e-05
5.81338e-06
-1.23414e-05
4.50965e-05
6.9532e-06
-1.58684e-05
3.68732e-05
8.28888e-06
-2.02488e-05
2.57957e-05
9.35015e-06
-2.47304e-05
1.15165e-05
9.65827e-06
-2.81803e-05
5.16232e-06
-1.8824e-05
6.47215e-05
4.16485e-06
7.80672e-08
6.67103e-05
6.59622e-06
-1.29248e-07
6.78301e-05
6.71622e-06
-5.66834e-07
6.80342e-05
5.89493e-06
-1.12575e-06
6.76032e-05
5.07653e-06
-1.82537e-06
6.67004e-05
4.59353e-06
-2.70651e-06
6.53783e-05
4.54524e-06
-3.82491e-06
6.35812e-05
4.90673e-06
-5.24e-06
6.11738e-05
5.65658e-06
-7.02718e-06
5.79289e-05
6.77951e-06
-9.27287e-06
5.35147e-05
8.30012e-06
-1.21054e-05
4.74348e-05
1.01774e-05
-1.55763e-05
3.89733e-05
1.24731e-05
-1.98887e-05
2.73793e-05
1.46294e-05
-2.43293e-05
1.21568e-05
1.58371e-05
-2.7751e-05
9.61377e-06
-1.84968e-05
6.39034e-05
2.89339e-06
9.87994e-08
6.56167e-05
5.09091e-06
-8.53394e-08
6.68725e-05
5.64668e-06
-5.01831e-07
6.74542e-05
5.42139e-06
-1.03864e-06
6.74457e-05
5.07707e-06
-1.71123e-06
6.69351e-05
4.95157e-06
-2.55638e-06
6.59622e-05
5.18957e-06
-3.62505e-06
6.44868e-05
5.83206e-06
-4.9725e-06
6.23945e-05
6.90909e-06
-6.66761e-06
5.94683e-05
8.46065e-06
-8.79356e-06
5.5372e-05
1.05669e-05
-1.14673e-05
4.95618e-05
1.32697e-05
-1.47497e-05
4.1219e-05
1.67324e-05
-1.88226e-05
2.93795e-05
2.0405e-05
-2.30532e-05
1.32033e-05
2.32843e-05
-2.6311e-05
1.53586e-05
-1.751e-05
6.34932e-05
2.03429e-06
1.23941e-07
6.49599e-05
3.83766e-06
-2.9116e-08
6.6225e-05
4.57639e-06
-4.17431e-07
6.70214e-05
4.74479e-06
-9.26313e-07
6.73158e-05
4.79054e-06
-1.56529e-06
6.71347e-05
5.00186e-06
-2.36532e-06
6.64954e-05
5.53061e-06
-3.37119e-06
6.53612e-05
6.45913e-06
-4.63259e-06
6.36308e-05
7.86103e-06
-6.21e-06
6.10948e-05
9.83956e-06
-8.18159e-06
5.74153e-05
1.25443e-05
-1.0649e-05
5.19974e-05
1.61514e-05
-1.3683e-05
4.39242e-05
2.09851e-05
-1.74347e-05
3.19524e-05
2.66624e-05
-2.13804e-05
1.47748e-05
3.21937e-05
-2.44091e-05
2.30225e-05
-1.62704e-05
6.3325e-05
1.34606e-06
1.52909e-07
6.46706e-05
2.71206e-06
3.62798e-08
6.59569e-05
3.49517e-06
-3.18819e-07
6.69119e-05
3.92375e-06
-7.95132e-07
6.74492e-05
4.2802e-06
-1.3948e-06
6.75649e-05
4.78161e-06
-2.14139e-06
6.72695e-05
5.56518e-06
-3.07181e-06
6.65412e-05
6.73432e-06
-4.22777e-06
6.53117e-05
8.39188e-06
-5.65767e-06
6.34154e-05
1.0699e-05
-7.42922e-06
6.05737e-05
1.38684e-05
-9.61914e-06
5.62109e-05
1.82623e-05
-1.22996e-05
4.94018e-05
2.44215e-05
-1.55661e-05
3.83285e-05
3.26819e-05
-1.90338e-05
2.06732e-05
4.25617e-05
-2.15996e-05
3.73985e-05
-1.44228e-05
6.32779e-05
1.83789e-07
7.08063e-07
6.46078e-05
1.06429e-07
1.60948e-06
6.5959e-05
-2.1275e-07
2.36041e-06
6.70597e-05
-6.54141e-07
2.97244e-06
6.78038e-05
-1.21189e-06
3.58389e-06
6.81779e-05
-1.90158e-06
4.3314e-06
6.81958e-05
-2.75175e-06
5.32631e-06
6.78535e-05
-3.79554e-06
6.68109e-06
6.71132e-05
-5.0688e-06
8.51784e-06
6.58515e-05
-6.62743e-06
1.10499e-05
6.38526e-05
-8.52231e-06
1.45424e-05
6.05814e-05
-1.0824e-05
1.95778e-05
5.52111e-05
-1.35698e-05
2.68861e-05
4.5535e-05
-1.65253e-05
3.79908e-05
2.88719e-05
-1.86333e-05
5.29527e-05
-1.2808e-05
6.06403e-05
5.05643e-05
1.1996e-05
3.69301e-08
4.15968e-05
9.047e-06
-6.39926e-08
3.55746e-05
6.069e-06
-2.78148e-07
3.21707e-05
3.39239e-06
-5.44534e-07
3.0141e-05
1.93971e-06
-8.79637e-07
2.87315e-05
1.222e-06
-1.30159e-06
2.74816e-05
9.41237e-07
-1.83486e-06
2.61438e-05
8.75504e-07
-2.49996e-06
2.45542e-05
9.28511e-07
-3.32678e-06
2.25885e-05
1.03934e-06
-4.33377e-06
2.01036e-05
1.19587e-06
-5.57011e-06
1.699e-05
1.32963e-06
-6.98652e-06
1.30159e-05
1.48241e-06
-8.67622e-06
8.28305e-06
1.39435e-06
-1.01487e-05
2.72678e-06
1.22195e-06
-1.10947e-05
-5.08722e-07
-7.16024e-06
6.49626e-05
9.60644e-06
2.53068e-09
6.41243e-05
9.97801e-06
-2.01246e-07
6.22956e-05
7.94177e-06
-5.6202e-07
6.02471e-05
5.39626e-06
-1.00574e-06
5.83146e-05
3.70552e-06
-1.55372e-06
5.64506e-05
2.76455e-06
-2.24226e-06
5.44793e-05
2.39661e-06
-3.11648e-06
5.22021e-05
2.38837e-06
-4.21756e-06
4.94164e-05
2.62712e-06
-5.59743e-06
4.59024e-05
3.03527e-06
-7.29876e-06
4.14007e-05
3.59085e-06
-9.39819e-06
3.56136e-05
4.20349e-06
-1.18597e-05
2.81414e-05
4.90112e-06
-1.4782e-05
1.87935e-05
5.28791e-06
-1.7497e-05
7.78323e-06
5.21804e-06
-1.91328e-05
2.04082e-06
-1.22881e-05
6.59079e-05
6.27377e-06
-7.17995e-09
6.75583e-05
8.42185e-06
-2.39543e-07
6.78283e-05
7.71422e-06
-6.31099e-07
6.71009e-05
6.0723e-06
-1.10515e-06
6.58702e-05
4.75603e-06
-1.68763e-06
6.43145e-05
3.97623e-06
-2.42013e-06
6.24321e-05
3.72826e-06
-3.35217e-06
6.01096e-05
3.89627e-06
-4.52962e-06
5.71705e-05
4.40819e-06
-6.00828e-06
5.33814e-05
5.20752e-06
-7.83761e-06
4.84388e-05
6.28998e-06
-1.0098e-05
4.19664e-05
7.57116e-06
-1.27636e-05
3.34569e-05
9.08855e-06
-1.59267e-05
2.25876e-05
1.03271e-05
-1.89004e-05
9.53261e-06
1.07642e-05
-2.06714e-05
5.95431e-06
-1.32048e-05
6.46638e-05
4.18702e-06
9.97923e-10
6.65369e-05
6.64679e-06
-2.27259e-07
6.75073e-05
6.79109e-06
-6.14076e-07
6.75429e-05
5.99139e-06
-1.08053e-06
6.69278e-05
5.19878e-06
-1.65299e-06
6.58187e-05
4.7515e-06
-2.37268e-06
6.4256e-05
4.7539e-06
-3.28787e-06
6.2171e-05
5.18492e-06
-4.44362e-06
5.94163e-05
6.02954e-06
-5.89383e-06
5.5764e-05
7.27576e-06
-7.68883e-06
5.0894e-05
8.96007e-06
-9.90554e-06
4.4382e-05
1.1033e-05
-1.25262e-05
3.56369e-05
1.35789e-05
-1.5634e-05
2.42441e-05
1.59608e-05
-1.85702e-05
1.02287e-05
1.73357e-05
-2.03071e-05
1.06064e-05
-1.29201e-05
6.38476e-05
2.91934e-06
1.88502e-08
6.54486e-05
5.1504e-06
-1.89907e-07
6.65607e-05
5.73593e-06
-5.5878e-07
6.69818e-05
5.53805e-06
-1.00643e-06
6.67992e-05
5.22627e-06
-1.55612e-06
6.60948e-05
5.14531e-06
-2.24573e-06
6.4897e-05
5.44626e-06
-3.11962e-06
6.31535e-05
6.17557e-06
-4.21963e-06
6.07383e-05
7.37176e-06
-5.59462e-06
5.74334e-05
9.08009e-06
-7.29302e-06
5.29128e-05
1.13967e-05
-9.38337e-06
4.66987e-05
1.43542e-05
-1.18567e-05
3.80875e-05
1.81487e-05
-1.47812e-05
2.64346e-05
2.21206e-05
-1.75601e-05
1.13956e-05
2.52473e-05
-1.91836e-05
1.66542e-05
-1.21622e-05
6.34394e-05
2.06332e-06
4.05298e-08
6.47983e-05
3.90418e-06
-1.41788e-07
6.59267e-05
4.67677e-06
-4.8669e-07
6.65721e-05
4.87702e-06
-9.10667e-07
6.67045e-05
4.96066e-06
-1.43208e-06
6.63448e-05
5.22369e-06
-2.08399e-06
6.55e-05
5.82553e-06
-2.90569e-06
6.41222e-05
6.85558e-06
-3.93471e-06
6.20994e-05
8.39803e-06
-5.21347e-06
5.92209e-05
1.05643e-05
-6.78726e-06
5.51575e-05
1.35246e-05
-8.7135e-06
4.93736e-05
1.74485e-05
-1.09934e-05
4.10556e-05
2.27057e-05
-1.36737e-05
2.92577e-05
2.87811e-05
-1.62431e-05
1.31226e-05
3.46904e-05
-1.77172e-05
2.47287e-05
-1.12223e-05
6.32737e-05
1.37716e-06
6.541e-08
6.45168e-05
2.78316e-06
-8.58797e-08
6.56747e-05
3.60266e-06
-4.02574e-07
6.64897e-05
4.06591e-06
-7.99048e-07
6.68794e-05
4.46368e-06
-1.2875e-06
6.68353e-05
5.02138e-06
-1.89494e-06
6.63588e-05
5.88454e-06
-2.65433e-06
6.54189e-05
7.16485e-06
-3.59717e-06
6.3939e-05
8.97718e-06
-4.75694e-06
6.17529e-05
1.14937e-05
-6.17249e-06
5.85914e-05
1.49513e-05
-7.88428e-06
5.39283e-05
1.97119e-05
-9.89992e-06
4.69285e-05
2.63713e-05
-1.22318e-05
3.60278e-05
3.51269e-05
-1.44788e-05
1.9273e-05
4.55335e-05
-1.5688e-05
3.95219e-05
-9.9431e-06
6.32291e-05
9.18256e-08
7.40028e-07
6.44624e-05
-2.60249e-08
1.6823e-06
6.5694e-05
-3.12229e-07
2.47057e-06
6.66665e-05
-6.79231e-07
3.11843e-06
6.72782e-05
-1.13253e-06
3.77264e-06
6.75122e-05
-1.69255e-06
4.57838e-06
6.73749e-05
-2.38552e-06
5.6556e-06
6.68548e-05
-3.23646e-06
7.12589e-06
6.59086e-05
-4.26947e-06
9.12406e-06
6.44135e-05
-5.51591e-06
1.18772e-05
6.21646e-05
-6.99858e-06
1.56764e-05
5.86688e-05
-8.72963e-06
2.11133e-05
5.31791e-05
-1.06862e-05
2.89774e-05
4.36949e-05
-1.25876e-05
4.06733e-05
2.78156e-05
-1.35466e-05
5.63262e-05
-8.8206e-06
6.33501e-05
5.05327e-05
1.19998e-05
4.41335e-09
4.15034e-05
9.05731e-06
-9.19507e-08
3.54062e-05
6.08152e-06
-2.62534e-07
3.19224e-05
3.40563e-06
-4.66333e-07
2.98069e-05
1.95542e-06
-7.19575e-07
2.83014e-05
1.2422e-06
-1.03825e-06
2.69392e-05
9.68112e-07
-1.4408e-06
2.54685e-05
9.11143e-07
-1.94032e-06
2.37216e-05
9.75834e-07
-2.55577e-06
2.15789e-05
1.10184e-06
-3.29285e-06
1.89084e-05
1.27938e-06
-4.17906e-06
1.56408e-05
1.44253e-06
-5.16147e-06
1.16157e-05
1.63694e-06
-6.28801e-06
7.05651e-06
1.6153e-06
-7.2048e-06
2.12297e-06
1.49127e-06
-7.6524e-06
-1.99856e-07
-4.83741e-06
6.49169e-05
9.61666e-06
-3.12513e-08
6.39887e-05
1.00013e-05
-2.16985e-07
6.20421e-05
7.97353e-06
-5.0743e-07
5.98589e-05
5.43399e-06
-8.50914e-07
5.77775e-05
3.75156e-06
-1.26845e-06
5.57456e-05
2.82318e-06
-1.79134e-06
5.35782e-05
2.47357e-06
-2.4546e-06
5.10684e-05
2.49004e-06
-3.28664e-06
4.80064e-05
2.76203e-06
-4.32156e-06
4.41766e-05
3.21279e-06
-5.57997e-06
3.93374e-05
3.82494e-06
-7.10456e-06
3.32563e-05
4.50712e-06
-8.8431e-06
2.56507e-05
5.29532e-06
-1.08348e-05
1.65687e-05
5.78313e-06
-1.25829e-05
6.54885e-06
5.78434e-06
-1.3406e-05
2.50114e-06
-8.44026e-06
6.58612e-05
6.28896e-06
-4.06773e-08
6.74178e-05
8.45608e-06
-2.50933e-07
6.75634e-05
7.76346e-06
-5.66627e-07
6.66924e-05
6.13393e-06
-9.34118e-07
6.5302e-05
4.83283e-06
-1.37844e-06
6.35657e-05
4.0745e-06
-1.93517e-06
6.14728e-05
3.85722e-06
-2.64295e-06
5.89001e-05
4.06696e-06
-3.53379e-06
5.56633e-05
4.63514e-06
-4.64458e-06
5.15325e-05
5.50657e-06
-6.0006e-06
4.62224e-05
6.6835e-06
-7.64644e-06
3.94253e-05
8.07642e-06
-9.53588e-06
3.07601e-05
9.73424e-06
-1.17004e-05
2.01647e-05
1.11041e-05
-1.3626e-05
8.16969e-06
1.16296e-05
-1.45216e-05
6.55296e-06
-9.08695e-06
6.46183e-05
4.20617e-06
-3.44929e-08
6.6399e-05
6.69015e-06
-2.4206e-07
6.72474e-05
6.85516e-06
-5.54188e-07
6.71427e-05
6.07381e-06
-9.15696e-07
6.63717e-05
5.30302e-06
-1.35218e-06
6.50867e-05
4.8858e-06
-1.89898e-06
6.33191e-05
4.93074e-06
-2.59381e-06
6.09907e-05
5.4199e-06
-3.46813e-06
5.79461e-05
6.34338e-06
-4.55746e-06
5.39603e-05
7.69142e-06
-5.88785e-06
4.873e-05
9.50957e-06
-7.50138e-06
4.18978e-05
1.17403e-05
-9.35777e-06
3.29955e-05
1.44843e-05
-1.14819e-05
2.18682e-05
1.70409e-05
-1.33796e-05
8.89974e-06
1.854e-05
-1.42491e-05
1.14092e-05
-8.87662e-06
6.38037e-05
2.94171e-06
-2.03825e-08
6.53153e-05
5.2014e-06
-2.12768e-07
6.63103e-05
5.81227e-06
-5.10835e-07
6.65976e-05
5.63768e-06
-8.57607e-07
6.62674e-05
5.35345e-06
-1.27639e-06
6.53974e-05
5.31006e-06
-1.79998e-06
6.40076e-05
5.66401e-06
-2.46314e-06
6.20367e-05
6.46617e-06
-3.295e-06
5.93511e-05
7.76195e-06
-4.3275e-06
5.57347e-05
9.60043e-06
-5.5857e-06
5.08768e-05
1.20901e-05
-7.10602e-06
4.43611e-05
1.52547e-05
-8.85544e-06
3.55992e-05
1.93141e-05
-1.0849e-05
2.41954e-05
2.35222e-05
-1.26375e-05
1.01491e-05
2.68381e-05
-1.34354e-05
1.77333e-05
-8.33706e-06
6.33972e-05
2.08829e-06
-3.23006e-09
6.46705e-05
3.96111e-06
-1.74862e-07
6.56877e-05
4.76249e-06
-4.54126e-07
6.62074e-05
4.98981e-06
-7.82404e-07
6.62024e-05
5.10555e-06
-1.17924e-06
6.569e-05
5.41227e-06
-1.67374e-06
6.46694e-05
6.07573e-06
-2.29686e-06
6.30844e-05
7.19112e-06
-3.07464e-06
6.0816e-05
8.85126e-06
-4.0344e-06
5.7655e-05
1.11736e-05
-5.19946e-06
5.32857e-05
1.43447e-05
-6.59874e-06
4.72275e-05
1.85272e-05
-8.20771e-06
3.87724e-05
2.41236e-05
-1.00281e-05
2.72074e-05
3.05156e-05
-1.16714e-05
1.19895e-05
3.67166e-05
-1.23779e-05
2.61695e-05
-7.66902e-06
6.32335e-05
1.4038e-06
1.64108e-08
6.43957e-05
2.84388e-06
-1.30841e-07
6.54493e-05
3.69432e-06
-3.88011e-07
6.61479e-05
4.18701e-06
-6.94865e-07
6.64124e-05
4.61981e-06
-1.0662e-06
6.62311e-05
5.22515e-06
-1.52655e-06
6.55991e-05
6.15554e-06
-2.10212e-06
6.44783e-05
7.52947e-06
-2.81479e-06
6.27866e-05
9.47175e-06
-3.6857e-06
6.03593e-05
1.2163e-05
-4.73447e-06
5.69397e-05
1.58592e-05
-5.9792e-06
5.20491e-05
2.09204e-05
-7.40247e-06
4.49443e-05
2.79822e-05
-8.98569e-06
3.42645e-05
3.7135e-05
-1.04185e-05
1.83159e-05
4.7954e-05
-1.09768e-05
4.13525e-05
-6.8101e-06
6.31911e-05
3.72118e-08
7.67303e-07
6.43484e-05
-8.37716e-08
1.74434e-06
6.54832e-05
-3.17066e-07
2.56434e-06
6.63493e-05
-6.0097e-07
3.24262e-06
6.68486e-05
-9.4511e-07
3.9331e-06
6.69621e-05
-1.36899e-06
4.78815e-06
6.6691e-05
-1.89385e-06
5.93496e-06
6.60183e-05
-2.53697e-06
7.50263e-06
6.48971e-05
-3.31302e-06
9.63649e-06
6.3207e-05
-4.23718e-06
1.25744e-05
6.07559e-05
-5.31621e-06
1.66279e-05
5.7091e-05
-6.5385e-06
2.23942e-05
5.15459e-05
-7.86521e-06
3.07063e-05
4.22872e-05
-9.07079e-06
4.28769e-05
2.7114e-05
-9.49502e-06
5.90756e-05
-6.05122e-06
6.5697e-05
5.05097e-05
1.20027e-05
-8.00076e-09
4.14347e-05
9.06538e-06
-8.22933e-08
3.52815e-05
6.09135e-06
-2.00748e-07
3.17379e-05
3.41617e-06
-3.3884e-07
2.9559e-05
1.96799e-06
-5.08697e-07
2.79846e-05
1.25849e-06
-7.22281e-07
2.65456e-05
9.90006e-07
-9.91857e-07
2.49897e-05
9.40603e-07
-1.32505e-06
2.31511e-05
1.01567e-06
-1.73283e-06
2.09177e-05
1.15567e-06
-2.21513e-06
1.81713e-05
1.35301e-06
-2.7857e-06
1.48682e-05
1.54405e-06
-3.40238e-06
1.08892e-05
1.77782e-06
-4.08682e-06
6.48401e-06
1.81286e-06
-4.61248e-06
1.89368e-06
1.73644e-06
-4.7985e-06
5.00576e-08
-2.99379e-06
6.48833e-05
9.62472e-06
-3.65863e-08
6.38882e-05
1.00196e-05
-1.76071e-07
6.1853e-05
7.99847e-06
-3.79374e-07
5.95684e-05
5.46372e-06
-6.13785e-07
5.73755e-05
3.78782e-06
-8.95447e-07
5.52205e-05
2.86931e-06
-1.24717e-06
5.29146e-05
2.53408e-06
-1.69276e-06
5.02484e-05
2.57002e-06
-2.24988e-06
4.70131e-05
2.86827e-06
-2.93881e-06
4.30035e-05
3.35292e-06
-3.76767e-06
3.79993e-05
4.01029e-06
-4.75757e-06
3.18139e-05
4.74864e-06
-5.86232e-06
2.42385e-05
5.61023e-06
-7.09181e-06
1.54101e-05
6.17964e-06
-8.12123e-06
5.98816e-06
6.24354e-06
-8.49116e-06
2.86839e-06
-5.27042e-06
6.58269e-05
6.30096e-06
-4.38092e-08
6.73137e-05
8.48304e-06
-2.01169e-07
6.73658e-05
7.80218e-06
-4.22438e-07
6.63864e-05
6.18236e-06
-6.73435e-07
6.48762e-05
4.89303e-06
-9.7343e-07
6.30072e-05
4.15127e-06
-1.34815e-06
6.07648e-05
3.95757e-06
-1.82399e-06
5.80229e-05
4.19921e-06
-2.42106e-06
5.45978e-05
4.81018e-06
-3.16141e-06
5.02701e-05
5.73614e-06
-4.05609e-06
4.47769e-05
6.98405e-06
-5.12702e-06
3.78602e-05
8.46066e-06
-6.33117e-06
2.92191e-05
1.02231e-05
-7.67215e-06
1.88931e-05
1.16915e-05
-8.81198e-06
7.54687e-06
1.22857e-05
-9.21751e-06
7.01182e-06
-5.6835e-06
6.45849e-05
4.22131e-06
-3.97088e-08
6.6297e-05
6.72431e-06
-1.9542e-07
6.70538e-05
6.90552e-06
-4.14327e-07
6.68432e-05
6.13846e-06
-6.61188e-07
6.59553e-05
5.38449e-06
-9.55817e-07
6.45411e-05
4.99027e-06
-1.32377e-06
6.26282e-05
5.06752e-06
-1.79085e-06
6.01357e-05
5.60043e-06
-2.37682e-06
5.69086e-05
6.58262e-06
-3.10287e-06
5.27321e-05
8.00543e-06
-3.98061e-06
4.73248e-05
9.92037e-06
-5.03035e-06
4.03773e-05
1.22633e-05
-6.21295e-06
3.15003e-05
1.51458e-05
-7.52771e-06
2.06382e-05
1.78232e-05
-8.6492e-06
8.30739e-06
1.94047e-05
-9.03723e-06
1.1988e-05
-5.54536e-06
6.37715e-05
2.95938e-06
-2.99498e-08
6.52168e-05
5.24153e-06
-1.75279e-07
6.61238e-05
5.8722e-06
-3.84533e-07
6.63103e-05
5.71568e-06
-6.21272e-07
6.58696e-05
5.45261e-06
-9.0382e-07
6.4878e-05
5.43781e-06
-1.256e-06
6.33524e-05
5.83168e-06
-1.70166e-06
6.12289e-05
6.68804e-06
-2.25907e-06
5.83743e-05
8.0568e-06
-2.94714e-06
5.45823e-05
9.98876e-06
-3.77704e-06
4.95623e-05
1.26e-05
-4.76565e-06
4.29432e-05
1.59059e-05
-5.87891e-06
3.42099e-05
2.01406e-05
-7.11036e-06
2.30593e-05
2.44994e-05
-8.16325e-06
9.61379e-06
2.79248e-05
-8.50998e-06
1.84645e-05
-5.19986e-06
6.33663e-05
2.10795e-06
-1.80983e-08
6.45763e-05
4.00585e-06
-1.4915e-07
6.55101e-05
4.8297e-06
-3.45464e-07
6.59349e-05
5.07795e-06
-5.69517e-07
6.58271e-05
5.21827e-06
-8.37078e-07
6.52026e-05
5.55806e-06
-1.16949e-06
6.40579e-05
6.26764e-06
-1.58806e-06
6.23344e-05
7.4459e-06
-2.10905e-06
5.99142e-05
9.19113e-06
-2.74845e-06
5.65965e-05
1.16235e-05
-3.51654e-06
5.20846e-05
1.49388e-05
-4.42566e-06
4.5939e-05
1.92915e-05
-5.44771e-06
3.75182e-05
2.51019e-05
-6.56864e-06
2.61935e-05
3.1683e-05
-7.53028e-06
1.15275e-05
3.80379e-05
-7.82495e-06
2.70939e-05
-4.77089e-06
6.32042e-05
1.42472e-06
-4.53349e-09
6.43065e-05
2.8915e-06
-1.18802e-07
6.5282e-05
3.76607e-06
-2.99934e-07
6.58929e-05
4.28151e-06
-5.09329e-07
6.60635e-05
4.74106e-06
-7.59535e-07
6.57815e-05
5.38236e-06
-1.06881e-06
6.50395e-05
6.36282e-06
-1.45535e-06
6.37981e-05
7.80526e-06
-1.93279e-06
6.19763e-05
9.84053e-06
-2.51329e-06
5.94175e-05
1.26531e-05
-3.20521e-06
5.58823e-05
1.65094e-05
-4.01466e-06
5.09277e-05
2.17628e-05
-4.91915e-06
4.38687e-05
2.9069e-05
-5.89378e-06
3.3416e-05
3.84465e-05
-6.72931e-06
1.79558e-05
4.94685e-05
-6.94716e-06
4.24829e-05
-4.24331e-06
6.31635e-05
9.80865e-09
7.8866e-07
6.42647e-05
-8.63759e-08
1.79292e-06
6.53271e-05
-2.51101e-07
2.63762e-06
6.61131e-05
-4.44793e-07
3.33939e-06
6.6528e-05
-6.76472e-07
4.05754e-06
6.65526e-05
-9.61027e-07
4.94972e-06
6.61868e-05
-1.31335e-06
6.14818e-06
6.54125e-05
-1.74419e-06
7.7867e-06
6.41848e-05
-2.26165e-06
1.00169e-05
6.2391e-05
-2.87173e-06
1.30815e-05
5.98554e-05
-3.57391e-06
1.73027e-05
5.61558e-05
-4.3506e-06
2.32744e-05
5.06765e-05
-5.16629e-06
3.18494e-05
4.16399e-05
-5.86487e-06
4.42771e-05
2.6896e-05
-6.01591e-06
6.07333e-05
-3.77254e-06
6.71002e-05