/*--------------------------------*- C++ -*----------------------------------*\
| =========                 |                                                 |
| \\      /  F ield         | OpenFOAM: The Open Source CFD Toolbox           |
|  \\    /   O peration     | Version:  v1912                                 |
|   \\  /    A nd           | Website:  www.openfoam.com                      |
|    \\/     M anipulation  |                                                 |
\*---------------------------------------------------------------------------*/
FoamFile
{
    version     2.0;
    format      ascii;
    class       pointVectorField;
    location    "0.39/fluid";
    object      pointMotionU;
}
// * * * * * * * * * * * * * * * * * * * * * * * * * * * * * * * * * * * * * //

dimensions      [0 1 -1 0 0 0 0];


internalField   nonuniform List<vector> 
16859
(
(0 0 0)
(0 0 0)
(0 0 0)
(0 0 0)
(0 0 0)
(0 0 0)
(0 0 0)
(0 0 0)
(0 0 0)
(0 0 0)
(0 0 0)
(0 0 0)
(0 0 0)
(0 0 0)
(0 0 0)
(0 0 0)
(2.7112e-08 4.60147e-08 2.57339e-08)
(0 0 0)
(6.85996e-10 -1.61143e-09 1.24943e-09)
(1.30764e-09 -3.08379e-09 2.43309e-09)
(1.88748e-09 -4.47625e-09 3.6347e-09)
(2.44575e-09 -5.83238e-09 4.92793e-09)
(3.0017e-09 -7.17823e-09 6.38051e-09)
(3.57565e-09 -8.52033e-09 8.05729e-09)
(4.1918e-09 -9.84074e-09 1.00218e-08)
(4.8832e-09 -1.10861e-08 1.23363e-08)
(5.70209e-09 -1.21467e-08 1.50615e-08)
(6.74284e-09 -1.2819e-08 1.82572e-08)
(8.19153e-09 -1.27337e-08 2.19935e-08)
(1.04402e-08 -1.12082e-08 2.63996e-08)
(1.43166e-08 -6.93933e-09 3.18104e-08)
(2.14034e-08 2.50783e-09 3.90686e-08)
(3.26863e-08 1.89705e-08 4.87339e-08)
(5.40729e-08 5.38188e-08 6.18947e-08)
(0 0 0)
(1.35826e-09 -3.17504e-09 2.46704e-09)
(2.58874e-09 -6.07813e-09 4.8035e-09)
(3.73572e-09 -8.82686e-09 7.1737e-09)
(4.83883e-09 -1.15086e-08 9.72205e-09)
(5.93591e-09 -1.41791e-08 1.25819e-08)
(7.06643e-09 -1.68582e-08 1.58808e-08)
(8.27596e-09 -1.95215e-08 1.97431e-08)
(9.62359e-09 -2.20829e-08 2.42899e-08)
(1.1196e-08 -2.43626e-08 2.96352e-08)
(1.31353e-08 -2.60342e-08 3.58785e-08)
(1.56951e-08 -2.65449e-08 4.30998e-08)
(1.93538e-08 -2.50026e-08 5.13746e-08)
(2.4968e-08 -2.00976e-08 6.08247e-08)
(3.37624e-08 -1.03768e-08 7.16355e-08)
(4.53151e-08 3.02139e-09 8.27802e-08)
(6.90865e-08 2.13992e-08 1.01646e-07)
(0 0 0)
(2.00374e-09 -4.64319e-09 3.62322e-09)
(3.81823e-09 -8.893e-09 7.05289e-09)
(5.50806e-09 -1.29247e-08 1.05284e-08)
(7.13098e-09 -1.68711e-08 1.426e-08)
(8.74234e-09 -2.08228e-08 1.84424e-08)
(1.03991e-08 -2.48238e-08 2.32618e-08)
(1.21649e-08 -2.88618e-08 2.89001e-08)
(1.41175e-08 -3.28508e-08 3.55343e-08)
(1.63597e-08 -3.65973e-08 4.33292e-08)
(1.9037e-08 -3.97507e-08 5.24177e-08)
(2.23707e-08 -4.17406e-08 6.28716e-08)
(2.6719e-08 -4.17268e-08 7.46682e-08)
(3.26287e-08 -3.86777e-08 8.76457e-08)
(4.07463e-08 -3.18724e-08 1.01419e-07)
(5.03598e-08 -2.29181e-08 1.1426e-07)
(6.93664e-08 -1.06603e-08 1.32719e-07)
(0 0 0)
(2.60994e-09 -5.96744e-09 4.69078e-09)
(4.97193e-09 -1.14361e-08 9.12751e-09)
(7.16887e-09 -1.66374e-08 1.36168e-08)
(9.275e-09 -2.17508e-08 1.84276e-08)
(1.13615e-08 -2.69065e-08 2.38093e-08)
(1.35014e-08 -3.21833e-08 3.00004e-08)
(1.57745e-08 -3.76012e-08 3.72355e-08)
(1.82742e-08 -4.31071e-08 4.57449e-08)
(2.11131e-08 -4.85477e-08 5.5746e-08)
(2.44264e-08 -5.36288e-08 6.74155e-08)
(2.8378e-08 -5.78622e-08 8.08449e-08)
(3.3162e-08 -6.05168e-08 9.59646e-08)
(3.89644e-08 -6.06436e-08 1.12407e-07)
(4.58563e-08 -5.73594e-08 1.2928e-07)
(5.29893e-08 -5.12794e-08 1.43968e-07)
(6.76977e-08 -3.97832e-08 1.62211e-07)
(0 0 0)
(3.1656e-09 -7.10053e-09 5.64699e-09)
(6.02806e-09 -1.36167e-08 1.09824e-08)
(8.68591e-09 -1.98327e-08 1.63699e-08)
(1.12276e-08 -2.59737e-08 2.21282e-08)
(1.37383e-08 -3.22126e-08 2.85517e-08)
(1.63053e-08 -3.86703e-08 3.59233e-08)
(1.90244e-08 -4.54139e-08 4.45221e-08)
(2.20058e-08 -5.24494e-08 5.4627e-08)
(2.53792e-08 -5.97052e-08 6.65099e-08)
(2.92913e-08 -6.70054e-08 8.04108e-08)
(3.39008e-08 -7.40238e-08 9.64958e-08)
(3.9349e-08 -8.02063e-08 1.14771e-07)
(4.56614e-08 -8.46428e-08 1.34891e-07)
(5.25599e-08 -8.59186e-08 1.55758e-07)
(5.88249e-08 -8.28698e-08 1.73798e-07)
(7.09988e-08 -6.99805e-08 1.93694e-07)
(0 0 0)
(3.66111e-09 -7.99762e-09 6.47443e-09)
(6.96795e-09 -1.53482e-08 1.25832e-08)
(1.00314e-08 -2.23829e-08 1.87352e-08)
(1.29512e-08 -2.93687e-08 2.52873e-08)
(1.58234e-08 -3.65195e-08 3.25685e-08)
(1.87476e-08 -4.40008e-08 4.08941e-08)
(2.18339e-08 -5.19327e-08 5.05765e-08)
(2.52116e-08 -6.03923e-08 6.19322e-08)
(2.9037e-08 -6.9412e-08 7.52808e-08)
(3.35013e-08 -7.89729e-08 9.09339e-08)
(3.88393e-08 -8.89876e-08 1.09174e-07)
(4.53302e-08 -9.92485e-08 1.30213e-07)
(5.32298e-08 -1.09264e-07 1.54039e-07)
(6.2528e-08 -1.17836e-07 1.79945e-07)
(7.16549e-08 -1.224e-07 2.03816e-07)
(8.59646e-08 -1.11019e-07 2.29911e-07)
(0 0 0)
(4.08883e-09 -8.61858e-09 7.16159e-09)
(7.777e-09 -1.6553e-08 1.39074e-08)
(1.11838e-08 -2.41721e-08 2.06784e-08)
(1.44161e-08 -3.17774e-08 2.78575e-08)
(1.75774e-08 -3.96178e-08 3.5795e-08)
(2.0775e-08 -4.78982e-08 4.48248e-08)
(2.41291e-08 -5.67876e-08 5.52765e-08)
(2.77835e-08 -6.64285e-08 6.74849e-08)
(3.19199e-08 -7.69493e-08 8.17954e-08)
(3.67789e-08 -8.848e-08 9.85662e-08)
(4.27001e-08 -1.01178e-07 1.18179e-07)
(5.01874e-08 -1.15267e-07 1.41062e-07)
(5.99833e-08 -1.3105e-07 1.67675e-07)
(7.30361e-08 -1.4875e-07 1.98267e-07)
(8.83964e-08 -1.66392e-07 2.29336e-07)
(1.17583e-07 -1.87178e-07 2.71527e-07)
(0 0 0)
(4.44385e-09 -8.93055e-09 7.70357e-09)
(8.44625e-09 -1.71676e-08 1.49464e-08)
(1.21302e-08 -2.51052e-08 2.2188e-08)
(1.56054e-08 -3.30684e-08 2.98239e-08)
(1.89774e-08 -4.13311e-08 3.82122e-08)
(2.23554e-08 -5.01268e-08 4.769e-08)
(2.58612e-08 -5.96592e-08 5.85847e-08)
(2.96412e-08 -7.01154e-08 7.12245e-08)
(3.38817e-08 -8.16829e-08 8.59433e-08)
(3.88354e-08 -9.45728e-08 1.03087e-07)
(4.48667e-08 -1.0906e-07 1.23034e-07)
(5.25226e-08 -1.25548e-07 1.46223e-07)
(6.26133e-08 -1.44646e-07 1.73195e-07)
(7.61689e-08 -1.67174e-07 2.04496e-07)
(9.18406e-08 -1.90984e-07 2.36534e-07)
(1.37654e-07 -2.39723e-07 2.96014e-07)
(0 0 0)
(0 0 0)
(0 0 0)
(0 0 0)
(0 0 0)
(0 0 0)
(0 0 0)
(0 0 0)
(0 0 0)
(0 0 0)
(0 0 0)
(0 0 0)
(0 0 0)
(0 0 0)
(0 0 0)
(0 0 0)
(1.28477e-08 2.25884e-08 1.14886e-08)
(0 0 0)
(6.81021e-10 -1.64525e-09 1.21027e-09)
(1.29647e-09 -3.1485e-09 2.35513e-09)
(1.86731e-09 -4.57072e-09 3.51439e-09)
(2.41188e-09 -5.95747e-09 4.75807e-09)
(2.9468e-09 -7.33686e-09 6.15002e-09)
(3.48821e-09 -8.71742e-09 7.75021e-09)
(4.05372e-09 -1.0084e-08 9.61567e-09)
(4.66585e-09 -1.13882e-08 1.17997e-08)
(5.35981e-09 -1.25302e-08 1.43488e-08)
(6.20163e-09 -1.33258e-08 1.7298e-08)
(7.3306e-09 -1.34471e-08 2.06685e-08)
(9.05697e-09 -1.23015e-08 2.44823e-08)
(1.20491e-08 -8.78716e-09 2.88178e-08)
(1.75273e-08 -9.69492e-10 3.38809e-08)
(2.61621e-08 1.24902e-08 3.94499e-08)
(3.53454e-08 3.02581e-08 4.17788e-08)
(0 0 0)
(1.3489e-09 -3.24098e-09 2.38936e-09)
(2.56772e-09 -6.2043e-09 4.64893e-09)
(3.69784e-09 -9.01144e-09 6.93559e-09)
(4.77537e-09 -1.17536e-08 9.38664e-09)
(5.83315e-09 -1.449e-08 1.21276e-08)
(6.90289e-09 -1.72443e-08 1.52766e-08)
(8.01794e-09 -1.99969e-08 1.89454e-08)
(9.21803e-09 -2.267e-08 2.32383e-08)
(1.05587e-08 -2.51001e-08 2.82439e-08)
(1.21315e-08 -2.69932e-08 3.40195e-08)
(1.41107e-08 -2.7863e-08 4.05688e-08)
(1.68484e-08 -2.69568e-08 4.7819e-08)
(2.10116e-08 -2.32448e-08 5.55939e-08)
(2.75624e-08 -1.58185e-08 6.3528e-08)
(3.63668e-08 -5.95712e-09 7.05465e-08)
(4.59109e-08 -6.80359e-10 7.62543e-08)
(0 0 0)
(1.99127e-09 -4.73864e-09 3.50879e-09)
(3.79014e-09 -9.07585e-09 6.82543e-09)
(5.45735e-09 -1.31927e-08 1.01786e-08)
(7.04599e-09 -1.72273e-08 1.37684e-08)
(8.60466e-09 -2.12749e-08 1.77778e-08)
(1.018e-08 -2.53842e-08 2.23795e-08)
(1.18196e-08 -2.95488e-08 2.77376e-08)
(1.35759e-08 -3.36923e-08 3.40062e-08)
(1.55106e-08 -3.7639e-08 4.13165e-08)
(1.7704e-08 -4.10734e-08 4.97499e-08)
(2.02765e-08 -4.34965e-08 5.92938e-08)
(2.34329e-08 -4.42137e-08 6.97766e-08)
(2.75131e-08 -4.24757e-08 8.07735e-08)
(3.29575e-08 -3.80654e-08 9.14705e-08)
(3.94974e-08 -3.2696e-08 1.00314e-07)
(4.54238e-08 -3.08477e-08 1.06159e-07)
(0 0 0)
(2.59612e-09 -6.08914e-09 4.54251e-09)
(4.94059e-09 -1.16695e-08 8.83315e-09)
(7.11189e-09 -1.69799e-08 1.31649e-08)
(9.17902e-09 -2.22062e-08 1.77936e-08)
(1.12056e-08 -2.74841e-08 2.29538e-08)
(1.32531e-08 -3.28975e-08 2.88667e-08)
(1.53838e-08 -3.84721e-08 3.57451e-08)
(1.76628e-08 -4.41634e-08 4.37915e-08)
(2.01572e-08 -4.98329e-08 5.31837e-08)
(2.29311e-08 -5.52144e-08 6.40427e-08)
(2.60349e-08 -5.98759e-08 7.63734e-08)
(2.94863e-08 -6.31981e-08 8.99675e-08)
(3.32282e-08 -6.44463e-08 1.04233e-07)
(3.70998e-08 -6.31232e-08 1.17924e-07)
(4.07219e-08 -5.99859e-08 1.28698e-07)
(4.34725e-08 -5.8564e-08 1.34735e-07)
(0 0 0)
(3.15245e-09 -7.24455e-09 5.46879e-09)
(5.9977e-09 -1.38931e-08 1.0629e-08)
(8.62981e-09 -2.02385e-08 1.58282e-08)
(1.1132e-08 -2.65133e-08 2.13693e-08)
(1.35818e-08 -3.28962e-08 2.75294e-08)
(1.60555e-08 -3.95133e-08 3.45712e-08)
(1.86317e-08 -4.64365e-08 4.2749e-08)
(2.13936e-08 -5.36775e-08 5.23095e-08)
(2.44271e-08 -6.11738e-08 6.34808e-08)
(2.78104e-08 -6.87651e-08 7.64423e-08)
(3.15898e-08 -7.61545e-08 9.12692e-08)
(3.57224e-08 -8.28417e-08 1.07828e-07)
(3.99512e-08 -8.80111e-08 1.25557e-07)
(4.36602e-08 -9.04168e-08 1.4302e-07)
(4.59504e-08 -8.90105e-08 1.57046e-07)
(4.59787e-08 -8.63041e-08 1.64774e-07)
(0 0 0)
(3.65053e-09 -8.1593e-09 6.27085e-09)
(6.94254e-09 -1.56586e-08 1.21798e-08)
(9.98281e-09 -2.28387e-08 1.81176e-08)
(1.28662e-08 -2.99745e-08 2.44236e-08)
(1.56824e-08 -3.72863e-08 3.14072e-08)
(1.85211e-08 -4.49442e-08 3.93617e-08)
(2.14779e-08 -5.30721e-08 4.85725e-08)
(2.4659e-08 -6.17495e-08 5.93207e-08)
(2.81851e-08 -7.10115e-08 7.18786e-08)
(3.21904e-08 -8.0843e-08 8.64907e-08)
(3.68182e-08 -9.11612e-08 1.03339e-07)
(4.21911e-08 -1.01761e-07 1.22474e-07)
(4.83094e-08 -1.12142e-07 1.43618e-07)
(5.47907e-08 -1.2104e-07 1.65632e-07)
(6.0221e-08 -1.25905e-07 1.84861e-07)
(5.94546e-08 -1.21084e-07 1.9756e-07)
(0 0 0)
(4.08235e-09 -8.79246e-09 6.93745e-09)
(7.75969e-09 -1.68869e-08 1.34636e-08)
(1.11478e-08 -2.46625e-08 2e-08)
(1.43499e-08 -3.24292e-08 2.69104e-08)
(1.7464e-08 -4.04423e-08 3.45246e-08)
(2.05901e-08 -4.89113e-08 4.31535e-08)
(2.38372e-08 -5.80072e-08 5.30982e-08)
(2.73323e-08 -6.78727e-08 6.46571e-08)
(3.12319e-08 -7.86337e-08 7.81258e-08)
(3.57387e-08 -9.04153e-08 9.3791e-08)
(4.11337e-08 -1.03366e-07 1.11922e-07)
(4.7828e-08 -1.17688e-07 1.32756e-07)
(5.64348e-08 -1.33653e-07 1.56415e-07)
(6.77469e-08 -1.51376e-07 1.82503e-07)
(8.12624e-08 -1.69135e-07 2.07811e-07)
(9.29217e-08 -1.84773e-07 2.28082e-07)
(0 0 0)
(4.44243e-09 -9.11049e-09 7.46376e-09)
(8.43906e-09 -1.75133e-08 1.44721e-08)
(1.21103e-08 -2.56133e-08 2.1464e-08)
(1.55629e-08 -3.3744e-08 2.88153e-08)
(1.88989e-08 -4.2186e-08 3.68634e-08)
(2.22223e-08 -5.11768e-08 4.59221e-08)
(2.56474e-08 -6.09212e-08 5.62911e-08)
(2.93101e-08 -7.16044e-08 6.8262e-08)
(3.33817e-08 -8.34079e-08 8.21205e-08)
(3.8094e-08 -9.65319e-08 9.81424e-08)
(4.37823e-08 -1.11231e-07 1.16592e-07)
(5.09549e-08 -1.27874e-07 1.3772e-07)
(6.03871e-08 -1.4701e-07 1.61722e-07)
(7.31073e-08 -1.69291e-07 1.88463e-07)
(8.82728e-08 -1.92762e-07 2.14562e-07)
(1.17408e-07 -2.28151e-07 2.45067e-07)
(0 0 0)
(0 0 0)
(0 0 0)
(0 0 0)
(0 0 0)
(0 0 0)
(0 0 0)
(0 0 0)
(0 0 0)
(0 0 0)
(0 0 0)
(0 0 0)
(0 0 0)
(0 0 0)
(0 0 0)
(0 0 0)
(2.44404e-09 8.17245e-09 2.55169e-09)
(0 0 0)
(6.72633e-10 -1.67453e-09 1.12665e-09)
(1.27842e-09 -3.20482e-09 2.19116e-09)
(1.83607e-09 -4.6532e-09 3.2666e-09)
(2.36115e-09 -6.06657e-09 4.41664e-09)
(2.86649e-09 -7.47512e-09 5.6986e-09)
(3.36234e-09 -8.89025e-09 7.16482e-09)
(3.85682e-09 -1.03014e-08 8.86268e-09)
(4.35668e-09 -1.16696e-08 1.08324e-08)
(4.86973e-09 -1.29141e-08 1.31003e-08)
(5.41166e-09 -1.38934e-08 1.5666e-08)
(6.02364e-09 -1.43751e-08 1.84796e-08)
(6.80631e-09 -1.39916e-08 2.14032e-08)
(7.95345e-09 -1.21842e-08 2.41335e-08)
(9.65731e-09 -8.26452e-09 2.60229e-08)
(1.14892e-08 -2.43872e-09 2.5923e-08)
(9.80972e-09 3.18051e-09 1.7728e-08)
(0 0 0)
(1.33289e-09 -3.29798e-09 2.22407e-09)
(2.53331e-09 -6.31377e-09 4.32483e-09)
(3.63838e-09 -9.17169e-09 6.44607e-09)
(4.67909e-09 -1.19658e-08 8.71286e-09)
(5.68109e-09 -1.47588e-08 1.12378e-08)
(6.66506e-09 -1.75789e-08 1.41237e-08)
(7.64687e-09 -2.04144e-08 1.74641e-08)
(8.63759e-09 -2.32025e-08 2.13384e-08)
(9.644e-09 -2.58106e-08 2.57984e-08)
(1.06721e-08 -2.80101e-08 3.08408e-08)
(1.17398e-08 -2.94539e-08 3.63587e-08)
(1.28994e-08 -2.96828e-08 4.20578e-08)
(1.42391e-08 -2.8249e-08 4.73051e-08)
(1.57282e-08 -2.51891e-08 5.08915e-08)
(1.67419e-08 -2.20526e-08 5.12268e-08)
(1.46047e-08 -2.38515e-08 4.45374e-08)
(0 0 0)
(1.96922e-09 -4.82089e-09 3.26596e-09)
(3.74276e-09 -9.23371e-09 6.34943e-09)
(5.37556e-09 -1.34237e-08 9.46028e-09)
(6.91384e-09 -1.7533e-08 1.27807e-08)
(8.39637e-09 -2.1661e-08 1.64747e-08)
(9.85507e-09 -2.58614e-08 2.0693e-08)
(1.13145e-08 -3.01365e-08 2.55736e-08)
(1.27898e-08 -3.44254e-08 3.12356e-08)
(1.42805e-08 -3.85843e-08 3.77604e-08)
(1.57624e-08 -4.23642e-08 4.5153e-08)
(1.71747e-08 -4.54025e-08 5.32738e-08)
(1.84008e-08 -4.72754e-08 6.17254e-08)
(1.92244e-08 -4.77194e-08 6.96688e-08)
(1.92521e-08 -4.71756e-08 7.5608e-08)
(1.80199e-08 -4.72536e-08 7.77294e-08)
(1.28399e-08 -5.06579e-08 7.23204e-08)
(0 0 0)
(2.5702e-09 -6.19355e-09 4.22834e-09)
(4.88485e-09 -1.18697e-08 8.21765e-09)
(7.01569e-09 -1.72727e-08 1.22369e-08)
(9.02369e-09 -2.25929e-08 1.6519e-08)
(1.09612e-08 -2.79703e-08 2.12739e-08)
(1.28729e-08 -3.3493e-08 2.66955e-08)
(1.47953e-08 -3.91934e-08 3.29633e-08)
(1.67521e-08 -4.50383e-08 4.02361e-08)
(1.87426e-08 -5.09129e-08 4.8631e-08)
(2.0719e-08 -5.66003e-08 5.81791e-08)
(2.25442e-08 -6.17708e-08 6.87471e-08)
(2.3913e-08 -6.60112e-08 7.99021e-08)
(2.42388e-08 -6.89717e-08 9.06876e-08)
(2.26259e-08 -7.07412e-08 9.9343e-08)
(1.86528e-08 -7.22174e-08 1.03548e-07)
(1.03982e-08 -7.58954e-08 9.91496e-08)
(0 0 0)
(3.1251e-09 -7.36741e-09 5.09113e-09)
(5.93874e-09 -1.41285e-08 9.88963e-09)
(8.52786e-09 -2.05825e-08 1.47145e-08)
(1.09672e-08 -2.69665e-08 1.98413e-08)
(1.33229e-08 -3.34628e-08 2.55186e-08)
(1.56539e-08 -4.02004e-08 3.19767e-08)
(1.8013e-08 -4.72539e-08 3.94308e-08)
(2.04419e-08 -5.46391e-08 4.80765e-08)
(2.29596e-08 -6.23023e-08 5.80697e-08)
(2.55343e-08 -7.01035e-08 6.94843e-08)
(2.80267e-08 -7.77932e-08 8.22334e-08)
(3.00694e-08 -8.49786e-08 9.5924e-08)
(3.08638e-08 -9.10858e-08 1.09592e-07)
(2.90295e-08 -9.53806e-08 1.21309e-07)
(2.36092e-08 -9.73701e-08 1.28165e-07)
(1.23449e-08 -9.97107e-08 1.25394e-07)
(0 0 0)
(3.6241e-09 -8.29635e-09 5.83871e-09)
(6.88529e-09 -1.59211e-08 1.13344e-08)
(9.88337e-09 -2.32217e-08 1.68455e-08)
(1.27051e-08 -3.04779e-08 2.2681e-08)
(1.54291e-08 -3.79125e-08 2.91184e-08)
(1.81292e-08 -4.56965e-08 3.64151e-08)
(2.0877e-08 -5.3952e-08 4.48132e-08)
(2.37408e-08 -6.27541e-08 5.45364e-08)
(2.67803e-08 -7.21299e-08 6.57744e-08)
(3.0029e-08 -8.20521e-08 7.86474e-08)
(3.3455e-08 -9.24206e-08 9.31356e-08)
(3.68605e-08 -1.0301e-07 1.08941e-07)
(3.96709e-08 -1.13317e-07 1.25202e-07)
(4.06043e-08 -1.22225e-07 1.39958e-07)
(3.79763e-08 -1.27713e-07 1.49714e-07)
(2.53963e-08 -1.25852e-07 1.49428e-07)
(0 0 0)
(4.05883e-09 -8.93901e-09 6.46052e-09)
(7.70832e-09 -1.71675e-08 1.25314e-08)
(1.10578e-08 -2.50715e-08 1.85992e-08)
(1.42032e-08 -3.29656e-08 2.49951e-08)
(1.72328e-08 -4.1107e-08 3.20153e-08)
(2.02327e-08 -4.97038e-08 3.99329e-08)
(2.32915e-08 -5.89213e-08 4.90034e-08)
(2.6504e-08 -6.88903e-08 5.94641e-08)
(2.99754e-08 -7.97147e-08 7.15219e-08)
(3.38227e-08 -9.148e-08 8.53246e-08)
(3.81733e-08 -1.04261e-07 1.00903e-07)
(4.31422e-08 -1.18119e-07 1.18049e-07)
(4.87645e-08 -1.33042e-07 1.36035e-07)
(5.47737e-08 -1.48648e-07 1.52962e-07)
(5.99317e-08 -1.62887e-07 1.64793e-07)
(5.91771e-08 -1.73603e-07 1.64155e-07)
(0 0 0)
(4.4233e-09 -9.26143e-09 6.95197e-09)
(8.3966e-09 -1.78024e-08 1.34726e-08)
(1.20347e-08 -2.60344e-08 1.99645e-08)
(1.54382e-08 -3.42956e-08 2.67701e-08)
(1.8701e-08 -4.28678e-08 3.41924e-08)
(2.1916e-08 -5.19857e-08 4.25077e-08)
(2.51809e-08 -6.18457e-08 5.197e-08)
(2.86062e-08 -7.26162e-08 6.28111e-08)
(3.23231e-08 -8.44483e-08 7.5229e-08)
(3.64968e-08 -9.74874e-08 8.93618e-08)
(4.13416e-08 -1.11887e-07 1.05236e-07)
(4.71313e-08 -1.2782e-07 1.2266e-07)
(5.41784e-08 -1.45448e-07 1.40973e-07)
(6.26528e-08 -1.64685e-07 1.58503e-07)
(7.1266e-08 -1.83058e-07 1.71227e-07)
(8.54784e-08 -2.05889e-07 1.68845e-07)
(0 0 0)
(0 0 0)
(0 0 0)
(0 0 0)
(0 0 0)
(0 0 0)
(0 0 0)
(0 0 0)
(0 0 0)
(0 0 0)
(0 0 0)
(0 0 0)
(0 0 0)
(0 0 0)
(0 0 0)
(0 0 0)
(-2.02678e-09 2.14567e-09 2.12466e-09)
(0 0 0)
(6.62018e-10 -1.69876e-09 1.00281e-09)
(1.25591e-09 -3.25134e-09 1.94928e-09)
(1.79781e-09 -4.72129e-09 2.90355e-09)
(2.30018e-09 -6.15678e-09 3.92094e-09)
(2.77148e-09 -7.5897e-09 5.05029e-09)
(3.21548e-09 -9.03419e-09 6.33458e-09)
(3.63015e-09 -1.04847e-08 7.81044e-09)
(4.00586e-09 -1.19121e-08 9.50473e-09)
(4.32293e-09 -1.32565e-08 1.14259e-08)
(4.54926e-09 -1.44194e-08 1.35475e-08)
(4.6393e-09 -1.52572e-08 1.5779e-08)
(4.53168e-09 -1.55836e-08 1.79174e-08)
(4.12488e-09 -1.51906e-08 1.95658e-08)
(3.18961e-09 -1.39309e-08 2.00362e-08)
(1.41136e-09 -1.20332e-08 1.86092e-08)
(-1.79431e-09 -8.80219e-09 1.41921e-08)
(0 0 0)
(1.31259e-09 -3.34517e-09 1.97962e-09)
(2.49031e-09 -6.40437e-09 3.84752e-09)
(3.56536e-09 -9.30414e-09 5.72988e-09)
(4.56287e-09 -1.21408e-08 7.73537e-09)
(5.5003e-09 -1.49801e-08 9.95985e-09)
(6.38621e-09 -1.78546e-08 1.2488e-08)
(7.21783e-09 -2.07605e-08 1.53925e-08)
(7.97667e-09 -2.3651e-08 1.87271e-08)
(8.62121e-09 -2.64258e-08 2.25105e-08)
(9.07746e-09 -2.89216e-08 2.66939e-08)
(9.22901e-09 -3.09181e-08 3.11083e-08)
(8.9068e-09 -3.21859e-08 3.53791e-08)
(7.87411e-09 -3.26275e-08 3.88056e-08)
(5.84193e-09 -3.25587e-08 4.02945e-08)
(2.87148e-09 -3.28464e-08 3.90124e-08)
(-1.68377e-10 -3.53591e-08 3.62813e-08)
(0 0 0)
(1.94099e-09 -4.88898e-09 2.9072e-09)
(3.68302e-09 -9.36428e-09 5.64917e-09)
(5.27425e-09 -1.36142e-08 8.41001e-09)
(6.7528e-09 -1.77838e-08 1.1348e-08)
(8.14639e-09 -2.19756e-08 1.46028e-08)
(9.4707e-09 -2.62479e-08 1.82988e-08)
(1.07258e-08 -3.0611e-08 2.25439e-08)
(1.18884e-08 -3.50198e-08 2.74205e-08)
(1.28979e-08 -3.93624e-08 3.29636e-08)
(1.36345e-08 -4.34533e-08 3.91185e-08)
(1.38891e-08 -4.70495e-08 4.56737e-08)
(1.33259e-08 -4.99279e-08 5.216e-08)
(1.14677e-08 -5.20896e-08 5.77349e-08)
(7.85122e-09 -5.40798e-08 6.11813e-08)
(2.91239e-09 -5.67662e-08 6.16292e-08)
(-2.27492e-09 -6.08837e-08 6.06293e-08)
(0 0 0)
(2.53641e-09 -6.27979e-09 3.76435e-09)
(4.81338e-09 -1.20349e-08 7.31238e-09)
(6.89457e-09 -1.7513e-08 1.08799e-08)
(8.83142e-09 -2.29074e-08 1.46693e-08)
(1.06634e-08 -2.83609e-08 1.88593e-08)
(1.24169e-08 -3.39647e-08 2.36105e-08)
(1.41004e-08 -3.97559e-08 2.90637e-08)
(1.56953e-08 -4.57114e-08 3.5331e-08)
(1.71361e-08 -5.17371e-08 4.24698e-08)
(1.82758e-08 -5.76588e-08 5.04376e-08)
(1.88303e-08 -6.32287e-08 5.90153e-08)
(1.82944e-08 -6.81731e-08 6.76989e-08)
(1.58799e-08 -7.23317e-08 7.55783e-08)
(1.07372e-08 -7.58932e-08 8.13256e-08)
(3.40568e-09 -7.92845e-08 8.37953e-08)
(-4.3006e-09 -8.3455e-08 8.43679e-08)
(0 0 0)
(3.0884e-09 -7.46851e-09 4.53323e-09)
(5.86108e-09 -1.43219e-08 8.80165e-09)
(8.39627e-09 -2.08628e-08 1.3085e-08)
(1.07586e-08 -2.73311e-08 1.76225e-08)
(1.30006e-08 -3.39108e-08 2.2626e-08)
(1.51624e-08 -4.0731e-08 2.82864e-08)
(1.72681e-08 -4.78662e-08 3.47734e-08)
(1.93171e-08 -5.53319e-08 4.22257e-08)
(2.12637e-08 -6.30769e-08 5.07266e-08)
(2.29795e-08 -7.09708e-08 6.02564e-08)
(2.41836e-08 -7.87878e-08 7.06132e-08)
(2.43181e-08 -8.61852e-08 8.12944e-08)
(2.24011e-08 -9.26778e-08 9.13541e-08)
(1.71276e-08 -9.76348e-08 9.9342e-08)
(8.52316e-09 -1.00452e-07 1.03783e-07)
(-1.83706e-09 -1.02436e-07 1.0598e-07)
(0 0 0)
(3.58706e-09 -8.40864e-09 5.1998e-09)
(6.80685e-09 -1.61355e-08 1.00892e-08)
(9.75038e-09 -2.35315e-08 1.49827e-08)
(1.24944e-08 -3.08786e-08 2.01482e-08)
(1.51044e-08 -3.83996e-08 2.58226e-08)
(1.7636e-08 -4.62626e-08 3.22196e-08)
(2.01338e-08 -5.45835e-08 3.95299e-08)
(2.26262e-08 -6.34259e-08 4.79125e-08)
(2.51124e-08 -7.27988e-08 5.74716e-08)
(2.75355e-08 -8.26466e-08 6.82102e-08)
(2.97266e-08 -9.28248e-08 7.99487e-08)
(3.1295e-08 -1.03041e-07 9.21936e-08)
(3.14568e-08 -1.12706e-07 1.0395e-07)
(2.89469e-08 -1.20652e-07 1.13573e-07)
(2.30597e-08 -1.25009e-07 1.19182e-07)
(1.17047e-08 -1.2131e-07 1.22579e-07)
(0 0 0)
(4.02372e-09 -9.05852e-09 5.75462e-09)
(7.63382e-09 -1.73954e-08 1.11568e-08)
(1.09313e-08 -2.53999e-08 1.65455e-08)
(1.40027e-08 -3.33882e-08 2.22082e-08)
(1.69244e-08 -4.16162e-08 2.8398e-08)
(1.9766e-08 -5.02861e-08 3.53416e-08)
(2.25919e-08 -5.95516e-08 4.32404e-08)
(2.54618e-08 -6.95225e-08 5.22623e-08)
(2.84272e-08 -8.0267e-08 6.25202e-08)
(3.15235e-08 -9.18106e-08 7.40264e-08)
(3.47498e-08 -1.04125e-07 8.66103e-08)
(3.80249e-08 -1.17093e-07 9.97719e-08)
(4.11251e-08 -1.30419e-07 1.12436e-07)
(4.36437e-08 -1.43367e-07 1.22635e-07)
(4.5119e-08 -1.54027e-07 1.27806e-07)
(4.50681e-08 -1.603e-07 1.28925e-07)
(0 0 0)
(4.39187e-09 -9.38401e-09 6.1935e-09)
(8.32967e-09 -1.80359e-08 1.19969e-08)
(1.19206e-08 -2.63703e-08 1.77634e-08)
(1.52571e-08 -3.47265e-08 2.37904e-08)
(1.84227e-08 -4.33838e-08 3.03371e-08)
(2.1496e-08 -5.25689e-08 3.76333e-08)
(2.45547e-08 -6.24632e-08 4.5879e-08)
(2.76793e-08 -7.32081e-08 5.5237e-08)
(3.09565e-08 -8.49092e-08 6.58119e-08)
(3.44829e-08 -9.76354e-08 7.76055e-08)
(3.83634e-08 -1.11411e-07 9.04355e-08)
(4.26972e-08 -1.26189e-07 1.03793e-07)
(4.75489e-08 -1.41788e-07 1.16597e-07)
(5.28811e-08 -1.57692e-07 1.2688e-07)
(5.80067e-08 -1.71716e-07 1.31908e-07)
(6.98175e-08 -1.89227e-07 1.2781e-07)
(0 0 0)
(0 0 0)
(0 0 0)
(0 0 0)
(0 0 0)
(0 0 0)
(0 0 0)
(0 0 0)
(0 0 0)
(0 0 0)
(0 0 0)
(0 0 0)
(0 0 0)
(0 0 0)
(0 0 0)
(0 0 0)
(-3.59582e-09 1.00849e-10 2.65211e-09)
(0 0 0)
(6.50631e-10 -1.71781e-09 8.44184e-10)
(1.23196e-09 -3.28788e-09 1.6402e-09)
(1.75755e-09 -4.77473e-09 2.44135e-09)
(2.2368e-09 -6.22757e-09 3.2932e-09)
(2.67401e-09 -7.67958e-09 4.23502e-09)
(3.06703e-09 -9.14694e-09 5.30002e-09)
(3.40512e-09 -1.06282e-08 6.51469e-09)
(3.66571e-09 -1.21021e-08 7.89522e-09)
(3.80946e-09 -1.35246e-08 9.4394e-09)
(3.7746e-09 -1.48263e-08 1.1112e-08)
(3.47222e-09 -1.59163e-08 1.28233e-08)
(2.78216e-09 -1.66927e-08 1.44013e-08)
(1.54656e-09 -1.70557e-08 1.55686e-08)
(-4.1941e-10 -1.68962e-08 1.59777e-08)
(-3.02958e-09 -1.60908e-08 1.54847e-08)
(-5.90115e-09 -1.28647e-08 1.35824e-08)
(0 0 0)
(1.29078e-09 -3.38242e-09 1.66666e-09)
(2.44448e-09 -6.47579e-09 3.23784e-09)
(3.48837e-09 -9.40835e-09 4.81837e-09)
(4.44173e-09 -1.22781e-08 6.49767e-09)
(5.31423e-09 -1.51528e-08 8.35276e-09)
(6.10341e-09 -1.80683e-08 1.04493e-08)
(6.79059e-09 -2.10272e-08 1.28402e-08)
(7.33393e-09 -2.39951e-08 1.55584e-08)
(7.65795e-09 -2.68952e-08 1.86019e-08)
(7.64074e-09 -2.96079e-08 2.19067e-08)
(7.10399e-09 -3.19853e-08 2.53082e-08)
(5.81552e-09 -3.38969e-08 2.84949e-08)
(3.53961e-09 -3.53199e-08 3.0981e-08)
(2.41987e-10 -3.64329e-08 3.21992e-08)
(-3.29225e-09 -3.74757e-08 3.20097e-08)
(-5.32462e-09 -3.92967e-08 3.16364e-08)
(0 0 0)
(1.91053e-09 -4.94285e-09 2.44796e-09)
(3.61906e-09 -9.46742e-09 4.75478e-09)
(5.16687e-09 -1.3764e-08 7.07333e-09)
(6.58403e-09 -1.79794e-08 9.53362e-09)
(7.88765e-09 -2.22184e-08 1.2248e-08)
(9.07873e-09 -2.65424e-08 1.53133e-08)
(1.01363e-08 -3.09672e-08 1.88083e-08)
(1.10073e-08 -3.5459e-08 2.27851e-08)
(1.15896e-08 -3.99279e-08 2.7248e-08)
(1.17092e-08 -4.42277e-08 3.212e-08)
(1.10974e-08 -4.81774e-08 3.7194e-08)
(9.38309e-09 -5.16281e-08 4.20855e-08)
(6.17459e-09 -5.46042e-08 4.62271e-08)
(1.41901e-09 -5.74575e-08 4.9021e-08)
(-3.65259e-09 -6.05239e-08 5.03254e-08)
(-7.21991e-09 -6.40661e-08 5.13527e-08)
(0 0 0)
(2.49964e-09 -6.34801e-09 3.17031e-09)
(4.73619e-09 -1.21652e-08 6.15587e-09)
(6.76505e-09 -1.77012e-08 9.15236e-09)
(8.62814e-09 -2.31508e-08 1.23259e-08)
(1.03526e-08 -2.86581e-08 1.58204e-08)
(1.19479e-08 -3.43157e-08 1.97611e-08)
(1.33989e-08 -4.01629e-08 2.42515e-08)
(1.46543e-08 -4.61814e-08 2.93634e-08)
(1.56047e-08 -5.22879e-08 3.51134e-08)
(1.60508e-08 -5.8329e-08 4.14247e-08)
(1.56588e-08 -6.40887e-08 4.80742e-08)
(1.39197e-08 -6.93269e-08 5.46459e-08)
(1.01979e-08 -7.38734e-08 6.05377e-08)
(4.14562e-09 -7.77632e-08 6.51181e-08)
(-2.91078e-09 -8.10947e-08 6.80771e-08)
(-8.57777e-09 -8.45391e-08 7.04439e-08)
(0 0 0)
(3.0479e-09 -7.54831e-09 3.81858e-09)
(5.77608e-09 -1.44738e-08 7.41101e-09)
(8.25374e-09 -2.10809e-08 1.10093e-08)
(1.05353e-08 -2.76103e-08 1.48098e-08)
(1.26602e-08 -3.42458e-08 1.89832e-08)
(1.46509e-08 -4.1115e-08 2.36785e-08)
(1.65075e-08 -4.82889e-08 2.90208e-08)
(1.81962e-08 -5.57779e-08 3.50994e-08)
(1.96288e-08 -6.35248e-08 4.19444e-08)
(2.06283e-08 -7.13916e-08 4.94856e-08)
(2.08721e-08 -7.91415e-08 5.74953e-08)
(1.98163e-08 -8.64113e-08 6.55352e-08)
(1.6663e-08 -9.26697e-08 7.29566e-08)
(1.06515e-08 -9.7189e-08 7.90533e-08)
(2.59952e-09 -9.9277e-08 8.33513e-08)
(-5.41387e-09 -1.00085e-07 8.6871e-08)
(0 0 0)
(3.54538e-09 -8.49693e-09 4.38087e-09)
(6.71938e-09 -1.6303e-08 8.4967e-09)
(9.6038e-09 -2.37707e-08 1.26081e-08)
(1.22651e-08 -3.11818e-08 1.69352e-08)
(1.47561e-08 -3.87573e-08 2.1669e-08)
(1.7115e-08 -4.66602e-08 2.69765e-08)
(1.93633e-08 -5.49964e-08 3.29979e-08)
(2.1498e-08 -6.38141e-08 3.98351e-08)
(2.34787e-08 -7.30972e-08 4.75275e-08)
(2.52026e-08 -8.27514e-08 5.60086e-08)
(2.64622e-08 -9.25734e-08 6.50415e-08)
(2.68778e-08 -1.02184e-07 7.41459e-08)
(2.58382e-08 -1.10889e-07 8.25668e-08)
(2.26112e-08 -1.17446e-07 8.9407e-08)
(1.73122e-08 -1.20182e-07 9.40297e-08)
(8.53662e-09 -1.15043e-07 9.79826e-08)
(0 0 0)
(3.98315e-09 -9.15208e-09 4.84914e-09)
(7.54863e-09 -1.75725e-08 9.39729e-09)
(1.07886e-08 -2.56516e-08 1.39256e-08)
(1.37798e-08 -3.37047e-08 1.86701e-08)
(1.65868e-08 -4.19839e-08 2.38353e-08)
(1.92632e-08 -5.06832e-08 2.95983e-08)
(2.18525e-08 -5.99414e-08 3.61069e-08)
(2.43856e-08 -6.98432e-08 4.34674e-08)
(2.6878e-08 -8.04163e-08 5.17202e-08)
(2.93224e-08 -9.16224e-08 6.07936e-08)
(3.16771e-08 -1.03334e-07 7.04303e-08)
(3.38548e-08 -1.15293e-07 8.00878e-08)
(3.57522e-08 -1.27031e-07 8.8847e-08)
(3.74028e-08 -1.37728e-07 9.54554e-08)
(3.91368e-08 -1.4592e-07 9.88996e-08)
(4.1273e-08 -1.50377e-07 1.00834e-07)
(0 0 0)
(4.35423e-09 -9.47957e-09 5.21977e-09)
(8.25058e-09 -1.82165e-08 1.01065e-08)
(1.17881e-08 -2.66261e-08 1.49531e-08)
(1.50504e-08 -3.50461e-08 2.00042e-08)
(1.81104e-08 -4.37509e-08 2.54695e-08)
(2.10328e-08 -5.29569e-08 3.15286e-08)
(2.38768e-08 -6.2827e-08 3.83278e-08)
(2.66982e-08 -7.3472e-08 4.59689e-08)
(2.95524e-08 -8.49487e-08 5.44838e-08)
(3.24975e-08 -9.72501e-08 6.37874e-08)
(3.55978e-08 -1.10287e-07 7.36017e-08)
(3.89304e-08 -1.23855e-07 8.33455e-08)
(4.26206e-08 -1.37599e-07 9.2021e-08)
(4.6919e-08 -1.50953e-07 9.82201e-08)
(5.17588e-08 -1.62355e-07 1.00704e-07)
(6.50591e-08 -1.78009e-07 9.81771e-08)
(0 0 0)
(0 0 0)
(0 0 0)
(0 0 0)
(0 0 0)
(0 0 0)
(0 0 0)
(0 0 0)
(0 0 0)
(0 0 0)
(0 0 0)
(0 0 0)
(0 0 0)
(0 0 0)
(0 0 0)
(0 0 0)
(-4.00382e-09 -4.49533e-10 2.49872e-09)
(0 0 0)
(6.39931e-10 -1.7318e-09 6.57304e-10)
(1.20958e-09 -3.31461e-09 1.27657e-09)
(1.72023e-09 -4.81396e-09 1.89893e-09)
(2.17865e-09 -6.27973e-09 2.55925e-09)
(2.58566e-09 -7.74558e-09 3.28676e-09)
(2.93448e-09 -9.22912e-09 4.10537e-09)
(3.20826e-09 -1.07315e-08 5.03297e-09)
(3.37637e-09 -1.22365e-08 6.07858e-09)
(3.38971e-09 -1.37086e-08 7.23618e-09)
(3.17663e-09 -1.50928e-08 8.47476e-09)
(2.64208e-09 -1.63174e-08 9.72678e-09)
(1.67356e-09 -1.72988e-08 1.08796e-08)
(1.56989e-10 -1.79309e-08 1.17827e-08)
(-1.97894e-09 -1.8024e-08 1.2301e-08)
(-4.49025e-09 -1.72744e-08 1.24185e-08)
(-6.85379e-09 -1.37148e-08 1.14653e-08)
(0 0 0)
(1.27027e-09 -3.41001e-09 1.29787e-09)
(2.40163e-09 -6.52868e-09 2.52045e-09)
(3.41693e-09 -9.48548e-09 3.74853e-09)
(4.33039e-09 -1.23794e-08 5.05029e-09)
(5.14519e-09 -1.52791e-08 6.48321e-09)
(5.85032e-09 -1.82227e-08 8.09469e-09)
(6.41589e-09 -2.12166e-08 9.92061e-09)
(6.78579e-09 -2.42334e-08 1.19797e-08)
(6.8683e-09 -2.72092e-08 1.42621e-08)
(6.52773e-09 -3.00437e-08 1.67109e-08)
(5.58439e-09 -3.26126e-08 1.92018e-08)
(3.84219e-09 -3.4795e-08 2.1527e-08)
(1.18311e-09 -3.65199e-08 2.34106e-08)
(-2.1802e-09 -3.77871e-08 2.45948e-08)
(-5.23302e-09 -3.85849e-08 2.50378e-08)
(-6.26473e-09 -3.96314e-08 2.52233e-08)
(0 0 0)
(1.88183e-09 -4.98308e-09 1.90664e-09)
(3.5591e-09 -9.54432e-09 3.70208e-09)
(5.06693e-09 -1.38752e-08 5.50393e-09)
(6.42835e-09 -1.81234e-08 7.41119e-09)
(7.6517e-09 -2.23945e-08 9.50781e-09)
(8.72657e-09 -2.67517e-08 1.18638e-08)
(9.61733e-09 -3.12136e-08 1.45331e-08)
(1.02529e-08 -3.57518e-08 1.7546e-08)
(1.05125e-08 -4.02861e-08 2.08936e-08)
(1.02107e-08 -4.46846e-08 2.45052e-08)
(9.09077e-09 -4.87791e-08 2.82211e-08)
(6.85403e-09 -5.24115e-08 3.17832e-08)
(3.29727e-09 -5.55302e-08 3.48706e-08)
(-1.3012e-09 -5.82948e-08 3.72166e-08)
(-5.51439e-09 -6.08711e-08 3.87554e-08)
(-7.71962e-09 -6.36026e-08 3.98562e-08)
(0 0 0)
(2.46483e-09 -6.39916e-09 2.46977e-09)
(4.66347e-09 -1.22625e-08 4.79398e-09)
(6.64386e-09 -1.78406e-08 7.12306e-09)
(8.43959e-09 -2.33286e-08 9.58337e-09)
(1.00676e-08 -2.88707e-08 1.22826e-08)
(1.15241e-08 -3.45593e-08 1.53114e-08)
(1.27777e-08 -4.04335e-08 1.87411e-08)
(1.37576e-08 -4.64748e-08 2.26138e-08)
(1.43365e-08 -5.26003e-08 2.69258e-08)
(1.43083e-08 -5.86573e-08 3.16005e-08)
(1.33663e-08 -6.44232e-08 3.64605e-08)
(1.11054e-08 -6.96293e-08 4.12213e-08)
(7.12974e-09 -7.40261e-08 4.55393e-08)
(1.46844e-09 -7.75019e-08 4.91328e-08)
(-4.41207e-09 -8.0106e-08 5.18137e-08)
(-8.46259e-09 -8.26598e-08 5.37944e-08)
(0 0 0)
(3.00926e-09 -7.60813e-09 2.97537e-09)
(5.69537e-09 -1.4587e-08 5.77256e-09)
(8.11935e-09 -2.12416e-08 8.56973e-09)
(1.03266e-08 -2.78123e-08 1.15163e-08)
(1.23457e-08 -3.44815e-08 1.47401e-08)
(1.41854e-08 -4.13738e-08 1.83493e-08)
(1.58287e-08 -4.8555e-08 2.24296e-08)
(1.72229e-08 -5.60275e-08 2.70336e-08)
(1.82636e-08 -6.37215e-08 3.21627e-08)
(1.87709e-08 -7.14802e-08 3.77374e-08)
(1.84592e-08 -7.90373e-08 4.3566e-08)
(1.69059e-08 -8.59815e-08 4.93323e-08)
(1.35795e-08 -9.17103e-08 5.46479e-08)