/*--------------------------------*- C++ -*----------------------------------*\
| =========                 |                                                 |
| \\      /  F ield         | OpenFOAM: The Open Source CFD Toolbox           |
|  \\    /   O peration     | Version:  v1912                                 |
|   \\  /    A nd           | Website:  www.openfoam.com                      |
|    \\/     M anipulation  |                                                 |
\*---------------------------------------------------------------------------*/
FoamFile
{
    version     2.0;
    format      ascii;
    class       volScalarField;
    location    "0.39/fluid";
    object      T;
}
// * * * * * * * * * * * * * * * * * * * * * * * * * * * * * * * * * * * * * //

dimensions      [0 0 0 1 0 0 0];


internalField   nonuniform List<scalar> 
14592
(
273.175
273.535
273.922
274.347
274.821
275.359
275.974
276.681
277.496
278.434
279.516
280.764
282.204
283.877
285.858
288.331
273.174
273.531
273.914
274.335
274.806
275.34
275.95
276.651
277.46
278.392
279.467
280.708
282.144
283.816
285.797
288.253
273.171
273.524
273.901
274.316
274.781
275.306
275.908
276.599
277.395
278.315
279.377
280.606
282.033
283.702
285.689
288.168
273.168
273.514
273.885
274.291
274.746
275.261
275.85
276.526
277.306
278.206
279.248
280.457
281.868
283.529
285.527
288.049
273.164
273.502
273.864
274.26
274.703
275.205
275.777
276.434
277.192
278.066
279.08
280.259
281.64
283.283
285.287
287.867
273.16
273.488
273.84
274.225
274.654
275.139
275.692
276.326
277.055
277.897
278.872
280.007
281.343
282.945
284.934
287.573
273.155
273.473
273.813
274.185
274.599
275.066
275.596
276.204
276.9
277.702
278.628
279.703
280.969
282.491
284.41
287.057
273.149
273.457
273.785
274.143
274.54
274.987
275.494
276.071
276.731
277.486
278.353
279.353
280.519
281.909
283.645
286.069
273.181
273.555
273.956
274.397
274.892
275.454
276.099
276.842
277.702
278.698
279.851
281.187
282.738
284.547
286.685
289.28
273.18
273.55
273.948
274.385
274.876
275.434
276.073
276.811
277.665
278.654
279.8
281.13
282.677
284.485
286.626
289.218
273.177
273.542
273.934
274.366
274.849
275.399
276.029
276.756
277.598
278.574
279.707
281.024
282.562
284.37
286.523
289.144
273.174
273.532
273.917
274.34
274.813
275.351
275.968
276.68
277.504
278.46
279.572
280.869
282.392
284.195
286.364
289.039
273.17
273.52
273.895
274.307
274.769
275.293
275.892
276.584
277.384
278.313
279.395
280.661
282.156
283.943
286.127
288.873
273.165
273.505
273.87
274.27
274.717
275.224
275.803
276.47
277.241
278.135
279.176
280.397
281.844
283.592
285.769
288.596
273.16
273.489
273.842
274.228
274.659
275.147
275.703
276.341
277.077
277.928
278.917
280.074
281.447
283.114
285.225
288.084
273.155
273.472
273.812
274.184
274.598
275.064
275.595
276.202
276.898
277.699
278.625
279.701
280.966
282.489
284.407
287.055
273.187
273.573
273.987
274.444
274.957
275.541
276.213
276.989
277.889
278.934
280.145
281.548
283.173
285.054
287.235
289.76
273.186
273.568
273.979
274.432
274.941
275.52
276.187
276.957
277.851
278.888
280.092
281.489
283.111
284.993
287.179
289.705
273.183
273.56
273.965
274.412
274.913
275.484
276.141
276.9
277.781
278.805
279.995
281.38
282.994
284.877
287.077
289.637
273.18
273.55
273.947
274.384
274.876
275.435
276.078
276.821
277.683
278.686
279.855
281.22
282.819
284.7
286.92
289.536
273.175
273.537
273.924
274.351
274.829
275.374
275.999
276.721
277.559
278.534
279.672
281.005
282.576
284.444
286.683
289.375
273.171
273.522
273.898
274.312
274.776
275.302
275.906
276.602
277.409
278.348
279.443
280.729
282.253
284.083
286.322
289.103
273.165
273.505
273.869
274.269
274.716
275.222
275.801
276.468
277.238
278.132
279.172
280.393
281.84
283.588
285.766
288.594
273.159
273.487
273.838
274.223
274.652
275.136
275.688
276.321
277.05
277.892
278.866
280.001
281.336
282.938
284.928
287.569
273.192
273.589
274.015
274.486
275.015
275.618
276.313
277.117
278.051
279.134
280.389
281.839
283.51
285.422
287.593
290.021
273.191
273.584
274.007
274.473
274.998
275.597
276.286
277.084
278.011
279.086
280.335
281.78
283.447
285.361
287.537
289.969
273.188
273.576
273.992
274.452
274.969
275.559
276.239
277.025
277.939
279.001
280.235
281.668
283.329
285.244
287.437
289.902
273.185
273.565
273.974
274.424
274.931
275.508
276.173
276.943
277.838
278.879
280.092
281.504
283.15
285.065
287.28
289.803
273.18
273.552
273.95
274.39
274.883
275.445
276.092
276.84
277.709
278.721
279.902
281.283
282.902
284.805
287.042
289.644
273.175
273.536
273.923
274.35
274.828
275.371
275.996
276.717
277.555
278.529
279.667
281
282.571
284.439
286.679
289.373
273.17
273.519
273.894
274.305
274.766
275.288
275.887
276.578
277.377
278.305
279.387
280.652
282.147
283.935
286.119
288.868
273.164
273.501
273.862
274.257
274.699
275.199
275.77
276.426
277.183
278.056
279.069
280.247
281.629
283.272
285.277
287.86
273.197
273.602
274.039
274.521
275.063
275.683
276.396
277.223
278.182
279.295
280.582
282.064
283.759
285.68
287.825
290.172
273.195
273.597
274.03
274.508
275.046
275.66
276.369
277.189
278.141
279.247
280.527
282.003
283.696
285.618
287.77
290.122
273.192
273.589
274.015
274.486
275.017
275.622
276.32
277.129
278.068
279.159
280.425
281.89
283.576
285.501
287.67
290.056
273.189
273.578
273.996
274.458
274.977
275.57
276.253
277.045
277.964
279.034
280.279
281.723
283.395
285.32
287.513
289.957
273.184
273.564
273.972
274.422
274.928
275.505
276.169
276.939
277.832
278.873
280.085
281.497
283.143
285.058
287.274
289.799
273.179
273.548
273.945
274.381
274.871
275.429
276.07
276.812
277.674
278.676
279.844
281.208
282.807
284.688
286.91
289.529
273.174
273.531
273.914
274.335
274.807
275.344
275.959
276.669
277.491
278.446
279.557
280.853
282.376
284.179
286.35
289.029
273.167
273.512
273.881
274.286
274.739
275.252
275.839
276.513
277.291
278.19
279.231
280.439
281.849
283.51
285.51
288.037
273.2
273.613
274.057
274.548
275.101
275.732
276.46
277.304
278.282
279.415
280.724
282.225
283.933
285.853
287.973
290.263
273.198
273.608
274.048
274.535
275.083
275.71
276.432
277.269
278.24
279.367
280.668
282.164
283.87
285.791
287.918
290.213
273.196
273.599
274.033
274.513
275.053
275.671
276.383
277.208
278.166
279.278
280.565
282.05
283.749
285.674
287.818
290.147
273.192
273.588
274.014
274.484
275.013
275.618
276.314
277.122
278.06
279.151
280.417
281.881
283.567
285.492
287.661
290.049
273.188
273.574
273.989
274.448
274.963
275.551
276.229
277.014
277.926
278.987
280.22
281.652
283.312
285.228
287.422
289.891
273.182
273.558
273.961
274.406
274.905
275.474
276.128
276.885
277.764
278.786
279.975
281.359
282.972
284.856
287.057
289.622
273.176
273.54
273.93
274.359
274.84
275.387
276.015
276.739
277.578
278.552
279.683
280.999
282.537
284.345
286.499
289.127
273.17
273.521
273.897
274.309
274.77
275.294
275.892
276.58
277.374
278.291
279.352
280.579
282.005
283.674
285.663
288.147
273.202
273.62
274.07
274.567
275.127
275.766
276.504
277.358
278.349
279.496
280.817
282.33
284.044
285.959
288.061
290.315
273.201
273.615
274.061
274.553
275.109
275.743
276.475
277.323
278.307
279.446
280.761
282.268
283.98
285.897
288.006
290.265
273.198
273.606
274.046
274.531
275.078
275.704
276.425
277.261
278.231
279.357
280.657
282.153
283.858
285.78
287.906
290.2
273.194
273.595
274.026
274.501
275.038
275.65
276.356
277.174
278.125
279.228
280.507
281.983
283.675
285.597
287.749
290.101
273.19
273.581
274.001
274.465
274.987
275.583
276.269
277.065
277.989
279.062
280.309
281.752
283.419
285.332
287.509
289.944
273.184
273.564
273.973
274.422
274.928
275.504
276.167
276.935
277.825
278.859
280.061
281.457
283.077
284.959
287.145
289.676
273.179
273.546
273.941
274.375
274.862
275.416
276.052
276.787
277.637
278.623
279.766
281.094
282.64
284.447
286.588
289.183
273.172
273.527
273.907
274.324
274.792
275.322
275.928
276.625
277.43
278.359
279.431
280.671
282.105
283.776
285.755
288.212
273.204
273.624
274.076
274.576
275.14
275.783
276.526
277.385
278.382
279.536
280.863
282.381
284.097
286.01
288.102
290.339
273.202
273.618
274.067
274.563
275.121
275.76
276.497
277.35
278.34
279.486
280.807
282.319
284.033
285.948
288.047
290.289
273.199
273.61
274.052
274.54
275.091
275.72
276.446
277.288
278.264
279.396
280.703
282.204
283.911
285.83
287.947
290.224
273.195
273.598
274.032
274.511
275.05
275.666
276.377
277.201
278.157
279.267
280.552
282.033
283.727
285.647
287.79
290.125
273.191
273.584
274.007
274.474
274.999
275.599
276.29
277.09
278.02
279.1
280.352
281.801
283.47
285.382
287.55
289.968
273.185
273.568
273.978
274.431
274.94
275.52
276.187
276.959
277.855
278.896
280.104
281.505
283.128
285.009
287.186
289.701
273.18
273.549
273.946
274.383
274.873
275.431
276.071
276.81
277.666
278.658
279.808
281.141
282.689
284.496
286.63
289.21
273.173
273.53
273.912
274.332
274.802
275.336
275.946
276.648
277.458
278.392
279.471
280.716
282.154
283.825
285.799
288.242
273.139
273.425
273.728
274.055
274.411
274.802
275.232
275.705
276.22
276.774
277.361
277.97
278.581
279.172
279.712
280.168
273.138
273.422
273.722
274.047
274.4
274.789
275.216
275.685
276.196
276.747
277.33
277.933
278.54
279.127
279.664
280.118
273.136
273.416
273.713
274.033
274.382
274.765
275.187
275.649
276.153
276.696
277.27
277.866
278.464
279.043
279.573
280.022
273.134
273.409
273.701
274.015
274.357
274.733
275.146
275.599
276.093
276.624
277.186
277.769
278.355
278.922
279.441
279.881
273.131
273.4
273.685
273.992
274.326
274.693
275.096
275.537
276.017
276.534
277.08
277.646
278.215
278.766
279.27
279.698
273.128
273.39
273.667
273.966
274.291
274.646
275.037
275.464
275.928
276.427
276.955
277.5
278.048
278.578
279.064
279.476
273.124
273.378
273.647
273.937
274.251
274.595
274.971
275.383
275.829
276.308
276.813
277.335
277.858
278.364
278.827
279.22
273.12
273.366
273.627
273.906
274.209
274.54
274.902
275.296
275.723
276.18
276.661
277.157
277.652
278.13
278.568
278.938
273.14
273.428
273.734
274.063
274.424
274.82
275.257
275.738
276.263
276.831
277.436
278.065
278.702
279.321
279.891
280.376
273.139
273.425
273.728
274.055
274.412
274.806
275.24
275.717
276.238
276.802
277.402
278.027
278.659
279.274
279.841
280.324
273.137
273.419
273.718
274.041
274.394
274.782
275.209
275.68
276.194
276.75
277.341
277.957
278.581
279.188
279.748
280.225
273.135
273.412
273.705
274.022
274.368
274.749
275.168
275.629
276.133
276.677
277.255
277.858
278.468
279.063
279.612
280.081
273.132
273.403
273.69
273.999
274.337
274.708
275.117
275.566
276.055
276.584
277.147
277.732
278.325
278.903
279.436
279.892
273.129
273.392
273.672
273.973
274.301
274.661
275.057
275.491
275.965
276.476
277.018
277.582
278.153
278.709
279.222
279.661
273.125
273.381
273.652
273.943
274.261
274.609
274.991
275.409
275.864
276.354
276.873
277.412
277.957
278.486
278.976
279.394
273.121
273.369
273.631
273.912
274.218
274.553
274.92
275.321
275.756
276.223
276.717
277.228
277.743
278.243
278.704
279.097
273.143
273.435
273.746
274.083
274.451
274.857
275.307
275.805
276.351
276.947
277.585
278.257
278.944
279.622
280.255
280.8
273.141
273.432
273.74
274.074
274.439
274.842
275.289
275.783
276.325
276.916
277.55
278.217
278.9
279.574
280.203
280.746
273.14
273.426
273.73
274.059
274.42
274.817
275.258
275.744
276.279
276.861
277.486
278.143
278.817
279.483
280.106
280.643
273.137
273.418
273.717
274.04
274.394
274.783
275.215
275.692
276.215
276.785
277.396
278.04
278.7
279.352
279.964
280.492
273.134
273.409
273.701
274.017
274.361
274.742
275.162
275.626
276.135
276.689
277.283
277.908
278.549
279.183
279.777
280.292
273.131
273.399
273.683
273.989
274.324
274.693
275.1
275.549
276.041
276.576
277.148
277.75
278.366
278.976
279.548
280.044
273.127
273.387
273.662
273.959
274.283
274.639
275.032
275.464
275.936
276.448
276.996
277.57
278.157
278.737
279.281
279.752
273.123
273.374
273.641
273.927
274.24
274.582
274.959
275.372
275.824
276.311
276.831
277.374
277.928
278.474
278.983
279.424
273.146
273.446
273.766
274.112
274.492
274.913
275.382
275.904
276.482
277.116
277.805
278.54
279.305
280.074
280.808
281.451
273.145
273.443
273.759
274.102
274.48
274.898
275.363
275.881
276.454
277.084
277.768
278.498
279.258
280.023
280.753
281.395
273.143
273.437
273.749
274.087
274.459
274.872
275.33
275.84
276.405
277.026
277.7
278.42
279.171
279.927
280.651
281.287
273.141
273.429
273.735
274.067
274.432
274.836
275.286
275.785
276.338
276.946
277.606
278.31
279.046
279.788
280.5
281.127
273.137
273.419
273.719
274.043
274.399
274.793
275.23
275.716
276.254
276.844
277.485
278.17
278.884
279.606
280.299
280.912
273.134
273.408
273.7
274.015
274.36
274.742
275.166
275.636
276.155
276.724
277.341
278
278.687
279.381
280.049
280.64
273.13
273.396
273.679
273.984
274.318
274.686
275.094
275.546
276.044
276.589
277.178
277.806
278.459
279.118
279.75
280.311
273.126
273.383
273.656
273.951
274.272
274.627
275.018
275.45
275.925
276.443
277.001
277.592
278.206
278.822
279.412
279.932
273.151
273.46
273.791
274.149
274.545
274.985
275.478
276.031
276.648
277.333
278.087
278.905
279.774
280.67
281.549
282.343
273.15
273.457
273.784
274.14
274.532
274.969
275.458
276.006
276.619
277.299
278.047
278.86
279.724
280.616
281.493
282.285
273.148
273.45
273.773
274.124
274.511
274.942
275.424
275.964
276.567
277.238
277.976
278.777
279.631
280.515
281.385
282.174
273.145
273.442
273.759
274.103
274.482
274.905
275.377
275.906
276.496
277.152
277.875
278.66
279.498
280.366
281.225
282.006
273.142
273.432
273.742
274.078
274.448
274.859
275.319
275.833
276.407
277.044
277.746
278.508
279.323
280.169
281.008
281.774
273.138
273.421
273.722
274.048
274.407
274.806
275.251
275.748
276.302
276.916
277.591
278.324
279.107
279.921
280.73
281.472
273.134
273.408
273.7
274.016
274.362
274.747
275.175
275.652
276.183
276.77
277.414
278.111
278.854
279.625
280.39
281.093
273.129
273.395
273.676
273.981
274.315
274.684
275.094
275.55
276.055
276.612
277.22
277.875
278.57
279.287
279.994
280.641
273.156
273.477
273.82
274.194
274.607
275.07
275.591
276.179
276.842
277.587
278.417
279.335
280.332
281.392
282.473
283.493
273.155
273.473
273.813
274.184
274.594
275.053
275.57
276.153
276.811
277.551
278.375
279.287
280.279
281.336
282.415
283.435
273.153
273.467
273.802
274.167
274.572
275.024
275.533
276.109
276.757
277.486
278.299
279.199
280.181
281.229
282.304
283.322
273.15
273.458
273.787
274.145
274.542
274.985
275.484
276.047
276.681
277.394
278.191
279.074
280.039
281.072
282.136
283.15
273.147
273.448
273.769
274.119
274.505
274.937
275.422
275.97
276.586
277.279
278.052
278.91
279.849
280.859
281.904
282.906
273.143
273.436
273.748
274.088
274.463
274.881
275.35
275.879
276.474
277.14
277.884
278.709
279.613
280.585
281.597
282.574
273.138
273.423
273.725
274.054
274.416
274.819
275.27
275.777
276.346
276.983
277.691
278.474
279.33
280.25
281.207
282.135
273.134
273.409
273.701
274.017
274.365
274.752
275.184
275.668
276.209
276.811
277.478
278.212
279.008
279.858
280.735
281.58
273.162
273.496
273.853
274.243
274.676
275.163
275.715
276.342
277.055
277.865
278.779
279.807
280.952
282.21
283.556
284.914
273.161
273.492
273.846
274.232
274.662
275.145
275.693
276.315
277.023
277.826
278.735
279.757
280.897
282.152
283.497
284.855
273.159
273.485
273.834
274.215
274.639
275.115
275.654
276.268
276.965
277.757
278.654
279.664
280.794
282.041
283.384
284.745
273.156
273.476
273.818
274.192
274.607
275.074
275.602
276.202
276.885
277.66
278.539
279.53
280.642
281.876
283.213
284.578
273.152
273.465
273.799
274.164
274.569
275.023
275.537
276.12
276.783
277.536
278.389
279.354
280.439
281.648
282.97
284.333
273.148
273.453
273.778
274.132
274.524
274.964
275.461
276.024
276.663
277.387
278.208
279.135
280.18
281.349
282.637
283.983
273.144
273.439
273.753
274.096
274.474
274.898
275.375
275.915
276.526
277.217
277.997
278.877
279.865
280.971
282.193
283.483
273.139
273.424
273.727
274.057
274.421
274.828
275.284
275.798
276.378
277.031
277.764
278.585
279.5
280.516
281.627
282.792
273.168
273.516
273.887
274.295
274.749
275.261
275.845
276.512
277.277
278.152
279.153
280.294
281.593
283.067
284.732
286.583
273.167
273.511
273.88
274.284
274.734
275.242
275.821
276.484
277.242
278.111
279.106
280.241
281.535
283.007
284.672
286.52
273.165
273.504
273.868
274.266
274.709
275.211
275.781
276.434
277.181
278.038
279.02
280.144
281.428
282.894
284.561
286.419
273.162
273.495
273.851
274.242
274.676
275.167
275.726
276.364
277.096
277.935
278.898
280.002
281.268
282.723
284.392
286.27
273.158
273.483
273.831
274.212
274.636
275.114
275.657
276.278
276.988
277.803
278.739
279.813
281.052
282.485
284.147
286.046
273.154
273.47
273.808
274.178
274.589
275.051
275.576
276.175
276.86
277.644
278.544
279.578
280.773
282.164
283.798
285.705
273.149
273.456
273.783
274.14
274.536
274.982
275.486
276.059
276.714
277.461
278.315
279.296
280.426
281.744
283.305
285.167
273.144
273.44
273.756
274.1
274.48
274.907
275.389
275.935
276.555
277.259
278.061
278.973
280.018
281.223
282.634
284.313
273.144
273.44
273.755
274.099
274.48
274.906
275.388
275.933
276.553
277.258
278.059
278.971
280.015
281.221
282.633
284.311
273.139
273.423
273.727
274.056
274.42
274.826
275.282
275.796
276.375
277.028
277.76
278.581
279.497
280.513
281.624
282.788
273.134
273.408
273.7
274.016
274.364
274.75
275.182
275.665
276.205
276.807
277.474
278.207
279.003
279.853
280.73
281.576
273.129
273.394
273.675
273.98
274.313
274.682
275.091
275.547
276.051
276.607
277.215
277.87
278.564
279.281
279.989
280.636
273.125
273.382
273.655
273.949
274.27
274.624
275.015
275.446
275.92
276.438
276.995
277.587
278.2
278.816
279.406
279.927
273.122
273.373
273.639
273.925
274.237
274.579
274.955
275.368
275.819
276.306
276.825
277.368
277.922
278.467
278.977
279.419
273.121
273.368
273.629
273.91
274.216
274.55
274.916
275.316
275.751
276.217
276.71
277.221
277.736
278.237
278.698
279.091
273.12
273.365
273.625
273.904
274.206
274.537
274.898
275.292
275.718
276.174
276.655
277.15
277.646
278.124
278.561
278.933
273.149
273.455
273.782
274.139
274.535
274.979
275.483
276.056
276.71
277.457
278.311
279.291
280.421
281.74
283.301
285.163
273.143
273.438
273.752
274.094
274.472
274.895
275.372
275.911
276.521
277.212
277.992
278.87
279.859
280.965
282.187
283.477
273.138
273.422
273.724
274.052
274.413
274.815
275.266
275.772
276.341
276.977
277.684
278.467
279.322
280.242
281.2
282.129
273.133
273.407
273.698
274.013
274.36
274.743
275.171
275.647
276.177
276.763
277.406
278.103
278.846
279.617
280.383
281.086
273.13
273.395
273.677
273.981
274.315
274.682
275.09
275.54
276.038
276.582
277.17
277.797
278.45
279.109
279.742
280.303
273.126
273.386
273.66
273.957
274.28
274.635
275.027
275.458
275.929
276.441
276.987
277.561
278.149
278.729
279.273
279.745
273.125
273.38
273.65
273.941
274.257
274.604
274.985
275.403
275.857
276.346
276.864
277.403
277.948
278.478
278.967
279.386
273.124
273.377
273.646
273.934
274.248
274.59
274.966
275.377
275.822
276.3
276.805
277.326
277.849
278.355
278.819
279.212
273.154
273.469
273.807
274.176
274.586
275.047
275.571
276.169
276.853
277.637
278.535
279.569
280.764
282.155
283.79
285.698
273.148
273.452
273.776
274.129
274.52
274.959
275.455
276.017
276.655
277.379
278.199
279.125
280.17
281.34
282.628
283.975
273.142
273.435
273.746
274.085
274.459
274.876
275.344
275.872
276.465
277.131
277.874
278.698
279.602
280.574
281.586
282.565
273.138
273.42
273.72
274.045
274.403
274.801
275.244
275.74
276.293
276.906
277.58
278.313
279.096
279.91
280.719
281.462
273.133
273.407
273.697
274.012
274.356
274.737
275.159
275.628
276.146
276.714
277.33
277.988
278.675
279.37
280.037
280.63
273.13
273.397
273.68
273.986
274.32
274.688
275.093
275.541
276.032
276.565
277.137
277.738
278.354
278.964
279.537
280.034
273.128
273.391
273.669
273.969
274.296
274.655
275.05
275.483
275.956
276.465
277.007
277.57
278.141
278.697
279.211
279.651
273.127
273.388
273.665
273.962
274.286
274.64
275.03
275.456
275.919
276.417
276.943
277.488
278.036
278.566
279.053
279.466
273.158
273.482
273.829
274.209
274.631
275.107
275.649
276.268
276.978
277.792
278.726
279.8
281.038
282.472
284.134
286.036
273.152
273.464
273.797
274.16
274.564
275.016
275.529
276.11
276.772
277.523
278.376
279.339
280.424
281.634
282.956
284.321
273.146
273.446
273.766
274.115
274.5
274.93
275.414
275.959
276.574
277.265
278.038
278.894
279.834
280.843
281.889
282.893
273.141
273.431
273.739
274.073
274.442
274.852
275.31
275.822
276.395
277.03
277.731
278.493
279.307
280.153
280.993
281.76
273.137
273.418
273.716
274.039
274.393
274.785
275.221
275.706
276.242
276.831
277.47
278.154
278.868
279.59
280.284
280.898
273.134
273.407
273.698
274.012
274.356
274.734
275.153
275.615
276.123
276.675
277.268
277.892
278.533
279.167
279.762
280.278
273.131
273.401
273.687
273.995
274.331
274.701
275.107
275.555
276.043
276.57
277.132
277.716
278.309
278.887
279.422
279.879
273.13
273.398
273.682
273.988
274.32
274.685
275.086
275.526
276.005
276.52
277.065
277.63
278.199
278.75
279.256
279.685
273.161
273.493
273.848
274.236
274.669
275.158
275.714
276.351
277.08
277.918
278.879
279.982
281.248
282.703
284.373
286.253
273.155
273.474
273.815
274.187
274.6
275.064
275.59
276.188
276.868
277.642
278.519
279.509
280.621
281.855
283.192
284.559
273.149
273.456
273.783
274.14
274.534
274.975
275.472
276.032
276.665
277.376
278.171
279.052
280.017
281.05
282.115
283.13
273.144
273.44
273.755
274.097
274.474
274.894
275.364
275.891
276.479
277.134
277.854
278.639
279.476
280.344
281.204
281.987
273.14
273.426
273.731
274.062
274.424
274.826
275.273
275.771
276.322
276.927
277.585
278.289
279.024
279.767
280.479
281.109
273.136
273.416
273.713
274.034
274.386
274.773
275.203
275.677
276.199
276.767
277.376
278.019
278.679
279.331
279.944
280.474
273.134
273.409
273.701
274.017
274.36
274.739
275.156
275.615
276.116
276.658
277.236
277.838
278.448
279.043
279.593
280.064
273.133
273.407
273.697
274.009
274.349
274.723
275.134
275.585
276.077
276.606
277.167
277.749
278.334
278.902
279.422
279.865
273.164
273.501
273.862
274.258
274.699
275.197
275.765
276.414
277.159
278.014
278.993
280.115
281.398
282.864
284.532
286.393
273.158
273.482
273.828
274.207
274.628
275.101
275.638
276.248
276.942
277.732
278.626
279.635
280.764
282.011
283.355
284.718
273.152
273.464
273.797
274.159
274.561
275.01
275.517
276.089
276.734
277.46
278.272
279.17
280.152
281.2
282.275
283.295
273.147
273.447
273.768
274.116
274.5
274.928
275.407
275.944
276.545
277.213
277.949
278.749
279.602
280.485
281.357
282.148
273.142
273.433
273.743
274.079
274.449
274.858
275.314
275.821
276.383
277.002
277.674
278.392
279.142
279.899
280.624
281.263
273.139
273.423
273.725
274.051
274.409
274.804
275.242
275.725
276.258
276.837
277.46
278.116
278.79
279.456
280.08
280.62
273.136
273.416
273.713
274.033
274.383
274.769
275.194
275.662
276.173
276.727
277.316
277.931
278.554
279.162
279.724
280.204
273.135
273.413
273.708
274.026
274.372
274.752
275.171
275.631
276.133
276.673
277.246
277.84
278.438
279.018
279.549
280.001
273.166
273.507
273.872
274.273
274.719
275.224
275.799
276.457
277.212
278.078
279.069
280.202
281.495
282.966
284.631
286.477
273.159
273.487
273.838
274.221
274.647
275.127
275.67
276.288
276.992
277.792
278.698
279.718
280.857
282.111
283.457
284.815
273.154
273.469
273.806
274.173
274.579
275.034
275.547
276.127
276.781
277.517
278.339
279.248
280.24
281.297
282.377
283.399
273.148
273.452
273.776
274.129
274.517
274.951
275.436
275.98
276.589
277.266
278.012
278.822
279.685
280.578
281.456
282.252
273.144
273.438
273.752
274.092
274.465
274.88
275.341
275.855
276.425
277.052
277.733
278.461
279.221
279.987
280.719
281.364
273.14
273.428
273.733
274.063
274.425
274.825
275.268
275.758
276.298
276.885
277.517
278.182
278.864
279.539
280.171
280.717
273.138
273.421
273.721
274.045
274.399
274.789
275.22
275.693
276.212
276.773
277.371
277.994
278.626
279.242
279.811
280.297
273.137
273.418
273.716
274.037
274.387
274.773
275.197
275.663
276.171
276.719
277.299
277.902
278.508
279.096
279.635
280.092
273.167
273.51
273.877
274.28
274.729
275.237
275.816
276.479
277.239
278.11
279.107
280.246
281.543
283.015
284.678
286.516
273.16
273.49
273.843
274.228
274.657
275.139
275.686
276.309
277.017
277.823
278.734
279.759
280.903
282.16
283.506
284.862
273.154
273.472
273.81
274.179
274.588
275.046
275.563
276.146
276.805
277.546
278.373
279.287
280.284
281.344
282.427
283.449
273.149
273.455
273.781
274.135
274.526
274.962
275.451
275.999
276.612
277.293
278.044
278.859
279.727
280.624
281.505
282.303
273.144
273.441
273.756
274.098
274.474
274.891
275.355
275.873
276.447
277.078
277.763
278.496
279.26
280.03
280.766
281.413
273.141
273.43
273.737
274.069
274.433
274.836
275.282
275.775
276.318
276.91
277.545
278.215
278.902
279.581
280.216
280.765
273.139
273.423
273.725
274.051
274.407
274.799
275.233
275.71
276.232
276.797
277.398
278.026
278.662
279.282
279.855
280.344
273.138
273.42
273.72
274.043
274.395
274.783
275.21
275.679
276.19
276.742
277.326
277.933
278.544
279.135
279.678
280.138
273.116
273.354
273.605
273.875
274.166
274.484
274.831
275.208
275.614
276.048
276.504
276.971
277.438
277.886
278.296
278.642
273.112
273.342
273.584
273.844
274.124
274.429
274.761
275.12
275.507
275.918
276.348
276.787
277.224
277.642
278.023
278.344
273.108
273.33
273.565
273.815
274.085
274.377
274.694
275.037
275.405
275.794
276.199
276.612
277.02
277.409
277.762
278.059
273.105
273.32
273.547
273.789
274.049
274.33
274.635
274.963
275.313
275.682
276.065
276.453
276.835
277.197
277.525
277.8
273.102
273.312
273.532
273.767
274.019
274.291
274.585
274.9
275.235
275.587
275.95
276.317
276.677
277.017
277.322
277.579
273.1
273.305
273.521
273.75
273.996
274.261
274.546
274.851
275.174
275.513
275.861
276.211
276.553
276.875
277.164
277.406
273.099
273.301
273.513
273.739
273.981
274.241
274.52
274.818
275.133
275.463
275.8
276.139
276.469
276.779
277.056
277.287
273.098
273.299
273.51
273.734
273.974
274.231
274.507
274.802
275.113
275.438
275.771
276.104
276.427
276.731
277.001
277.227
273.117
273.356
273.609
273.881
274.175
274.496
274.848
275.23
275.644
276.088
276.555
277.037
277.52
277.988
278.417
278.783
273.113
273.344
273.588
273.849
274.132
274.44
274.776
275.141
275.534
275.954
276.394
276.846
277.297
277.732
278.13
278.467
273.109
273.332
273.568
273.82
274.092
274.388
274.709
275.057
275.43
275.827
276.241
276.664
277.085
277.488
277.854
278.165
273.106
273.322
273.55
273.794
274.056
274.34
274.648
274.981
275.336
275.712
276.102
276.499
276.892
277.266
277.604
277.89
273.103
273.313
273.535
273.772
274.026
274.301
274.597
274.916
275.256
275.614
275.984
276.359
276.728
277.077
277.392
277.657
273.101
273.307
273.524
273.755
274.003
274.27
274.558
274.866
275.194
275.538
275.893
276.25
276.599
276.929
277.225
277.474
273.099
273.302
273.516
273.744
273.987
274.25
274.532
274.833
275.153
275.487
275.83
276.175
276.512
276.828
277.112
277.349
273.099
273.301
273.513
273.739
273.981
274.241
274.52
274.818
275.133
275.462
275.8
276.139
276.469
276.779
277.055
277.287
273.119
273.361
273.618
273.895
274.195
274.524
274.884
275.279
275.708
276.169
276.66
277.17
277.688
278.195
278.667
279.073
273.115
273.349
273.597
273.863
274.151
274.466
274.81
275.186
275.593
276.029
276.489
276.966
277.447
277.915
278.348
278.719
273.111
273.337
273.576
273.833
274.11
274.412
274.741
275.098
275.484
275.895
276.327
276.771
277.217
277.647
278.042
278.379
273.107
273.327
273.558
273.806
274.073
274.363
274.678
275.019
275.385
275.774
276.18
276.595
277.008
277.405
277.766
278.073
273.104
273.318
273.543
273.783
274.042
274.322
274.625
274.952
275.302
275.671
276.055
276.445
276.831
277.198
277.532
277.813
273.102
273.311
273.531
273.766
274.018
274.29
274.584
274.901
275.237
275.591
275.958
276.328
276.692
277.038
277.349
277.611
273.101
273.307
273.524
273.754
274.002
274.27
274.558
274.866
275.194
275.538
275.892
276.249
276.599
276.929
277.225
277.474
273.1
273.305
273.521
273.75
273.996
274.261
274.545
274.85
275.174
275.512
275.861
276.211
276.553
276.875
277.164
277.405
273.121
273.37
273.633
273.917
274.226
274.566
274.94
275.351
275.802
276.291
276.816
277.369
277.939
278.508
279.047
279.521
273.117
273.357
273.611
273.884
274.18
274.505
274.862
275.253
275.68
276.14
276.631
277.145
277.671
278.19
278.678
279.103
273.113
273.345
273.59
273.852
274.137
274.449
274.789
275.161
275.564
275.997
276.455
276.931
277.414
277.886
278.325
278.703
273.11
273.334
273.571
273.824
274.099
274.398
274.723
275.077
275.459
275.867
276.296
276.737
277.181
277.611
278.007
278.345
273.107
273.325
273.555
273.801
274.066
274.355
274.668
275.007
275.37
275.757
276.16
276.573
276.984
277.378
277.739
278.045
273.104
273.318
273.543
273.783
274.042
274.322
274.625
274.952
275.302
275.671
276.055
276.445
276.83
277.198
277.531
277.813
273.103
273.313
273.535
273.771
274.026
274.3
274.597
274.916
275.256
275.614
275.984
276.358
276.727
277.076
277.391
277.656
273.102
273.312
273.532
273.767
274.019
274.291
274.584
274.899
275.234
275.586
275.95
276.316
276.676
277.016
277.322
277.578
273.125
273.381
273.653
273.946
274.266
274.62
275.011
275.445
275.923
276.448
277.017
277.627
278.267
278.921
279.56
280.137
273.121
273.367
273.629
273.911
274.218
274.556
274.929
275.341
275.792
276.284
276.814
277.376
277.961
278.551
279.117
279.621
273.116
273.355
273.607
273.878
274.173
274.497
274.852
275.242
275.667
276.128
276.62
277.137
277.668
278.196
278.696
279.134
273.113
273.343
273.587
273.849
274.133
274.443
274.782
275.152
275.554
275.986
276.444
276.921
277.404
277.878
278.32
278.702
273.11
273.334
273.571
273.824
274.099
274.397
274.723
275.077
275.459
275.866
276.295
276.737
277.181
277.61
278.006
278.345
273.107
273.326
273.558
273.805
274.072
274.363
274.678
275.018
275.384
275.773
276.179
276.594
277.007
277.403
277.765
278.072
273.106
273.322
273.55
273.793
274.056
274.34
274.648
274.98
275.335
275.711
276.101
276.498
276.89
277.264
277.603