/*--------------------------------*- C++ -*----------------------------------*\
| =========                 |                                                 |
| \\      /  F ield         | OpenFOAM: The Open Source CFD Toolbox           |
|  \\    /   O peration     | Version:  v1912                                 |
|   \\  /    A nd           | Website:  www.openfoam.com                      |
|    \\/     M anipulation  |                                                 |
\*---------------------------------------------------------------------------*/
FoamFile
{
    version     2.0;
    format      ascii;
    class       volVectorField;
    location    "0.39/fluid";
    object      U;
}
// * * * * * * * * * * * * * * * * * * * * * * * * * * * * * * * * * * * * * //

dimensions      [0 1 -1 0 0 0 0];


internalField   nonuniform List<vector> 
14592
(
(0.0878633 0.0168936 0.000597708)
(0.0738619 0.0107884 0.000745714)
(0.0612145 0.00627226 0.000344037)
(0.0550439 0.00285191 -0.00031291)
(0.0514868 0.00127923 -0.00116732)
(0.0495647 0.000587136 -0.00220675)
(0.0481993 0.000325892 -0.0034765)
(0.0470559 0.000226289 -0.0050526)
(0.0457819 0.000188743 -0.0070433)
(0.0444415 0.000149946 -0.0096296)
(0.0425184 9.30455e-05 -0.0130669)
(0.0405768 -8.17661e-05 -0.0177629)
(0.0368891 -0.000337139 -0.0244829)
(0.0334899 -0.0011132 -0.0337827)
(0.02373 -0.00167488 -0.046529)
(0.0134212 -0.00471666 -0.0462378)
(0.104076 0.0167851 0.000709692)
(0.104498 0.0149014 0.000829828)
(0.102702 0.0108898 0.000223352)
(0.10031 0.00668003 -0.000787947)
(0.0979588 0.00408379 -0.00212806)
(0.0959914 0.00267674 -0.00378967)
(0.0941374 0.00205891 -0.00584324)
(0.0922763 0.00186666 -0.00841105)
(0.0900853 0.00191269 -0.011669)
(0.0875933 0.00207893 -0.0159022)
(0.084124 0.00230979 -0.0215143)
(0.0801493 0.00248075 -0.029142)
(0.0733414 0.00259034 -0.0398688)
(0.0656855 0.00214328 -0.0545702)
(0.047572 0.0015517 -0.0734345)
(0.0275825 -0.00235742 -0.071719)
(0.103878 0.0107069 0.00072644)
(0.107843 0.0131358 0.000831008)
(0.110325 0.0113127 0.000182004)
(0.110578 0.0082497 -0.000888314)
(0.109868 0.0059485 -0.0023063)
(0.108681 0.00453717 -0.00407027)
(0.107187 0.00389626 -0.00625592)
(0.105441 0.00377818 -0.00899417)
(0.103221 0.00402334 -0.0124723)
(0.100569 0.00451673 -0.016997)
(0.096782 0.00519251 -0.022999)
(0.0922566 0.0059332 -0.0311775)
(0.0844891 0.00670716 -0.0426748)
(0.0753554 0.00704403 -0.0585396)
(0.0544514 0.00677795 -0.0788834)
(0.0309322 0.00245134 -0.0779487)
(0.102023 0.00701829 0.000745586)
(0.105718 0.0104336 0.000868564)
(0.109155 0.0100948 0.000230717)
(0.110662 0.00835088 -0.000825883)
(0.111081 0.00674494 -0.00222493)
(0.110697 0.00569743 -0.00396336)
(0.109766 0.00528415 -0.00611405)
(0.108406 0.00540117 -0.00880576)
(0.106464 0.00595982 -0.0122215)
(0.104013 0.00689204 -0.0166693)
(0.100342 0.0081651 -0.0225747)
(0.0958297 0.0097078 -0.0306629)
(0.0878584 0.011502 -0.0420737)
(0.0782708 0.0130731 -0.0580033)
(0.0563339 0.0136817 -0.0786031)
(0.0312165 0.00809704 -0.0784606)
(0.101078 0.00473758 0.000777735)
(0.104018 0.00801344 0.000941376)
(0.107341 0.00852543 0.000338696)
(0.109331 0.00778815 -0.000681213)
(0.11041 0.00689637 -0.00203364)
(0.110645 0.00633114 -0.0037084)
(0.110251 0.0062641 -0.00577006)
(0.109348 0.00669844 -0.00833892)
(0.107818 0.00761362 -0.011585)
(0.105756 0.00899926 -0.0158057)
(0.102459 0.0108619 -0.0214017)
(0.0982979 0.0131903 -0.0291055)
(0.0905387 0.0159881 -0.0400089)
(0.0809497 0.0187662 -0.0554823)
(0.0582689 0.0203233 -0.0756643)
(0.0315733 0.0128995 -0.0764804)
(0.100673 0.00333914 0.000817047)
(0.103081 0.00608864 0.00103296)
(0.10615 0.00696216 0.000477628)
(0.108347 0.00687741 -0.000494977)
(0.109834 0.00657538 -0.00178894)
(0.110538 0.00648576 -0.00338387)
(0.11061 0.00680394 -0.00533325)
(0.110153 0.00760031 -0.00774588)
(0.109064 0.00891505 -0.0107747)
(0.107454 0.010815 -0.0147011)
(0.10462 0.0133837 -0.0198909)
(0.100925 0.0167624 -0.0270756)
(0.0935202 0.0211049 -0.0372687)
(0.084102 0.0261626 -0.0520467)
(0.0607528 0.0304924 -0.0714837)
(0.032421 0.0219566 -0.0735887)
(0.100522 0.00227176 0.000863631)
(0.102667 0.00440544 0.00114063)
(0.105593 0.00540751 0.000641587)
(0.107925 0.00575847 -0.000275077)
(0.109701 0.00593647 -0.00150003)
(0.110779 0.00627597 -0.0029996)
(0.111276 0.00695846 -0.00481216)
(0.111291 0.00808881 -0.00702864)
(0.110749 0.00974714 -0.00977463)
(0.109799 0.0120638 -0.013296)
(0.107809 0.0151779 -0.0178899)
(0.105204 0.0193726 -0.0242286)
(0.0991584 0.0249085 -0.0331289)
(0.0913812 0.0318282 -0.046306)
(0.0685319 0.0385399 -0.0634589)
(0.0392842 0.0285116 -0.0669896)
(0.100474 0.00135905 0.000914538)
(0.102541 0.0028505 0.00125765)
(0.105461 0.00383716 0.000819713)
(0.107933 0.00447637 -3.66708e-05)
(0.109946 0.00503695 -0.00118825)
(0.11133 0.00574338 -0.00258673)
(0.112191 0.00674422 -0.00425469)
(0.11263 0.00816037 -0.00626399)
(0.112603 0.0101033 -0.00871251)
(0.112283 0.0127774 -0.0118081)
(0.111117 0.0164094 -0.015779)
(0.109569 0.0215943 -0.0212287)
(0.104912 0.0289649 -0.0287764)
(0.0990551 0.0403668 -0.0402784)
(0.0774661 0.0553113 -0.0551904)
(0.0508674 0.0618522 -0.0616457)
(0.0878309 0.0168959 0.0003594)
(0.0736827 0.0107996 0.000359473)
(0.0608196 0.00628198 -3.33307e-05)
(0.0544612 0.00285831 -0.000612078)
(0.0507161 0.00128601 -0.0013618)
(0.0485988 0.000596374 -0.00229192)
(0.0469989 0.000339164 -0.00344956)
(0.0455585 0.000244604 -0.00489705)
(0.0438956 0.000214603 -0.00672422)
(0.0420363 0.000186804 -0.00905121)
(0.039449 0.000150865 -0.0120659)
(0.0365842 1.62929e-05 -0.0159027)
(0.0319194 -0.000156398 -0.0210144)
(0.0268853 -0.000730014 -0.0266778)
(0.0169596 -0.00108585 -0.0326634)
(0.00534678 -0.00321158 -0.0232256)
(0.104031 0.0167982 0.000392612)
(0.104249 0.0149351 0.000292594)
(0.102138 0.0109318 -0.000332495)
(0.0994299 0.00672584 -0.00125124)
(0.0967499 0.00413959 -0.00244425)
(0.0944333 0.00274999 -0.0039403)
(0.0921672 0.00215802 -0.00581879)
(0.0897895 0.00200035 -0.00818676)
(0.0869237 0.00209326 -0.0111931)
(0.0835336 0.00232079 -0.0150411)
(0.0788913 0.00263745 -0.0200308)
(0.073317 0.00292152 -0.0264347)
(0.0646837 0.00319721 -0.0348821)
(0.0543295 0.00298289 -0.0445213)
(0.0354714 0.00256006 -0.0540726)
(0.0136231 -0.000985354 -0.0385311)
(0.103834 0.0107312 0.000394195)
(0.107586 0.0131928 0.000262184)
(0.10974 0.0113922 -0.000411265)
(0.109657 0.00834619 -0.00138718)
(0.108593 0.00606834 -0.00265129)
(0.10703 0.00469208 -0.00424005)
(0.105094 0.00410228 -0.00623957)
(0.102795 0.00405385 -0.00876576)
(0.0998517 0.00439341 -0.0119774)
(0.0962374 0.00500909 -0.0160959)
(0.091184 0.00584838 -0.0214399)
(0.0849349 0.00678724 -0.0283238)
(0.0751647 0.00782025 -0.0373979)
(0.0631113 0.00840808 -0.0478373)
(0.04131 0.00825865 -0.0581433)
(0.0157547 0.00346509 -0.0414738)
(0.101981 0.00704924 0.000411891)
(0.105464 0.0105066 0.000293678)
(0.108577 0.0102027 -0.000369475)
(0.109755 0.00848898 -0.00133134)
(0.109829 0.00692052 -0.00257651)
(0.109079 0.00592641 -0.00414025)
(0.107718 0.00558978 -0.00610591)
(0.105821 0.00581258 -0.00858737)
(0.103175 0.00651631 -0.0117392)
(0.0997854 0.00764001 -0.0157837)
(0.0948703 0.00917138 -0.0210327)
(0.0886589 0.0110315 -0.027819)
(0.0786867 0.0132411 -0.0367787)
(0.0661645 0.0151952 -0.0471653)
(0.0432701 0.0160358 -0.0574685)
(0.0159848 0.00938839 -0.0409704)
(0.101038 0.00477565 0.000444674)
(0.10377 0.008103 0.000365232)
(0.106777 0.00866056 -0.000263549)
(0.108451 0.00796485 -0.00118935)
(0.109203 0.00712328 -0.0023897)
(0.109094 0.00662802 -0.00389284)
(0.108298 0.00666086 -0.00577404)
(0.106895 0.00723416 -0.00813943)
(0.104708 0.00834177 -0.0111315)
(0.101771 0.00998497 -0.0149643)
(0.0973014 0.0121993 -0.019927)
(0.0915359 0.0149671 -0.0263629)
(0.0818451 0.018352 -0.0348635)
(0.0693961 0.0216744 -0.0448268)
(0.0456596 0.0236273 -0.0547522)
(0.0165873 0.0146003 -0.0390218)
(0.100633 0.0033832 0.000484452)
(0.10284 0.00619185 0.000455847)
(0.105604 0.00711915 -0.000126875)
(0.107501 0.007085 -0.00100672)
(0.108682 0.00684389 -0.00215107)
(0.109068 0.00683872 -0.00357822)
(0.108773 0.00727768 -0.00535285)
(0.107862 0.0082444 -0.00757067)
(0.106175 0.00979902 -0.0103585)
(0.103768 0.0120289 -0.0139182)
(0.0998547 0.0150618 -0.0185082)
(0.0946813 0.0190493 -0.0244803)
(0.0854426 0.0242508 -0.0323592)
(0.0732974 0.0301892 -0.0417368)
(0.0487874 0.0353903 -0.051105)
(0.0178301 0.0247263 -0.0365448)
(0.100483 0.00232099 0.000530813)
(0.102434 0.00451965 0.000561655)
(0.105068 0.00558132 3.35035e-05)
(0.107119 0.00598926 -0.000792418)
(0.108614 0.00623591 -0.0018709)
(0.109408 0.00667032 -0.00320751)
(0.109582 0.00748875 -0.00485293)
(0.109203 0.00881247 -0.00688728)
(0.108148 0.0107456 -0.00941361)
(0.106522 0.0134469 -0.0126076)
(0.103614 0.0171105 -0.0166732)
(0.0997718 0.0220478 -0.0219398)
(0.0921397 0.0286613 -0.0287951)
(0.082036 0.0367458 -0.0370548)
(0.0579494 0.0447607 -0.0451047)
(0.0259379 0.0320463 -0.0322775)
(0.100437 0.0014116 0.000580765)
(0.102317 0.00297126 0.000675789)
(0.10496 0.00402057 0.000206768)
(0.107171 0.00472024 -0.000561284)
(0.108929 0.00535386 -0.00156958)
(0.110063 0.00616121 -0.00281)
(0.110647 0.007307 -0.00431848)
(0.110755 0.00893132 -0.00615849)
(0.110301 0.0111735 -0.00840877)
(0.109431 0.0142764 -0.0112167)
(0.107513 0.0185361 -0.0147308)
(0.104979 0.0246181 -0.0192526)
(0.0989999 0.0333549 -0.025028)
(0.0913018 0.0464546 -0.0321213)
(0.0685201 0.0636814 -0.0388665)
(0.0393294 0.0673298 -0.0287343)
(0.0878059 0.0168978 0.00019292)
(0.0735392 0.010809 9.96732e-05)
(0.0604938 0.00629022 -0.000271101)
(0.0539619 0.00286384 -0.000773512)
(0.0500343 0.00129161 -0.00141765)
(0.0477199 0.000603578 -0.00222563)
(0.0458816 0.000348882 -0.00324275)
(0.044137 0.000256877 -0.00451879)
(0.0420754 0.000229989 -0.00612714)
(0.0396744 0.000205608 -0.00814772)
(0.0363922 0.000175872 -0.0107284)
(0.0325509 5.40624e-05 -0.0139014)
(0.026877 -9.69359e-05 -0.0180076)
(0.0204169 -0.000598789 -0.0222442)
(0.0108484 -0.000980472 -0.0262632)
(0.000644462 -0.00273524 -0.0185172)
(0.103995 0.0168106 0.000175605)
(0.104047 0.0149662 -5.72933e-05)
(0.101669 0.0109714 -0.000666228)
(0.098673 0.00676978 -0.00148306)
(0.0956794 0.00419277 -0.002521)
(0.0930189 0.00281886 -0.00382827)
(0.0903436 0.00224999 -0.00548446)
(0.0874514 0.00212286 -0.00757966)
(0.0839176 0.00225649 -0.0102362)
(0.0796351 0.00253567 -0.0135971)
(0.0738436 0.00292139 -0.0178917)
(0.0667152 0.00329003 -0.0232335)
(0.0564136 0.00367438 -0.030058)
(0.0439201 0.00358616 -0.0373337)
(0.0253624 0.00316169 -0.0436996)
(0.00548604 -0.000364114 -0.0304419)
(0.1038 0.0107551 0.000167385)
(0.107378 0.0132474 -0.000106108)
(0.109253 0.0114687 -0.00076481)
(0.108864 0.00843926 -0.0016349)
(0.107465 0.0061834 -0.00273617)
(0.105532 0.00483971 -0.00412523)
(0.103158 0.00429725 -0.00588881)
(0.100309 0.00431323 -0.00812543)
(0.0966524 0.00473979 -0.0109656)
(0.0920856 0.00546693 -0.0145674)
(0.0857975 0.00645279 -0.0191726)
(0.077883 0.00756315 -0.0249249)
(0.0662902 0.00880854 -0.0322655)
(0.051916 0.00957739 -0.0401606)
(0.0303079 0.00946497 -0.0470198)
(0.00677486 0.00418032 -0.0326927)
(0.101948 0.00707989 0.000182915)
(0.10526 0.0105774 -8.0591e-05)
(0.108098 0.0103069 -0.000730233)
(0.108975 0.00862201 -0.00158698)
(0.108722 0.00708893 -0.00267044)
(0.107611 0.00614484 -0.00403635)
(0.105824 0.00587995 -0.00576896)
(0.103392 0.00620164 -0.00796511)
(0.10005 0.00704084 -0.0107516)
(0.0957274 0.00834193 -0.0142876)
(0.0895927 0.0101105 -0.0188088)
(0.0817286 0.0122555 -0.0244755)
(0.0699148 0.0148295 -0.0317151)
(0.0550299 0.0171013 -0.0395601)
(0.0322408 0.0181285 -0.0464034)
(0.00690657 0.0106124 -0.0322514)
(0.101006 0.00481315 0.000214081)
(0.10357 0.0081897 -1.41018e-05)
(0.106311 0.00879057 -0.000631785)
(0.107698 0.00813441 -0.00145503)
(0.108138 0.00734037 -0.00249733)
(0.10769 0.00691107 -0.00380817)
(0.106494 0.00703806 -0.00546443)
(0.10459 0.00774237 -0.0075563)
(0.101749 0.00903152 -0.0102002)
(0.0979355 0.0109167 -0.0135497)
(0.0923073 0.0134603 -0.0178218)
(0.0849634 0.0166344 -0.0231905)
(0.0734694 0.0205576 -0.0300481)
(0.0586877 0.024372 -0.0375566)
(0.0349273 0.0267164 -0.0441292)
(0.007611 0.0164762 -0.0306851)
(0.100603 0.00342618 0.000251868)
(0.102647 0.00629123 7.07852e-05)
(0.105155 0.00726953 -0.000504207)
(0.10678 0.0072834 -0.00128504)
(0.10767 0.00710004 -0.00227607)
(0.107742 0.00717474 -0.00351783)
(0.107079 0.00772807 -0.00507762)
(0.105711 0.00885606 -0.00703676)
(0.103425 0.0106381 -0.00949821)
(0.100215 0.0131797 -0.0126066)
(0.0952273 0.0166506 -0.0165537)
(0.0885862 0.0212063 -0.0215268)
(0.0776171 0.0272048 -0.0278657)
(0.0632292 0.0339536 -0.0349065)
(0.0385506 0.0400017 -0.0410783)
(0.00907641 0.0278382 -0.0286705)
(0.100454 0.0023685 0.000295518)
(0.102249 0.00462893 0.000169605)
(0.10464 0.00574709 -0.000355017)
(0.106436 0.00620908 -0.00108627)
(0.107664 0.0065209 -0.00201722)
(0.108175 0.00704539 -0.00317695)
(0.108023 0.00799311 -0.00462043)
(0.107245 0.0095009 -0.00641598)
(0.105669 0.0116966 -0.0086468)
(0.103354 0.014765 -0.0114388)
(0.0995161 0.0189549 -0.014941)
(0.0944178 0.0245997 -0.0193356)
(0.0852506 0.0322392 -0.0248627)
(0.0731976 0.0414424 -0.0310731)
(0.048774 0.05078 -0.0363701)
(0.0178612 0.0363238 -0.0254643)
(0.100409 0.00146182 0.000342166)
(0.10214 0.0030861 0.000275732)
(0.104553 0.00419478 -0.000194395)
(0.106529 0.0049518 -0.000872452)
(0.108044 0.0056548 -0.00173934)
(0.108929 0.00655819 -0.00281176)
(0.109231 0.00784229 -0.00413157)
(0.109001 0.00966557 -0.00575316)
(0.108112 0.012195 -0.00773917)
(0.106674 0.0157099 -0.0101944)
(0.103988 0.020576 -0.0132235)
(0.100439 0.0275202 -0.0169979)
(0.0931716 0.0375757 -0.0216514)
(0.0839255 0.0523168 -0.0269675)
(0.060728 0.0719038 -0.0313747)
(0.0325066 0.0741848 -0.0226323)
(0.087787 0.0168997 8.50154e-05)
(0.0734261 0.010817 -5.42885e-05)
(0.0602313 0.00629762 -0.00038622)
(0.0535518 0.00286924 -0.00080784)
(0.0494681 0.00129738 -0.00134099)
(0.0469878 0.00061137 -0.00201173)
(0.0449591 0.000360083 -0.00285831)
(0.0429879 0.000272652 -0.00391485)
(0.0406588 0.000252678 -0.00523084)
(0.0379332 0.000239043 -0.00684169)
(0.0343125 0.000228074 -0.00883123)
(0.0300742 0.000142056 -0.0111334)
(0.0242065 5.26435e-05 -0.0139121)
(0.0175693 -0.000312821 -0.0163739)
(0.00879664 -0.000560588 -0.0180496)
(1.91972e-05 -0.00202882 -0.0115873)
(0.103968 0.0168221 4.05512e-05)
(0.103885 0.0149941 -0.000250245)
(0.101288 0.0110074 -0.000806277)
(0.0980462 0.00681017 -0.00150451)
(0.0947827 0.00424172 -0.00237326)
(0.0918286 0.00288218 -0.00346573)
(0.0888165 0.00233469 -0.00485195)
(0.0855233 0.00223649 -0.00659904)
(0.0815093 0.00240964 -0.00879287)
(0.0766425 0.00274127 -0.0115105)
(0.0702056 0.00320029 -0.0148845)
(0.0623355 0.00366809 -0.0188787)
(0.0515329 0.00419287 -0.0236787)
(0.0386658 0.00430282 -0.028218)
(0.021279 0.00405185 -0.0311287)
(0.0037579 0.000600395 -0.0199734)
(0.103773 0.0107772 2.73096e-05)
(0.107212 0.013297 -0.000305951)
(0.108857 0.0115382 -0.000908961)
(0.108207 0.00852409 -0.00165439)
(0.106519 0.00628797 -0.0025774)
(0.10427 0.00497325 -0.00373926)
(0.101534 0.00447286 -0.00521673)
(0.0982546 0.00454621 -0.00708428)
(0.0940807 0.00505056 -0.00943406)
(0.0888846 0.00587828 -0.0123543)
(0.0818934 0.00699832 -0.0159843)
(0.0731739 0.00827272 -0.020306)
(0.0610115 0.009732 -0.0254966)
(0.0462191 0.0107263 -0.0304627)
(0.0258269 0.0107815 -0.0336143)
(0.00483708 0.00520188 -0.0214617)
(0.101923 0.00710827 4.03186e-05)
(0.105097 0.0106421 -0.00028595)
(0.107708 0.0104017 -0.000881405)
(0.108331 0.00874279 -0.00161499)
(0.107795 0.00724111 -0.00252234)
(0.106377 0.00634097 -0.00366408)
(0.104237 0.00613874 -0.00511495)
(0.101388 0.00654618 -0.0069481)
(0.0975427 0.00750194 -0.00925258)
(0.0926095 0.00895411 -0.0121178)
(0.0857887 0.0109227 -0.0156775)
(0.0771398 0.0133068 -0.0199259)
(0.0647627 0.0161855 -0.0250261)
(0.0494643 0.0187379 -0.0299293)
(0.0278595 0.0199664 -0.0330234)
(0.00504791 0.0118559 -0.020992)
(0.100983 0.0048477 6.80897e-05)
(0.103412 0.00826874 -0.000227579)
(0.105934 0.00890858 -0.000794984)
(0.107076 0.00828774 -0.00149917)
(0.107249 0.00753561 -0.0023708)
(0.106511 0.00716385 -0.0034652)
(0.104984 0.0073722 -0.00485091)
(0.102691 0.00818829 -0.00659582)
(0.0993818 0.00963004 -0.00878081)
(0.095002 0.0117142 -0.0114918)
(0.0887342 0.0145225 -0.0148485)
(0.0806617 0.0180127 -0.0188586)
(0.0686348 0.0223412 -0.0236591)
(0.0534648 0.0265145 -0.028302)
(0.0308049 0.0291299 -0.0312004)
(0.0058826 0.0180455 -0.019752)
(0.10058 0.00346552 0.000101791)
(0.102494 0.00638151 -0.000152567)
(0.104793 0.00740554 -0.000682511)
(0.106187 0.0074621 -0.00134966)
(0.106826 0.00732942 -0.00217691)
(0.10663 0.00747334 -0.00321199)
(0.105664 0.0081245 -0.00451541)
(0.103941 0.00938795 -0.00614811)
(0.10123 0.0113568 -0.00818045)
(0.0975094 0.0141462 -0.0106929)
(0.0919408 0.0179522 -0.0137868)
(0.0846447 0.0229183 -0.017485)
(0.0731843 0.0294587 -0.0218883)
(0.0584526 0.0367046 -0.0261868)
(0.0347729 0.0431944 -0.0288292)
(0.00750541 0.0299797 -0.0182281)
(0.100432 0.00241168 0.000140515)
(0.102103 0.00472779 -6.53906e-05)
(0.104296 0.00589648 -0.000551222)
(0.105877 0.00640637 -0.00117528)
(0.106873 0.00677521 -0.00195073)
(0.107142 0.00737741 -0.00291574)
(0.106721 0.00843497 -0.00412069)
(0.105633 0.0100957 -0.0056167)
(0.103689 0.0125038 -0.00745947)
(0.100941 0.0158573 -0.00971817)
(0.0966121 0.020437 -0.0124656)
(0.090978 0.0265697 -0.0157327)
(0.0814029 0.0348664 -0.0195605)
(0.0691136 0.0446973 -0.023319)
(0.0455451 0.0546529 -0.0254959)
(0.0165574 0.0389922 -0.0161186)
(0.100388 0.00150713 0.000181688)
(0.102002 0.00318954 2.80098e-05)
(0.104229 0.00435121 -0.00041014)
(0.106005 0.00515896 -0.000988012)
(0.107311 0.00592253 -0.00170825)
(0.107981 0.00690845 -0.00259859)
(0.108049 0.00830929 -0.00369872)
(0.107556 0.0102961 -0.0050492)
(0.106361 0.0130541 -0.00669045)
(0.104572 0.0168807 -0.00867883)
(0.10149 0.0221787 -0.0110576)
(0.0975373 0.0296816 -0.013863)
(0.0899639 0.0405098 -0.0170749)
(0.0806256 0.0560418 -0.0202605)
(0.0581735 0.0765392 -0.0220004)
(0.0316369 0.0776233 -0.0143005)
(0.0877722 0.0169011 2.13723e-05)
(0.0733374 0.0108234 -0.000126329)
(0.0600227 0.00630352 -0.000403519)
(0.0532209 0.00287343 -0.000739441)
(0.0490048 0.00130163 -0.00115902)
(0.0463818 0.000616811 -0.0016876)
(0.0441887 0.000367487 -0.00235618)
(0.0420221 0.000282323 -0.00318858)
(0.0394639 0.000265326 -0.00421954)
(0.0364618 0.000255834 -0.00546508)
(0.0325568 0.000252005 -0.00697927)
(0.0279972 0.000181101 -0.00868607)
(0.0219845 0.000117702 -0.0106829)
(0.0152821 -0.000181766 -0.0123675)
(0.00721845 -0.00038048 -0.0133264)
(-0.000376451 -0.00171452 -0.00856409)
(0.103947 0.0168318 -3.19873e-05)
(0.103758 0.0150175 -0.000320744)
(0.100983 0.0110377 -0.000790889)
(0.0975388 0.00684436 -0.00135459)
(0.0940482 0.00428294 -0.00204406)
(0.0908441 0.00293506 -0.00290914)
(0.0875448 0.00240474 -0.00400782)
(0.0839111 0.00232939 -0.00538965)
(0.0794941 0.00253314 -0.00711563)
(0.0741435 0.00290421 -0.00922901)
(0.0671862 0.00341656 -0.011813)
(0.0587442 0.0039535 -0.0147992)
(0.0476004 0.00457203 -0.0182788)
(0.034597 0.00480547 -0.0214171)
(0.0182973 0.00464514 -0.0230979)
(0.00274021 0.00116774 -0.0147424)
(0.103752 0.0107961 -4.63716e-05)
(0.107081 0.0133392 -0.000373978)
(0.108541 0.0115975 -0.000884708)
(0.107675 0.00859643 -0.00148749)
(0.105744 0.00637692 -0.00222084)
(0.103226 0.00508639 -0.00314155)
(0.100182 0.00462093 -0.00431343)
(0.0965366 0.00474163 -0.00579197)
(0.0919286 0.00530968 -0.00764294)
(0.0862116 0.0062188 -0.00991766)
(0.0786535 0.00744573 -0.0127032)
(0.0693133 0.00884789 -0.0159422)
(0.0567603 0.0104696 -0.0197153)
(0.0418093 0.0116261 -0.0231608)
(0.0225541 0.0117911 -0.0249823)
(0.0036973 0.00593764 -0.0158504)
(0.101903 0.00713277 -3.61385e-05)
(0.104968 0.0106975 -0.000359054)
(0.107398 0.0104828 -0.000863864)
(0.107809 0.00884601 -0.00145688)
(0.107036 0.00737084 -0.0021774)
(0.105356 0.00650763 -0.00308181)
(0.102916 0.00635784 -0.00423234)
(0.0997105 0.00683675 -0.00568358)
(0.0954431 0.00788912 -0.00749893)
(0.0900029 0.00946541 -0.00973098)
(0.0826268 0.0115965 -0.0124626)
(0.0733699 0.0141715 -0.0156465)
(0.0606018 0.0172886 -0.0193524)
(0.0451428 0.0200537 -0.0227527)
(0.0246468 0.0214259 -0.0245331)
(0.00395719 0.0128325 -0.0155042)
(0.100964 0.00487754 -1.316e-05)
(0.103288 0.00833655 -0.000311212)
(0.105634 0.00900956 -0.000793039)
(0.106574 0.00841874 -0.00136197)
(0.106522 0.00770209 -0.00205346)
(0.105536 0.00737883 -0.00291969)
(0.103727 0.00765563 -0.00401799)
(0.101102 0.00856543 -0.00539898)
(0.0973978 0.0101346 -0.00711998)
(0.0925457 0.0123839 -0.00923165)
(0.0857577 0.0154097 -0.011807)
(0.0771172 0.0191569 -0.0148106)
(0.064716 0.0238094 -0.0182947)
(0.0493947 0.0282656 -0.0215082)
(0.0277721 0.031089 -0.0231618)
(0.00487905 0.0193458 -0.0145892)
(0.100562 0.00349941 1.4769e-05)
(0.102375 0.00645885 -0.000249392)
(0.104506 0.0075218 -0.000700504)
(0.105709 0.00761461 -0.00123917)
(0.106137 0.00752486 -0.00189463)
(0.105712 0.00772721 -0.00271299)
(0.104486 0.00846078 -0.00374523)
(0.10246 0.00983796 -0.0050367)
(0.0993903 0.0119631 -0.00663686)
(0.095242 0.0149581 -0.00859301)
(0.0891998 0.0190398 -0.010965)
(0.0813915 0.0243396 -0.0137311)
(0.0695843 0.0313121 -0.0169195)
(0.0547253 0.03895 -0.019883)
(0.031994 0.0457765 -0.0213701)
(0.00661496 0.0317684 -0.0134486)
(0.100415 0.00244874 4.67745e-05)
(0.101989 0.00481231 -0.000177588)
(0.104024 0.00602398 -0.000592588)
(0.105427 0.00657455 -0.00109614)
(0.10623 0.00699171 -0.0017097)
(0.106291 0.00765963 -0.00247173)
(0.105638 0.00880989 -0.00342532)
(0.104284 0.0105994 -0.0046086)
(0.102028 0.0131855 -0.00606029)
(0.0989139 0.0167767 -0.00782074)
(0.0941807 0.021679 -0.00993038)
(0.0881223 0.0282116 -0.0123777)
(0.0782554 0.0370372 -0.0151533)
(0.0658998 0.0473719 -0.0177438)
(0.0431563 0.0578102 -0.0189488)
(0.0158476 0.0412723 -0.011941)
(0.100371 0.00154587 8.07005e-05)
(0.101894 0.00327776 -0.000100781)
(0.103973 0.00448448 -0.000476748)
(0.105586 0.00533532 -0.000942693)
(0.106716 0.00615024 -0.00151154)
(0.107201 0.00720601 -0.00221345)
(0.107068 0.00870549 -0.00308313)
(0.106349 0.0108302 -0.00415084)
(0.104891 0.0137801 -0.00544405)
(0.102805 0.0178667 -0.00699476)
(0.0993971 0.0235223 -0.00882295)
(0.095123 0.0314827 -0.010925)
(0.0873354 0.042932 -0.0132533)
(0.0780254 0.0590985 -0.0154401)
(0.0562944 0.0803119 -0.0163806)
(0.0312424 0.0806239 -0.0105989)
(0.0877616 0.0169022 -8.11369e-06)
(0.0732726 0.0108283 -0.000134535)
(0.0598689 0.00630813 -0.000342771)
(0.0529751 0.00287691 -0.000586811)
(0.0486603 0.00130533 -0.000888029)
(0.0459327 0.000621817 -0.00126665)
(0.043624 0.000374699 -0.0017444)
(0.041327 0.000292552 -0.00233506)
(0.0386279 0.000280028 -0.00305841)
(0.0354714 0.000277393 -0.00391549)
(0.0314351 0.000284834 -0.00493168)
(0.0267559 0.000233864 -0.00603362)
(0.0207642 0.000201992 -0.00726277)
(0.0141625 -3.86565e-05 -0.00821068)
(0.00652439 -0.000184659 -0.00856116)
(-0.000428483 -0.00145748 -0.00532046)
(0.103931 0.0168394 -5.61889e-05)
(0.103664 0.0150359 -0.000295781)
(0.100757 0.0110615 -0.000651998)
(0.0971596 0.00687141 -0.0010656)
(0.093498 0.00431561 -0.00156427)
(0.0901079 0.00297707 -0.00218731)
(0.0866011 0.00246054 -0.00297658)
(0.0827311 0.00240382 -0.00396376)
(0.078051 0.00263282 -0.00518544)
(0.0724073 0.00303709 -0.00665788)
(0.0651721 0.0035949 -0.00842055)
(0.0564718 0.00419165 -0.0103947)
(0.0452688 0.00489142 -0.0126029)
(0.0323935 0.00522773 -0.0144631)
(0.0168153 0.00515136 -0.0151625)
(0.00241199 0.00162385 -0.00939697)
(0.103737 0.010811 -6.86373e-05)
(0.106984 0.0133724 -0.000339131)
(0.108306 0.011644 -0.000726574)
(0.107277 0.00865334 -0.00116939)
(0.105163 0.0064468 -0.00170037)
(0.102445 0.00517505 -0.00236405)
(0.0991765 0.00473667 -0.00320678)
(0.0952762 0.00489403 -0.00426453)
(0.0903828 0.00551135 -0.00557708)
(0.0843474 0.00648342 -0.00716597)
(0.0764817 0.00779301 -0.00907223)
(0.0668556 0.00929452 -0.011223)
(0.054221 0.0110426 -0.0136302)
(0.039401 0.0123271 -0.0156887)
(0.0209153 0.0125851 -0.0164548)
(0.00332668 0.00652086 -0.0101321)
(0.101889 0.00715215 -6.12901e-05)
(0.104873 0.0107411 -0.000328831)
(0.107167 0.0105465 -0.00071205)
(0.10742 0.00892706 -0.00114761)
(0.106468 0.0074724 -0.00166912)
(0.104592 0.00663754 -0.00232086)
(0.101934 0.00652779 -0.00314809)
(0.0984812 0.00706088 -0.00418618)
(0.0939369 0.00818587 -0.00547331)
(0.0881887 0.00985453 -0.007032)
(0.0805142 0.0121052 -0.00890036)
(0.0709821 0.0148194 -0.0110125)
(0.0581349 0.0181084 -0.0133722)
(0.0428098 0.0210269 -0.0153972)
(0.023064 0.0225025 -0.0161309)
(0.00362919 0.0135597 -0.0098823)
(0.10095 0.00490112 -4.41505e-05)
(0.103196 0.00838996 -0.000293369)
(0.105412 0.00908891 -0.000659569)
(0.1062 0.00852141 -0.0010773)
(0.105977 0.00783205 -0.00157748)
(0.104807 0.00754582 -0.00220136)
(0.102794 0.00787439 -0.00299069)
(0.0999382 0.00885432 -0.00397818)
(0.0959769 0.0105177 -0.00519791)
(0.0908409 0.0128869 -0.0066715)
(0.0837779 0.0160681 -0.00843078)
(0.0748882 0.0199948 -0.0104188)
(0.0624176 0.0248686 -0.0126286)
(0.0472343 0.0295143 -0.0145295)
(0.0263132 0.0324678 -0.0151862)
(0.00461168 0.0202606 -0.00926064)
(0.100549 0.00352613 -2.33035e-05)
(0.102287 0.00651968 -0.000247377)
(0.104293 0.00761302 -0.000590805)
(0.105353 0.00773391 -0.000986184)
(0.105622 0.00767706 -0.00145993)
(0.105026 0.00792376 -0.0020489)
(0.103613 0.00871918 -0.00279034)
(0.101377 0.0101805 -0.00371339)
(0.0980742 0.0124192 -0.00484688)
(0.0936721 0.0155605 -0.00621078)
(0.0873847 0.0198329 -0.00782865)
(0.0793615 0.0253559 -0.00965409)
(0.0674992 0.032607 -0.0116661)
(0.0527875 0.0404859 -0.0134035)
(0.0306987 0.0474967 -0.0139647)
(0.00642096 0.0329435 -0.00849588)
(0.100403 0.00247789 5.46472e-07)
(0.101906 0.00487866 -0.000193972)
(0.103823 0.00612387 -0.000510662)
(0.105092 0.00670588 -0.000880189)
(0.105749 0.00715999 -0.00132329)
(0.105656 0.00787758 -0.00187136)
(0.104835 0.00909705 -0.00255611)
(0.103297 0.010981 -0.00340196)
(0.100839 0.0136953 -0.00443082)
(0.0975103 0.0174529 -0.0056591)
(0.0925724 0.0225738 -0.00709884)
(0.0863468 0.0293663 -0.00871346)
(0.0764482 0.0385203 -0.0104613)
(0.0642604 0.0491497 -0.0119703)
(0.0420847 0.0598361 -0.0123873)
(0.0157591 0.0427103 -0.00754555)
(0.10036 0.00157625 2.5779e-05)
(0.101816 0.0033469 -0.0001369)
(0.103785 0.00458871 -0.000424696)
(0.105274 0.00547283 -0.000766538)
(0.106272 0.00632694 -0.00117695)
(0.106619 0.00743535 -0.00168135)
(0.10634 0.00900813 -0.0023056)
(0.105464 0.0112333 -0.00306896)
(0.103838 0.0143198 -0.00398609)
(0.101579 0.0185857 -0.005069)
(0.0980126 0.0244785 -0.00631775)
(0.0936268 0.0327268 -0.00770435)
(0.0858426 0.044545 -0.00916723)
(0.0767359 0.0610601 -0.0104311)
(0.0555107 0.0826148 -0.0107251)
(0.031324 0.0824444 -0.0067124)
(0.0877545 0.0169029 -1.39742e-05)
(0.0732294 0.0108317 -9.89643e-05)
(0.0597661 0.00631114 -0.000227504)
(0.0528098 0.00287916 -0.000376218)
(0.0484273 0.0013076 -0.000557898)
(0.0456273 0.000624765 -0.000786381)
(0.0432383 0.000378769 -0.00107467)
(0.0408506 0.000298009 -0.00143052)
(0.0380533 0.000287368 -0.00186508)
(0.0347897 0.000287454 -0.00237681)
(0.0306625 0.00029936 -0.00297905)
(0.0259039 0.000256816 -0.0036248)
(0.0199288 0.000238578 -0.00433413)
(0.0134098 2.55791e-05 -0.00487136)
(0.00607162 -9.89597e-05 -0.00503969)
(-0.000462309 -0.00134208 -0.00314461)
(0.103921 0.0168446 -4.72839e-05)
(0.103602 0.0150484 -0.000204375)
(0.100605 0.0110778 -0.000426386)
(0.0969042 0.00688991 -0.000679452)
(0.0931256 0.00433788 -0.000981691)
(0.0896075 0.00300554 -0.00135865)
(0.0859577 0.00249812 -0.00183601)
(0.0819252 0.00245353 -0.00243217)
(0.077065 0.00269872 -0.00316795)
(0.0712224 0.00312384 -0.00404983)
(0.0638014 0.0037096 -0.00509793)
(0.0549359 0.00434216 -0.0062592)
(0.0437072 0.00508948 -0.00753894)
(0.0309492 0.00548368 -0.00859578)
(0.0158769 0.00544989 -0.00893709)
(0.00222184 0.00187781 -0.00553822)
(0.103727 0.0108213 -5.53313e-05)
(0.10692 0.0133953 -0.000232417)
(0.108148 0.011676 -0.000474328)
(0.107009 0.00869249 -0.000745324)
(0.10477 0.00649479 -0.00106741)
(0.101914 0.00523583 -0.00146912)
(0.098491 0.00481578 -0.00197906)
(0.0944152 0.00499787 -0.00261824)
(0.0893262 0.0056482 -0.00340934)
(0.0830746 0.00666212 -0.00436191)
(0.0750031 0.00802605 -0.00549675)
(0.0651939 0.00959194 -0.00676384)
(0.0525198 0.0114206 -0.00816147)
(0.0378217 0.012784 -0.00933358)
(0.0198766 0.0130955 -0.00970892)
(0.00311198 0.00688523 -0.00597571)
(0.10188 0.00716554 -5.10463e-05)
(0.10481 0.0107713 -0.000226365)
(0.107013 0.0105905 -0.000465791)
(0.107157 0.00898291 -0.000732273)
(0.106083 0.00754229 -0.00104857)
(0.104073 0.00672682 -0.00144296)
(0.101264 0.00664435 -0.00194349)
(0.0976412 0.00721428 -0.00257078)
(0.0929068 0.00838846 -0.00334661)
(0.0869489 0.0101194 -0.00428115)
(0.079074 0.01245 -0.0053936)
(0.0693648 0.0152563 -0.00663804)
(0.0564785 0.0186574 -0.00800837)
(0.0412758 0.0216741 -0.00916159)
(0.0220579 0.0232121 -0.00951933)
(0.00343911 0.014035 -0.00583158)
(0.100941 0.00491745 -4.04338e-05)
(0.103135 0.00842684 -0.000204549)
(0.105263 0.00914364 -0.000433544)
(0.105948 0.00859219 -0.000689075)
(0.105609 0.00792157 -0.000992345)
(0.104312 0.00766069 -0.00136976)
(0.102158 0.0080247 -0.00184729)
(0.0991426 0.00905255 -0.00244398)
(0.0950043 0.0107801 -0.00317926)
(0.0896744 0.0132309 -0.00406291)
(0.082426 0.0165169 -0.00511069)
(0.0733752 0.0205642 -0.00628216)
(0.0608702 0.0255846 -0.00756567)
(0.0458096 0.0303548 -0.00864801)
(0.0253836 0.0333907 -0.00896542)
(0.00445844 0.0208757 -0.00547138)
(0.100541 0.00354462 -2.75901e-05)
(0.102229 0.00656168 -0.00017624)
(0.104151 0.00767594 -0.000391201)
(0.105113 0.00781614 -0.000633012)
(0.105274 0.00778189 -0.000920111)
(0.10456 0.00805901 -0.00127624)
(0.103017 0.00889681 -0.00172464)
(0.100636 0.0104157 -0.00228226)
(0.0971733 0.012732 -0.00296548)
(0.0925974 0.0159727 -0.00378319)
(0.0861445 0.0203742 -0.00474656)
(0.0779819 0.0260474 -0.0058215)
(0.0660933 0.0334832 -0.00698896)