/*--------------------------------*- C++ -*----------------------------------*\
| =========                 |                                                 |
| \\      /  F ield         | OpenFOAM: The Open Source CFD Toolbox           |
|  \\    /   O peration     | Version:  v1912                                 |
|   \\  /    A nd           | Website:  www.openfoam.com                      |
|    \\/     M anipulation  |                                                 |
\*---------------------------------------------------------------------------*/
FoamFile
{
    version     2.0;
    format      ascii;
    class       volScalarField;
    location    "0.74/fluid";
    object      p;
}
// * * * * * * * * * * * * * * * * * * * * * * * * * * * * * * * * * * * * * //

dimensions      [0 2 -2 0 0 0 0];


internalField   nonuniform List<scalar> 
14592
(
0.0519863
0.0463685
0.0444696
0.0428767
0.0419728
0.0412832
0.0407563
0.0403091
0.0398918
0.0395562
0.0391713
0.0389933
0.0385286
0.0387715
0.0379884
0.0398532
0.0478213
0.0460734
0.0443939
0.0430326
0.0421182
0.0414068
0.0408521
0.0403898
0.0399675
0.0396385
0.0392672
0.0391244
0.0386956
0.0390802
0.0382565
0.0410841
0.0458336
0.0452225
0.0439887
0.0429871
0.0421465
0.0414599
0.0408929
0.0404203
0.0399933
0.0396725
0.0393243
0.0392364
0.0388719
0.0394443
0.0386885
0.042307
0.0446541
0.0445099
0.0436501
0.0428956
0.0421451
0.0414888
0.0409104
0.0404191
0.0399753
0.0396489
0.039309
0.0392623
0.038957
0.0396938
0.0390551
0.0431284
0.0439531
0.0439329
0.0433051
0.0427123
0.0420454
0.0414249
0.0408442
0.0403343
0.0398628
0.0395067
0.0391353
0.0390693
0.03874
0.0395304
0.038909
0.0433063
0.043497
0.0435135
0.0430311
0.0425346
0.0419263
0.0413296
0.0407445
0.0402146
0.0397142
0.0393281
0.0389304
0.0388623
0.0385535
0.0394878
0.0390362
0.0439712
0.0431987
0.0432211
0.0428138
0.0423664
0.0417885
0.0411979
0.0405958
0.0400294
0.0394732
0.0390073
0.0384984
0.0382725
0.0377258
0.0383673
0.0373685
0.0423807
0.0430198
0.0430432
0.0426671
0.0422373
0.0416661
0.0410671
0.0404422
0.0398395
0.039236
0.0387104
0.0381393
0.0378538
0.0372869
0.0380964
0.0373637
0.0447756
0.0519007
0.0462849
0.0444234
0.0428716
0.0420211
0.0413906
0.0409305
0.0405583
0.0402277
0.0399889
0.0397201
0.0396406
0.0393159
0.0394699
0.0388108
0.039437
0.0477357
0.045988
0.0443468
0.0430272
0.0421667
0.0415152
0.0410279
0.0406413
0.0403065
0.040075
0.0398191
0.03977
0.0394665
0.0397083
0.0389805
0.040011
0.0457441
0.0451315
0.0439346
0.0429744
0.0421881
0.0415624
0.0410634
0.0406672
0.0403279
0.0401048
0.0398703
0.0398734
0.0396242
0.0400148
0.0393039
0.0407721
0.0445622
0.0444159
0.0435918
0.0428776
0.0421805
0.0415844
0.0410734
0.0406579
0.0403008
0.0400719
0.0398439
0.0398875
0.0396892
0.0402252
0.0395947
0.0413386
0.0438581
0.0438356
0.0432422
0.0426885
0.0420734
0.0415113
0.0409959
0.0405593
0.0401707
0.0399081
0.0396409
0.0396592
0.0394178
0.039992
0.0393217
0.0412983
0.0433991
0.0434133
0.0429645
0.0425059
0.0419476
0.0414071
0.0408846
0.0404249
0.0400035
0.0397073
0.0394082
0.0394247
0.0391937
0.0399241
0.0393862
0.0418631
0.0430974
0.0431175
0.0427429
0.0423321
0.0418022
0.0412647
0.0407213
0.0402197
0.0397344
0.0393483
0.03892
0.038761
0.0382451
0.0386649
0.0374321
0.0399862
0.0429146
0.0429358
0.0425917
0.0421974
0.0416724
0.0411238
0.0405539
0.0400114
0.0394727
0.0390207
0.0385216
0.0383051
0.0377607
0.0384099
0.0374023
0.0424323
0.0518502
0.0462361
0.044403
0.0428849
0.0420801
0.041503
0.0411071
0.0408117
0.0405788
0.0404615
0.040366
0.0404957
0.0405324
0.0410302
0.0411767
0.0419274
0.0476853
0.045938
0.0443259
0.0430405
0.0422265
0.0416291
0.0412068
0.0408981
0.0406625
0.0405545
0.0404747
0.0406372
0.040701
0.0412777
0.0414065
0.0424577
0.0456898
0.0450761
0.0439074
0.0429809
0.0422414
0.0416705
0.0412372
0.0409196
0.0406799
0.0405813
0.0405233
0.0407411
0.0408644
0.0415997
0.0417896
0.0432287
0.0445051
0.0443574
0.0435602
0.0428787
0.0422276
0.0416858
0.0412397
0.0409024
0.0406442
0.0405402
0.0404885
0.0407508
0.0409286
0.0418212
0.0421142
0.0438152
0.0437976
0.0437734
0.0432058
0.0426835
0.0421128
0.0416035
0.0411511
0.0407902
0.0404969
0.0403555
0.0402579
0.0404915
0.0406138
0.0415457
0.041776
0.0437013
0.0433353
0.0433479
0.042924
0.0424955
0.0419799
0.04149
0.0410278
0.0406408
0.0403101
0.0401309
0.0399937
0.0402224
0.0403394
0.0414335
0.0417555
0.0441843
0.0430299
0.0430484
0.0426978
0.042316
0.0418266
0.041337
0.0408498
0.0404154
0.0400122
0.0397314
0.0394436
0.0394718
0.039242
0.0399775
0.0394169
0.0418855
0.0428432
0.0428629
0.0425422
0.0421757
0.0416892
0.0411857
0.0406683
0.0401875
0.0397229
0.0393662
0.0389901
0.0389444
0.0386413
0.0395939
0.0391176
0.0440819
0.0518224
0.0462094
0.0443975
0.0429053
0.0421359
0.0415999
0.0412523
0.0410111
0.0408417
0.0407899
0.0407737
0.0409572
0.0410802
0.0415355
0.0417496
0.0422649
0.0476575
0.0459103
0.0443201
0.0430609
0.0422831
0.0417272
0.0413536
0.0410998
0.0409282
0.0408861
0.0408857
0.0410992
0.041245
0.0417549
0.0419412
0.0426598
0.0456584
0.0450438
0.0438959
0.0429953
0.0422922
0.0417634
0.0413794
0.0411169
0.0409408
0.0409075
0.040926
0.0411899
0.0413841
0.0420288
0.04225
0.0432711
0.0444709
0.044322
0.0435445
0.0428881
0.0422727
0.0417725
0.0413751
0.0410924
0.0408969
0.0408572
0.0408793
0.0411851
0.0414248
0.042213
0.042513
0.0437588
0.04376
0.0437345
0.0431856
0.0426872
0.0421509
0.0416819
0.0412765
0.0409684
0.0407348
0.0406548
0.0406251
0.040897
0.0410669
0.0418833
0.042085
0.0435343
0.0432946
0.0433058
0.0428999
0.0424942
0.0420115
0.0415603
0.0411431
0.0408065
0.0405324
0.0404119
0.0403371
0.0406026
0.0407558
0.0417346
0.0419962
0.0439412
0.0429857
0.0430029
0.0426696
0.0423094
0.0418513
0.0413982
0.0409531
0.0405654
0.0402133
0.0399851
0.0397489
0.0398057
0.0395868
0.0402
0.0395118
0.0414876
0.0427954
0.0428138
0.0425099
0.0421642
0.0417073
0.0412383
0.0407601
0.0403227
0.0399045
0.039596
0.0392645
0.0392462
0.0389422
0.0397877
0.039146
0.0436129
0.0518098
0.0461978
0.0444022
0.0429305
0.0421899
0.0416883
0.0413826
0.0411904
0.0410814
0.0410975
0.041171
0.0414396
0.0416968
0.0422218
0.0426154
0.0430725
0.0476449
0.0458981
0.0443247
0.0430865
0.042338
0.0418169
0.0414859
0.0412818
0.0411716
0.0411988
0.0412898
0.0415896
0.0418716
0.0424457
0.0428134
0.0434341
0.0456428
0.0450277
0.0438958
0.043016
0.0423423
0.0418489
0.0415077
0.0412953
0.0411806
0.0412163
0.0413246
0.0416723
0.041997
0.0426939
0.0430888
0.0439737
0.0444528
0.0443033
0.0435409
0.0429044
0.0423179
0.0418526
0.0414977
0.0412647
0.0411297
0.0411586
0.0412687
0.0416573
0.0420227
0.0428578
0.0433204
0.0444163
0.0437389
0.0437125
0.043178
0.0426985
0.0421901
0.0417549
0.0413905
0.0411305
0.0409551
0.040941
0.0409944
0.0413453
0.0416305
0.0424873
0.0428285
0.0441192
0.0432707
0.0432811
0.0428887
0.0425012
0.0420449
0.0416261
0.041248
0.0409575
0.0407385
0.0406809
0.0406839
0.0410252
0.0412823
0.0422981
0.0426717
0.044453
0.0429586
0.042975
0.0426547
0.0423116
0.0418786
0.041456
0.0410474
0.0407024
0.0404003
0.0402292
0.0400605
0.0401836
0.0400445
0.0406805
0.040044
0.0418375
0.0427652
0.0427829
0.0424914
0.0421619
0.0417287
0.0412884
0.040844
0.040446
0.0400729
0.039816
0.0395426
0.0395831
0.0393387
0.0402
0.039558
0.0438258
0.0518052
0.0461939
0.0444098
0.0429526
0.0422322
0.0417543
0.0414769
0.0413158
0.0412426
0.0412933
0.0414072
0.0416988
0.0419912
0.0424957
0.0429055
0.0433094
0.0476404
0.0458937
0.0443321
0.0431088
0.0423808
0.0418839
0.0415813
0.0414087
0.0413348
0.041397
0.0415286
0.0418507
0.0421667
0.0427141
0.0430941
0.0436358
0.0456359
0.0450204
0.0438997
0.0430344
0.0423815
0.0419125
0.0416001
0.0414194
0.0413405
0.0414105
0.0415572
0.0419237
0.0422752
0.0429331
0.0433267
0.0441085
0.044444
0.0442937
0.043542
0.0429196
0.0423533
0.0419121
0.0415856
0.0413839
0.0412841
0.0413466
0.0414931
0.0418982
0.0422845
0.0430734
0.0435214
0.0445048
0.0437276
0.0437005
0.0431758
0.0427098
0.0422207
0.0418088
0.0414719
0.0412422
0.0411001
0.0411179
0.0412043
0.0415688
0.0418668
0.0426712
0.04298
0.0441531
0.0432571
0.0432667
0.0428838
0.0425089
0.0420712
0.0416747
0.0413227
0.041061
0.0408736
0.0408462
0.0408789
0.041232
0.0414949
0.0424556
0.0427791
0.0444406
0.0429425
0.0429581
0.0426468
0.0423157
0.0419002
0.0414986
0.0411144
0.0407963
0.0405229
0.0403791
0.040235
0.0403666
0.0402228
0.0407997
0.0400853
0.0417488
0.0427466
0.0427636
0.0424808
0.0421626
0.041746
0.0413253
0.0409038
0.0405306
0.0401836
0.0399515
0.0396988
0.0397464
0.0394903
0.0402936
0.0395542
0.0436832
0.0518049
0.046194
0.0444175
0.0429701
0.0422635
0.0418022
0.0415449
0.0414068
0.041361
0.0414403
0.0415892
0.0419086
0.0422407
0.0427546
0.0431973
0.0435777
0.0476401
0.0458935
0.0443398
0.0431266
0.0424127
0.0419326
0.0416505
0.0415013
0.0414553
0.0415467
0.0417143
0.0420648
0.0424213
0.0429765
0.0433895
0.043894
0.045634
0.0450182
0.043905
0.0430497
0.0424109
0.041959
0.0416673
0.0415101
0.041459
0.041558
0.0417394
0.0421325
0.0425207
0.0431798
0.0435994
0.0443315
0.0444406
0.0442901
0.0435453
0.0429325
0.0423801
0.0419558
0.0416496
0.0414713
0.0413989
0.0414899
0.04167
0.0421006
0.0425202
0.0433067
0.0437731
0.0447021
0.0437225
0.043695
0.043177
0.0427199
0.0422442
0.0418487
0.0415314
0.0413243
0.0412084
0.0412536
0.0413712
0.0417592
0.0420853
0.0428834
0.0431998
0.0443158
0.0432504
0.0432597
0.042883
0.0425166
0.0420916
0.0417107
0.0413775
0.0411373
0.0409746
0.0409732
0.0410345
0.0414094
0.041695
0.0426467
0.0429657
0.0445687
0.0429341
0.0429493
0.042644
0.0423209
0.0419173
0.0415303
0.0411637
0.0408656
0.0406148
0.0404947
0.0403754
0.0405256
0.0403965
0.0409597
0.040221
0.0418175
0.0427365
0.0427531
0.0424759
0.0421653
0.04176
0.0413531
0.0409478
0.0405931
0.0402664
0.0400557
0.0398241
0.0398875
0.0396391
0.0404257
0.0396453
0.043701
0.0518051
0.046195
0.0444215
0.0429792
0.0422788
0.0418252
0.0415768
0.0414482
0.0414129
0.0415018
0.0416612
0.0419849
0.0423239
0.0428304
0.0432754
0.0436466
0.0476407
0.0458939
0.044344
0.0431356
0.0424282
0.0419558
0.0416826
0.0415429
0.0415074
0.0416081
0.0417858
0.0421398
0.0425023
0.0430481
0.043463
0.0439533
0.0456335
0.0450177
0.0439081
0.0430573
0.0424252
0.041981
0.0416982
0.0415504
0.0415095
0.0416172
0.0418075
0.0422023
0.0425934
0.0432391
0.043657
0.0443702
0.0444396
0.0442887
0.0435474
0.0429389
0.042393
0.0419763
0.041679
0.0415099
0.0414474
0.0415468
0.041735
0.0421663
0.0425867
0.0433573
0.0438181
0.044726
0.0437206
0.0436928
0.043178
0.0427251
0.0422556
0.0418673
0.0415586
0.0413604
0.041254
0.041307
0.0414318
0.0418198
0.0421447
0.0429251
0.043231
0.0443246
0.0432476
0.0432566
0.042883
0.0425205
0.0421014
0.0417275
0.0414024
0.0411708
0.041017
0.0410231
0.0410907
0.041465
0.0417473
0.0426799
0.0429824
0.0445614
0.0429304
0.0429454
0.0426429
0.0423235
0.0419255
0.0415452
0.0411862
0.0408961
0.0406535
0.0405403
0.0404264
0.0405758
0.0404415
0.040985
0.0402234
0.0417926
0.0427319
0.0427483
0.0424739
0.0421668
0.0417667
0.041366
0.0409679
0.0406206
0.0403015
0.0400971
0.0398698
0.039932
0.0396763
0.0404416
0.0396306
0.0436521
0.0612922
0.0505432
0.0468927
0.0439035
0.0421866
0.0408562
0.0398216
0.0388835
0.0379717
0.0370353
0.0359971
0.0348742
0.0335308
0.0320843
0.0302806
0.0284484
0.0570268
0.049795
0.046522
0.0438154
0.0421527
0.0408502
0.0398253
0.038894
0.0379897
0.0370629
0.0360349
0.0349253
0.0335964
0.0321682
0.0303794
0.028558
0.0550184
0.0487503
0.0458821
0.0435116
0.0419778
0.0407586
0.0397704
0.0388606
0.0379704
0.0370566
0.036043
0.0349506
0.0336467
0.0322476
0.0304939
0.0287004
0.0537712
0.0479439
0.0454123
0.0432738
0.041855
0.0407016
0.0397386
0.0388387
0.0379514
0.0370385
0.0360284
0.0349426
0.0336528
0.0322712
0.0305424
0.0287719
0.0530266
0.0473297
0.0450045
0.04302
0.0416993
0.040607
0.0396724
0.0387847
0.0378999
0.0369851
0.0359744
0.0348892
0.0336077
0.0322372
0.0305321
0.0287857
0.0525435
0.0468961
0.0447055
0.0428176
0.0415665
0.0405167
0.0396022
0.0387207
0.0378341
0.0369139
0.0358993
0.0348114
0.0335363
0.0321753
0.0304971
0.0287787
0.0522386
0.0466056
0.044487
0.0426524
0.0414433
0.0404187
0.0395158
0.0386352
0.0377423
0.0368123
0.0357887
0.0346913
0.0334165
0.0320574
0.0304065
0.0287176
0.0520683
0.04644
0.0443531
0.0425408
0.0413489
0.0403324
0.039431
0.0385451
0.037643
0.0367023
0.0356708
0.0345659
0.0332961
0.0319442
0.0303294
0.0286765
0.0570278
0.0497941
0.0465184
0.0438077
0.0421398
0.0408303
0.0397988
0.0388615
0.0379451
0.0370013
0.0359519
0.0348205
0.0334602
0.0320083
0.0301771
0.0283601
0.0528362
0.0494066
0.0463279
0.0438411
0.042185
0.0408741
0.0398296
0.0388846
0.0379645
0.0370199
0.035972
0.0348451
0.0334921
0.0320545
0.0302405
0.0284368
0.0508261
0.0484557
0.045765
0.0436081
0.0420568
0.0408102
0.0397889
0.0388572
0.0379444
0.0370063
0.035968
0.0348535
0.0335212
0.0321062
0.0303208
0.0285431
0.0495936
0.0476699
0.0453275
0.0434044
0.0419617
0.0407738
0.0397712
0.0388439
0.037929
0.0369888
0.0359521
0.0348427
0.0335235
0.032125
0.0303638
0.0286082
0.0488549
0.0470518
0.0449261
0.0431595
0.0418141
0.0406857
0.0397103
0.0387935
0.0378796
0.0369373
0.0359001
0.0347916
0.0334812
0.0320938
0.0303563
0.0286241
0.0483752
0.0466123
0.0446276
0.0429595
0.0416843
0.0405985
0.0396432
0.0387326
0.0378172
0.0368705
0.0358308
0.0347214
0.0334198
0.0320441
0.0303359
0.0286318
0.0480717
0.0463178
0.0444083
0.0427945
0.041562
0.040502
0.0395584
0.0386491
0.0377286
0.0367733
0.0357262
0.0346089
0.0333097
0.0319372
0.0302592
0.0285839
0.0479021
0.0461508
0.0442745
0.0426837
0.041469
0.0404177
0.0394758
0.0385619
0.037634
0.0366696
0.0356169
0.0344948
0.0332044
0.0318422
0.0302054
0.0285662
0.0550416
0.0487726
0.0459108
0.0435466
0.0420211
0.04081
0.0398354
0.0389414
0.0380526
0.0371344
0.0360985
0.0349833
0.0335968
0.0321294
0.0301487
0.0282471
0.0508496
0.0484807
0.0458009
0.043656
0.0421199
0.0408905
0.0398923
0.0389849
0.0380884
0.037167
0.0361318
0.0350211
0.0336427
0.0321899
0.0302265
0.0283408
0.0488376
0.0475984
0.0453295
0.0435242
0.0420686
0.0408785
0.039885
0.0389802
0.0380845
0.0371651
0.0361377
0.0350383
0.0336803
0.0322479
0.0303048
0.0284323
0.0476209
0.0468459
0.0449424
0.0433785
0.0420224
0.0408784
0.0398917
0.0389827
0.0380792
0.0371538
0.0361262
0.0350312
0.0336866
0.0322708
0.0303503
0.0284984
0.0468928
0.0462413
0.0445661
0.0431641
0.0419017
0.0408106
0.0398435
0.0389388
0.0380318
0.0371007
0.03607
0.0349736
0.0336365
0.0322302
0.0303334
0.0285053
0.0464201
0.0458065
0.0442781
0.0429772
0.041784
0.0407325
0.0397809
0.0388786
0.0379672
0.0370292
0.0359947
0.0348967
0.03357
0.0321779
0.0303187
0.0285261
0.0461196
0.0455129
0.0440623
0.0428171
0.041666
0.0406383
0.0396949
0.0387904
0.0378712
0.0369209
0.0358755
0.0347651
0.0334387
0.0320471
0.0302282
0.028472
0.0459506
0.0453455
0.0439291
0.0427073
0.0415735
0.0405532
0.0396085
0.0386969
0.0377687
0.0368068
0.0357542
0.0346373
0.0333226
0.0319447
0.0301853
0.0284793
0.0538187
0.0479913
0.0454801
0.0433649
0.0419767
0.0408566
0.0399348
0.0390799
0.0382212
0.0373357
0.0363196
0.0352315
0.0338104
0.0323277
0.0301145
0.0280895
0.049642
0.0477201
0.045404
0.0435114
0.0421077
0.0409632
0.0400121
0.0391386
0.0382683
0.0373782
0.0363627
0.0352804
0.0338693
0.0324053
0.0302081
0.0282006
0.0476453
0.0468702
0.0449825
0.0434381
0.042107
0.0409904
0.0400333
0.0391537
0.0382783
0.0373875
0.036379
0.0353081
0.0339172
0.0324705
0.0302773
0.0282574
0.0464455
0.04614
0.0446247
0.0433265
0.0420907
0.0410134
0.0400555
0.0391657
0.0382783
0.0373793
0.0363699
0.0353037
0.033927
0.0324972
0.0303207
0.0283149
0.0457294
0.0455487
0.0442657
0.0431318
0.0419873
0.040958
0.0400141
0.0391237
0.038229
0.0373207
0.0363055
0.0352352
0.0338637
0.0324406
0.0302863
0.0283037
0.0452643
0.045121
0.0439859
0.0429536
0.0418767
0.0408839
0.0399519
0.0390605
0.0381588
0.037241
0.0362206
0.035148
0.0337895
0.0323851
0.0302816
0.0283472
0.0449675
0.0448303
0.0437733
0.0427965
0.0417602
0.0407888
0.0398617
0.0389647
0.0380511
0.037116
0.0360794
0.0349873
0.0336253
0.0322158
0.0301685
0.0282834
0.0447989
0.0446629
0.0436401
0.0426862
0.0416662
0.0407004
0.0397694
0.0388628
0.0379374
0.0369873
0.0359411
0.0348404
0.0334948
0.0321055
0.0301495
0.0283425
0.0531006
0.0474053
0.0451207
0.0431857
0.0419308
0.0409136
0.0400668
0.0392779
0.0384797
0.0376632
0.0367063
0.0356974
0.0342805
0.0328384
0.0303288
0.0281513
0.0489302
0.0471296
0.0450512
0.0433423
0.0420726
0.0410309
0.0401535
0.0393448
0.0385356
0.0377161
0.036762
0.0357632
0.0343609
0.0329474
0.0304517
0.0282856
0.0469429
0.0462911
0.0446529
0.0432986
0.0420995
0.0410815
0.0401927
0.0393731
0.0385566
0.037736
0.0367904
0.0358056
0.0344249
0.0330262
0.0305074
0.0282862
0.0457549
0.0455738
0.0443118
0.0432063
0.0421008
0.0411179
0.0402236
0.0393899
0.038559
0.0377291
0.0367831
0.0358051
0.0344409
0.0330626
0.0305521
0.0283356
0.0450483
0.0449925
0.0439651
0.0430251
0.0420091
0.0410704
0.0401855
0.0393465
0.0385039
0.0376607
0.0367052
0.0357193
0.0343572
0.0329833
0.030493
0.0283013
0.0445895
0.044571
0.0436919
0.0428534
0.0419032
0.040998
0.0401214
0.0392774
0.0384236
0.0375672
0.0366036
0.0356141
0.0342681
0.0329208
0.0305018
0.0283836
0.0442954
0.0442829
0.0434819
0.042698
0.0417867
0.0408997
0.0400243
0.0391696
0.0382973
0.0374152
0.0364256
0.0354033
0.0340431
0.0326773
0.0303344
0.0282872
0.0441266
0.0441152
0.0433478
0.0425862
0.0416895
0.0408052
0.0399232
0.0390547
0.0381651
0.0372615
0.0362567
0.0352193
0.0338783
0.0325399
0.0303347
0.0284221
0.0526331
0.0469886
0.0448631
0.0430556
0.0419127
0.0409873
0.0402159
0.0394985
0.0387689
0.0380315
0.0371427
0.0362231
0.0347998
0.0333884
0.0304338
0.0280283
0.048466
0.0467056
0.044793
0.043214
0.0420576
0.0411085
0.0403065
0.0395697
0.0388302
0.0380917
0.037208
0.0363037
0.0349003
0.0335291
0.0305669
0.0281155
0.0464835
0.0458686
0.0444012
0.04318
0.0420947
0.0411688
0.0403533
0.039604
0.0388568
0.0381182
0.0372453
0.0363589
0.0349766
0.0336135
0.0305654
0.0279515
0.0453025
0.0451573
0.0440668
0.0430949
0.042102
0.0412094
0.0403859
0.0396201
0.0388573
0.0381093
0.037237
0.0363604
0.0349963
0.0336561
0.0305911
0.0279453
0.0446017
0.0445815
0.0437257
0.0429191
0.0420142
0.0411632
0.0403456
0.0395709
0.0387924
0.0380271
0.0371408
0.036252
0.0348842
0.0335442
0.0304907
0.027866
0.0441467
0.0441636
0.0434557
0.0427495
0.0419087
0.0410886
0.0402762
0.0394928
0.0386993
0.0379171
0.0370201
0.036127
0.0347801
0.0334808
0.0305296
0.0280207
0.0438538
0.0438766
0.0432462
0.0425935
0.0417896
0.0409847
0.0401697
0.03937
0.0385509
0.0377332
0.0367978
0.0358549
0.0344779
0.0331409
0.030296
0.0278971
0.0436838
0.0437076
0.0431104
0.0424788
0.0416878
0.0408832
0.0400584
0.0392401
0.0383982
0.0375525
0.0365965
0.0356338
0.0342848
0.0329986
0.0303768
0.0282423
0.0523261
0.046698
0.0446762
0.042961
0.0419135
0.0410758
0.0403892
0.0397617
0.0391311
0.0385197
0.0377741
0.0370636
0.0358222
0.0347312
0.0316187
0.0293101
0.0481604
0.0464093
0.0446038
0.0431184
0.0420588
0.0411981
0.0404815
0.0398365
0.0391979
0.0385882
0.0378514
0.0371639
0.0359488
0.0349176
0.031771
0.0293442
0.0461783
0.0455691
0.0442105
0.0430844
0.0420972
0.0412599
0.0405293
0.0398721
0.0392266
0.0386194
0.0378971
0.037236
0.0360483
0.0350398
0.031764
0.0290971
0.0450003
0.0448597
0.0438775
0.0430003
0.0421047
0.0412995
0.0405592
0.0398844
0.0392227
0.038607
0.0378876
0.0372437
0.0360823
0.035117
0.0318121
0.0290886
0.0443017
0.0442858
0.0435377
0.042825
0.0420158
0.0412502
0.040513
0.0398255
0.0391441
0.0385068
0.0377682
0.0371085
0.0359379
0.0349767
0.0316761
0.0289765
0.0438482
0.0438691
0.0432683
0.0426547
0.0419076
0.0411707
0.0404354
0.0397351
0.0390341
0.0383752
0.0376215
0.0369566
0.0358099
0.0349105
0.0317442
0.0292213
0.0435548
0.0435816
0.0430575
0.042496
0.0417835
0.041059
0.0403164
0.039593
0.0388568
0.0381486
0.0373364
0.0365918
0.0353746
0.0343861
0.0313085
0.0289267
0.0433825
0.0434104
0.0429187
0.0423773
0.0416755
0.0409485
0.040192
0.039444
0.038677
0.0379303
0.0370851
0.0363067
0.0351102
0.0341861
0.0314004
0.0295075
0.0521205
0.0464992
0.0445494
0.0429029
0.0419328
0.0411714
0.0405632
0.0400198
0.0394813
0.0389802
0.0383531
0.0377925
0.0366508
0.0356852
0.0321586
0.0293842
0.0479552
0.0462067
0.044475
0.0430593
0.042078
0.041294
0.0406569
0.0400971
0.0395518
0.0390545
0.0384378
0.0379039
0.0367833
0.0358639
0.0321373
0.0287603
0.045971
0.0453614
0.0440764
0.0430203
0.0421125
0.0413525
0.0407021
0.0401308
0.0395796
0.0390868
0.0384869
0.0379849
0.036887
0.0359801
0.03198
0.0279238
0.0447931
0.0446512
0.0437414
0.0429334
0.0421165
0.0413876
0.0407265
0.040137
0.039569
0.0390684
0.0384724
0.037993
0.0369225
0.0360644
0.0319804
0.0276903
0.0440942
0.0440765
0.0434
0.0427551
0.0420232
0.0413321
0.0406713
0.0400661
0.0394744
0.038948
0.0383264
0.0378265
0.0367356
0.0358801
0.0317811
0.0274799
0.04364
0.0436591
0.0431289
0.0425819
0.0419104
0.0412456
0.0405835
0.0399621
0.0393467
0.038795
0.0381544
0.037651
0.036589
0.0358263
0.0319138
0.0278502
0.0433447
0.0433697
0.0429155
0.0424191
0.0417801
0.0411248
0.0404506
0.0397999
0.0391403
0.0385264
0.0378074
0.0371965
0.0360198
0.0351171
0.0312748
0.0273379
0.0431694
0.0431955
0.0427731
0.0422956
0.0416653
0.0410049
0.0403126
0.0396322
0.0389351
0.0382749
0.0375152
0.0368686
0.0357247
0.0349578
0.031562
0.0284476
0.0429461
0.0429707
0.0425888
0.0421469
0.0415561
0.0409292
0.040265
0.0396059
0.0389239
0.0382738
0.037518
0.0368701
0.0357123
0.0349234
0.0314644
0.0282592
0.0429801
0.0430052
0.042582
0.0421037
0.0414723
0.040805
0.0401
0.0393926
0.038655
0.0379286
0.0370934
0.0363167
0.0351048
0.0341563
0.0313047
0.0293432
0.0431359
0.0431555
0.0426436
0.0420958
0.041402
0.0406807
0.0399261
0.0391644
0.0383636
0.0375467
0.0366051
0.0356456
0.0342799
0.0329661
0.0302799
0.0280834
0.0434645
0.0434484
0.0427784
0.0421143
0.0413341
0.0405552
0.0397609
0.0389616
0.0381232
0.0372558
0.0362704
0.0352391
0.0338839
0.0325199
0.0302589
0.0282916
0.0440469
0.0439062
0.042989
0.0421445
0.0412554
0.04041
0.0395836
0.0387567
0.0378899
0.0369819
0.0359592
0.0348668
0.0335099
0.0320968
0.0300927
0.0282362
0.0451364
0.044528
0.0432246
0.0421217
0.0411304
0.0402398
0.0394115
0.0385892
0.037724
0.0368075
0.0357806
0.0346734
0.0333492
0.031949
0.030147
0.0283949
0.0470482
0.0452976
0.0435419
0.0420767
0.0410097
0.0400924
0.0392666
0.0384471
0.0375909
0.0366745
0.0356496
0.034538
0.0332397
0.0318565
0.0301812
0.0284984
0.051215
0.0455973
0.0436353
0.0419504
0.0409059
0.0400225
0.0392334
0.0384411
0.0376122
0.0367173
0.035712
0.0346162
0.0333372
0.0319631
0.0303092
0.0286115
0.0428365
0.0428589
0.0425082
0.0421005
0.0415542
0.0409744
0.0403607
0.039755
0.0391274
0.0385364
0.0378289
0.0372219
0.0360258
0.035093
0.0311433
0.027066
0.0428659
0.042889
0.0424965
0.0420514
0.0414625
0.0408399
0.0401815
0.0395224
0.0388325
0.0381571
0.0373621
0.0366235
0.0353846
0.034362
0.0311763
0.0286858
0.0430167
0.0430343
0.0425529
0.0420377
0.0413849
0.0407049
0.0399929
0.0392737
0.0385128
0.0377359
0.0368218
0.0358851
0.0344847
0.0331096
0.0301656
0.0276749
0.0433405
0.0433227
0.0426826
0.0420504
0.0413104
0.0405712
0.0398159
0.0390549
0.0382511
0.0374173
0.0364542
0.0354413
0.0340621
0.0326619
0.0302369
0.0281114
0.0439187
0.0437765
0.0428889
0.0420756
0.0412251
0.040418
0.0396279
0.0388351
0.0379981
0.0371175
0.0361119
0.0350319
0.0336555
0.0322154
0.0301011
0.0281485
0.0450051
0.0443956
0.0431218
0.0420497
0.041096
0.040242
0.039449
0.0386591
0.0378207
0.0369285
0.0359168
0.0348202
0.0334829
0.0320639
0.0301884
0.0283714
0.046916
0.0451653
0.0434395
0.0420045
0.040974
0.040091
0.0392984
0.0385096
0.037679
0.0367848
0.0357739
0.0346718
0.0333644
0.0319671
0.0302402
0.0285088
0.0510828
0.0454669
0.0435348
0.0418804
0.0408725
0.0400244
0.039268
0.0385069
0.0377058
0.0368346
0.0358456
0.0347619
0.0334777
0.0320926
0.030392
0.0286452
0.0427608
0.0427818
0.0424536
0.0420726
0.0415629
0.0410249
0.0404587
0.0399072
0.0393415
0.0388266
0.0382064
0.0377137
0.0366234
0.0358152
0.0317158
0.0274012
0.042786
0.0428078
0.0424373
0.0420179
0.0414635
0.04088
0.040265
0.039654
0.0390167
0.0384042
0.0376759
0.0370225
0.0358452
0.0348963
0.0315522
0.0288441
0.0429325
0.0429488
0.042489
0.0419989
0.0413789
0.0407345
0.0400617
0.0393841
0.0386662
0.0379377
0.0370694
0.0361863
0.0348069
0.0334539
0.0303489
0.0276958
0.0432522
0.0432331
0.0426143
0.0420062
0.0412984
0.0405927
0.0398728
0.0391484
0.0383809
0.0375858
0.0366566
0.0356804
0.0343094
0.032916
0.0303769
0.0281439
0.0438269
0.0436836
0.0428169
0.0420271
0.041207
0.040432
0.0396742
0.0389135
0.0381069
0.037257
0.0362759
0.03522
0.0338438
0.0324008
0.0302048
0.0281777
0.0449109
0.0443005
0.0430476
0.0419985
0.0410745
0.0402509
0.0394887
0.0387281
0.0379168
0.0370506
0.0360588
0.03498
0.0336415
0.0322169
0.0302842
0.0284121
0.046821
0.0450703
0.0433655
0.0419532
0.0409511
0.040096
0.0393326
0.0385722
0.037766
0.0368949
0.0359009
0.0348129
0.033504
0.0321007
0.030332
0.0285576
0.0509878
0.0453733
0.0434623
0.0418308
0.0408517
0.0400325
0.0393046
0.038572
0.0377973
0.0369504
0.0359799
0.0349119
0.0336285
0.0322386
0.0304996
0.0287087
0.0427092
0.042729
0.0424168
0.0420557
0.041574
0.0410683
0.0405379
0.0400253
0.0394993
0.0390247
0.0384361
0.0379604
0.0368382
0.0359271
0.0315359
0.0268227
0.0427307
0.0427514
0.0423967
0.0419963
0.0414682
0.0409151
0.0403331
0.0397572
0.0391549
0.0385774
0.0378749
0.037237
0.0360308
0.0350094
0.0314447
0.0284615
0.0428735
0.0428888
0.0424445
0.041973
0.0413779
0.0407613
0.0401188
0.0394722
0.0387841
0.0380844
0.0372351
0.0363627
0.0349552
0.0335474
0.030273
0.0274383
0.0431899
0.0431699
0.0425661
0.0419759
0.0412927
0.0406133
0.0399209
0.0392244
0.0384831
0.0377127
0.0367994
0.0358328
0.0344412
0.0330114
0.0303573
0.0280091
0.0437619
0.0436178
0.0427658
0.0419935
0.0411966
0.0404467
0.0397144
0.0389785
0.0381949
0.0373659
0.0363981
0.0353501
0.033959
0.0324911
0.0302167
0.0281143
0.0448439
0.0442329
0.0429948
0.0419628
0.0410613
0.0402618
0.039524
0.0387866
0.0379964
0.0371493
0.0361698
0.0350988
0.0337506
0.0323088
0.0303216
0.0283959
0.0467534
0.0450027
0.0433129
0.0419174
0.040937
0.0401039
0.0393637
0.0386261
0.0378396
0.0369862
0.0360041
0.0349239
0.0336088
0.0321932
0.0303853
0.0285696
0.0509204
0.0453068
0.0434109
0.0417965
0.0408394
0.0400427
0.039338
0.0386288
0.0378754
0.0370476
0.0360908
0.0350327
0.0337458
0.0323459
0.0305707
0.0287383
0.0426757
0.0426947
0.0423945
0.0420487
0.0415894
0.0411102
0.0406107
0.040133
0.0396458
0.0392142
0.0386693
0.0382359
0.0371343
0.0362068
0.0316602
0.0266671
0.0426942
0.0427142
0.042371
0.0419852
0.0414779
0.0409496
0.0403957
0.039851
0.0392821
0.0387409
0.0380726
0.0374672
0.0362686
0.03523
0.0315318
0.0283608
0.042834
0.0428487
0.0424156
0.0419583
0.0413827
0.0407886
0.0401715
0.0395521
0.0388922
0.0382219
0.037398
0.0365483
0.0351391
0.0337127
0.0303285
0.0273614
0.0431476
0.043127
0.0425342
0.0419575
0.0412933
0.0406349
0.0399655
0.0392932
0.0385759
0.0378299
0.0369364
0.0359867
0.0345915
0.0331466
0.0304139
0.0279776
0.0437174
0.0435727
0.0427315
0.0419722
0.0411931
0.0404633
0.039752
0.0390373
0.0382744
0.0374657
0.0365135
0.0354781
0.0340833
0.0326038
0.030274
0.0281117
0.0447979
0.0441865
0.0429589
0.0419397
0.0410554
0.040275
0.039557
0.0388392
0.0380677
0.0372384
0.0362724
0.0352119
0.033861
0.0324102
0.0303832
0.0284136
0.0467069
0.0449562
0.0432772
0.0418941
0.0409302
0.0401145
0.0393931
0.0386743
0.0379051
0.0370681
0.036098
0.0350271
0.0337105
0.032288
0.0304505
0.0286006
0.0508739
0.045261
0.043376
0.0417743
0.040834
0.0400548
0.0393692
0.0386797
0.0379443
0.0371338
0.0361902
0.0351426
0.0338558
0.0324501
0.0306471
0.02878
0.0426546
0.0426729
0.0423809
0.0420458
0.0416022
0.0411414
0.0406627
0.0402075
0.039743
0.0393328
0.0388032
0.0383736
0.0372493
0.0362604
0.0315648
0.0263597
0.0426707
0.0426902
0.0423549
0.0419793
0.0414866
0.0409755
0.0404408
0.0399165
0.0393676
0.0388452
0.0381893
0.0375875
0.0363676
0.0352814
0.0314657
0.0281542
0.0428083
0.0428224
0.0423971
0.0419497
0.0413878
0.0408095
0.0402099
0.0396088
0.0389662
0.0383121
0.0374981
0.0366514
0.0352239
0.0337616
0.0302868
0.0272195
0.0431198
0.0430987
0.0425134
0.0419462
0.0412954
0.0406518
0.0399985
0.0393426
0.0386408
0.0379089
0.0370241
0.0360776
0.0346688
0.0331986
0.0304018
0.0278978
0.043688
0.0435429
0.042709
0.0419588
0.0411922
0.0404767
0.0397803
0.0390804
0.0383312
0.0375349
0.0365905
0.0355588
0.0341545
0.0326578
0.0302833
0.0280744
0.0447673
0.0441556
0.0429354
0.0419251
0.0410528
0.0402862
0.0395824
0.0388784
0.0381196
0.037302
0.0363435
0.0352872
0.0339302
0.0324672
0.0304081
0.0284039
0.0466759
0.0449252
0.0432536
0.0418793
0.0409271
0.0401239
0.039416
0.0387107
0.0379537
0.0371277
0.0361652
0.0350989
0.0337786
0.0323474
0.030486
0.0286089
0.0508429
0.0452306
0.0433531
0.0417604
0.040832
0.0400653
0.0393935
0.0387183
0.0379958
0.0371973
0.0362623
0.0352206
0.0339315
0.0325185
0.0306928
0.0287983
0.0426427
0.0426607
0.042374
0.0420461
0.0416131
0.0411649
0.0407011
0.0402625
0.0398157
0.0394239
0.0389107
0.0384926
0.0373659
0.0363514
0.0315727
0.0262262
0.0426572
0.0426763
0.0423463
0.0419774
0.0414944
0.0409953
0.0404741
0.0399647
0.0394313
0.0389246
0.0382818
0.0376889
0.0364641
0.0353567
0.0314729
0.0280699
0.0427932
0.0428071
0.0423868
0.0419459
0.0413931
0.0408257
0.0402383
0.0396504
0.0390211
0.0383802
0.0375765
0.0367367
0.0353037
0.0338247
0.0302963
0.0271629
0.0431034
0.043082
0.0425015
0.0419405
0.0412986
0.0406651
0.0400229
0.0393788
0.0386886
0.0379679
0.0370915
0.0361506
0.0347371
0.0332546
0.0304191
0.02787
0.0436704
0.0435251
0.0426959
0.0419516
0.0411934
0.0404875
0.0398012
0.0391117
0.0383727
0.0375861
0.0366488
0.0356219
0.0342144
0.032709
0.0303071
0.0280669
0.0447489
0.0441371
0.0429214
0.041917
0.0410527
0.0402953
0.0396011
0.0389067
0.0381573
0.0373484
0.0363964
0.0353446
0.0339854
0.0325162
0.030437
0.0284094
0.0466572
0.0449066
0.0432397
0.0418711
0.0409265
0.0401317
0.0394329
0.038737
0.0379887
0.037171
0.0362145
0.0351525
0.033831
0.0323953
0.0305186
0.028623
0.0508243
0.0452123
0.0433396
0.0417527
0.0408321
0.0400738
0.0394113
0.038746
0.0380327
0.0372428
0.0363145
0.0352777
0.0339883
0.0325712
0.0307311
0.0288178
0.0426373