/*--------------------------------*- C++ -*----------------------------------*\
| =========                 |                                                 |
| \\      /  F ield         | OpenFOAM: The Open Source CFD Toolbox           |
|  \\    /   O peration     | Version:  v1912                                 |
|   \\  /    A nd           | Website:  www.openfoam.com                      |
|    \\/     M anipulation  |                                                 |
\*---------------------------------------------------------------------------*/
FoamFile
{
    version     2.0;
    format      ascii;
    class       surfaceScalarField;
    location    "0.74/fluid";
    object      phi;
}
// * * * * * * * * * * * * * * * * * * * * * * * * * * * * * * * * * * * * * //

dimensions      [0 3 -1 0 0 0 0];
oriented        oriented;


internalField   nonuniform List<scalar> 
41600
(
5.01034e-05
1.25923e-05
3.4658e-07
-5.42264e-07
3.99998e-05
1.04558e-05
5.85886e-07
-9.38113e-07
3.25443e-05
7.83596e-06
4.81e-07
-8.61423e-07
2.79622e-05
4.91451e-06
1.13878e-07
-4.46233e-07
2.52608e-05
2.94823e-06
-4.60252e-07
2.13354e-07
2.36826e-05
1.73381e-06
-1.18414e-06
1.02854e-06
2.26633e-05
1.08987e-06
-2.05587e-06
1.98533e-06
2.187e-05
7.81337e-07
-3.10528e-06
3.11723e-06
2.11127e-05
6.57418e-07
-4.39591e-06
4.49583e-06
2.02754e-05
6.09258e-07
-6.01405e-06
6.24208e-06
1.92827e-05
5.73471e-07
-8.10966e-06
8.52887e-06
1.80087e-05
4.5149e-07
-1.08078e-05
1.16303e-05
1.62736e-05
2.30824e-07
-1.4487e-05
1.59913e-05
1.35356e-05
-4.36546e-07
-1.87848e-05
2.19593e-05
8.55286e-06
-9.83804e-07
-2.37303e-05
2.96968e-05
-3.44925e-06
-1.92198e-05
3.12219e-05
6.48329e-05
1.05348e-05
4.79892e-07
-7.55332e-07
6.36241e-05
1.21981e-05
8.53471e-07
-1.38691e-06
6.12461e-05
1.08475e-05
7.66131e-07
-1.39973e-06
5.86708e-05
8.10201e-06
2.49195e-07
-8.61458e-07
5.6434e-05
5.6929e-06
-6.60442e-07
1.52643e-07
5.46079e-05
3.92645e-06
-1.89225e-06
1.52564e-06
5.30561e-05
2.86043e-06
-3.42957e-06
3.2108e-06
5.15871e-05
2.32135e-06
-5.31038e-06
5.23937e-06
5.00212e-05
2.13951e-06
-7.63368e-06
7.7175e-06
4.81752e-05
2.1652e-06
-1.05506e-05
1.08407e-05
4.58657e-05
2.29265e-06
-1.43075e-05
1.48978e-05
4.27411e-05
2.39097e-06
-1.91549e-05
2.034e-05
3.8344e-05
2.4097e-06
-2.56133e-05
2.78315e-05
3.13312e-05
1.91316e-06
-3.3192e-05
3.7855e-05
2.03465e-05
1.12753e-06
-4.08614e-05
4.97348e-05
-2.05663e-06
-3.22129e-05
5.11668e-05
6.63711e-05
6.96035e-06
5.25639e-07
-8.22222e-07
6.8794e-05
1.03644e-05
9.47532e-07
-1.53675e-06
6.98818e-05
1.04751e-05
8.76298e-07
-1.59169e-06
6.98452e-05
8.84666e-06
3.38403e-07
-1.04651e-06
6.91805e-05
6.96336e-06
-6.33823e-07
2.81284e-08
6.81718e-05
5.39053e-06
-1.97615e-06
1.52072e-06
6.69493e-05
4.37417e-06
-3.6737e-06
3.3825e-06
6.55106e-05
3.8838e-06
-5.76762e-06
5.64381e-06
6.37746e-05
3.82311e-06
-8.36328e-06
8.4157e-06
6.15806e-05
4.0768e-06
-1.16292e-05
1.19116e-05
5.87025e-05
4.55457e-06
-1.58327e-05
1.6449e-05
5.46873e-05
5.1373e-06
-2.12733e-05
2.25422e-05
4.89156e-05
5.76405e-06
-2.85014e-05
3.09188e-05
3.9714e-05
5.95769e-06
-3.70927e-05
4.22498e-05
2.5456e-05
5.40722e-06
-4.57782e-05
5.57565e-05
1.41787e-06
-3.65192e-05
5.85007e-05
6.52722e-05
4.48734e-06
5.46468e-07
-8.45634e-07
6.83555e-05
7.88429e-06
9.96085e-07
-1.5993e-06
7.07568e-05
8.81048e-06
9.4018e-07
-1.67688e-06
7.21074e-05
8.22836e-06
4.10338e-07
-1.14267e-06
7.25774e-05
7.12388e-06
-5.55327e-07
-7.51857e-08
7.23777e-05
6.06946e-06
-1.89244e-06
1.41327e-06
7.16817e-05
5.38274e-06
-3.58715e-06
3.27452e-06
7.05617e-05
5.14606e-06
-5.68193e-06
5.5397e-06
6.89964e-05
5.35074e-06
-8.28152e-06
8.31919e-06
6.68532e-05
5.94806e-06
-1.15587e-05
1.18306e-05
6.38962e-05
6.89781e-06
-1.57811e-05
1.63948e-05
5.96227e-05
8.12699e-06
-2.12733e-05
2.25571e-05
5.33161e-05
9.59574e-06
-2.85902e-05
3.10652e-05
4.31507e-05
1.07826e-05
-3.74024e-05
4.27429e-05
2.72866e-05
1.08449e-05
-4.64276e-05
5.6854e-05
5.54512e-06
-3.74328e-05
6.05921e-05
6.4334e-05
2.94986e-06
5.65771e-07
-8.62327e-07
6.70747e-05
5.74652e-06
1.04301e-06
-1.64586e-06
6.9671e-05
6.95135e-06
1.01064e-06
-1.74784e-06
7.15768e-05
7.05456e-06
5.03418e-07
-1.23545e-06
7.27002e-05
6.6301e-06
-4.32969e-07
-1.9661e-07
7.31106e-05
6.13786e-06
-1.72929e-06
1.25044e-06
7.29271e-05
5.88044e-06
-3.36809e-06
3.05391e-06
7.22222e-05
5.99755e-06
-5.38868e-06
5.24206e-06
7.09965e-05
6.54681e-06
-7.88939e-06
7.91908e-06
6.91361e-05
7.54962e-06
-1.10398e-05
1.12986e-05
6.64091e-05
9.03052e-06
-1.50953e-05
1.56897e-05
6.22793e-05
1.10002e-05
-2.03955e-05
2.1652e-05
5.59426e-05
1.34892e-05
-2.74767e-05
2.992e-05
4.53842e-05
1.601e-05
-3.61418e-05
4.14728e-05
2.84405e-05
1.73084e-05
-4.51249e-05
5.5605e-05
1.05442e-05
-3.67488e-05
6.01902e-05
6.3798e-05
1.94523e-06
5.86345e-07
-8.79732e-07
6.61168e-05
4.02674e-06
1.09444e-06
-1.69347e-06
6.86001e-05
5.20081e-06
1.094e-06
-1.82677e-06
7.0703e-05
5.67831e-06
6.20394e-07
-1.34703e-06
7.21955e-05
5.76139e-06
-2.74213e-07
-3.49596e-07
7.30385e-05
5.76925e-06
-1.51411e-06
1.03976e-06
7.3285e-05
5.94667e-06
-3.07521e-06
2.76252e-06
7.29844e-05
6.4478e-06
-4.9902e-06
4.8405e-06
7.21393e-05
7.37148e-06
-7.34699e-06
7.36738e-06
7.06445e-05
8.80452e-06
-1.03074e-05
1.05473e-05
6.8271e-05
1.08422e-05
-1.41069e-05
1.46687e-05
6.4452e-05
1.36181e-05
-1.90947e-05
2.02958e-05
5.83057e-05
1.7279e-05
-2.57708e-05
2.81274e-05
4.75951e-05
2.15131e-05
-3.41068e-05
3.93144e-05
2.97688e-05
2.48244e-05
-4.2849e-05
5.31593e-05
1.69903e-05
-3.54182e-05
5.87408e-05
6.35533e-05
1.183e-06
6.10652e-07
-9.01718e-07
6.56093e-05
2.56644e-06
1.15417e-06
-1.74985e-06
6.79826e-05
3.5563e-06
1.19307e-06
-1.92192e-06
7.01754e-05
4.20794e-06
7.62511e-07
-1.48493e-06
7.19044e-05
4.65239e-06
-7.98283e-08
-5.40089e-07
7.3072e-05
5.07389e-06
-1.25069e-06
7.78369e-07
7.36913e-05
5.64201e-06
-2.71625e-06
2.40163e-06
7.38004e-05
6.49688e-06
-4.49763e-06
4.33951e-06
7.34157e-05
7.75466e-06
-6.66511e-06
6.66657e-06
7.24646e-05
9.554e-06
-9.36106e-06
9.56266e-06
7.07665e-05
1.20513e-05
-1.27804e-05
1.32694e-05
6.77888e-05
1.55391e-05
-1.72535e-05
1.83102e-05
6.26571e-05
2.03311e-05
-2.31806e-05
2.52602e-05
5.27402e-05
2.67596e-05
-3.07092e-05
3.53796e-05
3.47197e-05
3.3571e-05
-3.84858e-05
4.77596e-05
2.98616e-05
-3.23841e-05
5.42324e-05
6.34669e-05
6.37871e-07
-9.2791e-07
5.06123e-07
6.54255e-05
1.22025e-06
-1.81447e-06
1.20211e-06
6.77783e-05
1.30302e-06
-2.0303e-06
1.93074e-06
7.00591e-05
9.2127e-07
-1.64246e-06
2.64832e-06
7.19683e-05
1.37337e-07
-7.56856e-07
3.36269e-06
7.33862e-05
-9.5815e-07
4.8419e-07
4.12998e-06
7.43105e-05
-2.32059e-06
2.00055e-06
5.03774e-06
7.478e-05
-3.95769e-06
3.78785e-06
6.19719e-06
7.4828e-05
-5.92025e-06
5.89957e-06
7.72739e-06
7.4414e-05
-8.32778e-06
8.48735e-06
9.80847e-06
7.34064e-05
-1.13319e-05
1.17438e-05
1.2647e-05
7.13247e-05
-1.52361e-05
1.61413e-05
1.67157e-05
6.7376e-05
-2.03368e-05
2.21323e-05
2.24843e-05
5.86891e-05
-2.69785e-05
3.10964e-05
3.13286e-05
4.16951e-05
-3.37999e-05
4.20412e-05
4.23238e-05
-2.99244e-05
5.05371e-05
5.09439e-05
5.00388e-05
1.25981e-05
2.09678e-07
3.98128e-05
1.04736e-05
3.38252e-07
3.22228e-05
7.85692e-06
2.14057e-07
2.75156e-05
4.93321e-06
-1.12173e-07
2.46971e-05
2.96654e-06
-6.08285e-07
2.29961e-05
1.75551e-06
-1.23863e-06
2.18296e-05
1.11989e-06
-2.00929e-06
2.08468e-05
8.23081e-07
-2.94555e-06
1.98373e-05
7.14613e-07
-4.10096e-06
1.86681e-05
6.85806e-07
-5.53069e-06
1.72334e-05
6.78295e-07
-7.35327e-06
1.54132e-05
5.97395e-07
-9.58497e-06
1.29724e-05
4.44615e-07
-1.24908e-05
9.6587e-06
-1.10771e-07
-1.53602e-05
4.52775e-06
-6.4408e-07
-1.79553e-05
-2.59137e-06
-1.21007e-05
6.47419e-05
1.05488e-05
2.87344e-07
6.3356e-05
1.22327e-05
4.80293e-07
6.07582e-05
1.08955e-05
3.25342e-07
5.79498e-05
8.15506e-06
-1.64272e-07
5.54757e-05
5.75162e-06
-9.71437e-07
5.33976e-05
3.99699e-06
-2.05558e-06
5.15534e-05
2.95306e-06
-3.41852e-06
4.97188e-05
2.44595e-06
-5.0987e-06
4.76746e-05
2.30725e-06
-7.18208e-06
4.51981e-05
2.38674e-06
-9.77509e-06
4.20513e-05
2.58497e-06
-1.30674e-05
3.78763e-05
2.7665e-06
-1.7149e-05
3.21675e-05
2.89077e-06
-2.23506e-05
2.40521e-05
2.49149e-06
-2.76788e-05
1.26403e-05
1.66323e-06
-3.1757e-05
-1.47381e-06
-2.06901e-05
6.6279e-05
6.97808e-06
3.17313e-07
6.85165e-05
1.04085e-05
5.34266e-07
6.93682e-05
1.05428e-05
3.77372e-07
6.90727e-05
8.9312e-06
-1.42281e-07
6.81368e-05
7.06529e-06
-1.01157e-06
6.68364e-05
5.51767e-06
-2.1964e-06
6.5277e-05
4.54086e-06
-3.70219e-06
6.34213e-05
4.10689e-06
-5.57278e-06
6.11429e-05
4.12333e-06
-7.90097e-06
5.82337e-05
4.47572e-06
-1.0809e-05
5.44043e-05
5.08273e-06
-1.45011e-05
4.91855e-05
5.81553e-06
-1.91036e-05
4.19018e-05
6.62478e-06
-2.49517e-05
3.1394e-05
6.94669e-06
-3.10402e-05
1.66091e-05
6.34049e-06
-3.56706e-05
1.86373e-06
-2.32477e-05
6.51823e-05
4.50719e-06
3.35074e-07
6.80816e-05
7.93437e-06
5.70845e-07
7.0249e-05
8.89231e-06
4.23322e-07
7.13427e-05
8.33881e-06
-9.10195e-08
7.15425e-05
7.2649e-06
-9.54749e-07
7.10513e-05
6.2508e-06
-2.13431e-06
7.00189e-05
5.62235e-06
-3.63633e-06
6.84826e-05
5.46771e-06
-5.50638e-06
6.63754e-05
5.78586e-06
-7.83687e-06
6.35144e-05
6.53233e-06
-1.07543e-05
5.95964e-05
7.68161e-06
-1.44619e-05
5.40941e-05
9.15058e-06
-1.91061e-05
4.62237e-05
1.09221e-05
-2.50171e-05
3.46758e-05
1.23358e-05
-3.12437e-05
1.82015e-05
1.24141e-05
-3.60269e-05
6.14348e-06
-2.3511e-05
6.42462e-05
2.97198e-06
3.54757e-07
6.6806e-05
5.80257e-06
6.15068e-07
6.91743e-05
7.0457e-06
4.88906e-07
7.08329e-05
7.18738e-06
-3.70758e-09
7.16987e-05
6.80543e-06
-8.39293e-07
7.18332e-05
6.36749e-06
-1.98053e-06
7.13324e-05
6.18578e-06
-3.4307e-06
7.02349e-05
6.40909e-06
-5.23253e-06
6.84968e-05
7.107e-06
-7.47248e-06
6.5954e-05
8.31038e-06
-1.0275e-05
6.2305e-05
1.00672e-05
-1.38321e-05
5.6981e-05
1.23838e-05
-1.83047e-05
4.90954e-05
1.53354e-05
-2.40044e-05
3.71237e-05
1.82515e-05
-3.00858e-05
1.94501e-05
1.97577e-05
-3.47949e-05
1.1556e-05
-2.27112e-05
6.37119e-05
1.9702e-06
3.76198e-07
6.58536e-05
4.08922e-06
6.66121e-07
6.81162e-05
5.30664e-06
5.70447e-07
6.99835e-05
5.83014e-06
1.10305e-07
7.12349e-05
5.96533e-06
-6.85428e-07
7.18229e-05
6.03918e-06
-1.77388e-06
7.17784e-05
6.30735e-06
-3.15223e-06
7.11183e-05
6.93613e-06
-4.85718e-06
6.98032e-05
8.04081e-06
-6.96565e-06
6.76779e-05
9.72449e-06
-9.59621e-06
6.44449e-05
1.21167e-05
-1.29234e-05
5.94955e-05
1.53593e-05
-1.71208e-05
5.18529e-05
1.9675e-05
-2.24678e-05
3.97281e-05
2.4538e-05
-2.82684e-05
2.10395e-05
2.83882e-05
-3.27909e-05
1.8668e-05
-2.14907e-05
6.34692e-05
1.21081e-06
4.00788e-07
6.53528e-05
2.63481e-06
7.25041e-07
6.7514e-05
3.67149e-06
6.67051e-07
6.94845e-05
4.37414e-06
2.47994e-07
7.09913e-05
4.8772e-06
-4.98483e-07
7.19298e-05
5.37263e-06
-1.52271e-06
7.22922e-05
6.04187e-06
-2.81317e-06
7.20878e-05
7.03941e-06
-4.3965e-06
7.12965e-05
8.50127e-06
-6.33429e-06
6.98016e-05
1.05891e-05
-8.73079e-06
6.73631e-05
1.3503e-05
-1.17281e-05
6.34028e-05
1.75628e-05
-1.54966e-05
5.6953e-05
2.3188e-05
-2.02437e-05
4.57282e-05
3.05169e-05
-2.54634e-05
2.6741e-05
3.83104e-05
-2.94208e-05
3.23995e-05
-1.93746e-05
6.3385e-05
4.27396e-07
5.36237e-07
6.51764e-05
7.88943e-07
1.27472e-06
6.73265e-05
7.72754e-07
2.05172e-06
6.93991e-05
3.99942e-07
2.82286e-06
7.11062e-05
-2.91748e-07
3.59919e-06
7.2322e-05
-1.24587e-06
4.44454e-06
7.30257e-05
-2.4412e-06
5.45873e-06
7.32312e-05
-3.89266e-06
6.76889e-06
7.2941e-05
-5.64491e-06
8.51618e-06
7.20771e-05
-7.78489e-06
1.09102e-05
7.046e-05
-1.04196e-05
1.42076e-05
6.75619e-05
-1.37102e-05
1.89349e-05
6.25135e-05
-1.7788e-05
2.56876e-05
5.26872e-05
-2.23634e-05
3.57281e-05
3.47426e-05
-2.57695e-05
4.82246e-05
-1.76501e-05
5.48678e-05
4.99889e-05
1.26038e-05
1.16903e-07
3.96656e-05
1.04898e-05
1.71875e-07
3.19611e-05
7.87669e-06
4.18037e-08
2.71386e-05
4.9518e-06
-2.41409e-07
2.42045e-05
2.98475e-06
-6.58987e-07
2.23782e-05
1.77669e-06
-1.18903e-06
2.10612e-05
1.14817e-06
-1.84046e-06
1.98861e-05
8.61305e-07
-2.63169e-06
1.86215e-05
7.65793e-07
-3.60221e-06
1.71165e-05
7.52681e-07
-4.77839e-06
1.52362e-05
7.66485e-07
-6.23942e-06
1.28734e-05
7.14459e-07
-7.93664e-06
9.81329e-06
5.9857e-07
-1.00293e-05
6.17114e-06
1.07059e-07
-1.18252e-05
1.70422e-06
-4.87917e-07
-1.30004e-05
-2.23455e-06
-8.16193e-06
6.46713e-05
1.05628e-05
1.57112e-07
6.31441e-05
1.22659e-05
2.31304e-07
6.03606e-05
1.09423e-05
4.31917e-08
5.73421e-05
8.20823e-06
-4.02273e-07
5.46424e-05
5.8108e-06
-1.09775e-06
5.23164e-05
4.06731e-06
-2.02019e-06
5.01824e-05
3.04345e-06
-3.17979e-06
4.79887e-05
2.56543e-06
-4.60915e-06
4.54808e-05
2.46627e-06
-6.3746e-06
4.2403e-05
2.59501e-06
-8.53963e-06
3.84755e-05
2.85724e-06
-1.12306e-05
3.33626e-05
3.1119e-06
-1.44336e-05
2.66085e-05
3.32142e-06
-1.83193e-05
1.793e-05
2.98808e-06
-2.18814e-05
7.38611e-06
2.07683e-06
-2.37778e-05
-1.14539e-06
-1.43932e-05
6.62079e-05
6.9966e-06
1.75663e-07
6.82977e-05
1.04524e-05
2.57886e-07
6.89505e-05
1.061e-05
5.69672e-08
6.84231e-05
9.01586e-06
-4.22488e-07
6.72315e-05
7.16724e-06
-1.17645e-06
6.56468e-05
5.64339e-06
-2.1878e-06
6.3756e-05
4.7031e-06
-3.47103e-06
6.14924e-05
4.32107e-06
-5.06483e-06
5.86909e-05
4.40884e-06
-7.04198e-06
5.51039e-05
4.85228e-06
-9.47927e-06
5.03943e-05
5.5779e-06
-1.25123e-05
4.41083e-05
6.44585e-06
-1.61515e-05
3.56201e-05
7.41478e-06
-2.05568e-05
2.44077e-05
7.84009e-06
-2.46798e-05
1.04896e-05
7.17164e-06
-2.68472e-05
2.25898e-06
-1.61625e-05
6.51133e-05
4.52816e-06
1.90205e-07
6.78669e-05
7.98508e-06
2.84566e-07
6.98377e-05
8.97393e-06
8.86166e-08
7.07016e-05
8.44872e-06
-3.87801e-07
7.06471e-05
7.40442e-06
-1.13743e-06
6.98721e-05
6.42821e-06
-2.14408e-06
6.85085e-05
5.85392e-06
-3.42361e-06
6.65646e-05
5.77523e-06
-5.01659e-06
6.39337e-05
6.19854e-06
-6.99564e-06
6.03906e-05
7.0826e-06
-9.44155e-06
5.55795e-05
8.41507e-06
-1.24881e-05
4.89803e-05
1.01004e-05
-1.61615e-05
3.98484e-05
1.21416e-05
-2.06121e-05
2.7518e-05
1.37517e-05
-2.48249e-05
1.18532e-05
1.38602e-05
-2.70507e-05
6.83368e-06
-1.62326e-05
6.41793e-05
2.99501e-06
2.08603e-07
6.65966e-05
5.85895e-06
3.23871e-07
6.87741e-05
7.13902e-06
1.46354e-07
7.02117e-05
7.31801e-06
-3.10566e-07
7.08348e-05
6.9767e-06
-1.03472e-06
7.06999e-05
6.58979e-06
-2.0072e-06
6.98854e-05
6.47881e-06
-3.24107e-06
6.84018e-05
6.80093e-06
-4.7746e-06
6.61661e-05
7.6371e-06
-6.67536e-06
6.29707e-05
9.02604e-06
-9.023e-06
5.84586e-05
1.10372e-05
-1.19421e-05
5.20581e-05
1.36685e-05
-1.54722e-05
4.29064e-05
1.70369e-05
-1.97479e-05
3.01057e-05
2.03054e-05
-2.38387e-05
1.31324e-05
2.20385e-05
-2.6e-05
1.27975e-05
-1.55426e-05
6.36468e-05
1.99543e-06
2.29021e-07
6.56498e-05
4.15094e-06
3.71097e-07
6.77283e-05
5.40988e-06
2.21051e-07
6.93856e-05
5.97746e-06
-2.06422e-07
7.04094e-05
6.16214e-06
-8.94623e-07
7.07474e-05
6.29806e-06
-1.82021e-06
7.04136e-05
6.65138e-06
-2.991e-06
6.93981e-05
7.39949e-06
-4.44024e-06
6.76238e-05
8.67325e-06
-6.22748e-06
6.48923e-05
1.05898e-05
-8.42844e-06
6.08492e-05
1.33107e-05
-1.11539e-05
5.4873e-05
1.69806e-05
-1.44566e-05
4.59959e-05
2.18939e-05
-1.84477e-05
3.30201e-05
2.73335e-05
-2.23208e-05
1.48894e-05
3.17451e-05
-2.43667e-05
2.07692e-05
-1.4573e-05
6.34061e-05
1.23805e-06
2.52099e-07
6.51556e-05
2.70095e-06
4.25546e-07
6.71407e-05
3.78216e-06
3.0958e-07
6.89137e-05
4.53328e-06
-8.08231e-08
7.02106e-05
5.0918e-06
-7.24962e-07
7.09228e-05
5.65703e-06
-1.59394e-06
7.10276e-05
6.42154e-06
-2.68809e-06
7.051e-05
7.55316e-06
-4.0326e-06
6.9317e-05
9.20679e-06
-5.67484e-06
6.72925e-05
1.15646e-05
-7.68107e-06
6.41456e-05
1.48682e-05
-1.01387e-05
5.92777e-05
1.94582e-05
-1.31064e-05
5.17212e-05
2.5857e-05
-1.66503e-05
3.96943e-05
3.40283e-05
-2.01313e-05
2.1068e-05
4.28459e-05
-2.18952e-05
3.56268e-05
-1.31643e-05
6.3324e-05
2.76574e-07
5.64867e-07
6.49865e-05
4.83921e-07
1.3435e-06
6.69695e-05
4.05698e-07
2.16619e-06
6.8858e-05
5.68653e-08
2.98784e-06
7.03737e-05
-5.38447e-07
3.8228e-06
7.13885e-05
-1.34567e-06
4.74204e-06
7.18688e-05
-2.35681e-06
5.85682e-06
7.18077e-05
-3.58762e-06
7.30924e-06
7.11801e-05
-5.07199e-06
9.26153e-06
6.98742e-05
-6.86443e-06
1.19501e-05
6.76691e-05
-9.02691e-06
1.56805e-05
6.40124e-05
-1.16201e-05
2.10249e-05
5.8037e-05
-1.46633e-05
2.87078e-05
4.7516e-05
-1.77066e-05
3.98925e-05
2.98314e-05
-1.92177e-05
5.39786e-05
-1.20187e-05
5.98268e-05
4.99508e-05
1.26091e-05
5.70177e-08
3.95511e-05
1.05039e-05
6.76401e-08
3.17536e-05
7.89443e-06
-5.50554e-08
2.6834e-05
4.969e-06
-2.9083e-07
2.38018e-05
3.00208e-06
-6.28827e-07
2.18718e-05
1.79709e-06
-1.05612e-06
2.04377e-05
1.17547e-06
-1.58189e-06
1.91262e-05
8.98706e-07
-2.21886e-06
1.77013e-05
8.17238e-07
-2.99456e-06
1.6017e-05
8.23186e-07
-3.91732e-06
1.39475e-05
8.65705e-07
-5.03556e-06
1.1428e-05
8.59324e-07
-6.2765e-06
8.30637e-06
8.15214e-07
-7.72288e-06
4.82761e-06
4.55104e-07
-8.8015e-06
1.04973e-06
-3.33828e-08
-9.18917e-06
-1.60937e-06
-5.50283e-06
6.46167e-05
1.05759e-05
7.36835e-08
6.29781e-05
1.2296e-05
7.77805e-08
6.00433e-05
1.0985e-05
-1.12583e-07
5.68486e-05
8.25731e-06
-4.95889e-07
5.39564e-05
5.86593e-06
-1.06932e-06
5.14208e-05
4.13276e-06
-1.8203e-06
4.9051e-05
3.12709e-06
-2.76159e-06
4.65836e-05
2.67571e-06
-3.91874e-06
4.37523e-05
2.61372e-06
-5.33982e-06
4.03028e-05
2.79101e-06
-7.05797e-06
3.59671e-05
3.12042e-06
-9.14962e-06
3.04804e-05
3.46337e-06
-1.15509e-05
2.35039e-05
3.79617e-06
-1.43238e-05
1.50647e-05
3.62083e-06
-1.66079e-05
5.67586e-06
2.82553e-06
-1.72479e-05
-3.98762e-07
-9.92795e-06
6.6153e-05
7.01414e-06
8.43576e-08
6.81266e-05
1.04931e-05
8.71833e-08
6.86174e-05
1.06719e-05
-1.20782e-07
6.78954e-05
9.09411e-06
-5.37326e-07
6.64857e-05
7.26147e-06
-1.16229e-06
6.46598e-05
5.75894e-06
-1.9881e-06
6.24966e-05
4.8509e-06
-3.03167e-06
5.99172e-05
4.51474e-06
-4.32438e-06
5.67427e-05
4.66605e-06
-5.91985e-06
5.27244e-05
5.19187e-06
-7.86181e-06
4.75369e-05
6.02761e-06
-1.0232e-05
4.08015e-05
7.02944e-06
-1.29822e-05
3.20259e-05
8.17151e-06
-1.61565e-05
2.1044e-05
8.76519e-06
-1.88423e-05
8.41685e-06
8.19319e-06
-1.95877e-05
3.02215e-06
-1.11666e-05
6.50604e-05
4.54821e-06
9.57215e-08
6.76997e-05
8.03246e-06
1.05916e-07
6.95108e-05
9.0495e-06
-1.00016e-07
7.01822e-05
8.55003e-06
-5.15128e-07
6.99108e-05
7.53242e-06
-1.13695e-06
6.88949e-05
6.58968e-06
-1.95899e-06
6.72592e-05
6.06255e-06
-2.9995e-06
6.49995e-05
6.04954e-06
-4.29171e-06
6.19957e-05
6.56344e-06
-5.8893e-06
5.80201e-05
7.56546e-06
-7.83953e-06
5.27274e-05
9.05465e-06
-1.02224e-05
4.56704e-05
1.09265e-05
-1.30015e-05
3.62371e-05
1.32032e-05
-1.62104e-05
2.41221e-05
1.50114e-05
-1.89562e-05
9.75337e-06
1.52231e-05
-1.97118e-05
7.70127e-06
-1.11583e-05
6.41283e-05
3.01686e-06
1.11637e-07
6.64344e-05
5.91148e-06
1.38775e-07
6.84573e-05
7.22503e-06
-5.20939e-08
6.971e-05
7.43756e-06
-4.50757e-07
7.01262e-05
7.13244e-06
-1.05098e-06
6.97628e-05
6.79019e-06
-1.84429e-06
6.86909e-05
6.74022e-06
-2.84686e-06
6.69096e-05
7.14643e-06
-4.09014e-06
6.43228e-05
8.09873e-06
-5.62388e-06
6.07197e-05
9.64046e-06
-7.49494e-06
5.57523e-05
1.18563e-05
-9.77636e-06
4.89163e-05
1.47332e-05
-1.2443e-05
3.94729e-05
1.84152e-05
-1.55165e-05
2.68717e-05
2.19414e-05
-1.81675e-05
1.11368e-05
2.38318e-05
-1.88737e-05
1.39013e-05
-1.06058e-05
6.35973e-05
2.01899e-06
1.29574e-07
6.54926e-05
4.20782e-06
1.79493e-07
6.74226e-05
5.50413e-06
1.18987e-08
6.89044e-05
6.1111e-06
-3.61687e-07
6.97341e-05
6.33952e-06
-9.31425e-07
6.98601e-05
6.52939e-06
-1.68539e-06
6.92893e-05
6.95552e-06
-2.63556e-06
6.80011e-05
7.8038e-06
-3.80942e-06
6.59063e-05
9.21652e-06
-5.25044e-06
6.28028e-05
1.13185e-05
-7.00301e-06
5.83438e-05
1.42915e-05
-9.13001e-06
5.19685e-05
1.82703e-05
-1.16184e-05
4.28221e-05
2.35879e-05
-1.44741e-05
3.00327e-05
2.93738e-05
-1.69639e-05
1.30498e-05
3.40527e-05
-1.76047e-05
2.2241e-05
-9.8629e-06
6.33584e-05
1.26297e-06
1.49706e-07
6.50042e-05
2.76106e-06
2.26499e-07
6.68479e-05
3.88213e-06
8.79061e-08
6.8456e-05
4.67637e-06
-2.54247e-07
6.95738e-05
5.28365e-06
-7.8684e-07
7.00936e-05
5.90922e-06
-1.49359e-06
6.99868e-05
6.75472e-06
-2.3805e-06
6.92291e-05
7.99778e-06
-3.4689e-06
6.77574e-05
9.80652e-06
-4.79309e-06
6.54124e-05
1.2374e-05
-6.39157e-06
6.19111e-05
1.59654e-05
-8.31137e-06
5.67064e-05
2.09173e-05
-1.05487e-05
4.893e-05
2.77979e-05
-1.30839e-05
3.70833e-05
3.6405e-05
-1.53158e-05
1.94596e-05
4.56166e-05
-1.58355e-05
3.74554e-05
-8.91913e-06
6.32782e-05
1.70809e-07
5.90541e-07
6.48415e-05
2.76569e-07
1.40511e-06
6.66907e-05
1.70094e-07
2.26853e-06
6.84259e-05
-1.36883e-07
3.13495e-06
6.97783e-05
-6.28413e-07
4.02121e-06
7.06215e-05
-1.2837e-06
5.00407e-06
7.09175e-05
-2.10206e-06
6.20398e-06
7.06515e-05
-3.09757e-06
7.7737e-06
6.97907e-05
-4.29439e-06
9.88966e-06
6.82216e-05
-5.72346e-06
1.28022e-05
6.57322e-05
-7.4146e-06
1.68425e-05
6.18129e-05
-9.37104e-06
2.25875e-05
5.5685e-05
-1.15476e-05
3.08101e-05
4.53557e-05
-1.34933e-05
4.25211e-05
2.85454e-05
-1.39319e-05
5.7141e-05
-8.16576e-06
6.21479e-05
4.99213e-05
1.26135e-05
2.22367e-08
3.94623e-05
1.05155e-05
1.11275e-08
3.15902e-05
7.90905e-06
-9.19451e-08
2.65905e-05
4.98329e-06
-2.74425e-07
2.34751e-05
3.01649e-06
-5.29955e-07
2.14562e-05
1.81385e-06
-8.51096e-07
1.99221e-05
1.19756e-06
-1.24537e-06
1.84954e-05
9.2852e-07
-1.7206e-06
1.69374e-05
8.57609e-07
-2.29419e-06
1.51073e-05
8.77482e-07
-2.96474e-06
1.28904e-05
9.40387e-07
-3.75899e-06
1.02571e-05
9.65406e-07
-4.60864e-06
7.11805e-06
9.69246e-07
-5.55306e-06
3.81171e-06
6.90954e-07
-6.18613e-06
5.99037e-07
2.63501e-07
-6.23999e-06
-1.2579e-06
-3.6459e-06
6.45742e-05
1.0587e-05
2.59045e-08
6.28488e-05
1.23213e-05
-2.60507e-09
5.97931e-05
1.1021e-05
-1.68818e-07
5.64539e-05
8.2991e-06
-4.72514e-07
5.34006e-05
5.91305e-06
-9.12564e-07
5.06879e-05
4.18855e-06
-1.48226e-06
4.8119e-05
3.19788e-06
-2.19301e-06
4.54233e-05
2.76838e-06
-3.0629e-06
4.2328e-05
2.73687e-06
-4.12387e-06
3.85838e-05
2.95371e-06
-5.38999e-06
3.39403e-05
3.33737e-06
-6.90309e-06
2.8196e-05
3.75046e-06
-8.59158e-06
2.11259e-05
4.17959e-06
-1.04641e-05
1.29771e-05
4.12105e-06
-1.18892e-05
4.56843e-06
3.40374e-06
-1.19794e-05
1.10061e-07
-6.72749e-06
6.61104e-05
7.02943e-06
3.15073e-08
6.79933e-05
1.05281e-05
-2.4012e-09
6.83546e-05
1.0725e-05
-1.86144e-07
6.74734e-05
9.16132e-06
-5.18365e-07
6.58817e-05
7.34248e-06
-9.99999e-07
6.38524e-05
5.85796e-06
-1.62814e-06
6.14595e-05
4.97686e-06
-2.41775e-06
5.86164e-05
4.67885e-06
-3.39174e-06
5.51369e-05
4.88286e-06
-4.58642e-06
5.07757e-05
5.47672e-06
-6.02364e-06
4.52263e-05
6.40281e-06
-7.74799e-06
3.81784e-05
7.51343e-06
-9.69727e-06
2.92689e-05
8.79467e-06
-1.18621e-05
1.85915e-05
9.52047e-06
-1.35643e-05
7.07035e-06
9.02167e-06
-1.36845e-05
3.60911e-06
-7.59527e-06
6.50195e-05
4.56584e-06
3.98264e-08
6.75698e-05
8.07359e-06
1.0077e-08
6.92534e-05
9.11469e-06
-1.73323e-07
6.97674e-05
8.63732e-06
-5.051e-07
6.93151e-05
7.6425e-06
-9.84645e-07
6.8096e-05
6.72804e-06
-1.61004e-06
6.62304e-05
6.24042e-06
-2.39745e-06
6.37068e-05
6.28213e-06
-3.37134e-06
6.03974e-05
6.87123e-06
-4.56823e-06
5.60768e-05
7.9706e-06
-6.01284e-06
5.04175e-05
9.5881e-06
-7.74837e-06
4.30395e-05
1.16111e-05
-9.72112e-06
3.34602e-05
1.40763e-05
-1.19128e-05
2.16399e-05
1.60416e-05
-1.36569e-05
8.3871e-06
1.63358e-05
-1.37732e-05
8.41669e-06
-7.57884e-06
6.4089e-05
3.03609e-06
5.24086e-08
6.63088e-05
5.95713e-06
3.54586e-08
6.82086e-05
7.29931e-06
-1.36521e-07
6.93102e-05
7.54046e-06
-4.55518e-07
6.95538e-05
7.2661e-06
-9.18198e-07
6.89973e-05
6.96154e-06
-1.52134e-06
6.77078e-05
6.96272e-06
-2.2796e-06
6.5677e-05
7.43905e-06
-3.21625e-06
6.28016e-05
8.48772e-06
-4.36498e-06
5.88724e-05
1.01553e-05
-5.75051e-06
5.35573e-05
1.25382e-05
-7.41134e-06
4.64147e-05
1.56131e-05
-9.3025e-06
3.68284e-05
1.95438e-05
-1.13977e-05
2.45055e-05
2.32733e-05
-1.30764e-05
9.84317e-06
2.52877e-05
-1.31632e-05
1.48367e-05
-7.18265e-06
6.35593e-05
2.03956e-06
6.67555e-08
6.53713e-05
4.25704e-06
6.76402e-08
6.71834e-05
5.58529e-06
-8.61754e-08
6.85219e-05
6.22575e-06
-3.85523e-07
6.91898e-05
6.49122e-06
-8.24387e-07
6.91364e-05
6.7266e-06
-1.39705e-06
6.83648e-05
7.21381e-06
-2.11507e-06
6.68476e-05
8.14562e-06
-2.99882e-06
6.44888e-05
9.67356e-06
-4.07745e-06
6.10873e-05
1.1928e-05
-5.37428e-06
5.63106e-05
1.51059e-05
-6.92095e-06
4.96544e-05
1.9333e-05
-8.68212e-06
4.03779e-05
2.49687e-05
-1.06224e-05
2.78508e-05
3.10267e-05
-1.21902e-05
1.18688e-05
3.59117e-05
-1.22469e-05
2.3499e-05
-6.65635e-06
6.3322e-05
1.28451e-06
8.27973e-08
6.48879e-05
2.81272e-06
1.04849e-07
6.66196e-05
3.96775e-06
-2.62374e-08
6.80935e-05
4.79858e-06
-3.01014e-07
6.90618e-05
5.44714e-06
-7.11008e-07
6.94185e-05
6.12362e-06
-1.24729e-06
6.91317e-05
7.03713e-06
-1.91702e-06
6.81713e-05
8.37324e-06
-2.73619e-06
6.64686e-05
1.03107e-05
-3.72753e-06
6.38653e-05
1.30507e-05
-4.91094e-06
6.00914e-05
1.68765e-05
-6.30803e-06
5.46489e-05
2.21191e-05
-7.89231e-06
4.67701e-05
2.93788e-05
-9.61515e-06
3.51701e-05
3.83298e-05
-1.10189e-05
1.8435e-05
4.78468e-05
-1.10355e-05
3.90554e-05
-6.04052e-06
6.32433e-05
9.94967e-08
6.12479e-07
6.47307e-05
1.44343e-07
1.45759e-06
6.64745e-05
3.84427e-08
2.35562e-06
6.8085e-05
-2.08863e-07
3.26e-06
6.93011e-05
-5.87009e-07
4.18965e-06
6.99985e-05
-1.08369e-06
5.2262e-06
7.0137e-05
-1.70109e-06
6.49767e-06
6.96973e-05
-2.45004e-06
8.16544e-06
6.86425e-05
-3.34618e-06
1.04173e-05
6.68605e-05
-4.40487e-06
1.35141e-05
6.41525e-05
-5.63679e-06
1.78067e-05
6.00503e-05
-7.02295e-06
2.38732e-05
5.38637e-05
-8.50264e-06
3.25204e-05
4.37781e-05
-9.72437e-06
4.46464e-05
2.77464e-05
-9.73643e-06
5.9683e-05
-5.55485e-06
6.41909e-05
4.99001e-05
1.26169e-05
5.22485e-09
3.93981e-05
1.05245e-05
-1.13628e-08
3.14711e-05
7.92038e-06
-8.5286e-08
2.6412e-05
4.9946e-06
-2.09972e-07
2.32354e-05
3.02811e-06
-3.81435e-07
2.11527e-05
1.82754e-06
-5.95903e-07
1.95501e-05
1.21576e-06
-8.5853e-07
1.80498e-05
9.53439e-07
-1.17373e-06
1.6415e-05
8.91986e-07
-1.55145e-06
1.45127e-05
9.24836e-07
-1.98724e-06
1.22408e-05
1.00707e-06
-2.49418e-06
9.59197e-06
1.06163e-06
-3.02143e-06
6.51324e-06
1.1103e-06
-3.58463e-06
3.3542e-06
9.00842e-07
-3.92793e-06
4.47451e-07
5.31606e-07
-3.86485e-06
-9.77856e-07
-2.2206e-06
6.45436e-05
1.05958e-05
3.40952e-09
6.27547e-05
1.23412e-05
-3.04236e-08
5.96097e-05
1.10491e-05
-1.52499e-07
5.61628e-05
8.332e-06
-3.63041e-07
5.29895e-05
5.95034e-06
-6.6144e-07
5.01464e-05
4.23278e-06
-1.04442e-06
4.74354e-05
3.25399e-06
-1.52027e-06
4.45844e-05
2.84192e-06
-2.1004e-06
4.13216e-05
2.8349e-06
-2.80397e-06
3.74076e-05
3.08403e-06
-3.63519e-06
3.26132e-05
3.51256e-06
-4.61421e-06
2.67816e-05
3.98487e-06
-5.68318e-06
1.97618e-05
4.49635e-06
-6.83035e-06
1.18825e-05
4.53743e-06
-7.64649e-06
4.07547e-06
3.89645e-06
-7.53726e-06
5.26076e-07
-4.15595e-06
6.60796e-05
7.04158e-06
6.07243e-09
6.78963e-05
1.05556e-05
-3.351e-08
6.81619e-05
1.07667e-05
-1.69422e-07
6.7162e-05
9.21428e-06
-4.00675e-07
6.54342e-05
7.40633e-06
-7.28269e-07
6.32544e-05
5.93587e-06
-1.1514e-06
6.0696e-05
5.07559e-06
-1.68093e-06
5.76708e-05
4.80703e-06
-2.33172e-06
5.39935e-05
5.05173e-06
-3.12591e-06
4.94284e-05
5.69828e-06
-4.07283e-06
4.36924e-05
6.6946e-06
-5.19393e-06
3.65255e-05
7.89084e-06
-6.43642e-06
2.76516e-05
9.28274e-06
-7.77452e-06
1.72714e-05
1.01175e-05
-8.76417e-06
6.4479e-06
9.68877e-06
-8.65336e-06
4.08632e-06
-4.70761e-06
6.499e-05
4.57993e-06
1.14847e-08
6.74754e-05
8.10619e-06
-2.59315e-08
6.90649e-05
9.16614e-06
-1.62206e-07
6.94615e-05
8.70609e-06
-3.93468e-07
6.8874e-05
7.72903e-06
-7.19827e-07
6.75047e-05
6.83633e-06
-1.14119e-06
6.54733e-05
6.37886e-06
-1.66935e-06
6.27672e-05
6.46206e-06
-2.32028e-06
5.92592e-05
7.10782e-06
-3.11636e-06
5.47335e-05
8.28006e-06
-4.06891e-06
4.88853e-05
9.99296e-06
-5.19849e-06
4.13848e-05
1.21279e-05
-6.45774e-06
3.18374e-05
1.4732e-05
-7.81463e-06
2.03133e-05
1.68158e-05
-8.83118e-06
7.76623e-06
1.71758e-05
-8.7131e-06
8.96738e-06
-4.69367e-06
6.40607e-05
3.05143e-06
2.01683e-08
6.62178e-05
5.99332e-06
-8.69076e-09
6.80268e-05
7.3579e-06
-1.37309e-07
6.90159e-05
7.62135e-06
-3.59849e-07
6.91306e-05
7.37078e-06
-6.74661e-07
6.84314e-05
7.09503e-06
-1.08085e-06
6.69851e-05
7.13489e-06
-1.58928e-06
6.47823e-05
7.66368e-06
-2.21516e-06
6.17207e-05
8.78362e-06
-2.97909e-06
5.75998e-05
1.0543e-05
-3.89254e-06
5.21089e-05
1.30457e-05
-4.9732e-06
4.48541e-05
1.62598e-05
-6.17961e-06
3.53025e-05
2.0361e-05
-7.47511e-06
2.32653e-05
2.42274e-05
-8.45081e-06
9.27794e-06
2.63172e-05
-8.31726e-06
1.55019e-05
-4.43923e-06
6.35322e-05
2.05588e-06
3.01462e-08
6.52837e-05
4.29592e-06
1.35253e-08
6.70089e-05
5.6491e-06
-1.02641e-07
6.82409e-05
6.31556e-06
-3.1169e-07
6.87879e-05
6.60956e-06
-6.10179e-07
6.86019e-05
6.87953e-06
-9.95601e-07
6.7686e-05
7.41258e-06
-1.47677e-06
6.60116e-05
8.40621e-06
-2.06703e-06
6.34838e-05
1.00181e-05
-2.78404e-06
5.99098e-05
1.23812e-05
-3.63852e-06
5.4977e-05
1.57015e-05
-4.64404e-06
4.82251e-05
2.00953e-05
-5.76569e-06
3.89897e-05
2.59361e-05
-6.96207e-06
2.67354e-05
3.216e-05
-7.86843e-06
1.13802e-05
3.71487e-05
-7.72318e-06
2.4328e-05
-4.10222e-06
6.32959e-05
1.30147e-06
4.12853e-08
6.48041e-05
2.85331e-06
3.92487e-08
6.64535e-05
4.03481e-06
-6.13014e-08
6.78276e-05
4.89395e-06
-2.53507e-07
6.86843e-05
5.57418e-06
-5.32273e-07
6.89203e-05
6.28921e-06
-8.93001e-07
6.85039e-05
7.25351e-06
-1.34162e-06
6.74047e-05
8.65796e-06
-1.88866e-06
6.55548e-05
1.06881e-05
-2.54778e-06
6.28039e-05
1.35491e-05
-3.32786e-06
5.89003e-05
1.75338e-05
-4.23671e-06
5.3384e-05
2.29653e-05
-5.24599e-06
4.55554e-05
3.04578e-05
-6.30833e-06
3.42118e-05
3.96033e-05
-7.11849e-06
1.80363e-05
4.92568e-05
-6.9682e-06
4.00561e-05
-3.73233e-06
6.32185e-05
5.28381e-08
6.29613e-07
6.46511e-05
6.65055e-08
1.49858e-06
6.63175e-05
-1.67321e-08
2.42354e-06
6.78355e-05
-1.90109e-07
3.35721e-06
6.89498e-05
-4.47147e-07
4.32006e-06
6.95391e-05
-7.81006e-07
5.39714e-06
6.95641e-05
-1.19435e-06
6.72184e-06
6.90052e-05
-1.69439e-06
8.46118e-06
6.78274e-05
-2.29032e-06
1.08101e-05
6.59258e-05
-2.98851e-06
1.40343e-05
6.31186e-05
-3.79053e-06
1.84947e-05
5.89705e-05
-4.67381e-06
2.47642e-05
5.285e-05
-5.58619e-06
3.36618e-05
4.30091e-05
-6.28943e-06
4.60093e-05
2.74688e-05
-6.15946e-06
6.12202e-05
-3.44173e-06
6.54117e-05
4.98861e-05
1.26192e-05
-2.01694e-11
3.93556e-05
1.05306e-05
-1.14333e-08
3.13918e-05