/*--------------------------------*- C++ -*----------------------------------*\
| =========                 |                                                 |
| \\      /  F ield         | OpenFOAM: The Open Source CFD Toolbox           |
|  \\    /   O peration     | Version:  v1912                                 |
|   \\  /    A nd           | Website:  www.openfoam.com                      |
|    \\/     M anipulation  |                                                 |
\*---------------------------------------------------------------------------*/
FoamFile
{
    version     2.0;
    format      ascii;
    class       volScalarField;
    location    "0.74/fluid";
    object      T;
}
// * * * * * * * * * * * * * * * * * * * * * * * * * * * * * * * * * * * * * //

dimensions      [0 0 0 1 0 0 0];


internalField   nonuniform List<scalar> 
14592
(
273.281
273.853
274.45
275.077
275.741
276.449
277.209
278.029
278.919
279.89
280.956
282.132
283.439
284.91
286.603
288.666
273.279
273.848
274.441
275.065
275.725
276.429
277.184
277.999
278.884
279.85
280.91
282.081
283.384
284.85
286.532
288.54
273.277
273.84
274.428
275.045
275.698
276.395
277.143
277.949
278.825
279.78
280.829
281.989
283.283
284.743
286.423
288.434
273.274
273.831
274.411
275.021
275.666
276.353
277.089
277.883
278.745
279.685
280.717
281.859
283.137
284.587
286.269
288.308
273.27
273.82
274.392
274.993
275.627
276.302
277.025
277.804
278.647
279.566
280.574
281.691
282.943
284.373
286.053
288.13
273.266
273.808
274.371
274.961
275.584
276.246
276.952
277.712
278.533
279.425
280.402
281.482
282.695
284.087
285.743
287.848
273.262
273.794
274.348
274.927
275.537
276.183
276.872
277.61
278.405
279.265
280.203
281.236
282.39
283.713
285.298
287.367
273.257
273.78
274.324
274.891
275.488
276.118
276.788
277.502
278.268
279.091
279.983
280.956
282.032
283.247
284.677
286.517
273.286
273.869
274.478
275.118
275.798
276.525
277.308
278.157
279.083
280.1
281.223
282.471
283.87
285.457
287.294
289.504
273.284
273.864
274.468
275.105
275.781
276.504
277.282
278.127
279.048
280.059
281.176
282.418
283.813
285.397
287.227
289.402
273.282
273.856
274.455
275.085
275.754
276.469
277.24
278.075
278.986
279.986
281.091
282.323
283.709
285.288
287.12
289.309
273.279
273.846
274.438
275.06
275.72
276.425
277.184
278.006
278.902
279.886
280.974
282.188
283.558
285.129
286.969
289.196
273.275
273.835
274.418
275.031
275.68
276.373
277.117
277.923
278.8
279.761
280.824
282.011
283.355
284.909
286.753
289.032
273.271
273.822
274.396
274.998
275.635
276.314
277.041
277.827
278.679
279.612
280.642
281.791
283.094
284.609
286.436
288.762
273.266
273.808
274.372
274.962
275.586
276.249
276.958
277.72
278.545
279.444
280.431
281.528
282.769
284.211
285.966
288.274
273.261
273.794
274.347
274.925
275.535
276.18
276.869
277.606
278.4
279.259
280.197
281.229
282.384
283.707
285.292
287.362
273.291
273.884
274.503
275.157
275.851
276.596
277.4
278.275
279.233
280.288
281.458
282.762
284.225
285.879
287.767
289.949
273.289
273.878
274.494
275.143
275.834
276.574
277.373
278.243
279.196
280.246
281.41
282.709
284.168
285.82
287.704
289.863
273.286
273.87
274.48
275.122
275.806
276.538
277.329
278.19
279.132
280.171
281.323
282.611
284.062
285.71
287.6
289.778
273.283
273.86
274.462
275.097
275.771
276.493
277.272
278.119
279.046
280.067
281.201
282.471
283.907
285.549
287.451
289.672
273.279
273.849
274.442
275.066
275.729
276.438
277.203
278.032
278.939
279.937
281.045
282.287
283.698
285.324
287.234
289.512
273.275
273.835
274.419
275.033
275.683
276.377
277.124
277.932
278.814
279.782
280.855
282.058
283.426
285.015
286.912
289.246
273.27
273.821
274.394
274.996
275.632
276.31
277.036
277.821
278.673
279.605
280.634
281.783
283.086
284.601
286.429
288.757
273.266
273.806
274.368
274.957
275.578
276.239
276.944
277.702
278.521
279.412
280.388
281.468
282.681
284.073
285.731
287.839
273.295
273.897
274.526
275.191
275.898
276.658
277.481
278.378
279.362
280.45
281.656
283
284.504
286.189
288.08
290.193
273.293
273.891
274.517
275.177
275.88
276.636
277.454
278.346
279.325
280.406
281.606
282.946
284.446
286.13
288.019
290.115
273.291
273.883
274.502
275.156
275.852
276.599
277.409
278.291
279.259
280.329
281.517
282.846
284.338
286.02
287.917
290.034
273.287
273.873
274.484
275.129
275.816
276.552
277.349
278.218
279.17
280.222
281.392
282.702
284.18
285.858
287.768
289.93
273.283
273.861
274.463
275.098
275.773
276.497
277.278
278.128
279.06
280.088
281.231
282.513
283.966
285.629
287.55
289.772
273.279
273.847
274.44
275.063
275.725
276.433
277.196
278.025
278.93
279.928
281.035
282.277
283.687
285.314
287.225
289.506
273.274
273.833
274.414
275.025
275.673
276.364
277.106
277.91
278.785
279.745
280.806
281.992
283.337
284.89
286.737
289.021
273.269
273.817
274.387
274.986
275.618
276.29
277.011
277.787
278.627
279.544
280.551
281.666
282.918
284.348
286.03
288.113
273.298
273.908
274.546
275.22
275.938
276.71
277.548
278.463
279.469
280.58
281.813
283.184
284.711
286.408
288.283
290.336
273.297
273.902
274.536
275.205
275.919
276.688
277.521
278.431
279.431
280.536
281.763
283.129
284.653
286.349
288.224
290.26
273.294
273.894
274.521
275.184
275.89
276.65
277.475
278.374
279.363
280.457
281.672
283.027
284.544
286.239
288.123
290.181
273.291
273.884
274.503
275.157
275.853
276.602
277.414
278.299
279.272
280.348
281.544
282.881
284.384
286.075
287.974
290.078
273.287
273.871
274.481
275.125
275.81
276.545
277.341
278.208
279.159
280.21
281.379
282.689
284.166
285.844
287.755
289.92
273.282
273.857
274.457
275.089
275.761
276.48
277.257
278.102
279.026
280.046
281.178
282.447
283.882
285.525
287.429
289.656
273.277
273.842
274.431
275.05
275.707
276.409
277.165
277.984
278.877
279.858
280.944
282.156
283.525
285.096
286.939
289.175
273.272
273.827
274.404
275.01
275.651
276.334
277.066
277.857
278.715
279.652
280.681
281.822
283.098
284.548
286.233
288.281
273.301
273.917
274.561
275.242
275.969
276.751
277.6
278.529
279.55
280.678
281.929
283.318
284.857
286.555
288.413
290.42
273.3
273.911
274.551
275.228
275.95
276.728
277.572
278.496
279.511
280.633
281.879
283.262
284.798
286.496
288.354
290.346
273.297
273.902
274.536
275.206
275.92
276.69
277.525
278.439
279.443
280.553
281.786
283.159
284.689
286.386
288.254
290.268
273.293
273.892
274.517
275.178
275.883
276.641
277.464
278.362
279.35
280.442
281.657
283.011
284.527
286.221
288.105
290.165
273.289
273.879
274.496
275.146
275.839
276.583
277.39
278.269
279.235
280.303
281.489
282.816
284.307
285.989
287.886
290.009
273.285
273.865
274.471
275.11
275.789
276.517
277.304
278.161
279.1
280.135
281.285
282.571
284.02
285.668
287.559
289.746
273.28
273.85
274.444
275.07
275.734
276.444
277.21
278.04
278.947
279.944
281.047
282.276
283.659
285.237
287.07
289.268
273.275
273.834
274.416
275.028
275.676
276.367
277.11
277.911
278.782
279.734
280.779
281.936
283.228
284.686
286.366
288.384
273.303
273.923
274.571
275.257
275.99
276.779
277.636
278.573
279.604
280.744
282.006
283.404
284.949
286.646
288.491
290.469
273.302
273.917
274.561
275.243
275.971
276.755
277.607
278.54
279.565
280.698
281.955
283.348
284.891
286.587
288.432
290.395
273.299
273.908
274.546
275.221
275.941
276.717
277.56
278.482
279.496
280.618
281.862
283.245
284.78
286.477
288.331
290.318
273.295
273.898
274.527
275.193
275.903
276.668
277.498
278.405
279.403
280.506
281.731
283.096
284.618
286.312
288.183
290.215
273.291
273.885
274.505
275.16
275.858
276.609
277.423
278.311
279.286
280.364
281.562
282.899
284.397
286.078
287.963
290.059
273.287
273.871
274.481
275.123
275.808
276.542
277.336
278.201
279.149
280.195
281.356
282.652
284.108
285.756
287.637
289.797
273.282
273.855
274.454
275.083
275.752
276.468
277.241
278.079
278.995
280.001
281.114
282.354
283.745
285.324
287.149
289.322
273.276
273.839
274.425
275.041
275.694
276.391
277.139
277.948
278.827
279.788
280.844
282.011
283.31
284.772
286.446
288.445
273.304
273.926
274.577
275.265
276
276.793
277.654
278.595
279.632
280.776
282.044
283.446
284.994
286.69
288.527
290.491
273.303
273.92
274.566
275.251
275.981
276.769
277.625
278.562
279.592
280.731
281.993
283.39
284.935
286.631
288.468
290.418
273.3
273.911
274.551
275.228
275.951
276.731
277.578
278.504
279.523
280.65
281.899
283.287
284.825
286.52
288.368
290.34
273.296
273.9
274.532
275.2
275.913
276.681
277.515
278.426
279.429
280.537
281.768
283.137
284.662
286.355
288.219
290.238
273.292
273.888
274.51
275.168
275.868
276.622
277.439
278.332
279.312
280.395
281.598
282.94
284.44
286.121
288
290.082
273.287
273.873
274.485
275.131
275.817
276.555
277.352
278.221
279.174
280.225
281.391
282.691
284.151
285.799
287.673
289.82
273.282
273.858
274.458
275.09
275.762
276.481
277.256
278.099
279.019
280.03
281.148
282.392
283.787
285.366
287.186
289.347
273.277
273.842
274.43
275.048
275.703
276.402
277.154
277.967
278.85
279.816
280.877
282.048
283.351
284.813
286.485
288.474
273.253
273.768
274.3
274.853
275.426
276.021
276.639
277.279
277.939
278.614
279.297
279.977
280.638
281.263
281.826
282.303
273.252
273.764
274.294
274.844
275.414
276.007
276.622
277.26
277.917
278.589
279.268
279.945
280.604
281.225
281.786
282.261
273.25
273.758
274.284
274.83
275.396
275.984
276.594
277.226
277.877
278.543
279.216
279.886
280.538
281.154
281.71
282.181
273.248
273.751
274.272
274.811
275.371
275.953
276.556
277.18
277.823
278.48
279.144
279.804
280.447
281.053
281.601
282.067
273.245
273.743
274.257
274.79
275.343
275.916
276.511
277.125
277.757
278.402
279.054
279.702
280.331
280.926
281.463
281.919
273.242
273.733
274.241
274.766
275.31
275.875
276.459
277.062
277.681
278.313
278.95
279.582
280.195
280.774
281.297
281.742
273.238
273.723
274.223
274.74
275.275
275.83
276.402
276.993
277.598
278.214
278.834
279.448
280.043
280.604
281.11
281.541
273.235
273.712
274.204
274.713
275.239
275.782
276.343
276.92
277.51
278.11
278.711
279.305
279.88
280.42
280.907
281.321
273.253
273.769
274.303
274.858
275.433
276.032
276.655
277.302
277.97
278.655
279.351
280.047
280.728
281.374
281.96
282.458
273.252
273.765
274.296
274.848
275.421
276.017
276.638
277.281
277.946
278.628
279.321
280.013
280.691
281.334
281.918
282.415
273.25
273.759
274.286
274.833
275.401
275.993
276.608
277.246
277.905
278.581
279.266
279.952
280.623
281.26
281.839
282.332
273.248
273.752
274.273
274.814
275.377
275.961
276.569
277.199
277.849
278.516
279.192
279.868
280.529
281.156
281.727
282.214
273.245
273.743
274.259
274.793
275.347
275.924
276.523
277.143
277.782
278.437
279.1
279.762
280.41
281.025
281.584
282.061
273.242
273.734
274.242
274.768
275.315
275.882
276.47
277.078
277.705
278.345
278.993
279.639
280.27
280.868
281.412
281.877
273.239
273.723
274.224
274.742
275.279
275.836
276.413
277.008
277.62
278.244
278.874
279.501
280.113
280.691
281.217
281.666
273.235
273.712
274.205
274.715
275.242
275.789
276.353
276.934
277.531
278.137
278.748
279.354
279.943
280.5
281.004
281.435
273.255
273.774
274.312
274.871
275.452
276.059
276.691
277.35
278.034
278.74
279.462
280.19
280.91
281.601
282.234
282.778
273.254
273.77
274.304
274.86
275.439
276.042
276.672
277.328
278.009
278.711
279.43
280.154
280.87
281.558
282.19
282.732
273.252
273.764
274.294
274.844
275.418
276.017
276.641
277.291
277.965
278.661
279.372
280.09
280.799
281.48
282.106
282.645
273.249
273.756
274.28
274.825
275.392
275.984
276.6
277.242
277.907
278.593
279.294
280.001
280.699
281.37
281.988
282.52
273.247
273.747
274.265
274.803
275.363
275.945
276.552
277.184
277.837
278.511
279.198
279.89
280.574
281.231
281.835
282.357
273.243
273.737
274.248
274.778
275.329
275.902
276.498
277.117
277.757
278.415
279.086
279.76
280.425
281.064
281.651
282.158
273.24
273.727
274.23
274.751
275.293
275.855
276.44
277.045
277.669
278.31
278.962
279.615
280.258
280.874
281.44
281.928
273.236
273.716
274.211
274.724
275.255
275.806
276.378
276.969
277.577
278.199
278.829
279.459
280.077
280.666
281.207
281.673
273.258
273.782
274.326
274.892
275.482
276.1
276.747
277.424
278.132
278.868
279.628
280.404
281.183
281.943
282.653
283.271
273.256
273.778
274.318
274.881
275.468
276.083
276.726
277.4
278.104
278.837
279.593
280.365
281.14
281.897
282.605
283.222
273.254
273.771
274.307
274.864
275.447
276.056
276.693
277.361
278.058
278.783
279.532
280.297
281.064
281.814
282.517
283.13
273.252
273.764
274.293
274.845
275.42
276.021
276.651
277.31
277.998
278.712
279.449
280.202
280.958
281.697
282.39
282.996
273.249
273.754
274.278
274.822
275.389
275.982
276.601
277.249
277.924
278.625
279.347
280.084
280.823
281.546
282.225
282.819
273.246
273.744
274.26
274.796
275.354
275.937
276.545
277.18
277.84
278.524
279.228
279.945
280.662
281.364
282.022
282.6
273.242
273.733
274.241
274.768
275.317
275.888
276.484
277.104
277.747
278.413
279.095
279.788
280.48
281.154
281.785
282.339
273.238
273.722
274.222
274.74
275.278
275.837
276.419
277.024
277.65
278.294
278.952
279.618
280.28
280.922
281.521
282.044
273.261
273.793
274.345
274.921
275.523
276.155
276.82
277.52
278.258
279.032
279.842
280.682
281.54
282.397
283.219
283.953
273.26
273.789
274.337
274.909
275.508
276.137
276.798
277.495
278.229
279
279.805
280.641
281.495
282.349
283.168
283.901
273.258
273.782
274.325
274.892
275.485
276.108
276.764
277.454
278.18
278.943
279.741
280.567
281.413
282.26
283.074
283.803
273.255
273.774
274.311
274.871
275.457
276.073
276.72
277.4
278.116
278.867
279.652
280.466
281.299
282.133
282.937
283.66
273.252
273.764
274.295
274.848
275.425
276.031
276.667
277.336
278.038
278.775
279.543
280.339
281.153
281.969
282.757
283.467
273.249
273.754
274.277
274.821
275.389
275.984
276.608
277.263
277.949
278.667
279.414
280.187
280.977
281.768
282.531
283.22
273.245
273.743
274.257
274.792
275.35
275.933
276.544
277.183
277.851
278.547
279.27
280.015
280.774
281.531
282.26
282.918
273.241
273.731
274.237
274.762
275.309
275.88
276.476
277.098
277.746
278.42
279.115
279.828
280.55
281.265
281.95
282.565
273.265
273.806
274.368
274.955
275.571
276.22
276.907
277.634
278.407
279.227
280.096
281.012
281.97
282.953
283.93
284.839
273.264
273.802
274.36
274.943
275.556
276.201
276.884
277.608
278.377
279.193
280.057
280.969
281.922
282.902
283.877
284.783
273.262
273.795
274.348
274.926
275.532
276.172
276.848
277.565
278.326
279.133
279.988
280.89
281.835
282.807
283.777
284.68
273.259
273.786
274.333
274.904
275.503
276.135
276.802
277.508
278.258
279.052
279.894
280.782
281.712
282.671
283.631
284.529
273.256
273.777
274.316
274.879
275.47
276.091
276.747
277.44
278.175
278.953
279.776
280.644
281.553
282.492
283.435
284.321
273.252
273.766
274.297
274.852
275.432
276.042
276.684
277.363
278.08
278.837
279.637
280.479
281.359
282.268
283.182
284.046
273.249
273.754
274.277
274.822
275.391
275.988
276.616
277.278
277.975
278.708
279.48
280.289
281.132
281.999
282.868
283.691
273.245
273.742
274.256
274.79
275.348
275.932
276.545
277.188
277.863
278.57
279.31
280.081
280.877
281.691
282.498
283.255
273.27
273.821
274.394
274.994
275.625
276.293
277.003
277.761
278.573
279.443
280.377
281.379
282.451
283.588
284.772
285.943
273.269
273.816
274.386
274.982
275.61
276.274
276.98
277.734
278.541
279.406
280.335
281.333
282.4
283.534
284.714
285.88
273.267
273.809
274.373
274.964
275.585
276.243
276.942
277.689
278.487
279.343
280.262
281.25
282.308
283.434
284.609
285.773
273.264
273.8
274.358
274.941
275.555
276.204
276.894
277.629
278.415
279.257
280.162
281.133
282.176
283.29
284.457
285.619
273.26
273.79
274.34
274.915
275.52
276.158
276.836
277.557
278.327
279.151
280.035
280.985
282.005
283.096
284.247
285.404
273.257
273.779
274.321
274.886
275.48
276.106
276.77
277.475
278.225
279.027
279.885
280.805
281.792
282.849
283.969
285.105
273.253
273.767
274.299
274.855
275.437
276.05
276.698
277.384
278.113
278.888
279.714
280.596
281.538
282.543
283.607
284.691
273.249
273.754
274.277
274.822
275.392
275.991
276.622
277.288
277.992
278.738
279.527
280.364
281.249
282.184
283.161
284.142
273.275
273.837
274.422
275.035
275.683
276.371
277.106
277.895
278.746
279.667
280.669
281.76
282.953
284.262
285.698
287.258
273.274
273.832
274.413
275.023
275.667
276.351
277.082
277.866
278.713
279.629
280.625
281.712
282.9
284.205
285.635
287.176
273.272
273.825
274.4
275.004
275.641
276.319
277.042
277.819
278.656
279.563
280.548
281.624
282.803
284.1
285.526
287.065
273.269
273.816
274.384
274.981
275.61
276.278
276.991
277.756
278.58
279.472
280.441
281.5
282.664
283.949
285.371
286.92
273.265
273.805
274.366
274.954
275.573
276.23
276.93
277.68
278.487
279.359
280.306
281.341
282.48
283.744
285.155
286.713
273.261
273.793
274.346
274.923
275.532
276.175
276.861
277.593
278.379
279.226
280.145
281.146
282.249
283.475
284.856
286.408
273.257
273.78
274.323
274.891
275.487
276.116
276.785
277.497
278.259
279.077
279.959
280.918
281.968
283.133
284.447
285.943
273.253
273.767
274.3
274.856
275.44
276.054
276.704
277.395
278.13
278.915
279.756
280.662
281.644
282.719
283.912
285.248
273.253
273.766
274.299
274.855
275.438
276.052
276.702
277.391
278.126
278.91
279.751
280.657
281.639
282.714
283.907
285.244
273.248
273.753
274.275
274.82
275.389
275.987
276.617
277.282
277.986
278.73
279.519
280.355
281.241
282.176
283.152
284.135
273.244
273.74
274.253
274.787
275.344
275.927
276.538
277.18
277.854
278.56
279.299
280.069
280.866
281.679
282.487
283.245
273.24
273.729
274.234
274.758
275.304
275.873
276.468
277.089
277.736
278.408
279.103
279.815
280.536
281.251
281.937
282.552
273.238
273.72
274.218
274.735
275.272
275.83
276.411
277.013
277.638
278.281
278.938
279.603
280.265
280.907
281.506
282.031
273.235
273.714
274.207
274.719
275.249
275.798
276.368
276.957
277.564
278.185
278.814
279.443
280.06
280.65
281.191
281.658
273.234
273.71
274.202
274.71
275.236
275.78
276.343
276.922
277.517
278.123
278.732
279.338
279.927
280.483
280.988
281.42
273.234
273.71
274.2
274.708
275.232
275.774
276.333
276.908
277.497
278.094
278.695
279.288
279.863
280.403
280.891
281.306
273.257
273.779
274.321
274.887
275.482
276.111
276.778
277.489
278.25
279.067
279.949
280.907
281.957
283.122
284.437
285.934
273.252
273.765
274.296
274.851
275.432
276.043
276.689
277.374
278.101
278.875
279.7
280.581
281.523
282.529
283.593
284.678
273.248
273.752
274.273
274.817
275.384
275.98
276.606
277.266
277.961
278.693
279.464
280.272
281.114
281.981
282.851
283.675
273.244
273.74
274.253
274.787
275.343
275.924
276.532
277.169
277.836
278.531
279.252
279.996
280.754
281.511
282.241
282.9
273.241
273.731
274.237
274.762
275.309
275.878
276.471
277.089
277.731
278.395
279.076
279.767
280.459
281.133
281.765
282.32
273.239
273.724
274.225
274.745
275.284
275.845
276.427
277.03
277.652
278.291
278.941
279.594
280.236
280.852
281.419
281.909
273.238
273.72
274.219
274.735
275.27
275.825
276.399
276.992
277.602
278.225
278.854
279.48
280.09
280.669
281.196
281.647
273.237
273.72
274.218
274.733
275.266
275.818
276.389
276.977
277.58
278.194
278.813
279.426
280.021
280.582
281.089
281.521
273.261
273.791
274.342
274.918
275.524
276.166
276.849
277.58
278.364
279.21
280.127
281.128
282.229
283.456
284.838
286.393
273.256
273.776
274.316
274.88
275.471
276.096
276.757
277.459
278.208
279.008
279.864
280.782
281.769
282.826
283.947
285.085
273.251
273.763
274.292
274.844
275.422
276.029
276.67
277.346
278.06
278.816
279.614
280.454
281.334
282.243
283.157
284.023
273.248
273.751
274.271
274.813
275.379
275.971
276.592
277.244
277.928
278.644
279.389
280.161
280.95
281.741
282.505
283.196
273.244
273.741
274.254
274.788
275.343
275.923
276.528
277.16
277.818
278.5
279.202
279.917
280.635
281.336
281.995
282.575
273.242
273.734
274.242
274.77
275.318
275.888
276.481
277.097
277.735
278.391
279.059
279.732
280.397
281.036
281.624
282.133
273.241
273.73
274.236
274.76
275.303
275.867
276.452
277.058
277.682
278.32
278.966
279.611
280.241
280.84
281.385
281.852
273.24
273.729
274.234
274.757
275.299
275.86
276.441
277.041
277.658
278.287
278.922
279.553
280.167
280.746
281.27
281.717
273.264
273.802
274.36
274.945
275.562
276.215
276.913
277.66
278.464
279.334
280.279
281.312
282.451
283.714
285.127
286.689
273.259
273.786
274.334
274.906
275.507
276.142
276.816
277.534
278.302
279.123
280.005
280.953
281.972
283.064
284.216
285.375
273.255
273.772
274.309
274.869
275.456
276.074
276.726
277.416
278.148
278.923
279.744
280.61
281.518
282.457
283.401
284.289
273.251
273.76
274.288
274.837
275.411
276.013
276.646
277.311
278.01
278.743
279.509
280.303
281.117
281.933
282.722
283.434
273.247
273.75
274.27
274.811
275.374
275.963
276.579
277.223
277.895
278.593
279.313
280.048
280.787
281.51
282.189
282.787
273.245
273.743
274.257
274.792
275.348
275.927
276.53
277.158
277.808
278.479
279.163
279.854
280.537
281.194
281.801
282.325
273.244
273.739
274.251
274.781
275.332
275.905
276.5
277.116
277.752
278.404
279.065
279.726
280.373
280.989
281.549
282.03
273.243
273.738
274.249
274.779
275.328
275.897
276.488
277.099
277.728
278.37
279.019
279.666
280.295
280.89
281.429
281.888
273.267
273.811
274.376
274.968
275.593
276.257
276.966
277.726
278.547
279.435
280.402
281.459
282.621
283.906
285.329
286.882
273.262
273.795
274.349
274.928
275.537
276.182
276.867
277.597
278.379
279.218
280.12
281.089
282.131
283.244
284.411
285.577
273.257
273.781
274.324
274.89
275.485
276.111
276.774
277.476
278.221
279.012
279.85
280.736
281.665
282.624
283.585
284.485
273.253
273.768
274.301
274.857
275.438
276.049
276.691
277.367
278.079
278.826
279.608
280.42
281.252
282.086
282.891
283.616
273.25
273.758
274.283
274.83
275.401
275.997
276.622
277.276
277.96
278.671
279.405
280.156
280.911
281.65
282.345
282.954
273.247
273.75
274.27
274.811
275.373
275.96
276.571
277.209
277.87
278.552
279.25
279.955
280.653
281.324
281.944
282.479
273.246
273.746
274.263
274.8
275.357
275.937
276.54
277.166
277.812
278.475
279.149
279.823
280.483
281.112
281.684
282.175
273.246
273.745
274.262
274.797
275.352
275.929
276.528
277.147
277.786
278.44
279.101
279.76
280.402
281.009
281.559
282.028
273.269
273.818
274.388
274.986
275.618
276.289
277.007
277.778
278.61
279.513
280.494
281.567
282.744
284.04
285.465
287.006
273.264
273.802
274.361
274.945
275.561
276.212
276.906
277.646
278.439
279.291
280.207
281.191
282.247
283.372
284.547
285.712
273.259
273.787
274.335
274.907
275.507
276.14
276.81
277.522
278.277
279.08
279.931
280.831
281.774
282.746
283.716
284.621
273.255
273.774
274.312
274.873
275.46
276.076
276.726
277.41
278.132
278.89
279.684
280.508
281.353
282.199
283.015
283.747
273.252
273.764
274.294
274.845
275.421
276.024
276.656
277.318
278.01
278.731
279.476
280.238
281.005
281.755
282.46
283.077
273.249
273.756
274.28
274.825
275.393
275.985
276.604
277.248
277.918
278.609
279.317
280.033
280.741
281.423
282.052
282.595
273.248
273.752
274.273
274.814
275.377
275.962
276.572
277.204
277.858
278.53
279.213
279.897
280.568
281.206
281.787
282.285
273.247
273.751
274.272
274.811
275.371
275.954
276.559
277.185
277.832
278.494
279.164
279.832
280.484
281.101
281.66
282.136
273.271
273.823
274.397
274.999
275.635
276.311
277.035
277.813
278.653
279.565
280.556
281.639
282.824
284.125
285.549
287.081
273.266
273.807
274.369
274.957
275.577
276.233
276.932
277.679
278.48
279.34
280.265
281.258
282.323
283.455
284.633
285.795
273.261
273.792
274.343
274.918
275.522
276.16
276.836
277.553
278.315
279.126
279.986
280.894
281.845
282.825
283.8
284.707
273.257
273.778
274.32
274.884
275.474
276.095
276.75
277.44
278.168
278.933
279.735
280.567
281.42
282.274
283.096
283.832
273.253
273.768
274.301
274.856
275.435
276.042
276.679
277.346
278.044
278.772
279.524
280.294
281.068
281.826
282.536
283.158
273.251
273.76
274.287
274.835
275.407
276.003
276.626
277.275
277.951
278.648
279.363
280.085
280.801
281.49
282.124
282.672
273.249
273.756
274.28
274.824
275.39
275.98
276.593
277.231
277.89
278.568
279.257
279.948
280.625
281.269
281.856
282.359
273.249
273.755
274.278
274.821
275.385
275.971
276.58
277.211
277.863
278.531
279.207
279.882
280.54
281.163
281.727
282.208
273.272
273.825
274.401
275.005
275.643
276.322
277.049
277.831
278.675
279.591
280.587
281.674
282.863
284.166
285.589
287.116
273.266
273.809
274.373
274.963
275.585
276.244
276.946
277.696
278.5
279.365
280.294
281.292
282.361
283.495
284.674
285.835
273.262
273.794
274.346
274.924
275.53
276.17
276.849
277.569
278.335
279.149
280.013
280.926
281.881
282.863
283.841
284.749
273.257
273.781
274.323
274.889
275.482
276.105
276.762
277.455
278.186
278.955
279.761
280.597
281.454
282.311
283.135
283.873
273.254
273.77
274.304
274.861
275.442
276.051
276.69
277.36
278.062
278.792
279.548
280.322
281.1
281.861
282.574
283.198
273.251
273.762
274.291
274.841
275.414
276.012
276.637
277.289
277.967
278.668
279.386
280.112
280.831
281.523
282.16
282.71
273.25
273.758
274.283
274.829
275.397
275.988
276.604
277.244
277.906
278.587
279.279
279.973
280.654
281.301
281.891
282.396
273.249
273.757
274.282
274.826
275.391
275.979
276.591
277.225
277.879
278.549
279.229
279.907
280.568
281.194
281.761
282.244
273.231
273.701
274.186
274.686
275.202
275.735
276.284
276.847
277.421
278.003
278.585
279.159
279.712
280.23
280.696
281.093
273.228
273.691
274.168
274.659
275.166
275.689
276.226
276.775
277.335
277.899
278.462
279.014
279.545
280.042
280.487
280.865
273.225
273.681
274.151
274.635
275.133
275.646
276.172
276.709
277.253
277.801
278.346
278.878
279.388
279.863
280.288
280.649
273.222
273.672
274.136
274.614
275.105
275.609
276.124
276.65
277.181
277.714
278.242
278.757
279.247
279.703
280.109
280.454
273.22
273.665
274.124
274.596
275.081
275.578
276.085
276.601
277.121
277.642
278.155
278.654
279.128
279.567
279.958
280.289
273.218
273.66
274.116
274.584
275.064
275.555
276.056
276.565
277.076
277.586
278.089
278.575
279.037
279.462
279.841
280.161
273.217
273.658
274.111
274.577
275.054
275.542
276.038
276.541
277.047
277.55
278.045
278.523
278.975
279.392
279.761
280.074
273.217
273.657
274.11
274.574
275.05
275.536
276.031
276.531
277.034
277.533
278.024
278.498
278.945
279.357
279.722
280.031
273.231
273.701
274.186
274.687
275.205
275.74
276.292
276.86
277.44
278.028
278.619
279.203
279.769
280.301
280.783
281.194
273.228
273.691
274.168
274.661
275.169
275.694
276.234
276.787
277.351
277.922
278.492
279.054
279.596
280.104
280.562
280.953
273.225
273.681
274.151
274.636
275.136
275.651
276.179
276.719
277.268
277.822
278.373
278.913
279.433
279.918
280.353
280.724
273.222
273.672
274.137
274.615
275.107
275.613
276.131
276.659
277.195
277.733
278.266
278.788
279.286
279.75
280.165
280.518
273.22
273.666
274.125
274.597
275.083
275.582
276.091
276.61
277.134
277.659
278.177
278.682
279.163
279.608
280.006
280.344
273.218
273.661
274.116
274.585
275.066
275.559
276.062
276.573
277.088
277.602
278.109
278.601
279.068
279.499
279.884
280.209
273.217
273.658
274.112
274.578
275.056
275.546
276.045
276.551
277.059
277.566
278.065
278.548
279.005
279.426
279.801
280.118
273.217
273.658
274.111
274.576
275.054
275.541
276.038
276.541
277.047
277.55
278.045
278.523
278.975
279.391
279.761
280.074
273.233
273.705
274.192
274.695
275.217
275.757
276.316
276.891
277.482
278.085
278.693
279.298
279.889
280.45
280.963
281.403
273.229
273.694
274.173
274.668
275.18
275.709
276.255
276.816
277.39
277.973
278.559
279.139
279.702
280.235
280.719
281.134
273.226
273.684
274.156
274.643
275.146
275.665
276.199
276.746
277.304
277.868
278.433
278.989
279.526
280.031
280.488
280.878
273.223
273.675
274.141
274.621
275.116
275.626
276.149
276.684
277.228
277.775
278.32
278.855
279.368
279.848
280.281
280.649
273.221
273.668
274.129
274.603
275.092
275.594
276.109
276.633
277.164
277.697
278.226
278.742
279.236
279.695
280.106
280.456
273.219
273.663
274.12
274.591
275.075
275.572
276.079
276.596
277.117
277.639
278.155
278.656
279.134
279.577
279.972
280.308
273.218
273.66
274.116
274.584
275.066
275.559
276.062
276.573
277.088
277.602
278.108
278.6
279.067
279.498
279.883
280.208
273.218
273.66
274.115
274.583
275.063
275.555
276.056
276.564
277.075
277.585
278.088
278.574
279.035
279.461
279.84
280.16
273.234
273.71
274.202
274.711
275.238
275.786
276.354
276.943
277.55
278.172
278.806
279.443
280.072
280.678
281.24
281.729
273.231
273.699
274.183
274.683
275.2
275.736
276.291
276.864
277.452
278.053
278.661
279.269
279.865
280.435
280.959
281.412
273.228
273.689
274.165
274.657
275.165
275.69
276.233
276.79
277.361
277.941
278.525
279.104
279.669
280.204
280.693
281.113
273.225
273.68
274.15
274.634
275.134
275.65
276.181
276.725
277.28
277.841
278.403
278.957
279.493
279.998
280.455
280.847
273.222
273.673
274.137
274.616
275.109
275.617
276.139
276.672
277.213
277.759
278.302
278.834
279.347
279.826
280.257
280.625
273.221
273.668
274.128
274.603
275.092
275.594
276.108
276.632
277.163
277.696
278.225
278.741
279.234
279.694
280.105
280.455
273.22
273.665
274.124
274.596
275.082
275.581
276.09
276.609
277.132
277.657
278.175
278.68
279.161
279.606
280.004
280.342
273.219
273.665
274.124
274.595
275.08
275.577
276.084
276.599
277.119
277.64
278.153
278.652
279.126
279.565
279.956
280.287
273.237
273.719
274.216
274.732
275.268
275.826
276.408
277.012
277.64
278.288
278.955
279.633
280.314
280.983
281.616
282.179
273.233
273.707
274.197
274.703
275.229
275.774
276.341
276.928
277.535
278.159
278.796
279.439
280.079
280.7
281.281
281.791
273.23
273.697
274.178
274.676
275.192
275.726
276.279
276.85
277.437
278.038
278.647
279.256
279.856
280.433
280.965
281.428
273.227
273.687
274.162
274.652
275.159
275.683
276.224
276.781
277.351
277.93
278.513
279.093
279.658
280.195
280.685
281.108
273.225
273.68
274.149
274.633
275.133
275.649
276.18
276.724
277.279
277.84
278.402
278.956
279.492
279.996
280.454
280.845
273.223
273.675
274.14
274.62
275.115
275.624
276.147
276.682
277.225
277.772
278.317
278.852
279.365
279.846
280.278
280.646
273.222
273.672
274.136
274.613
275.105
275.611
276.128
276.657
277.192
277.729
278.263
278.784
279.282
279.746
280.162
280.515
273.222
273.672