/*--------------------------------*- C++ -*----------------------------------*\
| =========                 |                                                 |
| \\      /  F ield         | OpenFOAM: The Open Source CFD Toolbox           |
|  \\    /   O peration     | Version:  v1912                                 |
|   \\  /    A nd           | Website:  www.openfoam.com                      |
|    \\/     M anipulation  |                                                 |
\*---------------------------------------------------------------------------*/
FoamFile
{
    version     2.0;
    format      ascii;
    class       volVectorField;
    location    "0.74/fluid";
    object      U;
}
// * * * * * * * * * * * * * * * * * * * * * * * * * * * * * * * * * * * * * //

dimensions      [0 1 -1 0 0 0 0];


internalField   nonuniform List<vector> 
14592
(
(0.0877156 0.0173252 0.000609143)
(0.0720325 0.0118474 0.00104267)
(0.0565017 0.00751153 0.000911022)
(0.0475793 0.00375832 0.00035876)
(0.0419745 0.00175181 -0.000515148)
(0.0388682 0.000741844 -0.00161104)
(0.0369293 0.000310038 -0.00291962)
(0.0356011 0.00013037 -0.00448759)
(0.0343747 5.09279e-05 -0.00641462)
(0.0332067 -2.1817e-05 -0.00885475)
(0.0316339 -0.000129185 -0.012056)
(0.0301489 -0.000374175 -0.0163309)
(0.0273216 -0.000740373 -0.0223636)
(0.0250278 -0.00163895 -0.0302429)
(0.0177062 -0.00213433 -0.0404899)
(0.0100805 -0.00504925 -0.0383144)
(0.103971 0.0181126 0.000845577)
(0.103483 0.0179916 0.00152963)
(0.100074 0.0148357 0.00146527)
(0.0958925 0.0102565 0.000714806)
(0.0918926 0.00665509 -0.000651019)
(0.0887034 0.00420242 -0.0025055)
(0.0860522 0.00279981 -0.00480919)
(0.0837358 0.00210105 -0.00761511)
(0.0813346 0.00182794 -0.0110748)
(0.0787549 0.00176342 -0.0154444)
(0.0753631 0.00176731 -0.021128)
(0.0714883 0.00166183 -0.0286629)
(0.0651099 0.00139532 -0.0390066)
(0.0579091 0.000387428 -0.0522668)
(0.0415866 -0.000693017 -0.0676299)
(0.0240965 -0.00476051 -0.0620298)
(0.104002 0.0120922 0.000923489)
(0.108483 0.0165825 0.00169682)
(0.111523 0.0159495 0.0016709)
(0.112109 0.0127616 0.000898908)
(0.111396 0.00952244 -0.000555246)
(0.109986 0.00695788 -0.00257321)
(0.108167 0.00533086 -0.00511658)
(0.106078 0.00449852 -0.00824062)
(0.103547 0.00425667 -0.0121053)
(0.100553 0.00439693 -0.0169927)
(0.0964598 0.00475983 -0.0233426)
(0.0914722 0.00515087 -0.0317753)
(0.0833375 0.00547663 -0.0433173)
(0.073546 0.00508443 -0.0582919)
(0.0526486 0.00394076 -0.0756579)
(0.0294935 -0.00102022 -0.0706902)
(0.102142 0.00776363 0.000955127)
(0.106842 0.0128988 0.00177507)
(0.111767 0.0138593 0.0017757)
(0.11467 0.0124103 0.00101722)
(0.116059 0.0102966 -0.000426998)
(0.116191 0.00838725 -0.00243779)
(0.115416 0.00712184 -0.00497822)
(0.113972 0.00655786 -0.00810501)
(0.111815 0.00662681 -0.0119772)
(0.108994 0.00721 -0.0168832)
(0.104888 0.00821051 -0.0232654)
(0.0996659 0.00948515 -0.0317865)
(0.0909246 0.0109558 -0.0434928)
(0.0800628 0.011914 -0.0589046)
(0.0570732 0.011518 -0.0770218)
(0.0309767 0.00509566 -0.0731261)
(0.101097 0.00504124 0.000981567)
(0.104867 0.00952367 0.00184275)
(0.109671 0.0111879 0.00187804)
(0.113294 0.0109776 0.00115179)
(0.115733 0.00995293 -0.000250503)
(0.116908 0.00886609 -0.00220215)
(0.117041 0.00818019 -0.00466091)
(0.116331 0.00807122 -0.00767894)
(0.114768 0.00858276 -0.0114061)
(0.112441 0.00969445 -0.0161256)
(0.108745 0.0113875 -0.0222627)
(0.103853 0.0135957 -0.0305025)
(0.0952261 0.0162806 -0.0418696)
(0.0841829 0.0186635 -0.0571067)
(0.0600501 0.0191924 -0.0752498)
(0.0317376 0.010479 -0.0725646)
(0.100627 0.00336469 0.00100943)
(0.103605 0.00682735 0.00191476)
(0.107893 0.00858735 0.00199583)
(0.111643 0.00908796 0.00131752)
(0.114587 0.00890587 -2.46277e-05)
(0.116438 0.0085936 -0.0018943)
(0.117278 0.00854907 -0.00423927)
(0.117238 0.00899381 -0.00710213)
(0.116299 0.0100492 -0.0106175)
(0.114567 0.0117986 -0.015056)
(0.111443 0.0143336 -0.0208133)
(0.107113 0.0177582 -0.0285862)
(0.0989037 0.0222057 -0.0393452)
(0.0880812 0.0270845 -0.0540954)
(0.0631768 0.0304001 -0.0718724)
(0.0329158 0.0199928 -0.0707624)
(0.100452 0.00217518 0.00104309)
(0.102986 0.00462867 0.00199887)
(0.106902 0.0062036 0.00213636)
(0.110656 0.00705843 0.00151995)
(0.113887 0.00747603 0.000253557)
(0.116207 0.00781006 -0.00151558)
(0.117616 0.00835807 -0.00372029)
(0.1182 0.00933586 -0.00638592)
(0.117948 0.0109016 -0.00962032)
(0.117003 0.0132163 -0.013662)
(0.114834 0.0164538 -0.0188419)
(0.111713 0.0208809 -0.025813)
(0.104978 0.0267642 -0.0353746)
(0.0959609 0.0337739 -0.0487494)
(0.0716303 0.0396117 -0.0646777)
(0.0403979 0.027248 -0.0654072)
(0.100396 0.00119223 0.00108166)
(0.102761 0.00267303 0.00209315)
(0.106546 0.00391244 0.00229377)
(0.110359 0.00491082 0.00174794)
(0.113813 0.00575793 0.000566434)
(0.116486 0.00662372 -0.00109289)
(0.118343 0.00769355 -0.0031464)
(0.119455 0.00915096 -0.00559941)
(0.119829 0.0111699 -0.00853011)
(0.11964 0.0139882 -0.0121395)
(0.118434 0.0178841 -0.01669)
(0.116555 0.0234474 -0.0227763)
(0.111428 0.031331 -0.0310241)
(0.104624 0.0429908 -0.0428968)
(0.0816975 0.0571826 -0.0570225)
(0.0529743 0.0616466 -0.0612736)
(0.0876842 0.017328 0.000379021)
(0.0718513 0.0118607 0.000626053)
(0.0560892 0.00752348 0.000458491)
(0.0469616 0.00376468 -3.43567e-05)
(0.0411644 0.00175592 -0.000794463)
(0.0378743 0.000746496 -0.00175887)
(0.0357264 0.000317921 -0.00293202)
(0.0341358 0.000142095 -0.00435317)
(0.0325661 6.76404e-05 -0.00610532)
(0.0309325 1.86191e-06 -0.00828458)
(0.0287706 -9.02267e-05 -0.0110768)
(0.0264453 -0.000301292 -0.0145469)
(0.0227623 -0.000592246 -0.0191145)
(0.0189543 -0.0013232 -0.0237673)
(0.011621 -0.00175302 -0.0281734)
(0.00307156 -0.00369904 -0.018787)
(0.103928 0.018127 0.000521782)
(0.103229 0.0180298 0.000900275)
(0.0994763 0.0148845 0.0007153)
(0.0949281 0.0103045 -5.532e-06)
(0.0905507 0.00670434 -0.00122808)
(0.0869787 0.00426074 -0.00287864)
(0.0839036 0.00287857 -0.00495002)
(0.0810749 0.00220931 -0.00749825)
(0.0780171 0.00197527 -0.0106555)
(0.0745617 0.00195889 -0.0146003)
(0.0700355 0.00202811 -0.0196366)
(0.0646017 0.00200518 -0.0259637)
(0.0564761 0.00185568 -0.0341338)
(0.0466996 0.000996014 -0.0427716)
(0.0298349 -0.000106422 -0.0498562)
(0.010893 -0.00370528 -0.0325902)
(0.103961 0.0121165 0.000573905)
(0.108223 0.0166417 0.00100056)
(0.110901 0.0160357 0.000822914)
(0.111087 0.0128629 6.39479e-05)
(0.109948 0.00963883 -0.00124833)
(0.108095 0.00709913 -0.00304969)
(0.105785 0.00551474 -0.00533717)
(0.103109 0.00474405 -0.00817352)
(0.0998303 0.00458591 -0.0117006)
(0.095847 0.00483114 -0.0161209)
(0.0904617 0.00532991 -0.0217629)
(0.0837092 0.00587512 -0.0288845)
(0.0735446 0.00638462 -0.0380561)
(0.0608145 0.00612005 -0.0479035)
(0.0391302 0.00487061 -0.0559575)
(0.0143623 -0.000418908 -0.036696)
(0.102104 0.00779017 0.00060142)
(0.106585 0.0129656 0.00106034)
(0.111152 0.0139661 0.000899701)
(0.113659 0.0125499 0.000150135)
(0.114625 0.0104704 -0.00115343)
(0.114314 0.00860787 -0.00294709)
(0.113048 0.00741234 -0.00522946)
(0.111018 0.00694729 -0.00806553)
(0.108115 0.00715225 -0.0115964)
(0.104306 0.00791174 -0.0160305)
(0.0988979 0.009145 -0.0216953)
(0.0918909 0.0106937 -0.0288791)
(0.0810577 0.012502 -0.0381475)
(0.0671552 0.0137005 -0.0482132)
(0.0432527 0.0132584 -0.0565316)
(0.0153647 0.00579334 -0.0371301)
(0.101062 0.00507102 0.000629792)
(0.104616 0.00959915 0.00112604)
(0.109067 0.0113137 0.000997677)
(0.112307 0.011152 0.000280243)
(0.114341 0.0101799 -0.000981987)
(0.115096 0.00916086 -0.00271875)
(0.114765 0.00857067 -0.00492371)
(0.113503 0.00859587 -0.00765745)
(0.111236 0.00929369 -0.0110521)
(0.107974 0.0106525 -0.0153122)
(0.103033 0.012679 -0.0207479)
(0.096428 0.015293 -0.027668)
(0.0857439 0.018498 -0.0366088)
(0.0716823 0.0212812 -0.0464435)
(0.046506 0.0218939 -0.0546354)
(0.0161482 0.0114666 -0.0358691)
(0.100593 0.00339798 0.000660383)
(0.103358 0.0069115 0.00120025)
(0.107302 0.00873009 0.0011169)
(0.110684 0.00929166 0.000447226)
(0.113245 0.00917787 -0.00075631)
(0.114706 0.0089523 -0.00241455)
(0.11512 0.00902757 -0.00451218)
(0.114575 0.00964053 -0.00710055)
(0.11299 0.0109331 -0.0102974)
(0.1104 0.0130072 -0.0142975)
(0.10612 0.0159962 -0.019384)
(0.100192 0.0200061 -0.0258821)
(0.090006 0.0252577 -0.0342775)
(0.0762699 0.0308713 -0.0436674)
(0.050194 0.0347187 -0.0515401)
(0.0176019 0.0219421 -0.0339488)
(0.100419 0.00221286 0.000695812)
(0.102745 0.0047222 0.00128599)
(0.106327 0.0063618 0.00125817)
(0.10973 0.00728648 0.000649056)
(0.112602 0.00778395 -0.000481539)
(0.11457 0.00821879 -0.00204393)
(0.115599 0.00890486 -0.00400986)
(0.115741 0.010077 -0.00641507)
(0.114927 0.0119193 -0.00935362)
(0.113244 0.0146203 -0.0129968)
(0.110073 0.0184086 -0.0175761)
(0.105586 0.0235712 -0.0234048)
(0.0971025 0.0304992 -0.0308507)
(0.0855476 0.038543 -0.0392893)
(0.0599412 0.0453413 -0.0461717)
(0.0262167 0.0299675 -0.0304948)
(0.100363 0.00123372 0.000734633)
(0.102527 0.00277401 0.00137965)
(0.105988 0.00408202 0.00141349)
(0.109469 0.00515571 0.000872686)
(0.112591 0.00608964 -0.000176593)
(0.114948 0.00706505 -0.00163434)
(0.116475 0.0082847 -0.00345789)
(0.117212 0.00995412 -0.00566487)
(0.117116 0.012278 -0.00832331)
(0.116317 0.0155329 -0.0115764)
(0.114279 0.0200669 -0.0156003)
(0.111288 0.0265308 -0.0206878)
(0.104675 0.035756 -0.0270823)
(0.0958077 0.0489654 -0.0344807)
(0.0716078 0.0650437 -0.0404025)
(0.0404974 0.0660478 -0.0277593)
(0.0876602 0.0173307 0.000219568)
(0.0717116 0.0118718 0.000338317)
(0.0557614 0.00753397 0.000152353)
(0.046451 0.00377058 -0.000282705)
(0.0404691 0.00175912 -0.000933263)
(0.0369926 0.000749784 -0.00176067)
(0.0346305 0.000323287 -0.00277726)
(0.0327714 0.00014959 -0.00401489)
(0.0308555 7.72474e-05 -0.00554117)
(0.0287482 1.35489e-05 -0.00741425)
(0.0259923 -7.38255e-05 -0.00977923)
(0.0228141 -0.00027109 -0.0126095)
(0.0182927 -0.000539752 -0.0162188)
(0.013239 -0.00118649 -0.0195815)
(0.00635659 -0.0016884 -0.022303)
(-0.0008069 -0.00320988 -0.0147349)
(0.103895 0.0181412 0.000297757)
(0.103032 0.0180653 0.000468171)
(0.0989991 0.0149313 0.000212137)
(0.0941317 0.0103527 -0.000459671)
(0.0894034 0.00675424 -0.00153251)
(0.0854589 0.004319 -0.00296454)
(0.0819634 0.00295495 -0.00476748)
(0.0786268 0.00231194 -0.00699392)
(0.0749286 0.00211285 -0.00975442)
(0.0706258 0.00213923 -0.0131703)
(0.0650299 0.00226479 -0.0174707)
(0.0581459 0.00231005 -0.0227039)
(0.0485175 0.00224329 -0.0292354)
(0.0367825 0.00147767 -0.0355962)
(0.0203749 0.00027302 -0.0398312)
(0.00340796 -0.00318934 -0.0252315)
(0.103931 0.0121413 0.000330837)
(0.108022 0.0166996 0.000521378)
(0.110406 0.0161206 0.000252473)
(0.110244 0.0129644 -0.000466671)
(0.108713 0.00975591 -0.00162646)
(0.106433 0.00723977 -0.00319411)
(0.10364 0.00569457 -0.0051873)
(0.100385 0.00498051 -0.0076672)
(0.096381 0.00489986 -0.0107541)
(0.0914456 0.00524235 -0.0145903)
(0.0848498 0.00586648 -0.0194216)
(0.0764704 0.00655152 -0.0253396)
(0.0645649 0.00722096 -0.0327037)
(0.0496021 0.007053 -0.040004)
(0.0282183 0.00567239 -0.0448122)
(0.00554683 7.56271e-06 -0.0282888)
(0.102076 0.00781828 0.000353787)
(0.106388 0.0130332 0.000565602)
(0.110666 0.0140727 0.000306335)
(0.112828 0.0126895 -0.000407122)
(0.113405 0.0106436 -0.00155983)
(0.112668 0.00882507 -0.0031202)
(0.11092 0.00769423 -0.00510778)
(0.108312 0.00732044 -0.0075864)
(0.104683 0.00765115 -0.010676)
(0.0999205 0.00857299 -0.0145248)
(0.0932884 0.0100193 -0.0193768)
(0.0846287 0.0118142 -0.0253495)
(0.071983 0.0139193 -0.032792)
(0.0557384 0.0153178 -0.0402576)
(0.0320023 0.0148344 -0.0452182)
(0.0061505 0.0065101 -0.0285359)
(0.101035 0.00510241 0.000381335)
(0.104424 0.00967564 0.000625615)
(0.108592 0.011439 0.000394832)
(0.111499 0.0113247 -0.000288985)
(0.113161 0.0104032 -0.00140303)
(0.113511 0.00944787 -0.00291128)
(0.112723 0.00894688 -0.00482884)
(0.110914 0.00909664 -0.00721582)
(0.107958 0.00996746 -0.0101842)
(0.10379 0.0115547 -0.0138802)
(0.0976713 0.0138883 -0.018533)
(0.0894656 0.0168702 -0.0242811)
(0.0769765 0.0205429 -0.0314488)
(0.0605606 0.0236815 -0.0387281)
(0.0354009 0.0244161 -0.0435978)
(0.00688985 0.0126964 -0.0274926)
(0.100567 0.00343222 0.000411664)
(0.103171 0.00699555 0.00069656)
(0.10684 0.00887044 0.00050746)
(0.109903 0.00949073 -0.000131775)
(0.112113 0.00944195 -0.00119122)
(0.113197 0.00929785 -0.00262788)
(0.113187 0.00948524 -0.0044486)
(0.112139 0.010255 -0.00670556)
(0.10992 0.0117685 -0.00949811)
(0.106493 0.0141431 -0.0129655)
(0.101111 0.0175506 -0.0173144)
(0.0936808 0.0220919 -0.0227026)
(0.0817432 0.0280689 -0.0294148)
(0.0657164 0.0343407 -0.0363412)
(0.0394975 0.0387363 -0.0410028)
(0.00847884 0.0243059 -0.0259427)
(0.100394 0.00225035 0.000446115)
(0.102564 0.00481366 0.000778343)
(0.105881 0.00651501 0.00064087)
(0.108982 0.00750634 5.792e-05)
(0.111525 0.00807948 -0.000934452)
(0.113148 0.0086093 -0.00228436)
(0.113797 0.00942518 -0.00398698)
(0.113494 0.0107795 -0.00608148)
(0.112123 0.012881 -0.00864746)
(0.109711 0.0159422 -0.0118073)
(0.105574 0.0202439 -0.0157278)
(0.0997812 0.0260849 -0.0205697)
(0.0897177 0.0339758 -0.0265344)
(0.0761413 0.0429849 -0.0327732)
(0.0502082 0.0507951 -0.0368486)
(0.017681 0.0334836 -0.0234557)
(0.100339 0.00127374 0.000482921)
(0.102351 0.00287071 0.000866383)
(0.105559 0.00424372 0.000786119)
(0.108755 0.00538864 0.000266381)
(0.111574 0.00640468 -0.000651578)
(0.113621 0.00748375 -0.0019068)
(0.114814 0.00884477 -0.00348146)
(0.115169 0.0107138 -0.00539958)
(0.114601 0.0133249 -0.00771881)
(0.113195 0.0169893 -0.0105408)
(0.110348 0.0221226 -0.0139885)
(0.106285 0.0294248 -0.0182184)
(0.0983209 0.0399064 -0.0233429)
(0.0878125 0.0545835 -0.028808)
(0.0631783 0.0726681 -0.0323143)
(0.0331224 0.0719428 -0.0213815)
(0.0876422 0.0173332 0.000114223)
(0.0716044 0.0118811 0.000151797)
(0.0555049 0.00754313 -3.26258e-05)
(0.0460425 0.00377602 -0.000403585)
(0.0399037 0.00176256 -0.000941449)
(0.0362691 0.000753824 -0.00162273)
(0.0337336 0.000330098 -0.00246078)
(0.0316726 0.000160154 -0.00347685)
(0.0295239 9.31415e-05 -0.00471674)
(0.0271333 3.78789e-05 -0.00619971)
(0.0240951 -3.34326e-05 -0.00800917)
(0.0205782 -0.000195312 -0.01004)
(0.0159289 -0.000400233 -0.0124408)
(0.0107428 -0.000893042 -0.0142758)
(0.00461901 -0.0012689 -0.0150498)
(-0.00121181 -0.00247058 -0.00894787)
(0.103869 0.0181542 0.000150409)
(0.102879 0.0180969 0.000191002)
(0.0986233 0.0149735 -8.84634e-05)
(0.0934915 0.0103973 -0.000684192)
(0.088465 0.00680125 -0.00159025)
(0.0842016 0.00437412 -0.0027831)
(0.0803549 0.00302695 -0.00428033)
(0.0766142 0.00240895 -0.00612285)
(0.0724457 0.00224465 -0.00838992)
(0.0675757 0.002317 -0.0111433)
(0.061366 0.0025087 -0.0145167)
(0.0537736 0.00264881 -0.0184291)
(0.0436949 0.00272366 -0.0230112)
(0.0316275 0.00217777 -0.026878)
(0.0164425 0.00115276 -0.0282043)
(0.00180571 -0.00214613 -0.0162148)
(0.103907 0.0121646 0.000170063)
(0.107866 0.0167526 0.000213378)
(0.110017 0.0161984 -8.96575e-05)
(0.109567 0.0130582 -0.000734739)
(0.107702 0.00986453 -0.0017202)
(0.105057 0.00736987 -0.00303033)
(0.101858 0.0058597 -0.00468898)
(0.0981366 0.00519651 -0.00674583)
(0.0935895 0.00518676 -0.00928876)
(0.0880015 0.0056212 -0.0123965)
(0.080686 0.00636979 -0.0162124)
(0.0714819 0.00721032 -0.0206826)
(0.0590009 0.00808727 -0.0259134)
(0.0436205 0.00814726 -0.030444)
(0.0235256 0.00691373 -0.031983)
(0.00353594 0.00107301 -0.0182354)
(0.102055 0.00784516 0.000188433)
(0.106237 0.0130963 0.000245004)
(0.110284 0.0141715 -5.35397e-05)
(0.112163 0.0128187 -0.000695675)
(0.112408 0.0108033 -0.00167588)
(0.111308 0.00902385 -0.00297993)
(0.109154 0.00794971 -0.00463366)
(0.10608 0.00765562 -0.00668949)
(0.101908 0.00809637 -0.00923523)
(0.0964934 0.00916094 -0.012355)
(0.0891363 0.0107967 -0.0161893)
(0.0796464 0.0128177 -0.0207032)
(0.0664023 0.0152092 -0.0259871)
(0.0497199 0.0168602 -0.0306134)
(0.0272436 0.0165066 -0.0321762)
(0.00411745 0.00762881 -0.0182174)
(0.101015 0.00513239 0.000213171)
(0.104278 0.00974718 0.000296742)
(0.108222 0.011555 2.2145e-05)
(0.110855 0.0114835 -0.000594179)
(0.1122 0.0106073 -0.00154058)
(0.112204 0.00970799 -0.00279951)
(0.111031 0.00928435 -0.00439338)
(0.108783 0.00954104 -0.00637168)
(0.105315 0.0105592 -0.00881584)
(0.100534 0.0123388 -0.0118089)
(0.0937298 0.014928 -0.01548)
(0.0847408 0.018213 -0.0198115)
(0.0716741 0.0222676 -0.0248732)
(0.0548374 0.0257156 -0.0293413)
(0.0308583 0.0266108 -0.030815)
(0.0049769 0.0140365 -0.01731)
(0.100548 0.00346451 0.000240877)
(0.103029 0.00707354 0.000360088)
(0.106482 0.00899931 0.000121961)
(0.109283 0.00967218 -0.000455191)
(0.111194 0.00968105 -0.00135388)
(0.111955 0.00960799 -0.002551)
(0.11159 0.00989163 -0.00406221)
(0.110139 0.0107938 -0.00593063)
(0.107451 0.0124906 -0.00822756)
(0.103466 0.0151081 -0.0110317)
(0.0974566 0.0188436 -0.0144553)
(0.0893144 0.023782 -0.0184991)
(0.0768383 0.0302724 -0.023206)
(0.0604339 0.0369715 -0.0274073)
(0.035294 0.0416619 -0.0287593)
(0.00673028 0.0261272 -0.0160993)
(0.100375 0.00228501 0.00027204)
(0.102427 0.0048974 0.000433154)
(0.105536 0.00665417 0.000240357)
(0.108389 0.00770491 -0.000287631)
(0.110654 0.00834476 -0.00112804)
(0.111981 0.0089569 -0.0022508)
(0.112311 0.00988347 -0.003662)
(0.111651 0.0113899 -0.00539472)
(0.109869 0.0137028 -0.00750528)
(0.106976 0.0170478 -0.0100621)
(0.102297 0.0217366 -0.0131505)
(0.0959071 0.0280569 -0.0167844)
(0.0853812 0.0365793 -0.0209601)
(0.071527 0.0461402 -0.0247247)
(0.0465212 0.054403 -0.0258389)
(0.0161655 0.0358166 -0.014527)
(0.100321 0.00130999 0.000304836)
(0.10222 0.00295801 0.000511145)
(0.105229 0.00438901 0.00036852)
(0.108192 0.00559721 -0.000104417)
(0.110755 0.00668522 -0.000880328)
(0.112535 0.00785369 -0.00192204)
(0.113446 0.00933452 -0.00322489)
(0.113494 0.0113686 -0.00481025)
(0.112577 0.01421 -0.00671787)
(0.110774 0.018188 -0.00900328)
(0.107483 0.0237547 -0.0117227)
(0.102954 0.0316099 -0.0148995)
(0.0946253 0.0428365 -0.0184835)
(0.0839752 0.0582084 -0.0217673)
(0.0601426 0.0769839 -0.0227092)
(0.0319933 0.0748396 -0.013294)
(0.087628 0.0173352 4.92259e-05)
(0.0715218 0.0118885 4.19211e-05)
(0.0553051 0.00755024 -0.000122655)
(0.0457188 0.00378001 -0.000422206)
(0.0394485 0.00176471 -0.000845424)
(0.0356786 0.000756043 -0.00137886)
(0.0329945 0.000333898 -0.00203504)
(0.0307612 0.000165929 -0.00282855)
(0.0284173 0.000101393 -0.0037912)
(0.0257931 4.97798e-05 -0.00492659)
(0.0225284 -1.42565e-05 -0.00628722)
(0.0187537 -0.000158068 -0.00776943)
(0.0140246 -0.000330145 -0.00945631)
(0.0088169 -0.000740948 -0.010653)
(0.00334943 -0.00105379 -0.010932)
(-0.00142237 -0.00211699 -0.00651903)
(0.103849 0.0181653 6.04636e-05)
(0.102761 0.0181231 3.15858e-05)
(0.0983297 0.0150088 -0.000230424)
(0.0929837 0.0104349 -0.00072483)
(0.0877101 0.00684112 -0.0014495)
(0.0831777 0.0044206 -0.00239205)
(0.0790334 0.00308702 -0.00357091)
(0.0749525 0.0024891 -0.00501748)
(0.070395 0.00235256 -0.00678852)
(0.0650664 0.00246117 -0.00891562)
(0.0583788 0.0027042 -0.0114805)
(0.0502664 0.0029162 -0.0143805)
(0.0399111 0.003096 -0.0176577)
(0.0277714 0.00270194 -0.0202476)
(0.0136815 0.00178927 -0.0206882)
(0.000978195 -0.00149315 -0.0118184)
(0.103889 0.0121847 7.116e-05)
(0.107746 0.0167977 3.59442e-05)
(0.109712 0.0162645 -0.000252571)
(0.10903 0.0131384 -0.000792158)
(0.106889 0.00995772 -0.00158402)
(0.103937 0.00748124 -0.00262212)
(0.100395 0.00600027 -0.00393047)
(0.0962805 0.00537933 -0.00554829)
(0.0912835 0.00542838 -0.00753948)
(0.085167 0.00593887 -0.0099487)
(0.0772891 0.0067898 -0.0128631)
(0.0674767 0.00775708 -0.0161974)
(0.0546316 0.00880151 -0.0199665)
(0.0391362 0.00903964 -0.0230335)
(0.02023 0.0079144 -0.023557)
(0.00247364 0.00185578 -0.0133063)
(0.102038 0.00786876 8.50882e-05)
(0.106121 0.0131509 5.75826e-05)
(0.109987 0.0142566 -0.00022965)
(0.111636 0.0129299 -0.000768111)
(0.111608 0.0109407 -0.00155632)
(0.110201 0.00919431 -0.00258976)
(0.107704 0.00816761 -0.00389434)
(0.104237 0.00793986 -0.00551174)
(0.0996143 0.00847191 -0.00750612)
(0.0936703 0.00965428 -0.00992679)
(0.0857445 0.0114452 -0.0128587)
(0.0756391 0.0136497 -0.0162311)
(0.0620096 0.0162709 -0.0200449)
(0.0451965 0.018121 -0.0231849)
(0.0238911 0.0178692 -0.0237111)
(0.00304866 0.0085256 -0.0132916)
(0.100999 0.00515883 0.000105586)
(0.104165 0.00980943 9.92766e-05)
(0.107934 0.0116552 -0.000169069)
(0.110346 0.0116203 -0.000686564)
(0.11143 0.0107827 -0.00144716)
(0.111142 0.00993073 -0.00244405)
(0.109644 0.00957195 -0.0037006)
(0.107024 0.00991784 -0.0052564)
(0.10313 0.0110584 -0.00717082)
(0.0978499 0.0129968 -0.009493)
(0.090506 0.0157953 -0.0122997)
(0.0809345 0.0193261 -0.0155348)
(0.0674922 0.0236863 -0.0191851)
(0.05053 0.027381 -0.0222136)
(0.0276557 0.0284075 -0.0226872)
(0.00399316 0.0151693 -0.0126245)
(0.100533 0.00349285 0.000128863)
(0.10292 0.00714126 0.000151712)
(0.106204 0.00911052 -8.69118e-05)
(0.108795 0.00982816 -0.000572267)
(0.110459 0.00988595 -0.00129387)
(0.110948 0.00987279 -0.00224071)
(0.110281 0.0102371 -0.00343092)
(0.108489 0.0112497 -0.00489925)
(0.10541 0.0130984 -0.00669735)
(0.10097 0.0159156 -0.00887173)
(0.0944657 0.0199178 -0.0114872)
(0.0857944 0.025175 -0.0145033)
(0.072968 0.0320696 -0.0178901)
(0.056461 0.0391031 -0.0207275)
(0.0323386 0.0440204 -0.0211385)
(0.0058639 0.0276722 -0.0117272)
(0.100361 0.00231514 0.000154923)
(0.102322 0.00496964 0.000212306)
(0.10527 0.00677372 1.08319e-05)
(0.107924 0.00787494 -0.000434311)
(0.10996 0.00857126 -0.00110857)
(0.111037 0.00925285 -0.00199551)
(0.111094 0.0102723 -0.00310592)
(0.110131 0.0119058 -0.00446704)
(0.108004 0.0143941 -0.00611949)
(0.104716 0.0179724 -0.0081034)
(0.0996081 0.0229765 -0.0104655)
(0.0927712 0.0296823 -0.0131789)
(0.0819435 0.0387024 -0.0161875)
(0.0680402 0.0486989 -0.0187316)
(0.0439256 0.0573128 -0.019041)
(0.015447 0.0378278 -0.010633)
(0.100308 0.00134116 0.000182115)
(0.10212 0.00303276 0.000276696)
(0.104976 0.00451308 0.000116388)
(0.107753 0.00577489 -0.000283787)
(0.110104 0.00692385 -0.000905764)
(0.111659 0.00816771 -0.00172747)
(0.112328 0.00974919 -0.00275135)
(0.112113 0.0119212 -0.00399586)
(0.110904 0.0149536 -0.00548938)
(0.108773 0.0191895 -0.00726362)
(0.105129 0.0251085 -0.00934563)
(0.100252 0.0334074 -0.0117194)
(0.0916928 0.0452191 -0.0143036)
(0.0810758 0.0611399 -0.0165201)
(0.0580203 0.0804544 -0.01678)
(0.0315295 0.0774285 -0.00975167)
(0.0876179 0.0173367 1.46841e-05)
(0.0714623 0.0118941 -9.62014e-06)
(0.0551603 0.00755568 -0.000138421)
(0.0454821 0.00378328 -0.000358156)
(0.0391144 0.00176675 -0.000662165)
(0.0352455 0.000758459 -0.00104279)
(0.0324564 0.000338107 -0.0015091)
(0.0301083 0.000172728 -0.00206909)
(0.0276452 0.000111934 -0.00274089)
(0.0248926 6.6188e-05 -0.00351771)
(0.0215297 1.25877e-05 -0.00442416)
(0.0176691 -0.000110549 -0.00537077)
(0.0129914 -0.000247649 -0.00638884)
(0.00789999 -0.000590579 -0.00701448)
(0.00281924 -0.000842901 -0.00692124)
(-0.00138835 -0.00184216 -0.00395897)
(0.103835 0.0181739 1.38914e-05)
(0.102675 0.0181435 -3.83511e-05)
(0.0981157 0.0150362 -0.000249308)
(0.0926104 0.0104645 -0.00061899)
(0.0871523 0.00687288 -0.00114642)
(0.0824198 0.00445787 -0.00182495)
(0.0780589 0.00313537 -0.00266886)
(0.0737395 0.002554 -0.00369843)
(0.0689248 0.00244076 -0.00494829)
(0.0633151 0.0025806 -0.00642772)
(0.05637 0.00286863 -0.00817509)
(0.0480238 0.00314449 -0.0100905)
(0.0376394 0.00341789 -0.0121592)
(0.0256625 0.00315285 -0.0136458)
(0.0123084 0.00234701 -0.0134965)
(0.000759212 -0.00096576 -0.00743109)
(0.103875 0.0122006 1.91132e-05)
(0.107659 0.0168331 -4.21446e-05)
(0.10949 0.0163163 -0.000276447)
(0.108635 0.0132015 -0.000682096)
(0.106288 0.0100313 -0.00126061)
(0.103106 0.00756914 -0.00200987)
(0.0993122 0.006111 -0.00294858)
(0.0949197 0.00552314 -0.00410305)
(0.0896197 0.00561848 -0.00551314)
(0.083171 0.00618941 -0.00719722)
(0.0749774 0.00712253 -0.00919618)
(0.0648754 0.00819365 -0.0114195)
(0.0519552 0.00937743 -0.0138284)
(0.0366209 0.00976788 -0.0156271)
(0.018543 0.00875107 -0.0154825)
(0.00215262 0.00250238 -0.00841619)
(0.102026 0.00788759 2.88324e-05)
(0.106036 0.0131941 -2.83089e-05)
(0.10977 0.0143237 -0.000262917)
(0.111249 0.0130175 -0.00066843)
(0.111017 0.0110489 -0.00124465)
(0.109381 0.0093281 -0.00199075)
(0.106632 0.00833782 -0.00292697)
(0.102886 0.00816078 -0.00408159)
(0.0979593 0.00876242 -0.00549484)
(0.0916826 0.0100344 -0.00718855)
(0.0834372 0.0119432 -0.00920196)
(0.0730396 0.0142878 -0.0114543)
(0.0593253 0.0170852 -0.0138955)
(0.0426724 0.0190937 -0.0157413)
(0.0221904 0.0189337 -0.0155839)
(0.00274722 0.00924176 -0.00838782)
(0.100988 0.00517995 4.4102e-05)
(0.104084 0.00985882 2.17232e-06)
(0.107725 0.0117343 -0.000218838)
(0.109973 0.0117281 -0.000608958)
(0.110862 0.0109204 -0.00116482)
(0.110356 0.0101047 -0.00188414)
(0.108619 0.0097952 -0.00278548)
(0.105736 0.0102083 -0.00389572)
(0.101556 0.0114403 -0.00525187)
(0.0959646 0.0134962 -0.00687598)
(0.0883217 0.0164478 -0.008802)
(0.0784811 0.0201566 -0.0109596)
(0.0649619 0.0247351 -0.0132899)
(0.0481644 0.0286077 -0.015061)
(0.0260686 0.0297284 -0.0148728)
(0.00375835 0.0160162 -0.00792798)
(0.100523 0.00351542 6.16135e-05)
(0.102842 0.00719489 4.12567e-05)
(0.106003 0.00919815 -0.000157812)
(0.108437 0.0099506 -0.000524166)
(0.109917 0.0100461 -0.00105126)
(0.110203 0.0100786 -0.00173393)
(0.109316 0.0105037 -0.00258707)
(0.107282 0.0115984 -0.00363425)
(0.103942 0.0135586 -0.00490721)
(0.099222 0.0165196 -0.00642664)
(0.0924485 0.0207096 -0.00821888)
(0.0835425 0.0261855 -0.0102253)
(0.0706542 0.0333479 -0.012378)
(0.0543227 0.0405942 -0.0140244)
(0.0309188 0.045634 -0.0138119)
(0.00570958 0.028725 -0.00732505)
(0.100351 0.00233897 8.1168e-05)
(0.102248 0.00502656 8.64902e-05)
(0.105077 0.00686756 -8.50764e-05)
(0.107584 0.00800789 -0.000421738)
(0.109449 0.00874761 -0.000914041)
(0.11034 0.00948187 -0.00155308)
(0.110197 0.0105709 -0.0023486)
(0.109019 0.012298 -0.00331914)
(0.106663 0.0149133 -0.00448919)
(0.103133 0.0186567 -0.00587604)
(0.0977963 0.0238773 -0.00749539)
(0.090771 0.0308381 -0.00930024)
(0.0799022 0.0401721 -0.0112105)
(0.0661898 0.0504259 -0.0126816)
(0.0427133 0.0592082 -0.0124518)
(0.0153759 0.0391222 -0.00665452)
(0.100298 0.0013656 0.000101467)
(0.102049 0.00309131 0.000134432)
(0.104793 0.00461003 -6.65316e-06)
(0.107433 0.00591328 -0.000310127)
(0.109626 0.00710891 -0.000764094)
(0.111013 0.00840978 -0.00135566)
(0.111505 0.0100662 -0.00208876)
(0.111104 0.0123391 -0.00297602)
(0.109699 0.0155083 -0.00403391)
(0.10737 0.0199235 -0.00527511)
(0.103543 0.0260787 -0.00670386)
(0.0985313 0.0346605 -0.00828348)
(0.0899624 0.0468222 -0.00992397)
(0.0795621 0.0630414 -0.0112026)
(0.057072 0.0825841 -0.0110038)
(0.0315839 0.079007 -0.00613911)
(0.0876111 0.0173377 8.23254e-07)
(0.071423 0.0118978 -2.21474e-05)
(0.0550642 0.00755917 -0.000103466)
(0.0453242 0.00378529 -0.000238377)
(0.03889 0.00176781 -0.000421888)
(0.0349528 0.000759583 -0.000650985)
(0.0320913 0.000340139 -0.000931132)
(0.0296641 0.000176037 -0.00126678)
(0.0271193 0.000117003 -0.00166789)
(0.0242802 7.39613e-05 -0.00212831)
(0.0208521 2.534e-05 -0.00266035)
(0.016939 -8.73926e-05 -0.00320838)
(0.0122995 -0.000206614 -0.00378558)
(0.00729956 -0.00051463 -0.004128)
(0.00247985 -0.000739294 -0.00403324)
(-0.00137371 -0.00170949 -0.00231614)
(0.103825 0.0181797 -3.61891e-06)
(0.102619 0.0181574 -4.75414e-05)
(0.0979735 0.0150548 -0.00018378)
(0.0923612 0.0104847 -0.0004129)
(0.0867777 0.0068945 -0.000734046)
(0.0819083 0.00448317 -0.00114453)
(0.0773987 0.00316803 -0.00165352)
(0.0729162 0.00259764 -0.00227309)
(0.0679272 0.00249982 -0.00302285)
(0.0621299 0.00266014 -0.00390522)
(0.0550175 0.00297741 -0.00493876)
(0.0465289 0.00329413 -0.00605841)
(0.0361431 0.00362649 -0.00724524)
(0.0243085 0.00343899 -0.00807062)
(0.0114567 0.00269166 -0.00789972)
(0.000636021 -0.000660788 -0.00434407)
(0.103867 0.0122115 -1.22645e-06)
(0.107601 0.0168574 -5.25387e-05)
(0.109343 0.0163519 -0.000204811)
(0.108371 0.013245 -0.000456844)
(0.105884 0.0100819 -0.000809961)
(0.102545 0.0076296 -0.00126389)
(0.0985788 0.00618703 -0.00183076)
(0.0939957 0.00562168 -0.00252637)
(0.08849 0.00574847 -0.00337361)
(0.0818192 0.00636034 -0.00438032)
(0.0734192 0.00734887 -0.00556625)
(0.0631386 0.00848944 -0.00687118)
(0.0501893 0.00976534 -0.00826058)
(0.0350015 0.0102533 -0.00926695)
(0.0174925 0.00930122 -0.00908623)
(0.00196927 0.00291018 -0.00492513)
(0.102018 0.00790067 4.42345e-06)
(0.105981 0.013224 -4.48124e-05)
(0.109627 0.01437 -0.00019782)
(0.110991 0.0130781 -0.00045001)
(0.11062 0.0111236 -0.000801911)
(0.108828 0.00942035 -0.00125399)
(0.105906 0.00845496 -0.00181944)
(0.101969 0.00831249 -0.00251529)
(0.0968351 0.00896145 -0.00336474)
(0.0903352 0.0102942 -0.0043778)
(0.0818801 0.0122825 -0.00557336)
(0.0713011 0.014721 -0.00689688)
(0.0575505 0.0176351 -0.00830725)
(0.0410432 0.0197468 -0.00934265)
(0.0211282 0.0196429 -0.00915356)
(0.00257472 0.00971104 -0.00491224)
(0.100981 0.00519468 1.38414e-05)
(0.104031 0.00989308 -2.62731e-05)
(0.107587 0.0117891 -0.000171105)
(0.109725 0.0118026 -0.000413885)
(0.11048 0.0110155 -0.000753314)
(0.109826 0.0102247 -0.00118902)
(0.107925 0.00994895 -0.00173326)
(0.104862 0.0104079 -0.00240227)
(0.100486 0.0117022 -0.00321739)
(0.0946859 0.0138378 -0.00418888)
(0.0868462 0.0168927 -0.00533277)
(0.0768383 0.0207211 -0.00660081)
(0.063286 0.0254446 -0.00794753)
(0.0466352 0.0294346 -0.00894137)
(0.0250763 0.0306146 -0.00873906)
(0.00362619 0.0165849 -0.00464839)
(0.100516 0.00353115 2.4693e-05)
(0.102791 0.0072321 -2.1842e-06)
(0.10587 0.00925879 -0.000133536)
(0.108199 0.0100352 -0.000361722)
(0.109555 0.0101567 -0.000683501)
(0.109702 0.0102205 -0.00109681)
(0.108662 0.0106872 -0.00161174)
(0.106462 0.0118379 -0.00224253)
(0.102945 0.0138739 -0.00300748)
(0.0980358 0.0169323 -0.00391609)
(0.0910854 0.0212487 -0.00498019)
(0.0820338 0.0268707 -0.00615851)
(0.0691212 0.0342096 -0.00740131)
(0.0529408 0.0415958 -0.0083229)
(0.0300328 0.0467123 -0.00811188)
(0.00562848 0.029436 -0.00429421)
(0.100344 0.00235553 3.6803e-05)