/*--------------------------------*- C++ -*----------------------------------*\
| =========                 |                                                 |
| \\      /  F ield         | OpenFOAM: The Open Source CFD Toolbox           |
|  \\    /   O peration     | Version:  v1912                                 |
|   \\  /    A nd           | Website:  www.openfoam.com                      |
|    \\/     M anipulation  |                                                 |
\*---------------------------------------------------------------------------*/
FoamFile
{
    version     2.0;
    format      ascii;
    class       volSymmTensorField;
    location    "0.5/solid";
    object      epsilon;
}
// * * * * * * * * * * * * * * * * * * * * * * * * * * * * * * * * * * * * * //

dimensions      [0 0 0 0 0 0 0];


internalField   nonuniform List<symmTensor> 
256
(
(-2.68401e-06 1.35233e-07 -5.32275e-08 1.16568e-06 1.458e-07 -2.78978e-06)
(-4.54944e-07 -5.65771e-08 -2.15386e-08 7.33721e-07 1.45225e-07 -2.50022e-06)
(-4.46433e-07 6.87952e-08 2.11681e-08 7.19866e-07 1.46979e-07 -2.47273e-06)
(-2.56381e-06 -1.25851e-07 5.35268e-08 1.11324e-06 1.52254e-07 -2.71478e-06)
(-2.70413e-06 -8.68242e-09 -7.86802e-08 -3.52462e-07 3.47452e-09 -2.78499e-06)
(-7.54741e-07 -2.94463e-08 -3.46185e-08 -1.37847e-07 1.17329e-08 -2.48232e-06)
(-7.43695e-07 4.10841e-08 3.49288e-08 -1.47267e-07 1.31916e-08 -2.45464e-06)
(-2.57909e-06 1.3951e-08 7.94503e-08 -3.77073e-07 8.52411e-09 -2.7125e-06)
(-2.75403e-06 -2.3377e-08 -8.37623e-08 -3.74675e-07 -1.25804e-08 -2.83253e-06)
(-7.75141e-07 -2.12488e-08 -3.75721e-08 -2.51716e-07 -1.06983e-08 -2.49445e-06)
(-7.64446e-07 3.05526e-08 3.83022e-08 -2.59913e-07 -9.71329e-09 -2.4661e-06)
(-2.62701e-06 2.71872e-08 8.47286e-08 -3.96881e-07 -9.08197e-09 -2.75838e-06)
(-2.80952e-06 -1.30875e-08 -8.63433e-08 -3.12966e-07 -3.77179e-09 -2.90198e-06)
(-7.38021e-07 -1.43391e-08 -3.88386e-08 -2.96029e-07 -4.65114e-09 -2.54264e-06)
(-7.27516e-07 2.12481e-08 3.96623e-08 -3.0349e-07 -3.95454e-09 -2.51384e-06)
(-2.68049e-06 1.60037e-08 8.73746e-08 -3.33854e-07 -1.21295e-09 -2.82652e-06)
(-2.89638e-06 -1.22885e-09 -8.87901e-08 -2.98732e-07 1.02874e-08 -3.00033e-06)
(-7.26316e-07 -6.80906e-09 -4.01227e-08 -3.29733e-07 8.93941e-09 -2.62992e-06)
(-7.15751e-07 1.16615e-08 4.09197e-08 -3.36948e-07 9.49565e-09 -2.60078e-06)
(-2.7655e-06 3.30982e-09 8.98569e-08 -3.18882e-07 1.23314e-08 -2.92391e-06)
(-3.04208e-06 1.86641e-08 -9.0782e-08 -3.95003e-07 3.38081e-08 -3.14454e-06)
(-7.75985e-07 4.9382e-09 -4.13044e-08 -4.07691e-07 3.31631e-08 -2.77135e-06)
(-7.65511e-07 -2.22683e-09 4.20858e-08 -4.14783e-07 3.36648e-08 -2.74189e-06)
(-2.91028e-06 -1.76688e-08 9.19114e-08 -4.14868e-07 3.55844e-08 -3.06727e-06)
(-3.27015e-06 5.94259e-08 -9.03867e-08 -1.02484e-06 7.45623e-08 -3.36151e-06)
(-9.24315e-07 2.45917e-08 -4.12671e-08 -9.15802e-07 7.75319e-08 -3.00558e-06)
(-9.1464e-07 -2.49799e-08 4.21087e-08 -9.19375e-07 7.80049e-08 -2.97601e-06)
(-3.14034e-06 -6.00671e-08 9.16038e-08 -1.03694e-06 7.6124e-08 -3.28393e-06)
(-3.65863e-06 8.51185e-08 -8.46772e-08 -3.75403e-06 1.00751e-07 -3.75315e-06)
(-1.14807e-06 3.92173e-08 -3.86869e-08 -3.48529e-06 1.07441e-07 -3.48365e-06)
(-1.13942e-06 -3.92752e-08 3.95335e-08 -3.45761e-06 1.07841e-07 -3.45596e-06)
(-3.53375e-06 -8.58272e-08 8.58342e-08 -3.68148e-06 1.01943e-07 -3.68097e-06)
(-2.23066e-06 8.4777e-08 -3.89889e-08 5.59415e-07 -5.12539e-08 -4.22425e-07)
(-3.19765e-07 -6.53993e-08 -1.01602e-08 1.99285e-07 1.57079e-08 -3.56334e-07)
(-3.10438e-07 7.23661e-08 1.20993e-08 1.85641e-07 2.06103e-08 -3.55496e-07)
(-2.10626e-06 -7.7503e-08 4.00776e-08 5.09465e-07 -3.61948e-08 -4.21818e-07)
(-2.25308e-06 -1.5898e-08 -5.75279e-08 -1.85963e-07 -4.36303e-09 -6.47007e-07)
(-5.39644e-07 -3.16283e-08 -2.08958e-08 -1.23121e-08 2.91588e-08 -5.4812e-07)
(-5.27923e-07 3.76252e-08 2.41791e-08 -2.29197e-08 3.23342e-08 -5.48118e-07)
(-2.12642e-06 1.85931e-08 5.92091e-08 -2.13466e-07 5.99618e-09 -6.49667e-07)
(-2.27953e-06 -2.40764e-08 -5.93108e-08 -2.44613e-07 -1.68852e-09 -6.7231e-07)
(-5.46324e-07 -2.19966e-08 -2.22888e-08 -1.43563e-07 9.05148e-09 -5.63882e-07)
(-5.35095e-07 2.62212e-08 2.60181e-08 -1.51862e-07 1.13234e-08 -5.64787e-07)
(-2.15113e-06 2.56404e-08 6.1154e-08 -2.67399e-07 6.02679e-09 -6.77612e-07)
(-2.31982e-06 -1.39458e-08 -5.97176e-08 -2.52044e-07 1.77289e-09 -6.72642e-07)
(-5.0748e-07 -1.51587e-08 -2.20393e-08 -2.41088e-07 4.41071e-09 -5.58396e-07)
(-4.96377e-07 1.79446e-08 2.5822e-08 -2.48305e-07 6.17563e-09 -5.5981e-07)
(-2.18888e-06 1.511e-08 6.16044e-08 -2.72688e-07 7.84838e-09 -6.79379e-07)
(-2.39919e-06 -2.26234e-09 -6.08288e-08 -2.63634e-07 1.99252e-08 -6.88115e-07)
(-4.94125e-07 -7.88357e-09 -2.25378e-08 -2.96478e-07 2.0309e-08 -5.69352e-07)
(-4.8279e-07 9.46645e-09 2.62433e-08 -3.03426e-07 2.17686e-08 -5.71035e-07)
(-2.26528e-06 2.99791e-09 6.27395e-08 -2.83423e-07 2.49034e-08 -6.95629e-07)
(-2.54718e-06 1.83036e-08 -6.17121e-08 -3.29825e-07 4.84623e-08 -7.34158e-07)
(-5.42582e-07 3.91166e-09 -2.32798e-08 -3.42904e-07 4.82939e-08 -6.11861e-07)
(-5.31116e-07 -3.7383e-09 2.6908e-08 -3.49659e-07 4.95214e-08 -6.13773e-07)
(-2.41069e-06 -1.83399e-08 6.36672e-08 -3.49091e-07 5.25856e-08 -7.42335e-07)
(-2.79857e-06 6.15929e-08 -6.10411e-08 -8.3552e-07 7.24585e-08 -8.40823e-07)
(-6.93046e-07 2.43166e-08 -2.33861e-08 -7.16919e-07 7.30664e-08 -7.19062e-07)
(-6.82216e-07 -2.63566e-08 2.68272e-08 -7.19859e-07 7.39768e-08 -7.21374e-07)
(-2.66236e-06 -6.29676e-08 6.29815e-08 -8.46226e-07 7.55243e-08 -8.50063e-07)
(-3.27126e-06 9.0644e-08 -5.85993e-08 -3.36179e-06 7.52382e-08 -1.02591e-06)
(-9.2474e-07 4.15683e-08 -2.31829e-08 -3.00712e-06 7.80462e-08 -9.14156e-07)
(-9.15085e-07 -4.19473e-08 2.57803e-08 -2.97751e-06 7.84903e-08 -9.17127e-07)
(-3.14073e-06 -9.16042e-08 6.01389e-08 -3.28376e-06 7.66668e-08 -1.0368e-06)
(-1.94208e-06 5.23567e-08 -1.58835e-08 3.23241e-07 3.42506e-08 -3.05863e-08)
(-2.27874e-07 -7.7836e-08 -8.31102e-10 1.57505e-08 9.31657e-08 -3.44191e-08)
(-2.18704e-07 8.09727e-08 2.45392e-09 3.15626e-09 9.68757e-08 -3.56686e-08)
(-1.82121e-06 -4.68107e-08 1.64226e-08 2.78295e-07 4.56891e-08 -3.43184e-08)
(-1.99086e-06 -1.86735e-08 -2.19237e-08 -2.11172e-07 5.04404e-08 -1.46264e-07)
(-3.88716e-07 -3.41995e-08 -4.29797e-09 -6.35911e-08 7.99289e-08 -1.53761e-07)
(-3.76976e-07 3.71956e-08 6.98432e-09 -7.40982e-08 8.30259e-08 -1.5646e-07)
(-1.86676e-06 2.01769e-08 2.29341e-08 -2.38439e-07 6.02339e-08 -1.54277e-07)
(-2.01797e-06 -2.27258e-08 -2.07186e-08 -2.12788e-07 4.12611e-08 -1.9922e-07)
(-3.87201e-07 -2.18636e-08 -4.06449e-09 -1.30113e-07 5.11752e-08 -2.08415e-07)
(-3.75854e-07 2.35943e-08 6.88827e-09 -1.3851e-07 5.37431e-08 -2.12145e-07)
(-1.8918e-06 2.32931e-08 2.18278e-08 -2.3617e-07 4.95043e-08 -2.10222e-07)
(-2.05544e-06 -1.36706e-08 -1.95288e-08 -2.04978e-07 3.43908e-08 -2.15696e-07)
(-3.49728e-07 -1.54026e-08 -3.15181e-09 -2.00479e-07 3.69952e-08 -2.25326e-07)
(-3.38428e-07 1.61747e-08 5.85114e-09 -2.07763e-07 3.91663e-08 -2.2974e-07)
(-1.92641e-06 1.40393e-08 2.06159e-08 -2.26162e-07 4.13838e-08 -2.28667e-07)
(-2.13323e-06 -2.4633e-09 -1.92406e-08 -2.06146e-07 4.15706e-08 -2.33518e-07)
(-3.37186e-07 -8.61373e-09 -2.95181e-09 -2.40714e-07 4.20658e-08 -2.42913e-07)
(-3.25546e-07 8.66896e-09 5.49933e-09 -2.47655e-07 4.39256e-08 -2.47778e-07)
(-2.00062e-06 2.61759e-09 2.02976e-08 -2.26254e-07 4.7513e-08 -2.47771e-07)
(-2.28433e-06 1.86267e-08 -1.90371e-08 -2.50457e-07 5.4464e-08 -2.73676e-07)
(-3.86972e-07 3.32683e-09 -3.1382e-09 -2.64009e-07 5.43013e-08 -2.82626e-07)
(-3.75065e-07 -4.18782e-09 5.5369e-09 -2.7066e-07 5.58483e-08 -2.87849e-07)
(-2.1481e-06 -1.90343e-08 2.0076e-08 -2.69742e-07 5.93781e-08 -2.88924e-07)
(-2.54786e-06 6.221e-08 -1.85218e-08 -7.22923e-07 5.3278e-08 -3.40875e-07)
(-5.40697e-07 2.4026e-08 -3.41614e-09 -6.04381e-07 5.28003e-08 -3.49873e-07)
(-5.29296e-07 -2.66059e-08 5.43713e-09 -6.07118e-07 5.38917e-08 -3.55444e-07)
(-2.41044e-06 -6.37597e-08 1.94553e-08 -7.33293e-07 5.68158e-08 -3.57054e-07)
(-3.04438e-06 9.09725e-08 -1.84299e-08 -3.14472e-06 3.65491e-08 -3.95318e-07)
(-7.74848e-07 4.14875e-08 -3.76881e-09 -2.77351e-06 3.56605e-08 -4.04367e-07)
(-7.64532e-07 -4.19555e-08 4.55846e-09 -2.74395e-06 3.60719e-08 -4.1021e-07)
(-2.91107e-06 -9.19539e-08 1.88646e-08 -3.06697e-06 3.7922e-08 -4.12196e-07)
(-1.77418e-06 3.89865e-08 -4.87839e-09 2.38453e-07 6.07149e-08 1.03127e-10)
(-1.87343e-07 -8.14567e-08 2.98441e-09 -3.92436e-08 9.54898e-08 -1.58866e-08)
(-1.7883e-07 8.21964e-08 -1.56509e-09 -5.07957e-08 9.81623e-08 -1.68691e-08)
(-1.65768e-06 -3.4801e-08 5.23142e-09 1.97922e-07 6.89925e-08 -2.6845e-09)
(-1.82741e-06 -1.87342e-08 -5.67236e-09 -2.49218e-07 7.25466e-08 -6.43935e-08)
(-3.20276e-07 -3.46178e-08 3.70556e-09 -1.1571e-07 9.01658e-08 -9.41248e-08)
(-3.0923e-07 3.58245e-08 -1.31323e-09 -1.25643e-07 9.2676e-08 -9.64064e-08)
(-1.70741e-06 1.95194e-08 6.39722e-09 -2.7505e-07 8.03495e-08 -7.09093e-08)
(-1.85848e-06 -2.07963e-08 -3.86507e-09 -2.21677e-07 6.5119e-08 -1.25505e-07)
(-3.17248e-07 -2.1104e-08 4.69876e-09 -1.49659e-07 7.10953e-08 -1.59813e-07)
(-3.06432e-07 2.14874e-08 -2.25574e-09 -1.57933e-07 7.33718e-08 -1.63007e-07)
(-1.73607e-06 2.086e-08 4.66001e-09 -2.4496e-07 7.22279e-08 -1.34691e-07)
(-1.898e-06 -1.26138e-08 -2.41482e-09 -1.85165e-07 5.47808e-08 -1.6612e-07)
(-2.83829e-07 -1.49989e-08 5.62597e-09 -1.84781e-07 5.61855e-08 -2.02007e-07)
(-2.7296e-07 1.47732e-08 -3.386e-09 -1.92129e-07 5.82266e-08 -2.05874e-07)
(-1.77243e-06 1.2604e-08 3.15874e-09 -2.06743e-07 6.11626e-08 -1.77283e-07)
(-1.97705e-06 -2.03766e-09 -1.71647e-09 -1.6671e-07 5.03308e-08 -2.00236e-07)
(-2.74411e-07 -8.69927e-09 5.99856e-09 -2.02369e-07 5.05113e-08 -2.36732e-07)
(-2.63132e-07 8.07154e-09 -3.97013e-09 -2.09398e-07 5.23088e-08 -2.41105e-07)
(-1.84751e-06 1.9395e-09 2.39469e-09 -1.87284e-07 5.59248e-08 -2.12877e-07)
(-2.13025e-06 1.8828e-08 -1.40527e-09 -2.02917e-07 4.65936e-08 -2.39956e-07)
(-3.26533e-07 2.9883e-09 5.92791e-09 -2.17401e-07 4.65507e-08 -2.76531e-07)
(-3.14915e-07 -4.24157e-09 -4.12127e-09 -2.24121e-07 4.80421e-08 -2.81302e-07)
(-1.99646e-06 -1.93586e-08 2.01748e-09 -2.22589e-07 5.12396e-08 -2.53741e-07)
(-2.39801e-06 6.15002e-08 -1.44243e-09 -6.71425e-07 3.206e-08 -2.79769e-07)
(-4.8179e-07 2.32272e-08 5.4557e-09 -5.56634e-07 3.17454e-08 -3.16039e-07)
(-4.70572e-07 -2.59856e-08 -4.11943e-09 -5.59455e-07 3.27693e-08 -3.21102e-07)
(-2.26199e-06 -6.30701e-08 1.89891e-09 -6.82132e-07 3.53447e-08 -2.94387e-07)
(-2.89886e-06 8.91755e-08 -1.91735e-09 -3.00334e-06 1.6866e-08 -2.90188e-07)
(-7.15303e-07 4.03117e-08 5.11197e-09 -2.63474e-06 1.54787e-08 -3.25931e-07)
(-7.05032e-07 -4.08643e-08 -5.00593e-09 -2.60546e-06 1.58236e-08 -3.31087e-07)
(-2.76542e-06 -9.01625e-08 1.87989e-09 -2.92636e-06 1.80382e-08 -3.05099e-07)
(-1.67911e-06 3.4595e-08 -1.38536e-09 2.04038e-07 5.76092e-08 -7.5504e-09)
(-1.72352e-07 -8.04882e-08 2.99022e-09 -5.84669e-08 7.52593e-08 -1.85816e-08)
(-1.64434e-07 7.98141e-08 -1.85459e-09 -6.91612e-08 7.71606e-08 -1.93125e-08)
(-1.56589e-06 -3.13254e-08 1.6712e-09 1.66931e-07 6.34649e-08 -9.65793e-09)
(-1.73214e-06 -1.78675e-08 -8.21989e-10 -2.67624e-07 6.74265e-08 -5.61107e-08)
(-2.95591e-07 -3.38345e-08 4.67977e-09 -1.41426e-07 7.63324e-08 -7.72573e-08)
(-2.85271e-07 3.39519e-08 -2.69211e-09 -1.50784e-07 7.81986e-08 -7.90655e-08)
(-1.61543e-06 1.81954e-08 1.41856e-09 -2.91982e-07 7.31706e-08 -6.13151e-08)
(-1.76624e-06 -1.92578e-08 5.85961e-10 -2.33039e-07 6.51751e-08 -1.13605e-07)
(-2.94193e-07 -2.03246e-08 5.6571e-09 -1.66473e-07 6.80755e-08 -1.38219e-07)
(-2.83987e-07 1.9903e-08 -3.60037e-09 -1.74533e-07 6.98489e-08 -1.40819e-07)
(-1.64688e-06 1.90281e-08 7.33797e-11 -2.55891e-07 7.0652e-08 -1.2114e-07)
(-1.80862e-06 -1.162e-08 1.67151e-09 -1.81245e-07 5.66185e-08 -1.64092e-07)
(-2.64998e-07 -1.45393e-08 6.31067e-09 -1.82876e-07 5.71574e-08 -1.89736e-07)
(-2.54648e-07 1.37521e-08 -4.44152e-09 -1.90225e-07 5.88085e-08 -1.92956e-07)
(-1.68585e-06 1.14043e-08 -1.06233e-09 -2.02963e-07 6.17291e-08 -1.73484e-07)
(-1.88969e-06 -1.5765e-09 2.24984e-09 -1.50254e-07 4.71183e-08 -2.06896e-07)
(-2.58883e-07 -8.6129e-09 6.56918e-09 -1.86268e-07 4.72017e-08 -2.32825e-07)
(-2.48069e-07 7.63002e-09 -4.92245e-09 -1.93388e-07 4.8687e-08 -2.3655e-07)
(-1.76268e-06 1.35102e-09 -1.71556e-09 -1.71214e-07 5.17088e-08 -2.17796e-07)
(-2.04421e-06 1.88034e-08 2.41363e-09 -1.83857e-07 3.55834e-08 -2.44174e-07)
(-3.12864e-07 2.71876e-09 6.4636e-09 -1.98934e-07 3.58286e-08 -2.70033e-07)
(-3.0166e-07 -4.16267e-09 -5.06668e-09 -2.0578e-07 3.70648e-08 -2.74159e-07)
(-1.91255e-06 -1.93877e-08 -1.9648e-09 -2.04003e-07 3.94273e-08 -2.56271e-07)
(-2.31252e-06 6.05448e-08 2.1365e-09 -6.49236e-07 1.87803e-08 -2.70764e-07)
(-4.68197e-07 2.24568e-08 5.9939e-09 -5.37718e-07 1.89937e-08 -2.9636e-07)
(-4.57317e-07 -2.53159e-08 -5.05592e-09 -5.40703e-07 1.98332e-08 -3.00748e-07)
(-2.17796e-06 -6.2122e-08 -1.85115e-09 -6.6046e-07 2.14855e-08 -2.83669e-07)
(-2.81101e-06 8.74141e-08 1.60556e-09 -2.91285e-06 8.58621e-09 -2.74599e-07)
(-7.00213e-07 3.92436e-08 5.66993e-09 -2.55065e-06 7.78068e-09 -3.0039e-07)
(-6.90186e-07 -3.98838e-08 -5.77711e-09 -2.52157e-06 8.05542e-09 -3.04812e-07)
(-2.67802e-06 -8.84267e-08 -1.74947e-09 -2.83648e-06 9.52801e-09 -2.87684e-07)
(-1.62443e-06 3.32575e-08 -5.46381e-10 1.88078e-07 4.49076e-08 -1.41486e-08)
(-1.6672e-07 -7.88036e-08 1.91567e-09 -6.68409e-08 5.34234e-08 -1.98772e-08)
(-1.59212e-07 7.73064e-08 -1.10217e-09 -7.69031e-08 5.46988e-08 -2.04695e-08)
(-1.51332e-06 -3.05558e-08 7.64575e-10 1.53404e-07 4.87948e-08 -1.5858e-08)
(-1.67729e-06 -1.7027e-08 -6.27172e-12 -2.73926e-07 5.1295e-08 -5.88781e-08)
(-2.87359e-07 -3.29905e-08 3.18587e-09 -1.51623e-07 5.54834e-08 -7.00566e-08)
(-2.77561e-07 3.24572e-08 -1.71607e-09 -1.60533e-07 5.67576e-08 -7.15614e-08)
(-1.56274e-06 1.70761e-08 4.66686e-10 -2.97111e-07 5.5186e-08 -6.3202e-08)
(-1.71338e-06 -1.8275e-08 8.62732e-10 -2.39135e-07 5.14083e-08 -1.11394e-07)
(-2.88119e-07 -1.97938e-08 3.84562e-09 -1.75245e-07 5.26742e-08 -1.24468e-07)
(-2.78365e-07 1.88761e-08 -2.2914e-09 -1.83104e-07 5.3914e-08 -1.26672e-07)
(-1.59601e-06 1.78659e-08 -3.46254e-10 -2.61522e-07 5.52181e-08 -1.17777e-07)
(-1.75797e-06 -1.09727e-08 1.51491e-09 -1.82908e-07 4.57311e-08 -1.62265e-07)
(-2.62078e-07 -1.42576e-08 4.21691e-09 -1.85362e-07 4.5911e-08 -1.75789e-07)
(-2.52115e-07 1.31189e-08 -2.79561e-09 -1.92681e-07 4.70919e-08 -1.78566e-07)
(-1.63701e-06 1.06309e-08 -1.03452e-09 -2.04618e-07 4.93763e-08 -1.70377e-07)
(-1.84066e-06 -1.28732e-09 1.86141e-09 -1.47199e-07 3.66729e-08 -2.06548e-07)
(-2.58363e-07 -8.56987e-09 4.33326e-09 -1.83142e-07 3.67911e-08 -2.20105e-07)
(-2.47894e-07 7.35977e-09 -3.09656e-09 -1.90324e-07 3.78696e-08 -2.23368e-07)
(-1.71528e-06 9.82225e-10 -1.44479e-09 -1.68414e-07 4.00065e-08 -2.1614e-07)
(-1.99581e-06 1.87015e-08 1.91386e-09 -1.79703e-07 2.50451e-08 -2.41741e-07)
(-3.13446e-07 2.5138e-09 4.2168e-09 -1.94906e-07 2.54534e-08 -2.55234e-07)
(-3.02548e-07 -4.09148e-09 -3.19964e-09 -2.01866e-07 2.63562e-08 -2.58892e-07)
(-1.86551e-06 -1.93244e-08 -1.57549e-09 -2.00239e-07 2.78628e-08 -2.52542e-07)
(-2.26334e-06 5.98515e-08 1.65501e-09 -6.40119e-07 1.14853e-08 -2.64523e-07)
(-4.68357e-07 2.19667e-08 3.87438e-09 -5.30445e-07 1.19977e-08 -2.78009e-07)
(-4.57732e-07 -2.49125e-08 -3.22941e-09 -5.33574e-07 1.26103e-08 -2.81919e-07)
(-2.12973e-06 -6.14445e-08 -1.45387e-09 -6.51795e-07 1.34743e-08 -2.76143e-07)
(-2.75859e-06 8.62858e-08 1.23113e-09 -2.85633e-06 4.83975e-09 -2.71357e-07)
(-6.99008e-07 3.85987e-08 3.59422e-09 -2.49877e-06 4.59231e-09 -2.85323e-07)
(-6.89183e-07 -3.93168e-08 -3.73227e-09 -2.46983e-06 4.79234e-09 -2.89251e-07)
(-2.62589e-06 -8.73318e-08 -1.3573e-09 -2.78041e-06 5.52974e-09 -2.83147e-07)
(-1.5939e-06 3.27539e-08 -3.05642e-10 1.80433e-07 2.81842e-08 -1.76288e-08)
(-1.64223e-07 -7.76682e-08 9.62085e-10 -7.07057e-08 3.20696e-08 -2.05358e-08)
(-1.56965e-07 7.57184e-08 -4.75588e-10 -8.03582e-08 3.28035e-08 -2.10538e-08)
(-1.48403e-06 -3.03763e-08 4.41791e-10 1.47299e-07 3.04007e-08 -1.91054e-08)
(-1.64676e-06 -1.65129e-08 -4.20903e-11 -2.75562e-07 3.15185e-08 -6.17156e-08)
(-2.8418e-07 -3.24695e-08 1.62388e-09 -1.55331e-07 3.33711e-08 -6.74012e-08)
(-2.74703e-07 3.15731e-08 -7.26437e-10 -1.63945e-07 3.41104e-08 -6.87296e-08)
(-1.53348e-06 1.64059e-08 3.32379e-10 -2.97954e-07 3.37624e-08 -6.54921e-08)
(-1.684e-06 -1.77395e-08 3.96597e-10 -2.41652e-07 3.19675e-08 -1.10822e-07)
(-2.86484e-07 -1.9513e-08 1.96634e-09 -1.79048e-07 3.24912e-08 -1.17457e-07)
(-2.7701e-07 1.83069e-08 -1.00098e-09 -1.86763e-07 3.32194e-08 -1.19424e-07)
(-1.56782e-06 1.72268e-08 -6.65416e-11 -2.63684e-07 3.41985e-08 -1.16468e-07)
(-1.72994e-06 -1.06285e-08 7.22652e-10 -1.85307e-07 2.87968e-08 -1.59344e-07)
(-2.62354e-07 -1.41321e-08 2.14084e-09 -1.88052e-07 2.88697e-08 -1.66151e-07)
(-2.52631e-07 1.27777e-08 -1.25016e-09 -1.95337e-07 2.95722e-08 -1.68657e-07)
(-1.61006e-06 1.02099e-08 -4.12687e-10 -2.06963e-07 3.09639e-08 -1.66621e-07)
(-1.81362e-06 -1.14726e-09 8.89321e-10 -1.4878e-07 2.28214e-08 -2.02332e-07)
(-2.6004e-07 -8.57422e-09 2.17665e-09 -1.84539e-07 2.29454e-08 -2.09127e-07)
(-2.49782e-07 7.21415e-09 -1.40411e-09 -1.91757e-07 2.35933e-08 -2.12103e-07)
(-1.68918e-06 7.89743e-10 -6.20625e-10 -1.70139e-07 2.4827e-08 -2.11054e-07)
(-1.96898e-06 1.86178e-08 8.97388e-10 -1.80748e-07 1.49922e-08 -2.36256e-07)
(-3.15676e-07 2.38709e-09 2.09366e-09 -1.95855e-07 1.5344e-08 -2.43104e-07)
(-3.04964e-07 -4.06353e-09 -1.46763e-09 -2.02891e-07 1.58892e-08 -2.46468e-07)
(-1.83947e-06 -1.9271e-08 -6.81766e-10 -2.01542e-07 1.67005e-08 -2.46191e-07)
(-2.23561e-06 5.94685e-08 7.40872e-10 -6.36758e-07 6.5756e-09 -2.58852e-07)
(-4.70198e-07 2.17249e-08 1.90017e-09 -5.27882e-07 7.03512e-09 -2.6591e-07)
(-4.59726e-07 -2.47404e-08 -1.51336e-09 -5.3111e-07 7.40597e-09 -2.69524e-07)
(-2.10255e-06 -6.10796e-08 -6.14867e-10 -6.48746e-07 7.78691e-09 -2.69624e-07)
(-2.72844e-06 8.57042e-08 4.76883e-10 -2.82347e-06 2.62938e-09 -2.69311e-07)
(-6.99918e-07 3.82881e-08 1.70813e-09 -2.4684e-06 2.63279e-09 -2.76867e-07)
(-6.90218e-07 -3.90641e-08 -1.80387e-09 -2.43955e-06 2.75416e-09 -2.80494e-07)
(-2.59591e-06 -8.67788e-08 -5.5454e-10 -2.74786e-06 3.05006e-09 -2.80261e-07)
(-1.58008e-06 3.25337e-08 -1.07706e-10 1.7731e-07 9.58045e-09 -1.90561e-08)
(-1.63138e-07 -7.71624e-08 2.84784e-10 -7.2215e-08 1.0716e-08 -2.09137e-08)
(-1.55999e-07 7.50128e-08 -1.23048e-10 -8.16672e-08 1.09555e-08 -2.13978e-08)
(-1.47078e-06 -3.03032e-08 1.53746e-10 1.4492e-07 1.03002e-08 -2.04229e-08)
(-1.63295e-06 -1.62955e-08 -3.90856e-11 -2.75839e-07 1.05942e-08 -6.30883e-08)
(-2.82849e-07 -3.22489e-08 4.79699e-10 -1.56526e-07 1.11263e-08 -6.66987e-08)
(-2.73525e-07 3.11909e-08 -1.78319e-10 -1.64993e-07 1.13684e-08 -6.79444e-08)
(-1.52026e-06 1.6119e-08 1.37889e-10 -2.97836e-07 1.13266e-08 -6.66006e-08)
(-1.6707e-06 -1.75133e-08 9.0981e-11 -2.42513e-07 1.07692e-08 -1.10557e-07)
(-2.85881e-07 -1.94017e-08 5.81827e-10 -1.80438e-07 1.09154e-08 -1.14751e-07)
(-2.76541e-07 1.80631e-08 -2.54728e-10 -1.88079e-07 1.11552e-08 -1.16604e-07)
(-1.55507e-06 1.69533e-08 2.22141e-11 -2.64355e-07 1.15027e-08 -1.15843e-07)
(-1.71726e-06 -1.04862e-08 1.87994e-10 -1.86743e-07 9.74815e-09 -1.57368e-07)
(-2.62619e-07 -1.40907e-08 6.31474e-10 -1.89575e-07 9.77214e-09 -1.61651e-07)
(-2.5301e-07 1.26325e-08 -3.2799e-10 -1.9684e-07 1.00048e-08 -1.64027e-07)
(-1.59788e-06 1.00307e-08 -8.10639e-11 -2.08359e-07 1.04658e-08 -1.64231e-07)
(-1.80138e-06 -1.09433e-09 2.36044e-10 -1.50406e-07 7.70464e-09 -1.99161e-07)
(-2.60923e-07 -8.58725e-09 6.37728e-10 -1.86041e-07 7.75764e-09 -2.0346e-07)
(-2.50765e-07 7.15062e-09 -3.74483e-10 -1.93274e-07 7.97323e-09 -2.06298e-07)
(-1.67738e-06 7.09958e-10 -1.43228e-10 -1.71827e-07 8.37275e-09 -2.07449e-07)
(-1.95679e-06 1.85766e-08 2.35539e-10 -1.82164e-07 5.00716e-09 -2.32496e-07)
(-3.16783e-07 2.32987e-09 6.08619e-10 -1.97171e-07 5.14259e-09 -2.36933e-07)
(-3.06157e-07 -4.06017e-09 -3.9641e-10 -2.04245e-07 5.32459e-09 -2.40156e-07)
(-1.82764e-06 -1.9247e-08 -1.61317e-10 -2.03083e-07 5.57862e-09 -2.41996e-07)
(-2.2229e-06 5.93093e-08 1.85238e-10 -6.35764e-07 2.18326e-09 -2.55506e-07)
(-4.71102e-07 2.16341e-08 5.47392e-10 -5.27154e-07 2.3607e-09 -2.6026e-07)
(-4.60702e-07 -2.46887e-08 -4.17363e-10 -5.30431e-07 2.48473e-09 -2.63732e-07)
(-2.09008e-06 -6.09316e-08 -1.41972e-10 -6.47909e-07 2.58961e-09 -2.65854e-07)
(-2.71449e-06 8.5471e-08 9.63471e-11 -2.80839e-06 8.50538e-10 -2.67966e-07)
(-7.00366e-07 3.81714e-08 4.79159e-10 -2.45434e-06 8.76763e-10 -2.73182e-07)
(-6.90725e-07 -3.89782e-08 -5.11949e-10 -2.42553e-06 9.17401e-10 -2.76666e-07)
(-2.58204e-06 -8.65616e-08 -1.22054e-10 -2.73293e-06 9.91778e-10 -2.78498e-07)
)
;

boundaryField
{
    interface
    {
        type            calculated;
        value           nonuniform List<symmTensor> 
192
(
(-4.60802e-06 2.26367e-12 1.97476e-11 1.16568e-06 1.458e-07 -2.78978e-06)
(-4.31821e-06 1.46767e-12 3.12902e-11 -3.52462e-07 3.47452e-09 -2.78499e-06)
(-4.40541e-06 -6.70075e-13 3.46483e-11 -3.74675e-07 -1.25804e-08 -2.83253e-06)
(-4.53719e-06 -3.38081e-12 3.51865e-11 -3.12966e-07 -3.77179e-09 -2.90198e-06)
(-4.70542e-06 -5.68177e-12 3.44854e-11 -2.98732e-07 1.02874e-08 -3.00033e-06)
(-4.93988e-06 -9.89183e-12 3.33135e-11 -3.95003e-07 3.38081e-08 -3.14454e-06)
(-5.24377e-06 -1.30072e-11 3.04838e-11 -1.02484e-06 7.45623e-08 -3.36151e-06)
(-5.73966e-06 -2.84947e-11 2.82339e-11 -3.75403e-06 1.00751e-07 -3.75315e-06)
(-3.89051e-06 1.58159e-12 9.79749e-12 5.59415e-07 -5.12539e-08 -4.22425e-07)
(-3.68986e-06 8.79684e-13 1.66576e-11 -1.85963e-07 -4.36303e-09 -6.47007e-07)
(-3.74326e-06 -1.07303e-12 1.82596e-11 -2.44613e-07 -1.68852e-09 -6.7231e-07)
(-3.8492e-06 -3.87802e-12 1.8176e-11 -2.52044e-07 1.77289e-09 -6.72642e-07)
(-4.0065e-06 -6.34815e-12 1.73822e-11 -2.63634e-07 1.99252e-08 -6.88115e-07)
(-4.24803e-06 -1.10283e-11 1.63232e-11 -3.29825e-07 4.84623e-08 -7.34158e-07)
(-4.59566e-06 -1.44976e-11 1.44964e-11 -8.3552e-07 7.24585e-08 -8.40823e-07)
(-5.24558e-06 -3.08242e-11 1.3e-11 -3.36179e-06 7.52382e-08 -1.02591e-06)
(-3.42661e-06 1.34441e-12 7.75762e-12 3.23241e-07 3.42506e-08 -3.05863e-08)
(-3.32634e-06 6.0144e-13 1.30568e-11 -2.11172e-07 5.04404e-08 -1.46264e-07)
(-3.38392e-06 -1.35433e-12 1.42692e-11 -2.12788e-07 4.12611e-08 -1.9922e-07)
(-3.48328e-06 -4.35665e-12 1.41754e-11 -2.04978e-07 3.43908e-08 -2.15696e-07)
(-3.63728e-06 -7.10372e-12 1.35342e-11 -2.06146e-07 4.15706e-08 -2.33518e-07)
(-3.88328e-06 -1.23329e-11 1.26766e-11 -2.50457e-07 5.4464e-08 -2.73676e-07)
(-4.25063e-06 -1.63351e-11 1.13222e-11 -7.22923e-07 5.3278e-08 -3.40875e-07)
(-4.94494e-06 -3.38103e-11 1.01468e-11 -3.14472e-06 3.65491e-08 -3.95318e-07)
(-3.14379e-06 1.00322e-12 4.79555e-12 2.38453e-07 6.07149e-08 1.03127e-10)
(-3.07477e-06 1.36123e-13 8.51109e-12 -2.49218e-07 7.25466e-08 -6.43935e-08)
(-3.13841e-06 -1.8313e-12 9.31488e-12 -2.21677e-07 6.5119e-08 -1.25505e-07)
(-3.23787e-06 -4.90828e-12 9.17035e-12 -1.85165e-07 5.47808e-08 -1.6612e-07)
(-3.39165e-06 -7.78902e-12 8.64919e-12 -1.6671e-07 5.03308e-08 -2.00236e-07)
(-3.63927e-06 -1.32673e-11 7.99358e-12 -2.02917e-07 4.65936e-08 -2.39956e-07)
(-4.0128e-06 -1.75116e-11 7.11091e-12 -6.71425e-07 3.206e-08 -2.79769e-07)
(-4.71723e-06 -3.5309e-11 6.37011e-12 -3.00334e-06 1.6866e-08 -2.90188e-07)
(-2.97761e-06 8.43814e-13 3.52357e-12 2.04038e-07 5.76092e-08 -7.5504e-09)
(-2.91751e-06 -1.44803e-13 6.25324e-12 -2.67624e-07 6.74265e-08 -5.61107e-08)
(-2.98453e-06 -2.17737e-12 6.84812e-12 -2.33039e-07 6.51751e-08 -1.13605e-07)
(-3.08566e-06 -5.34394e-12 6.74129e-12 -1.81245e-07 5.66185e-08 -1.64092e-07)
(-3.24051e-06 -8.35963e-12 6.35655e-12 -1.50254e-07 4.71183e-08 -2.06896e-07)
(-3.48886e-06 -1.40507e-11 5.86698e-12 -1.83857e-07 3.55834e-08 -2.44174e-07)
(-3.86306e-06 -1.85183e-11 5.24003e-12 -6.49236e-07 1.87803e-08 -2.70764e-07)
(-4.56526e-06 -3.66267e-11 4.69758e-12 -2.91285e-06 8.58621e-09 -2.74599e-07)
(-2.87979e-06 7.1787e-13 2.17007e-12 1.88078e-07 4.49076e-08 -1.41486e-08)
(-2.82295e-06 -3.69664e-13 3.96897e-12 -2.73926e-07 5.1295e-08 -5.88781e-08)
(-2.89166e-06 -2.45589e-12 4.36298e-12 -2.39135e-07 5.14083e-08 -1.11394e-07)
(-2.99429e-06 -5.67654e-12 4.28259e-12 -1.82908e-07 4.57311e-08 -1.62265e-07)
(-3.15019e-06 -8.76997e-12 4.01917e-12 -1.47199e-07 3.66729e-08 -2.06548e-07)
(-3.39868e-06 -1.45731e-11 3.68973e-12 -1.79703e-07 2.50451e-08 -2.41741e-07)
(-3.77164e-06 -1.91595e-11 3.29613e-12 -6.40119e-07 1.14853e-08 -2.64523e-07)
(-4.46943e-06 -3.74309e-11 2.9631e-12 -2.85633e-06 4.83975e-09 -2.71357e-07)
(-2.8246e-06 6.57923e-13 1.27766e-12 1.80433e-07 2.81842e-08 -1.76288e-08)
(-2.76926e-06 -4.97542e-13 2.33247e-12 -2.75562e-07 3.15185e-08 -6.17156e-08)
(-2.8388e-06 -2.63091e-12 2.5655e-12 -2.41652e-07 3.19675e-08 -1.10822e-07)
(-2.94239e-06 -5.89444e-12 2.51928e-12 -1.85307e-07 2.87968e-08 -1.59344e-07)
(-3.09895e-06 -9.04613e-12 2.36643e-12 -1.4878e-07 2.28214e-08 -2.02332e-07)
(-3.34731e-06 -1.49269e-11 2.17128e-12 -1.80748e-07 1.49922e-08 -2.36256e-07)
(-3.71885e-06 -1.95978e-11 1.94621e-12 -6.36758e-07 6.5756e-09 -2.58852e-07)
(-4.41316e-06 -3.79882e-11 1.74631e-12 -2.82347e-06 2.62938e-09 -2.69311e-07)
(-2.79955e-06 6.19368e-13 3.80642e-13 1.7731e-07 9.58045e-09 -1.90561e-08)
(-2.74486e-06 -5.69953e-13 7.18875e-13 -2.75839e-07 1.05942e-08 -6.30883e-08)
(-2.81475e-06 -2.72297e-12 7.94358e-13 -2.42513e-07 1.07692e-08 -1.10557e-07)
(-2.91878e-06 -6.00188e-12 7.77957e-13 -1.86743e-07 9.74815e-09 -1.57368e-07)
(-3.07565e-06 -9.17797e-12 7.28158e-13 -1.50406e-07 7.70464e-09 -1.99161e-07)
(-3.32387e-06 -1.50885e-11 6.64491e-13 -1.82164e-07 5.00716e-09 -2.32496e-07)
(-3.69456e-06 -1.97984e-11 5.96248e-13 -6.35764e-07 2.18326e-09 -2.55506e-07)
(-4.38707e-06 -3.82393e-11 5.32779e-13 -2.80839e-06 8.50538e-10 -2.67966e-07)
(-2.68401e-06 1.35233e-07 -2.84407e-11 1.16568e-06 -6.1886e-12 -4.79941e-06)
(-2.70413e-06 -8.68242e-09 -4.71697e-11 -3.52462e-07 -6.7248e-12 -4.49484e-06)
(-2.75403e-06 -2.3377e-08 -5.32127e-11 -3.74675e-07 -5.08655e-12 -4.5833e-06)
(-2.80952e-06 -1.30875e-08 -5.48e-11 -3.12966e-07 -3.52687e-12 -4.72226e-06)
(-2.89638e-06 -1.22885e-09 -5.49758e-11 -2.98732e-07 -2.92525e-12 -4.89628e-06)
(-3.04208e-06 1.86641e-08 -5.51483e-11 -3.95003e-07 -3.22495e-12 -5.13204e-06)
(-3.27015e-06 5.94259e-08 -5.5458e-11 -1.02484e-06 -3.98517e-12 -5.43737e-06)
(-3.65863e-06 8.51185e-08 -5.99293e-11 -3.75403e-06 -5.3944e-12 -5.94148e-06)
(-4.54944e-07 -5.65771e-08 -1.78857e-11 7.33721e-07 -3.56305e-12 -4.34251e-06)
(-7.54741e-07 -2.94463e-08 -3.32481e-11 -1.37847e-07 -4.66416e-12 -4.07008e-06)
(-7.75141e-07 -2.12488e-08 -3.77153e-11 -2.51716e-07 -3.44875e-12 -4.10542e-06)
(-7.38021e-07 -1.43391e-08 -3.86304e-11 -2.96029e-07 -1.8271e-12 -4.21262e-06)
(-7.26316e-07 -6.80906e-09 -3.87332e-11 -3.29733e-07 -8.54027e-13 -4.37233e-06)
(-7.75985e-07 4.9382e-09 -3.92158e-11 -4.07691e-07 -3.8673e-13 -4.60852e-06)
(-9.24315e-07 2.45917e-08 -4.0636e-11 -9.15802e-07 -4.80135e-13 -4.94762e-06)
(-1.14807e-06 3.92173e-08 -4.67294e-11 -3.48529e-06 -1.03738e-12 -5.60569e-06)
(-4.46433e-07 6.87952e-08 -1.85497e-11 7.19866e-07 -2.40473e-12 -4.29056e-06)
(-7.43695e-07 4.10841e-08 -3.46085e-11 -1.47267e-07 -3.3437e-12 -4.01754e-06)
(-7.64446e-07 3.05526e-08 -3.95224e-11 -2.59913e-07 -2.35205e-12 -4.05083e-06)
(-7.27516e-07 2.12481e-08 -4.05899e-11 -3.0349e-07 -7.08025e-13 -4.15677e-06)
(-7.15751e-07 1.16615e-08 -4.0613e-11 -3.36948e-07 4.91306e-13 -4.31568e-06)
(-7.65511e-07 -2.22683e-09 -4.07993e-11 -4.14783e-07 1.4674e-12 -4.55108e-06)
(-9.1464e-07 -2.49799e-08 -4.17035e-11 -9.19375e-07 2.04209e-12 -4.88955e-06)
(-1.13942e-06 -3.92752e-08 -4.73481e-11 -3.45761e-06 2.09575e-12 -5.55048e-06)
(-2.56381e-06 -1.25851e-07 -2.14634e-11 1.11324e-06 -1.86295e-12 -4.65487e-06)
(-2.57909e-06 1.3951e-08 -4.05162e-11 -3.77073e-07 -2.55684e-12 -4.35328e-06)
(-2.62701e-06 2.71872e-08 -4.66882e-11 -3.96881e-07 -1.58398e-12 -4.43626e-06)
(-2.68049e-06 1.60037e-08 -4.81308e-11 -3.33854e-07 1.18817e-13 -4.57163e-06)
(-2.7655e-06 3.30982e-09 -4.81219e-11 -3.18882e-07 1.38892e-12 -4.74331e-06)
(-2.91028e-06 -1.76688e-08 -4.82769e-11 -4.14868e-07 2.61909e-12 -4.97692e-06)
(-3.14034e-06 -6.00671e-08 -4.86066e-11 -1.03694e-06 3.575e-12 -5.28051e-06)
(-3.53375e-06 -8.58272e-08 -5.43239e-11 -3.68148e-06 4.5525e-12 -5.79314e-06)
(-4.38464e-06 5.92782e-12 7.5222e-12 1.11324e-06 1.52254e-07 -2.71478e-06)
(-4.09021e-06 5.90196e-12 1.38517e-11 -3.77073e-07 8.52411e-09 -2.7125e-06)
(-4.17276e-06 2.65109e-12 1.55587e-11 -3.96881e-07 -9.08197e-09 -2.75838e-06)
(-4.30015e-06 -1.1317e-12 1.60216e-11 -3.33854e-07 -1.21295e-09 -2.82652e-06)
(-4.46479e-06 -3.09266e-12 1.61243e-11 -3.18882e-07 1.23314e-08 -2.92391e-06)
(-4.69722e-06 -5.9605e-12 1.71858e-11 -4.14868e-07 3.55844e-08 -3.06727e-06)
(-5.00349e-06 -5.79834e-12 1.77153e-11 -1.03694e-06 7.6124e-08 -3.28393e-06)
(-5.50721e-06 -2.05499e-11 2.10119e-11 -3.68148e-06 1.01943e-07 -3.68097e-06)
(-3.66037e-06 2.30077e-12 -8.67818e-13 5.09465e-07 -3.61948e-08 -4.21818e-07)
(-3.45999e-06 2.22346e-12 7.22666e-13 -2.13466e-07 5.99618e-09 -6.49667e-07)
(-3.50891e-06 4.03245e-13 6.35815e-13 -2.67399e-07 6.02679e-09 -6.77612e-07)
(-3.60952e-06 -1.97118e-12 5.57225e-13 -2.72688e-07 7.84838e-09 -6.79379e-07)
(-3.76136e-06 -2.82197e-12 8.07667e-13 -2.83423e-07 2.49034e-08 -6.95629e-07)
(-3.99798e-06 -4.82436e-12 2.13287e-12 -3.49091e-07 5.25856e-08 -7.42335e-07)
(-4.3449e-06 -3.06757e-12 3.65728e-12 -8.46226e-07 7.55243e-08 -8.50063e-07)
(-5.00383e-06 -1.73374e-11 6.51558e-12 -3.28376e-06 7.66668e-08 -1.0368e-06)
(-3.20319e-06 1.23087e-12 4.90897e-13 2.78295e-07 4.56891e-08 -3.43184e-08)
(-3.10162e-06 8.58423e-13 2.67425e-12 -2.38439e-07 6.02339e-08 -1.54277e-07)
(-3.15428e-06 -3.73631e-13 3.27121e-12 -2.3617e-07 4.95043e-08 -2.10222e-07)
(-3.24782e-06 -2.13596e-12 3.51216e-12 -2.26162e-07 4.13838e-08 -2.28667e-07)
(-3.39535e-06 -2.38261e-12 3.81721e-12 -2.26254e-07 4.7513e-08 -2.47771e-07)
(-3.63464e-06 -3.96304e-12 4.77009e-12 -2.69742e-07 5.93781e-08 -2.88924e-07)