/*--------------------------------*- C++ -*----------------------------------*\
| =========                 |                                                 |
| \\      /  F ield         | OpenFOAM: The Open Source CFD Toolbox           |
|  \\    /   O peration     | Version:  v1912                                 |
|   \\  /    A nd           | Website:  www.openfoam.com                      |
|    \\/     M anipulation  |                                                 |
\*---------------------------------------------------------------------------*/
FoamFile
{
    version     2.0;
    format      ascii;
    class       pointVectorField;
    location    "0.5/solid";
    object      pointD;
}
// * * * * * * * * * * * * * * * * * * * * * * * * * * * * * * * * * * * * * //

dimensions      [0 1 0 0 0 0 0];


internalField   nonuniform List<vector> 
405
(
(3.3359e-08 3.16663e-08 3.44905e-08)
(5.73859e-09 2.05534e-08 3.9299e-08)
(1.36745e-10 1.67685e-08 3.7186e-08)
(-5.35528e-09 2.03369e-08 3.87603e-08)
(-3.18007e-08 3.08154e-08 3.40797e-08)
(5.53966e-08 3.9079e-08 5.9713e-08)
(1.56513e-08 3.47001e-08 8.58127e-08)
(6.90766e-10 2.88133e-08 8.15777e-08)
(-1.40201e-08 3.40383e-08 8.49283e-08)
(-5.21951e-08 3.74718e-08 5.94286e-08)
(6.18248e-08 2.39231e-08 7.22852e-08)
(2.05454e-08 2.28173e-08 9.77474e-08)
(1.59303e-09 1.97799e-08 9.33354e-08)
(-1.70859e-08 2.1709e-08 9.71786e-08)
(-5.68219e-08 2.16565e-08 7.25667e-08)
(6.32158e-08 1.28293e-08 8.04816e-08)
(2.12997e-08 1.32031e-08 1.06366e-07)
(2.61469e-09 1.1614e-08 1.01664e-07)
(-1.58062e-08 1.16784e-08 1.06011e-07)
(-5.62206e-08 9.92162e-09 8.11693e-08)
(6.45123e-08 5.0812e-09 8.77529e-08)
(2.17423e-08 5.39775e-09 1.14392e-07)
(3.74215e-09 3.91727e-09 1.09491e-07)
(-1.39967e-08 3.49207e-09 1.14198e-07)
(-5.5288e-08 1.56925e-09 8.87453e-08)
(6.78194e-08 -1.54599e-09 9.5806e-08)
(2.33871e-08 -1.94287e-09 1.23601e-07)
(4.98022e-09 -3.89074e-09 1.18598e-07)
(-1.31663e-08 -4.20678e-09 1.23534e-07)
(-5.61393e-08 -5.6307e-09 9.70377e-08)
(7.45936e-08 -1.01874e-08 1.05807e-07)
(2.71699e-08 -1.1128e-08 1.35365e-07)
(6.32863e-09 -1.32699e-08 1.30457e-07)
(-1.42646e-08 -1.37418e-08 1.35402e-07)
(-6.02715e-08 -1.48245e-08 1.07237e-07)
(8.58888e-08 -3.60053e-08 1.18297e-07)
(3.32973e-08 -3.60469e-08 1.51096e-07)
(7.75978e-09 -3.68439e-08 1.4694e-07)
(-1.75531e-08 -3.88781e-08 1.51255e-07)
(-6.88061e-08 -4.09936e-08 1.19911e-07)
(8.10125e-08 -8.21714e-08 1.13338e-07)
(3.70519e-08 -9.29608e-08 1.24167e-07)
(8.66326e-09 -9.1315e-08 1.21843e-07)
(-1.95094e-08 -9.52034e-08 1.25035e-07)
(-6.26525e-08 -8.6381e-08 1.15233e-07)
(3.56531e-08 1.79866e-08 5.39272e-09)
(0 0 0)
(0 0 0)
(0 0 0)
(-3.38239e-08 1.71371e-08 5.58833e-09)
(7.51529e-08 2.89571e-08 1.7533e-08)
(1.34537e-08 1.66132e-08 1.98295e-08)
(5.21906e-10 1.14907e-08 1.96408e-08)
(-1.21562e-08 1.58013e-08 2.02118e-08)
(-7.07535e-08 2.69016e-08 1.82684e-08)
(8.00634e-08 1.64569e-08 2.84964e-08)
(1.76211e-08 1.23095e-08 3.15331e-08)
(1.27208e-09 9.48854e-09 3.1476e-08)
(-1.47977e-08 1.10468e-08 3.2231e-08)
(-7.40705e-08 1.36904e-08 2.9843e-08)
(8.17359e-08 7.28522e-09 3.58643e-08)
(1.82177e-08 5.96847e-09 3.90438e-08)
(2.17417e-09 4.44445e-09 3.90572e-08)
(-1.35973e-08 4.32143e-09 3.99805e-08)
(-7.38943e-08 3.82644e-09 3.7679e-08)
(8.37772e-08 5.97923e-10 4.19866e-08)
(1.86215e-08 -9.19829e-10 4.51744e-08)
(3.20941e-09 -2.36125e-09 4.51965e-08)
(-1.19308e-08 -2.91817e-09 4.62914e-08)
(-7.38068e-08 -3.51612e-09 4.41583e-08)
(8.82731e-08 -5.23244e-09 4.82658e-08)
(2.02429e-08 -8.34844e-09 5.14381e-08)
(4.37414e-09 -1.02774e-08 5.14479e-08)
(-1.12206e-08 -1.06849e-08 5.26972e-08)
(-7.59191e-08 -9.96805e-09 5.07189e-08)
(9.68743e-08 -1.25752e-08 5.54428e-08)
(2.40119e-08 -1.75698e-08 5.85963e-08)
(5.66238e-09 -1.97464e-08 5.86142e-08)
(-1.24219e-08 -2.02374e-08 5.99702e-08)
(-8.19448e-08 -1.78978e-08 5.81231e-08)
(1.11352e-07 -3.5517e-08 6.28874e-08)
(3.0111e-08 -3.94016e-08 6.60718e-08)
(7.04742e-09 -4.01961e-08 6.61826e-08)
(-1.57736e-08 -4.22524e-08 6.75248e-08)
(-9.3756e-08 -4.11945e-08 6.57308e-08)
(8.64475e-08 -9.11045e-08 6.77372e-08)
(3.4022e-08 -1.24453e-07 6.87813e-08)
(8.47742e-09 -1.20993e-07 6.89163e-08)
(-1.68363e-08 -1.26005e-07 7.02469e-08)
(-6.82699e-08 -9.51814e-08 7.02911e-08)
(2.95569e-08 1.09086e-08 1.66296e-10)
(0 0 0)
(0 0 0)
(0 0 0)
(-2.77993e-08 1.01868e-08 3.64806e-10)
(6.22022e-08 1.64878e-08 4.31061e-09)
(9.59802e-09 6.86057e-09 7.49269e-09)
(3.73028e-10 2.52395e-09 8.34032e-09)
(-8.58973e-09 6.10348e-09 7.86738e-09)
(-5.80938e-08 1.46599e-08 4.99569e-09)
(6.60166e-08 7.21678e-09 1.22072e-08)
(1.26326e-08 3.90408e-09 1.63374e-08)
(9.95791e-10 1.4432e-09 1.75704e-08)
(-1.03533e-08 2.67272e-09 1.69798e-08)
(-6.0579e-08 4.62742e-09 1.34046e-08)
(6.71881e-08 4.38044e-10 1.92844e-08)
(1.29833e-08 -6.65149e-10 2.36236e-08)
(1.79125e-09 -2.08211e-09 2.50142e-08)
(-9.11971e-09 -2.28942e-09 2.44706e-08)
(-6.01086e-08 -2.8795e-09 2.08846e-08)
(6.89652e-08 -4.84522e-09 2.52259e-08)
(1.32922e-08 -6.28133e-09 2.96212e-08)
(2.73898e-09 -7.69233e-09 3.10803e-08)
(-7.53065e-09 -8.25766e-09 3.06298e-08)
(-5.99131e-08 -8.84111e-09 2.71483e-08)
(7.33625e-08 -9.48914e-09 3.07474e-08)
(1.48379e-08 -1.25749e-08 3.51663e-08)
(3.83253e-09 -1.4494e-08 3.66603e-08)
(-6.8832e-09 -1.48874e-08 3.63049e-08)
(-6.20375e-08 -1.41218e-08 3.29293e-08)
(8.21961e-08 -1.49694e-08 3.60258e-08)
(1.8584e-08 -1.99949e-08 4.04344e-08)
(5.06335e-09 -2.21642e-08 4.19513e-08)
(-8.17224e-09 -2.26321e-08 4.16731e-08)
(-6.83697e-08 -2.01936e-08 3.84098e-08)
(9.76247e-08 -3.4123e-08 3.98206e-08)
(2.47367e-08 -3.79933e-08 4.41971e-08)
(6.40339e-09 -3.8716e-08 4.57344e-08)
(-1.16662e-08 -4.07977e-08 4.54913e-08)
(-8.1195e-08 -3.9689e-08 4.23314e-08)
(7.59013e-08 -8.46465e-08 4.1865e-08)
(2.86372e-08 -1.14788e-07 4.38541e-08)
(7.79942e-09 -1.10604e-07 4.53768e-08)
(-1.27886e-08 -1.16249e-07 4.51297e-08)
(-5.89833e-08 -8.85932e-08 4.40933e-08)
(2.58499e-08 8.38951e-09 2.34365e-10)
(0 0 0)
(0 0 0)
(0 0 0)
(-2.41995e-08 7.77396e-09 3.79853e-10)
(5.43835e-08 1.13527e-08 3.24552e-09)
(7.29266e-09 3.36375e-09 5.21125e-09)
(2.66363e-10 -4.44579e-10 5.9634e-09)
(-6.50702e-09 2.67861e-09 5.48786e-09)
(-5.05886e-08 9.75079e-09 3.75608e-09)
(5.77121e-08 2.15531e-09 9.33446e-09)
(9.62013e-09 -6.34316e-10 1.19145e-08)
(7.86128e-10 -2.81359e-09 1.3003e-08)
(-7.76695e-09 -1.77908e-09 1.23979e-08)
(-5.27797e-08 -2.00844e-10 1.02404e-08)
(5.87894e-08 -4.10317e-09 1.56252e-08)
(9.85263e-09 -5.0983e-09 1.83195e-08)
(1.49009e-09 -6.41494e-09 1.95416e-08)
(-6.59538e-09 -6.63891e-09 1.89658e-08)
(-5.23873e-08 -7.20615e-09 1.6854e-08)
(6.05405e-08 -8.52255e-09 2.1185e-08)
(1.01422e-08 -9.94457e-09 2.38872e-08)
(2.36e-09 -1.13221e-08 2.51693e-08)
(-5.14041e-09 -1.18439e-08 2.46676e-08)
(-5.2309e-08 -1.23289e-08 2.26845e-08)
(6.49513e-08 -1.19474e-08 2.60151e-08)
(1.1671e-08 -1.50442e-08 2.87117e-08)
(3.38909e-09 -1.6948e-08 3.0028e-08)
(-4.60253e-09 -1.72851e-08 2.96029e-08)
(-5.45569e-08 -1.64132e-08 2.77389e-08)
(7.39201e-08 -1.58365e-08 2.99551e-08)
(1.54173e-08 -2.08866e-08 3.26403e-08)
(4.56732e-09 -2.30492e-08 3.39776e-08)
(-5.99424e-09 -2.34545e-08 3.36151e-08)
(-6.11005e-08 -2.09097e-08 3.18524e-08)
(8.96248e-08 -3.29399e-08 3.21847e-08)
(2.15679e-08 -3.68576e-08 3.48819e-08)
(5.86388e-09 -3.75966e-08 3.6235e-08)
(-9.57007e-09 -3.9592e-08 3.58981e-08)
(-7.42509e-08 -3.83616e-08 3.41851e-08)
(6.97369e-08 -8.06482e-08 3.31366e-08)
(2.54853e-08 -1.09085e-07 3.4689e-08)
(7.22224e-09 -1.04832e-07 3.60772e-08)
(-1.07837e-08 -1.10484e-07 3.56788e-08)
(-5.3926e-08 -8.44768e-08 3.48924e-08)
(2.3844e-08 7.46678e-09 5.1687e-10)
(0 0 0)
(0 0 0)
(0 0 0)
(-2.22799e-08 6.9287e-09 6.19343e-10)
(5.01254e-08 9.36961e-09 3.17278e-09)
(6.29518e-09 2.15487e-09 4.12187e-09)
(1.9793e-10 -1.36042e-09 4.56785e-09)
(-5.6631e-09 1.5306e-09 4.31993e-09)
(-4.65782e-08 7.94588e-09 3.5375e-09)
(5.3214e-08 -1.34443e-10 7.89123e-09)
(8.31231e-09 -2.68248e-09 9.14051e-09)
(6.41645e-10 -4.69519e-09 9.79456e-09)
(-6.76411e-09 -3.74102e-09 9.49161e-09)
(-4.86753e-08 -2.28353e-09 8.54758e-09)
(5.43451e-08 -6.52983e-09 1.29501e-08)
(8.52422e-09 -7.50029e-09 1.42354e-08)
(1.27254e-09 -8.74892e-09 1.49747e-08)
(-5.71513e-09 -8.94925e-09 1.47104e-08)
(-4.84728e-08 -9.42529e-09 1.38529e-08)
(5.61742e-08 -1.06465e-08 1.75918e-08)
(8.84073e-09 -1.20882e-08 1.88553e-08)
(2.07747e-09 -1.34365e-08 1.96336e-08)
(-4.41509e-09 -1.38996e-08 1.94355e-08)
(-4.8593e-08 -1.42601e-08 1.87088e-08)
(6.0638e-08 -1.33871e-08 2.15063e-08)
(1.03805e-08 -1.64982e-08 2.27526e-08)
(3.05117e-09 -1.83829e-08 2.35551e-08)
(-3.99744e-09 -1.86577e-08 2.34215e-08)
(-5.09925e-08 -1.76801e-08 2.28055e-08)
(6.96479e-08 -1.6466e-08 2.44403e-08)
(1.41167e-08 -2.15176e-08 2.56885e-08)
(4.18307e-09 -2.36719e-08 2.6509e-08)
(-5.46983e-09 -2.40107e-08 2.64243e-08)
(-5.76509e-08 -2.13858e-08 2.58819e-08)
(8.53522e-08 -3.26511e-08 2.60191e-08)
(2.02247e-08 -3.66115e-08 2.73074e-08)
(5.44033e-09 -3.73876e-08 2.81465e-08)
(-9.07909e-09 -3.92779e-08 2.80752e-08)
(-7.08503e-08 -3.79357e-08 2.75448e-08)
(6.66541e-08 -7.86437e-08 2.66402e-08)
(2.41516e-08 -1.05996e-07 2.75586e-08)
(6.76438e-09 -1.0184e-07 2.84389e-08)
(-1.03696e-08 -1.0734e-07 2.83022e-08)
(-5.17506e-08 -8.23648e-08 2.79729e-08)
(2.27703e-08 7.06613e-09 5.45618e-10)
(0 0 0)
(0 0 0)
(0 0 0)
(-2.1264e-08 6.58151e-09 6.14801e-10)
(4.78737e-08 8.54731e-09 2.7032e-09)
(5.91762e-09 1.66755e-09 3.12499e-09)
(1.54989e-10 -1.69608e-09 3.354e-09)
(-5.3855e-09 1.08919e-09 3.26148e-09)
(-4.44941e-08 7.2518e-09 2.95159e-09)
(5.08855e-08 -1.09244e-09 6.18582e-09)
(7.8289e-09 -3.54869e-09 6.73305e-09)
(5.46021e-10 -5.47336e-09 7.07355e-09)
(-6.48638e-09 -4.53837e-09 6.97699e-09)
(-4.6618e-08 -3.08269e-09 6.63753e-09)
(5.20952e-08 -7.65607e-09 9.9013e-09)
(8.05641e-09 -8.63552e-09 1.04501e-08)
(1.12273e-09 -9.84433e-09 1.08389e-08)
(-5.55924e-09 -1.00074e-08 1.07829e-08)
(-4.65952e-08 -1.03836e-08 1.05297e-08)
(5.401e-08 -1.17489e-08 1.33708e-08)
(8.40415e-09 -1.3213e-08 1.38956e-08)
(1.87713e-09 -1.4539e-08 1.43081e-08)
(-4.38991e-09 -1.4948e-08 1.43056e-08)
(-4.6895e-08 -1.52005e-08 1.41571e-08)
(5.85184e-08 -1.42659e-08 1.6278e-08)
(9.95349e-09 -1.73809e-08 1.67906e-08)
(2.80626e-09 -1.9246e-08 1.72203e-08)
(-4.06981e-09 -1.94689e-08 1.72666e-08)
(-4.942e-08 -1.8411e-08 1.72016e-08)
(6.75171e-08 -1.70802e-08 1.84055e-08)
(1.36679e-08 -2.21146e-08 1.89301e-08)
(3.89996e-09 -2.42553e-08 1.93759e-08)
(-5.5954e-09 -2.45432e-08 1.94565e-08)
(-5.61315e-08 -2.1869e-08 1.9438e-08)
(8.31322e-08 -3.28765e-08 1.96014e-08)
(1.97231e-08 -3.68491e-08 2.01692e-08)
(5.12449e-09 -3.76455e-08 2.06321e-08)
(-9.21562e-09 -3.9459e-08 2.07195e-08)
(-6.92882e-08 -3.80468e-08 2.0699e-08)
(6.51529e-08 -7.7804e-08 2.01022e-08)
(2.36414e-08 -1.04465e-07 2.06085e-08)
(6.4203e-09 -1.00401e-07 2.10973e-08)
(-1.05536e-08 -1.05761e-07 2.11398e-08)
(-5.09379e-08 -8.14362e-08 2.10595e-08)
(2.21818e-08 6.87011e-09 4.18088e-10)
(0 0 0)
(0 0 0)
(0 0 0)
(-2.07108e-08 6.41973e-09 4.60762e-10)
(4.66595e-08 8.17515e-09 1.91935e-09)
(5.76953e-09 1.44353e-09 2.10649e-09)
(1.2902e-10 -1.84255e-09 2.21672e-09)
(-5.29874e-09 8.9651e-10 2.19217e-09)
(-4.33835e-08 6.96419e-09 2.07333e-09)
(4.96584e-08 -1.48453e-09 4.21648e-09)
(7.64944e-09 -3.90923e-09 4.45307e-09)
(4.86064e-10 -5.789e-09 4.61881e-09)
(-6.43668e-09 -4.85063e-09 4.60691e-09)
(-4.5562e-08 -3.36563e-09 4.49843e-09)
(5.0928e-08 -8.1356e-09 6.63267e-09)
(7.89498e-09 -9.12848e-09 6.86313e-09)
(1.02601e-09 -1.0315e-08 7.05451e-09)
(-5.59975e-09 -1.04448e-08 7.07422e-09)
(-4.56679e-08 -1.07436e-08 7.0282e-09)
(5.29011e-08 -1.22859e-08 8.90108e-09)
(8.26244e-09 -1.37637e-08 9.11621e-09)
(1.74471e-09 -1.5074e-08 9.32171e-09)
(-4.52042e-09 -1.54423e-08 9.37775e-09)
(-4.60925e-08 -1.56191e-08 9.40012e-09)
(5.74326e-08 -1.48008e-08 1.08076e-08)
(9.81342e-09 -1.79115e-08 1.10179e-08)
(2.64139e-09 -1.976e-08 1.12353e-08)
(-4.26603e-09 -1.99463e-08 1.13232e-08)
(-4.87001e-08 -1.88361e-08 1.13982e-08)
(6.64031e-08 -1.75948e-08 1.22095e-08)
(1.35047e-08 -2.26066e-08 1.24332e-08)
(3.70667e-09 -2.4732e-08 1.2663e-08)
(-5.82439e-09 -2.49872e-08 1.27722e-08)
(-5.54324e-08 -2.2286e-08 1.28736e-08)
(8.19284e-08 -3.32377e-08 1.3043e-08)
(1.9516e-08 -3.72016e-08 1.32991e-08)
(4.90675e-09 -3.80008e-08 1.35415e-08)
(-9.44862e-09 -3.97698e-08 1.36541e-08)
(-6.85367e-08 -3.83232e-08 1.37517e-08)
(6.43665e-08 -7.75231e-08 1.34233e-08)
(2.34163e-08 -1.03745e-07 1.37004e-08)
(6.18167e-09 -9.97292e-08 1.39542e-08)
(-1.08103e-08 -1.05005e-07 1.40424e-08)
(-5.06286e-08 -8.10895e-08 1.40412e-08)
(2.18795e-08 6.77562e-09 2.21403e-10)
(0 0 0)
(0 0 0)
(0 0 0)
(-2.04275e-08 6.34418e-09 2.41754e-10)
(4.60407e-08 8.00694e-09 9.8639e-10)
(5.70509e-09 1.34264e-09 1.06098e-09)
(1.15152e-10 -1.90591e-09 1.10597e-09)
(-5.26729e-09 8.13708e-10 1.10229e-09)
(-4.28208e-08 6.8437e-09 1.06e-09)
(4.90396e-08 -1.63939e-09 2.1268e-09)
(7.57448e-09 -4.05272e-09 2.21935e-09)
(4.53265e-10 -5.91088e-09 2.28749e-09)
(-6.43286e-09 -4.96584e-09 2.2937e-09)
(-4.50368e-08 -3.45728e-09 2.2621e-09)
(5.03423e-08 -8.3244e-09 3.31347e-09)
(7.83041e-09 -9.32554e-09 3.40205e-09)
(9.7204e-10 -1.05004e-08 3.48146e-09)
(-5.64791e-09 -1.06089e-08 3.50441e-09)
(-4.52156e-08 -1.08617e-08 3.50422e-09)
(5.23454e-08 -1.25274e-08 4.42833e-09)
(8.20671e-09 -1.4011e-08 4.51025e-09)
(1.66961e-09 -1.53117e-08 4.59648e-09)
(-4.61906e-09 -1.56557e-08 4.63753e-09)
(-4.57098e-08 -1.57894e-08 4.67025e-09)
(5.68853e-08 -1.50919e-08 5.36926e-09)
(9.75552e-09 -1.81971e-08 5.45031e-09)
(2.54663e-09 -2.00343e-08 5.54279e-09)
(-4.40129e-09 -2.01995e-08 5.59937e-09)
(-4.83618e-08 -1.90604e-08 5.6569e-09)
(6.58322e-08 -1.7927e-08 6.06825e-09)
(1.34305e-08 -2.29217e-08 6.15746e-09)
(3.59447e-09 -2.50353e-08 6.25675e-09)
(-5.97771e-09 -2.5273e-08 6.32336e-09)
(-5.51011e-08 -2.25585e-08 6.39295e-09)
(8.12983e-08 -3.35175e-08 6.49978e-09)
(1.94144e-08 -3.74689e-08 6.60571e-09)
(4.77947e-09 -3.82639e-08 6.7115e-09)
(-9.6041e-09 -4.00117e-08 6.77969e-09)
(-6.81703e-08 -3.85512e-08 6.84709e-09)
(6.39546e-08 -7.74609e-08 6.70806e-09)
(2.3299e-08 -1.03435e-07 6.83561e-09)
(6.04159e-09 -9.94377e-08 6.94496e-09)
(-1.09757e-08 -1.04673e-07 7.00304e-09)
(-5.04963e-08 -8.09872e-08 7.01092e-09)
(1.73827e-08 7.13004e-09 0)
(2.03454e-09 1.96235e-09 0)
(-4.68859e-12 -5.43281e-11 0)
(-1.95467e-09 1.79781e-09 0)
(-1.63058e-08 6.66839e-09 0)
(2.85224e-08 6.19527e-09 0)
(5.68565e-09 1.31369e-09 0)
(1.10802e-10 -1.92353e-09 0)
(-5.25824e-09 7.90654e-10 0)
(-2.66046e-08 5.21646e-09 0)
(3.14739e-08 -2.07197e-09 0)
(7.55198e-09 -4.09087e-09 0)
(4.42848e-10 -5.94252e-09 0)
(-6.43298e-09 -4.99471e-09 0)
(-2.88112e-08 -3.65043e-09 0)
(3.22432e-08 -8.45006e-09 0)
(7.81098e-09 -9.37776e-09 0)
(9.54726e-10 -1.0549e-08 0)
(-5.66466e-09 -1.06501e-08 0)
(-2.85097e-08 -1.06599e-08 0)
(3.344e-08 -1.28956e-08 0)
(8.18958e-09 -1.40817e-08 0)
(1.64531e-09 -1.53792e-08 0)
(-4.65187e-09 -1.57151e-08 0)
(-2.82577e-08 -1.57379e-08 0)
(3.67157e-08 -1.60696e-08 0)
(9.73708e-09 -1.82873e-08 0)
(2.51575e-09 -2.01206e-08 0)
(-4.44576e-09 -2.02789e-08 0)
(-2.97123e-08 -1.95335e-08 0)
(4.37197e-08 -1.97748e-08 0)
(1.34063e-08 -2.3029e-08 0)
(3.55771e-09 -2.51383e-08 0)
(-6.02802e-09 -2.53705e-08 0)
(-3.45728e-08 -2.38328e-08 0)
(5.58432e-08 -3.55112e-08 0)
(1.9381e-08 -3.75655e-08 0)
(4.73762e-09 -3.83581e-08 0)
(-9.65521e-09 -4.00997e-08 0)
(-4.43343e-08 -3.99235e-08 0)
(5.45112e-08 -6.84587e-08 0)
(2.30621e-08 -7.63524e-08 0)
(5.67544e-09 -7.41151e-08 0)
(-1.1471e-08 -7.82459e-08 0)
(-4.18693e-08 -7.20858e-08 0)
)
;

boundaryField
{
    interface
    {
        type            calculated;
    }
    symmetry
    {
        type            symmetry;
    }
    bottom
    {
        type            calculated;
    }
}


// ************************************************************************* //
