/*--------------------------------*- C++ -*----------------------------------*\
| =========                 |                                                 |
| \\      /  F ield         | OpenFOAM: The Open Source CFD Toolbox           |
|  \\    /   O peration     | Version:  v1912                                 |
|   \\  /    A nd           | Website:  www.openfoam.com                      |
|    \\/     M anipulation  |                                                 |
\*---------------------------------------------------------------------------*/
FoamFile
{
    version     2.0;
    format      ascii;
    class       volScalarField;
    location    "0.5/solid";
    object      sigmaEq;
}
// * * * * * * * * * * * * * * * * * * * * * * * * * * * * * * * * * * * * * //

dimensions      [1 -1 -2 0 0 0 0];


internalField   nonuniform List<scalar> 
256
(
603062
437894
432681
580232
368778
324080
319495
350154
372976
312873
308314
354438
392084
317343
312816
373514
408564
327845
323319
389912
416180
339177
334627
397435
354404
321770
317719
337070
44246.8
360884
357982
47946.2
378196
84770.9
82548.2
354183
289592
82774.7
80644.2
267661
286410
63949.7
62228
264566
291667
45980.5
44689.6
269566
301734
38473.6
37540.8
279240
315406
39873.4
39020.2
292534
303100
21787.8
22890.1
280840
354347
322105
318098
337116
325189
47134.3
46143.1
302375
279354
50383.2
48296.4
257858
279107
38132.5
35999.6
257211
284084
23849.5
21851.7
261701
294645
18625.5
16966.3
271690
311552
22863.5
21152
288043
315093
38539
37914.7
292243
416331
339906
335449
397894
293660
41631
41014.1
272149
258968
42063.5
40572.3
238654
260171
31922
30333.4
239181
265414
21005.1
19745
243742
276298
16771.6
15869.5
253913
294010
19206.9
17776.1
270933
300893
34473.7
33994.5
278397
410321
329565
325192
392245
275471
36262.2
35515.9
254795
243927
37292
35981.7
224376
246248
29173
27807.9
225924
252166
19930.2
18832
231043
263657
16205.6
15269.9
241731
281888
18159.9
16543.1
259192
289922
34059
33601.2
267778
398970
320086
315791
381257
265086
32298.6
31345.7
244923
234646
33943.7
32583.9
215526
237689
26909.2
25484.5
217759
244242
18005.9
16685.9
223455
256277
14251.8
12869.3
234637
274880
17238.9
15239.5
252431
283542
35694.3
35205.7
261651
391065
313762
309516
373606
259342
29648.6
28516.5
239477
229378
31594.7
30132.6
210494
232821
24937.3
23370.1
213110
239797
15944.5
14301.2
219203
252184
12175.1
10242.3
230711
271018
16616
14335.9
248719
280072
37185.1
36684.3
258344
386521
309956
305739
369224
256760
28271.8
27034.2
237031
226989
30329.9
28797.1
208212
230608
23757.7
22086.1
210997
237787
14626
12736.9
217282
250339
10888.7
8525.03
228944
269279
16302.4
13889.5
247051
278528
37946.1
37445.4
256881
384491
308175
303972
367275
)
;

boundaryField
{
    interface
    {
        type            calculated;
        value           nonuniform List<scalar> 
192
(
787588
532885
541342
567577
592112
610034
563544
306727
623117
507329
508556
524059
546135
574375
578398
563637
551776
484514
489038
503616
525891
557308
574547
610626
503273
450007
456636
471344
493769
525991
546748
594840
474295
425260
433134
448413
471295
503975
525995
576678
457375
409931
418477
434288
457606
490570
513120
564305
447918
401197
410085
426246
449851
482967
505753
557067
443653
397238
406270
422599
446339
479517
502396
553772
806681
553597
562364
589195
614276
632611
588147
344851
707638
563586
557026
571607
593790
619898
619660
594236
698860
555372
548603
563065
585163
611164
611197
588054
778858
530802
539207
565721
590590
608737
565624
337586
752180
500180
508332
534231
558421
576032
530424
282231
583308
469524
470328
485115
506390
533879
538339
530492
513404
447392
451143
464808
486071
516450
533868
576628
466579
414354
419991
433623
454881
485866
506566
561196
438749
390636
397421
411516
433126
464450
486271
543383
422549
375934
383344
397908
419888
451421
473697
531243
413514
367561
375287
390169
412398
444041
466515
524153
409445
363768
371628
386662
409008
440694
463244
520929
345253
588407
633301
617173
598738
586069
578617
575214
594520
620298
621306
596999
577768
565045
557376
553777
588300
611813
612556
588363
569210
556531
548888
545301
337780
565832
609527
593763
575661
563222
555916
552586
)
;
    }
    symmetry
    {
        type            symmetry;
    }
    bottom
    {
        type            calculated;
        value           nonuniform List<scalar> 
32
(
839699
471522
384340
346406
326253
314801
308445
305584
544999
106621
50619.6
46015.7
41970.7
38633.4
36340
35156.9
539210
103606
48299.2
43961.4
39715.9
36153.6
33679.8
32392.5
813024
445421
359646
323249
304151
293369
287407
284728
)
;
    }
}


// ************************************************************************* //
