/*--------------------------------*- C++ -*----------------------------------*\
| =========                 |                                                 |
| \\      /  F ield         | OpenFOAM: The Open Source CFD Toolbox           |
|  \\    /   O peration     | Version:  v1912                                 |
|   \\  /    A nd           | Website:  www.openfoam.com                      |
|    \\/     M anipulation  |                                                 |
\*---------------------------------------------------------------------------*/
FoamFile
{
    version     2.0;
    format      ascii;
    class       volScalarField;
    location    "0.5/solid";
    object      T;
}
// * * * * * * * * * * * * * * * * * * * * * * * * * * * * * * * * * * * * * //

dimensions      [0 0 0 1 0 0 0];


internalField   nonuniform List<scalar> 
256
(
291.617
292.242
292.247
291.643
291.327
292.07
292.076
291.358
291.287
292.047
292.054
291.319
291.256
292.031
292.037
291.289
291.207
292.004
292.011
291.241
291.119
291.951
291.958
291.152
290.883
291.768
291.775
290.917
289.847
290.766
290.78
289.898
292.311
292.857
292.857
292.323
292.153
292.814
292.815
292.167
292.131
292.809
292.81
292.146
292.115
292.807
292.807
292.13
292.088
292.802
292.802
292.104
292.035
292.786
292.787
292.051
291.855
292.671
292.672
291.873
290.882
291.767
291.775
290.917
292.439
292.93
292.93
292.45
292.31
292.908
292.908
292.323
292.292
292.905
292.905
292.305
292.277
292.904
292.904
292.291
292.253
292.901
292.901
292.267
292.204
292.89
292.89
292.219
292.034
292.786
292.787
292.051
291.118
291.95
291.957
291.152
292.478
292.938
292.938
292.489
292.358
292.919
292.918
292.37
292.34
292.916
292.916
292.353
292.326
292.915
292.915
292.339
292.302
292.912
292.912
292.315
292.253
292.901
292.901
292.267
292.087
292.802
292.802
292.104
291.206
292.003
292.01
291.241
292.498
292.94
292.94
292.509
292.381
292.921
292.921
292.393
292.364
292.919
292.919
292.376
292.349
292.918
292.917
292.362
292.325
292.915
292.915
292.339
292.277
292.904
292.904
292.291
292.114
292.806
292.807
292.13
291.254
292.03
292.037
291.288
292.51
292.941
292.941
292.52
292.395
292.922
292.922
292.406
292.378
292.92
292.92
292.389
292.363
292.919
292.919
292.375
292.339
292.916
292.916
292.352
292.29
292.905
292.905
292.304
292.129
292.809
292.809
292.144
291.282
292.045
292.052
291.317
292.516
292.941
292.941
292.526
292.402
292.923
292.923
292.413
292.385
292.921
292.921
292.396
292.37
292.919
292.919
292.382
292.346
292.917
292.917
292.359
292.298
292.906
292.906
292.312
292.137
292.81
292.811
292.153
291.299
292.053
292.06
291.333
292.519
292.942
292.941
292.529
292.405
292.923
292.923
292.416
292.388
292.921
292.921
292.4
292.374
292.92
292.919
292.386
292.35
292.917
292.917
292.362
292.301
292.906
292.906
292.315
292.141
292.811
292.811
292.157
291.306
292.057
292.064
291.341
)
;

boundaryField
{
    interface
    {
        type            fixedValue;
        value           nonuniform List<scalar> 
192
(
290.145
289.947
289.883
289.81
289.7
289.517
289.157
288.168
290.937
290.819
290.77
290.711
290.62
290.463
290.133
289.155
291.223
291.125
291.081
291.026
290.938
290.786
290.462
289.514
291.363
291.271
291.229
291.174
291.088
290.936
290.616
289.695
291.443
291.354
291.312
291.258
291.171
291.021
290.704
289.801
291.491
291.403
291.361
291.307
291.221
291.071
290.757
289.867
291.518
291.431
291.389
291.335
291.249
291.1
290.788
289.905
291.53
291.443
291.402
291.348
291.262
291.113
290.802
289.923
290.067
289.872
289.807
289.733
289.622
289.439
289.075
288.083
290.728
290.602
290.551
290.491
290.4
290.243
289.907
288.907
290.755
290.631
290.581
290.523
290.432
290.275
289.94
288.945
290.162
289.973
289.912
289.841
289.732
289.55
289.189
288.211
290.273
290.084
290.023
289.953
289.845
289.664
289.304
288.331
291.052
290.938
290.892
290.836
290.748
290.594
290.266
289.304
291.334
291.24
291.199
291.147
291.063
290.914
290.594
289.664
291.472
291.383
291.344
291.292
291.209
291.062
290.747
289.845
291.549
291.463
291.424
291.374
291.291
291.145
290.834
289.951
291.596
291.511
291.472
291.422
291.339
291.194
290.887
290.017
291.622
291.538
291.5
291.449
291.367
291.223
290.917
290.055
291.634
291.551
291.512
291.461
291.38
291.236
290.931
290.073
288.082
289.073
289.435
289.617
289.724
289.79
289.829
289.847
288.906
289.906
290.24
290.396
290.484
290.538
290.569
290.584
288.945
289.939
290.273
290.428
290.517
290.571
290.602
290.616
288.211
289.188
289.549
289.73
289.837
289.903
289.942
289.96
)
;
    }
    symmetry
    {
        type            symmetry;
    }
    bottom
    {
        type            fixedValue;
        value           uniform 293;
    }
}


// ************************************************************************* //
