/*--------------------------------*- C++ -*----------------------------------*\
| =========                 |                                                 |
| \\      /  F ield         | OpenFOAM: The Open Source CFD Toolbox           |
|  \\    /   O peration     | Version:  v1912                                 |
|   \\  /    A nd           | Website:  www.openfoam.com                      |
|    \\/     M anipulation  |                                                 |
\*---------------------------------------------------------------------------*/
FoamFile
{
    version     2.0;
    format      ascii;
    class       volVectorField;
    location    "0.5/solid";
    object      U;
}
// * * * * * * * * * * * * * * * * * * * * * * * * * * * * * * * * * * * * * //

dimensions      [0 1 -1 0 0 0 0];


internalField   nonuniform List<vector> 
256
(
(3.25491e-08 3.19395e-08 3.69904e-08)
(6.94259e-09 1.82588e-08 3.29783e-08)
(-8.02277e-09 1.77913e-08 3.24567e-08)
(-3.19752e-08 3.01336e-08 3.53399e-08)
(5.66864e-08 2.3034e-08 8.11853e-08)
(1.40224e-08 1.25763e-08 7.55266e-08)
(-1.61641e-08 1.23397e-08 7.45212e-08)
(-5.65882e-08 2.24413e-08 7.8036e-08)
(6.03444e-08 -5.19804e-10 1.11145e-07)
(1.49805e-08 -4.86806e-09 1.04938e-07)
(-1.83398e-08 -4.70276e-09 1.03674e-07)
(-6.14485e-08 2.18567e-10 1.07201e-07)
(5.84519e-08 -2.55122e-08 1.36823e-07)
(1.34351e-08 -2.79429e-08 1.296e-07)
(-1.85032e-08 -2.73788e-08 1.28154e-07)
(-6.12463e-08 -2.36163e-08 1.32322e-07)
(5.8188e-08 -5.2205e-08 1.62839e-07)
(1.23203e-08 -5.62228e-08 1.54172e-07)
(-1.96137e-08 -5.52901e-08 1.52572e-07)
(-6.31705e-08 -4.92566e-08 1.57869e-07)
(6.48601e-08 -8.42732e-08 1.9218e-07)
(1.39043e-08 -9.0726e-08 1.82025e-07)
(-2.39571e-08 -8.94402e-08 1.80275e-07)
(-7.25581e-08 -8.03122e-08 1.86766e-07)
(8.3717e-08 -1.32465e-07 2.26437e-07)
(1.96194e-08 -1.36452e-07 2.15975e-07)
(-3.30646e-08 -1.34784e-07 2.14061e-07)
(-9.46535e-08 -1.27393e-07 2.20555e-07)
(1.09606e-07 -2.09747e-07 2.57623e-07)
(2.58665e-08 -2.01264e-07 2.4944e-07)
(-4.35367e-08 -1.98948e-07 2.47351e-07)
(-1.24291e-07 -2.02689e-07 2.5128e-07)
(1.82004e-08 1.0177e-08 1.33634e-08)
(3.60235e-09 -1.23331e-11 1.57924e-08)
(-4.02838e-09 -1.80377e-10 1.5577e-08)
(-1.72535e-08 9.08685e-09 1.27157e-08)
(3.2708e-08 -2.73649e-09 4.32564e-08)
(7.77724e-09 -1.0715e-08 4.80127e-08)
(-8.44551e-09 -1.07275e-08 4.74288e-08)
(-3.15829e-08 -2.86596e-09 4.15458e-08)
(3.43726e-08 -2.32409e-08 7.06552e-08)
(8.14547e-09 -2.65955e-08 7.60834e-08)
(-9.47959e-09 -2.63106e-08 7.52589e-08)
(-3.39505e-08 -2.22997e-08 6.82334e-08)
(3.20523e-08 -4.60523e-08 9.53744e-08)
(6.67185e-09 -4.80813e-08 1.0067e-07)
(-9.29802e-09 -4.74559e-08 9.96775e-08)
(-3.2929e-08 -4.40856e-08 9.24381e-08)
(3.12413e-08 -7.11225e-08 1.19615e-07)
(5.60747e-09 -7.49417e-08 1.24471e-07)
(-1.01186e-08 -7.39772e-08 1.23336e-07)
(-3.39744e-08 -6.81674e-08 1.16237e-07)
(3.72022e-08 -9.96396e-08 1.4469e-07)
(7.15264e-09 -1.06119e-07 1.49091e-07)
(-1.4127e-08 -1.04823e-07 1.47818e-07)
(-4.23489e-08 -9.57205e-08 1.4089e-07)
(5.59719e-08 -1.37601e-07 1.68283e-07)
(1.2908e-08 -1.41467e-07 1.72516e-07)
(-2.3003e-08 -1.39833e-07 1.71115e-07)
(-6.40626e-08 -1.3267e-07 1.64089e-07)
(8.33931e-08 -1.95673e-07 1.80336e-07)
(1.92925e-08 -1.84904e-07 1.84675e-07)
(-3.33617e-08 -1.82728e-07 1.83211e-07)
(-9.49303e-08 -1.88988e-07 1.75932e-07)
(8.15854e-09 2.3021e-09 6.66827e-09)
(6.88611e-10 -4.8136e-09 1.01957e-08)
(-8.46708e-10 -4.94096e-09 1.00462e-08)
(-7.01897e-09 1.23678e-09 6.24309e-09)
(1.50118e-08 -1.54814e-08 2.79053e-08)
(2.03243e-09 -2.11157e-08 3.44498e-08)
(-1.93447e-09 -2.10958e-08 3.40382e-08)
(-1.32484e-08 -1.56483e-08 2.67421e-08)
(1.50895e-08 -3.67358e-08 5.14205e-08)
(1.76597e-09 -3.92054e-08 5.88166e-08)
(-1.88594e-09 -3.89222e-08 5.82067e-08)
(-1.36054e-08 -3.59124e-08 4.96775e-08)
(1.27566e-08 -5.81941e-08 7.42274e-08)
(3.79415e-10 -6.00702e-08 8.16658e-08)
(-1.40516e-09 -5.94772e-08 8.09035e-08)
(-1.21998e-08 -5.64086e-08 7.20203e-08)
(1.19808e-08 -8.00577e-08 9.59299e-08)
(-5.82624e-10 -8.39555e-08 1.03188e-07)
(-1.99906e-09 -8.30454e-08 1.02294e-07)
(-1.29555e-08 -7.73278e-08 9.33167e-08)
(1.79011e-08 -1.02644e-07 1.15739e-07)
(9.75821e-10 -1.09256e-07 1.22806e-07)
(-5.738e-09 -1.08036e-07 1.21793e-07)
(-2.09976e-08 -9.89945e-08 1.12752e-07)
(3.66888e-08 -1.3117e-07 1.30041e-07)
(6.72878e-09 -1.35183e-07 1.36972e-07)
(-1.43647e-08 -1.33652e-07 1.35865e-07)
(-4.24585e-08 -1.26566e-07 1.26747e-07)
(6.40225e-08 -1.78552e-07 1.32135e-07)
(1.31305e-08 -1.68062e-07 1.39025e-07)
(-2.45153e-08 -1.66013e-07 1.37897e-07)
(-7.29822e-08 -1.72226e-07 1.28735e-07)
(4.05424e-09 -4.31059e-10 5.56872e-09)
(-4.88374e-10 -5.72875e-09 7.868e-09)
(4.49095e-10 -5.87198e-09 7.75596e-09)
(-2.79296e-09 -1.58487e-09 5.2576e-09)
(7.51756e-09 -2.03285e-08 2.20381e-08)
(-4.51683e-10 -2.45736e-08 2.62668e-08)
(9.62026e-10 -2.45975e-08 2.59682e-08)
(-5.346e-09 -2.06852e-08 2.12074e-08)
(6.99589e-09 -4.24869e-08 4.10831e-08)
(-9.64075e-10 -4.44781e-08 4.58058e-08)
(1.58268e-09 -4.4256e-08 4.53574e-08)
(-4.78801e-09 -4.19016e-08 3.98165e-08)
(5.04208e-09 -6.3035e-08 6.02584e-08)
(-2.14202e-09 -6.49312e-08 6.49275e-08)
(2.17398e-09 -6.44132e-08 6.43541e-08)
(-3.45025e-09 -6.15184e-08 5.86124e-08)
(4.78512e-09 -8.20092e-08 7.80429e-08)
(-2.84916e-09 -8.60691e-08 8.25123e-08)
(1.61546e-09 -8.52457e-08 8.18281e-08)
(-4.43657e-09 -7.95711e-08 7.60541e-08)
(1.1079e-08 -1.00042e-07 9.26538e-08)
(-1.14291e-09 -1.06816e-07 9.69429e-08)
(-2.01612e-09 -1.05693e-07 9.61612e-08)
(-1.2591e-08 -9.67029e-08 9.03575e-08)
(2.97592e-08 -1.23408e-07 1.01115e-07)
(4.56301e-09 -1.27817e-07 1.05321e-07)
(-1.03744e-08 -1.26388e-07 1.04469e-07)
(-3.37081e-08 -1.19121e-07 9.85825e-08)
(5.63328e-08 -1.66595e-07 1.00255e-07)
(1.08506e-08 -1.57488e-07 1.04626e-07)
(-2.02152e-08 -1.55534e-07 1.03765e-07)
(-6.32575e-08 -1.60553e-07 9.76515e-08)
(2.85779e-09 -1.37845e-09 4.89166e-09)
(-6.91549e-10 -5.84856e-09 6.02696e-09)
(7.14836e-10 -6.00957e-09 5.94619e-09)
(-1.51885e-09 -2.6065e-09 4.67031e-09)
(5.45733e-09 -2.15894e-08 1.76668e-08)
(-9.16427e-10 -2.52515e-08 1.968e-08)
(1.66956e-09 -2.53272e-08 1.94681e-08)
(-3.02698e-09 -2.21269e-08 1.70836e-08)
(5.01751e-09 -4.37549e-08 3.22e-08)
(-1.36706e-09 -4.56228e-08 3.43577e-08)
(2.4537e-09 -4.54707e-08 3.40383e-08)
(-2.33231e-09 -4.34036e-08 3.1306e-08)
(3.56127e-09 -6.34593e-08 4.69096e-08)
(-2.29506e-09 -6.54845e-08 4.8929e-08)
(3.03672e-09 -6.50458e-08 4.85154e-08)
(-1.25573e-09 -6.22018e-08 4.57308e-08)
(3.87361e-09 -8.05239e-08 6.02396e-08)
(-2.73134e-09 -8.47606e-08 6.20542e-08)
(2.44151e-09 -8.40221e-08 6.15549e-08)
(-2.57882e-09 -7.83569e-08 5.87955e-08)
(1.05285e-08 -9.6092e-08 7.04475e-08)
(-8.66165e-10 -1.03011e-07 7.2108e-08)
(-1.13591e-09 -1.01975e-07 7.15338e-08)
(-1.08783e-08 -9.30266e-08 6.8766e-08)
(2.90111e-08 -1.17339e-07 7.55746e-08)
(4.77966e-09 -1.22098e-07 7.721e-08)
(-9.24723e-09 -1.20754e-07 7.65838e-08)
(-3.16026e-08 -1.13311e-07 7.37145e-08)
(5.48614e-08 -1.58853e-07 7.43326e-08)
(1.095e-08 -1.50951e-07 7.6184e-08)
(-1.8809e-08 -1.49072e-07 7.55519e-08)
(-6.0255e-08 -1.53031e-07 7.24213e-08)
(2.62283e-09 -1.6641e-09 3.82631e-09)
(-6.10901e-10 -5.80343e-09 4.3224e-09)
(6.69105e-10 -5.97726e-09 4.2683e-09)
(-1.23572e-09 -2.94308e-09 3.67926e-09)
(5.25084e-09 -2.14801e-08 1.30342e-08)
(-7.33737e-10 -2.49764e-08 1.38417e-08)
(1.63323e-09 -2.50923e-08 1.37004e-08)
(-2.65913e-09 -2.21508e-08 1.26483e-08)
(5.11962e-09 -4.31246e-08 2.32131e-08)
(-1.02188e-09 -4.50435e-08 2.39948e-08)
(2.40341e-09 -4.4948e-08 2.37814e-08)
(-2.12907e-09 -4.29548e-08 2.26201e-08)
(4.09622e-09 -6.20643e-08 3.34112e-08)
(-1.73598e-09 -6.42433e-08 3.40459e-08)
(2.9417e-09 -6.38694e-08 3.37678e-08)
(-1.31978e-09 -6.10119e-08 3.26233e-08)
(4.83376e-09 -7.806e-08 4.24768e-08)
(-1.96669e-09 -8.24427e-08 4.29504e-08)
(2.31322e-09 -8.17723e-08 4.26122e-08)
(-2.89718e-09 -7.6106e-08 4.1503e-08)
(1.17195e-08 -9.25715e-08 4.91467e-08)
(1.20254e-11 -9.95864e-08 4.95169e-08)
(-1.21554e-09 -9.86178e-08 4.9126e-08)
(-1.12642e-08 -8.97158e-08 4.80053e-08)
(3.00118e-08 -1.13115e-07 5.22589e-08)
(5.60955e-09 -1.18082e-07 5.26371e-08)
(-9.13405e-09 -1.168e-07 5.22098e-08)
(-3.16494e-08 -1.09281e-07 5.09917e-08)
(5.53326e-08 -1.53833e-07 5.12894e-08)
(1.16964e-08 -1.46678e-07 5.18373e-08)
(-1.84883e-08 -1.44853e-07 5.14062e-08)
(-5.96403e-08 -1.48175e-07 4.99864e-08)
(2.60881e-09 -1.70752e-09 2.42404e-09)
(-5.19239e-10 -5.71903e-09 2.62504e-09)
(5.96089e-10 -5.90099e-09 2.59405e-09)
(-1.19381e-09 -3.01818e-09 2.34013e-09)
(5.40354e-09 -2.10309e-08 7.99232e-09)
(-5.12725e-10 -2.45102e-08 8.28101e-09)
(1.49563e-09 -2.4652e-08 8.20014e-09)
(-2.71751e-09 -2.17861e-08 7.77254e-09)
(5.53687e-09 -4.21116e-08 1.40051e-08)
(-6.65403e-10 -4.41157e-08 1.42365e-08)
(2.22022e-09 -4.4058e-08 1.41142e-08)
(-2.36474e-09 -4.20606e-08 1.36668e-08)
(4.80579e-09 -6.0485e-08 1.99548e-08)
(-1.23561e-09 -6.27845e-08 2.00839e-08)
(2.72074e-09 -6.24545e-08 1.9924e-08)
(-1.74386e-09 -5.95695e-08 1.95034e-08)
(5.80199e-09 -7.59429e-08 2.51731e-08)
(-1.33884e-09 -8.04224e-08 2.52046e-08)
(2.07659e-09 -7.9798e-08 2.50092e-08)
(-3.46912e-09 -7.41318e-08 2.46122e-08)
(1.28105e-08 -9.00756e-08 2.89362e-08)
(7.06692e-10 -9.71407e-08 2.89125e-08)
(-1.41091e-09 -9.62173e-08 2.86859e-08)
(-1.18504e-08 -8.73598e-08 2.82758e-08)
(3.09671e-08 -1.10433e-07 3.06365e-08)
(6.274e-09 -1.15496e-07 3.06281e-08)
(-9.2015e-09 -1.14256e-07 3.03799e-08)
(-3.20002e-08 -1.06729e-07 2.99013e-08)
(5.59496e-08 -1.50747e-07 3.00522e-08)
(1.2309e-08 -1.43978e-07 3.01447e-08)
(-1.84201e-08 -1.42188e-07 2.98943e-08)
(-5.95644e-08 -1.45198e-07 2.92958e-08)
(2.61829e-09 -1.69263e-09 8.28562e-10)
(-4.73569e-10 -5.65861e-09 8.82981e-10)
(5.58495e-10 -5.84451e-09 8.72892e-10)
(-1.19048e-09 -3.01848e-09 8.01276e-10)
(5.5081e-09 -2.07135e-08 2.69207e-09)
(-3.99505e-10 -2.42034e-08 2.76283e-09)
(1.42026e-09 -2.43577e-08 2.73652e-09)
(-2.77845e-09 -2.15095e-08 2.6207e-09)
(5.77675e-09 -4.14603e-08 4.67919e-09)
(-4.83232e-10 -4.35175e-08 4.72548e-09)
(2.11822e-09 -4.34783e-08 4.68567e-09)
(-2.51984e-09 -4.14674e-08 4.56927e-09)
(5.18733e-09 -5.95385e-08 6.63065e-09)
(-9.83674e-10 -6.19011e-08 6.6412e-09)
(2.59995e-09 -6.15929e-08 6.58903e-09)
(-1.99066e-09 -5.86909e-08 6.48371e-09)
(6.30254e-09 -7.47744e-08 8.3305e-09)
(-1.02741e-09 -7.93006e-08 8.30891e-09)
(1.95104e-09 -7.86992e-08 8.24505e-09)
(-3.78068e-09 -7.30347e-08 8.14747e-09)
(1.33628e-08 -8.87962e-08 9.54645e-09)
(1.0485e-09 -9.58812e-08 9.50795e-09)
(-1.51307e-09 -9.49804e-08 9.43373e-09)
(-1.21599e-08 -8.61502e-08 9.33046e-09)
(3.1451e-08 -1.09121e-07 1.00896e-08)
(6.60181e-09 -1.14217e-07 1.00578e-08)
(-9.24056e-09 -1.12998e-07 9.97643e-09)
(-3.21912e-08 -1.0548e-07 9.84873e-09)
(5.62686e-08 -1.49263e-07 9.89576e-09)
(1.26118e-08 -1.4265e-07 9.89701e-09)
(-1.8392e-08 -1.40878e-07 9.81492e-09)
(-5.95463e-08 -1.43767e-07 9.64789e-09)
)
;

boundaryField
{
    interface
    {
        type            calculated;
        value           nonuniform List<vector> 
192
(
(3.48645e-08 5.42484e-08 3.28771e-08)
(5.80189e-08 2.99827e-08 7.41366e-08)
(6.18073e-08 -7.85656e-11 1.03523e-07)
(6.03079e-08 -2.60514e-08 1.29227e-07)
(6.00261e-08 -5.06031e-08 1.55302e-07)
(6.57406e-08 -7.78911e-08 1.84653e-07)
(8.30709e-08 -1.21278e-07 2.18932e-07)
(1.14174e-07 -2.02531e-07 2.5025e-07)
(1.45431e-08 2.29041e-08 7.26597e-09)
(2.84142e-08 1.30644e-09 3.2838e-08)
(2.98004e-08 -2.34049e-08 5.93416e-08)
(2.73149e-08 -4.68353e-08 8.39508e-08)
(2.60252e-08 -6.98352e-08 1.08063e-07)
(3.07156e-08 -9.34571e-08 1.3295e-07)
(4.80118e-08 -1.26053e-07 1.56526e-07)
(8.2822e-08 -1.88328e-07 1.6894e-07)
(3.42235e-09 8.09467e-09 3.13188e-09)
(1.07427e-08 -1.37487e-08 2.16079e-08)
(1.0709e-08 -3.72997e-08 4.45765e-08)
(8.23605e-09 -5.89715e-08 6.7475e-08)
(7.14069e-09 -7.87717e-08 8.9316e-08)
(1.22195e-08 -9.64674e-08 1.09208e-07)
(3.02802e-08 -1.1964e-07 1.23488e-07)
(6.5089e-08 -1.71189e-07 1.2537e-07)
(-1.04453e-09 2.46187e-09 4.24364e-09)
(3.42564e-09 -1.95932e-08 1.96497e-08)
(2.94033e-09 -4.31059e-08 3.85652e-08)
(9.39852e-10 -6.35878e-08 5.79597e-08)
(5.26374e-10 -8.05001e-08 7.60162e-08)
(6.28791e-09 -9.37982e-08 9.08108e-08)
(2.47095e-08 -1.12095e-07 9.91959e-08)
(5.85381e-08 -1.59256e-07 9.79646e-08)
(-2.47547e-09 7.00312e-10 4.53389e-09)
(1.25222e-09 -2.10496e-08 1.71002e-08)
(9.34666e-10 -4.4229e-08 3.1731e-08)
(-4.76696e-10 -6.37454e-08 4.66732e-08)
(-1.94047e-10 -7.87822e-08 6.02518e-08)
(6.11597e-09 -8.98078e-08 7.06077e-08)
(2.45821e-08 -1.06256e-07 7.56378e-08)
(5.74208e-08 -1.51553e-07 7.40825e-08)
(-2.79087e-09 3.043e-10 3.76412e-09)
(9.74812e-10 -2.0856e-08 1.30208e-08)
(1.01575e-09 -4.34134e-08 2.3343e-08)
(1.0825e-10 -6.2136e-08 3.37224e-08)
(9.06162e-10 -7.61543e-08 4.2959e-08)
(7.55827e-09 -8.62772e-08 4.97172e-08)
(2.59559e-08 -1.02211e-07 5.2748e-08)
(5.80415e-08 -1.46585e-07 5.15614e-08)
(-2.80521e-09 2.95553e-10 2.42294e-09)
(1.1199e-09 -2.0299e-08 8.05668e-09)
(1.45411e-09 -4.22612e-08 1.41694e-08)
(8.84921e-10 -6.04189e-08 2.02276e-08)
(1.99727e-09 -7.39418e-08 2.55403e-08)
(8.83352e-09 -8.37845e-08 2.9347e-08)
(2.71552e-08 -9.96487e-08 3.09963e-08)
(5.87538e-08 -1.43548e-07 3.02862e-08)
(-2.78086e-09 3.38956e-10 8.30942e-10)
(1.23475e-09 -1.9924e-08 2.71822e-09)
(1.71776e-09 -4.15407e-08 4.73917e-09)
(1.31239e-09 -5.94072e-08 6.72605e-09)
(2.56992e-09 -7.27307e-08 8.45564e-09)
(9.48507e-09 -8.25092e-08 9.68454e-09)
(2.77628e-08 -9.83945e-08 1.02105e-08)
(5.91237e-08 -1.42093e-07 9.97552e-09)
(3.36022e-08 6.14835e-08 3.46583e-08)
(5.87954e-08 4.15728e-08 7.72774e-08)
(6.26031e-08 1.33897e-08 1.07363e-07)
(6.04436e-08 -1.25886e-08 1.33591e-07)
(5.97896e-08 -3.83657e-08 1.59665e-07)
(6.60843e-08 -6.83737e-08 1.87843e-07)
(8.48537e-08 -1.16104e-07 2.19945e-07)
(1.11247e-07 -2.01696e-07 2.5535e-07)
(5.80862e-09 4.53851e-08 2.64923e-08)
(1.23556e-08 3.05664e-08 6.65647e-08)
(1.3112e-08 8.65053e-09 9.51028e-08)
(1.12673e-08 -1.56343e-08 1.19432e-07)
(9.75286e-09 -4.31165e-08 1.4326e-07)
(1.09275e-08 -7.52751e-08 1.69153e-07)
(1.65249e-08 -1.19598e-07 2.00556e-07)
(2.32981e-08 -1.92835e-07 2.40998e-07)
(-7.43301e-09 4.45359e-08 2.52223e-08)
(-1.55377e-08 3.01441e-08 6.49566e-08)
(-1.7775e-08 8.70561e-09 9.32145e-08)
(-1.78237e-08 -1.51542e-08 1.17324e-07)
(-1.86903e-08 -4.22597e-08 1.40965e-07)
(-2.27726e-08 -7.40678e-08 1.6668e-07)
(-3.19202e-08 -1.18015e-07 1.97886e-07)
(-4.30772e-08 -1.90554e-07 2.38063e-07)
(-3.34692e-08 5.84776e-08 3.06662e-08)
(-5.95863e-08 4.04067e-08 7.21017e-08)
(-6.48577e-08 1.37902e-08 1.01297e-07)
(-6.45784e-08 -1.09492e-08 1.26859e-07)
(-6.62724e-08 -3.56455e-08 1.52382e-07)
(-7.54308e-08 -6.46405e-08 1.80047e-07)
(-9.75883e-08 -1.11264e-07 2.11634e-07)
(-1.27875e-07 -1.94731e-07 2.46464e-07)
(-2.87223e-08 5.22744e-08 3.0912e-08)
(-5.23282e-08 2.98097e-08 7.02849e-08)
(-5.71902e-08 1.38335e-09 9.86211e-08)
(-5.72172e-08 -2.31855e-08 1.23576e-07)
(-5.89586e-08 -4.64284e-08 1.49018e-07)
(-6.71975e-08 -7.24411e-08 1.77776e-07)
(-8.74221e-08 -1.14459e-07 2.1144e-07)
(-1.21325e-07 -1.93432e-07 2.42147e-07)
(-8.68092e-09 2.12959e-08 6.47646e-09)
(-2.24893e-08 1.30842e-09 3.07104e-08)
(-2.45012e-08 -2.19629e-08 5.62721e-08)
(-2.31864e-08 -4.40794e-08 8.0176e-08)
(-2.36079e-08 -6.58121e-08 1.03683e-07)
(-3.054e-08 -8.81981e-08 1.27999e-07)
(-5.04655e-08 -1.19524e-07 1.5104e-07)
(-8.77149e-08 -1.79741e-07 1.63105e-07)
(2.39458e-09 6.30363e-09 2.6277e-09)
(-4.4316e-09 -1.40016e-08 2.01824e-08)
(-4.61345e-09 -3.61744e-08 4.23864e-08)
(-2.94828e-09 -5.65709e-08 6.46502e-08)
(-3.23585e-09 -7.51281e-08 8.59318e-08)
(-1.02502e-08 -9.16184e-08 1.05312e-07)
(-3.06563e-08 -1.13569e-07 1.19158e-07)
(-6.76731e-08 -1.63086e-07 1.20817e-07)
(6.87916e-09 4.49873e-10 3.88238e-09)
(3.17977e-09 -2.01863e-08 1.86517e-08)
(3.75528e-09 -4.23754e-08 3.69979e-08)
(5.25531e-09 -6.1606e-08 5.58761e-08)
(4.57998e-09 -7.72856e-08 7.34596e-08)
(-2.83956e-09 -8.93846e-08 8.78274e-08)
(-2.3351e-08 -1.06454e-07 9.58684e-08)
(-5.91842e-08 -1.51538e-07 9.44695e-08)
(8.32837e-09 -1.47004e-09 4.28085e-09)
(5.54336e-09 -2.19234e-08 1.64116e-08)
(6.16427e-09 -4.38462e-08 3.0641e-08)
(7.31027e-09 -6.214e-08 4.5198e-08)
(6.17667e-09 -7.59509e-08 5.84104e-08)
(-1.56327e-09 -8.57701e-08 6.84341e-08)
(-2.191e-08 -1.00967e-07 7.31997e-08)
(-5.65833e-08 -1.44139e-07 7.15168e-08)
(8.66021e-09 -1.96937e-09 3.5979e-09)
(5.9421e-09 -2.19274e-08 1.25708e-08)
(6.34566e-09 -4.32895e-08 2.26281e-08)
(7.15345e-09 -6.08196e-08 3.27451e-08)
(5.67953e-09 -7.36195e-08 4.17255e-08)
(-2.23144e-09 -8.25272e-08 4.82482e-08)
(-2.23527e-08 -9.71867e-08 5.1091e-08)
(-5.61438e-08 -1.39397e-07 4.98137e-08)
(8.6859e-09 -2.04035e-09 2.32876e-09)
(5.87024e-09 -2.14933e-08 7.80227e-09)
(6.06685e-09 -4.23039e-08 1.37644e-08)
(6.6408e-09 -5.92932e-08 1.96711e-08)
(4.96584e-09 -7.16048e-08 2.4833e-08)
(-3.01632e-09 -8.02265e-08 2.84997e-08)
(-2.29572e-08 -9.47998e-08 3.00367e-08)
(-5.61748e-08 -1.3651e-07 2.92722e-08)
(8.66603e-09 -2.02624e-09 8.00424e-10)
(5.7896e-09 -2.1177e-08 2.63591e-09)
(5.87868e-09 -4.16642e-08 4.60802e-09)
(6.3393e-09 -5.83754e-08 6.54538e-09)
(4.57457e-09 -7.0492e-08 8.22534e-09)
(-3.43052e-09 -7.9047e-08 9.40782e-09)
(-2.32755e-08 -9.36333e-08 9.89648e-09)
(-5.62124e-08 -1.35129e-07 9.64336e-09)
(1.11093e-07 -2.07566e-07 2.5813e-07)
(8.43733e-08 -1.89329e-07 1.72537e-07)
(6.50812e-08 -1.74471e-07 1.24866e-07)
(5.77254e-08 -1.63905e-07 9.533e-08)
(5.65355e-08 -1.5655e-07 7.11419e-08)
(5.71674e-08 -1.51641e-07 4.9263e-08)
(5.78564e-08 -1.48614e-07 2.89097e-08)
(5.82002e-08 -1.47164e-07 9.52466e-09)
(2.31666e-08 -1.9291e-07 2.49565e-07)
(1.60559e-08 -1.69633e-07 1.76375e-07)
(9.99538e-09 -1.55447e-07 1.32171e-07)
(8.08489e-09 -1.47022e-07 1.00348e-07)
(8.5042e-09 -1.41497e-07 7.34817e-08)
(9.45092e-09 -1.3773e-07 5.0094e-08)
(1.01687e-08 -1.35295e-07 2.91377e-08)
(1.0515e-08 -1.34087e-07 9.56509e-09)
(-4.31808e-08 -1.89733e-07 2.47493e-07)
(-3.23411e-08 -1.66675e-07 1.74978e-07)
(-2.3475e-08 -1.52634e-07 1.31098e-07)
(-1.94496e-08 -1.44315e-07 9.95294e-08)
(-1.82897e-08 -1.38866e-07 7.28815e-08)
(-1.81149e-08 -1.35154e-07 4.96853e-08)
(-1.8116e-08 -1.32755e-07 2.89007e-08)
(-1.81136e-08 -1.31564e-07 9.48744e-09)
(-1.27984e-07 -1.97922e-07 2.51834e-07)
(-9.79894e-08 -1.80138e-07 1.68317e-07)
(-7.6e-08 -1.65641e-07 1.21627e-07)
(-6.65112e-08 -1.55365e-07 9.28529e-08)
(-6.37121e-08 -1.48228e-07 6.93268e-08)
(-6.31997e-08 -1.43475e-07 4.8028e-08)
(-6.3157e-08 -1.40549e-07 2.81938e-08)
(-6.31443e-08 -1.39149e-07 9.29024e-09)
)
;
    }
    symmetry
    {
        type            symmetry;
    }
    bottom
    {
        type            calculated;
        value           uniform (0 0 0);
    }
}


// ************************************************************************* //
