/*--------------------------------*- C++ -*----------------------------------*\
| =========                 |                                                 |
| \\      /  F ield         | OpenFOAM: The Open Source CFD Toolbox           |
|  \\    /   O peration     | Version:  v1912                                 |
|   \\  /    A nd           | Website:  www.openfoam.com                      |
|    \\/     M anipulation  |                                                 |
\*---------------------------------------------------------------------------*/
FoamFile
{
    version     2.0;
    format      ascii;
    class       volVectorField;
    location    "0.15/solid";
    object      D;
}
// * * * * * * * * * * * * * * * * * * * * * * * * * * * * * * * * * * * * * //

dimensions      [0 1 0 0 0 0 0];


internalField   nonuniform List<vector> 
256
(
(3.74034e-09 1.71556e-08 3.07695e-09)
(-1.17761e-09 1.12254e-08 4.64609e-09)
(1.85835e-09 1.115e-08 4.79737e-09)
(-3.20764e-09 1.68118e-08 3.6398e-09)
(5.27001e-09 1.72168e-08 6.86294e-10)
(-4.70859e-10 1.43743e-08 2.65718e-09)
(2.611e-09 1.40352e-08 3.04821e-09)
(-3.3277e-09 1.6002e-08 1.99171e-09)
(5.9797e-09 1.89742e-08 -4.20148e-09)
(3.75124e-10 1.77604e-08 -2.38394e-09)
(3.51999e-09 1.71484e-08 -1.82181e-09)
(-2.29153e-09 1.69662e-08 -2.38845e-09)
(7.06507e-09 2.29378e-08 -9.74046e-09)
(1.3549e-09 2.23741e-08 -7.77804e-09)
(4.62184e-09 2.15099e-08 -7.09132e-09)
(-1.30113e-09 2.02146e-08 -7.55448e-09)
(8.16916e-09 2.85229e-08 -1.56984e-08)
(2.39073e-09 2.85493e-08 -1.33021e-08)
(5.98759e-09 2.74497e-08 -1.25181e-08)
(-4.58243e-12 2.51344e-08 -1.32194e-08)
(7.9937e-09 3.59131e-08 -2.24026e-08)
(2.93403e-09 3.65263e-08 -1.94484e-08)
(8.16071e-09 3.5198e-08 -1.8582e-08)
(2.87751e-09 3.18825e-08 -1.96791e-08)
(4.72427e-09 4.56733e-08 -3.02694e-08)
(2.46312e-09 4.55338e-08 -2.69101e-08)
(1.16669e-08 4.3986e-08 -2.59649e-08)
(9.10549e-09 4.10136e-08 -2.73258e-08)
(-9.09506e-10 4.59055e-08 -3.76187e-08)
(1.96371e-09 4.20199e-08 -3.4399e-08)
(1.54931e-08 4.03515e-08 -3.3378e-08)
(1.78641e-08 4.08043e-08 -3.44842e-08)
(7.23444e-09 1.18778e-08 -3.41877e-09)
(-3.74882e-10 5.57123e-09 -3.91658e-09)
(7.34912e-10 5.45367e-09 -3.75851e-09)
(-6.8671e-09 1.14599e-08 -2.94612e-09)
(1.07902e-08 1.63629e-08 -7.196e-09)
(8.77349e-10 1.31664e-08 -8.11903e-09)
(5.17429e-10 1.27648e-08 -7.73729e-09)
(-9.38525e-09 1.50527e-08 -6.07821e-09)
(1.15816e-08 2.06814e-08 -1.17458e-08)
(1.71075e-09 1.93375e-08 -1.27789e-08)
(1.123e-09 1.86772e-08 -1.22419e-08)
(-8.74221e-09 1.86121e-08 -1.01731e-08)
(1.24765e-08 2.57629e-08 -1.71237e-08)
(2.54801e-09 2.5147e-08 -1.80638e-08)
(2.11707e-09 2.42514e-08 -1.74126e-08)
(-7.80609e-09 2.30106e-08 -1.52081e-08)
(1.35696e-08 3.16612e-08 -2.30302e-08)
(3.48536e-09 3.16255e-08 -2.37858e-08)
(3.37921e-09 3.05073e-08 -2.30431e-08)
(-6.69456e-09 2.82667e-08 -2.08373e-08)
(1.36266e-08 3.84334e-08 -2.9304e-08)
(4.0131e-09 3.8988e-08 -2.9881e-08)
(5.40179e-09 3.7652e-08 -2.90603e-08)
(-4.20713e-09 3.44178e-08 -2.68757e-08)
(1.07685e-08 4.56133e-08 -3.50715e-08)
(3.59753e-09 4.5434e-08 -3.55619e-08)
(8.71484e-09 4.38972e-08 -3.46775e-08)
(1.46697e-09 4.1007e-08 -3.24503e-08)
(5.43929e-09 4.0821e-08 -3.73855e-08)
(3.16962e-09 3.67775e-08 -3.79041e-08)
(1.236e-08 3.51656e-08 -3.69913e-08)
(9.78536e-09 3.58617e-08 -3.46703e-08)
(8.90868e-09 1.06319e-08 -2.20881e-09)
(3.23932e-10 4.19752e-09 -3.04716e-09)
(-1.37071e-10 4.08904e-09 -2.93043e-09)
(-8.69141e-09 1.02977e-08 -1.87457e-09)
(1.41635e-08 1.55448e-08 -6.02336e-09)
(2.13529e-09 1.20864e-08 -7.41731e-09)
(-1.22925e-09 1.17014e-08 -7.12691e-09)
(-1.31967e-08 1.43517e-08 -5.19626e-09)
(1.52518e-08 2.06664e-08 -1.01559e-08)
(3.01439e-09 1.92208e-08 -1.16368e-08)
(-9.42114e-10 1.85833e-08 -1.12199e-08)
(-1.31132e-08 1.87226e-08 -8.95862e-09)
(1.59829e-08 2.61853e-08 -1.48755e-08)
(3.73084e-09 2.55941e-08 -1.62807e-08)
(-5.74187e-11 2.47263e-08 -1.5766e-08)
(-1.22383e-08 2.35607e-08 -1.33835e-08)
(1.69331e-08 3.18049e-08 -1.99343e-08)
(4.56843e-09 3.18192e-08 -2.12279e-08)
(1.11271e-09 3.07329e-08 -2.06322e-08)
(-1.11712e-08 2.85387e-08 -1.81959e-08)
(1.69969e-08 3.73019e-08 -2.47263e-08)
(5.07649e-09 3.78854e-08 -2.59349e-08)
(2.99605e-09 3.65868e-08 -2.52713e-08)
(-8.84722e-09 3.34199e-08 -2.278e-08)
(1.43495e-08 4.21126e-08 -2.79523e-08)
(4.72688e-09 4.20005e-08 -2.9134e-08)
(6.11156e-09 4.05102e-08 -2.84214e-08)
(-3.51768e-09 3.76543e-08 -2.58497e-08)
(9.4515e-09 3.52671e-08 -2.76395e-08)
(4.37254e-09 3.1596e-08 -2.88801e-08)
(9.57292e-09 3.00399e-08 -2.81568e-08)
(4.25081e-09 3.04639e-08 -2.54849e-08)
(9.11803e-09 1.03291e-08 -1.64054e-09)
(5.23149e-10 3.91098e-09 -2.12264e-09)
(-4.25609e-10 3.81822e-09 -2.04026e-09)
(-9.01912e-09 1.00813e-08 -1.40602e-09)
(1.49221e-08 1.50083e-08 -5.06273e-09)
(2.51895e-09 1.14592e-08 -5.84398e-09)
(-1.91538e-09 1.11132e-08 -5.63454e-09)
(-1.42855e-08 1.39689e-08 -4.46856e-09)
(1.62035e-08 1.99774e-08 -8.67187e-09)
(3.40851e-09 1.85063e-08 -9.47686e-09)
(-1.85276e-09 1.79171e-08 -9.17066e-09)
(-1.45997e-08 1.82072e-08 -7.79458e-09)
(1.68313e-08 2.52387e-08 -1.25505e-08)
(4.03093e-09 2.47022e-08 -1.32833e-08)
(-1.06892e-09 2.38852e-08 -1.28986e-08)
(-1.38103e-08 2.27884e-08 -1.14361e-08)
(1.75875e-08 3.02337e-08 -1.64523e-08)
(4.75651e-09 3.03252e-08 -1.70884e-08)
(4.40238e-11 2.92901e-08 -1.66368e-08)
(-1.27153e-08 2.71362e-08 -1.51332e-08)
(1.75176e-08 3.46561e-08 -1.97194e-08)
(5.19788e-09 3.53029e-08 -2.02765e-08)
(1.85061e-09 3.4056e-08 -1.97692e-08)
(-1.03995e-08 3.0938e-08 -1.82274e-08)
(1.49405e-08 3.82529e-08 -2.13106e-08)
(4.86623e-09 3.82763e-08 -2.18386e-08)
(4.82726e-09 3.68377e-08 -2.12935e-08)
(-5.26093e-09 3.39536e-08 -1.96939e-08)
(1.03512e-08 3.10453e-08 -2.02454e-08)
(4.54722e-09 2.7877e-08 -2.08518e-08)
(8.14956e-09 2.63685e-08 -2.03022e-08)
(2.09396e-09 2.6384e-08 -1.8595e-08)
(8.87792e-09 1.0101e-08 -1.30725e-09)
(4.8498e-10 3.77137e-09 -1.49957e-09)
(-4.37075e-10 3.69201e-09 -1.4427e-09)
(-8.85889e-09 9.91896e-09 -1.14653e-09)
(1.46043e-08 1.44866e-08 -4.12029e-09)
(2.42281e-09 1.09682e-08 -4.38497e-09)
(-2.00822e-09 1.06587e-08 -4.23861e-09)
(-1.41934e-08 1.35776e-08 -3.70723e-09)
(1.58863e-08 1.90498e-08 -7.03779e-09)
(3.26237e-09 1.76147e-08 -7.26624e-09)
(-2.05123e-09 1.70728e-08 -7.04953e-09)
(-1.46572e-08 1.74367e-08 -6.41931e-09)
(1.64256e-08 2.38022e-08 -1.0006e-08)
(3.80576e-09 2.33317e-08 -1.01639e-08)
(-1.34061e-09 2.25653e-08 -9.88805e-09)
(-1.39265e-08 2.15147e-08 -9.20881e-09)
(1.70214e-08 2.81694e-08 -1.27825e-08)
(4.43492e-09 2.83366e-08 -1.28593e-08)
(-2.69813e-10 2.7352e-08 -1.25318e-08)
(-1.28071e-08 2.52307e-08 -1.18266e-08)
(1.68187e-08 3.19258e-08 -1.48581e-08)
(4.80423e-09 3.26403e-08 -1.48666e-08)
(1.48775e-09 3.14425e-08 -1.44958e-08)
(-1.04782e-08 2.83587e-08 -1.37668e-08)
(1.42614e-08 3.50556e-08 -1.55727e-08)
(4.46353e-09 3.5207e-08 -1.55546e-08)
(4.36914e-09 3.38147e-08 -1.51553e-08)
(-5.46275e-09 3.0897e-08 -1.43849e-08)
(9.84876e-09 2.7902e-08 -1.44717e-08)
(4.14825e-09 2.51286e-08 -1.4518e-08)
(7.5969e-09 2.36611e-08 -1.41171e-08)
(1.62483e-09 2.33648e-08 -1.32612e-08)
(8.62488e-09 9.88744e-09 -9.7987e-10)
(4.09743e-10 3.65142e-09 -1.03917e-09)
(-3.90018e-10 3.58191e-09 -1.00203e-09)
(-8.65547e-09 9.75083e-09 -8.75952e-10)
(1.41356e-08 1.39739e-08 -3.05609e-09)
(2.23583e-09 1.05281e-08 -3.09182e-09)
(-1.93748e-09 1.02461e-08 -2.99551e-09)
(-1.38681e-08 1.31599e-08 -2.78635e-09)
(1.5329e-08 1.81411e-08 -5.17031e-09)
(3.00449e-09 1.67652e-08 -5.1491e-09)
(-2.01525e-09 1.62605e-08 -5.00529e-09)
(-1.43452e-08 1.66476e-08 -4.76227e-09)
(1.57832e-08 2.24262e-08 -7.23494e-09)
(3.48202e-09 2.20176e-08 -7.15337e-09)
(-1.34825e-09 2.12918e-08 -6.96861e-09)
(-1.36353e-08 2.02663e-08 -6.7033e-09)
(1.62684e-08 2.6325e-08 -9.05274e-09)
(4.04083e-09 2.65529e-08 -8.91142e-09)
(-3.11165e-10 2.56091e-08 -8.69019e-09)
(-1.25072e-08 2.35126e-08 -8.4088e-09)
(1.59762e-08 2.97165e-08 -1.02917e-08)
(4.35543e-09 3.04843e-08 -1.01021e-08)
(1.40728e-09 2.93258e-08 -9.85011e-09)
(-1.01815e-08 2.62697e-08 -9.55084e-09)
(1.34255e-08 3.26822e-08 -1.05775e-08)
(3.99943e-09 3.29221e-08 -1.03699e-08)
(4.2214e-09 3.15665e-08 -1.00978e-08)
(-5.25432e-09 2.86354e-08 -9.76752e-09)
(9.11119e-09 2.56082e-08 -9.69264e-09)
(3.67572e-09 2.30817e-08 -9.52775e-09)
(7.38472e-09 2.16469e-08 -9.25535e-09)
(1.66227e-09 2.11708e-08 -8.86797e-09)
(8.46134e-09 9.72698e-09 -6.11157e-10)
(3.5873e-10 3.55787e-09 -6.25207e-10)
(-3.54089e-10 3.49474e-09 -6.04247e-10)
(-8.52025e-09 9.61858e-09 -5.53015e-10)
(1.38097e-08 1.35675e-08 -1.87984e-09)
(2.10255e-09 1.0185e-08 -1.85848e-09)
(-1.87069e-09 9.92094e-09 -1.80387e-09)
(-1.36257e-08 1.28141e-08 -1.72789e-09)
(1.49188e-08 1.74398e-08 -3.15042e-09)
(2.81511e-09 1.61153e-08 -3.08481e-09)
(-1.95718e-09 1.56352e-08 -3.00279e-09)
(-1.40812e-08 1.60246e-08 -2.91895e-09)
(1.53066e-08 2.14024e-08 -4.35813e-09)
(3.24569e-09 2.10401e-08 -4.25244e-09)
(-1.31319e-09 2.03417e-08 -4.14642e-09)
(-1.33728e-08 1.9328e-08 -4.0543e-09)
(1.57235e-08 2.50121e-08 -5.37904e-09)
(3.75945e-09 2.52809e-08 -5.23735e-09)
(-2.99865e-10 2.43649e-08 -5.10967e-09)
(-1.22439e-08 2.22856e-08 -5.00845e-09)
(1.53805e-08 2.82148e-08 -6.03131e-09)
(4.03953e-09 2.90166e-08 -5.86207e-09)
(1.38944e-09 2.78851e-08 -5.71597e-09)
(-9.93005e-09 2.48506e-08 -5.60249e-09)
(1.28336e-08 3.11175e-08 -6.12644e-09)
(3.67111e-09 3.14074e-08 -5.94782e-09)
(4.15894e-09 3.00773e-08 -5.78974e-09)
(-5.06312e-09 2.7148e-08 -5.65603e-09)
(8.57469e-09 2.40924e-08 -5.56293e-09)
(3.33881e-09 2.1698e-08 -5.40794e-09)
(7.27997e-09 2.02861e-08 -5.25004e-09)
(1.7474e-09 1.97247e-08 -5.08433e-09)
(8.38602e-09 9.64258e-09 -2.07919e-10)
(3.35819e-10 3.50655e-09 -2.10049e-10)
(-3.37682e-10 3.44653e-09 -2.0328e-10)
(-8.45777e-09 9.54766e-09 -1.89228e-10)
(1.36572e-08 1.3346e-08 -6.34291e-10)
(2.04065e-09 9.99733e-09 -6.22171e-10)
(-1.83889e-09 9.74209e-09 -6.04491e-10)
(-1.35115e-08 1.26218e-08 -5.85267e-10)
(1.47215e-08 1.7063e-08 -1.05713e-09)
(2.72463e-09 1.57667e-08 -1.029e-09)
(-1.92752e-09 1.52987e-08 -1.00236e-09)
(-1.39519e-08 1.56863e-08 -9.82182e-10)
(1.50741e-08 2.08654e-08 -1.45366e-09)
(3.13122e-09 2.05274e-08 -1.41161e-09)
(-1.29351e-09 1.98427e-08 -1.37708e-09)
(-1.32413e-08 1.88337e-08 -1.35491e-09)
(1.54583e-08 2.43403e-08 -1.78222e-09)
(3.62302e-09 2.46295e-08 -1.7282e-09)
(-2.9234e-10 2.37275e-08 -1.68648e-09)
(-1.21132e-08 2.1657e-08 -1.66133e-09)
(1.50925e-08 2.74617e-08 -1.98526e-09)
(3.88655e-09 2.82795e-08 -1.9224e-09)
(1.38142e-09 2.71617e-08 -1.87455e-09)
(-9.80825e-09 2.41393e-08 -1.84496e-09)
(1.25479e-08 3.03402e-08 -2.00538e-09)
(3.51152e-09 3.06517e-08 -1.93971e-09)
(4.1284e-09 2.93345e-08 -1.88789e-09)
(-4.9723e-09 2.641e-08 -1.85119e-09)
(8.31489e-09 2.33372e-08 -1.81255e-09)
(3.17454e-09 2.09985e-08 -1.7544e-09)
(7.22794e-09 1.95983e-08 -1.70269e-09)
(1.78621e-09 1.90054e-08 -1.65573e-09)
)
;

boundaryField
{
    interface
    {
        type            solidTraction;
        traction        nonuniform List<vector> 
192
(
(73.8306 -0.152693 -4.89639)
(75.6994 0.101304 -6.52015)
(76.3383 0.449914 -6.63757)
(76.9057 0.808124 -6.52537)
(76.5812 1.1494 -6.27914)
(77.3629 1.83983 -5.96908)
(74.8133 2.28345 -5.32909)
(78.3091 4.78443 -4.77945)
(70.8523 -0.0423854 -2.58743)
(71.8105 0.216142 -3.55698)
(72.1816 0.561114 -3.58923)
(72.6791 0.958958 -3.47715)
(72.2644 1.34446 -3.28213)
(73.2256 2.13596 -3.04558)
(70.5663 2.63071 -2.63667)
(74.8264 5.33709 -2.28901)
(74.4365 -0.0275508 -2.1322)
(75.3657 0.262989 -2.90802)
(75.7262 0.649436 -2.93309)
(76.2224 1.10383 -2.83987)
(75.6361 1.55234 -2.67936)
(76.5049 2.45527 -2.47929)
(73.238 3.03987 -2.15725)
(77.3983 5.98307 -1.85917)
(74.085 0.0129223 -1.38908)
(74.8194 0.32483 -1.93124)
(75.0778 0.731971 -1.94149)
(75.5371 1.21763 -1.86582)
(74.8798 1.70081 -1.74498)
(75.7829 2.65825 -1.59745)
(72.3877 3.28099 -1.38299)
(76.7293 6.30632 -1.18567)
(75.0586 0.0265898 -1.03636)
(75.7638 0.360235 -1.43587)
(75.9843 0.792587 -1.44389)
(76.4222 1.30663 -1.38716)
(75.6875 1.82127 -1.29712)
(76.5401 2.82239 -1.18528)
(72.9299 3.48118 -1.02988)
(77.2112 6.57354 -0.880362)
(75.1202 0.0405133 -0.668786)
(75.7727 0.389343 -0.934269)
(75.9522 0.838297 -0.938491)
(76.3704 1.37045 -0.89894)
(75.5984 1.90496 -0.838043)
(76.4447 2.93138 -0.762801)
(72.7562 3.61051 -0.663037)
(77.07 6.74035 -0.566745)
(75.382 0.0468727 -0.390147)
(76.0248 0.406278 -0.544769)
(76.1877 0.867338 -0.547483)
(76.5952 1.41175 -0.524287)
(75.7952 1.95968 -0.489016)
(76.6217 3.00225 -0.444565)
(72.8611 3.69511 -0.38768)
(77.1576 6.84937 -0.330328)
(75.4237 0.0509179 -0.12601)
(76.0535 0.415241 -0.176923)
(76.206 0.881849 -0.177726)
(76.607 1.43177 -0.169876)
(75.7984 1.98617 -0.158311)
(76.618 3.0357 -0.143452)
(72.8385 3.73551 -0.12536)
(77.1278 6.90084 -0.106173)
(7.82347 0.596983 31.096)
(10.6116 0.514949 26.2339)
(10.8911 0.31341 24.8987)
(10.8382 0.268927 25.1527)
(10.6839 0.265009 26.3795)
(10.5233 0.338246 28.5646)
(10.2444 0.368372 31.811)
(10.3397 0.528482 35.2075)
(6.21345 0.2378 42.1448)
(8.77775 0.221811 41.2756)
(8.99259 0.114675 41.0766)
(8.93457 0.0666472 41.2041)
(8.83796 0.0321472 41.6064)
(8.76276 0.0290257 42.3013)
(8.66476 0.0238943 43.17)
(8.91917 0.0648189 44.0208)
(6.54921 0.106624 37.8197)
(9.22027 0.0779421 37.2392)
(9.46483 -0.0117794 37.0796)
(9.4021 -0.08686 37.1946)
(9.2803 -0.15897 37.6462)
(9.15449 -0.228719 38.295)
(8.98073 -0.28398 39.3304)
(9.13384 -0.305544 40.3857)
(7.59882 0.0384163 38.9954)
(10.6049 -0.0134254 38.6869)
(10.8921 -0.108197 38.5771)
(10.8187 -0.206631 38.6048)
(10.644 -0.3014 38.9018)
(10.4522 -0.417062 39.1627)
(10.1115 -0.504871 39.8045)
(10.1966 -0.63491 40.3061)
(-12.5283 0.594898 4.07052)
(-7.30249 0.220648 5.59056)
(-5.92001 -0.368299 5.68222)
(-5.56274 -0.81811 5.59112)
(-6.62404 -1.19385 5.41442)
(-6.47189 -1.85212 5.2612)
(-10.1088 -2.06139 4.83073)
(-0.147972 -4.76671 4.79449)
(-26.9739 0.120171 1.55036)
(-25.94 -0.147749 2.37529)
(-25.6167 -0.536688 2.37102)
(-25.109 -0.928266 2.28644)
(-25.3627 -1.25436 2.18669)
(-23.3984 -1.92393 2.13644)
(-24.8881 -1.936 1.97381)
(-10.0177 -4.80584 2.10152)
(-26.209 0.024832 1.64322)
(-25.3487 -0.257834 2.39329)
(-24.9661 -0.628642 2.42225)
(-24.3089 -1.03808 2.35479)
(-24.4245 -1.38082 2.25493)
(-21.9574 -2.10878 2.16292)
(-23.2804 -2.09679 1.97777)
(-6.22448 -5.23804 1.91196)
(-29.0401 -0.0335023 1.08516)
(-28.4786 -0.332053 1.63558)
(-28.1677 -0.700277 1.65546)
(-27.3909 -1.11552 1.6012)
(-27.2769 -1.4579 1.52401)
(-24.1994 -2.20135 1.45105)
(-25.034 -2.14337 1.32668)
(-6.076 -5.39617 1.28283)
(-29.231 -0.0448865 0.873056)
(-28.6754 -0.362257 1.28525)
(-28.3228 -0.746003 1.30444)
(-27.4479 -1.1766 1.26464)
(-27.2226 -1.53144 1.20449)
(-23.8623 -2.29547 1.1392)
(-24.5603 -2.22741 1.0387)
(-4.56821 -5.57566 0.975903)
(-29.8718 -0.0520578 0.57944)
(-29.3379 -0.382877 0.856904)
(-28.962 -0.779073 0.869788)
(-28.0168 -1.22053 0.841999)
(-27.6919 -1.58381 0.800687)
(-24.1024 -2.3581 0.754513)
(-24.6394 -2.27991 0.688992)
(-3.86055 -5.68536 0.645562)
(-30.0222 -0.0540058 0.344395)
(-29.4796 -0.3938 0.50592)
(-29.0757 -0.799263 0.513901)
(-28.0829 -1.24865 0.497724)
(-27.6992 -1.61886 0.473826)
(-23.9873 -2.40035 0.445324)
(-24.4523 -2.3183 0.407623)
(-3.22987 -5.76086 0.377855)
(-30.1479 -0.0555542 0.112586)
(-29.6063 -0.399493 0.16589)
(-29.19 -0.809304 0.168464)
(-28.1756 -1.26224 0.162919)
(-27.7584 -1.63613 0.155069)
(-23.9889 -2.42002 0.145202)
(-24.4009 -2.33685 0.133449)
(-2.96722 -5.79694 0.122706)
(10.3481 -35.065 -0.506728)
(10.2591 -31.5781 -0.347867)
(10.5472 -28.1717 -0.311154)
(10.7227 -25.7375 -0.219529)
(10.8968 -24.0449 -0.179689)
(11.01 -22.7812 -0.119413)
(11.0879 -22.0244 -0.0737187)
(11.1255 -21.6477 -0.0244212)
(8.9232 -43.884 -0.0385996)
(8.67159 -42.9586 0.000758199)
(8.77262 -41.9684 0.0024268)
(8.85017 -41.1179 0.0123997)
(8.94193 -40.4916 0.00501891)
(9.00397 -39.9875 0.00630147)
(9.04891 -39.6787 0.00318642)
(9.07102 -39.5069 0.00164182)
(9.13651 -40.2463 0.334698)
(8.98466 -39.109 0.311931)
(9.16053 -37.9451 0.264067)
(9.28904 -37.1279 0.205379)
(9.41032 -36.4467 0.153765)
(9.49236 -35.9651 0.106232)
(9.54875 -35.651 0.0617115)
(9.57575 -35.5003 0.0202116)
(10.1934 -40.1697 0.665418)
(10.1092 -39.5857 0.534599)
(10.4525 -38.8279 0.453855)
(10.6509 -38.42 0.346618)
(10.834 -37.9481 0.266883)
(10.954 -37.6618 0.183701)
(11.0351 -37.446 0.109304)
(11.0742 -37.34 0.0362852)
)
;
        pressure        uniform 0;
        secondOrder     false;
        setEffectiveTraction false;
        relaxationFactor 1;
        value           nonuniform List<vector> 
192
(
(6.51001e-08 1.94081e-08 3.97816e-09)
(6.44883e-08 1.77766e-08 2.19525e-09)
(6.61673e-08 1.9423e-08 -2.63975e-09)
(6.85882e-08 2.34853e-08 -8.26637e-09)
(7.16488e-08 2.87552e-08 -1.43002e-08)
(7.47389e-08 3.50522e-08 -2.10198e-08)
(7.65032e-08 4.34478e-08 -2.88169e-08)
(7.2268e-08 4.46773e-08 -3.60413e-08)
(6.45413e-08 1.6384e-08 -2.12712e-09)
(6.65282e-08 1.74497e-08 -4.97321e-09)
(6.80877e-08 2.11031e-08 -9.42834e-09)
(7.02894e-08 2.626e-08 -1.48948e-08)
(7.34637e-08 3.1949e-08 -2.08398e-08)
(7.70982e-08 3.77335e-08 -2.70537e-08)
(7.99634e-08 4.35669e-08 -3.26657e-08)
(7.722e-08 3.97208e-08 -3.47956e-08)
(6.03764e-08 1.64e-08 -1.73828e-09)
(6.45618e-08 1.71306e-08 -4.99086e-09)
(6.64194e-08 2.11213e-08 -9.00089e-09)
(6.8393e-08 2.66058e-08 -1.37873e-08)
(7.13399e-08 3.20587e-08 -1.89303e-08)
(7.48703e-08 3.66564e-08 -2.3754e-08)
(7.78351e-08 4.02267e-08 -2.69096e-08)
(7.62073e-08 3.42487e-08 -2.64118e-08)
(5.71619e-08 1.63391e-08 -1.64846e-09)
(6.20042e-08 1.67797e-08 -4.95285e-09)
(6.40807e-08 2.04548e-08 -8.51354e-09)
(6.59305e-08 2.55849e-08 -1.24401e-08)
(6.86343e-08 3.04055e-08 -1.64305e-08)
(7.19508e-08 3.39947e-08 -1.97642e-08)
(7.48798e-08 3.64619e-08 -2.13328e-08)
(7.38728e-08 3.00461e-08 -2.01463e-08)
(5.50134e-08 1.59716e-08 -1.43071e-09)
(5.98175e-08 1.62387e-08 -4.31715e-09)
(6.1905e-08 1.95052e-08 -7.25666e-09)
(6.36569e-08 2.40862e-08 -1.02682e-08)
(6.61735e-08 2.8268e-08 -1.31125e-08)
(6.93096e-08 3.12362e-08 -1.52436e-08)
(7.21875e-08 3.33137e-08 -1.59516e-08)
(7.15065e-08 2.6896e-08 -1.47819e-08)
(5.36565e-08 1.55776e-08 -1.08413e-09)
(5.82689e-08 1.565e-08 -3.2549e-09)
(6.02698e-08 1.85531e-08 -5.41235e-09)
(6.19299e-08 2.26612e-08 -7.51485e-09)
(6.43197e-08 2.63735e-08 -9.37736e-09)
(6.7338e-08 2.90062e-08 -1.06514e-08)
(7.01766e-08 3.09665e-08 -1.09346e-08)
(6.96687e-08 2.45939e-08 -1.00113e-08)
(5.28729e-08 1.52947e-08 -6.70937e-10)
(5.73372e-08 1.5182e-08 -1.99955e-09)
(5.9253e-08 1.78141e-08 -3.30239e-09)
(6.08418e-08 2.16038e-08 -4.5355e-09)
(6.3154e-08 2.50308e-08 -5.58164e-09)
(6.61052e-08 2.74928e-08 -6.2523e-09)
(6.89202e-08 2.94167e-08 -6.34591e-09)
(6.85051e-08 2.30745e-08 -5.76206e-09)
(5.25166e-08 1.51534e-08 -2.26769e-10)
(5.691e-08 1.49299e-08 -6.72461e-10)
(5.87802e-08 1.74173e-08 -1.10649e-09)
(6.03313e-08 2.10499e-08 -1.51182e-09)
(6.26065e-08 2.43452e-08 -1.84854e-09)
(6.55276e-08 2.67346e-08 -2.05728e-09)
(6.8332e-08 2.86463e-08 -2.07684e-09)
(6.79586e-08 2.23187e-08 -1.87751e-09)
(3.68333e-09 1.80965e-08 6.93214e-08)
(5.01002e-09 1.53973e-08 6.4875e-08)
(5.65502e-09 1.63676e-08 6.09232e-08)
(6.82041e-09 2.00636e-08 5.66536e-08)
(8.0709e-09 2.53574e-08 5.25909e-08)
(8.04258e-09 3.22704e-08 4.91569e-08)
(4.83952e-09 4.18693e-08 4.65037e-08)
(-8.91589e-10 4.43032e-08 4.10769e-08)
(-7.46447e-10 1.30513e-08 6.88529e-08)
(1.21086e-10 1.26169e-08 6.54123e-08)
(9.7154e-10 1.51516e-08 6.11443e-08)
(2.01868e-09 1.96446e-08 5.70474e-08)
(3.18729e-09 2.56317e-08 5.36351e-08)
(3.89064e-09 3.31243e-08 5.11882e-08)
(3.54069e-09 4.17962e-08 4.97004e-08)
(3.02538e-09 4.03974e-08 4.48735e-08)
(1.60789e-09 1.31114e-08 6.85519e-08)
(2.44617e-09 1.23805e-08 6.53038e-08)
(3.52043e-09 1.46135e-08 6.11927e-08)
(4.67929e-09 1.88358e-08 5.72169e-08)
(6.00981e-09 2.4577e-08 5.39017e-08)
(8.10455e-09 3.18362e-08 5.15394e-08)
(1.15645e-08 4.02869e-08 5.01389e-08)
(1.54733e-08 3.87447e-08 4.54632e-08)
(-2.9814e-09 1.82197e-08 6.86724e-08)
(-2.6673e-09 1.4495e-08 6.48838e-08)
(-1.40224e-09 1.45797e-08 6.14137e-08)
(-3.68333e-10 1.75068e-08 5.75093e-08)
(8.7959e-10 2.21032e-08 5.37373e-08)
(3.69546e-09 2.83559e-08 5.05465e-08)
(9.92771e-09 3.73123e-08 4.81147e-08)
(1.88446e-08 3.92419e-08 4.30222e-08)
(-6.40856e-08 1.84458e-08 4.66849e-09)
(-6.20226e-08 1.5773e-08 3.83725e-09)
(-6.19359e-08 1.64595e-08 -3.30178e-10)
(-6.22611e-08 1.96427e-08 -5.4609e-09)
(-6.29073e-08 2.40895e-08 -1.11039e-08)
(-6.33077e-08 2.96047e-08 -1.74981e-08)
(-6.22532e-08 3.72667e-08 -2.50043e-08)
(-5.55141e-08 3.79581e-08 -3.19735e-08)
(-6.31994e-08 1.5523e-08 -1.5749e-09)
(-6.41025e-08 1.55214e-08 -3.61055e-09)
(-6.41956e-08 1.82172e-08 -7.46728e-09)
(-6.45288e-08 2.24986e-08 -1.24734e-08)
(-6.54603e-08 2.73668e-08 -1.80453e-08)
(-6.65329e-08 3.23771e-08 -2.39442e-08)
(-6.66788e-08 3.75085e-08 -2.92941e-08)
(-6.15769e-08 3.32027e-08 -3.12666e-08)
(-5.91609e-08 1.57698e-08 -1.33628e-09)
(-6.25255e-08 1.54571e-08 -3.97078e-09)
(-6.3171e-08 1.84828e-08 -7.49384e-09)
(-6.34954e-08 2.3075e-08 -1.18821e-08)
(-6.43809e-08 2.76907e-08 -1.66903e-08)
(-6.54969e-08 3.15062e-08 -2.12315e-08)
(-6.58592e-08 3.43794e-08 -2.41674e-08)
(-6.19505e-08 2.79428e-08 -2.35618e-08)
(-5.61195e-08 1.59075e-08 -1.36396e-09)
(-6.03405e-08 1.5364e-08 -4.21912e-09)
(-6.14027e-08 1.80883e-08 -7.4083e-09)
(-6.17885e-08 2.23171e-08 -1.10138e-08)
(-6.25949e-08 2.62833e-08 -1.47239e-08)
(-6.36363e-08 2.9074e-08 -1.78194e-08)
(-6.4075e-08 3.08298e-08 -1.92074e-08)
(-6.086e-08 2.39326e-08 -1.79383e-08)
(-5.41067e-08 1.5682e-08 -1.23729e-09)
(-5.84294e-08 1.50271e-08 -3.81138e-09)
(-5.9648e-08 1.73699e-08 -6.48272e-09)
(-6.00807e-08 2.1052e-08 -9.25234e-09)
(-6.08345e-08 2.43684e-08 -1.18784e-08)
(-6.18141e-08 2.65223e-08 -1.38212e-08)
(-6.23003e-08 2.78709e-08 -1.43863e-08)
(-5.94814e-08 2.09504e-08 -1.31531e-08)
(-5.28421e-08 1.53817e-08 -9.60513e-10)
(-5.70645e-08 1.45823e-08 -2.92812e-09)
(-5.82965e-08 1.65893e-08 -4.90614e-09)
(-5.87417e-08 1.98067e-08 -6.84161e-09)
(-5.94698e-08 2.26489e-08 -8.54948e-09)
(-6.04234e-08 2.44561e-08 -9.68775e-09)
(-6.0949e-08 2.56741e-08 -9.86731e-09)
(-5.83628e-08 1.87834e-08 -8.8985e-09)
(-5.21155e-08 1.51551e-08 -6.02378e-10)
(-5.62439e-08 1.42042e-08 -1.81695e-09)
(-5.74526e-08 1.59612e-08 -3.01717e-09)
(-5.78936e-08 1.88685e-08 -4.15273e-09)
(-5.86109e-08 2.14247e-08 -5.10689e-09)
(-5.95595e-08 2.3055e-08 -5.69572e-09)
(-6.01161e-08 2.42282e-08 -5.72646e-09)
(-5.76656e-08 1.73585e-08 -5.11525e-09)
(-5.17864e-08 1.504e-08 -2.04827e-10)
(-5.58691e-08 1.39953e-08 -6.138e-10)
(-5.70617e-08 1.56186e-08 -1.01446e-09)
(-5.74976e-08 1.83738e-08 -1.38775e-09)
(-5.82109e-08 2.07985e-08 -1.69398e-09)
(-5.91608e-08 2.23537e-08 -1.87539e-09)
(-5.97346e-08 2.3511e-08 -1.87388e-09)
(-5.73484e-08 1.66513e-08 -1.66541e-09)
(-5.5051e-10 -3.27927e-08 -3.71488e-08)
(5.90175e-09 -3.59535e-08 -3.47259e-08)
(9.86181e-09 -3.62945e-08 -2.51956e-08)
(1.06455e-08 -3.72672e-08 -1.84042e-08)
(1.00409e-08 -3.85985e-08 -1.31125e-08)
(9.23743e-09 -3.98502e-08 -8.74024e-09)
(8.66614e-09 -4.07797e-08 -4.99519e-09)
(8.39214e-09 -4.12678e-08 -1.62376e-09)
(3.35367e-09 -3.72556e-08 -3.38996e-08)
(4.58491e-09 -3.98362e-08 -3.52982e-08)
(5.68077e-09 -3.9048e-08 -2.6655e-08)
(5.71787e-09 -3.90899e-08 -1.92349e-08)
(5.20996e-09 -3.97927e-08 -1.33192e-08)
(4.66752e-09 -4.06815e-08 -8.67008e-09)
(4.29186e-09 -4.14284e-08 -4.88712e-09)
(4.11074e-09 -4.18429e-08 -1.57952e-09)
(1.57985e-08 -3.8494e-08 -3.28848e-08)
(1.25904e-08 -4.09443e-08 -3.44133e-08)
(9.85745e-09 -4.00936e-08 -2.59575e-08)
(8.52433e-09 -4.0088e-08 -1.87075e-08)
(8.03941e-09 -4.07519e-08 -1.29367e-08)
(7.86401e-09 -4.16105e-08 -8.41159e-09)
(7.77486e-09 -4.23365e-08 -4.73788e-09)
(7.72777e-09 -4.27404e-08 -1.53075e-09)
(1.91757e-08 -3.6706e-08 -3.40296e-08)
(1.09425e-08 -3.95852e-08 -3.20851e-08)
(5.40709e-09 -3.97751e-08 -2.31154e-08)
(3.31753e-09 -4.06147e-08 -1.68202e-08)
(2.90784e-09 -4.18312e-08 -1.19579e-08)
(2.97677e-09 -4.29921e-08 -7.95792e-09)
(3.07267e-09 -4.38584e-08 -4.54297e-09)
(3.11333e-09 -4.43141e-08 -1.4759e-09)
)
;
        gradient        nonuniform List<vector> 
192
(
(4.90878e-06 1.80205e-07 7.20968e-08)
(4.73747e-06 4.47882e-08 1.20716e-07)
(4.81501e-06 3.59063e-08 1.24938e-07)
(4.92185e-06 4.37989e-08 1.17928e-07)
(5.07837e-06 1.85866e-08 1.11857e-07)
(5.33961e-06 -6.88751e-08 1.10624e-07)
(5.74232e-06 -1.78035e-07 1.16204e-07)
(5.8542e-06 -9.82543e-08 1.26196e-07)
(4.58455e-06 3.60491e-07 1.03332e-07)
(4.45904e-06 8.69463e-08 1.77824e-07)
(4.52049e-06 3.37326e-08 1.85394e-07)
(4.62504e-06 3.97717e-08 1.78311e-07)
(4.79152e-06 2.30193e-08 1.75235e-07)
(5.07773e-06 -5.59968e-08 1.80023e-07)
(5.5356e-06 -1.63713e-07 1.92469e-07)
(5.74245e-06 -8.80164e-08 2.0719e-07)
(4.11742e-06 4.61444e-07 3.76431e-08)
(4.03186e-06 1.26864e-07 8.26002e-08)
(4.09341e-06 3.63948e-08 9.23984e-08)
(4.19281e-06 3.36404e-08 8.70587e-08)
(4.35254e-06 2.02987e-08 8.03211e-08)
(4.62987e-06 -5.16418e-08 7.77874e-08)
(5.07885e-06 -1.50869e-07 8.34118e-08)
(5.34046e-06 -8.14696e-08 9.82142e-08)
(3.84351e-06 4.80802e-07 -6.33845e-10)
(3.76657e-06 1.41713e-07 8.79039e-09)
(3.83018e-06 3.81924e-08 1.26662e-08)
(3.92794e-06 2.76944e-08 8.82934e-09)
(4.08375e-06 1.3748e-08 1.7437e-09)
(4.35466e-06 -5.29061e-08 -3.58422e-09)
(4.79514e-06 -1.43286e-07 -1.77925e-09)
(5.08172e-06 -7.9934e-08 7.92921e-09)
(3.69084e-06 4.69645e-07 -9.87694e-09)
(3.61706e-06 1.40173e-07 -1.57487e-08)
(3.68149e-06 3.64347e-08 -1.7509e-08)
(3.7785e-06 2.2718e-08 -2.09801e-08)
(3.93216e-06 7.88513e-09 -2.63992e-08)
(4.19927e-06 -5.51646e-08 -3.08446e-08)
(4.63408e-06 -1.39355e-07 -3.03139e-08)
(4.93262e-06 -8.04841e-08 -2.48128e-08)
(3.60253e-06 4.5521e-07 -8.34058e-09)
(3.53067e-06 1.34087e-07 -1.59051e-08)
(3.59526e-06 3.29617e-08 -1.93633e-08)
(3.69174e-06 1.88043e-08 -2.23925e-08)
(3.84411e-06 3.88351e-09 -2.59695e-08)
(4.10894e-06 -5.68207e-08 -2.87751e-08)
(4.54009e-06 -1.37254e-07 -2.8565e-08)
(4.8446e-06 -8.11491e-08 -2.54892e-08)
(3.55293e-06 4.45421e-07 -4.78239e-09)
(3.4822e-06 1.29154e-07 -9.57624e-09)
(3.54673e-06 2.99478e-08 -1.21576e-08)
(3.64282e-06 1.61118e-08 -1.41896e-08)
(3.79444e-06 1.50249e-09 -1.62077e-08)
(4.05798e-06 -5.776e-08 -1.76789e-08)
(4.48693e-06 -1.36069e-07 -1.7558e-08)
(4.79443e-06 -8.14318e-08 -1.59305e-08)
(3.53045e-06 4.40864e-07 -1.50805e-09)
(3.46023e-06 1.26714e-07 -3.05359e-09)
(3.5247e-06 2.83486e-08 -3.94861e-09)
(3.62058e-06 1.47542e-08 -4.65282e-09)
(3.77185e-06 3.94203e-10 -5.30618e-09)
(4.0348e-06 -5.8171e-08 -5.7611e-09)
(4.46273e-06 -1.35505e-07 -5.71712e-09)
(4.7715e-06 -8.148e-08 -5.19748e-09)
(-4.56034e-09 7.52719e-08 5.29955e-06)
(-2.07994e-08 -1.45562e-07 5.1351e-06)
(-2.59742e-08 -2.08531e-07 5.20997e-06)
(-1.95721e-08 -2.29936e-07 5.31153e-06)
(-7.86099e-09 -2.53239e-07 5.46315e-06)
(3.91041e-09 -2.91416e-07 5.72476e-06)
(9.22024e-09 -3.04319e-07 6.14185e-06)
(1.43334e-09 -1.28183e-07 6.29565e-06)
(3.44928e-08 1.46068e-07 5.13655e-06)
(4.73556e-08 -1.40598e-07 5.02041e-06)
(4.77132e-08 -2.08703e-07 5.08226e-06)
(5.31019e-08 -2.18363e-07 5.18604e-06)
(6.37252e-08 -2.33407e-07 5.35498e-06)
(7.65288e-08 -2.72159e-07 5.65093e-06)
(8.62054e-08 -2.99011e-07 6.12884e-06)
(8.49336e-08 -1.29803e-07 6.3418e-06)
(-2.0037e-08 1.56913e-07 5.10036e-06)
(-1.31865e-08 -1.32383e-07 4.98045e-06)
(3.56222e-11 -2.02791e-07 5.04116e-06)
(4.59614e-09 -2.13926e-07 5.14466e-06)
(1.77732e-09 -2.29815e-07 5.31358e-06)
(-4.49242e-09 -2.6894e-07 5.60971e-06)
(-8.19574e-09 -2.95923e-07 6.0883e-06)
(-1.58379e-09 -1.28538e-07 6.30729e-06)
(1.80987e-08 1.12631e-07 5.20261e-06)
(5.28327e-08 -1.20565e-07 5.03137e-06)
(7.11425e-08 -1.90925e-07 5.10417e-06)
(7.46234e-08 -2.16622e-07 5.20511e-06)
(7.07338e-08 -2.42497e-07 5.35654e-06)
(6.54364e-08 -2.82134e-07 5.61805e-06)
(6.57774e-08 -2.96108e-07 6.03524e-06)
(7.84389e-08 -1.24993e-07 6.20051e-06)
(-4.87023e-06 1.30714e-07 8.22946e-08)
(-4.69559e-06 -1.83193e-08 1.47643e-07)
(-4.77155e-06 -4.05359e-08 1.64662e-07)
(-4.8768e-06 -4.57488e-08 1.67487e-07)
(-5.03221e-06 -8.35873e-08 1.6924e-07)
(-5.29482e-06 -1.82225e-07 1.74482e-07)
(-5.7087e-06 -2.99758e-07 1.85724e-07)
(-5.87025e-06 -2.27697e-07 2.00858e-07)
(-4.50659e-06 3.25049e-07 1.09697e-07)
(-4.37738e-06 3.75006e-08 1.97413e-07)
(-4.43627e-06 -3.15896e-08 2.16467e-07)
(-4.53781e-06 -4.09643e-08 2.18774e-07)
(-4.70126e-06 -7.19949e-08 2.23363e-07)
(-4.98606e-06 -1.63255e-07 2.34524e-07)
(-5.45166e-06 -2.79875e-07 2.52491e-07)
(-5.70898e-06 -2.12715e-07 2.72295e-07)
(-4.03756e-06 4.37763e-07 4.30632e-08)
(-3.9463e-06 8.8434e-08 9.80383e-08)
(-4.00462e-06 -1.91763e-08 1.17182e-07)
(-4.10057e-06 -3.88538e-08 1.20116e-07)
(-4.25678e-06 -6.78383e-08 1.20445e-07)
(-4.53197e-06 -1.53097e-07 1.23878e-07)
(-4.98732e-06 -2.61988e-07 1.34585e-07)
(-5.29611e-06 -2.0169e-07 1.53854e-07)
(-3.76803e-06 4.66093e-07 3.36493e-09)
(-3.6844e-06 1.11607e-07 1.99558e-08)
(-3.74424e-06 -9.51347e-09 3.09024e-08)
(-3.83826e-06 -3.77015e-08 3.37875e-08)
(-3.99037e-06 -6.82334e-08 3.27389e-08)
(-4.25894e-06 -1.49116e-07 3.26396e-08)
(-4.70513e-06 -2.49898e-07 3.89194e-08)
(-5.03631e-06 -1.96112e-07 5.25369e-08)
(-3.61982e-06 4.61045e-07 -7.26099e-09)
(-3.53888e-06 1.15963e-07 -8.33153e-09)
(-3.59926e-06 -5.34563e-09 -5.07257e-09)
(-3.69233e-06 -3.70174e-08 -3.48229e-09)
(-3.84219e-06 -6.89863e-08 -4.14475e-09)
(-4.10687e-06 -1.46917e-07 -4.34597e-09)
(-4.54701e-06 -2.4209e-07 -1.18123e-10)
(-4.8885e-06 -1.93146e-07 8.64707e-09)
(-3.53493e-06 4.50471e-07 -6.76489e-09)
(-3.45571e-06 1.1379e-07 -1.13413e-08)
(-3.5161e-06 -4.66493e-09 -1.15097e-08)
(-3.60851e-06 -3.67737e-08 -1.10645e-08)
(-3.75701e-06 -6.90971e-08 -1.1254e-08)
(-4.01935e-06 -1.45089e-07 -1.0953e-08)
(-4.45557e-06 -2.36905e-07 -7.98331e-09)
(-4.802e-06 -1.90987e-07 -2.44268e-09)
(-3.48762e-06 4.4292e-07 -3.94909e-09)
(-3.40945e-06 1.11214e-07 -7.12524e-09)
(-3.46972e-06 -5.06932e-09 -7.85794e-09)
(-3.56167e-06 -3.67618e-08 -7.87415e-09)
(-3.70936e-06 -6.88747e-08 -7.87525e-09)
(-3.97036e-06 -1.43646e-07 -7.45834e-09)
(-4.40424e-06 -2.3358e-07 -5.63483e-09)