/*--------------------------------*- C++ -*----------------------------------*\
| =========                 |                                                 |
| \\      /  F ield         | OpenFOAM: The Open Source CFD Toolbox           |
|  \\    /   O peration     | Version:  v1912                                 |
|   \\  /    A nd           | Website:  www.openfoam.com                      |
|    \\/     M anipulation  |                                                 |
\*---------------------------------------------------------------------------*/
FoamFile
{
    version     2.0;
    format      ascii;
    class       volVectorField;
    location    "0.15/solid";
    object      D_0;
}
// * * * * * * * * * * * * * * * * * * * * * * * * * * * * * * * * * * * * * //

dimensions      [0 1 0 0 0 0 0];


internalField   nonuniform List<vector> 
256
(
(2.85758e-09 1.64779e-08 2.00036e-09)
(-1.33741e-09 1.09552e-08 3.87157e-09)
(2.00169e-09 1.08852e-08 4.01673e-09)
(-2.3634e-09 1.61653e-08 2.54159e-09)
(3.92166e-09 1.70641e-08 -1.45927e-09)
(-8.0438e-10 1.44425e-08 8.77813e-10)
(2.87111e-09 1.41195e-08 1.25248e-09)
(-2.08137e-09 1.59073e-08 -2.07089e-10)
(4.62155e-09 1.94935e-08 -7.03845e-09)
(7.87239e-12 1.83536e-08 -4.87752e-09)
(3.74543e-09 1.77672e-08 -4.33822e-09)
(-1.10248e-09 1.75682e-08 -5.29749e-09)
(5.76459e-09 2.41255e-08 -1.31747e-08)
(9.89956e-10 2.36158e-08 -1.08693e-08)
(4.76796e-09 2.27853e-08 -1.02091e-08)
(-2.45441e-10 2.1507e-08 -1.10715e-08)
(6.86293e-09 3.0396e-08 -1.97328e-08)
(2.001e-09 3.0539e-08 -1.69759e-08)
(6.0727e-09 2.948e-08 -1.62205e-08)
(9.71926e-10 2.71317e-08 -1.73429e-08)
(6.51046e-09 3.85374e-08 -2.71154e-08)
(2.44103e-09 3.93556e-08 -2.37759e-08)
(8.2543e-09 3.80741e-08 -2.29397e-08)
(3.93695e-09 3.46485e-08 -2.44853e-08)
(2.72391e-09 4.92962e-08 -3.58322e-08)
(1.74226e-09 4.93079e-08 -3.20708e-08)
(1.1885e-08 4.78129e-08 -3.1157e-08)
(1.05789e-08 4.47957e-08 -3.29856e-08)
(-3.78559e-09 5.13619e-08 -4.41567e-08)
(9.99643e-10 4.7115e-08 -4.0551e-08)
(1.58445e-08 4.55035e-08 -3.95618e-08)
(2.01009e-08 4.64361e-08 -4.11215e-08)
(6.92674e-09 1.18288e-08 -3.81432e-09)
(-4.24363e-10 5.74196e-09 -4.37254e-09)
(7.75843e-10 5.63114e-09 -4.21996e-09)
(-6.58647e-09 1.14426e-08 -3.35781e-09)
(1.029e-08 1.68177e-08 -8.424e-09)
(7.47416e-10 1.37532e-08 -9.46806e-09)
(5.96722e-10 1.33699e-08 -9.1001e-09)
(-8.95899e-09 1.55681e-08 -7.34659e-09)
(1.1089e-08 2.17115e-08 -1.36737e-08)
(1.56269e-09 2.04225e-08 -1.48548e-08)
(1.16343e-09 1.97895e-08 -1.43372e-08)
(-8.37926e-09 1.97268e-08 -1.2158e-08)
(1.20272e-08 2.74098e-08 -1.96582e-08)
(2.39885e-09 2.68473e-08 -2.07503e-08)
(2.08958e-09 2.59863e-08 -2.0122e-08)
(-7.55455e-09 2.47631e-08 -1.78101e-08)
(1.31085e-08 3.39623e-08 -2.61526e-08)
(3.3087e-09 3.4044e-08 -2.70534e-08)
(3.29889e-09 3.29669e-08 -2.63359e-08)
(-6.51103e-09 3.06922e-08 -2.40342e-08)
(1.299e-08 4.14241e-08 -3.3047e-08)
(3.73288e-09 4.21848e-08 -3.37593e-08)
(5.33406e-09 4.0896e-08 -3.29653e-08)
(-3.93881e-09 3.75506e-08 -3.06978e-08)
(9.61935e-09 4.93759e-08 -3.94339e-08)
(3.09069e-09 4.93484e-08 -4.00527e-08)
(8.77304e-09 4.78649e-08 -3.9196e-08)
(2.14663e-09 4.49292e-08 -3.6895e-08)
(3.41156e-09 4.57801e-08 -4.20883e-08)
(2.42158e-09 4.13603e-08 -4.27353e-08)
(1.25512e-08 3.98056e-08 -4.18506e-08)
(1.12323e-08 4.09959e-08 -3.94568e-08)
(8.89712e-09 1.07563e-08 -2.47119e-09)
(3.72003e-10 4.44865e-09 -3.40791e-09)
(-1.88303e-10 4.34643e-09 -3.29535e-09)
(-8.69985e-09 1.04499e-08 -2.14908e-09)
(1.41652e-08 1.62874e-08 -6.93331e-09)
(2.19306e-09 1.28958e-08 -8.50446e-09)
(-1.32129e-09 1.25285e-08 -8.22451e-09)
(-1.32536e-08 1.51501e-08 -6.13641e-09)
(1.52884e-08 2.20067e-08 -1.16994e-08)
(3.07246e-09 2.05955e-08 -1.33811e-08)
(-1.08177e-09 1.99845e-08 -1.29791e-08)
(-1.32514e-08 2.01432e-08 -1.05455e-08)
(1.60498e-08 2.81143e-08 -1.69993e-08)
(3.78526e-09 2.75768e-08 -1.8608e-08)
(-2.5478e-10 2.67429e-08 -1.81112e-08)
(-1.24674e-08 2.55916e-08 -1.556e-08)
(1.69763e-08 3.43181e-08 -2.26028e-08)
(4.59247e-09 3.44557e-08 -2.40955e-08)
(8.71144e-10 3.34099e-08 -2.35199e-08)
(-1.14512e-08 3.11735e-08 -2.09236e-08)
(1.68558e-08 4.03709e-08 -2.79058e-08)
(4.99617e-09 4.11669e-08 -2.93072e-08)
(2.77186e-09 3.99149e-08 -2.86652e-08)
(-9.02989e-09 3.66289e-08 -2.60234e-08)
(1.36887e-08 4.57357e-08 -3.15343e-08)
(4.4205e-09 4.5783e-08 -3.29032e-08)
(6.01535e-09 4.43456e-08 -3.22133e-08)
(-3.27958e-09 4.14356e-08 -2.94988e-08)
(7.91589e-09 3.98551e-08 -3.13401e-08)
(3.82564e-09 3.58256e-08 -3.27678e-08)
(9.61068e-09 3.43265e-08 -3.20676e-08)
(5.25352e-09 3.52261e-08 -2.92538e-08)
(9.20002e-09 1.05043e-08 -1.86458e-09)
(6.04684e-10 4.17135e-09 -2.40085e-09)
(-5.06916e-10 4.08427e-09 -2.32177e-09)
(-9.11665e-09 1.02811e-08 -1.63967e-09)
(1.51025e-08 1.58626e-08 -5.80381e-09)
(2.65119e-09 1.23476e-08 -6.68609e-09)
(-2.07076e-09 1.20178e-08 -6.48477e-09)
(-1.45088e-08 1.48736e-08 -5.23296e-09)
(1.64381e-08 2.14633e-08 -9.94004e-09)
(3.55345e-09 2.00144e-08 -1.08608e-08)
(-2.06054e-09 1.94501e-08 -1.05661e-08)
(-1.49161e-08 1.97678e-08 -9.09605e-09)
(1.70898e-08 2.72997e-08 -1.43182e-08)
(4.17211e-09 2.68173e-08 -1.51683e-08)
(-1.32764e-09 2.60327e-08 -1.47976e-08)
(-1.4205e-08 2.49462e-08 -1.32447e-08)
(1.78114e-08 3.28168e-08 -1.86766e-08)
(4.86497e-09 3.30369e-08 -1.94267e-08)
(-2.51285e-10 3.20412e-08 -1.8991e-08)
(-1.31448e-08 2.9837e-08 -1.74041e-08)
(1.75466e-08 3.76941e-08 -2.23331e-08)
(5.20026e-09 3.85599e-08 -2.29992e-08)
(1.57825e-09 3.73589e-08 -2.25089e-08)
(-1.07175e-08 3.41131e-08 -2.08918e-08)
(1.44424e-08 4.17406e-08 -2.41891e-08)
(4.64223e-09 4.19331e-08 -2.48213e-08)
(4.68567e-09 4.0547e-08 -2.42943e-08)
(-5.14848e-09 3.75979e-08 -2.26259e-08)
(8.97985e-09 3.54405e-08 -2.31903e-08)
(4.08219e-09 3.19386e-08 -2.39018e-08)
(8.14375e-09 3.0487e-08 -2.33708e-08)
(2.97055e-09 3.09532e-08 -2.15948e-08)
(8.97828e-09 1.02948e-08 -1.49359e-09)
(5.69857e-10 4.03398e-09 -1.70693e-09)
(-5.19573e-10 3.95987e-09 -1.65259e-09)
(-8.97185e-09 1.01352e-08 -1.34026e-09)
(1.4821e-08 1.53775e-08 -4.70956e-09)
(2.56774e-09 1.18804e-08 -5.01419e-09)
(-2.16878e-09 1.1586e-08 -4.87397e-09)
(-1.44445e-08 1.45144e-08 -4.31409e-09)
(1.61621e-08 2.05853e-08 -8.03623e-09)
(3.42462e-09 1.91675e-08 -8.31096e-09)
(-2.26313e-09 1.86491e-08 -8.10293e-09)
(-1.50011e-08 1.90419e-08 -7.4427e-09)
(1.6722e-08 2.59025e-08 -1.13951e-08)
(3.96486e-09 2.54868e-08 -1.15997e-08)
(-1.59879e-09 2.47514e-08 -1.13344e-08)
(-1.43404e-08 2.37072e-08 -1.06286e-08)
(1.72765e-08 3.07546e-08 -1.45215e-08)
(4.56033e-09 3.10537e-08 -1.46426e-08)
(-5.59175e-10 3.01073e-08 -1.43271e-08)
(-1.32447e-08 2.79298e-08 -1.36007e-08)
(1.68719e-08 3.49164e-08 -1.68793e-08)
(4.82254e-09 3.58546e-08 -1.69289e-08)
(1.22571e-09 3.47019e-08 -1.65711e-08)
(-1.0794e-08 3.14839e-08 -1.58266e-08)
(1.37832e-08 3.84626e-08 -1.77756e-08)
(4.25526e-09 3.87907e-08 -1.77954e-08)
(4.24023e-09 3.74505e-08 -1.74099e-08)
(-5.34183e-09 3.44595e-08 -1.66286e-08)
(8.4969e-09 3.22033e-08 -1.67284e-08)
(3.69805e-09 2.91142e-08 -1.68133e-08)
(7.60562e-09 2.77036e-08 -1.64266e-08)
(2.51113e-09 2.78405e-08 -1.556e-08)
(8.7254e-09 1.00882e-08 -1.11948e-09)
(4.91566e-10 3.91513e-09 -1.18496e-09)
(-4.68084e-10 3.85056e-09 -1.14961e-09)
(-8.76663e-09 9.97248e-09 -1.0208e-09)
(1.43494e-08 1.48722e-08 -3.48544e-09)
(2.3768e-09 1.14441e-08 -3.53268e-09)
(-2.08909e-09 1.11763e-08 -3.4407e-09)
(-1.41108e-08 1.41009e-08 -3.22802e-09)
(1.55995e-08 1.96831e-08 -5.88965e-09)
(3.16322e-09 1.83235e-08 -5.8816e-09)
(-2.21468e-09 1.78412e-08 -5.74385e-09)
(-1.46744e-08 1.82554e-08 -5.499e-09)
(1.60716e-08 2.45242e-08 -8.22964e-09)
(3.63794e-09 2.41714e-08 -8.16094e-09)
(-1.59042e-09 2.34756e-08 -7.98353e-09)
(-1.40281e-08 2.2453e-08 -7.71936e-09)
(1.6512e-08 2.88907e-08 -1.02905e-08)
(4.16299e-09 2.92526e-08 -1.01607e-08)
(-5.81076e-10 2.83461e-08 -9.94778e-09)
(-1.2917e-08 2.61892e-08 -9.67103e-09)
(1.60146e-08 3.26708e-08 -1.17209e-08)
(4.37034e-09 3.36651e-08 -1.1541e-08)
(1.16747e-09 3.2551e-08 -1.12981e-08)
(-1.04637e-08 2.93566e-08 -1.1007e-08)
(1.29305e-08 3.60475e-08 -1.21294e-08)
(3.78778e-09 3.64683e-08 -1.19298e-08)
(4.11638e-09 3.51646e-08 -1.16673e-08)
(-5.09616e-09 3.21555e-08 -1.1348e-08)
(7.74139e-09 2.98647e-08 -1.12879e-08)
(3.22135e-09 2.70313e-08 -1.11313e-08)
(7.41873e-09 2.56537e-08 -1.0869e-08)
(2.58758e-09 2.56024e-08 -1.04931e-08)
(8.56036e-09 9.92982e-09 -6.97352e-10)
(4.38218e-10 3.82161e-09 -7.12661e-10)
(-4.28993e-10 3.76323e-09 -6.92769e-10)
(-8.6287e-09 9.84137e-09 -6.42326e-10)
(1.40174e-08 1.44638e-08 -2.14072e-09)
(2.23934e-09 1.10984e-08 -2.12145e-09)
(-2.01506e-09 1.0848e-08 -2.06941e-09)
(-1.38589e-08 1.37511e-08 -1.99606e-09)
(1.51799e-08 1.89749e-08 -3.58391e-09)
(2.96911e-09 1.76671e-08 -3.52043e-09)
(-2.14629e-09 1.72087e-08 -3.44201e-09)
(-1.43951e-08 1.76231e-08 -3.36271e-09)
(1.55835e-08 2.34875e-08 -4.95428e-09)
(3.39693e-09 2.31818e-08 -4.85031e-09)
(-1.54259e-09 2.25127e-08 -4.74864e-09)
(-1.37457e-08 2.14994e-08 -4.66304e-09)
(1.5954e-08 2.75586e-08 -6.11749e-09)
(3.87715e-09 2.79625e-08 -5.97684e-09)
(-5.54974e-10 2.70832e-08 -5.8541e-09)
(-1.26301e-08 2.4941e-08 -5.76137e-09)
(1.54044e-08 3.11468e-08 -6.88103e-09)
(4.05018e-09 3.21763e-08 -6.712e-09)
(1.16601e-09 3.10888e-08 -6.5713e-09)
(-1.01857e-08 2.79137e-08 -6.46814e-09)
(1.23232e-08 3.44627e-08 -7.04818e-09)
(3.45526e-09 3.49353e-08 -6.86901e-09)
(4.07135e-09 3.36569e-08 -6.71668e-09)
(-4.87635e-09 3.06475e-08 -6.59475e-09)
(7.18838e-09 2.83285e-08 -6.51324e-09)
(2.87973e-09 2.56303e-08 -6.35773e-09)
(7.33226e-09 2.42757e-08 -6.20585e-09)
(2.70281e-09 2.41366e-08 -6.05238e-09)
(8.48445e-09 9.84584e-09 -2.37033e-10)
(4.14355e-10 3.76998e-09 -2.39289e-10)
(-4.11243e-10 3.71463e-09 -2.32874e-10)
(-8.56506e-09 9.77041e-09 -2.19377e-10)
(1.38621e-08 1.42395e-08 -7.21761e-10)
(2.17563e-09 1.09082e-08 -7.09767e-10)
(-1.98001e-09 1.06663e-08 -6.92937e-10)
(-1.37402e-08 1.35552e-08 -6.75153e-10)
(1.4978e-08 1.8592e-08 -1.20187e-09)
(2.87646e-09 1.73128e-08 -1.17375e-09)
(-2.11178e-09 1.68662e-08 -1.1483e-09)
(-1.42585e-08 1.72776e-08 -1.13031e-09)
(1.53453e-08 2.29416e-08 -1.6521e-09)
(3.28027e-09 2.26606e-08 -1.6099e-09)
(-1.51683e-09 2.20048e-08 -1.5768e-09)
(-1.36045e-08 2.09949e-08 -1.55751e-09)
(1.56825e-08 2.6876e-08 -2.02746e-09)
(3.73869e-09 2.73007e-08 -1.97308e-09)
(-5.40417e-10 2.64352e-08 -1.933e-09)
(-1.2488e-08 2.43006e-08 -1.91135e-09)
(1.51097e-08 3.03832e-08 -2.26705e-09)
(3.89532e-09 3.14292e-08 -2.20359e-09)
(1.16573e-09 3.03553e-08 -2.15752e-09)
(-1.00512e-08 2.71913e-08 -2.13201e-09)
(1.20302e-08 3.36772e-08 -2.311e-09)
(3.29382e-09 3.41719e-08 -2.24453e-09)
(4.04907e-09 3.29065e-08 -2.19461e-09)
(-4.77193e-09 2.99012e-08 -2.16244e-09)
(6.92075e-09 2.75657e-08 -2.12813e-09)
(2.71338e-09 2.49236e-08 -2.06917e-09)
(7.28888e-09 2.3581e-08 -2.01946e-09)
(2.75602e-09 2.341e-08 -1.9772e-09)
)
;

boundaryField
{
    interface
    {
        type            solidTraction;
        traction        uniform (0 0 0);
        pressure        uniform 0;
        secondOrder     false;
        setEffectiveTraction false;
        relaxationFactor 1;
        value           nonuniform List<vector> 
192
(
(6.49921e-08 1.81727e-08 3.04284e-09)
(6.40348e-08 1.75051e-08 2.71331e-10)
(6.56874e-08 1.99543e-08 -5.24548e-09)
(6.81331e-08 2.4686e-08 -1.1474e-08)
(7.11554e-08 3.05827e-08 -1.8113e-08)
(7.40539e-08 3.75029e-08 -2.55146e-08)
(7.53534e-08 4.67225e-08 -3.41629e-08)
(6.98953e-08 4.9902e-08 -4.23609e-08)
(6.53971e-08 1.6133e-08 -2.30489e-09)
(6.72546e-08 1.78583e-08 -5.86372e-09)
(6.88128e-08 2.21459e-08 -1.10076e-08)
(7.10358e-08 2.79149e-08 -1.70874e-08)
(7.41751e-08 3.42032e-08 -2.36248e-08)
(7.76284e-08 4.05521e-08 -3.04611e-08)
(8.00419e-08 4.69817e-08 -3.66932e-08)
(7.60425e-08 4.44497e-08 -3.91633e-08)
(6.15165e-08 1.65218e-08 -1.90324e-09)
(6.57386e-08 1.78853e-08 -5.73068e-09)
(6.76218e-08 2.24779e-08 -1.03626e-08)
(6.96066e-08 2.85365e-08 -1.57342e-08)
(7.2508e-08 3.45198e-08 -2.14275e-08)
(7.58457e-08 3.95494e-08 -2.6767e-08)
(7.83414e-08 4.35012e-08 -3.03289e-08)
(7.54694e-08 3.86049e-08 -2.99483e-08)
(5.84217e-08 1.65799e-08 -1.84453e-09)
(6.3373e-08 1.76722e-08 -5.64018e-09)
(6.54929e-08 2.19603e-08 -9.72192e-09)
(6.73476e-08 2.76432e-08 -1.41504e-08)
(6.99947e-08 3.29313e-08 -1.86019e-08)
(7.31065e-08 3.68522e-08 -2.23293e-08)
(7.55557e-08 3.95994e-08 -2.41657e-08)
(7.3313e-08 3.42059e-08 -2.30453e-08)
(5.6324e-08 1.62446e-08 -1.61242e-09)
(6.12513e-08 1.71735e-08 -4.89807e-09)
(6.3386e-08 2.10607e-08 -8.2461e-09)
(6.51386e-08 2.61813e-08 -1.16498e-08)
(6.75907e-08 3.07924e-08 -1.48465e-08)
(7.05145e-08 3.40436e-08 -1.72625e-08)
(7.29082e-08 3.63694e-08 -1.81538e-08)
(7.09969e-08 3.09587e-08 -1.70382e-08)
(5.49942e-08 1.58569e-08 -1.22408e-09)
(5.97257e-08 1.65908e-08 -3.68649e-09)
(6.17707e-08 2.01138e-08 -6.13536e-09)
(6.34278e-08 2.47525e-08 -8.51442e-09)
(6.57489e-08 2.88768e-08 -1.06212e-08)
(6.85513e-08 3.17759e-08 -1.20879e-08)
(7.09046e-08 3.39798e-08 -1.24945e-08)
(6.91689e-08 2.86099e-08 -1.16151e-08)
(5.42277e-08 1.55743e-08 -7.57658e-10)
(5.8806e-08 1.61187e-08 -2.26263e-09)
(6.07621e-08 1.93665e-08 -3.73938e-09)
(6.23452e-08 2.36812e-08 -5.13596e-09)
(6.45866e-08 2.75141e-08 -6.32497e-09)
(6.73206e-08 3.02395e-08 -7.10733e-09)
(6.96504e-08 3.24093e-08 -7.27331e-09)
(6.80081e-08 2.70693e-08 -6.71846e-09)
(5.38803e-08 1.54325e-08 -2.56034e-10)
(5.83854e-08 1.5863e-08 -7.6062e-10)
(6.02938e-08 1.8963e-08 -1.25237e-09)
(6.18377e-08 2.31179e-08 -1.71169e-09)
(6.40411e-08 2.68174e-08 -2.09538e-09)
(6.67448e-08 2.94706e-08 -2.34076e-09)
(6.90642e-08 3.16306e-08 -2.38427e-09)
(6.74638e-08 2.63056e-08 -2.19506e-09)
(2.8055e-09 1.66132e-08 6.90761e-08)
(3.64243e-09 1.48045e-08 6.36893e-08)
(4.26713e-09 1.65647e-08 5.90241e-08)
(5.49243e-09 2.0952e-08 5.41137e-08)
(6.74406e-09 2.69109e-08 4.9408e-08)
(6.5467e-09 3.45126e-08 4.52751e-08)
(2.83133e-09 4.50359e-08 4.1824e-08)
(-3.78039e-09 4.95174e-08 3.50877e-08)
(-8.32219e-10 1.21425e-08 6.91938e-08)
(-1.24937e-10 1.22552e-08 6.4867e-08)
(6.84463e-10 1.54168e-08 5.98849e-08)
(1.73286e-09 2.05913e-08 5.51624e-08)
(2.88057e-09 2.73124e-08 5.11382e-08)
(3.48643e-09 3.55819e-08 4.80322e-08)
(2.91253e-09 4.51141e-08 4.57767e-08)
(2.14987e-09 4.52474e-08 3.95744e-08)
(1.67035e-09 1.22026e-08 6.8891e-08)
(2.60145e-09 1.20308e-08 6.47464e-08)
(3.64205e-09 1.49018e-08 5.9915e-08)
(4.71901e-09 1.98147e-08 5.53101e-08)
(5.98251e-09 2.62973e-08 5.13811e-08)
(8.07851e-09 3.434e-08 4.83583e-08)
(1.16578e-08 4.36574e-08 4.61896e-08)
(1.57034e-08 4.36515e-08 4.01393e-08)
(-2.149e-09 1.67489e-08 6.84092e-08)
(-1.41856e-09 1.39475e-08 6.36452e-08)
(-2.06322e-10 1.48521e-08 5.94445e-08)
(6.88378e-10 1.84956e-08 5.48895e-08)
(1.84799e-09 2.37782e-08 5.04688e-08)
(4.73733e-09 3.07378e-08 4.65759e-08)
(1.13775e-08 4.06366e-08 4.33441e-08)
(2.10619e-08 4.46307e-08 3.69406e-08)
(-6.41505e-08 1.72765e-08 3.7053e-09)
(-6.18055e-08 1.55921e-08 1.84471e-09)
(-6.17586e-08 1.71092e-08 -3.02922e-09)
(-6.2182e-08 2.09883e-08 -8.77632e-09)
(-6.28714e-08 2.60859e-08 -1.50332e-08)
(-6.31707e-08 3.22465e-08 -2.21152e-08)
(-6.17534e-08 4.07544e-08 -3.04773e-08)
(-5.39245e-08 4.34153e-08 -3.8423e-08)
(-6.4197e-08 1.5329e-08 -1.7734e-09)
(-6.50149e-08 1.60163e-08 -4.5531e-09)
(-6.51616e-08 1.93756e-08 -9.12034e-09)
(-6.55821e-08 2.42959e-08 -1.47542e-08)
(-6.65556e-08 2.97881e-08 -2.0928e-08)
(-6.75346e-08 3.53858e-08 -2.74557e-08)
(-6.73295e-08 4.1136e-08 -3.34301e-08)
(-6.11035e-08 3.81636e-08 -3.57446e-08)
(-6.04337e-08 1.59383e-08 -1.51623e-09)
(-6.38678e-08 1.6288e-08 -4.74854e-09)
(-6.45847e-08 1.99465e-08 -8.91083e-09)
(-6.49792e-08 2.51414e-08 -1.3897e-08)
(-6.58912e-08 3.03139e-08 -1.92648e-08)
(-6.68991e-08 3.45856e-08 -2.43284e-08)
(-6.68919e-08 3.78644e-08 -2.76746e-08)
(-6.18703e-08 3.25293e-08 -2.7188e-08)
(-5.75093e-08 1.61875e-08 -1.57147e-09)
(-6.18644e-08 1.63234e-08 -4.93493e-09)
(-6.30087e-08 1.96917e-08 -8.65833e-09)
(-6.34522e-08 2.45032e-08 -1.27762e-08)
(-6.4269e-08 2.89649e-08 -1.69554e-08)
(-6.51872e-08 3.21136e-08 -2.04506e-08)
(-6.52441e-08 3.41755e-08 -2.21101e-08)
(-6.09241e-08 2.83221e-08 -2.0909e-08)
(-5.55469e-08 1.59893e-08 -1.4276e-09)
(-6.00129e-08 1.60217e-08 -4.41337e-09)
(-6.13121e-08 1.90158e-08 -7.5029e-09)
(-6.17933e-08 2.32679e-08 -1.06726e-08)
(-6.25456e-08 2.7043e-08 -1.36574e-08)
(-6.33914e-08 2.95078e-08 -1.58898e-08)
(-6.34897e-08 3.11328e-08 -1.66415e-08)
(-5.95707e-08 2.52432e-08 -1.54641e-08)
(-5.43101e-08 1.56918e-08 -1.10647e-09)
(-5.86681e-08 1.55778e-08 -3.37429e-09)
(-5.99738e-08 1.82346e-08 -5.65035e-09)
(-6.04602e-08 2.20134e-08 -7.86787e-09)
(-6.11794e-08 2.52979e-08 -9.82454e-09)
(-6.19932e-08 2.7401e-08 -1.11589e-08)
(-6.21285e-08 2.88922e-08 -1.14643e-08)
(-5.84442e-08 2.30301e-08 -1.05409e-08)
(-5.36013e-08 1.54633e-08 -6.92655e-10)
(-5.78581e-08 1.51926e-08 -2.08861e-09)
(-5.91343e-08 1.75947e-08 -3.4666e-09)
(-5.96114e-08 2.1058e-08 -4.76884e-09)
(-6.03154e-08 2.40507e-08 -5.86856e-09)
(-6.11214e-08 2.59749e-08 -6.57118e-09)
(-6.12869e-08 2.7425e-08 -6.67574e-09)
(-5.77388e-08 2.15845e-08 -6.09443e-09)
(-5.32814e-08 1.53467e-08 -2.35267e-10)
(-5.74892e-08 1.49785e-08 -7.04789e-10)
(-5.87461e-08 1.72435e-08 -1.16444e-09)
(-5.92154e-08 2.05521e-08 -1.59277e-09)
(-5.99135e-08 2.3412e-08 -1.94685e-09)
(-6.07196e-08 2.52619e-08 -2.1656e-09)
(-6.0902e-08 2.6699e-08 -2.18852e-09)
(-5.74183e-08 2.08697e-08 -1.99048e-09)
(-3.45212e-09 -2.78849e-08 -4.36836e-08)
(3.85302e-09 -3.18774e-08 -3.92117e-08)
(8.29991e-09 -3.25372e-08 -2.87552e-08)
(9.2398e-09 -3.37212e-08 -2.12774e-08)
(8.64868e-09 -3.51844e-08 -1.53345e-08)
(7.82418e-09 -3.65153e-08 -1.03192e-08)
(7.23519e-09 -3.7489e-08 -5.93849e-09)
(6.95305e-09 -3.79968e-08 -1.93742e-09)
(2.46571e-09 -3.30131e-08 -4.00462e-08)
(3.91663e-09 -3.64898e-08 -3.99129e-08)
(5.20927e-09 -3.59884e-08 -3.04124e-08)
(5.32206e-09 -3.62016e-08 -2.2224e-08)
(4.82449e-09 -3.7007e-08 -1.55865e-08)
(4.27562e-09 -3.79605e-08 -1.02603e-08)
(3.89445e-09 -3.87466e-08 -5.83082e-09)
(3.71108e-09 -3.91799e-08 -1.89251e-09)
(1.60157e-08 -3.42017e-08 -3.90633e-08)
(1.26438e-08 -3.75465e-08 -3.90563e-08)
(9.76208e-09 -3.69823e-08 -2.97378e-08)
(8.39164e-09 -3.71478e-08 -2.1715e-08)
(7.92561e-09 -3.79143e-08 -1.52183e-08)
(7.77754e-09 -3.88375e-08 -1.0012e-08)
(7.70726e-09 -3.96027e-08 -5.68767e-09)
(7.66888e-09 -4.00253e-08 -1.84577e-09)
(2.13798e-08 -3.16299e-08 -4.0664e-08)
(1.23526e-08 -3.53403e-08 -3.66542e-08)
(6.37874e-09 -3.58484e-08 -2.6743e-08)
(4.17128e-09 -3.68988e-08 -1.97483e-08)
(3.77736e-09 -3.82464e-08 -1.42223e-08)
(3.88837e-09 -3.94854e-08 -9.56707e-09)
(4.01546e-09 -4.03952e-08 -5.50428e-09)
(4.07077e-09 -4.08702e-08 -1.79554e-09)
)
;
        gradient        uniform (0 0 0);
    }
    symmetry
    {
        type            solidSymmetry;
        patchType       symmetry;
        secondOrder     false;
        value           nonuniform List<vector> 
32
(
(8.48445e-09 9.84584e-09 0)
(1.38621e-08 1.42395e-08 0)
(1.4978e-08 1.8592e-08 0)
(1.53453e-08 2.29416e-08 0)
(1.56825e-08 2.6876e-08 0)
(1.51097e-08 3.03832e-08 0)
(1.20302e-08 3.36772e-08 0)
(6.92075e-09 2.75657e-08 0)
(4.14355e-10 3.76998e-09 0)
(2.17563e-09 1.09082e-08 0)
(2.87646e-09 1.73128e-08 0)
(3.28027e-09 2.26606e-08 0)
(3.73869e-09 2.73007e-08 0)
(3.89532e-09 3.14292e-08 0)
(3.29382e-09 3.41719e-08 0)
(2.71338e-09 2.49236e-08 0)
(-4.11243e-10 3.71463e-09 0)
(-1.98001e-09 1.06663e-08 0)
(-2.11178e-09 1.68662e-08 0)
(-1.51683e-09 2.20048e-08 0)
(-5.40417e-10 2.64352e-08 0)
(1.16573e-09 3.03553e-08 0)
(4.04907e-09 3.29065e-08 0)
(7.28888e-09 2.3581e-08 0)
(-8.56506e-09 9.77041e-09 0)
(-1.37402e-08 1.35552e-08 0)
(-1.42585e-08 1.72776e-08 0)
(-1.36045e-08 2.09949e-08 0)
(-1.2488e-08 2.43006e-08 0)
(-1.00512e-08 2.71913e-08 0)
(-4.77193e-09 2.99012e-08 0)
(2.75602e-09 2.341e-08 0)
)
;
    }
    bottom
    {
        type            fixedDisplacement;
        value           uniform (0 0 0);
    }
}


// ************************************************************************* //
