/*--------------------------------*- C++ -*----------------------------------*\
| =========                 |                                                 |
| \\      /  F ield         | OpenFOAM: The Open Source CFD Toolbox           |
|  \\    /   O peration     | Version:  v1912                                 |
|   \\  /    A nd           | Website:  www.openfoam.com                      |
|    \\/     M anipulation  |                                                 |
\*---------------------------------------------------------------------------*/
FoamFile
{
    version     2.0;
    format      ascii;
    class       volVectorField;
    location    "0.15/solid";
    object      DD_0;
}
// * * * * * * * * * * * * * * * * * * * * * * * * * * * * * * * * * * * * * //

dimensions      [0 1 0 0 0 0 0];


internalField   nonuniform List<vector> 
256
(
(9.4757e-10 7.05878e-10 1.1803e-09)
(1.74325e-10 2.71193e-10 8.38932e-10)
(-1.50878e-10 2.64979e-10 8.47489e-10)
(-9.00038e-10 6.69817e-10 1.21064e-09)
(1.44266e-09 1.22161e-10 2.35479e-09)
(3.65192e-10 -1.11999e-10 1.94205e-09)
(-2.67214e-10 -1.32352e-10 1.96423e-09)
(-1.31324e-09 4.88418e-11 2.42716e-09)
(1.45454e-09 -6.17e-10 3.11563e-09)
(4.07501e-10 -6.9695e-10 2.73081e-09)
(-2.20007e-10 -7.30199e-10 2.76154e-09)
(-1.23714e-09 -7.24313e-10 3.21287e-09)
(1.39838e-09 -1.35461e-09 3.7693e-09)
(4.13547e-10 -1.41566e-09 3.38815e-09)
(-1.24614e-10 -1.45983e-09 3.4238e-09)
(-1.0812e-09 -1.49206e-09 3.88086e-09)
(1.41192e-09 -2.10932e-09 4.42123e-09)
(4.50209e-10 -2.23837e-09 4.02391e-09)
(-4.78299e-11 -2.29199e-09 4.06245e-09)
(-9.82403e-10 -2.27339e-09 4.54122e-09)
(1.60852e-09 -2.92946e-09 5.15416e-09)
(5.71845e-10 -3.15326e-09 4.73333e-09)
(-4.38145e-11 -3.21537e-09 4.77377e-09)
(-1.0543e-09 -3.11753e-09 5.27964e-09)
(2.16739e-09 -4.00232e-09 6.07049e-09)
(8.27359e-10 -4.16857e-09 5.6346e-09)
(-1.61922e-10 -4.23882e-09 5.67653e-09)
(-1.47632e-09 -4.21377e-09 6.20044e-09)
(3.11069e-09 -5.94215e-09 7.12614e-09)
(1.09899e-09 -5.55816e-09 6.70927e-09)
(-2.86713e-10 -5.63405e-09 6.75198e-09)
(-2.27107e-09 -6.17587e-09 7.25917e-09)
(3.15868e-10 2.67163e-11 4.49316e-10)
(5.22703e-11 -2.01729e-10 5.09978e-10)
(-4.03162e-11 -2.10129e-10 5.17356e-10)
(-2.83095e-10 -1.16677e-11 4.7125e-10)
(5.14528e-10 -5.36817e-10 1.37491e-09)
(1.40182e-10 -6.74515e-10 1.49993e-09)
(-7.38723e-11 -6.98015e-10 1.51844e-09)
(-4.21838e-10 -6.14431e-10 1.42939e-09)
(5.09081e-10 -1.17302e-09 2.14739e-09)
(1.64833e-10 -1.23339e-09 2.30271e-09)
(-2.42386e-11 -1.26882e-09 2.32871e-09)
(-3.43508e-10 -1.28305e-09 2.22385e-09)
(4.69876e-10 -1.85398e-09 2.81295e-09)
(1.74157e-10 -1.9155e-09 2.97386e-09)
(5.72163e-11 -1.96085e-09 3.00456e-09)
(-2.14703e-10 -1.99251e-09 2.90349e-09)
(4.92021e-10 -2.57329e-09 3.45429e-09)
(2.1374e-10 -2.70466e-09 3.60851e-09)
(1.23813e-10 -2.75891e-09 3.64218e-09)
(-1.31311e-10 -2.7377e-09 3.5539e-09)
(6.90571e-10 -3.32685e-09 4.12878e-09)
(3.36351e-10 -3.55336e-09 4.27268e-09)
(1.21868e-10 -3.61589e-09 4.30835e-09)
(-2.09611e-10 -3.51524e-09 4.23451e-09)
(1.25021e-09 -4.15913e-09 4.80387e-09)
(5.92052e-10 -4.32693e-09 4.94006e-09)
(8.83725e-14 -4.39753e-09 4.97709e-09)
(-6.35169e-10 -4.37096e-09 4.91377e-09)
(2.20347e-09 -5.42138e-09 5.18428e-09)
(8.63247e-10 -5.01963e-09 5.31974e-09)
(-1.26523e-10 -5.09575e-09 5.35734e-09)
(-1.44132e-09 -5.6546e-09 5.29594e-09)
(-7.405e-12 -1.58122e-10 3.02901e-10)
(-5.58387e-11 -2.86501e-10 4.06796e-10)
(6.04387e-11 -2.94373e-10 4.12427e-10)
(3.09375e-11 -1.91638e-10 3.19376e-10)
(-3.39869e-11 -8.48996e-10 1.02686e-09)
(-6.77084e-11 -9.16006e-10 1.21566e-09)
(1.11879e-10 -9.3864e-10 1.22976e-09)
(1.02043e-10 -9.20494e-10 1.06766e-09)
(-6.94855e-11 -1.51192e-09 1.72691e-09)
(-6.39132e-11 -1.55002e-09 1.94193e-09)
(1.69431e-10 -1.58448e-09 1.96198e-09)
(1.97808e-10 -1.61642e-09 1.78518e-09)
(-9.41649e-11 -2.16386e-09 2.36395e-09)
(-5.22422e-11 -2.226e-09 2.58254e-09)
(2.38298e-10 -2.27041e-09 2.60667e-09)
(3.02284e-10 -2.29768e-09 2.43461e-09)
(-5.83524e-11 -2.80885e-09 2.95917e-09)
(-9.52843e-12 -2.94719e-09 3.17334e-09)
(2.94157e-10 -3.0006e-09 3.20028e-09)
(3.64796e-10 -2.9695e-09 3.03857e-09)
(1.51729e-10 -3.41996e-09 3.5175e-09)
(1.14581e-10 -3.65433e-09 3.7246e-09)
(2.85379e-10 -3.7162e-09 3.7535e-09)
(2.69995e-10 -3.60558e-09 3.60304e-09)
(7.23209e-10 -4.02116e-09 3.96202e-09)
(3.71238e-10 -4.19731e-09 4.16215e-09)
(1.59197e-10 -4.26745e-09 4.19234e-09)
(-1.70453e-10 -4.23117e-09 4.05155e-09)
(1.67831e-09 -5.04096e-09 4.10705e-09)
(6.43333e-10 -4.65552e-09 4.30559e-09)
(2.96422e-11 -4.73131e-09 4.33631e-09)
(-9.79992e-10 -5.27299e-09 4.19823e-09)
(-1.09133e-10 -2.12585e-10 2.57147e-10)
(-9.31704e-11 -2.96562e-10 3.13753e-10)
(9.32587e-11 -3.03677e-10 3.18167e-10)
(1.26766e-10 -2.41925e-10 2.70029e-10)
(-2.29845e-10 -9.72052e-10 8.35997e-10)
(-1.50913e-10 -1.00337e-09 9.4317e-10)
(1.80231e-10 -1.0242e-09 9.5404e-10)
(2.81498e-10 -1.03627e-09 8.67219e-10)
(-2.87443e-10 -1.67415e-09 1.419e-09)
(-1.61621e-10 -1.69853e-09 1.5429e-09)
(2.42117e-10 -1.73098e-09 1.55831e-09)
(3.89611e-10 -1.77114e-09 1.46352e-09)
(-3.06003e-10 -2.31349e-09 1.96788e-09)
(-1.5057e-10 -2.37581e-09 2.09408e-09)
(3.02756e-10 -2.4184e-09 2.11276e-09)
(4.79483e-10 -2.44074e-09 2.02243e-09)
(-2.58671e-10 -2.89385e-09 2.46809e-09)
(-1.05769e-10 -3.03786e-09 2.59104e-09)
(3.49482e-10 -3.08979e-09 2.61213e-09)
(5.23707e-10 -3.04926e-09 2.53019e-09)
(-3.66097e-11 -3.3984e-09 2.8959e-09)
(2.02766e-11 -3.64018e-09 3.01335e-09)
(3.33636e-10 -3.70096e-09 3.03617e-09)
(4.12026e-10 -3.58026e-09 2.96348e-09)
(5.44996e-10 -3.88956e-09 3.19273e-09)
(2.7809e-10 -4.07625e-09 3.30444e-09)
(2.02986e-10 -4.14577e-09 3.32843e-09)
(-4.16259e-11 -4.09747e-09 3.26393e-09)
(1.50225e-09 -4.85168e-09 3.28094e-09)
(5.51676e-10 -4.49024e-09 3.39239e-09)
(7.02301e-11 -4.56588e-09 3.41698e-09)
(-8.54814e-10 -5.08343e-09 3.35393e-09)
(-1.29051e-10 -2.33067e-10 2.12444e-10)
(-9.72663e-11 -2.99621e-10 2.33646e-10)
(9.45318e-11 -3.06154e-10 2.36992e-10)
(1.42798e-10 -2.59438e-10 2.22188e-10)
(-2.70096e-10 -1.01441e-09 6.63434e-10)
(-1.65987e-10 -1.03166e-09 7.04983e-10)
(1.85403e-10 -1.0509e-09 7.13132e-10)
(3.10686e-10 -1.07277e-09 6.86701e-10)
(-3.34305e-10 -1.73305e-09 1.11646e-09)
(-1.82583e-10 -1.75163e-09 1.16553e-09)
(2.4565e-10 -1.78214e-09 1.17703e-09)
(4.18243e-10 -1.8234e-09 1.14951e-09)
(-3.50337e-10 -2.36359e-09 1.54638e-09)
(-1.73008e-10 -2.42626e-09 1.59652e-09)
(3.00743e-10 -2.46702e-09 1.61048e-09)
(4.98862e-10 -2.48468e-09 1.58699e-09)
(-2.9644e-10 -2.90597e-09 1.93067e-09)
(-1.27764e-10 -3.0535e-09 1.97879e-09)
(3.41116e-10 -3.10393e-09 1.99464e-09)
(5.30821e-10 -3.05636e-09 1.97721e-09)
(-6.70046e-11 -3.35926e-09 2.24263e-09)
(-8.50688e-13 -3.60614e-09 2.28724e-09)
(3.19926e-10 -3.66588e-09 2.30448e-09)
(4.07467e-10 -3.53761e-09 2.29362e-09)
(5.2028e-10 -3.81617e-09 2.44877e-09)
(2.57495e-10 -4.0108e-09 2.48968e-09)
(1.85833e-10 -4.07982e-09 2.5079e-09)
(-5.46157e-11 -4.0224e-09 2.50278e-09)
(1.48026e-09 -4.76654e-09 2.52084e-09)
(5.32502e-10 -4.42225e-09 2.56169e-09)
(5.03425e-11 -4.49794e-09 2.5805e-09)
(-8.7181e-10 -4.99869e-09 2.57661e-09)
(-1.29287e-10 -2.41039e-10 1.58424e-10)
(-9.42325e-11 -3.01448e-10 1.64044e-10)
(8.97244e-11 -3.07579e-10 1.66384e-10)
(1.40484e-10 -2.65382e-10 1.65223e-10)
(-2.67623e-10 -1.02499e-09 4.82502e-10)
(-1.62472e-10 -1.03814e-09 4.93797e-10)
(1.75404e-10 -1.05624e-09 4.99464e-10)
(3.00865e-10 -1.07921e-09 4.98611e-10)
(-3.30028e-10 -1.74472e-09 8.03864e-10)
(-1.8016e-10 -1.76186e-09 8.17395e-10)
(2.31498e-10 -1.7909e-09 8.25369e-10)
(4.01628e-10 -1.83011e-09 8.26675e-10)
(-3.4401e-10 -2.36794e-09 1.10738e-09)
(-1.71575e-10 -2.43121e-09 1.12109e-09)
(2.82459e-10 -2.47052e-09 1.13078e-09)
(4.75297e-10 -2.48424e-09 1.13544e-09)
(-2.87109e-10 -2.89353e-09 1.37507e-09)
(-1.26794e-10 -3.04299e-09 1.38771e-09)
(3.18808e-10 -3.09221e-09 1.39872e-09)
(4.99929e-10 -3.03993e-09 1.40734e-09)
(-5.43901e-11 -3.33013e-09 1.58765e-09)
(6.17573e-15 -3.57988e-09 1.59848e-09)
(2.94232e-10 -3.6388e-09 1.6105e-09)
(3.6993e-10 -3.50572e-09 1.62315e-09)
(5.35661e-10 -3.78246e-09 1.72793e-09)
(2.58432e-10 -3.98133e-09 1.73679e-09)
(1.57773e-10 -4.05001e-09 1.74955e-09)
(-9.7095e-11 -3.98749e-09 1.76569e-09)
(1.49831e-09 -4.73109e-09 1.78543e-09)
(5.34486e-10 -4.39479e-09 1.79409e-09)
(2.03023e-11 -4.47063e-09 1.80734e-09)
(-9.17935e-10 -4.96385e-09 1.82463e-09)
(-1.27761e-10 -2.43704e-10 9.75219e-11)
(-9.18805e-11 -3.01965e-10 9.82733e-11)
(8.63258e-11 -3.07841e-10 9.9655e-11)
(1.37404e-10 -2.66775e-10 1.01527e-10)
(-2.61454e-10 -1.02475e-09 2.92791e-10)
(-1.58415e-10 -1.0372e-09 2.94398e-10)
(1.67414e-10 -1.05457e-09 2.97735e-10)
(2.90189e-10 -1.07634e-09 3.02246e-10)
(-3.20717e-10 -1.74082e-09 4.84207e-10)
(-1.75858e-10 -1.75808e-09 4.86115e-10)
(2.19966e-10 -1.78616e-09 4.90804e-10)
(3.84669e-10 -1.823e-09 4.97575e-10)
(-3.32958e-10 -2.35902e-09 6.63735e-10)
(-1.6773e-10 -2.42286e-09 6.655e-10)
(2.68079e-10 -2.4612e-09 6.71195e-10)
(4.53434e-10 -2.47214e-09 6.80186e-10)
(-2.7479e-10 -2.87897e-09 8.20818e-10)
(-1.23533e-10 -3.0294e-09 8.22088e-10)
(3.02041e-10 -3.07781e-09 8.28572e-10)
(4.73939e-10 -3.02269e-09 8.39767e-10)
(-4.09079e-11 -3.31308e-09 9.44758e-10)
(2.846e-12 -3.5642e-09 9.45256e-10)
(2.75528e-10 -3.62257e-09 9.52349e-10)
(3.40515e-10 -3.48684e-09 9.65646e-10)
(5.50482e-10 -3.7686e-09 1.0275e-09)
(2.61227e-10 -3.96918e-09 1.02714e-09)
(1.37572e-10 -4.03766e-09 1.03469e-09)
(-1.29318e-10 -3.9729e-09 1.04979e-09)
(1.51517e-09 -4.71812e-09 1.06491e-09)
(5.37919e-10 -4.38407e-09 1.0643e-09)
(-1.11726e-12 -4.46004e-09 1.07217e-09)
(-9.52828e-10 -4.95141e-09 1.08814e-09)
(-1.27186e-10 -2.44375e-10 3.28944e-11)
(-9.09374e-11 -3.01891e-10 3.28322e-11)
(8.4898e-11 -3.07644e-10 3.32886e-11)
(1.36092e-10 -2.66834e-10 3.42158e-11)
(-2.58699e-10 -1.02287e-09 9.81083e-11)
(-1.56684e-10 -1.03536e-09 9.80279e-11)
(1.63833e-10 -1.05237e-09 9.91293e-11)
(2.85293e-10 -1.07321e-09 1.01223e-10)
(-3.16209e-10 -1.73614e-09 1.61632e-10)
(-1.73896e-10 -1.75368e-09 1.61516e-10)
(2.14572e-10 -1.7813e-09 1.63063e-10)
(3.76514e-10 -1.81676e-09 1.66033e-10)
(-3.27481e-10 -2.3519e-09 2.20955e-10)
(-1.65935e-10 -2.41607e-09 2.20753e-10)
(2.61247e-10 -2.45394e-09 2.22632e-10)
(4.42776e-10 -2.46347e-09 2.26372e-10)
(-2.68829e-10 -2.87053e-09 2.72676e-10)
(-1.22075e-10 -3.02136e-09 2.72333e-10)
(2.94086e-10 -3.06936e-09 2.74472e-10)
(4.61392e-10 -3.01294e-09 2.7892e-10)
(-3.46048e-11 -3.30543e-09 3.13441e-10)
(4.02242e-12 -3.55706e-09 3.12894e-10)
(2.66688e-10 -3.61517e-09 3.15237e-10)
(3.26508e-10 -3.47829e-09 3.20331e-10)
(5.57368e-10 -3.76382e-09 3.40889e-10)
(2.62378e-10 -3.96489e-09 3.40106e-10)
(1.28e-10 -4.03328e-09 3.42604e-10)
(-1.44629e-10 -3.96778e-09 3.48249e-10)
(1.52314e-09 -4.71437e-09 3.53866e-10)
(5.39367e-10 -4.38048e-09 3.52971e-10)
(-1.12505e-11 -4.45654e-09 3.55582e-10)
(-9.6952e-10 -4.94798e-09 3.61549e-10)
)
;

boundaryField
{
    interface
    {
        type            calculated;
        value           nonuniform List<vector> 
192
(
(-5.10943e-12 1.30344e-09 1.0267e-09)
(3.57922e-10 2.48903e-10 2.11426e-09)
(3.88912e-10 -6.28068e-10 2.86466e-09)
(3.71081e-10 -1.36526e-09 3.52336e-09)
(4.24517e-10 -2.05678e-09 4.18086e-09)
(6.43504e-10 -2.74059e-09 4.91836e-09)
(1.15355e-09 -3.62678e-09 5.83744e-09)
(2.4829e-09 -5.69172e-09 6.89324e-09)
(-1.08117e-09 2.34316e-10 2.10588e-10)
(-9.49673e-10 -4.88512e-10 1.00576e-09)
(-9.43077e-10 -1.18418e-09 1.7664e-09)
(-9.54493e-10 -1.85824e-09 2.43982e-09)
(-9.01313e-10 -2.51812e-09 3.08673e-09)
(-6.88368e-10 -3.1373e-09 3.76459e-09)
(-1.85406e-10 -3.7809e-09 4.44283e-09)
(1.18983e-09 -5.1706e-09 4.82619e-09)
(-1.39755e-09 -1.68469e-10 1.96664e-10)
(-1.44948e-09 -8.64515e-10 8.40775e-10)
(-1.47255e-09 -1.52697e-09 1.52779e-09)
(-1.47262e-09 -2.16107e-09 2.16999e-09)
(-1.40731e-09 -2.74737e-09 2.7715e-09)
(-1.18053e-09 -3.22457e-09 3.33571e-09)
(-6.56261e-10 -3.63951e-09 3.78572e-09)
(7.13707e-10 -4.78686e-09 3.93175e-09)
(-1.53493e-09 -2.97328e-10 2.26745e-10)
(-1.66732e-09 -1.01663e-09 7.76977e-10)
(-1.71103e-09 -1.69319e-09 1.3528e-09)
(-1.70502e-09 -2.3063e-09 1.90385e-09)
(-1.62785e-09 -2.8265e-09 2.40858e-09)
(-1.38784e-09 -3.19748e-09 2.84122e-09)
(-8.50436e-10 -3.50484e-09 3.142e-09)
(5.15608e-10 -4.59285e-09 3.23144e-09)
(-1.5962e-09 -3.32853e-10 2.07412e-10)
(-1.74511e-09 -1.06572e-09 6.53994e-10)
(-1.79416e-09 -1.75311e-09 1.10582e-09)
(-1.78456e-09 -2.35412e-09 1.53688e-09)
(-1.69977e-09 -2.83513e-09 1.92357e-09)
(-1.45167e-09 -3.15508e-09 2.23819e-09)
(-9.0862e-10 -3.42936e-09 2.44644e-09)
(4.55173e-10 -4.50395e-09 2.51986e-09)
(-1.63029e-09 -3.40264e-10 1.58751e-10)
(-1.77534e-09 -1.07517e-09 4.84666e-10)
(-1.8217e-09 -1.76382e-09 8.07264e-10)
(-1.80898e-09 -2.35721e-09 1.11173e-09)
(-1.72025e-09 -2.82112e-09 1.38048e-09)
(-1.46864e-09 -3.12444e-09 1.59418e-09)
(-9.2399e-10 -3.39428e-09 1.73548e-09)
(4.39688e-10 -4.46629e-09 1.79416e-09)
(-1.65198e-09 -3.41005e-10 9.80498e-11)
(-1.79192e-09 -1.07299e-09 2.95024e-10)
(-1.83457e-09 -1.7587e-09 4.87664e-10)
(-1.81935e-09 -2.34753e-09 6.67869e-10)
(-1.72876e-09 -2.80596e-09 8.2539e-10)
(-1.47601e-09 -3.10676e-09 9.49706e-10)
(-9.31219e-10 -3.37958e-09 1.03293e-09)
(4.33161e-10 -4.45225e-09 1.07112e-09)
(-1.66311e-09 -3.40844e-10 3.30392e-11)
(-1.80067e-09 -1.07013e-09 9.87978e-11)
(-1.84129e-09 -1.75333e-09 1.62759e-10)
(-1.82474e-09 -2.34005e-09 2.22325e-10)
(-1.73338e-09 -2.79731e-09 2.74167e-10)
(-1.48036e-09 -3.09888e-09 3.15018e-10)
(-9.35687e-10 -3.37438e-09 3.42611e-10)
(4.2926e-10 -4.44812e-09 3.5586e-10)
(9.38976e-10 1.58966e-09 1.82665e-10)
(1.4597e-09 6.05997e-10 1.21676e-09)
(1.48378e-09 -2.63372e-10 2.0025e-09)
(1.42603e-09 -1.02821e-09 2.70581e-09)
(1.43274e-09 -1.7631e-09 3.4084e-09)
(1.62118e-09 -2.51714e-09 4.16989e-09)
(2.17492e-09 -3.50933e-09 5.03779e-09)
(3.1229e-09 -5.67706e-09 6.46635e-09)
(9.10699e-11 9.66443e-10 -4.81426e-10)
(2.67511e-10 3.60974e-10 4.93789e-10)
(3.1894e-10 -3.35423e-10 1.28453e-09)
(3.27136e-10 -1.09239e-09 1.97568e-09)
(3.60478e-10 -1.90208e-09 2.649e-09)
(4.76714e-10 -2.75059e-09 3.37265e-09)
(7.28839e-10 -3.67458e-09 4.21287e-09)
(1.00543e-09 -5.28969e-09 5.71583e-09)
(-5.80013e-11 9.67911e-10 -4.7782e-10)
(-1.45975e-10 3.46161e-10 5.10926e-10)
(-9.95266e-11 -3.65307e-10 1.30973e-09)
(-1.47116e-12 -1.13461e-09 2.00567e-09)
(8.14646e-11 -1.9545e-09 2.68185e-09)
(9.27343e-11 -2.81184e-09 3.40718e-09)
(-2.04922e-11 -3.74427e-09 4.2483e-09)
(-1.49262e-10 -5.36528e-09 5.75098e-09)
(-8.81917e-10 1.57927e-09 2.10729e-10)
(-1.30758e-09 5.49402e-10 1.29016e-09)
(-1.2357e-09 -3.60887e-10 2.09917e-09)
(-1.07334e-09 -1.15998e-09 2.81579e-09)
(-9.64731e-10 -1.92369e-09 3.52606e-09)
(-1.02652e-09 -2.70273e-09 4.29196e-09)
(-1.44194e-09 -3.71889e-09 5.16267e-09)
(-2.24034e-09 -5.90984e-09 6.59361e-09)
(2.07859e-10 1.22314e-09 1.06542e-09)
(-7.32409e-11 1.3312e-10 2.2071e-09)
(-1.75366e-11 -7.8232e-10 2.99014e-09)
(9.70384e-11 -1.55575e-09 3.66813e-09)
(1.51601e-10 -2.28012e-09 4.33725e-09)
(5.22879e-11 -2.99406e-09 5.08233e-09)
(-3.23383e-10 -3.90958e-09 6.00731e-09)
(-1.48388e-09 -6.00124e-09 7.06708e-09)
(1.24972e-09 1.64566e-10 2.38479e-10)
(1.17541e-09 -5.99327e-10 1.07555e-09)
(1.24056e-09 -1.33483e-09 1.86509e-09)
(1.33904e-09 -2.04556e-09 2.55759e-09)
(1.38759e-09 -2.73897e-09 3.21707e-09)
(1.29058e-09 -3.38927e-09 3.90342e-09)
(9.1999e-10 -4.06302e-09 4.58728e-09)
(-2.88365e-10 -5.47898e-09 4.97316e-09)
(1.5558e-09 -2.24884e-10 2.16891e-10)
(1.64997e-09 -9.62213e-10 8.91808e-10)
(1.73247e-09 -1.66648e-09 1.60188e-09)
(1.8101e-09 -2.33943e-09 2.26104e-09)
(1.83971e-09 -2.96142e-09 2.8748e-09)
(1.7246e-09 -3.47176e-09 3.44762e-09)
(1.33067e-09 -3.91866e-09 3.90315e-09)
(1.26685e-10 -5.09338e-09 4.05159e-09)
(1.68997e-09 -3.43993e-10 2.42049e-10)
(1.85452e-09 -1.10199e-09 8.15045e-10)
(1.94817e-09 -1.82064e-09 1.4084e-09)
(2.01143e-09 -2.47427e-09 1.97327e-09)
(2.02265e-09 -3.0324e-09 2.48867e-09)
(1.88983e-09 -3.43892e-09 2.9291e-09)
(1.48036e-09 -3.78074e-09 3.23496e-09)
(2.79367e-10 -4.89857e-09 3.32688e-09)
(1.75078e-09 -3.72811e-10 2.18749e-10)
(1.92495e-09 -1.14163e-09 6.81851e-10)
(2.01695e-09 -1.87044e-09 1.1465e-09)
(2.07001e-09 -2.51283e-09 1.58803e-09)
(2.06803e-09 -3.0335e-09 1.98315e-09)
(1.923e-09 -3.39124e-09 2.30414e-09)
(1.5055e-09 -3.70256e-09 2.51665e-09)
(3.05816e-10 -4.80969e-09 2.59238e-09)
(1.78534e-09 -3.75721e-10 1.66564e-10)
(1.95105e-09 -1.14449e-09 5.0373e-10)
(2.03546e-09 -1.87372e-09 8.35063e-10)
(2.08055e-09 -2.50881e-09 1.14679e-09)
(2.07034e-09 -3.01358e-09 1.42155e-09)
(1.91854e-09 -3.35646e-09 1.63988e-09)
(1.4975e-09 -3.66551e-09 1.78436e-09)
(2.9722e-10 -4.77238e-09 1.84488e-09)
(1.80755e-09 -3.73676e-10 1.02621e-10)
(1.96531e-09 -1.13816e-09 3.06136e-10)
(2.04291e-09 -1.86381e-09 5.03851e-10)
(2.08236e-09 -2.49446e-09 6.88314e-10)
(2.06744e-09 -2.99446e-09 8.49398e-10)
(1.91228e-09 -3.33601e-09 9.76499e-10)
(1.48977e-09 -3.64954e-09 1.06167e-09)
(2.88337e-10 -4.75874e-09 1.10103e-09)
(1.819e-09 -3.72183e-10 3.45425e-11)
(1.97302e-09 -1.13331e-09 1.02446e-10)
(2.04709e-09 -1.85613e-09 1.68071e-10)
(2.08367e-09 -2.48468e-09 2.29035e-10)
(2.06658e-09 -2.98386e-09 2.82056e-10)
(1.91005e-09 -3.32677e-09 3.23832e-10)
(1.48701e-09 -3.64375e-09 3.52076e-10)
(2.84816e-10 -4.75486e-09 3.65722e-10)
(3.13989e-09 -5.28247e-09 7.12849e-09)
(2.2284e-09 -4.38857e-09 4.95898e-09)
(1.70898e-09 -4.05682e-09 3.96463e-09)
(1.54128e-09 -3.84062e-09 3.21234e-09)
(1.52546e-09 -3.7096e-09 2.49069e-09)
(1.54662e-09 -3.63381e-09 1.77332e-09)
(1.56457e-09 -3.59302e-09 1.06073e-09)
(1.57277e-09 -3.57535e-09 3.5293e-10)
(1.02195e-09 -4.56502e-09 6.70888e-09)
(7.81818e-10 -3.59841e-09 5.09408e-09)
(5.65894e-10 -3.29632e-09 4.17324e-09)
(4.80199e-10 -3.11895e-09 3.33408e-09)
(4.65324e-10 -3.01601e-09 2.53783e-09)
(4.69341e-10 -2.9533e-09 1.78454e-09)
(4.73371e-10 -2.91628e-09 1.06072e-09)
(4.74882e-10 -2.89899e-09 3.52076e-10)
(-1.32299e-10 -4.63334e-09 6.75179e-09)
(3.2198e-11 -3.66803e-09 5.13165e-09)
(1.83989e-10 -3.36619e-09 4.20385e-09)
(2.18506e-10 -3.18888e-09 3.35864e-09)
(1.94429e-10 -3.08596e-09 2.55669e-09)
(1.62542e-10 -3.02331e-09 1.79787e-09)
(1.40693e-10 -2.98635e-09 1.06865e-09)
(1.30597e-10 -2.96911e-09 3.54708e-10)
(-2.22294e-09 -5.51025e-09 7.26187e-09)
(-1.38944e-09 -4.61659e-09 5.07022e-09)
(-9.34401e-10 -4.28536e-09 4.05544e-09)
(-8.17879e-10 -4.07e-09 3.28536e-09)
(-8.41148e-10 -3.93996e-09 2.54671e-09)
(-8.90391e-10 -3.86517e-09 1.81281e-09)
(-9.26349e-10 -3.82516e-09 1.08417e-09)
(-9.43249e-10 -3.80794e-09 3.60692e-10)
)
;
    }
    symmetry
    {
        type            symmetry;
    }
    bottom
    {
        type            calculated;
        value           uniform (0 0 0);
    }
}


// ************************************************************************* //
