/*--------------------------------*- C++ -*----------------------------------*\
| =========                 |                                                 |
| \\      /  F ield         | OpenFOAM: The Open Source CFD Toolbox           |
|  \\    /   O peration     | Version:  v1912                                 |
|   \\  /    A nd           | Website:  www.openfoam.com                      |
|    \\/     M anipulation  |                                                 |
\*---------------------------------------------------------------------------*/
FoamFile
{
    version     2.0;
    format      ascii;
    class       volScalarField;
    location    "0.15/solid";
    object      epsilonEq;
}
// * * * * * * * * * * * * * * * * * * * * * * * * * * * * * * * * * * * * * //

dimensions      [0 0 0 0 0 0 0];


internalField   nonuniform List<scalar> 
256
(
2.24036e-06
2.01185e-06
1.99706e-06
2.19762e-06
1.76783e-06
1.84718e-06
1.82914e-06
1.72261e-06
1.84117e-06
1.87422e-06
1.85579e-06
1.79789e-06
1.92583e-06
1.92801e-06
1.90978e-06
1.88424e-06
2.02268e-06
2.01393e-06
1.99594e-06
1.98206e-06
2.1583e-06
2.14677e-06
2.12899e-06
2.11851e-06
2.16952e-06
2.24351e-06
2.22652e-06
2.1346e-06
2.30693e-07
2.3821e-06
2.36538e-06
1.98887e-07
1.83535e-06
4.14909e-07
4.08787e-07
1.79165e-06
1.64688e-06
3.45461e-07
3.38262e-07
1.60332e-06
1.67408e-06
3.08525e-07
3.02112e-07
1.63091e-06
1.72608e-06
3.04952e-07
2.9914e-07
1.68251e-06
1.80192e-06
3.2293e-07
3.1745e-07
1.75754e-06
1.91208e-06
3.08741e-07
3.03732e-07
1.86754e-06
1.978e-06
1.40096e-07
1.37912e-07
1.93877e-06
2.16936e-06
2.24368e-06
2.22718e-06
2.13598e-06
1.70163e-06
3.28582e-07
3.22113e-07
1.65992e-06
1.59172e-06
3.72531e-07
3.64981e-07
1.5468e-06
1.62521e-06
3.66165e-07
3.59119e-07
1.57953e-06
1.6717e-06
3.61038e-07
3.54285e-07
1.62505e-06
1.73938e-06
3.66268e-07
3.59583e-07
1.69154e-06
1.83995e-06
3.45759e-07
3.39411e-07
1.79165e-06
1.9124e-06
3.05307e-07
3.0174e-07
1.86892e-06
2.15797e-06
2.14683e-06
2.12997e-06
2.12165e-06
1.59934e-06
3.0675e-07
3.01307e-07
1.56214e-06
1.50349e-06
3.80159e-07
3.73689e-07
1.46154e-06
1.54212e-06
3.86966e-07
3.80611e-07
1.49859e-06
1.5864e-06
3.81682e-07
3.75443e-07
1.54147e-06
1.64775e-06
3.81034e-07
3.74828e-07
1.60145e-06
1.73925e-06
3.5686e-07
3.51053e-07
1.6924e-06
1.80326e-06
3.12372e-07
3.09369e-07
1.76108e-06
2.02519e-06
2.01501e-06
1.99849e-06
1.99063e-06
1.53834e-06
2.9034e-07
2.85931e-07
1.50511e-06
1.4455e-06
3.64509e-07
3.59131e-07
1.40683e-06
1.48516e-06
3.72867e-07
3.67382e-07
1.44442e-06
1.52785e-06
3.65969e-07
3.6049e-07
1.48537e-06
1.58531e-06
3.60935e-07
3.55454e-07
1.54128e-06
1.67139e-06
3.31955e-07
3.26853e-07
1.62668e-06
1.72997e-06
2.77368e-07
2.75214e-07
1.68978e-06
1.94034e-06
1.93274e-06
1.91656e-06
1.90788e-06
1.50021e-06
2.76686e-07
2.73047e-07
1.4699e-06
1.40847e-06
3.46134e-07
3.41576e-07
1.37239e-06
1.44754e-06
3.52169e-07
3.47394e-07
1.40913e-06
1.48887e-06
3.43286e-07
3.38454e-07
1.44851e-06
1.54405e-06
3.35725e-07
3.30836e-07
1.50197e-06
1.62722e-06
3.0408e-07
2.99495e-07
1.5843e-06
1.68278e-06
2.43492e-07
2.4203e-07
1.64426e-06
1.8878e-06
1.88516e-06
1.86925e-06
1.85708e-06
1.47733e-06
2.66726e-07
2.63598e-07
1.44891e-06
1.38622e-06
3.32549e-07
3.28542e-07
1.35189e-06
1.42454e-06
3.36407e-07
3.32129e-07
1.38775e-06
1.46491e-06
3.26136e-07
3.21763e-07
1.42604e-06
1.51882e-06
3.17485e-07
3.13e-07
1.47811e-06
1.60055e-06
2.84959e-07
2.80703e-07
1.55886e-06
1.65452e-06
2.21505e-07
2.20514e-07
1.61715e-06
1.85646e-06
1.85916e-06
1.84343e-06
1.82695e-06
1.46653e-06
2.61447e-07
2.58576e-07
1.43903e-06
1.37575e-06
3.25637e-07
3.21912e-07
1.34229e-06
1.41364e-06
3.28443e-07
3.24425e-07
1.37767e-06
1.45353e-06
3.17549e-07
3.13417e-07
1.41542e-06
1.50689e-06
3.08557e-07
3.0428e-07
1.46687e-06
1.58802e-06
2.7587e-07
2.71779e-07
1.54696e-06
1.64129e-06
2.11292e-07
2.10541e-07
1.6045e-06
1.84168e-06
1.84762e-06
1.83197e-06
1.81279e-06
)
;

boundaryField
{
    interface
    {
        type            calculated;
        value           nonuniform List<scalar> 
192
(
3.26186e-06
2.76796e-06
2.85911e-06
2.96649e-06
3.09785e-06
3.29835e-06
3.44198e-06
1.80985e-06
3.23871e-06
2.99425e-06
3.04329e-06
3.12924e-06
3.25806e-06
3.46995e-06
3.72419e-06
3.44188e-06
2.94698e-06
2.77261e-06
2.82388e-06
2.90338e-06
3.02292e-06
3.22209e-06
3.4709e-06
3.29858e-06
2.75304e-06
2.59129e-06
2.64581e-06
2.7227e-06
2.83582e-06
3.02474e-06
3.26163e-06
3.10183e-06
2.64423e-06
2.48693e-06
2.54223e-06
2.61747e-06
2.72682e-06
2.90979e-06
3.13932e-06
2.98436e-06
2.57981e-06
2.42545e-06
2.48057e-06
2.55457e-06
2.66166e-06
2.84131e-06
3.06655e-06
2.91384e-06
2.54259e-06
2.39009e-06
2.44487e-06
2.51803e-06
2.62386e-06
2.80173e-06
3.02458e-06
2.87255e-06
2.52538e-06
2.37376e-06
2.42832e-06
2.50108e-06
2.60633e-06
2.78343e-06
3.00521e-06
2.85326e-06
3.46055e-06
2.98614e-06
3.0741e-06
3.17689e-06
3.30417e-06
3.50366e-06
3.66195e-06
2.1997e-06
3.5976e-06
3.3745e-06
3.42724e-06
3.51632e-06
3.65466e-06
3.88649e-06
4.16895e-06
3.85419e-06
3.57036e-06
3.34302e-06
3.39487e-06
3.48396e-06
3.62244e-06
3.85445e-06
4.13767e-06
3.82842e-06
3.38729e-06
2.90695e-06
2.99556e-06
3.09958e-06
3.22771e-06
3.42765e-06
3.58788e-06
2.14108e-06
3.21805e-06
2.72212e-06
2.81422e-06
2.92222e-06
3.05383e-06
3.25549e-06
3.40824e-06
1.84633e-06
3.17113e-06
2.9245e-06
2.97273e-06
3.05712e-06
3.1841e-06
3.39523e-06
3.65618e-06
3.40935e-06
2.88035e-06
2.70056e-06
2.74992e-06
2.82727e-06
2.94451e-06
3.14238e-06
3.39694e-06
3.25857e-06
2.69169e-06
2.52288e-06
2.57467e-06
2.64898e-06
2.75958e-06
2.94704e-06
3.18926e-06
3.06278e-06
2.58771e-06
2.42254e-06
2.47463e-06
2.54696e-06
2.6536e-06
2.83498e-06
3.06956e-06
2.94754e-06
2.52691e-06
2.36427e-06
2.41592e-06
2.48679e-06
2.59103e-06
2.76894e-06
2.99904e-06
2.87904e-06
2.49206e-06
2.3311e-06
2.38228e-06
2.4522e-06
2.55505e-06
2.73108e-06
2.95866e-06
2.83923e-06
2.47602e-06
2.31587e-06
2.36679e-06
2.43625e-06
2.53846e-06
2.71367e-06
2.94011e-06
2.82071e-06
2.19988e-06
3.66187e-06
3.50365e-06
3.30748e-06
3.19343e-06
3.12627e-06
3.08732e-06
3.06918e-06
3.85433e-06
4.16915e-06
3.88711e-06
3.65764e-06
3.52644e-06
3.4522e-06
3.41154e-06
3.39338e-06
3.8286e-06
4.13825e-06
3.8558e-06
3.6266e-06
3.4957e-06
3.42173e-06
3.38126e-06
3.36321e-06
2.14146e-06
3.58906e-06
3.43057e-06
3.23614e-06
3.1238e-06
3.05805e-06
3.02008e-06
3.00244e-06
)
;
    }
    symmetry
    {
        type            symmetry;
    }
    bottom
    {
        type            calculated;
        value           nonuniform List<scalar> 
32
(
2.69707e-06
2.0258e-06
1.8585e-06
1.75526e-06
1.69315e-06
1.65348e-06
1.62949e-06
1.61814e-06
2.18732e-06
4.805e-07
3.44984e-07
3.13371e-07
2.96402e-07
2.83725e-07
2.74684e-07
2.69889e-07
2.17409e-06
4.73881e-07
3.38237e-07
3.08047e-07
2.92281e-07
2.80443e-07
2.7195e-07
2.6743e-07
2.65721e-06
1.9815e-06
1.81818e-06
1.72091e-06
1.66362e-06
1.62736e-06
1.60553e-06
1.59523e-06
)
;
    }
}


// ************************************************************************* //
