/*--------------------------------*- C++ -*----------------------------------*\
| =========                 |                                                 |
| \\      /  F ield         | OpenFOAM: The Open Source CFD Toolbox           |
|  \\    /   O peration     | Version:  v1912                                 |
|   \\  /    A nd           | Website:  www.openfoam.com                      |
|    \\/     M anipulation  |                                                 |
\*---------------------------------------------------------------------------*/
FoamFile
{
    version     2.0;
    format      ascii;
    class       volVectorField;
    location    "0.15/solid";
    object      heatFlux;
}
// * * * * * * * * * * * * * * * * * * * * * * * * * * * * * * * * * * * * * //

dimensions      [1 0 -3 0 0 0 0];


internalField   nonuniform List<vector> 
256
(
(-100467 33926.8 -107401)
(-8206.44 16987.3 -97505.4)
(8304.29 16953.8 -96837)
(99400.9 34163.5 -105157)
(-100505 1259.43 -107489)
(-8766.57 653.194 -98002.5)
(8871.86 650.602 -97285.4)
(99366.3 1264.13 -105085)
(-101604 206.98 -108578)
(-8815.26 95.7428 -98982.2)
(8915.22 94.503 -98240.7)
(100408 198.042 -106103)
(-103468 329.955 -110398)
(-8879.05 153.65 -100644)
(8974.16 153.008 -99891.5)
(102222 321.372 -107887)
(-106583 635.015 -113444)
(-8992.21 313.617 -103508)
(9082.95 313.476 -102751)
(105306 628.374 -110920)
(-111933 1615.33 -118735)
(-9200.59 1000.04 -108696)
(9288.92 1000.2 -107942)
(110682 1616.98 -116218)
(-121484 12552.8 -128399)
(-9607.34 11190.3 -118726)
(9699.88 11165.1 -117981)
(120438 12501.6 -125910)
(-132772 140577 -140573)
(-10588.3 133089 -133086)
(10600.2 132365 -132363)
(132393 138167 -138166)
(-86363.4 15732.8 -9519.17)
(-7013.32 1168.8 -7920.15)
(7201.1 1188.02 -7894.43)
(84861.3 16107.4 -9451.3)
(-86884 617.807 -10163.2)
(-7531.42 56.8342 -8503.91)
(7737.49 57.7386 -8475.37)
(85315.9 632.603 -10087.1)
(-87910.7 102.192 -10211.6)
(-7573.39 4.89235 -8545.41)
(7776.87 4.72487 -8516.09)
(86277 95.7422 -10133.6)
(-89659.7 166.119 -10271.9)
(-7628.88 6.89999 -8597.09)
(7828.34 6.64557 -8567.46)
(87958.2 157.321 -10193.4)
(-92654.3 331.94 -10379.1)
(-7732.86 22.1449 -8695.27)
(7927.29 21.8213 -8665.57)
(90889.5 322.085 -10301.6)
(-97988.1 1013.2 -10579.4)
(-7939 364.017 -8895.31)
(8128.28 363.124 -8865.88)
(96195.6 1007.15 -10504.9)
(-107992 10996.8 -10996.5)
(-8382.94 9356.91 -9356.83)
(8570.43 9328.31 -9328.27)
(106330 10928.4 -10928.5)
(-121488 128405 -12552.4)
(-9607.47 118731 -11190.2)
(9699.76 117984 -11165.1)
(120436 125910 -12501.7)
(-76387.6 14244.4 -933.895)
(-6581.7 563.253 -300.578)
(6773.14 583.967 -299.686)
(74806 14625.1 -925.745)
(-76908.1 566.949 -992.92)
(-7078.74 27.9415 -329.276)
(7288.69 28.941 -328.288)
(75253.2 581.834 -984.352)
(-77904.6 98.3127 -995.228)
(-7119.71 2.5627 -330.595)
(7327.03 2.41325 -329.593)
(76181.7 91.7188 -986.741)
(-79619.5 162.505 -996.301)
(-7174.64 3.78306 -331.64)
(7377.85 3.52834 -330.635)
(77825.9 153.384 -987.936)
(-82584.8 327.505 -997.152)
(-7278.68 15.4066 -333.715)
(7476.63 15.0595 -332.717)
(80721.9 316.895 -989.062)
(-87918.5 997.928 -997.632)
(-7487.08 338.485 -338.478)
(7679.34 337.502 -337.503)
(86015 990.067 -990.192)
(-97994 10579.8 -1012.89)
(-7939.11 8895.46 -364.008)
(8128.22 8865.95 -363.124)
(96193.1 10504.8 -1007.28)
(-111943 118748 -1614.68)
(-9200.91 108704 -999.824)
(9288.65 107946 -1000.1)
(110677 116219 -1617.14)
(-71030.5 13805.9 -318.602)
(-6379.11 538.942 -14.0444)
(6575.94 560.044 -13.7216)
(69481.4 14197.3 -308.916)
(-71545.2 556.474 -333.566)
(-6866.79 26.8178 -15.3038)
(7082.41 27.8316 -14.9549)
(69920.9 571.607 -323.311)
(-72539.8 98.8104 -333.374)
(-6907.76 2.52851 -15.3334)
(7120.73 2.3774 -14.9853)
(70847.1 92.158 -323.15)
(-74259.4 164.195 -332.215)
(-6963.22 3.77951 -15.3196)
(7172.04 3.5217 -14.9739)
(72496.3 155 -322.038)
(-77238.7 330.609 -330.056)
(-7068.43 15.3065 -15.2975)
(7271.95 14.9533 -14.9552)
(75406.5 319.829 -319.944)
(-82594.5 997.457 -326.945)
(-7278.87 333.724 -15.3975)
(7476.57 332.717 -15.0614)
(80719.3 988.935 -317.006)
(-92670.2 10379.7 -331.347)
(-7733.17 8695.57 -22.1282)
(7927.16 8665.72 -21.8195)
(90884.3 10301.4 -322.198)
(-106604 113467 -633.739)
(-8992.89 103524 -313.153)
(9082.45 102760 -313.228)
(105298 110920 -628.502)
(-68032.1 13592.2 -159.338)
(-6276.82 533.905 -3.57841)
(6478.27 555.29 -3.35226)
(66530.3 13992.9 -151.66)
(-68546.5 552.177 -166.052)
(-6760.12 26.6525 -3.81916)
(6980.68 27.6772 -3.57411)
(66970.1 567.6 -157.865)
(-69546.8 99.6642 -165.606)
(-6801.32 2.54687 -3.81154)
(7019.22 2.39424 -3.56704)
(67902.8 92.992 -157.416)
(-71279.2 165.824 -164.511)
(-6857.39 3.81896 -3.78584)
(7071.13 3.5585 -3.54356)
(69565.7 156.59 -156.357)
(-74276.7 332.775 -162.864)
(-6963.58 15.3287 -3.74602)
(7171.99 14.9721 -3.50648)
(72495.2 321.927 -154.752)
(-79646.9 996.637 -161.136)
(-7175.2 331.654 -3.74825)
(7377.73 330.638 -3.51195)
(77822.4 987.813 -153.103)
(-89694.1 10273 -164.648)
(-7629.58 8597.7 -6.83192)
(7828.15 8567.78 -6.60415)
(87952 10193.3 -156.993)
(-103510 110441 -326.773)
(-8880.4 100675 -152.323)
(8973.3 99909.6 -152.126)
(102213 107891 -320.721)
(-66313.5 13480.6 -82.9305)
(-6223.13 531.544 -1.70571)
(6427.86 553.118 -1.56082)
(64850.9 13887.8 -77.7328)
(-66829.1 550.206 -86.1847)
(-6704.31 26.5847 -1.8116)
(6928.37 27.6168 -1.65441)
(65293.2 565.852 -80.629)
(-67835.7 100.352 -85.8142)
(-6745.72 2.56183 -1.80439)
(6967.12 2.40795 -1.64757)
(66233.1 93.6669 -80.2492)
(-69579.2 166.936 -85.06)
(-6802.25 3.84503 -1.78732)
(7019.47 3.58226 -1.63228)
(67907.9 157.664 -79.5261)
(-72590.1 333.983 -84.0546)
(-6909.07 15.3441 -1.76363)
(7120.94 14.9849 -1.61076)
(70851.7 323.083 -78.5607)
(-77966.2 995.673 -83.2498)
(-7121.25 330.638 -1.76412)
(7327.21 329.619 -1.61326)
(76185 986.694 -77.8075)
(-87981.6 10214.1 -85.7678)
(-7575.13 8546.99 -3.28044)
(7777 8517.11 -3.1312)
(86278.6 10133.8 -80.5092)
(-101684 108665 -173.639)
(-8818.24 99045.1 -78.4932)
(8914.05 98280.7 -78.266)
(100405 106116 -168.937)
(-65364.4 13423.1 -40.2285)
(-6195.45 530.387 -0.794428)
(6402.24 552.075 -0.714087)
(63929.6 13834.5 -37.243)
(-65881.3 549.294 -41.7269)
(-6675.59 26.5538 -0.841812)
(6901.87 27.5905 -0.754633)
(64374.1 565.084 -38.5336)
(-66892.4 100.789 -41.503)
(-6717.15 2.57115 -0.837415)
(6940.77 2.41637 -0.750455)
(65319.2 94.0949 -38.3027)
(-68643.2 167.583 -41.0829)
(-6773.97 3.85973 -0.828153)
(6993.39 3.5953 -0.742331)
(67001.9 158.278 -37.904)
(-71662.1 334.585 -40.5645)
(-6881.14 15.3519 -0.81621)
(7095.19 14.9911 -0.731772)
(69954.2 323.646 -37.4145)
(-77039.8 994.923 -40.2359)
(-7093.56 330.137 -0.817088)
(7301.68 329.117 -0.733773)
(75289.2 985.864 -37.1176)
(-87030.8 10182.6 -41.7087)
(-7546.95 8520.97 -1.52535)
(7750.92 8491.13 -1.44171)
(85356.2 10102.1 -38.6726)
(-100654 107665 -85.5064)
(-8785.03 98142.4 -37.9466)
(8882.86 97379.1 -37.7886)
(99391.5 105119 -82.6212)
(-64940.4 13398.6 -12.0423)
(-6183.61 529.908 -0.232793)
(6391.41 551.649 -0.207038)
(63519.8 13812 -11.0687)
(-65457.9 548.931 -12.478)
(-6663.33 26.5417 -0.246364)
(6890.68 27.5805 -0.218416)
(63965.5 564.792 -11.4364)
(-66471.3 100.996 -12.4044)
(-6704.96 2.57549 -0.244921)
(6929.66 2.42025 -0.217048)
(64913.3 94.2966 -11.3604)
(-68225.6 167.875 -12.2711)
(-6761.91 3.86623 -0.24202)
(6982.4 3.60094 -0.214537)
(66599.8 158.552 -11.2348)
(-71248.1 334.83 -12.1129)
(-6869.24 15.3551 -0.238417)
(7084.34 14.9935 -0.211406)
(69555.9 323.869 -11.0871)
(-76625.9 994.529 -12.0263)
(-7081.75 329.929 -0.238826)
(7290.91 328.909 -0.212176)
(74891 985.436 -11.0114)
(-86604.3 10168.8 -12.507)
(-7534.86 8509.86 -0.446688)
(7739.85 8480.05 -0.419761)
(84944.2 10088.3 -11.5154)
(-100188 107213 -25.7972)
(-8770.52 97737.6 -11.3475)
(8869.37 96975 -11.2922)
(98934.3 104669 -24.8301)
)
;

boundaryField
{
    interface
    {
        type            calculated;
        value           nonuniform List<vector> 
192
(
(-184553 33926.8 -107401)
(-183512 1259.43 -107489)
(-185615 206.98 -108578)
(-189217 329.955 -110398)
(-195220 635.015 -113444)
(-205502 1615.33 -118735)
(-223792 12552.8 -128399)
(-244455 140577 -140573)
(-158682 15732.8 -9519.17)
(-158685 617.807 -10163.2)
(-160654 102.192 -10211.6)
(-164042 166.119 -10271.9)
(-169823 331.94 -10379.1)
(-180079 1013.2 -10579.4)
(-199200 10996.8 -10996.5)
(-223799 128405 -12552.4)
(-139592 14244.4 -933.895)
(-139637 566.949 -992.92)
(-141548 98.3127 -995.228)
(-144868 162.505 -996.301)
(-150591 327.505 -997.152)
(-160842 997.928 -997.632)
(-180091 10579.8 -1012.89)
(-205522 118748 -1614.68)
(-129283 13805.9 -318.602)
(-129335 556.474 -333.566)
(-131242 98.8104 -333.374)
(-134571 164.195 -332.215)
(-140319 330.609 -330.056)
(-150610 997.457 -326.945)
(-169855 10379.7 -331.347)
(-195261 113467 -633.739)
(-123490 13592.2 -159.338)
(-123550 552.177 -166.052)
(-125469 99.6642 -165.606)
(-128821 165.824 -164.511)
(-134604 332.775 -162.864)
(-144922 996.637 -161.136)
(-164109 10273 -164.648)
(-189297 110441 -326.773)
(-120160 13480.6 -82.9305)
(-120227 550.206 -86.1847)
(-122157 100.352 -85.8142)
(-125532 166.936 -85.06)
(-131340 333.983 -84.0546)
(-141668 995.673 -83.2498)
(-160793 10214.1 -85.7678)
(-185769 108665 -173.639)
(-118317 13423.1 -40.2285)
(-118389 549.294 -41.7269)
(-120328 100.789 -41.503)
(-123716 167.583 -41.0829)
(-129540 334.585 -40.5645)
(-139871 994.923 -40.2359)
(-158948 10182.6 -41.7087)
(-183776 107665 -85.5064)
(-117493 13398.6 -12.0423)
(-117566 548.931 -12.478)
(-119510 100.996 -12.4044)
(-122905 167.875 -12.2711)
(-128735 334.83 -12.1129)
(-139067 994.529 -12.0263)
(-158119 10168.8 -12.507)
(-182872 107213 -25.7972)
(-100467 33926.8 -197204)
(-100505 1259.43 -196188)
(-101604 206.98 -198275)
(-103468 329.955 -201796)
(-106583 635.015 -207678)
(-111933 1615.33 -217866)
(-121484 12552.8 -236383)
(-132772 140577 -258429)
(-8206.44 16987.3 -179748)
(-8766.57 653.194 -179630)
(-8815.26 95.7428 -181509)
(-8879.05 153.65 -184732)
(-8992.21 313.617 -190268)
(-9200.59 1000.04 -200252)
(-9607.34 11190.3 -219431)
(-10588.3 133089 -245367)
(8304.29 16953.8 -178462)
(8871.86 650.602 -178252)
(8915.22 94.503 -180083)
(8974.16 153.008 -183284)
(9082.95 313.476 -188812)
(9288.92 1000.2 -198801)
(9699.88 11165.1 -217998)
(10600.2 132365 -243970)
(99400.9 34163.5 -192846)
(99366.3 1264.13 -191526)
(100408 198.042 -193473)
(102222 321.372 -196926)
(105306 628.374 -202779)
(110682 1616.98 -212976)
(120438 12501.6 -231539)
(132393 138167 -253725)
(182162 34163.5 -105157)
(180954 1264.13 -105085)
(182949 198.042 -106103)
(186459 321.372 -107887)
(192408 628.374 -110920)
(202748 1616.98 -116218)
(221438 12501.6 -125910)
(243497 138167 -138166)
(155339 16107.4 -9451.3)
(155177 632.603 -10087.1)
(157020 95.7422 -10133.6)
(160280 157.321 -10193.4)
(165944 322.085 -10301.6)
(176154 1007.15 -10504.9)
(195537 10928.4 -10928.5)
(221435 125910 -12501.7)
(136085 14625.1 -925.745)
(135951 581.834 -984.352)
(137731 91.7188 -986.741)
(140917 153.384 -987.936)
(146512 316.895 -989.062)
(156692 990.067 -990.192)
(176149 10504.8 -1007.28)
(202739 116219 -1617.14)
(125831 14197.3 -308.916)
(125699 571.607 -323.311)
(127475 92.158 -323.15)
(130670 155 -322.038)
(136291 319.829 -319.944)
(146507 988.935 -317.006)
(165934 10301.4 -322.198)
(192393 110920 -628.502)
(120124 13992.9 -151.66)
(120001 567.6 -157.865)
(121790 92.992 -157.416)
(125011 156.59 -156.357)
(130668 321.927 -154.752)
(140911 987.813 -153.103)
(160268 10193.3 -156.993)
(186441 107891 -320.721)
(116867 13887.8 -77.7328)
(116752 565.852 -80.629)
(118554 93.6669 -80.2492)
(121799 157.664 -79.5261)
(127484 323.083 -78.5607)
(137737 986.694 -77.8075)
(157023 10133.8 -80.5092)
(182944 106116 -168.937)
(115075 13834.5 -37.243)
(114967 565.084 -38.5336)
(116780 94.0949 -38.3027)
(120040 158.278 -37.904)
(125740 323.646 -37.4145)
(135997 985.864 -37.1176)
(155231 10102.1 -38.6726)
(180979 105119 -82.6212)
(114277 13812 -11.0687)
(114172 564.792 -11.4364)
(115990 94.2966 -11.3604)
(119257 158.552 -11.2348)
(124965 323.869 -11.0871)
(135222 985.436 -11.0114)
(154429 10088.3 -11.5154)
(180092 104669 -24.8301)
(-132772 258435 -140573)
(-121488 236397 -12552.4)
(-111943 217891 -1614.68)
(-106604 207723 -633.739)
(-103510 201882 -326.773)
(-101684 198443 -173.639)
(-100654 196504 -85.5064)
(-100188 195627 -25.7972)
(-10588.3 245372 -133086)
(-9607.47 219440 -11190.2)
(-9200.91 200269 -999.824)
(-8992.89 190299 -313.153)
(-8880.4 184792 -152.323)
(-8818.24 181632 -78.4932)
(-8785.03 179878 -37.9466)
(-8770.52 179090 -11.3475)
(10600.2 243974 -132363)
(9699.76 218004 -11165.1)
(9288.65 198811 -1000.1)
(9082.45 188830 -313.228)
(8973.3 183320 -152.126)
(8914.05 180161 -78.266)
(8882.86 178409 -37.7886)
(8869.37 177623 -11.2922)
(132393 253726 -138166)
(120436 231540 -12501.7)
(110677 212977 -1617.14)
(105298 202781 -628.502)
(102213 196933 -320.721)
(100405 193499 -168.937)
(99391.5 191567 -82.6212)
(98934.3 190693 -24.8301)
)
;
    }
    symmetry
    {
        type            symmetry;
    }
    bottom
    {
        type            calculated;
        value           nonuniform List<vector> 
32
(
(-100467 65516.1 -107401)
(-86363.4 30319 -9519.17)
(-76387.6 27439.5 -933.895)
(-71030.5 26583.4 -318.602)
(-68032.1 26165 -159.338)
(-66313.5 25946.1 -82.9305)
(-65364.4 25833.3 -40.2285)
(-64940.4 25785.2 -12.0423)
(-8206.44 32753.9 -97505.4)
(-7013.32 2229.19 -7920.15)
(-6581.7 1073.32 -300.578)
(-6379.11 1026.88 -14.0444)
(-6276.82 1017.14 -3.57841)
(-6223.13 1012.57 -1.70571)
(-6195.45 1010.32 -0.794428)
(-6183.61 1009.39 -0.232793)
(8304.29 32690.4 -96837)
(7201.1 2265.71 -7894.43)
(6773.14 1112.66 -299.686)
(6575.94 1066.97 -13.7216)
(6478.27 1057.77 -3.35226)
(6427.86 1053.56 -1.56082)
(6402.24 1051.53 -0.714087)
(6391.41 1050.7 -0.207038)
(99400.9 65971.1 -105157)
(84861.3 31033.6 -9451.3)
(74806 28165.9 -925.745)
(69481.4 27330.6 -308.916)
(66530.3 26930.2 -151.66)
(64850.9 26724 -77.7328)
(63929.6 26619.3 -37.243)
(63519.8 26575 -11.0687)
)
;
    }
}


// ************************************************************************* //
