/*--------------------------------*- C++ -*----------------------------------*\
| =========                 |                                                 |
| \\      /  F ield         | OpenFOAM: The Open Source CFD Toolbox           |
|  \\    /   O peration     | Version:  v1912                                 |
|   \\  /    A nd           | Website:  www.openfoam.com                      |
|    \\/     M anipulation  |                                                 |
\*---------------------------------------------------------------------------*/
FoamFile
{
    version     2.0;
    format      ascii;
    class       pointVectorField;
    location    "0.15/solid";
    object      pointDD;
}
// * * * * * * * * * * * * * * * * * * * * * * * * * * * * * * * * * * * * * //

dimensions      [0 1 0 0 0 0 0];


internalField   nonuniform List<vector> 
405
(
(3.28608e-10 9.06213e-10 3.93513e-10)
(2.40901e-10 5.97987e-10 -2.39193e-11)
(5.82839e-12 4.54409e-10 -1.69999e-10)
(-2.23717e-10 5.94929e-10 -1.8973e-11)
(-2.55832e-10 8.80014e-10 4.08794e-10)
(7.01742e-10 8.95735e-10 1.07254e-09)
(6.44303e-10 8.36591e-10 4.08837e-10)
(2.85123e-11 6.32233e-10 1.05697e-10)
(-5.74723e-10 8.19201e-10 4.30063e-10)
(-5.58324e-10 8.421e-10 1.1144e-09)
(9.22236e-10 3.39636e-11 1.9036e-09)
(8.22145e-10 1.23021e-10 1.22238e-09)
(6.40495e-11 3.94513e-11 9.09977e-10)
(-6.8039e-10 8.40792e-11 1.26076e-09)
(-7.09736e-10 -4.84399e-11 1.97487e-09)
(9.12731e-10 -7.04373e-10 2.56309e-09)
(8.22194e-10 -5.74337e-10 1.89588e-09)
(1.0289e-10 -6.19754e-10 1.58224e-09)
(-6.03491e-10 -6.32111e-10 1.94338e-09)
(-6.27251e-10 -8.14114e-10 2.65089e-09)
(9.00848e-10 -1.3675e-09 3.18582e-09)
(8.11842e-10 -1.26731e-09 2.52619e-09)
(1.45028e-10 -1.33165e-09 2.20233e-09)
(-5.09383e-10 -1.34076e-09 2.57894e-09)
(-5.35039e-10 -1.50142e-09 3.28325e-09)
(1.00026e-09 -2.01848e-09 3.84306e-09)
(8.83411e-10 -1.9835e-09 3.17938e-09)
(1.91065e-10 -2.09061e-09 2.83864e-09)
(-4.89235e-10 -2.07026e-09 3.23518e-09)
(-5.45806e-10 -2.17375e-09 3.94635e-09)
(1.3347e-09 -2.78355e-09 4.60055e-09)
(1.13411e-09 -2.79607e-09 3.91027e-09)
(2.41274e-10 -2.91242e-09 3.55248e-09)
(-6.39741e-10 -2.8951e-09 3.96786e-09)
(-7.8215e-10 -2.95892e-09 4.70784e-09)
(2.10488e-09 -4.22002e-09 5.58361e-09)
(1.60017e-09 -4.13717e-09 4.9729e-09)
(2.9508e-10 -4.11128e-09 4.62396e-09)
(-9.97622e-10 -4.24758e-09 5.03134e-09)
(-1.43913e-09 -4.41453e-09 5.69372e-09)
(2.72105e-09 -5.11552e-09 6.28118e-09)
(1.88847e-09 -4.80361e-09 5.99241e-09)
(3.29064e-10 -4.57291e-09 5.73701e-09)
(-1.21716e-09 -4.91601e-09 6.0546e-09)
(-2.00366e-09 -5.30741e-09 6.38852e-09)
(-1.86963e-10 3.71602e-10 2.78269e-10)
(0 0 0)
(0 0 0)
(0 0 0)
(2.65614e-10 3.40804e-10 2.90419e-10)
(-2.55184e-10 3.37352e-10 9.81876e-10)
(0 0 0)
(0 0 0)
(0 0 0)
(4.39457e-10 2.62313e-10 1.02419e-09)
(-1.29508e-10 -4.27775e-10 1.74986e-09)
(0 0 0)
(0 0 0)
(0 0 0)
(3.71023e-10 -5.30501e-10 1.8218e-09)
(-1.34088e-10 -1.1074e-09 2.39631e-09)
(0 0 0)
(0 0 0)
(0 0 0)
(4.40717e-10 -1.23773e-09 2.48708e-09)
(-1.27303e-10 -1.7343e-09 2.99952e-09)
(0 0 0)
(0 0 0)
(0 0 0)
(5.08385e-10 -1.89013e-09 3.10205e-09)
(-1.58195e-11 -2.33777e-09 3.62501e-09)
(0 0 0)
(0 0 0)
(0 0 0)
(4.81015e-10 -2.51703e-09 3.73517e-09)
(3.0653e-10 -2.98971e-09 4.31893e-09)
(0 0 0)
(0 0 0)
(0 0 0)
(2.53877e-10 -3.19142e-09 4.43441e-09)
(1.15539e-09 -4.16075e-09 5.01519e-09)
(0 0 0)
(0 0 0)
(0 0 0)
(-4.78017e-10 -4.38334e-09 5.13412e-09)
(2.12512e-09 -4.73434e-09 5.42696e-09)
(1.62664e-09 -4.14317e-09 5.44546e-09)
(3.21411e-10 -3.81974e-09 5.3957e-09)
(-9.71208e-10 -4.2528e-09 5.50624e-09)
(-1.41929e-09 -4.93481e-09 5.53273e-09)
(-4.99005e-10 3.22758e-11 8.56818e-11)
(0 0 0)
(0 0 0)
(0 0 0)
(5.67594e-10 6.36884e-12 9.461e-11)
(-9.74811e-10 -2.58507e-10 4.93264e-10)
(0 0 0)
(0 0 0)
(0 0 0)
(1.1313e-09 -3.25074e-10 5.24688e-10)
(-9.57675e-10 -8.90638e-10 1.14284e-09)
(0 0 0)
(0 0 0)
(0 0 0)
(1.15861e-09 -9.86957e-10 1.19759e-09)
(-9.71855e-10 -1.49623e-09 1.77013e-09)
(0 0 0)
(0 0 0)
(0 0 0)
(1.22919e-09 -1.62144e-09 1.84144e-09)
(-9.5987e-10 -2.07522e-09 2.35543e-09)
(0 0 0)
(0 0 0)
(0 0 0)
(1.28567e-09 -2.22705e-09 2.43822e-09)
(-8.46271e-10 -2.60675e-09 2.92567e-09)
(0 0 0)
(0 0 0)
(0 0 0)
(1.25237e-09 -2.78315e-09 3.0164e-09)
(-5.22585e-10 -3.10021e-09 3.4668e-09)
(0 0 0)
(0 0 0)
(0 0 0)
(1.02185e-09 -3.30015e-09 3.5629e-09)
(3.3263e-10 -3.94358e-09 3.83775e-09)
(0 0 0)
(0 0 0)
(0 0 0)
(2.82469e-10 -4.16498e-09 3.93684e-09)
(1.38149e-09 -4.22963e-09 3.98742e-09)
(1.1876e-09 -3.55984e-09 4.1044e-09)
(2.95432e-10 -3.22876e-09 4.19888e-09)
(-5.84957e-10 -3.67018e-09 4.15499e-09)
(-7.33843e-10 -4.42976e-09 4.0752e-09)
(-6.00012e-10 -9.06553e-11 9.02586e-11)
(0 0 0)
(0 0 0)
(0 0 0)
(6.65655e-10 -1.12141e-10 9.68633e-11)
(-1.23639e-09 -5.02426e-10 4.47046e-10)
(0 0 0)
(0 0 0)
(0 0 0)
(1.38224e-09 -5.5971e-10 4.70256e-10)
(-1.29003e-09 -1.1273e-09 9.9932e-10)
(0 0 0)
(0 0 0)
(0 0 0)
(1.4715e-09 -1.21435e-09 1.04014e-09)
(-1.31133e-09 -1.71276e-09 1.55684e-09)
(0 0 0)
(0 0 0)
(0 0 0)
(1.54179e-09 -1.82992e-09 1.61107e-09)
(-1.2898e-09 -2.24398e-09 2.08144e-09)
(0 0 0)
(0 0 0)
(0 0 0)
(1.58295e-09 -2.38934e-09 2.14581e-09)
(-1.16489e-09 -2.68435e-09 2.56168e-09)
(0 0 0)
(0 0 0)
(0 0 0)
(1.53433e-09 -2.85596e-09 2.63348e-09)
(-8.28353e-10 -3.04061e-09 2.95758e-09)
(0 0 0)
(0 0 0)
(0 0 0)
(1.28872e-09 -3.23743e-09 3.03449e-09)
(2.88163e-11 -3.732e-09 3.17191e-09)
(0 0 0)
(0 0 0)
(0 0 0)
(5.46449e-10 -3.95169e-09 3.25172e-09)
(1.06629e-09 -3.95484e-09 3.2171e-09)
(9.58719e-10 -3.31284e-09 3.29483e-09)
(2.73841e-10 -2.99987e-09 3.38357e-09)
(-3.99337e-10 -3.42352e-09 3.33589e-09)
(-4.60368e-10 -4.15466e-09 3.28815e-09)
(-6.42619e-10 -1.2845e-10 9.44453e-11)
(0 0 0)
(0 0 0)
(0 0 0)
(7.07521e-10 -1.46826e-10 9.94541e-11)
(-1.34323e-09 -5.85256e-10 4.11509e-10)
(0 0 0)
(0 0 0)
(0 0 0)
(1.48439e-09 -6.3531e-10 4.28907e-10)
(-1.42392e-09 -1.22207e-09 8.66519e-10)
(0 0 0)
(0 0 0)
(0 0 0)
(1.59438e-09 -1.30081e-09 8.97004e-10)
(-1.44802e-09 -1.8036e-09 1.32245e-09)
(0 0 0)
(0 0 0)
(0 0 0)
(1.66158e-09 -1.91285e-09 1.36321e-09)
(-1.41913e-09 -2.30089e-09 1.74933e-09)
(0 0 0)
(0 0 0)
(0 0 0)
(1.69036e-09 -2.43958e-09 1.79828e-09)
(-1.28458e-09 -2.67876e-09 2.12235e-09)
(0 0 0)
(0 0 0)
(0 0 0)
(1.62831e-09 -2.84535e-09 2.17757e-09)
(-9.39332e-10 -2.96451e-09 2.40478e-09)
(0 0 0)
(0 0 0)
(0 0 0)
(1.37164e-09 -3.15818e-09 2.46443e-09)
(-8.18568e-11 -3.60395e-09 2.54758e-09)
(0 0 0)
(0 0 0)
(0 0 0)
(6.27992e-10 -3.82246e-09 2.60989e-09)
(9.66775e-10 -3.79565e-09 2.5626e-09)
(8.94783e-10 -3.15853e-09 2.58788e-09)
(2.56941e-10 -2.86296e-09 2.63635e-09)
(-3.69195e-10 -3.26962e-09 2.62041e-09)
(-3.92445e-10 -3.99575e-09 2.61855e-09)
(-6.62067e-10 -1.38091e-10 8.04153e-11)
(0 0 0)
(0 0 0)
(0 0 0)
(7.27075e-10 -1.54345e-10 8.40673e-11)
(-1.38468e-09 -6.06968e-10 3.33541e-10)
(0 0 0)
(0 0 0)
(0 0 0)
(1.52386e-09 -6.51869e-10 3.46109e-10)
(-1.46808e-09 -1.24792e-09 6.81239e-10)
(0 0 0)
(0 0 0)
(0 0 0)
(1.63214e-09 -1.32032e-09 7.03139e-10)
(-1.49037e-09 -1.82563e-09 1.02341e-09)
(0 0 0)
(0 0 0)
(0 0 0)
(1.69313e-09 -1.92848e-09 1.05273e-09)
(-1.45652e-09 -2.3035e-09 1.33976e-09)
(0 0 0)
(0 0 0)
(0 0 0)
(1.71295e-09 -2.43657e-09 1.37515e-09)
(-1.31619e-09 -2.65117e-09 1.60832e-09)
(0 0 0)
(0 0 0)
(0 0 0)
(1.64193e-09 -2.81349e-09 1.64848e-09)
(-9.66744e-10 -2.9115e-09 1.80438e-09)
(0 0 0)
(0 0 0)
(0 0 0)
(1.37899e-09 -3.10262e-09 1.84801e-09)
(-1.09822e-10 -3.53695e-09 1.90556e-09)
(0 0 0)
(0 0 0)
(0 0 0)
(6.34907e-10 -3.75486e-09 1.95138e-09)
(9.53711e-10 -3.70695e-09 1.91527e-09)
(8.95703e-10 -3.06393e-09 1.91462e-09)
(2.44413e-10 -2.77931e-09 1.93488e-09)
(-3.95212e-10 -3.17549e-09 1.93889e-09)
(-4.02595e-10 -3.9077e-09 1.95673e-09)
(-6.73113e-10 -1.39711e-10 5.66681e-11)
(0 0 0)
(0 0 0)
(0 0 0)
(7.38449e-10 -1.54576e-10 5.90595e-11)
(-1.4045e-09 -6.09085e-10 2.30334e-10)
(0 0 0)
(0 0 0)
(0 0 0)
(1.54292e-09 -6.50563e-10 2.38517e-10)
(-1.48387e-09 -1.24764e-09 4.63667e-10)
(0 0 0)
(0 0 0)
(0 0 0)
(1.64422e-09 -1.31569e-09 4.77869e-10)
(-1.5028e-09 -1.82045e-09 6.90008e-10)
(0 0 0)
(0 0 0)
(0 0 0)
(1.69883e-09 -1.91877e-09 7.09004e-10)
(-1.46575e-09 -2.28882e-09 8.96804e-10)
(0 0 0)
(0 0 0)
(0 0 0)
(1.7126e-09 -2.41782e-09 9.19777e-10)
(-1.32262e-09 -2.62573e-09 1.06968e-09)
(0 0 0)
(0 0 0)
(0 0 0)
(1.63645e-09 -2.78494e-09 1.09584e-09)
(-9.71742e-10 -2.88058e-09 1.19471e-09)
(0 0 0)
(0 0 0)
(0 0 0)
(1.37049e-09 -3.06992e-09 1.22322e-09)
(-1.15337e-10 -3.50422e-09 1.2619e-09)
(0 0 0)
(0 0 0)
(0 0 0)
(6.26197e-10 -3.72191e-09 1.29195e-09)
(9.60264e-10 -3.65914e-09 1.27064e-09)
(9.08379e-10 -3.00709e-09 1.26406e-09)
(2.35846e-10 -2.72736e-09 1.27103e-09)
(-4.25081e-10 -3.11913e-09 1.28017e-09)
(-4.24966e-10 -3.86063e-09 1.298e-09)
(-6.79607e-10 -1.39659e-10 2.89965e-11)
(0 0 0)
(0 0 0)
(0 0 0)
(7.45209e-10 -1.53735e-10 3.01793e-11)
(-1.41565e-09 -6.0711e-10 1.16807e-10)
(0 0 0)
(0 0 0)
(0 0 0)
(1.55379e-09 -6.46633e-10 1.20842e-10)
(-1.49171e-09 -1.24196e-09 2.33528e-10)
(0 0 0)
(0 0 0)
(0 0 0)
(1.6501e-09 -1.3075e-09 2.40514e-10)
(-1.50811e-09 -1.81089e-09 3.45799e-10)
(0 0 0)
(0 0 0)
(0 0 0)
(1.70042e-09 -1.90655e-09 3.55136e-10)
(-1.46924e-09 -2.27525e-09 4.47622e-10)
(0 0 0)
(0 0 0)
(0 0 0)
(1.71068e-09 -2.40184e-09 4.58921e-10)
(-1.32496e-09 -2.60955e-09 5.3217e-10)
(0 0 0)
(0 0 0)
(0 0 0)
(1.63196e-09 -2.76691e-09 5.45054e-10)
(-9.7376e-10 -2.8649e-09 5.93335e-10)
(0 0 0)
(0 0 0)
(0 0 0)
(1.36473e-09 -3.05321e-09 6.07397e-10)
(-1.17645e-10 -3.48966e-09 6.27192e-10)
(0 0 0)
(0 0 0)
(0 0 0)
(6.20303e-10 -3.70731e-09 6.42042e-10)
(9.65465e-10 -3.63587e-09 6.32728e-10)
(9.1678e-10 -2.97662e-09 6.28414e-10)
(2.30893e-10 -2.69841e-09 6.30374e-10)
(-4.43435e-10 -3.08899e-09 6.3644e-10)
(-4.39309e-10 -3.83789e-09 6.463e-10)
(-4.87354e-10 -1.60791e-10 0)
(-4.42391e-11 -1.16674e-10 0)
(-1.24349e-12 -1.32881e-10 0)
(4.52114e-11 -1.2271e-10 0)
(5.34109e-10 -1.76499e-10 0)
(-7.8559e-10 -5.77241e-10 0)
(-1.29226e-10 -5.67778e-10 0)
(2.90219e-13 -5.91662e-10 0)
(1.37669e-10 -5.87116e-10 0)
(8.62783e-10 -6.11519e-10 0)
(-8.62601e-10 -1.22532e-09 0)
(-1.87079e-10 -1.21991e-09 0)
(9.64426e-12 -1.23718e-09 0)
(2.1516e-10 -1.25409e-09 0)
(9.59928e-10 -1.2832e-09 0)
(-8.86932e-10 -1.80471e-09 0)
(-2.07162e-10 -1.82113e-09 0)
(2.66773e-11 -1.85222e-09 0)
(2.6935e-10 -1.87052e-09 0)
(1.018e-09 -1.88895e-09 0)
(-8.59098e-10 -2.28803e-09 0)
(-1.90018e-10 -2.35408e-09 0)
(5.16699e-11 -2.41855e-09 0)
(3.02366e-10 -2.41865e-09 0)
(1.03963e-09 -2.39917e-09 0)
(-7.23286e-10 -2.66634e-09 0)
(-9.14334e-11 -2.81953e-09 0)
(8.4833e-11 -2.93055e-09 0)
(2.70383e-10 -2.89922e-09 0)
(9.69799e-10 -2.80433e-09 0)
(-3.62232e-10 -2.99468e-09 0)
(1.77345e-10 -3.2321e-09 0)
(1.25984e-10 -3.35888e-09 0)
(8.44022e-11 -3.3272e-09 0)
(6.92216e-10 -3.15985e-09 0)
(4.18609e-10 -3.63416e-09 0)
(6.47656e-10 -3.75274e-09 0)
(1.7431e-10 -3.75001e-09 0)
(-2.87951e-10 -3.86262e-09 0)
(1.67828e-11 -3.82557e-09 0)
(1.10936e-09 -3.82878e-09 0)
(9.23514e-10 -3.52192e-09 0)
(2.14696e-10 -3.32149e-09 0)
(-4.82325e-10 -3.63657e-09 0)
(-6.19131e-10 -4.02232e-09 0)
)
;

boundaryField
{
    interface
    {
        type            calculated;
    }
    symmetry
    {
        type            symmetry;
    }
    bottom
    {
        type            calculated;
    }
}


// ************************************************************************* //
