/*--------------------------------*- C++ -*----------------------------------*\
| =========                 |                                                 |
| \\      /  F ield         | OpenFOAM: The Open Source CFD Toolbox           |
|  \\    /   O peration     | Version:  v1912                                 |
|   \\  /    A nd           | Website:  www.openfoam.com                      |
|    \\/     M anipulation  |                                                 |
\*---------------------------------------------------------------------------*/
FoamFile
{
    version     2.0;
    format      ascii;
    class       pointVectorField;
    location    "0.15/solid";
    object      pointD;
}
// * * * * * * * * * * * * * * * * * * * * * * * * * * * * * * * * * * * * * //

dimensions      [0 1 0 0 0 0 0];


internalField   nonuniform List<vector> 
405
(
(2.29278e-08 1.25015e-08 2.44332e-08)
(7.34221e-10 7.78694e-09 3.45436e-08)
(2.15361e-10 6.54068e-09 3.43512e-08)
(-3.43378e-10 7.83279e-09 3.43061e-08)
(-2.23557e-08 1.22218e-08 2.4447e-08)
(3.45705e-08 1.76696e-08 3.50924e-08)
(2.017e-09 1.47905e-08 6.71154e-08)
(8.57174e-10 1.279e-08 6.70302e-08)
(-3.9866e-10 1.45516e-08 6.6853e-08)
(-3.29392e-08 1.67334e-08 3.55155e-08)
(3.53302e-08 1.72411e-08 3.13384e-08)
(2.93942e-09 1.48833e-08 6.30887e-08)
(1.76481e-09 1.36906e-08 6.32633e-08)
(4.74264e-10 1.40171e-08 6.31985e-08)
(-3.2007e-08 1.53268e-08 3.24512e-08)
(3.68077e-08 1.98349e-08 2.66677e-08)
(3.86641e-09 1.78069e-08 5.89421e-08)
(2.79748e-09 1.70614e-08 5.91503e-08)
(1.60729e-09 1.63839e-08 5.93331e-08)
(-3.14919e-08 1.70472e-08 2.8283e-08)
(3.87821e-08 2.44154e-08 2.16695e-08)
(5.02432e-09 2.26743e-08 5.49818e-08)
(3.97377e-09 2.21723e-08 5.54503e-08)
(2.80009e-09 2.07557e-08 5.55913e-08)
(-3.11643e-08 2.08356e-08 2.36705e-08)
(4.06253e-08 3.03588e-08 1.6607e-08)
(5.79785e-09 2.90959e-08 5.16428e-08)
(5.29807e-09 2.87923e-08 5.25661e-08)
(4.67235e-09 2.67181e-08 5.24312e-08)
(-3.041e-08 2.60383e-08 1.89204e-08)
(4.1031e-08 3.81599e-08 1.1456e-08)
(5.07836e-09 3.72651e-08 4.91373e-08)
(6.77509e-09 3.67609e-08 5.06417e-08)
(8.32306e-09 3.44478e-08 5.00849e-08)
(-2.79844e-08 3.31349e-08 1.40397e-08)
(3.81798e-08 4.35744e-08 5.68059e-09)
(2.6285e-09 4.20915e-08 4.55386e-08)
(8.40098e-09 4.03063e-08 4.7544e-08)
(1.39525e-08 3.88965e-08 4.66847e-08)
(-2.22487e-08 3.79447e-08 8.5398e-09)
(2.36086e-08 1.87293e-08 -1.07044e-08)
(1.23424e-09 3.66307e-09 3.72546e-09)
(9.41273e-09 8.48111e-10 5.88806e-09)
(1.7323e-08 6.96662e-10 5.39275e-09)
(-5.83126e-09 1.3498e-08 -7.66028e-09)
(3.24104e-08 8.94802e-09 4.62759e-10)
(0 0 0)
(0 0 0)
(0 0 0)
(-3.18212e-08 8.49218e-09 7.73396e-10)
(6.51645e-08 1.77546e-08 -2.31731e-10)
(3.23612e-09 1.33688e-08 -1.44798e-09)
(5.71962e-10 1.09676e-08 -1.04782e-09)
(-2.13325e-09 1.28413e-08 -8.8038e-10)
(-6.33525e-08 1.63158e-08 8.30073e-10)
(6.63179e-08 1.89381e-08 -3.71151e-09)
(4.51423e-09 1.72342e-08 -5.38521e-09)
(1.28297e-09 1.5908e-08 -4.92219e-09)
(-1.99691e-09 1.61573e-08 -4.42511e-09)
(-6.30641e-08 1.64928e-08 -1.89269e-09)
(6.82832e-08 2.25679e-08 -8.80732e-09)
(5.38646e-09 2.16219e-08 -1.0477e-08)
(2.17133e-09 2.07757e-08 -9.94655e-09)
(-1.09488e-09 2.00488e-08 -9.23648e-09)
(-6.32303e-08 1.92045e-08 -6.43294e-09)
(7.09975e-08 2.76124e-08 -1.45753e-08)
(6.38242e-09 2.70726e-08 -1.60653e-08)
(3.23559e-09 2.64268e-08 -1.53744e-08)
(3.74176e-11 2.50431e-08 -1.46105e-08)
(-6.37894e-08 2.33994e-08 -1.17709e-08)
(7.42374e-08 3.33725e-08 -2.08034e-08)
(7.02279e-09 3.37775e-08 -2.21066e-08)
(4.46906e-09 3.3312e-08 -2.12026e-08)
(1.86257e-09 3.13136e-08 -2.04769e-08)
(-6.45521e-08 2.83596e-08 -1.76479e-08)
(7.70759e-08 3.99501e-08 -2.7389e-08)
(6.2651e-09 4.15144e-08 -2.86061e-08)
(5.86901e-09 4.09019e-08 -2.75108e-08)
(5.39839e-09 3.86318e-08 -2.6827e-08)
(-6.46932e-08 3.41893e-08 -2.39352e-08)
(7.64887e-08 4.28532e-08 -3.30799e-08)
(3.90206e-09 4.34723e-08 -3.439e-08)
(7.42861e-09 4.16457e-08 -3.32233e-08)
(1.08071e-08 4.02608e-08 -3.24928e-08)
(-6.15058e-08 3.6484e-08 -2.93846e-08)
(3.87098e-08 3.91299e-09 -3.56779e-08)
(3.32245e-09 -3.64595e-08 -3.52681e-08)
(9.08187e-09 -3.91325e-08 -3.4124e-08)
(1.46268e-08 -3.89324e-08 -3.33532e-08)
(-2.17432e-08 -1.2826e-09 -3.23387e-08)
(3.12294e-08 8.19598e-09 -9.66349e-10)
(0 0 0)
(0 0 0)
(0 0 0)
(-3.05901e-08 7.82319e-09 -7.27795e-10)
(6.40019e-08 1.68411e-08 -3.45737e-09)
(5.50731e-09 1.11799e-08 -5.16838e-09)
(3.55964e-10 8.62881e-09 -5.50665e-09)
(-4.7818e-09 1.06464e-08 -4.70604e-09)
(-6.2247e-08 1.55678e-08 -2.62313e-09)
(6.63993e-08 1.92012e-08 -7.09833e-09)
(7.44061e-09 1.71333e-08 -9.38414e-09)
(9.00856e-10 1.56922e-08 -9.78477e-09)
(-5.62104e-09 1.60582e-08 -8.59153e-09)
(-6.34986e-08 1.69196e-08 -5.63561e-09)
(6.82974e-08 2.37726e-08 -1.17778e-08)
(8.28709e-09 2.28244e-08 -1.40827e-08)
(1.65556e-09 2.19422e-08 -1.44251e-08)
(-4.95741e-09 2.1268e-08 -1.30455e-08)
(-6.38477e-08 2.05684e-08 -9.82915e-09)
(7.08715e-08 2.92184e-08 -1.71131e-08)
(9.16184e-09 2.87e-08 -1.92903e-08)
(2.61053e-09 2.80505e-08 -1.95265e-08)
(-3.91982e-09 2.66993e-08 -1.80598e-08)
(-6.44663e-08 2.51578e-08 -1.47728e-08)
(7.4193e-08 3.45994e-08 -2.26444e-08)
(9.7837e-09 3.49399e-08 -2.47281e-08)
(3.75414e-09 3.44746e-08 -2.48546e-08)
(-2.25379e-09 3.25153e-08 -2.3337e-08)
(-6.54678e-08 2.97352e-08 -1.99778e-08)
(7.74418e-08 3.95459e-08 -2.75957e-08)
(9.14442e-09 4.09712e-08 -2.96957e-08)
(5.07978e-09 4.03693e-08 -2.97428e-08)
(1.0149e-09 3.81432e-08 -2.81733e-08)
(-6.61419e-08 3.39428e-08 -2.46593e-08)
(7.78064e-08 3.94408e-08 -3.01957e-08)
(6.98441e-09 3.99528e-08 -3.24411e-08)
(6.57823e-09 3.81776e-08 -3.24659e-08)
(6.09309e-09 3.6825e-08 -3.08378e-08)
(-6.40164e-08 3.32584e-08 -2.70725e-08)
(4.22977e-08 4.30376e-10 -3.02822e-08)
(6.50731e-09 -3.77831e-08 -3.04687e-08)
(8.17838e-09 -3.99805e-08 -3.0581e-08)
(9.69935e-09 -4.00995e-08 -2.88929e-08)
(-2.67945e-08 -4.5537e-09 -2.75072e-08)
(2.93846e-08 8.18477e-09 -8.46683e-10)
(0 0 0)
(0 0 0)
(0 0 0)
(-2.88201e-08 7.91931e-09 -6.7506e-10)
(6.10261e-08 1.66624e-08 -3.33261e-09)
(6.57671e-09 1.0396e-08 -4.17082e-09)
(2.24252e-10 7.797e-09 -4.5204e-09)
(-6.11251e-09 9.92769e-09 -3.83469e-09)
(-5.95366e-08 1.56246e-08 -2.72253e-09)
(6.42665e-08 1.88716e-08 -6.86454e-09)
(8.95225e-09 1.65587e-08 -8.0361e-09)
(6.42205e-10 1.50735e-08 -8.44088e-09)
(-7.64183e-09 1.55707e-08 -7.44626e-09)
(-6.18599e-08 1.6848e-08 -5.77301e-09)
(6.62059e-08 2.34417e-08 -1.09355e-08)
(9.80676e-09 2.25114e-08 -1.21164e-08)
(1.28293e-09 2.16419e-08 -1.24666e-08)
(-7.21034e-09 2.10488e-08 -1.13285e-08)
(-6.24644e-08 2.04908e-08 -9.4495e-09)
(6.85744e-08 2.86637e-08 -1.53971e-08)
(1.05527e-08 2.82379e-08 -1.64616e-08)
(2.13964e-09 2.76344e-08 -1.67268e-08)
(-6.23808e-09 2.63323e-08 -1.55103e-08)
(-6.30649e-08 2.48415e-08 -1.35775e-08)
(7.16988e-08 3.32788e-08 -1.97198e-08)
(1.10793e-08 3.36662e-08 -2.067e-08)
(3.20034e-09 3.32498e-08 -2.08547e-08)
(-4.64123e-09 3.13373e-08 -1.95807e-08)
(-6.40273e-08 2.86386e-08 -1.76163e-08)
(7.4884e-08 3.68349e-08 -2.29402e-08)
(1.0459e-08 3.82236e-08 -2.38616e-08)
(4.45662e-09 3.7682e-08 -2.39924e-08)
(-1.52999e-09 3.54946e-08 -2.26633e-08)
(-6.47669e-08 3.14474e-08 -2.06064e-08)
(7.56987e-08 3.52458e-08 -2.37001e-08)
(8.45069e-09 3.58035e-08 -2.47315e-08)
(5.89677e-09 3.41883e-08 -2.48598e-08)
(3.27843e-09 3.27765e-08 -2.34747e-08)
(-6.31862e-08 2.92711e-08 -2.12187e-08)
(4.26468e-08 -2.31672e-09 -2.25395e-08)
(7.97648e-09 -3.79249e-08 -2.23724e-08)
(7.4451e-09 -3.95799e-08 -2.26387e-08)
(6.7766e-09 -4.01428e-08 -2.11502e-08)
(-2.85215e-08 -7.1286e-09 -2.03589e-08)
(2.80438e-08 8.07767e-09 -7.69793e-10)
(0 0 0)
(0 0 0)
(0 0 0)
(-2.75565e-08 7.89737e-09 -6.50313e-10)
(5.84993e-08 1.63323e-08 -3.08729e-09)
(6.68403e-09 1.00044e-08 -3.24774e-09)
(1.45451e-10 7.424e-09 -3.40091e-09)
(-6.3929e-09 9.60361e-09 -3.01056e-09)
(-5.7249e-08 1.54951e-08 -2.65794e-09)
(6.19519e-08 1.82446e-08 -6.26005e-09)
(9.15362e-09 1.58838e-08 -6.48309e-09)
(4.73133e-10 1.44138e-08 -6.63317e-09)
(-8.19543e-09 1.4994e-08 -6.06038e-09)
(-5.99551e-08 1.64623e-08 -5.48038e-09)
(6.38933e-08 2.24078e-08 -9.61963e-09)
(9.98179e-09 2.15279e-08 -9.80705e-09)
(1.02426e-09 2.06994e-08 -9.89964e-09)
(-7.91341e-09 2.01734e-08 -9.23321e-09)
(-6.073e-08 1.97068e-08 -8.53929e-09)
(6.60988e-08 2.70862e-08 -1.30628e-08)
(1.06117e-08 2.67675e-08 -1.31483e-08)
(1.7991e-09 2.62235e-08 -1.31688e-08)
(-6.98682e-09 2.49703e-08 -1.2445e-08)
(-6.13246e-08 2.35052e-08 -1.17171e-08)
(6.9017e-08 3.09761e-08 -1.61377e-08)
(1.10174e-08 3.14487e-08 -1.61129e-08)
(2.78826e-09 3.10932e-08 -1.60655e-08)
(-5.41095e-09 2.92255e-08 -1.52985e-08)
(-6.222e-08 2.6562e-08 -1.45607e-08)
(7.20819e-08 3.37516e-08 -1.80731e-08)
(1.03588e-08 3.51646e-08 -1.79996e-08)
(3.98333e-09 3.46972e-08 -1.79063e-08)
(-2.38333e-09 3.25373e-08 -1.70984e-08)
(-6.29565e-08 2.85743e-08 -1.63086e-08)
(7.31116e-08 3.16794e-08 -1.80532e-08)
(8.42839e-09 3.23431e-08 -1.80454e-08)
(5.37101e-09 3.08964e-08 -1.79539e-08)
(2.24225e-09 2.94102e-08 -1.71004e-08)
(-6.16792e-08 2.58959e-08 -1.61713e-08)
(4.15164e-08 -4.73089e-09 -1.66112e-08)
(7.90354e-09 -3.86871e-08 -1.60177e-08)
(6.87289e-09 -3.99306e-08 -1.60496e-08)
(5.69728e-09 -4.08215e-08 -1.51056e-08)
(-2.8529e-08 -9.39072e-09 -1.49674e-08)
(2.71675e-08 7.88728e-09 -6.2871e-10)
(0 0 0)
(0 0 0)
(0 0 0)
(-2.67372e-08 7.76593e-09 -5.49452e-10)
(5.66891e-08 1.58595e-08 -2.52172e-09)
(6.47451e-09 9.67101e-09 -2.43488e-09)
(9.75725e-11 7.13723e-09 -2.4618e-09)
(-6.29358e-09 9.32325e-09 -2.27436e-09)
(-5.56107e-08 1.51683e-08 -2.23433e-09)
(6.00653e-08 1.74868e-08 -5.06026e-09)
(8.8601e-09 1.51909e-08 -4.90958e-09)
(3.64166e-10 1.37643e-08 -4.89763e-09)
(-8.13451e-09 1.43825e-08 -4.62051e-09)
(-5.83596e-08 1.58922e-08 -4.53209e-09)
(6.19404e-08 2.12014e-08 -7.61301e-09)
(9.62235e-09 2.03936e-08 -7.3977e-09)
(8.49912e-10 1.9615e-08 -7.33051e-09)
(-7.91495e-09 1.9132e-08 -7.00065e-09)
(-5.91917e-08 1.87045e-08 -6.8707e-09)
(6.402e-08 2.53472e-08 -1.00682e-08)
(1.01578e-08 2.51202e-08 -9.77051e-09)
(1.56171e-09 2.46321e-08 -9.64582e-09)
(-7.01826e-09 2.34178e-08 -9.27827e-09)
(-5.97817e-08 2.1969e-08 -9.13047e-09)
(6.67852e-08 2.8721e-08 -1.20962e-08)
(1.0465e-08 2.92689e-08 -1.17156e-08)
(2.49368e-09 2.89679e-08 -1.15384e-08)
(-5.4575e-09 2.71376e-08 -1.11401e-08)
(-6.06354e-08 2.44989e-08 -1.09842e-08)
(6.97529e-08 3.11307e-08 -1.31953e-08)
(9.76305e-09 3.25792e-08 -1.27742e-08)
(3.63852e-09 3.21754e-08 -1.25615e-08)
(-2.4864e-09 3.00388e-08 -1.21336e-08)
(-6.13717e-08 2.61308e-08 -1.19406e-08)
(7.08848e-08 2.89425e-08 -1.29198e-08)
(7.86672e-09 2.96984e-08 -1.25356e-08)
(4.98239e-09 2.83786e-08 -1.23245e-08)
(2.01777e-09 2.68446e-08 -1.18634e-08)
(-6.02734e-08 2.33197e-08 -1.15763e-08)
(4.01134e-08 -6.7397e-09 -1.16615e-08)
(7.28895e-09 -3.97307e-08 -1.09605e-08)
(6.44523e-09 -4.07092e-08 -1.08344e-08)
(5.44701e-09 -4.17964e-08 -1.0316e-08)
(-2.79899e-08 -1.12723e-08 -1.04919e-08)
(2.66324e-08 7.71808e-09 -4.38766e-10)
(0 0 0)
(0 0 0)
(0 0 0)
(-2.62394e-08 7.6342e-09 -3.90723e-10)
(5.55339e-08 1.54261e-08 -1.75238e-09)
(6.2673e-09 9.38478e-09 -1.6427e-09)
(6.93228e-11 6.89576e-09 -1.62754e-09)
(-6.15273e-09 9.07339e-09 -1.54361e-09)
(-5.45665e-08 1.48308e-08 -1.57699e-09)
(5.87822e-08 1.67998e-08 -3.4923e-09)
(8.54389e-09 1.45895e-08 -3.30511e-09)
(2.97172e-10 1.32071e-08 -3.24896e-09)
(-7.9626e-09 1.38386e-08 -3.12536e-09)
(-5.72644e-08 1.53343e-08 -3.1671e-09)
(6.05736e-08 2.01581e-08 -5.19127e-09)
(9.23561e-09 1.94185e-08 -4.94419e-09)
(7.39179e-10 1.86834e-08 -4.84535e-09)
(-7.75854e-09 1.82245e-08 -4.69524e-09)
(-5.80961e-08 1.78064e-08 -4.72941e-09)
(6.25614e-08 2.39173e-08 -6.75234e-09)
(9.70121e-09 2.37571e-08 -6.44743e-09)
(1.40694e-09 2.33124e-08 -6.30868e-09)
(-6.87896e-09 2.2125e-08 -6.13622e-09)
(-5.8679e-08 2.06872e-08 -6.16268e-09)
(6.52292e-08 2.69759e-08 -7.96568e-09)
(9.94298e-09 2.75754e-08 -7.60847e-09)
(2.29762e-09 2.7315e-08 -7.43486e-09)
(-5.33462e-09 2.55129e-08 -7.24207e-09)
(-5.95159e-08 2.28962e-08 -7.25996e-09)
(6.8135e-08 2.92205e-08 -8.54606e-09)
(9.21016e-09 3.06952e-08 -8.16362e-09)
(3.40532e-09 3.03356e-08 -7.96695e-09)
(-2.40649e-09 2.82198e-08 -7.75382e-09)
(-6.0262e-08 2.43533e-08 -7.74431e-09)
(6.93177e-08 2.70129e-08 -8.26346e-09)
(7.32876e-09 2.78262e-08 -7.90162e-09)
(4.71626e-09 2.65857e-08 -7.7058e-09)
(2.01716e-09 2.50319e-08 -7.4711e-09)
(-5.92734e-08 2.1511e-08 -7.40188e-09)
(3.90193e-08 -8.2404e-09 -7.37718e-09)
(6.71574e-09 -4.0685e-08 -6.82316e-09)
(6.14956e-09 -4.15142e-08 -6.67667e-09)
(5.42208e-09 -4.26994e-08 -6.41259e-09)
(-2.74947e-08 -1.26771e-08 -6.62866e-09)
(2.63474e-08 7.61203e-09 -2.24427e-10)
(0 0 0)
(0 0 0)
(0 0 0)
(-2.59755e-08 7.54876e-09 -2.01801e-10)
(5.49092e-08 1.514e-08 -8.92428e-10)
(6.144e-09 9.19122e-09 -8.3114e-10)
(5.45498e-11 6.73138e-09 -8.16474e-10)
(-6.06457e-09 8.9008e-09 -7.83911e-10)
(-5.40037e-08 1.45986e-08 -8.09489e-10)
(5.80701e-08 1.63358e-08 -1.77022e-09)
(8.34876e-09 1.41851e-08 -1.66452e-09)
(2.61082e-10 1.28327e-08 -1.626e-09)
(-7.84557e-09 1.3468e-08 -1.57847e-09)
(-5.66568e-08 1.49449e-08 -1.6156e-09)
(5.98016e-08 1.94713e-08 -2.61405e-09)
(8.9922e-09 1.87775e-08 -2.47465e-09)
(6.78156e-10 1.8071e-08 -2.41331e-09)
(-7.64232e-09 1.76239e-08 -2.35487e-09)
(-5.74764e-08 1.72055e-08 -2.39303e-09)
(6.17334e-08 2.30074e-08 -3.36938e-09)
(9.41524e-09 2.28872e-08 -3.20033e-09)
(1.32006e-09 2.24693e-08 -3.11866e-09)
(-6.77124e-09 2.12976e-08 -3.04983e-09)
(-5.80532e-08 1.98664e-08 -3.08534e-09)
(6.43483e-08 2.59009e-08 -3.93494e-09)
(9.62043e-09 2.65294e-08 -3.74098e-09)
(2.1859e-09 2.62932e-08 -3.64209e-09)
(-5.23958e-09 2.4509e-08 -3.56299e-09)
(-5.88855e-08 2.1908e-08 -3.59299e-09)
(6.72212e-08 2.80726e-08 -4.18308e-09)
(8.8704e-09 2.95612e-08 -3.97755e-09)
(3.27086e-09 2.92267e-08 -3.86752e-09)
(-2.33944e-09 2.71258e-08 -3.77785e-09)
(-5.96428e-08 2.3287e-08 -3.79286e-09)
(6.8429e-08 2.5864e-08 -4.01558e-09)
(6.99588e-09 2.67053e-08 -3.81965e-09)
(4.5614e-09 2.55065e-08 -3.71003e-09)
(2.03668e-09 2.3948e-08 -3.6097e-09)
(-5.87162e-08 2.04372e-08 -3.59525e-09)
(3.83805e-08 -9.16359e-09 -3.56463e-09)
(6.36522e-09 -4.13297e-08 -3.2714e-09)
(5.97631e-09 -4.2087e-08 -3.18382e-09)
(5.42216e-09 -4.33124e-08 -3.07187e-09)
(-2.7207e-08 -1.35407e-08 -3.19988e-09)
(2.03009e-08 8.26532e-09 0)
(2.18046e-09 3.28728e-09 0)
(-4.65567e-13 1.73827e-09 0)
(-2.19886e-09 3.24855e-09 0)
(-2.00814e-08 8.19588e-09 0)
(3.28675e-08 1.3268e-08 0)
(6.10491e-09 9.12311e-09 0)
(4.99734e-11 6.67313e-09 0)
(-6.03646e-09 8.83953e-09 0)
(-3.24062e-08 1.28012e-08 0)
(3.60172e-08 1.56891e-08 0)
(8.28598e-09 1.40432e-08 0)
(2.49717e-10 1.27012e-08 0)
(-7.80746e-09 1.33372e-08 0)
(-3.50986e-08 1.44805e-08 0)
(3.72268e-08 1.90989e-08 0)
(8.91285e-09 1.85556e-08 0)
(6.58707e-10 1.78589e-08 0)
(-7.60356e-09 1.74153e-08 0)
(-3.54381e-08 1.71281e-08 0)
(3.83676e-08 2.26502e-08 0)
(9.32166e-09 2.25906e-08 0)
(1.2921e-09 2.21818e-08 0)
(-6.73507e-09 2.10152e-08 0)
(-3.52657e-08 1.99157e-08 0)
(3.96712e-08 2.57204e-08 0)
(9.51511e-09 2.61777e-08 0)
(2.14966e-09 2.59495e-08 0)
(-5.20808e-09 2.41714e-08 0)
(-3.48233e-08 2.22371e-08 0)
(4.0375e-08 2.82957e-08 0)
(8.75961e-09 2.91833e-08 0)
(3.22697e-09 2.88568e-08 0)
(-2.31768e-09 2.67613e-08 0)
(-3.3419e-08 2.41035e-08 0)
(3.92883e-08 2.61606e-08 0)
(6.8872e-09 2.63319e-08 0)
(4.5106e-09 2.51457e-08 0)
(2.04256e-09 2.3587e-08 0)
(-3.00673e-08 2.13944e-08 0)
(2.82219e-08 1.4627e-09 0)
(5.99808e-09 -9.69377e-09 0)
(5.56025e-09 -1.09966e-08 0)
(4.96381e-09 -1.21127e-08 0)
(-1.7483e-08 -2.88583e-09 0)
)
;

boundaryField
{
    interface
    {
        type            calculated;
    }
    symmetry
    {
        type            symmetry;
    }
    bottom
    {
        type            calculated;
    }
}


// ************************************************************************* //
