/*--------------------------------*- C++ -*----------------------------------*\
| =========                 |                                                 |
| \\      /  F ield         | OpenFOAM: The Open Source CFD Toolbox           |
|  \\    /   O peration     | Version:  v1912                                 |
|   \\  /    A nd           | Website:  www.openfoam.com                      |
|    \\/     M anipulation  |                                                 |
\*---------------------------------------------------------------------------*/
FoamFile
{
    version     2.0;
    format      ascii;
    class       volScalarField;
    location    "0.15/solid";
    object      sigmaHyd;
}
// * * * * * * * * * * * * * * * * * * * * * * * * * * * * * * * * * * * * * //

dimensions      [1 -1 -2 0 0 0 0];


internalField   nonuniform List<scalar> 
256
(
-774166
-377528
-376365
-768864
-862062
-441368
-440517
-856761
-860175
-439705
-438804
-854255
-864597
-438637
-437642
-858187
-878910
-441292
-440239
-872203
-904733
-448514
-447471
-898074
-980584
-498122
-497081
-974542
-1.52601e+06
-1.02571e+06
-1.0224e+06
-1.51605e+06
-330894
15149.6
13328.1
-330895
-397650
-21936.6
-24047.2
-397910
-398125
-25770.1
-27881.4
-397947
-399032
-21913.5
-23995.6
-398476
-404792
-14250.5
-16311.6
-403915
-416428
-3009.2
-5065.4
-415403
-469520
-21626.9
-23578.3
-468732
-980644
-498148
-497048
-974463
-278550
30106.9
28311.3
-277679
-335523
6351.67
4216.67
-335302
-336194
2053.12
-104.935
-335664
-337868
4462.11
2315.08
-337023
-344945
10561.1
8423.45
-343800
-359250
19283.3
17149.1
-357929
-416225
-2679.68
-4691.45
-415039
-904731
-448396
-447233
-897726
-261479
24580.6
22923
-260054
-316720
2634.08
608.827
-316217
-317336
-1475.5
-3552.65
-316647
-319576
118.512
-1967.27
-318647
-327852
4752.84
2664.76
-326666
-344329
11174.6
9085.35
-342978
-403947
-13199.2
-15161.9
-402685
-878373
-440576
-439319
-871022
-251386
21693.6
20150.3
-249636
-305508
-57.0686
-1987.84
-304857
-306147
-4154.56
-6158.89
-305394
-308824
-3047.85
-5077.14
-307891
-317892
648.066
-1393.98
-316745
-335608
5712.93
3664.53
-334316
-396469
-19784.4
-21706.7
-395249
-862059
-436163
-434854
-854606
-245736
20129.9
18671
-243782
-298908
-1442.64
-3302
-298158
-299555
-5577.62
-7524.1
-298752
-302543
-4774.36
-6757.11
-301601
-312122
-1636.42
-3639.94
-310999
-330535
2682.45
667.919
-329285
-391968
-23333.3
-25223.6
-390784
-852109
-433277
-431936
-844620
-242864
19188.4
17784.8
-240791
-295425
-2177.64
-3989.23
-294614
-296080
-6335.89
-8242.11
-295243
-299259
-5708.12
-7657.35
-298306
-309140
-2878.76
-4853.94
-308027
-327928
1050.55
-939.055
-326701
-389620
-25210.3
-27077.6
-388459
-846620
-431612
-430250
-839120
-241679
18718.1
17341.9
-239552
-293959
-2517.58
-4305.28
-293120
-294624
-6683.79
-8569.37
-293770
-297894
-6135.73
-8067.41
-296935
-307914
-3443.34
-5403.49
-306803
-326865
318.596
-1657.73
-325647
-388658
-26043.3
-27898.4
-387506
-844218
-430869
-429497
-836715
)
;

boundaryField
{
    interface
    {
        type            zeroGradient;
    }
    symmetry
    {
        type            symmetry;
    }
    bottom
    {
        type            zeroGradient;
    }
}


// ************************************************************************* //
