/*--------------------------------*- C++ -*----------------------------------*\
| =========                 |                                                 |
| \\      /  F ield         | OpenFOAM: The Open Source CFD Toolbox           |
|  \\    /   O peration     | Version:  v1912                                 |
|   \\  /    A nd           | Website:  www.openfoam.com                      |
|    \\/     M anipulation  |                                                 |
\*---------------------------------------------------------------------------*/
FoamFile
{
    version     2.0;
    format      ascii;
    class       volScalarField;
    location    "0.15/solid";
    object      T;
}
// * * * * * * * * * * * * * * * * * * * * * * * * * * * * * * * * * * * * * //

dimensions      [0 0 0 1 0 0 0];


internalField   nonuniform List<scalar> 
256
(
292.181
292.591
292.591
292.175
292.123
292.56
292.561
292.116
292.118
292.558
292.559
292.112
292.112
292.555
292.556
292.107
292.102
292.55
292.551
292.096
292.081
292.54
292.541
292.075
292.021
292.5
292.501
292.015
291.453
291.98
291.982
291.45
292.621
292.972
292.972
292.612
292.592
292.969
292.969
292.583
292.59
292.969
292.969
292.58
292.587
292.969
292.969
292.578
292.582
292.969
292.968
292.573
292.571
292.968
292.968
292.562
292.531
292.951
292.95
292.522
292.021
292.5
292.501
292.015
292.657
292.987
292.986
292.648
292.631
292.985
292.985
292.621
292.629
292.985
292.985
292.619
292.626
292.985
292.985
292.616
292.621
292.985
292.984
292.611
292.609
292.984
292.984
292.6
292.571
292.968
292.968
292.562
292.08
292.54
292.541
292.075
292.668
292.987
292.987
292.658
292.642
292.986
292.985
292.632
292.64
292.986
292.985
292.63
292.637
292.986
292.985
292.627
292.632
292.986
292.985
292.622
292.621
292.985
292.984
292.611
292.582
292.969
292.968
292.573
292.102
292.55
292.551
292.096
292.673
292.987
292.987
292.663
292.647
292.986
292.985
292.637
292.645
292.986
292.985
292.635
292.642
292.986
292.985
292.632
292.637
292.986
292.985
292.627
292.626
292.985
292.985
292.616
292.587
292.969
292.969
292.578
292.112
292.555
292.556
292.107
292.676
292.987
292.987
292.666
292.65
292.986
292.986
292.64
292.648
292.986
292.985
292.638
292.645
292.986
292.985
292.635
292.64
292.986
292.985
292.63
292.629
292.985
292.985
292.619
292.59
292.969
292.969
292.58
292.118
292.558
292.559
292.112
292.677
292.987
292.987
292.667
292.652
292.986
292.986
292.641
292.65
292.986
292.985
292.639
292.647
292.986
292.985
292.636
292.641
292.986
292.985
292.631
292.63
292.985
292.985
292.62
292.591
292.969
292.969
292.582
292.121
292.559
292.56
292.115
292.678
292.987
292.987
292.668
292.652
292.986
292.986
292.642
292.65
292.986
292.985
292.64
292.647
292.986
292.985
292.637
292.642
292.986
292.985
292.632
292.631
292.985
292.985
292.621
292.592
292.969
292.969
292.582
292.122
292.56
292.561
292.116
)
;

boundaryField
{
    interface
    {
        type            fixedValue;
        value           nonuniform List<scalar> 
192
(
289.909
289.859
289.827
289.775
289.687
289.535
289.244
288.407
290.675
290.644
290.616
290.569
290.49
290.35
290.07
289.244
290.95
290.921
290.894
290.848
290.77
290.63
290.35
289.535
291.09
291.061
291.035
290.989
290.911
290.77
290.49
289.686
291.168
291.14
291.113
291.067
290.989
290.848
290.568
289.773
291.213
291.185
291.158
291.112
291.033
290.892
290.614
289.825
291.238
291.21
291.183
291.137
291.058
290.917
290.639
289.854
291.25
291.222
291.194
291.148
291.069
290.928
290.65
289.867
289.753
289.703
289.671
289.619
289.533
289.382
289.088
288.234
290.382
290.35
290.323
290.279
290.203
290.066
289.785
288.932
290.399
290.368
290.342
290.298
290.222
290.085
289.804
288.952
289.803
289.756
289.726
289.676
289.59
289.439
289.144
288.292
289.938
289.89
289.859
289.808
289.722
289.569
289.272
288.422
290.712
290.682
290.656
290.611
290.533
290.394
290.11
289.273
290.988
290.961
290.936
290.892
290.816
290.677
290.394
289.569
291.127
291.101
291.075
291.032
290.955
290.816
290.534
289.722
291.205
291.178
291.153
291.109
291.032
290.892
290.611
289.809
291.249
291.222
291.197
291.153
291.075
290.935
290.655
289.859
291.273
291.247
291.221
291.177
291.099
290.959
290.68
289.888
291.284
291.257
291.232
291.187
291.11
290.97
290.691
289.901
288.234
289.087
289.382
289.532
289.618
289.668
289.697
289.709
288.932
289.785
290.066
290.203
290.278
290.321
290.346
290.356
288.952
289.804
290.085
290.222
290.298
290.341
290.365
290.376
288.292
289.144
289.439
289.59
289.676
289.726
289.754
289.767
)
;
    }
    symmetry
    {
        type            symmetry;
    }
    bottom
    {
        type            fixedValue;
        value           uniform 293;
    }
}


// ************************************************************************* //
