/*--------------------------------*- C++ -*----------------------------------*\
| =========                 |                                                 |
| \\      /  F ield         | OpenFOAM: The Open Source CFD Toolbox           |
|  \\    /   O peration     | Version:  v1912                                 |
|   \\  /    A nd           | Website:  www.openfoam.com                      |
|    \\/     M anipulation  |                                                 |
\*---------------------------------------------------------------------------*/
FoamFile
{
    version     2.0;
    format      ascii;
    class       volVectorField;
    location    "0.15/solid";
    object      U;
}
// * * * * * * * * * * * * * * * * * * * * * * * * * * * * * * * * * * * * * //

dimensions      [0 1 -1 0 0 0 0];


internalField   nonuniform List<vector> 
256
(
(8.8276e-08 6.77659e-08 1.07659e-07)
(1.59806e-08 2.70269e-08 7.74512e-08)
(-1.43337e-08 2.64798e-08 7.80641e-08)
(-8.44236e-08 6.4657e-08 1.09821e-07)
(1.34835e-07 1.52675e-08 2.14556e-07)
(3.33521e-08 -6.81298e-09 1.77937e-07)
(-2.6011e-08 -8.42856e-09 1.79573e-07)
(-1.24634e-07 9.47202e-09 2.1988e-07)
(1.35815e-07 -5.19319e-08 2.83697e-07)
(3.67252e-08 -5.93149e-08 2.49358e-07)
(-2.25448e-08 -6.18839e-08 2.51641e-07)
(-1.18905e-07 -6.02003e-08 2.90904e-07)
(1.30048e-07 -1.18771e-07 3.43419e-07)
(3.64947e-08 -1.24169e-07 3.09127e-07)
(-1.46122e-08 -1.27538e-07 3.11781e-07)
(-1.05568e-07 -1.29241e-07 3.517e-07)
(1.30624e-07 -1.87315e-07 4.03434e-07)
(3.89724e-08 -1.98977e-07 3.67373e-07)
(-8.51082e-09 -2.03036e-07 3.70245e-07)
(-9.76508e-08 -1.99728e-07 4.12347e-07)
(1.48323e-07 -2.62428e-07 4.71277e-07)
(4.92999e-08 -2.82934e-07 4.32753e-07)
(-9.35917e-09 -2.87616e-07 4.35772e-07)
(-1.05944e-07 -2.76598e-07 4.80617e-07)
(2.00036e-07 -3.6229e-07 5.56271e-07)
(7.20857e-08 -3.77404e-07 5.16071e-07)
(-2.18037e-08 -3.82697e-07 5.19205e-07)
(-1.47337e-07 -3.78206e-07 5.65973e-07)
(2.87608e-07 -5.45636e-07 6.538e-07)
(9.64064e-08 -5.09513e-07 6.15207e-07)
(-3.51325e-08 -5.152e-07 6.18385e-07)
(-2.23679e-07 -5.63181e-07 6.6373e-07)
(3.07701e-08 4.9007e-09 3.9555e-08)
(4.94805e-09 -1.70726e-08 4.55961e-08)
(-4.09307e-09 -1.7747e-08 4.61445e-08)
(-2.80632e-08 1.72732e-09 4.1169e-08)
(5.00158e-08 -4.54747e-08 1.228e-07)
(1.29933e-08 -5.86784e-08 1.34904e-07)
(-7.92926e-09 -6.05138e-08 1.3628e-07)
(-4.26263e-08 -5.15472e-08 1.26838e-07)
(4.92603e-08 -1.03009e-07 1.92794e-07)
(1.48064e-08 -1.08505e-07 2.07584e-07)
(-4.04355e-09 -1.11232e-07 2.09526e-07)
(-3.62952e-08 -1.1147e-07 1.98489e-07)
(4.49267e-08 -1.64696e-07 2.53444e-07)
(1.49162e-08 -1.70031e-07 2.68644e-07)
(2.74903e-09 -1.73488e-07 2.70942e-07)
(-2.51542e-08 -1.75246e-07 2.60203e-07)
(4.61104e-08 -2.30106e-07 3.12243e-07)
(1.7665e-08 -2.41852e-07 3.26759e-07)
(8.03183e-09 -2.4596e-07 3.29282e-07)
(-1.8353e-08 -2.42552e-07 3.19689e-07)
(6.36625e-08 -2.99064e-07 3.74293e-07)
(2.80219e-08 -3.19676e-07 3.87827e-07)
(6.77293e-09 -3.24395e-07 3.90504e-07)
(-2.68316e-08 -3.13272e-07 3.82209e-07)
(1.14912e-07 -3.76254e-07 4.36239e-07)
(5.06838e-08 -3.91441e-07 4.49073e-07)
(-5.82002e-09 -3.96768e-07 4.51855e-07)
(-6.79658e-08 -3.92217e-07 4.44476e-07)
(2.02773e-07 -4.95905e-07 4.70284e-07)
(7.48046e-08 -4.58283e-07 4.83116e-07)
(-1.91268e-08 -4.64006e-07 4.85936e-07)
(-1.44694e-07 -5.13429e-07 4.78646e-07)
(1.1559e-09 -1.24352e-08 2.62374e-08)
(-4.80708e-09 -2.51129e-08 3.60755e-08)
(5.12311e-09 -2.57391e-08 3.64919e-08)
(8.44044e-10 -1.52199e-08 2.74504e-08)
(-1.62329e-10 -7.42571e-08 9.09946e-08)
(-5.7768e-09 -8.09416e-08 1.08715e-07)
(9.20424e-09 -8.27027e-08 1.09759e-07)
(5.68548e-09 -7.98457e-08 9.40156e-08)
(-3.66009e-09 -1.34029e-07 1.54353e-07)
(-5.80687e-09 -1.37469e-07 1.74422e-07)
(1.3966e-08 -1.40119e-07 1.75913e-07)
(1.3814e-08 -1.42061e-07 1.58684e-07)
(-6.689e-09 -1.92899e-07 2.12382e-07)
(-5.44238e-09 -1.9827e-07 2.32723e-07)
(1.97361e-08 -2.01655e-07 2.34522e-07)
(2.29163e-08 -2.03092e-07 2.17648e-07)
(-4.32534e-09 -2.51318e-07 2.66843e-07)
(-2.40321e-09 -2.63652e-07 2.86757e-07)
(2.4157e-08 -2.67697e-07 2.8877e-07)
(2.79977e-08 -2.6348e-07 2.72773e-07)
(1.41076e-08 -3.06895e-07 3.17945e-07)
(8.03209e-09 -3.28149e-07 3.37231e-07)
(2.24184e-08 -3.32818e-07 3.39395e-07)
(1.82678e-08 -3.20895e-07 3.24345e-07)
(6.60769e-08 -3.62311e-07 3.58201e-07)
(3.0638e-08 -3.78246e-07 3.76923e-07)
(9.62106e-09 -3.83539e-07 3.79185e-07)
(-2.38101e-08 -3.78137e-07 3.64906e-07)
(1.53561e-07 -4.58801e-07 3.70061e-07)
(5.46895e-08 -4.22955e-07 3.88771e-07)
(-3.77659e-09 -4.28655e-07 3.91074e-07)
(-1.00272e-07 -4.76219e-07 3.76884e-07)
(-8.19891e-09 -1.75158e-08 2.24042e-08)
(-8.15348e-09 -2.60372e-08 2.78216e-08)
(8.13069e-09 -2.66053e-08 2.81509e-08)
(9.75294e-09 -1.9984e-08 2.3365e-08)
(-1.80392e-08 -8.54334e-08 7.41081e-08)
(-1.32237e-08 -8.88399e-08 8.42118e-08)
(1.55375e-08 -9.04621e-08 8.50232e-08)
(2.23264e-08 -9.04673e-08 7.64398e-08)
(-2.34547e-08 -1.48598e-07 1.26817e-07)
(-1.44944e-08 -1.5081e-07 1.38395e-07)
(2.07777e-08 -1.53306e-07 1.39547e-07)
(3.16413e-08 -1.56059e-07 1.30147e-07)
(-2.58496e-08 -2.06094e-07 1.76771e-07)
(-1.41177e-08 -2.11505e-07 1.885e-07)
(2.58718e-08 -2.1475e-07 1.89899e-07)
(3.94731e-08 -2.15788e-07 1.80856e-07)
(-2.23937e-08 -2.58318e-07 2.22432e-07)
(-1.08454e-08 -2.71168e-07 2.3383e-07)
(2.95309e-08 -2.75101e-07 2.35411e-07)
(4.29549e-08 -2.70083e-07 2.2709e-07)
(-2.89985e-09 -3.03798e-07 2.61366e-07)
(-2.38037e-10 -3.25699e-07 2.72262e-07)
(2.72357e-08 -3.30286e-07 2.73976e-07)
(3.17985e-08 -3.17513e-07 2.66441e-07)
(4.98086e-08 -3.48764e-07 2.87854e-07)
(2.24e-08 -3.6568e-07 2.98275e-07)
(1.41591e-08 -3.70927e-07 3.00078e-07)
(-1.12449e-08 -3.64432e-07 2.93204e-07)
(1.37138e-07 -4.39527e-07 2.94491e-07)
(4.65026e-08 -4.0616e-07 3.05003e-07)
(5.8067e-10 -4.11848e-07 3.06852e-07)
(-8.76587e-08 -4.56921e-07 2.99976e-07)
(-1.00357e-08 -1.938e-08 1.86336e-08)
(-8.48775e-09 -2.62612e-08 2.07363e-08)
(8.24979e-09 -2.67855e-08 2.09894e-08)
(1.12952e-08 -2.16243e-08 1.93725e-08)
(-2.16636e-08 -8.90897e-08 5.89268e-08)
(-1.44928e-08 -9.12219e-08 6.29212e-08)
(1.60559e-08 -9.27243e-08 6.35361e-08)
(2.51138e-08 -9.36812e-08 6.0686e-08)
(-2.75775e-08 -1.53559e-07 9.98433e-08)
(-1.62249e-08 -1.55283e-07 1.04472e-07)
(2.11902e-08 -1.57632e-07 1.05339e-07)
(3.43868e-08 -1.60518e-07 1.02339e-07)
(-2.96404e-08 -2.10025e-07 1.38911e-07)
(-1.59102e-08 -2.15509e-07 1.4358e-07)
(2.5818e-08 -2.18616e-07 1.44633e-07)
(4.13807e-08 -2.19253e-07 1.41977e-07)
(-2.55059e-08 -2.58523e-07 1.73893e-07)
(-1.2541e-08 -2.71717e-07 1.78336e-07)
(2.89362e-08 -2.75536e-07 1.79531e-07)
(4.3756e-08 -2.69908e-07 1.77407e-07)
(-5.31467e-09 -2.99066e-07 2.02125e-07)
(-1.83142e-09 -3.21431e-07 2.06231e-07)
(2.62036e-08 -3.2594e-07 2.07532e-07)
(3.15811e-08 -3.12518e-07 2.05975e-07)
(4.78215e-08 -3.40695e-07 2.20296e-07)
(2.0827e-08 -3.58367e-07 2.24086e-07)
(1.28907e-08 -3.63578e-07 2.25462e-07)
(-1.20922e-08 -3.56245e-07 2.24376e-07)
(1.35187e-07 -4.30131e-07 2.25665e-07)
(4.50203e-08 -3.98555e-07 2.29529e-07)
(-8.71815e-10 -4.04251e-07 2.30952e-07)
(-8.863e-08 -4.47572e-07 2.29882e-07)
(-1.00518e-08 -2.00739e-08 1.39612e-08)
(-8.18226e-09 -2.63707e-08 1.45791e-08)
(7.80661e-09 -2.68648e-08 1.47584e-08)
(1.11161e-08 -2.21651e-08 1.44844e-08)
(-2.13801e-08 -8.98253e-08 4.2935e-08)
(-1.40967e-08 -9.16001e-08 4.40865e-08)
(1.51617e-08 -9.30163e-08 4.45188e-08)
(2.42691e-08 -9.41037e-08 4.41673e-08)
(-2.70524e-08 -1.54198e-07 7.19343e-08)
(-1.58734e-08 -1.55829e-07 7.32496e-08)
(1.99426e-08 -1.58066e-07 7.38562e-08)
(3.2922e-08 -1.60782e-07 7.36734e-08)
(-2.88453e-08 -2.09799e-07 9.947e-08)
(-1.55921e-08 -2.15378e-07 1.00757e-07)
(2.4217e-08 -2.18376e-07 1.01492e-07)
(3.92759e-08 -2.18666e-07 1.01605e-07)
(-2.43652e-08 -2.56574e-07 1.23771e-07)
(-1.22169e-08 -2.69972e-07 1.24924e-07)
(2.6991e-08 -2.73701e-07 1.25759e-07)
(4.09801e-08 -2.67661e-07 1.26223e-07)
(-3.84132e-09 -2.95435e-07 1.4292e-07)
(-1.49172e-09 -3.18072e-07 1.43888e-07)
(2.39808e-08 -3.22521e-07 1.44799e-07)
(2.82216e-08 -3.08686e-07 1.45614e-07)
(4.95003e-08 -3.36532e-07 1.55186e-07)
(2.1165e-08 -3.54621e-07 1.55983e-07)
(1.05013e-08 -3.59811e-07 1.56951e-07)
(-1.58161e-08 -3.52007e-07 1.58052e-07)
(1.36979e-07 -4.25648e-07 1.59527e-07)
(4.54368e-08 -3.94958e-07 1.60355e-07)
(-3.40068e-09 -4.00673e-07 1.61364e-07)
(-9.25313e-08 -4.4316e-07 1.62509e-07)
(-9.90172e-09 -2.02843e-08 8.61946e-09)
(-7.94882e-09 -2.63736e-08 8.74535e-09)
(7.49036e-09 -2.68489e-08 8.85221e-09)
(1.08456e-08 -2.22792e-08 8.93108e-09)
(-2.07719e-08 -8.96221e-08 2.60873e-08)
(-1.36788e-08 -9.13475e-08 2.62977e-08)
(1.44378e-08 -9.27091e-08 2.65543e-08)
(2.33131e-08 -9.37026e-08 2.6817e-08)
(-2.61109e-08 -1.53511e-07 4.33495e-08)
(-1.53997e-08 -1.5518e-07 4.35628e-08)
(1.89109e-08 -1.57345e-07 4.39219e-08)
(3.1393e-08 -1.59853e-07 4.43763e-08)
(-2.76923e-08 -2.08514e-07 5.96149e-08)
(-1.5124e-08 -2.14174e-07 5.97874e-08)
(2.294e-08 -2.17098e-07 6.02223e-08)
(3.72955e-08 -2.17141e-07 6.08743e-08)
(-2.3049e-08 -2.54652e-07 7.38448e-08)
(-1.177e-08 -2.68159e-07 7.39491e-08)
(2.55109e-08 -2.71827e-07 7.44431e-08)
(3.86208e-08 -2.65539e-07 7.52919e-08)
(-2.39537e-09 -2.93194e-07 8.49721e-08)
(-1.06456e-09 -3.15965e-07 8.49926e-08)
(2.23437e-08 -3.20375e-07 8.55324e-08)
(2.55636e-08 -3.06313e-07 8.65645e-08)
(5.10428e-08 -3.34521e-07 9.21744e-08)
(2.15855e-08 -3.52785e-07 9.2119e-08)
(8.75842e-09 -3.57965e-07 9.26936e-08)
(-1.86771e-08 -3.49955e-07 9.38723e-08)
(1.38631e-07 -4.23617e-07 9.50308e-08)
(4.59078e-08 -3.93228e-07 9.49793e-08)
(-5.22898e-09 -3.9896e-07 9.55816e-08)
(-9.55409e-08 -4.41194e-07 9.68051e-08)
(-9.8421e-09 -2.03264e-08 2.91147e-09)
(-7.85354e-09 -2.63431e-08 2.92398e-09)
(7.35615e-09 -2.68091e-08 2.95946e-09)
(1.07284e-08 -2.22749e-08 3.0149e-09)
(-2.04966e-08 -8.93531e-08 8.74699e-09)
(-1.34982e-08 -9.10887e-08 8.75956e-09)
(1.41117e-08 -9.2424e-08 8.84462e-09)
(2.28713e-08 -9.33382e-08 8.9886e-09)
(-2.56543e-08 -1.52906e-07 1.44737e-08)
(-1.51824e-08 -1.54615e-07 1.4475e-08)
(1.84267e-08 -1.56745e-07 1.45939e-08)
(3.06544e-08 -1.5913e-07 1.48132e-08)
(-2.71229e-08 -2.07614e-07 1.98444e-08)
(-1.49051e-08 -2.13319e-07 1.98286e-08)
(2.23318e-08 -2.16208e-07 1.99725e-08)
(3.63272e-08 -2.16124e-07 2.02605e-08)
(-2.24128e-08 -2.53572e-07 2.45244e-08)
(-1.15664e-08 -2.67126e-07 2.44878e-08)
(2.48077e-08 -2.70765e-07 2.46513e-08)
(3.74797e-08 -2.64361e-07 2.50026e-08)
(-1.71663e-09 -2.92144e-07 2.81782e-08)
(-8.775e-10 -3.14968e-07 2.81184e-08)
(2.15694e-08 -3.1936e-07 2.82971e-08)
(2.42965e-08 -3.052e-07 2.87046e-08)
(5.17628e-08 -3.33705e-07 3.05626e-08)
(2.17694e-08 -3.52023e-07 3.04818e-08)
(7.93239e-09 -3.572e-07 3.06723e-08)
(-2.00374e-08 -3.49122e-07 3.11245e-08)
(1.39414e-07 -4.22848e-07 3.15586e-08)
(4.61158e-08 -3.92518e-07 3.14764e-08)
(-6.09361e-09 -3.98262e-07 3.16766e-08)
(-9.69817e-08 -4.40463e-07 3.21472e-08)
)
;

boundaryField
{
    interface
    {
        type            calculated;
        value           nonuniform List<vector> 
192
(
(1.07993e-08 1.23544e-07 9.35313e-08)
(4.53558e-08 2.71523e-08 1.92392e-07)
(4.79907e-08 -5.31285e-08 2.60573e-07)
(4.55137e-08 -1.20068e-07 3.20765e-07)
(4.93424e-08 -1.82746e-07 3.81277e-07)
(6.84915e-08 -2.45075e-07 4.49481e-07)
(1.14981e-07 -3.27468e-07 5.346e-07)
(2.37272e-07 -5.22466e-07 6.31956e-07)
(-8.55845e-08 2.50971e-08 1.77764e-08)
(-7.26443e-08 -4.08522e-08 8.90512e-08)
(-7.25055e-08 -1.04282e-07 1.57926e-07)
(-7.46342e-08 -1.65483e-07 2.19261e-07)
(-7.1143e-08 -2.25422e-07 2.78506e-07)
(-5.30186e-08 -2.81864e-07 3.4074e-07)
(-7.84169e-09 -3.41477e-07 4.02749e-07)
(1.17743e-07 -4.7289e-07 4.36772e-07)
(-1.14018e-07 -1.21868e-08 1.64963e-08)
(-1.17678e-07 -7.5461e-08 7.39818e-08)
(-1.20242e-07 -1.3566e-07 1.36175e-07)
(-1.2136e-07 -1.93066e-07 1.94688e-07)
(-1.16811e-07 -2.46119e-07 2.49718e-07)
(-9.75362e-08 -2.89295e-07 3.01305e-07)
(-5.06376e-08 -3.27448e-07 3.41925e-07)
(7.37882e-08 -4.35616e-07 3.53653e-07)
(-1.25987e-07 -2.40753e-08 1.96071e-08)
(-1.36873e-07 -8.92473e-08 6.87334e-08)
(-1.41219e-07 -1.5055e-07 1.20838e-07)
(-1.41712e-07 -2.05828e-07 1.71033e-07)
(-1.36039e-07 -2.5258e-07 2.17137e-07)
(-1.15571e-07 -2.85747e-07 2.56511e-07)
(-6.75966e-08 -3.13754e-07 2.83291e-07)
(5.59725e-08 -4.15981e-07 2.89897e-07)
(-1.3106e-07 -2.73048e-08 1.8171e-08)
(-1.43372e-07 -9.34751e-08 5.8092e-08)
(-1.48104e-07 -1.55554e-07 9.89443e-08)
(-1.48172e-07 -2.09507e-07 1.38163e-07)
(-1.41729e-07 -2.52441e-07 1.734e-07)
(-1.20495e-07 -2.80734e-07 2.0189e-07)
(-7.20708e-08 -3.0557e-07 2.20219e-07)
(5.09522e-08 -4.06275e-07 2.25625e-07)
(-1.33767e-07 -2.79318e-08 1.39951e-08)
(-1.45671e-07 -9.40754e-08 4.31582e-08)
(-1.50083e-07 -1.56064e-07 7.23012e-08)
(-1.49788e-07 -2.09127e-07 9.99573e-08)
(-1.42918e-07 -2.50323e-07 1.24386e-07)
(-1.21333e-07 -2.76969e-07 1.4365e-07)
(-7.27993e-08 -3.01327e-07 1.55992e-07)
(4.99891e-08 -4.01606e-07 1.60389e-07)
(-1.35479e-07 -2.79526e-08 8.67212e-09)
(-1.46882e-07 -9.36744e-08 2.63083e-08)
(-1.50911e-07 -1.55241e-07 4.36992e-08)
(-1.50338e-07 -2.07748e-07 6.00456e-08)
(-1.43254e-07 -2.48328e-07 7.4333e-08)
(-1.21544e-07 -2.74671e-07 8.55034e-08)
(-7.30205e-08 -2.99265e-07 9.27402e-08)
(4.9696e-08 -3.99488e-07 9.56397e-08)
(-1.36364e-07 -2.79109e-08 2.92646e-09)
(-1.47533e-07 -9.3306e-08 8.81589e-09)
(-1.51356e-07 -1.54562e-07 1.45879e-08)
(-1.50639e-07 -2.06804e-07 1.99868e-08)
(-1.43464e-07 -2.4722e-07 2.46835e-08)
(-1.21721e-07 -2.736e-07 2.83479e-08)
(-7.32186e-08 -2.98423e-07 3.07426e-08)
(4.94852e-08 -3.98688e-07 3.17545e-08)
(8.77831e-08 1.4832e-07 2.45227e-08)
(1.36759e-07 5.92776e-08 1.18571e-07)
(1.38789e-07 -1.9716e-08 1.89904e-07)
(1.32799e-07 -8.88363e-08 2.53993e-07)
(1.32684e-07 -1.55351e-07 3.18294e-07)
(1.49588e-07 -2.24219e-07 3.88174e-07)
(2.00819e-07 -3.16659e-07 4.67967e-07)
(2.8888e-07 -5.21414e-07 5.9892e-07)
(8.57718e-09 9.08743e-08 -3.40904e-08)
(2.46023e-08 3.61639e-08 5.45311e-08)
(2.87076e-08 -2.65174e-08 1.25947e-07)
(2.85817e-08 -9.46651e-08 1.88506e-07)
(3.0672e-08 -1.6807e-07 2.49683e-07)
(4.04206e-08 -2.45759e-07 3.15602e-07)
(6.28162e-08 -3.3179e-07 3.92363e-07)
(8.75505e-08 -4.85005e-07 5.29911e-07)
(-6.24583e-09 9.08892e-08 -3.39092e-08)
(-1.55287e-08 3.49658e-08 5.57473e-08)
(-1.21614e-08 -2.88319e-08 1.27765e-07)
(-3.97184e-09 -9.78872e-08 1.90679e-07)
(2.72949e-09 -1.72038e-07 2.52065e-07)
(2.60382e-09 -2.50376e-07 3.18106e-07)
(-9.33088e-09 -3.37044e-07 3.94922e-07)
(-2.30039e-08 -4.90672e-07 5.32388e-07)
(-8.32409e-08 1.47082e-07 2.632e-08)
(-1.24874e-07 5.47429e-08 1.23867e-07)
(-1.19592e-07 -2.72452e-08 1.96923e-07)
(-1.05671e-07 -9.888e-08 2.61986e-07)
(-9.68399e-08 -1.67499e-07 3.26846e-07)
(-1.04187e-07 -2.38191e-07 3.97055e-07)
(-1.44982e-07 -3.32427e-07 4.77064e-07)
(-2.21732e-07 -5.38887e-07 6.08162e-07)
(6.49115e-09 1.16922e-07 9.63182e-08)
(-2.17064e-08 1.80928e-08 1.99255e-07)
(-1.77223e-08 -6.49664e-08 2.69904e-07)
(-7.91481e-09 -1.34554e-07 3.31542e-07)
(-3.5898e-09 -1.99635e-07 3.92924e-07)
(-1.37054e-08 -2.64176e-07 4.61714e-07)
(-4.99856e-08 -3.48771e-07 5.47305e-07)
(-1.58953e-07 -5.45728e-07 6.44955e-07)
(9.97546e-08 1.93998e-08 1.98495e-08)
(9.12436e-08 -4.9489e-08 9.42555e-08)
(9.65945e-08 -1.15838e-07 1.65307e-07)
(1.05329e-07 -1.79732e-07 2.2808e-07)
(1.09529e-07 -2.42132e-07 2.88274e-07)
(1.00172e-07 -3.00868e-07 3.51154e-07)
(6.507e-08 -3.6275e-07 4.13593e-07)
(-4.73383e-08 -4.96086e-07 4.47793e-07)
(1.27283e-07 -1.68523e-08 1.79945e-08)
(1.34239e-07 -8.30882e-08 7.77756e-08)
(1.41369e-07 -1.46368e-07 1.41698e-07)
(1.48384e-07 -2.06638e-07 2.01489e-07)
(1.51026e-07 -2.62317e-07 2.57445e-07)
(1.4022e-07 -3.07942e-07 3.09686e-07)
(1.03277e-07 -3.48501e-07 3.50725e-07)
(-8.02141e-09 -4.58654e-07 3.62625e-07)
(1.38979e-07 -2.80039e-08 2.07509e-08)
(1.52396e-07 -9.59394e-08 7.15814e-08)
(1.60596e-07 -1.60345e-07 1.25003e-07)
(1.66368e-07 -2.18616e-07 1.76239e-07)
(1.67404e-07 -2.68164e-07 2.23149e-07)
(1.55083e-07 -3.03962e-07 2.63112e-07)
(1.16909e-07 -3.34566e-07 2.90274e-07)
(6.4147e-09 -4.38957e-07 2.97065e-07)
(1.4403e-07 -3.07267e-08 1.90308e-08)
(1.58352e-07 -9.94541e-08 6.01996e-08)
(1.66409e-07 -1.64584e-07 1.02018e-07)
(1.71261e-07 -2.21595e-07 1.42026e-07)
(1.71111e-07 -2.67458e-07 1.779e-07)
(1.57725e-07 -2.98555e-07 2.06869e-07)
(1.18939e-07 -3.2619e-07 2.25518e-07)
(8.93416e-09 -4.29273e-07 2.311e-07)
(1.468e-07 -3.10115e-08 1.45962e-08)
(1.60364e-07 -9.95552e-08 4.46169e-08)
(1.67731e-07 -1.64534e-07 7.44214e-08)
(1.71853e-07 -2.2068e-07 1.02626e-07)
(1.70956e-07 -2.64897e-07 1.27507e-07)
(1.5698e-07 -2.94485e-07 1.47118e-07)
(1.1795e-07 -3.21817e-07 1.59698e-07)
(8.13989e-09 -4.24664e-07 1.64237e-07)
(1.48579e-07 -3.0819e-08 9.02764e-09)
(1.61423e-07 -9.88395e-08 2.71662e-08)
(1.6817e-07 -1.63348e-07 4.49429e-08)
(1.71777e-07 -2.18947e-07 6.16112e-08)
(1.70453e-07 -2.62605e-07 7.61668e-08)
(1.56189e-07 -2.91987e-07 8.75456e-08)
(1.17076e-07 -3.19677e-07 9.49274e-08)
(7.31341e-09 -4.22605e-07 9.79176e-08)
(1.49504e-07 -3.06749e-08 3.04407e-09)
(1.62009e-07 -9.83197e-08 9.09892e-09)
(1.68436e-07 -1.62494e-07 1.49977e-08)
(1.71782e-07 -2.1783e-07 2.05025e-08)
(1.70261e-07 -2.61353e-07 2.52878e-08)
(1.55882e-07 -2.90819e-07 2.90213e-08)
(1.16745e-07 -3.18801e-07 3.14645e-08)
(6.98681e-09 -4.21842e-07 3.25073e-08)
(2.90161e-07 -4.90775e-07 6.53478e-07)
(2.04873e-07 -4.07607e-07 4.48575e-07)
(1.5619e-07 -3.75738e-07 3.55966e-07)
(1.40567e-07 -3.546e-07 2.87323e-07)
(1.39218e-07 -3.41405e-07 2.22195e-07)
(1.41325e-07 -3.33492e-07 1.57899e-07)
(1.43096e-07 -3.29071e-07 9.43307e-08)
(1.43909e-07 -3.27099e-07 3.13664e-08)
(8.8796e-08 -4.24251e-07 6.14653e-07)
(6.68277e-08 -3.34634e-07 4.61477e-07)
(4.71504e-08 -3.05959e-07 3.75741e-07)
(3.95801e-08 -2.88837e-07 2.98903e-07)
(3.85476e-08 -2.78571e-07 2.26729e-07)
(3.91901e-08 -2.72101e-07 1.59024e-07)
(3.97408e-08 -2.68173e-07 9.43695e-08)
(3.99664e-08 -2.66303e-07 3.12991e-08)
(-2.17169e-08 -4.29234e-07 6.17851e-07)
(-5.34241e-09 -3.39776e-07 4.643e-07)
(9.53705e-09 -3.11133e-07 3.78034e-07)
(1.32687e-08 -2.94019e-07 3.00751e-07)
(1.13799e-08 -2.83757e-07 2.28159e-07)
(8.64743e-09 -2.77295e-07 1.60042e-07)
(6.75999e-09 -2.73375e-07 9.49789e-08)
(5.88993e-09 -2.71511e-07 3.1502e-08)
(-2.20412e-07 -5.07609e-07 6.63439e-07)
(-1.41012e-07 -4.24499e-07 4.56905e-07)
(-9.71654e-08 -3.92664e-07 3.62757e-07)
(-8.5375e-08 -3.7159e-07 2.92814e-07)
(-8.69517e-08 -3.5848e-07 2.26442e-07)
(-9.11603e-08 -3.50663e-07 1.60915e-07)
(-9.42794e-08 -3.46319e-07 9.61308e-08)
(-9.57445e-08 -3.44391e-07 3.19644e-08)
)
;
    }
    symmetry
    {
        type            symmetry;
    }
    bottom
    {
        type            calculated;
        value           uniform (0 0 0);
    }
}


// ************************************************************************* //
