/*--------------------------------*- C++ -*----------------------------------*\
| =========                 |                                                 |
| \\      /  F ield         | OpenFOAM: The Open Source CFD Toolbox           |
|  \\    /   O peration     | Version:  v1912                                 |
|   \\  /    A nd           | Website:  www.openfoam.com                      |
|    \\/     M anipulation  |                                                 |
\*---------------------------------------------------------------------------*/
FoamFile
{
    version     2.0;
    format      ascii;
    class       volScalarField;
    location    "0.61/fluid";
    object      p;
}
// * * * * * * * * * * * * * * * * * * * * * * * * * * * * * * * * * * * * * //

dimensions      [0 2 -2 0 0 0 0];


internalField   nonuniform List<scalar> 
14592
(
0.0548516
0.0492472
0.0473639
0.0457842
0.0448768
0.0441643
0.0435971
0.043102
0.0426327
0.0422491
0.0418176
0.0416061
0.0411095
0.0413559
0.0405513
0.0425381
0.0506715
0.0489286
0.0472566
0.0459091
0.0449962
0.0442695
0.0436815
0.0431769
0.0427068
0.0423331
0.0419181
0.0417455
0.0412874
0.0416853
0.0408598
0.0438345
0.0486955
0.0480832
0.0468528
0.0458569
0.0450129
0.0443098
0.0437103
0.0431963
0.042722
0.042356
0.0419628
0.0418425
0.0414479
0.042025
0.0412627
0.0449696
0.0475116
0.047361
0.046499
0.0457427
0.0449846
0.0443121
0.0437051
0.0431772
0.0426898
0.0423202
0.041935
0.0418529
0.0415132
0.0422427
0.0415978
0.045702
0.0468078
0.0467808
0.0461466
0.0455469
0.0448681
0.04423
0.0436221
0.0430778
0.0425645
0.0421655
0.0417473
0.0416418
0.0412724
0.0420426
0.0414075
0.0457977
0.0463438
0.0463547
0.045863
0.0453569
0.0447345
0.0441197
0.0435089
0.042947
0.0424071
0.0419792
0.0415347
0.0414245
0.0410722
0.0419763
0.0415055
0.0464042
0.0460411
0.0460594
0.0456411
0.0451823
0.0445887
0.043979
0.0433515
0.0427537
0.0421588
0.0416512
0.0410951
0.040825
0.0402331
0.0408388
0.0398208
0.0447717
0.0458594
0.0458795
0.0454916
0.0450494
0.0444618
0.0438434
0.0431933
0.0425598
0.0419183
0.0413513
0.040733
0.0404024
0.0397889
0.0405577
0.0398028
0.0471163
0.054758
0.0491556
0.0473093
0.0457705
0.0449164
0.044263
0.043763
0.0433437
0.0429626
0.0426778
0.0423643
0.0422534
0.0418964
0.0420506
0.0413638
0.0420502
0.0505779
0.0488352
0.0472011
0.0458951
0.0450362
0.0443694
0.0438492
0.0434214
0.0430403
0.0427661
0.0424687
0.0423921
0.0420613
0.0423086
0.0415679
0.0426759
0.0485982
0.0479845
0.046791
0.0458362
0.0450468
0.0444043
0.0438731
0.0434362
0.0430508
0.0427843
0.0425066
0.0424794
0.0422009
0.0425922
0.0418677
0.0433756
0.047412
0.0472594
0.0464332
0.0457171
0.0450127
0.0444002
0.0438608
0.0434094
0.0430097
0.042739
0.0424671
0.042477
0.042245
0.0427714
0.0421286
0.0438803
0.0467052
0.046676
0.0460764
0.0455157
0.0448891
0.0443094
0.0437669
0.0432964
0.0428668
0.0425623
0.0422495
0.0422293
0.0419483
0.0425011
0.0418127
0.0437756
0.0462383
0.0462471
0.0457891
0.0453208
0.0447487
0.0441904
0.0436423
0.0431512
0.0426909
0.0423541
0.0420091
0.0419845
0.0417105
0.042411
0.0418512
0.044298
0.0459322
0.0459483
0.0455629
0.0451406
0.0445953
0.0440391
0.0434704
0.042938
0.0424146
0.0419877
0.0415131
0.041311
0.0407505
0.0411357
0.0398822
0.0423895
0.0457466
0.0457646
0.0454089
0.0450023
0.0444609
0.0438933
0.0432985
0.0427257
0.0421495
0.0416571
0.0411118
0.0408516
0.0402622
0.040874
0.0398472
0.0448108
0.054701
0.0491003
0.0472823
0.045777
0.0449687
0.044369
0.0439338
0.0435926
0.043311
0.0431507
0.0430141
0.0431179
0.0431297
0.0436374
0.043779
0.0445961
0.050521
0.0487786
0.0471735
0.0459016
0.0450894
0.044477
0.0440225
0.043674
0.043394
0.0432464
0.0431289
0.0432697
0.0433141
0.0439072
0.0440397
0.0451757
0.0485377
0.0479229
0.0467574
0.0458365
0.0450941
0.0445067
0.0440416
0.0436845
0.0434003
0.043261
0.0431633
0.0433561
0.0434569
0.0442023
0.0443951
0.0458863
0.0473488
0.0471948
0.0463955
0.0457124
0.0450544
0.0444964
0.0440225
0.0436502
0.0433509
0.0432073
0.0431148
0.0433479
0.0434976
0.0443888
0.0446811
0.0464077
0.0466387
0.046608
0.0460343
0.0455052
0.0449235
0.0443968
0.0439176
0.0435238
0.0431907
0.0430094
0.0428686
0.0430672
0.0431539
0.0440706
0.0442898
0.04622
0.0461687
0.0461759
0.045743
0.0453051
0.0447763
0.0442688
0.0437815
0.0433638
0.0429955
0.0427773
0.0425961
0.0427866
0.0428634
0.0439322
0.0442357
0.0466526
0.0458589
0.0458734
0.0455123
0.0451192
0.0446149
0.044107
0.0435949
0.0431304
0.0426901
0.04237
0.0420375
0.0420249
0.0417524
0.0424563
0.041875
0.0443119
0.0456694
0.045686
0.0453539
0.0449752
0.0444729
0.0439508
0.0434087
0.0428984
0.0423973
0.0420016
0.0415809
0.0414935
0.0411474
0.042066
0.0415705
0.046488
0.0546676
0.049068
0.0472711
0.0457917
0.0450188
0.0444603
0.0440737
0.0437875
0.0435703
0.0434767
0.0434206
0.0435793
0.0436778
0.0441401
0.0443495
0.0449229
0.0504877
0.0487454
0.047162
0.0459163
0.0451402
0.0445695
0.0441643
0.0438713
0.0436563
0.043576
0.0435391
0.0437322
0.0438589
0.0443846
0.0445704
0.045363
0.048501
0.0478853
0.0467406
0.0458457
0.0451396
0.0445945
0.0441789
0.0438776
0.0436578
0.0435849
0.0435648
0.0438049
0.043977
0.0446313
0.0448539
0.0459243
0.0473095
0.0471543
0.0463749
0.0457171
0.0450947
0.0445785
0.0441534
0.0438364
0.0436003
0.0435222
0.0435043
0.0437821
0.0439944
0.0447821
0.0450803
0.0463547
0.0465962
0.0465641
0.0460093
0.0455045
0.0449573
0.044471
0.0440391
0.0436985
0.0434257
0.0433066
0.0432343
0.0434724
0.0436075
0.0444104
0.0446013
0.0460628
0.0461231
0.0461289
0.0457143
0.0452995
0.0448038
0.0443353
0.0438932
0.0435264
0.0432151
0.0430563
0.0429385
0.0431668
0.0432809
0.0442369
0.0444812
0.0464241
0.0458098
0.045823
0.0454794
0.0451084
0.0446356
0.0441645
0.0436947
0.0432774
0.0428886
0.0426218
0.0423416
0.0423586
0.0420981
0.0426823
0.0419738
0.0439282
0.0456167
0.045632
0.0453169
0.0449594
0.0444871
0.0439997
0.0434971
0.0430306
0.0425764
0.0422296
0.0418543
0.0417957
0.0414501
0.0422655
0.0416071
0.0460439
0.0546509
0.0490522
0.0472715
0.0458127
0.0450686
0.0445447
0.0442005
0.0439642
0.0438085
0.0437845
0.04382
0.0440662
0.0443016
0.0448355
0.0452271
0.0457406
0.050471
0.0487289
0.0471622
0.0459376
0.0451909
0.0446553
0.0442931
0.0440508
0.0438985
0.0438891
0.0439456
0.0442275
0.044493
0.0450848
0.0454561
0.0461458
0.0484814
0.0478651
0.0467365
0.0458624
0.0451859
0.0446764
0.0443042
0.0440537
0.0438963
0.0438941
0.0439655
0.0442919
0.0445971
0.0453062
0.0457059
0.0466405
0.0472877
0.0471316
0.0463675
0.0457299
0.0451365
0.0446555
0.0442733
0.0440067
0.0438322
0.043824
0.0438959
0.0442588
0.0445994
0.0454371
0.0459012
0.0470281
0.0465714
0.0465384
0.0459981
0.0455126
0.0449934
0.0445412
0.0441507
0.0438589
0.043645
0.0435932
0.0436056
0.0439249
0.0441777
0.0450243
0.0453581
0.0466649
0.0460956
0.0461005
0.0456997
0.0453034
0.0448345
0.0443986
0.043996
0.0436759
0.0434205
0.043326
0.0432872
0.0435935
0.0438137
0.0448102
0.0451697
0.0469539
0.0457791
0.0457915
0.0454611
0.0451076
0.0446602
0.0442199
0.043787
0.043413
0.043075
0.0428664
0.0426549
0.04274
0.0425611
0.0431711
0.0425162
0.044293
0.045583
0.0455975
0.0452951
0.0449541
0.0445058
0.0440475
0.0435792
0.0431525
0.0427442
0.04245
0.0421339
0.0421358
0.0418519
0.0426866
0.0420305
0.0462768
0.0546431
0.0490451
0.0472758
0.0458314
0.0451075
0.0446075
0.0442918
0.0440871
0.0439677
0.043979
0.0440554
0.0443253
0.0445962
0.0451093
0.045517
0.0459748
0.0504633
0.0487212
0.0471664
0.0459566
0.0452304
0.0447191
0.0443857
0.0441754
0.0440598
0.0440862
0.0441838
0.0444886
0.0447883
0.0453528
0.0457358
0.046343
0.0484715
0.0478547
0.0467373
0.0458779
0.0452221
0.0447371
0.0443938
0.0441754
0.0440543
0.044087
0.0441974
0.0445432
0.0448757
0.0455459
0.0459446
0.0467756
0.0472759
0.0471192
0.0463657
0.0457422
0.0451692
0.0447124
0.0443588
0.0441238
0.0439848
0.0440108
0.0441197
0.0444999
0.0448622
0.0456545
0.0461047
0.0471201
0.0465573
0.0465235
0.0459933
0.0455212
0.0450216
0.0445929
0.04423
0.0439687
0.0437886
0.0437691
0.0438151
0.0441488
0.0444153
0.0452109
0.0455137
0.046705
0.0460792
0.0460834
0.0456922
0.0453087
0.0448585
0.0444451
0.0440689
0.0437779
0.0435544
0.0434905
0.0434821
0.0438011
0.0440282
0.0449714
0.0452829
0.0469498
0.0457604
0.045772
0.0454508
0.0451093
0.0446797
0.0442605
0.0438523
0.0435054
0.0431964
0.0430157
0.0428293
0.0429238
0.0427412
0.0432938
0.0425624
0.0442115
0.0455617
0.0455756
0.0452819
0.0449525
0.044521
0.0440826
0.0436373
0.0432358
0.0428538
0.0425849
0.0422901
0.0423001
0.0420056
0.0427846
0.0420331
0.0461457
0.0546408
0.0490431
0.0472814
0.0458469
0.0451368
0.0446535
0.0443582
0.0441768
0.0440854
0.044126
0.0442384
0.0445369
0.0448485
0.0453714
0.0458127
0.0462456
0.0504609
0.048719
0.047172
0.0459722
0.0452602
0.0447659
0.0444532
0.0442667
0.0441796
0.0442361
0.0443705
0.0447046
0.0450456
0.0456182
0.0460348
0.0466029
0.0484677
0.0478505
0.0467407
0.0458912
0.0452497
0.0447819
0.0444595
0.0442649
0.0441722
0.0442346
0.0443806
0.0447539
0.045124
0.0457962
0.0462217
0.0470027
0.0472708
0.0471136
0.0463673
0.0457534
0.0451944
0.0447546
0.0444216
0.0442103
0.0440991
0.0441544
0.0442977
0.0447044
0.045101
0.045892
0.0463619
0.0473232
0.0465505
0.0465163
0.0459928
0.0455298
0.0450437
0.0446315
0.0442885
0.04405
0.0438966
0.0439051
0.043983
0.0443413
0.0446371
0.0454278
0.0457397
0.0468748
0.0460709
0.0460746
0.0456898
0.045315
0.0448776
0.04448
0.0441228
0.0438537
0.0436553
0.0436179
0.0436389
0.0439807
0.0442317
0.0451676
0.0454761
0.0470858
0.0457503
0.0457614
0.0454463
0.0451131
0.0446956
0.0442913
0.0439008
0.0435742
0.0432882
0.0431316
0.0429708
0.0430848
0.042918
0.0434583
0.0427037
0.044287
0.0455499
0.0455634
0.0452755
0.0449538
0.0445338
0.0441093
0.0436804
0.0432977
0.0429365
0.0426895
0.0424164
0.0424432
0.0421575
0.0429214
0.0421302
0.0461723
0.0546399
0.049043
0.0472843
0.0458548
0.045151
0.0446754
0.044389
0.0442173
0.0441367
0.044187
0.04431
0.0446131
0.0449316
0.0454469
0.0458905
0.0463136
0.0504605
0.0487183
0.0471751
0.0459801
0.0452747
0.0447881
0.0444843
0.0443075
0.0442311
0.044297
0.0444417
0.0447794
0.0451264
0.0456892
0.0461074
0.0466606
0.0484662
0.047849
0.0467428
0.0458978
0.0452629
0.0448029
0.0444894
0.0443045
0.044222
0.0442934
0.0444485
0.0448237
0.0451969
0.0458555
0.0462791
0.0470411
0.0472688
0.0471113
0.0463684
0.0457589
0.0452064
0.0447743
0.0444501
0.0442481
0.044147
0.0442109
0.0443625
0.0447703
0.045168
0.0459433
0.0464074
0.047348
0.0465477
0.0465131
0.0459929
0.0455341
0.0450542
0.0446493
0.0443149
0.0440855
0.0439416
0.0439583
0.0440437
0.0444023
0.0446973
0.0454707
0.0457722
0.0468854
0.0460672
0.0460706
0.045689
0.0453181
0.0448867
0.0444961
0.0441471
0.0438867
0.0436973
0.0436677
0.0436953
0.0440369
0.0442852
0.0452025
0.0454948
0.0470812
0.0457457
0.0457566
0.0454444
0.045115
0.0447031
0.0443055
0.0439227
0.0436043
0.0433267
0.0431772
0.043022
0.0431356
0.042964
0.0434853
0.0427079
0.0442645
0.0455445
0.0455577
0.0452727
0.0449545
0.0445399
0.0441216
0.0437
0.0433249
0.0429714
0.0427309
0.0424624
0.0424883
0.0421959
0.0429392
0.0421178
0.046127
0.0642122
0.0534773
0.0498487
0.046879
0.0451672
0.0438202
0.042747
0.0417565
0.0407823
0.0397787
0.0386705
0.0374778
0.0360624
0.0345465
0.0326699
0.0307724
0.0599383
0.0527186
0.0494645
0.0467797
0.0451266
0.0438118
0.0427501
0.0417677
0.040802
0.0398077
0.0387094
0.0375299
0.036129
0.0346311
0.0327694
0.0308829
0.0579397
0.0516848
0.0488382
0.0464904
0.0449652
0.0437317
0.0427034
0.0417406
0.0407876
0.0398038
0.0387182
0.037554
0.0361756
0.0347035
0.0328732
0.031011
0.0566911
0.0508762
0.0483664
0.0462496
0.044838
0.0436691
0.0426659
0.0417138
0.0407645
0.0397823
0.0387005
0.0375429
0.036178
0.0347224
0.0329155
0.0310742
0.0559469
0.050263
0.0479592
0.0459953
0.0446796
0.0435699
0.0425943
0.0416541
0.0407076
0.039724
0.0386418
0.0374847
0.0361277
0.0346827
0.032899
0.0310814
0.0554596
0.0498256
0.0476554
0.045787
0.0445395
0.0434713
0.0425157
0.0415824
0.0406349
0.039647
0.0385618
0.0374027
0.0360528
0.0346177
0.0328618
0.0310726
0.0551526
0.0495336
0.0474347
0.0456187
0.0444119
0.043368
0.0424236
0.041491
0.0405375
0.0395401
0.0384464
0.037278
0.035929
0.0344964
0.0327693
0.0310107
0.0549806
0.0493664
0.0472988
0.0455046
0.0443143
0.043278
0.0423349
0.0413971
0.0404345
0.0394266
0.0383253
0.0371498
0.0358065
0.0343819
0.0326925
0.030971
0.0599382
0.0527164
0.0494588
0.0467694
0.0451109
0.0437891
0.0427224
0.0417342
0.0407552
0.0397444
0.0386249
0.0374235
0.0359906
0.034469
0.0325628
0.0306786
0.055733
0.0523098
0.0492414
0.0467768
0.0451358
0.04382
0.0427465
0.0417549
0.0407746
0.0397643
0.0386471
0.0374507
0.0360255
0.0345169
0.0326273
0.0307569
0.0537321
0.0513668
0.0486889
0.0465547
0.0450177
0.0437647
0.0427128
0.0417331
0.040759
0.0397539
0.0386453
0.0374603
0.0360543
0.0345667
0.0327029
0.0308538
0.0524975
0.0505767
0.0482471
0.0463456
0.0449154
0.0437199
0.0426871
0.0417133
0.0407388
0.0397331
0.038627
0.0374476
0.0360545
0.0345826
0.0327419
0.0309136
0.0517591
0.0499593
0.047846
0.0460999
0.0447648
0.0436268
0.04262
0.0416567
0.0406839
0.0396767
0.0385705
0.0373921
0.0360076
0.0345464
0.0327292
0.0309239
0.0512749
0.0495161
0.0475429
0.0458943
0.0446279
0.0435314
0.0425443
0.0415878
0.0406147
0.0396041
0.0384963
0.0373177
0.0359425
0.0344933
0.0327064
0.0309295
0.0509693
0.0492205
0.0473218
0.0457267
0.0445017
0.0434299
0.0424539
0.0414984
0.0405206
0.0395015
0.0383866
0.0372001
0.0358278
0.0343822
0.0326269
0.03088
0.050798
0.0490521
0.0471861
0.0456136
0.0444057
0.0433421
0.0423673
0.0414072
0.0404221
0.0393941
0.0382738
0.0370826
0.0357196
0.0342851
0.0325724
0.0308626
0.0579582
0.0517021
0.0488608
0.0465178
0.045
0.0437742
0.0427617
0.0418137
0.0408606
0.0398756
0.0387705
0.0375872
0.0361295
0.0345947
0.0325387
0.0305716
0.0537523
0.0513885
0.0487211
0.0465981
0.0450754
0.0438388
0.0428103
0.0418539
0.0408953
0.039909
0.038806
0.0376281
0.036179
0.0346576
0.0326175
0.0306663
0.051752
0.0505135
0.0482574
0.0464716
0.045028
0.0438301
0.0428065
0.0418519
0.0408929
0.0399085
0.0388128
0.0376459
0.0362161
0.0347144
0.0326933
0.030753
0.0505333
0.0497548
0.0478619
0.0463139
0.0449671
0.0438148
0.0427999
0.0418439
0.0408798
0.0398919
0.0387977
0.0376361
0.03622
0.0347348
0.032736
0.0308158
0.0498052
0.0491501
0.0474836
0.0460947
0.0448388
0.0437376
0.0427419
0.041791
0.040825
0.0398325
0.038736
0.0375734
0.0361649
0.0346891
0.032715
0.0308189
0.0493275
0.0487112
0.0471897
0.0459001
0.0447115
0.0436489
0.0426688
0.0417213
0.0407527
0.0397547
0.0386555
0.0374919
0.0360946
0.0346334
0.0326983
0.0308382
0.0490247
0.0484164
0.0469717
0.0457365
0.0445883
0.0435487
0.0425761
0.0416263
0.0406506
0.0396405
0.0385306
0.0373548
0.0359582
0.0344978
0.0326046
0.0307818
0.0488537
0.0482475
0.0468364
0.045624
0.0444924
0.0434595
0.0424852
0.0415286
0.0405441
0.0395226
0.0384057
0.0372233
0.0358388
0.0343925
0.0325602
0.0307879
0.0567294
0.050914
0.0484226
0.0463268
0.0449434
0.0438066
0.0428455
0.041937
0.0410163
0.0400666
0.038984
0.0378314
0.036342
0.0347968
0.0325106
0.0304299
0.0525382
0.0506191
0.0483147
0.0464417
0.0450481
0.0438946
0.0429111
0.0419892
0.0410606
0.040109
0.0390288
0.0378833
0.0364047
0.0348784
0.032607
0.0305435
0.0505533
0.0497746
0.0478968
0.0463669
0.0450432
0.0439176
0.0429288
0.0420012
0.0410679
0.0401162
0.0390432
0.0379092
0.0364506
0.0349419
0.0326766
0.0306031
0.0493508
0.0490363
0.0475268
0.0462375
0.0450058
0.0439193
0.0429329
0.041999
0.0410577
0.0401009
0.0390289
0.037901
0.0364572
0.0349663
0.0327199
0.0306625
0.0486339
0.0484439
0.0471635
0.0460346
0.0448908
0.0438508
0.0428789
0.0419462
0.0409994
0.040035
0.0389582
0.0378265
0.0363885
0.0349048
0.032683
0.0306509
0.0481631
0.0480113
0.0468766
0.0458469
0.0447686
0.0437642
0.0428052
0.0418733
0.0409212
0.0399489
0.0388681
0.0377348
0.0363106
0.0348458
0.0326767
0.0306933
0.0478634
0.0477191
0.0466612
0.0456853
0.0446462
0.0436621
0.0427081
0.041771
0.0408075
0.0398182
0.0387215
0.0375687
0.0361413
0.0346712
0.0325597
0.0306251
0.0476928
0.0475502
0.0465257
0.0455722
0.0445484
0.0435693
0.0426118
0.0416654
0.0406902
0.039686
0.03858
0.0374185
0.0360077
0.0345574
0.0325377
0.0306796
0.0560058
0.050323
0.0480573
0.0461396
0.0448864
0.0438495
0.0429619
0.0421201
0.0412616
0.0403836
0.0393635
0.0382946
0.0368134
0.0353159
0.0327338
0.0305094
0.0518208
0.0500233
0.0479557
0.0462644
0.0450012
0.0439473
0.0430359
0.0421799
0.0413142
0.0404361
0.0394207
0.0383634
0.0368982
0.0354301
0.0328626
0.0306494
0.0498452
0.0491896
0.0475588
0.0462151
0.0450192
0.0439886
0.0430668
0.0422012
0.0413292
0.0404508
0.0394442
0.0384012
0.0369579
0.0355065
0.0329221
0.0306629
0.0486537
0.0484633
0.0472035
0.0461018
0.0449954
0.0440001
0.0430766
0.0422014
0.0413194
0.0404352
0.0394301
0.0383953
0.0369696
0.0355405
0.0329698
0.0307218
0.0479456
0.04788
0.0468509
0.04591
0.0448893
0.0439368
0.0430236
0.0421454
0.041254
0.0403582
0.0393446
0.0383024
0.0368793
0.0354555
0.0329101
0.0306922
0.0474804
0.0474529
0.0465695
0.0457273
0.0447702
0.0438506
0.0429469
0.0420657
0.0411653
0.040258
0.0392377
0.0381924
0.0367862
0.0353892
0.0329181
0.0307754
0.047183
0.0471629
0.046356
0.0455668
0.0446469
0.0437446
0.0428422
0.0419508
0.0410327
0.0401001
0.0390541
0.0379759
0.0365558
0.0351395
0.032746
0.0306732
0.0470118
0.0469934
0.0462195
0.0454517
0.0445456
0.0436458
0.042737
0.0418321
0.040897
0.0399434
0.0388824
0.0377889
0.0363879
0.0349978
0.0327417
0.0307998
0.0555271
0.0498954
0.0477874
0.0459955
0.0448521
0.0439051
0.0430927
0.0423236
0.0415359
0.0407402
0.0397916
0.0388167
0.0373333
0.0358733
0.0328429
0.0303932
0.0513451
0.0495885
0.0476853
0.0461222
0.0449703
0.0440065
0.0431702
0.0423876
0.0415939
0.0408
0.0398587
0.0389012
0.0374396
0.036022
0.0329863
0.0304884
0.049374
0.048756
0.047294
0.0460809
0.0449962
0.0440546
0.0432058
0.0424124
0.0416122
0.0408191
0.0398887
0.0389493
0.0375098
0.0361037
0.0329935
0.0303501
0.0481889
0.0480351
0.0469443
0.0459732
0.0449767
0.0440686
0.0432157
0.0424109
0.0415995
0.0408003
0.0398722
0.0389438
0.0375238
0.0361437
0.0330279
0.0303677
0.0474859
0.0474566
0.0465963
0.0457853
0.0448727
0.0440052
0.0431595
0.042348
0.0415233
0.0407084
0.0397672
0.0388266
0.0374037
0.0360252
0.0329306
0.0303044
0.0470239
0.0470327
0.0463174
0.045604
0.044753
0.0439161
0.043077
0.0422589
0.0414216
0.0405916
0.039641
0.0386966
0.0372953
0.0359577
0.0329714
0.0304673
0.0467272
0.0467433
0.046104
0.0454422
0.0446264
0.0438043
0.0429627
0.0421289
0.0412668
0.0404018
0.0394132
0.0384186
0.0369874
0.035611
0.0327338
0.0303406
0.0465546
0.0465724
0.0459655
0.0453242
0.0445203
0.0436982
0.0428472
0.0419953
0.041111
0.0402183
0.0392093
0.0381947
0.0367912
0.0354636
0.0328089
0.0306763
0.0552105
0.0495956
0.0475904
0.0458897
0.04484
0.0439797
0.0432521
0.0425741
0.0418874
0.0412211
0.04042
0.0396607
0.0383652
0.0372345
0.0340371
0.0316656
0.0510298
0.0492833
0.0474863
0.0460158
0.044959
0.0440826
0.0433322
0.0426422
0.0419514
0.0412899
0.0404999
0.0397661
0.0385
0.037433
0.0342056
0.0317017
0.0490591
0.048448
0.0470935
0.0459741
0.0449852
0.0441311
0.043368
0.0426672
0.0419707
0.041312
0.0405364
0.0398286
0.0385907
0.0375485
0.0342039
0.0314702
0.0478767
0.0477287
0.0467449
0.0458669
0.0449654
0.0441435
0.0433747
0.0426615
0.0419531
0.0412888
0.0405173
0.0398271
0.0386161
0.0376188
0.0342592
0.0314862
0.0471755
0.0471518
0.0463979
0.045679
0.0448598
0.0440763
0.0433116
0.0425882
0.0418624
0.0411779
0.0403875
0.0396806
0.0384602
0.037467
0.0341246
0.0313959
0.0467145
0.0467287
0.0461191
0.0454965
0.0447372
0.0439819
0.0432203
0.0424866
0.0417435
0.0410392
0.0402346
0.0395224
0.0383261
0.0373942
0.0341959
0.03166
0.046417
0.0464385
0.045904
0.0453318
0.0446054
0.0438618
0.0430929
0.0423368
0.0415595
0.0408063
0.0399434
0.0391507
0.0378837
0.0368617
0.0337589
0.0313768
0.0462421
0.0462653
0.0457626
0.0452096
0.0444929
0.0437467
0.0429641
0.042184
0.0413765
0.0405852
0.0396895
0.0388625
0.0376158
0.0366565
0.0338483
0.0319631
0.0549944
0.0493866
0.0474526
0.0458198
0.0448466
0.0440622
0.0434132
0.0428204
0.0422276
0.0416745
0.0409951
0.0403902
0.039198
0.0381943
0.0345651
0.0316697
0.0508141
0.0490705
0.0473466
0.0459453
0.0449657
0.0441659
0.0434952
0.0428914
0.042296
0.0417498
0.0410835
0.0405086
0.039342
0.0383924
0.0345688
0.0310177
0.0488414
0.0482304
0.0469489
0.0458991
0.0449881
0.0442111
0.0435281
0.0429141
0.0423135
0.0417719
0.0411218
0.040578
0.0394349
0.0384983
0.0344186
0.0302025
0.0476589
0.0475102
0.0465983
0.0457891
0.0449648
0.0442191
0.0435295
0.0429022
0.042289
0.0417421
0.0410966
0.0405749
0.0394595
0.0385733
0.0344322
0.0300213
0.0469572
0.0469324
0.0462494
0.045598
0.0448546
0.0441454
0.0434573
0.0428168
0.0421819
0.0416102
0.0409389
0.0403948
0.0392583
0.0383741
0.034237
0.0298582
0.0464953
0.0465084
0.0459689
0.0454123
0.0447272
0.0440438
0.0433559
0.0427016
0.0420454
0.04145
0.0407603
0.0402122
0.0391044
0.0383127
0.0343772
0.0302717
0.0461958
0.0462162
0.0457509
0.0452432
0.044589
0.0439143
0.0432145
0.0425317
0.041832
0.0411748
0.0404068
0.0397502
0.0385277
0.0375959
0.0337422
0.0297968
0.0460177
0.0460399
0.0456058
0.045116
0.0444698
0.0437896
0.043072
0.04236
0.0416237
0.0409205
0.0401121
0.0394193
0.0382293
0.0374325
0.034032
0.0309377
0.0457861
0.0458074
0.0454131
0.0449584
0.0443514
0.0437047
0.0430152
0.0423249
0.0416045
0.0409126
0.0401096
0.0394171
0.0382161
0.0374008
0.0339463
0.0307752
0.0458246
0.0458461
0.0454109
0.0449199
0.0442721
0.0435857
0.0428549
0.0421158
0.041339
0.0405698
0.0396863
0.0388635
0.0376052
0.0366256
0.0337609
0.0318173
0.0459868
0.0460015
0.0454798
0.0449211
0.0442119
0.0434708
0.0426903
0.0418954
0.041054
0.0401922
0.0392006
0.0381924
0.0367769
0.0354269
0.0327171
0.0305312
0.0463262
0.0463045
0.0456278
0.0449564
0.0441648
0.0433667
0.0425438
0.0417084
0.0408264
0.0399111
0.0388728
0.037789
0.0363788
0.0349682
0.0326645
0.0306753
0.0469146
0.0467687
0.0458501
0.0450048
0.0441091
0.0432476
0.0423903
0.0415228
0.0406084
0.0396485
0.0385695
0.0374203
0.0360032
0.0345344
0.0324739
0.0305731
0.048012
0.0474038
0.0461062
0.0450116
0.0440192
0.043113
0.0422501
0.0413802
0.0404605
0.0394867
0.0383991
0.0372307
0.0358419
0.0343786
0.0325104
0.0306985
0.049914
0.0481696
0.0464244
0.0449761
0.043913
0.0429788
0.0421191
0.0412527
0.0403376
0.0393598
0.0382707
0.0370945
0.0357287
0.0342786
0.0325338
0.0307867
0.054097
0.0484941
0.0465508
0.0448818
0.0438357
0.0429282
0.0420959
0.0412503
0.0403601
0.0394009
0.0383296
0.0371679
0.0358209
0.0343798
0.0326578
0.030898
0.0456688
0.0456882
0.0453251
0.0449049
0.0443422
0.0437431
0.0431041
0.0424677
0.0418024
0.0411706
0.0404169
0.0397668
0.0385291
0.0375718
0.0336249
0.0295594
0.0457028
0.0457226
0.0453182
0.0448605
0.0442551
0.0436136
0.0429297
0.0422392
0.0415108
0.0407936
0.0399514
0.0391683
0.037885
0.0368344
0.0336377
0.031162
0.0458601
0.0458732
0.0453819
0.044856
0.0441874
0.043488
0.0427504
0.0419983
0.0411974
0.0403767
0.0394136
0.0384297
0.0369814
0.0355737
0.0326108
0.030138
0.0461949
0.0461716
0.045525
0.0448855
0.044134
0.0433755
0.0425921
0.0417953
0.0409486
0.040068
0.039053
0.0379889
0.0365562
0.035112
0.0326476
0.0305062
0.0467793
0.046632
0.0457432
0.0449291
0.0440719
0.0432485
0.0424278
0.0415949
0.0407111
0.0397797
0.0387186
0.037583
0.0361473
0.0346531
0.0324839
0.0304903
0.0478737
0.0472645
0.0459966
0.0449329
0.0439782
0.0431089
0.0422811
0.0414434
0.0405518
0.0396033
0.0385319
0.0373751
0.0359737
0.0344922
0.0325506
0.0306746
0.0497746
0.0480302
0.0463148
0.0448968
0.0438702
0.0429706
0.0421445
0.0413091
0.0404202
0.0394656
0.0383912
0.0372252
0.0358507
0.0343867
0.0325899
0.0307943
0.0539577
0.0483567
0.0464432
0.0448047
0.0437952
0.0429223
0.0421238
0.0413104
0.0404477
0.0395133
0.0384589
0.0373099
0.0359578
0.0345057
0.0327367
0.0309283
0.0455873
0.0456052
0.045265
0.0448716
0.0443459
0.043789
0.0431979
0.0426164
0.0420138
0.0414593
0.0407943
0.0402604
0.0391303
0.0382993
0.0342007
0.0298797
0.0456171
0.0456356
0.0452535
0.0448216
0.044251
0.0436491
0.0430088
0.042367
0.041692
0.0410388
0.0402648
0.0395687
0.0383489
0.0373752
0.0340215
0.0313253
0.0457701
0.045782
0.0453125
0.0448118
0.0441762
0.0435129
0.0428146
0.0421046
0.0413475
0.0405762
0.0396601
0.0387315
0.0373061
0.0359238
0.0328037
0.0301745
0.0461009
0.0460765
0.0454512
0.0448361
0.0441167
0.043392
0.0426443
0.0418846
0.041075
0.040234
0.039254
0.0382282
0.0368049
0.0353701
0.0327944
0.0305508
0.0466819
0.0465336
0.0456658
0.0448753
0.0440487
0.0432575
0.0424694
0.041669
0.0408164
0.0399166
0.038881
0.0377706
0.0363361
0.0348405
0.0325908
0.0305257
0.0477738
0.0471639
0.045917
0.0448765
0.0439515
0.0431131
0.0423162
0.0415082
0.0406444
0.0397229
0.0386722
0.037534
0.0361319
0.0346454
0.0326464
0.0307162
0.0496738
0.0479295
0.0462351
0.0448398
0.0438419
0.042971
0.042174
0.0413669
0.0405034
0.0395726
0.0385159
0.0373647
0.035989
0.034519
0.03268
0.0308414
0.053857
0.0482574
0.0463651
0.0447494
0.0437688
0.0429244
0.0421554
0.0413714
0.0405351
0.0396255
0.0385903
0.0374575
0.0361063
0.0346495
0.0328416
0.0309893
0.0455308
0.0455475
0.0452237
0.0448505
0.0443531
0.0438287
0.0432736
0.0427313
0.042169
0.0416554
0.0410227
0.0405067
0.0393457
0.0384128
0.0340186
0.0292836
0.045557
0.0455744
0.0452082
0.0447956
0.0442518
0.0436804
0.0430733
0.0424669
0.0418275
0.0412099
0.0404623
0.0397828
0.0385354
0.0374908
0.0339154
0.0309391
0.0457064
0.0457173
0.0452635
0.0447814
0.044171
0.043536
0.0428679
0.0421894
0.0414625
0.0407206
0.0398242
0.0389072
0.0374547
0.0360196
0.0327313
0.0299226
0.0460339
0.0460086
0.0453986
0.0448016
0.0441067
0.0434084
0.0426887
0.0419573
0.0411742
0.0403586
0.0393951
0.0383795
0.0369365
0.0354666
0.0327771
0.030421
0.0466121
0.046463
0.0456103
0.0448373
0.0440341
0.0432681
0.0425057
0.0417306
0.0409014
0.0400233
0.0390015
0.0378995
0.0364504
0.0349306
0.032603
0.0304641
0.0477021
0.0470916
0.0458596
0.0448365
0.0439341
0.0431202
0.0423477
0.0415633
0.040721
0.0398192
0.0387813
0.0376514
0.0362395
0.0347358
0.032682
0.0306983
0.0496013
0.047857
0.0461778
0.0447994
0.0438233
0.042975
0.0422014
0.041417
0.0405738
0.0396614
0.0386169
0.0374737
0.0360917
0.0346092
0.0327302
0.0308503
0.0537847
0.0481861
0.046309
0.0447105
0.043752
0.0429301
0.0421848
0.0414248
0.0406098
0.0397198
0.0386985
0.0375757
0.0362209
0.0347538
0.032909
0.0310152
0.0454938
0.0455097
0.045198
0.0448405
0.0443658
0.0438681
0.0433442
0.0428375
0.0423145
0.0418449
0.0412568
0.0407846
0.0396455
0.0386975
0.034145
0.0291184
0.0455169
0.0455335
0.0451791
0.0447812
0.0442588
0.0437123
0.0431337
0.042559
0.0419535
0.0413731
0.0406606
0.0400149
0.0387764
0.0377163
0.0340064
0.030838
0.0456632
0.0456735
0.0452312
0.0447633
0.0441727
0.0435607
0.0429182
0.0422674
0.0415691
0.0408574
0.0399871
0.039094
0.0376409
0.0361889
0.0327915
0.0298517
0.045988
0.0459621
0.0453632
0.0447801
0.0441042
0.0434272
0.0427308
0.0420239
0.0412655
0.0404749
0.0395318
0.038534
0.0370881
0.0356045
0.0328372
0.0303948
0.046564
0.0464144
0.0455725
0.0448127
0.0440276
0.0432817
0.0425406
0.0417872
0.0409792
0.0401219
0.0391162
0.0380275
0.0365751
0.0350443
0.0326616
0.0304641
0.0476524
0.0470415
0.0458203
0.0448102
0.0439251
0.0431306
0.0423782
0.0416136
0.0407906
0.0399071
0.0388831
0.0377641
0.0363496
0.034837
0.0327429
0.0307154
0.049551
0.0478068
0.0461383
0.0447726
0.0438132
0.0429827
0.0422281
0.0414628
0.0406373
0.0397416
0.0387096
0.037576
0.0361924
0.0347028
0.0327936
0.0308793
0.0537345
0.0481366
0.0462705
0.0446849
0.0437434
0.0429391
0.0422131
0.0414731
0.0406764
0.0398041
0.0387963
0.0376842
0.0363293
0.0348561
0.0329831
0.0310545
0.04547
0.0454852
0.0451819
0.0448354
0.0443764
0.0438974
0.0433946
0.0429105
0.0424106
0.0419628
0.0413905
0.0409227
0.0397615
0.0387527
0.0340487
0.0288021
0.0454908
0.0455068
0.0451605
0.0447729
0.0442654
0.0437363
0.043177
0.042623
0.0420378
0.0414766
0.040777
0.0401355
0.0388763
0.0377695
0.0339407
0.0306283
0.0456348
0.0456446
0.0452102
0.0447521
0.0441754
0.0435796
0.0429548
0.0423224
0.0416418
0.0409466
0.0400865
0.0391969
0.0377261
0.0362392
0.0327512
0.0297113
0.0459576
0.0459312
0.0453399
0.0447665
0.044104
0.043442
0.0427619
0.0420717
0.041329
0.0405528
0.0396187
0.0386245
0.0371652
0.0356571
0.0328259
0.0303167
0.046532
0.0463819
0.0455475
0.0447969
0.0440247
0.0432931
0.0425669
0.0418285
0.0410346
0.04019
0.0391923
0.0381075
0.0366457
0.035098
0.0326705
0.030427
0.0476191
0.047008
0.0457942
0.0447931
0.0439203
0.0431398
0.0424016
0.0416511
0.0408411
0.0399695
0.0389533
0.0378385
0.0364178
0.0348929
0.0327663
0.0307042
0.0495173
0.0477731
0.0461121
0.0447553
0.0438077
0.04299
0.042249
0.0414974
0.0406843
0.0398
0.0387756
0.0376467
0.036259
0.0347606
0.0328269
0.0308852
0.0537009
0.0481036
0.046245
0.0446685
0.0437389
0.0429473
0.0422354
0.0415099
0.0407262
0.039866
0.0388669
0.0377607
0.0364033
0.0349224
0.0330263
0.0310702
0.0454564
0.0454712
0.0451734
0.0448343
0.044386
0.0439199
0.0434321
0.0429649
0.0424831
0.042054
0.0414988
0.0410432
0.0398802
0.0388464
0.0340575
0.0286642
0.0454755
0.0454912
0.0451501
0.0447694
0.0442721
0.043755
0.0432094
0.0426705
0.0421011
0.041556
0.04087
0.0402381
0.0389746
0.0378474
0.0339496
0.0305432
0.045618
0.0456275
0.0451983
0.0447466
0.0441793
0.0435946
0.0429822
0.0423632
0.0416962
0.0410145
0.0401652
0.039283
0.0378071
0.0363042
0.0327626
0.0296566
0.0459394
0.0459128
0.0453264
0.0447594
0.0441058
0.0434539
0.0427852
0.0421069
0.0413761
0.0406115
0.0396861
0.0386979
0.0372343
0.0357143
0.0328446
0.0302907
0.0465126
0.0463624
0.0455327
0.0447882
0.0440245
0.0433025
0.0425866
0.0418589
0.0410754
0.0402408
0.0392505
0.0381707
0.0367058
0.0351496
0.0326948
0.0304203
0.047599
0.0469877
0.0457786
0.0447834
0.0439188
0.0431476
0.0424192
0.0416785
0.0408781
0.0400155
0.0390058
0.0378957
0.0364728
0.0349416
0.0327946
0.030709
0.0494969
0.0477526
0.0460964
0.0447454
0.0438056
0.0429965
0.0422647
0.0415226
0.0407185
0.0398425
0.0388243
0.0376998
0.0363109
0.0348076
0.0328585
0.0308981
0.0536805
0.0480835
0.0462298
0.0446592
0.0437375
0.0429544
0.0422519
0.0415364
0.0407621
0.0399107
0.0389183
0.0378171
0.0364592
0.0349741
0.0330633
0.0310883
0.0454501
0.0454647
0.0451695
0.0448338