/*--------------------------------*- C++ -*----------------------------------*\
| =========                 |                                                 |
| \\      /  F ield         | OpenFOAM: The Open Source CFD Toolbox           |
|  \\    /   O peration     | Version:  v1912                                 |
|   \\  /    A nd           | Website:  www.openfoam.com                      |
|    \\/     M anipulation  |                                                 |
\*---------------------------------------------------------------------------*/
FoamFile
{
    version     2.0;
    format      ascii;
    class       surfaceScalarField;
    location    "0.61/fluid";
    object      phi;
}
// * * * * * * * * * * * * * * * * * * * * * * * * * * * * * * * * * * * * * //

dimensions      [0 3 -1 0 0 0 0];
oriented        oriented;


internalField   nonuniform List<scalar> 
41600
(
5.01961e-05
1.25021e-05
3.58598e-07
-5.56821e-07
4.03712e-05
1.01743e-05
5.65441e-07
-9.14851e-07
3.33285e-05
7.41108e-06
4.10581e-07
-7.78966e-07
2.91657e-05
4.47773e-06
1.29809e-08
-3.27856e-07
2.67923e-05
2.6038e-06
-5.64295e-07
3.33826e-07
2.54211e-05
1.51536e-06
-1.27703e-06
1.13288e-06
2.4507e-05
9.79434e-07
-2.13643e-06
2.07114e-06
2.37491e-05
7.46e-07
-3.18073e-06
3.19263e-06
2.29826e-05
6.70379e-07
-4.47605e-06
4.57219e-06
2.21043e-05
6.56062e-07
-6.11329e-06
6.33551e-06
2.10385e-05
6.51744e-07
-8.24359e-06
8.65759e-06
1.96487e-05
5.67001e-07
-1.10066e-05
1.18295e-05
1.77277e-05
3.97742e-07
-1.47955e-05
1.63188e-05
1.46884e-05
-2.04336e-07
-1.93074e-05
2.25509e-05
9.26155e-06
-7.26237e-07
-2.45888e-05
3.07419e-05
-3.24002e-06
-2.01496e-05
3.26511e-05
6.49308e-05
1.03475e-05
4.78859e-07
-7.55009e-07
6.39514e-05
1.16738e-05
7.75314e-07
-1.29539e-06
6.19077e-05
1.00525e-05
5.80027e-07
-1.17786e-06
5.97001e-05
7.24356e-06
-1.53284e-08
-5.42907e-07
5.7793e-05
4.95874e-06
-9.45701e-07
4.97849e-07
5.62166e-05
3.40488e-06
-2.15156e-06
1.83847e-06
5.48274e-05
2.54728e-06
-3.64005e-06
3.46139e-06
5.34489e-05
2.17024e-06
-5.46927e-06
5.42356e-06
5.19214e-05
2.10213e-06
-7.74757e-06
7.84336e-06
5.00762e-05
2.21002e-06
-1.06333e-05
1.09245e-05
4.77354e-05
2.40894e-06
-1.43743e-05
1.49579e-05
4.45409e-05
2.58626e-06
-1.92384e-05
2.04137e-05
4.00182e-05
2.70546e-06
-2.57761e-05
2.79911e-05
3.27496e-05
2.36331e-06
-3.36186e-05
3.83196e-05
2.12794e-05
1.72626e-06
-4.18514e-05
5.0869e-05
-1.42716e-06
-3.353e-05
5.29965e-05
6.63493e-05
6.7935e-06
5.13672e-07
-8.08978e-07
6.87429e-05
9.84815e-06
8.34822e-07
-1.40275e-06
6.98105e-05
9.64932e-06
6.31625e-07
-1.29605e-06
6.9782e-05
7.90434e-06
-2.28033e-09
-6.29952e-07
6.91586e-05
6.10146e-06
-1.00284e-06
4.83483e-07
6.82153e-05
4.7228e-06
-2.31421e-06
1.9396e-06
6.70662e-05
3.92247e-06
-3.9455e-06
3.71938e-06
6.56978e-05
3.61659e-06
-5.9602e-06
5.88229e-06
6.40254e-05
3.69473e-06
-8.47523e-06
8.55501e-06
6.18903e-05
4.05138e-06
-1.16668e-05
1.19605e-05
5.90704e-05
4.61442e-06
-1.58035e-05
1.64179e-05
5.51137e-05
5.28494e-06
-2.1199e-05
2.2457e-05
4.93953e-05
6.01954e-06
-2.84338e-05
3.08382e-05
4.0206e-05
6.3901e-06
-3.72018e-05
4.23643e-05
2.58407e-05
6.05288e-06
-4.63894e-05
5.64282e-05
2.16246e-06
-3.75674e-05
5.98184e-05
6.51945e-05
4.39628e-06
5.30562e-07
-8.27816e-07
6.80994e-05
7.52171e-06
8.7059e-07
-1.44907e-06
7.02632e-05
8.16465e-06
6.75329e-07
-1.35447e-06
7.1388e-05
7.42716e-06
4.61746e-08
-6.93797e-07
7.1693e-05
6.33059e-06
-9.48317e-07
4.14191e-07
7.14042e-05
5.39973e-06
-2.25246e-06
1.8643e-06
7.06842e-05
4.88051e-06
-3.87554e-06
3.63747e-06
6.95858e-05
4.80319e-06
-5.88148e-06
5.7933e-06
6.80732e-05
5.13588e-06
-8.38606e-06
8.45752e-06
6.60073e-05
5.82942e-06
-1.15688e-05
1.18567e-05
6.31545e-05
6.85308e-06
-1.56979e-05
1.6312e-05
5.90175e-05
8.15017e-06
-2.11087e-05
2.23805e-05
5.28856e-05
9.69756e-06
-2.83837e-05
3.08375e-05
4.29241e-05
1.10323e-05
-3.73032e-05
4.26225e-05
2.72349e-05
1.1323e-05
-4.67492e-05
5.71683e-05
6.17019e-06
-3.81863e-05
6.14134e-05
6.42699e-05
2.92129e-06
5.49783e-07
-8.44742e-07
6.68243e-05
5.5451e-06
9.1597e-07
-1.49372e-06
6.91392e-05
6.52829e-06
7.43193e-07
-1.42173e-06
7.0743e-05
6.46941e-06
1.37412e-07
-7.83469e-07
7.16089e-05
5.99705e-06
-8.26481e-07
2.94165e-07
7.18394e-05
5.55655e-06
-2.0887e-06
1.70139e-06
7.15556e-05
5.4035e-06
-3.65438e-06
3.41518e-06
7.08168e-05
5.63419e-06
-5.58316e-06
5.49096e-06
6.96091e-05
6.27978e-06
-7.98335e-06
8.04708e-06
6.78102e-05
7.3538e-06
-1.10301e-05
1.13047e-05
6.51882e-05
8.8814e-06
-1.49778e-05
1.55714e-05
6.12135e-05
1.08839e-05
-2.0174e-05
2.1415e-05
5.50934e-05
1.34047e-05
-2.71785e-05
2.95915e-05
4.48176e-05
1.60228e-05
-3.58969e-05
4.11821e-05
2.81871e-05
1.75393e-05
-4.52274e-05
5.56416e-05
1.09981e-05
-3.72751e-05
6.06342e-05
6.37628e-05
1.95083e-06
5.71775e-07
-8.64151e-07
6.5937e-05
3.94573e-06
9.70157e-07
-1.54491e-06
6.8168e-05
4.97237e-06
8.29934e-07
-1.50502e-06
6.9968e-05
5.31139e-06
2.58453e-07
-9.00453e-07
7.11732e-05
5.32039e-06
-6.63283e-07
1.34688e-07
7.17887e-05
5.32623e-06
-1.86917e-06
1.48401e-06
7.18827e-05
5.54936e-06
-3.35736e-06
3.11752e-06
7.15008e-05
6.11306e-06
-5.18014e-06
5.08313e-06
7.06355e-05
7.09194e-06
-7.4347e-06
7.48787e-06
6.91731e-05
8.56147e-06
-1.02875e-05
1.05422e-05
6.68835e-05
1.06108e-05
-1.39717e-05
1.45318e-05
6.32055e-05
1.33786e-05
-1.88423e-05
2.00256e-05
5.72701e-05
1.702e-05
-2.54179e-05
2.77381e-05
4.68543e-05
2.12937e-05
-3.3765e-05
3.89099e-05
2.93955e-05
2.47934e-05
-4.2789e-05
5.29937e-05
1.72545e-05
-3.57652e-05
5.89043e-05
6.35379e-05
1.20353e-06
5.97962e-07
-8.88512e-07
6.54879e-05
2.568e-06
1.03403e-06
-1.60635e-06
6.76472e-05
3.48548e-06
9.34014e-07
-1.60645e-06
6.95565e-05
4.04148e-06
4.05323e-07
-1.04469e-06
7.09941e-05
4.40968e-06
-4.65067e-07
-6.18367e-08
7.1912e-05
4.79383e-06
-1.60287e-06
1.21735e-06
7.2347e-05
5.35818e-06
-2.99623e-06
2.75244e-06
7.23412e-05
6.22587e-06
-4.68547e-06
4.57845e-06
7.19052e-05
7.49471e-06
-6.7498e-06
6.78303e-06
7.09588e-05
9.29194e-06
-9.33554e-06
9.55149e-06
6.93187e-05
1.17639e-05
-1.26345e-05
1.31216e-05
6.64556e-05
1.52034e-05
-1.69802e-05
1.80185e-05
6.15057e-05
1.99289e-05
-2.27861e-05
2.48271e-05
5.18582e-05
2.6342e-05
-3.02839e-05
3.48831e-05
3.42091e-05
3.32951e-05
-3.82692e-05
4.74166e-05
2.98634e-05
-3.25386e-05
5.41387e-05
6.34613e-05
6.26985e-07
-9.16771e-07
5.31965e-07
6.53356e-05
1.10424e-06
-1.67564e-06
1.26515e-06
6.74981e-05
1.04876e-06
-1.72041e-06
1.99466e-06
6.95097e-05
5.6766e-07
-1.20675e-06
2.66892e-06
7.11285e-05
-2.46521e-07
-2.81217e-07
3.31859e-06
7.22856e-05
-1.31101e-06
9.22621e-07
4.02514e-06
7.30068e-05
-2.6028e-06
2.35269e-06
4.88708e-06
7.33389e-05
-4.14865e-06
4.02944e-06
6.013e-06
7.33111e-05
-6.00851e-06
6.01969e-06
7.51136e-06
7.28754e-05
-8.30564e-06
8.48037e-06
9.55288e-06
7.1896e-05
-1.11882e-05
1.15998e-05
1.23318e-05
6.98928e-05
-1.49608e-05
1.58499e-05
1.63174e-05
6.60836e-05
-1.99275e-05
2.16868e-05
2.19789e-05
5.763e-05
-2.65024e-05
3.05486e-05
3.07493e-05
4.10104e-05
-3.3455e-05
4.15617e-05
4.1808e-05
-2.98946e-05
5.02121e-05
5.05563e-05
5.01321e-05
1.25077e-05
2.18777e-07
4.01872e-05
1.01913e-05
3.19114e-07
3.30138e-05
7.43082e-06
1.5309e-07
2.87291e-05
4.49582e-06
-1.98138e-07
2.62394e-05
2.62261e-06
-6.97143e-07
2.4743e-05
1.53904e-06
-1.31972e-06
2.36769e-05
1.01233e-06
-2.08266e-06
2.27228e-05
7.91252e-07
-3.01787e-06
2.16956e-05
7.31981e-07
-4.18084e-06
2.04746e-05
7.38635e-07
-5.63092e-06
1.89532e-05
7.65126e-07
-7.48725e-06
1.69989e-05
7.25667e-07
-9.77804e-06
1.4352e-05
6.29269e-07
-1.27779e-05
1.07057e-05
1.59217e-07
-1.58203e-05
5.08532e-06
-3.14845e-07
-1.86536e-05
-2.33247e-06
-1.27318e-05
6.48408e-05
1.03609e-05
2.8484e-07
6.36882e-05
1.17071e-05
4.12042e-07
6.14325e-05
1.00983e-05
1.68194e-07
5.90016e-05
7.29497e-06
-3.83535e-07
5.68661e-05
5.01779e-06
-1.20544e-06
5.50429e-05
3.47856e-06
-2.2678e-06
5.33622e-05
2.64528e-06
-3.59236e-06
5.16155e-05
2.30202e-06
-5.23328e-06
4.9604e-05
2.27924e-06
-7.28336e-06
4.71198e-05
2.44454e-06
-9.85502e-06
4.39295e-05
2.7201e-06
-1.31389e-05
3.96664e-05
2.99026e-06
-1.72399e-05
3.38001e-05
3.23103e-06
-2.25116e-05
2.53847e-05
3.01227e-06
-2.80562e-05
1.34304e-05
2.37347e-06
-3.25854e-05
-7.73983e-07
-2.1658e-05
6.62578e-05
6.81117e-06
3.05611e-07
6.84699e-05
9.89194e-06
4.37974e-07
6.93102e-05
9.71562e-06
1.74012e-07
6.90355e-05
7.9875e-06
-4.20072e-07
6.81551e-05
6.20351e-06
-1.30822e-06
6.69323e-05
4.85264e-06
-2.46542e-06
6.5455e-05
4.09438e-06
-3.91733e-06
6.36745e-05
3.84718e-06
-5.72487e-06
6.14623e-05
4.00518e-06
-7.98898e-06
5.86129e-05
4.46486e-06
-1.08377e-05
5.48414e-05
5.16429e-06
-1.44761e-05
4.96781e-05
5.99688e-06
-1.90423e-05
4.24381e-05
6.93458e-06
-2.48973e-05
3.19183e-05
7.46699e-06
-3.11367e-05
1.69716e-05
7.12464e-06
-3.61939e-05
2.70835e-06
-2.40781e-05
6.51048e-05
4.41684e-06
3.20083e-07
6.78294e-05
7.57323e-06
4.64664e-07
6.9768e-05
8.24718e-06
2.05194e-07
7.06493e-05
7.53758e-06
-3.85163e-07
7.06999e-05
6.4719e-06
-1.26733e-06
7.01344e-05
5.58275e-06
-2.41705e-06
6.90899e-05
5.12372e-06
-3.8604e-06
6.75841e-05
5.13048e-06
-5.65898e-06
6.55368e-05
5.57913e-06
-7.9127e-06
6.27599e-05
6.42578e-06
-1.07529e-05
5.89535e-05
7.65557e-06
-1.43828e-05
5.35959e-05
9.20389e-06
-1.89581e-05
4.59063e-05
1.10745e-05
-2.48339e-05
3.45546e-05
1.26729e-05
-3.11575e-05
1.82085e-05
1.30403e-05
-3.63188e-05
6.89992e-06
-2.41694e-05
6.41823e-05
2.94479e-06
3.3956e-07
6.65596e-05
5.60412e-06
5.07796e-07
6.86554e-05
6.62522e-06
2.69345e-07
7.00253e-05
6.60346e-06
-2.9839e-07
7.06494e-05
6.17256e-06
-1.15128e-06
7.06188e-05
5.7864e-06
-2.26177e-06
7.00301e-05
5.71007e-06
-3.65198e-06
6.89086e-05
6.04839e-06
-5.3796e-06
6.71976e-05
6.84451e-06
-7.53771e-06
6.47257e-05
8.12209e-06
-1.02544e-05
6.11937e-05
9.93075e-06
-1.37209e-05
5.60395e-05
1.22894e-05
-1.81053e-05
4.83856e-05
1.52911e-05
-2.37411e-05
3.66992e-05
1.83412e-05
-2.98787e-05
1.92998e-05
2.0132e-05
-3.49197e-05
1.21612e-05
-2.32365e-05
6.3677e-05
1.97751e-06
3.62025e-07
6.56783e-05
4.01199e-06
5.61055e-07
6.76979e-05
5.08185e-06
3.53707e-07
6.92759e-05
5.46495e-06
-1.81115e-07
7.02554e-05
5.52388e-06
-9.94058e-07
7.06301e-05
5.59457e-06
-2.05207e-06
7.0445e-05
5.90852e-06
-3.37064e-06
6.97135e-05
6.60059e-06
-5.00083e-06
6.83873e-05
7.76156e-06
-7.02564e-06
6.63051e-05
9.48354e-06
-9.56667e-06
6.31701e-05
1.18907e-05
-1.27966e-05
5.838e-05
1.51318e-05
-1.68946e-05
5.09688e-05
1.94427e-05
-2.21584e-05
3.91476e-05
2.43803e-05
-2.79829e-05
2.0793e-05
2.84883e-05
-3.27907e-05
1.90913e-05
-2.19023e-05
6.34543e-05
1.23306e-06
3.88107e-07
6.52367e-05
2.64023e-06
6.23384e-07
6.71938e-05
3.60443e-06
4.54339e-07
6.88949e-05
4.20899e-06
-3.98468e-08
7.01255e-05
4.63277e-06
-8.04522e-07
7.08277e-05
5.08887e-06
-1.79941e-06
7.10172e-05
5.7535e-06
-3.03068e-06
7.07076e-05
6.76381e-06
-4.53907e-06
6.98745e-05
8.23692e-06
-6.39206e-06
6.83958e-05
1.03232e-05
-8.69646e-06
6.60311e-05
1.32128e-05
-1.15919e-05
6.22066e-05
1.72281e-05
-1.52521e-05
5.59634e-05
2.27985e-05
-1.98987e-05
4.5022e-05
3.01452e-05
-2.51075e-05
2.63782e-05
3.81522e-05
-2.92892e-05
3.25698e-05
-1.96389e-05
6.33802e-05
4.16279e-07
5.63572e-07
6.50927e-05
6.90899e-07
1.34109e-06
6.70629e-05
5.64138e-07
2.11879e-06
6.88809e-05
1.14928e-07
2.84376e-06
7.03124e-05
-5.97095e-07
3.55187e-06
7.12803e-05
-1.52388e-06
4.33379e-06
7.17918e-05
-2.66133e-06
5.30055e-06
7.1869e-05
-4.03844e-06
6.57641e-06
7.15121e-05
-5.70593e-06
8.29118e-06
7.06381e-05
-7.75323e-06
1.06448e-05
6.90653e-05
-1.02844e-05
1.38818e-05
6.62686e-05
-1.34627e-05
1.85267e-05
6.13881e-05
-1.74287e-05
2.51802e-05
5.1816e-05
-2.19622e-05
3.51771e-05
3.42286e-05
-2.55248e-05
4.78093e-05
-1.7763e-05
5.46668e-05
5.00823e-05
1.2513e-05
1.23393e-07
4.00408e-05
1.02066e-05
1.54092e-07
3.27549e-05
7.44934e-06
-1.0357e-08
2.83567e-05
4.51336e-06
-3.13335e-07
2.57517e-05
2.64086e-06
-7.33016e-07
2.4128e-05
1.56149e-06
-1.25751e-06
2.2907e-05
1.04267e-06
-1.90426e-06
2.17538e-05
8.3207e-07
-2.69678e-06
2.04624e-05
7.8641e-07
-3.67589e-06
1.88931e-05
8.09853e-07
-4.8714e-06
1.69091e-05
8.59339e-07
-6.36265e-06
1.43905e-05
8.50927e-07
-8.11031e-06
1.10979e-05
7.94973e-07
-1.02803e-05
7.09835e-06
3.91803e-07
-1.22125e-05
2.1345e-06
-1.22754e-07
-1.35669e-05
-1.95947e-06
-8.6378e-06
6.47701e-05
1.03743e-05
1.5343e-07
6.34775e-05
1.1739e-05
1.72249e-07
6.10403e-05
1.01427e-05
-8.79446e-08
5.84059e-05
7.34566e-06
-5.81427e-07
5.60515e-05
5.0761e-06
-1.28628e-06
5.39849e-05
3.55038e-06
-2.19014e-06
5.20156e-05
2.73924e-06
-3.31962e-06
4.99071e-05
2.42679e-06
-4.71942e-06
4.74253e-05
2.44544e-06
-6.46067e-06
4.43288e-05
2.66286e-06
-8.61148e-06
4.03413e-05
3.0067e-06
-1.12988e-05
3.51164e-05
3.35653e-06
-1.45206e-05
2.81729e-05
3.69298e-06
-1.8466e-05
1.91591e-05
3.55561e-06
-2.22063e-05
8.05158e-06
2.85966e-06
-2.44603e-05
-4.07341e-07
-1.51586e-05
6.61862e-05
6.82932e-06
1.64393e-07
6.82517e-05
9.93511e-06
1.76385e-07
6.88977e-05
9.78085e-06
-1.10154e-07
6.83997e-05
8.06954e-06
-6.45927e-07
6.72746e-05
6.30385e-06
-1.41088e-06
6.57781e-05
4.97896e-06
-2.39748e-06
6.39774e-05
4.25959e-06
-3.63698e-06
6.17937e-05
4.06664e-06
-5.18105e-06
5.90595e-05
4.29857e-06
-7.10794e-06
5.553e-05
4.85313e-06
-9.49846e-06
5.08722e-05
5.67702e-06
-1.24886e-05
4.4631e-05
6.65406e-06
-1.60987e-05
3.61706e-05
7.76671e-06
-2.05107e-05
2.49247e-05
8.4274e-06
-2.47626e-05
1.08199e-05
8.0608e-06
-2.72902e-05
3.17805e-06
-1.68437e-05
6.5035e-05
4.4381e-06
1.76276e-07
6.76146e-05
7.62458e-06
1.95586e-07
6.93612e-05
8.3285e-06
-8.9009e-08
7.00217e-05
7.64592e-06
-6.2208e-07
6.98302e-05
6.60975e-06
-1.38167e-06
6.89937e-05
5.75975e-06
-2.36134e-06
6.7629e-05
5.35678e-06
-3.59291e-06
6.57239e-05
5.44171e-06
-5.12892e-06
6.31583e-05
5.99821e-06
-7.04675e-06
5.97024e-05
6.98638e-06
-9.4302e-06
5.5004e-05
8.40553e-06
-1.24129e-05
4.85485e-05
1.01803e-05
-1.60289e-05
3.95942e-05
1.2338e-05
-2.04509e-05
2.7452e-05
1.41631e-05
-2.4751e-05
1.18941e-05
1.46102e-05
-2.73103e-05
7.70123e-06
-1.67984e-05
6.41145e-05
2.96874e-06
1.94449e-07
6.635e-05
5.66258e-06
2.34224e-07
6.82596e-05
6.72001e-06
-3.17644e-08
6.94177e-05
6.73377e-06
-5.44279e-07
6.98113e-05
6.34232e-06
-1.27744e-06
6.95242e-05
6.0073e-06
-2.22224e-06
6.86333e-05
6.00282e-06
-3.4071e-06
6.71349e-05
6.44171e-06
-4.88127e-06
6.49334e-05
7.37845e-06
-6.71641e-06
6.18146e-05
8.8451e-06
-8.99434e-06
5.74244e-05
1.09137e-05
-1.18389e-05
5.11984e-05
1.35967e-05
-1.52957e-05
4.22831e-05
1.70326e-05
-1.95204e-05
2.97677e-05
2.04681e-05
-2.36682e-05
1.30502e-05
2.25419e-05
-2.61339e-05
1.35353e-05
-1.60205e-05
6.36111e-05
2.00409e-06
2.15621e-07
6.54747e-05
4.07673e-06
2.83249e-07
6.73153e-05
5.18775e-06
4.53668e-08
6.86925e-05
5.61283e-06
-4.37354e-07
6.94563e-05
5.71916e-06
-1.13468e-06
6.95935e-05
5.85099e-06
-2.03299e-06
6.91303e-05
6.25038e-06
-3.15497e-06
6.80526e-05
7.06293e-06
-4.54433e-06
6.62749e-05
8.39476e-06
-6.26433e-06
6.35933e-05
1.03524e-05
-8.3924e-06
5.96553e-05
1.30929e-05
-1.10379e-05
5.38465e-05
1.67695e-05
-1.42587e-05
4.52103e-05
2.16945e-05
-1.81841e-05
3.25433e-05
2.72422e-05
-2.20899e-05
1.47306e-05
3.19703e-05
-2.44065e-05
2.13332e-05
-1.49697e-05
6.33905e-05
1.2618e-06
2.39883e-07
6.50404e-05
2.70975e-06
3.40484e-07
6.6827e-05
3.71823e-06
1.37208e-07
6.83401e-05
4.36896e-06
-3.09011e-07
6.93726e-05
4.84544e-06
-9.63319e-07
6.98607e-05
5.3695e-06
-1.80604e-06
6.98034e-05
6.12891e-06
-2.85193e-06
6.91899e-05
7.27376e-06
-4.13635e-06
6.79632e-05
8.93968e-06
-5.7103e-06
6.59629e-05
1.12977e-05
-7.64145e-06
6.28989e-05
1.45803e-05
-1.00153e-05
5.81781e-05
1.91325e-05
-1.28942e-05
5.08416e-05
2.54911e-05
-1.63589e-05
3.91073e-05
3.37136e-05
-1.98446e-05
2.0811e-05
4.28052e-05
-2.18279e-05
3.59469e-05
-1.34417e-05
6.33187e-05
2.65692e-07
5.93654e-07
6.49043e-05
4.01971e-07
1.41308e-06
6.67135e-05
2.36825e-07
2.23636e-06
6.83571e-05
-1.69104e-07
3.0094e-06
6.96092e-05
-7.76596e-07
3.77284e-06
7.03881e-05
-1.55935e-06
4.62613e-06
7.06866e-05
-2.52333e-06
5.69232e-06
7.05062e-05
-3.69446e-06
7.11022e-06
6.98202e-05
-5.11045e-06
9.03025e-06
6.85127e-05
-6.8272e-06
1.16791e-05
6.63624e-05
-8.90451e-06
1.53507e-05
6.28206e-05
-1.14056e-05
2.06171e-05
5.70301e-05
-1.436e-05
2.82131e-05
4.67768e-05
-1.73815e-05
3.93863e-05
2.94407e-05
-1.90528e-05
5.36693e-05
-1.21679e-05
5.97925e-05
5.00441e-05
1.2518e-05
6.13383e-08
3.99262e-05
1.02201e-05
5.18499e-08
3.2548e-05
7.46598e-06
-9.811e-08
2.8054e-05
4.52959e-06
-3.48929e-07
2.53511e-05
2.65817e-06
-6.88309e-07
2.36224e-05
1.58291e-06
-1.11169e-06
2.22813e-05
1.07172e-06
-1.63489e-06
2.09873e-05
8.71723e-07
-2.27447e-06
1.95296e-05
8.40648e-07
-3.05882e-06
1.77732e-05
8.83919e-07
-3.99895e-06
1.55908e-05
9.63008e-07
-5.14326e-06
1.29056e-05
1.00067e-06
-6.42581e-06
9.54308e-06
1.0162e-06
-7.934e-06
5.708e-06
7.39738e-07
-9.11718e-06
1.44384e-06
3.34561e-07
-9.63735e-06
-1.33966e-06
-5.8543e-06
6.47152e-05
1.03868e-05
6.94505e-08
6.33113e-05
1.17678e-05
2.84769e-08
6.07247e-05
1.01831e-05
-2.18454e-07
5.79183e-05
7.39231e-06
-6.37734e-07
5.53767e-05
5.13007e-06
-1.21656e-06
5.31049e-05
3.61663e-06
-1.95214e-06
5.0902e-05
2.82546e-06
-2.87042e-06
4.85193e-05
2.54111e-06
-4.0061e-06
4.57114e-05
2.59835e-06
-5.41046e-06
4.22378e-05
2.86611e-06
-7.12007e-06
3.78344e-05
3.27922e-06
-9.21167e-06
3.22259e-05
3.71928e-06
-1.16307e-05
2.50493e-05
4.18034e-06
-1.44536e-05
1.62616e-05
4.19958e-06
-1.68784e-05
6.30924e-06
3.61815e-06
-1.77915e-05
3.2222e-07
-1.05112e-05
6.61307e-05
6.84641e-06
7.40805e-08
6.80795e-05
9.97485e-06
2.04414e-08
6.85657e-05
9.84066e-06
-2.53925e-07
6.7879e-05
8.14494e-06
-7.11816e-07
6.65445e-05
6.39591e-06
-1.34222e-06
6.48163e-05
5.0941e-06
-2.14672e-06
6.27516e-05
4.40899e-06
-3.15582e-06
6.02584e-05
4.26381e-06
-4.41053e-06
5.71556e-05
4.56116e-06
-5.96804e-06
5.31976e-05
5.20042e-06
-7.87469e-06
4.80634e-05
6.13724e-06
-1.02124e-05
4.13733e-05
7.25145e-06
-1.29407e-05
3.26242e-05
8.54109e-06
-1.61223e-05
2.16005e-05
9.37423e-06
-1.89136e-05
8.76719e-06
9.1104e-06
-1.99492e-05
3.93975e-06
-1.1694e-05
6.49811e-05
4.4582e-06
8.33849e-08
6.74457e-05
7.67214e-06
3.36983e-08
6.90345e-05
8.40323e-06
-2.40375e-07
6.95087e-05
7.74512e-06
-6.9645e-07
6.911e-05
6.73534e-06
-1.32242e-06
6.80441e-05
5.91972e-06
-2.12104e-06
6.64182e-05
5.56548e-06
-3.12348e-06
6.42069e-05
5.71785e-06
-4.37166e-06
6.12767e-05
6.36683e-06
-5.92218e-06
5.73956e-05
7.4753e-06
-7.82399e-06
5.22225e-05
9.05419e-06
-1.01569e-05
4.53162e-05
1.10195e-05
-1.28906e-05
3.60658e-05
1.34188e-05
-1.60782e-05
2.41351e-05
1.54519e-05
-1.8898e-05
9.84812e-06
1.6018e-05
-1.99309e-05
8.59701e-06
-1.16076e-05
6.40623e-05
2.99121e-06
9.91122e-08
6.61859e-05
5.71652e-06
6.62407e-08
6.79429e-05
6.80677e-06
-1.9232e-07
6.89223e-05
6.85237e-06
-6.30882e-07
6.91188e-05
6.49583e-06
-1.23442e-06
6.86147e-05
6.20537e-06
-2.0038e-06
6.74777e-05
6.26276e-06
-2.96745e-06
6.5692e-05
6.78709e-06
-4.16475e-06
6.31486e-05
7.84156e-06
-5.64779e-06
5.9631e-05
9.46304e-06
-7.46449e-06
5.47945e-05
1.17391e-05
-9.68726e-06
4.81425e-05
1.46718e-05
-1.22961e-05
3.89433e-05
1.84288e-05
-1.53311e-05
2.66247e-05
2.21364e-05
-1.80341e-05
1.11167e-05
2.43914e-05
-1.89994e-05
1.46886e-05
-1.09954e-05
6.35605e-05
2.02868e-06
1.17611e-07
6.53159e-05
4.13598e-06
1.08429e-07
6.70103e-05
5.28401e-06
-1.26265e-07
6.82183e-05
5.74648e-06
-5.39462e-07
6.87976e-05
5.89449e-06
-1.11269e-06
6.87339e-05
6.0793e-06
-1.84316e-06
6.80447e-05
6.55162e-06
-2.75462e-06
6.67044e-05
7.46515e-06
-3.88207e-06
6.46156e-05
8.93708e-06
-5.27106e-06
6.15712e-05
1.10817e-05
-6.96675e-06
5.7227e-05
1.40765e-05
-9.03099e-06
5.10293e-05
1.80659e-05
-1.1455e-05
4.21323e-05
2.34032e-05
-1.42616e-05
2.96496e-05
2.93146e-05
-1.67854e-05
1.29549e-05
3.43402e-05
-1.76606e-05
2.28682e-05
-1.01944e-05
6.33419e-05
1.28798e-06
1.38666e-07
6.4888e-05
2.77274e-06
1.57661e-07
6.65359e-05
3.82088e-06
-4.76053e-08
6.78908e-05
4.51252e-06
-4.29873e-07
6.87537e-05
5.03519e-06
-9.66938e-07
6.90601e-05
5.61791e-06
-1.65113e-06
6.88019e-05
6.45774e-06
-2.49982e-06
6.79581e-05
7.71421e-06
-3.54162e-06
6.6462e-05
9.53578e-06
-4.81291e-06
6.41508e-05
1.21043e-05
-6.3528e-06
6.07428e-05
1.56762e-05
-8.20697e-06
5.56962e-05
2.05933e-05
-1.0375e-05
4.81497e-05
2.74417e-05
-1.28508e-05
3.65951e-05
3.61195e-05
-1.50949e-05
1.92735e-05
4.56416e-05
-1.58076e-05
3.78586e-05
-9.15858e-06
6.32722e-05
1.60863e-07
6.20645e-07
6.47589e-05
2.10301e-07
1.47765e-06
6.64376e-05
3.74458e-08
2.34156e-06
6.79347e-05
-3.10744e-07
3.1571e-06
6.90329e-05
-8.08515e-07
3.96889e-06
6.96506e-05
-1.44276e-06
4.88359e-06
6.97751e-05
-2.2238e-06
6.03374e-06
6.93993e-05
-3.17301e-06
7.56854e-06
6.84893e-05
-4.31677e-06
9.65212e-06
6.69281e-05
-5.68672e-06
1.2525e-05
6.4504e-05
-7.31109e-06
1.65068e-05
6.07115e-05
-9.19559e-06
2.21758e-05
5.47796e-05
-1.13053e-05
3.03188e-05
4.47199e-05
-1.32418e-05
4.20395e-05
2.82333e-05
-1.38241e-05
5.68995e-05
-8.30336e-06
6.22274e-05
5.00143e-05
1.25221e-05
2.49356e-08
3.98368e-05
1.02311e-05
-1.75093e-09
3.23842e-05
7.47967e-06
-1.25161e-07
2.78106e-05
4.54311e-06
-3.18441e-07
2.50245e-05
2.67253e-06
-5.74748e-07
2.32055e-05
1.60045e-06
-8.93154e-07
2.17616e-05
1.09513e-06
-1.2861e-06
2.0348e-05
9.03197e-07
-1.76414e-06
1.87514e-05
8.82962e-07
-2.34519e-06
1.68418e-05
9.40493e-07
-3.02978e-06
1.45029e-05
1.04019e-06
-3.84458e-06
1.16944e-05
1.10883e-06
-4.72613e-06
8.30671e-06
1.17083e-06
-5.71714e-06
4.64418e-06
9.72063e-07
-6.42671e-06
9.57739e-07
6.23467e-07
-6.57437e-06
-9.97694e-07
-3.89887e-06
6.46723e-05
1.03974e-05
2.19069e-08
6.31808e-05
1.17921e-05
-4.10265e-08
6.0474e-05
1.02172e-05
-2.49155e-07
5.75257e-05
7.43205e-06
-5.78383e-07
5.48267e-05
5.17607e-06
-1.02113e-06
5.2381e-05
3.67283e-06
-1.57878e-06
4.99804e-05
2.89807e-06
-2.27277e-06
4.73685e-05
2.63674e-06
-3.12771e-06
4.42932e-05
2.72541e-06
-4.17764e-06
4.05189e-05
3.03376e-06
-5.439e-06
3.57993e-05
3.50198e-06
-6.95386e-06
2.99225e-05
4.01235e-06
-8.65744e-06
2.2641e-05
4.56838e-06
-1.05697e-05
1.41359e-05
4.69994e-06
-1.21012e-05
5.16808e-06
4.19263e-06
-1.23928e-05
8.12945e-07
-7.15377e-06
6.60872e-05
6.86124e-06
2.29851e-08
6.79444e-05
1.0009e-05
-5.36364e-08
6.8302e-05
9.89186e-06
-2.86118e-07
6.74597e-05
8.20961e-06
-6.47166e-07
6.59496e-05
6.47479e-06
-1.13078e-06
6.40251e-05
5.19237e-06
-1.74183e-06
6.17372e-05
4.53583e-06
-2.50567e-06
5.89851e-05
4.43034e-06
-3.45202e-06
5.55801e-05
4.78181e-06
-4.61941e-06
5.12798e-05
5.49066e-06
-6.0313e-06
4.57824e-05
6.51939e-06
-7.73249e-06
3.87768e-05
7.74371e-06
-9.66649e-06
2.98886e-05
9.17324e-06
-1.18389e-05
1.916e-05
1.01382e-05
-1.36233e-05
7.41838e-06
9.94912e-06
-1.3964e-05
4.5214e-06
-7.98408e-06
6.4939e-05
4.47578e-06
2.98025e-08
6.73134e-05
7.71326e-06
-4.49706e-08
6.87754e-05
8.46753e-06
-2.78012e-07
6.90961e-05
7.83036e-06
-6.37936e-07
6.85237e-05
6.843e-06
-1.11819e-06
6.72634e-05
6.05634e-06
-1.72471e-06
6.54163e-05
5.74292e-06
-2.48348e-06
6.29485e-05
5.95152e-06
-3.42505e-06
5.97184e-05
6.67726e-06
-4.58758e-06
5.54969e-05
7.88488e-06
-5.99664e-06
4.99605e-05
9.5942e-06
-7.69533e-06
4.27351e-05
1.17132e-05
-9.63459e-06
3.33379e-05
1.43043e-05
-1.18122e-05
2.16941e-05
1.64998e-05
-1.36158e-05
8.50163e-06
1.71574e-05
-1.39467e-05
9.32922e-06
-7.91377e-06
6.40218e-05
3.01086e-06
4.22478e-08
6.60578e-05
5.7632e-06
-1.96838e-08
6.76923e-05
6.88144e-06
-2.40757e-07
6.85246e-05
6.95415e-06
-5.86962e-07
6.85556e-05
6.62724e-06
-1.04969e-06
6.78674e-05
6.37437e-06
-1.63358e-06
6.65218e-05
6.48367e-06
-2.36259e-06
6.44946e-05
7.07936e-06
-3.26542e-06
6.16694e-05
8.23165e-06
-4.37701e-06
5.78315e-05
9.98081e-06
-5.72249e-06
5.26521e-05
1.24263e-05
-7.33994e-06
4.56972e-05
1.55604e-05
-9.18835e-06
3.63558e-05
1.95716e-05
-1.1257e-05
2.43084e-05
2.34925e-05
-1.29794e-05
9.8482e-06
2.58876e-05
-1.32693e-05
1.56582e-05
-7.47613e-06
6.35214e-05
2.05006e-06
5.69953e-08
6.51924e-05
4.18707e-06
1.36326e-08
6.67696e-05
5.36663e-06
-1.88751e-07
6.78385e-05
5.86088e-06
-5.15081e-07
6.8263e-05
6.04422e-06
-9.54179e-07
6.80285e-05
6.27373e-06
-1.508e-06
6.71472e-05
6.80732e-06
-2.19696e-06
6.55858e-05
7.80524e-06
-3.04659e-06
6.32399e-05
9.39361e-06
-4.08709e-06
5.99036e-05
1.16924e-05
-5.34202e-06
5.52469e-05
1.48944e-05
-6.84236e-06
4.87727e-05
1.91358e-05
-8.55623e-06
3.97467e-05
2.47983e-05
-1.04624e-05
2.75196e-05
3.09953e-05
-1.2061e-05
1.18004e-05
3.6249e-05
-1.23028e-05
2.41726e-05
-6.9085e-06
6.33045e-05
1.31055e-06
7.37193e-08
6.47699e-05
2.82676e-06
5.25293e-08
6.63071e-05
3.90866e-06
-1.26795e-07
6.7532e-05
4.63504e-06
-4.28971e-07
6.82524e-05
5.19685e-06
-8.40014e-07
6.84042e-05
5.82911e-06
-1.35823e-06
6.79744e-05
6.73659e-06
-1.99931e-06
6.69357e-05
8.08651e-06
-2.78423e-06
6.52156e-05
1.00376e-05
-3.73681e-06
6.26524e-05
1.27799e-05
-4.87713e-06
5.89777e-05
1.6588e-05
-6.22589e-06
5.36984e-05
2.17995e-05
-7.75942e-06
4.60519e-05
2.90348e-05
-9.44084e-06
3.47389e-05
3.80726e-05
-1.08593e-05
1.82817e-05
4.79281e-05
-1.10295e-05
3.95211e-05
-6.22535e-06
6.32364e-05
9.12547e-08
6.43712e-07
6.46468e-05
9.40071e-08
1.53272e-06
6.62217e-05
-5.99262e-08
2.43116e-06
6.75987e-05
-3.35516e-07
3.28275e-06
6.85677e-05
-7.16107e-07
4.1355e-06
6.90478e-05
-1.19592e-06
5.10209e-06
6.9023e-05
-1.78537e-06
6.32297e-06
6.84811e-05
-2.50029e-06
7.95572e-06
6.73839e-05
-3.35755e-06
1.01756e-05
6.56165e-05
-4.37272e-06
1.32334e-05
6.29801e-05
-5.5555e-06
1.74688e-05
5.90106e-05
-6.88904e-06
2.34624e-05
5.3024e-05
-8.32158e-06
3.20377e-05
4.32048e-05
-9.54167e-06
4.41917e-05
2.74758e-05
-9.66935e-06
5.95023e-05
-5.66396e-06
6.43574e-05
4.99929e-05
1.25253e-05
6.74508e-09
3.97719e-05
1.02397e-05
-2.04886e-08
3.22643e-05
7.49036e-06
-1.07938e-07
2.76316e-05
4.55388e-06
-2.39596e-07
2.47842e-05
2.68412e-06
-4.1145e-07
2.29005e-05
1.61475e-06
-6.24198e-07
2.13862e-05
1.1144e-06
-8.86268e-07
1.98964e-05
9.2945e-07
-1.2038e-06
1.82194e-05
9.18888e-07
-1.58706e-06
1.62328e-05
9.89605e-07
-2.0328e-06
1.38337e-05
1.10867e-06
-2.55408e-06
1.10043e-05
1.20624e-06
-3.10298e-06
7.67317e-06
1.31135e-06
-3.69737e-06
4.1592e-06
1.17773e-06
-4.09048e-06
7.87735e-07
8.84103e-07
-4.08701e-06
-7.26279e-07
-2.38486e-06
6.46411e-05
1.04057e-05
3.17816e-10
6.30856e-05
1.18111e-05
-5.68118e-08
6.02895e-05
1.02439e-05
-2.06637e-07
5.72351e-05
7.46339e-06
-4.33529e-07
5.44187e-05
5.21245e-06
-7.33068e-07
5.18452e-05
3.7173e-06
-1.10776e-06
4.9304e-05
2.95549e-06
-1.57267e-06
4.65367e-05
2.71241e-06
-2.14343e-06
4.32923e-05
2.82617e-06
-2.84045e-06
3.93449e-05
3.16731e-06
-3.66938e-06
3.44698e-05
3.68048e-06
-4.65056e-06
2.85e-05
4.24909e-06
-5.7305e-06
2.12623e-05
4.88456e-06
-6.90521e-06
1.30216e-05
5.10975e-06
-7.79246e-06
4.65549e-06
4.67286e-06
-7.81551e-06
1.21032e-06
-4.43489e-06
6.60557e-05
6.87302e-06
-3.11505e-11
6.78457e-05
1.00358e-05
-6.83238e-08
6.81076e-05
9.93215e-06
-2.36279e-07
6.7149e-05
8.26055e-06
-4.85732e-07
6.55075e-05
6.53687e-06
-8.13619e-07
6.34382e-05
5.26949e-06
-1.22478e-06
6.09902e-05
4.63496e-06
-1.73715e-06
5.80606e-05
4.55998e-06
-2.36993e-06
5.44609e-05
4.95302e-06
-3.14655e-06
4.99588e-05
5.71528e-06
-4.07718e-06
4.42756e-05
6.81456e-06
-5.18344e-06
3.71505e-05
8.12398e-06
-6.41624e-06
2.82943e-05
9.66215e-06
-7.76034e-06
1.78545e-05
1.07322e-05
-8.80593e-06
6.79623e-06
1.061e-05
-8.84296e-06
4.98594e-06
-4.96347e-06
6.49086e-05
4.48979e-06
4.39883e-09
6.72169e-05
7.74578e-06
-6.31498e-08
6.85847e-05
8.51819e-06
-2.31878e-07
6.87906e-05
7.89741e-06
-4.80698e-07
6.80882e-05
6.92744e-06
-8.06354e-07
6.66844e-05
6.163e-06
-1.21446e-06
6.46787e-05
5.88064e-06
-1.72345e-06
6.2035e-05
6.13175e-06
-2.35315e-06
5.86122e-05
6.91508e-06
-3.1268e-06
5.41904e-05
8.19643e-06
-4.05603e-06
4.84692e-05
1.00018e-05
-5.16135e-06
4.1124e-05
1.2233e-05
-6.39844e-06
3.17576e-05
1.4963e-05
-7.74658e-06
2.0401e-05
1.72772e-05
-8.80425e-06
7.89344e-06
1.80027e-05
-8.83181e-06
9.88093e-06
-4.91533e-06
6.39926e-05
3.02648e-06
1.29994e-08
6.59645e-05
5.80009e-06
-4.58938e-08
6.75082e-05
6.9402e-06
-2.06499e-07
6.82305e-05
7.03401e-06
-4.45898e-07
6.81379e-05
6.72994e-06
-7.59546e-07
6.73138e-05
6.50572e-06
-1.15224e-06
6.58188e-05
6.65418e-06
-1.64109e-06
6.36267e-05
7.30315e-06
-2.24474e-06
6.06216e-05
8.52756e-06
-2.98435e-06
5.65976e-05
1.03694e-05
-3.87146e-06
5.12474e-05
1.29355e-05
-4.92349e-06
4.41839e-05
1.62098e-05
-6.1016e-06
3.48767e-05
2.03934e-05
-7.38018e-06
2.31058e-05
2.44555e-05
-8.38686e-06
9.2976e-06
2.69336e-05
-8.39189e-06
1.6337e-05
-4.63457e-06
6.34933e-05
2.06698e-06
2.32378e-08
6.51026e-05
4.22732e-06
-2.2901e-08
6.65932e-05
5.43149e-06
-1.70664e-07
6.75582e-05
5.95037e-06
-3.96408e-07
6.7867e-05
6.16084e-06
-6.93882e-07
6.75065e-05
6.42425e-06
-1.06611e-06
6.64879e-05
7.00373e-06
-1.52786e-06
6.47762e-05
8.06398e-06
-2.09569e-06
6.22675e-05
9.73692e-06
-2.78774e-06
5.87643e-05
1.21452e-05
-3.61469e-06
5.39566e-05
1.54905e-05
-4.5897e-06
4.73901e-05
1.99002e-05
-5.68018e-06
3.84048e-05
2.57711e-05
-6.85482e-06
2.64416e-05
3.21414e-05
-7.78374e-06
1.1326e-05
3.75117e-05
-7.76532e-06
2.50254e-05
-4.27092e-06
6.32776e-05
1.3283e-06
3.48297e-08
6.46843e-05
2.86915e-06
3.95981e-09
6.61396e-05
3.97735e-06
-1.27955e-07
6.72675e-05
4.7306e-06
-3.37144e-07
6.78815e-05
5.32237e-06
-6.15479e-07
6.7919e-05
5.99205e-06
-9.63569e-07
6.73665e-05
6.94995e-06
-1.39306e-06
6.61955e-05
8.36837e-06
-1.91761e-06
6.43344e-05
1.04126e-05
-2.55136e-06
6.16292e-05
1.32764e-05
-3.30316e-06
5.78299e-05
1.72443e-05
-4.18028e-06
5.24807e-05
2.26463e-05
-5.1563e-06
4.48846e-05
3.01187e-05
-6.19227e-06
3.38203e-05
3.93608e-05
-7.01437e-06
1.79014e-05
4.93708e-05
-6.96976e-06
4.05585e-05
-3.85707e-06
6.32109e-05
4.69462e-08
6.6173e-07
6.45657e-05
3.25661e-08
1.57574e-06
6.6064e-05
-8.18953e-08
2.50105e-06
6.73515e-05
-2.72874e-07
3.38046e-06
6.82237e-05
-5.30446e-07
4.26449e-06
6.86022e-05
-8.52497e-07
5.27018e-06
6.84704e-05
-1.2472e-06
6.54357e-06
6.78157e-05
-1.72489e-06
8.2477e-06
6.66015e-05
-2.29537e-06
1.05646e-05
6.472e-05
-2.96502e-06
1.37501e-05
6.19898e-05
-3.73477e-06
1.81538e-05
5.79787e-05
-4.58362e-06
2.43519e-05
5.20594e-05
-5.46586e-06
3.31823e-05
4.24792e-05
-6.17005e-06
4.55694e-05
2.7223e-05
-6.11998e-06
6.10776e-05
-3.51636e-06
6.56339e-05
4.99786e-05
1.25275e-05
6.5926e-10