/*--------------------------------*- C++ -*----------------------------------*\
| =========                 |                                                 |
| \\      /  F ield         | OpenFOAM: The Open Source CFD Toolbox           |
|  \\    /   O peration     | Version:  v1912                                 |
|   \\  /    A nd           | Website:  www.openfoam.com                      |
|    \\/     M anipulation  |                                                 |
\*---------------------------------------------------------------------------*/
FoamFile
{
    version     2.0;
    format      ascii;
    class       volScalarField;
    location    "0.61/fluid";
    object      T;
}
// * * * * * * * * * * * * * * * * * * * * * * * * * * * * * * * * * * * * * //

dimensions      [0 0 0 1 0 0 0];


internalField   nonuniform List<scalar> 
14592
(
273.253
273.77
274.312
274.886
275.501
276.165
276.888
277.679
278.551
279.515
280.587
281.783
283.127
284.652
286.421
288.591
273.251
273.765
274.303
274.873
275.484
276.144
276.863
277.649
278.516
279.474
280.54
281.731
283.07
284.592
286.354
288.482
273.249
273.757
274.289
274.854
275.458
276.11
276.821
277.598
278.454
279.402
280.456
281.636
282.966
284.483
286.246
288.384
273.246
273.747
274.272
274.829
275.424
276.066
276.765
277.53
278.371
279.302
280.338
281.5
282.815
284.322
286.091
288.262
273.242
273.736
274.252
274.799
275.384
276.014
276.698
277.445
278.267
279.176
280.187
281.322
282.611
284.099
285.868
288.083
273.238
273.723
274.23
274.766
275.337
275.953
276.62
277.348
278.146
279.026
280.004
281.101
282.348
283.798
285.547
287.799
273.233
273.708
274.205
274.729
275.287
275.886
276.534
277.239
278.008
278.855
279.791
280.837
282.023
283.401
285.079
287.309
273.228
273.693
274.179
274.69
275.234
275.816
276.443
277.122
277.86
278.667
279.554
280.536
281.638
282.902
284.416
286.418
273.258
273.787
274.342
274.931
275.563
276.247
276.995
277.818
278.729
279.742
280.874
282.146
283.586
285.232
287.149
289.46
273.257
273.782
274.333
274.918
275.546
276.226
276.97
277.787
278.692
279.699
280.825
282.093
283.529
285.172
287.086
289.373
273.254
273.774
274.319
274.897
275.518
276.191
276.926
277.734
278.628
279.624
280.738
281.994
283.422
285.062
286.981
289.287
273.251
273.764
274.301
274.871
275.483
276.145
276.868
277.663
278.541
279.519
280.615
281.853
283.265
284.899
286.829
289.178
273.247
273.752
274.28
274.841
275.441
276.09
276.798
277.575
278.433
279.387
280.457
281.667
283.053
284.67
286.608
289.015
273.243
273.738
274.257
274.806
275.393
276.027
276.717
277.472
278.305
279.229
280.264
281.433
282.777
284.356
286.28
288.745
273.238
273.723
274.231
274.768
275.341
275.958
276.627
277.358
278.161
279.049
280.038
281.153
282.431
283.935
285.789
288.252
273.233
273.708
274.204
274.727
275.285
275.884
276.531
277.235
278.004
278.85
279.786
280.832
282.018
283.396
285.074
287.306
273.264
273.803
274.37
274.972
275.62
276.324
277.095
277.946
278.89
279.944
281.126
282.458
283.964
285.679
287.643
289.913
273.262
273.798
274.36
274.959
275.603
276.302
277.068
277.914
278.852
279.901
281.077
282.403
283.906
285.619
287.583
289.839
273.26
273.789
274.346
274.938
275.574
276.266
277.023
277.859
278.786
279.823
280.987
282.302
283.797
285.508
287.481
289.761
273.256
273.779
274.328
274.911
275.538
276.219
276.963
277.785
278.696
279.714
280.859
282.156
283.636
285.343
287.331
289.658
273.252
273.767
274.306
274.88
275.495
276.162
276.89
277.693
278.583
279.577
280.695
281.963
283.417
285.11
287.109
289.499
273.248
273.753
274.282
274.843
275.445
276.096
276.806
277.587
278.45
279.412
280.493
281.72
283.131
284.786
286.777
289.233
273.243
273.737
274.255
274.804
275.391
276.024
276.713
277.468
278.3
279.224
280.257
281.427
282.77
284.35
286.274
288.741
273.237
273.721
274.227
274.762
275.333
275.947
276.613
277.34
278.136
279.016
279.993
281.089
282.337
283.787
285.537
287.792
273.268
273.817
274.395
275.009
275.671
276.392
277.182
278.057
279.03
280.117
281.338
282.711
284.259
286.005
287.968
290.161
273.267
273.812
274.385
274.996
275.653
276.369
277.155
278.024
278.991
280.073
281.287
282.655
284.2
285.945
287.909
290.092
273.264
273.803
274.37
274.974
275.624
276.332
277.109
277.968
278.923
279.993
281.195
282.552
284.089
285.834
287.809
290.017
273.261
273.793
274.352
274.947
275.587
276.283
277.047
277.891
278.83
279.881
281.064
282.403
283.926
285.667
287.659
289.916
273.256
273.78
274.33
274.914
275.542
276.225
276.972
277.797
278.714
279.74
280.894
282.204
283.702
285.43
287.436
289.759
273.252
273.766
274.305
274.877
275.491
276.157
276.885
277.687
278.576
279.57
280.687
281.954
283.409
285.101
287.101
289.495
273.247
273.75
274.277
274.836
275.435
276.083
276.789
277.564
278.421
279.374
280.442
281.652
283.037
284.655
286.594
289.006
273.241
273.733
274.248
274.793
275.376
276.004
276.686
277.431
278.251
279.158
280.168
281.302
282.591
284.08
285.85
288.071
273.272
273.83
274.416
275.041
275.714
276.448
277.255
278.149
279.144
280.257
281.506
282.907
284.479
286.234
288.179
290.305
273.271
273.824
274.406
275.026
275.696
276.425
277.227
278.116
279.105
280.212
281.454
282.851
284.419
286.175
288.121
290.239
273.268
273.815
274.391
275.005
275.666
276.387
277.18
278.058
279.036
280.13
281.36
282.746
284.307
286.063
288.021
290.165
273.264
273.804
274.372
274.977
275.628
276.338
277.117
277.98
278.94
280.016
281.227
282.594
284.142
285.895
287.872
290.065
273.26
273.792
274.35
274.943
275.582
276.278
277.04
277.883
278.821
279.871
281.053
282.391
283.915
285.656
287.648
289.909
273.255
273.777
274.324
274.905
275.53
276.208
276.951
277.77
278.68
279.697
280.841
282.136
283.616
285.323
287.313
289.645
273.25
273.761
274.296
274.864
275.473
276.132
276.852
277.644
278.52
279.496
280.59
281.827
283.238
284.873
286.805
289.162
273.245
273.744
274.266
274.82
275.412
276.051
276.746
277.508
278.346
279.275
280.309
281.47
282.783
284.291
286.062
288.24
273.275
273.839
274.432
275.065
275.748
276.492
277.312
278.22
279.231
280.363
281.63
283.049
284.633
286.389
288.314
290.391
273.274
273.833
274.422
275.051
275.729
276.469
277.283
278.186
279.191
280.316
281.578
282.992
284.573
286.329
288.257
290.326
273.271
273.825
274.407
275.028
275.699
276.43
277.235
278.127
279.121
280.234
281.482
282.886
284.46
286.217
288.157
290.253
273.267
273.814
274.388
275
275.66
276.38
277.171
278.048
279.024
280.118
281.347
282.732
284.293
286.049
288.007
290.153
273.263
273.8
274.365
274.966
275.614
276.319
277.093
277.949
278.903
279.971
281.171
282.527
284.064
285.808
287.784
289.997
273.258
273.785
274.339
274.927
275.56
276.248
277.002
277.834
278.759
279.793
280.955
282.268
283.762
285.473
287.448
289.735
273.253
273.769
274.31
274.885
275.502
276.17
276.901
277.706
278.596
279.589
280.701
281.955
283.381
285.021
286.941
289.256
273.247
273.752
274.28
274.84
275.44
276.088
276.793
277.567
278.419
279.363
280.415
281.592
282.921
284.436
286.2
288.345
273.277
273.845
274.443
275.081
275.77
276.522
277.35
278.267
279.29
280.433
281.712
283.141
284.73
286.484
288.394
290.441
273.276
273.84
274.433
275.067
275.751
276.499
277.321
278.233
279.249
280.386
281.659
283.083
284.67
286.424
288.337
290.376
273.273
273.831
274.418
275.045
275.721
276.46
277.272
278.174
279.178
280.302
281.563
282.976
284.557
286.313
288.238
290.303
273.269
273.82
274.399
275.016
275.682
276.408
277.208
278.093
279.081
280.186
281.426
282.821
284.389
286.143
288.088
290.203
273.265
273.806
274.375
274.981
275.635
276.347
277.129
277.994
278.958
280.037
281.249
282.615
284.158
285.902
287.864
290.048
273.26
273.791
274.349
274.942
275.581
276.275
277.037
277.878
278.813
279.857
281.03
282.354
283.855
285.566
287.528
289.787
273.255
273.775
274.32
274.899
275.522
276.197
276.934
277.747
278.648
279.651
280.773
282.038
283.471
285.112
287.022
289.31
273.249
273.757
274.29
274.854
275.459
276.113
276.825
277.606
278.468
279.422
280.484
281.672
283.009
284.527
286.284
288.407
273.279
273.849
274.449
275.09
275.782
276.537
277.369
278.291
279.319
280.468
281.752
283.186
284.778
286.529
288.431
290.463
273.277
273.843
274.439
275.075
275.763
276.514
277.34
278.257
279.279
280.421
281.699
283.128
284.717
286.47
288.375
290.399
273.274
273.834
274.424
275.053
275.732
276.474
277.291
278.197
279.207
280.337
281.603
283.021
284.604
286.358
288.275
290.326
273.27
273.823
274.404
275.024
275.693
276.423
277.226
278.117
279.109
280.219
281.466
282.865
284.435
286.188
288.125
290.226
273.266
273.81
274.381
274.989
275.646
276.361
277.147
278.017
278.986
280.07
281.287
282.658
284.204
285.946
287.902
290.071
273.261
273.794
274.354
274.95
275.591
276.289
277.054
277.9
278.839
279.889
281.068
282.396
283.9
285.611
287.566
289.811
273.256
273.778
274.325
274.907
275.532
276.21
276.951
277.768
278.673
279.681
280.81
282.079
283.515
285.156
287.061
289.335
273.25
273.76
274.294
274.861
275.469
276.125
276.841
277.627
278.493
279.452
280.519
281.712
283.052
284.571
286.324
288.436
273.222
273.675
274.145
274.637
275.152
275.693
276.261
276.857
277.48
278.124
278.783
279.445
280.095
280.71
281.267
281.737
273.221
273.671
274.139
274.628
275.14
275.679
276.244
276.838
277.457
278.098
278.753
279.412
280.058
280.67
281.224
281.692
273.219
273.665
274.129
274.613
275.121
275.655
276.215
276.802
277.415
278.05
278.698
279.349
279.988
280.594
281.143
281.607
273.217
273.658
274.116
274.595
275.096
275.622
276.175
276.754
277.358
277.983
278.621
279.262
279.89
280.486
281.026
281.483
273.214
273.649
274.101
274.572
275.066
275.583
276.127
276.695
277.288
277.9
278.525
279.151
279.766
280.349
280.877
281.324
273.21
273.639
274.083
274.546
275.031
275.539
276.071
276.628
277.206
277.803
278.412
279.022
279.619
280.185
280.697
281.132
273.207
273.627
274.064
274.518
274.993
275.49
276.01
276.553
277.116
277.696
278.286
278.877
279.453
279.999
280.493
280.912
273.203
273.616
274.044
274.489
274.954
275.439
275.946
276.474
277.021
277.583
278.153
278.721
279.275
279.799
280.272
280.672
273.223
273.677
274.149
274.643
275.161
275.706
276.28
276.883
277.515
278.17
278.843
279.523
280.193
280.832
281.414
281.907
273.222
273.673
274.142
274.633
275.149
275.691
276.262
276.862
277.49
278.142
278.812
279.487
280.154
280.79
281.369
281.86
273.22
273.667
274.132
274.618
275.129
275.666
276.231
276.826
277.447
278.092
278.754
279.423
280.082
280.712
281.285
281.772
273.217
273.659
274.119
274.599
275.103
275.633
276.191
276.776
277.389
278.024
278.675
279.333
279.981
280.6
281.165
281.645
273.214
273.65
274.103
274.576
275.072
275.594
276.142
276.716
277.317
277.939
278.577
279.219
279.853
280.458
281.01
281.48
273.211
273.64
274.085
274.55
275.037
275.549
276.085
276.647
277.234
277.84
278.461
279.086
279.702
280.289
280.825
281.281
273.207
273.629
274.066
274.522
274.999
275.499
276.024
276.572
277.142
277.731
278.333
278.937
279.531
280.097
280.612
281.051
273.203
273.617
274.046
274.493
274.959
275.448
275.959
276.492
277.045
277.615
278.195
278.777
279.347
279.888
280.38
280.799
273.225
273.683
274.159
274.658
275.183
275.736
276.321
276.938
277.586
278.264
278.966
279.68
280.392
281.08
281.713
282.255
273.223
273.678
274.152
274.648
275.169
275.72
276.301
276.915
277.56
278.234
278.932
279.642
280.35
281.035
281.666
282.206
273.221
273.672
274.141
274.632
275.149
275.694
276.269
276.877
277.515
278.182
278.871
279.574
280.275
280.952
281.577
282.114
273.219
273.664
274.127
274.612
275.122
275.66
276.227
276.826
277.454
278.11
278.789
279.48
280.169
280.835
281.451
281.98
273.216
273.655
274.111
274.589
275.091
275.619
276.177
276.764
277.38
278.022
278.686
279.361
280.034
280.686
281.287
281.805
273.212
273.644
274.093
274.562
275.055
275.573
276.119
276.693
277.294
277.92
278.565
279.221
279.874
280.505
281.088
281.591
273.209
273.633
274.074
274.534
275.016
275.523
276.055
276.614
277.199
277.806
278.431
279.064
279.693
280.299
280.859
281.341
273.205
273.621
274.053
274.503
274.975
275.47
275.988
276.532
277.098
277.685
278.286
278.894
279.495
280.073
280.605
281.062
273.228
273.692
274.175
274.682
275.217
275.782
276.383
277.019
277.694
278.404
279.147
279.914
280.69
281.453
282.169
282.792
273.226
273.687
274.168
274.671
275.203
275.765
276.362
276.995
277.666
278.373
279.111
279.873
280.645
281.405
282.119
282.741
273.224
273.681
274.156
274.655
275.181
275.738
276.329
276.955
277.618
278.317
279.047
279.801
280.565
281.318
282.025
282.644
273.222
273.673
274.142
274.634
275.153
275.702
276.285
276.902
277.555
278.242
278.96
279.701
280.452
281.193
281.891
282.501
273.219
273.663
274.126
274.61
275.121
275.66
276.232
276.837
277.477
278.149
278.851
279.575
280.309
281.032
281.714
282.312
273.215
273.652
274.107
274.583
275.084
275.613
276.172
276.763
277.386
278.041
278.723
279.425
280.136
280.836
281.496
282.076
273.211
273.641
274.087
274.553
275.044
275.56
276.106
276.681
277.287
277.921
278.579
279.255
279.938
280.608
281.24
281.794
273.207
273.628
274.066
274.522
275.001
275.505
276.036
276.595
277.18
277.792
278.424
279.071
279.721
280.356
280.952
281.473
273.232
273.704
274.197
274.714
275.261
275.843
276.463
277.125
277.832
278.585
279.381
280.216
281.078
281.946
282.783
283.532
273.23
273.699
274.189
274.703
275.247
275.825
276.442
277.1
277.803
278.551
279.343
280.174
281.031
281.896
282.731
283.478
273.228
273.693
274.177
274.686
275.224
275.796
276.406
277.058
277.753
278.492
279.275
280.097
280.946
281.803
282.632
283.376
273.225
273.684
274.162
274.665
275.195
275.759
276.361
277.002
277.686
278.413
279.182
279.99
280.825
281.669
282.488
283.225
273.222
273.674
274.145
274.64
275.162
275.716
276.305
276.934
277.603
278.314
279.066
279.854
280.67
281.494
282.296
283.02
273.218
273.663
274.126
274.611
275.123
275.666
276.242
276.855
277.507
278.199
278.928
279.692
280.481
281.278
282.054
282.757
273.214
273.651
274.105
274.58
275.081
275.611
276.173
276.769
277.401
278.07
278.773
279.506
280.261
281.022
281.762
282.431
273.21
273.638
274.083
274.548
275.037
275.553
276.1
276.678
277.288
277.931
278.604
279.303
280.018
280.734
281.425
282.048
273.236
273.719
274.222
274.752
275.315
275.915
276.558
277.25
277.995
278.797
279.657
280.575
281.544
282.549
283.553
284.491
273.235
273.714
274.214
274.741
275.3
275.896
276.536
277.224
277.965
278.762
279.617
280.53
281.495
282.496
283.498
284.434
273.233
273.707
274.202
274.723
275.276
275.866
276.499
277.18
277.912
278.7
279.545
280.448
281.404
282.397
283.395
284.328
273.23
273.698
274.187
274.701
275.246
275.828
276.451
277.121
277.841
278.615
279.446
280.334
281.274
282.254
283.242
284.171
273.227
273.688
274.169
274.675
275.211
275.782
276.393
277.049
277.753
278.51
279.321
280.187
281.106
282.065
283.035
283.953
273.223
273.676
274.149
274.645
275.171
275.729
276.326
276.966
277.651
278.386
279.172
280.011
280.898
281.825
282.766
283.66
273.219
273.664
274.127
274.613
275.127
275.672
276.253
276.874
277.538
278.247
279.003
279.806
280.654
281.536
282.429
283.28
273.214
273.65
274.104
274.579
275.08
275.612
276.176
276.777
277.417
278.097
278.819
279.581
280.378
281.202
282.029
282.809
273.242
273.735
274.251
274.795
275.374
275.995
276.664
277.389
278.176
279.031
279.962
280.972
282.064
283.234
284.461
285.681
273.24
273.73
274.242
274.783
275.359
275.976
276.641
277.361
278.143
278.994
279.919
280.924
282.012
283.179
284.403
285.62
273.238
273.723
274.23
274.765
275.334
275.945
276.602
277.315
278.088
278.928
279.843
280.838
281.916
283.076
284.296
285.513
273.235
273.714
274.214
274.742
275.303
275.904
276.552
277.252
278.012
278.838
279.737
280.716
281.779
282.925
284.138
285.355
273.231
273.703
274.195
274.714
275.266
275.856
276.491
277.176
277.919
278.726
279.603
280.558
281.597
282.722
283.919
285.132
273.227
273.691
274.175
274.684
275.224
275.801
276.421
277.089
277.811
278.593
279.443
280.366
281.37
282.459
283.624
284.818
273.223
273.678
274.152
274.65
275.178
275.74
276.343
276.991
277.69
278.444
279.259
280.141
281.097
282.131
283.238
284.379
273.219
273.664
274.128
274.614
275.129
275.677
276.261
276.888
277.56
278.281
279.057
279.891
280.786
281.744
282.757
283.788
273.247
273.752
274.281
274.84
275.437
276.08
276.776
277.534
278.364
279.275
280.277
281.384
282.606
283.959
285.456
287.092
273.246
273.747
274.272
274.828
275.421
276.06
276.752
277.505
278.33
279.236
280.233
281.334
282.551
283.901
285.394
287.017
273.243
273.74
274.259
274.809
275.396
276.027
276.711
277.456
278.271
279.166
280.153
281.243
282.451
283.794
285.285
286.911
273.24
273.73
274.243
274.785
275.363
275.985
276.658
277.391
278.192
279.071
280.041
281.113
282.306
283.637
285.126
286.765
273.237
273.719
274.224
274.756
275.324
275.934
276.594
277.311
278.094
278.952
279.898
280.945
282.112
283.423
284.902
286.554
273.233
273.707
274.202
274.724
275.28
275.876
276.52
277.218
277.978
278.81
279.725
280.737
281.866
283.138
284.589
286.239
273.228
273.693
274.178
274.689
275.232
275.813
276.438
277.115
277.849
278.65
279.527
280.492
281.566
282.774
284.156
285.753
273.223
273.678
274.153
274.652
275.181
275.746
276.352
277.004
277.71
278.475
279.307
280.216
281.216
282.328
283.581
285.012
273.223
273.678
274.152
274.651
275.18
275.744
276.349
277.002
277.707
278.471
279.303
280.212
281.212
282.324
283.578
285.008
273.218
273.663
274.126
274.612
275.127
275.673
276.257
276.883
277.554
278.275
279.051
279.884
280.779
281.737
282.75
283.782
273.214
273.649
274.102
274.577
275.077
275.607
276.171
276.771
277.41
278.089
278.81
279.572
280.369
281.193
282.02
282.801
273.21
273.637
274.081
274.545
275.033
275.548
276.093
276.67
277.28
277.922
278.594
279.292
280.007
280.724
281.415
282.038
273.207
273.627
274.063
274.519
274.997
275.499
276.029
276.586
277.171
277.781
278.413
279.059
279.709
280.344
280.94
281.463
273.204
273.619
274.05
274.499
274.97
275.463
275.981
276.523
277.088
277.674
278.274
278.881
279.482
280.061
280.593
281.051
273.203
273.615
274.043
274.488
274.954
275.441
275.951
276.482
277.034
277.603
278.183
278.764
279.333
279.875
280.368
280.788
273.202
273.614
274.041
274.485
274.948
275.432
275.938
276.465
277.01
277.571
278.14
278.708
279.262
279.785
280.259
280.661
273.228
273.692
274.176
274.686
275.229
275.809
276.433
277.108
277.842
278.642
279.518
280.484
281.557
282.765
284.148
285.746
273.223
273.676
274.149
274.646
275.173
275.735
276.336
276.983
277.68
278.434
279.248
280.13
281.086
282.12
283.227
284.369
273.218
273.662
274.124
274.609
275.121
275.665
276.245
276.865
277.527
278.235
278.99
279.793
280.64
281.522
282.416
283.268
273.214
273.649
274.102
274.576
275.075
275.603
276.164
276.759
277.389
278.056
278.758
279.491
280.246
281.007
281.747
282.417
273.21
273.639
274.083
274.548
275.037
275.552
276.096
276.67
277.274
277.906
278.564
279.239
279.921
280.592
281.224
281.779
273.208
273.631
274.07
274.528
275.009
275.514
276.045
276.602
277.185
277.791
278.415
279.047
279.675
280.282
280.842
281.326
273.206
273.626
274.062
274.517
274.992
275.49
276.013
276.559
277.128
277.716
278.316
278.92
279.514
280.08
280.596
281.036
273.206
273.625
274.06
274.513
274.986
275.481
275.999
276.54
277.102
277.681
278.27
278.859
279.436
279.982
280.477
280.897
273.232
273.705
274.199
274.72
275.274
275.869
276.511
277.207
277.966
278.797
279.711
280.722
281.851
283.123
284.575
286.227
273.227
273.689
274.171
274.678
275.217
275.792
276.41
277.076
277.797
278.578
279.426
280.348
281.352
282.44
283.607
284.802
273.222
273.674
274.145
274.639
275.163
275.72
276.315
276.952
277.636
278.369
279.153
279.991
280.878
281.805
282.747
283.642
273.218
273.661
274.122
274.605
275.115
275.655
276.229
276.841
277.491
278.18
278.908
279.671
280.459
281.257
282.033
282.737
273.214
273.65
274.102
274.576
275.075
275.602
276.158
276.747
277.369
278.022
278.702
279.403
280.113
280.813
281.475
282.057
273.211
273.642
274.089
274.556
275.046
275.562
276.105
276.677
277.276
277.9
278.544
279.199
279.852
280.483
281.067
281.571
273.21
273.637
274.08
274.543
275.028
275.537
276.071
276.631
277.215
277.82
278.44
279.064
279.679
280.267
280.803
281.262
273.209
273.636
274.078
274.539
275.022
275.527
276.057
276.611
277.188
277.783
278.39
278.999
279.596
280.162
280.676
281.112
273.236
273.716
274.219
274.75
275.315
275.923
276.58
277.294
278.075
278.931
279.876
280.922
282.088
283.399
284.88
286.536
273.23
273.7
274.19
274.707
275.256
275.843
276.475
277.158
277.899
278.703
279.579
280.533
281.571
282.695
283.894
285.109
273.225
273.685
274.163
274.667
275.2
275.768
276.376
277.029
277.731
278.485
279.295
280.16
281.078
282.037
283.008
283.927
273.221
273.671
274.139
274.631
275.15
275.701
276.288
276.914
277.58
278.289
279.039
279.826
280.641
281.466
282.268
282.994
273.217
273.66
274.12
274.602
275.109
275.646
276.214
276.816
277.453
278.123
278.823
279.546
280.279
281.003
281.686
282.287
273.215
273.651
274.105
274.58
275.079
275.604
276.159
276.743
277.356
277.996
278.658
279.332
280.005
280.656
281.259
281.78
273.213
273.646
274.097
274.567
275.06
275.579
276.123
276.695
277.293
277.913
278.549
279.191
279.824
280.43
280.983
281.456
273.212
273.645
274.094
274.563
275.053
275.568
276.108
276.674
277.264
277.874
278.497
279.123
279.737
280.32
280.849
281.299
273.239
273.726
274.236
274.775
275.349
275.968
276.637
277.367
278.165
279.041
280.008
281.079
282.271
283.602
285.093
286.735
273.233
273.709
274.207
274.731
275.288
275.886
276.53
277.227
277.983
278.806
279.703
280.68
281.742
282.888
284.102
285.322
273.228
273.694
274.179
274.69
275.231
275.809
276.428
277.094
277.811
278.582
279.411
280.297
281.236
282.216
283.205
284.136
273.224
273.68
274.154
274.653
275.18
275.74
276.337
276.975
277.655
278.379
279.146
279.952
280.787
281.631
282.451
283.19
273.22
273.668
274.134
274.623
275.138
275.683
276.261
276.875
277.524
278.208
278.924
279.664
280.414
281.155
281.854
282.468
273.217
273.659
274.119
274.6
275.106
275.64
276.204
276.798
277.424
278.077
278.753
279.443
280.131
280.798
281.416
281.948
273.216
273.654
274.111
274.587
275.088
275.614
276.167
276.749
277.358
277.991
278.64
279.296
279.944
280.564
281.131
281.614
273.215
273.653
274.108
274.583
275.08
275.603
276.152
276.728
277.328
277.95
278.586
279.226
279.854
280.451
280.993
281.453
273.241
273.734
274.249
274.794
275.376
276.003
276.682
277.423
278.234
279.125
280.108
281.196
282.403
283.745
285.236
286.864
273.236
273.717
274.219
274.75
275.314
275.919
276.572
277.28
278.048
278.885
279.797
280.79
281.867
283.025
284.246
285.464
273.231
273.701
274.191
274.708
275.256
275.841
276.468
277.144
277.872
278.656
279.498
280.399
281.354
282.347
283.346
284.281
273.226
273.686
274.166
274.67
275.203
275.77
276.376
277.022
277.713
278.449
279.229
280.048
280.896
281.754
282.584
283.331
273.222
273.675
274.146
274.639
275.16
275.712
276.298
276.92
277.579
278.274
279.001
279.753
280.517
281.269
281.979
282.601
273.219
273.666
274.13
274.617
275.128
275.668
276.239
276.842
277.476
278.14
278.826
279.527
280.228
280.906
281.533
282.074
273.218
273.661
274.121
274.603
275.109
275.641
276.202
276.792
277.409
278.051
278.71
279.377
280.036
280.667
281.243
281.734
273.217
273.659
274.119
274.599
275.102
275.63
276.186
276.769
277.378
278.009
278.655
279.305
279.944
280.551
281.102
281.57
273.243
273.739
274.259
274.808
275.395
276.027
276.713
277.461
278.28
279.181
280.175
281.272
282.488
283.835
285.324
286.941
273.238
273.722
274.228
274.762
275.332
275.942
276.601
277.316
278.092
278.938
279.86
280.862
281.948
283.114
284.337
285.552
273.232
273.706
274.2
274.72
275.272
275.862
276.496
277.178
277.914
278.706
279.558
280.468
281.431
282.432
283.435
284.373
273.228
273.691
274.174
274.682
275.219
275.791
276.402
277.055
277.752
278.496
279.284
280.112
280.969
281.834
282.671
283.422
273.224
273.679
274.153
274.651
275.176
275.732
276.323
276.951
277.616
278.318
279.054
279.814
280.585
281.346
282.062
282.689
273.221
273.67
274.138
274.628
275.143
275.688
276.263
276.872
277.512
278.182
278.876
279.585
280.293
280.978
281.612
282.158
273.219
273.665
274.129
274.614
275.123
275.66
276.225
276.82
277.444
278.092
278.759
279.433
280.099
280.736
281.318
281.815
273.218
273.664
274.126
274.609
275.116
275.649
276.209
276.798
277.413
278.05
278.702
279.359
280.005
280.619
281.176
281.649
273.244
273.742
274.263
274.815
275.404
276.039
276.728
277.48
278.304
279.209
280.208
281.31
282.53
283.879
285.367
286.978
273.238
273.725
274.233
274.769
275.34
275.954
276.616
277.334
278.115
278.965
279.891
280.898
281.988
283.157
284.381
285.594
273.233
273.708
274.204
274.726
275.281
275.874
276.51
277.195
277.935
278.731
279.587
280.502
281.469
282.474
283.479
284.417
273.228
273.694
274.178
274.688
275.228
275.802
276.415
277.071
277.772
278.52
279.312
280.145
281.006
281.874
282.714
283.467
273.224
273.681
274.157
274.657
275.184
275.742
276.336
276.966
277.635
278.341
279.08
279.844
280.619
281.384
282.103
282.732
273.222
273.673
274.142
274.633
275.151
275.697
276.276
276.887
277.53
278.204
278.901
279.614
280.325
281.014
281.651
282.199
273.22
273.667
274.133
274.62
275.131
275.67
276.237
276.835
277.461
278.113
278.783
279.46
280.13
280.771
281.356
281.855
273.219
273.666
274.13
274.615
275.123
275.658
276.221
276.812
277.43
278.07
278.726
279.387
280.036
280.653
281.213
281.689
273.199
273.604
274.023
274.459
274.914
275.387
275.881
276.394
276.924
277.466
278.015
278.561
279.091
279.59
280.041
280.422
273.195
273.592
274.004
274.431
274.875
275.337
275.818
276.316
276.829
277.352
277.88
278.402
278.908
279.383
279.81
280.172
273.192
273.582
273.985
274.404
274.838
275.29
275.758
276.242
276.739
277.244
277.752
278.252
278.735
279.187
279.591
279.933
273.189
273.572
273.969
274.38
274.806
275.248
275.706
276.177
276.659
277.148
277.637
278.118
278.579
279.009
279.393
279.718
273.186
273.565
273.956
274.36
274.78
275.214
275.662
276.122
276.592
277.067
277.54
278.004
278.447
278.859
279.225
279.534
273.184
273.559
273.946
274.346
274.76
275.188
275.629
276.081
276.541
277.005
277.466
277.915
278.344
278.742
279.095
279.392
273.183
273.555
273.94
274.337
274.748
275.171
275.608
276.054
276.507
276.964
277.416
277.856
278.275
278.663
279.006
279.294
273.183
273.554
273.938
274.334
274.743
275.165
275.598
276.042
276.492
276.944
277.392
277.828
278.242
278.623
278.962
279.246
273.199
273.605
274.025
274.463
274.919
275.395
275.893
276.41
276.946
277.496
278.054
278.611
279.155
279.671
280.137
280.534
273.196
273.593
274.005
274.433
274.879
275.344
275.828
276.33
276.849
277.379
277.915
278.448
278.966
279.454
279.895
280.269
273.192
273.583
273.987
274.406
274.843
275.297
275.768
276.256
276.757
277.269
277.783
278.293
278.786
279.248
279.664
280.017
273.189
273.573
273.97
274.382
274.81
275.254
275.714
276.189
276.676
277.17
277.665
278.153
278.624
279.063
279.456
279.789
273.186
273.565
273.957
274.363
274.783
275.219
275.67
276.134
276.608
277.087
277.566
278.036
278.486
278.906
279.28
279.596
273.185
273.559
273.947
274.348
274.764
275.193
275.637
276.092
276.556
277.024
277.49
277.945
278.38
278.784
279.143
279.446
273.183
273.556
273.941
274.34
274.752
275.178
275.616
276.065
276.522
276.982
277.439
277.885
278.309
278.702
279.051
279.345
273.183
273.555
273.94
274.337
274.748
275.171
275.607
276.054
276.507
276.963
277.416
277.856
278.275
278.662
279.006
279.294
273.201
273.609
274.032
274.473
274.934
275.416
275.92
276.447
276.995
277.56
278.138
278.718
279.29
279.837
280.338
280.767
273.197
273.597
274.012
274.443
274.893
275.363
275.854
276.365
276.894
277.438
277.991
278.544
279.085
279.6
280.07
280.471
273.193
273.586
273.993
274.415
274.856
275.314
275.792
276.288
276.799
277.322
277.852
278.378
278.891
279.376
279.815
280.189
273.19
273.576
273.976
274.391
274.822
275.271
275.737
276.219
276.714
277.219
277.727
278.23
278.717
279.174
279.586
279.936
273.188
273.568
273.962
274.371
274.795
275.235
275.691
276.162
276.643
277.132
277.622
278.105
278.569
279.003
279.393
279.722
273.186
273.563
273.952
274.356
274.775
275.209
275.657
276.119
276.59
277.066
277.542
278.008
278.455
278.871
279.243
279.557
273.185
273.559
273.947
274.348
274.763
275.193
275.636
276.092
276.555
277.023
277.489
277.945
278.38
278.783
279.143
279.446
273.184
273.559
273.945
274.346
274.76
275.187
275.628
276.08
276.54
277.004
277.465
277.914
278.344
278.741
279.094
279.391
273.203
273.616
274.044
274.491
274.958
275.45
275.965
276.506
277.072
277.659
278.264
278.879
279.493
280.09
280.645
281.128
273.199
273.604
274.023
274.46
274.917
275.395
275.896
276.42
276.965
277.528
278.106
278.689
279.266
279.823
280.336
280.781
273.195
273.592
274.004
274.431
274.878
275.344
275.831
276.339
276.864
277.405
277.956
278.508
279.051
279.569
280.043
280.451
273.192
273.582
273.986
274.406
274.843
275.299
275.774
276.266
276.774
277.295
277.821
278.345
278.857
279.341
279.781
280.156
273.189
273.574
273.972
274.385
274.815
275.262
275.726
276.206
276.699
277.202
277.708
278.209
278.694
279.15
279.561
279.91
273.188
273.568
273.962
274.371
274.795
275.235
275.691
276.161
276.643
277.132
277.621
278.104
278.568
279.002
279.392
279.721
273.186
273.565
273.956
274.362
274.783
275.219
275.669
276.133
276.606
277.086
277.565
278.034
278.485
278.904
279.279
279.595
273.186
273.564
273.955
274.36
274.779
275.213
275.661
276.121
276.591
277.065
277.538
278.002
278.445
278.857
279.224
279.533
273.206
273.625
274.061
274.515
274.992
275.495
276.025
276.584
277.172
277.788
278.43
279.09
279.761
280.426
281.061
281.627
273.202
273.613
274.039
274.483
274.949
275.438
275.952
276.492
277.058
277.647
278.256
278.878
279.504
280.116
280.693
281.2
273.198
273.601
274.019
274.454
274.908
275.385
275.884
276.406
276.95
277.513
278.091
278.677
279.259
279.822
280.345
280.799
273.195
273.591
274.001
274.427
274.872
275.337
275.823
276.329
276.854
277.394
277.944
278.496
279.04
279.559
280.036
280.446
273.192
273.582
273.986
274.406
274.843
275.299
275.773
276.265
276.773
277.293
277.82
278.344
278.855
279.34
279.78
280.155
273.19
273.576
273.976
274.39
274.821
275.27
275.736
276.217
276.713
277.217
277.725
278.228
278.714
279.172
279.584
279.934
273.189
273.573
273.97
274.381
274.809
275.253
275.713
276.187