/*--------------------------------*- C++ -*----------------------------------*\
| =========                 |                                                 |
| \\      /  F ield         | OpenFOAM: The Open Source CFD Toolbox           |
|  \\    /   O peration     | Version:  v1912                                 |
|   \\  /    A nd           | Website:  www.openfoam.com                      |
|    \\/     M anipulation  |                                                 |
\*---------------------------------------------------------------------------*/
FoamFile
{
    version     2.0;
    format      ascii;
    class       volVectorField;
    location    "0.61/fluid";
    object      U;
}
// * * * * * * * * * * * * * * * * * * * * * * * * * * * * * * * * * * * * * //

dimensions      [0 1 -1 0 0 0 0];


internalField   nonuniform List<vector> 
14592
(
(0.0877213 0.0172929 0.000628085)
(0.0723231 0.0116905 0.00101215)
(0.0574002 0.00727288 0.000803282)
(0.0491927 0.00354199 0.000203729)
(0.0442129 0.0016164 -0.000674505)
(0.0415305 0.000685513 -0.00175173)
(0.0398288 0.000304797 -0.00303901)
(0.0386009 0.000151673 -0.00459649)
(0.0373867 8.52199e-05 -0.00652803)
(0.0361787 2.09656e-05 -0.00899471)
(0.0345126 -7.56051e-05 -0.0122473)
(0.0328906 -0.000305417 -0.0166222)
(0.0298227 -0.000645857 -0.0228319)
(0.0271891 -0.00153079 -0.0310673)
(0.0192082 -0.00208128 -0.0419206)
(0.0108686 -0.00507512 -0.0401098)
(0.104002 0.0178837 0.000844838)
(0.103765 0.0173427 0.00141043)
(0.100839 0.01386 0.00117797)
(0.0972478 0.0092261 0.000303598)
(0.0938317 0.00580821 -0.001096)
(0.0911135 0.00363637 -0.00291032)
(0.0887885 0.00249104 -0.00513628)
(0.086667 0.00198018 -0.00785938)
(0.0843597 0.00183212 -0.0112464)
(0.0818104 0.00185602 -0.0155648)
(0.0783887 0.00193938 -0.021222)
(0.0744478 0.00192574 -0.0287829)
(0.0679033 0.00178029 -0.039255)
(0.0604821 0.000947785 -0.0529553)
(0.0435274 -1.1101e-06 -0.0692562)
(0.0251636 -0.00411248 -0.0644481)
(0.10399 0.0117957 0.000905893)
(0.108425 0.015748 0.00152344)
(0.111419 0.0146727 0.00129064)
(0.111988 0.0113573 0.000365535)
(0.111316 0.00828635 -0.001136)
(0.109997 0.00604384 -0.0031075)
(0.108295 0.00475065 -0.00554694)
(0.106324 0.00418982 -0.00854601)
(0.103898 0.00414514 -0.0122839)
(0.101005 0.00442976 -0.0170551)
(0.0969972 0.00491554 -0.0233023)
(0.0921139 0.00543848 -0.0316688)
(0.0840555 0.00592893 -0.0432298)
(0.0743702 0.00579773 -0.0584971)
(0.0533831 0.00493997 -0.0766736)
(0.0300042 9.53745e-05 -0.0725494)
(0.102121 0.00758242 0.000931465)
(0.106613 0.0122612 0.00158125)
(0.111177 0.0127828 0.00136249)
(0.113682 0.0111296 0.000444852)
(0.114746 0.00907648 -0.00104824)
(0.114675 0.00739801 -0.00300993)
(0.113816 0.00641431 -0.00543836)
(0.112379 0.00610473 -0.00842561)
(0.110283 0.00637237 -0.0121493)
(0.107572 0.00710474 -0.0169092)
(0.103602 0.00822527 -0.0231491)
(0.0985802 0.00961785 -0.0315495)
(0.0900692 0.0112302 -0.0431995)
(0.0795448 0.0124303 -0.0587885)
(0.0568608 0.0123571 -0.0775633)
(0.0310291 0.00609654 -0.0743911)
(0.101092 0.00496461 0.000957932)
(0.104667 0.00913178 0.00164642)
(0.10907 0.0104292 0.00146028)
(0.112194 0.00998105 0.000575902)
(0.114165 0.00891799 -0.000873327)
(0.114985 0.00795128 -0.00277402)
(0.114896 0.0074596 -0.00511853)
(0.114087 0.00754904 -0.00799267)
(0.112514 0.00822556 -0.0115633)
(0.110256 0.00946135 -0.0161229)
(0.106684 0.0112442 -0.0220958)
(0.102008 0.0135271 -0.0301801)
(0.0936577 0.0162934 -0.0414354)
(0.083036 0.0188542 -0.0567576)
(0.059384 0.0197084 -0.0754201)
(0.0315937 0.0112532 -0.0733677)
(0.100638 0.00335859 0.000988147)
(0.103483 0.00664501 0.00172282)
(0.107439 0.00814142 0.00158341)
(0.110715 0.00841909 0.000748128)
(0.113163 0.00813935 -0.00064024)
(0.114591 0.00785439 -0.00245872)
(0.115125 0.00791278 -0.00468983)
(0.114903 0.0084825 -0.00740839)
(0.113885 0.00964725 -0.0107649)
(0.112169 0.0114754 -0.0150378)
(0.109131 0.0140539 -0.0206197)
(0.104986 0.0174972 -0.0282163)
(0.0970391 0.0219541 -0.0388248)
(0.0866325 0.0269315 -0.0535878)
(0.062259 0.0305415 -0.071766)
(0.0326368 0.0205108 -0.0712073)
(0.100469 0.00219754 0.00102479)
(0.102921 0.00458111 0.00181339)
(0.106578 0.00600029 0.00173183)
(0.109908 0.00668421 0.000958162)
(0.112654 0.00698869 -0.000355708)
(0.114528 0.00728947 -0.0020746)
(0.115583 0.00786435 -0.00416659)
(0.115931 0.00889487 -0.00668822)
(0.115547 0.010508 -0.00976264)
(0.11457 0.0128474 -0.0136352)
(0.112446 0.0160747 -0.0186321)
(0.109469 0.0204598 -0.0254108)
(0.102954 0.0262783 -0.0347893)
(0.0942994 0.0333024 -0.0481087)
(0.0704778 0.0393833 -0.0643186)
(0.0399106 0.0274859 -0.0655064)
(0.100415 0.00122801 0.00106611)
(0.102726 0.00272475 0.00191391)
(0.106292 0.00391419 0.00189659)
(0.109716 0.00481151 0.00119172)
(0.112697 0.00555479 -4.03803e-05)
(0.114914 0.00634771 -0.00165227)
(0.116392 0.00738004 -0.00359542)
(0.117233 0.00882131 -0.00590593)
(0.117438 0.0108245 -0.00867757)
(0.117177 0.0136122 -0.0121179)
(0.115972 0.0174463 -0.0164837)
(0.114184 0.0229143 -0.0223712)
(0.109216 0.0306731 -0.0304156)
(0.102699 0.0422716 -0.0421753)
(0.0802462 0.0566183 -0.0564595)
(0.052224 0.0613748 -0.0610495)
(0.0876901 0.0172956 0.000394115)
(0.0721439 0.0117033 0.000598243)
(0.0569953 0.00728413 0.000365752)
(0.0485891 0.00354825 -0.000166499)
(0.0434205 0.00162086 -0.000931206)
(0.040553 0.000691215 -0.00188262)
(0.0386362 0.000313909 -0.00304205)
(0.0371367 0.000164713 -0.0044593)
(0.035567 0.000103584 -0.00622053)
(0.0338788 4.69877e-05 -0.00842806)
(0.0316033 -3.34319e-05 -0.0112687)
(0.0291179 -0.000227867 -0.0148255)
(0.0251586 -0.000494427 -0.0195325)
(0.020982 -0.00118911 -0.0244483)
(0.0129256 -0.00163502 -0.0292237)
(0.00356496 -0.00367851 -0.01974)
(0.103959 0.0178974 0.000519423)
(0.103514 0.017379 0.000796969)
(0.100254 0.0139059 0.000473065)
(0.0963114 0.00927242 -0.000346924)
(0.0925339 0.00585844 -0.00159463)
(0.0894449 0.00369919 -0.00321169)
(0.0867009 0.00257673 -0.00522192)
(0.0840655 0.00209715 -0.00770638)
(0.0810945 0.00199046 -0.0108085)
(0.0776589 0.00206649 -0.0147162)
(0.0730859 0.00222163 -0.0197347)
(0.0675636 0.00230113 -0.0260854)
(0.0592375 0.00228884 -0.0343563)
(0.0491705 0.00163746 -0.0433163)
(0.0316116 0.000722442 -0.0510885)
(0.0116586 -0.00296923 -0.0340427)
(0.103949 0.0118193 0.000557304)
(0.108167 0.0158054 0.000853149)
(0.110809 0.0147556 0.000507059)
(0.110995 0.0114558 -0.000371887)
(0.109921 0.00840283 -0.00171731)
(0.108181 0.00618956 -0.00347726)
(0.106005 0.00494287 -0.00568023)
(0.103458 0.00444697 -0.00841634)
(0.10029 0.00448986 -0.0118411)
(0.09641 0.00488562 -0.0161665)
(0.0911103 0.00551737 -0.021722)
(0.0844609 0.00621119 -0.0287833)
(0.0743647 0.00691405 -0.0379588)
(0.0617174 0.00695381 -0.0480246)
(0.0398948 0.00605271 -0.056714)
(0.0147657 0.000815516 -0.0379136)
(0.102083 0.00760941 0.000579686)
(0.106358 0.0123287 0.000896993)
(0.110573 0.012889 0.000559422)
(0.1127 0.0112681 -0.000313485)
(0.113365 0.00925061 -0.00165009)
(0.112878 0.0076219 -0.00339927)
(0.11155 0.00671137 -0.00558991)
(0.109543 0.00650395 -0.00831296)
(0.106714 0.00691149 -0.0117223)
(0.103024 0.00782633 -0.0160344)
(0.0977631 0.00918986 -0.0215767)
(0.0909702 0.010874 -0.0286512)
(0.0803806 0.0128541 -0.0378592)
(0.0668208 0.0143463 -0.048059)
(0.0431958 0.0143079 -0.056929)
(0.015447 0.00696172 -0.0380684)
(0.101056 0.00499596 0.000607807)
(0.104417 0.00921061 0.000960825)
(0.108478 0.0105576 0.000654563)
(0.111236 0.0101565 -0.000185117)
(0.112827 0.00914546 -0.00147856)
(0.113252 0.00824756 -0.00316945)
(0.112722 0.00785372 -0.00528068)
(0.111379 0.00807988 -0.0078973)
(0.109116 0.00894586 -0.0111628)
(0.105938 0.0104338 -0.0152881)
(0.101138 0.0125586 -0.0205818)
(0.0947688 0.0152623 -0.0273629)
(0.0843872 0.0185765 -0.036199)
(0.0707701 0.0215906 -0.0461034)
(0.0460597 0.0226205 -0.0547707)
(0.0161143 0.0124457 -0.0365934)
(0.100602 0.00339421 0.00064008)
(0.103238 0.00673426 0.00103849)
(0.106861 0.00828895 0.00077808)
(0.109787 0.00862521 -1.30988e-05)
(0.111878 0.00841138 -0.00124749)
(0.11294 0.00821222 -0.00286024)
(0.113069 0.00839117 -0.0048644)
(0.112359 0.00913067 -0.00733492)
(0.11071 0.0105348 -0.0104)
(0.108151 0.0126912 -0.0142598)
(0.103975 0.0157297 -0.0191943)
(0.0982586 0.0197699 -0.0255361)
(0.0883671 0.0250547 -0.0337968)
(0.0750804 0.0308185 -0.0432061)
(0.0495282 0.035058 -0.0514815)
(0.0174778 0.0226862 -0.034497)
(0.100434 0.00223775 0.000677875)
(0.102683 0.00468027 0.00112956)
(0.106017 0.00616408 0.000925655)
(0.109017 0.00691474 0.000194614)
(0.11143 0.00729525 -0.000968213)
(0.112972 0.00769453 -0.00248677)
(0.113669 0.00840689 -0.00436015)
(0.113591 0.00963219 -0.00664735)
(0.11266 0.0115228 -0.00945265)
(0.110961 0.0142501 -0.0129518)
(0.107856 0.0180314 -0.017372)
(0.103542 0.023159 -0.023031)
(0.095317 0.0300406 -0.0303157)
(0.084166 0.0381463 -0.0387211)
(0.0590687 0.0452869 -0.0459148)
(0.0259241 0.0304287 -0.0308231)
(0.100381 0.00127185 0.000719085)
(0.102494 0.00283108 0.00122871)
(0.105751 0.00408887 0.00108727)
(0.108863 0.0050576 0.000422868)
(0.111539 0.00588298 -0.000661822)
(0.113461 0.00678218 -0.00207877)
(0.114628 0.00796254 -0.0038118)
(0.11511 0.00961522 -0.0059018)
(0.114858 0.011923 -0.00842727)
(0.114003 0.0151471 -0.0115357)
(0.111987 0.0196196 -0.0153986)
(0.109118 0.0259919 -0.0203106)
(0.102705 0.0351073 -0.0265274)
(0.0941751 0.0483035 -0.0338467)
(0.0704616 0.0646435 -0.0399795)
(0.0399924 0.0660481 -0.0278657)
(0.0876661 0.0172981 0.000230444)
(0.0720044 0.0117138 0.000311793)
(0.0566699 0.00729391 7.17757e-05)
(0.0480848 0.00355368 -0.00039494)
(0.0427338 0.00162433 -0.00104909)
(0.0396787 0.000695309 -0.00186734)
(0.0375422 0.000320172 -0.00287558)
(0.0357656 0.000173064 -0.00411396)
(0.0338368 0.000114141 -0.00565242)
(0.0316585 5.98954e-05 -0.0075547)
(0.028765 -1.53756e-05 -0.00996653)
(0.025397 -0.000196058 -0.0128769)
(0.0205592 -0.000439975 -0.0166115)
(0.0150911 -0.00105395 -0.0201989)
(0.00745799 -0.00154505 -0.0232194)
(-0.000520141 -0.00317839 -0.0155432)
(0.103926 0.0179108 0.000293085)
(0.103317 0.0174127 0.000377453)
(0.0997804 0.0139497 7.46107e-06)
(0.0955284 0.00931798 -0.00074182)
(0.0914114 0.00590807 -0.00183138)
(0.0879599 0.00376018 -0.00323486)
(0.0848002 0.00265805 -0.00498972)
(0.0816558 0.00220633 -0.0071681)
(0.0780367 0.00213641 -0.00988873)
(0.0737406 0.00225814 -0.0132806)
(0.0680754 0.00247407 -0.0175741)
(0.061073 0.00262816 -0.0228374)
(0.0511972 0.00270864 -0.0294651)
(0.0391163 0.0021639 -0.0361141)
(0.0219595 0.0011789 -0.0409362)
(0.00396569 -0.0024187 -0.0264958)
(0.103918 0.0118433 0.000314255)
(0.107964 0.0158613 0.000395007)
(0.110316 0.0148367 -1.00405e-05)
(0.110167 0.0115531 -0.000820853)
(0.108716 0.00851782 -0.00200112)
(0.106568 0.00633182 -0.00353147)
(0.103924 0.00512792 -0.00545583)
(0.100809 0.00469185 -0.00785644)
(0.0969197 0.00481572 -0.0108631)
(0.0920872 0.00531386 -0.0146251)
(0.0855698 0.00607868 -0.0193894)
(0.0772814 0.00692438 -0.0252634)
(0.0654218 0.00780656 -0.0326412)
(0.0505131 0.00797368 -0.0401483)
(0.0289528 0.00698463 -0.0455279)
(0.00587682 0.00131738 -0.0294034)
(0.102054 0.00763743 0.000332987)
(0.10616 0.0123961 0.000427036)
(0.110088 0.0129938 2.62387e-05)
(0.111882 0.0114045 -0.000780033)
(0.112175 0.00942134 -0.0019521)
(0.111284 0.0078392 -0.00347196)
(0.109493 0.00699657 -0.00538429)
(0.106924 0.00688378 -0.00777248)
(0.103379 0.00742101 -0.010765)
(0.0987436 0.00850394 -0.0145156)
(0.092261 0.0100895 -0.0192684)
(0.0838161 0.0120341 -0.0251537)
(0.0714098 0.0143352 -0.0325545)
(0.0555024 0.0160676 -0.0401589)
(0.0320233 0.0160519 -0.0456382)
(0.0062646 0.00781517 -0.029448)
(0.101028 0.00502826 0.000360204)
(0.104224 0.00928914 0.000485821)
(0.108004 0.0106839 0.000113506)
(0.110442 0.0103279 -0.000661681)
(0.111678 0.00936653 -0.00179365)
(0.111719 0.00853329 -0.00326028)
(0.110752 0.00823087 -0.00510091)
(0.108878 0.0085845 -0.00739378)
(0.105939 0.00962717 -0.0102583)
(0.101865 0.011349 -0.0138447)
(0.0958949 0.0137894 -0.0183814)
(0.0879339 0.0168752 -0.0240166)
(0.0757539 0.0206824 -0.0311061)
(0.0597913 0.0240978 -0.0384735)
(0.0350868 0.0253259 -0.0438087)
(0.00694316 0.0138535 -0.0282478)
(0.100575 0.00343017 0.000391766)
(0.103049 0.00682216 0.000559582)
(0.106401 0.0084325 0.000229894)
(0.109021 0.00882464 -0.000500211)
(0.110777 0.00867342 -0.00157766)
(0.111483 0.00855508 -0.00297321)
(0.111208 0.00884715 -0.00471727)
(0.110012 0.00974556 -0.0068793)
(0.107741 0.0113736 -0.0095654)
(0.104357 0.0138351 -0.0129182)
(0.0990896 0.0172996 -0.0171422)
(0.0918834 0.0218843 -0.0224031)
(0.0802532 0.0279191 -0.0290126)
(0.064694 0.0343892 -0.0359862)
(0.038994 0.0392596 -0.0410557)
(0.00847514 0.0252498 -0.0265571)
(0.100408 0.00227734 0.0004281)
(0.1025 0.00477646 0.000645742)
(0.105575 0.00632163 0.000368494)
(0.108284 0.00713582 -0.000306201)
(0.110387 0.00758846 -0.001318)
(0.111605 0.00808068 -0.0026283)
(0.111941 0.00892268 -0.00425503)
(0.111434 0.0103313 -0.00625427)
(0.109959 0.0124831 -0.00871215)
(0.107544 0.0155741 -0.0117538)
(0.103485 0.0198742 -0.0155431)
(0.0978819 0.0256909 -0.0202462)
(0.088096 0.0335573 -0.0260858)
(0.0749488 0.0426752 -0.0323263)
(0.0495252 0.0509115 -0.0367286)
(0.0175398 0.0341422 -0.0238761)
(0.100356 0.00131404 0.000466969)
(0.102319 0.0029327 0.000738575)
(0.105328 0.00425513 0.000519121)
(0.108168 0.00529168 -9.43213e-05)
(0.110559 0.00619485 -0.00103461)
(0.112191 0.00719453 -0.00225289)
(0.113043 0.00851504 -0.00375337)
(0.113158 0.0103675 -0.00557688)
(0.112447 0.0129634 -0.00778787)
(0.110998 0.016599 -0.0104907)
(0.108187 0.0216744 -0.0138048)
(0.104265 0.0288934 -0.0178903)
(0.0965251 0.0392854 -0.0228743)
(0.0863858 0.0539978 -0.0282992)
(0.0622456 0.0724334 -0.0320404)
(0.0328009 0.0721818 -0.0215972)
(0.0876481 0.0173004 0.000121759)
(0.0718967 0.0117227 0.000127674)
(0.0564135 0.00730248 -0.000100481)
(0.0476785 0.00355878 -0.000496008)
(0.0421721 0.00162816 -0.0010363)
(0.0389582 0.000700227 -0.00171099)
(0.0366448 0.000327999 -0.00254414)
(0.0346604 0.000184692 -0.00356325)
(0.0324902 0.000131277 -0.0048156)
(0.0300181 8.57959e-05 -0.00632469)
(0.026828 2.69627e-05 -0.00817385)
(0.0231062 -0.000118691 -0.010269)
(0.0181243 -0.000299899 -0.0127663)
(0.0125117 -0.000766891 -0.0147673)
(0.00565555 -0.00112177 -0.0157564)
(-0.000977207 -0.00243931 -0.00950844)
(0.1039 0.0179231 0.000144555)
(0.103163 0.0174427 0.000113666)
(0.0994047 0.0139894 -0.000256866)
(0.0948934 0.00936006 -0.000911701)
(0.0904867 0.00595457 -0.00182777)
(0.0867249 0.00381729 -0.00299635)
(0.0832194 0.00273398 -0.00445606)
(0.0796725 0.0023087 -0.0062627)
(0.0755802 0.00227498 -0.00850099)
(0.0707107 0.00244459 -0.0112382)
(0.0644206 0.00272884 -0.0146086)
(0.0566968 0.0029794 -0.0185457)
(0.0463519 0.00320168 -0.0232029)
(0.0339237 0.00287064 -0.0272909)
(0.017962 0.0020621 -0.0290523)
(0.0023249 -0.00139311 -0.0171438)
(0.103894 0.0118656 0.000154531)
(0.107807 0.0159123 0.000107848)
(0.109925 0.0149107 -0.000302578)
(0.109494 0.0116425 -0.00101616)
(0.107723 0.00862375 -0.00201248)
(0.105225 0.00646225 -0.00328954)
(0.10219 0.00529644 -0.00489273)
(0.0986204 0.00491392 -0.00688753)
(0.0941961 0.00511126 -0.00936795)
(0.0887169 0.00570449 -0.0124172)
(0.0814827 0.00659742 -0.0161788)
(0.0723719 0.00760248 -0.0206109)
(0.0599356 0.00869571 -0.0258486)
(0.0446064 0.00909236 -0.0305412)
(0.0243116 0.00825111 -0.0325373)
(0.00387861 0.00235497 -0.0190717)
(0.102032 0.00766397 0.000169563)
(0.106006 0.0124585 0.000130399)
(0.109704 0.0130903 -0.000278751)
(0.11122 0.0115299 -0.000989192)
(0.111196 0.00957752 -0.00197847)
(0.109958 0.00803649 -0.00324629)
(0.10778 0.00725324 -0.00483896)
(0.104762 0.00722289 -0.00682326)
(0.100688 0.00787297 -0.00929217)
(0.0954127 0.0091021 -0.0123328)
(0.0882162 0.0108814 -0.0160854)
(0.0789528 0.0130577 -0.0205242)
(0.0659581 0.0156527 -0.0257696)
(0.0496203 0.0176478 -0.030507)
(0.0273799 0.0177787 -0.0325025)
(0.00428914 0.00895735 -0.0189251)
(0.101008 0.00505875 0.000193997)
(0.104074 0.00936187 0.000181479)
(0.107631 0.0107998 -0.000203234)
(0.109801 0.0104845 -0.000886292)
(0.110734 0.00956724 -0.00184047)
(0.110447 0.0087906 -0.00306233)
(0.109114 0.0085673 -0.00459378)
(0.106818 0.00903017 -0.00649747)
(0.103382 0.0102227 -0.00885906)
(0.09871 0.0121401 -0.0117637)
(0.0920681 0.0148403 -0.0153392)
(0.0833393 0.0182352 -0.0195756)
(0.070596 0.0224341 -0.0245714)
(0.0542237 0.0261763 -0.0291147)
(0.0306782 0.0275937 -0.0309906)
(0.00509614 0.0152502 -0.0179206)
(0.100556 0.0034637 0.000222621)
(0.102904 0.00690301 0.000247137)
(0.10604 0.00856353 -0.000100258)
(0.108405 0.00900556 -0.000743659)
(0.109876 0.00890954 -0.00165036)
(0.110276 0.00886142 -0.00281103)
(0.109664 0.00925042 -0.00426014)
(0.108082 0.0102828 -0.00605328)
(0.105357 0.0120962 -0.00826555)
(0.10143 0.0148033 -0.0109772)
(0.0955499 0.0185994 -0.0142986)
(0.0876487 0.0235872 -0.018237)
(0.0754956 0.0301469 -0.0228605)
(0.059571 0.0370677 -0.0271082)
(0.034929 0.0422726 -0.0288226)
(0.00679382 0.0271561 -0.0166168)
(0.100389 0.0023137 0.000255271)
(0.102361 0.00486407 0.000323751)
(0.105228 0.00646435 2.23612e-05)
(0.107698 0.00733494 -0.000572624)
(0.109536 0.00785089 -0.00142257)
(0.110476 0.00842348 -0.00251031)
(0.110509 0.00937582 -0.00386015)
(0.109661 0.0109373 -0.00551731)
(0.10779 0.0133018 -0.00754187)
(0.10491 0.0166782 -0.0100035)
(0.100325 0.021368 -0.0129851)
(0.0941421 0.0276689 -0.0165055)
(0.0839111 0.036178 -0.0205815)
(0.070501 0.0458733 -0.0243577)
(0.0459865 0.0546077 -0.0257691)
(0.0161044 0.0365674 -0.0148972)
(0.100338 0.00135219 0.000289799)
(0.102185 0.00302432 0.000405798)
(0.104998 0.00440448 0.00015509)
(0.107614 0.005501 -0.000386542)
(0.109762 0.00647229 -0.00117478)
(0.111144 0.0075585 -0.00218384)
(0.11173 0.00899756 -0.00342678)
(0.111554 0.0110149 -0.00493709)
(0.110509 0.0138415 -0.00675856)
(0.108678 0.0177913 -0.008948)
(0.105438 0.0233015 -0.0115589)
(0.101069 0.0310775 -0.0146183)
(0.0929833 0.0422262 -0.0180909)
(0.0827199 0.0576643 -0.0213528)
(0.0593671 0.076851 -0.0225146)
(0.0317684 0.0752339 -0.0135021)
(0.087634 0.0173022 5.40218e-05)
(0.0718132 0.0117297 2.11789e-05)
(0.0562125 0.00730908 -0.000177201)
(0.0473545 0.00356255 -0.000494968)
(0.0417175 0.00163063 -0.000919665)
(0.0383672 0.000703154 -0.0014485)
(0.0359017 0.00033258 -0.00210221)
(0.0337396 0.000191202 -0.00289999)
(0.031366 0.00014025 -0.00387465)
(0.0286501 9.84365e-05 -0.00503309)
(0.0252196 4.68215e-05 -0.00642781)
(0.021225 -8.14662e-05 -0.00796348)
(0.0161477 -0.000231257 -0.00972895)
(0.0105041 -0.000620105 -0.0110558)
(0.00431504 -0.000916095 -0.0114957)
(-0.00123079 -0.00209029 -0.00695228)
(0.10388 0.0179335 5.43226e-05)
(0.103043 0.0174677 -3.12678e-05)
(0.0991091 0.0140225 -0.000363096)
(0.0943862 0.00939561 -0.000900718)
(0.0897382 0.00599387 -0.00163071)
(0.0857134 0.00386519 -0.00255366)
(0.0819142 0.00279701 -0.00370452)
(0.0780278 0.00239284 -0.00512577)
(0.0735429 0.00238774 -0.00687788)
(0.0682077 0.00259458 -0.00899654)
(0.0614273 0.00293088 -0.011564)
(0.0531688 0.00325287 -0.0144892)
(0.0425285 0.00357731 -0.0178327)
(0.0300102 0.00339011 -0.020601)
(0.0151383 0.00268574 -0.021381)
(0.00145081 -0.000763762 -0.012542)
(0.103875 0.0118848 5.75082e-05)
(0.107684 0.0159557 -4.83164e-05)
(0.109618 0.0149738 -0.000418292)
(0.108957 0.011719 -0.00100699)
(0.106919 0.00871438 -0.00180345)
(0.104125 0.00657342 -0.00281395)
(0.100758 0.00543926 -0.00407963)
(0.0968056 0.00510111 -0.0056513)
(0.0919371 0.00535907 -0.00759683)
(0.0859321 0.00603029 -0.00996387)
(0.0781347 0.0070273 -0.01284)
(0.0684128 0.00815999 -0.0161495)
(0.0556057 0.00941966 -0.0199318)
(0.040151 0.00998979 -0.0231356)
(0.0210262 0.00925355 -0.0240261)
(0.00279817 0.00311158 -0.0139648)
(0.102015 0.00768716 6.89182e-05)
(0.105886 0.0125124 -3.31795e-05)
(0.109402 0.0131731 -0.000403605)
(0.110692 0.0116375 -0.000990288)
(0.110404 0.00971148 -0.00178116)
(0.108873 0.00820504 -0.00278418)
(0.106367 0.00747142 -0.00404146)
(0.102969 0.00750969 -0.00560505)
(0.0984545 0.00825327 -0.0075422)
(0.0926582 0.00960268 -0.00990399)
(0.0848987 0.0115399 -0.0127752)
(0.0750244 0.0139026 -0.016093)
(0.0616459 0.0167303 -0.0198841)
(0.0451731 0.0189285 -0.0231227)
(0.0240832 0.0191688 -0.0240037)
(0.00322765 0.00986482 -0.0138575)
(0.100991 0.00508546 8.91842e-05)
(0.103958 0.00942487 8.26887e-06)
(0.107338 0.0108996 -0.000342481)
(0.109291 0.0106191 -0.000906735)
(0.109972 0.00973926 -0.00166892)
(0.109407 0.00901034 -0.00263476)
(0.107763 0.0088534 -0.00384297)
(0.10511 0.00940748 -0.00534249)
(0.10126 0.0107247 -0.00719509)
(0.0960981 0.0128034 -0.00945092)
(0.0889247 0.0157161 -0.0121861)
(0.0796207 0.0193611 -0.015351)
(0.0665064 0.023872 -0.0189577)
(0.0500067 0.0278721 -0.022058)
(0.027545 0.0294388 -0.0228656)
(0.00412367 0.0164201 -0.0131188)
(0.10054 0.00349298 0.000113139)
(0.102793 0.0069729 6.25721e-05)
(0.105758 0.00867618 -0.000257625)
(0.107917 0.00916065 -0.000789391)
(0.10915 0.00911145 -0.00151286)
(0.109292 0.00912254 -0.00242926)
(0.108392 0.00959291 -0.00357144)
(0.106482 0.0107372 -0.00498294)
(0.103378 0.0127046 -0.00671753)
(0.0990064 0.0156139 -0.00882241)
(0.0926399 0.0196802 -0.0113613)
(0.0842177 0.024992 -0.0142994)
(0.0717198 0.0319653 -0.0176294)
(0.0556916 0.0392381 -0.0205168)
(0.0320465 0.0446978 -0.0212315)
(0.00593953 0.0287616 -0.0121505)
(0.100374 0.0023452 0.000140337)
(0.102254 0.00493943 0.000125955)
(0.104959 0.00658663 -0.000156559)
(0.107234 0.00750515 -0.000648782)
(0.108852 0.00807475 -0.0013262)
(0.109556 0.00871519 -0.00218395)
(0.10933 0.0097603 -0.00324694)
(0.108192 0.0114497 -0.00455099)
(0.105988 0.0139911 -0.00613884)
(0.102723 0.0176029 -0.00805113)
(0.097718 0.0226112 -0.0103331)
(0.0910983 0.0293028 -0.0129625)
(0.0805723 0.0383201 -0.0159018)
(0.0671143 0.0484718 -0.0184686)
(0.0434723 0.0575913 -0.0190295)
(0.0154098 0.0386477 -0.0109426)
(0.100324 0.00138493 0.000168908)
(0.102083 0.00310267 0.000193601)
(0.104743 0.00453195 -4.74206e-05)
(0.107177 0.00567936 -0.000496096)
(0.109123 0.00670835 -0.0011235)
(0.110293 0.00786767 -0.00191795)
(0.110652 0.00940649 -0.00289555)
(0.110226 0.011562 -0.00408332)
(0.108899 0.0145805 -0.00551199)
(0.106751 0.0187896 -0.00721386)
(0.103169 0.0246547 -0.00921424)
(0.0984619 0.0328794 -0.0115006)
(0.0901539 0.044625 -0.0140058)
(0.0799278 0.0606377 -0.0162178)
(0.0573364 0.0804099 -0.0166666)
(0.0313464 0.0779387 -0.0099343)
(0.0876239 0.0173036 1.7552e-05)
(0.071753 0.0117351 -2.55286e-05)
(0.0560663 0.0073142 -0.000178385)
(0.0471168 0.00356571 -0.000410632)
(0.0413828 0.001633 -0.000715392)
(0.0379328 0.000706206 -0.00109288)
(0.0353603 0.00033753 -0.00155795)
(0.0330797 0.000198768 -0.00212171)
(0.0305817 0.000151628 -0.00280284)
(0.0277309 0.0001158 -0.0035967)
(0.0241937 7.46968e-05 -0.00452781)
(0.0201047 -3.32832e-05 -0.00551202)
(0.0150706 -0.00014905 -0.00658454)
(0.00953905 -0.000472298 -0.00729828)
(0.00374553 -0.000709057 -0.00731153)
(-0.00121679 -0.00181814 -0.00424847)
(0.103866 0.0179416 8.64599e-06)
(0.102956 0.0174871 -8.48064e-05)
(0.0988926 0.0140483 -0.000345182)
(0.0940118 0.00942375 -0.000744284)
(0.089183 0.0060252 -0.00127409)
(0.0849628 0.00390354 -0.00193799)
(0.0809504 0.00284762 -0.00276225)
(0.0768268 0.00246078 -0.00377471)
(0.0720832 0.00247954 -0.00501225)
(0.0664633 0.00271811 -0.00648673)
(0.0594189 0.00309942 -0.0082368)
(0.0509184 0.00348389 -0.0101703)
(0.0402386 0.00389795 -0.0122862)
(0.0278725 0.00383138 -0.0138977)
(0.0137312 0.00322566 -0.013983)
(0.00120247 -0.000259351 -0.00792338)
(0.103862 0.0119 8.50681e-06)
(0.107595 0.0159898 -0.000103643)
(0.109392 0.0150232 -0.000395132)
(0.108561 0.0117793 -0.000833672)
(0.106321 0.00878584 -0.00141324)
(0.103307 0.00666097 -0.00214152)
(0.099698 0.00555146 -0.00304964)
(0.0954752 0.00524788 -0.00417173)
(0.0903098 0.00555326 -0.00554999)
(0.0839771 0.00628581 -0.0072044)
(0.0758661 0.00736519 -0.00917603)
(0.0658554 0.00860036 -0.011381)
(0.0529705 0.00999512 -0.0137989)
(0.0376684 0.0107091 -0.0156949)
(0.0193532 0.010073 -0.0158113)
(0.00246422 0.00372952 -0.00886669)
(0.102002 0.00770562 1.6474e-05)
(0.105799 0.0125549 -9.41485e-05)
(0.109181 0.0132385 -0.000386777)
(0.110303 0.0117224 -0.000824141)
(0.109817 0.00981675 -0.00139973)
(0.108067 0.00833697 -0.00212261)
(0.10532 0.00764134 -0.00302473)
(0.101655 0.00773188 -0.00414131)
(0.0968463 0.00854638 -0.00551415)
(0.0907258 0.00998658 -0.00716581)
(0.082654 0.0120424 -0.00913531)
(0.0724933 0.0145451 -0.0113473)
(0.0590327 0.0175475 -0.0137715)
(0.0427141 0.0199016 -0.0156882)
(0.0224245 0.020233 -0.0157873)
(0.00292482 0.0105734 -0.0087772)
(0.10098 0.00510672 3.15885e-05)
(0.103874 0.0094747 -6.36886e-05)
(0.107125 0.0109783 -0.000341946)
(0.108915 0.0107248 -0.000762714)
(0.109407 0.00987396 -0.00131714)
(0.108635 0.00918153 -0.0020128)
(0.106764 0.0090749 -0.0028793)
(0.10386 0.00969751 -0.00394972)
(0.0997335 0.0111074 -0.00526216)
(0.0942706 0.0133049 -0.00683885)
(0.0868068 0.0163718 -0.00871321)
(0.077241 0.0201958 -0.0108196)
(0.0640536 0.0249262 -0.0131183)
(0.0477133 0.0291075 -0.0149425)
(0.0260062 0.0307752 -0.014998)
(0.00388752 0.0172774 -0.00827056)
(0.100529 0.0035162 4.95666e-05)
(0.102712 0.00702807 -2.32391e-05)
(0.105553 0.00876475 -0.000278885)
(0.107557 0.00928218 -0.000675601)
(0.108613 0.00926898 -0.00120151)
(0.108561 0.00932508 -0.00186104)
(0.107452 0.0098566 -0.00267963)
(0.105312 0.011084 -0.00368664)
(0.101957 0.0131639 -0.00491474)
(0.097315 0.0162183 -0.00638463)
(0.0906882 0.0204738 -0.00812188)
(0.0820388 0.0260063 -0.010072)
(0.0694827 0.0332513 -0.0121845)
(0.0536246 0.0407458 -0.0138691)
(0.0306748 0.0463433 -0.0138795)
(0.00578289 0.0298432 -0.00762051)
(0.100364 0.00237004 6.99251e-05)
(0.102177 0.0049987 2.40056e-05)
(0.104764 0.00668248 -0.00020373)
(0.106894 0.00763811 -0.000571266)
(0.108347 0.00824884 -0.0010634)
(0.108874 0.00894062 -0.00168027)
(0.108459 0.010055 -0.00244176)
(0.107118 0.0118386 -0.00337201)
(0.104694 0.0145077 -0.00449652)
(0.101197 0.0182856 -0.00583251)
(0.0959718 0.0235117 -0.00739469)
(0.0891713 0.0304607 -0.00913943)
(0.0786088 0.0397973 -0.0110013)
(0.0653378 0.0502185 -0.0124917)
(0.0423132 0.0595272 -0.0124476)
(0.0153448 0.0399795 -0.0068719)
(0.100314 0.0014106 9.12235e-05)
(0.10201 0.00316402 7.4334e-05)
(0.104558 0.00463153 -0.000122668)
(0.106857 0.00581825 -0.000458107)
(0.108652 0.00689136 -0.000913611)
(0.109664 0.00810582 -0.00148448)
(0.109856 0.00971881 -0.0021844)
(0.109254 0.0119751 -0.00303164)
(0.107742 0.0151308 -0.00404386)
(0.105405 0.0195198 -0.00523378)
(0.101648 0.0256221 -0.00660449)
(0.0968148 0.0341323 -0.00812197)
(0.0885028 0.0462347 -0.00970749)
(0.0784921 0.0625622 -0.010986)
(0.0564485 0.0825939 -0.0109273)
(0.0314204 0.0795896 -0.00626782)
(0.0876171 0.0173044 2.29686e-06)
(0.071713 0.0117387 -3.21763e-05)
(0.055969 0.00731749 -0.000127907)
(0.0469576 0.00356766 -0.000270129)
(0.0411572 0.00163427 -0.000453985)
(0.0376384 0.000707745 -0.000681309)
(0.0349917 0.000340022 -0.00096107)
(0.0326292 0.000202502 -0.00129954)
(0.0300455 0.000157072 -0.00170699)
(0.0271032 0.000123881 -0.00217858)
(0.0234945 8.75944e-05 -0.0027266)
(0.0193464 -1.04801e-05 -0.00329843)
(0.0143451 -0.000109285 -0.00390964)
(0.0089031 -0.000399121 -0.00430535)
(0.00337934 -0.000609134 -0.00427339)
(-0.00121339 -0.00168785 -0.00249232)
(0.103856 0.0179471 -7.15004e-06)
(0.102899 0.0175003 -7.61247e-05)
(0.0987483 0.0140659 -0.00024187)
(0.0937609 0.00944293 -0.000488068)
(0.088809 0.00604652 -0.000810068)
(0.0844546 0.00392952 -0.00121157)
(0.0802956 0.00288171 -0.00170906)
(0.0760094 0.0025063 -0.00231904)
(0.0710899 0.00254067 -0.00306241)
(0.0652792 0.00279976 -0.00394311)
(0.0580619 0.00320985 -0.00497995)
(0.0494124 0.00363357 -0.00611247)
(0.0387237 0.00410306 -0.0073302)
(0.026493 0.00410787 -0.00823276)
(0.0128536 0.00355524 -0.00820314)
(0.0010606 2.97016e-05 -0.00464355)
(0.103853 0.0119105 -7.96098e-06)
(0.107536 0.0160132 -9.00422e-05)
(0.109242 0.0150572 -0.000276266)
(0.108295 0.0118207 -0.000547167)
(0.105919 0.00883498 -0.000900037)
(0.102753 0.00672109 -0.0013409)
(0.0989775 0.00562834 -0.00188949)
(0.0945694 0.00534821 -0.00256621)
(0.0892019 0.00568562 -0.0033952)
(0.0826492 0.00645942 -0.00438517)
(0.0743323 0.00759384 -0.00555607)
(0.0641422 0.00889677 -0.00685165)
(0.0512254 0.0103797 -0.0082489)
(0.0360636 0.0111846 -0.00931675)
(0.0183069 0.0106074 -0.00929529)
(0.00227215 0.0041177 -0.00520098)
(0.101994 0.00771842 -3.354e-06)
(0.105741 0.0125843 -8.4815e-05)
(0.109034 0.0132835 -0.000272109)
(0.110042 0.0117809 -0.00054238)
(0.109421 0.00988935 -0.000892891)
(0.107522 0.00842784 -0.00133046)
(0.104609 0.00775814 -0.00187545)
(0.10076 0.00788426 -0.00254891)
(0.0957507 0.0087469 -0.00337485)
(0.0894122 0.0102485 -0.00436356)
(0.0811345 0.012384 -0.00553388)
(0.0707952 0.0149799 -0.00683454)
(0.0572987 0.0180972 -0.00823685)
(0.0411209 0.0205521 -0.009318)
(0.0213846 0.0209385 -0.00928647)
(0.00275045 0.0110366 -0.00515207)
(0.100972 0.00512152 5.9834e-06)
(0.103819 0.00950922 -6.62102e-05)
(0.106982 0.0110327 -0.000244775)
(0.108663 0.0107979 -0.00050485)
(0.109027 0.00996693 -0.000842385)
(0.108112 0.00929954 -0.00126333)
(0.106085 0.00922734 -0.00178668)
(0.103008 0.00989675 -0.00243222)
(0.0986934 0.0113698 -0.00322183)
(0.0930273 0.0136478 -0.00416571)
(0.0853715 0.0168187 -0.00527969)
(0.075642 0.0207626 -0.00651833)
(0.062423 0.0256384 -0.00784828)
(0.0462246 0.0299387 -0.00887707)
(0.0250401 0.0316698 -0.00882498)
(0.00375369 0.0178525 -0.00486039)
(0.100521 0.00353235 1.7108e-05)
(0.102658 0.00706629 -4.12792e-05)
(0.105417 0.00882599 -0.000205927)
(0.107317 0.00936613 -0.000451225)
(0.108252 0.00937769 -0.000771282)
(0.108067 0.00946468 -0.00117017)
(0.106814 0.0100381 -0.00166439)
(0.104515 0.0113222 -0.00227151)
(0.100989 0.0134787 -0.00301024)
(0.0961637 0.0166315 -0.00388997)
(0.0893648 0.0210145 -0.00492218)
(0.0805735 0.0266946 -0.00606808)
(0.0679944 0.0341187 -0.00728899)
(0.0522826 0.0417587 -0.00823656)
(0.0298149 0.0474425 -0.00816311)