/*--------------------------------*- C++ -*----------------------------------*\
| =========                 |                                                 |
| \\      /  F ield         | OpenFOAM: The Open Source CFD Toolbox           |
|  \\    /   O peration     | Version:  v1912                                 |
|   \\  /    A nd           | Website:  www.openfoam.com                      |
|    \\/     M anipulation  |                                                 |
\*---------------------------------------------------------------------------*/
FoamFile
{
    version     2.0;
    format      ascii;
    class       volVectorField;
    location    "0.34/solid";
    object      D_0_0;
}
// * * * * * * * * * * * * * * * * * * * * * * * * * * * * * * * * * * * * * //

dimensions      [0 1 0 0 0 0 0];


internalField   nonuniform List<vector> 
256
(
(1.4156e-08 2.61217e-08 1.47971e-08)
(7.07793e-10 1.53884e-08 1.3733e-08)
(-6.35971e-11 1.52456e-08 1.38686e-08)
(-1.33744e-08 2.54502e-08 1.53054e-08)
(2.17223e-08 2.1197e-08 2.43638e-08)
(3.39138e-09 1.55114e-08 2.30634e-08)
(-1.11751e-09 1.50802e-08 2.34504e-08)
(-1.92792e-08 1.96698e-08 2.56514e-08)
(2.27146e-08 1.56706e-08 2.72422e-08)
(4.47271e-09 1.34791e-08 2.58829e-08)
(-2.36528e-10 1.27687e-08 2.64545e-08)
(-1.83268e-08 1.33619e-08 2.90747e-08)
(2.30082e-08 1.2388e-08 2.85205e-08)
(5.13893e-09 1.11976e-08 2.71639e-08)
(1.38204e-09 1.02339e-08 2.78673e-08)
(-1.63472e-08 9.36607e-09 3.07449e-08)
(2.39989e-08 1.04247e-08 2.95853e-08)
(6.11507e-09 9.12335e-09 2.83278e-08)
(3.00995e-09 7.92367e-09 2.91322e-08)
(-1.47361e-08 6.73664e-09 3.2112e-08)
(2.58108e-08 9.18649e-09 3.09525e-08)
(7.50878e-09 7.43775e-09 2.98426e-08)
(4.53864e-09 6.00669e-09 3.07318e-08)
(-1.36362e-08 4.85127e-09 3.37324e-08)
(2.86727e-08 6.62224e-09 3.31615e-08)
(9.35687e-09 4.78147e-09 3.21918e-08)
(5.92945e-09 3.12342e-09 3.31597e-08)
(-1.33236e-08 1.63969e-09 3.61692e-08)
(3.31538e-08 -1.61651e-08 3.68391e-08)
(1.14017e-08 -1.60497e-08 3.59931e-08)
(7.3832e-09 -1.78064e-08 3.70268e-08)
(-1.44413e-08 -2.15475e-08 4.00263e-08)
(1.1647e-08 1.36691e-08 4.09611e-10)
(3.32163e-10 4.43646e-09 7.64148e-10)
(2.07372e-11 4.27474e-09 9.27715e-10)
(-1.10614e-08 1.29957e-08 8.92244e-10)
(1.80905e-08 1.3222e-08 5.37001e-09)
(2.55605e-09 8.16058e-09 6.06038e-09)
(-9.98706e-10 7.67553e-09 6.45505e-09)
(-1.62455e-08 1.16278e-08 6.52096e-09)
(1.88256e-08 1.13886e-08 8.47059e-09)
(3.4554e-09 9.33458e-09 9.31895e-09)
(-2.64945e-10 8.57712e-09 9.8783e-09)
(-1.5364e-08 9.02413e-09 1.01037e-08)
(1.8982e-08 9.79471e-09 9.89323e-09)
(4.01792e-09 8.62289e-09 1.0842e-08)
(1.19634e-09 7.62685e-09 1.15228e-08)
(-1.35017e-08 6.74187e-09 1.18893e-08)
(1.99097e-08 8.47645e-09 1.07182e-08)
(4.91541e-09 7.16865e-09 1.17514e-08)
(2.6932e-09 5.94814e-09 1.25283e-08)
(-1.20284e-08 4.77646e-09 1.30033e-08)
(2.17707e-08 7.39368e-09 1.15988e-08)
(6.2651e-09 5.63322e-09 1.26953e-08)
(4.09383e-09 4.19109e-09 1.35526e-08)
(-1.11407e-08 3.06344e-09 1.41258e-08)
(2.47916e-08 5.1347e-09 1.28483e-08)
(8.10242e-09 3.28796e-09 1.39754e-08)
(5.35334e-09 1.63546e-09 1.48964e-08)
(-1.1126e-08 1.91293e-10 1.55687e-08)
(2.94694e-08 -1.51341e-08 1.40416e-08)
(1.01437e-08 -1.49216e-08 1.51788e-08)
(6.70135e-09 -1.66349e-08 1.61255e-08)
(-1.25659e-08 -2.03944e-08 1.68486e-08)
(1.00185e-08 1.02548e-08 6.79152e-11)
(1.24896e-11 1.97446e-09 4.41657e-10)
(1.66102e-10 1.82835e-09 5.61929e-10)
(-9.60119e-09 9.68711e-09 4.11121e-10)
(1.58521e-08 8.99527e-09 2.84565e-09)
(1.83795e-09 4.42599e-09 3.60353e-09)
(-7.79499e-10 3.96502e-09 3.90277e-09)
(-1.44819e-08 7.54136e-09 3.69844e-09)
(1.65388e-08 7.78597e-09 5.55796e-09)
(2.59096e-09 5.8803e-09 6.48473e-09)
(-1.82576e-10 5.15006e-09 6.91625e-09)
(-1.38265e-08 5.56093e-09 6.79813e-09)
(1.6634e-08 7.0108e-09 7.29927e-09)
(3.06592e-09 5.88406e-09 8.31998e-09)
(1.12731e-09 4.91761e-09 8.8546e-09)
(-1.21359e-08 4.09182e-09 8.84919e-09)
(1.74962e-08 6.2924e-09 8.40156e-09)
(3.88959e-09 5.00303e-09 9.48665e-09)
(2.49999e-09 3.81459e-09 1.01061e-08)
(-1.07893e-08 2.72177e-09 1.02086e-08)
(1.93733e-08 5.60634e-09 9.36407e-09)
(5.20021e-09 3.84793e-09 1.04842e-08)
(3.77732e-09 2.44202e-09 1.11739e-08)
(-1.00752e-08 1.40678e-09 1.13853e-08)
(2.25339e-08 3.71747e-09 1.04439e-08)
(7.04167e-09 1.88088e-09 1.15703e-08)
(4.9001e-09 2.72276e-10 1.23096e-08)
(-1.03304e-08 -1.08402e-09 1.26223e-08)
(2.73951e-08 -1.55323e-08 1.14407e-08)
(9.09144e-09 -1.5217e-08 1.25616e-08)
(6.12831e-09 -1.68774e-08 1.33107e-08)
(-1.20663e-08 -2.06368e-08 1.36666e-08)
(9.12664e-09 9.30273e-09 3.47863e-10)
(-1.3842e-10 1.55589e-09 5.71352e-10)
(2.22223e-10 1.42714e-09 6.57179e-10)
(-8.83736e-09 8.82859e-09 5.92564e-10)
(1.45695e-08 7.19468e-09 2.14647e-09)
(1.4504e-09 2.92104e-09 2.6328e-09)
(-7.10733e-10 2.50296e-09 2.85072e-09)
(-1.35519e-08 5.90749e-09 2.76618e-09)
(1.52713e-08 5.53504e-09 4.19104e-09)
(2.10922e-09 3.73915e-09 4.80323e-09)
(-2.42998e-10 3.06105e-09 5.1221e-09)
(-1.31251e-08 3.49568e-09 5.10649e-09)
(1.5362e-08 4.7522e-09 5.83801e-09)
(2.51993e-09 3.67384e-09 6.52003e-09)
(9.28885e-10 2.76085e-09 6.92106e-09)
(-1.16259e-08 2.01581e-09 7.00135e-09)
(1.61669e-08 4.23133e-09 7.0427e-09)
(3.27565e-09 2.97189e-09 7.7755e-09)
(2.19523e-09 1.83605e-09 8.24632e-09)
(-1.03925e-08 8.33976e-10 8.4192e-09)
(1.8011e-08 3.76612e-09 8.05241e-09)
(4.53636e-09 2.02381e-09 8.81709e-09)
(3.37655e-09 6.69847e-10 9.34557e-09)
(-9.78859e-09 -2.68823e-10 9.60702e-09)
(2.12305e-08 2.03403e-09 9.09564e-09)
(6.36474e-09 2.26012e-10 9.86857e-09)
(4.39106e-09 -1.3316e-09 1.04356e-08)
(-1.02214e-08 -2.61122e-09 1.07765e-08)
(2.62059e-08 -1.66684e-08 1.01996e-08)
(8.41247e-09 -1.62488e-08 1.09612e-08)
(5.51733e-09 -1.78624e-08 1.15329e-08)
(-1.21724e-08 -2.16325e-08 1.19129e-08)
(8.64959e-09 8.85466e-09 4.02086e-10)
(-2.0434e-10 1.40892e-09 5.22052e-10)
(2.34054e-10 1.29433e-09 5.82425e-10)
(-8.44646e-09 8.45043e-09 5.73628e-10)
(1.38288e-08 6.34016e-09 1.65886e-09)
(1.24783e-09 2.24423e-09 1.94152e-09)
(-7.10883e-10 1.86483e-09 2.09612e-09)
(-1.30526e-08 5.1912e-09 2.09687e-09)
(1.45235e-08 4.22369e-09 3.1047e-09)
(1.84001e-09 2.50474e-09 3.47522e-09)
(-3.40228e-10 1.87679e-09 3.70347e-09)
(-1.27755e-08 2.35012e-09 3.75812e-09)
(1.46139e-08 3.14938e-09 4.42374e-09)
(2.20008e-09 2.11402e-09 4.84569e-09)
(7.23711e-10 1.25399e-09 5.13564e-09)
(-1.14293e-08 5.83043e-10 5.2637e-09)
(1.53749e-08 2.53352e-09 5.50879e-09)
(2.89811e-09 1.30757e-09 5.97083e-09)
(1.90478e-09 2.2367e-10 6.31444e-09)
(-1.0292e-08 -7.00587e-10 6.51352e-09)
(1.71737e-08 2.07432e-09 6.45469e-09)
(4.1083e-09 3.58232e-10 6.94633e-09)
(3.01322e-09 -9.46391e-10 7.33451e-09)
(-9.76385e-09 -1.80872e-09 7.59854e-09)
(2.0402e-08 3.63528e-10 7.42514e-09)
(5.91119e-09 -1.40652e-09 7.92864e-09)
(3.94864e-09 -2.91895e-09 8.34617e-09)
(-1.03077e-08 -4.14461e-09 8.66712e-09)
(2.54288e-08 -1.79841e-08 8.50339e-09)
(7.94496e-09 -1.74754e-08 8.99635e-09)
(4.99947e-09 -1.90502e-08 9.4166e-09)
(-1.23973e-08 -2.28313e-08 9.76951e-09)
(8.38564e-09 8.57351e-09 3.29927e-10)
(-2.37008e-10 1.30121e-09 3.92326e-10)
(2.35183e-10 1.19694e-09 4.32506e-10)
(-8.23659e-09 8.21756e-09 4.43322e-10)
(1.33968e-08 5.84351e-09 1.18716e-09)
(1.13233e-09 1.85703e-09 1.34627e-09)
(-7.22185e-10 1.50649e-09 1.44952e-09)
(-1.27758e-08 4.79456e-09 1.47792e-09)
(1.40666e-08 3.43415e-09 2.15086e-09)
(1.67485e-09 1.76938e-09 2.36877e-09)
(-4.14054e-10 1.18028e-09 2.52202e-09)
(-1.25818e-08 1.68594e-09 2.5874e-09)
(1.4146e-08 2.07959e-09 3.08361e-09)
(1.9942e-09 1.07912e-09 3.33854e-09)
(5.75943e-10 2.61272e-10 3.5345e-09)
(-1.13354e-08 -3.53901e-10 3.64924e-09)
(1.48729e-08 1.27612e-09 3.91442e-09)
(2.64714e-09 8.00518e-11 4.1991e-09)
(1.69435e-09 -9.62098e-10 4.43279e-09)
(-1.02693e-08 -1.82845e-09 4.59632e-09)
(1.66328e-08 7.17173e-10 4.67767e-09)
(3.81567e-09 -9.72433e-10 4.9859e-09)
(2.74864e-09 -2.23781e-09 5.2512e-09)
(-9.79633e-09 -3.04568e-09 5.45893e-09)
(1.98527e-08 -1.03384e-09 5.47165e-09)
(5.5926e-09 -2.76797e-09 5.79126e-09)
(3.6274e-09 -4.24519e-09 6.07736e-09)
(-1.04125e-08 -5.43502e-09 6.32336e-09)
(2.49003e-08 -1.91696e-08 6.36353e-09)
(7.60917e-09 -1.85896e-08 6.67557e-09)
(4.62508e-09 -2.01344e-08 6.96334e-09)
(-1.25923e-08 -2.39264e-08 7.23242e-09)
(8.23955e-09 8.40269e-09 2.08323e-10)
(-2.54879e-10 1.22737e-09 2.38535e-10)
(2.35634e-10 1.12976e-09 2.61546e-10)
(-8.12182e-09 8.07679e-09 2.7288e-10)
(1.31516e-08 5.54145e-09 7.11849e-10)
(1.06555e-09 1.61949e-09 7.93634e-10)
(-7.29213e-10 1.28766e-09 8.52871e-10)
(-1.26221e-08 4.55628e-09 8.77776e-10)
(1.37971e-08 2.96239e-09 1.26727e-09)
(1.57467e-09 1.33302e-09 1.3832e-09)
(-4.57059e-10 7.69561e-10 1.4714e-09)
(-1.24708e-08 1.29614e-09 1.5174e-09)
(1.3862e-08 1.41844e-09 1.81868e-09)
(1.86502e-09 4.42704e-10 1.9574e-09)
(4.88266e-10 -3.46785e-10 2.07064e-09)
(-1.12811e-08 -9.26334e-10 2.14442e-09)
(1.45641e-08 4.55291e-10 2.33314e-09)
(2.48695e-09 -7.18998e-10 2.49039e-09)
(1.56622e-09 -1.7328e-09 2.626e-09)
(-1.02601e-08 -2.56162e-09 2.7279e-09)
(1.62971e-08 -2.11178e-10 2.82472e-09)
(3.62672e-09 -1.88081e-09 2.9969e-09)
(2.58417e-09 -3.11953e-09 3.15137e-09)
(-9.82408e-09 -3.89234e-09 3.27902e-09)
(1.95076e-08 -2.01489e-09 3.34357e-09)
(5.38441e-09 -3.72255e-09 3.52344e-09)
(3.4253e-09 -5.1759e-09 3.69036e-09)
(-1.04866e-08 -6.34338e-09 3.84032e-09)
(2.45648e-08 -2.00399e-08 3.92701e-09)
(7.3873e-09 -1.94098e-08 4.10227e-09)
(4.38829e-09 -2.09343e-08 4.27011e-09)
(-1.27237e-08 -2.47353e-08 4.4341e-09)
(8.17301e-09 8.32187e-09 7.06008e-11)
(-2.63209e-10 1.19051e-09 7.96832e-11)
(2.36251e-10 1.09614e-09 8.71752e-11)
(-8.06964e-09 8.01034e-09 9.15529e-11)
(1.30388e-08 5.39499e-09 2.36931e-10)
(1.03423e-09 1.50321e-09 2.62278e-10)
(-7.31765e-10 1.18052e-09 2.81582e-10)
(-1.25517e-08 4.44071e-09 2.90844e-10)
(1.36705e-08 2.73634e-09 4.18802e-10)
(1.52665e-09 1.12455e-09 4.55369e-10)
(-4.75947e-10 5.73739e-10 4.84158e-10)
(-1.24184e-08 1.11029e-09 5.00235e-10)
(1.37259e-08 1.09986e-09 6.01047e-10)
(1.80197e-09 1.36971e-10 6.45346e-10)
(4.48518e-10 -6.3841e-10 6.8238e-10)
(-1.12541e-08 -1.20087e-09 7.07366e-10)
(1.44148e-08 5.09645e-11 7.74667e-10)
(2.4081e-09 -1.11196e-09 8.25273e-10)
(1.50678e-09 -2.11156e-09 8.69712e-10)
(-1.02545e-08 -2.92204e-09 9.03851e-10)
(1.61342e-08 -6.78811e-10 9.43885e-10)
(3.53333e-09 -2.33798e-09 9.99581e-10)
(2.50646e-09 -3.56329e-09 1.05029e-09)
(-9.83709e-09 -4.31886e-09 1.0929e-09)
(1.93396e-08 -2.51629e-09 1.12397e-09)
(5.28111e-09 -4.21021e-09 1.18233e-09)
(3.32859e-09 -5.65154e-09 1.23719e-09)
(-1.05229e-08 -6.8081e-09 1.28716e-09)
(2.44011e-08 -2.04954e-08 1.32636e-09)
(7.27678e-09 -1.98397e-08 1.38315e-09)
(4.2742e-09 -2.13539e-08 1.4383e-09)
(-1.27887e-08 -2.51598e-08 1.49301e-09)
)
;

boundaryField
{
    interface
    {
        type            solidTraction;
        traction        uniform (0 0 0);
        pressure        uniform 0;
        secondOrder     false;
        setEffectiveTraction false;
        relaxationFactor 1;
        value           nonuniform List<vector> 
192
(
(7.17261e-08 3.50912e-08 1.41368e-08)
(7.60358e-08 2.33366e-08 2.33678e-08)
(7.80966e-08 1.59921e-08 2.61702e-08)
(7.99542e-08 1.27092e-08 2.74022e-08)
(8.30494e-08 1.11255e-08 2.84296e-08)
(8.79989e-08 1.03552e-08 2.97887e-08)
(9.50926e-08 8.45831e-09 3.20274e-08)
(1.04314e-07 -1.46887e-08 3.57499e-08)
(6.17605e-08 2.11035e-08 -6.25077e-10)
(6.59526e-08 1.50167e-08 3.90198e-09)
(6.7426e-08 1.16116e-08 6.92613e-09)
(6.89469e-08 1.00659e-08 8.29918e-09)
(7.1949e-08 9.17381e-09 9.09201e-09)
(7.71187e-08 8.61446e-09 9.98899e-09)
(8.4946e-08 7.05977e-09 1.13131e-08)
(9.58995e-08 -1.36082e-08 1.26016e-08)
(5.44515e-08 1.67224e-08 -5.62415e-10)
(5.9013e-08 1.06254e-08 1.96503e-09)
(6.04587e-08 7.98151e-09 4.66898e-09)
(6.18337e-08 7.25028e-09 6.39387e-09)
(6.46981e-08 6.97744e-09 7.46548e-09)
(6.98523e-08 6.8661e-09 8.42381e-09)
(7.79016e-08 5.72336e-09 9.55333e-09)
(8.96152e-08 -1.39623e-08 1.06245e-08)
(5.00642e-08 1.52267e-08 5.48961e-12)
(5.45086e-08 8.73085e-09 1.6404e-09)
(5.60179e-08 5.73323e-09 3.68694e-09)
(5.73736e-08 4.97626e-09 5.33273e-09)
(6.01486e-08 4.89382e-09 6.51214e-09)
(6.52318e-08 5.0324e-09 7.50226e-09)
(7.33222e-08 4.08322e-09 8.56249e-09)
(8.53418e-08 -1.50777e-08 9.70784e-09)
(4.75449e-08 1.44742e-08 2.16724e-10)
(5.18093e-08 7.80866e-09 1.3655e-09)
(5.33373e-08 4.42005e-09 2.80333e-09)
(5.4697e-08 3.36242e-09 4.11957e-09)
(5.74181e-08 3.1737e-09 5.18513e-09)
(6.24307e-08 3.33149e-09 6.10995e-09)
(7.04912e-08 2.42781e-09 7.08053e-09)
(8.26031e-08 -1.6391e-08 8.17686e-09)
(4.60693e-08 1.40191e-08 2.27346e-10)
(5.02017e-08 7.26377e-09 1.01775e-09)
(5.17164e-08 3.62156e-09 1.96915e-09)
(5.30705e-08 2.28136e-09 2.89551e-09)
(5.57541e-08 1.89806e-09 3.71161e-09)
(6.07098e-08 1.96251e-09 4.45841e-09)
(6.87233e-08 1.03357e-09 5.24795e-09)
(8.0855e-08 -1.75814e-08 6.14745e-09)
(4.52316e-08 1.37505e-08 1.55123e-10)
(4.92834e-08 6.93088e-09 6.22284e-10)
(5.07787e-08 3.14008e-09 1.16818e-09)
(5.21214e-08 1.61037e-09 1.71357e-09)
(5.47785e-08 1.06432e-09 2.21855e-09)
(5.9695e-08 1.0251e-09 2.70001e-09)
(6.76707e-08 5.25724e-11 3.21525e-09)
(7.98034e-08 -1.84568e-08 3.80216e-09)
(4.48485e-08 1.36248e-08 5.3953e-11)
(4.88622e-08 6.7694e-09 2.08705e-10)
(5.03455e-08 2.90821e-09 3.87122e-10)
(5.16802e-08 1.28612e-09 5.67002e-10)
(5.43231e-08 6.53298e-10 7.37317e-10)
(5.92197e-08 5.52804e-10 9.0314e-10)
(6.71755e-08 -4.49012e-10 1.08195e-09)
(7.93069e-08 -1.89152e-08 1.28543e-09)
(1.42211e-08 3.59121e-08 7.58181e-08)
(2.18965e-08 2.43084e-08 8.20676e-08)
(2.29123e-08 1.67098e-08 8.60258e-08)
(2.32297e-08 1.29738e-08 8.89153e-08)
(2.42639e-08 1.10327e-08 9.2129e-08)
(2.61168e-08 1.00806e-08 9.6679e-08)
(2.89988e-08 8.09395e-09 1.03251e-07)
(3.34884e-08 -1.5111e-08 1.11978e-07)
(4.76279e-10 2.45876e-08 7.01495e-08)
(3.16406e-09 1.8549e-08 7.6728e-08)
(4.2769e-09 1.45043e-08 8.01746e-08)
(4.97676e-09 1.18088e-08 8.28558e-08)
(6.00291e-09 9.79304e-09 8.61629e-08)
(7.45473e-09 8.40375e-09 9.10453e-08)
(9.35756e-09 6.31911e-09 9.83003e-08)
(1.14499e-08 -1.49707e-08 1.08526e-07)
(3.30141e-10 2.45754e-08 6.97542e-08)
(-4.69405e-10 1.82267e-08 7.65523e-08)
(5.62621e-10 1.3873e-08 8.01626e-08)
(2.27849e-09 1.09033e-08 8.2967e-08)
(3.95719e-09 8.63978e-09 8.63706e-08)
(5.51227e-09 7.01354e-09 9.1334e-08)
(6.92499e-09 4.6971e-09 9.86668e-08)
(8.39277e-09 -1.67127e-08 1.09011e-07)
(-1.32797e-08 3.56894e-08 7.48966e-08)
(-1.90491e-08 2.31121e-08 8.19022e-08)
(-1.7945e-08 1.46353e-08 8.6356e-08)
(-1.586e-08 1.01254e-08 8.9612e-08)
(-1.41919e-08 7.48349e-09 9.31134e-08)
(-1.30497e-08 5.8655e-09 9.79023e-08)
(-1.26845e-08 3.21307e-09 1.04689e-07)
(-1.37517e-08 -2.04541e-08 1.13723e-07)
(-6.9159e-08 3.36137e-08 1.47748e-08)
(-7.17569e-08 2.0908e-08 2.50086e-08)
(-7.18397e-08 1.26289e-08 2.85255e-08)
(-7.1398e-08 8.46832e-09 3.02777e-08)
(-7.18757e-08 6.05876e-09 3.17078e-08)
(-7.39227e-08 4.49791e-09 3.34024e-08)
(-7.79364e-08 1.84075e-09 3.59399e-08)
(-8.41052e-08 -2.18003e-08 3.99029e-08)
(-5.9155e-08 1.98224e-08 -5.10073e-11)
(-6.20694e-08 1.27035e-08 5.32178e-09)
(-6.1886e-08 8.33815e-09 8.9788e-09)
(-6.13449e-08 5.90787e-09 1.08366e-08)
(-6.1904e-08 4.18608e-09 1.20167e-08)
(-6.42957e-08 2.83762e-09 1.32357e-08)
(-6.91372e-08 5.47416e-10 1.48205e-08)
(-7.71814e-08 -2.05427e-08 1.6255e-08)
(-5.20491e-08 1.57079e-08 -1.44795e-10)
(-5.56174e-08 8.59769e-09 3.02522e-09)
(-5.5673e-08 4.97438e-09 6.23859e-09)
(-5.52118e-08 3.3324e-09 8.38044e-09)
(-5.58143e-08 2.20645e-09 9.79987e-09)
(-5.83294e-08 1.29185e-09 1.10475e-08)
(-6.34938e-08 -5.86392e-10 1.23964e-08)
(-7.23684e-08 -2.06864e-08 1.35684e-08)
(-4.78618e-08 1.44259e-08 3.03936e-10)
(-5.15266e-08 6.9794e-09 2.40898e-09)
(-5.18528e-08 3.01413e-09 4.84389e-09)
(-5.1563e-08 1.33257e-09 6.82484e-09)
(-5.22403e-08 3.7452e-10 8.29502e-09)
(-5.48179e-08 -3.11805e-10 9.52934e-09)
(-6.01235e-08 -2.0154e-09 1.0771e-08)
(-6.93689e-08 -2.16123e-08 1.19958e-08)
(-4.54841e-08 1.38252e-08 4.23492e-10)
(-4.91188e-08 6.27344e-09 1.90296e-09)
(-4.96165e-08 1.94424e-09 3.62242e-09)
(-4.94801e-08 -3.79577e-11 5.1912e-09)
(-5.02394e-08 -1.11708e-09 6.48283e-09)
(-5.28619e-08 -1.80496e-09 7.6006e-09)
(-5.82287e-08 -3.48637e-09 8.71504e-09)
(-6.76299e-08 -2.27666e-08 9.87462e-09)
(-4.40983e-08 1.34707e-08 3.62197e-10)
(-4.76994e-08 5.88083e-09 1.37037e-09)
(-4.82893e-08 1.32578e-09 2.51131e-09)
(-4.82557e-08 -9.32138e-10 3.61226e-09)
(-4.90802e-08 -2.21334e-09 4.58843e-09)
(-5.1736e-08 -3.01005e-09 5.47407e-09)
(-5.71297e-08 -4.73615e-09 6.36817e-09)
(-6.6605e-08 -2.38336e-08 7.31412e-09)
(-4.33132e-08 1.32628e-08 2.31166e-10)
(-4.68926e-08 5.64349e-09 8.21795e-10)
(-4.75289e-08 9.60812e-10 1.47663e-09)
(-4.75538e-08 -1.47912e-09 2.12414e-09)
(-4.84199e-08 -2.92599e-09 2.72426e-09)
(-5.10981e-08 -3.83588e-09 3.28927e-09)
(-5.65055e-08 -5.61857e-09 3.86796e-09)
(-6.60208e-08 -2.46248e-08 4.48327e-09)
(-4.29544e-08 1.31657e-08 7.85144e-11)
(-4.65233e-08 5.52789e-09 2.73246e-10)
(-4.7179e-08 7.85818e-10 4.87168e-10)
(-4.72298e-08 -1.74197e-09 7.00625e-10)
(-4.81158e-08 -3.2764e-09 9.02475e-10)
(-5.08051e-08 -4.25194e-09 1.09617e-09)
(-5.62189e-08 -6.0703e-09 1.29624e-09)
(-6.57532e-08 -2.50406e-08 1.50927e-09)
(3.38647e-08 -9.13164e-08 3.71083e-08)
(3.01807e-08 -8.52376e-08 1.38833e-08)
(2.81028e-08 -8.12862e-08 1.18242e-08)
(2.68979e-08 -7.92954e-08 1.08125e-08)
(2.60997e-08 -7.86288e-08 9.12866e-09)
(2.5551e-08 -7.85796e-08 6.87746e-09)
(2.52004e-08 -7.87242e-08 4.25845e-09)
(2.50289e-08 -7.88423e-08 1.44024e-09)
(1.18133e-08 -8.85953e-08 3.62506e-08)
(1.052e-08 -8.10499e-08 1.49706e-08)
(9.42885e-09 -7.6461e-08 1.28934e-08)
(8.7121e-09 -7.41815e-08 1.15258e-08)
(8.21261e-09 -7.33793e-08 9.58156e-09)
(7.85149e-09 -7.3249e-08 7.15919e-09)
(7.61204e-09 -7.33423e-08 4.41482e-09)
(7.49254e-09 -7.34351e-08 1.49063e-09)
(8.75894e-09 -8.98032e-08 3.72808e-08)
(8.07075e-09 -8.21609e-08 1.58933e-08)
(7.48444e-09 -7.75192e-08 1.36176e-08)
(6.86447e-09 -7.51962e-08 1.20761e-08)
(6.33966e-09 -7.43572e-08 9.98462e-09)
(5.96051e-09 -7.41983e-08 7.43439e-09)
(5.72088e-09 -7.42723e-08 4.57501e-09)
(5.60544e-09 -7.43553e-08 1.54322e-09)
(-1.33782e-08 -9.52499e-08 4.02848e-08)
(-1.15505e-08 -8.89222e-08 1.6621e-08)
(-1.11002e-08 -8.48274e-08 1.39762e-08)
(-1.12386e-08 -8.27097e-08 1.24616e-08)
(-1.14829e-08 -8.19352e-08 1.0343e-08)
(-1.16892e-08 -8.18029e-08 7.70846e-09)
(-1.18273e-08 -8.18911e-08 4.74247e-09)
(-1.18954e-08 -8.19807e-08 1.59915e-09)
)
;
        gradient        uniform (0 0 0);
    }
    symmetry
    {
        type            solidSymmetry;
        patchType       symmetry;
        secondOrder     false;
        value           nonuniform List<vector> 
32
(
(8.17301e-09 8.32187e-09 0)
(1.30388e-08 5.39499e-09 0)
(1.36705e-08 2.73634e-09 0)
(1.37259e-08 1.09986e-09 0)
(1.44148e-08 5.09645e-11 0)
(1.61342e-08 -6.78811e-10 0)
(1.93396e-08 -2.51629e-09 0)
(2.44011e-08 -2.04954e-08 0)
(-2.63209e-10 1.19051e-09 0)
(1.03423e-09 1.50321e-09 0)
(1.52665e-09 1.12455e-09 0)
(1.80197e-09 1.36971e-10 0)
(2.4081e-09 -1.11196e-09 0)
(3.53333e-09 -2.33798e-09 0)
(5.28111e-09 -4.21021e-09 0)
(7.27678e-09 -1.98397e-08 0)
(2.36251e-10 1.09614e-09 0)
(-7.31765e-10 1.18052e-09 0)
(-4.75947e-10 5.73739e-10 0)
(4.48518e-10 -6.3841e-10 0)
(1.50678e-09 -2.11156e-09 0)
(2.50646e-09 -3.56329e-09 0)
(3.32859e-09 -5.65154e-09 0)
(4.2742e-09 -2.13539e-08 0)
(-8.06964e-09 8.01034e-09 0)
(-1.25517e-08 4.44071e-09 0)
(-1.24184e-08 1.11029e-09 0)
(-1.12541e-08 -1.20087e-09 0)
(-1.02545e-08 -2.92204e-09 0)
(-9.83709e-09 -4.31886e-09 0)
(-1.05229e-08 -6.8081e-09 0)
(-1.27887e-08 -2.51598e-08 0)
)
;
    }
    bottom
    {
        type            fixedDisplacement;
        value           uniform (0 0 0);
    }
}


// ************************************************************************* //
