/*--------------------------------*- C++ -*----------------------------------*\
| =========                 |                                                 |
| \\      /  F ield         | OpenFOAM: The Open Source CFD Toolbox           |
|  \\    /   O peration     | Version:  v1912                                 |
|   \\  /    A nd           | Website:  www.openfoam.com                      |
|    \\/     M anipulation  |                                                 |
\*---------------------------------------------------------------------------*/
FoamFile
{
    version     2.0;
    format      ascii;
    class       volScalarField;
    location    "0.34/solid";
    object      epsilonEq;
}
// * * * * * * * * * * * * * * * * * * * * * * * * * * * * * * * * * * * * * //

dimensions      [0 0 0 0 0 0 0];


internalField   nonuniform List<scalar> 
256
(
2.42677e-06
1.86586e-06
1.84772e-06
2.35148e-06
1.60174e-06
1.49415e-06
1.47562e-06
1.53506e-06
1.64699e-06
1.47986e-06
1.46111e-06
1.58148e-06
1.73301e-06
1.51761e-06
1.49901e-06
1.66846e-06
1.81702e-06
1.58311e-06
1.56459e-06
1.75293e-06
1.89327e-06
1.66866e-06
1.65012e-06
1.82937e-06
1.71915e-06
1.65547e-06
1.63832e-06
1.66033e-06
1.37287e-07
1.8273e-06
1.8132e-06
1.47143e-07
1.64123e-06
3.50976e-07
3.43027e-07
1.55986e-06
1.32931e-06
3.27497e-07
3.18958e-07
1.25286e-06
1.33346e-06
2.65175e-07
2.57877e-07
1.2575e-06
1.36865e-06
2.1417e-07
2.07843e-07
1.2922e-06
1.42597e-06
1.96134e-07
1.90315e-07
1.34854e-06
1.50701e-06
1.90816e-07
1.8536e-07
1.4288e-06
1.4944e-06
1.95861e-08
2.69885e-08
1.41989e-06
1.71862e-06
1.6562e-06
1.63943e-06
1.66092e-06
1.45442e-06
2.00081e-07
1.9439e-07
1.37797e-06
1.28544e-06
2.36066e-07
2.26587e-07
1.21046e-06
1.29929e-06
2.05718e-07
1.96217e-07
1.22288e-06
1.33171e-06
1.65642e-07
1.56086e-07
1.25384e-06
1.38724e-06
1.48538e-07
1.38784e-07
1.30766e-06
1.4732e-06
1.49866e-07
1.40192e-07
1.39217e-06
1.50616e-06
1.84923e-07
1.80859e-07
1.42862e-06
1.89289e-06
1.67031e-06
1.6525e-06
1.83168e-06
1.3297e-06
1.73402e-07
1.68328e-07
1.25858e-06
1.19317e-06
2.06547e-07
1.98221e-07
1.12241e-06
1.21325e-06
1.85628e-07
1.76827e-07
1.14001e-06
1.24624e-06
1.52869e-07
1.43781e-07
1.17085e-06
1.30057e-06
1.37965e-07
1.2853e-07
1.22301e-06
1.38535e-06
1.4021e-07
1.3077e-07
1.30592e-06
1.42382e-06
1.79422e-07
1.75876e-07
1.34763e-06
1.82138e-06
1.58782e-06
1.57048e-06
1.76206e-06
1.25702e-06
1.58262e-07
1.52904e-07
1.18968e-06
1.12973e-06
1.8879e-07
1.81251e-07
1.0622e-06
1.15317e-06
1.72316e-07
1.64318e-07
1.0827e-06
1.18746e-06
1.43842e-07
1.35428e-07
1.11437e-06
1.24176e-06
1.30785e-07
1.21884e-07
1.16615e-06
1.32567e-06
1.33532e-07
1.24548e-07
1.2479e-06
1.36457e-06
1.69851e-07
1.6706e-07
1.28991e-06
1.75473e-06
1.52694e-06
1.51001e-06
1.69731e-06
1.21437e-06
1.49121e-07
1.43508e-07
1.14954e-06
1.09101e-06
1.78562e-07
1.7148e-07
1.02562e-06
1.11605e-06
1.64505e-07
1.57064e-07
1.04751e-06
1.15127e-06
1.38306e-07
1.30418e-07
1.07984e-06
1.20578e-06
1.26227e-07
1.17755e-07
1.13156e-06
1.28916e-06
1.29546e-07
1.20932e-07
1.21259e-06
1.32773e-06
1.64641e-07
1.62443e-07
1.25418e-06
1.71074e-06
1.48808e-06
1.47144e-06
1.65476e-06
1.19012e-06
1.43757e-07
1.38e-07
1.12682e-06
1.06883e-06
1.72756e-07
1.65941e-07
1.00476e-06
1.09458e-06
1.59905e-07
1.52795e-07
1.02724e-06
1.1303e-06
1.34875e-07
1.27328e-07
1.05992e-06
1.18493e-06
1.23172e-07
1.14992e-07
1.11162e-06
1.26797e-06
1.2683e-07
1.18464e-07
1.19217e-06
1.30622e-06
1.61916e-07
1.60116e-07
1.2334e-06
1.68474e-06
1.46513e-06
1.44869e-06
1.62971e-06
1.17902e-06
1.41232e-07
1.35412e-07
1.11644e-06
1.05868e-06
1.70057e-07
1.63371e-07
9.95238e-07
1.08468e-06
1.57701e-07
1.50747e-07
1.01793e-06
1.12061e-06
1.3317e-07
1.2579e-07
1.05076e-06
1.17528e-06
1.21585e-07
1.13555e-07
1.10242e-06
1.25816e-06
1.25377e-07
1.17136e-07
1.18273e-06
1.29624e-06
1.60725e-07
1.59126e-07
1.22378e-06
1.6727e-06
1.45449e-06
1.43813e-06
1.61815e-06
)
;

boundaryField
{
    interface
    {
        type            calculated;
        value           nonuniform List<scalar> 
192
(
3.27738e-06
2.38698e-06
2.45253e-06
2.56781e-06
2.6881e-06
2.81831e-06
2.73463e-06
1.4657e-06
2.77933e-06
2.37229e-06
2.39892e-06
2.47656e-06
2.58856e-06
2.74954e-06
2.84943e-06
2.73455e-06
2.48783e-06
2.23791e-06
2.27278e-06
2.34475e-06
2.45299e-06
2.61678e-06
2.7501e-06
2.81929e-06
2.28273e-06
2.07332e-06
2.11486e-06
2.18622e-06
2.29216e-06
2.45358e-06
2.59085e-06
2.69548e-06
2.1617e-06
1.96505e-06
2.01003e-06
2.08219e-06
2.18758e-06
2.34741e-06
2.48422e-06
2.59646e-06
2.09016e-06
1.89917e-06
1.94574e-06
2.01862e-06
2.12396e-06
2.28273e-06
2.4183e-06
2.53237e-06
2.04941e-06
1.86138e-06
1.90863e-06
1.98193e-06
2.08727e-06
2.24534e-06
2.37983e-06
2.49448e-06
2.03077e-06
1.84407e-06
1.89157e-06
1.96506e-06
2.07039e-06
2.2281e-06
2.36201e-06
2.47689e-06
3.39876e-06
2.52189e-06
2.5879e-06
2.70437e-06
2.82615e-06
2.95891e-06
2.88984e-06
1.72688e-06
3.14487e-06
2.66714e-06
2.67661e-06
2.75648e-06
2.87574e-06
3.04176e-06
3.14396e-06
2.98958e-06
3.1128e-06
2.63389e-06
2.64232e-06
2.72193e-06
2.84106e-06
3.00684e-06
3.10984e-06
2.96342e-06
3.30196e-06
2.43417e-06
2.49938e-06
2.61575e-06
2.73745e-06
2.86976e-06
2.80399e-06
1.68781e-06
3.16543e-06
2.27947e-06
2.34511e-06
2.46055e-06
2.58082e-06
2.71135e-06
2.63387e-06
1.4119e-06
2.64726e-06
2.24385e-06
2.26924e-06
2.34495e-06
2.45478e-06
2.61403e-06
2.71796e-06
2.63442e-06
2.36067e-06
2.11106e-06
2.14318e-06
2.21232e-06
2.31751e-06
2.47848e-06
2.61457e-06
2.71395e-06
2.1621e-06
1.95167e-06
1.98952e-06
2.05739e-06
2.15973e-06
2.31769e-06
2.45688e-06
2.59112e-06
2.04585e-06
1.84744e-06
1.88824e-06
1.95646e-06
2.05786e-06
2.2138e-06
2.35201e-06
2.49351e-06
1.97744e-06
1.78424e-06
1.82637e-06
1.89503e-06
1.99609e-06
2.15069e-06
2.28732e-06
2.43049e-06
1.93858e-06
1.74808e-06
1.79077e-06
1.85969e-06
1.96058e-06
2.11429e-06
2.24965e-06
2.39333e-06
1.92083e-06
1.73156e-06
1.77445e-06
1.84347e-06
1.94427e-06
2.09753e-06
2.23222e-06
2.37611e-06
1.72773e-06
2.89005e-06
2.95992e-06
2.83365e-06
2.73381e-06
2.6691e-06
2.63079e-06
2.61298e-06
2.99022e-06
3.14538e-06
3.04523e-06
2.88478e-06
2.77624e-06
2.70797e-06
2.66769e-06
2.64894e-06
2.964e-06
3.11142e-06
3.01067e-06
2.8507e-06
2.74251e-06
2.67448e-06
2.63435e-06
2.61567e-06
1.68828e-06
2.8048e-06
2.87266e-06
2.7485e-06
2.65044e-06
2.58707e-06
2.54965e-06
2.53229e-06
)
;
    }
    symmetry
    {
        type            symmetry;
    }
    bottom
    {
        type            calculated;
        value           nonuniform List<scalar> 
32
(
3.24808e-06
1.95984e-06
1.67097e-06
1.53085e-06
1.45287e-06
1.40667e-06
1.38019e-06
1.36804e-06
2.21393e-06
4.32143e-07
2.23237e-07
1.98437e-07
1.86976e-07
1.78959e-07
1.73867e-07
1.71414e-07
2.19555e-06
4.22029e-07
2.14395e-07
1.90235e-07
1.78647e-07
1.70522e-07
1.65387e-07
1.62922e-07
3.16595e-06
1.87339e-06
1.59089e-06
1.45757e-06
1.38441e-06
1.34137e-06
1.31681e-06
1.30556e-06
)
;
    }
}


// ************************************************************************* //
