/*--------------------------------*- C++ -*----------------------------------*\
| =========                 |                                                 |
| \\      /  F ield         | OpenFOAM: The Open Source CFD Toolbox           |
|  \\    /   O peration     | Version:  v1912                                 |
|   \\  /    A nd           | Website:  www.openfoam.com                      |
|    \\/     M anipulation  |                                                 |
\*---------------------------------------------------------------------------*/
FoamFile
{
    version     2.0;
    format      ascii;
    class       volSymmTensorField;
    location    "0.34/solid";
    object      epsilon;
}
// * * * * * * * * * * * * * * * * * * * * * * * * * * * * * * * * * * * * * //

dimensions      [0 0 0 0 0 0 0];


internalField   nonuniform List<symmTensor> 
256
(
(-2.58404e-06 8.00204e-08 -2.80593e-08 9.73254e-07 8.05278e-08 -2.73384e-06)
(-3.06438e-07 -6.66645e-08 -1.02672e-08 6.31284e-07 8.31147e-08 -2.50954e-06)
(-3.03064e-07 8.68569e-08 1.04919e-08 6.19547e-07 8.54854e-08 -2.4872e-06)
(-2.50462e-06 -6.92929e-08 2.91368e-08 9.28318e-07 8.928e-08 -2.67538e-06)
(-2.55697e-06 -1.35618e-08 -3.92931e-08 -2.28437e-07 -1.5075e-08 -2.6966e-06)
(-4.94377e-07 -2.43024e-08 -1.59215e-08 -5.14325e-08 -9.78804e-09 -2.48042e-06)
(-4.90176e-07 4.02273e-08 1.70202e-08 -6.26202e-08 -8.15578e-09 -2.45728e-06)
(-2.47466e-06 2.04789e-08 4.1172e-08 -2.60421e-07 -9.18112e-09 -2.63962e-06)
(-2.59873e-06 -1.65631e-08 -4.17101e-08 -2.01342e-07 -2.09239e-08 -2.7362e-06)
(-4.98257e-07 -1.27506e-08 -1.73012e-08 -1.07253e-07 -1.96898e-08 -2.49598e-06)
(-4.94415e-07 2.47819e-08 1.87621e-08 -1.17687e-07 -1.8585e-08 -2.47239e-06)
(-2.51533e-06 2.15595e-08 4.38034e-08 -2.30551e-07 -1.68395e-08 -2.67841e-06)
(-2.65376e-06 -6.48474e-09 -4.27804e-08 -1.30949e-07 -1.29245e-08 -2.79875e-06)
(-4.70019e-07 -6.26657e-09 -1.77562e-08 -1.13488e-07 -1.24147e-08 -2.54679e-06)
(-4.66406e-07 1.51267e-08 1.92345e-08 -1.23072e-07 -1.15842e-08 -2.52302e-06)
(-2.56942e-06 1.02028e-08 4.49136e-08 -1.57955e-07 -9.80485e-09 -2.74043e-06)
(-2.73846e-06 6.58214e-10 -4.28659e-08 -9.31623e-08 -5.11837e-09 -2.89051e-06)
(-4.5712e-07 -2.01041e-09 -1.77229e-08 -1.07179e-07 -4.25895e-09 -2.63718e-06)
(-4.53545e-07 8.2806e-09 1.91267e-08 -1.16348e-07 -3.54973e-09 -2.61331e-06)
(-2.65341e-06 1.97597e-09 4.50082e-08 -1.18915e-07 -2.5035e-09 -2.8318e-06)
(-2.87373e-06 7.46815e-09 -4.19921e-08 -1.15311e-07 4.25643e-09 -3.02844e-06)
(-4.6817e-07 1.16631e-09 -1.72511e-08 -1.26561e-07 5.32097e-09 -2.78261e-06)
(-4.64796e-07 2.69237e-09 1.86274e-08 -1.35568e-07 6.0132e-09 -2.75864e-06)
(-2.78911e-06 -6.11202e-09 4.41732e-08 -1.40731e-07 6.66426e-09 -2.96934e-06)
(-3.06778e-06 2.38491e-08 -4.03026e-08 -5.72709e-07 2.25086e-08 -3.22478e-06)
(-5.12973e-07 6.63276e-09 -1.64381e-08 -5.25209e-07 2.39146e-08 -3.00174e-06)
(-5.10841e-07 -5.78659e-09 1.79236e-08 -5.31487e-07 2.46669e-08 -2.97799e-06)
(-2.98789e-06 -2.44144e-08 4.25577e-08 -5.92955e-07 2.48715e-08 -3.16582e-06)
(-3.32811e-06 3.83447e-08 -3.79e-08 -3.49756e-06 4.09646e-08 -3.49721e-06)
(-5.95564e-07 1.6001e-08 -1.54031e-08 -3.3357e-06 4.29664e-08 -3.33476e-06)
(-5.95959e-07 -1.662e-08 1.70036e-08 -3.31496e-06 4.36657e-08 -3.31384e-06)
(-3.26202e-06 -3.99814e-08 4.00785e-08 -3.44547e-06 4.29136e-08 -3.44504e-06)
(-2.22666e-06 5.96271e-08 -2.01192e-08 5.39357e-07 -9.51055e-08 -3.11153e-07)
(-2.43082e-07 -6.53617e-08 -2.84902e-09 2.4416e-07 -5.56546e-08 -2.76909e-07)
(-2.37931e-07 7.57456e-08 4.67382e-09 2.31126e-07 -5.01535e-08 -2.77113e-07)
(-2.13691e-06 -5.25548e-08 2.14616e-08 4.93425e-07 -7.79099e-08 -3.14087e-07)
(-2.22353e-06 -1.50103e-08 -2.71265e-08 -6.38478e-08 -3.6787e-08 -4.57558e-07)
(-4.00492e-07 -2.51835e-08 -6.76468e-09 8.37373e-08 -1.83363e-08 -4.08206e-07)
(-3.9412e-07 3.26268e-08 1.00756e-08 7.19214e-08 -1.47103e-08 -4.09812e-07)
(-2.13193e-06 1.82444e-08 2.92793e-08 -9.71057e-08 -2.46878e-08 -4.65727e-07)
(-2.24954e-06 -1.71312e-08 -2.72506e-08 -9.07673e-08 -2.95916e-08 -4.63179e-07)
(-4.00887e-07 -1.45529e-08 -6.95646e-09 -1.01773e-08 -2.34504e-08 -4.08742e-07)
(-3.94866e-07 1.98013e-08 1.06254e-08 -2.02338e-08 -2.08137e-08 -4.11388e-07)
(-2.15661e-06 1.91851e-08 2.95681e-08 -1.19383e-07 -2.0419e-08 -4.74474e-07)
(-2.29511e-06 -7.2859e-09 -2.72536e-08 -8.26034e-08 -2.71032e-08 -4.54899e-07)
(-3.72916e-07 -8.08859e-09 -6.62935e-09 -6.83977e-08 -2.45884e-08 -3.9818e-07)
(-3.67001e-07 1.16985e-08 1.01647e-08 -7.74836e-08 -2.24682e-08 -4.01398e-07)
(-2.20046e-06 8.77934e-09 2.95552e-08 -1.08792e-07 -1.96625e-08 -4.67826e-07)
(-2.37807e-06 4.16155e-10 -2.71998e-08 -7.49564e-08 -1.862e-08 -4.56036e-07)
(-3.6107e-07 -3.46149e-09 -6.4338e-09 -8.96786e-08 -1.71506e-08 -3.99362e-07)
(-3.55011e-07 5.64331e-09 9.75838e-09 -9.84367e-08 -1.53044e-08 -4.029e-07)
(-2.28148e-06 5.13324e-10 2.94738e-08 -1.00025e-07 -1.22492e-08 -4.69862e-07)
(-2.52114e-06 8.19652e-09 -2.6481e-08 -9.91123e-08 -6.41305e-09 -4.68779e-07)
(-3.75049e-07 3.40992e-10 -6.0028e-09 -1.10408e-07 -5.65251e-09 -4.13592e-07)
(-3.69006e-07 3.5314e-10 9.21193e-09 -1.18903e-07 -3.99473e-09 -4.17419e-07)
(-2.42325e-06 -8.16973e-09 2.8771e-08 -1.23544e-07 -8.24624e-10 -4.83387e-07)
(-2.7409e-06 2.54941e-08 -2.48909e-08 -4.98178e-07 5.28573e-09 -5.02169e-07)
(-4.24986e-07 6.40453e-09 -5.29274e-09 -4.47819e-07 5.77473e-09 -4.49247e-07)
(-4.20106e-07 -7.6055e-09 8.32478e-09 -4.53047e-07 7.12415e-09 -4.53644e-07)
(-2.6459e-06 -2.70275e-08 2.71359e-08 -5.16154e-07 9.77255e-09 -5.18178e-07)
(-3.06844e-06 4.05671e-08 -2.29628e-08 -3.22451e-06 2.30664e-08 -5.73674e-07)
(-5.13465e-07 1.67902e-08 -4.97036e-09 -3.00248e-06 2.43105e-08 -5.24023e-07)
(-5.11414e-07 -1.76894e-08 6.92946e-09 -2.97895e-06 2.50246e-08 -5.295e-07)
(-2.98828e-06 -4.25123e-08 2.464e-08 -3.1658e-06 2.52592e-08 -5.92249e-07)
(-1.96919e-06 4.68987e-08 -9.72449e-09 3.76139e-07 -8.27479e-09 -4.6783e-09)
(-2.00217e-07 -6.75966e-08 1.36052e-10 1.12998e-07 2.2256e-08 -7.53097e-09)
(-1.94978e-07 7.26132e-08 1.77535e-09 1.00786e-07 2.67104e-08 -9.06074e-09)
(-1.881e-06 -4.20926e-08 1.0455e-08 3.35156e-07 5.46019e-09 -9.34751e-09)
(-2.00014e-06 -1.39107e-08 -1.1479e-08 -7.01731e-08 1.77681e-09 -7.43045e-08)
(-3.38172e-07 -2.5767e-08 -9.28325e-10 5.99566e-08 1.72663e-08 -7.89557e-08)
(-3.3137e-07 2.89032e-08 4.20775e-09 4.8361e-08 2.09935e-08 -8.24222e-08)
(-1.90889e-06 1.54499e-08 1.28469e-08 -1.02797e-07 1.36362e-08 -8.47102e-08)
(-2.0287e-06 -1.61164e-08 -9.97883e-09 -6.14891e-08 -6.98945e-09 -9.921e-08)
(-3.39187e-07 -1.50423e-08 -3.60149e-10 8.91371e-09 -1.18139e-09 -1.04672e-07)
(-3.32569e-07 1.6826e-08 3.77296e-09 -1.05254e-09 1.92239e-09 -1.09396e-07)
(-1.93565e-06 1.67907e-08 1.1458e-08 -9.02796e-08 3.08149e-09 -1.13293e-07)
(-2.07144e-06 -7.39681e-09 -9.28191e-09 -5.18698e-08 -1.48313e-08 -9.71961e-08)
(-3.13068e-07 -8.87777e-09 1.58889e-10 -4.07457e-08 -1.23005e-08 -1.03262e-07)
(-3.06438e-07 9.81059e-09 2.98741e-09 -4.975e-08 -9.63025e-09 -1.08768e-07)
(-1.97627e-06 7.83002e-09 1.06895e-08 -7.82922e-08 -6.13535e-09 -1.13561e-07)
(-2.15183e-06 3.40884e-10 -9.21298e-09 -5.02743e-08 -1.36994e-08 -9.27053e-08)
(-3.0241e-07 -4.10559e-09 2.52217e-10 -6.59384e-08 -1.23306e-08 -9.93374e-08)
(-2.9552e-07 4.33284e-09 2.60783e-09 -7.45745e-08 -9.97201e-09 -1.05364e-07)
(-2.05414e-06 -1.71871e-10 1.0537e-08 -7.54275e-08 -6.09303e-09 -1.10575e-07)
(-2.29514e-06 8.92082e-09 -8.95515e-09 -7.55964e-08 -6.8026e-09 -9.55021e-08)
(-3.18997e-07 2.75755e-10 3.67237e-10 -8.71008e-08 -6.26801e-09 -1.02631e-07)
(-3.1202e-07 -8.45141e-10 2.26511e-09 -9.53692e-08 -4.22688e-09 -1.09107e-07)
(-2.19528e-06 -9.37898e-09 1.02204e-08 -9.97962e-08 -2.66467e-10 -1.14631e-07)
(-2.52167e-06 2.70033e-08 -7.98151e-09 -4.59496e-07 -2.08903e-09 -1.07691e-07)
(-3.7407e-07 6.90485e-09 7.25972e-10 -4.0753e-07 -1.75766e-09 -1.15211e-07)
(-3.68201e-07 -8.68622e-09 1.44245e-09 -4.12433e-07 -2.49423e-10 -1.2218e-07)
(-2.42344e-06 -2.87662e-08 9.08366e-09 -4.76968e-07 2.82548e-09 -1.28136e-07)
(-2.87514e-06 4.21706e-08 -6.74824e-09 -3.02756e-06 6.64756e-09 -1.16074e-07)
(-4.67946e-07 1.74792e-08 7.67065e-10 -2.78342e-06 7.38265e-09 -1.23961e-07)
(-4.64918e-07 -1.84487e-08 -1.60659e-10 -2.75974e-06 7.96554e-09 -1.31339e-07)
(-2.79009e-06 -4.41742e-08 7.17175e-09 -2.96907e-06 8.56367e-09 -1.37572e-07)
(-1.81305e-06 4.04028e-08 -4.59452e-09 3.1747e-07 1.74016e-08 5.89604e-09)
(-1.78589e-07 -6.79458e-08 1.22521e-09 7.25834e-08 3.53379e-08 -6.81515e-10)
(-1.74015e-07 6.99888e-08 5.52854e-10 6.15653e-08 3.8631e-08 -1.85984e-09)
(-1.72852e-06 -3.72151e-08 5.09932e-09 2.81633e-07 2.75044e-08 2.52289e-09)
(-1.8515e-06 -1.29699e-08 -5.23252e-09 -9.76577e-08 1.96506e-08 -2.88043e-08)
(-3.06023e-07 -2.57639e-08 1.51731e-09 2.3281e-08 2.94052e-08 -4.10436e-08)
(-2.999e-07 2.65744e-08 1.57088e-09 1.23724e-08 3.2499e-08 -4.38825e-08)
(-1.7635e-06 1.35768e-08 6.25534e-09 -1.28468e-07 2.92467e-08 -3.69417e-08)
(-1.88416e-06 -1.48669e-08 -3.86902e-09 -7.06e-08 9.3847e-09 -5.8568e-08)
(-3.09406e-07 -1.49232e-08 2.21814e-09 -5.8582e-09 1.3482e-08 -7.28048e-08)
(-3.03273e-07 1.48761e-08 9.6295e-10 -1.56201e-08 1.62912e-08 -7.67958e-08)
(-1.79391e-06 1.48473e-08 4.98651e-09 -9.90894e-08 1.81914e-08 -7.00839e-08)
(-1.92768e-06 -7.11141e-09 -3.09953e-09 -4.6012e-08 -1.88171e-09 -7.09841e-08)
(-2.86162e-07 -9.09833e-09 2.65615e-09 -3.67964e-08 1.56099e-10 -8.61592e-08)
(-2.79893e-07 8.66241e-09 2.28639e-10 -4.57972e-08 2.69943e-09 -9.09671e-08)
(-1.83497e-06 7.01801e-09 4.13278e-09 -7.26935e-08 6.12228e-09 -8.49294e-08)
(-2.00728e-06 2.60048e-10 -3.01229e-09 -3.79339e-08 -7.07713e-09 -7.55462e-08)
(-2.76776e-07 -4.43118e-09 2.65554e-09 -5.42911e-08 -5.76569e-09 -9.12209e-08)
(-2.70173e-07 3.739e-09 -9.89234e-11 -6.29615e-08 -3.48376e-09 -9.66446e-08)
(-1.91172e-06 -4.42724e-10 3.93286e-09 -6.34536e-08 7.58531e-11 -9.13148e-08)
(-2.14979e-06 9.198e-09 -3.03834e-09 -6.29895e-08 -6.93808e-09 -8.08634e-08)
(-2.94767e-07 2.70744e-10 2.54833e-09 -7.4631e-08 -6.20503e-09 -9.66505e-08)
(-2.88019e-07 -1.33553e-09 -3.14611e-10 -8.29335e-08 -4.26522e-09 -1.02581e-07)
(-2.05159e-06 -9.8324e-09 3.84679e-09 -8.75307e-08 -8.44974e-10 -9.81088e-08)
(-2.37747e-06 2.791e-08 -2.67009e-09 -4.40816e-07 -6.43547e-09 -8.78135e-08)
(-3.52949e-07 7.3613e-09 2.55928e-09 -3.87819e-07 -5.89109e-09 -1.03487e-07)
(-3.47251e-07 -9.32239e-09 -9.25934e-10 -3.92823e-07 -4.52471e-09 -1.09815e-07)
(-2.28007e-06 -2.97148e-08 3.25702e-09 -4.58754e-07 -2.00835e-09 -1.06216e-07)
(-2.74012e-06 4.31939e-08 -2.09916e-09 -2.89083e-06 1.04273e-09 -8.75473e-08)
(-4.50497e-07 1.79618e-08 2.32487e-09 -2.63936e-06 1.62153e-09 -1.03288e-07)
(-4.47569e-07 -1.90327e-08 -2.23574e-09 -2.6159e-06 2.08689e-09 -1.09752e-07)
(-2.65439e-06 -4.52405e-08 2.03389e-09 -2.83319e-06 2.62364e-09 -1.064e-07)
(-1.72256e-06 3.71927e-08 -2.33586e-09 2.90428e-07 1.90431e-08 -1.29801e-09)
(-1.68237e-07 -6.73949e-08 1.118e-09 5.58073e-08 2.89359e-08 -5.55112e-09)
(-1.643e-07 6.77366e-08 3.14399e-10 4.58306e-08 3.12876e-08 -6.44727e-09)
(-1.64094e-06 -3.50719e-08 2.73732e-09 2.58695e-07 2.61965e-08 -3.87564e-09)
(-1.76173e-06 -1.24875e-08 -2.71384e-09 -1.15062e-07 2.04048e-08 -2.39147e-08)
(-2.90117e-07 -2.55557e-08 1.66847e-09 1.04485e-09 2.62164e-08 -3.2365e-08)
(-2.84765e-07 2.50351e-08 9.03269e-10 -9.15443e-09 2.85304e-08 -3.4615e-08)
(-1.67657e-06 1.25387e-08 3.54628e-09 -1.43988e-07 2.74858e-08 -3.03701e-08)
(-1.79672e-06 -1.40387e-08 -1.90999e-09 -8.51047e-08 1.40559e-08 -5.00402e-08)
(-2.95291e-07 -1.47479e-08 2.18477e-09 -2.33888e-08 1.67896e-08 -6.00993e-08)
(-2.89793e-07 1.36611e-08 5.13855e-10 -3.28697e-08 1.89962e-08 -6.33497e-08)
(-1.70902e-06 1.36346e-08 2.83437e-09 -1.12972e-07 2.0872e-08 -5.94401e-08)
(-1.84161e-06 -6.80989e-09 -1.37883e-09 -5.22431e-08 4.81065e-09 -6.88529e-08)
(-2.74458e-07 -9.1562e-09 2.45213e-09 -4.40354e-08 6.37168e-09 -7.9613e-08)
(-2.68718e-07 7.95644e-09 3.73765e-12 -5.30026e-08 8.44254e-09 -8.36399e-08)
(-1.75119e-06 6.43008e-09 2.234e-09 -7.89804e-08 1.12431e-08 -8.05893e-08)
(-1.92134e-06 2.16788e-10 -1.3015e-09 -3.73884e-08 -2.10354e-09 -8.07632e-08)
(-2.66209e-07 -4.62406e-09 2.40094e-09 -5.40837e-08 -9.18592e-10 -9.19269e-08)
(-2.60074e-07 3.43624e-09 -2.5709e-10 -6.28274e-08 9.6847e-10 -9.65854e-08)
(-1.82784e-06 -5.85846e-10 2.0457e-09 -6.32709e-08 3.75977e-09 -9.44068e-08)
(-2.06321e-06 9.26684e-09 -1.39208e-09 -6.01439e-08 -5.36091e-09 -8.97718e-08)
(-2.84922e-07 2.33249e-10 2.22759e-09 -7.178e-08 -4.49883e-09 -1.01077e-07)
(-2.786e-07 -1.55643e-09 -4.28392e-10 -8.02165e-08 -2.90247e-09 -1.06248e-07)
(-1.96677e-06 -9.9889e-09 2.00955e-09 -8.52026e-08 -3.61082e-10 -1.04964e-07)
(-2.29019e-06 2.83923e-08 -1.31534e-09 -4.31551e-07 -6.51173e-09 -9.74722e-08)
(-3.44681e-07 7.65356e-09 2.08058e-09 -3.77876e-07 -5.81507e-09 -1.08703e-07)
(-3.39357e-07 -9.72905e-09 -8.68032e-10 -3.83086e-07 -4.71181e-09 -1.14223e-07)
(-2.19404e-06 -3.02227e-08 1.7102e-09 -4.5017e-07 -2.92152e-09 -1.13757e-07)
(-2.65506e-06 4.37921e-08 -1.14801e-09 -2.80382e-06 -4.32787e-10 -1.01601e-07)
(-4.4429e-07 1.82666e-08 1.70559e-09 -2.55069e-06 8.00189e-11 -1.12818e-07)
(-4.41685e-07 -1.94492e-08 -1.8039e-09 -2.52744e-06 4.44449e-10 -1.18394e-07)
(-2.56958e-06 -4.58952e-08 9.84238e-10 -2.74693e-06 8.21142e-10 -1.18178e-07)
(-1.66928e-06 3.55177e-08 -1.30279e-09 2.74848e-07 1.5066e-08 -5.21257e-09)
(-1.62941e-07 -6.68578e-08 7.09583e-10 4.61157e-08 2.04334e-08 -7.51393e-09)
(-1.59452e-07 6.62165e-08 3.155e-10 3.69109e-08 2.20092e-08 -8.24716e-09)
(-1.58957e-06 -3.40556e-08 1.60175e-09 2.46038e-07 1.981e-08 -7.31286e-09)
(-1.70824e-06 -1.22663e-08 -1.54944e-09 -1.24741e-07 1.54646e-08 -2.40731e-08)
(-2.81819e-07 -2.54007e-08 1.1198e-09 -1.12029e-08 1.88648e-08 -2.90027e-08)
(-2.77031e-07 2.41068e-08 7.72536e-10 -2.0841e-08 2.04439e-08 -3.08744e-08)
(-1.625e-06 1.19884e-08 2.17808e-09 -1.52154e-07 2.02535e-08 -2.94156e-08)
(-1.74431e-06 -1.36029e-08 -1.14201e-09 -9.58908e-08 1.20571e-08 -4.62694e-08)
(-2.87929e-07 -1.46637e-08 1.42676e-09 -3.58023e-08 1.38427e-08 -5.23771e-08)
(-2.82911e-07 1.29632e-08 6.03468e-10 -4.50215e-08 1.53884e-08 -5.51263e-08)
(-1.65835e-06 1.29749e-08 1.85233e-09 -1.23114e-07 1.67986e-08 -5.41896e-08)
(-1.79018e-06 -6.62613e-09 -8.52471e-10 -6.062e-08 6.05775e-09 -6.60891e-08)
(-2.68584e-07 -9.20279e-09 1.5572e-09 -5.29373e-08 7.1968e-09 -7.27564e-08)
(-2.63248e-07 7.54155e-09 3.11455e-10 -6.1848e-08 8.68142e-09 -7.62267e-08)
(-1.70132e-06 6.07686e-09 1.51742e-09 -8.72781e-08 1.06479e-08 -7.61896e-08)
(-1.87017e-06 1.92045e-10 -8.09964e-10 -4.20228e-08 4.01141e-10 -8.16322e-08)
(-2.61129e-07 -4.75435e-09 1.49283e-09 -5.88591e-08 1.34264e-09 -8.86839e-08)
(-2.55351e-07 3.25371e-09 1.30852e-10 -6.76616e-08 2.71336e-09 -9.27697e-08)
(-1.77807e-06 -6.76433e-10 1.38697e-09 -6.81578e-08 4.65387e-09 -9.36153e-08)
(-2.01152e-06 9.28072e-09 -8.86429e-10 -6.20993e-08 -3.18868e-09 -9.40049e-08)
(-2.80254e-07 1.91901e-10 1.34261e-09 -7.36466e-08 -2.42229e-09 -1.01308e-07)
(-2.74253e-07 -1.69891e-09 -1.07565e-11 -8.22126e-08 -1.26014e-09 -1.05899e-07)
(-1.91629e-06 -1.00652e-08 1.35444e-09 -8.76049e-08 4.5983e-10 -1.07551e-07)
(-2.23736e-06 2.86816e-08 -8.93585e-10 -4.27461e-07 -4.59234e-09 -1.04771e-07)
(-3.40831e-07 7.84349e-09 1.18659e-09 -3.73234e-07 -3.94485e-09 -1.12151e-07)
(-3.35791e-07 -1.00248e-08 -3.28376e-10 -3.78626e-07 -3.14492e-09 -1.17073e-07)
(-2.14208e-06 -3.05433e-08 1.17917e-09 -4.46665e-07 -1.97282e-09 -1.19409e-07)
(-2.60244e-06 4.41932e-08 -8.72639e-10 -2.74972e-06 -5.8072e-10 -1.14277e-07)
(-4.41597e-07 1.84817e-08 8.33391e-10 -2.49623e-06 -1.44681e-10 -1.21623e-07)
(-4.39252e-07 -1.97642e-08 -9.58979e-10 -2.47314e-06 1.18722e-10 -1.26579e-07)
(-2.5172e-06 -4.63532e-08 7.35072e-10 -2.69343e-06 3.3173e-10 -1.2918e-07)
(-1.63901e-06 3.46002e-08 -6.98747e-10 2.6563e-07 9.45147e-09 -6.7963e-09)
(-1.60086e-07 -6.6543e-08 3.63148e-10 4.01915e-08 1.21489e-08 -8.09593e-09)
(-1.56872e-07 6.5364e-08 2.48965e-10 3.14863e-08 1.30544e-08 -8.73773e-09)
(-1.56044e-06 -3.35137e-08 8.82397e-10 2.38669e-07 1.2155e-08 -8.61209e-09)
(-1.67775e-06 -1.21761e-08 -8.472e-10 -1.30209e-07 9.34577e-09 -2.449e-08)
(-2.77298e-07 -2.53289e-08 5.87361e-10 -1.80046e-08 1.11528e-08 -2.75409e-08)
(-2.7286e-07 2.36084e-08 5.63132e-10 -2.72693e-08 1.20675e-08 -2.91895e-08)
(-1.59568e-06 1.17158e-08 1.23742e-09 -1.56603e-07 1.21024e-08 -2.91435e-08)
(-1.7143e-06 -1.33988e-08 -6.60699e-10 -1.02489e-07 7.61913e-09 -4.43707e-08)
(-2.83809e-07 -1.46435e-08 7.43467e-10 -4.32497e-08 8.65007e-09 -4.83741e-08)
(-2.79095e-07 1.25949e-08 5.11424e-10 -5.22794e-08 9.55754e-09 -5.08188e-08)
(-1.62941e-06 1.26449e-08 1.10762e-09 -1.29224e-07 1.03921e-08 -5.1349e-08)
(-1.7607e-06 -6.54183e-09 -5.27695e-10 -6.70242e-08 4.38485e-09 -6.36073e-08)
(-2.65225e-07 -9.25073e-09 7.9689e-10 -5.96143e-08 5.09131e-09 -6.8149e-08)
(-2.60145e-07 7.31556e-09 3.70799e-10 -6.84723e-08 5.97482e-09 -7.12711e-08)
(-1.6728e-06 5.89307e-09 9.50777e-10 -9.35718e-08 7.11171e-09 -7.26337e-08)
(-1.84085e-06 1.723e-10 -5.13017e-10 -4.68968e-08 9.62095e-10 -8.05071e-08)
(-2.58216e-07 -4.8413e-09 7.47423e-10 -6.37963e-08 1.56553e-09 -8.54621e-08)
(-2.52662e-07 3.14109e-09 2.68308e-10 -7.26327e-08 2.38886e-09 -8.91804e-08)
(-1.74961e-06 -7.29631e-10 8.81362e-10 -7.31723e-08 3.51763e-09 -9.13692e-08)
(-1.98182e-06 9.28765e-09 -5.59395e-10 -6.50513e-08 -1.47432e-09 -9.5166e-08)
(-2.77579e-07 1.64613e-10 6.5253e-10 -7.65059e-08 -9.64506e-10 -1.00453e-07)
(-2.71778e-07 -1.80369e-09 1.72688e-10 -8.51607e-08 -2.63573e-10 -1.04669e-07)
(-1.88733e-06 -1.01178e-08 8.5617e-10 -9.08541e-08 7.32202e-10 -1.0759e-07)
(-2.20672e-06 2.88711e-08 -5.72905e-10 -4.26052e-07 -2.48774e-09 -1.08759e-07)
(-3.3862e-07 7.96973e-09 5.4962e-10 -3.71399e-07 -2.0499e-09 -1.14224e-07)
(-3.33755e-07 -1.02366e-08 -2.76135e-11 -3.76915e-07 -1.56689e-09 -1.18767e-07)
(-2.11198e-06 -3.07615e-08 7.52066e-10 -4.45656e-07 -8.9857e-10 -1.22286e-07)
(-2.57159e-06 4.44717e-08 -5.81758e-10 -2.71819e-06 -3.63257e-10 -1.22152e-07)
(-4.40067e-07 1.86337e-08 3.12061e-10 -2.46456e-06 -7.07489e-11 -1.27577e-07)
(-4.37884e-07 -1.99899e-08 -3.97215e-10 -2.44158e-06 8.851e-11 -1.32146e-07)
(-2.48653e-06 -4.66761e-08 4.9841e-10 -2.66231e-06 1.90946e-10 -1.35944e-07)
(-1.62518e-06 3.41756e-08 -2.2372e-10 2.61267e-07 3.20742e-09 -7.31766e-09)
(-1.58782e-07 -6.64115e-08 1.09533e-10 3.73265e-08 4.0349e-09 -8.23879e-09)
(-1.557e-07 6.49961e-08 9.37721e-11 2.88653e-08 4.33017e-09 -8.83798e-09)
(-1.54714e-06 -3.32594e-08 2.85389e-10 2.35199e-07 4.0851e-09 -8.99803e-09)
(-1.66381e-06 -1.21475e-08 -2.74505e-10 -1.32785e-07 3.11097e-09 -2.46372e-08)
(-2.75217e-07 -2.53054e-08 1.78963e-10 -2.11547e-08 3.68124e-09 -2.69606e-08)
(-2.70948e-07 2.3396e-08 2.06499e-10 -3.02347e-08 3.9805e-09 -2.85037e-08)
(-1.58229e-06 1.16062e-08 4.06351e-10 -1.58671e-07 4.00988e-09 -2.89584e-08)
(-1.70054e-06 -1.33193e-08 -2.20612e-10 -1.05609e-07 2.56889e-09 -4.35379e-08)
(-2.81866e-07 -1.4644e-08 2.26616e-10 -4.67364e-08 2.90825e-09 -4.67293e-08)
(-2.77298e-07 1.24374e-08 1.97404e-10 -5.56686e-08 3.20687e-09 -4.90282e-08)
(-1.61615e-06 1.25087e-08 3.72722e-10 -1.32086e-07 3.4797e-09 -5.0056e-08)
(-1.74716e-06 -6.51224e-09 -1.82803e-10 -7.03235e-08 1.55489e-09 -6.22693e-08)
(-2.63587e-07 -9.2808e-09 2.40654e-10 -6.30327e-08 1.79543e-09 -6.6011e-08)
(-2.58632e-07 7.21639e-09 1.5638e-10 -7.18603e-08 2.08799e-09 -6.89642e-08)
(-1.65972e-06 5.81675e-09 3.27703e-10 -9.67995e-08 2.45727e-09 -7.07632e-08)
(-1.82737e-06 1.60117e-10 -1.80147e-10 -4.97106e-08 4.33075e-10 -7.95628e-08)
(-2.56766e-07 -4.88573e-09 2.22469e-10 -6.66378e-08 6.40605e-10 -8.37458e-08)
(-2.51321e-07 3.08615e-09 1.2355e-10 -7.54884e-08 9.14547e-10 -8.7284e-08)
(-1.73654e-06 -7.53677e-10 3.06655e-10 -7.6045e-08 1.28376e-09 -8.98621e-08)
(-1.96814e-06 9.29287e-09 -1.95455e-10 -6.69357e-08 -4.01984e-10 -9.53186e-08)
(-2.76242e-07 1.52394e-10 1.90524e-10 -7.83371e-08 -2.25146e-10 -9.9871e-08)
(-2.70536e-07 -1.86178e-09 8.98037e-11 -8.70353e-08 8.71787e-12 -1.03903e-07)
(-1.87399e-06 -1.01476e-08 2.97241e-10 -9.2882e-08 3.35335e-10 -1.07176e-07)
(-2.19254e-06 2.89705e-08 -2.00064e-10 -4.25728e-07 -7.62374e-10 -1.10457e-07)
(-3.37509e-07 8.03561e-09 1.55712e-10 -3.70842e-07 -6.09995e-10 -1.1523e-07)
(-3.32727e-07 -1.035e-08 2.06708e-11 -3.7642e-07 -4.48614e-10 -1.19587e-07)
(-2.09805e-06 -3.08776e-08 2.61442e-10 -4.45532e-07 -2.30138e-10 -1.23425e-07)
(-2.55725e-06 4.46195e-08 -2.0479e-10 -2.70365e-06 -1.14526e-10 -1.25798e-07)
(-4.3929e-07 1.87142e-08 7.32421e-11 -2.44995e-06 -1.23701e-11 -1.30521e-07)
(-4.37186e-07 -2.01095e-08 -1.01865e-10 -2.42702e-06 4.08788e-11 -1.34901e-07)
(-2.47227e-06 -4.68478e-08 1.77366e-10 -2.64798e-06 7.12254e-11 -1.39034e-07)
)
;

boundaryField
{
    interface
    {
        type            calculated;
        value           nonuniform List<symmTensor> 
192
(
(-4.60069e-06 2.00122e-12 2.27875e-11 9.73254e-07 8.05278e-08 -2.73384e-06)
(-4.33484e-06 7.107e-13 3.46284e-11 -2.28437e-07 -1.5075e-08 -2.6966e-06)
(-4.42057e-06 -1.56536e-12 3.71188e-11 -2.01342e-07 -2.09239e-08 -2.7362e-06)
(-4.54663e-06 -4.13232e-12 3.71516e-11 -1.30949e-07 -1.29245e-08 -2.79875e-06)
(-4.71508e-06 -6.32716e-12 3.60927e-11 -9.31623e-08 -5.11837e-09 -2.89051e-06)
(-4.96402e-06 -1.05398e-11 3.46421e-11 -1.15311e-07 4.25643e-09 -3.02844e-06)
(-5.29717e-06 -1.35251e-11 3.1417e-11 -5.72709e-07 2.25086e-08 -3.22478e-06)
(-5.69479e-06 -2.89516e-11 2.87727e-11 -3.49756e-06 4.09646e-08 -3.49721e-06)
(-3.98601e-06 1.28451e-12 1.15655e-11 5.39357e-07 -9.51055e-08 -3.11153e-07)
(-3.80219e-06 3.99446e-14 1.87118e-11 -6.38478e-08 -3.6787e-08 -4.57558e-07)
(-3.8605e-06 -2.0855e-12 1.98661e-11 -9.07673e-08 -2.95916e-08 -4.63179e-07)
(-3.96928e-06 -4.80262e-12 1.95282e-11 -8.26034e-08 -2.71032e-08 -4.54899e-07)
(-4.13415e-06 -7.20068e-12 1.85517e-11 -7.49564e-08 -1.862e-08 -4.56036e-07)
(-4.3958e-06 -1.19289e-11 1.73442e-11 -9.91123e-08 -6.41305e-09 -4.68779e-07)
(-4.77431e-06 -1.52669e-11 1.52556e-11 -4.98178e-07 5.28573e-09 -5.02169e-07)
(-5.29808e-06 -3.16479e-11 1.35103e-11 -3.22451e-06 2.30664e-08 -5.73674e-07)
(-3.53139e-06 1.07366e-12 9.27646e-12 3.76139e-07 -8.27479e-09 -4.6783e-09)
(-3.42911e-06 -2.57913e-13 1.48774e-11 -7.01731e-08 1.77681e-09 -7.43045e-08)
(-3.48934e-06 -2.45916e-12 1.57659e-11 -6.14891e-08 -6.98945e-09 -9.921e-08)
(-3.59134e-06 -5.43779e-12 1.54805e-11 -5.18698e-08 -1.48313e-08 -9.71961e-08)
(-3.75071e-06 -8.15482e-12 1.46938e-11 -5.02743e-08 -1.36994e-08 -9.27053e-08)
(-4.01067e-06 -1.3475e-11 1.37051e-11 -7.55964e-08 -6.8026e-09 -9.55021e-08)
(-4.39748e-06 -1.73584e-11 1.21198e-11 -4.59496e-07 -2.08903e-09 -1.07691e-07)
(-4.96684e-06 -3.49712e-11 1.07059e-11 -3.02756e-06 6.64756e-09 -1.16074e-07)
(-3.25163e-06 7.53955e-13 5.85588e-12 3.1747e-07 1.74016e-08 5.89604e-09)
(-3.17246e-06 -6.95257e-13 9.79467e-12 -9.76577e-08 1.96506e-08 -2.88043e-08)
(-3.23682e-06 -2.93702e-12 1.03777e-11 -7.06e-08 9.3847e-09 -5.8568e-08)
(-3.33775e-06 -6.03737e-12 1.01048e-11 -4.6012e-08 -1.88171e-09 -7.09841e-08)
(-3.4948e-06 -8.91614e-12 9.48989e-12 -3.79339e-08 -7.07713e-09 -7.55462e-08)
(-3.75224e-06 -1.45126e-11 8.7454e-12 -6.29895e-08 -6.93808e-09 -8.08634e-08)
(-4.13853e-06 -1.86397e-11 7.69585e-12 -4.40816e-07 -6.43547e-09 -8.78135e-08)
(-4.72242e-06 -3.66338e-11 6.77805e-12 -2.89083e-06 1.04273e-09 -8.75473e-08)
(-3.08796e-06 6.18261e-13 4.34746e-12 2.90428e-07 1.90431e-08 -1.29801e-09)
(-3.01579e-06 -9.48003e-13 7.25293e-12 -1.15062e-07 2.04048e-08 -2.39147e-08)
(-3.08237e-06 -3.28136e-12 7.68938e-12 -8.51047e-08 1.40559e-08 -5.00402e-08)
(-3.18378e-06 -6.50866e-12 7.48681e-12 -5.22431e-08 4.81065e-09 -6.88529e-08)
(-3.34024e-06 -9.54741e-12 7.03168e-12 -3.73884e-08 -2.10354e-09 -8.07632e-08)
(-3.59596e-06 -1.53795e-11 6.47173e-12 -6.01439e-08 -5.36091e-09 -8.97718e-08)
(-3.97958e-06 -1.9736e-11 5.71722e-12 -4.31551e-07 -6.51173e-09 -9.74722e-08)
(-4.56593e-06 -3.8079e-11 5.0344e-12 -2.80382e-06 -4.32787e-10 -1.01601e-07)
(-2.99091e-06 5.02854e-13 2.71658e-12 2.74848e-07 1.5066e-08 -5.21257e-09)
(-2.9217e-06 -1.15377e-12 4.63498e-12 -1.24741e-07 1.54646e-08 -2.40731e-08)
(-2.98929e-06 -3.5519e-12 4.92365e-12 -9.58908e-08 1.20571e-08 -4.62694e-08)
(-3.09126e-06 -6.85518e-12 4.77889e-12 -6.062e-08 6.05775e-09 -6.60891e-08)
(-3.24758e-06 -9.98692e-12 4.47012e-12 -4.20228e-08 4.01141e-10 -8.16322e-08)
(-3.50203e-06 -1.59455e-11 4.09434e-12 -6.20993e-08 -3.18868e-09 -9.40049e-08)
(-3.88277e-06 -2.04249e-11 3.61653e-12 -4.27461e-07 -4.59234e-09 -1.04771e-07)
(-4.46843e-06 -3.89541e-11 3.18867e-12 -2.74972e-06 -5.8072e-10 -1.14277e-07)
(-2.93558e-06 4.52395e-13 1.60809e-12 2.6563e-07 9.45147e-09 -6.7963e-09)
(-2.86787e-06 -1.26767e-12 2.73465e-12 -1.30209e-07 9.34577e-09 -2.449e-08)
(-2.9359e-06 -3.72104e-12 2.90671e-12 -1.02489e-07 7.61913e-09 -4.43707e-08)
(-3.0382e-06 -7.08211e-12 2.82228e-12 -6.70242e-08 4.38485e-09 -6.36073e-08)
(-3.19447e-06 -1.02831e-11 2.6427e-12 -4.68968e-08 9.62095e-10 -8.05071e-08)
(-3.44802e-06 -1.63292e-11 2.41922e-12 -6.50513e-08 -1.47432e-09 -9.5166e-08)
(-3.82656e-06 -2.08967e-11 2.14411e-12 -4.26052e-07 -2.48774e-09 -1.08759e-07)
(-4.41115e-06 -3.95585e-11 1.88639e-12 -2.71819e-06 -3.63257e-10 -1.22152e-07)
(-2.91028e-06 4.16957e-13 4.87256e-13 2.61267e-07 3.20742e-09 -7.31766e-09)
(-2.84322e-06 -1.33314e-12 8.51061e-13 -1.32785e-07 3.11097e-09 -2.46372e-08)
(-2.91142e-06 -3.80875e-12 9.06646e-13 -1.05609e-07 2.56889e-09 -4.35379e-08)
(-3.01387e-06 -7.19223e-12 8.77539e-13 -7.03235e-08 1.55489e-09 -6.22693e-08)
(-3.17011e-06 -1.04229e-11 8.19209e-13 -4.97106e-08 4.33075e-10 -7.95628e-08)
(-3.42319e-06 -1.65035e-11 7.46341e-13 -6.69357e-08 -4.01984e-10 -9.53186e-08)
(-3.80058e-06 -2.11119e-11 6.6199e-13 -4.25728e-07 -7.62374e-10 -1.10457e-07)
(-4.38453e-06 -3.98308e-11 5.79613e-13 -2.70365e-06 -1.14526e-10 -1.25798e-07)
(-2.58404e-06 8.00204e-08 -3.39508e-11 9.73254e-07 -5.94551e-12 -4.86507e-06)
(-2.55697e-06 -1.35618e-08 -5.35312e-11 -2.28437e-07 -5.80274e-12 -4.59313e-06)
(-2.59873e-06 -1.65631e-08 -5.81634e-11 -2.01342e-07 -3.88069e-12 -4.67987e-06)
(-2.65376e-06 -6.48474e-09 -5.89253e-11 -1.30949e-07 -2.69503e-12 -4.81026e-06)
(-2.73846e-06 6.58214e-10 -5.8618e-11 -9.31623e-08 -2.28541e-12 -4.98271e-06)
(-2.87373e-06 7.46815e-09 -5.83842e-11 -1.15311e-07 -2.66964e-12 -5.23515e-06)
(-3.06778e-06 2.38491e-08 -5.80191e-11 -5.72709e-07 -3.23295e-12 -5.57782e-06)
(-3.32811e-06 3.83447e-08 -6.13647e-11 -3.49756e-06 -4.60382e-12 -5.99815e-06)
(-3.06438e-07 -6.66645e-08 -2.31978e-11 6.31284e-07 -3.13704e-12 -4.48302e-06)
(-4.94377e-07 -2.43024e-08 -4.01511e-11 -5.14325e-08 -3.5231e-12 -4.25496e-06)
(-4.98257e-07 -1.27506e-08 -4.36565e-11 -1.07253e-07 -2.16498e-12 -4.30331e-06)
(-4.70019e-07 -6.26657e-09 -4.39892e-11 -1.13488e-07 -1.02276e-12 -4.41492e-06)
(-4.5712e-07 -2.01041e-09 -4.38086e-11 -1.07179e-07 -3.41605e-13 -4.5851e-06)
(-4.6817e-07 1.16631e-09 -4.40028e-11 -1.26561e-07 -5.73231e-14 -4.85041e-06)
(-5.12973e-07 6.63276e-09 -4.47396e-11 -5.25209e-07 -8.73136e-14 -5.23501e-06)
(-5.95564e-07 1.6001e-08 -4.95185e-11 -3.3357e-06 -5.80999e-13 -5.77057e-06)
(-3.03064e-07 8.68569e-08 -2.46994e-11 6.19547e-07 -1.88718e-12 -4.43962e-06)
(-4.90176e-07 4.02273e-08 -4.2622e-11 -6.26202e-08 -2.14723e-12 -4.20922e-06)
(-4.94415e-07 2.47819e-08 -4.65701e-11 -1.17687e-07 -1.10531e-12 -4.25585e-06)
(-4.66406e-07 1.51267e-08 -4.69833e-11 -1.23072e-07 3.89193e-14 -4.3667e-06)
(-4.53545e-07 8.2806e-09 -4.66545e-11 -1.16348e-07 9.05992e-13 -4.53649e-06)
(-4.64796e-07 2.69237e-09 -4.64832e-11 -1.35568e-07 1.64924e-12 -4.80143e-06)
(-5.10841e-07 -5.78659e-09 -4.66049e-11 -5.31487e-07 2.14705e-12 -5.18588e-06)
(-5.95959e-07 -1.662e-08 -5.0776e-11 -3.31496e-06 2.23772e-12 -5.72555e-06)
(-2.50462e-06 -6.92929e-08 -2.90595e-11 9.28318e-07 -1.34487e-12 -4.74774e-06)
(-2.47466e-06 2.04789e-08 -4.99904e-11 -2.60421e-07 -1.38057e-12 -4.47451e-06)
(-2.51533e-06 2.15595e-08 -5.48381e-11 -2.30551e-07 -3.92923e-13 -4.55711e-06)
(-2.56942e-06 1.02028e-08 -5.54367e-11 -1.57955e-07 8.14022e-13 -4.68531e-06)
(-2.65341e-06 1.97597e-09 -5.494e-11 -1.18915e-07 1.76055e-12 -4.85645e-06)
(-2.78911e-06 -6.11202e-09 -5.45822e-11 -1.40731e-07 2.77155e-12 -5.10764e-06)
(-2.98789e-06 -2.44144e-08 -5.3908e-11 -5.92955e-07 3.58553e-12 -5.44922e-06)
(-3.26202e-06 -3.99814e-08 -5.79651e-11 -3.44547e-06 4.54656e-12 -5.87951e-06)
(-4.44859e-06 6.04277e-12 1.21166e-11 9.28318e-07 8.928e-08 -2.67538e-06)
(-4.17862e-06 4.70211e-12 2.02717e-11 -2.60421e-07 -9.18112e-09 -2.63962e-06)
(-4.26145e-06 6.83549e-13 2.18558e-11 -2.30551e-07 -1.68395e-08 -2.67841e-06)
(-4.38518e-06 -2.91393e-12 2.19843e-11 -1.57955e-07 -9.80485e-09 -2.74043e-06)
(-4.55214e-06 -5.00344e-12 2.16787e-11 -1.18915e-07 -2.5035e-09 -2.8318e-06)
(-4.80154e-06 -8.31688e-12 2.21606e-11 -1.40731e-07 6.66426e-09 -2.96934e-06)
(-5.14164e-06 -8.45108e-12 2.17219e-11 -5.92955e-07 2.48715e-08 -3.16582e-06)
(-5.56181e-06 -2.38865e-11 2.41944e-11 -3.44547e-06 4.29136e-08 -3.44504e-06)
(-3.81682e-06 2.11323e-12 1.46636e-12 4.93425e-07 -7.79099e-08 -3.14087e-07)
(-3.63174e-06 1.19871e-12 4.73847e-12 -9.71057e-08 -2.46878e-08 -4.65727e-07)
(-3.68668e-06 -1.11349e-12 4.89472e-12 -1.19383e-07 -2.0419e-08 -4.74474e-07)
(-3.7918e-06 -3.58842e-12 4.7104e-12 -1.08792e-07 -1.96625e-08 -4.67826e-07)
(-3.95309e-06 -4.80888e-12 4.72545e-12 -1.00025e-07 -1.22492e-08 -4.69862e-07)
(-4.21211e-06 -7.54608e-12 5.65088e-12 -1.23544e-07 -8.24624e-10 -4.83387e-07)
(-4.59406e-06 -6.05383e-12 6.47471e-12 -5.16154e-07 9.77255e-09 -5.18178e-07)
(-5.14186e-06 -2.14643e-11 8.9392e-12 -3.1658e-06 2.52592e-08 -5.92249e-07)
(-3.36549e-06 1.06294e-12 3.04943e-12 3.35156e-07 5.46019e-09 -9.34751e-09)
(-3.26022e-06 5.51863e-15 6.69144e-12 -1.02797e-07 1.36362e-08 -8.47102e-08)
(-3.31648e-06 -1.72881e-12 7.3513e-12 -9.02796e-08 3.08149e-09 -1.13293e-07)
(-3.41424e-06 -3.86637e-12 7.39073e-12 -7.82922e-08 -6.13535e-09 -1.13561e-07)
(-3.56912e-06 -4.7259e-12 7.39527e-12 -7.54275e-08 -6.09303e-09 -1.10575e-07)
(-3.82492e-06 -7.30404e-12 7.90958e-12 -9.97962e-08 -2.66467e-10 -1.14631e-07)