/*--------------------------------*- C++ -*----------------------------------*\
| =========                 |                                                 |
| \\      /  F ield         | OpenFOAM: The Open Source CFD Toolbox           |
|  \\    /   O peration     | Version:  v1912                                 |
|   \\  /    A nd           | Website:  www.openfoam.com                      |
|    \\/     M anipulation  |                                                 |
\*---------------------------------------------------------------------------*/
FoamFile
{
    version     2.0;
    format      ascii;
    class       volScalarField;
    location    "0.34/solid";
    object      sigmaEq;
}
// * * * * * * * * * * * * * * * * * * * * * * * * * * * * * * * * * * * * * //

dimensions      [1 -1 -2 0 0 0 0];


internalField   nonuniform List<scalar> 
256
(
560024
430584
426397
542649
369633
344803
340528
354245
380075
341506
337179
364956
399926
350217
345926
385029
419313
365332
361060
404523
436909
385075
380796
422162
396728
382032
378074
383154
31681.6
421685
418431
33956.1
378746
80994.4
79160.1
359967
306763
75576.1
73605.6
289121
307721
61194.2
59510.2
290193
315841
49423.8
47963.7
298200
329070
45261.7
43918.9
311202
347772
44034.6
42775.4
329722
344861
4519.87
6228.12
327666
396604
382200
378330
383289
335636
46172.6
44859.2
317993
296639
54476.9
52289.4
279337
299836
47473.5
45280.8
282202
307318
38225.1
36019.9
289347
320132
34278.1
32027.1
301768
339968
34584.4
32352
321269
347576
42674.6
41736.7
329682
436820
385455
381346
422695
306855
40015.9
38844.9
290442
275346
47664.7
45743.4
259018
279981
42837.1
40806.2
263080
287594
35277.5
33180.3
270197
300131
31838
29660.8
282232
319696
32356.2
30177.7
301367
328575
41405
40586.8
310992
420319
366421
362418
406630
290082
36522
35285.6
274542
260707
43566.9
41827.2
245124
266117
39765.3
37919.5
249854
274028
33194.4
31252.5
257163
286561
30181.2
28127.2
269111
305923
30815.1
28741.8
287977
314901
39196.3
38552.3
297671
404937
352372
348465
391686
280240
34412.5
33117.2
265279
251771
41206.7
39572.4
236682
257551
37962.8
36245.5
241733
265678
31916.7
30096.5
249193
278256
29129.4
27174.3
261130
297499
29895.3
27907.4
279827
306399
37994.1
37486.9
289427
394787
343402
339564
381867
274643
33174.8
31846.2
260035
246653
39866.7
38294.1
231867
252594
36901.3
35260.5
237056
260838
31124.9
29383.4
244598
273444
28424.3
26536.7
256527
292609
29268.4
27337.9
275115
301436
37365.1
36949.7
284632
388786
338108
334312
376086
272081
32592
31248.9
257641
244310
39243.8
37700.9
229670
250311
36392.5
34787.7
234908
258603
30731.4
29028.5
242482
271219
28058.2
26205
254404
290344
28933.1
27031.5
272937
299133
37090.5
36721.4
282412
386008
335651
331877
373419
)
;

boundaryField
{
    interface
    {
        type            calculated;
        value           nonuniform List<scalar> 
192
(
756318
550842
565969
592572
620331
650379
631067
338238
641385
547451
553596
571514
597361
634510
657561
631049
574115
516442
524488
541095
566074
603873
634639
650605
526783
478459
488045
504511
528959
566210
597889
622033
498854
453473
463854
480504
504827
541709
573282
599184
482344
438270
449016
465834
490145
526783
558068
584394
472940
429548
440453
457369
481678
518155
549192
575650
468639
425555
436517
453475
477782
514177
545080
571590
784328
581974
597207
624086
652187
682826
666886
398511
725739
615494
617680
636111
663632
701946
725530
689904
718338
607820
609767
628137
655628
693887
717655
683866
761990
561731
576780
603635
631719
662253
647075
389494
730484
526031
541178
567819
595573
625696
607817
325824
610906
517811
523671
541143
566487
603238
627221
607943
544770
487168
494579
510535
534811
571958
603363
626296
498947
450386
459119
474783
498400
534852
566972
597951
472120
426332
435748
451491
474891
510877
542772
575425
456332
411747
421470
437314
460637
496313
527843
560882
447365
403404
413255
429160
452442
487914
519150
552307
443269
399591
409488
425417
448678
484046
515127
548332
398706
666936
683059
653918
630879
615947
607106
602996
690051
725857
702746
665717
640670
624916
615621
611294
684000
718020
694771
657854
632887
617188
607927
603617
389603
647261
662923
634269
611641
597017
588380
584374
)
;
    }
    symmetry
    {
        type            symmetry;
    }
    bottom
    {
        type            calculated;
        value           nonuniform List<scalar> 
32
(
749557
452270
385608
353274
335279
324615
318505
315701
510908
99725.3
51516.3
45793.1
43148.4
41298.2
40123.1
39557.1
506665
97391.3
49475.8
43900.3
41226.1
39351.2
38166.2
37597.4
730605
432320
367128
336362
319480
309547
303879
301283
)
;
    }
}


// ************************************************************************* //
