/*--------------------------------*- C++ -*----------------------------------*\
| =========                 |                                                 |
| \\      /  F ield         | OpenFOAM: The Open Source CFD Toolbox           |
|  \\    /   O peration     | Version:  v1912                                 |
|   \\  /    A nd           | Website:  www.openfoam.com                      |
|    \\/     M anipulation  |                                                 |
\*---------------------------------------------------------------------------*/
FoamFile
{
    version     2.0;
    format      ascii;
    class       volScalarField;
    location    "0.34/solid";
    object      T;
}
// * * * * * * * * * * * * * * * * * * * * * * * * * * * * * * * * * * * * * //

dimensions      [0 0 0 1 0 0 0];


internalField   nonuniform List<scalar> 
256
(
291.8
292.369
292.372
291.811
291.617
292.267
292.27
291.629
291.596
292.256
292.259
291.609
291.576
292.246
292.249
291.589
291.543
292.229
292.233
291.557
291.483
292.196
292.199
291.497
291.321
292.078
292.082
291.335
290.419
291.232
291.239
290.442
292.426
292.912
292.912
292.428
292.331
292.894
292.893
292.333
292.321
292.892
292.891
292.322
292.31
292.891
292.89
292.312
292.293
292.889
292.888
292.296
292.259
292.882
292.882
292.262
292.144
292.818
292.817
292.147
291.321
292.078
292.082
291.335
292.516
292.958
292.957
292.518
292.437
292.948
292.948
292.437
292.427
292.947
292.947
292.428
292.418
292.947
292.946
292.419
292.401
292.946
292.945
292.403
292.369
292.941
292.94
292.372
292.259
292.882
292.882
292.262
291.483
292.196
292.199
291.497
292.544
292.961
292.961
292.546
292.468
292.953
292.952
292.468
292.459
292.952
292.951
292.459
292.449
292.952
292.951
292.45
292.433
292.95
292.95
292.435
292.401
292.946
292.945
292.403
292.293
292.889
292.888
292.296
291.542
292.229
292.232
291.557
292.559
292.962
292.962
292.56
292.484
292.954
292.953
292.484
292.475
292.953
292.952
292.475
292.465
292.953
292.952
292.466
292.449
292.952
292.951
292.45
292.417
292.947
292.946
292.419
292.31
292.891
292.89
292.312
291.575
292.245
292.249
291.589
292.567
292.963
292.962
292.567
292.493
292.954
292.954
292.493
292.484
292.954
292.953
292.484
292.474
292.953
292.952
292.475
292.458
292.952
292.951
292.459
292.426
292.947
292.947
292.428
292.32
292.892
292.891
292.322
291.594
292.255
292.259
291.608
292.571
292.963
292.962
292.572
292.498
292.955
292.954
292.498
292.489
292.954
292.953
292.489
292.479
292.953
292.953
292.48
292.463
292.952
292.952
292.464
292.431
292.948
292.947
292.433
292.325
292.892
292.892
292.327
291.605
292.26
292.264
291.619
292.573
292.963
292.962
292.574
292.5
292.955
292.954
292.5
292.491
292.954
292.953
292.491
292.481
292.954
292.953
292.482
292.465
292.952
292.952
292.466
292.433
292.948
292.947
292.435
292.327
292.893
292.892
292.33
291.61
292.263
292.266
291.624
)
;

boundaryField
{
    interface
    {
        type            fixedValue;
        value           nonuniform List<scalar> 
192
(
290.12
289.99
289.94
289.874
289.77
289.598
289.266
288.311
290.91
290.834
290.794
290.739
290.652
290.502
290.197
289.265
291.189
291.123
291.086
291.034
290.949
290.802
290.501
289.597
291.328
291.265
291.229
291.178
291.094
290.948
290.65
289.767
291.408
291.347
291.311
291.26
291.176
291.031
290.736
289.869
291.456
291.395
291.36
291.308
291.225
291.08
290.787
289.931
291.483
291.423
291.387
291.336
291.252
291.108
290.817
289.967
291.496
291.435
291.4
291.349
291.265
291.121
290.83
289.984
290.014
289.885
289.834
289.767
289.663
289.49
289.153
288.189
290.668
290.587
290.546
290.491
290.403
290.253
289.942
288.983
290.689
290.61
290.571
290.516
290.429
290.279
289.968
289.012
290.087
289.962
289.914
289.849
289.746
289.574
289.238
288.282
290.207
290.083
290.035
289.971
289.868
289.696
289.362
288.41
290.992
290.918
290.881
290.828
290.743
290.594
290.289
289.362
291.269
291.205
291.171
291.121
291.039
290.894
290.594
289.697
291.407
291.346
291.313
291.263
291.182
291.039
290.743
289.868
291.486
291.426
291.393
291.344
291.263
291.121
290.828
289.97
291.533
291.474
291.441
291.392
291.311
291.169
290.879
290.033
291.559
291.501
291.468
291.419
291.338
291.197
290.908
290.069
291.572
291.513
291.48
291.431
291.351
291.21
290.922
290.086
288.188
289.152
289.488
289.66
289.762
289.825
289.862
289.879
288.982
289.941
290.252
290.401
290.487
290.539
290.569
290.583
289.012
289.968
290.278
290.427
290.513
290.565
290.595
290.609
288.282
289.238
289.574
289.745
289.848
289.91
289.947
289.964
)
;
    }
    symmetry
    {
        type            symmetry;
    }
    bottom
    {
        type            fixedValue;
        value           uniform 293;
    }
}


// ************************************************************************* //
