/*--------------------------------*- C++ -*----------------------------------*\
| =========                 |                                                 |
| \\      /  F ield         | OpenFOAM: The Open Source CFD Toolbox           |
|  \\    /   O peration     | Version:  v1912                                 |
|   \\  /    A nd           | Website:  www.openfoam.com                      |
|    \\/     M anipulation  |                                                 |
\*---------------------------------------------------------------------------*/
FoamFile
{
    version     2.0;
    format      ascii;
    class       surfaceScalarField;
    location    "0.21/fluid";
    object      phi;
}
// * * * * * * * * * * * * * * * * * * * * * * * * * * * * * * * * * * * * * //

dimensions      [0 3 -1 0 0 0 0];
oriented        oriented;


internalField   nonuniform List<scalar> 
41600
(
5.24688e-05
1.02168e-05
9.47747e-08
-2.80451e-07
4.62363e-05
6.4913e-06
-1.4555e-07
-1.13182e-07
4.26004e-05
3.86706e-06
-5.06978e-07
2.75811e-07
4.07424e-05
2.03633e-06
-9.25605e-07
7.47255e-07
3.96435e-05
1.22081e-06
-1.46717e-06
1.34527e-06
3.88459e-05
8.67086e-07
-2.1573e-06
2.08783e-06
3.81128e-05
7.52691e-07
-3.03667e-06
3.01703e-06
3.73238e-05
7.5387e-07
-4.15937e-06
4.19454e-06
3.63945e-05
8.24211e-07
-5.60431e-06
5.70935e-06
3.52408e-05
9.2968e-07
-7.49164e-06
7.71571e-06
3.37507e-05
1.06752e-06
-9.98672e-06
1.04093e-05
3.17133e-05
1.16584e-06
-1.33314e-05
1.4203e-05
2.87568e-05
1.27014e-06
-1.79587e-05
1.9645e-05
2.39174e-05
1.06738e-06
-2.40929e-05
2.78649e-05
1.54316e-05
9.09033e-07
-3.23731e-05
3.99498e-05
-1.09629e-06
-3.06793e-05
4.72072e-05
6.52445e-05
7.70184e-06
-1.98409e-10
-2.29292e-07
6.52275e-05
6.83675e-06
-4.01899e-07
7.34242e-08
6.44746e-05
4.92218e-06
-9.31062e-07
6.28894e-07
6.35165e-05
3.2315e-06
-1.53222e-06
1.29513e-06
6.25787e-05
2.3222e-06
-2.30051e-06
2.13689e-06
6.16479e-05
1.89167e-06
-3.28613e-06
3.19239e-06
6.06511e-05
1.77662e-06
-4.55076e-06
4.52361e-06
5.95027e-05
1.8573e-06
-6.17491e-06
6.21984e-06
5.81116e-05
2.07995e-06
-8.27418e-06
8.40959e-06
5.63487e-05
2.40645e-06
-1.10232e-05
1.13093e-05
5.40517e-05
2.82505e-06
-1.46627e-05
1.52021e-05
5.08402e-05
3.26884e-06
-1.95479e-05
2.06564e-05
4.61931e-05
3.75326e-06
-2.62697e-05
2.84336e-05
3.83956e-05
3.99699e-06
-3.52099e-05
4.00778e-05
2.5352e-05
4.09416e-06
-4.68983e-05
5.67567e-05
1.9402e-06
-4.44123e-05
6.67278e-05
6.5377e-05
5.05944e-06
-1.10694e-08
-2.2355e-07
6.66578e-05
5.89312e-06
-4.30771e-07
9.3578e-08
6.69566e-05
4.93426e-06
-9.74109e-07
6.633e-07
6.66572e-05
3.77514e-06
-1.5882e-06
1.34389e-06
6.61e-05
3.04847e-06
-2.37231e-06
2.20322e-06
6.5382e-05
2.7072e-06
-3.37874e-06
3.28127e-06
6.45064e-05
2.68151e-06
-4.67029e-06
4.64098e-06
6.34248e-05
2.89458e-06
-6.32946e-06
6.37378e-06
6.20603e-05
3.30782e-06
-8.47433e-06
8.61098e-06
6.02808e-05
3.89531e-06
-1.12859e-05
1.15765e-05
5.79054e-05
4.64955e-06
-1.50107e-05
1.55616e-05
5.45115e-05
5.52487e-06
-2.00259e-05
2.11638e-05
4.95119e-05
6.51989e-06
-2.69332e-05
2.91662e-05
4.10643e-05
7.39088e-06
-3.61776e-05
4.12313e-05
2.69234e-05
7.96572e-06
-4.82663e-05
5.85356e-05
5.42918e-06
-4.58646e-05
6.92989e-05
6.42462e-05
3.54803e-06
8.67143e-09
-2.43433e-07
6.56148e-05
4.86273e-06
-3.94302e-07
5.61108e-08
6.63269e-05
4.53375e-06
-9.24048e-07
6.12399e-07
6.64727e-05
3.87449e-06
-1.52351e-06
1.27837e-06
6.62661e-05
3.42523e-06
-2.28811e-06
2.11796e-06
6.58057e-05
3.26658e-06
-3.26708e-06
3.16814e-06
6.51239e-05
3.39462e-06
-4.52014e-06
4.48877e-06
6.41977e-05
3.77933e-06
-6.12671e-06
6.16813e-06
6.29647e-05
4.40817e-06
-8.2002e-06
8.33288e-06
6.12944e-05
5.28034e-06
-1.09188e-05
1.12041e-05
5.89951e-05
6.40477e-06
-1.45209e-05
1.5065e-05
5.56161e-05
7.77307e-06
-1.93918e-05
2.05226e-05
5.05237e-05
9.38361e-06
-2.61146e-05
2.83433e-05
4.18265e-05
1.10183e-05
-3.52028e-05
4.02726e-05
2.7182e-05
1.22918e-05
-4.7145e-05
5.74635e-05
9.05273e-06
-4.50559e-05
6.86143e-05
6.36722e-05
2.61032e-06
4.14731e-08
-2.76011e-07
6.49142e-05
3.95916e-06
-3.31461e-07
-6.95099e-09
6.57474e-05
4.0126e-06
-8.38788e-07
5.26791e-07
6.61338e-05
3.73388e-06
-1.41529e-06
1.1695e-06
6.6177e-05
3.55338e-06
-2.14876e-06
1.97739e-06
6.59468e-05
3.59777e-06
-3.0833e-06
2.98228e-06
6.54756e-05
3.9006e-06
-4.27342e-06
4.2387e-06
6.47505e-05
4.46838e-06
-5.79254e-06
5.82861e-06
6.37194e-05
5.31498e-06
-7.74497e-06
7.86917e-06
6.22566e-05
6.47208e-06
-1.03001e-05
1.05712e-05
6.01649e-05
7.97595e-06
-1.36774e-05
1.41979e-05
5.69633e-05
9.88587e-06
-1.82621e-05
1.9351e-05
5.19524e-05
1.22395e-05
-2.45932e-05
2.67483e-05
4.30915e-05
1.49368e-05
-3.32769e-05
3.82192e-05
2.78364e-05
1.7465e-05
-4.47384e-05
5.48203e-05
1.37145e-05
-4.31224e-05
6.6297e-05
6.33978e-05
1.947e-06
8.06406e-08
-3.15098e-07
6.45313e-05
3.16439e-06
-2.55425e-07
-8.33343e-08
6.54202e-05
3.43634e-06
-7.35699e-07
4.23067e-07
6.5969e-05
3.43193e-06
-1.28476e-06
1.03791e-06
6.621e-05
3.48553e-06
-1.98067e-06
1.80756e-06
6.61866e-05
3.72498e-06
-2.86136e-06
2.75755e-06
6.59251e-05
4.2012e-06
-3.97491e-06
3.93579e-06
6.54173e-05
4.94714e-06
-5.38716e-06
5.4162e-06
6.46174e-05
6.00198e-06
-7.19123e-06
7.30414e-06
6.34004e-05
7.43726e-06
-9.54512e-06
9.79691e-06
6.15609e-05
9.32751e-06
-1.2645e-05
1.3133e-05
5.85805e-05
1.18368e-05
-1.68743e-05
1.79037e-05
5.36934e-05
1.50769e-05
-2.27139e-05
2.47636e-05
4.46813e-05
1.91971e-05
-3.08843e-05
3.56361e-05
2.87668e-05
2.36531e-05
-4.17126e-05
5.1439e-05
1.98702e-05
-4.07557e-05
6.33667e-05
6.32923e-05
1.3893e-06
1.25458e-07
-3.60061e-07
6.43842e-05
2.4119e-06
-1.68478e-07
-1.70914e-07
6.53252e-05
2.80901e-06
-6.17889e-07
3.04211e-07
6.59998e-05
3.00578e-06
-1.13554e-06
8.8712e-07
6.64069e-05
3.25388e-06
-1.78804e-06
1.61255e-06
6.65775e-05
3.66189e-06
-2.6058e-06
2.49827e-06
6.65386e-05
4.28523e-06
-3.62843e-06
3.58337e-06
6.62944e-05
5.17233e-06
-4.91071e-06
4.92966e-06
6.58214e-05
6.37972e-06
-6.52825e-06
6.62352e-06
6.50264e-05
8.01411e-06
-8.6158e-06
8.834e-06
6.37457e-05
1.01846e-05
-1.13254e-05
1.1749e-05
6.1492e-05
1.31953e-05
-1.50031e-05
1.58982e-05
5.75032e-05
1.72888e-05
-2.00037e-05
2.17807e-05
4.91899e-05
2.33279e-05
-2.71236e-05
3.1306e-05
3.31155e-05
3.1174e-05
-3.64301e-05
4.49836e-05
3.22317e-05
-3.61697e-05
5.69236e-05
6.32709e-05
1.73437e-07
-4.08398e-07
8.53362e-07
6.438e-05
-7.53915e-08
-2.64907e-07
1.64312e-06
6.53913e-05
-4.91855e-07
1.76792e-07
2.11275e-06
6.61803e-05
-9.76077e-07
7.25724e-07
2.46713e-06
6.67334e-05
-1.58238e-06
1.40412e-06
2.879e-06
6.70787e-05
-2.33323e-06
2.22157e-06
3.42833e-06
6.7247e-05
-3.2596e-06
3.20809e-06
4.16845e-06
6.72534e-05
-4.4049e-06
4.4132e-06
5.15755e-06
6.70902e-05
-5.82792e-06
5.90513e-06
6.46574e-06
6.66865e-05
-7.64044e-06
7.82512e-06
8.23306e-06
6.59073e-05
-9.95458e-06
1.03165e-05
1.0602e-05
6.42956e-05
-1.30796e-05
1.38479e-05
1.40387e-05
6.11458e-05
-1.72537e-05
1.87827e-05
1.89096e-05
5.37177e-05
-2.33472e-05
2.70066e-05
2.70967e-05
3.8601e-05
-3.12031e-05
3.87003e-05
3.87934e-05
-3.22421e-05
5.14816e-05
5.15932e-05
5.23995e-05
1.0223e-05
-2.76765e-08
4.60531e-05
6.50656e-06
-3.05775e-07
4.22983e-05
3.8847e-06
-6.36808e-07
4.03207e-05
2.05676e-06
-1.00476e-06
3.90918e-05
1.24682e-06
-1.48518e-06
3.81407e-05
9.01439e-07
-2.10757e-06
3.72149e-05
7.98912e-07
-2.90981e-06
3.61771e-05
8.16381e-07
-3.93792e-06
3.49226e-05
9.09544e-07
-5.25939e-06
3.33473e-05
1.04628e-06
-6.96265e-06
3.13098e-05
1.23001e-06
-9.17915e-06
2.86027e-05
1.39335e-06
-1.20177e-05
2.48126e-05
1.60122e-06
-1.57698e-05
1.9252e-05
1.56875e-06
-2.0101e-05
1.03882e-05
1.61969e-06
-2.5129e-05
3.79482e-08
-2.03291e-05
6.51508e-05
7.71823e-06
-1.46243e-07
6.49806e-05
6.87015e-06
-5.95303e-07
6.40575e-05
4.96483e-06
-1.08813e-06
6.29219e-05
3.28331e-06
-1.62312e-06
6.17891e-05
2.38808e-06
-2.30894e-06
6.06273e-05
1.97804e-06
-3.20101e-06
5.9341e-05
1.89196e-06
-4.35748e-06
5.7818e-05
2.01226e-06
-5.84778e-06
5.59349e-05
2.289e-06
-7.77054e-06
5.35279e-05
2.68707e-06
-1.0257e-05
5.03873e-05
3.20332e-06
-1.34953e-05
4.61242e-05
3.77035e-06
-1.76618e-05
4.01683e-05
4.42581e-06
-2.31384e-05
3.12181e-05
4.86775e-06
-2.95587e-05
1.75415e-05
5.17389e-06
-3.67759e-05
2.96667e-06
-2.97995e-05
6.52825e-05
5.08467e-06
-1.59999e-07
6.64073e-05
5.94319e-06
-6.28617e-07
6.65326e-05
5.00048e-06
-1.13506e-06
6.60521e-05
3.8572e-06
-1.68159e-06
6.52962e-05
3.15315e-06
-2.38146e-06
6.43432e-05
2.8446e-06
-3.2923e-06
6.31731e-05
2.86519e-06
-4.47345e-06
6.17102e-05
3.14188e-06
-5.99612e-06
5.98439e-05
3.642e-06
-7.96106e-06
5.74053e-05
4.34451e-06
-1.05047e-05
5.41631e-05
5.25394e-06
-1.38192e-05
4.96825e-05
6.32135e-06
-1.80963e-05
4.33229e-05
7.57327e-06
-2.3721e-05
3.36632e-05
8.70332e-06
-3.03535e-05
1.8838e-05
9.53516e-06
-3.78023e-05
6.55684e-06
-3.06168e-05
6.41536e-05
3.58107e-06
-1.41347e-07
6.53693e-05
4.92775e-06
-5.94589e-07
6.59129e-05
4.62091e-06
-1.088e-06
6.58836e-05
3.98357e-06
-1.62061e-06
6.54858e-05
3.56491e-06
-2.30209e-06
6.48001e-05
3.45042e-06
-3.18715e-06
6.38362e-05
3.64116e-06
-4.33227e-06
6.25445e-05
4.11277e-06
-5.80589e-06
6.08296e-05
4.8613e-06
-7.70456e-06
5.85239e-05
5.89385e-06
-1.01625e-05
5.53846e-05
7.23669e-06
-1.33645e-05
5.09455e-05
8.87895e-06
-1.75102e-05
4.45131e-05
1.08593e-05
-2.29682e-05
3.46053e-05
1.28621e-05
-2.94538e-05
1.92365e-05
1.452e-05
-3.67611e-05
1.05551e-05
-2.98177e-05
6.35826e-05
2.64995e-06
-1.09968e-07
6.46768e-05
4.03688e-06
-5.34853e-07
6.53486e-05
4.11734e-06
-1.007e-06
6.55692e-05
3.8656e-06
-1.51796e-06
6.54331e-05
3.72251e-06
-2.1702e-06
6.49929e-05
3.82097e-06
-3.01366e-06
6.42597e-05
4.20092e-06
-4.1e-06
6.31957e-05
4.87656e-06
-5.49234e-06
6.1718e-05
5.87329e-06
-7.2792e-06
5.96646e-05
7.23495e-06
-9.58784e-06
5.67886e-05
9.0224e-06
-1.25872e-05
5.25874e-05
1.12991e-05
-1.6481e-05
4.62919e-05
1.4164e-05
-2.16025e-05
3.62337e-05
1.73986e-05
-2.77552e-05
2.01666e-05
2.05469e-05
-3.46982e-05
1.58112e-05
-2.8212e-05
6.33114e-05
1.99178e-06
-7.25776e-08
6.43036e-05
3.25184e-06
-4.62565e-07
6.50399e-05
3.55447e-06
-9.09125e-07
6.5434e-05
3.58091e-06
-1.39423e-06
6.55098e-05
3.67729e-06
-2.01121e-06
6.52949e-05
3.97875e-06
-2.80423e-06
6.47959e-05
4.54401e-06
-3.81902e-06
6.39815e-05
5.4158e-06
-5.112e-06
6.27771e-05
6.64812e-06
-6.7617e-06
6.10231e-05
8.33032e-06
-8.88642e-06
5.84654e-05
1.05702e-05
-1.16352e-05
5.45571e-05
1.35491e-05
-1.5216e-05
4.84545e-05
1.74674e-05
-1.99146e-05
3.82692e-05
2.23489e-05
-2.56492e-05
2.14424e-05
2.7779e-05
-3.21179e-05
2.27603e-05
-2.62624e-05
6.32098e-05
1.43738e-06
-2.99221e-08
6.41677e-05
2.5055e-06
-3.80034e-07
6.49662e-05
2.93553e-06
-7.97453e-07
6.54991e-05
3.1655e-06
-1.25302e-06
6.57579e-05
3.45965e-06
-1.82929e-06
6.57599e-05
3.93452e-06
-2.56347e-06
6.5515e-05
4.65412e-06
-3.49367e-06
6.50085e-05
5.67822e-06
-4.66667e-06
6.41941e-05
7.08022e-06
-6.14596e-06
6.29508e-05
8.98983e-06
-8.03198e-06
6.10776e-05
1.15562e-05
-1.04383e-05
5.80586e-05
1.51205e-05
-1.35555e-05
5.30572e-05
2.0042e-05
-1.7577e-05
4.3711e-05
2.71106e-05
-2.2539e-05
2.6645e-05
3.6413e-05
-2.79981e-05
3.61771e-05
-2.29416e-05
6.31925e-05
1.56254e-08
9.02716e-07
6.41755e-05
-2.91811e-07
1.73892e-06
6.5055e-05
-6.78133e-07
2.24224e-06
6.57161e-05
-1.10225e-06
2.63065e-06
6.61388e-05
-1.63515e-06
3.08972e-06
6.63391e-05
-2.30672e-06
3.70766e-06
6.63339e-05
-3.14715e-06
4.54689e-06
6.61225e-05
-4.19331e-06
5.67799e-06
6.56794e-05
-5.49385e-06
7.18927e-06
6.49114e-05
-7.13136e-06
9.24878e-06
6.36555e-05
-9.18615e-06
1.20437e-05
6.14262e-05
-1.18317e-05
1.6102e-05
5.74612e-05
-1.51728e-05
2.19261e-05
4.91729e-05
-1.9372e-05
3.14236e-05
3.31172e-05
-2.38542e-05
4.51199e-05
-2.00394e-05
5.70916e-05
5.23422e-05
1.02288e-05
-9.86123e-08
4.58979e-05
6.52073e-06
-3.82297e-07
4.20353e-05
3.90132e-06
-6.75515e-07
3.99446e-05
2.07606e-06
-9.90067e-07
3.85896e-05
1.27124e-06
-1.40147e-06
3.74873e-05
9.3338e-07
-1.93864e-06
3.63695e-05
8.4131e-07
-2.63335e-06
3.50792e-05
8.72623e-07
-3.52015e-06
3.34847e-05
9.84009e-07
-4.64896e-06
3.1452e-05
1.14366e-06
-6.07361e-06
2.8798e-05
1.35685e-06
-7.88197e-06
2.53165e-05
1.55527e-06
-1.00915e-05
2.06216e-05
1.8065e-06
-1.28814e-05
1.44952e-05
1.83076e-06
-1.58053e-05
6.28085e-06
1.89318e-06
-1.88078e-05
3.78537e-07
-1.44268e-05
6.50724e-05
7.73388e-06
-2.23734e-07
6.47694e-05
6.90179e-06
-6.73384e-07
6.36922e-05
5.00536e-06
-1.11492e-06
6.23894e-05
3.33253e-06
-1.57681e-06
6.10688e-05
2.45043e-06
-2.16753e-06
5.96824e-05
2.05945e-06
-2.94064e-06
5.8112e-05
2.00018e-06
-3.946e-06
5.62175e-05
2.15678e-06
-5.23738e-06
5.38376e-05
2.48233e-06
-6.889e-06
5.07662e-05
2.94346e-06
-8.98534e-06
4.67381e-05
3.54248e-06
-1.16528e-05
4.13668e-05
4.20787e-06
-1.49432e-05
3.41272e-05
4.98815e-06
-1.90804e-05
2.43725e-05
5.55124e-06
-2.35245e-05
1.14862e-05
5.94587e-06
-2.79422e-05
3.56616e-06
-2.15009e-05
6.52034e-05
5.10884e-06
-2.38385e-07
6.61931e-05
5.99083e-06
-7.07323e-07
6.61613e-05
5.06346e-06
-1.16135e-06
6.55103e-05
3.93516e-06
-1.63328e-06
6.45631e-05
3.25237e-06
-2.23611e-06
6.33813e-05
2.9745e-06
-3.02556e-06
6.19221e-05
3.03847e-06
-4.0526e-06
6.00806e-05
3.37463e-06
-5.37249e-06
5.77073e-05
3.95571e-06
-7.06106e-06
5.45881e-05
4.76463e-06
-9.20667e-06
5.04334e-05
5.81617e-06
-1.19382e-05
4.48064e-05
7.05591e-06
-1.53173e-05
3.71083e-05
8.53226e-06
-1.9567e-05
2.65888e-05
9.87535e-06
-2.41581e-05
1.25365e-05
1.09071e-05
-2.87113e-05
7.542e-06
-2.2056e-05
6.40764e-05
3.61268e-06
-2.21624e-07
6.516e-05
4.98964e-06
-6.76998e-07
6.55509e-05
4.70377e-06
-1.11921e-06
6.53569e-05
4.08712e-06
-1.57857e-06
6.47749e-05
3.69728e-06
-2.16494e-06
6.38693e-05
3.62437e-06
-2.93144e-06
6.26279e-05
3.87418e-06
-3.92656e-06
6.09721e-05
4.42769e-06
-5.20321e-06
5.87678e-05
5.28924e-06
-6.83379e-06
5.58018e-05
6.47318e-06
-8.90501e-06
5.17708e-05
8.02248e-06
-1.15398e-05
4.62011e-05
9.92256e-06
-1.48071e-05
3.84321e-05
1.22498e-05
-1.89167e-05
2.76429e-05
1.45949e-05
-2.33842e-05
1.29928e-05
1.6618e-05
-2.78219e-05
1.2095e-05
-2.13779e-05
6.35081e-05
2.68777e-06
-1.93134e-07
6.44751e-05
4.11075e-06
-6.22986e-07
6.50011e-05
4.21678e-06
-1.04602e-06
6.50657e-05
3.99051e-06
-1.48596e-06
6.47564e-05
3.88272e-06
-2.04628e-06
6.41107e-05
4.03219e-06
-2.77586e-06
6.31189e-05
4.48506e-06
-3.71909e-06
6.17159e-05
5.26289e-06
-4.92455e-06
5.97816e-05
6.40257e-06
-6.45816e-06
5.7109e-05
7.95973e-06
-8.40179e-06
5.33902e-05
1.00203e-05
-1.08663e-05
4.81075e-05
1.26512e-05
-1.3927e-05
4.05104e-05
1.60126e-05
-1.77682e-05
2.9559e-05
1.9772e-05
-2.19809e-05
1.40977e-05
2.35418e-05
-2.61607e-05
1.80994e-05
-2.01186e-05
6.324e-05
2.0344e-06
-1.59224e-07
6.4111e-05
3.33484e-06
-5.57599e-07
6.47097e-05
3.66648e-06
-9.57601e-07
6.49584e-05
3.72204e-06
-1.37442e-06
6.48744e-05
3.85881e-06
-1.90332e-06
6.44717e-05
4.21887e-06
-2.58816e-06
6.37375e-05
4.86847e-06
-3.46831e-06
6.26154e-05
5.85993e-06
-4.58687e-06
6.09958e-05
7.26222e-06
-6.00177e-06
5.86752e-05
9.18243e-06
-7.78859e-06
5.53397e-05
1.17637e-05
-1.0043e-05
5.04184e-05
1.52045e-05
-1.2848e-05
4.30721e-05
1.97976e-05
-1.63533e-05
3.19952e-05
2.54481e-05
-2.02483e-05
1.56322e-05
3.18835e-05
-2.40966e-05
2.60648e-05
-1.85955e-05
6.31421e-05
1.48303e-06
-1.2061e-07
6.39857e-05
2.5942e-06
-4.83013e-07
6.46562e-05
3.05535e-06
-8.5683e-07
6.50558e-05
3.31668e-06
-1.24726e-06
6.51709e-05
3.65435e-06
-1.73997e-06
6.50067e-05
4.19247e-06
-2.37284e-06
6.45568e-05
5.0035e-06
-3.17883e-06
6.37852e-05
6.15835e-06
-4.19347e-06
6.26165e-05
7.74791e-06
-5.46299e-06
6.08925e-05
9.9253e-06
-7.05085e-06
5.83612e-05
1.28839e-05
-9.02715e-06
5.4479e-05
1.70022e-05
-1.1471e-05
4.84026e-05
2.27665e-05
-1.44695e-05
3.8247e-05
3.08911e-05
-1.78265e-05
2.14397e-05
4.17263e-05
-2.10335e-05
4.08006e-05
-1.62378e-05
6.31286e-05
-7.94469e-08
9.49474e-07
6.40048e-05
-4.03361e-07
1.82956e-06
6.47666e-05
-7.49246e-07
2.36473e-06
6.53073e-05
-1.11159e-06
2.78529e-06
6.56033e-05
-1.56574e-06
3.28897e-06
6.56604e-05
-2.14324e-06
3.97189e-06
6.54819e-05
-2.87045e-06
4.90532e-06
6.50498e-05
-3.775e-06
6.17213e-06
6.43156e-05
-4.89146e-06
7.87974e-06
6.31557e-05
-6.27101e-06
1.02248e-05
6.13674e-05
-7.95922e-06
1.34453e-05
5.84371e-05
-1.0031e-05
1.81318e-05
5.35996e-05
-1.25123e-05
2.49434e-05
4.46423e-05
-1.53272e-05
3.58037e-05
2.87667e-05
-1.79065e-05
5.16541e-05
-1.41104e-05
6.36383e-05
5.22953e-05
1.0234e-05
-1.27943e-07
4.5769e-05
6.53341e-06
-3.89459e-07
4.18137e-05
3.91633e-06
-6.3653e-07
3.96243e-05
2.09356e-06
-8.94201e-07
3.81602e-05
1.29339e-06
-1.23082e-06
3.69313e-05
9.62455e-07
-1.67217e-06
3.56614e-05
8.80185e-07
-2.24366e-06
3.41866e-05
9.24916e-07
-2.97023e-06
3.23702e-05
1.05476e-06
-3.88735e-06
3.00822e-05
1.2396e-06
-5.02517e-06
2.7151e-05
1.48802e-06
-6.43878e-06
2.34227e-05
1.73563e-06
-8.0989e-06
1.8589e-05
2.05614e-06
-1.01039e-05
1.26203e-05
2.18431e-06
-1.20209e-05
5.19652e-06
2.35047e-06
-1.37345e-05
9.14428e-07
-1.01447e-05
6.50076e-05
7.74809e-06
-2.45382e-07
6.45926e-05
6.93034e-06
-6.55313e-07
6.33823e-05
5.042e-06
-1.03025e-06
6.19334e-05
3.37702e-06
-1.4114e-06
6.04494e-05
2.50668e-06
-1.89686e-06
5.88725e-05
2.13277e-06
-2.53401e-06
5.70724e-05
2.0975e-06
-3.36322e-06
5.48974e-05
2.28674e-06
-4.42417e-06
5.21767e-05
2.65633e-06
-5.76993e-06
4.87066e-05
3.17508e-06
-7.45073e-06
4.42361e-05
3.85075e-06
-9.54501e-06
3.84524e-05
4.6111e-06
-1.2035e-05
3.09457e-05
5.51559e-06
-1.50331e-05
2.13855e-05
6.2168e-06
-1.79968e-05
9.61625e-06
6.74402e-06
-2.05666e-05
4.2645e-06
-1.52347e-05
6.51381e-05
5.13079e-06
-2.59217e-07
6.60138e-05
6.03393e-06
-6.86583e-07
6.58464e-05
5.12041e-06
-1.07233e-06
6.50464e-05
4.00553e-06
-1.46183e-06
6.39326e-05
3.34167e-06
-1.95731e-06
6.25568e-05
3.09103e-06
-2.60804e-06
6.08638e-05
3.19328e-06
-3.45537e-06
5.87366e-05
3.58158e-06
-4.54016e-06
5.60156e-05
4.23299e-06
-5.91671e-06
5.24887e-05
5.13333e-06
-7.63799e-06
4.78797e-05
6.30531e-06
-9.78378e-06
4.18266e-05
7.68944e-06
-1.23425e-05
3.38479e-05
9.35063e-06
-1.54234e-05
2.35203e-05
1.08725e-05
-1.84863e-05
1.06107e-05
1.20736e-05
-2.11313e-05
8.43318e-06
-1.5614e-05
6.40128e-05
3.64137e-06
-2.45022e-07
6.49852e-05
5.04563e-06
-6.6103e-07
6.52444e-05
4.77862e-06
-1.0367e-06
6.49065e-05
4.18046e-06
-1.41552e-06
6.41641e-05
3.81621e-06
-1.89713e-06
6.30723e-05
3.77998e-06
-2.5286e-06
6.16069e-05
4.08146e-06
-3.3493e-06
5.96778e-05
4.70573e-06
-4.39826e-06
5.71408e-05
5.66328e-06
-5.72711e-06
5.37841e-05
6.97277e-06
-7.38776e-06
4.93169e-05
8.68844e-06
-9.45566e-06
4.33365e-05
1.07881e-05
-1.19254e-05
3.52946e-05
1.33724e-05
-1.48966e-05
2.46887e-05
1.59574e-05
-1.78632e-05
1.11452e-05
1.82157e-05
-2.04205e-05
1.32756e-05
-1.50751e-05
6.34469e-05
2.72203e-06
-2.20675e-07
6.4307e-05
4.17753e-06
-6.14999e-07
6.47074e-05
4.30652e-06
-9.74368e-07
6.46358e-05
4.10296e-06
-1.33678e-06
6.41757e-05
4.02643e-06
-1.79648e-06
6.33562e-05
4.22072e-06
-2.39705e-06
6.21562e-05
4.73692e-06
-3.17454e-06
6.05e-05
5.60203e-06
-4.16464e-06
5.82582e-05
6.86104e-06
-5.41412e-06
5.52249e-05
8.57595e-06
-6.97171e-06
5.11032e-05
1.08482e-05
-8.90433e-06
4.54405e-05
1.37372e-05
-1.12135e-05
3.75876e-05
1.74386e-05
-1.39814e-05
2.68042e-05
2.15214e-05
-1.67616e-05
1.23703e-05
2.56309e-05
-1.9142e-05
1.96489e-05
-1.41216e-05
6.31816e-05
2.07295e-06
-1.91717e-07
6.3951e-05
3.40979e-06
-5.59253e-07
6.44315e-05
3.76745e-06
-8.99075e-07
6.45531e-05
3.84893e-06
-1.24196e-06
6.43301e-05
4.0214e-06
-1.67525e-06
6.37683e-05
4.43272e-06
-2.23837e-06
6.28451e-05
5.15511e-06
-2.96333e-06
6.14942e-05
6.24769e-06
-3.88161e-06
5.95978e-05
7.78957e-06
-5.03388e-06
5.69528e-05
9.89709e-06
-6.46475e-06
5.32546e-05
1.27336e-05
-8.23026e-06
4.79905e-05
1.64939e-05
-1.03406e-05
4.04111e-05
2.15188e-05
-1.28541e-05
2.9488e-05
2.75987e-05
-1.54025e-05
1.40541e-05
3.45256e-05
-1.75574e-05
2.80749e-05
-1.29674e-05
6.30869e-05
1.52426e-06
-1.58776e-07
6.38351e-05
2.67421e-06
-4.95697e-07
6.43958e-05
3.16326e-06
-8.13319e-07
6.4679e-05
3.45249e-06
-1.13396e-06
6.46687e-05
3.82855e-06
-1.5369e-06
6.43634e-05
4.42187e-06
-2.05664e-06
6.37484e-05
5.31144e-06
-2.72017e-06
6.27799e-05
6.57591e-06
-3.55324e-06
6.13768e-05
8.31763e-06
-4.58792e-06
5.93826e-05
1.07015e-05
-5.86103e-06
5.65557e-05
1.39446e-05
-7.41123e-06
5.2402e-05
1.84282e-05
-9.25168e-06
4.61541e-05
2.46983e-05
-1.1401e-05
3.61571e-05
3.33554e-05
-1.35861e-05
2.01342e-05
4.48576e-05
-1.53426e-05
4.32846e-05
-1.13133e-05
6.30769e-05
-1.23698e-07
9.91634e-07
6.38643e-05
-4.27864e-07
1.91124e-06
6.45252e-05
-7.21809e-07
2.47494e-06
6.49608e-05
-1.01877e-06
2.92408e-06
6.51459e-05
-1.38934e-06
3.46708e-06
6.50808e-05
-1.86285e-06
4.20657e-06
6.47621e-05
-2.46101e-06
5.22065e-06
6.41661e-05
-3.20358e-06
6.60052e-06
6.32405e-05
-4.11391e-06
8.46572e-06
6.18646e-05
-5.22081e-06
1.10272e-05
5.98477e-05
-6.54592e-06
1.45482e-05
5.67184e-05
-8.10526e-06
1.96318e-05
5.17798e-05
-9.87812e-06
2.70027e-05
4.30057e-05
-1.16933e-05
3.84956e-05
2.78136e-05
-1.30616e-05
5.52048e-05
-9.79647e-06
6.67842e-05
5.22579e-05
1.02385e-05
-1.24396e-07
4.56653e-05
6.54411e-06
-3.4097e-07
4.16336e-05
3.92905e-06
-5.33866e-07
3.93618e-05
2.10838e-06
-7.30748e-07
3.7806e-05
1.31206e-06
-9.87147e-07
3.64708e-05
9.86794e-07
-1.32367e-06
3.50735e-05
9.12395e-07
-1.75879e-06
3.34445e-05
9.67602e-07
-2.3088e-06
3.14423e-05
1.1112e-06
-2.99644e-06
2.89392e-05
1.3137e-06
-3.83568e-06
2.57736e-05
1.58466e-06
-4.85792e-06
2.1835e-05
1.86076e-06
-6.02106e-06
1.6894e-05
2.21624e-06
-7.37913e-06
1.10848e-05
2.39306e-06
-8.60473e-06
4.34634e-06
2.59223e-06
-9.58827e-06
1.16732e-06
-6.96561e-06
6.49556e-05
7.7602e-06
-2.22679e-07
6.44496e-05
6.95463e-06
-5.59802e-07
6.31294e-05
5.07317e-06
-8.54151e-07
6.15585e-05
3.41484e-06
-1.14699e-06
5.99375e-05
2.55436e-06
-1.51816e-06
5.8201e-05
2.19468e-06
-2.00543e-06
5.62096e-05
2.17929e-06
-2.63869e-06
5.38025e-05
2.39528e-06
-3.44473e-06
5.08015e-05
2.80039e-06
-4.45819e-06
4.70052e-05
3.36462e-06
-5.70531e-06
4.21767e-05
4.09887e-06
-7.2307e-06
3.60667e-05
4.9288e-06
-8.99306e-06
2.83777e-05
5.91936e-06
-1.10473e-05
1.90399e-05
6.70856e-06
-1.29745e-05
8.23692e-06
7.30835e-06
-1.44797e-05
4.72086e-06
-1.05513e-05
6.50857e-05
5.14954e-06
-2.34284e-07
6.58688e-05
6.07068e-06
-5.85684e-07
6.55894e-05
5.16891e-06
-8.88672e-07
6.4665e-05
4.06539e-06
-1.18796e-06
6.34114e-05
3.41744e-06
-1.56686e-06
6.18731e-05
3.18963e-06
-2.06462e-06
5.99851e-05
3.32381e-06
-2.71192e-06
5.76213e-05
3.75535e-06
-3.53641e-06
5.4614e-05
4.46459e-06
-4.57357e-06
5.07528e-05
5.43934e-06
-5.85151e-06
4.57755e-05
6.70785e-06
-7.41546e-06
3.93841e-05
8.20553e-06
-9.22786e-06
3.12121e-05
1.00082e-05
-1.13403e-05
2.11066e-05
1.16616e-05
-1.33338e-05
9.18714e-06
1.29793e-05
-1.48828e-05
9.11033e-06
-1.08163e-05
6.39618e-05
3.66588e-06
-2.23196e-07
6.48439e-05
5.09338e-06
-5.65766e-07
6.49946e-05
4.84237e-06
-8.60837e-07
6.45363e-05
4.25984e-06
-1.15176e-06
6.36594e-05
3.91712e-06
-1.51987e-06
6.24115e-05
3.91167e-06
-2.00271e-06
6.07591e-05
4.25634e-06
-2.62949e-06
5.86032e-05
4.9395e-06
-3.42652e-06
5.57916e-05
5.97652e-06
-4.42741e-06
5.21135e-05
7.38926e-06
-5.65961e-06
4.72906e-05
9.24056e-06
-7.16546e-06
4.09816e-05
1.15013e-05
-8.91215e-06
3.27482e-05
1.429e-05
-1.09449e-05
2.23533e-05
1.70629e-05
-1.28695e-05
9.77114e-06
1.94992e-05
-1.43581e-05
1.42292e-05
-1.04227e-05
6.33979e-05
2.75129e-06
-2.04014e-07
6.41714e-05
4.23446e-06
-5.29573e-07
6.44684e-05
4.38293e-06
-8.11874e-07
6.42829e-05
4.19854e-06
-1.09e-06
6.36963e-05
4.14832e-06
-1.44111e-06
6.27308e-05
4.38023e-06
-1.90006e-06
6.13568e-05
4.94941e-06
-2.49363e-06
5.94901e-05
5.88727e-06
-3.24573e-06
5.69938e-05
7.24534e-06
-4.1866e-06
5.36625e-05
9.09059e-06
-5.34178e-06
4.92101e-05
1.15367e-05
-6.74803e-06
4.324e-05
1.46365e-05
-8.37864e-06
3.52041e-05
1.86121e-05
-1.02677e-05
2.46146e-05
2.29547e-05
-1.20639e-05
1.10797e-05
2.73297e-05
-1.34377e-05
2.09324e-05
-9.74519e-06
6.3135e-05
2.10583e-06
-1.81224e-07
6.38223e-05
3.47364e-06
-4.85741e-07
6.42055e-05
3.85337e-06
-7.52725e-07
6.4221e-05
3.95674e-06
-1.01563e-06
6.38811e-05
4.15923e-06
-1.34625e-06
6.31856e-05
4.61357e-06
-1.77628e-06
6.21044e-05
5.39684e-06
-2.32949e-06
6.05632e-05
6.57368e-06
-3.02682e-06
5.84374e-05
8.23149e-06
-3.89422e-06
5.5524e-05
1.04939e-05
-4.95475e-06
5.15276e-05
1.35408e-05
-6.23794e-06
4.59853e-05
1.7563e-05
-7.72464e-06
3.8238e-05
2.29388e-05
-9.43349e-06
2.74923e-05
2.93674e-05
-1.10695e-05
1.28766e-05
3.66843e-05
-1.22962e-05
2.97628e-05
-8.92114e-06
6.3043e-05
1.55939e-06
-1.5531e-07
6.37144e-05
2.74233e-06
-4.35776e-07
6.41848e-05
3.25503e-06
-6.8539e-07
6.43708e-05
3.5678e-06
-9.30996e-07
6.4255e-05
3.97617e-06
-1.23812e-06
6.38309e-05
4.6158e-06
-1.63474e-06
6.30775e-05
5.57109e-06
-2.14098e-06
6.19447e-05
6.92699e-06
-2.7738e-06
6.03463e-05
8.79527e-06
-3.55329e-06
5.81267e-05
1.13503e-05
-4.4979e-06
5.50536e-05
1.48287e-05
-5.62608e-06
5.0675e-05
1.96136e-05
-6.92368e-06
4.43002e-05
2.62974e-05
-8.38477e-06
3.44742e-05
3.53903e-05
-9.78305e-06
1.91531e-05
4.74286e-05
-1.07659e-05
4.54008e-05
-7.79818e-06
6.30359e-05
-1.27736e-07
1.02752e-06
6.37521e-05
-3.82473e-07
1.98073e-06
6.43303e-05
-6.13561e-07
2.56862e-06
6.46782e-05
-8.40747e-07
3.04188e-06
6.47698e-05
-1.1228e-06
3.61796e-06
6.46017e-05
-1.48381e-06
4.40489e-06
6.41654e-05
-1.94001e-06
5.4864e-06
6.34325e-05
-2.50419e-06
6.96049e-06
6.23476e-05
-3.19045e-06
8.9567e-06
6.07922e-05
-4.01235e-06
1.16973e-05
5.85853e-05
-4.97729e-06
1.5467e-05
5.5292e-05
-6.07589e-06
2.08776e-05
5.02823e-05
-7.27771e-06
2.87066e-05
4.16925e-05
-8.42969e-06
4.07166e-05
2.71123e-05
-9.17337e-06
5.81206e-05
-6.74953e-06
6.94661e-05
5.223e-05
1.0242e-05
-9.63639e-08
4.55873e-05
6.55251e-06
-2.50786e-07
4.14973e-05
3.939e-06
-3.82914e-07
3.91626e-05
2.12004e-06
-5.16043e-07
3.75374e-05
1.32674e-06
-6.88771e-07
3.61234e-05
1.00596e-06
-9.15569e-07
3.46352e-05
9.3783e-07
-1.20841e-06
3.29019e-05
1.00152e-06
-1.57702e-06
3.07837e-05
1.1565e-06
-2.03478e-06
2.81609e-05
1.37415e-06
-2.58705e-06
2.4888e-05
1.66529e-06
-3.25023e-06
2.0886e-05
1.9683e-06
-3.98743e-06
1.59736e-05
2.35854e-06
-4.82528e-06
1.03332e-05
2.58195e-06
-5.54628e-06
3.99388e-06
2.82096e-06
-6.06987e-06
1.39207e-06
-4.36379e-06
6.49165e-05
7.76974e-06
-1.66926e-07
6.43415e-05
6.97373e-06
-4.05961e-07
6.29372e-05
5.09764e-06
-6.08559e-07
6.1273e-05
3.44453e-06
-8.07203e-07
5.95478e-05
2.59172e-06
-1.05794e-06
5.76922e-05
2.24312e-06
-1.38702e-06
5.55623e-05
2.24315e-06
-1.81409e-06
5.29947e-05
2.47988e-06
-2.35554e-06
4.98124e-05
2.91252e-06
-3.03194e-06
4.58246e-05
3.51208e-06
-3.85536e-06
4.0816e-05
4.29191e-06
-4.84873e-06
3.45865e-05
5.17658e-06
-5.97188e-06
2.691e-05
6.2351e-06
-7.24729e-06
1.7816e-05
7.09478e-06
-8.39331e-06
7.60848e-06
7.75537e-06
-9.20662e-06
5.08298e-06
-6.63369e-06
6.50463e-05
5.1643e-06
-1.75142e-07
6.57591e-05
6.09957e-06
-4.24334e-07
6.53941e-05
5.207e-06
-6.33044e-07
6.43744e-05
4.11234e-06
-8.36065e-07
6.30146e-05
3.47675e-06
-1.09209e-06
6.13548e-05
3.26658e-06
-1.4283e-06
5.93257e-05
3.42532e-06
-1.86497e-06
5.67983e-05
3.88992e-06
-2.419e-06
5.36057e-05
4.64303e-06
-3.11153e-06
4.95483e-05
5.67369e-06
-3.95574e-06
4.43858e-05
7.01386e-06
-4.97484e-06
3.78702e-05
8.5949e-06
-6.13066e-06
2.97083e-05
1.04998e-05
-7.4431e-06
1.98511e-05
1.22477e-05
-8.6295e-06
8.54256e-06
1.36474e-05
-9.46626e-06
9.61116e-06
-6.80185e-06
6.39235e-05
3.68517e-06
-1.67602e-07
6.47371e-05
5.13092e-06
-4.10708e-07
6.48048e-05
4.89243e-06
-6.13971e-07
6.42546e-05
4.32207e-06
-8.11218e-07
6.32753e-05
3.99602e-06
-1.05987e-06
6.19108e-05
4.01427e-06
-1.38593e-06
6.01233e-05
4.39199e-06
-1.80868e-06
5.78111e-05
5.11979e-06
-2.34417e-06
5.48228e-05
6.21629e-06
-3.01236e-06
5.09579e-05
7.70509e-06
-3.82607e-06
4.59587e-05
9.6543e-06
-4.80676e-06
3.95324e-05
1.20286e-05
-5.91949e-06
3.13104e-05
1.49573e-05
-7.18036e-06
2.1156e-05
1.7855e-05
-8.32245e-06
9.16316e-06
2.04036e-05
-9.1215e-06
1.48966e-05
-6.54498e-06
6.33612e-05
2.77431e-06
-1.54352e-07
6.40691e-05
4.27921e-06
-3.8576e-07
6.4287e-05
4.44291e-06
-5.80267e-07
6.40144e-05
4.27342e-06
-7.68763e-07
6.33316e-05
4.24354e-06
-1.00583e-06
6.22572e-05
4.50434e-06
-1.31565e-06
6.07575e-05
5.11389e-06
-1.71592e-06
5.87462e-05
6.10652e-06
-2.22117e-06
5.60872e-05
7.53801e-06
-2.84924e-06
5.25846e-05
9.47779e-06
-3.61192e-06
4.79716e-05
1.20467e-05
-4.5274e-06
4.18963e-05
1.52903e-05
-5.56513e-06
3.38747e-05
1.94461e-05
-6.7348e-06
2.35121e-05
2.39506e-05
-7.79696e-06
1.05255e-05
2.84803e-05
-8.52775e-06
2.17888e-05
-6.11178e-06
6.31001e-05
2.13168e-06
-1.38657e-07
6.37253e-05
3.52381e-06
-3.55577e-07
6.40342e-05
3.92078e-06
-5.39551e-07
6.39685e-05
4.04114e-06
-7.17629e-07
6.35397e-05
4.2668e-06
-9.40729e-07
6.27446e-05
4.75409e-06
-1.23088e-06
6.15493e-05
5.58355e-06
-1.60384e-06
5.98778e-05
6.82342e-06
-2.07219e-06
5.76063e-05
8.56633e-06
-2.65111e-06
5.45408e-05
1.09395e-05
-3.35099e-06
5.04034e-05
1.41319e-05
-4.18571e-06
4.47716e-05
1.83276e-05
-5.13012e-06
3.70437e-05
2.39254e-05
-6.18495e-06
2.65108e-05
3.05606e-05
-7.14656e-06
1.23925e-05
3.80915e-05
-7.78913e-06
3.08411e-05
-5.58089e-06
6.30102e-05
1.58699e-06
-1.20798e-07
6.36236e-05
2.79582e-06
-3.21162e-07
6.40252e-05
3.327e-06
-4.93215e-07
6.41367e-05
3.65805e-06
-6.59477e-07
6.39407e-05
4.09132e-06
-8.66582e-07
6.34278e-05
4.76637e-06
-1.13409e-06
6.25743e-05
5.77139e-06
-1.47536e-06
6.13291e-05
7.19538e-06
-1.90052e-06
5.96073e-05
9.15595e-06
-2.42113e-06
5.72618e-05
1.18321e-05
-3.04507e-06
5.40766e-05
1.54709e-05
-3.77983e-06
4.96348e-05
2.04504e-05
-4.60475e-06
4.32946e-05
2.73877e-05
-5.50682e-06
3.36705e-05
3.67277e-05
-6.32606e-06
1.87806e-05
4.90461e-05
-6.83054e-06
4.67092e-05
-4.88572e-06
6.30054e-05
-1.0181e-07
1.0557e-06
6.36679e-05
-2.8446e-07
2.03528e-06
6.41831e-05
-4.43795e-07
2.64205e-06
6.44638e-05
-5.97469e-07
3.13402e-06
6.44843e-05
-7.87506e-07
3.73559e-06
6.42389e-05
-1.03085e-06
4.55876e-06
6.37174e-05
-1.33833e-06
5.69119e-06
6.28908e-05
-1.71743e-06
7.23519e-06
6.17059e-05
-2.17598e-06
9.32639e-06
6.00523e-05
-2.71915e-06
1.21926e-05
5.77645e-05
-3.34789e-06
1.61293e-05
5.4438e-05
-4.04583e-06
2.17468e-05
4.94855e-05
-4.78616e-06
2.98487e-05
4.10977e-05
-5.45549e-06
4.21414e-05
2.68973e-05
-5.82344e-06
5.98965e-05
-4.22486e-06