/*--------------------------------*- C++ -*----------------------------------*\
| =========                 |                                                 |
| \\      /  F ield         | OpenFOAM: The Open Source CFD Toolbox           |
|  \\    /   O peration     | Version:  v1912                                 |
|   \\  /    A nd           | Website:  www.openfoam.com                      |
|    \\/     M anipulation  |                                                 |
\*---------------------------------------------------------------------------*/
FoamFile
{
    version     2.0;
    format      ascii;
    class       pointVectorField;
    location    "0.21/fluid";
    object      pointMotionU;
}
// * * * * * * * * * * * * * * * * * * * * * * * * * * * * * * * * * * * * * //

dimensions      [0 1 -1 0 0 0 0];


internalField   nonuniform List<vector> 
16859
(
(0 0 0)
(0 0 0)
(0 0 0)
(0 0 0)
(0 0 0)
(0 0 0)
(0 0 0)
(0 0 0)
(0 0 0)
(0 0 0)
(0 0 0)
(0 0 0)
(0 0 0)
(0 0 0)
(0 0 0)
(0 0 0)
(3.52964e-08 6.98962e-08 3.41775e-08)
(0 0 0)
(7.81152e-10 -2.63437e-09 2.00993e-09)
(1.47865e-09 -5.04442e-09 3.90818e-09)
(2.10839e-09 -7.33145e-09 5.82631e-09)
(2.68399e-09 -9.57233e-09 7.87985e-09)
(3.21859e-09 -1.18112e-08 1.0168e-08)
(3.72563e-09 -1.40566e-08 1.27768e-08)
(4.22017e-09 -1.62826e-08 1.57866e-08)
(4.72287e-09 -1.84196e-08 1.92757e-08)
(5.27203e-09 -2.0325e-08 2.33176e-08)
(5.9525e-09 -2.17312e-08 2.79799e-08)
(6.95493e-09 -2.21454e-08 3.33316e-08)
(8.76617e-09 -2.06096e-08 3.95048e-08)
(1.2487e-08 -1.52342e-08 4.6886e-08)
(2.03434e-08 -2.39285e-09 5.65054e-08)
(3.43604e-08 2.09719e-08 6.89502e-08)
(7.01521e-08 7.41373e-08 8.48774e-08)
(0 0 0)
(1.55495e-09 -5.1966e-09 3.97625e-09)
(2.94356e-09 -9.9556e-09 7.73211e-09)
(4.19894e-09 -1.44752e-08 1.15245e-08)
(5.35019e-09 -1.89032e-08 1.5576e-08)
(6.42421e-09 -2.33318e-08 2.00812e-08)
(7.44849e-09 -2.77937e-08 2.52143e-08)
(8.45314e-09 -3.22581e-08 3.11379e-08)
(9.47785e-09 -3.66127e-08 3.80047e-08)
(1.05899e-08 -4.06224e-08 4.59513e-08)
(1.19153e-08 -4.38632e-08 5.50825e-08)
(1.37349e-08 -4.56005e-08 6.54586e-08)
(1.67045e-08 -4.45927e-08 7.71008e-08)
(2.21276e-08 -3.89591e-08 9.00648e-08)
(3.21746e-08 -2.65205e-08 1.04451e-07)
(4.75589e-08 -8.55749e-09 1.18724e-07)
(8.83246e-08 1.58436e-08 1.42629e-07)
(0 0 0)
(2.31454e-09 -7.60677e-09 5.85326e-09)
(4.38299e-09 -1.45797e-08 1.13806e-08)
(6.25759e-09 -2.12095e-08 1.69552e-08)
(7.9841e-09 -2.77142e-08 2.2897e-08)
(9.60581e-09 -3.42419e-08 2.94912e-08)
(1.11665e-08 -4.0866e-08 3.69981e-08)
(1.27143e-08 -4.75782e-08 4.5661e-08)
(1.43094e-08 -5.4268e-08 5.57068e-08)
(1.60383e-08 -6.06834e-08 6.73329e-08)
(1.80353e-08 -6.63737e-08 8.06767e-08)
(2.05741e-08 -7.05856e-08 9.57704e-08)
(2.42199e-08 -7.21616e-08 1.12478e-07)
(2.99806e-08 -6.96379e-08 1.30441e-07)
(3.94174e-08 -6.19085e-08 1.48949e-07)
(5.28093e-08 -5.08984e-08 1.65518e-07)
(8.70089e-08 -3.48624e-08 1.88601e-07)
(0 0 0)
(3.05162e-09 -9.78003e-09 7.59616e-09)
(5.78164e-09 -1.87536e-08 1.47647e-08)
(8.26251e-09 -2.72996e-08 2.19824e-08)
(1.05586e-08 -3.57071e-08 2.9657e-08)
(1.27322e-08 -4.41848e-08 3.81545e-08)
(1.48474e-08 -5.28611e-08 4.78139e-08)
(1.69758e-08 -6.17776e-08 5.89559e-08)
(1.92048e-08 -7.08699e-08 7.18815e-08)
(2.16445e-08 -7.99409e-08 8.6856e-08)
(2.44421e-08 -8.86153e-08 1.04072e-07)
(2.78321e-08 -9.62518e-08 1.23579e-07)
(3.22012e-08 -1.01852e-07 1.4517e-07)
(3.80893e-08 -1.04078e-07 1.6818e-07)
(4.62119e-08 -1.01591e-07 1.9113e-07)
(5.64544e-08 -9.48548e-08 2.10236e-07)
(8.44169e-08 -7.99942e-08 2.32796e-07)
(0 0 0)
(3.75592e-09 -1.1634e-08 9.16642e-09)
(7.11955e-09 -2.23191e-08 1.78079e-08)
(1.01838e-08 -3.25163e-08 2.64897e-08)
(1.30331e-08 -4.25827e-08 3.56943e-08)
(1.57501e-08 -5.279e-08 4.58557e-08)
(1.84232e-08 -6.33305e-08 5.73802e-08)
(2.11538e-08 -7.43132e-08 7.0657e-08)
(2.40673e-08 -8.57541e-08 8.60586e-08)
(2.73182e-08 -9.75647e-08 1.03927e-07)
(3.11035e-08 -1.09524e-07 1.24544e-07)
(3.56902e-08 -1.21212e-07 1.4807e-07)
(4.14155e-08 -1.31879e-07 1.74423e-07)
(4.85539e-08 -1.40244e-07 2.02965e-07)
(5.71439e-08 -1.44215e-07 2.31847e-07)
(6.62232e-08 -1.4171e-07 2.55762e-07)
(8.9926e-08 -1.2518e-07 2.80233e-07)
(0 0 0)
(4.41512e-09 -1.30922e-08 1.05328e-08)
(8.37236e-09 -2.51301e-08 2.04491e-08)
(1.19843e-08 -3.66461e-08 3.03852e-08)
(1.5354e-08 -4.80583e-08 4.08815e-08)
(1.85852e-08 -5.96971e-08 5.24234e-08)
(2.17909e-08 -7.18182e-08 6.54679e-08)
(2.51056e-08 -8.46054e-08 8.04584e-08)
(2.87001e-08 -9.81696e-08 9.78277e-08)
(3.27933e-08 -1.12557e-07 1.1799e-07)
(3.76779e-08 -1.27756e-07 1.41332e-07)
(4.37748e-08 -1.43666e-07 1.68205e-07)
(5.16507e-08 -1.60026e-07 1.98869e-07)
(6.18898e-08 -1.76166e-07 2.33212e-07)
(7.47748e-08 -1.9034e-07 2.69979e-07)
(8.84484e-08 -1.98528e-07 3.02931e-07)
(1.13591e-07 -1.81933e-07 3.35431e-07)
(0 0 0)
(5.0159e-09 -1.40893e-08 1.16739e-08)
(9.51364e-09 -2.70611e-08 2.2647e-08)
(1.36225e-08 -3.95032e-08 3.36064e-08)
(1.74619e-08 -5.18822e-08 4.51315e-08)
(2.11526e-08 -6.45776e-08 5.77397e-08)
(2.48288e-08 -7.78999e-08 7.19185e-08)
(2.86527e-08 -9.2098e-08 8.81425e-08)
(3.28349e-08 -1.07369e-07 1.06879e-07)
(3.76528e-08 -1.23885e-07 1.28584e-07)
(4.35085e-08 -1.41822e-07 1.53723e-07)
(5.10131e-08 -1.61412e-07 1.82816e-07)
(6.11087e-08 -1.83e-07 2.16494e-07)
(7.51694e-08 -2.07066e-07 2.55456e-07)
(9.50105e-08 -2.34017e-07 3.00052e-07)
(1.19655e-07 -2.60948e-07 3.45133e-07)
(1.69282e-07 -2.93861e-07 4.05622e-07)
(0 0 0)
(5.54571e-09 -1.45741e-08 1.2579e-08)
(1.05188e-08 -2.80134e-08 2.43819e-08)
(1.5061e-08 -4.09413e-08 3.61257e-08)
(1.93025e-08 -5.3856e-08 4.84087e-08)
(2.33751e-08 -6.71698e-08 6.17594e-08)
(2.74249e-08 -8.12307e-08 7.66716e-08)
(3.16285e-08 -9.63331e-08 9.36231e-08)
(3.62131e-08 -1.12731e-07 1.13078e-07)
(4.14838e-08 -1.30668e-07 1.35483e-07)
(4.78805e-08 -1.5042e-07 1.61293e-07)
(5.60727e-08 -1.72365e-07 1.91039e-07)
(6.70936e-08 -1.97085e-07 2.25415e-07)
(8.24677e-08 -2.25485e-07 2.65308e-07)
(1.04224e-07 -2.5881e-07 3.11634e-07)
(1.30697e-07 -2.93984e-07 3.59196e-07)
(2.09937e-07 -3.69971e-07 4.51984e-07)
(0 0 0)
(0 0 0)
(0 0 0)
(0 0 0)
(0 0 0)
(0 0 0)
(0 0 0)
(0 0 0)
(0 0 0)
(0 0 0)
(0 0 0)
(0 0 0)
(0 0 0)
(0 0 0)
(0 0 0)
(0 0 0)
(4.50272e-09 3.16439e-08 1.82652e-08)
(0 0 0)
(7.43742e-10 -2.69385e-09 1.95242e-09)
(1.40306e-09 -5.15799e-09 3.79325e-09)
(1.9886e-09 -7.49697e-09 5.64842e-09)
(2.50776e-09 -9.79196e-09 7.62911e-09)
(2.96594e-09 -1.20913e-08 9.83047e-09)
(3.36607e-09 -1.44071e-08 1.23337e-08)
(3.70727e-09 -1.67174e-08 1.52128e-08)
(3.9846e-09 -1.89604e-08 1.85376e-08)
(4.19316e-09 -2.10098e-08 2.23681e-08)
(4.34395e-09 -2.26314e-08 2.67465e-08)
(4.51215e-09 -2.33963e-08 3.16955e-08)
(4.94946e-09 -2.24959e-08 3.72403e-08)
(6.25699e-09 -1.83702e-08 4.35017e-08)
(9.58804e-09 -8.18843e-09 5.08392e-08)
(1.58685e-08 1.02847e-08 5.90681e-08)
(1.96258e-08 3.56586e-08 6.52012e-08)
(0 0 0)
(1.48262e-09 -5.31223e-09 3.86091e-09)
(2.79775e-09 -1.01761e-08 7.50159e-09)
(3.96838e-09 -1.47974e-08 1.11691e-08)
(5.01188e-09 -1.93323e-08 1.50774e-08)
(5.94114e-09 -2.38801e-08 1.94128e-08)
(6.76424e-09 -2.84788e-08 2.43394e-08)
(7.48215e-09 -3.31046e-08 3.0007e-08)
(8.08844e-09 -3.76585e-08 3.65523e-08)
(8.57336e-09 -4.19324e-08 4.40866e-08)
(8.94687e-09 -4.55524e-08 5.2675e-08)
(9.30327e-09 -4.78887e-08 6.23062e-08)
(9.97708e-09 -4.79167e-08 7.28606e-08)
(1.17286e-08 -4.41771e-08 8.41038e-08)
(1.59218e-08 -3.52825e-08 9.56112e-08)
(2.341e-08 -2.2721e-08 1.06025e-07)
(3.05521e-08 -1.71284e-08 1.1741e-07)
(0 0 0)
(2.21226e-09 -7.77399e-09 5.68192e-09)
(4.17711e-09 -1.48991e-08 1.10388e-08)
(5.93283e-09 -2.16774e-08 1.64295e-08)
(7.50999e-09 -2.83381e-08 2.21621e-08)
(8.93313e-09 -3.50375e-08 2.85089e-08)
(1.02206e-08 -4.18561e-08 3.57146e-08)
(1.13828e-08 -4.87936e-08 4.40047e-08)
(1.24207e-08 -5.57542e-08 5.35826e-08)
(1.33272e-08 -6.25142e-08 6.4613e-08)
(1.40983e-08 -6.86761e-08 7.71867e-08)
(1.4792e-08 -7.35972e-08 9.12588e-08)
(1.56309e-08 -7.63359e-08 1.06562e-07)
(1.71194e-08 -7.58268e-08 1.22499e-07)
(2.02368e-08 -7.1642e-08 1.37995e-07)
(2.57482e-08 -6.58179e-08 1.51002e-07)
(2.88949e-08 -6.42632e-08 1.62289e-07)
(0 0 0)
(2.9261e-09 -9.99331e-09 7.3727e-09)
(5.52949e-09 -1.91616e-08 1.43197e-08)
(7.86637e-09 -2.78979e-08 2.12996e-08)
(9.98399e-09 -3.65037e-08 2.87047e-08)
(1.19237e-08 -4.51972e-08 3.68837e-08)
(1.37214e-08 -5.41141e-08 4.61559e-08)
(1.5408e-08 -6.33033e-08 5.6819e-08)
(1.70075e-08 -7.27125e-08 6.91449e-08)
(1.85344e-08 -8.21664e-08 8.33609e-08)
(1.99896e-08 -9.13333e-08 9.96074e-08)
(2.13847e-08 -9.96562e-08 1.17857e-07)
(2.27469e-08 -1.06298e-07 1.37784e-07)
(2.40928e-08 -1.10216e-07 1.5853e-07)
(2.55704e-08 -1.10584e-07 1.78339e-07)
(2.75839e-08 -1.08058e-07 1.93978e-07)
(2.67435e-08 -1.07247e-07 2.05141e-07)
(0 0 0)
(3.61487e-09 -1.18862e-08 8.89613e-09)
(6.83691e-09 -2.2802e-08 1.72704e-08)
(9.74213e-09 -3.32242e-08 2.56667e-08)
(1.23973e-08 -4.35231e-08 3.45484e-08)
(1.48646e-08 -5.39805e-08 4.43289e-08)
(1.72046e-08 -6.47954e-08 5.53912e-08)
(1.948e-08 -7.60819e-08 6.8097e-08)
(2.17575e-08 -8.78629e-08 8.2785e-08)
(2.41035e-08 -1.00062e-07 9.97542e-08)
(2.65798e-08 -1.1248e-07 1.19226e-07)
(2.92359e-08 -1.24739e-07 1.41274e-07)
(3.20397e-08 -1.36164e-07 1.65688e-07)
(3.46838e-08 -1.45605e-07 1.91637e-07)
(3.64436e-08 -1.51202e-07 2.17011e-07)
(3.65909e-08 -1.51075e-07 2.37248e-07)
(3.18796e-08 -1.49094e-07 2.50363e-07)
(0 0 0)
(4.26638e-09 -1.33746e-08 1.02221e-08)
(8.07522e-09 -2.56707e-08 1.98319e-08)
(1.15227e-08 -3.74377e-08 2.94416e-08)
(1.46956e-08 -4.91077e-08 3.957e-08)
(1.76787e-08 -6.1021e-08 5.06791e-08)
(2.05607e-08 -7.34388e-08 6.31998e-08)
(2.34432e-08 -8.65472e-08 7.75444e-08)
(2.64484e-08 -1.00458e-07 9.41075e-08)
(2.97245e-08 -1.15218e-07 1.13254e-07)
(3.34562e-08 -1.30816e-07 1.35303e-07)
(3.78804e-08 -1.47151e-07 1.60492e-07)
(4.32381e-08 -1.63955e-07 1.88905e-07)
(4.95594e-08 -1.80537e-07 2.2016e-07)
(5.62303e-08 -1.95065e-07 2.52563e-07)
(6.12165e-08 -2.03633e-07 2.80712e-07)
(5.32187e-08 -1.97002e-07 3.00661e-07)
(0 0 0)
(4.86662e-09 -1.43915e-08 1.13296e-08)
(9.21642e-09 -2.76396e-08 2.19639e-08)
(1.31639e-08 -4.03497e-08 3.25639e-08)
(1.68141e-08 -5.30024e-08 4.36854e-08)
(2.02719e-08 -6.59868e-08 5.58211e-08)
(2.3652e-08 -7.96177e-08 6.94297e-08)
(2.70915e-08 -9.41434e-08 8.49526e-08)
(3.07655e-08 -1.09757e-07 1.02816e-07)
(3.49048e-08 -1.2662e-07 1.23425e-07)
(3.98378e-08 -1.44892e-07 1.47161e-07)
(4.60542e-08 -1.64775e-07 1.74405e-07)
(5.42878e-08 -1.86556e-07 2.05561e-07)
(6.55818e-08 -2.10636e-07 2.40908e-07)
(8.1241e-08 -2.37221e-07 2.7997e-07)
(1.00656e-07 -2.63816e-07 3.18078e-07)
(1.1266e-07 -2.88368e-07 3.49972e-07)
(0 0 0)
(5.40168e-09 -1.48848e-08 1.22081e-08)
(1.02331e-08 -2.86084e-08 2.36472e-08)
(1.46233e-08 -4.18115e-08 3.50068e-08)
(1.86906e-08 -5.50067e-08 4.6861e-08)
(2.25542e-08 -6.86149e-08 5.97119e-08)
(2.6346e-08 -8.29873e-08 7.40236e-08)
(3.02251e-08 -9.84159e-08 9.02401e-08)
(3.43971e-08 -1.15146e-07 1.08786e-07)
(3.91411e-08 -1.33404e-07 1.30055e-07)
(4.48583e-08 -1.53435e-07 1.54415e-07)
(5.21566e-08 -1.75562e-07 1.82248e-07)
(6.19728e-08 -2.00278e-07 2.14004e-07)
(7.57154e-08 -2.28331e-07 2.5011e-07)
(9.53151e-08 -2.60602e-07 2.90526e-07)
(1.19912e-07 -2.94212e-07 3.30294e-07)
(1.69712e-07 -3.44088e-07 3.78457e-07)
(0 0 0)
(0 0 0)
(0 0 0)
(0 0 0)
(0 0 0)
(0 0 0)
(0 0 0)
(0 0 0)
(0 0 0)
(0 0 0)
(0 0 0)
(0 0 0)
(0 0 0)
(0 0 0)
(0 0 0)
(0 0 0)
(-1.55965e-08 7.33084e-09 4.15658e-09)
(0 0 0)
(7.01493e-10 -2.74585e-09 1.82094e-09)
(1.31757e-09 -5.25816e-09 3.5361e-09)
(1.85272e-09 -7.64421e-09 5.26127e-09)
(2.30721e-09 -9.98719e-09 7.09745e-09)
(2.67722e-09 -1.23388e-08 9.13099e-09)
(2.95282e-09 -1.47167e-08 1.14351e-08)
(3.11333e-09 -1.71072e-08 1.40746e-08)
(3.12162e-09 -1.94627e-08 1.71054e-08)
(2.91793e-09 -2.16868e-08 2.05659e-08)
(2.41492e-09 -2.36087e-08 2.44591e-08)
(1.50225e-09 -2.49421e-08 2.87218e-08)
(3.0099e-11 -2.52205e-08 3.31823e-08)
(-2.30807e-09 -2.37237e-08 3.74649e-08)
(-6.2946e-09 -1.95799e-08 4.07423e-08)
(-1.30787e-08 -1.30881e-08 4.13956e-08)
(-2.76446e-08 -7.42512e-09 2.89868e-08)
(0 0 0)
(1.40081e-09 -5.41342e-09 3.60022e-09)
(2.63254e-09 -1.03701e-08 6.99105e-09)
(3.70641e-09 -1.50814e-08 1.03998e-08)
(4.62628e-09 -1.97092e-08 1.40227e-08)
(5.38811e-09 -2.43588e-08 1.80288e-08)
(5.97623e-09 -2.90763e-08 2.25652e-08)
(6.35566e-09 -3.38503e-08 2.77621e-08)
(6.46241e-09 -3.86052e-08 3.37301e-08)
(6.1912e-09 -4.31805e-08 4.05418e-08)
(5.3901e-09 -4.72991e-08 4.81943e-08)
(3.86977e-09 -5.05327e-08 5.65478e-08)
(1.41076e-09 -5.22897e-08 6.52185e-08)
(-2.27725e-09 -5.19661e-08 7.33824e-08)
(-7.57838e-09 -4.95516e-08 7.94362e-08)
(-1.4444e-08 -4.69021e-08 8.11055e-08)
(-2.49781e-08 -5.09189e-08 7.18759e-08)
(0 0 0)
(2.0961e-09 -7.9202e-09 5.29765e-09)
(3.94303e-09 -1.51786e-08 1.02857e-08)
(5.56271e-09 -2.20857e-08 1.52951e-08)
(6.96761e-09 -2.88789e-08 2.0609e-08)
(8.15971e-09 -3.57222e-08 2.64745e-08)
(9.12616e-09 -4.27037e-08 3.31105e-08)
(9.83067e-09 -4.98363e-08 4.07129e-08)
(1.02011e-08 -5.70486e-08 4.9448e-08)
(1.0112e-08 -6.41657e-08 5.94271e-08)
(9.37105e-09 -7.08859e-08 7.06562e-08)
(7.718e-09 -7.67598e-08 8.29489e-08)
(4.80742e-09 -8.12331e-08 9.57754e-08)
(1.92746e-10 -8.39186e-08 1.08017e-07)
(-6.51873e-09 -8.52715e-08 1.17659e-07)
(-1.48077e-08 -8.70885e-08 1.22101e-07)
(-2.78332e-08 -9.25464e-08 1.14947e-07)
(0 0 0)
(2.78275e-09 -1.01792e-08 6.87391e-09)
(5.24124e-09 -1.95162e-08 1.33421e-08)
(7.41237e-09 -2.84147e-08 1.98279e-08)
(9.32267e-09 -3.71855e-08 2.66917e-08)
(1.09877e-08 -4.60544e-08 3.42506e-08)
(1.24086e-08 -5.51637e-08 4.279e-08)
(1.35648e-08 -6.4571e-08 5.25686e-08)
(1.44015e-08 -7.42418e-08 6.38102e-08)
(1.48087e-08 -8.40366e-08 7.6675e-08)
(1.4593e-08 -9.36928e-08 9.12044e-08)
(1.34437e-08 -1.02796e-07 1.07217e-07)
(1.08345e-08 -1.10797e-07 1.24128e-07)
(5.91162e-09 -1.17182e-07 1.40634e-07)
(-2.34461e-09 -1.21921e-07 1.54297e-07)
(-1.35488e-08 -1.25844e-07 1.61749e-07)
(-3.01483e-08 -1.32035e-07 1.56042e-07)
(0 0 0)
(3.45256e-09 -1.21048e-08 8.29436e-09)
(6.51141e-09 -2.32185e-08 1.60915e-08)
(9.23198e-09 -3.38295e-08 2.38932e-08)
(1.16594e-08 -4.43179e-08 3.21255e-08)
(1.38294e-08 -5.4972e-08 4.11644e-08)
(1.57677e-08 -6.59938e-08 5.1352e-08)
(1.74866e-08 -7.75003e-08 6.30029e-08)
(1.89758e-08 -8.95202e-08 7.63967e-08)
(2.01833e-08 -1.01989e-07 9.17508e-08)
(2.0983e-08 -1.14736e-07 1.09166e-07)
(2.11087e-08 -1.27443e-07 1.28525e-07)
(1.99775e-08 -1.39577e-07 1.49305e-07)
(1.63943e-08 -1.50323e-07 1.70181e-07)
(8.41694e-09 -1.58561e-07 1.88422e-07)
(-4.72616e-09 -1.63264e-07 1.9976e-07)
(-2.55237e-08 -1.68512e-07 1.96466e-07)
(0 0 0)
(4.09355e-09 -1.36178e-08 9.53092e-09)
(7.7297e-09 -2.61336e-08 1.84786e-08)
(1.09842e-08 -3.81084e-08 2.74078e-08)
(1.39228e-08 -4.99839e-08 3.67956e-08)
(1.66055e-08 -6.21052e-08 4.70623e-08)
(1.90887e-08 -7.47333e-08 5.85926e-08)
(2.14281e-08 -8.80492e-08 7.17445e-08)
(2.36775e-08 -1.02157e-07 8.68443e-08)
(2.58804e-08 -1.1709e-07 1.04161e-07)
(2.80534e-08 -1.32812e-07 1.23861e-07)
(3.01352e-08 -1.49187e-07 1.4593e-07)
(3.1818e-08 -1.65895e-07 1.7e-07)
(3.21736e-08 -1.8223e-07 1.94909e-07)
(2.90979e-08 -1.96591e-07 2.1787e-07)
(2.01082e-08 -2.05959e-07 2.33675e-07)
(-4.96161e-09 -2.04126e-07 2.34284e-07)
(0 0 0)
(4.69107e-09 -1.46503e-08 1.05639e-08)
(8.86662e-09 -2.81313e-08 2.04657e-08)
(1.2622e-08 -4.10603e-08 3.03155e-08)
(1.60433e-08 -5.3927e-08 4.06247e-08)
(1.92131e-08 -6.71234e-08 5.18409e-08)
(2.22183e-08 -8.09601e-08 6.43728e-08)
(2.51573e-08 -9.56744e-08 7.8604e-08)
(2.81488e-08 -1.11439e-07 9.48869e-08)
(3.13395e-08 -1.28378e-07 1.13518e-07)
(3.49168e-08 -1.46585e-07 1.34703e-07)
(3.91123e-08 -1.66133e-07 1.58507e-07)
(4.41532e-08 -1.87069e-07 1.84722e-07)
(5.01116e-08 -2.09333e-07 2.12419e-07)
(5.65148e-08 -2.32322e-07 2.38931e-07)
(6.14891e-08 -2.53009e-07 2.58172e-07)
(5.37243e-08 -2.69908e-07 2.582e-07)
(0 0 0)
(5.22984e-09 -1.51495e-08 1.13833e-08)
(9.89202e-09 -2.9111e-08 2.20352e-08)
(1.40983e-08 -4.25366e-08 3.2592e-08)
(1.79506e-08 -5.59468e-08 4.35818e-08)
(2.15495e-08 -6.97648e-08 5.54602e-08)
(2.50037e-08 -8.43352e-08 6.86408e-08)
(2.84424e-08 -9.99337e-08 8.35092e-08)
(3.20283e-08 -1.16777e-07 1.00416e-07)
(3.59775e-08 -1.3504e-07 1.19646e-07)
(4.05861e-08 -1.54876e-07 1.41388e-07)
(4.62633e-08 -1.76433e-07 1.65703e-07)
(5.3549e-08 -1.9987e-07 1.92408e-07)
(6.30866e-08 -2.25288e-07 2.20689e-07)
(7.54064e-08 -2.52318e-07 2.48206e-07)
(8.89445e-08 -2.77147e-07 2.68805e-07)
(1.14525e-07 -3.0471e-07 2.66368e-07)
(0 0 0)
(0 0 0)
(0 0 0)
(0 0 0)
(0 0 0)
(0 0 0)
(0 0 0)
(0 0 0)
(0 0 0)
(0 0 0)
(0 0 0)
(0 0 0)
(0 0 0)
(0 0 0)
(0 0 0)
(0 0 0)
(-2.22801e-08 -1.76819e-09 4.54049e-09)
(0 0 0)
(6.58108e-10 -2.78808e-09 1.62179e-09)
(1.22991e-09 -5.33924e-09 3.14788e-09)
(1.71331e-09 -7.7635e-09 4.68032e-09)
(2.10112e-09 -1.01465e-08 6.30726e-09)
(2.38019e-09 -1.2543e-08 8.10318e-09)
(2.52789e-09 -1.49752e-08 1.01302e-08)
(2.50448e-09 -1.7437e-08 1.24408e-08)
(2.2428e-09 -1.98963e-08 1.50764e-08)
(1.63462e-09 -2.22874e-08 1.80552e-08)
(5.11585e-10 -2.45024e-08 2.13493e-08)
(-1.38354e-09 -2.63858e-08 2.48482e-08)
(-4.46736e-09 -2.77404e-08 2.82945e-08)
(-9.51176e-09 -2.83761e-08 3.1182e-08)
(-1.78794e-08 -2.82515e-08 3.25982e-08)
(-3.02204e-08 -2.77168e-08 3.14238e-08)
(-4.50715e-08 -2.52406e-08 2.59986e-08)
(0 0 0)
(1.31676e-09 -5.4961e-09 3.20644e-09)
(2.46283e-09 -1.05287e-08 6.22339e-09)
(3.43696e-09 -1.53142e-08 9.2511e-09)
(4.2291e-09 -2.0019e-08 1.2461e-08)
(4.81798e-09 -2.47536e-08 1.59994e-08)
(5.16441e-09 -2.95711e-08 1.99905e-08)
(5.19862e-09 -3.44724e-08 2.45407e-08)
(4.80306e-09 -3.94066e-08 2.97315e-08)
(3.78914e-09 -4.42611e-08 3.55981e-08)
(1.8701e-09 -4.8854e-08 4.20872e-08)
(-1.36128e-09 -5.29382e-08 4.89858e-08)
(-6.47522e-09 -5.62551e-08 5.58067e-08)
(-1.42271e-08 -5.87082e-08 6.16305e-08)
(-2.51961e-08 -6.06782e-08 6.49599e-08)
(-3.77961e-08 -6.29849e-08 6.44237e-08)
(-4.72107e-08 -6.77406e-08 6.22361e-08)
(0 0 0)
(1.97647e-09 -8.04035e-09 4.71861e-09)
(3.70184e-09 -1.54086e-08 9.15684e-09)
(5.18088e-09 -2.24218e-08 1.3606e-08)
(6.40726e-09 -2.93236e-08 1.83142e-08)
(7.35994e-09 -3.62832e-08 2.34949e-08)
(7.99492e-09 -4.3396e-08 2.93336e-08)
(8.23065e-09 -5.0687e-08 3.59901e-08)
(7.92701e-09 -5.81095e-08 4.35883e-08)
(6.85621e-09 -6.55365e-08 5.21867e-08)
(4.66996e-09 -7.2757e-08 6.17263e-08)
(8.74368e-10 -7.94882e-08 7.1936e-08)
(-5.20361e-09 -8.54582e-08 8.21994e-08)
(-1.43319e-08 -9.06455e-08 9.13937e-08)
(-2.67425e-08 -9.56214e-08 9.78297e-08)
(-4.00656e-08 -1.01086e-07 1.00054e-07)
(-5.05136e-08 -1.07484e-07 1.00454e-07)
(0 0 0)
(2.63461e-09 -1.03323e-08 6.12337e-09)
(4.94318e-09 -1.98086e-08 1.1879e-08)
(6.94225e-09 -2.88398e-08 1.76394e-08)
(8.63658e-09 -3.77432e-08 2.37207e-08)
(1.00154e-08 -4.67492e-08 3.03971e-08)
(1.10445e-08 -5.60044e-08 3.79103e-08)
(1.16533e-08 -6.55744e-08 4.64716e-08)
(1.17135e-08 -7.54402e-08 5.62487e-08)
(1.10065e-08 -8.5494e-08 6.73334e-08)
(9.1821e-09 -9.55318e-08 7.96824e-08)
(5.70282e-09 -1.05251e-07 9.30151e-08)
(-2.43005e-10 -1.14293e-07 1.06664e-07)
(-9.71687e-09 -1.22401e-07 1.19393e-07)
(-2.33916e-08 -1.2967e-07 1.29317e-07)
(-3.89826e-08 -1.36256e-07 1.34543e-07)
(-5.21513e-08 -1.43087e-07 1.37158e-07)
(0 0 0)
(3.28412e-09 -1.22848e-08 7.3896e-09)
(6.17333e-09 -2.35614e-08 1.43282e-08)
(8.70115e-09 -3.43255e-08 2.12578e-08)
(1.08897e-08 -4.49628e-08 2.85517e-08)
(1.27475e-08 -5.57641e-08 3.65352e-08)
(1.42642e-08 -6.69318e-08 4.54981e-08)
(1.54018e-08 -7.85826e-08 5.56969e-08)
(1.60779e-08 -9.07461e-08 6.7342e-08)
(1.61351e-08 -1.03362e-07 8.05634e-08)
(1.52966e-08 -1.16269e-07 9.53497e-08)
(1.30807e-08 -1.29176e-07 1.11444e-07)
(8.63639e-09 -1.41611e-07 1.28184e-07)
(5.82844e-10 -1.52885e-07 1.44273e-07)
(-1.26467e-08 -1.62028e-07 1.57624e-07)
(-2.99104e-08 -1.67868e-07 1.65824e-07)
(-4.67951e-08 -1.72441e-07 1.70808e-07)
(0 0 0)
(3.91324e-09 -1.38176e-08 8.49211e-09)
(7.36886e-09 -2.65132e-08 1.64553e-08)
(1.04205e-08 -3.86548e-08 2.43869e-08)
(1.31116e-08 -5.0688e-08 3.27052e-08)
(1.54754e-08 -6.29581e-08 4.17736e-08)
(1.75343e-08 -7.57217e-08 5.19173e-08)
(1.92975e-08 -8.91501e-08 6.34284e-08)
(2.07523e-08 -1.03331e-07 7.65513e-08)
(2.18464e-08 -1.18271e-07 9.14489e-08)
(2.24567e-08 -1.33887e-07 1.08142e-07)
(2.23154e-08 -1.49968e-07 1.26406e-07)
(2.08356e-08 -1.66089e-07 1.45605e-07)
(1.68413e-08 -1.81422e-07 1.64391e-07)
(8.47392e-09 -1.94321e-07 1.80396e-07)
(-4.86688e-09 -2.02036e-07 1.90576e-07)
(-2.55778e-08 -1.97365e-07 1.97567e-07)
(0 0 0)
(4.50672e-09 -1.4862e-08 9.4132e-09)
(8.49891e-09 -2.85328e-08 1.82263e-08)
(1.2051e-08 -4.16355e-08 2.69769e-08)
(1.52279e-08 -5.46626e-08 3.61131e-08)
(1.80882e-08 -6.80037e-08 4.60211e-08)
(2.06882e-08 -8.19605e-08 5.70465e-08)
(2.30857e-08 -9.67524e-08 6.95016e-08)
(2.53421e-08 -1.1252e-07 8.36495e-08)
(2.75217e-08 -1.29335e-07 9.96684e-08)
(2.96892e-08 -1.47194e-07 1.17588e-07)
(3.18827e-08 -1.66007e-07 1.37199e-07)
(3.40378e-08 -1.8555e-07 1.57875e-07)
(3.5882e-08 -2.05344e-07 1.78183e-07)
(3.68993e-08 -2.24301e-07 1.95329e-07)
(3.67293e-08 -2.39699e-07 2.05259e-07)
(3.2345e-08 -2.50666e-07 2.0944e-07)
(0 0 0)
(5.04806e-09 -1.53653e-08 1.0144e-08)
(9.53074e-09 -2.95194e-08 1.96257e-08)
(1.35407e-08 -4.31196e-08 2.90062e-08)
(1.71611e-08 -5.6688e-08 3.87475e-08)
(2.04713e-08 -7.06434e-08 4.92426e-08)
(2.35544e-08 -8.53188e-08 6.08408e-08)
(2.65057e-08 -1.00966e-07 7.38565e-08)
(2.94421e-08 -1.1776e-07 8.8551e-08)
(3.25132e-08 -1.35807e-07 1.0509e-07)
(3.59148e-08 -1.55136e-07 1.2348e-07)
(3.98917e-08 -1.75693e-07 1.43491e-07)
(4.47226e-08 -1.97297e-07 1.64484e-07)
(5.07055e-08 -2.19528e-07 1.85024e-07)
(5.81703e-08 -2.41395e-07 2.02324e-07)
(6.66757e-08 -2.59603e-07 2.12052e-07)
(9.08001e-08 -2.80614e-07 2.09394e-07)
(0 0 0)
(0 0 0)
(0 0 0)
(0 0 0)
(0 0 0)
(0 0 0)
(0 0 0)
(0 0 0)
(0 0 0)
(0 0 0)
(0 0 0)
(0 0 0)
(0 0 0)
(0 0 0)
(0 0 0)
(0 0 0)
(-2.46593e-08 -4.56709e-09 5.27997e-09)
(0 0 0)
(6.17207e-10 -2.82006e-09 1.3638e-09)
(1.14724e-09 -5.40086e-09 2.64611e-09)
(1.58184e-09 -7.8546e-09 3.93193e-09)
(1.90692e-09 -1.02693e-08 5.29432e-09)
(2.10104e-09 -1.27025e-08 6.79416e-09)
(2.13103e-09 -1.51789e-08 8.48065e-09)
(1.94223e-09 -1.76984e-08 1.03939e-08)
(1.4459e-09 -2.02409e-08 1.25628e-08)
(5.0258e-10 -2.27644e-08 1.49936e-08)
(-1.10067e-09 -2.52035e-08 1.76505e-08)
(-3.68248e-09 -2.7477e-08 2.04227e-08)
(-7.74182e-09 -2.95098e-08 2.309e-08)
(-1.41034e-08 -3.12683e-08 2.53095e-08)
(-2.39651e-08 -3.27526e-08 2.66488e-08)
(-3.7218e-08 -3.37456e-08 2.68444e-08)
(-5.12488e-08 -3.10226e-08 2.47345e-08)
(0 0 0)
(1.23731e-09 -5.55955e-09 2.6969e-09)
(2.30233e-09 -1.06509e-08 5.23236e-09)
(3.1821e-09 -1.54944e-08 7.77314e-09)
(3.85376e-09 -2.02602e-08 1.04615e-08)
(4.28088e-09 -2.50622e-08 1.34165e-08)
(4.40459e-09 -2.99582e-08 1.67372e-08)
(4.12783e-09 -3.49587e-08 2.0505e-08)
(3.29438e-09 -4.00324e-08 2.4777e-08)
(1.66252e-09 -4.51026e-08 2.95659e-08)
(-1.12276e-09 -5.00487e-08 3.48031e-08)
(-5.55487e-09 -5.47253e-08 4.02795e-08)
(-1.2277e-08 -5.90125e-08 4.55882e-08)
(-2.19753e-08 -6.29178e-08 5.00959e-08)
(-3.46918e-08 -6.66147e-08 5.30218e-08)
(-4.75876e-08 -6.99936e-08 5.39871e-08)
(-5.50504e-08 -7.37562e-08 5.45782e-08)
(0 0 0)
(1.86303e-09 -8.13351e-09 3.96968e-09)
(3.47305e-09 -1.55876e-08 7.70034e-09)
(4.81856e-09 -2.26841e-08 1.14346e-08)
(5.87608e-09 -2.96703e-08 1.53778e-08)
(6.60434e-09 -3.67188e-08 1.97043e-08)
(6.93308e-09 -4.39295e-08 2.45619e-08)
(6.74491e-09 -5.13372e-08 3.00736e-08)
(5.85111e-09 -5.89133e-08 3.63262e-08)
(3.9607e-09 -6.65641e-08 4.33444e-08)
(6.51158e-10 -7.4133e-08 5.10443e-08)
(-4.64904e-09 -8.14219e-08 5.91624e-08)
(-1.26308e-08 -8.82607e-08 6.71907e-08)
(-2.38445e-08 -9.46573e-08 7.43658e-08)
(-3.77408e-08 -1.00906e-07 7.98278e-08)
(-5.06392e-08 -1.06953e-07 8.31412e-08)
(-5.82908e-08 -1.12653e-07 8.57416e-08)
(0 0 0)
(2.49368e-09 -1.04516e-08 5.15262e-09)
(4.65945e-09 -2.00371e-08 9.99159e-09)
(6.49464e-09 -2.91718e-08 1.48271e-08)
(7.984e-09 -3.81761e-08 1.99205e-08)
(9.09326e-09 -4.72825e-08 2.54958e-08)
(9.75849e-09 -5.66396e-08 3.17461e-08)
(9.86927e-09 -6.63176e-08 3.88339e-08)
(9.24487e-09 -7.63076e-08 4.68768e-08)
(7.6024e-09 -8.65184e-08 5.59182e-08)
(4.52084e-09 -9.67732e-08 6.58764e-08)
(-5.93854e-10 -1.0681e-07 7.64692e-08)
(-8.51789e-09 -1.16315e-07 8.71391e-08)
(-1.99931e-08 -1.25017e-07 9.70499e-08)
(-3.47862e-08 -1.32795e-07 1.05251e-07)
(-4.93547e-08 -1.39343e-07 1.11008e-07)
(-5.91929e-08 -1.45247e-07 1.15445e-07)
(0 0 0)
(3.12325e-09 -1.24253e-08 6.21931e-09)
(5.85029e-09 -2.38293e-08 1.20539e-08)
(8.19375e-09 -3.47115e-08 1.78715e-08)
(1.01545e-08 -4.54594e-08 2.3981e-08)
(1.17165e-08 -5.63631e-08 3.06479e-08)
(1.28386e-08 -6.7623e-08 3.81036e-08)
(1.34428e-08 -7.93526e-08 4.65451e-08)
(1.33949e-08 -9.15771e-08 5.61199e-08)
(1.24767e-08 -1.04228e-07 6.68921e-08)
(1.03474e-08 -1.17131e-07 7.879e-08)
(6.4828e-09 -1.29973e-07 9.15255e-08)
(9.23809e-11 -1.42255e-07 1.04508e-07)
(-9.84605e-09 -1.53226e-07 1.16828e-07)
(-2.3948e-08 -1.61785e-07 1.27397e-07)
(-3.98241e-08 -1.66616e-07 1.3519e-07)
(-5.30282e-08 -1.69525e-07 1.41239e-07)
(0 0 0)
(3.74027e-09 -1.39734e-08 7.14833e-09)
(7.02249e-09 -2.68091e-08 1.38455e-08)
(9.87924e-09 -3.90777e-08 2.05054e-08)
(1.23327e-08 -5.12248e-08 2.74738e-08)
(1.43919e-08 -6.35925e-08 3.50471e-08)
(1.60499e-08 -7.64302e-08 4.34848e-08)
(1.7278e-08 -8.98969e-08 5.30106e-08)
(1.80158e-08 -1.0406e-07 6.37948e-08)
(1.81554e-08 -1.18889e-07 7.5918e-08)
(1.75161e-08 -1.34244e-07 8.93116e-08)
(1.57896e-08 -1.49825e-07 1.03675e-07)
(1.24408e-08 -1.65088e-07 1.1837e-07)
(6.62408e-09 -1.79068e-07 1.32352e-07)
(-2.59855e-09 -1.90048e-07 1.44271e-07)
(-1.45356e-08 -1.9555e-07 1.52826e-07)
(-3.12786e-08 -1.88805e-07 1.59668e-07)
(0 0 0)
(4.32897e-09 -1.50269e-08 7.9246e-09)
(8.14416e-09 -2.88446e-08 1.53377e-08)
(1.14996e-08 -4.20781e-08 2.26867e-08)
(1.44402e-08 -5.52178e-08 3.03418e-08)
(1.70021e-08 -6.86475e-08 3.86173e-08)
(1.92146e-08 -8.26575e-08 4.77891e-08)
(2.1102e-08 -9.74466e-08 5.80958e-08)
(2.26836e-08 -1.13121e-07 6.97199e-08)
(2.39754e-08 -1.29691e-07 8.27437e-08)
(2.49881e-08 -1.47061e-07 9.70884e-08)
(2.5715e-08 -1.64994e-07 1.12424e-07)
(2.61129e-08 -1.83069e-07 1.28039e-07)
(2.61537e-08 -2.00589e-07 1.42692e-07)
(2.61069e-08 -2.16415e-07 1.54584e-07)
(2.69006e-08 -2.28535e-07 1.61902e-07)
(2.59703e-08 -2.37465e-07 1.66497e-07)
(0 0 0)
(4.87179e-09 -1.55329e-08 8.54059e-09)
(9.18018e-09 -2.98355e-08 1.65174e-08)
(1.2999e-08 -4.35656e-08 2.43972e-08)
(1.63931e-08 -5.72422e-08 3.25611e-08)
(1.94221e-08 -7.12767e-08 4.1329e-08)
(2.21456e-08 -8.5987e-08 5.09795e-08)
(2.46304e-08 -1.01599e-07 6.17537e-08)
(2.69585e-08 -1.18245e-07 7.38305e-08)
(2.92382e-08 -1.35955e-07 8.72791e-08)
(3.16179e-08 -1.54648e-07 1.01995e-07)
(3.42959e-08 -1.74101e-07 1.17611e-07)
(3.75408e-08 -1.93914e-07 1.33361e-07)
(4.17932e-08 -2.13441e-07 1.47902e-07)
(4.7922e-08 -2.31689e-07 1.59244e-07)
(5.65045e-08 -2.46349e-07 1.65244e-07)
(8.38754e-08 -2.65287e-07 1.6439e-07)
(0 0 0)
(0 0 0)
(0 0 0)
(0 0 0)
(0 0 0)
(0 0 0)
(0 0 0)
(0 0 0)
(0 0 0)
(0 0 0)
(0 0 0)
(0 0 0)
(0 0 0)
(0 0 0)
(0 0 0)
(0 0 0)
(-2.54195e-08 -5.23928e-09 4.71269e-09)
(0 0 0)
(5.81989e-10 -2.84228e-09 1.05886e-09)
(1.07615e-09 -5.44347e-09 2.05351e-09)
(1.46875e-09 -7.91837e-09 3.0498e-09)
(1.73979e-09 -1.03579e-08 4.10437e-09)
(1.86177e-09 -1.28195e-08 5.26294e-09)
(1.79415e-09 -1.53292e-08 6.56156e-09)
(1.47262e-09 -1.78908e-08 8.02888e-09)
(7.96652e-10 -2.04921e-08 9.68436e-09)
(-3.84797e-10 -2.31042e-08 1.15301e-08)
(-2.29192e-09 -2.56817e-08 1.35365e-08)
(-5.24436e-09 -2.817e-08 1.56169e-08)
(-9.71695e-09 -3.05141e-08 1.76257e-08)
(-1.64639e-08 -3.26696e-08 1.93801e-08)
(-2.65245e-08 -3.45141e-08 2.07143e-08)
(-3.95986e-08 -3.55424e-08 2.153e-08)
(-5.28823e-08 -3.22192e-08 2.04739e-08)
(0 0 0)
(1.16869e-09 -5.60449e-09 2.09439e-09)
(2.16358e-09 -1.07384e-08 4.0619e-09)
(2.96158e-09 -1.56251e-08 6.03155e-09)
(3.52947e-09 -2.0437e-08 8.11274e-09)
(3.81931e-09 -2.52895e-08 1.03952e-08)
(3.7583e-09 -3.02426e-08 1.29519e-08)
(3.23154e-09 -3.53132e-08 1.58414e-08)
(2.06238e-09 -4.0482e-08 1.91021e-08)
(-8.49737e-12 -4.56913e-08 2.27378e-08)
(-3.34548e-09 -5.08489e-08 2.66887e-08)
(-8.42429e-09 -5.58357e-08 3.07956e-08)
(-1.58142e-08 -6.05421e-08 3.47815e-08)
(-2.60173e-08 -6.4912e-08 3.82752e-08)
(-3.87178e-08 -6.88627e-08 4.08894e-08)
(-5.08055e-08 -7.19178e-08 4.23788e-08)
(-5.66829e-08 -7.46278e-08 4.32784e-08)
(0 0 0)
(1.76464e-09 -8.2009e-09 3.08362e-09)
(3.27427e-09 -1.57185e-08 5.97975e-09)
(4.50379e-09 -2.28773e-08 8.87559e-09)
(5.41592e-09 -2.99259e-08 1.19285e-08)
(5.95354e-09 -3.70382e-08 1.527e-08)
(6.02757e-09 -4.43166e-08 1.90096e-08)
(5.49769e-09 -5.18011e-08 2.32358e-08)
(4.15036e-09 -5.9474e-08 2.80067e-08)
(1.6757e-09 -6.72563e-08 3.33309e-08)
(-2.35099e-09 -7.50101e-08 3.91333e-08)
(-8.45888e-09 -8.25512e-08 4.52134e-08)
(-1.72061e-08 -8.96951e-08 5.12166e-08)
(-2.8854e-08 -9.63499e-08 5.66829e-08)
(-4.23853e-08 -1.02547e-07 6.11734e-08)
(-5.39252e-08 -1.07992e-07 6.43634e-08)
(-5.95359e-08 -1.12673e-07 6.65562e-08)
(0 0 0)
(2.37091e-09 -1.0539e-08 4.00357e-09)
(4.41213e-09 -2.02055e-08 7.76131e-09)
(6.10465e-09 -2.94172e-08 1.1512e-08)
(7.41684e-09 -3.84947e-08 1.54556e-08)
(8.29655e-09 -4.76696e-08 1.97615e-08)
(8.65815e-09 -5.70911e-08 2.45728e-08)
(8.3656e-09 -6.68314e-08 3.00062e-08)
(7.2126e-09 -7.68844e-08 3.61399e-08)
(4.8994e-09 -8.71607e-08 4.29912e-08)
(1.01384e-09 -9.74816e-08 5.04834e-08)
(-4.97418e-09 -1.07575e-07 5.8392e-08)
(-1.36616e-08 -1.17089e-07 6.63152e-08)
(-2.54289e-08 -1.25648e-07 7.37367e-08)
(-3.95273e-08 -1.32934e-07 8.01534e-08)
(-5.23241e-08 -1.38561e-07 8.50196e-08)
(-5.9838e-08 -1.43337e-07 8.83966e-08)
(0 0 0)
(2.98262e-09 -1.25288e-08 4.83355e-09)
(5.5677e-09 -2.40276e-08 9.36562e-09)
(7.75025e-09 -3.49965e-08 1.38789e-08)
(9.51376e-09 -4.58217e-08 1.86097e-08)
(1.08227e-08 -5.67912e-08 2.37586e-08)
(1.16135e-08 -6.81019e-08 2.94972e-08)
(1.17826e-08 -7.98626e-08 3.59668e-08)
(1.11715e-08 -9.20896e-08 4.32642e-08)
(9.5484e-09 -1.04698e-07 5.1416e-08)
(6.58749e-09 -1.17485e-07 6.0344e-08)