/*--------------------------------*- C++ -*----------------------------------*\
| =========                 |                                                 |
| \\      /  F ield         | OpenFOAM: The Open Source CFD Toolbox           |
|  \\    /   O peration     | Version:  v1912                                 |
|   \\  /    A nd           | Website:  www.openfoam.com                      |
|    \\/     M anipulation  |                                                 |
\*---------------------------------------------------------------------------*/
FoamFile
{
    version     2.0;
    format      ascii;
    class       volScalarField;
    location    "0.21/fluid";
    object      T;
}
// * * * * * * * * * * * * * * * * * * * * * * * * * * * * * * * * * * * * * //

dimensions      [0 0 0 1 0 0 0];


internalField   nonuniform List<scalar> 
14592
(
273.07
273.219
273.39
273.597
273.856
274.186
274.607
275.143
275.82
276.668
277.719
279.007
280.573
282.471
284.796
287.785
273.07
273.217
273.386
273.591
273.847
274.173
274.589
275.12
275.791
276.632
277.675
278.956
280.516
282.413
284.742
287.734
273.068
273.213
273.378
273.579
273.83
274.15
274.558
275.079
275.737
276.564
277.592
278.859
280.408
282.301
284.64
287.662
273.067
273.207
273.368
273.563
273.807
274.117
274.514
275.019
275.66
276.466
277.47
278.713
280.242
282.125
284.477
287.548
273.064
273.2
273.355
273.543
273.778
274.076
274.457
274.943
275.56
276.336
277.306
278.512
280.007
281.868
284.226
287.365
273.061
273.191
273.34
273.519
273.743
274.026
274.389
274.85
275.436
276.175
277.099
278.252
279.69
281.502
283.845
287.062
273.058
273.181
273.322
273.492
273.703
273.97
274.311
274.744
275.293
275.985
276.851
277.931
279.282
280.998
283.262
286.516
273.055
273.171
273.304
273.463
273.66
273.909
274.225
274.627
275.135
275.771
276.566
277.552
278.78
280.331
282.379
285.418
273.075
273.233
273.414
273.635
273.913
274.266
274.718
275.296
276.027
276.945
278.084
279.484
281.188
283.253
285.762
288.854
273.074
273.23
273.41
273.628
273.903
274.252
274.7
275.272
275.996
276.906
278.038
279.43
281.129
283.195
285.71
288.812
273.072
273.226
273.402
273.616
273.885
274.228
274.667
275.227
275.939
276.835
277.95
279.328
281.017
283.081
285.61
288.748
273.071
273.22
273.391
273.599
273.86
274.193
274.619
275.164
275.857
276.73
277.821
279.174
280.843
282.901
285.45
288.646
273.068
273.212
273.377
273.577
273.829
274.149
274.558
275.083
275.749
276.591
277.646
278.961
280.596
282.634
285.199
288.478
273.065
273.203
273.361
273.552
273.791
274.096
274.485
274.983
275.617
276.418
277.425
278.684
280.261
282.252
284.812
288.191
273.062
273.192
273.342
273.523
273.749
274.035
274.402
274.869
275.464
276.214
277.157
278.339
279.823
281.716
284.204
287.649
273.058
273.181
273.322
273.492
273.703
273.97
274.31
274.744
275.293
275.984
276.85
277.93
279.281
280.997
283.261
286.515
273.079
273.245
273.437
273.671
273.964
274.339
274.82
275.434
276.212
277.188
278.399
279.883
281.681
283.835
286.389
289.377
273.078
273.242
273.432
273.663
273.954
274.325
274.8
275.408
276.179
277.148
278.351
279.827
281.621
283.776
286.338
289.339
273.076
273.238
273.424
273.65
273.935
274.299
274.765
275.362
276.119
277.073
278.259
279.721
281.505
283.66
286.239
289.278
273.074
273.231
273.412
273.632
273.909
274.262
274.715
275.295
276.032
276.962
278.123
279.56
281.325
283.476
286.078
289.179
273.072
273.223
273.397
273.609
273.875
274.215
274.651
275.209
275.919
276.816
277.94
279.338
281.068
283.202
285.826
289.015
273.069
273.213
273.38
273.582
273.836
274.159
274.573
275.104
275.779
276.633
277.706
279.047
280.718
282.807
285.432
288.73
273.065
273.203
273.36
273.552
273.791
274.095
274.485
274.983
275.616
276.417
277.423
278.682
280.259
282.25
284.81
288.19
273.061
273.191
273.339
273.518
273.742
274.026
274.388
274.849
275.435
276.173
277.097
278.25
279.688
281.5
283.843
287.06
273.082
273.256
273.457
273.702
274.01
274.403
274.908
275.553
276.369
277.393
278.658
280.201
282.056
284.248
286.789
289.658
273.081
273.253
273.452
273.694
273.999
274.388
274.887
275.526
276.335
277.35
278.608
280.144
281.995
284.188
286.738
289.62
273.08
273.248
273.443
273.68
273.979
274.361
274.851
275.477
276.273
277.272
278.513
280.034
281.876
284.071
286.639
289.56
273.078
273.242
273.431
273.661
273.951
274.322
274.798
275.408
276.182
277.157
278.372
279.868
281.691
283.883
286.477
289.462
273.075
273.233
273.416
273.637
273.917
274.273
274.731
275.317
276.063
277.004
278.181
279.638
281.427
283.604
286.222
289.298
273.072
273.223
273.397
273.609
273.875
274.214
274.65
275.207
275.917
276.814
277.938
279.336
281.066
283.2
285.824
289.014
273.068
273.212
273.377
273.577
273.828
274.147
274.557
275.08
275.747
276.588
277.643
278.958
280.592
282.631
285.196
288.477
273.064
273.199
273.355
273.542
273.777
274.074
274.455
274.94
275.556
276.332
277.302
278.508
280.002
281.863
284.222
287.363
273.085
273.265
273.473
273.727
274.047
274.456
274.98
275.649
276.496
277.555
278.859
280.442
282.329
284.533
287.045
289.819
273.084
273.262
273.468
273.719
274.036
274.44
274.959
275.622
276.461
277.511
278.808
280.384
282.267
284.472
286.993
289.782
273.083
273.257
273.459
273.705
274.015
274.412
274.921
275.572
276.396
277.431
278.71
280.271
282.145
284.353
286.894
289.722
273.08
273.25
273.447
273.686
273.987
274.372
274.867
275.499
276.303
277.312
278.565
280.101
281.957
284.163
286.73
289.624
273.078
273.241
273.431
273.661
273.951
274.321
274.797
275.406
276.18
277.154
278.369
279.865
281.687
283.88
286.474
289.46
273.074
273.231
273.412
273.631
273.907
274.26
274.713
275.292
276.029
276.958
278.118
279.555
281.319
283.471
286.073
289.176
273.07
273.219
273.39
273.598
273.858
274.191
274.616
275.16
275.852
276.724
277.814
279.167
280.836
282.894
285.444
288.642
273.066
273.206
273.367
273.562
273.805
274.115
274.51
275.015
275.655
276.46
277.463
278.705
280.234
282.118
284.47
287.543
273.087
273.272
273.486
273.747
274.076
274.496
275.035
275.723
276.591
277.675
279.006
280.614
282.517
284.721
287.205
289.915
273.086
273.269
273.481
273.739
274.064
274.48
275.014
275.694
276.555
277.63
278.953
280.554
282.454
284.66
287.154
289.878
273.085
273.264
273.472
273.725
274.044
274.451
274.975
275.643
276.489
277.548
278.854
280.44
282.331
284.54
287.053
289.818
273.083
273.257
273.459
273.705
274.014
274.41
274.919
275.569
276.393
277.427
278.706
280.267
282.14
284.349
286.889
289.719
273.08
273.248
273.442
273.679
273.977
274.358
274.847
275.473
276.267
277.265
278.505
280.026
281.867
284.062
286.632
289.555
273.076
273.237
273.423
273.649
273.933
274.295
274.761
275.356
276.112
277.064
278.25
279.711
281.494
283.65
286.23
289.272
273.072
273.225
273.401
273.614
273.882
274.224
274.662
275.221
275.931
276.825
277.94
279.316
281.005
283.069
285.6
288.741
273.068
273.212
273.377
273.577
273.828
274.146
274.553
275.072
275.729
276.555
277.581
278.847
280.396
282.289
284.629
287.653
273.089
273.277
273.495
273.761
274.096
274.524
275.072
275.772
276.654
277.754
279.101
280.723
282.635
284.836
287.3
289.969
273.088
273.274
273.49
273.752
274.084
274.507
275.05
275.743
276.618
277.709
279.048
280.663
282.571
284.775
287.248
289.932
273.086
273.269
273.48
273.738
274.063
274.478
275.011
275.691
276.551
277.625
278.947
280.547
282.447
284.654
287.147
289.872
273.084
273.262
273.467
273.717
274.033
274.436
274.954
275.615
276.453
277.502
278.797
280.372
282.255
284.461
286.983
289.773
273.081
273.252
273.45
273.691
273.995
274.383
274.881
275.518
276.325
277.339
278.594
280.129
281.979
284.173
286.724
289.609
273.077
273.241
273.43
273.66
273.95
274.319
274.793
275.399
276.168
277.135
278.336
279.811
281.603
283.758
286.322
289.326
273.074
273.229
273.408
273.625
273.898
274.246
274.692
275.262
275.984
276.892
278.022
279.412
281.111
283.176
285.692
288.797
273.069
273.216
273.384
273.588
273.843
274.167
274.582
275.11
275.779
276.618
277.658
278.938
280.497
282.394
284.724
287.717
273.09
273.28
273.499
273.768
274.106
274.538
275.091
275.796
276.686
277.793
279.148
280.776
282.691
284.89
287.343
289.994
273.089
273.277
273.494
273.759
274.094
274.521
275.069
275.767
276.649
277.748
279.094
280.716
282.628
284.829
287.292
289.957
273.087
273.271
273.484
273.744
274.072
274.491
275.029
275.715
276.582
277.663
278.993
280.6
282.503
284.707
287.191
289.896
273.085
273.264
273.471
273.724
274.042
274.449
274.972
275.639
276.483
277.54
278.842
280.424
282.31
284.514
287.026
289.797
273.082
273.255
273.454
273.697
274.004
274.395
274.898
275.54
276.354
277.375
278.638
280.18
282.033
284.225
286.767
289.633
273.078
273.243
273.434
273.666
273.958
274.331
274.809
275.421
276.196
277.169
278.378
279.86
281.656
283.81
286.364
289.35
273.074
273.231
273.412
273.631
273.906
274.258
274.708
275.282
276.011
276.925
278.062
279.459
281.162
283.227
285.735
288.823
273.07
273.218
273.387
273.593
273.85
274.178
274.596
275.129
275.804
276.649
277.697
278.982
280.547
282.444
284.768
287.746
273.045
273.139
273.244
273.367
273.516
273.696
273.916
274.182
274.5
274.872
275.295
275.763
276.259
276.76
277.232
277.638
273.044
273.137
273.242
273.364
273.51
273.689
273.906
274.17
274.484
274.852
275.271
275.735
276.226
276.722
277.19
277.593
273.044
273.135
273.237
273.357
273.501
273.676
273.889
274.147
274.455
274.815
275.227
275.681
276.163
276.65
277.111
277.507
273.043
273.132
273.231
273.348
273.487
273.657
273.864
274.114
274.413
274.763
275.162
275.603
276.071
276.545
276.993
277.379
273.041
273.127
273.224
273.336
273.47
273.634
273.832
274.073
274.36
274.695
275.078
275.501
275.951
276.407
276.838
277.21
273.04
273.122
273.214
273.322
273.45
273.606
273.795
274.024
274.296
274.614
274.978
275.379
275.806
276.238
276.647
277.001
273.038
273.117
273.204
273.306
273.428
273.575
273.753
273.968
274.224
274.523
274.863
275.239
275.638
276.042
276.425
276.756
273.036
273.11
273.193
273.29
273.404
273.541
273.708
273.908
274.146
274.423
274.738
275.085
275.454
275.826
276.178
276.482
273.046
273.142
273.249
273.375
273.527
273.713
273.94
274.216
274.547
274.936
275.381
275.876
276.406
276.944
277.456
277.899
273.045
273.14
273.247
273.371
273.522
273.706
273.93
274.203
274.531
274.915
275.356
275.847
276.371
276.904
277.412
277.853
273.044
273.138
273.242
273.365
273.512
273.692
273.912
274.18
274.5
274.877
275.31
275.791
276.305
276.83
277.33
277.763
273.043
273.134
273.236
273.355
273.498
273.673
273.887
274.146
274.457
274.823
275.242
275.71
276.21
276.72
277.207
277.631
273.042
273.13
273.228
273.343
273.481
273.649
273.854
274.103
274.402
274.753
275.156
275.604
276.085
276.576
277.045
277.453
273.04
273.124
273.219
273.328
273.46
273.62
273.816
274.052
274.336
274.669
275.051
275.477
275.933
276.399
276.844
277.233
273.038
273.119
273.208
273.312
273.437
273.588
273.772
273.995
274.261
274.574
274.932
275.33
275.757
276.192
276.609
276.972
273.036
273.112
273.197
273.295
273.412
273.554
273.726
273.933
274.18
274.47
274.801
275.168
275.562
275.962
276.345
276.678
273.047
273.147
273.259
273.391
273.551
273.748
273.989
274.285
274.641
275.064
275.553
276.103
276.698
277.314
277.908
278.43
273.047
273.146
273.257
273.387
273.545
273.74
273.979
274.271
274.623
275.042
275.526
276.071
276.661
277.272
277.862
278.381
273.046
273.143
273.252
273.38
273.535
273.725
273.959
274.246
274.591
275.001
275.476
276.011
276.591
277.192
277.774
278.286
273.045
273.139
273.245
273.37
273.52
273.705
273.932
274.21
274.545
274.943
275.404
275.924
276.489
277.074
277.643
278.144
273.044
273.135
273.237
273.357
273.502
273.68
273.898
274.165
274.487
274.869
275.312
275.811
276.354
276.918
277.467
277.952
273.042
273.129
273.227
273.342
273.48
273.65
273.857
274.111
274.416
274.779
275.199
275.673
276.189
276.725
277.246
277.709
273.04
273.123
273.216
273.325
273.456
273.616
273.811
274.05
274.336
274.676
275.07
275.513
275.995
276.496
276.984
277.416
273.038
273.117
273.205
273.307
273.43
273.579
273.762
273.983
274.25
274.564
274.928
275.336
275.779
276.239
276.685
277.081
273.05
273.155
273.274
273.415
273.586
273.798
274.06
274.384
274.778
275.25
275.804
276.435
277.132
277.866
278.593
279.243
273.05
273.154
273.271
273.41
273.58
273.789
274.049
274.369
274.759
275.226
275.774
276.4
277.092
277.821
278.544
279.192
273.049
273.151
273.266
273.403
273.569
273.774
274.028
274.342
274.724
275.182
275.72
276.335
277.016
277.735
278.449
279.091
273.047
273.147
273.259
273.392
273.553
273.752
273.999
274.303
274.674
275.119
275.642
276.241
276.904
277.607
278.306
278.937
273.046
273.142
273.25
273.378
273.534
273.725
273.962
274.254
274.611
275.038
275.54
276.116
276.755
277.434
278.111
278.725
273.044
273.136
273.24
273.362
273.51
273.693
273.918
274.196
274.534
274.939
275.416
275.963
276.57
277.216
277.862
278.449
273.042
273.13
273.228
273.344
273.484
273.656
273.869
274.129
274.446
274.826
275.272
275.783
276.351
276.954
277.558
278.108
273.04
273.123
273.216
273.325
273.456
273.617
273.815
274.057
274.351
274.702
275.114
275.584
276.104
276.656
277.206
277.706
273.053
273.166
273.293
273.445
273.63
273.862
274.151
274.51
274.951
275.487
276.123
276.861
277.693
278.593
279.51
280.358
273.053
273.164
273.29
273.44
273.624
273.852
274.138
274.494
274.931
275.461
276.091
276.823
277.65
278.545
279.458
280.304
273.052
273.161
273.284
273.431
273.612
273.836
274.116
274.464
274.893
275.412
276.032
276.752
277.567
278.451
279.357
280.198
273.051
273.157
273.277
273.42
273.595
273.812
274.084
274.422
274.838
275.343
275.945
276.647
277.443
278.31
279.201
280.032
273.049
273.151
273.267
273.405
273.573
273.783
274.044
274.368
274.768
275.253
275.832
276.509
277.277
278.118
278.985
279.798
273.047
273.145
273.256
273.388
273.548
273.747
273.996
274.304
274.683
275.144
275.694
276.336
277.067
277.869
278.7
279.484
273.045
273.138
273.244
273.368
273.52
273.708
273.941
274.231
274.586
275.018
275.532
276.133
276.816
277.565
278.342
279.078
273.042
273.131
273.23
273.347
273.489
273.665
273.882
274.151
274.48
274.879
275.352
275.903
276.528
277.21
277.915
278.581
273.057
273.178
273.315
273.479
273.682
273.936
274.256
274.656
275.153
275.762
276.495
277.362
278.361
279.474
280.653
281.793
273.057
273.176
273.312
273.474
273.675
273.926
274.242
274.638
275.13
275.733
276.46
277.321
278.313
279.422
280.599
281.739
273.056
273.173
273.306
273.465
273.662
273.908
274.218
274.606
275.088
275.68
276.395
277.243
278.223
279.322
280.492
281.63
273.054
273.168
273.298
273.452
273.643
273.882
274.183
274.56
275.028
275.604
276.3
277.127
278.087
279.168
280.326
281.459
273.052
273.162
273.287
273.436
273.62
273.85
274.139
274.501
274.951
275.504
276.175
276.973
277.903
278.955
280.089
281.208
273.05
273.156
273.275
273.418
273.593
273.811
274.086
274.43
274.857
275.383
276.019
276.778
277.665
278.673
279.767
280.856
273.048
273.148
273.261
273.396
273.562
273.768
274.026
274.349
274.749
275.241
275.837
276.546
277.375
278.318
279.344
280.374
273.045
273.14
273.247
273.373
273.528
273.721
273.961
274.26
274.631
275.085
275.632
276.282
277.037
277.892
278.819
279.746
273.061
273.191
273.339
273.518
273.739
274.017
274.37
274.815
275.372
276.061
276.902
277.91
279.099
280.468
281.989
283.563
273.061
273.189
273.336
273.512
273.731
274.006
274.355
274.796
275.347
276.03
276.863
277.865
279.048
280.413
281.933
283.51
273.06
273.186
273.329
273.502
273.716
273.987
274.329
274.761
275.302
275.972
276.792
277.78
278.951
280.307
281.825
283.406
273.058
273.181
273.32
273.488
273.696
273.959
274.291
274.71
275.236
275.888
276.688
277.654
278.804
280.143
281.653
283.239
273.056
273.174
273.309
273.471
273.671
273.923
274.242
274.645
275.151
275.778
276.549
277.483
278.6
279.911
281.402
282.986
273.054
273.167
273.296
273.45
273.641
273.881
274.184
274.567
275.047
275.643
276.376
277.266
278.334
279.596
281.046
282.611
273.051
273.159
273.281
273.427
273.607
273.833
274.119
274.478
274.928
275.486
276.171
277.003
278.002
279.186
280.557
282.057
273.048
273.15
273.265
273.402
273.571
273.782
274.047
274.38
274.796
275.31
275.939
276.7
277.609
278.68
279.912
281.26
273.066
273.205
273.365
273.557
273.798
274.102
274.489
274.98
275.598
276.369
277.317
278.471
279.857
281.503
283.432
285.636
273.065
273.203
273.361
273.551
273.789
274.09
274.473
274.959
275.571
276.335
277.276
278.423
279.803
281.446
283.377
285.586
273.064
273.199
273.354
273.541
273.773
274.068
274.444
274.921
275.522
276.272
277.199
278.332
279.7
281.337
283.271
285.494
273.062
273.194
273.344
273.526
273.752
274.038
274.403
274.866
275.45
276.181
277.086
278.195
279.542
281.166
283.101
285.347
273.06
273.187
273.332
273.507
273.724
274
274.35
274.795
275.357
276.061
276.934
278.009
279.322
280.918
282.845
285.118
273.058
273.179
273.318
273.485
273.692
273.954
274.287
274.71
275.243
275.912
276.743
277.769
279.029
280.575
282.469
284.756
273.055
273.17
273.302
273.459
273.655
273.902
274.215
274.612
275.112
275.738
276.516
277.475
278.657
280.113
281.922
284.165
273.052
273.16
273.284
273.432
273.615
273.845
274.136
274.504
274.966
275.543
276.257
277.133
278.206
279.522
281.149
283.182
273.052
273.16
273.284
273.432
273.615
273.845
274.136
274.504
274.966
275.542
276.256
277.133
278.206
279.521
281.148
283.182
273.048
273.15
273.265
273.402
273.571
273.781
274.046
274.379
274.795
275.309
275.938
276.699
277.608
278.679
279.912
281.259
273.045
273.14
273.247
273.373
273.528
273.72
273.96
274.26
274.63
275.084
275.631
276.28
277.036
277.891
278.818
279.745
273.042
273.13
273.23
273.347
273.489
273.664
273.882
274.15
274.479
274.877
275.351
275.902
276.526
277.208
277.914
278.58
273.04
273.123
273.216
273.325
273.456
273.617
273.814
274.056
274.35
274.701
275.112
275.582
276.102
276.654
277.205
277.705
273.038
273.116
273.204
273.307
273.43
273.579
273.761
273.983
274.249
274.563
274.926
275.335
275.778
276.237
276.684
277.079
273.036
273.112
273.197
273.295
273.412
273.553
273.725
273.932
274.179
274.468
274.799
275.167
275.56
275.961
276.343
276.677
273.036
273.11
273.193
273.289
273.403
273.541
273.707
273.907
274.145
274.421
274.736
275.084
275.452
275.824
276.176
276.481
273.055
273.17
273.301
273.459
273.655
273.901
274.214
274.611
275.111
275.737
276.514
277.474
278.655
280.111
281.92
284.164
273.051
273.159
273.281
273.427
273.607
273.833
274.118
274.477
274.926
275.484
276.169
277.001
278
279.184
280.555
282.055
273.048
273.148
273.261
273.396
273.561
273.767
274.025
274.348
274.748
275.24
275.835
276.544
277.373
278.315
279.342
280.372
273.045
273.138
273.243
273.368
273.519
273.707
273.94
274.23
274.585
275.016
275.53
276.13
276.813
277.562
278.34
279.076
273.042
273.13
273.228
273.344
273.484
273.656
273.868
274.128
274.445
274.825
275.27
275.781
276.348
276.952
277.556
278.105
273.04
273.123
273.216
273.325
273.456
273.615
273.81
274.048
274.335
274.674
275.068
275.511
275.993
276.494
276.981
277.414
273.038
273.118
273.208
273.312
273.437
273.588
273.771
273.994
274.26
274.572
274.93
275.328
275.754
276.19
276.606
276.97
273.038
273.116
273.204
273.306
273.427
273.574
273.752
273.967
274.222
274.521
274.861
275.237
275.636
276.04
276.423
276.754
273.058
273.179
273.317
273.484
273.691
273.953
274.286
274.708
275.241
275.91
276.741
277.766
279.026
280.572
282.467
284.753
273.054
273.167
273.296
273.45
273.64
273.88
274.183
274.565
275.045
275.641
276.373
277.263
278.331
279.592
281.043
282.608
273.05
273.155
273.275
273.417
273.592
273.81
274.084
274.428
274.855
275.38
276.016
276.775
277.662
278.669
279.763
280.852
273.047
273.145
273.256
273.387
273.547
273.746
273.994
274.302
274.681
275.141
275.691
276.333
277.064
277.866
278.697
279.481
273.044
273.136
273.24
273.362
273.51
273.692
273.917
274.194
274.532
274.937
275.413
275.959
276.566
277.212
277.859
278.446
273.042
273.129
273.227
273.341
273.48
273.649
273.856
274.109
274.414
274.776
275.196
275.67
276.185
276.721
277.243
277.706
273.04
273.124
273.218
273.328
273.459
273.619
273.814
274.051
274.334
274.667
275.048
275.474
275.93
276.395
276.841
277.23
273.039
273.122
273.214
273.321
273.449
273.605
273.794
274.022
274.294
274.612
274.975
275.376
275.803
276.235
276.644
276.998
273.06
273.187
273.332
273.506
273.723
273.998
274.348
274.792
275.354
276.057
276.929
278.004
279.317
280.913
282.841
285.114
273.056
273.174
273.309
273.47
273.67
273.922
274.24
274.642
275.147
275.774
276.544
277.478
278.595
279.905
281.397
282.982
273.052
273.162
273.287
273.436
273.619
273.848
274.136
274.498
274.947
275.5
276.17
276.968
277.897
278.949
280.084
281.203
273.049
273.151
273.267
273.404
273.572
273.781
274.042
274.365
274.764
275.249
275.828
276.504
277.272
278.112
278.98
279.794
273.046
273.142
273.25
273.377
273.532
273.724
273.96
274.252
274.607
275.034
275.536
276.111
276.75
277.429
278.106
278.72
273.043
273.134
273.236
273.356
273.501
273.678
273.896
274.162
274.483
274.865
275.307
275.806
276.349
276.913
277.462
277.948
273.042
273.129
273.227
273.342
273.48
273.647
273.852
274.101
274.399
274.749
275.152
275.6
276.08
276.571
277.04
277.449
273.041
273.127
273.223
273.335
273.469
273.632
273.83
274.07
274.357
274.692
275.074
275.497
275.947
276.402
276.833
277.206
273.062
273.193
273.343
273.524
273.75
274.036
274.399
274.861
275.445
276.175
277.078
278.187
279.534
281.157
283.093
285.341
273.058
273.18
273.32
273.487
273.695
273.956
274.287
274.706
275.231
275.882
276.681
277.646
278.795
280.135
281.645
283.232
273.054
273.168
273.297
273.451
273.641
273.88
274.18
274.556
275.023
275.598
276.293
277.119
278.079
279.16
280.318
281.451
273.05
273.156
273.276
273.419
273.593
273.81
274.081
274.418
274.833
275.337
275.939
276.64
277.435
278.302
279.194
280.025
273.047
273.146
273.258
273.391
273.551
273.75
273.996
274.3
274.67
275.114
275.636
276.234
276.896
277.599
278.299
278.93
273.045
273.139
273.244
273.369
273.519
273.703
273.929
274.206
274.541
274.938
275.398
275.918
276.482
277.067
277.636
278.138
273.043
273.134
273.235
273.354
273.497
273.671
273.884
274.143
274.453
274.818
275.237
275.703
276.203
276.713
277.201
277.625
273.042
273.131
273.231
273.347
273.486
273.655
273.861
274.111
274.409
274.758
275.156
275.596
276.065
276.538
276.987
277.374
273.064
273.198
273.352
273.539
273.771
274.064
274.439
274.914
275.514
276.263
277.188
278.32
279.687
281.324
283.259
285.483
273.059
273.185
273.328
273.5
273.714
273.983
274.324
274.754
275.294
275.963
276.782
277.769
278.939
280.295
281.813
283.395
273.055
273.172
273.305
273.463
273.659
273.904
274.213
274.6
275.081
275.671
276.385
277.231
278.211
279.31
280.48
281.619
273.052
273.16
273.283
273.43
273.609
273.832
274.111
274.458
274.885
275.404
276.022
276.741
277.555
278.44
279.346
280.187
273.048
273.15
273.265
273.401
273.566
273.771
274.024
274.336
274.717
275.174
275.711
276.325
277.005
277.724
278.438
279.082
273.046
273.142
273.251
273.378
273.533
273.722
273.955
274.24
274.585
274.994
275.468
276.002
276.581
277.182
277.764
278.278
273.044
273.137
273.241
273.363
273.51
273.689
273.908
274.175
274.494
274.87
275.302
275.782
276.296
276.82
277.321
277.756
273.043
273.134
273.236
273.356
273.499
273.673
273.885
274.142
274.449
274.809
275.219
275.672
276.154
276.641
277.102
277.5
273.065
273.202
273.359
273.548
273.785
274.084
274.465
274.949
275.56
276.321
277.26
278.405
279.785
281.428
283.359
285.568
273.061
273.188
273.334
273.509
273.726
274.001
274.348
274.787
275.336
276.017
276.848
277.848
279.03
280.395
281.916
283.493
273.056
273.175
273.31
273.471
273.671
273.921
274.235
274.629
275.12
275.721
276.446
277.305
278.296
279.405
280.582
281.723
273.053
273.163
273.288
273.437
273.62
273.847
274.132
274.485
274.921
275.449
276.077
276.808
277.634
278.529
279.443
280.29
273.049
273.153
273.27
273.408
273.576
273.785
274.043
274.361
274.75
275.215
275.762
276.386
277.077
277.806
278.529
279.179
273.047
273.145
273.255
273.385
273.542
273.735
273.973
274.264
274.615
275.031
275.514
276.058
276.648
277.258
277.849
278.369
273.045
273.139
273.245
273.369
273.519
273.701
273.925
274.197
274.522
274.906
275.345
275.835
276.358
276.891
277.4
277.842
273.044
273.137
273.24
273.362
273.507
273.685
273.901
274.163
274.477
274.843
275.261
275.723
276.214
276.71
277.179
277.583
273.065
273.204
273.362
273.553
273.792
274.094
274.479
274.967
275.583
276.35
277.296
278.447
279.832
281.477
283.406
285.607
273.061
273.19
273.337
273.514
273.733
274.01
274.36
274.803
275.357
276.043
276.881
277.888
279.075
280.444
281.965
283.539
273.057
273.176
273.313
273.476
273.677
273.929
274.246
274.644
275.139
275.745
276.476
277.341
278.338
279.451
280.631
281.773
273.053
273.164
273.291
273.441
273.625
273.855
274.142
274.499
274.938
275.471
276.105
276.842
277.672
278.572
279.49
280.339
273.05
273.154
273.272
273.411
273.581
273.792
274.052
274.374
274.766
275.236
275.787
276.417
277.113
277.847
278.574
279.227
273.047
273.146
273.257
273.388
273.547
273.742
273.982
274.275
274.63
275.05
275.538
276.086
276.681
277.295
277.891
278.414
273.045
273.14
273.247
273.372
273.523
273.708
273.933
274.208
274.537
274.924
275.367
275.861
276.389
276.927
277.44
277.885
273.045
273.138
273.242
273.365
273.512
273.691
273.909
274.174
274.49
274.86
275.282
275.749
276.244
276.744
277.217
277.625
273.034
273.104
273.182
273.272
273.379
273.507
273.661
273.845
274.064
274.318
274.607
274.924
275.259
275.597
275.916
276.191
273.032
273.098
273.171
273.255
273.354
273.472
273.614
273.783
273.983
274.214
274.475
274.761
275.063
275.366
275.651
275.896
273.03
273.092
273.161
273.239
273.331
273.44
273.57
273.724
273.905
274.114
274.349
274.606
274.874
275.143
275.395
275.611
273.028
273.087
273.151
273.224
273.309
273.41
273.529
273.67
273.835
274.023
274.234
274.463
274.702
274.94
275.162
275.351
273.027
273.082
273.143
273.212
273.291
273.384
273.494
273.624
273.774
273.945
274.136
274.341
274.555
274.766
274.962
275.129
273.026
273.079
273.137
273.202
273.277
273.364
273.467
273.587
273.726
273.884
274.058
274.245
274.438
274.629
274.804
274.954
273.025
273.076
273.132
273.195
273.267
273.351
273.449
273.562
273.693
273.842
274.005
274.179
274.359
274.534
274.696
274.833
273.024
273.075
273.13
273.192
273.262
273.344
273.439
273.55
273.677
273.82
273.978
274.146
274.318
274.487
274.642
274.773
273.034
273.106
273.186
273.278
273.387
273.518
273.677
273.868
274.096
274.361
274.664
274.999
275.356
275.718
276.064
276.364
273.032
273.1
273.174
273.26
273.361
273.483
273.629
273.804
274.011
274.252
274.526
274.828
275.148
275.471
275.778
276.044
273.03
273.094
273.163
273.243
273.337
273.449
273.583
273.742
273.93
274.148
274.394
274.663
274.947
275.233
275.503
275.736
273.029
273.088
273.154
273.228
273.315
273.418
273.541
273.687
273.857
274.053
274.273
274.513
274.765
275.016
275.252
275.455
273.027
273.084
273.145
273.215
273.297
273.392
273.505
273.639
273.794
273.972
274.17
274.385
274.608
274.831
275.038
275.215
273.026
273.08
273.139
273.205
273.282
273.372
273.477
273.601
273.744
273.907
274.088
274.283
274.485
274.685
274.87
275.027
273.025
273.077
273.134
273.198
273.272
273.358
273.458
273.575
273.71
273.863
274.033
274.214
274.401
274.585
274.754
274.898
273.025
273.076
273.132
273.195
273.267
273.351
273.449
273.562
273.693
273.842
274.005
274.179
274.359
274.534
274.696
274.833
273.036
273.11
273.193
273.289
273.403
273.542
273.71
273.914
274.159
274.447
274.778
275.149
275.55
275.964
276.364
276.717
273.033
273.103
273.181
273.27
273.376
273.504
273.659
273.846
274.068
274.329
274.628
274.96
275.318
275.684
276.036
276.345
273.031
273.097
273.169
273.253
273.351
273.468
273.61
273.78
273.981
274.216
274.483
274.779
275.094
275.415
275.721
275.988
273.03
273.091
273.159
273.237
273.328
273.436
273.566
273.72
273.902
274.113
274.351
274.613
274.89
275.17
275.434
275.663
273.028
273.086
273.15
273.223
273.308
273.408
273.528
273.669
273.834
274.024
274.238
274.471
274.716
274.961
275.19
275.388
273.027
273.082
273.143
273.212
273.292
273.386
273.498
273.628
273.781
273.955
274.149
274.36
274.579
274.797
275
275.173
273.026
273.08
273.139
273.205
273.282
273.372
273.477
273.601
273.744
273.907
274.088
274.283
274.485
274.685
274.87
275.027
273.026
273.079
273.137
273.202
273.277
273.364
273.467
273.587
273.726
273.884
274.058
274.245
274.438
274.629
274.804
274.954
273.037
273.116
273.203
273.305
273.427
273.576
273.759
273.982
274.251
274.572
274.946
275.371
275.839
276.332
276.821
277.262
273.035
273.108
273.19
273.285
273.398
273.536
273.703
273.907
274.151
274.441
274.777
275.156
275.57
276.002
276.426
276.805
273.033
273.102
273.178
273.266
273.371
273.497
273.65
273.835
274.055
274.315
274.614
274.948
275.31
275.684
276.047
276.367
273.031
273.096
273.167
273.249
273.346
273.462
273.602
273.769
273.968
274.2
274.465
274.759
275.074
275.396
275.704
275.974
273.029
273.09
273.158
273.234
273.325
273.432
273.56
273.713
273.893
274.102
274.338
274.598
274.873
275.151
275.415
275.643
273.028
273.086
273.15
273.223
273.308
273.408
273.527
273.669
273.834
274.024
274.238
274.471
274.716
274.96
275.19
275.388
273.027
273.084
273.145
273.215
273.297
273.392
273.505
273.639
273.794
273.971
274.17
274.385
274.608
274.831
275.038
275.215
273.027
273.082
273.143
273.212
273.291
273.384
273.494
273.624
273.774
273.945
274.136
274.341
274.555
274.766
274.962
275.128
273.04
273.123
273.216
273.326
273.458
273.62
273.821
274.068
274.369
274.732
275.161
275.657
276.216
276.82
277.438
278.014
273.037
273.115
273.202
273.304
273.426
273.576
273.759
273.984
274.257
274.584
274.967
275.407
275.897
276.42
276.946
277.429
273.035
273.108
273.189
273.284
273.396
273.533
273.701
273.904
274.15
274.441
274.781
275.166
275.589
276.035
276.476
276.873
273.033
273.101
273.177
273.265
273.369
273.495
273.647
273.831
274.052
274.311
274.611
274.946
275.311
275.688
276.055
276.381
273.031
273.096
273.167
273.249
273.346
273.462
273.601
273.769
273.968
274.2
274.465
274.759
275.074
275.396
275.704
275.974
273.03
273.091
273.159
273.237
273.328
273.436
273.566
273.72
273.902
274.113
274.351
274.613
274.89
275.169
275.434
275.663
273.029
273.088
273.154
273.228
273.315
273.418
273.541
273.686
273.857
274.053
274.273
274.513
274.765
275.016
275.252