/*--------------------------------*- C++ -*----------------------------------*\
| =========                 |                                                 |
| \\      /  F ield         | OpenFOAM: The Open Source CFD Toolbox           |
|  \\    /   O peration     | Version:  v1912                                 |
|   \\  /    A nd           | Website:  www.openfoam.com                      |
|    \\/     M anipulation  |                                                 |
\*---------------------------------------------------------------------------*/
FoamFile
{
    version     2.0;
    format      ascii;
    class       volScalarField;
    location    "0.69/fluid";
    object      p;
}
// * * * * * * * * * * * * * * * * * * * * * * * * * * * * * * * * * * * * * //

dimensions      [0 2 -2 0 0 0 0];


internalField   nonuniform List<scalar> 
14592
(
0.0529655
0.0473519
0.0454584
0.0438706
0.0429668
0.0422708
0.0417312
0.041268
0.0408329
0.0404806
0.0400794
0.0398895
0.0394136
0.039657
0.0388663
0.040773
0.0487956
0.0470493
0.045372
0.0440156
0.0431027
0.0423875
0.0418226
0.0413464
0.0409079
0.0405634
0.040177
0.0400236
0.0395845
0.0399737
0.0391488
0.042028
0.0468117
0.0462003
0.0449677
0.0439684
0.0431277
0.0424367
0.0418595
0.0413732
0.0409301
0.0405936
0.0402298
0.0401305
0.0397555
0.0403292
0.0395704
0.0432203
0.0456311
0.0454849
0.0446244
0.0438697
0.0431173
0.0424563
0.0418689
0.0413654
0.0409068
0.0405654
0.0402098
0.0401505
0.039833
0.0405667
0.0399249
0.0440075
0.0449293
0.0449069
0.0442771
0.0436823
0.0430119
0.042386
0.0417967
0.0412754
0.0407896
0.0404187
0.040031
0.039951
0.0396074
0.0403897
0.0397623
0.044154
0.0444708
0.0444854
0.044
0.0435006
0.0428879
0.0422855
0.0416921
0.0411516
0.0406378
0.0402372
0.0398233
0.0397401
0.0394157
0.0403381
0.0398782
0.0447962
0.0441712
0.0441922
0.0437813
0.0433303
0.0427474
0.0421506
0.0415403
0.0409636
0.0403943
0.0399141
0.0393888
0.0391472
0.0385844
0.039212
0.0382051
0.0431912
0.0439914
0.0440138
0.0436338
0.0431999
0.0426235
0.0420182
0.0413852
0.0407723
0.040156
0.0396162
0.0390288
0.0387273
0.0381437
0.0389377
0.0381956
0.0455672
0.0528772
0.0472656
0.0454092
0.0438625
0.043012
0.0423751
0.0419023
0.0415144
0.0411665
0.0409117
0.0406272
0.0405365
0.0402008
0.0403541
0.039685
0.040332
0.0487073
0.0469612
0.045322
0.0440071
0.0431482
0.0424928
0.0419954
0.0415953
0.0412448
0.0409984
0.0407281
0.0406692
0.040356
0.0405997
0.0398676
0.040925
0.0467195
0.0461066
0.0449109
0.043953
0.0431665
0.0425363
0.0420272
0.0416174
0.0412625
0.0410243
0.0407748
0.0407672
0.0405078
0.0408985
0.0401823
0.0416645
0.0455365
0.0453883
0.0445635
0.043849
0.0431501
0.0425492
0.0420292
0.0416017
0.0412301
0.0409866
0.0407434
0.040775
0.0405648
0.0410969
0.0404616
0.042207
0.0448317
0.044807
0.0442117
0.0436559
0.0430374
0.04247
0.0419459
0.041498
0.0410954
0.0408182
0.0405351
0.0405397
0.0402842
0.04085
0.0401726
0.042142
0.0443703
0.0443827
0.0439309
0.0434692
0.0429066
0.0423605
0.0418297
0.0413596
0.040925
0.0406147
0.0402995
0.0403013
0.0400549
0.0407735
0.0402267
0.0426898
0.0440672
0.044086
0.0437079
0.0432934
0.0427585
0.0422151
0.0416634
0.0411516
0.0406535
0.0402533
0.0398089
0.0396345
0.0391027
0.0395091
0.038268
0.040802
0.0438836
0.0439038
0.0435559
0.0431576
0.0426273
0.0420725
0.0414945
0.0409419
0.0403906
0.0399247
0.0394096
0.0391775
0.038617
0.0392517
0.0382359
0.0432377
0.0528244
0.0472145
0.0453865
0.0438734
0.0430687
0.0424852
0.0420768
0.041766
0.0415164
0.041384
0.0412742
0.0413945
0.0414225
0.0419234
0.0420678
0.0428413
0.0486546
0.0469088
0.0452988
0.044018
0.0432057
0.0426044
0.0421722
0.0418504
0.0415997
0.0414779
0.0413851
0.0415397
0.0415967
0.0421786
0.0423088
0.0433894
0.046663
0.0460491
0.0448815
0.0439572
0.0432177
0.0426423
0.042199
0.0418682
0.0416133
0.0415006
0.0414288
0.0416376
0.0417531
0.0424916
0.0426822
0.0441395
0.0454772
0.0453276
0.0445298
0.043848
0.0431953
0.0426487
0.0421938
0.0418447
0.0415725
0.0414546
0.0413887
0.0416405
0.0418083
0.0426998
0.0429921
0.0447007
0.0447691
0.0447428
0.0441733
0.043649
0.0430751
0.0425604
0.0420994
0.0417275
0.0414205
0.0412652
0.0411525
0.0413734
0.041483
0.0424085
0.0426341
0.0445588
0.0443045
0.0443153
0.0438885
0.043457
0.0429372
0.0424419
0.0419715
0.0415742
0.0412307
0.0410379
0.0408852
0.0411
0.0412024
0.0422861
0.0426003
0.0450217
0.0439977
0.044015
0.0436609
0.0432754
0.0427813
0.0422858
0.0417905
0.041346
0.0409302
0.0406358
0.0403324
0.0403459
0.0401007
0.0408236
0.0402544
0.0427083
0.0438102
0.0438289
0.0435044
0.043134
0.0426424
0.0421329
0.0416074
0.0411168
0.0406398
0.0402696
0.039878
0.0398172
0.0394986
0.0404376
0.0399527
0.0448958
0.0527946
0.0471858
0.045379
0.0438917
0.0431224
0.04258
0.04222
0.0419637
0.0417779
0.0417114
0.0416813
0.0418558
0.0419703
0.0424275
0.0426399
0.0431752
0.0486248
0.0468792
0.0452909
0.0440364
0.0432602
0.0427005
0.0423172
0.0420504
0.0418641
0.0418087
0.0417956
0.0420018
0.0421409
0.042656
0.042842
0.0435862
0.0466297
0.046015
0.0448681
0.0439698
0.0432666
0.0427334
0.0423394
0.0420639
0.0418729
0.0418258
0.0418309
0.0420863
0.0422729
0.0429206
0.043142
0.0441801
0.0454413
0.0452905
0.0445124
0.0438558
0.0432387
0.0427337
0.0423275
0.0420333
0.0418239
0.0417708
0.0417789
0.0420746
0.0423047
0.0430921
0.0433911
0.0446458
0.0447298
0.0447021
0.0441514
0.0436511
0.0431116
0.0426373
0.0422233
0.0419044
0.0416573
0.0415636
0.041519
0.0417787
0.0419361
0.0427468
0.0429441
0.0443956
0.0442621
0.0442715
0.0438628
0.0434542
0.0429674
0.0425108
0.0420854
0.0417387
0.0414519
0.041318
0.0412281
0.04148
0.0416191
0.0425884
0.0428428
0.0447842
0.0439518
0.0439677
0.043631
0.0432673
0.0428045
0.0423457
0.0418925
0.0414949
0.0411303
0.0408887
0.0406372
0.0406796
0.0404456
0.0410472
0.0403507
0.0423159
0.0437607
0.0437782
0.0434706
0.0431209
0.0426591
0.0421841
0.0416979
0.0412509
0.0408204
0.0404987
0.0401519
0.040119
0.0398
0.0406333
0.0399839
0.0444358
0.0527806
0.0471727
0.0453822
0.0439155
0.0431749
0.0426669
0.042349
0.042142
0.0420169
0.0420189
0.0420791
0.0423395
0.0425891
0.0431167
0.0435096
0.043986
0.0486108
0.0468655
0.045294
0.0440605
0.0433135
0.0427888
0.0424481
0.0422314
0.0421069
0.0421213
0.0422003
0.0424936
0.0427699
0.0433498
0.0437187
0.0443634
0.0466127
0.0459974
0.0448666
0.043989
0.0433154
0.0428175
0.0424666
0.0422415
0.0421122
0.0421346
0.04223
0.04257
0.042888
0.0435888
0.0439852
0.0448872
0.0454219
0.0452703
0.0445074
0.0438709
0.0432827
0.0428128
0.0424491
0.0422048
0.0420563
0.0420721
0.0421688
0.042548
0.0429047
0.0437401
0.0442029
0.0453087
0.0447074
0.0446789
0.0441425
0.0436613
0.0431497
0.0427093
0.0423364
0.0420658
0.0418771
0.0418498
0.0418888
0.0422282
0.0425017
0.043354
0.043692
0.0449865
0.0442369
0.0442455
0.0438504
0.04346
0.0429999
0.0425757
0.0421896
0.0418891
0.0416576
0.0415871
0.0415754
0.0419037
0.0421474
0.043155
0.0435225
0.0453022
0.0439235
0.0439386
0.043615
0.0432685
0.0428309
0.0424026
0.0419861
0.0416313
0.041317
0.0411329
0.0409491
0.0410584
0.0409049
0.0415303
0.0408861
0.0426709
0.0437293
0.043746
0.0434509
0.0431176
0.0426796
0.0422334
0.0417812
0.0413736
0.0409886
0.0407187
0.0404303
0.0404568
0.040198
0.0410483
0.0403995
0.0446557
0.0527749
0.0471677
0.0453886
0.0439363
0.043216
0.0427318
0.0424422
0.0422664
0.0421773
0.0422142
0.042315
0.0425986
0.0428835
0.0433906
0.0437996
0.044222
0.0486052
0.0468599
0.0453002
0.0440816
0.0433552
0.0428546
0.0425425
0.0423574
0.0422693
0.042319
0.0424388
0.0427546
0.043065
0.0436181
0.043999
0.0445635
0.0466048
0.045989
0.0448694
0.0440064
0.0433535
0.0428801
0.0425579
0.0423646
0.0422713
0.0423283
0.0424623
0.0428213
0.0431663
0.0438282
0.0442234
0.0450222
0.045412
0.0452598
0.0445075
0.043885
0.0433171
0.0428713
0.042536
0.0423232
0.0422099
0.0422596
0.0423929
0.042789
0.0431668
0.0439563
0.0444048
0.0453985
0.0446951
0.0446658
0.0441395
0.0436716
0.0431795
0.0427624
0.042417
0.0421767
0.0420216
0.0420263
0.0420984
0.0424517
0.0427385
0.0435388
0.043845
0.0450227
0.0442223
0.0442302
0.0438446
0.0434669
0.0430253
0.0426235
0.0422636
0.0419921
0.0417922
0.041752
0.0417702
0.0421108
0.0423606
0.0433138
0.043632
0.045293
0.0439065
0.0439208
0.0436062
0.0432718
0.0428517
0.0424445
0.0420525
0.0417247
0.0414392
0.0412825
0.0411235
0.0412417
0.0410837
0.0416507
0.0409291
0.0425849
0.0437098
0.0437258
0.0434394
0.0431175
0.0426961
0.0422697
0.0418403
0.0414577
0.0410988
0.0408539
0.0405865
0.0406204
0.0403503
0.0411435
0.040398
0.0445174
0.0527739
0.0471671
0.0453956
0.0439531
0.0432466
0.042779
0.0425096
0.0423569
0.0422954
0.0423611
0.0424972
0.042809
0.0431338
0.0436505
0.0440927
0.0444911
0.0486042
0.046859
0.0453072
0.0440986
0.0433863
0.0429026
0.0426111
0.0424495
0.0423895
0.0424687
0.0426248
0.0429693
0.0433205
0.0438814
0.0442956
0.0448222
0.0466022
0.0459861
0.044874
0.044021
0.0433822
0.042926
0.0426245
0.0424548
0.0423895
0.0424757
0.0426448
0.0430307
0.0434127
0.0440761
0.0444975
0.0452466
0.045408
0.0452554
0.0445102
0.0438973
0.0433433
0.0429144
0.0425996
0.0424102
0.0423245
0.0424029
0.0425701
0.042992
0.0434035
0.0441909
0.0446583
0.0455978
0.0446895
0.0446598
0.04414
0.0436812
0.0432025
0.0428018
0.0424762
0.0422585
0.0421297
0.0421619
0.0422656
0.0426427
0.042958
0.0437525
0.0440668
0.0451879
0.0442151
0.0442225
0.0438432
0.0434741
0.0430453
0.042659
0.042318
0.0420681
0.0418931
0.0418791
0.0419262
0.0422888
0.0425618
0.0435065
0.0438208
0.0454238
0.0438975
0.0439114
0.0436028
0.0432764
0.0428684
0.0424759
0.0421015
0.0417938
0.041531
0.0413981
0.0412642
0.0414012
0.0412584
0.0418122
0.0410666
0.042656
0.0436991
0.0437147
0.043434
0.0431197
0.0427096
0.042297
0.041884
0.0415199
0.0411815
0.0409582
0.040712
0.0407621
0.0405
0.0412771
0.040491
0.0445383
0.0527737
0.0471677
0.0453992
0.0439618
0.0432615
0.0428016
0.042541
0.0423979
0.0423471
0.0424224
0.042569
0.0428852
0.043217
0.0437261
0.0441707
0.0445597
0.0486044
0.0468591
0.045311
0.0441072
0.0434014
0.0429255
0.0426428
0.0424908
0.0424414
0.04253
0.0426961
0.0430442
0.0434013
0.0439528
0.0443688
0.0448809
0.0466014
0.0459853
0.0448767
0.0440283
0.0433961
0.0429476
0.0426551
0.0424949
0.0424398
0.0425347
0.0427128
0.0431005
0.0434854
0.0441353
0.0445551
0.0452851
0.0454066
0.0452537
0.0445119
0.0439034
0.0433559
0.0429346
0.0426287
0.0424485
0.0423728
0.0424596
0.042635
0.0430577
0.0434701
0.0442418
0.0447035
0.045622
0.0446872
0.0446572
0.0441407
0.0436861
0.0432135
0.0428202
0.0425031
0.0422944
0.0421751
0.0422153
0.0423262
0.0427034
0.0430176
0.0437946
0.0440985
0.0451974
0.044212
0.0442191
0.0438429
0.0434778
0.0430548
0.0426756
0.0423427
0.0421014
0.0419354
0.0419289
0.0419824
0.0423446
0.0426145
0.0435403
0.0438382
0.0454176
0.0438935
0.0439071
0.0436014
0.0432788
0.0428764
0.0424905
0.0421237
0.0418241
0.0415696
0.0414437
0.0413153
0.0414516
0.0413038
0.0418381
0.0410697
0.042632
0.0436943
0.0437096
0.0434316
0.0431209
0.0427161
0.0423098
0.0419039
0.0415474
0.0412165
0.0409995
0.0407578
0.0408068
0.0405377
0.0412936
0.0404771
0.0444908
0.0622897
0.051545
0.0479019
0.04492
0.0432066
0.0418725
0.0408264
0.0398716
0.038939
0.0379796
0.0369172
0.0357701
0.0344017
0.0329311
0.0311024
0.0292477
0.0580215
0.0507935
0.0475266
0.0448278
0.04317
0.0418653
0.0408297
0.0398822
0.0389576
0.0380077
0.0369554
0.0358215
0.0344676
0.0330152
0.0312014
0.0293577
0.0560163
0.0497523
0.0468913
0.0445292
0.0430001
0.0417782
0.0407782
0.0398515
0.0389405
0.0380026
0.0369641
0.0358466
0.0345168
0.0330923
0.0313122
0.029495
0.0547688
0.0489454
0.0464212
0.0442909
0.0428763
0.0417198
0.0407447
0.0398281
0.0389202
0.0379834
0.0369485
0.0358376
0.0345217
0.0331143
0.0313585
0.0295635
0.0540246
0.0483318
0.0460139
0.0440372
0.04272
0.0416239
0.0406769
0.0397723
0.038867
0.0379285
0.0368929
0.0357826
0.0344748
0.0330783
0.0313461
0.029575
0.0535402
0.0478971
0.0457135
0.0438331
0.042585
0.0415309
0.0406038
0.0397057
0.0387988
0.0378552
0.0368161
0.0357033
0.0344022
0.0330153
0.0313103
0.0295673
0.0532348
0.0476062
0.0454944
0.0436669
0.0424603
0.0414312
0.0405155
0.0396181
0.038705
0.0377517
0.0367039
0.0355817
0.0342811
0.0328963
0.031219
0.029506
0.0530641
0.0474402
0.0453599
0.0435546
0.0423649
0.0413436
0.0404294
0.0395267
0.0386044
0.0376405
0.0365848
0.0354554
0.0341599
0.0327827
0.0311421
0.0294654
0.0580222
0.0507921
0.0475223
0.0448193
0.0431561
0.0418445
0.0408029
0.0398494
0.0389123
0.0379456
0.036872
0.0357163
0.0343308
0.0328547
0.0309976
0.0291576
0.0538262
0.0503986
0.0473228
0.0448434
0.0431937
0.0418832
0.0408308
0.0398714
0.0389315
0.0379645
0.0368928
0.0357417
0.0343637
0.0329014
0.0310615
0.029235
0.051819
0.0494503
0.0467634
0.0446143
0.0430693
0.0418228
0.040793
0.0398464
0.0389134
0.0379525
0.0368898
0.0357508
0.034393
0.0329526
0.0311403
0.0293379
0.0505861
0.0486633
0.0463249
0.0444093
0.0429723
0.041784
0.0407729
0.0398311
0.0388965
0.0379339
0.0368732
0.0357394
0.0343946
0.0329705
0.0311819
0.0294011
0.0498477
0.0480456
0.0459238
0.0441644
0.0428241
0.0416945
0.0407101
0.0397786
0.0388453
0.0378808
0.0368197
0.0356869
0.0343508
0.0329377
0.0311726
0.0294151
0.0493666
0.047605
0.045624
0.0439628
0.0426921
0.0416046
0.0406401
0.039715
0.0387805
0.0378119
0.0367487
0.0356152
0.0342881
0.0328867
0.0311513
0.0294219
0.0490626
0.0473103
0.0454042
0.0437971
0.0425686
0.0415065
0.0405534
0.0396295
0.03869
0.0377128
0.0366424
0.0355009
0.0341764
0.0327784
0.0310737
0.0293735
0.0488925
0.0471429
0.0452699
0.0436856
0.0424747
0.041421
0.0404694
0.0395409
0.038594
0.0376078
0.0365319
0.0353857
0.0340701
0.0326827
0.0310196
0.029356
0.0560378
0.0497729
0.0469179
0.0445615
0.0430404
0.0418265
0.0408409
0.0399296
0.0390193
0.0380781
0.0370183
0.0358793
0.0344681
0.0329773
0.0309705
0.0290462
0.0518413
0.0494741
0.046798
0.0446606
0.0431306
0.0419009
0.0408945
0.0399717
0.0390545
0.038111
0.0370524
0.0359183
0.0345153
0.0330385
0.0310488
0.0291404
0.0498329
0.0485942
0.0463295
0.0445312
0.0430813
0.0418908
0.0408891
0.0399684
0.0390516
0.0381099
0.0370589
0.035936
0.0345531
0.0330964
0.0311264
0.0292303
0.048616
0.04784
0.04594
0.0443821
0.0430306
0.0418859
0.0408914
0.0399674
0.0390436
0.0380968
0.0370462
0.035928
0.0345586
0.0331185
0.031171
0.0292953
0.0478881
0.0472355
0.0455633
0.0441663
0.0429076
0.0418151
0.04084
0.0399205
0.0389937
0.0380415
0.0369881
0.0358687
0.0345068
0.0330763
0.0311527
0.0293009
0.0474138
0.0467995
0.0452735
0.0439771
0.0427868
0.0417333
0.0407737
0.0398568
0.0389263
0.0379677
0.036911
0.0357902
0.034439
0.0330227
0.0311373
0.0293211
0.0471127
0.0465057
0.0450571
0.0438159
0.0426672
0.0416371
0.0406853
0.0397663
0.0388281
0.0378574
0.0367898
0.0356566
0.034306
0.0328903
0.0310457
0.0292662
0.0469431
0.0463378
0.0449233
0.0437053
0.0425736
0.0415506
0.0405974
0.0396713
0.0387242
0.037742
0.0366672
0.0355276
0.0341887
0.0327869
0.0310022
0.0292731
0.0548131
0.0489895
0.0464851
0.0443772
0.0429923
0.0418686
0.040935
0.0400628
0.0391832
0.0382756
0.0372365
0.036126
0.0346812
0.0331766
0.0309382
0.0288938
0.0506318
0.0487108
0.0463983
0.0445125
0.0431137
0.0419681
0.0410078
0.0401189
0.0392291
0.038318
0.0372802
0.0361759
0.0347414
0.0332557
0.0310329
0.0290058
0.0486388
0.0478628
0.0459783
0.0444394
0.0431122
0.0419944
0.0410283
0.0401334
0.0392385
0.0383268
0.0372961
0.0362033
0.034789
0.0333206
0.0311025
0.0290637
0.0474384
0.0471302
0.0456169
0.0443223
0.0430892
0.0420102
0.0410443
0.0401404
0.0392348
0.038316
0.0372851
0.0361975
0.0347977
0.0333466
0.0311459
0.029122
0.0467223
0.0465386
0.0452567
0.044125
0.042982
0.0419504
0.0409985
0.0400946
0.0391823
0.0382549
0.0372186
0.036127
0.0347325
0.0332884
0.0311109
0.0291108
0.0462555
0.0461094
0.0449747
0.0439438
0.0428675
0.0418721
0.0409323
0.0400279
0.0391092
0.0381729
0.0371318
0.0360382
0.034657
0.0332316
0.0311056
0.029154
0.0459578
0.0458184
0.0447613
0.0437853
0.0427491
0.0417746
0.0408397
0.0399297
0.0389994
0.0380459
0.0369887
0.0358757
0.0344911
0.0330605
0.0309912
0.0290888
0.0457887
0.0456506
0.0446274
0.0436741
0.0426539
0.0416847
0.040746
0.0398266
0.0388844
0.037916
0.0368493
0.0357275
0.0343595
0.032949
0.0309711
0.0291463
0.0540933
0.0484019
0.0461238
0.0441955
0.0429428
0.0419208
0.0410615
0.0402553
0.0394368
0.0385991
0.0376203
0.0365904
0.0351512
0.0336897
0.031155
0.0289609
0.0499182
0.0481185
0.0460435
0.0443408
0.0430747
0.0420307
0.0411433
0.0403194
0.0394913
0.0386517
0.0376764
0.0366572
0.0352332
0.0338005
0.03128
0.029097
0.0479345
0.0472817
0.045646
0.0442959
0.0430993
0.0420787
0.04118
0.0403456
0.0395104
0.03867
0.0377033
0.0366983
0.035296
0.0338788
0.0313372
0.0291022
0.0467457
0.0465617
0.0453006
0.044197
0.0430923
0.0421066
0.0412035
0.0403563
0.0395083
0.0386598
0.0376935
0.0366958
0.0353104
0.0339144
0.0313831
0.0291551
0.0460388
0.0459799
0.0449521
0.0440124
0.0429958
0.0420536
0.0411601
0.0403084
0.0394495
0.0385884
0.0376129
0.0366076
0.0352245
0.0338332
0.031324
0.0291228
0.0455781
0.0455567
0.0446764
0.0438371
0.0428854
0.0419763
0.0410915
0.0402354
0.0393661
0.0384924
0.0375094
0.0365006
0.0351339
0.0337693
0.0313326
0.0292057
0.045283
0.045268
0.0444653
0.0436801
0.0427667
0.0418754
0.0409918
0.0401251
0.0392376
0.0383384
0.0373295
0.0362879
0.0349071
0.0335238
0.0311637
0.0291076
0.0451136
0.0450999
0.0443305
0.0435672
0.0426681
0.0417795
0.0408893
0.040009
0.0391042
0.0381837
0.0371596
0.0361029
0.0347412
0.0333849
0.0311625
0.0292398
0.0536221
0.0479816
0.0458621
0.0440607
0.0429192
0.0419881
0.041204
0.0404696
0.0397203
0.0389628
0.0380532
0.0371143
0.0356702
0.0342416
0.0312606
0.028839
0.0494502
0.047691
0.0457813
0.0442079
0.0430543
0.0421019
0.0412895
0.040538
0.0397802
0.0390227
0.0381192
0.0371963
0.0357727
0.0343852
0.0313974
0.0289287
0.0474713
0.0468555
0.04539
0.0441721
0.0430882
0.0421584
0.0413328
0.0405691
0.0398041
0.0390468
0.0381541
0.0372492
0.0358471
0.0344688
0.0313989
0.0287733
0.0462893
0.0461414
0.0450509
0.0440798
0.0430866
0.0421899
0.0413573
0.0405788
0.0397997
0.0390341
0.0381426
0.037248
0.0358647
0.0345105
0.0314277
0.0287756
0.0455879
0.0455648
0.0447077
0.0439
0.0429933
0.0421377
0.0413115
0.0405247
0.0397307
0.0389485
0.0380433
0.0371366
0.0357498
0.0343964
0.0313287
0.0287025
0.0451308
0.045145
0.0444348
0.0437266
0.0428829
0.042058
0.0412373
0.0404425
0.0396344
0.038836
0.0379206
0.0370098
0.0356442
0.0343315
0.0313684
0.0288606
0.0448368
0.0448573
0.0442241
0.0435687
0.0427613
0.0419513
0.041128
0.0403172
0.0394838
0.03865
0.0376965
0.0367357
0.0353401
0.0339895
0.0311339
0.0287366
0.044666
0.0446878
0.0440875
0.043453
0.0426581
0.0418482
0.0410152
0.040186
0.03933
0.0384684
0.0374943
0.0365137
0.035146
0.0338455
0.0312128
0.029079
0.0533119
0.0476879
0.0456718
0.0439622
0.0429155
0.0420716
0.0413722
0.040728
0.0400784
0.0394479
0.038683
0.0379554
0.0366951
0.0355899
0.0324478
0.0301167
0.0491413
0.0473917
0.0455887
0.0441086
0.0430512
0.0421866
0.0414599
0.0408001
0.040144
0.0395164
0.0387612
0.0380575
0.0368247
0.0357808
0.0326059
0.0301515
0.0471628
0.0465532
0.045196
0.0440726
0.043086
0.0422443
0.0415037
0.0408322
0.0401695
0.0395445
0.0388038
0.0381263
0.0369212
0.0359007
0.0326005
0.0299089
0.0459837
0.0458408
0.0448581
0.0439811
0.0430844
0.0422744
0.0415253
0.0408379
0.0401605
0.039528
0.0387907
0.0381306
0.036952
0.0359752
0.032651
0.0299088
0.0452845
0.045266
0.0445161
0.0438017
0.0429899
0.042219
0.041473
0.0407738
0.0400775
0.039424
0.0386676
0.0379913
0.0368035
0.0358308
0.0325155
0.0298044
0.0448286
0.0448473
0.0442437
0.0436274
0.0428767
0.0421342
0.0413905
0.0406793
0.0399642
0.0392898
0.0385186
0.0378371
0.0366733
0.0357622
0.0325848
0.0300562
0.044534
0.044559
0.0440316
0.0434668
0.04275
0.0420196
0.0412686
0.0405345
0.0397846
0.039061
0.0382315
0.0374701
0.0362357
0.0352353
0.0321492
0.0297665
0.0443609
0.0443873
0.043892
0.0433469
0.0426405
0.0419075
0.0411427
0.0403842
0.0396037
0.0388418
0.0379794
0.0371841
0.0359702
0.0350336
0.0322404
0.0303496
0.0531027
0.0474856
0.0455412
0.0439001
0.0429303
0.0421625
0.0415415
0.0409816
0.0404247
0.0399055
0.0392602
0.038684
0.0375247
0.0365455
0.0329831
0.0301676
0.0489325
0.0471855
0.0454562
0.0440455
0.043066
0.0422781
0.0416307
0.0410565
0.0404943
0.0399801
0.0393462
0.0387979
0.0376613
0.0367311
0.0329707
0.0295339
0.046952
0.0463421
0.0450583
0.0440048
0.0430969
0.0423324
0.0416719
0.0410865
0.0405186
0.0400089
0.0393916
0.0388749
0.0377613
0.0368438
0.0328154
0.0287032
0.0457729
0.0456289
0.0447185
0.0439105
0.0430918
0.0423581
0.041688
0.041086
0.0405027
0.0399862
0.039373
0.0388788
0.0377926
0.0369243
0.03282
0.0284876
0.0450733
0.0450533
0.0443747
0.043728
0.0429929
0.0422962
0.0416267
0.0410099
0.0404037
0.0398616
0.0392229
0.0387074
0.0376006
0.0367347
0.032622
0.0282941
0.0446167
0.0446339
0.0441007
0.0435506
0.042875
0.0422044
0.041534
0.0409018
0.0402726
0.0397059
0.0390484
0.0385293
0.0374512
0.0366779
0.0327573
0.02868
0.0443201
0.0443436
0.0438858
0.0433858
0.042742
0.0420805
0.0413982
0.0407369
0.0400639
0.0394351
0.0386993
0.0380724
0.0368798
0.0359666
0.0321204
0.0281817
0.044144
0.0441688
0.0437426
0.0432611
0.0426258
0.0419591
0.0412586
0.0405678
0.0398576
0.0391828
0.0384063
0.0377436
0.0365836
0.0358059
0.0324086
0.0293021
0.0439179
0.0439415
0.0435555
0.0431094
0.0425134
0.0418801
0.0412078
0.0405384
0.0398436
0.0391792
0.0384072
0.0377437
0.0365709
0.0357724
0.0323155
0.0291234
0.0439536
0.0439775
0.0435504
0.0430679
0.0424313
0.0417579
0.0410446
0.0403268
0.0395761
0.0388351
0.0379833
0.0371907
0.0359628
0.0350033
0.0321478
0.0301921
0.0441116
0.0441296
0.0436146
0.0430633
0.0423647
0.0416371
0.0408742
0.0401017
0.0392873
0.0384552
0.0374966
0.0365203
0.0351375
0.0338112
0.0311176
0.028925
0.0444438
0.0444259
0.0437539
0.0430877
0.0423043
0.0415196
0.0407161
0.039905
0.0390519
0.0381682
0.0371647
0.0361153
0.0347413
0.0333611
0.0310859
0.0291112
0.0450282
0.0448859
0.0439684
0.0431241
0.0422337
0.0413838
0.0405477
0.0397074
0.0388246
0.0378988
0.0368568
0.0357448
0.0343671
0.0329347
0.0309114
0.0290396
0.0461201
0.0455119
0.0442106
0.043111
0.0421206
0.0412259
0.0403872
0.0395495
0.0386655
0.0377293
0.0366814
0.0355529
0.0342063
0.0327842
0.0309594
0.0291865
0.0480289
0.0462802
0.0445278
0.0430686
0.0420044
0.041083
0.0402469
0.039412
0.038536
0.0375985
0.0365513
0.0354172
0.0340955
0.032689
0.0309898
0.0292848
0.0522009
0.0465879
0.0446323
0.0429536
0.0419102
0.0410203
0.0402175
0.0394075
0.0385578
0.0376407
0.0366124
0.0354936
0.034191
0.0327935
0.0311162
0.0293971
0.0438057
0.0438272
0.0434724
0.0430606
0.042509
0.0419229
0.041301
0.0406852
0.0400449
0.03944
0.0387166
0.0380946
0.036884
0.0359423
0.031994
0.0279225
0.0438368
0.0438588
0.0434624
0.0430132
0.042419
0.0417904
0.0411237
0.0404543
0.0397514
0.0390618
0.0382506
0.0374966
0.0362424
0.0352098
0.0320208
0.029535
0.0439898
0.044006
0.0435214
0.0430028
0.042345
0.0416588
0.0409386
0.0402087
0.0394343
0.0386426
0.0377118
0.0367588
0.0353421
0.0339558
0.0310059
0.0285215
0.0443173
0.0442977
0.0436557
0.0430214
0.0422782
0.041533
0.0407687
0.0399959
0.0391777
0.038328
0.0373472
0.0363166
0.0349191
0.0335037
0.0310656
0.0289347
0.0448976
0.0447538
0.043866
0.0430529
0.0422009
0.0413893
0.0405895
0.0397835
0.0389307
0.0380328
0.0370081
0.0359089
0.0345121
0.0330533
0.0309203
0.0289535
0.0459864
0.0453771
0.0441055
0.0430368
0.042084
0.0412261
0.0404224
0.0396167
0.0387602
0.0378486
0.0368162
0.0356987
0.0343393
0.0328984
0.0310002
0.0291627
0.0478942
0.0461455
0.044423
0.042994
0.0419662
0.0410788
0.0402763
0.0394727
0.0386221
0.037707
0.0366741
0.0355498
0.0342191
0.0327986
0.0310477
0.0292941
0.0520663
0.0464551
0.0445294
0.0428812
0.0418743
0.0410195
0.0402497
0.0394711
0.0386492
0.0377561
0.0367443
0.0356378
0.0343301
0.0329216
0.0311975
0.0294295
0.0437281
0.0437481
0.0434158
0.0430308
0.0425159
0.0419718
0.0413975
0.0408361
0.0402579
0.0397295
0.0390938
0.0385866
0.0374823
0.0366656
0.0325668
0.0282517
0.0437549
0.0437756
0.0434013
0.0429779
0.0424182
0.0418288
0.0412056
0.0405844
0.0399345
0.039308
0.0385641
0.0378958
0.0367037
0.0357459
0.0323989
0.0296943
0.0439037
0.0439185
0.0434557
0.0429622
0.0423372
0.0416868
0.0410058
0.0403175
0.0395865
0.0388434
0.0379588
0.03706
0.0356649
0.0343017
0.0311922
0.0285472
0.0442271
0.0442063
0.0435855
0.0429753
0.0422643
0.0415528
0.0408239
0.0400879
0.0393062
0.0384955
0.0375489
0.0365556
0.0351667
0.0337589
0.0312077
0.0289711
0.0448039
0.044659
0.0437922
0.0430026
0.0421811
0.0414016
0.0406342
0.0398603
0.0390382
0.0381712
0.0371714
0.0360967
0.0347004
0.0332392
0.0310249
0.0289847
0.0458903
0.0452802
0.0440294
0.0429838
0.0420606
0.0412335
0.0404605
0.0396841
0.038855
0.0379697
0.0369575
0.0358581
0.0344976
0.0330514
0.0310958
0.0292035
0.0477972
0.0460486
0.044347
0.0429407
0.0419414
0.0410823
0.0403089
0.0395335
0.0387077
0.0378159
0.0368002
0.0356901
0.0343581
0.0329315
0.0311387
0.0293421
0.0519694
0.0463596
0.044455
0.0428296
0.0418516
0.0410254
0.0402845
0.0395348
0.0387391
0.0378705
0.0368774
0.0357868
0.0344799
0.0330666
0.0313039
0.0294919
0.0436748
0.0436935
0.0433775
0.0430124
0.0425257
0.0420139
0.0414755
0.040953
0.0404148
0.0399268
0.0393229
0.038833
0.0376972
0.0367779
0.0323858
0.0276668
0.043698
0.0437176
0.0433591
0.0429547
0.0424215
0.0418626
0.0412724
0.0406864
0.0400716
0.0394804
0.0387624
0.03811
0.0368895
0.0358597
0.0322916
0.0293101
0.0438431
0.043857
0.0434096
0.0429348
0.0423348
0.0417123
0.0410616
0.0404044
0.0397033
0.0389893
0.0381239
0.0372361
0.0358132
0.0343959
0.0311173
0.0282913
0.0441632
0.0441415
0.0435358
0.0429436
0.0422572
0.0415718
0.0408707
0.0401626
0.0394073
0.0386215
0.037691
0.0367075
0.0352983
0.0338546
0.0311888
0.0288378
0.0447373
0.0445916
0.0437396
0.0429675
0.0421692
0.0414149
0.0406731
0.0399241
0.0391251
0.0382793
0.037293
0.0362263
0.0348153
0.0333294
0.0310369
0.0289218
0.0458217
0.045211
0.043975
0.0429466
0.042046
0.041243
0.0404944
0.0397414
0.0389334
0.0380675
0.0370678
0.0359763
0.0346061
0.0331427
0.0311326
0.0291866
0.047728
0.0459793
0.0442928
0.0429033
0.0419257
0.0410889
0.0403387
0.0395859
0.0387801
0.0379063
0.0369025
0.0358003
0.034462
0.0330232
0.0311908
0.0293529
0.0519003
0.0462914
0.044402
0.0427937
0.0418377
0.0410339
0.0403165
0.0395905
0.0388159
0.0379666
0.0369873
0.0359066
0.0345961
0.0331728
0.0313736
0.02952
0.0436401
0.043658
0.043354
0.0430043
0.0425401
0.0420549
0.0415474
0.0410601
0.0405608
0.0401161
0.0395563
0.0391091
0.0379943
0.037059
0.0325105
0.0275073
0.0436602
0.0436791
0.0433323
0.0429425
0.0424302
0.0418962
0.0413342
0.0407796
0.0401983
0.0396437
0.0389602
0.0383407
0.0371282
0.0360817
0.0323797
0.0292087
0.0438023
0.0438156
0.0433795
0.0429189
0.0423385
0.0417387
0.0411134
0.0404836
0.0398108
0.0391264
0.0382866
0.0374219
0.0359977
0.0345624
0.0311741
0.0282161
0.0441197
0.0440974
0.0435027
0.0429241
0.0422567
0.0415925
0.0409144
0.0402306
0.0394995
0.0387383
0.0378279
0.0368615
0.035449
0.0339906
0.0312464
0.0288079
0.0446915
0.0445454
0.0437041
0.042945
0.0421647
0.0414304
0.0407096
0.0399821
0.0392039
0.0383786
0.0374081
0.0363543
0.0349396
0.0334423
0.0310945
0.02892
0.0457744
0.0451633
0.043938
0.0429224
0.042039
0.0412553
0.0405266
0.0397932
0.0390041
0.0381561
0.0371701
0.0360892
0.0347163
0.0332439
0.0311938
0.0292039
0.0476802
0.0459315
0.0442558
0.0428789
0.0419178
0.0410985
0.0403671
0.0396332
0.0388448
0.0379875
0.0369959
0.0359031
0.0345633
0.0331174
0.0312552
0.0293831
0.0518525
0.0462444
0.0443659
0.0427704
0.0418312
0.0410448
0.0403466
0.0396405
0.038884
0.038052
0.037086
0.0360159
0.0347054
0.0332761
0.031449
0.0295607
0.043618
0.0436353
0.0433396
0.0430007
0.0425522
0.0420854
0.0415989
0.041134
0.0406576
0.0402344
0.0396901
0.0392469
0.0381096
0.0371131
0.0324146
0.0271965
0.0436358
0.0436542
0.0433153
0.0429358
0.0424381
0.0419214
0.0413787
0.0408445
0.0402834
0.0397477
0.0390768
0.038461
0.0372275
0.0361336
0.0323135
0.0290008
0.0437757
0.0437884
0.0433602
0.0429095
0.0423428
0.0417589
0.0411512
0.0405397
0.0398844
0.0392162
0.0383865
0.0375249
0.0360826
0.0346117
0.0311328
0.0280745
0.044091
0.0440682
0.0434811
0.042912
0.042258
0.0416087
0.0409468
0.0402795
0.0395639
0.0388169
0.0379152
0.0369522
0.0355261
0.0340428
0.0312346
0.0287286
0.0446612
0.0445146
0.0436807
0.0429308
0.0421631
0.0414431
0.0407372
0.0400245
0.0392602
0.0384474
0.0374847
0.0364346
0.0350106
0.0334961
0.0311036
0.0288827
0.0457429
0.0451315
0.0439135
0.0429069
0.0420357
0.0412658
0.0405513
0.0398317
0.0390555
0.0382192
0.0372408
0.0361641
0.0347851
0.0333005
0.0312181
0.0291936
0.0476483
0.0458996
0.0442313
0.0428632
0.0419138
0.0411072
0.0403893
0.039669
0.0388929
0.0380466
0.0370626
0.0359745
0.0346308
0.0331762
0.0312899
0.0293904
0.0518207
0.0462131
0.0443421
0.0427556
0.0418284
0.0410546
0.0403702
0.0396784
0.0389349
0.0381149
0.0371576
0.0360933
0.0347805
0.0333437
0.0314938
0.029578
0.0436055
0.0436225
0.0433321
0.0430005
0.0425626
0.0421086
0.0416369
0.0411888
0.0407302
0.0403255
0.0397978
0.0393663
0.0382268
0.0372049
0.0324226
0.0270613
0.0436217
0.0436397
0.043306
0.0429333
0.0424456
0.0419408
0.0414117
0.0408924
0.0403469
0.039827
0.0391694
0.0385628
0.0373245
0.0362097
0.0323212
0.028916
0.04376
0.0437725
0.0433493
0.0429051
0.0423477
0.0417746
0.0411793
0.040581
0.0399391
0.0392842
0.0384649
0.0376104
0.0361628
0.0346754
0.0311428
0.0280183
0.0440739
0.0440509
0.0434686
0.0429058
0.0422607
0.0416215
0.0409708
0.0403153
0.0396114
0.0388758
0.0379826
0.0370253
0.0355947
0.0340991
0.0312522
0.0287013
0.044643
0.0444962
0.043667
0.0429231
0.0421637
0.0414534
0.0407577
0.0400555
0.0393014
0.0384985
0.0375429
0.0364977
0.0350705
0.0335474
0.0311275
0.0288753
0.0457239
0.0451124
0.043899
0.0428983
0.0420351
0.0412745
0.0405696
0.0398597
0.0390929
0.0382655
0.0372936
0.0362214
0.0348402
0.0333492
0.0312467
0.0291988
0.047629
0.0458804
0.0442167
0.0428543
0.0419127
0.0411145
0.0404058
0.0396948
0.0389275
0.0380896
0.0371116
0.0360278
0.034683
0.0332237
0.031322
0.029404
0.0518015
0.0461942
0.044328
0.0427473
0.0418279
0.0410625
0.0403876
0.0397057
0.0389714
0.0381601
0.0372094
0.0361501
0.0348369
0.033396
0.0315315
0.0295969
0.0435998
0.0436165
0.0433288
0.0430005
0.0425676