/*--------------------------------*- C++ -*----------------------------------*\
| =========                 |                                                 |
| \\      /  F ield         | OpenFOAM: The Open Source CFD Toolbox           |
|  \\    /   O peration     | Version:  v1912                                 |
|   \\  /    A nd           | Website:  www.openfoam.com                      |
|    \\/     M anipulation  |                                                 |
\*---------------------------------------------------------------------------*/
FoamFile
{
    version     2.0;
    format      ascii;
    class       surfaceScalarField;
    location    "0.69/fluid";
    object      phi;
}
// * * * * * * * * * * * * * * * * * * * * * * * * * * * * * * * * * * * * * //

dimensions      [0 3 -1 0 0 0 0];
oriented        oriented;


internalField   nonuniform List<scalar> 
41600
(
5.01306e-05
1.2566e-05
3.51807e-07
-5.48403e-07
4.01143e-05
1.03678e-05
5.81721e-07
-9.3323e-07
3.27943e-05
7.69663e-06
4.59813e-07
-8.36389e-07
2.83565e-05
4.76419e-06
8.09827e-08
-4.07396e-07
2.57736e-05
2.82404e-06
-4.9519e-07
2.54068e-07
2.42738e-05
1.65127e-06
-1.2152e-06
1.06369e-06
2.32967e-05
1.04584e-06
-2.08189e-06
2.01318e-06
2.25194e-05
7.6551e-07
-3.12848e-06
3.14024e-06
2.17608e-05
6.60303e-07
-4.41966e-06
4.51796e-06
2.091e-05
6.2527e-07
-6.04337e-06
6.26896e-06
1.98917e-05
6.01296e-07
-8.15008e-06
8.567e-06
1.85767e-05
4.92933e-07
-1.08699e-05
1.1692e-05
1.67755e-05
2.90869e-07
-1.45867e-05
1.60971e-05
1.3931e-05
-3.53722e-07
-1.89573e-05
2.21555e-05
8.79339e-06
-8.93014e-07
-2.40161e-05
3.00467e-05
-3.37976e-06
-1.95268e-05
3.17e-05
6.4866e-05
1.04758e-05
4.81469e-07
-7.57286e-07
6.37364e-05
1.20268e-05
8.31104e-07
-1.36043e-06
6.14771e-05
1.05777e-05
7.06224e-07
-1.32801e-06
5.90361e-05
7.79879e-06
1.58978e-07
-7.526e-07
5.69232e-05
5.42337e-06
-7.61271e-07
2.74878e-07
5.51937e-05
3.72778e-06
-1.98571e-06
1.63865e-06
5.37066e-05
2.7368e-06
-3.50568e-06
3.3018e-06
5.22746e-05
2.25906e-06
-5.36705e-06
5.30551e-06
5.0725e-05
2.12166e-06
-7.67294e-06
7.76122e-06
4.888e-05
2.17979e-06
-1.05774e-05
1.08678e-05
4.65585e-05
2.33502e-06
-1.43276e-05
1.49154e-05
4.34068e-05
2.46342e-06
-1.91804e-05
2.03618e-05
3.89609e-05
2.52e-06
-2.56677e-05
2.78843e-05
3.18508e-05
2.08092e-06
-3.33413e-05
3.80168e-05
2.06855e-05
1.34925e-06
-4.12057e-05
5.01287e-05
-1.82949e-06
-3.26589e-05
5.17941e-05
6.63667e-05
6.90537e-06
5.23523e-07
-8.19825e-07
6.87852e-05
1.01906e-05
9.12968e-07
-1.49534e-06
6.98726e-05
1.01885e-05
7.9485e-07
-1.49304e-06
6.98444e-05
8.50848e-06
2.19065e-07
-9.00566e-07
6.91982e-05
6.64401e-06
-7.67996e-07
1.93606e-07
6.82156e-05
5.13579e-06
-2.1025e-06
1.67713e-06
6.70214e-05
4.19744e-06
-3.77734e-06
3.51087e-06
6.56094e-05
3.77705e-06
-5.84236e-06
5.73631e-06
6.38971e-05
3.7708e-06
-8.40806e-06
8.47129e-06
6.17241e-05
4.06559e-06
-1.16463e-05
1.19334e-05
5.88657e-05
4.57744e-06
-1.58253e-05
1.64414e-05
5.48689e-05
5.19488e-06
-2.125e-05
2.25153e-05
4.91119e-05
5.86391e-06
-2.84821e-05
3.08952e-05
3.99081e-05
6.12544e-06
-3.7138e-05
4.22973e-05
2.56041e-05
5.65361e-06
-4.59979e-05
5.59975e-05
1.69465e-06
-3.68783e-05
5.89582e-05
6.52478e-05
4.45621e-06
5.42829e-07
-8.41486e-07
6.82735e-05
7.76006e-06
9.56469e-07
-1.55157e-06
7.05952e-05
8.5838e-06
8.50383e-07
-1.56738e-06
7.18666e-05
7.93929e-06
2.80783e-07
-9.83057e-07
7.22759e-05
6.82991e-06
-7.00468e-07
1.05283e-07
7.20414e-05
5.81521e-06
-2.02951e-06
1.58458e-06
7.13345e-05
5.1883e-06
-3.69995e-06
3.41603e-06
7.02209e-05
5.01163e-06
-5.7626e-06
5.64163e-06
6.8674e-05
5.26639e-06
-8.3272e-06
8.37851e-06
6.65584e-05
5.90244e-06
-1.15696e-05
1.18483e-05
6.36384e-05
6.88265e-06
-1.57581e-05
1.63728e-05
5.9413e-05
8.14007e-06
-2.12215e-05
2.25018e-05
5.31672e-05
9.64155e-06
-2.85251e-05
3.09933e-05
4.30723e-05
1.08868e-05
-3.7377e-05
4.27105e-05
2.72693e-05
1.10329e-05
-4.65468e-05
5.69706e-05
5.77915e-06
-3.76868e-05
6.08715e-05
6.43127e-05
2.93963e-06
5.61981e-07
-8.58131e-07
6.69902e-05
5.67714e-06
1.0025e-06
-1.59707e-06
6.94882e-05
6.80283e-06
9.19287e-07
-1.63629e-06
7.12848e-05
6.84405e-06
3.72376e-07
-1.07372e-06
7.23118e-05
6.39671e-06
-5.79215e-07
-1.45815e-08
7.26525e-05
5.91875e-06
-1.86707e-06
1.4228e-06
7.24284e-05
5.69752e-06
-3.48111e-06
3.19596e-06
7.17083e-05
5.85688e-06
-5.46859e-06
5.34351e-06
7.04873e-05
6.44379e-06
-7.93239e-06
7.97593e-06
6.86483e-05
7.47573e-06
-1.10447e-05
1.13104e-05
6.59589e-05
8.97706e-06
-1.50611e-05
1.56562e-05
6.18849e-05
1.09623e-05
-2.03242e-05
2.1576e-05
5.56261e-05
1.34671e-05
-2.73795e-05
2.98127e-05
4.51701e-05
1.60276e-05
-3.60644e-05
4.13795e-05
2.83423e-05
1.74046e-05
-4.51652e-05
5.56213e-05
1.07105e-05
-3.69198e-05
6.03307e-05
6.37862e-05
1.94667e-06
5.82979e-07
-8.76167e-07
6.60554e-05
3.99892e-06
1.05474e-06
-1.64579e-06
6.84498e-05
5.12132e-06
1.00365e-06
-1.71655e-06
7.04427e-05
5.54757e-06
4.90644e-07
-1.18702e-06
7.18279e-05
5.60035e-06
-4.18958e-07
-1.69832e-07
7.25834e-05
5.60384e-06
-1.65031e-06
1.20965e-06
7.27696e-05
5.79586e-06
-3.18671e-06
2.90223e-06
7.24355e-05
6.31978e-06
-5.06845e-06
4.9396e-06
7.15804e-05
7.26515e-06
-7.38771e-06
7.42144e-06
7.00958e-05
8.71391e-06
-1.03085e-05
1.05549e-05
6.7752e-05
1.07587e-05
-1.4066e-05
1.46281e-05
6.3984e-05
1.35349e-05
-1.90117e-05
2.02071e-05
5.79144e-05
1.71927e-05
-2.56529e-05
2.7997e-05
4.73121e-05
2.14447e-05
-3.39929e-05
3.91781e-05
2.96236e-05
2.48218e-05
-4.28289e-05
5.31002e-05
1.70804e-05
-3.5523e-05
5.87767e-05
6.35483e-05
1.18944e-06
6.07893e-07
-8.98938e-07
6.55683e-05
2.56688e-06
1.11587e-06
-1.7039e-06
6.78667e-05
3.53239e-06
1.10449e-06
-1.81394e-06
6.99571e-05
4.15002e-06
6.34547e-07
-1.32732e-06
7.15777e-05
4.56541e-06
-2.22992e-07
-3.62736e-07
7.26501e-05
4.97099e-06
-1.3856e-06
9.46016e-07
7.31973e-05
5.53594e-06
-2.82671e-06
2.53947e-06
7.32601e-05
6.39493e-06
-4.57488e-06
4.43694e-06
7.28534e-05
7.65748e-06
-6.70448e-06
6.71882e-06
7.19019e-05
9.45763e-06
-9.35983e-06
9.56766e-06
7.02236e-05
1.1948e-05
-1.27353e-05
1.32243e-05
6.7287e-05
1.54208e-05
-1.71623e-05
1.8213e-05
6.22213e-05
2.01921e-05
-2.30466e-05
2.51129e-05
5.24038e-05
2.66173e-05
-3.05641e-05
3.5209e-05
3.45233e-05
3.34751e-05
-3.84088e-05
4.7636e-05
2.98482e-05
-3.24208e-05
5.41762e-05
6.34654e-05
6.35693e-07
-9.25807e-07
5.14145e-07
6.53959e-05
1.18335e-06
-1.77013e-06
1.2232e-06
6.76826e-05
1.21617e-06
-1.92435e-06
1.95382e-06
6.98668e-05
7.94714e-07
-1.48665e-06
2.65779e-06
7.16687e-05
-5.09463e-09
-5.80726e-07
3.34935e-06
7.29876e-05
-1.09306e-06
6.51366e-07
4.09378e-06
7.3833e-05
-2.43163e-06
2.13858e-06
4.98358e-06
7.42479e-05
-4.03586e-06
3.88595e-06
6.12992e-06
7.42647e-05
-5.96065e-06
5.95282e-06
7.64847e-06
7.38405e-05
-8.32738e-06
8.4934e-06
9.71582e-06
7.2842e-05
-1.12869e-05
1.16994e-05
1.25341e-05
7.07885e-05
-1.51432e-05
1.60431e-05
1.65744e-05
6.68911e-05
-2.0196e-05
2.19788e-05
2.23068e-05
5.8291e-05
-2.68133e-05
3.09053e-05
3.11253e-05
4.14378e-05
-3.36756e-05
4.18672e-05
4.21368e-05
-2.98965e-05
5.03992e-05
5.07833e-05
5.00663e-05
1.25717e-05
2.13816e-07
3.99284e-05
1.03853e-05
3.34213e-07
3.24754e-05
7.7171e-06
1.95753e-07
2.79139e-05
4.78262e-06
-1.40129e-07
2.52142e-05
2.84247e-06
-6.38014e-07
2.3591e-05
1.67365e-06
-1.26559e-06
2.24651e-05
1.07691e-06
-2.0329e-06
2.14959e-05
8.08546e-07
-2.96788e-06
2.04821e-05
7.19104e-07
-4.12498e-06
1.92956e-05
7.03994e-07
-5.56083e-06
1.78306e-05
7.09197e-07
-7.39424e-06
1.59628e-05
6.43495e-07
-9.64561e-06
1.34484e-05
5.11278e-07
-1.25836e-05
1.00168e-05
-1.36131e-08
-1.5512e-05
4.71528e-06
-5.27831e-07
-1.81868e-05
-2.50468e-06
-1.23069e-05
6.47755e-05
1.04895e-05
2.88226e-07
6.34703e-05
1.20609e-05
4.6076e-07
6.0994e-05
1.06248e-05
2.74813e-07
5.83235e-05
7.85115e-06
-2.39054e-07
5.59767e-05
5.4821e-06
-1.05415e-06
5.39972e-05
3.79941e-06
-2.13194e-06
5.22181e-05
2.83144e-06
-3.48113e-06
5.04196e-05
2.3864e-06
-5.14637e-06
4.83895e-05
2.29297e-06
-7.2167e-06
4.59107e-05
2.40624e-06
-9.80096e-06
4.27473e-05
2.63443e-06
-1.30894e-05
3.85381e-05
2.84969e-06
-1.71774e-05
3.27686e-05
3.0178e-06
-2.24047e-05
2.4539e-05
2.68586e-06
-2.78112e-05
1.29257e-05
1.92571e-06
-3.20459e-05
-1.22226e-06
-2.10156e-05
6.62749e-05
6.92304e-06
3.15075e-07
6.85094e-05
1.02345e-05
5.0478e-07
6.93639e-05
1.02555e-05
3.09706e-07
6.90814e-05
8.59243e-06
-2.39711e-07
6.81692e-05
6.7459e-06
-1.11964e-06
6.68994e-05
5.26389e-06
-2.29711e-06
6.53716e-05
4.36614e-06
-3.78431e-06
6.35444e-05
4.00309e-06
-5.63182e-06
6.12904e-05
4.07506e-06
-7.93616e-06
5.84022e-05
4.47022e-06
-1.08221e-05
5.45918e-05
5.11405e-06
-1.44946e-05
4.93895e-05
5.88619e-06
-1.90842e-05
4.21158e-05
6.74559e-06
-2.49362e-05
3.1596e-05
7.14797e-06
-3.10803e-05
1.67451e-05
6.63806e-06
-3.58594e-05
2.17548e-06
-2.3531e-05
6.51581e-05
4.47625e-06
3.3155e-07
6.80011e-05
7.81056e-06
5.3738e-07
7.00919e-05
8.66581e-06
3.49377e-07
7.11112e-05
8.04971e-06
-1.95844e-07
7.12561e-05
6.97101e-06
-1.07051e-06
7.07356e-05
5.99718e-06
-2.24229e-06
6.96968e-05
5.42934e-06
-3.7243e-06
6.81702e-05
5.33557e-06
-5.56846e-06
6.60839e-05
5.70483e-06
-7.8707e-06
6.32526e-05
6.49161e-06
-1.07597e-05
5.93738e-05
7.67395e-06
-1.44392e-05
5.39217e-05
9.17566e-06
-1.90589e-05
4.61132e-05
1.09878e-05
-2.49588e-05
3.4632e-05
1.24738e-05
-3.12216e-05
1.82015e-05
1.26571e-05
-3.61354e-05
6.42376e-06
-2.37336e-05
6.4225e-05
2.96218e-06
3.51046e-07
6.6723e-05
5.73417e-06
5.809e-07
6.89961e-05
6.89809e-06
4.13902e-07
7.05502e-05
6.97735e-06
-1.09401e-07
7.13254e-05
6.57214e-06
-9.55564e-07
7.13958e-05
6.14851e-06
-2.08872e-06
7.0859e-05
6.00342e-06
-3.51847e-06
6.97499e-05
6.26959e-06
-5.29351e-06
6.80199e-05
7.00595e-06
-7.50345e-06
6.55016e-05
8.23972e-06
-1.02745e-05
6.18941e-05
1.00191e-05
-1.37987e-05
5.66305e-05
1.23549e-05
-1.82399e-05
4.88272e-05
1.53296e-05
-2.39179e-05
3.69579e-05
1.82991e-05
-3.00204e-05
1.9386e-05
1.99073e-05
-3.48434e-05
1.17756e-05
-2.28857e-05
6.37002e-05
1.97218e-06
3.72773e-07
6.57939e-05
4.06268e-06
6.32584e-07
6.79709e-05
5.22848e-06
4.96258e-07
6.97331e-05
5.70008e-06
5.6472e-09
7.08827e-05
5.80418e-06
-8.00537e-07
7.13886e-05
5.87325e-06
-1.88096e-06
7.12882e-05
6.15607e-06
-3.23895e-06
7.05983e-05
6.80796e-06
-4.91693e-06
6.92764e-05
7.93485e-06
-6.99474e-06
6.7165e-05
9.63506e-06
-9.59241e-06
6.39664e-05
1.20359e-05
-1.28842e-05
5.90739e-05
1.52815e-05
-1.70458e-05
5.15145e-05
1.95999e-05
-2.23639e-05
3.95004e-05
2.44938e-05
-2.81735e-05
2.09375e-05
2.84343e-05
-3.27929e-05
1.88138e-05
-2.16237e-05
6.34644e-05
1.21781e-06
3.97832e-07
6.53138e-05
2.63656e-06
6.92635e-07
6.74035e-05
3.64895e-06
5.94262e-07
6.92767e-05
4.31676e-06
1.44681e-07
7.06807e-05
4.78968e-06
-6.12494e-07
7.1529e-05
5.26846e-06
-1.62906e-06
7.18235e-05
5.93419e-06
-2.89939e-06
7.15765e-05
6.93587e-06
-4.45569e-06
7.07665e-05
8.40267e-06
-6.36239e-06
6.92751e-05
1.04917e-05
-8.72504e-06
6.68618e-05
1.33992e-05
-1.16852e-05
6.29496e-05
1.74459e-05
-1.54145e-05
5.65739e-05
2.30551e-05
-2.01261e-05
4.54529e-05
3.03929e-05
-2.53421e-05
2.65956e-05
3.82577e-05
-2.9375e-05
3.24444e-05
-1.94559e-05
6.33838e-05
4.24937e-07
5.44725e-07
6.51491e-05
7.57755e-07
1.29692e-06
6.72368e-05
7.01445e-07
2.07593e-06
6.9218e-05
2.97764e-07
2.8325e-06
7.08232e-05
-4.05337e-07
3.58478e-06
7.19448e-05
-1.3525e-06
4.40623e-06
7.25738e-05
-2.5282e-06
5.40181e-06
7.2728e-05
-3.95286e-06
6.6986e-06
7.241e-05
-5.67399e-06
8.43408e-06
7.15399e-05
-7.7798e-06
1.08142e-05
6.99373e-05
-1.03766e-05
1.40913e-05
6.70753e-05
-1.36263e-05
1.87909e-05
6.20877e-05
-1.7664e-05
2.55106e-05
5.23551e-05
-2.22242e-05
3.55364e-05
3.45451e-05
-2.56819e-05
4.80741e-05
-1.76785e-05
5.47715e-05
5.00165e-05
1.25773e-05
1.20023e-07
3.97816e-05
1.04011e-05
1.67928e-07
3.22149e-05
7.73641e-06
2.61016e-08
2.75387e-05
4.80079e-06
-2.64793e-07
2.47238e-05
2.86062e-06
-6.83695e-07
2.29747e-05
1.69524e-06
-1.21171e-06
2.16968e-05
1.10592e-06
-1.86092e-06
2.0533e-05
8.47717e-07
-2.65183e-06
1.92611e-05
7.7147e-07
-3.62455e-06
1.77345e-05
7.72451e-07
-4.80666e-06
1.58181e-05
7.99588e-07
-6.27744e-06
1.34004e-05
7.63589e-07
-7.99146e-06
1.02579e-05
6.69462e-07
-1.01106e-05
6.48901e-06
2.10152e-07
-1.19533e-05
1.84821e-06
-3.5773e-07
-1.31883e-05
-2.14165e-06
-8.31703e-06
6.47049e-05
1.05033e-05
1.57353e-07
6.32589e-05
1.20936e-05
2.14307e-07
6.05985e-05
1.06707e-05
9.70338e-10
5.77203e-05
7.90331e-06
-4.63426e-07
5.51504e-05
5.54082e-06
-1.16442e-06
5.29248e-05
3.87018e-06
-2.0813e-06
5.08565e-05
2.92312e-06
-3.23e-06
4.8698e-05
2.50787e-06
-4.648e-06
4.62019e-05
2.45471e-06
-6.40385e-06
4.3118e-05
2.61831e-06
-8.56288e-06
3.91679e-05
2.91211e-06
-1.12519e-05
3.40122e-05
3.20301e-06
-1.44612e-05
2.71854e-05
3.46038e-06
-1.83687e-05
1.83796e-05
3.20008e-06
-2.19953e-05
7.62623e-06
2.36591e-06
-2.40162e-05
-8.80609e-07
-1.46504e-05
6.62037e-05
6.94137e-06
1.73319e-07
6.8291e-05
1.02781e-05
2.32876e-07
6.89482e-05
1.03219e-05
1.28888e-09
6.84368e-05
8.676e-06
-5.00987e-07
6.72729e-05
6.84711e-06
-1.26205e-06
6.57227e-05
5.38973e-06
-2.26648e-06
6.38666e-05
4.52947e-06
-3.53449e-06
6.16333e-05
4.21931e-06
-5.11e-06
5.88566e-05
4.36364e-06
-7.06842e-06
5.52898e-05
4.85133e-06
-9.48831e-06
5.0597e-05
5.61601e-06
-1.25056e-05
4.43235e-05
6.52687e-06
-1.61345e-05
3.58394e-05
7.55177e-06
-2.05435e-05
2.46066e-05
8.06676e-06
-2.47142e-05
1.06128e-05
7.50765e-06
-2.70073e-05
2.59652e-06
-1.63953e-05
6.50888e-05
4.49726e-06
1.86809e-07
6.77865e-05
7.8614e-06
2.56486e-07
6.96822e-05
8.74721e-06
2.83266e-08
7.04749e-05
8.15892e-06
-4.71461e-07
7.03699e-05
7.10982e-06
-1.22817e-06
6.95703e-05
6.17437e-06
-2.22737e-06
6.82044e-05
5.66146e-06
-3.4904e-06
6.62734e-05
5.64455e-06
-5.06268e-06
6.36655e-05
6.12005e-06
-7.0192e-06
6.01533e-05
7.04597e-06
-9.44217e-06
5.53819e-05
8.41389e-06
-1.24656e-05
4.88325e-05
1.01359e-05
-1.61186e-05
3.97613e-05
1.22243e-05
-2.05602e-05
2.74943e-05
1.39178e-05
-2.48056e-05
1.18649e-05
1.41487e-05
-2.71471e-05
7.15276e-06
-1.64249e-05
6.41578e-05
2.98547e-06
2.05028e-07
6.65136e-05
5.7912e-06
2.95282e-07
6.85974e-05
6.99186e-06
8.54325e-08
6.99337e-05
7.10781e-06
-3.94567e-07
7.04706e-05
6.74283e-06
-1.12547e-06
7.02763e-05
6.37026e-06
-2.09027e-06
6.94302e-05
6.29636e-06
-3.30731e-06
6.79386e-05
6.66206e-06
-4.81936e-06
6.57136e-05
7.53764e-06
-6.69607e-06
6.25449e-05
8.95835e-06
-9.01818e-06
5.80762e-05
1.09942e-05
-1.19103e-05
5.17379e-05
1.36485e-05
-1.54142e-05
4.26703e-05
1.70465e-05
-1.96725e-05
2.99719e-05
2.03806e-05
-2.37848e-05
1.30931e-05
2.22353e-05
-2.60512e-05
1.30635e-05
-1.57034e-05
6.36348e-05
1.99784e-06
2.25643e-07
6.55901e-05
4.1254e-06
3.43014e-07
6.75848e-05
5.33263e-06
1.60842e-07
6.91402e-05
5.84764e-06
-2.89544e-07
7.00664e-05
6.00047e-06
-9.84445e-07
7.03269e-05
6.13125e-06
-1.90245e-06
6.99415e-05
6.49931e-06
-3.05649e-06
6.88997e-05
7.271e-06
-4.48409e-06
6.71216e-05
8.5677e-06
-6.2467e-06
6.44066e-05
1.05019e-05
-8.42093e-06
6.04006e-05
1.32333e-05
-1.11173e-05
5.44844e-05
1.69093e-05
-1.43904e-05
4.5694e-05
2.18315e-05
-1.83586e-05
3.28309e-05
2.73142e-05
-2.22439e-05
1.48196e-05
3.18365e-05
-2.43829e-05
2.09639e-05
-1.47045e-05
6.34011e-05
1.24552e-06
2.49087e-07
6.51169e-05
2.70383e-06
3.98378e-07
6.70325e-05
3.76075e-06
2.50522e-07
6.87115e-05
4.47628e-06
-1.62918e-07
6.99098e-05
5.00366e-06
-8.14047e-07
7.05363e-05
5.55151e-06
-1.67578e-06
7.05773e-05
6.3123e-06
-2.7534e-06
7.00206e-05
7.44824e-06
-4.0762e-06
6.88121e-05
9.10726e-06
-5.69343e-06
6.6794e-05
1.1467e-05
-7.6721e-06
6.36756e-05
1.47656e-05
-1.00992e-05
5.88601e-05
1.9345e-05
-1.30347e-05
5.13827e-05
2.57332e-05
-1.65505e-05
3.94629e-05
3.39254e-05
-2.00335e-05
2.09615e-05
4.28352e-05
-2.18723e-05
3.57234e-05
-1.32539e-05
6.33227e-05
2.73982e-07
5.73813e-07
6.49597e-05
4.57791e-07
1.36679e-06
6.68824e-05
3.47894e-07
2.19153e-06
6.8683e-05
-2.43228e-08
2.99781e-06
7.01011e-05
-6.27299e-07
3.80752e-06
7.10262e-05
-1.42793e-06
4.70187e-06
7.14357e-05
-2.42296e-06
5.79757e-06
7.13267e-05
-3.63223e-06
7.23653e-06
7.06744e-05
-5.09152e-06
9.17716e-06
6.93655e-05
-6.8561e-06
1.18522e-05
6.71789e-05
-8.98737e-06
1.5563e-05
6.35632e-05
-1.1547e-05
2.08814e-05
5.76548e-05
-1.45582e-05
2.85358e-05
4.72325e-05
-1.75936e-05
3.97172e-05
2.96793e-05
-1.91588e-05
5.38652e-05
-1.20635e-05
5.97876e-05
4.99783e-05
1.25824e-05
5.92424e-08
3.96673e-05
1.0415e-05
6.39747e-08
3.20077e-05
7.75373e-06
-6.80724e-08
2.72351e-05
4.81758e-06
-3.09732e-07
2.43222e-05
2.87787e-06
-6.4865e-07
2.24689e-05
1.71596e-06
-1.07446e-06
2.1073e-05
1.13384e-06
-1.59884e-06
1.97714e-05
8.85926e-07
-2.2361e-06
1.83371e-05
8.23913e-07
-3.01417e-06
1.66285e-05
8.44216e-07
-3.94233e-06
1.45197e-05
9.00373e-07
-5.06902e-06
1.1942e-05
9.10165e-07
-6.32386e-06
8.7351e-06
8.87701e-07
-7.79143e-06
5.13012e-06
5.57888e-07
-8.90618e-06
1.18195e-06
9.81973e-08
-9.33829e-06
-1.51789e-06
-5.61719e-06
6.46502e-05
1.05161e-05
7.34659e-08
6.3093e-05
1.21231e-05
6.34893e-08
6.0282e-05
1.07124e-05
-1.46743e-07
5.72291e-05
7.95139e-06
-5.44379e-07
5.44686e-05
5.59539e-06
-1.12144e-06
5.20351e-05
3.93583e-06
-1.86769e-06
4.97319e-05
3.00768e-06
-2.80057e-06
4.72995e-05
2.61965e-06
-3.94936e-06
4.44791e-05
2.60421e-06
-5.36369e-06
4.10214e-05
2.81702e-06
-7.07808e-06
3.66603e-05
3.1788e-06
-9.16917e-06
3.1127e-05
3.55877e-06
-1.15765e-05
2.40737e-05
3.94e-06
-1.43677e-05
1.5502e-05
3.83733e-06
-1.6703e-05
5.90349e-06
3.11832e-06
-1.74378e-05
-1.40289e-07
-1.01246e-05
6.61486e-05
6.95871e-06
8.20734e-08
6.81196e-05
1.03184e-05
6.66345e-08
6.86155e-05
1.0383e-05
-1.6522e-07
6.79116e-05
8.75308e-06
-5.98758e-07
6.65327e-05
6.94041e-06
-1.22816e-06
6.47448e-05
5.50503e-06
-2.04776e-06
6.26194e-05
4.67783e-06
-3.07922e-06
6.00726e-05
4.41432e-06
-4.35789e-06
5.69246e-05
4.62294e-06
-5.93918e-06
5.29274e-05
5.19392e-06
-7.86798e-06
4.7757e-05
6.06983e-06
-1.02263e-05
4.10341e-05
7.11589e-06
-1.29688e-05
3.22618e-05
8.31548e-06
-1.61467e-05
2.12563e-05
9.00045e-06
-1.88718e-05
8.54646e-06
8.53947e-06
-1.97187e-05
3.35829e-06
-1.13474e-05
6.50356e-05
4.51727e-06
9.26145e-08
6.76187e-05
7.90874e-06
8.30769e-08
6.93554e-05
8.82237e-06
-1.47739e-07
6.99577e-05
8.25937e-06
-5.80035e-07
6.96391e-05
7.23683e-06
-1.20608e-06
6.86029e-05
6.3352e-06
-2.02135e-06
6.69689e-05
5.8701e-06
-3.04864e-06
6.47258e-05
5.91959e-06
-4.32478e-06
6.17481e-05
6.48646e-06
-5.90503e-06
5.7806e-05
7.53128e-06
-7.83748e-06
5.25553e-05
9.05713e-06
-1.02022e-05
4.55506e-05
1.09672e-05
-1.29652e-05
3.61798e-05
1.32936e-05
-1.61674e-05
2.41268e-05
1.51889e-05
-1.8941e-05
9.78425e-06
1.55282e-05
-1.97933e-05
8.02945e-06
-1.13118e-05
6.41064e-05
3.00749e-06
1.0838e-07
6.63507e-05
5.84414e-06
1.156e-07
6.82806e-05
7.07808e-06
-1.00134e-07
6.9434e-05
7.22698e-06
-5.15657e-07
6.97675e-05
6.8977e-06
-1.11979e-06
6.93488e-05
6.56976e-06
-1.90617e-06
6.82497e-05
6.55721e-06
-2.89526e-06
6.64642e-05
7.00756e-06
-4.12184e-06
6.38916e-05
7.99995e-06
-5.63698e-06
6.03185e-05
9.57429e-06
-7.48813e-06
5.53976e-05
1.1816e-05
-9.74828e-06
4.86273e-05
1.47175e-05
-1.23942e-05
3.92709e-05
1.84321e-05
-1.54546e-05
2.6771e-05
2.20292e-05
-1.81252e-05
1.11201e-05
2.40493e-05
-1.89214e-05
1.41843e-05
-1.07381e-05
6.3585e-05
2.0217e-06
1.26458e-07
6.54324e-05
4.18305e-06
1.56726e-07
6.72792e-05
5.42758e-06
-3.55289e-08
6.86612e-05
5.98129e-06
-4.25823e-07
6.93968e-05
6.1771e-06
-9.99463e-07
6.94493e-05
6.36146e-06
-1.74662e-06
6.8831e-05
6.80238e-06
-2.68339e-06
6.75203e-05
7.67457e-06
-3.84042e-06
6.54252e-05
9.11073e-06
-5.26237e-06
6.23416e-05
1.12311e-05
-6.99408e-06
5.79232e-05
1.42154e-05
-9.09823e-06
5.16116e-05
1.8202e-05
-1.15633e-05
4.25552e-05
2.35316e-05
-1.44018e-05
2.98777e-05
2.9367e-05
-1.69044e-05
1.30036e-05
3.4167e-05
-1.76264e-05
2.24578e-05
-9.97443e-06
6.33531e-05
1.27083e-06
1.46869e-07
6.49652e-05
2.76491e-06
2.04454e-07
6.67402e-05
3.86167e-06
4.1398e-08
6.82565e-05
4.61959e-06
-3.17568e-07
6.92792e-05
5.1948e-06
-8.54355e-07
6.97171e-05
5.80233e-06
-1.55461e-06
6.95505e-05
6.64388e-06
-2.42833e-06
6.87574e-05
7.89135e-06
-3.49985e-06
6.72736e-05
9.70575e-06
-4.80465e-06
6.49386e-05
1.22756e-05
-6.38162e-06
6.14696e-05
1.58627e-05
-8.27745e-06
5.63213e-05
2.08052e-05
-1.04896e-05
4.86277e-05
2.76784e-05
-1.30036e-05
3.6888e-05
3.63135e-05
-1.52402e-05
1.93793e-05
4.563e-05
-1.58265e-05
3.75815e-05
-8.9983e-06
6.32766e-05
1.68315e-07
5.99905e-07
6.48145e-05
2.55385e-07
1.42937e-06
6.66046e-05
1.24616e-07
2.29489e-06
6.82541e-05
-1.99483e-07
3.14522e-06
6.95123e-05
-6.95803e-07
4.00516e-06
7.02696e-05
-1.34516e-06
4.96226e-06
7.04985e-05
-2.15067e-06
6.14262e-06
7.01883e-05
-3.12943e-06
7.69874e-06
6.93063e-05
-4.30678e-06
9.80305e-06
6.77377e-05
-5.71408e-06
1.27022e-05
6.52706e-05
-7.38073e-06
1.67232e-05
6.13966e-05
-9.31087e-06
2.24431e-05
5.53399e-05
-1.14633e-05
3.06401e-05
4.51101e-05
-1.34057e-05
4.23554e-05
2.84224e-05
-1.38935e-05
5.70524e-05
-8.20924e-06
6.21496e-05
4.99488e-05
1.25867e-05
2.37361e-08
3.95783e-05
1.04264e-05
8.0389e-09
3.18442e-05
7.768e-06
-1.02027e-07
2.69917e-05
4.83154e-06
-2.88757e-07
2.39957e-05
2.8922e-06
-5.44869e-07
2.20533e-05
1.73296e-06
-8.64943e-07
2.05564e-05
1.15638e-06
-1.25837e-06
1.91381e-05
9.16338e-07
-1.73411e-06
1.75688e-05
8.64985e-07
-2.30982e-06
1.57119e-05
8.99333e-07
-2.98478e-06
1.34526e-05
9.75959e-07
-3.78572e-06
1.07578e-05
1.01702e-06
-4.64607e-06
7.53091e-06
1.04199e-06
-5.60651e-06
4.09836e-06
7.92519e-07
-6.26615e-06
7.19473e-07
3.921e-07
-6.3515e-06
-1.16947e-06
-3.72825e-06
6.46077e-05
1.0527e-05
2.54774e-08
6.29634e-05
1.2148e-05
-1.38149e-08
6.00317e-05
1.07477e-05
-1.94795e-07
5.68353e-05
7.99233e-06
-5.08756e-07
5.39151e-05
5.64199e-06
-9.51032e-07
5.13057e-05
3.99168e-06
-1.51695e-06
4.88039e-05
3.0791e-06
-2.22152e-06
4.6143e-05
2.71341e-06
-3.08553e-06
4.30574e-05
2.72882e-06
-4.14197e-06
3.9303e-05
2.98158e-06
-5.40588e-06
3.46311e-05
3.39795e-06
-6.91922e-06
2.88363e-05
3.84816e-06
-8.61294e-06
2.16853e-05
4.32528e-06
-1.05e-05
1.34009e-05
4.33782e-06
-1.19639e-05
4.78426e-06
3.69509e-06
-1.21241e-05
3.6179e-07
-6.87155e-06
6.61058e-05
6.97379e-06
2.95283e-08
6.79857e-05
1.0353e-05
-1.82295e-08
6.83525e-05
1.04353e-05
-2.19573e-07
6.74906e-05
8.81925e-06
-5.63799e-07
6.59319e-05
7.02051e-06
-1.04798e-06
6.39432e-05
5.60368e-06
-1.67101e-06
6.15904e-05
4.80408e-06
-2.4515e-06
5.87819e-05
4.57934e-06
-3.41522e-06
5.53299e-05
4.84124e-06
-4.59968e-06
5.09901e-05
5.48087e-06
-6.02747e-06
4.54574e-05
6.44773e-06
-7.74335e-06
3.84209e-05
7.60312e-06
-9.68728e-06
2.95129e-05
8.94221e-06
-1.18556e-05
1.88082e-05
9.75919e-06
-1.35885e-05
7.19902e-06
9.37157e-06
-1.37859e-05
3.94221e-06
-7.7288e-06
6.49943e-05
4.53484e-06
3.7242e-08
6.7488e-05
7.94978e-06
-7.37405e-09
6.90973e-05
8.88715e-06
-2.08975e-07
6.95435e-05
8.34582e-06
-5.52752e-07
6.90465e-05
7.34593e-06
-1.03456e-06
6.78104e-05
6.47284e-06
-1.65434e-06
6.59498e-05
6.04776e-06
-2.43172e-06
6.34455e-05
6.15259e-06
-3.39377e-06
6.01644e-05
6.7953e-06
-4.57799e-06
5.58792e-05
7.93818e-06
-6.00955e-06
5.02632e-05
9.59318e-06
-7.73172e-06
4.29383e-05
1.16554e-05
-9.69255e-06
3.34214e-05
1.41715e-05
-1.18798e-05
2.16602e-05
1.62258e-05
-1.36464e-05
8.42582e-06
1.66504e-05
-1.38377e-05
8.74991e-06
-7.69372e-06
6.40667e-05
3.02682e-06
4.97111e-08
6.62242e-05
5.89008e-06
1.78033e-08
6.80311e-05
7.15243e-06
-1.72283e-07
6.90348e-05
7.32942e-06
-5.02979e-07
6.91981e-05
7.03049e-06
-9.67671e-07
6.85897e-05
6.74019e-06
-1.56505e-06
6.72762e-05
6.77908e-06
-2.31311e-06
6.52443e-05
7.30005e-06
-3.23743e-06
6.23858e-05
8.38939e-06
-4.37252e-06
5.84889e-05
1.00903e-05
-5.74339e-06
5.32222e-05
1.25001e-05
-7.38847e-06
4.61468e-05
1.56009e-05
-9.26426e-06
3.6648e-05
1.95662e-05
-1.13504e-05
2.4424e-05
2.33702e-05
-1.30456e-05
9.83653e-06
2.55197e-05
-1.32033e-05
1.51312e-05
-7.28287e-06
6.35466e-05
2.04251e-06
6.41545e-08
6.53102e-05
4.23287e-06
5.0301e-08
6.70394e-05
5.50923e-06
-1.21437e-07
6.82795e-05
6.09585e-06
-4.3236e-07
6.88556e-05
6.32809e-06
-8.73248e-07
6.87319e-05
6.55763e-06
-1.44028e-06
6.7916e-05
7.05969e-06
-2.14817e-06
6.63794e-05
8.01575e-06
-3.01951e-06
6.4023e-05
9.56762e-06
-4.08415e-06
6.06437e-05
1.18411e-05
-5.36561e-06
5.59097e-05
1.50313e-05
-6.89539e-06
4.93191e-05
1.92675e-05
-8.63941e-06
4.01332e-05
2.4918e-05
-1.05677e-05
2.77158e-05
3.10303e-05
-1.21471e-05
1.18333e-05
3.6044e-05
-1.22682e-05
2.37319e-05
-6.74181e-06
6.33163e-05
1.29269e-06
8.04005e-08
6.48482e-05
2.81736e-06
8.80562e-08
6.65116e-05
3.94806e-06
-6.08043e-08
6.78951e-05
4.74196e-06
-3.47246e-07
6.87707e-05
5.35766e-06
-7.59504e-07
6.90486e-05
6.01557e-06
-1.29042e-06
6.87052e-05
6.92497e-06
-1.95019e-06
6.77123e-05
8.26564e-06
-2.75692e-06
6.60002e-05
1.02091e-05
-3.73404e-06
6.34094e-05
1.2952e-05
-4.90163e-06
5.96701e-05
1.67742e-05
-6.28105e-06
5.4286e-05
2.20088e-05
-7.84684e-06
4.64912e-05
2.9264e-05
-9.55485e-06
3.49966e-05
3.82488e-05
-1.09642e-05
1.83678e-05
4.78805e-05
-1.10341e-05
3.92036e-05
-6.10227e-06
6.32414e-05
9.73621e-08
6.22203e-07
6.47032e-05
1.28213e-07
1.48272e-06
6.63883e-05
4.66451e-09
2.38291e-06
6.79148e-05
-2.54558e-07
3.27056e-06
6.90391e-05
-6.35444e-07
4.17301e-06
6.96536e-05
-1.1272e-06
5.1831e-06
6.97282e-05
-1.73492e-06
6.43466e-06
6.92471e-05
-2.47152e-06
8.08878e-06
6.81737e-05
-3.35339e-06
1.03292e-05
6.63948e-05
-4.39606e-06
1.34129e-05
6.37114e-05
-5.60994e-06
1.76867e-05
5.96569e-05
-6.97682e-06
2.37293e-05
5.35432e-05
-8.43942e-06
3.23538e-05
4.35562e-05
-9.66061e-06
4.44907e-05
2.76395e-05
-9.71253e-06
5.96162e-05
-5.59002e-06
6.42238e-05
4.99275e-05
1.25901e-05
6.13552e-09
3.95139e-05
1.04353e-05
-1.36008e-08
3.1725e-05
7.77908e-06
-9.21835e-08
2.68132e-05
4.84263e-06
-2.19626e-07
2.3756e-05
2.90377e-06
-3.91424e-07
2.17494e-05
1.74683e-06
-6.05204e-07
2.01835e-05
1.17496e-06
-8.6737e-07
1.86907e-05
9.41734e-07
-1.18307e-06
1.70434e-05
8.99914e-07
-1.56239e-06
1.51126e-05
9.47304e-07
-2.00133e-06
1.27966e-05
1.04326e-06
-2.51296e-06
1.00844e-05
1.11363e-06
-3.04749e-06
6.9165e-06
1.18282e-06
-3.62144e-06
3.63161e-06
1.00085e-06
-3.98211e-06
5.6171e-07
6.5748e-07
-3.93908e-06
-8.92447e-07
-2.2741e-06
6.45769e-05
1.05356e-05
2.98618e-09
6.2869e-05
1.21675e-05
-3.81607e-08
5.9848e-05
1.07753e-05
-1.70035e-07
5.65445e-05
8.0246e-06
-3.87201e-07
5.35052e-05
5.67887e-06
-6.8684e-07
5.07664e-05
4.03593e-06
-1.06718e-06
4.81231e-05
3.13566e-06
-1.53897e-06
4.53069e-05
2.78774e-06
-2.11538e-06
4.20532e-05
2.82787e-06
-2.81622e-06
3.81278e-05
3.11311e-06
-3.64629e-06
3.33033e-05
3.57438e-06
-4.62583e-06
2.74192e-05
4.08347e-06
-5.69865e-06
2.03161e-05
4.64189e-06
-6.85593e-06
1.22992e-05
4.75184e-06
-7.69808e-06
4.28435e-06
4.18307e-06
-7.63488e-06
7.70707e-07
-4.25036e-06
6.60748e-05
6.98578e-06
4.61364e-09
6.78882e-05
1.03802e-05
-4.42936e-08
6.81592e-05
1.04764e-05
-1.9181e-07
6.71794e-05
8.87139e-06
-4.30726e-07
6.54863e-05
7.08362e-06
-7.59641e-07
6.33491e-05
5.68122e-06
-1.17912e-06
6.08329e-05
4.90292e-06
-1.70254e-06
5.78439e-05
4.70807e-06
-2.34662e-06
5.41953e-05
5.01102e-06
-3.13421e-06
4.96524e-05
5.70363e-06
-4.07506e-06
4.39333e-05
6.74086e-06
-5.19073e-06
3.67776e-05
7.98171e-06
-6.42985e-06
2.79039e-05
9.43072e-06
-7.77061e-06
1.74933e-05
1.03552e-05
-8.78125e-06
6.57662e-06
1.00362e-05
-8.72234e-06
4.41415e-06
-4.79563e-06
6.49645e-05
4.54886e-06
9.62747e-09
6.73929e-05
7.98228e-06
-3.77531e-08
6.8908e-05
8.93825e-06
-1.85964e-07
6.92376e-05
8.41389e-06
-4.24813e-07
6.86073e-05
7.43161e-06
-7.52244e-07
6.72233e-05
6.58046e-06
-1.16958e-06
6.51996e-05
6.18589e-06
-1.69098e-06
6.25154e-05
6.33263e-06
-2.33411e-06
5.90379e-05
7.03239e-06
-3.1219e-06
5.45494e-05
8.2485e-06
-4.06589e-06
4.8746e-05
9.99917e-06
-5.18667e-06
4.12997e-05
1.21735e-05
-6.43804e-06
3.18143e-05
1.48285e-05
-7.79223e-06
2.03461e-05
1.70013e-05
-8.82436e-06
7.80989e-06
1.7492e-05
-8.75735e-06
9.30022e-06
-4.76991e-06
6.40381e-05
3.04222e-06
1.82378e-08
6.61324e-05
5.92645e-06
-2.06231e-08
6.78484e-05
7.21102e-06
-1.61077e-07
6.87404e-05
7.40989e-06
-3.90971e-07
6.87766e-05
7.13439e-06
-7.06676e-07
6.80279e-05
6.87284e-06
-1.10875e-06
6.65604e-05
6.9506e-06
-1.6103e-06
6.43593e-05
7.52436e-06
-2.22806e-06
6.13169e-05
8.68534e-06
-2.98304e-06
5.72304e-05
1.04784e-05
-3.88684e-06
5.17899e-05
1.30083e-05
-4.95709e-06
4.46037e-05
1.62487e-05
-6.15332e-06
3.51395e-05
2.03853e-05
-7.44303e-06
2.3198e-05
2.43278e-05
-8.43049e-06
9.27717e-06
2.65551e-05
-8.34547e-06
1.58007e-05
-4.50616e-06
6.35191e-05
2.05901e-06
2.82768e-08
6.52218e-05
4.27218e-06
1.80959e-09
6.68641e-05
5.57339e-06
-1.26054e-07
6.79985e-05
6.18554e-06
-3.42367e-07
6.84556e-05
6.44579e-06
-6.41762e-07
6.82016e-05
6.70964e-06
-1.02316e-06
6.7244e-05
7.25756e-06
-1.49752e-06
6.55529e-05
8.27565e-06
-2.0796e-06
6.30298e-05
9.91171e-06
-2.78743e-06
5.94802e-05
1.22942e-05
-3.63182e-06
5.4592e-05
1.56272e-05
-4.6262e-06
4.79071e-05
2.00308e-05
-5.73653e-06
3.87623e-05
2.58876e-05
-6.92524e-06
2.66147e-05
3.21685e-05
-7.84013e-06
1.13505e-05
3.72902e-05
-7.73924e-06
2.4569e-05
-4.15965e-06
6.329e-05
1.3099e-06
3.95501e-08
6.47638e-05
2.85854e-06
2.79001e-08
6.63449e-05
4.0157e-06
-8.42412e-08
6.76295e-05
4.83742e-06
-2.83773e-07
6.83953e-05
5.48417e-06
-5.63621e-07
6.85548e-05
6.18019e-06
-9.20518e-07
6.80844e-05
7.14022e-06
-1.36245e-06
6.69551e-05
8.5493e-06
-1.9013e-06
6.50983e-05
1.05857e-05
-2.5511e-06
6.23619e-05
1.34497e-05
-3.32079e-06
5.84949e-05
1.74312e-05
-4.21802e-06
5.30385e-05
2.28555e-05
-5.21517e-06
4.52942e-05
3.03451e-05
-6.26804e-06
3.40534e-05
3.95279e-05
-7.08274e-06
1.79765e-05
4.93024e-05
-6.96929e-06
4.02175e-05
-3.77426e-06
6.32164e-05
5.12796e-08
6.39618e-07
6.46231e-05
5.56087e-08
1.5244e-06
6.62311e-05
-3.91357e-08
2.45154e-06
6.76659e-05
-2.20017e-07
3.368e-06
6.86902e-05
-4.78466e-07
4.30295e-06
6.9199e-05
-8.088e-07
5.35302e-06
6.91624e-05
-1.21565e-06
6.65751e-06
6.85646e-05
-1.70756e-06
8.38314e-06
6.73704e-05
-2.29414e-06
1.07206e-05
6.5474e-05
-2.98182e-06
1.39319e-05
6.26936e-05
-3.77198e-06
1.83737e-05
5.85948e-05
-4.64263e-06
2.462e-05
5.25479e-05
-5.54405e-06
3.34967e-05
4.28036e-05
-6.24771e-06
4.58593e-05
2.73715e-05
-6.14543e-06
6.11673e-05
-3.46605e-06
6.5465e-05
4.99134e-05
1.25923e-05
4.10005e-10
3.94712e-05
1.04412e-05