/*--------------------------------*- C++ -*----------------------------------*\
| =========                 |                                                 |
| \\      /  F ield         | OpenFOAM: The Open Source CFD Toolbox           |
|  \\    /   O peration     | Version:  v1912                                 |
|   \\  /    A nd           | Website:  www.openfoam.com                      |
|    \\/     M anipulation  |                                                 |
\*---------------------------------------------------------------------------*/
FoamFile
{
    version     2.0;
    format      ascii;
    class       pointVectorField;
    location    "0.69/fluid";
    object      pointMotionU;
}
// * * * * * * * * * * * * * * * * * * * * * * * * * * * * * * * * * * * * * //

dimensions      [0 1 -1 0 0 0 0];


internalField   nonuniform List<vector> 
16859
(
(0 0 0)
(0 0 0)
(0 0 0)
(0 0 0)
(0 0 0)
(0 0 0)
(0 0 0)
(0 0 0)
(0 0 0)
(0 0 0)
(0 0 0)
(0 0 0)
(0 0 0)
(0 0 0)
(0 0 0)
(0 0 0)
(1.77173e-08 3.02776e-08 1.8696e-08)
(0 0 0)
(5.18906e-10 -1.16263e-09 9.12555e-10)
(9.914e-10 -2.22399e-09 1.77846e-09)
(1.43687e-09 -3.22573e-09 2.66014e-09)
(1.87316e-09 -4.1981e-09 3.61295e-09)
(2.31775e-09 -5.15861e-09 4.68838e-09)
(2.78959e-09 -6.10993e-09 5.93633e-09)
(3.31166e-09 -7.03555e-09 7.40677e-09)
(3.91513e-09 -7.89148e-09 9.15056e-09)
(4.64676e-09 -8.59075e-09 1.12197e-08)
(5.5844e-09 -8.9755e-09 1.3669e-08)
(6.86952e-09 -8.76517e-09 1.65651e-08)
(8.77922e-09 -7.45305e-09 2.0023e-08)
(1.1861e-08 -4.10177e-09 2.43059e-08)
(1.70904e-08 2.97098e-09 3.00235e-08)
(2.48528e-08 1.48642e-08 3.74906e-08)
(3.68613e-08 3.86128e-08 4.64102e-08)
(0 0 0)
(1.02518e-09 -2.29102e-09 1.80144e-09)
(1.95823e-09 -4.38401e-09 3.51019e-09)
(2.8368e-09 -6.3622e-09 5.24877e-09)
(3.69539e-09 -8.28672e-09 7.1256e-09)
(4.56783e-09 -1.01953e-08 9.24167e-09)
(5.49028e-09 -1.20983e-08 1.16949e-08)
(6.50542e-09 -1.39719e-08 1.45826e-08)
(7.6686e-09 -1.5744e-08 1.80032e-08)
(9.05797e-09 -1.7271e-08 2.20539e-08)
(1.07929e-08 -1.82983e-08 2.68281e-08)
(1.30686e-08 -1.84009e-08 3.24133e-08)
(1.62183e-08 -1.69033e-08 3.89032e-08)
(2.07794e-08 -1.28305e-08 4.64209e-08)
(2.73962e-08 -5.12985e-09 5.50956e-08)
(3.53728e-08 5.26822e-09 6.40234e-08)
(4.92948e-08 2.01752e-08 7.80738e-08)
(0 0 0)
(1.507e-09 -3.35136e-09 2.64481e-09)
(2.87746e-09 -6.4165e-09 5.15206e-09)
(4.16544e-09 -9.32013e-09 7.70007e-09)
(5.4202e-09 -1.21559e-08 1.04464e-08)
(6.68992e-09 -1.49858e-08 1.35379e-08)
(8.02522e-09 -1.78364e-08 1.71169e-08)
(9.4839e-09 -2.06912e-08 2.13249e-08)
(1.1137e-08 -2.3476e-08 2.63038e-08)
(1.30767e-08 -2.60344e-08 3.21923e-08)
(1.54279e-08 -2.8091e-08 3.91148e-08)
(1.83653e-08 -2.9204e-08 4.71641e-08)
(2.21352e-08 -2.87292e-08 5.63754e-08)
(2.70485e-08 -2.58802e-08 6.66839e-08)
(3.33303e-08 -2.01065e-08 7.78281e-08)
(4.00669e-08 -1.26727e-08 8.83762e-08)
(5.09429e-08 -2.53733e-09 1.02731e-07)
(0 0 0)
(1.9535e-09 -4.30911e-09 3.42253e-09)
(3.72793e-09 -8.25576e-09 6.66425e-09)
(5.39126e-09 -1.20055e-08 9.95312e-09)
(7.00513e-09 -1.56857e-08 1.34902e-08)
(8.62944e-09 -1.93868e-08 1.74628e-08)
(1.03262e-08 -2.31602e-08 2.20522e-08)
(1.21643e-08 -2.70123e-08 2.74392e-08)
(1.42242e-08 -3.08928e-08 3.38055e-08)
(1.66026e-08 -3.46754e-08 4.13295e-08)
(1.94148e-08 -3.8127e-08 5.01703e-08)
(2.27914e-08 -4.08699e-08 6.04385e-08)
(2.68631e-08 -4.23494e-08 7.2141e-08)
(3.16999e-08 -4.18592e-08 8.50772e-08)
(3.71577e-08 -3.87659e-08 9.8645e-08)
(4.22497e-08 -3.36326e-08 1.1077e-07)
(5.02416e-08 -2.45375e-08 1.25228e-07)
(0 0 0)
(2.35558e-09 -5.13026e-09 4.11776e-09)
(4.49197e-09 -9.8365e-09 8.01341e-09)
(6.48807e-09 -1.43231e-08 1.19568e-08)
(8.41513e-09 -1.8751e-08 1.61854e-08)
(1.03419e-08 -2.32414e-08 2.09196e-08)
(1.23388e-08 -2.7877e-08 2.63728e-08)
(1.44825e-08 -3.26989e-08 3.2758e-08)
(1.68605e-08 -3.77014e-08 4.02912e-08)
(1.95738e-08 -4.282e-08 4.91885e-08)
(2.27353e-08 -4.79118e-08 5.96523e-08)
(2.64587e-08 -5.27251e-08 7.1841e-08)
(3.08292e-08 -5.68504e-08 8.58094e-08)
(3.58186e-08 -5.96438e-08 1.0137e-07)
(4.11129e-08 -6.01537e-08 1.17793e-07)
(4.5605e-08 -5.76964e-08 1.32382e-07)
(5.21413e-08 -4.82403e-08 1.48351e-07)
(0 0 0)
(2.70626e-09 -5.78235e-09 4.71771e-09)
(5.15615e-09 -1.1096e-08 9.17432e-09)
(7.43621e-09 -1.61801e-08 1.36727e-08)
(9.62419e-09 -2.12264e-08 1.8478e-08)
(1.17945e-08 -2.63869e-08 2.38353e-08)
(1.40228e-08 -3.1777e-08 2.99808e-08)
(1.63909e-08 -3.7478e-08 3.71503e-08)
(1.89915e-08 -4.35381e-08 4.55846e-08)
(2.19331e-08 -4.99708e-08 5.55303e-08)
(2.53408e-08 -5.67509e-08 6.72325e-08)
(2.93562e-08 -6.38044e-08 8.09207e-08)
(3.4125e-08 -7.09762e-08 9.67711e-08)
(3.9742e-08 -7.79287e-08 1.14795e-07)
(4.60782e-08 -8.38785e-08 1.34501e-07)
(5.19537e-08 -8.71591e-08 1.52849e-07)
(6.02562e-08 -8.10074e-08 1.73482e-07)
(0 0 0)
(3.00093e-09 -6.23607e-09 5.21422e-09)
(5.71185e-09 -1.19772e-08 1.01312e-08)
(8.22343e-09 -1.7491e-08 1.50768e-08)
(1.06165e-08 -2.29949e-08 2.03349e-08)
(1.29677e-08 -2.86671e-08 2.61651e-08)
(1.53542e-08 -3.46529e-08 3.28158e-08)
(1.7859e-08 -4.10704e-08 4.05333e-08)
(2.05768e-08 -4.80177e-08 4.95685e-08)
(2.36209e-08 -5.55801e-08 6.0181e-08)
(2.71311e-08 -6.38414e-08 7.26397e-08)
(3.12889e-08 -7.29014e-08 8.72259e-08)
(3.634e-08 -8.28982e-08 1.04236e-07)
(4.26152e-08 -9.40111e-08 1.23949e-07)
(5.04643e-08 -1.06328e-07 1.46413e-07)
(5.90474e-08 -1.18369e-07 1.68874e-07)
(7.39214e-08 -1.31979e-07 1.97676e-07)
(0 0 0)
(3.2376e-09 -6.46711e-09 5.6042e-09)
(6.1559e-09 -1.24332e-08 1.08787e-08)
(8.84597e-09 -1.81848e-08 1.61624e-08)
(1.13881e-08 -2.39575e-08 2.17474e-08)
(1.38576e-08 -2.99486e-08 2.78983e-08)
(1.6329e-08 -3.63251e-08 3.48642e-08)
(1.88815e-08 -4.32321e-08 4.28878e-08)
(2.16047e-08 -5.08016e-08 5.22117e-08)
(2.4606e-08 -5.91634e-08 6.30824e-08)
(2.80203e-08 -6.84599e-08 7.57522e-08)
(3.20267e-08 -7.88708e-08 9.04841e-08)
(3.68744e-08 -9.06492e-08 1.07563e-07)
(4.29028e-08 -1.04158e-07 1.27292e-07)
(5.0459e-08 -1.19821e-07 1.49868e-07)
(5.85109e-08 -1.35943e-07 1.7246e-07)
(8.07594e-08 -1.64895e-07 2.09801e-07)
(0 0 0)
(0 0 0)
(0 0 0)
(0 0 0)
(0 0 0)
(0 0 0)
(0 0 0)
(0 0 0)
(0 0 0)
(0 0 0)
(0 0 0)
(0 0 0)
(0 0 0)
(0 0 0)
(0 0 0)
(0 0 0)
(1.10032e-08 1.54232e-08 8.53714e-09)
(0 0 0)
(5.24051e-10 -1.1899e-09 8.83365e-10)
(1.00062e-09 -2.27639e-09 1.72026e-09)
(1.44882e-09 -3.3027e-09 2.57017e-09)
(1.88609e-09 -4.30058e-09 3.48557e-09)
(2.32912e-09 -5.28898e-09 4.51477e-09)
(2.79532e-09 -6.27191e-09 5.70366e-09)
(3.30508e-09 -7.23455e-09 7.09671e-09)
(3.88527e-09 -8.13574e-09 8.737e-09)
(4.57582e-09 -8.89426e-09 1.06645e-08)
(5.4438e-09 -9.36417e-09 1.29132e-08)
(6.61469e-09 -9.29052e-09 1.55101e-08)
(8.34151e-09 -8.22386e-09 1.84861e-08)
(1.11335e-08 -5.35766e-09 2.19098e-08)
(1.5866e-08 6.54186e-10 2.59146e-08)
(2.28687e-08 1.05763e-08 3.02373e-08)
(3.05271e-08 2.29933e-08 3.16617e-08)
(0 0 0)
(1.03545e-09 -2.34455e-09 1.74376e-09)
(1.97672e-09 -4.48689e-09 3.39526e-09)
(2.86105e-09 -6.51346e-09 5.07128e-09)
(3.72217e-09 -8.48835e-09 6.87464e-09)
(4.59241e-09 -1.04518e-08 8.90008e-09)
(5.50511e-09 -1.24169e-08 1.12377e-08)
(6.4981e-09 -1.43627e-08 1.39745e-08)
(7.61873e-09 -1.62223e-08 1.71941e-08)
(8.93219e-09 -1.78616e-08 2.09723e-08)
(1.05374e-08 -1.90461e-08 2.53664e-08)
(1.25989e-08 -1.93932e-08 3.04009e-08)
(1.5407e-08 -1.83192e-08 3.60493e-08)
(1.9448e-08 -1.5042e-08 4.22026e-08)
(2.53198e-08 -8.90332e-09 4.85692e-08)
(3.26066e-08 -9.55395e-10 5.422e-08)
(4.07701e-08 3.99382e-09 5.85266e-08)
(0 0 0)
(1.52247e-09 -3.42937e-09 2.56014e-09)
(2.90553e-09 -6.56653e-09 4.98349e-09)
(4.20281e-09 -9.54099e-09 7.44009e-09)
(5.46262e-09 -1.24505e-08 1.00794e-08)
(6.73112e-09 -1.53608e-08 1.30391e-08)
(8.05527e-09 -1.83019e-08 1.64505e-08)
(9.48654e-09 -2.12611e-08 2.04407e-08)
(1.10853e-08 -2.41702e-08 2.51317e-08)
(1.29262e-08 -2.68841e-08 3.06336e-08)
(1.51062e-08 -2.91493e-08 3.70267e-08)
(1.77564e-08 -3.05703e-08 4.4331e-08)
(2.10612e-08 -3.06009e-08 5.24574e-08)
(2.52602e-08 -2.86544e-08 6.11277e-08)
(3.05401e-08 -2.45603e-08 6.97381e-08)
(3.63362e-08 -1.96959e-08 7.70002e-08)
(4.19592e-08 -1.76597e-08 8.17126e-08)
(0 0 0)
(1.9743e-09 -4.40911e-09 3.31311e-09)
(3.76602e-09 -8.44825e-09 6.44663e-09)
(5.44278e-09 -1.22892e-08 9.61799e-09)
(7.06531e-09 -1.60644e-08 1.30179e-08)
(8.69137e-09 -1.98689e-08 1.68221e-08)
(1.03791e-08 -2.37582e-08 2.11983e-08)
(1.21903e-08 -2.7743e-08 2.63095e-08)
(1.4194e-08 -3.17789e-08 3.23141e-08)
(1.64672e-08 -3.57491e-08 3.93569e-08)
(1.90932e-08 -3.9439e-08 4.75489e-08)
(2.21512e-08 -4.25073e-08 5.69256e-08)
(2.56942e-08 -4.44741e-08 6.73751e-08)
(2.96935e-08 -4.4781e-08 7.85072e-08)
(3.39392e-08 -4.30745e-08 8.94229e-08)
(3.77921e-08 -4.00252e-08 9.82627e-08)
(4.1185e-08 -3.83972e-08 1.03291e-07)
(0 0 0)
(2.3818e-09 -5.24907e-09 3.98644e-09)
(4.54039e-09 -1.00654e-08 7.75252e-09)
(6.55459e-09 -1.46607e-08 1.15557e-08)
(8.49494e-09 -1.9202e-08 1.56212e-08)
(1.04283e-08 -2.38158e-08 2.01561e-08)
(1.24216e-08 -2.85893e-08 2.53579e-08)
(1.45451e-08 -3.35679e-08 3.14199e-08)
(1.68753e-08 -3.87508e-08 3.85318e-08)
(1.94949e-08 -4.40804e-08 4.68737e-08)
(2.24861e-08 -4.94252e-08 5.65964e-08)
(2.59127e-08 -5.45535e-08 6.77821e-08)
(2.97802e-08 -5.90918e-08 8.03682e-08)
(3.39484e-08 -6.24579e-08 9.39853e-08)
(3.79977e-08 -6.38069e-08 1.07614e-07)
(4.11006e-08 -6.2508e-08 1.18839e-07)
(4.29402e-08 -5.99934e-08 1.2522e-07)
(0 0 0)
(2.73787e-09 -5.91614e-09 4.56779e-09)
(5.21494e-09 -1.13539e-08 8.8768e-09)
(7.51806e-09 -1.65607e-08 1.3216e-08)
(9.72468e-09 -2.17354e-08 1.78371e-08)
(1.19079e-08 -2.70356e-08 2.29703e-08)
(1.41407e-08 -3.25816e-08 2.88349e-08)
(1.64998e-08 -3.84587e-08 3.56453e-08)
(1.90694e-08 -4.47191e-08 4.36145e-08)
(2.19435e-08 -5.13804e-08 5.29511e-08)
(2.52241e-08 -5.84226e-08 6.38469e-08)
(2.90149e-08 -6.57788e-08 7.6451e-08)
(3.34033e-08 -7.33015e-08 9.08156e-08)
(3.84039e-08 -8.06521e-08 1.06755e-07)
(4.38043e-08 -8.70007e-08 1.23442e-07)
(4.86673e-08 -9.06633e-08 1.38152e-07)
(5.12007e-08 -8.84848e-08 1.48032e-07)
(0 0 0)
(3.03767e-09 -6.38037e-09 5.04923e-09)
(5.78059e-09 -1.22556e-08 9.80413e-09)
(8.32018e-09 -1.79021e-08 1.45758e-08)
(1.07375e-08 -2.35452e-08 1.96335e-08)
(1.31085e-08 -2.93692e-08 2.52216e-08)
(1.55089e-08 -3.55242e-08 3.15708e-08)
(1.80184e-08 -4.21324e-08 3.89055e-08)
(2.07262e-08 -4.92947e-08 4.74484e-08)
(2.37364e-08 -5.70985e-08 5.74207e-08)
(2.71756e-08 -6.56295e-08 6.90372e-08)
(3.12059e-08 -7.49889e-08 8.24968e-08)
(3.605e-08 -8.53171e-08 9.79638e-08)
(4.20271e-08 -9.67942e-08 1.15497e-07)
(4.95197e-08 -1.09468e-07 1.34727e-07)
(5.80655e-08 -1.22037e-07 1.53186e-07)
(6.65386e-08 -1.33115e-07 1.67838e-07)
(0 0 0)
(3.279e-09 -6.61686e-09 5.42775e-09)
(6.23371e-09 -1.27223e-08 1.05294e-08)
(8.95638e-09 -1.86123e-08 1.56283e-08)
(1.15281e-08 -2.45306e-08 2.1002e-08)
(1.40241e-08 -3.06806e-08 2.68995e-08)
(1.65186e-08 -3.72346e-08 3.35522e-08)
(1.90893e-08 -4.43412e-08 4.11816e-08)
(2.18229e-08 -5.21346e-08 5.00031e-08)
(2.48226e-08 -6.07451e-08 6.02266e-08)
(2.8218e-08 -7.0314e-08 7.20528e-08)
(3.21826e-08 -8.10183e-08 8.56682e-08)
(3.69646e-08 -9.31077e-08 1.01234e-07)
(4.29203e-08 -1.06937e-07 1.18838e-07)
(5.04595e-08 -1.22872e-07 1.3827e-07)
(5.88352e-08 -1.39374e-07 1.56939e-07)
(7.36093e-08 -1.62871e-07 1.78124e-07)
(0 0 0)
(0 0 0)
(0 0 0)
(0 0 0)
(0 0 0)
(0 0 0)
(0 0 0)
(0 0 0)
(0 0 0)
(0 0 0)
(0 0 0)
(0 0 0)
(0 0 0)
(0 0 0)
(0 0 0)
(0 0 0)
(5.78951e-09 7.02663e-09 2.76994e-09)
(0 0 0)
(5.26701e-10 -1.21403e-09 8.22018e-10)
(1.00486e-09 -2.32295e-09 1.5998e-09)
(1.45283e-09 -3.37132e-09 2.38771e-09)
(1.88691e-09 -4.3921e-09 3.23335e-09)
(2.32213e-09 -5.40574e-09 4.17983e-09)
(2.77313e-09 -6.4182e-09 5.26693e-09)
(3.25548e-09 -7.41785e-09 6.53121e-09)
(3.78775e-09 -8.36969e-09 8.0045e-09)
(4.39518e-09 -9.20551e-09 9.70936e-09)
(5.11769e-09 -9.80811e-09 1.16498e-08)
(6.02774e-09 -9.98744e-09 1.3795e-08)
(7.26539e-09 -9.44666e-09 1.60511e-08)
(9.08704e-09 -7.74374e-09 1.82052e-08)
(1.18323e-08 -4.34631e-09 1.98021e-08)
(1.52914e-08 5.60996e-10 2.0029e-08)
(1.71613e-08 5.66781e-09 1.5034e-08)
(0 0 0)
(1.04087e-09 -2.39183e-09 1.62266e-09)
(1.98551e-09 -4.57809e-09 3.15748e-09)
(2.86975e-09 -6.64782e-09 4.7113e-09)
(3.72531e-09 -8.66752e-09 6.3774e-09)
(4.58135e-09 -1.06802e-08 8.24036e-09)
(5.46599e-09 -1.27021e-08 1.03783e-08)
(6.40822e-09 -1.47177e-08 1.28631e-08)
(7.44026e-09 -1.66704e-08 1.57574e-08)
(8.60095e-09 -1.84472e-08 1.91048e-08)
(9.94226e-09 -1.98583e-08 2.2911e-08)
(1.15422e-08 -2.06174e-08 2.71074e-08)
(1.35238e-08 -2.0346e-08 3.14883e-08)
(1.60531e-08 -1.86741e-08 3.55947e-08)
(1.91872e-08 -1.56215e-08 3.85355e-08)
(2.2269e-08 -1.24628e-08 3.91154e-08)
(2.36705e-08 -1.28595e-08 3.50596e-08)
(0 0 0)
(1.53097e-09 -3.4981e-09 2.3824e-09)
(2.91963e-09 -6.69906e-09 4.63466e-09)
(4.21776e-09 -9.73616e-09 6.91237e-09)
(5.47103e-09 -1.27106e-08 9.35118e-09)
(6.72136e-09 -1.56914e-08 1.20741e-08)
(8.00875e-09 -1.87127e-08 1.51952e-08)
(9.37304e-09 -2.17678e-08 1.88202e-08)
(1.08549e-08 -2.47997e-08 2.30417e-08)
(1.24954e-08 -2.76854e-08 2.79271e-08)
(1.43329e-08 -3.02175e-08 3.34901e-08)
(1.63959e-08 -3.2096e-08 3.9641e-08)
(1.86839e-08 -3.29679e-08 4.60993e-08)
(2.1115e-08 -3.26027e-08 5.22514e-08)
(2.33973e-08 -3.13372e-08 5.69811e-08)
(2.48698e-08 -3.05422e-08 5.88983e-08)
(2.3858e-08 -3.25902e-08 5.56964e-08)
(0 0 0)
(1.98629e-09 -4.49694e-09 3.08333e-09)
(3.78642e-09 -8.61755e-09 5.9959e-09)
(5.46599e-09 -1.25383e-08 8.93675e-09)
(7.08276e-09 -1.6396e-08 1.2079e-08)
(8.6897e-09 -2.02892e-08 1.55799e-08)
(1.03371e-08 -2.42774e-08 1.95853e-08)
(1.2074e-08 -2.83764e-08 2.42318e-08)
(1.39475e-08 -3.25509e-08 2.96416e-08)
(1.59981e-08 -3.67012e-08 3.59082e-08)
(1.82463e-08 -4.06474e-08 4.30651e-08)
(2.06641e-08 -4.41209e-08 5.10273e-08)
(2.31169e-08 -4.67875e-08 5.94878e-08)
(2.5264e-08 -4.83648e-08 6.77458e-08)
(2.6461e-08 -4.8923e-08 7.44883e-08)
(2.60494e-08 -4.92405e-08 7.79428e-08)
(2.27795e-08 -5.1295e-08 7.54714e-08)
(0 0 0)
(2.39771e-09 -5.35303e-09 3.71038e-09)
(4.56813e-09 -1.02657e-08 7.21139e-09)
(6.58812e-09 -1.49554e-08 1.07388e-08)
(8.52526e-09 -1.95936e-08 1.44971e-08)
(1.04417e-08 -2.43107e-08 1.86716e-08)
(1.23963e-08 -2.9197e-08 2.3435e-08)
(1.44468e-08 -3.43013e-08 2.89495e-08)
(1.66484e-08 -3.96274e-08 3.53636e-08)
(1.90478e-08 -4.51256e-08 4.27983e-08)
(2.16667e-08 -5.06809e-08 5.13167e-08)
(2.44647e-08 -5.60964e-08 6.08643e-08)
(2.72639e-08 -6.10746e-08 7.11609e-08)
(2.96145e-08 -6.51951e-08 8.15005e-08)
(3.06537e-08 -6.79367e-08 9.04487e-08)
(2.9506e-08 -6.89776e-08 9.58002e-08)
(2.4506e-08 -6.96754e-08 9.44246e-08)
(0 0 0)
(2.75802e-09 -6.03272e-09 4.25208e-09)
(5.25082e-09 -1.15785e-08 8.25849e-09)
(7.56355e-09 -1.6891e-08 1.22839e-08)
(9.77101e-09 -2.21739e-08 1.6557e-08)
(1.1942e-08 -2.75883e-08 2.1284e-08)
(1.41423e-08 -3.32568e-08 2.66569e-08)
(1.64371e-08 -3.92658e-08 3.28563e-08)
(1.88918e-08 -4.56669e-08 4.00502e-08)
(2.15684e-08 -5.24758e-08 4.83822e-08)
(2.45151e-08 -5.96686e-08 5.79453e-08)
(2.77417e-08 -6.71719e-08 6.87298e-08)
(3.11653e-08 -7.48313e-08 8.05208e-08)
(3.44966e-08 -8.23105e-08 9.26878e-08)
(3.70492e-08 -8.88501e-08 1.03794e-07)
(3.77459e-08 -9.30138e-08 1.11245e-07)
(3.34269e-08 -9.21803e-08 1.11583e-07)
(0 0 0)
(3.0622e-09 -6.50561e-09 4.70105e-09)
(5.82502e-09 -1.24969e-08 9.1229e-09)
(8.37857e-09 -1.8257e-08 1.35506e-08)
(1.08017e-08 -2.4016e-08 1.82288e-08)
(1.3167e-08 -2.99616e-08 2.33767e-08)
(1.55439e-08 -3.62451e-08 2.91967e-08)
(1.80029e-08 -4.29879e-08 3.58782e-08)
(2.06173e-08 -5.02859e-08 4.35973e-08)
(2.34654e-08 -5.82165e-08 5.25074e-08)
(2.66296e-08 -6.68445e-08 6.27178e-08)
(3.01937e-08 -7.62324e-08 7.42515e-08)
(3.42331e-08 -8.64436e-08 8.69561e-08)
(3.8784e-08 -9.75052e-08 1.00305e-07)
(4.37232e-08 -1.0919e-07 1.1295e-07)
(4.82716e-08 -1.20021e-07 1.22028e-07)
(5.07492e-08 -1.28376e-07 1.23045e-07)
(0 0 0)
(3.30781e-09 -6.74641e-09 5.05443e-09)
(6.28657e-09 -1.2972e-08 9.79973e-09)
(9.02769e-09 -1.89796e-08 1.45323e-08)
(1.16107e-08 -2.50179e-08 1.95045e-08)
(1.41081e-08 -3.12934e-08 2.49399e-08)
(1.65896e-08 -3.7979e-08 3.10419e-08)
(1.91254e-08 -4.52207e-08 3.79978e-08)
(2.17905e-08 -5.31453e-08 4.59776e-08)
(2.46681e-08 -6.18677e-08 5.5126e-08)
(2.78544e-08 -7.15e-08 6.55431e-08)
(3.14638e-08 -8.21647e-08 7.72459e-08)
(3.56308e-08 -9.40065e-08 9.00916e-08)
(4.04909e-08 -1.07175e-07 1.03604e-07)
(4.60528e-08 -1.2166e-07 1.1661e-07)
(5.13801e-08 -1.35701e-07 1.26281e-07)
(5.94415e-08 -1.53781e-07 1.27126e-07)
(0 0 0)
(0 0 0)
(0 0 0)
(0 0 0)
(0 0 0)
(0 0 0)
(0 0 0)
(0 0 0)
(0 0 0)
(0 0 0)
(0 0 0)
(0 0 0)
(0 0 0)
(0 0 0)
(0 0 0)
(0 0 0)
(2.62562e-09 2.99617e-09 1.67886e-09)
(0 0 0)
(5.27253e-10 -1.23459e-09 7.316e-10)
(1.0049e-09 -2.36264e-09 1.42302e-09)
(1.45021e-09 -3.42984e-09 2.1218e-09)
(1.87803e-09 -4.47027e-09 2.86912e-09)
(2.3012e-09 -5.5057e-09 3.70154e-09)
(2.73083e-09 -6.54413e-09 4.65154e-09)
(3.17673e-09 -7.5775e-09 5.74688e-09)
(3.64776e-09 -8.57784e-09 7.00797e-09)
(4.15238e-09 -9.49138e-09 8.44149e-09)
(4.70074e-09 -1.02307e-08 1.00279e-08)
(5.31012e-09 -1.06677e-08 1.16995e-08)
(6.01556e-09 -1.06306e-08 1.33029e-08)
(6.87706e-09 -9.91625e-09 1.45395e-08)
(7.93441e-09 -8.34741e-09 1.48998e-08)
(8.96387e-09 -6.091e-09 1.38693e-08)
(8.84445e-09 -2.74502e-09 1.03867e-08)
(0 0 0)
(1.04223e-09 -2.43211e-09 1.44422e-09)
(1.98617e-09 -4.65581e-09 2.80868e-09)
(2.86564e-09 -6.7623e-09 4.18681e-09)
(3.70963e-09 -8.82012e-09 5.65935e-09)
(4.54318e-09 -1.08746e-08 7.29802e-09)
(5.38788e-09 -1.29455e-08 9.16672e-09)
(6.26214e-09 -1.50232e-08 1.13204e-08)
(7.18059e-09 -1.70623e-08 1.37998e-08)
(8.1525e-09 -1.89726e-08 1.66192e-08)
(9.17936e-09 -2.06102e-08 1.97428e-08)
(1.02518e-08 -2.17781e-08 2.30429e-08)
(1.13435e-08 -2.2261e-08 2.6234e-08)
(1.23883e-08 -2.1939e-08 2.87774e-08)
(1.32081e-08 -2.1035e-08 2.98336e-08)
(1.34563e-08 -2.03502e-08 2.87699e-08)
(1.29398e-08 -2.14615e-08 2.61527e-08)
(0 0 0)
(1.53362e-09 -3.55658e-09 2.12057e-09)
(2.92203e-09 -6.8118e-09 4.12299e-09)
(4.21429e-09 -9.90193e-09 6.14338e-09)
(5.45237e-09 -1.29309e-08 8.29918e-09)
(6.67266e-09 -1.59706e-08 1.06948e-08)
(7.90648e-09 -1.9059e-08 1.34238e-08)
(9.17976e-09 -2.21956e-08 1.65674e-08)
(1.05105e-08 -2.5335e-08 2.01877e-08)
(1.19026e-08 -2.83771e-08 2.4311e-08)
(1.33337e-08 -3.11597e-08 2.88965e-08)
(1.47334e-08 -3.34682e-08 3.37833e-08)
(1.59469e-08 -3.50946e-08 3.86103e-08)
(1.6685e-08 -3.60045e-08 4.27205e-08)
(1.6516e-08 -3.66246e-08 4.51577e-08)
(1.52222e-08 -3.78053e-08 4.52481e-08)
(1.2784e-08 -4.04547e-08 4.37571e-08)
(0 0 0)
(1.99089e-09 -4.57148e-09 2.74474e-09)
(3.79205e-09 -8.76109e-09 5.33454e-09)
(5.46591e-09 -1.2749e-08 7.94356e-09)
(7.06602e-09 -1.66749e-08 1.07218e-08)
(8.639e-09 -2.06404e-08 1.38026e-08)
(1.02253e-08 -2.47081e-08 1.73063e-08)
(1.18585e-08 -2.88983e-08 2.13385e-08)
(1.35606e-08 -3.31837e-08 2.59826e-08)
(1.53325e-08 -3.74803e-08 3.12815e-08)
(1.71313e-08 -4.16398e-08 3.7202e-08)
(1.88304e-08 -4.54522e-08 4.3576e-08)
(2.01505e-08 -4.86842e-08 5.0013e-08)
(2.05743e-08 -5.11897e-08 5.57979e-08)
(1.93776e-08 -5.31097e-08 5.98797e-08)
(1.63796e-08 -5.48757e-08 6.13772e-08)
(1.1982e-08 -5.73676e-08 6.09571e-08)
(0 0 0)
(2.40494e-09 -5.44098e-09 3.30338e-09)
(4.57852e-09 -1.04349e-08 6.4169e-09)
(6.59432e-09 -1.52032e-08 9.54686e-09)
(8.51558e-09 -1.99205e-08 1.28705e-08)
(1.03979e-08 -2.47196e-08 1.65455e-08)
(1.22902e-08 -2.96924e-08 2.0714e-08)
(1.42345e-08 -3.48892e-08 2.55026e-08)
(1.62612e-08 -4.03157e-08 3.10141e-08)
(1.83784e-08 -4.59261e-08 3.73094e-08)
(2.05467e-08 -5.16141e-08 4.4371e-08)
(2.26328e-08 -5.72021e-08 5.2042e-08)
(2.43242e-08 -6.24281e-08 5.99322e-08)
(2.50097e-08 -6.69286e-08 6.72995e-08)
(2.37597e-08 -7.02318e-08 7.29975e-08)
(2.01603e-08 -7.19016e-08 7.58833e-08)
(1.4191e-08 -7.24836e-08 7.65126e-08)
(0 0 0)
(2.76846e-09 -6.13101e-09 3.78629e-09)
(5.26733e-09 -1.17674e-08 7.34992e-09)
(7.57863e-09 -1.71672e-08 1.09226e-08)
(9.77301e-09 -2.25371e-08 1.47025e-08)
(1.1913e-08 -2.80397e-08 1.88655e-08)
(1.40552e-08 -3.37977e-08 2.35698e-08)
(1.625e-08 -3.98953e-08 2.89569e-08)
(1.85402e-08 -4.63789e-08 3.51439e-08)
(2.09523e-08 -5.3255e-08 4.22061e-08)
(2.34794e-08 -6.04838e-08 5.01419e-08)
(2.60462e-08 -6.79658e-08 5.88109e-08)
(2.84434e-08 -7.55036e-08 6.78339e-08)
(3.02216e-08 -8.26977e-08 7.64479e-08)
(3.06101e-08 -8.87221e-08 8.33877e-08)
(2.89641e-08 -9.21792e-08 8.72189e-08)
(2.37915e-08 -9.01361e-08 8.86272e-08)
(0 0 0)
(3.07628e-09 -6.61084e-09 4.18685e-09)
(5.84865e-09 -1.2699e-08 8.12082e-09)
(8.40444e-09 -1.85521e-08 1.20515e-08)
(1.08188e-08 -2.44031e-08 1.61912e-08)
(1.31588e-08 -3.04404e-08 2.07269e-08)
(1.54857e-08 -3.68138e-08 2.58259e-08)
(1.78572e-08 -4.36392e-08 3.16366e-08)
(2.0327e-08 -5.10017e-08 3.82819e-08)
(2.29429e-08 -5.8958e-08 4.58427e-08)
(2.57399e-08 -6.75373e-08 5.43242e-08)
(2.87266e-08 -7.67391e-08 6.35949e-08)
(3.1861e-08 -8.65158e-08 7.32805e-08)
(3.50144e-08 -9.67094e-08 8.25879e-08)
(3.79325e-08 -1.06845e-07 9.00867e-08)
(4.0174e-08 -1.15475e-07 9.39301e-08)
(4.1793e-08 -1.20733e-07 9.43127e-08)
(0 0 0)
(3.32571e-09 -6.85493e-09 4.50244e-09)
(6.31779e-09 -1.31804e-08 8.72508e-09)
(9.06531e-09 -1.92838e-08 1.29276e-08)
(1.16447e-08 -2.54162e-08 1.73291e-08)
(1.4124e-08 -3.17846e-08 2.21207e-08)
(1.6566e-08 -3.8559e-08 2.7471e-08)
(1.90304e-08 -4.58781e-08 3.35266e-08)
(2.15762e-08 -5.38539e-08 4.04059e-08)
(2.42618e-08 -6.25748e-08 4.81833e-08)
(2.7145e-08 -7.2107e-08 5.68565e-08)
(3.02786e-08 -8.24945e-08 6.62889e-08)
(3.36985e-08 -9.37482e-08 7.61077e-08)
(3.73978e-08 -1.05804e-07 8.55325e-08)
(4.125e-08 -1.18377e-07 9.31693e-08)
(4.46045e-08 -1.29836e-07 9.70801e-08)
(5.05565e-08 -1.43933e-07 9.44788e-08)
(0 0 0)
(0 0 0)
(0 0 0)
(0 0 0)
(0 0 0)
(0 0 0)
(0 0 0)
(0 0 0)
(0 0 0)
(0 0 0)
(0 0 0)
(0 0 0)
(0 0 0)
(0 0 0)
(0 0 0)
(0 0 0)
(1.26618e-09 1.38289e-09 1.78203e-09)
(0 0 0)
(5.2632e-10 -1.25134e-09 6.1604e-10)
(1.00203e-09 -2.39497e-09 1.19764e-09)
(1.44324e-09 -3.4775e-09 1.78418e-09)
(1.86322e-09 -4.53391e-09 2.40939e-09)
(2.27251e-09 -5.58705e-09 3.10251e-09)
(2.67872e-09 -6.64658e-09 3.8885e-09)
(3.08627e-09 -7.70751e-09 4.78697e-09)
(3.49545e-09 -8.74767e-09 5.80922e-09)
(3.90119e-09 -9.72436e-09 6.95192e-09)
(4.29205e-09 -1.0571e-08 8.18584e-09)
(4.65145e-09 -1.11965e-08 9.43849e-09)
(4.96326e-09 -1.14899e-08 1.05712e-08)
(5.2226e-09 -1.13259e-08 1.13594e-08)
(5.43894e-09 -1.05617e-08 1.15191e-08)
(5.58614e-09 -9.14003e-09 1.09359e-08)
(5.2961e-09 -5.97678e-09 9.2602e-09)
(0 0 0)
(1.0407e-09 -2.46495e-09 1.21617e-09)
(1.98119e-09 -4.71914e-09 2.364e-09)
(2.85305e-09 -6.85546e-09 3.52086e-09)
(3.68232e-09 -8.94408e-09 4.75288e-09)
(4.48972e-09 -1.10321e-08 6.11748e-09)
(5.29041e-09 -1.31422e-08 7.66385e-09)
(6.09286e-09 -1.52694e-08 9.43105e-09)
(6.89635e-09 -1.73775e-08 1.14422e-08)
(7.68652e-09 -1.93934e-08 1.36925e-08)
(8.42925e-09 -2.12041e-08 1.61286e-08)
(9.06427e-09 -2.26645e-08 1.86171e-08)
(9.50175e-09 -2.36314e-08 2.09061e-08)
(9.63082e-09 -2.40415e-08 2.25988e-08)
(9.36223e-09 -2.40265e-08 2.32277e-08)
(8.78009e-09 -2.39439e-08 2.26902e-08)
(8.48779e-09 -2.46233e-08 2.18918e-08)
(0 0 0)
(1.5321e-09 -3.60424e-09 1.78588e-09)
(2.91628e-09 -6.90356e-09 3.47056e-09)
(4.19848e-09 -1.00365e-08 5.16676e-09)
(5.41669e-09 -1.3109e-08 6.97068e-09)
(6.60153e-09 -1.61951e-08 8.96599e-09)
(7.77573e-09 -1.93355e-08 1.12249e-08)
(8.95219e-09 -2.25346e-08 1.38057e-08)
(1.01293e-08 -2.57554e-08 1.67447e-08)
(1.12818e-08 -2.89139e-08 2.00407e-08)
(1.23463e-08 -3.18765e-08 2.3628e-08)
(1.31993e-08 -3.44733e-08 2.7338e-08)
(1.36346e-08 -3.65515e-08 3.08569e-08)
(1.33649e-08 -3.80963e-08 3.37138e-08)
(1.2145e-08 -3.93974e-08 3.5403e-08)
(1.02587e-08 -4.09096e-08 3.58344e-08)
(8.48658e-09 -4.31445e-08 3.59828e-08)
(0 0 0)
(1.99015e-09 -4.63213e-09 2.31183e-09)
(3.78719e-09 -8.87764e-09 4.49098e-09)
(5.44996e-09 -1.29193e-08 6.68169e-09)
(7.0273e-09 -1.6899e-08 9.00682e-09)
(8.55925e-09 -2.092e-08 1.15735e-08)
(1.00765e-08 -2.50468e-08 1.44747e-08)
(1.1598e-08 -2.93025e-08 1.77866e-08)
(1.31245e-08 -3.36642e-08 2.15598e-08)
(1.46261e-08 -3.80567e-08 2.5801e-08)
(1.60192e-08 -4.2347e-08 3.0443e-08)
(1.713e-08 -4.6349e-08 3.53031e-08)
(1.76457e-08 -4.98541e-08 4.004e-08)
(1.70907e-08 -5.27098e-08 4.41487e-08)
(1.49845e-08 -5.4944e-08 4.70909e-08)
(1.16512e-08 -5.6742e-08 4.86619e-08)
(8.21803e-09 -5.87631e-08 4.97461e-08)
(0 0 0)
(2.40578e-09 -5.51235e-09 2.78278e-09)
(4.57637e-09 -1.05718e-08 5.40303e-09)
(6.5815e-09 -1.54025e-08 8.03165e-09)
(8.47951e-09 -2.01811e-08 1.08139e-08)
(1.03191e-08 -2.50414e-08 1.38764e-08)
(1.21393e-08 -3.00753e-08 1.73296e-08)
(1.39671e-08 -3.53325e-08 2.1265e-08)
(1.58121e-08 -4.08166e-08 2.5746e-08)
(1.76524e-08 -4.64793e-08 3.07888e-08)
(1.94115e-08 -5.22103e-08 3.63307e-08)
(2.09157e-08 -5.78254e-08 4.21846e-08)
(2.18318e-08 -6.30475e-08 4.79926e-08)
(2.161e-08 -6.7476e-08 5.32162e-08)
(1.95843e-08 -7.05626e-08 5.7257e-08)
(1.58308e-08 -7.18056e-08 5.9777e-08)
(1.10209e-08 -7.16886e-08 6.16466e-08)
(0 0 0)
(2.77162e-09 -6.21052e-09 3.19013e-09)
(5.26954e-09 -1.19197e-08 6.18975e-09)
(7.57199e-09 -1.73882e-08 9.19079e-09)
(9.74483e-09 -2.28243e-08 1.23559e-08)
(1.1844e-08 -2.83909e-08 1.58264e-08)
(1.39164e-08 -3.42085e-08 1.97254e-08)
(1.59988e-08 -4.03566e-08 2.41554e-08)
(1.8114e-08 -4.68728e-08 2.9189e-08)
(2.02619e-08 -5.37484e-08 3.48495e-08)
(2.24019e-08 -6.09187e-08 4.10775e-08)
(2.44237e-08 -6.82446e-08 4.76809e-08)
(2.61011e-08 -7.54666e-08 5.4278e-08)
(2.70445e-08 -8.21003e-08 6.02662e-08)
(2.67336e-08 -8.72483e-08 6.49192e-08)
(2.49938e-08 -8.96298e-08 6.77607e-08)
(2.10579e-08 -8.66443e-08 6.99245e-08)
(0 0 0)
(3.08233e-09 -6.69569e-09 3.52827e-09)
(5.85653e-09 -1.28613e-08 6.84025e-09)
(8.40639e-09 -1.87871e-08 1.01428e-08)
(1.08027e-08 -2.47071e-08 1.36103e-08)
(1.31064e-08 -3.0809e-08 1.73932e-08)
(1.53703e-08 -3.72388e-08 2.1622e-08)
(1.76397e-08 -4.4104e-08 2.64041e-08)
(1.99509e-08 -5.14751e-08 3.18156e-08)
(2.23283e-08 -5.93836e-08 3.78809e-08)
(2.47772e-08 -6.78173e-08 4.45386e-08)
(2.72745e-08 -7.67094e-08 5.15867e-08)
(2.97583e-08 -8.59118e-08 5.86106e-08)
(3.21393e-08 -9.5134e-08 6.49126e-08)
(3.43617e-08 -1.03804e-07 6.95453e-08)
(3.64054e-08 -1.10709e-07 7.17662e-08)
(3.90419e-08 -1.14524e-07 7.27565e-08)
(0 0 0)
(3.33502e-09 -6.9422e-09 3.79489e-09)
(6.33215e-09 -1.33472e-08 7.35061e-09)
(9.07738e-09 -1.95249e-08 1.08825e-08)
(1.16433e-08 -2.57272e-08 1.45707e-08)
(1.40929e-08 -3.21596e-08 1.85694e-08)
(1.64814e-08 -3.89869e-08 2.30101e-08)
(1.88582e-08 -4.63375e-08 2.79993e-08)
(2.12675e-08 -5.43053e-08 3.36092e-08)
(2.37482e-08 -6.29478e-08 3.98589e-08)
(2.6333e-08 -7.22825e-08 4.66795e-08)
(2.90462e-08 -8.22774e-08 5.38594e-08)
(3.19015e-08 -9.28346e-08 6.0967e-08)
(3.49079e-08 -1.03757e-07 6.72664e-08)
(3.80673e-08 -1.14683e-07 7.1725e-08)
(4.1056e-08 -1.24315e-07 7.3446e-08)
(4.75244e-08 -1.36755e-07 7.15263e-08)
(0 0 0)
(0 0 0)
(0 0 0)
(0 0 0)
(0 0 0)
(0 0 0)
(0 0 0)
(0 0 0)
(0 0 0)
(0 0 0)
(0 0 0)
(0 0 0)
(0 0 0)
(0 0 0)
(0 0 0)
(0 0 0)
(7.87386e-10 8.55697e-10 1.66415e-09)
(0 0 0)
(5.2459e-10 -1.26418e-09 4.79953e-10)
(9.97719e-10 -2.41972e-09 9.32663e-10)
(1.43441e-09 -3.51401e-09 1.38841e-09)
(1.84653e-09 -4.58267e-09 1.87282e-09)
(2.24249e-09 -5.64919e-09 2.40763e-09)
(2.62703e-09 -6.72443e-09 3.01066e-09)
(3.00033e-09 -7.80546e-09 3.6948e-09)
(3.3567e-09 -8.87385e-09 4.46541e-09)
(3.6828e-09 -9.89323e-09 5.31536e-09)
(3.95679e-09 -1.08072e-08 6.21721e-09)
(4.15067e-09 -1.15392e-08 7.11339e-09)
(4.24107e-09 -1.19925e-08 7.90842e-09)
(4.23353e-09 -1.2041e-08 8.47426e-09)
(4.19378e-09 -1.14925e-08 8.69607e-09)
(4.21697e-09 -1.01715e-08 8.58324e-09)
(4.11428e-09 -6.85242e-09 7.75083e-09)
(0 0 0)
(1.03761e-09 -2.49018e-09 9.47571e-10)
(1.97339e-09 -4.76776e-09 1.84111e-09)
(2.8368e-09 -6.92693e-09 2.74009e-09)
(3.65114e-09 -9.03893e-09 3.69474e-09)
(4.43335e-09 -1.11521e-08 4.74774e-09)
(5.19315e-09 -1.32908e-08 5.93433e-09)
(5.93135e-09 -1.54533e-08 7.2803e-09)
(6.63649e-09 -1.76091e-08 8.797e-09)
(7.28016e-09 -1.9694e-08 1.0472e-08)
(7.81204e-09 -2.16093e-08 1.22549e-08)
(8.15828e-09 -2.32273e-08 1.40396e-08)
(8.23263e-09 -2.4414e-08 1.56516e-08)
(7.97733e-09 -2.50737e-08 1.68581e-08)
(7.45506e-09 -2.52097e-08 1.74498e-08)
(6.95867e-09 -2.49917e-08 1.74486e-08)
(7.18244e-09 -2.51234e-08 1.7312e-08)
(0 0 0)
(1.52829e-09 -3.6409e-09 1.39158e-09)
(2.90633e-09 -6.97407e-09 2.70321e-09)
(4.17714e-09 -1.01396e-08 4.02147e-09)
(5.37497e-09 -1.32448e-08 5.41941e-09)
(6.52534e-09 -1.6365e-08 6.95932e-09)
(7.64383e-09 -1.95424e-08 8.69306e-09)
(8.73329e-09 -2.27842e-08 1.06593e-08)
(9.77853e-09 -2.60579e-08 1.2877e-08)
(1.07377e-08 -2.92869e-08 1.53324e-08)
(1.15303e-08 -3.23477e-08 1.79616e-08)
(1.20253e-08 -3.50805e-08 2.0629e-08)
(1.20404e-08 -3.73275e-08 2.31165e-08)
(1.13876e-08 -3.90192e-08 2.51491e-08)
(1.00397e-08 -4.0301e-08 2.65085e-08)
(8.49089e-09 -4.14894e-08 2.72223e-08)
(7.52595e-09 -4.31242e-08 2.77172e-08)
(0 0 0)
(1.98638e-09 -4.67879e-09 1.80164e-09)
(3.77676e-09 -8.96712e-09 3.49849e-09)
(5.42647e-09 -1.30495e-08 5.2013e-09)
(6.98003e-09 -1.70689e-08 7.00343e-09)
(8.47163e-09 -2.11297e-08 8.98468e-09)
(9.9238e-09 -2.52969e-08 1.1212e-08)
(1.13442e-08 -2.95942e-08 1.37363e-08)
(1.27192e-08 -3.39994e-08 1.65848e-08)
(1.40019e-08 -3.84386e-08 1.97463e-08)
(1.50946e-08 -4.27792e-08 2.3151e-08)
(1.58241e-08 -4.6831e-08 2.66481e-08)
(1.59216e-08 -5.03653e-08 2.99961e-08)
(1.50447e-08 -5.31701e-08 3.29001e-08)
(1.29668e-08 -5.51632e-08 3.51303e-08)
(1.01959e-08 -5.64842e-08 3.66378e-08)
(7.77333e-09 -5.78852e-08 3.77628e-08)
(0 0 0)
(2.40285e-09 -5.56719e-09 2.16899e-09)
(4.56721e-09 -1.06767e-08 4.20965e-09)
(6.55904e-09 -1.55542e-08 6.25317e-09)
(8.4321e-09 -2.03775e-08 8.40999e-09)
(1.0229e-08 -2.52803e-08 1.07746e-08)
(1.19802e-08 -3.03536e-08 1.34266e-08)
(1.37017e-08 -3.56443e-08 1.64273e-08)
(1.53884e-08 -4.11516e-08 1.98116e-08)
(1.70033e-08 -4.68192e-08 2.35718e-08)
(1.84587e-08 -5.25241e-08 2.76357e-08)
(1.95885e-08 -5.80604e-08 3.18405e-08)
(2.01153e-08 -6.31147e-08 3.5923e-08)
(1.96391e-08 -6.72305e-08 3.95575e-08)
(1.77603e-08 -6.98044e-08 4.24775e-08)
(1.47166e-08 -7.04031e-08 4.45695e-08)