/*--------------------------------*- C++ -*----------------------------------*\
| =========                 |                                                 |
| \\      /  F ield         | OpenFOAM: The Open Source CFD Toolbox           |
|  \\    /   O peration     | Version:  v1912                                 |
|   \\  /    A nd           | Website:  www.openfoam.com                      |
|    \\/     M anipulation  |                                                 |
\*---------------------------------------------------------------------------*/
FoamFile
{
    version     2.0;
    format      ascii;
    class       volVectorField;
    location    "0.69/fluid";
    object      U;
}
// * * * * * * * * * * * * * * * * * * * * * * * * * * * * * * * * * * * * * //

dimensions      [0 1 -1 0 0 0 0];


internalField   nonuniform List<vector> 
14592
(
(0.087716 0.0173186 0.00061726)
(0.0721189 0.0118026 0.00103646)
(0.0567817 0.00743812 0.000878526)
(0.0480999 0.00368752 0.000308132)
(0.0427161 0.00170486 -0.000568771)
(0.0397675 0.000720784 -0.00165824)
(0.0379215 0.000306897 -0.00295828)
(0.0366356 0.000137049 -0.00452099)
(0.0354178 6.25186e-05 -0.00644795)
(0.0342377 -7.16004e-06 -0.00889569)
(0.032633 -0.000110929 -0.0121134)
(0.0310993 -0.000350966 -0.0164216)
(0.0281871 -0.000708579 -0.0225151)
(0.0257714 -0.0016046 -0.0305158)
(0.0182191 -0.00212201 -0.0409678)
(0.0103451 -0.0050684 -0.0389121)
(0.103982 0.0180428 0.000848192)
(0.103579 0.0177845 0.00149543)
(0.100338 0.0145108 0.00137269)
(0.0963689 0.00989803 0.000574564)
(0.0925853 0.00634769 -0.00080833)
(0.0895762 0.00398817 -0.00265153)
(0.0870534 0.00267762 -0.00492769)
(0.0848159 0.0020496 -0.0077025)
(0.082454 0.00182506 -0.0111341)
(0.0798874 0.00179507 -0.0154834)
(0.0764853 0.00182924 -0.0211561)
(0.072584 0.00175793 -0.0286993)
(0.0661422 0.00153594 -0.0390892)
(0.0588542 0.000591596 -0.0525063)
(0.042295 -0.000442684 -0.0681936)
(0.0244808 -0.00453403 -0.0628526)
(0.103999 0.0119963 0.000920419)
(0.108472 0.016305 0.00164355)
(0.111507 0.01551 0.00154425)
(0.112097 0.0122602 0.000712202)
(0.111406 0.00906529 -0.000766229)
(0.110034 0.00660848 -0.00277277)
(0.10826 0.00510223 -0.00528061)
(0.106216 0.00437305 -0.00835909)
(0.103724 0.00420855 -0.0121766)
(0.100767 0.00440616 -0.0170207)
(0.0967042 0.00481747 -0.0233329)
(0.0917506 0.0052596 -0.031742)
(0.0836386 0.0056485 -0.0432929)
(0.0738756 0.00535512 -0.0583735)
(0.0529344 0.00431697 -0.07602)
(0.0296868 -0.00060965 -0.0713294)
(0.102135 0.00770225 0.000949724)
(0.10677 0.012681 0.00171378)
(0.111577 0.013482 0.00163556)
(0.114344 0.0119482 0.000813771)
(0.115615 0.00984374 -0.00065617)
(0.11567 0.00801059 -0.00265533)
(0.114861 0.00684664 -0.0051579)
(0.113416 0.00637894 -0.00823423)
(0.11128 0.00652575 -0.0120517)
(0.108498 0.00716872 -0.0169036)
(0.104441 0.00821786 -0.0232342)
(0.0992889 0.00954016 -0.0317123)
(0.0906289 0.0110678 -0.0434008)
(0.0798833 0.0121201 -0.0588769)
(0.0570001 0.0118431 -0.077219)
(0.0309961 0.00547126 -0.073552)
(0.101095 0.00501443 0.000975992)
(0.104801 0.00938864 0.00178004)
(0.109467 0.010921 0.00173531)
(0.112913 0.010618 0.000945756)
(0.11518 0.00957006 -0.000481738)
(0.116219 0.0085199 -0.00242103)
(0.116264 0.00790248 -0.0048412)
(0.115512 0.00786777 -0.00780732)
(0.113942 0.00844377 -0.0114769)
(0.111638 0.00960572 -0.0161375)
(0.107986 0.0113366 -0.0222149)
(0.103171 0.0135773 -0.0303992)
(0.0946447 0.0162981 -0.0417282)
(0.0837522 0.0187525 -0.0569959)
(0.059796 0.0194004 -0.0753132)
(0.0316775 0.0107681 -0.0728208)
(0.100631 0.00336191 0.00100457)
(0.103564 0.00676462 0.00185338)
(0.107737 0.0084314 0.0018547)
(0.111318 0.00884839 0.0011135)
(0.114079 0.0086246 -0.000253486)
(0.11577 0.00831632 -0.00211049)
(0.11649 0.00830636 -0.00441694)
(0.116377 0.00879711 -0.00722776)
(0.115404 0.00989521 -0.0106847)
(0.113674 0.0116773 -0.0150621)
(0.11058 0.0142327 -0.0207554)
(0.106316 0.017669 -0.0284648)
(0.0982024 0.0221258 -0.0391711)
(0.0875303 0.0270458 -0.053925)
(0.0628238 0.0304656 -0.071833)
(0.032803 0.0201768 -0.0708858)
(0.100458 0.00218214 0.00103921)
(0.102965 0.00461243 0.00193968)
(0.106792 0.00613362 0.00199802)
(0.110396 0.00692631 0.00131877)
(0.113448 0.00729942 2.72963e-05)
(0.1156 0.00761697 -0.00172943)
(0.116873 0.00817189 -0.003896)
(0.117363 0.0091684 -0.00650971)
(0.117057 0.0107531 -0.00968526)
(0.116095 0.0130796 -0.0136645)
(0.11394 0.0163172 -0.0187775)
(0.11087 0.0207333 -0.0256789)
(0.104215 0.0265986 -0.0351757)
(0.0953291 0.0336181 -0.0485295)
(0.0711892 0.0395396 -0.0645466)
(0.040208 0.0273225 -0.0654077)
(0.100402 0.00120351 0.00107867)
(0.102751 0.00269043 0.0020361)
(0.106461 0.00391437 0.0021581)
(0.110137 0.00487819 0.00154897)
(0.113419 0.00568709 0.000341494)
(0.115921 0.00652412 -0.00130648)
(0.117632 0.00757803 -0.00332275)
(0.118637 0.00902847 -0.00572438)
(0.118944 0.0110421 -0.00859649)
(0.118723 0.0138509 -0.0121433)
(0.117515 0.0177269 -0.0166259)
(0.115668 0.0232587 -0.0226397)
(0.1106 0.0311011 -0.0308146)
(0.1039 0.0427404 -0.0426452)
(0.0811524 0.0569782 -0.0568166)
(0.0526916 0.0615181 -0.0611609)
(0.0876847 0.0173214 0.000385721)
(0.0719386 0.0118157 0.000620356)
(0.0563722 0.00744979 0.000430668)
(0.0474877 0.00369383 -7.73532e-05)
(0.041913 0.00170906 -0.00084027)
(0.0387803 0.000725782 -0.0018001)
(0.0367234 0.000315194 -0.00296747)
(0.0351719 0.000149201 -0.00438588)
(0.0336066 7.97422e-05 -0.00613976)
(0.0319557 1.72387e-05 -0.00832741)
(0.0297549 -7.10003e-05 -0.0111352)
(0.0273726 -0.000276562 -0.0146341)
(0.0235922 -0.000559325 -0.0192495)
(0.0196506 -0.00127893 -0.0239915)
(0.0120642 -0.00171824 -0.028522)
(0.00323322 -0.00370193 -0.0190981)
(0.103939 0.018057 0.000523602)
(0.103326 0.0178219 0.000870783)
(0.0997448 0.0145584 0.000637432)
(0.0954149 0.00994534 -0.000121963)
(0.0912599 0.00639715 -0.00135762)
(0.0878727 0.00404805 -0.00299854)
(0.0849279 0.00275894 -0.00504811)
(0.0821775 0.00216113 -0.00757221)
(0.0791565 0.0019765 -0.010708)
(0.0757101 0.00199608 -0.0146378)
(0.0711671 0.00209792 -0.0196666)
(0.065698 0.00211314 -0.0260014)
(0.0574957 0.00201424 -0.0342085)
(0.0476062 0.00123074 -0.0429635)
(0.0304807 0.000193314 -0.0502863)
(0.0111652 -0.0034486 -0.033079)
(0.103959 0.0120203 0.000570904)
(0.108212 0.0163634 0.000955453)
(0.110889 0.0155948 0.000717848)
(0.111086 0.0123603 -8.88471e-05)
(0.109977 0.00918154 -0.00141902)
(0.10817 0.0067513 -0.00320961)
(0.105912 0.00528927 -0.00546805)
(0.103285 0.00462308 -0.00826778)
(0.100048 0.00454379 -0.0117568)
(0.0961017 0.00484871 -0.0161418)
(0.0907458 0.00539971 -0.0217523)
(0.0840256 0.00600239 -0.0288526)
(0.0738795 0.00658588 -0.038028)
(0.061167 0.00643628 -0.0479562)
(0.0394202 0.00531414 -0.0562316)
(0.0145104 3.31424e-05 -0.0371115)
(0.102098 0.00772887 0.000596423)
(0.106514 0.012748 0.00100887)
(0.110966 0.0135884 0.00078438)
(0.113343 0.0120873 -1.49809e-05)
(0.1142 0.0100176 -0.00133713)
(0.113822 0.00823239 -0.00311952)
(0.11253 0.00713971 -0.00537072)
(0.110505 0.00677229 -0.00816591)
(0.107628 0.00705668 -0.0116521)
(0.103861 0.00787838 -0.0160413)
(0.0985049 0.00916426 -0.0216618)
(0.0915722 0.0107674 -0.0288069)
(0.0808237 0.0126442 -0.0380563)
(0.067037 0.0139563 -0.0481724)
(0.0432296 0.0136615 -0.0566814)
(0.0153888 0.00622768 -0.037447)
(0.10106 0.00504468 0.000624537)
(0.10455 0.00946519 0.00107344)
(0.108868 0.0110477 0.000880503)
(0.111936 0.0107928 0.000113459)
(0.113807 0.00979724 -0.00116678)
(0.114436 0.00881526 -0.00289183)
(0.114026 0.00829445 -0.00506499)
(0.112728 0.008395 -0.00775649)
(0.110459 0.00915862 -0.0111038)
(0.107225 0.0105698 -0.0153145)
(0.102334 0.0126376 -0.0206988)
(0.0958124 0.01529 -0.0275694)
(0.0852368 0.0185418 -0.036475)
(0.071332 0.0214165 -0.0463364)
(0.0463261 0.0221805 -0.054691)
(0.0161229 0.0118281 -0.0361085)
(0.100596 0.00339596 0.000655612)
(0.103318 0.00685049 0.00114865)
(0.107151 0.00857587 0.00100098)
(0.11037 0.00905304 0.000282087)
(0.112758 0.00889667 -0.000939232)
(0.114067 0.00867479 -0.00258583)
(0.114369 0.00878495 -0.00465173)
(0.113757 0.0094446 -0.00719762)
(0.112144 0.0107809 -0.0103461)
(0.109561 0.0128892 -0.0142948)
(0.105317 0.0159011 -0.019326)
(0.0994637 0.0199274 -0.025768)
(0.0893843 0.0251976 -0.0341168)
(0.0758088 0.0308717 -0.0435145)
(0.0499277 0.0348577 -0.0515236)
(0.0175411 0.0222054 -0.0341236)
(0.100424 0.00222063 0.000691794)
(0.102725 0.00470788 0.00123617)
(0.106222 0.00629386 0.00114446)
(0.109482 0.00715534 0.000486162)
(0.112186 0.00760694 -0.00066257)
(0.113993 0.00802447 -0.00221386)
(0.114893 0.00871722 -0.00414841)
(0.114947 0.00990829 -0.00651111)
(0.114085 0.01177 -0.0094008)
(0.112391 0.0144837 -0.012991)
(0.109241 0.0182736 -0.0175124)
(0.104814 0.0234283 -0.0232799)
(0.0964237 0.0303457 -0.030669)
(0.0850132 0.038417 -0.0390964)
(0.0595969 0.0453338 -0.046083)
(0.0260938 0.0301201 -0.0305924)
(0.100369 0.00124575 0.000731378)
(0.102517 0.00279321 0.00133169)
(0.10591 0.0040858 0.00130206)
(0.109261 0.0051236 0.000711599)
(0.11222 0.00601765 -0.000356864)
(0.114414 0.00696304 -0.00180453)
(0.115802 0.00816605 -0.00359747)
(0.116438 0.00982832 -0.00576233)
(0.116279 0.0121469 -0.00837194)
(0.115454 0.0153924 -0.0115717)
(0.113422 0.0199071 -0.0155366)
(0.110473 0.0263413 -0.0205603)
(0.103933 0.0355314 -0.0268915)
(0.095187 0.0487377 -0.0342615)
(0.0711694 0.0648988 -0.0402522)
(0.0403011 0.0660126 -0.0277791)
(0.0876608 0.017324 0.000224668)
(0.071799 0.0118266 0.000332556)
(0.0560455 0.00746005 0.00012814)
(0.0469796 0.00369957 -0.000319186)
(0.0412214 0.00171232 -0.000971959)
(0.0379021 0.000729328 -0.00179605)
(0.0356292 0.000320857 -0.00280884)
(0.0338063 0.000156971 -0.00404552)
(0.0318904 8.96411e-05 -0.0055748)
(0.0297602 2.92999e-05 -0.00745677)
(0.0269572 -5.40798e-05 -0.00983682)
(0.023712 -0.000245861 -0.0126937)
(0.0190794 -0.00050644 -0.0163458)
(0.0138778 -0.00114194 -0.0197856)
(0.00673019 -0.00164282 -0.0226062)
(-0.00071581 -0.00320759 -0.0149987)
(0.103906 0.0180709 0.000298474)
(0.103129 0.0178567 0.000442136)
(0.0992694 0.0146041 0.000146298)
(0.0946237 0.00999247 -0.000555913)
(0.090122 0.00644678 -0.00163817)
(0.086366 0.00410718 -0.00306176)
(0.0830028 0.00283709 -0.00484738)
(0.0797443 0.00226618 -0.00705541)
(0.0760802 0.00211719 -0.00980015)
(0.0717818 0.00218061 -0.013206)
(0.066161 0.00234045 -0.0175028)
(0.059231 0.00242629 -0.022746)
(0.0495093 0.00241387 -0.0293125)
(0.0376392 0.00172936 -0.0357771)
(0.020952 0.000601508 -0.0402167)
(0.00360363 -0.00292042 -0.0256562)
(0.103928 0.0120447 0.000327504)
(0.108011 0.0164205 0.000482646)
(0.110395 0.0156782 0.000165085)
(0.110248 0.0124601 -0.000590973)
(0.108753 0.00929763 -0.00176312)
(0.106525 0.0068924 -0.00332056)
(0.10379 0.00547102 -0.00528989)
(0.100588 0.00486275 -0.00774068)
(0.0966279 0.00486231 -0.0107977)
(0.0917294 0.00526644 -0.0146062)
(0.0851604 0.00594574 -0.0194129)
(0.0768088 0.00669288 -0.0253153)
(0.0649136 0.00744375 -0.032686)
(0.0499573 0.0074021 -0.0400623)
(0.0284965 0.00616333 -0.0450696)
(0.00566573 0.000485595 -0.0286687)
(0.102069 0.00775686 0.000348794)
(0.106317 0.0128154 0.000521908)
(0.11048 0.0136943 0.000211346)
(0.112517 0.0122256 -0.000540131)
(0.112991 0.0101897 -0.00170535)
(0.112195 0.00844951 -0.00325482)
(0.110428 0.00742283 -0.00521661)
(0.107831 0.00714805 -0.0076624)
(0.104232 0.00755977 -0.0107162)
(0.0995139 0.00854605 -0.014529)
(0.0929351 0.0100484 -0.019345)
(0.08435 0.0119032 -0.0252866)
(0.0717876 0.0140861 -0.0327159)
(0.0556564 0.0156131 -0.0402329)
(0.0320074 0.0152992 -0.0453729)
(0.00618423 0.00699189 -0.0288446)
(0.101033 0.00507631 0.000376071)
(0.104358 0.00954226 0.000581066)
(0.108393 0.0111732 0.000298693)
(0.111133 0.0109649 -0.000422784)
(0.112638 0.0100196 -0.00154886)
(0.112869 0.00910174 -0.00304583)
(0.112009 0.00867102 -0.00493709)
(0.110171 0.00889732 -0.00729004)
(0.107219 0.00983543 -0.0102204)
(0.103082 0.0114772 -0.0138762)
(0.0970163 0.0138553 -0.0184869)
(0.0888972 0.0168812 -0.0241945)
(0.0765193 0.0206103 -0.0313356)
(0.0602632 0.0238573 -0.0386476)
(0.0352699 0.0247699 -0.0436773)
(0.00689546 0.0131204 -0.0277448)
(0.10057 0.00343072 0.000406731)
(0.10313 0.00693579 0.000652806)
(0.10669 0.00871729 0.000412402)
(0.109594 0.00925224 -0.000264264)
(0.111636 0.00916002 -0.00133562)
(0.112576 0.00901935 -0.0027611)
(0.112462 0.00924202 -0.00455561)
(0.111353 0.0100593 -0.00677829)
(0.109111 0.0116177 -0.00953182)
(0.105696 0.0140284 -0.0129571)
(0.100354 0.0174618 -0.0172606)
(0.0930028 0.0220244 -0.0226028)
(0.0811768 0.0280294 -0.029279)
(0.0653173 0.0343792 -0.0362228)
(0.0392914 0.0389423 -0.0410237)
(0.0084618 0.0246389 -0.0261439)
(0.100399 0.00225879 0.000441766)
(0.102543 0.00480093 0.000736031)
(0.105777 0.00644861 0.0005476)
(0.108739 0.00737574 -7.29814e-05)
(0.111121 0.00790172 -0.00107761)
(0.11259 0.00841342 -0.00241684)
(0.113118 0.00923591 -0.00409354)
(0.112733 0.0106096 -0.00615367)
(0.111318 0.0127314 -0.00868003)
(0.108901 0.0158067 -0.0117964)
(0.104789 0.0201121 -0.015669)
(0.0990625 0.0259493 -0.0204606)
(0.0890993 0.0338379 -0.0263809)
(0.0756766 0.0428915 -0.0326205)
(0.0499339 0.0508493 -0.0368065)
(0.0176136 0.0337046 -0.0235889)
(0.100345 0.00128646 0.000479222)
(0.102342 0.00289157 0.000825675)
(0.105482 0.00424917 0.000694779)
(0.108553 0.00535709 0.000136892)
(0.111216 0.00633166 -0.000794301)
(0.113107 0.00737946 -0.00203982)
(0.114169 0.00872334 -0.00358922)
(0.114429 0.0105853 -0.00547322)
(0.113802 0.0131915 -0.00775273)
(0.112376 0.0168474 -0.0105308)
(0.109539 0.0219628 -0.0139295)
(0.105525 0.0292385 -0.0181067)
(0.0976426 0.0396925 -0.0231807)
(0.0872676 0.0543836 -0.028631)
(0.0628185 0.0725815 -0.0322156)
(0.0329935 0.0719893 -0.0214433)
(0.0876427 0.0173265 0.00011798)
(0.0716918 0.0118358 0.000146309)
(0.0557892 0.007469 -5.30972e-05)
(0.0465722 0.00370485 -0.00043364)
(0.0406576 0.00171586 -0.00097307)
(0.0371803 0.000733657 -0.00165189)
(0.0347329 0.000328009 -0.00248747)
(0.0327061 0.00016788 -0.0035036)
(0.0305545 0.000105916 -0.00474683)
(0.0281374 5.40925e-05 -0.00623787)
(0.0250472 -1.31332e-05 -0.00806017)
(0.0214581 -0.000169721 -0.0101124)
(0.0166921 -0.00036701 -0.0125464)
(0.0113538 -0.000851568 -0.0144386)
(0.00497198 -0.00122117 -0.0152848)
(-0.00113823 -0.00246689 -0.00913028)
(0.10388 0.0180836 0.000150358)
(0.102976 0.0178877 0.000168666)
(0.0988938 0.0146453 -0.000142742)
(0.0939857 0.010036 -0.000761913)
(0.0891888 0.00649343 -0.00167429)
(0.0851171 0.00416291 -0.00285976)
(0.0814048 0.00291049 -0.00434333)
(0.0777429 0.00236515 -0.00617197)
(0.0736075 0.00225146 -0.00842754)
(0.0687396 0.00236154 -0.011174)
(0.062501 0.00258831 -0.0145455)
(0.0548576 0.00276963 -0.0184664)
(0.0446784 0.00289896 -0.023076)
(0.0324701 0.00243197 -0.0270234)
(0.0169941 0.00148282 -0.0285007)
(0.00198656 -0.0018836 -0.0165274)
(0.103904 0.0120676 0.000166709)
(0.107855 0.0164726 0.000180946)
(0.110005 0.0157545 -0.000160663)
(0.109573 0.0125521 -0.000833732)
(0.107748 0.00940505 -0.00182708)
(0.105161 0.00702246 -0.00312773)
(0.102026 0.00563734 -0.00476698)
(0.0983618 0.00508104 -0.00680095)
(0.0938611 0.00515251 -0.00932058)
(0.0883121 0.00564981 -0.0124066)
(0.0810243 0.00645498 -0.0162027)
(0.0718485 0.00735918 -0.0206595)
(0.0593769 0.00831905 -0.0258944)
(0.0440015 0.00850622 -0.0304854)
(0.0238207 0.00741387 -0.0321843)
(0.00365826 0.0015405 -0.0185222)
(0.102048 0.00778354 0.000183751)
(0.106165 0.012878 0.000208805)
(0.110098 0.013792 -0.00013006)
(0.111852 0.0123531 -0.000800639)
(0.112001 0.0103479 -0.0017885)
(0.110847 0.00864761 -0.00308227)
(0.108681 0.00767872 -0.00471489)
(0.105624 0.00748477 -0.00674467)
(0.101487 0.00800767 -0.00926214)
(0.0961218 0.00913807 -0.0123529)
(0.088822 0.0108316 -0.0161576)
(0.0794106 0.0129148 -0.020645)
(0.0662534 0.015387 -0.0259166)
(0.0496869 0.0171703 -0.0305849)
(0.0272899 0.0169915 -0.0322983)
(0.00417152 0.00811729 -0.0184591)
(0.101013 0.00510639 0.000208249)
(0.10421 0.00961409 0.000259953)
(0.108022 0.011289 -5.50221e-05)
(0.11049 0.0111228 -0.000699323)
(0.111683 0.0102224 -0.00165291)
(0.111574 0.00936072 -0.00290128)
(0.110337 0.00900808 -0.00447362)
(0.108066 0.00934226 -0.00642487)
(0.104607 0.0104288 -0.00883878)
(0.0998628 0.0122642 -0.0117995)
(0.0931166 0.0148996 -0.015436)
(0.0842197 0.018231 -0.0197335)
(0.0712694 0.0223459 -0.0247728)
(0.0545964 0.0259088 -0.0292695)
(0.0307761 0.0269916 -0.0308828)
(0.00500667 0.0144795 -0.0175172)
(0.10055 0.00346337 0.000236189)
(0.102987 0.00701469 0.000323943)
(0.10633 0.00884688 4.57305e-05)
(0.108976 0.00943348 -0.000559155)
(0.110723 0.009398 -0.00146502)
(0.111346 0.00932805 -0.00265174)
(0.110884 0.00964724 -0.00414154)
(0.109378 0.0105976 -0.00598271)
(0.106672 0.0123402 -0.00824864)
(0.102706 0.0149949 -0.0110189)
(0.0967411 0.0187577 -0.0144053)
(0.0886843 0.0237199 -0.0184112)
(0.0763256 0.0302428 -0.0230889)
(0.0600929 0.0370285 -0.0273078)
(0.0351387 0.0419001 -0.0287851)
(0.00673829 0.0264898 -0.016273)
(0.10038 0.00229397 0.000267805)
(0.102406 0.00488594 0.000398167)
(0.105432 0.00658902 0.00016561)
(0.108148 0.00757457 -0.000390271)
(0.110256 0.00816602 -0.00123831)
(0.111437 0.00875928 -0.00235116)
(0.11165 0.0096923 -0.00374124)
(0.110915 0.0112185 -0.00544664)
(0.109095 0.0135522 -0.0075257)
(0.106202 0.016912 -0.0100476)
(0.101555 0.0216058 -0.0130971)
(0.0952372 0.0279243 -0.0166898)
(0.084818 0.0364487 -0.0208301)
(0.071123 0.0460635 -0.0245995)
(0.0463013 0.0544898 -0.025816)
(0.0161281 0.0360701 -0.014649)
(0.100327 0.00132331 0.000301145)
(0.102209 0.00298033 0.000477513)
(0.105152 0.00439591 0.00029541)
(0.107993 0.00556603 -0.000205892)
(0.110404 0.00661118 -0.000990364)
(0.112035 0.00774726 -0.00202303)
(0.11282 0.00921043 -0.00330534)
(0.112779 0.0112374 -0.00486358)
(0.11181 0.0140741 -0.00673961)
(0.109992 0.018044 -0.00898971)
(0.106716 0.0235935 -0.0116694)
(0.102243 0.031424 -0.0148033)
(0.0940031 0.0426275 -0.0183473)
(0.0834929 0.0580247 -0.0216234)
(0.0598405 0.0769346 -0.0226403)
(0.0319006 0.0749416 -0.0133591)
(0.0876286 0.0173284 5.1811e-05)
(0.0716089 0.011843 3.69994e-05)
(0.0555891 0.00747592 -0.000139189)
(0.0462486 0.00370874 -0.000445893)
(0.040203 0.0017181 -0.000870153)
(0.0365901 0.00073611 -0.00140182)
(0.0339929 0.000332073 -0.0020565)
(0.0317922 0.000173897 -0.00285071)
(0.0294425 0.000114392 -0.00381674)
(0.0267884 6.62143e-05 -0.00495935)
(0.023467 6.23876e-06 -0.00633105)
(0.019615 -0.00013253 -0.00783115)
(0.0147639 -0.000297474 -0.00954498)
(0.0094009 -0.000701419 -0.0107868)
(0.00367893 -0.00100965 -0.0111197)
(-0.00136326 -0.00211475 -0.00665998)
(0.10386 0.0180944 5.99102e-05)
(0.102857 0.0179135 1.32869e-05)
(0.0985997 0.0146797 -0.000273292)
(0.0934782 0.0100727 -0.000785012)
(0.0884364 0.00653296 -0.00151368)
(0.084098 0.0042098 -0.00245014)
(0.0800896 0.00297159 -0.0036187)
(0.0760879 0.00244676 -0.00505534)
(0.0715623 0.00236116 -0.00681865)
(0.0662333 0.00250785 -0.00894184)
(0.0595124 0.00278623 -0.0115069)
(0.0513438 0.00303932 -0.0144156)
(0.0408812 0.00327264 -0.017717)
(0.0285941 0.00295463 -0.0203717)
(0.0142107 0.00211456 -0.0209302)
(0.0011434 -0.00123815 -0.0120628)
(0.103886 0.0120874 6.80332e-05)
(0.107734 0.0165171 9.94105e-06)
(0.1097 0.0158194 -0.000307948)
(0.109036 0.0126308 -0.000867887)
(0.106939 0.00949712 -0.00166446)
(0.104048 0.00713361 -0.00269438)
(0.100573 0.00577868 -0.00398768)
(0.0965208 0.00526549 -0.00558838)
(0.0915724 0.0053965 -0.00756247)
(0.0854959 0.00597059 -0.00995595)
(0.0776455 0.00687879 -0.0128563)
(0.0678604 0.00791014 -0.0161819)
(0.0550224 0.00903722 -0.0199568)
(0.0395281 0.00940086 -0.0230747)
(0.0205288 0.00841509 -0.0237266)
(0.00258905 0.00231207 -0.013532)
(0.102031 0.00780693 8.09499e-05)
(0.106047 0.0129322 2.88313e-05)
(0.109799 0.0138762 -0.000288855)
(0.111325 0.0124629 -0.00084775)
(0.111203 0.0104839 -0.00164027)
(0.109748 0.00881723 -0.00266476)
(0.107243 0.00789666 -0.00395282)
(0.1038 0.00776998 -0.00555054)
(0.0992154 0.00838508 -0.0075238)
(0.093324 0.00963426 -0.00992283)
(0.0854577 0.011484 -0.0128327)
(0.0754327 0.0137518 -0.0161856)
(0.0618909 0.0164549 -0.0199923)
(0.0451924 0.0184387 -0.0231693)
(0.0239587 0.0183638 -0.0238193)
(0.00310641 0.0090165 -0.0134852)
(0.100997 0.00513285 0.00010126)
(0.104097 0.00967648 7.01598e-05)
(0.107732 0.011389 -0.00022853)
(0.109981 0.0112587 -0.000766)
(0.110915 0.0103964 -0.0015305)
(0.11052 0.00958225 -0.00251822)
(0.108962 0.00929506 -0.00375794)
(0.106325 0.00971926 -0.00529325)
(0.102444 0.0109291 -0.00718497)
(0.0972052 0.0129243 -0.00948284)
(0.0899226 0.0157704 -0.0122636)
(0.0804461 0.0193492 -0.0154734)
(0.0671223 0.0237721 -0.0191088)
(0.0503236 0.0275857 -0.0221642)
(0.0276003 0.0288057 -0.0227541)
(0.00402844 0.0156243 -0.0127928)
(0.100535 0.00349197 0.000124703)
(0.102877 0.00708308 0.000123115)
(0.106051 0.00895853 -0.000145564)
(0.108487 0.0095891 -0.000650704)
(0.109991 0.00960177 -0.00137623)
(0.110347 0.00959144 -0.00231406)
(0.109588 0.00999158 -0.00348758)
(0.107746 0.011053 -0.00493526)
(0.104654 0.0129483 -0.00671005)
(0.100236 0.0158037 -0.00885892)
(0.0937802 0.0198346 -0.0114464)
(0.0851975 0.0251176 -0.0144342)
(0.0724909 0.0320481 -0.017801)
(0.0561558 0.0391746 -0.0206571)
(0.0322116 0.0442826 -0.0211736)
(0.00587799 0.0280555 -0.0118701)
(0.100365 0.00232452 0.000151104)
(0.1023 0.00495921 0.00018461)
(0.105164 0.00670954 -4.66847e-05)
(0.107683 0.00774469 -0.000511748)
(0.109565 0.00839159 -0.0011903)
(0.110501 0.00905367 -0.00206867)
(0.110447 0.0100795 -0.00316264)
(0.109413 0.011733 -0.00450304)
(0.107253 0.0142428 -0.0061318)
(0.103969 0.0178368 -0.0080894)
(0.0988959 0.0228471 -0.0104222)
(0.0921354 0.0295531 -0.013105)
(0.0814173 0.0385792 -0.0160887)
(0.0676742 0.048637 -0.0186414)
(0.043737 0.0574261 -0.0190377)
(0.0154201 0.0381053 -0.0107359)
(0.100313 0.00135498 0.000178729)
(0.102109 0.0030563 0.000250089)
(0.104898 0.00452121 6.01647e-05)
(0.107555 0.00574404 -0.000360335)
(0.109758 0.00684896 -0.000987379)
(0.111167 0.00805954 -0.00180122)
(0.111716 0.00962298 -0.00280912)
(0.111417 0.0117879 -0.00403305)
(0.110159 0.0148161 -0.00550276)
(0.108018 0.0190445 -0.00725035)
(0.104394 0.0249473 -0.00930239)
(0.0995766 0.0332234 -0.0116441)
(0.0911091 0.0450164 -0.0141997)
(0.0806341 0.0609716 -0.0164146)
(0.0577531 0.0804367 -0.0167393)
(0.0314537 0.077572 -0.00981009)
(0.0876185 0.0173298 1.63579e-05)
(0.0715493 0.0118486 -1.34914e-05)
(0.0554439 0.00748124 -0.000150574)
(0.0460117 0.00371196 -0.000375248)
(0.0398689 0.00172024 -0.000679876)
(0.0361569 0.00073874 -0.00105926)
(0.0334541 0.000336536 -0.00152467)
(0.0311373 0.000180951 -0.00208541)
(0.0286667 0.0001252 -0.0027599)
(0.025882 8.29119e-05 -0.0035421)
(0.0224594 3.33814e-05 -0.00445661)
(0.0185186 -8.48581e-05 -0.00541586)
(0.0137161 -0.000215158 -0.00645271)
(0.00846785 -0.000552025 -0.00710907)
(0.0031355 -0.000800063 -0.00705166)
(-0.00133591 -0.00184057 -0.00405328)
(0.103846 0.0181028 1.32232e-05)
(0.102771 0.0179335 -5.19461e-05)
(0.0983849 0.0147066 -0.000280341)
(0.0931047 0.0101018 -0.000661913)
(0.0878797 0.00656446 -0.00119167)
(0.0833429 0.00424739 -0.00186557)
(0.0791192 0.00302073 -0.0027022)
(0.0748795 0.00251276 -0.00372501)
(0.0700963 0.00245068 -0.00496978)
(0.0644849 0.00262877 -0.00644685)
(0.0575042 0.00295214 -0.00819476)
(0.0490987 0.00326858 -0.0101165)
(0.0386031 0.00359407 -0.0122026)
(0.0264749 0.00340201 -0.0137349)
(0.0128253 0.00266569 -0.0136672)
(0.000914225 -0.000719139 -0.00759772)
(0.103872 0.012103 1.66036e-05)
(0.107646 0.0165519 -6.1173e-05)
(0.109477 0.0158703 -0.000316167)
(0.10864 0.0126928 -0.000735616)
(0.106339 0.00956977 -0.00131667)
(0.103222 0.00722127 -0.00205957)
(0.0994989 0.00588991 -0.00298741)
(0.0951709 0.00541041 -0.00412982)
(0.0899218 0.00558816 -0.00552799)
(0.0835149 0.00622304 -0.00720103)
(0.0753495 0.00721351 -0.00919002)
(0.065275 0.00834824 -0.011407)
(0.0523608 0.00961311 -0.0138201)
(0.0370246 0.0101259 -0.0156553)
(0.0188466 0.00924513 -0.0156022)
(0.00226338 0.00294741 -0.00857123)
(0.102019 0.00782558 2.56128e-05)
(0.105962 0.0129751 -4.9204e-05)
(0.109581 0.0139425 -0.000305132)
(0.110937 0.0125494 -0.000724349)
(0.110613 0.0105909 -0.00130271)
(0.108932 0.00895022 -0.00204179)
(0.10618 0.00806671 -0.00296602)
(0.102462 0.00799139 -0.00410668)
(0.0975774 0.00867662 -0.00550501)
(0.0913565 0.0100159 -0.0071833)
(0.0831734 0.0119839 -0.00918081)
(0.0728583 0.0143918 -0.0114188)
(0.0592328 0.0172704 -0.0138547)
(0.0426925 0.0194116 -0.0157274)
(0.0222738 0.0194278 -0.01566)
(0.00280505 0.00972884 -0.0085218)
(0.100986 0.00515397 4.07495e-05)
(0.104015 0.00972592 -1.89372e-05)
(0.107522 0.0114678 -0.000261108)
(0.109606 0.0113657 -0.000664535)
(0.110347 0.0105329 -0.00122222)
(0.109738 0.00975512 -0.00193436)
(0.107946 0.00951761 -0.00282349)
(0.105051 0.0100096 -0.00391919)
(0.100888 0.0113114 -0.00525928)
(0.0953411 0.0134246 -0.00686604)
(0.0877627 0.0164242 -0.0087733)
(0.0780199 0.0201815 -0.0109125)
(0.0646207 0.0248232 -0.013232)
(0.0479851 0.0288158 -0.0150233)
(0.0260317 0.0301319 -0.0149204)
(0.00379401 0.0164739 -0.0080454)
(0.100525 0.00351471 5.8371e-05)
(0.102798 0.00713717 2.05274e-05)
(0.105848 0.00904644 -0.000199466)
(0.108128 0.00971118 -0.000578969)
(0.109451 0.00976093 -0.00110791)
(0.109607 0.009796 -0.00178356)
(0.108631 0.010257 -0.00262461)
(0.106552 0.0114009 -0.00365715)
(0.103203 0.0134082 -0.00491365)
(0.0985083 0.0164079 -0.00641491)
(0.091787 0.0206273 -0.00818711)
(0.0829725 0.0261297 -0.0101732)
(0.0702056 0.0333296 -0.0123117)
(0.0540444 0.0406721 -0.0139726)
(0.0308103 0.0459076 -0.013838)
(0.00572385 0.029118 -0.00742566)
(0.100355 0.00234865 7.81647e-05)
(0.102225 0.00501689 6.64119e-05)
(0.104971 0.00680408 -0.000125891)
(0.107343 0.00787768 -0.000475817)
(0.109056 0.00856713 -0.000970269)
(0.109809 0.00928136 -0.00160263)
(0.109559 0.0103766 -0.00238627)
(0.108314 0.012124 -0.00334215)
(0.105929 0.014761 -0.00449549)
(0.102407 0.0185206 -0.00586367)
(0.0971081 0.0237479 -0.00746212)
(0.0901621 0.0307099 -0.00924507)
(0.0794048 0.040052 -0.011138)
(0.0658516 0.0503716 -0.0126165)
(0.0425452 0.0593362 -0.0124514)
(0.0153524 0.0394128 -0.00672758)
(0.100303 0.0013798 9.87773e-05)
(0.102037 0.00311579 0.000115152)
(0.104715 0.00461911 -4.65194e-05)
(0.107234 0.00588266 -0.000363569)
(0.109282 0.00703333 -0.000820266)
(0.110527 0.00830019 -0.00140569)
(0.110902 0.00993827 -0.00212726)
(0.110421 0.012204 -0.00299997)
(0.108972 0.0153692 -0.00404109)
(0.106635 0.0197772 -0.00526342)
(0.102831 0.0259166 -0.00667087)
(0.0978828 0.0344767 -0.00822772)
(0.089408 0.0466223 -0.00984828)
(0.0791496 0.0628819 -0.011127)
(0.0568279 0.0825863 -0.0109767)
(0.0315164 0.0791769 -0.006181)
(0.0876117 0.0173308 1.74634e-06)
(0.0715098 0.0118523 -2.46343e-05)
(0.0553475 0.00748466 -0.000110923)
(0.0458534 0.00371394 -0.000248733)
(0.0396443 0.00172136 -0.000432571)
(0.0358638 0.000740004 -0.000660951)
(0.0330881 0.000338726 -0.000940674)
(0.0306912 0.000184404 -0.00127696)
(0.0281376 0.000130389 -0.00167994)
(0.0252647 9.07774e-05 -0.00214391)
(0.0217747 4.6169e-05 -0.00268118)
(0.0177793 -6.18361e-05 -0.00323722)
(0.013013 -0.000174555 -0.00382614)
(0.00785557 -0.000476995 -0.00418715)
(0.0027871 -0.000697653 -0.00411349)
(-0.00132507 -0.00170857 -0.00237351)
(0.103836 0.0181086 -4.14812e-06)
(0.102714 0.0179471 -5.59464e-05)
(0.0982422 0.0147248 -0.000202618)
(0.092855 0.0101215 -0.000438686)
(0.0875054 0.00658591 -0.000761023)
(0.0828326 0.00427289 -0.00116863)
(0.0784611 0.00305389 -0.00167334)
(0.0740585 0.00255709 -0.00228908)
(0.0691005 0.0025105 -0.00303613)
(0.0633005 0.00270908 -0.00391755)
(0.0561504 0.00306153 -0.004952)
(0.0476002 0.00341825 -0.00607616)
(0.0371004 0.00380142 -0.00727432)
(0.025112 0.00368465 -0.00812793)
(0.0119643 0.0030048 -0.00800618)
(0.000784417 -0.000419948 -0.00444544)
(0.103863 0.0121137 -2.85862e-06)
(0.107588 0.0165758 -6.41751e-05)
(0.109329 0.0159052 -0.000228762)
(0.108375 0.0127354 -0.000488786)
(0.105935 0.00961976 -0.00084311)
(0.102663 0.00728153 -0.00129302)
(0.09877 0.00596621 -0.00185336)
(0.0942535 0.00550962 -0.00254191)
(0.0888001 0.00571905 -0.0033823)
(0.0821718 0.00639501 -0.00438275)
(0.0738003 0.00744075 -0.00556317)
(0.063547 0.00864432 -0.00686484)
(0.0506027 0.00999987 -0.00825759)
(0.0354107 0.0106077 -0.00928701)
(0.0177976 0.00978924 -0.00916221)
(0.00207684 0.00334753 -0.00502)
(0.102011 0.00783853 2.3674e-06)
(0.105906 0.0130048 -5.75349e-05)
(0.109436 0.0139883 -0.000223175)
(0.110677 0.0126091 -0.000483238)
(0.110216 0.0106647 -0.000836047)
(0.108381 0.00904189 -0.00128367)
(0.105459 0.00818368 -0.0018419)
(0.101553 0.00814335 -0.0025295)
(0.0964636 0.00887624 -0.00337026)
(0.0900215 0.0102765 -0.00437437)
(0.0816302 0.0123241 -0.00556075)
(0.0711349 0.0148257 -0.00687611)
(0.0574734 0.0178204 -0.00828404)
(0.041077 0.0200637 -0.00933674)
(0.0212201 0.0201352 -0.00920294)
(0.00263212 0.0101951 -0.00499472)
(0.100978 0.00516868 1.17098e-05)
(0.10396 0.00976021 -3.90964e-05)
(0.107382 0.0115224 -0.000196432)
(0.109356 0.0114396 -0.00044682)
(0.109966 0.0106272 -0.000786958)
(0.109211 0.00987434 -0.00121812)
(0.107257 0.00967082 -0.001755)
(0.104184 0.010209 -0.00241541)
(0.0998286 0.0115734 -0.00322114)
(0.0940753 0.0137667 -0.00418251)
(0.0863021 0.0168699 -0.0053155)
(0.0763935 0.0207469 -0.00657293)
(0.062962 0.0255338 -0.0079139)
(0.0464715 0.0296443 -0.00892096)
(0.0250496 0.0310208 -0.00877132)
(0.00366167 0.0170442 -0.00472103)
(0.100517 0.00353055 2.26247e-05)
(0.102746 0.00717468 -1.47719e-05)
(0.105714 0.00910725 -0.000158472)
(0.107889 0.00979553 -0.000394165)
(0.109088 0.0098708 -0.000716671)
(0.109107 0.00993701 -0.00112554)
(0.107983 0.0104397 -0.00163319)
(0.105741 0.0116399 -0.00225534)
(0.102216 0.0137233 -0.00301064)
(0.0973348 0.0168209 -0.00390864)
(0.0904385 0.021167 -0.00496108)
(0.0814801 0.0268162 -0.0061276)
(0.0686896 0.0341935 -0.00736264)
(0.0526779 0.0416779 -0.00829402)
(0.0299347 0.0469933 -0.00813117)
(0.0056425 0.0298354 -0.00435673)
(0.100348 0.00236542 3.48778e-05)