/*--------------------------------*- C++ -*----------------------------------*\
| =========                 |                                                 |
| \\      /  F ield         | OpenFOAM: The Open Source CFD Toolbox           |
|  \\    /   O peration     | Version:  v1912                                 |
|   \\  /    A nd           | Website:  www.openfoam.com                      |
|    \\/     M anipulation  |                                                 |
\*---------------------------------------------------------------------------*/
FoamFile
{
    version     2.0;
    format      ascii;
    class       volVectorField;
    location    "0.96/fluid";
    object      cellMotionU;
}
// * * * * * * * * * * * * * * * * * * * * * * * * * * * * * * * * * * * * * //

dimensions      [0 1 -1 0 0 0 0];


internalField   nonuniform List<vector> 
14592
(
(1.04082e-10 -2.67116e-10 2.04233e-10)
(2.91116e-10 -7.46746e-10 5.78336e-10)
(4.65782e-10 -1.19217e-09 9.47026e-10)
(6.3571e-10 -1.6187e-09 1.33489e-09)
(8.09033e-10 -2.03696e-09 1.76506e-09)
(9.93503e-10 -2.45094e-09 2.25909e-09)
(1.19852e-09 -2.85728e-09 2.83854e-09)
(1.43666e-09 -3.24232e-09 3.52548e-09)
(1.72614e-09 -3.57646e-09 4.34268e-09)
(2.09665e-09 -3.80444e-09 5.31484e-09)
(2.60171e-09 -3.82495e-09 6.47203e-09)
(3.3497e-09 -3.4446e-09 7.86507e-09)
(4.58202e-09 -2.25602e-09 9.61776e-09)
(6.8828e-09 7.17173e-10 1.20941e-08)
(1.15477e-08 7.82165e-09 1.62297e-08)
(1.93611e-08 2.14824e-08 2.25532e-08)
(3.09153e-10 -7.9309e-10 6.07005e-10)
(8.64694e-10 -2.21744e-09 1.7188e-09)
(1.3827e-09 -3.54089e-09 2.81354e-09)
(1.88666e-09 -4.81021e-09 3.96511e-09)
(2.39832e-09 -6.0564e-09 5.24018e-09)
(2.94103e-09 -7.29375e-09 6.70292e-09)
(3.54172e-09 -8.51531e-09 8.41665e-09)
(4.23485e-09 -9.68522e-09 1.04451e-08)
(5.06914e-09 -1.07253e-08 1.28532e-08)
(6.11912e-09 -1.14914e-08 1.57061e-08)
(7.50848e-09 -1.17318e-08 1.90703e-08)
(9.45625e-09 -1.10165e-08 2.30226e-08)
(1.23654e-08 -8.61466e-09 2.76823e-08)
(1.69308e-08 -3.34822e-09 3.32639e-08)
(2.39672e-08 6.19634e-09 3.9979e-08)
(3.21784e-08 1.84121e-08 4.66398e-08)
(5.05639e-10 -1.29559e-09 9.94152e-10)
(1.41376e-09 -3.62344e-09 2.81443e-09)
(2.25962e-09 -5.78978e-09 4.6057e-09)
(3.07942e-09 -7.87231e-09 6.48714e-09)
(3.90854e-09 -9.92581e-09 8.56775e-09)
(4.78318e-09 -1.19789e-08 1.09513e-08)
(5.74428e-09 -1.40293e-08 1.37402e-08)
(6.84262e-09 -1.60342e-08 1.70378e-08)
(8.14565e-09 -1.78934e-08 2.09474e-08)
(9.74838e-09 -1.94222e-08 2.55692e-08)
(1.17919e-08 -2.03101e-08 3.0993e-08)
(1.44917e-08 -2.00709e-08 3.72885e-08)
(1.81875e-08 -1.80061e-08 4.45067e-08)
(2.33509e-08 -1.3304e-08 5.26741e-08)
(3.03684e-08 -5.6599e-09 6.17303e-08)
(3.7884e-08 2.43143e-09 7.04181e-08)
(6.88309e-10 -1.75881e-09 1.35606e-09)
(1.92366e-09 -4.92107e-09 3.83797e-09)
(3.07162e-09 -7.86971e-09 6.2774e-09)
(4.17997e-09 -1.07149e-08 8.83533e-09)
(5.29396e-09 -1.35364e-08 1.16579e-08)
(6.46022e-09 -1.63835e-08 1.48849e-08)
(7.72992e-09 -1.92692e-08 1.86541e-08)
(9.16349e-09 -2.21622e-08 2.31044e-08)
(1.08363e-08 -2.49715e-08 2.8375e-08)
(1.28444e-08 -2.75218e-08 3.45988e-08)
(1.53103e-08 -2.95207e-08 4.18882e-08)
(1.83871e-08 -3.05243e-08 5.03088e-08)
(2.22569e-08 -2.99322e-08 5.98424e-08)
(2.7083e-08 -2.71119e-08 7.03246e-08)
(3.2838e-08 -2.18996e-08 8.12914e-08)
(3.83323e-08 -1.61371e-08 9.08475e-08)
(8.52763e-10 -2.16706e-09 1.68442e-09)
(2.38208e-09 -6.06647e-09 4.76573e-09)
(3.79899e-09 -9.71128e-09 7.78942e-09)
(5.15947e-09 -1.3243e-08 1.0952e-08)
(6.51701e-09 -1.67696e-08 1.4432e-08)
(7.92506e-09 -2.03648e-08 1.83993e-08)
(9.44098e-09 -2.40669e-08 2.30215e-08)
(1.11302e-08 -2.78724e-08 2.84682e-08)
(1.30696e-08 -3.17263e-08 3.49108e-08)
(1.53493e-08 -3.5504e-08 4.25158e-08)
(1.80688e-08 -3.89868e-08 5.14283e-08)
(2.13256e-08 -4.18277e-08 6.17394e-08)
(2.51825e-08 -4.35132e-08 7.34249e-08)
(2.95968e-08 -4.33452e-08 8.62244e-08)
(3.42929e-08 -4.05877e-08 9.93395e-08)
(3.82673e-08 -3.57619e-08 1.10109e-07)
(9.95955e-10 -2.50525e-09 1.97277e-09)
(2.77983e-09 -7.01699e-09 5.57892e-09)
(4.42653e-09 -1.12453e-08 9.11015e-09)
(5.99798e-09 -1.53619e-08 1.27921e-08)
(7.55196e-09 -1.95017e-08 1.68281e-08)
(9.14606e-09 -2.37661e-08 2.14116e-08)
(1.08406e-08 -2.82238e-08 2.67328e-08)
(1.27024e-08 -3.29099e-08 3.29845e-08)
(1.48079e-08 -3.78223e-08 4.03641e-08)
(1.72439e-08 -4.29146e-08 4.90701e-08)
(2.01026e-08 -4.80829e-08 5.92903e-08)
(2.34716e-08 -5.314e-08 7.11773e-08)
(2.7413e-08 -5.77522e-08 8.48038e-08)
(3.18945e-08 -6.12675e-08 1.00015e-07)
(3.66655e-08 -6.23991e-08 1.15996e-07)
(4.0678e-08 -5.97504e-08 1.29343e-07)
(1.11554e-09 -2.75911e-09 2.21637e-09)
(3.11109e-09 -7.73266e-09 6.26444e-09)
(4.94546e-09 -1.24069e-08 1.02183e-08)
(6.68304e-09 -1.69794e-08 1.43243e-08)
(8.38387e-09 -2.16099e-08 1.88038e-08)
(1.01062e-08 -2.64261e-08 2.38649e-08)
(1.191e-08 -3.15273e-08 2.97113e-08)
(1.38608e-08 -3.69884e-08 3.65492e-08)
(1.60329e-08 -4.28636e-08 4.45907e-08)
(1.85123e-08 -4.91901e-08 5.40556e-08)
(2.13958e-08 -5.59941e-08 6.51662e-08)
(2.48054e-08 -6.33e-08 7.81556e-08)
(2.88882e-08 -7.11128e-08 9.32467e-08)
(3.38354e-08 -7.93184e-08 1.10593e-07)
(3.97867e-08 -8.72344e-08 1.29818e-07)
(4.56494e-08 -9.23412e-08 1.47076e-07)
(1.21082e-09 -2.91633e-09 2.41284e-09)
(3.37359e-09 -8.17872e-09 6.81554e-09)
(5.35248e-09 -1.31388e-08 1.11028e-08)
(7.2119e-09 -1.8014e-08 1.5534e-08)
(9.01041e-09 -2.29836e-08 2.03393e-08)
(1.08043e-08 -2.81964e-08 2.57331e-08)
(1.26502e-08 -3.37768e-08 3.19224e-08)
(1.46086e-08 -3.98321e-08 3.91134e-08)
(1.67481e-08 -4.64597e-08 4.75169e-08)
(1.91482e-08 -5.37582e-08 5.735e-08)
(2.19075e-08 -6.18476e-08 6.88425e-08)
(2.51591e-08 -7.09022e-08 8.22499e-08)
(2.9116e-08 -8.12175e-08 9.7894e-08)
(3.41573e-08 -9.32998e-08 1.16217e-07)
(4.08759e-08 -1.07776e-07 1.37569e-07)
(4.86983e-08 -1.22917e-07 1.5884e-07)
(1.06128e-10 -2.73542e-10 1.9396e-10)
(2.96823e-10 -7.64812e-10 5.49036e-10)
(4.74633e-10 -1.22139e-09 8.98122e-10)
(6.47454e-10 -1.65937e-09 1.26446e-09)
(8.22854e-10 -2.08972e-09 1.66896e-09)
(1.0085e-09 -2.5173e-09 2.13129e-09)
(1.21315e-09 -2.9397e-09 2.67038e-09)
(1.44791e-09 -3.34455e-09 3.30442e-09)
(1.72866e-09 -3.70525e-09 4.05056e-09)
(2.08058e-09 -3.9728e-09 4.92358e-09)
(2.5485e-09 -4.06109e-09 5.93465e-09)
(3.22101e-09 -3.81617e-09 7.09134e-09)
(4.29112e-09 -2.94408e-09 8.40748e-09)
(6.1901e-09 -8.38624e-10 9.92803e-09)
(9.73802e-09 3.6474e-09 1.17033e-08)
(1.49921e-08 1.07896e-08 1.31215e-08)
(3.15265e-10 -8.12137e-10 5.76518e-10)
(8.81518e-10 -2.27092e-09 1.63153e-09)
(1.40917e-09 -3.62749e-09 2.66844e-09)
(1.9212e-09 -4.93028e-09 3.7556e-09)
(2.43944e-09 -6.21247e-09 4.95481e-09)
(2.98618e-09 -7.4902e-09 6.324e-09)
(3.58624e-09 -8.75888e-09 7.91861e-09)
(4.27042e-09 -9.98665e-09 9.79173e-09)
(5.08052e-09 -1.11029e-08 1.1992e-08)
(6.07864e-09 -1.19796e-08 1.4558e-08)
(7.36472e-09 -1.24022e-08 1.75073e-08)
(9.11156e-09 -1.20278e-08 2.08185e-08)
(1.16253e-08 -1.03406e-08 2.43958e-08)
(1.53744e-08 -6.68558e-09 2.79685e-08)
(2.07099e-08 -7.70991e-10 3.08192e-08)
(2.61706e-08 5.17415e-09 3.14847e-08)
(5.15675e-10 -1.32663e-09 9.44203e-10)
(1.44149e-09 -3.71063e-09 2.67164e-09)
(2.30304e-09 -5.93078e-09 4.36816e-09)
(3.13679e-09 -8.06822e-09 6.14486e-09)
(3.97736e-09 -1.01804e-08 8.10207e-09)
(4.85961e-09 -1.22991e-08 1.03337e-08)
(5.82159e-09 -1.44256e-08 1.293e-08)
(6.90843e-09 -1.65223e-08 1.59773e-08)
(8.17737e-09 -1.84993e-08 1.95546e-08)
(9.70483e-09 -2.01924e-08 2.3723e-08)
(1.15971e-08 -2.13369e-08 2.85048e-08)
(1.40108e-08 -2.15478e-08 3.38482e-08)
(1.71595e-08 -2.03577e-08 3.95529e-08)
(2.12826e-08 -1.74499e-08 4.51465e-08)
(2.63267e-08 -1.34026e-08 4.96523e-08)
(3.08382e-08 -1.08494e-08 5.15567e-08)
(7.02086e-10 -1.80086e-09 1.28796e-09)
(1.96189e-09 -5.03918e-09 3.64355e-09)
(3.13176e-09 -8.06089e-09 5.95421e-09)
(4.25962e-09 -1.09803e-08 8.37002e-09)
(5.39046e-09 -1.38816e-08 1.10259e-08)
(6.56921e-09 -1.68172e-08 1.40484e-08)
(7.84355e-09 -1.98046e-08 1.75593e-08)
(9.26748e-09 -2.28182e-08 2.16758e-08)
(1.09042e-08 -2.57766e-08 2.65063e-08)
(1.28278e-08 -2.85242e-08 3.21366e-08)
(1.51216e-08 -3.081e-08 3.86024e-08)
(1.78685e-08 -3.22797e-08 4.5837e-08)
(2.11205e-08 -3.25292e-08 5.35761e-08)
(2.48064e-08 -3.13366e-08 6.11839e-08)
(2.85209e-08 -2.92527e-08 6.73825e-08)
(3.11262e-08 -2.82172e-08 7.01959e-08)
(8.7018e-10 -2.21883e-09 1.60005e-09)
(2.43028e-09 -6.21183e-09 4.52476e-09)
(3.87498e-09 -9.94652e-09 7.38927e-09)
(5.26096e-09 -1.357e-08 1.03769e-08)
(6.64116e-09 -1.71947e-08 1.36523e-08)
(8.06763e-09 -2.08985e-08 1.73698e-08)
(9.59449e-09 -2.47241e-08 2.1678e-08)
(1.12806e-08 -2.86731e-08 2.67213e-08)
(1.31909e-08 -3.26981e-08 3.26357e-08)
(1.53934e-08 -3.66888e-08 3.9535e-08)
(1.79485e-08 -4.04542e-08 4.74812e-08)
(2.0883e-08 -4.37078e-08 5.64269e-08)
(2.41299e-08 -4.60686e-08 6.61005e-08)
(2.74123e-08 -4.71341e-08 7.57801e-08)
(3.00931e-08 -4.67782e-08 8.39014e-08)
(3.12528e-08 -4.59144e-08 8.78436e-08)
(1.01662e-09 -2.56501e-09 1.87416e-09)
(2.83726e-09 -7.18487e-09 5.29757e-09)
(4.51743e-09 -1.15172e-08 8.6436e-09)
(6.11985e-09 -1.57399e-08 1.21226e-08)
(7.70254e-09 -1.99931e-08 1.59227e-08)
(9.32188e-09 -2.43829e-08 2.02195e-08)
(1.10355e-08 -2.89818e-08 2.51823e-08)
(1.29048e-08 -3.38292e-08 3.09765e-08)
(1.49959e-08 -3.89276e-08 3.77613e-08)
(1.73763e-08 -4.42374e-08 4.56777e-08)
(2.01051e-08 -4.9667e-08 5.48247e-08)
(2.32105e-08 -5.50545e-08 6.52079e-08)
(2.66336e-08 -6.01178e-08 7.66229e-08)
(3.01253e-08 -6.4343e-08 8.84074e-08)
(3.30568e-08 -6.68311e-08 9.88905e-08)
(3.43523e-08 -6.67742e-08 1.04739e-07)
(1.13922e-09 -2.82491e-09 2.10596e-09)
(3.17679e-09 -7.91756e-09 5.94952e-09)
(5.04965e-09 -1.27064e-08 9.69672e-09)
(6.82363e-09 -1.73961e-08 1.35776e-08)
(8.55894e-09 -2.2152e-08 1.77967e-08)
(1.03134e-08 -2.71064e-08 2.25435e-08)
(1.21454e-08 -3.23623e-08 2.79998e-08)
(1.41164e-08 -3.79978e-08 3.43432e-08)
(1.62932e-08 -4.40689e-08 4.17462e-08)
(1.87471e-08 -5.06134e-08 5.03686e-08)
(2.15542e-08 -5.76577e-08 6.03432e-08)
(2.47864e-08 -6.52192e-08 7.17329e-08)
(2.85083e-08 -7.32905e-08 8.44566e-08)
(3.27358e-08 -8.17244e-08 9.80446e-08)
(3.72403e-08 -8.9803e-08 1.10975e-07)
(4.08455e-08 -9.52276e-08 1.19331e-07)
(1.23697e-09 -2.98589e-09 2.29301e-09)
(3.44634e-09 -8.37426e-09 6.47409e-09)
(5.46821e-09 -1.34558e-08 1.05383e-08)
(7.36845e-09 -1.84555e-08 1.47277e-08)
(9.20666e-09 -2.35583e-08 1.92554e-08)
(1.10391e-08 -2.89179e-08 2.43168e-08)
(1.29218e-08 -3.46622e-08 3.00969e-08)
(1.49129e-08 -4.09004e-08 3.6774e-08)
(1.70761e-08 -4.77298e-08 4.45197e-08)
(1.94826e-08 -5.52458e-08 5.34943e-08)
(2.22155e-08 -6.35591e-08 6.38347e-08)
(2.53809e-08 -7.28241e-08 7.56348e-08)
(2.91322e-08 -8.32862e-08 8.88914e-08)
(3.36962e-08 -9.53159e-08 1.03332e-07)
(3.92905e-08 -1.09198e-07 1.17833e-07)
(4.49402e-08 -1.22838e-07 1.28466e-07)
(1.07666e-10 -2.792e-10 1.76737e-10)
(3.00983e-10 -7.8073e-10 5.00008e-10)
(4.80955e-10 -1.2472e-09 8.17324e-10)
(6.55156e-10 -1.69528e-09 1.14915e-09)
(8.30831e-10 -2.13654e-09 1.51404e-09)
(1.01492e-09 -2.57663e-09 1.92876e-09)
(1.21488e-09 -3.01428e-09 2.40876e-09)
(1.43948e-09 -3.4393e-09 2.96761e-09)
(1.7003e-09 -3.82938e-09 3.61565e-09)
(2.01442e-09 -4.145e-09 4.35674e-09)
(2.41036e-09 -4.32109e-09 5.1823e-09)
(2.94258e-09 -4.25287e-09 6.06132e-09)
(3.72217e-09 -3.76732e-09 6.92172e-09)
(4.97954e-09 -2.55772e-09 7.61752e-09)
(7.10218e-09 -1.03733e-10 7.85095e-09)
(9.9127e-09 3.6601e-09 7.09729e-09)
(3.19834e-10 -8.28889e-10 5.25287e-10)
(8.94004e-10 -2.31807e-09 1.48597e-09)
(1.42802e-09 -3.70387e-09 2.42827e-09)
(1.94436e-09 -5.03649e-09 3.41325e-09)
(2.46373e-09 -6.35085e-09 4.49513e-09)
(3.00639e-09 -7.66524e-09 5.7235e-09)
(3.59351e-09 -8.97821e-09 7.14371e-09)
(4.24929e-09 -1.02635e-08 8.7955e-09)
(5.00372e-09 -1.14619e-08 1.07083e-08)
(5.89689e-09 -1.24688e-08 1.28906e-08)
(6.98766e-09 -1.31202e-08 1.53103e-08)
(8.36808e-09 -1.31809e-08 1.78557e-08)
(1.01774e-08 -1.23578e-08 2.0263e-08)
(1.25753e-08 -1.04004e-08 2.19853e-08)
(1.54768e-08 -7.46444e-09 2.20312e-08)
(1.77461e-08 -4.97505e-09 1.96486e-08)
(5.23255e-10 -1.35391e-09 8.60338e-10)
(1.46224e-09 -3.78737e-09 2.43344e-09)
(2.33456e-09 -6.05508e-09 3.97532e-09)
(3.17588e-09 -8.24092e-09 5.58523e-09)
(4.01923e-09 -1.04051e-08 7.35129e-09)
(4.8964e-09 -1.25824e-08 9.35404e-09)
(5.84004e-09 -1.47784e-08 1.16675e-08)
(6.8856e-09 -1.6963e-08 1.43571e-08)
(8.07305e-09 -1.90604e-08 1.7472e-08)
(9.44803e-09 -2.09356e-08 2.10288e-08)
(1.1062e-08 -2.23835e-08 2.49803e-08)
(1.29651e-08 -2.314e-08 2.91563e-08)
(1.51879e-08 -2.29609e-08 3.31712e-08)
(1.76468e-08 -2.18732e-08 3.6273e-08)
(1.99354e-08 -2.06652e-08 3.72984e-08)
(2.11065e-08 -2.09295e-08 3.56332e-08)
(7.12666e-10 -1.83775e-09 1.17376e-09)
(1.99087e-09 -5.14298e-09 3.3189e-09)
(3.17602e-09 -8.22886e-09 5.41936e-09)
(4.31524e-09 -1.12135e-08 7.60878e-09)
(5.45157e-09 -1.41842e-08 1.00059e-08)
(6.62638e-09 -1.71972e-08 1.27195e-08)
(7.88096e-09 -2.02743e-08 1.58499e-08)
(9.25793e-09 -2.33967e-08 1.9487e-08)
(1.08007e-08 -2.64964e-08 2.37009e-08)
(1.25487e-08 -2.94433e-08 2.85219e-08)
(1.45242e-08 -3.2038e-08 3.39021e-08)
(1.67027e-08 -3.40274e-08 3.96473e-08)
(1.89485e-08 -3.51892e-08 4.53043e-08)
(2.08972e-08 -3.55657e-08 5.00089e-08)
(2.18525e-08 -3.58429e-08 5.2441e-08)
(2.12261e-08 -3.70941e-08 5.17492e-08)
(8.83683e-10 -2.26412e-09 1.45827e-09)
(2.46732e-09 -6.33917e-09 4.1222e-09)
(3.93201e-09 -1.01525e-08 6.72651e-09)
(5.33357e-09 -1.38557e-08 9.43481e-09)
(6.72312e-09 -1.75646e-08 1.23921e-08)
(8.14904e-09 -2.1361e-08 1.57312e-08)
(9.65887e-09 -2.52908e-08 1.95753e-08)
(1.13e-08 -2.9361e-08 2.4036e-08)
(1.31175e-08 -3.35324e-08 2.92045e-08)
(1.5145e-08 -3.77104e-08 3.51299e-08)
(1.73837e-08 -4.17361e-08 4.17787e-08)
(1.97574e-08 -4.53846e-08 4.89619e-08)
(2.20217e-08 -4.83899e-08 5.62093e-08)
(2.36226e-08 -5.05297e-08 6.25895e-08)
(2.36382e-08 -5.18163e-08 6.65965e-08)
(2.16395e-08 -5.26504e-08 6.6951e-08)
(1.03289e-09 -2.61716e-09 1.70838e-09)
(2.88211e-09 -7.33155e-09 4.82702e-09)
(4.58686e-09 -1.17544e-08 7.86975e-09)
(6.20948e-09 -1.60684e-08 1.10244e-08)
(7.80624e-09 -2.04177e-08 1.44566e-08)
(9.43029e-09 -2.49113e-08 1.83181e-08)
(1.11332e-08 -2.96245e-08 2.27496e-08)
(1.2966e-08 -3.45984e-08 2.78802e-08)
(1.49767e-08 -3.98377e-08 3.38184e-08)
(1.72024e-08 -4.53061e-08 4.06336e-08)
(1.96498e-08 -5.09181e-08 4.83155e-08)
(2.22533e-08 -5.65235e-08 5.6701e-08)
(2.47958e-08 -6.18676e-08 6.53486e-08)
(2.67618e-08 -6.64851e-08 7.33139e-08)
(2.72229e-08 -6.9542e-08 7.89432e-08)
(2.54964e-08 -7.0101e-08 8.04761e-08)
(1.15808e-09 -2.88218e-09 1.91998e-09)
(3.22883e-09 -8.07858e-09 5.42206e-09)
(5.13085e-09 -1.29668e-08 8.83041e-09)
(6.92963e-09 -1.77565e-08 1.23506e-08)
(8.68429e-09 -2.2617e-08 1.61628e-08)
(1.04499e-08 -2.76833e-08 2.04312e-08)
(1.22799e-08 -3.30596e-08 2.53074e-08)
(1.4227e-08 -3.88228e-08 3.09303e-08)
(1.63433e-08 -4.50251e-08 3.74196e-08)
(1.86757e-08 -5.16957e-08 4.48579e-08)
(2.12547e-08 -5.88428e-08 5.3253e-08)
(2.40803e-08 -6.64509e-08 6.24801e-08)
(2.70751e-08 -7.44438e-08 7.2136e-08)
(3.0019e-08 -8.25491e-08 8.13102e-08)
(3.24224e-08 -8.98926e-08 8.82488e-08)
(3.34478e-08 -9.4232e-08 9.07049e-08)
(1.25809e-09 -3.04629e-09 2.09092e-09)
(3.50492e-09 -8.54409e-09 5.90131e-09)
(5.55999e-09 -1.37304e-08 9.599e-09)
(7.48949e-09 -1.88355e-08 1.34002e-08)
(9.35221e-09 -2.40484e-08 1.74933e-08)
(1.12026e-08 -2.95246e-08 2.20476e-08)
(1.30928e-08 -3.53923e-08 2.72177e-08)
(1.50744e-08 -4.17575e-08 3.31438e-08)
(1.71999e-08 -4.87093e-08 3.99449e-08)
(1.95212e-08 -5.63261e-08 4.77033e-08)
(2.2089e-08 -6.46861e-08 5.64333e-08)
(2.49492e-08 -7.38812e-08 6.60205e-08)
(2.81405e-08 -8.40319e-08 7.60994e-08)
(3.16938e-08 -9.52767e-08 8.58048e-08)
(3.55595e-08 -1.07535e-07 9.33177e-08)
(3.90316e-08 -1.18773e-07 9.58593e-08)
(1.08729e-10 -2.83994e-10 1.53341e-10)
(3.03834e-10 -7.94235e-10 4.33682e-10)
(4.84982e-10 -1.26909e-09 7.0824e-10)
(6.59551e-10 -1.72576e-09 9.94668e-10)
(8.34156e-10 -2.17636e-09 1.30816e-09)
(1.01486e-09 -2.62722e-09 1.6624e-09)
(1.20757e-09 -3.07825e-09 2.06914e-09)
(1.4184e-09 -3.52134e-09 2.53752e-09)
(1.65431e-09 -3.93832e-09 3.0721e-09)
(1.92412e-09 -4.2979e-09 3.66895e-09)
(2.24126e-09 -4.55171e-09 4.30877e-09)
(2.63057e-09 -4.62907e-09 4.94558e-09)
(3.14602e-09 -4.42418e-09 5.49242e-09)
(3.90345e-09 -3.75613e-09 5.80581e-09)
(5.1e-09 -2.28407e-09 5.69822e-09)
(6.61233e-09 2.07791e-10 5.06605e-09)
(3.23047e-10 -8.43089e-10 4.55783e-10)
(9.02549e-10 -2.35804e-09 1.28879e-09)
(1.44032e-09 -3.76867e-09 2.10449e-09)
(1.95784e-09 -5.1266e-09 2.95446e-09)
(2.47436e-09 -6.46832e-09 3.88409e-09)
(3.00754e-09 -7.81404e-09 4.93344e-09)
(3.5742e-09 -9.16536e-09 6.13718e-09)
(4.19116e-09 -1.05015e-08 7.52216e-09)
(4.87568e-09 -1.17737e-08 9.10139e-09)
(5.64591e-09 -1.2898e-08 1.08621e-08)
(6.52214e-09 -1.37498e-08 1.27442e-08)
(7.52967e-09 -1.41662e-08 1.46059e-08)
(8.70046e-09 -1.39694e-08 1.61724e-08)
(1.00433e-08 -1.30336e-08 1.69747e-08)
(1.14215e-08 -1.14358e-08 1.64137e-08)
(1.22692e-08 -9.81704e-09 1.45272e-08)
(5.2865e-10 -1.377e-09 7.4657e-10)
(1.47669e-09 -3.8524e-09 2.11068e-09)
(2.35548e-09 -6.16034e-09 3.44547e-09)
(3.19938e-09 -8.38706e-09 4.83498e-09)
(4.03908e-09 -1.0595e-08 6.35276e-09)
(4.90256e-09 -1.28216e-08 8.06412e-09)
(5.81602e-09 -1.50765e-08 1.00259e-08)
(6.80403e-09 -1.73364e-08 1.22829e-08)
(7.88837e-09 -1.95384e-08 1.48584e-08)
(9.08423e-09 -2.15718e-08 1.77362e-08)
(1.03921e-08 -2.3277e-08 2.08292e-08)
(1.17848e-08 -2.44658e-08 2.39325e-08)
(1.31749e-08 -2.49994e-08 2.66545e-08)
(1.4369e-08 -2.49679e-08 2.83894e-08)
(1.50285e-08 -2.49416e-08 2.84856e-08)
(1.491e-08 -2.57172e-08 2.71992e-08)
(7.20302e-10 -1.86895e-09 1.01853e-09)
(2.01144e-09 -5.23073e-09 2.87913e-09)
(3.20619e-09 -8.37077e-09 4.69763e-09)
(4.35002e-09 -1.141e-08 6.58764e-09)
(5.48334e-09 -1.44385e-08 8.64832e-09)
(6.64288e-09 -1.75153e-08 1.0968e-08)
(7.86231e-09 -2.06658e-08 1.36241e-08)
(9.17158e-09 -2.38774e-08 1.66792e-08)
(1.05933e-08 -2.70926e-08 2.01691e-08)
(1.21332e-08 -3.02012e-08 2.40816e-08)
(1.3761e-08 -3.30398e-08 2.83197e-08)
(1.53742e-08 -3.54132e-08 3.26462e-08)
(1.67377e-08 -3.71718e-08 3.66189e-08)
(1.74177e-08 -3.83828e-08 3.95668e-08)
(1.68614e-08 -3.95328e-08 4.07965e-08)
(1.51951e-08 -4.11152e-08 4.04362e-08)
(8.93591e-10 -2.30233e-09 1.26569e-09)
(2.49419e-09 -6.44661e-09 3.57644e-09)
(3.97186e-09 -1.0326e-08 5.83161e-09)
(5.38092e-09 -1.40953e-08 8.17011e-09)
(6.76961e-09 -1.78733e-08 1.07132e-08)
(8.18155e-09 -2.1744e-08 1.35689e-08)
(9.65636e-09 -2.57559e-08 1.68328e-08)
(1.12285e-08 -2.99191e-08 2.05835e-08)
(1.29222e-08 -3.41994e-08 2.48707e-08)
(1.47384e-08 -3.85115e-08 2.96917e-08)
(1.6629e-08 -4.27124e-08 3.49522e-08)
(1.84477e-08 -4.66029e-08 4.04083e-08)
(1.98675e-08 -4.99451e-08 4.55967e-08)
(2.02888e-08 -5.25121e-08 4.98043e-08)
(1.89509e-08 -5.41874e-08 5.22492e-08)
(1.60868e-08 -5.50565e-08 5.2807e-08)
(1.04508e-09 -2.66108e-09 1.48297e-09)
(2.91524e-09 -7.45492e-09 4.18866e-09)
(4.63673e-09 -1.19533e-08 6.82404e-09)
(6.27032e-09 -1.63425e-08 9.54865e-09)
(7.86974e-09 -2.07693e-08 1.25013e-08)
(9.48361e-09 -2.53443e-08 1.58055e-08)
(1.11561e-08 -3.01434e-08 1.95711e-08)
(1.29261e-08 -3.52069e-08 2.38894e-08)
(1.48229e-08 -4.05375e-08 2.88222e-08)
(1.68541e-08 -4.60938e-08 3.43772e-08)
(1.89831e-08 -5.17824e-08 4.04694e-08)
(2.10866e-08 -5.74384e-08 4.68612e-08)
(2.28732e-08 -6.27743e-08 5.30762e-08)
(2.37927e-08 -6.72675e-08 5.83615e-08)
(2.30588e-08 -6.99944e-08 6.18181e-08)
(2.05741e-08 -7.00148e-08 6.3085e-08)
(1.17242e-09 -2.93027e-09 1.667e-09)
(3.26811e-09 -8.21363e-09 4.70589e-09)
(5.1906e-09 -1.31843e-08 7.65866e-09)
(7.00431e-09 -1.80557e-08 1.06999e-08)
(8.76608e-09 -2.29995e-08 1.39809e-08)
(1.05271e-08 -2.81512e-08 1.76356e-08)
(1.23343e-08 -3.36139e-08 2.17825e-08)
(1.42303e-08 -3.94601e-08 2.65207e-08)
(1.62509e-08 -4.57326e-08 3.19186e-08)
(1.84182e-08 -5.24431e-08 3.79908e-08)
(2.07296e-08 -5.95699e-08 4.46618e-08)
(2.31311e-08 -6.70406e-08 5.16905e-08)
(2.54881e-08 -7.46861e-08 5.8596e-08)
(2.75446e-08 -8.20914e-08 6.45535e-08)
(2.89184e-08 -8.82382e-08 6.84773e-08)
(2.92881e-08 -9.11511e-08 6.97975e-08)
(1.27447e-09 -3.09688e-09 1.81574e-09)
(3.54987e-09 -8.68614e-09 5.12288e-09)
(5.62913e-09 -1.39592e-08 8.32712e-09)
(7.57756e-09 -1.91497e-08 1.16124e-08)
(9.45227e-09 -2.4449e-08 1.51369e-08)
(1.13046e-08 -3.00125e-08 1.90392e-08)
(1.31814e-08 -3.59656e-08 2.34404e-08)
(1.51261e-08 -4.24072e-08 2.84407e-08)
(1.71782e-08 -4.94119e-08 3.41078e-08)
(1.93705e-08 -5.70327e-08 4.0456e-08)
(2.17255e-08 -6.53028e-08 4.74059e-08)
(2.42488e-08 -7.42364e-08 5.47196e-08)
(2.69269e-08 -8.3824e-08 6.18968e-08)
(2.97441e-08 -9.40024e-08 6.8037e-08)
(3.27057e-08 -1.04486e-07 7.17923e-08)
(3.5516e-08 -1.13583e-07 7.21564e-08)
(1.09407e-10 -2.87861e-10 1.24744e-10)
(3.05545e-10 -8.05109e-10 3.52621e-10)
(4.87215e-10 -1.2867e-09 5.75604e-10)
(6.61434e-10 -1.75033e-09 8.07386e-10)
(8.34203e-10 -2.20839e-09 1.06018e-09)
(1.01072e-09 -2.6679e-09 1.34421e-09)
(1.19541e-09 -3.1296e-09 1.66789e-09)
(1.39205e-09 -3.587e-09 2.03676e-09)
(1.60384e-09 -4.02489e-09 2.45176e-09)
(1.83349e-09 -4.41711e-09 2.90558e-09)
(2.08481e-09 -4.72463e-09 3.3776e-09)
(2.36797e-09 -4.89198e-09 3.82736e-09)
(2.71316e-09 -4.83641e-09 4.18983e-09)
(3.20252e-09 -4.40704e-09 4.38709e-09)
(4.00171e-09 -3.2852e-09 4.38292e-09)
(5.08123e-09 -1.1765e-09 4.24228e-09)
(3.25092e-10 -8.54533e-10 3.70763e-10)
(9.07849e-10 -2.39025e-09 1.04815e-09)
(1.44731e-09 -3.82088e-09 1.71023e-09)
(1.96393e-09 -5.19913e-09 2.39844e-09)
(2.47546e-09 -6.56285e-09 3.14808e-09)
(2.99681e-09 -7.93354e-09 3.98958e-09)
(3.54075e-09 -9.31523e-09 4.94769e-09)
(4.11759e-09 -1.06913e-08 6.0389e-09)
(4.73422e-09 -1.202e-08 7.26558e-09)
(5.3929e-09 -1.32303e-08 8.60589e-09)
(6.09055e-09 -1.42186e-08 9.998e-09)
(6.82095e-09 -1.48519e-08 1.13192e-08)
(7.58065e-09 -1.49809e-08 1.23628e-08)
(8.37737e-09 -1.4463e-08 1.28521e-08)
(9.19336e-09 -1.32181e-08 1.25433e-08)
(9.81214e-09 -1.15748e-08 1.16501e-08)
(5.32169e-10 -1.39562e-09 6.0736e-10)
(1.4859e-09 -3.9048e-09 1.71669e-09)
(2.36786e-09 -6.24508e-09 2.80036e-09)
(3.21097e-09 -8.50456e-09 3.92547e-09)
(4.04334e-09 -1.07472e-08 5.14957e-09)
(4.88919e-09 -1.30125e-08 6.5223e-09)
(5.76863e-09 -1.53131e-08 8.08442e-09)
(6.6967e-09 -1.76306e-08 9.86377e-09)
(7.68057e-09 -1.99102e-08 1.18665e-08)
(8.71387e-09 -2.20556e-08 1.40619e-08)
(9.76845e-09 -2.39289e-08 1.63599e-08)
(1.07823e-08 -2.53689e-08 1.85799e-08)
(1.16511e-08 -2.62477e-08 2.04379e-08)
(1.22305e-08 -2.6591e-08 2.1574e-08)
(1.2408e-08 -2.67397e-08 2.17618e-08)
(1.23134e-08 -2.72257e-08 2.13811e-08)
(7.25432e-10 -1.89408e-09 8.28803e-10)
(2.02493e-09 -5.3014e-09 2.34187e-09)
(3.22483e-09 -8.48484e-09 3.81857e-09)
(4.36862e-09 -1.15675e-08 5.3492e-09)
(5.49394e-09 -1.46413e-08 7.01155e-09)
(6.63282e-09 -1.77673e-08 8.87284e-09)
(7.81172e-09 -2.09732e-08 1.09889e-08)
(9.04957e-09 -2.42501e-08 1.33994e-08)
(1.03525e-08 -2.75461e-08 1.61167e-08)
(1.17034e-08 -3.07608e-08 1.91079e-08)
(1.30437e-08 -3.3744e-08 2.22681e-08)
(1.42451e-08 -3.63129e-08 2.53901e-08)
(1.50753e-08 -3.83096e-08 2.8149e-08)
(1.51973e-08 -3.97251e-08 3.01596e-08)
(1.43378e-08 -4.08553e-08 3.11947e-08)
(1.29511e-08 -4.20682e-08 3.15331e-08)
(9.0042e-10 -2.33307e-09 1.02998e-09)
(2.51231e-09 -6.53293e-09 2.90953e-09)
(3.99748e-09 -1.0465e-08 4.7411e-09)
(5.40831e-09 -1.42865e-08 6.63537e-09)
(6.78981e-09 -1.81178e-08 8.68743e-09)
(8.18092e-09 -2.20445e-08 1.09798e-08)
(9.61375e-09 -2.6116e-08 1.35817e-08)
(1.11114e-08 -3.03429e-08 1.65435e-08)
(1.2682e-08 -3.46916e-08 1.98854e-08)
(1.43052e-08 -3.9077e-08 2.35774e-08)
(1.59087e-08 -4.3355e-08 2.75099e-08)
(1.73299e-08 -4.73179e-08 3.14631e-08)
(1.82616e-08 -5.06999e-08 3.50906e-08)
(1.82247e-08 -5.32046e-08 3.79839e-08)
(1.67507e-08 -5.46054e-08 3.98788e-08)
(1.43442e-08 -5.50124e-08 4.08962e-08)
(1.05366e-09 -2.69633e-09 1.20703e-09)
(2.93823e-09 -7.55382e-09 3.40817e-09)
(4.67003e-09 -1.21122e-08 5.54897e-09)
(6.30782e-09 -1.65602e-08 7.75655e-09)
(7.9026e-09 -2.10461e-08 1.01399e-08)
(9.4982e-09 -2.56808e-08 1.27937e-08)
(1.11317e-08 -3.05392e-08 1.57974e-08)
(1.28316e-08 -3.56586e-08 1.92105e-08)
(1.46124e-08 -4.10354e-08 2.30597e-08)
(1.64637e-08 -4.66176e-08 2.73191e-08)
(1.83302e-08 -5.22927e-08 3.18789e-08)
(2.0077e-08 -5.78622e-08 3.65058e-08)
(2.14438e-08 -6.2988e-08 4.08336e-08)
(2.20017e-08 -6.7079e-08 4.44037e-08)
(2.12398e-08 -6.91836e-08 4.68833e-08)
(1.92886e-08 -6.85786e-08 4.83058e-08)
(1.18274e-09 -2.96879e-09 1.35699e-09)
(3.296e-09 -8.3216e-09 3.82972e-09)
(5.23178e-09 -1.33575e-08 6.22888e-09)
(7.05294e-09 -1.82923e-08 8.69375e-09)
(8.81354e-09 -2.32985e-08 1.13433e-08)
(1.05608e-08 -2.85114e-08 1.42802e-08)
(1.23354e-08 -3.40308e-08 1.75908e-08)
(1.41708e-08 -3.99226e-08 2.13394e-08)
(1.60905e-08 -4.62172e-08 2.55566e-08)
(1.81021e-08 -5.29056e-08 3.02187e-08)
(2.01863e-08 -5.99297e-08 3.52093e-08)
(2.22871e-08 -6.71637e-08 4.0288e-08)
(2.42945e-08 -7.43581e-08 4.50413e-08)
(2.6061e-08 -8.10146e-08 4.89208e-08)
(2.74448e-08 -8.61353e-08 5.14499e-08)
(2.83109e-08 -8.81406e-08 5.26486e-08)
(1.28647e-09 -3.13729e-09 1.47836e-09)
(3.58251e-09 -8.79942e-09 4.16986e-09)
(5.6782e-09 -1.41407e-08 6.7739e-09)
(7.63741e-09 -1.93971e-08 9.43748e-09)
(9.51528e-09 -2.47605e-08 1.2285e-08)
(1.13596e-08 -3.03851e-08 1.54231e-08)
(1.32121e-08 -3.63916e-08 1.89402e-08)
(1.51087e-08 -4.28697e-08 2.29011e-08)
(1.7079e-08 -4.98776e-08 2.73359e-08)
(1.91439e-08 -5.74404e-08 3.22168e-08)
(2.13145e-08 -6.55469e-08 3.74252e-08)
(2.35919e-08 -7.41437e-08 4.27013e-08)
(2.59824e-08 -8.31286e-08 4.7593e-08)
(2.85524e-08 -9.23468e-08 5.14385e-08)
(3.14964e-08 -1.01535e-07 5.35039e-08)
(3.46889e-08 -1.09477e-07 5.36277e-08)
(1.09772e-10 -2.90746e-10 9.20262e-11)
(3.06458e-10 -8.13243e-10 2.60153e-10)
(4.88211e-10 -1.2999e-09 4.24253e-10)
(6.61636e-10 -1.76854e-09 5.94669e-10)
(8.32655e-10 -2.23239e-09 7.79841e-10)
(1.00523e-09 -2.69829e-09 9.86927e-10)
(1.18276e-09 -3.16771e-09 1.22142e-09)
(1.36734e-09 -3.63518e-09 1.48642e-09)
(1.55963e-09 -4.08702e-09 1.78114e-09)
(1.75897e-09 -4.49959e-09 2.09859e-09)
(1.96499e-09 -4.83722e-09 2.42251e-09)
(2.18335e-09 -5.0482e-09 2.72474e-09)
(2.44189e-09 -5.0518e-09 2.96777e-09)
(2.82471e-09 -4.69273e-09 3.12233e-09)
(3.50872e-09 -3.64236e-09 3.21309e-09)
(4.49876e-09 -1.58896e-09 3.30299e-09)
(3.26274e-10 -8.63116e-10 2.736e-10)
(9.10759e-10 -2.41442e-09 7.73116e-10)
(1.45051e-09 -3.85986e-09 1.26086e-09)
(1.96566e-09 -5.2537e-09 1.76666e-09)
(2.47154e-09 -6.63347e-09 2.31578e-09)
(2.98156e-09 -8.02241e-09 2.92935e-09)
(3.50508e-09 -9.42584e-09 3.62359e-09)
(4.04763e-09 -1.08295e-08 4.40765e-09)
(4.60937e-09 -1.21956e-08 5.27917e-09)
(5.18379e-09 -1.34584e-08 6.21732e-09)
(5.75814e-09 -1.45213e-08 7.17344e-09)
(6.32e-09 -1.52553e-08 8.06125e-09)
(6.87537e-09 -1.55011e-08 8.75716e-09)
(7.47551e-09 -1.5069e-08 9.12013e-09)
(8.21016e-09 -1.37784e-08 9.06455e-09)
(8.95476e-09 -1.19089e-08 8.70966e-09)
(5.3428e-10 -1.4096e-09 4.48206e-10)
(1.49117e-09 -3.94411e-09 1.26635e-09)
(2.37438e-09 -6.30877e-09 2.06471e-09)
(3.2148e-09 -8.59232e-09 2.89168e-09)
(4.03927e-09 -1.08607e-08 3.78851e-09)
(4.86809e-09 -1.31541e-08 4.78959e-09)
(5.71676e-09 -1.54869e-08 5.92181e-09)
(6.59345e-09 -1.78434e-08 7.2009e-09)
(7.49584e-09 -2.01726e-08 8.62481e-09)
(8.40626e-09 -2.23832e-08 1.01633e-08)
(9.28617e-09 -2.4342e-08 1.17439e-08)
(1.00743e-08 -2.58857e-08 1.32423e-08)
(1.06939e-08 -2.68583e-08 1.44818e-08)
(1.10937e-08 -2.72081e-08 1.52833e-08)
(1.13256e-08 -2.71443e-08 1.55821e-08)
(1.15705e-08 -2.72073e-08 1.5592e-08)
(7.28626e-10 -1.91298e-09 6.11573e-10)
(2.03307e-09 -5.35445e-09 1.72781e-09)
(3.23504e-09 -8.5702e-09 2.81573e-09)
(4.37681e-09 -1.16852e-08 3.94101e-09)
(5.49248e-09 -1.47919e-08 5.15908e-09)
(6.6109e-09 -1.79528e-08 6.51682e-09)
(7.7527e-09 -2.11968e-08 8.05115e-09)
(8.92881e-09 -2.4516e-08 9.78484e-09)
(1.0135e-08 -2.78602e-08 1.17183e-08)
(1.13429e-08 -3.11298e-08 1.38167e-08)
(1.24867e-08 -3.41727e-08 1.59949e-08)
(1.3447e-08 -3.67941e-08 1.8106e-08)
(1.4043e-08 -3.87995e-08 1.99498e-08)
(1.40612e-08 -4.00992e-08 2.13342e-08)
(1.34205e-08 -4.08884e-08 2.21982e-08)
(1.2561e-08 -4.16173e-08 2.26742e-08)
(9.04779e-10 -2.35613e-09 7.6019e-10)
(2.5237e-09 -6.59768e-09 2.14687e-09)
(4.01271e-09 -1.05691e-08 3.49651e-09)
(5.42185e-09 -1.44287e-08 4.88931e-09)
(6.79426e-09 -1.82986e-08 6.39331e-09)
(8.16413e-09 -2.22643e-08 8.06605e-09)
(9.55785e-09 -2.63751e-08 9.95343e-09)
(1.09905e-08 -3.06404e-08 1.2085e-08)
(1.24602e-08 -3.5024e-08 1.44647e-08)
(1.3937e-08 -3.94349e-08 1.70567e-08)
(1.53456e-08 -4.37178e-08 1.97696e-08)
(1.65411e-08 -4.76433e-08 2.24425e-08)
(1.72795e-08 -5.09041e-08 2.48585e-08)
(1.72251e-08 -5.31439e-08 2.68106e-08)
(1.61028e-08 -5.4094e-08 2.82196e-08)
(1.43522e-08 -5.40099e-08 2.912e-08)
(1.05935e-09 -2.72277e-09 8.90962e-10)
(2.95312e-09 -7.62785e-09 2.51518e-09)
(4.69051e-09 -1.22307e-08 4.09293e-09)
(6.3289e-09 -1.67218e-08 5.71646e-09)
(7.91575e-09 -2.12495e-08 7.46379e-09)
(9.49163e-09 -2.59248e-08 9.401e-09)
(1.10879e-08 -3.08204e-08 1.15811e-08)
(1.27254e-08 -3.59695e-08 1.4039e-08)
(1.44103e-08 -4.13607e-08 1.67819e-08)
(1.61243e-08 -4.69285e-08 1.97741e-08)
(1.78123e-08 -5.25389e-08 2.29177e-08)
(1.93624e-08 -5.79615e-08 2.60391e-08)
(2.05818e-08 -6.28151e-08 2.88946e-08)
(2.11833e-08 -6.64728e-08 3.12408e-08)
(2.08403e-08 -6.8013e-08 3.29625e-08)
(1.95917e-08 -6.69378e-08 3.40728e-08)
(1.18969e-09 -2.9976e-09 1.00186e-09)
(3.31459e-09 -8.40225e-09 2.82671e-09)
(5.25843e-09 -1.34864e-08 4.59519e-09)
(7.08198e-09 -1.8467e-08 6.40836e-09)
(8.83766e-09 -2.35172e-08 8.35151e-09)
(1.05686e-08 -2.87705e-08 1.04965e-08)
(1.23107e-08 -3.43234e-08 1.29008e-08)
(1.40909e-08 -4.02346e-08 1.56025e-08)
(1.59255e-08 -4.65221e-08 1.86102e-08)
(1.78161e-08 -5.31566e-08 2.1886e-08)
(1.97473e-08 -6.00504e-08 2.53272e-08)
(2.16825e-08 -6.70347e-08 2.87381e-08)
(2.35777e-08 -7.38151e-08 3.18358e-08)
(2.5412e-08 -7.98742e-08 3.43009e-08)
(2.7204e-08 -8.42978e-08 3.59276e-08)
(2.87209e-08 -8.58183e-08 3.68063e-08)
(1.29475e-09 -3.1675e-09 1.0916e-09)