/*--------------------------------*- C++ -*----------------------------------*\
| =========                 |                                                 |
| \\      /  F ield         | OpenFOAM: The Open Source CFD Toolbox           |
|  \\    /   O peration     | Version:  v1912                                 |
|   \\  /    A nd           | Website:  www.openfoam.com                      |
|    \\/     M anipulation  |                                                 |
\*---------------------------------------------------------------------------*/
FoamFile
{
    version     2.0;
    format      ascii;
    class       pointVectorField;
    location    "0.96/fluid";
    object      pointMotionU;
}
// * * * * * * * * * * * * * * * * * * * * * * * * * * * * * * * * * * * * * //

dimensions      [0 1 -1 0 0 0 0];


internalField   nonuniform List<vector> 
16859
(
(0 0 0)
(0 0 0)
(0 0 0)
(0 0 0)
(0 0 0)
(0 0 0)
(0 0 0)
(0 0 0)
(0 0 0)
(0 0 0)
(0 0 0)
(0 0 0)
(0 0 0)
(0 0 0)
(0 0 0)
(0 0 0)
(1.34019e-08 2.34879e-08 1.56268e-08)
(0 0 0)
(3.8746e-10 -9.92748e-10 7.82449e-10)
(7.41937e-10 -1.89869e-09 1.5255e-09)
(1.07945e-09 -2.75283e-09 2.28308e-09)
(1.41498e-09 -3.58035e-09 3.10301e-09)
(1.76359e-09 -4.39566e-09 4.03008e-09)
(2.14207e-09 -5.20037e-09 5.10815e-09)
(2.57122e-09 -5.97928e-09 6.38158e-09)
(3.0794e-09 -6.69298e-09 7.89604e-09)
(3.70878e-09 -7.26479e-09 9.6992e-09)
(4.52739e-09 -7.55744e-09 1.18426e-08)
(5.65372e-09 -7.33041e-09 1.439e-08)
(7.307e-09 -6.15733e-09 1.74452e-08)
(9.89971e-09 -3.26629e-09 2.12304e-08)
(1.41291e-08 2.69015e-09 2.6236e-08)
(2.01485e-08 1.24978e-08 3.26471e-08)
(2.83113e-08 3.14294e-08 3.9487e-08)
(0 0 0)
(7.63837e-10 -1.95611e-09 1.54416e-09)
(1.46214e-09 -3.74239e-09 3.00995e-09)
(2.12581e-09 -5.42898e-09 4.50316e-09)
(2.78357e-09 -7.06699e-09 6.11747e-09)
(3.46426e-09 -8.68747e-09 7.94056e-09)
(4.19957e-09 -1.0298e-08 1.00582e-08)
(5.02771e-09 -1.18761e-08 1.25567e-08)
(5.99889e-09 -1.33571e-08 1.55242e-08)
(7.18384e-09 -1.46142e-08 1.90499e-08)
(8.68831e-09 -1.5425e-08 2.3223e-08)
(1.06776e-08 -1.54223e-08 2.81312e-08)
(1.34159e-08 -1.40288e-08 3.38683e-08)
(1.72959e-08 -1.04188e-08 4.05452e-08)
(2.27172e-08 -3.71249e-09 4.82443e-08)
(2.8929e-08 5.27194e-09 5.6086e-08)
(3.85885e-08 1.84684e-08 6.76321e-08)
(0 0 0)
(1.1189e-09 -2.86127e-09 2.26611e-09)
(2.14053e-09 -5.47705e-09 4.41578e-09)
(3.10878e-09 -7.95267e-09 6.60286e-09)
(4.06412e-09 -1.03667e-08 8.96336e-09)
(5.04692e-09 -1.27704e-08 1.16245e-08)
(6.10062e-09 -1.51848e-08 1.47105e-08)
(7.27592e-09 -1.75929e-08 1.83462e-08)
(8.63627e-09 -1.99277e-08 2.26584e-08)
(1.02648e-08 -2.20507e-08 2.77737e-08)
(1.22732e-08 -2.37207e-08 3.38112e-08)
(1.48125e-08 -2.45545e-08 4.0868e-08)
(1.80807e-08 -2.39962e-08 4.8998e-08)
(2.22945e-08 -2.13651e-08 5.81678e-08)
(2.75235e-08 -1.61726e-08 6.81526e-08)
(3.2835e-08 -9.49493e-09 7.76227e-08)
(4.02832e-08 -2.54956e-10 8.98993e-08)
(0 0 0)
(1.44358e-09 -3.67887e-09 2.93095e-09)
(2.75939e-09 -7.04685e-09 5.70864e-09)
(4.00177e-09 -1.02441e-08 8.52954e-09)
(5.22045e-09 -1.33777e-08 1.1567e-08)
(6.46446e-09 -1.6523e-08 1.49827e-08)
(7.78547e-09 -1.97219e-08 1.89345e-08)
(9.24177e-09 -2.29767e-08 2.35808e-08)
(1.09028e-08 -2.62409e-08 2.90829e-08)
(1.28529e-08 -2.94018e-08 3.56016e-08)
(1.51933e-08 -3.22554e-08 4.32862e-08)
(1.80379e-08 -3.44754e-08 5.22513e-08)
(2.1494e-08 -3.55876e-08 6.25314e-08)
(2.55994e-08 -3.49926e-08 7.3991e-08)
(3.01614e-08 -3.21562e-08 8.61425e-08)
(3.42131e-08 -2.75743e-08 9.71214e-08)
(3.94544e-08 -1.95747e-08 1.09741e-07)
(0 0 0)
(1.7307e-09 -4.37992e-09 3.52423e-09)
(3.30477e-09 -8.39625e-09 6.85995e-09)
(4.78411e-09 -1.22222e-08 1.02394e-08)
(6.22494e-09 -1.59935e-08 1.3867e-08)
(7.6819e-09 -1.98118e-08 1.79325e-08)
(9.21142e-09 -2.3745e-08 2.26208e-08)
(1.08754e-08 -2.78258e-08 2.81173e-08)
(1.27447e-08 -3.20454e-08 3.46117e-08)
(1.49012e-08 -3.63447e-08 4.22956e-08)
(1.74358e-08 -4.05978e-08 5.13524e-08)
(2.04385e-08 -4.45893e-08 6.19338e-08)
(2.39713e-08 -4.79783e-08 7.41103e-08)
(2.79983e-08 -5.02441e-08 8.77554e-08)
(3.2233e-08 -5.06408e-08 1.02284e-07)
(3.5711e-08 -4.86589e-08 1.15342e-07)
(3.99222e-08 -4.10362e-08 1.29423e-07)
(0 0 0)
(1.97526e-09 -4.93682e-09 4.0351e-09)
(3.76713e-09 -9.47181e-09 7.84836e-09)
(5.44203e-09 -1.38079e-08 1.17e-08)
(7.05974e-09 -1.81073e-08 1.58179e-08)
(8.67748e-09 -2.24975e-08 2.04124e-08)
(1.03532e-08 -2.70746e-08 2.56872e-08)
(1.21492e-08 -3.19055e-08 3.18462e-08)
(1.41348e-08 -3.70274e-08 3.90983e-08)
(1.63893e-08 -4.24477e-08 4.7658e-08)
(1.89998e-08 -4.814e-08 5.774e-08)
(2.20576e-08 -5.40385e-08 6.95462e-08)
(2.56439e-08 -6.00158e-08 8.32335e-08)
(2.97845e-08 -6.58099e-08 9.8816e-08)
(3.4321e-08 -7.08263e-08 1.15872e-07)
(3.83396e-08 -7.37567e-08 1.31774e-07)
(4.37009e-08 -7.00992e-08 1.49557e-07)
(0 0 0)
(2.17456e-09 -5.32458e-09 4.45679e-09)
(4.14157e-09 -1.0225e-08 8.66075e-09)
(5.96897e-09 -1.49283e-08 1.28916e-08)
(7.71713e-09 -1.96188e-08 1.73925e-08)
(9.44297e-09 -2.44464e-08 2.23859e-08)
(1.12029e-08 -2.95326e-08 2.8085e-08)
(1.30562e-08 -3.49756e-08 3.47013e-08)
(1.50682e-08 -4.08551e-08 4.24501e-08)
(1.73128e-08 -4.7238e-08 5.15534e-08)
(1.98748e-08 -5.41879e-08 6.22394e-08)
(2.28536e-08 -6.17784e-08 7.47427e-08)
(2.63694e-08 -7.0111e-08 8.92993e-08)
(3.05631e-08 -7.9313e-08 1.06108e-07)
(3.55291e-08 -8.94102e-08 1.2511e-07)
(4.05744e-08 -9.91109e-08 1.43836e-07)
(4.86689e-08 -1.09672e-07 1.66613e-07)
(0 0 0)
(2.32825e-09 -5.52242e-09 4.7869e-09)
(4.42805e-09 -1.06154e-08 9.29316e-09)
(6.36585e-09 -1.55225e-08 1.38091e-08)
(8.19991e-09 -2.04432e-08 1.85847e-08)
(9.98402e-09 -2.55439e-08 2.38461e-08)
(1.17703e-08 -3.09648e-08 2.9806e-08)
(1.36117e-08 -3.68267e-08 3.66716e-08)
(1.55653e-08 -4.32379e-08 4.46494e-08)
(1.76946e-08 -5.03017e-08 5.39468e-08)
(2.00718e-08 -5.81281e-08 6.47732e-08)
(2.27825e-08 -6.68508e-08 7.73399e-08)
(2.59333e-08 -7.66527e-08 9.18616e-08)
(2.96497e-08 -8.77808e-08 1.08536e-07)
(3.39918e-08 -1.0047e-07 1.27407e-07)
(3.81743e-08 -1.13197e-07 1.4594e-07)
(4.96698e-08 -1.33771e-07 1.74035e-07)
(0 0 0)
(0 0 0)
(0 0 0)
(0 0 0)
(0 0 0)
(0 0 0)
(0 0 0)
(0 0 0)
(0 0 0)
(0 0 0)
(0 0 0)
(0 0 0)
(0 0 0)
(0 0 0)
(0 0 0)
(0 0 0)
(9.45578e-09 1.2057e-08 7.37712e-09)
(0 0 0)
(3.96097e-10 -1.01823e-09 7.57428e-10)
(7.58305e-10 -1.94773e-09 1.4756e-09)
(1.10291e-09 -2.82506e-09 2.2059e-09)
(1.44508e-09 -3.67676e-09 2.99364e-09)
(1.79986e-09 -4.51847e-09 3.88079e-09)
(2.1836e-09 -5.35292e-09 4.90768e-09)
(2.61618e-09 -6.16624e-09 6.11387e-09)
(3.12429e-09 -6.92108e-09 7.53815e-09)
(3.74743e-09 -7.54477e-09 9.21761e-09)
(4.5498e-09 -7.90854e-09 1.11858e-08)
(5.64524e-09 -7.79064e-09 1.34727e-08)
(7.2503e-09 -6.80755e-09 1.61126e-08)
(9.78025e-09 -4.28882e-09 1.91697e-08)
(1.39176e-08 8.42394e-10 2.27482e-08)
(1.98331e-08 9.09407e-09 2.65663e-08)
(2.62755e-08 1.89553e-08 2.77219e-08)
(0 0 0)
(7.80899e-10 -2.00624e-09 1.49478e-09)
(1.4945e-09 -3.83892e-09 2.91153e-09)
(2.17232e-09 -5.57125e-09 4.35107e-09)
(2.84347e-09 -7.25702e-09 5.90219e-09)
(3.53671e-09 -8.92964e-09 7.6471e-09)
(4.28298e-09 -1.05989e-08 9.66469e-09)
(5.11877e-09 -1.22447e-08 1.20322e-08)
(6.09112e-09 -1.38062e-08 1.48249e-08)
(7.26546e-09 -1.51633e-08 1.81129e-08)
(8.73915e-09 -1.61083e-08 2.1954e-08)
(1.06666e-08 -1.63055e-08 2.63817e-08)
(1.3301e-08 -1.52478e-08 3.13894e-08)
(1.70345e-08 -1.22633e-08 3.68988e-08)
(2.22888e-08 -6.80309e-09 4.26542e-08)
(2.85554e-08 1.91394e-10 4.7785e-08)
(3.55382e-08 4.7953e-09 5.17182e-08)
(0 0 0)
(1.14406e-09 -2.93453e-09 2.19374e-09)
(2.18836e-09 -5.61819e-09 4.27163e-09)
(3.17773e-09 -8.16086e-09 6.38036e-09)
(4.15326e-09 -1.0645e-08 8.64887e-09)
(5.15532e-09 -1.31254e-08 1.11965e-08)
(6.22644e-09 -1.56259e-08 1.41378e-08)
(7.41517e-09 -1.81332e-08 1.75849e-08)
(8.78069e-09 -2.05847e-08 2.16473e-08)
(1.03986e-08 -2.28502e-08 2.64264e-08)
(1.23683e-08 -2.47048e-08 3.2002e-08)
(1.48224e-08 -2.58001e-08 3.84089e-08)
(1.79353e-08 -2.5656e-08 4.55951e-08)
(2.19059e-08 -2.37534e-08 5.33509e-08)
(2.68221e-08 -1.99271e-08 6.11732e-08)
(3.20293e-08 -1.53734e-08 6.78843e-08)
(3.71262e-08 -1.3283e-08 7.2423e-08)
(0 0 0)
(1.47641e-09 -3.77301e-09 2.83756e-09)
(2.82191e-09 -7.22837e-09 5.52279e-09)
(4.09217e-09 -1.05121e-08 8.24307e-09)
(5.33783e-09 -1.37363e-08 1.11628e-08)
(6.60809e-09 -1.69808e-08 1.44338e-08)
(7.95388e-09 -2.02911e-08 1.82019e-08)
(9.43134e-09 -2.36738e-08 2.26103e-08)
(1.11053e-08 -2.70873e-08 2.77997e-08)
(1.3052e-08 -3.04264e-08 3.39017e-08)
(1.5358e-08 -3.35013e-08 4.10233e-08)
(1.81142e-08 -3.60139e-08 4.9214e-08)
(2.13943e-08 -3.75478e-08 5.8407e-08)
(2.51985e-08 -3.76214e-08 6.83071e-08)
(2.93304e-08 -3.59308e-08 7.81785e-08)
(3.30904e-08 -3.30686e-08 8.63639e-08)
(3.64653e-08 -3.14357e-08 9.13269e-08)
(0 0 0)
(1.77062e-09 -4.49204e-09 3.4123e-09)
(3.38092e-09 -8.61256e-09 6.63743e-09)
(4.89452e-09 -1.25419e-08 9.89699e-09)
(6.36887e-09 -1.64217e-08 1.33848e-08)
(7.85916e-09 -2.03589e-08 1.72794e-08)
(9.42152e-09 -2.44261e-08 2.17518e-08)
(1.11162e-08 -2.86602e-08 2.69706e-08)
(1.30103e-08 -3.30574e-08 3.31028e-08)
(1.51784e-08 -3.75649e-08 4.03088e-08)
(1.76985e-08 -4.2067e-08 4.87279e-08)
(2.06395e-08 -4.63651e-08 5.8447e-08)
(2.40312e-08 -5.01477e-08 6.94379e-08)
(2.77985e-08 -5.29427e-08 8.14224e-08)
(3.16421e-08 -5.40857e-08 9.35693e-08)
(3.48323e-08 -5.30996e-08 1.0377e-07)
(3.72272e-08 -5.10011e-08 1.09946e-07)
(0 0 0)
(2.02154e-09 -5.06329e-09 3.90746e-09)
(3.8555e-09 -9.71599e-09 7.5949e-09)
(5.57045e-09 -1.41691e-08 1.13107e-08)
(7.22773e-09 -1.85918e-08 1.5271e-08)
(8.88561e-09 -2.31173e-08 1.96738e-08)
(1.06024e-08 -2.78471e-08 2.47082e-08)
(1.24395e-08 -3.28526e-08 3.05599e-08)
(1.44643e-08 -3.8176e-08 3.74145e-08)
(1.67512e-08 -4.38297e-08 4.54543e-08)
(1.93797e-08 -4.97946e-08 5.48495e-08)
(2.24289e-08 -5.60144e-08 6.57373e-08)
(2.59646e-08 -6.23734e-08 7.81755e-08)
(3.00043e-08 -6.86158e-08 9.20237e-08)
(3.44175e-08 -7.41151e-08 1.06592e-07)
(3.85343e-08 -7.75451e-08 1.19521e-07)
(4.18617e-08 -7.68651e-08 1.28446e-07)
(0 0 0)
(2.2263e-09 -5.46118e-09 4.31647e-09)
(4.24045e-09 -1.04889e-08 8.38246e-09)
(6.11285e-09 -1.53191e-08 1.2465e-08)
(7.90586e-09 -2.01436e-08 1.67948e-08)
(9.67787e-09 -2.51188e-08 2.15817e-08)
(1.14863e-08 -3.03719e-08 2.70236e-08)
(1.33907e-08 -3.60059e-08 3.33138e-08)
(1.54561e-08 -4.21051e-08 4.06442e-08)
(1.7755e-08 -4.87412e-08 4.92052e-08)
(2.03704e-08 -5.59833e-08 5.91819e-08)
(2.34006e-08 -6.3913e-08 7.0745e-08)
(2.69721e-08 -7.26441e-08 8.40327e-08)
(3.12587e-08 -8.23207e-08 9.90844e-08)
(3.64523e-08 -9.29587e-08 1.15548e-07)
(4.21659e-08 -1.03417e-07 1.31238e-07)
(4.83662e-08 -1.12729e-07 1.43688e-07)
(0 0 0)
(2.38442e-09 -5.66436e-09 4.63697e-09)
(4.53545e-09 -1.08899e-08 8.9962e-09)
(6.52226e-09 -1.59294e-08 1.33549e-08)
(8.40538e-09 -2.09906e-08 1.79505e-08)
(1.02405e-08 -2.62463e-08 2.29961e-08)
(1.20812e-08 -3.18429e-08 2.86897e-08)
(1.39818e-08 -3.79061e-08 3.52209e-08)
(1.60005e-08 -4.45483e-08 4.27737e-08)
(1.82016e-08 -5.18769e-08 5.15264e-08)
(2.06597e-08 -6.00057e-08 6.16484e-08)
(2.34657e-08 -6.90741e-08 7.32936e-08)
(2.67406e-08 -7.92735e-08 8.65882e-08)
(3.06457e-08 -9.0863e-08 1.01582e-07)
(3.53212e-08 -1.04059e-07 1.18039e-07)
(4.01523e-08 -1.17464e-07 1.33674e-07)
(4.80885e-08 -1.35497e-07 1.51025e-07)
(0 0 0)
(0 0 0)
(0 0 0)
(0 0 0)
(0 0 0)
(0 0 0)
(0 0 0)
(0 0 0)
(0 0 0)
(0 0 0)
(0 0 0)
(0 0 0)
(0 0 0)
(0 0 0)
(0 0 0)
(0 0 0)
(6.24059e-09 6.18694e-09 2.96668e-09)
(0 0 0)
(4.02778e-10 -1.04104e-09 7.04881e-10)
(7.70763e-10 -1.99181e-09 1.37234e-09)
(1.12012e-09 -2.89017e-09 2.04933e-09)
(1.46563e-09 -3.76388e-09 2.77693e-09)
(1.8216e-09 -4.62987e-09 3.59256e-09)
(2.20297e-09 -5.49255e-09 4.53113e-09)
(2.62686e-09 -6.34064e-09 5.62509e-09)
(3.11504e-09 -7.14168e-09 6.90322e-09)
(3.69797e-09 -7.8332e-09 8.38692e-09)
(4.42272e-09 -8.30885e-09 1.00829e-08)
(5.36931e-09 -8.39778e-09 1.19702e-08)
(6.68241e-09 -7.83593e-09 1.39769e-08)
(8.61691e-09 -6.23651e-09 1.59359e-08)
(1.15183e-08 -3.14676e-09 1.7488e-08)
(1.5231e-08 1.24462e-09 1.79696e-08)
(1.79964e-08 5.95903e-09 1.44201e-08)
(0 0 0)
(7.9416e-10 -2.05107e-09 1.39112e-09)
(1.51925e-09 -3.92553e-09 2.70785e-09)
(2.20663e-09 -5.69914e-09 4.04239e-09)
(2.88475e-09 -7.4281e-09 5.47528e-09)
(3.58104e-09 -9.14823e-09 7.07982e-09)
(4.32374e-09 -1.08722e-08 8.9244e-09)
(5.14439e-09 -1.25846e-08 1.10727e-08)
(6.08105e-09 -1.42325e-08 1.35811e-08)
(7.18288e-09 -1.57126e-08 1.64909e-08)
(8.51748e-09 -1.68524e-08 1.98129e-08)
(1.01834e-08 -1.73924e-08 2.34977e-08)
(1.23257e-08 -1.69892e-08 2.73827e-08)
(1.51286e-08 -1.53032e-08 3.10945e-08)
(1.8666e-08 -1.2339e-08 3.38968e-08)
(2.22888e-08 -9.23538e-09 3.47655e-08)
(2.48722e-08 -9.01303e-09 3.20785e-08)
(0 0 0)
(1.16377e-09 -2.99991e-09 2.04172e-09)
(2.22523e-09 -5.74447e-09 3.97307e-09)
(3.22911e-09 -8.34732e-09 5.92824e-09)
(4.21577e-09 -1.08943e-08 8.02425e-09)
(5.22378e-09 -1.34434e-08 1.03676e-08)
(6.29222e-09 -1.60224e-08 1.30578e-08)
(7.4632e-09 -1.86229e-08 1.6188e-08)
(8.78435e-09 -2.11916e-08 1.98414e-08)
(1.03106e-08 -2.3616e-08 2.40805e-08)
(1.21043e-08 -2.5708e-08 2.8925e-08)
(1.42315e-08 -2.71954e-08 3.43098e-08)
(1.67454e-08 -2.7754e-08 4.00117e-08)
(1.96312e-08 -2.71578e-08 4.55271e-08)
(2.26586e-08 -2.56736e-08 4.99233e-08)
(2.51166e-08 -2.45317e-08 5.19887e-08)
(2.58162e-08 -2.58969e-08 5.00069e-08)
(0 0 0)
(1.50237e-09 -3.85684e-09 2.64118e-09)
(2.87064e-09 -7.39025e-09 5.13735e-09)
(4.16052e-09 -1.0751e-08 7.65998e-09)
(5.42196e-09 -1.40556e-08 1.03583e-08)
(6.70232e-09 -1.73874e-08 1.33681e-08)
(8.04877e-09 -2.0796e-08 1.68164e-08)
(9.51049e-09 -2.42929e-08 2.08228e-08)
(1.11399e-08 -2.78441e-08 2.54959e-08)
(1.2991e-08 -3.13588e-08 3.09213e-08)
(1.51116e-08 -3.46756e-08 3.7136e-08)
(1.75237e-08 -3.75547e-08 4.40797e-08)
(2.0179e-08 -3.96971e-08 5.15079e-08)
(2.28699e-08 -4.08429e-08 5.88441e-08)
(2.51054e-08 -4.1032e-08 6.49855e-08)
(2.61687e-08 -4.09458e-08 6.83826e-08)
(2.50971e-08 -4.22533e-08 6.70266e-08)
(0 0 0)
(1.80254e-09 -4.59157e-09 3.17655e-09)
(3.44103e-09 -8.80476e-09 6.17509e-09)
(4.97939e-09 -1.28256e-08 9.19847e-09)
(6.47462e-09 -1.68005e-08 1.24228e-08)
(7.98024e-09 -2.08405e-08 1.60078e-08)
(9.54886e-09 -2.50219e-08 2.0103e-08)
(1.12342e-08 -2.93854e-08 2.48499e-08)
(1.30915e-08 -3.39322e-08 3.03792e-08)
(1.51748e-08 -3.86173e-08 3.67995e-08)
(1.75255e-08 -4.33398e-08 4.4172e-08)
(2.01489e-08 -4.79307e-08 5.24622e-08)
(2.29606e-08 -5.21393e-08 6.14474e-08)
(2.56879e-08 -5.5617e-08 7.05465e-08)
(2.77416e-08 -5.79324e-08 7.85528e-08)
(2.8344e-08 -5.8801e-08 8.35426e-08)
(2.62217e-08 -5.89676e-08 8.30747e-08)
(0 0 0)
(2.05897e-09 -5.17523e-09 3.63808e-09)
(3.92622e-09 -9.93217e-09 7.06708e-09)
(5.67092e-09 -1.44882e-08 1.05145e-08)
(7.35433e-09 -1.90176e-08 1.41767e-08)
(9.03344e-09 -2.3658e-08 1.82314e-08)
(1.07637e-08 -2.8514e-08 2.28439e-08)
(1.2601e-08 -3.36596e-08 2.81712e-08)
(1.46029e-08 -3.91384e-08 3.43595e-08)
(1.68263e-08 -4.4964e-08 4.15354e-08)
(1.93207e-08 -5.11173e-08 4.97843e-08)
(2.21118e-08 -5.75417e-08 5.91073e-08)
(2.51679e-08 -6.4121e-08 6.93357e-08)
(2.83318e-08 -7.06027e-08 7.9955e-08)
(3.1198e-08 -7.63963e-08 8.97667e-08)
(3.30105e-08 -8.03004e-08 9.65385e-08)
(3.20985e-08 -8.02628e-08 9.7488e-08)
(0 0 0)
(2.26865e-09 -5.58172e-09 4.01961e-09)
(4.3207e-09 -1.07217e-08 7.80143e-09)
(6.22749e-09 -1.56629e-08 1.15901e-08)
(8.05166e-09 -2.06024e-08 1.55955e-08)
(9.8509e-09 -2.5701e-08 2.00059e-08)
(1.16806e-08 -3.10886e-08 2.49951e-08)
(1.35963e-08 -3.68694e-08 3.07266e-08)
(1.56554e-08 -4.31264e-08 3.73527e-08)
(1.79174e-08 -4.99268e-08 4.50068e-08)
(2.04425e-08 -5.73283e-08 5.3786e-08)
(2.32888e-08 -6.53901e-08 6.37166e-08)
(2.65066e-08 -7.41785e-08 7.46814e-08)
(3.01251e-08 -8.37398e-08 8.62593e-08)
(3.40822e-08 -9.39119e-08 9.73582e-08)
(3.78472e-08 -1.03438e-07 1.05592e-07)
(4.10555e-08 -1.11054e-07 1.07704e-07)
(0 0 0)
(2.43097e-09 -5.78929e-09 4.3189e-09)
(4.62384e-09 -1.11313e-08 8.37438e-09)
(6.64907e-09 -1.62861e-08 1.24205e-08)
(8.56784e-09 -2.14668e-08 1.66735e-08)
(1.04357e-08 -2.68507e-08 2.13247e-08)
(1.23051e-08 -3.25863e-08 2.65485e-08)
(1.42276e-08 -3.87997e-08 3.25055e-08)
(1.62563e-08 -4.56004e-08 3.93419e-08)
(1.84465e-08 -5.30873e-08 4.71822e-08)
(2.0857e-08 -6.13572e-08 5.61134e-08)
(2.35506e-08 -7.05161e-08 6.61542e-08)
(2.65935e-08 -8.06904e-08 7.71927e-08)
(3.00395e-08 -9.20115e-08 8.88482e-08)
(3.38349e-08 -1.0447e-07 1.00179e-07)
(3.72748e-08 -1.16557e-07 1.08834e-07)
(4.22508e-08 -1.32072e-07 1.11446e-07)
(0 0 0)
(0 0 0)
(0 0 0)
(0 0 0)
(0 0 0)
(0 0 0)
(0 0 0)
(0 0 0)
(0 0 0)
(0 0 0)
(0 0 0)
(0 0 0)
(0 0 0)
(0 0 0)
(0 0 0)
(0 0 0)
(3.8274e-09 3.15752e-09 1.66281e-09)
(0 0 0)
(4.07581e-10 -1.06078e-09 6.27449e-10)
(7.79456e-10 -2.02999e-09 1.22085e-09)
(1.1314e-09 -2.94662e-09 1.82123e-09)
(1.4775e-09 -3.83953e-09 2.46412e-09)
(1.83085e-09 -4.7269e-09 3.18119e-09)
(2.20423e-09 -5.6149e-09 4.00086e-09)
(2.61106e-09 -6.49522e-09 4.9477e-09)
(3.06654e-09 -7.34112e-09 6.04003e-09)
(3.58942e-09 -8.10163e-09 7.28448e-09)
(4.20535e-09 -8.69407e-09 8.6655e-09)
(4.95404e-09 -8.99648e-09 1.01268e-08)
(5.90212e-09 -8.84346e-09 1.15398e-08)
(7.15595e-09 -8.03331e-09 1.26541e-08)
(8.82525e-09 -6.37949e-09 1.30472e-08)
(1.07051e-08 -4.02654e-09 1.22917e-08)
(1.15864e-08 -6.63085e-10 9.33952e-09)
(0 0 0)
(8.03784e-10 -2.08985e-09 1.23836e-09)
(1.53673e-09 -4.00048e-09 2.40905e-09)
(2.22948e-09 -5.80988e-09 3.59268e-09)
(2.90923e-09 -7.5763e-09 4.8589e-09)
(3.60116e-09 -9.33782e-09 6.2698e-09)
(4.32958e-09 -1.11102e-08 7.88118e-09)
(5.11923e-09 -1.28829e-08 9.7415e-09)
(5.99636e-09 -1.46124e-08 1.18872e-08)
(6.98948e-09 -1.62136e-08 1.43322e-08)
(8.12986e-09 -1.75506e-08 1.70477e-08)
(9.45144e-09 -1.84354e-08 1.99268e-08)
(1.0986e-08 -1.86551e-08 2.27264e-08)
(1.27344e-08 -1.80703e-08 2.49854e-08)
(1.45621e-08 -1.68478e-08 2.59814e-08)
(1.59868e-08 -1.57432e-08 2.51547e-08)
(1.65293e-08 -1.61831e-08 2.27562e-08)
(0 0 0)
(1.17826e-09 -3.05639e-09 1.81767e-09)
(2.25169e-09 -5.85357e-09 3.53499e-09)
(3.2641e-09 -8.50832e-09 5.2693e-09)
(4.25422e-09 -1.11093e-08 7.12186e-09)
(5.25768e-09 -1.37174e-08 9.18298e-09)
(6.30844e-09 -1.63639e-08 1.15341e-08)
(7.43981e-09 -1.90461e-08 1.42467e-08)
(8.68433e-09 -2.17202e-08 1.73758e-08)
(1.00712e-08 -2.42925e-08 2.09461e-08)
(1.16192e-08 -2.66113e-08 2.4925e-08)
(1.33207e-08 -2.84731e-08 2.91767e-08)
(1.51095e-08 -2.9671e-08 3.33914e-08)
(1.67975e-08 -3.01389e-08 3.69984e-08)
(1.80011e-08 -3.02215e-08 3.91575e-08)
(1.82644e-08 -3.07298e-08 3.92549e-08)
(1.72084e-08 -3.2625e-08 3.76913e-08)
(0 0 0)
(1.52176e-09 -3.92908e-09 2.35161e-09)
(2.90624e-09 -7.52971e-09 4.57147e-09)
(4.20823e-09 -1.09566e-08 6.80956e-09)
(5.47592e-09 -1.43294e-08 9.1951e-09)
(6.75344e-09 -1.77348e-08 1.18434e-08)
(8.08229e-09 -2.12255e-08 1.48587e-08)
(9.50207e-09 -2.48176e-08 1.83335e-08)
(1.1049e-08 -2.84844e-08 2.23414e-08)
(1.27499e-08 -3.21484e-08 2.69213e-08)
(1.46079e-08 -3.56741e-08 3.20472e-08)
(1.65725e-08 -3.88693e-08 3.75771e-08)
(1.84822e-08 -4.15155e-08 4.31741e-08)
(1.99752e-08 -4.34608e-08 4.82123e-08)
(2.04412e-08 -4.47962e-08 5.17566e-08)
(1.94313e-08 -4.59119e-08 5.30033e-08)
(1.67827e-08 -4.76013e-08 5.22721e-08)
(0 0 0)
(1.82676e-09 -4.67712e-09 2.8287e-09)
(3.48579e-09 -8.96981e-09 5.49578e-09)
(5.04022e-09 -1.30685e-08 8.17873e-09)
(6.54538e-09 -1.71233e-08 1.10301e-08)
(8.05165e-09 -2.12482e-08 1.41859e-08)
(9.60613e-09 -2.55219e-08 1.7769e-08)
(1.12531e-08 -2.99875e-08 2.18897e-08)
(1.30325e-08 -3.46491e-08 2.66381e-08)
(1.49724e-08 -3.94661e-08 3.20685e-08)
(1.70732e-08 -4.43463e-08 3.81685e-08)
(1.92738e-08 -4.91373e-08 4.4806e-08)
(2.13879e-08 -5.36158e-08 5.16454e-08)
(2.3003e-08 -5.74714e-08 5.80375e-08)
(2.34171e-08 -6.02918e-08 6.29595e-08)
(2.20834e-08 -6.16703e-08 6.53658e-08)
(1.84564e-08 -6.17795e-08 6.54306e-08)
(0 0 0)
(2.08784e-09 -5.27117e-09 3.24025e-09)
(3.97992e-09 -1.01172e-08 6.29081e-09)
(5.74485e-09 -1.47602e-08 9.3508e-09)
(7.44251e-09 -1.93783e-08 1.25906e-08)
(9.12716e-09 -2.41117e-08 1.61615e-08)
(1.08493e-08 -2.90664e-08 2.02001e-08)
(1.26566e-08 -3.43162e-08 2.48289e-08)
(1.45929e-08 -3.99026e-08 3.01499e-08)
(1.6693e-08 -4.58339e-08 3.62298e-08)
(1.89709e-08 -5.20815e-08 4.30699e-08)
(2.13961e-08 -5.85708e-08 5.05541e-08)
(2.38479e-08 -6.51531e-08 5.83612e-08)
(2.60438e-08 -7.15206e-08 6.5837e-08)
(2.74676e-08 -7.70075e-08 7.18783e-08)
(2.75536e-08 -8.03958e-08 7.51939e-08)
(2.52089e-08 -7.93942e-08 7.59112e-08)
(0 0 0)
(2.30185e-09 -5.68476e-09 3.58072e-09)
(4.38279e-09 -1.09204e-08 6.94592e-09)
(6.31394e-09 -1.59548e-08 1.03098e-08)
(8.15698e-09 -2.09889e-08 1.38546e-08)
(9.96738e-09 -2.61857e-08 1.77409e-08)
(1.17966e-08 -3.16754e-08 2.21127e-08)
(1.36933e-08 -3.75599e-08 2.70979e-08)
(1.57038e-08 -4.39158e-08 3.28033e-08)
(1.78697e-08 -5.07971e-08 3.92999e-08)
(2.0223e-08 -5.82374e-08 4.65952e-08)
(2.2776e-08 -6.62514e-08 5.45831e-08)
(2.5505e-08 -7.48244e-08 6.29548e-08)
(2.8329e-08 -8.38632e-08 7.10542e-08)
(3.10759e-08 -9.30089e-08 7.76927e-08)
(3.33612e-08 -1.00986e-07 8.12943e-08)
(3.54286e-08 -1.06217e-07 8.17167e-08)
(0 0 0)
(2.46802e-09 -5.89581e-09 3.8481e-09)
(4.69346e-09 -1.13367e-08 7.45765e-09)
(6.74691e-09 -1.65879e-08 1.10512e-08)
(8.68901e-09 -2.18661e-08 1.48168e-08)
(1.05738e-08 -2.73507e-08 1.89179e-08)
(1.24506e-08 -3.31896e-08 2.34993e-08)
(1.4366e-08 -3.95052e-08 2.86871e-08)
(1.63644e-08 -4.63979e-08 3.45835e-08)
(1.84877e-08 -5.39491e-08 4.12536e-08)
(2.07734e-08 -6.22244e-08 4.86988e-08)
(2.32495e-08 -7.12745e-08 5.68093e-08)
(2.5925e-08 -8.11303e-08 6.52816e-08)
(2.8768e-08 -9.17686e-08 7.34814e-08)
(3.16344e-08 -1.02978e-07 8.02746e-08)
(3.39575e-08 -1.13315e-07 8.4024e-08)
(3.73915e-08 -1.25749e-07 8.25711e-08)
(0 0 0)
(0 0 0)
(0 0 0)
(0 0 0)
(0 0 0)
(0 0 0)
(0 0 0)
(0 0 0)
(0 0 0)
(0 0 0)
(0 0 0)
(0 0 0)
(0 0 0)
(0 0 0)
(0 0 0)
(0 0 0)
(2.61702e-09 1.78771e-09 1.51349e-09)
(0 0 0)
(4.10756e-10 -1.07714e-09 5.28483e-10)
(7.8495e-10 -2.06162e-09 1.02772e-09)
(1.13782e-09 -2.99339e-09 1.53169e-09)
(1.48262e-09 -3.90222e-09 2.06943e-09)
(1.83101e-09 -4.80733e-09 2.66627e-09)
(2.19348e-09 -5.71639e-09 3.34394e-09)
(2.57964e-09 -6.6237e-09 4.11966e-09)
(2.9984e-09 -7.50726e-09 5.00327e-09)
(3.45806e-09 -8.32504e-09 5.99167e-09)
(3.9669e-09 -9.01102e-09 7.05889e-09)
(4.53599e-09 -9.473e-09 8.14083e-09)
(5.18618e-09 -9.59375e-09 9.11443e-09)
(5.95836e-09 -9.23382e-09 9.77965e-09)
(6.90539e-09 -8.23537e-09 9.88224e-09)
(7.93643e-09 -6.57297e-09 9.31548e-09)
(8.41853e-09 -3.45098e-09 7.74838e-09)
(0 0 0)
(8.10244e-10 -2.12197e-09 1.0431e-09)
(1.548e-09 -4.06256e-09 2.02811e-09)
(2.24289e-09 -5.90154e-09 3.02174e-09)
(2.92055e-09 -7.69884e-09 4.08098e-09)
(3.60354e-09 -9.49439e-09 5.25549e-09)
(4.31196e-09 -1.13065e-08 6.58808e-09)
(5.06363e-09 -1.31287e-08 8.11287e-09)
(5.87354e-09 -1.49253e-08 9.84995e-09)
(6.75197e-09 -1.66248e-08 1.17947e-08)
(7.70126e-09 -1.81163e-08 1.38997e-08)
(8.71137e-09 -1.92534e-08 1.60461e-08)
(9.75311e-09 -1.98813e-08 1.80081e-08)
(1.07659e-08 -1.99066e-08 1.94272e-08)
(1.16339e-08 -1.94238e-08 1.98743e-08)
(1.21695e-08 -1.88337e-08 1.92453e-08)
(1.25426e-08 -1.8971e-08 1.82649e-08)
(0 0 0)
(1.18819e-09 -3.10312e-09 1.5312e-09)
(2.26917e-09 -5.9438e-09 2.9763e-09)
(3.28542e-09 -8.64127e-09 4.43242e-09)
(4.27359e-09 -1.12864e-08 5.98244e-09)
(5.26589e-09 -1.39423e-08 7.69868e-09)
(6.29077e-09 -1.66432e-08 9.64383e-09)
(7.37257e-09 -1.93904e-08 1.18686e-08)
(8.52958e-09 -2.21477e-08 1.44045e-08)
(9.76869e-09 -2.48346e-08 1.72498e-08)
(1.1075e-08 -2.73224e-08 2.03456e-08)
(1.2394e-08 -2.94438e-08 2.35407e-08)
(1.36032e-08 -3.10362e-08 2.65511e-08)
(1.44817e-08 -3.20494e-08 2.89438e-08)
(1.47313e-08 -3.2717e-08 3.0241e-08)
(1.42507e-08 -3.35245e-08 3.03485e-08)
(1.33598e-08 -3.50895e-08 3.00846e-08)
(0 0 0)
(1.53533e-09 -3.98876e-09 1.98125e-09)
(2.93041e-09 -7.64479e-09 3.84949e-09)
(4.23853e-09 -1.11257e-08 5.72891e-09)
(5.50557e-09 -1.45538e-08 7.72535e-09)
(6.77186e-09 -1.80177e-08 9.93124e-09)
(8.07279e-09 -2.15727e-08 1.24271e-08)
(9.43815e-09 -2.52376e-08 1.52791e-08)
(1.08889e-08 -2.89899e-08 1.85309e-08)
(1.24288e-08 -3.276e-08 2.21876e-08)
(1.40278e-08 -3.64252e-08 2.61886e-08)
(1.55924e-08 -3.98123e-08 3.03697e-08)
(1.69174e-08 -4.27217e-08 3.44204e-08)
(1.76338e-08 -4.49939e-08 3.78712e-08)
(1.72537e-08 -4.66257e-08 4.02042e-08)
(1.56848e-08 -4.78041e-08 4.12239e-08)
(1.34293e-08 -4.91449e-08 4.16966e-08)
(0 0 0)
(1.84409e-09 -4.74764e-09 2.38356e-09)
(3.51701e-09 -9.10561e-09 4.62857e-09)
(5.08043e-09 -1.32676e-08 6.88205e-09)
(6.58739e-09 -1.73864e-08 9.26906e-09)
(8.08451e-09 -2.15775e-08 1.18987e-08)
(9.61277e-09 -2.5921e-08 1.48664e-08)
(1.12069e-08 -3.04602e-08 1.82512e-08)
(1.28921e-08 -3.51989e-08 2.21081e-08)
(1.46751e-08 -4.00955e-08 2.64504e-08)
(1.65265e-08 -4.50553e-08 3.1222e-08)
(1.8349e-08 -4.99205e-08 3.62561e-08)
(1.99234e-08 -5.44536e-08 4.12294e-08)
(2.08443e-08 -5.83088e-08 4.56438e-08)
(2.05385e-08 -6.10043e-08 4.89228e-08)
(1.87867e-08 -6.20791e-08 5.07404e-08)
(1.5679e-08 -6.17002e-08 5.18287e-08)
(0 0 0)
(2.10894e-09 -5.35006e-09 2.7308e-09)
(4.01834e-09 -1.02689e-08 5.29912e-09)
(5.79557e-09 -1.49823e-08 7.86993e-09)
(7.49842e-09 -1.96705e-08 1.0583e-08)
(9.17772e-09 -2.44751e-08 1.35601e-08)
(1.08784e-08 -2.95019e-08 1.69071e-08)
(1.26395e-08 -3.48219e-08 2.07127e-08)
(1.44919e-08 -4.04714e-08 2.50396e-08)
(1.64518e-08 -4.64478e-08 2.99079e-08)
(1.85084e-08 -5.27043e-08 3.52657e-08)
(2.06014e-08 -5.91349e-08 4.09456e-08)
(2.25852e-08 -6.55389e-08 4.66116e-08)
(2.41875e-08 -7.15324e-08 5.17233e-08)
(2.50077e-08 -7.63755e-08 5.56085e-08)
(2.47654e-08 -7.89296e-08 5.78082e-08)
(2.29521e-08 -7.71854e-08 5.91697e-08)
(0 0 0)
(2.32657e-09 -5.76925e-09 3.01831e-09)
(4.42828e-09 -1.10828e-08 5.85211e-09)
(6.37524e-09 -1.61921e-08 8.67902e-09)
(8.22742e-09 -2.13003e-08 1.16487e-08)
(1.00374e-08 -2.6571e-08 1.48905e-08)
(1.18519e-08 -3.21328e-08 1.85165e-08)
(1.37124e-08 -3.80827e-08 2.26195e-08)
(1.56543e-08 -4.44873e-08 2.72651e-08)
(1.77041e-08 -5.13826e-08 3.24752e-08)
(1.98738e-08 -5.87714e-08 3.81981e-08)
(2.21518e-08 -6.66167e-08 4.42627e-08)
(2.44938e-08 -7.48227e-08 5.03158e-08)
(2.68243e-08 -8.31815e-08 5.57596e-08)
(2.90584e-08 -9.12312e-08 5.97716e-08)
(3.10461e-08 -9.78431e-08 6.16817e-08)
(3.35628e-08 -1.01807e-07 6.23923e-08)
(0 0 0)
(2.4961e-09 -5.98296e-09 3.24428e-09)
(4.74555e-09 -1.15042e-08 6.28454e-09)
(6.81827e-09 -1.68324e-08 9.30541e-09)
(8.77365e-09 -2.21864e-08 1.24614e-08)
(1.06634e-08 -2.77456e-08 1.58847e-08)
(1.25332e-08 -3.36557e-08 1.96881e-08)
(1.44238e-08 -4.00324e-08 2.39633e-08)
(1.63711e-08 -4.69636e-08 2.87729e-08)
(1.84051e-08 -5.45088e-08 3.41343e-08)
(2.05478e-08 -6.26971e-08 3.99912e-08)
(2.28087e-08 -7.15211e-08 4.61675e-08)
(2.51793e-08 -8.09248e-08 5.23028e-08)
(2.76262e-08 -9.07716e-08 5.77818e-08)
(3.00609e-08 -1.00762e-07 6.17338e-08)
(3.20953e-08 -1.09666e-07 6.33636e-08)
(3.5681e-08 -1.20558e-07 6.19454e-08)
(0 0 0)
(0 0 0)
(0 0 0)
(0 0 0)
(0 0 0)
(0 0 0)
(0 0 0)
(0 0 0)
(0 0 0)
(0 0 0)
(0 0 0)
(0 0 0)
(0 0 0)
(0 0 0)
(0 0 0)
(0 0 0)
(2.11918e-09 1.28234e-09 1.36078e-09)
(0 0 0)
(4.12644e-10 -1.08991e-09 4.11896e-10)
(7.87982e-10 -2.0863e-09 8.00623e-10)
(1.14074e-09 -3.02988e-09 1.19226e-09)
(1.48332e-09 -3.9511e-09 1.60888e-09)
(1.82602e-09 -4.8699e-09 2.06924e-09)
(2.17729e-09 -5.79507e-09 2.58883e-09)
(2.54357e-09 -6.72267e-09 3.17879e-09)
(2.92896e-09 -7.6338e-09 3.84342e-09)
(3.33452e-09 -8.49162e-09 4.57563e-09)
(3.75845e-09 -9.23841e-09 5.34987e-09)
(4.19885e-09 -9.79366e-09 6.11301e-09)
(4.66292e-09 -1.00522e-08 6.77626e-09)
(5.1864e-09 -9.87524e-09 7.2199e-09)
(5.84926e-09 -9.06948e-09 7.33569e-09)
(6.65761e-09 -7.52165e-09 7.13861e-09)
(7.1702e-09 -4.32508e-09 6.34648e-09)
(0 0 0)
(8.14186e-10 -2.14706e-09 8.13029e-10)
(1.55447e-09 -4.11102e-09 1.58006e-09)
(2.24943e-09 -5.97304e-09 2.3523e-09)
(2.92312e-09 -7.79424e-09 3.17302e-09)
(3.59566e-09 -9.61586e-09 4.07909e-09)
(4.28336e-09 -1.1458e-08 5.10104e-09)
(4.99832e-09 -1.3317e-08 6.26109e-09)
(5.74692e-09 -1.51616e-08 7.56841e-09)
(6.5271e-09 -1.69282e-08 9.01056e-09)
(7.32501e-09 -1.85173e-08 1.05405e-08)
(8.1126e-09 -1.97966e-08 1.20597e-08)
(8.84981e-09 -2.06187e-08 1.34053e-08)
(9.49726e-09 -2.08649e-08 1.43586e-08)
(1.00393e-08 -2.05264e-08 1.47227e-08)
(1.04735e-08 -1.98496e-08 1.45356e-08)
(1.11172e-08 -1.9552e-08 1.42407e-08)
(0 0 0)
(1.19445e-09 -3.13963e-09 1.19358e-09)
(2.27965e-09 -6.01421e-09 2.31901e-09)
(3.29666e-09 -8.74481e-09 3.45084e-09)
(4.28003e-09 -1.14238e-08 4.65201e-09)
(5.25875e-09 -1.4116e-08 5.97628e-09)
(6.25635e-09 -1.68571e-08 7.46848e-09)
(7.28979e-09 -1.96513e-08 9.1619e-09)
(8.36655e-09 -2.24662e-08 1.10719e-08)
(9.4788e-09 -2.52273e-08 1.31845e-08)
(1.05939e-08 -2.78146e-08 1.54396e-08)
(1.16417e-08 -3.00687e-08 1.77106e-08)
(1.25015e-08 -3.18221e-08 1.97921e-08)
(1.30057e-08 -3.29798e-08 2.14212e-08)
(1.30093e-08 -3.36564e-08 2.2386e-08)
(1.2611e-08 -3.42183e-08 2.27396e-08)
(1.22341e-08 -3.52902e-08 2.29343e-08)
(0 0 0)
(1.54416e-09 -4.03534e-09 1.54458e-09)
(2.94551e-09 -7.73445e-09 2.99975e-09)
(4.25571e-09 -1.12571e-08 4.46085e-09)
(5.51826e-09 -1.47272e-08 6.00828e-09)
(6.76991e-09 -1.82348e-08 7.71086e-09)
(8.0406e-09 -2.18362e-08 9.62634e-09)
(9.35205e-09 -2.55513e-08 1.17985e-08)
(1.07138e-08 -2.93589e-08 1.42497e-08)
(1.21148e-08 -3.31906e-08 1.6968e-08)
(1.35092e-08 -3.6924e-08 1.98877e-08)
(1.47935e-08 -4.03822e-08 2.2868e-08)
(1.57778e-08 -4.33477e-08 2.56812e-08)
(1.6171e-08 -4.56107e-08 2.8042e-08)
(1.5665e-08 -4.7077e-08 2.97224e-08)
(1.43525e-08 -4.78938e-08 3.07143e-08)
(1.27814e-08 -4.87481e-08 3.14167e-08)
(0 0 0)
(1.8557e-09 -4.80257e-09 1.85849e-09)
(3.53726e-09 -9.21117e-09 3.60741e-09)
(5.1047e-09 -1.34218e-08 5.35965e-09)
(6.60866e-09 -1.75886e-08 7.21027e-09)
(8.09216e-09 -2.18283e-08 9.24063e-09)
(9.59076e-09 -2.62206e-08 1.15193e-08)
(1.11313e-08 -3.08078e-08 1.40989e-08)
(1.2728e-08 -3.55904e-08 1.70087e-08)
(1.43744e-08 -4.05212e-08 2.02399e-08)
(1.60284e-08 -4.54953e-08 2.37254e-08)
(1.75884e-08 -5.03362e-08 2.73158e-08)
(1.88596e-08 -5.4774e-08 3.0766e-08)
(1.95252e-08 -5.84134e-08 3.37645e-08)