/*--------------------------------*- C++ -*----------------------------------*\
| =========                 |                                                 |
| \\      /  F ield         | OpenFOAM: The Open Source CFD Toolbox           |
|  \\    /   O peration     | Version:  v1912                                 |
|   \\  /    A nd           | Website:  www.openfoam.com                      |
|    \\/     M anipulation  |                                                 |
\*---------------------------------------------------------------------------*/
FoamFile
{
    version     2.0;
    format      ascii;
    class       volVectorField;
    location    "0.96/fluid";
    object      U;
}
// * * * * * * * * * * * * * * * * * * * * * * * * * * * * * * * * * * * * * //

dimensions      [0 1 -1 0 0 0 0];


internalField   nonuniform List<vector> 
14592
(
(0.0877206 0.0173236 0.000572524)
(0.0718421 0.011932 0.00102951)
(0.05582 0.00767809 0.000972456)
(0.0462074 0.00394481 0.000489648)
(0.0398834 0.00189566 -0.000359204)
(0.036188 0.000820716 -0.001471)
(0.0338463 0.000334028 -0.00281566)
(0.0322928 0.000118278 -0.00441691)
(0.0309784 1.79709e-05 -0.00636232)
(0.0298189 -6.77305e-05 -0.00879565)
(0.0283371 -0.000187401 -0.011959)
(0.0270163 -0.000446782 -0.0161381)
(0.0244788 -0.000840583 -0.0219808)
(0.0226195 -0.00172894 -0.0294844)
(0.0160796 -0.00213331 -0.0390957)
(0.00928365 -0.00490954 -0.0365513)
(0.10394 0.0182752 0.000816468)
(0.103206 0.0185238 0.00158084)
(0.0992725 0.0157531 0.00169105)
(0.0943681 0.0113818 0.00112332)
(0.0895697 0.00773597 -0.000138224)
(0.0856493 0.00505198 -0.0019948)
(0.0824239 0.00335462 -0.00438315)
(0.0797179 0.0023875 -0.00731035)
(0.0770941 0.00190595 -0.0108928)
(0.0744214 0.00168467 -0.0153618)
(0.0710473 0.00155564 -0.0211081)
(0.0672798 0.00131035 -0.0286321)
(0.0611603 0.000868772 -0.0388201)
(0.0543399 -0.000374758 -0.0515402)
(0.0389592 -0.00161559 -0.0658648)
(0.0227218 -0.00552763 -0.0594921)
(0.104002 0.0123502 0.000910385)
(0.108464 0.0173711 0.00180746)
(0.111439 0.0173006 0.00201376)
(0.111914 0.014452 0.00148327)
(0.111044 0.0112218 0.000182306)
(0.109435 0.00839306 -0.00181331)
(0.107401 0.00637063 -0.00444838)
(0.105105 0.00513749 -0.00773162)
(0.102398 0.00455558 -0.0117808)
(0.0992576 0.0044249 -0.0168462)
(0.0950548 0.00455791 -0.0233494)
(0.0899742 0.00471648 -0.0318763)
(0.0818072 0.00476545 -0.043382)
(0.0720084 0.00396013 -0.0579858)
(0.051396 0.00240184 -0.0744545)
(0.0287028 -0.00261014 -0.0686612)
(0.102156 0.00795103 0.000951006)
(0.107014 0.013568 0.00191803)
(0.112248 0.0150895 0.00217881)
(0.115547 0.0140348 0.00168553)
(0.117322 0.0120215 0.000412772)
(0.117744 0.00994203 -0.00156444)
(0.11713 0.00834714 -0.00419384)
(0.115723 0.00741004 -0.00748862)
(0.113511 0.00713653 -0.0115665)
(0.110563 0.00743215 -0.0166843)
(0.106287 0.00818684 -0.0232665)
(0.100828 0.00922073 -0.0319467)
(0.0918194 0.0104103 -0.0437073)
(0.0805955 0.0109441 -0.0588988)
(0.0572762 0.0100763 -0.0763298)
(0.0308849 0.00353418 -0.0718436)
(0.101103 0.00513354 0.000979684)
(0.105055 0.00995708 0.00199572)
(0.110273 0.01208 0.00230081)
(0.114482 0.0122559 0.00184579)
(0.117553 0.0114104 0.000617044)
(0.119277 0.0102777 -0.00130031)
(0.11981 0.0093857 -0.00384759)
(0.119329 0.00899914 -0.00703571)
(0.117847 0.00923195 -0.0109756)
(0.11547 0.0100987 -0.0159222)
(0.111626 0.011585 -0.0222856)
(0.106468 0.0136015 -0.0307287)
(0.0974791 0.0160714 -0.0422226)
(0.0859023 0.0181049 -0.0573661)
(0.0611058 0.0181721 -0.0750182)
(0.0320302 0.00926333 -0.0719187)
(0.10062 0.00338392 0.00100625)
(0.103727 0.00703571 0.00206605)
(0.108377 0.0091102 0.0024179)
(0.112705 0.00993217 0.00201056)
(0.116331 0.00995998 0.000839592)
(0.118832 0.00969997 -0.000997341)
(0.120203 0.00957297 -0.00343073)
(0.120526 0.00985726 -0.00646371)
(0.119787 0.0107312 -0.010194)
(0.118098 0.0123153 -0.0148671)
(0.114892 0.0147182 -0.0208671)
(0.110334 0.0180346 -0.0288749)
(0.101769 0.0223717 -0.0398187)
(0.0903883 0.0270287 -0.05458)
(0.0646963 0.0299737 -0.0720322)
(0.033446 0.0192841 -0.070635)
(0.100437 0.00216299 0.00103745)
(0.103047 0.00468855 0.00214416)
(0.107242 0.00643514 0.00255026)
(0.111506 0.00751101 0.0022036)
(0.115391 0.00811762 0.00110674)
(0.118385 0.00855571 -0.000629912)
(0.120387 0.00911603 -0.00292203)
(0.121417 0.0100412 -0.00575735)
(0.121451 0.0115281 -0.00920793)
(0.12063 0.0137697 -0.0134893)
(0.118448 0.0169629 -0.0189239)
(0.115166 0.0213758 -0.026154)
(0.108134 0.0272586 -0.0359483)
(0.0986229 0.0341776 -0.0494244)
(0.0735171 0.0397494 -0.0651735)
(0.0412321 0.0270351 -0.0657172)
(0.100378 0.00116756 0.00107376)
(0.102787 0.00262971 0.00223222)
(0.106794 0.00390642 0.00269894)
(0.111064 0.00500837 0.00242259)
(0.115141 0.0059913 0.00141176)
(0.11849 0.00697901 -0.00021218)
(0.120968 0.00813159 -0.00235002)
(0.122572 0.00963244 -0.00497062)
(0.123289 0.0116732 -0.00811692)
(0.123284 0.0145134 -0.0119679)
(0.122128 0.0184547 -0.0167793)
(0.120157 0.0240957 -0.0231398)
(0.11481 0.0320842 -0.0316563)
(0.107597 0.0438 -0.0437084)
(0.0839361 0.0579238 -0.0577986)
(0.0541387 0.0623715 -0.0619695)
(0.0876887 0.0173266 0.000347276)
(0.071657 0.011946 0.000613931)
(0.0553947 0.00769098 0.000509028)
(0.0455663 0.00395124 7.45054e-05)
(0.0390412 0.00189937 -0.000663635)
(0.0351596 0.000824489 -0.00163934)
(0.0326134 0.000340662 -0.00283873)
(0.0308077 0.000128748 -0.00428272)
(0.0291647 3.3344e-05 -0.00604486)
(0.0275574 -4.58737e-05 -0.00821242)
(0.0255106 -0.000151107 -0.0109679)
(0.0233789 -0.000378892 -0.0143555)
(0.0200298 -0.000701489 -0.0187743)
(0.0167146 -0.00144911 -0.0231618)
(0.0102287 -0.00181901 -0.0271826)
(0.00261424 -0.00361191 -0.0179243)
(0.103897 0.0182908 0.000496539)
(0.102945 0.0185648 0.0009421)
(0.0986535 0.0158065 0.000901817)
(0.0933615 0.0114335 0.000330709)
(0.0881592 0.00778563 -0.000808554)
(0.0838362 0.00510588 -0.00246233)
(0.0801764 0.00342403 -0.00460203)
(0.0769583 0.00248269 -0.00724643)
(0.0736876 0.00203668 -0.0105)
(0.0701559 0.00185812 -0.0145213)
(0.0656736 0.00178547 -0.0196043)
(0.0603834 0.0016071 -0.0259183)
(0.0525715 0.00125675 -0.0339585)
(0.043267 0.0001133 -0.0421714)
(0.0274525 -0.00120292 -0.0484959)
(0.00993224 -0.00456593 -0.031141)
(0.103962 0.012376 0.000562299)
(0.108199 0.0174337 0.00109132)
(0.110797 0.0173929 0.00110407)
(0.110848 0.0145594 0.000540082)
(0.109518 0.0113406 -0.00065266)
(0.107435 0.00853002 -0.00243974)
(0.104885 0.00654223 -0.00480359)
(0.101985 0.00536352 -0.00776915)
(0.0985238 0.00485812 -0.0114455)
(0.0943944 0.0048224 -0.0160108)
(0.088908 0.00507547 -0.0217798)
(0.0820782 0.00536162 -0.0289833)
(0.0719101 0.00555105 -0.038131)
(0.0592293 0.00480968 -0.0476818)
(0.0379095 0.00307657 -0.0550205)
(0.0137751 -0.00214135 -0.0354168)
(0.102119 0.00797799 0.000597662)
(0.106754 0.0136359 0.00117752)
(0.111616 0.0151992 0.00122865)
(0.114495 0.0141782 0.000691226)
(0.115812 0.0121972 -0.000479928)
(0.115757 0.0101592 -0.00225074)
(0.114621 0.00862692 -0.00460773)
(0.112601 0.00778124 -0.0075806)
(0.109626 0.00763551 -0.011279)
(0.105678 0.00809603 -0.0158879)
(0.100093 0.00906554 -0.0217213)
(0.092846 0.0103436 -0.0290451)
(0.0817453 0.0118217 -0.0383671)
(0.0675011 0.0125189 -0.048248)
(0.0433194 0.0115143 -0.0559709)
(0.0152945 0.00403833 -0.0361754)
(0.101068 0.00516248 0.000628459)
(0.104801 0.0100303 0.00125186)
(0.109653 0.0122042 0.00134251)
(0.113455 0.0124304 0.000841114)
(0.116086 0.011638 -0.00028722)
(0.117357 0.0105704 -0.00200016)
(0.117394 0.00976933 -0.00427925)
(0.116334 0.00951085 -0.00715154)
(0.114126 0.0099225 -0.0107201)
(0.110797 0.0110259 -0.0151686)
(0.105693 0.0128291 -0.0207964)
(0.0988047 0.0152235 -0.0278944)
(0.0877402 0.0181656 -0.0369475)
(0.0731396 0.0205199 -0.0466865)
(0.0473279 0.0205635 -0.0543915)
(0.016342 0.0100043 -0.0351911)
(0.100586 0.00341544 0.000658529)
(0.103477 0.0071152 0.00132536)
(0.107769 0.00924779 0.0014618)
(0.111705 0.0101333 0.00100784)
(0.114914 0.0102319 -6.28221e-05)
(0.116994 0.010059 -0.00169806)
(0.117906 0.01005 -0.00386963)
(0.117698 0.0104986 -0.00659673)
(0.116292 0.0116042 -0.00996993)
(0.113726 0.0135046 -0.0141657)
(0.109344 0.0163479 -0.0194589)
(0.103164 0.0202267 -0.0261612)
(0.0925928 0.0253258 -0.0347146)
(0.0782751 0.0306425 -0.0440825)
(0.0514277 0.0340065 -0.0515682)
(0.0179596 0.0209666 -0.0335125)
(0.100404 0.00219865 0.000692257)
(0.102802 0.00477662 0.0014066)
(0.106647 0.00658685 0.00159693)
(0.110534 0.00773561 0.00120296)
(0.114029 0.00842622 0.00020531)
(0.116638 0.00896824 -0.00133399)
(0.118229 0.00966765 -0.00337313)
(0.118792 0.0107856 -0.00591697)
(0.118244 0.0125456 -0.00903372)
(0.116665 0.0151678 -0.0128779)
(0.11346 0.0189023 -0.0176751)
(0.108782 0.0240337 -0.0237288)
(0.0999638 0.0309263 -0.0313724)
(0.0878794 0.0388111 -0.0398603)
(0.0615042 0.0452289 -0.0464656)
(0.0268188 0.0294924 -0.0303238)
(0.100346 0.00120728 0.000729243)
(0.102548 0.00272572 0.00149502)
(0.106215 0.00407007 0.00174488)
(0.110126 0.0052508 0.00141962)
(0.11384 0.00632601 0.000505555)
(0.116839 0.00742883 -0.000926456)
(0.118956 0.00873476 -0.00282049)
(0.120162 0.0104482 -0.00516461)
(0.120388 0.0127926 -0.0080014)
(0.119754 0.0160663 -0.011458)
(0.117743 0.0206402 -0.0157062)
(0.114627 0.0271702 -0.021032)
(0.10775 0.0364723 -0.0276551)
(0.0984249 0.0496749 -0.0351678)
(0.0734814 0.0655699 -0.0409306)
(0.041353 0.0664755 -0.0278511)
(0.0876646 0.0173295 0.000193754)
(0.0715154 0.0119577 0.000329964)
(0.0550609 0.00770227 0.00019636)
(0.0450431 0.00395774 -0.000190973)
(0.0383277 0.00190276 -0.000823771)
(0.0342576 0.000827171 -0.00165967)
(0.0315008 0.000345159 -0.0026954)
(0.0294351 0.000135446 -0.00394801)
(0.0274595 4.22345e-05 -0.00547782)
(0.0253964 -3.50207e-05 -0.00733537)
(0.0227814 -0.000135627 -0.00966335)
(0.0198288 -0.000349886 -0.0124173)
(0.0156875 -0.000646627 -0.0158947)
(0.0111676 -0.00132491 -0.0190211)
(0.00518492 -0.001798 -0.0214409)
(-0.00103725 -0.00315066 -0.0140031)
(0.103863 0.0183062 0.000278037)
(0.102745 0.0186031 0.000505819)
(0.0981668 0.015858 0.000369208)
(0.0925418 0.0114869 -0.000182473)
(0.086972 0.00783861 -0.00119078)
(0.0822601 0.0051627 -0.00262839)
(0.0781698 0.00349458 -0.00448713)
(0.074442 0.00257603 -0.00678911)
(0.0705384 0.00216187 -0.00962339)
(0.0661753 0.00202182 -0.0130948)
(0.0606511 0.00199914 -0.0174251)
(0.0539508 0.00187882 -0.0226354)
(0.0446956 0.00159712 -0.0290424)
(0.0335268 0.000522997 -0.0350301)
(0.0182402 -0.000930956 -0.0386105)
(0.0027316 -0.00409048 -0.0239762)
(0.103931 0.0124027 0.000322669)
(0.107996 0.0174957 0.000599212)
(0.110295 0.0174849 0.000485596)
(0.109984 0.0146696 -7.89851e-05)
(0.10824 0.0114643 -0.00114777)
(0.105705 0.00867152 -0.00271003)
(0.102648 0.00671582 -0.00476808)
(0.0991524 0.00558689 -0.00735253)
(0.0949568 0.00515227 -0.0105584)
(0.089875 0.00520523 -0.0145092)
(0.0831878 0.00557119 -0.0194407)
(0.07475 0.0059775 -0.02542)
(0.0628738 0.00629551 -0.0327522)
(0.0480111 0.00560901 -0.0397741)
(0.0270543 0.00370098 -0.0439358)
(0.00509123 -0.00179592 -0.0271203)
(0.102091 0.00800726 0.000352297)
(0.106557 0.0137058 0.000664752)
(0.111126 0.015311 0.000576764)
(0.113648 0.0143252 3.01546e-05)
(0.114554 0.0123772 -0.00102278)
(0.114045 0.0103789 -0.00257223)
(0.112396 0.00890488 -0.00462405)
(0.109773 0.00814316 -0.00721408)
(0.106054 0.00811515 -0.0104384)
(0.10114 0.00872755 -0.0144282)
(0.0943256 0.0098949 -0.0194174)
(0.0854266 0.0113951 -0.0255038)
(0.0725193 0.0131319 -0.0329825)
(0.0559486 0.0139718 -0.0402601)
(0.0319704 0.0128562 -0.0446555)
(0.00606251 0.00460071 -0.0275982)
(0.101042 0.00519391 0.000382167)
(0.10461 0.0101064 0.000731878)
(0.109176 0.0123307 0.00067751)
(0.112634 0.0126069 0.000163128)
(0.114871 0.0118663 -0.000850576)
(0.115709 0.010861 -0.00234728)
(0.115258 0.0101448 -0.00432861)
(0.113623 0.0100047 -0.0068285)
(0.110705 0.0105817 -0.00993731)
(0.106453 0.0119032 -0.0137863)
(0.100157 0.013998 -0.0185969)
(0.0916573 0.0167361 -0.0244915)
(0.0787767 0.0201053 -0.0317451)
(0.0618143 0.0227499 -0.0389083)
(0.0360371 0.0228284 -0.0432894)
(0.00697491 0.0110241 -0.0267542)
(0.100561 0.00344871 0.000412418)
(0.103291 0.00719634 0.000802587)
(0.107304 0.00938555 0.000790331)
(0.110909 0.0103324 0.000320235)
(0.113745 0.0104992 -0.000639789)
(0.11542 0.010409 -0.00206503)
(0.115881 0.0105104 -0.00394909)
(0.115144 0.0111117 -0.0063191)
(0.11308 0.0124319 -0.00925442)
(0.109659 0.0146238 -0.0128813)
(0.104158 0.017872 -0.0174006)
(0.0964575 0.0222602 -0.0229574)
(0.0841129 0.0280459 -0.0297932)
(0.0674816 0.0339552 -0.036664)
(0.0404973 0.0377728 -0.0409145)
(0.00867237 0.0230968 -0.0253904)
(0.10038 0.00223466 0.000445689)
(0.102621 0.00486384 0.000880921)
(0.106195 0.0067352 0.000919024)
(0.109767 0.00795334 0.000504751)
(0.112911 0.00872422 -0.000387951)
(0.11515 0.00936466 -0.00172544)
(0.116334 0.0101946 -0.00349052)
(0.116426 0.0114926 -0.00569806)
(0.115298 0.0135075 -0.00840869)
(0.112971 0.0164831 -0.011733)
(0.108779 0.02072 -0.0158337)
(0.102772 0.0265117 -0.020862)
(0.0923457 0.034333 -0.0269845)
(0.0782058 0.0431212 -0.03323)
(0.0515018 0.0504561 -0.0369918)
(0.0180713 0.0327826 -0.023135)
(0.100322 0.00124572 0.000481011)
(0.102372 0.00281786 0.000964568)
(0.105779 0.0042263 0.00105811)
(0.10939 0.00548137 0.000707367)
(0.112777 0.00664418 -0.000108632)
(0.115441 0.00785565 -0.0013484)
(0.117198 0.00930577 -0.00298303)
(0.117997 0.0112189 -0.00501301)
(0.117729 0.0138481 -0.00747739)
(0.116468 0.0175269 -0.0104665)
(0.113626 0.0226923 -0.0141003)
(0.109411 0.0300465 -0.0185285)
(0.101149 0.0405755 -0.023838)
(0.0901397 0.055187 -0.0293685)
(0.0647515 0.0729936 -0.0326687)
(0.0337203 0.0721092 -0.0212987)
(0.0876463 0.0173321 9.39422e-05)
(0.0714076 0.0119675 0.000146767)
(0.0548018 0.00771209 5.12041e-06)
(0.0446283 0.00396379 -0.000328037)
(0.0377518 0.0019061 -0.000852552)
(0.0335219 0.000830435 -0.00154053)
(0.0305939 0.000350947 -0.00239255)
(0.0283318 0.000145029 -0.00341821)
(0.0261326 5.72239e-05 -0.00465802)
(0.023798 -1.15846e-05 -0.00612537)
(0.0209165 -9.59269e-05 -0.0079026)
(0.0176414 -0.00027365 -0.00987128)
(0.0133904 -0.00050126 -0.0121686)
(0.00874103 -0.00102292 -0.013821)
(0.00351907 -0.00139655 -0.014391)
(-0.00139281 -0.0024244 -0.00844803)
(0.103837 0.0183203 0.000135683)
(0.102592 0.0186372 0.000224428)
(0.0977874 0.0159044 4.15529e-05)
(0.0918905 0.0115363 -0.000460002)
(0.0860105 0.00788873 -0.00131836)
(0.0809668 0.00521728 -0.00251866)
(0.0765155 0.00356233 -0.00406112)
(0.0723795 0.00266587 -0.00596218)
(0.0680082 0.00228416 -0.00828482)
(0.0630861 0.00218744 -0.0110784)
(0.0569638 0.00222793 -0.0144718)
(0.0495756 0.00219966 -0.0183623)
(0.0398992 0.00205938 -0.0228435)
(0.0284377 0.00121096 -0.0264192)
(0.0143974 -6.61981e-05 -0.0272439)
(0.00119724 -0.00302249 -0.0152906)
(0.103907 0.0124278 0.000164836)
(0.107841 0.0175524 0.000279062)
(0.109904 0.0175692 0.000100246)
(0.109298 0.0147717 -0.000425126)
(0.107206 0.0115801 -0.0013442)
(0.104285 0.00880425 -0.00265556)
(0.100801 0.0068777 -0.00436888)
(0.096821 0.00579396 -0.00650928)
(0.0920696 0.0054251 -0.00914573)
(0.0863278 0.00556446 -0.0123434)
(0.0789192 0.00604851 -0.016239)
(0.069658 0.00660279 -0.0207594)
(0.0572132 0.00712002 -0.0259657)
(0.0419467 0.00665848 -0.0302679)
(0.0223154 0.00490943 -0.0312818)
(0.00308041 -0.000687007 -0.017343)
(0.10207 0.00803548 0.000188651)
(0.106408 0.0137716 0.000327404)
(0.110746 0.0154151 0.000164721)
(0.112978 0.0144623 -0.000349428)
(0.113538 0.012545 -0.00125754)
(0.112643 0.0105827 -0.00255946)
(0.110562 0.00916011 -0.00426818)
(0.107448 0.00847208 -0.0064138)
(0.103163 0.00854796 -0.00906669)
(0.0975805 0.00929619 -0.0122991)
(0.0900262 0.0106447 -0.0162453)
(0.0802838 0.0123606 -0.0208547)
(0.0667671 0.0143704 -0.026171)
(0.0497539 0.0154485 -0.0306368)
(0.0270682 0.0144534 -0.0317165)
(0.00396479 0.00571267 -0.0174657)
(0.101023 0.00522433 0.000215402)
(0.104466 0.0101784 0.00038472)
(0.108809 0.0124488 0.000249342)
(0.111987 0.0127708 -0.000237767)
(0.113894 0.0120774 -0.00111191)
(0.114363 0.0111273 -0.00236833)
(0.113501 0.010485 -0.00401677)
(0.111401 0.0104469 -0.00608611)
(0.107946 0.0111654 -0.00864213)
(0.103059 0.0126723 -0.0117581)
(0.0960579 0.015014 -0.015558)
(0.0867545 0.0180433 -0.0200116)
(0.0732768 0.0217769 -0.0251443)
(0.0558809 0.0247064 -0.0295044)
(0.0313137 0.0249196 -0.0305394)
(0.0049741 0.0123088 -0.0166765)
(0.100543 0.00348049 0.000243229)
(0.103152 0.00727253 0.000448004)
(0.106948 0.00951326 0.000349087)
(0.110285 0.0105157 -9.93145e-05)
(0.112809 0.0107435 -0.000926266)
(0.11414 0.0107257 -0.00212078)
(0.114221 0.0109222 -0.00368593)
(0.113054 0.0116526 -0.00564535)
(0.110498 0.0131513 -0.00805599)
(0.106497 0.01558 -0.0109881)
(0.100346 0.0191479 -0.0145502)
(0.0919113 0.0239213 -0.0187327)
(0.0790059 0.0302005 -0.0235384)
(0.0619799 0.0365048 -0.0276759)
(0.0361015 0.0405748 -0.0286412)
(0.00682823 0.0248218 -0.0155846)
(0.100363 0.00226824 0.000273569)
(0.102486 0.00494433 0.000518422)
(0.105852 0.00687091 0.000463735)
(0.109169 0.00815125 6.43718e-05)
(0.112021 0.00899308 -0.000703846)
(0.113942 0.00971915 -0.00182296)
(0.114782 0.0106606 -0.00328711)
(0.114493 0.0121094 -0.00511069)
(0.112931 0.0143324 -0.00733642)
(0.1101 0.017587 -0.010025)
(0.105345 0.0222044 -0.0132594)
(0.0987159 0.0284648 -0.0170452)
(0.0878028 0.0368979 -0.0213457)
(0.0733637 0.0462027 -0.0250959)
(0.047609 0.0539389 -0.0259024)
(0.0164395 0.0350044 -0.0141882)
(0.100305 0.00128061 0.000305182)
(0.102242 0.00290121 0.000592819)
(0.105449 0.00436699 0.000586846)
(0.108819 0.00568799 0.00024312)
(0.111934 0.00692772 -0.000458519)
(0.114311 0.00823335 -0.00149385)
(0.115762 0.0098059 -0.00284743)
(0.11623 0.0118844 -0.00452261)
(0.115591 0.0147424 -0.00654582)
(0.113911 0.0187317 -0.00896507)
(0.110603 0.0243254 -0.011835)
(0.105896 0.0322236 -0.0151725)
(0.0972431 0.0434778 -0.0189026)
(0.0860668 0.0587427 -0.0222204)
(0.0614978 0.0771695 -0.0229461)
(0.0324504 0.0748076 -0.0131458)
(0.087632 0.0173343 3.42322e-05)
(0.0713249 0.0119752 3.96883e-05)
(0.0546015 0.0077198 -9.15098e-05)
(0.0443021 0.00396825 -0.000362468)
(0.0372917 0.00190815 -0.000776075)
(0.0329256 0.00083201 -0.00131468)
(0.0298508 0.000353911 -0.00198065)
(0.0274215 0.000150041 -0.00277972)
(0.0250353 6.48598e-05 -0.0037398)
(0.0224779 -1.38841e-07 -0.00486001)
(0.0193845 -7.69101e-05 -0.00619203)
(0.0158675 -0.000235357 -0.00762202)
(0.0115526 -0.000427517 -0.0092235)
(0.00689393 -0.00085768 -0.0102756)
(0.00230936 -0.00117892 -0.0103939)
(-0.00156182 -0.002075 -0.00612957)
(0.103817 0.0183323 5.02797e-05)
(0.102474 0.0186655 6.01481e-05)
(0.0974932 0.0159431 -0.000127099)
(0.0913783 0.0115781 -0.000550663)
(0.0852436 0.00793138 -0.0012414)
(0.0799216 0.00526368 -0.00219184)
(0.0751653 0.00361937 -0.00340578)
(0.0706859 0.0027407 -0.00489563)
(0.0659283 0.00238513 -0.0067061)
(0.0605555 0.00232316 -0.0088595)
(0.0539703 0.00241384 -0.0114339)
(0.0460814 0.00245755 -0.0143095)
(0.0361554 0.00242539 -0.0174989)
(0.0246466 0.0017404 -0.0198528)
(0.0117272 0.000585998 -0.01991)
(0.000424704 -0.00234408 -0.0110919)
(0.103889 0.0124494 6.84333e-05)
(0.107722 0.0176008 8.93457e-05)
(0.109601 0.017641 -0.000103904)
(0.108759 0.0148593 -0.000554301)
(0.106381 0.0116798 -0.00129959)
(0.103138 0.00891865 -0.00234257)
(0.0992945 0.00701663 -0.00369482)
(0.0949075 0.00597061 -0.00537639)
(0.0896958 0.00565671 -0.00743731)
(0.0834199 0.00586848 -0.00991255)
(0.0754488 0.00645157 -0.0128844)
(0.0655833 0.00713 -0.016252)
(0.0527842 0.00781453 -0.0199927)
(0.037419 0.00753641 -0.0228667)
(0.0190081 0.00591129 -0.0229675)
(0.00204382 0.000143811 -0.0125993)
(0.102054 0.0080604 8.65871e-05)
(0.106294 0.0138288 0.000123553)
(0.110453 0.0155051 -6.02212e-05)
(0.112453 0.0145808 -0.000504089)
(0.112731 0.0126902 -0.00124232)
(0.111512 0.0107586 -0.00227884)
(0.109068 0.00937926 -0.00362818)
(0.10554 0.00875271 -0.00531474)
(0.100787 0.00891509 -0.00739007)
(0.0946596 0.00977617 -0.00989541)
(0.0865255 0.0112747 -0.0129113)
(0.0761594 0.0131686 -0.0163543)
(0.0622528 0.0154026 -0.0201858)
(0.0451131 0.016676 -0.0231845)
(0.0236295 0.0157833 -0.0233104)
(0.0028772 0.00661665 -0.0126852)
(0.101008 0.00525135 0.000108702)
(0.104357 0.0102416 0.000169388)
(0.108527 0.0125516 6.63403e-06)
(0.111482 0.0129128 -0.000415839)
(0.113119 0.0122598 -0.0011267)
(0.11328 0.0113565 -0.00212651)
(0.112072 0.0107764 -0.00342752)
(0.109578 0.0108233 -0.00505351)
(0.105676 0.0116595 -0.0070527)
(0.100272 0.0133198 -0.00946775)
(0.0927165 0.0158646 -0.012372)
(0.082817 0.019132 -0.0156989)
(0.0689528 0.0231606 -0.0193972)
(0.0514299 0.026323 -0.0223242)
(0.0279975 0.0266546 -0.0224273)
(0.00395859 0.0134113 -0.012103)
(0.100528 0.00350861 0.000132168)
(0.103046 0.0073392 0.000221806)
(0.106676 0.00962407 8.86055e-05)
(0.1098 0.0106739 -0.000302297)
(0.112069 0.0109536 -0.000974611)
(0.113112 0.010997 -0.00192413)
(0.112871 0.0112733 -0.00315816)
(0.111342 0.0121112 -0.00469655)
(0.108375 0.0137578 -0.00658084)
(0.103901 0.0163811 -0.00885203)
(0.0972385 0.0202091 -0.0115725)
(0.0882591 0.0252923 -0.014693)
(0.0749903 0.0319612 -0.0181491)
(0.0578572 0.0385774 -0.0209191)
(0.0330242 0.0428463 -0.0209987)
(0.00592509 0.026301 -0.0112943)
(0.100349 0.00229758 0.00015766)
(0.102385 0.00501413 0.000280412)
(0.10559 0.00698783 0.000183434)
(0.108705 0.0083211 -0.000167414)
(0.111318 0.00922313 -0.000791822)
(0.112976 0.0100214 -0.00168044)
(0.113524 0.0110565 -0.00283371)
(0.112911 0.0126308 -0.00426468)
(0.110984 0.0150263 -0.00600445)
(0.10774 0.01851 -0.00808811)
(0.102539 0.0234366 -0.0105609)
(0.0954463 0.0300737 -0.0133887)
(0.0842164 0.0389885 -0.0164866)
(0.06972 0.048702 -0.0190027)
(0.0448798 0.0567524 -0.0190441)
(0.015666 0.0369346 -0.0103365)
(0.100292 0.00131062 0.000183933)
(0.102145 0.00297262 0.000341972)
(0.105198 0.00448715 0.00028493)
(0.108378 0.00586411 -2.04834e-05)
(0.111273 0.00716887 -0.000590713)
(0.113409 0.00855377 -0.00141177)
(0.1146 0.0102291 -0.00247665)
(0.114786 0.0124453 -0.00379017)
(0.113835 0.0154928 -0.00537137)
(0.111809 0.0197368 -0.00724704)
(0.108131 0.0256779 -0.00944323)
(0.103059 0.0340111 -0.0119383)
(0.094158 0.0458332 -0.0146288)
(0.0830028 0.0616135 -0.0168567)
(0.0592303 0.0805249 -0.0169232)
(0.031909 0.0772466 -0.0096048)
(0.0876218 0.0173359 4.37455e-06)
(0.0712656 0.0119811 -1.02842e-05)
(0.0544568 0.00772566 -0.000115157)
(0.0440646 0.0039718 -0.000314935)
(0.0369552 0.00191001 -0.000612606)
(0.0324893 0.000833803 -0.000997057)
(0.029311 0.00035731 -0.00146999)
(0.0267701 0.000156044 -0.00203316)
(0.0242701 7.46806e-05 -0.00270214)
(0.0215912 1.56392e-05 -0.00346713)
(0.018409 -5.0513e-05 -0.00435232)
(0.0148159 -0.000187487 -0.00526139)
(0.0105615 -0.000343013 -0.00621904)
(0.00602396 -0.000700878 -0.00674398)
(0.00181493 -0.000960592 -0.00654286)
(-0.00150722 -0.00179885 -0.00369871)
(0.103802 0.0183417 7.2969e-06)
(0.102389 0.0186874 -1.64588e-05)
(0.0972799 0.0159732 -0.000174056)
(0.0910038 0.0116107 -0.000494418)
(0.0846795 0.00796522 -0.000999447)
(0.0791507 0.00530089 -0.00168497)
(0.0741721 0.00366542 -0.0025542)
(0.0694511 0.00280161 -0.00361385)
(0.0644371 0.0024683 -0.00489033)
(0.0587875 0.00243689 -0.0063867)
(0.0519539 0.00257264 -0.00813897)
(0.0438428 0.00268205 -0.0100351)
(0.0339035 0.00274891 -0.0120393)
(0.0225736 0.00220504 -0.0133579)
(0.0104027 0.00117156 -0.0129423)
(0.000236012 -0.00179004 -0.00692981)
(0.103876 0.0124666 1.78858e-05)
(0.107637 0.0176387 -2.6063e-06)
(0.109382 0.0176971 -0.000169376)
(0.108365 0.014928 -0.000513413)
(0.105775 0.0117585 -0.0010615)
(0.102291 0.00900915 -0.00181666)
(0.0981831 0.00712652 -0.00278789)
(0.0935055 0.0061103 -0.00398778)
(0.0879813 0.00584018 -0.00544681)
(0.0813668 0.00611052 -0.00717702)
(0.073077 0.0067751 -0.00921623)
(0.0629218 0.00755872 -0.0114629)
(0.0500524 0.00838809 -0.0138499)
(0.0348612 0.00827471 -0.0155071)
(0.0173064 0.00677566 -0.0150581)
(0.00174278 0.000842982 -0.00792615)
(0.102042 0.00808031 3.06095e-05)
(0.106212 0.0138741 1.99775e-05)
(0.110241 0.0155762 -0.000141706)
(0.112069 0.0146743 -0.000482331)
(0.112137 0.0128047 -0.00102624)
(0.110678 0.0108972 -0.00177743)
(0.107966 0.00955123 -0.00274719)
(0.104142 0.00897193 -0.00395149)
(0.0990688 0.00920078 -0.00542216)
(0.0925955 0.0101488 -0.00717604)
(0.0841304 0.0117633 -0.0092497)
(0.0734629 0.0137967 -0.0115532)
(0.059467 0.0162087 -0.0140066)
(0.0424939 0.017646 -0.0157468)
(0.0218657 0.0168539 -0.0152949)
(0.00257053 0.00735845 -0.0079624)
(0.100997 0.00527303 4.70467e-05)
(0.104278 0.0102918 5.32806e-05)
(0.108323 0.0126329 -9.35897e-05)
(0.111114 0.0130249 -0.000418814)
(0.11255 0.0124034 -0.000942735)
(0.112482 0.0115362 -0.00166709)
(0.111019 0.0110035 -0.00260178)
(0.108244 0.0111148 -0.00376247)
(0.104039 0.0120393 -0.00517885)
(0.098308 0.0138141 -0.00686913)
(0.0904388 0.0165092 -0.00886527)
(0.0802575 0.0199522 -0.0110893)
(0.0663082 0.0241967 -0.0134532)
(0.048954 0.0275344 -0.0151463)
(0.0263324 0.0279589 -0.0146817)
(0.0037143 0.0142586 -0.00755712)
(0.100518 0.0035311 6.47291e-05)
(0.102971 0.0073922 9.23253e-05)
(0.10648 0.0097117 -3.28801e-05)
(0.109448 0.0107985 -0.000334828)
(0.111527 0.0111183 -0.000830298)
(0.112356 0.0112086 -0.00151775)
(0.111879 0.0115451 -0.00240365)
(0.110091 0.0124633 -0.00350109)
(0.106846 0.0142187 -0.00483521)
(0.102075 0.0169828 -0.00642347)
(0.0951299 0.0209953 -0.00829088)
(0.0859028 0.026293 -0.0103723)
(0.0725631 0.033223 -0.0125732)
(0.055608 0.0400412 -0.0141651)
(0.031524 0.0444185 -0.0137027)
(0.00576028 0.0273246 -0.00701254)
(0.100339 0.00232085 8.39098e-05)
(0.102312 0.00506928 0.000136151)
(0.105403 0.00707985 3.77508e-05)
(0.10837 0.00845422 -0.000234608)
(0.110805 0.00940259 -0.000694843)
(0.112265 0.0102559 -0.0013378)
(0.112599 0.0113612 -0.00216527)
(0.111755 0.0130283 -0.00318581)
(0.109583 0.0155489 -0.00441767)
(0.106082 0.0191952 -0.00587523)
(0.100637 0.024335 -0.00757338)
(0.0933424 0.0312223 -0.00945976)
(0.0820617 0.0404421 -0.011432)
(0.0677559 0.0503973 -0.0128767)
(0.0435799 0.0585933 -0.012443)
(0.0155715 0.0381842 -0.00643632)
(0.100283 0.00133419 0.000103549)
(0.102075 0.00302862 0.000182033)
(0.10502 0.0045811 0.000113234)
(0.10806 0.00600135 -0.000125571)
(0.110791 0.00735603 -0.000546019)
(0.112747 0.00880101 -0.00113974)
(0.113747 0.010553 -0.00190334)
(0.113731 0.0128704 -0.0028399)
(0.112569 0.0160536 -0.00395977)
(0.11033 0.0204751 -0.00527271)
(0.106454 0.0266494 -0.0067825)
(0.101234 0.0352604 -0.00844816)
(0.0923131 0.0474214 -0.0101625)
(0.0813711 0.063478 -0.0114433)
(0.058186 0.0825791 -0.0110953)
(0.0319222 0.0787242 -0.00602655)
(0.0876149 0.017337 -5.15656e-06)
(0.0712265 0.011985 -2.20883e-05)
(0.0543611 0.00772943 -8.89885e-05)
(0.0439066 0.00397399 -0.000212093)
(0.0367301 0.00191095 -0.000391989)
(0.0321958 0.000834514 -0.000623388)
(0.028946 0.000358813 -0.00090724)
(0.0263284 0.000158863 -0.00124427)
(0.0237508 7.93673e-05 -0.00164292)
(0.0209907 2.31849e-05 -0.00209524)
(0.01775 -3.77464e-05 -0.00261329)
(0.0141115 -0.000163695 -0.00313744)
(0.00990161 -0.000300334 -0.0036769)
(0.00545833 -0.000621323 -0.00395797)
(0.00150266 -0.000852516 -0.00379933)
(-0.00148073 -0.00166499 -0.00215769)
(0.103793 0.018348 -7.23328e-06)
(0.102333 0.0187023 -3.36704e-05)
(0.0971388 0.0159935 -0.000137849)
(0.0907549 0.011633 -0.000337836)
(0.0843025 0.00798826 -0.000646236)
(0.0786327 0.0053262 -0.00106141)
(0.073502 0.00369663 -0.00158559)
(0.068616 0.00284276 -0.00222262)
(0.0634286 0.00252433 -0.00298727)
(0.0575951 0.00251329 -0.0038783)
(0.0506008 0.0026789 -0.00491284)
(0.0423559 0.00283122 -0.00601859)
(0.0324262 0.00296169 -0.00716358)
(0.021249 0.00250399 -0.00788505)
(0.00958374 0.00153771 -0.00755388)
(0.000134332 -0.00146533 -0.0040387)
(0.103867 0.0124784 -1.61098e-06)
(0.10758 0.0176647 -2.81184e-05)
(0.109237 0.0177355 -0.000140012)
(0.108102 0.0149752 -0.000355846)
(0.105369 0.0118126 -0.000691806)
(0.101722 0.0090715 -0.0011502)
(0.0974331 0.00720217 -0.00173695)
(0.0925569 0.00620637 -0.00245953)
(0.0868209 0.00596624 -0.00333532)
(0.0799802 0.00627671 -0.00436854)
(0.0714826 0.00699699 -0.00557713)
(0.0611494 0.00785217 -0.00689412)
(0.0482549 0.00877912 -0.00826746)
(0.0332196 0.00877348 -0.00918454)
(0.0162507 0.00735116 -0.00881764)
(0.00157329 0.0012859 -0.00462563)
(0.102034 0.00809416 5.84437e-06)
(0.106158 0.0139055 -1.52228e-05)
(0.110101 0.0156252 -0.000124794)
(0.111815 0.0147389 -0.000339046)
(0.11174 0.0128839 -0.000672884)
(0.110117 0.0109929 -0.00112913)
(0.107222 0.00966986 -0.00171524)
(0.103196 0.00912288 -0.00244079)
(0.0979056 0.0093971 -0.0033241)
(0.0912001 0.0104044 -0.0043724)
(0.0825181 0.0120978 -0.00560307)
(0.0716638 0.0142258 -0.006956)
(0.0576293 0.0167573 -0.00837142)
(0.0408075 0.0183033 -0.00933907)
(0.0207673 0.017574 -0.00896785)
(0.00239741 0.00784676 -0.00465019)
(0.10099 0.00528818 1.59622e-05)
(0.104227 0.0103268 4.94752e-06)
(0.108189 0.0126892 -9.58381e-05)
(0.11087 0.0131025 -0.000300808)
(0.11217 0.0125027 -0.000622481)
(0.111946 0.0116604 -0.00106237)
(0.110308 0.0111602 -0.00162716)
(0.107342 0.0113155 -0.00232634)
(0.10293 0.0123002 -0.00317704)
(0.0969794 0.0141529 -0.00418744)
(0.0889042 0.0169498 -0.00537248)
(0.0785479 0.0205115 -0.00667926)
(0.064561 0.0249006 -0.00804411)
(0.0473573 0.0283553 -0.00898685)
(0.025294 0.0288392 -0.00861282)
(0.00357857 0.0148296 -0.00441879)
(0.100511 0.00354682 2.69345e-05)
(0.102921 0.00742906 2.90092e-05)
(0.106352 0.00977245 -5.85169e-05)
(0.109215 0.0108847 -0.000249245)
(0.111166 0.0112321 -0.00055347)
(0.111849 0.0113546 -0.000970777)
(0.11121 0.0117324 -0.00150587)
(0.109246 0.0127052 -0.0021667)
(0.105811 0.0145347 -0.00296775)
(0.100841 0.0173942 -0.00391685)
(0.0937092 0.0215308 -0.0050251)
(0.0843285 0.0269723 -0.00624724)
(0.0709595 0.034075 -0.0075169)
(0.0541585 0.0410267 -0.00840168)
(0.0305903 0.0454722 -0.00803505)
(0.00567473 0.0280176 -0.00409947)
(0.100333 0.00233705 3.88321e-05)
(0.102265 0.00510753 5.60757e-05)
(0.10528 0.00714352 -1.49849e-05)