/*--------------------------------*- C++ -*----------------------------------*\
| =========                 |                                                 |
| \\      /  F ield         | OpenFOAM: The Open Source CFD Toolbox           |
|  \\    /   O peration     | Version:  v1912                                 |
|   \\  /    A nd           | Website:  www.openfoam.com                      |
|    \\/     M anipulation  |                                                 |
\*---------------------------------------------------------------------------*/
FoamFile
{
    version     2.0;
    format      ascii;
    class       volVectorField;
    location    "0.23/solid";
    object      D_0;
}
// * * * * * * * * * * * * * * * * * * * * * * * * * * * * * * * * * * * * * //

dimensions      [0 1 0 0 0 0 0];


internalField   nonuniform List<vector> 
256
(
(8.79155e-09 2.13214e-08 8.90213e-09)
(-2.78866e-10 1.30452e-08 9.00939e-09)
(9.82044e-10 1.29403e-08 9.16973e-09)
(-8.10933e-09 2.08228e-08 9.49583e-09)
(1.31051e-08 1.87093e-08 1.23295e-08)
(1.38419e-09 1.45452e-08 1.251e-08)
(9.42477e-10 1.4148e-08 1.29354e-08)
(-1.08133e-08 1.72907e-08 1.37443e-08)
(1.38922e-08 1.68492e-08 1.12037e-08)
(2.36085e-09 1.51972e-08 1.13116e-08)
(1.91838e-09 1.45057e-08 1.19256e-08)
(-9.6624e-09 1.45896e-08 1.31769e-08)
(1.45967e-08 1.723e-08 8.95691e-09)
(3.23034e-09 1.63745e-08 9.16801e-09)
(3.34467e-09 1.54139e-08 9.91664e-09)
(-8.08155e-09 1.42101e-08 1.13314e-08)
(1.56617e-08 1.91093e-08 6.36811e-09)
(4.29083e-09 1.84955e-08 6.87337e-09)
(4.91811e-09 1.72851e-08 7.72527e-09)
(-6.51577e-09 1.53838e-08 9.05258e-09)
(1.64449e-08 2.23369e-08 3.52085e-09)
(5.30135e-09 2.18022e-08 4.40469e-09)
(6.8766e-09 2.03493e-08 5.34341e-09)
(-4.34159e-09 1.79311e-08 6.46312e-09)
(1.61219e-08 2.63132e-08 4.94651e-10)
(6.01071e-09 2.53377e-08 1.65801e-09)
(9.47346e-09 2.36497e-08 2.67865e-09)
(-7.86239e-10 2.12347e-08 3.66965e-09)
(1.54558e-08 1.56613e-08 -1.40983e-09)
(6.79174e-09 1.38115e-08 -2.91936e-10)
(1.2296e-08 1.19992e-08 8.02967e-10)
(3.30604e-09 1.01126e-08 1.95987e-09)
(9.2119e-09 1.252e-08 -1.45714e-09)
(-6.62764e-11 4.85531e-09 -1.55828e-09)
(4.40986e-10 4.71198e-09 -1.38736e-09)
(-8.72876e-09 1.1966e-08 -9.48993e-10)
(1.40182e-08 1.44386e-08 -8.65592e-10)
(1.64068e-09 1.041e-08 -1.03087e-09)
(-9.87761e-11 9.94785e-09 -6.16818e-10)
(-1.23417e-08 1.29263e-08 3.45041e-10)
(1.47562e-08 1.5695e-08 -1.6543e-09)
(2.52279e-09 1.40328e-08 -1.79241e-09)
(6.27564e-10 1.329e-08 -1.20841e-09)
(-1.14818e-08 1.33714e-08 5.4179e-11)
(1.53224e-08 1.74723e-08 -3.72006e-09)
(3.27073e-09 1.65864e-08 -3.75537e-09)
(1.90479e-09 1.55923e-08 -3.04736e-09)
(-1.00265e-08 1.44212e-08 -1.63992e-09)
(1.63769e-08 1.98262e-08 -6.3671e-09)
(4.24568e-09 1.91658e-08 -6.26379e-09)
(3.34733e-09 1.79351e-08 -5.45786e-09)
(-8.65889e-09 1.60922e-08 -3.99077e-09)
(1.73338e-08 2.27917e-08 -9.17741e-09)
(5.23254e-09 2.22128e-08 -8.9524e-09)
(5.15265e-09 2.07504e-08 -8.06401e-09)
(-6.82884e-09 1.83972e-08 -6.55228e-09)
(1.73262e-08 2.55368e-08 -1.15184e-08)
(5.97179e-09 2.453e-08 -1.12404e-08)
(7.5735e-09 2.28508e-08 -1.02855e-08)
(-3.73568e-09 2.0507e-08 -8.69145e-09)
(1.69139e-08 1.3552e-08 -1.20676e-08)
(6.79327e-09 1.16336e-08 -1.18065e-08)
(1.02409e-08 9.87348e-09 -1.0823e-08)
(-3.31363e-11 8.14174e-09 -9.14558e-09)
(9.2568e-09 1.0255e-08 -9.80604e-10)
(1.17399e-10 2.99063e-09 -1.23621e-09)
(7.27037e-11 2.85921e-09 -1.11008e-09)
(-8.9437e-09 9.79899e-09 -6.19663e-10)
(1.46329e-08 1.1995e-08 -1.45307e-09)
(1.90345e-09 8.07096e-09 -1.81275e-09)
(-8.87201e-10 7.62922e-09 -1.49844e-09)
(-1.3444e-08 1.06166e-08 -5.57162e-10)
(1.55105e-08 1.3958e-08 -2.1983e-09)
(2.73606e-09 1.2312e-08 -2.51976e-09)
(-4.07574e-10 1.15949e-08 -2.06786e-09)
(-1.30098e-08 1.17731e-08 -8.99561e-10)
(1.59753e-08 1.63495e-08 -3.75758e-09)
(3.38011e-09 1.54922e-08 -3.99358e-09)
(7.24325e-10 1.45281e-08 -3.43563e-09)
(-1.16961e-08 1.34358e-08 -2.13948e-09)
(1.69373e-08 1.88377e-08 -5.81697e-09)
(4.26993e-09 1.82045e-08 -5.96583e-09)
(2.04585e-09 1.70073e-08 -5.32097e-09)
(-1.04367e-08 1.52391e-08 -3.93435e-09)
(1.79224e-08 2.1316e-08 -7.79766e-09)
(5.2323e-09 2.07441e-08 -7.89077e-09)
(3.70655e-09 1.93201e-08 -7.17367e-09)
(-8.80022e-09 1.70598e-08 -5.69401e-09)
(1.81146e-08 2.2982e-08 -8.87689e-09)
(6.01503e-09 2.20074e-08 -8.96141e-09)
(5.94569e-09 2.03752e-08 -8.19265e-09)
(-6.0454e-09 1.81031e-08 -6.60891e-09)
(1.80406e-08 1.03646e-08 -8.11997e-09)
(6.8861e-09 8.68937e-09 -8.24488e-09)
(8.44843e-09 6.98544e-09 -7.46483e-09)
(-2.80146e-09 5.11504e-09 -5.79856e-09)
(8.94013e-09 9.65314e-09 -5.74572e-10)
(1.41589e-10 2.64886e-09 -7.25694e-10)
(-4.9344e-11 2.53486e-09 -6.35621e-10)
(-8.75724e-09 9.29211e-09 -3.17697e-10)
(1.44056e-08 1.08487e-08 -1.33998e-09)
(1.89933e-09 7.01861e-09 -1.52197e-09)
(-1.21326e-09 6.61988e-09 -1.29342e-09)
(-1.35789e-08 9.63949e-09 -6.90703e-10)
(1.53838e-08 1.25001e-08 -2.14128e-09)
(2.68534e-09 1.08943e-08 -2.27198e-09)
(-9.19818e-10 1.02299e-08 -1.93826e-09)
(-1.34678e-08 1.05046e-08 -1.1841e-09)
(1.57893e-08 1.47411e-08 -3.30815e-09)
(3.245e-09 1.39347e-08 -3.36519e-09)
(8.52198e-11 1.30253e-08 -2.94653e-09)
(-1.22994e-08 1.20151e-08 -2.09438e-09)
(1.6622e-08 1.69859e-08 -4.71252e-09)
(4.04105e-09 1.64038e-08 -4.69451e-09)
(1.31827e-09 1.52609e-08 -4.204e-09)
(-1.10892e-08 1.35667e-08 -3.27867e-09)
(1.75261e-08 1.89957e-08 -5.87142e-09)
(4.94504e-09 1.84584e-08 -5.79992e-09)
(2.88452e-09 1.70884e-08 -5.24997e-09)
(-9.52223e-09 1.4911e-08 -4.25332e-09)
(1.78005e-08 2.00815e-08 -6.1114e-09)
(5.73632e-09 1.91881e-08 -6.02765e-09)
(4.98818e-09 1.76089e-08 -5.43756e-09)
(-6.97513e-09 1.53656e-08 -4.36136e-09)
(1.79726e-08 7.49196e-09 -4.90058e-09)
(6.6323e-09 6.14359e-09 -4.87212e-09)
(7.35863e-09 4.4878e-09 -4.2765e-09)
(-4.08416e-09 2.38596e-09 -3.11409e-09)
(8.59329e-09 9.32156e-09 -4.02795e-10)
(8.96009e-11 2.50392e-09 -4.55132e-10)
(-5.27397e-11 2.40447e-09 -3.92004e-10)
(-8.49809e-09 9.03212e-09 -2.23654e-10)
(1.38905e-08 1.01543e-08 -1.14448e-09)
(1.74703e-09 6.4249e-09 -1.15905e-09)
(-1.26949e-09 6.06587e-09 -9.97509e-10)
(-1.33112e-08 9.08716e-09 -6.87633e-10)
(1.48569e-08 1.13586e-08 -1.88927e-09)
(2.46852e-09 9.81061e-09 -1.83941e-09)
(-1.08148e-09 9.19761e-09 -1.60123e-09)
(-1.33511e-08 9.53361e-09 -1.2085e-09)
(1.52072e-08 1.31801e-08 -2.74628e-09)
(2.95626e-09 1.24307e-08 -2.63129e-09)
(-1.69921e-10 1.15756e-08 -2.32919e-09)
(-1.22873e-08 1.06294e-08 -1.87216e-09)
(1.59286e-08 1.50387e-08 -3.6248e-09)
(3.66935e-09 1.45116e-08 -3.44621e-09)
(9.96535e-10 1.34223e-08 -3.08868e-09)
(-1.11122e-08 1.17883e-08 -2.58015e-09)
(1.67409e-08 1.66907e-08 -4.19625e-09)
(4.50978e-09 1.61979e-08 -3.96881e-09)
(2.49708e-09 1.4879e-08 -3.5652e-09)
(-9.58093e-09 1.27637e-08 -3.00735e-09)
(1.70422e-08 1.75258e-08 -4.02072e-09)
(5.28773e-09 1.67164e-08 -3.77865e-09)
(4.50463e-09 1.51842e-08 -3.34449e-09)
(-7.1685e-09 1.2953e-08 -2.72929e-09)
(1.7356e-08 5.10606e-09 -2.81588e-09)
(6.18478e-09 4.02115e-09 -2.62057e-09)
(6.78117e-09 2.40572e-09 -2.18335e-09)
(-4.51133e-09 1.21759e-10 -1.49807e-09)
(8.3385e-09 9.07413e-09 -2.92973e-10)
(3.45926e-11 2.38614e-09 -3.0195e-10)
(-2.98051e-11 2.29731e-09 -2.60143e-10)
(-8.29825e-09 8.83411e-09 -1.75244e-10)
(1.34425e-08 9.63398e-09 -8.77363e-10)
(1.59158e-09 5.99498e-09 -8.3002e-10)
(-1.24386e-09 5.66574e-09 -7.22584e-10)
(-1.30218e-08 8.66989e-09 -5.75505e-10)
(1.43449e-08 1.04766e-08 -1.45582e-09)
(2.24772e-09 8.98791e-09 -1.34797e-09)
(-1.10648e-09 8.41494e-09 -1.18859e-09)
(-1.31093e-08 8.781e-09 -1.00271e-09)
(1.46377e-08 1.19069e-08 -2.03963e-09)
(2.67625e-09 1.1209e-08 -1.87928e-09)
(-2.54995e-10 1.03975e-08 -1.67564e-09)
(-1.21033e-08 9.4934e-09 -1.45272e-09)
(1.52783e-08 1.34195e-08 -2.54919e-09)
(3.32646e-09 1.29391e-08 -2.3412e-09)
(8.61813e-10 1.18929e-08 -2.0985e-09)
(-1.09576e-08 1.03032e-08 -1.84177e-09)
(1.60236e-08 1.48228e-08 -2.7823e-09)
(4.1164e-09 1.43687e-08 -2.53789e-09)
(2.31259e-09 1.30905e-08 -2.26242e-09)
(-9.45786e-09 1.10209e-08 -1.97167e-09)
(1.63327e-08 1.55415e-08 -2.48431e-09)
(4.87622e-09 1.47951e-08 -2.22831e-09)
(4.25181e-09 1.32998e-08 -1.9312e-09)
(-7.13839e-09 1.10811e-08 -1.6001e-09)
(1.67263e-08 3.2466e-09 -1.5065e-09)
(5.76469e-09 2.33622e-09 -1.28244e-09)
(6.46328e-09 7.52456e-10 -9.83657e-10)
(-4.63429e-09 -1.64205e-09 -6.04117e-10)
(8.18421e-09 8.90672e-09 -1.83626e-10)
(-1.08448e-12 2.29893e-09 -1.81418e-10)
(-1.16926e-11 2.21695e-09 -1.57577e-10)
(-8.17568e-09 8.69746e-09 -1.16925e-10)
(1.31555e-08 9.2651e-09 -5.51692e-10)
(1.48785e-09 5.69039e-09 -5.0773e-10)
(-1.21532e-09 5.38047e-09 -4.46306e-10)
(-1.2828e-08 8.36673e-09 -3.80075e-10)
(1.39988e-08 9.86161e-09 -9.09875e-10)
(2.09593e-09 8.41847e-09 -8.24875e-10)
(-1.1014e-09 7.87199e-09 -7.33402e-10)
(-1.29254e-08 8.25064e-09 -6.51035e-10)
(1.42449e-08 1.1023e-08 -1.24628e-09)
(2.48263e-09 1.0363e-08 -1.12737e-09)
(-2.84548e-10 9.58077e-09 -1.00995e-09)
(-1.19468e-08 8.70124e-09 -9.09082e-10)
(1.48335e-08 1.22996e-08 -1.50583e-09)
(3.09141e-09 1.18519e-08 -1.35776e-09)
(7.99216e-10 1.08351e-08 -1.21716e-09)
(-1.08219e-08 9.27429e-09 -1.09705e-09)
(1.5538e-08 1.35458e-08 -1.57949e-09)
(3.84814e-09 1.3118e-08 -1.40977e-09)
(2.21519e-09 1.18677e-08 -1.24958e-09)
(-9.34831e-09 9.82926e-09 -1.1088e-09)
(1.585e-08 1.41993e-08 -1.33768e-09)
(4.59368e-09 1.34916e-08 -1.16123e-09)
(4.10913e-09 1.20214e-08 -9.88107e-10)
(-7.09042e-09 9.81586e-09 -8.2267e-10)
(1.62894e-08 1.9716e-09 -7.07981e-10)
(5.4737e-09 1.16192e-09 -5.4971e-10)
(6.27809e-09 -4.00082e-10 -3.75772e-10)
(-4.68283e-09 -2.85123e-09 -1.82291e-10)
(8.11308e-09 8.82278e-09 -6.29584e-11)
(-1.74434e-11 2.25284e-09 -6.13695e-11)
(-3.05325e-12 2.1742e-09 -5.36261e-11)
(-8.11906e-09 8.62823e-09 -4.13686e-11)
(1.30213e-08 9.07267e-09 -1.88242e-10)
(1.4392e-09 5.53038e-09 -1.71891e-10)
(-1.20104e-09 5.2299e-09 -1.51914e-10)
(-1.27369e-08 8.20613e-09 -1.32596e-10)
(1.3833e-08 9.54423e-09 -3.08706e-10)
(2.02304e-09 8.12512e-09 -2.78092e-10)
(-1.09688e-09 7.5917e-09 -2.48284e-10)
(-1.28356e-08 7.97479e-09 -2.24578e-10)
(1.40539e-08 1.05725e-08 -4.18156e-10)
(2.38841e-09 9.93232e-09 -3.75885e-10)
(-2.95872e-10 9.16465e-09 -3.37532e-10)
(-1.18678e-08 8.29633e-09 -3.08245e-10)
(1.4617e-08 1.17332e-08 -4.97157e-10)
(2.97667e-09 1.13019e-08 -4.45105e-10)
(7.71463e-10 1.02998e-08 -3.99072e-10)
(-1.07535e-08 8.75344e-09 -3.63524e-10)
(1.53024e-08 1.2903e-08 -5.11208e-10)
(3.7171e-09 1.24881e-08 -4.5204e-10)
(2.16947e-09 1.12518e-08 -3.9949e-10)
(-9.29452e-09 9.2295e-09 -3.56947e-10)
(1.56159e-08 1.35243e-08 -4.20666e-10)
(4.45514e-09 1.28343e-08 -3.59363e-10)
(4.04059e-09 1.13769e-08 -3.02509e-10)
(-7.06787e-09 9.17979e-09 -2.51602e-10)
(1.60769e-08 1.32452e-09 -2.03891e-10)
(5.33055e-09 5.60055e-10 -1.48484e-10)
(6.18814e-09 -9.90883e-10 -9.13897e-11)
(-4.70802e-09 -3.46481e-09 -3.13021e-11)
)
;

boundaryField
{
    interface
    {
        type            solidTraction;
        traction        uniform (0 0 0);
        pressure        uniform 0;
        secondOrder     false;
        setEffectiveTraction false;
        relaxationFactor 1;
        value           nonuniform List<vector> 
192
(
(6.73819e-08 2.67955e-08 9.02274e-09)
(6.89368e-08 1.99845e-08 1.26014e-08)
(7.07607e-08 1.72222e-08 1.14713e-08)
(7.2941e-08 1.76725e-08 9.1612e-09)
(7.60762e-08 1.95715e-08 6.51995e-09)
(8.01149e-08 2.24523e-08 3.66757e-09)
(8.44516e-08 2.60663e-08 7.0003e-10)
(8.69683e-08 1.57497e-08 -1.1122e-09)
(6.18814e-08 1.83275e-08 -1.34119e-09)
(6.47631e-08 1.58247e-08 -4.84153e-10)
(6.62797e-08 1.60211e-08 -1.25027e-09)
(6.82166e-08 1.78776e-08 -3.37596e-09)
(7.13967e-08 2.03292e-08 -6.04871e-09)
(7.58565e-08 2.30293e-08 -8.80851e-09)
(8.11399e-08 2.54322e-08 -1.10206e-08)
(8.52481e-08 1.37365e-08 -1.14218e-08)
(5.61894e-08 1.62274e-08 -1.04884e-09)
(6.03741e-08 1.35585e-08 -1.35665e-09)
(6.20366e-08 1.42937e-08 -2.04185e-09)
(6.37938e-08 1.67064e-08 -3.64129e-09)
(6.67963e-08 1.93247e-08 -5.75611e-09)
(7.12009e-08 2.16107e-08 -7.74998e-09)
(7.66519e-08 2.3012e-08 -8.75864e-09)
(8.17283e-08 1.06215e-08 -7.85558e-09)
(5.23849e-08 1.54896e-08 -7.4064e-10)
(5.68447e-08 1.24597e-08 -1.52588e-09)
(5.86423e-08 1.28461e-08 -2.30496e-09)
(6.032e-08 1.50508e-08 -3.50044e-09)
(6.31484e-08 1.74203e-08 -4.96497e-09)
(6.74051e-08 1.92908e-08 -6.16704e-09)
(7.28638e-08 2.01937e-08 -6.37972e-09)
(7.84434e-08 7.77644e-09 -5.07192e-09)
(5.00284e-08 1.49425e-08 -5.53343e-10)
(5.43806e-08 1.17203e-08 -1.38546e-09)
(5.61833e-08 1.16878e-08 -2.1492e-09)
(5.78017e-08 1.34482e-08 -3.03438e-09)
(6.04977e-08 1.54223e-08 -3.96092e-09)
(6.46217e-08 1.69695e-08 -4.57206e-09)
(7.00447e-08 1.76801e-08 -4.38783e-09)
(7.58676e-08 5.39393e-09 -3.12759e-09)
(4.85844e-08 1.45194e-08 -3.95333e-10)
(5.27735e-08 1.11356e-08 -1.06124e-09)
(5.45184e-08 1.07755e-08 -1.67049e-09)
(5.60776e-08 1.21404e-08 -2.28033e-09)
(5.86815e-08 1.37662e-08 -2.82307e-09)
(6.27124e-08 1.50868e-08 -3.08314e-09)
(6.80961e-08 1.57177e-08 -2.78244e-09)
(7.40416e-08 3.53203e-09 -1.77325e-09)
(4.77508e-08 1.42416e-08 -2.40035e-10)
(5.18238e-08 1.07188e-08 -6.57077e-10)
(5.35113e-08 1.01341e-08 -1.03793e-09)
(5.50225e-08 1.12319e-08 -1.3923e-09)
(5.75679e-08 1.26232e-08 -1.67124e-09)
(6.1542e-08 1.38004e-08 -1.75984e-09)
(6.68977e-08 1.43877e-08 -1.51694e-09)
(7.29076e-08 2.2555e-09 -8.70371e-10)
(4.73686e-08 1.41064e-08 -8.07571e-11)
(5.13859e-08 1.05027e-08 -2.21814e-10)
(5.30423e-08 9.80251e-09 -3.50175e-10)
(5.45274e-08 1.07687e-08 -4.65929e-10)
(5.70441e-08 1.20456e-08 -5.51317e-10)
(6.09916e-08 1.31532e-08 -5.70123e-10)
(6.63334e-08 1.37185e-08 -4.79228e-10)
(7.23725e-08 1.60814e-09 -2.57013e-10)
(8.75913e-09 2.66295e-08 7.17964e-08)
(1.30158e-08 1.92848e-08 7.24893e-08)
(1.3787e-08 1.60062e-08 7.23946e-08)
(1.4549e-08 1.60211e-08 7.16187e-08)
(1.57137e-08 1.77504e-08 7.1098e-08)
(1.65941e-08 2.08686e-08 7.15416e-08)
(1.63116e-08 2.50806e-08 7.3348e-08)
(1.55881e-08 1.53781e-08 7.50631e-08)
(-2.1116e-10 1.84252e-08 6.84701e-08)
(1.53692e-09 1.51208e-08 6.98581e-08)
(2.54261e-09 1.43617e-08 6.93931e-08)
(3.47157e-09 1.5265e-08 6.86421e-08)
(4.6314e-09 1.73046e-08 6.85351e-08)
(5.75827e-09 2.04984e-08 6.9679e-08)
(6.55799e-09 2.41635e-08 7.24265e-08)
(7.3463e-09 1.35246e-08 7.51203e-08)
(1.10451e-09 1.84666e-08 6.81502e-08)
(1.25235e-09 1.4837e-08 6.97603e-08)
(2.3861e-09 1.3751e-08 6.94668e-08)
(3.8869e-09 1.43639e-08 6.88452e-08)
(5.46428e-09 1.61418e-08 6.884e-08)
(7.39256e-09 1.90876e-08 7.00706e-08)
(9.9777e-09 2.25145e-08 7.29043e-08)
(1.28604e-08 1.17282e-08 7.57381e-08)
(-7.89573e-09 2.66328e-08 7.11171e-08)
(-1.02864e-08 1.8211e-08 7.25713e-08)
(-8.93941e-09 1.39864e-08 7.29985e-08)
(-7.28315e-09 1.3179e-08 7.26091e-08)
(-5.71355e-09 1.41666e-08 7.23912e-08)
(-3.55125e-09 1.65853e-08 7.30857e-08)
(3.81472e-11 2.01088e-08 7.51191e-08)
(4.25077e-09 9.87103e-09 7.71656e-08)
(-6.55623e-08 2.55536e-08 9.75797e-09)
(-6.54633e-08 1.7679e-08 1.43905e-08)
(-6.53281e-08 1.39067e-08 1.3994e-08)
(-6.52074e-08 1.34234e-08 1.22176e-08)
(-6.57058e-08 1.44486e-08 9.9902e-09)
(-6.68103e-08 1.64984e-08 7.48083e-09)
(-6.80433e-08 1.93225e-08 4.81988e-09)
(-6.76122e-08 8.43205e-09 3.26773e-09)
(-5.98946e-08 1.72337e-08 -7.40254e-10)
(-6.15503e-08 1.36145e-08 1.00299e-09)
(-6.1437e-08 1.27925e-08 8.91313e-10)
(-6.13184e-08 1.37154e-08 -7.3602e-10)
(-6.20441e-08 1.52926e-08 -3.01029e-09)
(-6.37023e-08 1.71661e-08 -5.43736e-09)
(-6.59832e-08 1.88078e-08 -7.37641e-09)
(-6.72932e-08 6.61703e-09 -7.61841e-09)
(-5.43725e-08 1.53959e-08 -6.12364e-10)
(-5.76245e-08 1.16331e-08 -2.47558e-10)
(-5.79345e-08 1.1336e-08 -4.02749e-10)
(-5.78724e-08 1.27924e-08 -1.57095e-09)
(-5.86126e-08 1.4515e-08 -3.32647e-09)
(-6.03672e-08 1.59617e-08 -5.02037e-09)
(-6.29305e-08 1.66031e-08 -5.79877e-09)
(-6.52855e-08 3.72e-09 -4.78552e-09)
(-5.07554e-08 1.48762e-08 -4.28984e-10)
(-5.45019e-08 1.08171e-08 -7.23715e-10)
(-5.51625e-08 1.01847e-08 -1.09857e-09)
(-5.52209e-08 1.14203e-08 -1.94635e-09)
(-5.59614e-08 1.28722e-08 -3.10958e-09)
(-5.77127e-08 1.38822e-08 -4.05794e-09)
(-6.03959e-08 1.40059e-08 -4.0804e-09)
(-6.3326e-08 1.06998e-09 -2.68643e-09)
(-4.85362e-08 1.44844e-08 -3.383e-10)
(-5.23288e-08 1.03004e-08 -8.26736e-10)
(-5.31532e-08 9.27756e-09 -1.29793e-09)
(-5.3309e-08 1.00695e-08 -1.92101e-09)
(-5.40611e-08 1.11115e-08 -2.61289e-09)
(-5.5804e-08 1.17775e-08 -3.02328e-09)
(-5.85516e-08 1.16854e-08 -2.68832e-09)
(-6.17947e-08 -1.14668e-09 -1.36039e-09)
(-4.71815e-08 1.41641e-08 -2.55782e-10)
(-5.09119e-08 9.87262e-09 -6.9619e-10)
(-5.17878e-08 8.55129e-09 -1.10901e-09)
(-5.19978e-08 8.9553e-09 -1.53774e-09)
(-5.27663e-08 9.64162e-09 -1.91424e-09)
(-5.45127e-08 1.00658e-08 -2.02972e-09)
(-5.73012e-08 9.87495e-09 -1.61952e-09)
(-6.0726e-08 -2.87792e-09 -5.61142e-10)
(-4.64014e-08 1.39484e-08 -1.61682e-10)
(-5.00757e-08 9.55413e-09 -4.51248e-10)
(-5.09624e-08 8.03024e-09 -7.19399e-10)
(-5.11973e-08 8.1752e-09 -9.679e-10)
(-5.19791e-08 8.62447e-09 -1.14801e-09)
(-5.37344e-08 8.89609e-09 -1.14957e-09)
(-5.65506e-08 8.64925e-09 -8.40238e-10)
(-6.00822e-08 -4.06438e-09 -1.638e-10)
(-4.60442e-08 1.38422e-08 -5.55101e-11)
(-4.9691e-08 9.38522e-09 -1.55356e-10)
(-5.05789e-08 7.75743e-09 -2.47016e-10)
(-5.08233e-08 7.77564e-09 -3.2798e-10)
(-5.16121e-08 8.10993e-09 -3.80612e-10)
(-5.33738e-08 8.3078e-09 -3.70373e-10)
(-5.62045e-08 8.03292e-09 -2.57218e-10)
(-5.97874e-08 -4.66586e-09 -2.49863e-11)
(1.5964e-08 -6.08171e-08 -1.0242e-09)
(1.74873e-08 -5.93061e-08 -1.07435e-08)
(1.85895e-08 -5.76657e-08 -6.60501e-09)
(1.84536e-08 -5.7282e-08 -3.58598e-09)
(1.77728e-08 -5.77179e-08 -1.75456e-09)
(1.70983e-08 -5.83986e-08 -7.22902e-10)
(1.66354e-08 -5.89899e-08 -2.2747e-10)
(1.64115e-08 -5.93205e-08 -4.21229e-11)
(7.70863e-09 -6.16072e-08 1.09073e-10)
(7.71418e-09 -5.91437e-08 -1.0526e-08)
(7.73217e-09 -5.66049e-08 -6.87238e-09)
(7.38463e-09 -5.55748e-08 -3.70506e-09)
(6.86115e-09 -5.55956e-08 -1.66873e-09)
(6.38952e-09 -5.603e-08 -5.67624e-10)
(6.06793e-09 -5.64891e-08 -1.05666e-10)
(5.91071e-09 -5.6763e-08 1.98309e-12)
(1.32221e-08 -6.2943e-08 1.19897e-09)
(1.11152e-08 -6.03627e-08 -9.5695e-09)
(9.34336e-09 -5.77643e-08 -6.11837e-09)
(8.2994e-09 -5.66874e-08 -3.13153e-09)
(7.75739e-09 -5.66696e-08 -1.24949e-09)
(7.45924e-09 -5.70742e-08 -2.82186e-10)
(7.28277e-09 -5.75129e-08 6.00738e-11)
(7.19576e-09 -5.77766e-08 5.63142e-11)
(4.61952e-09 -6.50972e-08 2.33192e-09)
(1.16367e-09 -6.33136e-08 -7.89611e-09)
(-1.63478e-09 -6.15225e-08 -4.35954e-09)
(-2.89913e-09 -6.1007e-08 -1.86571e-09)
(-3.30452e-09 -6.13309e-08 -4.91024e-10)
(-3.41612e-09 -6.19245e-08 1.39161e-10)
(-3.46184e-09 -6.24561e-08 2.73419e-10)
(-3.48738e-09 -6.27565e-08 1.22101e-10)
)
;
        gradient        uniform (0 0 0);
    }
    symmetry
    {
        type            solidSymmetry;
        patchType       symmetry;
        secondOrder     false;
        value           nonuniform List<vector> 
32
(
(8.11308e-09 8.82278e-09 0)
(1.30213e-08 9.07267e-09 0)
(1.3833e-08 9.54423e-09 0)
(1.40539e-08 1.05725e-08 0)
(1.4617e-08 1.17332e-08 0)
(1.53024e-08 1.2903e-08 0)
(1.56159e-08 1.35243e-08 0)
(1.60769e-08 1.32452e-09 0)
(-1.74434e-11 2.25284e-09 0)
(1.4392e-09 5.53038e-09 0)
(2.02304e-09 8.12512e-09 0)
(2.38841e-09 9.93232e-09 0)
(2.97667e-09 1.13019e-08 0)
(3.7171e-09 1.24881e-08 0)
(4.45514e-09 1.28343e-08 0)
(5.33055e-09 5.60055e-10 0)
(-3.05325e-12 2.1742e-09 0)
(-1.20104e-09 5.2299e-09 0)
(-1.09688e-09 7.5917e-09 0)
(-2.95872e-10 9.16465e-09 0)
(7.71463e-10 1.02998e-08 0)
(2.16947e-09 1.12518e-08 0)
(4.04059e-09 1.13769e-08 0)
(6.18814e-09 -9.90883e-10 0)
(-8.11906e-09 8.62823e-09 0)
(-1.27369e-08 8.20613e-09 0)
(-1.28356e-08 7.97479e-09 0)
(-1.18678e-08 8.29633e-09 0)
(-1.07535e-08 8.75344e-09 0)
(-9.29452e-09 9.2295e-09 0)
(-7.06787e-09 9.17979e-09 0)
(-4.70802e-09 -3.46481e-09 0)
)
;
    }
    bottom
    {
        type            fixedDisplacement;
        value           uniform (0 0 0);
    }
}


// ************************************************************************* //
