/*--------------------------------*- C++ -*----------------------------------*\
| =========                 |                                                 |
| \\      /  F ield         | OpenFOAM: The Open Source CFD Toolbox           |
|  \\    /   O peration     | Version:  v1912                                 |
|   \\  /    A nd           | Website:  www.openfoam.com                      |
|    \\/     M anipulation  |                                                 |
\*---------------------------------------------------------------------------*/
FoamFile
{
    version     2.0;
    format      ascii;
    class       pointVectorField;
    location    "0.23/solid";
    object      pointDD;
}
// * * * * * * * * * * * * * * * * * * * * * * * * * * * * * * * * * * * * * //

dimensions      [0 1 0 0 0 0 0];


internalField   nonuniform List<vector> 
405
(
(3.4736e-10 6.56435e-10 3.28433e-10)
(1.73002e-10 4.29763e-10 1.23955e-10)
(-1.18103e-12 3.36684e-10 4.78131e-11)
(-1.71151e-10 4.23604e-10 1.18182e-10)
(-3.14548e-10 6.40425e-10 3.21096e-10)
(6.86417e-10 7.0756e-10 8.05299e-10)
(4.65634e-10 6.49178e-10 5.46012e-10)
(-5.09136e-13 5.11155e-10 3.84235e-10)
(-4.5706e-10 6.3814e-10 5.35869e-10)
(-6.31098e-10 6.8664e-10 7.95699e-10)
(8.62087e-10 1.76046e-10 1.34189e-09)
(5.93778e-10 2.20394e-10 1.06886e-09)
(3.65604e-12 1.59866e-10 8.94567e-10)
(-5.75848e-10 2.11208e-10 1.06017e-09)
(-7.96199e-10 1.59525e-10 1.33415e-09)
(8.50585e-10 -2.91396e-10 1.76856e-09)
(5.83765e-10 -2.08387e-10 1.4947e-09)
(8.04183e-12 -2.3584e-10 1.31152e-09)
(-5.5729e-10 -2.16663e-10 1.48597e-09)
(-7.76173e-10 -3.05973e-10 1.7614e-09)
(8.24815e-10 -7.07497e-10 2.17942e-09)
(5.58883e-10 -6.38551e-10 1.89835e-09)
(1.20445e-11 -6.73531e-10 1.70086e-09)
(-5.24507e-10 -6.46187e-10 1.88946e-09)
(-7.42478e-10 -7.20939e-10 2.17247e-09)
(8.74431e-10 -1.12635e-09 2.62135e-09)
(5.90071e-10 -1.10094e-09 2.32305e-09)
(1.58667e-11 -1.16223e-09 2.10709e-09)
(-5.48082e-10 -1.10811e-09 2.31396e-09)
(-7.8433e-10 -1.13904e-09 2.61458e-09)
(1.09485e-09 -1.66057e-09 3.13605e-09)
(7.49393e-10 -1.66901e-09 2.80623e-09)
(1.95306e-11 -1.7334e-09 2.57264e-09)
(-6.999e-10 -1.67633e-09 2.79687e-09)
(-9.96234e-10 -1.67341e-09 3.12952e-09)
(1.61037e-09 -2.71641e-09 3.78444e-09)
(1.05977e-09 -2.66562e-09 3.49451e-09)
(2.24332e-11 -2.63272e-09 3.26558e-09)
(-1.00324e-09 -2.6722e-09 3.48411e-09)
(-1.49807e-09 -2.72823e-09 3.77745e-09)
(1.97855e-09 -3.44224e-09 4.20557e-09)
(1.24903e-09 -3.27199e-09 4.05703e-09)
(2.43123e-11 -3.10585e-09 3.88836e-09)
(-1.18768e-09 -3.27196e-09 4.05125e-09)
(-1.87244e-09 -3.44689e-09 4.20043e-09)
(7.46627e-11 3.02552e-10 1.67148e-10)
(0 0 0)
(0 0 0)
(0 0 0)
(-3.5736e-11 2.90037e-10 1.66026e-10)
(2.53719e-10 3.53403e-10 5.98525e-10)
(0 0 0)
(0 0 0)
(0 0 0)
(-1.70505e-10 3.31149e-10 5.96711e-10)
(3.6149e-10 -1.30986e-10 1.08055e-09)
(0 0 0)
(0 0 0)
(0 0 0)
(-2.68517e-10 -1.49322e-10 1.07987e-09)
(3.45164e-10 -5.66489e-10 1.49649e-09)
(0 0 0)
(0 0 0)
(0 0 0)
(-2.43737e-10 -5.83079e-10 1.49696e-09)
(3.2158e-10 -9.63193e-10 1.895e-09)
(0 0 0)
(0 0 0)
(0 0 0)
(-2.12177e-10 -9.78739e-10 1.89619e-09)
(3.65405e-10 -1.35078e-09 2.31647e-09)
(0 0 0)
(0 0 0)
(0 0 0)
(-2.47984e-10 -1.36572e-09 2.31819e-09)
(5.62208e-10 -1.80117e-09 2.78487e-09)
(0 0 0)
(0 0 0)
(0 0 0)
(-4.35308e-10 -1.81646e-09 2.787e-09)
(1.10963e-09 -2.66453e-09 3.241e-09)
(0 0 0)
(0 0 0)
(0 0 0)
(-9.63582e-10 -2.6789e-09 3.24293e-09)
(1.61282e-09 -3.2082e-09 3.50321e-09)
(1.06278e-09 -2.9207e-09 3.52124e-09)
(2.55322e-11 -2.69452e-09 3.4861e-09)
(-1.00002e-09 -2.91603e-09 3.52192e-09)
(-1.49569e-09 -3.21167e-09 3.50449e-09)
(-1.06905e-10 7.79257e-11 3.59372e-11)
(0 0 0)
(0 0 0)
(0 0 0)
(1.4048e-10 6.71674e-11 3.59853e-11)
(-1.75768e-10 -4.6798e-11 2.60066e-10)
(0 0 0)
(0 0 0)
(0 0 0)
(2.47294e-10 -6.63946e-11 2.60356e-10)
(-1.46057e-10 -4.47375e-10 6.52837e-10)
(0 0 0)
(0 0 0)
(0 0 0)
(2.26081e-10 -4.64469e-10 6.53718e-10)
(-1.7479e-10 -8.31683e-10 1.0505e-09)
(0 0 0)
(0 0 0)
(0 0 0)
(2.62902e-10 -8.47855e-10 1.05216e-09)
(-2.01072e-10 -1.19566e-09 1.43146e-09)
(0 0 0)
(0 0 0)
(0 0 0)
(2.97126e-10 -1.21121e-09 1.43376e-09)
(-1.63181e-10 -1.53262e-09 1.80655e-09)
(0 0 0)
(0 0 0)
(0 0 0)
(2.67534e-10 -1.54786e-09 1.80929e-09)
(2.52412e-11 -1.86674e-09 2.15616e-09)
(0 0 0)
(0 0 0)
(0 0 0)
(8.91308e-11 -1.88258e-09 2.15905e-09)
(5.6485e-10 -2.48995e-09 2.37395e-09)
(0 0 0)
(0 0 0)
(0 0 0)
(-4.30925e-10 -2.50492e-09 2.37656e-09)
(1.09985e-09 -2.84105e-09 2.44598e-09)
(7.54954e-10 -2.51423e-09 2.52513e-09)
(2.5862e-11 -2.28371e-09 2.58808e-09)
(-6.92772e-10 -2.51067e-09 2.52639e-09)
(-9.89642e-10 -2.84527e-09 2.448e-09)
(-1.6873e-10 -7.22228e-12 3.8892e-11)
(0 0 0)
(0 0 0)
(0 0 0)
(2.0077e-10 -1.74415e-11 3.89369e-11)
(-3.36942e-10 -2.13398e-10 2.31175e-10)
(0 0 0)
(0 0 0)
(0 0 0)
(4.05093e-10 -2.31946e-10 2.31406e-10)
(-3.51654e-10 -6.04311e-10 5.62253e-10)
(0 0 0)
(0 0 0)
(0 0 0)
(4.27872e-10 -6.2056e-10 5.6285e-10)
(-3.84544e-10 -9.70506e-10 9.14779e-10)
(0 0 0)
(0 0 0)
(0 0 0)
(4.68697e-10 -9.86165e-10 9.15857e-10)
(-4.04573e-10 -1.29763e-09 1.25467e-09)
(0 0 0)
(0 0 0)
(0 0 0)
(4.9675e-10 -1.31294e-09 1.25622e-09)
(-3.5994e-10 -1.56739e-09 1.56614e-09)
(0 0 0)
(0 0 0)
(0 0 0)
(4.60803e-10 -1.58262e-09 1.56804e-09)
(-1.6571e-10 -1.80065e-09 1.81181e-09)
(0 0 0)
(0 0 0)
(0 0 0)
(2.77312e-10 -1.81667e-09 1.81383e-09)
(3.65611e-10 -2.30497e-09 1.91591e-09)
(0 0 0)
(0 0 0)
(0 0 0)
(-2.33814e-10 -2.32e-09 1.91776e-09)
(8.76688e-10 -2.61025e-09 1.91004e-09)
(5.94055e-10 -2.31552e-09 1.95984e-09)
(2.54875e-11 -2.10255e-09 2.02062e-09)
(-5.32745e-10 -2.3122e-09 1.96073e-09)
(-7.6794e-10 -2.61448e-09 1.9115e-09)
(-1.90108e-10 -3.36166e-11 4.63935e-11)
(0 0 0)
(0 0 0)
(0 0 0)
(2.21631e-10 -4.36275e-11 4.65036e-11)
(-3.92778e-10 -2.67327e-10 2.21343e-10)
(0 0 0)
(0 0 0)
(0 0 0)
(4.59695e-10 -2.85403e-10 2.2175e-10)
(-4.22569e-10 -6.59347e-10 4.93889e-10)
(0 0 0)
(0 0 0)
(0 0 0)
(4.97257e-10 -6.7509e-10 4.94662e-10)
(-4.54371e-10 -1.01675e-09 7.81105e-10)
(0 0 0)
(0 0 0)
(0 0 0)
(5.3688e-10 -1.03199e-09 7.82237e-10)
(-4.67093e-10 -1.31501e-09 1.05584e-09)
(0 0 0)
(0 0 0)
(0 0 0)
(5.57685e-10 -1.33004e-09 1.05731e-09)
(-4.14599e-10 -1.53664e-09 1.29397e-09)
(0 0 0)
(0 0 0)
(0 0 0)
(5.14155e-10 -1.55176e-09 1.29569e-09)
(-2.15468e-10 -1.71642e-09 1.46186e-09)
(0 0 0)
(0 0 0)
(0 0 0)
(3.26284e-10 -1.73251e-09 1.46367e-09)
(3.08412e-10 -2.17572e-09 1.51897e-09)
(0 0 0)
(0 0 0)
(0 0 0)
(-1.76881e-10 -2.1909e-09 1.52072e-09)
(8.11867e-10 -2.46153e-09 1.49383e-09)
(5.51657e-10 -2.18406e-09 1.50562e-09)
(2.50756e-11 -1.98834e-09 1.53866e-09)
(-4.91071e-10 -2.18086e-09 1.50662e-09)
(-7.03462e-10 -2.46589e-09 1.49541e-09)
(-1.96304e-10 -3.99685e-11 4.18966e-11)
(0 0 0)
(0 0 0)
(0 0 0)
(2.27745e-10 -4.98432e-11 4.20529e-11)
(-4.06197e-10 -2.78093e-10 1.84091e-10)
(0 0 0)
(0 0 0)
(0 0 0)
(4.72809e-10 -2.95867e-10 1.84614e-10)
(-4.35718e-10 -6.65992e-10 3.92323e-10)
(0 0 0)
(0 0 0)
(0 0 0)
(5.09879e-10 -6.81401e-10 3.93212e-10)
(-4.63391e-10 -1.01449e-09 6.06622e-10)
(0 0 0)
(0 0 0)
(0 0 0)
(5.45269e-10 -1.02941e-09 6.078e-10)
(-4.69981e-10 -1.29393e-09 8.08294e-10)
(0 0 0)
(0 0 0)
(0 0 0)
(5.59958e-10 -1.30873e-09 8.09709e-10)
(-4.11694e-10 -1.49037e-09 9.76743e-10)
(0 0 0)
(0 0 0)
(0 0 0)
(5.10802e-10 -1.5054e-09 9.78323e-10)
(-2.09964e-10 -1.64925e-09 1.08869e-09)
(0 0 0)
(0 0 0)
(0 0 0)
(3.20667e-10 -1.66546e-09 1.09034e-09)
(3.07909e-10 -2.09309e-09 1.12414e-09)
(0 0 0)
(0 0 0)
(0 0 0)
(-1.76114e-10 -2.10861e-09 1.12578e-09)
(8.09651e-10 -2.36659e-09 1.10139e-09)
(5.55877e-10 -2.09624e-09 1.09505e-09)
(2.47693e-11 -1.91233e-09 1.10838e-09)
(-4.95824e-10 -2.09321e-09 1.09612e-09)
(-7.01258e-10 -2.3713e-09 1.103e-09)
(-1.98126e-10 -4.05333e-11 3.03622e-11)
(0 0 0)
(0 0 0)
(0 0 0)
(2.29647e-10 -5.0309e-11 3.05076e-11)
(-4.07888e-10 -2.75646e-10 1.28949e-10)
(0 0 0)
(0 0 0)
(0 0 0)
(4.74558e-10 -2.93207e-10 1.29419e-10)
(-4.33357e-10 -6.56314e-10 2.68626e-10)
(0 0 0)
(0 0 0)
(0 0 0)
(5.07408e-10 -6.71493e-10 2.69396e-10)
(-4.5674e-10 -9.96237e-10 4.0954e-10)
(0 0 0)
(0 0 0)
(0 0 0)
(5.38411e-10 -1.01095e-09 4.1052e-10)
(-4.59044e-10 -1.26474e-09 5.4011e-10)
(0 0 0)
(0 0 0)
(0 0 0)
(5.48799e-10 -1.27938e-09 5.41245e-10)
(-3.97359e-10 -1.45049e-09 6.46825e-10)
(0 0 0)
(0 0 0)
(0 0 0)
(4.96334e-10 -1.46549e-09 6.48059e-10)
(-1.947e-10 -1.6034e-09 7.16009e-10)
(0 0 0)
(0 0 0)
(0 0 0)
(3.05481e-10 -1.61979e-09 7.17279e-10)
(3.18911e-10 -2.0423e-09 7.37943e-10)
(0 0 0)
(0 0 0)
(0 0 0)
(-1.86769e-10 -2.05824e-09 7.39232e-10)
(8.2032e-10 -2.30767e-09 7.23162e-10)
(5.6788e-10 -2.03918e-09 7.14001e-10)
(2.45629e-11 -1.86163e-09 7.18203e-10)
(-5.08194e-10 -2.03632e-09 7.14887e-10)
(-7.11847e-10 -2.3128e-09 7.24473e-10)
(-1.98881e-10 -4.00211e-11 1.57435e-11)
(0 0 0)
(0 0 0)
(0 0 0)
(2.30498e-10 -4.97352e-11 1.58293e-11)
(-4.0788e-10 -2.71587e-10 6.58607e-11)
(0 0 0)
(0 0 0)
(0 0 0)
(4.74678e-10 -2.89017e-10 6.61348e-11)
(-4.30348e-10 -6.46177e-10 1.35698e-10)
(0 0 0)
(0 0 0)
(0 0 0)
(5.04419e-10 -6.61219e-10 1.3614e-10)
(-4.50908e-10 -9.80068e-10 2.05296e-10)
(0 0 0)
(0 0 0)
(0 0 0)
(5.32532e-10 -9.94656e-10 2.0585e-10)
(-4.50766e-10 -1.243e-09 2.69141e-10)
(0 0 0)
(0 0 0)
(0 0 0)
(5.40453e-10 -1.25757e-09 2.69772e-10)
(-3.87415e-10 -1.42494e-09 3.2076e-10)
(0 0 0)
(0 0 0)
(0 0 0)
(4.86362e-10 -1.43995e-09 3.21437e-10)
(-1.84574e-10 -1.57693e-09 3.53948e-10)
(0 0 0)
(0 0 0)
(0 0 0)
(2.95445e-10 -1.59347e-09 3.54641e-10)
(3.26512e-10 -2.01449e-09 3.64648e-10)
(0 0 0)
(0 0 0)
(0 0 0)
(-1.94111e-10 -2.03076e-09 3.65356e-10)
(8.27859e-10 -2.2753e-09 3.57732e-10)
(5.75726e-10 -2.00668e-09 3.52274e-10)
(2.44456e-11 -1.83196e-09 3.53282e-10)
(-5.1625e-10 -2.00397e-09 3.52775e-10)
(-7.19305e-10 -2.28076e-09 3.58465e-10)
(-1.35254e-10 -5.00703e-11 0)
(-1.03074e-11 -5.03627e-11 0)
(-3.36586e-13 -6.58315e-11 0)
(1.25032e-11 -5.38257e-11 0)
(1.59734e-10 -6.05552e-11 0)
(-2.12792e-10 -2.64851e-10 0)
(-3.14433e-11 -2.83065e-10 0)
(1.04052e-12 -3.07613e-10 0)
(3.98032e-11 -2.90202e-10 0)
(2.53538e-10 -2.79421e-10 0)
(-2.34964e-10 -6.36598e-10 0)
(-5.15186e-11 -6.43869e-10 0)
(4.63266e-12 -6.58501e-10 0)
(6.74192e-11 -6.51276e-10 0)
(2.83278e-10 -6.49761e-10 0)
(-2.55805e-10 -9.71007e-10 0)
(-6.77142e-11 -9.81656e-10 0)
(8.24957e-12 -9.97119e-10 0)
(9.06227e-11 -9.8908e-10 0)
(3.11275e-10 -9.83847e-10 0)
(-2.56129e-10 -1.24341e-09 0)
(-6.95797e-11 -1.28161e-09 0)
(1.16786e-11 -1.31346e-09 0)
(9.93715e-11 -1.28898e-09 0)
(3.1908e-10 -1.25619e-09 0)
(-1.90558e-10 -1.45289e-09 0)
(-2.28106e-11 -1.54661e-09 0)
(1.50858e-11 -1.60559e-09 0)
(5.96297e-11 -1.55413e-09 0)
(2.61765e-10 -1.46601e-09 0)
(2.38215e-11 -1.65114e-09 0)
(1.32345e-10 -1.79949e-09 0)
(1.84847e-11 -1.86709e-09 0)
(-8.8135e-11 -1.80774e-09 0)
(5.73591e-11 -1.66556e-09 0)
(4.97457e-10 -2.0981e-09 0)
(4.14501e-10 -2.17671e-09 0)
(2.14049e-11 -2.1649e-09 0)
(-3.62644e-10 -2.18469e-09 0)
(-4.00754e-10 -2.11219e-09 0)
(8.6569e-10 -2.34732e-09 0)
(5.80693e-10 -2.21077e-09 0)
(2.35257e-11 -2.08142e-09 0)
(-5.23141e-10 -2.21301e-09 0)
(-7.71263e-10 -2.35455e-09 0)
)
;

boundaryField
{
    interface
    {
        type            calculated;
    }
    symmetry
    {
        type            symmetry;
    }
    bottom
    {
        type            calculated;
    }
}


// ************************************************************************* //
