/*--------------------------------*- C++ -*----------------------------------*\
| =========                 |                                                 |
| \\      /  F ield         | OpenFOAM: The Open Source CFD Toolbox           |
|  \\    /   O peration     | Version:  v1912                                 |
|   \\  /    A nd           | Website:  www.openfoam.com                      |
|    \\/     M anipulation  |                                                 |
\*---------------------------------------------------------------------------*/
FoamFile
{
    version     2.0;
    format      ascii;
    class       volScalarField;
    location    "0.23/solid";
    object      sigmaHyd;
}
// * * * * * * * * * * * * * * * * * * * * * * * * * * * * * * * * * * * * * //

dimensions      [1 -1 -2 0 0 0 0];


internalField   nonuniform List<scalar> 
256
(
-738718
-365037
-363483
-728866
-874168
-464239
-462767
-863420
-876773
-468855
-467296
-865352
-882970
-470540
-468866
-871024
-901741
-477530
-475787
-889492
-938756
-494888
-493147
-926570
-1.04611e+06
-572973
-571154
-1.03436e+06
-1.60705e+06
-1.10292e+06
-1.09826e+06
-1.58938e+06
-325352
-15766.2
-17511.4
-322280
-418201
-69468.8
-71340.1
-414699
-422588
-78501.3
-80350
-418656
-425371
-77754.6
-79563.3
-421067
-434445
-74243.7
-76026.4
-429838
-454471
-71506.9
-73290.5
-449747
-533585
-113757
-115380
-528927
-1.04624e+06
-572979
-571089
-1.03428e+06
-265677
6603.13
4853.93
-261878
-337864
-25783.1
-27738.8
-334121
-341464
-33860.9
-35820.5
-337439
-344913
-34157.2
-36096.4
-340584
-354598
-31581.9
-33507
-349975
-375451
-29706
-31630.7
-370644
-454360
-71165.6
-72902.6
-449435
-938837
-494651
-492766
-926180
-248095
2621.56
1026.11
-243680
-314887
-25391.7
-27227.2
-310835
-317772
-32363.6
-34234.8
-313573
-321571
-33051.4
-34923.9
-317145
-332055
-31508.2
-33379.6
-327375
-354212
-31149.2
-33024.7
-349339
-433802
-73252.9
-74932.9
-428722
-901161
-476475
-474489
-888058
-238169
168.059
-1305.14
-233338
-302792
-26698.9
-28435.9
-298528
-305375
-33143.1
-34940.2
-301057
-309368
-33977.9
-35794.6
-304889
-320329
-33036.6
-34864.4
-315639
-343219
-33589.8
-35428
-338348
-423031
-76020.4
-77662.6
-417917
-879806
-467429
-465386
-866501
-232348
-1203.53
-2588.46
-227225
-295741
-27535.9
-29201.1
-291309
-298203
-33756.8
-35497.8
-293774
-302325
-34675.4
-36449.2
-297781
-313569
-34071.8
-35866.3
-308848
-336854
-35134.2
-36944.9
-331969
-416697
-77721.6
-79338.4
-411556
-866841
-462052
-459976
-853416
-229159
-2026.4
-3354.02
-223850
-291854
-28036.1
-29654
-287306
-294270
-34159.2
-35862
-289758
-298475
-35130.5
-36874.2
-293875
-309879
-34710.2
-36480.9
-305125
-333372
-36044.8
-37836.1
-328467
-413194
-78710.5
-80310
-408030
-859418
-458984
-456887
-845922
-227754
-2429.63
-3729.08
-222355
-290133
-28279.5
-29874.1
-285528
-292538
-34363.8
-36047.2
-287982
-296784
-35361.1
-37089.1
-292152
-308259
-35022.2
-36780.4
-303485
-331842
-36476.2
-38257.2
-326924
-411644
-79175.4
-80766.1
-406466
-856039
-457586
-455479
-842508
)
;

boundaryField
{
    interface
    {
        type            zeroGradient;
    }
    symmetry
    {
        type            symmetry;
    }
    bottom
    {
        type            zeroGradient;
    }
}


// ************************************************************************* //
