/*--------------------------------*- C++ -*----------------------------------*\
| =========                 |                                                 |
| \\      /  F ield         | OpenFOAM: The Open Source CFD Toolbox           |
|  \\    /   O peration     | Version:  v1912                                 |
|   \\  /    A nd           | Website:  www.openfoam.com                      |
|    \\/     M anipulation  |                                                 |
\*---------------------------------------------------------------------------*/
FoamFile
{
    version     2.0;
    format      ascii;
    class       volSymmTensorField;
    location    "0.23/solid";
    object      sigma;
}
// * * * * * * * * * * * * * * * * * * * * * * * * * * * * * * * * * * * * * //

dimensions      [1 -1 -2 0 0 0 0];


internalField   nonuniform List<symmTensor> 
256
(
(-394342 4889.22 26.3083 120048 3721.25 -424107)
(-21044.1 -11121.2 308.237 91101.7 4792.57 -391366)
(-20763.7 14821 -239.434 89825.4 5184.63 -388052)
(-380568 -3199.96 207.512 120383 5182.13 -410106)
(-425332 -2455.95 379.972 -60927.6 -4562.5 -455605)
(-75429.3 -3025.62 516.786 -29222.4 -4289.45 -426938)
(-75337.5 5726.97 -315.452 -30894.3 -4038.67 -423593)
(-410618 3612.18 -4.03579 -59300.1 -3640.62 -440932)
(-427660 -1507.18 239.417 -48604.5 -4257.16 -457471)
(-75466 -872.365 449.551 -31464.2 -4227.77 -430597)
(-75404.6 2866.32 -202.273 -33045.1 -4057.09 -427187)
(-412592 2341.82 167.043 -46225.3 -3614.9 -442489)
(-434582 -54.3569 196.968 -35499.4 -3213.58 -464444)
(-71364.7 73.3207 442.41 -25810.1 -2970.42 -436972)
(-71280.5 1386.18 -198.859 -27198 -2838.56 -433505)
(-419254 666.591 212.468 -32514.3 -2713.57 -449263)
(-450183 439.574 463.37 -29804.1 -2858.03 -480300)
(-69600.3 319.259 602.742 -19630.5 -2441.11 -450970)
(-69489.8 706.873 -374.228 -20901.5 -2326.03 -447473)
(-434744 -11.571 -55.7616 -26493.7 -2433.7 -465030)
(-476280 -317.605 992.129 -30835.9 -3389.61 -507177)
(-68486.5 -351.178 902.374 -17928.4 -2977.98 -475883)
(-68414 991.833 -680.674 -19157.9 -2862.83 -472397)
(-461091 535.054 -583.551 -27502.7 -2994.48 -491964)
(-524546 -1681.12 1567.71 -98559 -4162 -557423)
(-79393.2 -1531.17 1206.75 -83373.5 -4028.11 -526785)
(-79511.3 1746.52 -967.69 -84201.4 -3895.17 -523336)
(-510487 1586.53 -1154.47 -94704.3 -3759.08 -542397)
(-560078 -1723.95 1786.52 -595855 -3079.01 -595837)
(-96597.2 -1203.85 1293.71 -579603 -3166.6 -579523)
(-96421.7 1092.73 -1025.59 -575905 -3037.91 -575782)
(-547987 1412.25 -1388.95 -580635 -2738.08 -580560)
(-340004 6343.62 -134.992 93734.7 -20003 -21134.3)
(-13005.4 -9647.25 600.375 60825.9 -18361.2 -17622.2)
(-13572.9 11507.5 -341.652 58003.3 -17499 -18664.1)
(-325570 -5305.25 369.196 91746.1 -17285.3 -17383.6)
(-374955 -1975.23 408.668 -18381.1 -10125.1 -71254.8)
(-63532.5 -3010.61 959.134 8193.79 -9563.14 -64252.4)
(-64050.6 4241.12 -470.942 5362.68 -8994.04 -65571.2)
(-359428 2505.9 -32.2478 -18559.4 -8210.32 -67576.1)
(-379658 -1655.71 513.078 -19522.4 -8410.32 -70640.3)
(-69531.1 -1285.92 1033.12 -7515.55 -8130.01 -68867.9)
(-70071.6 2156.68 -501.491 -10120.8 -7715.65 -70333.1)
(-363765 2005.79 -113.597 -18786.5 -6953.53 -67241.8)
(-386434 -209.494 493.784 -15309.7 -8167.78 -67560.2)
(-66411.6 -331.501 1042.7 -10546.8 -7799.28 -66126.7)
(-66943.2 940.94 -547.338 -12993.8 -7462.42 -67659.1)
(-370225 461.101 -102.834 -14063 -6974.8 -64298.9)
(-400801 487.377 619.139 -12947.5 -8232.88 -67165.7)
(-62338.4 52.6697 1139.17 -6657.45 -7878.61 -62431.5)
(-62845.1 322.545 -687.17 -9034.74 -7580.46 -64004.1)
(-384322 -333.086 -237.808 -11442.8 -7198.27 -63990.3)
(-425922 -26.4093 942.042 -15740.8 -8667.85 -68511.5)
(-56976.6 -429.126 1363.88 -4437.63 -8468.36 -57923.2)
(-57507.7 573.623 -934.293 -6764.75 -8194.77 -59549.9)
(-409410 31.2307 -562.798 -14141.2 -7744.8 -65497.4)
(-475843 -1308.18 1397.63 -82494.9 -8565.64 -82921.7)
(-62723.3 -1469.24 1642.49 -65418.1 -8511.01 -65551.1)
(-63414.6 1369.56 -1237.88 -67212.8 -8279.76 -67205.2)
(-460108 1057.12 -1029.55 -80085.7 -7804.01 -80178.8)
(-524671 -1529.45 1811.03 -557428 -4092.41 -98735.4)
(-79463.9 -1152.16 1788.04 -526832 -3982.28 -83246.5)
(-79551.6 1009.47 -1547.81 -523393 -3855.63 -83892)
(-510497 1166.68 -1537.52 -542387 -3716.75 -94473.7)
(-292782 7165.14 -688.208 89394.3 -7435.9 24516.9)
(-11433.1 -8494.63 109.499 49290.2 -6915.8 19196.6)
(-11919.4 9434.2 205.007 46608.6 -6192.55 18046.6)
(-277733 -6500.76 818.793 88721.3 -5203.96 28793.8)
(-322603 -1319.43 -400.937 5230.75 -6624.83 -6356.28)
(-51580.2 -2806.67 279.229 23149 -6210.61 -6101.45)
(-51995.3 3296.27 265.358 20350.5 -5610.84 -7661.83)
(-306565 1560.75 642.475 5449.41 -4712.52 -2544.66)
(-327576 -1589.92 -157.735 7146.94 -7735.55 -6812.13)
(-58138 -1448.57 398.818 11668.4 -7400 -11902)
(-58562 1733.92 163.656 9065.15 -6903.42 -13667.5)
(-311189 1707.1 416.219 8061.79 -6116.48 -3487.57)
(-334496 -304.838 -139.309 9174.02 -9043.07 -3857.76)
(-55992.8 -524.756 411.514 6600.16 -8656.56 -9554.6)
(-56401.6 691.039 97.6279 4136.84 -8228.71 -11433)
(-317782 380.462 381.945 10529.1 -7642.15 -823.246)
(-348965 480.332 -170.724 7745.2 -9765.94 -2038.74)
(-52840.5 -25.0482 406.365 6460.26 -9440.74 -4217.74)
(-53216.1 82.3572 46.5062 4060.55 -9060.25 -6174.94)
(-331928 -451.167 395.12 9353.23 -8533.23 795.635)
(-374663 153.464 -125.66 661.006 -9626.79 -1963.11)
(-48953.8 -340.634 470.906 4421.43 -9475.37 2386.92)
(-49342.3 283.762 -61.645 2086.67 -9142.44 349.127)
(-357475 -228.768 336.175 2426.57 -8556.95 642.239)
(-425917 -866.633 97.842 -67265.2 -8056.19 -16625.5)
(-56692 -1222.5 632.653 -56928.2 -7940.71 -4691.67)
(-57225.8 1036.66 -298.977 -58702.5 -7690.28 -6730.26)
(-409292 576.463 83.096 -64603.1 -7239.1 -14230.3)
(-476442 -967.47 468.471 -507002 -3064.19 -30967.3)
(-68370 -865.431 697.5 -475713 -2713.43 -17453)
(-68268.7 712.433 -607.419 -472215 -2615.91 -18315.1)
(-461013 589.106 -397.511 -491700 -2747.73 -26688.8)
(-267161 7053.31 -737.589 86637.3 -3654.97 26769.3)
(-14134.4 -8089.1 -105.303 41263.8 -3234.6 15573.1)
(-14605.8 8542.77 402.91 38884 -2695 14593.6)
(-252009 -6648.92 827.076 87341.6 -2003.71 31822.3)
(-295470 -1043.68 -844.682 8384.06 -4421.11 2405.34)
(-52029.5 -2722.64 -130.891 18965.3 -3978.79 -3040.89)
(-52451 2823.63 651.716 16368.6 -3476.1 -4406.94)
(-279453 1129.62 1023.79 9256.64 -2862.87 6956.83)
(-300636 -1487.5 -692.047 12134.6 -6203.39 2370.06)
(-58661.3 -1501.08 -58.0682 10155.1 -5832.09 -8137.23)
(-59082.1 1476.3 594.769 7658.39 -5378.69 -9718.06)
(-284289 1486.62 886.743 13374.3 -4778.9 6375.77)
(-307760 -361.424 -658.546 14335.2 -8010.09 4321.15)
(-57021.3 -629.893 -49.1143 5429.38 -7622.75 -6806.71)
(-57421.6 563.996 532.069 3026.56 -7213.06 -8524.69)
(-291092 347.193 837.088 15872 -6716.26 7948.46)
(-322398 403.651 -720.939 11584.3 -8953.66 5297.52)
(-54493.9 -95.465 -91.3261 3723.21 -8608.76 -2383.79)
(-54858.3 -2.99717 513.398 1367.94 -8240.33 -4206.36)
(-305399 -434.986 877.709 13325.1 -7794.43 8639.9)
(-348519 206.826 -767.461 2689.43 -8477.93 3782.57)
(-51734.3 -286.953 -105.861 -180.201 -8268.41 2615.75)
(-52107.8 146.486 469.3 -2475.49 -7953.36 699.452)
(-331324 -313.663 902.629 4585.86 -7484.4 6856.51)
(-400369 -509.567 -668.089 -64571.3 -6326.66 -13954.7)
(-60928.7 -981.243 -39.0359 -60117.4 -6151.27 -7404.78)
(-61439 767.137 303.745 -61862.2 -5927.17 -9301.8)
(-383614 209.933 765.1 -61781.3 -5597.02 -11034.6)
(-449948 -417.458 -463.942 -479655 -1957.85 -28699.7)
(-68382.4 -561.025 -74.5526 -450294 -1614.75 -18265.9)
(-68237.9 390.361 95.5331 -446756 -1538.13 -18923.6)
(-434086 27.663 455.498 -464188 -1697.73 -23713.6)
(-251630 6667.49 -524.97 85567.3 -2640.29 28019.4)
(-14915.8 -8085.69 -117.262 37075.6 -2151.33 12625.7)
(-15395.7 8265.19 355.429 34954.2 -1766.58 11782.6)
(-236471 -6433.55 594.383 87343.6 -1474.23 33616.3)
(-278940 -1022.35 -729.244 9209.84 -3435.74 6242.92)
(-51637.7 -2754.89 -199.161 14909.4 -2942.66 -3916.61)
(-52103.5 2638.32 629.753 12502.1 -2566.01 -5109.88)
(-263025 1017.63 872.249 10675 -2285.34 11363)
(-284172 -1442.46 -681.086 13053.4 -4828.05 7083.14)
(-58190.7 -1537.58 -176.483 6611.94 -4443.23 -8022.2)
(-58650.5 1338.54 629.491 4219.34 -4085.78 -9423.16)
(-267943 1376.77 839.637 14618.9 -3723.16 11662.3)
(-291454 -394.732 -661.972 15431 -6285.76 8488.74)
(-56791.8 -692.506 -176.261 2219.53 -5931.32 -7222.05)
(-57226.7 495.685 587.161 -130.836 -5596.61 -8768.37)
(-274912 330.936 808.023 17140.2 -5243.75 12654.4)
(-306195 337.489 -706.84 12650.7 -7011.11 8257.27)
(-54570.9 -151.971 -215.134 351.286 -6695.54 -4132.06)
(-54968.8 -33.11 570.695 -1976.9 -6390.23 -5795.43)
(-289327 -402.075 832.69 14484.8 -6059.73 12090.5)
(-332482 224.905 -751.154 3678.78 -6433.73 4854.2)
(-52385.3 -261.492 -244.759 -3656.85 -6218.65 -1199.1)
(-52790.9 75.2499 540.266 -5939.62 -5959.27 -2962.2)
(-315403 -348.487 854.215 5631.44 -5618.49 8394.32)
(-384446 -265.726 -704.707 -62388.6 -4486.28 -15257.3)
(-62344.6 -810.261 -227.493 -61886.6 -4318.28 -13642.3)
(-62881.9 577.248 426.561 -63631.8 -4137.62 -15378.3)
(-367742 -39.7994 770.16 -59563.8 -3895.3 -11850)
(-432635 -29.0949 -610.985 -462351 -1282.14 -29589.3)
(-66888.2 -341.746 -303.661 -434969 -1034.26 -22782.7)
(-66758.9 152.782 292.215 -431421 -974.17 -23257)
(-416625 -371.766 585.263 -446805 -1074.65 -24032)
(-242219 6335.15 -316.316 84637 -1957.91 29226.9)
(-15109.2 -8175.57 -70.3215 34364 -1536.51 11141.4)
(-15593.8 8197.79 239.588 32432.8 -1279.59 10391.3)
(-227048 -6206.06 366.992 87176.8 -1187.5 35198.8)
(-268763 -1072.57 -468.325 9407.8 -2612.44 8715.64)
(-50883.4 -2816.82 -129.199 12081.9 -2184.88 -4656.92)
(-51382.8 2575.47 443.662 9820.16 -1928.1 -5731.1)
(-252912 1014.85 574.596 11337.3 -1835.59 14243.7)
(-273960 -1438.99 -464.166 12994 -3516.6 10155.3)
(-57257.3 -1572.42 -126.321 3694.68 -3185.96 -8181.56)
(-57748.1 1271.91 464.798 1388.3 -2935.28 -9453.92)
(-257806 1336.08 584.269 14844.4 -2747.81 15165.3)
(-281324 -417.365 -459.931 15378 -4433.3 11295.9)
(-55942.7 -731.724 -130.903 -587.044 -4151.25 -7657.02)
(-56405.4 456.336 442.138 -2893.04 -3910.79 -9075.47)
(-264863 324.376 572.126 17250.2 -3688.87 15885.3)
(-296129 298.615 -486.018 12874.7 -4839.97 10065.3)
(-53878.2 -187.282 -156.957 -2232.21 -4598.34 -5644.01)
(-54303.2 -52.3764 426.055 -4540.77 -4376.06 -7184.44)
(-279348 -383.812 582.773 14795.3 -4148.92 14300.3)
(-322481 237.998 -511.835 4313.42 -4331.78 5151.63)
(-52005 -246.974 -179.705 -5831.6 -4164.27 -4339.19)
(-52436.9 28.6027 399.223 -8109.87 -3975.03 -5982.91)
(-305483 -373.229 589.644 6309.59 -3735.99 9076.75)
(-374401 -110.814 -487.759 -60792.1 -2916.75 -16486.5)
(-62390 -704.506 -180.652 -62789 -2795.73 -18364)
(-62950.9 454.602 322.22 -64540.1 -2664.46 -19979.6)
(-357741 -200.514 534.951 -57946.5 -2484.88 -12692.4)
(-421372 215.641 -443.039 -451391 -827.316 -30145.6)
(-64997.4 -205.586 -251.297 -425523 -673.388 -26162.4)
(-64885.2 1.04059 232.357 -421974 -629.778 -26506.1)
(-405280 -626.208 420.417 -435800 -675.511 -24158.6)
(-236844 6126.4 -164.293 83814.6 -1218.58 30043.1)
(-15205.6 -8244.06 -31.1402 32566 -952.14 10424.9)
(-15691.4 8180.96 131.73 30757.9 -804.945 9733.26)
(-221661 -6056.88 195.035 86838.5 -780.859 36251.3)
(-262905 -1115.49 -244.72 9277.57 -1645.17 10179.4)
(-50339.1 -2861.47 -57.226 10237.3 -1368.88 -5013.08)
(-50858 2551.95 247.43 8071.91 -1220.34 -6012.73)
(-247088 1028.62 310.001 11517.8 -1198.68 15971.1)
(-268053 -1446.6 -248.135 12694.4 -2148.27 11885.4)
(-56551.4 -1597.47 -56.7612 1743.43 -1931.14 -8298.94)
(-57060.3 1240.09 264.961 -502.528 -1783.95 -9489.29)
(-251940 1323.02 322.983 14748.8 -1698.8 17180.9)
(-275448 -432.5 -249.299 15064.1 -2621.53 12857.5)
(-55249.4 -755.277 -60.8486 -2497.67 -2442.11 -7959.46)
(-55728.3 433.881 254.642 -4770.74 -2298.84 -9294.5)
(-259033 322.598 320.093 17060.7 -2179.03 17735.3)
(-290288 278.713 -262.829 12795.9 -2797 10981.2)
(-53264 -206.653 -75.2952 -3928.83 -2648.76 -6629.69)
(-53704.5 -67.1713 243.439 -6222.43 -2515.01 -8088.43)
(-273556 -376.692 324.215 14785.3 -2381.25 15495.4)
(-316667 248.536 -275.167 4594.59 -2458.77 5112.11)
(-51567.3 -238.167 -88.3939 -7162.11 -2357.79 -6333.5)
(-52014.3 -2.5319 224.605 -9436.85 -2243.4 -7897.79)
(-299716 -391.895 324.324 6625.73 -2097.88 9305.62)
(-368521 -19.1534 -262.65 -59898.1 -1628.2 -17406.6)
(-62197.1 -644.787 -92.7302 -63335.5 -1560.22 -21271.4)
(-62771.7 381.689 178.923 -65090.4 -1480.77 -22808.3)
(-351888 -296.978 292.087 -57036.3 -1365.72 -13347.7)
(-414648 357.526 -240.238 -444945 -465.472 -30544.3)
(-63634.5 -128.895 -138.37 -420047 -384.662 -28223.9)
(-63532.6 -86.8501 124.389 -416499 -358.208 -28483.8)
(-398511 -775.191 225.997 -429328 -372.917 -24269.1)
(-234395 6029.96 -50.6851 83335 -414.122 30437.3)
(-15264.3 -8275.49 -8.29908 31648.8 -324.891 10129.8)
(-15750.1 8175.16 41.6278 29901 -276.974 9466.6)
(-219206 -5987.36 60.9497 86592.9 -272.248 36760)
(-260232 -1135.91 -74.8212 9121.91 -561.018 10853.8)
(-50086.8 -2881.77 -14.7155 9309.49 -467.121 -5135.08)
(-50614.7 2542.25 78.2779 7191.89 -418.565 -6098.5)
(-244430 1036.18 96.7721 11516.6 -415.549 16775.1)
(-265353 -1451.72 -76.2068 12472.6 -722.613 12641.4)
(-56213.2 -1609.51 -14.2545 772.283 -647.831 -8346.7)
(-56730.4 1226.52 84.4303 -1442.81 -599.398 -9496.79)
(-249258 1318.89 101.567 14632.1 -575.015 18079.2)
(-272758 -440.083 -77.0675 14841.9 -866.25 13517.6)
(-54906.9 -766.342 -15.7058 -3446.46 -805.018 -8111.34)
(-55393 423.467 81.4725 -5702 -757.549 -9404.96)
(-256363 322.323 101.217 16905.2 -719.778 18541)
(-287612 270.271 -81.3068 12694.3 -911.723 11333.4)
(-52954.4 -215.273 -20.3288 -4765.35 -862.082 -7104.3)
(-53402 -75.2952 77.5586 -7050.58 -817.536 -8522.14)
(-270903 -374.49 102.326 14722.1 -773.237 15989.9)
(-314000 254.393 -84.9325 4676.93 -793.885 5018.11)
(-51339.7 -233.98 -24.5768 -7810.64 -760.636 -7273.44)
(-51793.4 -18.3414 70.8554 -10083 -722.422 -8797.95)
(-297071 -401.991 101.754 6728.33 -673.175 9348.91)
(-365815 23.8275 -80.9407 -59522.3 -522.045 -17901.2)
(-62085.1 -617.832 -26.5186 -63614.9 -500.626 -22625.8)
(-62666 347.512 55.6189 -65371.5 -474.044 -24123.5)
(-349194 -342.636 90.9824 -56650.8 -434.038 -13707.6)
(-411518 422.835 -73.7755 -441959 -149.928 -30768.6)
(-62972.4 -94.4718 -41.9634 -417528 -125.074 -29174)
(-62875.4 -127.14 37.0434 -413981 -116.213 -29392.4)
(-395359 -844.229 68.9728 -426330 -118.844 -24348.2)
)
;

boundaryField
{
    interface
    {
        type            calculated;
        value           nonuniform List<symmTensor> 
192
(
(-64.6144 0.242714 4.16116 844256 3721.25 300100)
(-66.5791 0.00372535 5.9362 667996 -4562.5 273318)
(-67.4051 -0.344127 6.1746 689633 -4257.16 280767)
(-68.0291 -0.716673 6.11369 719409 -3213.58 290464)
(-67.8751 -1.04753 5.90353 753485 -2858.03 302989)
(-68.588 -1.71475 5.6377 799018 -3389.61 322677)
(-66.4716 -2.16177 5.0689 810415 -4162 351552)
(-69.7963 -4.58009 4.59154 372505 -3079.01 372523)
(-62.4753 0.132163 2.16452 726202 -20003 611333)
(-63.4848 -0.106793 3.23636 627054 -10125.1 574180)
(-63.9656 -0.440473 3.33606 635856 -8410.32 584738)
(-64.4539 -0.845197 3.25069 655935 -8167.78 603684)
(-64.1715 -1.21328 3.07531 685509 -8232.88 631291)
(-64.9487 -1.97007 2.86545 729196 -8667.85 676425)
(-62.6605 -2.46999 2.49809 746218 -8565.64 745791)
(-66.4897 -5.06231 2.1896 351672 -4092.41 810365)
(-65.6379 0.109793 1.76287 640240 -7435.9 575363)
(-66.5675 -0.152335 2.61309 567335 -6624.83 555748)
(-67.0443 -0.513096 2.69138 578956 -7735.55 564997)
(-67.5316 -0.967869 2.62094 596484 -9043.07 583453)
(-67.1056 -1.39227 2.4786 621865 -9765.94 612081)
(-67.7788 -2.25047 2.30403 661189 -9626.79 658565)
(-64.9577 -2.8374 2.01943 677769 -8056.19 728409)
(-68.6306 -5.64016 1.76184 323099 -3064.19 799134)
(-65.583 0.0658107 1.13228 591570 -3654.97 531702)
(-66.3198 -0.215531 1.72816 523997 -4421.11 518018)
(-66.6777 -0.589416 1.77688 537426 -6203.39 527661)
(-67.1078 -1.06978 1.71701 555120 -8010.09 545106)
(-66.598 -1.52354 1.60875 579170 -8953.66 572883)
(-67.2545 -2.42975 1.47913 616765 -8477.93 617858)
(-64.2867 -3.05422 1.29009 633952 -6326.66 684569)
(-68.033 -5.92634 1.12088 303875 -1957.85 754831)
(-66.4847 0.0501918 0.846831 563510 -2640.29 505962)
(-67.1736 -0.250814 1.28741 497451 -3435.74 494484)
(-67.4793 -0.644524 1.32434 510984 -4828.05 505014)
(-67.8796 -1.14982 1.27968 528929 -6285.76 521987)
(-67.293 -1.63193 1.19938 553004 -7011.11 548610)
(-67.8873 -2.57854 1.10128 590518 -6433.73 591694)
(-64.7217 -3.23901 0.964479 608516 -4486.28 655647)
(-68.3791 -6.17129 0.836965 292343 -1282.14 725105)
(-66.5991 0.0347428 0.536937 546445 -1957.91 491035)
(-67.2345 -0.280324 0.828637 481221 -2612.44 480529)
(-67.4914 -0.686855 0.852616 494491 -3516.6 491652)
(-67.8646 -1.20727 0.821338 512504 -4433.3 508422)
(-67.2357 -1.70623 0.767301 536899 -4839.97 534090)
(-67.8083 -2.67507 0.701708 574777 -4331.78 575615)
(-64.5621 -3.35503 0.614862 593326 -2916.75 637632)
(-68.2168 -6.31989 0.534104 285275 -827.316 706521)
(-66.8838 0.0285089 0.316863 536416 -1218.58 482644)
(-67.5052 -0.296515 0.487784 471698 -1645.17 472599)
(-67.739 -0.713292 0.502303 484789 -2148.27 483980)
(-68.0969 -1.24462 0.484067 502823 -2621.53 500616)
(-67.4366 -1.7557 0.452781 527477 -2797 525662)
(-67.9816 -2.7395 0.413882 565664 -2458.77 566182)
(-64.6631 -3.43324 0.364058 584518 -1628.2 627010)
(-68.2849 -6.42044 0.315607 281115 -465.472 695515)
(-66.9238 0.0239714 0.0992327 531733 -414.122 478836)
(-67.5307 -0.3056 0.155063 467253 -561.018 468984)
(-67.7508 -0.726688 0.159727 480273 -722.613 480442)
(-68.1004 -1.26256 0.15353 498322 -866.25 496998)
(-67.4296 -1.77911 0.143372 523106 -911.723 521745)
(-67.9651 -2.76904 0.130595 561447 -793.885 561788)
(-64.6279 -3.46936 0.115093 580434 -522.045 622055)
(-68.2362 -6.46638 0.0993475 279176 -149.928 690366)
(381742 4889.22 -6.43427 896132 -0.774599 -27.473)
(355665 -2455.95 -9.42596 720069 -0.697184 -22.39)
(362614 -1507.18 -9.90275 741670 -0.427163 -20.3183)
(372390 -54.3569 -9.92099 771473 -0.322365 -20.1741)
(385222 439.574 -9.81432 805601 -0.290614 -21.0979)
(406157 -317.605 -9.71735 851601 -0.359524 -22.8826)
(439101 -1681.12 -9.5464 865089 -0.412574 -25.8116)
(468177 -1723.95 -9.84996 432400 -0.603082 -28.6525)
(700230 -11121.2 -4.79709 812376 -0.358547 -36.0346)
(658466 -3025.62 -7.49508 704673 -0.357564 -35.016)
(667903 -872.365 -7.86078 711905 -0.18998 -34.5895)
(687560 73.3207 -7.84639 733114 -0.0914442 -34.6247)
(716118 319.259 -7.78235 766088 -0.0266164 -34.9685)
(763454 -351.178 -7.76221 814013 -0.00657435 -35.5834)
(837751 -1531.17 -7.76214 833771 -0.00267751 -36.444)
(906060 -1203.85 -8.24926 423054 -0.0607733 -37.1832)
(694254 14821 -5.12079 804843 -0.189477 -32.2368)
(651944 5726.97 -7.96305 696388 -0.17515 -31.5221)
(661118 2866.32 -8.37821 703478 -0.0487763 -31.1597)
(680675 1386.18 -8.3649 724757 0.0629932 -31.172)
(709202 706.873 -8.27343 757791 0.158724 -31.5453)
(756496 991.833 -8.19549 805752 0.246038 -32.1153)
(830614 1746.52 -8.10258 825924 0.310934 -33.0896)
(899182 1092.73 -8.48405 419698 0.330257 -34.0988)
(373345 -3199.96 -5.99328 874296 -0.117168 -33.1016)
(346819 3612.18 -9.24213 698137 -0.0735237 -32.6777)
(353392 2341.82 -9.73939 719759 0.049695 -32.4136)
(363039 666.591 -9.73277 749779 0.179118 -32.4082)
(375803 -11.571 -9.59995 784054 0.292005 -32.6879)
(396472 535.054 -9.47382 830059 0.423752 -32.9773)
(428339 1586.53 -9.23297 844122 0.528073 -33.6052)
(455727 1412.25 -9.57273 423079 0.6703 -34.189)
(-12.7072 0.810958 2.88465 823404 5182.13 292915)
(-7.62839 0.477976 4.34962 647198 -3640.62 265566)
(-5.73248 -0.153685 4.52613 669054 -3614.9 272790)
(-5.08176 -0.649582 4.48923 699047 -2713.57 282299)
(-5.77254 -0.994629 4.37498 733287 -2433.7 294750)
(-5.27524 -1.58575 4.3392 779195 -2994.48 314734)
(-8.05458 -1.6917 4.08732 792788 -3759.08 345095)
(1.60677 -4.21621 4.27691 370520 -2738.08 370594)
(-23.6113 0.242209 0.823606 700582 -17285.3 591453)
(-22.5685 0.0153623 1.55365 602053 -8210.32 553036)
(-22.151 -0.362667 1.57719 611168 -6953.53 562713)
(-21.6255 -0.747728 1.52249 631219 -6974.8 580983)
(-21.7967 -1.00113 1.47433 660595 -7198.27 608047)
(-19.9882 -1.55599 1.52478 704235 -7744.8 652879)
(-21.0566 -1.42943 1.50383 723107 -7804.01 723013)
(-7.966 -4.0312 1.7713 345089 -3716.75 793002)
(-23.2032 0.111003 1.03342 615389 -5203.96 555462)
(-22.3705 -0.127225 1.75068 542209 -4712.52 534215)
(-21.9288 -0.448514 1.8247 553921 -6116.48 542371)
(-21.2609 -0.82338 1.79298 571316 -7642.15 559964)
(-21.2965 -1.06087 1.7403 596402 -8533.23 587844)
(-19.0237 -1.63682 1.73292 635548 -8556.95 633763)
(-19.8673 -1.44657 1.65196 653699 -7239.1 704072)
(-5.01772 -4.2837 1.69446 314920 -2747.73 779932)
(-25.5639 0.0337551 0.659221 568251 -2003.71 512732)
(-25.052 -0.216337 1.19867 499727 -2862.87 497427)
(-24.7454 -0.510618 1.25768 512924 -4778.9 505926)
(-24.0011 -0.868866 1.23251 530340 -6716.26 522416)
(-23.859 -1.07845 1.19138 554023 -7794.43 549338)
(-21.0703 -1.64511 1.18149 591361 -7484.4 593632)
(-21.4696 -1.38831 1.12604 609914 -5597.02 660661)
(-5.19352 -4.32358 1.15004 295249 -1697.73 735724)
(-25.7225 0.0216907 0.581656 541464 -1474.23 487736)
(-25.2195 -0.243329 1.00083 474027 -2285.34 474715)
(-24.8885 -0.542116 1.05387 487074 -3723.16 484117)
(-24.0584 -0.906003 1.03711 504593 -5243.75 500108)
(-23.8288 -1.11335 1.00266 528219 -6059.73 525825)
(-20.7937 -1.68795 0.980259 565410 -5618.49 568173)
(-21.0613 -1.40972 0.922817 584642 -3895.3 632356)
(-3.98296 -4.43893 0.903008 283590 -1074.65 706363)
(-26.3295 0.0146919 0.379914 525289 -1187.5 473311)
(-25.8514 -0.259965 0.663688 458428 -1835.59 461334)
(-25.5102 -0.563399 0.700854 471043 -2747.81 471364)
(-24.6175 -0.930889 0.689485 488515 -3688.87 487150)
(-24.3054 -1.13541 0.666282 512388 -4148.92 511893)
(-21.062 -1.71145 0.649532 549885 -3735.99 552652)
(-21.1798 -1.41529 0.612241 569581 -2484.88 614835)
(-3.49716 -4.49999 0.597114 276462 -675.511 688104)
(-26.4308 0.0147956 0.235845 515821 -780.859 465233)
(-25.9445 -0.266333 0.403295 449318 -1198.68 453771)
(-25.5822 -0.575103 0.426049 461656 -1698.8 464088)
(-24.6473 -0.947173 0.419596 479074 -2179.03 479749)
(-24.2905 -1.15288 0.406021 503153 -2381.25 503863)
(-20.9398 -1.73203 0.393862 540919 -2097.88 543599)
(-20.9965 -1.42838 0.371016 560864 -1365.72 604553)
(-2.97211 -4.55087 0.356386 272279 -372.917 677338)
(-26.565 0.0137478 0.0741706 511408 -272.248 461575)
(-26.0812 -0.270108 0.129085 445076 -415.549 450334)
(-25.7101 -0.58096 0.136541 457298 -575.015 460745)
(-24.7551 -0.954634 0.134268 474695 -719.778 476331)
(-24.3704 -1.16081 0.130004 498878 -773.237 500145)
(-20.9644 -1.74021 0.12586 536776 -673.175 539396)
(-20.9726 -1.43314 0.1193 556826 -434.038 599769)
(-2.7831 -4.57304 0.114221 270331 -118.844 672313)
(468253 9.84491 1786.52 -28.458 -0.567275 432493)
(439110 9.55067 1811.03 -25.4988 -0.377304 865046)
(406146 9.73552 468.471 -22.352 -0.310782 851620)
(385562 9.85452 -463.942 -20.2233 -0.210172 806810)
(374096 9.99482 -610.985 -18.6653 -0.169505 777142)
(367492 10.0812 -443.039 -17.5331 -0.108505 758718)
(363735 10.1453 -240.238 -16.8448 -0.0679504 747839)
(361999 10.1747 -73.7755 -16.5013 -0.0213227 742749)
(906146 8.23723 1293.71 -37.0068 -0.0186923 423221)
(837796 7.75311 1788.04 -36.1822 0.038276 834013)
(763661 7.75607 697.5 -35.1688 0.0480235 814578)
(717322 7.77712 -74.5526 -34.3569 0.0523669 767438)
(691664 7.83357 -303.661 -33.7211 0.0367931 735770)
(677119 7.86719 -251.297 -33.2266 0.0299053 715955)
(668976 7.89659 -138.37 -32.9199 0.0166383 704386)
(665255 7.90982 -41.9634 -32.7495 0.00664016 699054)
(899274 8.47041 -1025.59 -33.9219 0.376247 419913)
(830662 8.08908 -1547.81 -32.8192 0.356241 826322)
(756666 8.18354 -607.419 -31.6849 0.305413 806620)
(710325 8.26361 95.5331 -30.9054 0.239118 759640)
(684633 8.35532 292.215 -30.2328 0.180845 728135)
(670065 8.41193 232.357 -29.7691 0.125283 708444)
(661909 8.45441 124.389 -29.459 0.0730909 696958)
(658184 8.4733 37.0434 -29.3119 0.0241175 691667)
(455778 9.54927 -1388.95 -34.0202 0.717455 423205)
(428350 9.20921 -1537.52 -33.347 0.574872 844373)
(396473 9.45188 -397.511 -32.5822 0.483122 830797)
(376170 9.58532 455.498 -32.1244 0.368073 786542)
(364766 9.73156 585.263 -31.6268 0.283471 757358)
(358197 9.81948 420.417 -31.3277 0.193861 739319)
(354462 9.884 225.997 -31.0982 0.115584 728703)
(352738 9.91324 68.9728 -30.9911 0.0379695 723748)
)
;
    }
    symmetry
    {
        type            symmetry;
    }
    bottom
    {
        type            calculated;
        value           nonuniform List<symmTensor> 
32
(
(-792707 26642.5 26.3083 -134912 26868.9 -822472)
(-521698 27837.4 -134.992 -15259.9 -25502.7 -202828)
(-454777 27534.3 -688.208 -13855 -9915.89 -137477)
(-421561 26197.1 -737.589 -11171.9 -4361.26 -127631)
(-402079 24977.1 -524.97 -9275.14 -2799.93 -122430)
(-390619 24151.7 -316.316 -8879.58 -1990.35 -119173)
(-384171 23669.9 -164.293 -9064.6 -1230.34 -117285)
(-381251 23450.4 -50.6851 -9267.42 -418.634 -116419)
(-220689 -14376.6 308.237 -30823.2 27749.8 -591010)
(-29028.4 -12436.9 600.375 57881.9 -23984.2 -33645.2)
(-21635.6 -10936.8 109.499 42037.4 -9885.84 8994.05)
(-23407.8 -10437.9 -105.303 35109.5 -4280.04 6299.77)
(-23615.2 -10437.8 -117.262 32013.2 -2493.63 3926.34)
(-23542.7 -10537.3 -70.3215 29799.7 -1666.88 2707.79)
(-23499 -10607.8 -31.1402 28265.5 -1014.23 2131.46)
(-23491.1 -10638.7 -8.29908 27476.6 -345.192 1903.05)
(-219453 17721.4 -239.434 -30910.5 28223.4 -586741)
(-29796.2 13639.2 -341.652 54949.1 -22970 -34887.4)
(-22327.2 11175.8 205.007 39290.1 -9064.07 7638.89)
(-24071.7 10247.3 402.91 32705.3 -3676.35 5127.75)
(-24285 10038.2 355.429 29882.1 -2065.98 2893.31)
(-24217.1 10032 239.588 27865.5 -1382.19 1768.07)
(-24174.5 10051.8 131.73 26458.2 -851.42 1250.15)
(-24166.6 10062.6 41.6278 25731.4 -292.239 1050.15)
(-778719 -25308.1 207.512 -134722 28878.4 -808257)
(-509999 -27128.8 369.196 -20529.6 -22303.5 -201813)
(-442181 -27235.7 818.793 -17027.8 -7397.09 -135654)
(-408730 -26202.8 827.076 -12477.8 -2523.5 -124899)
(-389199 -25177.5 594.383 -9242.89 -1509.7 -119112)
(-377713 -24466.7 366.992 -7930.33 -1140.62 -115466)
(-371250 -24047.6 195.035 -7546 -748.497 -113338)
(-368323 -23855.8 60.9497 -7476.63 -262.614 -112358)
)
;
    }
}


// ************************************************************************* //
