/*--------------------------------*- C++ -*----------------------------------*\
| =========                 |                                                 |
| \\      /  F ield         | OpenFOAM: The Open Source CFD Toolbox           |
|  \\    /   O peration     | Version:  v1912                                 |
|   \\  /    A nd           | Website:  www.openfoam.com                      |
|    \\/     M anipulation  |                                                 |
\*---------------------------------------------------------------------------*/
FoamFile
{
    version     2.0;
    format      ascii;
    class       volScalarField;
    location    "0.23/solid";
    object      T;
}
// * * * * * * * * * * * * * * * * * * * * * * * * * * * * * * * * * * * * * //

dimensions      [0 0 0 1 0 0 0];


internalField   nonuniform List<scalar> 
256
(
291.988
292.484
292.486
291.989
291.88
292.426
292.428
291.88
291.869
292.421
292.422
291.87
291.857
292.415
292.417
291.859
291.837
292.405
292.407
291.839
291.799
292.385
292.387
291.801
291.695
292.314
292.316
291.696
290.954
291.631
291.636
290.961
292.528
292.948
292.948
292.523
292.473
292.941
292.94
292.468
292.468
292.94
292.94
292.463
292.462
292.94
292.939
292.457
292.452
292.939
292.939
292.447
292.431
292.937
292.936
292.427
292.36
292.902
292.901
292.356
291.695
292.314
292.316
291.696
292.588
292.975
292.975
292.583
292.54
292.971
292.971
292.534
292.535
292.971
292.97
292.53
292.53
292.971
292.97
292.524
292.52
292.971
292.97
292.515
292.5
292.969
292.968
292.495
292.431
292.937
292.936
292.427
291.799
292.385
292.387
291.801
292.606
292.977
292.976
292.601
292.56
292.973
292.973
292.554
292.555
292.973
292.972
292.549
292.55
292.973
292.972
292.544
292.54
292.972
292.972
292.534
292.52
292.971
292.97
292.515
292.452
292.939
292.939
292.447
291.837
292.405
292.407
291.839
292.616
292.977
292.976
292.61
292.57
292.974
292.973
292.564
292.565
292.973
292.973
292.559
292.56
292.973
292.972
292.554
292.55
292.973
292.972
292.544
292.53
292.971
292.97
292.524
292.462
292.94
292.939
292.457
291.857
292.415
292.417
291.859
292.621
292.977
292.977
292.615
292.576
292.974
292.973
292.569
292.571
292.974
292.973
292.564
292.565
292.973
292.973
292.559
292.555
292.973
292.972
292.549
292.535
292.971
292.97
292.529
292.468
292.94
292.94
292.462
291.868
292.42
292.422
291.87
292.624
292.977
292.977
292.618
292.579
292.974
292.973
292.572
292.574
292.974
292.973
292.567
292.568
292.974
292.973
292.562
292.558
292.973
292.972
292.552
292.538
292.971
292.971
292.532
292.471
292.94
292.94
292.465
291.875
292.423
292.425
291.876
292.625
292.977
292.977
292.619
292.58
292.974
292.973
292.573
292.575
292.974
292.973
292.568
292.569
292.974
292.973
292.563
292.559
292.973
292.972
292.553
292.539
292.971
292.971
292.533
292.472
292.941
292.94
292.467
291.877
292.425
292.427
291.879
)
;

boundaryField
{
    interface
    {
        type            fixedValue;
        value           nonuniform List<scalar> 
192
(
290.056
289.973
289.932
289.872
289.774
289.612
289.301
288.399
290.836
290.786
290.753
290.701
290.617
290.471
290.18
289.301
291.111
291.067
291.035
290.985
290.903
290.759
290.47
289.611
291.252
291.209
291.177
291.128
291.046
290.902
290.616
289.773
291.332
291.29
291.259
291.209
291.127
290.984
290.699
289.869
291.38
291.338
291.307
291.257
291.175
291.032
290.749
289.927
291.407
291.365
291.334
291.284
291.202
291.059
290.777
289.961
291.42
291.377
291.346
291.296
291.214
291.071
290.79
289.977
289.922
289.839
289.798
289.737
289.64
289.477
289.162
288.246
290.562
290.51
290.477
290.426
290.342
290.197
289.902
288.994
290.581
290.53
290.498
290.447
290.364
290.219
289.924
289.018
289.98
289.901
289.863
289.804
289.707
289.544
289.229
288.317
290.113
290.033
289.994
289.935
289.839
289.675
289.36
288.452
290.895
290.847
290.815
290.765
290.682
290.537
290.244
289.36
291.171
291.128
291.098
291.05
290.969
290.827
290.537
289.675
291.31
291.269
291.239
291.192
291.111
290.969
290.682
289.839
291.39
291.349
291.319
291.272
291.192
291.05
290.765
289.935
291.437
291.396
291.367
291.319
291.239
291.097
290.814
289.994
291.464
291.423
291.393
291.345
291.265
291.124
290.842
290.028
291.476
291.435
291.405
291.358
291.277
291.136
290.855
290.043
288.245
289.161
289.476
289.638
289.734
289.793
289.826
289.842
288.994
289.902
290.197
290.341
290.424
290.473
290.501
290.514
289.018
289.924
290.218
290.363
290.446
290.495
290.523
290.536
288.317
289.229
289.544
289.707
289.803
289.861
289.895
289.911
)
;
    }
    symmetry
    {
        type            symmetry;
    }
    bottom
    {
        type            fixedValue;
        value           uniform 293;
    }
}


// ************************************************************************* //
