/*--------------------------------*- C++ -*----------------------------------*\
| =========                 |                                                 |
| \\      /  F ield         | OpenFOAM: The Open Source CFD Toolbox           |
|  \\    /   O peration     | Version:  v1912                                 |
|   \\  /    A nd           | Website:  www.openfoam.com                      |
|    \\/     M anipulation  |                                                 |
\*---------------------------------------------------------------------------*/
FoamFile
{
    version     2.0;
    format      ascii;
    class       volVectorField;
    location    "0.55/fluid";
    object      cellMotionU;
}
// * * * * * * * * * * * * * * * * * * * * * * * * * * * * * * * * * * * * * //

dimensions      [0 1 -1 0 0 0 0];


internalField   nonuniform List<vector> 
14592
(
(1.59594e-10 -3.52034e-10 2.6709e-10)
(4.45242e-10 -9.84406e-10 7.56018e-10)
(7.08718e-10 -1.57244e-09 1.23721e-09)
(9.59481e-10 -2.13702e-09 1.74209e-09)
(1.20738e-09 -2.69361e-09 2.3013e-09)
(1.46127e-09 -3.24791e-09 2.94184e-09)
(1.73162e-09 -3.79704e-09 3.69091e-09)
(2.0318e-09 -4.32471e-09 4.57522e-09)
(2.38174e-09 -4.79519e-09 5.62201e-09)
(2.81508e-09 -5.13812e-09 6.85828e-09)
(3.3984e-09 -5.22298e-09 8.31711e-09)
(4.27797e-09 -4.79288e-09 1.00567e-08)
(5.79939e-09 -3.2861e-09 1.2234e-08)
(8.85304e-09 7.11534e-10 1.53506e-08)
(1.55082e-08 1.07753e-08 2.07647e-08)
(2.74333e-08 3.10554e-08 2.9536e-08)
(4.74978e-10 -1.04532e-09 7.94059e-10)
(1.32523e-09 -2.92353e-09 2.24782e-09)
(2.10848e-09 -4.671e-09 3.67692e-09)
(2.85434e-09 -6.35205e-09 5.17772e-09)
(3.5893e-09 -8.00943e-09 6.83582e-09)
(4.34062e-09 -9.66505e-09 8.73358e-09)
(5.13821e-09 -1.13133e-08 1.09504e-08)
(6.01942e-09 -1.2913e-08 1.35646e-08)
(7.03635e-09 -1.43679e-08 1.66519e-08)
(8.27254e-09 -1.54969e-08 2.02843e-08)
(9.87827e-09 -1.59781e-08 2.45292e-08)
(1.2142e-08 -1.52552e-08 2.94615e-08)
(1.56615e-08 -1.23564e-08 3.52216e-08)
(2.15622e-08 -5.65905e-09 4.21116e-08)
(3.14714e-08 6.91395e-09 5.06147e-08)
(4.42682e-08 2.34624e-08 5.96245e-08)
(7.79993e-10 -1.70764e-09 1.30124e-09)
(2.17581e-09 -4.7773e-09 3.68272e-09)
(3.46107e-09 -7.63809e-09 6.02323e-09)
(4.68235e-09 -1.03949e-08 8.4768e-09)
(5.88358e-09 -1.3124e-08 1.11849e-08)
(7.10796e-09 -1.58671e-08 1.42806e-08)
(8.40247e-09 -1.86271e-08 1.78934e-08)
(9.8227e-09 -2.13552e-08 2.215e-08)
(1.14412e-08 -2.39297e-08 2.71729e-08)
(1.33615e-08 -2.61188e-08 3.30723e-08)
(1.57461e-08 -2.75314e-08 3.99348e-08)
(1.88733e-08 -2.75496e-08 4.78121e-08)
(2.32396e-08 -2.52802e-08 5.67189e-08)
(2.96785e-08 -1.96946e-08 6.66755e-08)
(3.92391e-08 -1.04482e-08 7.77297e-08)
(5.07415e-08 -8.2568e-10 8.86788e-08)
(1.0681e-09 -2.31798e-09 1.77623e-09)
(2.97871e-09 -6.48771e-09 5.02583e-09)
(4.73591e-09 -1.03807e-08 8.2161e-09)
(6.40252e-09 -1.41455e-08 1.15558e-08)
(8.03656e-09 -1.78913e-08 1.52342e-08)
(9.69591e-09 -2.16884e-08 1.94318e-08)
(1.14417e-08 -2.55606e-08 2.43236e-08)
(1.33433e-08 -2.94752e-08 3.00822e-08)
(1.54839e-08 -3.33221e-08 3.68743e-08)
(1.79678e-08 -3.68835e-08 4.48502e-08)
(2.09292e-08 -3.9791e-08 5.41202e-08)
(2.45486e-08 -4.14803e-08 6.47156e-08)
(2.90835e-08 -4.11876e-08 7.65396e-08)
(3.48873e-08 -3.81139e-08 8.93041e-08)
(4.2371e-08 -3.20769e-08 1.02444e-07)
(5.06576e-08 -2.53676e-08 1.13957e-07)
(1.33337e-09 -2.85556e-09 2.20816e-09)
(3.7175e-09 -7.99636e-09 6.2463e-09)
(5.90675e-09 -1.28069e-08 1.0205e-08)
(7.97713e-09 -1.74767e-08 1.4339e-08)
(9.99976e-09 -2.21527e-08 1.8881e-08)
(1.20443e-08 -2.69379e-08 2.4051e-08)
(1.4184e-08 -3.18893e-08 3.00639e-08)
(1.64997e-08 -3.70102e-08 3.71327e-08)
(1.90842e-08 -4.22371e-08 4.54676e-08)
(2.20432e-08 -4.74161e-08 5.52654e-08)
(2.54895e-08 -5.22693e-08 6.66806e-08)
(2.95279e-08 -5.63458e-08 7.9776e-08)
(3.4236e-08 -5.8955e-08 9.44433e-08)
(3.95938e-08 -5.91327e-08 1.10234e-07)
(4.54985e-08 -5.58128e-08 1.26065e-07)
(5.12824e-08 -4.9608e-08 1.38874e-07)
(1.57112e-09 -3.30054e-09 2.58862e-09)
(4.37845e-09 -9.2469e-09 7.31946e-09)
(6.95101e-09 -1.48248e-08 1.19479e-08)
(9.37588e-09 -2.02638e-08 1.67678e-08)
(1.17334e-08 -2.57457e-08 2.20443e-08)
(1.41032e-08 -3.14104e-08 2.80296e-08)
(1.65684e-08 -3.73546e-08 3.49696e-08)
(1.92213e-08 -4.36313e-08 4.31106e-08)
(2.21674e-08 -5.02454e-08 5.27008e-08)
(2.55291e-08 -5.71435e-08 6.39855e-08)
(2.94349e-08 -6.4195e-08 7.71828e-08)
(3.4025e-08 -7.11457e-08 9.24652e-08)
(3.93932e-08 -7.75093e-08 1.09864e-07)
(4.55159e-08 -8.22823e-08 1.2911e-07)
(5.20764e-08 -8.33931e-08 1.49069e-07)
(5.77707e-08 -7.85809e-08 1.6546e-07)
(1.77746e-09 -3.63391e-09 2.91134e-09)
(4.95109e-09 -1.01865e-08 8.22769e-09)
(7.85222e-09 -1.63495e-08 1.34166e-08)
(1.05749e-08 -2.23855e-08 1.87993e-08)
(1.32066e-08 -2.85098e-08 2.46659e-08)
(1.5833e-08 -3.48961e-08 3.12891e-08)
(1.85444e-08 -4.16811e-08 3.8935e-08)
(2.14422e-08 -4.89697e-08 4.78703e-08)
(2.46466e-08 -5.68405e-08 5.83688e-08)
(2.83044e-08 -6.53519e-08 7.07112e-08)
(3.26035e-08 -7.45495e-08 8.51856e-08)
(3.77947e-08 -8.447e-08 1.02087e-07)
(4.4241e-08 -9.51193e-08 1.21732e-07)
(5.24402e-08 -1.06296e-07 1.4438e-07)
(6.28653e-08 -1.16898e-07 1.69697e-07)
(7.37285e-08 -1.23185e-07 1.92844e-07)
(1.95001e-09 -3.83965e-09 3.1729e-09)
(5.42868e-09 -1.077e-08 8.9616e-09)
(8.59957e-09 -1.7306e-08 1.45952e-08)
(1.15605e-08 -2.37366e-08 2.04131e-08)
(1.4401e-08 -3.03022e-08 2.67175e-08)
(1.72096e-08 -3.72041e-08 3.37914e-08)
(2.00787e-08 -4.46119e-08 4.19071e-08)
(2.31131e-08 -5.26725e-08 5.13356e-08)
(2.64398e-08 -6.15226e-08 6.23535e-08)
(3.02215e-08 -7.13052e-08 7.52481e-08)
(3.4685e-08 -8.21992e-08 9.03288e-08)
(4.01777e-08 -9.44756e-08 1.07959e-07)
(4.72952e-08 -1.08609e-07 1.28643e-07)
(5.71339e-08 -1.25479e-07 1.53167e-07)
(7.16428e-08 -1.46479e-07 1.82594e-07)
(9.05776e-08 -1.70009e-07 2.13624e-07)
(1.59715e-10 -3.59351e-10 2.53683e-10)
(4.45368e-10 -1.00495e-09 7.17914e-10)
(7.07828e-10 -1.60559e-09 1.1735e-09)
(9.56464e-10 -2.18309e-09 1.65076e-09)
(1.19965e-09 -2.75281e-09 2.1766e-09)
(1.44533e-09 -3.32207e-09 2.7763e-09)
(1.70179e-09 -3.88918e-09 3.47371e-09)
(1.97882e-09 -4.44026e-09 4.29116e-09)
(2.29003e-09 -4.94379e-09 5.24873e-09)
(2.65802e-09 -5.33966e-09 6.36177e-09)
(3.12703e-09 -5.52048e-09 7.63837e-09)
(3.79271e-09 -5.29147e-09 9.07887e-09)
(4.8848e-09 -4.26357e-09 1.06888e-08)
(6.90371e-09 -1.60605e-09 1.24924e-08)
(1.07768e-08 4.33935e-09 1.44874e-08)
(1.63642e-08 1.41387e-08 1.57781e-08)
(4.75461e-10 -1.06692e-09 7.54287e-10)
(1.32557e-09 -2.98407e-09 2.13387e-09)
(2.1065e-09 -4.76884e-09 3.48794e-09)
(2.84558e-09 -6.48675e-09 4.90493e-09)
(3.56746e-09 -8.18363e-09 6.46484e-09)
(4.29548e-09 -9.88351e-09 8.242e-09)
(5.05347e-09 -1.15844e-08 1.03064e-08)
(5.86854e-09 -1.32511e-08 1.27235e-08)
(6.77549e-09 -1.47992e-08 1.55497e-08)
(7.82686e-09 -1.60725e-08 1.88242e-08)
(9.11443e-09 -1.68068e-08 2.25528e-08)
(1.08217e-08 -1.65748e-08 2.66859e-08)
(1.32945e-08 -1.47249e-08 3.10587e-08)
(1.71176e-08 -1.03924e-08 3.52769e-08)
(2.27271e-08 -3.12946e-09 3.83442e-08)
(2.83431e-08 4.2772e-09 3.83864e-08)
(7.81016e-10 -1.74269e-09 1.23594e-09)
(2.17721e-09 -4.87557e-09 3.49605e-09)
(3.45906e-09 -7.79627e-09 5.713e-09)
(4.67081e-09 -1.06138e-08 8.03054e-09)
(5.85248e-09 -1.3407e-08 1.05788e-08)
(7.04176e-09 -1.62215e-08 1.34786e-08)
(8.27634e-09 -1.90651e-08 1.68442e-08)
(9.59658e-09 -2.18967e-08 2.07824e-08)
(1.1049e-08 -2.46096e-08 2.53859e-08)
(1.26922e-08 -2.70044e-08 3.07179e-08)
(1.46101e-08 -2.87579e-08 3.67839e-08)
(1.69367e-08 -2.94019e-08 4.3478e-08)
(1.98883e-08 -2.83702e-08 5.04894e-08)
(2.37409e-08 -2.53009e-08 5.71322e-08)
(2.84719e-08 -2.09686e-08 6.20707e-08)
(3.24607e-08 -1.86094e-08 6.34464e-08)
(1.06999e-09 -2.36528e-09 1.687e-09)
(2.98236e-09 -6.62017e-09 4.77138e-09)
(4.73644e-09 -1.05943e-08 7.79339e-09)
(6.39204e-09 -1.44404e-08 1.0948e-08)
(8.00304e-09 -1.82727e-08 1.44101e-08)
(9.62021e-09 -2.21649e-08 1.83432e-08)
(1.12935e-08 -2.61461e-08 2.29024e-08)
(1.30742e-08 -3.0191e-08 2.8234e-08)
(1.50145e-08 -3.4204e-08 3.44674e-08)
(1.71657e-08 -3.79961e-08 4.16961e-08)
(1.95719e-08 -4.12602e-08 4.99384e-08)
(2.22547e-08 -4.35634e-08 5.90628e-08)
(2.51783e-08 -4.44182e-08 6.86589e-08)
(2.81641e-08 -4.35817e-08 7.7808e-08)
(3.07064e-08 -4.17867e-08 8.47632e-08)
(3.17766e-08 -4.13172e-08 8.71242e-08)
(1.3367e-09 -2.91361e-09 2.09755e-09)
(3.72476e-09 -8.15874e-09 5.93045e-09)
(5.91239e-09 -1.30684e-08 9.68078e-09)
(7.97273e-09 -1.78384e-08 1.35867e-08)
(9.97197e-09 -2.26197e-08 1.78627e-08)
(1.19726e-08 -2.75197e-08 2.27085e-08)
(1.40361e-08 -3.25998e-08 2.83152e-08)
(1.62245e-08 -3.78687e-08 3.48645e-08)
(1.85983e-08 -4.32726e-08 4.25234e-08)
(2.12081e-08 -4.8677e-08 5.14226e-08)
(2.40739e-08 -5.3844e-08 6.16163e-08)
(2.71403e-08 -5.8409e-08 7.30005e-08)
(3.01745e-08 -6.18774e-08 8.51462e-08)
(3.26211e-08 -6.37199e-08 9.70145e-08)
(3.34861e-08 -6.37771e-08 1.06459e-07)
(3.20689e-08 -6.32554e-08 1.10234e-07)
(1.57625e-09 -3.36727e-09 2.4593e-09)
(4.39066e-09 -9.43372e-09 6.95021e-09)
(6.96452e-09 -1.5126e-08 1.1336e-08)
(9.38184e-09 -2.06798e-08 1.58906e-08)
(1.17188e-08 -2.62825e-08 2.08593e-08)
(1.40479e-08 -3.20775e-08 2.64712e-08)
(1.64415e-08 -3.81643e-08 3.29452e-08)
(1.8974e-08 -4.45991e-08 4.04927e-08)
(2.17213e-08 -5.13899e-08 4.9313e-08)
(2.47534e-08 -5.84895e-08 5.95774e-08)
(2.81194e-08 -6.57801e-08 7.13986e-08)
(3.17901e-08 -7.30366e-08 8.47389e-08)
(3.55658e-08 -7.98506e-08 9.92869e-08)
(3.88338e-08 -8.54431e-08 1.14078e-07)
(4.02508e-08 -8.84509e-08 1.26816e-07)
(3.83094e-08 -8.77865e-08 1.33275e-07)
(1.78476e-09 -3.70721e-09 2.7663e-09)
(4.96933e-09 -1.03917e-08 7.81396e-09)
(7.87552e-09 -1.66801e-08 1.27316e-08)
(1.05951e-08 -2.28425e-08 1.78196e-08)
(1.32114e-08 -2.90991e-08 2.33454e-08)
(1.58043e-08 -3.56268e-08 2.95575e-08)
(1.84549e-08 -4.25642e-08 3.66932e-08)
(2.12496e-08 -5.00159e-08 4.4982e-08)
(2.42835e-08 -5.8058e-08 5.46448e-08)
(2.76623e-08 -6.67427e-08 6.5885e-08)
(3.15011e-08 -7.6103e-08 7.88619e-08)
(3.59174e-08 -8.61514e-08 9.36444e-08)
(4.09918e-08 -9.68417e-08 1.10089e-07)
(4.66337e-08 -1.07884e-07 1.27514e-07)
(5.21026e-08 -1.18145e-07 1.43815e-07)
(5.49771e-08 -1.24424e-07 1.53789e-07)
(1.95961e-09 -3.91695e-09 3.01534e-09)
(5.45355e-09 -1.09864e-08 8.51254e-09)
(8.63399e-09 -1.7655e-08 1.3853e-08)
(1.15967e-08 -2.42191e-08 1.93535e-08)
(1.44286e-08 -3.09243e-08 2.52936e-08)
(1.72133e-08 -3.79746e-08 3.19309e-08)
(2.00361e-08 -4.55404e-08 3.95087e-08)
(2.29903e-08 -5.37661e-08 4.82602e-08)
(2.61836e-08 -6.27814e-08 5.8409e-08)
(2.97488e-08 -7.27147e-08 7.01641e-08)
(3.38585e-08 -8.37159e-08 8.37021e-08)
(3.87569e-08 -9.59958e-08 9.91414e-08)
(4.48108e-08 -1.09892e-07 1.16465e-07)
(5.25861e-08 -1.25945e-07 1.35284e-07)
(6.26777e-08 -1.44656e-07 1.53977e-07)
(7.34212e-08 -1.63327e-07 1.67065e-07)
(1.59175e-10 -3.65644e-10 2.31165e-10)
(4.43441e-10 -1.02261e-09 6.5376e-10)
(7.03669e-10 -1.63413e-09 1.06809e-09)
(9.48157e-10 -2.22255e-09 1.50041e-09)
(1.18426e-09 -2.80386e-09 1.97497e-09)
(1.41813e-09 -3.38655e-09 2.51336e-09)
(1.65511e-09 -3.97016e-09 3.13499e-09)
(1.90032e-09 -4.54459e-09 3.85722e-09)
(2.15885e-09 -5.08396e-09 4.69168e-09)
(2.43794e-09 -5.54259e-09 5.64115e-09)
(2.75196e-09 -5.84448e-09 6.69074e-09)
(3.13575e-09 -5.86787e-09 7.79436e-09)
(3.66164e-09 -5.41344e-09 8.84211e-09)
(4.47665e-09 -4.12378e-09 9.60954e-09)
(5.7105e-09 -1.42435e-09 9.59001e-09)
(6.87388e-09 2.65743e-09 7.93928e-09)
(4.73902e-10 -1.08547e-09 6.87197e-10)
(1.32024e-09 -3.03617e-09 1.94351e-09)
(2.09454e-09 -4.85287e-09 3.17408e-09)
(2.82185e-09 -6.60284e-09 4.45823e-09)
(3.52341e-09 -8.33389e-09 5.86616e-09)
(4.21748e-09 -1.00725e-08 7.46165e-09)
(4.91982e-09 -1.18215e-08 9.30271e-09)
(5.64381e-09 -1.35527e-08 1.14385e-08)
(6.4013e-09 -1.51991e-08 1.39035e-08)
(7.20364e-09 -1.66388e-08 1.67021e-08)
(8.06886e-09 -1.76816e-08 1.97836e-08)
(9.02961e-09 -1.80599e-08 2.29869e-08)
(1.01515e-08 -1.74467e-08 2.59509e-08)
(1.14687e-08 -1.55866e-08 2.7913e-08)
(1.27151e-08 -1.27377e-08 2.74992e-08)
(1.28862e-08 -1.05902e-08 2.37142e-08)
(7.78784e-10 -1.77276e-09 1.12605e-09)
(2.16944e-09 -4.95992e-09 3.18428e-09)
(3.44132e-09 -7.9323e-09 5.19918e-09)
(4.63511e-09 -1.08015e-08 7.29967e-09)
(5.78566e-09 -1.36493e-08 9.6e-09)
(6.92292e-09 -1.65251e-08 1.22042e-08)
(8.07216e-09 -1.94415e-08 1.52065e-08)
(9.25386e-09 -2.23684e-08 1.86889e-08)
(1.04805e-08 -2.52188e-08 2.27092e-08)
(1.17534e-08 -2.78359e-08 2.72803e-08)
(1.30553e-08 -2.99834e-08 3.23278e-08)
(1.43406e-08 -3.13651e-08 3.76154e-08)
(1.55063e-08 -3.17319e-08 4.26158e-08)
(1.63143e-08 -3.11922e-08 4.63251e-08)
(1.62469e-08 -3.0773e-08 4.71997e-08)
(1.48093e-08 -3.21897e-08 4.45125e-08)
(1.06764e-09 -2.40573e-09 1.53737e-09)
(2.97368e-09 -6.73373e-09 4.34586e-09)
(4.7159e-09 -1.0777e-08 7.09315e-09)
(6.34952e-09 -1.46922e-08 9.95261e-09)
(7.92209e-09 -1.85966e-08 1.30786e-08)
(9.47483e-09 -2.25675e-08 1.66117e-08)
(1.1043e-08 -2.66393e-08 2.06808e-08)
(1.26533e-08 -3.07951e-08 2.53986e-08)
(1.43187e-08 -3.49574e-08 3.08498e-08)
(1.6025e-08 -3.89736e-08 3.70645e-08)
(1.77055e-08 -4.26109e-08 4.39673e-08)
(1.91956e-08 -4.55797e-08 5.12881e-08)
(2.01509e-08 -4.76485e-08 5.84165e-08)
(1.99484e-08 -4.8939e-08 6.42149e-08)
(1.77464e-08 -5.03538e-08 6.69743e-08)
(1.37249e-08 -5.29681e-08 6.56858e-08)
(1.33481e-09 -2.96308e-09 1.91157e-09)
(3.71707e-09 -8.29729e-09 5.40241e-09)
(5.8926e-09 -1.32913e-08 8.81209e-09)
(7.92944e-09 -1.81448e-08 1.23534e-08)
(9.88696e-09 -2.30121e-08 1.6215e-08)
(1.18174e-08 -2.80037e-08 2.05696e-08)
(1.37661e-08 -3.31835e-08 2.55757e-08)
(1.577e-08 -3.8566e-08 3.13753e-08)
(1.78481e-08 -4.41064e-08 3.80803e-08)
(1.99846e-08 -4.96914e-08 4.57472e-08)
(2.20888e-08 -5.51267e-08 5.43203e-08)
(2.39178e-08 -6.01348e-08 6.35323e-08)
(2.49499e-08 -6.43923e-08 7.27612e-08)
(2.42101e-08 -6.76483e-08 8.07837e-08)
(2.04154e-08 -7.0003e-08 8.56756e-08)
(1.4045e-08 -7.20015e-08 8.589e-08)
(1.57538e-09 -3.42397e-09 2.24147e-09)
(4.38587e-09 -9.59256e-09 6.33235e-09)
(6.94896e-09 -1.53811e-08 1.03205e-08)
(9.34379e-09 -2.10298e-08 1.44507e-08)
(1.16397e-08 -2.67289e-08 1.89393e-08)
(1.38989e-08 -3.26234e-08 2.3984e-08)
(1.61785e-08 -3.88135e-08 2.97674e-08)
(1.8528e-08 -4.53544e-08 3.64547e-08)
(2.09844e-08 -5.22534e-08 4.41832e-08)
(2.35555e-08 -5.94634e-08 5.30374e-08)
(2.61793e-08 -6.68683e-08 6.29872e-08)
(2.8659e-08 -7.42588e-08 7.38159e-08)
(3.04929e-08 -8.12653e-08 8.49151e-08)
(3.06435e-08 -8.72219e-08 9.50485e-08)
(2.74367e-08 -9.09975e-08 1.021e-07)
(2.05361e-08 -9.15131e-08 1.03959e-07)
(1.78551e-09 -3.76922e-09 2.52181e-09)
(4.96896e-09 -1.05654e-08 7.1206e-09)
(7.86728e-09 -1.69588e-08 1.15934e-08)
(1.05674e-08 -2.32242e-08 1.62085e-08)
(1.31465e-08 -2.95841e-08 2.12019e-08)
(1.56752e-08 -3.62159e-08 2.67886e-08)
(1.82204e-08 -4.32557e-08 3.31663e-08)
(2.08468e-08 -5.08021e-08 4.05153e-08)
(2.36145e-08 -5.89198e-08 4.89886e-08)
(2.65726e-08 -6.76402e-08 5.86883e-08)
(2.97415e-08 -7.696e-08 6.96182e-08)
(3.30723e-08 -8.68251e-08 8.15904e-08)
(3.63552e-08 -9.70716e-08 9.4051e-08)
(3.90351e-08 -1.0722e-07 1.05741e-07)
(3.99395e-08 -1.15959e-07 1.14274e-07)
(3.7808e-08 -1.20448e-07 1.16809e-07)
(1.9623e-09 -3.98211e-09 2.74935e-09)
(5.45884e-09 -1.11688e-08 7.75874e-09)
(8.63521e-09 -1.79478e-08 1.26174e-08)
(1.15832e-08 -2.46196e-08 1.76079e-08)
(1.43842e-08 -3.1432e-08 2.29778e-08)
(1.71137e-08 -3.85882e-08 2.89497e-08)
(1.98454e-08 -4.62539e-08 3.57271e-08)
(2.26539e-08 -5.45636e-08 4.34926e-08)
(2.56183e-08 -6.36275e-08 5.24012e-08)
(2.88237e-08 -7.35395e-08 6.25563e-08)
(3.23627e-08 -8.43858e-08 7.39679e-08)
(3.63336e-08 -9.62575e-08 8.64653e-08)
(4.08323e-08 -1.09261e-07 9.95197e-08)
(4.59359e-08 -1.23489e-07 1.11856e-07)
(5.16094e-08 -1.38748e-07 1.20772e-07)
(5.69373e-08 -1.52487e-07 1.22342e-07)
(1.58169e-10 -3.70831e-10 2.00528e-10)
(4.40286e-10 -1.03719e-09 5.67022e-10)
(6.9727e-10 -1.65762e-09 9.25375e-10)
(9.36715e-10 -2.25503e-09 1.29878e-09)
(1.16451e-09 -2.84603e-09 1.70674e-09)
(1.38494e-09 -3.43974e-09 2.167e-09)
(1.60047e-09 -4.03761e-09 2.69473e-09)
(1.81141e-09 -4.6319e-09 3.3017e-09)
(2.01515e-09 -5.20312e-09 3.99344e-09)
(2.20574e-09 -5.7173e-09 4.7643e-09)
(2.37411e-09 -6.12314e-09 5.58855e-09)
(2.51066e-09 -6.34941e-09 6.40637e-09)
(2.61295e-09 -6.29482e-09 7.1084e-09)
(2.67218e-09 -5.79637e-09 7.50212e-09)
(2.62812e-09 -4.54622e-09 7.34338e-09)
(2.25222e-09 -2.30348e-09 6.51507e-09)
(4.71045e-10 -1.10079e-09 5.96204e-10)
(1.31108e-09 -3.07914e-09 1.68531e-09)
(2.07627e-09 -4.92218e-09 2.75068e-09)
(2.78882e-09 -6.69854e-09 3.85904e-09)
(3.46638e-09 -8.45757e-09 5.06948e-09)
(4.12174e-09 -1.02282e-08 6.43377e-09)
(4.76225e-09 -1.20168e-08 7.99666e-09)
(5.38821e-09 -1.3803e-08 9.79238e-09)
(5.98999e-09 -1.55344e-08 1.18369e-08)
(6.544e-09 -1.71191e-08 1.41122e-08)
(7.00915e-09 -1.84246e-08 1.65398e-08)
(7.328e-09 -1.92866e-08 1.89421e-08)
(7.41954e-09 -1.95463e-08 2.09661e-08)
(7.17483e-09 -1.91275e-08 2.20326e-08)
(6.44073e-09 -1.8169e-08 2.14083e-08)
(5.29251e-09 -1.71881e-08 1.92146e-08)
(7.74441e-10 -1.79754e-09 9.7704e-10)
(2.15549e-09 -5.02958e-09 2.76144e-09)
(3.4133e-09 -8.04432e-09 4.50577e-09)
(4.58428e-09 -1.09558e-08 6.31909e-09)
(5.69764e-09 -1.38477e-08 8.29699e-09)
(6.77497e-09 -1.67723e-08 1.05241e-08)
(7.82912e-09 -1.97474e-08 1.30738e-08)
(8.86078e-09 -2.27515e-08 1.60032e-08)
(9.85183e-09 -2.57157e-08 1.93412e-08)
(1.07548e-08 -2.85182e-08 2.30657e-08)
(1.14782e-08 -3.09876e-08 2.70661e-08)
(1.18686e-08 -3.2936e-08 3.10834e-08)
(1.16933e-08 -3.4261e-08 3.46375e-08)
(1.06581e-08 -3.51538e-08 3.69952e-08)
(8.59842e-09 -3.63197e-08 3.74187e-08)
(6.26232e-09 -3.83602e-08 3.63109e-08)
(1.06235e-09 -2.4391e-09 1.33376e-09)
(2.95674e-09 -6.82715e-09 3.76951e-09)
(4.68146e-09 -1.09271e-08 6.14784e-09)
(6.28648e-09 -1.4898e-08 8.61665e-09)
(7.8123e-09 -1.88593e-08 1.13049e-08)
(9.29001e-09 -2.28912e-08 1.43273e-08)
(1.07394e-08 -2.70316e-08 1.77841e-08)
(1.21641e-08 -3.1271e-08 2.17551e-08)
(1.35413e-08 -3.55459e-08 2.62859e-08)
(1.48025e-08 -3.97316e-08 3.13603e-08)
(1.58037e-08 -4.36457e-08 3.68561e-08)
(1.62792e-08 -4.7081e-08 4.24792e-08)
(1.57908e-08 -4.99081e-08 4.76931e-08)
(1.37498e-08 -5.22822e-08 5.17097e-08)
(9.80759e-09 -5.48258e-08 5.37711e-08)
(5.3617e-09 -5.78289e-08 5.408e-08)
(1.3293e-09 -3.00367e-09 1.65878e-09)
(3.69919e-09 -8.41106e-09 4.68641e-09)
(5.85559e-09 -1.34735e-08 7.63879e-09)
(7.86079e-09 -1.83934e-08 1.06968e-08)
(9.76632e-09 -2.33271e-08 1.40185e-08)
(1.16133e-08 -2.83864e-08 1.77446e-08)
(1.34308e-08 -3.36366e-08 2.19991e-08)
(1.52308e-08 -3.90942e-08 2.68833e-08)
(1.69957e-08 -4.47198e-08 3.24606e-08)
(1.86551e-08 -5.04111e-08 3.87275e-08)
(2.00437e-08 -5.59951e-08 4.55662e-08)
(2.0833e-08 -6.12323e-08 5.26791e-08)
(2.04277e-08 -6.58407e-08 5.9499e-08)
(1.7944e-08 -6.95768e-08 6.52047e-08)
(1.26502e-08 -7.23702e-08 6.89556e-08)
(6.18547e-09 -7.4312e-08 7.06295e-08)
(1.57038e-09 -3.47038e-09 1.94549e-09)
(4.36913e-09 -9.72241e-09 5.494e-09)
(6.91341e-09 -1.55887e-08 8.94797e-09)
(9.27623e-09 -2.13117e-08 1.25153e-08)
(1.1519e-08 -2.70832e-08 1.63773e-08)
(1.36932e-08 -3.30479e-08 2.06954e-08)
(1.58391e-08 -3.93038e-08 2.56126e-08)
(1.79826e-08 -4.59017e-08 3.12472e-08)
(2.01251e-08 -5.28424e-08 3.76786e-08)
(2.2222e-08 -6.00679e-08 4.49162e-08)
(2.41473e-08 -6.74485e-08 5.28582e-08)
(2.56143e-08 -7.47485e-08 6.11926e-08)
(2.60688e-08 -8.15624e-08 6.93487e-08)
(2.45659e-08 -8.71641e-08 7.64283e-08)
(1.99988e-08 -9.03326e-08 8.14597e-08)
(1.32035e-08 -8.99754e-08 8.41043e-08)
(1.78158e-09 -3.81979e-09 2.18911e-09)
(4.95533e-09 -1.07067e-08 6.17903e-09)
(7.83669e-09 -1.71843e-08 1.00536e-08)
(1.05069e-08 -2.35293e-08 1.40407e-08)
(1.30356e-08 -2.9965e-08 1.83384e-08)
(1.5483e-08 -3.66665e-08 2.31225e-08)
(1.7901e-08 -4.37643e-08 2.85478e-08)
(2.0332e-08 -5.13466e-08 3.47434e-08)
(2.28039e-08 -5.94594e-08 4.17976e-08)
(2.532e-08 -6.81037e-08 4.97295e-08)
(2.7837e-08 -7.72246e-08 5.8435e-08)
(3.02269e-08 -8.66828e-08 6.76063e-08)
(3.22107e-08 -9.61771e-08 7.66129e-08)
(3.3292e-08 -1.05045e-07 8.44099e-08)
(3.28085e-08 -1.11846e-07 8.96927e-08)
(3.07089e-08 -1.14208e-07 9.19065e-08)
(1.95996e-09 -4.03507e-09 2.38707e-09)
(5.44973e-09 -1.13169e-08 6.73412e-09)
(8.61237e-09 -1.81836e-08 1.09438e-08)
(1.15343e-08 -2.49379e-08 1.52566e-08)
(1.42903e-08 -3.18271e-08 1.98801e-08)
(1.69466e-08 -3.9051e-08 2.49969e-08)
(1.95635e-08 -4.67671e-08 3.07662e-08)
(2.21966e-08 -5.50944e-08 3.73187e-08)
(2.48969e-08 -6.41166e-08 4.4742e-08)
(2.77096e-08 -7.3883e-08 5.30528e-08)
(3.0671e-08 -8.44051e-08 6.2141e-08)
(3.3803e-08 -9.56492e-08 7.16817e-08)
(3.71164e-08 -1.07521e-07 8.0989e-08)
(4.06743e-08 -1.19837e-07 8.8835e-08)
(4.47635e-08 -1.32198e-07 9.33935e-08)
(4.95364e-08 -1.42829e-07 9.34529e-08)
(1.56961e-10 -3.74899e-10 1.63072e-10)
(4.3649e-10 -1.04856e-09 4.60767e-10)
(6.90036e-10 -1.67587e-09 7.51917e-10)
(9.24164e-10 -2.28041e-09 1.05394e-09)
(1.14363e-09 -2.87882e-09 1.38309e-09)
(1.35097e-09 -3.48105e-09 1.75245e-09)
(1.54621e-09 -4.08978e-09 2.17318e-09)
(1.72582e-09 -4.69898e-09 2.6526e-09)
(1.88187e-09 -5.2937e-09 3.19255e-09)
(2.00018e-09 -5.84722e-09 3.78423e-09)
(2.06046e-09 -6.32162e-09 4.40317e-09)
(2.0385e-09 -6.66711e-09 5.00239e-09)
(1.90936e-09 -6.81466e-09 5.50291e-09)
(1.65224e-09 -6.63656e-09 5.82356e-09)
(1.22391e-09 -5.83021e-09 5.93408e-09)
(5.66268e-10 -3.98211e-09 5.91923e-09)
(4.67531e-10 -1.11278e-09 4.84749e-10)
(1.30022e-09 -3.11276e-09 1.37018e-09)
(2.05535e-09 -4.97642e-09 2.23455e-09)
(2.75255e-09 -6.77319e-09 3.1321e-09)
(3.40603e-09 -8.55409e-09 4.10858e-09)
(4.02362e-09 -1.03492e-08 5.20366e-09)
(4.60552e-09 -1.21674e-08 6.44958e-09)
(5.14182e-09 -1.39944e-08 7.86864e-09)
(5.60779e-09 -1.57873e-08 9.46494e-09)
(5.95919e-09 -1.74727e-08 1.1213e-08)
(6.12888e-09 -1.89482e-08 1.30402e-08)
(6.02865e-09 -2.00917e-08 1.47979e-08)
(5.56922e-09 -2.07823e-08 1.62518e-08)
(4.70538e-09 -2.09134e-08 1.70739e-08)
(3.55105e-09 -2.03832e-08 1.69911e-08)
(2.61222e-09 -1.92526e-08 1.62162e-08)
(7.6902e-10 -1.81702e-09 7.94479e-10)
(2.13874e-09 -5.08418e-09 2.2452e-09)
(3.38092e-09 -8.132e-09 3.66099e-09)
(4.52802e-09 -1.10761e-08 5.12931e-09)
(5.60375e-09 -1.40015e-08 6.72507e-09)
(6.62233e-09 -1.69623e-08 8.51281e-09)
(7.58599e-09 -1.99799e-08 1.05461e-08)
(8.48003e-09 -2.30383e-08 1.28616e-08)
(9.26531e-09 -2.60807e-08 1.54697e-08)
(9.86677e-09 -2.90049e-08 1.83354e-08)
(1.01619e-08 -3.16708e-08 2.13523e-08)
(9.9756e-09 -3.3928e-08 2.43124e-08)
(9.10149e-09 -3.56881e-08 2.68873e-08)
(7.40988e-09 -3.70489e-08 2.86773e-08)
(5.15356e-09 -3.83952e-08 2.9448e-08)
(3.47019e-09 -3.99853e-08 2.95718e-08)
(1.05564e-09 -2.46525e-09 1.08495e-09)
(2.9358e-09 -6.9005e-09 3.06491e-09)
(4.64088e-09 -1.10446e-08 4.99585e-09)
(6.21555e-09 -1.50578e-08 6.99522e-09)
(7.69378e-09 -1.90615e-08 9.16437e-09)
(9.09738e-09 -2.31371e-08 1.15911e-08)
(1.04332e-08 -2.73242e-08 1.43483e-08)
(1.16868e-08 -3.16177e-08 1.74886e-08)
(1.28113e-08 -3.5961e-08 2.10306e-08)
(1.37094e-08 -4.02426e-08 2.49385e-08)
(1.42095e-08 -4.42992e-08 2.90911e-08)
(1.40411e-08 -4.79414e-08 3.32496e-08)
(1.28338e-08 -5.10277e-08 3.70481e-08)
(1.02416e-08 -5.36084e-08 4.00707e-08)
(6.40597e-09 -5.60464e-08 4.2096e-08)
(2.99783e-09 -5.84845e-08 4.33059e-08)
(1.32194e-09 -3.03553e-09 1.34939e-09)
(3.67614e-09 -8.50009e-09 3.81114e-09)
(5.81056e-09 -1.36154e-08 6.20843e-09)
(7.78169e-09 -1.85854e-08 8.68541e-09)
(9.6335e-09 -2.3567e-08 1.13661e-08)
(1.13971e-08 -2.86721e-08 1.43584e-08)
(1.30879e-08 -3.3966e-08 1.77531e-08)
(1.46985e-08 -3.94636e-08 2.16166e-08)
(1.61871e-08 -4.51251e-08 2.59779e-08)
(1.74562e-08 -5.08473e-08 3.08057e-08)
(1.83196e-08 -5.64556e-08 3.59741e-08)
(1.84556e-08 -6.16986e-08 4.12236e-08)
(1.73722e-08 -6.62615e-08 4.61742e-08)
(1.44698e-08 -6.98055e-08 5.03828e-08)
(9.53747e-09 -7.21064e-08 5.36007e-08)
(4.39318e-09 -7.32881e-08 5.57913e-08)
(1.56307e-09 -3.50669e-09 1.58275e-09)
(4.34611e-09 -9.82382e-09 4.46871e-09)
(6.86794e-09 -1.57497e-08 7.27378e-09)
(9.1954e-09 -2.15278e-08 1.01638e-08)
(1.13826e-08 -2.73502e-08 1.32812e-08)
(1.34705e-08 -3.33597e-08 1.67501e-08)
(1.54857e-08 -3.96503e-08 2.06747e-08)
(1.74357e-08 -4.62661e-08 2.51333e-08)
(1.92984e-08 -5.31965e-08 3.01633e-08)
(2.10056e-08 -6.03667e-08 3.57382e-08)
(2.24113e-08 -6.76175e-08 4.17205e-08)
(2.32507e-08 -7.46722e-08 4.78474e-08)
(2.30734e-08 -8.10579e-08 5.36777e-08)
(2.12369e-08 -8.59696e-08 5.871e-08)
(1.71658e-08 -8.81593e-08 6.26206e-08)
(1.18542e-08 -8.68232e-08 6.53225e-08)
(1.77496e-09 -3.85924e-09 1.78135e-09)
(4.93425e-09 -1.08167e-08 5.0268e-09)
(7.79425e-09 -1.73583e-08 8.17403e-09)
(1.04304e-08 -2.37618e-08 1.14048e-08)
(1.29049e-08 -3.02489e-08 1.48751e-08)
(1.52684e-08 -3.69917e-08 1.87197e-08)
(1.75598e-08 -4.41133e-08 2.3052e-08)
(1.98042e-08 -5.1689e-08 2.79566e-08)
(2.20088e-08 -5.97443e-08 3.34755e-08)
(2.4154e-08 -6.82469e-08 3.9579e-08)
(2.61819e-08 -7.709e-08 4.61262e-08)
(2.79785e-08 -8.60584e-08 5.28097e-08)
(2.93613e-08 -9.47524e-08 5.91188e-08)
(3.01072e-08 -1.02426e-07 6.43828e-08)
(3.00584e-08 -1.0772e-07 6.80538e-08)
(2.93505e-08 -1.08859e-07 7.01305e-08)
(1.95457e-09 -4.07626e-09 1.94276e-09)
(5.43216e-09 -1.14316e-08 5.47933e-09)
(8.57597e-09 -1.83648e-08 8.8993e-09)
(1.14669e-08 -2.51787e-08 1.23951e-08)
(1.4173e-08 -3.21188e-08 1.61298e-08)
(1.6752e-08 -3.93801e-08 2.0244e-08)
(1.92523e-08 -4.71101e-08 2.48541e-08)
(2.17143e-08 -5.54108e-08 3.00453e-08)
(2.41705e-08 -6.43387e-08 3.58575e-08)
(2.66459e-08 -7.38991e-08 4.22544e-08)
(2.91615e-08 -8.40374e-08 4.90807e-08)
(3.17449e-08 -9.46254e-08 5.59944e-08)
(3.44764e-08 -1.05453e-07 6.2399e-08)
(3.76301e-08 -1.16252e-07 6.7418e-08)
(4.19207e-08 -1.26761e-07 7.00956e-08)
(4.7766e-08 -1.35986e-07 7.02296e-08)
(1.55775e-10 -3.77811e-10 1.20211e-10)
(4.32897e-10 -1.05674e-09 3.39829e-10)
(6.8323e-10 -1.68915e-09 5.53777e-10)
(9.126e-10 -2.29827e-09 7.75928e-10)
(1.12501e-09 -2.90269e-09 1.01709e-09)
(1.32137e-09 -3.51117e-09 1.28662e-09)
(1.49992e-09 -4.12717e-09 1.59183e-09)
(1.65488e-09 -4.74637e-09 1.93725e-09)
(1.77519e-09 -5.3556e-09 2.32264e-09)
(1.84362e-09 -5.93181e-09 2.74039e-09)
(1.83757e-09 -6.44187e-09 3.17224e-09)
(1.73342e-09 -6.84047e-09 3.58618e-09)
(1.51569e-09 -7.0599e-09 3.94608e-09)
(1.18415e-09 -6.95817e-09 4.22001e-09)
(7.28412e-10 -6.20466e-09 4.45207e-09)
(1.14463e-10 -4.34634e-09 4.69516e-09)
(4.6414e-10 -1.1215e-09 3.57558e-10)
(1.28981e-09 -3.13726e-09 1.01e-09)
(2.03563e-09 -5.0154e-09 1.64657e-09)
(2.71944e-09 -6.82821e-09 2.30611e-09)
(3.35191e-09 -8.62409e-09 3.02154e-09)
(3.93751e-09 -1.04361e-08 3.8205e-09)
(4.4713e-09 -1.22744e-08 4.72459e-09)
(4.93661e-09 -1.41273e-08 5.74687e-09)
(5.30086e-09 -1.59574e-08 6.88653e-09)
(5.51206e-09 -1.76992e-08 8.12085e-09)
(5.49946e-09 -1.92592e-08 9.39429e-09)
(5.18635e-09 -2.05212e-08 1.06143e-08)
(4.52401e-09 -2.13456e-08 1.16384e-08)
(3.56036e-09 -2.1557e-08 1.23102e-08)
(2.55284e-09 -2.09086e-08 1.25121e-08)
(2.01191e-09 -1.94097e-08 1.22905e-08)
(7.63766e-10 -1.83125e-09 5.86019e-10)
(2.12256e-09 -5.12402e-09 1.65521e-09)
(3.35051e-09 -8.19647e-09 2.69788e-09)
(4.47604e-09 -1.11633e-08 3.77689e-09)
(5.51926e-09 -1.4113e-08 4.94619e-09)
(6.48806e-09 -1.70987e-08 6.25069e-09)
(7.37707e-09 -2.01436e-08 7.72611e-09)
(8.16205e-09 -2.32353e-08 9.39465e-09)
(8.79277e-09 -2.63215e-08 1.12571e-08)
(9.1852e-09 -2.93076e-08 1.32808e-08)
(9.21786e-09 -3.20597e-08 1.53864e-08)
(8.74257e-09 -3.44245e-08 1.74362e-08)
(7.63404e-09 -3.62715e-08 1.92374e-08)
(5.92284e-09 -3.75924e-08 2.05906e-08)
(4.06166e-09 -3.85988e-08 2.14045e-08)
(3.08474e-09 -3.95863e-08 2.1794e-08)
(1.04902e-09 -2.48452e-09 8.00059e-10)
(2.91547e-09 -6.95433e-09 2.26007e-09)
(4.60217e-09 -1.11301e-08 3.68199e-09)
(6.14987e-09 -1.51745e-08 5.15158e-09)
(7.58626e-09 -1.9207e-08 6.74107e-09)
(8.9266e-09 -2.33109e-08 8.51191e-09)
(1.01684e-08 -2.75264e-08 1.05131e-08)
(1.12858e-08 -3.18487e-08 1.27762e-08)
(1.222e-08 -3.6223e-08 1.53059e-08)
(1.2866e-08 -4.05389e-08 1.80659e-08)
(1.30606e-08 -4.46305e-08 2.09628e-08)
(1.25785e-08 -4.82916e-08 2.38362e-08)
(1.11664e-08 -5.13326e-08 2.6471e-08)
(8.6849e-09 -5.36929e-08 2.86584e-08)
(5.4935e-09 -5.56049e-08 3.03092e-08)
(3.03933e-09 -5.7345e-08 3.13864e-08)
(1.31452e-09 -3.05888e-09 9.95316e-10)
(3.6534e-09 -8.56551e-09 2.81065e-09)
(5.76726e-09 -1.37195e-08 4.57642e-09)
(7.70716e-09 -1.87241e-08 6.39714e-09)
(9.51185e-09 -2.37382e-08 8.36178e-09)
(1.12041e-08 -2.88719e-08 1.05458e-08)
(1.27891e-08 -3.41886e-08 1.301e-08)
(1.42482e-08 -3.97006e-08 1.57947e-08)
(1.55278e-08 -4.53632e-08 1.89096e-08)
(1.65253e-08 -5.10649e-08 2.2317e-08)
(1.7069e-08 -5.66154e-08 2.59144e-08)
(1.68992e-08 -6.17373e-08 2.95314e-08)
(1.56591e-08 -6.60588e-08 3.29214e-08)
(1.29879e-08 -6.91652e-08 3.58685e-08)
(8.89445e-09 -7.0772e-08 3.82627e-08)
(4.8857e-09 -7.1209e-08 3.99289e-08)
(1.55555e-09 -3.53343e-09 1.16775e-09)
(4.32276e-09 -9.89813e-09 3.2961e-09)
(6.82299e-09 -1.58667e-08 5.3625e-09)
(9.11831e-09 -2.16838e-08 7.48723e-09)
(1.12557e-08 -2.75389e-08 9.7723e-09)
(1.32689e-08 -3.35739e-08 1.23046e-08)
(1.51744e-08 -3.98778e-08 1.51543e-08)
(1.6968e-08 -4.64871e-08 1.83684e-08)
(1.86175e-08 -5.3379e-08 2.19602e-08)
(2.00508e-08 -6.04588e-08 2.5889e-08)
(2.11426e-08 -6.754e-08 3.00498e-08)
(2.16898e-08 -7.43032e-08 3.4233e-08)
(2.1392e-08 -8.02281e-08 3.81652e-08)
(1.98493e-08 -8.44711e-08 4.15691e-08)
(1.67117e-08 -8.58289e-08 4.43013e-08)
(1.26349e-08 -8.3803e-08 4.62029e-08)
(1.76782e-09 -3.88816e-09 1.3144e-09)
(4.91202e-09 -1.08971e-08 3.70829e-09)
(7.75124e-09 -1.74848e-08 6.02709e-09)
(1.03553e-08 -2.39279e-08 8.40274e-09)
(1.27811e-08 -3.04477e-08 1.09471e-08)
(1.50711e-08 -3.72115e-08 1.37546e-08)
(1.7255e-08 -4.43356e-08 1.69014e-08)
(1.93472e-08 -5.1883e-08 2.04382e-08)
(2.13453e-08 -5.986e-08 2.43783e-08)
(2.32276e-08 -6.82049e-08 2.86791e-08)
(2.49545e-08 -7.67709e-08 3.32146e-08)
(2.64715e-08 -8.52907e-08 3.77476e-08)
(2.77346e-08 -9.33182e-08 4.19227e-08)
(2.87504e-08 -1.00108e-07 4.53449e-08)
(2.95795e-08 -1.04445e-07 4.77473e-08)
(3.00378e-08 -1.04973e-07 4.91383e-08)
(1.94831e-09 -4.10645e-09 1.43369e-09)