/*--------------------------------*- C++ -*----------------------------------*\
| =========                 |                                                 |
| \\      /  F ield         | OpenFOAM: The Open Source CFD Toolbox           |
|  \\    /   O peration     | Version:  v1912                                 |
|   \\  /    A nd           | Website:  www.openfoam.com                      |
|    \\/     M anipulation  |                                                 |
\*---------------------------------------------------------------------------*/
FoamFile
{
    version     2.0;
    format      ascii;
    class       surfaceScalarField;
    location    "0.55/fluid";
    object      meshPhi;
}
// * * * * * * * * * * * * * * * * * * * * * * * * * * * * * * * * * * * * * //

dimensions      [0 3 -1 0 0 0 0];
oriented        oriented;


internalField   nonuniform List<scalar> 
41600
(
1.8765e-13
-4.66e-13
1.74127e-13
-1.79854e-13
3.57924e-13
-1.35771e-12
5.1319e-13
-5.30337e-13
5.17265e-13
-2.18587e-12
8.45558e-13
-8.74634e-13
6.71486e-13
-2.98004e-12
1.19323e-12
-1.2359e-12
8.26159e-13
-3.76033e-12
1.57602e-12
-1.63511e-12
9.87122e-13
-4.53606e-12
2.01242e-12
-2.09214e-12
1.16125e-12
-5.3034e-12
2.52007e-12
-2.62639e-12
1.35768e-12
-6.04053e-12
3.11578e-12
-3.25714e-12
1.59023e-12
-6.69854e-12
3.81506e-12
-4.00363e-12
1.88283e-12
-7.1854e-12
4.63111e-12
-4.88536e-12
2.28127e-12
-7.33698e-12
5.57417e-12
-5.92431e-12
2.87942e-12
-6.86021e-12
6.65347e-12
-7.15393e-12
3.86969e-12
-5.21836e-12
7.88645e-12
-8.647e-12
5.59958e-12
-1.44482e-12
9.31371e-12
-1.05785e-11
8.23418e-12
5.48947e-12
1.09199e-11
-1.31455e-11
1.72592e-11
1.37323e-11
-2.02167e-11
5.58734e-13
-9.18223e-13
5.17911e-13
-5.34962e-13
1.06561e-12
-2.67588e-12
1.5263e-12
-1.57733e-12
1.53965e-12
-4.30994e-12
2.51444e-12
-2.60094e-12
1.99799e-12
-5.87964e-12
3.5475e-12
-3.67431e-12
2.45704e-12
-7.4263e-12
4.68413e-12
-4.85958e-12
2.93389e-12
-8.97144e-12
5.9791e-12
-6.21557e-12
3.44823e-12
-1.05127e-11
7.48465e-12
-7.7997e-12
4.02536e-12
-1.20158e-11
9.25046e-12
-9.66876e-12
4.70184e-12
-1.34006e-11
1.13218e-11
-1.18786e-11
5.53713e-12
-1.4518e-11
1.37357e-11
-1.44836e-11
6.63803e-12
-1.51157e-11
1.65152e-11
-1.75375e-11
8.2087e-12
-1.47909e-11
1.96649e-11
-2.11046e-11
1.06313e-11
-1.29529e-11
2.31709e-11
-2.52956e-11
1.45024e-11
-8.91498e-12
2.69938e-11
-3.03358e-11
1.98392e-11
-2.71397e-12
3.08898e-11
-3.62853e-11
4.57891e-12
3.39251e-11
-4.41317e-11
9.1747e-13
-1.34305e-12
8.48637e-13
-8.76593e-13
1.74938e-12
-3.91524e-12
2.50061e-12
-2.58425e-12
2.52653e-12
-6.31043e-12
4.11836e-12
-4.25998e-12
3.2766e-12
-8.61793e-12
5.80784e-12
-6.01517e-12
4.02603e-12
-1.09023e-11
7.66439e-12
-7.95081e-12
4.80205e-12
-1.3202e-11
9.77714e-12
-1.01626e-11
5.63511e-12
-1.55247e-11
1.22312e-11
-1.27438e-11
6.56223e-12
-1.78391e-11
1.51075e-11
-1.57866e-11
7.63251e-12
-2.006e-11
1.84796e-11
-1.93805e-11
8.91694e-12
-2.20265e-11
2.24057e-11
-2.36084e-11
1.05271e-11
-2.34737e-11
2.69143e-11
-2.854e-11
1.26483e-11
-2.40082e-11
3.19809e-11
-3.42242e-11
1.55752e-11
-2.31326e-11
3.74944e-11
-4.06846e-11
1.96581e-11
-2.04417e-11
4.31959e-11
-4.79014e-11
2.45408e-11
-1.63083e-11
4.84935e-11
-5.54165e-11
-1.17475e-11
5.26417e-11
-6.47495e-11
1.25627e-12
-1.72658e-12
1.15838e-12
-1.19651e-12
2.39453e-12
-5.03543e-12
3.41258e-12
-3.52658e-12
3.45618e-12
-8.12292e-12
5.6178e-12
-5.81062e-12
4.47829e-12
-1.11085e-11
7.91715e-12
-8.19902e-12
5.49624e-12
-1.40819e-11
1.04392e-11
-1.0828e-11
6.54604e-12
-1.7103e-11
1.33045e-11
-1.38267e-11
7.66686e-12
-2.0199e-11
1.66282e-11
-1.73212e-11
8.90385e-12
-2.33569e-11
2.05208e-11
-2.14363e-11
1.03114e-11
-2.65128e-11
2.5084e-11
-2.62935e-11
1.19564e-11
-2.9533e-11
3.03993e-11
-3.20037e-11
1.39229e-11
-3.21911e-11
3.65067e-11
-3.86523e-11
1.63161e-11
-3.41451e-11
4.33647e-11
-4.62723e-11
1.9251e-11
-3.49439e-11
5.07853e-11
-5.48005e-11
2.27858e-11
-3.41416e-11
5.83263e-11
-6.39977e-11
2.64752e-11
-3.17712e-11
6.50864e-11
-7.30212e-11
-2.82192e-11
6.99223e-11
-8.29256e-11
1.56826e-12
-2.05517e-12
1.44015e-12
-1.48745e-12
2.98778e-12
-5.99656e-12
4.24134e-12
-4.38267e-12
4.30894e-12
-9.68295e-12
6.97772e-12
-7.21647e-12
5.57683e-12
-1.32628e-11
9.82458e-12
-1.0173e-11
6.83436e-12
-1.68517e-11
1.29392e-11
-1.34189e-11
8.12499e-12
-2.05345e-11
1.6469e-11
-1.7112e-11
9.49528e-12
-2.43641e-11
2.05556e-11
-2.14067e-11
1.09973e-11
-2.83589e-11
2.53359e-11
-2.64568e-11
1.269e-11
-3.24957e-11
3.09391e-11
-3.2414e-11
1.46375e-11
-3.66985e-11
3.74753e-11
-3.94206e-11
1.69032e-11
-4.08196e-11
4.50107e-11
-4.75907e-11
1.95314e-11
-4.46088e-11
5.35217e-11
-5.69745e-11
2.25016e-11
-4.76621e-11
6.28064e-11
-6.74869e-11
2.5645e-11
-4.93598e-11
7.23177e-11
-7.87652e-11
2.84069e-11
-4.90453e-11
8.08398e-11
-8.961e-11
-4.5944e-11
8.67538e-11
-1.00561e-10
1.84771e-12
-2.31583e-12
1.68831e-12
-1.74356e-12
3.51802e-12
-6.76058e-12
4.97014e-12
-5.13512e-12
5.06843e-12
-1.09283e-11
8.16994e-12
-8.4483e-12
6.55028e-12
-1.49938e-11
1.14892e-11
-1.18948e-11
8.01244e-12
-1.90972e-11
1.51083e-11
-1.56654e-11
9.50429e-12
-2.33485e-11
1.91956e-11
-1.99406e-11
1.10788e-11
-2.78293e-11
2.39137e-11
-2.48969e-11
1.27952e-11
-3.25947e-11
2.9421e-11
-3.07114e-11
1.47208e-11
-3.76724e-11
3.5871e-11
-3.75623e-11
1.69299e-11
-4.3062e-11
4.34039e-11
-4.5624e-11
1.94988e-11
-4.87281e-11
5.21266e-11
-5.50543e-11
2.24885e-11
-5.45822e-11
6.20739e-11
-6.59655e-11
2.58945e-11
-6.04235e-11
7.31219e-11
-7.83557e-11
2.95356e-11
-6.57725e-11
8.47827e-11
-9.1934e-11
3.27097e-11
-6.959e-11
9.56764e-11
-1.05324e-10
-6.89355e-11
1.03761e-10
-1.18762e-10
2.09024e-12
-2.49688e-12
1.89884e-12
-1.9607e-12
3.97686e-12
-7.29317e-12
5.58709e-12
-5.77166e-12
5.7223e-12
-1.18026e-11
9.17462e-12
-9.48562e-12
7.38213e-12
-1.62213e-11
1.28824e-11
-1.33346e-11
9.00912e-12
-2.07103e-11
1.69069e-11
-1.75267e-11
1.06567e-11
-2.54016e-11
2.14312e-11
-2.22573e-11
1.23824e-11
-3.04032e-11
2.66307e-11
-2.77174e-11
1.42519e-11
-3.58037e-11
3.26777e-11
-3.40983e-11
1.63428e-11
-4.16785e-11
3.97415e-11
-4.15953e-11
1.87491e-11
-4.80976e-11
4.79849e-11
-5.04074e-11
2.15876e-11
-5.51376e-11
5.75541e-11
-6.07342e-11
2.50045e-11
-6.28985e-11
6.85579e-11
-7.27695e-11
2.91702e-11
-7.15154e-11
8.10132e-11
-8.66691e-11
3.42037e-11
-8.11026e-11
9.46633e-11
-1.02419e-10
3.95065e-11
-9.11524e-11
1.08261e-10
-1.18815e-10
-1.01228e-10
1.19608e-10
-1.36828e-10
2.29301e-12
2.06955e-12
-2.13659e-12
-2.58867e-12
4.35908e-12
6.08583e-12
-6.28575e-12
-7.56599e-12
6.26313e-12
9.98158e-12
-1.03179e-11
-1.22588e-11
8.06262e-12
1.39898e-11
-1.44779e-11
-1.68782e-11
9.81185e-12
1.83161e-11
-1.8983e-11
-2.15996e-11
1.15655e-11
2.315e-11
-2.40358e-11
-2.65711e-11
1.33828e-11
2.86715e-11
-2.98318e-11
-3.19197e-11
1.53317e-11
3.50554e-11
-3.65649e-11
-3.77577e-11
1.74953e-11
4.24731e-11
-4.44324e-11
-4.41911e-11
1.99803e-11
5.10911e-11
-5.3637e-11
-5.13303e-11
2.29325e-11
6.1068e-11
-6.4391e-11
-5.93072e-11
2.65627e-11
7.25466e-11
-7.69242e-11
-6.83019e-11
3.11758e-11
8.56297e-11
-9.14871e-11
-7.85765e-11
3.71408e-11
1.00255e-10
-1.0829e-10
-9.04721e-11
4.39376e-11
1.15341e-10
-1.26341e-10
-1.03553e-10
1.29973e-10
-1.49313e-10
-1.21505e-10
1.87774e-13
-4.75615e-13
1.62058e-13
3.57815e-13
-1.38581e-12
4.77423e-13
5.1625e-13
-2.23149e-12
7.85974e-13
6.68486e-13
-3.04324e-12
1.10775e-12
8.19487e-13
-3.84224e-12
1.46058e-12
9.7411e-13
-4.63907e-12
1.8608e-12
1.13761e-12
-5.43163e-12
2.32337e-12
1.31639e-12
-6.20106e-12
2.86154e-12
1.5197e-12
-6.90431e-12
3.48545e-12
1.76327e-12
-7.46182e-12
4.19936e-12
2.07802e-12
-7.73685e-12
4.99672e-12
2.52826e-12
-7.49879e-12
5.85128e-12
3.24289e-12
-6.35718e-12
6.69988e-12
4.43001e-12
-3.68794e-12
7.40578e-12
6.11894e-12
1.02516e-12
7.71134e-12
7.39747e-12
7.10162e-12
5.59198e-13
-9.37059e-13
4.82005e-13
1.06549e-12
-2.73092e-12
1.4199e-12
1.53701e-12
-4.39931e-12
2.33723e-12
1.98974e-12
-6.00353e-12
3.29338e-12
2.43834e-12
-7.58689e-12
4.34119e-12
2.89707e-12
-9.17314e-12
5.52897e-12
3.38101e-12
-1.07629e-11
6.90114e-12
3.90777e-12
-1.23268e-11
8.49697e-12
4.5009e-12
-1.37943e-11
1.03465e-11
5.19739e-12
-1.50365e-11
1.24621e-11
6.06435e-12
-1.58431e-11
1.48226e-11
7.23191e-12
-1.59011e-11
1.73451e-11
8.93948e-12
-1.48033e-11
1.98317e-11
1.15162e-11
-1.22011e-11
2.18753e-11
1.48374e-11
-8.41131e-12
2.28051e-11
-5.59162e-12
2.09122e-11
9.18559e-13
-1.37044e-12
7.89809e-13
1.7499e-12
-3.99528e-12
2.32632e-12
2.5235e-12
-6.44043e-12
3.82819e-12
3.26528e-12
-8.79818e-12
5.39206e-12
3.99902e-12
-1.11358e-11
7.10382e-12
4.74767e-12
-1.34946e-11
9.04217e-12
5.53469e-12
-1.58856e-11
1.12796e-11
6.38564e-12
-1.82831e-11
1.38808e-11
7.33033e-12
-2.06124e-11
1.68957e-11
8.40724e-12
-2.27336e-11
2.03465e-11
9.67268e-12
-2.44253e-11
2.42012e-11
1.12164e-11
-2.53826e-11
2.83268e-11
1.31722e-11
-2.52787e-11
3.24081e-11
1.56525e-11
-2.39941e-11
3.58302e-11
1.8335e-11
-2.20876e-11
3.76875e-11
-2.12131e-11
3.6487e-11
1.25843e-12
-1.76162e-12
1.07814e-12
2.39672e-12
-5.13781e-12
3.1749e-12
3.45464e-12
-8.28924e-12
5.22236e-12
4.46714e-12
-1.1339e-11
7.35106e-12
5.46637e-12
-1.43802e-11
9.67698e-12
6.48314e-12
-1.74756e-11
1.23065e-11
7.54828e-12
-2.06556e-11
1.53383e-11
8.69317e-12
-2.39122e-11
1.88612e-11
9.9493e-12
-2.71896e-11
2.29468e-11
1.13456e-11
-3.03707e-11
2.76322e-11
1.29029e-11
-3.32624e-11
3.28873e-11
1.46203e-11
-3.55902e-11
3.8555e-11
1.6447e-11
-3.70343e-11
4.4252e-11
1.82271e-11
-3.7376e-11
4.9233e-11
1.9613e-11
-3.68322e-11
5.23996e-11
-3.65965e-11
5.20851e-11
1.57205e-12
-2.0967e-12
1.34053e-12
2.99283e-12
-6.11794e-12
3.94636e-12
4.31105e-12
-9.88013e-12
6.48732e-12
5.56954e-12
-1.3536e-11
9.12339e-12
6.80781e-12
-1.72048e-11
1.19965e-11
8.06386e-12
-2.09741e-11
1.5237e-11
9.37551e-12
-2.48995e-11
1.89664e-11
1.07805e-11
-2.90024e-11
2.32958e-11
1.23142e-11
-3.32639e-11
2.83187e-11
1.40017e-11
-3.76165e-11
3.40931e-11
1.58409e-11
-4.19291e-11
4.06058e-11
1.77666e-11
-4.59852e-11
4.7707e-11
1.95852e-11
-4.94504e-11
5.49954e-11
2.09063e-11
-5.18436e-11
6.16444e-11
2.12717e-11
-5.26843e-11
6.63329e-11
-5.24166e-11
6.70741e-11
1.85364e-12
-2.36248e-12
1.57173e-12
3.52709e-12
-6.89695e-12
4.62513e-12
5.07625e-12
-1.11499e-11
7.59694e-12
6.55038e-12
-1.53007e-11
1.06711e-11
7.99507e-12
-1.94934e-11
1.40104e-11
9.45463e-12
-2.38404e-11
1.77642e-11
1.09738e-11
-2.84253e-11
2.20719e-11
1.25986e-11
-3.33038e-11
2.7063e-11
1.43745e-11
-3.8504e-11
3.28505e-11
1.634e-11
-4.40249e-11
3.95148e-11
1.85105e-11
-4.983e-11
4.70704e-11
2.08419e-11
-5.5829e-11
5.54017e-11
2.31561e-11
-6.1819e-11
6.41401e-11
2.50267e-11
-6.73273e-11
7.24465e-11
2.57956e-11
-7.13826e-11
7.88073e-11
-7.2085e-11
8.09205e-11
2.0987e-12
-2.54708e-12
1.76802e-12
3.99083e-12
-7.43993e-12
5.20015e-12
5.73747e-12
-1.2041e-11
8.53278e-12
7.39239e-12
-1.65517e-11
1.19676e-11
9.00559e-12
-2.11365e-11
1.56822e-11
1.06261e-11
-2.593e-11
1.98388e-11
1.23046e-11
-3.10408e-11
2.45887e-11
1.40957e-11
-3.65569e-11
3.00724e-11
1.60589e-11
-4.25501e-11
3.64158e-11
1.82588e-11
-4.90831e-11
4.37158e-11
2.07618e-11
-5.62179e-11
5.20125e-11
2.36254e-11
-6.40262e-11
6.12322e-11
2.68648e-11
-7.25871e-11
7.10671e-11
3.03554e-11
-8.19031e-11
8.07245e-11
3.34942e-11
-9.13875e-11
8.85564e-11
-9.98614e-11
9.17934e-11
2.30422e-12
1.92733e-12
-2.64066e-12
4.37847e-12
5.66547e-12
-7.71806e-12
6.28661e-12
9.28525e-12
-1.25061e-11
8.08474e-12
1.29995e-11
-1.72209e-11
9.82498e-12
1.69941e-11
-2.20417e-11
1.15587e-11
2.14372e-11
-2.71189e-11
1.33396e-11
2.64842e-11
-3.25796e-11
1.52273e-11
3.2278e-11
-3.85339e-11
1.72916e-11
3.89457e-11
-4.50822e-11
1.96174e-11
4.65867e-11
-5.23232e-11
2.23137e-11
5.52489e-11
-6.03672e-11
2.55247e-11
6.48791e-11
-6.93531e-11
2.94375e-11
7.52142e-11
-7.9464e-11
3.42215e-11
8.554e-11
-9.08823e-11
3.93603e-11
9.41963e-11
-1.03039e-10
9.77812e-11
-1.17565e-10
1.87113e-13
-4.83904e-13
1.44244e-13
3.56132e-13
-1.41008e-12
4.24787e-13
5.12733e-13
-2.27095e-12
6.98785e-13
6.61738e-13
-3.09797e-12
9.83683e-13
8.07266e-13
-3.91326e-12
1.29478e-12
9.52863e-13
-4.72874e-12
1.64571e-12
1.10162e-12
-5.54447e-12
2.04837e-12
1.25637e-12
-6.3457e-12
2.51222e-12
1.42009e-12
-7.09774e-12
3.04234e-12
1.59735e-12
-7.7387e-12
3.63577e-12
1.79786e-12
-8.16995e-12
4.27489e-12
2.0434e-12
-8.24398e-12
4.91593e-12
2.37495e-12
-7.75197e-12
5.46948e-12
2.83561e-12
-6.43942e-12
5.77492e-12
3.34368e-12
-4.23947e-12
5.62769e-12
-1.41269e-12
5.04971e-12
5.57348e-13
-9.53282e-13
4.29032e-13
1.06073e-12
-2.77839e-12
1.26338e-12
1.527e-12
-4.47645e-12
2.07801e-12
1.97044e-12
-6.11041e-12
2.92462e-12
2.4033e-12
-7.72535e-12
3.84855e-12
2.83606e-12
-9.34725e-12
4.89018e-12
3.27769e-12
-1.09803e-11
6.08488e-12
3.73566e-12
-1.26018e-11
7.46083e-12
4.21623e-12
-1.41547e-11
9.03352e-12
4.72611e-12
-1.55375e-11
1.07951e-11
5.27746e-12
-1.65965e-11
1.26953e-11
5.89705e-12
-1.71313e-11
1.4609e-11
6.63019e-12
-1.69431e-11
1.62852e-11
7.49225e-12
-1.59946e-11
1.72936e-11
8.26384e-12
-1.47258e-11
1.71429e-11
-1.4555e-11
1.55683e-11
9.15913e-13
-1.39398e-12
7.03044e-13
1.74294e-12
-4.0641e-12
2.06999e-12
2.50855e-12
-6.55217e-12
3.40381e-12
3.23612e-12
-8.95275e-12
4.78865e-12
3.94571e-12
-1.13354e-11
6.29827e-12
4.65452e-12
-1.37439e-11
7.99849e-12
5.37682e-12
-1.61933e-11
9.94723e-12
6.12314e-12
-1.86648e-11
1.21913e-11
6.89823e-12
-2.10973e-11
1.4758e-11
7.69825e-12
-2.3379e-11
1.76391e-11
8.5069e-12
-2.53437e-11
2.07618e-11
9.28874e-12
-2.67913e-11
2.39426e-11
9.97212e-12
-2.75733e-11
2.68214e-11
1.04068e-11
-2.77962e-11
2.88159e-11
1.03596e-11
-2.80222e-11
2.93254e-11
-2.9252e-11
2.84331e-11
1.2556e-12
-1.79162e-12
9.59787e-13
2.38887e-12
-5.22548e-12
2.82533e-12
3.43712e-12
-8.43142e-12
4.64389e-12
4.43214e-12
-1.15353e-11
6.52918e-12
5.40148e-12
-1.46325e-11
8.58083e-12
6.36894e-12
-1.77883e-11
1.0888e-11
7.35424e-12
-2.1036e-11
1.35296e-11
8.37088e-12
-2.43726e-11
1.6571e-11
9.42113e-12
-2.77522e-11
2.00534e-11
1.04861e-11
-3.10777e-11
2.39751e-11
1.15081e-11
-3.41961e-11
2.82562e-11
1.23591e-11
-3.69091e-11
3.26854e-11
1.27983e-11
-3.90301e-11
3.68497e-11
1.24644e-11
-4.05235e-11
4.00955e-11
1.11798e-11
-4.16587e-11
4.17374e-11
-4.3207e-11
4.18292e-11
1.56974e-12
-2.13211e-12
1.19351e-12
2.98567e-12
-6.22138e-12
3.5123e-12
4.29375e-12
-1.00477e-11
5.76953e-12
5.53338e-12
-1.37668e-11
8.10461e-12
6.73909e-12
-1.75001e-11
1.06395e-11
7.94131e-12
-2.13369e-11
1.34836e-11
9.16608e-12
-2.53342e-11
1.67346e-11
1.04324e-11
-2.95148e-11
2.04746e-11
1.17453e-11
-3.38631e-11
2.47601e-11
1.30815e-11
-3.83184e-11
2.96011e-11
1.43607e-11
-4.2765e-11
3.49236e-11
1.53938e-11
-4.702e-11
4.05117e-11
1.58079e-11
-5.08173e-11
4.59309e-11
1.50299e-11
-5.38037e-11
5.0476e-11
1.27915e-11
-5.56318e-11
5.3336e-11
-5.66249e-11
5.44375e-11
1.85257e-12
-2.40208e-12
1.39958e-12
3.52218e-12
-7.01259e-12
4.11707e-12
5.06196e-12
-1.1337e-11
6.75752e-12
6.51772e-12
-1.55579e-11
9.48131e-12
7.93014e-12
-1.98211e-11
1.24284e-11
9.33609e-12
-2.42399e-11
1.57242e-11
1.07689e-11
-2.88972e-11
1.9481e-11
1.22565e-11
-3.38463e-11
2.37951e-11
1.38158e-11
-3.91109e-11
2.87363e-11
1.54395e-11
-4.46821e-11
3.43275e-11
1.70686e-11
-5.05113e-11
4.05063e-11
1.8539e-11
-5.64893e-11
4.70639e-11
1.94924e-11
-6.23896e-11
5.35566e-11
1.93039e-11
-6.77337e-11
5.92241e-11
1.7477e-11
-7.16334e-11
6.31031e-11
-7.23703e-11
6.50442e-11
2.09949e-12
-2.58952e-12
1.57464e-12
3.98953e-12
-7.56383e-12
4.62977e-12
5.72857e-12
-1.22414e-11
7.59144e-12
7.36721e-12
-1.68266e-11
1.06356e-11
8.9509e-12
-2.14857e-11
1.3915e-11
1.05219e-11
-2.63531e-11
1.75661e-11
1.21207e-11
-3.1535e-11
2.17108e-11
1.37856e-11
-3.71134e-11
2.64538e-11
1.5551e-11
-4.31494e-11
3.18732e-11
1.74408e-11
-4.96858e-11
3.80003e-11
1.94541e-11
-5.67494e-11
4.47818e-11
2.15345e-11
-6.43474e-11
5.2015e-11
2.35127e-11
-7.24431e-11
5.92431e-11
2.50229e-11
-8.08509e-11
6.56257e-11
2.55349e-11
-8.88422e-11
6.99846e-11
-9.51552e-11
7.19584e-11
2.30733e-12
1.71684e-12
-2.68447e-12
4.38175e-12
5.04503e-12
-7.84595e-12
6.28484e-12
8.26265e-12
-1.27129e-11
8.06991e-12
1.15554e-11
-1.75044e-11
9.78516e-12
1.50834e-11
-2.24012e-11
1.14762e-11
1.89884e-11
-2.75527e-11
1.3188e-11
2.33955e-11
-3.30826e-11
1.49669e-11
2.84112e-11
-3.90929e-11
1.68615e-11
3.41137e-11
-4.56691e-11
1.89231e-11
4.05341e-11
-5.28838e-11
2.12037e-11
4.76188e-11
-6.08007e-11
2.37482e-11
5.51647e-11
-6.9476e-11
2.65727e-11
6.27068e-11
-7.89452e-11
2.95971e-11
6.9361e-11
-8.9149e-11
3.23266e-11
7.38016e-11
-9.93459e-11
7.47901e-11
-1.10494e-10
1.8592e-13
-4.90755e-13
1.21461e-13
3.53394e-13
-1.43012e-12
3.57576e-13
5.07588e-13
-2.30354e-12
5.87817e-13
6.52675e-13
-3.14317e-12
8.2657e-13
7.9185e-13
-3.97193e-12
1.08625e-12
9.27259e-13
-4.80291e-12
1.37759e-12
1.05983e-12
-5.6382e-12
1.70948e-12
1.18889e-12
-6.46694e-12
2.08812e-12
1.31173e-12
-7.26225e-12
2.5151e-12
1.42338e-12
-7.97781e-12
2.98404e-12
1.51732e-12
-8.54551e-12
3.47532e-12
1.58724e-12
-8.87581e-12
3.94845e-12
1.628e-12
-8.86258e-12
4.33387e-12
1.62765e-12
-8.3971e-12
4.53451e-12
1.55013e-12
-7.44588e-12
4.47475e-12
-5.70766e-12
4.42597e-12
5.53927e-13
-9.66691e-13
3.61285e-13
1.05287e-12
-2.8176e-12
1.06353e-12
1.51218e-12
-4.54012e-12
1.7481e-12
1.94429e-12
-6.1985e-12
2.45763e-12
2.35878e-12
-7.83921e-12
3.2289e-12
2.76214e-12
-9.49018e-12
4.09374e-12
3.15717e-12
-1.11588e-11
5.0786e-12
3.54155e-12
-1.28287e-11
6.20207e-12
3.90586e-12
-1.4455e-11
7.46944e-12
4.2314e-12
-1.59598e-11
8.86313e-12
4.48915e-12
-1.72339e-11
1.03277e-11
4.6404e-12
-1.81528e-11
1.1749e-11
4.63813e-12
-1.86267e-11
1.2934e-11
4.42665e-12
-1.87018e-11
1.36217e-11
3.98436e-12
-1.86537e-11
1.36291e-11
-1.91293e-11
1.30289e-11
9.10718e-13
-1.41341e-12
5.92073e-13
1.73093e-12
-4.12089e-12
1.74269e-12
2.48581e-12
-6.64419e-12
2.86365e-12
3.19581e-12
-9.07958e-12
4.02437e-12
3.87694e-12
-1.14983e-11
5.28469e-12
4.54033e-12
-1.39461e-11
6.69658e-12
5.191e-12
-1.64415e-11
8.30348e-12
5.82504e-12
-1.89715e-11
1.01366e-11
6.42482e-12
-2.14871e-11
1.22067e-11
6.95188e-12
-2.38993e-11
1.449e-11
7.33794e-12
-2.6083e-11
1.69061e-11
7.47522e-12
-2.79044e-11
1.92897e-11
7.21502e-12
-2.92978e-11
2.13686e-11
6.41415e-12
-3.04017e-11
2.2796e-11
5.18063e-12
-3.15832e-11
2.33528e-11
-3.32925e-11
2.33732e-11
1.24931e-12
-1.81633e-12
8.08377e-13
2.3742e-12
-5.29763e-12
2.37886e-12
3.40905e-12
-8.54803e-12
3.9074e-12
4.38202e-12
-1.16953e-11
5.48779e-12
5.31562e-12
-1.48363e-11
7.20091e-12
6.22623e-12
-1.8038e-11
9.11723e-12
7.12235e-12
-2.13356e-11
1.12962e-11
8.00047e-12
-2.47297e-11
1.37818e-11
8.83714e-12
-2.81816e-11
1.65926e-11
9.57567e-12
-3.16084e-11
1.97051e-11
1.01054e-11
-3.48831e-11
2.30272e-11
1.02341e-11
-3.78493e-11
2.63682e-11
9.67367e-12
-4.03716e-11
2.942e-11
8.1323e-12
-4.24329e-11
3.1805e-11
5.8182e-12
-4.4177e-11
3.32712e-11
-4.59918e-11
3.41173e-11
1.56317e-12
-2.16119e-12
1.00537e-12
2.97009e-12
-6.30617e-12
2.95769e-12
4.26342e-12
-1.01844e-11
4.85524e-12
5.47856e-12
-1.39534e-11
6.81302e-12
6.64448e-12
-1.7736e-11
8.93012e-12
7.78357e-12
-2.16217e-11
1.12931e-11
8.90989e-12
-2.56675e-11
1.39755e-11
1.00246e-11
-2.98956e-11
1.70334e-11
1.11064e-11
-3.42901e-11
2.04942e-11
1.20947e-11
-3.87908e-11
2.43387e-11
1.28596e-11
-4.32853e-11
2.84723e-11
1.3157e-11
-4.75969e-11
3.26924e-11
1.25872e-11
-5.14692e-11
3.66701e-11
1.0678e-11
-5.45517e-11
3.99982e-11
7.55345e-12
-5.64625e-11
4.23604e-11
-5.72969e-11
4.39845e-11
1.84655e-12
-2.43449e-12
1.17914e-12
3.50747e-12
-7.10699e-12
3.46753e-12
5.03251e-12
-1.14888e-11
5.68766e-12
6.46336e-12
-1.57644e-11
7.97181e-12
7.83513e-12
-2.008e-11
1.04338e-11
9.17666e-12
-2.45482e-11
1.31729e-11
1.05095e-11
-2.92492e-11
1.62741e-11
1.18443e-11
-3.42313e-11
1.98027e-11
1.31729e-11
-3.95091e-11
2.37942e-11
1.4453e-11
-4.50598e-11
2.82339e-11
1.55798e-11
-5.08118e-11
3.30264e-11
1.63387e-11
-5.66205e-11
3.79581e-11
1.63485e-11
-6.22087e-11
4.26703e-11
1.50857e-11
-6.70459e-11
4.66971e-11
1.24424e-11
-7.0261e-11
4.96339e-11
-7.01729e-11
5.17227e-11
2.09476e-12
-2.62411e-12
1.32686e-12
3.9773e-12
-7.66454e-12
3.90003e-12
5.7028e-12
-1.24031e-11
6.39074e-12
7.31791e-12
-1.70458e-11
8.94418e-12
8.86284e-12
-2.17588e-11
1.16847e-11
1.03724e-11
-2.66745e-11
1.47204e-11
1.1876e-11
-3.18944e-11
1.81435e-11
1.33965e-11
-3.74913e-11
2.2025e-11
1.49454e-11
-4.35105e-11
2.64045e-11
1.65151e-11
-4.99683e-11
3.12686e-11
1.80621e-11
-5.68475e-11
3.6518e-11
1.94795e-11
-6.40838e-11
4.19216e-11
2.05645e-11
-7.15308e-11
4.70716e-11
2.10208e-11
-7.88711e-11
5.13917e-11
2.0676e-11
-8.5376e-11
5.43226e-11
-8.99417e-11
5.61027e-11
2.30446e-12
1.44693e-12
-2.72006e-12
4.37325e-12
4.25059e-12
-7.94953e-12
6.26492e-12
6.95714e-12
-1.2879e-11
8.02922e-12
9.71993e-12
-1.77291e-11
9.70967e-12
1.26694e-11
-2.26799e-11
1.13452e-11
1.59181e-11
-2.78782e-11
1.29714e-11
1.95605e-11
-3.34413e-11
1.46209e-11
2.36688e-11
-3.94596e-11
1.63228e-11
2.82812e-11
-4.59989e-11
1.8101e-11
3.33813e-11
-5.30989e-11
1.99693e-11
3.88622e-11
-6.07703e-11
2.19235e-11
4.44753e-11
-6.89849e-11
2.39345e-11
4.97697e-11
-7.76546e-11
2.5947e-11
5.40702e-11
-8.65768e-11
2.77623e-11
5.66636e-11
-9.50497e-11
5.7285e-11
-1.04148e-10
1.84484e-13
-4.96126e-13
9.46221e-14
3.50208e-13
-1.44583e-12
2.7848e-13
5.0184e-13
-2.32906e-12
4.57526e-13
6.42933e-13
-3.17856e-12
6.42772e-13
7.75817e-13
-4.01782e-12
8.43573e-13
9.0141e-13
-4.86074e-12
1.06778e-12
1.01883e-12
-5.71095e-12
1.32159e-12
1.12475e-12
-6.56045e-12
1.60876e-12
1.21259e-12
-7.38782e-12
1.92914e-12
1.27194e-12
-8.15659e-12
2.27623e-12
1.2889e-12
-8.81542e-12
2.63406e-12
1.24848e-12
-9.30014e-12
2.97401e-12
1.13938e-12
-9.53472e-12
3.2543e-12
9.61077e-13
-9.4213e-12
3.42958e-12
7.40788e-13
-8.84985e-12
3.47887e-12
-7.27254e-12
3.65926e-12
5.49784e-13
-9.77224e-13
2.81464e-13
1.04367e-12
-2.8484e-12
8.28323e-13
1.49555e-12
-4.59006e-12
1.36071e-12
1.91607e-12
-6.26743e-12
1.91126e-12
2.31232e-12
-7.92795e-12
2.50767e-12
2.68729e-12
-9.60089e-12
3.17327e-12
3.03863e-12
-1.1296e-11
3.92649e-12
3.35664e-12
-1.30014e-11
4.77872e-12
3.62138e-12
-1.46802e-11
5.72993e-12
3.79995e-12
-1.62693e-11
6.76198e-12
3.84594e-12
-1.76824e-11
7.82966e-12
3.70447e-12
-1.88251e-11
8.85192e-12
3.32999e-12
-1.9628e-11
9.71081e-12
2.7308e-12
-2.00968e-11
1.02779e-11
2.06655e-12
-2.03353e-11
1.04933e-11
-2.06905e-11
1.03561e-11
9.04327e-13
-1.42869e-12
4.613e-13
1.71671e-12
-4.16551e-12
1.3574e-12
2.46002e-12
-6.7163e-12
2.22928e-12
3.15193e-12
-9.17848e-12
3.13e-12
3.80466e-12
-1.16243e-11
4.10466e-12
4.42399e-12
-1.4101e-11
5.1914e-12
5.00729e-12
-1.6629e-11
6.42056e-12
5.53982e-12
-1.91994e-11
7.81143e-12
5.98925e-12
-2.17703e-11
9.36577e-12
6.2988e-12
-2.42652e-11
1.10577e-11
6.38137e-12
-2.65779e-11
1.2821e-11
6.12117e-12
-2.85955e-11
1.45374e-11
5.40299e-12
-3.02545e-11
1.60392e-11
4.21892e-12
-3.16298e-11
1.71512e-11
2.92273e-12
-3.29274e-11
1.77936e-11
-3.44257e-11
1.81204e-11
1.24135e-12
-1.83575e-12
6.29898e-13
2.35642e-12
-5.35422e-12
1.85315e-12
3.37662e-12
-8.63912e-12
3.04219e-12
4.32665e-12
-1.18193e-11
4.26872e-12
5.2243e-12
-1.49926e-11
5.59372e-12
6.07938e-12
-1.82265e-11
7.06894e-12
6.89118e-12
-2.1557e-11
8.73603e-12
7.6435e-12
-2.4986e-11
1.06224e-11
8.29652e-12
-2.84777e-11
1.27336e-11
8.775e-12
-3.19542e-11
1.50407e-11
8.9536e-12
-3.52956e-11
1.74659e-11
8.64643e-12
-3.83502e-11
1.98708e-11
7.63124e-12
-4.09703e-11
2.20643e-11
5.79924e-12
-4.30815e-11
2.38566e-11
3.60843e-12
-4.47263e-11
2.51477e-11
-4.62121e-11
2.60442e-11
1.55445e-12
-2.18399e-12
7.83508e-13
2.95046e-12
-6.3725e-12
2.30439e-12
4.22737e-12
-1.02907e-11
3.7807e-12
5.41664e-12
-1.40972e-11
5.30034e-12
6.54207e-12
-1.79149e-11
6.93806e-12
7.61891e-12
-2.18331e-11
8.7575e-12
8.65133e-12
-2.59072e-11
1.08103e-11
9.62728e-12
-3.01569e-11
1.31315e-11
1.05093e-11
-3.45623e-11
1.5731e-11
1.12199e-11
-3.90576e-11
1.85799e-11
1.16198e-11
-4.35209e-11
2.15938e-11
1.1483e-11
-4.77597e-11
2.46205e-11
1.0497e-11
-5.14896e-11
2.74503e-11
8.39735e-12
-5.43168e-11
2.98747e-11
5.54792e-12
-5.58351e-11
3.17566e-11
-5.61517e-11
3.3156e-11
1.83789e-12
-2.45982e-12
9.19072e-13
3.48777e-12
-7.18056e-12
2.70204e-12
4.9959e-12
-1.16064e-11
4.42959e-12
6.39994e-12
-1.59222e-11
6.20288e-12
7.72969e-12
-2.02742e-11
8.10779e-12
9.00683e-12
-2.4773e-11
1.02175e-11
1.02431e-11
-2.94949e-11
1.25913e-11
1.14365e-11
-3.44814e-11
1.52706e-11
1.25637e-11
-3.97361e-11
1.82685e-11
1.35674e-11
-4.52185e-11
2.15558e-11
1.43368e-11
-5.08304e-11
2.50411e-11
1.46802e-11
-5.63879e-11
2.85543e-11
1.4309e-11
-6.15647e-11
3.18528e-11
1.29124e-11
-6.57922e-11
3.46818e-11
1.06174e-11
-6.82542e-11
3.68612e-11
-6.74716e-11
3.84892e-11
2.08692e-12
-2.65107e-12
1.03437e-12
3.95916e-12
-7.74275e-12
3.03954e-12
5.66845e-12
-1.25277e-11
4.97797e-12
7.25755e-12
-1.72122e-11
6.96074e-12
8.76158e-12
-2.19615e-11
9.08179e-12
1.02086e-11
-2.6905e-11
1.14208e-11
1.16188e-11
-3.21382e-11
1.40422e-11
1.30035e-11
-3.77234e-11
1.69905e-11
1.43603e-11
-4.36888e-11
2.02802e-11
1.56683e-11
-5.00241e-11
2.38791e-11
1.68784e-11
-5.66711e-11
2.76859e-11
1.79037e-11
-6.35082e-11
3.15049e-11
1.86232e-11
-7.03197e-11
3.50401e-11
1.89352e-11
-7.67451e-11
3.79461e-11
1.8897e-11
-8.21655e-11
3.99611e-11
-8.57975e-11
4.12606e-11
2.29805e-12
1.12813e-12
-2.74772e-12
4.35798e-12
3.31324e-12
-8.02971e-12
6.23511e-12
5.42002e-12
-1.30065e-11
7.97559e-12
7.5659e-12
-1.78987e-11
9.61834e-12
9.84954e-12
-2.2885e-11
1.11962e-11
1.23539e-11
-2.81085e-11
1.27366e-11
1.51451e-11
-3.36788e-11
1.42617e-11
1.82678e-11
-3.96741e-11
1.57887e-11
2.17347e-11
-4.61395e-11
1.73292e-11
2.55089e-11
-5.30836e-11
1.88907e-11
2.94781e-11
-6.04711e-11
2.04811e-11
3.34228e-11
-6.8212e-11
2.21318e-11
3.69976e-11
-7.61494e-11
2.39401e-11
3.97663e-11
-8.40489e-11
2.59105e-11
4.137e-11
-9.13589e-11
4.17461e-11
-9.9462e-11
1.83093e-13
-5.00031e-13
6.47225e-14
3.47176e-13
-1.45726e-12
1.90441e-13
4.96491e-13
-2.34767e-12
3.12753e-13
6.34072e-13
-3.20439e-12
4.39095e-13
7.61554e-13
-4.05123e-12
5.75694e-13
8.78912e-13
-4.90259e-12
7.27662e-13
9.84009e-13
-5.76298e-12
8.9887e-13
1.07189e-12
-6.62611e-12
1.09141e-12
1.13409e-12
-7.47346e-12
1.30465e-12
1.15841e-12
-8.27312e-12
1.53377e-12
1.13033e-12
-8.97969e-12
1.76845e-12
1.0375e-12
-9.53391e-12
1.9919e-12
8.7824e-13
-9.85664e-12
2.18232e-12
6.72109e-13
-9.82606e-12
2.31953e-12
4.66641e-13
-9.28138e-12
2.39432e-12
-7.62662e-12
2.58605e-12
5.45763e-13
-9.84936e-13
1.92534e-13
1.03489e-12
-2.87095e-12
5.665e-13
1.48005e-12
-4.62663e-12
9.30231e-13
1.89035e-12
-6.31781e-12
1.30574e-12
2.27091e-12
-7.99248e-12
1.71148e-12
2.62202e-12
-9.68063e-12
2.16264e-12
2.93781e-12
-1.13934e-11
2.67077e-12
3.20404e-12
-1.31212e-11
3.24222e-12
3.39574e-12
-1.48315e-11
3.87538e-12
3.47589e-12
-1.6467e-11
4.55675e-12
3.39826e-12
-1.79483e-11
5.25684e-12
3.11964e-12
-1.91825e-11
5.92758e-12
2.62891e-12
-2.0083e-11
6.50559e-12
1.99948e-12
-2.05971e-11
6.92857e-12
1.44195e-12
-2.07429e-11
7.16258e-12
-2.08163e-11
7.15782e-12
8.98092e-13
-1.43993e-12
3.1558e-13
1.70308e-12
-4.19829e-12
9.2845e-13
2.43585e-12
-6.76916e-12
1.5242e-12
3.11176e-12
-9.25064e-12
2.13861e-12
3.73996e-12
-1.17155e-11
2.80173e-12
4.32218e-12
-1.42116e-11
3.5384e-12
4.85049e-12
-1.67602e-11
4.36768e-12
5.30367e-12
-1.93542e-11
5.30043e-12
5.64268e-12
-2.19546e-11
6.33516e-12
5.80663e-12
-2.44886e-11
7.45219e-12
5.71323e-12
-2.68523e-11
8.60779e-12
5.27251e-12
-2.89271e-11
9.73084e-12
4.43331e-12
-3.06206e-11
1.07289e-11
3.29393e-12
-3.19395e-11
1.15121e-11
2.26146e-12
-3.30178e-11
1.20265e-11
-3.41439e-11
1.23087e-11
1.2335e-12
-1.85005e-12
4.30971e-13
2.33919e-12
-5.39583e-12
1.2677e-12
3.34598e-12
-8.70582e-12
2.08028e-12
4.27558e-12
-1.19095e-11
2.91702e-12
5.14201e-12
-1.51048e-11
3.81856e-12
5.95012e-12
-1.83593e-11
4.81869e-12
6.69282e-12
-2.17087e-11
5.94356e-12
7.34647e-12
-2.51546e-11
7.20876e-12
7.86434e-12
-2.86602e-11
8.61412e-12
8.16889e-12
-3.2146e-11
1.01368e-11
8.14607e-12
-3.5487e-11
1.17243e-11
7.65032e-12
-3.85176e-11
1.32918e-11
6.54831e-12
-4.10579e-11
1.4732e-11
4.86216e-12
-4.29772e-11
1.59448e-11
3.08313e-12
-4.42831e-11
1.68588e-11
-4.53346e-11
1.74733e-11
1.54568e-12
-2.20077e-12
5.36142e-13
2.93114e-12
-6.42119e-12
1.5766e-12
4.19282e-12
-1.03683e-11
2.58563e-12
5.35888e-12
-1.42011e-11
3.62245e-12
6.44892e-12
-1.80421e-11
4.7369e-12
7.47275e-12
-2.19797e-11
5.97057e-12
8.42779e-12
-2.60672e-11
7.35588e-12
9.29439e-12
-3.03207e-11
8.91281e-12
1.00288e-11
-3.47147e-11
1.0643e-11
1.05535e-11
-3.91742e-11
1.25218e-11
1.07461e-11
-4.35633e-11
1.44905e-11
1.04314e-11
-4.76676e-11
1.64528e-11
9.40144e-12
-5.11717e-11
1.82868e-11
7.53527e-12
-5.36507e-11
1.98792e-11
5.21088e-12
-5.4713e-11
2.11352e-11
-5.45577e-11
2.20282e-11
1.82893e-12
-2.47843e-12
6.28995e-13
3.4679e-12
-7.23443e-12
1.84892e-12
4.96012e-12
-1.16918e-11
3.02982e-12
6.33981e-12
-1.60355e-11
4.23986e-12
7.6325e-12
-2.04108e-11
5.53635e-12
8.85436e-12
-2.49263e-11
6.96708e-12
1.00105e-11
-2.96541e-11
8.56941e-12
1.10916e-11
-3.46288e-11
1.03666e-11
1.20688e-11
-3.98431e-11
1.23616e-11
1.28865e-11
-4.524e-11
1.45275e-11
1.34533e-11
-5.0698e-11
1.67979e-11
1.36319e-11
-5.60038e-11
1.90601e-11
1.32428e-11
-6.08022e-11
2.1167e-11
1.21218e-11
-6.45203e-11
2.29744e-11
1.04036e-11
-6.64149e-11
2.43679e-11
-6.51964e-11
2.53581e-11
2.07843e-12
-2.67084e-12
7.07994e-13
3.94016e-12
-7.79986e-12
2.08011e-12
5.6339e-12
-1.26179e-11
3.40534e-12
7.19904e-12
-1.73309e-11
4.75855e-12
8.66656e-12
-2.21028e-11
6.20246e-12
1.00592e-11
-2.70597e-11
7.78918e-12
1.13912e-11
-3.22912e-11
9.55914e-12
1.26666e-11
-3.78503e-11
1.15373e-11
1.38788e-11
-4.37497e-11
1.37263e-11
1.50084e-11
-4.9957e-11
1.60957e-11
1.60248e-11
-5.63841e-11
1.85689e-11
1.68918e-11
-6.28738e-11
2.10113e-11
1.75905e-11
-6.91834e-11
2.32357e-11
1.81585e-11
-7.49664e-11
2.50396e-11
1.86689e-11
-7.97228e-11
2.62698e-11
-8.29016e-11
2.70156e-11
2.29059e-12
7.72251e-13
-2.76795e-12
4.34104e-12
2.26766e-12
-8.0881e-12
6.20382e-12
3.70817e-12
-1.30985e-11
7.92196e-12
5.17299e-12
-1.80191e-11
9.53054e-12
6.72807e-12
-2.30269e-11
1.10576e-11
8.42765e-12
-2.82609e-11
1.25249e-11
1.03132e-11
-3.3824e-11
1.39488e-11
1.24095e-11
-3.9783e-11
1.53416e-11
1.47172e-11
-4.61657e-11
1.67166e-11
1.72018e-11
-5.29561e-11
1.80956e-11
1.97767e-11
-6.00866e-11
1.95283e-11
2.22874e-11
-6.74322e-11