/*--------------------------------*- C++ -*----------------------------------*\
| =========                 |                                                 |
| \\      /  F ield         | OpenFOAM: The Open Source CFD Toolbox           |
|  \\    /   O peration     | Version:  v1912                                 |
|   \\  /    A nd           | Website:  www.openfoam.com                      |
|    \\/     M anipulation  |                                                 |
\*---------------------------------------------------------------------------*/
FoamFile
{
    version     2.0;
    format      ascii;
    class       volScalarField;
    location    "0.55/fluid";
    object      p;
}
// * * * * * * * * * * * * * * * * * * * * * * * * * * * * * * * * * * * * * //

dimensions      [0 2 -2 0 0 0 0];


internalField   nonuniform List<scalar> 
14592
(
0.0565948
0.0510003
0.0491261
0.0475515
0.0466364
0.0459049
0.0453099
0.0447846
0.044284
0.0438727
0.0434141
0.0431841
0.0426693
0.0429199
0.0421038
0.0441651
0.0524047
0.0506655
0.0489994
0.0476591
0.0467424
0.0460011
0.0453891
0.0448572
0.0443577
0.0439578
0.0435172
0.043328
0.0428529
0.0432599
0.0424347
0.0454945
0.0504369
0.049823
0.0485945
0.0475999
0.0467498
0.0460322
0.0454098
0.0448695
0.0443663
0.043974
0.0435543
0.0434159
0.0430035
0.0435846
0.0428215
0.0465792
0.0492486
0.0490933
0.0482295
0.0474704
0.0467048
0.0460193
0.0453926
0.0448415
0.0443275
0.0439326
0.0435207
0.0434191
0.0430596
0.0437875
0.0431421
0.0472707
0.0485421
0.0485106
0.0478717
0.0472662
0.046578
0.0459268
0.0453002
0.0447341
0.0441951
0.0437709
0.0433253
0.0431979
0.0428059
0.0435681
0.0429294
0.0473274
0.0480724
0.0480796
0.0475816
0.0470683
0.0464357
0.0458082
0.0451799
0.0445975
0.0440332
0.0435807
0.0431088
0.0429756
0.0425992
0.0434908
0.0430141
0.0479077
0.0477665
0.0477819
0.0473563
0.0468895
0.0462849
0.0456622
0.0450174
0.0443995
0.0437803
0.0432479
0.0426638
0.0423693
0.0417519
0.0423415
0.041317
0.0462499
0.0475826
0.0476003
0.0472046
0.0467541
0.0461552
0.0455236
0.0448565
0.0442031
0.0435377
0.0429459
0.0422996
0.0419438
0.0413042
0.0420544
0.0412919
0.0485694
0.0564965
0.0509039
0.0490666
0.0475328
0.0466711
0.0459989
0.0454714
0.0450229
0.0446113
0.0443
0.0439604
0.0438323
0.0434565
0.0436128
0.0429111
0.0436338
0.0523064
0.0505673
0.0489389
0.0476401
0.0467777
0.0460964
0.0455527
0.0450983
0.0446888
0.0443897
0.0440679
0.043976
0.0436291
0.043881
0.0431323
0.0442861
0.050335
0.0497197
0.0485281
0.0475746
0.0467792
0.0461224
0.0455686
0.045106
0.0446925
0.0444008
0.0440977
0.0440535
0.0437575
0.0441503
0.0434194
0.0449508
0.0491445
0.0489872
0.0481592
0.0474405
0.0467288
0.0461035
0.0455445
0.0450705
0.0446448
0.0443498
0.0440522
0.0440436
0.043792
0.0443151
0.0436668
0.0454287
0.048435
0.0484014
0.0477972
0.0472308
0.0465951
0.0460023
0.0454414
0.0449496
0.0444949
0.044166
0.0438264
0.0437852
0.0434817
0.0440255
0.0433292
0.0452936
0.0479624
0.0479675
0.0475034
0.0470281
0.0464461
0.0458751
0.0453098
0.0447987
0.0443146
0.0439539
0.0435822
0.0435355
0.0432376
0.0439256
0.043357
0.045799
0.047653
0.0476664
0.0472737
0.0468437
0.0462876
0.0457186
0.0451328
0.0445807
0.0440336
0.0435826
0.0430806
0.0428548
0.0422693
0.0426389
0.041377
0.0438708
0.0474652
0.047481
0.0471176
0.0467027
0.0461503
0.0455698
0.0449582
0.044366
0.0437665
0.04325
0.0426774
0.0423929
0.0417785
0.0423737
0.0413406
0.046284
0.0564357
0.0508448
0.0490357
0.0475356
0.0467198
0.0461015
0.0456394
0.0452699
0.0449591
0.0447741
0.0446138
0.0447038
0.0447015
0.0452164
0.0453563
0.0462143
0.0522457
0.0505069
0.0489075
0.0476429
0.0468273
0.0462008
0.0457232
0.0453492
0.0450421
0.0448716
0.0447321
0.0448613
0.0448942
0.0454991
0.0456335
0.0468194
0.0502708
0.0496545
0.0484909
0.0475715
0.0468233
0.0462218
0.0457346
0.0453527
0.0450416
0.0448789
0.0447579
0.044937
0.0450244
0.0457772
0.0459727
0.0474955
0.0490777
0.0489191
0.0481182
0.0474326
0.0467675
0.0461969
0.0457039
0.0453098
0.0449856
0.0448194
0.0447031
0.0449207
0.0450543
0.0459475
0.0462408
0.0479877
0.048365
0.0483299
0.0477517
0.0472173
0.0466266
0.0460871
0.04559
0.0451756
0.0448183
0.0446141
0.0444482
0.0446282
0.0446951
0.0456071
0.0458226
0.0477648
0.0478893
0.0478929
0.047454
0.0470094
0.046471
0.0459512
0.045447
0.0450101
0.0446188
0.0443781
0.0441717
0.0443421
0.0443973
0.0454571
0.0457541
0.0481763
0.0475761
0.047588
0.0472199
0.0468192
0.0463045
0.045784
0.0452553
0.0447718
0.0443085
0.0439655
0.0436069
0.0435724
0.0432766
0.0439677
0.0433786
0.0458103
0.0473844
0.0473988
0.0470592
0.0466725
0.0461596
0.0456248
0.0450664
0.0445373
0.0440136
0.0435948
0.0431481
0.0430381
0.0426687
0.0435737
0.0430732
0.0479814
0.0563992
0.0508093
0.0490213
0.047547
0.0467667
0.0461898
0.0457767
0.0454627
0.0452168
0.0450993
0.0450201
0.0451656
0.04525
0.0457183
0.0459245
0.0465338
0.0522092
0.0504704
0.0488927
0.0476544
0.0468749
0.0462904
0.0458624
0.0455445
0.0453029
0.0452005
0.0451422
0.0453244
0.0454397
0.0459761
0.0461621
0.0469981
0.0502311
0.0496138
0.048471
0.0475778
0.0468659
0.0463068
0.0458694
0.0455437
0.0452975
0.045202
0.045159
0.0453862
0.045545
0.0462062
0.0464303
0.047531
0.0490355
0.0488756
0.0480946
0.0474345
0.0468052
0.0462765
0.0458326
0.0454941
0.0452336
0.0451335
0.0450924
0.0453553
0.0455518
0.0463417
0.0466399
0.0479356
0.0483196
0.048283
0.047724
0.047214
0.046658
0.0461591
0.0457095
0.0453486
0.045052
0.0449105
0.0448136
0.0450338
0.0451493
0.0459483
0.046135
0.0476114
0.0478408
0.0478431
0.0474226
0.0470014
0.0464962
0.0460155
0.0455568
0.0451712
0.0448373
0.0446565
0.0445138
0.044723
0.0448159
0.0457641
0.0460022
0.0479546
0.0475242
0.0475348
0.0471843
0.0468059
0.046323
0.0458394
0.0453532
0.0449172
0.0445059
0.0442166
0.0439108
0.0439066
0.0436232
0.0441958
0.0434797
0.0454333
0.0473289
0.0473421
0.0470196
0.0466542
0.0461715
0.0456717
0.045153
0.044668
0.0441916
0.0438222
0.0434213
0.043341
0.0429729
0.0437767
0.0431148
0.0475504
0.05638
0.050791
0.0490193
0.0475656
0.0468142
0.0462722
0.0459018
0.0456383
0.0454548
0.045408
0.0454215
0.0456562
0.045879
0.0464202
0.0468105
0.0473584
0.0521901
0.0504514
0.0488905
0.0476733
0.0469233
0.0463742
0.0459897
0.0457231
0.045545
0.0455148
0.045551
0.0458236
0.0460793
0.0466829
0.0470564
0.0477867
0.0502093
0.0495913
0.0484647
0.0475923
0.0469102
0.0463869
0.0459932
0.045719
0.045536
0.0455121
0.045562
0.045877
0.0461705
0.0468881
0.047291
0.0482559
0.0490115
0.0488507
0.0480852
0.0474453
0.0468452
0.046352
0.0459513
0.0456638
0.0454655
0.0454364
0.0454862
0.0458358
0.0461622
0.047004
0.0474699
0.0486189
0.0482927
0.0482552
0.0477108
0.0472202
0.0466924
0.0462279
0.04582
0.0455084
0.0452714
0.0451981
0.045187
0.0454899
0.0457247
0.0465693
0.0469006
0.0482239
0.0478112
0.0478125
0.047406
0.0470034
0.0465253
0.0460775
0.0456588
0.0453203
0.0450429
0.0449272
0.0448647
0.0451531
0.0453537
0.0463445
0.0466996
0.048495
0.0474914
0.0475011
0.047164
0.0468033
0.046346
0.0458935
0.0454446
0.0450523
0.0446924
0.0444622
0.0442259
0.044291
0.0440907
0.0446909
0.0440296
0.0458071
0.047293
0.0473053
0.0469958
0.0466472
0.0461887
0.0457181
0.045234
0.0447894
0.0443594
0.0440434
0.0437026
0.0436841
0.043379
0.0442043
0.0435464
0.0477952
0.0563705
0.0507821
0.0490217
0.0475825
0.0468513
0.0463334
0.0459916
0.04576
0.0456131
0.0456021
0.0456568
0.0459154
0.0461739
0.0466938
0.0471001
0.0475906
0.0521806
0.050442
0.0488928
0.0476904
0.0469611
0.0464363
0.0460807
0.0458465
0.0457055
0.0457114
0.045789
0.0460848
0.0463747
0.0469505
0.0473354
0.0479813
0.0501976
0.0495791
0.0484638
0.0476061
0.0469447
0.0464461
0.0460814
0.0458395
0.045693
0.0457045
0.0457936
0.0461284
0.0464493
0.047128
0.0475298
0.0483907
0.0489981
0.0488365
0.0480818
0.0474561
0.0468764
0.0464075
0.0460355
0.0457799
0.0456174
0.0456228
0.0457099
0.0460773
0.0464256
0.0472223
0.0476745
0.0487122
0.048277
0.0482387
0.0477045
0.0472274
0.0467194
0.0462784
0.0458982
0.0456173
0.0454143
0.0453738
0.0453964
0.0457142
0.0459632
0.0467574
0.0470583
0.0482666
0.0477933
0.0477938
0.0473971
0.0470074
0.0465481
0.046123
0.0457307
0.0454215
0.0451762
0.0450916
0.0450597
0.0453614
0.0455694
0.0465078
0.0468157
0.0484948
0.0474711
0.04748
0.0471522
0.0468038
0.0463643
0.0459332
0.045509
0.0451441
0.0448134
0.0446112
0.0444004
0.0444755
0.0442718
0.0448155
0.0440783
0.045729
0.0472702
0.0472819
0.0469812
0.0466442
0.0462027
0.0457522
0.0452912
0.044872
0.0444685
0.0441782
0.043859
0.0438491
0.0435341
0.0443049
0.0435525
0.0476699
0.056367
0.0507789
0.0490262
0.0475968
0.0468795
0.0463784
0.0460572
0.0458493
0.0457307
0.0457495
0.0458407
0.0461286
0.0464283
0.0469584
0.0473986
0.0478634
0.0521771
0.0504385
0.0488972
0.0477049
0.0469898
0.0464822
0.0461475
0.0459374
0.0458253
0.0458618
0.0459767
0.0463024
0.0466341
0.0472182
0.047637
0.0482426
0.0501927
0.0495738
0.0484661
0.0476183
0.0469713
0.04649
0.0461464
0.0459287
0.0458109
0.0458526
0.0459778
0.0463408
0.0466999
0.0473811
0.0478101
0.0486206
0.0489918
0.0488299
0.0480823
0.0474664
0.0469007
0.046449
0.0460978
0.0458661
0.0457318
0.0457669
0.045889
0.0462835
0.0466669
0.0474629
0.0479353
0.048919
0.0482692
0.0482304
0.047703
0.0472352
0.0467407
0.0463163
0.0459562
0.0456985
0.0455224
0.0455103
0.0455655
0.0459084
0.0461875
0.0469776
0.0472883
0.0484406
0.0477839
0.047784
0.0473938
0.0470128
0.0465665
0.0461572
0.0457841
0.0454971
0.0452773
0.0452196
0.0452177
0.0455428
0.0457755
0.0467073
0.0470133
0.0486354
0.04746
0.0474685
0.0471469
0.0468067
0.0463795
0.0459633
0.0455571
0.0452128
0.0449053
0.0447277
0.0445429
0.0446381
0.044451
0.0449832
0.0442234
0.0458084
0.0472574
0.0472686
0.0469739
0.0466448
0.0462148
0.0457783
0.045334
0.0449337
0.0445513
0.0442833
0.0439862
0.0439937
0.0436883
0.0444449
0.0436537
0.0477016
0.0563656
0.0507783
0.0490285
0.0476041
0.0468931
0.0463997
0.0460875
0.0458894
0.0457817
0.0458103
0.0459122
0.0462047
0.0465113
0.0470337
0.0474761
0.0479306
0.0521761
0.0504373
0.0488997
0.0477122
0.0470036
0.0465038
0.0461781
0.0459778
0.0458765
0.0459225
0.0460478
0.0463772
0.0467147
0.0472889
0.047709
0.0482992
0.0501907
0.0495717
0.0484676
0.0476244
0.046984
0.0465105
0.0461759
0.0459678
0.0458605
0.0459112
0.0460456
0.0464106
0.0467728
0.0474404
0.0478673
0.0486587
0.0489893
0.048827
0.048083
0.0474714
0.0469123
0.0464681
0.0461258
0.0459036
0.0457795
0.0458233
0.0459538
0.0463496
0.0467342
0.0475145
0.0479811
0.0489441
0.0482659
0.0482267
0.0477026
0.047239
0.0467508
0.0463338
0.0459823
0.0457337
0.0455673
0.0455634
0.0456262
0.0459697
0.0462481
0.0470211
0.0473215
0.048452
0.0477798
0.0477795
0.0473924
0.0470155
0.0465752
0.046173
0.0458081
0.0455299
0.0453192
0.0452694
0.0452742
0.0455994
0.0458296
0.0467431
0.047033
0.0486319
0.047455
0.0474631
0.0471445
0.0468082
0.0463867
0.0459772
0.0455788
0.0452426
0.0449436
0.0447733
0.0445943
0.0446893
0.0444977
0.0450111
0.0442286
0.045787
0.0472515
0.0472625
0.0469705
0.0466451
0.0462205
0.0457904
0.0453533
0.0449607
0.044586
0.0443246
0.0440324
0.0440393
0.0437273
0.0444638
0.0436425
0.047658
0.0659906
0.0552665
0.0516511
0.0486899
0.0469742
0.0456095
0.0445068
0.0434808
0.0424672
0.0414231
0.0402732
0.0390398
0.0375817
0.036025
0.0341043
0.0321675
0.061711
0.0545007
0.0512589
0.0485852
0.0469311
0.0456009
0.0445102
0.0434929
0.042488
0.041453
0.0403129
0.0390925
0.0376489
0.0361101
0.0342041
0.0322782
0.0597194
0.053474
0.0506408
0.0483033
0.0467758
0.0455251
0.0444664
0.0434674
0.0424745
0.0414492
0.040321
0.0391151
0.0376928
0.0361781
0.0343015
0.0323981
0.0584687
0.0526628
0.050166
0.0480589
0.0466441
0.0454579
0.0444246
0.0434372
0.0424487
0.0414255
0.0403014
0.0391021
0.0376929
0.0361942
0.0343403
0.0324571
0.0577239
0.0520495
0.0497581
0.0478028
0.0464827
0.0453548
0.044349
0.0433737
0.0423882
0.0413639
0.0402396
0.0390408
0.0376394
0.0361509
0.0343203
0.0324606
0.0572331
0.0516089
0.0494505
0.0475902
0.0463377
0.045251
0.0442655
0.0432976
0.0423118
0.0412837
0.0401569
0.0389564
0.0375625
0.0360842
0.034282
0.0324511
0.0569243
0.0513155
0.0492279
0.0474194
0.046207
0.0451442
0.0441698
0.0432027
0.0422111
0.0411737
0.0400386
0.0388289
0.0374362
0.0359607
0.0341882
0.0323884
0.0567508
0.051147
0.0490903
0.0473034
0.0461072
0.0450519
0.0440788
0.0431064
0.042106
0.0410582
0.0399157
0.038699
0.0373125
0.0358455
0.0341116
0.0323492
0.0617101
0.0544974
0.0512518
0.0485731
0.0469135
0.0455761
0.0444815
0.0434586
0.0424396
0.0413884
0.0402271
0.0389848
0.0375089
0.0359464
0.033995
0.0320702
0.0574954
0.0540773
0.0510178
0.0485667
0.0469289
0.0456015
0.0445033
0.043479
0.0424596
0.0414094
0.0402507
0.0390137
0.0375456
0.0359952
0.0340598
0.0321491
0.0555014
0.0531395
0.0504713
0.0483498
0.0468149
0.0455491
0.0444717
0.0434587
0.0424448
0.0413995
0.040249
0.039023
0.0375734
0.0360432
0.0341322
0.0322408
0.0542643
0.0523454
0.0500252
0.0481353
0.0467064
0.0454978
0.0444405
0.0434347
0.0424216
0.0413766
0.0402292
0.039009
0.0375721
0.0360574
0.0341689
0.0322976
0.0535252
0.0517279
0.0496233
0.0478877
0.0465525
0.0454005
0.044369
0.0433739
0.0423631
0.041317
0.0401698
0.0389506
0.0375222
0.036018
0.0341531
0.0323047
0.0530374
0.0512817
0.0493166
0.0476779
0.0464107
0.0453001
0.0442883
0.0433003
0.0422901
0.0412412
0.0400929
0.0388737
0.0374551
0.0359631
0.0341291
0.0323095
0.05273
0.0509848
0.0490937
0.0475081
0.0462816
0.0451955
0.0441942
0.0432072
0.0421926
0.0411353
0.0399801
0.038753
0.0373375
0.0358493
0.0340479
0.0322588
0.0525572
0.0508152
0.0489565
0.0473933
0.0461836
0.0451055
0.0441052
0.0431135
0.0420919
0.0410257
0.0398652
0.0386335
0.0372277
0.0357509
0.033993
0.0322415
0.0597351
0.0534883
0.0506594
0.0483262
0.0468055
0.0455629
0.0445204
0.0435359
0.0425429
0.041518
0.040372
0.0391491
0.0376493
0.036075
0.0339742
0.0319688
0.0555197
0.0531593
0.0505014
0.0483906
0.0468696
0.0456206
0.0445656
0.0435747
0.0425774
0.0415522
0.0404088
0.0391918
0.0377008
0.0361398
0.0340532
0.0320633
0.0535279
0.0522886
0.050041
0.0482647
0.0468215
0.045611
0.0445613
0.0435722
0.0425743
0.041551
0.0404149
0.0392087
0.0377366
0.0361946
0.0341268
0.0321471
0.0523066
0.0515247
0.0496382
0.0480973
0.04675
0.0455856
0.0445464
0.0435579
0.0425569
0.0415315
0.0403977
0.0391972
0.0377388
0.0362132
0.0341678
0.0322079
0.0515777
0.0509194
0.0492577
0.0478739
0.0466158
0.0455018
0.0444823
0.0434998
0.0424977
0.0414683
0.0403326
0.0391312
0.0376805
0.0361644
0.0341442
0.0322088
0.051096
0.0504772
0.0489594
0.0476739
0.0464822
0.0454065
0.0444032
0.0434252
0.0424213
0.0413871
0.0402493
0.0390473
0.0376081
0.0361068
0.0341265
0.0322274
0.0507912
0.0501811
0.0487394
0.0475075
0.0463556
0.0453023
0.0443066
0.0433266
0.0423156
0.0412695
0.0401212
0.0389068
0.0374686
0.0359682
0.0340307
0.0321693
0.0506186
0.050011
0.0486024
0.0473931
0.0462574
0.0452107
0.0442133
0.0432264
0.0422069
0.0411494
0.0399941
0.0387733
0.0373476
0.0358614
0.0339857
0.0321749
0.0585016
0.0526948
0.0502152
0.0481277
0.0467401
0.0455857
0.0445949
0.0436513
0.042692
0.041704
0.040582
0.0393917
0.0378619
0.0362804
0.0339502
0.0318371
0.0543006
0.0523834
0.0500875
0.048225
0.0468313
0.0456649
0.0446554
0.0437006
0.0427353
0.0417466
0.0406278
0.0394453
0.0379267
0.0363642
0.0340481
0.031952
0.052324
0.0515418
0.04967
0.0481463
0.0468211
0.0456828
0.044669
0.0437093
0.04274
0.0417516
0.0406401
0.0394691
0.0379702
0.0364255
0.0341169
0.0320127
0.0511183
0.0507971
0.0492906
0.0480041
0.0467698
0.0456717
0.0446627
0.0436995
0.0427244
0.0417326
0.0406231
0.0394587
0.037975
0.0364484
0.0341597
0.0320727
0.0504001
0.0502034
0.0489238
0.0477952
0.0466471
0.0455951
0.0446014
0.0436405
0.0426611
0.0416624
0.0405486
0.0393807
0.0379027
0.0363835
0.0341209
0.0320602
0.0499249
0.0497672
0.0486318
0.0476012
0.0465177
0.0455014
0.0445214
0.0435623
0.0425787
0.041573
0.0404558
0.0392866
0.037823
0.0363228
0.0341139
0.032102
0.0496229
0.0494734
0.0484141
0.0474365
0.0463914
0.0453951
0.0444202
0.0434562
0.0424614
0.0414389
0.0403059
0.0391171
0.0376504
0.0361447
0.0339942
0.0320306
0.0494505
0.0493032
0.0482768
0.0473213
0.0462912
0.0452996
0.0443216
0.0433486
0.0423421
0.0413048
0.0401626
0.038965
0.0375152
0.0360291
0.0339707
0.0320825
0.0577741
0.0521004
0.0498456
0.0479348
0.0466759
0.04562
0.0447026
0.0438264
0.0429307
0.0420164
0.0409588
0.0398552
0.0383361
0.0368066
0.0341813
0.0319306
0.0535792
0.0517841
0.0497242
0.0480418
0.0467769
0.0457084
0.0447708
0.0438831
0.0429821
0.0420689
0.041017
0.0399258
0.0384232
0.0369236
0.0343133
0.0320742
0.0516119
0.050953
0.0493263
0.0479863
0.0467868
0.0457421
0.0447954
0.0438993
0.0429929
0.04208
0.041037
0.0399601
0.0384795
0.0369977
0.0343741
0.0320948
0.0504168
0.0502196
0.0489603
0.0478585
0.0467472
0.0457392
0.0447935
0.043891
0.0429771
0.04206
0.0410196
0.0399514
0.0384888
0.0370302
0.034423
0.0321581
0.0497068
0.0496346
0.0486033
0.0476593
0.0466318
0.0456665
0.0447323
0.0438281
0.042906
0.0419782
0.0409296
0.0398541
0.0383944
0.0369413
0.0343621
0.0321299
0.0492367
0.0492034
0.0483162
0.0474696
0.0465048
0.0455725
0.0446488
0.0437428
0.042813
0.0418746
0.04082
0.0397417
0.0382993
0.036873
0.0343696
0.0322129
0.0489367
0.0489115
0.0481
0.0473055
0.0463772
0.0454619
0.0445398
0.0436239
0.0426767
0.0417132
0.040633
0.0395215
0.0380651
0.0366191
0.0341939
0.0321059
0.0487637
0.0487406
0.0479616
0.0471882
0.0462733
0.0453604
0.0444321
0.043503
0.0425391
0.0415546
0.0404596
0.0393327
0.0378956
0.036475
0.0341869
0.0322274
0.057288
0.0516656
0.0495677
0.0477819
0.0466318
0.0456654
0.0448238
0.0440215
0.0431981
0.042368
0.0413839
0.0403771
0.0388582
0.0373708
0.0342956
0.031823
0.053096
0.0513422
0.0494458
0.0478908
0.0467362
0.0457573
0.0448955
0.0440824
0.0432549
0.0424278
0.0414522
0.0404637
0.0389675
0.0375237
0.0344447
0.0319238
0.0511329
0.0505122
0.0490529
0.0478423
0.0467528
0.0457964
0.0449235
0.044101
0.0432679
0.0424422
0.0414774
0.0405071
0.0390334
0.0376029
0.0344568
0.0318017
0.0499437
0.0497839
0.0486921
0.0477193
0.0467167
0.0457951
0.0449211
0.0440905
0.0432488
0.0424186
0.0414571
0.0404982
0.0390447
0.0376418
0.0344958
0.0318318
0.0492384
0.0492032
0.0483391
0.0475234
0.0466028
0.0457217
0.044856
0.0440202
0.0431665
0.0423215
0.041347
0.0403759
0.0389197
0.0375189
0.0343991
0.0317754
0.0487711
0.0487748
0.0480541
0.0473346
0.0464748
0.0456246
0.0447665
0.0439255
0.0430604
0.0422012
0.041218
0.0402433
0.0388092
0.0374492
0.0344405
0.0319412
0.0484716
0.0484834
0.0478377
0.047169
0.0463436
0.0455079
0.0446476
0.0437912
0.0429018
0.0420077
0.0409865
0.0399612
0.038497
0.0370974
0.0341989
0.0318098
0.0482971
0.048311
0.0476972
0.0470486
0.0462347
0.0453993
0.0445297
0.0436555
0.0427441
0.0418225
0.0407811
0.0397356
0.038299
0.036947
0.0342702
0.0321385
0.0569654
0.0513602
0.0493645
0.0476693
0.0466122
0.0457324
0.044976
0.0442658
0.043545
0.0428466
0.0420127
0.0412256
0.0398985
0.0387459
0.0354992
0.0330938
0.0527746
0.0510315
0.0492408
0.047778
0.0467176
0.045826
0.0450506
0.044331
0.0436081
0.0429158
0.0420943
0.0413339
0.0400377
0.038951
0.0356766
0.0331314
0.0508119
0.0501988
0.0488465
0.0477289
0.0467342
0.045865
0.0450783
0.0443493
0.0436214
0.0429323
0.042125
0.0413904
0.0401226
0.0390621
0.0356786
0.0329125
0.0496252
0.0494719
0.0484865
0.0476062
0.0466975
0.0458619
0.0450727
0.0443345
0.0435972
0.042904
0.0421015
0.0413846
0.0401441
0.0391294
0.0357386
0.0329432
0.0489215
0.0488926
0.0481342
0.0474099
0.0465816
0.0457843
0.0450004
0.0442535
0.0435
0.0427872
0.0419657
0.0412315
0.0399814
0.0389709
0.0356043
0.0328644
0.048455
0.0484648
0.0478491
0.0472196
0.0464504
0.0456816
0.044902
0.0441461
0.0433766
0.0426449
0.0418098
0.0410701
0.0398444
0.0388948
0.0356773
0.0331385
0.0481545
0.0481725
0.0476308
0.0470508
0.0463138
0.0455564
0.0447697
0.0439919
0.0431885
0.0424079
0.0415143
0.0406935
0.0393967
0.038356
0.035237
0.0328581
0.0479775
0.0479976
0.0474873
0.0469261
0.0461987
0.0454387
0.0446382
0.0438368
0.0430036
0.042185
0.0412588
0.0404033
0.0391265
0.0381473
0.035324
0.0334459
0.0567429
0.0511448
0.04922
0.0475925
0.0466116
0.0458079
0.0451305
0.0445065
0.0438808
0.0432973
0.0425872
0.0419572
0.0407356
0.0397109
0.0360217
0.033052
0.0525525
0.0508124
0.0490945
0.0477006
0.0467172
0.0459025
0.0452071
0.0445749
0.0439484
0.0433733
0.0426778
0.0420794
0.0408858
0.0399194
0.0360399
0.0323841
0.0505878
0.0499751
0.0486954
0.0476472
0.0467299
0.0459382
0.0452319
0.0445906
0.0439597
0.0433893
0.0427094
0.0421416
0.0409719
0.0400192
0.0358956
0.0315876
0.049401
0.0492473
0.0483336
0.0475218
0.0466898
0.0459308
0.045221
0.0445696
0.0439284
0.0433542
0.0426793
0.0421335
0.0409917
0.0400905
0.035918
0.0314377
0.0486966
0.0486671
0.0479793
0.0473223
0.0465693
0.0458466
0.0451395
0.0444763
0.0438146
0.0432159
0.042515
0.0419457
0.0407823
0.039883
0.0357249
0.0312999
0.0482291
0.0482382
0.0476923
0.0471288
0.0464333
0.0457367
0.0450309
0.0443554
0.0436736
0.043052
0.0423332
0.0417595
0.0406251
0.0398183
0.0358697
0.0317368
0.0479263
0.0479437
0.047471
0.0469554
0.0462902
0.0456019
0.0448846
0.0441808
0.043456
0.0427725
0.0419751
0.0412921
0.0400425
0.0390951
0.0352338
0.0312796
0.0477461
0.0477657
0.0473238
0.0468256
0.0461682
0.0454745
0.0447395
0.0440069
0.0432457
0.0425164
0.0416787
0.0409591
0.0397418
0.0389289
0.0355245
0.0324392
0.0475091
0.0475281
0.0471256
0.0466625
0.0460442
0.045384
0.0446773
0.0439668
0.0432222
0.0425049
0.0416733
0.0409549
0.0397282
0.0388986
0.0354447
0.0322894
0.0475502
0.0475692
0.047126
0.0466264
0.0459672
0.0452674
0.0445192
0.0437593
0.0429577
0.0421623
0.0412496
0.0403997
0.0391133
0.0381162
0.035241
0.0333094
0.047716
0.0477275
0.0471988
0.0466325
0.0459121
0.0451573
0.0443589
0.0435423
0.042675
0.0417857
0.0407635
0.0397262
0.0382802
0.0369084
0.0341813
0.0320008
0.0480622
0.0480366
0.0473549
0.0466774
0.0458762
0.0450638
0.0442213
0.0433625
0.0424529
0.0415084
0.040438
0.039323
0.0378794
0.0364411
0.0341096
0.0321066
0.0486548
0.0485048
0.0475846
0.0467367
0.0458336
0.0449583
0.0440795
0.043186
0.0422418
0.0412506
0.0401374
0.0389545
0.0375012
0.0359995
0.0339041
0.0319767
0.0497583
0.0491494
0.0478547
0.0467625
0.0457645
0.0448436
0.0439556
0.0430552
0.0421023
0.0410944
0.0399708
0.0387664
0.0373392
0.035839
0.033931
0.0320839
0.051653
0.0499131
0.0481753
0.0467356
0.0456693
0.0447193
0.0438339
0.0429359
0.041985
0.0409708
0.0398438
0.0386297
0.037224
0.0357346
0.033948
0.0321624
0.0558469
0.0502547
0.0483221
0.0466593
0.0456058
0.0446773
0.0438154
0.0429362
0.042008
0.0410112
0.0399011
0.0387009
0.0373137
0.0358333
0.0340703
0.0322731
0.0473872
0.0474044
0.0470333
0.0466047
0.0460309
0.0454186
0.0447626
0.0441065
0.0434175
0.0427608
0.0419793
0.0413042
0.0400419
0.0390713
0.0351241
0.0310596
0.0474237
0.0474411
0.0470289
0.0465627
0.0459461
0.0452915
0.0445903
0.0438795
0.0431268
0.0423841
0.0415134
0.0407041
0.0393939
0.0383277
0.0351221
0.0326569
0.0475848
0.0475947
0.0470967
0.0465631
0.0458835
0.0451707
0.0444153
0.0436419
0.0428156
0.041968
0.0409749
0.0399628
0.0384851
0.0370577
0.0340802
0.0316178
0.0479265
0.0478994
0.0472479
0.0466024
0.0458412
0.0450685
0.044266
0.0434461
0.0425724
0.0416631
0.0406167
0.0395221
0.0380566
0.0365863
0.0340959
0.0319445
0.048515
0.0483638
0.0474735
0.0466568
0.0457923
0.0449552
0.0441133
0.0432548
0.0423418
0.0413796
0.040285
0.0391163
0.0376448
0.0361186
0.0339152
0.0318971
0.0496156
0.0490058
0.047741
0.0466798
0.0457195
0.0448358
0.0439831
0.0431152
0.042191
0.041209
0.040102
0.0389098
0.0374702
0.0359522
0.0339707
0.0320602
0.0515091
0.0497693
0.0480613
0.0466521
0.0456224
0.0447074
0.0438557
0.0429891
0.0420649
0.0410745
0.0399627
0.0387593
0.037345
0.0358418
0.0340028
0.0321689
0.0557032
0.0501129
0.0482101
0.0465778
0.0455611
0.0446673
0.0438395
0.042993
0.0420928
0.0411212
0.0400284
0.0388414
0.0374492
0.0359578
0.0341475
0.0323021
0.0473022
0.0473179
0.0469699
0.0465684
0.0460317
0.045462
0.0448542
0.0442535
0.0436278
0.0430495
0.0423577
0.0418003
0.0406471
0.0398046
0.0357051
0.0313741
0.0473345
0.0473506
0.0469608
0.0465205
0.0459392
0.0453243
0.044667
0.0440054
0.0433068
0.042629
0.0418273
0.0411065
0.0398614
0.0388742
0.0355128
0.0328263
0.0474912
0.0475001
0.047024
0.0465155
0.045869
0.0451929
0.044477
0.0437461
0.0429642
0.0421668
0.0412215
0.0402659
0.0388123
0.0374125
0.0342802
0.0316657
0.047829
0.0478009
0.0471708
0.0465499
0.0458208
0.0450822
0.0443157
0.0435333
0.0426972
0.0418283
0.0408174
0.0397621
0.038307
0.0368476
0.0342475
0.0319972
0.0484141
0.048262
0.0473928
0.0465999
0.0457662
0.0449613
0.0441523
0.0433267
0.0424454
0.0415155
0.0404469
0.0393041
0.0378344
0.0363077
0.0340246
0.0319368
0.0495122
0.0489018
0.047658
0.0466202
0.0456897
0.0448371
0.0440155
0.0431777
0.0422819
0.0413275
0.0402417
0.0390688
0.0376288
0.0361062
0.0340672
0.032103
0.0514047
0.049665
0.0479782
0.0465918
0.0455908
0.0447048
0.0438826
0.0430445
0.0421462
0.0411802
0.0400865
0.0388984
0.037483
0.035974
0.0340925
0.0322157
0.0555989
0.0500101
0.0481286
0.0465193
0.0455314
0.0446663
0.0438684
0.0430516
0.0421781
0.0412319
0.0401587
0.0389882
0.037597
0.036101
0.0342517
0.0323625
0.0472428
0.0472573
0.0469258
0.0465448
0.0460367
0.0454995
0.044928
0.0443668
0.0437818
0.0432448
0.0425857
0.0420469
0.0408633
0.0399195
0.0355225
0.0307688
0.0472715
0.0472865
0.0469128
0.0464919
0.0459377
0.0453535
0.0447296
0.0441037
0.043441
0.0427992
0.0420244
0.0413208
0.0400486
0.0389918
0.0354084
0.0324394
0.0474246
0.0474325
0.0469723
0.0464824
0.0458613
0.0452137
0.0445283
0.0438291
0.0430777
0.0423101
0.0413849
0.0404415
0.0389613
0.0375099
0.0342104
0.0314181
0.0477591
0.0477301
0.0471154
0.046513
0.0458083
0.0450963
0.044358
0.0436041
0.0427949
0.0419517
0.0409577
0.0399131
0.0384386
0.036945
0.0342319
0.0318709
0.0483415
0.0481886
0.0473346
0.0465593
0.0457492
0.0449696
0.0441865
0.0433865
0.042529
0.041621
0.0405665
0.0394325
0.0379483
0.0363979
0.034037
0.0318766
0.0494376
0.0488267
0.0475979
0.0465776
0.0456698
0.0448419
0.0440451
0.043231
0.0423571
0.0414227
0.0403501
0.0391856
0.0377358
0.0361961
0.034102
0.0320845
0.0513294
0.0495897
0.047918
0.0465486
0.0455697
0.0447065
0.0439079
0.0430928
0.0422152
0.0412678
0.0401865
0.0390067
0.0375849
0.0360633
0.0341414
0.0322233
0.0555237
0.0499359
0.0480697
0.0464776
0.045512
0.0446695
0.0438957
0.0431031
0.0422512
0.0413249
0.0402657
0.0391055
0.0377105
0.0362041
0.0343174
0.0323868
0.0472036
0.0472173
0.0468981
0.046533
0.0460477
0.0455376
0.0449976
0.0444723
0.0439271
0.0434347
0.0428211
0.042327
0.0411662
0.0402084
0.0356519
0.0306
0.0472292
0.0472435
0.0468816
0.0464757
0.0459431
0.045384
0.0447888
0.044195
0.0435666
0.0429626
0.0422236
0.0415547
0.0402923
0.0392213
0.0355033
0.0323401
0.0473793
0.0473865
0.0469379
0.0464623
0.0458612
0.0452369
0.0445773
0.0439061
0.0431837
0.0424469
0.0415482
0.0406294
0.0391494
0.0376825
0.0342746
0.0313525
0.0477111
0.0476815
0.047078
0.0464896
0.0458039
0.0451134
0.0443987
0.0436697
0.0428854
0.0420678
0.0410946
0.0400683
0.0385914
0.037085
0.0342947
0.0318488
0.0482912
0.0481379
0.0472948
0.0465328
0.045741
0.0449816
0.0442199
0.0434419
0.0426059
0.0417192
0.0406812
0.0395609
0.0380737
0.0365127
0.0340969
0.0318787
0.0493857
0.0487745
0.0475566
0.0465494
0.045659
0.0448507
0.0440741
0.0432803
0.0424258
0.0415101
0.0404516
0.0392983
0.0378461
0.0362976
0.0341631
0.032102
0.0512768
0.0495372
0.0478764
0.0465198
0.0455577
0.0447126
0.0439332
0.0431374
0.0422777
0.0413474
0.0402788
0.0391087
0.0376853
0.0361566
0.0342043
0.0322518
0.0554713
0.0498842
0.0480291
0.04645
0.0455014
0.0446767
0.0439224
0.04315
0.0423168
0.0414083
0.0403629
0.0392135
0.0378184
0.0363059
0.0343907
0.0324254
0.0471783
0.0471913
0.0468806
0.0465266
0.0460572
0.0455659
0.045047
0.0445446
0.0440226
0.0435523
0.0429548
0.0424656
0.041283
0.0402648
0.0355556
0.0302794
0.0472015
0.0472152
0.0468615
0.046466
0.0459486
0.0454069
0.0448312
0.0442582
0.0436503
0.0430658
0.0423399
0.0416756
0.0403929
0.0392758
0.0354383
0.0321295
0.0473493
0.047356
0.0469154
0.0464497
0.0458627
0.0452547
0.0446128
0.0439603
0.0432558
0.0425356
0.0416475
0.0407324
0.0392349
0.0377337
0.0342355
0.0312138
0.047679
0.047649
0.0470532
0.0464746
0.0458024
0.045127
0.0444287
0.0437166
0.0429482
0.0421453
0.0411812
0.0401588
0.0386687
0.0371381
0.0342842
0.0317721
0.0482575
0.0481038
0.0472682
0.0465156
0.0457368
0.0449917
0.044245
0.0434823
0.0426605
0.0417868
0.040757
0.0396406
0.0381441
0.0365663
0.0341059
0.031842
0.0493508
0.0487393
0.0475289
0.0465308
0.0456529
0.0448586
0.0440965
0.0433168
0.0424757
0.0415721
0.0405214
0.0393725
0.0379139
0.0363531
0.0341857
0.0320901
0.0512414
0.0495018
0.0478485
0.0465009
0.0455507
0.0447187
0.043953
0.043171
0.042324
0.0414052
0.0403443
0.039179
0.0377515
0.0362137
0.0342366
0.0322566
0.055436
0.0498495
0.0480019
0.046432
0.0454955
0.0446838
0.0439435
0.0431858
0.0423657
0.0414696
0.040433
0.0392894
0.0378917
0.0363714
0.0344328
0.03244
0.0471637
0.0471763
0.0468712
0.0465246
0.0460661
0.0455877
0.0450841
0.0445988
0.0440951
0.0436439
0.0430637
0.0425872
0.0414034
0.0403608
0.0355659
0.0301401
0.0471852
0.0471986
0.0468502
0.0464617
0.0459545
0.0454249
0.0448631
0.0443054
0.0437136
0.0431454
0.0424334
0.0417792
0.0404927
0.0393556
0.0354489
0.032045
0.0473315
0.0473379
0.0469025
0.0464433
0.0458658
0.045269
0.0446396
0.0440007
0.04331
0.0426036
0.0417264
0.0408192
0.039317
0.0378003
0.0342486
0.0311611
0.0476598
0.0476295
0.0470387
0.0464666
0.0458033
0.0451382
0.0444514
0.0437514
0.0429951
0.0422039
0.0412488
0.0402326
0.0387384
0.0371963
0.034304
0.0317477
0.0482372
0.0480832
0.0472525
0.0465059
0.0457358
0.0450003
0.044264
0.0435122
0.042701
0.0418374
0.0408151
0.039704
0.0382044
0.0366184
0.0341306
0.031836
0.0493297
0.048718
0.0475123
0.0465203
0.0456505
0.0448656
0.0441135
0.0433437
0.0425122
0.0416178
0.0405739
0.0394297
0.0379689
0.0364018
0.034214
0.0320949
0.0512199
0.0494802
0.0478317
0.04649
0.0455477
0.0447244
0.0439681
0.0431957
0.0423577
0.0414474
0.0403929
0.0392319
0.0378032
0.0362606
0.0342678
0.0322691
0.0554145
0.0498284
0.0479857
0.0464217
0.0454932
0.04469
0.0439593
0.0432117
0.0424011
0.0415139
0.0404841
0.0393456
0.0379473
0.0364227
0.0344692
0.0324576
0.0471569
0.0471692
0.0468668