/*--------------------------------*- C++ -*----------------------------------*\
| =========                 |                                                 |
| \\      /  F ield         | OpenFOAM: The Open Source CFD Toolbox           |
|  \\    /   O peration     | Version:  v1912                                 |
|   \\  /    A nd           | Website:  www.openfoam.com                      |
|    \\/     M anipulation  |                                                 |
\*---------------------------------------------------------------------------*/
FoamFile
{
    version     2.0;
    format      ascii;
    class       volVectorField;
    location    "0.55/fluid";
    object      U;
}
// * * * * * * * * * * * * * * * * * * * * * * * * * * * * * * * * * * * * * //

dimensions      [0 1 -1 0 0 0 0];


internalField   nonuniform List<vector> 
14592
(
(0.0877328 0.0172513 0.000632438)
(0.0725567 0.0115567 0.000976661)
(0.0580566 0.00709638 0.000722116)
(0.0502893 0.0034011 0.000101914)
(0.0456541 0.00153841 -0.000773981)
(0.0431791 0.000658308 -0.00184085)
(0.0415796 0.000306116 -0.00312002)
(0.0403862 0.000166325 -0.00467692)
(0.039166 0.00010634 -0.00661664)
(0.0379303 4.69525e-05 -0.00910436)
(0.0362085 -4.2516e-05 -0.0123919)
(0.0345112 -0.000262094 -0.0168304)
(0.0313068 -0.000586561 -0.0231468)
(0.0284903 -0.00145536 -0.0316004)
(0.0201264 -0.00202385 -0.0428307)
(0.0113681 -0.0050492 -0.0412696)
(0.104021 0.017708 0.000832443)
(0.103935 0.0168923 0.00131335)
(0.101283 0.0132431 0.000986106)
(0.0980018 0.00863555 5.8631e-05)
(0.0948739 0.00536786 -0.00134213)
(0.0923715 0.00336963 -0.00312544)
(0.0901863 0.00236054 -0.00530914)
(0.0881436 0.00193875 -0.00799208)
(0.0858712 0.00184627 -0.0113455)
(0.0833338 0.0019096 -0.0156417)
(0.0798965 0.00203093 -0.0212882)
(0.0759311 0.00206354 -0.0288657)
(0.0693101 0.00198038 -0.0394049)
(0.0617977 0.00124094 -0.0533451)
(0.0445355 0.000368818 -0.0702001)
(0.0257366 -0.00373579 -0.0659307)
(0.103977 0.0115942 0.000883282)
(0.108353 0.0152167 0.00139678)
(0.111278 0.0139213 0.00105282)
(0.111801 0.0105976 6.57693e-05)
(0.111131 0.00767012 -0.00143668)
(0.109848 0.00562195 -0.00336748)
(0.1082 0.00450098 -0.00574678)
(0.106286 0.00406603 -0.00868122)
(0.103911 0.00410667 -0.0123553)
(0.101072 0.00445249 -0.0170678)
(0.0971135 0.00499199 -0.0232604)
(0.0922997 0.00557497 -0.0315888)
(0.0842979 0.00614222 -0.0431505)
(0.0747042 0.00613588 -0.0585709)
(0.0537065 0.00542383 -0.077223)
(0.0302482 0.000669444 -0.0736659)
(0.102105 0.00747003 0.000906256)
(0.10645 0.0118757 0.00144629)
(0.11078 0.0121709 0.00111297)
(0.113052 0.0104494 0.000133258)
(0.113946 0.00846958 -0.00135906)
(0.113783 0.0069342 -0.00327673)
(0.112895 0.0060978 -0.00563938)
(0.11147 0.0059077 -0.0085535)
(0.109411 0.00626154 -0.0122015)
(0.106759 0.00705536 -0.0168865)
(0.102862 0.00822406 -0.02305)
(0.0979544 0.00966423 -0.0313823)
(0.0895716 0.0113343 -0.0429913)
(0.0792474 0.012642 -0.0586717)
(0.0567379 0.0127351 -0.0778411)
(0.0310587 0.00659181 -0.0751873)
(0.101089 0.0049195 0.000933386)
(0.104539 0.00889764 0.00151183)
(0.108703 0.00999928 0.0012113)
(0.111553 0.00944976 0.000266071)
(0.113291 0.00839814 -0.00118126)
(0.113946 0.00751557 -0.00303709)
(0.113764 0.00713005 -0.00531448)
(0.11292 0.00731493 -0.00811296)
(0.111351 0.00806316 -0.0116035)
(0.109137 0.00934815 -0.016081)
(0.105632 0.0111624 -0.0219662)
(0.101073 0.0134685 -0.0299646)
(0.0928691 0.0162581 -0.0411502)
(0.0824799 0.0188908 -0.0565161)
(0.0590739 0.0199154 -0.0755011)
(0.0315471 0.0116446 -0.0739269)
(0.100645 0.00335639 0.000965306)
(0.103405 0.00653418 0.00159136)
(0.107166 0.00788379 0.0013381)
(0.110184 0.00805526 0.000442379)
(0.112383 0.00774624 -0.000944277)
(0.113612 0.00749433 -0.00271838)
(0.114012 0.00761422 -0.00488266)
(0.113717 0.00824601 -0.00752534)
(0.112672 0.00945781 -0.0108006)
(0.110973 0.0113144 -0.0149889)
(0.107984 0.0139016 -0.0204783)
(0.103942 0.0173401 -0.0279794)
(0.0961304 0.0217839 -0.0385001)
(0.0859483 0.0267962 -0.0532712)
(0.0618384 0.0305712 -0.0717098)
(0.0325308 0.0208085 -0.0715858)
(0.100479 0.00221298 0.00100391)
(0.102877 0.00455048 0.00168581)
(0.106377 0.00587777 0.00149071)
(0.109474 0.00647355 0.000655987)
(0.111972 0.00673131 -0.000657238)
(0.113631 0.00702908 -0.00233281)
(0.114529 0.00762626 -0.00435859)
(0.114777 0.00868449 -0.00680445)
(0.114342 0.0103161 -0.00979722)
(0.113362 0.0126589 -0.0135835)
(0.111267 0.015869 -0.0184845)
(0.108371 0.0202186 -0.0251602)
(0.101973 0.0259852 -0.0344348)
(0.0935136 0.0330012 -0.0477256)
(0.0699423 0.0392256 -0.0641278)
(0.0396993 0.0276608 -0.0656907)
(0.100427 0.00125289 0.00104706)
(0.102698 0.00275556 0.00179004)
(0.10613 0.00390844 0.00165922)
(0.109334 0.00474604 0.000891764)
(0.112071 0.00543777 -0.000341827)
(0.114066 0.00620077 -0.00191184)
(0.115371 0.00722053 -0.00378994)
(0.116095 0.00865593 -0.00602549)
(0.116231 0.0106485 -0.0087163)
(0.115945 0.0134145 -0.0120711)
(0.114747 0.0172076 -0.0163415)
(0.113012 0.0226155 -0.0221243)
(0.108125 0.0302947 -0.0300568)
(0.101759 0.0418543 -0.0417583)
(0.0795352 0.0563168 -0.0561643)
(0.0518612 0.0613428 -0.061046)
(0.0877015 0.017254 0.000396636)
(0.0723782 0.0115691 0.000566172)
(0.0576549 0.00710729 0.000295395)
(0.0496922 0.00340736 -0.000253812)
(0.044869 0.00154323 -0.00101734)
(0.0422074 0.000664702 -0.00196201)
(0.0403889 0.000316012 -0.00311725)
(0.0389186 0.000180278 -0.00453704)
(0.0373357 0.000125948 -0.0063084)
(0.0356114 7.47592e-05 -0.0085374)
(0.0332684 2.22446e-06 -0.011411)
(0.0306944 -0.000181194 -0.0150231)
(0.026579 -0.000431024 -0.0198144)
(0.0222016 -0.0011027 -0.0248885)
(0.0137334 -0.00154157 -0.0299005)
(0.00389378 -0.00362634 -0.0203793)
(0.103978 0.0177214 0.000507126)
(0.103685 0.0169277 0.000712482)
(0.100703 0.0132878 0.000310819)
(0.0970796 0.00868136 -0.0005502)
(0.0935979 0.00541911 -0.00179742)
(0.0907304 0.00343499 -0.0033894)
(0.0881282 0.00244971 -0.0053669)
(0.0855708 0.00206001 -0.00782098)
(0.0826313 0.00201014 -0.0108981)
(0.079203 0.00212776 -0.0147902)
(0.0746069 0.00232429 -0.0198021)
(0.0690512 0.00245519 -0.0261671)
(0.0606331 0.00251352 -0.0344881)
(0.050447 0.00196996 -0.0436185)
(0.0325466 0.00116436 -0.0517886)
(0.0120876 -0.00254009 -0.0349513)
(0.103936 0.0116177 0.000536467)
(0.108095 0.0152736 0.000744971)
(0.110674 0.0140031 0.000309313)
(0.110826 0.0106952 -0.000615845)
(0.109764 0.00778715 -0.00195887)
(0.108072 0.00577007 -0.00368446)
(0.105957 0.00469707 -0.00583898)
(0.103473 0.0043284 -0.00852339)
(0.100359 0.0044584 -0.0118965)
(0.0965372 0.00491833 -0.0161734)
(0.0912892 0.00560856 -0.0216824)
(0.0847132 0.00637014 -0.0287082)
(0.0746747 0.00716306 -0.0378754)
(0.062116 0.00734928 -0.0480487)
(0.0402607 0.00662992 -0.0571041)
(0.014979 0.00145714 -0.0386532)
(0.102067 0.00749759 0.000556735)
(0.106196 0.0119442 0.000782739)
(0.110182 0.0122772 0.000353888)
(0.112087 0.0105875 -0.000564459)
(0.112595 0.00864406 -0.00189678)
(0.112028 0.00715966 -0.00360851)
(0.110681 0.00639765 -0.00574571)
(0.108696 0.0063109 -0.00840945)
(0.105908 0.00680623 -0.0117563)
(0.102287 0.00778522 -0.0160051)
(0.0971064 0.00920142 -0.0214809)
(0.0904388 0.0109408 -0.0284931)
(0.0799894 0.0129924 -0.0376575)
(0.0666417 0.0146172 -0.0479195)
(0.0431807 0.0147909 -0.0571122)
(0.0155185 0.00755247 -0.0386525)
(0.101052 0.00495204 0.00058532)
(0.104289 0.00897871 0.000847117)
(0.108117 0.0101293 0.000450105)
(0.110613 0.00962563 -0.00043401)
(0.111982 0.00862572 -0.00172229)
(0.112256 0.00781238 -0.00337499)
(0.111644 0.00752546 -0.00543155)
(0.110274 0.00784792 -0.0079864)
(0.108023 0.00878677 -0.0111852)
(0.104897 0.0103259 -0.0152405)
(0.100174 0.0124854 -0.0204578)
(0.0939391 0.0152185 -0.0271613)
(0.0837215 0.0185681 -0.0359311)
(0.0703573 0.0216795 -0.045865)
(0.0458881 0.0229312 -0.0548145)
(0.0161481 0.012952 -0.0370643)
(0.100609 0.0033936 0.00061892)
(0.103161 0.00662653 0.000927382)
(0.106595 0.0080338 0.000576691)
(0.109274 0.00826222 -0.000259028)
(0.111128 0.00801788 -0.0014885)
(0.112004 0.00785139 -0.00306352)
(0.112009 0.00809204 -0.00501316)
(0.111234 0.00889407 -0.00742149)
(0.109565 0.0103459 -0.0104187)
(0.107034 0.0125318 -0.0142059)
(0.102918 0.0155811 -0.0190595)
(0.0973221 0.019621 -0.0253162)
(0.0875874 0.0249028 -0.0334969)
(0.0745506 0.0307268 -0.0429111)
(0.0492608 0.0351867 -0.0514298)
(0.017473 0.0231137 -0.0348765)
(0.100444 0.00225489 0.000658336)
(0.10264 0.00465301 0.00102172)
(0.105825 0.00604433 0.000727688)
(0.108601 0.00670486 -4.88706e-05)
(0.11078 0.00703672 -0.00120786)
(0.11212 0.00743188 -0.00268962)
(0.112667 0.00816623 -0.00450893)
(0.112498 0.00941922 -0.00673382)
(0.111524 0.0113283 -0.0094705)
(0.109831 0.014059 -0.0128954)
(0.106768 0.0178233 -0.0172316)
(0.102556 0.0229176 -0.0227992)
(0.0944706 0.0297541 -0.0299913)
(0.0835451 0.0378751 -0.038374)
(0.0587011 0.0452153 -0.0457591)
(0.025833 0.0307326 -0.0310761)
(0.100393 0.00129837 0.000701189)
(0.102468 0.00286512 0.00112422)
(0.105598 0.00408566 0.000892528)
(0.108501 0.00499233 0.000181041)
(0.110946 0.00576373 -0.000901742)
(0.112658 0.00663138 -0.00228345)
(0.113661 0.00779841 -0.00396333)
(0.114033 0.00944471 -0.00599157)
(0.113718 0.0117412 -0.00844889)
(0.112849 0.0149426 -0.0114834)
(0.110852 0.019373 -0.0152624)
(0.108055 0.0256854 -0.0200816)
(0.101749 0.0347268 -0.0261996)
(0.0934023 0.0479094 -0.0334736)
(0.0699281 0.0644285 -0.0397414)
(0.0397717 0.0661808 -0.027991)
(0.0876774 0.0172563 0.000231149)
(0.0722382 0.0115793 0.00028261)
(0.0573301 0.00711667 1.09236e-05)
(0.0491901 0.00341258 -0.000469172)
(0.0441853 0.00154701 -0.00112244)
(0.0413344 0.000669354 -0.00193637)
(0.0392925 0.000322873 -0.00294315)
(0.0375396 0.000189245 -0.00418614)
(0.0355898 0.000137238 -0.00573596)
(0.0333651 8.85909e-05 -0.00765971)
(0.0303891 2.14526e-05 -0.0101033)
(0.0269143 -0.000148283 -0.0130651)
(0.0218953 -0.000375413 -0.0168757)
(0.0161987 -0.000969141 -0.0205988)
(0.0081431 -0.00144402 -0.023816)
(-0.000317634 -0.00312506 -0.0160857)
(0.103944 0.0177344 0.00028076)
(0.103487 0.0169605 0.000303931)
(0.100231 0.0133304 -0.000129131)
(0.0963028 0.00872597 -0.000909437)
(0.0924877 0.00546918 -0.00199647)
(0.0892625 0.00349775 -0.0033794)
(0.0862464 0.00253365 -0.00510914)
(0.0831788 0.0021725 -0.0072653)
(0.0795868 0.00216033 -0.00996861)
(0.0752906 0.00232514 -0.0133515)
(0.0695896 0.00258464 -0.0176445)
(0.0625372 0.00279309 -0.022926)
(0.0525435 0.00294885 -0.0296039)
(0.0403156 0.00251763 -0.0364063)
(0.0227872 0.00165799 -0.0415657)
(0.00428913 -0.00197011 -0.0272903)
(0.103904 0.0116414 0.000294868)
(0.107892 0.0153288 0.000302662)
(0.110182 0.0140826 -0.000173743)
(0.110004 0.0107909 -0.00101823)
(0.108576 0.00790172 -0.00219289)
(0.106485 0.00591355 -0.003694)
(0.10391 0.00488475 -0.00557959)
(0.100862 0.00457721 -0.00793969)
(0.0970296 0.00478978 -0.010906)
(0.0922546 0.0053545 -0.0146303)
(0.085785 0.00618144 -0.0193589)
(0.0775639 0.00710041 -0.0252078)
(0.0657498 0.00808172 -0.0325861)
(0.0509161 0.00841029 -0.0401973)
(0.0293054 0.00762996 -0.0459071)
(0.00605967 0.00200283 -0.0300817)
(0.102037 0.00752585 0.000311931)
(0.105996 0.012012 0.000330386)
(0.109697 0.0123815 -0.000142328)
(0.111277 0.0107228 -0.000980911)
(0.111423 0.008814 -0.00214535)
(0.110463 0.00737726 -0.00363314)
(0.108663 0.0066844 -0.00550234)
(0.106122 0.00669361 -0.00784335)
(0.102624 0.00732029 -0.0107859)
(0.0980596 0.00846997 -0.0144856)
(0.0916589 0.0101123 -0.0191851)
(0.0833398 0.0121189 -0.0250215)
(0.0710704 0.0145029 -0.0323928)
(0.0553729 0.0163879 -0.0400652)
(0.0320485 0.0166214 -0.0458481)
(0.00635915 0.00848619 -0.0300137)
(0.101024 0.00498517 0.000339509)
(0.104094 0.0090588 0.000389884)
(0.107645 0.0102564 -5.3615e-05)
(0.109827 0.00979669 -0.000860076)
(0.110851 0.00884584 -0.00198376)
(0.110752 0.00809757 -0.00341776)
(0.109712 0.00790295 -0.00521416)
(0.10782 0.00835403 -0.00745763)
(0.104899 0.00947106 -0.0102684)
(0.100882 0.0112464 -0.013798)
(0.0949923 0.0137253 -0.0182726)
(0.087169 0.0168471 -0.0238461)
(0.0751549 0.0207017 -0.0308876)
(0.0594501 0.0242375 -0.0382973)
(0.0349812 0.025731 -0.0439075)
(0.00702509 0.014462 -0.0287286)
(0.100581 0.00343082 0.000372127)
(0.102972 0.0067169 0.000465836)
(0.106137 0.00817923 6.54083e-05)
(0.108517 0.00846181 -0.00069604)
(0.110047 0.00827877 -0.00176571)
(0.110577 0.00819281 -0.0031291)
(0.110187 0.008547 -0.00482903)
(0.108933 0.00950878 -0.00694115)
(0.106649 0.0111857 -0.00957232)
(0.103299 0.0136787 -0.0128658)
(0.0980961 0.0171574 -0.0170239)
(0.0910161 0.0217479 -0.0222167)
(0.0795478 0.0277916 -0.0287669)
(0.0642477 0.034347 -0.035763)
(0.0388071 0.0394854 -0.0410762)
(0.0085335 0.0257938 -0.0269627)
(0.100418 0.00229596 0.000409809)
(0.102457 0.00475212 0.000554754)
(0.105385 0.00620424 0.000206905)
(0.107879 0.00692623 -0.000500051)
(0.109757 0.00732837 -0.00150529)
(0.110784 0.00781561 -0.00278431)
(0.110979 0.00867956 -0.00436725)
(0.110388 0.0101163 -0.00631633)
(0.108876 0.0122873 -0.00871847)
(0.106475 0.015383 -0.0116993)
(0.102464 0.0196684 -0.0154197)
(0.0969705 0.0254566 -0.0200493)
(0.0873327 0.0332887 -0.0258187)
(0.074424 0.042447 -0.0320582)
(0.0492532 0.0509319 -0.0366583)
(0.017527 0.0345632 -0.0241698)
(0.100367 0.00134205 0.000450121)
(0.102292 0.00296971 0.00065053)
(0.105177 0.00425424 0.000360351)
(0.107817 0.00522644 -0.000286895)
(0.109987 0.00607344 -0.00122245)
(0.111419 0.00704025 -0.00241081)
(0.112116 0.00834695 -0.00386824)
(0.112129 0.0101931 -0.00564192)
(0.111361 0.0127779 -0.00779734)
(0.109905 0.0163914 -0.0104392)
(0.10712 0.021426 -0.0136841)
(0.10328 0.028589 -0.0176942)
(0.0956568 0.0389173 -0.0226018)
(0.0857177 0.0536438 -0.0280046)
(0.0618207 0.0723126 -0.0318916)
(0.0326743 0.0724596 -0.0217718)
(0.0876594 0.0172585 0.000121306)
(0.0721298 0.0115881 0.000102142)
(0.0570731 0.0071249 -0.000151425)
(0.048784 0.00341762 -0.000557113)
(0.0436241 0.00155117 -0.00109663)
(0.0406135 0.00067484 -0.00176854)
(0.0383922 0.000331346 -0.00260173)
(0.0364278 0.000201608 -0.00362604)
(0.0342313 0.000155312 -0.00488909)
(0.0317066 0.00011574 -0.00641695)
(0.0284253 6.54031e-05 -0.00829279)
(0.0245876 -6.93044e-05 -0.010429)
(0.0194144 -0.000234072 -0.0129844)
(0.0135665 -0.000683092 -0.015084)
(0.00629227 -0.00102193 -0.0162091)
(-0.000807888 -0.00239051 -0.00988684)
(0.103918 0.0177464 0.000133022)
(0.103333 0.0169899 5.15722e-05)
(0.0998548 0.0133688 -0.000368845)
(0.0956698 0.00876721 -0.00104639)
(0.0915697 0.00551591 -0.0019587)
(0.0880383 0.00355623 -0.00311052)
(0.084679 0.00261173 -0.00455108)
(0.0812095 0.00227764 -0.00634152)
(0.0771425 0.00230242 -0.00856765)
(0.0722699 0.00251616 -0.0112992)
(0.0659384 0.00284516 -0.0146701)
(0.0581587 0.0031508 -0.0186215)
(0.0476872 0.00344823 -0.0233166)
(0.0351049 0.00322752 -0.0275192)
(0.0187649 0.0025429 -0.0295346)
(0.00262877 -0.00095731 -0.0177223)
(0.10388 0.0116634 0.000137318)
(0.107733 0.0153791 3.11077e-05)
(0.10979 0.0141551 -0.000434879)
(0.109335 0.0108787 -0.0011721)
(0.107592 0.0080069 -0.0021611)
(0.10516 0.00604456 -0.00341359)
(0.102202 0.00505508 -0.00498608)
(0.0987055 0.00480219 -0.00694941)
(0.094342 0.00508936 -0.00939837)
(0.0889238 0.00575064 -0.0124176)
(0.0817395 0.00670735 -0.0161501)
(0.0726987 0.00778721 -0.0205597)
(0.0603083 0.00898075 -0.0257946)
(0.0450541 0.0095386 -0.0305655)
(0.0246974 0.00890946 -0.0328234)
(0.00407382 0.00303083 -0.0195748)
(0.102014 0.00755249 0.000151087)
(0.10584 0.0120745 5.07281e-05)
(0.109312 0.0124772 -0.000413793)
(0.110617 0.0108467 -0.00114626)
(0.110454 0.00896891 -0.00212627)
(0.109157 0.00757415 -0.00336702)
(0.106979 0.00694171 -0.00492529)
(0.103997 0.00703441 -0.00687247)
(0.0999771 0.00777507 -0.00930178)
(0.0947797 0.0090724 -0.0123011)
(0.0876711 0.0109104 -0.0160094)
(0.0785405 0.0131509 -0.020406)
(0.0656885 0.015832 -0.0256242)
(0.0495649 0.0179848 -0.0304132)
(0.0274676 0.0183761 -0.0326581)
(0.00441463 0.00964676 -0.0193548)
(0.101003 0.00501624 0.000175819)
(0.103943 0.00913266 0.000102624)
(0.10727 0.0103727 -0.000336592)
(0.109189 0.00995243 -0.00104076)
(0.109918 0.00904511 -0.00198515)
(0.1095 0.00835368 -0.00317953)
(0.108104 0.0082389 -0.00467567)
(0.105799 0.00880007 -0.00654035)
(0.102388 0.0100679 -0.00885916)
(0.0977797 0.01204 -0.0117175)
(0.0912262 0.0147804 -0.0152418)
(0.0826437 0.0182137 -0.0194261)
(0.0700735 0.0224641 -0.0243812)
(0.053965 0.0263353 -0.0289584)
(0.0306429 0.0280358 -0.0310669)
(0.00521134 0.0158941 -0.0182964)
(0.100561 0.00346536 0.000205276)
(0.102825 0.00679969 0.000170121)
(0.105776 0.00831153 -0.00023136)
(0.107905 0.0086424 -0.000896018)
(0.109157 0.00851335 -0.00179343)
(0.109391 0.00849726 -0.0029271)
(0.108673 0.00894869 -0.004341)
(0.107042 0.010045 -0.00609469)
(0.104311 0.0119079 -0.00826315)
(0.100425 0.0146475 -0.0109268)
(0.0946171 0.0184591 -0.014194)
(0.0868511 0.0234551 -0.0180758)
(0.0748677 0.0300288 -0.022651)
(0.0592084 0.0370468 -0.0269189)
(0.0348136 0.0425431 -0.0288442)
(0.00688471 0.0277499 -0.0169421)
(0.100398 0.00233355 0.000239021)
(0.102316 0.00484215 0.000249013)
(0.105039 0.00634882 -0.000106439)
(0.107298 0.00712535 -0.000723507)
(0.108919 0.00758909 -0.00156525)
(0.109676 0.00815586 -0.0026268)
(0.109577 0.00913002 -0.00394171)
(0.108654 0.0107199 -0.00555921)
(0.106753 0.0131037 -0.0075393)
(0.103893 0.0164852 -0.00995168)
(0.099365 0.0211611 -0.0128771)
(0.0933021 0.0274353 -0.0163372)
(0.0832281 0.0359147 -0.0203574)
(0.0700637 0.0456635 -0.0241364)
(0.0457911 0.0546729 -0.025722)
(0.01613 0.037041 -0.015138)
(0.100348 0.00138151 0.000274768)
(0.102157 0.00306394 0.000333554)
(0.104848 0.00440567 2.86053e-05)
(0.107269 0.00543581 -0.000536455)
(0.109203 0.00634888 -0.0013181)
(0.110394 0.00740098 -0.00230215)
(0.110834 0.00882571 -0.00351078)
(0.110563 0.0108366 -0.00498167)
(0.109469 0.0136518 -0.00675878)
(0.107637 0.0175794 -0.00889894)
(0.104432 0.0230488 -0.0114535)
(0.100154 0.0307702 -0.0144514)
(0.0921959 0.0418602 -0.0178635)
(0.0821411 0.0573286 -0.0211119)
(0.059023 0.0767832 -0.0224045)
(0.0316883 0.0755977 -0.0136499)
(0.0876452 0.0172602 5.29299e-05)
(0.0720455 0.0115949 6.92784e-08)
(0.0568709 0.00713126 -0.000217816)
(0.0484591 0.00342136 -0.000542963)
(0.0431686 0.00155393 -0.000966971)
(0.0400206 0.000678231 -0.00149412)
(0.0376448 0.000336428 -0.00214875)
(0.0354992 0.000208624 -0.00295174)
(0.0330941 0.000164831 -0.00393614)
(0.0303191 0.000128975 -0.00511083)
(0.0267888 8.58333e-05 -0.00652833)
(0.0226689 -3.19272e-05 -0.00809794)
(0.0173905 -0.000166192 -0.0099109)
(0.0115054 -0.00053917 -0.0113144)
(0.00490589 -0.000820352 -0.0118566)
(-0.0010882 -0.00204607 -0.00724501)
(0.103898 0.0177565 4.42999e-05)
(0.103211 0.0170143 -8.11126e-05)
(0.0995574 0.013401 -0.000450831)
(0.0951625 0.00880206 -0.00100441)
(0.0908241 0.00555534 -0.00173032)
(0.087033 0.00360516 -0.00264017)
(0.0833817 0.00267641 -0.00377711)
(0.0795726 0.00236387 -0.00518734)
(0.0751106 0.00241771 -0.00693196)
(0.0697681 0.00266918 -0.00904851)
(0.0629395 0.00305058 -0.0116193)
(0.0546169 0.00342724 -0.0145591)
(0.0438397 0.00382509 -0.0179369)
(0.031158 0.00374379 -0.0207982)
(0.0159062 0.00316006 -0.0217761)
(0.0017254 -0.000341942 -0.0129915)
(0.10386 0.0116823 4.3118e-05)
(0.107609 0.0154219 -0.000109116)
(0.10948 0.0142169 -0.000520734)
(0.108798 0.0109538 -0.00112535)
(0.106793 0.00809675 -0.00191426)
(0.104072 0.00615602 -0.00290512)
(0.100788 0.00519919 -0.00414762)
(0.0969127 0.0049915 -0.00569616)
(0.0921076 0.00534012 -0.0076189)
(0.0861648 0.00608027 -0.00996448)
(0.0784167 0.00714181 -0.0128202)
(0.0687629 0.00834949 -0.0161154)
(0.0559979 0.00970864 -0.0199006)
(0.0406122 0.0104374 -0.0231713)
(0.0214171 0.0099129 -0.0242718)
(0.00298321 0.00377806 -0.0143609)
(0.101997 0.00757569 5.36121e-05)
(0.105719 0.0121283 -9.58918e-05)
(0.109007 0.0125594 -0.000507409)
(0.110089 0.010953 -0.00110843)
(0.109668 0.00910156 -0.00189002)
(0.108086 0.00774208 -0.00287135)
(0.105586 0.00716016 -0.00410243)
(0.102231 0.00732237 -0.00563836)
(0.0977752 0.00815745 -0.00754616)
(0.0920604 0.00957614 -0.00987731)
(0.0843913 0.0115732 -0.0127161)
(0.0746515 0.0140014 -0.0160036)
(0.0614155 0.0169168 -0.0197786)
(0.0451535 0.0192747 -0.0230641)
(0.0241965 0.0197816 -0.0241489)
(0.00335294 0.0105649 -0.0141999)
(0.100986 0.00504337 7.41234e-05)
(0.103825 0.00919647 -5.36605e-05)
(0.106975 0.0104727 -0.00044465)
(0.108679 0.0100861 -0.00102244)
(0.109162 0.00921565 -0.00177495)
(0.108474 0.00857215 -0.0027188)
(0.106774 0.00852437 -0.00390011)
(0.104118 0.00917756 -0.00537045)
(0.100298 0.0105709 -0.00719114)
(0.095205 0.0127055 -0.00941244)
(0.0881235 0.0156599 -0.0121097)
(0.0789687 0.019345 -0.0152367)
(0.0660285 0.0239106 -0.0188171)
(0.0497898 0.0280457 -0.0219513)
(0.0275405 0.0299073 -0.0229511)
(0.00423938 0.0170887 -0.0134211)
(0.100545 0.0034954 9.87158e-05)
(0.102711 0.0068711 2.1061e-06)
(0.105492 0.00842512 -0.000357952)
(0.107418 0.00879705 -0.000903374)
(0.108438 0.00871376 -0.00161764)
(0.10842 0.00875663 -0.00251247)
(0.107422 0.00928974 -0.00362783)
(0.105469 0.0104986 -0.00500977)
(0.102364 0.0125162 -0.00671161)
(0.0980386 0.0154591 -0.00878051)
(0.0917484 0.0195424 -0.0112792)
(0.0834646 0.024865 -0.0141761)
(0.0711377 0.0318568 -0.0174741)
(0.0553721 0.0392363 -0.020385)
(0.031963 0.0450045 -0.0212751)
(0.00603045 0.0293922 -0.0124139)
(0.100383 0.00236604 0.000126768)
(0.102207 0.0049195 6.72963e-05)
(0.104768 0.00647257 -0.000255037)
(0.106836 0.00729545 -0.000761639)
(0.108243 0.00781142 -0.00143078)
(0.10877 0.00844536 -0.00226763)
(0.10842 0.00951228 -0.00330402)
(0.107213 0.0112304 -0.00457831)
(0.104984 0.0137917 -0.00613286)
(0.101745 0.0174096 -0.00800821)
(0.0968009 0.0224051 -0.0102485)
(0.0903046 0.0290725 -0.0128338)
(0.079938 0.0380654 -0.0157352)
(0.0667241 0.0482819 -0.0183122)
(0.0433136 0.0576967 -0.0190194)
(0.015441 0.0391623 -0.0111409)
(0.100334 0.00141536 0.000156313)
(0.102054 0.00314449 0.000136956)
(0.104592 0.00453485 -0.000144021)
(0.106835 0.0056142 -0.000608216)
(0.108573 0.00658329 -0.00122866)
(0.109559 0.0077075 -0.00200317)
(0.109778 0.00923168 -0.00295464)
(0.109263 0.0113807 -0.00411278)
(0.107892 0.0143882 -0.00550813)
(0.105749 0.0185756 -0.00717292)
(0.102206 0.0244009 -0.00913119)
(0.0975952 0.0325734 -0.0113724)
(0.0894176 0.0442662 -0.0138356)
(0.0794005 0.0603232 -0.0160444)
(0.0570349 0.0803907 -0.0166043)
(0.0312817 0.0783669 -0.0100596)
(0.0876351 0.0172615 1.63617e-05)
(0.0719846 0.0116002 -4.13322e-05)
(0.0567234 0.00713622 -0.000208)
(0.0482203 0.00342452 -0.000445224)
(0.0428327 0.00155653 -0.000749397)
(0.0395843 0.000681678 -0.00112585)
(0.0370999 0.000341829 -0.00159196)
(0.0348335 0.00021669 -0.00215986)
(0.0323007 0.000176804 -0.00284835)
(0.029387 0.000147066 -0.00365407)
(0.0257449 0.000114545 -0.00460148)
(0.0215253 1.69457e-05 -0.00560927)
(0.0162853 -8.38442e-05 -0.00671431)
(0.0105099 -0.000392569 -0.00747915)
(0.00431171 -0.000615565 -0.00755944)
(-0.00108696 -0.00177637 -0.00444358)
(0.103883 0.0177644 8.8779e-07)
(0.103123 0.0170333 -0.000121371)
(0.099339 0.0134261 -0.000408367)
(0.0947871 0.00882967 -0.000817953)
(0.0902701 0.00558677 -0.00134413)
(0.0862858 0.00364429 -0.00199856)
(0.0824229 0.00272827 -0.00281324)
(0.0783771 0.00243339 -0.00381842)
(0.0736555 0.0025114 -0.00505122)
(0.0680264 0.00279491 -0.00652464)
(0.0609303 0.00322138 -0.00827732)
(0.0523615 0.00365981 -0.0102209)
(0.0415396 0.00414518 -0.0123607)
(0.0290047 0.00418015 -0.0140361)
(0.0144812 0.00369114 -0.0142575)
(0.00145991 0.00015051 -0.00822701)
(0.103847 0.0116972 -2.34882e-06)
(0.107518 0.0154555 -0.000147824)
(0.109253 0.0142654 -0.00046826)
(0.1084 0.0110129 -0.000916837)
(0.106199 0.00816753 -0.00148993)
(0.103262 0.00624367 -0.00220377)
(0.0997398 0.00531224 -0.00309549)
(0.0955988 0.00513973 -0.00420149)
(0.0904996 0.00553623 -0.00556387)
(0.0842315 0.00633813 -0.00720307)
(0.076171 0.00748212 -0.00916)
(0.066229 0.0087915 -0.011354)
(0.053385 0.0102835 -0.0137732)
(0.0381474 0.0111519 -0.0157157)
(0.019752 0.0107245 -0.0159803)
(0.00264186 0.00438381 -0.00913524)
(0.101984 0.00759413 5.00273e-06)
(0.10563 0.0121708 -0.000139494)
(0.108784 0.0126241 -0.000460458)
(0.109699 0.0110367 -0.00090655)
(0.109084 0.00920568 -0.00147432)
(0.107288 0.00787335 -0.00218119)
(0.104554 0.00733006 -0.00306471)
(0.100937 0.00754513 -0.00416184)
(0.0961917 0.00845164 -0.00551397)
(0.090157 0.00996159 -0.00714365)
(0.082179 0.0120776 -0.00908955)
(0.0721559 0.0146456 -0.011279)
(0.0588387 0.0177348 -0.0136909)
(0.042727 0.0202479 -0.0156405)
(0.0225582 0.0208472 -0.0158852)
(0.00304712 0.0112734 -0.00900992)
(0.100974 0.00506492 2.03067e-05)
(0.10374 0.00924687 -0.00010837)
(0.106759 0.0105514 -0.000414261)
(0.108302 0.010191 -0.000843141)
(0.108601 0.00934905 -0.00138947)
(0.107711 0.00874216 -0.00206894)
(0.10579 0.00874512 -0.00291633)
(0.102888 0.00946736 -0.00396622)
(0.0987971 0.0109539 -0.0052561)
(0.0934077 0.0132077 -0.00680805)
(0.0860398 0.0163166 -0.00865496)
(0.0766266 0.020181 -0.0107335)
(0.0636148 0.0249666 -0.0130132)
(0.0475315 0.0292849 -0.0148615)
(0.0260241 0.0312529 -0.0150555)
(0.00399942 0.0179553 -0.00847713)
(0.100533 0.00351919 3.87405e-05)
(0.102629 0.0069274 -6.68356e-05)
(0.105284 0.00851435 -0.00034982)
(0.107058 0.00891815 -0.000754747)
(0.107904 0.00887 -0.00127293)
(0.107699 0.00895762 -0.00191661)
(0.106497 0.00955207 -0.00271617)
(0.10432 0.0108444 -0.00370239)
(0.100969 0.012975 -0.00490738)
(0.0963769 0.0160633 -0.00635157)
(0.0898305 0.0203364 -0.00805995)
(0.0813229 0.0258804 -0.00998014)
(0.0689391 0.0331458 -0.0120699)
(0.0533394 0.0407517 -0.0137717)
(0.0306131 0.0466672 -0.0139092)
(0.00586894 0.0304919 -0.00780115)
(0.100372 0.00239163 5.97124e-05)
(0.102129 0.00498028 -1.82822e-05)
(0.104571 0.00656953 -0.000273326)
(0.106496 0.00742828 -0.000649614)
(0.107742 0.00798423 -0.00113474)
(0.108098 0.00866896 -0.00173628)
(0.107565 0.00980513 -0.00247891)
(0.106159 0.0116175 -0.00338826)
(0.103716 0.0143069 -0.0044893)
(0.100249 0.018091 -0.00579902)
(0.0950887 0.0233048 -0.0073314)
(0.0884154 0.0302305 -0.00904461)
(0.0780138 0.0395452 -0.01088)
(0.0649835 0.0500374 -0.0123786)
(0.0421789 0.0596539 -0.0124407)
(0.015375 0.0405159 -0.00700819)
(0.100323 0.00144189 8.17207e-05)
(0.101979 0.00320756 3.35184e-05)
(0.104406 0.00463577 -0.000190898)
(0.106517 0.00575312 -0.000535937)
(0.108108 0.006765 -0.000985412)
(0.10894 0.00794354 -0.00154166)
(0.108997 0.00954161 -0.00222308)
(0.108312 0.0117914 -0.00304952)
(0.106761 0.0149361 -0.00403829)
(0.104432 0.0193035 -0.00520189)
(0.100719 0.0253662 -0.00654265)
(0.095986 0.0338251 -0.00802797)
(0.0878065 0.045878 -0.00958425)
(0.078003 0.0622582 -0.0108617)
(0.0561754 0.082603 -0.010884)
(0.0313621 0.0800561 -0.00635352)
(0.0876283 0.0172623 1.42104e-06)
(0.0719442 0.0116037 -4.19515e-05)
(0.0566252 0.00713941 -0.00014592)
(0.04806 0.00342647 -0.000291003)
(0.0426059 0.00155797 -0.000474473)
(0.0392881 0.000683484 -0.000701277)
(0.0367283 0.000344608 -0.000981882)
(0.0343783 0.000220704 -0.00132316)
(0.0317573 0.000182524 -0.00173548)
(0.0287489 0.000155402 -0.00221475)
(0.0250313 0.000127603 -0.00277328)
(0.0207487 3.95985e-05 -0.00336003)
(0.0155381 -4.48561e-05 -0.00399161)
(0.00985119 -0.000321198 -0.00441821)
(0.00392857 -0.000518203 -0.00442589)
(-0.00109059 -0.00164826 -0.00261123)
(0.103874 0.0177698 -1.20471e-05)
(0.103065 0.0170463 -9.84622e-05)
(0.0991933 0.0134433 -0.00028001)
(0.0945351 0.0088485 -0.00053212)
(0.0898962 0.00560815 -0.000851655)
(0.0857792 0.00367078 -0.00124742)
(0.0817706 0.00276317 -0.00173937)
(0.0775622 0.00247989 -0.00234538)
(0.0726638 0.00257361 -0.00308646)
(0.066842 0.00287769 -0.00396722)
(0.0595699 0.00333269 -0.0050066)
(0.0508486 0.00380952 -0.00614629)
(0.0400138 0.00434843 -0.00737986)
(0.0276105 0.00445151 -0.00832205)
(0.0135894 0.00401295 -0.00837451)
(0.00130749 0.000431102 -0.00482832)
(0.103837 0.0117075 -1.46977e-05)
(0.107458 0.0154786 -0.000116855)
(0.109101 0.0142987 -0.000320139)
(0.108133 0.0110536 -0.000596521)
(0.105798 0.00821619 -0.000945061)
(0.102712 0.00630384 -0.00137709)
(0.0990268 0.00538964 -0.00191598)
(0.0947029 0.00524094 -0.00258336)
(0.0894033 0.00566972 -0.0034033)
(0.0829161 0.00651301 -0.00438472)
(0.0746498 0.00771182 -0.00554762)
(0.0645278 0.00908808 -0.00683759)
(0.0516503 0.0106663 -0.00823714)
(0.0365496 0.0116224 -0.00933451)
(0.0187078 0.0112518 -0.00940348)
(0.00244513 0.00476363 -0.00536565)
(0.101976 0.00760692 -1.04517e-05)
(0.105571 0.0122002 -0.000112256)
(0.108635 0.0126687 -0.000316156)
(0.109437 0.0110944 -0.000591047)
(0.10869 0.00927745 -0.000936363)
(0.106748 0.00796371 -0.00136414)
(0.103852 0.00744678 -0.00189806)
(0.100055 0.00769783 -0.00256014)
(0.0951113 0.00865279 -0.00337407)
(0.0888609 0.0102244 -0.00435008)
(0.0806787 0.0124201 -0.00550694)
(0.0704778 0.0150811 -0.00679493)
(0.0571245 0.0182843 -0.0081913)
(0.0411505 0.0208971 -0.00929382)
(0.0215283 0.0215522 -0.00935166)
(0.00287075 0.0117362 -0.00529556)
(0.100966 0.0050799 -9.91224e-07)
(0.103683 0.00928175 -9.32071e-05)
(0.106615 0.0106058 -0.000287915)
(0.10805 0.0102634 -0.000552221)
(0.108222 0.00944109 -0.000884403)
(0.107193 0.00885931 -0.00129545)
(0.10512 0.008897 -0.00180743)
(0.102049 0.00966641 -0.00244093)
(0.0977728 0.0112165 -0.00321741)
(0.0921827 0.0135511 -0.00414693)
(0.0846248 0.0167643 -0.00524514)
(0.0750492 0.0207488 -0.00646799)
(0.0620057 0.02568 -0.0077879)
(0.0460611 0.0301184 -0.00883293)
(0.0250693 0.0321531 -0.00886602)
(0.00386313 0.0185367 -0.00498831)
(0.100526 0.00353571 1.0403e-05)
(0.102575 0.00696636 -6.76153e-05)
(0.105146 0.00857601 -0.000248215)
(0.106817 0.00900176 -0.000497804)
(0.107545 0.00897779 -0.000812744)
(0.10721 0.00909613 -0.00120194)
(0.105867 0.0097326 -0.00168485)
(0.103536 0.011082 -0.00227977)
(0.100017 0.0132895 -0.00300502)
(0.0952439 0.0164766 -0.00386982)
(0.0885273 0.0208776 -0.0048854)
(0.079879 0.0265699 -0.00601425)
(0.0674722 0.0340158 -0.00722296)
(0.0520153 0.0417704 -0.00818263)
(0.0297642 0.0477784 -0.00818734)