/*--------------------------------*- C++ -*----------------------------------*\
| =========                 |                                                 |
| \\      /  F ield         | OpenFOAM: The Open Source CFD Toolbox           |
|  \\    /   O peration     | Version:  v1912                                 |
|   \\  /    A nd           | Website:  www.openfoam.com                      |
|    \\/     M anipulation  |                                                 |
\*---------------------------------------------------------------------------*/
FoamFile
{
    version     2.0;
    format      ascii;
    class       volVectorField;
    location    "0.06/solid";
    object      D_0;
}
// * * * * * * * * * * * * * * * * * * * * * * * * * * * * * * * * * * * * * //

dimensions      [0 1 0 0 0 0 0];


internalField   nonuniform List<vector> 
256
(
(-1.3643e-08 7.88043e-09 -2.0997e-08)
(-5.21869e-09 9.12295e-09 -1.15928e-08)
(4.59586e-09 9.22891e-09 -1.18962e-08)
(1.23155e-08 8.68557e-09 -2.20639e-08)
(-2.12836e-08 2.04151e-08 -4.87109e-08)
(-8.93941e-09 2.16787e-08 -3.74729e-08)
(6.33829e-09 2.21837e-08 -3.81977e-08)
(1.77154e-08 2.22864e-08 -5.10622e-08)
(-2.15122e-08 3.79685e-08 -7.06012e-08)
(-9.96854e-09 3.86845e-08 -6.04568e-08)
(4.989e-09 3.95514e-08 -6.14261e-08)
(1.55976e-08 4.07767e-08 -7.36641e-08)
(-2.05725e-08 5.84107e-08 -9.03636e-08)
(-1.05088e-08 5.97842e-08 -8.04968e-08)
(2.84509e-09 6.09545e-08 -8.15975e-08)
(1.20219e-08 6.20469e-08 -9.38152e-08)
(-2.10861e-08 8.09397e-08 -1.09772e-07)
(-1.17684e-08 8.42391e-08 -9.94863e-08)
(1.1066e-09 8.56723e-08 -1.00652e-07)
(9.57055e-09 8.53176e-08 -1.13419e-07)
(-2.61339e-08 1.06015e-07 -1.30877e-07)
(-1.51822e-08 1.11577e-07 -1.19993e-07)
(1.1951e-09 1.13241e-07 -1.21179e-07)
(1.13133e-08 1.11062e-07 -1.34584e-07)
(-4.04506e-08 1.36338e-07 -1.56181e-07)
(-2.20925e-08 1.40285e-07 -1.45242e-07)
(4.46326e-09 1.42157e-07 -1.4642e-07)
(2.19648e-08 1.42e-07 -1.5985e-07)
(-6.37347e-08 1.66953e-07 -1.83545e-07)
(-2.95098e-08 1.5828e-07 -1.7396e-07)
(7.95087e-09 1.6036e-07 -1.75119e-07)
(4.12149e-08 1.73339e-07 -1.87139e-07)
(3.41576e-09 1.50889e-08 -1.5375e-08)
(-1.39957e-09 1.17744e-08 -1.63379e-08)
(1.13323e-09 1.19998e-08 -1.65445e-08)
(-4.26531e-09 1.60973e-08 -1.60206e-08)
(4.05867e-09 3.27612e-08 -4.06484e-08)
(-2.11847e-09 3.17488e-08 -4.32463e-08)
(4.78987e-10 3.23698e-08 -4.37801e-08)
(-6.47839e-09 3.48148e-08 -4.22573e-08)
(4.29689e-09 5.13595e-08 -6.25649e-08)
(-2.61765e-09 5.16224e-08 -6.61031e-08)
(-9.59008e-10 5.25589e-08 -6.68487e-08)
(-8.62609e-09 5.42633e-08 -6.47958e-08)
(4.6962e-09 7.17426e-08 -8.25116e-08)
(-3.24158e-09 7.31742e-08 -8.62551e-08)
(-2.72657e-09 7.43783e-08 -8.71236e-08)
(-1.13822e-08 7.54127e-08 -8.51146e-08)
(3.85721e-09 9.36071e-08 -1.01886e-07)
(-4.60842e-09 9.70484e-08 -1.05431e-07)
(-4.18004e-09 9.84954e-08 -1.06365e-07)
(-1.33394e-08 9.79915e-08 -1.04693e-07)
(-1.4869e-09 1.16565e-07 -1.21852e-07)
(-8.15203e-09 1.22332e-07 -1.2509e-07)
(-3.87055e-09 1.24003e-07 -1.26049e-07)
(-1.12167e-08 1.21621e-07 -1.24745e-07)
(-1.65377e-08 1.4009e-07 -1.41409e-07)
(-1.53294e-08 1.44037e-07 -1.44469e-07)
(-3.08499e-10 1.45924e-07 -1.45431e-07)
(1.81502e-10 1.45798e-07 -1.44309e-07)
(-4.142e-08 1.54754e-07 -1.52864e-07)
(-2.30698e-08 1.44748e-07 -1.55941e-07)
(3.48274e-09 1.46867e-07 -1.56906e-07)
(2.09812e-08 1.61268e-07 -1.55761e-07)
(1.19167e-08 1.7132e-08 -1.08458e-08)
(1.81328e-09 1.17728e-08 -1.3301e-08)
(-1.87428e-09 1.1994e-08 -1.34582e-08)
(-1.24914e-08 1.80212e-08 -1.13173e-08)
(1.9263e-08 3.82752e-08 -3.20452e-08)
(3.99929e-09 3.55342e-08 -3.67305e-08)
(-5.01073e-09 3.61425e-08 -3.71284e-08)
(-2.09551e-08 4.01809e-08 -3.32116e-08)
(2.05942e-08 5.86043e-08 -5.19696e-08)
(4.15581e-09 5.82671e-08 -5.74343e-08)
(-6.73766e-09 5.9185e-08 -5.79975e-08)
(-2.38363e-08 6.13729e-08 -5.36224e-08)
(2.05998e-08 7.90851e-08 -7.05729e-08)
(3.48085e-09 8.05419e-08 -7.61673e-08)
(-8.17455e-09 8.17266e-08 -7.68366e-08)
(-2.59316e-08 8.26445e-08 -7.255e-08)
(1.92954e-08 9.93718e-08 -8.82118e-08)
(1.99357e-09 1.03053e-07 -9.36741e-08)
(-9.31473e-09 1.04486e-07 -9.44064e-08)
(-2.7241e-08 1.03683e-07 -9.03902e-08)
(1.3435e-08 1.18529e-07 -1.04667e-07)
(-1.69337e-09 1.2458e-07 -1.09897e-07)
(-8.74508e-09 1.26251e-07 -1.10662e-07)
(-2.44942e-08 1.23564e-07 -1.06954e-07)
(-2.38612e-09 1.35751e-07 -1.177e-07)
(-9.11736e-09 1.39883e-07 -1.22672e-07)
(-4.8845e-09 1.41787e-07 -1.23452e-07)
(-1.22839e-08 1.41503e-07 -1.20032e-07)
(-2.80219e-08 1.44691e-07 -1.22407e-07)
(-1.71377e-08 1.34755e-07 -1.27208e-07)
(-8.19976e-10 1.36909e-07 -1.28001e-07)
(9.25251e-09 1.51315e-07 -1.2477e-07)
(1.42581e-08 1.78899e-08 -8.65708e-09)
(2.91597e-09 1.17192e-08 -1.00011e-08)
(-2.85551e-09 1.19201e-08 -1.01194e-08)
(-1.46742e-08 1.86656e-08 -9.00021e-09)
(2.43522e-08 4.05096e-08 -2.60647e-08)
(6.42614e-09 3.68979e-08 -2.87289e-08)
(-7.03487e-09 3.74594e-08 -2.90228e-08)
(-2.55974e-08 4.22218e-08 -2.69056e-08)
(2.65518e-08 6.17746e-08 -4.28916e-08)
(7.05885e-09 6.10478e-08 -4.60495e-08)
(-8.96053e-09 6.19155e-08 -4.64661e-08)
(-2.90799e-08 6.43503e-08 -4.4092e-08)
(2.64711e-08 8.20548e-08 -5.87613e-08)
(6.43179e-09 8.35065e-08 -6.20097e-08)
(-1.02083e-08 8.46491e-08 -6.25107e-08)
(-3.08622e-08 8.54557e-08 -6.02212e-08)
(2.48032e-08 1.00765e-07 -7.33581e-08)
(4.86849e-09 1.04619e-07 -7.6517e-08)
(-1.10917e-08 1.06024e-07 -7.7074e-08)
(-3.16356e-08 1.04968e-07 -7.4997e-08)
(1.8497e-08 1.17104e-07 -8.58498e-08)
(1.07204e-09 1.2339e-07 -8.88372e-08)
(-1.02915e-08 1.2505e-07 -8.94286e-08)
(-2.83288e-08 1.2209e-07 -8.76014e-08)
(2.23422e-09 1.31314e-07 -9.44661e-08)
(-6.47334e-09 1.35746e-07 -9.72582e-08)
(-6.24599e-09 1.37656e-07 -9.78699e-08)
(-1.56188e-08 1.37077e-07 -9.62818e-08)
(-2.36622e-08 1.3921e-07 -9.70712e-08)
(-1.46215e-08 1.29869e-07 -9.97968e-08)
(-2.04426e-09 1.32044e-07 -1.00423e-07)
(6.18646e-09 1.45896e-07 -9.8927e-08)
(1.44303e-08 1.81151e-08 -6.83124e-09)
(3.03e-09 1.17246e-08 -7.30222e-09)
(-2.90012e-09 1.19095e-08 -7.38627e-09)
(-1.47514e-08 1.88133e-08 -7.06942e-09)
(2.49992e-08 4.11982e-08 -2.04753e-08)
(6.82212e-09 3.72835e-08 -2.14439e-08)
(-7.18206e-09 3.78026e-08 -2.16519e-08)
(-2.59671e-08 4.27557e-08 -2.10599e-08)
(2.75023e-08 6.26844e-08 -3.37109e-08)
(7.64971e-09 6.17928e-08 -3.48921e-08)
(-9.1073e-09 6.26109e-08 -3.51878e-08)
(-2.95666e-08 6.50892e-08 -3.45504e-08)
(2.74279e-08 8.25792e-08 -4.61432e-08)
(7.08829e-09 8.40271e-08 -4.73708e-08)
(-1.02381e-08 8.51259e-08 -4.77296e-08)
(-3.11805e-08 8.58297e-08 -4.71766e-08)
(2.55738e-08 1.00211e-07 -5.72629e-08)
(5.5091e-09 1.04161e-07 -5.84417e-08)
(-1.0955e-08 1.05534e-07 -5.88458e-08)
(-3.16233e-08 1.04302e-07 -5.84407e-08)
(1.90262e-08 1.1514e-07 -6.62637e-08)
(1.6708e-09 1.21571e-07 -6.73453e-08)
(-1.00042e-08 1.23213e-07 -6.77803e-08)
(-2.79713e-08 1.2006e-07 -6.7542e-08)
(2.59404e-09 1.28396e-07 -7.20919e-08)
(-5.90156e-09 1.3306e-07 -7.30711e-08)
(-5.86778e-09 1.34967e-07 -7.35263e-08)
(-1.50312e-08 1.34141e-07 -7.34342e-08)
(-2.33676e-08 1.3636e-07 -7.39256e-08)
(-1.40905e-08 1.27514e-07 -7.48996e-08)
(-1.60436e-09 1.29697e-07 -7.53672e-08)
(6.86157e-09 1.43069e-07 -7.53041e-08)
(1.41795e-08 1.81052e-08 -4.95435e-09)
(2.92894e-09 1.1713e-08 -5.0563e-09)
(-2.76111e-09 1.18869e-08 -5.1114e-09)
(-1.44438e-08 1.87531e-08 -5.10818e-09)
(2.45393e-08 4.12089e-08 -1.47473e-08)
(6.66109e-09 3.72506e-08 -1.49569e-08)
(-6.87365e-09 3.77393e-08 -1.50938e-08)
(-2.53373e-08 4.26592e-08 -1.5127e-08)
(2.70174e-08 6.25846e-08 -2.42055e-08)
(7.51819e-09 6.16599e-08 -2.44664e-08)
(-8.69981e-09 6.24403e-08 -2.46618e-08)
(-2.8789e-08 6.48632e-08 -2.47543e-08)
(2.69251e-08 8.21143e-08 -3.30123e-08)
(6.99417e-09 8.35693e-08 -3.32841e-08)
(-9.73953e-09 8.46326e-08 -3.35229e-08)
(-3.02621e-08 8.52467e-08 -3.36942e-08)
(2.49965e-08 9.91665e-08 -4.073e-08)
(5.42894e-09 1.03161e-07 -4.09795e-08)
(-1.0358e-08 1.04506e-07 -4.12512e-08)
(-3.05224e-08 1.03164e-07 -4.15161e-08)
(1.83592e-08 1.13567e-07 -4.67962e-08)
(1.59392e-09 1.20067e-07 -4.70043e-08)
(-9.32456e-09 1.21691e-07 -4.73e-08)
(-2.66981e-08 1.18425e-07 -4.76595e-08)
(1.88925e-09 1.26665e-07 -5.06497e-08)
(-5.96566e-09 1.31448e-07 -5.08189e-08)
(-5.14623e-09 1.33347e-07 -5.11308e-08)
(-1.36677e-08 1.3238e-07 -5.15646e-08)
(-2.40712e-08 1.34827e-07 -5.19647e-08)
(-1.4159e-08 1.26238e-07 -5.21447e-08)
(-8.54212e-10 1.28422e-07 -5.24653e-08)
(8.24978e-09 1.41536e-07 -5.29068e-08)
(1.3983e-08 1.80308e-08 -3.00212e-09)
(2.84885e-09 1.16794e-08 -3.0027e-09)
(-2.66171e-09 1.18464e-08 -3.03365e-09)
(-1.42154e-08 1.86483e-08 -3.08772e-09)
(2.41126e-08 4.10159e-08 -8.88845e-09)
(6.49479e-09 3.70878e-08 -8.88346e-09)
(-6.62655e-09 3.75573e-08 -8.96062e-09)
(-2.48141e-08 4.24002e-08 -9.10088e-09)
(2.64946e-08 6.22156e-08 -1.45429e-08)
(7.33389e-09 6.13049e-08 -1.45344e-08)
(-8.35826e-09 6.20609e-08 -1.46451e-08)
(-2.80963e-08 6.44137e-08 -1.48516e-08)
(2.63656e-08 8.14962e-08 -1.97682e-08)
(6.82279e-09 8.29629e-08 -1.97558e-08)
(-9.33105e-09 8.40023e-08 -1.98919e-08)
(-2.94562e-08 8.45502e-08 -2.01543e-08)
(2.4408e-08 9.82877e-08 -2.42917e-08)
(5.27415e-09 1.02299e-07 -2.42701e-08)
(-9.89339e-09 1.03625e-07 -2.4426e-08)
(-2.96175e-08 1.0222e-07 -2.47402e-08)
(1.77484e-08 1.12543e-07 -2.78007e-08)
(1.45498e-09 1.19068e-07 -2.77661e-08)
(-8.81798e-09 1.20677e-07 -2.79371e-08)
(-2.57153e-08 1.17355e-07 -2.8297e-08)
(1.28277e-09 1.25691e-07 -3.00247e-08)
(-6.08579e-09 1.30516e-07 -2.99805e-08)
(-4.61969e-09 1.32408e-07 -3.01617e-08)
(-1.26517e-08 1.31379e-07 -3.05538e-08)
(-2.466e-08 1.34006e-07 -3.0828e-08)
(-1.42722e-08 1.25512e-07 -3.07927e-08)
(-3.15008e-10 1.27693e-07 -3.09791e-08)
(9.26865e-09 1.40708e-07 -3.13735e-08)
(1.38952e-08 1.7977e-08 -1.00542e-09)
(2.81484e-09 1.16518e-08 -9.98979e-10)
(-2.61981e-09 1.18155e-08 -1.00893e-09)
(-1.41136e-08 1.85805e-08 -1.03281e-09)
(2.39132e-08 4.08677e-08 -2.96826e-09)
(6.41838e-09 3.69656e-08 -2.95184e-09)
(-6.51516e-09 3.74261e-08 -2.97672e-09)
(-2.45718e-08 4.2221e-08 -3.03647e-09)
(2.62362e-08 6.19553e-08 -4.8475e-09)
(7.2428e-09 6.10599e-08 -4.82532e-09)
(-8.19731e-09 6.18042e-08 -4.86111e-09)
(-2.77614e-08 6.41152e-08 -4.9469e-09)
(2.60814e-08 8.11155e-08 -6.57697e-09)
(6.73424e-09 8.25904e-08 -6.55176e-09)
(-9.13526e-09 8.36181e-08 -6.59593e-09)
(-2.90598e-08 8.41315e-08 -6.7017e-09)
(2.41122e-08 9.78133e-08 -8.06598e-09)
(5.19435e-09 1.01831e-07 -8.03826e-09)
(-9.67157e-09 1.03147e-07 -8.08904e-09)
(-2.91759e-08 1.01713e-07 -8.21143e-09)
(1.74493e-08 1.12044e-07 -9.21562e-09)
(1.38558e-09 1.18575e-07 -9.18544e-09)
(-8.57843e-09 1.20178e-07 -9.24128e-09)
(-2.52434e-08 1.16833e-07 -9.37716e-09)
(9.91518e-10 1.25245e-07 -9.94506e-09)
(-6.14423e-09 1.30081e-07 -9.9138e-09)
(-4.37192e-09 1.31968e-07 -9.97315e-09)
(-1.21691e-08 1.3092e-07 -1.01177e-08)
(-2.49383e-08 1.33642e-07 -1.02156e-08)
(-1.43249e-08 1.25172e-07 -1.01875e-08)
(-6.30305e-11 1.27352e-07 -1.02485e-08)
(9.7488e-09 1.40341e-07 -1.03938e-08)
)
;

boundaryField
{
    interface
    {
        type            solidTraction;
        traction        uniform (0 0 0);
        pressure        uniform 0;
        secondOrder     false;
        setEffectiveTraction false;
        relaxationFactor 1;
        value           nonuniform List<vector> 
192
(
(8.04022e-08 -8.51349e-10 -1.68811e-08)
(7.32068e-08 1.84476e-08 -4.21399e-08)
(7.37955e-08 3.81461e-08 -6.36923e-08)
(7.54222e-08 5.85171e-08 -8.35885e-08)
(7.58814e-08 7.95492e-08 -1.03175e-07)
(7.29256e-08 1.01174e-07 -1.24478e-07)
(6.2949e-08 1.26938e-07 -1.50036e-07)
(3.14923e-08 1.60639e-07 -1.77707e-07)
(1.07142e-07 1.69573e-08 -8.98571e-09)
(1.07332e-07 3.29814e-08 -3.05125e-08)
(1.08183e-07 5.15187e-08 -5.20391e-08)
(1.09315e-07 7.16326e-08 -7.22193e-08)
(1.09564e-07 9.20612e-08 -9.17912e-08)
(1.0648e-07 1.11466e-07 -1.11961e-07)
(9.61308e-08 1.30107e-07 -1.31893e-07)
(6.19852e-08 1.48129e-07 -1.43936e-07)
(1.11638e-07 2.49268e-08 -8.13577e-09)
(1.18422e-07 4.04444e-08 -2.69724e-08)
(1.20339e-07 5.89384e-08 -4.64065e-08)
(1.21038e-07 7.87602e-08 -6.51298e-08)
(1.2074e-07 9.75806e-08 -8.29759e-08)
(1.16978e-07 1.13109e-07 -9.96719e-08)
(1.05625e-07 1.25387e-07 -1.13007e-07)
(7.10646e-08 1.37804e-07 -1.17968e-07)
(1.12338e-07 2.75423e-08 -8.02907e-09)
(1.21774e-07 4.35828e-08 -2.46311e-08)
(1.24554e-07 6.23042e-08 -4.1165e-08)
(1.25127e-07 8.16176e-08 -5.70547e-08)
(1.24385e-07 9.87712e-08 -7.17889e-08)
(1.20047e-07 1.11462e-07 -8.44523e-08)
(1.08084e-07 1.20774e-07 -9.32214e-08)
(7.33905e-08 1.32137e-07 -9.59079e-08)
(1.11912e-07 2.79722e-08 -6.85113e-09)
(1.21805e-07 4.44661e-08 -2.04288e-08)
(1.24872e-07 6.32914e-08 -3.35948e-08)
(1.25412e-07 8.2097e-08 -4.603e-08)
(1.2442e-07 9.81104e-08 -5.72149e-08)
(1.19757e-07 1.09395e-07 -6.62984e-08)
(1.07534e-07 1.17798e-07 -7.21785e-08)
(7.28476e-08 1.29183e-07 -7.40281e-08)
(1.11401e-07 2.77847e-08 -5.06634e-09)
(1.2109e-07 4.44182e-08 -1.49692e-08)
(1.24115e-07 6.31809e-08 -2.44576e-08)
(1.24605e-07 8.1609e-08 -3.32781e-08)
(1.23495e-07 9.7025e-08 -4.10217e-08)
(1.18693e-07 1.0779e-07 -4.71159e-08)
(1.0639e-07 1.16058e-07 -5.09777e-08)
(7.17416e-08 1.27607e-07 -5.2288e-08)
(1.11074e-07 2.75545e-08 -3.0733e-09)
(1.20538e-07 4.41436e-08 -9.04508e-09)
(1.23453e-07 6.27786e-08 -1.47384e-08)
(1.23886e-07 8.09744e-08 -1.99792e-08)
(1.2272e-07 9.61334e-08 -2.45129e-08)
(1.1787e-07 1.06762e-07 -2.80284e-08)
(1.05552e-07 1.15089e-07 -3.02493e-08)
(7.09397e-08 1.26776e-07 -3.10449e-08)
(1.10929e-07 2.74289e-08 -1.0274e-09)
(1.20283e-07 4.39527e-08 -3.01815e-09)
(1.23132e-07 6.24972e-08 -4.91213e-09)
(1.23527e-07 8.05844e-08 -6.64805e-09)
(1.22339e-07 9.56552e-08 -8.13998e-09)
(1.17474e-07 1.06264e-07 -9.29043e-09)
(1.05157e-07 1.14649e-07 -1.00179e-08)
(7.05652e-08 1.26413e-07 -1.02852e-08)
(-1.33479e-08 -9.5466e-09 7.95485e-08)
(-2.17573e-08 8.01399e-09 5.24899e-08)
(-2.24282e-08 2.75553e-08 3.12935e-08)
(-2.1491e-08 4.8618e-08 1.19994e-08)
(-2.18108e-08 7.08115e-08 -6.62007e-09)
(-2.66102e-08 9.44132e-08 -2.56918e-08)
(-4.07861e-08 1.23171e-07 -4.65487e-08)
(-6.42554e-08 1.59865e-07 -8.17146e-08)
(-2.9417e-09 -3.1435e-09 9.74232e-08)
(-6.30909e-09 9.46264e-09 7.24988e-08)
(-7.67272e-09 2.79286e-08 5.03998e-08)
(-8.31528e-09 5.00268e-08 3.10393e-08)
(-9.48632e-09 7.4365e-08 1.31204e-08)
(-1.2756e-08 1.00138e-07 -4.95808e-09)
(-1.96503e-08 1.26793e-07 -2.52462e-08)
(-2.74014e-08 1.50963e-07 -6.33348e-08)
(1.97987e-09 -3.29454e-09 9.68804e-08)
(2.94301e-09 9.80127e-09 7.15128e-08)
(1.68923e-09 2.87014e-08 4.91595e-08)
(-4.82488e-10 5.1148e-08 2.96612e-08)
(-2.3747e-09 7.57767e-08 1.16736e-08)
(-2.45061e-09 1.01799e-07 -6.42665e-09)
(8.13128e-10 1.28672e-07 -2.6702e-08)
(4.65806e-09 1.53042e-07 -6.47371e-08)
(1.16934e-08 -9.59588e-09 7.72262e-08)
(1.74636e-08 9.38637e-09 4.87562e-08)
(1.55597e-08 3.00884e-08 2.6823e-08)
(1.18541e-08 5.2108e-08 7.13193e-09)
(9.13697e-09 7.51254e-08 -1.16824e-08)
(1.0604e-08 9.94548e-08 -3.08012e-08)
(2.11222e-08 1.28861e-07 -5.15846e-08)
(4.0584e-08 1.66255e-07 -8.65417e-08)
(-8.596e-08 1.17798e-09 -1.82284e-08)
(-8.09832e-08 2.1466e-08 -4.51381e-08)
(-8.3881e-08 4.22002e-08 -6.76257e-08)
(-8.80833e-08 6.35538e-08 -8.80466e-08)
(-9.14223e-08 8.54948e-08 -1.07907e-07)
(-9.1658e-08 1.07964e-07 -1.29305e-07)
(-8.52792e-08 1.34525e-07 -1.54824e-07)
(-5.83291e-08 1.69084e-07 -1.82395e-07)
(-1.11867e-07 1.87834e-08 -9.81816e-09)
(-1.13549e-07 3.59051e-08 -3.25889e-08)
(-1.16277e-07 5.54894e-08 -5.49365e-08)
(-1.19712e-07 7.65912e-08 -7.56254e-08)
(-1.22672e-07 9.79502e-08 -9.54897e-08)
(-1.2268e-07 1.18241e-07 -1.15793e-07)
(-1.15881e-07 1.37749e-07 -1.35746e-07)
(-8.62628e-08 1.56732e-07 -1.47769e-07)
(-1.1616e-07 2.6383e-08 -8.71453e-09)
(-1.23994e-07 4.30173e-08 -2.84312e-08)
(-1.27438e-07 6.26172e-08 -4.85083e-08)
(-1.30181e-07 8.34958e-08 -6.76794e-08)
(-1.32415e-07 1.03324e-07 -8.58155e-08)
(-1.31638e-07 1.19825e-07 -1.02675e-07)
(-1.23783e-07 1.33067e-07 -1.16081e-07)
(-9.373e-08 1.46535e-07 -1.21071e-07)
(-1.16788e-07 2.87337e-08 -8.43483e-09)
(-1.26998e-07 4.58234e-08 -2.56522e-08)
(-1.31046e-07 6.56666e-08 -4.26589e-08)
(-1.33443e-07 8.60948e-08 -5.89085e-08)
(-1.35065e-07 1.04334e-07 -7.3901e-08)
(-1.336e-07 1.18085e-07 -8.67317e-08)
(-1.25076e-07 1.28448e-07 -9.55945e-08)
(-9.48619e-08 1.40934e-07 -9.83289e-08)
(-1.16319e-07 2.89931e-08 -7.12675e-09)
(-1.26809e-07 4.64596e-08 -2.11246e-08)
(-1.30963e-07 6.63927e-08 -3.46228e-08)
(-1.33158e-07 8.6344e-08 -4.73263e-08)
(-1.34388e-07 1.035e-07 -5.87187e-08)
(-1.32497e-07 1.15912e-07 -6.79494e-08)
(-1.23654e-07 1.25432e-07 -7.39217e-08)
(-9.34163e-08 1.37998e-07 -7.58196e-08)
(-1.15777e-07 2.86986e-08 -5.24197e-09)
(-1.25955e-07 4.62457e-08 -1.5415e-08)
(-1.29947e-07 6.60945e-08 -2.51217e-08)
(-1.3197e-07 8.56802e-08 -3.4125e-08)
(-1.32977e-07 1.02273e-07 -4.20173e-08)
(-1.30866e-07 1.14211e-07 -4.82232e-08)
(-1.21891e-07 1.23643e-07 -5.21593e-08)
(-9.16645e-08 1.36414e-07 -5.35083e-08)
(-1.15431e-07 2.84059e-08 -3.17014e-09)
(-1.2532e-07 4.58706e-08 -9.29213e-09)
(-1.2913e-07 6.55744e-08 -1.51084e-08)
(-1.31021e-07 8.49306e-08 -2.04547e-08)
(-1.31904e-07 1.01285e-07 -2.50766e-08)
(-1.2969e-07 1.13113e-07 -2.86605e-08)
(-1.20665e-07 1.22633e-07 -3.09283e-08)
(-9.0453e-08 1.35568e-07 -3.17482e-08)
(-1.15276e-07 2.8252e-08 -1.05823e-09)
(-1.25027e-07 4.56331e-08 -3.097e-09)
(-1.28738e-07 6.52374e-08 -5.03057e-09)
(-1.30557e-07 8.44852e-08 -6.80077e-09)
(-1.31384e-07 1.00759e-07 -8.32178e-09)
(-1.29129e-07 1.12581e-07 -9.49509e-09)
(-1.20086e-07 1.22172e-07 -1.02384e-08)
(-8.98854e-08 1.35197e-07 -1.05138e-08)
(-6.47219e-08 6.51135e-08 -1.84039e-07)
(-4.22292e-08 4.51017e-08 -1.47298e-07)
(-2.89798e-08 3.94771e-08 -1.18521e-07)
(-2.48619e-08 3.60109e-08 -9.49884e-08)
(-2.47429e-08 3.38985e-08 -7.28299e-08)
(-2.55322e-08 3.26649e-08 -5.13761e-08)
(-2.61495e-08 3.19903e-08 -3.05318e-08)
(-2.64335e-08 3.16932e-08 -1.01247e-08)
(-2.78602e-08 4.76511e-08 -1.74236e-07)
(-2.10969e-08 2.47478e-08 -1.50059e-07)
(-1.51907e-08 1.97231e-08 -1.23488e-07)
(-1.28285e-08 1.72685e-08 -9.79866e-08)
(-1.24232e-08 1.59298e-08 -7.39919e-08)
(-1.25562e-08 1.50883e-08 -5.16441e-08)
(-1.26926e-08 1.45557e-08 -3.0526e-08)
(-1.27509e-08 1.42933e-08 -1.01024e-08)
(4.18742e-09 4.99768e-08 -1.75405e-07)
(-6.45831e-10 2.71506e-08 -1.51043e-07)
(-4.95847e-09 2.21679e-08 -1.24295e-07)
(-6.0495e-09 1.9738e-08 -9.86203e-08)
(-5.49165e-09 1.84103e-08 -7.44616e-08)
(-4.67719e-09 1.75718e-08 -5.19645e-08)
(-4.11265e-09 1.70393e-08 -3.07117e-08)
(-3.85375e-09 1.67767e-08 -1.01632e-08)
(4.00993e-08 7.27368e-08 -1.87663e-07)
(1.96504e-08 5.29926e-08 -1.50255e-07)
(8.04284e-09 4.75236e-08 -1.20927e-07)
(5.20619e-09 4.41479e-08 -9.68655e-08)
(6.0559e-09 4.20774e-08 -7.42141e-08)
(7.53421e-09 4.08581e-08 -5.23165e-08)
(8.58676e-09 4.01868e-08 -3.10746e-08)
(9.07531e-09 3.98908e-08 -1.03018e-08)
)
;
        gradient        uniform (0 0 0);
    }
    symmetry
    {
        type            solidSymmetry;
        patchType       symmetry;
        secondOrder     false;
        value           nonuniform List<vector> 
32
(
(1.38952e-08 1.7977e-08 0)
(2.39132e-08 4.08677e-08 0)
(2.62362e-08 6.19553e-08 0)
(2.60814e-08 8.11155e-08 0)
(2.41122e-08 9.78133e-08 0)
(1.74493e-08 1.12044e-07 0)
(9.91518e-10 1.25245e-07 0)
(-2.49383e-08 1.33642e-07 0)
(2.81484e-09 1.16518e-08 0)
(6.41838e-09 3.69656e-08 0)
(7.2428e-09 6.10599e-08 0)
(6.73424e-09 8.25904e-08 0)
(5.19435e-09 1.01831e-07 0)
(1.38558e-09 1.18575e-07 0)
(-6.14423e-09 1.30081e-07 0)
(-1.43249e-08 1.25172e-07 0)
(-2.61981e-09 1.18155e-08 0)
(-6.51516e-09 3.74261e-08 0)
(-8.19731e-09 6.18042e-08 0)
(-9.13526e-09 8.36181e-08 0)
(-9.67157e-09 1.03147e-07 0)
(-8.57843e-09 1.20178e-07 0)
(-4.37192e-09 1.31968e-07 0)
(-6.30305e-11 1.27352e-07 0)
(-1.41136e-08 1.85805e-08 0)
(-2.45718e-08 4.2221e-08 0)
(-2.77614e-08 6.41152e-08 0)
(-2.90598e-08 8.41315e-08 0)
(-2.91759e-08 1.01713e-07 0)
(-2.52434e-08 1.16833e-07 0)
(-1.21691e-08 1.3092e-07 0)
(9.7488e-09 1.40341e-07 0)
)
;
    }
    bottom
    {
        type            fixedDisplacement;
        value           uniform (0 0 0);
    }
}


// ************************************************************************* //
