/*--------------------------------*- C++ -*----------------------------------*\
| =========                 |                                                 |
| \\      /  F ield         | OpenFOAM: The Open Source CFD Toolbox           |
|  \\    /   O peration     | Version:  v1912                                 |
|   \\  /    A nd           | Website:  www.openfoam.com                      |
|    \\/     M anipulation  |                                                 |
\*---------------------------------------------------------------------------*/
FoamFile
{
    version     2.0;
    format      ascii;
    class       volScalarField;
    location    "0.06/solid";
    object      epsilonEq;
}
// * * * * * * * * * * * * * * * * * * * * * * * * * * * * * * * * * * * * * //

dimensions      [0 0 0 0 0 0 0];


internalField   nonuniform List<scalar> 
256
(
2.67143e-06
2.90459e-06
2.89436e-06
2.71023e-06
2.56672e-06
2.93744e-06
2.92446e-06
2.59514e-06
2.67585e-06
2.99628e-06
2.9829e-06
2.70213e-06
2.7601e-06
3.0483e-06
3.0349e-06
2.78475e-06
2.84937e-06
3.12278e-06
3.10936e-06
2.87209e-06
2.99527e-06
3.24801e-06
3.23439e-06
3.01573e-06
3.11144e-06
3.36835e-06
3.35407e-06
3.13324e-06
4.44312e-07
3.32924e-06
3.30909e-06
4.01402e-07
2.85675e-06
7.57133e-07
7.64945e-07
2.9413e-06
2.7668e-06
5.92331e-07
6.00107e-07
2.84605e-06
2.80932e-06
5.46284e-07
5.53407e-07
2.88671e-06
2.86667e-06
5.77499e-07
5.83951e-07
2.94151e-06
2.93546e-06
6.22411e-07
6.28159e-07
3.00683e-06
3.02819e-06
5.76479e-07
5.814e-07
3.09552e-06
3.09931e-06
3.35386e-07
3.36873e-07
3.16663e-06
3.11411e-06
3.36917e-06
3.35464e-06
3.13505e-06
2.81305e-06
7.57568e-07
7.6654e-07
2.89627e-06
2.76586e-06
7.78107e-07
7.87468e-07
2.84371e-06
2.80934e-06
7.65915e-07
7.7449e-07
2.88578e-06
2.85588e-06
7.74284e-07
7.82244e-07
2.93026e-06
2.90974e-06
7.84681e-07
7.92126e-07
2.98103e-06
2.98095e-06
7.163e-07
7.23267e-07
3.04838e-06
3.03168e-06
5.76579e-07
5.809e-07
3.09847e-06
3.00003e-06
3.24811e-06
3.234e-06
3.01867e-06
2.77042e-06
7.30065e-07
7.38516e-07
2.85459e-06
2.73197e-06
8.41255e-07
8.50197e-07
2.81153e-06
2.77867e-06
8.57315e-07
8.65653e-07
2.85742e-06
2.81819e-06
8.58424e-07
8.66328e-07
2.89535e-06
2.85985e-06
8.52914e-07
8.60447e-07
2.93427e-06
2.91497e-06
7.75879e-07
7.82996e-07
2.98577e-06
2.9461e-06
6.19663e-07
6.24424e-07
3.01638e-06
2.86018e-06
3.12244e-06
3.10824e-06
2.87988e-06
2.74431e-06
6.94214e-07
7.02171e-07
2.82924e-06
2.70687e-06
8.2704e-07
8.35655e-07
2.78779e-06
2.75358e-06
8.50071e-07
8.58318e-07
2.83416e-06
2.78888e-06
8.46559e-07
8.54532e-07
2.86819e-06
2.82343e-06
8.31984e-07
8.39696e-07
2.90026e-06
2.86939e-06
7.4498e-07
7.52392e-07
2.94284e-06
2.89076e-06
5.68206e-07
5.7328e-07
2.96386e-06
2.78837e-06
3.05208e-06
3.03761e-06
2.80858e-06
2.72494e-06
6.63224e-07
6.70868e-07
2.8103e-06
2.68672e-06
7.95668e-07
8.04061e-07
2.7684e-06
2.73181e-06
8.16164e-07
8.24351e-07
2.81342e-06
2.76441e-06
8.09172e-07
8.17198e-07
2.84497e-06
2.79519e-06
7.90523e-07
7.98369e-07
2.87343e-06
2.83663e-06
6.97944e-07
7.0559e-07
2.91167e-06
2.85404e-06
5.10161e-07
5.15344e-07
2.92885e-06
2.74607e-06
3.0162e-06
3.00143e-06
2.76617e-06
2.71156e-06
6.40756e-07
6.48228e-07
2.79713e-06
2.67257e-06
7.70256e-07
7.78519e-07
2.75463e-06
2.71613e-06
7.87503e-07
7.9565e-07
2.79825e-06
2.74708e-06
7.78664e-07
7.86714e-07
2.82827e-06
2.77598e-06
7.58983e-07
7.669e-07
2.85495e-06
2.81544e-06
6.64432e-07
6.72212e-07
2.8913e-06
2.83139e-06
4.71385e-07
4.76573e-07
2.90711e-06
2.71988e-06
2.99862e-06
2.98364e-06
2.73968e-06
2.70472e-06
6.28842e-07
6.36242e-07
2.79038e-06
2.66537e-06
7.56988e-07
7.65194e-07
2.74758e-06
2.70813e-06
7.72699e-07
7.80827e-07
2.79046e-06
2.73832e-06
7.63253e-07
7.71311e-07
2.81976e-06
2.76644e-06
7.43578e-07
7.51525e-07
2.8457e-06
2.80518e-06
6.48561e-07
6.56399e-07
2.88137e-06
2.82066e-06
4.53298e-07
4.58472e-07
2.89675e-06
2.70699e-06
2.99127e-06
2.97618e-06
2.72656e-06
)
;

boundaryField
{
    interface
    {
        type            calculated;
        value           nonuniform List<scalar> 
192
(
4.24624e-06
4.17392e-06
4.28919e-06
4.37806e-06
4.48341e-06
4.68231e-06
4.95061e-06
2.55217e-06
5.15692e-06
5.04582e-06
5.10003e-06
5.16879e-06
5.26573e-06
5.44837e-06
5.74804e-06
4.95254e-06
4.92832e-06
4.81963e-06
4.87019e-06
4.93206e-06
5.01709e-06
5.17876e-06
5.45222e-06
4.68652e-06
4.81312e-06
4.69757e-06
4.74744e-06
4.8037e-06
4.8785e-06
5.02475e-06
5.27777e-06
4.49415e-06
4.76453e-06
4.648e-06
4.69643e-06
4.7484e-06
4.8165e-06
4.95367e-06
5.19638e-06
4.40658e-06
4.73859e-06
4.62313e-06
4.67008e-06
4.71908e-06
4.78311e-06
4.9154e-06
5.15356e-06
4.35992e-06
4.72332e-06
4.60876e-06
4.65461e-06
4.7018e-06
4.76359e-06
4.89349e-06
5.12977e-06
4.33266e-06
4.71597e-06
4.60182e-06
4.64711e-06
4.69346e-06
4.75426e-06
4.88321e-06
5.11882e-06
4.31957e-06
4.49338e-06
4.43714e-06
4.54505e-06
4.62325e-06
4.71914e-06
4.91263e-06
5.18843e-06
2.97008e-06
5.36402e-06
5.39807e-06
5.48166e-06
5.55105e-06
5.65428e-06
5.86219e-06
6.19728e-06
5.37157e-06
5.34612e-06
5.37749e-06
5.4605e-06
5.52965e-06
5.6327e-06
5.84042e-06
6.17531e-06
5.34812e-06
4.45349e-06
4.38336e-06
4.49067e-06
4.56881e-06
4.66462e-06
4.85818e-06
5.13488e-06
2.87277e-06
4.38971e-06
4.31022e-06
4.42141e-06
4.5058e-06
4.60578e-06
4.79875e-06
5.06893e-06
2.7559e-06
5.29928e-06
5.17987e-06
5.23168e-06
5.29676e-06
5.38816e-06
5.56377e-06
5.86152e-06
5.07012e-06
5.07134e-06
4.95455e-06
5.00322e-06
5.06188e-06
5.14169e-06
5.29638e-06
5.56714e-06
4.80133e-06
4.96034e-06
4.83744e-06
4.88598e-06
4.93947e-06
5.0094e-06
5.14889e-06
5.39918e-06
4.61367e-06
4.91483e-06
4.79149e-06
4.83899e-06
4.88851e-06
4.95199e-06
5.08262e-06
5.32271e-06
4.52981e-06
4.89073e-06
4.76877e-06
4.81504e-06
4.86178e-06
4.92135e-06
5.04726e-06
5.28292e-06
4.48538e-06
4.87648e-06
4.75556e-06
4.80085e-06
4.84589e-06
4.9033e-06
5.02692e-06
5.26077e-06
4.45931e-06
4.86958e-06
4.74913e-06
4.7939e-06
4.83814e-06
4.89461e-06
5.0173e-06
5.25053e-06
4.44672e-06
2.97079e-06
5.19065e-06
4.91672e-06
4.72833e-06
4.64706e-06
4.60607e-06
4.58255e-06
4.5712e-06
5.37167e-06
6.19758e-06
5.86197e-06
5.65455e-06
5.55811e-06
5.5136e-06
5.49284e-06
5.48435e-06
5.3482e-06
6.17538e-06
5.83977e-06
5.63224e-06
5.53565e-06
5.49098e-06
5.4701e-06
5.46153e-06
2.87333e-06
5.13637e-06
4.86069e-06
4.67115e-06
4.5888e-06
4.54672e-06
4.52231e-06
4.51046e-06
)
;
    }
    symmetry
    {
        type            symmetry;
    }
    bottom
    {
        type            calculated;
        value           nonuniform List<scalar> 
32
(
2.81592e-06
2.97717e-06
2.93946e-06
2.90256e-06
2.87732e-06
2.85743e-06
2.84352e-06
2.83642e-06
2.96589e-06
8.3192e-07
7.75565e-07
7.2247e-07
6.78515e-07
6.45911e-07
6.23409e-07
6.11576e-07
2.95556e-06
8.41069e-07
7.85221e-07
7.31286e-07
6.86757e-07
6.53831e-07
6.31153e-07
6.19244e-07
2.86106e-06
3.06842e-06
3.02842e-06
2.99163e-06
2.96672e-06
2.94702e-06
2.93317e-06
2.92609e-06
)
;
    }
}


// ************************************************************************* //
