/*--------------------------------*- C++ -*----------------------------------*\
| =========                 |                                                 |
| \\      /  F ield         | OpenFOAM: The Open Source CFD Toolbox           |
|  \\    /   O peration     | Version:  v1912                                 |
|   \\  /    A nd           | Website:  www.openfoam.com                      |
|    \\/     M anipulation  |                                                 |
\*---------------------------------------------------------------------------*/
FoamFile
{
    version     2.0;
    format      ascii;
    class       volSymmTensorField;
    location    "0.06/solid";
    object      epsilon;
}
// * * * * * * * * * * * * * * * * * * * * * * * * * * * * * * * * * * * * * //

dimensions      [0 0 0 0 0 0 0];


internalField   nonuniform List<symmTensor> 
256
(
(-3.26867e-06 -1.26929e-07 1.40993e-07 5.63116e-07 -2.16023e-07 -3.54305e-06)
(2.732e-07 -1.09937e-07 6.64237e-08 5.66378e-07 -1.69481e-07 -3.91408e-06)
(2.61983e-07 1.02101e-07 -6.86125e-08 5.72507e-07 -1.71445e-07 -3.90052e-06)
(-3.39508e-06 1.17946e-07 -1.41707e-07 5.91351e-07 -2.23524e-07 -3.48908e-06)
(-3.20396e-06 -2.33756e-08 1.95842e-07 4.64472e-07 -1.03107e-07 -3.51018e-06)
(4.16872e-07 -2.39652e-08 9.64036e-08 4.72546e-07 -1.17828e-07 -3.95309e-06)
(4.01631e-07 1.57556e-08 -1.00109e-07 4.79673e-07 -1.18863e-07 -3.93716e-06)
(-3.33316e-06 1.92966e-08 -1.97154e-07 4.8141e-07 -1.07007e-07 -3.44773e-06)
(-3.24629e-06 8.32386e-09 1.92695e-07 5.99349e-07 -6.366e-08 -3.53591e-06)
(4.01627e-07 1.77034e-09 9.54223e-08 6.07986e-07 -7.22778e-08 -3.98126e-06)
(3.86829e-07 -7.31718e-09 -9.93101e-08 6.13805e-07 -7.27611e-08 -3.96461e-06)
(-3.37359e-06 -1.03787e-08 -1.94095e-07 6.14001e-07 -6.55123e-08 -3.47181e-06)
(-3.29989e-06 1.40776e-08 1.88614e-07 6.89523e-07 -5.42098e-08 -3.56087e-06)
(3.5438e-07 8.41655e-09 9.32883e-08 7.33838e-07 -5.23985e-08 -4.01273e-06)
(3.40261e-07 -1.14341e-08 -9.69387e-08 7.38459e-07 -5.25611e-08 -3.99585e-06)
(-3.42414e-06 -1.507e-08 -1.89892e-07 7.02136e-07 -5.49025e-08 -3.49663e-06)
(-3.35775e-06 5.65387e-09 1.90012e-07 7.76115e-07 -6.56582e-08 -3.5994e-06)
(3.37121e-07 2.78492e-09 9.43606e-08 8.46432e-07 -5.94199e-08 -4.06758e-06)
(3.23512e-07 -4.16389e-09 -9.76735e-08 8.5011e-07 -5.93605e-08 -4.05065e-06)
(-3.47819e-06 -6.02218e-09 -1.91093e-07 7.86712e-07 -6.55236e-08 -3.53559e-06)
(-3.42486e-06 -3.4244e-08 1.93583e-07 9.21735e-07 -1.08686e-07 -3.67337e-06)
(4.29202e-07 -2.44191e-08 9.67555e-08 9.30482e-07 -1.03058e-07 -4.16643e-06)
(4.15873e-07 2.39763e-08 -9.97036e-08 9.33426e-07 -1.02792e-07 -4.14964e-06)
(-3.54113e-06 3.39999e-08 -1.94446e-07 9.30546e-07 -1.07818e-07 -3.61055e-06)
(-3.48587e-06 -1.26551e-07 1.93495e-07 1.00401e-06 -1.92876e-07 -3.76899e-06)
(7.37066e-07 -7.12208e-08 9.68568e-08 7.56222e-07 -1.95907e-07 -4.29014e-06)
(7.22948e-07 7.14653e-08 -9.94327e-08 7.59492e-07 -1.95408e-07 -4.27391e-06)
(-3.60253e-06 1.25868e-07 -1.94189e-07 1.01479e-06 -1.91337e-07 -3.70809e-06)
(-2.99153e-06 -1.82435e-07 1.82253e-07 -3.29566e-06 -2.25506e-07 -3.29443e-06)
(1.20152e-06 -9.14666e-08 9.11776e-08 -3.77065e-06 -2.37044e-07 -3.77017e-06)
(1.18452e-06 9.33636e-08 -9.35126e-08 -3.75705e-06 -2.36482e-07 -3.75673e-06)
(-3.13511e-06 1.82963e-07 -1.83009e-07 -3.24136e-06 -2.23929e-07 -3.24045e-06)
(-3.70013e-06 7.7463e-09 9.28386e-08 8.36378e-07 -3.81695e-07 1.37925e-07)
(-5.75657e-08 -6.17506e-08 4.49409e-08 7.31852e-07 -4.66126e-07 -5.41496e-08)
(-6.59322e-08 6.10251e-08 -4.65457e-08 7.40421e-07 -4.68815e-07 -5.24698e-08)
(-3.80476e-06 -1.18655e-08 -9.26983e-08 8.68514e-07 -3.91465e-07 1.44232e-07)
(-3.70102e-06 -6.23951e-09 1.40034e-07 5.85526e-07 -2.40558e-07 2.34085e-07)
(-8.95945e-08 -1.4419e-08 7.63171e-08 6.57426e-07 -2.92945e-07 -2.48696e-08)
(-1.00686e-07 1.24003e-08 -7.93348e-08 6.63885e-07 -2.9487e-07 -2.11805e-08)
(-3.80541e-06 5.15933e-09 -1.40098e-07 6.01236e-07 -2.47587e-07 2.46756e-07)
(-3.73553e-06 3.92364e-09 1.39035e-07 6.29628e-07 -1.78318e-07 2.67295e-07)
(-1.15278e-07 7.81018e-10 7.67792e-08 6.75101e-07 -1.94967e-07 1.30594e-08)
(-1.25959e-07 -2.4363e-09 -7.9914e-08 6.80013e-07 -1.96109e-07 1.75329e-08)
(-3.838e-06 -4.32809e-09 -1.39146e-07 6.4274e-07 -1.82555e-07 2.82127e-07)
(-3.78368e-06 1.07261e-08 1.33815e-07 6.86029e-07 -1.60229e-07 2.88369e-07)
(-1.48397e-07 6.42071e-09 7.31697e-08 7.39445e-07 -1.58668e-07 3.57591e-08)
(-1.58556e-07 -7.51219e-09 -7.58347e-08 7.43501e-07 -1.59162e-07 4.03862e-08)
(-3.88324e-06 -1.09379e-08 -1.33777e-07 6.97812e-07 -1.62237e-07 3.03479e-07)
(-3.84437e-06 4.64528e-09 1.32747e-07 7.33985e-07 -1.80941e-07 3.19878e-07)
(-1.57374e-07 1.51522e-09 7.27494e-08 8.06131e-07 -1.73292e-07 6.09229e-08)
(-1.67118e-07 -2.28133e-09 -7.47713e-08 8.09622e-07 -1.73268e-07 6.54343e-08)
(-3.93988e-06 -4.78846e-09 -1.32474e-07 7.44583e-07 -1.81144e-07 3.34467e-07)
(-3.92093e-06 -3.49576e-08 1.33369e-07 7.70292e-07 -2.32375e-07 4.01466e-07)
(-6.13158e-08 -2.54598e-08 7.3852e-08 7.77638e-07 -2.24457e-07 1.33649e-07)
(-7.08772e-08 2.49308e-08 -7.52357e-08 7.80821e-07 -2.24011e-07 1.37882e-07)
(-4.01149e-06 3.46024e-08 -1.32855e-07 7.80072e-07 -2.31057e-07 4.15056e-07)
(-4.00076e-06 -1.31914e-07 1.31722e-07 6.11458e-07 -2.69528e-07 6.15385e-07)
(2.5398e-07 -7.38658e-08 7.32414e-08 3.44158e-07 -2.66017e-07 3.46331e-07)
(2.43375e-07 7.40002e-08 -7.42121e-08 3.48303e-07 -2.65324e-07 3.50054e-07)
(-4.09041e-06 1.30992e-07 -1.31099e-07 6.24568e-07 -2.6726e-07 6.27454e-07)
(-3.48618e-06 -1.93609e-07 1.26233e-07 -3.77106e-06 -1.92817e-07 1.0068e-06)
(7.36808e-07 -9.70503e-08 7.0394e-08 -4.29116e-06 -1.9588e-07 7.56967e-07)
(7.22728e-07 9.93448e-08 -7.18943e-08 -4.27471e-06 -1.95364e-07 7.59808e-07)
(-3.60269e-06 1.94166e-07 -1.26022e-07 -3.70966e-06 -1.91199e-07 1.01664e-06)
(-3.59291e-06 8.7012e-08 2.17966e-08 9.42582e-07 -3.16881e-07 1.07098e-07)
(-2.43299e-07 -3.61263e-09 1.21756e-08 7.78831e-07 -4.00047e-07 1.03037e-07)
(-2.50533e-07 5.87865e-09 -1.36914e-08 7.87313e-07 -4.02672e-07 1.03707e-07)
(-3.69847e-06 -8.91895e-08 -2.22021e-08 9.72304e-07 -3.25555e-07 1.09474e-07)
(-3.6563e-06 1.15275e-08 4.1486e-08 6.68021e-07 -2.70443e-07 2.27106e-07)
(-4.25823e-07 -4.22186e-10 2.58967e-08 7.62437e-07 -3.14985e-07 2.28581e-07)
(-4.35175e-07 1.20997e-09 -2.85863e-08 7.68801e-07 -3.17038e-07 2.30649e-07)
(-3.76097e-06 -1.13274e-08 -4.22511e-08 6.83824e-07 -2.77246e-07 2.33857e-07)
(-3.69785e-06 1.76286e-09 4.3292e-08 6.61457e-07 -2.34186e-07 3.08005e-07)
(-4.75113e-07 -6.04503e-11 2.74872e-08 7.34841e-07 -2.4823e-07 3.16391e-07)
(-4.84094e-07 6.12319e-10 -3.01924e-08 7.39757e-07 -2.49587e-07 3.19285e-07)
(-3.8008e-06 -1.28708e-09 -4.40759e-08 6.75219e-07 -2.38809e-07 3.17191e-07)
(-3.73913e-06 7.29764e-09 4.03534e-08 6.63018e-07 -2.21562e-07 3.7626e-07)
(-4.97038e-07 4.55715e-09 2.55635e-08 7.29614e-07 -2.20282e-07 3.86118e-07)
(-5.0564e-07 -4.17905e-09 -2.77586e-08 7.33816e-07 -2.20982e-07 3.8929e-07)
(-3.83945e-06 -6.94755e-09 -4.09661e-08 6.75737e-07 -2.24136e-07 3.86244e-07)
(-3.79151e-06 2.84834e-09 3.81353e-08 6.43417e-07 -2.33261e-07 4.58376e-07)
(-4.944e-07 1.1815e-09 2.45913e-08 7.19215e-07 -2.26455e-07 4.66057e-07)
(-5.02712e-07 -1.04612e-09 -2.61169e-08 7.23032e-07 -2.26585e-07 4.69169e-07)
(-3.88795e-06 -2.65596e-09 -3.85063e-08 6.55331e-07 -2.33996e-07 4.68162e-07)
(-3.85739e-06 -3.66373e-08 3.65726e-08 5.9644e-07 -2.5065e-07 5.87565e-07)
(-3.88853e-07 -2.54345e-08 2.45991e-08 6.03496e-07 -2.42697e-07 5.92514e-07)
(-3.97099e-07 2.55147e-08 -2.55316e-08 6.07202e-07 -2.42378e-07 5.95352e-07)
(-3.9489e-06 3.64931e-08 -3.67283e-08 6.07975e-07 -2.49843e-07 5.96529e-07)
(-3.92334e-06 -1.336e-07 3.50575e-08 4.02125e-07 -2.27885e-07 7.7607e-07)
(-6.30958e-08 -7.44244e-08 2.46448e-08 1.35667e-07 -2.20622e-07 7.80535e-07)
(-7.25511e-08 7.51309e-08 -2.53878e-08 1.40423e-07 -2.20095e-07 7.82962e-07)
(-4.01364e-06 1.32858e-07 -3.51686e-08 4.17156e-07 -2.26194e-07 7.83817e-07)
(-3.42674e-06 -1.93747e-07 3.43032e-08 -3.67511e-06 -1.06957e-07 9.27205e-07)
(4.27093e-07 -9.69258e-08 2.34118e-08 -4.16665e-06 -1.01671e-07 9.32062e-07)
(4.13945e-07 9.96524e-08 -2.50367e-08 -4.14952e-06 -1.01351e-07 9.34152e-07)
(-3.54255e-06 1.94517e-07 -3.48486e-08 -3.61143e-06 -1.0584e-07 9.33941e-07)
(-3.52523e-06 1.0985e-07 -2.20796e-09 9.83397e-07 -2.661e-07 6.13369e-08)
(-2.95823e-07 1.76047e-08 -2.90618e-09 7.93784e-07 -3.07887e-07 9.57861e-08)
(-3.02747e-07 -1.35379e-08 1.54577e-09 8.01709e-07 -3.1e-07 9.63759e-08)
(-3.63464e-06 -1.11067e-07 1.66938e-09 1.01048e-06 -2.72614e-07 6.33269e-08)
(-3.60935e-06 1.90323e-08 -4.17124e-10 7.01291e-07 -2.53209e-07 1.78008e-07)
(-5.39731e-07 6.26289e-09 -2.36775e-09 8.0236e-07 -2.76419e-07 2.41246e-07)
(-5.48678e-07 -4.01695e-09 -5.62033e-11 8.0853e-07 -2.78127e-07 2.42859e-07)
(-3.71794e-06 -1.82246e-08 -5.63869e-10 7.16601e-07 -2.58542e-07 1.83128e-07)
(-3.65758e-06 1.67866e-09 3.66651e-10 6.69145e-07 -2.37588e-07 2.84131e-07)
(-6.06806e-07 2.20063e-10 -1.92231e-09 7.56363e-07 -2.45483e-07 3.56305e-07)
(-6.15465e-07 1.60942e-09 -5.19979e-10 7.61435e-07 -2.46692e-07 3.58605e-07)
(-3.76468e-06 -7.09723e-10 -1.38075e-09 6.83576e-07 -2.41526e-07 2.91307e-07)
(-3.69542e-06 5.2706e-09 -7.15372e-10 6.3007e-07 -2.29502e-07 3.85529e-07)
(-6.24414e-07 3.62489e-09 -2.47746e-09 7.05515e-07 -2.28398e-07 4.5878e-07)
(-6.32802e-07 -2.18478e-09 4.83203e-10 7.1006e-07 -2.29106e-07 4.61403e-07)
(-3.80012e-06 -4.51528e-09 -1.42157e-10 6.43984e-07 -2.3198e-07 3.93699e-07)
(-3.74029e-06 9.32201e-10 -2.32114e-09 5.66527e-07 -2.26948e-07 4.95445e-07)
(-6.11862e-07 7.63994e-10 -3.04222e-09 6.45792e-07 -2.21863e-07 5.67256e-07)
(-6.20057e-07 2.26541e-10 1.62361e-09 6.5006e-07 -2.22105e-07 5.69919e-07)
(-3.8413e-06 -4.15157e-10 1.67563e-09 5.7993e-07 -2.27985e-07 5.03783e-07)
(-3.79645e-06 -3.78884e-08 -3.69946e-09 4.94785e-07 -2.12824e-07 6.22291e-07)
(-4.96465e-07 -2.51022e-08 -3.10736e-09 5.04137e-07 -2.06536e-07 6.92079e-07)
(-5.04684e-07 2.58897e-08 2.15229e-09 5.08354e-07 -2.06408e-07 6.94594e-07)
(-3.89265e-06 3.80128e-08 3.22345e-09 5.07976e-07 -2.12614e-07 6.3023e-07)
(-3.85244e-06 -1.32569e-07 -4.18317e-09 3.3078e-07 -1.6077e-07 7.43974e-07)
(-1.63759e-07 -7.29152e-08 -2.58777e-09 7.2907e-08 -1.54259e-07 8.11658e-07)
(-1.7327e-07 7.42135e-08 1.68262e-09 7.81119e-08 -1.53961e-07 8.13959e-07)
(-3.94739e-06 1.32067e-07 3.71275e-09 3.47364e-07 -1.59827e-07 7.51263e-07)
(-3.3647e-06 -1.89977e-07 -4.30033e-09 -3.60001e-06 -5.83379e-08 7.89225e-07)
(3.28305e-07 -9.43551e-08 -3.56841e-09 -4.06611e-06 -5.26028e-08 8.54787e-07)
(3.15064e-07 9.74333e-08 1.81909e-09 -4.04868e-06 -5.24158e-08 8.57023e-07)
(-3.48423e-06 1.90975e-07 3.46082e-09 -3.53486e-06 -5.764e-08 7.96204e-07)
(-3.48935e-06 1.10697e-07 -4.98963e-09 9.92826e-07 -2.14928e-07 5.64948e-08)
(-2.98013e-07 1.9249e-08 -4.85026e-09 7.95841e-07 -2.28452e-07 7.8006e-08)
(-3.04791e-07 -1.40738e-08 3.74686e-09 8.033e-07 -2.29991e-07 7.85881e-08)
(-3.60163e-06 -1.11352e-07 4.54116e-09 1.018e-06 -2.19508e-07 5.82835e-08)
(-3.57596e-06 1.95392e-08 -8.33546e-09 7.06887e-07 -2.12197e-07 1.7558e-07)
(-5.5051e-07 6.98801e-09 -8.26536e-09 8.08904e-07 -2.19778e-07 2.17088e-07)
(-5.59324e-07 -3.87665e-09 6.24826e-09 8.14846e-07 -2.2103e-07 2.18519e-07)
(-3.68757e-06 -1.83877e-08 7.49259e-09 7.2154e-07 -2.15994e-07 1.79845e-07)
(-3.62555e-06 1.49559e-09 -8.95066e-09 6.60856e-07 -2.06193e-07 2.93108e-07)
(-6.22445e-07 3.46819e-10 -8.88684e-09 7.52872e-07 -2.08732e-07 3.41494e-07)
(-6.31058e-07 2.27532e-09 6.80471e-09 7.58031e-07 -2.09659e-07 3.43478e-07)
(-3.73586e-06 -2.27779e-10 8.0569e-09 6.75606e-07 -2.09145e-07 2.99022e-07)
(-3.66109e-06 4.36638e-09 -9.41912e-09 6.00891e-07 -1.99235e-07 4.08282e-07)
(-6.38138e-07 3.42468e-09 -9.00052e-09 6.80418e-07 -1.98097e-07 4.57652e-07)
(-6.4656e-07 -1.24135e-09 7.24505e-09 6.85246e-07 -1.98691e-07 4.59944e-07)
(-3.76916e-06 -3.32797e-09 8.63909e-09 6.157e-07 -2.01264e-07 4.15164e-07)
(-3.70091e-06 -1.52438e-10 -1.01946e-08 5.21044e-07 -1.87219e-07 5.2248e-07)
(-6.19624e-07 6.787e-10 -9.09947e-09 6.02489e-07 -1.84025e-07 5.70593e-07)
(-6.27925e-07 9.83667e-10 7.77461e-09 6.07136e-07 -1.84297e-07 5.72992e-07)
(-3.80542e-06 9.2655e-10 9.57426e-09 5.35638e-07 -1.88266e-07 5.29753e-07)
(-3.75089e-06 -3.82804e-08 -1.0836e-08 4.52339e-07 -1.59579e-07 6.29696e-07)
(-4.97995e-07 -2.45343e-08 -8.95268e-09 4.64017e-07 -1.55678e-07 6.75749e-07)
(-5.06384e-07 2.58982e-08 7.95412e-09 4.68639e-07 -1.55684e-07 6.78118e-07)
(-3.8507e-06 3.86277e-08 1.03352e-08 4.66826e-07 -1.59733e-07 6.3693e-07)
(-3.80177e-06 -1.31022e-07 -1.07675e-08 3.14473e-07 -1.06953e-07 7.07559e-07)
(-1.62216e-07 -7.11864e-08 -8.40785e-09 6.38003e-08 -1.02888e-07 7.51383e-07)
(-1.71943e-07 7.29333e-08 7.39844e-09 6.93547e-08 -1.02759e-07 7.53686e-07)
(-3.90036e-06 1.30711e-07 1.0254e-08 3.32278e-07 -1.0654e-07 7.14572e-07)
(-3.31899e-06 -1.86686e-07 -1.08534e-08 -3.56154e-06 -3.4882e-08 7.24003e-07)
(3.3005e-07 -9.21036e-08 -9.13781e-09 -4.0107e-06 -3.12466e-08 7.67153e-07)
(3.16609e-07 9.54454e-08 7.46607e-09 -3.99309e-06 -3.11443e-08 7.69508e-07)
(-3.44167e-06 1.87869e-07 1.0061e-08 -3.49536e-06 -3.44794e-08 7.31054e-07)
(-3.46967e-06 1.0731e-07 -3.07753e-09 9.88678e-07 -1.57843e-07 5.95091e-08)
(-2.9072e-07 1.66098e-08 -2.93006e-09 7.91768e-07 -1.59791e-07 6.77371e-08)
(-2.97379e-07 -1.07992e-08 2.14093e-09 7.9891e-07 -1.60814e-07 6.82616e-08)
(-3.58369e-06 -1.07625e-07 2.76568e-09 1.0126e-06 -1.60838e-07 6.10379e-08)
(-3.55393e-06 1.80838e-08 -5.93202e-09 7.00962e-07 -1.5793e-07 1.82093e-07)
(-5.36341e-07 5.92274e-09 -5.69762e-09 8.02599e-07 -1.58544e-07 1.98438e-07)
(-5.45035e-07 -2.29106e-09 4.2166e-09 8.0836e-07 -1.59378e-07 1.99692e-07)
(-3.66736e-06 -1.67249e-08 5.32819e-09 7.15085e-07 -1.60423e-07 1.85677e-07)
(-3.60205e-06 9.74544e-10 -6.85751e-09 6.48302e-07 -1.55371e-07 3.0346e-07)
(-6.06047e-07 1.68221e-10 -6.486e-09 7.4115e-07 -1.55155e-07 3.22952e-07)
(-6.14599e-07 2.95223e-09 4.91366e-09 7.46337e-07 -1.55789e-07 3.24673e-07)
(-3.7143e-06 4.79019e-10 6.20003e-09 6.63158e-07 -1.57365e-07 3.08412e-07)
(-3.63556e-06 3.94968e-09 -7.20156e-09 5.80966e-07 -1.48946e-07 4.20352e-07)
(-6.19776e-07 3.4767e-09 -6.55662e-09 6.61684e-07 -1.47854e-07 4.40306e-07)
(-6.28196e-07 -7.9997e-10 5.18218e-09 6.66692e-07 -1.48286e-07 4.42308e-07)
(-3.74567e-06 -2.72444e-09 6.6111e-09 5.96327e-07 -1.50395e-07 4.26193e-07)
(-3.67233e-06 -5.65681e-10 -7.51784e-09 4.99344e-07 -1.34955e-07 5.2833e-07)
(-5.98175e-07 8.4293e-10 -6.47378e-09 5.81669e-07 -1.332e-07 5.4736e-07)
(-6.06522e-07 1.28421e-09 5.37708e-09 5.86579e-07 -1.33431e-07 5.49504e-07)
(-3.77897e-06 1.51748e-09 7.02969e-09 5.14748e-07 -1.35798e-07 5.34663e-07)
(-3.719e-06 -3.82397e-08 -7.71092e-09 4.38889e-07 -1.08533e-07 6.17965e-07)
(-4.73604e-07 -2.39945e-08 -6.25733e-09 4.51835e-07 -1.06574e-07 6.3548e-07)
(-4.82084e-07 2.57567e-08 5.3632e-09 4.56743e-07 -1.06633e-07 6.37669e-07)
(-3.82102e-06 3.87412e-08 7.29611e-09 4.54287e-07 -1.08798e-07 6.24481e-07)
(-3.76761e-06 -1.29944e-07 -7.54068e-09 3.14287e-07 -6.84323e-08 6.74625e-07)
(-1.36878e-07 -7.00543e-08 -5.89677e-09 6.74607e-08 -6.65092e-08 6.90675e-07)
(-1.46724e-07 7.20988e-08 4.97012e-09 7.32739e-08 -6.64706e-08 6.92884e-07)
(-3.86845e-06 1.29762e-07 7.10713e-09 3.32982e-07 -6.82983e-08 6.81177e-07)
(-3.28744e-06 -1.84825e-07 -7.57469e-09 -3.54204e-06 -2.16602e-08 6.85787e-07)
(3.55127e-07 -9.08381e-08 -6.33433e-09 -3.98289e-06 -1.99647e-08 7.01936e-07)
(3.41589e-07 9.43616e-08 4.94889e-09 -3.96515e-06 -1.99126e-08 7.04247e-07)
(-3.41215e-06 1.86136e-07 6.95024e-09 -3.47512e-06 -2.14426e-08 6.92537e-07)
(-3.45919e-06 1.04826e-07 -1.35804e-09 9.81452e-07 -9.6239e-08 6.22951e-08)
(-2.85327e-07 1.46542e-08 -1.24089e-09 7.86212e-07 -9.54113e-08 6.42396e-08)
(-2.91898e-07 -8.51264e-09 7.73423e-10 7.93161e-07 -9.59915e-08 6.46994e-08)
(-3.57417e-06 -1.04949e-07 1.17711e-09 1.00462e-06 -9.79198e-08 6.36001e-08)
(-3.54121e-06 1.69183e-08 -2.78021e-09 6.9305e-07 -9.67386e-08 1.86878e-07)
(-5.24349e-07 5.05138e-09 -2.60452e-09 7.94362e-07 -9.57228e-08 1.90486e-07)
(-5.32941e-07 -1.13288e-09 1.70747e-09 8.00008e-07 -9.6196e-08 1.91586e-07)
(-3.65562e-06 -1.54426e-08 2.42159e-09 7.06833e-07 -9.81406e-08 1.8995e-07)
(-3.58758e-06 5.04832e-10 -3.38536e-09 6.38051e-07 -9.54465e-08 3.084e-07)
(-5.90787e-07 -3.30726e-11 -3.09599e-09 7.30629e-07 -9.46197e-08 3.12551e-07)
(-5.9927e-07 3.442e-09 2.11847e-09 7.35823e-07 -9.49836e-08 3.14064e-07)
(-3.70087e-06 1.05589e-09 2.98509e-09 6.52934e-07 -9.65821e-08 3.12665e-07)
(-3.61951e-06 3.72311e-09 -3.62433e-09 5.69602e-07 -9.07518e-08 4.22677e-07)
(-6.02683e-07 3.54578e-09 -3.16114e-09 6.50361e-07 -8.99631e-08 4.26679e-07)
(-6.1107e-07 -5.75114e-10 2.27625e-09 6.55469e-07 -9.02193e-08 4.28455e-07)
(-3.73072e-06 -2.38731e-09 3.25369e-09 5.85269e-07 -9.1601e-08 4.27761e-07)
(-3.65457e-06 -6.91041e-10 -3.75505e-09 4.90433e-07 -8.04239e-08 5.235e-07)
(-5.79505e-07 1.02682e-09 -3.08378e-09 5.72906e-07 -7.95804e-08 5.26846e-07)
(-5.87851e-07 1.38059e-09 2.34147e-09 5.77972e-07 -7.97282e-08 5.2878e-07)
(-3.76236e-06 1.7494e-09 3.43583e-09 5.0632e-07 -8.09476e-08 5.2911e-07)
(-3.69965e-06 -3.8125e-08 -3.79432e-09 4.36035e-07 -6.27578e-08 6.0225e-07)
(-4.53759e-07 -2.36415e-08 -2.93583e-09 4.49405e-07 -6.19507e-08 6.0471e-07)
(-4.62266e-07 2.56418e-08 2.29304e-09 4.54493e-07 -6.20032e-08 6.06728e-07)
(-3.80287e-06 3.87183e-08 3.50993e-09 4.52002e-07 -6.29595e-08 6.08149e-07)
(-3.74735e-06 -1.29392e-07 -3.68424e-09 3.1714e-07 -3.85967e-08 6.49843e-07)
(-1.16884e-07 -6.94949e-08 -2.76324e-09 7.18141e-08 -3.78968e-08 6.51581e-07)
(-1.26772e-07 7.17135e-08 2.08454e-09 7.77979e-08 -3.78904e-08 6.53664e-07)
(-3.84943e-06 1.29286e-07 3.38163e-09 3.36414e-07 -3.85637e-08 6.55908e-07)
(-3.26852e-06 -1.84002e-07 -3.6717e-09 -3.53167e-06 -1.21308e-08 6.60817e-07)
(3.74752e-07 -9.02916e-08 -2.97066e-09 -3.96945e-06 -1.15311e-08 6.62838e-07)
(3.61188e-07 9.39274e-08 2.01682e-09 -3.9516e-06 -1.1506e-08 6.65039e-07)
(-3.39437e-06 1.85394e-07 3.25457e-09 -3.46426e-06 -1.20202e-08 6.67143e-07)
(-3.45463e-06 1.03744e-07 -3.61264e-10 9.76698e-07 -3.23087e-08 6.36989e-08)
(-2.82948e-07 1.38443e-08 -3.16052e-10 7.82554e-07 -3.18164e-08 6.36279e-08)
(-2.89474e-07 -7.56696e-09 1.61588e-10 7.89413e-07 -3.20038e-08 6.40492e-08)
(-3.57004e-06 -1.03784e-07 3.01931e-10 9.99519e-07 -3.28483e-08 6.48794e-08)
(-3.53557e-06 1.64028e-08 -7.53362e-10 6.88091e-07 -3.25161e-08 1.89011e-07)
(-5.18818e-07 4.68001e-09 -6.90514e-10 7.89287e-07 -3.20144e-08 1.88372e-07)
(-5.27354e-07 -6.39499e-10 3.89761e-10 7.94879e-07 -3.21672e-08 1.89385e-07)
(-3.6504e-06 -1.48765e-08 6.34012e-10 7.01717e-07 -3.29662e-08 1.91807e-07)
(-3.58096e-06 2.67375e-10 -9.45499e-10 6.3259e-07 -3.20842e-08 3.0986e-07)
(-5.83411e-07 -1.32652e-10 -8.43318e-10 7.24899e-07 -3.17137e-08 3.08687e-07)
(-5.91853e-07 3.66934e-09 5.09609e-10 7.30094e-07 -3.18315e-08 3.10087e-07)
(-3.6947e-06 1.34064e-09 8.0992e-10 6.47481e-07 -3.24497e-08 3.1376e-07)
(-3.61204e-06 3.61454e-09 -1.03041e-09 5.64606e-07 -3.03618e-08 4.21857e-07)
(-5.94248e-07 3.57965e-09 -8.6981e-10 6.45211e-07 -3.00762e-08 4.20197e-07)
(-6.0261e-07 -4.7628e-10 5.60061e-10 6.50365e-07 -3.01601e-08 4.21851e-07)
(-3.72373e-06 -2.2292e-09 9.01849e-10 5.8041e-07 -3.06376e-08 4.26536e-07)
(-3.64633e-06 -7.2743e-10 -1.06925e-09 4.8741e-07 -2.66348e-08 5.18568e-07)
(-5.70367e-07 1.12498e-09 -8.44499e-10 5.69827e-07 -2.63851e-08 5.1637e-07)
(-5.78704e-07 1.40943e-09 5.7549e-10 5.74967e-07 -2.64347e-08 5.18186e-07)
(-3.75461e-06 1.83366e-09 9.54944e-10 5.03524e-07 -2.68079e-08 5.23776e-07)
(-3.69076e-06 -3.80612e-08 -1.07489e-09 4.35906e-07 -2.05332e-08 5.92402e-07)
(-4.44217e-07 -2.34836e-08 -7.97081e-10 4.49342e-07 -2.03245e-08 5.89665e-07)
(-4.52726e-07 2.55907e-08 5.54942e-10 4.54517e-07 -2.03436e-08 5.91582e-07)
(-3.7945e-06 3.86952e-08 9.69489e-10 4.52146e-07 -2.06031e-08 5.97936e-07)
(-3.73815e-06 -1.29179e-07 -1.04095e-09 3.19125e-07 -1.25285e-08 6.36674e-07)
(-1.07369e-07 -6.92871e-08 -7.50509e-10 7.42146e-08 -1.2371e-08 6.33603e-07)
(-1.17269e-07 7.1582e-08 4.91199e-10 8.02838e-08 -1.23705e-08 6.35602e-07)
(-3.84078e-06 1.29106e-07 9.27196e-10 3.38687e-07 -1.2521e-08 6.4242e-07)
(-3.25991e-06 -1.8372e-07 -1.02922e-09 -3.52692e-06 -3.92927e-09 6.47967e-07)
(3.84013e-07 -9.01118e-08 -8.09609e-10 -3.96388e-06 -3.79897e-09 6.45182e-07)
(3.70445e-07 9.37997e-08 4.55495e-10 -3.94598e-06 -3.79106e-09 6.47306e-07)
(-3.38628e-06 1.8515e-07 8.75814e-10 -3.45925e-06 -3.89354e-09 6.53997e-07)
)
;

boundaryField
{
    interface
    {
        type            calculated;
        value           nonuniform List<symmTensor> 
192
(
(-6.76095e-06 3.7546e-12 4.62017e-11 5.63116e-07 -2.16023e-07 -3.54305e-06)
(-6.74955e-06 3.87465e-12 5.30927e-11 4.64472e-07 -1.03107e-07 -3.51018e-06)
(-6.81207e-06 3.7406e-12 5.30921e-11 5.99349e-07 -6.366e-08 -3.53591e-06)
(-6.87336e-06 3.42591e-12 5.20636e-11 6.89523e-07 -5.42098e-08 -3.56087e-06)
(-6.9664e-06 2.00005e-12 5.0203e-11 7.76115e-07 -6.56582e-08 -3.5994e-06)
(-7.16005e-06 -1.43514e-12 4.73343e-11 9.21735e-07 -1.08686e-07 -3.67337e-06)
(-7.54255e-06 -4.8909e-12 4.25297e-11 1.00401e-06 -1.92876e-07 -3.76899e-06)
(-7.10333e-06 -2.23606e-11 3.71142e-11 -3.29566e-06 -2.25506e-07 -3.29443e-06)
(-7.19616e-06 4.38682e-12 2.52959e-11 8.36378e-07 -3.81695e-07 1.37925e-07)
(-7.14131e-06 3.93827e-12 2.95574e-11 5.85526e-07 -2.40558e-07 2.34085e-07)
(-7.1889e-06 3.25917e-12 2.96053e-11 6.29628e-07 -1.78318e-07 2.67295e-07)
(-7.25337e-06 2.36817e-12 2.89617e-11 6.86029e-07 -1.60229e-07 2.88369e-07)
(-7.35729e-06 2.86149e-13 2.77242e-11 7.33985e-07 -1.80941e-07 3.19878e-07)
(-7.57051e-06 -4.05454e-12 2.58125e-11 7.70292e-07 -2.32375e-07 4.01466e-07)
(-7.99599e-06 -8.06744e-12 2.29102e-11 6.11458e-07 -2.69528e-07 6.15385e-07)
(-7.54286e-06 -2.77009e-11 1.97874e-11 -3.77106e-06 -1.92817e-07 1.0068e-06)
(-6.81165e-06 5.05418e-12 2.00419e-11 9.42582e-07 -3.16881e-07 1.07098e-07)
(-6.75657e-06 4.18931e-12 2.33399e-11 6.68021e-07 -2.70443e-07 2.27106e-07)
(-6.80286e-06 2.9784e-12 2.3453e-11 6.61457e-07 -2.34186e-07 3.08005e-07)
(-6.86431e-06 1.57598e-12 2.30487e-11 6.63018e-07 -2.21562e-07 3.7626e-07)
(-6.96217e-06 -1.0997e-12 2.2169e-11 6.43417e-07 -2.33261e-07 4.58376e-07)
(-7.164e-06 -6.19738e-12 2.07483e-11 5.9644e-07 -2.5065e-07 5.87565e-07)
(-7.57328e-06 -1.09163e-11 1.86318e-11 4.02125e-07 -2.27885e-07 7.7607e-07)
(-7.16166e-06 -3.23531e-11 1.61445e-11 -3.67511e-06 -1.06957e-07 9.27205e-07)
(-6.6382e-06 5.43964e-12 1.40615e-11 9.83397e-07 -2.661e-07 6.13369e-08)
(-6.57843e-06 4.35142e-12 1.64315e-11 7.01291e-07 -2.53209e-07 1.78008e-07)
(-6.6248e-06 2.82841e-12 1.65559e-11 6.69145e-07 -2.37588e-07 2.84131e-07)
(-6.68366e-06 1.0855e-12 1.63443e-11 6.3007e-07 -2.29502e-07 3.85529e-07)
(-6.77595e-06 -2.00696e-12 1.58043e-11 5.66527e-07 -2.26948e-07 4.95445e-07)
(-6.96876e-06 -7.59213e-12 1.48912e-11 4.94785e-07 -2.12824e-07 6.22291e-07)
(-7.36628e-06 -1.27238e-11 1.35477e-11 3.3078e-07 -1.6077e-07 7.43974e-07)
(-6.9718e-06 -3.50301e-11 1.1984e-11 -3.60001e-06 -5.83379e-08 7.89225e-07)
(-6.56622e-06 5.74473e-12 1.00091e-11 9.92826e-07 -2.14928e-07 5.64948e-08)
(-6.50585e-06 4.51388e-12 1.17366e-11 7.06887e-07 -2.12197e-07 1.7558e-07)
(-6.55139e-06 2.78614e-12 1.18788e-11 6.60856e-07 -2.06193e-07 2.93108e-07)
(-6.60769e-06 8.21298e-13 1.1806e-11 6.00891e-07 -1.99235e-07 4.08282e-07)
(-6.69571e-06 -2.55335e-12 1.15185e-11 5.21044e-07 -1.87219e-07 5.2248e-07)
(-6.88275e-06 -8.46225e-12 1.09831e-11 4.52339e-07 -1.59579e-07 6.29696e-07)
(-7.27391e-06 -1.38741e-11 1.01725e-11 3.14473e-07 -1.06953e-07 7.07559e-07)
(-6.88799e-06 -3.67199e-11 9.21029e-12 -3.56154e-06 -3.4882e-08 7.24003e-07)
(-6.5328e-06 5.99562e-12 6.72525e-12 9.88678e-07 -1.57843e-07 5.95091e-08)
(-6.47319e-06 4.67548e-12 7.92878e-12 7.00962e-07 -1.5793e-07 1.82093e-07)
(-6.51769e-06 2.8211e-12 8.07906e-12 6.48302e-07 -1.55371e-07 3.0346e-07)
(-6.57189e-06 7.21114e-13 8.10157e-12 5.80966e-07 -1.48946e-07 4.20352e-07)
(-6.65698e-06 -2.83268e-12 7.99582e-12 4.99344e-07 -1.34955e-07 5.2833e-07)
(-6.84065e-06 -8.94705e-12 7.73725e-12 4.38889e-07 -1.08533e-07 6.17965e-07)
(-7.22868e-06 -1.45372e-11 7.3141e-12 3.14287e-07 -6.84323e-08 6.74625e-07)
(-6.84686e-06 -3.77188e-11 6.79846e-12 -3.54204e-06 -2.16602e-08 6.85787e-07)
(-6.51627e-06 6.20014e-12 3.88711e-12 9.81452e-07 -9.6239e-08 6.22951e-08)
(-6.45723e-06 4.83012e-12 4.62168e-12 6.9305e-07 -9.67386e-08 1.86878e-07)
(-6.50089e-06 2.90672e-12 4.7583e-12 6.38051e-07 -9.54465e-08 3.084e-07)
(-6.55366e-06 7.34586e-13 4.83141e-12 5.69602e-07 -9.07518e-08 4.22677e-07)
(-6.637e-06 -2.92045e-12 4.84131e-12 4.90433e-07 -8.04239e-08 5.235e-07)
(-6.81888e-06 -9.15094e-12 4.76968e-12 4.36035e-07 -6.27578e-08 6.0225e-07)
(-7.20548e-06 -1.48418e-11 4.62032e-12 3.1714e-07 -3.85967e-08 6.49843e-07)
(-6.82558e-06 -3.82176e-11 4.41027e-12 -3.53167e-06 -1.21308e-08 6.60817e-07)
(-6.50921e-06 6.33582e-12 1.27904e-12 9.76698e-07 -3.23087e-08 6.36989e-08)
(-6.45041e-06 4.94818e-12 1.53315e-12 6.88091e-07 -3.25161e-08 1.89011e-07)
(-6.49361e-06 3.0004e-12 1.59373e-12 6.3259e-07 -3.20842e-08 3.0986e-07)
(-6.54568e-06 8.0186e-13 1.636e-12 5.64606e-07 -3.03618e-08 4.21857e-07)
(-6.6282e-06 -2.8963e-12 1.66052e-12 4.8741e-07 -2.66348e-08 5.18568e-07)
(-6.80931e-06 -9.17221e-12 1.65927e-12 4.35906e-07 -2.05332e-08 5.92402e-07)
(-7.19538e-06 -1.4914e-11 1.63891e-12 3.19125e-07 -1.25285e-08 6.36674e-07)
(-6.81625e-06 -3.83741e-11 1.59113e-12 -3.52692e-06 -3.92927e-09 6.47967e-07)
(-3.26867e-06 -1.26929e-07 -7.82874e-11 5.63116e-07 1.48296e-12 -7.21523e-06)
(-3.20396e-06 -2.33756e-08 -8.99039e-11 4.64472e-07 -1.22417e-13 -7.21814e-06)
(-3.24629e-06 8.32386e-09 -9.01216e-11 5.99349e-07 -8.76799e-13 -7.27221e-06)
(-3.29989e-06 1.40776e-08 -8.92173e-11 6.89523e-07 -1.47629e-12 -7.31811e-06)
(-3.35775e-06 5.65387e-09 -8.76453e-11 7.76115e-07 -2.03434e-12 -7.39748e-06)
(-3.42486e-06 -3.4244e-08 -8.54183e-11 9.21735e-07 -2.62062e-12 -7.58624e-06)
(-3.48587e-06 -1.26551e-07 -8.22662e-11 1.00401e-06 -2.95755e-12 -7.97905e-06)
(-2.99153e-06 -1.82435e-07 -7.94129e-11 -3.29566e-06 -3.49612e-12 -7.57968e-06)
(2.732e-07 -1.09937e-07 -6.71181e-11 5.66378e-07 6.01536e-13 -7.61997e-06)
(4.16872e-07 -2.39652e-08 -7.79345e-11 4.72546e-07 1.51491e-14 -7.65215e-06)
(4.01627e-07 1.77034e-09 -7.81515e-11 6.07986e-07 -2.55938e-13 -7.71574e-06)
(3.5438e-07 8.41655e-09 -7.74536e-11 7.33838e-07 -4.14447e-13 -7.77597e-06)
(3.37121e-07 2.78492e-09 -7.63358e-11 8.46432e-07 -5.48326e-13 -7.87817e-06)
(4.29202e-07 -2.44191e-08 -7.48683e-11 9.30482e-07 -6.91182e-13 -8.10262e-06)
(7.37066e-07 -7.12208e-08 -7.30355e-11 7.56222e-07 -8.16956e-13 -8.54845e-06)
(1.20152e-06 -9.14666e-08 -7.1523e-11 -3.77065e-06 -9.12981e-13 -8.09295e-06)
(2.61983e-07 1.02101e-07 -6.76995e-11 5.72507e-07 -9.40221e-13 -7.59547e-06)
(4.01631e-07 1.57556e-08 -7.85718e-11 4.79673e-07 -2.57973e-13 -7.62525e-06)
(3.86829e-07 -7.31718e-09 -7.88224e-11 6.13805e-07 2.60799e-13 -7.68806e-06)
(3.40261e-07 -1.14341e-08 -7.81126e-11 7.38459e-07 6.04893e-13 -7.74792e-06)
(3.23512e-07 -4.16389e-09 -7.696e-11 8.5011e-07 9.10979e-13 -7.84992e-06)
(4.15873e-07 2.39763e-08 -7.54235e-11 9.33426e-07 1.20836e-12 -8.07441e-06)
(7.22948e-07 7.14653e-08 -7.35038e-11 7.59492e-07 1.51046e-12 -8.52086e-06)
(1.18452e-06 9.33636e-08 -7.17489e-11 -3.75705e-06 1.635e-12 -8.06969e-06)
(-3.39508e-06 1.17946e-07 -7.80287e-11 5.91351e-07 -2.3295e-12 -7.1172e-06)
(-3.33316e-06 1.92966e-08 -8.9952e-11 4.8141e-07 -4.75024e-13 -7.11067e-06)
(-3.37359e-06 -1.03787e-08 -9.01635e-11 6.14001e-07 7.19357e-13 -7.1632e-06)
(-3.42414e-06 -1.507e-08 -8.92303e-11 7.02136e-07 1.51688e-12 -7.20877e-06)
(-3.47819e-06 -6.02218e-09 -8.7632e-11 7.86712e-07 2.21608e-12 -7.28837e-06)
(-3.54113e-06 3.39999e-08 -8.53508e-11 9.30546e-07 2.88669e-12 -7.47812e-06)
(-3.60253e-06 1.25868e-07 -8.21592e-11 1.01479e-06 3.45145e-12 -7.87326e-06)
(-3.13511e-06 1.82963e-07 -7.91252e-11 -3.24136e-06 3.96932e-12 -7.48474e-06)
(-6.99134e-06 4.38892e-12 4.96269e-11 5.91351e-07 -2.23524e-07 -3.48908e-06)
(-6.97748e-06 4.13193e-12 5.71928e-11 4.8141e-07 -1.07007e-07 -3.44773e-06)
(-7.03709e-06 3.42614e-12 5.71071e-11 6.14001e-07 -6.55123e-08 -3.47181e-06)
(-7.09362e-06 2.80073e-12 5.60036e-11 7.02136e-07 -5.49025e-08 -3.49663e-06)
(-7.18006e-06 1.0511e-12 5.40744e-11 7.86712e-07 -6.55236e-08 -3.53559e-06)
(-7.36594e-06 -2.58106e-12 5.11032e-11 9.30546e-07 -1.07818e-07 -3.61055e-06)
(-7.74763e-06 -6.11567e-12 4.62671e-11 1.01479e-06 -1.91337e-07 -3.70809e-06)
(-7.35651e-06 -2.63858e-11 4.11997e-11 -3.24136e-06 -2.23929e-07 -3.24045e-06)
(-7.38869e-06 4.42374e-12 2.49445e-11 8.68514e-07 -3.91465e-07 1.44232e-07)
(-7.32789e-06 3.80351e-12 2.95186e-11 6.01236e-07 -2.47587e-07 2.46756e-07)
(-7.37249e-06 2.86059e-12 2.94857e-11 6.4274e-07 -1.82555e-07 2.82127e-07)
(-7.43218e-06 1.77822e-12 2.88395e-11 6.97812e-07 -1.62237e-07 3.03479e-07)
(-7.52881e-06 -5.42292e-13 2.76705e-11 7.44583e-07 -1.81144e-07 3.34467e-07)
(-7.7325e-06 -4.91851e-12 2.58802e-11 7.80072e-07 -2.31057e-07 4.15056e-07)
(-8.15407e-06 -8.39138e-12 2.32937e-11 6.24568e-07 -2.6726e-07 6.27454e-07)
(-7.74773e-06 -3.13778e-11 2.10738e-11 -3.70966e-06 -1.91199e-07 1.01664e-06)
(-7.00831e-06 4.94939e-12 2.05047e-11 9.72304e-07 -3.25555e-07 1.09474e-07)
(-6.94721e-06 3.94397e-12 2.40792e-11 6.83824e-07 -2.77246e-07 2.33857e-07)
(-6.9908e-06 2.55014e-12 2.41644e-11 6.75219e-07 -2.38809e-07 3.17191e-07)
(-7.04775e-06 1.00852e-12 2.37544e-11 6.75737e-07 -2.24136e-07 3.86244e-07)
(-7.13843e-06 -1.86882e-12 2.28999e-11 6.55331e-07 -2.33996e-07 4.68162e-07)
(-7.33051e-06 -6.90407e-12 2.15138e-11 6.07975e-07 -2.49843e-07 5.96529e-07)
(-7.73499e-06 -1.09219e-11 1.95573e-11 4.17156e-07 -2.26194e-07 7.83817e-07)
(-7.36699e-06 -3.60579e-11 1.7358e-11 -3.61143e-06 -1.0584e-07 9.33941e-07)
(-6.84317e-06 5.3327e-12 1.4726e-11 1.01048e-06 -2.72614e-07 6.33269e-08)
(-6.77772e-06 4.08341e-12 1.73292e-11 7.16601e-07 -2.58542e-07 1.83128e-07)
(-6.82169e-06 2.36958e-12 1.74335e-11 6.83576e-07 -2.41526e-07 2.91307e-07)