/*--------------------------------*- C++ -*----------------------------------*\
| =========                 |                                                 |
| \\      /  F ield         | OpenFOAM: The Open Source CFD Toolbox           |
|  \\    /   O peration     | Version:  v1912                                 |
|   \\  /    A nd           | Website:  www.openfoam.com                      |
|    \\/     M anipulation  |                                                 |
\*---------------------------------------------------------------------------*/
FoamFile
{
    version     2.0;
    format      ascii;
    class       pointVectorField;
    location    "0.06/solid";
    object      pointD;
}
// * * * * * * * * * * * * * * * * * * * * * * * * * * * * * * * * * * * * * //

dimensions      [0 1 0 0 0 0 0];


internalField   nonuniform List<vector> 
405
(
(2.17564e-08 -2.17404e-10 2.09526e-08)
(-2.95561e-09 -8.8209e-10 4.05655e-08)
(-9.35195e-11 7.64715e-11 4.35819e-08)
(2.62924e-09 -8.87772e-10 4.00097e-08)
(-2.3282e-08 1.79402e-10 2.01369e-08)
(2.96847e-08 6.48156e-09 2.12e-08)
(-8.00627e-09 3.79606e-09 7.08854e-08)
(-4.67387e-10 4.93218e-09 7.73282e-08)
(6.74593e-09 4.00605e-09 6.95245e-08)
(-3.25704e-08 7.32226e-09 1.95819e-08)
(2.69024e-08 2.08815e-08 2.41861e-09)
(-1.03259e-08 1.67163e-08 5.20166e-08)
(-1.04833e-09 1.69767e-08 5.86632e-08)
(7.86369e-09 1.7328e-08 5.02911e-08)
(-3.09379e-08 2.21986e-08 2.15515e-10)
(2.78472e-08 3.67014e-08 -1.41121e-08)
(-1.02635e-08 3.26284e-08 3.56016e-08)
(-1.66021e-09 3.30624e-08 4.20385e-08)
(6.59251e-09 3.35622e-08 3.37124e-08)
(-3.30149e-08 3.84511e-08 -1.65882e-08)
(2.89935e-08 5.3626e-08 -2.99369e-08)
(-1.00121e-08 5.05429e-08 2.04361e-08)
(-2.30113e-09 5.17278e-08 2.70519e-08)
(5.07242e-09 5.17325e-08 1.84895e-08)
(-3.53657e-08 5.57499e-08 -3.25128e-08)
(2.81459e-08 7.15679e-08 -4.60723e-08)
(-1.14569e-08 7.00258e-08 5.6707e-09)
(-2.98396e-09 7.21784e-08 1.27446e-08)
(5.15907e-09 7.14198e-08 3.73442e-09)
(-3.58232e-08 7.40098e-08 -4.86368e-08)
(2.22966e-08 9.22604e-08 -6.38075e-08)
(-1.70484e-08 9.1784e-08 -9.67782e-09)
(-3.71297e-09 9.39796e-08 -2.08894e-09)
(9.28398e-09 9.33404e-08 -1.15529e-08)
(-3.14322e-08 9.49746e-08 -6.62805e-08)
(6.60602e-09 1.18051e-07 -8.59403e-08)
(-2.75338e-08 1.15681e-07 -3.19306e-08)
(-4.48669e-09 1.14725e-07 -2.44727e-08)
(1.81751e-08 1.17405e-07 -3.36803e-08)
(-1.75467e-08 1.21065e-07 -8.8254e-08)
(-1.93738e-08 1.02617e-07 -1.15272e-07)
(-3.39457e-08 8.18817e-08 -9.5234e-08)
(-4.99525e-09 7.67232e-08 -8.96444e-08)
(2.35314e-08 8.40678e-08 -9.65394e-08)
(7.7072e-09 1.06051e-07 -1.17227e-07)
(4.21728e-08 4.77651e-09 -4.74544e-09)
(0 0 0)
(0 0 0)
(0 0 0)
(-4.38081e-08 5.31678e-09 -5.01457e-09)
(8.30559e-08 1.62664e-08 -1.85414e-08)
(-3.65525e-09 1.68608e-08 -2.23672e-08)
(-2.62047e-10 1.63197e-08 -2.08272e-08)
(2.84418e-09 1.733e-08 -2.28161e-08)
(-8.67709e-08 1.75352e-08 -1.94325e-08)
(8.22533e-08 3.05344e-08 -3.62213e-08)
(-4.53922e-09 3.04856e-08 -4.16113e-08)
(-7.04058e-10 3.05293e-08 -4.03126e-08)
(2.80728e-09 3.12437e-08 -4.23421e-08)
(-8.68813e-08 3.21974e-08 -3.76621e-08)
(8.35935e-08 4.62387e-08 -5.3049e-08)
(-4.31515e-09 4.6186e-08 -5.87157e-08)
(-1.23807e-09 4.6635e-08 -5.76768e-08)
(1.52801e-09 4.71847e-08 -5.95933e-08)
(-8.92156e-08 4.83056e-08 -5.47822e-08)
(8.50305e-08 6.2798e-08 -6.93672e-08)
(-4.255e-09 6.39912e-08 -7.48175e-08)
(-1.84419e-09 6.51052e-08 -7.37407e-08)
(2.6893e-10 6.51967e-08 -7.57526e-08)
(-9.17651e-08 6.52436e-08 -7.12246e-08)
(8.498e-08 7.96089e-08 -8.61392e-08)
(-5.94441e-09 8.37578e-08 -9.12466e-08)
(-2.5217e-09 8.58071e-08 -8.99697e-08)
(6.11985e-10 8.51406e-08 -9.21808e-08)
(-9.29548e-08 8.23993e-08 -8.80069e-08)
(8.09434e-08 9.72993e-08 -1.04248e-07)
(-1.17592e-08 1.05009e-07 -1.09046e-07)
(-3.26587e-09 1.07197e-07 -1.0759e-07)
(4.92987e-09 1.06546e-07 -1.09942e-07)
(-9.03549e-08 1.00413e-07 -1.06047e-07)
(6.49022e-08 1.16877e-07 -1.21775e-07)
(-2.23749e-08 1.21983e-07 -1.26454e-07)
(-4.06633e-09 1.20998e-07 -1.25041e-07)
(1.38935e-08 1.23716e-07 -1.273e-07)
(-7.62986e-08 1.2037e-07 -1.23472e-07)
(6.27055e-09 8.11134e-08 -1.31702e-07)
(-2.79816e-08 2.74295e-08 -1.31974e-07)
(-4.94161e-09 2.04131e-08 -1.30599e-07)
(1.77095e-08 3.00734e-08 -1.32827e-07)
(-1.79001e-08 8.49986e-08 -1.33168e-07)
(4.74547e-08 9.5397e-09 -3.31054e-09)
(0 0 0)
(0 0 0)
(0 0 0)
(-4.88803e-08 1.00054e-08 -3.47646e-09)
(9.65166e-08 2.51641e-08 -1.44911e-08)
(4.95184e-09 2.05603e-08 -2.0536e-08)
(-1.49924e-10 1.89901e-08 -2.17813e-08)
(-5.47696e-09 2.10535e-08 -2.08327e-08)
(-9.96621e-08 2.63075e-08 -1.5072e-08)
(9.88639e-08 3.86806e-08 -3.05428e-08)
(6.42199e-09 3.72691e-08 -3.85515e-08)
(-4.89311e-10 3.68185e-08 -4.04092e-08)
(-7.65127e-09 3.80394e-08 -3.90594e-08)
(-1.02684e-07 4.02551e-08 -3.15351e-08)
(1.00251e-07 5.42355e-08 -4.66555e-08)
(6.77453e-09 5.41505e-08 -5.49377e-08)
(-9.49382e-10 5.45043e-08 -5.70097e-08)
(-8.91344e-09 5.51502e-08 -5.55712e-08)
(-1.04923e-07 5.62396e-08 -4.79017e-08)
(1.01338e-07 7.03712e-08 -6.23179e-08)
(6.59588e-09 7.17637e-08 -7.04117e-08)
(-1.51168e-09 7.29191e-08 -7.24751e-08)
(-9.84934e-09 7.29681e-08 -7.1104e-08)
(-1.0704e-07 7.27832e-08 -6.36942e-08)
(1.01055e-07 8.5544e-08 -7.76904e-08)
(4.71655e-09 8.99058e-08 -8.55222e-08)
(-2.1706e-09 9.20316e-08 -8.74829e-08)
(-9.28188e-09 9.12966e-08 -8.62256e-08)
(-1.07958e-07 8.834e-08 -7.91037e-08)
(9.68447e-08 9.91258e-08 -9.2124e-08)
(-1.29543e-09 1.0708e-07 -9.96909e-08)
(-2.91595e-09 1.09339e-07 -1.0154e-07)
(-4.77316e-09 1.08647e-07 -1.00376e-07)
(-1.05176e-07 1.02299e-07 -9.35097e-08)
(8.05311e-08 1.11185e-07 -1.02084e-07)
(-1.22002e-08 1.16414e-07 -1.0942e-07)
(-3.73276e-09 1.15392e-07 -1.11209e-07)
(4.43909e-09 1.18212e-07 -1.10088e-07)
(-9.0869e-08 1.14807e-07 -1.03423e-07)
(2.1536e-08 7.08127e-08 -1.05855e-07)
(-1.79417e-08 1.70139e-08 -1.08088e-07)
(-4.64125e-09 9.87953e-09 -1.09894e-07)
(8.32074e-09 1.98042e-08 -1.08794e-07)
(-3.2295e-08 7.48882e-08 -1.07043e-07)
(4.78683e-08 1.15494e-08 -3.13437e-09)
(0 0 0)
(0 0 0)
(0 0 0)
(-4.92795e-08 1.19403e-08 -3.25171e-09)
(9.92273e-08 2.91258e-08 -1.32408e-08)
(9.32858e-09 2.18662e-08 -1.63746e-08)
(-7.56448e-11 1.97602e-08 -1.7619e-08)
(-9.68273e-09 2.23238e-08 -1.65972e-08)
(-1.02258e-07 3.01186e-08 -1.36484e-08)
(1.03838e-07 4.26027e-08 -2.74042e-08)
(1.24562e-08 4.02044e-08 -3.18009e-08)
(-3.40465e-10 3.93985e-08 -3.3566e-08)
(-1.33618e-08 4.09347e-08 -3.21783e-08)
(-1.07389e-07 4.40399e-08 -2.81066e-08)
(1.0547e-07 5.80067e-08 -4.16308e-08)
(1.30328e-08 5.78407e-08 -4.62704e-08)
(-7.38293e-10 5.8101e-08 -4.81904e-08)
(-1.47258e-08 5.88097e-08 -4.67462e-08)
(-1.09757e-07 5.99087e-08 -4.25337e-08)
(1.06206e-07 7.32869e-08 -5.53642e-08)
(1.26663e-08 7.48921e-08 -5.98691e-08)
(-1.25693e-09 7.60948e-08 -6.17836e-08)
(-1.53895e-08 7.60821e-08 -6.03986e-08)
(-1.11445e-07 7.56425e-08 -5.63871e-08)
(1.05466e-07 8.63536e-08 -6.80965e-08)
(1.05558e-08 9.09855e-08 -7.2369e-08)
(-1.89158e-09 9.32079e-08 -7.42136e-08)
(-1.4545e-08 9.23843e-08 -7.2918e-08)
(-1.11862e-07 8.9147e-08 -6.91721e-08)
(1.00755e-07 9.65172e-08 -7.85493e-08)
(4.32024e-09 1.04728e-07 -8.25866e-08)
(-2.63085e-09 1.07103e-07 -8.43442e-08)
(-9.80338e-09 1.06331e-07 -8.31347e-08)
(-1.0857e-07 9.97487e-08 -7.9629e-08)
(8.42831e-08 1.05091e-07 -8.41812e-08)
(-6.76196e-09 1.10613e-07 -8.80704e-08)
(-3.45856e-09 1.09772e-07 -8.97732e-08)
(-4.3864e-10 1.12475e-07 -8.86199e-08)
(-9.41125e-08 1.0883e-07 -8.52505e-08)
(2.70862e-08 6.51082e-08 -8.5073e-08)
(-1.27172e-08 1.36883e-08 -8.64273e-08)
(-4.39597e-09 7.07878e-09 -8.82517e-08)
(3.59995e-09 1.65723e-08 -8.70158e-08)
(-3.73358e-08 6.93272e-08 -8.60458e-08)
(4.75743e-08 1.20975e-08 -2.91767e-09)
(0 0 0)
(0 0 0)
(0 0 0)
(-4.90021e-08 1.24407e-08 -3.00109e-09)
(9.92476e-08 3.03577e-08 -1.18168e-08)
(1.04983e-08 2.22866e-08 -1.27722e-08)
(-2.71938e-11 1.99665e-08 -1.33923e-08)
(-1.07493e-08 2.27093e-08 -1.29366e-08)
(-1.0226e-07 3.12408e-08 -1.21039e-08)
(1.04684e-07 4.39736e-08 -2.37493e-08)
(1.42566e-08 4.11581e-08 -2.51779e-08)
(-2.40252e-10 4.0183e-08 -2.60722e-08)
(-1.4956e-08 4.18438e-08 -2.54539e-08)
(-1.08119e-07 4.52912e-08 -2.42439e-08)
(1.06481e-07 5.91168e-08 -3.54439e-08)
(1.49835e-08 5.89033e-08 -3.69907e-08)
(-5.90287e-10 5.91123e-08 -3.79711e-08)
(-1.63771e-08 5.98353e-08 -3.73398e-08)
(-1.10563e-07 6.09195e-08 -3.60869e-08)
(1.07002e-07 7.35055e-08 -4.64847e-08)
(1.45164e-08 7.52589e-08 -4.79503e-08)
(-1.07134e-09 7.64951e-08 -4.89251e-08)
(-1.68672e-08 7.6429e-08 -4.83436e-08)
(-1.11967e-07 7.57997e-08 -4.72264e-08)
(1.05909e-07 8.50233e-08 -5.62063e-08)
(1.22302e-08 8.9858e-08 -5.75123e-08)
(-1.68195e-09 9.21543e-08 -5.84396e-08)
(-1.5801e-08 9.12588e-08 -5.79272e-08)
(-1.11989e-07 8.78028e-08 -5.70021e-08)
(1.0085e-07 9.34266e-08 -6.34954e-08)
(5.84063e-09 1.01828e-07 -6.46491e-08)
(-2.4121e-09 1.04311e-07 -6.55174e-08)
(-1.08889e-08 1.03457e-07 -6.50719e-08)
(-1.08333e-07 9.66956e-08 -6.43108e-08)
(8.42884e-08 1.00915e-07 -6.69861e-08)
(-5.3234e-09 1.06716e-07 -6.80727e-08)
(-3.24603e-09 1.06088e-07 -6.89143e-08)
(-1.45566e-09 1.08627e-07 -6.85046e-08)
(-9.37909e-08 1.04739e-07 -6.78085e-08)
(2.7918e-08 6.15584e-08 -6.69347e-08)
(-1.1467e-08 1.14759e-08 -6.71061e-08)
(-4.205e-09 5.34646e-09 -6.80733e-08)
(2.73046e-09 1.4427e-08 -6.757e-08)
(-3.7817e-08 6.58828e-08 -6.76935e-08)
(4.72017e-08 1.20962e-08 -2.3567e-09)
(0 0 0)
(0 0 0)
(0 0 0)
(-4.86435e-08 1.24099e-08 -2.41325e-09)
(9.85305e-08 3.04257e-08 -9.38937e-09)
(1.04748e-08 2.2307e-08 -9.47741e-09)
(2.44336e-12 1.99364e-08 -9.69108e-09)
(-1.06634e-08 2.27051e-08 -9.5914e-09)
(-1.0154e-07 3.12364e-08 -9.58348e-09)
(1.04029e-07 4.40569e-08 -1.86116e-08)
(1.42944e-08 4.11779e-08 -1.87574e-08)
(-1.76516e-10 4.01533e-08 -1.90686e-08)
(-1.48641e-08 4.1829e-08 -1.89485e-08)
(-1.07396e-07 4.52876e-08 -1.89462e-08)
(1.05824e-07 5.88997e-08 -2.74587e-08)
(1.50474e-08 5.86978e-08 -2.76124e-08)
(-4.92602e-10 5.88932e-08 -2.79551e-08)
(-1.62452e-08 5.95986e-08 -2.78548e-08)
(-1.09776e-07 6.06237e-08 -2.78967e-08)
(1.06215e-07 7.26317e-08 -3.56052e-08)
(1.45284e-08 7.44725e-08 -3.57065e-08)
(-9.44799e-10 7.5731e-08 -3.60428e-08)
(-1.66273e-08 7.56234e-08 -3.5982e-08)
(-1.10997e-07 7.48721e-08 -3.61166e-08)
(1.04918e-07 8.33028e-08 -4.25076e-08)
(1.21484e-08 8.82509e-08 -4.25215e-08)
(-1.53533e-09 9.05927e-08 -4.28305e-08)
(-1.54286e-08 8.9649e-08 -4.2816e-08)
(-1.10779e-07 8.60631e-08 -4.30643e-08)
(9.96808e-08 9.10364e-08 -4.74334e-08)
(5.68541e-09 9.95452e-08 -4.73717e-08)
(-2.25642e-09 1.021e-07 -4.7649e-08)
(-1.0426e-08 1.0119e-07 -4.76762e-08)
(-1.06929e-07 9.43247e-08 -4.80124e-08)
(8.30925e-08 9.83186e-08 -4.97179e-08)
(-5.5063e-09 1.04295e-07 -4.96345e-08)
(-3.09328e-09 1.03812e-07 -4.99035e-08)
(-9.71216e-10 1.06239e-07 -4.99495e-08)
(-9.23626e-08 1.02198e-07 -5.03092e-08)
(2.70931e-08 5.93579e-08 -4.95008e-08)
(-1.17665e-08 9.93796e-09 -4.91317e-08)
(-4.0668e-09 4.11327e-09 -4.94818e-08)
(3.30454e-09 1.29344e-08 -4.94699e-08)
(-3.67417e-08 6.37539e-08 -5.00506e-08)
(4.69375e-08 1.19762e-08 -1.61879e-09)
(0 0 0)
(0 0 0)
(0 0 0)
(-4.83877e-08 1.22721e-08 -1.65346e-09)
(9.7899e-08 3.01665e-08 -6.40792e-09)
(1.0249e-08 2.21757e-08 -6.3038e-09)
(1.94095e-11 1.98128e-08 -6.35278e-09)
(-1.04009e-08 2.25581e-08 -6.37472e-09)
(-1.00906e-07 3.0932e-08 -6.52702e-09)
(1.03251e-07 4.36901e-08 -1.2627e-08)
(1.39709e-08 4.08693e-08 -1.2464e-08)
(-1.38607e-10 3.98461e-08 -1.25326e-08)
(-1.44626e-08 4.14974e-08 -1.25831e-08)
(-1.06576e-07 4.48642e-08 -1.28327e-08)
(1.04967e-07 5.82691e-08 -1.85154e-08)
(1.46879e-08 5.81076e-08 -1.83182e-08)
(-4.32685e-10 5.83082e-08 -1.83911e-08)
(-1.57648e-08 5.89864e-08 -1.84699e-08)
(-1.08837e-07 5.99391e-08 -1.87859e-08)
(1.05273e-07 7.16079e-08 -2.38373e-08)
(1.41356e-08 7.34989e-08 -2.36043e-08)
(-8.65231e-10 7.4772e-08 -2.3671e-08)
(-1.60755e-08 7.46349e-08 -2.37778e-08)
(-1.09936e-07 7.38087e-08 -2.41555e-08)
(1.03875e-07 8.18999e-08 -2.82386e-08)
(1.17151e-08 8.69011e-08 -2.79644e-08)
(-1.44139e-09 8.92666e-08 -2.80179e-08)
(-1.48084e-08 8.8295e-08 -2.81515e-08)
(-1.09591e-07 8.46429e-08 -2.85883e-08)
(9.85617e-08 8.94463e-08 -3.13091e-08)
(5.22661e-09 9.80021e-08 -3.10045e-08)
(-2.15542e-09 1.00595e-07 -3.10446e-08)
(-9.76696e-09 9.96546e-08 -3.11999e-08)
(-1.05653e-07 9.27431e-08 -3.16763e-08)
(8.1974e-08 9.676e-08 -3.27355e-08)
(-5.96922e-09 1.02819e-07 -3.24282e-08)
(-2.99348e-09 1.02409e-07 -3.24676e-08)
(-3.10478e-10 1.04782e-07 -3.26317e-08)
(-9.1088e-08 1.00673e-07 -3.31133e-08)
(2.61656e-08 5.80218e-08 -3.25819e-08)
(-1.22831e-08 8.90627e-09 -3.21759e-08)
(-3.97609e-09 3.2274e-09 -3.22551e-08)
(4.00238e-09 1.19317e-08 -3.23943e-08)
(-3.56472e-08 6.24631e-08 -3.29351e-08)
(4.67967e-08 1.18835e-08 -8.18237e-10)
(0 0 0)
(0 0 0)
(0 0 0)
(-4.82512e-08 1.21697e-08 -8.34601e-10)
(9.75407e-08 2.99339e-08 -3.22912e-09)
(1.00994e-08 2.20432e-08 -3.15444e-09)
(2.79291e-11 1.96959e-08 -3.15897e-09)
(-1.02325e-08 2.2417e-08 -3.18825e-09)
(-1.00546e-07 3.06749e-08 -3.28543e-09)
(1.02773e-07 4.33351e-08 -6.34569e-09)
(1.37395e-08 4.05732e-08 -6.22457e-09)
(-1.19e-10 3.95617e-08 -6.22832e-09)
(-1.41904e-08 4.11884e-08 -6.2815e-09)
(-1.06075e-07 4.4478e-08 -6.44314e-09)
(1.04419e-07 5.77378e-08 -9.27666e-09)
(1.44185e-08 5.76117e-08 -9.12876e-09)
(-4.01029e-10 5.78208e-08 -9.13014e-09)
(-1.5431e-08 5.8478e-08 -9.20146e-09)
(-1.08244e-07 5.93774e-08 -9.40514e-09)
(1.04673e-07 7.08797e-08 -1.18981e-08)
(1.3845e-08 7.27979e-08 -1.17312e-08)
(-8.2253e-10 7.40796e-08 -1.17288e-08)
(-1.5699e-08 7.3925e-08 -1.18147e-08)
(-1.0927e-07 7.30574e-08 -1.20498e-08)
(1.03229e-07 8.10284e-08 -1.40393e-08)
(1.14086e-08 8.60515e-08 -1.38563e-08)
(-1.39044e-09 8.84275e-08 -1.38488e-08)
(-1.44001e-08 8.74424e-08 -1.39467e-08)
(-1.08865e-07 8.37605e-08 -1.42067e-08)
(9.7888e-08 8.8546e-08 -1.55198e-08)
(4.91361e-09 9.71183e-08 -1.53271e-08)
(-2.10032e-09 9.9726e-08 -1.53153e-08)
(-9.34428e-09 9.87746e-08 -1.54221e-08)
(-1.04892e-07 9.18466e-08 -1.56965e-08)
(8.13073e-08 9.59198e-08 -1.62126e-08)
(-6.27971e-09 1.02008e-07 -1.60214e-08)
(-2.93901e-09 1.01627e-07 -1.60106e-08)
(1.08437e-10 1.03982e-07 -1.61208e-08)
(-9.03344e-08 9.98518e-08 -1.6395e-08)
(2.55982e-08 5.72982e-08 -1.61453e-08)
(-1.26118e-08 8.3082e-09 -1.59149e-08)
(-3.92675e-09 2.68353e-09 -1.59188e-08)
(4.4301e-09 1.13502e-08 -1.60216e-08)
(-3.49877e-08 6.17652e-08 -1.63167e-08)
(3.52168e-08 1.3063e-08 0)
(3.571e-09 6.22862e-09 0)
(3.41534e-11 4.73839e-09 0)
(-3.58427e-09 6.35508e-09 0)
(-3.62506e-08 1.33879e-08 0)
(5.69312e-08 2.71325e-08 0)
(1.00526e-08 2.19907e-08 0)
(3.04764e-11 1.96496e-08 0)
(-1.01799e-08 2.23616e-08 0)
(-5.85917e-08 2.77845e-08 0)
(6.21713e-08 4.24089e-08 0)
(1.36648e-08 4.04579e-08 0)
(-1.13043e-10 3.94517e-08 0)
(-1.41031e-08 4.10691e-08 0)
(-6.41443e-08 4.34311e-08 0)
(6.34941e-08 5.74869e-08 0)
(1.43294e-08 5.74265e-08 0)
(-3.91308e-10 5.76391e-08 0)
(-1.53221e-08 5.82888e-08 0)
(-6.60008e-08 5.89436e-08 0)
(6.33096e-08 7.10859e-08 0)
(1.37484e-08 7.25492e-08 0)
(-8.09328e-10 7.38338e-08 0)
(-1.55757e-08 7.36735e-08 0)
(-6.66161e-08 7.30104e-08 0)
(6.1029e-08 8.22353e-08 0)
(1.13077e-08 8.57647e-08 0)
(-1.37462e-09 8.81437e-08 0)
(-1.42675e-08 8.71546e-08 0)
(-6.54193e-08 8.46403e-08 0)
(5.39084e-08 9.14434e-08 0)
(4.8116e-09 9.68303e-08 0)
(-2.08323e-09 9.9442e-08 0)
(-9.20818e-09 9.84879e-08 0)
(-5.97098e-08 9.43381e-08 0)
(3.73092e-08 9.91319e-08 0)
(-6.38023e-09 1.01747e-07 0)
(-2.92219e-09 1.01373e-07 0)
(2.42507e-10 1.03725e-07 0)
(-4.50248e-08 1.02589e-07 0)
(1.1386e-08 7.31474e-08 0)
(-1.28443e-08 5.49189e-08 0)
(-3.64203e-09 5.05898e-08 0)
(5.22669e-09 5.75244e-08 0)
(-2.01012e-08 7.72181e-08 0)
)
;

boundaryField
{
    interface
    {
        type            calculated;
    }
    symmetry
    {
        type            symmetry;
    }
    bottom
    {
        type            calculated;
    }
}


// ************************************************************************* //
