/*--------------------------------*- C++ -*----------------------------------*\
| =========                 |                                                 |
| \\      /  F ield         | OpenFOAM: The Open Source CFD Toolbox           |
|  \\    /   O peration     | Version:  v1912                                 |
|   \\  /    A nd           | Website:  www.openfoam.com                      |
|    \\/     M anipulation  |                                                 |
\*---------------------------------------------------------------------------*/
FoamFile
{
    version     2.0;
    format      ascii;
    class       pointVectorField;
    location    "0.06/solid";
    object      pointDD;
}
// * * * * * * * * * * * * * * * * * * * * * * * * * * * * * * * * * * * * * //

dimensions      [0 1 0 0 0 0 0];


internalField   nonuniform List<vector> 
405
(
(-5.95041e-10 3.24858e-09 6.34622e-11)
(1.11678e-09 2.29044e-09 -3.67736e-09)
(1.46938e-10 1.68598e-09 -4.99399e-09)
(-7.89078e-10 2.33483e-09 -3.51694e-09)
(1.47356e-09 2.98537e-09 4.70984e-10)
(5.87618e-11 2.46565e-09 2.94567e-09)
(3.08271e-09 2.59942e-09 -4.6047e-09)
(6.14591e-10 1.72571e-09 -7.25061e-09)
(-1.77405e-09 2.43174e-09 -4.06941e-09)
(1.87617e-09 1.71364e-09 3.92796e-09)
(1.19819e-09 -2.15922e-09 7.93082e-09)
(4.2159e-09 -1.52383e-09 3.46105e-10)
(1.28906e-09 -1.99681e-09 -2.2295e-09)
(-1.5502e-09 -2.16637e-09 1.22823e-09)
(2.02229e-09 -3.58662e-09 9.51165e-09)
(1.52256e-09 -6.5077e-09 1.18848e-08)
(4.71326e-09 -5.90379e-09 4.41866e-09)
(2.03511e-09 -6.38878e-09 1.97362e-09)
(-5.62617e-10 -6.94925e-09 5.51851e-09)
(3.12271e-09 -8.53649e-09 1.38412e-08)
(1.99301e-09 -1.07479e-08 1.54093e-08)
(5.26377e-09 -1.04124e-08 8.05136e-09)
(2.86356e-09 -1.11013e-08 5.67826e-09)
(5.38952e-10 -1.1807e-08 9.29346e-09)
(4.26299e-09 -1.33206e-08 1.76133e-08)
(3.04938e-09 -1.49191e-08 1.8919e-08)
(6.20889e-09 -1.4906e-08 1.17081e-08)
(3.78294e-09 -1.58413e-08 9.39231e-09)
(1.43015e-09 -1.66192e-08 1.30436e-08)
(5.01162e-09 -1.79999e-08 2.12871e-08)
(5.17702e-09 -1.91637e-08 2.28811e-08)
(7.90221e-09 -1.93448e-08 1.59334e-08)
(4.79796e-09 -2.0371e-08 1.37443e-08)
(1.76179e-09 -2.13565e-08 1.73257e-08)
(4.87057e-09 -2.27266e-08 2.53482e-08)
(9.2561e-09 -2.46028e-08 2.80613e-08)
(1.04895e-08 -2.45173e-08 2.22805e-08)
(5.90844e-09 -2.51422e-08 2.05323e-08)
(1.38072e-09 -2.68024e-08 2.37111e-08)
(2.92886e-09 -2.86159e-08 3.05824e-08)
(1.31212e-08 -2.59218e-08 3.25484e-08)
(1.2114e-08 -2.40164e-08 3.05972e-08)
(6.60878e-09 -2.3685e-08 2.97837e-08)
(1.14919e-09 -2.64349e-08 3.20472e-08)
(2.55826e-10 -2.99742e-08 3.49729e-08)
(-4.71324e-09 7.50015e-10 1.72126e-09)
(0 0 0)
(0 0 0)
(0 0 0)
(5.6487e-09 3.26432e-10 1.99707e-09)
(-8.96489e-09 -6.17356e-10 6.08835e-09)
(0 0 0)
(0 0 0)
(0 0 0)
(1.13191e-08 -1.79795e-09 7.01088e-09)
(-8.3761e-09 -4.73905e-09 1.08747e-08)
(0 0 0)
(0 0 0)
(0 0 0)
(1.17914e-08 -6.56781e-09 1.24102e-08)
(-8.08538e-09 -8.71493e-09 1.48358e-08)
(0 0 0)
(0 0 0)
(0 0 0)
(1.27728e-08 -1.1153e-08 1.67763e-08)
(-7.51509e-09 -1.2642e-08 1.83264e-08)
(0 0 0)
(0 0 0)
(0 0 0)
(1.37074e-08 -1.56539e-08 2.05426e-08)
(-6.23275e-09 -1.64537e-08 2.17121e-08)
(0 0 0)
(0 0 0)
(0 0 0)
(1.41532e-08 -2.00132e-08 2.41167e-08)
(-3.67785e-09 -2.01219e-08 2.53444e-08)
(0 0 0)
(0 0 0)
(0 0 0)
(1.35196e-08 -2.42062e-08 2.78697e-08)
(1.76286e-09 -2.45762e-08 2.91185e-08)
(0 0 0)
(0 0 0)
(0 0 0)
(1.01394e-08 -2.9152e-08 3.17113e-08)
(9.63894e-09 -2.36324e-08 3.15434e-08)
(1.09955e-08 -1.8224e-08 3.19343e-08)
(6.41225e-09 -1.69684e-08 3.20864e-08)
(1.88665e-09 -2.06408e-08 3.32639e-08)
(3.31047e-09 -2.78879e-08 3.38521e-08)
(-7.24024e-09 -9.31327e-10 9.69829e-10)
(0 0 0)
(0 0 0)
(0 0 0)
(8.1265e-09 -1.28623e-09 1.15671e-09)
(-1.46167e-08 -3.66338e-09 4.16052e-09)
(0 0 0)
(0 0 0)
(0 0 0)
(1.67307e-08 -4.71469e-09 4.81615e-09)
(-1.4705e-08 -7.29014e-09 8.43981e-09)
(0 0 0)
(0 0 0)
(0 0 0)
(1.7631e-08 -9.00219e-09 9.5811e-09)
(-1.44681e-08 -1.0977e-08 1.22932e-08)
(0 0 0)
(0 0 0)
(0 0 0)
(1.84794e-08 -1.33088e-08 1.37857e-08)
(-1.38267e-08 -1.46374e-08 1.57112e-08)
(0 0 0)
(0 0 0)
(0 0 0)
(1.92052e-08 -1.75571e-08 1.74583e-08)
(-1.23853e-08 -1.801e-08 1.89094e-08)
(0 0 0)
(0 0 0)
(0 0 0)
(1.93931e-08 -2.1495e-08 2.08396e-08)
(-9.45874e-09 -2.08912e-08 2.20093e-08)
(0 0 0)
(0 0 0)
(0 0 0)
(1.83197e-08 -2.49209e-08 2.40641e-08)
(-3.17024e-09 -2.41714e-08 2.46175e-08)
(0 0 0)
(0 0 0)
(0 0 0)
(1.40453e-08 -2.8714e-08 2.67443e-08)
(6.07576e-09 -2.18153e-08 2.60757e-08)
(8.93241e-09 -1.52485e-08 2.67537e-08)
(5.83173e-09 -1.35678e-08 2.7328e-08)
(2.7985e-09 -1.76545e-08 2.78363e-08)
(5.77986e-09 -2.60577e-08 2.79624e-08)
(-8.12567e-09 -1.56789e-09 9.06842e-10)
(0 0 0)
(0 0 0)
(0 0 0)
(8.95756e-09 -1.8389e-09 1.03563e-09)
(-1.68155e-08 -4.99828e-09 3.70131e-09)
(0 0 0)
(0 0 0)
(0 0 0)
(1.87273e-08 -5.87075e-09 4.15982e-09)
(-1.7434e-08 -8.71473e-09 7.38952e-09)
(0 0 0)
(0 0 0)
(0 0 0)
(1.99797e-08 -1.02412e-08 8.20602e-09)
(-1.72945e-08 -1.23984e-08 1.08082e-08)
(0 0 0)
(0 0 0)
(0 0 0)
(2.07697e-08 -1.45599e-08 1.19051e-08)
(-1.66166e-08 -1.58955e-08 1.38731e-08)
(0 0 0)
(0 0 0)
(0 0 0)
(2.13316e-08 -1.86697e-08 1.5189e-08)
(-1.50715e-08 -1.88771e-08 1.66257e-08)
(0 0 0)
(0 0 0)
(0 0 0)
(2.13171e-08 -2.22452e-08 1.81087e-08)
(-1.19282e-08 -2.11658e-08 1.90389e-08)
(0 0 0)
(0 0 0)
(0 0 0)
(1.99549e-08 -2.51076e-08 2.06416e-08)
(-5.25786e-09 -2.39341e-08 2.08449e-08)
(0 0 0)
(0 0 0)
(0 0 0)
(1.52503e-08 -2.84163e-08 2.25184e-08)
(4.43286e-09 -2.12489e-08 2.17731e-08)
(7.74809e-09 -1.44316e-08 2.23186e-08)
(5.36085e-09 -1.26456e-08 2.28458e-08)
(3.03968e-09 -1.68221e-08 2.31612e-08)
(6.49994e-09 -2.54579e-08 2.32523e-08)
(-8.48824e-09 -1.78113e-09 8.02385e-10)
(0 0 0)
(0 0 0)
(0 0 0)
(9.27466e-09 -1.99102e-09 8.893e-10)
(-1.77095e-08 -5.53312e-09 3.1682e-09)
(0 0 0)
(0 0 0)
(0 0 0)
(1.94681e-08 -6.26166e-09 3.48067e-09)
(-1.85666e-08 -9.43752e-09 6.2056e-09)
(0 0 0)
(0 0 0)
(0 0 0)
(2.08352e-08 -1.07943e-08 6.77077e-09)
(-1.851e-08 -1.32107e-08 9.01726e-09)
(0 0 0)
(0 0 0)
(0 0 0)
(2.1589e-08 -1.5205e-08 9.79224e-09)
(-1.78338e-08 -1.66436e-08 1.15375e-08)
(0 0 0)
(0 0 0)
(0 0 0)
(2.20461e-08 -1.92686e-08 1.24872e-08)
(-1.62435e-08 -1.94113e-08 1.37323e-08)
(0 0 0)
(0 0 0)
(0 0 0)
(2.18985e-08 -2.26552e-08 1.48231e-08)
(-1.30053e-08 -2.14307e-08 1.55422e-08)
(0 0 0)
(0 0 0)
(0 0 0)
(2.03734e-08 -2.52739e-08 1.67385e-08)
(-6.17569e-09 -2.40577e-08 1.68479e-08)
(0 0 0)
(0 0 0)
(0 0 0)
(1.5461e-08 -2.84642e-08 1.81076e-08)
(3.75968e-09 -2.12488e-08 1.75039e-08)
(7.24717e-09 -1.4301e-08 1.78431e-08)
(4.99322e-09 -1.24902e-08 1.81918e-08)
(2.80022e-09 -1.66664e-08 1.84703e-08)
(6.43701e-09 -2.54065e-08 1.86136e-08)
(-8.62656e-09 -1.84304e-09 6.22663e-10)
(0 0 0)
(0 0 0)
(0 0 0)
(9.38033e-09 -2.01299e-09 6.78925e-10)
(-1.80214e-08 -5.73456e-09 2.43949e-09)
(0 0 0)
(0 0 0)
(0 0 0)
(1.96748e-08 -6.3629e-09 2.6436e-09)
(-1.89417e-08 -9.78226e-09 4.75101e-09)
(0 0 0)
(0 0 0)
(0 0 0)
(2.10225e-08 -1.10105e-08 5.12481e-09)
(-1.89271e-08 -1.36449e-08 6.88147e-09)
(0 0 0)
(0 0 0)
(0 0 0)
(2.17331e-08 -1.55041e-08 7.40225e-09)
(-1.8268e-08 -1.70786e-08 8.78093e-09)
(0 0 0)
(0 0 0)
(0 0 0)
(2.2126e-08 -1.95773e-08 9.4302e-09)
(-1.66734e-08 -1.97773e-08 1.04052e-08)
(0 0 0)
(0 0 0)
(0 0 0)
(2.1903e-08 -2.29112e-08 1.11629e-08)
(-1.34128e-08 -2.17237e-08 1.17092e-08)
(0 0 0)
(0 0 0)
(0 0 0)
(2.02977e-08 -2.5475e-08 1.2551e-08)
(-6.53588e-09 -2.43427e-08 1.26502e-08)
(0 0 0)
(0 0 0)
(0 0 0)
(1.52938e-08 -2.86736e-08 1.3543e-08)
(3.51459e-09 -2.14804e-08 1.31297e-08)
(7.04715e-09 -1.44574e-08 1.33288e-08)
(4.72025e-09 -1.26368e-08 1.35337e-08)
(2.44922e-09 -1.6795e-08 1.37693e-08)
(6.13099e-09 -2.5583e-08 1.3914e-08)
(-8.68134e-09 -1.85858e-09 4.16115e-10)
(0 0 0)
(0 0 0)
(0 0 0)
(9.41416e-09 -2.00407e-09 4.49569e-10)
(-1.81269e-08 -5.80874e-09 1.63055e-09)
(0 0 0)
(0 0 0)
(0 0 0)
(1.97142e-08 -6.37322e-09 1.75279e-09)
(-1.90484e-08 -9.94024e-09 3.17559e-09)
(0 0 0)
(0 0 0)
(0 0 0)
(2.10116e-08 -1.10821e-08 3.40158e-09)
(-1.90476e-08 -1.38667e-08 4.59796e-09)
(0 0 0)
(0 0 0)
(0 0 0)
(2.168e-08 -1.56308e-08 4.91649e-09)
(-1.84037e-08 -1.73276e-08 5.86071e-09)
(0 0 0)
(0 0 0)
(0 0 0)
(2.20321e-08 -1.97336e-08 6.2629e-09)
(-1.68199e-08 -2.00276e-08 6.93112e-09)
(0 0 0)
(0 0 0)
(0 0 0)
(2.17686e-08 -2.30779e-08 7.40615e-09)
(-1.35647e-08 -2.19783e-08 7.78371e-09)
(0 0 0)
(0 0 0)
(0 0 0)
(2.01252e-08 -2.56571e-08 8.31658e-09)
(-6.68184e-09 -2.46224e-08 8.40444e-09)
(0 0 0)
(0 0 0)
(0 0 0)
(1.50804e-08 -2.88912e-08 8.97269e-09)
(3.41571e-09 -2.17377e-08 8.72833e-09)
(6.94951e-09 -1.46685e-08 8.84366e-09)
(4.53357e-09 -1.28364e-08 8.9565e-09)
(2.1696e-09 -1.69823e-08 9.1225e-09)
(5.85192e-09 -2.57936e-08 9.22677e-09)
(-8.70407e-09 -1.86239e-09 2.06938e-10)
(0 0 0)
(0 0 0)
(0 0 0)
(9.42545e-09 -1.99479e-09 2.2249e-10)
(-1.81653e-08 -5.83604e-09 8.11863e-10)
(0 0 0)
(0 0 0)
(0 0 0)
(1.97169e-08 -6.36548e-09 8.68942e-10)
(-1.90786e-08 -1.0008e-08 1.58275e-09)
(0 0 0)
(0 0 0)
(0 0 0)
(2.09783e-08 -1.11009e-08 1.68889e-09)
(-1.90804e-08 -1.39708e-08 2.29279e-09)
(0 0 0)
(0 0 0)
(0 0 0)
(2.16179e-08 -1.56795e-08 2.44347e-09)
(-1.84452e-08 -1.74572e-08 2.92197e-09)
(0 0 0)
(0 0 0)
(0 0 0)
(2.19462e-08 -1.98076e-08 3.1137e-09)
(-1.68715e-08 -2.01753e-08 3.45363e-09)
(0 0 0)
(0 0 0)
(0 0 0)
(2.16622e-08 -2.31741e-08 3.68177e-09)
(-1.36254e-08 -2.21449e-08 3.87667e-09)
(0 0 0)
(0 0 0)
(0 0 0)
(2.00011e-08 -2.57781e-08 4.13411e-09)
(-6.74623e-09 -2.48117e-08 4.18675e-09)
(0 0 0)
(0 0 0)
(0 0 0)
(1.4938e-08 -2.90407e-08 4.46217e-09)
(3.36774e-09 -2.19198e-08 4.35138e-09)
(6.89486e-09 -1.48249e-08 4.40628e-09)
(4.42573e-09 -1.29827e-08 4.45705e-09)
(2.00618e-09 -1.71232e-08 4.54118e-09)
(5.68133e-09 -2.59454e-08 4.59288e-09)
(-6.39121e-09 -2.07235e-09 0)
(-6.06516e-10 -1.17859e-09 0)
(-1.46043e-11 -1.12845e-09 0)
(5.99088e-10 -1.24391e-09 0)
(6.87929e-09 -2.22288e-09 0)
(-1.03238e-08 -5.42403e-09 0)
(-1.70787e-09 -4.87488e-09 0)
(5.91334e-12 -4.81517e-09 0)
(1.77522e-09 -5.14911e-09 0)
(1.11554e-08 -5.88713e-09 0)
(-1.12196e-08 -9.90931e-09 0)
(-2.28783e-09 -9.75425e-09 0)
(1.49779e-10 -9.86229e-09 0)
(2.65829e-09 -1.03225e-08 0)
(1.23802e-08 -1.08706e-08 0)
(-1.12501e-08 -1.40511e-08 0)
(-2.24424e-09 -1.42538e-08 0)
(4.47575e-10 -1.46291e-08 0)
(3.21634e-09 -1.51285e-08 0)
(1.30283e-08 -1.55487e-08 0)
(-1.07054e-08 -1.77062e-08 0)
(-1.78221e-09 -1.82883e-08 0)
(9.10234e-10 -1.89627e-08 0)
(3.68489e-09 -1.94789e-08 0)
(1.3428e-08 -1.97619e-08 0)
(-9.31457e-09 -2.07091e-08 0)
(-7.27698e-10 -2.18013e-08 0)
(1.54289e-09 -2.27889e-08 0)
(3.89983e-09 -2.3313e-08 0)
(1.33138e-08 -2.33312e-08 0)
(-6.35969e-09 -2.31072e-08 0)
(1.39106e-09 -2.46561e-08 0)
(2.34402e-09 -2.57585e-08 0)
(3.38252e-09 -2.64867e-08 0)
(1.19473e-08 -2.62881e-08 0)
(-6.34664e-10 -2.58552e-08 0)
(4.72375e-09 -2.67878e-08 0)
(3.30383e-09 -2.72699e-08 0)
(1.95631e-09 -2.89201e-08 0)
(8.07322e-09 -2.9568e-08 0)
(4.98817e-09 -2.41018e-08 0)
(6.76757e-09 -2.1281e-08 0)
(4.10612e-09 -2.03086e-08 0)
(1.49986e-09 -2.35656e-08 0)
(3.58592e-09 -2.79246e-08 0)
)
;

boundaryField
{
    interface
    {
        type            calculated;
    }
    symmetry
    {
        type            symmetry;
    }
    bottom
    {
        type            calculated;
    }
}


// ************************************************************************* //
