/*--------------------------------*- C++ -*----------------------------------*\
| =========                 |                                                 |
| \\      /  F ield         | OpenFOAM: The Open Source CFD Toolbox           |
|  \\    /   O peration     | Version:  v1912                                 |
|   \\  /    A nd           | Website:  www.openfoam.com                      |
|    \\/     M anipulation  |                                                 |
\*---------------------------------------------------------------------------*/
FoamFile
{
    version     2.0;
    format      ascii;
    class       volScalarField;
    location    "0.06/solid";
    object      sigmaEq;
}
// * * * * * * * * * * * * * * * * * * * * * * * * * * * * * * * * * * * * * //

dimensions      [1 -1 -2 0 0 0 0];


internalField   nonuniform List<scalar> 
256
(
616484
670291
667930
625438
592320
677870
674875
598878
617503
691449
688362
623570
636945
703455
700362
642636
657546
720641
717545
662790
691216
749541
746398
695938
718024
777311
774017
723055
102534
768287
763637
92631.2
659250
174723
176526
678761
638491
136692
138486
656780
648305
126065
127709
666163
661539
133269
134758
678810
677413
143633
144960
693885
698814
133034
134169
714350
715225
77396.9
77739.9
730760
718641
777501
774148
723473
649165
174823
176894
668370
638276
179563
181723
656240
648309
176750
178728
665949
659048
178681
180518
676214
671478
181080
182798
687931
687912
165300
166908
703472
699619
133057
134054
715032
692314
749564
746309
696616
639328
168477
170427
658751
630454
194136
196199
648814
641232
197842
199766
659405
650352
198098
199922
668158
659965
196826
198565
677138
672685
179049
180691
689025
679869
142999
144098
696087
660043
720564
717287
664587
633301
160203
162040
652901
624661
190855
192844
643336
635442
196170
198073
654036
643587
195360
197200
661891
651561
191996
193776
669291
662167
171918
173629
679118
667099
131125
132295
683968
643471
704326
700986
648134
628833
153052
154816
648532
620012
183616
185553
638862
630418
188346
190235
649251
637940
186732
188584
656531
645044
182428
184239
663100
654608
161064
162828
671923
658625
117730
118925
675889
633708
696045
692638
638348
625744
147867
149591
645492
616746
177751
179658
635683
626799
181731
183611
645750
633942
179692
181549
652677
640611
175150
176977
658834
649718
153330
155126
667222
653398
108781
109978
670870
627665
691990
688533
632234
624166
145117
146825
643935
615085
174690
176583
634057
624953
178315
180191
643952
631919
176135
177995
650713
638409
171595
173429
656700
647349
149668
151477
664931
650921
104607
105801
668480
624690
690292
686810
629207
)
;

boundaryField
{
    interface
    {
        type            calculated;
        value           nonuniform List<scalar> 
192
(
979901
963213
989813
1.01032e+06
1.03463e+06
1.08053e+06
1.14245e+06
588963
1.19006e+06
1.16442e+06
1.17693e+06
1.1928e+06
1.21517e+06
1.25732e+06
1.32647e+06
1.14289e+06
1.13731e+06
1.11222e+06
1.12389e+06
1.13817e+06
1.15779e+06
1.1951e+06
1.2582e+06
1.08151e+06
1.11072e+06
1.08405e+06
1.09556e+06
1.10855e+06
1.12581e+06
1.15956e+06
1.21795e+06
1.03711e+06
1.09951e+06
1.07262e+06
1.08379e+06
1.09578e+06
1.1115e+06
1.14315e+06
1.19916e+06
1.0169e+06
1.09352e+06
1.06688e+06
1.07771e+06
1.08902e+06
1.1038e+06
1.13432e+06
1.18928e+06
1.00614e+06
1.09e+06
1.06356e+06
1.07414e+06
1.08503e+06
1.09929e+06
1.12927e+06
1.18379e+06
999845
1.0883e+06
1.06196e+06
1.07241e+06
1.08311e+06
1.09714e+06
1.12689e+06
1.18127e+06
996823
1.03693e+06
1.02395e+06
1.04886e+06
1.0669e+06
1.08903e+06
1.13368e+06
1.19733e+06
685404
1.23785e+06
1.24571e+06
1.265e+06
1.28101e+06
1.30483e+06
1.35281e+06
1.43014e+06
1.23959e+06
1.23372e+06
1.24096e+06
1.26012e+06
1.27607e+06
1.29985e+06
1.34779e+06
1.42507e+06
1.23418e+06
1.02773e+06
1.01155e+06
1.03631e+06
1.05434e+06
1.07645e+06
1.12112e+06
1.18497e+06
662947
1.01301e+06
994666
1.02033e+06
1.0398e+06
1.06287e+06
1.1074e+06
1.16975e+06
635976
1.22291e+06
1.19535e+06
1.20731e+06
1.22233e+06
1.24342e+06
1.28395e+06
1.35266e+06
1.17003e+06
1.17031e+06
1.14336e+06
1.15459e+06
1.16813e+06
1.18654e+06
1.22224e+06
1.28473e+06
1.108e+06
1.14469e+06
1.11633e+06
1.12753e+06
1.13988e+06
1.15601e+06
1.1882e+06
1.24596e+06
1.06469e+06
1.13419e+06
1.10573e+06
1.11669e+06
1.12812e+06
1.14277e+06
1.17291e+06
1.22832e+06
1.04534e+06
1.12863e+06
1.10049e+06
1.11116e+06
1.12195e+06
1.1357e+06
1.16475e+06
1.21913e+06
1.03509e+06
1.12534e+06
1.09744e+06
1.10789e+06
1.11828e+06
1.13153e+06
1.16006e+06
1.21402e+06
1.02907e+06
1.12375e+06
1.09595e+06
1.10629e+06
1.11649e+06
1.12952e+06
1.15784e+06
1.21166e+06
1.02617e+06
685566
1.19784e+06
1.13463e+06
1.09115e+06
1.0724e+06
1.06294e+06
1.05751e+06
1.05489e+06
1.23962e+06
1.43021e+06
1.35276e+06
1.3049e+06
1.28264e+06
1.27237e+06
1.26758e+06
1.26562e+06
1.2342e+06
1.42509e+06
1.34764e+06
1.29975e+06
1.27746e+06
1.26715e+06
1.26233e+06
1.26035e+06
663076
1.18532e+06
1.1217e+06
1.07796e+06
1.05895e+06
1.04924e+06
1.04361e+06
1.04087e+06
)
;
    }
    symmetry
    {
        type            symmetry;
    }
    bottom
    {
        type            calculated;
        value           nonuniform List<scalar> 
32
(
649828
687039
678337
669821
663996
659408
656197
654558
684435
191981
178977
166724
156580
149056
143864
141133
682052
194093
181205
168758
158482
150884
145651
142902
660246
708096
698865
690376
684628
680081
676885
675251
)
;
    }
}


// ************************************************************************* //
