/*--------------------------------*- C++ -*----------------------------------*\
| =========                 |                                                 |
| \\      /  F ield         | OpenFOAM: The Open Source CFD Toolbox           |
|  \\    /   O peration     | Version:  v1912                                 |
|   \\  /    A nd           | Website:  www.openfoam.com                      |
|    \\/     M anipulation  |                                                 |
\*---------------------------------------------------------------------------*/
FoamFile
{
    version     2.0;
    format      ascii;
    class       volVectorField;
    location    "0.37/solid";
    object      heatFlux;
}
// * * * * * * * * * * * * * * * * * * * * * * * * * * * * * * * * * * * * * //

dimensions      [1 0 -3 0 0 0 0];


internalField   nonuniform List<vector> 
256
(
(-76998.1 53708.2 -82241.9)
(-11731.2 28610.8 -77714.8)
(11388.4 28470.5 -76880.9)
(73637.2 53123.7 -79597)
(-76180.8 4546.97 -81554.8)
(-13506.5 2555.74 -78431.2)
(13124.4 2541.32 -77540)
(72640.6 4502.27 -78745.2)
(-77494.3 933.709 -82920.9)
(-13736.8 485.991 -79791.9)
(13334.9 479.978 -78861.9)
(73870.8 905.852 -80002.6)
(-79518.6 1168.23 -84967.5)
(-13960.2 598.777 -81775.3)
(13544.3 595.418 -80824.4)
(75826.3 1148.42 -81988)
(-82605 2035.62 -88069.5)
(-14309.6 1115.29 -84872.7)
(13884.6 1113.57 -83910.2)
(78866.3 2026.17 -85055.7)
(-87472.4 4845.92 -92983.3)
(-14882.3 3337 -90015.9)
(14455.2 3332.39 -89045.1)
(83728.9 4845.57 -89946.1)
(-94778.6 22238.2 -100509)
(-15823.1 20238.2 -98500.7)
(15393.1 20150.5 -97518.2)
(91117.9 22023.7 -97439.6)
(-96907.7 103499 -103471)
(-16970 104055 -104034)
(16240.7 103086 -103070)
(93335.8 100492 -100483)
(-69392 26053.5 -14823.3)
(-9999.56 4371.48 -12207)
(9923.75 4384.77 -12132.5)
(66036.5 25900.7 -14615.1)
(-70094 2370.84 -17106.4)
(-11669.2 488.254 -14279.4)
(11605.5 490.445 -14190.8)
(66618.6 2373.48 -16857.2)
(-71418.4 481.727 -17372.2)
(-11879.9 69.4702 -14518.6)
(11809 68.4064 -14426.3)
(67858.4 465.872 -17113.6)
(-73383.8 609.662 -17608.7)
(-12082.5 74.8859 -14729.3)
(12001.9 73.5386 -14635.4)
(69741 591.649 -17347.4)
(-76471.9 1127.93 -17976.2)
(-12416.1 206.654 -15075.9)
(12325.7 205.237 -14981.5)
(72752.5 1112.3 -17717.2)
(-81584 3300.2 -18585.3)
(-13005.2 1634 -15700.6)
(12907.5 1628.23 -15606.6)
(77807.9 3286.15 -18334)
(-89874.2 19693.6 -19688.3)
(-14088 16966.7 -16964.8)
(13977.9 16873.4 -16872.2)
(86117.4 19450.9 -19450.8)
(-94804 100558 -22231.3)
(-15825.5 98536.8 -20235.2)
(15391.7 97544.4 -20148.6)
(91115.2 97454.5 -22023.3)
(-61206.8 21778.6 -2571.05)
(-9040.38 2124.46 -1101.84)
(8980.3 2147.28 -1096.9)
(57896.6 21651.5 -2552.44)
(-62005.8 1998.01 -2997.79)
(-10590.9 244.129 -1345.38)
(10546.7 247.547 -1339.25)
(58580.9 2003.77 -2975.23)
(-63261.1 431.383 -3035.24)
(-10790.8 36.1277 -1367.78)
(10739.9 35.3183 -1361.44)
(59751 415.574 -3012.28)
(-65149.9 564.216 -3055.97)
(-10987 41.4648 -1380.88)
(10926.1 40.1379 -1374.49)
(61551.3 544.728 -3033.47)
(-68164.1 1059.07 -3083.86)
(-11314.9 143.975 -1402.66)
(11243.2 142.365 -1396.33)
(64473.7 1039.66 -3062.97)
(-73233.8 3133.85 -3129.54)
(-11903.7 1448.12 -1447.84)
(11821.8 1441.77 -1441.72)
(69456.3 3112 -3112.36)
(-81616 18592.1 -3295.68)
(-13007 15703.6 -1633.64)
(12907.1 15608.5 -1628.13)
(77806 18334.3 -3286.49)
(-87531.5 93061.2 -4837.18)
(-14887.3 90074.7 -3333.67)
(14452.5 89086.9 -3330.31)
(83724.1 89969.7 -4844.94)
(-56325.1 20484.7 -913.199)
(-8525.41 1924.27 -111.893)
(8473.16 1948.62 -110.726)
(53083.9 20373.1 -899.888)
(-57097.6 1906.65 -1037.48)
(-10010.7 222.318 -136.198)
(9975.63 225.904 -134.765)
(53745.4 1913.64 -1021.84)
(-58319.8 423.545 -1045.46)
(-10206.2 33.97 -138.01)
(10164.5 33.1685 -136.558)
(54882.9 407.634 -1029.67)
(-60180.3 561.035 -1046.96)
(-10401 40.002 -138.529)
(10349.3 38.6528 -137.083)
(56652.2 540.964 -1031.35)
(-63168 1054.36 -1047.74)
(-10728.5 139.689 -139.389)
(10665.4 138.006 -137.967)
(59540.4 1033.41 -1032.75)
(-68208.1 3088.38 -1052.32)
(-11317.4 1403.02 -143.664)
(11243 1396.42 -142.319)
(64476.8 3062.63 -1038.94)
(-76549.8 17986 -1120.5)
(-12420.5 15080.8 -206.084)
(12325.1 14984.8 -205.016)
(72753.8 17718.3 -1111.43)
(-82713.5 88193.4 -2020.77)
(-14318.6 84967.3 -1109.21)
(13880.5 83978.6 -1109.35)
(78864.1 85095.9 -2023.03)
(-53453 19827.9 -484.887)
(-8237.9 1876.37 -32.8398)
(8192.31 1901.79 -32.0262)
(50263 19729.7 -474.47)
(-54209.6 1865.75 -544.969)
(-9688.18 218.012 -38.8102)
(9661.04 221.715 -37.8084)
(50911.3 1873.98 -532.568)
(-55418.9 421.909 -547.608)
(-9881.94 33.7959 -39.09)
(9848.28 33.0011 -38.0728)
(52036.5 406.066 -535.005)
(-57270.6 561.934 -546.783)
(-10077.1 40.0858 -38.9918)
(10033.3 38.7289 -37.9762)
(53795.5 541.655 -534.223)
(-60248.5 1053.71 -545.64)
(-10405.1 138.841 -38.8908)
(10349.9 137.129 -37.885)
(56669.6 1032.07 -533.341)
(-65264.5 3061.1 -548.139)
(-10993.7 1381.43 -40.2577)
(10926.5 1374.72 -39.2861)
(61572.8 3033.31 -536.636)
(-73537.1 17623.7 -591.32)
(-12091.5 14738.1 -72.5412)
(12001.7 14641.5 -71.6999)
(69761.7 17350.2 -582.195)
(-79707.4 85169.4 -1132)
(-13975.8 81934 -581.43)
(13538.7 80943.5 -581.159)
(75841.7 82063.2 -1129.55)
(-51732.4 19454.8 -273.651)
(-8072.55 1852.62 -16.808)
(8031.53 1878.78 -16.2631)
(48572.2 19366 -266.804)
(-52481.6 1843.92 -306.123)
(-9503.51 216.068 -19.6644)
(9481.87 219.858 -18.9895)
(49215 1853.1 -297.873)
(-53686.1 421.731 -307.105)
(-9696.62 33.7885 -19.7551)
(9668.56 33.0006 -19.0677)
(50335.7 405.98 -298.679)
(-55535 563.002 -306.177)
(-9892.24 40.2012 -19.6579)
(9854.06 38.8407 -18.9708)
(52091.1 542.628 -297.757)
(-58507.5 1053 -305.363)
(-10220.8 138.423 -19.5677)
(10171 136.696 -18.8861)
(54957.2 1031 -297.079)
(-63502.4 3042.7 -307.624)
(-10808.5 1369.37 -20.3142)
(10746.6 1362.61 -19.6505)
(59833.9 3013.78 -299.779)
(-71710.1 17402.1 -335.291)
(-11900.9 14539.7 -38.2708)
(11815.4 14442.9 -37.6679)
(67946.6 17125.4 -328.775)
(-77825.9 83270.8 -658.163)
(-13767.8 80080.6 -330.346)
(13332.3 79088.9 -329.967)
(73948.6 80157.9 -655.381)
(-50744.9 19248.1 -141.618)
(-7980.52 1839.9 -8.46143)
(7942.31 1866.54 -8.15029)
(47600.9 19165 -137.764)
(-51490.6 1832.3 -157.983)
(-9401.05 215.065 -9.86352)
(9382.83 218.911 -9.47676)
(48241.4 1842.11 -153.302)
(-52693.1 421.855 -158.347)
(-9593.9 33.8024 -9.8978)
(9569.36 33.0198 -9.50298)
(49360.6 406.182 -153.547)
(-54541.1 563.676 -157.759)
(-9789.88 40.2732 -9.83981)
(9755.21 38.9105 -9.44508)
(51114.5 543.255 -152.956)
(-57509.8 1052.26 -157.373)
(-10118.7 138.185 -9.79309)
(10072.3 136.449 -9.40159)
(53975.4 1030.05 -152.641)
(-62488.9 3031.17 -158.961)
(-10705.7 1362.72 -10.189)
(10647.1 1355.94 -9.80672)
(58833.2 3001.62 -154.457)
(-70649.4 17273.1 -174.474)
(-11793.9 14428 -19.4194)
(11711.2 14331.2 -19.0637)
(66892.2 16994.6 -170.652)
(-76711.9 82142.2 -347.567)
(-13647.6 78995.6 -172.53)
(13213.7 78003.1 -172.251)
(72827.2 79024.8 -345.638)
(-50291.8 19155.2 -43.9239)
(-7939.08 1834.29 -2.59207)
(7902.23 1861.16 -2.49098)
(47154.9 19074.9 -42.6808)
(-51035.9 1827.2 -48.933)
(-9355.01 214.631 -3.01662)
(9338.43 218.505 -2.89075)
(47794.5 1837.32 -47.4172)
(-52237.8 421.955 -49.0269)
(-9547.77 33.8122 -3.02564)
(9524.91 33.0323 -2.89696)
(48913.1 406.326 -47.4689)
(-54085.4 563.976 -48.833)
(-9743.93 40.3059 -3.00683)
(9710.95 38.9421 -2.87818)
(50666.5 543.534 -47.2728)
(-57052.1 1051.8 -48.7266)
(-10072.8 138.074 -2.99292)
(10028.1 136.334 -2.86539)
(53524.7 1029.5 -47.19)
(-62022.8 3025.6 -49.2925)
(-10659.4 1359.74 -3.11789)
(10602.4 1352.95 -2.9933)
(58372.7 2995.77 -47.8289)
(-70158.8 17213.5 -54.2927)
(-11745.5 14377.3 -5.97344)
(11664.2 14280.5 -5.85635)
(66404.2 16934.2 -53.0416)
(-76191.3 81613 -108.932)
(-13592.4 78490.8 -53.8199)
(13159.2 77497.9 -53.7199)
(72302.7 78493.3 -108.262)
)
;

boundaryField
{
    interface
    {
        type            calculated;
        value           nonuniform List<vector> 
192
(
(-130664 53708.2 -82241.9)
(-125499 4546.97 -81554.8)
(-127673 933.709 -82920.9)
(-131280 1168.23 -84967.5)
(-136756 2035.62 -88069.5)
(-145347 4845.92 -92983.3)
(-158085 22238.2 -100509)
(-160217 103499 -103471)
(-118774 26053.5 -14823.3)
(-116834 2370.84 -17106.4)
(-119062 481.727 -17372.2)
(-122589 609.662 -17608.7)
(-128099 1127.93 -17976.2)
(-137147 3300.2 -18585.3)
(-151571 19693.6 -19688.3)
(-158133 100558 -22231.3)
(-104314 21778.6 -2571.05)
(-102803 1998.01 -2997.79)
(-104914 431.383 -3035.24)
(-108301 564.216 -3055.97)
(-113675 1059.07 -3083.86)
(-122639 3133.85 -3129.54)
(-137207 18592.1 -3295.68)
(-145457 93061.2 -4837.18)
(-95578.8 20484.7 -913.199)
(-94145.6 1906.65 -1037.48)
(-96199.4 423.545 -1045.46)
(-99531.9 561.035 -1046.96)
(-104854 1054.36 -1047.74)
(-113758 3088.38 -1052.32)
(-128247 17986 -1120.5)
(-136959 88193.4 -2020.77)
(-90408.6 19827.9 -484.887)
(-89013.5 1865.75 -544.969)
(-91045 421.909 -547.608)
(-94359.2 561.934 -546.783)
(-99660.4 1053.71 -545.64)
(-108517 3061.1 -548.139)
(-122878 17623.7 -591.32)
(-131632 85169.4 -1132)
(-87297.5 19454.8 -273.651)
(-85926 1843.92 -306.123)
(-87949.1 421.731 -307.105)
(-91257 563.002 -306.177)
(-96546.3 1053 -305.363)
(-105363 3042.7 -307.624)
(-119605 17402.1 -335.291)
(-128285 83270.8 -658.163)
(-85506.2 19248.1 -141.618)
(-84148.4 1832.3 -157.983)
(-86168 421.855 -158.347)
(-89473.4 563.676 -157.759)
(-94754.6 1052.26 -157.373)
(-103541 3031.17 -158.961)
(-117697 17273.1 -174.474)
(-126297 82142.2 -347.567)
(-84682.6 19155.2 -43.9239)
(-83331 1827.2 -48.933)
(-85349.4 421.955 -49.0269)
(-88653.6 563.976 -48.833)
(-93930.7 1051.8 -48.7266)
(-102701 3025.6 -49.2925)
(-116812 17213.5 -54.2927)
(-125366 81613 -108.932)
(-76998.1 53708.2 -138771)
(-76180.8 4546.97 -133513)
(-77494.3 933.709 -135776)
(-79518.6 1168.23 -139435)
(-82605 2035.62 -144957)
(-87472.4 4845.92 -153651)
(-94778.6 22238.2 -166745)
(-96907.7 103499 -169537)
(-11731.2 28610.8 -133039)
(-13506.5 2555.74 -130774)
(-13736.8 485.991 -133059)
(-13960.2 598.777 -136629)
(-14309.6 1115.29 -142173)
(-14882.3 3337 -151293)
(-15823.1 20238.2 -166022)
(-16970 104055 -172786)
(11388.4 28470.5 -131512)
(13124.4 2541.32 -129158)
(13334.9 479.978 -131372)
(13544.3 595.418 -134904)
(13884.6 1113.57 -140425)
(14455.2 3332.39 -149529)
(15393.1 20150.5 -164233)
(16240.7 103086 -171025)
(73637.2 53123.7 -133875)
(72640.6 4502.27 -128364)
(73870.8 905.852 -130428)
(75826.3 1148.42 -133970)
(78866.3 2026.17 -139421)
(83728.9 4845.57 -148058)
(91117.9 22023.7 -161070)
(93335.8 100492 -163987)
(124368 53123.7 -79597)
(118882 4502.27 -78745.2)
(120913 905.852 -80002.6)
(124401 1148.42 -81988)
(129798 2026.17 -85055.7)
(138381 4845.57 -89946.1)
(151275 22023.7 -97439.6)
(153849 100492 -100483)
(112236 25900.7 -14615.1)
(110042 2373.48 -16857.2)
(112114 465.872 -17113.6)
(115492 591.649 -17347.4)
(120866 1112.3 -17717.2)
(129812 3286.15 -18334)
(144280 19450.9 -19450.8)
(151271 97454.5 -22023.3)
(97851.8 21651.5 -2552.44)
(96094.8 2003.77 -2975.23)
(98048.1 415.574 -3012.28)
(101275 544.728 -3033.47)
(106484 1039.66 -3062.97)
(115291 3112 -3112.36)
(129809 18334.3 -3286.49)
(138375 89969.7 -4844.94)
(89242 20373.1 -899.888)
(87567.7 1913.64 -1021.84)
(89464.6 407.634 -1029.67)
(92632.4 540.964 -1031.35)
(97775 1033.41 -1032.75)
(106491 3062.63 -1038.94)
(120869 17718.3 -1111.43)
(129798 85095.9 -2023.03)
(84162.8 19729.7 -474.47)
(82529.9 1873.98 -532.568)
(84405.4 406.066 -535.005)
(87552.1 541.655 -534.223)
(92665.8 1032.07 -533.341)
(101317 3033.31 -536.636)
(115533 17350.2 -582.195)
(124437 82063.2 -1129.55)
(81103.6 19366 -266.804)
(79496.5 1853.1 -297.873)
(81364.1 405.98 -298.679)
(84502.7 542.628 -297.757)
(89599.6 1031 -297.079)
(98199.5 3013.78 -299.779)
(112276 17125.4 -328.775)
(121064 80157.9 -655.381)
(79339.9 19165 -137.764)
(77747.9 1842.11 -153.302)
(79612.7 406.182 -153.547)
(82747.7 543.255 -152.956)
(87833.7 1030.05 -152.641)
(96397.8 3001.62 -154.457)
(110376 16994.6 -170.652)
(119059 79024.8 -345.638)
(78528.2 19074.9 -42.6808)
(76943.1 1837.32 -47.4172)
(78807 406.326 -47.4689)
(81940.5 543.534 -47.2728)
(87021 1029.5 -47.19)
(95566.5 2995.77 -47.8289)
(109494 16934.2 -53.0416)
(118119 78493.3 -108.262)
(-96907.7 169586 -103471)
(-94804 166834 -22231.3)
(-87531.5 153797 -4837.18)
(-82713.5 145189 -2020.77)
(-79707.4 139814 -1132)
(-77825.9 136425 -658.163)
(-76711.9 134405 -347.567)
(-76191.3 133456 -108.932)
(-16970 172825 -104034)
(-15825.5 166091 -20235.2)
(-14887.3 151405 -3333.67)
(-14318.6 142352 -1109.21)
(-13975.8 136930 -581.43)
(-13767.8 133597 -330.346)
(-13647.6 131637 -172.53)
(-13592.4 130723 -53.8199)
(16240.7 171055 -103070)
(15391.7 164283 -20148.6)
(14452.5 149609 -3330.31)
(13880.5 140556 -1109.35)
(13538.7 135130 -581.159)
(13332.3 131795 -329.967)
(13213.7 129834 -172.251)
(13159.2 128919 -53.7199)
(93335.8 164004 -100483)
(91115.2 161099 -22023.3)
(83724.1 148104 -4844.94)
(78864.1 139499 -2023.03)
(75841.7 134114 -1129.55)
(73948.6 130717 -655.381)
(72827.2 128691 -345.638)
(72302.7 127738 -108.262)
)
;
    }
    symmetry
    {
        type            symmetry;
    }
    bottom
    {
        type            calculated;
        value           nonuniform List<vector> 
32
(
(-76998.1 99297.4 -82241.9)
(-69392 47871.5 -14823.3)
(-61206.8 40004.3 -2571.05)
(-56325.1 37587.3 -913.199)
(-53453 36351.5 -484.887)
(-51732.4 35647.7 -273.651)
(-50744.9 35256.9 -141.618)
(-50291.8 35081.2 -43.9239)
(-11731.2 52632.2 -77714.8)
(-9999.56 7851.83 -12207)
(-9040.38 3804.43 -1101.84)
(-8525.41 3444.47 -111.893)
(-8237.9 3356.86 -32.8398)
(-8072.55 3313.11 -16.808)
(-7980.52 3289.63 -8.46143)
(-7939.08 3279.26 -2.59207)
(11388.4 52372.8 -76880.9)
(9923.75 7873.22 -12132.5)
(8980.3 3842.83 -1096.9)
(8473.16 3485.61 -110.726)
(8192.31 3399.92 -32.0262)
(8031.53 3357.51 -16.2631)
(7942.31 3334.87 -8.15029)
(7902.23 3324.91 -2.49098)
(73637.2 98185.9 -79597)
(66036.5 47546.8 -14615.1)
(57896.6 39725.6 -2552.44)
(53083.9 37337.1 -899.888)
(50263 36126.1 -474.47)
(48572.2 35439.2 -266.804)
(47600.9 35058.9 -137.764)
(47154.9 34888.2 -42.6808)
)
;
    }
}


// ************************************************************************* //
