/*--------------------------------*- C++ -*----------------------------------*\
| =========                 |                                                 |
| \\      /  F ield         | OpenFOAM: The Open Source CFD Toolbox           |
|  \\    /   O peration     | Version:  v1912                                 |
|   \\  /    A nd           | Website:  www.openfoam.com                      |
|    \\/     M anipulation  |                                                 |
\*---------------------------------------------------------------------------*/
FoamFile
{
    version     2.0;
    format      ascii;
    class       pointVectorField;
    location    "0.37/solid";
    object      pointDD;
}
// * * * * * * * * * * * * * * * * * * * * * * * * * * * * * * * * * * * * * //

dimensions      [0 1 0 0 0 0 0];


internalField   nonuniform List<vector> 
405
(
(2.80234e-10 4.77099e-10 2.64253e-10)
(1.23703e-10 3.20793e-10 1.57298e-10)
(-3.35276e-12 2.62088e-10 1.18669e-10)
(-1.26264e-10 3.12488e-10 1.46478e-10)
(-2.58171e-10 4.61735e-10 2.47924e-10)
(5.57229e-10 5.537e-10 6.34858e-10)
(3.40151e-10 5.17145e-10 5.46127e-10)
(-9.27893e-12 4.24069e-10 4.60281e-10)
(-3.49087e-10 5.05363e-10 5.22204e-10)
(-5.25711e-10 5.38594e-10 6.05303e-10)
(7.09557e-10 2.13339e-10 1.0419e-09)
(4.42786e-10 2.40512e-10 9.44312e-10)
(-1.4225e-11 1.93111e-10 8.45434e-10)
(-4.60305e-10 2.37556e-10 9.16067e-10)
(-6.83626e-10 2.12499e-10 1.00404e-09)
(7.10814e-10 -1.18053e-10 1.36064e-09)
(4.39198e-10 -6.06483e-11 1.25747e-09)
(-1.97839e-11 -8.18493e-11 1.14833e-09)
(-4.67859e-10 -5.64321e-11 1.22569e-09)
(-6.94572e-10 -1.07531e-10 1.31724e-09)
(6.92997e-10 -4.18037e-10 1.66403e-09)
(4.195e-10 -3.67213e-10 1.55059e-09)
(-2.70512e-11 -3.89713e-10 1.42838e-09)
(-4.62646e-10 -3.57103e-10 1.51611e-09)
(-6.89854e-10 -3.98041e-10 1.61649e-09)
(7.27177e-10 -7.28181e-10 1.98856e-09)
(4.38308e-10 -7.05465e-10 1.85762e-09)
(-3.61264e-11 -7.42474e-10 1.72028e-09)
(-4.99494e-10 -6.90219e-10 1.82084e-09)
(-7.40625e-10 -6.99711e-10 1.93755e-09)
(8.83153e-10 -1.14784e-09 2.3629e-09)
(5.4613e-10 -1.14664e-09 2.20856e-09)
(-4.72399e-11 -1.1815e-09 2.05879e-09)
(-6.29155e-10 -1.12667e-09 2.16955e-09)
(-9.16221e-10 -1.11143e-09 2.3086e-09)
(1.21752e-09 -1.93545e-09 2.79835e-09)
(7.5008e-10 -1.90242e-09 2.6666e-09)
(-6.11069e-11 -1.87604e-09 2.52499e-09)
(-8.59323e-10 -1.87523e-09 2.62477e-09)
(-1.27064e-09 -1.88746e-09 2.74024e-09)
(1.43246e-09 -2.48052e-09 3.0574e-09)
(8.70673e-10 -2.39347e-09 2.98842e-09)
(-6.93029e-11 -2.28934e-09 2.88645e-09)
(-9.9516e-10 -2.3537e-09 2.95234e-09)
(-1.51138e-09 -2.41973e-09 3.00285e-09)
(1.28224e-10 2.33176e-10 1.18442e-10)
(0 0 0)
(0 0 0)
(0 0 0)
(-9.84707e-11 2.24305e-10 1.12981e-10)
(3.53696e-10 3.09e-10 4.30072e-10)
(0 0 0)
(0 0 0)
(0 0 0)
(-2.9418e-10 2.98582e-10 4.13432e-10)
(4.59337e-10 -1.40469e-11 7.84211e-10)
(0 0 0)
(0 0 0)
(0 0 0)
(-4.02316e-10 -1.11201e-11 7.58571e-10)
(4.5289e-10 -3.25602e-10 1.0915e-09)
(0 0 0)
(0 0 0)
(0 0 0)
(-4.02767e-10 -3.11508e-10 1.06027e-09)
(4.32315e-10 -6.11286e-10 1.38561e-09)
(0 0 0)
(0 0 0)
(0 0 0)
(-3.92862e-10 -5.87306e-10 1.35018e-09)
(4.58232e-10 -8.96437e-10 1.69533e-09)
(0 0 0)
(0 0 0)
(0 0 0)
(-4.33068e-10 -8.63319e-10 1.65629e-09)
(5.97907e-10 -1.2516e-09 2.03433e-09)
(0 0 0)
(0 0 0)
(0 0 0)
(-5.89684e-10 -1.20989e-09 1.99184e-09)
(9.51225e-10 -1.90818e-09 2.35154e-09)
(0 0 0)
(0 0 0)
(0 0 0)
(-9.57498e-10 -1.85471e-09 2.30565e-09)
(1.21593e-09 -2.35435e-09 2.52879e-09)
(7.47785e-10 -2.22133e-09 2.54758e-09)
(-6.31716e-11 -2.0775e-09 2.52341e-09)
(-8.61189e-10 -2.17533e-09 2.52367e-09)
(-1.27208e-09 -2.28922e-09 2.48699e-09)
(1.81394e-11 8.23488e-11 2.56279e-11)
(0 0 0)
(0 0 0)
(0 0 0)
(9.4251e-12 7.42671e-11 2.31509e-11)
(8.45785e-11 2.7608e-11 1.81593e-10)
(0 0 0)
(0 0 0)
(0 0 0)
(-2.80014e-11 1.8051e-11 1.72511e-10)
(1.30693e-10 -2.52482e-10 4.58226e-10)
(0 0 0)
(0 0 0)
(0 0 0)
(-7.37264e-11 -2.50015e-10 4.42083e-10)
(1.11371e-10 -5.28936e-10 7.44674e-10)
(0 0 0)
(0 0 0)
(0 0 0)
(-5.86406e-11 -5.16191e-10 7.23405e-10)
(8.58874e-11 -7.89292e-10 1.02131e-09)
(0 0 0)
(0 0 0)
(0 0 0)
(-4.15266e-11 -7.67082e-10 9.96006e-10)
(1.05895e-10 -1.03437e-09 1.29229e-09)
(0 0 0)
(0 0 0)
(0 0 0)
(-7.37283e-11 -1.00329e-09 1.26344e-09)
(2.40504e-10 -1.30054e-09 1.54078e-09)
(0 0 0)
(0 0 0)
(0 0 0)
(-2.23347e-10 -1.26121e-09 1.50867e-09)
(5.95325e-10 -1.79015e-09 1.69248e-09)
(0 0 0)
(0 0 0)
(0 0 0)
(-5.90891e-10 -1.73963e-09 1.65777e-09)
(8.78657e-10 -2.11806e-09 1.74049e-09)
(5.40698e-10 -1.96286e-09 1.7924e-09)
(-5.17891e-11 -1.81077e-09 1.82976e-09)
(-6.32705e-10 -1.91908e-09 1.77519e-09)
(-9.19018e-10 -2.05601e-09 1.70965e-09)
(-2.7847e-11 2.00064e-11 2.2107e-11)
(0 0 0)
(0 0 0)
(0 0 0)
(5.48974e-11 1.1287e-11 2.04098e-11)
(-3.47789e-11 -9.59877e-11 1.47311e-10)
(0 0 0)
(0 0 0)
(0 0 0)
(9.15286e-11 -1.07145e-10 1.41014e-10)
(-2.1225e-11 -3.70725e-10 3.75931e-10)
(0 0 0)
(0 0 0)
(0 0 0)
(8.08153e-11 -3.70403e-10 3.64375e-10)
(-4.39769e-11 -6.33823e-10 6.27381e-10)
(0 0 0)
(0 0 0)
(0 0 0)
(1.01758e-10 -6.23559e-10 6.11531e-10)
(-6.51277e-11 -8.66597e-10 8.72417e-10)
(0 0 0)
(0 0 0)
(0 0 0)
(1.16826e-10 -8.47036e-10 8.52945e-10)
(-3.98684e-11 -1.06168e-09 1.09568e-09)
(0 0 0)
(0 0 0)
(0 0 0)
(8.15489e-11 -1.03334e-09 1.07301e-09)
(9.95732e-11 -1.25269e-09 1.26729e-09)
(0 0 0)
(0 0 0)
(0 0 0)
(-7.08284e-11 -1.21619e-09 1.24182e-09)
(4.49392e-10 -1.65167e-09 1.33259e-09)
(0 0 0)
(0 0 0)
(0 0 0)
(-4.31693e-10 -1.6038e-09 1.3051e-09)
(7.15817e-10 -1.94493e-09 1.32075e-09)
(4.26464e-10 -1.81352e-09 1.35381e-09)
(-4.33824e-11 -1.67333e-09 1.39321e-09)
(-5.01835e-10 -1.7711e-09 1.34026e-09)
(-7.40979e-10 -1.88502e-09 1.29643e-09)
(-4.37902e-11 -8.94981e-13 2.77258e-11)
(0 0 0)
(0 0 0)
(0 0 0)
(7.07161e-11 -1.02889e-11 2.65182e-11)
(-7.65468e-11 -1.37544e-10 1.41401e-10)
(0 0 0)
(0 0 0)
(0 0 0)
(1.33787e-10 -1.50448e-10 1.36979e-10)
(-7.37301e-11 -4.11067e-10 3.28463e-10)
(0 0 0)
(0 0 0)
(0 0 0)
(1.35465e-10 -4.13076e-10 3.20303e-10)
(-9.43753e-11 -6.66369e-10 5.32232e-10)
(0 0 0)
(0 0 0)
(0 0 0)
(1.56187e-10 -6.58693e-10 5.20797e-10)
(-1.08747e-10 -8.77358e-10 7.29378e-10)
(0 0 0)
(0 0 0)
(0 0 0)
(1.66411e-10 -8.60463e-10 7.15005e-10)
(-7.63954e-11 -1.03681e-09 8.99061e-10)
(0 0 0)
(0 0 0)
(0 0 0)
(1.25934e-10 -1.01112e-09 8.8205e-10)
(6.71495e-11 -1.18738e-09 1.01396e-09)
(0 0 0)
(0 0 0)
(0 0 0)
(-2.87573e-11 -1.15341e-09 9.94682e-10)
(4.10298e-10 -1.54894e-09 1.0435e-09)
(0 0 0)
(0 0 0)
(0 0 0)
(-3.8148e-10 -1.50324e-09 1.02265e-09)
(6.66743e-10 -1.82882e-09 1.01603e-09)
(3.94738e-10 -1.71487e-09 1.02326e-09)
(-3.70748e-11 -1.58813e-09 1.04526e-09)
(-4.57365e-10 -1.67343e-09 1.013e-09)
(-6.79602e-10 -1.77057e-09 9.97607e-10)
(-4.78481e-11 -6.43261e-12 2.60688e-11)
(0 0 0)
(0 0 0)
(0 0 0)
(7.47177e-11 -1.62958e-11 2.5248e-11)
(-8.59547e-11 -1.46079e-10 1.19301e-10)
(0 0 0)
(0 0 0)
(0 0 0)
(1.43576e-10 -1.60286e-10 1.16317e-10)
(-8.29168e-11 -4.14377e-10 2.61906e-10)
(0 0 0)
(0 0 0)
(0 0 0)
(1.46164e-10 -4.18258e-10 2.56389e-10)
(-9.91132e-11 -6.6147e-10 4.13207e-10)
(0 0 0)
(0 0 0)
(0 0 0)
(1.63801e-10 -6.55948e-10 4.05383e-10)
(-1.07282e-10 -8.57769e-10 5.57178e-10)
(0 0 0)
(0 0 0)
(0 0 0)
(1.69298e-10 -8.43107e-10 5.47191e-10)
(-6.92769e-11 -9.98227e-10 6.76298e-10)
(0 0 0)
(0 0 0)
(0 0 0)
(1.24649e-10 -9.74717e-10 6.64322e-10)
(7.65164e-11 -1.13244e-09 7.51168e-10)
(0 0 0)
(0 0 0)
(0 0 0)
(-3.08932e-11 -1.1005e-09 7.37488e-10)
(4.13671e-10 -1.47979e-09 7.6612e-10)
(0 0 0)
(0 0 0)
(0 0 0)
(-3.7646e-10 -1.43583e-09 7.51269e-10)
(6.64532e-10 -1.75226e-09 7.41105e-10)
(3.97243e-10 -1.64808e-09 7.35503e-10)
(-3.24427e-11 -1.53102e-09 7.44193e-10)
(-4.50481e-10 -1.60735e-09 7.28214e-10)
(-6.68192e-10 -1.6953e-09 7.27999e-10)
(-4.82709e-11 -7.17417e-12 1.92981e-11)
(0 0 0)
(0 0 0)
(0 0 0)
(7.51287e-11 -1.73343e-11 1.87913e-11)
(-8.57036e-11 -1.44125e-10 8.43957e-11)
(0 0 0)
(0 0 0)
(0 0 0)
(1.43612e-10 -1.59189e-10 8.25575e-11)
(-7.96637e-11 -4.05433e-10 1.79966e-10)
(0 0 0)
(0 0 0)
(0 0 0)
(1.43924e-10 -4.10603e-10 1.76562e-10)
(-9.16968e-11 -6.44779e-10 2.79044e-10)
(0 0 0)
(0 0 0)
(0 0 0)
(1.58303e-10 -6.40793e-10 2.74181e-10)
(-9.54101e-11 -8.32113e-10 3.71772e-10)
(0 0 0)
(0 0 0)
(0 0 0)
(1.60362e-10 -8.19075e-10 3.65505e-10)
(-5.38333e-11 -9.64159e-10 4.46643e-10)
(0 0 0)
(0 0 0)
(0 0 0)
(1.13182e-10 -9.42244e-10 4.39059e-10)
(9.28922e-11 -1.09333e-09 4.91981e-10)
(0 0 0)
(0 0 0)
(0 0 0)
(-4.23055e-11 -1.06288e-09 4.83261e-10)
(4.25612e-10 -1.43537e-09 4.99934e-10)
(0 0 0)
(0 0 0)
(0 0 0)
(-3.82608e-10 -1.3927e-09 4.90439e-10)
(6.7281e-10 -1.70344e-09 4.82843e-10)
(4.06069e-10 -1.60419e-09 4.75318e-10)
(-2.92795e-11 -1.4927e-09 4.77791e-10)
(-4.52895e-10 -1.56396e-09 4.70669e-10)
(-6.70144e-10 -1.64742e-09 4.74471e-10)
(-4.80323e-11 -6.8697e-12 1.01089e-11)
(0 0 0)
(0 0 0)
(0 0 0)
(7.48963e-11 -1.71944e-11 9.86753e-12)
(-8.42455e-11 -1.40808e-10 4.33329e-11)
(0 0 0)
(0 0 0)
(0 0 0)
(1.42337e-10 -1.56353e-10 4.24577e-11)
(-7.59322e-11 -3.96627e-10 9.10989e-11)
(0 0 0)
(0 0 0)
(0 0 0)
(1.40778e-10 -4.02539e-10 8.94755e-11)
(-8.53206e-11 -6.30583e-10 1.39899e-10)
(0 0 0)
(0 0 0)
(0 0 0)
(1.53028e-10 -6.27503e-10 1.37572e-10)
(-8.64788e-11 -8.13145e-10 1.85067e-10)
(0 0 0)
(0 0 0)
(0 0 0)
(1.53121e-10 -8.01078e-10 1.82051e-10)
(-4.30375e-11 -9.41972e-10 2.2107e-10)
(0 0 0)
(0 0 0)
(0 0 0)
(1.04689e-10 -9.2102e-10 2.17401e-10)
(1.03978e-10 -1.07011e-09 2.42524e-10)
(0 0 0)
(0 0 0)
(0 0 0)
(-5.0503e-11 -1.04056e-09 2.38288e-10)
(4.34024e-10 -1.41027e-09 2.46083e-10)
(0 0 0)
(0 0 0)
(0 0 0)
(-3.87633e-10 -1.36838e-09 2.41462e-10)
(6.79008e-10 -1.67604e-09 2.3768e-10)
(4.12057e-10 -1.57896e-09 2.33194e-10)
(-2.74428e-11 -1.47012e-09 2.33637e-10)
(-4.55158e-10 -1.53903e-09 2.30936e-10)
(-6.72652e-10 -1.6206e-09 2.33608e-10)
(-2.51875e-11 -1.36293e-11 0)
(1.91669e-12 -2.57794e-11 0)
(5.79969e-14 -3.81837e-11 0)
(1.23915e-12 -2.91392e-11 0)
(4.72302e-11 -2.45166e-11 0)
(-2.7689e-11 -1.43545e-10 0)
(6.2389e-12 -1.68681e-10 0)
(2.08636e-12 -1.90437e-10 0)
(4.69652e-12 -1.7412e-10 0)
(6.56154e-11 -1.56104e-10 0)
(-2.08506e-11 -3.92637e-10 0)
(5.68385e-12 -4.06084e-10 0)
(5.34791e-12 -4.20444e-10 0)
(1.22349e-11 -4.08306e-10 0)
(6.59404e-11 -3.97608e-10 0)
(-2.97458e-11 -6.24032e-10 0)
(-2.10736e-12 -6.34624e-10 0)
(6.66794e-12 -6.45898e-10 0)
(2.23596e-11 -6.32737e-10 0)
(7.73629e-11 -6.21312e-10 0)
(-3.02353e-11 -8.12123e-10 0)
(-4.48068e-12 -8.39074e-10 0)
(5.44652e-12 -8.5861e-10 0)
(2.2255e-11 -8.32781e-10 0)
(7.61596e-11 -8.01588e-10 0)
(1.52356e-11 -9.5966e-10 0)
(2.56527e-11 -1.02303e-09 0)
(1.67645e-12 -1.05837e-09 0)
(-1.52162e-11 -1.01234e-09 0)
(2.47266e-11 -9.41372e-10 0)
(1.66534e-10 -1.11739e-09 0)
(1.28776e-10 -1.21439e-09 0)
(-4.78416e-12 -1.25264e-09 0)
(-1.30585e-10 -1.19938e-09 0)
(-1.36349e-10 -1.09152e-09 0)
(4.73278e-10 -1.46196e-09 0)
(3.10048e-10 -1.5155e-09 0)
(-1.45308e-11 -1.50393e-09 0)
(-3.29344e-10 -1.49394e-09 0)
(-4.54291e-10 -1.42485e-09 0)
(6.80786e-10 -1.69889e-09 0)
(4.14928e-10 -1.64186e-09 0)
(-2.35889e-11 -1.56007e-09 0)
(-4.50579e-10 -1.60896e-09 0)
(-6.81797e-10 -1.6489e-09 0)
)
;

boundaryField
{
    interface
    {
        type            calculated;
    }
    symmetry
    {
        type            symmetry;
    }
    bottom
    {
        type            calculated;
    }
}


// ************************************************************************* //
