/*--------------------------------*- C++ -*----------------------------------*\
| =========                 |                                                 |
| \\      /  F ield         | OpenFOAM: The Open Source CFD Toolbox           |
|  \\    /   O peration     | Version:  v1912                                 |
|   \\  /    A nd           | Website:  www.openfoam.com                      |
|    \\/     M anipulation  |                                                 |
\*---------------------------------------------------------------------------*/
FoamFile
{
    version     2.0;
    format      ascii;
    class       pointVectorField;
    location    "0.37/solid";
    object      pointD;
}
// * * * * * * * * * * * * * * * * * * * * * * * * * * * * * * * * * * * * * //

dimensions      [0 1 0 0 0 0 0];


internalField   nonuniform List<vector> 
405
(
(3.00982e-08 2.61473e-08 3.13433e-08)
(4.31885e-09 1.67844e-08 3.72738e-08)
(1.85665e-10 1.36392e-08 3.55473e-08)
(-3.89319e-09 1.66853e-08 3.68928e-08)
(-2.88153e-08 2.55043e-08 3.11709e-08)
(4.88433e-08 3.25154e-08 5.21095e-08)
(1.17061e-08 2.84949e-08 7.89402e-08)
(8.3214e-10 2.36518e-08 7.55806e-08)
(-9.92216e-09 2.79988e-08 7.84123e-08)
(-4.60199e-08 3.11079e-08 5.22681e-08)
(5.33824e-08 2.11465e-08 5.97604e-08)
(1.53547e-08 1.97194e-08 8.60415e-08)
(1.81898e-09 1.72458e-08 8.26665e-08)
(-1.15926e-08 1.86472e-08 8.59033e-08)
(-4.86524e-08 1.88723e-08 6.06242e-08)
(5.46934e-08 1.39371e-08 6.41214e-08)
(1.61185e-08 1.36384e-08 9.0899e-08)
(2.93495e-09 1.23025e-08 8.73644e-08)
(-1.01343e-08 1.20407e-08 9.10319e-08)
(-4.78054e-08 1.08499e-08 6.54846e-08)
(5.61745e-08 9.75043e-09 6.77779e-08)
(1.67854e-08 9.45402e-09 9.54363e-08)
(4.18297e-09 8.21932e-09 9.18612e-08)
(-8.3089e-09 7.38452e-09 9.57755e-08)
(-4.68387e-08 5.91249e-09 6.95168e-08)
(5.9085e-08 6.84036e-09 7.19935e-08)
(1.82262e-08 6.13215e-09 1.01013e-07)
(5.57052e-09 4.56921e-09 9.75108e-08)
(-6.97773e-09 3.62344e-09 1.01518e-07)
(-4.70184e-08 2.29557e-09 7.40334e-08)
(6.40938e-08 3.28773e-09 7.76136e-08)
(2.08152e-08 2.26322e-09 1.08645e-07)
(7.10151e-09 4.57087e-10 1.0537e-07)
(-6.52294e-09 -6.74387e-10 1.09293e-07)
(-4.90578e-08 -1.94194e-09 7.99114e-08)
(7.17868e-08 -1.33522e-08 8.52138e-08)
(2.47354e-08 -1.37857e-08 1.19245e-07)
(8.75804e-09 -1.48998e-08 1.16604e-07)
(-7.17413e-09 -1.70607e-08 1.2006e-07)
(-5.36362e-08 -1.91252e-08 8.77598e-08)
(6.46895e-08 -5.32435e-08 7.74496e-08)
(2.72066e-08 -6.4895e-08 8.89206e-08)
(9.79354e-09 -6.43632e-08 8.76777e-08)
(-7.59804e-09 -6.777e-08 9.03642e-08)
(-4.48696e-08 -5.84304e-08 8.02253e-08)
(3.40065e-08 1.52543e-08 3.99084e-09)
(0 0 0)
(0 0 0)
(0 0 0)
(-3.25625e-08 1.45196e-08 4.26822e-09)
(7.06285e-08 2.52152e-08 1.24174e-08)
(1.04129e-08 1.52451e-08 1.37437e-08)
(5.84909e-10 1.09007e-08 1.36562e-08)
(-9.09946e-09 1.45054e-08 1.4265e-08)
(-6.69916e-08 2.32851e-08 1.34082e-08)
(7.41658e-08 1.63747e-08 1.9139e-08)
(1.36296e-08 1.30468e-08 2.08733e-08)
(1.37869e-09 1.06788e-08 2.09193e-08)
(-1.07175e-08 1.17718e-08 2.17867e-08)
(-6.88814e-08 1.35383e-08 2.08881e-08)
(7.58538e-08 1.08657e-08 2.28312e-08)
(1.42668e-08 9.70322e-09 2.46702e-08)
(2.34931e-09 8.36594e-09 2.48115e-08)
(-9.42013e-09 7.95562e-09 2.58695e-08)
(-6.85994e-08 7.16708e-09 2.51435e-08)
(7.81148e-08 7.56192e-09 2.5456e-08)
(1.48627e-08 6.32012e-09 2.73508e-08)
(3.48553e-09 5.0598e-09 2.75609e-08)
(-7.74481e-09 4.13879e-09 2.87659e-08)
(-6.85515e-08 3.05448e-09 2.81985e-08)
(8.23041e-08 5.13977e-09 2.80768e-08)
(1.62503e-08 2.98085e-09 3.00121e-08)
(4.78307e-09 1.38227e-09 3.02854e-08)
(-6.53759e-09 3.83922e-10 3.16008e-08)
(-7.01184e-08 -1.34639e-10 3.11654e-08)
(8.929e-08 2.12624e-09 3.12894e-08)
(1.88148e-08 -1.14081e-09 3.32347e-08)
(6.23817e-09 -2.99381e-09 3.35698e-08)
(-6.20701e-09 -4.14553e-09 3.49691e-08)
(-7.4242e-08 -3.87847e-09 3.46674e-08)
(9.99334e-08 -1.30818e-08 3.50867e-08)
(2.27263e-08 -1.57683e-08 3.70307e-08)
(7.83274e-09 -1.68938e-08 3.74384e-08)
(-6.97322e-09 -1.9065e-08 3.88727e-08)
(-8.19367e-08 -1.96364e-08 3.8686e-08)
(7.23713e-08 -6.33956e-08 3.79273e-08)
(2.54965e-08 -9.79967e-08 3.87394e-08)
(9.50868e-09 -9.60858e-08 3.91594e-08)
(-6.42714e-09 -1.00269e-07 4.05981e-08)
(-5.30767e-08 -6.85153e-08 4.11686e-08)
(2.9103e-08 9.87058e-09 -1.67278e-10)
(0 0 0)
(0 0 0)
(0 0 0)
(-2.77127e-08 9.25595e-09 6.91455e-11)
(6.06308e-08 1.59788e-08 2.10489e-09)
(8.12956e-09 7.6994e-09 3.99188e-09)
(3.89327e-10 3.91094e-09 4.53535e-09)
(-7.1832e-09 6.98714e-09 4.44425e-09)
(-5.72747e-08 1.42696e-08 2.93085e-09)
(6.37697e-08 9.96436e-09 6.7336e-09)
(1.07155e-08 7.12618e-09 9.13824e-09)
(1.02246e-09 4.98798e-09 9.9557e-09)
(-8.48701e-09 5.86919e-09 9.9179e-09)
(-5.908e-08 7.31553e-09 8.18501e-09)
(6.51186e-08 6.45227e-09 1.04221e-08)
(1.11917e-08 5.41917e-09 1.29608e-08)
(1.86106e-09 4.14289e-09 1.39191e-08)
(-7.29042e-09 3.69264e-09 1.39872e-08)
(-5.87097e-08 2.91735e-09 1.23615e-08)
(6.7177e-08 4.2439e-09 1.30939e-08)
(1.17021e-08 3.05016e-09 1.57011e-08)
(2.88931e-09 1.8067e-09 1.67468e-08)
(-5.74232e-09 8.95825e-10 1.69221e-08)
(-5.86535e-08 -1.16912e-10 1.54245e-08)
(7.13289e-08 2.5193e-09 1.54274e-08)
(1.30395e-08 3.60527e-10 1.8073e-08)
(4.09851e-09 -1.23026e-09 1.91811e-08)
(-4.65784e-09 -2.20314e-09 1.94534e-08)
(-6.03282e-08 -2.61972e-09 1.8079e-08)
(7.85756e-08 3.18416e-10 1.77939e-08)
(1.56143e-08 -2.9951e-09 2.04283e-08)
(5.48123e-09 -4.83842e-09 2.15797e-08)
(-4.47934e-09 -5.95517e-09 2.19358e-08)
(-6.48183e-08 -5.54949e-09 2.07039e-08)
(9.00801e-08 -1.29597e-08 1.97825e-08)
(1.95872e-08 -1.56649e-08 2.23685e-08)
(7.01725e-09 -1.67411e-08 2.35446e-08)
(-5.42468e-09 -1.88923e-08 2.39501e-08)
(-7.34685e-08 -1.93538e-08 2.28625e-08)
(6.5472e-08 -5.94505e-08 2.12401e-08)
(2.23675e-08 -9.10812e-08 2.26747e-08)
(8.64568e-09 -8.85679e-08 2.38273e-08)
(-4.98715e-09 -9.32282e-08 2.42309e-08)
(-4.77208e-08 -6.43891e-08 2.39722e-08)
(2.59419e-08 8.07814e-09 -2.31629e-11)
(0 0 0)
(0 0 0)
(0 0 0)
(-2.46555e-08 7.58081e-09 1.47922e-10)
(5.42302e-08 1.22991e-08 1.53122e-09)
(6.75427e-09 5.03038e-09 2.70922e-09)
(2.60099e-10 1.61196e-09 3.16903e-09)
(-6.07232e-09 4.39346e-09 3.04039e-09)
(-5.1201e-08 1.08434e-08 2.13817e-09)
(5.72733e-08 6.31416e-09 4.9474e-09)
(8.95703e-09 3.77599e-09 6.46862e-09)
(7.67807e-10 1.82836e-09 7.16253e-09)
(-7.23984e-09 2.61437e-09 7.05089e-09)
(-5.31423e-08 3.93484e-09 6.03288e-09)
(5.85725e-08 3.17082e-09 8.28078e-09)
(9.35536e-09 2.21281e-09 9.88057e-09)
(1.49388e-09 1.0122e-09 1.06926e-08)
(-6.18688e-09 5.83368e-10 1.06606e-08)
(-5.29339e-08 -1.08029e-10 9.7593e-09)
(6.05555e-08 1.50501e-09 1.09552e-08)
(9.81851e-09 3.41996e-10 1.25944e-08)
(2.42561e-09 -8.63782e-10 1.34797e-08)
(-4.78187e-09 -1.71843e-09 1.35379e-08)
(-5.29822e-08 -2.622e-09 1.27652e-08)
(6.46558e-08 4.16428e-10 1.31623e-08)
(1.11177e-08 -1.74016e-09 1.48302e-08)
(3.55414e-09 -3.30431e-09 1.57675e-08)
(-3.81824e-09 -4.21264e-09 1.59102e-08)
(-5.47497e-08 -4.50964e-09 1.5251e-08)
(7.19706e-08 -1.06913e-09 1.50877e-08)
(1.36966e-08 -4.41089e-09 1.67537e-08)
(4.87029e-09 -6.23003e-09 1.77247e-08)
(-3.77505e-09 -7.27962e-09 1.79394e-08)
(-5.94167e-08 -6.73804e-09 1.73976e-08)
(8.37785e-08 -1.33497e-08 1.65282e-08)
(1.77052e-08 -1.6079e-08 1.81702e-08)
(6.35071e-09 -1.7123e-08 1.91568e-08)
(-4.86592e-09 -1.92134e-08 1.94105e-08)
(-6.84464e-08 -1.95519e-08 1.89742e-08)
(6.11642e-08 -5.74317e-08 1.75967e-08)
(2.04975e-08 -8.71035e-08 1.87931e-08)
(7.93013e-09 -8.43979e-08 1.97667e-08)
(-4.53826e-09 -8.91648e-08 2.00002e-08)
(-4.47737e-08 -6.2212e-08 1.97443e-08)
(2.41339e-08 7.40903e-09 2.01442e-10)
(0 0 0)
(0 0 0)
(0 0 0)
(-2.29338e-08 7.00002e-09 3.22108e-10)
(5.04894e-08 1.08197e-08 1.547e-09)
(6.08781e-09 4.07479e-09 2.16326e-09)
(1.79717e-10 8.69514e-10 2.44405e-09)
(-5.58375e-09 3.50806e-09 2.40037e-09)
(-4.77203e-08 9.57064e-09 1.97928e-09)
(5.34236e-08 4.51217e-09 4.08709e-09)
(8.09357e-09 2.13264e-09 4.89831e-09)
(5.9668e-10 3.09476e-10 5.33407e-09)
(-6.73471e-09 1.07214e-09 5.3203e-09)
(-4.9726e-08 2.37832e-09 4.86993e-09)
(5.47499e-08 1.14124e-09 6.75549e-09)
(8.46121e-09 2.19728e-10 7.60905e-09)
(1.23379e-09 -9.17252e-10 8.12848e-09)
(-5.82557e-09 -1.30025e-09 8.18162e-09)
(-4.97111e-08 -1.88702e-09 7.8379e-09)
(5.67276e-08 -4.71908e-10 9.0787e-09)
(8.90144e-09 -1.61446e-09 9.95333e-09)
(2.08511e-09 -2.77874e-09 1.05273e-08)
(-4.55625e-09 -3.56743e-09 1.06546e-08)
(-4.99053e-08 -4.36141e-09 1.0424e-08)
(6.07926e-08 -1.28704e-09 1.09983e-08)
(1.01676e-08 -3.4298e-09 1.18965e-08)
(3.14422e-09 -4.96006e-09 1.25117e-08)
(-3.69699e-09 -5.80019e-09 1.27075e-08)
(-5.17661e-08 -5.99539e-09 1.25703e-08)
(6.80955e-08 -2.43633e-09 1.25816e-08)
(1.27293e-08 -5.77777e-09 1.34922e-08)
(4.40178e-09 -7.56665e-09 1.41357e-08)
(-3.75237e-09 -8.55079e-09 1.43875e-08)
(-5.65228e-08 -7.90811e-09 1.43341e-08)
(7.99706e-08 -1.42486e-08 1.3805e-08)
(1.67391e-08 -1.69823e-08 1.47155e-08)
(5.83244e-09 -1.79989e-08 1.5372e-08)
(-4.9422e-09 -2.00296e-08 1.56526e-08)
(-6.56929e-08 -2.02744e-08 1.56674e-08)
(5.8657e-08 -5.6773e-08 1.47384e-08)
(1.95281e-08 -8.51563e-08 1.55826e-08)
(7.36839e-09 -8.23946e-08 1.6229e-08)
(-4.69795e-09 -8.71431e-08 1.649e-08)
(-4.33757e-08 -6.14146e-08 1.63669e-08)
(2.31148e-08 7.07921e-09 2.47785e-10)
(0 0 0)
(0 0 0)
(0 0 0)
(-2.1973e-08 6.73117e-09 3.29375e-10)
(4.83671e-08 1.0108e-08 1.33062e-09)
(5.77388e-09 3.6327e-09 1.64225e-09)
(1.29809e-10 5.47787e-10 1.79858e-09)
(-5.3846e-09 3.11984e-09 1.8056e-09)
(-4.57744e-08 9.00826e-09 1.62474e-09)
(5.12262e-08 3.6008e-09 3.15482e-09)
(7.67851e-09 1.30735e-09 3.57329e-09)
(4.84537e-10 -4.38817e-10 3.82387e-09)
(-6.55911e-09 3.29002e-10 3.866e-09)
(-4.78265e-08 1.65646e-09 3.69225e-09)
(5.25759e-08 -3.495e-11 5.09788e-09)
(8.02808e-09 -9.34526e-10 5.54298e-09)
(1.05622e-09 -2.02458e-09 5.84922e-09)
(-5.76032e-09 -2.36146e-09 5.94351e-09)
(-4.79577e-08 -2.85951e-09 5.8494e-09)
(5.45616e-08 -1.79285e-09 6.87516e-09)
(8.45181e-09 -2.91813e-09 7.33523e-09)
(1.84535e-09 -4.04614e-09 7.68027e-09)
(-4.59711e-09 -4.7775e-09 7.83017e-09)
(-4.82771e-08 -5.48284e-09 7.82026e-09)
(5.86004e-08 -2.60305e-09 8.38113e-09)
(9.68881e-09 -4.72569e-09 8.86132e-09)
(2.84881e-09 -6.22326e-09 9.23757e-09)
(-3.81877e-09 -7.00716e-09 9.43802e-09)
(-5.02159e-08 -7.12627e-09 9.49678e-09)
(6.58635e-08 -3.68149e-09 9.62848e-09)
(1.22237e-08 -7.00609e-09 1.01264e-08)
(4.05826e-09 -8.76436e-09 1.05257e-08)
(-3.94249e-09 -9.69773e-09 1.07663e-08)
(-5.50191e-08 -8.98721e-09 1.08815e-08)
(7.77165e-08 -1.52801e-08 1.06475e-08)
(1.62167e-08 -1.80001e-08 1.11552e-08)
(5.44774e-09 -1.89891e-08 1.15654e-08)
(-5.19673e-09 -2.0976e-08 1.18262e-08)
(-6.42324e-08 -2.11607e-08 1.19848e-08)
(5.71882e-08 -5.68241e-08 1.1439e-08)
(1.89897e-08 -8.43974e-08 1.20145e-08)
(6.94823e-09 -8.16152e-08 1.2414e-08)
(-5.00753e-09 -8.63232e-08 1.26622e-08)
(-4.27451e-08 -6.13529e-08 1.26069e-08)
(2.25344e-08 6.89479e-09 1.96668e-10)
(0 0 0)
(0 0 0)
(0 0 0)
(-2.14283e-08 6.58573e-09 2.47048e-10)
(4.71593e-08 9.71824e-09 9.46525e-10)
(5.61612e-09 3.38654e-09 1.10363e-09)
(9.97697e-11 3.69459e-10 1.18632e-09)
(-5.29702e-09 2.9105e-09 1.20611e-09)
(-4.46758e-08 8.7169e-09 1.12881e-09)
(4.99728e-08 3.10769e-09 2.13264e-09)
(7.46541e-09 8.63643e-10 2.34715e-09)
(4.14551e-10 -8.36006e-10 2.48352e-09)
(-6.49648e-09 -5.68939e-11 2.53152e-09)
(-4.67613e-08 1.29362e-09 2.46769e-09)
(5.13312e-08 -7.06862e-10 3.38921e-09)
(7.79995e-09 -1.59001e-09 3.62149e-09)
(9.421e-10 -2.64806e-09 3.79217e-09)
(-5.76937e-09 -2.94959e-09 3.87517e-09)
(-4.69843e-08 -3.38649e-09 3.86144e-09)
(5.3319e-08 -2.62574e-09 4.56821e-09)
(8.20857e-09 -3.73571e-09 4.81227e-09)
(1.68755e-09 -4.83643e-09 5.00831e-09)
(-4.67717e-09 -5.52599e-09 5.12764e-09)
(-4.73885e-08 -6.17017e-09 5.16708e-09)
(5.73357e-08 -3.5309e-09 5.5939e-09)
(9.42166e-09 -5.63434e-09 5.85338e-09)
(2.65069e-09 -7.1059e-09 6.07066e-09)
(-3.95471e-09 -7.84974e-09 6.22284e-09)
(-4.93811e-08 -7.91729e-09 6.30625e-09)
(6.45583e-08 -4.64996e-09 6.46326e-09)
(1.1932e-08 -7.95518e-09 6.73786e-09)
(3.82455e-09 -9.68792e-09 6.9715e-09)
(-4.12426e-09 -1.05867e-08 7.14948e-09)
(-5.42084e-08 -9.83271e-09 7.26808e-09)
(7.63726e-08 -1.61617e-08 7.20434e-09)
(1.59064e-08 -1.88622e-08 7.48866e-09)
(5.18338e-09 -1.98261e-08 7.73003e-09)
(-5.42055e-09 -2.17857e-08 7.921e-09)
(-6.34338e-08 -2.19355e-08 8.06638e-09)
(5.63066e-08 -5.71122e-08 7.78547e-09)
(1.86606e-08 -8.41841e-08 8.15283e-09)
(6.65775e-09 -8.13854e-08 8.38471e-09)
(-5.26505e-09 -8.60652e-08 8.56932e-09)
(-4.24432e-08 -6.15585e-08 8.53814e-09)
(2.22304e-08 6.79793e-09 1.05151e-10)
(0 0 0)
(0 0 0)
(0 0 0)
(-2.11435e-08 6.51045e-09 1.2919e-10)
(4.65269e-08 9.51341e-09 4.86282e-10)
(5.53694e-09 3.25501e-09 5.53975e-10)
(8.37711e-11 2.73133e-10 5.90108e-10)
(-5.25554e-09 2.8002e-09 6.03363e-10)
(-4.41026e-08 8.56757e-09 5.73425e-10)
(4.93147e-08 2.85125e-09 1.07145e-09)
(7.35659e-09 6.34176e-10 1.1649e-09)
(3.76363e-10 -1.04017e-09 1.2256e-09)
(-6.47001e-09 -2.52507e-10 1.25395e-09)
(-4.62064e-08 1.11253e-09 1.23215e-09)
(5.06738e-08 -1.06086e-09 1.68722e-09)
(7.68028e-09 -1.93286e-09 1.78998e-09)
(8.78596e-10 -2.97217e-09 1.86718e-09)
(-5.78183e-09 -3.25237e-09 1.91289e-09)
(-4.64782e-08 -3.65486e-09 1.91476e-09)
(5.26595e-08 -3.08797e-09 2.27162e-09)
(8.07766e-09 -4.18704e-09 2.38119e-09)
(1.59829e-09 -5.27092e-09 2.47102e-09)
(-4.7292e-09 -5.93568e-09 2.53452e-09)
(-4.6929e-08 -6.545e-09 2.56164e-09)
(5.66605e-08 -4.08011e-09 2.78907e-09)
(9.27493e-09 -6.1703e-09 2.9071e-09)
(2.53712e-09 -7.62541e-09 3.00774e-09)
(-4.03899e-09 -8.34561e-09 3.08734e-09)
(-4.89517e-08 -8.38346e-09 3.13567e-09)
(6.38552e-08 -5.2534e-09 3.23623e-09)
(1.17691e-08 -8.54487e-09 3.3626e-09)
(3.6892e-09 -1.0261e-08 3.47172e-09)
(-4.23547e-09 -1.11398e-08 3.56391e-09)
(-5.37911e-08 -1.03612e-08 3.6293e-09)
(7.56414e-08 -1.67368e-08 3.62691e-09)
(1.5731e-08 -1.94221e-08 3.75867e-09)
(5.0292e-09 -2.03686e-08 3.87176e-09)
(-5.5565e-09 -2.23138e-08 3.97037e-09)
(-6.30204e-08 -2.24454e-08 4.04891e-09)
(5.5821e-08 -5.737e-08 3.93461e-09)
(1.84713e-08 -8.41653e-08 4.11599e-09)
(6.48759e-09 -8.13538e-08 4.2235e-09)
(-5.41935e-09 -8.60193e-08 4.31968e-09)
(-4.22969e-08 -6.1766e-08 4.3031e-09)
(1.7512e-08 7.23485e-09 0)
(1.98252e-09 2.23985e-09 0)
(-6.60755e-12 3.69434e-10 0)
(-1.94814e-09 2.12177e-09 0)
(-1.67367e-08 6.92432e-09 0)
(2.85298e-08 7.76248e-09 0)
(5.51219e-09 3.21326e-09 0)
(7.87597e-11 2.42368e-10 0)
(-5.24266e-09 2.76538e-09 0)
(-2.71363e-08 6.95859e-09 0)
(3.12992e-08 2.38929e-09 0)
(7.32225e-09 5.62157e-10 0)
(3.64247e-10 -1.10411e-09 0)
(-6.46184e-09 -3.13413e-10 0)
(-2.92653e-08 8.7698e-10 0)
(3.21234e-08 -1.25467e-09 0)
(7.64195e-09 -2.04053e-09 0)
(8.58246e-10 -3.07364e-09 0)
(-5.78588e-09 -3.34679e-09 0)
(-2.9052e-08 -3.51441e-09 0)
(3.32989e-08 -3.4635e-09 0)
(8.03518e-09 -4.33183e-09 0)
(1.56944e-09 -5.41003e-09 0)
(-4.74584e-09 -6.06662e-09 0)
(-2.8746e-08 -6.47563e-09 0)
(3.60199e-08 -4.85178e-09 0)
(9.22691e-09 -6.34721e-09 0)
(2.50016e-09 -7.79671e-09 0)
(-4.06614e-09 -8.50912e-09 0)
(-2.95448e-08 -8.60734e-09 0)
(4.12487e-08 -6.57029e-09 0)
(1.17156e-08 -8.74385e-09 0)
(3.64493e-09 -1.04542e-08 0)
(-4.27155e-09 -1.13265e-08 0)
(-3.24643e-08 -1.10444e-08 0)
(4.99518e-08 -1.81623e-08 0)
(1.56731e-08 -1.96146e-08 0)
(4.97857e-09 -2.0555e-08 0)
(-5.60087e-09 -2.24957e-08 0)
(-3.85997e-08 -2.31713e-08 0)
(4.64193e-08 -4.81864e-08 0)
(1.82029e-08 -5.6603e-08 0)
(6.05953e-09 -5.52634e-08 0)
(-6.00297e-09 -5.90115e-08 0)
(-3.36286e-08 -5.26013e-08 0)
)
;

boundaryField
{
    interface
    {
        type            calculated;
    }
    symmetry
    {
        type            symmetry;
    }
    bottom
    {
        type            calculated;
    }
}


// ************************************************************************* //
