/*--------------------------------*- C++ -*----------------------------------*\
| =========                 |                                                 |
| \\      /  F ield         | OpenFOAM: The Open Source CFD Toolbox           |
|  \\    /   O peration     | Version:  v1912                                 |
|   \\  /    A nd           | Website:  www.openfoam.com                      |
|    \\/     M anipulation  |                                                 |
\*---------------------------------------------------------------------------*/
FoamFile
{
    version     2.0;
    format      ascii;
    class       volSymmTensorField;
    location    "0.37/solid";
    object      sigma;
}
// * * * * * * * * * * * * * * * * * * * * * * * * * * * * * * * * * * * * * //

dimensions      [1 -1 -2 0 0 0 0];


internalField   nonuniform List<symmTensor> 
256
(
(-279862 14067.8 -5209.06 276320 14437.1 -301401)
(24341.3 -9989.77 -1973.03 176473 14713.5 -308741)
(25161.7 12889.5 1993.11 174764 15064 -305014)
(-261617 -12448.2 5353.34 274024 15729 -287141)
(-315995 -1963.13 -7409.11 42279.6 -1766.46 -335485)
(-54915.5 -3910.51 -3087.62 18659.9 -844.546 -351281)
(-53840.5 6256.21 3238.85 17220.2 -596.658 -347369)
(-296000 2987.33 7668.72 43633.5 -876.924 -320243)
(-318016 -2780.33 -7854.91 49694.1 -2969.46 -337178)
(-59590.5 -2230.22 -3344.09 4661.34 -2751.81 -357189)
(-58556.2 4016.8 3553.17 3364.79 -2584.11 -353185)
(-297661 3520.68 8147.54 51626.8 -2353.17 -321619)
(-321075 -1215.73 -8061.28 65705.3 -1702.57 -341620)
(-53160 -1219.52 -3436.08 4237.56 -1666.15 -363186)
(-52119.3 2537.64 3650 3109.73 -1541.2 -359106)
(-300403 1769.29 8360.94 68096 -1234.68 -325815)
(-332839 30.5095 -8148.15 72134.4 -300.934 -354629)
(-50884.8 -463.992 -3471.79 4236.99 -237.645 -376710)
(-49819.9 1397.3 3675.65 3195.23 -131.843 -372581)
(-311929 362.727 8450.16 74798.9 89.0749 -338652)
(-357289 1502.25 -8109.56 63121.5 1601.68 -379369)
(-57652 299.266 -3454.14 -4367.54 1709.33 -402794)
(-56617 269.568 3654.41 -5388.81 1811.6 -398643)
(-336381 -1300.69 8418.64 65856.8 1958.56 -363292)
(-403211 4868.74 -7910.38 -28037.3 5190.24 -425221)
(-84912 1608.81 -3363.91 -86181.8 5444.27 -453873)
(-83983.6 -1509.33 3580.18 -86691.6 5553.29 -449674)
(-382771 -4956.09 8231.88 -24268.4 5535.59 -408977)
(-381066 7537.13 -7468.19 -404728 8355.82 -404661)
(-34836.9 3261.7 -3170.7 -442836 8790.87 -442671)
(-33701.7 -3345.58 3401.5 -438512 8890.94 -438326)
(-361383 -7766.06 7778.52 -388416 8637.92 -388350)
(-275388 9918.43 -3735.15 150053 -13332.6 15139.3)
(-27359.5 -10103.7 -673.976 48348.4 -6309.3 -32670.7)
(-27159.5 11612 958.633 45615.1 -5476.19 -33384.3)
(-257197 -8823.41 3934.01 146263 -10735.5 18179.4)
(-314308 -2363.53 -5186.78 14066 -4643.5 -48540.3)
(-97972.2 -4084.32 -1496.11 -22356.9 -1297.39 -99210.9)
(-97303.1 5194.14 2006.48 -24604.1 -749.226 -99876.6)
(-294278 2847.52 5504.48 14040.8 -2820.19 -44714.6)
(-319771 -2864.61 -5249.28 7509.29 -3669.24 -51444.6)
(-109293 -2474.08 -1558.07 -49109.7 -2571.82 -110855)
(-108641 3256.1 2126.35 -51029.4 -2173.8 -111636)
(-299350 3168.14 5592.54 8370.58 -2289.55 -47918.4)
(-324627 -1337.69 -5256.13 10251.2 -3249.48 -48438.6)
(-106936 -1468.86 -1505.39 -61658.2 -2856.13 -111698)
(-106281 2003.56 2058.3 -63406.2 -2537.45 -112547)
(-303839 1559.25 5598.76 11556 -2134.39 -45081.6)
(-337208 -31.4573 -5282.25 10891.7 -1626.78 -48995.6)
(-106000 -676.314 -1495.2 -66975.2 -1429.6 -113137)
(-105319 997.036 2019.41 -68674.1 -1153.89 -114033)
(-316053 169.828 5622.19 12399.8 -677.091 -45735.1)
(-363219 1572.9 -5224.61 2065.7 784.668 -55874.6)
(-112876 162.267 -1467.45 -74518.6 881.721 -119854)
(-112216 -68.6795 1975.22 -76203.1 1127.24 -120817)
(-341836 -1569.94 5568.07 3653.47 1611.94 -52743.8)
(-414347 5114.3 -5022.09 -79156.8 2984.1 -79813.2)
(-140588 1560.03 -1392.52 -144184 3068.13 -144425)
(-140019 -1768.72 1872.62 -145280 3265.53 -145398)
(-393170 -5345.8 5359.58 -76364.6 3641.89 -76730.8)
(-403416 7951.16 -4732.81 -425284 5279.88 -28282.7)
(-84952 3417.09 -1357.74 -453974 5508.87 -85950)
(-83988.1 -3546.09 1676.56 -449753 5612.22 -86295)
(-382790 -8226.27 4986.52 -408926 5599.81 -24136.6)
(-236678 7321.98 -1688.08 120809 89.5131 63304.1)
(-22326.4 -10781.4 -2.80575 23382.4 5731.8 7252.53)
(-22076.8 11502 289.007 20825.2 6399.02 6358.87)
(-218408 -6563 1794.96 118168 2146.64 66392.3)
(-263966 -2313.11 -2090.43 27359.2 1836.71 29071)
(-70971 -4238.89 -242.234 -12349.8 4675.39 -32064.9)
(-70281.8 4718.06 731.017 -14600.1 5234.28 -33071)
(-244047 2548.55 2290.88 27434.5 3613.48 32487.8)
(-268658 -2693.03 -1865.76 28054 464.671 24001.7)
(-80315.7 -2528.96 -163.828 -30008.2 1490.17 -46240.8)
(-79635.8 2801.05 673.525 -31969.4 1955.85 -47410.4)
(-248373 2793.44 2083.14 28796.8 1973.21 26946.9)
(-273709 -1339.94 -1740.53 30824.9 -708.387 25093.6)
(-78716.5 -1573.07 -69.8858 -41115.4 -315.686 -49389.6)
(-78026.1 1711.12 542.621 -42914.7 84.3436 -50667.5)
(-253036 1404.5 1948.38 31966 592.109 27732.9)
(-286170 -46.2577 -1721.71 30819 -329.502 24896.6)
(-78308.1 -779.423 -51.5214 -46767.9 -143.025 -50773.9)
(-77579.2 808.85 484.145 -48515.8 209.143 -52134.6)
(-265050 71.6687 1918.32 32177.7 804.536 27337.6)
(-311997 1668.54 -1683.95 22875.1 935.069 19707.3)
(-85290.5 131.752 -44.2943 -53363.2 1002.99 -55845.2)
(-84562.8 -227.781 444.365 -55077.8 1306.32 -57293.1)
(-290486 -1737.63 1872.8 24386.8 1905.25 21973.7)
(-363250 5304.99 -1551.53 -54331.3 1464.6 718.775)
(-112431 1603.09 -12.5259 -118610 1499.68 -75053.4)
(-111766 -1900.69 343.13 -119703 1722.47 -76482.9)
(-341674 -5570.46 1716.73 -51501.6 2190.08 3020.78)
(-357533 8137.44 -1404.39 -379262 1980.35 63008.3)
(-57271.8 3488.16 -20.6977 -402636 2039.91 -3623.74)
(-56194 -3628.24 116.66 -398427 2125.79 -4312.61)
(-336233 -8420.1 1468.71 -362952 2263.5 66618.8)
(-214850 6109.26 -707.373 108440 4082.03 62997.4)
(-21674 -10938.9 252.142 13458.8 7388.1 5364.83)
(-21411.4 11215.7 11.9722 11197.4 7879.53 4638.81)
(-196699 -5593.28 780.913 107039 5591.5 66742.2)
(-237798 -2198.74 -806.045 25671.7 4724.26 40027.8)
(-62850.4 -4253.61 313.191 -16443.9 6475.41 -23585)
(-62177.1 4388.09 143.822 -18501.8 6937.7 -24409.7)
(-218142 2295.94 955.466 26282.5 6158.5 44041.3)
(-242021 -2478.84 -581.873 30632.5 3223.34 35175)
(-70716.8 -2491.41 430.25 -28664 3913.87 -37145.4)
(-70044.5 2493.74 40.1804 -30527.1 4334.07 -38137.2)
(-222019 2477.18 745.31 31596.4 4539.75 38679.2)
(-247245 -1271.5 -442.186 36134.8 1519.18 33709.4)
(-69386.2 -1588.14 512.76 -36142.9 1814.26 -42695.5)
(-68697.1 1524.75 -85.1845 -37886.8 2194.57 -43812.1)
(-226846 1258.7 593.662 37369 2714.69 36845.5)
(-259799 -42.7445 -409.618 37395.4 751.164 31726.6)
(-69442.9 -822.897 524.063 -40338.6 919.725 -45938)
(-68710.4 716.804 -143.566 -42043 1260.37 -47157.4)
(-238917 16.5618 545.149 38815.2 1817.66 34601.9)
(-285660 1708.34 -402.96 29666.2 655.798 26170.9)
(-76876.3 119.148 508.213 -46783.8 748.206 -51482.6)
(-76135.9 -288.603 -174.495 -48454.5 1037.01 -52797.7)
(-264296 -1803.07 522.57 31255.7 1561.77 28851.4)
(-336663 5390.67 -358.522 -46173.9 245.46 9234.53)
(-103940 1631.93 494.18 -110642 308.315 -68592.3)
(-103246 -1956.97 -249.96 -111693 511.068 -69868)
(-315063 -5661.83 445.595 -43242.4 901.429 12012.3)
(-332388 8199.93 -303.338 -354028 660.089 73798.6)
(-48593.2 3507.03 455.655 -375984 687.737 5970.67)
(-47469.2 -3662.05 -443.454 -371751 756.725 5478.65)
(-310807 -8487.91 293.146 -337657 894.55 77994.9)
(-202118 5583.91 -324.204 102735 4177.68 60540.5)
(-21699.2 -10837.1 236.595 9058.36 5947.52 2934.35)
(-21445.3 10858.8 -23.8362 7041.23 6298.33 2339.24)
(-184067 -5228.53 382.917 102311 5246.5 64764.9)
(-223464 -2111.55 -349.638 23335.4 4649.5 41235)
(-60228.4 -4203.98 359.549 -20049.4 5640.26 -22069)
(-59600.4 4139.65 21.2716 -21928.9 5985.73 -22733.7)
(-204018 2125.66 471.615 24469.3 5707.49 45740.5)
(-227556 -2329.75 -207.004 29386 3794.26 37441.7)
(-67459.3 -2446.64 453.359 -30501.5 4220.94 -34089.2)
(-66827.7 2295 -54.3103 -32266.3 4550.6 -34914)
(-207776 2271.25 342.462 30626.8 4812.39 41445.7)
(-232924 -1204.07 -108.58 36500.7 2391.69 34985)
(-66279.4 -1581.81 505.931 -35848.8 2601.66 -40419)
(-65626.2 1406.2 -142.564 -37543 2911 -41373)
(-212744 1149.32 233.99 37874 3351.88 38600.3)
(-245561 -33.8313 -81.4835 38980.6 1248.59 31820)
(-66608 -844.416 507.156 -38713.9 1398.24 -44844.1)
(-65909 665.918 -189.224 -40391.3 1679.84 -45909.7)
(-224879 -19.3988 190.866 40474.2 2122.74 35143.8)
(-271396 1716.44 -87.4521 31590.1 486.743 25882)
(-74308.8 106.083 482.249 -44890.9 601.916 -50874.2)
(-73597.7 -313.229 -214.794 -46546 839.724 -52038.8)
(-250185 -1823.63 178.457 33230.3 1230.71 28999.9)
(-322025 5420.15 -85.8132 -43074.4 -193.669 9586.37)
(-101342 1644.21 449.617 -107655 -98.7982 -67423.1)
(-100666 -1986.31 -269.628 -108699 65.1684 -68539.4)
(-300478 -5694.61 143.917 -40098.7 339.118 12826.3)
(-317971 8216.49 -80.7577 -339270 218.134 73774.2)
(-45896 3510.28 394.595 -360986 255.987 7093.99)
(-44777.7 -3681.81 -411.259 -356744 310.086 6777.67)
(-296269 -8512.23 55.5113 -322846 404.203 78475.1)
(-194425 5340.44 -174.177 99789.4 3281.48 59308.8)
(-21834.8 -10715.3 150.113 6660.28 4206.93 1705.78)
(-21586.4 10589.6 2.2593 4821.19 4442.09 1197.51)
(-176411 -5084.25 218.087 100067 3990.51 63867.6)
(-215053 -2057.38 -185.806 22104.8 3529 41272.6)
(-59226.8 -4158.57 241.607 -22122.1 4075.92 -21680.5)
(-58633.5 3978.3 38.9694 -23866.7 4311.72 -22237.8)
(-195716 2022.12 278.266 23657.2 4244.72 46136.6)
(-219126 -2246.05 -108.636 28240.7 3110.79 38326.4)
(-66210.4 -2420.45 299.865 -32116.5 3369.9 -32533.5)
(-65611.2 2177.47 0.70902 -33801.6 3600.75 -33243)
(-199462 2154.28 213.079 29735.9 3818.99 42709)
(-224586 -1161.93 -53.2375 35888 2195.51 35826.1)
(-65126.7 -1579.47 326.983 -36650.7 2342.31 -38783.3)
(-64502.8 1335.84 -50.3696 -38304.1 2563.97 -39621.9)
(-204519 1082.3 151.01 37406.4 2880.56 39818.6)
(-237267 -28.09 -37.6381 39011.2 1217.49 32207.5)
(-65606.5 -859.465 322.224 -38815.3 1337.97 -43668.9)
(-64935.4 635.263 -81.6096 -40475 1542.45 -44622.2)
(-216688 -41.8637 122.567 40583.8 1851.48 35896.2)
(-263043 1715.38 -45.4612 31988.8 410.663 25940.2)
(-73454.2 94.7468 299.843 -44675.6 518.29 -50115.2)
(-72768.7 -328.689 -102.27 -46326.5 691.418 -51169.3)
(-241909 -1831.45 114.423 33673.5 953.685 29415)
(-313336 5434.66 -53.8466 -41611.9 -193.98 9563.29)
(-100475 1652.98 270.039 -106445 -97.3041 -66839.6)
(-99819.1 -2010.82 -143.116 -107492 21.6205 -67843.3)
(-291806 -5713.5 95.7636 -38606.7 194.959 13164.9)
(-309089 8230.1 -63.6646 -330062 82.2352 73098.3)
(-44813.3 3516.51 218.594 -351936 128.109 7231.51)
(-43705.8 -3702.87 -239.004 -347691 167.217 7035.21)
(-287293 -8533.98 42.4776 -313598 217.635 78178.3)
(-189957 5213.97 -94.1415 98227.4 2058.3 58808.6)
(-21940.2 -10639.7 76.0652 5286.43 2510.85 1085.93)
(-21693.3 10433.2 14.9761 3562.39 2646.03 631.487)
(-171950 -5014.36 121.191 98953.5 2462.46 63581.2)
(-210223 -2029.87 -103.406 21529.4 2149.01 41274.2)
(-58780.6 -4133.51 124.86 -23268 2427.93 -21615)
(-58207.4 3889.19 45.8856 -24923.7 2564.54 -22106)
(-190934 1967.21 160.948 23366.6 2561.12 46373.4)
(-214301 -2204.53 -66.7995 27588.5 1949.07 38806.4)
(-65664.1 -2409.61 154.707 -33144.9 2092.24 -31822.6)
(-65083.9 2114.65 31.2647 -34774.7 2227.77 -32459.9)
(-194690 2093.99 132.677 29270.4 2363.31 43443)
(-219808 -1141.22 -40.5477 35322.7 1451.59 36509)
(-64633.4 -1581.87 166.462 -37450.5 1541.45 -37817.8)
(-64026.6 1297.71 6.50156 -39074.2 1673.34 -38582.9)
(-199793 1046.91 102.895 36956.4 1858.56 40760.1)
(-232503 -26.342 -33.8058 38692.6 843.535 32800.2)
(-65190.8 -870.551 161.213 -39342.7 922.231 -42810.4)
(-64535.9 617.044 -10.7004 -40989.6 1045.03 -43691.1)
(-211971 -54.2472 88.1073 40331.6 1224.5 36743.1)
(-258225 1713.83 -39.3377 31931.7 297.76 26306.8)
(-73118.5 87.4877 146.753 -44970.6 371.728 -49541.5)
(-72447.9 -340.813 -24.4506 -46619.5 476.135 -50524.4)
(-237123 -1836.49 83.0989 33653.5 626.181 30030.2)
(-308282 5446.44 -45.6064 -40905.9 -94.0862 9681.37)
(-100139 1661.4 128.045 -106009 -25.428 -66577.5)
(-99494.5 -2032.02 -50.9834 -107060 46.3779 -67510.1)
(-286752 -5729.42 71.9063 -37878.3 141.905 13529.6)
(-303786 8246.15 -54.4762 -324580 38.9715 72767)
(-44246.9 3525.56 93.1766 -346672 75.0973 7187.91)
(-43145.8 -3722.92 -106.928 -342425 98.7415 7066.78)
(-281925 -8556.46 41.6512 -308085 121.205 78102)
(-187886 5155.65 -30.5071 97539.4 698.912 58642.4)
(-21988 -10607.2 22.7493 4649.38 835.986 816.685)
(-21741.3 10365.2 7.49837 2981.62 880.073 388.283)
(-169878 -4981.71 39.602 98483.6 830.138 63519.5)
(-207990 -2019.45 -34.4146 21299.2 718.588 41305.3)
(-58588.8 -4123.8 37.5112 -23791.9 804.976 -21623.6)
(-58024.7 3851.1 19.7238 -25403.6 849.678 -22082.6)
(-188721 1944.61 53.8804 23279.2 852.993 46521.1)
(-212073 -2187.82 -23.7361 27306.4 656.839 39041.8)
(-65433.7 -2406.36 46.5445 -33637.1 703.157 -31559.6)
(-64862.1 2087.78 16.3275 -35238.8 747.759 -32161.7)
(-192482 2068.81 46.1848 29085.7 792.914 43806)
(-217599 -1133.31 -16.14 35027.4 499.912 36886.6)
(-64425.2 -1584.46 49.7435 -37896.7 530.479 -37396.3)
(-63826.1 1281.12 9.08988 -39504.8 574.151 -38125.2)
(-197603 1032.09 37.5166 36723.8 634.591 41268.9)
(-230297 -26.2907 -14.3983 38468.9 297.839 33185.9)
(-65014.6 -876.553 47.6111 -39708.3 325.222 -42393.5)
(-64367 608.393 3.66593 -41348.3 366.076 -43238.3)
(-209782 -59.6067 33.0633 40145.3 424.653 37258.7)
(-255988 1713.26 -16.3305 31833.6 110.329 26583.4)
(-72978.4 84.198 42.7013 -45223 136.395 -49262.4)
(-72314.3 -347.897 -1.16917 -46870.6 171.227 -50210.2)
(-234897 -1839.5 31.3463 33576.7 220.072 30433.9)
(-305926 5453.91 -18.3879 -40618.1 -23.5142 9795.68)
(-100001 1666.87 36.4938 -105885 0.908087 -66489.3)
(-99361.9 -2044.62 -10.4723 -106938 24.8978 -67387.1)
(-284392 -5739.32 27.4015 -37577.8 55.5249 13769.2)
(-301277 8257.06 -21.602 -322006 12.9794 72672.5)
(-43968.8 3531.88 24.3167 -344232 26.3929 7143.9)
(-42870.4 -3735.08 -28.9383 -339984 34.298 7059.37)
(-279380 -8570.88 17.3851 -305495 40.5399 78136.5)
)
;

boundaryField
{
    interface
    {
        type            calculated;
        value           nonuniform List<symmTensor> 
192
(
(-53.3186 0.320519 3.38787 862894 14437.1 285172)
(-55.2669 0.136233 5.20572 625894 -1766.46 248130)
(-56.4047 -0.211491 5.61996 641939 -2969.46 255067)
(-57.1231 -0.610891 5.64082 672140 -1702.57 264815)
(-57.1528 -0.951111 5.48906 703170 -300.934 276406)
(-57.887 -1.59708 5.27485 735315 1601.68 292825)
(-56.0847 -2.0599 4.79285 709334 5190.24 312150)
(-59.4559 -4.43074 4.40014 330764 8355.82 330832)
(-51.7949 0.211081 1.70998 692247 -13332.6 557334)
(-52.765 0.0353542 2.80458 566010 -4643.5 503404)
(-53.4302 -0.287767 2.99851 569752 -3669.24 510798)
(-53.9347 -0.708396 2.95453 587171 -3249.48 528481)
(-53.7875 -1.07869 2.81007 612884 -1626.78 552996)
(-54.4935 -1.80214 2.62914 647517 784.668 589577)
(-52.4633 -2.3193 2.3171 639725 2984.1 639068)
(-56.1091 -4.83227 2.0571 312344 5279.88 709346)
(-54.6303 0.17724 1.36722 594768 89.5131 537263)
(-55.5021 -0.0101266 2.22251 507619 1836.71 509331)
(-56.1682 -0.34215 2.37124 517864 464.671 513811)
(-56.6749 -0.800823 2.33345 534894 -708.387 529163)
(-56.4145 -1.21871 2.21713 559421 -329.502 553499)
(-57.0158 -2.03146 2.06942 594559 935.069 591391)
(-54.4983 -2.63194 1.83371 591350 1464.6 646400)
(-57.9403 -5.33101 1.62444 293432 1980.35 735702)
(-54.7617 0.127084 0.859181 541848 4082.03 496406)
(-55.4374 -0.0784593 1.46078 463796 4724.26 478152)
(-55.9578 -0.415499 1.55871 477901 3223.34 482444)
(-56.3818 -0.891351 1.52082 497544 1519.18 495118)
(-56.025 -1.3332 1.42924 523192 751.164 517523)
(-56.5732 -2.18745 1.31765 558347 655.798 554852)
(-53.8978 -2.82541 1.16193 556111 245.46 611520)
(-57.3318 -5.58108 1.02668 277538 660.089 705365)
(-55.5915 0.105085 0.636402 512221 4177.68 470027)
(-56.2055 -0.118403 1.07987 436987 4649.5 454887)
(-56.6618 -0.468395 1.15293 452046 3794.26 460102)
(-57.0458 -0.962529 1.12484 473298 2391.69 471782)
(-56.6152 -1.42815 1.05709 500127 1248.59 492966)
(-57.0928 -2.31783 0.973294 535440 486.743 529732)
(-54.2334 -2.99089 0.861584 533765 -193.669 586425)
(-57.551 -5.79897 0.761275 267093 218.134 680137)
(-55.7724 0.0868078 0.396469 494867 3281.48 454386)
(-56.3324 -0.150681 0.689116 421125 3529 440293)
(-56.7303 -0.510171 0.737497 436231 3110.79 446317)
(-57.0774 -1.01525 0.717294 458033 2195.51 457971)
(-56.5991 -1.49467 0.671229 485481 1217.49 478677)
(-57.0399 -2.4033 0.614945 520992 410.663 514944)
(-54.0966 -3.09516 0.544269 519812 -193.98 570988)
(-57.3804 -5.93114 0.481604 260540 82.2352 663700)
(-56.0424 0.0786337 0.234528 484993 2058.3 445574)
(-56.5841 -0.168663 0.406361 412130 2149.01 431875)
(-56.9512 -0.536327 0.435143 427150 1949.07 438368)
(-57.2778 -1.04979 0.423376 449049 1451.59 450236)
(-56.767 -1.53951 0.396585 476722 843.535 470830)
(-57.176 -2.46129 0.36313 512364 297.76 506739)
(-54.1643 -3.1666 0.322469 511538 -94.0862 562125)
(-57.4048 -6.02257 0.284739 256649 38.9715 653996)
(-56.0974 0.0730182 0.0707112 480476 698.912 441579)
(-56.6251 -0.178978 0.126089 408024 718.588 428030)
(-56.9749 -0.549938 0.135397 422990 656.839 434725)
(-57.2903 -1.06661 0.131324 444880 499.912 446739)
(-56.7669 -1.56071 0.122617 472610 297.839 467327)
(-57.1624 -2.48764 0.111713 508308 110.329 503057)
(-54.1309 -3.19919 0.0992748 507657 -23.5142 558071)
(-57.3505 -6.06373 0.087236 254822 12.9794 649501)
(344911 14067.8 -5.00815 901093 -0.931272 -21.853)
(304610 -1963.13 -8.00198 662885 -0.929586 -16.9828)
(311398 -2780.33 -8.76513 679109 -0.637916 -13.9481)
(323309 -1215.73 -8.90743 710089 -0.439937 -13.2508)
(336842 30.5095 -8.87451 741815 -0.370071 -13.712)
(354044 1502.25 -8.85142 774455 -0.426401 -15.046)
(374538 4868.74 -8.81872 749711 -0.520288 -17.5352)
(397839 7537.13 -9.37488 374177 -0.733607 -19.7918)
(631788 -9989.77 -3.35619 783919 -0.502944 -27.9372)
(562672 -3910.51 -5.91987 636247 -0.583023 -26.8534)
(568688 -2230.22 -6.4949 632940 -0.372693 -26.0177)
(590441 -1219.52 -6.56338 647839 -0.179101 -25.8951)
(618310 -463.992 -6.54383 673432 -0.0646869 -26.1085)
(655295 299.266 -6.58331 708579 -0.0150933 -26.6205)
(702530 1608.81 -6.72056 701261 -0.0220041 -27.4274)
(771960 3261.7 -7.5048 363961 -0.101045 -28.0411)
(625557 12889.5 -3.56002 775160 -0.311076 -24.7001)
(556301 6256.21 -6.2673 627362 -0.369598 -23.8888)
(561985 4016.8 -6.91258 623906 -0.205952 -23.1505)
(583573 2537.64 -6.9962 638802 -0.0130688 -23.0109)
(611366 1397.3 -6.95581 664381 0.130423 -23.2419)
(648251 269.568 -6.9407 699479 0.251854 -23.7202)
(695269 -1509.33 -6.98544 692561 0.330957 -24.6056)
(764944 -3345.58 -7.6808 360133 0.343428 -25.5689)
(339556 -12448.2 -4.18353 875197 -0.226645 -25.3678)
(299679 2987.33 -7.35914 639313 -0.249153 -24.8721)
(305980 3520.68 -8.15585 655268 -0.0934353 -24.2969)
(317685 1769.29 -8.27365 686184 0.108005 -24.2237)
(331129 362.727 -8.21145 717857 0.262873 -24.439)
(348084 -1300.69 -8.1724 750322 0.424766 -24.7455)
(367743 -4956.09 -8.10134 726246 0.554607 -25.3369)
(390708 -7766.06 -8.78476 363675 0.702952 -25.9871)
(-11.2301 0.938775 1.68438 830312 15729 269147)
(-6.9495 0.772455 2.88061 595065 -876.924 231189)
(-4.4547 0.171223 3.13295 611027 -2353.17 237781)
(-3.51965 -0.392035 3.1645 641128 -1234.68 247218)
(-3.71783 -0.708508 3.13144 672046 89.0749 258595)
(-2.83511 -1.20139 3.22664 704237 1958.56 275088)
(-4.60732 -1.20845 3.19507 680042 5535.59 295334)
(4.62617 -3.55712 3.6083 315924 8637.92 315989)
(-18.664 0.338216 0.127324 657326 -10735.5 529242)
(-17.7585 0.22315 0.573243 533160 -2820.19 474404)
(-17.1453 -0.12125 0.592023 537063 -2289.55 480774)
(-16.6375 -0.499701 0.568166 554237 -2134.39 497599)
(-16.6841 -0.673949 0.579672 579508 -677.091 521373)
(-15.0349 -1.06746 0.738324 613761 1611.94 557364)
(-15.6214 -0.82355 0.892844 607415 3641.89 607049)
(-4.53557 -3.15251 1.28968 295380 5599.81 680169)
(-18.6689 0.173264 0.367774 561234 2146.64 509458)
(-17.9736 0.0319158 0.88164 475214 3613.48 480268)
(-17.4274 -0.220211 0.984477 485407 1973.21 483557)
(-16.7932 -0.537041 0.998061 502099 592.109 497866)
(-16.7035 -0.647133 1.00973 526065 804.536 521225)
(-14.6192 -1.00662 1.1056 560627 1905.25 558213)
(-14.9116 -0.662405 1.16821 558526 2190.08 613048)
(-2.58145 -3.18281 1.32862 275341 2263.5 704912)
(-20.5512 0.0733762 0.199133 510051 5591.5 469754)
(-20.1658 -0.0872141 0.60653 432505 6158.5 450264)
(-19.8453 -0.286043 0.698024 446255 4539.75 453338)
(-19.1913 -0.549551 0.712054 465411 2714.69 464887)
(-18.981 -0.596112 0.720684 490396 1817.66 486183)
(-16.4882 -0.912042 0.787315 524843 1561.77 522438)
(-16.3692 -0.488265 0.826722 523453 901.429 578708)
(-3.13262 -3.08938 0.919725 259110 894.55 674762)
(-20.7601 0.0572132 0.245711 481769 5246.5 444224)
(-20.3813 -0.115557 0.588613 406646 5707.49 427918)
(-20.0544 -0.303709 0.676935 421113 4812.39 431932)
(-19.3237 -0.55448 0.693698 441728 3351.88 442454)
(-19.0343 -0.577538 0.696356 467792 2122.74 462462)
(-16.3282 -0.882084 0.728184 502291 1230.71 498060)
(-16.0657 -0.429663 0.731321 501288 339.118 554213)
(-2.3152 -3.12068 0.755635 248543 404.203 649865)
(-21.2873 0.0497023 0.158129 465318 3990.51 429119)
(-20.9281 -0.12892 0.395019 391442 4244.72 413922)
(-20.6061 -0.312055 0.459074 405797 3818.99 418770)
(-19.8257 -0.5551 0.471617 426844 2880.56 429257)
(-19.4704 -0.561205 0.473411 453440 1851.48 448753)
(-16.5921 -0.856001 0.492495 488054 953.685 483796)
(-16.1897 -0.383116 0.492306 487431 194.959 539203)
(-2.06052 -3.12732 0.503476 241899 217.635 633675)
(-21.3897 0.0509029 0.110679 455994 2462.46 420621)
(-21.0205 -0.130864 0.254224 382858 2561.12 405864)
(-20.6832 -0.313935 0.293774 397031 2363.31 411204)
(-19.8656 -0.555928 0.301534 418101 1858.56 421904)
(-19.4726 -0.555568 0.302105 444860 1224.5 441271)
(-16.5033 -0.847785 0.310057 479549 626.181 475925)
(-16.0404 -0.366526 0.306798 479208 141.905 530616)
(-1.69221 -3.14852 0.3064 237950 121.205 624137)
(-21.5146 0.0501206 0.0309275 451737 830.138 416773)
(-21.1467 -0.132667 0.077229 378947 852.993 402189)
(-20.8038 -0.314983 0.0902277 393023 792.914 407743)
(-19.9689 -0.555711 0.092737 414047 634.591 418592)
(-19.553 -0.551834 0.093244 440833 424.653 437946)
(-16.5368 -0.841708 0.0959924 475548 220.072 472406)
(-16.0301 -0.356397 0.0959273 475349 55.5249 526696)
(-1.5792 -3.15535 0.0959111 236092 40.5399 619724)
(398044 9.41731 -7468.19 -19.4954 -0.669785 374449)
(374678 8.87713 -4732.81 -17.0709 -0.455229 749811)
(354275 8.93495 -1404.39 -14.2532 -0.333563 774817)
(337865 8.99636 -303.338 -12.4153 -0.218226 744052)
(326760 9.1 -80.7577 -11.0158 -0.166793 718505)
(319595 9.1632 -63.6646 -10.0257 -0.103958 701782)
(315333 9.21432 -54.4762 -9.40372 -0.0649683 691886)
(313349 9.23682 -21.602 -9.10137 -0.0194518 687299)
(772169 7.53202 -3170.7 -27.7882 -0.0256398 364335)
(702779 6.75147 -1357.74 -27.0724 0.0544047 701781)
(656007 6.61797 -20.6977 -26.051 0.0909248 709655)
(620933 6.57849 455.655 -25.2721 0.0934255 675496)
(597836 6.59586 394.595 -24.6267 0.0737753 650826)
(583137 6.60329 218.594 -24.1473 0.0569046 635182)
(574450 6.61761 93.1766 -23.8376 0.0329399 625884)
(570418 6.62293 24.3167 -23.6726 0.0123933 621531)
(765131 7.7063 3401.5 -25.3214 0.426109 360507)
(695478 7.00864 1676.56 -24.2497 0.415252 693171)
(648867 6.96485 116.66 -23.1469 0.365848 700748)
(613828 6.98288 -443.454 -22.3945 0.291058 666776)
(590712 7.0345 -411.259 -21.7314 0.223593 642267)
(575992 7.06289 -239.004 -21.2844 0.155715 626733)
(567292 7.08899 -106.928 -20.9774 0.0917781 617505)
(563255 7.09917 -28.9383 -20.8348 0.03038 613185)
(390800 8.79487 7778.52 -25.7594 0.787231 363833)
(367806 8.10768 4986.52 -25.0147 0.640722 726460)
(348251 8.17863 1468.71 -24.2517 0.536522 751103)
(332102 8.22686 293.146 -23.7481 0.413466 720904)
(321064 8.31882 55.5113 -23.2329 0.319123 695807)
(313943 8.3681 42.4776 -22.9188 0.218871 679415)
(309712 8.41082 41.6512 -22.6811 0.131119 669738)
(307744 8.4284 17.3851 -22.5726 0.0428372 665261)
)
;
    }
    symmetry
    {
        type            symmetry;
    }
    bottom
    {
        type            calculated;
        value           nonuniform List<symmTensor> 
32
(
(-757192 50541.2 -5209.06 -9971.86 48625.9 -778732)
(-505723 37997.8 -3735.15 11532.2 -20101.9 -215196)
(-433374 29988.1 -1688.08 -4777.5 -4757.18 -133391)
(-399309 26181.3 -707.373 -8736.77 1883.24 -121461)
(-380190 24470.1 -324.204 -9834.86 3204.39 -117531)
(-369029 23637 -174.177 -10557.1 2835.07 -115296)
(-362685 23199.3 -94.1415 -10998.2 1859.06 -113920)
(-359777 23001.6 -30.5071 -11194.4 641.579 -113248)
(-227806 -11298.6 -1973.03 26731.9 44970.1 -560888)
(-63349.5 -12273.5 -673.976 29803.8 -12194.8 -68660.7)
(-41926 -13643.5 -2.80575 9353.57 1914.03 -12347.1)
(-38273.4 -13995.7 252.142 3430.93 5762.62 -11234.5)
(-37141.9 -13887.4 236.595 999.093 5238.57 -12508.4)
(-36872.2 -13724.9 150.113 -817.918 3873.98 -13331.7)
(-36822.7 -13620 76.0652 -2025.95 2357.77 -13796.6)
(-36809.6 -13573.9 22.7493 -2607.25 791.202 -14004.9)
(-225467 13586.1 1993.11 26404.8 45316.1 -555643)
(-63327.4 12964.5 958.633 26833.5 -11218.1 -69552.2)
(-41899.1 13512.8 289.007 6596.79 2673.03 -13463.4)
(-38229.8 13470.9 11.9722 1001.18 6312.24 -12179.6)
(-37110.6 13166.9 -23.8362 -1178.5 5628.16 -13326.1)
(-36849.9 12904.4 2.2593 -2814.38 4134.39 -14066)
(-36804.1 12750.4 14.9761 -3905.62 2507.26 -14479.3)
(-36792.3 12684.6 7.49837 -4429.83 839.928 -14662.7)
(-733629 -48955.6 5353.34 -9120.34 50159.5 -759152)
(-486815 -36920.8 3934.01 6710.26 -17065.7 -211439)
(-414250 -29298.6 1794.96 -7749.65 -2437.94 -129450)
(-380226 -25785.8 780.913 -10048.1 3560.76 -116785)
(-361200 -24262.7 382.917 -9948.55 4385.24 -112368)
(-350081 -23540.4 218.087 -9837.83 3616.3 -109803)
(-343749 -23163.6 121.191 -9755.77 2303.77 -108219)
(-340843 -22992.9 39.602 -9700.33 785.881 -107446)
)
;
    }
}


// ************************************************************************* //
