/*--------------------------------*- C++ -*----------------------------------*\
| =========                 |                                                 |
| \\      /  F ield         | OpenFOAM: The Open Source CFD Toolbox           |
|  \\    /   O peration     | Version:  v1912                                 |
|   \\  /    A nd           | Website:  www.openfoam.com                      |
|    \\/     M anipulation  |                                                 |
\*---------------------------------------------------------------------------*/
FoamFile
{
    version     2.0;
    format      ascii;
    class       volScalarField;
    location    "0.37/solid";
    object      T;
}
// * * * * * * * * * * * * * * * * * * * * * * * * * * * * * * * * * * * * * //

dimensions      [0 0 0 1 0 0 0];


internalField   nonuniform List<scalar> 
256
(
291.759
292.342
292.345
291.773
291.556
292.227
292.231
291.571
291.531
292.214
292.218
291.548
291.509
292.203
292.207
291.526
291.473
292.184
292.189
291.49
291.407
292.147
292.151
291.425
291.231
292.018
292.022
291.248
290.295
291.135
291.144
290.323
292.402
292.902
292.902
292.406
292.296
292.88
292.879
292.299
292.283
292.877
292.877
292.287
292.272
292.876
292.876
292.276
292.253
292.874
292.873
292.257
292.215
292.866
292.865
292.22
292.088
292.792
292.792
292.093
291.231
292.017
292.022
291.248
292.5
292.952
292.952
292.503
292.411
292.941
292.941
292.414
292.4
292.94
292.94
292.403
292.39
292.94
292.939
292.393
292.372
292.938
292.938
292.376
292.337
292.932
292.932
292.341
292.215
292.866
292.865
292.22
291.407
292.147
292.151
291.425
292.53
292.957
292.956
292.533
292.446
292.947
292.946
292.448
292.435
292.946
292.945
292.438
292.424
292.945
292.944
292.428
292.407
292.944
292.943
292.411
292.372
292.938
292.938
292.376
292.252
292.874
292.873
292.257
291.472
292.184
292.188
291.49
292.546
292.958
292.958
292.548
292.463
292.948
292.947
292.465
292.452
292.947
292.946
292.455
292.442
292.946
292.946
292.445
292.424
292.945
292.944
292.428
292.389
292.94
292.939
292.393
292.271
292.876
292.876
292.276
291.508
292.203
292.207
291.526
292.554
292.959
292.958
292.557
292.473
292.949
292.948
292.475
292.462
292.948
292.947
292.464
292.452
292.947
292.946
292.454
292.434
292.946
292.945
292.437
292.399
292.94
292.94
292.403
292.282
292.877
292.877
292.287
291.529
292.213
292.217
291.547
292.559
292.959
292.958
292.562
292.478
292.949
292.948
292.48
292.468
292.948
292.947
292.47
292.457
292.947
292.947
292.46
292.439
292.946
292.945
292.442
292.405
292.941
292.94
292.408
292.288
292.878
292.878
292.292
291.541
292.219
292.223
291.558
292.561
292.959
292.958
292.564
292.481
292.949
292.949
292.482
292.47
292.948
292.948
292.472
292.46
292.948
292.947
292.462
292.442
292.946
292.946
292.445
292.407
292.941
292.94
292.411
292.291
292.878
292.878
292.295
291.546
292.222
292.226
291.564
)
;

boundaryField
{
    interface
    {
        type            fixedValue;
        value           nonuniform List<scalar> 
192
(
290.128
289.985
289.933
289.865
289.76
289.586
289.249
288.284
290.92
290.836
290.795
290.739
290.651
290.5
290.19
289.248
291.199
291.127
291.089
291.036
290.951
290.804
290.499
289.584
291.339
291.27
291.233
291.181
291.097
290.95
290.648
289.757
291.419
291.352
291.315
291.263
291.179
291.033
290.734
289.859
291.466
291.4
291.364
291.312
291.228
291.083
290.786
289.922
291.494
291.428
291.392
291.34
291.256
291.111
290.816
289.959
291.506
291.441
291.404
291.352
291.269
291.124
290.83
289.976
290.029
289.887
289.834
289.765
289.66
289.485
289.143
288.17
290.684
290.595
290.553
290.497
290.409
290.257
289.942
288.972
290.707
290.619
290.578
290.523
290.435
290.284
289.969
289.003
290.105
289.968
289.918
289.852
289.748
289.573
289.232
288.269
290.223
290.086
290.036
289.971
289.867
289.694
289.354
288.395
291.008
290.926
290.887
290.834
290.748
290.599
290.29
289.354
291.285
291.216
291.18
291.13
291.048
290.902
290.599
289.694
291.423
291.357
291.322
291.273
291.191
291.047
290.748
289.867
291.501
291.437
291.403
291.353
291.272
291.129
290.833
289.97
291.548
291.484
291.45
291.401
291.32
291.178
290.885
290.033
291.575
291.511
291.477
291.428
291.347
291.206
290.914
290.07
291.587
291.524
291.49
291.441
291.36
291.219
290.928
290.087
288.169
289.141
289.482
289.656
289.759
289.823
289.86
289.877
288.971
289.941
290.255
290.406
290.492
290.545
290.575
290.589
289.002
289.968
290.282
290.433
290.519
290.572
290.602
290.617
288.269
289.232
289.573
289.746
289.85
289.913
289.951
289.968
)
;
    }
    symmetry
    {
        type            symmetry;
    }
    bottom
    {
        type            fixedValue;
        value           uniform 293;
    }
}


// ************************************************************************* //
