/*--------------------------------*- C++ -*----------------------------------*\
| =========                 |                                                 |
| \\      /  F ield         | OpenFOAM: The Open Source CFD Toolbox           |
|  \\    /   O peration     | Version:  v1912                                 |
|   \\  /    A nd           | Website:  www.openfoam.com                      |
|    \\/     M anipulation  |                                                 |
\*---------------------------------------------------------------------------*/
FoamFile
{
    version     2.0;
    format      ascii;
    class       volVectorField;
    location    "0.37/solid";
    object      U;
}
// * * * * * * * * * * * * * * * * * * * * * * * * * * * * * * * * * * * * * //

dimensions      [0 1 -1 0 0 0 0];


internalField   nonuniform List<vector> 
256
(
(4.20338e-08 3.95532e-08 4.63484e-08)
(8.25049e-09 2.09207e-08 3.9201e-08)
(-9.15022e-09 2.0515e-08 3.87941e-08)
(-4.13596e-08 3.7863e-08 4.49991e-08)
(7.00631e-08 2.46509e-08 9.76481e-08)
(1.66536e-08 1.19196e-08 8.81743e-08)
(-1.82343e-08 1.16879e-08 8.74282e-08)
(-6.95724e-08 2.40073e-08 9.52467e-08)
(7.29688e-08 -4.44857e-09 1.31608e-07)
(1.75726e-08 -9.32601e-09 1.21822e-07)
(-1.99348e-08 -9.24741e-09 1.20911e-07)
(-7.3267e-08 -4.03676e-09 1.287e-07)
(7.0029e-08 -3.4188e-08 1.61211e-07)
(1.57178e-08 -3.70928e-08 1.50362e-07)
(-1.92411e-08 -3.6709e-08 1.4934e-07)
(-7.14811e-08 -3.28885e-08 1.5796e-07)
(6.95377e-08 -6.56801e-08 1.91717e-07)
(1.46414e-08 -7.11126e-08 1.79143e-07)
(-1.97053e-08 -7.04548e-08 1.7803e-07)
(-7.25051e-08 -6.35971e-08 1.88189e-07)
(7.79501e-08 -1.03007e-07 2.26697e-07)
(1.71973e-08 -1.12246e-07 2.12198e-07)
(-2.41767e-08 -1.1134e-07 2.11e-07)
(-8.28052e-08 -1.00208e-07 2.22924e-07)
(1.03093e-07 -1.58937e-07 2.69161e-07)
(2.55226e-08 -1.65211e-07 2.53815e-07)
(-3.48596e-08 -1.64063e-07 2.52517e-07)
(-1.1018e-07 -1.55426e-07 2.65127e-07)
(1.41148e-07 -2.57056e-07 3.11501e-07)
(3.48027e-08 -2.43566e-07 2.98258e-07)
(-4.71254e-08 -2.41961e-07 2.96826e-07)
(-1.50762e-07 -2.52156e-07 3.07145e-07)
(2.12082e-08 1.12438e-08 1.52377e-08)
(3.78157e-09 -1.58478e-09 1.86854e-08)
(-4.13282e-09 -1.73589e-09 1.85223e-08)
(-2.02998e-08 1.01963e-08 1.47319e-08)
(3.65891e-08 -6.09651e-09 5.05698e-08)
(8.33487e-09 -1.52512e-08 5.71439e-08)
(-8.75343e-09 -1.5308e-08 5.67107e-08)
(-3.54194e-08 -6.36268e-09 4.9287e-08)
(3.7375e-08 -3.08748e-08 8.26063e-08)
(8.52675e-09 -3.44995e-08 9.01389e-08)
(-9.3454e-09 -3.43369e-08 8.95443e-08)
(-3.66539e-08 -3.03188e-08 8.08463e-08)
(3.41248e-08 -5.81494e-08 1.11506e-07)
(6.77498e-09 -6.05622e-08 1.18959e-07)
(-8.47965e-09 -6.01425e-08 1.18261e-07)
(-3.42964e-08 -5.68172e-08 1.09422e-07)
(3.29868e-08 -8.80591e-08 1.40175e-07)
(5.73029e-09 -9.31389e-08 1.47161e-07)
(-8.76105e-09 -9.24693e-08 1.46378e-07)
(-3.44576e-08 -8.59978e-08 1.37822e-07)
(4.0274e-08 -1.21592e-07 1.70356e-07)
(8.12521e-09 -1.30633e-07 1.76864e-07)
(-1.28934e-08 -1.29731e-07 1.75999e-07)
(-4.34389e-08 -1.18852e-07 1.67749e-07)
(6.44143e-08 -1.64797e-07 1.9926e-07)
(1.62136e-08 -1.70847e-07 2.05628e-07)
(-2.3178e-08 -1.69733e-07 2.04683e-07)
(-6.96198e-08 -1.61408e-07 1.96405e-07)
(1.0286e-07 -2.34583e-07 2.13364e-07)
(2.52872e-08 -2.19002e-07 2.19956e-07)
(-3.50773e-08 -2.17514e-07 2.18963e-07)
(-1.10385e-07 -2.29964e-07 2.10355e-07)
(8.19213e-09 1.67202e-09 7.93429e-09)
(-3.79734e-11 -6.95275e-09 1.27567e-08)
(-1.10956e-10 -7.06616e-09 1.26385e-08)
(-7.15911e-09 6.66284e-10 7.59315e-09)
(1.41059e-08 -2.10861e-08 3.3624e-08)
(8.43331e-10 -2.71906e-08 4.23331e-08)
(-6.94702e-10 -2.72145e-08 4.20173e-08)
(-1.24983e-08 -2.13514e-08 3.27284e-08)
(1.31719e-08 -4.65951e-08 6.16663e-08)
(2.52322e-10 -4.91199e-08 7.14353e-08)
(-1.8604e-10 -4.89531e-08 7.09807e-08)
(-1.17143e-08 -4.61071e-08 6.03651e-08)
(1.00656e-08 -7.21925e-08 8.87177e-08)
(-1.38787e-09 -7.4416e-08 9.85579e-08)
(8.34354e-10 -7.40173e-08 9.80046e-08)
(-9.24429e-09 -7.09812e-08 8.71117e-08)
(9.01669e-09 -9.82338e-08 1.1461e-07)
(-2.34567e-09 -1.03346e-07 1.24273e-07)
(6.86795e-10 -1.02714e-07 1.23639e-07)
(-9.27475e-09 -9.63262e-08 1.12747e-07)
(1.61344e-08 -1.24481e-07 1.38492e-07)
(-4.91549e-11 -1.33548e-07 1.48004e-07)
(-3.16157e-09 -1.32698e-07 1.47296e-07)
(-1.78908e-08 -1.21923e-07 1.36396e-07)
(3.98387e-08 -1.55841e-07 1.55721e-07)
(7.79116e-09 -1.62019e-07 1.65217e-07)
(-1.30398e-08 -1.60973e-07 1.64449e-07)
(-4.34537e-08 -1.52666e-07 1.53426e-07)
(7.72854e-08 -2.12017e-07 1.574e-07)
(1.6613e-08 -1.97276e-07 1.67097e-07)
(-2.45523e-08 -1.95867e-07 1.66308e-07)
(-8.30511e-08 -2.07601e-07 1.55014e-07)
(3.36399e-09 -1.4129e-09 6.88459e-09)
(-1.44835e-09 -7.78636e-09 9.87666e-09)
(1.38335e-09 -7.91013e-09 9.78813e-09)
(-2.24567e-09 -2.481e-09 6.63604e-09)
(5.31227e-09 -2.66392e-08 2.7001e-08)
(-2.19406e-09 -3.10694e-08 3.23875e-08)
(2.63857e-09 -3.11202e-08 3.21575e-08)
(-3.4147e-09 -2.70298e-08 2.63594e-08)
(3.69606e-09 -5.32221e-08 4.99154e-08)
(-3.12005e-09 -5.51699e-08 5.59029e-08)
(3.71643e-09 -5.50409e-08 5.55663e-08)
(-1.72332e-09 -5.28892e-08 4.89636e-08)
(1.05363e-09 -7.76335e-08 7.28317e-08)
(-4.54964e-09 -7.98681e-08 7.87727e-08)
(4.75169e-09 -7.95168e-08 7.83528e-08)
(5.01834e-10 -7.65971e-08 7.16246e-08)
(6.09578e-10 -1.00051e-07 9.41017e-08)
(-5.25335e-09 -1.0532e-07 9.98357e-08)
(4.55158e-09 -1.04743e-07 9.93453e-08)
(6.61729e-11 -9.83319e-08 9.26728e-08)
(8.11809e-09 -1.20632e-07 1.11626e-07)
(-2.85394e-09 -1.29826e-07 1.17192e-07)
(7.74275e-10 -1.29036e-07 1.16641e-07)
(-8.76191e-09 -1.18272e-07 1.10001e-07)
(3.15635e-08 -1.45777e-07 1.21681e-07)
(4.82182e-09 -1.52373e-07 1.27235e-07)
(-8.79421e-09 -1.5139e-07 1.26637e-07)
(-3.39069e-08 -1.42797e-07 1.19899e-07)
(6.782e-08 -1.97203e-07 1.20213e-07)
(1.34096e-08 -1.8429e-07 1.26119e-07)
(-1.99577e-08 -1.82935e-07 1.25508e-07)
(-7.21765e-08 -1.92937e-07 1.18365e-07)
(2.12995e-09 -2.44834e-09 6.07061e-09)
(-1.61038e-09 -7.84315e-09 7.50325e-09)
(1.58956e-09 -7.9793e-09 7.44e-09)
(-9.55703e-10 -3.56951e-09 5.89521e-09)
(3.20718e-09 -2.79922e-08 2.17245e-08)
(-2.64508e-09 -3.17587e-08 2.42086e-08)
(3.26371e-09 -3.18443e-08 2.40463e-08)
(-1.1234e-09 -2.8507e-08 2.12765e-08)
(1.68537e-09 -5.45741e-08 3.92877e-08)
(-3.53245e-09 -5.63735e-08 4.19483e-08)
(4.46537e-09 -5.62902e-08 4.17092e-08)
(6.30275e-10 -5.43975e-08 3.86177e-08)
(-4.16127e-10 -7.78958e-08 5.69313e-08)
(-4.71822e-09 -8.02625e-08 5.94493e-08)
(5.4294e-09 -7.9962e-08 5.91465e-08)
(2.48239e-09 -7.70289e-08 5.60675e-08)
(-2.31459e-10 -9.79007e-08 7.28774e-08)
(-5.15315e-09 -1.0335e-07 7.51799e-08)
(5.12532e-09 -1.02826e-07 7.48214e-08)
(1.58097e-09 -9.63551e-08 7.18389e-08)
(7.67765e-09 -1.15445e-07 8.50693e-08)
(-2.61151e-09 -1.24772e-07 8.72156e-08)
(1.35259e-09 -1.24036e-07 8.68089e-08)
(-7.49892e-09 -1.13257e-07 8.38764e-08)
(3.08798e-08 -1.38174e-07 9.11334e-08)
(4.95385e-09 -1.45149e-07 9.32863e-08)
(-7.98234e-09 -1.44215e-07 9.28445e-08)
(-3.22697e-08 -1.35352e-07 8.98204e-08)
(6.62166e-08 -1.87788e-07 8.94558e-08)
(1.33791e-08 -1.76374e-07 9.19367e-08)
(-1.88864e-08 -1.7506e-07 9.14865e-08)
(-6.9508e-08 -1.83644e-07 8.80957e-08)
(1.96515e-09 -2.74705e-09 4.73931e-09)
(-1.45806e-09 -7.75828e-09 5.35803e-09)
(1.46221e-09 -7.90326e-09 5.31605e-09)
(-7.55856e-10 -3.90436e-09 4.62376e-09)
(3.18749e-09 -2.77709e-08 1.60329e-08)
(-2.34702e-09 -3.1364e-08 1.70099e-08)
(3.07106e-09 -3.1477e-08 1.69024e-08)
(-9.87005e-10 -2.83775e-08 1.57387e-08)
(2.02967e-09 -5.37132e-08 2.83627e-08)
(-3.06464e-09 -5.55687e-08 2.93114e-08)
(4.21006e-09 -5.5523e-08 2.91524e-08)
(5.06072e-10 -5.36588e-08 2.79207e-08)
(3.92362e-10 -7.60713e-08 4.06171e-08)
(-4.04048e-09 -7.85991e-08 4.14101e-08)
(5.08525e-09 -7.83405e-08 4.12071e-08)
(2.01194e-09 -7.53393e-08 4.00415e-08)
(1.03388e-09 -9.4735e-08 5.14612e-08)
(-4.27554e-09 -1.00334e-07 5.20847e-08)
(4.70292e-09 -9.98533e-08 5.18421e-08)
(7.73834e-10 -9.33266e-08 5.0762e-08)
(9.19662e-09 -1.10999e-07 5.94135e-08)
(-1.63211e-09 -1.20416e-07 5.99301e-08)
(9.40212e-10 -1.19723e-07 5.9653e-08)
(-8.44704e-09 -1.08944e-07 5.86038e-08)
(3.21866e-08 -1.32982e-07 6.30988e-08)
(5.85771e-09 -1.40179e-07 6.36394e-08)
(-8.22358e-09 -1.39284e-07 6.33376e-08)
(-3.29058e-08 -1.30282e-07 6.22039e-08)
(6.68886e-08 -1.81721e-07 6.186e-08)
(1.41785e-08 -1.71218e-07 6.26344e-08)
(-1.89466e-08 -1.69935e-07 6.23274e-08)
(-6.94236e-08 -1.77673e-07 6.09338e-08)
(1.99807e-09 -2.77831e-09 2.9975e-09)
(-1.32286e-09 -7.64078e-09 3.24951e-09)
(1.34033e-09 -7.79134e-09 3.22565e-09)
(-7.68356e-10 -3.95812e-09 2.93214e-09)
(3.47243e-09 -2.71825e-08 9.82848e-09)
(-2.04869e-09 -3.07673e-08 1.01765e-08)
(2.83282e-09 -3.08979e-08 1.01154e-08)
(-1.20358e-09 -2.78472e-08 9.66199e-09)
(2.6266e-09 -5.24384e-08 1.71204e-08)
(-2.62021e-09 -5.43902e-08 1.74022e-08)
(3.8904e-09 -5.43696e-08 1.73115e-08)
(4.01063e-11 -5.24643e-08 1.68695e-08)
(1.30458e-09 -7.40963e-08 2.42765e-08)
(-3.45344e-09 -7.67513e-08 2.44487e-08)
(4.69883e-09 -7.65213e-08 2.43322e-08)
(1.30467e-09 -7.34549e-08 2.39479e-08)
(2.21984e-09 -9.20942e-08 3.0519e-08)
(-3.56687e-09 -9.77916e-08 3.05889e-08)
(4.27366e-09 -9.73404e-08 3.0449e-08)
(-1.29326e-10 -9.07788e-08 3.01172e-08)
(1.05127e-08 -1.07908e-07 3.50044e-08)
(-8.66626e-10 -1.17371e-07 3.50177e-08)
(5.28531e-10 -1.16706e-07 3.48571e-08)
(-9.4056e-09 -1.05943e-07 3.45364e-08)
(3.33507e-08 -1.29722e-07 3.70233e-08)
(6.57544e-09 -1.37017e-07 3.70608e-08)
(-8.5226e-09 -1.36148e-07 3.68855e-08)
(-3.36452e-08 -1.27104e-07 3.65044e-08)
(6.76522e-08 -1.78008e-07 3.62955e-08)
(1.48312e-08 -1.67968e-07 3.64674e-08)
(-1.91277e-08 -1.66708e-07 3.62894e-08)
(-6.97043e-08 -1.74028e-07 3.57588e-08)
(2.02595e-09 -2.75164e-09 1.02378e-09)
(-1.25927e-09 -7.5601e-09 1.09269e-09)
(1.28247e-09 -7.71338e-09 1.08496e-09)
(-7.86813e-10 -3.94232e-09 1.00266e-09)
(3.6322e-09 -2.67795e-08 3.3099e-09)
(-1.90332e-09 -3.03812e-08 3.39583e-09)
(2.71466e-09 -3.05203e-08 3.37603e-09)
(-1.33171e-09 -2.74722e-08 3.25606e-09)
(2.94511e-09 -5.16307e-08 5.72096e-09)
(-2.40045e-09 -5.36422e-08 5.77855e-09)
(3.72827e-09 -5.36341e-08 5.74911e-09)
(-2.17266e-10 -5.16958e-08 5.63967e-09)
(1.77664e-09 -7.29275e-08 8.06908e-09)
(-3.16424e-09 -7.56494e-08 8.08822e-09)
(4.5036e-09 -7.54337e-08 8.05033e-09)
(9.29255e-10 -7.23312e-08 7.96233e-09)
(2.81691e-09 -9.06541e-08 1.01028e-08)
(-3.22158e-09 -9.63987e-08 1.00884e-08)
(4.06083e-09 -9.59623e-08 1.00427e-08)
(-5.91709e-10 -8.93853e-08 9.97186e-09)
(1.11626e-08 -1.06339e-07 1.15524e-08)
(-4.9682e-10 -1.15819e-07 1.15208e-08)
(3.28151e-10 -1.15168e-07 1.14682e-08)
(-9.88374e-09 -1.04419e-07 1.13994e-08)
(3.39225e-08 -1.28135e-07 1.21984e-08)
(6.92214e-09 -1.35463e-07 1.21767e-08)
(-8.66713e-09 -1.34607e-07 1.21192e-08)
(-3.40115e-08 -1.25559e-07 1.20285e-08)
(6.80288e-08 -1.76229e-07 1.19598e-08)
(1.51458e-08 -1.66375e-07 1.19815e-08)
(-1.92131e-08 -1.65126e-07 1.19232e-08)
(-6.9846e-08 -1.72283e-07 1.17841e-08)
)
;

boundaryField
{
    interface
    {
        type            calculated;
        value           nonuniform List<vector> 
192
(
(4.09497e-08 6.75774e-08 4.05993e-08)
(6.63396e-08 3.23845e-08 8.80708e-08)
(6.93634e-08 -4.45724e-09 1.21375e-07)
(6.69291e-08 -3.50459e-08 1.51052e-07)
(6.64374e-08 -6.36999e-08 1.8163e-07)
(7.36011e-08 -9.46181e-08 2.16555e-07)
(9.58413e-08 -1.43138e-07 2.58827e-07)
(1.4363e-07 -2.4662e-07 3.00946e-07)
(1.03401e-08 2.56931e-08 6.77761e-09)
(2.3849e-08 -2.05496e-09 3.65809e-08)
(2.41829e-08 -3.1491e-08 6.76574e-08)
(2.06808e-08 -5.92466e-08 9.65151e-08)
(1.88788e-08 -8.6522e-08 1.25045e-07)
(2.43755e-08 -1.13735e-07 1.54902e-07)
(4.53448e-08 -1.4915e-07 1.83446e-07)
(9.56742e-08 -2.24365e-07 1.97398e-07)
(-3.08433e-09 7.24647e-09 3.47356e-09)
(2.72661e-09 -1.98414e-08 2.58051e-08)
(1.51881e-09 -4.76054e-08 5.32469e-08)
(-1.83421e-09 -7.32315e-08 8.04502e-08)
(-3.37043e-09 -9.67168e-08 1.06515e-07)
(2.47405e-09 -1.16776e-07 1.30453e-07)
(2.40075e-08 -1.40553e-07 1.47508e-07)
(7.31034e-08 -2.01992e-07 1.4864e-07)
(-8.05445e-09 7.5611e-10 5.36925e-09)
(-5.49939e-09 -2.65563e-08 2.42765e-08)
(-7.23604e-09 -5.42869e-08 4.70439e-08)
(-1.00393e-08 -7.84053e-08 7.02115e-08)
(-1.08071e-08 -9.82853e-08 9.17898e-08)
(-4.24385e-09 -1.12894e-07 1.09512e-07)
(1.75916e-08 -1.30852e-07 1.19442e-07)
(6.50542e-08 -1.87271e-07 1.17446e-07)
(-9.46162e-09 -1.1141e-09 5.72107e-09)
(-7.60327e-09 -2.81035e-08 2.11935e-08)
(-9.15333e-09 -5.54801e-08 3.88713e-08)
(-1.13215e-08 -7.83753e-08 5.67662e-08)
(-1.13311e-08 -9.58775e-08 7.29836e-08)
(-4.17611e-09 -1.07668e-07 8.53391e-08)
(1.76882e-08 -1.23539e-07 9.12893e-08)
(6.37851e-08 -1.77913e-07 8.9223e-08)
(-9.67764e-09 -1.45894e-09 4.70645e-09)
(-7.63934e-09 -2.7755e-08 1.60993e-08)
(-8.77079e-09 -5.44122e-08 2.85981e-08)
(-1.03997e-08 -7.63205e-08 4.10473e-08)
(-9.86046e-09 -9.25342e-08 5.20741e-08)
(-2.34311e-09 -1.03211e-07 6.01223e-08)
(1.94376e-08 -1.18559e-07 6.37166e-08)
(6.45574e-08 -1.71905e-07 6.2219e-08)
(-9.63071e-09 -1.41073e-09 3.01277e-09)
(-7.33374e-09 -2.70255e-08 9.93974e-09)
(-8.12162e-09 -5.29806e-08 1.73493e-08)
(-9.38658e-09 -7.41982e-08 2.46226e-08)
(-8.51728e-09 -8.97924e-08 3.09648e-08)
(-8.12473e-10 -1.00126e-07 3.5496e-08)
(2.08748e-08 -1.15437e-07 3.74574e-08)
(6.5375e-08 -1.68248e-07 3.65806e-08)
(-9.5822e-09 -1.33715e-09 1.03078e-09)
(-7.15155e-09 -2.65498e-08 3.34987e-09)
(-7.76599e-09 -5.20948e-08 5.80061e-09)
(-8.85406e-09 -7.29598e-08 8.18711e-09)
(-7.83362e-09 -8.83078e-08 1.02521e-08)
(-5.16345e-11 -9.85629e-08 1.17149e-08)
(2.15803e-08 -1.13918e-07 1.23414e-08)
(6.57795e-08 -1.66503e-07 1.20539e-08)
(4.31204e-08 7.55524e-08 3.86765e-08)
(7.24821e-08 4.59659e-08 8.65967e-08)
(7.56377e-08 1.14424e-08 1.20718e-07)
(7.23954e-08 -1.91605e-08 1.5111e-07)
(7.1437e-08 -4.93086e-08 1.81819e-07)
(7.93954e-08 -8.36458e-08 2.15419e-07)
(1.04424e-07 -1.37736e-07 2.54361e-07)
(1.43114e-07 -2.46688e-07 3.05208e-07)
(6.36082e-09 5.27646e-08 2.42426e-08)
(1.40973e-08 3.25751e-08 6.89352e-08)
(1.48973e-08 6.22125e-09 1.01475e-07)
(1.27489e-08 -2.27625e-08 1.29686e-07)
(1.12186e-08 -5.56536e-08 1.57622e-07)
(1.32722e-08 -9.35779e-08 1.88188e-07)
(2.13607e-08 -1.43696e-07 2.25455e-07)
(3.11335e-08 -2.32846e-07 2.81617e-07)
(-7.70193e-09 5.20707e-08 2.3225e-08)
(-1.64677e-08 3.22174e-08 6.77095e-08)
(-1.82169e-08 6.23078e-09 1.00054e-07)
(-1.73429e-08 -2.24292e-08 1.28115e-07)
(-1.74451e-08 -5.50397e-08 1.55928e-07)
(-2.14963e-08 -9.27183e-08 1.86374e-07)
(-3.20326e-08 -1.42607e-07 2.235e-07)
(-4.49044e-08 -2.31266e-07 2.79423e-07)
(-4.28038e-08 7.29245e-08 3.53662e-08)
(-7.26615e-08 4.49326e-08 8.25811e-08)
(-7.67758e-08 1.16417e-08 1.16083e-07)
(-7.48079e-08 -1.80161e-08 1.46023e-07)
(-7.54624e-08 -4.7356e-08 1.76375e-07)
(-8.53939e-08 -8.09737e-08 2.09659e-07)
(-1.12739e-07 -1.34371e-07 2.48286e-07)
(-1.54053e-07 -2.41849e-07 2.987e-07)
(-3.46476e-08 6.5596e-08 3.90111e-08)
(-6.01715e-08 3.19844e-08 8.51627e-08)
(-6.38417e-08 -3.55922e-09 1.17791e-07)
(-6.24034e-08 -3.30787e-08 1.46999e-07)
(-6.3268e-08 -6.07657e-08 1.77197e-07)
(-7.21257e-08 -9.07891e-08 2.11787e-07)
(-9.62297e-08 -1.38437e-07 2.53707e-07)
(-1.45234e-07 -2.40327e-07 2.95404e-07)
(-4.74071e-09 2.41261e-08 6.18126e-09)
(-1.81124e-08 -2.27394e-09 3.50177e-08)
(-1.88008e-08 -3.05993e-08 6.54573e-08)
(-1.60608e-08 -5.7366e-08 9.38615e-08)
(-1.54125e-08 -8.37119e-08 1.22014e-07)
(-2.24213e-08 -1.10061e-07 1.5152e-07)
(-4.50971e-08 -1.44671e-07 1.79723e-07)
(-9.64387e-08 -2.18449e-07 1.93427e-07)
(8.51076e-09 5.58069e-09 3.07911e-09)
(3.14179e-09 -2.02125e-08 2.47265e-08)
(4.28083e-09 -4.69204e-08 5.16317e-08)
(7.12446e-09 -7.15908e-08 7.84114e-08)
(7.73811e-09 -9.41641e-08 1.04116e-07)
(6.0429e-10 -1.13378e-07 1.27727e-07)
(-2.24246e-08 -1.36376e-07 1.44498e-07)
(-7.23959e-08 -1.96356e-07 1.45461e-07)
(1.34482e-08 -1.06587e-09 5.08482e-09)
(1.15107e-08 -2.71603e-08 2.35151e-08)
(1.33928e-08 -5.38681e-08 4.58769e-08)
(1.59052e-08 -7.70442e-08 6.86924e-08)
(1.59627e-08 -9.60155e-08 8.99584e-08)
(8.31452e-09 -1.09778e-07 1.07402e-07)
(-1.48256e-08 -1.26942e-07 1.17103e-07)
(-6.30311e-08 -1.81845e-07 1.14979e-07)
(1.48383e-08 -3.04971e-09 5.52248e-09)
(1.37175e-08 -2.89033e-08 2.06692e-08)
(1.5565e-08 -5.52987e-08 3.806e-08)
(1.7612e-08 -7.72662e-08 5.56896e-08)
(1.70844e-08 -9.38592e-08 7.16617e-08)
(9.0119e-09 -1.04793e-07 8.37975e-08)
(-1.40038e-08 -1.19849e-07 8.95699e-08)
(-6.07314e-08 -1.7266e-07 8.74074e-08)
(1.50488e-08 -3.46861e-09 4.57674e-09)
(1.38259e-08 -2.86928e-08 1.57585e-08)
(1.53574e-08 -5.44083e-08 2.8068e-08)
(1.69859e-08 -7.54059e-08 4.03358e-08)
(1.60369e-08 -9.07113e-08 5.11894e-08)
(7.7266e-09 -1.00523e-07 5.90803e-08)
(-1.5092e-08 -1.15037e-07 6.25476e-08)
(-6.07568e-08 -1.66788e-07 6.09828e-08)
(1.50027e-08 -3.4651e-09 2.93977e-09)
(1.35676e-08 -2.80492e-08 9.74803e-09)
(1.48186e-08 -5.30911e-08 1.70502e-08)
(1.61593e-08 -7.34121e-08 2.42185e-08)
(1.49627e-08 -8.81006e-08 3.04584e-08)
(6.54673e-09 -9.75629e-08 3.48955e-08)
(-1.61035e-08 -1.12029e-07 3.67808e-08)
(-6.10907e-08 -1.63226e-07 3.58643e-08)
(1.49559e-08 -3.41265e-09 1.00724e-09)
(1.34088e-08 -2.76144e-08 3.28805e-09)
(1.45163e-08 -5.22608e-08 5.70397e-09)
(1.57168e-08 -7.22372e-08 8.05615e-09)
(1.44095e-08 -8.66814e-08 1.00874e-08)
(5.95662e-09 -9.60631e-08 1.15189e-08)
(-1.6601e-08 -1.10568e-07 1.21201e-08)
(-6.12579e-08 -1.61529e-07 1.18195e-08)
(1.42993e-07 -2.50847e-07 3.11066e-07)
(1.04073e-07 -2.19908e-07 2.02104e-07)
(7.86118e-08 -2.0096e-07 1.48055e-07)
(6.95574e-08 -1.87748e-07 1.14156e-07)
(6.83003e-08 -1.78596e-07 8.55851e-08)
(6.91701e-08 -1.72493e-07 5.94149e-08)
(7.00214e-08 -1.68732e-07 3.49226e-08)
(7.04274e-08 -1.66933e-07 1.1515e-08)
(3.10284e-08 -2.27005e-07 2.97477e-07)
(2.10193e-08 -1.90773e-07 2.08383e-07)
(1.25747e-08 -1.73502e-07 1.58419e-07)
(9.84153e-09 -1.63199e-07 1.20894e-07)
(1.01959e-08 -1.56404e-07 8.86685e-08)
(1.1231e-08 -1.51739e-07 6.05328e-08)
(1.20051e-08 -1.48712e-07 3.52568e-08)
(1.2369e-08 -1.47208e-07 1.15832e-08)
(-4.49786e-08 -2.2462e-07 2.96062e-07)
(-3.23377e-08 -1.886e-07 2.07439e-07)
(-2.19719e-08 -1.71434e-07 1.57663e-07)
(-1.77973e-08 -1.61199e-07 1.20306e-07)
(-1.70701e-08 -1.5445e-07 8.82366e-08)
(-1.73339e-08 -1.49817e-07 6.02395e-08)
(-1.7614e-08 -1.46811e-07 3.50872e-08)
(-1.77372e-08 -1.45318e-07 1.15278e-08)
(-1.54128e-07 -2.43745e-07 3.0675e-07)
(-1.13031e-07 -2.13168e-07 1.99216e-07)
(-8.57415e-08 -1.94431e-07 1.45757e-07)
(-7.52231e-08 -1.81378e-07 1.12376e-07)
(-7.28554e-08 -1.72345e-07 8.42799e-08)
(-7.29331e-08 -1.66328e-07 5.85297e-08)
(-7.32768e-08 -1.62627e-07 3.44114e-08)
(-7.34352e-08 -1.60857e-07 1.1348e-08)
)
;
    }
    symmetry
    {
        type            symmetry;
    }
    bottom
    {
        type            calculated;
        value           uniform (0 0 0);
    }
}


// ************************************************************************* //
