/*--------------------------------*- C++ -*----------------------------------*\
| =========                 |                                                 |
| \\      /  F ield         | OpenFOAM: The Open Source CFD Toolbox           |
|  \\    /   O peration     | Version:  v1912                                 |
|   \\  /    A nd           | Website:  www.openfoam.com                      |
|    \\/     M anipulation  |                                                 |
\*---------------------------------------------------------------------------*/
FoamFile
{
    version     2.0;
    format      ascii;
    class       surfaceScalarField;
    location    "0.16/fluid";
    object      meshPhi;
}
// * * * * * * * * * * * * * * * * * * * * * * * * * * * * * * * * * * * * * //

dimensions      [0 3 -1 0 0 0 0];
oriented        oriented;


internalField   nonuniform List<scalar> 
41600
(
2.45731e-13
-1.32828e-12
5.19245e-13
-5.33566e-13
4.58878e-13
-3.86639e-12
1.52034e-12
-1.56286e-12
6.37842e-13
-6.21853e-12
2.47534e-12
-2.54672e-12
7.80333e-13
-8.48011e-12
3.44104e-12
-3.54428e-12
8.83778e-13
-1.07224e-11
4.4698e-12
-4.60936e-12
9.43749e-13
-1.29757e-11
5.60402e-12
-5.78542e-12
9.55454e-13
-1.52294e-11
6.87734e-12
-7.10755e-12
9.13013e-13
-1.74405e-11
8.32108e-12
-8.6095e-12
8.09708e-13
-1.95273e-11
9.96569e-12
-1.03249e-11
6.42975e-13
-2.13377e-11
1.18361e-11
-1.22846e-11
4.26878e-13
-2.25839e-11
1.39494e-11
-1.45151e-11
2.48118e-13
-2.27032e-11
1.63218e-11
-1.70518e-11
3.24979e-13
-2.05805e-11
1.89977e-11
-1.99887e-11
1.10871e-12
-1.40806e-11
2.21073e-11
-2.35861e-11
3.1701e-12
-6.10885e-13
2.57173e-11
-2.80942e-11
2.52992e-11
3.40388e-11
-3.99723e-11
7.41293e-13
-2.62624e-12
1.5484e-12
-1.59122e-12
1.38456e-12
-7.64703e-12
4.53322e-12
-4.66081e-12
1.92648e-12
-1.2305e-11
7.38005e-12
-7.59463e-12
2.36194e-12
-1.67824e-11
1.02563e-11
-1.05663e-11
2.68377e-12
-2.12133e-11
1.33141e-11
-1.37316e-11
2.88134e-12
-2.56673e-11
1.66801e-11
-1.72207e-11
2.94296e-12
-3.01466e-11
2.04589e-11
-2.11437e-11
2.85519e-12
-3.45904e-11
2.47459e-11
-2.56029e-11
2.60394e-12
-3.88645e-11
2.9628e-11
-3.06956e-11
2.18235e-12
-4.27224e-11
3.51713e-11
-3.65028e-11
1.63874e-12
-4.57247e-11
4.1408e-11
-4.30795e-11
1.21259e-12
-4.71039e-11
4.83343e-11
-5.04666e-11
1.46703e-12
-4.56466e-11
5.59402e-11
-5.87555e-11
3.53311e-12
-3.98184e-11
6.42554e-11
-6.82019e-11
8.65411e-12
-2.92985e-11
7.30003e-11
-7.86758e-11
-1.66453e-11
8.26046e-11
-9.13553e-11
1.24744e-12
-3.85161e-12
2.5466e-12
-2.61733e-12
2.33184e-12
-1.12198e-11
7.45511e-12
-7.66645e-12
3.25175e-12
-1.80639e-11
1.21355e-11
-1.2491e-11
4.00309e-12
-2.46444e-11
1.68574e-11
-1.73696e-11
4.57748e-12
-3.11562e-11
2.1863e-11
-2.255e-11
4.96449e-12
-3.77191e-11
2.73609e-11
-2.82477e-11
5.1535e-12
-4.43713e-11
3.35311e-11
-3.46526e-11
5.13507e-12
-5.1067e-11
4.05349e-11
-4.19385e-11
4.89869e-12
-5.76681e-11
4.85122e-11
-5.02611e-11
4.44393e-12
-6.39109e-11
5.75607e-11
-5.97378e-11
3.85376e-12
-6.93336e-11
6.77057e-11
-7.0422e-11
3.43317e-12
-7.31938e-11
7.88697e-11
-8.22835e-11
3.84192e-12
-7.44868e-11
9.08409e-11
-9.52e-11
6.36759e-12
-7.22782e-11
1.03204e-10
-1.0891e-10
1.22608e-11
-6.69197e-11
1.14976e-10
-1.22291e-10
-5.99334e-11
1.27022e-10
-1.3778e-10
1.76699e-12
-4.9579e-12
3.48874e-12
-3.58614e-12
3.30801e-12
-1.44483e-11
1.02133e-11
-1.05044e-11
4.62817e-12
-2.32749e-11
1.66234e-11
-1.71123e-11
5.72813e-12
-3.17711e-11
2.30798e-11
-2.37815e-11
6.60549e-12
-4.01913e-11
2.99033e-11
-3.08413e-11
7.25831e-12
-4.87124e-11
3.73777e-11
-3.85873e-11
7.68893e-12
-5.74266e-11
4.57572e-11
-4.72875e-11
7.90635e-12
-6.63347e-11
5.52707e-11
-5.7188e-11
7.92022e-12
-7.53405e-11
6.61145e-11
-6.85033e-11
7.75941e-12
-8.42262e-11
7.8423e-11
-8.13919e-11
7.52729e-12
-9.25957e-11
9.2229e-11
-9.59164e-11
7.4862e-12
-9.98096e-11
1.07411e-10
-1.11995e-10
8.11773e-12
-1.04965e-10
1.23584e-10
-1.29311e-10
1.03279e-11
-1.07044e-10
1.39901e-10
-1.47112e-10
1.50349e-11
-1.05665e-10
1.54666e-10
-1.63457e-10
-1.01015e-10
1.67733e-10
-1.79729e-10
2.29862e-12
-5.89982e-12
4.35125e-12
-4.47354e-12
4.31145e-12
-1.71994e-11
1.27388e-11
-1.31036e-11
6.05425e-12
-2.77229e-11
2.0731e-11
-2.13419e-11
7.53695e-12
-3.787e-11
2.87661e-11
-2.96394e-11
8.77019e-12
-4.79533e-11
3.72293e-11
-3.83944e-11
9.76947e-12
-5.82099e-11
4.64687e-11
-4.79711e-11
1.05629e-11
-6.87947e-11
5.68054e-11
-5.87086e-11
1.11931e-11
-7.97742e-11
6.85357e-11
-7.09222e-11
1.17152e-11
-9.11262e-11
8.19166e-11
-8.48901e-11
1.22144e-11
-1.02731e-10
9.71369e-11
-1.00829e-10
1.28311e-11
-1.14335e-10
1.14283e-10
-1.1886e-10
1.37782e-11
-1.25475e-10
1.33278e-10
-1.3895e-10
1.52686e-11
-1.35343e-10
1.53688e-10
-1.6073e-10
1.75588e-11
-1.42579e-10
1.7436e-10
-1.8312e-10
2.08573e-11
-1.45378e-10
1.92782e-10
-2.03291e-10
-1.41972e-10
2.076e-10
-2.21313e-10
2.8361e-12
-6.6369e-12
5.11579e-12
-5.26054e-12
5.32984e-12
-1.93542e-11
1.4977e-11
-1.5408e-11
7.5102e-12
-3.12147e-11
2.43673e-11
-2.50863e-11
9.40096e-12
-4.26764e-11
3.37862e-11
-3.48108e-11
1.10301e-11
-5.41056e-11
4.36681e-11
-4.50329e-11
1.24377e-11
-6.57946e-11
5.44092e-11
-5.61696e-11
1.36877e-11
-7.79609e-11
6.63868e-11
-6.86187e-11
1.48697e-11
-9.07417e-11
7.99578e-11
-8.27573e-11
1.61051e-11
-1.04203e-10
9.544e-11
-9.89272e-11
1.75688e-11
-1.18355e-10
1.13093e-10
-1.17421e-10
1.95089e-11
-1.33145e-10
1.33106e-10
-1.38477e-10
2.22287e-11
-1.48423e-10
1.55554e-10
-1.62237e-10
2.59249e-11
-1.63809e-10
1.80191e-10
-1.88553e-10
3.05187e-11
-1.78296e-10
2.05954e-10
-2.16494e-10
3.52113e-11
-1.89409e-10
2.29824e-10
-2.42703e-10
-1.89337e-10
2.49058e-10
-2.65681e-10
3.36767e-12
-7.13487e-12
5.76957e-12
-5.93379e-12
6.33914e-12
-2.0813e-11
1.68891e-11
-1.73773e-11
8.9583e-12
-3.35888e-11
2.7466e-11
-2.8278e-11
1.12644e-11
-4.59672e-11
3.80439e-11
-3.9198e-11
1.33042e-11
-5.8358e-11
4.90884e-11
-5.06238e-11
1.51447e-11
-7.10998e-11
6.1027e-11
-6.30063e-11
1.68883e-11
-8.44603e-11
7.42761e-11
-7.6785e-11
1.86755e-11
-9.86364e-11
8.9239e-11
-9.23839e-11
2.06987e-11
-1.13773e-10
1.06283e-10
-1.10196e-10
2.32437e-11
-1.29994e-10
1.25732e-10
-1.30586e-10
2.67269e-11
-1.47443e-10
1.47883e-10
-1.53919e-10
3.17204e-11
-1.66331e-10
1.7302e-10
-1.80583e-10
3.8871e-11
-1.86979e-10
2.01284e-10
-2.1089e-10
4.87639e-11
-2.09718e-10
2.32222e-10
-2.44697e-10
6.04704e-11
-2.33514e-10
2.63151e-10
-2.79168e-10
-2.58616e-10
2.90432e-10
-3.14773e-10
3.87691e-12
6.30426e-12
-6.48481e-12
-7.36758e-12
7.30674e-12
1.84503e-11
-1.89862e-11
-2.15007e-11
1.03482e-11
2.99852e-11
-3.08746e-11
-3.47262e-11
1.30544e-11
4.14785e-11
-4.27399e-11
-4.75794e-11
1.54889e-11
5.34094e-11
-5.50846e-11
-6.04988e-11
1.77422e-11
6.62175e-11
-6.83736e-11
-7.38511e-11
1.99475e-11
8.03379e-11
-8.3066e-11
-8.79357e-11
2.22845e-11
9.61975e-11
-9.96088e-11
-1.02988e-10
2.50009e-11
1.14186e-10
-1.18418e-10
-1.19196e-10
2.84612e-11
1.34649e-10
-1.39888e-10
-1.3674e-10
3.3212e-11
1.5793e-10
-1.64445e-10
-1.55844e-10
4.00575e-11
1.84425e-10
-1.92619e-10
-1.76843e-10
5.01042e-11
2.14549e-10
-2.25058e-10
-2.0027e-10
6.48002e-11
2.48419e-10
-2.62359e-10
-2.26856e-10
8.34745e-11
2.83834e-10
-3.02447e-10
-2.5567e-10
3.20131e-10
-3.55425e-10
-2.96484e-10
2.14549e-13
-1.35817e-12
4.83409e-13
3.97142e-13
-3.95421e-12
1.41548e-12
5.43133e-13
-6.36191e-12
2.30471e-12
6.46454e-13
-8.67966e-12
3.20309e-12
6.99364e-13
-1.09832e-11
4.15791e-12
6.91499e-13
-1.33083e-11
5.20801e-12
6.09322e-13
-1.56499e-11
6.3843e-12
4.32853e-13
-1.79716e-11
7.71409e-12
1.3124e-13
-2.02065e-11
9.22123e-12
-3.40653e-13
-2.22336e-11
1.09197e-11
-1.03873e-12
-2.38327e-11
1.28031e-11
-2.02889e-12
-2.4599e-11
1.4834e-11
-3.43089e-12
-2.37958e-11
1.69226e-11
-5.49906e-12
-2.01773e-11
1.88594e-11
-8.4142e-12
-1.25453e-11
2.01619e-11
-1.4046e-12
1.92842e-11
6.49118e-13
-2.68504e-12
1.44133e-12
1.20259e-12
-7.8187e-12
4.21967e-12
1.6481e-12
-1.25833e-11
6.86915e-12
1.96935e-12
-1.7169e-11
9.54365e-12
2.14506e-12
-2.17199e-11
1.23818e-11
2.1474e-12
-2.63143e-11
1.54992e-11
1.93996e-12
-3.09616e-11
1.89908e-11
1.47016e-12
-3.56118e-11
2.29393e-11
6.57661e-13
-4.01536e-11
2.74136e-11
-6.10619e-13
-4.43875e-11
3.2449e-11
-2.46393e-12
-4.79733e-11
3.80171e-11
-5.0193e-12
-5.0358e-11
4.3989e-11
-8.41747e-12
-5.07553e-11
5.00543e-11
-1.28049e-11
-4.83858e-11
5.55361e-11
-1.78518e-11
-4.35358e-11
5.9139e-11
-4.05778e-11
5.59664e-11
1.09892e-12
-3.93734e-12
2.37032e-12
2.03975e-12
-1.14691e-11
6.93838e-12
2.80676e-12
-1.84668e-11
1.12922e-11
3.37838e-12
-2.5204e-11
1.56813e-11
3.72564e-12
-3.18887e-11
2.03276e-11
3.81188e-12
-3.86504e-11
2.54206e-11
3.58996e-12
-4.55342e-11
3.11216e-11
2.99371e-12
-5.25054e-11
3.75712e-11
1.92226e-12
-5.9448e-11
4.48811e-11
2.38867e-13
-6.61449e-11
5.31025e-11
-2.19922e-12
-7.2234e-11
6.21842e-11
-5.49408e-12
-7.71727e-11
7.1905e-11
-9.67102e-12
-8.03152e-11
8.17325e-11
-1.44288e-11
-8.1279e-11
9.05769e-11
-1.86392e-11
-8.07078e-11
9.66433e-11
-8.11738e-11
9.57486e-11
1.57042e-12
-5.06712e-12
3.24736e-12
2.9228e-12
-1.47658e-11
9.50525e-12
4.0438e-12
-2.37882e-11
1.54672e-11
4.91286e-12
-3.24835e-11
2.1468e-11
5.50239e-12
-4.11206e-11
2.78015e-11
5.77902e-12
-4.98851e-11
3.47246e-11
5.70237e-12
-5.88742e-11
4.24641e-11
5.21719e-12
-6.80956e-11
5.12205e-11
4.23748e-12
-7.7468e-11
6.11512e-11
2.64489e-12
-8.68096e-11
7.23343e-11
3.0901e-13
-9.57987e-11
8.47188e-11
-2.90989e-12
-1.0394e-10
9.80361e-11
-7.1472e-12
-1.10595e-10
1.11608e-10
-1.227e-11
-1.1518e-10
1.24043e-10
-1.72456e-11
-1.17648e-10
1.33104e-10
-1.19747e-10
1.34273e-10
2.06498e-12
-6.02828e-12
4.05077e-12
3.85505e-12
-1.75731e-11
1.1857e-11
5.36502e-12
-2.83273e-11
1.92908e-11
6.58209e-12
-3.87079e-11
2.67585e-11
7.48969e-12
-4.90414e-11
3.4613e-11
8.07072e-12
-5.95712e-11
4.31676e-11
8.31012e-12
-7.04542e-11
5.27093e-11
8.18882e-12
-8.17576e-11
6.34978e-11
7.67106e-12
-9.34643e-11
7.57424e-11
6.69989e-12
-1.0547e-10
8.95646e-11
5.18719e-12
-1.17552e-10
1.0495e-10
2.94684e-12
-1.29313e-10
1.21649e-10
-4.13098e-13
-1.40083e-10
1.38932e-10
-5.40596e-12
-1.4879e-10
1.55182e-10
-1.17467e-11
-1.54044e-10
1.67609e-10
-1.56722e-10
1.71062e-10
2.57754e-12
-6.77969e-12
4.76348e-12
4.82607e-12
-1.97698e-11
1.39426e-11
6.75318e-12
-3.18867e-11
2.26773e-11
8.35991e-12
-4.36064e-11
3.14305e-11
9.64789e-12
-5.53073e-11
4.05987e-11
1.06268e-11
-6.72863e-11
5.05388e-11
1.13214e-11
-7.97581e-11
6.15877e-11
1.17688e-11
-9.28544e-11
7.40589e-11
1.20118e-11
-1.06635e-10
8.82143e-11
1.21003e-11
-1.211e-10
1.0423e-10
1.20672e-11
-1.36181e-10
1.22159e-10
1.18271e-11
-1.51702e-10
1.4184e-10
1.09547e-11
-1.67259e-10
1.62619e-10
8.45888e-12
-1.81864e-10
1.82823e-10
3.35766e-12
-1.93295e-10
1.99163e-10
-1.96552e-10
2.05839e-10
3.09592e-12
-7.28666e-12
5.37311e-12
5.81087e-12
-2.12548e-11
1.57247e-11
8.16847e-12
-3.43031e-11
2.55628e-11
1.01867e-11
-4.69535e-11
3.53908e-11
1.18888e-11
-5.96272e-11
4.56337e-11
1.3316e-11
-7.26644e-11
5.66762e-11
1.45382e-11
-8.63263e-11
6.88908e-11
1.56551e-11
-1.00799e-10
8.2632e-11
1.67997e-11
-1.16209e-10
9.82034e-11
1.8156e-11
-1.32651e-10
1.15827e-10
1.99589e-11
-1.50209e-10
1.35624e-10
2.24397e-11
-1.68986e-10
1.57545e-10
2.56649e-11
-1.89116e-10
1.81108e-10
2.92485e-11
-2.10592e-10
2.04769e-10
3.18576e-11
-2.32137e-10
2.24882e-10
-2.52479e-10
2.34341e-10
3.60205e-12
5.87149e-12
-7.52297e-12
6.77363e-12
1.71787e-11
-2.1953e-11
9.55504e-12
2.7906e-11
-3.54569e-11
1.19809e-11
3.85806e-11
-4.85866e-11
1.40953e-11
4.96405e-11
-6.17903e-11
1.59683e-11
6.14822e-11
-7.54346e-11
1.77086e-11
7.44955e-11
-8.98099e-11
1.94674e-11
8.90553e-11
-1.05135e-10
2.14513e-11
1.05483e-10
-1.21576e-10
2.3954e-11
1.24013e-10
-1.39266e-10
2.7389e-11
1.44786e-10
-1.58342e-10
3.23062e-11
1.67812e-10
-1.78988e-10
3.93754e-11
1.9274e-10
-2.0145e-10
4.92888e-11
2.18235e-10
-2.25912e-10
6.11933e-11
2.40568e-10
-2.50895e-10
2.50985e-10
-2.78263e-10
1.81673e-13
-1.38363e-12
4.28542e-13
3.32178e-13
-4.02959e-12
1.25496e-12
4.43649e-13
-6.48682e-12
2.04387e-12
5.06009e-13
-8.85628e-12
2.84128e-12
5.06285e-13
-1.12164e-11
3.68829e-12
4.27829e-13
-1.36075e-11
4.61818e-12
2.4794e-13
-1.60313e-11
5.6569e-12
-6.76186e-14
-1.8462e-11
6.82625e-12
-5.73094e-13
-2.08511e-11
8.14274e-12
-1.35375e-12
-2.31176e-11
9.60952e-12
-2.5387e-12
-2.51287e-11
1.12047e-11
-4.34066e-12
-2.66768e-11
1.28625e-11
-7.17788e-12
-2.74682e-11
1.44416e-11
-1.18378e-11
-2.71885e-11
1.56675e-11
-1.88076e-11
-2.58493e-11
1.61005e-11
-2.38264e-11
1.63888e-11
5.52054e-13
-2.73493e-12
1.27781e-12
1.01127e-12
-7.96568e-12
3.74147e-12
1.35582e-12
-1.2825e-11
6.09224e-12
1.55777e-12
-1.75092e-11
8.46619e-12
1.58119e-12
-2.21687e-11
1.09839e-11
1.38018e-12
-2.68891e-11
1.37443e-11
8.92599e-13
-3.16896e-11
1.68271e-11
2.63974e-14
-3.6536e-11
2.02985e-11
-1.36205e-12
-4.13467e-11
2.42061e-11
-3.49069e-12
-4.59829e-11
2.85569e-11
-6.66921e-12
-5.02286e-11
3.3283e-11
-1.13569e-11
-5.37843e-11
3.81875e-11
-1.83096e-11
-5.63333e-11
4.28563e-11
-2.85862e-11
-5.7781e-11
4.652e-11
-4.1946e-11
-5.86507e-11
4.80812e-11
-6.1208e-11
4.6915e-11
9.42696e-13
-4.00982e-12
2.10185e-12
1.73289e-12
-1.16817e-11
6.15345e-12
2.33973e-12
-1.88143e-11
1.00173e-11
2.72356e-12
-2.56909e-11
1.39135e-11
2.83358e-12
-3.25283e-11
1.80352e-11
2.60583e-12
-3.94636e-11
2.25441e-11
1.95539e-12
-4.65507e-11
2.75758e-11
7.59274e-13
-5.37704e-11
3.32433e-11
-1.1708e-12
-6.10364e-11
3.96249e-11
-4.10923e-12
-6.81905e-11
4.67324e-11
-8.4217e-12
-7.49886e-11
5.44606e-11
-1.45941e-11
-8.11129e-11
6.25091e-11
-2.32216e-11
-8.62864e-11
7.02615e-11
-3.4591e-11
-9.05574e-11
7.66338e-11
-4.69621e-11
-9.44825e-11
8.02377e-11
-9.91437e-11
8.12653e-11
1.3636e-12
-5.15927e-12
2.88072e-12
2.518e-12
-1.50353e-11
8.43327e-12
3.43021e-12
-2.4227e-11
1.37258e-11
4.0572e-12
-3.30955e-11
1.90534e-11
4.34485e-12
-4.1919e-11
2.46711e-11
4.22703e-12
-5.08891e-11
3.07979e-11
3.61922e-12
-6.01078e-11
3.76244e-11
2.40154e-12
-6.95922e-11
4.5313e-11
3.91874e-13
-7.92811e-11
5.39778e-11
-2.67341e-12
-8.90333e-11
6.36452e-11
-7.15374e-12
-9.86101e-11
7.41973e-11
-1.35507e-11
-1.07673e-10
8.52835e-11
-2.24602e-11
-1.15849e-10
9.61764e-11
-3.40852e-11
-1.22906e-10
1.05617e-10
-4.65652e-11
-1.28876e-10
1.11991e-10
-1.34609e-10
1.15312e-10
1.81882e-12
-6.13639e-12
3.5953e-12
3.37463e-12
-1.78887e-11
1.05249e-11
4.6397e-12
-2.88396e-11
1.71259e-11
5.57676e-12
-3.94188e-11
2.37562e-11
6.14063e-12
-4.99615e-11
3.07212e-11
6.28002e-12
-6.07133e-11
3.82876e-11
5.93467e-12
-7.18302e-11
4.66971e-11
5.02151e-12
-8.338e-11
5.6162e-11
3.41111e-12
-9.53496e-11
6.6837e-11
9.05589e-13
-1.07646e-10
7.87759e-11
-2.80554e-12
-1.20073e-10
9.18742e-11
-8.24991e-12
-1.32291e-10
1.05775e-10
-1.62313e-11
-1.43772e-10
1.19696e-10
-2.75269e-11
-1.53717e-10
1.32234e-10
-4.10028e-11
-1.61063e-10
1.41446e-10
-1.66435e-10
1.4701e-10
2.30433e-12
-6.89951e-12
4.23005e-12
4.29389e-12
-2.01191e-11
1.23817e-11
5.95298e-12
-3.24522e-11
2.01392e-11
7.25798e-12
-4.4387e-11
2.79098e-11
8.18275e-12
-5.63089e-11
3.60364e-11
8.70451e-12
-6.85134e-11
4.48229e-11
8.80587e-12
-8.12084e-11
5.45538e-11
8.46596e-12
-9.45149e-11
6.54863e-11
7.64391e-12
-1.08479e-10
7.78158e-11
6.25929e-12
-1.23077e-10
9.16295e-11
4.13288e-12
-1.382e-10
1.06851e-10
8.43364e-13
-1.53611e-10
1.23145e-10
-4.47024e-12
-1.68846e-10
1.39719e-10
-1.3159e-11
-1.82924e-10
1.55038e-10
-2.54771e-11
-1.93906e-10
1.66789e-10
-1.97426e-10
1.74442e-10
2.80727e-12
-7.41377e-12
4.77327e-12
5.24955e-12
-2.1625e-11
1.39686e-11
7.32789e-12
-3.49008e-11
2.27058e-11
9.03729e-12
-4.77748e-11
3.14276e-11
1.03762e-11
-6.06726e-11
4.05019e-11
1.13572e-11
-7.39298e-11
5.02576e-11
1.20135e-11
-8.77952e-11
6.10098e-11
1.2396e-11
-1.02435e-10
7.30495e-11
1.25678e-11
-1.17946e-10
8.66025e-11
1.26e-11
-1.34369e-10
1.0178e-10
1.25335e-11
-1.51686e-10
1.18529e-10
1.22727e-11
-1.69825e-10
1.36539e-10
1.14049e-11
-1.88624e-10
1.55018e-10
8.99027e-12
-2.07619e-10
1.72293e-10
4.08978e-12
-2.25212e-10
1.85574e-10
-2.40445e-10
1.93828e-10
3.30793e-12
5.21697e-12
-7.65301e-12
6.20258e-12
1.52617e-11
-2.23314e-11
8.70348e-12
2.47862e-11
-3.60667e-11
1.08253e-11
3.42545e-11
-4.94207e-11
1.25915e-11
4.40472e-11
-6.28447e-11
1.40483e-11
5.45053e-11
-7.66981e-11
1.52744e-11
6.59592e-11
-9.12553e-11
1.63821e-11
7.87158e-11
-1.0671e-10
1.75237e-11
9.3011e-11
-1.23186e-10
1.8903e-11
1.08957e-10
-1.40746e-10
2.07717e-11
1.26496e-10
-1.59393e-10
2.33925e-11
1.4532e-10
-1.79079e-10
2.69813e-11
1.64637e-10
-1.99655e-10
3.16186e-11
1.82716e-10
-2.20649e-10
3.6652e-11
1.96448e-10
-2.40084e-10
2.0319e-10
-2.58023e-10
1.49634e-13
-1.40389e-12
3.57564e-13
2.69085e-13
-4.08979e-12
1.04733e-12
3.47329e-13
-6.5873e-12
1.70647e-12
3.70559e-13
-9.00024e-12
2.37369e-12
3.21149e-13
-1.14099e-11
3.08317e-12
1.76735e-13
-1.386e-11
3.86158e-12
-9.32086e-14
-1.6357e-11
4.72875e-12
-5.34192e-13
-1.88843e-11
5.70072e-12
-1.21755e-12
-2.14106e-11
6.78847e-12
-2.25488e-12
-2.38887e-11
7.99131e-12
-3.81931e-12
-2.62529e-11
9.28465e-12
-6.19835e-12
-2.84274e-11
1.06059e-11
-9.91878e-12
-3.03577e-11
1.18484e-11
-1.58448e-11
-3.20737e-11
1.2864e-11
-2.41638e-11
-3.36574e-11
1.34968e-11
-3.38954e-11
1.47931e-11
4.57608e-13
-2.77496e-12
1.06649e-12
8.25637e-13
-8.08438e-12
3.12357e-12
1.07298e-12
-1.30224e-11
5.08865e-12
1.16092e-12
-1.77906e-11
7.07592e-12
1.04033e-12
-2.2544e-11
9.18509e-12
6.49016e-13
-2.73733e-11
1.14954e-11
-9.70732e-14
-3.23056e-11
1.4068e-11
-1.32138e-12
-3.73215e-11
1.69525e-11
-3.21333e-12
-4.23665e-11
2.01811e-11
-6.05878e-12
-4.73523e-11
2.37492e-11
-1.02745e-11
-5.21574e-11
2.7582e-11
-1.6483e-11
-5.66478e-11
3.14963e-11
-2.56238e-11
-6.0744e-11
3.51778e-11
-3.87327e-11
-6.45237e-11
3.81806e-11
-5.46331e-11
-6.81084e-11
4.00562e-11
-7.19576e-11
4.05739e-11
7.90931e-13
-4.0683e-12
1.75518e-12
1.43548e-12
-1.18545e-11
5.14025e-12
1.88803e-12
-1.91003e-11
8.37247e-12
2.09215e-12
-2.60956e-11
1.16361e-11
1.97722e-12
-3.30626e-11
1.50893e-11
1.45487e-12
-4.01426e-11
1.88612e-11
4.07885e-13
-4.73978e-11
2.30575e-11
-1.3319e-12
-5.48237e-11
2.77639e-11
-4.0152e-12
-6.23604e-11
3.30346e-11
-8.00395e-12
-6.98973e-11
3.8862e-11
-1.37903e-11
-7.72749e-11
4.51307e-11
-2.20179e-11
-8.4313e-11
5.15663e-11
-3.33658e-11
-9.09036e-11
5.77001e-11
-4.77918e-11
-9.71423e-11
6.28798e-11
-6.22166e-11
-1.03141e-10
6.64756e-11
-1.08855e-10
6.88019e-11
1.16292e-12
-5.23398e-12
2.40727e-12
2.12587e-12
-1.52554e-11
7.04977e-12
2.83671e-12
-2.4589e-11
1.14804e-11
3.23139e-12
-3.36033e-11
1.5945e-11
3.23166e-12
-4.25811e-11
2.06512e-11
2.74221e-12
-5.17164e-11
2.57735e-11
1.6405e-12
-6.11156e-11
3.14621e-11
-2.44695e-13
-7.08052e-11
3.78421e-11
-3.16334e-12
-8.07403e-11
4.49931e-11
-7.46944e-12
-9.0808e-11
5.29132e-11
-1.36425e-11
-1.0082e-10
6.14674e-11
-2.23018e-11
-1.1052e-10
7.03309e-11
-3.40156e-11
-1.19639e-10
7.89502e-11
-4.84699e-11
-1.27975e-10
8.65681e-11
-6.24147e-11
-1.35284e-10
9.241e-11
-1.41637e-10
9.65847e-11
1.57994e-12
-6.22431e-12
3.00673e-12
2.90891e-12
-1.81469e-11
8.80485e-12
3.93722e-12
-2.92618e-11
1.43342e-11
4.60437e-12
-4.00058e-11
1.98916e-11
4.83934e-12
-5.07166e-11
2.57246e-11
4.56016e-12
-6.16393e-11
3.20463e-11
3.66731e-12
-7.29288e-11
3.90486e-11
2.02632e-12
-8.46524e-11
4.68963e-11
-5.58125e-13
-9.67965e-11
5.56986e-11
-4.36942e-12
-1.09267e-10
6.54673e-11
-9.82566e-12
-1.21867e-10
7.60619e-11
-1.75425e-11
-1.34267e-10
8.71308e-11
-2.82409e-11
-1.45959e-10
9.80654e-11
-4.21172e-11
-1.56164e-10
1.08007e-10
-5.6678e-11
-1.63744e-10
1.15972e-10
-1.68762e-10
1.2182e-10
2.03871e-12
-6.99715e-12
3.54005e-12
3.77688e-12
-2.04051e-11
1.0365e-11
5.17575e-12
-3.29172e-11
1.68652e-11
6.18838e-12
-4.50275e-11
2.33776e-11
6.76341e-12
-5.71222e-11
3.018e-11
6.84864e-12
-6.94925e-11
3.75162e-11
6.3894e-12
-8.23384e-11
4.56137e-11
5.31731e-12
-9.57697e-11
5.46728e-11
3.53173e-12
-1.09812e-10
6.48305e-11
8.7397e-13
-1.24408e-10
7.61137e-11
-2.93424e-12
-1.39389e-10
8.83794e-11
-8.39672e-12
-1.54441e-10
1.01256e-10
-1.63019e-11
-1.69001e-10
1.14081e-10
-2.74539e-11
-1.82018e-10
1.25866e-10
-4.07763e-11
-1.9163e-10
1.35394e-10
-1.93395e-10
1.42435e-10
2.52572e-12
-7.51755e-12
3.99678e-12
4.70223e-12
-2.19283e-11
1.16984e-11
6.50803e-12
-3.53914e-11
1.90195e-11
7.91638e-12
-4.84449e-11
2.63258e-11
8.90303e-12
-6.15132e-11
3.39168e-11
9.45414e-12
-7.49238e-11
4.20582e-11
9.56959e-12
-8.89124e-11
5.10029e-11
9.25872e-12
-1.03624e-10
6.09765e-11
8.53319e-12
-1.19119e-10
7.21346e-11
7.39448e-12
-1.35372e-10
8.45102e-11
5.79044e-12
-1.52261e-10
9.79525e-11
3.53282e-12
-1.69553e-10
1.12063e-10
2.26268e-13
-1.86861e-10
1.26103e-10
-4.6433e-12
-2.03489e-10
1.38903e-10
-1.07764e-11
-2.17954e-10
1.48944e-10
-2.29986e-10
1.5594e-10
3.01976e-12
4.36948e-12
-7.75927e-12
5.64311e-12
1.27833e-11
-2.26414e-11
7.86871e-12
2.07614e-11
-3.6566e-11
9.69232e-12
2.8688e-11
-5.00981e-11
1.11182e-11
3.68751e-11
-6.36852e-11
1.21702e-11
4.56006e-11
-7.76772e-11
1.28984e-11
5.51301e-11
-9.23314e-11
1.33804e-11
6.56993e-11
-1.07814e-10
1.37259e-11
7.74666e-11
-1.24201e-10
1.40805e-11
9.0457e-11
-1.41474e-10
1.46127e-11
1.04499e-10
-1.59508e-10
1.54861e-11
1.19159e-10
-1.7806e-10
1.68785e-11
1.33628e-10
-1.96711e-10
1.91345e-11
1.46586e-10
-2.14715e-10
2.2623e-11
1.56239e-10
-2.3029e-10
1.61645e-10
-2.44563e-10
1.20924e-13
-1.4189e-12
2.74664e-13
2.12679e-13
-4.13456e-12
8.04571e-13
2.61426e-13
-6.66286e-12
1.31134e-12
2.50161e-13
-9.11089e-12
1.82562e-12
1.57589e-13
-1.15622e-11
2.37413e-12
-4.29512e-14
-1.40616e-11
2.97622e-12
-3.87482e-13
-1.66186e-11
3.64546e-12
-9.28565e-13
-1.92232e-11
4.39289e-12
-1.74574e-12
-2.18569e-11
5.22641e-12
-2.96008e-12
-2.44929e-11
6.14537e-12
-4.75735e-12
-2.71004e-11
7.12958e-12
-7.4394e-12
-2.96555e-11
8.1334e-12
-1.15363e-11
-3.21669e-11
9.09363e-12
-1.78561e-11
-3.46797e-11
9.94443e-12
-2.63932e-11
-3.70624e-11
1.0621e-11
-3.74452e-11
1.19859e-11
3.72986e-13
-2.80507e-12
8.1961e-13
6.59565e-13
-8.17448e-12
2.40083e-12
8.20383e-13
-1.31749e-11
3.91303e-12
8.07644e-13
-1.80121e-11
5.44628e-12
5.61854e-13
-2.28432e-11
7.07732e-12
8.52017e-15
-2.77608e-11
8.86357e-12
-9.51968e-13
-3.27976e-11
1.08479e-11
-2.46237e-12
-3.79462e-11
1.30653e-11
-4.73339e-12
-4.31714e-11
1.55384e-11
-8.07416e-12
-4.84151e-11
1.82626e-11
-1.29271e-11
-5.3601e-11
2.11773e-11
-1.99314e-11
-5.86526e-11
2.41481e-11
-2.99847e-11
-6.35339e-11
2.69764e-11
-4.38881e-11
-6.82332e-11
2.94296e-11
-5.9951e-11
-7.24814e-11
3.12706e-11
-7.61117e-11
3.21185e-11
6.54977e-13
-4.11278e-12
1.34974e-12
1.16921e-12
-1.19876e-11
3.954e-12
1.48399e-12
-1.93243e-11
6.44458e-12
1.52913e-12
-2.64172e-11
8.96535e-12
1.21835e-12
-3.34888e-11
1.16361e-11
4.44698e-13
-4.06822e-11
1.45508e-11
-9.31957e-13
-4.80659e-11
1.7785e-11
-3.10679e-12
-5.56475e-11
2.14003e-11
-6.3582e-12
-6.33854e-11
2.5435e-11
-1.10747e-11
-7.11942e-11
2.98805e-11
-1.77674e-11
-7.89484e-11
3.46439e-11
-2.70608e-11
-8.6506e-11
3.95175e-11
-3.94914e-11
-9.37666e-11
4.419e-11
-5.45879e-11
-1.007e-10
4.82872e-11
-6.86367e-11
-1.07078e-10
5.14251e-11
-1.12535e-10
5.35596e-11
9.83061e-13
-5.29153e-12
1.85249e-12
1.77444e-12
-1.54267e-11
5.42753e-12
2.30507e-12
-2.48746e-11
8.84581e-12
2.49368e-12
-3.40072e-11
1.22969e-11
2.24304e-12
-4.31065e-11
1.59364e-11
1.43556e-12
-5.23661e-11
1.98918e-11
-7.81781e-14
-6.18968e-11
2.42725e-11
-2.4993e-12
-7.17326e-11
2.91695e-11
-6.10611e-12
-8.18376e-11
3.46396e-11
-1.12747e-11
-9.21077e-11
4.06779e-11
-1.8488e-11
-1.02363e-10
4.71688e-11
-2.83029e-11
-1.12358e-10
5.38545e-11
-4.10589e-11
-1.21803e-10
6.03563e-11
-5.59111e-11
-1.30387e-10
6.62247e-11
-6.90215e-11
-1.37652e-10
7.09617e-11
-1.4351e-10
7.43418e-11
1.36548e-12
-6.29272e-12
2.3156e-12
2.49074e-12
-1.83495e-11
6.78459e-12
3.30669e-12
-2.95959e-11
1.10544e-11
3.73364e-12
-4.04708e-11
1.53517e-11
3.68032e-12
-5.131e-11
1.98611e-11
3.04129e-12
-6.23561e-11
2.47392e-11
1.68931e-12
-7.37631e-11
3.01279e-11
-5.39497e-13
-8.5597e-11
3.61477e-11
-3.8663e-12
-9.78388e-11
4.28771e-11
-8.59028e-12
-1.1038e-10
5.03175e-11
-1.5119e-11
-1.23002e-10
5.83353e-11
-2.39766e-11
-1.35346e-10
6.66335e-11
-3.56102e-11
-1.46861e-10
7.47809e-11
-4.96496e-11
-1.56688e-10
8.22524e-11
-6.30734e-11
-1.63615e-10
8.84046e-11
-1.6768e-10
9.28411e-11
1.79958e-12
-7.07365e-12
2.72844e-12
3.31137e-12
-2.06305e-11
7.99275e-12
4.47616e-12
-3.32851e-11
1.30145e-11
5.22762e-12
-4.55327e-11
1.80497e-11
5.49462e-12
-5.77556e-11
2.33055e-11
5.20226e-12
-7.02393e-11
2.89632e-11
4.26946e-12
-8.31776e-11
3.5192e-11
2.60082e-12
-9.66688e-11
4.21384e-11
7.31707e-14
-1.10717e-10
4.98998e-11
-3.48367e-12
-1.25224e-10
5.8481e-11
-8.33084e-12
-1.3997e-10
6.77291e-11
-1.48736e-11
-1.54567e-10
7.73084e-11
-2.3623e-11
-1.68379e-10
8.67253e-11
-3.48217e-11
-1.80309e-10
9.53564e-11
-4.68859e-11
-1.88605e-10
1.02425e-10
-1.89106e-10
1.07498e-10
2.27135e-12
-7.59922e-12
3.08231e-12
4.20772e-12
-2.21678e-11
9.02554e-12
5.76748e-12
-3.57791e-11
1.46813e-11
6.90579e-12
-4.89707e-11
2.03274e-11
7.58046e-12
-6.21615e-11
2.61888e-11
7.75701e-12
-7.5671e-11
3.2465e-11
7.41128e-12
-8.97231e-11
3.93449e-11
6.52858e-12
-1.04443e-10
4.69919e-11
5.1011e-12
-1.19854e-10
5.55132e-11
3.12099e-12
-1.35873e-10
6.49102e-11
5.52066e-13
-1.52295e-10
7.50075e-11
-2.70762e-12
-1.68785e-10
8.54243e-11
-6.80684e-12
-1.84849e-10
9.55852e-11
-1.17324e-11
-1.99772e-10
1.04727e-10
-1.66586e-11
-2.12368e-10
1.1193e-10
-2.23159e-10
1.16862e-10
2.75837e-12
3.37084e-12
-7.843e-12
5.13574e-12
9.86436e-12
-2.28863e-11
7.11197e-12
1.60254e-11
-3.696e-11
8.66698e-12
2.21464e-11
-5.06272e-11
9.78972e-12
2.84644e-11
-6.43286e-11
1.04861e-11
3.51903e-11
-7.84037e-11
1.07847e-11
4.25219e-11
-9.30952e-11
1.07425e-11
5.06273e-11
-1.08544e-10
1.04519e-11
5.96121e-11
-1.2478e-10
1.00505e-11
6.9465e-11
-1.41717e-10
9.71794e-12
7.99872e-11
-1.59137e-10
9.68039e-12
9.07548e-11
-1.76682e-10
1.03073e-11
1.01112e-10
-1.93829e-10
1.23886e-11
1.10169e-10
-2.09835e-10
1.68005e-11
1.1687e-10
-2.23306e-10
1.20684e-10
-2.36144e-10
9.77791e-14
-1.42888e-12
1.84449e-13
1.67202e-13
-4.16445e-12
5.39954e-13
1.92018e-13
-6.71484e-12
8.79988e-13
1.52821e-13
-9.19045e-12
1.22663e-12
2.59611e-14
-1.1675e-11
1.59802e-12
-2.17876e-13
-1.42125e-11
2.0061e-12
-6.1789e-13
-1.68139e-11
2.45901e-12
-1.22946e-12
-1.94743e-11
2.96369e-12
-2.13232e-12
-2.21823e-11
3.52571e-12
-3.44436e-12
-2.49218e-11
4.14488e-12
-5.34182e-12
-2.767e-11
4.8102e-12
-8.10963e-12
-3.04042e-11
5.49579e-12
-1.22547e-11
-3.31235e-11
6.16444e-12
-1.85794e-11
-3.58193e-11
6.78073e-12
-2.71833e-11
-3.82372e-11
7.29937e-12
-3.83604e-11
8.30471e-12
3.04668e-13
-2.82563e-12
5.50479e-13
5.25285e-13
-8.23718e-12
1.61223e-12
6.15632e-13
-1.32845e-11
2.62888e-12
5.21325e-13
-1.81764e-11
3.66379e-12
1.76076e-13
-2.3069e-11
4.76851e-12
-5.02296e-13
-2.80534e-11
5.97897e-12
-1.6223e-12
-3.31658e-11
7.32148e-12
-3.33384e-12
-3.84077e-11
8.8183e-12
-5.84757e-12
-4.3756e-11
1.04851e-11
-9.46143e-12
-4.9165e-11
1.23214e-11
-1.45876e-11
-5.45629e-11
1.4293e-11
-2.18111e-11
-5.98669e-11
1.6317e-11
-3.19476e-11
-6.50085e-11
1.82717e-11
-4.57512e-11
-6.98635e-11
2.00175e-11
-6.17685e-11
-7.39826e-11
2.13795e-11
-7.70999e-11
2.20058e-11
5.44977e-13
-4.14403e-12
9.06815e-13
9.53174e-13
-1.20831e-11
2.65752e-12
1.15542e-12
-1.94899e-11
4.33569e-12
1.07157e-12
-2.66595e-11
6.03991e-12
6.0514e-13
-3.38115e-11
7.84941e-12
-3.62504e-13
-4.10876e-11
9.82368e-12
-1.98442e-12
-4.8561e-11
1.20105e-11
-4.46468e-12
-5.62484e-11
1.44499e-11
-8.07959e-12
-6.41186e-11
1.71691e-11
-1.31969e-11
-7.20921e-11
2.01688e-11
-2.02765e-11
-8.0039e-11
2.33909e-11
-2.98484e-11
-8.78005e-11
2.66976e-11
-4.2301e-11
-9.52291e-11
2.98906e-11
-5.70605e-11
-1.0217e-10
3.27314e-11
-7.07168e-11
-1.08251e-10
3.49277e-11
-1.13122e-10
3.6335e-11
8.37116e-13
-5.33301e-12
1.24532e-12
1.48843e-12
-1.55523e-11
3.65135e-12
1.87149e-12
-2.50884e-11
5.95838e-12
1.89279e-12
-3.43124e-11
8.29399e-12
1.44277e-12
-4.35017e-11
1.07599e-11
3.89614e-13
-5.28484e-11
1.34376e-11
-1.43082e-12
-6.24666e-11
1.63978e-11
-4.22827e-12
-7.23958e-11
1.97009e-11
-8.27546e-12
-8.26022e-11
2.33898e-11
-1.39194e-11
-9.29754e-11
2.74677e-11
-2.15749e-11
-1.03321e-10
3.18533e-11
-3.1669e-11
-1.13368e-10
3.63661e-11
-4.43424e-11
-1.22779e-10
4.07567e-11
-5.86233e-11
-1.31141e-10
4.47316e-11
-7.10562e-11
-1.37906e-10
4.79151e-11
-1.43073e-10
5.00423e-11
1.19085e-12
-6.34314e-12
1.55784e-12
2.14941e-12
-1.85003e-11
4.56868e-12
2.79118e-12
-2.98471e-11
7.45352e-12
3.02304e-12
-4.08208e-11
1.03631e-11
2.7404e-12
-5.17524e-11
1.34174e-11
1.82278e-12
-6.28811e-11
1.6718e-11
1.28185e-13
-7.43606e-11
2.03577e-11
-2.51486e-12
-8.62552e-11
2.44181e-11
-6.3189e-12
-9.85367e-11
2.89585e-11
-1.15485e-11
-1.11077e-10
3.39836e-11
-1.85317e-11
-1.23631e-10
3.93897e-11
-2.76399e-11
-1.35809e-10
4.49566e-11
-3.90925e-11
-1.4702e-10
5.03932e-11
-5.23854e-11
-1.56346e-10
5.53552e-11
-6.49411e-11
-1.6256e-10
5.93721e-11
-1.65837e-10
6.20793e-11
1.60412e-12
-7.13085e-12
1.83707e-12
2.93022e-12
-2.07999e-11
5.38659e-12
3.90286e-12
-3.35626e-11
8.78135e-12
4.44203e-12
-4.59117e-11
1.21901e-11
4.46344e-12
-5.82236e-11
1.57483e-11
3.87763e-12
-7.07789e-11
1.95746e-11
2.58956e-12
-8.37664e-11
2.37812e-11
4.97332e-13
-9.72744e-11
2.8467e-11
-2.51263e-12
-1.11286e-10
3.37039e-11
-6.57405e-12
-1.25671e-10
3.94949e-11
-1.18644e-11
-1.40172e-10
4.57127e-11
-1.86287e-11
-1.54366e-10
5.20979e-11
-2.71423e-11
-1.67589e-10
5.8312e-11
-3.75075e-11
-1.78751e-10
6.39494e-11
-4.86036e-11
-1.862e-10
6.84658e-11
-1.86045e-10
7.14893e-11
2.06263e-12
-7.66071e-12
2.07677e-12
3.8016e-12
-2.23486e-11
6.08608e-12
5.15924e-12
-3.60712e-11
9.90955e-12
6.07781e-12
-4.93633e-11
1.37301e-11
6.50301e-12
-6.2637e-11
1.7696e-11
6.3868e-12
-7.62044e-11
2.19397e-11
5.69215e-12
-9.02805e-11
2.65863e-11
4.39837e-12
-1.04973e-10
3.17452e-11
2.50636e-12
-1.20276e-10
3.7493e-11
4.2507e-14
-1.36063e-10
4.38252e-11
-2.94933e-12
-1.52086e-10
5.05927e-11
-6.42042e-12
-1.67967e-10
5.74999e-11
-1.02926e-11
-1.83204e-10
6.41472e-11
-1.43936e-11
-1.97147e-10
7.00446e-11
-1.82942e-11
-2.08808e-10
7.45831e-11
-2.19222e-10
7.74998e-11
2.54319e-12
2.2721e-12
-7.90629e-12
4.71799e-12
6.65346e-12
-2.30713e-11
6.48927e-12
1.08171e-11
-3.72565e-11
7.82547e-12
1.49563e-11
-5.10206e-11
8.70488e-12
1.92293e-11
-6.47968e-11
9.12118e-12
2.37773e-11
-7.89161e-11