/*--------------------------------*- C++ -*----------------------------------*\
| =========                 |                                                 |
| \\      /  F ield         | OpenFOAM: The Open Source CFD Toolbox           |
|  \\    /   O peration     | Version:  v1912                                 |
|   \\  /    A nd           | Website:  www.openfoam.com                      |
|    \\/     M anipulation  |                                                 |
\*---------------------------------------------------------------------------*/
FoamFile
{
    version     2.0;
    format      ascii;
    class       volScalarField;
    location    "0.16/fluid";
    object      T;
}
// * * * * * * * * * * * * * * * * * * * * * * * * * * * * * * * * * * * * * //

dimensions      [0 0 0 1 0 0 0];


internalField   nonuniform List<scalar> 
14592
(
273.042
273.13
273.235
273.367
273.541
273.775
274.093
274.524
275.101
275.863
276.853
278.119
279.713
281.701
284.192
287.446
273.041
273.129
273.232
273.363
273.535
273.766
274.081
274.507
275.078
275.833
276.816
278.074
279.662
281.649
284.143
287.405
273.04
273.127
273.228
273.356
273.524
273.751
274.059
274.476
275.036
275.778
276.745
277.988
279.564
281.546
284.049
287.339
273.039
273.123
273.222
273.346
273.509
273.728
274.026
274.43
274.974
275.695
276.639
277.857
279.41
281.38
283.893
287.232
273.038
273.119
273.214
273.333
273.489
273.699
273.984
274.371
274.892
275.584
276.494
277.673
279.189
281.132
283.65
287.056
273.036
273.114
273.204
273.317
273.465
273.664
273.933
274.298
274.79
275.445
276.308
277.431
278.886
280.774
283.271
286.755
273.035
273.108
273.194
273.3
273.438
273.623
273.874
274.214
274.67
275.279
276.08
277.127
278.487
280.269
282.679
286.204
273.033
273.102
273.182
273.281
273.409
273.579
273.809
274.12
274.536
275.09
275.817
276.764
277.99
279.591
281.765
285.071
273.044
273.139
273.251
273.393
273.581
273.835
274.182
274.652
275.282
276.116
277.201
278.588
280.337
282.513
285.208
288.567
273.044
273.137
273.248
273.389
273.574
273.826
274.169
274.634
275.258
276.084
277.161
278.541
280.284
282.459
285.161
288.532
273.043
273.135
273.243
273.381
273.563
273.809
274.144
274.6
275.212
276.024
277.085
278.45
280.181
282.353
285.068
288.473
273.042
273.131
273.237
273.37
273.546
273.784
274.109
274.551
275.145
275.935
276.971
278.31
280.019
282.182
284.913
288.376
273.04
273.127
273.228
273.356
273.525
273.753
274.064
274.486
275.056
275.816
276.815
278.113
279.784
281.924
284.668
288.213
273.039
273.121
273.218
273.339
273.499
273.715
274.008
274.408
274.946
275.665
276.614
277.852
279.459
281.545
284.28
287.926
273.037
273.115
273.206
273.32
273.47
273.671
273.944
274.316
274.816
275.485
276.367
277.522
279.028
281.005
283.659
287.376
273.035
273.108
273.193
273.3
273.438
273.623
273.874
274.213
274.67
275.279
276.08
277.126
278.486
280.269
282.679
286.203
273.047
273.147
273.265
273.417
273.618
273.89
274.262
274.766
275.443
276.337
277.498
278.978
280.831
283.108
285.858
289.107
273.046
273.145
273.263
273.412
273.611
273.88
274.248
274.747
275.417
276.303
277.456
278.928
280.776
283.053
285.811
289.074
273.045
273.142
273.257
273.404
273.598
273.862
274.222
274.711
275.368
276.24
277.376
278.833
280.669
282.945
285.717
289.018
273.044
273.138
273.25
273.392
273.58
273.836
274.184
274.658
275.297
276.145
277.255
278.685
280.5
282.769
285.562
288.923
273.043
273.134
273.241
273.377
273.558
273.802
274.136
274.59
275.202
276.018
277.09
278.478
280.254
282.502
285.313
288.762
273.041
273.128
273.23
273.36
273.53
273.761
274.076
274.505
275.085
275.857
276.876
278.202
279.913
282.108
284.916
288.476
273.039
273.121
273.218
273.339
273.499
273.715
274.008
274.407
274.946
275.664
276.613
277.851
279.458
281.544
284.279
287.925
273.036
273.114
273.204
273.317
273.465
273.663
273.932
274.298
274.789
275.444
276.306
277.43
278.884
280.772
283.269
286.755
273.049
273.154
273.278
273.437
273.649
273.937
274.33
274.863
275.578
276.52
277.738
279.284
281.201
283.525
286.266
289.392
273.048
273.152
273.275
273.433
273.642
273.927
274.316
274.843
275.55
276.484
277.695
279.232
281.145
283.469
286.218
289.36
273.047
273.149
273.27
273.424
273.629
273.908
274.288
274.805
275.5
276.418
277.611
279.133
281.034
283.358
286.124
289.304
273.046
273.145
273.262
273.412
273.61
273.88
274.249
274.75
275.425
276.319
277.485
278.98
280.86
283.178
285.967
289.209
273.045
273.14
273.253
273.396
273.586
273.845
274.198
274.678
275.325
276.186
277.312
278.764
280.606
282.904
285.715
289.048
273.043
273.133
273.241
273.377
273.557
273.802
274.135
274.589
275.201
276.017
277.088
278.476
280.253
282.5
285.312
288.761
273.04
273.126
273.228
273.356
273.524
273.752
274.063
274.485
275.055
275.814
276.813
278.111
279.782
281.921
284.666
288.212
273.038
273.119
273.214
273.332
273.488
273.698
273.983
274.37
274.89
275.582
276.491
277.671
279.186
281.13
283.647
287.054
273.051
273.159
273.289
273.455
273.676
273.976
274.386
274.942
275.685
276.663
277.923
279.512
281.467
283.807
286.522
289.554
273.05
273.158
273.286
273.45
273.668
273.965
274.371
274.921
275.657
276.627
277.878
279.46
281.409
283.751
286.474
289.522
273.049
273.155
273.28
273.441
273.655
273.945
274.342
274.882
275.604
276.558
277.792
279.357
281.296
283.638
286.379
289.466
273.048
273.15
273.272
273.428
273.635
273.917
274.301
274.824
275.527
276.455
277.662
279.2
281.118
283.454
286.22
289.37
273.046
273.145
273.262
273.411
273.61
273.88
274.248
274.749
275.423
276.317
277.483
278.978
280.858
283.176
285.965
289.208
273.044
273.138
273.25
273.392
273.58
273.835
274.183
274.657
275.295
276.142
277.252
278.682
280.496
282.765
285.559
288.921
273.042
273.131
273.236
273.369
273.545
273.783
274.108
274.549
275.143
275.932
276.967
278.305
280.014
282.178
284.91
288.374
273.039
273.123
273.221
273.345
273.508
273.727
274.025
274.428
274.971
275.692
276.635
277.852
279.406
281.375
283.889
287.229
273.052
273.164
273.297
273.468
273.696
274.006
274.429
275.001
275.765
276.768
278.056
279.673
281.647
283.991
286.68
289.648
273.052
273.162
273.294
273.463
273.688
273.995
274.413
274.979
275.736
276.731
278.01
279.619
281.589
283.934
286.632
289.616
273.051
273.159
273.288
273.453
273.674
273.974
274.384
274.939
275.682
276.66
277.923
279.515
281.474
283.82
286.537
289.559
273.049
273.154
273.28
273.44
273.654
273.945
274.341
274.88
275.602
276.555
277.789
279.354
281.293
283.634
286.376
289.463
273.047
273.149
273.269
273.423
273.628
273.906
274.286
274.803
275.496
276.414
277.606
279.128
281.029
283.352
286.119
289.301
273.045
273.142
273.257
273.403
273.597
273.86
274.219
274.707
275.364
276.234
277.37
278.826
280.662
282.938
285.711
289.014
273.043
273.135
273.243
273.38
273.561
273.807
274.142
274.596
275.208
276.019
277.079
278.442
280.173
282.345
285.061
288.469
273.04
273.126
273.227
273.355
273.523
273.749
274.056
274.472
275.031
275.772
276.738
277.981
279.556
281.537
284.041
287.334
273.053
273.167
273.303
273.477
273.709
274.026
274.457
275.04
275.818
276.837
278.142
279.774
281.759
284.101
286.772
289.7
273.052
273.165
273.299
273.472
273.702
274.014
274.441
275.018
275.789
276.799
278.095
279.719
281.7
284.044
286.724
289.668
273.051
273.162
273.293
273.462
273.687
273.993
274.411
274.977
275.733
276.727
278.006
279.614
281.584
283.929
286.628
289.611
273.05
273.157
273.285
273.449
273.667
273.963
274.368
274.917
275.652
276.621
277.871
279.451
281.401
283.742
286.466
289.515
273.048
273.151
273.274
273.431
273.64
273.924
274.312
274.838
275.544
276.477
277.686
279.222
281.134
283.458
286.208
289.352
273.046
273.145
273.262
273.411
273.609
273.877
274.244
274.741
275.41
276.294
277.446
278.917
280.764
283.041
285.799
289.065
273.044
273.137
273.247
273.387
273.572
273.823
274.164
274.628
275.251
276.075
277.15
278.529
280.271
282.446
285.148
288.522
273.041
273.128
273.232
273.361
273.533
273.763
274.077
274.502
275.071
275.825
276.805
278.062
279.649
281.636
284.131
287.393
273.053
273.168
273.305
273.481
273.716
274.036
274.471
275.06
275.844
276.871
278.184
279.823
281.812
284.153
286.814
289.724
273.053
273.166
273.302
273.476
273.708
274.024
274.455
275.037
275.815
276.832
278.137
279.768
281.753
284.095
286.766
289.692
273.052
273.163
273.296
273.466
273.694
274.003
274.425
274.996
275.759
276.76
278.047
279.662
281.636
283.98
286.669
289.635
273.051
273.159
273.288
273.453
273.673
273.973
274.381
274.935
275.677
276.653
277.911
279.498
281.452
283.792
286.508
289.539
273.049
273.153
273.277
273.435
273.646
273.933
274.325
274.856
275.568
276.508
277.724
279.268
281.184
283.507
286.249
289.376
273.047
273.146
273.264
273.414
273.614
273.886
274.256
274.758
275.432
276.324
277.483
278.961
280.812
283.089
285.84
289.089
273.044
273.138
273.249
273.391
273.578
273.831
274.176
274.644
275.272
276.103
277.185
278.571
280.318
282.493
285.189
288.546
273.041
273.13
273.234
273.365
273.538
273.771
274.087
274.516
275.091
275.851
276.838
278.102
279.694
281.682
284.172
287.421
273.026
273.079
273.139
273.208
273.294
273.401
273.538
273.712
273.931
274.201
274.524
274.896
275.305
275.73
276.141
276.5
273.025
273.078
273.137
273.206
273.291
273.397
273.532
273.704
273.921
274.188
274.507
274.875
275.28
275.701
276.108
276.464
273.025
273.077
273.135
273.203
273.286
273.389
273.521
273.69
273.901
274.162
274.475
274.834
275.231
275.644
276.044
276.394
273.024
273.075
273.132
273.198
273.278
273.378
273.506
273.669
273.873
274.125
274.427
274.776
275.16
275.56
275.949
276.289
273.024
273.073
273.128
273.191
273.268
273.365
273.487
273.642
273.837
274.078
274.366
274.699
275.066
275.449
275.821
276.148
273.023
273.071
273.123
273.184
273.257
273.348
273.463
273.609
273.793
274.02
274.291
274.604
274.951
275.312
275.663
275.971
273.022
273.068
273.118
273.175
273.244
273.329
273.437
273.573
273.743
273.953
274.205
274.495
274.816
275.151
275.477
275.762
273.021
273.065
273.112
273.166
273.23
273.309
273.408
273.533
273.689
273.881
274.11
274.375
274.667
274.971
275.267
275.527
273.026
273.081
273.142
273.214
273.302
273.414
273.558
273.741
273.973
274.261
274.607
275.008
275.453
275.92
276.375
276.776
273.026
273.08
273.141
273.212
273.299
273.41
273.552
273.733
273.962
274.247
274.588
274.985
275.426
275.889
276.341
276.738
273.026
273.079
273.138
273.208
273.294
273.402
273.541
273.718
273.942
274.22
274.554
274.943
275.375
275.83
276.273
276.665
273.025
273.077
273.135
273.203
273.286
273.391
273.525
273.696
273.913
274.181
274.505
274.881
275.3
275.741
276.173
276.554
273.024
273.075
273.131
273.196
273.276
273.376
273.504
273.668
273.874
274.131
274.44
274.8
275.201
275.623
276.037
276.404
273.023
273.072
273.126
273.188
273.264
273.359
273.48
273.634
273.829
274.07
274.361
274.7
275.078
275.477
275.868
276.215
273.022
273.069
273.12
273.18
273.251
273.34
273.452
273.595
273.776
274
274.27
274.584
274.934
275.304
275.666
275.988
273.021
273.066
273.114
273.17
273.236
273.319
273.422
273.553
273.719
273.923
274.169
274.455
274.774
275.109
275.438
275.73
273.027
273.084
273.149
273.225
273.32
273.441
273.597
273.799
274.057
274.379
274.771
275.231
275.75
276.302
276.85
277.339
273.027
273.084
273.147
273.223
273.317
273.436
273.591
273.79
274.045
274.363
274.751
275.207
275.72
276.268
276.812
277.298
273.027
273.082
273.145
273.219
273.311
273.428
273.579
273.774
274.023
274.334
274.714
275.161
275.665
276.203
276.739
277.219
273.026
273.08
273.141
273.213
273.302
273.416
273.562
273.75
273.991
274.292
274.659
275.093
275.582
276.106
276.628
277.097
273.025
273.078
273.137
273.206
273.292
273.4
273.539
273.719
273.949
274.237
274.588
275.003
275.472
275.975
276.478
276.93
273.024
273.075
273.132
273.198
273.279
273.381
273.513
273.683
273.899
274.17
274.501
274.892
275.334
275.81
276.286
276.715
273.023
273.072
273.126
273.188
273.265
273.36
273.483
273.641
273.842
274.093
274.4
274.762
275.172
275.613
276.054
276.452
273.022
273.068
273.119
273.178
273.249
273.338
273.45
273.595
273.778
274.008
274.287
274.616
274.989
275.388
275.788
276.148
273.029
273.09
273.159
273.241
273.345
273.48
273.655
273.883
274.178
274.551
275.011
275.56
276.19
276.875
277.571
278.205
273.029
273.089
273.157
273.239
273.342
273.474
273.648
273.873
274.165
274.534
274.989
275.533
276.157
276.838
277.529
278.161
273.028
273.087
273.154
273.235
273.335
273.465
273.634
273.855
274.14
274.501
274.947
275.481
276.095
276.766
277.448
278.074
273.028
273.085
273.15
273.228
273.326
273.452
273.615
273.829
274.105
274.454
274.886
275.405
276.002
276.656
277.324
277.938
273.027
273.083
273.146
273.221
273.314
273.434
273.591
273.795
274.058
274.392
274.806
275.302
275.876
276.507
277.153
277.748
273.026
273.079
273.14
273.211
273.3
273.414
273.562
273.754
274.002
274.317
274.707
275.175
275.717
276.315
276.928
277.496
273.025
273.076
273.133
273.201
273.284
273.391
273.528
273.707
273.937
274.229
274.59
275.024
275.527
276.081
276.651
277.179
273.023
273.072
273.126
273.19
273.267
273.365
273.492
273.655
273.866
274.132
274.46
274.855
275.31
275.81
276.324
276.8
273.031
273.096
273.171
273.262
273.378
273.528
273.728
273.99
274.332
274.77
275.318
275.983
276.762
277.632
278.542
279.398
273.031
273.095
273.169
273.259
273.374
273.523
273.719
273.979
274.317
274.751
275.293
275.952
276.725
277.591
278.497
279.351
273.03
273.094
273.166
273.255
273.366
273.512
273.705
273.958
274.289
274.714
275.246
275.894
276.655
277.51
278.408
279.256
273.029
273.091
273.162
273.248
273.356
273.497
273.683
273.929
274.249
274.66
275.177
275.807
276.55
277.387
278.269
279.107
273.029
273.089
273.157
273.239
273.343
273.478
273.656
273.89
274.197
274.59
275.085
275.69
276.405
277.215
278.073
278.892
273.027
273.085
273.15
273.229
273.327
273.455
273.623
273.844
274.133
274.503
274.97
275.542
276.22
276.989
277.808
278.595
273.026
273.081
273.143
273.217
273.31
273.429
273.585
273.791
274.058
274.402
274.835
275.365
275.993
276.708
277.47
278.206
273.025
273.077
273.135
273.205
273.291
273.401
273.544
273.732
273.976
274.29
274.683
275.163
275.731
276.375
277.06
277.72
273.033
273.104
273.186
273.286
273.415
273.585
273.812
274.114
274.511
275.025
275.677
276.481
277.445
278.554
279.758
280.943
273.033
273.103
273.184
273.283
273.411
273.579
273.803
274.101
274.494
275.003
275.648
276.447
277.404
278.508
279.71
280.895
273.033
273.101
273.18
273.278
273.403
273.567
273.786
274.078
274.463
274.962
275.596
276.381
277.326
278.42
279.614
280.797
273.032
273.099
273.176
273.27
273.391
273.55
273.762
274.045
274.417
274.901
275.517
276.283
277.207
278.282
279.463
280.639
273.031
273.095
273.17
273.261
273.376
273.529
273.732
274.002
274.358
274.821
275.412
276.149
277.042
278.086
279.242
280.402
273.03
273.092
273.163
273.249
273.359
273.503
273.694
273.949
274.285
274.722
275.28
275.978
276.826
277.823
278.934
280.062
273.028
273.087
273.155
273.236
273.339
273.474
273.652
273.888
274.2
274.605
275.123
275.77
276.557
277.485
278.524
279.587
273.027
273.083
273.146
273.222
273.318
273.442
273.605
273.821
274.106
274.475
274.944
275.53
276.241
277.075
278.005
278.956
273.036
273.113
273.202
273.312
273.456
273.647
273.904
274.249
274.706
275.303
276.068
277.028
278.202
279.597
281.186
282.859
273.036
273.111
273.2
273.309
273.451
273.64
273.894
274.235
274.687
275.278
276.037
276.99
278.158
279.549
281.136
282.812
273.035
273.109
273.196
273.303
273.442
273.627
273.875
274.209
274.652
275.232
275.978
276.917
278.072
279.454
281.037
282.716
273.034
273.107
273.191
273.295
273.429
273.608
273.849
274.171
274.601
275.164
275.889
276.807
277.94
279.304
280.878
282.56
273.033
273.103
273.184
273.284
273.413
273.584
273.814
274.123
274.534
275.073
275.771
276.655
277.754
279.086
280.639
282.318
273.032
273.099
273.176
273.271
273.394
273.555
273.772
274.063
274.451
274.961
275.62
276.459
277.507
278.785
280.293
281.949
273.03
273.094
273.167
273.257
273.371
273.522
273.724
273.995
274.355
274.827
275.439
276.218
277.192
278.387
279.807
281.392
273.029
273.089
273.158
273.241
273.347
273.486
273.672
273.919
274.247
274.677
275.232
275.937
276.815
277.886
279.156
280.575
273.039
273.121
273.218
273.34
273.498
273.711
273.999
274.388
274.906
275.587
276.468
277.587
278.981
280.686
282.733
285.111
273.038
273.12
273.216
273.336
273.493
273.704
273.988
274.372
274.885
275.56
276.434
277.545
278.933
280.635
282.684
285.067
273.038
273.118
273.212
273.329
273.483
273.689
273.968
274.344
274.846
275.509
276.369
277.466
278.841
280.535
282.586
284.984
273.037
273.115
273.206
273.32
273.469
273.668
273.938
274.302
274.789
275.433
276.271
277.344
278.697
280.376
282.426
284.846
273.036
273.111
273.199
273.308
273.451
273.642
273.9
274.248
274.715
275.333
276.139
277.176
278.492
280.141
282.18
284.624
273.034
273.106
273.19
273.294
273.429
273.61
273.853
274.182
274.622
275.206
275.97
276.956
278.214
279.808
281.809
284.265
273.032
273.101
273.18
273.278
273.405
273.573
273.8
274.105
274.514
275.056
275.765
276.682
277.855
279.351
281.258
283.666
273.031
273.095
273.17
273.261
273.378
273.533
273.741
274.02
274.393
274.886
275.529
276.358
277.415
278.756
280.464
282.647
273.031
273.095
273.17
273.261
273.378
273.533
273.741
274.02
274.393
274.886
275.529
276.358
277.415
278.756
280.464
282.647
273.029
273.089
273.158
273.241
273.347
273.486
273.671
273.919
274.247
274.677
275.232
275.936
276.814
277.886
279.156
280.574
273.027
273.083
273.146
273.222
273.317
273.441
273.605
273.821
274.105
274.474
274.944
275.529
276.24
277.074
278.005
278.955
273.025
273.077
273.135
273.205
273.29
273.4
273.544
273.732
273.976
274.289
274.682
275.163
275.731
276.374
277.06
277.72
273.023
273.072
273.126
273.19
273.267
273.365
273.491
273.655
273.865
274.131
274.46
274.854
275.309
275.81
276.324
276.8
273.022
273.068
273.119
273.178
273.249
273.337
273.45
273.595
273.778
274.007
274.287
274.616
274.988
275.388
275.787
276.147
273.021
273.066
273.114
273.17
273.236
273.318
273.422
273.553
273.718
273.923
274.169
274.455
274.773
275.109
275.438
275.729
273.021
273.064
273.112
273.166
273.23
273.309
273.408
273.532
273.688
273.88
274.11
274.374
274.666
274.971
275.266
275.526
273.032
273.101
273.18
273.278
273.405
273.573
273.799
274.105
274.514
275.056
275.764
276.681
277.854
279.35
281.257
283.666
273.03
273.094
273.167
273.257
273.371
273.522
273.724
273.994
274.354
274.827
275.438
276.217
277.191
278.386
279.806
281.391
273.028
273.087
273.155
273.236
273.339
273.473
273.651
273.888
274.199
274.605
275.122
275.769
276.556
277.484
278.523
279.586
273.026
273.081
273.143
273.217
273.31
273.429
273.585
273.79
274.058
274.402
274.834
275.364
275.992
276.707
277.469
278.205
273.025
273.076
273.133
273.201
273.284
273.39
273.528
273.706
273.936
274.228
274.589
275.023
275.526
276.08
276.649
277.178
273.023
273.072
273.126
273.188
273.264
273.36
273.483
273.64
273.841
274.092
274.399
274.761
275.171
275.612
276.053
276.451
273.022
273.069
273.12
273.179
273.251
273.339
273.452
273.595
273.776
273.999
274.269
274.583
274.933
275.303
275.665
275.987
273.022
273.068
273.118
273.175
273.244
273.329
273.436
273.572
273.743
273.953
274.204
274.494
274.815
275.15
275.476
275.761
273.034
273.106
273.19
273.294
273.429
273.609
273.853
274.181
274.621
275.205
275.969
276.954
278.213
279.806
281.808
284.264
273.032
273.099
273.176
273.271
273.393
273.555
273.772
274.063
274.45
274.959
275.619
276.458
277.505
278.784
280.292
281.948
273.029
273.092
273.163
273.249
273.359
273.503
273.694
273.948
274.284
274.721
275.279
275.976
276.824
277.821
278.933
280.06
273.027
273.085
273.15
273.229
273.327
273.455
273.622
273.843
274.132
274.502
274.969
275.54
276.218
276.987
277.807
278.594
273.026
273.079
273.14
273.211
273.3
273.414
273.561
273.753
274.001
274.316
274.705
275.174
275.716
276.313
276.927
277.495
273.024
273.075
273.131
273.198
273.279
273.381
273.513
273.682
273.898
274.169
274.5
274.89
275.333
275.808
276.284
276.714
273.023
273.072
273.126
273.188
273.264
273.359
273.479
273.633
273.828
274.069
274.36
274.699
275.076
275.475
275.866
276.213
273.023
273.07
273.123
273.184
273.257
273.348
273.463
273.609
273.792
274.019
274.29
274.603
274.949
275.31
275.662
275.97
273.036
273.111
273.199
273.308
273.451
273.641
273.899
274.247
274.713
275.33
276.136
277.173
278.489
280.138
282.177
284.622
273.033
273.103
273.184
273.284
273.413
273.584
273.813
274.121
274.532
275.071
275.768
276.652
277.751
279.083
280.636
282.315
273.031
273.095
273.17
273.26
273.376
273.528
273.731
274
274.356
274.819
275.41
276.146
277.039
278.083
279.239
280.399
273.029
273.088
273.157
273.239
273.343
273.477
273.655
273.889
274.195
274.588
275.082
275.687
276.403
277.212
278.07
278.889
273.027
273.082
273.145
273.22
273.314
273.434
273.59
273.794
274.057
274.391
274.804
275.3
275.874
276.504
277.15
277.746
273.025
273.078
273.137
273.206
273.291
273.399
273.539
273.718
273.948
274.235
274.586
275
275.469
275.973
276.475
276.928
273.024
273.075
273.131
273.196
273.276
273.376
273.503
273.667
273.873
274.129
274.438
274.798
275.198
275.621
276.035
276.402
273.024
273.073
273.128
273.191
273.268
273.364
273.486
273.641
273.836
274.076
274.364
274.696
275.064
275.447
275.819
276.146
273.037
273.115
273.206
273.32
273.468
273.667
273.936
274.3
274.787
275.43
276.267
277.34
278.692
280.371
282.421
284.842
273.034
273.106
273.19
273.294
273.429
273.607
273.847
274.169
274.598
275.16
275.886
276.802
277.935
279.299
280.873
282.556
273.032
273.098
273.175
273.27
273.39
273.549
273.761
274.043
274.415
274.898
275.513
276.279
277.203
278.277
279.458
280.634
273.029
273.091
273.162
273.247
273.355
273.496
273.682
273.927
274.247
274.658
275.173
275.803
276.546
277.382
278.265
279.103
273.027
273.085
273.15
273.228
273.325
273.451
273.614
273.827
274.102
274.451
274.883
275.401
275.998
276.652
277.32
277.935
273.026
273.08
273.141
273.213
273.302
273.415
273.56
273.748
273.989
274.29
274.656
275.089
275.578
276.102
276.625
277.094
273.025
273.077
273.135
273.203
273.285
273.39
273.523
273.694
273.911
274.179
274.502
274.878
275.297
275.738
276.169
276.551
273.024
273.075
273.132
273.197
273.277
273.378
273.505
273.667
273.871
274.123
274.425
274.773
275.157
275.557
275.945
276.286
273.038
273.118
273.211
273.329
273.482
273.687
273.965
274.34
274.842
275.503
276.362
277.458
278.833
280.527
282.578
284.977
273.035
273.109
273.195
273.302
273.441
273.625
273.873
274.206
274.648
275.227
275.971
276.91
278.065
279.446
281.03
282.709
273.032
273.101
273.18
273.277
273.401
273.565
273.784
274.075
274.459
274.957
275.59
276.375
277.319
278.412
279.607
280.79
273.03
273.093
273.166
273.254
273.365
273.511
273.703
273.956
274.286
274.71
275.241
275.888
276.649
277.503
278.401
279.25
273.028
273.087
273.154
273.234
273.334
273.464
273.632
273.853
274.137
274.497
274.943
275.476
276.089
276.759
277.442
278.068
273.027
273.082
273.144
273.218
273.31
273.426
273.577
273.771
274.02
274.331
274.709
275.156
275.659
276.198
276.733
277.214
273.025
273.079
273.138
273.208
273.293
273.401
273.539
273.716
273.939
274.216
274.55
274.939
275.37
275.824
276.268
276.66
273.025
273.077
273.135
273.202
273.285
273.388
273.52
273.688
273.899
274.159
274.471
274.83
275.226
275.639
276.039
276.39
273.038
273.12
273.215
273.335
273.491
273.701
273.984
274.367
274.878
275.552
276.424
277.534
278.921
280.623
282.671
285.055
273.036
273.111
273.199
273.308
273.449
273.637
273.89
274.23
274.681
275.27
276.027
276.979
278.146
279.537
281.125
282.8
273.033
273.103
273.183
273.282
273.409
273.576
273.8
274.097
274.488
274.996
275.64
276.437
277.394
278.497
279.699
280.884
273.031
273.095
273.169
273.258
273.372
273.52
273.716
273.975
274.312
274.744
275.285
275.943
276.716
277.581
278.487
279.342
273.029
273.088
273.156
273.238
273.34
273.472
273.645
273.87
274.16
274.528
274.982
275.525
276.148
276.829
277.52
278.153
273.027
273.083
273.147
273.222
273.315
273.434
273.588
273.787
274.041
274.358
274.745
275.2
275.712
276.26
276.804
277.291
273.026
273.08
273.14
273.211
273.298
273.408
273.549
273.73
273.958
274.242
274.583
274.979
275.419
275.882
276.333
276.732
273.025
273.078
273.137
273.206
273.29
273.395
273.53
273.701
273.917
274.183
274.502
274.868
275.273
275.694
276.101
276.458
273.039
273.121
273.217
273.338
273.496
273.707
273.994
274.38
274.896
275.575
276.454
277.571
278.963
280.668
282.715
285.091
273.036
273.112
273.2
273.31
273.453
273.643
273.899
274.242
274.697
275.292
276.055
277.013
278.186
279.581
281.169
282.843
273.033
273.103
273.185
273.284
273.413
273.582
273.807
274.108
274.503
275.015
275.665
276.467
277.43
278.538
279.743
280.929
273.031
273.096
273.17
273.26
273.375
273.525
273.723
273.984
274.325
274.761
275.307
275.971
276.748
277.618
278.528
279.386
273.029
273.089
273.158
273.24
273.343
273.477
273.651
273.878
274.172
274.543
275.002
275.549
276.178
276.863
277.558
278.194
273.027
273.084
273.148
273.224
273.318
273.438
273.594
273.795
274.051
274.372
274.762
275.221
275.739
276.291
276.839
277.329
273.026
273.08
273.141
273.213
273.301
273.412
273.555
273.737
273.968
274.254
274.599
274.999
275.443
275.91
276.365
276.767
273.025
273.079
273.138
273.207
273.292
273.399
273.535
273.708
273.927
274.195
274.517
274.888
275.296
275.721
276.132
276.492
273.02
273.061
273.106
273.157
273.216
273.288
273.378
273.491
273.632
273.804
274.01
274.247
274.508
274.78
275.043
275.274
273.019
273.058
273.1
273.147
273.201
273.267
273.348
273.449
273.575
273.728
273.91
274.119
274.348
274.586
274.816
275.017
273.018
273.055
273.094
273.138
273.188
273.247
273.319
273.409
273.52
273.654
273.813
273.995
274.194
274.399
274.596
274.769
273.017
273.052
273.089
273.13
273.175
273.229
273.293
273.373
273.47
273.587
273.725
273.882
274.053
274.228
274.396
274.542
273.016
273.05
273.085
273.123
273.165
273.213
273.271
273.341
273.427
273.529
273.649
273.785
273.932
274.082
274.225
274.349
273.016
273.048
273.081
273.117
273.156
273.201
273.253
273.317
273.393
273.484
273.59
273.708
273.836
273.967
274.09
274.197
273.015
273.047
273.079
273.113
273.151
273.192
273.241
273.3
273.369
273.452
273.548
273.656
273.771
273.888
273.998
274.093
273.015
273.046
273.078
273.112
273.148
273.188
273.235
273.291
273.358
273.437
273.528
273.629
273.738
273.848
273.951
274.04
273.02
273.062
273.108
273.16
273.221
273.297
273.391
273.51
273.659
273.842
274.063
274.319
274.603
274.901
275.193
275.451
273.019
273.059
273.102
273.15
273.207
273.275
273.359
273.466
273.598
273.761
273.956
274.181
274.429
274.69
274.943
275.167
273.018
273.056
273.096
273.141
273.192
273.254
273.329
273.424
273.54
273.683
273.853
274.048
274.262
274.486
274.702
274.892
273.017
273.053
273.091
273.132
273.179
273.235
273.302
273.385
273.487
273.612
273.758
273.926
274.11
274.3
274.483
274.643
273.017
273.051
273.086
273.125
273.168
273.218
273.279
273.352
273.442
273.55
273.678
273.822
273.979
274.141
274.296
274.43
273.016
273.049
273.083
273.119
273.159
273.206
273.26
273.326
273.406
273.502
273.614
273.74
273.877
274.016
274.149
274.264
273.016
273.047
273.08
273.115
273.153
273.197
273.248
273.309
273.382
273.469
273.57
273.684
273.806
273.931
274.049
274.15
273.015
273.047
273.079
273.113
273.151
273.192
273.241
273.3
273.369
273.452
273.548
273.656
273.771
273.888
273.998
274.093
273.021
273.065
273.113
273.167
273.233
273.314
273.416
273.547
273.712
273.918
274.168
274.461
274.792
275.146
275.498
275.814
273.02
273.061
273.106
273.157
273.217
273.29
273.382
273.499
273.646
273.827
274.047
274.304
274.593
274.899
275.201
275.472
273.019
273.058
273.1
273.147
273.201
273.267
273.35
273.453
273.582
273.74
273.931
274.153
274.4
274.66
274.916
275.142
273.018
273.055
273.094
273.137
273.187
273.247
273.32
273.41
273.523
273.661
273.825
274.015
274.224
274.443
274.656
274.844
273.017
273.052
273.089
273.13
273.175
273.229
273.294
273.374
273.473
273.593
273.735
273.897
274.075
274.259
274.437
274.592
273.016
273.05
273.085
273.123
273.166
273.215
273.274
273.346
273.433
273.539
273.663
273.804
273.957
274.115
274.266
274.397
273.016
273.049
273.083
273.119
273.159
273.206
273.26
273.326
273.406
273.502
273.614
273.74
273.877
274.016
274.149
274.264
273.016
273.048
273.081
273.117
273.156
273.201
273.253
273.317
273.393
273.484
273.589
273.708
273.836
273.967
274.09
274.197
273.022
273.068
273.119
273.178
273.249
273.339
273.454
273.601
273.79
274.029
274.322
274.672
275.075
275.515
275.964
276.377
273.021
273.064
273.112
273.166
273.232
273.313
273.415
273.547
273.715
273.925
274.182
274.487
274.835
275.212
275.593
275.94
273.02
273.061
273.105
273.155
273.215
273.287
273.379
273.495
273.642
273.824
274.046
274.308
274.603
274.92
275.236
275.521
273.019
273.057
273.099
273.145
273.199
273.264
273.345
273.447
273.575
273.733
273.923
274.145
274.393
274.656
274.915
275.146
273.018
273.054
273.093
273.136
273.186
273.245
273.317
273.406
273.518
273.654
273.817
274.006
274.214
274.432
274.645
274.833
273.017
273.052
273.089
273.13
273.175
273.229
273.294
273.374
273.473
273.593
273.735
273.897
274.075
274.259
274.437
274.592
273.017
273.051
273.086
273.125
273.168
273.218
273.279
273.352
273.442
273.55
273.678
273.822
273.979
274.141
274.296
274.43
273.016
273.05
273.085
273.123
273.165
273.213
273.271
273.341
273.427
273.529
273.649
273.785
273.932
274.082
274.225
274.349
273.024
273.073
273.127
273.192
273.271
273.371
273.501
273.67
273.89
274.17
274.52
274.945
275.445
276.006
276.597
277.161
273.022
273.068
273.119
273.179
273.251
273.341
273.458
273.608
273.802
274.048
274.354
274.722
275.15
275.625
276.118
276.58
273.021
273.064
273.112
273.166
273.231
273.313
273.416
273.549
273.718
273.931
274.194
274.507
274.867
275.26
275.661
276.029
273.02
273.06
273.105
273.155
273.214
273.287
273.378
273.494
273.641
273.824
274.048
274.311
274.61
274.931
275.253
275.545
273.019
273.057
273.099
273.145
273.199
273.264
273.345
273.447
273.575
273.733
273.923
274.145
274.393
274.656
274.915
275.146
273.018
273.055
273.094
273.137
273.187
273.247
273.32
273.41
273.523
273.661
273.825
274.015
274.224
274.443
274.656
274.844
273.017
273.053
273.091
273.132
273.179
273.235
273.302
273.385
273.487
273.612
273.758
273.926
274.11
274.3