/*--------------------------------*- C++ -*----------------------------------*\
| =========                 |                                                 |
| \\      /  F ield         | OpenFOAM: The Open Source CFD Toolbox           |
|  \\    /   O peration     | Version:  v1912                                 |
|   \\  /    A nd           | Website:  www.openfoam.com                      |
|    \\/     M anipulation  |                                                 |
\*---------------------------------------------------------------------------*/
FoamFile
{
    version     2.0;
    format      ascii;
    class       surfaceScalarField;
    location    "0.02/fluid";
    object      phi;
}
// * * * * * * * * * * * * * * * * * * * * * * * * * * * * * * * * * * * * * //

dimensions      [0 3 -1 0 0 0 0];
oriented        oriented;


internalField   nonuniform List<scalar> 
41600
(
6.03675e-05
2.14904e-06
-1.53179e-06
1.51522e-06
5.93571e-05
1.02329e-06
-1.73735e-06
1.72445e-06
5.87096e-05
6.51361e-07
-1.97706e-06
1.97321e-06
5.81671e-05
5.35502e-07
-2.34982e-06
2.35686e-06
5.76228e-05
5.25963e-07
-2.88094e-06
2.89923e-06
5.70185e-05
5.74997e-07
-3.60646e-06
3.63577e-06
5.63129e-05
6.65467e-07
-4.57911e-06
4.61922e-06
5.54692e-05
7.92511e-07
-5.87503e-06
5.92629e-06
5.44483e-05
9.55827e-07
-7.60389e-06
7.6689e-06
5.32034e-05
1.1559e-06
-9.9257e-06
1.00147e-05
5.16625e-05
1.39133e-06
-1.30786e-05
1.32282e-05
4.96677e-05
1.65483e-06
-1.74228e-05
1.77627e-05
4.67537e-05
1.92722e-06
-2.34975e-05
2.44843e-05
4.14492e-05
2.16815e-06
-3.20567e-05
3.5193e-05
2.98452e-05
2.34456e-06
-4.41127e-05
5.33721e-05
2.03099e-06
-5.78202e-05
8.56289e-05
6.29373e-05
1.72878e-06
-1.6104e-06
1.59333e-06
6.26421e-05
1.33178e-06
-1.83006e-06
1.81678e-06
6.22175e-05
1.07973e-06
-2.08204e-06
2.07825e-06
6.17434e-05
1.00204e-06
-2.47291e-06
2.48056e-06
6.12129e-05
1.037e-06
-3.02972e-06
3.04916e-06
6.06006e-05
1.1563e-06
-3.79021e-06
3.82122e-06
5.9875e-05
1.34874e-06
-4.8096e-06
4.85193e-06
5.90009e-05
1.61249e-06
-6.16764e-06
6.22168e-06
5.79381e-05
1.95022e-06
-7.9794e-06
8.04785e-06
5.66353e-05
2.36516e-06
-1.0413e-05
1.05065e-05
5.50131e-05
2.85663e-06
-1.3719e-05
1.3876e-05
5.28984e-05
3.4138e-06
-1.82774e-05
1.86331e-05
4.97892e-05
4.0061e-06
-2.4659e-05
2.56893e-05
4.41175e-05
4.57018e-06
-3.36681e-05
3.69378e-05
3.18236e-05
4.99722e-06
-4.63955e-05
5.60367e-05
4.81118e-06
-6.08422e-05
8.98787e-05
6.26718e-05
1.57447e-06
-1.58152e-06
1.56402e-06
6.25254e-05
1.49195e-06
-1.79671e-06
1.78296e-06
6.22317e-05
1.37771e-06
-2.04245e-06
2.03815e-06
6.18511e-05
1.37562e-06
-2.42319e-06
2.43026e-06
6.13907e-05
1.47857e-06
-2.96494e-06
2.98373e-06
6.08378e-05
1.67892e-06
-3.70404e-06
3.73432e-06
6.01687e-05
1.97624e-06
-4.69374e-06
4.73529e-06
5.9352e-05
2.37597e-06
-6.01124e-06
6.06449e-06
5.8347e-05
2.88738e-06
-7.7683e-06
7.83609e-06
5.70987e-05
3.52024e-06
-1.01291e-05
1.02223e-05
5.55181e-05
4.27982e-06
-1.33396e-05
1.3497e-05
5.34158e-05
5.15868e-06
-1.77751e-05
1.81325e-05
5.02657e-05
6.12355e-06
-2.40023e-05
2.5035e-05
4.44742e-05
7.09521e-06
-3.28249e-05
3.60913e-05
3.19572e-05
7.9087e-06
-4.5343e-05
5.49485e-05
7.82553e-06
-5.9664e-05
8.85999e-05
6.25416e-05
1.55102e-06
-1.53585e-06
1.51773e-06
6.24438e-05
1.60416e-06
-1.74401e-06
1.72956e-06
6.22329e-05
1.59367e-06
-1.97998e-06
1.9749e-06
6.19345e-05
1.66786e-06
-2.34493e-06
2.35113e-06
6.15527e-05
1.84254e-06
-2.86324e-06
2.88103e-06
6.10781e-05
2.12437e-06
-3.56894e-06
3.59808e-06
6.04912e-05
2.52291e-06
-4.51209e-06
4.55239e-06
5.97627e-05
3.05249e-06
-5.76554e-06
5.81751e-06
5.88516e-05
3.73185e-06
-7.43539e-06
7.50199e-06
5.76975e-05
4.58204e-06
-9.67849e-06
9.77084e-06
5.61986e-05
5.62183e-06
-1.27321e-05
1.28889e-05
5.41423e-05
6.85878e-06
-1.69613e-05
1.73175e-05
5.09663e-05
8.27397e-06
-2.2923e-05
2.39485e-05
4.50337e-05
9.79727e-06
-3.14153e-05
3.46459e-05
3.22287e-05
1.12413e-05
-4.35513e-05
5.30237e-05
1.14507e-05
-5.76477e-05
8.6244e-05
6.25041e-05
1.56583e-06
-1.47737e-06
1.45846e-06
6.24405e-05
1.68312e-06
-1.67654e-06
1.6612e-06
6.22963e-05
1.74394e-06
-1.89996e-06
1.89389e-06
6.20763e-05
1.88277e-06
-2.24457e-06
2.24963e-06
6.17801e-05
2.12227e-06
-2.73257e-06
2.74906e-06
6.13993e-05
2.47749e-06
-3.39488e-06
3.42253e-06
6.09175e-05
2.96611e-06
-4.27712e-06
4.31575e-06
6.03083e-05
3.61153e-06
-5.44595e-06
5.49611e-06
5.95313e-05
4.4441e-06
-6.99897e-06
7.06372e-06
5.85217e-05
5.50118e-06
-9.08168e-06
9.17214e-06
5.71643e-05
6.82479e-06
-1.19166e-05
1.2071e-05
5.52175e-05
8.45509e-06
-1.58507e-05
1.62012e-05
5.207e-05
1.04165e-05
-2.14212e-05
2.24262e-05
4.60145e-05
1.26985e-05
-2.94099e-05
3.25642e-05
3.28393e-05
1.51941e-05
-4.09396e-05
5.0162e-05
1.62686e-05
-5.46674e-05
8.26815e-05
6.25136e-05
1.5721e-06
-1.40848e-06
1.38863e-06
6.24909e-05
1.72222e-06
-1.59705e-06
1.58065e-06
6.24114e-05
1.83065e-06
-1.80562e-06
1.79838e-06
6.22712e-05
2.01923e-06
-2.12612e-06
2.12984e-06
6.20677e-05
2.31088e-06
-2.57809e-06
2.59301e-06
6.17944e-05
2.72491e-06
-3.18853e-06
3.21437e-06
6.14391e-05
3.28486e-06
-3.9974e-06
4.03394e-06
6.09806e-05
4.02219e-06
-5.06311e-06
5.11092e-06
6.03833e-05
4.97944e-06
-6.47148e-06
6.53354e-06
5.95836e-05
6.21382e-06
-8.35119e-06
8.43822e-06
5.84587e-05
7.80107e-06
-1.09012e-05
1.10498e-05
5.67398e-05
9.83809e-06
-1.44373e-05
1.47732e-05
5.37555e-05
1.24409e-05
-1.94584e-05
2.04183e-05
4.77022e-05
1.57459e-05
-2.67075e-05
2.97134e-05
3.41797e-05
1.99515e-05
-3.72949e-05
4.60601e-05
2.34382e-05
-5.03945e-05
7.7398e-05
6.25484e-05
1.54457e-06
-1.33197e-06
1.31107e-06
6.25772e-05
1.71107e-06
-1.50876e-06
1.49118e-06
6.25656e-05
1.85074e-06
-1.70081e-06
1.69226e-06
6.25082e-05
2.0744e-06
-1.99446e-06
1.99668e-06
6.24033e-05
2.40271e-06
-2.40617e-06
2.41933e-06
6.22481e-05
2.85628e-06
-2.95842e-06
2.98218e-06
6.2037e-05
3.46192e-06
-3.68436e-06
3.71845e-06
6.17578e-05
4.25654e-06
-4.63229e-06
4.67717e-06
6.13867e-05
5.29214e-06
-5.87269e-06
5.93102e-06
6.0875e-05
6.64414e-06
-7.51087e-06
7.59226e-06
6.01131e-05
8.42595e-06
-9.71018e-06
9.84726e-06
5.88306e-05
1.08153e-05
-1.27333e-05
1.30384e-05
5.63058e-05
1.40991e-05
-1.70063e-05
1.7873e-05
5.05968e-05
1.87387e-05
-2.31896e-05
2.59058e-05
3.70526e-05
2.55846e-05
-3.2333e-05
4.02441e-05
3.53558e-05
-4.43357e-05
6.94663e-05
6.25981e-05
-1.25096e-06
1.22894e-06
1.46844e-06
6.26871e-05
-1.41528e-06
1.39644e-06
1.64093e-06
6.27471e-05
-1.58989e-06
1.57993e-06
1.80074e-06
6.27744e-05
-1.85514e-06
1.85573e-06
2.04644e-06
6.27708e-05
-2.22421e-06
2.23546e-06
2.39506e-06
6.27393e-05
-2.71468e-06
2.73616e-06
2.86633e-06
6.26825e-05
-3.35223e-06
3.38358e-06
3.48735e-06
6.26016e-05
-4.17368e-06
4.21512e-06
4.29606e-06
6.24935e-05
-5.23142e-06
5.28498e-06
5.34667e-06
6.23442e-05
-6.60138e-06
6.67448e-06
6.72032e-06
6.21042e-05
-8.39746e-06
8.51513e-06
8.54823e-06
6.16028e-05
-1.07979e-05
1.10457e-05
1.10689e-05
6.02363e-05
-1.40897e-05
1.47697e-05
1.47856e-05
5.59891e-05
-1.87346e-05
2.08547e-05
2.08658e-05
4.34367e-05
-2.55833e-05
3.18558e-05
3.18646e-05
-3.5355e-05
5.70694e-05
5.70785e-05
6.02776e-05
2.16402e-06
-1.47342e-06
5.91668e-05
1.04114e-06
-1.66763e-06
5.84083e-05
6.72275e-07
-1.89092e-06
5.77363e-05
5.61611e-07
-2.2394e-06
5.70332e-05
5.59824e-07
-2.73768e-06
5.62265e-05
6.19844e-07
-3.41952e-06
5.52549e-05
7.25527e-07
-4.33313e-06
5.40529e-05
8.73309e-07
-5.54624e-06
5.2537e-05
1.06454e-06
-7.15261e-06
5.05899e-05
1.30183e-06
-9.28044e-06
4.8027e-05
1.58616e-06
-1.21018e-05
4.45286e-05
1.91346e-06
-1.58378e-05
3.95085e-05
2.26888e-06
-2.07463e-05
3.19181e-05
2.62076e-06
-2.7087e-05
1.99024e-05
2.94987e-06
-3.50469e-05
2.8263e-06
-4.07544e-05
6.28427e-05
1.75979e-06
-1.54884e-06
6.24425e-05
1.36771e-06
-1.75642e-06
6.19016e-05
1.12225e-06
-1.99117e-06
6.12917e-05
1.05523e-06
-2.35661e-06
6.05948e-05
1.10605e-06
-2.87901e-06
5.97703e-05
1.24788e-06
-3.59377e-06
5.8766e-05
1.47161e-06
-4.55137e-06
5.75163e-05
1.7782e-06
-5.82282e-06
5.5934e-05
2.17395e-06
-7.50653e-06
5.38936e-05
2.66664e-06
-9.73738e-06
5.11965e-05
3.26116e-06
-1.26969e-05
4.74989e-05
3.95307e-06
-1.66194e-05
4.21705e-05
4.71846e-06
-2.17801e-05
3.40827e-05
5.49871e-06
-2.84583e-05
2.13165e-05
6.17708e-06
-3.68566e-05
6.13146e-06
-4.28448e-05
6.25796e-05
1.62015e-06
-1.52152e-06
6.23308e-05
1.54467e-06
-1.72489e-06
6.19241e-05
1.4402e-06
-1.9537e-06
6.14118e-05
1.45392e-06
-2.30952e-06
6.07902e-05
1.58035e-06
-2.81764e-06
6.00319e-05
1.81422e-06
-3.51212e-06
5.90931e-05
2.15831e-06
-4.44161e-06
5.79122e-05
2.62255e-06
-5.67474e-06
5.64027e-05
3.22215e-06
-7.30693e-06
5.44351e-05
3.97465e-06
-9.46957e-06
5.1802e-05
4.89514e-06
-1.23405e-05
4.81427e-05
5.98804e-06
-1.61507e-05
4.28003e-05
7.23296e-06
-2.11745e-05
3.46095e-05
8.55974e-06
-2.76951e-05
2.15894e-05
9.78612e-06
-3.5932e-05
9.901e-06
-4.18584e-05
6.24531e-05
1.60949e-06
-1.4783e-06
6.22572e-05
1.67162e-06
-1.67501e-06
6.19383e-05
1.67368e-06
-1.89455e-06
6.15144e-05
1.76823e-06
-2.2354e-06
6.09796e-05
1.97326e-06
-2.7213e-06
6.03104e-05
2.29856e-06
-3.38413e-06
5.9468e-05
2.75822e-06
-4.26959e-06
5.83945e-05
3.37288e-06
-5.44231e-06
5.70038e-05
4.17005e-06
-6.99258e-06
5.51626e-05
5.1828e-06
-9.04551e-06
5.26516e-05
6.44591e-06
-1.17718e-05
4.90863e-05
7.98775e-06
-1.53957e-05
4.37694e-05
9.81431e-06
-2.01875e-05
3.54692e-05
1.18791e-05
-2.64344e-05
2.2101e-05
1.3983e-05
-3.43801e-05
1.4536e-05
-4.01962e-05
6.24204e-05
1.63471e-06
-1.42297e-06
6.2264e-05
1.7626e-06
-1.61116e-06
6.20183e-05
1.83826e-06
-1.81879e-06
6.16811e-05
2.0012e-06
-2.14035e-06
6.12425e-05
2.27676e-06
-2.59754e-06
6.06816e-05
2.68391e-06
-3.21931e-06
5.99639e-05
3.24606e-06
-4.04724e-06
5.90362e-05
3.99492e-06
-5.14031e-06
5.78156e-05
4.97294e-06
-6.58126e-06
5.61674e-05
6.23487e-06
-8.48548e-06
5.3861e-05
7.84773e-06
-1.1012e-05
5.04841e-05
9.88651e-06
-1.43726e-05
4.52835e-05
1.24217e-05
-1.8828e-05
3.69225e-05
1.54961e-05
-2.46659e-05
2.30987e-05
1.9026e-05
-3.21588e-05
2.07418e-05
-3.77892e-05
6.24354e-05
1.6486e-06
-1.35778e-06
6.23264e-05
1.8105e-06
-1.53593e-06
6.21531e-05
1.93544e-06
-1.72949e-06
6.19055e-05
2.15087e-06
-2.02821e-06
6.15727e-05
2.48279e-06
-2.45127e-06
6.1137e-05
2.95504e-06
-3.024e-06
6.05705e-05
3.59797e-06
-3.78275e-06
5.98281e-05
4.45324e-06
-4.77904e-06
5.88359e-05
5.57886e-06
-6.08523e-06
5.74664e-05
7.05579e-06
-7.80257e-06
5.5488e-05
8.99654e-06
-1.00717e-05
5.24656e-05
1.15542e-05
-1.30827e-05
4.75783e-05
1.49262e-05
-1.70756e-05
3.93409e-05
1.93535e-05
-2.23275e-05
2.50738e-05
2.5134e-05
-2.91358e-05
2.98491e-05
-3.44419e-05
6.24764e-05
1.62557e-06
-1.28539e-06
6.2426e-05
1.80454e-06
-1.45239e-06
6.23293e-05
1.96166e-06
-1.6303e-06
6.21756e-05
2.21372e-06
-1.90358e-06
6.19561e-05
2.58465e-06
-2.28855e-06
6.1659e-05
3.1e-06
-2.80631e-06
6.12656e-05
3.79403e-06
-3.48701e-06
6.07445e-05
4.71512e-06
-4.37307e-06
6.00408e-05
5.93338e-06
-5.52356e-06
5.90526e-05
7.5536e-06
-7.02044e-06
5.75773e-05
9.73862e-06
-8.977e-06
5.51946e-05
1.27507e-05
-1.1547e-05
5.1027e-05
1.70157e-05
-1.49281e-05
4.33591e-05
2.31935e-05
-1.93618e-05
2.89721e-05
3.23342e-05
-2.51462e-05
4.43365e-05
-2.98621e-05
6.25327e-05
-1.20875e-06
1.55067e-06
6.25501e-05
-1.36394e-06
1.73579e-06
6.2534e-05
-1.52533e-06
1.91321e-06
6.24767e-05
-1.77171e-06
2.18755e-06
6.23744e-05
-2.11636e-06
2.57912e-06
6.2223e-05
-2.57584e-06
3.11258e-06
6.20157e-05
-3.17347e-06
3.82252e-06
6.17402e-05
-3.94148e-06
4.75847e-06
6.13724e-05
-4.92346e-06
5.99315e-06
6.08636e-05
-6.17761e-06
7.63862e-06
6.01043e-05
-7.78047e-06
9.88099e-06
5.88242e-05
-9.82952e-06
1.30624e-05
5.63016e-05
-1.24412e-05
1.78899e-05
5.05946e-05
-1.57522e-05
2.59181e-05
3.70522e-05
-1.99613e-05
4.02544e-05
-2.34485e-05
6.94776e-05
6.01941e-05
2.17821e-06
-1.34572e-06
5.89893e-05
1.05803e-06
-1.52089e-06
5.81264e-05
6.92081e-07
-1.7201e-06
5.73321e-05
5.86348e-07
-2.03138e-06
5.64793e-05
5.91913e-07
-2.47682e-06
5.54831e-05
6.62361e-07
-3.08575e-06
5.42664e-05
7.82467e-07
-3.89886e-06
5.27416e-05
9.49888e-07
-4.97132e-06
5.0797e-05
1.16753e-06
-6.37558e-06
4.82802e-05
1.43984e-06
-8.20346e-06
4.49731e-05
1.77003e-06
-1.05648e-05
4.05565e-05
2.15617e-06
-1.35773e-05
3.45655e-05
2.58523e-06
-1.73405e-05
2.63383e-05
3.0251e-06
-2.18849e-05
1.48467e-05
3.4392e-06
-2.69945e-05
3.35435e-06
-2.92745e-05
6.27547e-05
1.78914e-06
-1.41448e-06
6.22564e-05
1.4017e-06
-1.60176e-06
6.1606e-05
1.1625e-06
-1.81123e-06
6.08678e-05
1.10561e-06
-2.13768e-06
6.0014e-05
1.17147e-06
-2.60473e-06
5.8991e-05
1.33466e-06
-3.24314e-06
5.77297e-05
1.58801e-06
-4.09556e-06
5.61415e-05
1.93506e-06
-5.21983e-06
5.41093e-05
2.38538e-06
-6.69212e-06
5.14701e-05
2.95075e-06
-8.60912e-06
4.79896e-05
3.64051e-06
-1.10869e-05
4.33226e-05
4.45452e-06
-1.42508e-05
3.69638e-05
5.3712e-06
-1.82072e-05
2.8192e-05
6.3282e-06
-2.29896e-05
1.59598e-05
7.18734e-06
-2.83725e-05
7.20177e-06
-3.07496e-05
6.24941e-05
1.66338e-06
-1.38982e-06
6.21496e-05
1.59458e-06
-1.5733e-06
6.16364e-05
1.49937e-06
-1.77741e-06
6.09996e-05
1.52808e-06
-2.09518e-06
6.02261e-05
1.67678e-06
-2.54937e-06
5.92758e-05
1.94238e-06
-3.16955e-06
5.80882e-05
2.33069e-06
-3.99678e-06
5.65797e-05
2.85572e-06
-5.08688e-06
5.46337e-05
3.538e-06
-6.51353e-06
5.20839e-05
4.40169e-06
-8.37067e-06
4.8686e-05
5.46964e-06
-1.07717e-05
4.40761e-05
6.75411e-06
-1.38404e-05
3.77167e-05
8.23987e-06
-1.76838e-05
2.88381e-05
9.85289e-06
-2.23411e-05
1.63169e-05
1.1381e-05
-2.76044e-05
1.1595e-05
-2.99526e-05
6.23711e-05
1.66482e-06
-1.3508e-06
6.20834e-05
1.73546e-06
-1.52826e-06
6.16628e-05
1.74944e-06
-1.72401e-06
6.11205e-05
1.86328e-06
-2.02828e-06
6.04414e-05
2.09705e-06
-2.46246e-06
5.95904e-05
2.4635e-06
-3.05422e-06
5.85127e-05
2.98084e-06
-3.84206e-06
5.7129e-05
3.67547e-06
-4.8784e-06
5.53245e-05
4.58267e-06
-6.23271e-06
5.29291e-05
5.74557e-06
-7.99405e-06
4.96863e-05
7.21142e-06
-1.02708e-05
4.52051e-05
9.0223e-06
-1.31827e-05
3.88984e-05
1.11958e-05
-1.68366e-05
2.99102e-05
1.36863e-05
-2.12796e-05
1.69809e-05
1.62598e-05
-2.63297e-05
1.6988e-05
-2.86264e-05
6.23428e-05
1.69989e-06
-1.30083e-06
6.20999e-05
1.83783e-06
-1.47061e-06
6.17586e-05
1.92756e-06
-1.65562e-06
6.13107e-05
2.11335e-06
-1.94251e-06
6.0738e-05
2.42304e-06
-2.35086e-06
6.00087e-05
2.87926e-06
-2.90579e-06
5.90739e-05
3.51068e-06
-3.64225e-06
5.78605e-05
4.35651e-06
-4.60793e-06
5.62583e-05
5.46971e-06
-5.86614e-06
5.40974e-05
6.91948e-06
-7.49844e-06
5.11099e-05
8.79179e-06
-9.60492e-06
4.68728e-05
1.11846e-05
-1.22978e-05
4.073e-05
1.41915e-05
-1.56809e-05
3.16906e-05
1.78682e-05
-1.98083e-05
1.82204e-05
2.21034e-05
-2.45321e-05
2.41389e-05
-2.67377e-05
6.23631e-05
1.72098e-06
-1.24197e-06
6.21736e-05
1.89404e-06
-1.40269e-06
6.19121e-05
2.03462e-06
-1.57501e-06
6.15631e-05
2.27549e-06
-1.84133e-06
6.11084e-05
2.6455e-06
-2.21901e-06
6.05209e-05
3.17271e-06
-2.73002e-06
5.976e-05
3.89368e-06
-3.40484e-06
5.87633e-05
4.85917e-06
-4.28493e-06
5.74326e-05
6.14048e-06
-5.4253e-06
5.56083e-05
7.83786e-06
-6.89673e-06
5.30237e-05
1.00911e-05
-8.78635e-06
4.92286e-05
1.30899e-05
-1.11929e-05
4.34812e-05
1.70735e-05
-1.42102e-05
3.45976e-05
2.23191e-05
-1.78947e-05
2.05767e-05
2.91236e-05
-2.21352e-05
3.44289e-05
-2.41723e-05
6.241e-05
1.70222e-06
-1.17662e-06
6.22859e-05
1.89298e-06
-1.32728e-06
6.21091e-05
2.06663e-06
-1.48549e-06
6.18643e-05
2.34558e-06
-1.72891e-06
6.15369e-05
2.75682e-06
-2.07239e-06
6.11071e-05
3.33043e-06
-2.53423e-06
6.05459e-05
4.10746e-06
-3.13965e-06
5.98082e-05
5.14643e-06
-3.92263e-06
5.882e-05
6.53279e-06
-4.92763e-06
5.74538e-05
8.39467e-06
-6.21101e-06
5.54782e-05
1.09306e-05
-7.84092e-06
5.24584e-05
1.44559e-05
-9.8931e-06
4.75733e-05
1.94691e-05
-1.24386e-05
3.93379e-05
2.67132e-05
-1.55205e-05
2.50725e-05
3.72983e-05
-1.90555e-05
5.03981e-05
-2.0773e-05
6.24724e-05
-1.10742e-06
1.62847e-06
6.24234e-05
-1.24744e-06
1.82554e-06
6.23358e-05
-1.39076e-06
2.01963e-06
6.21986e-05
-1.60998e-06
2.32108e-06
6.20031e-05
-1.91728e-06
2.75325e-06
6.17394e-05
-2.32705e-06
3.34532e-06
6.13934e-05
-2.85874e-06
4.13869e-06
6.09433e-05
-3.53802e-06
5.19307e-06
6.03532e-05
-4.39726e-06
6.59672e-06
5.95598e-05
-5.4754e-06
8.48588e-06
5.84404e-05
-6.81561e-06
1.10851e-05
5.67264e-05
-8.45877e-06
1.47991e-05
5.37465e-05
-1.04298e-05
2.04375e-05
4.76974e-05
-1.27185e-05
2.97287e-05
3.41783e-05
-1.52184e-05
4.60744e-05
-1.6294e-05
7.7415e-05
6.01197e-05
2.19101e-06
-1.15641e-06
5.8831e-05
1.07329e-06
-1.3055e-06
5.78746e-05
7.09965e-07
-1.47362e-06
5.69708e-05
6.08684e-07
-1.73631e-06
5.5985e-05
6.20878e-07
-2.11195e-06
5.48228e-05
7.00703e-07
-2.62422e-06
5.33953e-05
8.33743e-07
-3.30504e-06
5.16013e-05
1.0187e-06
-4.19605e-06
4.9315e-05
1.25975e-06
-5.34907e-06
4.63734e-05
1.56287e-06
-6.82474e-06
4.2563e-05
1.9327e-06
-8.68702e-06
3.7607e-05
2.36852e-06
-1.09899e-05
3.11594e-05
2.85716e-06
-1.37501e-05
2.28065e-05
3.36351e-06
-1.68954e-05
1.20793e-05
3.83507e-06
-2.01025e-05
3.76971e-06
-2.09778e-05
6.26763e-05
1.81564e-06
-1.21544e-06
6.20903e-05
1.43241e-06
-1.37487e-06
6.13419e-05
1.19885e-06
-1.55167e-06
6.0489e-05
1.1511e-06
-1.82718e-06
5.94957e-05
1.2305e-06
-2.2211e-06
5.82987e-05
1.41287e-06
-2.75826e-06
5.68163e-05
1.69273e-06
-3.47213e-06
5.49457e-05
2.0758e-06
-4.40642e-06
5.25546e-05
2.57436e-06
-5.61561e-06
4.94688e-05
3.20324e-06
-7.16362e-06
4.54578e-05
3.97491e-06
-9.11812e-06
4.02205e-05
4.89148e-06
-1.15365e-05
3.33766e-05
5.93099e-06
-1.44371e-05
2.44693e-05
7.02476e-06
-1.77436e-05
1.30354e-05
8.01412e-06
-2.11177e-05
8.05738e-06
-2.202e-05
6.24178e-05
1.70241e-06
-1.19443e-06
6.19879e-05
1.63964e-06
-1.35063e-06
6.13794e-05
1.55279e-06
-1.52287e-06
6.06314e-05
1.59501e-06
-1.79102e-06
5.97228e-05
1.76375e-06
-2.17403e-06
5.8604e-05
2.05783e-06
-2.69578e-06
5.72028e-05
2.48565e-06
-3.38847e-06
5.54212e-05
3.06467e-06
-4.29416e-06
5.31278e-05
3.81973e-06
-5.46546e-06
5.01445e-05
4.7801e-06
-6.96431e-06
4.62304e-05
5.97394e-06
-8.85665e-06
4.10629e-05
7.41787e-06
-1.11992e-05
3.42247e-05
9.09724e-06
-1.40118e-05
2.52026e-05
1.09299e-05
-1.72242e-05
1.34502e-05
1.2675e-05
-2.05128e-05
1.29381e-05
-2.14022e-05
6.2298e-05
1.71478e-06
-1.16116e-06
6.19285e-05
1.79311e-06
-1.31224e-06
6.14169e-05
1.81782e-06
-1.47738e-06
6.07686e-05
1.94905e-06
-1.73407e-06
5.99613e-05
2.20867e-06
-2.10013e-06
5.89509e-05
2.61198e-06
-2.59789e-06
5.76711e-05
3.18077e-06
-3.25746e-06
5.60295e-05
3.94622e-06
-4.11826e-06
5.38963e-05
4.94984e-06
-5.2297e-06
5.10901e-05
6.2424e-06
-6.65016e-06
4.73559e-05
7.87971e-06
-8.44229e-06
4.23402e-05
9.91175e-06
-1.06609e-05
3.55686e-05
1.23597e-05
-1.33275e-05
2.64281e-05
1.51708e-05
-1.638e-05
1.42165e-05
1.8075e-05
-1.95181e-05
1.88928e-05
-2.0384e-05
6.22738e-05
1.75875e-06
-1.11858e-06
6.19537e-05
1.90574e-06
-1.26312e-06
6.15268e-05
2.00816e-06
-1.41913e-06
6.09799e-05
2.21452e-06
-1.66107e-06
6.02881e-05
2.55487e-06
-2.00527e-06
5.94113e-05
3.05501e-06
-2.47197e-06
5.82902e-05
3.74807e-06
-3.08845e-06
5.68394e-05
4.67947e-06
-3.89042e-06
5.49353e-05
5.91051e-06
-4.92265e-06
5.23962e-05
7.52113e-06
-6.23815e-06
4.89548e-05
9.61031e-06
-7.8941e-06
4.42205e-05
1.22895e-05
-9.94128e-06
3.76385e-05
1.56621e-05
-1.24013e-05
2.84406e-05
1.97818e-05
-1.52214e-05
1.56153e-05
2.45003e-05
-1.81322e-05
2.67043e-05
-1.89532e-05
6.22988e-05
1.78634e-06
-1.06841e-06
6.20377e-05
1.96945e-06
-1.20525e-06
6.16972e-05
2.12413e-06
-1.35048e-06
6.12574e-05
2.38788e-06
-1.57497e-06
6.06945e-05
2.79208e-06
-1.89324e-06
5.9974e-05
3.36841e-06
-2.32297e-06
5.90464e-05
4.15868e-06
-2.88785e-06
5.78387e-05
5.22109e-06
-3.61882e-06
5.6241e-05
6.63732e-06
-4.5544e-06
5.40836e-05
8.52179e-06
-5.73999e-06
5.10991e-05
1.10327e-05
-7.22423e-06
4.68645e-05
1.43813e-05
-9.05001e-06
4.07239e-05
1.88277e-05
-1.12354e-05
3.16864e-05
2.46595e-05
-1.37349e-05
1.82179e-05
3.21488e-05
-1.63151e-05
3.77786e-05
-1.7047e-05
6.2351e-05
1.77141e-06
-1.01271e-06
6.21614e-05
1.97281e-06
-1.14099e-06
6.19129e-05
2.16136e-06
-1.27424e-06
6.15867e-05
2.46448e-06
-1.47934e-06
6.11633e-05
2.91187e-06
-1.76871e-06
6.06171e-05
3.53749e-06
-2.1571e-06
5.9912e-05
4.38809e-06
-2.66404e-06
5.89947e-05
5.53043e-06
-3.31469e-06
5.77826e-05
7.06173e-06
-4.13985e-06
5.61412e-05
9.12698e-06
-5.17481e-06
5.38405e-05
1.19482e-05
-6.45578e-06
5.04687e-05
1.5872e-05
-8.01199e-06
4.52726e-05
2.14353e-05
-9.84998e-06
3.69155e-05
2.94197e-05
-1.19236e-05
2.3095e-05
4.0948e-05
-1.40342e-05
5.4677e-05
-1.45915e-05
6.2419e-05
-9.5375e-07
1.69871e-06
6.23108e-05
-1.07297e-06
1.90654e-06
6.21594e-05
-1.19359e-06
2.11565e-06
6.19506e-05
-1.37819e-06
2.44148e-06
6.16721e-05
-1.63702e-06
2.91004e-06
6.13098e-05
-1.98166e-06
3.55442e-06
6.08446e-05
-2.42714e-06
4.42168e-06
6.02496e-05
-2.99228e-06
5.57975e-06
5.94844e-05
-3.69908e-06
7.12876e-06
5.84847e-05
-4.57083e-06
9.2221e-06
5.71357e-05
-5.62768e-06
1.21092e-05
5.51965e-05
-6.87808e-06
1.62306e-05
5.20557e-05
-8.30364e-06
2.24498e-05
4.60064e-05
-9.83467e-06
3.25852e-05
3.28364e-05
-1.12845e-05
5.01841e-05
-1.14981e-05
8.27095e-05
6.00569e-05
2.20192e-06
-9.1527e-07
5.86975e-05
1.0863e-06
-1.0323e-06
5.76621e-05
7.25203e-07
-1.16343e-06
5.66664e-05
6.27705e-07
-1.36833e-06
5.55698e-05
6.45519e-07
-1.66094e-06
5.42712e-05
7.33274e-07
-2.05884e-06
5.26741e-05
8.77208e-07
-2.58515e-06
5.06701e-05
1.07684e-06
-3.26894e-06
4.81284e-05
1.33735e-06
-4.14466e-06
4.48875e-05
1.66571e-06
-5.24953e-06
4.07505e-05
2.06757e-06
-6.61764e-06
3.54859e-05
2.54258e-06
-8.26786e-06
2.88402e-05
3.07685e-06
-1.01813e-05
2.05726e-05
3.63195e-06
-1.22598e-05
1.05496e-05
4.14353e-06
-1.4223e-05
4.08879e-06
-1.45302e-05
6.26102e-05
1.83823e-06
-9.61974e-07
6.19502e-05
1.45858e-06
-1.08715e-06
6.1119e-05
1.22981e-06
-1.22505e-06
6.01697e-05
1.18982e-06
-1.43996e-06
5.90602e-05
1.28069e-06
-1.74684e-06
5.77201e-05
1.47926e-06
-2.16414e-06
5.60599e-05
1.78141e-06
-2.71609e-06
5.3969e-05
2.19456e-06
-3.43325e-06
5.13095e-05
2.73304e-06
-4.3518e-06
4.79087e-05
3.41387e-06
-5.51102e-06
4.35536e-05
4.25147e-06
-6.94691e-06
3.79903e-05
5.24889e-06
-8.67951e-06
3.09363e-05
6.38264e-06
-1.0689e-05
2.21189e-05
7.57766e-06
-1.28719e-05
1.1421e-05
8.65866e-06
-1.49349e-05
8.71515e-06
-1.52439e-05
6.23536e-05
1.73568e-06
-9.45444e-07
6.18515e-05
1.67804e-06
-1.06808e-06
6.11626e-05
1.5983e-06
-1.20243e-06
6.0321e-05
1.65198e-06
-1.41157e-06
5.92999e-05
1.83768e-06
-1.70994e-06
5.80429e-05
2.15577e-06
-2.11523e-06
5.64698e-05
2.61676e-06
-2.65075e-06
5.44753e-05
3.24076e-06
-3.34586e-06
5.19224e-05
4.05587e-06
-4.23542e-06
4.86344e-05
5.09495e-06
-5.35735e-06
4.43862e-05
6.38958e-06
-6.74664e-06
3.89008e-05
7.95837e-06
-8.42321e-06
3.18553e-05
9.7852e-06
-1.03689e-05
2.29147e-05
1.17793e-05
-1.24852e-05
1.18748e-05
1.36758e-05
-1.44901e-05
1.3962e-05
-1.47936e-05
6.22364e-05
1.75736e-06
-9.19272e-07
6.17979e-05
1.84223e-06
-1.03788e-06
6.12094e-05
1.87607e-06
-1.16666e-06
6.04721e-05
2.02204e-06
-1.36684e-06
5.95581e-05
2.30351e-06
-1.65196e-06
5.84167e-05
2.73788e-06
-2.03859e-06
5.69747e-05
3.34975e-06
-2.54845e-06
5.51321e-05
4.17404e-06
-3.20898e-06
5.27542e-05
5.25686e-06
-4.0528e-06
4.96601e-05
6.65437e-06
-5.11546e-06
4.56095e-05
8.42785e-06
-6.42993e-06
4.0291e-05
1.06313e-05
-8.01541e-06
3.33186e-05
1.32859e-05
-9.85577e-06
2.42486e-05
1.63293e-05
-1.18599e-05
1.27089e-05
1.94608e-05
-1.37634e-05
2.03237e-05
-1.40566e-05
6.22156e-05
1.8089e-06
-8.85765e-07
6.18304e-05
1.9636e-06
-9.99236e-07
6.13314e-05
2.07679e-06
-1.12086e-06
6.07013e-05
2.30058e-06
-1.30951e-06
5.99103e-05
2.66685e-06
-1.57757e-06
5.89123e-05
3.20392e-06
-1.94004e-06
5.76417e-05
3.9485e-06
-2.41657e-06
5.60065e-05
4.95074e-06
-3.03191e-06
5.3878e-05
6.27809e-06
-3.81544e-06
5.10753e-05
8.01798e-06
-4.79909e-06
4.73439e-05
1.02777e-05
-6.01251e-06
4.23308e-05
1.31761e-05
-7.4729e-06
3.55615e-05
1.68196e-05
-9.16572e-06
2.64229e-05
2.12549e-05
-1.10085e-05
1.42123e-05
2.62997e-05
-1.27604e-05
2.85946e-05
-1.30316e-05
6.22448e-05
1.84203e-06
-8.46301e-07
6.19231e-05
2.0337e-06
-9.5372e-07
6.1516e-05
2.20035e-06
-1.0669e-06
6.1e-05
2.48348e-06
-1.24191e-06
6.03469e-05
2.91654e-06
-1.48975e-06
5.95172e-05
3.53413e-06
-1.82351e-06
5.84559e-05
4.38218e-06
-2.26021e-06
5.70844e-05
5.52455e-06
-2.82116e-06
5.5289e-05
7.0505e-06
-3.53142e-06
5.29007e-05
9.08412e-06
-4.41787e-06
4.96637e-05
1.17953e-05
-5.50485e-06
4.51875e-05
1.54077e-05
-6.80536e-06
3.88852e-05
2.0191e-05
-8.30438e-06
2.99008e-05
2.64321e-05
-9.92771e-06
1.6974e-05
3.43744e-05
-1.1463e-05
4.01897e-05
-1.16867e-05
6.23014e-05
1.83037e-06
-8.02484e-07
6.20565e-05
2.04083e-06
-9.03183e-07
6.17476e-05
2.242e-06
-1.00699e-06
6.1353e-05
2.5656e-06
-1.16683e-06
6.08495e-05
3.04348e-06
-1.39216e-06
6.02076e-05
3.71275e-06
-1.69386e-06
5.93871e-05
4.6246e-06
-2.0859e-06
5.83305e-05
5.85197e-06
-2.58552e-06
5.69529e-05
7.50062e-06
-3.21243e-06
5.51222e-05
9.7269e-06
-3.9869e-06
5.26198e-05
1.27675e-05
-4.92557e-06
4.90619e-05
1.69873e-05
-6.03373e-06
4.37516e-05
2.29428e-05
-7.29145e-06
3.5457e-05
3.14319e-05
-8.62877e-06
2.20927e-05
4.35678e-05
-9.86343e-06
5.76663e-05
-9.99086e-06
6.23742e-05
-7.56098e-07
1.75855e-06
6.22162e-05
-8.49696e-07
1.97554e-06
6.20108e-05
-9.4361e-07
2.1974e-06
6.17418e-05
-1.08744e-06
2.54385e-06
6.13941e-05
-1.28899e-06
3.04311e-06
6.09506e-05
-1.55678e-06
3.73137e-06
6.03896e-05
-1.90154e-06
4.66009e-06
5.96819e-05
-2.33599e-06
5.90338e-06
5.87874e-05
-2.87389e-06
7.56986e-06
5.76468e-05
-3.5277e-06
9.82436e-06
5.61594e-05
-4.30423e-06
1.29316e-05
5.4113e-05
-5.19694e-06
1.73525e-05
5.0946e-05
-6.17316e-06
2.39793e-05
4.50212e-05
-7.15438e-06
3.46765e-05
3.22218e-05
-7.97687e-06
5.30595e-05
-7.91066e-06
8.62925e-05
6.00081e-05
2.21048e-06
-6.33867e-07
5.85933e-05
1.09653e-06
-7.14023e-07
5.74963e-05
7.37187e-07
-8.03668e-07
5.64294e-05
6.42654e-07
-9.44043e-07
5.52478e-05
6.64865e-07
-1.14416e-06
5.38457e-05
7.58801e-07
-1.41556e-06
5.21224e-05
9.11184e-07
-1.7731e-06
4.99663e-05
1.12214e-06
-2.23498e-06
4.7246e-05
1.39752e-06
-2.82179e-06
4.38057e-05
1.74502e-06
-3.55429e-06
3.9466e-05
2.17077e-06
-4.44875e-06
3.40318e-05
2.67455e-06
-5.50815e-06
2.73156e-05
3.24151e-06
-6.70657e-06
1.91884e-05
3.83047e-06
-7.96308e-06
9.6857e-06
4.36907e-06
-9.08934e-06
4.31963e-06
-9.17731e-06
6.25588e-05
1.856e-06
-6.66257e-07
6.18409e-05
1.47916e-06
-7.51943e-07
6.09452e-05
1.25414e-06
-8.46231e-07
5.99211e-05
1.22022e-06
-9.9345e-07
5.87224e-05
1.32005e-06
-1.20333e-06
5.72738e-05
1.53124e-06
-1.48797e-06
5.54812e-05
1.85065e-06
-1.86298e-06
5.32306e-05
2.28697e-06
-2.34744e-06
5.03834e-05
2.85592e-06
-2.96302e-06
4.67729e-05
3.57601e-06
-3.73158e-06
4.22043e-05
4.46276e-06
-4.67026e-06
3.64621e-05
5.51945e-06
-5.7822e-06
2.93338e-05
6.72085e-06
-7.04006e-06
2.06644e-05
7.98662e-06
-8.35859e-06
1.05102e-05
9.12938e-06
-9.54101e-06
9.19144e-06
-9.62402e-06
6.23035e-05
1.76186e-06
-6.54838e-07
6.17452e-05
1.70825e-06
-7.38806e-07
6.09935e-05
1.63407e-06
-8.30695e-07
6.00794e-05
1.69672e-06
-9.73964e-07
5.89719e-05
1.89566e-06
-1.17801e-06
5.76099e-05
2.23243e-06
-1.45447e-06
5.5909e-05
2.71907e-06
-1.8183e-06
5.37603e-05
3.37764e-06
-2.28784e-06
5.10263e-05
4.23849e-06
-2.88391e-06
4.75356e-05
5.33685e-06
-3.62756e-06
4.30809e-05
6.70629e-06
-4.5354e-06
3.74216e-05
8.36618e-06
-5.61064e-06
3.03025e-05
1.02983e-05
-6.82728e-06
2.15029e-05
1.24045e-05
-8.10355e-06
1.09897e-05
1.44025e-05
-9.25005e-06
1.46989e-05
-9.33088e-06
6.21885e-05
1.79086e-06
-6.36803e-07
6.1696e-05
1.88087e-06
-7.17982e-07
6.10476e-05
1.92185e-06
-8.06053e-07
6.02413e-05
2.07935e-06
-9.43171e-07
5.92453e-05
2.37787e-06
-1.13815e-06
5.80046e-05
2.83636e-06
-1.40185e-06
5.6442e-05
3.48151e-06
-1.74823e-06
5.44541e-05
4.35089e-06
-2.19437e-06
5.19057e-05
5.49383e-06
-2.75967e-06
4.86208e-05
6.97e-06
-3.46376e-06
4.43753e-05
8.84395e-06
-4.32212e-06
3.88923e-05
1.11716e-05
-5.33782e-06
3.18492e-05
1.39723e-05
-6.48662e-06
2.29102e-05
1.71756e-05
-7.69197e-06
1.18679e-05
2.04576e-05
-8.77613e-06
2.13431e-05
-8.85274e-06
6.21704e-05
1.84837e-06
-6.13708e-07
6.17343e-05
2.00911e-06
-6.91348e-07
6.11791e-05
2.13073e-06
-7.74505e-07
6.04845e-05
2.36815e-06
-9.03714e-07
5.96172e-05
2.75461e-06
-1.08702e-06
5.85274e-05
3.32033e-06
-1.33424e-06
5.71457e-05
4.10462e-06
-1.65798e-06
5.53772e-05
5.16101e-06
-2.07358e-06
5.30929e-05
6.56115e-06
-2.59842e-06
5.01164e-05
8.39738e-06
-3.24996e-06
4.62077e-05
1.07819e-05
-4.0418e-06
4.10451e-05
1.38375e-05
-4.97621e-06
3.42115e-05
1.76708e-05
-6.03058e-06
2.51928e-05
2.23204e-05
-7.13471e-06
1.34386e-05
2.75781e-05
-8.12663e-06
2.9923e-05
-8.19265e-06
6.22027e-05
1.88585e-06
-5.86508e-07
6.18339e-05
2.08423e-06
-6.59977e-07
6.13748e-05
2.26024e-06
-7.37343e-07
6.07997e-05
2.55852e-06
-8.57201e-07
6.00772e-05
3.01404e-06
-1.02668e-06
5.91648e-05
3.6636e-06
-1.25433e-06
5.80041e-05
4.55612e-06
-1.55105e-06
5.65145e-05
5.75943e-06
-1.92998e-06
5.45821e-05
7.36796e-06
-2.40581e-06
5.20425e-05
9.51207e-06
-2.99297e-06
4.86529e-05
1.23687e-05
-3.70206e-06
4.40502e-05
1.61682e-05
-4.53329e-06
3.76973e-05
2.11841e-05
-5.46477e-06
2.88238e-05
2.7699e-05
-6.43282e-06
1.63016e-05
3.59319e-05
-7.29467e-06
4.18554e-05
-7.33621e-06
6.22629e-05
1.87676e-06
-5.56305e-07
6.19748e-05
2.09431e-06
-6.25151e-07
6.16188e-05
2.30537e-06
-6.96087e-07
6.1171e-05
2.64495e-06
-8.05554e-07
6.0606e-05
3.14657e-06
-9.59647e-07
5.98916e-05
3.84962e-06
-1.16547e-06
5.89852e-05
4.80853e-06
-1.43193e-06
5.78281e-05
6.10059e-06
-1.7696e-06
5.63363e-05
7.83726e-06
-2.18986e-06
5.43824e-05
1.01822e-05
-2.70318e-06
5.17604e-05
1.3381e-05
-3.3158e-06
4.81104e-05
1.78084e-05
-4.02393e-06
4.27761e-05
2.40309e-05
-4.80402e-06
3.45917e-05
3.28517e-05
-5.59711e-06
2.15712e-05
4.53702e-05
-6.28133e-06
5.96923e-05
-6.27197e-06
6.23394e-05
-5.24337e-07
1.80563e-06
6.21425e-05
-5.88292e-07
2.02981e-06
6.1895e-05
-6.52443e-07
2.26163e-06
6.15793e-05
-7.50943e-07
2.62419e-06
6.11783e-05
-8.8879e-07
3.14733e-06
6.06732e-05
-1.07154e-06
3.86953e-06
6.00407e-05
-1.30601e-06
4.84546e-06
5.92517e-05
-1.59991e-06
6.15353e-06
5.82681e-05
-1.96097e-06
7.908e-06
5.70367e-05
-2.39505e-06
1.0281e-05
5.547e-05
-2.90283e-06
1.35462e-05
5.33798e-05
-3.47422e-06
1.81759e-05
5.02399e-05
-4.07959e-06
2.50772e-05
4.44562e-05
-4.6574e-06
3.61384e-05
3.19391e-05
-5.09928e-06
5.50098e-05