/*--------------------------------*- C++ -*----------------------------------*\
| =========                 |                                                 |
| \\      /  F ield         | OpenFOAM: The Open Source CFD Toolbox           |
|  \\    /   O peration     | Version:  v1912                                 |
|   \\  /    A nd           | Website:  www.openfoam.com                      |
|    \\/     M anipulation  |                                                 |
\*---------------------------------------------------------------------------*/
FoamFile
{
    version     2.0;
    format      ascii;
    class       pointVectorField;
    location    "0.02/fluid";
    object      pointMotionU;
}
// * * * * * * * * * * * * * * * * * * * * * * * * * * * * * * * * * * * * * //

dimensions      [0 1 -1 0 0 0 0];


internalField   nonuniform List<vector> 
16859
(
(0 0 0)
(0 0 0)
(0 0 0)
(0 0 0)
(0 0 0)
(0 0 0)
(0 0 0)
(0 0 0)
(0 0 0)
(0 0 0)
(0 0 0)
(0 0 0)
(0 0 0)
(0 0 0)
(0 0 0)
(0 0 0)
(3.24882e-06 -2.41691e-06 2.80218e-06)
(0 0 0)
(2.24726e-07 2.97195e-07 -1.11224e-07)
(4.25777e-07 5.6654e-07 -2.16197e-07)
(6.14018e-07 8.23552e-07 -3.22654e-07)
(7.99355e-07 1.08059e-06 -4.37684e-07)
(9.92884e-07 1.34958e-06 -5.69944e-07)
(1.20647e-06 1.64089e-06 -7.28627e-07)
(1.4519e-06 1.96306e-06 -9.26923e-07)
(1.74864e-06 2.32447e-06 -1.17895e-06)
(2.11882e-06 2.72952e-06 -1.51034e-06)
(2.61007e-06 3.18254e-06 -1.94138e-06)
(3.28322e-06 3.66285e-06 -2.46736e-06)
(4.2143e-06 4.08991e-06 -3.035e-06)
(5.43358e-06 4.30749e-06 -3.51118e-06)
(6.60341e-06 3.99228e-06 -3.61063e-06)
(7.26245e-06 2.90803e-06 -2.93535e-06)
(3.91213e-06 -6.53919e-07 6.15668e-07)
(0 0 0)
(4.25815e-07 5.61552e-07 -2.11122e-07)
(8.08984e-07 1.07394e-06 -4.11204e-07)
(1.1687e-06 1.56519e-06 -6.14623e-07)
(1.52186e-06 2.05691e-06 -8.34254e-07)
(1.88918e-06 2.5716e-06 -1.08568e-06)
(2.29132e-06 3.12969e-06 -1.39043e-06)
(2.75186e-06 3.74789e-06 -1.76973e-06)
(3.29772e-06 4.43846e-06 -2.25502e-06)
(3.967e-06 5.2107e-06 -2.89112e-06)
(4.83216e-06 6.08003e-06 -3.72364e-06)
(5.97649e-06 7.01723e-06 -4.75451e-06)
(7.48609e-06 7.9106e-06 -5.91392e-06)
(9.13492e-06 8.50751e-06 -7.01792e-06)
(1.00326e-05 8.37958e-06 -7.67076e-06)
(9.27522e-06 7.38712e-06 -7.46325e-06)
(3.09137e-06 5.20563e-06 -5.82053e-06)
(0 0 0)
(6.00652e-07 7.87626e-07 -2.98442e-07)
(1.14378e-06 1.51109e-06 -5.82476e-07)
(1.65449e-06 2.20825e-06 -8.72212e-07)
(2.15329e-06 2.90603e-06 -1.1838e-06)
(2.66615e-06 3.63428e-06 -1.54003e-06)
(3.21966e-06 4.42171e-06 -1.9721e-06)
(3.84598e-06 5.29491e-06 -2.51147e-06)
(4.57276e-06 6.27017e-06 -3.20369e-06)
(5.44299e-06 7.36779e-06 -4.1179e-06)
(6.5348e-06 8.62084e-06 -5.32495e-06)
(7.91622e-06 1.00054e-05 -6.85124e-06)
(9.63467e-06 1.14184e-05 -8.64487e-06)
(1.12747e-05 1.25832e-05 -1.04933e-05)
(1.16799e-05 1.30372e-05 -1.19421e-05)
(1.00534e-05 1.25983e-05 -1.24358e-05)
(3.54714e-06 1.09782e-05 -1.11986e-05)
(0 0 0)
(7.52941e-07 9.78396e-07 -3.75601e-07)
(1.43421e-06 1.87994e-06 -7.33533e-07)
(2.07665e-06 2.75479e-06 -1.09983e-06)
(2.69861e-06 3.62863e-06 -1.49161e-06)
(3.32452e-06 4.5335e-06 -1.94072e-06)
(3.98973e-06 5.51027e-06 -2.48314e-06)
(4.72843e-06 6.59568e-06 -3.16523e-06)
(5.56683e-06 7.81385e-06 -4.04621e-06)
(6.54547e-06 9.20124e-06 -5.21338e-06)
(7.72004e-06 1.08001e-05 -6.76883e-06)
(9.12359e-06 1.26037e-05 -8.77051e-06)
(1.0767e-05 1.45487e-05 -1.1199e-05)
(1.21758e-05 1.63895e-05 -1.38432e-05)
(1.21875e-05 1.76408e-05 -1.615e-05)
(1.02792e-05 1.79224e-05 -1.72738e-05)
(3.99606e-06 1.67851e-05 -1.61371e-05)
(0 0 0)
(8.83505e-07 1.13304e-06 -4.43244e-07)
(1.68556e-06 2.18317e-06 -8.67138e-07)
(2.44066e-06 3.20563e-06 -1.30106e-06)
(3.16252e-06 4.22392e-06 -1.76488e-06)
(3.87344e-06 5.27121e-06 -2.29416e-06)
(4.6125e-06 6.39952e-06 -2.9367e-06)
(5.41612e-06 7.65629e-06 -3.74509e-06)
(6.30498e-06 9.07659e-06 -4.79292e-06)
(7.30622e-06 1.07061e-05 -6.18143e-06)
(8.43558e-06 1.25906e-05 -8.03773e-06)
(9.68676e-06 1.47521e-05 -1.04662e-05)
(1.10314e-05 1.71882e-05 -1.35027e-05)
(1.19674e-05 1.97306e-05 -1.69743e-05)
(1.15604e-05 2.19573e-05 -2.02564e-05)
(9.58997e-06 2.32e-05 -2.21218e-05)
(3.75774e-06 2.26695e-05 -2.10729e-05)
(0 0 0)
(9.96893e-07 1.25416e-06 -5.03325e-07)
(1.90363e-06 2.42226e-06 -9.86097e-07)
(2.75184e-06 3.55923e-06 -1.47832e-06)
(3.54949e-06 4.68596e-06 -2.00519e-06)
(4.31966e-06 5.84081e-06 -2.60512e-06)
(5.10191e-06 7.08423e-06 -3.33297e-06)
(5.93117e-06 8.47313e-06 -4.24826e-06)
(6.82174e-06 1.00512e-05 -5.42878e-06)
(7.77589e-06 1.18652e-05 -6.9895e-06)
(8.76455e-06 1.39595e-05 -9.08291e-06)
(9.72352e-06 1.63835e-05 -1.18678e-05)
(1.05574e-05 1.91999e-05 -1.54455e-05)
(1.07587e-05 2.2381e-05 -1.97681e-05)
(9.64107e-06 2.56547e-05 -2.42058e-05)
(7.3729e-06 2.82267e-05 -2.715e-05)
(2.00035e-06 2.89489e-05 -2.65593e-05)
(0 0 0)
(1.09813e-06 1.3443e-06 -5.58441e-07)
(2.09366e-06 2.59689e-06 -1.09245e-06)
(3.01406e-06 3.81053e-06 -1.63393e-06)
(3.86536e-06 5.00708e-06 -2.21193e-06)
(4.67269e-06 6.23306e-06 -2.87135e-06)
(5.47543e-06 7.55587e-06 -3.66731e-06)
(6.30134e-06 9.03629e-06 -4.66142e-06)
(7.1568e-06 1.07228e-05 -5.93349e-06)
(8.01643e-06 1.26553e-05 -7.60571e-06)
(8.8044e-06 1.48726e-05 -9.8559e-06)
(9.40424e-06 1.74381e-05 -1.28797e-05)
(9.60298e-06 2.04395e-05 -1.68664e-05)
(8.8809e-06 2.39373e-05 -2.18884e-05)
(6.69193e-06 2.78133e-05 -2.74617e-05)
(3.37165e-06 3.13657e-05 -3.19846e-05)
(-2.7447e-06 3.65506e-05 -3.36942e-05)
(0 0 0)
(1.18643e-06 1.39897e-06 -6.0696e-07)
(2.25579e-06 2.69923e-06 -1.18354e-06)
(3.22874e-06 3.94774e-06 -1.76426e-06)
(4.11642e-06 5.17584e-06 -2.3819e-06)
(4.94512e-06 6.43702e-06 -3.08586e-06)
(5.74865e-06 7.79947e-06 -3.9299e-06)
(6.54941e-06 9.32581e-06 -4.96946e-06)
(7.34443e-06 1.10634e-05 -6.28309e-06)
(8.08323e-06 1.30417e-05 -8.00093e-06)
(8.6649e-06 1.52954e-05 -1.03054e-05)
(8.92842e-06 1.78689e-05 -1.34061e-05)
(8.57502e-06 2.07979e-05 -1.75154e-05)
(7.16611e-06 2.41048e-05 -2.27163e-05)
(4.30151e-06 2.76803e-05 -2.87162e-05)
(3.80478e-07 3.08038e-05 -3.40995e-05)
(-8.76019e-06 3.54319e-05 -4.1196e-05)
(0 0 0)
(0 0 0)
(0 0 0)
(0 0 0)
(0 0 0)
(0 0 0)
(0 0 0)
(0 0 0)
(0 0 0)
(0 0 0)
(0 0 0)
(0 0 0)
(0 0 0)
(0 0 0)
(0 0 0)
(0 0 0)
(9.45603e-06 2.35763e-07 -1.95291e-06)
(0 0 0)
(2.31512e-07 3.03973e-07 -1.08257e-07)
(4.40028e-07 5.80779e-07 -2.10974e-07)
(6.35224e-07 8.44277e-07 -3.15283e-07)
(8.26069e-07 1.10529e-06 -4.27183e-07)
(1.02382e-06 1.37524e-06 -5.54458e-07)
(1.24152e-06 1.66484e-06 -7.06347e-07)
(1.49337e-06 1.98308e-06 -8.93575e-07)
(1.80224e-06 2.34052e-06 -1.13305e-06)
(2.20562e-06 2.75143e-06 -1.45166e-06)
(2.76407e-06 3.22603e-06 -1.87673e-06)
(3.56834e-06 3.74769e-06 -2.40882e-06)
(4.76018e-06 4.24095e-06 -3.01206e-06)
(6.55033e-06 4.57842e-06 -3.65842e-06)
(9.20191e-06 4.58621e-06 -4.33497e-06)
(1.27306e-05 4.12331e-06 -4.94761e-06)
(1.86003e-05 3.22402e-06 -7.1824e-06)
(0 0 0)
(4.38208e-07 5.73672e-07 -2.05404e-07)
(8.33894e-07 1.09802e-06 -4.00667e-07)
(1.20457e-06 1.59866e-06 -5.98861e-07)
(1.56592e-06 2.09518e-06 -8.11106e-07)
(1.9388e-06 2.60926e-06 -1.05263e-06)
(2.34851e-06 3.16434e-06 -1.34287e-06)
(2.82106e-06 3.77798e-06 -1.70391e-06)
(3.39356e-06 4.46859e-06 -2.16711e-06)
(4.12181e-06 5.25686e-06 -2.78332e-06)
(5.10371e-06 6.16645e-06 -3.60385e-06)
(6.46551e-06 7.17398e-06 -4.63828e-06)
(8.35792e-06 8.16859e-06 -5.85333e-06)
(1.0834e-05 8.95512e-06 -7.21294e-06)
(1.36122e-05 9.25309e-06 -8.67319e-06)
(1.59218e-05 8.94048e-06 -1.00254e-05)
(1.85358e-05 8.71083e-06 -1.33199e-05)
(0 0 0)
(6.1717e-07 8.03339e-07 -2.9045e-07)
(1.17598e-06 1.54104e-06 -5.67094e-07)
(1.69935e-06 2.248e-06 -8.47803e-07)
(2.20676e-06 2.9495e-06 -1.14774e-06)
(2.7271e-06 3.67742e-06 -1.48977e-06)
(3.2925e-06 4.46453e-06 -1.90343e-06)
(3.93896e-06 5.33919e-06 -2.42107e-06)
(4.70505e-06 6.3244e-06 -3.08934e-06)
(5.65206e-06 7.44916e-06 -3.97867e-06)
(6.88531e-06 8.75343e-06 -5.16671e-06)
(8.51844e-06 1.02222e-05 -6.68872e-06)
(1.06669e-05 1.17564e-05 -8.53802e-06)
(1.3192e-05 1.31373e-05 -1.06832e-05)
(1.55264e-05 1.40229e-05 -1.30232e-05)
(1.68843e-05 1.42138e-05 -1.51425e-05)
(1.91029e-05 1.4202e-05 -1.87441e-05)
(0 0 0)
(7.73209e-07 9.9726e-07 -3.65665e-07)
(1.4722e-06 1.91417e-06 -7.13484e-07)
(2.12772e-06 2.79821e-06 -1.06741e-06)
(2.75906e-06 3.67593e-06 -1.44502e-06)
(3.39669e-06 4.58432e-06 -1.87605e-06)
(4.07945e-06 5.56655e-06 -2.39973e-06)
(4.84702e-06 6.66238e-06 -3.05946e-06)
(5.73483e-06 7.9009e-06 -3.91476e-06)
(6.79858e-06 9.32271e-06 -5.0551e-06)
(8.12221e-06 1.09782e-05 -6.58351e-06)
(9.78622e-06 1.28715e-05 -8.57076e-06)
(1.18627e-05 1.49451e-05 -1.10513e-05)
(1.41518e-05 1.70014e-05 -1.40027e-05)
(1.61114e-05 1.86456e-05 -1.72132e-05)
(1.72115e-05 1.94605e-05 -1.99638e-05)
(1.95493e-05 1.97183e-05 -2.37379e-05)
(0 0 0)
(9.07155e-07 1.15471e-06 -4.3166e-07)
(1.72819e-06 2.22079e-06 -8.43212e-07)
(2.49686e-06 3.25248e-06 -1.26218e-06)
(3.23084e-06 4.27718e-06 -1.70936e-06)
(3.95846e-06 5.33296e-06 -2.22045e-06)
(4.7223e-06 6.47362e-06 -2.84227e-06)
(5.56134e-06 7.74797e-06 -3.62791e-06)
(6.5058e-06 9.19525e-06 -4.64772e-06)
(7.59299e-06 1.08627e-05 -6.00578e-06)
(8.86909e-06 1.28054e-05 -7.83008e-06)
(1.03703e-05 1.50552e-05 -1.02365e-05)
(1.21226e-05 1.76149e-05 -1.33191e-05)
(1.39351e-05 2.03625e-05 -1.70804e-05)
(1.54744e-05 2.29027e-05 -2.12168e-05)
(1.65512e-05 2.45367e-05 -2.46747e-05)
(1.92761e-05 2.51479e-05 -2.86948e-05)
(0 0 0)
(1.02216e-06 1.27708e-06 -4.90326e-07)
(1.94821e-06 2.46108e-06 -9.58635e-07)
(2.81109e-06 3.60832e-06 -1.43491e-06)
(3.62556e-06 4.74613e-06 -1.94354e-06)
(4.41842e-06 5.91491e-06 -2.5249e-06)
(5.2306e-06 7.17489e-06 -3.23066e-06)
(6.09955e-06 8.58475e-06 -4.11951e-06)
(7.045e-06 1.01902e-05 -5.2693e-06)
(8.08089e-06 1.20419e-05 -6.79506e-06)
(9.20445e-06 1.41927e-05 -8.84976e-06)
(1.03899e-05 1.66982e-05 -1.15989e-05)
(1.1594e-05 1.96276e-05 -1.52134e-05)
(1.26018e-05 2.29648e-05 -1.97609e-05)
(1.33172e-05 2.64658e-05 -2.49428e-05)
(1.40031e-05 2.93602e-05 -2.93833e-05)
(1.73851e-05 3.05343e-05 -3.40009e-05)
(0 0 0)
(1.12219e-06 1.3657e-06 -5.43156e-07)
(2.13659e-06 2.63364e-06 -1.06105e-06)
(3.07446e-06 3.86076e-06 -1.58623e-06)
(3.94693e-06 5.07284e-06 -2.14636e-06)
(4.7811e-06 6.31597e-06 -2.78557e-06)
(5.61645e-06 7.65666e-06 -3.5569e-06)
(6.48223e-06 9.1573e-06 -4.5199e-06)
(7.38868e-06 1.08695e-05 -5.75642e-06)
(8.32149e-06 1.28391e-05 -7.38918e-06)
(9.22773e-06 1.51098e-05 -9.59252e-06)
(1.00118e-05 1.77441e-05 -1.25766e-05)
(1.05069e-05 2.08212e-05 -1.65617e-05)
(1.0423e-05 2.4396e-05 -2.17354e-05)
(9.61758e-06 2.83418e-05 -2.78931e-05)
(8.4298e-06 3.19639e-05 -3.36106e-05)
(1.1147e-05 3.65596e-05 -3.93358e-05)
(0 0 0)
(1.20768e-06 1.41726e-06 -5.89214e-07)
(2.29604e-06 2.73374e-06 -1.14896e-06)
(3.28923e-06 3.99954e-06 -1.71217e-06)
(4.20027e-06 5.2457e-06 -2.3119e-06)
(5.05734e-06 6.52467e-06 -2.99458e-06)
(5.89447e-06 7.90481e-06 -3.8103e-06)
(6.73341e-06 9.45057e-06 -4.81602e-06)
(7.57397e-06 1.12141e-05 -6.09325e-06)
(8.37652e-06 1.32308e-05 -7.76719e-06)
(9.05254e-06 1.55337e-05 -1.00256e-05)
(9.449e-06 1.81593e-05 -1.30862e-05)
(9.30623e-06 2.11204e-05 -1.71512e-05)
(8.28952e-06 2.44073e-05 -2.24327e-05)
(6.18393e-06 2.78188e-05 -2.87926e-05)
(3.25805e-06 3.05e-05 -3.48759e-05)
(-2.50156e-06 3.08249e-05 -4.26404e-05)
(0 0 0)
(0 0 0)
(0 0 0)
(0 0 0)
(0 0 0)
(0 0 0)
(0 0 0)
(0 0 0)
(0 0 0)
(0 0 0)
(0 0 0)
(0 0 0)
(0 0 0)
(0 0 0)
(0 0 0)
(0 0 0)
(1.25178e-05 2.25473e-06 -1.20836e-06)
(0 0 0)
(2.37669e-07 3.10355e-07 -1.01849e-07)
(4.52163e-07 5.93112e-07 -1.98901e-07)
(6.52498e-07 8.61097e-07 -2.97482e-07)
(8.46613e-07 1.12353e-06 -4.02711e-07)
(1.04605e-06 1.39157e-06 -5.21508e-07)
(1.26553e-06 1.67716e-06 -6.62105e-07)
(1.52249e-06 1.99075e-06 -8.35212e-07)
(1.84518e-06 2.34615e-06 -1.05681e-06)
(2.28337e-06 2.76413e-06 -1.35634e-06)
(2.91351e-06 3.26238e-06 -1.76078e-06)
(3.85262e-06 3.82786e-06 -2.27182e-06)
(5.31506e-06 4.41059e-06 -2.87373e-06)
(7.73994e-06 4.97898e-06 -3.58109e-06)
(1.19016e-05 5.57212e-06 -4.47319e-06)
(1.80332e-05 6.22655e-06 -5.44304e-06)
(2.56327e-05 6.91204e-06 -5.22138e-06)
(0 0 0)
(4.49948e-07 5.8583e-07 -1.93656e-07)
(8.56685e-07 1.1211e-06 -3.78193e-07)
(1.23616e-06 1.62914e-06 -5.65202e-07)
(1.60324e-06 2.1279e-06 -7.64538e-07)
(1.97985e-06 2.63965e-06 -9.89704e-07)
(2.39418e-06 3.18926e-06 -1.25938e-06)
(2.87744e-06 3.7974e-06 -1.59452e-06)
(3.47614e-06 4.48776e-06 -2.02775e-06)
(4.26816e-06 5.29402e-06 -2.61079e-06)
(5.37495e-06 6.24679e-06 -3.39372e-06)
(6.96537e-06 7.32833e-06 -4.38959e-06)
(9.28449e-06 8.46172e-06 -5.58507e-06)
(1.27018e-05 9.56223e-06 -7.01105e-06)
(1.74865e-05 1.05457e-05 -8.69884e-06)
(2.27474e-05 1.12806e-05 -1.03004e-05)
(2.65915e-05 1.18881e-05 -1.07576e-05)
(0 0 0)
(6.33711e-07 8.20437e-07 -2.74429e-07)
(1.20703e-06 1.57222e-06 -5.35709e-07)
(1.74132e-06 2.28785e-06 -8.00036e-07)
(2.2565e-06 2.99264e-06 -1.08131e-06)
(2.78309e-06 3.71962e-06 -1.40062e-06)
(3.35832e-06 4.50471e-06 -1.7869e-06)
(4.02231e-06 5.37862e-06 -2.27183e-06)
(4.827e-06 6.37195e-06 -2.90274e-06)
(5.85817e-06 7.52753e-06 -3.75095e-06)
(7.24561e-06 8.88693e-06 -4.88686e-06)
(9.15613e-06 1.04437e-05 -6.34986e-06)
(1.17905e-05 1.21282e-05 -8.1514e-06)
(1.535e-05 1.38217e-05 -1.03272e-05)
(1.97936e-05 1.53404e-05 -1.28538e-05)
(2.40548e-05 1.64159e-05 -1.51539e-05)
(2.72353e-05 1.71263e-05 -1.59858e-05)
(0 0 0)
(7.92945e-07 1.01739e-06 -3.45842e-07)
(1.50953e-06 1.95124e-06 -6.74605e-07)
(2.17668e-06 2.84381e-06 -1.00689e-06)
(2.81731e-06 3.72606e-06 -1.36034e-06)
(3.46602e-06 4.63816e-06 -1.76464e-06)
(4.16556e-06 5.62575e-06 -2.25619e-06)
(4.95931e-06 6.72934e-06 -2.87867e-06)
(5.89664e-06 7.98644e-06 -3.69264e-06)
(7.0535e-06 9.44583e-06 -4.78292e-06)
(8.54069e-06 1.11588e-05 -6.24431e-06)
(1.04974e-05 1.31409e-05 -8.14972e-06)
(1.30745e-05 1.53546e-05 -1.05437e-05)
(1.64065e-05 1.76824e-05 -1.3472e-05)
(2.0469e-05 1.98553e-05 -1.68167e-05)
(2.44053e-05 2.1409e-05 -1.9725e-05)
(2.75962e-05 2.23674e-05 -2.08138e-05)
(0 0 0)
(9.29991e-07 1.17776e-06 -4.08886e-07)
(1.76998e-06 2.26165e-06 -7.97498e-07)
(2.55084e-06 3.30197e-06 -1.19021e-06)
(3.296e-06 4.3328e-06 -1.60895e-06)
(4.04023e-06 5.398e-06 -2.08932e-06)
(4.82804e-06 6.55129e-06 -2.67591e-06)
(5.7012e-06 7.84153e-06 -3.41994e-06)
(6.70129e-06 9.31399e-06 -4.39368e-06)
(7.88246e-06 1.1021e-05 -5.69281e-06)
(9.31948e-06 1.30192e-05 -7.43559e-06)
(1.11068e-05 1.5351e-05 -9.73647e-06)
(1.33452e-05 1.80279e-05 -1.26868e-05)
(1.61828e-05 2.09731e-05 -1.63587e-05)
(1.97787e-05 2.38625e-05 -2.05196e-05)
(2.36265e-05 2.59921e-05 -2.40404e-05)
(2.71702e-05 2.72058e-05 -2.54212e-05)
(0 0 0)
(1.04679e-06 1.30157e-06 -4.64409e-07)
(1.99223e-06 2.50338e-06 -9.06154e-07)
(2.86815e-06 3.65994e-06 -1.35254e-06)
(3.69679e-06 4.80673e-06 -1.83034e-06)
(4.51116e-06 5.98969e-06 -2.37823e-06)
(5.35312e-06 7.2675e-06 -3.04484e-06)
(6.26041e-06 8.69724e-06 -3.88712e-06)
(7.26231e-06 1.03302e-05 -4.98325e-06)
(8.38568e-06 1.22193e-05 -6.44132e-06)
(9.65685e-06 1.44213e-05 -8.40317e-06)
(1.11036e-05 1.69978e-05 -1.10273e-05)
(1.27474e-05 2.00051e-05 -1.446e-05)
(1.47149e-05 2.34273e-05 -1.8816e-05)
(1.73569e-05 2.70016e-05 -2.37858e-05)
(2.06971e-05 2.99799e-05 -2.79847e-05)
(2.49124e-05 3.13859e-05 -2.98238e-05)
(0 0 0)
(1.14557e-06 1.38845e-06 -5.1308e-07)
(2.17932e-06 2.67387e-06 -1.00117e-06)
(3.13144e-06 3.9114e-06 -1.4943e-06)
(4.02196e-06 5.13646e-06 -2.02219e-06)
(4.88201e-06 6.39768e-06 -2.62564e-06)
(5.74925e-06 7.75785e-06 -3.35298e-06)
(6.65386e-06 9.27907e-06 -4.2635e-06)
(7.61166e-06 1.10166e-05 -5.43899e-06)
(8.61941e-06 1.30193e-05 -6.99744e-06)
(9.65175e-06 1.53358e-05 -9.10225e-06)
(1.06496e-05 1.80225e-05 -1.19391e-05)
(1.15104e-05 2.11276e-05 -1.57016e-05)
(1.22269e-05 2.46445e-05 -2.05513e-05)
(1.30334e-05 2.83218e-05 -2.61528e-05)
(1.41071e-05 3.14082e-05 -3.10266e-05)
(1.77255e-05 3.55372e-05 -3.32773e-05)
(0 0 0)
(1.22822e-06 1.43654e-06 -5.5479e-07)
(2.33451e-06 2.7687e-06 -1.08129e-06)
(3.3445e-06 4.04802e-06 -1.61168e-06)
(4.27672e-06 5.31052e-06 -2.17746e-06)
(5.16106e-06 6.60865e-06 -2.82068e-06)
(6.03024e-06 8.00848e-06 -3.5886e-06)
(6.90598e-06 9.57458e-06 -4.53777e-06)
(7.79068e-06 1.13621e-05 -5.75003e-06)
(8.65564e-06 1.34116e-05 -7.35045e-06)
(9.43231e-06 1.57549e-05 -9.50676e-06)
(9.98684e-06 1.84114e-05 -1.24045e-05)
(1.01132e-05 2.1358e-05 -1.62346e-05)
(9.66218e-06 2.44935e-05 -2.11213e-05)
(8.66462e-06 2.74161e-05 -2.67825e-05)
(7.22291e-06 2.91626e-05 -3.18194e-05)
(2.58051e-06 2.80017e-05 -3.50283e-05)
(0 0 0)
(0 0 0)
(0 0 0)
(0 0 0)
(0 0 0)
(0 0 0)
(0 0 0)
(0 0 0)
(0 0 0)
(0 0 0)
(0 0 0)
(0 0 0)
(0 0 0)
(0 0 0)
(0 0 0)
(0 0 0)
(1.33081e-05 3.05596e-06 -1.136e-06)
(0 0 0)
(2.44355e-07 3.17657e-07 -9.28202e-08)
(4.64288e-07 6.06024e-07 -1.81391e-07)
(6.68466e-07 8.77255e-07 -2.71474e-07)
(8.64503e-07 1.13985e-06 -3.67132e-07)
(1.0648e-06 1.40554e-06 -4.74102e-07)
(1.28608e-06 1.68783e-06 -6.0054e-07)
(1.54902e-06 1.99914e-06 -7.55757e-07)
(1.8882e-06 2.3568e-06 -9.56137e-07)
(2.36247e-06 2.78625e-06 -1.22815e-06)
(3.06125e-06 3.30919e-06 -1.59818e-06)
(4.12219e-06 3.9193e-06 -2.06862e-06)
(5.81871e-06 4.59554e-06 -2.63023e-06)
(8.71831e-06 5.37445e-06 -3.29778e-06)
(1.36264e-05 6.36928e-06 -4.07307e-06)
(2.04858e-05 7.57965e-06 -4.73594e-06)
(2.78357e-05 8.55637e-06 -4.69999e-06)
(0 0 0)
(4.61959e-07 5.98787e-07 -1.76409e-07)
(8.78389e-07 1.14389e-06 -3.44777e-07)
(1.26469e-06 1.65753e-06 -5.15349e-07)
(1.63593e-06 2.15734e-06 -6.96026e-07)
(2.01606e-06 2.66721e-06 -8.99157e-07)
(2.43576e-06 3.21345e-06 -1.14121e-06)
(2.9319e-06 3.81999e-06 -1.44329e-06)
(3.56132e-06 4.51668e-06 -1.8357e-06)
(4.41898e-06 5.34522e-06 -2.36788e-06)
(5.64492e-06 6.34064e-06 -3.08571e-06)
(7.44308e-06 7.49585e-06 -4.00205e-06)
(1.01551e-05 8.77519e-06 -5.11545e-06)
(1.42877e-05 1.01672e-05 -6.43031e-06)
(2.00848e-05 1.16352e-05 -7.88442e-06)
(2.61221e-05 1.28924e-05 -9.02283e-06)
(2.95649e-05 1.35964e-05 -9.52194e-06)
(0 0 0)
(6.49279e-07 8.36912e-07 -2.50251e-07)
(1.23506e-06 1.60101e-06 -4.88473e-07)
(1.77833e-06 2.32376e-06 -7.28673e-07)
(2.30051e-06 3.03165e-06 -9.83018e-07)
(2.83433e-06 3.75931e-06 -1.2708e-06)
(3.42036e-06 4.54442e-06 -1.61803e-06)
(4.10454e-06 5.42078e-06 -2.05704e-06)
(4.95187e-06 6.42644e-06 -2.63242e-06)
(6.06708e-06 7.6118e-06 -3.40932e-06)
(7.60283e-06 9.02278e-06 -4.4531e-06)
(9.76941e-06 1.06639e-05 -5.79674e-06)
(1.28678e-05 1.25048e-05 -7.45676e-06)
(1.72375e-05 1.44923e-05 -9.44e-06)
(2.27537e-05 1.64615e-05 -1.16163e-05)
(2.77255e-05 1.79752e-05 -1.33376e-05)
(3.03441e-05 1.8808e-05 -1.41467e-05)
(0 0 0)
(8.10192e-07 1.0351e-06 -3.15583e-07)
(1.54088e-06 1.98243e-06 -6.14893e-07)
(2.2188e-06 2.88339e-06 -9.15886e-07)
(2.86916e-06 3.77099e-06 -1.23534e-06)
(3.52952e-06 4.68768e-06 -1.59871e-06)
(4.24612e-06 5.68075e-06 -2.0428e-06)
(5.06746e-06 6.79265e-06 -2.60865e-06)
(6.05562e-06 8.06724e-06 -3.35348e-06)
(7.30507e-06 9.55972e-06 -4.35578e-06)
(8.95187e-06 1.13241e-05 -5.69646e-06)
(1.11828e-05 1.33864e-05 -7.43903e-06)
(1.42469e-05 1.5741e-05 -9.62685e-06)
(1.84097e-05 1.83174e-05 -1.22663e-05)
(2.35216e-05 2.08458e-05 -1.51349e-05)
(2.80908e-05 2.27371e-05 -1.7372e-05)
(3.06438e-05 2.38011e-05 -1.84255e-05)
(0 0 0)
(9.48248e-07 1.19588e-06 -3.7313e-07)
(1.80327e-06 2.29361e-06 -7.2647e-07)
(2.59608e-06 3.34292e-06 -1.08164e-06)
(3.35337e-06 4.38114e-06 -1.4596e-06)
(4.11364e-06 5.45498e-06 -1.89255e-06)
(4.9237e-06 6.61842e-06 -2.42318e-06)
(5.83033e-06 7.92194e-06 -3.10156e-06)
(6.88551e-06 9.41515e-06 -3.99453e-06)
(8.16058e-06 1.1155e-05 -5.19065e-06)
(9.75625e-06 1.31997e-05 -6.78805e-06)
(1.18166e-05 1.55995e-05 -8.88488e-06)
(1.45381e-05 1.83834e-05 -1.15593e-05)
(1.81718e-05 2.14861e-05 -1.48166e-05)
(2.2761e-05 2.45663e-05 -1.83338e-05)
(2.71941e-05 2.68527e-05 -2.10377e-05)
(3.00773e-05 2.80416e-05 -2.23173e-05)
(0 0 0)
(1.06567e-06 1.31969e-06 -4.23393e-07)
(2.02666e-06 2.53526e-06 -8.24591e-07)
(2.91567e-06 3.7015e-06 -1.22889e-06)
(3.75873e-06 4.85751e-06 -1.66051e-06)
(4.59236e-06 6.05198e-06 -2.15573e-06)
(5.46017e-06 7.34319e-06 -2.75946e-06)
(6.40346e-06 8.78858e-06 -3.52727e-06)
(7.46053e-06 1.04433e-05 -4.5345e-06)
(8.67216e-06 1.23627e-05 -5.87757e-06)
(1.00916e-05 1.46042e-05 -7.67536e-06)
(1.17917e-05 1.72313e-05 -1.00568e-05)
(1.38743e-05 2.02944e-05 -1.31383e-05)
(1.6565e-05 2.37556e-05 -1.69375e-05)
(2.0118e-05 2.72926e-05 -2.10176e-05)
(2.39994e-05 3.01533e-05 -2.41241e-05)
(2.75621e-05 3.12924e-05 -2.56325e-05)
(0 0 0)
(1.16394e-06 1.4054e-06 -4.66318e-07)
(2.21343e-06 2.70429e-06 -9.09232e-07)
(3.17997e-06 3.95248e-06 -1.35684e-06)
(4.08738e-06 5.18902e-06 -1.83571e-06)
(4.96895e-06 6.46384e-06 -2.38185e-06)
(5.86325e-06 7.83867e-06 -3.04047e-06)
(6.80343e-06 9.37618e-06 -3.86949e-06)
(7.81199e-06 1.11345e-05 -4.94835e-06)
(8.89797e-06 1.3164e-05 -6.38386e-06)
(1.00598e-05 1.55128e-05 -8.31077e-06)
(1.12748e-05 1.82298e-05 -1.08788e-05)
(1.25013e-05 2.13391e-05 -1.42282e-05)
(1.38277e-05 2.477e-05 -1.83801e-05)
(1.54297e-05 2.81824e-05 -2.28386e-05)
(1.7e-05 3.08816e-05 -2.62587e-05)
(2.00065e-05 3.45925e-05 -2.78335e-05)
(0 0 0)
(1.2451e-06 1.45141e-06 -5.02349e-07)
(2.36695e-06 2.79651e-06 -9.79871e-07)
(3.39258e-06 4.08778e-06 -1.46181e-06)
(4.34351e-06 5.36374e-06 -1.9767e-06)
(5.25042e-06 6.67667e-06 -2.55928e-06)
(6.14647e-06 8.09163e-06 -3.25286e-06)
(7.05592e-06 9.67447e-06 -4.11568e-06)
(7.98592e-06 1.14828e-05 -5.22832e-06)
(8.9181e-06 1.35574e-05 -6.70124e-06)
(9.80315e-06 1.5927e-05 -8.67665e-06)
(1.05324e-05 1.85971e-05 -1.12983e-05)
(1.0941e-05 2.15129e-05 -1.46881e-05)
(1.09684e-05 2.44906e-05 -1.88559e-05)
(1.06178e-05 2.7029e-05 -2.33492e-05)
(9.64237e-06 2.82569e-05 -2.68986e-05)
(4.72083e-06 2.68855e-05 -2.87425e-05)
(0 0 0)
(0 0 0)
(0 0 0)
(0 0 0)
(0 0 0)
(0 0 0)
(0 0 0)
(0 0 0)
(0 0 0)
(0 0 0)
(0 0 0)
(0 0 0)
(0 0 0)
(0 0 0)
(0 0 0)
(0 0 0)
(1.35219e-05 3.30901e-06 -1.02114e-06)
(0 0 0)
(2.49883e-07 3.23729e-07 -8.03547e-08)
(4.73897e-07 6.16253e-07 -1.57316e-07)
(6.80352e-07 8.89072e-07 -2.35652e-07)
(8.77318e-07 1.15099e-06 -3.18566e-07)
(1.07831e-06 1.41473e-06 -4.10969e-07)
(1.30153e-06 1.69484e-06 -5.19507e-07)
(1.57128e-06 2.00619e-06 -6.53771e-07)
(1.92704e-06 2.36905e-06 -8.26493e-07)
(2.43432e-06 2.81146e-06 -1.06223e-06)
(3.18768e-06 3.35645e-06 -1.38285e-06)
(4.33689e-06 4.0032e-06 -1.78977e-06)
(6.18954e-06 4.75119e-06 -2.28032e-06)
(9.31961e-06 5.66028e-06 -2.84925e-06)
(1.44583e-05 6.84005e-06 -3.48421e-06)
(2.13759e-05 8.21258e-06 -4.0336e-06)
(2.84925e-05 9.17276e-06 -4.08171e-06)
(0 0 0)
(4.71671e-07 6.09271e-07 -1.52919e-07)
(8.95284e-07 1.16151e-06 -2.99097e-07)
(1.28624e-06 1.67855e-06 -4.47046e-07)
(1.66063e-06 2.17881e-06 -6.03439e-07)
(2.04388e-06 2.68731e-06 -7.7795e-07)
(2.46938e-06 3.23199e-06 -9.85872e-07)
(2.97936e-06 3.84033e-06 -1.24654e-06)
(3.63955e-06 4.54697e-06 -1.58629e-06)
(4.55523e-06 5.39755e-06 -2.04931e-06)
(5.87836e-06 6.43045e-06 -2.67298e-06)
(7.83447e-06 7.64711e-06 -3.46783e-06)
(1.08057e-05 9.03876e-06 -4.43067e-06)
(1.53098e-05 1.0624e-05 -5.53958e-06)
(2.14212e-05 1.23266e-05 -6.71529e-06)
(2.74455e-05 1.37311e-05 -7.62071e-06)
(3.05467e-05 1.43882e-05 -8.08971e-06)
(0 0 0)
(6.61177e-07 8.49336e-07 -2.17158e-07)
(1.25599e-06 1.62205e-06 -4.23683e-07)
(1.80654e-06 2.35043e-06 -6.31579e-07)
(2.33489e-06 3.06115e-06 -8.50901e-07)
(2.87562e-06 3.79008e-06 -1.09706e-06)
(3.4724e-06 4.5766e-06 -1.39597e-06)
(4.17682e-06 5.45762e-06 -1.77557e-06)
(5.06441e-06 6.47635e-06 -2.27533e-06)
(6.25315e-06 7.68817e-06 -2.95398e-06)
(7.91098e-06 9.14238e-06 -3.85992e-06)
(1.02759e-05 1.08533e-05 -5.02248e-06)
(1.36921e-05 1.28179e-05 -6.44985e-06)
(1.8492e-05 1.50061e-05 -8.10444e-06)
(2.43308e-05 1.7195e-05 -9.8476e-06)
(2.92295e-05 1.88277e-05 -1.11998e-05)
(3.14334e-05 1.96373e-05 -1.18914e-05)
(0 0 0)
(8.22491e-07 1.04723e-06 -2.74049e-07)
(1.56344e-06 2.00388e-06 -5.33292e-07)
(2.25065e-06 2.91204e-06 -7.93136e-07)
(2.91027e-06 3.80516e-06 -1.06708e-06)
(3.58187e-06 4.72679e-06 -1.37798e-06)
(4.31383e-06 5.7248e-06 -1.76004e-06)
(5.16071e-06 6.84436e-06 -2.25024e-06)
(6.19495e-06 8.13389e-06 -2.90018e-06)
(7.52428e-06 9.65295e-06 -3.77762e-06)
(9.30329e-06 1.14585e-05 -4.94074e-06)
(1.17503e-05 1.3586e-05 -6.44435e-06)
(1.51527e-05 1.60522e-05 -8.31054e-06)
(1.97519e-05 1.8794e-05 -1.04886e-05)
(2.51674e-05 2.14808e-05 -1.27694e-05)
(2.96189e-05 2.34358e-05 -1.4507e-05)
(3.17196e-05 2.44597e-05 -1.53729e-05)
(0 0 0)
(9.60513e-07 1.20717e-06 -3.24226e-07)
(1.82609e-06 2.31379e-06 -6.2991e-07)
(2.62999e-06 3.37163e-06 -9.35882e-07)
(3.39925e-06 4.41755e-06 -1.25968e-06)
(4.17392e-06 5.49906e-06 -1.63052e-06)
(5.00325e-06 6.67068e-06 -2.08718e-06)
(5.93908e-06 7.98439e-06 -2.67629e-06)
(7.04282e-06 9.49344e-06 -3.45906e-06)
(8.39791e-06 1.12575e-05 -4.50747e-06)
(1.01262e-05 1.33374e-05 -5.8943e-06)
(1.24022e-05 1.57899e-05 -7.69776e-06)
(1.54524e-05 1.86545e-05 -9.95877e-06)
(1.95098e-05 2.18575e-05 -1.26207e-05)
(2.43711e-05 2.49891e-05 -1.53711e-05)
(2.86529e-05 2.72356e-05 -1.74123e-05)
(3.10781e-05 2.83236e-05 -1.84141e-05)
(0 0 0)
(1.07823e-06 1.33061e-06 -3.67286e-07)
(2.05027e-06 2.5549e-06 -7.14272e-07)
(2.95162e-06 3.73018e-06 -1.06297e-06)
(3.80858e-06 4.89516e-06 -1.43456e-06)
(4.6587e-06 6.09913e-06 -1.85966e-06)
(5.54801e-06 7.40064e-06 -2.37885e-06)
(6.52209e-06 8.858e-06 -3.04681e-06)
(7.62651e-06 1.05286e-05 -3.93098e-06)
(8.91399e-06 1.24693e-05 -5.10901e-06)
(1.04585e-05 1.47386e-05 -6.67272e-06)
(1.23606e-05 1.74027e-05 -8.71619e-06)
(1.47482e-05 2.05091e-05 -1.13013e-05)
(1.78226e-05 2.39833e-05 -1.43658e-05)
(2.16102e-05 2.74436e-05 -1.74756e-05)
(2.53306e-05 3.01521e-05 -1.97248e-05)
(2.84451e-05 3.11266e-05 -2.08175e-05)
(0 0 0)
(1.17694e-06 1.41626e-06 -4.03036e-07)
(2.23856e-06 2.72446e-06 -7.86278e-07)
(3.21805e-06 3.98159e-06 -1.17421e-06)
(4.14058e-06 5.22762e-06 -1.58924e-06)
(5.03984e-06 6.51304e-06 -2.05835e-06)
(5.95615e-06 7.89951e-06 -2.62281e-06)
(6.92672e-06 9.45022e-06 -3.34246e-06)
(7.97952e-06 1.12244e-05 -4.28942e-06)
(9.13471e-06 1.3273e-05 -5.55227e-06)
(1.04093e-05 1.56435e-05 -7.23577e-06)
(1.18033e-05 1.83828e-05 -9.43356e-06)
(1.33013e-05 2.14992e-05 -1.22234e-05)
(1.49635e-05 2.48685e-05 -1.55403e-05)
(1.67722e-05 2.81055e-05 -1.88617e-05)
(1.81938e-05 3.05895e-05 -2.12263e-05)
(2.07618e-05 3.417e-05 -2.23088e-05)
(0 0 0)
(1.25824e-06 1.46205e-06 -4.33083e-07)
(2.39258e-06 2.8165e-06 -8.46278e-07)
(3.43159e-06 4.11675e-06 -1.26571e-06)
(4.39771e-06 5.40254e-06 -1.71324e-06)
(5.32256e-06 6.72683e-06 -2.21266e-06)
(6.24113e-06 8.15475e-06 -2.80558e-06)
(7.18001e-06 9.75234e-06 -3.55309e-06)
(8.15067e-06 1.15774e-05 -4.5292e-06)
(9.14508e-06 1.36702e-05 -5.83109e-06)
(1.01293e-05 1.60572e-05 -7.56034e-06)
(1.10127e-05 1.87403e-05 -9.79766e-06)
(1.16565e-05 2.16424e-05 -1.2623e-05)
(1.19787e-05 2.45282e-05 -1.59547e-05)
(1.18388e-05 2.6853e-05 -1.92938e-05)
(1.08098e-05 2.78528e-05 -2.1704e-05)
(5.44116e-06 2.64911e-05 -2.28486e-05)
(0 0 0)
(0 0 0)
(0 0 0)
(0 0 0)
(0 0 0)
(0 0 0)
(0 0 0)
(0 0 0)
(0 0 0)
(0 0 0)
(0 0 0)
(0 0 0)
(0 0 0)
(0 0 0)
(0 0 0)
(0 0 0)
(1.35486e-05 3.36119e-06 -8.03347e-07)
(0 0 0)
(2.53462e-07 3.27535e-07 -6.50312e-08)
(4.79636e-07 6.21992e-07 -1.27161e-07)
(6.87028e-07 8.94944e-07 -1.90199e-07)
(8.84303e-07 1.15579e-06 -2.57198e-07)
(1.08576e-06 1.41792e-06 -3.31916e-07)
(1.31133e-06 1.69717e-06 -4.19878e-07)
(1.58821e-06 2.01058e-06 -5.29424e-07)
(1.95991e-06 2.38028e-06 -6.70247e-07)
(2.49404e-06 2.83485e-06 -8.64003e-07)
(3.28905e-06 3.39845e-06 -1.12378e-06)
(4.4977e-06 4.07282e-06 -1.45196e-06)
(6.42939e-06 4.86859e-06 -1.84363e-06)
(9.63446e-06 5.8503e-06 -2.27999e-06)
(1.47796e-05 7.0882e-06 -2.7548e-06)
(2.16216e-05 8.46565e-06 -3.16065e-06)
(2.8583e-05 9.35342e-06 -3.17807e-06)
(0 0 0)
(4.778e-07 6.15616e-07 -1.23868e-07)
(9.05469e-07 1.17141e-06 -2.41723e-07)
(1.29931e-06 1.69006e-06 -3.60763e-07)
(1.67585e-06 2.19021e-06 -4.86849e-07)
(2.06195e-06 2.69794e-06 -6.27561e-07)
(2.49335e-06 3.24284e-06 -7.97431e-07)
(3.01729e-06 3.85543e-06 -1.01034e-06)
(3.70504e-06 4.57315e-06 -1.29037e-06)
(4.66858e-06 5.44394e-06 -1.67118e-06)
(6.06585e-06 6.50729e-06 -2.17679e-06)
(8.12839e-06 7.76994e-06 -2.81643e-06)
(1.1245e-05 9.2423e-06 -3.57767e-06)
(1.58688e-05 1.09359e-05 -4.42972e-06)
(2.19674e-05 1.27111e-05 -5.29329e-06)
(2.78424e-05 1.41065e-05 -5.93135e-06)
(3.07075e-05 1.46928e-05 -6.24627e-06)
(0 0 0)
(6.68315e-07 8.56282e-07 -1.75977e-07)
(1.26861e-06 1.63363e-06 -3.42348e-07)
(1.82434e-06 2.36561e-06 -5.09439e-07)
(2.35795e-06 3.07887e-06 -6.85791e-07)
(2.90506e-06 3.80968e-06 -8.85124e-07)
(3.51164e-06 4.59853e-06 -1.12947e-06)
(4.23498e-06 5.48557e-06 -1.44081e-06)
(5.15762e-06 6.51708e-06 -1.85343e-06)
(6.40632e-06 7.75166e-06 -2.41181e-06)
(8.15823e-06 9.23999e-06 -3.14557e-06)
(1.06602e-05 1.1004e-05 -4.07965e-06)
(1.42587e-05 1.30605e-05 -5.20245e-06)
(1.9201e-05 1.53626e-05 -6.4587e-06)
(2.50076e-05 1.7616e-05 -7.7303e-06)
(2.97077e-05 1.92289e-05 -8.67209e-06)
(3.16403e-05 1.99766e-05 -9.12443e-06)
(0 0 0)
(8.29149e-07 1.05292e-06 -2.22362e-07)
(1.57528e-06 2.01314e-06 -4.3098e-07)
(2.27079e-06 2.92792e-06 -6.3942e-07)
(2.93938e-06 3.82702e-06 -8.59208e-07)
(3.62067e-06 4.75338e-06 -1.11229e-06)
(4.36616e-06 5.75631e-06 -1.42359e-06)
(5.23519e-06 6.88302e-06 -1.82644e-06)
(6.30761e-06 8.18503e-06 -2.3641e-06)
(7.70157e-06 9.72513e-06 -3.08309e-06)
(9.58314e-06 1.15623e-05 -4.02618e-06)
(1.21794e-05 1.374e-05 -5.23084e-06)
(1.57771e-05 1.629e-05 -6.68752e-06)
(2.05226e-05 1.91269e-05 -8.3324e-06)
(2.58855e-05 2.18476e-05 -9.98062e-06)
(3.01127e-05 2.37577e-05 -1.11682e-05)
(3.19343e-05 2.47132e-05 -1.17237e-05)
(0 0 0)
(9.65925e-07 1.21065e-06 -2.6297e-07)
(1.83734e-06 2.32091e-06 -5.08893e-07)
(2.65165e-06 3.38697e-06 -7.54459e-07)
(3.43266e-06 4.44124e-06 -1.01601e-06)
(4.21989e-06 5.52998e-06 -1.3167e-06)
(5.06499e-06 6.70839e-06 -1.68816e-06)
(6.02474e-06 8.03015e-06 -2.17083e-06)
(7.1668e-06 9.55072e-06 -2.81639e-06)
(8.58623e-06 1.13327e-05 -3.6738e-06)
(1.04162e-05 1.34384e-05 -4.79974e-06)
(1.28409e-05 1.59322e-05 -6.23947e-06)
(1.60835e-05 1.88619e-05 -7.99191e-06)
(2.02693e-05 2.21201e-05 -9.99376e-06)