/*--------------------------------*- C++ -*----------------------------------*\
| =========                 |                                                 |
| \\      /  F ield         | OpenFOAM: The Open Source CFD Toolbox           |
|  \\    /   O peration     | Version:  v1912                                 |
|   \\  /    A nd           | Website:  www.openfoam.com                      |
|    \\/     M anipulation  |                                                 |
\*---------------------------------------------------------------------------*/
FoamFile
{
    version     2.0;
    format      ascii;
    class       volVectorField;
    location    "0.02/fluid";
    object      U;
}
// * * * * * * * * * * * * * * * * * * * * * * * * * * * * * * * * * * * * * //

dimensions      [0 1 -1 0 0 0 0];


internalField   nonuniform List<vector> 
14592
(
(0.0983743 0.00305211 -0.00219082)
(0.095398 0.00133572 -0.00248891)
(0.0945474 0.000771626 -0.00283895)
(0.0934981 0.000593611 -0.00338146)
(0.0926526 0.000561266 -0.00415207)
(0.091749 0.00060159 -0.0052025)
(0.0907141 0.00068889 -0.00660916)
(0.089488 0.000814944 -0.00848317)
(0.0880107 0.000977916 -0.0109866)
(0.0862147 0.00117697 -0.0143612)
(0.0840097 0.00140991 -0.0189831)
(0.0812353 0.00166816 -0.0254733)
(0.0775304 0.00193147 -0.0349412)
(0.071823 0.00215738 -0.0495161)
(0.056487 0.00232329 -0.0733971)
(0.0444458 0.00187883 -0.112291)
(0.102267 0.0027979 -0.00230355)
(0.100092 0.00166378 -0.00262198)
(0.100044 0.00119445 -0.00298992)
(0.0991889 0.00104316 -0.00355878)
(0.0983933 0.00104998 -0.00436664)
(0.0974903 0.00115692 -0.00546771)
(0.0964323 0.00134198 -0.00694195)
(0.0951665 0.00159921 -0.00890581)
(0.0936329 0.00192901 -0.0115293)
(0.0917598 0.00233282 -0.0150665)
(0.0894483 0.0028078 -0.0199132)
(0.0865216 0.00334038 -0.0267244)
(0.0825845 0.00389597 -0.0366712)
(0.0765044 0.00440556 -0.0520052)
(0.0601657 0.0047808 -0.0771603)
(0.0472445 0.00441133 -0.118007)
(0.101809 0.00231334 -0.0022618)
(0.0997574 0.00202491 -0.00257379)
(0.0999692 0.00177371 -0.00293272)
(0.0992942 0.00171399 -0.00348696)
(0.0986249 0.00180997 -0.00427314)
(0.0978226 0.00203731 -0.00534339)
(0.0968559 0.00238716 -0.00677487)
(0.0956808 0.00286139 -0.00868034)
(0.0942404 0.00346752 -0.0112251)
(0.0924602 0.0042133 -0.0146574)
(0.0902316 0.0050994 -0.0193663)
(0.0873582 0.00610877 -0.0259997)
(0.0834115 0.00719049 -0.0357212)
(0.0772134 0.00823833 -0.0507748)
(0.060537 0.00906066 -0.0755848)
(0.0473313 0.00883412 -0.116151)
(0.10159 0.00221261 -0.00219583)
(0.0995703 0.00221362 -0.00249764)
(0.0998997 0.0021344 -0.00284248)
(0.0993615 0.00218828 -0.00337397)
(0.0988206 0.00238733 -0.00412636)
(0.0981423 0.00273273 -0.00514847)
(0.0973027 0.00323139 -0.00651289)
(0.0962634 0.00389711 -0.00832606)
(0.0949698 0.00474916 -0.0107451)
(0.0933437 0.00580783 -0.0140074)
(0.0912643 0.00708698 -0.0184891)
(0.0885084 0.00858036 -0.0248214)
(0.084601 0.01024 -0.0341485)
(0.0782886 0.0119449 -0.0486886)
(0.0611791 0.0134365 -0.0728354)
(0.0475838 0.0134215 -0.112831)
(0.101516 0.00222098 -0.00211135)
(0.0995248 0.00235107 -0.00240016)
(0.0999413 0.00239368 -0.00272689)
(0.0995219 0.00254944 -0.00322906)
(0.0991123 0.00284767 -0.00393776)
(0.0985764 0.00330517 -0.00489734)
(0.0978946 0.00394194 -0.00617396)
(0.0970338 0.00478506 -0.00786513)
(0.0959428 0.00586924 -0.0101155)
(0.0945424 0.00723503 -0.0131459)
(0.0927004 0.00892262 -0.0173096)
(0.0901653 0.0109584 -0.023209)
(0.0864061 0.0133287 -0.0319492)
(0.0800667 0.0159412 -0.0456945)
(0.0624415 0.0185356 -0.0687732)
(0.0482993 0.0191665 -0.107848)
(0.101513 0.00224322 -0.00201182)
(0.099561 0.00243831 -0.0022853)
(0.100068 0.0025635 -0.00259061)
(0.099765 0.00280081 -0.00305803)
(0.0994928 0.00318333 -0.00371478)
(0.0991155 0.00373636 -0.00459959)
(0.0986188 0.00448994 -0.0057704)
(0.0979774 0.00548379 -0.00731281)
(0.0971485 0.00677041 -0.00935415)
(0.096059 0.00841751 -0.0120902)
(0.0945751 0.0105081 -0.0158384)
(0.0924261 0.0131345 -0.0211494)
(0.0890305 0.0163767 -0.0290554)
(0.0829287 0.0202595 -0.0416116)
(0.0649003 0.0246674 -0.0629934)
(0.0501157 0.0270066 -0.100527)
(0.101546 0.00223226 -0.00190128)
(0.0996462 0.00246093 -0.00215772)
(0.100255 0.00264093 -0.00243922)
(0.100073 0.00293833 -0.00286791)
(0.0999442 0.00338446 -0.00346661)
(0.0997382 0.00400835 -0.0042675)
(0.0994484 0.00484664 -0.00531871)
(0.0990615 0.00594903 -0.00669103)
(0.0985513 0.00738453 -0.00848932)
(0.0978657 0.00925014 -0.0108744)
(0.0968942 0.0116848 -0.0141083)
(0.0953824 0.0148893 -0.0186538)
(0.0927386 0.0191497 -0.0254045)
(0.0874514 0.0248387 -0.0361981)
(0.0696769 0.0323082 -0.054878)
(0.0544844 0.039009 -0.0896642)
(0.1016 0.00216098 -0.00178424)
(0.099762 0.00240492 -0.00202264)
(0.100484 0.00262055 -0.00227898)
(0.100425 0.00295811 -0.0026667)
(0.100444 0.00344472 -0.00320392)
(0.100416 0.00410959 -0.0039157)
(0.100344 0.00499188 -0.00483935)
(0.100234 0.00614613 -0.00602892)
(0.100083 0.00765027 -0.00756254)
(0.099882 0.0096203 -0.00955666)
(0.0995882 0.0122402 -0.0121958)
(0.0990618 0.0158298 -0.0158003)
(0.0978732 0.0210146 -0.020996)
(0.0946493 0.0291453 -0.029134)
(0.0794051 0.0433255 -0.0433177)
(0.0659019 0.072518 -0.0725102)
(0.0982708 0.00306784 -0.00215996)
(0.0951915 0.0013545 -0.00244739)
(0.0941605 0.000793466 -0.00277944)
(0.0929215 0.000620794 -0.00329698)
(0.0918501 0.000596433 -0.00403613)
(0.0906635 0.000648033 -0.00504733)
(0.0892627 0.000750849 -0.0064036)
(0.0875501 0.000897991 -0.00820924)
(0.0854105 0.00108904 -0.0106122)
(0.0826903 0.00132546 -0.0138231)
(0.0791638 0.00160689 -0.0181427)
(0.0744675 0.00192843 -0.0239974)
(0.0680026 0.00227473 -0.031962)
(0.058654 0.00261618 -0.0426962)
(0.0403766 0.00295462 -0.0565399)
(0.0266418 0.00276269 -0.0669581)
(0.102158 0.00282862 -0.00227072)
(0.0998748 0.00169966 -0.00257787)
(0.0996378 0.00123674 -0.00292694)
(0.0985843 0.00109601 -0.00346963)
(0.0975518 0.00111852 -0.00424453)
(0.0963524 0.00124771 -0.00530448)
(0.0949108 0.00146361 -0.00672597)
(0.0931351 0.00176283 -0.00861826)
(0.090907 0.00214929 -0.0111367)
(0.0880638 0.00262849 -0.0145025)
(0.0843636 0.00320265 -0.0190325)
(0.0794147 0.00386395 -0.0251768)
(0.0725688 0.00458475 -0.0335442)
(0.0626407 0.00530513 -0.0448365)
(0.0431763 0.00594251 -0.0594256)
(0.0284594 0.00579332 -0.0703519)
(0.101703 0.00236835 -0.00223039)
(0.099546 0.00208853 -0.00253132)
(0.0995739 0.00184906 -0.00287163)
(0.0987058 0.00180834 -0.00340012)
(0.0978069 0.00193253 -0.00415393)
(0.0967175 0.00220002 -0.00518393)
(0.0953796 0.00260575 -0.00656382)
(0.0937108 0.00315669 -0.00839933)
(0.0915967 0.00386703 -0.0108412)
(0.088873 0.00475296 -0.0141052)
(0.0852887 0.00582545 -0.018502)
(0.0804322 0.0070792 -0.0244758)
(0.0736202 0.00847521 -0.032631)
(0.0636133 0.00991441 -0.0436718)
(0.0437978 0.0111854 -0.0579912)
(0.0287757 0.0111746 -0.0688004)
(0.101488 0.00228737 -0.00216662)
(0.0993674 0.00229991 -0.00245769)
(0.0995207 0.00223672 -0.00278432)
(0.0987982 0.00231656 -0.00329072)
(0.0980389 0.00255424 -0.0040117)
(0.0970883 0.0029549 -0.00499492)
(0.0958972 0.0035309 -0.00630964)
(0.0943904 0.00430377 -0.00805553)
(0.0924577 0.00530306 -0.0103754)
(0.0899335 0.00656284 -0.0134753)
(0.0865562 0.00811447 -0.0176539)
(0.081889 0.00997312 -0.0233429)
(0.0751993 0.0121141 -0.0311364)
(0.0651551 0.0144337 -0.0417376)
(0.0448781 0.0166473 -0.0555732)
(0.0294227 0.0169742 -0.0661848)
(0.10142 0.00231237 -0.00208495)
(0.0993328 0.00245656 -0.00236344)
(0.0995831 0.00251884 -0.0026725)
(0.098991 0.00270652 -0.00315042)
(0.0983777 0.00305244 -0.00382899)
(0.0975892 0.00357843 -0.00475148)
(0.0965823 0.00431186 -0.00598098)
(0.09529 0.00529023 -0.00760858)
(0.0936089 0.00656311 -0.00976545)
(0.0913764 0.00819169 -0.0126421)
(0.0883246 0.0102447 -0.0165179)
(0.0839921 0.0127856 -0.0218018)
(0.0775897 0.0158459 -0.0290661)
(0.0676604 0.0193752 -0.0390032)
(0.0468411 0.0231016 -0.0520781)
(0.0307732 0.0243312 -0.0623555)
(0.101423 0.00234755 -0.00198875)
(0.0993817 0.00255874 -0.00225239)
(0.0997344 0.00270644 -0.00254067)
(0.0992724 0.00298036 -0.00298486)
(0.0988144 0.00341772 -0.00361301)
(0.0982085 0.00404989 -0.00446295)
(0.0974196 0.00491597 -0.00558987)
(0.0963926 0.00606897 -0.00707353)
(0.0950381 0.0075812 -0.00902895)
(0.0932075 0.00954986 -0.011624)
(0.0906414 0.0121018 -0.0151074)
(0.0868698 0.0153928 -0.0198489)
(0.0810585 0.0195871 -0.026377)
(0.0716253 0.0248013 -0.0353503)
(0.0504239 0.0309502 -0.0472585)
(0.0336414 0.0343572 -0.0569456)
(0.101463 0.00234527 -0.00188191)
(0.0994812 0.00259139 -0.00212905)
(0.0999493 0.00279578 -0.00239424)
(0.0996229 0.00313288 -0.00280086)
(0.0993288 0.00363858 -0.00337269)
(0.0989215 0.00434875 -0.00414127)
(0.0983777 0.00531032 -0.00515239)
(0.0976599 0.00658872 -0.00647186)
(0.0967041 0.00827726 -0.00819392)
(0.0953961 0.0105117 -0.0104554)
(0.0935199 0.0134937 -0.0134588)
(0.0906475 0.0175265 -0.0175083)
(0.0859545 0.0230545 -0.0230485)
(0.0777893 0.0306539 -0.0306563)
(0.0569941 0.0408022 -0.0408093)
(0.0397774 0.0494447 -0.0494528)
(0.101524 0.0022781 -0.00176879)
(0.099612 0.00254009 -0.00199848)
(0.100207 0.0027809 -0.00223926)
(0.100021 0.00315944 -0.00260615)
(0.0998954 0.00370755 -0.00311837)
(0.0996949 0.00446156 -0.00380062)
(0.0994112 0.00547144 -0.0046884)
(0.0990305 0.0068085 -0.00583179)
(0.0985259 0.00857738 -0.00730072)
(0.0978453 0.0109384 -0.00919326)
(0.0968782 0.0141532 -0.0116492)
(0.0953703 0.0186839 -0.0148701)
(0.0927302 0.0254237 -0.0191427)
(0.0874463 0.0362104 -0.0248397)
(0.069675 0.054887 -0.0323136)
(0.0544843 0.0896739 -0.0390151)
(0.0981752 0.00308278 -0.00202573)
(0.0949997 0.00137223 -0.00229135)
(0.0937993 0.00081416 -0.00259448)
(0.0923812 0.000646563 -0.00306799)
(0.0910965 0.000629769 -0.00374557)
(0.0896441 0.000692065 -0.00467269)
(0.087903 0.000809629 -0.00591342)
(0.0857462 0.000976706 -0.00755629)
(0.0830196 0.00119448 -0.00972096)
(0.0795194 0.00146595 -0.0125653)
(0.0749632 0.00179324 -0.0162898)
(0.0689464 0.00217341 -0.0211288)
(0.0608989 0.00259373 -0.0273058)
(0.049904 0.00302535 -0.0349261)
(0.0315635 0.00344992 -0.0436895)
(0.0187791 0.00330382 -0.0480445)
(0.102058 0.00285769 -0.00212937)
(0.0996732 0.00173362 -0.0024133)
(0.0992589 0.00127679 -0.002732)
(0.0980177 0.00114608 -0.00322855)
(0.0967615 0.00118347 -0.00393895)
(0.0952835 0.00133376 -0.00491087)
(0.0934853 0.00157884 -0.00621141)
(0.0912439 0.00191781 -0.00793339)
(0.0883999 0.00235761 -0.0102025)
(0.0847377 0.00290752 -0.0131848)
(0.0799545 0.00357381 -0.0170918)
(0.0736135 0.00435264 -0.0221718)
(0.0650941 0.00521865 -0.028664)
(0.0534145 0.00610912 -0.0366843)
(0.0338537 0.0069161 -0.0459259)
(0.0201385 0.00682816 -0.0504906)
(0.101605 0.00242042 -0.00209208)
(0.0993497 0.00214874 -0.00237024)
(0.099205 0.0019204 -0.00268083)
(0.0981546 0.00189771 -0.00316423)
(0.0970388 0.00204865 -0.00385513)
(0.0956797 0.00235419 -0.00479936)
(0.0939967 0.00281278 -0.00606158)
(0.0918774 0.00343609 -0.00773139)
(0.0891667 0.00424429 -0.00993052)
(0.0856481 0.00526088 -0.0128206)
(0.0810094 0.00650495 -0.0166084)
(0.0747923 0.00797887 -0.0215389)
(0.0663358 0.00964749 -0.027851)
(0.0545911 0.0114048 -0.0356688)
(0.0346396 0.0130034 -0.044713)
(0.0205765 0.0130931 -0.0492253)
(0.101394 0.00235812 -0.00203306)
(0.0991791 0.00238158 -0.0023021)
(0.0991672 0.00233359 -0.00260003)
(0.0982707 0.00243805 -0.00306298)
(0.0973052 0.00271236 -0.00372352)
(0.096099 0.0031653 -0.00462459)
(0.0945812 0.00381439 -0.00582681)
(0.0926482 0.00468809 -0.00741451)
(0.0901507 0.0058252 -0.00950262)
(0.0868718 0.00727139 -0.0122447)
(0.0824897 0.00907174 -0.0158389)
(0.0765182 0.0112554 -0.0205222)
(0.0682394 0.0138071 -0.0265314)
(0.0564917 0.0166174 -0.0340006)
(0.0360158 0.0193538 -0.0426914)
(0.0214428 0.0198522 -0.0471085)
(0.101331 0.00239885 -0.00195751)
(0.0991547 0.00255638 -0.0022149)
(0.0992494 0.00263732 -0.00249655)
(0.0984942 0.00285527 -0.00293316)
(0.0976887 0.00324635 -0.00355451)
(0.0966629 0.00383712 -0.00439959)
(0.0953542 0.00466168 -0.00552352)
(0.0936688 0.00576704 -0.0070031)
(0.0914673 0.00721572 -0.00894341)
(0.0885385 0.00908628 -0.0114856)
(0.0845556 0.0114692 -0.0148134)
(0.0790066 0.0144527 -0.0191498)
(0.0711073 0.018089 -0.0247232)
(0.059543 0.0223308 -0.0316761)
(0.0384437 0.0268529 -0.0398228)
(0.0231439 0.0283852 -0.0440735)
(0.10134 0.00244627 -0.00186849)
(0.0992158 0.0026727 -0.00211215)
(0.0994241 0.00284174 -0.00237458)
(0.098812 0.00315036 -0.00278)
(0.0981786 0.00363961 -0.0033548)
(0.0973578 0.00434654 -0.00413307)
(0.0962977 0.00531851 -0.00516295)
(0.0949197 0.00662048 -0.0065114)
(0.0931026 0.0083419 -0.00827001)
(0.0906545 0.0106042 -0.010562)
(0.0872621 0.0135672 -0.0135486)
(0.0824053 0.0174282 -0.0174281)
(0.0752454 0.0223948 -0.0224088)
(0.0643085 0.028608 -0.0286321)
(0.042745 0.0359383 -0.0359688)
(0.0265773 0.0398883 -0.0399205)
(0.101387 0.00245222 -0.00176966)
(0.0993287 0.00271484 -0.00199805)
(0.099665 0.00294234 -0.00223912)
(0.0992031 0.00331703 -0.00260981)
(0.0987524 0.00387908 -0.00313267)
(0.0981559 0.00467066 -0.00383611)
(0.0973762 0.00574809 -0.00476001)
(0.0963573 0.00719075 -0.00595939)
(0.0950096 0.00911274 -0.00750869)
(0.0931848 0.0116809 -0.00950692)
(0.0906236 0.0151429 -0.0120823)
(0.0868563 0.0198679 -0.0153916)
(0.0810487 0.026384 -0.0195998)
(0.0716189 0.0353492 -0.0248238)
(0.0504206 0.047253 -0.030979)
(0.0336398 0.0569395 -0.0343878)
(0.101455 0.00238891 -0.00166501)
(0.0994738 0.00266798 -0.00187727)
(0.0999504 0.00293264 -0.00209576)
(0.0996443 0.00334997 -0.00242976)
(0.0993821 0.00395623 -0.00289766)
(0.0990196 0.00479428 -0.0035218)
(0.0985384 0.00592393 -0.00433301)
(0.0979113 0.00743126 -0.00537299)
(0.0970949 0.00944343 -0.00669636)
(0.0960161 0.0121558 -0.00837265)
(0.0945416 0.0158852 -0.0104863)
(0.0924008 0.0211818 -0.0131305)
(0.0890127 0.0290775 -0.0163858)
(0.0829178 0.0416274 -0.0202777)
(0.0648957 0.0630072 -0.0246908)
(0.0501147 0.100544 -0.0270313)
(0.0980905 0.00309622 -0.00179765)
(0.0948288 0.00138828 -0.0020308)
(0.0934768 0.000832853 -0.00229439)
(0.0918984 0.000669834 -0.0027063)
(0.0904233 0.000659866 -0.00329565)
(0.0887361 0.000731784 -0.00410052)
(0.0866989 0.000862545 -0.00517293)
(0.0841648 0.00104746 -0.00658204)
(0.0809569 0.00128883 -0.00841618)
(0.0768497 0.00159129 -0.0107824)
(0.0715494 0.0019581 -0.0137998)
(0.0646718 0.00238781 -0.0175782)
(0.0557327 0.00286758 -0.0221707)
(0.044046 0.00336588 -0.0274874)
(0.0264314 0.00384573 -0.0330595)
(0.0147779 0.00372147 -0.0348407)
(0.101969 0.00288394 -0.00188949)
(0.0994936 0.0017643 -0.00213878)
(0.0989206 0.00131296 -0.00241594)
(0.0975113 0.00119128 -0.00284793)
(0.0960556 0.00124208 -0.00346589)
(0.0943313 0.00141132 -0.00430976)
(0.0922226 0.00168255 -0.00543407)
(0.0895855 0.00205692 -0.00691135)
(0.0862364 0.00254396 -0.00883442)
(0.0819363 0.00315578 -0.0113161)
(0.07637 0.00390152 -0.0144821)
(0.0691211 0.00477927 -0.0184494)
(0.0596589 0.00576312 -0.0232758)
(0.0472432 0.00678415 -0.0288679)
(0.0284348 0.00771044 -0.0347357)
(0.0159145 0.00765139 -0.0365832)
(0.101519 0.00246744 -0.00185672)
(0.0991749 0.00220311 -0.00210095)
(0.0988757 0.00198482 -0.002371)
(0.097662 0.00197838 -0.00279146)
(0.0963528 0.00215339 -0.00339235)
(0.0947553 0.0024931 -0.00421205)
(0.0927722 0.00299897 -0.00530303)
(0.0902702 0.00368664 -0.00673522)
(0.087071 0.0045812 -0.00859829)
(0.0829344 0.00571171 -0.0110017)
(0.0775353 0.00710293 -0.0140681)
(0.0704334 0.00876121 -0.0179129)
(0.0610525 0.0106507 -0.0225958)
(0.0485742 0.0126542 -0.0280327)
(0.0293358 0.0144903 -0.0337576)
(0.0164316 0.0146285 -0.03558)
(0.101311 0.00242201 -0.00180485)
(0.0990115 0.00245532 -0.00204107)
(0.0988517 0.00242105 -0.0023)
(0.0977996 0.00254769 -0.00270254)
(0.0966502 0.00285494 -0.00327688)
(0.095218 0.00335479 -0.00405894)
(0.0934163 0.00406912 -0.00509784)
(0.0911217 0.00503228 -0.00645918)
(0.0881625 0.00629047 -0.00822733)
(0.0842989 0.00789826 -0.0105057)
(0.0791951 0.00991017 -0.0134112)
(0.0723799 0.0123632 -0.0170553)
(0.0632118 0.0152434 -0.0214994)
(0.0507431 0.0184287 -0.0266721)
(0.0309167 0.02154 -0.0321441)
(0.0174373 0.0221243 -0.0339215)
(0.101253 0.00247694 -0.00173843)
(0.0989964 0.00264652 -0.00196443)
(0.0989518 0.00274427 -0.00220909)
(0.0980506 0.00298948 -0.00258855)
(0.0970738 0.00342114 -0.00312865)
(0.0958383 0.00406992 -0.00386194)
(0.0942672 0.0049757 -0.00483301)
(0.0922489 0.00619331 -0.00610136)
(0.089623 0.00779569 -0.00774369)
(0.0861567 0.00987441 -0.00985429)
(0.0815093 0.0125349 -0.0125404)
(0.0751795 0.0158798 -0.0159059)
(0.0664498 0.019969 -0.020011)
(0.0541953 0.0247444 -0.0247984)
(0.0336603 0.0298249 -0.0298873)
(0.0193584 0.031516 -0.0315815)
(0.101267 0.0025354 -0.00166021)
(0.0990685 0.00277558 -0.00187414)
(0.0991476 0.00296387 -0.00210195)
(0.0984012 0.00330369 -0.00245411)
(0.0976112 0.00383954 -0.00295356)
(0.0966007 0.00461334 -0.00362877)
(0.0953048 0.00567945 -0.00451852)
(0.0936298 0.00711265 -0.00567448)
(0.0914363 0.00901589 -0.00716296)
(0.0885138 0.0115285 -0.00906523)
(0.084536 0.0148328 -0.0114736)
(0.0789913 0.0191509 -0.0144774)
(0.0710958 0.0247105 -0.0181297)
(0.0595349 0.0316535 -0.0223835)
(0.0384386 0.0397939 -0.0269139)
(0.0231404 0.044043 -0.0284498)
(0.10132 0.00254876 -0.00157334)
(0.0991935 0.00282628 -0.00177389)
(0.099412 0.0030746 -0.00198297)
(0.0988288 0.00348311 -0.00230476)
(0.0982384 0.00409571 -0.0027589)
(0.0974745 0.00496001 -0.00336912)
(0.0964897 0.00614024 -0.00416746)
(0.0952158 0.00772712 -0.00519611)
(0.0935497 0.00985088 -0.00650837)
(0.0913294 0.012701 -0.0081682)
(0.0882876 0.0165559 -0.0102461)
(0.0839636 0.021824 -0.0128069)
(0.0775687 0.0290768 -0.0158826)
(0.0676461 0.0390065 -0.0194234)
(0.0468329 0.0520779 -0.0231581)
(0.0307684 0.0623553 -0.0243917)
(0.101394 0.00248895 -0.00148139)
(0.0993515 0.00278342 -0.00166777)
(0.0997221 0.00306956 -0.00185708)
(0.0993085 0.00352178 -0.00214678)
(0.0989244 0.00418017 -0.00255301)
(0.0984186 0.00509324 -0.00309443)
(0.0977652 0.006329 -0.00379575)
(0.0969291 0.00798549 -0.00468866)
(0.0958588 0.0102072 -0.00581165)
(0.0944756 0.0132144 -0.00720794)
(0.0926482 0.0173601 -0.00891959)
(0.0901257 0.0232459 -0.0109741)
(0.0863779 0.031977 -0.0133587)
(0.0800489 0.0457175 -0.0159814)
(0.0624332 0.0687965 -0.0185828)
(0.0482964 0.107877 -0.0192168)
(0.0980195 0.00310767 -0.00148829)
(0.0946849 0.00140194 -0.0016795)
(0.0932048 0.000848786 -0.00189426)
(0.0914912 0.000689659 -0.00222977)
(0.0898567 0.000685472 -0.00270924)
(0.0879749 0.000765519 -0.00336218)
(0.0856965 0.000907409 -0.00422779)
(0.0828625 0.00110721 -0.00535616)
(0.0792848 0.00136825 -0.00680773)
(0.0747325 0.00169599 -0.00864972)
(0.0689206 0.0020948 -0.0109465)
(0.061503 0.00256344 -0.0137389)
(0.0520871 0.00308856 -0.0170064)
(0.0401936 0.00363536 -0.0206008)
(0.0234122 0.0041532 -0.0240779)
(0.0126817 0.00404122 -0.0247298)
(0.101894 0.00290631 -0.00156426)
(0.0993423 0.00179044 -0.00176875)
(0.0986352 0.00134377 -0.0019946)
(0.0970841 0.00122976 -0.00234649)
(0.0954612 0.00129192 -0.00284929)
(0.0935328 0.00147718 -0.00353398)
(0.0911712 0.00177038 -0.00444164)
(0.0882194 0.00217436 -0.00562485)
(0.084482 0.00270053 -0.00714715)
(0.0797141 0.00336307 -0.00907939)
(0.0736093 0.00417286 -0.0114896)
(0.0657912 0.00512871 -0.0144215)
(0.055826 0.00620306 -0.0178539)
(0.0431898 0.00732059 -0.0216307)
(0.025252 0.00833079 -0.025287)
(0.0137053 0.0082855 -0.0259498)
(0.101446 0.00250752 -0.00153732)
(0.0990277 0.00224944 -0.00173767)
(0.0985978 0.00203969 -0.00195769)
(0.0972466 0.00204704 -0.00230015)
(0.0957753 0.00224245 -0.00278901)
(0.0939803 0.00261098 -0.00345402)
(0.0917527 0.00315657 -0.00433468)
(0.0889467 0.00389794 -0.00548155)
(0.0853723 0.00486387 -0.00695592)
(0.0807834 0.00608743 -0.00882627)
(0.0748627 0.00759689 -0.0111588)
(0.0672077 0.00940029 -0.0139968)
(0.0573347 0.011459 -0.0173216)
(0.0446336 0.0136449 -0.0209855)
(0.0262328 0.0156485 -0.0245419)
(0.0142742 0.0158083 -0.0251936)
(0.101241 0.00247646 -0.00149467)
(0.0988705 0.00251817 -0.00168844)
(0.0985857 0.00249554 -0.00189936)
(0.0974023 0.00264101 -0.00222715)
(0.0960989 0.00297613 -0.00269434)
(0.0944795 0.00351551 -0.00332872)
(0.0924466 0.00428455 -0.00416722)
(0.0898651 0.00532214 -0.00525712)
(0.086552 0.00668006 -0.00665584)
(0.0822616 0.00841913 -0.00842773)
(0.0766648 0.0105999 -0.0106354)
(0.0693249 0.0132631 -0.0133206)
(0.0596862 0.0163929 -0.0164677)
(0.0469959 0.0198531 -0.0199408)
(0.0279532 0.0232257 -0.0233226)
(0.0153697 0.0238513 -0.0239545)
(0.101187 0.0025435 -0.00144007)
(0.0988632 0.00272332 -0.00162544)
(0.0987009 0.00283536 -0.00182467)
(0.0976767 0.00310367 -0.0021336)
(0.0965563 0.00356964 -0.00257285)
(0.0951472 0.00426727 -0.00316762)
(0.0933626 0.00524098 -0.00395129)
(0.0910803 0.00655171 -0.00496664)
(0.0881298 0.00828006 -0.00626548)
(0.0842726 0.0105267 -0.00790593)
(0.0791738 0.0134068 -0.00994459)
(0.0723628 0.0170305 -0.0124194)
(0.0631986 0.0214587 -0.0153171)
(0.0507333 0.0266195 -0.0185154)
(0.0309093 0.032083 -0.0216359)
(0.0174309 0.0338571 -0.0222272)
(0.101206 0.00261136 -0.00137575)
(0.0989446 0.00286324 -0.00155124)
(0.0989146 0.00306785 -0.00173667)
(0.098055 0.00343413 -0.00202328)
(0.0971339 0.00400934 -0.00242941)
(0.0959661 0.00483935 -0.00297704)
(0.0944784 0.00598403 -0.00369516)
(0.092568 0.0075257 -0.00462067)
(0.0900873 0.00957718 -0.00579797)
(0.0868211 0.0122902 -0.00727632)
(0.0824491 0.0158614 -0.00910291)
(0.0764861 0.020527 -0.011308)
(0.0682148 0.0265228 -0.013877)
(0.0564737 0.0339823 -0.0167005)
(0.036003 0.0426668 -0.0194466)
(0.0214325 0.0470818 -0.0199534)
(0.101264 0.00263104 -0.00130435)
(0.0990799 0.00292121 -0.00146885)
(0.0991989 0.00318721 -0.00163895)
(0.0985135 0.00362435 -0.00190075)
(0.0978059 0.00427961 -0.00226999)
(0.0969032 0.00520497 -0.00276496)
(0.0957515 0.00647084 -0.00340953)
(0.0942755 0.00817655 -0.00423361)
(0.0923667 0.010464 -0.00527238)
(0.089861 0.0135381 -0.00656348)
(0.0864988 0.0176968 -0.00814047)
(0.0818443 0.023371 -0.0100198)
(0.0751657 0.031154 -0.0121774)
(0.0651312 0.0417488 -0.0145103)
(0.0448621 0.0555817 -0.0167342)
(0.0294107 0.0661934 -0.0170719)
(0.101344 0.0025742 -0.00122875)
(0.0992488 0.00288176 -0.00138164)
(0.09953 0.00318613 -0.00153557)
(0.0990258 0.00366787 -0.00177117)
(0.0985393 0.00437024 -0.00210143)
(0.0979145 0.00534625 -0.00254071)
(0.0971207 0.00667031 -0.00310733)
(0.0961186 0.00844946 -0.00382354)
(0.0948546 0.0108406 -0.00471412)
(0.0932525 0.0140808 -0.00580302)
(0.0911928 0.0185455 -0.00710616)
(0.0884539 0.0248659 -0.00861866)
(0.0845616 0.0341858 -0.0102934)
(0.0782626 0.0487238 -0.0120102)
(0.0611642 0.0728749 -0.0135117)
(0.047575 0.112882 -0.0135093)
(0.0979648 0.00311663 -0.00111302)
(0.0945731 0.00141271 -0.0012544)
(0.0929926 0.000861325 -0.00141293)
(0.0911739 0.000705249 -0.00166067)
(0.0894163 0.000705588 -0.00201408)
(0.0873857 0.000791974 -0.00249394)
(0.0849258 0.000942482 -0.00312717)
(0.0818707 0.00115379 -0.00394696)
(0.0780283 0.00142982 -0.00499139)
(0.0731695 0.00177679 -0.00629943)
(0.067024 0.00219943 -0.00790253)
(0.0592832 0.00269669 -0.00980893)
(0.0496307 0.00325429 -0.0119764)
(0.0377379 0.00383465 -0.0142679)
(0.0216313 0.00437823 -0.0163546)
(0.0115436 0.00427257 -0.0165542)
(0.101836 0.00292389 -0.00116984)
(0.0992248 0.00181101 -0.00132105)
(0.0984125 0.00136799 -0.00148779)
(0.0967512 0.00125999 -0.00174762)
(0.0949992 0.00133102 -0.00211826)
(0.0929147 0.00152875 -0.00262151)
(0.0903626 0.001839 -0.0032856)
(0.0871788 0.00226577 -0.00414538)
(0.0831633 0.00282185 -0.00524089)
(0.0780733 0.00352275 -0.00661318)
(0.0716177 0.00438036 -0.00829552)
(0.0634594 0.00539356 -0.0102967)
(0.0532452 0.00653296 -0.0125723)
(0.0406086 0.00771798 -0.014978)
(0.0233767 0.00878492 -0.0171697)
(0.0125071 0.00874553 -0.0173631)
(0.10139 0.00253905 -0.00114979)
(0.0989132 0.00228589 -0.00129793)
(0.0983811 0.00208282 -0.00146039)
(0.0969228 0.00210095 -0.00171325)
(0.0953263 0.00231229 -0.00207359)
(0.0933804 0.00270325 -0.00256235)
(0.0909687 0.0032796 -0.00320664)
(0.0879387 0.00406228 -0.00403994)
(0.084096 0.00508266 -0.00510073)
(0.0791961 0.00637643 -0.00642862)
(0.0729362 0.00797394 -0.0080558)
(0.0649516 0.00988363 -0.00999123)
(0.0548359 0.0120638 -0.0121928)
(0.0421304 0.0143773 -0.0145222)
(0.0244109 0.0164937 -0.0166485)
(0.0131095 0.0166623 -0.0168376)
(0.101188 0.00251929 -0.00111808)
(0.0987609 0.0025676 -0.00126131)
(0.0983782 0.0025541 -0.00141703)
(0.0970928 0.00271428 -0.00165903)
(0.0956704 0.00307116 -0.00200337)
(0.0939079 0.00364127 -0.00246959)
(0.091701 0.0044526 -0.00308298)
(0.0889082 0.00554734 -0.00387476)
(0.0853424 0.0069811 -0.00488086)
(0.0807593 0.00881886 -0.00613824)
(0.0748432 0.0111247 -0.00767707)
(0.0671923 0.013941 -0.00950587)
(0.0573232 0.0172486 -0.0115856)
(0.0446255 0.0208996 -0.0137872)
(0.0262237 0.0244469 -0.0158001)
(0.0142625 0.0250918 -0.015981)
(0.101137 0.00259586 -0.00107745)
(0.0987598 0.00278372 -0.00121446)
(0.0985052 0.00290695 -0.00136151)
(0.0973854 0.00319333 -0.00158956)
(0.096154 0.00368604 -0.00191328)
(0.0946122 0.00442158 -0.00235037)
(0.0926671 0.00544773 -0.00292365)
(0.0901906 0.00682973 -0.00366124)
(0.0870087 0.00865352 -0.00459535)
(0.0828844 0.0110258 -0.00575901)
(0.0774948 0.0140673 -0.00717888)
(0.070401 0.0178922 -0.00886194)
(0.0610277 0.0225594 -0.010772)
(0.0485563 0.0279844 -0.012791)
(0.0293188 0.0337006 -0.0146358)
(0.0164126 0.0355181 -0.0147973)
(0.101159 0.00267113 -0.00102961)
(0.0988484 0.00293218 -0.00115927)
(0.098733 0.00314958 -0.00129611)
(0.0977853 0.00353652 -0.00150766)
(0.0967629 0.00414238 -0.00180696)
(0.0954748 0.00501597 -0.00220943)
(0.0938429 0.00622118 -0.00273482)
(0.0917595 0.00784564 -0.00340728)
(0.0890743 0.0100089 -0.00425412)
(0.0855743 0.0128709 -0.00530278)
(0.0809502 0.0166368 -0.00657442)
(0.0747453 0.0215503 -0.0080722)
(0.0662997 0.0278495 -0.009761)
(0.0545647 0.0356575 -0.011534)
(0.0346162 0.0446947 -0.0131415)
(0.020552 0.0492022 -0.0132581)
(0.101221 0.00269576 -0.000976497)
(0.0989919 0.00299587 -0.00109801)
(0.0990328 0.00327569 -0.0012235)
(0.0982678 0.0037352 -0.00141672)
(0.0974697 0.00442367 -0.00168883)
(0.0964609 0.00539632 -0.00205267)
(0.0951834 0.00672804 -0.00252443)
(0.093559 0.00852422 -0.00312353)
(0.0914775 0.0109347 -0.00387128)
(0.0887785 0.0141742 -0.00478785)
(0.0852136 0.0185525 -0.00588633)
(0.0803733 0.024513 -0.00716254)
(0.0735753 0.0326593 -0.00857804)
(0.0635804 0.0436945 -0.0100338)
(0.0437694 0.0580107 -0.0113159)
(0.0287468 0.0688165 -0.011339)
(0.101305 0.00264126 -0.000920269)
(0.0991692 0.00295909 -0.00103317)
(0.0993804 0.00327772 -0.00114669)
(0.0988055 0.00378252 -0.00132054)
(0.0982399 0.00451911 -0.00156395)
(0.0975239 0.00554382 -0.00188696)
(0.0966242 0.00693572 -0.00230196)
(0.0955 0.00880812 -0.0028232)
(0.0940983 0.0113262 -0.00346529)
(0.0923482 0.0147379 -0.00423988)
(0.0901441 0.0194318 -0.0051498)
(0.0872913 0.0260556 -0.00617911)
(0.0833623 0.0357733 -0.00727793)
(0.077179 0.0508298 -0.00834177)
(0.0605084 0.0756516 -0.00918008)
(0.047304 0.116241 -0.00900534)
(0.0979288 0.00312265 -0.000688226)
(0.0944971 0.0014202 -0.000774999)
(0.0928469 0.000869989 -0.000871813)
(0.0909564 0.000716015 -0.00102369)
(0.0891153 0.000719459 -0.00123995)
(0.0869847 0.00081018 -0.00153288)
(0.084404 0.000966572 -0.00191812)
(0.0812044 0.00118567 -0.0024144)
(0.0771925 0.00147184 -0.00304239)
(0.0721435 0.00183163 -0.00382182)
(0.0657995 0.00227009 -0.00476602)
(0.0578801 0.00278606 -0.00587225)
(0.0481216 0.00336458 -0.00710559)
(0.0362868 0.00396616 -0.00837429)
(0.0206303 0.00452573 -0.00948782)
(0.0109375 0.00442322 -0.00952536)
(0.101799 0.00293597 -0.000723661)
(0.0991449 0.00182523 -0.000816059)
(0.0982596 0.00138467 -0.000917943)
(0.0965229 0.00128078 -0.00107715)
(0.0946833 0.00135789 -0.00130391)
(0.0924938 0.00156414 -0.0016111)
(0.089815 0.00188598 -0.0020151)
(0.0864794 0.00232818 -0.00253558)
(0.082286 0.00290438 -0.00319425)
(0.076996 0.00363088 -0.0040119)
(0.0703317 0.00452008 -0.00500258)
(0.0619858 0.00557073 -0.00616342)
(0.0516605 0.00675201 -0.00745756)
(0.0390845 0.00797967 -0.00878841)
(0.0223236 0.00908168 -0.00995696)
(0.0118696 0.00904458 -0.00998661)
(0.101353 0.00256079 -0.000711204)
(0.0988355 0.00231102 -0.000801843)
(0.0982323 0.0021125 -0.000901218)
(0.0967008 0.00213804 -0.00105616)
(0.0950194 0.00236027 -0.00127662)
(0.0929719 0.00276654 -0.00157498)
(0.0904378 0.00336378 -0.00196696)
(0.0872613 0.00417439 -0.00247142)
(0.083247 0.00523135 -0.00310921)
(0.0781542 0.0065719 -0.0039003)
(0.071693 0.00822747 -0.00485826)
(0.0635272 0.0102064 -0.00598041)
(0.0533035 0.0124647 -0.00723147)
(0.0406552 0.0148586 -0.00851854)
(0.0233905 0.0170445 -0.00965046)
(0.0124922 0.0172163 -0.00967851)
(0.101153 0.00254883 -0.000691688)
(0.0986865 0.00260167 -0.000779256)
(0.0982357 0.00259444 -0.000874501)
(0.0968805 0.00276471 -0.00102279)
(0.0953774 0.00313646 -0.00123345)
(0.0935186 0.00372753 -0.00151804)
(0.0911961 0.0045676 -0.00189119)
(0.0882653 0.00570092 -0.00237047)
(0.084538 0.00718554 -0.00297526)
(0.0797737 0.00908887 -0.00372411)
(0.0736686 0.011477 -0.00462955)
(0.0658476 0.0143926 -0.00568894)
(0.0558771 0.0178139 -0.00686911)
(0.0432329 0.0215846 -0.00808282)
(0.0252595 0.0252388 -0.00915129)
(0.0136796 0.0258924 -0.00917615)
(0.101104 0.00263196 -0.00066668)
(0.0986896 0.00282534 -0.000750388)
(0.0983709 0.00295625 -0.000840322)
(0.0971857 0.00325502 -0.000980058)
(0.095879 0.00376602 -0.0011781)
(0.0942479 0.00452738 -0.0014449)
(0.092196 0.00558909 -0.00179365)
(0.0895927 0.00701913 -0.00224012)
(0.0862632 0.00890672 -0.00280159)
(0.081974 0.0113621 -0.00349445)
(0.0764131 0.0145092 -0.00432946)
(0.0691661 0.0184639 -0.00530346)
(0.0597029 0.0232828 -0.00638544)
(0.0472831 0.0288719 -0.00749503)
(0.0284388 0.034741 -0.00847017)
(0.0158827 0.0365808 -0.00848588)
(0.101129 0.00271232 -0.00063723)
(0.0987832 0.00297968 -0.000716395)
(0.0986082 0.00320584 -0.000800067)
(0.0976003 0.00360695 -0.00092969)
(0.0965092 0.00423376 -0.00111279)
(0.0951402 0.00513701 -0.00135848)