/*--------------------------------*- C++ -*----------------------------------*\
| =========                 |                                                 |
| \\      /  F ield         | OpenFOAM: The Open Source CFD Toolbox           |
|  \\    /   O peration     | Version:  v1912                                 |
|   \\  /    A nd           | Website:  www.openfoam.com                      |
|    \\/     M anipulation  |                                                 |
\*---------------------------------------------------------------------------*/
FoamFile
{
    version     2.0;
    format      ascii;
    class       volVectorField;
    location    "0.55/solid";
    object      D;
}
// * * * * * * * * * * * * * * * * * * * * * * * * * * * * * * * * * * * * * //

dimensions      [0 1 0 0 0 0 0];


internalField   nonuniform List<vector> 
256
(
(2.26548e-08 3.42798e-08 2.4305e-08)
(2.44411e-09 1.98714e-08 2.19826e-08)
(-2.02914e-09 1.96276e-08 2.20105e-08)
(-2.17303e-08 3.3205e-08 2.44658e-08)
(3.61876e-08 2.66657e-08 4.47962e-08)
(6.89733e-09 1.83325e-08 4.17862e-08)
(-5.05621e-09 1.78472e-08 4.19696e-08)
(-3.36799e-08 2.49965e-08 4.54391e-08)
(3.79408e-08 1.51292e-08 5.49935e-08)
(8.19486e-09 1.18814e-08 5.1824e-08)
(-4.62489e-09 1.11996e-08 5.21423e-08)
(-3.37208e-08 1.29553e-08 5.60291e-08)
(3.76873e-08 5.59065e-09 6.25976e-08)
(8.47265e-09 3.79077e-09 5.9192e-08)
(-2.95241e-09 2.93751e-09 5.96079e-08)
(-3.15255e-08 2.94087e-09 6.39196e-08)
(3.85929e-08 -3.02537e-09 7.01259e-08)
(9.1965e-09 -5.40138e-09 6.64575e-08)
(-1.5109e-09 -6.41595e-09 6.69454e-08)
(-3.02607e-08 -6.12781e-09 7.16628e-08)
(4.21247e-08 -1.22015e-08 7.88437e-08)
(1.10581e-08 -1.57311e-08 7.4934e-08)
(-9.94739e-10 -1.6907e-08 7.54794e-08)
(-3.14169e-08 -1.57498e-08 8.05528e-08)
(4.99936e-08 -2.66757e-08 8.98078e-08)
(1.4499e-08 -2.96771e-08 8.59102e-08)
(-1.86652e-09 -3.1007e-08 8.65032e-08)
(-3.67487e-08 -3.06583e-08 9.16591e-08)
(6.17262e-08 -6.94602e-08 1.01849e-07)
(1.83038e-08 -6.68589e-08 9.858e-08)
(-3.01233e-09 -6.81587e-08 9.9203e-08)
(-4.58498e-08 -7.34494e-08 1.03788e-07)
(1.61536e-08 1.61227e-08 3.68433e-09)
(1.17976e-09 4.26511e-09 4.70613e-09)
(-9.16883e-10 4.06651e-09 4.82572e-09)
(-1.53542e-08 1.52029e-08 4.03311e-09)
(2.60268e-08 1.22321e-08 1.61024e-08)
(4.40434e-09 5.21033e-09 1.80804e-08)
(-2.97398e-09 4.71762e-09 1.83569e-08)
(-2.39181e-08 1.05932e-08 1.69054e-08)
(2.70512e-08 5.22563e-09 2.60009e-08)
(5.36966e-09 2.3713e-09 2.8322e-08)
(-2.43084e-09 1.66624e-09 2.87162e-08)
(-2.34602e-08 3.03625e-09 2.71474e-08)
(2.65748e-08 -2.09228e-09 3.3556e-08)
(5.56368e-09 -3.77161e-09 3.59527e-08)
(-8.54749e-10 -4.64584e-09 3.64365e-08)
(-2.12204e-08 -4.76072e-09 3.49673e-08)
(2.72812e-08 -9.69417e-09 4.04297e-08)
(6.21857e-09 -1.20147e-08 4.28068e-08)
(5.10948e-10 -1.30449e-08 4.33599e-08)
(-1.98932e-08 -1.281e-08 4.20468e-08)
(3.06547e-08 -1.78721e-08 4.76231e-08)
(8.01437e-09 -2.13957e-08 4.99561e-08)
(9.7647e-10 -2.2582e-08 5.0564e-08)
(-2.09963e-08 -2.14269e-08 4.94027e-08)
(3.85653e-08 -2.94222e-08 5.48663e-08)
(1.14243e-08 -3.23909e-08 5.71944e-08)
(4.43244e-11 -3.37231e-08 5.78415e-08)
(-2.64519e-08 -3.33961e-08 5.67645e-08)
(5.07257e-08 -6.42968e-08 5.90515e-08)
(1.52206e-08 -6.10936e-08 6.14264e-08)
(-1.15425e-09 -6.23799e-08 6.20864e-08)
(-3.60467e-08 -6.82399e-08 6.09939e-08)
(1.18979e-08 1.07162e-08 1.73773e-09)
(9.31752e-11 6.38436e-10 3.06089e-09)
(5.0048e-11 4.64478e-10 3.15011e-09)
(-1.12298e-08 9.90966e-09 1.99206e-09)
(1.92073e-08 4.83432e-09 9.87661e-09)
(2.1784e-09 -1.08076e-09 1.23705e-08)
(-1.09186e-09 -1.54191e-09 1.25853e-08)
(-1.74479e-08 3.33127e-09 1.04903e-08)
(1.98041e-08 -1.71859e-09 1.84816e-08)
(2.83563e-09 -4.1981e-09 2.13625e-08)
(-4.34617e-10 -4.87571e-09 2.16703e-08)
(-1.67528e-08 -3.79032e-09 1.93679e-08)
(1.92805e-08 -7.87196e-09 2.59224e-08)
(2.9648e-09 -9.46724e-09 2.89099e-08)
(1.04347e-09 -1.03181e-08 2.92914e-08)
(-1.46254e-08 -1.04418e-08 2.70285e-08)
(1.99353e-08 -1.40658e-08 3.2464e-08)
(3.56784e-09 -1.63812e-08 3.54747e-08)
(2.3272e-09 -1.739e-08 3.59162e-08)
(-1.33752e-08 -1.70966e-08 3.37498e-08)
(2.33021e-08 -2.03385e-08 3.84179e-08)
(5.31581e-09 -2.38794e-08 4.1424e-08)
(2.7329e-09 -2.50441e-08 4.19132e-08)
(-1.45721e-08 -2.38153e-08 3.98469e-08)
(3.13084e-08 -2.90915e-08 4.31005e-08)
(8.70325e-09 -3.20818e-08 4.60942e-08)
(1.73803e-09 -3.33901e-08 4.66149e-08)
(-2.02008e-08 -3.29866e-08 4.46275e-08)
(4.35353e-08 -6.01772e-08 4.45358e-08)
(1.24835e-08 -5.69953e-08 4.75402e-08)
(4.8647e-10 -5.82527e-08 4.80658e-08)
(-2.99251e-08 -6.40306e-08 4.60874e-08)
(9.98484e-09 9.09796e-09 1.76983e-09)
(-3.53386e-10 1.80585e-11 2.596e-09)
(4.25446e-10 -1.41595e-10 2.65856e-09)
(-9.42057e-09 8.36745e-09 1.94963e-09)
(1.60622e-08 1.84345e-09 7.74673e-09)
(1.16039e-09 -3.42609e-09 9.32907e-09)
(-3.10159e-10 -3.85261e-09 9.48562e-09)
(-1.4574e-08 4.70349e-10 8.1955e-09)
(1.65274e-08 -5.38595e-09 1.45855e-08)
(1.65736e-09 -7.63515e-09 1.64187e-08)
(3.4921e-10 -8.27221e-09 1.66463e-08)
(-1.38978e-08 -7.31794e-09 1.52431e-08)
(1.60955e-08 -1.13083e-08 2.10427e-08)
(1.7705e-09 -1.28589e-08 2.29342e-08)
(1.70452e-09 -1.36707e-08 2.32196e-08)
(-1.19964e-08 -1.37475e-08 2.18741e-08)
(1.68217e-08 -1.65618e-08 2.67105e-08)
(2.36417e-09 -1.8884e-08 2.86059e-08)
(2.88069e-09 -1.98569e-08 2.894e-08)
(-1.09311e-08 -1.94755e-08 2.7689e-08)
(2.02433e-08 -2.14476e-08 3.13923e-08)
(4.0915e-09 -2.5006e-08 3.32794e-08)
(3.21119e-09 -2.61373e-08 3.36525e-08)
(-1.22747e-08 -2.48193e-08 3.249e-08)
(2.82679e-08 -2.87446e-08 3.45526e-08)
(7.44261e-09 -3.17999e-08 3.64362e-08)
(2.17416e-09 -3.30764e-08 3.68343e-08)
(-1.79941e-08 -3.25434e-08 3.57307e-08)
(4.03886e-08 -5.82592e-08 3.53949e-08)
(1.11819e-08 -5.53383e-08 3.73251e-08)
(8.96011e-10 -5.65665e-08 3.77252e-08)
(-2.7672e-08 -6.20232e-08 3.65897e-08)
(9.22859e-09 8.42258e-09 1.65352e-09)
(-4.61659e-10 -1.4978e-10 2.06627e-09)
(4.92067e-10 -2.98795e-10 2.10993e-09)
(-8.73492e-09 7.74714e-09 1.77907e-09)
(1.48428e-08 6.8899e-10 6.15665e-09)
(8.52369e-10 -4.26014e-09 6.95249e-09)
(-1.56302e-10 -4.6581e-09 7.06363e-09)
(-1.35442e-08 -5.81465e-10 6.47492e-09)
(1.5321e-08 -6.99812e-09 1.12692e-08)
(1.29443e-09 -9.13935e-09 1.21895e-08)
(4.39388e-10 -9.73976e-09 1.23528e-08)
(-1.29942e-08 -8.80989e-09 1.17408e-08)
(1.50079e-08 -1.29917e-08 1.62851e-08)
(1.41376e-09 -1.45294e-08 1.72246e-08)
(1.67817e-09 -1.53034e-08 1.74312e-08)
(-1.13177e-08 -1.53109e-08 1.68875e-08)
(1.58275e-08 -1.78474e-08 2.07158e-08)
(2.01182e-09 -2.01772e-08 2.16471e-08)
(2.75347e-09 -2.11143e-08 2.18909e-08)
(-1.04396e-08 -2.06498e-08 2.14315e-08)
(1.9291e-08 -2.20994e-08 2.42219e-08)
(3.72345e-09 -2.56638e-08 2.51471e-08)
(3.01827e-09 -2.67622e-08 2.5421e-08)
(-1.19038e-08 -2.53713e-08 2.50309e-08)
(2.72743e-08 -2.8856e-08 2.64723e-08)
(7.02995e-09 -3.19571e-08 2.74069e-08)
(1.95748e-09 -3.32042e-08 2.77e-08)
(-1.76461e-08 -3.25667e-08 2.73446e-08)
(3.92593e-08 -5.76163e-08 2.72192e-08)
(1.07236e-08 -5.49149e-08 2.82048e-08)
(6.65979e-10 -5.61177e-08 2.8499e-08)
(-2.7242e-08 -6.13038e-08 2.81044e-08)
(8.91808e-09 8.07432e-09 1.30779e-09)
(-4.68136e-10 -2.42901e-10 1.49732e-09)
(4.73981e-10 -3.84116e-10 1.52635e-09)
(-8.46881e-09 7.43702e-09 1.39071e-09)
(1.43832e-08 2.29319e-10 4.50602e-09)
(7.9118e-10 -4.57142e-09 4.86885e-09)
(-1.92607e-10 -4.94838e-09 4.9432e-09)
(-1.32075e-08 -9.67359e-10 4.71778e-09)
(1.49134e-08 -7.61827e-09 8.0409e-09)
(1.22174e-09 -9.71759e-09 8.45634e-09)
(3.32175e-10 -1.02902e-08 8.5663e-09)
(-1.27886e-08 -9.34013e-09 8.35712e-09)
(1.46922e-08 -1.36951e-08 1.15391e-08)
(1.34912e-09 -1.5234e-08 1.19568e-08)
(1.48204e-09 -1.59783e-08 1.20968e-08)
(-1.12817e-08 -1.59212e-08 1.19461e-08)
(1.55788e-08 -1.84636e-08 1.46452e-08)
(1.94878e-09 -2.07975e-08 1.50547e-08)
(2.48224e-09 -2.17058e-08 1.52208e-08)
(-1.05421e-08 -2.11774e-08 1.51323e-08)
(1.9059e-08 -2.25485e-08 1.70799e-08)
(3.64361e-09 -2.61078e-08 1.74887e-08)
(2.69998e-09 -2.71799e-08 1.76762e-08)
(-1.20848e-08 -2.57403e-08 1.76339e-08)
(2.69878e-08 -2.91789e-08 1.86514e-08)
(6.91021e-09 -3.22935e-08 1.90751e-08)
(1.62456e-09 -3.35173e-08 1.92763e-08)
(-1.78244e-08 -3.28197e-08 1.92512e-08)
(3.88609e-08 -5.75359e-08 1.92922e-08)
(1.05653e-08 -5.49524e-08 1.97542e-08)
(3.24821e-10 -5.61354e-08 1.9956e-08)
(-2.73522e-08 -6.11636e-08 1.99015e-08)
(8.77377e-09 7.8948e-09 8.27275e-10)
(-4.60282e-10 -2.93816e-10 9.09125e-10)
(4.52434e-10 -4.29973e-10 9.25765e-10)
(-8.3502e-09 7.28124e-09 8.74501e-10)
(1.41873e-08 4.53578e-11 2.74662e-09)
(7.83482e-10 -4.68788e-09 2.90107e-09)
(-2.42003e-10 -5.05122e-09 2.94382e-09)
(-1.30841e-08 -1.10417e-09 2.86766e-09)
(1.47591e-08 -7.82923e-09 4.82178e-09)
(1.21293e-09 -9.91394e-09 4.99625e-09)
(2.32506e-10 -1.04682e-08 5.0597e-09)
(-1.27563e-08 -9.49237e-09 5.0034e-09)
(1.4593e-08 -1.3951e-08 6.87064e-09)
(1.34427e-09 -1.54936e-08 7.0436e-09)
(1.32594e-09 -1.6218e-08 7.12468e-09)
(-1.13551e-08 -1.61149e-08 7.10562e-09)
(1.55159e-08 -1.87418e-08 8.69489e-09)
(1.94162e-09 -2.10764e-08 8.86341e-09)
(2.2792e-09 -2.19653e-08 8.95997e-09)
(-1.06997e-08 -2.13956e-08 8.97754e-09)
(1.89983e-08 -2.28395e-08 1.01294e-08)
(3.62202e-09 -2.639e-08 1.03e-08)
(2.46757e-09 -2.74441e-08 1.04093e-08)
(-1.2287e-08 -2.59766e-08 1.04522e-08)
(2.68848e-08 -2.94818e-08 1.10736e-08)
(6.86059e-09 -3.25922e-08 1.12564e-08)
(1.38233e-09 -3.38001e-08 1.13739e-08)
(-1.80205e-08 -3.30747e-08 1.14243e-08)
(3.86831e-08 -5.76299e-08 1.15078e-08)
(1.04887e-08 -5.50934e-08 1.17126e-08)
(7.71897e-11 -5.62628e-08 1.18306e-08)
(-2.75043e-08 -6.12169e-08 1.18642e-08)
(8.71138e-09 7.81865e-09 2.82078e-10)
(-4.56196e-10 -3.14633e-10 3.0521e-10)
(4.42246e-10 -4.48318e-10 3.10633e-10)
(-8.29957e-09 7.21643e-09 2.97411e-10)
(1.41044e-08 -1.9007e-11 9.22234e-10)
(7.81636e-10 -4.72517e-09 9.65456e-10)
(-2.66445e-10 -5.08183e-09 9.79401e-10)
(-1.30348e-08 -1.14565e-09 9.61599e-10)
(1.4696e-08 -7.88887e-09 1.60649e-09)
(1.21082e-09 -9.9689e-09 1.65489e-09)
(1.83759e-10 -1.05142e-08 1.67562e-09)
(-1.27506e-08 -9.52316e-09 1.66568e-09)
(1.45543e-08 -1.40283e-08 2.27999e-09)
(1.34316e-09 -1.55729e-08 2.32761e-09)
(1.25049e-09 -1.62875e-08 2.35416e-09)
(-1.13985e-08 -1.61613e-08 2.35678e-09)
(1.5492e-08 -1.88485e-08 2.8803e-09)
(1.93802e-09 -2.11826e-08 2.92668e-09)
(2.18161e-09 -2.20616e-08 2.95836e-09)
(-1.07819e-08 -2.14722e-08 2.97292e-09)
(1.89728e-08 -2.29821e-08 3.35422e-09)
(3.61026e-09 -2.65265e-08 3.40176e-09)
(2.35592e-09 -2.75714e-08 3.4377e-09)
(-1.23891e-08 -2.60915e-08 3.46024e-09)
(2.68375e-08 -2.96522e-08 3.67032e-09)
(6.83474e-09 -3.27564e-08 3.72241e-09)
(1.26542e-09 -3.39563e-08 3.76109e-09)
(-1.81194e-08 -3.32209e-08 3.78566e-09)
(3.85991e-08 -5.77128e-08 3.8235e-09)
(1.04491e-08 -5.51898e-08 3.88271e-09)
(-4.25002e-11 -5.63523e-08 3.92151e-09)
(-2.75821e-08 -6.12791e-08 3.94081e-09)
)
;

boundaryField
{
    interface
    {
        type            solidTraction;
        traction        nonuniform List<vector> 
192
(
(45.196 -0.359055 -2.93473)
(47.0247 -0.265657 -4.6884)
(48.4582 0.0476051 -5.23846)
(49.3351 0.468753 -5.34666)
(49.5264 0.828064 -5.25703)
(50.3546 1.47972 -5.09056)
(48.7164 1.967 -4.67135)
(52.2081 4.36216 -4.34106)
(43.9953 -0.257874 -1.4492)
(44.8631 -0.180628 -2.48543)
(45.7166 0.10362 -2.74868)
(46.3096 0.537068 -2.74863)
(46.2758 0.921038 -2.63569)
(47.02 1.64365 -2.48012)
(45.1177 2.18544 -2.20987)
(48.7557 4.70619 -1.99048)
(46.6434 -0.222226 -1.14387)
(47.4124 -0.140096 -1.94065)
(48.257 0.142425 -2.13915)
(48.8611 0.603466 -2.13431)
(48.7359 1.02841 -2.04293)
(49.3874 1.83423 -1.91736)
(47.0262 2.45784 -1.71875)
(50.4356 5.15269 -1.54823)
(46.8385 -0.169992 -0.703064)
(47.4163 -0.0680741 -1.26025)
(48.0814 0.215529 -1.39199)
(48.5835 0.685996 -1.37635)
(48.3497 1.13025 -1.30108)
(48.9308 1.97333 -1.20478)
(46.4101 2.63403 -1.07648)
(49.7682 5.37584 -0.970665)
(47.6324 -0.145498 -0.515201)
(48.152 -0.0243145 -0.923839)
(48.7385 0.268665 -1.02122)
(49.1935 0.751283 -1.00977)
(48.8856 1.2152 -0.954395)
(49.3928 2.09012 -0.882774)
(46.6958 2.78488 -0.792247)
(49.9197 5.57276 -0.715358)
(47.8359 -0.126319 -0.315988)
(48.3043 0.0107044 -0.585032)
(48.8211 0.31174 -0.649619)
(49.2311 0.801666 -0.640708)
(48.8708 1.27683 -0.602821)
(49.3344 2.16832 -0.554752)
(46.5543 2.88114 -0.498364)
(49.7286 5.69289 -0.45181)
(48.0958 -0.117209 -0.185688)
(48.5454 0.0306575 -0.343347)
(49.0258 0.33875 -0.381558)
(49.4108 0.834577 -0.376574)
(49.0167 1.31817 -0.354726)
(49.4464 2.22113 -0.326396)
(46.6009 2.94672 -0.29438)
(49.7255 5.77603 -0.266591)
(48.158 -0.11145 -0.0551562)
(48.5945 0.0418824 -0.105664)
(49.0545 0.352948 -0.118067)
(49.4257 0.850813 -0.116276)
(49.0173 1.33789 -0.109184)
(49.4315 2.24519 -0.0999708)
(46.5662 2.97666 -0.0903526)
(49.6657 5.81339 -0.0815954)
(4.18885 0.942826 17.2682)
(7.01677 1.06073 12.8387)
(8.00123 0.832904 9.15965)
(8.28843 0.585442 7.92904)
(8.34232 0.486252 7.91757)
(8.38985 0.528982 8.86466)
(8.4665 0.653073 10.9829)
(9.19731 0.869219 12.817)
(2.58261 0.55244 21.9056)
(4.86423 0.759454 20.9006)
(5.58559 0.592922 19.7187)
(5.75716 0.329298 19.4024)
(5.7896 0.167191 19.4334)
(5.87796 0.0867758 19.8215)
(6.125 0.103122 20.5274)
(7.11063 0.189056 21.0068)
(2.64873 0.385211 18.9683)
(5.01882 0.567117 18.1979)
(5.8044 0.429506 17.1114)
(6.00107 0.157615 16.7861)
(6.0246 -0.0432692 16.8373)
(6.07169 -0.205429 17.2076)
(6.24574 -0.297642 17.9855)
(7.17017 -0.305529 18.8762)
(3.03059 0.306613 19.4482)
(5.84647 0.450946 18.9827)
(6.83754 0.313095 18.078)
(7.10191 0.0295553 17.8657)
(7.12805 -0.183998 17.9771)
(7.17863 -0.385515 18.2683)
(7.27608 -0.539468 18.8169)
(8.22206 -0.691406 19.4858)
(-9.27839 0.888084 1.00179)
(-5.94877 0.950666 1.89263)
(-3.20334 0.506536 2.15119)
(-2.01123 -0.0688804 2.23528)
(-1.80609 -0.365018 2.26911)
(-0.60674 -0.790159 2.455)
(-1.62087 -0.759433 2.57241)
(7.19587 -3.00317 3.10656)
(-14.5676 0.35634 -0.197909)
(-13.8778 0.387398 -0.0205544)
(-13.0979 0.144077 -0.0491372)
(-12.5676 -0.209817 -0.0588297)
(-12.483 -0.325096 -0.0123667)
(-10.9203 -0.60673 0.202688)
(-11.1591 -0.335329 0.458533)
(-1.57077 -2.48414 0.906277)
(-14.7994 0.197822 -0.00675039)
(-14.2885 0.174869 0.264493)
(-13.6633 0.0164237 0.346906)
(-13.0438 -0.233959 0.391213)
(-12.8408 -0.246887 0.449614)
(-10.8788 -0.454064 0.61129)
(-10.7907 -0.0715064 0.77131)
(-0.362795 -2.3628 1.00191)
(-16.3654 0.0961546 -0.0678058)
(-16.1151 0.0350361 0.160495)
(-15.7832 -0.0675514 0.247525)
(-15.1949 -0.234127 0.292083)
(-14.9214 -0.15763 0.340976)
(-12.6394 -0.295154 0.457814)
(-12.1697 0.167622 0.564668)
(-1.21629 -2.17447 0.700549)
(-16.6305 0.0798297 0.035229)
(-16.3781 0.00409048 0.25608)
(-16.061 -0.079024 0.353575)
(-15.4038 -0.214321 0.400057)
(-15.0544 -0.0972427 0.436114)
(-12.5901 -0.2082 0.505923)
(-11.9713 0.281624 0.554632)
(-0.728752 -2.13491 0.608502)
(-17.1003 0.0738339 0.0215761)
(-16.8594 -0.0067726 0.180655)
(-16.5589 -0.0786668 0.255279)
(-15.8619 -0.195688 0.29004)
(-15.4548 -0.0520828 0.314843)
(-12.8539 -0.145559 0.358512)
(-12.1097 0.361194 0.385662)
(-0.656427 -2.09892 0.413574)
(-17.2164 0.076511 0.0302783)
(-16.9627 -0.00476651 0.130716)
(-16.6493 -0.0721652 0.178248)
(-15.9178 -0.182413 0.199853)
(-15.4744 -0.0269996 0.214114)
(-12.7992 -0.114056 0.236379)
(-12.0001 0.39853 0.24804)
(-0.42538 -2.09367 0.257348)
(-17.3307 0.0767542 0.0052788)
(-17.0761 -0.00431944 0.0372866)
(-16.759 -0.0689721 0.0529915)
(-16.0125 -0.17543 0.0601395)
(-15.5489 -0.0140712 0.065126)
(-12.8366 -0.0972497 0.0725523)
(-12.0004 0.418074 0.07714)
(-0.369659 -2.08818 0.0803039)
(9.24083 -12.3839 -0.765359)
(8.53446 -10.3247 -0.545965)
(8.49855 -7.7376 -0.376255)
(8.51393 -6.09495 -0.243411)
(8.58998 -4.82586 -0.17637)
(8.63739 -3.93351 -0.108401)
(8.6783 -3.36733 -0.0658102)
(8.696 -3.09488 -0.019643)
(7.13018 -20.6526 -0.0660456)
(6.14682 -20.054 0.0249756)
(5.90486 -19.0548 0.0937731)
(5.81987 -18.314 0.10369)
(5.8105 -17.686 0.0885319)
(5.80284 -17.2269 0.0687031)
(5.80732 -16.926 0.0411117)
(5.80797 -16.7686 0.0150281)
(7.18771 -18.538 0.439516)
(6.25563 -17.5231 0.438135)
(6.08084 -16.4556 0.399113)
(6.04124 -15.7313 0.322947)
(6.05757 -15.0909 0.251461)
(6.06497 -14.6629 0.175946)
(6.07742 -14.367 0.104434)
(6.08102 -14.2308 0.0344604)
(8.2146 -19.1826 0.826754)
(7.25871 -18.4173 0.681575)
(7.15715 -17.6532 0.574022)
(7.12029 -17.1218 0.448008)
(7.15689 -16.5967 0.346878)
(7.17212 -16.273 0.238779)
(7.1931 -16.0325 0.143042)
(7.20026 -15.9233 0.0466113)
)
;
        pressure        uniform 0;
        secondOrder     false;
        setEffectiveTraction false;
        relaxationFactor 1;
        value           nonuniform List<vector> 
192
(
(8.03899e-08 4.89903e-08 2.25239e-08)
(9.02629e-08 3.04871e-08 4.19092e-08)
(9.31135e-08 1.55041e-08 5.18899e-08)
(9.45266e-08 5.75376e-09 5.94589e-08)
(9.75348e-08 -1.91588e-09 6.69647e-08)
(1.03953e-07 -9.35105e-09 7.567e-08)
(1.15556e-07 -2.17751e-08 8.66461e-08)
(1.33712e-07 -6.59809e-08 9.87249e-08)
(6.46507e-08 2.66678e-08 9.94893e-10)
(7.19943e-08 1.49564e-08 1.18569e-08)
(7.36746e-08 5.36264e-09 2.14663e-08)
(7.45157e-08 -2.03467e-09 2.89539e-08)
(7.7167e-08 -8.67403e-09 3.57649e-08)
(8.35019e-08 -1.50508e-08 4.2917e-08)
(9.5699e-08 -2.44041e-08 5.01947e-08)
(1.16315e-07 -6.07752e-08 5.45035e-08)
(5.45381e-08 1.84925e-08 1.95349e-10)
(6.06219e-08 6.81084e-09 7.38515e-09)
(6.19349e-08 -1.70026e-09 1.58503e-08)
(6.26478e-08 -7.83906e-09 2.33022e-08)
(6.52137e-08 -1.30602e-08 2.98488e-08)
(7.16182e-08 -1.74949e-08 3.58147e-08)
(8.41921e-08 -2.40328e-08 4.05258e-08)
(1.05437e-07 -5.66298e-08 4.19513e-08)
(4.90695e-08 1.56097e-08 1.10238e-09)
(5.43373e-08 3.47907e-09 6.65541e-09)
(5.56017e-08 -5.3776e-09 1.34645e-08)
(5.64121e-08 -1.12346e-08 1.99744e-08)
(5.90548e-08 -1.55247e-08 2.56833e-08)
(6.55493e-08 -1.85857e-08 3.03893e-08)
(7.82411e-08 -2.37078e-08 3.35439e-08)
(9.94968e-08 -5.47037e-08 3.43257e-08)
(4.62235e-08 1.44404e-08 1.38675e-09)
(5.11452e-08 2.21209e-09 5.73675e-09)
(5.2469e-08 -6.9568e-09 1.08655e-08)
(5.34237e-08 -1.2865e-08 1.59341e-08)
(5.61792e-08 -1.67765e-08 2.0405e-08)
(6.27339e-08 -1.92374e-08 2.39256e-08)
(7.54044e-08 -2.38635e-08 2.61521e-08)
(9.6485e-08 -5.40694e-08 2.68372e-08)
(4.46857e-08 1.38996e-08 1.19403e-09)
(4.94994e-08 1.72816e-09 4.34204e-09)
(5.08986e-08 -7.54097e-09 7.90032e-09)
(5.19674e-08 -1.35286e-08 1.14353e-08)
(5.48075e-08 -1.73717e-08 1.45672e-08)
(6.13861e-08 -1.96959e-08 1.70066e-08)
(7.39924e-08 -2.4228e-08 1.8554e-08)
(9.48959e-08 -5.40066e-08 1.91481e-08)
(4.38511e-08 1.36351e-08 7.75568e-10)
(4.86314e-08 1.5417e-09 2.67686e-09)
(5.00841e-08 -7.72775e-09 4.76738e-09)
(5.12221e-08 -1.37616e-08 6.8361e-09)
(5.41097e-08 -1.76403e-08 8.67313e-09)
(6.06918e-08 -1.99969e-08 1.01078e-08)
(7.32409e-08 -2.45601e-08 1.1036e-08)
(9.40193e-08 -5.41177e-08 1.14423e-08)
(4.34761e-08 1.35226e-08 2.66469e-10)
(4.82438e-08 1.47717e-09 9.01497e-10)
(4.97213e-08 -7.77634e-09 1.5907e-09)
(5.08903e-08 -1.38291e-08 2.2703e-09)
(5.37977e-08 -1.77437e-08 2.87431e-09)
(6.03779e-08 -2.01454e-08 3.34784e-09)
(7.28958e-08 -2.47451e-08 3.65849e-09)
(9.36116e-08 -5.42106e-08 3.80247e-09)
(2.29654e-08 5.15552e-08 8.42155e-08)
(3.68797e-08 3.4338e-08 1.00834e-07)
(3.87015e-08 1.95797e-08 1.12144e-07)
(3.84066e-08 9.37385e-09 1.21512e-07)
(3.92578e-08 1.03625e-09 1.31218e-07)
(4.27355e-08 -7.28089e-09 1.42829e-07)
(5.06014e-08 -2.09244e-08 1.57514e-07)
(6.24724e-08 -6.6307e-08 1.76034e-07)
(1.8709e-09 3.58137e-08 7.59983e-08)
(6.19147e-09 2.57929e-08 9.22879e-08)
(7.48297e-09 1.62329e-08 1.02727e-07)
(7.72617e-09 7.4492e-09 1.1142e-07)
(8.40232e-09 -1.46585e-09 1.20647e-07)
(1.0218e-08 -1.08679e-08 1.31984e-07)
(1.36738e-08 -2.37656e-08 1.47088e-07)
(1.76435e-08 -6.35965e-08 1.68294e-07)
(-1.40792e-09 3.56227e-08 7.53377e-08)
(-4.14216e-09 2.53803e-08 9.1783e-08)
(-3.57265e-09 1.56093e-08 1.0233e-07)
(-1.76954e-09 6.63832e-09 1.11103e-07)
(-2.08599e-10 -2.44808e-09 1.20391e-07)
(4.10933e-10 -1.20176e-08 1.31774e-07)
(-4.28262e-10 -2.50762e-08 1.46917e-07)
(-1.7091e-09 -6.48886e-08 1.68183e-07)
(-2.19738e-08 5.06813e-08 8.24485e-08)
(-3.41488e-08 3.28874e-08 9.96021e-08)
(-3.41335e-08 1.75754e-08 1.11232e-07)
(-3.1804e-08 6.84929e-09 1.20835e-07)
(-3.04144e-08 -1.96954e-09 1.30723e-07)
(-3.14607e-08 -1.07508e-08 1.42476e-07)
(-3.67444e-08 -2.48495e-08 1.57279e-07)
(-4.59531e-08 -7.02747e-08 1.75988e-07)
(-7.63924e-08 4.70577e-08 2.27501e-08)
(-8.46236e-08 2.79942e-08 4.27645e-08)
(-8.56973e-08 1.24168e-08 5.3258e-08)
(-8.51057e-08 2.07585e-09 6.12044e-08)
(-8.58905e-08 -6.15502e-09 6.89944e-08)
(-8.98985e-08 -1.41279e-08 7.79261e-08)
(-9.89771e-08 -2.70502e-08 8.90875e-08)
(-1.14555e-07 -7.12991e-08 1.01286e-07)
(-6.07242e-08 2.5021e-08 1.40795e-09)
(-6.67676e-08 1.26198e-08 1.28474e-08)
(-6.69061e-08 2.36186e-09 2.29054e-08)
(-6.59109e-08 -5.65252e-09 3.07423e-08)
(-6.64531e-08 -1.28661e-08 3.78254e-08)
(-7.04477e-08 -1.97873e-08 4.51916e-08)
(-8.01653e-08 -2.96336e-08 5.26276e-08)
(-9.82804e-08 -6.60196e-08 5.70128e-08)
(-5.08386e-08 1.70791e-08 5.08664e-10)
(-5.58212e-08 4.71204e-09 8.15436e-09)
(-5.57778e-08 -4.49594e-09 1.69774e-08)
(-5.48083e-08 -1.12863e-08 2.47226e-08)
(-5.53811e-08 -1.711e-08 3.15094e-08)
(-5.95228e-08 -2.2109e-08 3.76666e-08)
(-6.96602e-08 -2.91484e-08 4.25132e-08)
(-8.84313e-08 -6.17534e-08 4.39939e-08)
(-4.55718e-08 1.43661e-08 1.3259e-09)
(-4.98986e-08 1.58967e-09 7.21962e-09)
(-4.9953e-08 -7.96237e-09 1.43035e-08)
(-4.92104e-08 -1.44892e-08 2.10473e-08)
(-4.99655e-08 -1.94059e-08 2.69552e-08)
(-5.42745e-08 -2.30536e-08 3.1823e-08)
(-6.45779e-08 -2.86941e-08 3.50921e-08)
(-8.33856e-08 -5.9708e-08 3.5919e-08)
(-4.28665e-08 1.33169e-08 1.54113e-09)
(-4.69635e-08 4.8336e-10 6.13333e-09)
(-4.71875e-08 -9.36655e-09 1.14635e-08)
(-4.66916e-08 -1.59496e-08 1.67089e-08)
(-4.76473e-08 -2.05033e-08 2.13343e-08)
(-5.20858e-08 -2.35698e-08 2.49835e-08)
(-6.24172e-08 -2.87321e-08 2.73022e-08)
(-8.10803e-08 -5.89707e-08 2.80245e-08)
(-4.14171e-08 1.28561e-08 1.29454e-09)
(-4.54831e-08 1.12583e-10 4.60277e-09)
(-4.58598e-08 -9.82159e-09 8.29769e-09)
(-4.55529e-08 -1.64828e-08 1.19555e-08)
(-4.66607e-08 -2.09766e-08 1.51974e-08)
(-5.11789e-08 -2.39198e-08 1.77297e-08)
(-6.14884e-08 -2.90028e-08 1.93449e-08)
(-8.00036e-08 -5.8827e-08 1.99671e-08)
(-4.06338e-08 1.26398e-08 8.32197e-10)
(-4.47126e-08 -2.6423e-12 2.82452e-09)
(-4.5191e-08 -9.92464e-09 4.99392e-09)
(-4.50022e-08 -1.66291e-08 7.13485e-09)
(-4.62028e-08 -2.11626e-08 9.03751e-09)
(-5.07635e-08 -2.41464e-08 1.05283e-08)
(-6.10463e-08 -2.92703e-08 1.14981e-08)
(-7.94586e-08 -5.88826e-08 1.19218e-08)
(-4.02823e-08 1.255e-08 2.84755e-10)
(-4.437e-08 -3.29074e-11 9.49285e-10)
(-4.48964e-08 -9.93226e-09 1.66425e-09)
(-4.47625e-08 -1.66535e-08 2.36765e-09)
(-4.60057e-08 -2.12245e-08 2.99346e-09)
(-5.05844e-08 -2.42572e-08 3.48579e-09)
(-6.08519e-08 -2.94225e-08 3.81039e-09)
(-7.92134e-08 -5.89472e-08 3.96029e-09)
(6.2817e-08 -1.43678e-07 1.02134e-07)
(5.16871e-08 -1.32049e-07 5.67307e-08)
(4.45149e-08 -1.24245e-07 4.30263e-08)
(4.14375e-08 -1.19542e-07 3.47546e-08)
(4.03588e-08 -1.16992e-07 2.70384e-08)
(3.99811e-08 -1.15686e-07 1.92956e-08)
(3.98065e-08 -1.15057e-07 1.1552e-08)
(3.97208e-08 -1.14804e-07 3.84421e-09)
(1.79796e-08 -1.36605e-07 9.87699e-08)
(1.47424e-08 -1.22324e-07 5.89605e-08)
(1.20034e-08 -1.14144e-07 4.61014e-08)
(1.07597e-08 -1.09726e-07 3.6805e-08)
(1.03499e-08 -1.07518e-07 2.81084e-08)
(1.02161e-08 -1.06425e-07 1.97988e-08)
(1.01479e-08 -1.05895e-07 1.1772e-08)
(1.011e-08 -1.05679e-07 3.90681e-09)
(-1.36352e-09 -1.37167e-07 9.93934e-08)
(6.33348e-10 -1.22838e-07 5.961e-08)
(2.24628e-09 -1.14634e-07 4.66126e-08)
(2.56823e-09 -1.10193e-07 3.71915e-08)
(2.26419e-09 -1.07963e-07 2.83913e-08)
(1.87861e-09 -1.06852e-07 1.99923e-08)
(1.60906e-09 -1.0631e-07 1.18848e-08)
(1.48083e-09 -1.06086e-07 3.9439e-09)
(-4.5601e-08 -1.45664e-07 1.04073e-07)
(-3.56907e-08 -1.33881e-07 5.86393e-08)
(-2.9618e-08 -1.26001e-07 4.45333e-08)
(-2.74643e-08 -1.21223e-07 3.59081e-08)
(-2.71109e-08 -1.18606e-07 2.78895e-08)
(-2.72623e-08 -1.17245e-07 1.98798e-08)
(-2.74317e-08 -1.16578e-07 1.18931e-08)
(-2.75152e-08 -1.16307e-07 3.95637e-09)
)
;
        gradient        nonuniform List<vector> 
192
(
(4.61881e-06 1.17684e-06 -1.42486e-07)
(4.32602e-06 3.05718e-07 -2.30963e-07)
(4.41382e-06 2.99959e-08 -2.4829e-07)
(4.54714e-06 1.30489e-08 -2.51092e-07)
(4.71535e-06 8.87591e-08 -2.52896e-07)
(4.94628e-06 2.28032e-07 -2.53898e-07)
(5.245e-06 3.92055e-07 -2.52939e-07)
(5.75883e-06 2.78342e-07 -2.49917e-07)
(3.87977e-06 8.43605e-07 -2.15155e-07)
(3.6774e-06 2.17949e-07 -3.39638e-07)
(3.72987e-06 1.09612e-08 -3.6277e-07)
(3.83527e-06 4.60872e-09 -3.68173e-07)
(3.99086e-06 8.16111e-08 -3.73187e-07)
(4.22777e-06 2.25703e-07 -3.76484e-07)
(4.5707e-06 4.01448e-07 -3.73732e-07)
(5.24712e-06 2.81724e-07 -3.63843e-07)
(3.41121e-06 6.22102e-07 -1.2339e-07)
(3.31317e-06 1.58122e-07 -1.99317e-07)
(3.37046e-06 1.46582e-09 -2.10504e-07)
(3.46938e-06 2.63229e-09 -2.09614e-07)
(3.62227e-06 8.04472e-08 -2.09218e-07)
(3.86529e-06 2.27486e-07 -2.08253e-07)
(4.23069e-06 4.04695e-07 -2.0597e-07)
(4.9521e-06 2.83789e-07 -2.06762e-07)
(3.12678e-06 5.20939e-07 -5.3396e-08)
(3.06201e-06 1.3085e-07 -8.73055e-08)
(3.12595e-06 6.68171e-10 -8.96802e-08)
(3.22533e-06 5.89507e-09 -8.54688e-08)
(3.37865e-06 8.29719e-08 -8.21738e-08)
(3.62448e-06 2.28951e-07 -8.02382e-08)
(3.99785e-06 4.0294e-07 -8.06958e-08)
(4.72866e-06 2.84441e-07 -8.55321e-08)
(2.95959e-06 4.81427e-07 -2.13418e-08)
(2.90419e-06 1.21848e-07 -3.35919e-08)
(2.97184e-06 3.30566e-09 -3.22922e-08)
(3.07327e-06 1.01394e-08 -2.80783e-08)
(3.22814e-06 8.56781e-08 -2.4869e-08)
(3.47543e-06 2.28964e-07 -2.36976e-08)
(3.85041e-06 3.99402e-07 -2.56124e-08)
(4.57805e-06 2.83754e-07 -3.05637e-08)
(2.86141e-06 4.66025e-07 -9.10044e-09)
(2.80929e-06 1.19907e-07 -1.31182e-08)
(2.87882e-06 6.18414e-09 -1.12464e-08)
(2.98202e-06 1.3319e-08 -8.30726e-09)
(3.13829e-06 8.73528e-08 -6.23843e-09)
(3.38617e-06 2.28208e-07 -5.86241e-09)
(3.76037e-06 3.96075e-07 -7.7964e-09)
(4.4828e-06 2.82344e-07 -1.15303e-08)
(2.80618e-06 4.5922e-07 -4.13657e-09)
(2.75553e-06 1.19707e-07 -5.58079e-09)
(2.826e-06 8.11823e-09 -4.35265e-09)
(2.93033e-06 1.51478e-08 -2.76345e-09)
(3.0875e-06 8.81231e-08 -1.74041e-09)
(3.33548e-06 2.27407e-07 -1.72843e-09)
(3.70849e-06 3.93735e-07 -3.00921e-09)
(4.4269e-06 2.80977e-07 -5.24003e-09)
(2.78118e-06 4.56315e-07 -1.24868e-09)
(2.73115e-06 1.19694e-07 -1.65895e-09)
(2.80202e-06 9.00244e-09 -1.26288e-09)
(2.90688e-06 1.59315e-08 -7.75062e-10)
(3.06445e-06 8.83879e-08 -4.79292e-10)
(3.31241e-06 2.26939e-07 -5.10303e-10)
(3.68467e-06 3.92564e-07 -9.46644e-10)
(4.401e-06 2.80177e-07 -1.68191e-09)
(2.48502e-08 1.38204e-06 4.79284e-06)
(5.53732e-08 6.13784e-07 4.48305e-06)
(6.08587e-08 3.56038e-07 4.57207e-06)
(5.75433e-08 3.02656e-07 4.71314e-06)
(5.3188e-08 3.2493e-07 4.88739e-06)
(4.88642e-08 3.93645e-07 5.1188e-06)
(4.86267e-08 4.6011e-07 5.41651e-06)
(5.97019e-08 2.52256e-07 5.9348e-06)
(-4.58564e-08 1.27538e-06 4.32125e-06)
(-5.64688e-08 5.96837e-07 4.04013e-06)
(-5.69512e-08 3.48124e-07 4.07224e-06)
(-5.9718e-08 2.92675e-07 4.1782e-06)
(-6.35339e-08 3.14842e-07 4.33513e-06)
(-6.72093e-08 3.89055e-07 4.56403e-06)
(-6.6012e-08 4.72921e-07 4.89427e-06)
(-5.28238e-08 2.60995e-07 5.57709e-06)
(4.96977e-08 1.27961e-06 4.26618e-06)
(7.31239e-08 6.02643e-07 3.98508e-06)
(8.41793e-08 3.52772e-07 4.01505e-06)
(9.46291e-08 2.96065e-07 4.11961e-06)
(1.04184e-07 3.1743e-07 4.27561e-06)
(1.12454e-07 3.91153e-07 4.50359e-06)
(1.1506e-07 4.74467e-07 4.83308e-06)
(1.04258e-07 2.61608e-07 5.5184e-06)
(-1.94793e-08 1.3981e-06 4.63862e-06)
(-3.7517e-08 6.31273e-07 4.33304e-06)
(-3.30195e-08 3.69613e-07 4.4162e-06)
(-2.22796e-08 3.12673e-07 4.55326e-06)
(-1.22943e-08 3.32661e-07 4.72484e-06)
(-3.50643e-09 3.99922e-07 4.95382e-06)
(3.47789e-10 4.64703e-07 5.2496e-06)
(-8.26455e-09 2.53979e-07 5.77596e-06)
(-4.37296e-06 1.10822e-06 -1.37249e-07)
(-4.0755e-06 2.39821e-07 -2.13969e-07)
(-4.15813e-06 -4.30808e-08 -2.21692e-07)
(-4.28642e-06 -6.92016e-08 -2.17212e-07)
(-4.45038e-06 -2.17728e-09 -2.13468e-07)
(-4.67852e-06 1.29749e-07 -2.10133e-07)
(-4.97827e-06 2.88648e-07 -2.0573e-07)
(-5.49639e-06 1.72029e-07 -2.00154e-07)
(-3.6296e-06 7.8545e-07 -2.10013e-07)
(-3.42796e-06 1.62126e-07 -3.2464e-07)
(-3.47567e-06 -5.39512e-08 -3.3936e-07)
(-3.57523e-06 -7.13437e-08 -3.38003e-07)
(-3.72479e-06 -4.48785e-09 -3.3771e-07)
(-3.95611e-06 1.31164e-07 -3.36893e-07)
(-4.29708e-06 3.01004e-07 -3.30952e-07)
(-4.97869e-06 1.77622e-07 -3.18483e-07)
(-3.16871e-06 5.73555e-07 -1.18672e-07)
(-3.06986e-06 1.10462e-07 -1.86877e-07)
(-3.122e-06 -5.64493e-08 -1.91243e-07)
(-3.21463e-06 -6.75545e-08 -1.84476e-07)
(-3.36047e-06 -1.06938e-09 -1.79235e-07)
(-3.59605e-06 1.36505e-07 -1.74424e-07)
(-3.95675e-06 3.07059e-07 -1.69144e-07)
(-4.68049e-06 1.82172e-07 -1.67481e-07)
(-2.8921e-06 4.79893e-07 -4.98981e-08)
(-2.82596e-06 8.95457e-08 -7.80698e-08)
(-2.88441e-06 -5.15545e-08 -7.51676e-08)
(-2.97713e-06 -5.93374e-08 -6.61508e-08)
(-3.12275e-06 5.56399e-09 -5.87075e-08)
(-3.35998e-06 1.41256e-07 -5.33609e-08)
(-3.7267e-06 3.07949e-07 -5.10875e-08)
(-4.45709e-06 1.8522e-07 -5.36521e-08)
(-2.73053e-06 4.45584e-07 -1.90347e-08)
(-2.67354e-06 8.5186e-08 -2.73275e-08)
(-2.73546e-06 -4.45332e-08 -2.21803e-08)
(-2.82991e-06 -5.10953e-08 -1.42882e-08)
(-2.97662e-06 1.17203e-08 -7.7741e-09)
(-3.21457e-06 1.44125e-07 -3.79113e-09)
(-3.58169e-06 3.06769e-07 -3.38805e-09)
(-4.30706e-06 1.86645e-07 -6.38856e-09)
(-2.63587e-06 4.33527e-07 -7.69409e-09)
(-2.58205e-06 8.63953e-08 -9.20042e-09)
(-2.6457e-06 -3.85172e-08 -4.7545e-09)
(-2.7417e-06 -4.49318e-08 7.51991e-10)
(-2.88948e-06 1.6061e-08 5.20643e-09)
(-3.12753e-06 1.45642e-07 7.66964e-09)
(-3.49312e-06 3.05352e-07 7.49417e-09)
(-4.21211e-06 1.86933e-07 5.25009e-09)
(-2.58269e-06 4.28687e-07 -3.38434e-09)
(-2.53028e-06 8.81224e-08 -3.45141e-09)
(-2.59478e-06 -3.45821e-08 -7.58247e-10)
(-2.69177e-06 -4.11348e-08 2.33849e-09)
(-2.84024e-06 1.86379e-08 4.79717e-09)
(-3.07812e-06 1.46413e-07 6.08992e-09)
(-3.44206e-06 3.0435e-07 5.90302e-09)