/*--------------------------------*- C++ -*----------------------------------*\
| =========                 |                                                 |
| \\      /  F ield         | OpenFOAM: The Open Source CFD Toolbox           |
|  \\    /   O peration     | Version:  v1912                                 |
|   \\  /    A nd           | Website:  www.openfoam.com                      |
|    \\/     M anipulation  |                                                 |
\*---------------------------------------------------------------------------*/
FoamFile
{
    version     2.0;
    format      ascii;
    class       volVectorField;
    location    "0.55/solid";
    object      D_0_0;
}
// * * * * * * * * * * * * * * * * * * * * * * * * * * * * * * * * * * * * * //

dimensions      [0 1 0 0 0 0 0];


internalField   nonuniform List<vector> 
256
(
(2.20521e-08 3.36812e-08 2.36117e-08)
(2.3124e-09 1.95214e-08 2.13551e-08)
(-1.87474e-09 1.92874e-08 2.13941e-08)
(-2.11388e-08 3.26436e-08 2.38072e-08)
(3.51236e-08 2.62167e-08 4.32546e-08)
(6.63079e-09 1.80801e-08 4.03394e-08)
(-4.74367e-09 1.75997e-08 4.05444e-08)
(-3.2616e-08 2.45594e-08 4.39648e-08)
(3.68001e-08 1.51234e-08 5.28718e-08)
(7.909e-09 1.19592e-08 4.98089e-08)
(-4.26631e-09 1.12738e-08 5.01546e-08)
(-3.2554e-08 1.29332e-08 5.39923e-08)
(3.65793e-08 6.06169e-09 5.99812e-08)
(8.21615e-09 4.30734e-09 5.67022e-08)
(-2.586e-09 3.44187e-09 5.71495e-08)
(-3.03546e-08 3.37088e-09 6.14006e-08)
(3.74894e-08 -2.04355e-09 6.70116e-08)
(8.96267e-09 -4.34755e-09 6.34969e-08)
(-1.11886e-09 -5.38227e-09 6.40198e-08)
(-2.90469e-08 -5.20969e-09 6.86563e-08)
(4.08981e-08 -1.0604e-08 7.51715e-08)
(1.07982e-08 -1.40204e-08 7.14429e-08)
(-5.16597e-10 -1.52241e-08 7.20266e-08)
(-3.0021e-08 -1.42381e-08 7.69984e-08)
(4.84252e-08 -2.41555e-08 8.54936e-08)
(1.41392e-08 -2.70899e-08 8.17804e-08)
(-1.21487e-09 -2.84562e-08 8.24154e-08)
(-3.49406e-08 -2.82484e-08 8.74733e-08)
(5.97051e-08 -6.55055e-08 9.69679e-08)
(1.78364e-08 -6.30497e-08 9.38384e-08)
(-2.16151e-09 -6.43999e-08 9.4507e-08)
(-4.35071e-08 -6.96481e-08 9.90456e-08)
(1.58062e-08 1.59265e-08 3.42551e-09)
(1.10891e-09 4.25844e-09 4.40392e-09)
(-8.37036e-10 4.06338e-09 4.52812e-09)
(-1.50262e-08 1.5029e-08 3.78809e-09)
(2.53943e-08 1.22726e-08 1.52713e-08)
(4.25174e-09 5.40349e-09 1.71637e-08)
(-2.80665e-09 4.91089e-09 1.74527e-08)
(-2.33083e-08 1.06359e-08 1.6111e-08)
(2.63805e-08 5.6552e-09 2.4644e-08)
(5.20864e-09 2.86618e-09 2.68677e-08)
(-2.24041e-09 2.15483e-09 2.72797e-08)
(-2.2797e-08 3.44511e-09 2.58429e-08)
(2.59454e-08 -1.2281e-09 3.1725e-08)
(5.43059e-09 -2.86925e-09 3.40272e-08)
(-6.64238e-10 -3.75707e-09 3.45327e-08)
(-2.05703e-08 -3.93924e-09 3.32001e-08)
(2.66663e-08 -8.35216e-09 3.81358e-08)
(6.10686e-09 -1.06036e-08 4.04272e-08)
(7.20846e-10 -1.16547e-08 4.10051e-08)
(-1.92174e-08 -1.1532e-08 3.98265e-08)
(2.99279e-08 -1.59842e-08 4.48533e-08)
(7.8764e-09 -1.93928e-08 4.71098e-08)
(1.26597e-09 -2.06071e-08 4.77456e-08)
(-2.01563e-08 -1.9624e-08 4.6716e-08)
(3.74929e-08 -2.68022e-08 5.16514e-08)
(1.1184e-08 -2.97057e-08 5.39067e-08)
(5.0384e-10 -3.10735e-08 5.45845e-08)
(-2.52022e-08 -3.08835e-08 5.36412e-08)
(4.91642e-08 -6.0579e-08 5.56052e-08)
(1.48678e-08 -5.75668e-08 5.7906e-08)
(-4.96234e-10 -5.89005e-08 5.8598e-08)
(-3.42326e-08 -6.46676e-08 5.76437e-08)
(1.1736e-08 1.06682e-08 1.60939e-09)
(7.60108e-11 7.24461e-10 2.86878e-09)
(7.04598e-11 5.53199e-10 2.96117e-09)
(-1.10915e-08 9.88359e-09 1.87274e-09)
(1.89038e-08 5.11795e-09 9.34446e-09)
(2.13178e-09 -6.87573e-10 1.1719e-08)
(-1.04701e-09 -1.14926e-09 1.19426e-08)
(-1.7181e-08 3.61802e-09 9.98303e-09)
(1.94933e-08 -1.03059e-09 1.75012e-08)
(2.79242e-09 -3.46123e-09 2.02469e-08)
(-3.88215e-10 -4.14507e-09 2.05677e-08)
(-1.64725e-08 -3.1204e-09 1.84249e-08)
(1.90118e-08 -6.77471e-09 2.45066e-08)
(2.94778e-09 -8.33449e-09 2.73584e-08)
(1.08325e-09 -9.19826e-09 2.77564e-08)
(-1.43673e-08 -9.38332e-09 2.56604e-08)
(1.96804e-08 -1.25514e-08 3.06349e-08)
(3.56995e-09 -1.47957e-08 3.35137e-08)
(2.38143e-09 -1.58242e-08 3.39746e-08)
(-1.30977e-08 -1.56413e-08 3.19774e-08)
(2.29351e-08 -1.83896e-08 3.62128e-08)
(5.29061e-09 -2.18119e-08 3.90912e-08)
(2.86156e-09 -2.30032e-08 3.96024e-08)
(-1.41365e-08 -2.19456e-08 3.77066e-08)
(3.05923e-08 -2.65861e-08 4.06231e-08)
(8.57422e-09 -2.95079e-08 4.34927e-08)
(2.03277e-09 -3.08496e-08 4.40375e-08)
(-1.93581e-08 -3.05815e-08 4.22217e-08)
(4.23263e-08 -5.67711e-08 4.20123e-08)
(1.224e-08 -5.37775e-08 4.48949e-08)
(9.76754e-10 -5.50796e-08 4.5445e-08)
(-2.85197e-08 -6.0762e-08 4.36377e-08)
(9.90113e-09 9.10268e-09 1.6642e-09)
(-3.48185e-10 1.22831e-10 2.44811e-09)
(4.20907e-10 -3.37802e-11 2.51305e-09)
(-9.36314e-09 8.39602e-09 1.85059e-09)
(1.59019e-08 2.22043e-09 7.32905e-09)
(1.16067e-09 -2.96575e-09 8.83309e-09)
(-3.2115e-10 -3.39185e-09 8.99601e-09)
(-1.44592e-08 8.54618e-10 7.79553e-09)
(1.63715e-08 -4.58727e-09 1.38058e-08)
(1.66552e-09 -6.79661e-09 1.55514e-08)
(3.28247e-10 -7.43853e-09 1.57887e-08)
(-1.37882e-08 -6.5321e-09 1.44905e-08)
(1.59746e-08 -1.0117e-08 1.9898e-08)
(1.80067e-09 -1.16316e-08 2.1703e-08)
(1.67421e-09 -1.24546e-08 2.20008e-08)
(-1.19084e-08 -1.2589e-08 2.07648e-08)
(1.67045e-08 -1.50072e-08 2.52272e-08)
(2.40832e-09 -1.72549e-08 2.70403e-08)
(2.86365e-09 -1.82455e-08 2.73891e-08)
(-1.08201e-08 -1.79735e-08 2.62487e-08)
(2.00065e-08 -1.95436e-08 2.96308e-08)
(4.10507e-09 -2.29798e-08 3.14395e-08)
(3.26631e-09 -2.41354e-08 3.18295e-08)
(-1.20037e-08 -2.29877e-08 3.07783e-08)
(2.76829e-08 -2.63815e-08 3.26287e-08)
(7.3525e-09 -2.93603e-08 3.44361e-08)
(2.39035e-09 -3.0668e-08 3.48526e-08)
(-1.73221e-08 -3.02736e-08 3.38617e-08)
(3.93229e-08 -5.50759e-08 3.34831e-08)
(1.09787e-08 -5.23182e-08 3.53349e-08)
(1.30197e-09 -5.35889e-08 3.57537e-08)
(-2.64542e-08 -5.8971e-08 3.47342e-08)
(9.1686e-09 8.4458e-09 1.56106e-09)
(-4.52169e-10 -4.22186e-11 1.95274e-09)
(4.81878e-10 -1.87806e-10 1.99812e-09)
(-8.70289e-09 7.79582e-09 1.6913e-09)
(1.47236e-08 1.09086e-09 5.82244e-09)
(8.62079e-10 -3.78614e-09 6.58064e-09)
(-1.81971e-10 -4.18253e-09 6.6963e-09)
(-1.34761e-08 -1.68379e-10 6.15315e-09)
(1.52047e-08 -6.17424e-09 1.06591e-08)
(1.31068e-09 -8.27793e-09 1.15391e-08)
(4.0021e-10 -8.88167e-09 1.17092e-08)
(-1.29344e-08 -7.99373e-09 1.11499e-08)
(1.4917e-08 -1.17907e-08 1.53953e-08)
(1.44702e-09 -1.32897e-08 1.62972e-08)
(1.62943e-09 -1.40732e-08 1.65127e-08)
(-1.1275e-08 -1.41371e-08 1.6023e-08)
(1.57292e-08 -1.63185e-08 1.95721e-08)
(2.05364e-09 -1.85702e-08 2.04699e-08)
(2.71836e-09 -1.95232e-08 2.07244e-08)
(-1.03679e-08 -1.91676e-08 2.0319e-08)
(1.9066e-08 -2.02673e-08 2.28834e-08)
(3.73139e-09 -2.37063e-08 2.37782e-08)
(3.05398e-09 -2.48271e-08 2.40645e-08)
(-1.16698e-08 -2.36055e-08 2.37288e-08)
(2.67045e-08 -2.66055e-08 2.50348e-08)
(6.93502e-09 -2.96231e-08 2.59398e-08)
(2.14936e-09 -3.08995e-08 2.62465e-08)
(-1.70187e-08 -3.04037e-08 2.59473e-08)
(3.82217e-08 -5.45781e-08 2.58027e-08)
(1.05175e-08 -5.20174e-08 2.67553e-08)
(1.04206e-09 -5.32612e-08 2.70631e-08)
(-2.60856e-08 -5.83916e-08 2.67291e-08)
(8.86316e-09 8.10321e-09 1.23549e-09)
(-4.59877e-10 -1.35991e-10 1.41581e-09)
(4.64266e-10 -2.73501e-10 1.44599e-09)
(-8.44288e-09 7.49246e-09 1.32154e-09)
(1.42691e-08 6.29727e-10 4.25956e-09)
(7.97871e-10 -4.10215e-09 4.60725e-09)
(-2.18415e-10 -4.47667e-09 4.68462e-09)
(-1.3148e-08 -5.52851e-10 4.47956e-09)
(1.47964e-08 -6.80552e-09 7.60136e-09)
(1.23179e-09 -8.86632e-09 8.00214e-09)
(2.92848e-10 -9.44099e-09 8.11668e-09)
(-1.27347e-08 -8.53115e-09 7.93028e-09)
(1.45922e-08 -1.25194e-08 1.09057e-08)
(1.3719e-09 -1.40166e-08 1.13116e-08)
(1.43378e-09 -1.47689e-08 1.14576e-08)
(-1.12401e-08 -1.47681e-08 1.13296e-08)
(1.54632e-08 -1.69798e-08 1.38391e-08)
(1.97599e-09 -1.92326e-08 1.424e-08)
(2.44802e-09 -2.01554e-08 1.44134e-08)
(-1.04669e-08 -1.97356e-08 1.43472e-08)
(1.88121e-08 -2.07813e-08 1.61462e-08)
(3.63459e-09 -2.42133e-08 1.65486e-08)
(2.73541e-09 -2.53063e-08 1.67446e-08)
(-1.18463e-08 -2.40348e-08 1.67249e-08)
(2.63996e-08 -2.70072e-08 1.76575e-08)
(6.79906e-09 -3.00342e-08 1.80748e-08)
(1.81224e-09 -3.12858e-08 1.82852e-08)
(-1.71993e-08 -3.07312e-08 1.82847e-08)
(3.78146e-08 -5.45918e-08 1.83151e-08)
(1.03444e-08 -5.21352e-08 1.87677e-08)
(6.92471e-10 -5.33578e-08 1.89788e-08)
(-2.62106e-08 -5.8342e-08 1.89525e-08)
(8.71938e-09 7.92463e-09 7.81471e-10)
(-4.53622e-10 -1.88392e-10 8.5961e-10)
(4.43916e-10 -3.20669e-10 8.76911e-10)
(-8.3254e-09 7.33831e-09 8.30482e-10)
(1.40709e-08 4.37614e-10 2.59551e-09)
(7.86176e-10 -4.22714e-09 2.74458e-09)
(-2.65609e-10 -4.58748e-09 2.78905e-09)
(-1.30243e-08 -6.95989e-10 2.72125e-09)
(1.46348e-08 -7.03518e-09 4.55666e-09)
(1.21634e-09 -9.07972e-09 4.72683e-09)
(1.9609e-10 -9.63526e-09 4.79289e-09)
(-1.2699e-08 -8.6995e-09 4.74552e-09)
(1.44799e-08 -1.28045e-08 6.4924e-09)
(1.35754e-09 -1.4303e-08 6.66306e-09)
(1.28117e-09 -1.50345e-08 6.74758e-09)
(-1.13066e-08 -1.49881e-08 6.73708e-09)
(1.53822e-08 -1.72973e-08 8.21719e-09)
(1.95675e-09 -1.95488e-08 8.38536e-09)
(2.24863e-09 -2.04511e-08 8.48613e-09)
(-1.06149e-08 -1.99899e-08 8.51194e-09)
(1.87308e-08 -2.11188e-08 9.57966e-09)
(3.59952e-09 -2.45408e-08 9.75103e-09)
(2.5057e-09 -2.56148e-08 9.86528e-09)
(-1.20389e-08 -2.43144e-08 9.91677e-09)
(2.62786e-08 -2.73603e-08 1.0491e-08)
(6.73643e-09 -3.03811e-08 1.06743e-08)
(1.57009e-09 -3.16159e-08 1.07972e-08)
(-1.73904e-08 -3.10335e-08 1.08575e-08)
(3.7625e-08 -5.47438e-08 1.09353e-08)
(1.02557e-08 -5.23268e-08 1.1139e-08)
(4.42168e-10 -5.3535e-08 1.12623e-08)
(-2.63659e-08 -5.84507e-08 1.13081e-08)
(8.65689e-09 7.84826e-09 2.66421e-10)
(-4.50353e-10 -2.10296e-10 2.88555e-10)
(4.3437e-10 -3.40016e-10 2.94193e-10)
(-8.27495e-09 7.2736e-09 2.82334e-10)
(1.39862e-08 3.67405e-10 8.71339e-10)
(7.82244e-10 -4.27009e-09 9.13249e-10)
(-2.88777e-10 -4.62349e-09 9.27756e-10)
(-1.29741e-08 -7.42431e-10 9.12227e-10)
(1.45673e-08 -7.10692e-09 1.51791e-09)
(1.2108e-09 -9.14576e-09 1.56547e-09)
(1.49053e-10 -9.69188e-09 1.58706e-09)
(-1.26907e-08 -8.74114e-09 1.57946e-09)
(1.44341e-08 -1.28994e-08 2.15431e-09)
(1.3516e-09 -1.43987e-08 2.20179e-09)
(1.20773e-09 -1.51199e-08 2.22947e-09)
(-1.13458e-08 -1.50506e-08 2.23427e-09)
(1.53488e-08 -1.74257e-08 2.72222e-09)
(1.94712e-09 -1.96758e-08 2.7691e-09)
(2.15306e-09 -2.05678e-08 2.80215e-09)
(-1.06917e-08 -2.00867e-08 2.81879e-09)
(1.86948e-08 -2.12853e-08 3.17287e-09)
(3.58109e-09 -2.47007e-08 3.22125e-09)
(2.39555e-09 -2.57651e-08 3.2588e-09)
(-1.21357e-08 -2.44517e-08 3.28356e-09)
(2.62221e-08 -2.75553e-08 3.47843e-09)
(6.70412e-09 -3.05693e-08 3.53126e-09)
(1.4534e-09 -3.17956e-08 3.5717e-09)
(-1.74864e-08 -3.12029e-08 3.59897e-09)
(3.75347e-08 -5.48545e-08 3.635e-09)
(1.02101e-08 -5.24481e-08 3.69438e-09)
(3.21325e-10 -5.36491e-08 3.73495e-09)
(-2.64449e-08 -5.85395e-08 3.75766e-09)
)
;

boundaryField
{
    interface
    {
        type            solidTraction;
        traction        uniform (0 0 0);
        pressure        uniform 0;
        secondOrder     false;
        setEffectiveTraction false;
        relaxationFactor 1;
        value           nonuniform List<vector> 
192
(
(7.97298e-08 4.79751e-08 2.19047e-08)
(8.91541e-08 2.99036e-08 4.04956e-08)
(9.19249e-08 1.54873e-08 4.99071e-08)
(9.3363e-08 6.2341e-09 5.69811e-08)
(9.63757e-08 -9.63705e-10 6.39876e-08)
(1.02688e-07 -7.86979e-09 7.21342e-08)
(1.13973e-07 -1.94535e-08 8.24664e-08)
(1.31593e-07 -6.21529e-08 9.39739e-08)
(6.4348e-08 2.62266e-08 8.46234e-10)
(7.1413e-08 1.49161e-08 1.12159e-08)
(7.30593e-08 5.793e-09 2.03169e-08)
(7.39441e-08 -1.15655e-09 2.73327e-08)
(7.66179e-08 -7.35637e-09 3.36831e-08)
(8.28629e-08 -1.32773e-08 4.03621e-08)
(9.47352e-08 -2.19928e-08 4.71928e-08)
(1.14737e-07 -5.71886e-08 5.12602e-08)
(5.44448e-08 1.83281e-08 1.32921e-10)
(6.03751e-08 7.05727e-09 6.97105e-09)
(6.16819e-08 -1.00354e-09 1.49986e-08)
(6.24388e-08 -6.72784e-09 2.20135e-08)
(6.50236e-08 -1.15705e-08 2.81441e-08)
(7.133e-08 -1.56613e-08 3.37321e-08)
(8.35621e-08 -2.17378e-08 3.81703e-08)
(1.04185e-07 -5.33567e-08 3.95517e-08)
(4.9063e-08 1.55534e-08 1.02224e-09)
(5.42324e-08 3.83801e-09 6.28379e-09)
(5.54994e-08 -4.56906e-09 1.27334e-08)
(5.63448e-08 -1.00336e-08 1.8874e-08)
(5.89932e-08 -1.39991e-08 2.42392e-08)
(6.53761e-08 -1.67987e-08 2.86634e-08)
(7.77184e-08 -2.15519e-08 3.16566e-08)
(9.83679e-08 -5.16534e-08 3.24568e-08)
(4.62458e-08 1.44188e-08 1.30148e-09)
(5.10844e-08 2.59988e-09 5.41409e-09)
(5.24076e-08 -6.12584e-09 1.02652e-08)
(5.3386e-08 -1.16594e-08 1.50495e-08)
(5.61337e-08 -1.5281e-08 1.92617e-08)
(6.25661e-08 -1.75231e-08 2.25846e-08)
(7.4886e-08 -2.18161e-08 2.47139e-08)
(9.53776e-08 -5.11637e-08 2.54256e-08)
(4.4715e-08 1.38863e-08 1.12313e-09)
(4.94455e-08 2.11305e-09 4.09629e-09)
(5.08375e-08 -6.72471e-09 7.45878e-09)
(5.19202e-08 -1.23525e-08 1.07963e-08)
(5.47424e-08 -1.59246e-08 1.37522e-08)
(6.1192e-08 -1.80469e-08 1.60623e-08)
(7.3449e-08 -2.22561e-08 1.75509e-08)
(9.37769e-08 -5.11941e-08 1.81658e-08)
(4.38812e-08 1.36222e-08 7.29873e-10)
(4.85757e-08 1.91647e-09 2.52472e-09)
(5.00156e-08 -6.93286e-09 4.49932e-09)
(5.11608e-08 -1.26175e-08 6.45282e-09)
(5.40244e-08 -1.62343e-08 8.18854e-09)
(6.04739e-08 -1.83943e-08 9.5503e-09)
(7.26751e-08 -2.26363e-08 1.04465e-08)
(9.28867e-08 -5.13623e-08 1.08653e-08)
(4.3506e-08 1.3509e-08 2.50789e-10)
(4.81863e-08 1.84503e-09 8.50154e-10)
(4.96481e-08 -6.99489e-09 1.50103e-09)
(5.08211e-08 -1.27038e-08 2.14285e-09)
(5.37017e-08 -1.63603e-08 2.71387e-09)
(6.01478e-08 -1.85666e-08 3.16387e-09)
(7.23185e-08 -2.28448e-08 3.46429e-09)
(9.24718e-08 -5.14825e-08 3.61243e-09)
(2.23422e-08 5.0398e-08 8.35486e-08)
(3.57754e-08 3.35319e-08 9.93427e-08)
(3.75181e-08 1.93052e-08 1.1007e-07)
(3.7261e-08 9.59672e-09 1.18932e-07)
(3.81242e-08 1.75409e-09 1.28139e-07)
(4.1486e-08 -5.98338e-09 1.39213e-07)
(4.90119e-08 -1.87063e-08 1.53292e-07)
(6.04212e-08 -6.25017e-08 1.71181e-07)
(1.75843e-09 3.49451e-08 7.54662e-08)
(5.95406e-09 2.51936e-08 9.0977e-08)
(7.23062e-09 1.605e-08 1.00863e-07)
(7.50917e-09 7.72941e-09 1.09087e-07)
(8.21569e-09 -6.6236e-10 1.17857e-07)
(1.00129e-08 -9.44947e-09 1.28699e-07)
(1.33707e-08 -2.1491e-08 1.43206e-07)
(1.72223e-08 -5.99441e-08 1.63683e-07)
(-1.26129e-09 3.47721e-08 7.48326e-08)
(-3.8365e-09 2.479e-08 9.05067e-08)
(-3.21948e-09 1.54251e-08 1.00507e-07)
(-1.41042e-09 6.9082e-09 1.08816e-07)
(1.71975e-10 -1.66302e-09 1.1765e-07)
(8.73289e-10 -1.06253e-08 1.28543e-07)
(2.09362e-10 -2.28361e-08 1.43092e-07)
(-8.5852e-10 -6.12859e-08 1.63635e-07)
(-2.13524e-08 4.95866e-08 8.18655e-08)
(-3.30257e-08 3.21058e-08 9.82209e-08)
(-3.28992e-08 1.72922e-08 1.09287e-07)
(-3.05665e-08 7.03687e-09 1.184e-07)
(-2.91379e-08 -1.31026e-09 1.27801e-07)
(-3.0006e-08 -9.53388e-09 1.39028e-07)
(-3.48758e-08 -2.27367e-08 1.53237e-07)
(-4.35378e-08 -6.66208e-08 1.71326e-07)
(-7.58563e-08 4.60825e-08 2.21724e-08)
(-8.36281e-08 2.74134e-08 4.14334e-08)
(-8.45983e-08 1.23679e-08 5.13808e-08)
(-8.39981e-08 2.49408e-09 5.88489e-08)
(-8.47431e-08 -5.29317e-09 6.61538e-08)
(-8.85897e-08 -1.27648e-08 7.45402e-08)
(-9.72864e-08 -2.4877e-08 8.50715e-08)
(-1.12264e-07 -6.76689e-08 9.67122e-08)
(-6.05419e-08 2.46127e-08 1.27622e-09)
(-6.63079e-08 1.25787e-08 1.22523e-08)
(-6.63985e-08 2.76063e-09 2.18225e-08)
(-6.54212e-08 -4.83419e-09 2.92032e-08)
(-6.59486e-08 -1.16356e-08 3.58392e-08)
(-6.98043e-08 -1.81279e-08 4.27449e-08)
(-7.91393e-08 -2.73645e-08 4.97456e-08)
(-9.65833e-08 -6.262e-08 5.3897e-08)
(-5.08654e-08 1.69517e-08 4.56982e-10)
(-5.57049e-08 4.96331e-09 7.77082e-09)
(-5.56504e-08 -3.82384e-09 1.61728e-08)
(-5.47072e-08 -1.02271e-08 2.3495e-08)
(-5.52686e-08 -1.5699e-08 2.98782e-08)
(-5.92697e-08 -2.03806e-08 3.56686e-08)
(-6.9014e-08 -2.69857e-08 4.02518e-08)
(-8.71118e-08 -5.86565e-08 4.16933e-08)
(-4.5686e-08 1.43516e-08 1.25344e-09)
(-4.99309e-08 1.96087e-09 6.86934e-09)
(-4.99896e-08 -7.16983e-09 1.36061e-08)
(-4.9271e-08 -1.33311e-08 1.99918e-08)
(-5.00077e-08 -1.79498e-08 2.55664e-08)
(-5.41687e-08 -2.13622e-08 3.01617e-08)
(-6.40768e-08 -2.66609e-08 3.32769e-08)
(-8.22312e-08 -5.68253e-08 3.41258e-08)
(-4.30102e-08 1.33406e-08 1.46124e-09)
(-4.70442e-08 8.89506e-10 5.82538e-09)
(-4.72739e-08 -8.54401e-09 1.08866e-08)
(-4.67957e-08 -1.47787e-08 1.5856e-08)
(-4.77249e-08 -1.9069e-08 2.02308e-08)
(-5.20097e-08 -2.19428e-08 2.36895e-08)
(-6.19489e-08 -2.67997e-08 2.59167e-08)
(-7.99797e-08 -5.62257e-08 2.66683e-08)
(-4.15682e-08 1.28902e-08 1.22717e-09)
(-4.55736e-08 5.20102e-10 4.36664e-09)
(-4.59523e-08 -9.00813e-09 7.87147e-09)
(-4.56569e-08 -1.53351e-08 1.13375e-08)
(-4.67318e-08 -1.95841e-08 1.4409e-08)
(-5.10934e-08 -2.23518e-08 1.68172e-08)
(-6.10153e-08 -2.71401e-08 1.83777e-08)
(-7.89145e-08 -5.61701e-08 1.90226e-08)
(-4.07858e-08 1.26757e-08 7.88506e-10)
(-4.48028e-08 3.97409e-10 2.67782e-09)
(-4.52796e-08 -9.12894e-09 4.73454e-09)
(-4.50978e-08 -1.55091e-08 6.76354e-09)
(-4.62619e-08 -1.98069e-08 8.56817e-09)
(-5.06647e-08 -2.26206e-08 9.98917e-09)
(-6.05637e-08 -2.74517e-08 1.09293e-08)
(-7.83707e-08 -5.62794e-08 1.13667e-08)
(-4.04342e-08 1.25859e-08 2.69724e-10)
(-4.44591e-08 3.61499e-10 8.997e-10)
(-4.4982e-08 -9.14824e-09 1.57739e-09)
(-4.4853e-08 -1.55504e-08 2.24408e-09)
(-4.60581e-08 -1.98893e-08 2.83798e-09)
(-5.04784e-08 -2.27531e-08 3.30779e-09)
(-6.03641e-08 -2.76255e-08 3.62297e-09)
(-7.81254e-08 -5.63697e-08 3.77741e-09)
(6.0769e-08 -1.39749e-07 9.72381e-08)
(5.01078e-08 -1.28421e-07 5.34215e-08)
(4.32865e-08 -1.2089e-07 4.06365e-08)
(4.03461e-08 -1.16384e-07 3.29348e-08)
(3.92902e-08 -1.13972e-07 2.56817e-08)
(3.89007e-08 -1.12758e-07 1.83565e-08)
(3.87129e-08 -1.12185e-07 1.1001e-08)
(3.86205e-08 -1.1196e-07 3.66268e-09)
(1.75611e-08 -1.32925e-07 9.40204e-08)
(1.44492e-08 -1.19041e-07 5.5588e-08)
(1.18181e-08 -1.11127e-07 4.35827e-08)
(1.06079e-08 -1.06868e-07 3.48949e-08)
(1.01893e-08 -1.04763e-07 2.67095e-08)
(1.00369e-08 -1.03741e-07 1.8845e-08)
(9.95452e-09 -1.03257e-07 1.12172e-08)
(9.90975e-09 -1.03063e-07 3.7247e-09)
(-5.10718e-10 -1.33555e-07 9.46892e-08)
(1.28e-09 -1.19619e-07 5.6268e-08)
(2.7239e-09 -1.11678e-07 4.41172e-08)
(2.96618e-09 -1.07393e-07 3.52991e-08)
(2.63662e-09 -1.05265e-07 2.70054e-08)
(2.24517e-09 -1.04224e-07 1.90473e-08)
(1.97415e-09 -1.03726e-07 1.13352e-08)
(1.84521e-09 -1.03525e-07 3.76347e-09)
(-4.31833e-08 -1.41943e-07 9.93143e-08)
(-3.38135e-08 -1.30451e-07 5.54223e-08)
(-2.81507e-08 -1.22836e-07 4.22137e-08)
(-2.61804e-08 -1.18249e-07 3.41417e-08)
(-2.58848e-08 -1.15764e-07 2.65719e-08)
(-2.60493e-08 -1.14492e-07 1.89672e-08)
(-2.62214e-08 -1.13879e-07 1.13575e-08)
(-2.6306e-08 -1.13633e-07 3.77989e-09)
)
;
        gradient        uniform (0 0 0);
    }
    symmetry
    {
        type            solidSymmetry;
        patchType       symmetry;
        secondOrder     false;
        value           nonuniform List<vector> 
32
(
(8.65689e-09 7.84826e-09 0)
(1.39862e-08 3.67405e-10 0)
(1.45673e-08 -7.10692e-09 0)
(1.44341e-08 -1.28994e-08 0)
(1.53488e-08 -1.74257e-08 0)
(1.86948e-08 -2.12853e-08 0)
(2.62221e-08 -2.75553e-08 0)
(3.75347e-08 -5.48545e-08 0)
(-4.50353e-10 -2.10296e-10 0)
(7.82244e-10 -4.27009e-09 0)
(1.2108e-09 -9.14576e-09 0)
(1.3516e-09 -1.43987e-08 0)
(1.94712e-09 -1.96758e-08 0)
(3.58109e-09 -2.47007e-08 0)
(6.70412e-09 -3.05693e-08 0)
(1.02101e-08 -5.24481e-08 0)
(4.3437e-10 -3.40016e-10 0)
(-2.88777e-10 -4.62349e-09 0)
(1.49053e-10 -9.69188e-09 0)
(1.20773e-09 -1.51199e-08 0)
(2.15306e-09 -2.05678e-08 0)
(2.39555e-09 -2.57651e-08 0)
(1.4534e-09 -3.17956e-08 0)
(3.21325e-10 -5.36491e-08 0)
(-8.27495e-09 7.2736e-09 0)
(-1.29741e-08 -7.42431e-10 0)
(-1.26907e-08 -8.74114e-09 0)
(-1.13458e-08 -1.50506e-08 0)
(-1.06917e-08 -2.00867e-08 0)
(-1.21357e-08 -2.44517e-08 0)
(-1.74864e-08 -3.12029e-08 0)
(-2.64449e-08 -5.85395e-08 0)
)
;
    }
    bottom
    {
        type            fixedDisplacement;
        value           uniform (0 0 0);
    }
}


// ************************************************************************* //
