/*--------------------------------*- C++ -*----------------------------------*\
| =========                 |                                                 |
| \\      /  F ield         | OpenFOAM: The Open Source CFD Toolbox           |
|  \\    /   O peration     | Version:  v1912                                 |
|   \\  /    A nd           | Website:  www.openfoam.com                      |
|    \\/     M anipulation  |                                                 |
\*---------------------------------------------------------------------------*/
FoamFile
{
    version     2.0;
    format      ascii;
    class       volSymmTensorField;
    location    "0.55/solid";
    object      epsilon;
}
// * * * * * * * * * * * * * * * * * * * * * * * * * * * * * * * * * * * * * //

dimensions      [0 0 0 0 0 0 0];


internalField   nonuniform List<symmTensor> 
256
(
(-2.71362e-06 1.50129e-07 -5.88263e-08 1.21891e-06 1.63933e-07 -2.80883e-06)
(-4.93678e-07 -5.31072e-08 -2.41245e-08 7.64077e-07 1.6278e-07 -2.50616e-06)
(-4.83488e-07 6.24833e-08 2.35296e-08 7.49497e-07 1.64288e-07 -2.47678e-06)
(-2.5805e-06 -1.41274e-07 5.88716e-08 1.16403e-06 1.69502e-07 -2.72796e-06)
(-2.74882e-06 -6.90093e-09 -8.781e-08 -3.83011e-07 9.10305e-09 -2.8154e-06)
(-8.24876e-07 -3.06767e-08 -3.90789e-08 -1.59799e-07 1.79829e-08 -2.49418e-06)
(-8.11544e-07 4.06824e-08 3.90704e-08 -1.68559e-07 1.93609e-08 -2.46479e-06)
(-2.61022e-06 1.1543e-08 8.82001e-08 -4.04995e-07 1.37831e-08 -2.73719e-06)
(-2.80183e-06 -2.49796e-08 -9.37339e-08 -4.215e-07 -1.00315e-08 -2.86589e-06)
(-8.51314e-07 -2.35424e-08 -4.25263e-08 -2.90834e-07 -8.07363e-09 -2.50616e-06)
(-8.38312e-07 3.1777e-08 4.29474e-08 -2.98195e-07 -7.14373e-09 -2.47605e-06)
(-2.66098e-06 2.83297e-08 9.43055e-08 -4.41112e-07 -6.789e-09 -2.78574e-06)
(-2.85787e-06 -1.47397e-08 -9.67934e-08 -3.63091e-07 -1.16904e-09 -2.9374e-06)
(-8.12795e-07 -1.65151e-08 -4.40567e-08 -3.45655e-07 -2.45722e-09 -2.55389e-06)
(-7.99963e-07 2.26409e-08 4.45946e-08 -3.52312e-07 -1.81818e-09 -2.52323e-06)
(-2.71467e-06 1.73334e-08 9.74343e-08 -3.81662e-07 1.15222e-09 -2.85567e-06)
(-2.9456e-06 -1.57588e-09 -9.98742e-08 -3.55842e-07 1.45413e-08 -3.03762e-06)
(-8.02076e-07 -8.05083e-09 -4.57005e-08 -3.90437e-07 1.25767e-08 -2.64058e-06)
(-7.89145e-07 1.23124e-08 4.62253e-08 -3.96891e-07 1.30687e-08 -2.60951e-06)
(-2.80019e-06 3.42316e-09 1.00555e-07 -3.73813e-07 1.63442e-08 -2.95474e-06)
(-3.09447e-06 2.17019e-08 -1.02538e-07 -4.73008e-07 4.17017e-08 -3.18381e-06)
(-8.62389e-07 5.969e-09 -4.72784e-08 -4.85514e-07 4.06166e-08 -2.78157e-06)
(-8.49501e-07 -3.74314e-09 4.77859e-08 -4.91822e-07 4.10403e-08 -2.7501e-06)
(-2.94771e-06 -2.08702e-08 1.03283e-07 -4.9061e-07 4.32121e-08 -3.09991e-06)
(-3.33239e-06 6.79875e-08 -1.02181e-07 -1.14518e-06 8.75587e-08 -3.40709e-06)
(-1.0372e-06 2.91439e-08 -4.72898e-08 -1.02256e-06 9.10916e-08 -3.02145e-06)
(-1.02495e-06 -2.99883e-08 4.78328e-08 -1.02503e-06 9.14585e-08 -2.98978e-06)
(-3.18678e-06 -6.868e-08 1.03008e-07 -1.15399e-06 8.88011e-08 -3.32269e-06)
(-3.74786e-06 9.557e-08 -9.51391e-08 -3.8244e-06 1.14692e-07 -3.82334e-06)
(-1.29477e-06 4.45794e-08 -4.40845e-08 -3.53348e-06 1.229e-07 -3.53162e-06)
(-1.28307e-06 -4.43874e-08 4.45988e-08 -3.50335e-06 1.23192e-07 -3.50153e-06)
(-3.60495e-06 -9.59345e-08 9.59113e-08 -3.74442e-06 1.15594e-07 -3.74387e-06)
(-2.23936e-06 9.23269e-08 -4.35614e-08 5.67096e-07 -3.77685e-08 -4.51346e-07)
(-3.4141e-07 -6.47209e-08 -1.20955e-08 1.89509e-07 3.55364e-08 -3.78435e-07)
(-3.30679e-07 7.04691e-08 1.40617e-08 1.75683e-07 4.01944e-08 -3.77208e-07)
(-2.10355e-06 -8.49964e-08 4.4576e-08 5.15922e-07 -2.35683e-08 -4.49474e-07)
(-2.27115e-06 -1.57291e-08 -6.51129e-08 -2.17942e-07 4.85199e-09 -6.98392e-07)
(-5.80016e-07 -3.32455e-08 -2.46447e-08 -3.78762e-08 4.20265e-08 -5.88314e-07)
(-5.66448e-07 3.86894e-08 2.78935e-08 -4.80055e-08 4.50131e-08 -5.87686e-07)
(-2.13286e-06 1.8227e-08 6.66458e-08 -2.43333e-07 1.4491e-08 -6.98976e-07)
(-2.29857e-06 -2.58038e-08 -6.74631e-08 -2.86487e-07 6.05868e-09 -7.30237e-07)
(-5.8964e-07 -2.40005e-08 -2.64393e-08 -1.79639e-07 1.79277e-08 -6.09229e-07)
(-5.76598e-07 2.78418e-08 3.01567e-08 -1.87269e-07 2.00432e-08 -6.0944e-07)
(-2.15842e-06 2.71887e-08 6.91521e-08 -3.07079e-07 1.31631e-08 -7.33224e-07)
(-2.33786e-06 -1.56448e-08 -6.80589e-08 -2.98396e-07 9.66187e-09 -7.33504e-07)
(-5.48591e-07 -1.70465e-08 -2.62738e-08 -2.87719e-07 1.22673e-08 -6.05642e-07)
(-5.35683e-07 1.95268e-08 3.01053e-08 -2.94222e-07 1.3881e-08 -6.06329e-07)
(-2.19493e-06 1.66856e-08 6.98086e-08 -3.16926e-07 1.51669e-08 -7.37821e-07)
(-2.41668e-06 -2.80819e-09 -6.95087e-08 -3.15596e-07 3.02656e-08 -7.53238e-07)
(-5.35406e-07 -9.00002e-09 -2.69844e-08 -3.52483e-07 3.02362e-08 -6.19655e-07)
(-5.22236e-07 1.03583e-08 3.07815e-08 -3.58722e-07 3.15337e-08 -6.20584e-07)
(-2.27048e-06 3.46777e-09 7.12966e-08 -3.33323e-07 3.46663e-08 -7.58258e-07)
(-2.56669e-06 2.1178e-08 -7.07745e-08 -3.94561e-07 6.29962e-08 -8.08517e-07)
(-5.93565e-07 4.95816e-09 -2.80142e-08 -4.07524e-07 6.23931e-08 -6.702e-07)
(-5.80213e-07 -4.97753e-09 3.17429e-08 -4.13564e-07 6.34449e-08 -6.71325e-07)
(-2.41751e-06 -2.12445e-08 7.26123e-08 -4.11721e-07 6.65212e-08 -8.14118e-07)
(-2.82817e-06 7.0661e-08 -7.01385e-08 -9.28495e-07 9.01268e-08 -9.34147e-07)
(-7.70419e-07 2.90537e-08 -2.82055e-08 -7.93958e-07 9.06557e-08 -7.96319e-07)
(-7.57523e-07 -3.13597e-08 3.17464e-08 -7.95958e-07 9.13943e-08 -7.97767e-07)
(-2.67846e-06 -7.19841e-08 7.19705e-08 -9.36261e-07 9.26281e-08 -9.40632e-07)
(-3.33366e-06 1.02432e-07 -6.71988e-08 -3.40759e-06 8.82651e-08 -1.14626e-06)
(-1.0376e-06 4.75679e-08 -2.7854e-08 -3.02327e-06 9.16387e-08 -1.0208e-06)
(-1.02535e-06 -4.76967e-08 3.06625e-08 -2.99147e-06 9.19806e-08 -1.02274e-06)
(-3.1872e-06 -1.03023e-07 6.8701e-08 -3.32253e-06 8.93907e-08 -1.15402e-06)
(-1.9417e-06 5.47493e-08 -1.76085e-08 3.1101e-07 4.58959e-08 -3.829e-08)
(-2.36958e-07 -7.98014e-08 -1.20773e-09 -8.84655e-09 1.11844e-07 -4.22026e-08)
(-2.26459e-07 8.22941e-08 2.73504e-09 -2.15486e-08 1.15273e-07 -4.33432e-08)
(-1.80995e-06 -4.89357e-08 1.80876e-08 2.64819e-07 5.64696e-08 -4.16697e-08)
(-1.99716e-06 -1.96196e-08 -2.48773e-08 -2.48695e-07 6.35529e-08 -1.67113e-07)
(-4.05983e-07 -3.63377e-08 -5.3525e-09 -9.67307e-08 9.66519e-08 -1.75027e-07)
(-3.92525e-07 3.92737e-08 7.8361e-09 -1.06804e-07 9.94994e-08 -1.77425e-07)
(-1.86205e-06 2.11173e-08 2.57713e-08 -2.74e-07 7.25296e-08 -1.74199e-07)
(-2.0246e-06 -2.44297e-08 -2.38033e-08 -2.54126e-07 5.43417e-08 -2.28308e-07)
(-4.04774e-07 -2.37072e-08 -5.23664e-09 -1.67729e-07 6.53293e-08 -2.38066e-07)
(-3.91768e-07 2.54311e-08 7.85452e-09 -1.75524e-07 6.76769e-08 -2.41397e-07)
(-1.88736e-06 2.49661e-08 2.47895e-08 -2.75462e-07 6.18402e-08 -2.38087e-07)
(-2.061e-06 -1.52987e-08 -2.25139e-08 -2.46945e-07 4.76635e-08 -2.50266e-07)
(-3.6474e-07 -1.71394e-08 -4.24101e-09 -2.43662e-07 5.02494e-08 -2.6037e-07)
(-3.51804e-07 1.78722e-08 6.77887e-09 -2.50287e-07 5.22114e-08 -2.64337e-07)
(-1.92069e-06 1.56498e-08 2.34927e-08 -2.66125e-07 5.3952e-08 -2.61864e-07)
(-2.13849e-06 -3.04845e-09 -2.2184e-08 -2.4933e-07 5.62788e-08 -2.74385e-07)
(-3.52162e-07 -9.73196e-09 -4.02191e-09 -2.88243e-07 5.64469e-08 -2.84017e-07)
(-3.38861e-07 9.74019e-09 6.44858e-09 -2.94521e-07 5.8097e-08 -2.88398e-07)
(-1.99428e-06 3.20005e-09 2.3148e-08 -2.6747e-07 6.15291e-08 -2.87156e-07)
(-2.29237e-06 2.14504e-08 -2.19897e-08 -3.00514e-07 7.06091e-08 -3.24616e-07)
(-4.11385e-07 4.2976e-09 -4.27606e-09 -3.14013e-07 7.00921e-08 -3.33533e-07)
(-3.97758e-07 -5.25117e-09 6.57569e-09 -3.2e-07 7.14332e-08 -3.38229e-07)
(-2.14413e-06 -2.18413e-08 2.29469e-08 -3.17801e-07 7.48524e-08 -3.38255e-07)
(-2.56745e-06 7.12544e-08 -2.1544e-08 -7.96774e-07 6.79549e-08 -4.06275e-07)
(-5.91407e-07 2.86916e-08 -4.67282e-09 -6.62319e-07 6.70717e-08 -4.15163e-07)
(-5.78081e-07 -3.15121e-08 6.63145e-09 -6.64171e-07 6.79933e-08 -4.20144e-07)
(-2.41715e-06 -7.2731e-08 2.24177e-08 -8.04305e-07 7.09327e-08 -4.20676e-07)
(-3.09708e-06 1.02732e-07 -2.16363e-08 -3.18442e-06 4.45399e-08 -4.73133e-07)
(-8.60977e-07 4.74443e-08 -5.08618e-09 -2.7842e-06 4.32368e-08 -4.82028e-07)
(-8.48172e-07 -4.76719e-08 5.97482e-09 -2.75251e-06 4.35779e-08 -4.87224e-07)
(-2.94848e-06 -1.03337e-07 2.20927e-08 -3.09968e-06 4.56843e-08 -4.88084e-07)
(-1.77015e-06 3.94369e-08 -5.08272e-09 2.18828e-07 7.22296e-08 -1.68408e-09)
(-1.91188e-07 -8.43255e-08 3.33895e-09 -6.81606e-08 1.11369e-07 -1.98925e-08)
(-1.81344e-07 8.46468e-08 -2.04355e-09 -7.98841e-08 1.13809e-07 -2.08035e-08)
(-1.64297e-06 -3.48822e-08 5.3848e-09 1.76756e-07 7.9826e-08 -4.25995e-09)
(-1.82904e-06 -1.99825e-08 -5.99478e-09 -2.89678e-07 8.6703e-08 -7.43993e-08)
(-3.27448e-07 -3.68531e-08 4.12858e-09 -1.53064e-07 1.06433e-07 -1.08361e-07)
(-3.14688e-07 3.8202e-08 -1.98016e-09 -1.62612e-07 1.08716e-07 -1.10434e-07)
(-1.69826e-06 2.08433e-08 6.61736e-09 -3.13708e-07 9.38072e-08 -8.03082e-08)
(-1.86037e-06 -2.23265e-08 -4.07854e-09 -2.63035e-07 8.01645e-08 -1.44249e-07)
(-3.23563e-07 -2.27615e-08 5.19673e-09 -1.88656e-07 8.66387e-08 -1.8346e-07)
(-3.11104e-07 2.33189e-08 -3.01614e-09 -1.96361e-07 8.86997e-08 -1.86349e-07)
(-1.72715e-06 2.24307e-08 4.76108e-09 -2.84356e-07 8.65908e-08 -1.52542e-07)
(-1.89917e-06 -1.40369e-08 -2.44358e-09 -2.23518e-07 7.00524e-08 -1.92745e-07)
(-2.87819e-07 -1.65555e-08 6.25881e-09 -2.24978e-07 7.12511e-08 -2.33706e-07)
(-2.75337e-07 1.64292e-08 -4.25348e-09 -2.31693e-07 7.30842e-08 -2.37204e-07)
(-1.76258e-06 1.40646e-08 3.08466e-09 -2.4315e-07 7.57687e-08 -2.02822e-07)
(-1.97847e-06 -2.48668e-09 -1.58021e-09 -2.02786e-07 6.56794e-08 -2.34964e-07)
(-2.78819e-07 -9.74045e-09 6.73518e-09 -2.42942e-07 6.54917e-08 -2.76552e-07)
(-2.65906e-07 9.15262e-09 -4.90632e-09 -2.49332e-07 6.70862e-08 -2.80508e-07)
(-1.83761e-06 2.42201e-09 2.16959e-09 -2.21437e-07 7.06265e-08 -2.46366e-07)
(-2.13528e-06 2.16406e-08 -1.18005e-09 -2.43655e-07 6.08118e-08 -2.83921e-07)
(-3.40643e-07 3.88781e-09 6.67929e-09 -2.58317e-07 6.0459e-08 -3.25539e-07)
(-3.27324e-07 -5.19835e-09 -5.04041e-09 -2.6439e-07 6.17625e-08 -3.29844e-07)
(-1.98971e-06 -2.21366e-08 1.71797e-09 -2.61359e-07 6.48563e-08 -2.96319e-07)
(-2.41543e-06 7.01649e-08 -1.33052e-09 -7.36232e-07 4.23812e-08 -3.32564e-07)
(-5.21875e-07 2.75864e-08 6.08443e-09 -6.06646e-07 4.17041e-08 -3.73747e-07)
(-5.08735e-07 -3.05872e-08 -4.86112e-09 -6.08584e-07 4.25859e-08 -3.78298e-07)
(-2.26672e-06 -7.16566e-08 1.73904e-09 -7.44078e-07 4.51956e-08 -3.45659e-07)
(-2.94846e-06 1.00284e-07 -2.07474e-09 -3.0416e-06 2.12265e-08 -3.46331e-07)
(-7.89852e-07 4.58759e-08 5.7047e-09 -2.64628e-06 1.92908e-08 -3.86707e-07)
(-7.77079e-07 -4.61862e-08 -5.55853e-09 -2.61488e-06 1.95851e-08 -3.91336e-07)
(-2.7999e-06 -1.00887e-07 2.06217e-09 -2.95761e-06 2.22257e-08 -3.59661e-07)
(-1.6736e-06 3.46339e-08 -1.20466e-09 1.82231e-07 6.78654e-08 -9.24085e-09)
(-1.7473e-07 -8.33067e-08 3.41658e-09 -8.81984e-08 8.7578e-08 -2.19736e-08)
(-1.65465e-07 8.23268e-08 -2.38665e-09 -9.91379e-08 8.93104e-08 -2.26443e-08)
(-1.5498e-06 -3.09363e-08 1.45029e-09 1.43313e-07 7.32356e-08 -1.11783e-08)
(-1.73191e-06 -1.90292e-08 -4.33523e-10 -3.08414e-07 8.00152e-08 -6.48143e-08)
(-2.99983e-07 -3.59101e-08 5.37771e-09 -1.79791e-07 8.97792e-08 -8.92044e-08)
(-2.87932e-07 3.626e-08 -3.60021e-09 -1.88819e-07 9.14714e-08 -9.08483e-08)
(-1.60453e-06 1.94698e-08 9.46527e-10 -3.31141e-07 8.52402e-08 -6.95543e-08)
(-1.76645e-06 -2.05878e-08 1.13702e-09 -2.73614e-07 7.89616e-08 -1.30891e-07)
(-2.97632e-07 -2.18025e-08 6.48037e-09 -2.05384e-07 8.18969e-08 -1.59247e-07)
(-2.85773e-07 2.16394e-08 -4.65754e-09 -2.12905e-07 8.34965e-08 -1.61601e-07)
(-1.6364e-06 2.04313e-08 -5.72932e-10 -2.94589e-07 8.39036e-08 -1.37719e-07)
(-1.80852e-06 -1.28465e-08 2.38195e-09 -2.16986e-07 7.05984e-08 -1.90073e-07)
(-2.66595e-07 -1.59423e-08 7.24724e-09 -2.20758e-07 7.08251e-08 -2.19547e-07)
(-2.54628e-07 1.53252e-08 -5.59647e-09 -2.27491e-07 7.23038e-08 -2.22457e-07)
(-1.67487e-06 1.26966e-08 -1.86294e-09 -2.36798e-07 7.51704e-08 -1.98561e-07)
(-1.89038e-06 -1.88669e-09 3.10215e-09 -1.82154e-07 6.03499e-08 -2.41305e-07)
(-2.6148e-07 -9.57203e-09 7.59656e-09 -2.22688e-07 6.00897e-08 -2.71024e-07)
(-2.49029e-07 8.67538e-09 -6.14055e-09 -2.29178e-07 6.14077e-08 -2.74384e-07)
(-1.75217e-06 1.71424e-09 -2.6469e-09 -2.01208e-07 6.44151e-08 -2.51134e-07)
(-2.04907e-06 2.1584e-08 3.3333e-09 -2.20171e-07 4.65562e-08 -2.86248e-07)
(-3.25455e-07 3.55339e-09 7.5122e-09 -2.35596e-07 4.65792e-08 -3.15814e-07)
(-3.12544e-07 -5.03551e-09 -6.27369e-09 -2.41797e-07 4.76647e-08 -3.19526e-07)
(-1.90572e-06 -2.2124e-08 -2.94948e-09 -2.38339e-07 4.99207e-08 -2.97123e-07)
(-2.33009e-06 6.88217e-08 2.94784e-09 -7.10337e-07 2.56305e-08 -3.18023e-07)
(-5.06336e-07 2.65199e-08 6.95267e-09 -5.85022e-07 2.56419e-08 -3.47222e-07)
(-4.9352e-07 -2.96197e-08 -6.11892e-09 -5.8711e-07 2.6372e-08 -3.51161e-07)
(-2.18292e-06 -7.03165e-08 -2.70331e-09 -7.18649e-07 2.79713e-08 -3.29589e-07)
(-2.85974e-06 9.79161e-08 2.21972e-09 -2.95023e-06 1.10857e-08 -3.22053e-07)
(-7.71867e-07 4.44484e-08 6.63142e-09 -2.56327e-06 9.90943e-09 -3.51417e-07)
(-7.59313e-07 -4.48395e-08 -6.71675e-09 -2.53207e-06 1.01469e-08 -3.55385e-07)
(-2.71169e-06 -9.8536e-08 -2.34569e-09 -2.86681e-06 1.18971e-08 -3.33765e-07)
(-1.61843e-06 3.33348e-08 -3.77742e-10 1.66073e-07 5.28602e-08 -1.6525e-08)
(-1.68882e-07 -8.13539e-08 2.19933e-09 -9.62864e-08 6.22213e-08 -2.31428e-08)
(-1.60013e-07 7.9613e-08 -1.4624e-09 -1.0665e-07 6.33837e-08 -2.36833e-08)
(-1.49679e-06 -3.01698e-08 5.67355e-10 1.29393e-07 5.6426e-08 -1.80913e-08)
(-1.67649e-06 -1.80308e-08 3.52606e-10 -3.13852e-07 6.08948e-08 -6.82007e-08)
(-2.91517e-07 -3.48782e-08 3.683e-09 -1.89494e-07 6.53127e-08 -8.10284e-08)
(-2.79973e-07 3.46226e-08 -2.36771e-09 -1.98121e-07 6.64684e-08 -8.23963e-08)
(-1.55132e-06 1.82112e-08 4.70856e-11 -3.35543e-07 6.4437e-08 -7.21451e-08)
(-1.71324e-06 -1.94494e-08 1.34697e-09 -2.78488e-07 6.20197e-08 -1.28948e-07)
(-2.91625e-07 -2.11395e-08 4.43901e-09 -2.13252e-07 6.31338e-08 -1.43865e-07)
(-2.80207e-07 2.05212e-08 -3.06097e-09 -2.20598e-07 6.42514e-08 -1.45863e-07)
(-1.58526e-06 1.9129e-08 -9.01489e-10 -2.99076e-07 6.54583e-08 -1.34748e-07)
(-1.75787e-06 -1.20647e-08 2.10462e-09 -2.16906e-07 5.64507e-08 -1.8829e-07)
(-2.64204e-07 -1.55616e-08 4.88216e-09 -2.21598e-07 5.63415e-08 -2.03621e-07)
(-2.52616e-07 1.46293e-08 -3.62964e-09 -2.28314e-07 5.73984e-08 -2.06131e-07)
(-1.62612e-06 1.18029e-08 -1.69312e-09 -2.36745e-07 5.97124e-08 -1.95637e-07)
(-1.84175e-06 -1.50964e-09 2.53928e-09 -1.77067e-07 4.64638e-08 -2.40419e-07)
(-2.61932e-07 -9.47779e-09 5.05355e-09 -2.17476e-07 4.63274e-08 -2.55674e-07)
(-2.49819e-07 8.38063e-09 -3.96654e-09 -2.24032e-07 4.7285e-08 -2.58618e-07)
(-1.70523e-06 1.26874e-09 -2.18396e-09 -1.96383e-07 4.94201e-08 -2.4908e-07)
(-2.00139e-06 2.14439e-08 2.62679e-09 -2.14307e-07 3.2661e-08 -2.8185e-07)
(-3.27181e-07 3.29977e-09 4.94928e-09 -2.29919e-07 3.29414e-08 -2.96942e-07)
(-3.14568e-07 -4.90137e-09 -4.05595e-09 -2.36228e-07 3.37364e-08 -3.00233e-07)
(-1.85946e-06 -2.20156e-08 -2.3388e-09 -2.32847e-07 3.51361e-08 -2.91574e-07)
(-2.28174e-06 6.78544e-08 2.29138e-09 -6.99748e-07 1.58653e-08 -3.07973e-07)
(-5.07265e-07 2.58333e-08 4.55517e-09 -5.76892e-07 1.63033e-08 -3.2301e-07)
(-4.94692e-07 -2.90142e-08 -3.9908e-09 -5.7911e-07 1.68387e-08 -3.26521e-07)
(-2.13554e-06 -6.93608e-08 -2.12188e-09 -7.08467e-07 1.75963e-08 -3.18406e-07)
(-2.80731e-06 9.63832e-08 1.74011e-09 -2.89316e-06 6.33949e-09 -3.14229e-07)
(-7.70721e-07 4.3572e-08 4.28894e-09 -2.51209e-06 5.89831e-09 -3.29844e-07)
(-7.5835e-07 -4.40334e-08 -4.41516e-09 -2.48102e-06 6.07232e-09 -3.33369e-07)
(-2.6596e-06 -9.70292e-08 -1.85524e-09 -2.81015e-06 6.93778e-09 -3.24802e-07)
(-1.58777e-06 3.29196e-08 -2.1443e-10 1.58803e-07 3.31822e-08 -2.05142e-08)
(-1.66427e-07 -8.00157e-08 1.1043e-09 -9.9634e-08 3.73847e-08 -2.38422e-08)
(-1.57798e-07 7.78549e-08 -6.6358e-10 -1.09624e-07 3.80538e-08 -2.43143e-08)
(-1.4674e-06 -3.00591e-08 3.33654e-10 1.23541e-07 3.52157e-08 -2.1866e-08)
(-1.64584e-06 -1.74059e-08 1.51629e-10 -3.14481e-07 3.74618e-08 -7.16757e-08)
(-2.88586e-07 -3.42336e-08 1.87656e-09 -1.92403e-07 3.93338e-08 -7.80679e-08)
(-2.77352e-07 3.36378e-08 -1.07248e-09 -2.00765e-07 4.00048e-08 -7.92761e-08)
(-1.52198e-06 1.74397e-08 1.02203e-10 -3.35472e-07 3.9506e-08 -7.51236e-08)
(-1.68392e-06 -1.88199e-08 6.59021e-10 -2.79927e-07 3.85342e-08 -1.28688e-07)
(-2.90532e-07 -2.07819e-08 2.26996e-09 -2.16114e-07 3.89121e-08 -1.36029e-07)
(-2.79385e-07 1.98951e-08 -1.41271e-09 -2.23336e-07 3.95687e-08 -1.37814e-07)
(-1.55717e-06 1.84033e-08 -3.72255e-10 -3.00214e-07 4.05493e-08 -1.33829e-07)
(-1.73014e-06 -1.16448e-08 1.04114e-09 -2.18252e-07 3.53995e-08 -1.85182e-07)
(-2.65341e-07 -1.53833e-08 2.48068e-09 -2.2325e-07 3.52824e-08 -1.92584e-07)
(-2.53987e-07 1.42539e-08 -1.69525e-09 -2.29941e-07 3.59112e-08 -1.94853e-07)
(-1.5995e-06 1.13133e-08 -7.73838e-10 -2.38064e-07 3.734e-08 -1.91786e-07)
(-1.81524e-06 -1.32408e-09 1.25246e-09 -1.77771e-07 2.87374e-08 -2.35299e-07)
(-2.64735e-07 -9.45687e-09 2.54326e-09 -2.17929e-07 2.87128e-08 -2.42561e-07)
(-2.52827e-07 8.22508e-09 -1.86507e-09 -2.24522e-07 2.92884e-08 -2.45248e-07)
(-1.6797e-06 1.03703e-09 -1.02215e-09 -1.97234e-07 3.0518e-08 -2.43188e-07)
(-1.97527e-06 2.13318e-08 1.27599e-09 -2.148e-07 1.94508e-08 -2.74513e-07)
(-3.30614e-07 3.144e-09 2.46595e-09 -2.30315e-07 1.97432e-08 -2.8174e-07)
(-3.1818e-07 -4.83416e-09 -1.9181e-09 -2.36696e-07 2.02242e-08 -2.8477e-07)
(-1.83415e-06 -2.19293e-08 -1.09203e-09 -2.33583e-07 2.09547e-08 -2.83472e-07)
(-2.25473e-06 6.73108e-08 1.07682e-09 -6.95808e-07 9.05149e-09 -2.99622e-07)
(-5.10049e-07 2.54843e-08 2.24829e-09 -5.74067e-07 9.49742e-09 -3.07054e-07)
(-4.97622e-07 -2.87293e-08 -1.91239e-09 -5.76374e-07 9.82245e-09 -3.10304e-07)
(-2.10909e-06 -6.88318e-08 -9.70785e-10 -7.04806e-07 1.01092e-08 -3.09311e-07)
(-2.77734e-06 9.55719e-08 7.40387e-10 -2.86004e-06 3.45664e-09 -3.09374e-07)
(-7.72118e-07 4.31358e-08 2.06667e-09 -2.48211e-06 3.37646e-09 -3.17429e-07)
(-7.5986e-07 -4.3649e-08 -2.15725e-09 -2.45112e-06 3.48242e-09 -3.2069e-07)
(-2.6298e-06 -9.62413e-08 -8.12247e-10 -2.7773e-06 3.8228e-09 -3.19213e-07)
(-1.57394e-06 3.27465e-08 -8.04842e-11 1.55993e-07 1.12817e-08 -2.21871e-08)
(-1.65383e-07 -7.94153e-08 3.26408e-10 -1.00796e-07 1.24985e-08 -2.42867e-08)
(-1.56867e-07 7.70687e-08 -1.79873e-10 -1.10603e-07 1.27169e-08 -2.4728e-08)
(-1.45415e-06 -3.00242e-08 1.20934e-10 1.21416e-07 1.1942e-08 -2.34382e-08)
(-1.63203e-06 -1.71385e-08 1.81771e-11 -3.14151e-07 1.26004e-08 -7.3377e-08)
(-2.87417e-07 -3.39581e-08 5.53216e-10 -1.93085e-07 1.31239e-08 -7.73306e-08)
(-2.76329e-07 3.32103e-08 -2.82989e-10 -2.01317e-07 1.33437e-08 -7.84643e-08)
(-1.50877e-06 1.71068e-08 6.85092e-11 -3.34792e-07 1.32679e-08 -7.65852e-08)
(-1.67072e-06 -1.85522e-08 1.69052e-10 -2.80185e-07 1.29811e-08 -1.28565e-07)
(-2.90246e-07 -2.06376e-08 6.70262e-10 -2.16955e-07 1.30719e-08 -1.33023e-07)
(-2.79228e-07 1.96268e-08 -3.79503e-10 -2.24112e-07 1.32882e-08 -1.34706e-07)
(-1.54452e-06 1.80913e-08 -7.03484e-11 -3.00313e-07 1.36439e-08 -1.33382e-07)
(-1.71766e-06 -1.14696e-08 2.83216e-10 -2.19194e-07 1.19654e-08 -1.83013e-07)
(-2.66076e-07 -1.532e-08 7.30565e-10 -2.24274e-07 1.19245e-08 -1.87424e-07)
(-2.54833e-07 1.40948e-08 -4.62739e-10 -2.3095e-07 1.21328e-08 -1.89577e-07)
(-1.58754e-06 1.11043e-08 -1.90675e-10 -2.3898e-07 1.26083e-08 -1.89248e-07)
(-1.80331e-06 -1.25235e-09 3.44675e-10 -1.79077e-07 9.67505e-09 -2.31504e-07)
(-2.66209e-07 -9.45993e-09 7.44626e-10 -2.1907e-07 9.67994e-09 -2.35802e-07)
(-2.54398e-07 8.15867e-09 -5.13522e-10 -2.2568e-07 9.87157e-09 -2.38367e-07)
(-1.66822e-06 9.41318e-10 -2.64878e-10 -1.98605e-07 1.02686e-08 -2.39009e-07)
(-1.96346e-06 2.12767e-08 3.48526e-10 -2.16073e-07 6.47425e-09 -2.69672e-07)
(-3.32338e-07 3.07398e-09 7.17209e-10 -2.31477e-07 6.59312e-09 -2.74034e-07)
(-3.19988e-07 -4.8127e-09 -5.31691e-10 -2.37893e-07 6.75381e-09 -2.7694e-07)
(-1.82271e-06 -2.18889e-08 -2.85075e-10 -2.34974e-07 6.97788e-09 -2.78249e-07)
(-2.24239e-06 6.70792e-08 2.84767e-10 -6.94613e-07 2.98885e-09 -2.94879e-07)
(-5.11442e-07 2.53478e-08 6.49171e-10 -5.73266e-07 3.1669e-09 -2.99575e-07)
(-4.99082e-07 -2.86286e-08 -5.36569e-10 -5.75618e-07 3.27573e-09 -3.027e-07)
(-2.097e-06 -6.86094e-08 -2.48315e-10 -7.03751e-07 3.34423e-09 -3.04198e-07)
(-2.7635e-06 9.52366e-08 1.72164e-10 -2.84487e-06 1.11734e-09 -3.06625e-07)
(-7.72831e-07 4.29653e-08 5.84457e-10 -2.46823e-06 1.12113e-09 -3.11907e-07)
(-7.60625e-07 -4.3506e-08 -6.15912e-10 -2.43728e-06 1.15666e-09 -3.15042e-07)
(-2.61604e-06 -9.59193e-08 -1.96081e-10 -2.76226e-06 1.24049e-09 -3.16101e-07)
)
;

boundaryField
{
    interface
    {
        type            calculated;
        value           nonuniform List<symmTensor> 
192
(
(-4.61881e-06 2.28925e-12 1.91691e-11 1.21891e-06 1.63933e-07 -2.80883e-06)
(-4.32602e-06 1.63791e-12 3.05837e-11 -3.83011e-07 9.10305e-09 -2.8154e-06)
(-4.41382e-06 -4.33426e-13 3.41219e-11 -4.215e-07 -1.00315e-08 -2.86589e-06)
(-4.54714e-06 -3.18184e-12 3.47965e-11 -3.63091e-07 -1.16904e-09 -2.9374e-06)
(-4.71535e-06 -5.52183e-12 3.41934e-11 -3.55842e-07 1.45413e-08 -3.03762e-06)
(-4.94628e-06 -9.75827e-12 3.3096e-11 -4.73008e-07 4.17017e-08 -3.18381e-06)
(-5.245e-06 -1.29188e-11 3.03543e-11 -1.14518e-06 8.75587e-08 -3.40709e-06)
(-5.75883e-06 -2.84724e-11 2.81911e-11 -3.8244e-06 1.14692e-07 -3.82334e-06)
(-3.87977e-06 1.61788e-12 9.47119e-12 5.67096e-07 -3.77685e-08 -4.51346e-07)
(-3.6774e-06 1.07347e-12 1.62203e-11 -2.17942e-07 4.85199e-09 -6.98392e-07)
(-3.72987e-06 -8.07415e-13 1.79106e-11 -2.86487e-07 6.05868e-09 -7.30237e-07)
(-3.83527e-06 -3.63646e-12 1.78938e-11 -2.98396e-07 9.66187e-09 -7.33504e-07)
(-3.99086e-06 -6.13739e-12 1.71479e-11 -3.15596e-07 3.02656e-08 -7.53238e-07)
(-4.22777e-06 -1.08359e-11 1.61274e-11 -3.94561e-07 6.29962e-08 -8.08517e-07)
(-4.5707e-06 -1.43505e-11 1.43584e-11 -9.28495e-07 9.01268e-08 -9.34147e-07)
(-5.24712e-06 -3.0724e-11 1.29201e-11 -3.40759e-06 8.82651e-08 -1.14626e-06)
(-3.41121e-06 1.3786e-12 7.48009e-12 3.1101e-07 4.58959e-08 -3.829e-08)
(-3.31317e-06 8.02233e-13 1.26736e-11 -2.48695e-07 6.35529e-08 -1.67113e-07)
(-3.37046e-06 -1.06817e-12 1.39479e-11 -2.54126e-07 5.43417e-08 -2.28308e-07)
(-3.46938e-06 -4.07854e-12 1.39028e-11 -2.46945e-07 4.76635e-08 -2.50266e-07)
(-3.62227e-06 -6.84678e-12 1.32983e-11 -2.4933e-07 5.62788e-08 -2.74385e-07)
(-3.86529e-06 -1.20869e-11 1.24729e-11 -3.00514e-07 7.06091e-08 -3.24616e-07)
(-4.23069e-06 -1.61333e-11 1.11698e-11 -7.96774e-07 6.79549e-08 -4.06275e-07)
(-4.9521e-06 -3.36409e-11 1.00487e-11 -3.18442e-06 4.45399e-08 -4.73133e-07)
(-3.12678e-06 1.03421e-12 4.60138e-12 2.18828e-07 7.22296e-08 -1.68408e-09)
(-3.06201e-06 3.30263e-13 8.23466e-12 -2.89678e-07 8.6703e-08 -7.43993e-08)
(-3.12595e-06 -1.54755e-12 9.07932e-12 -2.63035e-07 8.01645e-08 -1.44249e-07)
(-3.22533e-06 -4.6209e-12 8.96709e-12 -2.23518e-07 7.00524e-08 -1.92745e-07)
(-3.37865e-06 -7.51552e-12 8.46935e-12 -2.02786e-07 6.56794e-08 -2.34964e-07)
(-3.62448e-06 -1.29986e-11 7.83549e-12 -2.43655e-07 6.08118e-08 -2.83921e-07)
(-3.99785e-06 -1.72861e-11 6.99107e-12 -7.36232e-07 4.23812e-08 -3.32564e-07)
(-4.72866e-06 -3.51015e-11 6.29214e-12 -3.0416e-06 2.12265e-08 -3.46331e-07)
(-2.95959e-06 8.71521e-13 3.37323e-12 1.82231e-07 6.78654e-08 -9.24085e-09)
(-2.90419e-06 4.28764e-14 6.03841e-12 -3.08414e-07 8.00152e-08 -6.48143e-08)
(-2.97184e-06 -1.89662e-12 6.66245e-12 -2.73614e-07 7.89616e-08 -1.30891e-07)
(-3.07327e-06 -5.05058e-12 6.57941e-12 -2.16986e-07 7.05984e-08 -1.90073e-07)
(-3.22814e-06 -8.07397e-12 6.21207e-12 -1.82154e-07 6.03499e-08 -2.41305e-07)
(-3.47543e-06 -1.37647e-11 5.73941e-12 -2.20171e-07 4.65562e-08 -2.86248e-07)
(-3.85041e-06 -1.82737e-11 5.14178e-12 -7.10337e-07 2.56305e-08 -3.18023e-07)
(-4.57805e-06 -3.63905e-11 4.6322e-12 -2.95023e-06 1.10857e-08 -3.22053e-07)
(-2.86141e-06 7.43978e-13 2.07e-12 1.66073e-07 5.28602e-08 -1.6525e-08)
(-2.80929e-06 -1.87169e-13 3.82465e-12 -3.13852e-07 6.08948e-08 -6.82007e-08)
(-2.87882e-06 -2.17948e-12 4.23793e-12 -2.78488e-07 6.20197e-08 -1.28948e-07)
(-2.98202e-06 -5.38214e-12 4.17343e-12 -2.16906e-07 5.64507e-08 -1.8829e-07)
(-3.13829e-06 -8.47932e-12 3.92132e-12 -1.77067e-07 4.64638e-08 -2.40419e-07)
(-3.38617e-06 -1.42784e-11 3.60307e-12 -2.14307e-07 3.2661e-08 -2.8185e-07)
(-3.76037e-06 -1.8905e-11 3.22923e-12 -6.99748e-07 1.58653e-08 -3.07973e-07)
(-4.4828e-06 -3.71782e-11 2.91878e-12 -2.89316e-06 6.33949e-09 -3.14229e-07)
(-2.80618e-06 6.82563e-13 1.21664e-12 1.58803e-07 3.31822e-08 -2.05142e-08)
(-2.75553e-06 -3.18846e-13 2.24466e-12 -3.14481e-07 3.74618e-08 -7.16757e-08)
(-2.826e-06 -2.35749e-12 2.48877e-12 -2.79927e-07 3.85342e-08 -1.28688e-07)
(-2.93033e-06 -5.59944e-12 2.45191e-12 -2.18252e-07 3.53995e-08 -1.85182e-07)
(-3.0875e-06 -8.75206e-12 2.30577e-12 -1.77771e-07 2.87374e-08 -2.35299e-07)
(-3.33548e-06 -1.46262e-11 2.11742e-12 -2.148e-07 1.94508e-08 -2.74513e-07)
(-3.70849e-06 -1.93361e-11 1.90417e-12 -6.95808e-07 9.05149e-09 -2.99622e-07)
(-4.4269e-06 -3.77243e-11 1.71799e-12 -2.86004e-06 3.45664e-09 -3.09374e-07)
(-2.78118e-06 6.43633e-13 3.61475e-13 1.55993e-07 1.12817e-08 -2.21871e-08)
(-2.73115e-06 -3.93185e-13 6.90742e-13 -3.14151e-07 1.26004e-08 -7.3377e-08)
(-2.80202e-06 -2.45141e-12 7.69811e-13 -2.80185e-07 1.29811e-08 -1.28565e-07)
(-2.90688e-06 -5.70712e-12 7.5651e-13 -2.19194e-07 1.19654e-08 -1.83013e-07)
(-3.06445e-06 -8.88277e-12 7.08851e-13 -1.79077e-07 9.67505e-09 -2.31504e-07)
(-3.31241e-06 -1.47854e-11 6.47364e-13 -2.16073e-07 6.47425e-09 -2.69672e-07)
(-3.68467e-06 -1.95337e-11 5.82922e-13 -6.94613e-07 2.98885e-09 -2.94879e-07)
(-4.401e-06 -3.79706e-11 5.23912e-13 -2.84487e-06 1.11734e-09 -3.06625e-07)
(-2.71362e-06 1.50129e-07 -2.74006e-11 1.21891e-06 -6.16313e-12 -4.79284e-06)
(-2.74882e-06 -6.90093e-09 -4.58305e-11 -3.83011e-07 -6.88021e-12 -4.48305e-06)
(-2.80183e-06 -2.49796e-08 -5.21714e-11 -4.215e-07 -5.3668e-12 -4.57207e-06)
(-2.85787e-06 -1.47397e-08 -5.39912e-11 -3.63091e-07 -3.76142e-12 -4.71314e-06)
(-2.9456e-06 -1.57588e-09 -5.43118e-11 -3.55842e-07 -3.12191e-12 -4.88739e-06)
(-3.09447e-06 2.17019e-08 -5.4598e-11 -4.73008e-07 -3.40243e-12 -5.1188e-06)
(-3.33239e-06 6.79875e-08 -5.50664e-11 -1.14518e-06 -4.20157e-12 -5.41651e-06)
(-3.74786e-06 9.557e-08 -5.9774e-11 -3.8244e-06 -5.60707e-12 -5.9348e-06)
(-4.93678e-07 -5.31072e-08 -1.6939e-11 7.64077e-07 -3.59678e-12 -4.32125e-06)
(-8.24876e-07 -3.06767e-08 -3.18451e-11 -1.59799e-07 -4.89895e-12 -4.04013e-06)
(-8.51314e-07 -2.35424e-08 -3.64976e-11 -2.90834e-07 -3.79077e-12 -4.07224e-06)
(-8.12795e-07 -1.65151e-08 -3.75793e-11 -3.45655e-07 -2.08874e-12 -4.1782e-06)
(-8.02076e-07 -8.05083e-09 -3.77719e-11 -3.90437e-07 -1.04702e-12 -4.33513e-06)
(-8.62389e-07 5.969e-09 -3.83314e-11 -4.85514e-07 -5.32882e-13 -4.56403e-06)
(-1.0372e-06 2.91439e-08 -3.99085e-11 -1.02256e-06 -6.37179e-13 -4.89427e-06)
(-1.29477e-06 4.45794e-08 -4.62684e-11 -3.53348e-06 -1.19601e-12 -5.57709e-06)
(-4.83488e-07 6.24833e-08 -1.74048e-11 7.49497e-07 -2.48254e-12 -4.26618e-06)
(-8.11544e-07 4.06824e-08 -3.2906e-11 -1.68559e-07 -3.62994e-12 -3.98508e-06)
(-8.38312e-07 3.1777e-08 -3.79815e-11 -2.98195e-07 -2.71941e-12 -4.01505e-06)
(-7.99963e-07 2.26409e-08 -3.92251e-11 -3.52312e-07 -9.70859e-13 -4.11961e-06)
(-7.89145e-07 1.23124e-08 -3.93563e-11 -3.96891e-07 3.17791e-13 -4.27561e-06)
(-8.49501e-07 -3.74314e-09 -3.9643e-11 -4.91822e-07 1.35908e-12 -4.50359e-06)
(-1.02495e-06 -2.99883e-08 -4.07389e-11 -1.02503e-06 1.95424e-12 -4.83308e-06)
(-1.28307e-06 -4.43874e-08 -4.6693e-11 -3.50335e-06 2.00524e-12 -5.5184e-06)
(-2.5805e-06 -1.41274e-07 -1.99565e-11 1.16403e-06 -1.95152e-12 -4.63862e-06)
(-2.61022e-06 1.1543e-08 -3.8374e-11 -4.04995e-07 -2.86246e-12 -4.33304e-06)
(-2.66098e-06 2.83297e-08 -4.47738e-11 -4.41112e-07 -1.95738e-12 -4.4162e-06)
(-2.71467e-06 1.73334e-08 -4.64465e-11 -3.81662e-07 -1.37896e-13 -4.55326e-06)
(-2.80019e-06 3.42316e-09 -4.65861e-11 -3.73813e-07 1.23004e-12 -4.72484e-06)
(-2.94771e-06 -2.08702e-08 -4.6886e-11 -4.9061e-07 2.5263e-12 -4.95382e-06)
(-3.18678e-06 -6.868e-08 -4.7471e-11 -1.15399e-06 3.51926e-12 -5.2496e-06)
(-3.60495e-06 -9.59345e-08 -5.35533e-11 -3.74442e-06 4.50433e-12 -5.77596e-06)
(-4.37296e-06 5.76642e-12 6.65587e-12 1.16403e-06 1.69502e-07 -2.72796e-06)
(-4.0755e-06 6.0911e-12 1.2523e-11 -4.04995e-07 1.37831e-08 -2.73719e-06)
(-4.15813e-06 3.12564e-12 1.42056e-11 -4.41112e-07 -6.789e-09 -2.78574e-06)
(-4.28642e-06 -6.39442e-13 1.47374e-11 -3.81662e-07 1.15222e-09 -2.85567e-06)
(-4.45038e-06 -2.58022e-12 1.49376e-11 -3.73813e-07 1.63442e-08 -2.95474e-06)
(-4.67852e-06 -5.36488e-12 1.61226e-11 -4.9061e-07 4.32121e-08 -3.09991e-06)
(-4.97827e-06 -5.1717e-12 1.68498e-11 -1.15399e-06 8.88011e-08 -3.32269e-06)
(-5.49639e-06 -1.97816e-11 2.02953e-11 -3.74442e-06 1.15594e-07 -3.74387e-06)
(-3.6296e-06 2.27175e-12 -1.23171e-12 5.15922e-07 -2.35683e-08 -4.49474e-07)
(-3.42796e-06 2.41914e-12 -1.86663e-14 -2.43333e-07 1.4491e-08 -6.98976e-07)
(-3.47567e-06 7.82426e-13 -1.92835e-13 -3.07079e-07 1.31631e-08 -7.33224e-07)
(-3.57523e-06 -1.54462e-12 -2.60746e-13 -3.16926e-07 1.51669e-08 -7.37821e-07)
(-3.72479e-06 -2.31914e-12 3.15149e-14 -3.33323e-07 3.46663e-08 -7.58258e-07)
(-3.95611e-06 -4.18067e-12 1.41766e-12 -4.11721e-07 6.65212e-08 -8.14118e-07)
(-4.29708e-06 -2.41773e-12 3.0595e-12 -9.36261e-07 9.26281e-08 -9.40632e-07)
(-4.97869e-06 -1.64326e-11 5.9622e-12 -3.32253e-06 8.93907e-08 -1.15402e-06)
(-3.16871e-06 1.22754e-12 3.20246e-14 2.64819e-07 5.64696e-08 -4.16697e-08)
(-3.06986e-06 1.03416e-12 1.85537e-12 -2.74e-07 7.25296e-08 -1.74199e-07)
(-3.122e-06 -4.29678e-14 2.39754e-12 -2.75462e-07 6.18402e-08 -2.38087e-07)
(-3.21463e-06 -1.70493e-12 2.67508e-12 -2.66125e-07 5.3952e-08 -2.61864e-07)
(-3.36047e-06 -1.82265e-12 3.04025e-12 -2.6747e-07 6.15291e-08 -2.87156e-07)
(-3.59605e-06 -3.20869e-12 4.07375e-12 -3.17801e-07 7.48524e-08 -3.38255e-07)