/*--------------------------------*- C++ -*----------------------------------*\
| =========                 |                                                 |
| \\      /  F ield         | OpenFOAM: The Open Source CFD Toolbox           |
|  \\    /   O peration     | Version:  v1912                                 |
|   \\  /    A nd           | Website:  www.openfoam.com                      |
|    \\/     M anipulation  |                                                 |
\*---------------------------------------------------------------------------*/
FoamFile
{
    version     2.0;
    format      ascii;
    class       pointVectorField;
    location    "0.55/solid";
    object      pointD;
}
// * * * * * * * * * * * * * * * * * * * * * * * * * * * * * * * * * * * * * //

dimensions      [0 1 0 0 0 0 0];


internalField   nonuniform List<vector> 
405
(
(3.44518e-08 3.35152e-08 3.55798e-08)
(6.20907e-09 2.18422e-08 4.00534e-08)
(1.15746e-10 1.78591e-08 3.7834e-08)
(-5.84543e-09 2.1576e-08 3.94466e-08)
(-3.27887e-08 3.25797e-08 3.50662e-08)
(5.76245e-08 4.13427e-08 6.23707e-08)
(1.69769e-08 3.68749e-08 8.8334e-08)
(6.28072e-10 3.06524e-08 8.38517e-08)
(-1.54182e-08 3.61429e-08 8.72928e-08)
(-5.42846e-08 3.96552e-08 6.18913e-08)
(6.47394e-08 2.49772e-08 7.66944e-08)
(2.23139e-08 2.39859e-08 1.01998e-07)
(1.48991e-09 2.07539e-08 9.72821e-08)
(-1.89993e-08 2.28631e-08 1.01237e-07)
(-5.96508e-08 2.27185e-08 7.67141e-08)
(6.61871e-08 1.25529e-08 8.62512e-08)
(2.30793e-08 1.31589e-08 1.11951e-07)
(2.46674e-09 1.14824e-08 1.06895e-07)
(-1.78199e-08 1.16681e-08 1.11375e-07)
(-5.91851e-08 9.72934e-09 8.66323e-08)
(6.74314e-08 3.562e-09 9.47884e-08)
(2.34482e-08 4.09836e-09 1.21199e-07)
(3.53759e-09 2.5434e-09 1.1589e-07)
(-1.60491e-08 2.2675e-09 1.20763e-07)
(-5.83036e-08 2.00144e-10 9.54394e-08)
(7.08703e-08 -4.37789e-09 1.0417e-07)
(2.51534e-08 -4.6446e-09 1.3167e-07)
(4.70567e-09 -6.69987e-09 1.26199e-07)
(-1.54182e-08 -6.7965e-09 1.31341e-07)
(-5.9416e-08 -8.25082e-09 1.0503e-07)
(7.82115e-08 -1.48328e-08 1.15665e-07)
(2.93072e-08 -1.57097e-08 1.44854e-07)
(5.96863e-09 -1.79318e-08 1.39441e-07)
(-1.70556e-08 -1.81735e-08 1.44611e-07)
(-6.42702e-08 -1.91946e-08 1.16692e-07)
(9.05854e-08 -4.37468e-08 1.2973e-07)
(3.60978e-08 -4.36483e-08 1.62233e-07)
(7.295e-09 -4.43317e-08 1.5762e-07)
(-2.12087e-08 -4.62723e-08 1.62092e-07)
(-7.40573e-08 -4.83684e-08 1.3091e-07)
(8.63337e-08 -9.19887e-08 1.25631e-07)
(4.02281e-08 -1.02547e-07 1.36308e-07)
(8.13763e-09 -1.00564e-07 1.3366e-07)
(-2.36567e-08 -1.04499e-07 1.36909e-07)
(-6.87029e-08 -9.57461e-08 1.27116e-07)
(3.62601e-08 1.89145e-08 5.8797e-09)
(0 0 0)
(0 0 0)
(0 0 0)
(-3.42791e-08 1.80197e-08 6.03952e-09)
(7.68244e-08 3.02754e-08 1.93212e-08)
(1.44935e-08 1.71224e-08 2.19304e-08)
(4.93666e-10 1.17423e-08 2.17148e-08)
(-1.32073e-08 1.62821e-08 2.22508e-08)
(-7.21269e-08 2.81732e-08 1.99425e-08)
(8.22613e-08 1.65776e-08 3.17806e-08)
(1.90091e-08 1.2131e-08 3.52382e-08)
(1.22253e-09 9.15328e-09 3.51497e-08)
(-1.62331e-08 1.08765e-08 3.58383e-08)
(-7.59987e-08 1.38482e-08 3.29438e-08)
(8.39576e-08 6.14647e-09 4.04422e-08)
(1.96069e-08 4.76563e-09 4.40548e-08)
(2.09225e-09 3.17867e-09 4.40242e-08)
(-1.50987e-08 3.16615e-09 4.48708e-08)
(-7.5905e-08 2.80049e-09 4.20275e-08)
(8.5936e-08 -1.7177e-09 4.77856e-08)
(1.99485e-08 -3.32725e-09 5.13898e-08)
(3.08054e-09 -4.82075e-09 5.13448e-08)
(-1.34634e-08 -5.24085e-09 5.23683e-08)
(-7.584e-08 -5.64946e-09 4.96916e-08)
(9.05392e-08 -8.74793e-09 5.53291e-08)
(2.16426e-08 -1.2167e-08 5.88971e-08)
(4.18367e-09 -1.41866e-08 5.88129e-08)
(-1.29482e-08 -1.4383e-08 6.00017e-08)
(-7.81724e-08 -1.32341e-08 5.74844e-08)
(9.96775e-08 -1.76452e-08 6.38569e-08)
(2.57918e-08 -2.31708e-08 6.73919e-08)
(5.39441e-09 -2.54267e-08 6.72978e-08)
(-1.46818e-08 -2.56813e-08 6.85959e-08)
(-8.48721e-08 -2.26498e-08 6.62082e-08)
(1.1532e-07 -4.32338e-08 7.25173e-08)
(3.25573e-08 -4.74844e-08 7.60857e-08)
(6.68236e-09 -4.81611e-08 7.60931e-08)
(-1.88857e-08 -5.01266e-08 7.7355e-08)
(-9.79944e-08 -4.85006e-08 7.50036e-08)
(9.11326e-08 -1.00621e-07 7.80234e-08)
(3.68065e-08 -1.33664e-07 7.91489e-08)
(7.99795e-09 -1.29733e-07 7.91835e-08)
(-2.05055e-08 -1.34888e-07 8.0429e-08)
(-7.35317e-08 -1.04216e-07 8.0253e-08)
(2.97972e-08 1.12901e-08 2.97561e-10)
(0 0 0)
(0 0 0)
(0 0 0)
(-2.78907e-08 1.0525e-08 4.79154e-10)
(6.29512e-08 1.67319e-08 5.10808e-09)
(1.01427e-08 6.6173e-09 8.70238e-09)
(3.65375e-10 2.09248e-09 9.642e-09)
(-9.11032e-09 5.84297e-09 9.04237e-09)
(-5.85379e-08 1.4858e-08 5.7296e-09)
(6.70564e-08 6.35741e-09 1.41397e-08)
(1.33597e-08 2.85953e-09 1.88246e-08)
(9.82092e-10 2.83627e-10 2.0183e-08)
(-1.10638e-08 1.64208e-09 1.9405e-08)
(-6.13182e-08 3.79944e-09 1.52211e-08)
(6.81932e-08 -1.55284e-09 2.23932e-08)
(1.36805e-08 -2.69036e-09 2.73135e-08)
(1.75713e-09 -4.15488e-09 2.88327e-08)
(-9.84195e-09 -4.26626e-09 2.80782e-08)
(-6.08508e-08 -4.76821e-09 2.38369e-08)
(6.9886e-08 -7.902e-09 2.94674e-08)
(1.39233e-08 -9.41987e-09 3.44395e-08)
(2.66772e-09 -1.08792e-08 3.60185e-08)
(-8.26093e-09 -1.13135e-08 3.53496e-08)
(-6.06383e-08 -1.17287e-08 3.11999e-08)
(7.43752e-08 -1.357e-08 3.60864e-08)
(1.55363e-08 -1.69552e-08 4.10745e-08)
(3.70801e-09 -1.89665e-08 4.26769e-08)
(-7.78616e-09 -1.91512e-08 4.20999e-08)
(-6.29512e-08 -1.79681e-08 3.80482e-08)
(8.37528e-08 -2.02457e-08 4.23631e-08)
(1.9661e-08 -2.5809e-08 4.73346e-08)
(4.86868e-09 -2.80609e-08 4.89503e-08)
(-9.59116e-09 -2.82955e-08 4.84469e-08)
(-6.9949e-08 -2.51696e-08 4.44997e-08)
(1.00411e-07 -4.14605e-08 4.67938e-08)
(2.64958e-08 -4.56937e-08 5.17262e-08)
(6.11828e-09 -4.62884e-08 5.3358e-08)
(-1.39387e-08 -4.82999e-08 5.28852e-08)
(-8.41343e-08 -4.66388e-08 4.90369e-08)
(7.94883e-08 -9.34248e-08 4.90529e-08)
(3.07369e-08 -1.2319e-07 5.12047e-08)
(7.40634e-09 -1.18485e-07 5.28211e-08)
(-1.56073e-08 -1.24339e-07 5.23488e-08)
(-6.30051e-08 -9.69138e-08 5.10448e-08)
(2.59019e-08 8.52554e-09 3.24433e-10)
(0 0 0)
(0 0 0)
(0 0 0)
(-2.41026e-08 7.8613e-09 4.58642e-10)
(5.46417e-08 1.1098e-08 3.83457e-09)
(7.52886e-09 2.83019e-09 6.06093e-09)
(2.69006e-10 -1.11525e-09 6.90451e-09)
(-6.69984e-09 2.12589e-09 6.31339e-09)
(-5.05325e-08 9.43673e-09 4.30214e-09)
(5.8124e-08 8.03013e-10 1.08388e-08)
(9.9291e-09 -2.09586e-09 1.37714e-08)
(7.93044e-10 -4.36032e-09 1.49835e-08)
(-8.01999e-09 -3.23114e-09 1.42105e-08)
(-5.28626e-08 -1.53915e-09 1.16637e-08)
(5.91491e-08 -6.53788e-09 1.81478e-08)
(1.0117e-08 -7.55553e-09 2.12072e-08)
(1.48636e-09 -8.91201e-09 2.25566e-08)
(-6.82622e-09 -9.05428e-09 2.17927e-08)
(-5.24374e-08 -9.55844e-09 1.92627e-08)
(6.08321e-08 -1.19147e-08 2.47022e-08)
(1.035e-08 -1.34249e-08 2.7758e-08)
(2.3279e-09 -1.48534e-08 2.91615e-08)
(-5.37153e-09 -1.52496e-08 2.84636e-08)
(-5.23413e-08 -1.55728e-08 2.60586e-08)
(6.5359e-08 -1.61664e-08 3.0434e-08)
(1.19552e-08 -1.95705e-08 3.34711e-08)
(3.31141e-09 -2.15724e-08 3.49008e-08)
(-5.00015e-09 -2.17044e-08 3.42747e-08)
(-5.4786e-08 -2.04196e-08 3.19885e-08)
(7.49002e-08 -2.09553e-08 3.50684e-08)
(1.60844e-08 -2.65487e-08 3.80871e-08)
(4.42618e-09 -2.88019e-08 3.95311e-08)
(-6.89818e-09 -2.89766e-08 3.89637e-08)
(-6.20088e-08 -2.57513e-08 3.67737e-08)
(9.18416e-08 -3.97685e-08 3.75867e-08)
(2.29139e-08 -4.4061e-08 4.06224e-08)
(5.63825e-09 -4.46876e-08 4.20795e-08)
(-1.13122e-08 -4.66087e-08 4.15344e-08)
(-7.65137e-08 -4.4826e-08 3.93796e-08)
(7.27214e-08 -8.878e-08 3.85145e-08)
(2.71789e-08 -1.16914e-07 4.01718e-08)
(6.89439e-09 -1.12174e-07 4.16776e-08)
(-1.3067e-08 -1.18013e-07 4.10614e-08)
(-5.72248e-08 -9.21714e-08 4.00886e-08)
(2.38233e-08 7.51253e-09 6.22283e-10)
(0 0 0)
(0 0 0)
(0 0 0)
(-2.21096e-08 6.92076e-09 7.16759e-10)
(5.01939e-08 8.93532e-09 3.72032e-09)
(6.41453e-09 1.52938e-09 4.78382e-09)
(2.06095e-10 -2.09613e-09 5.2827e-09)
(-5.72784e-09 8.81546e-10 4.96461e-09)
(-4.63251e-08 7.43902e-09 4.055e-09)
(5.33883e-08 -1.66081e-09 9.18054e-09)
(8.46475e-09 -4.28905e-09 1.0581e-08)
(6.60835e-10 -6.37293e-09 1.13048e-08)
(-6.83603e-09 -5.3452e-09 1.09003e-08)
(-4.85006e-08 -3.81397e-09 9.78e-09)
(5.44766e-08 -9.1085e-09 1.50596e-08)
(8.63598e-09 -1.01059e-08 1.64937e-08)
(1.28842e-09 -1.13936e-08 1.73021e-08)
(-5.75435e-09 -1.15215e-08 1.69244e-08)
(-4.82606e-08 -1.19419e-08 1.58808e-08)
(5.62675e-08 -1.41002e-08 2.04992e-08)
(8.9141e-09 -1.56449e-08 2.18957e-08)
(2.07214e-09 -1.70493e-08 2.27367e-08)
(-4.45849e-09 -1.73911e-08 2.24205e-08)
(-4.83787e-08 -1.7587e-08 2.15114e-08)
(6.08793e-08 -1.75311e-08 2.51008e-08)
(1.05468e-08 -2.09609e-08 2.6465e-08)
(3.00682e-09 -2.29502e-08 2.7323e-08)
(-4.2107e-09 -2.30233e-08 2.70682e-08)
(-5.09933e-08 -2.16331e-08 2.6274e-08)
(7.04822e-08 -2.13486e-08 2.85027e-08)
(1.46705e-08 -2.69468e-08 2.98636e-08)
(4.08108e-09 -2.92008e-08 3.07347e-08)
(-6.18219e-09 -2.93101e-08 3.05255e-08)
(-5.83388e-08 -2.60124e-08 2.98002e-08)
(8.74068e-08 -3.90861e-08 3.02147e-08)
(2.1446e-08 -4.34358e-08 3.16265e-08)
(5.25897e-09 -4.41219e-08 3.25164e-08)
(-1.06076e-08 -4.59252e-08 3.2316e-08)
(-7.28652e-08 -4.40262e-08 3.15845e-08)
(6.94445e-08 -8.63267e-08 3.0739e-08)
(2.57265e-08 -1.13444e-07 3.16766e-08)
(6.48551e-09 -1.0885e-07 3.26241e-08)
(-1.24357e-08 -1.14496e-07 3.23451e-08)
(-5.47603e-08 -8.96269e-08 3.19353e-08)
(2.27273e-08 7.08501e-09 6.45196e-10)
(0 0 0)
(0 0 0)
(0 0 0)
(-2.10709e-08 6.54326e-09 7.08917e-10)
(4.78884e-08 8.07008e-09 3.16489e-09)
(6.01081e-09 1.02387e-09 3.62611e-09)
(1.66362e-10 -2.4392e-09 3.8785e-09)
(-5.41729e-09 4.18243e-10 3.7507e-09)
(-4.41826e-08 6.69225e-09 3.39294e-09)
(5.10031e-08 -2.63938e-09 7.21116e-09)
(7.95253e-09 -5.17332e-09 7.80499e-09)
(5.72796e-10 -7.16561e-09 8.17415e-09)
(-6.51399e-09 -6.1669e-09 8.02707e-09)
(-4.63735e-08 -4.64805e-09 7.62433e-09)
(5.21897e-08 -1.02228e-08 1.15338e-08)
(8.1517e-09 -1.12404e-08 1.21202e-08)
(1.15135e-09 -1.24915e-08 1.25343e-08)
(-5.5563e-09 -1.25867e-08 1.24223e-08)
(-4.63229e-08 -1.29051e-08 1.21064e-08)
(5.40945e-08 -1.51354e-08 1.55854e-08)
(8.47874e-09 -1.6717e-08 1.61336e-08)
(1.88992e-09 -1.8105e-08 1.65654e-08)
(-4.39815e-09 -1.83951e-08 1.65046e-08)
(-4.66381e-08 -1.84781e-08 1.6299e-08)
(5.87767e-08 -1.82703e-08 1.89761e-08)
(1.01355e-08 -2.17132e-08 1.95001e-08)
(2.7852e-09 -2.36886e-08 1.99433e-08)
(-4.25205e-09 -2.37126e-08 1.99297e-08)
(-4.93932e-08 -2.22424e-08 1.98113e-08)
(6.83792e-08 -2.17562e-08 2.14096e-08)
(1.42399e-08 -2.73381e-08 2.19429e-08)
(3.82594e-09 -2.95857e-08 2.23989e-08)
(-6.26984e-09 -2.96452e-08 2.24167e-08)
(-5.67926e-08 -2.63061e-08 2.23401e-08)
(8.51944e-08 -3.90418e-08 2.26728e-08)
(2.09514e-08 -4.34131e-08 2.32595e-08)
(4.97523e-09 -4.41366e-08 2.3734e-08)
(-1.06865e-08 -4.58536e-08 2.37541e-08)
(-7.12474e-08 -4.38832e-08 2.36597e-08)
(6.79302e-08 -8.51886e-08 2.30798e-08)
(2.52265e-08 -1.11655e-07 2.35603e-08)
(6.17721e-09 -1.07189e-07 2.40727e-08)
(-1.25576e-08 -1.12666e-07 2.40382e-08)
(-5.38643e-08 -8.84122e-08 2.39402e-08)
(2.21342e-08 6.88367e-09 4.92401e-10)
(0 0 0)
(0 0 0)
(0 0 0)
(-2.05127e-08 6.37398e-09 5.31683e-10)
(4.66669e-08 7.70114e-09 2.24712e-09)
(5.86358e-09 8.05972e-10 2.44551e-09)
(1.42256e-10 -2.57621e-09 2.56444e-09)
(-5.32735e-09 2.29132e-10 2.52372e-09)
(-4.30616e-08 6.40147e-09 2.38851e-09)
(4.97784e-08 -2.99972e-09 4.92165e-09)
(7.78155e-09 -5.50796e-09 5.16723e-09)
(5.17425e-10 -7.4561e-09 5.34194e-09)
(-6.4633e-09 -6.45775e-09 5.30737e-09)
(-4.53116e-08 -4.90907e-09 5.17973e-09)
(5.10431e-08 -1.06397e-08 7.73476e-09)
(8.01073e-09 -1.16816e-08 7.96568e-09)
(1.06259e-09 -1.29142e-08 8.16256e-09)
(-5.60113e-09 -1.29779e-08 8.15746e-09)
(-4.54015e-08 -1.32145e-08 8.09549e-09)
(5.30267e-08 -1.55755e-08 1.03779e-08)
(8.37047e-09 -1.71816e-08 1.05836e-08)
(1.76915e-09 -1.85586e-08 1.07901e-08)
(-4.53865e-09 -1.88095e-08 1.08205e-08)
(-4.58546e-08 -1.88128e-08 1.08313e-08)
(5.77488e-08 -1.86762e-08 1.25887e-08)
(1.00385e-08 -2.21206e-08 1.2782e-08)
(2.63563e-09 -2.40834e-08 1.29966e-08)
(-4.46059e-09 -2.40731e-08 1.30578e-08)
(-4.87015e-08 -2.25513e-08 1.31232e-08)
(6.73278e-08 -2.21202e-08 1.41761e-08)
(1.41208e-08 -2.7679e-08 1.43818e-08)
(3.65136e-09 -2.99156e-08 1.4607e-08)
(-6.50528e-09 -2.99441e-08 1.46872e-08)
(-5.61193e-08 -2.65848e-08 1.47752e-08)
(8.40371e-08 -3.92281e-08 1.50451e-08)
(2.07802e-08 -4.35947e-08 1.52904e-08)
(4.77921e-09 -4.43309e-08 1.55294e-08)
(-1.09116e-08 -4.59988e-08 1.56097e-08)
(-7.04992e-08 -4.39957e-08 1.56829e-08)
(6.71757e-08 -8.47169e-08 1.53595e-08)
(2.50379e-08 -1.10766e-07 1.56046e-08)
(5.96291e-09 -1.06371e-07 1.5862e-08)
(-1.28016e-08 -1.11746e-07 1.59125e-08)
(-5.35391e-08 -8.78833e-08 1.59154e-08)
(2.18318e-08 6.78941e-09 2.60509e-10)
(0 0 0)
(0 0 0)
(0 0 0)
(-2.0229e-08 6.29747e-09 2.79238e-10)
(4.60506e-08 7.54413e-09 1.1551e-09)
(5.80319e-09 7.14788e-10 1.23238e-09)
(1.29359e-10 -2.62911e-09 1.28006e-09)
(-5.29781e-09 1.54565e-10 1.2701e-09)
(-4.24997e-08 6.28858e-09 1.22269e-09)
(4.91702e-08 -3.12131e-09 2.48411e-09)
(7.71697e-09 -5.62346e-09 2.57685e-09)
(4.87086e-10 -7.55141e-09 2.64703e-09)
(-6.46475e-09 -6.54759e-09 2.64461e-09)
(-4.47925e-08 -4.97311e-09 2.60799e-09)
(5.04795e-08 -1.07737e-08 3.86612e-09)
(7.9642e-09 -1.18308e-08 3.95016e-09)
(1.01298e-09 -1.30546e-08 4.02956e-09)
(-5.65847e-09 -1.30974e-08 4.04321e-09)
(-4.4963e-08 -1.32849e-08 4.04017e-09)
(5.25049e-08 -1.57437e-08 5.16346e-09)
(8.34029e-09 -1.73619e-08 5.23589e-09)
(1.70054e-09 -1.87322e-08 5.31981e-09)
(-4.64974e-09 -1.89595e-08 5.35125e-09)
(-4.54933e-08 -1.89174e-08 5.38337e-09)
(5.72443e-08 -1.88816e-08 6.25076e-09)
(1.00114e-08 -2.23234e-08 6.31882e-09)
(2.54953e-09 -2.42772e-08 6.40714e-09)
(-4.60918e-09 -2.42473e-08 6.45353e-09)
(-4.83891e-08 -2.26977e-08 6.51127e-09)
(6.68016e-08 -2.23619e-08 7.03753e-09)
(1.40776e-08 -2.79026e-08 7.1135e-09)
(3.54986e-09 -3.01296e-08 7.20781e-09)
(-6.6681e-09 -3.01419e-08 7.26305e-09)
(-5.58115e-08 -2.67741e-08 7.33064e-09)
(8.34419e-08 -3.94084e-08 7.48482e-09)
(2.07047e-08 -4.37636e-08 7.58117e-09)
(4.66445e-09 -4.45004e-08 7.68265e-09)
(-1.1068e-08 -4.61454e-08 7.73776e-09)
(-7.01426e-08 -4.41307e-08 7.79762e-09)
(6.67896e-08 -8.45473e-08 7.66024e-09)
(2.49463e-08 -1.10359e-07 7.76875e-09)
(5.83693e-09 -1.05993e-07 7.87688e-09)
(-1.29643e-08 -1.1132e-07 7.91956e-09)
(-5.34047e-08 -8.76786e-08 7.93289e-09)
(1.73958e-08 7.11375e-09 0)
(2.06379e-09 1.87601e-09 0)
(-3.48755e-12 -1.90738e-10 0)
(-1.96433e-09 1.69203e-09 0)
(-1.6194e-08 6.58883e-09 0)
(2.86339e-08 5.69985e-09 0)
(5.78531e-09 6.89961e-10 0)
(1.2531e-10 -2.64249e-09 0)
(-5.28965e-09 1.35159e-10 0)
(-2.64967e-08 4.64698e-09 0)
(3.16914e-08 -3.55176e-09 0)
(7.69823e-09 -5.65049e-09 0)
(4.77443e-10 -7.57251e-09 0)
(-6.46702e-09 -6.5662e-09 0)
(-2.87629e-08 -5.1585e-09 0)
(3.24655e-08 -1.08806e-08 0)
(7.95108e-09 -1.18647e-08 0)
(9.97056e-10 -1.30859e-08 0)
(-5.6787e-09 -1.31215e-08 0)
(-2.8452e-08 -1.30676e-08 0)
(3.36836e-08 -1.61124e-08 0)
(8.33188e-09 -1.74081e-08 0)
(1.67832e-09 -1.87762e-08 0)
(-4.68706e-09 -1.89956e-08 0)
(-2.82372e-08 -1.88779e-08 0)
(3.71601e-08 -1.99299e-08 0)
(1.00033e-08 -2.23849e-08 0)
(2.52145e-09 -2.43355e-08 0)
(-4.65837e-09 -2.42992e-08 0)
(-2.99403e-08 -2.32613e-08 0)
(4.4771e-08 -2.43812e-08 0)
(1.40638e-08 -2.79793e-08 0)
(3.51658e-09 -3.02027e-08 0)
(-6.72179e-09 -3.021e-08 0)
(-3.54862e-08 -2.8248e-08 0)
(5.7986e-08 -4.15802e-08 0)
(2.06801e-08 -4.38278e-08 0)
(4.6267e-09 -4.45637e-08 0)
(-1.11196e-08 -4.62021e-08 0)
(-4.64417e-08 -4.57174e-08 0)
(5.73105e-08 -7.55758e-08 0)
(2.47197e-08 -8.33464e-08 0)
(5.49936e-09 -8.08268e-08 0)
(-1.34148e-08 -8.50061e-08 0)
(-4.47702e-08 -7.88443e-08 0)
)
;

boundaryField
{
    interface
    {
        type            calculated;
    }
    symmetry
    {
        type            symmetry;
    }
    bottom
    {
        type            calculated;
    }
}


// ************************************************************************* //
