/*--------------------------------*- C++ -*----------------------------------*\
| =========                 |                                                 |
| \\      /  F ield         | OpenFOAM: The Open Source CFD Toolbox           |
|  \\    /   O peration     | Version:  v1912                                 |
|   \\  /    A nd           | Website:  www.openfoam.com                      |
|    \\/     M anipulation  |                                                 |
\*---------------------------------------------------------------------------*/
FoamFile
{
    version     2.0;
    format      ascii;
    class       volScalarField;
    location    "0.55/solid";
    object      sigmaEq;
}
// * * * * * * * * * * * * * * * * * * * * * * * * * * * * * * * * * * * * * //

dimensions      [1 -1 -2 0 0 0 0];


internalField   nonuniform List<scalar> 
256
(
615517
441967
436379
590896
369952
320779
316053
350265
372138
307209
302541
352491
390945
310358
305724
371186
406579
319514
314879
386682
411447
328538
323881
391428
344734
307718
303628
326234
48601
346231
343425
52097
379684
86987.2
84610.5
353983
286731
85508.5
83297.1
263429
282352
65507.7
63749
259139
286841
46047.6
44799
263331
296083
38040.8
37254.3
272132
308408
40367.6
39652.4
284030
294010
26731
27770.2
270196
344708
308109
304048
326258
323666
49176.6
48210.7
299128
276134
50938.2
48882.9
253238
274920
37380.7
35325
251625
279214
22519.6
20840.9
255393
289182
18374.9
17412.6
264744
305293
23235.6
22017.6
280251
308065
39108.2
38594.5
283664
411691
329376
324786
391875
291354
44049.1
43553.5
268135
256108
43053.1
41746.5
234455
256336
31932.6
30644.6
233991
260888
21564.1
20972
237811
271308
18525
18560.7
247465
288485
20004.3
19293.2
263885
295155
34158.2
33820.2
271108
408595
321416
316896
389097
272740
38142.9
37559.7
250345
240941
38207.2
37120
220058
242374
29419.5
28395
220700
247687
20713.1
20282.3
225160
258876
17706.6
17670.2
235491
276766
18214.5
17240.3
252541
284893
33795.9
33416.6
261191
398424
313236
308782
379256
262156
33499.8
32719.8
240250
231483
34307
33150.7
211010
233731
26536.7
25405.4
212430
239798
17692.6
16983.8
217588
251679
14202.3
13704.2
228565
270092
15984.2
14395.5
246104
279075
35912
35427.6
255621
391171
307704
303288
372226
256330
30254.2
29286.6
234701
226099
31336.6
30040.8
205837
228809
23716.8
22368.4
207704
235393
14155.3
12999.8
213355
247730
10211.5
9011.39
224768
266478
14402.4
12251.5
242629
276010
37851.9
37311.5
252717
387045
304365
299971
368243
253719
28515.9
27431.2
232215
223657
29670.4
28275.2
203487
226574
21951.7
20435.8
205554
233408
11694.4
10098.3
211448
245962
7321.04
5135.25
223069
264868
13632.6
11164
241085
274675
38849.4
38290.5
251462
385230
302801
298418
366497
)
;

boundaryField
{
    interface
    {
        type            calculated;
        value           nonuniform List<scalar> 
192
(
797473
530115
536373
562377
585963
600545
547709
299250
620883
499388
499134
513951
535009
560853
560420
547844
547897
478157
481652
495667
517215
546906
561045
601268
498984
444600
450371
464578
486453
517311
535666
589033
469671
419888
427033
441913
464409
495960
515966
572252
452594
404463
412367
427884
450949
482945
503731
560590
443091
395674
403971
419916
443358
475606
496784
553793
438820
391697
400163
416313
439934
472293
493639
550720
814544
548426
555027
581674
605814
620709
569434
331700
705932
553021
543829
557193
577824
600578
594575
570874
696648
544586
535204
548435
568967
591605
585914
564638
784826
524674
530878
557120
580992
595692
545988
324814
759043
494992
500854
526402
549536
563698
511601
271330
578039
458943
458240
472260
492429
517428
517302
511656
506531
438438
441140
454172
474623
503176
517380
564305
459335
406418
411172
424229
444849
474360
492529
552451
431179
382758
388792
402413
423546
453622
473302
536023
414818
367958
374706
388904
410541
440987
461373
524589
405729
359521
366639
381233
403210
433870
454612
517935
401647
355704
362981
377767
399908
430659
451554
514930
332172
569771
621562
609097
592062
580096
573074
569890
571205
595317
602178
581372
563805
551987
544824
541457
564922
586616
593159
572460
554965
543185
536044
532687
325043
546214
596535
584371
567631
555864
548966
545842
)
;
    }
    symmetry
    {
        type            symmetry;
    }
    bottom
    {
        type            calculated;
        value           nonuniform List<scalar> 
32
(
864254
478453
385394
345802
324999
313288
306834
303941
556464
109788
51776.2
47457.5
42889.8
38944
36145
34664.8
550120
106530
49330.9
45361.2
40584.9
36373.4
33342.3
31720
835024
450346
358630
320548
300776
289711
283633
280912
)
;
    }
}


// ************************************************************************* //
