/*--------------------------------*- C++ -*----------------------------------*\
| =========                 |                                                 |
| \\      /  F ield         | OpenFOAM: The Open Source CFD Toolbox           |
|  \\    /   O peration     | Version:  v1912                                 |
|   \\  /    A nd           | Website:  www.openfoam.com                      |
|    \\/     M anipulation  |                                                 |
\*---------------------------------------------------------------------------*/
FoamFile
{
    version     2.0;
    format      ascii;
    class       volScalarField;
    location    "0.55/solid";
    object      sigmaHyd;
}
// * * * * * * * * * * * * * * * * * * * * * * * * * * * * * * * * * * * * * //

dimensions      [1 -1 -2 0 0 0 0];


internalField   nonuniform List<scalar> 
256
(
-717257
-372626
-368463
-690740
-991205
-579809
-574149
-958735
-1.01487e+06
-608051
-602092
-981305
-1.02639e+06
-618723
-612584
-992001
-1.05651e+06
-638849
-632592
-1.02146e+06
-1.12522e+06
-688246
-681905
-1.0897e+06
-1.31411e+06
-846868
-839960
-1.27724e+06
-1.89927e+06
-1.39331e+06
-1.38133e+06
-1.84887e+06
-353935
-88389.2
-88700.7
-339516
-531247
-201034
-200357
-512529
-552548
-229751
-228885
-533121
-561626
-240325
-239372
-541613
-580920
-251257
-250257
-560343
-628295
-278548
-277517
-607225
-781802
-393449
-391875
-759226
-1.31459e+06
-846944
-839927
-1.27729e+06
-278163
-48001.1
-48558.5
-264467
-402162
-112957
-112792
-385042
-417839
-135095
-134782
-400152
-426369
-144795
-144405
-408113
-443700
-154070
-153630
-424818
-486250
-176489
-175998
-466697
-628417
-278148
-277066
-607022
-1.12577e+06
-687868
-681318
-1.08937e+06
-258835
-46540.1
-47005.2
-245079
-365520
-98145.5
-97955.7
-348712
-377943
-115947
-115636
-360674
-385905
-124417
-124039
-368092
-402704
-133052
-132624
-384236
-443809
-154083
-153593
-424564
-580705
-250378
-249270
-559409
-1.05606e+06
-637140
-630549
-1.01953e+06
-250102
-47483.7
-47874.6
-236278
-350856
-94829.8
-94600
-334204
-361826
-110377
-110046
-344785
-369262
-117817
-117429
-351705
-385640
-125865
-125432
-367419
-425915
-146144
-145645
-406864
-559742
-239763
-238632
-538526
-1.022e+06
-614425
-607795
-985378
-244813
-48051.9
-48391.1
-230914
-343090
-93673.2
-93415.1
-326502
-353446
-108124
-107778
-336515
-360511
-114904
-114510
-343084
-376539
-122514
-122078
-358449
-416258
-142340
-141838
-397314
-548243
-234528
-233387
-527069
-1.00245e+06
-602109
-595457
-965758
-241581
-48317.2
-48622.7
-227620
-338666
-93176.1
-92898.7
-322096
-348757
-107113
-106756
-331868
-355596
-113529
-113130
-338226
-371384
-120871
-120433
-353354
-410763
-140445
-139941
-391867
-541693
-231862
-230717
-520534
-991125
-595276
-588612
-954386
-240023
-48410.9
-48699.7
-226028
-336593
-92972.2
-92685
-320025
-346578
-106704
-106341
-329703
-353311
-112962
-112560
-335962
-368981
-120180
-119741
-350973
-408200
-139641
-139137
-389322
-538647
-230714
-229567
-517491
-985832
-592162
-585492
-949068
)
;

boundaryField
{
    interface
    {
        type            zeroGradient;
    }
    symmetry
    {
        type            symmetry;
    }
    bottom
    {
        type            zeroGradient;
    }
}


// ************************************************************************* //
