/*--------------------------------*- C++ -*----------------------------------*\
| =========                 |                                                 |
| \\      /  F ield         | OpenFOAM: The Open Source CFD Toolbox           |
|  \\    /   O peration     | Version:  v1912                                 |
|   \\  /    A nd           | Website:  www.openfoam.com                      |
|    \\/     M anipulation  |                                                 |
\*---------------------------------------------------------------------------*/
FoamFile
{
    version     2.0;
    format      ascii;
    class       volScalarField;
    location    "0.55/solid";
    object      T;
}
// * * * * * * * * * * * * * * * * * * * * * * * * * * * * * * * * * * * * * //

dimensions      [0 0 0 1 0 0 0];


internalField   nonuniform List<scalar> 
256
(
291.574
292.209
292.215
291.606
291.252
292.014
292.022
291.289
291.206
291.988
291.995
291.245
291.172
291.969
291.977
291.211
291.118
291.939
291.947
291.159
291.021
291.88
291.888
291.062
290.765
291.677
291.686
290.806
289.704
290.642
290.657
289.764
292.28
292.84
292.84
292.297
292.102
292.788
292.789
292.12
292.077
292.781
292.782
292.096
292.058
292.778
292.779
292.078
292.028
292.772
292.773
292.049
291.969
292.753
292.754
291.99
291.77
292.621
292.623
291.793
290.764
291.677
291.685
290.806
292.418
292.921
292.921
292.433
292.275
292.894
292.894
292.292
292.254
292.891
292.891
292.271
292.237
292.889
292.889
292.255
292.21
292.885
292.886
292.229
292.156
292.871
292.872
292.175
291.969
292.753
292.754
291.99
291.02
291.879
291.887
291.062
292.461
292.93
292.931
292.476
292.327
292.907
292.907
292.343
292.307
292.904
292.904
292.323
292.291
292.902
292.902
292.308
292.264
292.899
292.899
292.282
292.21
292.885
292.886
292.229
292.028
292.772
292.773
292.049
291.117
291.939
291.947
291.158
292.483
292.933
292.933
292.497
292.353
292.91
292.91
292.368
292.333
292.907
292.907
292.349
292.317
292.906
292.906
292.333
292.29
292.902
292.902
292.308
292.236
292.889
292.889
292.255
292.057
292.778
292.779
292.077
291.169
291.968
291.976
291.21
292.495
292.934
292.934
292.509
292.368
292.912
292.912
292.382
292.348
292.909
292.909
292.363
292.332
292.907
292.907
292.348
292.305
292.904
292.904
292.322
292.251
292.89
292.891
292.269
292.073
292.781
292.782
292.094
291.2
291.984
291.993
291.241
292.502
292.935
292.935
292.515
292.376
292.913
292.913
292.39
292.356
292.91
292.91
292.371
292.34
292.908
292.908
292.356
292.313
292.905
292.905
292.33
292.26
292.891
292.892
292.278
292.083
292.782
292.783
292.103
291.218
291.994
292.002
291.259
292.505
292.935
292.935
292.519
292.379
292.913
292.913
292.394
292.36
292.91
292.91
292.375
292.343
292.908
292.908
292.359
292.317
292.905
292.905
292.334
292.263
292.892
292.892
292.281
292.087
292.783
292.784
292.108
291.226
291.998
292.006
291.267
)
;

boundaryField
{
    interface
    {
        type            fixedValue;
        value           nonuniform List<scalar> 
192
(
290.146
289.929
289.86
289.785
289.672
289.487
289.117
288.126
290.938
290.806
290.754
290.693
290.6
290.441
290.103
289.116
291.227
291.119
291.072
291.015
290.926
290.771
290.44
289.483
291.367
291.266
291.221
291.165
291.078
290.924
290.597
289.666
291.447
291.349
291.305
291.25
291.162
291.009
290.685
289.774
291.494
291.398
291.354
291.299
291.212
291.06
290.739
289.841
291.522
291.426
291.383
291.327
291.24
291.089
290.77
289.88
291.534
291.439
291.396
291.34
291.253
291.102
290.784
289.898
290.076
289.861
289.791
289.715
289.602
289.416
289.044
288.05
290.737
290.596
290.542
290.48
290.388
290.228
289.884
288.877
290.766
290.627
290.574
290.514
290.422
290.263
289.92
288.919
290.178
289.97
289.905
289.832
289.721
289.536
289.167
288.19
290.287
290.079
290.014
289.943
289.833
289.649
289.282
288.308
291.063
290.936
290.887
290.83
290.741
290.585
290.25
289.281
291.348
291.244
291.201
291.147
291.062
290.912
290.585
289.649
291.485
291.388
291.347
291.294
291.211
291.062
290.74
289.832
291.563
291.469
291.428
291.376
291.293
291.145
290.828
289.94
291.609
291.517
291.476
291.424
291.342
291.195
290.881
290.006
291.635
291.544
291.503
291.452
291.369
291.223
290.911
290.045
291.647
291.556
291.516
291.464
291.382
291.236
290.925
290.063
288.049
289.041
289.411
289.595
289.704
289.771
289.81
289.828
288.876
289.882
290.225
290.383
290.472
290.526
290.558
290.572
288.918
289.919
290.26
290.418
290.507
290.561
290.593
290.607
288.189
289.166
289.534
289.718
289.827
289.893
289.933
289.951
)
;
    }
    symmetry
    {
        type            symmetry;
    }
    bottom
    {
        type            fixedValue;
        value           uniform 293;
    }
}


// ************************************************************************* //
