/*--------------------------------*- C++ -*----------------------------------*\
| =========                 |                                                 |
| \\      /  F ield         | OpenFOAM: The Open Source CFD Toolbox           |
|  \\    /   O peration     | Version:  v1912                                 |
|   \\  /    A nd           | Website:  www.openfoam.com                      |
|    \\/     M anipulation  |                                                 |
\*---------------------------------------------------------------------------*/
FoamFile
{
    version     2.0;
    format      ascii;
    class       volVectorField;
    location    "0.47/fluid";
    object      cellMotionU;
}
// * * * * * * * * * * * * * * * * * * * * * * * * * * * * * * * * * * * * * //

dimensions      [0 1 -1 0 0 0 0];


internalField   nonuniform List<vector> 
14592
(
(1.70332e-10 -3.85777e-10 2.91577e-10)
(4.74953e-10 -1.07865e-09 8.2511e-10)
(7.55412e-10 -1.72305e-09 1.34995e-09)
(1.02113e-09 -2.34159e-09 1.89958e-09)
(1.28247e-09 -2.95203e-09 2.50758e-09)
(1.54811e-09 -3.56053e-09 3.20275e-09)
(1.82859e-09 -4.16462e-09 4.01468e-09)
(2.13728e-09 -4.74724e-09 4.97186e-09)
(2.49431e-09 -5.2708e-09 6.10329e-09)
(2.93396e-09 -5.65997e-09 7.43642e-09)
(3.5263e-09 -5.77542e-09 9.00563e-09)
(4.42864e-09 -5.33868e-09 1.08707e-08)
(6.01777e-09 -3.7359e-09 1.31994e-08)
(9.27938e-09 5.97189e-10 1.65402e-08)
(1.65333e-08 1.16586e-08 2.2397e-08)
(2.97761e-08 3.42126e-08 3.20154e-08)
(5.07138e-10 -1.1454e-09 8.66834e-10)
(1.41445e-09 -3.2034e-09 2.4535e-09)
(2.24837e-09 -5.11788e-09 4.01174e-09)
(3.03966e-09 -6.96019e-09 5.64626e-09)
(3.815e-09 -8.77724e-09 7.44885e-09)
(4.6021e-09 -1.05942e-08 9.50899e-09)
(5.43106e-09 -1.24067e-08 1.19125e-08)
(6.33928e-09 -1.41721e-08 1.47436e-08)
(7.37897e-09 -1.57884e-08 1.80818e-08)
(8.63532e-09 -1.70634e-08 2.20015e-08)
(1.02655e-08 -1.76522e-08 2.6569e-08)
(1.25784e-08 -1.69561e-08 3.18569e-08)
(1.62332e-08 -1.39205e-08 3.80101e-08)
(2.24948e-08 -6.77091e-09 4.53593e-08)
(3.32671e-08 6.79624e-09 5.4474e-08)
(4.75439e-08 2.47853e-08 6.42661e-08)
(8.33506e-10 -1.87095e-09 1.4206e-09)
(2.32421e-09 -5.23394e-09 4.01975e-09)
(3.69422e-09 -8.36805e-09 6.57221e-09)
(4.99141e-09 -1.13882e-08 9.24419e-09)
(6.26103e-09 -1.43793e-08 1.21891e-08)
(7.54713e-09 -1.73884e-08 1.5551e-08)
(8.89735e-09 -2.04213e-08 1.94702e-08)
(1.03675e-08 -2.34277e-08 2.40827e-08)
(1.20305e-08 -2.62799e-08 2.95183e-08)
(1.39909e-08 -2.87316e-08 3.58898e-08)
(1.64166e-08 -3.03647e-08 4.3281e-08)
(1.96042e-08 -3.0517e-08 5.17327e-08)
(2.41034e-08 -2.82278e-08 6.12469e-08)
(3.087e-08 -2.23915e-08 7.18406e-08)
(4.11876e-08 -1.26458e-08 8.35946e-08)
(5.39751e-08 -2.53768e-09 9.53106e-08)
(1.14271e-09 -2.53923e-09 1.93927e-09)
(3.18569e-09 -7.10668e-09 5.4861e-09)
(5.06145e-09 -1.13706e-08 8.96542e-09)
(6.83519e-09 -1.54941e-08 1.26033e-08)
(8.56687e-09 -1.95978e-08 1.66046e-08)
(1.03164e-08 -2.37604e-08 2.11655e-08)
(1.21464e-08 -2.80108e-08 2.64755e-08)
(1.41277e-08 -3.23171e-08 3.27207e-08)
(1.63442e-08 -3.65644e-08 4.00778e-08)
(1.89016e-08 -4.05216e-08 4.87027e-08)
(2.1935e-08 -4.37949e-08 5.87004e-08)
(2.56321e-08 -4.57797e-08 7.00849e-08)
(3.02836e-08 -4.56559e-08 8.27372e-08)
(3.6312e-08 -4.25643e-08 9.63266e-08)
(4.42972e-08 -3.63032e-08 1.10255e-07)
(5.3503e-08 -2.92895e-08 1.22468e-07)
(1.42853e-09 -3.12749e-09 2.411e-09)
(3.9818e-09 -8.75758e-09 6.81892e-09)
(6.32311e-09 -1.40254e-08 1.11369e-08)
(8.53175e-09 -1.91382e-08 1.5641e-08)
(1.06823e-08 -2.42583e-08 2.05838e-08)
(1.28478e-08 -2.95001e-08 2.62045e-08)
(1.51046e-08 -3.49285e-08 3.2736e-08)
(1.75368e-08 -4.05507e-08 4.04084e-08)
(2.02406e-08 -4.63021e-08 4.94465e-08)
(2.33246e-08 -5.20201e-08 6.00554e-08)
(2.69002e-08 -5.74077e-08 7.23857e-08)
(3.10829e-08 -6.198e-08 8.64967e-08)
(3.59489e-08 -6.49892e-08 1.0224e-07)
(4.15022e-08 -6.53813e-08 1.19115e-07)
(4.77209e-08 -6.19734e-08 1.35939e-07)
(5.4096e-08 -5.53849e-08 1.49497e-07)
(1.68607e-09 -3.61416e-09 2.82671e-09)
(4.69788e-09 -1.01251e-08 7.99138e-09)
(7.45484e-09 -1.62316e-08 1.30408e-08)
(1.00488e-08 -2.21846e-08 1.82939e-08)
(1.25647e-08 -2.81839e-08 2.40387e-08)
(1.50872e-08 -3.43841e-08 3.05495e-08)
(1.7705e-08 -4.08928e-08 3.80934e-08)
(2.05165e-08 -4.7771e-08 4.6937e-08)
(2.36347e-08 -5.50275e-08 5.73469e-08)
(2.71895e-08 -6.26081e-08 6.95815e-08)
(3.13223e-08 -7.03741e-08 8.38703e-08)
(3.61809e-08 -7.8052e-08 1.00381e-07)
(4.18789e-08 -8.51081e-08 1.19144e-07)
(4.83901e-08 -9.04244e-08 1.39844e-07)
(5.53878e-08 -9.16643e-08 1.61228e-07)
(6.15305e-08 -8.62418e-08 1.78682e-07)
(1.91093e-09 -3.97838e-09 3.17943e-09)
(5.32219e-09 -1.11516e-08 8.98404e-09)
(8.4383e-09 -1.78968e-08 1.46461e-08)
(1.13592e-08 -2.45009e-08 2.05145e-08)
(1.41785e-08 -3.11997e-08 2.69048e-08)
(1.69886e-08 -3.8184e-08 3.41137e-08)
(1.98877e-08 -4.5605e-08 4.24306e-08)
(2.29866e-08 -5.35788e-08 5.21447e-08)
(2.64184e-08 -6.21941e-08 6.35517e-08)
(3.03465e-08 -7.15174e-08 7.6952e-08)
(3.49847e-08 -8.16025e-08 9.26531e-08)
(4.06247e-08 -9.24936e-08 1.10973e-07)
(4.76948e-08 -1.04199e-07 1.32259e-07)
(5.67857e-08 -1.16493e-07 1.56809e-07)
(6.84819e-08 -1.28136e-07 1.84293e-07)
(8.08039e-08 -1.34932e-07 2.09481e-07)
(2.10032e-09 -4.20274e-09 3.46542e-09)
(5.84674e-09 -1.17878e-08 9.78657e-09)
(9.26038e-09 -1.89394e-08 1.59352e-08)
(1.24461e-08 -2.59729e-08 2.22804e-08)
(1.55008e-08 -3.31508e-08 2.91509e-08)
(1.85208e-08 -4.06937e-08 3.68546e-08)
(2.16085e-08 -4.87876e-08 4.56881e-08)
(2.48811e-08 -5.75941e-08 5.59458e-08)
(2.84824e-08 -6.72643e-08 6.79281e-08)
(3.25996e-08 -7.7957e-08 8.19451e-08)
(3.74983e-08 -8.9872e-08 9.83324e-08)
(4.35929e-08 -1.03314e-07 1.17491e-07)
(5.16011e-08 -1.18818e-07 1.39989e-07)
(6.2855e-08 -1.37393e-07 1.6674e-07)
(7.97674e-08 -1.60696e-07 1.99051e-07)
(1.0228e-07 -1.87163e-07 2.33546e-07)
(1.6972e-10 -3.93563e-10 2.76954e-10)
(4.7302e-10 -1.10058e-09 7.83692e-10)
(7.50866e-10 -1.75828e-09 1.28056e-09)
(1.0127e-09 -2.39064e-09 1.80034e-09)
(1.26679e-09 -3.0147e-09 2.3721e-09)
(1.52082e-09 -3.63885e-09 3.02323e-09)
(1.78259e-09 -4.26188e-09 3.77965e-09)
(2.06108e-09 -4.86946e-09 4.66536e-09)
(2.36866e-09 -5.4285e-09 5.70148e-09)
(2.72632e-09 -5.87575e-09 6.90387e-09)
(3.17686e-09 -6.09702e-09 8.27963e-09)
(3.81541e-09 -5.88454e-09 9.82695e-09)
(4.87689e-09 -4.81751e-09 1.1549e-08)
(6.86602e-09 -1.99144e-09 1.34663e-08)
(1.06981e-08 4.41447e-09 1.55639e-08)
(1.61247e-08 1.50508e-08 1.68482e-08)
(5.05496e-10 -1.16838e-09 8.23507e-10)
(1.40851e-09 -3.26765e-09 2.32923e-09)
(2.23573e-09 -5.22175e-09 3.80594e-09)
(3.01467e-09 -7.10262e-09 5.34918e-09)
(3.76977e-09 -8.96106e-09 7.04544e-09)
(4.5238e-09 -1.08245e-08 8.97558e-09)
(5.2993e-09 -1.26925e-08 1.12155e-08)
(6.12106e-09 -1.4529e-08 1.38355e-08)
(7.02033e-09 -1.62456e-08 1.68953e-08)
(8.04481e-09 -1.76774e-08 2.04343e-08)
(9.28095e-09 -1.8545e-08 2.44545e-08)
(1.09109e-08 -1.83921e-08 2.88957e-08)
(1.32853e-08 -1.65212e-08 3.35724e-08)
(1.70076e-08 -1.19965e-08 3.80519e-08)
(2.25126e-08 -4.3215e-09 4.12503e-08)
(2.79283e-08 3.52628e-09 4.11481e-08)
(8.31072e-10 -1.90808e-09 1.34934e-09)
(2.31555e-09 -5.33799e-09 3.81606e-09)
(3.67494e-09 -8.53518e-09 6.2338e-09)
(4.95399e-09 -1.16192e-08 8.75794e-09)
(6.19285e-09 -1.46774e-08 1.15297e-08)
(7.42862e-09 -1.77614e-08 1.46804e-08)
(8.69737e-09 -2.08819e-08 1.8334e-08)
(1.00363e-08 -2.39978e-08 2.26055e-08)
(1.14867e-08 -2.69976e-08 2.75932e-08)
(1.30993e-08 -2.96713e-08 3.33612e-08)
(1.49474e-08 -3.16764e-08 3.9907e-08)
(1.71551e-08 -3.25161e-08 4.71065e-08)
(1.99359e-08 -3.15895e-08 5.46144e-08)
(2.35699e-08 -2.85146e-08 6.16802e-08)
(2.80346e-08 -2.41261e-08 6.68573e-08)
(3.16715e-08 -2.18556e-08 6.81652e-08)
(1.13998e-09 -2.58923e-09 1.8418e-09)
(3.17606e-09 -7.24656e-09 5.20829e-09)
(5.03931e-09 -1.15959e-08 8.50411e-09)
(6.79081e-09 -1.58046e-08 1.19406e-08)
(8.48515e-09 -1.99986e-08 1.57077e-08)
(1.01731e-08 -2.42606e-08 1.99832e-08)
(1.19036e-08 -2.86247e-08 2.49355e-08)
(1.37248e-08 -3.30675e-08 3.07225e-08)
(1.56836e-08 -3.74896e-08 3.74822e-08)
(1.78212e-08 -4.16921e-08 4.53096e-08)
(2.01657e-08 -4.53492e-08 5.42139e-08)
(2.2722e-08 -4.80014e-08 6.40453e-08)
(2.54213e-08 -4.91317e-08 7.43417e-08)
(2.80549e-08 -4.84846e-08 8.41035e-08)
(3.00864e-08 -4.68404e-08 9.14347e-08)
(3.05337e-08 -4.65785e-08 9.37784e-08)
(1.42643e-09 -3.18879e-09 2.29017e-09)
(3.97333e-09 -8.92878e-09 6.47392e-09)
(6.30196e-09 -1.43006e-08 1.05646e-08)
(8.48767e-09 -1.95184e-08 1.48207e-08)
(1.05985e-08 -2.47483e-08 1.94752e-08)
(1.2698e-08 -3.01094e-08 2.47456e-08)
(1.48482e-08 -3.56709e-08 3.08394e-08)
(1.71097e-08 -4.1446e-08 3.79534e-08)
(1.95395e-08 -4.73802e-08 4.62661e-08)
(2.21787e-08 -5.33321e-08 5.59122e-08)
(2.50365e-08 -5.90485e-08 6.69455e-08)
(2.80216e-08 -6.41402e-08 7.92302e-08)
(3.08606e-08 -6.80765e-08 9.23071e-08)
(3.29019e-08 -7.02845e-08 1.05028e-07)
(3.30457e-08 -7.05864e-08 1.15061e-07)
(3.0684e-08 -7.02612e-08 1.18931e-07)
(1.68521e-09 -3.68453e-09 2.68541e-09)
(4.69275e-09 -1.03218e-08 7.58795e-09)
(7.43902e-09 -1.65482e-08 1.23727e-08)
(1.00114e-08 -2.26211e-08 1.7337e-08)
(1.24894e-08 -2.87459e-08 2.27478e-08)
(1.49482e-08 -3.50805e-08 2.88545e-08)
(1.74628e-08 -4.17355e-08 3.58952e-08)
(2.01097e-08 -4.87743e-08 4.40992e-08)
(2.2965e-08 -5.62086e-08 5.36805e-08)
(2.60982e-08 -6.39901e-08 6.48211e-08)
(2.95479e-08 -7.19931e-08 7.76297e-08)
(3.32742e-08 -7.99757e-08 9.207e-08)
(3.702e-08 -8.74901e-08 1.07786e-07)
(4.00506e-08 -9.36744e-08 1.23725e-07)
(4.07836e-08 -9.70105e-08 1.37385e-07)
(3.75947e-08 -9.62854e-08 1.44208e-07)
(1.91196e-09 -4.05561e-09 3.02094e-09)
(5.32233e-09 -1.13675e-08 8.53198e-09)
(8.43105e-09 -1.82439e-08 1.38981e-08)
(1.13346e-08 -2.49797e-08 1.94456e-08)
(1.4121e-08 -3.18154e-08 2.54656e-08)
(1.68749e-08 -3.89449e-08 3.22289e-08)
(1.96826e-08 -4.65204e-08 3.99936e-08)
(2.26363e-08 -5.46572e-08 4.90093e-08)
(2.58378e-08 -6.34398e-08 5.95145e-08)
(2.94012e-08 -7.29263e-08 7.17266e-08)
(3.3452e-08 -8.31541e-08 8.58142e-08)
(3.8119e-08 -9.41365e-08 1.0185e-07)
(4.34808e-08 -1.05819e-07 1.19678e-07)
(4.93974e-08 -1.1787e-07 1.38551e-07)
(5.49341e-08 -1.29018e-07 1.56166e-07)
(5.72726e-08 -1.35736e-07 1.66854e-07)
(2.10362e-09 -4.28413e-09 3.29325e-09)
(5.85345e-09 -1.20153e-08 9.29591e-09)
(9.26436e-09 -1.93055e-08 1.51247e-08)
(1.2438e-08 -2.64777e-08 2.1124e-08)
(1.54671e-08 -3.37995e-08 2.7598e-08)
(1.84418e-08 -4.14939e-08 3.48276e-08)
(2.1455e-08 -4.97467e-08 4.30778e-08)
(2.46092e-08 -5.87159e-08 5.26027e-08)
(2.80246e-08 -6.85429e-08 6.36446e-08)
(3.18514e-08 -7.93684e-08 7.64291e-08)
(3.62888e-08 -9.13567e-08 9.11469e-08)
(4.16227e-08 -1.04738e-07 1.07928e-07)
(4.82844e-08 -1.19881e-07 1.26757e-07)
(5.69411e-08 -1.37381e-07 1.47215e-07)
(6.83076e-08 -1.578e-07 1.6751e-07)
(8.05272e-08 -1.78195e-07 1.81597e-07)
(1.68407e-10 -4.00206e-10 2.52365e-10)
(4.68821e-10 -1.11919e-09 7.13607e-10)
(7.42826e-10 -1.78833e-09 1.16546e-09)
(9.98521e-10 -2.43207e-09 1.63636e-09)
(1.24291e-09 -3.06815e-09 2.15244e-09)
(1.48155e-09 -3.70629e-09 2.73737e-09)
(1.71871e-09 -4.34653e-09 3.41214e-09)
(1.95788e-09 -4.97884e-09 4.1956e-09)
(2.20141e-09 -5.57627e-09 5.09995e-09)
(2.45266e-09 -6.09138e-09 6.12794e-09)
(2.71979e-09 -6.4454e-09 7.26286e-09)
(3.02814e-09 -6.51093e-09 8.45389e-09)
(3.42905e-09 -6.08048e-09 9.57958e-09)
(4.0196e-09 -4.78239e-09 1.03917e-08)
(4.79231e-09 -2.03444e-09 1.03178e-08)
(5.11612e-09 2.09134e-09 8.39963e-09)
(5.01634e-10 -1.18791e-09 7.50191e-10)
(1.39651e-09 -3.32244e-09 2.12125e-09)
(2.21231e-09 -5.30995e-09 3.46321e-09)
(2.97365e-09 -7.2242e-09 4.86178e-09)
(3.7009e-09 -9.11811e-09 6.3933e-09)
(4.4106e-09 -1.10218e-08 8.1271e-09)
(5.11566e-09 -1.294e-08 1.01264e-08)
(5.8247e-09 -1.48444e-08 1.2444e-08)
(6.54228e-09 -1.66657e-08 1.5117e-08)
(7.26852e-09 -1.82773e-08 1.81488e-08)
(8.00523e-09 -1.94806e-08 2.14823e-08)
(8.76087e-09 -1.99975e-08 2.49404e-08)
(9.56573e-09 -1.94879e-08 2.81306e-08)
(1.03934e-08 -1.76933e-08 3.02228e-08)
(1.08936e-08 -1.49056e-08 2.97159e-08)
(1.01478e-08 -1.28986e-08 2.55155e-08)
(8.25135e-10 -1.93968e-09 1.22921e-09)
(2.29708e-09 -5.42649e-09 3.47546e-09)
(3.63887e-09 -8.6777e-09 5.67258e-09)
(4.8908e-09 -1.18155e-08 7.96058e-09)
(6.08667e-09 -1.49303e-08 1.04634e-08)
(7.25417e-09 -1.80776e-08 1.32945e-08)
(8.4145e-09 -2.12736e-08 1.65564e-08)
(9.58149e-09 -2.44889e-08 2.03377e-08)
(1.07569e-08 -2.76337e-08 2.47002e-08)
(1.19251e-08 -3.05447e-08 2.96556e-08)
(1.30447e-08 -3.29756e-08 3.51203e-08)
(1.4035e-08 -3.46183e-08 4.08346e-08)
(1.4746e-08 -3.52189e-08 4.62264e-08)
(1.48835e-08 -3.49065e-08 5.02138e-08)
(1.38983e-08 -3.47753e-08 5.11284e-08)
(1.14922e-08 -3.65705e-08 4.81845e-08)
(1.13278e-09 -2.63164e-09 1.6783e-09)
(3.15327e-09 -7.36553e-09 4.74325e-09)
(4.99472e-09 -1.1787e-08 7.73938e-09)
(6.71237e-09 -1.60673e-08 1.08547e-08)
(8.35297e-09 -2.03358e-08 1.4257e-08)
(9.95568e-09 -2.46786e-08 1.80996e-08)
(1.15517e-08 -2.91356e-08 2.25228e-08)
(1.31605e-08 -3.36921e-08 2.76488e-08)
(1.47831e-08 -3.82686e-08 3.35684e-08)
(1.63857e-08 -4.27058e-08 4.03117e-08)
(1.78716e-08 -4.67595e-08 4.77925e-08)
(1.9028e-08 -5.01274e-08 5.57102e-08)
(1.94499e-08 -5.25729e-08 6.34146e-08)
(1.84325e-08 -5.42352e-08 6.96756e-08)
(1.51063e-08 -5.60714e-08 7.26555e-08)
(9.93597e-09 -5.9137e-08 7.12624e-08)
(1.41876e-09 -3.24061e-09 2.0869e-09)
(3.94893e-09 -9.07372e-09 5.89693e-09)
(6.25381e-09 -1.45334e-08 9.61598e-09)
(8.40219e-09 -1.98375e-08 1.34751e-08)
(1.04536e-08 -2.51557e-08 1.76797e-08)
(1.24591e-08 -3.061e-08 2.24178e-08)
(1.44612e-08 -3.62721e-08 2.78622e-08)
(1.64911e-08 -4.21607e-08 3.41673e-08)
(1.85572e-08 -4.82309e-08 4.14538e-08)
(2.06259e-08 -5.43639e-08 4.978e-08)
(2.25721e-08 -6.03538e-08 5.90746e-08)
(2.41091e-08 -6.59082e-08 6.90622e-08)
(2.46188e-08 -7.0683e-08 7.90526e-08)
(2.3003e-08 -7.44158e-08 8.7743e-08)
(1.78847e-08 -7.72226e-08 9.30614e-08)
(1.00788e-08 -7.9667e-08 9.33344e-08)
(1.67793e-09 -3.74383e-09 2.44731e-09)
(4.66953e-09 -1.04878e-08 6.91284e-09)
(7.39223e-09 -1.68142e-08 1.12637e-08)
(9.92718e-09 -2.29848e-08 1.57659e-08)
(1.2345e-08 -2.92081e-08 2.06549e-08)
(1.47087e-08 -3.56428e-08 2.61462e-08)
(1.70744e-08 -4.23998e-08 3.24391e-08)
(1.94894e-08 -4.95406e-08 3.97133e-08)
(2.19846e-08 -5.70752e-08 4.81172e-08)
(2.45549e-08 -6.49539e-08 5.77373e-08)
(2.71191e-08 -7.30529e-08 6.85447e-08)
(2.94316e-08 -8.11442e-08 8.02921e-08)
(3.09028e-08 -8.88255e-08 9.23347e-08)
(3.03221e-08 -9.53664e-08 1.03335e-07)
(2.5786e-08 -9.95335e-08 1.11019e-07)
(1.71173e-08 -1.00164e-07 1.13115e-07)
(1.906e-09 -4.12042e-09 2.75373e-09)
(5.30261e-09 -1.15487e-08 7.77438e-09)
(8.3902e-09 -1.8534e-08 1.2655e-08)
(1.12589e-08 -2.53755e-08 1.76873e-08)
(1.39888e-08 -3.2316e-08 2.31281e-08)
(1.66531e-08 -3.95491e-08 2.92118e-08)
(1.93209e-08 -4.72235e-08 3.61545e-08)
(2.20586e-08 -5.54468e-08 4.41525e-08)
(2.4927e-08 -6.42894e-08 5.33715e-08)
(2.79736e-08 -7.37849e-08 6.39198e-08)
(3.12141e-08 -8.39277e-08 7.58004e-08)
(3.45823e-08 -9.46545e-08 8.88093e-08)
(3.7819e-08 -1.05775e-07 1.02345e-07)
(4.02498e-08 -1.16747e-07 1.1504e-07)
(4.04725e-08 -1.26117e-07 1.24293e-07)
(3.71114e-08 -1.30819e-07 1.27016e-07)
(2.09951e-09 -4.35218e-09 3.00256e-09)
(5.83929e-09 -1.22054e-08 8.47232e-09)
(9.23284e-09 -1.96098e-08 1.37751e-08)
(1.23765e-08 -2.68922e-08 1.92184e-08)
(1.53559e-08 -3.43221e-08 2.50714e-08)
(1.82511e-08 -4.21208e-08 3.15772e-08)
(2.11407e-08 -5.0468e-08 3.89581e-08)
(2.4105e-08 -5.95094e-08 4.74134e-08)
(2.72302e-08 -6.93635e-08 5.71113e-08)
(3.06102e-08 -8.01303e-08 6.81632e-08)
(3.43498e-08 -9.18997e-08 8.05786e-08)
(3.85623e-08 -1.04763e-07 9.4172e-08)
(4.33574e-08 -1.18821e-07 1.08365e-07)
(4.88239e-08 -1.34149e-07 1.21753e-07)
(5.49357e-08 -1.50503e-07 1.31337e-07)
(6.07469e-08 -1.65118e-07 1.32759e-07)
(1.66632e-10 -4.05619e-10 2.18875e-10)
(4.63437e-10 -1.13438e-09 6.18788e-10)
(7.32584e-10 -1.81274e-09 1.0095e-09)
(9.8131e-10 -2.46571e-09 1.4162e-09)
(1.21492e-09 -3.11181e-09 1.86002e-09)
(1.43671e-09 -3.76129e-09 2.36038e-09)
(1.64763e-09 -4.41634e-09 2.93377e-09)
(1.8456e-09 -5.06941e-09 3.59304e-09)
(2.02433e-09 -5.70061e-09 4.34413e-09)
(2.17235e-09 -6.27542e-09 5.1811e-09)
(2.27196e-09 -6.74228e-09 6.07654e-09)
(2.29919e-09 -7.02976e-09 6.96596e-09)
(2.22525e-09 -7.0383e-09 7.73322e-09)
(1.98063e-09 -6.61225e-09 8.17157e-09)
(1.37684e-09 -5.46115e-09 8.02283e-09)
(1.3221e-10 -3.33851e-09 7.16642e-09)
(4.96517e-10 -1.20388e-09 6.50716e-10)
(1.38078e-09 -3.36715e-09 1.83903e-09)
(2.1828e-09 -5.3819e-09 3.0006e-09)
(2.92379e-09 -7.32339e-09 4.20773e-09)
(3.61977e-09 -9.24599e-09 5.52483e-09)
(4.28086e-09 -1.11826e-08 7.00834e-09)
(4.91014e-09 -1.31416e-08 8.70707e-09)
(5.50122e-09 -1.51031e-08 1.06582e-08)
(6.03441e-09 -1.7014e-08 1.28792e-08)
(6.47093e-09 -1.87805e-08 1.5351e-08)
(6.74726e-09 -2.02678e-08 1.7989e-08)
(6.77419e-09 -2.13108e-08 2.06028e-08)
(6.42516e-09 -2.17548e-08 2.28147e-08)
(5.53658e-09 -2.15367e-08 2.40095e-08)
(3.93951e-09 -2.08118e-08 2.34088e-08)
(1.97573e-09 -2.00505e-08 2.11497e-08)
(8.17182e-10 -1.96546e-09 1.06637e-09)
(2.27264e-09 -5.4989e-09 3.01326e-09)
(3.59296e-09 -8.79397e-09 4.91514e-09)
(4.81321e-09 -1.19752e-08 6.89039e-09)
(5.96041e-09 -1.51351e-08 9.04311e-09)
(7.05236e-09 -1.83322e-08 1.14657e-08)
(8.09576e-09 -2.15879e-08 1.4238e-08)
(9.08173e-09 -2.48822e-08 1.74227e-08)
(9.97752e-09 -2.8145e-08 2.10512e-08)
(1.07136e-08 -3.12517e-08 2.51e-08)
(1.11665e-08 -3.40265e-08 2.94488e-08)
(1.11403e-08 -3.62806e-08 3.38203e-08)
(1.03527e-08 -3.79195e-08 3.77051e-08)
(8.47743e-09 -3.91598e-08 4.03288e-08)
(5.42303e-09 -4.0739e-08 4.09206e-08)
(2.31335e-09 -4.31877e-08 3.99157e-08)
(1.1227e-09 -2.66634e-09 1.4557e-09)
(3.12256e-09 -7.4626e-09 4.11352e-09)
(4.93684e-09 -1.19427e-08 6.70696e-09)
(6.61434e-09 -1.62801e-08 9.39682e-09)
(8.19331e-09 -2.06064e-08 1.23236e-08)
(9.70087e-09 -2.50105e-08 1.56124e-08)
(1.11501e-08 -2.9536e-08 1.93727e-08)
(1.25342e-08 -3.41757e-08 2.36918e-08)
(1.38135e-08 -3.88653e-08 2.86201e-08)
(1.48941e-08 -4.34759e-08 3.41388e-08)
(1.55943e-08 -4.78183e-08 4.01153e-08)
(1.55996e-08 -5.16812e-08 4.62411e-08)
(1.44062e-08 -5.49367e-08 5.19356e-08)
(1.139e-08 -5.77609e-08 5.63822e-08)
(6.29633e-09 -6.08031e-08 5.87901e-08)
(9.67173e-10 -6.42704e-08 5.93635e-08)
(1.40759e-09 -3.28278e-09 1.81064e-09)
(3.91476e-09 -9.19183e-09 5.11468e-09)
(6.1891e-09 -1.47221e-08 8.33472e-09)
(8.29232e-09 -2.0094e-08 1.16675e-08)
(1.02744e-08 -2.54791e-08 1.5285e-08)
(1.21732e-08 -3.10002e-08 1.93409e-08)
(1.40121e-08 -3.67305e-08 2.39707e-08)
(1.57937e-08 -4.26901e-08 2.92856e-08)
(1.7485e-08 -4.88393e-08 3.53544e-08)
(1.89906e-08 -5.50707e-08 4.21721e-08)
(2.0111e-08 -6.1203e-08 4.96197e-08)
(2.04553e-08 -6.69817e-08 5.73596e-08)
(1.93542e-08 -7.21121e-08 6.48131e-08)
(1.58417e-08 -7.63383e-08 7.11095e-08)
(9.22931e-09 -7.95913e-08 7.53784e-08)
(1.64528e-09 -8.19375e-08 7.74684e-08)
(1.66667e-09 -3.79201e-09 2.12392e-09)
(4.63474e-09 -1.06224e-08 5.99697e-09)
(7.32612e-09 -1.70287e-08 9.76489e-09)
(9.81429e-09 -2.32749e-08 1.36537e-08)
(1.21603e-08 -2.95702e-08 1.78609e-08)
(1.44139e-08 -3.6073e-08 2.25627e-08)
(1.66121e-08 -4.28907e-08 2.79157e-08)
(1.87745e-08 -5.00797e-08 3.40493e-08)
(2.08914e-08 -5.76414e-08 4.10497e-08)
(2.29012e-08 -6.55138e-08 4.89292e-08)
(2.4647e-08 -7.35557e-08 5.75714e-08)
(2.57956e-08 -8.15124e-08 6.66551e-08)
(2.57047e-08 -8.89398e-08 7.55614e-08)
(2.33092e-08 -9.50467e-08 8.33527e-08)
(1.74188e-08 -9.85073e-08 8.90161e-08)
(9.20797e-09 -9.81389e-08 9.2182e-08)
(1.89546e-09 -4.17285e-09 2.39021e-09)
(5.27001e-09 -1.1695e-08 6.74578e-09)
(8.32755e-09 -1.87666e-08 1.09734e-08)
(1.1151e-08 -2.56885e-08 1.53211e-08)
(1.38113e-08 -3.27036e-08 2.00042e-08)
(1.63691e-08 -4.00027e-08 2.52151e-08)
(1.88757e-08 -4.77274e-08 3.11232e-08)
(2.13718e-08 -5.59729e-08 3.78698e-08)
(2.38812e-08 -6.47877e-08 4.55507e-08)
(2.64001e-08 -7.41706e-08 5.41875e-08)
(2.88728e-08 -8.40577e-08 6.36677e-08)
(3.1146e-08 -9.42895e-08 7.36603e-08)
(3.28922e-08 -1.04525e-07 8.34887e-08)
(3.3534e-08 -1.14025e-07 9.20359e-08)
(3.23188e-08 -1.21212e-07 9.79131e-08)
(2.93019e-08 -1.23554e-07 1.00531e-07)
(2.0905e-09 -4.407e-09 2.60674e-09)
(5.81099e-09 -1.23584e-08 7.35296e-09)
(9.17768e-09 -1.98524e-08 1.19472e-08)
(1.22801e-08 -2.72177e-08 1.66512e-08)
(1.51956e-08 -3.47226e-08 2.16908e-08)
(1.79931e-08 -4.25839e-08 2.72657e-08)
(2.07355e-08 -5.09716e-08 3.35504e-08)
(2.34806e-08 -6.00129e-08 4.0688e-08)
(2.62823e-08 -6.97959e-08 4.87738e-08)
(2.91893e-08 -8.03696e-08 5.78264e-08)
(3.22421e-08 -9.1739e-08 6.77265e-08)
(3.54676e-08 -1.03855e-07 7.81218e-08)
(3.88836e-08 -1.16594e-07 8.82676e-08)
(4.25817e-08 -1.29733e-07 9.68303e-08)
(4.69574e-08 -1.42828e-07 1.0182e-07)
(5.23513e-08 -1.54052e-07 1.01924e-07)
(1.64725e-10 -4.09816e-10 1.77928e-10)
(4.57596e-10 -1.14607e-09 5.02601e-10)
(7.21855e-10 -1.83137e-09 8.19978e-10)
(9.63554e-10 -2.49173e-09 1.14879e-09)
(1.18663e-09 -3.14527e-09 1.507e-09)
(1.39239e-09 -3.80344e-09 1.90876e-09)
(1.57896e-09 -4.46963e-09 2.36632e-09)
(1.73997e-09 -5.13811e-09 2.88771e-09)
(1.86337e-09 -5.79381e-09 3.47501e-09)
(1.92886e-09 -6.41068e-09 4.11954e-09)
(1.9072e-09 -6.95086e-09 4.79528e-09)
(1.76019e-09 -7.3671e-09 5.45333e-09)
(1.43728e-09 -7.59448e-09 6.00977e-09)
(8.645e-10 -7.51413e-09 6.38315e-09)
(-1.12022e-10 -6.83355e-09 6.54706e-09)
(-1.58041e-09 -5.10183e-09 6.59079e-09)
(4.9094e-10 -1.21623e-09 5.28864e-10)
(1.36395e-09 -3.40167e-09 1.49463e-09)
(2.15171e-09 -5.43764e-09 2.43663e-09)
(2.87233e-09 -7.39976e-09 3.41412e-09)
(3.53786e-09 -9.34471e-09 4.4769e-09)
(4.15257e-09 -1.13061e-08 5.66837e-09)
(4.71139e-09 -1.32951e-08 7.02369e-09)
(5.19659e-09 -1.52984e-08 8.56741e-09)
(5.572e-09 -1.72732e-08 1.03049e-08)
(5.77696e-09 -1.91457e-08 1.22096e-08)
(5.72174e-09 -2.08143e-08 1.42052e-08)
(5.28746e-09 -2.21598e-08 1.61337e-08)
(4.34781e-09 -2.30678e-08 1.77492e-08)
(2.82561e-09 -2.34403e-08 1.87072e-08)
(8.65804e-10 -2.31644e-08 1.87199e-08)
(-7.41152e-10 -2.22088e-08 1.79899e-08)
(8.08459e-10 -1.98551e-09 8.66793e-10)
(2.2464e-09 -5.55516e-09 2.44915e-09)
(3.5444e-09 -8.88401e-09 3.99238e-09)
(4.73289e-09 -1.20986e-08 5.59173e-09)
(5.83228e-09 -1.52921e-08 7.32897e-09)
(6.85184e-09 -1.85253e-08 9.27455e-09)
(7.78613e-09 -2.18233e-08 1.1487e-08)
(8.60918e-09 -2.51718e-08 1.40072e-08)
(9.2653e-09 -2.85137e-08 1.68472e-08)
(9.65611e-09 -3.17461e-08 1.99711e-08)
(9.62785e-09 -3.47272e-08 2.32667e-08)
(8.96716e-09 -3.73088e-08 2.65138e-08)
(7.43252e-09 -3.94108e-08 2.93643e-08)
(4.89939e-09 -4.1147e-08 3.1407e-08)
(1.75217e-09 -4.29061e-08 3.23969e-08)
(-5.02939e-10 -4.48531e-08 3.26927e-08)
(1.11168e-09 -2.69332e-09 1.18383e-09)
(3.08916e-09 -7.53818e-09 3.34365e-09)
(4.87513e-09 -1.20634e-08 5.44886e-09)
(6.5119e-09 -1.64437e-08 7.62724e-09)
(8.03005e-09 -2.08122e-08 9.98931e-09)
(9.44581e-09 -2.52591e-08 1.26309e-08)
(1.07575e-08 -2.98294e-08 1.56321e-08)
(1.19382e-08 -3.45205e-08 1.90512e-08)
(1.29222e-08 -3.92753e-08 2.29098e-08)
(1.35859e-08 -4.39792e-08 2.71718e-08)
(1.37224e-08 -4.84644e-08 3.17108e-08)
(1.30153e-08 -5.25369e-08 3.62633e-08)
(1.10565e-08 -5.60574e-08 4.04585e-08)
(7.506e-09 -5.90861e-08 4.38627e-08)
(2.66188e-09 -6.1992e-08 4.6247e-08)
(-1.39179e-09 -6.48312e-08 4.77472e-08)
(1.39511e-09 -3.31563e-09 1.47257e-09)
(3.87695e-09 -9.28354e-09 4.15846e-09)
(6.11903e-09 -1.48678e-08 6.77275e-09)
(8.17603e-09 -2.02902e-08 9.4722e-09)
(1.00889e-08 -2.57221e-08 1.2392e-08)
(1.18838e-08 -3.12868e-08 1.56502e-08)
(1.35684e-08 -3.70564e-08 1.93462e-08)
(1.51236e-08 -4.30492e-08 2.35539e-08)
(1.64906e-08 -4.92246e-08 2.83064e-08)
(1.75468e-08 -5.54741e-08 3.35739e-08)
(1.80694e-08 -6.16128e-08 3.92137e-08)
(1.76928e-08 -6.7377e-08 4.4967e-08)
(1.58659e-08 -7.24311e-08 5.04173e-08)
(1.19648e-08 -7.64193e-08 5.51216e-08)
(5.88568e-09 -7.91037e-08 5.88182e-08)
(-1.10421e-10 -8.05893e-08 6.14002e-08)
(1.65366e-09 -3.82941e-09 1.72751e-09)
(4.59536e-09 -1.07267e-08 4.87688e-09)
(7.25297e-09 -1.71937e-08 7.93657e-09)
(9.6924e-09 -2.34948e-08 1.10869e-08)
(1.19659e-08 -2.98393e-08 1.44832e-08)
(1.41112e-08 -3.63829e-08 1.82611e-08)
(1.61491e-08 -4.32283e-08 2.25352e-08)
(1.80788e-08 -5.04237e-08 2.7392e-08)
(1.98655e-08 -5.79576e-08 3.28738e-08)
(2.14219e-08 -6.57484e-08 3.89516e-08)
(2.25764e-08 -7.36239e-08 4.54871e-08)
(2.30211e-08 -8.12815e-08 5.21863e-08)
(2.22491e-08 -8.82079e-08 5.85966e-08)
(1.95506e-08 -9.35268e-08 6.41921e-08)
(1.43398e-08 -9.58849e-08 6.86361e-08)
(7.90878e-09 -9.44136e-08 7.17773e-08)
(1.88282e-09 -4.2134e-09 1.94462e-09)
(5.23166e-09 -1.18078e-08 5.48695e-09)
(8.25593e-09 -1.89443e-08 8.92061e-09)
(1.10315e-08 -2.5924e-08 1.24432e-08)
(1.36201e-08 -3.29879e-08 1.62248e-08)
(1.60713e-08 -4.03227e-08 2.04128e-08)
(1.84215e-08 -4.80615e-08 2.5132e-08)
(2.06916e-08 -5.62844e-08 3.04756e-08)
(2.28831e-08 -6.50166e-08 3.64903e-08)
(2.49678e-08 -7.42194e-08 4.31453e-08)
(2.68764e-08 -8.37713e-08 5.02905e-08)
(2.84775e-08 -9.34302e-08 5.75965e-08)
(2.95629e-08 -1.02749e-07 6.45167e-08)
(2.98809e-08 -1.10906e-07 7.0338e-08)
(2.92614e-08 -1.16424e-07 7.44762e-08)
(2.79253e-08 -1.17434e-07 7.6892e-08)
(2.07899e-09 -4.44927e-09 2.12119e-09)
(5.77588e-09 -1.24758e-08 5.98198e-09)
(9.11175e-09 -2.00369e-08 9.71392e-09)
(1.21691e-08 -2.74606e-08 1.35263e-08)
(1.50176e-08 -3.5013e-08 1.75969e-08)
(1.77157e-08 -4.29048e-08 2.20797e-08)
(2.03124e-08 -5.12945e-08 2.71025e-08)
(2.28487e-08 -6.02896e-08 3.27593e-08)
(2.53577e-08 -6.99474e-08 3.90945e-08)
(2.78662e-08 -8.02673e-08 4.60695e-08)
(3.03995e-08 -9.11811e-08 5.35173e-08)
(3.29949e-08 -1.02536e-07 6.10686e-08)
(3.57568e-08 -1.14086e-07 6.80776e-08)
(3.90302e-08 -1.25524e-07 7.35962e-08)
(4.37126e-08 -1.36584e-07 7.65857e-08)
(5.04234e-08 -1.46319e-07 7.67997e-08)
(1.62956e-10 -4.12763e-10 1.31093e-10)
(4.52319e-10 -1.15429e-09 3.70537e-10)
(7.12193e-10 -1.8448e-09 6.03511e-10)
(9.47717e-10 -2.50949e-09 8.45361e-10)
(1.16207e-09 -3.16937e-09 1.10783e-09)
(1.35458e-09 -3.8339e-09 1.40117e-09)
(1.5214e-09 -4.5074e-09 1.73335e-09)
(1.65375e-09 -5.18603e-09 2.10938e-09)
(1.73635e-09 -5.85681e-09 2.52932e-09)
(1.74607e-09 -6.49717e-09 2.98553e-09)
(1.65226e-09 -7.07507e-09 3.45918e-09)
(1.41908e-09 -7.5473e-09 3.91659e-09)
(1.00916e-09 -7.8502e-09 4.32171e-09)
(3.75122e-10 -7.84705e-09 4.64202e-09)
(-5.98605e-10 -7.21166e-09 4.9287e-09)
(-1.98151e-09 -5.44655e-09 5.2303e-09)
(4.85851e-10 -1.22506e-09 3.89944e-10)
(1.34865e-09 -3.42656e-09 1.10116e-09)
(2.12363e-09 -5.4769e-09 1.79464e-09)
(2.82698e-09 -7.45568e-09 2.51276e-09)
(3.46634e-09 -9.41551e-09 3.29153e-09)
(4.04237e-09 -1.13937e-08 4.16119e-09)
(4.54411e-09 -1.34027e-08 5.14532e-09)
(4.94667e-09 -1.54318e-08 6.25851e-09)
(5.20576e-09 -1.74442e-08 7.50088e-09)
(5.25389e-09 -1.93748e-08 8.84945e-09)
(5.0002e-09 -2.11316e-08 1.0246e-08)
(4.34318e-09 -2.26008e-08 1.15942e-08)
(3.20728e-09 -2.36469e-08 1.27434e-08)
(1.62228e-09 -2.40962e-08 1.35315e-08)
(-1.15304e-10 -2.36766e-08 1.38268e-08)
(-1.24293e-09 -2.2306e-08 1.36477e-08)
(8.00523e-10 -2.00004e-09 6.39123e-10)
(2.22244e-09 -5.5957e-09 1.80475e-09)
(3.5009e-09 -8.94975e-09 2.94091e-09)
(4.66132e-09 -1.21869e-08 4.11604e-09)
(5.72019e-09 -1.54047e-08 5.38918e-09)
(6.67929e-09 -1.86622e-08 6.80935e-09)
(7.5248e-09 -2.19865e-08 8.41571e-09)
(8.22049e-09 -2.5367e-08 1.02333e-08)
(8.6995e-09 -2.87516e-08 1.22645e-08)
(8.85602e-09 -3.20451e-08 1.44763e-08)
(8.54146e-09 -3.5113e-08 1.6786e-08)
(7.57832e-09 -3.7803e-08 1.9047e-08)
(5.8227e-09 -3.9988e-08 2.10584e-08)
(3.32897e-09 -4.16675e-08 2.26142e-08)
(6.86669e-10 -4.30443e-08 2.36086e-08)
(-7.54533e-10 -4.43311e-08 2.41214e-08)
(1.10153e-09 -2.71303e-09 8.72613e-10)
(3.05869e-09 -7.59323e-09 2.46475e-09)
(4.81914e-09 -1.21505e-08 4.01454e-09)
(6.42069e-09 -1.65623e-08 5.61557e-09)
(7.88632e-09 -2.09586e-08 7.34654e-09)
(9.22487e-09 -2.54323e-08 9.27468e-09)
(1.04243e-08 -3.00283e-08 1.14539e-08)
(1.14453e-08 -3.47443e-08 1.39199e-08)
(1.22104e-08 -3.9525e-08 1.66798e-08)
(1.25905e-08 -4.42569e-08 1.96972e-08)
(1.23921e-08 -4.8769e-08 2.28725e-08)
(1.13587e-08 -5.28502e-08 2.60385e-08)
(9.2143e-09 -5.63052e-08 2.89659e-08)
(5.85151e-09 -5.90772e-08 3.14453e-08)
(1.78662e-09 -6.13958e-08 3.33692e-08)
(-1.19047e-09 -6.34686e-08 3.46415e-08)
(1.3835e-09 -3.33952e-09 1.08581e-09)
(3.84217e-09 -9.35044e-09 3.06586e-09)
(6.05538e-09 -1.49739e-08 4.99104e-09)
(8.07115e-09 -2.04302e-08 6.97506e-09)
(9.92445e-09 -2.58935e-08 9.11498e-09)
(1.16317e-08 -3.14837e-08 1.14934e-08)
(1.31894e-08 -3.72714e-08 1.41773e-08)
(1.45662e-08 -4.32713e-08 1.72121e-08)
(1.56915e-08 -4.94371e-08 2.06106e-08)
(1.644e-08 -5.56509e-08 2.43333e-08)
(1.66127e-08 -6.17131e-08 2.82785e-08)
(1.59126e-08 -6.73252e-08 3.2251e-08)
(1.39547e-08 -7.20981e-08 3.60071e-08)
(1.03744e-08 -7.55896e-08 3.9319e-08)
(5.28799e-09 -7.74981e-08 4.20585e-08)
(5.63893e-10 -7.81562e-08 4.39756e-08)
(1.64151e-09 -3.85678e-09 1.27422e-09)
(4.55863e-09 -1.08026e-08 3.59621e-09)
(7.18532e-09 -1.73125e-08 5.84971e-09)
(9.58184e-09 -2.36519e-08 8.16554e-09)
(1.17919e-08 -3.00267e-08 1.06549e-08)
(1.38447e-08 -3.65914e-08 1.3413e-08)
(1.57502e-08 -4.34429e-08 1.65172e-08)
(1.74946e-08 -5.06205e-08 2.00201e-08)
(1.90331e-08 -5.80988e-08 2.39375e-08)
(2.0278e-08 -6.57748e-08 2.82308e-08)
(2.10821e-08 -7.34444e-08 3.27823e-08)
(2.1218e-08 -8.07639e-08 3.7377e-08)
(2.0349e-08 -8.71656e-08 4.17192e-08)
(1.80371e-08 -9.17357e-08 4.55224e-08)
(1.39247e-08 -9.317e-08 4.86219e-08)
(8.88119e-09 -9.09335e-08 5.07914e-08)
(1.87075e-09 -4.24292e-09 1.43451e-09)
(5.19528e-09 -1.18897e-08 4.04675e-09)
(8.18905e-09 -1.90723e-08 6.57606e-09)
(1.0921e-08 -2.60903e-08 9.16585e-09)
(1.34469e-08 -3.31837e-08 1.19381e-08)
(1.58065e-08 -4.05339e-08 1.49965e-08)
(1.80258e-08 -4.82655e-08 1.84248e-08)
(2.01144e-08 -5.6445e-08 2.22795e-08)
(2.20637e-08 -6.50759e-08 2.65763e-08)
(2.38461e-08 -7.40871e-08 3.12718e-08)
(2.54161e-08 -8.33134e-08 3.62323e-08)
(2.67146e-08 -9.24577e-08 4.12017e-08)
(2.76956e-08 -1.01027e-07 4.57995e-08)
(2.8365e-08 -1.08203e-07 4.96032e-08)
(2.87801e-08 -1.12674e-07 5.23147e-08)
(2.87636e-08 -1.13027e-07 5.39028e-08)
(2.06772e-09 -4.48001e-09 1.56499e-09)