/*--------------------------------*- C++ -*----------------------------------*\
| =========                 |                                                 |
| \\      /  F ield         | OpenFOAM: The Open Source CFD Toolbox           |
|  \\    /   O peration     | Version:  v1912                                 |
|   \\  /    A nd           | Website:  www.openfoam.com                      |
|    \\/     M anipulation  |                                                 |
\*---------------------------------------------------------------------------*/
FoamFile
{
    version     2.0;
    format      ascii;
    class       surfaceScalarField;
    location    "0.47/fluid";
    object      meshPhi;
}
// * * * * * * * * * * * * * * * * * * * * * * * * * * * * * * * * * * * * * //

dimensions      [0 3 -1 0 0 0 0];
oriented        oriented;


internalField   nonuniform List<scalar> 
41600
(
2.00265e-13
-5.10603e-13
1.9007e-13
-1.9629e-13
3.81736e-13
-1.48764e-12
5.60086e-13
-5.78696e-13
5.51047e-13
-2.39504e-12
9.22485e-13
-9.54031e-13
7.14144e-13
-3.26538e-12
1.30106e-12
-1.34733e-12
8.76665e-13
-4.12098e-12
1.71725e-12
-1.78126e-12
1.04448e-12
-4.97254e-12
2.19105e-12
-2.27727e-12
1.22447e-12
-5.81668e-12
2.74156e-12
-2.85628e-12
1.42572e-12
-6.6307e-12
3.3868e-12
-3.53892e-12
1.66218e-12
-7.3629e-12
4.14308e-12
-4.3454e-12
1.95847e-12
-7.91525e-12
5.02389e-12
-5.29584e-12
2.363e-12
-8.11186e-12
6.03905e-12
-6.41241e-12
2.97727e-12
-7.63623e-12
7.19693e-12
-7.72932e-12
4.01301e-12
-5.90358e-12
8.51506e-12
-9.32364e-12
5.85917e-12
-1.84938e-12
1.00382e-11
-1.13856e-11
8.7215e-12
5.68486e-12
1.17568e-11
-1.4136e-11
1.86532e-11
1.4816e-11
-2.18744e-11
5.96551e-13
-1.00602e-12
5.65341e-13
-5.83873e-13
1.13701e-12
-2.9317e-12
1.66577e-12
-1.72122e-12
1.64101e-12
-4.72193e-12
2.74322e-12
-2.83714e-12
2.12612e-12
-6.44189e-12
3.86817e-12
-4.00577e-12
2.609e-12
-8.13737e-12
5.10411e-12
-5.29425e-12
3.10694e-12
-9.83292e-12
6.51038e-12
-6.76618e-12
3.63964e-12
-1.15274e-11
8.14349e-12
-8.48351e-12
4.23235e-12
-1.31855e-11
1.00567e-11
-1.0507e-11
4.92177e-12
-1.47226e-11
1.22978e-11
-1.28954e-11
5.76884e-12
-1.59801e-11
1.49044e-11
-1.57046e-11
6.88594e-12
-1.66882e-11
1.78977e-11
-1.8988e-11
8.49408e-12
-1.64141e-11
2.12779e-11
-2.28092e-11
1.10165e-11
-1.45196e-11
2.50256e-11
-2.72824e-11
1.51314e-11
-1.0258e-11
2.90992e-11
-3.26511e-11
2.09199e-11
-3.65586e-12
3.32499e-11
-3.89965e-11
4.05945e-12
3.65215e-11
-4.75063e-11
9.80365e-13
-1.47127e-12
9.26371e-13
-9.56787e-13
1.86822e-12
-4.28892e-12
2.72918e-12
-2.82016e-12
2.69545e-12
-6.91256e-12
4.49321e-12
-4.64715e-12
3.49054e-12
-9.44028e-12
6.33319e-12
-6.55835e-12
4.28061e-12
-1.19435e-11
8.35242e-12
-8.66302e-12
5.09338e-12
-1.44656e-11
1.06476e-11
-1.10648e-11
5.95957e-12
-1.70168e-11
1.33108e-11
-1.38644e-11
6.91626e-12
-1.95654e-11
1.64291e-11
-1.71605e-11
8.0126e-12
-2.20221e-11
2.00801e-11
-2.10476e-11
9.32055e-12
-2.4216e-11
2.43232e-11
-2.56108e-11
1.09562e-11
-2.5864e-11
2.91828e-11
-3.09179e-11
1.312e-11
-2.65445e-11
3.4625e-11
-3.7012e-11
1.61427e-11
-2.57238e-11
4.05222e-11
-4.39085e-11
2.04432e-11
-2.29662e-11
4.65923e-11
-5.15808e-11
2.57085e-11
-1.86675e-11
5.22099e-11
-5.95478e-11
-1.39131e-11
5.66213e-11
-6.95381e-11
1.34394e-12
-1.89108e-12
1.26454e-12
-1.30607e-12
2.56035e-12
-5.51502e-12
3.72469e-12
-3.84882e-12
3.69227e-12
-8.89622e-12
6.12954e-12
-6.33934e-12
4.77816e-12
-1.21657e-11
8.6342e-12
-8.94055e-12
5.85465e-12
-1.54224e-11
1.13782e-11
-1.18001e-11
6.95883e-12
-1.87332e-11
1.44923e-11
-1.50579e-11
8.13079e-12
-2.21296e-11
1.81015e-11
-1.88504e-11
9.41629e-12
-2.56003e-11
2.23246e-11
-2.33115e-11
1.087e-11
-2.90787e-11
2.72696e-11
-2.85699e-11
1.25592e-11
-3.24231e-11
3.30201e-11
-3.47402e-11
1.45695e-11
-3.53917e-11
3.96116e-11
-4.19051e-11
1.70132e-11
-3.76173e-11
4.699e-11
-5.00885e-11
2.00233e-11
-3.86133e-11
5.49423e-11
-5.92081e-11
2.36966e-11
-3.78945e-11
6.29834e-11
-6.89932e-11
2.76243e-11
-3.54817e-11
7.01495e-11
-7.85414e-11
-3.17711e-11
7.52578e-11
-8.90694e-11
1.68014e-12
-2.25054e-12
1.57225e-12
-1.6238e-12
3.1996e-12
-6.56638e-12
4.62965e-12
-4.78364e-12
4.6111e-12
-1.06024e-11
7.61418e-12
-7.87413e-12
5.96181e-12
-1.45212e-11
1.0716e-11
-1.1095e-11
7.29671e-12
-1.845e-11
1.41061e-11
-1.4627e-11
8.66125e-12
-2.24825e-11
1.79445e-11
-1.86415e-11
1.0104e-11
-2.66785e-11
2.23848e-11
-2.33056e-11
1.16789e-11
-3.10601e-11
2.7575e-11
-2.87849e-11
1.34467e-11
-3.56049e-11
3.36529e-11
-3.52412e-11
1.54728e-11
-4.02329e-11
4.07327e-11
-4.28227e-11
1.78218e-11
-4.47868e-11
4.8879e-11
-5.16438e-11
2.05396e-11
-4.89963e-11
5.80572e-11
-6.17472e-11
2.36059e-11
-5.24204e-11
6.80389e-11
-7.30266e-11
2.68539e-11
-5.43731e-11
7.82222e-11
-8.50729e-11
2.97365e-11
-5.41119e-11
8.72948e-11
-9.65866e-11
-5.07996e-11
9.3552e-11
-1.08209e-10
1.98283e-12
-2.53546e-12
1.84336e-12
-1.90361e-12
3.7741e-12
-7.40143e-12
5.42579e-12
-5.60565e-12
5.43438e-12
-1.19633e-11
8.91643e-12
-9.21968e-12
7.01795e-12
-1.64121e-11
1.25341e-11
-1.29755e-11
8.5766e-12
-2.09015e-11
1.64749e-11
-1.70804e-11
1.01629e-11
-2.55526e-11
2.09219e-11
-2.17303e-11
1.18333e-11
-3.04561e-11
2.60517e-11
-2.71168e-11
1.36511e-11
-3.56734e-11
3.20359e-11
-3.34311e-11
1.56881e-11
-4.12372e-11
3.9039e-11
-4.08641e-11
1.80243e-11
-4.71491e-11
4.7209e-11
-4.96004e-11
2.07427e-11
-5.33729e-11
5.66565e-11
-5.98039e-11
2.39117e-11
-5.9814e-11
6.74131e-11
-7.15887e-11
2.75291e-11
-6.6251e-11
7.93384e-11
-8.49442e-11
3.1402e-11
-7.21478e-11
9.18965e-11
-9.95436e-11
3.47816e-11
-7.63375e-11
1.03591e-10
-1.13887e-10
-7.54163e-11
1.12234e-10
-1.28222e-10
2.24714e-12
-2.73311e-12
2.07346e-12
-2.14094e-12
4.27447e-12
-7.98276e-12
6.10007e-12
-6.30138e-12
6.14827e-12
-1.29172e-11
1.00145e-11
-1.03535e-11
7.92783e-12
-1.77508e-11
1.4057e-11
-1.45495e-11
9.66979e-12
-2.26595e-11
1.84412e-11
-1.91153e-11
1.14319e-11
-2.77881e-11
2.33662e-11
-2.42637e-11
1.32769e-11
-3.32554e-11
2.9023e-11
-3.02018e-11
1.52769e-11
-3.91591e-11
3.55984e-11
-3.7137e-11
1.7518e-11
-4.55832e-11
4.3275e-11
-4.52797e-11
2.0106e-11
-5.26059e-11
5.22271e-11
-5.48432e-11
2.31753e-11
-6.03135e-11
6.26106e-11
-6.60409e-11
2.68985e-11
-6.88186e-11
7.45421e-11
-7.90814e-11
3.14814e-11
-7.82747e-11
8.80413e-11
-9.41373e-11
3.70821e-11
-8.88172e-11
1.02835e-10
-1.11203e-10
4.30572e-11
-9.99037e-11
1.17579e-10
-1.28985e-10
-1.1108e-10
1.29889e-10
-1.4861e-10
2.46971e-12
2.26012e-12
-2.33328e-12
-2.83298e-12
4.69448e-12
6.64551e-12
-6.86361e-12
-8.27957e-12
6.74375e-12
1.08972e-11
-1.1264e-11
-1.34135e-11
8.67934e-12
1.52687e-11
-1.58005e-11
-1.84647e-11
1.05602e-11
1.99837e-11
-2.07097e-11
-2.3625e-11
1.24464e-11
2.52485e-11
-2.62118e-11
-2.90562e-11
1.44035e-11
3.1259e-11
-3.25193e-11
-3.48973e-11
1.65081e-11
3.82055e-11
-3.98431e-11
-4.12717e-11
1.88548e-11
4.62735e-11
-4.83966e-11
-4.82959e-11
2.15677e-11
5.56433e-11
-5.83992e-11
-5.60923e-11
2.48193e-11
6.64864e-11
-7.00815e-11
-6.48082e-11
2.88634e-11
7.89605e-11
-8.36976e-11
-7.46454e-11
3.40728e-11
9.3185e-11
-9.95325e-11
-8.59015e-11
4.09147e-11
1.09109e-10
-1.17845e-10
-9.89732e-11
4.88442e-11
1.2558e-10
-1.37598e-10
-1.13416e-10
1.41635e-10
-1.63195e-10
-1.33644e-10
1.99526e-13
-5.20825e-13
1.76897e-13
3.79881e-13
-1.51749e-12
5.21053e-13
5.47262e-13
-2.44343e-12
8.57499e-13
7.07074e-13
-3.33227e-12
1.20792e-12
8.6418e-13
-4.2075e-12
1.59164e-12
1.02323e-12
-5.08124e-12
2.02639e-12
1.18909e-12
-5.95201e-12
2.52842e-12
1.36755e-12
-6.80043e-12
3.11195e-12
1.56695e-12
-7.58137e-12
3.78771e-12
1.80206e-12
-8.21083e-12
4.55983e-12
2.10315e-12
-8.54363e-12
5.42045e-12
2.53552e-12
-8.33319e-12
6.3401e-12
3.23251e-12
-7.15838e-12
7.24906e-12
4.41098e-12
-4.33854e-12
7.99684e-12
6.10542e-12
7.05786e-13
8.29995e-12
7.58098e-12
7.50522e-12
5.94466e-13
-1.026e-12
5.26137e-13
1.13175e-12
-2.99003e-12
1.54963e-12
1.63023e-12
-4.8165e-12
2.54989e-12
2.10593e-12
-6.57274e-12
3.59121e-12
2.57332e-12
-8.30675e-12
4.7309e-12
3.0461e-12
-1.00455e-11
6.02145e-12
3.5383e-12
-1.1791e-11
7.51105e-12
4.0658e-12
-1.35136e-11
9.24196e-12
4.64959e-12
-1.51394e-11
1.1246e-11
5.32348e-12
-1.65322e-11
1.3535e-11
6.15197e-12
-1.74694e-11
1.60839e-11
7.26602e-12
-1.76177e-11
1.88e-11
8.91392e-12
-1.65419e-11
2.14661e-11
1.14449e-11
-1.38663e-11
2.36377e-11
1.47519e-11
-9.92099e-12
2.45836e-11
-7.06283e-12
2.23761e-11
9.77356e-13
-1.50025e-12
8.62119e-13
1.86048e-12
-4.37355e-12
2.53886e-12
2.6794e-12
-7.04983e-12
4.17655e-12
3.46025e-12
-9.63031e-12
5.87992e-12
4.22672e-12
-1.21894e-11
7.74225e-12
5.00117e-12
-1.47733e-11
9.84906e-12
5.80569e-12
-1.73961e-11
1.22791e-11
6.66339e-12
-2.00322e-11
1.51019e-11
7.60022e-12
-2.26039e-11
1.83708e-11
8.64914e-12
-2.49637e-11
2.21072e-11
9.8603e-12
-2.68769e-11
2.62729e-11
1.13194e-11
-2.80199e-11
3.07197e-11
1.31628e-11
-2.80461e-11
3.51035e-11
1.55199e-11
-2.68294e-11
3.87565e-11
1.81005e-11
-2.496e-11
4.07e-11
-2.41782e-11
3.92596e-11
1.3407e-12
-1.92808e-12
1.17688e-12
2.55167e-12
-5.62308e-12
3.46511e-12
3.67366e-12
-9.07154e-12
5.69791e-12
4.74227e-12
-1.24083e-11
8.01697e-12
5.78994e-12
-1.57358e-11
1.05483e-11
6.84722e-12
-1.91241e-11
1.34076e-11
7.94383e-12
-2.2608e-11
1.6702e-11
9.10883e-12
-2.61813e-11
2.05277e-11
1.03693e-11
-2.97865e-11
2.49607e-11
1.17473e-11
-3.33004e-11
3.00384e-11
1.32533e-11
-3.65177e-11
3.57235e-11
1.48741e-11
-3.91462e-11
4.18417e-11
1.65444e-11
-4.08438e-11
4.7975e-11
1.81038e-11
-4.13747e-11
5.33155e-11
1.92455e-11
-4.09601e-11
5.66784e-11
-4.08658e-11
5.62073e-11
1.67752e-12
-2.29435e-12
1.4634e-12
3.1918e-12
-6.69432e-12
4.30744e-12
4.59313e-12
-1.081e-11
7.07884e-12
5.9256e-12
-1.48084e-11
9.95137e-12
7.2297e-12
-1.88202e-11
1.30793e-11
8.54397e-12
-2.29424e-11
1.66046e-11
9.90611e-12
-2.72371e-11
2.06593e-11
1.13527e-11
-3.17295e-11
2.53638e-11
1.29157e-11
-3.64017e-11
3.08181e-11
1.46143e-11
-4.11826e-11
3.70819e-11
1.64356e-11
-4.59327e-11
4.41367e-11
1.82952e-11
-5.04194e-11
5.18164e-11
1.99661e-11
-5.4279e-11
5.96838e-11
2.10156e-11
-5.69825e-11
6.6843e-11
2.09988e-11
-5.79909e-11
7.18672e-11
-5.7837e-11
7.25553e-11
1.98169e-12
-2.58462e-12
1.71598e-12
3.76903e-12
-7.54501e-12
5.0489e-12
5.42023e-12
-1.21962e-11
8.29086e-12
6.98659e-12
-1.67341e-11
1.16418e-11
8.5156e-12
-2.13161e-11
1.52786e-11
1.00532e-11
-2.60658e-11
1.93641e-11
1.16457e-11
-3.10754e-11
2.40502e-11
1.33401e-11
-3.64069e-11
2.94771e-11
1.51818e-11
-4.20922e-11
3.57663e-11
1.72077e-11
-4.81317e-11
4.30026e-11
1.94282e-11
-5.44871e-11
5.11985e-11
2.17854e-11
-6.10601e-11
6.02262e-11
2.40659e-11
-6.76261e-11
6.96842e-11
2.57767e-11
-7.36582e-11
7.86616e-11
2.62047e-11
-7.80761e-11
8.55185e-11
-7.87225e-11
8.77182e-11
2.2482e-12
-2.78596e-12
1.93051e-12
4.27369e-12
-8.13714e-12
5.67738e-12
6.14063e-12
-1.31676e-11
9.31372e-12
7.90567e-12
-1.80969e-11
1.30589e-11
9.62167e-12
-2.31047e-11
1.71061e-11
1.13407e-11
-2.83379e-11
2.16321e-11
1.31168e-11
-3.39156e-11
2.68016e-11
1.50082e-11
-3.99341e-11
3.27678e-11
1.70791e-11
-4.64723e-11
3.96661e-11
1.93997e-11
-5.35992e-11
4.76003e-11
2.20434e-11
-6.13828e-11
5.66122e-11
2.50733e-11
-6.99012e-11
6.66206e-11
2.85026e-11
-7.92395e-11
7.72903e-11
3.21824e-11
-8.93993e-11
8.77561e-11
3.54403e-11
-9.97416e-11
9.62175e-11
-1.08973e-10
9.9587e-11
2.4735e-12
2.10472e-12
-2.88769e-12
4.6991e-12
6.18629e-12
-8.43941e-12
6.7445e-12
1.01368e-11
-1.36728e-11
8.66939e-12
1.41879e-11
-1.88233e-11
1.05296e-11
1.85417e-11
-2.40861e-11
1.23808e-11
2.33818e-11
-2.96249e-11
1.42817e-11
2.88774e-11
-3.55785e-11
1.62982e-11
3.51843e-11
-4.20669e-11
1.85085e-11
4.24403e-11
-4.91993e-11
2.101e-11
5.07526e-11
-5.70837e-11
2.39296e-11
6.01725e-11
-6.58405e-11
2.74382e-11
7.06419e-11
-7.56217e-11
3.17596e-11
8.18741e-11
-8.66281e-11
3.71063e-11
9.30851e-11
-9.90633e-11
4.29204e-11
1.02449e-10
-1.12314e-10
1.06071e-10
-1.28209e-10
1.97947e-13
-5.29556e-13
1.5743e-13
3.76342e-13
-1.54303e-12
4.63541e-13
5.40803e-13
-2.4849e-12
7.62281e-13
6.9601e-13
-3.38966e-12
1.07256e-12
8.45808e-13
-4.28182e-12
1.41101e-12
9.93261e-13
-5.17496e-12
1.79245e-12
1.14067e-12
-6.06998e-12
2.22985e-12
1.28963e-12
-6.952e-12
2.73343e-12
1.44125e-12
-7.78511e-12
3.30865e-12
1.59734e-12
-8.50494e-12
3.95219e-12
1.76377e-12
-9.00854e-12
4.64487e-12
1.95664e-12
-9.14152e-12
5.33925e-12
2.20741e-12
-8.6849e-12
5.93866e-12
2.54133e-12
-7.37194e-12
6.26912e-12
2.86304e-12
-5.13358e-12
6.10747e-12
-2.25973e-12
5.48599e-12
5.89909e-13
-1.04305e-12
4.68243e-13
1.12153e-12
-3.03988e-12
1.37861e-12
1.61157e-12
-4.89739e-12
2.26681e-12
2.07399e-12
-6.68461e-12
3.18891e-12
2.52029e-12
-8.45138e-12
4.19418e-12
2.95963e-12
-1.02271e-11
5.32662e-12
3.39879e-12
-1.20177e-11
6.62469e-12
3.84179e-12
-1.38008e-11
8.11895e-12
4.28956e-12
-1.55172e-11
9.82603e-12
4.74106e-12
-1.70613e-11
1.17371e-11
5.19764e-12
-1.82727e-11
1.37972e-11
5.67138e-12
-1.89424e-11
1.5871e-11
6.18726e-12
-1.88643e-11
1.7688e-11
6.7335e-12
-1.80038e-11
1.87847e-11
7.09473e-12
-1.6823e-11
1.86294e-11
-1.68369e-11
1.69738e-11
9.70366e-13
-1.52494e-12
7.67297e-13
1.84477e-12
-4.44571e-12
2.2588e-12
2.65065e-12
-7.1668e-12
3.71313e-12
3.41098e-12
-9.79181e-12
5.22165e-12
4.1449e-12
-1.23974e-11
6.86458e-12
4.86781e-12
-1.50327e-11
8.7136e-12
5.59094e-12
-1.77157e-11
1.08318e-11
6.31978e-12
-2.04284e-11
1.327e-11
7.05127e-12
-2.31082e-11
1.60576e-11
7.76982e-12
-2.56383e-11
1.91849e-11
8.44266e-12
-2.78447e-11
2.25725e-11
9.01262e-12
-2.9519e-11
2.60219e-11
9.38283e-12
-3.05089e-11
2.91467e-11
9.38698e-12
-3.09324e-11
3.13237e-11
8.84481e-12
-3.13751e-11
3.19088e-11
-3.28572e-11
3.10418e-11
1.33213e-12
-1.95952e-12
1.04755e-12
2.53231e-12
-5.71487e-12
3.0832e-12
3.63806e-12
-9.22014e-12
5.06629e-12
4.68103e-12
-1.2613e-11
7.12038e-12
5.68799e-12
-1.59982e-11
9.35385e-12
6.68103e-12
-1.94482e-11
1.18638e-11
7.67667e-12
-2.30009e-11
1.47365e-11
8.68302e-12
-2.66555e-11
1.80427e-11
9.69341e-12
-3.03649e-11
2.18271e-11
1.0675e-11
-3.40277e-11
2.60867e-11
1.15492e-11
-3.74826e-11
3.07342e-11
1.21583e-11
-4.05212e-11
3.55415e-11
1.22241e-11
-4.29474e-11
4.00668e-11
1.13608e-11
-4.47257e-11
4.36135e-11
9.46663e-12
-4.61347e-11
4.54488e-11
-4.79793e-11
4.56781e-11
1.66841e-12
-2.33141e-12
1.30276e-12
3.17102e-12
-6.80246e-12
3.83327e-12
4.55452e-12
-1.09848e-11
6.29514e-12
5.85865e-12
-1.50485e-11
8.83992e-12
7.11773e-12
-1.91264e-11
1.16004e-11
8.36114e-12
-2.33169e-11
1.46957e-11
9.61251e-12
-2.76834e-11
1.82325e-11
1.08863e-11
-3.22523e-11
2.23002e-11
1.21798e-11
-3.70085e-11
2.69599e-11
1.34562e-11
-4.18882e-11
3.22213e-11
1.46137e-11
-4.67684e-11
3.80037e-11
1.5427e-11
-5.14529e-11
4.40744e-11
1.54683e-11
-5.56544e-11
4.99691e-11
1.41069e-11
-5.89891e-11
5.49369e-11
1.11298e-11
-6.10754e-11
5.81111e-11
-6.23212e-11
5.94613e-11
1.97311e-12
-2.62602e-12
1.52788e-12
3.74909e-12
-7.66575e-12
4.49392e-12
5.38252e-12
-1.23911e-11
7.37433e-12
6.92026e-12
-1.70011e-11
1.03435e-11
8.40368e-12
-2.16549e-11
1.35538e-11
9.86971e-12
-2.64765e-11
1.71421e-11
1.13509e-11
-3.15568e-11
2.12309e-11
1.28731e-11
-3.69546e-11
2.59252e-11
1.44483e-11
-4.26962e-11
3.13005e-11
1.60605e-11
-4.87724e-11
3.73808e-11
1.76348e-11
-5.51301e-11
4.40984e-11
1.89749e-11
-6.16491e-11
5.12283e-11
1.96624e-11
-6.80779e-11
5.82951e-11
1.8984e-11
-7.38875e-11
6.44857e-11
1.64287e-11
-7.81044e-11
6.87674e-11
-7.88197e-11
7.10454e-11
2.2411e-12
-2.83028e-12
1.71923e-12
4.25664e-12
-8.26633e-12
5.05431e-12
6.10729e-12
-1.3376e-11
8.28582e-12
7.84555e-12
-1.83817e-11
1.16051e-11
9.51859e-12
-2.34646e-11
1.51786e-11
1.11702e-11
-2.87709e-11
1.91552e-11
1.2842e-11
-3.44165e-11
2.36679e-11
1.45733e-11
-4.04904e-11
2.8831e-11
1.63986e-11
-4.70584e-11
3.47294e-11
1.83406e-11
-5.41662e-11
4.13964e-11
2.03941e-11
-6.18408e-11
4.87742e-11
2.24891e-11
-7.00857e-11
5.66436e-11
2.44233e-11
-7.88526e-11
6.45116e-11
2.57684e-11
-8.7928e-11
7.14692e-11
2.59436e-11
-9.65127e-11
7.62386e-11
-1.03255e-10
7.84965e-11
2.46863e-12
1.87475e-12
-2.93339e-12
4.68652e-12
5.50851e-12
-8.5726e-12
6.71823e-12
9.02006e-12
-1.38875e-11
8.61975e-12
1.26114e-11
-1.91164e-11
1.0442e-11
1.6457e-11
-2.44556e-11
1.22334e-11
2.07115e-11
-3.00674e-11
1.40423e-11
2.55117e-11
-3.60858e-11
1.59186e-11
3.09739e-11
-4.26212e-11
1.79156e-11
3.71834e-11
-4.97651e-11
2.0091e-11
4.41733e-11
-5.7595e-11
2.25046e-11
5.18856e-11
-6.61771e-11
2.5209e-11
6.00994e-11
-7.55671e-11
2.82251e-11
6.83085e-11
-8.57946e-11
3.14688e-11
7.5547e-11
-9.67806e-11
3.4407e-11
8.03625e-11
-1.07708e-10
8.14298e-11
-1.19592e-10
1.95846e-13
-5.36695e-13
1.32527e-13
3.71774e-13
-1.56389e-12
3.90084e-13
5.32769e-13
-2.51876e-12
6.4106e-13
6.82734e-13
-3.43653e-12
9.0108e-13
8.24413e-13
-4.34257e-12
1.18367e-12
9.59229e-13
-5.25168e-12
1.50054e-12
1.08697e-12
-6.16694e-12
1.86139e-12
1.20526e-12
-7.07772e-12
2.273e-12
1.30879e-12
-7.95669e-12
2.73722e-12
1.38879e-12
-8.75661e-12
3.24738e-12
1.43312e-12
-9.40816e-12
3.78257e-12
1.42704e-12
-9.82092e-12
4.29971e-12
1.35192e-12
-9.88942e-12
4.72502e-12
1.17598e-12
-9.50882e-12
4.9559e-12
8.63887e-13
-8.64826e-12
4.91233e-12
-6.95838e-12
4.89868e-12
5.83822e-13
-1.05701e-12
3.94195e-13
1.10829e-12
-3.08067e-12
1.16022e-12
1.58829e-12
-4.96351e-12
1.90645e-12
2.0355e-12
-6.7759e-12
2.67925e-12
2.45828e-12
-8.56912e-12
3.51867e-12
2.86109e-12
-1.03746e-11
4.45946e-12
3.24357e-12
-1.22018e-11
5.53047e-12
3.59859e-12
-1.40349e-11
6.75211e-12
3.9095e-12
-1.58282e-11
8.13046e-12
4.14705e-12
-1.75023e-11
9.64704e-12
4.26724e-12
-1.89452e-11
1.12428e-11
4.21077e-12
-2.00315e-11
1.27962e-11
3.90423e-12
-2.06744e-11
1.41027e-11
3.26905e-12
-2.093e-11
1.48872e-11
2.33086e-12
-2.10782e-11
1.49559e-11
-2.17787e-11
1.43859e-11
9.60908e-13
-1.54516e-12
6.4602e-13
1.82419e-12
-4.50475e-12
1.90118e-12
2.61442e-12
-7.26229e-12
3.12324e-12
3.35106e-12
-9.92307e-12
4.38766e-12
4.04838e-12
-1.25655e-11
5.75965e-12
4.71466e-12
-1.52406e-11
7.29592e-12
5.3504e-12
-1.797e-11
9.04395e-12
5.94471e-12
-2.07422e-11
1.1038e-11
6.46942e-12
-2.35073e-11
1.32905e-11
6.8707e-12
-2.61736e-11
1.57761e-11
7.05899e-12
-2.86123e-11
1.84092e-11
6.89953e-12
-3.06874e-11
2.10139e-11
6.21753e-12
-3.23366e-11
2.33028e-11
4.87264e-12
-3.37112e-11
2.49118e-11
3.08713e-12
-3.51822e-11
2.56092e-11
-3.7174e-11
2.57516e-11
1.32023e-12
-1.98521e-12
8.821e-13
2.50638e-12
-5.7898e-12
2.59545e-12
3.59231e-12
-9.34099e-12
4.2621e-12
4.60526e-12
-1.27782e-11
5.98406e-12
5.56596e-12
-1.62078e-11
7.84946e-12
6.48772e-12
-1.97036e-11
9.93521e-12
7.37413e-12
-2.33056e-11
1.23064e-11
8.21387e-12
-2.70163e-11
1.50113e-11
8.97153e-12
-3.07966e-11
1.8071e-11
9.5726e-12
-3.45602e-11
2.14606e-11
9.88115e-12
-3.81744e-11
2.5082e-11
9.67179e-12
-4.14761e-11
2.87321e-11
8.62386e-12
-4.43257e-11
3.20867e-11
6.45067e-12
-4.67079e-11
3.47517e-11
3.50156e-12
-4.87651e-11
3.64599e-11
-5.08837e-11
3.75204e-11
1.65519e-12
-2.36161e-12
1.0972e-12
3.14211e-12
-6.89041e-12
3.22744e-12
4.50332e-12
-1.11262e-11
5.29686e-12
5.77365e-12
-1.52408e-11
7.43053e-12
6.98073e-12
-1.93681e-11
9.73642e-12
8.14442e-12
-2.36065e-11
1.23091e-11
9.27448e-12
-2.80191e-11
1.52291e-11
1.0365e-11
-3.26311e-11
1.85579e-11
1.13838e-11
-3.74265e-11
2.23263e-11
1.22529e-11
-4.23419e-11
2.65143e-11
1.28166e-11
-4.72572e-11
3.10207e-11
1.27926e-11
-5.19831e-11
3.563e-11
1.1734e-11
-5.62434e-11
3.99963e-11
9.14639e-12
-5.96599e-11
4.36948e-11
5.27776e-12
-6.18172e-11
4.63892e-11
-6.28631e-11
4.83095e-11
1.95971e-12
-2.65963e-12
1.28704e-12
3.71964e-12
-7.7635e-12
3.78441e-12
5.33006e-12
-1.25478e-11
6.20613e-12
6.83277e-12
-1.72131e-11
8.69611e-12
8.26237e-12
-2.19189e-11
1.13783e-11
9.6463e-12
-2.67879e-11
1.43614e-11
1.10034e-11
-3.19076e-11
1.77381e-11
1.23396e-11
-3.73304e-11
2.15806e-11
1.36389e-11
-4.30723e-11
2.59279e-11
1.48464e-11
-4.91078e-11
3.07648e-11
1.58365e-11
-5.53578e-11
3.59895e-11
1.63601e-11
-6.16622e-11
4.13744e-11
1.59827e-11
-6.77148e-11
4.65395e-11
1.41281e-11
-7.2933e-11
5.09948e-11
1.07483e-11
-7.63703e-11
5.43095e-11
-7.61576e-11
5.67385e-11
2.22859e-12
-2.8661e-12
1.44851e-12
4.22891e-12
-8.37042e-12
4.25716e-12
6.0574e-12
-1.35425e-11
6.97461e-12
7.76169e-12
-1.86061e-11
9.75881e-12
9.38253e-12
-2.37419e-11
1.27453e-11
1.09548e-11
-2.90935e-11
1.60522e-11
1.25074e-11
-3.47709e-11
1.97805e-11
1.40615e-11
-4.08523e-11
2.40084e-11
1.56259e-11
-4.73852e-11
2.87791e-11
1.71878e-11
-5.4385e-11
3.40791e-11
1.8694e-11
-6.18289e-11
3.98018e-11
2.00198e-11
-6.96399e-11
4.56992e-11
2.09313e-11
-7.76481e-11
5.13345e-11
2.10972e-11
-8.54968e-11
5.60916e-11
2.03685e-11
-9.23984e-11
5.93684e-11
-9.72058e-11
6.14263e-11
2.45789e-12
1.57985e-12
-2.97019e-12
4.66234e-12
4.64062e-12
-8.67947e-12
6.674e-12
7.59417e-12
-1.40583e-11
8.54442e-12
1.06073e-11
-1.93458e-11
1.03188e-11
1.38223e-11
-2.47375e-11
1.20375e-11
1.73621e-11
-3.03923e-11
1.37378e-11
2.13304e-11
-3.64364e-11
1.54538e-11
2.58063e-11
-4.29665e-11
1.72166e-11
3.08321e-11
-5.00517e-11
1.90524e-11
3.63902e-11
-5.77316e-11
2.09774e-11
4.23653e-11
-6.60123e-11
2.2989e-11
4.84887e-11
-7.48544e-11
2.50597e-11
5.42721e-11
-8.41487e-11
2.71447e-11
5.89846e-11
-9.3659e-11
2.90685e-11
6.18512e-11
-1.02623e-10
6.25816e-11
-1.12259e-10
1.93585e-13
-5.42225e-13
1.032e-13
3.66927e-13
-1.58004e-12
3.03672e-13
5.24412e-13
-2.54496e-12
4.98767e-13
6.69212e-13
-3.47281e-12
7.00491e-13
8.03058e-13
-4.38955e-12
9.19052e-13
9.25946e-13
-5.31082e-12
1.16303e-12
1.03563e-12
-6.24131e-12
1.43921e-12
1.1268e-12
-7.1735e-12
1.75176e-12
1.18997e-12
-8.08601e-12
2.10074e-12
1.21063e-12
-8.94239e-12
2.47948e-12
1.16915e-12
-9.69164e-12
2.87124e-12
1.04234e-12
-1.0271e-11
3.24592e-12
8.07263e-13
-1.06078e-11
3.55979e-12
4.49318e-13
-1.06078e-11
3.76555e-12
6.85087e-15
-1.01531e-11
3.84011e-12
-8.61666e-12
4.06577e-12
5.77259e-13
-1.06787e-12
3.06984e-13
1.09423e-12
-3.11238e-12
9.03276e-13
1.56403e-12
-5.01485e-12
1.48344e-12
1.99622e-12
-6.8466e-12
2.08302e-12
2.39624e-12
-8.65988e-12
2.73226e-12
2.76449e-12
-1.04875e-11
3.45666e-12
3.09484e-12
-1.23414e-11
4.27639e-12
3.37198e-12
-1.42104e-11
5.20415e-12
3.56795e-12
-1.6058e-11
6.24056e-12
3.63867e-12
-1.78203e-11
7.36695e-12
3.52267e-12
-1.94109e-11
8.53585e-12
3.14613e-12
-2.07368e-11
9.66185e-12
2.44368e-12
-2.17332e-11
1.06213e-11
1.41778e-12
-2.2411e-11
1.12799e-11
2.99298e-13
-2.28617e-11
1.15704e-11
-2.34198e-11
1.14748e-11
9.5066e-13
-1.56093e-12
5.03153e-13
1.80223e-12
-4.55073e-12
1.48035e-12
2.57649e-12
-7.33644e-12
2.43061e-12
3.28959e-12
-1.00244e-11
3.41174e-12
3.95133e-12
-1.26941e-11
4.47296e-12
4.56384e-12
-1.53978e-11
5.65592e-12
5.11895e-12
-1.81592e-11
6.99394e-12
5.59387e-12
-2.09711e-11
8.50858e-12
5.94467e-12
-2.37912e-11
1.02027e-11
6.09861e-12
-2.65415e-11
1.20499e-11
5.94799e-12
-2.91139e-11
1.39802e-11
5.3541e-12
-3.13947e-11
1.58688e-11
4.18783e-12
-3.33239e-11
1.754e-11
2.47002e-12
-3.49833e-11
1.88111e-11
6.94149e-13
-3.65694e-11
1.95906e-11
-3.83259e-11
2.00233e-11
1.30721e-12
-2.00525e-12
6.87134e-13
2.47843e-12
-5.84812e-12
2.02129e-12
3.54397e-12
-9.4346e-12
3.31751e-12
4.52685e-12
-1.29051e-11
4.65385e-12
5.44226e-12
-1.63667e-11
6.09682e-12
6.29595e-12
-1.98936e-11
7.70301e-12
7.08105e-12
-2.35264e-11
9.5182e-12
7.7723e-12
-2.72691e-11
1.15731e-11
8.31682e-12
-3.1085e-11
1.38748e-11
8.62124e-12
-3.48936e-11
1.63939e-11
8.53658e-12
-3.85695e-11
1.90481e-11
7.85025e-12
-4.1955e-11
2.16908e-11
6.32435e-12
-4.48967e-11
2.41227e-11
3.88622e-12
-4.73173e-11
2.61467e-11
1.15711e-12
-4.92497e-11
2.76476e-11
-5.09964e-11
2.87113e-11
1.64045e-12
-2.38511e-12
8.54848e-13
3.11043e-12
-6.95867e-12
2.51395e-12
4.44843e-12
-1.12353e-11
4.12371e-12
5.68453e-12
-1.53873e-11
5.7798e-12
6.84024e-12
-1.95489e-11
7.56371e-12
7.92715e-12
-2.38177e-11
9.54508e-12
8.94382e-12
-2.82547e-11
1.17807e-11
9.86985e-12
-3.28821e-11
1.43097e-11
1.06556e-11
-3.76792e-11
1.71442e-11
1.12064e-11
-4.2576e-11
2.02545e-11
1.13592e-11
-4.74419e-11
2.35512e-11
1.08578e-11
-5.20704e-11
2.68732e-11
9.3625e-12
-5.61553e-11
3.00011e-11
6.6211e-12
-5.92722e-11
3.27178e-11
3.14227e-12
-6.09799e-11
3.48677e-11
-6.1436e-11
3.64837e-11
1.94437e-12
-2.68569e-12
1.00295e-12
3.68659e-12
-7.83904e-12
2.94834e-12
5.27262e-12
-1.2668e-11
4.83248e-12
6.73937e-12
-1.73734e-11
6.76542e-12
8.11515e-12
-2.2114e-11
8.84081e-12
9.41907e-12
-2.70103e-11
1.11387e-11
1.06589e-11
-3.21451e-11
1.37245e-11
1.18264e-11
-3.75628e-11
1.66439e-11
1.28893e-11
-4.32668e-11
1.99126e-11
1.37777e-11
-4.92116e-11
2.35006e-11
1.43623e-11
-5.52887e-11
2.73107e-11
1.44246e-11
-6.12955e-11
3.11619e-11
1.36437e-11
-6.6873e-11
3.47981e-11
1.16926e-11
-7.14002e-11
3.79507e-11
8.78272e-12
-7.39948e-11
4.04184e-11
-7.30076e-11
4.22806e-11
2.21369e-12
-2.89378e-12
1.12898e-12
4.19667e-12
-8.45053e-12
3.31724e-12
6.00114e-12
-1.36695e-11
5.43181e-12
7.66992e-12
-1.87743e-11
7.59355e-12
9.23774e-12
-2.39443e-11
9.90488e-12
1.07315e-11
-2.93194e-11
1.2453e-11
1.21699e-11
-3.50025e-11
1.53089e-11
1.35608e-11
-4.10597e-11
1.85218e-11
1.48981e-11
-4.75191e-11
2.21084e-11
1.61553e-11
-5.43662e-11
2.60355e-11
1.72752e-11
-6.15328e-11
3.01945e-11
1.81596e-11
-6.88791e-11
3.43757e-11
1.86751e-11
-7.61614e-11
3.82623e-11
1.87201e-11
-8.29817e-11
4.14842e-11
1.84062e-11
-8.86833e-11
4.37515e-11
-9.24822e-11
4.52352e-11
2.4443e-12
1.23153e-12
-2.99853e-12
4.63277e-12
3.6166e-12
-8.7614e-12
6.62202e-12
5.91528e-12
-1.41878e-11
8.45917e-12
8.25534e-12
-1.95166e-11
1.01839e-11
1.07443e-11
-2.49413e-11
1.18294e-11
1.34731e-11
-3.0616e-11
1.34236e-11
1.65145e-11
-3.66585e-11
1.4989e-11
1.99178e-11
-4.31511e-11
1.65434e-11
2.36977e-11
-5.01395e-11
1.80999e-11
2.78152e-11
-5.76284e-11
1.96689e-11
3.21495e-11
-6.55727e-11
2.12648e-11
3.64635e-11
-7.38652e-11
2.29341e-11
4.03836e-11
-8.23236e-11
2.48138e-11
4.34371e-11
-9.06833e-11
2.69629e-11
4.52292e-11
-9.83603e-11
4.56727e-11
-1.06934e-10
1.91513e-13
-5.46184e-13
7.05515e-14
3.62529e-13
-1.59162e-12
2.07555e-13
5.16932e-13
-2.56381e-12
3.40768e-13
6.57282e-13
-3.49898e-12
4.78315e-13
7.84503e-13
-4.42338e-12
6.27005e-13
8.9753e-13
-5.35313e-12
7.92427e-13
9.92731e-13
-6.29384e-12
9.78821e-13
1.06307e-12
-7.23983e-12
1.18857e-12
1.09719e-12
-8.17286e-12
1.42117e-12
1.07908e-12
-9.06141e-12
1.67178e-12
9.89153e-13
-9.86088e-12
1.92968e-12
8.08387e-13
-1.05136e-11
2.17739e-12
5.26062e-13
-1.09428e-11
2.39217e-12
1.5061e-13
-1.10273e-11
2.55279e-12
-2.61382e-13
-1.05925e-11
2.64776e-12
-8.95936e-12
2.87309e-12
5.71247e-13
-1.07572e-12
2.09882e-13
1.08147e-12
-3.13534e-12
6.17445e-13
1.5423e-12
-5.05205e-12
1.01365e-12
1.96152e-12
-6.89776e-12
1.42253e-12
2.34226e-12
-8.72521e-12
1.86424e-12
2.6819e-12
-1.05679e-11
2.35539e-12
2.97039e-12
-1.24391e-11
2.90866e-12
3.18766e-12
-1.43304e-11
3.53128e-12
3.30081e-12
-1.62095e-11
4.22211e-12
3.26246e-12
-1.80191e-11
4.96749e-12
3.01348e-12
-1.96802e-11
5.73677e-12
2.49607e-12
-2.1101e-11
6.47958e-12
1.68664e-12
-2.21972e-11
7.12966e-12
6.60173e-13
-2.29164e-11
7.6209e-12
-3.09218e-13
-2.32578e-11
7.91159e-12
-2.35039e-11
7.93457e-12
9.41259e-13
-1.57242e-12
3.44051e-13
1.78226e-12
-4.58421e-12
1.01209e-12
2.54243e-12
-7.39034e-12
1.66118e-12
3.23513e-12
-1.00977e-11
2.33034e-12
3.86664e-12
-1.27861e-11
3.05236e-12
4.43448e-12
-1.55085e-11
3.85445e-12
4.92469e-12
-1.82895e-11
4.75756e-12
5.30764e-12
-2.11234e-11
5.77409e-12
5.53296e-12
-2.39712e-11
6.90341e-12
5.52523e-12
-2.67588e-11
8.1256e-12
5.18506e-12
-2.93805e-11
9.3949e-12
4.40654e-12
-3.17161e-11
1.06365e-11
3.13565e-12
-3.3674e-11
1.17538e-11
1.5087e-12
-3.5262e-11
1.26511e-11
5.80852e-14
-3.66012e-11
1.3262e-11
-3.79497e-11
1.361e-11
1.2952e-12
-2.01989e-12
4.69936e-13
2.4529e-12
-5.89067e-12
1.38218e-12
3.50034e-12
-9.50258e-12
2.26775e-12
4.45703e-12
-1.29964e-11
3.17928e-12
5.33378e-12
-1.64793e-11
4.16108e-12
6.13069e-12
-2.00254e-11
5.25017e-12
6.83392e-12
-2.36747e-11
6.4754e-12
7.41041e-12
-2.74304e-11
7.85451e-12
7.80079e-12
-3.12551e-11
9.3886e-12
7.91142e-12
-3.50661e-11
1.10545e-11
7.60914e-12
-3.87326e-11
1.2797e-11
6.73082e-12
-4.20815e-11
1.45267e-11
5.14115e-12
-4.49245e-11
1.61314e-11
2.90841e-12
-4.71236e-11
1.75048e-11
6.66693e-13
-4.86755e-11
1.85596e-11
-4.99412e-11
1.92749e-11
1.62675e-12
-2.40228e-12
5.84745e-13
3.08126e-12
-7.0084e-12
1.71938e-12
4.39849e-12
-1.13141e-11
2.81934e-12
5.60458e-12
-1.54921e-11
3.94909e-12
6.71617e-12
-1.96758e-11
5.16296e-12
7.73867e-12
-2.39615e-11
6.50653e-12
8.66321e-12
-2.84078e-11
8.01564e-12
9.46145e-12
-3.30326e-11
9.71288e-12
1.0078e-11
-3.78088e-11
1.16014e-11
1.04205e-11
-4.26563e-11
1.36562e-11
1.0348e-11
-4.74293e-11
1.58153e-11
9.66561e-12
-5.18976e-11
1.79765e-11
8.15378e-12
-5.57223e-11
2.00122e-11
5.71468e-12
-5.84456e-11
2.18014e-11
2.84735e-12
-5.96429e-11
2.32309e-11
-5.95716e-11
2.42502e-11
1.92993e-12
-2.7047e-12
6.86171e-13
3.65577e-12
-7.89393e-12
2.01682e-12
5.21978e-12
-1.27545e-11
3.30445e-12
6.65472e-12
-1.74871e-11
4.6232e-12
7.98392e-12
-2.22492e-11
6.03557e-12
9.22023e-12
-2.71586e-11
7.59397e-12
1.0364e-11
-3.22934e-11
9.33966e-12
1.13994e-11
-3.76902e-11
1.12988e-11
1.22893e-11
-4.33398e-11
1.34758e-11
1.29677e-11
-4.91788e-11
1.58433e-11
1.33298e-11
-5.50733e-11
1.83307e-11
1.32228e-11
-6.07893e-11
2.08181e-11
1.24512e-11
-6.59385e-11
2.31491e-11
1.08472e-11
-6.98972e-11
2.51685e-11
8.60672e-12
-7.18642e-11
2.67427e-11
-7.03976e-11
2.78646e-11
2.1994e-12
-2.91392e-12
7.72511e-13
4.1661e-12
-8.50853e-12
2.26949e-12
5.94859e-12
-1.37605e-11
3.71478e-12
7.58564e-12
-1.88928e-11
5.18983e-12
9.10712e-12
-2.40829e-11
6.76305e-12
1.0534e-11
-2.9467e-11
8.49158e-12
1.18777e-11
-3.51411e-11
1.042e-11
1.31394e-11
-4.11604e-11
1.25764e-11
1.43085e-11
-4.75363e-11
1.49645e-11
1.5362e-11
-5.42293e-11
1.7553e-11
1.62663e-11
-6.11388e-11
2.026e-11
1.69842e-11
-6.80878e-11
2.29409e-11
1.74997e-11
-7.48057e-11
2.53944e-11
1.78653e-11
-8.09147e-11
2.74004e-11
1.81897e-11
-8.58907e-11
2.8784e-11
-8.92065e-11
2.96274e-11
2.43092e-12
8.42783e-13
-3.01908e-12
4.60404e-12
2.47458e-12
-8.82051e-12
6.57245e-12
4.04591e-12
-1.42802e-11
8.37949e-12
5.64291e-12
-1.96361e-11
1.00603e-11
7.33751e-12
-2.50794e-11
1.16427e-11
9.1892e-12
-3.07595e-11
1.3148e-11
1.12438e-11
-3.67864e-11
1.45924e-11
1.35289e-11
-4.32295e-11
1.59894e-11
1.60462e-11
-5.01151e-11
1.73547e-11
1.87593e-11
-5.74205e-11
1.87175e-11
2.15753e-11
-6.50659e-11
2.0142e-11
2.4327e-11