/*--------------------------------*- C++ -*----------------------------------*\
| =========                 |                                                 |
| \\      /  F ield         | OpenFOAM: The Open Source CFD Toolbox           |
|  \\    /   O peration     | Version:  v1912                                 |
|   \\  /    A nd           | Website:  www.openfoam.com                      |
|    \\/     M anipulation  |                                                 |
\*---------------------------------------------------------------------------*/
FoamFile
{
    version     2.0;
    format      ascii;
    class       surfaceScalarField;
    location    "0.47/fluid";
    object      phi;
}
// * * * * * * * * * * * * * * * * * * * * * * * * * * * * * * * * * * * * * //

dimensions      [0 3 -1 0 0 0 0];
oriented        oriented;


internalField   nonuniform List<scalar> 
41600
(
5.04361e-05
1.22649e-05
3.56913e-07
-5.57961e-07
4.11933e-05
9.58292e-06
4.86149e-07
-8.26265e-07
3.4884e-05
6.65416e-06
2.56557e-07
-6.01372e-07
3.13523e-05
3.81794e-06
-1.68922e-07
-1.17324e-07
2.9399e-05
2.15927e-06
-7.40329e-07
5.34369e-07
2.82515e-05
1.27513e-06
-1.43903e-06
1.31144e-06
2.74284e-05
8.79697e-07
-2.29073e-06
2.23405e-06
2.66841e-05
7.29951e-07
-3.3407e-06
3.35511e-06
2.58851e-05
7.04387e-07
-4.65657e-06
4.75116e-06
2.49398e-05
7.2649e-07
-6.33657e-06
6.55535e-06
2.37671e-05
7.60872e-07
-8.53275e-06
8.94457e-06
2.22126e-05
7.25219e-07
-1.14082e-05
1.22376e-05
2.00316e-05
6.24493e-07
-1.53725e-05
1.6929e-05
1.65549e-05
1.20982e-07
-2.02309e-05
2.35866e-05
1.0447e-05
-3.40686e-07
-2.6088e-05
3.25365e-05
-2.86134e-06
-2.18503e-05
3.51586e-05
6.50821e-05
9.95716e-06
4.43417e-07
-7.17819e-07
6.44381e-05
1.07178e-05
5.8529e-07
-1.07606e-06
6.28413e-05
8.78615e-06
2.41097e-07
-7.76313e-07
6.1082e-05
6.05323e-06
-4.21817e-07
-5.41882e-08
5.95411e-05
4.06629e-06
-1.34038e-06
9.74205e-07
5.82172e-05
2.84455e-06
-2.49244e-06
2.24698e-06
5.69792e-05
2.24788e-06
-3.91603e-06
3.78579e-06
5.56795e-05
2.04542e-06
-5.68612e-06
5.67044e-06
5.41839e-05
2.0897e-06
-7.91556e-06
8.02577e-06
5.2339e-05
2.27843e-06
-1.07699e-05
1.10629e-05
4.99712e-05
2.55306e-06
-1.44956e-05
1.50712e-05
4.67134e-05
2.81961e-06
-1.93853e-05
2.05487e-05
4.20683e-05
3.05642e-06
-2.60185e-05
2.82317e-05
3.45295e-05
2.90041e-06
-3.4211e-05
3.89704e-05
2.24865e-05
2.46127e-06
-4.33004e-05
5.25414e-05
-5.68678e-07
-3.57184e-05
5.59122e-05
6.62571e-05
6.49018e-06
4.61339e-07
-7.51473e-07
6.85127e-05
8.98895e-06
5.99789e-07
-1.12657e-06
6.94594e-05
8.42087e-06
2.27775e-07
-8.09181e-07
6.938e-05
6.65618e-06
-4.80461e-07
-4.30463e-08
6.87784e-05
5.07674e-06
-1.4626e-06
1.05375e-06
6.79016e-05
4.00103e-06
-2.70041e-06
2.42074e-06
6.68345e-05
3.46961e-06
-4.23578e-06
4.08106e-06
6.55485e-05
3.36185e-06
-6.15037e-06
6.11997e-06
6.39573e-05
3.57501e-06
-8.56571e-06
8.67161e-06
6.19068e-05
4.02728e-06
-1.16633e-05
1.19649e-05
5.91839e-05
4.67014e-06
-1.57082e-05
1.63141e-05
5.53406e-05
5.42589e-06
-2.10332e-05
2.22702e-05
4.97507e-05
6.26799e-06
-2.82473e-05
3.06256e-05
4.06613e-05
6.82812e-06
-3.72283e-05
4.23899e-05
2.62411e-05
6.75984e-06
-4.71705e-05
5.72921e-05
3.08101e-06
-3.92494e-05
6.18408e-05
6.50354e-05
4.24604e-06
4.74885e-07
-7.66165e-07
6.76132e-05
6.9444e-06
6.25646e-07
-1.1589e-06
6.9396e-05
7.22735e-06
2.5937e-07
-8.48578e-07
7.02094e-05
6.37352e-06
-4.42051e-07
-8.87119e-08
7.0322e-05
5.37946e-06
-1.41413e-06
9.98793e-07
6.99504e-05
4.65821e-06
-2.63857e-06
2.35304e-06
6.92242e-05
4.35584e-06
-4.15618e-06
3.99609e-06
6.81674e-05
4.45411e-06
-6.04788e-06
6.01241e-06
6.67298e-05
4.91144e-06
-8.43298e-06
8.53421e-06
6.47695e-05
5.68992e-06
-1.14948e-05
1.17925e-05
6.20619e-05
6.77267e-06
-1.54958e-05
1.61008e-05
5.81206e-05
8.1213e-06
-2.07865e-05
2.20324e-05
5.22483e-05
9.72674e-06
-2.79733e-05
3.03868e-05
4.25948e-05
1.12022e-05
-3.70138e-05
4.22931e-05
2.71611e-05
1.17859e-05
-4.71075e-05
5.75152e-05
6.93718e-06
-3.94668e-05
6.27717e-05
6.41584e-05
2.87717e-06
4.95649e-07
-7.85155e-07
6.64124e-05
5.22281e-06
6.73079e-07
-1.20551e-06
6.83211e-05
5.9068e-06
3.30344e-07
-9.18472e-07
6.95374e-05
5.68633e-06
-3.45939e-07
-1.8323e-07
7.01098e-05
5.2211e-06
-1.28604e-06
8.7203e-07
7.01582e-05
4.89525e-06
-2.46731e-06
2.18188e-06
6.97877e-05
4.88829e-06
-3.9253e-06
3.76338e-06
6.90336e-05
5.24821e-06
-5.73556e-06
5.69552e-06
6.78658e-05
5.9863e-06
-8.00901e-06
8.10198e-06
6.61551e-05
7.11701e-06
-1.09232e-05
1.12068e-05
6.36762e-05
8.6689e-06
-1.4725e-05
1.53077e-05
5.99105e-05
1.06767e-05
-1.97735e-05
2.09837e-05
5.40838e-05
1.31929e-05
-2.66466e-05
2.90072e-05
4.41833e-05
1.58887e-05
-3.54185e-05
4.06324e-05
2.7938e-05
1.77014e-05
-4.53002e-05
5.56299e-05
1.16144e-05
-3.82659e-05
6.15267e-05
6.37021e-05
1.96278e-06
5.20676e-07
-8.08384e-07
6.56462e-05
3.80931e-06
7.32766e-07
-1.26332e-06
6.75171e-05
4.62199e-06
4.23211e-07
-1.0093e-06
6.89291e-05
4.80135e-06
-2.19069e-07
-3.08021e-07
6.9802e-05
4.76078e-06
-1.11783e-06
7.05232e-07
7.0178e-05
4.80493e-06
-2.24369e-06
1.95804e-06
7.01265e-05
5.10434e-06
-3.62459e-06
3.46002e-06
6.96786e-05
5.74241e-06
-5.32834e-06
5.28203e-06
6.88126e-05
6.77083e-06
-7.45442e-06
7.53593e-06
6.74067e-05
8.25963e-06
-1.01708e-05
1.04341e-05
6.52344e-05
1.02925e-05
-1.37021e-05
1.42508e-05
6.17443e-05
1.3016e-05
-1.84118e-05
1.95626e-05
5.60872e-05
1.65878e-05
-2.48308e-05
2.7093e-05
4.60489e-05
2.08715e-05
-3.3182e-05
3.82375e-05
2.90269e-05
2.46488e-05
-4.2671e-05
5.27455e-05
1.77135e-05
-3.6532e-05
5.94598e-05
6.35066e-05
1.24272e-06
5.50327e-07
-8.36851e-07
6.52806e-05
2.56448e-06
8.03136e-07
-1.33236e-06
6.71265e-05
3.36105e-06
5.3369e-07
-1.11863e-06
6.8665e-05
3.78918e-06
-6.77271e-08
-4.5861e-07
6.97577e-05
4.08098e-06
-9.17338e-07
5.04481e-07
7.04048e-05
4.44575e-06
-1.97686e-06
1.6889e-06
7.06563e-05
5.02289e-06
-3.26379e-06
3.0937e-06
7.05476e-05
5.90849e-06
-4.83402e-06
4.7767e-06
7.00778e-05
7.17938e-06
-6.76905e-06
6.83028e-06
6.91585e-05
8.95425e-06
-9.216e-06
9.44073e-06
6.76069e-05
1.13675e-05
-1.23571e-05
1.28336e-05
6.49011e-05
1.47153e-05
-1.65305e-05
1.7537e-05
6.0194e-05
1.93134e-05
-2.2156e-05
2.41377e-05
5.08899e-05
2.56758e-05
-2.96024e-05
3.41023e-05
3.36764e-05
3.28732e-05
-3.79444e-05
4.69334e-05
3.00823e-05
-3.30211e-05
5.43286e-05
6.34437e-05
5.8275e-07
-8.68846e-07
5.8507e-07
6.51702e-05
8.79753e-07
-1.40868e-06
1.367e-06
6.70456e-05
6.54177e-07
-1.23924e-06
2.07065e-06
6.8698e-05
9.71848e-08
-6.24265e-07
2.66385e-06
6.99667e-05
-6.99723e-07
2.84988e-07
3.2271e-06
7.08355e-05
-1.68856e-06
1.39678e-06
3.86869e-06
7.13489e-05
-2.87561e-06
2.69867e-06
4.68638e-06
7.15506e-05
-4.30376e-06
4.23424e-06
5.77637e-06
7.14591e-05
-6.03582e-06
6.07577e-06
7.23088e-06
7.10169e-05
-8.19576e-06
8.38106e-06
9.2112e-06
7.0085e-05
-1.09221e-05
1.13264e-05
1.18951e-05
6.81871e-05
-1.45216e-05
1.53839e-05
1.57508e-05
6.45558e-05
-1.92985e-05
2.10043e-05
2.12389e-05
5.63881e-05
-2.5779e-05
2.97284e-05
2.9894e-05
4.02097e-05
-3.29759e-05
4.09146e-05
4.11129e-05
-3.00985e-05
5.00623e-05
5.03282e-05
5.03723e-05
1.22702e-05
2.14427e-07
4.10118e-05
9.59897e-06
2.47712e-07
3.4576e-05
6.6727e-06
1.96554e-08
3.09251e-05
3.83578e-06
-3.53873e-07
2.88543e-05
2.17957e-06
-8.49086e-07
2.75768e-05
1.30171e-06
-1.46325e-06
2.65941e-05
9.16295e-07
-2.22432e-06
2.56434e-05
7.79722e-07
-3.1697e-06
2.4571e-05
7.71968e-07
-4.35616e-06
2.32667e-05
8.17478e-07
-5.84977e-06
2.16176e-05
8.86416e-07
-7.77008e-06
1.94725e-05
9.01129e-07
-1.01642e-05
1.65339e-05
8.81816e-07
-1.33157e-05
1.24116e-05
5.25295e-07
-1.66339e-05
6.04969e-06
1.63264e-07
-1.98893e-05
-1.87939e-06
-1.39212e-05
6.49924e-05
9.97037e-06
2.50828e-07
6.41796e-05
1.07501e-05
2.46939e-07
6.23809e-05
8.83006e-06
-1.17552e-07
6.04108e-05
6.10367e-06
-7.19598e-07
5.86518e-05
4.12697e-06
-1.5288e-06
5.70866e-05
2.92247e-06
-2.548e-06
5.5558e-05
2.35199e-06
-3.82311e-06
5.3887e-05
2.18511e-06
-5.42056e-06
5.19021e-05
2.27738e-06
-7.43606e-06
4.94102e-05
2.52794e-06
-9.98843e-06
4.61823e-05
2.88616e-06
-1.32674e-05
4.18398e-05
3.25622e-06
-1.7398e-05
3.58254e-05
3.63266e-06
-2.2755e-05
2.70926e-05
3.62965e-06
-2.85824e-05
1.44919e-05
3.24818e-06
-3.37847e-05
1.88379e-07
-2.32943e-05
6.61655e-05
6.50851e-06
2.57659e-07
6.82446e-05
9.03343e-06
2.37426e-07
6.89764e-05
8.48663e-06
-1.60589e-07
6.86683e-05
6.7386e-06
-8.07287e-07
6.78275e-05
5.17974e-06
-1.67454e-06
6.66858e-05
4.13413e-06
-2.77039e-06
6.53011e-05
3.64674e-06
-4.14578e-06
6.36104e-05
3.59961e-06
-5.87421e-06
6.14858e-05
3.89534e-06
-8.05904e-06
5.87278e-05
4.4552e-06
-1.08327e-05
5.50615e-05
5.24194e-06
-1.43976e-05
5.00201e-05
6.17208e-06
-1.89077e-05
4.29141e-05
7.23888e-06
-2.47475e-05
3.24796e-05
7.9996e-06
-3.11638e-05
1.74115e-05
8.00009e-06
-3.68543e-05
3.77274e-06
-2.54223e-05
6.49454e-05
4.26845e-06
2.69542e-07
6.7348e-05
6.99901e-06
2.57433e-07
6.89186e-05
7.31163e-06
-1.36225e-07
6.95072e-05
6.48419e-06
-7.76241e-07
6.93852e-05
5.5211e-06
-1.63352e-06
6.87543e-05
4.8428e-06
-2.71634e-06
6.77176e-05
4.60204e-06
-4.07472e-06
6.6265e-05
4.78591e-06
-5.78158e-06
6.43042e-05
5.36127e-06
-7.93817e-06
6.16469e-05
6.29642e-06
-1.06787e-05
5.80039e-05
7.59143e-06
-1.42023e-05
5.28646e-05
9.20213e-06
-1.86773e-05
4.54593e-05
1.11513e-05
-2.44804e-05
3.44228e-05
1.29319e-05
-3.09096e-05
1.82785e-05
1.36788e-05
-3.6642e-05
7.85726e-06
-2.52729e-05
6.40704e-05
2.90344e-06
2.9025e-07
6.61529e-05
5.2868e-06
3.02767e-07
6.78561e-05
6.00732e-06
-6.8457e-08
6.88573e-05
5.82128e-06
-6.84279e-07
6.92076e-05
5.39608e-06
-1.51131e-06
6.90124e-05
5.12456e-06
-2.5539e-06
6.83513e-05
5.19495e-06
-3.85706e-06
6.72272e-05
5.66334e-06
-5.48889e-06
6.55694e-05
6.55306e-06
-7.54306e-06
6.32028e-05
7.8894e-06
-1.01495e-05
5.98368e-05
9.72617e-06
-1.34938e-05
5.49218e-05
1.20981e-05
-1.77544e-05
4.75969e-05
1.51121e-05
-2.32825e-05
3.63043e-05
1.82817e-05
-2.94756e-05
1.92445e-05
2.04638e-05
-3.50254e-05
1.29985e-05
-2.41626e-05
6.36163e-05
1.9927e-06
3.15163e-07
6.53937e-05
3.88149e-06
3.60677e-07
6.70672e-05
4.73589e-06
2.10978e-08
6.8276e-05
4.95582e-06
-5.62383e-07
6.89423e-05
4.96249e-06
-1.35054e-06
6.90943e-05
5.07035e-06
-2.34154e-06
6.87775e-05
5.46042e-06
-3.57324e-06
6.79924e-05
6.22696e-06
-5.10685e-06
6.66793e-05
7.43751e-06
-7.02577e-06
6.46715e-05
9.17914e-06
-9.45276e-06
6.16787e-05
1.15709e-05
-1.25541e-05
5.71101e-05
1.4772e-05
-1.65171e-05
5.00186e-05
1.90259e-05
-2.16531e-05
3.86003e-05
2.40139e-05
-2.74959e-05
2.06431e-05
2.84997e-05
-3.27497e-05
1.97891e-05
-2.26796e-05
6.34233e-05
1.27553e-06
3.44173e-07
6.50367e-05
2.64271e-06
4.28543e-07
6.66949e-05
3.48433e-06
1.27045e-07
6.80439e-05
3.95695e-06
-4.17886e-07
6.89484e-05
4.30067e-06
-1.16004e-06
6.93961e-05
4.73524e-06
-2.08944e-06
6.94155e-05
5.41172e-06
-3.23443e-06
6.90151e-05
6.43922e-06
-4.64591e-06
6.81622e-05
7.91319e-06
-6.39186e-06
6.67294e-05
9.97554e-06
-8.57961e-06
6.44804e-05
1.28045e-05
-1.13416e-05
6.08506e-05
1.67284e-05
-1.4857e-05
5.48971e-05
2.21795e-05
-1.93561e-05
4.43313e-05
2.95158e-05
-2.45384e-05
2.60893e-05
3.7874e-05
-2.90766e-05
3.30515e-05
-2.01942e-05
6.33632e-05
3.75387e-07
6.19667e-07
6.49355e-05
5.01801e-07
1.44837e-06
6.66337e-05
2.41844e-07
2.19847e-06
6.81112e-05
-2.61287e-07
2.83788e-06
6.92111e-05
-9.54091e-07
3.45516e-06
6.99062e-05
-1.81772e-06
4.1693e-06
7.02224e-05
-2.87024e-06
5.09023e-06
7.01804e-05
-4.15128e-06
6.32873e-06
6.97729e-05
-5.71256e-06
7.99739e-06
6.89101e-05
-7.64397e-06
1.02865e-05
6.74112e-05
-1.00424e-05
1.34237e-05
6.47574e-05
-1.30742e-05
1.79348e-05
6.0104e-05
-1.68837e-05
2.4418e-05
5.08576e-05
-2.13544e-05
3.43375e-05
3.36902e-05
-2.51757e-05
4.72412e-05
-1.80894e-05
5.47325e-05
5.03219e-05
1.22752e-05
1.1731e-07
4.08651e-05
9.61342e-06
9.11082e-08
3.43186e-05
6.68988e-06
-1.23675e-07
3.05557e-05
3.85268e-06
-4.43698e-07
2.83684e-05
2.19878e-06
-8.60567e-07
2.69589e-05
1.32636e-06
-1.38014e-06
2.58134e-05
9.495e-07
-2.02833e-06
2.46524e-05
8.24003e-07
-2.83269e-06
2.33004e-05
8.30781e-07
-3.83491e-06
2.16265e-05
8.94512e-07
-5.07033e-06
1.94863e-05
9.88456e-07
-6.61838e-06
1.67397e-05
1.03639e-06
-8.454e-06
1.31116e-05
1.06117e-06
-1.07488e-05
8.60034e-06
7.74362e-07
-1.28969e-05
2.88767e-06
3.90376e-07
-1.4567e-05
-1.49224e-06
-9.54129e-06
6.49209e-05
9.98332e-06
1.21815e-07
6.39692e-05
1.07809e-05
3.12125e-08
6.19943e-05
8.87216e-06
-3.24921e-07
5.98294e-05
6.15258e-06
-8.5458e-07
5.78597e-05
4.18566e-06
-1.54604e-06
5.60561e-05
2.997e-06
-2.41505e-06
5.42391e-05
2.45043e-06
-3.507e-06
5.22017e-05
2.316e-06
-4.87521e-06
4.9737e-05
2.45187e-06
-6.59238e-06
4.66168e-05
2.75787e-06
-8.73166e-06
4.2568e-05
3.18926e-06
-1.14194e-05
3.723e-05
3.64587e-06
-1.46694e-05
3.00952e-05
4.12928e-06
-1.86883e-05
2.07201e-05
4.2249e-06
-2.26579e-05
8.94924e-06
3.82557e-06
-2.5449e-05
6.11546e-07
-1.64488e-05
6.60926e-05
6.52688e-06
1.21484e-07
6.80264e-05
9.07668e-06
7.82272e-09
6.85709e-05
8.55038e-06
-3.83304e-07
6.80521e-05
6.81867e-06
-9.54637e-07
6.69813e-05
5.27936e-06
-1.6974e-06
6.55789e-05
4.26181e-06
-2.63283e-06
6.38799e-05
3.81533e-06
-3.81166e-06
6.17911e-05
3.82449e-06
-5.29387e-06
5.91456e-05
4.19679e-06
-7.15846e-06
5.57045e-05
4.85563e-06
-9.48934e-06
5.11438e-05
5.77319e-06
-1.24208e-05
4.50099e-05
6.85766e-06
-1.59856e-05
3.6663e-05
8.11635e-06
-2.03876e-05
2.54784e-05
9.0343e-06
-2.47886e-05
1.12296e-05
9.06917e-06
-2.78491e-05
4.35754e-06
-1.79386e-05
6.4874e-05
4.29096e-06
1.31449e-07
6.71329e-05
7.05241e-06
2.27821e-08
6.85189e-05
7.39345e-06
-3.65241e-07
6.89005e-05
6.59134e-06
-9.3051e-07
6.85528e-05
5.6576e-06
-1.66409e-06
6.76664e-05
5.01958e-06
-2.58769e-06
6.63218e-05
4.83651e-06
-3.7513e-06
6.44788e-05
5.10045e-06
-5.21453e-06
6.20057e-05
5.78617e-06
-7.05452e-06
5.86727e-05
6.86686e-06
-9.35685e-06
5.41382e-05
8.35777e-06
-1.22524e-05
4.78982e-05
1.02058e-05
-1.57854e-05
3.92227e-05
1.24617e-05
-2.01502e-05
2.7387e-05
1.45056e-05
-2.45452e-05
1.20124e-05
1.5405e-05
-2.76032e-05
8.82598e-06
-1.77289e-05
6.4001e-05
2.92955e-06
1.50646e-07
6.59434e-05
5.34908e-06
6.36969e-08
6.74681e-05
6.10446e-06
-3.04136e-07
6.82713e-05
5.95123e-06
-8.47432e-07
6.84076e-05
5.56393e-06
-1.55388e-06
6.79715e-05
5.3436e-06
-2.44186e-06
6.70211e-05
5.48684e-06
-3.55695e-06
6.55301e-05
6.05728e-06
-4.95474e-06
6.33897e-05
7.08966e-06
-6.70611e-06
6.03824e-05
8.61848e-06
-8.89384e-06
5.61634e-05
1.0721e-05
-1.1638e-05
5.01803e-05
1.34277e-05
-1.49931e-05
4.15975e-05
1.68959e-05
-1.91339e-05
2.94756e-05
2.04924e-05
-2.33406e-05
1.30802e-05
2.30398e-05
-2.62647e-05
1.45727e-05
-1.68292e-05
6.35489e-05
2.022e-06
1.73799e-07
6.51908e-05
3.95118e-06
1.16662e-07
6.66937e-05
4.84529e-06
-2.22598e-07
6.77155e-05
5.10374e-06
-7.36731e-07
6.81823e-05
5.15515e-06
-1.40847e-06
6.81119e-05
5.32326e-06
-2.25084e-06
6.75296e-05
5.79905e-06
-3.30317e-06
6.64084e-05
6.687e-06
-4.61536e-06
6.46523e-05
8.06979e-06
-6.24981e-06
6.20529e-05
1.00496e-05
-8.2845e-06
5.8265e-05
1.27793e-05
-1.08245e-05
5.26854e-05
1.64252e-05
-1.39351e-05
4.4378e-05
2.13122e-05
-1.77619e-05
3.21189e-05
2.69545e-05
-2.16991e-05
1.46876e-05
3.2149e-05
-2.44275e-05
2.22492e-05
-1.56686e-05
6.33585e-05
1.30719e-06
2.00499e-07
6.48421e-05
2.71758e-06
1.78557e-07
6.63388e-05
3.60198e-06
-1.26391e-07
6.75139e-05
4.11675e-06
-6.05967e-07
6.82361e-05
4.50972e-06
-1.23685e-06
6.84844e-05
5.01054e-06
-2.02503e-06
6.82694e-05
5.78137e-06
-3.00172e-06
6.75754e-05
6.94361e-06
-4.20858e-06
6.63384e-05
8.61087e-06
-5.69589e-06
6.43936e-05
1.09463e-05
-7.53147e-06
6.14563e-05
1.41709e-05
-9.79598e-06
5.69427e-05
1.8639e-05
-1.25573e-05
4.99109e-05
2.4896e-05
-1.59081e-05
3.85621e-05
3.3155e-05
-1.93901e-05
2.06525e-05
4.26928e-05
-2.17109e-05
3.66689e-05
-1.39614e-05
6.3301e-05
2.28945e-07
6.52589e-07
6.47498e-05
2.45023e-07
1.52559e-06
6.62965e-05
-2.25269e-08
2.31964e-06
6.76139e-05
-4.64702e-07
3.00284e-06
6.85498e-05
-1.0518e-06
3.67144e-06
6.90701e-05
-1.78205e-06
4.45459e-06
6.91853e-05
-2.67792e-06
5.4739e-06
6.88957e-05
-3.77206e-06
6.85395e-06
6.81685e-05
-5.1019e-06
8.7274e-06
6.68827e-05
-6.72349e-06
1.13116e-05
6.48188e-05
-8.69162e-06
1.48841e-05
6.14357e-05
-1.10734e-05
2.00214e-05
5.5892e-05
-1.39061e-05
2.74621e-05
4.5981e-05
-1.68931e-05
3.86048e-05
2.90546e-05
-1.88167e-05
5.32602e-05
-1.24948e-05
6.01289e-05
5.02828e-05
1.22798e-05
5.46836e-08
4.0749e-05
9.62621e-06
-1.29988e-09
3.41107e-05
6.70535e-06
-1.90696e-07
3.02526e-05
3.8684e-06
-4.54039e-07
2.79665e-05
2.21684e-06
-7.91269e-07
2.64488e-05
1.34961e-06
-1.21203e-06
2.51779e-05
9.81049e-07
-1.73851e-06
2.38685e-05
8.66773e-07
-2.3901e-06
2.23404e-05
8.89028e-07
-3.19582e-06
2.04671e-05
9.73842e-07
-4.17088e-06
1.81137e-05
1.09881e-06
-5.36374e-06
1.51845e-05
1.19348e-06
-6.71836e-06
1.14725e-05
1.28931e-06
-8.32608e-06
7.12286e-06
1.12429e-06
-9.67158e-06
2.12769e-06
8.48853e-07
-1.04207e-05
-8.88836e-07
-6.52476e-06
6.48646e-05
9.99529e-06
4.17127e-08
6.38009e-05
1.08086e-05
-8.74541e-08
6.16793e-05
8.91042e-06
-4.08419e-07
5.93484e-05
6.19745e-06
-8.52709e-07
5.71983e-05
4.23951e-06
-1.41865e-06
5.51946e-05
3.0651e-06
-2.12681e-06
5.31461e-05
2.54007e-06
-3.0175e-06
5.08337e-05
2.43517e-06
-4.13123e-06
4.80391e-05
2.61128e-06
-5.52007e-06
4.45358e-05
2.9698e-06
-7.22425e-06
4.00626e-05
3.47287e-06
-9.32027e-06
3.43303e-05
4.02146e-06
-1.17651e-05
2.6951e-05
4.63005e-06
-1.46498e-05
1.77919e-05
4.8786e-06
-1.72531e-05
7.17423e-06
4.59649e-06
-1.8579e-05
1.32153e-06
-1.14849e-05
6.60353e-05
6.544e-06
3.74965e-08
6.78518e-05
9.11625e-06
-1.16289e-07
6.82403e-05
8.60858e-06
-4.70003e-07
6.7542e-05
6.8918e-06
-9.50722e-07
6.6274e-05
5.37e-06
-1.55983e-06
6.4652e-05
4.37724e-06
-2.32297e-06
6.26991e-05
3.96674e-06
-3.28543e-06
6.03086e-05
4.02533e-06
-4.49352e-06
5.73008e-05
4.46486e-06
-6.00422e-06
5.34363e-05
5.21075e-06
-7.86584e-06
4.84037e-05
6.24405e-06
-1.01594e-05
4.18245e-05
7.46859e-06
-1.28535e-05
3.31897e-05
8.90753e-06
-1.60303e-05
2.22191e-05
1.00015e-05
-1.89408e-05
9.21574e-06
1.01533e-05
-2.04026e-05
5.13211e-06
-1.25335e-05
6.48181e-05
4.31194e-06
4.54395e-08
6.69612e-05
7.10142e-06
-1.05539e-07
6.81936e-05
7.4681e-06
-4.57171e-07
6.83989e-05
6.68876e-06
-9.32762e-07
6.78578e-05
5.78104e-06
-1.53403e-06
6.67562e-05
5.17828e-06
-2.28715e-06
6.51633e-05
5.04529e-06
-3.23692e-06
6.30254e-05
5.37812e-06
-4.42942e-06
6.01981e-05
6.15789e-06
-5.92021e-06
5.64501e-05
7.36094e-06
-7.75909e-06
5.14516e-05
9.0143e-06
-1.00242e-05
4.47712e-05
1.10564e-05
-1.26928e-05
3.58072e-05
1.35597e-05
-1.58383e-05
2.41776e-05
1.58228e-05
-1.8737e-05
1.00383e-05
1.68682e-05
-2.01788e-05
9.77365e-06
-1.23322e-05
6.39469e-05
2.95372e-06
6.20145e-08
6.57768e-05
5.40605e-06
-7.08323e-08
6.71533e-05
6.19274e-06
-4.05354e-07
6.77881e-05
6.06879e-06
-8.62209e-07
6.77409e-05
5.71487e-06
-1.44054e-06
6.71021e-05
5.53906e-06
-2.16388e-06
6.59189e-05
5.74492e-06
-3.07338e-06
6.41525e-05
6.40183e-06
-4.21201e-06
6.16817e-05
7.55304e-06
-5.63042e-06
5.82874e-05
9.23818e-06
-7.37682e-06
5.36348e-05
1.15503e-05
-9.52137e-06
4.72385e-05
1.45103e-05
-1.20507e-05
3.83814e-05
1.83068e-05
-1.50239e-05
2.64514e-05
2.21924e-05
-1.77802e-05
1.12247e-05
2.49587e-05
-1.91285e-05
1.58047e-05
-1.16355e-05
6.34966e-05
2.04886e-06
8.20802e-08
6.50302e-05
4.01454e-06
-2.54053e-08
6.63917e-05
4.94422e-06
-3.35613e-07
6.72546e-05
5.23687e-06
-7.67711e-07
6.75503e-05
5.32754e-06
-1.3168e-06
6.72928e-05
5.54772e-06
-2.00202e-06
6.64974e-05
6.09658e-06
-2.85941e-06
6.51253e-05
7.08601e-06
-3.92747e-06
6.30694e-05
8.60944e-06
-5.25033e-06
6.01192e-05
1.07771e-05
-6.87321e-06
5.59381e-05
1.37622e-05
-8.85533e-06
4.9983e-05
1.77241e-05
-1.11938e-05
4.14249e-05
2.3031e-05
-1.3928e-05
2.93452e-05
2.90584e-05
-1.64854e-05
1.29894e-05
3.45961e-05
-1.77091e-05
2.38798e-05
-1.07543e-05
6.33083e-05
1.33592e-06
1.05097e-07
6.46886e-05
2.78522e-06
2.76248e-08
6.6052e-05
3.70786e-06
-2.53432e-07
6.70793e-05
4.25996e-06
-6.56315e-07
6.76451e-05
4.69599e-06
-1.17113e-06
6.77252e-05
5.25385e-06
-1.81127e-06
6.73217e-05
6.10457e-06
-2.60622e-06
6.64091e-05
7.37833e-06
-3.58826e-06
6.49141e-05
9.20101e-06
-4.79249e-06
6.26709e-05
1.17467e-05
-6.25786e-06
5.94036e-05
1.52606e-05
-8.02702e-06
5.45792e-05
2.00954e-05
-1.01042e-05
4.73491e-05
2.68495e-05
-1.24965e-05
3.6177e-05
3.55884e-05
-1.4748e-05
1.92008e-05
4.56115e-05
-1.575e-05
3.87005e-05
-9.58134e-06
6.32532e-05
1.2948e-07
6.82156e-07
6.46041e-05
8.44092e-08
1.59491e-06
6.60262e-05
-1.64903e-07
2.4282e-06
6.72075e-05
-5.36193e-07
3.15008e-06
6.80026e-05
-1.01427e-06
3.86345e-06
6.83747e-05
-1.60617e-06
4.70583e-06
6.83276e-05
-2.3343e-06
5.80803e-06
6.78537e-05
-3.2241e-06
7.30428e-06
6.69136e-05
-4.30105e-06
9.34029e-06
6.53862e-05
-5.59663e-06
1.21472e-05
6.30626e-05
-7.1359e-06
1.60284e-05
5.94443e-05
-8.92821e-06
2.15685e-05
5.37727e-05
-1.09478e-05
2.95627e-05
4.40553e-05
-1.28672e-05
4.12798e-05
2.79419e-05
-1.36686e-05
5.65768e-05
-8.57434e-06
6.27219e-05
5.02522e-05
1.22836e-05
1.88199e-08
4.06576e-05
9.63672e-06
-4.34321e-08
3.39447e-05
6.71819e-06
-1.95973e-07
3.00071e-05
3.88153e-06
-3.97929e-07
2.76366e-05
2.23181e-06
-6.52558e-07
2.60256e-05
1.36861e-06
-9.69643e-07
2.46468e-05
1.00642e-06
-1.36615e-06
2.32106e-05
9.00587e-07
-1.8545e-06
2.15337e-05
9.34119e-07
-2.45301e-06
1.94943e-05
1.03369e-06
-3.16517e-06
1.69688e-05
1.17951e-06
-4.01779e-06
1.39e-05
1.30433e-06
-4.95389e-06
1.01493e-05
1.44406e-06
-6.01941e-06
5.9729e-06
1.35068e-06
-6.84588e-06
1.57961e-06
1.12753e-06
-7.15497e-06
-5.64291e-07
-4.38087e-06
6.48203e-05
1.00055e-05
-4.65576e-10
6.36677e-05
1.08321e-05
-1.3016e-07
6.14269e-05
8.94285e-06
-3.92344e-07
5.89581e-05
6.23564e-06
-7.37969e-07
5.66556e-05
4.28525e-06
-1.16959e-06
5.44815e-05
3.12262e-06
-1.70671e-06
5.22363e-05
2.61527e-06
-2.38123e-06
4.96927e-05
2.53445e-06
-3.22149e-06
4.66255e-05
2.74306e-06
-4.26179e-06
4.28126e-05
3.1434e-06
-5.52108e-06
3.8011e-05
3.70248e-06
-7.04157e-06
3.19957e-05
4.32104e-06
-8.76649e-06
2.44958e-05
5.02213e-06
-1.07279e-05
1.561e-05
5.37653e-06
-1.23931e-05
5.98103e-06
5.16609e-06
-1.29886e-05
1.79241e-06
-7.8606e-06
6.59901e-05
6.55879e-06
-5.92277e-09
6.77135e-05
9.1501e-06
-1.57702e-07
6.79753e-05
8.65834e-06
-4.47299e-07
6.7128e-05
6.95436e-06
-8.2211e-07
6.56935e-05
5.44737e-06
-1.28744e-06
6.38847e-05
4.47539e-06
-1.86694e-06
6.17162e-05
4.0949e-06
-2.59665e-06
5.90721e-05
4.19452e-06
-3.50947e-06
5.57647e-05
4.68955e-06
-4.64331e-06
5.15584e-05
5.50663e-06
-6.02276e-06
4.61604e-05
6.63346e-06
-7.69233e-06
3.92609e-05
7.9692e-06
-9.60211e-06
3.04784e-05
9.54842e-06
-1.17742e-05
1.97912e-05
1.07738e-05
-1.36509e-05
7.86139e-06
1.1007e-05
-1.43137e-05
5.71898e-06
-8.59865e-06
6.47741e-05
4.33015e-06
-1.85592e-11
6.68255e-05
7.14357e-06
-1.5039e-07
6.79333e-05
7.5321e-06
-4.38696e-07
6.79922e-05
6.77218e-06
-8.09521e-07
6.72878e-05
5.88649e-06
-1.26871e-06
6.6003e-05
5.31342e-06
-1.84044e-06
6.4199e-05
5.22243e-06
-2.56041e-06
6.18127e-05
5.6128e-06
-3.46144e-06
5.86917e-05
6.47075e-06
-4.58041e-06
5.46077e-05
7.7747e-06
-5.94317e-06
4.92484e-05
9.56065e-06
-7.59204e-06
4.22493e-05
1.17591e-05
-9.48354e-06
3.31342e-05
1.4458e-05
-1.16328e-05
2.17801e-05
1.68908e-05
-1.34999e-05
8.70753e-06
1.80453e-05
-1.41444e-05
1.05419e-05
-8.44757e-06
6.39044e-05
2.97467e-06
1.30953e-08
6.56453e-05
5.45505e-06
-1.23248e-07
6.69019e-05
6.26841e-06
-3.98188e-07
6.73968e-05
6.16937e-06
-7.54312e-07
6.71946e-05
5.84375e-06
-1.19564e-06
6.6383e-05
5.7055e-06
-1.74436e-06
6.50015e-05
5.96401e-06
-2.43345e-06
6.30024e-05
6.69335e-06
-3.29345e-06
6.02568e-05
7.94365e-06
-4.35775e-06
5.65479e-05
9.75816e-06
-5.65139e-06
5.15565e-05
1.22421e-05
-7.21131e-06
4.48593e-05
1.54071e-05
-9.00148e-06
3.5857e-05
1.94643e-05
-1.10279e-05
2.41866e-05
2.35769e-05
-1.27959e-05
9.97556e-06
2.65101e-05
-1.33823e-05
1.68329e-05
-7.95096e-06
6.34557e-05
2.07205e-06
2.90191e-08
6.49038e-05
4.06892e-06
-8.74281e-08
6.61511e-05
5.02887e-06
-3.43299e-07
6.68822e-05
5.35059e-06
-6.80049e-07
6.70332e-05
5.47453e-06
-1.09864e-06
6.6616e-05
5.73871e-06
-1.61795e-06
6.56385e-05
6.3491e-06
-2.26707e-06
6.40541e-05
7.42366e-06
-3.07332e-06
6.17483e-05
9.06451e-06
-4.0654e-06
5.85122e-05
1.13877e-05
-5.26667e-06
5.40232e-05
1.45825e-05
-6.70673e-06
4.77942e-05
1.88004e-05
-8.35819e-06
3.91043e-05
2.4441e-05
-1.02148e-05
2.72684e-05
3.07724e-05
-1.18451e-05
1.18542e-05
3.65735e-05
-1.23582e-05
2.52584e-05
-7.32556e-06
6.32693e-05
1.36059e-06
4.72303e-08
6.45684e-05
2.84308e-06
-4.56297e-08
6.58243e-05
3.79824e-06
-2.7866e-07
6.67291e-05
4.38206e-06
-5.92627e-07
6.71626e-05
4.85462e-06
-9.84684e-07
6.70987e-05
5.46072e-06
-1.46935e-06
6.65335e-05
6.37886e-06
-2.07086e-06
6.54347e-05
7.74634e-06
-2.81212e-06
6.37232e-05
9.69908e-06
-3.7156e-06
6.12348e-05
1.24194e-05
-4.80107e-06
5.77065e-05
1.61713e-05
-6.08757e-06
5.26534e-05
2.13045e-05
-7.55521e-06
4.53221e-05
2.8455e-05
-9.17927e-06
3.43812e-05
3.75758e-05
-1.06105e-05
1.82363e-05
4.79759e-05
-1.10075e-05
4.04563e-05
-6.54294e-06
6.32162e-05
6.64521e-08
7.0741e-07
6.44906e-05
-9.46434e-10
1.65401e-06
6.58124e-05
-2.09109e-07
2.52064e-06
6.68814e-05
-4.98461e-07
3.27538e-06
6.75571e-05
-8.6208e-07
4.02673e-06
6.78021e-05
-1.30967e-06
4.91926e-06
6.76153e-05
-1.86017e-06
6.09149e-06
6.69837e-05
-2.53166e-06
7.6855e-06
6.5864e-05
-3.33995e-06
9.85771e-06
6.41373e-05
-4.30035e-06
1.28498e-05
6.1608e-05
-5.42072e-06
1.69854e-05
5.78183e-05
-6.68729e-06
2.28533e-05
5.20932e-05
-8.05717e-06
3.12894e-05
4.2609e-05
-9.27144e-06
4.34643e-05
2.72239e-05
-9.57221e-06
5.92646e-05
-5.86925e-06
6.49751e-05
5.02301e-05
1.22866e-05
2.12101e-09
4.05909e-05
9.64492e-06
-4.91995e-08
3.38226e-05
6.72826e-06
-1.55876e-07
2.98256e-05
3.892e-06
-2.92972e-07
2.73929e-05
2.24385e-06
-4.6367e-07
2.5715e-05
1.38403e-06
-6.75864e-07
2.42626e-05
1.02722e-06
-9.40907e-07
2.27455e-05
9.28698e-07
-1.26607e-06
2.0982e-05
9.72282e-07
-1.66186e-06
1.88582e-05
1.08547e-06
-2.12687e-06
1.62639e-05
1.25086e-06
-2.6743e-06
1.3166e-05
1.40393e-06
-3.25994e-06
9.466e-06
1.5845e-06
-3.90389e-06
5.44092e-06
1.55131e-06
-4.37211e-06
1.37788e-06
1.37881e-06
-4.47075e-06
-3.05277e-07
-2.69771e-06
6.4788e-05
1.00136e-05
-1.53773e-08
6.35697e-05
1.08505e-05
-1.17399e-07
6.12399e-05
8.96832e-06
-3.02611e-07
5.86674e-05
6.26577e-06
-5.393e-07
5.62511e-05
4.32134e-06
-8.30681e-07
5.39521e-05
3.16799e-06
-1.19169e-06
5.15678e-05
2.67454e-06
-1.64424e-06
4.88684e-05
2.61274e-06
-2.20616e-06
4.56296e-05
2.84713e-06
-2.89789e-06
4.16397e-05
3.28091e-06
-3.72658e-06
3.66767e-05
3.88507e-06
-4.71279e-06
3.05615e-05
4.56058e-06
-5.8079e-06
2.30972e-05
5.33738e-06
-7.01648e-06
1.44693e-05
5.77801e-06
-7.99195e-06
5.44064e-06
5.63257e-06
-8.21369e-06
2.16973e-06
-4.89497e-06
6.59572e-05
6.57051e-06
-2.00316e-08
6.76117e-05
9.17677e-06
-1.38555e-07
6.77788e-05
8.69748e-06
-3.43503e-07
6.68194e-05
7.00357e-06
-6.00521e-07
6.52602e-05
5.50811e-06
-9.15066e-07
6.3314e-05
4.55218e-06
-1.3049e-06
6.09921e-05
4.19476e-06
-1.79493e-06
5.81756e-05
4.32582e-06
-2.40611e-06
5.46775e-05
4.86319e-06
-3.16123e-06
5.02722e-05
5.73439e-06
-4.071e-06
4.469e-05
6.93203e-06
-5.15702e-06
3.76707e-05
8.35203e-06
-6.37426e-06
2.89157e-05
1.00373e-05
-7.71924e-06
1.85059e-05
1.13637e-05
-8.82676e-06
7.23946e-06
1.16635e-05
-9.07824e-06
6.17611e-06
-5.36557e-06
6.47421e-05
4.34459e-06
-1.61633e-08
6.67257e-05
7.17681e-06
-1.34039e-07
6.77403e-05
7.58245e-06
-3.38279e-07
6.76892e-05
6.83767e-06
-5.92568e-07
6.68626e-05
5.969e-06
-9.02915e-07
6.54431e-05
5.41864e-06
-1.28745e-06
6.34888e-05
5.35955e-06
-1.77091e-06
6.09342e-05
5.79327e-06
-2.37422e-06
5.76269e-05
6.70956e-06
-3.11952e-06
5.33486e-05
8.08794e-06
-4.01842e-06
4.78093e-05
9.97044e-06
-5.09111e-06
4.06933e-05
1.22812e-05
-6.29669e-06
3.16062e-05
1.51186e-05
-7.62705e-06
2.05267e-05
1.76713e-05
-8.72795e-06
8.11104e-06
1.89009e-05
-8.96615e-06
1.11053e-05
-5.26567e-06
6.38735e-05
2.99126e-06
-7.09395e-09
6.55489e-05
5.49365e-06
-1.1542e-07
6.67158e-05
6.32786e-06
-3.10506e-07
6.71057e-05
6.24815e-06
-5.54686e-07
6.67876e-05
5.94428e-06
-8.52819e-07
6.5849e-05
5.83459e-06
-1.22171e-06
6.43266e-05
6.13277e-06
-1.68429e-06
6.21704e-05
6.91603e-06
-2.26e-06
5.92519e-05
8.23907e-06
-2.96877e-06
5.53634e-05
1.01468e-05
-3.82185e-06
5.02068e-05
1.2752e-05
-4.83617e-06
4.34044e-05
1.6058e-05
-5.97598e-06
3.44335e-05
2.02894e-05
-7.22783e-06
2.30263e-05
2.4549e-05
-8.2664e-06
9.4369e-06
2.75796e-05
-8.47159e-06
1.75387e-05
-4.94744e-06
6.3426e-05
2.09034e-06
3.92916e-09
6.48113e-05
4.11167e-06
-9.07152e-08
6.59733e-05
5.09524e-06
-2.72681e-07
6.66055e-05
5.43947e-06
-5.0356e-07
6.66484e-05
5.58888e-06
-7.86163e-07
6.61137e-05
5.88635e-06
-1.13506e-06
6.50073e-05
6.54276e-06
-1.57059e-06
6.328e-05
7.68005e-06
-2.11012e-06
6.08184e-05
9.4059e-06
-2.77057e-06
5.74218e-05
1.1839e-05
-3.56233e-06
5.27872e-05
1.51778e-05
-4.4979e-06
4.64692e-05
1.95653e-05
-5.54752e-06
3.78169e-05
2.54179e-05
-6.69092e-06
2.62314e-05
3.19322e-05
-7.64286e-06
1.13903e-05
3.78705e-05
-7.80798e-06
2.61497e-05
-4.5463e-06
6.32411e-05
1.37997e-06
1.65228e-08
6.44805e-05
2.88846e-06
-6.18832e-08
6.56563e-05
3.86896e-06
-2.2815e-07
6.64693e-05
4.47728e-06
-4.4343e-07
6.68037e-05
4.97775e-06
-7.07955e-07
6.66339e-05
5.62024e-06
-1.03339e-06
6.59541e-05
6.58854e-06
-1.43685e-06
6.47303e-05
8.02459e-06
-1.93291e-06
6.28848e-05
1.00705e-05
-2.53463e-06
6.02608e-05
1.29124e-05
-3.25052e-06
5.66136e-05
1.68244e-05
-4.087e-06
5.14944e-05
2.21494e-05
-5.02013e-06
4.42115e-05
2.95416e-05
-6.02002e-06
3.35071e-05
3.88792e-05
-6.85298e-06
1.78713e-05
4.94611e-05
-6.9623e-06
4.15459e-05
-4.06787e-06
6.31895e-05
2.97882e-08
7.27161e-07
6.44078e-05
-3.1089e-08
1.70024e-06
6.56551e-05
-1.80264e-07
2.59282e-06
6.66397e-05
-3.78694e-07
3.3729e-06
6.7226e-05
-6.23843e-07
4.15322e-06
6.73773e-05
-9.24139e-07
5.08348e-06
6.70912e-05
-1.29321e-06
6.30762e-06
6.6354e-05
-1.74254e-06
7.97274e-06
6.51239e-05
-2.28105e-06
1.02417e-05
6.32897e-05
-2.91482e-06
1.33611e-05
6.06725e-05
-3.64383e-06
1.76648e-05
5.68456e-05
-4.44911e-06
2.37381e-05
5.11875e-05
-5.29172e-06
3.24343e-05
4.19328e-05
-5.99448e-06
4.48569e-05
2.69951e-05
-6.06221e-06
6.08888e-05
-3.65312e-06
6.63248e-05
5.02153e-05
1.22887e-05