/*--------------------------------*- C++ -*----------------------------------*\
| =========                 |                                                 |
| \\      /  F ield         | OpenFOAM: The Open Source CFD Toolbox           |
|  \\    /   O peration     | Version:  v1912                                 |
|   \\  /    A nd           | Website:  www.openfoam.com                      |
|    \\/     M anipulation  |                                                 |
\*---------------------------------------------------------------------------*/
FoamFile
{
    version     2.0;
    format      ascii;
    class       pointVectorField;
    location    "0.47/fluid";
    object      pointMotionU;
}
// * * * * * * * * * * * * * * * * * * * * * * * * * * * * * * * * * * * * * //

dimensions      [0 1 -1 0 0 0 0];


internalField   nonuniform List<vector> 
16859
(
(0 0 0)
(0 0 0)
(0 0 0)
(0 0 0)
(0 0 0)
(0 0 0)
(0 0 0)
(0 0 0)
(0 0 0)
(0 0 0)
(0 0 0)
(0 0 0)
(0 0 0)
(0 0 0)
(0 0 0)
(0 0 0)
(2.38757e-08 4.03457e-08 2.33025e-08)
(0 0 0)
(6.41245e-10 -1.43684e-09 1.11668e-09)
(1.22295e-09 -2.74934e-09 2.17546e-09)
(1.76688e-09 -3.98988e-09 3.25192e-09)
(2.29274e-09 -5.197e-09 4.41291e-09)
(2.81954e-09 -6.39388e-09 5.72049e-09)
(3.36765e-09 -7.58598e-09 7.23464e-09)
(3.96158e-09 -8.75603e-09 9.01443e-09)
(4.63451e-09 -9.85348e-09 1.11181e-08)
(5.4376e-09 -1.07756e-08 1.36024e-08)
(6.46046e-09 -1.13339e-08 1.6525e-08)
(7.87529e-09 -1.11902e-08 1.99545e-08)
(1.00362e-08 -9.72554e-09 2.40167e-08)
(1.36756e-08 -5.76886e-09 2.90245e-08)
(2.01663e-08 2.84426e-09 3.57471e-08)
(3.02696e-08 1.76827e-08 4.4671e-08)
(4.82295e-08 4.85137e-08 5.64679e-08)
(0 0 0)
(1.26874e-09 -2.83118e-09 2.2049e-09)
(2.41927e-09 -5.41923e-09 4.2948e-09)
(3.49417e-09 -7.86846e-09 6.41802e-09)
(4.53181e-09 -1.02564e-08 8.70555e-09)
(5.56941e-09 -1.26326e-08 1.12794e-08)
(6.64633e-09 -1.5014e-08 1.42575e-08)
(7.80841e-09 -1.73766e-08 1.77552e-08)
(9.11479e-09 -1.96383e-08 2.18853e-08)
(1.06505e-08 -2.16301e-08 2.67548e-08)
(1.25512e-08 -2.30493e-08 3.24595e-08)
(1.50519e-08 -2.33879e-08 3.90819e-08)
(1.85817e-08 -2.18327e-08 4.67062e-08)
(2.38846e-08 -1.71962e-08 5.54594e-08)
(3.19745e-08 -8.17232e-09 6.55177e-08)
(4.23048e-08 4.16819e-09 7.59111e-08)
(6.24755e-08 2.13249e-08 9.32084e-08)
(0 0 0)
(1.86951e-09 -4.14078e-09 3.23815e-09)
(3.56391e-09 -7.92998e-09 6.3057e-09)
(5.14493e-09 -1.15234e-08 9.41862e-09)
(6.66817e-09 -1.50393e-08 1.27675e-08)
(8.18755e-09 -1.85582e-08 1.65304e-08)
(9.75922e-09 -2.21184e-08 2.08789e-08)
(1.14465e-08 -2.57061e-08 2.59813e-08)
(1.33264e-08 -2.92382e-08 3.20021e-08)
(1.54995e-08 -3.2532e-08 3.9095e-08)
(1.81054e-08 -3.52613e-08 4.73878e-08)
(2.13505e-08 -3.69007e-08 5.69594e-08)
(2.55529e-08 -3.6681e-08 6.78096e-08)
(3.1172e-08 -3.36613e-08 7.98155e-08)
(3.86924e-08 -2.71873e-08 9.26448e-08)
(4.73039e-08 -1.87544e-08 1.04687e-07)
(6.32916e-08 -7.2715e-09 1.21788e-07)
(0 0 0)
(2.43128e-09 -5.32261e-09 4.19194e-09)
(4.63307e-09 -1.01997e-08 8.15972e-09)
(6.68405e-09 -1.48375e-08 1.21798e-08)
(8.65509e-09 -1.93959e-08 1.64959e-08)
(1.06147e-08 -2.39912e-08 2.13354e-08)
(1.26338e-08 -2.86926e-08 2.6918e-08)
(1.47901e-08 -3.35152e-08 3.34597e-08)
(1.71742e-08 -3.84055e-08 4.11735e-08)
(1.98945e-08 -4.32174e-08 5.02606e-08)
(2.30806e-08 -4.76757e-08 6.08894e-08)
(2.6885e-08 -5.13304e-08 7.31568e-08)
(3.14779e-08 -5.35133e-08 8.70222e-08)
(3.69976e-08 -5.33634e-08 1.02181e-07)
(4.34239e-08 -5.00912e-08 1.17853e-07)
(4.98351e-08 -4.43058e-08 1.31628e-07)
(6.20194e-08 -3.36499e-08 1.48602e-07)
(0 0 0)
(2.94329e-09 -6.33454e-09 5.0457e-09)
(5.60593e-09 -1.21474e-08 9.81624e-09)
(8.08075e-09 -1.76926e-08 1.46393e-08)
(1.04514e-08 -2.31712e-08 1.98034e-08)
(1.27987e-08 -2.87375e-08 2.55769e-08)
(1.52057e-08 -3.4499e-08 3.2219e-08)
(1.77633e-08 -4.05132e-08 3.99863e-08)
(2.05756e-08 -4.67807e-08 4.91349e-08)
(2.37634e-08 -5.32302e-08 5.99145e-08)
(2.74624e-08 -5.96951e-08 7.25491e-08)
(3.18164e-08 -6.58739e-08 8.72006e-08)
(3.69452e-08 -7.12629e-08 1.03894e-07)
(4.28501e-08 -7.5046e-08 1.22343e-07)
(4.92283e-08 -7.59733e-08 1.41592e-07)
(5.48778e-08 -7.30627e-08 1.58397e-07)
(6.49222e-08 -6.12997e-08 1.76964e-07)
(0 0 0)
(3.39668e-09 -7.1366e-09 5.78372e-09)
(6.4654e-09 -1.36961e-08 1.12442e-08)
(9.30982e-09 -1.99749e-08 1.67499e-08)
(1.20232e-08 -2.62118e-08 2.26237e-08)
(1.46955e-08 -3.25983e-08 2.91646e-08)
(1.74195e-08 -3.9282e-08 3.66608e-08)
(2.02971e-08 -4.6369e-08 4.53984e-08)
(2.34464e-08 -5.39249e-08 5.56662e-08)
(2.70079e-08 -6.19737e-08 6.77556e-08)
(3.11508e-08 -7.04924e-08 8.19517e-08)
(3.6078e-08 -7.93967e-08 9.85166e-08)
(4.20217e-08 -8.84966e-08 1.1765e-07)
(4.91798e-08 -9.7354e-08 1.39352e-07)
(5.74958e-08 -1.04916e-07 1.63005e-07)
(6.55205e-08 -1.08946e-07 1.84899e-07)
(7.76796e-08 -9.93261e-08 2.09179e-07)
(0 0 0)
(3.7849e-09 -7.69295e-09 6.39582e-09)
(7.19902e-09 -1.47762e-08 1.2424e-08)
(1.0353e-08 -2.15802e-08 1.84818e-08)
(1.33458e-08 -2.83753e-08 2.4915e-08)
(1.62729e-08 -3.53846e-08 3.20418e-08)
(1.92325e-08 -4.27915e-08 4.01663e-08)
(2.23333e-08 -5.07467e-08 4.95891e-08)
(2.57031e-08 -5.93762e-08 6.06145e-08)
(2.95006e-08 -6.8792e-08 7.35551e-08)
(3.39322e-08 -7.91068e-08 8.87344e-08)
(3.92829e-08 -9.04572e-08 1.06497e-07)
(4.59672e-08 -1.03036e-07 1.27223e-07)
(5.45838e-08 -1.17104e-07 1.51313e-07)
(6.58698e-08 -1.32838e-07 1.78951e-07)
(7.8901e-08 -1.48446e-07 2.06926e-07)
(1.03069e-07 -1.6663e-07 2.44422e-07)
(0 0 0)
(4.10416e-09 -7.97405e-09 6.87794e-09)
(7.80007e-09 -1.53305e-08 1.33485e-08)
(1.12009e-08 -2.24228e-08 1.98253e-08)
(1.44072e-08 -2.95427e-08 2.66653e-08)
(1.75152e-08 -3.69361e-08 3.4193e-08)
(2.06232e-08 -4.48125e-08 4.27148e-08)
(2.38393e-08 -5.33547e-08 5.25284e-08)
(2.7291e-08 -6.27298e-08 6.39307e-08)
(3.11379e-08 -7.31044e-08 7.72226e-08)
(3.55921e-08 -8.46658e-08 9.27144e-08)
(4.0954e-08 -9.76559e-08 1.10741e-07)
(4.7667e-08 -1.12426e-07 1.31687e-07)
(5.6376e-08 -1.29503e-07 1.56008e-07)
(6.78698e-08 -1.49571e-07 1.84137e-07)
(8.08971e-08 -1.70654e-07 2.12768e-07)
(1.18387e-07 -2.12356e-07 2.64284e-07)
(0 0 0)
(0 0 0)
(0 0 0)
(0 0 0)
(0 0 0)
(0 0 0)
(0 0 0)
(0 0 0)
(0 0 0)
(0 0 0)
(0 0 0)
(0 0 0)
(0 0 0)
(0 0 0)
(0 0 0)
(0 0 0)
(1.25452e-08 2.00865e-08 1.03688e-08)
(0 0 0)
(6.40452e-10 -1.46792e-09 1.0813e-09)
(1.22016e-09 -2.8089e-09 2.10497e-09)
(1.75982e-09 -4.077e-09 3.14294e-09)
(2.27778e-09 -5.31251e-09 4.25867e-09)
(2.79111e-09 -6.54039e-09 5.51056e-09)
(3.31705e-09 -7.76798e-09 6.95411e-09)
(3.87503e-09 -8.98044e-09 8.64233e-09)
(4.49012e-09 -1.01314e-08 1.06248e-08)
(5.20033e-09 -1.11262e-08 1.29447e-08)
(6.07375e-09 -1.17933e-08 1.56356e-08)
(7.24786e-09 -1.18301e-08 1.87199e-08)
(9.01831e-09 -1.06958e-08 2.22226e-08)
(1.20076e-08 -7.39458e-09 2.62186e-08)
(1.73324e-08 -2.0173e-10 3.08879e-08)
(2.5548e-08 1.20153e-08 3.59954e-08)
(3.44541e-08 2.79044e-08 3.79224e-08)
(0 0 0)
(1.26749e-09 -2.89197e-09 2.13485e-09)
(2.4145e-09 -5.53573e-09 4.15528e-09)
(3.48162e-09 -8.03914e-09 6.20266e-09)
(4.5048e-09 -1.04832e-08 8.40133e-09)
(5.51754e-09 -1.29204e-08 1.08661e-08)
(6.55334e-09 -1.53714e-08 1.3706e-08)
(7.64866e-09 -1.78161e-08 1.70249e-08)
(8.84759e-09 -2.01798e-08 2.09195e-08)
(1.02109e-08 -2.23069e-08 2.54719e-08)
(1.18351e-08 -2.39228e-08 3.07373e-08)
(1.38949e-08 -2.45774e-08 3.67254e-08)
(1.67258e-08 -2.358e-08 4.33795e-08)
(2.09375e-08 -1.99915e-08 5.0547e-08)
(2.7368e-08 -1.29963e-08 5.78885e-08)
(3.57651e-08 -3.79736e-09 6.43833e-08)
(4.50165e-08 1.39804e-09 6.94656e-08)
(0 0 0)
(1.8686e-09 -4.22908e-09 3.13515e-09)
(3.55893e-09 -8.09936e-09 6.10072e-09)
(5.13017e-09 -1.1772e-08 9.10269e-09)
(6.63466e-09 -1.53699e-08 1.23221e-08)
(8.12139e-09 -1.8978e-08 1.59264e-08)
(9.63875e-09 -2.26387e-08 2.00744e-08)
(1.12376e-08 -2.63436e-08 2.49183e-08)
(1.29752e-08 -3.00177e-08 3.06004e-08)
(1.49198e-08 -3.34935e-08 3.72419e-08)
(1.71597e-08 -3.64752e-08 4.49207e-08)
(1.98223e-08 -3.84999e-08 5.3634e-08)
(2.31072e-08 -3.89274e-08 6.32387e-08)
(2.73189e-08 -3.707e-08 7.33614e-08)
(3.28016e-08 -3.27338e-08 8.32615e-08)
(3.91611e-08 -2.75221e-08 9.14829e-08)
(4.51169e-08 -2.56021e-08 9.67803e-08)
(0 0 0)
(2.43182e-09 -5.43554e-09 4.05868e-09)
(4.63034e-09 -1.04165e-08 7.89479e-09)
(6.67141e-09 -1.5156e-08 1.17721e-08)
(8.62228e-09 -1.98198e-08 1.59221e-08)
(1.0546e-08 -2.45292e-08 2.05588e-08)
(1.25048e-08 -2.93582e-08 2.58856e-08)
(1.45627e-08 -3.4327e-08 3.20989e-08)
(1.67884e-08 -3.93897e-08 3.93847e-08)
(1.92543e-08 -4.44128e-08 4.79066e-08)
(2.2033e-08 -4.91458e-08 5.77782e-08)
(2.5187e-08 -5.31877e-08 6.90128e-08)
(2.87466e-08 -5.59693e-08 8.14354e-08)
(3.26607e-08 -5.6821e-08 9.45249e-08)
(3.67401e-08 -5.53023e-08 1.07158e-07)
(4.04959e-08 -5.21522e-08 1.1717e-07)
(4.35843e-08 -5.06343e-08 1.22699e-07)
(0 0 0)
(2.9465e-09 -6.46854e-09 4.88568e-09)
(5.60809e-09 -1.24049e-08 9.4984e-09)
(8.07482e-09 -1.8071e-08 1.4151e-08)
(1.04268e-08 -2.36748e-08 1.91173e-08)
(1.27395e-08 -2.93763e-08 2.46499e-08)
(1.50877e-08 -3.52877e-08 3.09898e-08)
(1.75492e-08 -4.14712e-08 3.83703e-08)
(2.02066e-08 -4.79326e-08 4.70173e-08)
(2.31464e-08 -5.46086e-08 5.71388e-08)
(2.64498e-08 -6.13467e-08 6.89002e-08)
(3.01708e-08 -6.78714e-08 8.23761e-08)
(3.42835e-08 -7.37265e-08 9.74568e-08)
(3.85691e-08 -7.81786e-08 1.13649e-07)
(4.24728e-08 -8.01249e-08 1.29666e-07)
(4.51054e-08 -7.8676e-08 1.42616e-07)
(4.58581e-08 -7.59555e-08 1.49721e-07)
(0 0 0)
(3.40367e-09 -7.28734e-09 5.60098e-09)
(6.47479e-09 -1.39858e-08 1.08816e-08)
(9.31465e-09 -2.04008e-08 1.61936e-08)
(1.20134e-08 -2.67789e-08 2.18435e-08)
(1.46566e-08 -3.33173e-08 2.81129e-08)
(1.73296e-08 -4.01684e-08 3.52699e-08)
(2.01234e-08 -4.74419e-08 4.35754e-08)
(2.31381e-08 -5.52064e-08 5.32855e-08)
(2.64864e-08 -6.3489e-08 6.46468e-08)
(3.02928e-08 -7.22707e-08 7.7881e-08)
(3.46882e-08 -8.14727e-08 9.31552e-08)
(3.97841e-08 -9.09092e-08 1.10518e-07)
(4.55873e-08 -1.00135e-07 1.29724e-07)
(5.17764e-08 -1.08036e-07 1.4975e-07)
(5.70986e-08 -1.12378e-07 1.67287e-07)
(5.7662e-08 -1.08386e-07 1.78863e-07)
(0 0 0)
(3.79644e-09 -7.85537e-09 6.19469e-09)
(7.21735e-09 -1.50885e-08 1.20253e-08)
(1.03715e-08 -2.20396e-08 1.78711e-08)
(1.33557e-08 -2.89871e-08 2.40605e-08)
(1.62617e-08 -3.61602e-08 3.0893e-08)
(1.91825e-08 -4.3747e-08 3.86519e-08)
(2.22184e-08 -5.19007e-08 4.76116e-08)
(2.54846e-08 -6.07484e-08 5.80427e-08)
(2.91202e-08 -7.04013e-08 7.02115e-08)
(3.33028e-08 -8.09693e-08 8.43749e-08)
(3.82729e-08 -9.25834e-08 1.00774e-07)
(4.43775e-08 -1.05425e-07 1.19616e-07)
(5.21301e-08 -1.19732e-07 1.41e-07)
(6.21838e-08 -1.35598e-07 1.64542e-07)
(7.40468e-08 -1.5146e-07 1.87312e-07)
(8.48047e-08 -1.65387e-07 2.05463e-07)
(0 0 0)
(4.12065e-09 -8.14247e-09 6.66285e-09)
(7.82819e-09 -1.56545e-08 1.29227e-08)
(1.12346e-08 -2.28998e-08 1.91741e-08)
(1.44391e-08 -3.01785e-08 2.57564e-08)
(1.75354e-08 -3.77426e-08 3.29751e-08)
(2.06185e-08 -4.58062e-08 4.11156e-08)
(2.3791e-08 -5.45536e-08 5.04501e-08)
(2.71728e-08 -6.41518e-08 6.12424e-08)
(3.09121e-08 -7.47638e-08 7.37484e-08)
(3.5206e-08 -8.65691e-08 8.82138e-08)
(4.03339e-08 -9.97957e-08 1.04871e-07)
(4.6714e-08 -1.14772e-07 1.23937e-07)
(5.49761e-08 -1.31984e-07 1.45567e-07)
(6.59314e-08 -1.5199e-07 1.69601e-07)
(7.8759e-08 -1.72997e-07 1.92958e-07)
(1.02858e-07 -2.04279e-07 2.20015e-07)
(0 0 0)
(0 0 0)
(0 0 0)
(0 0 0)
(0 0 0)
(0 0 0)
(0 0 0)
(0 0 0)
(0 0 0)
(0 0 0)
(0 0 0)
(0 0 0)
(0 0 0)
(0 0 0)
(0 0 0)
(0 0 0)
(4.0952e-09 7.87022e-09 2.57656e-09)
(0 0 0)
(6.36515e-10 -1.49499e-09 1.00635e-09)
(1.21107e-09 -2.86102e-09 1.95787e-09)
(1.74266e-09 -4.15348e-09 2.92035e-09)
(2.24749e-09 -5.41394e-09 3.95137e-09)
(2.73964e-09 -6.66918e-09 5.10332e-09)
(3.23163e-09 -7.92904e-09 6.42462e-09)
(3.73512e-09 -9.18284e-09 7.95927e-09)
(4.26218e-09 -1.03922e-08 9.74428e-09)
(4.82812e-09 -1.14797e-08 1.18036e-08)
(5.45939e-09 -1.23112e-08 1.41368e-08)
(6.21227e-09 -1.26691e-08 1.66995e-08)
(7.20903e-09 -1.22115e-08 1.93686e-08)
(8.68045e-09 -1.04213e-08 2.18705e-08)
(1.08979e-08 -6.66383e-09 2.36226e-08)
(1.35267e-08 -1.13465e-09 2.35949e-08)
(1.34045e-08 4.34218e-09 1.65249e-08)
(0 0 0)
(1.26012e-09 -2.94483e-09 1.98678e-09)
(2.39744e-09 -5.63739e-09 3.86469e-09)
(3.44937e-09 -8.18827e-09 5.76313e-09)
(4.44791e-09 -1.0681e-08 7.79517e-09)
(5.42092e-09 -1.31715e-08 1.00637e-08)
(6.393e-09 -1.56842e-08 1.26637e-08)
(7.3863e-09 -1.8206e-08 1.56819e-08)
(8.42122e-09 -2.06753e-08 1.91911e-08)
(9.518e-09 -2.29642e-08 2.32382e-08)
(1.0702e-08 -2.4856e-08 2.78205e-08)
(1.20175e-08 -2.60252e-08 3.28427e-08)
(1.35493e-08 -2.60427e-08 3.80401e-08)
(1.54234e-08 -2.4491e-08 4.28391e-08)
(1.76492e-08 -2.14049e-08 4.61401e-08)
(1.95723e-08 -1.82409e-08 4.64957e-08)
(1.88379e-08 -1.95395e-08 4.06796e-08)
(0 0 0)
(1.85887e-09 -4.30565e-09 2.91771e-09)
(3.53623e-09 -8.24654e-09 5.67412e-09)
(5.08698e-09 -1.19878e-08 8.45796e-09)
(6.5582e-09 -1.56561e-08 1.1434e-08)
(7.99116e-09 -1.934e-08 1.4752e-08)
(9.42234e-09 -2.30868e-08 1.85508e-08)
(1.08838e-08 -2.68953e-08 2.29579e-08)
(1.24017e-08 -3.07045e-08 2.80823e-08)
(1.39927e-08 -3.43754e-08 3.39978e-08)
(1.56576e-08 -3.76718e-08 4.0709e-08)
(1.73712e-08 -4.0253e-08 4.80913e-08)
(1.90616e-08 -4.1722e-08 5.57867e-08)
(2.05617e-08 -4.18317e-08 6.30338e-08)
(2.15083e-08 -4.09943e-08 6.84686e-08)
(2.13449e-08 -4.07444e-08 7.04333e-08)
(1.77147e-08 -4.36787e-08 6.57351e-08)
(0 0 0)
(2.42119e-09 -5.53311e-09 3.77745e-09)
(4.60517e-09 -1.06039e-08 7.34331e-09)
(6.62286e-09 -1.54306e-08 1.09394e-08)
(8.5354e-09 -2.01833e-08 1.47763e-08)
(1.0397e-08 -2.49871e-08 1.90457e-08)
(1.22563e-08 -2.99202e-08 2.39258e-08)
(1.41563e-08 -3.50087e-08 2.95815e-08)
(1.61312e-08 -4.0217e-08 3.61578e-08)
(1.81969e-08 -4.54329e-08 4.37605e-08)
(2.03322e-08 -5.04506e-08 5.24175e-08)
(2.24408e-08 -5.4961e-08 6.20093e-08)
(2.42789e-08 -5.85802e-08 7.21455e-08)
(2.53429e-08 -6.09855e-08 8.19583e-08)
(2.48144e-08 -6.22676e-08 8.98454e-08)
(2.21694e-08 -6.32956e-08 9.36899e-08)
(1.57187e-08 -6.63989e-08 8.98989e-08)
(0 0 0)
(2.93661e-09 -6.58374e-09 4.54768e-09)
(5.58394e-09 -1.26261e-08 8.83608e-09)
(8.02693e-09 -1.83948e-08 1.3152e-08)
(1.03394e-08 -2.41025e-08 1.77445e-08)
(1.25875e-08 -2.99126e-08 2.28402e-08)
(1.48326e-08 -3.59401e-08 2.865e-08)
(1.71308e-08 -4.225e-08 3.53711e-08)
(1.95308e-08 -4.88521e-08 4.31813e-08)
(2.2063e-08 -5.56919e-08 5.2221e-08)
(2.47167e-08 -6.2636e-08 6.25556e-08)
(2.7389e-08 -6.94521e-08 7.41061e-08)
(2.97798e-08 -7.57804e-08 8.65168e-08)
(3.121e-08 -8.1102e-08 9.8914e-08)
(3.04722e-08 -8.47618e-08 1.09545e-07)
(2.66219e-08 -8.63414e-08 1.15764e-07)
(1.75749e-08 -8.80559e-08 1.13406e-07)
(0 0 0)
(3.39604e-09 -7.41627e-09 5.21432e-09)
(6.45496e-09 -1.42333e-08 1.01246e-08)
(9.27308e-09 -2.07627e-08 1.50531e-08)
(1.19345e-08 -2.72558e-08 2.0279e-08)
(1.45161e-08 -3.39128e-08 2.60547e-08)
(1.70907e-08 -4.08871e-08 3.26155e-08)
(1.97293e-08 -4.82873e-08 4.01821e-08)
(2.2501e-08 -5.6179e-08 4.89572e-08)
(2.54678e-08 -6.45835e-08 5.9111e-08)
(2.86701e-08 -7.34729e-08 7.07492e-08)
(3.20925e-08 -8.27548e-08 8.38513e-08)
(3.55787e-08 -9.22275e-08 9.81456e-08)
(3.86553e-08 -1.01446e-07 1.12849e-07)
(4.02495e-08 -1.09417e-07 1.26189e-07)
(3.8884e-08 -1.14335e-07 1.35007e-07)
(2.92839e-08 -1.12745e-07 1.34842e-07)
(0 0 0)
(3.79235e-09 -7.99364e-09 5.76814e-09)
(7.20452e-09 -1.53538e-08 1.11909e-08)
(1.03408e-08 -2.24273e-08 1.6616e-08)
(1.32926e-08 -2.94973e-08 2.23423e-08)
(1.61442e-08 -3.67952e-08 2.86386e-08)
(1.89775e-08 -4.45084e-08 3.57537e-08)
(2.18761e-08 -5.2786e-08 4.39203e-08)
(2.49286e-08 -6.17456e-08 5.33525e-08)
(2.8232e-08 -7.14807e-08 6.42351e-08)
(3.18926e-08 -8.20685e-08 7.66974e-08)
(3.60239e-08 -9.35788e-08 9.07624e-08)
(4.07285e-08 -1.06073e-07 1.06238e-07)
(4.60442e-08 -1.19555e-07 1.22463e-07)
(5.17578e-08 -1.33698e-07 1.37733e-07)
(5.67885e-08 -1.46663e-07 1.48441e-07)
(5.73397e-08 -1.56427e-07 1.48249e-07)
(0 0 0)
(4.12094e-09 -8.28528e-09 6.20537e-09)
(7.82416e-09 -1.59286e-08 1.20286e-08)
(1.12179e-08 -2.33002e-08 1.78317e-08)
(1.43967e-08 -3.0705e-08 2.39231e-08)
(1.74483e-08 -3.83967e-08 3.05777e-08)
(2.04586e-08 -4.65874e-08 3.80464e-08)
(2.35171e-08 -5.54552e-08 4.65599e-08)
(2.67224e-08 -6.51535e-08 5.63269e-08)
(3.01903e-08 -7.58204e-08 6.75235e-08)
(3.40624e-08 -8.75898e-08 8.027e-08)
(3.85188e-08 -1.00605e-07 9.45848e-08)
(4.37847e-08 -1.15031e-07 1.10289e-07)
(5.0111e-08 -1.31031e-07 1.26783e-07)
(5.76075e-08 -1.48555e-07 1.42572e-07)
(6.50968e-08 -1.654e-07 1.54074e-07)
(7.71066e-08 -1.86688e-07 1.52662e-07)
(0 0 0)
(0 0 0)
(0 0 0)
(0 0 0)
(0 0 0)
(0 0 0)
(0 0 0)
(0 0 0)
(0 0 0)
(0 0 0)
(0 0 0)
(0 0 0)
(0 0 0)
(0 0 0)
(0 0 0)
(0 0 0)
(5.77839e-11 2.53967e-09 1.89803e-09)
(0 0 0)
(6.30343e-10 -1.5176e-09 8.95603e-10)
(1.19751e-09 -2.90451e-09 1.74143e-09)
(1.71848e-09 -4.21729e-09 2.5951e-09)
(2.20697e-09 -5.49868e-09 3.50658e-09)
(2.67353e-09 -6.777e-09 4.52047e-09)
(3.12523e-09 -8.06455e-09 5.67657e-09)
(3.56519e-09 -9.35503e-09 7.00878e-09)
(3.99148e-09 -1.0619e-08 8.5414e-09)
(4.39586e-09 -1.17976e-08 1.02812e-08)
(4.76359e-09 -1.27951e-08 1.22024e-08)
(5.07583e-09 -1.34731e-08 1.42217e-08)
(5.31345e-09 -1.36513e-08 1.61527e-08)
(5.44693e-09 -1.31233e-08 1.76317e-08)
(5.36655e-09 -1.17297e-08 1.80326e-08)
(4.79676e-09 -9.67617e-09 1.67121e-08)
(2.90703e-09 -6.38671e-09 1.25991e-08)
(0 0 0)
(1.24843e-09 -2.98899e-09 1.76819e-09)
(2.37174e-09 -5.72231e-09 3.43757e-09)
(3.40355e-09 -8.31272e-09 5.1215e-09)
(4.37115e-09 -1.0846e-08 6.91814e-09)
(5.29572e-09 -1.33805e-08 8.91504e-09)
(6.19176e-09 -1.59447e-08 1.11904e-08)
(7.06565e-09 -1.85327e-08 1.38113e-08)
(7.91253e-09 -2.10971e-08 1.68263e-08)
(8.71115e-09 -2.35391e-08 2.02504e-08)
(9.41773e-09 -2.57006e-08 2.4037e-08)
(9.95925e-09 -2.73697e-08 2.80298e-08)
(1.0225e-08 -2.83236e-08 3.18844e-08)
(1.00476e-08 -2.84597e-08 3.49565e-08)
(9.18067e-09 -2.8066e-08 3.62436e-08)
(7.51043e-09 -2.79924e-08 3.49924e-08)
(5.44184e-09 -3.00105e-08 3.22586e-08)
(0 0 0)
(1.84292e-09 -4.36958e-09 2.59688e-09)
(3.50112e-09 -8.36936e-09 5.04744e-09)
(5.02426e-09 -1.21674e-08 7.51706e-09)
(6.45301e-09 -1.58932e-08 1.01487e-08)
(7.81956e-09 -1.96383e-08 1.30699e-08)
(9.14689e-09 -2.3454e-08 1.63953e-08)
(1.04462e-08 -2.73465e-08 2.02239e-08)
(1.17111e-08 -3.12689e-08 2.46301e-08)
(1.29062e-08 -3.51113e-08 2.96432e-08)
(1.39495e-08 -3.86947e-08 3.52104e-08)
(1.4685e-08 -4.17859e-08 4.11354e-08)
(1.48447e-08 -4.41694e-08 4.6986e-08)
(1.40173e-08 -4.58388e-08 5.19853e-08)
(1.17384e-08 -4.73064e-08 5.50119e-08)
(8.17908e-09 -4.94443e-08 5.52776e-08)
(3.97421e-09 -5.30534e-08 5.40648e-08)
(0 0 0)
(2.40267e-09 -5.61438e-09 3.36249e-09)
(4.56425e-09 -1.07598e-08 6.53318e-09)
(6.54946e-09 -1.5658e-08 9.72389e-09)
(8.41193e-09 -2.0482e-08 1.31174e-08)
(1.01954e-08 -2.53595e-08 1.6877e-08)
(1.1933e-08 -3.03717e-08 2.11499e-08)
(1.36443e-08 -3.55491e-08 2.60652e-08)
(1.53273e-08 -4.08653e-08 3.17238e-08)
(1.69419e-08 -4.62275e-08 3.81749e-08)
(1.83807e-08 -5.14688e-08 4.53756e-08)
(1.94176e-08 -5.63541e-08 5.31219e-08)
(1.96276e-08 -6.06254e-08 6.09486e-08)
(1.8312e-08 -6.41319e-08 6.80158e-08)
(1.4648e-08 -6.70548e-08 7.30995e-08)
(8.89299e-09 -6.98375e-08 7.51643e-08)
(2.33623e-09 -7.3417e-08 7.53508e-08)
(0 0 0)
(2.91736e-09 -6.67938e-09 4.04877e-09)
(5.54115e-09 -1.28093e-08 7.86259e-09)
(7.94966e-09 -1.86612e-08 1.16927e-08)
(1.02087e-08 -2.44506e-08 1.57553e-08)
(1.23735e-08 -3.03424e-08 2.02435e-08)
(1.44893e-08 -3.64524e-08 2.53319e-08)
(1.65886e-08 -4.28455e-08 3.11754e-08)
(1.86833e-08 -4.95322e-08 3.78988e-08)
(2.07489e-08 -5.64611e-08 4.55742e-08)
(2.26902e-08 -6.35085e-08 5.41786e-08)
(2.42801e-08 -7.0464e-08 6.35224e-08)
(2.50465e-08 -7.70134e-08 7.31413e-08)
(2.41321e-08 -8.2716e-08 8.21628e-08)
(2.03494e-08 -8.70027e-08 8.92519e-08)
(1.3546e-08 -8.93453e-08 9.30718e-08)
(4.6852e-09 -9.0796e-08 9.46817e-08)
(0 0 0)
(3.37787e-09 -7.52287e-09 4.64314e-09)
(6.41412e-09 -1.44372e-08 9.01087e-09)
(9.19844e-09 -2.10584e-08 1.33856e-08)
(1.18071e-08 -2.76402e-08 1.80095e-08)
(1.43063e-08 -3.43832e-08 2.3098e-08)
(1.67535e-08 -4.14386e-08 2.8846e-08)
(1.91972e-08 -4.89102e-08 3.54272e-08)
(2.16723e-08 -5.68542e-08 4.29842e-08)
(2.41893e-08 -6.52771e-08 5.16079e-08)
(2.67104e-08 -7.41272e-08 6.12948e-08)
(2.91011e-08 -8.32743e-08 7.18751e-08)
(3.10343e-08 -9.24582e-08 8.28934e-08)
(3.18417e-08 -1.01156e-07 9.34367e-08)
(3.04264e-08 -1.08319e-07 1.02001e-07)
(2.60918e-08 -1.12256e-07 1.06886e-07)
(1.69252e-08 -1.09061e-07 1.0953e-07)
(0 0 0)
(3.7768e-09 -8.10749e-09 5.13734e-09)
(7.1689e-09 -1.55713e-08 9.96203e-09)
(1.02744e-08 -2.27421e-08 1.47786e-08)
(1.31773e-08 -2.99048e-08 1.98466e-08)
(1.59523e-08 -3.72901e-08 2.53955e-08)
(1.86674e-08 -4.50809e-08 3.1632e-08)
(2.13861e-08 -5.34166e-08 3.87387e-08)
(2.41671e-08 -6.23973e-08 4.68664e-08)
(2.70617e-08 -7.20865e-08 5.6113e-08)
(3.01065e-08 -8.25099e-08 6.64838e-08)
(3.33046e-08 -9.36483e-08 7.78171e-08)
(3.65888e-08 -1.0541e-07 8.96537e-08)
(3.97677e-08 -1.17546e-07 1.01016e-07)
(4.24842e-08 -1.29414e-07 1.10128e-07)
(4.42745e-08 -1.39275e-07 1.14699e-07)
(4.4897e-08 -1.45043e-07 1.15443e-07)
(0 0 0)
(4.10916e-09 -8.40243e-09 5.52792e-09)
(7.79618e-09 -1.61523e-08 1.071e-08)
(1.11636e-08 -2.36235e-08 1.58634e-08)
(1.42998e-08 -3.11224e-08 2.12563e-08)
(1.7284e-08 -3.8901e-08 2.71236e-08)
(2.01904e-08 -4.71652e-08 3.36739e-08)
(2.30913e-08 -5.60806e-08 4.10886e-08)
(2.60606e-08 -6.57779e-08 4.95134e-08)
(2.9176e-08 -7.63566e-08 5.90391e-08)
(3.25209e-08 -8.78848e-08 6.96613e-08)
(3.6182e-08 -1.00395e-07 8.12095e-08)
(4.02355e-08 -1.13862e-07 9.32187e-08)
(4.47179e-08 -1.28152e-07 1.04711e-07)
(4.95511e-08 -1.42837e-07 1.13924e-07)
(5.40451e-08 -1.55944e-07 1.18423e-07)
(6.36443e-08 -1.72314e-07 1.1468e-07)
(0 0 0)
(0 0 0)
(0 0 0)
(0 0 0)
(0 0 0)
(0 0 0)
(0 0 0)
(0 0 0)
(0 0 0)
(0 0 0)
(0 0 0)
(0 0 0)
(0 0 0)
(0 0 0)
(0 0 0)
(0 0 0)
(-1.43807e-09 6.44253e-10 2.29429e-09)
(0 0 0)
(6.23073e-10 -1.5356e-09 7.53929e-10)
(1.18184e-09 -2.93911e-09 1.46522e-09)
(1.69124e-09 -4.26803e-09 2.18169e-09)
(2.16252e-09 -5.56605e-09 2.94445e-09)
(2.60272e-09 -6.86265e-09 3.78933e-09)
(3.01383e-09 -8.17201e-09 4.74709e-09)
(3.39144e-09 -9.49146e-09 5.84215e-09)
(3.72219e-09 -1.07988e-08 7.0887e-09)
(3.9804e-09 -1.20492e-08 8.48306e-09)
(4.12466e-09 -1.31734e-08 9.99091e-09)
(4.09615e-09 -1.40803e-08 1.15277e-08)
(3.81957e-09 -1.46654e-08 1.29328e-08)
(3.20535e-09 -1.48198e-08 1.39473e-08)
(2.15968e-09 -1.44218e-08 1.42463e-08)
(7.32063e-10 -1.33713e-08 1.36994e-08)
(-9.97907e-10 -1.01513e-08 1.18743e-08)
(0 0 0)
(1.23461e-09 -3.02425e-09 1.4886e-09)
(2.34196e-09 -5.79005e-09 2.8926e-09)
(3.35176e-09 -8.4118e-09 4.30609e-09)
(4.28657e-09 -1.09768e-08 5.80972e-09)
(5.16099e-09 -1.35455e-08 7.47384e-09)
(5.98013e-09 -1.61493e-08 9.35909e-09)
(6.73652e-09 -1.87879e-08 1.15139e-08)
(7.40474e-09 -2.14252e-08 1.39672e-08)
(7.93335e-09 -2.39837e-08 1.67143e-08)
(8.23512e-09 -2.6345e-08 1.96927e-08)
(8.17906e-09 -2.8362e-08 2.27475e-08)
(7.59091e-09 -2.99016e-08 2.5588e-08)
(6.28715e-09 -3.09296e-08 2.77607e-08)
(4.21494e-09 -3.16132e-08 2.87373e-08)
(1.87819e-09 -3.22402e-08 2.83993e-08)
(5.51973e-10 -3.36537e-08 2.7867e-08)
(0 0 0)
(1.82385e-09 -4.42069e-09 2.18653e-09)
(3.46001e-09 -8.46737e-09 4.24786e-09)
(4.95271e-09 -1.23102e-08 6.32119e-09)
(6.33605e-09 -1.60804e-08 8.52389e-09)
(7.63336e-09 -1.98716e-08 1.09586e-08)
(8.85505e-09 -2.3738e-08 1.37142e-08)
(9.9941e-09 -2.76908e-08 1.68628e-08)
(1.10177e-08 -3.16937e-08 2.04501e-08)
(1.18535e-08 -3.56565e-08 2.44762e-08)
(1.23701e-08 -3.94362e-08 2.88654e-08)
(1.23542e-08 -4.28555e-08 3.34225e-08)
(1.14963e-08 -4.57665e-08 3.77877e-08)
(9.44011e-09 -4.81848e-08 4.14305e-08)
(6.05079e-09 -5.04493e-08 4.37919e-08)
(2.1899e-09 -5.29478e-08 4.47592e-08)
(-7.14638e-10 -5.60334e-08 4.54722e-08)
(0 0 0)
(2.38006e-09 -5.67928e-09 2.83163e-09)
(4.51544e-09 -1.0884e-08 5.4992e-09)
(6.46434e-09 -1.5838e-08 8.17838e-09)
(8.27265e-09 -2.0716e-08 1.10192e-08)
(9.97378e-09 -2.5647e-08 1.4153e-08)
(1.15865e-08 -3.07136e-08 1.76945e-08)
(1.31097e-08 -3.59485e-08 2.1738e-08)
(1.45126e-08 -4.133e-08 2.63466e-08)
(1.57161e-08 -4.67755e-08 3.15309e-08)
(1.65643e-08 -5.21373e-08 3.72145e-08)
(1.67825e-08 -5.72094e-08 4.31863e-08)
(1.59307e-08 -6.17643e-08 4.90569e-08)
(1.34232e-08 -6.56427e-08 5.42626e-08)
(8.84697e-09 -6.88868e-08 5.82137e-08)
(3.14793e-09 -7.16398e-08 6.06517e-08)
(-1.72711e-09 -7.45776e-08 6.25663e-08)
(0 0 0)
(2.8931e-09 -6.75554e-09 3.4102e-09)
(5.48863e-09 -1.29546e-08 6.61949e-09)
(7.85779e-09 -1.88708e-08 9.83616e-09)
(1.00581e-08 -2.47206e-08 1.32377e-08)
(1.21339e-08 -3.06692e-08 1.69795e-08)
(1.41155e-08 -3.68311e-08 2.11978e-08)
(1.6014e-08 -4.32686e-08 2.60061e-08)
(1.78129e-08 -4.99882e-08 3.14831e-08)
(1.94491e-08 -5.69337e-08 3.76514e-08)
(2.0783e-08 -6.39753e-08 4.44398e-08)
(2.15461e-08 -7.08935e-08 5.16325e-08)
(2.12673e-08 -7.73554e-08 5.88196e-08)
(1.923e-08 -8.28778e-08 6.53955e-08)
(1.46925e-08 -8.68023e-08 7.07031e-08)
(8.19065e-09 -8.85208e-08 7.43346e-08)
(1.28681e-09 -8.89592e-08 7.7275e-08)
(0 0 0)
(3.3538e-09 -7.60745e-09 3.9116e-09)
(6.36179e-09 -1.45981e-08 7.58776e-09)
(9.10647e-09 -2.12894e-08 1.12626e-08)
(1.16559e-08 -2.79354e-08 1.51348e-08)
(1.40654e-08 -3.47353e-08 1.93781e-08)
(1.6378e-08 -4.18362e-08 2.41447e-08)
(1.86219e-08 -4.93336e-08 2.95616e-08)
(2.08047e-08 -5.72705e-08 3.57189e-08)
(2.29015e-08 -6.56319e-08 4.26473e-08)
(2.4833e-08 -7.43326e-08 5.02788e-08)
(2.64266e-08 -8.31903e-08 5.83894e-08)
(2.73561e-08 -9.18669e-08 6.65327e-08)
(2.70855e-08 -9.97407e-08 7.40103e-08)
(2.49517e-08 -1.05691e-07 7.9995e-08)
(2.09604e-08 -1.08196e-07 8.3928e-08)
(1.39347e-08 -1.03739e-07 8.72413e-08)
(0 0 0)
(3.75454e-09 -8.19744e-09 4.3288e-09)
(7.12018e-09 -1.57422e-08 8.39036e-09)
(1.01881e-08 -2.29864e-08 1.24371e-08)
(1.30346e-08 -3.02147e-08 1.66823e-08)
(1.57242e-08 -3.76552e-08 2.13113e-08)
(1.83118e-08 -4.54836e-08 2.64852e-08)
(2.08422e-08 -5.38268e-08 3.23376e-08)
(2.33496e-08 -6.27634e-08 3.89628e-08)
(2.58535e-08 -7.23218e-08 4.63923e-08)
(2.83518e-08 -8.2472e-08 5.45538e-08)
(3.08096e-08 -9.31075e-08 6.32061e-08)
(3.31477e-08 -1.04008e-07 7.18497e-08)
(3.52653e-08 -1.14768e-07 7.96439e-08)
(3.71596e-08 -1.24654e-07 8.54495e-08)
(3.90315e-08 -1.32301e-07 8.83678e-08)
(4.14508e-08 -1.36374e-07 8.99103e-08)
(0 0 0)
(4.08998e-09 -8.49465e-09 4.65878e-09)
(7.75373e-09 -1.63272e-08 9.02205e-09)
(1.10875e-08 -2.38729e-08 1.33528e-08)
(1.41726e-08 -3.14373e-08 1.78717e-08)
(1.70795e-08 -3.92685e-08 2.27685e-08)
(1.98706e-08 -4.75637e-08 2.82062e-08)
(2.26023e-08 -5.64729e-08 3.43173e-08)
(2.5327e-08 -6.61005e-08 4.11917e-08)
(2.80951e-08 -7.65035e-08 4.88536e-08)
(3.09559e-08 -8.7684e-08 5.72198e-08)
(3.3959e-08 -9.95735e-08 6.60319e-08)
(3.71575e-08 -1.12008e-07 7.4759e-08)
(4.06311e-08 -1.24691e-07 8.24952e-08)
(4.45314e-08 -1.37137e-07 8.79682e-08)
(4.86878e-08 -1.47893e-07 9.00793e-08)
(5.9413e-08 -1.62477e-07 8.7663e-08)
(0 0 0)
(0 0 0)
(0 0 0)
(0 0 0)
(0 0 0)
(0 0 0)
(0 0 0)
(0 0 0)
(0 0 0)
(0 0 0)
(0 0 0)
(0 0 0)
(0 0 0)
(0 0 0)
(0 0 0)
(0 0 0)
(-1.86597e-09 1.02613e-10 2.16921e-09)
(0 0 0)
(6.15874e-10 -1.54906e-09 5.87094e-10)
(1.16649e-09 -2.96491e-09 1.14046e-09)
(1.665e-09 -4.30592e-09 1.69697e-09)
(2.12043e-09 -5.61644e-09 2.28804e-09)
(2.53685e-09 -6.9265e-09 2.94034e-09)
(2.91222e-09 -8.2515e-09 3.67602e-09)
(3.2366e-09 -9.59115e-09 4.51146e-09)
(3.48931e-09 -1.09278e-08 5.45413e-09)
(3.63541e-09 -1.22245e-08 6.49677e-09)
(3.6234e-09 -1.3425e-08 7.60872e-09)
(3.38642e-09 -1.44559e-08 8.72542e-09)
(2.85143e-09 -1.52293e-08 9.74022e-09)
(1.96113e-09 -1.56321e-08 1.0511e-08)
(7.15923e-10 -1.5473e-08 1.09108e-08)
(-6.88267e-10 -1.44937e-08 1.09352e-08)
(-2.01972e-09 -1.10029e-08 1.00254e-08)
(0 0 0)
(1.2209e-09 -3.05074e-09 1.1593e-09)
(2.31276e-09 -5.84092e-09 2.25178e-09)
(3.30177e-09 -8.48615e-09 3.3499e-09)
(4.20627e-09 -1.10747e-08 4.51515e-09)
(5.03534e-09 -1.3668e-08 5.80001e-09)
(5.78656e-09 -1.62994e-08 7.24815e-09)
(6.44242e-09 -1.89721e-08 8.89226e-09)
(6.96444e-09 -2.16565e-08 1.0748e-08)
(7.28569e-09 -2.42868e-08 1.2803e-08)
(7.30428e-09 -2.67622e-08 1.50013e-08)
(6.88342e-09 -2.89573e-08 1.72241e-08)
(5.87331e-09 -3.07482e-08 1.92755e-08)
(4.18582e-09 -3.20581e-08 2.08969e-08)
(1.9832e-09 -3.28928e-08 2.18515e-08)
(-6.52699e-12 -3.33113e-08 2.21255e-08)
(-4.98959e-10 -3.40275e-08 2.21931e-08)
(0 0 0)
(1.80486e-09 -4.45927e-09 1.70308e-09)
(3.41953e-09 -8.54125e-09 3.30737e-09)
(4.8833e-09 -1.24174e-08 4.91841e-09)
(6.22446e-09 -1.62199e-08 6.62557e-09)
(7.45883e-09 -2.00433e-08 8.50544e-09)
(8.58682e-09 -2.39433e-08 1.06223e-08)
(9.58823e-09 -2.79339e-08 1.3025e-08)
(1.04138e-08 -3.19836e-08 1.57391e-08)
(1.09732e-08 -3.60116e-08 1.87522e-08)
(1.11215e-08 -3.98876e-08 2.19941e-08)
(1.06504e-08 -4.34466e-08 2.53123e-08)
(9.30569e-09 -4.65325e-08 2.84637e-08)
(6.88899e-09 -4.90924e-08 3.1147e-08)
(3.55915e-09 -5.12895e-08 3.31189e-08)
(3.80952e-10 -5.33528e-08 3.43531e-08)
(-1.35013e-09 -5.56976e-08 3.52384e-08)
(0 0 0)
(2.35735e-09 -5.72836e-09 2.20594e-09)
(4.46696e-09 -1.09776e-08 4.28249e-09)
(6.38106e-09 -1.59727e-08 6.36466e-09)
(8.13868e-09 -2.08891e-08 8.56662e-09)
(9.76448e-09 -2.5856e-08 1.09865e-08)
(1.12657e-08 -3.09559e-08 1.37073e-08)
(1.26266e-08 -3.62213e-08 1.67933e-08)
(1.37985e-08 -4.16309e-08 2.02805e-08)
(1.46847e-08 -4.71029e-08 2.41604e-08)
(1.512e-08 -5.24901e-08 2.83565e-08)
(1.4847e-08 -5.75811e-08 3.26994e-08)
(1.35088e-08 -6.21226e-08 3.69211e-08)
(1.07235e-08 -6.5883e-08 4.06997e-08)
(6.41485e-09 -6.87702e-08 4.37802e-08)
(1.68667e-09 -7.08794e-08 4.60322e-08)
(-1.77528e-09 -7.30162e-08 4.7712e-08)
(0 0 0)
(2.86836e-09 -6.81307e-09 2.65719e-09)
(5.43573e-09 -1.30639e-08 5.15594e-09)
(7.76677e-09 -1.90269e-08 7.65623e-09)
(9.91156e-09 -2.49186e-08 1.02931e-08)
(1.19053e-08 -3.09033e-08 1.31829e-08)
(1.37661e-08 -3.7093e-08 1.64242e-08)
(1.549e-08 -4.35455e-08 2.00942e-08)
(1.7043e-08 -5.02603e-08 2.42383e-08)
(1.83459e-08 -5.71708e-08 2.88522e-08)
(1.92534e-08 -6.41303e-08 3.38564e-08)
(1.95231e-08 -7.08927e-08 3.90679e-08)
(1.87829e-08 -7.70813e-08 4.41902e-08)
(1.65432e-08 -8.21468e-08 4.88619e-08)
(1.24206e-08 -8.5366e-08 5.27862e-08)