/*--------------------------------*- C++ -*----------------------------------*\
| =========                 |                                                 |
| \\      /  F ield         | OpenFOAM: The Open Source CFD Toolbox           |
|  \\    /   O peration     | Version:  v1912                                 |
|   \\  /    A nd           | Website:  www.openfoam.com                      |
|    \\/     M anipulation  |                                                 |
\*---------------------------------------------------------------------------*/
FoamFile
{
    version     2.0;
    format      ascii;
    class       volVectorField;
    location    "0.47/fluid";
    object      U;
}
// * * * * * * * * * * * * * * * * * * * * * * * * * * * * * * * * * * * * * //

dimensions      [0 1 -1 0 0 0 0];


internalField   nonuniform List<vector> 
14592
(
(0.0877701 0.0171377 0.000627542)
(0.0730434 0.0112712 0.000893335)
(0.0593119 0.00676229 0.000568651)
(0.052262 0.00316146 -7.45657e-05)
(0.0481394 0.00141811 -0.000942435)
(0.0459441 0.000622033 -0.00199503)
(0.0444693 0.000312633 -0.00326667)
(0.0433088 0.000191868 -0.00482874)
(0.0420686 0.000141745 -0.00678761)
(0.0407864 9.07832e-05 -0.00931538)
(0.0389749 1.44014e-05 -0.0126653)
(0.037164 -0.000186755 -0.0172131)
(0.0337434 -0.000483862 -0.0237053)
(0.0306572 -0.00131548 -0.0325266)
(0.0216717 -0.00189228 -0.0443977)
(0.0122332 -0.0049466 -0.04332)
(0.104049 0.0173552 0.00079328)
(0.104202 0.0160707 0.00112126)
(0.101961 0.0122096 0.000655397)
(0.0991189 0.00772621 -0.000328529)
(0.0963818 0.00474122 -0.00171173)
(0.0941566 0.00301741 -0.0034411)
(0.0921444 0.0022013 -0.00556284)
(0.0901967 0.00189672 -0.00819015)
(0.0879655 0.00187527 -0.0114977)
(0.0854463 0.00199022 -0.0157641)
(0.0819898 0.00216453 -0.0213956)
(0.0780055 0.00226347 -0.0289983)
(0.0712868 0.00227111 -0.0396316)
(0.0636733 0.00166954 -0.0539283)
(0.0459939 0.000922657 -0.0716813)
(0.0265941 -0.00312713 -0.06842)
(0.103943 0.0112293 0.000828068)
(0.108175 0.0143151 0.00116276)
(0.110935 0.0127333 0.000662949)
(0.111351 0.00947832 -0.000385141)
(0.110666 0.00681839 -0.00186226)
(0.10943 0.00507014 -0.00371972)
(0.107856 0.00418825 -0.00600796)
(0.106022 0.00391631 -0.00884918)
(0.10372 0.00406343 -0.0124311)
(0.100966 0.00448564 -0.017057)
(0.0970849 0.00509437 -0.0231646)
(0.0923931 0.00575673 -0.0314293)
(0.0844926 0.00642736 -0.042975)
(0.0750813 0.00659095 -0.0586136)
(0.054107 0.00608979 -0.0780261)
(0.0305818 0.00150863 -0.0755169)
(0.102074 0.00727862 0.000848316)
(0.10615 0.0112424 0.00120388)
(0.110086 0.0112205 0.000713233)
(0.111999 0.00945174 -0.000325273)
(0.112657 0.00762419 -0.00178828)
(0.112377 0.00631468 -0.0036268)
(0.11146 0.0056863 -0.00588966)
(0.110063 0.00565303 -0.00869793)
(0.108058 0.00611422 -0.0122363)
(0.105499 0.00698202 -0.0168109)
(0.101709 0.00820745 -0.0228572)
(0.09698 0.00970369 -0.031081)
(0.0887907 0.0114419 -0.0426112)
(0.0787916 0.0128866 -0.0584179)
(0.0565496 0.0132231 -0.0782265)
(0.0311152 0.00730247 -0.076562)
(0.101085 0.00484344 0.000877255)
(0.104317 0.00851208 0.00127185)
(0.108102 0.00932867 0.000815025)
(0.110545 0.00866477 -0.000187511)
(0.111956 0.00766675 -0.00160429)
(0.112397 0.00692629 -0.00337991)
(0.112103 0.00669514 -0.00555562)
(0.111224 0.00700693 -0.00824463)
(0.109669 0.00784371 -0.0116193)
(0.107524 0.00918491 -0.0159765)
(0.104117 0.0110301 -0.0217289)
(0.0997399 0.0133548 -0.0295938)
(0.0917484 0.0161592 -0.0406595)
(0.0817198 0.0188745 -0.0560835)
(0.058665 0.0201506 -0.0755997)
(0.0315223 0.0122233 -0.0749594)
(0.100657 0.00335163 0.000912263)
(0.10327 0.0063456 0.00135676)
(0.10672 0.00747219 0.000947638)
(0.109352 0.00750671 -5.85168e-06)
(0.111202 0.0071828 -0.00136271)
(0.112166 0.0069982 -0.0030575)
(0.112396 0.00721209 -0.00512052)
(0.112014 0.00792758 -0.00765346)
(0.110942 0.00919578 -0.0108117)
(0.10928 0.0110805 -0.0148767)
(0.106363 0.0136666 -0.0202274)
(0.10248 0.0170842 -0.0275832)
(0.0948635 0.0214905 -0.0379607)
(0.0850263 0.0265355 -0.0527403)
(0.0612869 0.0305661 -0.0716179)
(0.0324324 0.021301 -0.0723583)
(0.100498 0.0022392 0.000954255)
(0.102794 0.0044934 0.00145731)
(0.10604 0.00567377 0.00110605)
(0.108781 0.00614663 0.00021179)
(0.110928 0.00635398 -0.00107368)
(0.112298 0.00666298 -0.00267155)
(0.11299 0.00729886 -0.00459687)
(0.113115 0.0083946 -0.00693318)
(0.112622 0.0100447 -0.00980847)
(0.11165 0.0123816 -0.0134697)
(0.109602 0.0155537 -0.0182279)
(0.106837 0.0198378 -0.024748)
(0.100606 0.0255081 -0.0338568)
(0.0924516 0.0324925 -0.0471006)
(0.0692311 0.0389426 -0.0638326)
(0.0394515 0.0279985 -0.0661537)
(0.100447 0.00129741 0.00100066)
(0.102639 0.00280201 0.00156741)
(0.105847 0.00388656 0.00127958)
(0.108714 0.0046313 0.000449801)
(0.111101 0.00525455 -0.000759138)
(0.112793 0.00598429 -0.00225381)
(0.113872 0.00699227 -0.00403297)
(0.114449 0.00841959 -0.00616032)
(0.114499 0.0103921 -0.00873538)
(0.114191 0.0131193 -0.0119671)
(0.113007 0.0168423 -0.0160971)
(0.111356 0.0221512 -0.0217245)
(0.106581 0.0296962 -0.0294832)
(0.100446 0.0411893 -0.0410957)
(0.0785364 0.0558595 -0.0557204)
(0.0513648 0.0614571 -0.0612034)
(0.0877386 0.0171402 0.000389704)
(0.072865 0.011283 0.000491303)
(0.0589141 0.00677264 0.000162006)
(0.0516727 0.00316769 -0.00040585)
(0.0473627 0.00142371 -0.00116422)
(0.0449774 0.000629629 -0.00210044)
(0.043277 0.000323921 -0.00325381)
(0.0418309 0.000207554 -0.00468295)
(0.0402165 0.000163804 -0.00647595)
(0.0384323 0.000122127 -0.0087451)
(0.0359806 6.42599e-05 -0.0116776)
(0.0332718 -9.92243e-05 -0.0153851)
(0.0289104 -0.000318149 -0.0203159)
(0.0242275 -0.000950783 -0.0256487)
(0.0151111 -0.00135954 -0.0310755)
(0.00448657 -0.00348413 -0.021538)
(0.104005 0.0173683 0.000469991)
(0.103953 0.0161051 0.000545393)
(0.101388 0.0122528 3.12276e-05)
(0.0982167 0.00777171 -0.000871312)
(0.0951372 0.00479444 -0.0021018)
(0.0925549 0.00308657 -0.00365086)
(0.0901281 0.00229535 -0.00558093)
(0.0876646 0.002024 -0.00799335)
(0.0847621 0.0020471 -0.0110366)
(0.0813471 0.00221961 -0.014908)
(0.076723 0.00247413 -0.0199107)
(0.0711402 0.00267855 -0.0262962)
(0.0626059 0.00283983 -0.0346839)
(0.052298 0.00245259 -0.0440613)
(0.0339211 0.00182017 -0.0528556)
(0.0127682 -0.00184759 -0.0364918)
(0.103901 0.011253 0.000486089)
(0.107918 0.0143717 0.000545056)
(0.110339 0.0128138 -1.43393e-05)
(0.1104 0.00957508 -0.000981645)
(0.109341 0.00693663 -0.00229902)
(0.107712 0.00522165 -0.00396391)
(0.105683 0.00438942 -0.00604546)
(0.103287 0.00418544 -0.00865505)
(0.100253 0.00442438 -0.0119528)
(0.0965234 0.00496475 -0.0161573)
(0.0913606 0.00573061 -0.0215932)
(0.0849193 0.00658162 -0.0285591)
(0.0749916 0.00749495 -0.0376966)
(0.0626253 0.00788121 -0.0480115)
(0.0407677 0.00742943 -0.0576397)
(0.0153128 0.0023988 -0.039879)
(0.102034 0.00730745 0.000504289)
(0.105896 0.0113128 0.000577401)
(0.109496 0.0113276 2.51627e-05)
(0.11106 0.00958983 -0.000932354)
(0.111351 0.00779926 -0.00223521)
(0.110685 0.0065421 -0.00388101)
(0.109325 0.0059894 -0.00593743)
(0.107378 0.00606082 -0.00851488)
(0.104656 0.00666543 -0.0117703)
(0.10114 0.00772174 -0.0159247)
(0.096082 0.00920037 -0.0212979)
(0.0896165 0.0110055 -0.0282101)
(0.0793857 0.0131428 -0.037292)
(0.066394 0.0149381 -0.0476285)
(0.0431919 0.0154258 -0.0573296)
(0.0156821 0.00841312 -0.039644)
(0.101047 0.00487823 0.000534334)
(0.104069 0.00859695 0.000644268)
(0.107525 0.00946122 0.000125189)
(0.109631 0.00884123 -0.000796801)
(0.110694 0.00789423 -0.0020549)
(0.110772 0.00722344 -0.0036408)
(0.110061 0.00709166 -0.00561471)
(0.108669 0.0075419 -0.0080797)
(0.106443 0.00857044 -0.0111812)
(0.103402 0.0101679 -0.0151329)
(0.0987964 0.0123621 -0.0202335)
(0.0927717 0.015121 -0.0268162)
(0.0828 0.0185001 -0.0354716)
(0.06984 0.0217277 -0.0454334)
(0.0457203 0.0233094 -0.0548297)
(0.0162822 0.0137093 -0.0378878)
(0.10062 0.0033917 0.000570455)
(0.103027 0.00644294 0.000729083)
(0.10616 0.00762576 0.000256716)
(0.108471 0.00771435 -0.000617601)
(0.109994 0.00745331 -0.00181803)
(0.110623 0.00735365 -0.00332706)
(0.110471 0.00768841 -0.00519427)
(0.109622 0.00857441 -0.00751216)
(0.107938 0.0100829 -0.0104105)
(0.105458 0.0122978 -0.0140912)
(0.101436 0.0153478 -0.0188231)
(0.0960286 0.0193715 -0.0249495)
(0.0865268 0.0246277 -0.0329986)
(0.073885 0.030519 -0.0424074)
(0.0489692 0.0353201 -0.0513144)
(0.0175608 0.0238133 -0.0355654)
(0.100461 0.00228416 0.000612769)
(0.102558 0.0046013 0.00082866)
(0.1055 0.00584407 0.000412556)
(0.107938 0.00637821 -0.000404741)
(0.109784 0.00665697 -0.00153674)
(0.110852 0.00706205 -0.00295387)
(0.111207 0.00783459 -0.0046913)
(0.110927 0.00912467 -0.00682561)
(0.109906 0.0110514 -0.00946272)
(0.108237 0.0137753 -0.0127791)
(0.105244 0.0175005 -0.0169898)
(0.101195 0.0225299 -0.0224188)
(0.0933195 0.0292765 -0.029462)
(0.0827541 0.0373971 -0.0377986)
(0.0582715 0.0450497 -0.0454895)
(0.0257975 0.0312767 -0.0315606)
(0.100412 0.0013458 0.000658569)
(0.102412 0.0029167 0.000936482)
(0.105329 0.00406706 0.000581765)
(0.107913 0.00487706 -0.000173614)
(0.110026 0.00557663 -0.00123222)
(0.111451 0.00640901 -0.00255131)
(0.112241 0.00756318 -0.00415055)
(0.112476 0.00920034 -0.00608916)
(0.112086 0.011475 -0.00844811)
(0.11121 0.0146352 -0.0113755)
(0.109247 0.0189922 -0.0150307)
(0.106566 0.0252036 -0.0197114)
(0.100415 0.0341155 -0.025675)
(0.0923568 0.0472681 -0.0328729)
(0.0692185 0.0640963 -0.0393597)
(0.0395106 0.0665705 -0.0282714)
(0.0877142 0.0171424 0.000222583)
(0.0727239 0.0112928 0.000215752)
(0.0585893 0.00678145 -0.000103865)
(0.0511728 0.00317287 -0.000598342)
(0.0466812 0.00142817 -0.00124801)
(0.0441035 0.000635311 -0.00205739)
(0.0421733 0.0003319 -0.00306615)
(0.0404353 0.000217758 -0.0043212)
(0.0384404 0.000176608 -0.00589411)
(0.0361383 0.000137823 -0.00785762)
(0.0330276 8.57427e-05 -0.0103581)
(0.0293863 -6.42851e-05 -0.0134091)
(0.0240775 -0.000260542 -0.0173469)
(0.0180303 -0.000817072 -0.0212943)
(0.00930249 -0.00125742 -0.0248507)
(6.39251e-05 -0.00298907 -0.0170718)
(0.103971 0.017381 0.00024588)
(0.103754 0.016137 0.00015952)
(0.100918 0.0122937 -0.000363313)
(0.0974488 0.0078156 -0.00117307)
(0.0940452 0.00484571 -0.00224374)
(0.0911116 0.00315214 -0.00359232)
(0.0882733 0.00238311 -0.00528643)
(0.0852976 0.00214125 -0.0074128)
(0.0817353 0.00220344 -0.0100934)
(0.0774411 0.00242528 -0.0134656)
(0.0716921 0.0027458 -0.0177593)
(0.0645869 0.00303151 -0.0230694)
(0.0544363 0.00329623 -0.0298188)
(0.0420431 0.00302919 -0.0368464)
(0.0240038 0.00236642 -0.042546)
(0.00481364 -0.00125198 -0.0286414)
(0.103869 0.0112764 0.00024919)
(0.107713 0.0144263 0.000132778)
(0.109849 0.0128915 -0.0004402)
(0.109591 0.00966914 -0.00131219)
(0.10818 0.0070512 -0.00246112)
(0.106165 0.00536708 -0.00391187)
(0.103687 0.00458071 -0.00573974)
(0.100734 0.00443952 -0.00804147)
(0.0969835 0.00476318 -0.010949)
(0.0923006 0.00541162 -0.0146172)
(0.0859102 0.00631909 -0.0192906)
(0.0778148 0.00733467 -0.025098)
(0.0660914 0.00844842 -0.0324665)
(0.0514302 0.00899653 -0.0402207)
(0.0297929 0.00852856 -0.0464517)
(0.00636024 0.00301806 -0.0312116)
(0.102003 0.00733651 0.000264755)
(0.105694 0.0113816 0.000157312)
(0.109014 0.0114316 -0.000410447)
(0.110263 0.0097239 -0.00127323)
(0.110207 0.00796839 -0.00240831)
(0.109165 0.00676018 -0.0038411)
(0.107363 0.00627806 -0.00564573)
(0.104871 0.00644701 -0.00791823)
(0.101446 0.00718509 -0.0107877)
(0.0969912 0.0084155 -0.0144117)
(0.090714 0.0101258 -0.0190297)
(0.0825971 0.0122069 -0.0247896)
(0.0705389 0.0146924 -0.0321064)
(0.0551934 0.016776 -0.0398688)
(0.0321144 0.0173812 -0.0461328)
(0.00656105 0.00947612 -0.0309719)
(0.101017 0.00491305 0.000293555)
(0.103872 0.00867986 0.000219343)
(0.107055 0.00958971 -0.000317784)
(0.108859 0.00901168 -0.00114731)
(0.109592 0.008113 -0.00224112)
(0.109314 0.00750775 -0.00361945)
(0.108188 0.00746931 -0.00534957)
(0.106284 0.0080495 -0.00752122)
(0.103396 0.00925803 -0.0102535)
(0.0994702 0.0110947 -0.013699)
(0.0937026 0.0136133 -0.01808)
(0.0860951 0.0167697 -0.0235594)
(0.0743266 0.0206701 -0.0305206)
(0.059032 0.0243548 -0.0379842)
(0.0349032 0.0262464 -0.0440312)
(0.00723076 0.0153822 -0.0295576)
(0.100591 0.00343126 0.000328243)
(0.102836 0.00653733 0.000299194)
(0.105705 0.00777377 -0.000194656)
(0.107729 0.00791375 -0.000979911)
(0.108943 0.00771221 -0.00202085)
(0.109241 0.00769273 -0.00332935)
(0.108708 0.00814154 -0.00496307)
(0.10739 0.00918822 -0.00700266)
(0.105099 0.0109232 -0.00955378)
(0.101808 0.0134477 -0.0127605)
(0.096705 0.0169313 -0.0168203)
(0.0898225 0.0215142 -0.0219109)
(0.0785913 0.027549 -0.0283665)
(0.0636983 0.0342088 -0.0353895)
(0.0386256 0.0397638 -0.0410919)
(0.00871258 0.0266823 -0.0276781)
(0.100434 0.00232789 0.000368385)
(0.102374 0.00470504 0.000392589)
(0.105064 0.00600714 -4.92241e-05)
(0.107233 0.00659939 -0.000781911)
(0.108794 0.00694583 -0.00176045)
(0.109563 0.00744193 -0.00298578)
(0.109579 0.008344 -0.00450287)
(0.108888 0.0098182 -0.00637906)
(0.107337 0.0120074 -0.00870019)
(0.104968 0.0150978 -0.0115921)
(0.101036 0.0193469 -0.0152106)
(0.0957178 0.0250769 -0.0197305)
(0.0863006 0.0328339 -0.0253904)
(0.0737698 0.0420296 -0.0316221)
(0.0489578 0.0509057 -0.0365389)
(0.0176036 0.0353007 -0.0247042)
(0.100385 0.00139218 0.00041131)
(0.102235 0.003026 0.000493075)
(0.104914 0.00423873 0.000108023)
(0.107248 0.00511053 -0.00056776)
(0.1091 0.0058826 -0.00147939)
(0.11026 0.00681249 -0.00261583)
(0.110755 0.00810572 -0.00400835)
(0.110642 0.00994251 -0.00570972)
(0.109808 0.0125054 -0.00778476)
(0.108353 0.0160779 -0.0103383)
(0.105612 0.0210405 -0.0134817)
(0.101903 0.0281083 -0.0173809)
(0.09445 0.038322 -0.0221719)
(0.0848213 0.053062 -0.027538)
(0.061265 0.0721307 -0.0316609)
(0.0325473 0.0730943 -0.0221142)
(0.0876959 0.0171444 0.000112308)
(0.0726138 0.0113012 4.45287e-05)
(0.0583304 0.00678921 -0.000247202)
(0.0507657 0.00317795 -0.000663491)
(0.046119 0.00143298 -0.00120031)
(0.0433793 0.000641772 -0.00186997)
(0.0412651 0.000341506 -0.00270689)
(0.0393093 0.000231494 -0.00374334)
(0.0370589 0.000196514 -0.00502752)
(0.0344463 0.000167451 -0.00658967)
(0.0310159 0.000132936 -0.00851293)
(0.0269969 1.81458e-05 -0.0107196)
(0.0215165 -0.000116116 -0.0133717)
(0.0153069 -0.000531406 -0.0156314)
(0.00736645 -0.000835908 -0.0169904)
(-0.000482788 -0.00226491 -0.0105768)
(0.103945 0.0173926 0.000101822)
(0.103596 0.0161655 -6.96107e-05)
(0.100539 0.0123307 -0.000560193)
(0.0968186 0.00785612 -0.00125752)
(0.0931369 0.00489327 -0.00215441)
(0.0899033 0.00321284 -0.00327888)
(0.086725 0.00246435 -0.0046928)
(0.083348 0.00225042 -0.00646191)
(0.0793082 0.00235074 -0.00867229)
(0.0744336 0.00262313 -0.0113972)
(0.0680465 0.00301492 -0.0147698)
(0.0602063 0.00339879 -0.0187423)
(0.0495661 0.00380473 -0.02349)
(0.0368093 0.00374285 -0.0278566)
(0.0199504 0.00325429 -0.0302757)
(0.00312251 -0.000261346 -0.0186957)
(0.103844 0.0112982 9.75361e-05)
(0.107551 0.014476 -0.000109434)
(0.109455 0.0129623 -0.000649408)
(0.108926 0.00975523 -0.00140305)
(0.107212 0.00715584 -0.00236761)
(0.104869 0.00549921 -0.00357884)
(0.102018 0.00475362 -0.00510613)
(0.0986249 0.00466843 -0.00702421)
(0.0943497 0.00506826 -0.00942712)
(0.0890296 0.00581525 -0.0124013)
(0.0819292 0.00685468 -0.0160881)
(0.0730197 0.00803287 -0.0204601)
(0.0607221 0.00935991 -0.0256812)
(0.0456413 0.010136 -0.0305548)
(0.0252409 0.00982592 -0.0332217)
(0.00439719 0.0040392 -0.0204015)
(0.10198 0.00736367 0.000110279)
(0.105535 0.0114448 -9.14519e-05)
(0.108626 0.0115267 -0.000627823)
(0.109609 0.00984615 -0.00137342)
(0.109257 0.00812186 -0.00232573)
(0.107891 0.00695667 -0.00352125)
(0.105725 0.00653619 -0.00502851)
(0.102803 0.00678985 -0.00692181)
(0.0988641 0.00764327 -0.00929285)
(0.0937871 0.00902313 -0.0122303)
(0.0868117 0.0109313 -0.0158707)
(0.0778951 0.0132492 -0.0202007)
(0.0652629 0.0160357 -0.0253698)
(0.0494977 0.0183936 -0.0302224)
(0.027627 0.0191757 -0.0328568)
(0.00466027 0.0106707 -0.0200674)
(0.100995 0.00494543 0.000136042)
(0.103717 0.0087559 -3.7143e-05)
(0.106679 0.00970679 -0.00054672)
(0.108227 0.00916631 -0.00126306)
(0.108678 0.00831033 -0.00217943)
(0.108094 0.00776226 -0.00332808)
(0.106626 0.00780448 -0.00477178)
(0.104319 0.00849571 -0.00657976)
(0.100953 0.0098561 -0.00883578)
(0.0964473 0.0118908 -0.0116255)
(0.0900268 0.0146727 -0.0150723)
(0.0816738 0.0181432 -0.0191767)
(0.0693601 0.0224446 -0.0240642)
(0.0536696 0.0264765 -0.0286809)
(0.0306675 0.0286037 -0.0311525)
(0.00546188 0.0168736 -0.018926)
(0.100569 0.00346772 0.000167179)
(0.102687 0.00662346 3.36351e-05)
(0.105343 0.00790797 -0.000437948)
(0.107124 0.00809367 -0.00111557)
(0.108073 0.00794444 -0.00198608)
(0.108088 0.00799445 -0.00307475)
(0.10724 0.00854083 -0.00443626)
(0.105556 0.00972265 -0.00613262)
(0.102828 0.0116442 -0.00823701)
(0.0990135 0.014416 -0.0108298)
(0.0933163 0.018234 -0.0140163)
(0.0857618 0.0232252 -0.0178129)
(0.0740268 0.0297962 -0.0223112)
(0.0587825 0.0369354 -0.0266006)
(0.0347354 0.0428858 -0.0288556)
(0.007106 0.0287194 -0.0174946)
(0.100413 0.00236776 0.000202958)
(0.102232 0.00479906 0.00011628)
(0.104719 0.00615424 -0.000309739)
(0.106661 0.00679802 -0.000941605)
(0.107976 0.00720374 -0.00175827)
(0.108489 0.00777837 -0.00277589)
(0.108223 0.00879047 -0.00403869)
(0.107211 0.0104179 -0.00559855)
(0.105282 0.0128199 -0.00751382)
(0.102466 0.016196 -0.00985397)
(0.0980284 0.0208358 -0.0126962)
(0.0921561 0.0270534 -0.0160663)
(0.0823159 0.0354633 -0.0199994)
(0.069539 0.0452678 -0.0237752)
(0.0456068 0.0547104 -0.0256333)
(0.0162565 0.0378625 -0.0155553)
(0.100366 0.00143405 0.000240932)
(0.102099 0.00312441 0.00020485)
(0.104587 0.00439286 -0.000171545)
(0.106709 0.00531932 -0.000753903)
(0.108339 0.00615466 -0.00151286)
(0.10927 0.00716835 -0.00245449)
(0.10952 0.00857897 -0.00361177)
(0.109133 0.0105801 -0.00502545)
(0.107982 0.0133727 -0.00673821)
(0.106164 0.0172586 -0.00880667)
(0.103015 0.0226551 -0.0112785)
(0.0988824 0.030282 -0.0141859)
(0.0911083 0.0412635 -0.0175059)
(0.0813756 0.0567689 -0.0207294)
(0.0585839 0.0766788 -0.022228)
(0.0316225 0.0763665 -0.0139194)
(0.0876816 0.0171459 4.45768e-05)
(0.0725278 0.0113078 -4.68179e-05)
(0.0581257 0.00679529 -0.000293778)
(0.0504386 0.00318179 -0.000626382)
(0.0456607 0.00143632 -0.00104838)
(0.0427815 0.000645999 -0.00157472)
(0.0405087 0.000347507 -0.0022338)
(0.0383655 0.000239509 -0.00304816)
(0.0358977 0.000207173 -0.00405135)
(0.0330238 0.000181958 -0.00525547)
(0.0293293 0.000154597 -0.00671336)
(0.0250117 5.59914e-05 -0.0083413)
(0.0194094 -4.95284e-05 -0.0102335)
(0.0131515 -0.000392678 -0.0117612)
(0.00589996 -0.00064249 -0.0124798)
(-0.000810306 -0.00193138 -0.00777933)
(0.103924 0.0174024 1.81892e-05)
(0.103473 0.0161892 -0.000177709)
(0.100239 0.0123618 -0.000600055)
(0.096311 0.00789039 -0.0011663)
(0.0923959 0.00493333 -0.00187876)
(0.0889071 0.00326355 -0.00276773)
(0.0854391 0.00253153 -0.0038857)
(0.0817221 0.00233975 -0.00528181)
(0.0772835 0.0024698 -0.00701722)
(0.0719326 0.0027807 -0.00913216)
(0.0650376 0.00322534 -0.0117091)
(0.0566416 0.00367945 -0.014671)
(0.0456798 0.00418288 -0.0180981)
(0.0328081 0.00425336 -0.0210934)
(0.0170365 0.00386097 -0.0223871)
(0.0021703 0.000332315 -0.013748)
(0.103824 0.0113169 1.04759e-05)
(0.107423 0.0145183 -0.000219913)
(0.109142 0.0130227 -0.000686027)
(0.108391 0.00982873 -0.00129957)
(0.106423 0.00724504 -0.00206714)
(0.1038 0.00561136 -0.00302573)
(0.100631 0.00489961 -0.00423448)
(0.0968658 0.00486071 -0.00574996)
(0.0921525 0.00532306 -0.00763944)
(0.0863096 0.00615014 -0.00995282)
(0.0786439 0.00729542 -0.0127771)
(0.0691183 0.00860148 -0.0160482)
(0.0564395 0.0100927 -0.0198319)
(0.0412166 0.0110356 -0.0231922)
(0.0219661 0.0108315 -0.0246216)
(0.00328778 0.00477737 -0.0150125)
(0.101961 0.00738723 2.03064e-05)
(0.10541 0.0114991 -0.000207334)
(0.108318 0.0116082 -0.000671132)
(0.109083 0.00995083 -0.00127814)
(0.108482 0.00825298 -0.00203565)
(0.106842 0.00712393 -0.00298148)
(0.104364 0.00675502 -0.00417415)
(0.101077 0.00707924 -0.00567008)
(0.0967093 0.00802822 -0.00753477)
(0.09112 0.00953084 -0.00982017)
(0.0835869 0.0115998 -0.0126097)
(0.0740624 0.014107 -0.0158502)
(0.0610443 0.0171296 -0.0195962)
(0.0451328 0.0196962 -0.0229424)
(0.0243879 0.0206056 -0.0243455)
(0.00359128 0.0116112 -0.0147672)
(0.100977 0.00497355 4.16588e-05)
(0.103596 0.00882134 -0.000162955)
(0.106381 0.0098072 -0.000604883)
(0.10772 0.0092987 -0.00118787)
(0.107934 0.0084789 -0.00191611)
(0.10709 0.00797905 -0.00282411)
(0.105328 0.00808905 -0.00396585)
(0.102681 0.00887324 -0.00539391)
(0.0989117 0.0103602 -0.00716786)
(0.0939277 0.0125587 -0.00933805)
(0.0869832 0.0155565 -0.0119786)
(0.0780608 0.0192814 -0.0150485)
(0.0653765 0.0239021 -0.018586)
(0.0495486 0.028207 -0.0217633)
(0.0276032 0.0305155 -0.0230629)
(0.00448218 0.0181123 -0.0139266)
(0.100553 0.00349928 6.75617e-05)
(0.10257 0.00669748 -0.000104557)
(0.105057 0.00802292 -0.000515329)
(0.10664 0.0082475 -0.00106663)
(0.107366 0.0081426 -0.00175758)
(0.107141 0.00825127 -0.00261718)
(0.106022 0.00887975 -0.00369299)
(0.104025 0.0101748 -0.00503209)
(0.100931 0.012252 -0.0066861)
(0.0966823 0.0152284 -0.00870216)
(0.0905073 0.0193201 -0.0111415)
(0.0824386 0.0246413 -0.0139772)
(0.07036 0.0316371 -0.0172253)
(0.0550023 0.0391521 -0.0201655)
(0.0319239 0.0454026 -0.0213296)
(0.0062423 0.0304239 -0.0128592)
(0.100397 0.00240211 9.72153e-05)
(0.10212 0.00487965 -3.64043e-05)
(0.104447 0.00627999 -0.000409841)
(0.106203 0.00696755 -0.000923823)
(0.107314 0.00742352 -0.00157118)
(0.107607 0.00806454 -0.00237367)
(0.1071 0.00916942 -0.0033707)
(0.105812 0.0109254 -0.00460184)
(0.103563 0.0135055 -0.00610788)
(0.100374 0.0171189 -0.00792921)
(0.0955263 0.0220799 -0.0101081)
(0.0892255 0.0286941 -0.0126286)
(0.0790942 0.0376249 -0.0154722)
(0.0662624 0.047914 -0.0180596)
(0.0431758 0.0577957 -0.0189955)
(0.0155657 0.0400518 -0.0114822)
(0.10035 0.00146992 0.000128555)
(0.101994 0.00320848 3.65004e-05)
(0.10433 0.00452427 -0.000296287)
(0.106281 0.00549717 -0.000769939)
(0.107724 0.0063862 -0.00137055)
(0.10846 0.00747079 -0.0021119)
(0.108498 0.00898049 -0.00302456)
(0.107875 0.0111197 -0.00413977)
(0.106456 0.0141047 -0.0054868)
(0.104332 0.0182508 -0.00709771)
(0.100851 0.0240043 -0.00899457)
(0.0963918 0.0320855 -0.01117)
(0.088402 0.0436785 -0.0135704)
(0.0787047 0.0597938 -0.0157716)
(0.0566516 0.0803614 -0.0165062)
(0.0312291 0.0792377 -0.0102847)
(0.0876713 0.0171471 9.6199e-06)
(0.0724655 0.0113129 -7.60793e-05)
(0.0579758 0.00680005 -0.000263226)
(0.0501971 0.00318503 -0.000505338)
(0.0453217 0.00143937 -0.000808062)
(0.0423405 0.000650112 -0.00118436)
(0.0399562 0.000353675 -0.00165431)
(0.0376884 0.000248467 -0.00223104)
(0.0350873 0.000220257 -0.00293361)
(0.032068 0.000201449 -0.00376067)
(0.0282533 0.000184959 -0.00473683)
(0.0238275 0.000106364 -0.0057848)
(0.0182558 3.34394e-05 -0.0069436)
(0.0121036 -0.000247763 -0.00779011)
(0.00526348 -0.000441526 -0.00798533)
(-0.000831381 -0.00166665 -0.00479911)
(0.103909 0.0174101 -1.88384e-05)
(0.103382 0.0162078 -0.000191886)
(0.100017 0.0123862 -0.000515519)
(0.0959337 0.00791754 -0.000932664)
(0.0918435 0.0049652 -0.00144838)
(0.0881649 0.00330398 -0.00208797)
(0.0844874 0.00258525 -0.00288985)
(0.0805341 0.00241159 -0.00388592)
(0.0758345 0.0025663 -0.00511309)
(0.070194 0.00290975 -0.00658591)
(0.0630265 0.00339961 -0.00834319)
(0.0543786 0.00391452 -0.0103016)
(0.0433648 0.00450245 -0.0124749)
(0.0306315 0.00468282 -0.0142408)
(0.0155848 0.00437979 -0.0146782)
(0.00187716 0.000807483 -0.00873478)
(0.10381 0.0113317 -2.6669e-05)
(0.10733 0.0145515 -0.000228043)
(0.108911 0.0130701 -0.000585875)
(0.107992 0.00988661 -0.00103874)
(0.105834 0.00731521 -0.00159523)
(0.103003 0.00569941 -0.00228575)
(0.0996025 0.00501394 -0.00315388)
(0.0955767 0.00501096 -0.004237)
(0.0905736 0.00552186 -0.00557621)
(0.0844086 0.00641126 -0.00719249)
(0.0764327 0.00763905 -0.00912662)
(0.06662 0.00904567 -0.011302)
(0.0538607 0.0106665 -0.0137187)
(0.0387785 0.0117434 -0.0157219)
(0.0203133 0.0116335 -0.0162166)
(0.00293407 0.00536924 -0.00957353)
(0.101948 0.00740591 -1.97179e-05)
(0.105319 0.011542 -0.000219838)
(0.108091 0.0116723 -0.000576311)
(0.108692 0.0100331 -0.00102438)
(0.107903 0.00835574 -0.00157346)
(0.106059 0.00725447 -0.00225463)
(0.103355 0.00692494 -0.00311113)
(0.0998136 0.00730272 -0.00418028)
(0.0951623 0.00832375 -0.00550201)
(0.0892589 0.00991821 -0.00709882)
(0.0814221 0.0121065 -0.00900894)
(0.0716183 0.0147531 -0.0111632)
(0.0585201 0.0179486 -0.013553)
(0.0427522 0.0206693 -0.0155437)
(0.0227774 0.021675 -0.0160137)
(0.00327766 0.0123247 -0.00939172)
(0.100965 0.00499584 -3.78744e-06)
(0.103508 0.00887296 -0.00018703)
(0.106161 0.00988616 -0.000527352)
(0.107343 0.00940254 -0.00095762)
(0.107379 0.00861061 -0.00148515)
(0.106342 0.00814754 -0.0021387)
(0.104367 0.00830882 -0.00295825)
(0.101482 0.00916264 -0.00397851)
(0.0974488 0.0107433 -0.0052354)
(0.0921744 0.0130615 -0.00675071)
(0.0849492 0.0162142 -0.00855666)
(0.0757731 0.0201186 -0.0105932)
(0.0630184 0.02496 -0.0128417)
(0.0473388 0.029451 -0.0147194)
(0.0261162 0.0318758 -0.0151272)
(0.00423238 0.0189976 -0.0088185)
(0.100541 0.00352422 1.55889e-05)
(0.102486 0.00675575 -0.000143555)
(0.104846 0.00811316 -0.000460786)
(0.106281 0.00836787 -0.000867625)
(0.10684 0.00829696 -0.00136777)
(0.106435 0.00845012 -0.001986)
(0.10512 0.00914019 -0.00275774)
(0.102907 0.0105191 -0.00371396)
(0.0995729 0.0127096 -0.00488522)
(0.0950643 0.015832 -0.00629167)
(0.0886386 0.020114 -0.00795748)
(0.0803506 0.0256576 -0.00983323)
(0.0682163 0.0329294 -0.0118874)
(0.0530167 0.0406777 -0.0136099)
(0.0306022 0.0470915 -0.0139434)
(0.00606883 0.031555 -0.00810247)
(0.100386 0.00242914 3.77228e-05)
(0.10204 0.00494293 -9.28265e-05)
(0.104247 0.00637848 -0.000382414)
(0.105865 0.00709991 -0.000761748)
(0.106821 0.00759431 -0.00122998)
(0.106951 0.00828547 -0.00180674)
(0.106268 0.00945956 -0.00252171)
(0.104789 0.01131 -0.00340086)
(0.102332 0.0140182 -0.00446777)
(0.0989223 0.0177981 -0.00573909)
(0.0938637 0.0229777 -0.00722775)
(0.0873908 0.0298511 -0.00889452)
(0.0772263 0.039107 -0.0106895)
(0.0645716 0.049681 -0.0121962)
(0.0420732 0.0597848 -0.0124227)
(0.0154929 0.0414415 -0.00723928)
(0.100339 0.00149803 6.10518e-05)
(0.101918 0.00327431 -3.86364e-05)
(0.104143 0.00462697 -0.000298126)
(0.105965 0.00563573 -0.000647757)
(0.107267 0.00656571 -0.0010818)
(0.107857 0.0077037 -0.00161415)
(0.107741 0.00928695 -0.00226831)
(0.106955 0.0115269 -0.00306472)
(0.105361 0.0146489 -0.00401952)
(0.103059 0.0189747 -0.00514491)
(0.099413 0.0249657 -0.00644205)
(0.094837 0.0333343 -0.00788055)
(0.086848 0.0452917 -0.00939319)
(0.0773603 0.0617423 -0.0106664)
(0.0558302 0.0826156 -0.0108145)
(0.0313137 0.0809857 -0.00650459)
(0.0876644 0.0171479 -2.91341e-06)
(0.072424 0.0113163 -6.32798e-05)
(0.0578757 0.00680313 -0.000179405)
(0.0500349 0.00318707 -0.000327214)
(0.0450925 0.00144113 -0.00050979)
(0.0420407 0.000652388 -0.000736673)
(0.0395789 0.00035697 -0.00101993)
(0.0372243 0.000253026 -0.00136699)
(0.0345308 0.000226558 -0.00178844)
(0.0314114 0.000210368 -0.00228135)
(0.0275146 0.000198458 -0.00285833)
(0.0230188 0.000128928 -0.00347041)
(0.017471 7.11921e-05 -0.00413572)
(0.0114052 -0.00017956 -0.00461172)
(0.004851 -0.000349082 -0.00468758)
(-0.000847264 -0.00154324 -0.002828)
(0.103899 0.0174153 -2.43013e-05)
(0.103322 0.0162205 -0.000141374)
(0.0998687 0.0124029 -0.000344509)
(0.09568 0.00793609 -0.00060051)
(0.0914699 0.00498688 -0.000913365)
(0.0876609 0.00333135 -0.00130022)
(0.0838389 0.00262139 -0.00178483)
(0.0797231 0.00245957 -0.00238591)
(0.0748449 0.00263017 -0.00312438)
(0.0690088 0.00299428 -0.00400575)
(0.0616608 0.00351236 -0.00504931)
(0.0528545 0.00406441 -0.00619957)
(0.041822 0.00470304 -0.00745566)
(0.0292143 0.00494673 -0.00845404)
(0.0146714 0.00469034 -0.00863686)
(0.00170796 0.00107541 -0.0051371)
(0.1038 0.0113419 -2.96629e-05)
(0.107268 0.0145744 -0.000165399)
(0.108756 0.0131026 -0.000390494)
(0.107725 0.00992642 -0.000668568)
(0.105436 0.00736343 -0.00100654)
(0.102461 0.00575979 -0.00142443)
(0.0989015 0.00509214 -0.0019494)
(0.0946964 0.00511342 -0.0026035)
(0.0894951 0.00565694 -0.00341016)
(0.0831124 0.00658792 -0.00437862)
(0.0749306 0.00787027 -0.00552906)
(0.0649366 0.00934251 -0.00680943)
(0.0521413 0.0110468 -0.00820987)
(0.0371898 0.012207 -0.00934613)
(0.0192721 0.0121517 -0.0095556)
(0.00272989 0.0057396 -0.0056344)
(0.101939 0.00741885 -2.56398e-05)
(0.105258 0.0115716 -0.000160754)
(0.107939 0.0117165 -0.000385207)
(0.108429 0.0100899 -0.000660313)
(0.107513 0.00842653 -0.000993759)
(0.105527 0.00734426 -0.00140592)
(0.102667 0.00704159 -0.00192383)
(0.0989503 0.00745582 -0.00256951)
(0.0941049 0.00852568 -0.00336575)
(0.0879888 0.0101821 -0.00432272)
(0.0799497 0.0124501 -0.00545921)
(0.0699689 0.0151893 -0.00672751)
(0.0568337 0.0184978 -0.008113)
(0.0411974 0.0213173 -0.00924274)
(0.0217602 0.0223811 -0.00943878)
(0.00309656 0.0127907 -0.00553086)
(0.100956 0.00501129 -1.57821e-05)
(0.10345 0.00890864 -0.000140617)
(0.106015 0.00994068 -0.000355188)
(0.10709 0.00947419 -0.000619346)
(0.107004 0.00870141 -0.000939611)
(0.105834 0.00826357 -0.00133492)
(0.103712 0.00845996 -0.0018304)
(0.100662 0.00936137 -0.00244651)
(0.0964483 0.0110059 -0.00320373)
(0.0909765 0.0134054 -0.00411195)
(0.0835636 0.0166626 -0.00518669)
(0.0742261 0.0206874 -0.00638578)
(0.0614392 0.0256748 -0.00768946)
(0.0458919 0.0302879 -0.00875487)
(0.0251751 0.0327858 -0.00891933)
(0.0040901 0.019592 -0.00519951)
(0.100533 0.00354151 -3.82386e-06)
(0.102429 0.00679604 -0.000113842)
(0.104706 0.00817546 -0.000314184)
(0.10604 0.00845092 -0.000563953)
(0.106485 0.00840339 -0.000867449)
(0.105956 0.00858708 -0.00124122)
(0.104506 0.00931938 -0.00170763)
(0.102142 0.0107557 -0.00228491)
(0.098644 0.0130235 -0.00299045)
(0.0939583 0.016245 -0.00383326)
(0.0873648 0.0206556 -0.00482438)
(0.0789371 0.0263484 -0.00592803)
(0.0667789 0.0338026 -0.0071179)
(0.0517155 0.0417045 -0.00809263)