/*--------------------------------*- C++ -*----------------------------------*\
| =========                 |                                                 |
| \\      /  F ield         | OpenFOAM: The Open Source CFD Toolbox           |
|  \\    /   O peration     | Version:  v1912                                 |
|   \\  /    A nd           | Website:  www.openfoam.com                      |
|    \\/     M anipulation  |                                                 |
\*---------------------------------------------------------------------------*/
FoamFile
{
    version     2.0;
    format      ascii;
    class       volVectorField;
    location    "0.03/fluid";
    object      cellMotionU;
}
// * * * * * * * * * * * * * * * * * * * * * * * * * * * * * * * * * * * * * //

dimensions      [0 1 -1 0 0 0 0];


internalField   nonuniform List<vector> 
14592
(
(-8.47389e-09 -6.76585e-09 1.92365e-09)
(-2.67997e-08 -2.3869e-08 7.58368e-09)
(-4.81339e-08 -4.79152e-08 1.71322e-08)
(-7.42406e-08 -8.25714e-08 3.26116e-08)
(-1.03686e-07 -1.27231e-07 5.42469e-08)
(-1.34511e-07 -1.79479e-07 7.96594e-08)
(-1.5544e-07 -2.25232e-07 1.02574e-07)
(-1.64706e-07 -2.61512e-07 1.15986e-07)
(-1.66139e-07 -2.99299e-07 1.31129e-07)
(-1.92389e-07 -3.68546e-07 1.59212e-07)
(-2.81567e-07 -5.00583e-07 2.40132e-07)
(-4.88589e-07 -6.96679e-07 3.80781e-07)
(-8.84258e-07 -8.93675e-07 5.63869e-07)
(-1.37877e-06 -9.1935e-07 7.15472e-07)
(-1.88038e-06 -6.30236e-07 7.67375e-07)
(-2.3845e-06 2.69737e-08 6.98573e-07)
(-2.11377e-08 -1.48378e-08 3.92322e-09)
(-6.58338e-08 -5.29352e-08 1.66156e-08)
(-1.21618e-07 -1.14128e-07 4.1279e-08)
(-1.8814e-07 -2.02498e-07 8.1332e-08)
(-2.649e-07 -3.20255e-07 1.37804e-07)
(-3.4166e-07 -4.56162e-07 2.05734e-07)
(-4.01508e-07 -5.8802e-07 2.66531e-07)
(-4.30066e-07 -7.04316e-07 3.16348e-07)
(-4.46089e-07 -8.26271e-07 3.52255e-07)
(-5.03407e-07 -1.02176e-06 4.40651e-07)
(-7.19623e-07 -1.363e-06 6.35172e-07)
(-1.2279e-06 -1.84509e-06 9.91364e-07)
(-2.12196e-06 -2.32376e-06 1.47946e-06)
(-3.09844e-06 -2.47581e-06 1.92023e-06)
(-3.5585e-06 -2.1223e-06 2.24891e-06)
(-3.14622e-06 -1.42131e-06 2.36276e-06)
(-2.83226e-08 -1.54137e-08 3.6282e-09)
(-9.17221e-08 -6.35438e-08 2.00717e-08)
(-1.70913e-07 -1.46588e-07 5.43241e-08)
(-2.67094e-07 -2.72564e-07 1.12247e-07)
(-3.77019e-07 -4.42903e-07 1.95546e-07)
(-4.88656e-07 -6.44979e-07 2.95716e-07)
(-5.81309e-07 -8.54227e-07 3.9538e-07)
(-6.36425e-07 -1.04947e-06 4.70367e-07)
(-6.64725e-07 -1.25715e-06 5.42266e-07)
(-7.4164e-07 -1.54986e-06 6.54508e-07)
(-1.00181e-06 -2.01233e-06 9.21175e-07)
(-1.63681e-06 -2.66271e-06 1.41519e-06)
(-2.84248e-06 -3.38976e-06 2.15466e-06)
(-4.00018e-06 -3.8307e-06 3.00366e-06)
(-4.34705e-06 -3.80782e-06 3.77793e-06)
(-3.43122e-06 -3.42265e-06 4.24956e-06)
(-3.42143e-08 -1.34841e-08 3.06223e-09)
(-1.12127e-07 -6.47437e-08 2.09809e-08)
(-2.10977e-07 -1.62346e-07 6.30811e-08)
(-3.30843e-07 -3.15801e-07 1.34985e-07)
(-4.65215e-07 -5.24595e-07 2.40004e-07)
(-6.04458e-07 -7.78914e-07 3.66815e-07)
(-7.2494e-07 -1.0515e-06 4.97111e-07)
(-8.08153e-07 -1.3227e-06 6.06259e-07)
(-8.60681e-07 -1.60305e-06 6.93946e-07)
(-9.42753e-07 -1.95766e-06 8.31788e-07)
(-1.21117e-06 -2.48024e-06 1.12059e-06)
(-1.90383e-06 -3.22796e-06 1.70367e-06)
(-3.20898e-06 -4.15924e-06 2.68679e-06)
(-4.50479e-06 -4.99618e-06 3.93376e-06)
(-4.84194e-06 -5.44932e-06 5.2014e-06)
(-3.89259e-06 -5.34916e-06 5.91396e-06)
(-4.07627e-08 -1.14972e-08 2.48756e-09)
(-1.33428e-07 -6.37485e-08 2.24979e-08)
(-2.50576e-07 -1.72056e-07 7.09405e-08)
(-3.91268e-07 -3.46323e-07 1.56109e-07)
(-5.48559e-07 -5.86432e-07 2.77603e-07)
(-7.09062e-07 -8.80787e-07 4.30579e-07)
(-8.56121e-07 -1.20678e-06 5.86262e-07)
(-9.67889e-07 -1.53648e-06 7.20595e-07)
(-1.04649e-06 -1.87377e-06 8.33917e-07)
(-1.1511e-06 -2.26917e-06 9.75795e-07)
(-1.43126e-06 -2.8151e-06 1.27933e-06)
(-2.12817e-06 -3.61451e-06 1.92535e-06)
(-3.48109e-06 -4.74021e-06 3.09228e-06)
(-4.76103e-06 -6.00415e-06 4.77253e-06)
(-5.11044e-06 -7.01068e-06 6.52788e-06)
(-4.24137e-06 -7.23178e-06 7.49189e-06)
(-4.80569e-08 -9.32484e-09 2.33011e-09)
(-1.56258e-07 -6.20639e-08 2.43897e-08)
(-2.92295e-07 -1.78421e-07 7.89927e-08)
(-4.53356e-07 -3.69194e-07 1.75557e-07)
(-6.30299e-07 -6.33115e-07 3.14341e-07)
(-8.11755e-07 -9.59595e-07 4.8619e-07)
(-9.80522e-07 -1.32427e-06 6.67724e-07)
(-1.12024e-06 -1.70008e-06 8.27853e-07)
(-1.23447e-06 -2.0782e-06 9.57044e-07)
(-1.37509e-06 -2.49654e-06 1.11209e-06)
(-1.68843e-06 -3.05361e-06 1.41683e-06)
(-2.41464e-06 -3.89957e-06 2.09223e-06)
(-3.6994e-06 -5.20567e-06 3.44959e-06)
(-4.85251e-06 -6.89405e-06 5.49628e-06)
(-5.00898e-06 -8.4763e-06 7.82354e-06)
(-4.21544e-06 -9.09655e-06 9.12902e-06)
(-5.59591e-08 -7.56312e-09 2.62639e-09)
(-1.81377e-07 -6.02678e-08 2.63582e-08)
(-3.35463e-07 -1.82114e-07 8.7849e-08)
(-5.16062e-07 -3.84593e-07 1.93947e-07)
(-7.119e-07 -6.66375e-07 3.48299e-07)
(-9.10716e-07 -1.01539e-06 5.39763e-07)
(-1.09873e-06 -1.40877e-06 7.43714e-07)
(-1.26501e-06 -1.81514e-06 9.26248e-07)
(-1.41475e-06 -2.22062e-06 1.0813e-06)
(-1.60717e-06 -2.65953e-06 1.24676e-06)
(-1.98553e-06 -3.23844e-06 1.55679e-06)
(-2.72376e-06 -4.14156e-06 2.27407e-06)
(-3.92748e-06 -5.60484e-06 3.72141e-06)
(-4.66473e-06 -7.61434e-06 6.13713e-06)
(-4.32304e-06 -9.76319e-06 9.0933e-06)
(-3.28854e-06 -1.10985e-05 1.09865e-05)
(-6.47686e-08 -6.32311e-09 2.74132e-09)
(-2.0702e-07 -5.88769e-08 2.96682e-08)
(-3.79716e-07 -1.83675e-07 9.64842e-08)
(-5.78742e-07 -3.94125e-07 2.13176e-07)
(-7.90773e-07 -6.8667e-07 3.81916e-07)
(-1.00417e-06 -1.05094e-06 5.91174e-07)
(-1.2073e-06 -1.46094e-06 8.15667e-07)
(-1.3935e-06 -1.88642e-06 1.02472e-06)
(-1.57654e-06 -2.31029e-06 1.20608e-06)
(-1.8217e-06 -2.77323e-06 1.40115e-06)
(-2.25374e-06 -3.38694e-06 1.73963e-06)
(-3.02141e-06 -4.35152e-06 2.46143e-06)
(-4.02982e-06 -5.86873e-06 3.96198e-06)
(-4.29674e-06 -7.96349e-06 6.56247e-06)
(-3.28702e-06 -1.0153e-05 9.99354e-06)
(-1.21459e-06 -1.18393e-05 1.28216e-05)
(-7.72219e-09 -4.94147e-09 1.31601e-09)
(-2.45311e-08 -1.84576e-08 5.88709e-09)
(-4.52316e-08 -4.00219e-08 1.41992e-08)
(-7.26675e-08 -7.47198e-08 2.9162e-08)
(-1.04254e-07 -1.20144e-07 4.95455e-08)
(-1.40029e-07 -1.77612e-07 7.68707e-08)
(-1.63274e-07 -2.24174e-07 9.71935e-08)
(-1.75263e-07 -2.6501e-07 1.16294e-07)
(-1.81677e-07 -3.0465e-07 1.28652e-07)
(-2.09693e-07 -3.76344e-07 1.65622e-07)
(-3.10283e-07 -5.10935e-07 2.3888e-07)
(-5.15234e-07 -7.02635e-07 3.67568e-07)
(-8.33702e-07 -8.63203e-07 5.0803e-07)
(-1.43308e-06 -9.33778e-07 6.42043e-07)
(-2.77664e-06 -9.74116e-07 8.98559e-07)
(-5.004e-06 -1.05909e-06 1.26238e-06)
(-1.88131e-08 -9.31427e-09 2.50682e-09)
(-5.99221e-08 -3.80182e-08 1.21102e-08)
(-1.15336e-07 -9.40022e-08 3.44103e-08)
(-1.84959e-07 -1.81341e-07 7.20964e-08)
(-2.70938e-07 -3.06566e-07 1.29807e-07)
(-3.56271e-07 -4.48194e-07 1.94187e-07)
(-4.26607e-07 -5.91764e-07 2.61371e-07)
(-4.63281e-07 -7.12184e-07 3.06377e-07)
(-4.83809e-07 -8.39763e-07 3.57324e-07)
(-5.60509e-07 -1.04276e-06 4.41018e-07)
(-7.92809e-07 -1.38971e-06 6.4043e-07)
(-1.28375e-06 -1.85656e-06 9.56536e-07)
(-2.08897e-06 -2.29247e-06 1.33982e-06)
(-3.31555e-06 -2.54342e-06 1.79745e-06)
(-5.177e-06 -2.64979e-06 2.40564e-06)
(-6.93957e-06 -2.66912e-06 2.9561e-06)
(-2.45558e-08 -6.54533e-09 1.49042e-09)
(-8.35523e-08 -4.1337e-08 1.39156e-08)
(-1.62031e-07 -1.15908e-07 4.46491e-08)
(-2.64878e-07 -2.43102e-07 1.01173e-07)
(-3.85695e-07 -4.20039e-07 1.82708e-07)
(-5.14058e-07 -6.37464e-07 2.84999e-07)
(-6.18943e-07 -8.55232e-07 3.81067e-07)
(-6.84313e-07 -1.05999e-06 4.64209e-07)
(-7.26927e-07 -1.27356e-06 5.32667e-07)
(-8.16662e-07 -1.57326e-06 6.61926e-07)
(-1.10183e-06 -2.04346e-06 9.12416e-07)
(-1.74282e-06 -2.69268e-06 1.36238e-06)
(-2.79651e-06 -3.37499e-06 2.00585e-06)
(-4.33132e-06 -3.95198e-06 2.82312e-06)
(-6.15622e-06 -4.34875e-06 3.90934e-06)
(-7.39801e-06 -4.53227e-06 4.75577e-06)
(-2.99013e-08 -2.52307e-09 4.11002e-10)
(-1.01798e-07 -3.58583e-08 1.37563e-08)
(-2.01055e-07 -1.23988e-07 5.18727e-08)
(-3.27528e-07 -2.76439e-07 1.21842e-07)
(-4.77681e-07 -4.96151e-07 2.2503e-07)
(-6.32793e-07 -7.62531e-07 3.51957e-07)
(-7.72152e-07 -1.0508e-06 4.81118e-07)
(-8.69373e-07 -1.32886e-06 5.87114e-07)
(-9.32897e-07 -1.6145e-06 6.85058e-07)
(-1.0377e-06 -1.97715e-06 8.18409e-07)
(-1.32952e-06 -2.5119e-06 1.10838e-06)
(-2.01132e-06 -3.26541e-06 1.64971e-06)
(-3.20729e-06 -4.19233e-06 2.50662e-06)
(-4.86037e-06 -5.17012e-06 3.75489e-06)
(-6.69837e-06 -5.98171e-06 5.30829e-06)
(-7.87025e-06 -6.35427e-06 6.39299e-06)
(-3.5412e-08 1.97298e-09 -4.19682e-10)
(-1.22175e-07 -3.02151e-08 1.42905e-08)
(-2.39227e-07 -1.26393e-07 5.85281e-08)
(-3.88275e-07 -2.99764e-07 1.40311e-07)
(-5.59664e-07 -5.47759e-07 2.61307e-07)
(-7.41664e-07 -8.5886e-07 4.10373e-07)
(-9.06987e-07 -1.19717e-06 5.64298e-07)
(-1.03656e-06 -1.53638e-06 6.97023e-07)
(-1.13303e-06 -1.87829e-06 8.0686e-07)
(-1.25554e-06 -2.28052e-06 9.58168e-07)
(-1.55919e-06 -2.84273e-06 1.25152e-06)
(-2.2625e-06 -3.67298e-06 1.85443e-06)
(-3.46993e-06 -4.82639e-06 2.94204e-06)
(-5.14868e-06 -6.24332e-06 4.57652e-06)
(-6.96099e-06 -7.51326e-06 6.62181e-06)
(-8.18837e-06 -8.09475e-06 7.92979e-06)
(-4.26341e-08 5.2321e-09 -6.83093e-10)
(-1.44577e-07 -2.50036e-08 1.51758e-08)
(-2.8069e-07 -1.27756e-07 6.5845e-08)
(-4.49613e-07 -3.15732e-07 1.5778e-07)
(-6.42527e-07 -5.8826e-07 2.94404e-07)
(-8.43898e-07 -9.28919e-07 4.63331e-07)
(-1.03566e-06 -1.30869e-06 6.39793e-07)
(-1.19672e-06 -1.69309e-06 7.93514e-07)
(-1.32942e-06 -2.07472e-06 9.25025e-07)
(-1.49583e-06 -2.50236e-06 1.07476e-06)
(-1.83652e-06 -3.0848e-06 1.37715e-06)
(-2.54932e-06 -3.98427e-06 2.04228e-06)
(-3.73364e-06 -5.36766e-06 3.29545e-06)
(-5.22745e-06 -7.19909e-06 5.34974e-06)
(-6.81455e-06 -8.90395e-06 7.87275e-06)
(-8.07157e-06 -9.70078e-06 9.4517e-06)
(-5.07072e-08 7.68581e-09 -1.08245e-09)
(-1.69922e-07 -2.12643e-08 1.76607e-08)
(-3.24588e-07 -1.28619e-07 7.26158e-08)
(-5.13047e-07 -3.27369e-07 1.7589e-07)
(-7.24183e-07 -6.16362e-07 3.25887e-07)
(-9.44729e-07 -9.80047e-07 5.1365e-07)
(-1.15705e-06 -1.38816e-06 7.09989e-07)
(-1.347e-06 -1.80246e-06 8.87748e-07)
(-1.52354e-06 -2.21314e-06 1.03366e-06)
(-1.74573e-06 -2.66375e-06 1.20183e-06)
(-2.15069e-06 -3.27854e-06 1.51881e-06)
(-2.91264e-06 -4.26572e-06 2.20968e-06)
(-3.97165e-06 -5.84532e-06 3.64745e-06)
(-5.05086e-06 -7.97283e-06 6.00453e-06)
(-5.94147e-06 -1.00296e-05 9.00165e-06)
(-6.79641e-06 -1.12806e-05 1.09283e-05)
(-5.98409e-08 9.01184e-09 -2.82086e-10)
(-1.9691e-07 -1.98465e-08 1.99755e-08)
(-3.7046e-07 -1.29783e-07 8.17364e-08)
(-5.76974e-07 -3.35598e-07 1.94238e-07)
(-8.04825e-07 -6.35142e-07 3.58292e-07)
(-1.0399e-06 -1.01399e-06 5.62197e-07)
(-1.26855e-06 -1.4371e-06 7.79216e-07)
(-1.48247e-06 -1.8712e-06 9.77656e-07)
(-1.69648e-06 -2.3009e-06 1.15222e-06)
(-1.97757e-06 -2.77823e-06 1.3479e-06)
(-2.45817e-06 -3.44059e-06 1.68417e-06)
(-3.24315e-06 -4.50636e-06 2.42375e-06)
(-4.15493e-06 -6.16767e-06 3.9105e-06)
(-4.658e-06 -8.28273e-06 6.41673e-06)
(-4.35041e-06 -1.02376e-05 9.71023e-06)
(-3.72657e-06 -1.12751e-05 1.20687e-05)
(-6.93926e-09 -2.98649e-09 6.14714e-10)
(-2.22853e-08 -1.2915e-08 3.37832e-09)
(-4.3263e-08 -3.31054e-08 1.06155e-08)
(-7.18968e-08 -6.75656e-08 2.40197e-08)
(-1.07942e-07 -1.17238e-07 4.46532e-08)
(-1.45236e-07 -1.74607e-07 6.81093e-08)
(-1.72892e-07 -2.26673e-07 9.1305e-08)
(-1.85834e-07 -2.66122e-07 1.05033e-07)
(-1.92496e-07 -3.05534e-07 1.23684e-07)
(-2.31865e-07 -3.80332e-07 1.53474e-07)
(-3.4661e-07 -5.19793e-07 2.28543e-07)
(-5.816e-07 -7.17966e-07 3.39394e-07)
(-9.88638e-07 -9.10039e-07 4.55892e-07)
(-1.77639e-06 -1.05971e-06 5.96397e-07)
(-3.51148e-06 -1.31551e-06 8.08124e-07)
(-6.27257e-06 -1.77794e-06 9.87882e-07)
(-1.64043e-08 -3.58422e-09 3.46022e-10)
(-5.51717e-08 -2.44245e-08 6.87804e-09)
(-1.10206e-07 -7.51921e-08 2.55756e-08)
(-1.8503e-07 -1.64637e-07 6.15555e-08)
(-2.78043e-07 -2.93999e-07 1.14636e-07)
(-3.74092e-07 -4.46483e-07 1.80014e-07)
(-4.49063e-07 -5.9139e-07 2.37936e-07)
(-4.8706e-07 -7.12529e-07 2.88863e-07)
(-5.17505e-07 -8.42022e-07 3.30325e-07)
(-6.07959e-07 -1.04915e-06 4.24342e-07)
(-8.80472e-07 -1.40587e-06 5.99247e-07)
(-1.4454e-06 -1.89304e-06 8.79653e-07)
(-2.40246e-06 -2.37812e-06 1.22912e-06)
(-4.04053e-06 -2.78329e-06 1.64457e-06)
(-6.54083e-06 -3.19809e-06 2.18044e-06)
(-8.87109e-06 -3.56175e-06 2.43693e-06)
(-2.15092e-08 1.54699e-09 -1.15039e-09)
(-7.61266e-08 -2.01493e-08 6.65669e-09)
(-1.5542e-07 -8.83309e-08 3.34087e-08)
(-2.64153e-07 -2.15819e-07 8.56651e-08)
(-3.97222e-07 -4.0213e-07 1.64486e-07)
(-5.35901e-07 -6.26203e-07 2.59409e-07)
(-6.49894e-07 -8.51432e-07 3.53487e-07)
(-7.21699e-07 -1.05672e-06 4.26382e-07)
(-7.69949e-07 -1.27032e-06 5.04039e-07)
(-8.87313e-07 -1.57743e-06 6.18133e-07)
(-1.21703e-06 -2.06177e-06 8.60094e-07)
(-1.93701e-06 -2.73267e-06 1.26174e-06)
(-3.21338e-06 -3.4889e-06 1.81442e-06)
(-5.19569e-06 -4.21824e-06 2.61983e-06)
(-7.74552e-06 -4.91501e-06 3.55734e-06)
(-9.50678e-06 -5.34968e-06 4.06482e-06)
(-2.57949e-08 8.15851e-09 -2.57588e-09)
(-9.30616e-08 -9.16766e-09 5.33539e-09)
(-1.92226e-07 -8.7637e-08 3.84634e-08)
(-3.25996e-07 -2.40086e-07 1.02975e-07)
(-4.87456e-07 -4.65653e-07 2.0175e-07)
(-6.58365e-07 -7.44366e-07 3.20577e-07)
(-8.07708e-07 -1.03723e-06 4.41136e-07)
(-9.12705e-07 -1.31728e-06 5.44023e-07)
(-9.90796e-07 -1.60511e-06 6.31587e-07)
(-1.11697e-06 -1.97427e-06 7.70749e-07)
(-1.45786e-06 -2.5258e-06 1.03192e-06)
(-2.2385e-06 -3.31623e-06 1.51432e-06)
(-3.639e-06 -4.3182e-06 2.30417e-06)
(-5.78118e-06 -5.44803e-06 3.47857e-06)
(-8.34179e-06 -6.51505e-06 4.85671e-06)
(-9.99342e-06 -7.09562e-06 5.57972e-06)
(-3.09343e-08 1.43666e-08 -3.88937e-09)
(-1.11907e-07 1.46642e-09 4.95145e-09)
(-2.28949e-07 -8.29116e-08 4.3065e-08)
(-3.84233e-07 -2.53263e-07 1.1906e-07)
(-5.69352e-07 -5.08451e-07 2.31745e-07)
(-7.65505e-07 -8.27838e-07 3.73501e-07)
(-9.46126e-07 -1.17461e-06 5.15295e-07)
(-1.0883e-06 -1.51639e-06 6.37538e-07)
(-1.19842e-06 -1.85986e-06 7.46458e-07)
(-1.34963e-06 -2.27132e-06 8.83547e-07)
(-1.70156e-06 -2.85735e-06 1.16047e-06)
(-2.48915e-06 -3.73184e-06 1.71743e-06)
(-3.9259e-06 -4.97505e-06 2.68589e-06)
(-6.06485e-06 -6.51497e-06 4.27113e-06)
(-8.59081e-06 -7.96643e-06 6.05604e-06)
(-1.02771e-05 -8.69195e-06 6.97616e-06)
(-3.78307e-08 1.88755e-08 -4.57442e-09)
(-1.33764e-07 1.01738e-08 5.50938e-09)
(-2.69331e-07 -7.87476e-08 4.82066e-08)
(-4.44446e-07 -2.62233e-07 1.33843e-07)
(-6.50067e-07 -5.39159e-07 2.61278e-07)
(-8.69164e-07 -8.90095e-07 4.18699e-07)
(-1.07758e-06 -1.27749e-06 5.81894e-07)
(-1.2548e-06 -1.6649e-06 7.24846e-07)
(-1.40877e-06 -2.05037e-06 8.42253e-07)
(-1.60256e-06 -2.48931e-06 9.91398e-07)
(-1.99051e-06 -3.1028e-06 1.27482e-06)
(-2.80154e-06 -4.06353e-06 1.8729e-06)
(-4.17628e-06 -5.53627e-06 3.05347e-06)
(-6.11558e-06 -7.44638e-06 4.96993e-06)
(-8.36675e-06 -9.20818e-06 7.15556e-06)
(-1.00715e-05 -1.00323e-05 8.26424e-06)
(-4.59691e-08 2.20695e-08 -4.44357e-09)
(-1.5922e-07 1.56085e-08 6.33032e-09)
(-3.13046e-07 -7.62547e-08 5.52286e-08)
(-5.07785e-07 -2.69392e-07 1.48661e-07)
(-7.32184e-07 -5.6237e-07 2.89281e-07)
(-9.70591e-07 -9.35352e-07 4.63266e-07)
(-1.20276e-06 -1.35065e-06 6.44991e-07)
(-1.41416e-06 -1.76975e-06 8.04499e-07)
(-1.61379e-06 -2.18423e-06 9.4389e-07)
(-1.87003e-06 -2.65074e-06 1.10018e-06)
(-2.33227e-06 -3.30657e-06 1.39269e-06)
(-3.17188e-06 -4.36682e-06 2.06346e-06)
(-4.41494e-06 -6.02744e-06 3.35355e-06)
(-5.84624e-06 -8.17245e-06 5.58323e-06)
(-7.31082e-06 -1.01286e-05 8.0637e-06)
(-8.58586e-06 -1.12459e-05 9.35245e-06)
(-5.54469e-08 2.32794e-08 -4.51027e-09)
(-1.87019e-07 1.74968e-08 9.51136e-09)
(-3.60039e-07 -7.69861e-08 6.28708e-08)
(-5.7285e-07 -2.76598e-07 1.65564e-07)
(-8.13989e-07 -5.79572e-07 3.18963e-07)
(-1.06804e-06 -9.66124e-07 5.08088e-07)
(-1.31861e-06 -1.398e-06 7.06478e-07)
(-1.55639e-06 -1.83508e-06 8.87731e-07)
(-1.79938e-06 -2.27041e-06 1.04775e-06)
(-2.12207e-06 -2.76765e-06 1.22805e-06)
(-2.65946e-06 -3.47801e-06 1.55648e-06)
(-3.52925e-06 -4.62272e-06 2.24928e-06)
(-4.56579e-06 -6.35283e-06 3.62309e-06)
(-5.30223e-06 -8.42932e-06 5.9546e-06)
(-5.44612e-06 -1.01314e-05 8.52938e-06)
(-5.16848e-06 -1.08675e-05 1.00725e-05)
(-6.35471e-09 -1.51502e-09 1.64138e-10)
(-2.08461e-08 -8.9644e-09 2.2222e-09)
(-4.19319e-08 -2.79288e-08 8.27606e-09)
(-7.1553e-08 -6.24458e-08 2.05708e-08)
(-1.09764e-07 -1.13791e-07 3.91492e-08)
(-1.48913e-07 -1.73154e-07 6.1832e-08)
(-1.76962e-07 -2.25373e-07 8.05107e-08)
(-1.86511e-07 -2.62075e-07 9.69542e-08)
(-1.94057e-07 -3.0067e-07 1.09073e-07)
(-2.34076e-07 -3.74653e-07 1.44339e-07)
(-3.60181e-07 -5.16833e-07 2.0596e-07)
(-6.08892e-07 -7.16641e-07 3.06009e-07)
(-1.04735e-06 -9.14248e-07 4.20218e-07)
(-1.95344e-06 -1.12255e-06 5.3833e-07)
(-3.83333e-06 -1.49668e-06 7.17724e-07)
(-6.65766e-06 -2.07455e-06 8.83733e-07)
(-1.48142e-08 5.62815e-10 -4.57083e-10)
(-5.20176e-08 -1.42325e-08 3.83952e-09)
(-1.06902e-07 -6.09953e-08 1.98018e-08)
(-1.8502e-07 -1.51043e-07 5.19575e-08)
(-2.83144e-07 -2.84265e-07 1.01624e-07)
(-3.83576e-07 -4.40278e-07 1.5854e-07)
(-4.56932e-07 -5.83711e-07 2.14235e-07)
(-4.93101e-07 -7.01309e-07 2.53181e-07)
(-5.19554e-07 -8.25972e-07 3.02424e-07)
(-6.23536e-07 -1.03565e-06 3.79133e-07)
(-9.16864e-07 -1.39632e-06 5.45712e-07)
(-1.51807e-06 -1.88883e-06 7.94007e-07)
(-2.58914e-06 -2.40946e-06 1.0981e-06)
(-4.4616e-06 -2.92892e-06 1.48318e-06)
(-7.21003e-06 -3.53537e-06 1.90667e-06)
(-9.52948e-06 -3.98952e-06 2.13184e-06)
(-1.93629e-08 7.62333e-09 -2.07528e-09)
(-7.09022e-08 -3.78938e-09 2.49376e-09)
(-1.50535e-07 -6.63034e-08 2.52961e-08)
(-2.63021e-07 -1.93156e-07 7.2438e-08)
(-4.0267e-07 -3.83329e-07 1.43921e-07)
(-5.46635e-07 -6.11303e-07 2.29822e-07)
(-6.61224e-07 -8.35447e-07 3.11035e-07)
(-7.2762e-07 -1.03433e-06 3.81618e-07)
(-7.79138e-07 -1.24493e-06 4.44244e-07)
(-9.06471e-07 -1.5525e-06 5.62143e-07)
(-1.26887e-06 -2.04522e-06 7.71717e-07)
(-2.04776e-06 -2.73255e-06 1.1263e-06)
(-3.45848e-06 -3.53083e-06 1.65179e-06)
(-5.7567e-06 -4.41246e-06 2.32465e-06)
(-8.57436e-06 -5.29721e-06 3.10088e-06)
(-1.02865e-05 -5.80217e-06 3.52066e-06)
(-2.25418e-08 1.67022e-08 -3.95446e-09)
(-8.63412e-08 1.21861e-08 7.64269e-10)
(-1.8463e-07 -5.72242e-08 2.83689e-08)
(-3.21962e-07 -2.07035e-07 8.69529e-08)
(-4.90933e-07 -4.35989e-07 1.74345e-07)
(-6.67828e-07 -7.17913e-07 2.82809e-07)
(-8.18762e-07 -1.00951e-06 3.8818e-07)
(-9.2354e-07 -1.28477e-06 4.76351e-07)
(-1.00235e-06 -1.56788e-06 5.63422e-07)
(-1.14672e-06 -1.94091e-06 6.82889e-07)
(-1.52054e-06 -2.50411e-06 9.26129e-07)
(-2.36104e-06 -3.31846e-06 1.3683e-06)
(-3.9279e-06 -4.38556e-06 2.07681e-06)
(-6.3983e-06 -5.66266e-06 3.10031e-06)
(-9.22371e-06 -6.88668e-06 4.22229e-06)
(-1.07965e-05 -7.51815e-06 4.81473e-06)
(-2.74485e-08 2.41053e-08 -5.01791e-09)
(-1.0309e-07 2.80229e-08 -5.14356e-10)
(-2.18779e-07 -4.50005e-08 3.16816e-08)
(-3.77139e-07 -2.10582e-07 9.85844e-08)
(-5.69204e-07 -4.67077e-07 2.01283e-07)
(-7.73419e-07 -7.89803e-07 3.24696e-07)
(-9.5846e-07 -1.13585e-06 4.50896e-07)
(-1.10258e-06 -1.47294e-06 5.58801e-07)
(-1.22048e-06 -1.8141e-06 6.51935e-07)
(-1.38794e-06 -2.23041e-06 7.86297e-07)
(-1.77538e-06 -2.83581e-06 1.03751e-06)
(-2.63322e-06 -3.751e-06 1.53935e-06)
(-4.22958e-06 -5.06711e-06 2.46214e-06)
(-6.7046e-06 -6.73621e-06 3.78581e-06)
(-9.47057e-06 -8.27209e-06 5.24663e-06)
(-1.10621e-05 -9.00694e-06 5.9832e-06)
(-3.35351e-08 3.03092e-08 -5.70836e-09)
(-1.24014e-07 4.00885e-08 -8.99165e-10)
(-2.56935e-07 -3.48684e-08 3.58588e-08)
(-4.34973e-07 -2.11744e-07 1.10337e-07)
(-6.47923e-07 -4.88998e-07 2.24111e-07)
(-8.76059e-07 -8.42402e-07 3.64244e-07)
(-1.0922e-06 -1.22938e-06 5.06292e-07)
(-1.27691e-06 -1.61346e-06 6.28571e-07)
(-1.44058e-06 -1.99725e-06 7.38997e-07)
(-1.65697e-06 -2.44638e-06 8.69376e-07)
(-2.08412e-06 -3.08821e-06 1.13273e-06)
(-2.95886e-06 -4.10386e-06 1.71157e-06)
(-4.50164e-06 -5.65955e-06 2.77863e-06)
(-6.74387e-06 -7.64909e-06 4.4121e-06)
(-9.20063e-06 -9.39485e-06 6.13531e-06)
(-1.08066e-05 -1.01666e-05 6.99354e-06)
(-4.17237e-08 3.40472e-08 -6.24974e-09)
(-1.48583e-07 4.79299e-08 6.49596e-10)
(-3.00164e-07 -2.89525e-08 4.0147e-08)
(-4.97038e-07 -2.14301e-07 1.23297e-07)
(-7.2945e-07 -5.06452e-07 2.47883e-07)
(-9.7845e-07 -8.81363e-07 4.01627e-07)
(-1.22171e-06 -1.29638e-06 5.58997e-07)
(-1.44391e-06 -1.71233e-06 6.9992e-07)
(-1.66015e-06 -2.12779e-06 8.17605e-07)
(-1.94336e-06 -2.60848e-06 9.63261e-07)
(-2.44505e-06 -3.30226e-06 1.2497e-06)
(-3.35875e-06 -4.43047e-06 1.8594e-06)
(-4.74432e-06 -6.17247e-06 3.09134e-06)
(-6.42359e-06 -8.32809e-06 4.89674e-06)
(-8.05169e-06 -1.01813e-05 6.81936e-06)
(-9.23606e-06 -1.11945e-05 7.76693e-06)
(-5.11628e-08 3.55366e-08 -5.52167e-09)
(-1.76876e-07 5.03848e-08 2.49736e-09)
(-3.4724e-07 -2.88151e-08 4.7447e-08)
(-5.62956e-07 -2.19946e-07 1.38357e-07)
(-8.12262e-07 -5.21753e-07 2.735e-07)
(-1.07826e-06 -9.09435e-07 4.40601e-07)
(-1.34214e-06 -1.34035e-06 6.13648e-07)
(-1.5953e-06 -1.77492e-06 7.69311e-07)
(-1.8598e-06 -2.21311e-06 9.08408e-07)
(-2.21273e-06 -2.7277e-06 1.07702e-06)
(-2.79945e-06 -3.483e-06 1.3799e-06)
(-3.7385e-06 -4.70261e-06 2.04145e-06)
(-4.88299e-06 -6.49575e-06 3.30769e-06)
(-5.79657e-06 -8.5435e-06 5.17376e-06)
(-6.06939e-06 -1.0084e-05 7.20842e-06)
(-5.73136e-06 -1.07175e-05 8.22723e-06)
(-6.29033e-09 -6.66862e-10 -2.55608e-10)
(-2.06167e-08 -6.60704e-09 7.68702e-10)
(-4.20941e-08 -2.48091e-08 5.39359e-09)
(-7.24699e-08 -5.92338e-08 1.5342e-08)
(-1.11507e-07 -1.10882e-07 3.11601e-08)
(-1.51325e-07 -1.70593e-07 4.84883e-08)
(-1.77998e-07 -2.2147e-07 6.4987e-08)
(-1.86042e-07 -2.55469e-07 7.37115e-08)
(-1.93194e-07 -2.92581e-07 8.79599e-08)
(-2.42241e-07 -3.68994e-07 1.10279e-07)
(-3.83014e-07 -5.15991e-07 1.64713e-07)
(-6.55134e-07 -7.21548e-07 2.42995e-07)
(-1.13267e-06 -9.38424e-07 3.25693e-07)
(-2.08098e-06 -1.18104e-06 4.3559e-07)
(-3.95867e-06 -1.588e-06 5.89974e-07)
(-6.76578e-06 -2.17987e-06 7.32547e-07)
(-1.46353e-08 2.88062e-09 -1.43704e-09)
(-5.15722e-08 -7.85107e-09 6.14846e-10)
(-1.06748e-07 -5.17063e-08 1.30764e-08)
(-1.86765e-07 -1.41274e-07 3.99236e-08)
(-2.87681e-07 -2.75817e-07 7.98773e-08)
(-3.88232e-07 -4.3117e-07 1.2769e-07)
(-4.58631e-07 -5.70085e-07 1.67957e-07)
(-4.90218e-07 -6.82095e-07 2.0298e-07)
(-5.217e-07 -8.04777e-07 2.33348e-07)
(-6.42122e-07 -1.01812e-06 3.04413e-07)
(-9.7552e-07 -1.38938e-06 4.32293e-07)
(-1.63881e-06 -1.90429e-06 6.28017e-07)
(-2.80178e-06 -2.46505e-06 8.82156e-07)
(-4.76435e-06 -3.05928e-06 1.19683e-06)
(-7.47757e-06 -3.71913e-06 1.56333e-06)
(-9.7275e-06 -4.17182e-06 1.74135e-06)
(-1.85686e-08 1.18939e-08 -3.45701e-09)
(-6.94819e-08 6.93e-09 -1.41796e-09)
(-1.49581e-07 -5.09142e-08 1.62119e-08)
(-2.63964e-07 -1.75772e-07 5.47685e-08)
(-4.06586e-07 -3.66323e-07 1.13358e-07)
(-5.51534e-07 -5.9328e-07 1.82167e-07)
(-6.62364e-07 -8.11884e-07 2.47007e-07)
(-7.25751e-07 -1.00314e-06 2.96413e-07)
(-7.81486e-07 -1.21035e-06 3.5258e-07)
(-9.37467e-07 -1.52472e-06 4.38469e-07)
(-1.35188e-06 -2.03431e-06 6.13392e-07)
(-2.21504e-06 -2.74789e-06 9.02772e-07)
(-3.759e-06 -3.60919e-06 1.30597e-06)
(-6.16379e-06 -4.58108e-06 1.89944e-06)
(-8.92381e-06 -5.52142e-06 2.52622e-06)
(-1.05391e-05 -6.02498e-06 2.84779e-06)
(-2.16718e-08 2.20187e-08 -5.10628e-09)
(-8.33292e-08 2.77014e-08 -4.20764e-09)
(-1.80926e-07 -3.42099e-08 1.74479e-08)
(-3.20315e-07 -1.80631e-07 6.42242e-08)
(-4.92681e-07 -4.09165e-07 1.36721e-07)
(-6.71165e-07 -6.89337e-07 2.21659e-07)
(-8.19835e-07 -9.74479e-07 3.04423e-07)
(-9.22873e-07 -1.24228e-06 3.73972e-07)
(-1.01178e-06 -1.52283e-06 4.35523e-07)
(-1.18498e-06 -1.90301e-06 5.38196e-07)
(-1.62073e-06 -2.48628e-06 7.31326e-07)
(-2.56084e-06 -3.34148e-06 1.08123e-06)
(-4.27333e-06 -4.47688e-06 1.66487e-06)
(-6.86055e-06 -5.84133e-06 2.52544e-06)
(-9.60815e-06 -7.11021e-06 3.42701e-06)
(-1.10695e-05 -7.73537e-06 3.8693e-06)
(-2.53136e-08 3.18374e-08 -6.72101e-09)
(-9.82951e-08 4.78977e-08 -5.9923e-09)
(-2.12665e-07 -1.53424e-08 1.83657e-08)
(-3.72213e-07 -1.75266e-07 7.23251e-08)
(-5.67832e-07 -4.29953e-07 1.54335e-07)
(-7.74948e-07 -7.50405e-07 2.54738e-07)
(-9.6084e-07 -1.09082e-06 3.52234e-07)
(-1.10717e-06 -1.42048e-06 4.33577e-07)
(-1.23683e-06 -1.75954e-06 5.09248e-07)
(-1.43914e-06 -2.18614e-06 6.0862e-07)
(-1.89021e-06 -2.81811e-06 8.13849e-07)
(-2.85126e-06 -3.77817e-06 1.23176e-06)
(-4.60329e-06 -5.16719e-06 1.95352e-06)
(-7.18288e-06 -6.90548e-06 3.09856e-06)
(-9.85943e-06 -8.4553e-06 4.23261e-06)
(-1.13336e-05 -9.1682e-06 4.77368e-06)
(-3.12294e-08 3.88722e-08 -7.67828e-09)
(-1.17693e-07 6.36226e-08 -6.80715e-09)
(-2.48426e-07 5.14017e-10 1.97198e-08)
(-4.27252e-07 -1.69351e-07 8.02156e-08)
(-6.44652e-07 -4.43843e-07 1.7194e-07)
(-8.77365e-07 -7.94517e-07 2.8371e-07)
(-1.09734e-06 -1.17558e-06 3.95291e-07)
(-1.28823e-06 -1.55315e-06 4.91254e-07)
(-1.46908e-06 -1.93677e-06 5.68618e-07)
(-1.72159e-06 -2.39859e-06 6.76416e-07)
(-2.21339e-06 -3.07181e-06 8.93216e-07)
(-3.19356e-06 -4.14103e-06 1.34779e-06)
(-4.88151e-06 -5.763e-06 2.2358e-06)
(-7.21309e-06 -7.78964e-06 3.58642e-06)
(-9.56863e-06 -9.51153e-06 4.91478e-06)
(-1.10622e-05 -1.02438e-05 5.52346e-06)
(-3.88824e-08 4.36875e-08 -7.84847e-09)
(-1.41271e-07 7.38773e-08 -7.17565e-09)
(-2.90223e-07 9.79981e-09 2.33764e-08)
(-4.88556e-07 -1.67612e-07 8.90508e-08)
(-7.25319e-07 -4.56153e-07 1.9019e-07)
(-9.81034e-07 -8.27629e-07 3.13948e-07)
(-1.23128e-06 -1.23678e-06 4.39108e-07)
(-1.46409e-06 -1.64686e-06 5.44223e-07)
(-1.70079e-06 -2.06336e-06 6.3639e-07)
(-2.02183e-06 -2.55999e-06 7.48793e-07)
(-2.58982e-06 -3.29069e-06 9.72397e-07)
(-3.60341e-06 -4.47534e-06 1.49444e-06)
(-5.1108e-06 -6.2689e-06 2.46029e-06)
(-6.85508e-06 -8.43091e-06 3.98397e-06)
(-8.38278e-06 -1.02306e-05 5.42135e-06)
(-9.46715e-06 -1.12058e-05 6.07045e-06)
(-4.82529e-08 4.55435e-08 -7.9982e-09)
(-1.69373e-07 7.71499e-08 -5.21781e-09)
(-3.37516e-07 1.11409e-08 2.85838e-08)
(-5.54465e-07 -1.72114e-07 1.00736e-07)
(-8.09533e-07 -4.6933e-07 2.11946e-07)
(-1.08327e-06 -8.52981e-07 3.4707e-07)
(-1.35684e-06 -1.27758e-06 4.83995e-07)
(-1.62404e-06 -1.7068e-06 6.04323e-07)
(-1.91095e-06 -2.14727e-06 7.09804e-07)
(-2.30617e-06 -2.68106e-06 8.36021e-07)
(-2.95641e-06 -3.47511e-06 1.08977e-06)
(-3.97722e-06 -4.74498e-06 1.63031e-06)
(-5.22757e-06 -6.58401e-06 2.64846e-06)
(-6.17106e-06 -8.60117e-06 4.22035e-06)
(-6.37292e-06 -1.00947e-05 5.66217e-06)
(-5.94086e-06 -1.07096e-05 6.38303e-06)
(-6.14029e-09 -3.30777e-11 -6.59474e-11)
(-2.11336e-08 -5.83952e-09 7.36629e-10)
(-4.20003e-08 -2.26672e-08 4.49525e-09)
(-7.25274e-08 -5.66035e-08 1.23524e-08)
(-1.11661e-07 -1.08065e-07 2.40701e-08)
(-1.50138e-07 -1.66345e-07 3.76535e-08)
(-1.73579e-07 -2.13501e-07 4.84226e-08)
(-1.79918e-07 -2.46445e-07 5.68228e-08)
(-1.87494e-07 -2.82511e-07 6.46683e-08)
(-2.41767e-07 -3.61206e-07 8.62109e-08)
(-3.92381e-07 -5.07981e-07 1.267e-07)
(-6.80018e-07 -7.17576e-07 1.88653e-07)
(-1.17414e-06 -9.44114e-07 2.61597e-07)
(-2.1034e-06 -1.2014e-06 3.4152e-07)
(-3.97632e-06 -1.62394e-06 4.40846e-07)
(-6.78345e-06 -2.21118e-06 5.36217e-07)
(-1.50178e-08 3.84725e-09 -1.00813e-09)
(-5.1746e-08 -4.26782e-09 8.01222e-10)
(-1.07748e-07 -4.68073e-08 1.03953e-08)
(-1.87824e-07 -1.34928e-07 3.06824e-08)
(-2.87551e-07 -2.67143e-07 6.12616e-08)
(-3.84746e-07 -4.18146e-07 9.53955e-08)
(-4.49965e-07 -5.52083e-07 1.25748e-07)
(-4.76495e-07 -6.57387e-07 1.47507e-07)
(-5.10202e-07 -7.79408e-07 1.75303e-07)
(-6.4677e-07 -9.95941e-07 2.26692e-07)
(-1.01195e-06 -1.37711e-06 3.30029e-07)
(-1.72028e-06 -1.8998e-06 4.87327e-07)
(-2.92646e-06 -2.48449e-06 6.87839e-07)
(-4.84224e-06 -3.12479e-06 9.24695e-07)
(-7.56167e-06 -3.80542e-06 1.15721e-06)
(-9.76162e-06 -4.24079e-06 1.26883e-06)
(-1.89592e-08 1.35511e-08 -2.32052e-09)
(-7.02707e-08 1.22283e-08 -1.11476e-09)
(-1.49833e-07 -4.18333e-08 1.24768e-08)
(-2.64278e-07 -1.64036e-07 4.16052e-08)
(-4.06375e-07 -3.52266e-07 8.52344e-08)
(-5.47253e-07 -5.74013e-07 1.35231e-07)
(-6.50242e-07 -7.82891e-07 1.80582e-07)
(-7.08639e-07 -9.67522e-07 2.18e-07)
(-7.69792e-07 -1.17261e-06 2.56344e-07)
(-9.48783e-07 -1.49398e-06 3.28892e-07)
(-1.41198e-06 -2.01347e-06 4.65821e-07)
(-2.34592e-06 -2.74889e-06 6.92634e-07)
(-3.95572e-06 -3.65489e-06 1.03106e-06)
(-6.30325e-06 -4.67709e-06 1.44749e-06)
(-9.05559e-06 -5.64018e-06 1.86384e-06)
(-1.0589e-05 -6.12291e-06 2.06678e-06)
(-2.14548e-08 2.52476e-08 -3.98895e-09)
(-8.27819e-08 3.62753e-08 -3.21587e-09)
(-1.80089e-07 -2.05988e-08 1.26728e-08)
(-3.19093e-07 -1.63193e-07 4.79612e-08)
(-4.90343e-07 -3.87914e-07 1.00803e-07)
(-6.64933e-07 -6.615e-07 1.63544e-07)
(-8.07682e-07 -9.38127e-07 2.22169e-07)
(-9.0618e-07 -1.19648e-06 2.7047e-07)
(-1.0018e-06 -1.47492e-06 3.19884e-07)
(-1.20472e-06 -1.86189e-06 3.9724e-07)
(-1.69847e-06 -2.46459e-06 5.53594e-07)
(-2.72681e-06 -3.35055e-06 8.41274e-07)
(-4.52446e-06 -4.53873e-06 1.30721e-06)
(-7.03985e-06 -5.96109e-06 1.92212e-06)
(-9.76757e-06 -7.23683e-06 2.51902e-06)
(-1.11316e-05 -7.83769e-06 2.79734e-06)
(-2.50035e-08 3.55712e-08 -5.00185e-09)
(-9.67102e-08 5.96037e-08 -5.1366e-09)
(-2.09231e-07 3.58599e-09 1.25379e-08)
(-3.67986e-07 -1.51022e-07 5.26177e-08)
(-5.63433e-07 -4.01464e-07 1.13611e-07)
(-7.68038e-07 -7.15509e-07 1.86101e-07)
(-9.48984e-07 -1.04554e-06 2.56686e-07)
(-1.09392e-06 -1.36661e-06 3.16009e-07)
(-1.2336e-06 -1.7034e-06 3.68702e-07)
(-1.46736e-06 -2.1395e-06 4.51921e-07)
(-1.98394e-06 -2.79365e-06 6.19113e-07)
(-3.04311e-06 -3.79556e-06 9.50521e-07)
(-4.87888e-06 -5.24533e-06 1.55329e-06)
(-7.38495e-06 -7.02934e-06 2.33952e-06)
(-1.00279e-05 -8.56755e-06 3.09916e-06)
(-1.14015e-05 -9.25147e-06 3.43492e-06)
(-3.02937e-08 4.3973e-08 -5.83088e-09)
(-1.14198e-07 7.84461e-08 -6.54443e-09)
(-2.42965e-07 2.37333e-08 1.3285e-08)
(-4.21311e-07 -1.39975e-07 5.72973e-08)
(-6.38148e-07 -4.09204e-07 1.25771e-07)
(-8.70091e-07 -7.52513e-07 2.08398e-07)
(-1.08856e-06 -1.12397e-06 2.89716e-07)
(-1.28091e-06 -1.49255e-06 3.56228e-07)
(-1.47462e-06 -1.8744e-06 4.17128e-07)
(-1.76156e-06 -2.34756e-06 4.98842e-07)
(-2.31944e-06 -3.04961e-06 6.72583e-07)
(-3.39825e-06 -4.16643e-06 1.05954e-06)
(-5.16401e-06 -5.84668e-06 1.75615e-06)
(-7.41042e-06 -7.90283e-06 2.70111e-06)