/*--------------------------------*- C++ -*----------------------------------*\
| =========                 |                                                 |
| \\      /  F ield         | OpenFOAM: The Open Source CFD Toolbox           |
|  \\    /   O peration     | Version:  v1912                                 |
|   \\  /    A nd           | Website:  www.openfoam.com                      |
|    \\/     M anipulation  |                                                 |
\*---------------------------------------------------------------------------*/
FoamFile
{
    version     2.0;
    format      ascii;
    class       volScalarField;
    location    "0.03/fluid";
    object      p;
}
// * * * * * * * * * * * * * * * * * * * * * * * * * * * * * * * * * * * * * //

dimensions      [0 2 -2 0 0 0 0];


internalField   nonuniform List<scalar> 
14592
(
0.112607
0.109061
0.10623
0.10439
0.102684
0.101157
0.0997632
0.098485
0.0973314
0.0963321
0.095551
0.095127
0.0954387
0.0973854
0.0967442
0.114993
0.108491
0.108109
0.10583
0.10428
0.102707
0.101253
0.099912
0.0986829
0.0975805
0.0966381
0.0959233
0.0955813
0.0960033
0.0981633
0.0975639
0.116475
0.106403
0.106852
0.105004
0.103737
0.102323
0.100947
0.0996359
0.0984044
0.097277
0.0962934
0.0955275
0.0951352
0.0955262
0.097704
0.0970378
0.11612
0.104954
0.10582
0.1043
0.103252
0.10198
0.100689
0.0994229
0.0982106
0.0970839
0.0960873
0.0952993
0.0948827
0.0952632
0.0974648
0.0967029
0.115886
0.103934
0.104992
0.103676
0.102783
0.101617
0.10039
0.0991542
0.0979468
0.0968047
0.0957761
0.0949403
0.0944607
0.0947736
0.0969421
0.0959908
0.115256
0.103204
0.104359
0.103158
0.102363
0.101265
0.100074
0.098847
0.0976238
0.0964448
0.0953606
0.0944506
0.0938707
0.094044
0.0960634
0.0947083
0.113838
0.102694
0.103904
0.102758
0.102015
0.100948
0.0997639
0.0985202
0.0972557
0.0960112
0.0948381
0.0938189
0.0931104
0.0931161
0.0949004
0.0928309
0.11052
0.102373
0.103618
0.102481
0.101751
0.100683
0.0994787
0.0981924
0.0968591
0.095513
0.0941961
0.092982
0.092036
0.0918366
0.0937452
0.0936503
0.117608
0.112422
0.108858
0.106093
0.104318
0.102693
0.101265
0.0999914
0.0988612
0.0978932
0.0971284
0.0966299
0.0964796
0.096815
0.0977985
0.0938685
0.100381
0.108311
0.107911
0.105699
0.104216
0.102726
0.101375
0.100159
0.0990834
0.0981742
0.0974758
0.0970549
0.0969973
0.0974445
0.098603
0.0945922
0.101352
0.106218
0.106649
0.104867
0.103665
0.102334
0.101058
0.099867
0.0987841
0.097843
0.0970938
0.0966094
0.0964867
0.0968877
0.0980512
0.0939295
0.100902
0.104766
0.105615
0.104159
0.103176
0.101985
0.100793
0.0996462
0.0985802
0.0976366
0.0968703
0.0963585
0.0962067
0.0966009
0.0978182
0.0936024
0.100884
0.103741
0.104783
0.10353
0.102701
0.101615
0.100484
0.0993646
0.0982996
0.0973356
0.0965307
0.0959631
0.0957402
0.0960692
0.0973017
0.0929172
0.100658
0.103003
0.104145
0.103005
0.102273
0.101252
0.100154
0.0990388
0.0979519
0.0969434
0.096074
0.0954231
0.0950932
0.0952901
0.0964427
0.0916809
0.0998539
0.102485
0.103684
0.102597
0.101915
0.100922
0.0998264
0.0986878
0.0975506
0.0964645
0.0954925
0.0947216
0.0942699
0.0943555
0.0954509
0.0900955
0.0976273
0.102155
0.103391
0.102311
0.10164
0.100642
0.0995205
0.098331
0.0971123
0.0959059
0.0947641
0.0937699
0.0930808
0.0931002
0.0948927
0.0928261
0.110514
0.112297
0.108713
0.106002
0.104279
0.102721
0.101376
0.1002
0.0991867
0.098354
0.0977385
0.0973871
0.0973502
0.0977274
0.098618
0.0955624
0.102306
0.108191
0.107771
0.105614
0.104185
0.102765
0.101498
0.100385
0.0994322
0.0986656
0.0981257
0.0978633
0.0979341
0.0984442
0.0995333
0.0964562
0.103499
0.106094
0.106505
0.104777
0.103628
0.102363
0.10117
0.100079
0.0991143
0.0983099
0.0977117
0.0973769
0.0973735
0.0978318
0.0989256
0.0957206
0.103013
0.104637
0.105468
0.104066
0.103135
0.102011
0.1009
0.099852
0.0989025
0.098094
0.0974772
0.0971142
0.0970833
0.0975433
0.0987102
0.0953854
0.103046
0.103607
0.104633
0.103432
0.102655
0.101633
0.100582
0.0995595
0.0986084
0.0977769
0.0971192
0.0966994
0.0965992
0.0970029
0.0982093
0.0946664
0.102877
0.102864
0.10399
0.1029
0.102219
0.101261
0.10024
0.099218
0.0982408
0.0973603
0.0966351
0.0961321
0.095931
0.0962166
0.0973708
0.0933497
0.10209
0.102338
0.103524
0.102484
0.101851
0.100918
0.0998972
0.0988463
0.0978123
0.096847
0.0960132
0.095391
0.0950841
0.0952985
0.096463
0.0917075
0.0998824
0.102
0.103224
0.10219
0.101565
0.100625
0.0995732
0.0984646
0.0973398
0.096242
0.0952241
0.0943675
0.0938293
0.0940329
0.0960711
0.0947235
0.113852
0.112215
0.108612
0.105945
0.104263
0.102757
0.101477
0.100378
0.0994536
0.0987202
0.0982114
0.0979708
0.0980501
0.0985451
0.0994786
0.0970784
0.103158
0.108114
0.107674
0.105563
0.104176
0.10281
0.101611
0.100579
0.0997204
0.0990596
0.0986349
0.0984939
0.0986944
0.0993396
0.100483
0.0980784
0.104423
0.106012
0.106404
0.10472
0.103613
0.102401
0.101274
0.100261
0.0993867
0.0986834
0.0981946
0.0979744
0.0980936
0.098681
0.0998222
0.0972672
0.103873
0.104553
0.105365
0.104006
0.103117
0.102045
0.101
0.100029
0.0991692
0.0984613
0.0979536
0.0977056
0.0977991
0.0983925
0.0996149
0.0969134
0.103926
0.103518
0.104527
0.103368
0.102631
0.101661
0.100675
0.099728
0.098865
0.0981328
0.0975836
0.0972792
0.0973047
0.0978453
0.0991149
0.0961469
0.103768
0.102768
0.103879
0.102831
0.102189
0.101281
0.100323
0.0993739
0.098482
0.0976984
0.0970803
0.0966936
0.0966212
0.0970477
0.0982715
0.0947397
0.102957
0.102236
0.103409
0.102408
0.101812
0.100928
0.0999666
0.0989856
0.0980324
0.0971594
0.096429
0.0959228
0.0957499
0.0961184
0.097379
0.0930105
0.100759
0.10189
0.103104
0.102106
0.101518
0.100624
0.0996275
0.0985839
0.0975334
0.0965195
0.0955953
0.0948443
0.094432
0.0947953
0.0969966
0.0960593
0.115326
0.112163
0.108544
0.105911
0.10426
0.102793
0.101562
0.100522
0.0996646
0.0990063
0.0985808
0.0984318
0.0986084
0.0991777
0.100082
0.0980223
0.103447
0.108066
0.107609
0.105534
0.104179
0.102854
0.101708
0.100737
0.0999494
0.0993694
0.0990349
0.0989941
0.0993023
0.100034
0.101155
0.099103
0.104776
0.105961
0.106335
0.104687
0.103611
0.102439
0.101362
0.100409
0.099603
0.0989768
0.0985736
0.0984481
0.098669
0.0993371
0.100449
0.0982296
0.104173
0.104498
0.105295
0.10397
0.103112
0.10208
0.101085
0.100173
0.0993815
0.0987505
0.0983286
0.0981756
0.0983715
0.0990479
0.100245
0.0978598
0.104237
0.10346
0.104454
0.103329
0.102622
0.101692
0.100754
0.0998657
0.0990699
0.0984139
0.0979501
0.0977407
0.0978692
0.0984943
0.0997436
0.0970595
0.104088
0.102705
0.103803
0.102787
0.102174
0.101305
0.100394
0.099502
0.0986754
0.0979662
0.0974323
0.0971403
0.0971713
0.0976847
0.0988947
0.0955969
0.10328
0.102167
0.103328
0.102358
0.101791
0.100944
0.100028
0.099101
0.0982099
0.0974077
0.0967582
0.0963443
0.0962751
0.0967375
0.0980065
0.0938198
0.101124
0.101815
0.103019
0.10205
0.10149
0.10063
0.0996773
0.0986839
0.0976907
0.0967415
0.0958901
0.0952215
0.0949021
0.0953589
0.0976138
0.0968762
0.116075
0.112131
0.108499
0.105892
0.104263
0.102824
0.101629
0.100631
0.0998221
0.0992195
0.0988567
0.0987754
0.099015
0.0996111
0.100466
0.0986043
0.103603
0.108037
0.107567
0.105519
0.104186
0.102891
0.101782
0.100856
0.100121
0.099601
0.0993344
0.0993678
0.0997465
0.100513
0.101589
0.0997458
0.104983
0.105928
0.106291
0.104669
0.103615
0.102472
0.101431
0.100521
0.0997651
0.0991961
0.0988574
0.0988018
0.0990886
0.0997874
0.100849
0.0988266
0.104341
0.104464
0.105249
0.103951
0.103114
0.102111
0.101151
0.100283
0.0995408
0.098967
0.0986094
0.0985265
0.0987888
0.0994976
0.100647
0.0984459
0.104412
0.103422
0.104406
0.103306
0.102621
0.101719
0.100817
0.0999706
0.099224
0.0986246
0.0982248
0.0980854
0.0982805
0.0989399
0.100146
0.097626
0.104273
0.102664
0.103753
0.102761
0.102169
0.101327
0.100451
0.0995999
0.0988212
0.0981673
0.0976962
0.0974733
0.0975713
0.098122
0.0992955
0.0961332
0.103476
0.102121
0.103275
0.102328
0.101781
0.100961
0.100078
0.0991896
0.0983441
0.0975945
0.0970048
0.0966575
0.0966549
0.097161
0.0984112
0.0943302
0.101352
0.101765
0.102962
0.102015
0.101474
0.10064
0.099718
0.0987613
0.0978103
0.0969089
0.0961113
0.0955013
0.095241
0.0957429
0.0980088
0.0973842
0.11653
0.112111
0.108473
0.105884
0.104268
0.102847
0.101674
0.100704
0.0999273
0.0993618
0.0990405
0.0990017
0.0992744
0.0998736
0.100687
0.0989374
0.103685
0.108019
0.107543
0.105513
0.104194
0.102918
0.101833
0.100937
0.100236
0.0997561
0.0995345
0.0996146
0.100031
0.100807
0.101845
0.10012
0.105102
0.105908
0.106265
0.104661
0.10362
0.102496
0.101479
0.100597
0.0998738
0.0993429
0.0990469
0.0990353
0.0993572
0.100062
0.101083
0.099171
0.104434
0.104442
0.105222
0.103941
0.103118
0.102133
0.101197
0.100357
0.0996477
0.0991119
0.098797
0.098758
0.0990558
0.0997717
0.100882
0.0987839
0.10451
0.103399
0.104378
0.103295
0.102623
0.101739
0.10086
0.100042
0.0993276
0.0987658
0.0984084
0.0983128
0.0985439
0.0992124
0.100382
0.0979541
0.10438
0.102638
0.103723
0.102747
0.102169
0.101344
0.10049
0.0996663
0.0989193
0.0983021
0.0978724
0.0976929
0.0978275
0.0983904
0.0995327
0.0964453
0.103591
0.102093
0.103243
0.102311
0.101777
0.100974
0.100112
0.0992499
0.0984346
0.0977197
0.0971694
0.0968637
0.0968981
0.0974221
0.0986535
0.0946319
0.101493
0.101733
0.102928
0.101995
0.101467
0.100648
0.0997468
0.0988143
0.0978912
0.0970215
0.0962589
0.0956855
0.0954579
0.0959792
0.0982429
0.0976803
0.1168
0.112102
0.108461
0.10588
0.104271
0.102859
0.101697
0.100741
0.0999798
0.0994324
0.0991309
0.0991111
0.0993958
0.0999913
0.100777
0.0990784
0.103711
0.108012
0.107531
0.105511
0.1042
0.102933
0.10186
0.100978
0.100294
0.0998335
0.0996336
0.0997348
0.100166
0.100941
0.101953
0.100282
0.105145
0.1059
0.106252
0.104658
0.103624
0.102509
0.101503
0.100635
0.0999286
0.0994166
0.0991411
0.0991495
0.0994847
0.100188
0.101181
0.0993199
0.104467
0.104433
0.105209
0.103938
0.103121
0.102145
0.10122
0.100394
0.0997013
0.0991842
0.0988898
0.0988707
0.099182
0.0998969
0.10098
0.0989294
0.104545
0.103389
0.104364
0.103291
0.102626
0.10175
0.100882
0.100077
0.0993797
0.0988364
0.0984995
0.0984239
0.0986692
0.0993383
0.100482
0.0980968
0.10442
0.102627
0.103708
0.102742
0.10217
0.101354
0.100511
0.0997
0.0989688
0.0983697
0.0979601
0.0978006
0.0979502
0.0985162
0.099635
0.0965816
0.103632
0.10208
0.103227
0.102305
0.101777
0.100981
0.10013
0.0992807
0.0984803
0.0977826
0.0972513
0.096965
0.0970154
0.0975471
0.0987642
0.0947779
0.101573
0.101718
0.102911
0.101987
0.101464
0.100654
0.0997619
0.0988414
0.0979321
0.097078
0.0963324
0.0957758
0.0955615
0.0960892
0.0983392
0.0978056
0.116912
0.12323
0.115139
0.110179
0.106859
0.104038
0.101575
0.0993047
0.0971183
0.0949394
0.0927033
0.0903511
0.087831
0.0851036
0.0821399
0.078892
0.075237
0.119103
0.11413
0.109739
0.106702
0.104003
0.101598
0.0993605
0.0971973
0.095037
0.0928167
0.090478
0.0879682
0.0852461
0.0822804
0.0790214
0.075345
0.117032
0.112891
0.108944
0.106198
0.103668
0.101356
0.0991678
0.0970291
0.0948794
0.0926629
0.090326
0.0878197
0.0851055
0.0821543
0.0789194
0.0752792
0.115599
0.111866
0.108253
0.105729
0.103345
0.101124
0.0989902
0.0968829
0.0947505
0.0925436
0.0902129
0.0877131
0.0850077
0.0820695
0.0788544
0.075246
0.114603
0.111052
0.107651
0.105287
0.103017
0.10087
0.0987821
0.0967005
0.0945808
0.0923794
0.0900521
0.087557
0.0848608
0.0819384
0.0787491
0.0751847
0.113904
0.110439
0.107164
0.104905
0.102713
0.100619
0.098562
0.0964959
0.094381
0.0921789
0.0898499
0.0873565
0.0846683
0.0817628
0.0786039
0.0750944
0.11343
0.11001
0.1068
0.104602
0.102455
0.10039
0.0983479
0.0962846
0.094165
0.0919543
0.0896175
0.087121
0.084438
0.0815482
0.078421
0.0749742
0.113149
0.109752
0.106566
0.104391
0.102259
0.1002
0.0981542
0.0960807
0.0939461
0.091719
0.0893678
0.0868629
0.0841806
0.0813033
0.0782061
0.0748258
0.118931
0.113945
0.109546
0.10649
0.103766
0.101329
0.0990539
0.0968463
0.0946357
0.0923598
0.0899594
0.0873801
0.0845837
0.0815633
0.0783269
0.0747664
0.114781
0.112961
0.109109
0.106336
0.103733
0.101353
0.0991096
0.0969243
0.0947311
0.0924699
0.0900817
0.0875116
0.0847196
0.0816965
0.078449
0.0748697
0.112715
0.111727
0.108314
0.105831
0.103398
0.101111
0.0989171
0.0967566
0.0945744
0.0923174
0.0899317
0.0873661
0.0845834
0.0815762
0.078353
0.0748103
0.111284
0.110705
0.107627
0.105367
0.103081
0.100885
0.0987478
0.0966206
0.094458
0.092213
0.0898366
0.087281
0.084511
0.0815195
0.0783157
0.074801
0.110291
0.109895
0.10703
0.10493
0.102759
0.10064
0.0985497
0.0964506
0.0943035
0.0920675
0.0896984
0.0871525
0.0843972
0.0814259
0.0782479
0.0747721
0.109595
0.109287
0.106547
0.104554
0.102462
0.100398
0.0983413
0.0962604
0.0941216
0.0918888
0.0895228
0.0869846
0.0842447
0.081297
0.0781503
0.0747226
0.109126
0.108862
0.106189
0.104258
0.102213
0.100179
0.09814
0.0960651
0.0939251
0.0916881
0.0893195
0.086785
0.084059
0.0811358
0.0780225
0.0746492
0.10885
0.108609
0.10596
0.104054
0.102025
0.0999994
0.0979596
0.0958775
0.0937263
0.0914771
0.0890994
0.0865634
0.0838471
0.0809454
0.0778633
0.0745457
0.116941
0.112782
0.108855
0.106119
0.103605
0.101314
0.0991538
0.0970514
0.0949468
0.092782
0.0904931
0.0880081
0.0852592
0.0822229
0.0789516
0.0753261
0.1128
0.111807
0.108422
0.105969
0.103578
0.101345
0.0992187
0.0971407
0.095056
0.0929087
0.0906352
0.0881628
0.0854219
0.0823851
0.0791024
0.0754594
0.110736
0.110573
0.107625
0.105461
0.103238
0.101097
0.0990185
0.0969628
0.0948862
0.0927396
0.090465
0.087994
0.0852607
0.0822397
0.078983
0.0753838
0.109303
0.10955
0.106935
0.104994
0.102917
0.100866
0.0988427
0.0968182
0.0947584
0.0926207
0.0903521
0.0878887
0.0851672
0.0821631
0.0789274
0.0753612
0.108307
0.108738
0.106335
0.104553
0.10259
0.100613
0.0986349
0.0966353
0.0945869
0.0924533
0.0901868
0.0877289
0.0850205
0.0820383
0.078831
0.0753094
0.107608
0.108126
0.105848
0.104172
0.102286
0.100362
0.098414
0.0964285
0.0943829
0.0922459
0.0899755
0.0875193
0.0848243
0.0818687
0.0786963
0.0752282
0.107134
0.107698
0.105485
0.103869
0.102029
0.100133
0.098198
0.0962134
0.09416
0.0920105
0.0897282
0.0872678
0.0845835
0.0816564
0.0785223
0.0751111
0.106853
0.10744
0.10525
0.103658
0.101832
0.0999409
0.0980014
0.0960039
0.0939316
0.0917601
0.0894572
0.0869843
0.0843036
0.0813998
0.0782989
0.0749386
0.115498
0.111727
0.10816
0.105671
0.103335
0.101178
0.099125
0.0971179
0.0951074
0.0930421
0.0908583
0.0884692
0.0857655
0.0826761
0.079344
0.0758954
0.111358
0.110754
0.107731
0.105525
0.103313
0.101214
0.099197
0.0972162
0.0952278
0.0931826
0.0910173
0.0886445
0.085953
0.0828666
0.079522
0.0760674
0.109292
0.109518
0.106931
0.105013
0.102969
0.10096
0.0989889
0.097028
0.0950446
0.0929965
0.0908262
0.0884515
0.085766
0.0826961
0.0793786
0.0759757
0.107858
0.108496
0.106241
0.104545
0.102646
0.100728
0.0988103
0.0968796
0.0949117
0.0928708
0.0907049
0.0883369
0.0856644
0.0826147
0.0793202
0.0759503
0.10686
0.107683
0.105639
0.104103
0.102316
0.100471
0.0985977
0.0966902
0.0947314
0.0926916
0.0905245
0.0881595
0.0855008
0.0824779
0.0792153
0.075886
0.106158
0.107069
0.10515
0.103718
0.102009
0.100215
0.0983699
0.0964739
0.0945144
0.0924667
0.0902904
0.0879228
0.0852776
0.0822894
0.0790691
0.0757829
0.105681
0.106639
0.104784
0.103412
0.101746
0.0999791
0.098145
0.0962464
0.0942743
0.0922077
0.0900116
0.0876324
0.0849969
0.0820496
0.0788824
0.0756313
0.105397
0.106379
0.104545
0.103196
0.101544
0.0997798
0.0979379
0.0960223
0.0940251
0.0919277
0.0896996
0.0872954
0.0846569
0.0817435
0.0786265
0.075383
0.11449
0.110879
0.107565
0.105271
0.103095
0.101074
0.0991416
0.0972508
0.0953617
0.0934319
0.0914049
0.0891894
0.0866275
0.0835087
0.0799654
0.0771888
0.110354
0.10991
0.10714
0.105131
0.10308
0.101119
0.0992249
0.0973634
0.0955001
0.0935949
0.0915917
0.0893989
0.0868567
0.0837476
0.0801842
0.0774304
0.108285
0.108671
0.106336
0.104614
0.10273
0.100857
0.0990068
0.0971621
0.0952998
0.0933867
0.091373
0.0891733
0.0866343
0.0835423
0.0800057
0.0773121
0.106849
0.107648
0.105644
0.104144
0.102405
0.100622
0.0988238
0.0970079
0.0951591
0.0932508
0.0912388
0.0890434
0.0865175
0.0834501
0.0799417
0.0772733
0.105848
0.106833
0.10504
0.103698
0.102071
0.100359
0.0986038
0.0968087
0.0949658
0.0930545
0.091036
0.0888381
0.0863231
0.0832874
0.0798198
0.077172
0.105143
0.106217
0.104547
0.103309
0.101757
0.100095
0.0983657
0.0965785
0.0947302
0.0928047
0.0907689
0.0885592
0.0860519
0.0830583
0.0796504
0.0770057
0.104661
0.105783
0.104176
0.102997
0.101488
0.0998498
0.0981276
0.0963331
0.0944656
0.0925121
0.0904447
0.0882092
0.0857019
0.0827632
0.0794487
0.0767702
0.104371
0.10552
0.103933
0.102775
0.101277
0.0996393
0.0979051
0.0960875
0.0941863
0.0921897
0.0900724
0.0877883
0.0852566
0.0823644
0.0791719
0.0763918
0.11377
0.11022
0.107082
0.104942
0.102908
0.101019
0.0992159
0.0974579
0.0957127
0.0939463
0.0921136
0.0901407
0.0878704
0.0849185
0.0809973
0.0803222
0.109638
0.109255
0.106663
0.104808
0.102901
0.101075
0.0993131
0.0975883
0.0958737
0.0941377
0.0923362
0.0903955
0.0881579
0.0852332
0.0812735
0.0806901
0.107565
0.108012
0.105854
0.104286
0.102544
0.100804
0.0990827
0.0973708
0.0956521
0.0939021
0.0920831
0.0901289
0.0878908
0.0849846
0.0810483
0.0805254
0.106127
0.106987
0.10516
0.103813
0.102215
0.100564
0.0988937
0.0972088
0.0955014
0.0937534
0.0919327
0.0899798
0.0877538
0.0848766
0.0809766
0.0804472
0.105122
0.10617
0.104552
0.103363
0.101875
0.100294
0.0986641
0.0969969
0.0952916
0.0935356
0.0917022
0.0897392
0.0875171
0.0846722
0.0808263
0.0802525
0.104412
0.105551
0.104054
0.102967
0.101554
0.100019
0.0984123
0.0967486
0.0950323
0.0932549
0.0913951
0.0894081
0.0871795
0.0843725
0.0806079
0.0799162
0.103924
0.105113
0.103677
0.102648
0.101274
0.0997612
0.0981569
0.0964798
0.0947363
0.0929208
0.0910162
0.0889856
0.0867351
0.0839783
0.0803662
0.0794378
0.103628
0.104845
0.103427
0.102418
0.101053
0.0995359
0.0979141
0.096206
0.0944179
0.0925443
0.0905683
0.0884575
0.08614
0.0834181
0.0800915
0.0788135
0.113249
0.109718
0.106708
0.10469
0.102779
0.101018
0.0993502
0.0977401
0.0961622
0.0945868
0.0929684
0.0912327
0.0892512
0.0865786
0.081819
0.0864579
0.109122
0.108756
0.106295
0.104563
0.102782
0.101086
0.0994632
0.097891
0.0963496
0.0948118
0.0932337
0.091542
0.0896116
0.0870073
0.0822002
0.0870927
0.107044
0.10751
0.105481
0.104035
0.102416
0.100805
0.0992187
0.0976547
0.096103
0.0945436
0.0929393
0.0912263
0.0892926
0.0867167
0.0819396
0.0868869
0.105603
0.106483
0.104784
0.103558
0.102083
0.100559
0.0990225
0.0974832
0.09594
0.0943792
0.0927697
0.091056
0.0891381
0.0866064
0.0818935
0.0867754
0.104594
0.105662
0.104171
0.103102
0.101736
0.10028
0.0987811
0.0972559
0.0957102
0.0941358
0.0925073
0.0907774
0.0888613
0.0863747
0.0817616
0.0864849
0.103877
0.105038
0.103667
0.102699
0.101406
0.0999933
0.0985127
0.0969856
0.0954222
0.0938188
0.0921556
0.0903932
0.0884622
0.0860179
0.0815494
0.0859364
0.103382
0.104595
0.103283
0.102371
0.101115
0.0997195
0.098236
0.096688
0.0950877
0.0934353
0.0917168
0.089903
0.0879424
0.0855475
0.0813342
0.0850535
0.103079
0.104322
0.103025
0.102131
0.10088
0.0994762
0.0979682
0.0963791
0.0947204
0.0929919
0.0911817
0.0892685
0.0872251
0.0848783
0.0813129
0.0842651
0.112873
0.10934
0.10643
0.104509
0.102708
0.101069
0.0995392
0.0980923
0.0967147
0.0953903
0.0940778
0.0926579
0.0908336
0.0875783
0.0771944
0.0772489
0.108752
0.108383
0.106023
0.104391
0.102721
0.10115
0.0996696
0.098266
0.0969317
0.0956534
0.094391
0.093025
0.0912558
0.0880732
0.0774834
0.0774183
0.106669
0.107132
0.105203
0.103855
0.102346
0.100857
0.0994095
0.0980089
0.0966572
0.0953479
0.0940475
0.0926471
0.090864
0.087714
0.0771527
0.0771977
0.105224
0.106102
0.104502
0.103374
0.102008
0.100605
0.0992051
0.0978265
0.0964796
0.0951638
0.0938519
0.0924452
0.0906812
0.0876085
0.077192
0.0773883
0.10421
0.105278
0.103884
0.102912
0.101653
0.100316
0.0989503
0.0975814
0.096226
0.0948887
0.0935475
0.0921133
0.0903492
0.0873668
0.0771989
0.0775709
0.103487
0.10465
0.103373
0.102501
0.101312
0.100015
0.098663
0.0972855
0.0959036
0.0945263
0.0931375
0.0916575
0.0898739
0.0869886
0.0772004
0.0776746
0.102984
0.104201
0.102981
0.102163
0.101008
0.0997235
0.0983619
0.0969539
0.0955223
0.09408
0.0926204
0.0910839
0.0892957
0.0865709
0.0774408
0.0776318
0.102672
0.103921
0.102714
0.101911
0.100759
0.0994597
0.098065
0.096603
0.0950939
0.0935487
0.0919665
0.0903209
0.0885414
0.0862645
0.0794277
0.0815721
0.102232
0.103497
0.102336
0.101585
0.100486
0.0992365
0.0978866
0.0964634
0.0949871
0.0934691
0.0919087
0.0902797
0.0885119
0.0862414
0.0794049
0.0815426
0.102279
0.103549
0.102329
0.101526
0.100369
0.0990539
0.097627
0.096109
0.0945108
0.0928326
0.0910629
0.0891808
0.0871596
0.084826
0.081265
0.084213
0.102537
0.103788
0.102469
0.101579
0.100338
0.0989411
0.0974293
0.0958185
0.0941137
0.0923097
0.09039
0.0883228
0.086037
0.0833352
0.0800179
0.0787394
0.103049
0.104236
0.102764
0.101745
0.100395
0.0989001
0.0972985
0.0955987
0.0937991
0.0918878
0.0898397
0.0876098
0.085118
0.0822524
0.0790743
0.0762981
0.103895
0.104919
0.103212
0.102017
0.100529
0.098925
0.0972326
0.0954506
0.0935691
0.0915692
0.0894207
0.0870791
0.0844873
0.0816061
0.0785082
0.0752728
0.105221
0.105853
0.103797
0.102369
0.100718
0.0989998
0.0972219
0.0953694
0.093423
0.0913579
0.0891422
0.0867382
0.0841095
0.0812423
0.0781643
0.0748155
0.107131
0.106937
0.104426
0.10269
0.100845
0.0989998
0.0971294
0.0951998
0.0931813
0.0910445
0.0887591
0.0862964
0.0836357
0.0807737
0.0777172
0.0744135
0.111404
0.108054
0.105008
0.103005
0.101059
0.0991825
0.097309
0.09539
0.0933902
0.0912772
0.0890198
0.0865895
0.0839639
0.0811272
0.0780565
0.0746909
0.102006
0.103264
0.102156
0.101462
0.100429
0.0992565
0.0979937
0.0966703
0.0953094
0.0939252
0.0925121
0.0910111
0.0892477
0.0865363
0.0774069
0.0775834
0.102044
0.103309
0.10214
0.10139
0.100297
0.0990528
0.0977043
0.0962728
0.0947706
0.093199
0.0915454
0.0897811
0.0878553
0.0854802
0.0812714
0.0849802
0.102294
0.103542
0.102272
0.101433
0.100252
0.0989212
0.0974806
0.0959459
0.094323
0.0926073
0.0907828
0.0888138
0.0866073
0.0838773
0.0802755
0.0793422
0.102798
0.103985
0.102559
0.101591
0.100297
0.0988645
0.0973283
0.0956966
0.0939677
0.0921293
0.0901545
0.0879909
0.0855358
0.0826306
0.0793324
0.0766553
0.103639
0.104664
0.103002
0.101856
0.100422
0.0988775
0.0972461
0.0955259
0.0937062
0.0917665
0.0896732
0.087374
0.0847974
0.0818895
0.0787443
0.0755002
0.104961
0.105595
0.103583
0.102202
0.100605
0.0989441
0.0972241
0.095429
0.093538
0.0915241
0.0893519
0.0869778
0.0843577
0.0814747
0.078367
0.0749672
0.106867
0.106674
0.104206
0.102517
0.100723
0.0989317
0.0971149
0.0952368
0.0932658
0.0911703
0.0889168
0.0864728
0.0838147
0.0809389
0.0778551
0.0744963
0.111143
0.107797
0.104793
0.102839
0.100945
0.0991249
0.0973076
0.0954433
0.0934946
0.0914271
0.0892068
0.086802
0.084188
0.0813467
0.07825
0.0748187
0.101842
0.103091
0.102026
0.101376
0.100398
0.0992898
0.0981005
0.0968599
0.0955913
0.0943065
0.0929916
0.0915683
0.0898243
0.0869601
0.0771716
0.0776189
0.101872
0.10313
0.102001
0.101294
0.100252
0.0990673
0.0977852
0.0964265
0.0950032
0.0935144
0.0919425
0.0902498
0.0883672
0.0859493
0.0814837
0.0858499
0.102114
0.103357
0.102125
0.101327
0.100195
0.098919
0.0975387
0.0960689
0.0945146
0.09287
0.0911161
0.08921
0.0870384
0.0842646
0.0805098
0.0798059
0.102612
0.103795
0.102406
0.101477
0.100229
0.0988484
0.0973677
0.0957943
0.0941255
0.0923474
0.0904296
0.0883104
0.0858678
0.0829144
0.0795235
0.0768753
0.103448
0.104471
0.102843
0.101735
0.100346
0.0988506
0.097271
0.0956039
0.0938373
0.0919485
0.0898996
0.0876303
0.0850565
0.0821147
0.0789181
0.0756359
0.104766
0.105399
0.103421
0.102078
0.100524
0.0989098
0.097239
0.0954933
0.0936503
0.0916805
0.0895445
0.0871926
0.0845742
0.0816699
0.0785264
0.0750683
0.106667
0.106474
0.104039
0.102385
0.100632
0.0988858
0.0971144
0.0952804
0.0933506
0.0912906
0.0890638
0.0866339
0.0839742
0.0810814
0.0779672
0.0745534
0.110947
0.107601
0.104631
0.102713
0.100863
0.099089
0.0973196
0.0955025
0.0935985
0.0915708
0.0893823
0.0869984
0.0843916
0.0815421
0.078417
0.0749227
0.101725
0.102965
0.101935
0.101319
0.100385
0.099328
0.098198
0.0970238
0.0958278
0.09462
0.0933826
0.0920285
0.0903205
0.0873674
0.0771952
0.0775224
0.101748
0.102998
0.101902
0.101228
0.100226
0.0990899
0.0978617
0.096562
0.0952017
0.0937778
0.0922689
0.0906303
0.0887772
0.0863233
0.0817089
0.0863968
0.101983
0.10322
0.102019
0.101253
0.100159
0.0989276
0.0975966
0.0961796
0.0946808
0.0930924
0.0913921
0.0895302
0.0873785
0.0845728
0.080734
0.0801374
0.102475
0.103654
0.102294
0.101395
0.100184
0.098845
0.0974098
0.0958844
0.0942647
0.0925348
0.0906604
0.0885722
0.0861346
0.083145
0.0796936
0.0770348
0.103306
0.104326
0.102727
0.101648
0.100294
0.0988381
0.097301
0.0956779
0.0939551
0.0921074
0.0900931
0.0878449
0.0852699
0.0822995
0.0790611
0.0757308
0.104622
0.105253
0.103301
0.101987
0.100467
0.0988911
0.0972607
0.095556
0.0937529
0.0918192
0.0897119
0.0873763
0.0847566
0.0818322
0.0786552
0.0751402
0.106518
0.106324
0.103914
0.102288
0.100568
0.098857
0.0971226
0.0953252
0.0934295
0.0913987
0.0891932
0.0867734
0.0841102
0.0812005
0.0780572
0.074593
0.110802
0.107456
0.104511
0.102622
0.100805
0.0990693
0.0973392
0.0955615
0.0936949
0.0917002
0.0895377
0.0871699
0.084567
0.0817073
0.0785542
0.0750032
0.101643
0.102875
0.101872
0.101283
0.100382
0.0993651
0.0982812
0.0971585
0.0960191
0.0948716
0.0936954
0.0923947
0.0907061
0.0876717
0.0772401
0.0773658
0.10166
0.102904
0.101834
0.101185
0.100214
0.0991147
0.0979285
0.096675
0.0953639
0.0939905
0.0925303
0.0909309
0.0890922
0.0865997
0.0818772
0.0867063
0.10189
0.103122
0.101945
0.101202
0.100138
0.0989411
0.0976486
0.0962733
0.0948178
0.0932729
0.091613
0.0897823
0.0876408
0.0848083
0.0809103
0.0803451
0.102377
0.103552
0.102214
0.101339
0.100156
0.0988491
0.0974496
0.0959618
0.0943807
0.0926881
0.0908463
0.08878
0.086344
0.0833279
0.0798326
0.0771434
0.103205
0.104222
0.102644
0.101587
0.10026
0.0988348
0.0973312
0.0957427
0.0940543
0.0922388
0.0902506
0.0880175
0.0854404
0.0824485
0.0791768
0.0757987
0.104517
0.105146
0.103215
0.101923
0.100429
0.0988829
0.0972842
0.095612
0.0938404
0.091935
0.0898498
0.087526
0.0849043
0.0819635
0.078758
0.0751932
0.10641
0.106214
0.103824
0.102219
0.100523
0.0988402
0.097135
0.0953666
0.0934978
0.0914899
0.0893008
0.0868881
0.0842212
0.0812968
0.0781282
0.0746211
0.110697
0.10735
0.104425
0.102558
0.100767
0.0990604
0.0973614
0.0956149
0.0937781
0.0918096
0.0896673
0.0873114
0.0847102
0.0818405
0.0786624
0.0750638
0.101588
0.102815
0.101832
0.101262
0.100384
0.0993965
0.0983464
0.0972618
0.0961642
0.0950613
0.0939293
0.0926633
0.0909788
0.0878791
0.0772778
0.0772215
0.1016
0.10284
0.101789
0.101157
0.100209
0.0991369
0.0979817
0.0967622
0.0954876
0.0941515
0.0927261
0.0911522
0.0893169
0.0867899
0.0819905
0.0868778
0.101826
0.103055
0.101895
0.10117
0.100127
0.098955
0.097691
0.0963463
0.0949229
0.0934099
0.0917788
0.0899683
0.0878303
0.0849756
0.0810337
0.0804671
0.102309
0.103482
0.102161
0.101302
0.100139
0.0988559
0.0974827
0.0960229
0.0944702
0.0928049
0.0909863
0.0889346
0.0864983
0.0834625
0.0799343
0.0772112
0.103133
0.10415
0.102587
0.101547
0.100239
0.0988362
0.0973572
0.0957944
0.0941315
0.0923394
0.0903701
0.0881474
0.0855682
0.0825604
0.0792632
0.0758444
0.104444
0.105073
0.103157
0.10188
0.100405
0.0988805
0.0973054
0.0956572
0.093909
0.0920245
0.0899553
0.0876398
0.0850163
0.0820629
0.0788351
0.0752306
0.106334
0.106138
0.103763
0.102172
0.100494
0.0988314
0.0971476
0.0954006
0.0935518
0.0915608
0.0893835
0.0869758
0.0843057
0.0813699
0.0781813
0.0746409
0.110623
0.107277
0.104367
0.102515
0.100743
0.0990578
0.0973817
0.0956585
0.0938438
0.0918946
0.0897671
0.0874196
0.0848191
0.0819409
0.0787427
0.0751072
0.101553
0.102778
0.101809
0.10125
0.100388
0.0994192
0.0983913
0.0973319
0.096262
0.0951884
0.0940842
0.0928376
0.0911507
0.0880049
0.0772998
0.0771146
0.101562
0.102801
0.101762
0.101142
0.100208
0.0991535
0.0980187
0.0968218
0.0955712
0.0942596
0.0928561
0.0912964
0.0894593
0.0869055
0.0820579
0.0869681
0.101784
0.103013
0.101866
0.101151
0.100121
0.0989661
0.0977208
0.0963965
0.0949942
0.093502
0.0918891
0.0900905
0.0879526
0.0850815
0.0811122
0.080536
0.102265
0.103439
0.102129
0.10128
0.10013
0.0988624
0.0975065
0.0960651
0.0945312
0.0928836
0.09108
0.0890371
0.0865996
0.0835501
0.0800004
0.07725
0.103087
0.104105
0.102554
0.101522
0.100227
0.0988391
0.0973763
0.0958305
0.0941844
0.0924077
0.0904505
0.0882343
0.0856534
0.0826349
0.0793206
0.0758725
0.104396
0.105027
0.103122
0.101854
0.100391
0.0988808
0.0973212
0.0956889
0.0939561
0.0920853
0.0900265
0.0877163
0.0850914
0.0821296
0.0788866
0.0752546
0.106284
0.106091
0.103725
0.102144
0.100477
0.0988274
0.0971576
0.0954247
0.0935891
0.0916092
0.0894396
0.087035
0.0843626
0.0814191
0.0782169
0.0746536
0.110575
0.107232
0.104332
0.10249
0.100729
0.0990581
0.0973972
0.0956894
0.0938893
0.0919529
0.0898352
0.0874931
0.0848927
0.0820086
0.0787964
0.0751358
0.101536
0.10276
0.101799
0.101246
0.10039
0.0994313
0.0984144
0.0973675
0.0963113
0.095252
0.0941611
0.0929231
0.0912354
0.0880612
0.0773238
0.0770641
0.101543
0.102782
0.101751
0.101136
0.100208
0.0991626
0.0980378
0.0968522
0.0956135
0.0943137
0.0929205
0.0913665
0.0895264
0.0869519
0.0820882
0.0869864
0.101764
0.102993
0.101853
0.101143
0.100119
0.0989724
0.0977364
0.0964221
0.0950304
0.0935483
0.091944
0.0901506
0.088012
0.0851314
0.0811572
0.0805681
0.102244
0.103418
0.102115
0.10127
0.100126
0.0988664
0.0975191
0.0960869
0.0945622
0.0929234
0.091127
0.0890882
0.0866497
0.0835931
0.0800358
0.0772658
0.103065
0.104083
0.102539
0.101511
0.100222
0.0988413
0.0973866
0.0958492
0.0942115
0.0924424
0.0904912
0.088278
0.0856961
0.0826723
0.0793505
0.075885
0.104373
0.105005
0.103106
0.101842
0.100385
0.0988816
0.0973295
0.0957052
0.0939799
0.0921159
0.0900622
0.0877544
0.0851287
0.0821628
0.0789126
0.0752658
0.10626
0.106068
0.103708
0.10213
0.100469
0.098826
0.0971633
0.0954374
0.0936083
0.0916339
0.089468
0.087065
0.0843915
0.0814442
0.0782352
0.07466
0.110552
0.10721
0.104316
0.102478
0.100724
0.0990592
0.0974058
0.0957057
0.093913
0.091983