/*--------------------------------*- C++ -*----------------------------------*\
| =========                 |                                                 |
| \\      /  F ield         | OpenFOAM: The Open Source CFD Toolbox           |
|  \\    /   O peration     | Version:  v1912                                 |
|   \\  /    A nd           | Website:  www.openfoam.com                      |
|    \\/     M anipulation  |                                                 |
\*---------------------------------------------------------------------------*/
FoamFile
{
    version     2.0;
    format      ascii;
    class       surfaceScalarField;
    location    "0.03/fluid";
    object      phi;
}
// * * * * * * * * * * * * * * * * * * * * * * * * * * * * * * * * * * * * * //

dimensions      [0 3 -1 0 0 0 0];
oriented        oriented;


internalField   nonuniform List<scalar> 
41600
(
5.95829e-05
2.95359e-06
-1.35553e-06
1.31905e-06
5.82483e-05
1.36819e-06
-1.61814e-06
1.58457e-06
5.74467e-05
8.22675e-07
-1.87067e-06
1.84957e-06
5.68375e-05
6.15639e-07
-2.24636e-06
2.23991e-06
5.62649e-05
5.64232e-07
-2.77854e-06
2.78689e-06
5.56491e-05
5.93078e-07
-3.50284e-06
3.52558e-06
5.49397e-05
6.7235e-07
-4.47056e-06
4.50762e-06
5.40945e-05
7.92363e-07
-5.75633e-06
5.80914e-06
5.30695e-05
9.50647e-07
-7.46768e-06
7.54202e-06
5.18084e-05
1.14643e-06
-9.76046e-06
9.87519e-06
5.02173e-05
1.37704e-06
-1.28634e-05
1.30774e-05
4.8091e-05
1.63349e-06
-1.71155e-05
1.76083e-05
4.48894e-05
1.89384e-06
-2.30226e-05
2.43304e-05
3.91041e-05
2.10249e-06
-3.13307e-05
3.50136e-05
2.74481e-05
2.28663e-06
-4.31466e-05
5.2516e-05
1.82351e-06
-5.50959e-05
8.0722e-05
6.32447e-05
2.24694e-06
-1.46816e-06
1.43015e-06
6.29751e-05
1.67278e-06
-1.75732e-06
1.72235e-06
6.25327e-05
1.28679e-06
-2.03026e-06
2.00854e-06
6.20295e-05
1.12495e-06
-2.43492e-06
2.42881e-06
6.14727e-05
1.11131e-06
-3.00818e-06
3.01784e-06
6.08375e-05
1.20328e-06
-3.78847e-06
3.8135e-06
6.00894e-05
1.38015e-06
-4.83107e-06
4.87137e-06
5.91895e-05
1.63519e-06
-6.21634e-06
6.27338e-06
5.80919e-05
1.96845e-06
-8.06021e-06
8.14005e-06
5.67343e-05
2.38152e-06
-1.0531e-05
1.06535e-05
5.50118e-05
2.87225e-06
-1.38763e-05
1.41036e-05
5.26957e-05
3.42769e-06
-1.84643e-05
1.89862e-05
4.91922e-05
4.01403e-06
-2.48467e-05
2.623e-05
4.28312e-05
4.56428e-06
-3.38416e-05
3.77408e-05
3.01769e-05
5.01254e-06
-4.66632e-05
5.65916e-05
4.68241e-06
-5.95948e-05
8.69147e-05
6.28971e-05
1.88829e-06
-1.44156e-06
1.40312e-06
6.28233e-05
1.78205e-06
-1.7254e-06
1.68991e-06
6.25536e-05
1.57876e-06
-1.9921e-06
1.96984e-06
6.2175e-05
1.51027e-06
-2.38692e-06
2.3802e-06
6.17076e-05
1.56973e-06
-2.94552e-06
2.9545e-06
6.11432e-05
1.74346e-06
-3.70493e-06
3.72918e-06
6.04585e-05
2.02537e-06
-4.71849e-06
4.75791e-06
5.96204e-05
2.41728e-06
-6.06405e-06
6.12014e-06
5.85836e-05
2.92631e-06
-7.85432e-06
7.93321e-06
5.72824e-05
3.56106e-06
-1.02538e-05
1.03755e-05
5.56017e-05
4.32595e-06
-1.35059e-05
1.37328e-05
5.32949e-05
5.21199e-06
-1.79748e-05
1.84973e-05
4.97419e-05
6.18214e-06
-2.42101e-05
2.5595e-05
4.32508e-05
7.15435e-06
-3.30308e-05
3.69319e-05
3.03448e-05
8.00763e-06
-4.5652e-05
5.55629e-05
7.75817e-06
-5.85125e-05
8.57837e-05
6.26848e-05
1.74255e-06
-1.39756e-06
1.35852e-06
6.26705e-05
1.83251e-06
-1.67251e-06
1.63632e-06
6.2503e-05
1.76937e-06
-1.92916e-06
1.90611e-06
6.22246e-05
1.79625e-06
-2.30826e-06
2.30064e-06
6.18492e-05
1.93723e-06
-2.84348e-06
2.8514e-06
6.13722e-05
2.19746e-06
-3.56954e-06
3.59255e-06
6.07757e-05
2.58382e-06
-4.5366e-06
4.57459e-06
6.00301e-05
3.10844e-06
-5.81818e-06
5.87265e-06
5.90906e-05
3.78868e-06
-7.52133e-06
7.59843e-06
5.78869e-05
4.64514e-06
-9.80329e-06
9.92295e-06
5.62916e-05
5.69703e-06
-1.28987e-05
1.31229e-05
5.40342e-05
6.95254e-06
-1.71624e-05
1.76793e-05
5.04563e-05
8.38993e-06
-2.31359e-05
2.45059e-05
4.38247e-05
9.9286e-06
-3.16351e-05
3.54925e-05
3.0624e-05
1.14309e-05
-4.38684e-05
5.36457e-05
1.14222e-05
-5.65812e-05
8.35437e-05
6.26067e-05
1.67569e-06
-1.34101e-06
1.30121e-06
6.26228e-05
1.85348e-06
-1.60455e-06
1.56746e-06
6.25291e-05
1.88707e-06
-1.84822e-06
1.82416e-06
6.23392e-05
1.99495e-06
-2.20697e-06
2.19818e-06
6.20585e-05
2.21138e-06
-2.71185e-06
2.7184e-06
6.16826e-05
2.55203e-06
-3.39442e-06
3.41579e-06
6.11967e-05
3.03362e-06
-4.30042e-06
4.33647e-06
6.05745e-05
3.67846e-06
-5.49722e-06
5.54941e-06
5.97727e-05
4.51621e-06
-7.08344e-06
7.15777e-06
5.87176e-05
5.58426e-06
-9.20504e-06
9.32097e-06
5.72705e-05
6.92629e-06
-1.2082e-05
1.22999e-05
5.51331e-05
8.58703e-06
-1.60517e-05
1.65546e-05
5.15935e-05
1.0596e-05
-2.16378e-05
2.29713e-05
4.48349e-05
1.29276e-05
-2.96444e-05
3.3404e-05
3.12528e-05
1.55039e-05
-4.12613e-05
5.07705e-05
1.62776e-05
-5.37292e-05
8.01293e-05
6.25955e-05
1.62095e-06
-1.27425e-06
1.23355e-06
6.26468e-05
1.84032e-06
-1.52431e-06
1.48616e-06
6.26205e-05
1.93864e-06
-1.75259e-06
1.72732e-06
6.2516e-05
2.10956e-06
-2.08715e-06
2.07697e-06
6.23343e-05
2.38821e-06
-2.55584e-06
2.56072e-06
6.20716e-05
2.79535e-06
-3.18623e-06
3.20561e-06
6.17171e-05
3.35448e-06
-4.01843e-06
4.05207e-06
6.12495e-05
4.09687e-06
-5.11163e-06
5.16084e-06
6.06303e-05
5.06495e-06
-6.55282e-06
6.62322e-06
5.97885e-05
6.3162e-06
-8.47147e-06
8.58139e-06
5.85807e-05
7.9278e-06
-1.10647e-05
1.1271e-05
5.66895e-05
1.00029e-05
-1.46392e-05
1.51144e-05
5.33477e-05
1.26768e-05
-1.96816e-05
2.09427e-05
4.66053e-05
1.61009e-05
-2.6961e-05
3.05301e-05
3.26541e-05
2.04469e-05
-3.761e-05
4.66181e-05
2.35333e-05
-4.96187e-05
7.50197e-05
6.26193e-05
1.54335e-06
-1.20001e-06
1.1583e-06
6.27182e-05
1.78077e-06
-1.43508e-06
1.39573e-06
6.27612e-05
1.92228e-06
-1.6462e-06
1.61958e-06
6.27433e-05
2.13926e-06
-1.95374e-06
1.94198e-06
6.26647e-05
2.46376e-06
-2.38186e-06
2.38486e-06
6.25249e-05
2.91803e-06
-2.9535e-06
2.97059e-06
6.23193e-05
3.52938e-06
-3.70197e-06
3.73277e-06
6.20352e-05
4.33538e-06
-4.67633e-06
4.72185e-06
6.1646e-05
5.38909e-06
-5.94842e-06
6.01353e-06
6.10939e-05
6.76745e-06
-7.62507e-06
7.72587e-06
6.02492e-05
8.58577e-06
-9.8696e-06
1.00563e-05
5.8802e-05
1.10243e-05
-1.29393e-05
1.33652e-05
5.59679e-05
1.43832e-05
-1.72528e-05
1.83805e-05
4.96705e-05
1.91868e-05
-2.34962e-05
2.67078e-05
3.58281e-05
2.62262e-05
-3.26598e-05
4.07228e-05
3.59484e-05
-4.37633e-05
6.71783e-05
6.26636e-05
-1.12134e-06
1.07854e-06
1.42258e-06
6.28215e-05
-1.34052e-06
1.29988e-06
1.66348e-06
6.29374e-05
-1.53347e-06
1.5054e-06
1.83442e-06
6.3007e-05
-1.81236e-06
1.79891e-06
2.08311e-06
6.30335e-05
-2.19741e-06
2.19838e-06
2.43634e-06
6.30216e-05
-2.70649e-06
2.72107e-06
2.91531e-06
6.29754e-05
-3.36531e-06
3.39292e-06
3.54793e-06
6.28961e-05
-4.21131e-06
4.25249e-06
4.37351e-06
6.27781e-05
-5.29811e-06
5.35647e-06
5.4488e-06
6.25977e-05
-6.70342e-06
6.79128e-06
6.85994e-06
6.22786e-05
-8.54325e-06
8.69925e-06
8.74886e-06
6.15841e-05
-1.09984e-05
1.13412e-05
1.1376e-05
5.97824e-05
-1.43695e-05
1.52652e-05
1.52893e-05
5.46072e-05
-1.9181e-05
2.17628e-05
2.17801e-05
4.14517e-05
-2.62242e-05
3.27957e-05
3.28101e-05
-3.59464e-05
5.6666e-05
5.66813e-05
5.94945e-05
2.96766e-06
-1.31772e-06
5.80576e-05
1.38589e-06
-1.56706e-06
5.71442e-05
8.43318e-07
-1.80058e-06
5.64059e-05
6.41364e-07
-2.14944e-06
5.5676e-05
5.97558e-07
-2.6462e-06
5.48601e-05
6.37192e-07
-3.32418e-06
5.38881e-05
7.31425e-07
-4.22996e-06
5.26892e-05
8.71866e-07
-5.42926e-06
5.11767e-05
1.05769e-06
-7.01287e-06
4.92303e-05
1.29027e-06
-9.10441e-06
4.66669e-05
1.56944e-06
-1.18694e-05
4.31849e-05
1.8899e-06
-1.55234e-05
3.82529e-05
2.23582e-06
-2.03264e-05
3.08791e-05
2.56579e-06
-2.65228e-05
1.91643e-05
2.92641e-06
-3.43582e-05
2.69108e-06
-3.86195e-05
6.31491e-05
2.2767e-06
-1.42626e-06
6.27698e-05
1.70875e-06
-1.70091e-06
6.22068e-05
1.32946e-06
-1.95345e-06
6.15644e-05
1.17822e-06
-2.32934e-06
6.0838e-05
1.18035e-06
-2.86458e-06
5.99871e-05
1.29477e-06
-3.59518e-06
5.89559e-05
1.50286e-06
-4.57132e-06
5.76746e-05
1.80068e-06
-5.86386e-06
5.60511e-05
2.19192e-06
-7.57086e-06
5.39537e-05
2.68273e-06
-9.82611e-06
5.11798e-05
3.2764e-06
-1.28093e-05
4.7395e-05
3.96595e-06
-1.67555e-05
4.20106e-05
4.72334e-06
-2.19498e-05
3.39091e-05
5.4858e-06
-2.86602e-05
2.11329e-05
6.18845e-06
-3.7149e-05
5.95772e-06
-4.17242e-05
6.28039e-05
1.93235e-06
-1.40114e-06
6.2623e-05
1.83506e-06
-1.67076e-06
6.22359e-05
1.64182e-06
-1.91739e-06
6.17221e-05
1.58909e-06
-2.28393e-06
6.10902e-05
1.67202e-06
-2.80529e-06
6.03168e-05
1.87931e-06
-3.51611e-06
5.93579e-05
2.2081e-06
-4.46481e-06
5.81497e-05
2.6647e-06
-5.71991e-06
5.66016e-05
3.26223e-06
-7.37656e-06
5.45787e-05
4.01708e-06
-9.56523e-06
5.18681e-05
4.94339e-06
-1.24623e-05
4.81162e-05
6.04315e-06
-1.63001e-05
4.27041e-05
7.28916e-06
-2.13639e-05
3.44829e-05
8.60245e-06
-2.79263e-05
2.14258e-05
9.85579e-06
-3.62623e-05
9.69034e-06
-4.08147e-05
6.25952e-05
1.7991e-06
-1.3595e-06
6.2478e-05
1.90049e-06
-1.62071e-06
6.21981e-05
1.85033e-06
-1.85781e-06
6.17908e-05
1.89758e-06
-2.20947e-06
6.12591e-05
2.06899e-06
-2.70869e-06
6.05839e-05
2.37288e-06
-3.38797e-06
5.97275e-05
2.82066e-06
-4.29277e-06
5.86309e-05
3.43079e-06
-5.48767e-06
5.72052e-05
4.22945e-06
-7.06276e-06
5.53119e-05
5.2493e-06
-9.14228e-06
5.27267e-05
6.52555e-06
-1.18956e-05
4.90697e-05
8.08634e-06
-1.55487e-05
4.36763e-05
9.93032e-06
-2.03836e-05
3.53339e-05
1.19875e-05
-2.66778e-05
2.19221e-05
1.41194e-05
-3.47201e-05
1.42595e-05
-3.92235e-05
6.25217e-05
1.74244e-06
-1.306e-06
6.24403e-05
1.93372e-06
-1.55641e-06
6.22409e-05
1.98269e-06
-1.78121e-06
6.19304e-05
2.11477e-06
-2.1136e-06
6.15042e-05
2.36746e-06
-2.58412e-06
6.09445e-05
2.76039e-06
-3.22231e-06
6.02183e-05
3.31605e-06
-4.06956e-06
5.92717e-05
4.06508e-06
-5.18489e-06
5.80194e-05
5.0492e-06
-6.65093e-06
5.63229e-05
6.32315e-06
-8.58238e-06
5.39481e-05
7.95538e-06
-1.11371e-05
5.04869e-05
1.00247e-05
-1.45288e-05
4.52081e-05
1.26018e-05
-1.90304e-05
3.67783e-05
1.56941e-05
-2.49214e-05
2.2892e-05
1.92474e-05
-3.25031e-05
2.03382e-05
-3.69108e-05
6.25159e-05
1.69517e-06
-1.24284e-06
6.24762e-05
1.92955e-06
-1.4805e-06
6.2352e-05
2.04502e-06
-1.69072e-06
6.21369e-05
2.24296e-06
-2.00022e-06
6.18228e-05
2.5622e-06
-2.43652e-06
6.13943e-05
3.02813e-06
-3.02548e-06
6.08241e-05
3.67112e-06
-3.80331e-06
6.00666e-05
4.53266e-06
-4.82169e-06
5.90455e-05
5.67063e-06
-6.15309e-06
5.76297e-05
7.16588e-06
-7.89848e-06
5.55871e-05
9.1312e-06
-1.01978e-05
5.24928e-05
1.17232e-05
-1.32434e-05
4.75478e-05
1.5152e-05
-1.72869e-05
3.92272e-05
1.96516e-05
-2.25978e-05
2.48588e-05
2.54813e-05
-2.94754e-05
2.92599e-05
-3.36766e-05
6.25457e-05
1.62202e-06
-1.17261e-06
6.2561e-05
1.87533e-06
-1.39608e-06
6.25149e-05
2.035e-06
-1.59006e-06
6.23975e-05
2.28062e-06
-1.874e-06
6.22016e-05
2.64819e-06
-2.27197e-06
6.19168e-05
3.16501e-06
-2.80557e-06
6.15247e-05
3.866e-06
-3.5048e-06
6.0993e-05
4.80035e-06
-4.41233e-06
6.02635e-05
6.03934e-06
-5.58762e-06
5.92283e-05
7.68903e-06
-7.113e-06
5.76804e-05
9.91201e-06
-9.10247e-06
5.52128e-05
1.2965e-05
-1.17134e-05
5.1002e-05
1.72664e-05
-1.51565e-05
4.33215e-05
2.35019e-05
-1.9666e-05
2.8983e-05
3.26616e-05
-2.55015e-05
4.37652e-05
-2.92813e-05
6.25964e-05
-1.09819e-06
1.50248e-06
6.26783e-05
-1.30663e-06
1.75949e-06
6.27145e-05
-1.48342e-06
1.94879e-06
6.26966e-05
-1.74028e-06
2.2264e-06
6.26219e-05
-2.09759e-06
2.62309e-06
6.24875e-05
-2.57228e-06
3.16517e-06
6.22876e-05
-3.18752e-06
3.8882e-06
6.20089e-05
-3.97572e-06
4.84339e-06
6.16245e-05
-4.9809e-06
6.10651e-06
6.10768e-05
-6.262e-06
7.79533e-06
6.0236e-05
-7.89739e-06
1.01069e-05
5.87924e-05
-9.99104e-06
1.34012e-05
5.59617e-05
-1.26787e-05
1.84062e-05
4.96675e-05
-1.6112e-05
2.67271e-05
3.58277e-05
-2.04628e-05
4.07401e-05
-2.35496e-05
6.71985e-05
5.94133e-05
2.98098e-06
-1.21195e-06
5.78813e-05
1.40262e-06
-1.43774e-06
5.6863e-05
8.62857e-07
-1.6451e-06
5.6003e-05
6.65725e-07
-1.95518e-06
5.51252e-05
6.29117e-07
-2.39753e-06
5.41232e-05
6.7897e-07
-3.00111e-06
5.2911e-05
7.8736e-07
-3.8051e-06
5.13975e-05
9.47098e-07
-4.86285e-06
4.94703e-05
1.1589e-06
-6.24458e-06
4.69794e-05
1.42593e-06
-8.03945e-06
4.37149e-05
1.75013e-06
-1.03551e-05
3.93724e-05
2.128e-06
-1.33089e-05
3.34959e-05
2.54455e-06
-1.69944e-05
2.54141e-05
2.95834e-06
-2.13994e-05
1.40665e-05
3.39222e-06
-2.64028e-05
3.1689e-06
-2.77181e-05
6.30611e-05
2.30486e-06
-1.31121e-06
6.258e-05
1.7428e-06
-1.55998e-06
6.19039e-05
1.36985e-06
-1.78433e-06
6.11301e-05
1.22865e-06
-2.11854e-06
6.02442e-05
1.24572e-06
-2.5953e-06
5.91926e-05
1.38138e-06
-3.2459e-06
5.79023e-05
1.61894e-06
-4.11263e-06
5.62815e-05
1.95704e-06
-5.25305e-06
5.42101e-05
2.40259e-06
-6.74307e-06
5.15235e-05
2.96566e-06
-8.67932e-06
4.79894e-05
3.65373e-06
-1.11788e-05
4.32682e-05
4.46347e-06
-1.43698e-05
3.68506e-05
5.36797e-06
-1.83556e-05
2.79727e-05
6.30025e-06
-2.31242e-05
1.55788e-05
7.17817e-06
-2.85411e-05
6.96884e-06
-2.99398e-05
6.27182e-05
1.97404e-06
-1.28856e-06
6.24379e-05
1.88522e-06
-1.53281e-06
6.19407e-05
1.7015e-06
-1.75182e-06
6.12993e-05
1.6637e-06
-2.07761e-06
6.05127e-05
1.76885e-06
-2.54187e-06
5.95449e-05
2.00784e-06
-3.17473e-06
5.83351e-05
2.38083e-06
-4.01691e-06
5.6798e-05
2.89818e-06
-5.12399e-06
5.48153e-05
3.57828e-06
-6.5695e-06
5.22191e-05
4.44407e-06
-8.44744e-06
4.87658e-05
5.51709e-06
-1.08724e-05
4.40941e-05
6.80636e-06
-1.39712e-05
3.76591e-05
8.28792e-06
-1.78488e-05
2.8655e-05
9.87674e-06
-2.24987e-05
1.5944e-05
1.14278e-05
-2.7801e-05
1.12997e-05
-2.91956e-05
6.25129e-05
1.85261e-06
-1.25098e-06
6.23002e-05
1.96482e-06
-1.48763e-06
6.1915e-05
1.92695e-06
-1.69806e-06
6.13862e-05
1.99349e-06
-2.01044e-06
6.07075e-05
2.19366e-06
-2.4548e-06
5.9848e-05
2.53877e-06
-3.05938e-06
5.8754e-05
3.04435e-06
-3.86234e-06
5.73459e-05
3.73454e-06
-4.91595e-06
5.55078e-05
4.64322e-06
-6.28956e-06
5.3069e-05
5.81295e-06
-8.07232e-06
4.97732e-05
7.29107e-06
-1.03738e-05
4.52294e-05
9.11863e-06
-1.33172e-05
3.88377e-05
1.13034e-05
-1.70074e-05
2.97116e-05
1.37718e-05
-2.14467e-05
1.65855e-05
1.63681e-05
-2.65343e-05
1.65889e-05
-2.79209e-05
6.24437e-05
1.8056e-06
-1.20268e-06
6.22721e-05
2.00963e-06
-1.42959e-06
6.19736e-05
2.07318e-06
-1.62894e-06
6.15493e-05
2.22816e-06
-1.92398e-06
6.09863e-05
2.51509e-06
-2.34256e-06
6.02558e-05
2.95732e-06
-2.91033e-06
5.931e-05
3.58254e-06
-3.662e-06
5.8076e-05
4.42883e-06
-4.64513e-06
5.6443e-05
5.54821e-06
-5.92302e-06
5.42415e-05
7.00953e-06
-7.57746e-06
5.12056e-05
8.89965e-06
-9.70975e-06
4.69114e-05
1.13196e-05
-1.24355e-05
4.06802e-05
1.43614e-05
-1.58571e-05
3.14759e-05
1.804e-05
-1.99853e-05
1.77863e-05
2.22965e-05
-2.47419e-05
2.35718e-05
-2.6101e-05
6.2443e-05
1.7654e-06
-1.14567e-06
6.23193e-05
2.01397e-06
-1.36108e-06
6.21034e-05
2.14567e-06
-1.54729e-06
6.17839e-05
2.36916e-06
-1.82175e-06
6.13454e-05
2.72671e-06
-2.20962e-06
6.07626e-05
3.248e-06
-2.73338e-06
5.99955e-05
3.96958e-06
-3.4233e-06
5.89816e-05
4.94196e-06
-4.32085e-06
5.76218e-05
6.23602e-06
-5.48116e-06
5.57571e-05
7.95126e-06
-6.97549e-06
5.31248e-05
1.02265e-05
-8.89242e-06
4.9282e-05
1.3253e-05
-1.1334e-05
4.34674e-05
1.72822e-05
-1.4393e-05
3.44107e-05
2.25833e-05
-1.80844e-05
2.01262e-05
2.9455e-05
-2.23494e-05
3.36552e-05
-2.36275e-05
6.24786e-05
1.69644e-06
-1.08228e-06
6.24166e-05
1.96478e-06
-1.2849e-06
6.22871e-05
2.14163e-06
-1.45649e-06
6.20759e-05
2.41432e-06
-1.70798e-06
6.17696e-05
2.82252e-06
-2.06149e-06
6.13497e-05
3.39818e-06
-2.53582e-06
6.07875e-05
4.18302e-06
-3.156e-06
6.00368e-05
5.23636e-06
-3.95607e-06
5.90214e-05
6.64463e-06
-4.98082e-06
5.76105e-05
8.53657e-06
-6.28743e-06
5.5572e-05
1.11086e-05
-7.94605e-06
5.24814e-05
1.46667e-05
-1.00366e-05
4.754e-05
1.96975e-05
-1.26304e-05
3.92227e-05
2.69696e-05
-1.5735e-05
2.48567e-05
3.76158e-05
-1.92964e-05
4.96258e-05
-2.03899e-05
6.25353e-05
-1.01512e-06
1.57806e-06
6.25473e-05
-1.20418e-06
1.85031e-06
6.25089e-05
-1.3603e-06
2.05696e-06
6.24085e-05
-1.58746e-06
2.36189e-06
6.22384e-05
-1.90456e-06
2.79958e-06
6.19897e-05
-2.32637e-06
3.40097e-06
6.16489e-05
-2.87217e-06
4.20849e-06
6.11935e-05
-3.56766e-06
5.28364e-06
6.0585e-05
-4.44554e-06
6.71779e-06
5.97524e-05
-5.54562e-06
8.65285e-06
5.85527e-05
-6.91326e-06
1.13241e-05
5.6669e-05
-8.59427e-06
1.51537e-05
5.33342e-05
-1.06188e-05
2.09724e-05
4.65985e-05
-1.29613e-05
3.05547e-05
3.26526e-05
-1.5544e-05
4.66429e-05
-1.63193e-05
7.50513e-05
5.93413e-05
2.993e-06
-1.04629e-06
5.7725e-05
1.41772e-06
-1.23915e-06
5.66131e-05
8.80488e-07
-1.41363e-06
5.56446e-05
6.87704e-07
-1.67439e-06
5.46358e-05
6.57575e-07
-2.04634e-06
5.34711e-05
7.16601e-07
-2.55297e-06
5.20533e-05
8.37654e-07
-3.22502e-06
5.02788e-05
1.01457e-06
-4.10284e-06
4.80217e-05
1.24931e-06
-5.23686e-06
4.51222e-05
1.54648e-06
-6.68641e-06
4.13719e-05
1.90934e-06
-8.51412e-06
3.64989e-05
2.33533e-06
-1.07712e-05
3.01576e-05
2.80899e-06
-1.34621e-05
2.19571e-05
3.28812e-06
-1.64871e-05
1.14105e-05
3.77769e-06
-1.96338e-05
3.56984e-06
-1.98732e-05
6.29832e-05
2.33028e-06
-1.13167e-06
6.24116e-05
1.77353e-06
-1.34418e-06
6.16345e-05
1.4063e-06
-1.53304e-06
6.07436e-05
1.27415e-06
-1.81416e-06
5.97164e-05
1.30463e-06
-2.21515e-06
5.84892e-05
1.45933e-06
-2.76141e-06
5.69771e-05
1.72322e-06
-3.48612e-06
5.50744e-05
2.09707e-06
-4.43284e-06
5.26464e-05
2.59047e-06
-5.65616e-06
4.95174e-05
3.21646e-06
-7.22036e-06
4.54561e-05
3.98544e-06
-9.19363e-06
4.01579e-05
4.89595e-06
-1.16321e-05
3.32331e-05
5.92015e-06
-1.4542e-05
2.42271e-05
6.98525e-06
-1.78153e-05
1.26915e-05
7.99197e-06
-2.12198e-05
7.78672e-06
-2.14593e-05
6.26424e-05
2.01168e-06
-1.11239e-06
6.22737e-05
1.9305e-06
-1.32106e-06
6.16782e-05
1.75535e-06
-1.50539e-06
6.09231e-05
1.73099e-06
-1.77936e-06
5.99996e-05
1.8561e-06
-2.16977e-06
5.88618e-05
2.12347e-06
-2.70105e-06
5.74373e-05
2.53587e-06
-3.40513e-06
5.56274e-05
3.10702e-06
-4.32399e-06
5.32992e-05
3.85958e-06
-5.51039e-06
5.02734e-05
4.8215e-06
-7.02669e-06
4.63065e-05
6.01947e-06
-8.93951e-06
4.10693e-05
7.46641e-06
-1.13045e-05
3.41326e-05
9.13805e-06
-1.413e-05
2.4992e-05
1.09405e-05
-1.73134e-05
1.31096e-05
1.27086e-05
-2.06352e-05
1.25857e-05
-2.08785e-05
6.24401e-05
1.90091e-06
-1.08036e-06
6.21427e-05
2.02288e-06
-1.28257e-06
6.16635e-05
1.99608e-06
-1.45961e-06
6.10263e-05
2.07996e-06
-1.72221e-06
6.02175e-05
2.30594e-06
-2.09578e-06
5.91969e-05
2.68792e-06
-2.60321e-06
5.78998e-05
3.24491e-06
-3.27436e-06
5.62337e-05
4.00581e-06
-4.1486e-06
5.40686e-05
5.0106e-06
-5.27551e-06
5.12224e-05
6.30938e-06
-6.71394e-06
4.74374e-05
7.95788e-06
-8.52723e-06
4.23511e-05
1.00048e-05
-1.07693e-05
3.54714e-05
1.24607e-05
-1.34503e-05
2.61994e-05
1.52426e-05
-1.64768e-05
1.38487e-05
1.81719e-05
-1.96468e-05
1.84181e-05
-1.98979e-05
6.23748e-05
1.8626e-06
-1.03921e-06
6.21231e-05
2.07814e-06
-1.23313e-06
6.17362e-05
2.1548e-06
-1.40076e-06
6.12105e-05
2.33036e-06
-1.64867e-06
6.05263e-05
2.648e-06
-2.00045e-06
5.96466e-05
3.13423e-06
-2.47687e-06
5.85133e-05
3.8212e-06
-3.10504e-06
5.70416e-05
4.75305e-06
-3.92064e-06
5.51078e-05
5.99e-06
-4.96866e-06
5.2531e-05
7.61142e-06
-6.30266e-06
4.90428e-05
9.7169e-06
-7.98055e-06
4.42433e-05
1.2421e-05
-1.00523e-05
3.75503e-05
1.58254e-05
-1.25288e-05
2.81939e-05
1.99409e-05
-1.53271e-05
1.52021e-05
2.46891e-05
-1.82674e-05
2.60456e-05
-1.85194e-05
6.23788e-05
1.82877e-06
-9.90641e-07
6.21805e-05
2.09014e-06
-1.17477e-06
6.18828e-05
2.23645e-06
-1.33126e-06
6.14703e-05
2.48289e-06
-1.56174e-06
6.09215e-05
2.87475e-06
-1.88758e-06
6.02039e-05
3.44539e-06
-2.32699e-06
5.92688e-05
4.23655e-06
-2.90352e-06
5.80431e-05
5.30608e-06
-3.64815e-06
5.64166e-05
6.73504e-06
-4.59972e-06
5.42202e-05
8.63666e-06
-5.80428e-06
5.11884e-05
1.11676e-05
-7.31135e-06
4.68978e-05
1.45408e-05
-9.16328e-06
4.06701e-05
1.90286e-05
-1.13684e-05
3.14691e-05
2.49103e-05
-1.38529e-05
1.77819e-05
3.24869e-05
-1.646e-05
3.6894e-05
-1.66873e-05
6.24195e-05
1.7636e-06
-9.36643e-07
6.22892e-05
2.04548e-06
-1.10989e-06
6.20853e-05
2.2378e-06
-1.25398e-06
6.17905e-05
2.53478e-06
-1.46501e-06
6.13863e-05
2.97933e-06
-1.76188e-06
6.08482e-05
3.60738e-06
-2.15978e-06
6.01406e-05
4.46631e-06
-2.67813e-06
5.92092e-05
5.62362e-06
-3.34219e-06
5.79692e-05
7.1774e-06
-4.18314e-06
5.62826e-05
9.27287e-06
-5.23706e-06
5.39162e-05
1.21294e-05
-6.5414e-06
5.04624e-05
1.60836e-05
-8.12564e-06
4.51906e-05
2.16592e-05
-9.98909e-06
3.67675e-05
2.966e-05
-1.20618e-05
2.28859e-05
4.12761e-05
-1.42039e-05
5.37471e-05
-1.43512e-05
6.24817e-05
-8.79431e-07
1.64626e-06
6.24319e-05
-1.04115e-06
1.93224e-06
6.2327e-05
-1.17212e-06
2.15451e-06
6.21529e-05
-1.36258e-06
2.48396e-06
6.18981e-05
-1.62875e-06
2.95831e-06
6.15492e-05
-1.9826e-06
3.61248e-06
6.10878e-05
-2.43903e-06
4.49459e-06
6.04863e-05
-3.01692e-06
5.67438e-06
5.97017e-05
-3.7386e-06
7.2551e-06
5.8661e-05
-4.62808e-06
9.39595e-06
5.72264e-05
-5.70674e-06
1.23575e-05
5.51003e-05
-6.98413e-06
1.65996e-05
5.15715e-05
-8.43922e-06
2.30085e-05
4.48232e-05
-9.99162e-06
3.34386e-05
3.12487e-05
-1.1503e-05
5.08096e-05
-1.1502e-05
8.01821e-05
5.9281e-05
3.00323e-06
-8.30504e-07
5.75937e-05
1.43059e-06
-9.82491e-07
5.6403e-05
8.955e-07
-1.11844e-06
5.53436e-05
7.06407e-07
-1.32131e-06
5.42259e-05
6.81761e-07
-1.61044e-06
5.29278e-05
7.48529e-07
-2.00337e-06
5.13449e-05
8.80227e-07
-2.52242e-06
4.93664e-05
1.07149e-06
-3.19584e-06
4.68616e-05
1.32524e-06
-4.05724e-06
4.3671e-05
1.64706e-06
-5.14293e-06
3.96011e-05
2.04112e-06
-6.48532e-06
3.4424e-05
2.50513e-06
-8.09914e-06
2.78946e-05
3.02286e-06
-9.95557e-06
1.98051e-05
3.55054e-06
-1.19481e-05
9.97499e-06
4.07901e-06
-1.38827e-05
3.87687e-06
-1.37709e-05
6.29178e-05
2.35194e-06
-8.98147e-07
6.22701e-05
1.79971e-06
-1.06561e-06
6.1408e-05
1.43733e-06
-1.2128e-06
6.0419e-05
1.31284e-06
-1.43155e-06
5.92742e-05
1.35468e-06
-1.74332e-06
5.7903e-05
1.52543e-06
-2.16709e-06
5.62126e-05
1.81141e-06
-2.72694e-06
5.40896e-05
2.21507e-06
-3.45341e-06
5.13935e-05
2.74801e-06
-4.38285e-06
4.79495e-05
3.42541e-06
-5.55464e-06
4.35416e-05
4.25952e-06
-7.00412e-06
3.79127e-05
5.24961e-06
-8.74768e-06
3.07823e-05
6.36603e-06
-1.07548e-05
2.18972e-05
7.53014e-06
-1.29098e-05
1.11294e-05
8.62804e-06
-1.5001e-05
8.41782e-06
-1.48648e-05
6.25788e-05
2.04374e-06
-8.82977e-07
6.21358e-05
1.96908e-06
-1.04744e-06
6.14577e-05
1.8012e-06
-1.19111e-06
6.06072e-05
1.78822e-06
-1.40427e-06
5.95697e-05
1.93019e-06
-1.70777e-06
5.82925e-05
2.22148e-06
-2.11989e-06
5.66956e-05
2.66688e-06
-2.66374e-06
5.46726e-05
3.28278e-06
-3.36874e-06
5.20851e-05
4.09506e-06
-4.26992e-06
4.8754e-05
5.1352e-06
-5.40538e-06
4.44503e-05
6.43322e-06
-6.80952e-06
3.88904e-05
8.00383e-06
-8.49879e-06
3.17503e-05
9.82075e-06
-1.04446e-05
2.27218e-05
1.17811e-05
-1.25359e-05
1.15837e-05
1.37015e-05
-1.45705e-05
1.35699e-05
-1.44404e-05
6.23791e-05
1.94206e-06
-8.5779e-07
6.20105e-05
2.07233e-06
-1.01717e-06
6.14522e-05
2.05492e-06
-1.15512e-06
6.07241e-05
2.15349e-06
-1.35939e-06
5.9807e-05
2.40127e-06
-1.64975e-06
5.86544e-05
2.81424e-06
-2.0433e-06
5.71943e-05
3.41422e-06
-2.56166e-06
5.5327e-05
4.23377e-06
-3.23229e-06
5.29172e-05
5.31744e-06
-4.08801e-06
4.97823e-05
6.72067e-06
-5.16455e-06
4.56781e-05
8.50459e-06
-6.49436e-06
4.0284e-05
1.07219e-05
-8.09331e-06
3.32074e-05
1.33823e-05
-9.93525e-06
2.40357e-05
1.63925e-05
-1.19164e-05
1.23877e-05
1.95516e-05
-1.38488e-05
1.9797e-05
-1.37303e-05
6.23171e-05
1.91116e-06
-8.25425e-07
6.19981e-05
2.13649e-06
-9.78287e-07
6.15369e-05
2.22427e-06
-1.10888e-06
6.09261e-05
2.41724e-06
-1.30166e-06
6.01412e-05
2.76077e-06
-1.57503e-06
5.91391e-05
3.28397e-06
-1.94449e-06
5.78554e-05
4.02244e-06
-2.4296e-06
5.61987e-05
5.02504e-06
-3.05518e-06
5.40403e-05
6.35804e-06
-3.85083e-06
5.11988e-05
8.10818e-06
-4.84872e-06
4.74176e-05
1.03833e-05
-6.07803e-06
4.23346e-05
1.33055e-05
-7.55287e-06
3.54582e-05
1.69791e-05
-9.24925e-06
2.61901e-05
2.1406e-05
-1.10725e-05
1.38408e-05
2.64855e-05
-1.28521e-05
2.78693e-05
-1.27439e-05
6.2325e-05
1.88276e-06
-7.87229e-07
6.20641e-05
2.155e-06
-9.32404e-07
6.16977e-05
2.31369e-06
-1.05428e-06
6.12071e-05
2.57954e-06
-1.23344e-06
6.05666e-05
3.00032e-06
-1.4866e-06
5.97386e-05
3.61233e-06
-1.82734e-06
5.86687e-05
4.46141e-06
-2.2726e-06
5.72784e-05
5.611e-06
-2.8438e-06
5.54533e-05
7.14962e-06
-3.56627e-06
5.30244e-05
9.20005e-06
-4.46721e-06
4.97365e-05
1.19305e-05
-5.57067e-06
4.51997e-05
1.5566e-05
-6.88698e-06
3.88148e-05
2.03882e-05
-8.39262e-06
2.96958e-05
2.66741e-05
-1.0002e-05
1.65731e-05
3.47124e-05
-1.15642e-05
3.92151e-05
-1.1453e-05
6.23701e-05
1.8208e-06
-7.44766e-07
6.21824e-05
2.11421e-06
-8.81395e-07
6.19161e-05
2.31961e-06
-9.93565e-07
6.1551e-05
2.63713e-06
-1.15755e-06
6.10653e-05
3.1123e-06
-1.38816e-06
6.04303e-05
3.78422e-06
-1.69672e-06
5.96061e-05
4.70471e-06
-2.09717e-06
5.85343e-05
5.94745e-06
-2.60682e-06
5.71275e-05
7.61898e-06
-3.24572e-06
5.52491e-05
9.87586e-06
-4.03451e-06
5.2676e-05
1.29521e-05
-4.98989e-06
4.90298e-05
1.7202e-05
-6.11534e-06
4.36466e-05
2.31667e-05
-7.38441e-06
3.53146e-05
3.16623e-05
-8.718e-06
2.19081e-05
4.38972e-05
-9.9823e-06
5.6615e-05
-9.83718e-06
6.24368e-05
-6.99776e-07
1.70435e-06
6.23352e-05
-8.27357e-07
2.00201e-06
6.21745e-05
-9.29269e-07
2.2375e-06
6.19385e-05
-1.0772e-06
2.58767e-06
6.16131e-05
-1.28392e-06
3.09289e-06
6.11819e-05
-1.55838e-06
3.79124e-06
6.06235e-05
-1.9112e-06
4.73527e-06
5.99083e-05
-2.35519e-06
6.00092e-06
5.8993e-05
-2.90434e-06
7.70002e-06
5.78088e-05
-3.57144e-06
1.00034e-05
5.62301e-05
-4.36347e-06
1.31875e-05
5.39874e-05
-5.27299e-06
1.77335e-05
5.04236e-05
-6.26411e-06
2.45554e-05
4.38058e-05
-7.25581e-06
3.55443e-05
3.0613e-05
-8.12294e-06
5.37101e-05
-7.90539e-06
8.36351e-05
5.9234e-05
3.01127e-06
-5.75807e-07
5.74917e-05
1.44072e-06
-6.80856e-07
5.62398e-05
9.07294e-07
-7.73848e-07
5.51099e-05
7.21097e-07
-9.12489e-07
5.39086e-05
7.00738e-07
-1.10989e-06
5.25093e-05
7.73532e-07
-1.37764e-06
5.08035e-05
9.13476e-07
-1.7301e-06
4.86768e-05
1.1158e-06
-2.18494e-06
4.59978e-05
1.38407e-06
-2.76225e-06
4.26123e-05
1.72457e-06
-3.48205e-06
3.8344e-05
2.14193e-06
-4.35896e-06
3.30035e-05
2.63391e-06
-5.39257e-06
2.64163e-05
3.18335e-06
-6.55169e-06
1.84787e-05
3.74478e-06
-7.75532e-06
9.1652e-06
4.29928e-06
-8.86845e-06
4.09817e-06
-8.69961e-06
6.28669e-05
2.36897e-06
-6.22744e-07
6.21601e-05
1.8203e-06
-7.38361e-07
6.12319e-05
1.4617e-06
-8.39096e-07
6.01669e-05
1.34321e-06
-9.88574e-07
5.89318e-05
1.39391e-06
-1.20145e-06
5.74514e-05
1.57714e-06
-1.49025e-06
5.56282e-05
1.88021e-06
-1.87048e-06
5.3345e-05
2.30681e-06
-2.36122e-06
5.04605e-05
2.86994e-06
-2.98422e-06
4.68054e-05
3.58619e-06
-3.76118e-06
4.21824e-05
4.46889e-06
-4.70809e-06
3.6376e-05
5.51741e-06
-5.82474e-06
2.9182e-05
6.70021e-06
-7.07769e-06
2.0462e-05
7.93374e-06
-8.37874e-06
1.02481e-05
9.09323e-06
-9.58107e-06
8.87571e-06
-9.3881e-06
6.25293e-05
2.06896e-06
-6.12242e-07
6.20286e-05
1.99941e-06
-7.25849e-07
6.12862e-05
1.83722e-06
-8.24222e-07
6.03619e-05
1.83314e-06
-9.69868e-07
5.92368e-05
1.98826e-06
-1.17709e-06
5.78539e-05
2.29812e-06
-1.45795e-06
5.61287e-05
2.76903e-06
-1.8273e-06
5.39509e-05
3.41931e-06
-2.30351e-06
5.11814e-05
4.27707e-06
-2.9075e-06
4.76462e-05
5.37614e-06
-3.66019e-06
4.31342e-05
6.74849e-06
-4.57707e-06
3.74015e-05
8.40944e-06
-5.65818e-06
3.01984e-05
1.03302e-05
-6.87151e-06
2.13276e-05
1.24007e-05
-8.13204e-06
1.07264e-05
1.44233e-05
-9.29936e-06
1.42799e-05
-9.11154e-06
6.23316e-05
1.97442e-06
-5.94898e-07
6.19076e-05
2.11121e-06
-7.04973e-07
6.1288e-05
2.10115e-06
-7.99427e-07
6.04896e-05
2.21119e-06
-9.3897e-07
5.94893e-05
2.47594e-06
-1.1372e-06
5.82365e-05
2.91296e-06
-1.40538e-06
5.66552e-05
3.54612e-06
-1.75737e-06
5.46419e-05
4.41061e-06
-2.21031e-06
5.20605e-05
5.55417e-06
-2.78369e-06
4.87334e-05
7.03573e-06
-3.49703e-06
4.44326e-05
8.91968e-06
-4.36476e-06
3.88752e-05
1.12604e-05
-5.38688e-06
3.17379e-05
1.40656e-05
-6.53338e-06
2.27136e-05
1.72329e-05
-7.72435e-06
1.15729e-05
2.0544e-05
-8.82885e-06
2.07803e-05
-8.6509e-06
6.22723e-05
1.94934e-06
-5.72597e-07
6.1901e-05
2.18236e-06
-6.78184e-07
6.1382e-05
2.27883e-06
-7.67583e-07
6.07054e-05
2.4854e-06
-8.99257e-07
5.98431e-05
2.84908e-06
-1.08586e-06
5.87483e-05
3.40091e-06
-1.33761e-06
5.73527e-05
4.17906e-06
-1.66702e-06
5.55619e-05
5.23573e-06
-2.08951e-06
5.32465e-05
6.64136e-06
-2.62257e-06
5.02295e-05
8.48755e-06
-3.28357e-06
4.62692e-05
1.08871e-05
-4.08517e-06
4.10378e-05
1.39657e-05
-5.02676e-06
3.41071e-05
1.78275e-05
-6.08037e-06
2.49744e-05
2.24654e-05
-7.17239e-06
1.30902e-05
2.77603e-05
-8.18409e-06
2.91499e-05
-8.01615e-06
6.22832e-05
1.92521e-06
-5.46279e-07
6.19737e-05
2.20599e-06
-6.46571e-07
6.15539e-05
2.37436e-06
-7.29993e-07
6.10029e-05
2.65534e-06
-8.52335e-07
6.02919e-05
3.09861e-06
-1.02513e-06
5.93801e-05
3.74264e-06
-1.2573e-06
5.821e-05
4.63626e-06
-1.55968e-06
5.67005e-05
5.84686e-06
-1.9455e-06
5.47371e-05
7.46808e-06
-2.42957e-06
5.21549e-05
9.62892e-06
-3.02632e-06
4.87124e-05
1.25045e-05
-3.74558e-06
4.40498e-05
1.63264e-05
-4.58505e-06
3.76239e-05
2.13788e-05
-5.51809e-06
2.8631e-05
2.7934e-05
-6.47764e-06
1.59189e-05
3.6267e-05
-7.35868e-06
4.08165e-05
-7.19383e-06
6.23317e-05
1.86578e-06
-5.17019e-07
6.20995e-05
2.16822e-06
-6.11431e-07
6.17846e-05
2.38387e-06
-6.882e-07
6.13652e-05
2.71739e-06
-8.00147e-07
6.08168e-05
3.21635e-06
-9.57531e-07
6.01083e-05
3.9222e-06
-1.16781e-06
5.91973e-05
4.88995e-06
-1.43983e-06
5.80239e-05
6.19765e-06
-1.78422e-06
5.65012e-05
7.95759e-06
-2.21253e-06
5.44973e-05
1.03336e-05
-2.73529e-06
5.18017e-05
1.35684e-05
-3.35825e-06
4.80626e-05
1.8026e-05
-4.07579e-06
4.26627e-05
2.42551e-05
-4.86085e-06
3.44558e-05
3.30748e-05
-5.65186e-06
2.1398e-05
4.56995e-05
-6.35698e-06
5.85628e-05
-6.17955e-06
6.2402e-05
-4.86021e-07
1.75002e-06
6.22602e-05
-5.74203e-07
2.05684e-06
6.20561e-05
-6.43943e-07
2.30267e-06
6.17722e-05
-7.44897e-07
2.669e-06
6.13924e-05
-8.85974e-07
3.19819e-06
6.08986e-05
-1.07305e-06
3.93069e-06
6.0268e-05
-1.31285e-06
4.92224e-06
5.94704e-05
-1.61313e-06
6.25313e-06
5.84645e-05
-1.98172e-06
8.04093e-06
5.71872e-05
-2.42453e-06
1.04639e-05
5.55261e-05
-2.9419e-06
1.3808e-05
5.32362e-05
-3.52261e-06
1.85655e-05
4.96984e-05
-4.13532e-06
2.56641e-05
4.32232e-05
-4.71871e-06
3.70129e-05
3.03157e-05
-5.18883e-06
5.56728e-05
-4.97107e-06
8.5948e-05