/*--------------------------------*- C++ -*----------------------------------*\
| =========                 |                                                 |
| \\      /  F ield         | OpenFOAM: The Open Source CFD Toolbox           |
|  \\    /   O peration     | Version:  v1912                                 |
|   \\  /    A nd           | Website:  www.openfoam.com                      |
|    \\/     M anipulation  |                                                 |
\*---------------------------------------------------------------------------*/
FoamFile
{
    version     2.0;
    format      ascii;
    class       pointVectorField;
    location    "0.03/fluid";
    object      pointMotionU;
}
// * * * * * * * * * * * * * * * * * * * * * * * * * * * * * * * * * * * * * //

dimensions      [0 1 -1 0 0 0 0];


internalField   nonuniform List<vector> 
16859
(
(0 0 0)
(0 0 0)
(0 0 0)
(0 0 0)
(0 0 0)
(0 0 0)
(0 0 0)
(0 0 0)
(0 0 0)
(0 0 0)
(0 0 0)
(0 0 0)
(0 0 0)
(0 0 0)
(0 0 0)
(0 0 0)
(-6.74912e-07 9.29481e-07 -5.39074e-07)
(0 0 0)
(-3.10404e-08 -2.73007e-08 8.33078e-09)
(-6.56994e-08 -6.38895e-08 2.198e-08)
(-1.06564e-07 -1.15852e-07 4.44425e-08)
(-1.5314e-07 -1.85002e-07 7.70678e-08)
(-2.0156e-07 -2.67883e-07 1.17852e-07)
(-2.42774e-07 -3.53563e-07 1.59311e-07)
(-2.67607e-07 -4.32051e-07 1.9351e-07)
(-2.78774e-07 -5.09523e-07 2.21198e-07)
(-3.026e-07 -6.16933e-07 2.63699e-07)
(-3.95792e-07 -7.98808e-07 3.61643e-07)
(-6.3928e-07 -1.07473e-06 5.51697e-07)
(-1.1176e-06 -1.39494e-06 8.35535e-07)
(-1.79424e-06 -1.61031e-06 1.13954e-06)
(-2.34257e-06 -1.5238e-06 1.32139e-06)
(-2.36427e-06 -1.062e-06 1.22963e-06)
(-8.02542e-07 2.9166e-07 3.48165e-07)
(0 0 0)
(-5.37574e-08 -4.32522e-08 1.30343e-08)
(-1.14726e-07 -1.04876e-07 3.6337e-08)
(-1.87009e-07 -1.95381e-07 7.59436e-08)
(-2.69341e-07 -3.17944e-07 1.34299e-07)
(-3.55012e-07 -4.67175e-07 2.08081e-07)
(-4.30347e-07 -6.2745e-07 2.85568e-07)
(-4.80815e-07 -7.83445e-07 3.52786e-07)
(-5.0824e-07 -9.42389e-07 4.0976e-07)
(-5.51906e-07 -1.14904e-06 4.89163e-07)
(-7.03072e-07 -1.46971e-06 6.57887e-07)
(-1.09909e-06 -1.93892e-06 9.86366e-07)
(-1.88337e-06 -2.49778e-06 1.49933e-06)
(-2.92821e-06 -2.94236e-06 2.10865e-06)
(-3.58795e-06 -3.0085e-06 2.60143e-06)
(-3.20495e-06 -2.63101e-06 2.73297e-06)
(-7.7649e-07 -1.83031e-06 2.42791e-06)
(0 0 0)
(-7.03862e-08 -4.9884e-08 1.50572e-08)
(-1.51308e-07 -1.26641e-07 4.4822e-08)
(-2.47553e-07 -2.43869e-07 9.71984e-08)
(-3.56675e-07 -4.05527e-07 1.75592e-07)
(-4.70641e-07 -6.06085e-07 2.75885e-07)
(-5.74377e-07 -8.29307e-07 3.84609e-07)
(-6.5099e-07 -1.05727e-06 4.83272e-07)
(-6.99167e-07 -1.29328e-06 5.68234e-07)
(-7.58776e-07 -1.57982e-06 6.7499e-07)
(-9.34692e-07 -1.98858e-06 8.85004e-07)
(-1.39948e-06 -2.57372e-06 1.30221e-06)
(-2.33801e-06 -3.31264e-06 2.00213e-06)
(-3.56535e-06 -4.03108e-06 2.93121e-06)
(-4.26484e-06 -4.44371e-06 3.83113e-06)
(-3.71306e-06 -4.38356e-06 4.3053e-06)
(-1.2192e-06 -3.83177e-06 4.16598e-06)
(0 0 0)
(-8.52658e-08 -5.22235e-08 1.6281e-08)
(-1.83616e-07 -1.3859e-07 5.11092e-08)
(-3.00281e-07 -2.75244e-07 1.14084e-07)
(-4.31645e-07 -4.66591e-07 2.08954e-07)
(-5.68753e-07 -7.07414e-07 3.3187e-07)
(-6.97031e-07 -9.82269e-07 4.6774e-07)
(-7.99547e-07 -1.27194e-06 5.9518e-07)
(-8.72444e-07 -1.57297e-06 7.05844e-07)
(-9.51387e-07 -1.91809e-06 8.32594e-07)
(-1.14321e-06 -2.3769e-06 1.06459e-06)
(-1.63635e-06 -3.02675e-06 1.53767e-06)
(-2.63375e-06 -3.90779e-06 2.39071e-06)
(-3.92798e-06 -4.92309e-06 3.63047e-06)
(-4.64494e-06 -5.77477e-06 4.96145e-06)
(-4.07903e-06 -6.11044e-06 5.78721e-06)
(-1.68437e-06 -5.78691e-06 5.75042e-06)
(0 0 0)
(-1.00582e-07 -5.29144e-08 1.76215e-08)
(-2.16054e-07 -1.45959e-07 5.70752e-08)
(-3.52001e-07 -2.97399e-07 1.29517e-07)
(-5.03697e-07 -5.12001e-07 2.39086e-07)
(-6.61394e-07 -7.84568e-07 3.81835e-07)
(-8.1159e-07 -1.10037e-06 5.41968e-07)
(-9.39095e-07 -1.43889e-06 6.95456e-07)
(-1.03985e-06 -1.78999e-06 8.29939e-07)
(-1.1474e-06 -2.17585e-06 9.73227e-07)
(-1.36549e-06 -2.6624e-06 1.21781e-06)
(-1.88035e-06 -3.35214e-06 1.72605e-06)
(-2.88433e-06 -4.35753e-06 2.70274e-06)
(-4.13893e-06 -5.67052e-06 4.23015e-06)
(-4.76756e-06 -6.99169e-06 6.00414e-06)
(-4.17173e-06 -7.77804e-06 7.23099e-06)
(-1.93773e-06 -7.72812e-06 7.32129e-06)
(0 0 0)
(-1.16791e-07 -5.2739e-08 1.91824e-08)
(-2.49693e-07 -1.50417e-07 6.31806e-08)
(-4.04493e-07 -3.12862e-07 1.44352e-07)
(-5.7533e-07 -5.45092e-07 2.6746e-07)
(-7.5183e-07 -8.41824e-07 4.2828e-07)
(-9.2151e-07 -1.18829e-06 6.10485e-07)
(-1.07213e-06 -1.56277e-06 7.88565e-07)
(-1.20269e-06 -1.94991e-06 9.46369e-07)
(-1.34758e-06 -2.36423e-06 1.10743e-06)
(-1.60795e-06 -2.87198e-06 1.36324e-06)
(-2.15273e-06 -3.60006e-06 1.89639e-06)
(-3.12635e-06 -4.7184e-06 2.96571e-06)
(-4.21307e-06 -6.28833e-06 4.74e-06)
(-4.55283e-06 -8.04357e-06 6.97265e-06)
(-3.76836e-06 -9.34754e-06 8.71729e-06)
(-1.70724e-06 -9.74011e-06 9.06704e-06)
(0 0 0)
(-1.33762e-07 -5.218e-08 2.1075e-08)
(-2.84234e-07 -1.52706e-07 6.96566e-08)
(-4.57354e-07 -3.22648e-07 1.59172e-07)
(-6.46088e-07 -5.67188e-07 2.94971e-07)
(-8.39184e-07 -8.80743e-07 4.72751e-07)
(-1.02537e-06 -1.24832e-06 6.7552e-07)
(-1.19582e-06 -1.64688e-06 8.77321e-07)
(-1.354e-06 -2.05814e-06 1.0611e-06)
(-1.53869e-06 -2.49505e-06 1.24644e-06)
(-1.84744e-06 -3.02812e-06 1.52232e-06)
(-2.42101e-06 -3.79976e-06 2.0778e-06)
(-3.32552e-06 -4.99752e-06 3.19835e-06)
(-4.13428e-06 -6.70549e-06 5.13928e-06)
(-4.02722e-06 -8.68937e-06 7.76742e-06)
(-2.8105e-06 -1.03635e-05 1.01398e-05)
(-4.85718e-07 -1.21105e-05 1.13898e-05)
(0 0 0)
(-1.51199e-07 -5.18241e-08 2.35997e-08)
(-3.19275e-07 -1.54101e-07 7.69737e-08)
(-5.09884e-07 -3.28452e-07 1.74968e-07)
(-7.14816e-07 -5.80429e-07 3.23057e-07)
(-9.21997e-07 -9.04489e-07 5.16586e-07)
(-1.12086e-06 -1.28465e-06 7.38682e-07)
(-1.3055e-06 -1.6963e-06 9.64434e-07)
(-1.4845e-06 -2.12102e-06 1.17791e-06)
(-1.69975e-06 -2.5749e-06 1.39894e-06)
(-2.04163e-06 -3.13497e-06 1.71064e-06)
(-2.62126e-06 -3.9433e-06 2.28616e-06)
(-3.42761e-06 -5.15688e-06 3.40047e-06)
(-4.01327e-06 -6.8057e-06 5.31798e-06)
(-3.62672e-06 -8.65915e-06 7.99904e-06)
(-2.20241e-06 -1.01944e-05 1.06318e-05)
(1.0091e-06 -1.21287e-05 1.36223e-05)
(0 0 0)
(0 0 0)
(0 0 0)
(0 0 0)
(0 0 0)
(0 0 0)
(0 0 0)
(0 0 0)
(0 0 0)
(0 0 0)
(0 0 0)
(0 0 0)
(0 0 0)
(0 0 0)
(0 0 0)
(0 0 0)
(-2.67933e-06 -3.13343e-08 6.40649e-07)
(0 0 0)
(-2.91542e-08 -2.11424e-08 6.48328e-09)
(-6.34258e-08 -5.36685e-08 1.86522e-08)
(-1.06291e-07 -1.0465e-07 4.02778e-08)
(-1.57973e-07 -1.76916e-07 7.33257e-08)
(-2.14531e-07 -2.66955e-07 1.15982e-07)
(-2.64912e-07 -3.6133e-07 1.60515e-07)
(-2.97518e-07 -4.46527e-07 1.97834e-07)
(-3.13879e-07 -5.26626e-07 2.28046e-07)
(-3.42964e-07 -6.34924e-07 2.71983e-07)
(-4.46285e-07 -8.21705e-07 3.7014e-07)
(-7.02469e-07 -1.10815e-06 5.56358e-07)
(-1.18055e-06 -1.43426e-06 8.23428e-07)
(-1.89434e-06 -1.65568e-06 1.1208e-06)
(-2.82729e-06 -1.6561e-06 1.42446e-06)
(-3.85835e-06 -1.43737e-06 1.70004e-06)
(-5.38123e-06 -1.08191e-06 2.34455e-06)
(0 0 0)
(-4.92324e-08 -3.02432e-08 9.28271e-09)
(-1.08866e-07 -8.33076e-08 2.96719e-08)
(-1.84371e-07 -1.71266e-07 6.7689e-08)
(-2.75453e-07 -2.98659e-07 1.26589e-07)
(-3.749e-07 -4.5957e-07 2.03313e-07)
(-4.66126e-07 -6.34505e-07 2.85623e-07)
(-5.30306e-07 -8.019e-07 3.57706e-07)
(-5.66954e-07 -9.65337e-07 4.17727e-07)
(-6.17971e-07 -1.17305e-06 4.97827e-07)
(-7.79786e-07 -1.49952e-06 6.63412e-07)
(-1.18842e-06 -1.98319e-06 9.79332e-07)
(-1.96765e-06 -2.55475e-06 1.46316e-06)
(-3.07443e-06 -3.02286e-06 2.06553e-06)
(-4.24803e-06 -3.21632e-06 2.73579e-06)
(-5.01922e-06 -3.12175e-06 3.33325e-06)
(-5.62464e-06 -3.06468e-06 4.33042e-06)
(0 0 0)
(-6.32741e-08 -3.04311e-08 9.66454e-09)
(-1.41772e-07 -9.42891e-08 3.53314e-08)
(-2.41915e-07 -2.07092e-07 8.55218e-08)
(-3.61994e-07 -3.73949e-07 1.64192e-07)
(-4.93197e-07 -5.88447e-07 2.67847e-07)
(-6.17164e-07 -8.29455e-07 3.8177e-07)
(-7.11951e-07 -1.0716e-06 4.85328e-07)
(-7.72937e-07 -1.31366e-06 5.72736e-07)
(-8.40498e-07 -1.60078e-06 6.77571e-07)
(-1.02289e-06 -2.01323e-06 8.7865e-07)
(-1.49239e-06 -2.61209e-06 1.27419e-06)
(-2.41876e-06 -3.37063e-06 1.93561e-06)
(-3.71899e-06 -4.13316e-06 2.85867e-06)
(-4.96753e-06 -4.69207e-06 3.96405e-06)
(-5.57946e-06 -4.90574e-06 4.93865e-06)
(-6.10456e-06 -4.96383e-06 6.07391e-06)
(0 0 0)
(-7.62272e-08 -2.75121e-08 9.63335e-09)
(-1.7142e-07 -9.74185e-08 3.94935e-08)
(-2.92468e-07 -2.27889e-07 9.97085e-08)
(-4.36129e-07 -4.24158e-07 1.94649e-07)
(-5.92387e-07 -6.79504e-07 3.20459e-07)
(-7.43522e-07 -9.73417e-07 4.61064e-07)
(-8.67772e-07 -1.27883e-06 5.92473e-07)
(-9.56884e-07 -1.58675e-06 7.03847e-07)
(-1.04502e-06 -1.93176e-06 8.25493e-07)
(-1.23978e-06 -2.39181e-06 1.043e-06)
(-1.72962e-06 -3.05385e-06 1.48662e-06)
(-2.70914e-06 -3.96238e-06 2.29511e-06)
(-4.08027e-06 -5.04149e-06 3.53318e-06)
(-5.36082e-06 -6.04609e-06 5.08713e-06)
(-5.97554e-06 -6.62312e-06 6.4235e-06)
(-6.56224e-06 -6.81415e-06 7.66551e-06)
(0 0 0)
(-9.04129e-08 -2.4331e-08 1.00086e-08)
(-2.02403e-07 -9.82071e-08 4.38325e-08)
(-3.43162e-07 -2.41955e-07 1.13008e-07)
(-5.07945e-07 -4.60822e-07 2.22177e-07)
(-6.85928e-07 -7.47966e-07 3.67266e-07)
(-8.60708e-07 -1.08314e-06 5.31069e-07)
(-1.01259e-06 -1.43787e-06 6.87133e-07)
(-1.1331e-06 -1.79637e-06 8.20229e-07)
(-1.25262e-06 -2.18169e-06 9.55457e-07)
(-1.47412e-06 -2.6681e-06 1.1807e-06)
(-1.98376e-06 -3.37095e-06 1.65489e-06)
(-2.96734e-06 -4.41391e-06 2.5867e-06)
(-4.29672e-06 -5.81007e-06 4.1218e-06)
(-5.48558e-06 -7.2806e-06 6.13013e-06)
(-6.07646e-06 -8.25351e-06 7.85605e-06)
(-6.78113e-06 -8.59795e-06 9.23033e-06)
(0 0 0)
(-1.06186e-07 -2.15712e-08 1.08469e-08)
(-2.35646e-07 -9.81887e-08 4.86108e-08)
(-3.95639e-07 -2.51725e-07 1.2606e-07)
(-5.80123e-07 -4.87625e-07 2.48263e-07)
(-7.77501e-07 -7.98508e-07 4.10733e-07)
(-9.72882e-07 -1.16423e-06 5.95519e-07)
(-1.15012e-06 -1.55508e-06 7.74573e-07)
(-1.30389e-06 -1.94968e-06 9.2905e-07)
(-1.46575e-06 -2.36361e-06 1.07906e-06)
(-1.73563e-06 -2.8722e-06 1.31313e-06)
(-2.28269e-06 -3.61831e-06 1.81098e-06)
(-3.24157e-06 -4.78933e-06 2.84152e-06)
(-4.39096e-06 -6.46298e-06 4.6377e-06)
(-5.23545e-06 -8.35667e-06 7.09737e-06)
(-5.5575e-06 -9.79367e-06 9.28585e-06)
(-6.43565e-06 -1.032e-05 1.08974e-05)
(0 0 0)
(-1.23313e-07 -1.96805e-08 1.22082e-08)
(-2.70682e-07 -9.80558e-08 5.40435e-08)
(-4.49382e-07 -2.58235e-07 1.39492e-07)
(-6.52063e-07 -5.05779e-07 2.73956e-07)
(-8.664e-07 -8.33114e-07 4.52647e-07)
(-1.07889e-06 -1.21942e-06 6.56921e-07)
(-1.27745e-06 -1.63377e-06 8.58119e-07)
(-1.46241e-06 -2.05252e-06 1.0362e-06)
(-1.67043e-06 -2.48996e-06 1.20886e-06)
(-2.00004e-06 -3.02741e-06 1.46213e-06)
(-2.59364e-06 -3.82621e-06 1.98354e-06)
(-3.4981e-06 -5.09396e-06 3.07628e-06)
(-4.34428e-06 -6.91499e-06 5.04528e-06)
(-4.57153e-06 -9.0021e-06 7.86495e-06)
(-4.116e-06 -1.07096e-05 1.05755e-05)
(-4.52553e-06 -1.22232e-05 1.25919e-05)
(0 0 0)
(-1.41349e-07 -1.91719e-08 1.43401e-08)
(-3.06842e-07 -9.8999e-08 6.07384e-08)
(-5.03455e-07 -2.63209e-07 1.54306e-07)
(-7.22557e-07 -5.17774e-07 3.0073e-07)
(-9.50888e-07 -8.54795e-07 4.9463e-07)
(-1.17605e-06 -1.25268e-06 7.16981e-07)
(-1.38968e-06 -1.67932e-06 9.39987e-07)
(-1.59803e-06 -2.11118e-06 1.14602e-06)
(-1.84301e-06 -2.56705e-06 1.35297e-06)
(-2.21909e-06 -3.13642e-06 1.64148e-06)
(-2.83916e-06 -3.98103e-06 2.18805e-06)
(-3.67026e-06 -5.27444e-06 3.27782e-06)
(-4.26131e-06 -7.03374e-06 5.21166e-06)
(-3.99326e-06 -8.93695e-06 8.01032e-06)
(-2.89787e-06 -1.03493e-05 1.08391e-05)
(-8.56216e-07 -1.08951e-05 1.36823e-05)
(0 0 0)
(0 0 0)
(0 0 0)
(0 0 0)
(0 0 0)
(0 0 0)
(0 0 0)
(0 0 0)
(0 0 0)
(0 0 0)
(0 0 0)
(0 0 0)
(0 0 0)
(0 0 0)
(0 0 0)
(0 0 0)
(-3.87596e-06 -7.4713e-07 3.84941e-07)
(0 0 0)
(-2.64736e-08 -1.43302e-08 4.12965e-09)
(-5.94932e-08 -4.20171e-08 1.41318e-08)
(-1.03574e-07 -9.13231e-08 3.39543e-08)
(-1.59466e-07 -1.65776e-07 6.56843e-08)
(-2.22101e-07 -2.60605e-07 1.07228e-07)
(-2.78433e-07 -3.60112e-07 1.50873e-07)
(-3.15409e-07 -4.48731e-07 1.88047e-07)
(-3.35866e-07 -5.30977e-07 2.19569e-07)
(-3.73189e-07 -6.42569e-07 2.65555e-07)
(-4.92525e-07 -8.34361e-07 3.61445e-07)
(-7.69519e-07 -1.12456e-06 5.31281e-07)
(-1.26747e-06 -1.45175e-06 7.59502e-07)
(-2.10992e-06 -1.7205e-06 1.02667e-06)
(-3.57144e-06 -1.93221e-06 1.37165e-06)
(-5.63665e-06 -2.15068e-06 1.74201e-06)
(-8.07946e-06 -2.376e-06 1.67939e-06)
(0 0 0)
(-4.45069e-08 -1.77282e-08 5.34417e-09)
(-1.02221e-07 -6.21702e-08 2.22005e-08)
(-1.80252e-07 -1.47291e-07 5.73168e-08)
(-2.78865e-07 -2.78454e-07 1.14016e-07)
(-3.89028e-07 -4.47635e-07 1.88781e-07)
(-4.90604e-07 -6.3102e-07 2.69059e-07)
(-5.62607e-07 -8.03904e-07 3.39962e-07)
(-6.06818e-07 -9.70885e-07 4.01273e-07)
(-6.71329e-07 -1.18353e-06 4.83722e-07)
(-8.58074e-07 -1.51793e-06 6.44701e-07)
(-1.30014e-06 -2.00947e-06 9.34061e-07)
(-2.11379e-06 -2.58868e-06 1.35619e-06)
(-3.42305e-06 -3.12893e-06 1.90927e-06)
(-5.31283e-06 -3.57607e-06 2.61722e-06)
(-7.29188e-06 -3.90306e-06 3.2833e-06)
(-8.67296e-06 -4.15388e-06 3.47005e-06)
(0 0 0)
(-5.70375e-08 -1.32344e-08 4.72989e-09)
(-1.33159e-07 -6.5297e-08 2.60072e-08)
(-2.36661e-07 -1.73914e-07 7.25062e-08)
(-3.66326e-07 -3.44927e-07 1.48204e-07)
(-5.11146e-07 -5.69317e-07 2.48864e-07)
(-6.48727e-07 -8.20656e-07 3.59219e-07)
(-7.54598e-07 -1.06969e-06 4.59817e-07)
(-8.26082e-07 -1.31579e-06 5.46885e-07)
(-9.09901e-07 -1.6082e-06 6.52821e-07)
(-1.12061e-06 -2.03063e-06 8.47754e-07)
(-1.62949e-06 -2.64374e-06 1.21262e-06)
(-2.59823e-06 -3.42268e-06 1.8024e-06)
(-4.12809e-06 -4.27035e-06 2.66343e-06)
(-6.13881e-06 -5.06861e-06 3.78851e-06)
(-7.9638e-06 -5.63654e-06 4.80312e-06)
(-9.18989e-06 -5.94671e-06 5.1487e-06)
(0 0 0)
(-6.8873e-08 -6.47495e-09 3.98247e-09)
(-1.613e-07 -6.1838e-08 2.87829e-08)
(-2.85936e-07 -1.8631e-07 8.45147e-08)
(-4.40023e-07 -3.85946e-07 1.75502e-07)
(-6.1156e-07 -6.51451e-07 2.9703e-07)
(-7.78912e-07 -9.56675e-07 4.32282e-07)
(-9.17489e-07 -1.26984e-06 5.58443e-07)
(-1.02026e-06 -1.58208e-06 6.66958e-07)
(-1.12687e-06 -1.93263e-06 7.87605e-07)
(-1.351e-06 -2.40513e-06 9.97897e-07)
(-1.8812e-06 -3.09053e-06 1.41102e-06)
(-2.90545e-06 -4.0373e-06 2.14683e-06)
(-4.51215e-06 -5.21105e-06 3.31498e-06)
(-6.55588e-06 -6.41911e-06 4.86549e-06)
(-8.36514e-06 -7.27663e-06 6.21519e-06)
(-9.62433e-06 -7.69238e-06 6.68386e-06)
(0 0 0)
(-8.24043e-08 -3.91422e-10 3.79507e-09)
(-1.91328e-07 -5.74234e-08 3.19465e-08)
(-3.35596e-07 -1.9335e-07 9.58298e-08)
(-5.11022e-07 -4.14328e-07 1.99966e-07)
(-7.0523e-07 -7.11168e-07 3.3933e-07)
(-8.98323e-07 -1.05796e-06 4.95898e-07)
(-1.06784e-06 -1.42109e-06 6.44275e-07)
(-1.20575e-06 -1.78425e-06 7.7169e-07)
(-1.34665e-06 -2.17584e-06 9.03558e-07)
(-1.59892e-06 -2.6789e-06 1.12148e-06)
(-2.14879e-06 -3.41754e-06 1.56887e-06)
(-3.17603e-06 -4.51975e-06 2.43298e-06)
(-4.73279e-06 -6.01364e-06 3.89302e-06)
(-6.66121e-06 -7.62445e-06 5.85919e-06)
(-8.4177e-06 -8.76395e-06 7.54101e-06)
(-9.78576e-06 -9.27453e-06 8.13947e-06)
(0 0 0)
(-9.8078e-08 4.17215e-09 4.23658e-09)
(-2.24392e-07 -5.3983e-08 3.58215e-08)
(-3.87818e-07 -1.98263e-07 1.07259e-07)
(-5.82981e-07 -4.3511e-07 2.23378e-07)
(-7.97168e-07 -7.5507e-07 3.78724e-07)
(-1.01268e-06 -1.13243e-06 5.54452e-07)
(-1.21072e-06 -1.5319e-06 7.23409e-07)
(-1.38602e-06 -1.93158e-06 8.6943e-07)
(-1.57371e-06 -2.35358e-06 1.01412e-06)
(-1.87802e-06 -2.88486e-06 1.24146e-06)
(-2.46817e-06 -3.68163e-06 1.71897e-06)
(-3.46649e-06 -4.93213e-06 2.69228e-06)
(-4.81708e-06 -6.69593e-06 4.40717e-06)
(-6.33421e-06 -8.63263e-06 6.75014e-06)
(-7.74486e-06 -1.00662e-05 8.7613e-06)
(-9.28374e-06 -1.06106e-05 9.53957e-06)
(0 0 0)
(-1.15629e-07 6.75514e-09 5.39493e-09)
(-2.60151e-07 -5.2456e-08 4.07412e-08)
(-4.42349e-07 -2.02575e-07 1.19601e-07)
(-6.5573e-07 -4.503e-07 2.47097e-07)
(-8.87304e-07 -7.8612e-07 4.17453e-07)
(-1.12128e-06 -1.18368e-06 6.10984e-07)
(-1.34337e-06 -1.60655e-06 7.99788e-07)
(-1.55415e-06 -2.0309e-06 9.66895e-07)
(-1.79357e-06 -2.47863e-06 1.13194e-06)
(-2.1645e-06 -3.04551e-06 1.37876e-06)
(-2.80719e-06 -3.90817e-06 1.88729e-06)
(-3.74553e-06 -5.26936e-06 2.93509e-06)
(-4.74558e-06 -7.15632e-06 4.81171e-06)
(-5.48827e-06 -9.17307e-06 7.40801e-06)
(-5.91577e-06 -1.06495e-05 9.71586e-06)
(-6.9407e-06 -1.19684e-05 1.06844e-05)
(0 0 0)
(-1.34576e-07 6.80303e-09 7.51393e-09)
(-2.97789e-07 -5.4035e-08 4.7265e-08)
(-4.98152e-07 -2.08102e-07 1.33898e-07)
(-7.27997e-07 -4.6251e-07 2.72738e-07)
(-9.737e-07 -8.07427e-07 4.57277e-07)
(-1.22108e-06 -1.21578e-06 6.67278e-07)
(-1.46024e-06 -1.65024e-06 8.75718e-07)
(-1.69799e-06 -2.08775e-06 1.06783e-06)
(-1.97993e-06 -2.55592e-06 1.26417e-06)
(-2.40537e-06 -3.15961e-06 1.54533e-06)
(-3.08183e-06 -4.07446e-06 2.08187e-06)
(-3.9466e-06 -5.46497e-06 3.13774e-06)
(-4.6102e-06 -7.27748e-06 4.97734e-06)
(-4.63308e-06 -9.04626e-06 7.5284e-06)
(-4.09202e-06 -1.00919e-05 9.90182e-06)
(-2.58382e-06 -1.00137e-05 1.13161e-05)
(0 0 0)
(0 0 0)
(0 0 0)
(0 0 0)
(0 0 0)
(0 0 0)
(0 0 0)
(0 0 0)
(0 0 0)
(0 0 0)
(0 0 0)
(0 0 0)
(0 0 0)
(0 0 0)
(0 0 0)
(0 0 0)
(-4.19866e-06 -1.0301e-06 3.67008e-07)
(0 0 0)
(-2.43541e-08 -8.50741e-09 2.12323e-09)
(-5.65779e-08 -3.22197e-08 1.00734e-08)
(-1.01975e-07 -8.03641e-08 2.77966e-08)
(-1.61549e-07 -1.56873e-07 5.72706e-08)
(-2.28839e-07 -2.55477e-07 9.60696e-08)
(-2.88458e-07 -3.57709e-07 1.3656e-07)
(-3.26044e-07 -4.46148e-07 1.71002e-07)
(-3.47015e-07 -5.27029e-07 2.01192e-07)
(-3.90131e-07 -6.39248e-07 2.45849e-07)
(-5.25195e-07 -8.34825e-07 3.35094e-07)
(-8.32262e-07 -1.13191e-06 4.87316e-07)
(-1.39769e-06 -1.47854e-06 6.90299e-07)
(-2.40744e-06 -1.81329e-06 9.33227e-07)
(-4.16595e-06 -2.18001e-06 1.23443e-06)
(-6.55331e-06 -2.61868e-06 1.50667e-06)
(-8.9362e-06 -2.95854e-06 1.52018e-06)
(0 0 0)
(-4.07886e-08 -7.05584e-09 2.06641e-09)
(-9.71601e-08 -4.41772e-08 1.54938e-08)
(-1.77536e-07 -1.26935e-07 4.69623e-08)
(-2.82288e-07 -2.61047e-07 9.95352e-08)
(-4.0016e-07 -4.35999e-07 1.69056e-07)
(-5.07165e-07 -6.23281e-07 2.4306e-07)
(-5.80824e-07 -7.95859e-07 3.08342e-07)
(-6.26953e-07 -9.61017e-07 3.66384e-07)
(-7.01428e-07 -1.17475e-06 4.45598e-07)
(-9.13565e-07 -1.51549e-06 5.95065e-07)
(-1.40394e-06 -2.01953e-06 8.54808e-07)
(-2.32646e-06 -2.6318e-06 1.23189e-06)
(-3.88975e-06 -3.26878e-06 1.73321e-06)
(-6.19066e-06 -3.91107e-06 2.35219e-06)
(-8.53308e-06 -4.4561e-06 2.86245e-06)
(-9.79575e-06 -4.75856e-06 3.07809e-06)
(0 0 0)
(-5.1955e-08 1.63885e-09 6.86761e-10)
(-1.26155e-07 -4.0052e-08 1.75984e-08)
(-2.32243e-07 -1.44449e-07 5.91961e-08)
(-3.69177e-07 -3.179e-07 1.29067e-07)
(-5.23376e-07 -5.48361e-07 2.2214e-07)
(-6.6829e-07 -8.04175e-07 3.23307e-07)
(-7.77894e-07 -1.05334e-06 4.15277e-07)
(-8.53474e-07 -1.29767e-06 4.96458e-07)
(-9.49962e-07 -1.59167e-06 5.97151e-07)
(-1.19022e-06 -2.02275e-06 7.77972e-07)
(-1.75608e-06 -2.6546e-06 1.10757e-06)
(-2.85288e-06 -3.47793e-06 1.63973e-06)
(-4.67133e-06 -4.43311e-06 2.42132e-06)
(-7.12716e-06 -5.41942e-06 3.40757e-06)
(-9.30858e-06 -6.17245e-06 4.21464e-06)
(-1.03685e-05 -6.53956e-06 4.56243e-06)
(0 0 0)
(-6.264e-08 1.198e-08 -6.12608e-10)
(-1.52373e-07 -3.00332e-08 1.90145e-08)
(-2.7924e-07 -1.47967e-07 6.8644e-08)
(-4.40784e-07 -3.48517e-07 1.52087e-07)
(-6.22758e-07 -6.19636e-07 2.63838e-07)
(-7.99522e-07 -9.2964e-07 3.87136e-07)
(-9.44772e-07 -1.24357e-06 5.01528e-07)
(-1.0549e-06 -1.55479e-06 6.01264e-07)
(-1.17666e-06 -1.90798e-06 7.1461e-07)
(-1.43207e-06 -2.3925e-06 9.0994e-07)
(-2.02216e-06 -3.10507e-06 1.28693e-06)
(-3.18054e-06 -4.10793e-06 1.95855e-06)
(-5.08391e-06 -5.38847e-06 3.0206e-06)
(-7.57198e-06 -6.75027e-06 4.37719e-06)
(-9.7195e-06 -7.74411e-06 5.46694e-06)
(-1.0791e-05 -8.20383e-06 5.92391e-06)
(0 0 0)
(-7.53155e-08 2.0926e-08 -1.26785e-09)
(-1.80846e-07 -2.02221e-08 2.09824e-08)
(-3.26848e-07 -1.47419e-07 7.75795e-08)
(-5.09667e-07 -3.67688e-07 1.7253e-07)
(-7.15086e-07 -6.69228e-07 2.99944e-07)
(-9.19814e-07 -1.02093e-06 4.4194e-07)
(-1.09962e-06 -1.38563e-06 5.75517e-07)
(-1.24885e-06 -1.74866e-06 6.91175e-07)
(-1.40817e-06 -2.14487e-06 8.13783e-07)
(-1.69359e-06 -2.6652e-06 1.01702e-06)
(-2.30429e-06 -3.4418e-06 1.43085e-06)
(-3.46452e-06 -4.61103e-06 2.22767e-06)
(-5.30779e-06 -6.19808e-06 3.55239e-06)
(-7.65721e-06 -7.89853e-06 5.25406e-06)
(-9.73075e-06 -9.09241e-06 6.60134e-06)
(-1.09073e-05 -9.59707e-06 7.15741e-06)
(0 0 0)
(-9.05799e-08 2.73878e-08 -1.17325e-09)
(-2.13132e-07 -1.31278e-08 2.38789e-08)
(-3.77965e-07 -1.47062e-07 8.69473e-08)
(-5.80483e-07 -3.81831e-07 1.92336e-07)
(-8.06736e-07 -7.05774e-07 3.33798e-07)
(-1.03606e-06 -1.08789e-06 4.92501e-07)
(-1.248e-06 -1.48929e-06 6.43751e-07)
(-1.43913e-06 -1.89001e-06 7.75073e-07)
(-1.64953e-06 -2.31932e-06 9.0837e-07)
(-1.99061e-06 -2.87434e-06 1.12177e-06)
(-2.64287e-06 -3.72057e-06 1.56966e-06)
(-3.76603e-06 -5.04505e-06 2.47304e-06)
(-5.37081e-06 -6.87397e-06 4.01737e-06)
(-7.2574e-06 -8.81361e-06 6.00449e-06)
(-8.95374e-06 -1.0194e-05 7.56889e-06)
(-1.0309e-05 -1.06469e-05 8.2205e-06)
(0 0 0)
(-1.0825e-07 3.07941e-08 -2.17078e-10)
(-2.49024e-07 -9.94855e-09 2.80853e-08)
(-4.3264e-07 -1.48906e-07 9.76966e-08)
(-6.53564e-07 -3.93798e-07 2.13188e-07)
(-8.97902e-07 -7.32803e-07 3.67901e-07)
(-1.14757e-06 -1.13471e-06 5.42212e-07)
(-1.38687e-06 -1.55968e-06 7.10697e-07)
(-1.61786e-06 -1.98595e-06 8.59889e-07)
(-1.88516e-06 -2.44376e-06 1.01077e-06)
(-2.29805e-06 -3.04055e-06 1.24341e-06)
(-3.00433e-06 -3.96156e-06 1.72405e-06)
(-4.0508e-06 -5.39639e-06 2.69866e-06)
(-5.24708e-06 -7.31523e-06 4.373e-06)
(-6.28083e-06 -9.24983e-06 6.52865e-06)
(-6.94997e-06 -1.05688e-05 8.255e-06)
(-7.81001e-06 -1.17578e-05 8.96533e-06)
(0 0 0)
(-1.27813e-07 3.05457e-08 1.80332e-09)
(-2.87729e-07 -1.19829e-08 3.42017e-08)
(-4.89802e-07 -1.54868e-07 1.10946e-07)
(-7.27399e-07 -4.0604e-07 2.36701e-07)
(-9.86371e-07 -7.53498e-07 4.04175e-07)
(-1.25072e-06 -1.16543e-06 5.93101e-07)
(-1.50955e-06 -1.60156e-06 7.78618e-07)
(-1.77133e-06 -2.04163e-06 9.49559e-07)
(-2.08608e-06 -2.52202e-06 1.12795e-06)
(-2.55868e-06 -3.15927e-06 1.39124e-06)
(-3.29983e-06 -4.13565e-06 1.89838e-06)
(-4.24975e-06 -5.5961e-06 2.88117e-06)
(-5.04212e-06 -7.41827e-06 4.52415e-06)
(-5.26447e-06 -9.06097e-06 6.64713e-06)
(-4.91682e-06 -9.89761e-06 8.42553e-06)
(-3.33937e-06 -9.73003e-06 9.32416e-06)
(0 0 0)
(0 0 0)
(0 0 0)
(0 0 0)
(0 0 0)
(0 0 0)
(0 0 0)
(0 0 0)
(0 0 0)
(0 0 0)
(0 0 0)
(0 0 0)
(0 0 0)
(0 0 0)
(0 0 0)
(0 0 0)
(-4.29174e-06 -1.12303e-06 3.29613e-07)
(0 0 0)
(-2.33934e-08 -4.54918e-09 6.82459e-10)
(-5.53412e-08 -2.53868e-08 6.74914e-09)
(-1.01686e-07 -7.24294e-08 2.17927e-08)
(-1.63488e-07 -1.49844e-07 4.74505e-08)
(-2.33018e-07 -2.49994e-07 8.1045e-08)
(-2.92821e-07 -3.51979e-07 1.1553e-07)
(-3.28299e-07 -4.37698e-07 1.44315e-07)
(-3.48047e-07 -5.15618e-07 1.69954e-07)
(-3.9631e-07 -6.27678e-07 2.08871e-07)
(-5.47194e-07 -8.26993e-07 2.85855e-07)
(-8.82061e-07 -1.13123e-06 4.14963e-07)
(-1.49898e-06 -1.49481e-06 5.87149e-07)
(-2.60391e-06 -1.87737e-06 7.97512e-07)
(-4.4675e-06 -2.32887e-06 1.05395e-06)
(-6.895e-06 -2.84437e-06 1.2834e-06)
(-9.20404e-06 -3.18652e-06 1.31813e-06)
(0 0 0)
(-3.89194e-08 5.02223e-10 -2.37032e-10)
(-9.47175e-08 -3.11078e-08 9.98954e-09)
(-1.76567e-07 -1.11396e-07 3.66842e-08)
(-2.84856e-07 -2.46372e-07 8.22334e-08)
(-4.06257e-07 -4.23221e-07 1.42125e-07)
(-5.13641e-07 -6.09645e-07 2.04807e-07)
(-5.8448e-07 -7.77751e-07 2.59303e-07)
(-6.29821e-07 -9.38364e-07 3.08349e-07)
(-7.13934e-07 -1.15213e-06 3.77094e-07)
(-9.52842e-07 -1.49953e-06 5.05909e-07)
(-1.4916e-06 -2.01735e-06 7.26776e-07)
(-2.50351e-06 -2.66101e-06 1.04864e-06)
(-4.21935e-06 -3.37453e-06 1.48026e-06)
(-6.66653e-06 -4.13186e-06 2.00015e-06)
(-9.03354e-06 -4.7577e-06 2.41734e-06)
(-1.01819e-05 -5.05447e-06 2.61098e-06)
(0 0 0)
(-4.90249e-08 1.26583e-08 -2.12008e-09)
(-1.21966e-07 -2.07029e-08 1.06197e-08)
(-2.29367e-07 -1.20656e-07 4.57135e-08)
(-3.70267e-07 -2.93925e-07 1.05841e-07)
(-5.28754e-07 -5.2583e-07 1.856e-07)
(-6.74918e-07 -7.80395e-07 2.70888e-07)
(-7.82746e-07 -1.02448e-06 3.47375e-07)
(-8.59317e-07 -1.26381e-06 4.15515e-07)
(-9.68799e-07 -1.55839e-06 5.02183e-07)
(-1.24221e-06 -1.99888e-06 6.58033e-07)
(-1.86834e-06 -2.65129e-06 9.40145e-07)
(-3.07542e-06 -3.51786e-06 1.39726e-06)
(-5.07476e-06 -4.5625e-06 2.06866e-06)
(-7.68867e-06 -5.66413e-06 2.89078e-06)
(-9.8777e-06 -6.48702e-06 3.54111e-06)
(-1.08e-05 -6.8561e-06 3.83115e-06)
(0 0 0)
(-5.85039e-08 2.6309e-08 -3.84371e-09)
(-1.46007e-07 -4.49611e-09 1.07393e-08)
(-2.73579e-07 -1.15661e-07 5.22438e-08)
(-4.39035e-07 -3.14462e-07 1.23596e-07)
(-6.26001e-07 -5.86205e-07 2.18823e-07)
(-8.05657e-07 -8.94765e-07 3.22454e-07)
(-9.51757e-07 -1.20389e-06 4.17304e-07)
(-1.06595e-06 -1.5106e-06 5.00354e-07)
(-1.20378e-06 -1.8656e-06 5.97016e-07)
(-1.49571e-06 -2.3631e-06 7.65602e-07)
(-2.15165e-06 -3.10418e-06 1.09118e-06)
(-3.43006e-06 -4.16073e-06 1.67225e-06)
(-5.52255e-06 -5.5303e-06 2.58343e-06)
(-8.16352e-06 -6.98375e-06 3.70483e-06)
(-1.03029e-05 -8.01912e-06 4.57118e-06)
(-1.12265e-05 -8.4731e-06 4.94145e-06)
(0 0 0)
(-7.00774e-08 3.80945e-08 -4.91732e-09)
(-1.72487e-07 1.06168e-08 1.14266e-08)
(-3.18548e-07 -1.07705e-07 5.83859e-08)
(-5.05149e-07 -3.24602e-07 1.39141e-07)
(-7.16425e-07 -6.25875e-07 2.47382e-07)
(-9.26328e-07 -9.76095e-07 3.66513e-07)
(-1.11047e-06 -1.33646e-06 4.77114e-07)
(-1.26773e-06 -1.69596e-06 5.72625e-07)
(-1.44658e-06 -2.09615e-06 6.76188e-07)
(-1.77109e-06 -2.63443e-06 8.52252e-07)
(-2.45e-06 -3.4485e-06 1.21347e-06)
(-3.73161e-06 -4.67886e-06 1.90757e-06)
(-5.75756e-06 -6.34216e-06 3.03912e-06)
(-8.24296e-06 -8.08927e-06 4.42653e-06)
(-1.02955e-05 -9.27741e-06 5.4754e-06)
(-1.13235e-05 -9.75374e-06 5.91004e-06)
(0 0 0)
(-8.46164e-08 4.65543e-08 -5.21465e-09)
(-2.03414e-07 2.15014e-08 1.31087e-08)
(-3.67946e-07 -1.02064e-07 6.52503e-08)
(-5.74395e-07 -3.32307e-07 1.54628e-07)
(-8.07532e-07 -6.5517e-07 2.74707e-07)
(-1.04443e-06 -1.0355e-06 4.07902e-07)
(-1.26446e-06 -1.43299e-06 5.32957e-07)
(-1.46797e-06 -1.83137e-06 6.40697e-07)
(-1.70179e-06 -2.26733e-06 7.52432e-07)
(-2.08452e-06 -2.8458e-06 9.38237e-07)
(-2.80587e-06 -3.73796e-06 1.33266e-06)
(-4.04411e-06 -5.12683e-06 2.12241e-06)
(-5.80924e-06 -7.00771e-06 3.43066e-06)
(-7.80492e-06 -8.9395e-06 5.02125e-06)
(-9.47197e-06 -1.02661e-05 6.20565e-06)
(-1.06866e-05 -1.06687e-05 6.68622e-06)
(0 0 0)
(-1.02016e-07 5.10196e-08 -4.60807e-09)
(-2.38906e-07 2.65644e-08 1.62885e-08)
(-4.2227e-07 -1.0135e-07 7.38744e-08)
(-6.47447e-07 -3.40958e-07 1.7187e-07)
(-8.99696e-07 -6.78137e-07 3.03346e-07)
(-1.15912e-06 -1.07781e-06 4.49874e-07)
(-1.40991e-06 -1.499e-06 5.89191e-07)
(-1.65738e-06 -1.92406e-06 7.11248e-07)
(-1.95197e-06 -2.3911e-06 8.37163e-07)
(-2.40935e-06 -3.01604e-06 1.03961e-06)
(-3.18358e-06 -3.98806e-06 1.46467e-06)
(-4.33045e-06 -5.48432e-06 2.31667e-06)
(-5.6515e-06 -7.4281e-06 3.72283e-06)
(-6.76539e-06 -9.31178e-06 5.42327e-06)
(-7.40653e-06 -1.05523e-05 6.69487e-06)
(-8.13862e-06 -1.17047e-05 7.19566e-06)
(0 0 0)
(-1.21888e-07 5.07237e-08 -2.87071e-09)
(-2.78236e-07 2.4397e-08 2.15703e-08)
(-4.80399e-07 -1.07442e-07 8.53581e-08)
(-7.22684e-07 -3.5299e-07 1.92404e-07)
(-9.90342e-07 -6.97822e-07 3.35138e-07)
(-1.26605e-06 -1.10679e-06 4.94356e-07)
(-1.53903e-06 -1.53918e-06 6.4821e-07)
(-1.82061e-06 -1.97907e-06 7.88483e-07)
(-2.16596e-06 -2.47055e-06 9.36991e-07)
(-2.68534e-06 -3.13795e-06 1.1649e-06)
(-3.49108e-06 -4.16575e-06 1.61245e-06)
(-4.52201e-06 -5.68048e-06 2.47031e-06)
(-5.40259e-06 -7.50885e-06 3.85305e-06)
(-5.68708e-06 -9.08146e-06 5.53182e-06)
(-5.33617e-06 -9.83571e-06 6.83055e-06)
(-3.63745e-06 -9.67764e-06 7.42377e-06)
(0 0 0)
(0 0 0)
(0 0 0)
(0 0 0)
(0 0 0)
(0 0 0)
(0 0 0)
(0 0 0)
(0 0 0)
(0 0 0)
(0 0 0)
(0 0 0)
(0 0 0)
(0 0 0)
(0 0 0)
(0 0 0)
(-4.31003e-06 -1.14643e-06 2.58564e-07)
(0 0 0)
(-2.3394e-08 -2.31719e-09 1.93337e-11)
(-5.54574e-08 -2.13194e-08 4.53524e-09)
(-1.02272e-07 -6.72537e-08 1.64576e-08)
(-1.64748e-07 -1.44243e-07 3.68337e-08)
(-2.34105e-07 -2.4352e-07 6.31995e-08)
(-2.91827e-07 -3.42924e-07 8.95428e-08)
(-3.24106e-07 -4.24817e-07 1.11017e-07)
(-3.43158e-07 -5.00084e-07 1.30288e-07)
(-3.98186e-07 -6.12943e-07 1.61109e-07)
(-5.66971e-07 -8.1684e-07 2.22666e-07)
(-9.32139e-07 -1.12921e-06 3.25091e-07)
(-1.59116e-06 -1.50941e-06 4.63035e-07)
(-2.72825e-06 -1.92483e-06 6.3199e-07)
(-4.59565e-06 -2.41288e-06 8.31249e-07)
(-7.00157e-06 -2.94252e-06 1.00379e-06)
(-9.25732e-06 -3.26351e-06 1.02389e-06)
(0 0 0)
(-3.87815e-08 4.90153e-09 -1.16742e-09)
(-9.46227e-08 -2.30277e-08 6.38046e-09)
(-1.77093e-07 -1.00909e-07 2.73925e-08)
(-2.86378e-07 -2.34695e-07 6.33389e-08)
(-4.07495e-07 -4.0977e-07 1.10027e-07)
(-5.11621e-07 -5.91694e-07 1.57722e-07)
(-5.77788e-07 -7.53386e-07 1.98274e-07)
(-6.23035e-07 -9.09661e-07 2.35309e-07)
(-7.1979e-07 -1.12499e-06 2.89505e-07)
(-9.90809e-07 -1.48088e-06 3.925e-07)
(-1.58392e-06 -2.01439e-06 5.69036e-07)
(-2.67037e-06 -2.68931e-06 8.27222e-07)
(-4.43957e-06 -3.45698e-06 1.17193e-06)
(-6.88653e-06 -4.26605e-06 1.57238e-06)
(-9.20447e-06 -4.90583e-06 1.87942e-06)
(-1.02667e-05 -5.18278e-06 2.01241e-06)
(0 0 0)
(-4.83148e-08 1.94808e-08 -3.10362e-09)
(-1.20787e-07 -8.05265e-09 6.10664e-09)
(-2.2851e-07 -1.03899e-07 3.3421e-08)
(-3.70454e-07 -2.74913e-07 8.05845e-08)
(-5.28859e-07 -5.04225e-07 1.4234e-07)
(-6.71876e-07 -7.53189e-07 2.07098e-07)
(-7.75446e-07 -9.896e-07 2.6413e-07)
(-8.53538e-07 -1.22377e-06 3.15398e-07)
(-9.80102e-07 -1.52054e-06 3.83391e-07)
(-1.29488e-06 -1.97278e-06 5.08366e-07)
(-1.99146e-06 -2.64843e-06 7.35255e-07)
(-3.29514e-06 -3.55856e-06 1.10338e-06)
(-5.35999e-06 -4.66754e-06 1.63795e-06)
(-7.96532e-06 -5.82115e-06 2.26632e-06)
(-1.00855e-05 -6.6537e-06 2.73966e-06)
(-1.09076e-05 -7.00659e-06 2.93662e-06)
(0 0 0)
(-5.682e-08 3.57691e-08 -4.92131e-09)
(-1.43003e-07 1.31141e-08 5.30898e-09)
(-2.70315e-07 -9.20846e-08 3.72691e-08)
(-4.36737e-07 -2.87326e-07 9.28249e-08)
(-6.24172e-07 -5.55656e-07 1.66439e-07)
(-8.02053e-07 -8.58215e-07 2.45194e-07)
(-9.45935e-07 -1.15935e-06 3.16193e-07)
(-1.06427e-06 -1.46082e-06 3.78423e-07)
(-1.22253e-06 -1.8189e-06 4.53667e-07)
(-1.56119e-06 -2.33165e-06 5.89232e-07)
(-2.29692e-06 -3.10355e-06 8.52833e-07)
(-3.68275e-06 -4.21174e-06 1.32296e-06)
(-5.84352e-06 -5.64567e-06 2.04557e-06)