/*--------------------------------*- C++ -*----------------------------------*\
| =========                 |                                                 |
| \\      /  F ield         | OpenFOAM: The Open Source CFD Toolbox           |
|  \\    /   O peration     | Version:  v1912                                 |
|   \\  /    A nd           | Website:  www.openfoam.com                      |
|    \\/     M anipulation  |                                                 |
\*---------------------------------------------------------------------------*/
FoamFile
{
    version     2.0;
    format      ascii;
    class       surfaceScalarField;
    location    "0.79/fluid";
    object      phi;
}
// * * * * * * * * * * * * * * * * * * * * * * * * * * * * * * * * * * * * * //

dimensions      [0 3 -1 0 0 0 0];
oriented        oriented;


internalField   nonuniform List<scalar> 
41600
(
5.00832e-05
1.26116e-05
3.41055e-07
-5.35921e-07
3.99107e-05
1.05252e-05
5.86905e-07
-9.39567e-07
3.23429e-05
7.95129e-06
4.96519e-07
-8.80064e-07
2.7635e-05
5.04542e-06
1.40735e-07
-4.78248e-07
2.4825e-05
3.06211e-06
-4.30517e-07
1.78405e-07
2.31707e-05
1.81369e-06
-1.15767e-06
9.98292e-07
2.21077e-05
1.13524e-06
-2.03457e-06
1.96237e-06
2.12957e-05
7.99728e-07
-3.08763e-06
3.09988e-06
2.05369e-05
6.57089e-07
-4.37897e-06
4.48066e-06
1.97106e-05
5.95636e-07
-5.99334e-06
6.224e-06
1.87406e-05
5.48233e-07
-8.08012e-06
8.50193e-06
1.75038e-05
4.1332e-07
-1.07599e-05
1.15834e-05
1.5829e-05
1.75156e-07
-1.44062e-05
1.59058e-05
1.31877e-05
-5.12556e-07
-1.86413e-05
2.17952e-05
8.3438e-06
-1.06638e-06
-2.34885e-05
2.93987e-05
-3.50846e-06
-1.89611e-05
3.08134e-05
6.48046e-05
1.0582e-05
4.76785e-07
-7.51804e-07
6.35268e-05
1.23397e-05
8.68714e-07
-1.40537e-06
6.10422e-05
1.10794e-05
8.14067e-07
-1.45757e-06
5.83424e-05
8.37387e-06
3.26581e-07
-9.55208e-07
5.59865e-05
5.94528e-06
-5.70099e-07
4.27994e-08
5.40644e-05
4.12075e-06
-1.80633e-06
1.42141e-06
5.24458e-05
2.98683e-06
-3.3591e-06
3.12609e-06
5.09371e-05
2.38859e-06
-5.25872e-06
5.17855e-06
4.93527e-05
2.16195e-06
-7.59956e-06
7.67906e-06
4.75043e-05
2.1543e-06
-1.05296e-05
1.08194e-05
4.5206e-05
2.25351e-06
-1.42938e-05
1.48869e-05
4.21084e-05
2.32194e-06
-1.91373e-05
2.03262e-05
3.77597e-05
2.30366e-06
-2.55692e-05
2.77894e-05
3.08424e-05
1.75188e-06
-3.30603e-05
3.77131e-05
2.00303e-05
9.15517e-07
-4.05578e-05
4.9388e-05
-2.26811e-06
-3.1828e-05
5.06179e-05
6.63723e-05
7.00644e-06
5.25661e-07
-8.22373e-07
6.8794e-05
1.05128e-05
9.73577e-07
-1.56838e-06
6.98757e-05
1.07279e-05
9.44159e-07
-1.6743e-06
6.98256e-05
9.15584e-06
4.43871e-07
-1.17573e-06
6.91392e-05
7.2662e-06
-5.09892e-07
-1.24723e-07
6.81033e-05
5.64079e-06
-1.85544e-06
1.37139e-06
6.68519e-05
4.55358e-06
-3.57215e-06
3.25676e-06
6.53866e-05
3.99549e-06
-5.69291e-06
5.55134e-06
6.36275e-05
3.87968e-06
-8.31734e-06
8.35867e-06
6.14139e-05
4.09065e-06
-1.16102e-05
1.18874e-05
5.85187e-05
4.53278e-06
-1.5837e-05
1.6453e-05
5.44892e-05
5.07963e-06
-2.12926e-05
2.25644e-05
4.87086e-05
5.66319e-06
-2.85159e-05
3.0937e-05
3.95162e-05
5.78922e-06
-3.70471e-05
4.22022e-05
2.53088e-05
5.16364e-06
-4.55783e-05
5.55376e-05
1.15122e-06
-3.62052e-05
5.80946e-05
6.52913e-05
4.51463e-06
5.4797e-07
-8.47475e-07
6.84212e-05
7.99287e-06
1.02716e-06
-1.63713e-06
7.08895e-05
9.01338e-06
1.01675e-06
-1.77059e-06
7.231e-05
8.49492e-06
5.27025e-07
-1.28657e-06
7.28364e-05
7.40334e-06
-4.18679e-07
-2.44832e-07
7.2671e-05
6.31834e-06
-1.75859e-06
1.24641e-06
7.19877e-05
5.57801e-06
-3.47335e-06
3.13218e-06
7.08634e-05
5.2837e-06
-5.59751e-06
5.4336e-06
6.92819e-05
5.43786e-06
-8.23023e-06
8.25355e-06
6.71137e-05
5.99463e-06
-1.15406e-05
1.18049e-05
6.41231e-05
6.91157e-06
-1.57949e-05
1.64067e-05
5.98065e-05
8.10999e-06
-2.13137e-05
2.25999e-05
5.3446e-05
9.54322e-06
-2.86414e-05
3.11219e-05
4.32186e-05
1.06702e-05
-3.74167e-05
4.2763e-05
2.73006e-05
1.06528e-05
-4.63157e-05
5.67446e-05
5.31678e-06
-3.72143e-05
6.03493e-05
6.4352e-05
2.95945e-06
5.67535e-07
-8.64345e-07
6.71468e-05
5.80786e-06
1.07528e-06
-1.68507e-06
6.98303e-05
7.08477e-06
1.08936e-06
-1.84426e-06
7.18368e-05
7.24848e-06
6.22503e-07
-1.38251e-06
7.30523e-05
6.85099e-06
-2.9409e-07
-3.6913e-07
7.35323e-05
6.35076e-06
-1.59346e-06
1.08106e-06
7.33914e-05
6.06215e-06
-3.25263e-06
2.90939e-06
7.27045e-05
6.13936e-06
-5.30337e-06
5.1346e-06
7.14766e-05
6.65081e-06
-7.83885e-06
7.85379e-06
6.95976e-05
7.62274e-06
-1.10255e-05
1.12764e-05
6.68362e-05
9.08044e-06
-1.51177e-05
1.57102e-05
6.2655e-05
1.10312e-05
-2.04519e-05
2.17118e-05
5.62464e-05
1.35002e-05
-2.75559e-05
3.00075e-05
4.55926e-05
1.59788e-05
-3.62026e-05
4.15478e-05
2.85385e-05
1.72041e-05
-4.5085e-05
5.55877e-05
1.03846e-05
-3.6608e-05
6.00787e-05
6.38083e-05
1.94464e-06
5.87809e-07
-8.81261e-07
6.61703e-05
4.05155e-06
1.12615e-06
-1.73187e-06
6.87334e-05
5.27184e-06
1.17208e-06
-1.92227e-06
7.09384e-05
5.7977e-06
7.38609e-07
-1.49283e-06
7.25339e-05
5.91232e-06
-1.3649e-07
-5.20303e-07
7.34634e-05
5.92826e-06
-1.37958e-06
8.7253e-07
7.37719e-05
6.09466e-06
-2.96104e-06
2.62008e-06
7.35074e-05
6.57497e-06
-4.90627e-06
4.73509e-06
7.26752e-05
7.47689e-06
-7.29838e-06
7.30454e-06
7.11729e-05
8.89258e-06
-1.02964e-05
1.05289e-05
6.87726e-05
1.09201e-05
-1.41353e-05
1.46958e-05
6.49064e-05
1.36919e-05
-1.91622e-05
2.03677e-05
5.86883e-05
1.73511e-05
-2.58698e-05
2.82371e-05
4.78748e-05
2.15644e-05
-3.42026e-05
3.94305e-05
2.99147e-05
2.48168e-05
-4.28666e-05
5.3214e-05
1.69097e-05
-3.53404e-05
5.873e-05
6.35575e-05
1.17807e-06
6.11629e-07
-9.02594e-07
6.56446e-05
2.56653e-06
1.18471e-06
-1.78675e-06
6.8085e-05
3.57728e-06
1.26963e-06
-2.01544e-06
7.03725e-05
4.25962e-06
8.79084e-07
-1.62849e-06
7.22046e-05
4.73227e-06
5.62846e-08
-7.08384e-07
7.3466e-05
5.17096e-06
-1.11759e-06
6.13499e-07
7.41585e-05
5.74419e-06
-2.60329e-06
2.2613e-06
7.43162e-05
6.59615e-06
-4.41487e-06
4.23601e-06
7.39563e-05
7.84897e-06
-6.61797e-06
6.60574e-06
7.30085e-05
9.6459e-06
-9.35248e-06
9.54697e-06
7.12934e-05
1.21473e-05
-1.28132e-05
1.33011e-05
6.8278e-05
1.56458e-05
-1.73292e-05
1.83907e-05
6.30843e-05
2.04533e-05
-2.32952e-05
2.53867e-05
5.30724e-05
2.68825e-05
-3.08349e-05
3.55288e-05
3.49151e-05
3.36559e-05
-3.85566e-05
4.78748e-05
2.98866e-05
-3.23684e-05
5.43066e-05
6.34679e-05
6.38378e-07
-9.2823e-07
4.99979e-07
6.54504e-05
1.24959e-06
-1.84997e-06
1.18451e-06
6.78617e-05
1.37799e-06
-2.12197e-06
1.9099e-06
7.02311e-05
1.03647e-06
-1.78421e-06
2.63795e-06
7.22421e-05
2.72551e-07
-9.23713e-07
3.37247e-06
7.37568e-05
-8.25342e-07
3.20011e-07
4.16159e-06
7.47605e-05
-2.20733e-06
1.86036e-06
5.08743e-06
7.52866e-05
-3.87432e-06
3.68406e-06
6.26028e-06
7.53682e-05
-5.87244e-06
5.83818e-06
7.80171e-06
7.49667e-05
-8.31882e-06
8.47116e-06
9.89506e-06
7.39524e-05
-1.13652e-05
1.17756e-05
1.2751e-05
7.18447e-05
-1.53144e-05
1.62238e-05
1.68441e-05
6.78473e-05
-2.04593e-05
2.22662e-05
2.26438e-05
5.90767e-05
-2.71246e-05
3.12666e-05
3.1511e-05
4.19456e-05
-3.39155e-05
4.22041e-05
4.24985e-05
-2.99669e-05
5.06857e-05
5.11134e-05
5.00183e-05
1.26176e-05
2.0517e-07
3.97224e-05
1.05433e-05
3.39437e-07
3.20188e-05
7.97273e-06
2.27404e-07
2.71846e-05
5.06441e-06
-8.94393e-08
2.42568e-05
3.08037e-06
-5.83103e-07
2.24801e-05
1.83481e-06
-1.21581e-06
2.12714e-05
1.16429e-06
-1.99009e-06
2.02719e-05
8.40238e-07
-2.92846e-06
1.92636e-05
7.1276e-07
-4.08341e-06
1.81089e-05
6.70139e-07
-5.50874e-06
1.67013e-05
6.50162e-07
-7.32264e-06
1.49243e-05
5.54786e-07
-9.53771e-06
1.25516e-05
3.82211e-07
-1.24157e-05
9.34502e-06
-2.00783e-07
-1.5234e-05
4.36627e-06
-7.49464e-07
-1.77603e-05
-2.66567e-06
-1.19292e-05
6.47132e-05
1.05962e-05
2.85004e-07
6.32568e-05
1.23748e-05
4.93569e-07
6.05497e-05
1.11283e-05
3.6566e-07
5.76132e-05
8.42767e-06
-1.00195e-07
5.50168e-05
6.0041e-06
-8.9738e-07
5.28404e-05
4.19036e-06
-1.98551e-06
5.09289e-05
3.07753e-06
-3.36082e-06
4.90555e-05
2.51048e-06
-5.05562e-06
4.69949e-05
2.32615e-06
-7.15233e-06
4.45192e-05
2.37101e-06
-9.75478e-06
4.13884e-05
2.53889e-06
-1.30517e-05
3.72472e-05
2.687e-06
-1.71283e-05
3.15978e-05
2.76843e-06
-2.23061e-05
2.3594e-05
2.30434e-06
-2.75617e-05
1.23752e-05
1.41307e-06
-3.15015e-05
-1.7068e-06
-2.04117e-05
6.628e-05
7.02429e-06
3.17624e-07
6.85148e-05
1.05571e-05
5.56398e-07
6.93574e-05
1.07962e-05
4.33651e-07
6.9044e-05
9.24102e-06
-5.61405e-08
6.80816e-05
7.36827e-06
-9.11599e-07
6.67494e-05
5.76708e-06
-2.10004e-06
6.51582e-05
4.7183e-06
-3.62167e-06
6.3274e-05
4.21558e-06
-5.51381e-06
6.0972e-05
4.17578e-06
-7.86495e-06
5.80435e-05
4.48374e-06
-1.07944e-05
5.41983e-05
5.05239e-06
-1.45054e-05
4.89678e-05
5.7447e-06
-1.91198e-05
4.16806e-05
6.50306e-06
-2.49633e-05
3.11921e-05
6.74525e-06
-3.09996e-05
1.64765e-05
6.04829e-06
-3.54979e-05
1.56598e-06
-2.30015e-05
6.52013e-05
4.53436e-06
3.36648e-07
6.81459e-05
8.04266e-06
5.97e-07
7.03774e-05
9.09515e-06
4.86303e-07
7.15365e-05
8.60549e-06
3.49264e-09
7.17872e-05
7.54438e-06
-8.45522e-07
7.13251e-05
6.4991e-06
-2.02853e-06
7.03011e-05
5.81617e-06
-3.54724e-06
6.87573e-05
5.60296e-06
-5.44105e-06
6.66317e-05
5.86947e-06
-7.79829e-06
6.37439e-05
6.57375e-06
-1.07428e-05
5.97908e-05
7.68754e-06
-1.44769e-05
5.42441e-05
9.12119e-06
-1.91435e-05
4.63199e-05
1.08493e-05
-2.50635e-05
3.47147e-05
1.21898e-05
-3.1256e-05
1.82026e-05
1.21692e-05
-3.59244e-05
5.8735e-06
-2.33193e-05
6.4264e-05
2.98123e-06
3.56616e-07
6.68767e-05
5.86311e-06
6.42198e-07
6.93294e-05
7.17834e-06
5.53494e-07
7.1084e-05
7.38091e-06
9.2464e-08
7.20366e-05
7.02627e-06
-7.28621e-07
7.22355e-05
6.58024e-06
-1.87347e-06
7.17728e-05
6.36687e-06
-3.34059e-06
7.06896e-05
6.54959e-06
-5.16687e-06
6.89465e-05
7.20878e-06
-7.43505e-06
6.63822e-05
8.37993e-06
-1.02673e-05
6.26959e-05
1.01114e-05
-1.38551e-05
5.73168e-05
1.24052e-05
-1.83568e-05
4.9356e-05
1.53296e-05
-2.40753e-05
3.72898e-05
1.81902e-05
-3.01368e-05
1.9519e-05
1.96022e-05
-3.47472e-05
1.13484e-05
-2.25639e-05
6.3722e-05
1.96916e-06
3.77879e-07
6.59055e-05
4.11294e-06
6.92857e-07
6.82448e-05
5.37648e-06
6.34559e-07
7.02097e-05
5.94891e-06
2.05798e-07
7.15587e-05
6.11635e-06
-5.75639e-07
7.22285e-05
6.19859e-06
-1.66772e-06
7.22416e-05
6.4557e-06
-3.06296e-06
7.16141e-05
7.06329e-06
-4.79249e-06
7.03087e-05
8.14561e-06
-6.92977e-06
6.81727e-05
9.81098e-06
-9.59147e-06
6.49091e-05
1.21915e-05
-1.29518e-05
5.99074e-05
1.5427e-05
-1.71825e-05
5.21878e-05
1.97349e-05
-2.25555e-05
3.99586e-05
2.45647e-05
-2.83479e-05
2.11473e-05
2.83342e-05
-3.27873e-05
1.85374e-05
-2.13822e-05
6.34732e-05
1.20544e-06
4.02106e-07
6.53862e-05
2.63379e-06
7.5085e-07
6.76112e-05
3.69124e-06
7.29955e-07
6.96716e-05
4.42532e-06
3.42253e-07
7.12765e-05
4.9575e-06
-3.89804e-07
7.23041e-05
5.47083e-06
-1.41741e-06
7.27355e-05
6.14553e-06
-2.72456e-06
7.25763e-05
7.14012e-06
-4.33248e-06
7.18067e-05
8.59673e-06
-6.29945e-06
7.03115e-05
1.06817e-05
-8.72804e-06
6.78516e-05
1.35986e-05
-1.17604e-05
6.38475e-05
1.76673e-05
-1.55654e-05
5.73289e-05
2.33031e-05
-2.03448e-05
4.60059e-05
3.0621e-05
-2.55682e-05
2.6891e-05
3.83544e-05
-2.94619e-05
3.23728e-05
-1.93129e-05
6.33858e-05
4.28321e-07
5.29734e-07
6.51992e-05
8.13721e-07
1.25617e-06
6.74043e-05
8.34318e-07
2.02986e-06
6.95608e-05
4.93055e-07
2.81227e-06
7.13645e-05
-1.83607e-07
3.60988e-06
7.26724e-05
-1.1405e-06
4.47812e-06
7.34516e-05
-2.35205e-06
5.51106e-06
7.37104e-05
-3.82789e-06
6.83486e-06
7.34507e-05
-5.60937e-06
8.59343e-06
7.25957e-05
-7.78182e-06
1.09997e-05
7.09671e-05
-1.04524e-05
1.43143e-05
6.80363e-05
-1.37814e-05
1.90651e-05
6.29309e-05
-1.78962e-05
2.58453e-05
5.30152e-05
-2.24862e-05
3.58985e-05
3.49388e-05
-2.58502e-05
4.83654e-05
-1.76359e-05
5.49805e-05
4.99684e-05
1.26234e-05
1.13389e-07
3.95747e-05
1.05598e-05
1.73315e-07
3.17559e-05
7.99295e-06
5.3286e-08
2.68054e-05
5.08344e-06
-2.2241e-07
2.37617e-05
3.09873e-06
-6.38118e-07
2.18602e-05
1.85568e-06
-1.16995e-06
2.05021e-05
1.19191e-06
-1.8239e-06
1.93123e-05
8.77571e-07
-2.61623e-06
1.80517e-05
7.62818e-07
-3.58565e-06
1.65648e-05
7.35523e-07
-4.75743e-06
1.47165e-05
7.36301e-07
-6.21059e-06
1.24034e-05
6.68984e-07
-7.8936e-06
9.41826e-06
5.3261e-07
-9.96315e-06
5.89138e-06
1.07436e-08
-1.17178e-05
1.58084e-06
-6.0697e-07
-1.28428e-05
-2.31494e-06
-8.03343e-06
6.46424e-05
1.06105e-05
1.55538e-07
6.30441e-05
1.24086e-05
2.4295e-07
6.01498e-05
1.1176e-05
7.69066e-08
5.7001e-05
8.48191e-06
-3.49859e-07
5.41765e-05
6.06389e-06
-1.03803e-06
5.17505e-05
4.26038e-06
-1.96418e-06
4.95485e-05
3.16675e-06
-3.13369e-06
4.73167e-05
2.62803e-06
-4.5743e-06
4.47944e-05
2.4825e-06
-6.3497e-06
4.1721e-05
2.57556e-06
-8.52139e-06
3.78148e-05
2.80586e-06
-1.12152e-05
3.27438e-05
3.02462e-06
-1.44128e-05
2.60612e-05
3.18737e-06
-1.82783e-05
1.75072e-05
2.78377e-06
-2.17806e-05
7.1633e-06
1.80159e-06
-2.35662e-05
-1.39003e-06
-1.41733e-05
6.62088e-05
7.04301e-06
1.76296e-07
6.82956e-05
1.06016e-05
2.76697e-07
6.89376e-05
1.08643e-05
1.03307e-07
6.83895e-05
9.32688e-06
-3.53004e-07
6.71678e-05
7.4711e-06
-1.0971e-06
6.55477e-05
5.89282e-06
-2.11235e-06
6.36219e-05
4.87953e-06
-3.40869e-06
6.13281e-05
4.42773e-06
-5.01967e-06
5.85024e-05
4.45818e-06
-7.0149e-06
5.48969e-05
4.85572e-06
-9.46911e-06
5.01737e-05
5.54074e-06
-1.25171e-05
4.38797e-05
6.36464e-06
-1.61659e-05
3.53939e-05
7.2769e-06
-2.0567e-05
2.42093e-05
7.61382e-06
-2.46449e-05
1.03702e-05
6.84322e-06
-2.67004e-05
1.93842e-06
-1.59598e-05
6.51324e-05
4.55535e-06
1.9188e-07
6.79311e-05
8.09337e-06
3.06529e-07
6.99646e-05
9.17712e-06
1.40002e-07
7.0891e-05
8.71618e-06
-3.12244e-07
7.08834e-05
7.6847e-06
-1.05156e-06
7.01331e-05
6.67682e-06
-2.06217e-06
6.87738e-05
6.04722e-06
-3.35563e-06
6.68192e-05
5.90898e-06
-4.96771e-06
6.41677e-05
6.27952e-06
-6.96811e-06
6.05966e-05
7.1198e-06
-9.43584e-06
5.57501e-05
8.41438e-06
-1.2504e-05
4.91068e-05
1.00605e-05
-1.61962e-05
3.99224e-05
1.20518e-05
-2.06541e-05
2.75381e-05
1.3578e-05
-2.48358e-05
1.18441e-05
1.35724e-05
-2.69596e-05
6.52901e-06
-1.60658e-05
6.41973e-05
3.00408e-06
2.10542e-07
6.66673e-05
5.91901e-06
3.46586e-07
6.89277e-05
7.27136e-06
1.98848e-07
7.04586e-05
7.51175e-06
-2.33973e-07
7.11646e-05
7.19814e-06
-9.4805e-07
7.10895e-05
6.80309e-06
-1.92464e-06
7.03088e-05
6.65999e-06
-3.17264e-06
6.8836e-05
6.94076e-06
-4.72585e-06
6.65925e-05
7.73721e-06
-6.64924e-06
6.33735e-05
9.09246e-06
-9.02101e-06
5.88222e-05
1.10759e-05
-1.19654e-05
5.23649e-05
1.36808e-05
-1.55197e-05
4.31364e-05
1.70154e-05
-1.98105e-05
3.02415e-05
2.02171e-05
-2.3881e-05
1.31783e-05
2.18385e-05
-2.59502e-05
1.25481e-05
-1.54048e-05
6.3657e-05
1.99408e-06
2.30852e-07
6.57015e-05
4.17384e-06
3.93511e-07
6.78554e-05
5.47893e-06
2.73115e-07
6.96074e-05
6.09599e-06
-1.3041e-07
7.07249e-05
6.31362e-06
-8.08653e-07
7.11403e-05
6.45833e-06
-1.73832e-06
7.086e-05
6.80049e-06
-2.92316e-06
6.98735e-05
7.52692e-06
-4.39219e-06
6.8106e-05
8.77753e-06
-6.20257e-06
6.53612e-05
1.06746e-05
-8.42879e-06
6.12849e-05
1.3382e-05
-1.11815e-05
5.52534e-05
1.70416e-05
-1.45117e-05
4.62958e-05
2.1941e-05
-1.85235e-05
3.3214e-05
2.73361e-05
-2.2385e-05
1.49667e-05
3.16487e-05
-2.43503e-05
2.0595e-05
-1.44623e-05
6.34102e-05
1.23231e-06
2.53656e-07
6.51887e-05
2.69897e-06
4.47221e-07
6.72361e-05
3.80088e-06
3.60667e-07
6.9096e-05
4.58403e-06
-5.76453e-09
7.0487e-05
5.17262e-06
-6.39761e-07
7.1284e-05
5.75649e-06
-1.51255e-06
7.14538e-05
6.52669e-06
-2.62056e-06
7.09779e-05
7.65517e-06
-3.98488e-06
6.98035e-05
9.30306e-06
-5.6506e-06
6.77758e-05
1.16572e-05
-7.68289e-06
6.46042e-05
1.49624e-05
-1.01693e-05
5.96887e-05
1.95588e-05
-1.3167e-05
5.20586e-05
2.59628e-05
-1.67366e-05
3.99302e-05
3.41122e-05
-2.02159e-05
2.1181e-05
4.28513e-05
-2.19154e-05
3.55545e-05
-1.30914e-05
6.33248e-05
2.77806e-07
5.58007e-07
6.50087e-05
5.04728e-07
1.32404e-06
6.7045e-05
4.55668e-07
2.14331e-06
6.90141e-05
1.31011e-07
2.97689e-06
7.06225e-05
-4.53621e-07
3.83424e-06
7.17253e-05
-1.26406e-06
4.77731e-06
7.22772e-05
-2.28864e-06
5.91138e-06
7.2266e-05
-3.53909e-06
7.37755e-06
7.16658e-05
-5.04702e-06
9.34094e-06
7.03657e-05
-6.86589e-06
1.20413e-05
6.81455e-05
-9.05784e-06
1.57882e-05
6.44513e-05
-1.16827e-05
2.11542e-05
5.8413e-05
-1.47553e-05
2.88603e-05
4.77978e-05
-1.78063e-05
4.00475e-05
2.99847e-05
-1.92719e-05
5.40861e-05
-1.1986e-05
5.98893e-05
4.99302e-05
1.26288e-05
5.44145e-08
3.94602e-05
1.05741e-05
6.92003e-08
3.15478e-05
8.0111e-06
-4.54813e-08
2.64998e-05
5.10107e-06
-2.75461e-07
2.33576e-05
3.1162e-06
-6.12115e-07
2.13526e-05
1.87583e-06
-1.04075e-06
1.98783e-05
1.21867e-06
-1.56822e-06
1.85534e-05
9.14227e-07
-2.20561e-06
1.71343e-05
8.13341e-07
-2.97988e-06
1.54705e-05
8.04872e-07
-3.89853e-06
1.34357e-05
8.34095e-07
-5.0099e-06
1.09689e-05
8.12287e-07
-6.23904e-06
7.92479e-06
7.47795e-07
-7.66684e-06
4.56141e-06
3.59185e-07
-8.71364e-06
9.36728e-07
-1.54361e-07
-9.06371e-06
-1.68865e-06
-5.40806e-06
6.45878e-05
1.06238e-05
7.27481e-08
6.2878e-05
1.24392e-05
8.76749e-08
5.98317e-05
1.12195e-05
-8.52412e-08
5.65052e-05
8.53203e-06
-4.54273e-07
5.34862e-05
6.1197e-06
-1.0226e-06
5.0849e-05
4.32578e-06
-1.77689e-06
4.84103e-05
3.24959e-06
-2.72592e-06
4.59048e-05
2.73688e-06
-3.89146e-06
4.30601e-05
2.62796e-06
-5.31966e-06
3.96169e-05
2.76891e-06
-7.04217e-06
3.53053e-05
3.06563e-06
-9.13506e-06
2.9864e-05
3.37186e-06
-1.15312e-05
2.29633e-05
3.65726e-06
-1.4287e-05
1.46533e-05
3.41192e-06
-1.65233e-05
5.46495e-06
2.54657e-06
-1.70788e-05
-6.37405e-07
-9.75958e-06
6.61541e-05
7.0608e-06
8.5192e-08
6.81246e-05
1.06427e-05
1.02698e-07
6.8604e-05
1.09272e-05
-8.37312e-08
6.78595e-05
9.40637e-06
-4.82839e-07
6.64168e-05
7.56639e-06
-1.1011e-06
6.45522e-05
6.00876e-06
-1.93074e-06
6.23511e-05
5.02686e-06
-2.98487e-06
5.97391e-05
4.62009e-06
-4.29087e-06
5.6539e-05
4.71326e-06
-5.9001e-06
5.25014e-05
5.19226e-06
-7.85486e-06
4.73001e-05
5.98627e-06
-1.02364e-05
4.05571e-05
6.94268e-06
-1.29937e-05
3.17848e-05
8.02646e-06
-1.61639e-05
2.08341e-05
8.53014e-06
-1.88124e-05
8.29234e-06
7.8551e-06
-1.94672e-05
2.70369e-06
-1.10085e-05
6.50798e-05
4.57549e-06
9.73797e-08
6.77643e-05
8.14089e-06
1.2382e-07
6.96376e-05
9.25316e-06
-5.92776e-08
7.03697e-05
8.81842e-06
-4.56371e-07
7.01421e-05
7.81377e-06
-1.07134e-06
6.91471e-05
6.83901e-06
-1.89741e-06
6.75116e-05
6.25592e-06
-2.94923e-06
6.52378e-05
6.18256e-06
-4.25634e-06
6.22105e-05
6.64284e-06
-5.87041e-06
5.82044e-05
7.60008e-06
-7.83757e-06
5.28739e-05
9.0501e-06
-1.02374e-05
4.57708e-05
1.0881e-05
-1.30314e-05
3.62835e-05
1.31054e-05
-1.62457e-05
2.41163e-05
1.48262e-05
-1.89647e-05
9.72694e-06
1.49196e-05
-1.96347e-05
7.38928e-06
-1.10245e-05
6.41467e-05
3.02585e-06
1.13516e-07
6.65057e-05
5.97124e-06
1.57226e-07
6.86111e-05
7.35727e-06
-1.06392e-08
6.99552e-05
7.63174e-06
-3.91449e-07
7.04512e-05
7.35477e-06
-9.85047e-07
7.01437e-05
7.00443e-06
-1.78252e-06
6.91015e-05
6.92198e-06
-2.79656e-06
6.73272e-05
7.28624e-06
-4.05522e-06
6.47292e-05
8.19808e-06
-5.60649e-06
6.10995e-05
9.70519e-06
-7.49637e-06
5.60897e-05
1.18922e-05
-9.7977e-06
4.91938e-05
1.47408e-05
-1.24836e-05
3.9671e-05
1.83861e-05
-1.55684e-05
2.69766e-05
2.18404e-05
-1.82007e-05
1.11614e-05
2.36121e-05
-1.88275e-05
1.3637e-05
-1.04911e-05
6.36079e-05
2.0174e-06
1.31388e-07
6.55449e-05
4.2301e-06
1.97708e-07
6.75497e-05
5.5726e-06
5.29704e-08
6.91243e-05
6.22964e-06
-3.02917e-07
7.00448e-05
6.49169e-06
-8.66093e-07
7.02443e-05
6.69074e-06
-1.62416e-06
6.97231e-05
7.10568e-06
-2.58569e-06
6.84603e-05
7.93192e-06
-3.77501e-06
6.63688e-05
9.32094e-06
-5.23398e-06
6.32488e-05
1.14027e-05
-7.00626e-06
5.87532e-05
1.4361e-05
-9.15472e-06
5.23191e-05
1.83279e-05
-1.16648e-05
4.30892e-05
2.36284e-05
-1.4536e-05
3.01943e-05
2.93639e-05
-1.70136e-05
1.31048e-05
3.39345e-05
-1.75832e-05
2.20469e-05
-9.76732e-06
6.33628e-05
1.25693e-06
1.51316e-07
6.50377e-05
2.75829e-06
2.44139e-07
6.69428e-05
3.90002e-06
1.28202e-07
6.8636e-05
4.72688e-06
-1.9623e-07
6.98449e-05
5.36508e-06
-7.22063e-07
7.04458e-05
6.00995e-06
-1.43265e-06
7.04003e-05
6.8614e-06
-2.33074e-06
6.96807e-05
8.10122e-06
-3.43462e-06
6.82242e-05
9.9039e-06
-4.77703e-06
6.58727e-05
1.24672e-05
-6.39585e-06
6.23431e-05
1.60595e-05
-8.33822e-06
5.70869e-05
2.10163e-05
-1.05992e-05
4.92335e-05
2.7899e-05
-1.31537e-05
3.72851e-05
3.64775e-05
-1.53812e-05
1.95478e-05
4.55992e-05
-1.58428e-05
3.7356e-05
-8.85276e-06
6.32792e-05
1.72155e-07
5.83352e-07
6.48639e-05
2.93497e-07
1.38483e-06
6.67654e-05
2.09465e-07
2.24472e-06
6.85792e-05
-7.9581e-08
3.12366e-06
7.00213e-05
-5.63872e-07
4.03327e-06
7.09488e-05
-1.22249e-06
5.04085e-06
7.13127e-05
-2.05167e-06
6.26055e-06
7.10932e-05
-3.06253e-06
7.84417e-06
7.02566e-05
-4.27765e-06
9.97116e-06
6.869e-05
-5.72736e-06
1.28952e-05
6.61817e-05
-7.44164e-06
1.69516e-05
6.22209e-05
-9.42287e-06
2.27172e-05
5.60262e-05
-1.16219e-05
3.09602e-05
4.56018e-05
-1.35708e-05
4.26664e-05
2.86711e-05
-1.39671e-05
5.72252e-05
-8.13145e-06
6.21726e-05
4.99008e-05
1.26332e-05
2.04167e-08
3.93714e-05
1.0586e-05
1.25765e-08
3.13844e-05
8.02606e-06
-8.44874e-08
2.6256e-05
5.1157e-06
-2.6276e-07
2.30305e-05
3.13075e-06
-5.17393e-07
2.09368e-05
1.89243e-06
-8.39518e-07
1.93632e-05
1.24035e-06
-1.23491e-06
1.79243e-05
9.43487e-07
-1.7102e-06
1.63738e-05
8.53054e-07
-2.28243e-06
1.45664e-05
8.58402e-07
-2.94956e-06
1.23869e-05
9.07933e-07
-3.73831e-06
9.80904e-06
9.17641e-07
-4.57885e-06
6.74979e-06
9.01581e-07
-5.50917e-06
3.5585e-06
5.96312e-07
-6.11866e-06
4.95437e-07
1.4492e-07
-6.14557e-06
-1.33495e-06
-3.57767e-06
6.45454e-05
1.06352e-05
2.54153e-08
6.27488e-05
1.2465e-05
5.23347e-09
5.95813e-05
1.12563e-05
-1.47977e-07
5.61094e-05
8.5747e-06
-4.41364e-07
5.29282e-05
6.16745e-06
-8.78054e-07
5.01126e-05
4.38163e-06
-1.45048e-06
4.74742e-05
3.31983e-06
-2.16698e-06
4.47405e-05
2.82852e-06
-3.04283e-06
4.16329e-05
2.74968e-06
-4.10865e-06
3.78968e-05
2.92979e-06
-5.37749e-06
3.32801e-05
3.2804e-06
-6.89088e-06
2.75848e-05
3.65663e-06
-8.57482e-06
2.05944e-05
4.03869e-06
-1.04337e-05
1.25784e-05
3.91159e-06
-1.18226e-05
4.36881e-06
3.12636e-06
-1.18507e-05
-1.22089e-07
-6.60363e-06
6.61117e-05
7.0763e-06
3.23513e-08
6.79917e-05
1.06781e-05
9.60158e-09
6.83415e-05
1.0981e-05
-1.58225e-07
6.74367e-05
9.47467e-06
-4.77995e-07
6.58099e-05
7.6484e-06
-9.55321e-07
6.37394e-05
6.10827e-06
-1.58684e-06
6.13062e-05
5.15262e-06
-2.38449e-06
5.84288e-05
4.78333e-06
-3.36823e-06
5.49226e-05
4.9286e-06
-4.57285e-06
5.05418e-05
5.47499e-06
-6.01926e-06
4.49788e-05
6.35872e-06
-7.75173e-06
3.79243e-05
7.42333e-06
-9.70593e-06
2.90201e-05
8.64591e-06
-1.18669e-05
1.83773e-05
9.28183e-06
-1.35398e-05
6.94691e-06
8.6804e-06
-1.35909e-05
3.29457e-06
-7.47828e-06
6.50392e-05
4.59323e-06
4.12814e-08
6.76351e-05
8.18219e-06
2.37954e-08
6.93808e-05
9.31885e-06
-1.42843e-07
6.99544e-05
8.9066e-06
-4.61874e-07
6.95436e-05
7.92491e-06
-9.37121e-07
6.83425e-05
6.97818e-06
-1.56614e-06
6.6474e-05
6.43405e-06
-2.36221e-06
6.39334e-05
6.41476e-06
-3.34715e-06
6.05981e-05
6.94956e-06
-4.55611e-06
5.62453e-05
8.00339e-06
-6.01314e-06
5.0547e-05
9.58088e-06
-7.76121e-06
4.31219e-05
1.15619e-05
-9.7449e-06
3.34887e-05
1.39735e-05
-1.194e-05
2.16187e-05
1.58497e-05
-1.36626e-05
8.3528e-06
1.60236e-05
-1.3712e-05
8.10111e-06
-7.4782e-06
6.41077e-05
3.04503e-06
5.40313e-08
6.63808e-05
6.01673e-06
4.95485e-08
6.83631e-05
7.43157e-06
-1.05618e-07
6.95551e-05
7.73514e-06
-4.12056e-07
6.98763e-05
7.48934e-06
-8.70643e-07
6.93727e-05
7.17674e-06
-1.4775e-06
6.81096e-05
7.14514e-06
-2.24455e-06
6.60828e-05
7.579e-06
-3.1926e-06
6.31935e-05
8.58656e-06
-4.35421e-06
5.92354e-05
1.02188e-05
-5.75362e-06
5.38759e-05
1.25719e-05
-7.42922e-06
4.66717e-05
1.56172e-05
-9.33459e-06
3.70053e-05
1.95091e-05
-1.14377e-05
2.45914e-05
2.31634e-05
-1.31005e-05
9.85748e-06
2.50546e-05
-1.31245e-05
1.45627e-05
-7.09523e-06
6.35703e-05
2.03781e-06
6.83384e-08
6.54243e-05
4.27887e-06
8.15459e-08
6.73111e-05
5.65336e-06
-5.5592e-08
6.87414e-05
6.34439e-06
-3.42514e-07
6.94979e-05
6.6441e-06
-7.77327e-07
6.95151e-05
6.88898e-06
-1.35363e-06
6.879e-05
7.36495e-06
-2.08034e-06
6.72951e-05
8.27438e-06
-2.97555e-06
6.4937e-05
9.77809e-06
-4.06736e-06
6.15166e-05
1.20116e-05
-5.37872e-06
5.6701e-05
1.51739e-05
-6.94125e-06
4.99842e-05
1.93876e-05
-8.71842e-06
4.06232e-05
2.50038e-05
-1.06696e-05
2.79925e-05
3.10067e-05
-1.22263e-05
1.19128e-05
3.5777e-05
-1.2226e-05
2.32907e-05
-6.58245e-06
6.33267e-05
1.27822e-06
8.42342e-08
6.49221e-05
2.8093e-06
1.18324e-07
6.67149e-05
3.98495e-06
3.76e-09
6.82727e-05
4.84892e-06
-2.58564e-07
6.933e-05
5.52913e-06
-6.64341e-07
6.97649e-05
6.22545e-06
-1.20404e-06
6.95363e-05
7.14509e-06
-1.8823e-06
6.86112e-05
8.47782e-06
-2.71292e-06
6.6921e-05
1.04089e-05
-3.71764e-06
6.43087e-05
1.31441e-05
-4.91603e-06
6.05042e-05
1.697e-05
-6.32976e-06
5.50079e-05
2.22161e-05
-7.93137e-06
4.70508e-05
2.94752e-05
-9.66788e-06
3.53505e-05
3.83922e-05
-1.10664e-05
1.85099e-05
4.78108e-05
-1.10361e-05
3.89359e-05
-5.98806e-06
6.32446e-05
1.00731e-07
6.05003e-07
6.47536e-05
1.57266e-07
1.4366e-06
6.65493e-05
6.77309e-08
2.33099e-06
6.82372e-05
-1.6696e-07
3.24838e-06
6.95407e-05
-5.40494e-07
4.2022e-06
7.03197e-05
-1.04018e-06
5.26416e-06
7.05232e-05
-1.66583e-06
6.5558e-06
7.01271e-05
-2.42613e-06
8.23753e-06
6.90937e-05
-3.33572e-06
1.05003e-05
6.73117e-05
-4.40959e-06
1.36083e-05
6.45823e-05
-5.65858e-06
1.79163e-05
6.04362e-05
-7.06293e-06
2.40023e-05
5.4181e-05
-8.55858e-06
3.2667e-05
4.40011e-05
-9.78095e-06
4.47823e-05
2.78561e-05
-9.7583e-06
5.97471e-05
-5.52631e-06
6.41868e-05
4.98796e-05
1.26367e-05
4.08222e-09
3.93073e-05
1.05951e-05
-1.02483e-08
3.12653e-05
8.03764e-06
-8.01603e-08
2.60774e-05
5.12727e-06
-2.02105e-07
2.27906e-05
3.14245e-06
-3.73026e-07
2.06333e-05
1.90597e-06
-5.88142e-07
1.89915e-05
1.25823e-06
-8.51435e-07
1.74799e-05
9.67966e-07
-1.16654e-06
1.58537e-05
8.86922e-07
-1.54318e-06
1.39755e-05
9.05192e-07
-1.97649e-06
1.17427e-05
9.74066e-07
-2.47957e-06
9.15088e-06
1.01353e-06
-3.00058e-06
6.15313e-06
1.04288e-06
-3.5543e-06
3.10882e-06
8.07753e-07
-3.88211e-06
3.49201e-07
4.15859e-07
-3.80181e-06
-1.05223e-06
-2.17624e-06
6.45148e-05
1.06441e-05
3.19612e-09
6.2655e-05
1.24851e-05
-2.49718e-08
5.93981e-05
1.1285e-05
-1.384e-07
5.5818e-05
8.60827e-06
-3.42251e-07
5.25158e-05
6.20522e-06
-6.38633e-07
4.95689e-05
4.42592e-06
-1.02356e-06
4.67878e-05
3.37557e-06
-1.50322e-06
4.38988e-05
2.90133e-06
-2.08716e-06
4.06241e-05
2.84673e-06
-2.79371e-06
3.67193e-05
3.05893e-06
-3.62643e-06
3.19534e-05
3.45439e-06
-4.60531e-06
2.61728e-05
3.89015e-06
-5.6709e-06
1.9235e-05
4.35554e-06
-6.80855e-06
1.14903e-05
4.33016e-06
-7.60032e-06
3.88207e-06
3.62362e-06
-7.4502e-06
3.00851e-07
-4.07465e-06
6.60811e-05
7.08863e-06
6.75051e-09
6.78952e-05
1.0706e-05
-2.53033e-08
6.81492e-05
1.10234e-05
-1.50695e-07
6.71249e-05
9.5285e-06
-3.73934e-07
6.53608e-05
7.71306e-06
-6.99006e-07
6.31378e-05
6.18663e-06
-1.12463e-06
6.05372e-05
5.2513e-06
-1.65959e-06
5.74761e-05
4.91097e-06
-2.31679e-06
5.37709e-05
5.09655e-06
-3.11743e-06
4.91855e-05
5.69532e-06
-4.07027e-06
4.34356e-05
6.64912e-06
-5.19657e-06
3.62625e-05
7.79949e-06
-6.44213e-06
2.7395e-05
9.1334e-06
-7.7773e-06
1.70525e-05
9.87973e-06
-8.74682e-06
6.32454e-06
9.35012e-06
-8.58948e-06
3.77747e-06
-4.63037e-06
6.50099e-05
4.60742e-06
1.25668e-08
6.75414e-05
8.21495e-06
-1.66155e-08
6.91931e-05
9.37072e-06
-1.41866e-07
6.96486e-05
8.97612e-06
-3.64986e-07
6.91011e-05
8.01233e-06
-6.8889e-07
6.77473e-05
7.08721e-06
-1.11297e-06
6.57106e-05
6.57284e-06
-1.64701e-06
6.2985e-05
6.59459e-06
-2.30525e-06
5.94491e-05
7.18563e-06
-3.10925e-06
5.48893e-05
8.31194e-06
-4.06995e-06
4.90005e-05
9.98451e-06
-5.20781e-06
4.1452e-05
1.20774e-05
-6.47429e-06
3.18508e-05
1.46278e-05
-7.83324e-06
2.02801e-05
1.66226e-05
-8.83474e-06
7.72699e-06
1.68622e-05
-8.67102e-06
8.65292e-06
-4.62667e-06
6.40797e-05
3.06036e-06
2.13617e-08
6.62906e-05
6.05282e-06
8.51795e-10
6.81822e-05
7.49023e-06
-1.16744e-07
6.92611e-05
7.81648e-06
-3.31301e-07
6.94518e-05
7.5948e-06
-6.43812e-07
6.88032e-05
7.31108e-06
-1.05278e-06
6.73807e-05
7.31797e-06
-1.56717e-06
6.51793e-05
7.80395e-06
-2.20061e-06
6.21014e-05
8.88239e-06
-2.97301e-06
5.79493e-05
1.0606e-05
-3.89559e-06
5.24122e-05
1.30784e-05
-4.98603e-06
4.50944e-05
1.62625e-05
-6.20186e-06
3.54625e-05
2.03243e-05
-7.50239e-06
2.33372e-05
2.41141e-05
-8.46676e-06
9.2862e-06
2.60787e-05
-8.28995e-06
1.52245e-05
-4.38061e-06
6.35434e-05
2.05402e-06
3.1317e-08
6.53374e-05
4.31742e-06
2.2941e-08
6.71374e-05
5.71691e-06
-8.23099e-08
6.84605e-05
6.43433e-06
-2.83475e-07
6.90946e-05
6.76305e-06
-5.79686e-07
6.89771e-05
7.0428e-06
-9.67826e-07
6.8105e-05
7.56461e-06
-1.45488e-06
6.64505e-05
8.53565e-06
-2.05272e-06
6.3921e-05
1.01229e-05
-2.77839e-06
6.03258e-05
1.24648e-05
-3.64244e-06
5.53524e-05
1.5769e-05
-4.65844e-06
4.85383e-05
2.01488e-05
-5.79065e-06
3.92182e-05
2.59687e-05
-6.99397e-06
2.68631e-05
3.21351e-05
-7.89216e-06
1.14181e-05
3.70052e-05
-7.7075e-06
2.41124e-05
-4.05228e-06
6.33009e-05
1.29499e-06
4.23616e-08
6.48389e-05
2.84939e-06
4.83761e-08
6.65494e-05
4.0515e-06
-4.13695e-08
6.80067e-05
4.94419e-06
-2.2567e-07
6.89508e-05
5.65663e-06
-5.02038e-07
6.92629e-05
6.39194e-06
-8.65318e-07
6.89024e-05
7.36255e-06
-1.31971e-06
6.78359e-05
8.76356e-06
-1.87432e-06
6.59963e-05
1.07871e-05
-2.54222e-06
6.32342e-05
1.3643e-05
-3.33213e-06
5.9298e-05
1.76274e-05
-4.25195e-06
5.37264e-05
2.30617e-05
-5.27263e-06
4.58191e-05
3.05519e-05
-6.34372e-06
3.43773e-05
3.96601e-05
-7.14957e-06
1.81036e-05
4.92096e-05
-6.96671e-06
3.99243e-05
-3.69643e-06
6.322e-05
5.37773e-08
6.21915e-07
6.46744e-05
7.52554e-08
1.477e-06
6.63927e-05
2.71738e-09
2.39825e-06
6.79872e-05
-1.62641e-07
3.34533e-06
6.91874e-05
-4.17005e-07
4.33298e-06
6.98562e-05
-7.53132e-07
5.43604e-06
6.99438e-05
-1.17205e-06
6.78123e-06
6.94262e-05
-1.67959e-06
8.53461e-06
6.82676e-05
-2.28434e-06
1.08943e-05
6.63639e-05
-2.9925e-06
1.41296e-05
6.35333e-05
-3.80574e-06
1.86051e-05
5.93396e-05
-4.70096e-06
2.48934e-05
5.31498e-05
-5.62361e-06
3.38068e-05
4.32161e-05
-6.32652e-06
4.61394e-05
2.75686e-05
-6.17226e-06
6.1271e-05
-3.42169e-06
6.53883e-05
4.98656e-05
1.26391e-05
-5.71728e-10
3.92649e-05
1.06013e-05