/*--------------------------------*- C++ -*----------------------------------*\
| =========                 |                                                 |
| \\      /  F ield         | OpenFOAM: The Open Source CFD Toolbox           |
|  \\    /   O peration     | Version:  v1912                                 |
|   \\  /    A nd           | Website:  www.openfoam.com                      |
|    \\/     M anipulation  |                                                 |
\*---------------------------------------------------------------------------*/
FoamFile
{
    version     2.0;
    format      ascii;
    class       pointVectorField;
    location    "0.79/fluid";
    object      pointMotionU;
}
// * * * * * * * * * * * * * * * * * * * * * * * * * * * * * * * * * * * * * //

dimensions      [0 1 -1 0 0 0 0];


internalField   nonuniform List<vector> 
16859
(
(0 0 0)
(0 0 0)
(0 0 0)
(0 0 0)
(0 0 0)
(0 0 0)
(0 0 0)
(0 0 0)
(0 0 0)
(0 0 0)
(0 0 0)
(0 0 0)
(0 0 0)
(0 0 0)
(0 0 0)
(0 0 0)
(1.58226e-08 2.72725e-08 1.73185e-08)
(0 0 0)
(4.67439e-10 -1.08485e-09 8.53561e-10)
(8.93795e-10 -2.075e-09 1.66371e-09)
(1.29722e-09 -3.00904e-09 2.48907e-09)
(1.69459e-09 -3.91499e-09 3.38175e-09)
(2.10266e-09 -4.80917e-09 4.39049e-09)
(2.53969e-09 -5.69395e-09 5.56272e-09)
(3.02789e-09 -6.55346e-09 6.94599e-09)
(3.59723e-09 -7.34557e-09 8.58867e-09)
(4.29236e-09 -7.98739e-09 1.05405e-08)
(5.18665e-09 -8.32958e-09 1.28542e-08)
(6.41147e-09 -8.10882e-09 1.5595e-08)
(8.219e-09 -6.85339e-09 1.88736e-08)
(1.10982e-08 -3.69829e-09 2.29359e-08)
(1.59027e-08 2.89193e-09 2.83404e-08)
(2.29126e-08 1.38772e-08 3.53458e-08)
(3.31951e-08 3.55018e-08 4.33483e-08)
(0 0 0)
(9.22911e-10 -2.13782e-09 1.6849e-09)
(1.76423e-09 -4.09043e-09 3.28352e-09)
(2.55915e-09 -5.93504e-09 4.91089e-09)
(3.3402e-09 -7.72842e-09 6.66909e-09)
(4.13961e-09 -9.50556e-09 8.65357e-09)
(4.9921e-09 -1.1276e-08 1.09572e-08)
(5.93874e-09 -1.30164e-08 1.36726e-08)
(7.0327e-09 -1.46578e-08 1.68931e-08)
(8.34868e-09 -1.60632e-08 2.07119e-08)
(9.99978e-09 -1.69912e-08 2.52195e-08)
(1.21679e-08 -1.70417e-08 3.05034e-08)
(1.51565e-08 -1.55818e-08 3.66579e-08)
(1.94397e-08 -1.17021e-08 4.38025e-08)
(2.55534e-08 -4.42641e-09 5.20484e-08)
(3.27723e-08 5.3621e-09 6.05053e-08)
(4.48206e-08 1.95421e-08 7.34795e-08)
(0 0 0)
(1.35522e-09 -3.12747e-09 2.47351e-09)
(2.58945e-09 -5.9872e-09 4.81893e-09)
(3.75302e-09 -8.69511e-09 7.20364e-09)
(4.89217e-09 -1.13382e-08 9.77588e-09)
(6.05245e-09 -1.39741e-08 1.26743e-08)
(7.28206e-09 -1.66271e-08 1.60335e-08)
(8.6362e-09 -1.92808e-08 1.99878e-08)
(1.01827e-08 -2.18635e-08 2.46721e-08)
(1.20096e-08 -2.4226e-08 3.02187e-08)
(1.42356e-08 -2.61067e-08 3.67485e-08)
(1.70248e-08 -2.70887e-08 4.4356e-08)
(2.06024e-08 -2.65662e-08 5.30853e-08)
(2.52372e-08 -2.37998e-08 6.28874e-08)
(3.10836e-08 -1.82678e-08 7.35196e-08)
(3.72136e-08 -1.11564e-08 8.3598e-08)
(4.65791e-08 -1.41759e-09 9.70564e-08)
(0 0 0)
(1.75418e-09 -4.0216e-09 3.20054e-09)
(3.34958e-09 -7.70414e-09 6.23261e-09)
(4.84915e-09 -1.12017e-08 9.31016e-09)
(6.31035e-09 -1.46327e-08 1.26222e-08)
(7.7893e-09 -1.80813e-08 1.63451e-08)
(9.34439e-09 -2.15949e-08 2.06503e-08)
(1.10404e-08 -2.51782e-08 2.57089e-08)
(1.29534e-08 -2.87823e-08 3.1693e-08)
(1.51745e-08 -3.22858e-08 3.87721e-08)
(1.78125e-08 -3.54671e-08 4.70998e-08)
(2.09904e-08 -3.797e-08 5.6788e-08)
(2.48286e-08 -3.92746e-08 6.78567e-08)
(2.93815e-08 -3.8722e-08 8.01354e-08)
(3.44795e-08 -3.57243e-08 9.30747e-08)
(3.91359e-08 -3.08202e-08 1.04695e-07)
(4.59086e-08 -2.22048e-08 1.18351e-07)
(0 0 0)
(2.11143e-09 -4.78845e-09 3.85024e-09)
(4.02838e-09 -9.1803e-09 7.4934e-09)
(5.82344e-09 -1.33659e-08 1.11826e-08)
(7.56247e-09 -1.7495e-08 1.51409e-08)
(9.3092e-09 -2.16806e-08 1.95757e-08)
(1.11289e-08 -2.59991e-08 2.4688e-08)
(1.30926e-08 -3.0488e-08 3.06789e-08)
(1.5281e-08 -3.51399e-08 3.77524e-08)
(1.77867e-08 -3.98918e-08 4.61126e-08)
(2.0713e-08 -4.46068e-08 5.59522e-08)
(2.41631e-08 -4.90477e-08 6.74261e-08)
(2.82124e-08 -5.28344e-08 8.05967e-08)
(3.28283e-08 -5.53772e-08 9.53049e-08)
(3.77044e-08 -5.58158e-08 1.10887e-07)
(4.17858e-08 -5.35479e-08 1.24803e-07)
(4.72972e-08 -4.48685e-08 1.3995e-07)
(0 0 0)
(2.42076e-09 -5.39772e-09 4.41068e-09)
(4.61392e-09 -1.0357e-08 8.57779e-09)
(6.65849e-09 -1.51009e-08 1.27852e-08)
(8.62565e-09 -1.98079e-08 1.72817e-08)
(1.05836e-08 -2.46196e-08 2.22976e-08)
(1.26013e-08 -2.96433e-08 2.80552e-08)
(1.4753e-08 -3.4954e-08 3.47763e-08)
(1.71218e-08 -4.05949e-08 4.26872e-08)
(1.98037e-08 -4.65759e-08 5.20194e-08)
(2.29074e-08 -5.28699e-08 6.30032e-08)
(2.6553e-08 -5.94051e-08 7.58553e-08)
(3.08589e-08 -6.60376e-08 9.07438e-08)
(3.58897e-08 -7.24627e-08 1.07683e-07)
(4.15003e-08 -7.79804e-08 1.26215e-07)
(4.66154e-08 -8.10872e-08 1.43487e-07)
(5.36716e-08 -7.6029e-08 1.62907e-07)
(0 0 0)
(2.67832e-09 -5.82199e-09 4.8743e-09)
(5.09905e-09 -1.11811e-08 9.47107e-09)
(7.34426e-09 -1.63266e-08 1.40957e-08)
(9.4872e-09 -2.14615e-08 1.90139e-08)
(1.15973e-08 -2.67519e-08 2.44698e-08)
(1.37439e-08 -3.23328e-08 3.06965e-08)
(1.60006e-08 -3.83141e-08 3.79253e-08)
(1.84501e-08 -4.47853e-08 4.6391e-08)
(2.11887e-08 -5.18233e-08 5.63356e-08)
(2.43328e-08 -5.95015e-08 6.80088e-08)
(2.80288e-08 -6.7907e-08 8.16707e-08)
(3.24689e-08 -7.71611e-08 9.75908e-08)
(3.79006e-08 -8.74194e-08 1.16014e-07)
(4.4558e-08 -9.87424e-08 1.36942e-07)
(5.16518e-08 -1.09737e-07 1.5775e-07)
(6.35919e-08 -1.2199e-07 1.83893e-07)
(0 0 0)
(2.88275e-09 -6.03845e-09 5.23825e-09)
(5.48177e-09 -1.16082e-08 1.01684e-08)
(7.87877e-09 -1.69764e-08 1.51077e-08)
(1.01459e-08 -2.23631e-08 2.03299e-08)
(1.23504e-08 -2.79521e-08 2.60829e-08)
(1.45584e-08 -3.38992e-08 3.26006e-08)
(1.68388e-08 -4.03392e-08 4.01102e-08)
(1.92676e-08 -4.73936e-08 4.88381e-08)
(2.19335e-08 -5.51801e-08 5.90129e-08)
(2.49445e-08 -6.38257e-08 7.08667e-08)
(2.84397e-08 -7.34891e-08 8.46389e-08)
(3.26068e-08 -8.43919e-08 1.00583e-07)
(3.76905e-08 -9.68456e-08 1.18956e-07)
(4.39072e-08 -1.1119e-07 1.39887e-07)
(5.0319e-08 -1.25811e-07 1.60678e-07)
(6.78617e-08 -1.51e-07 1.93865e-07)
(0 0 0)
(0 0 0)
(0 0 0)
(0 0 0)
(0 0 0)
(0 0 0)
(0 0 0)
(0 0 0)
(0 0 0)
(0 0 0)
(0 0 0)
(0 0 0)
(0 0 0)
(0 0 0)
(0 0 0)
(0 0 0)
(1.03686e-08 1.39635e-08 8.01625e-09)
(0 0 0)
(4.74243e-10 -1.11128e-09 8.26288e-10)
(9.06387e-10 -2.12582e-09 1.60932e-09)
(1.31455e-09 -3.08375e-09 2.40491e-09)
(1.71545e-09 -4.01452e-09 3.26248e-09)
(2.12536e-09 -4.93576e-09 4.22772e-09)
(2.56153e-09 -5.85112e-09 5.34426e-09)
(3.04429e-09 -6.74631e-09 6.65449e-09)
(3.60048e-09 -7.58173e-09 8.1994e-09)
(4.26973e-09 -8.27942e-09 1.00172e-08)
(5.11769e-09 -8.70042e-09 1.2141e-08)
(6.26485e-09 -8.60396e-09 1.45989e-08)
(7.94891e-09 -7.56927e-09 1.74233e-08)
(1.06394e-08 -4.84913e-09 2.06813e-08)
(1.51299e-08 7.85437e-10 2.44936e-08)
(2.16798e-08 9.98667e-09 2.85892e-08)
(2.88344e-08 2.13047e-08 2.98909e-08)
(0 0 0)
(9.36422e-10 -2.18977e-09 1.63104e-09)
(1.78929e-09 -4.19034e-09 3.17615e-09)
(2.59383e-09 -6.08206e-09 4.74496e-09)
(3.38231e-09 -7.92447e-09 6.43423e-09)
(4.18606e-09 -9.75505e-09 8.33348e-09)
(5.03789e-09 -1.15857e-08 1.05282e-08)
(5.9754e-09 -1.3396e-08 1.31012e-08)
(7.04589e-09 -1.51215e-08 1.61321e-08)
(8.31441e-09 -1.66335e-08 1.96931e-08)
(9.87892e-09 -1.77081e-08 2.38409e-08)
(1.18995e-08 -1.79829e-08 2.86034e-08)
(1.46506e-08 -1.69075e-08 3.39629e-08)
(1.85784e-08 -1.37481e-08 3.98247e-08)
(2.42049e-08 -7.89468e-09 4.59137e-08)
(3.1072e-08 -3.51655e-10 5.1328e-08)
(3.87672e-08 4.47287e-09 5.54573e-08)
(0 0 0)
(1.37534e-09 -3.20329e-09 2.3945e-09)
(2.62692e-09 -6.13313e-09 4.66154e-09)
(3.80525e-09 -8.91006e-09 6.96072e-09)
(4.9563e-09 -1.16251e-08 9.4326e-09)
(6.12447e-09 -1.43394e-08 1.22072e-08)
(7.35553e-09 -1.70806e-08 1.54088e-08)
(8.70012e-09 -1.98359e-08 1.91579e-08)
(1.02182e-08 -2.25392e-08 2.35707e-08)
(1.19847e-08 -2.50508e-08 2.8752e-08)
(1.40971e-08 -2.71287e-08 3.47809e-08)
(1.6687e-08 -2.83973e-08 4.1683e-08)
(1.99342e-08 -2.83392e-08 4.93858e-08)
(2.40602e-08 -2.63979e-08 5.76417e-08)
(2.92078e-08 -2.24073e-08 6.58917e-08)
(3.47703e-08 -1.76687e-08 7.28977e-08)
(4.0198e-08 -1.56039e-08 7.75109e-08)
(0 0 0)
(1.78079e-09 -4.11894e-09 3.09849e-09)
(3.39935e-09 -7.89164e-09 6.02954e-09)
(4.91906e-09 -1.14782e-08 8.99718e-09)
(6.39724e-09 -1.5002e-08 1.21807e-08)
(7.88891e-09 -1.85518e-08 1.57457e-08)
(9.44987e-09 -2.2179e-08 1.98506e-08)
(1.11401e-08 -2.58924e-08 2.46497e-08)
(1.3027e-08 -2.96484e-08 3.0293e-08)
(1.5187e-08 -3.33345e-08 3.69184e-08)
(1.77046e-08 -3.67453e-08 4.46335e-08)
(2.06637e-08 -3.95577e-08 5.34791e-08)
(2.41258e-08 -4.13189e-08 6.33631e-08)
(2.80737e-08 -4.1505e-08 7.39377e-08)
(3.23004e-08 -3.9786e-08 8.43757e-08)
(3.61347e-08 -3.6803e-08 9.29081e-08)
(3.9547e-08 -3.51624e-08 9.78768e-08)
(0 0 0)
(2.14432e-09 -4.90427e-09 3.72782e-09)
(4.09016e-09 -9.40354e-09 7.25008e-09)
(5.91086e-09 -1.36954e-08 1.08082e-08)
(7.67243e-09 -1.79356e-08 1.46138e-08)
(9.43778e-09 -2.22423e-08 1.88618e-08)
(1.127e-08 -2.66965e-08 2.37383e-08)
(1.32358e-08 -3.134e-08 2.94257e-08)
(1.54079e-08 -3.61702e-08 3.61032e-08)
(1.78655e-08 -4.11306e-08 4.39409e-08)
(2.06888e-08 -4.60951e-08 5.3083e-08)
(2.39437e-08 -5.08452e-08 6.36127e-08)
(2.76463e-08 -5.50337e-08 7.54825e-08)
(3.16843e-08 -5.81263e-08 8.83634e-08)
(3.56877e-08 -5.93582e-08 1.01319e-07)
(3.88646e-08 -5.81701e-08 1.12073e-07)
(4.09747e-08 -5.58005e-08 1.18331e-07)
(0 0 0)
(2.45958e-09 -5.52829e-09 4.27099e-09)
(4.68709e-09 -1.06089e-08 8.30043e-09)
(6.7627e-09 -1.54728e-08 1.23592e-08)
(8.75813e-09 -2.03058e-08 1.66834e-08)
(1.07413e-08 -2.5255e-08 2.14896e-08)
(1.27797e-08 -3.04327e-08 2.69839e-08)
(1.49444e-08 -3.59182e-08 3.33684e-08)
(1.73127e-08 -4.17589e-08 4.08432e-08)
(1.99702e-08 -4.79691e-08 4.96042e-08)
(2.30092e-08 -5.45279e-08 5.98321e-08)
(2.65233e-08 -6.13713e-08 7.16696e-08)
(3.05912e-08 -6.83648e-08 8.51711e-08)
(3.52296e-08 -7.52053e-08 1.00171e-07)
(4.02612e-08 -8.11523e-08 1.15904e-07)
(4.48591e-08 -8.46832e-08 1.29809e-07)
(4.78231e-08 -8.31364e-08 1.39247e-07)
(0 0 0)
(2.72252e-09 -5.96293e-09 4.72064e-09)
(5.18262e-09 -1.14531e-08 9.16632e-09)
(7.4639e-09 -1.67288e-08 1.36285e-08)
(9.64063e-09 -2.20004e-08 1.83596e-08)
(1.17825e-08 -2.74405e-08 2.3589e-08)
(1.39584e-08 -3.31892e-08 2.95337e-08)
(1.62402e-08 -3.93605e-08 3.64042e-08)
(1.87071e-08 -4.60477e-08 4.44093e-08)
(2.14498e-08 -5.33307e-08 5.37554e-08)
(2.45762e-08 -6.12863e-08 6.46427e-08)
(2.82215e-08 -7.0006e-08 7.72565e-08)
(3.25677e-08 -7.96175e-08 9.17491e-08)
(3.78715e-08 -9.02844e-08 1.0817e-07)
(4.44313e-08 -1.0204e-07 1.26158e-07)
(5.1809e-08 -1.13659e-07 1.43374e-07)
(5.93743e-08 -1.23935e-07 1.57036e-07)
(0 0 0)
(2.93159e-09 -6.18483e-09 5.07394e-09)
(5.57434e-09 -1.18909e-08 9.843e-09)
(8.01181e-09 -1.7395e-08 1.461e-08)
(1.03176e-08 -2.29248e-08 1.96348e-08)
(1.25598e-08 -2.86708e-08 2.51511e-08)
(1.4805e-08 -3.47941e-08 3.13762e-08)
(1.71215e-08 -4.14337e-08 3.85176e-08)
(1.95843e-08 -4.8714e-08 4.67763e-08)
(2.228e-08 -5.67546e-08 5.63475e-08)
(2.53146e-08 -6.56838e-08 6.74168e-08)
(2.88265e-08 -7.56611e-08 8.01551e-08)
(3.30093e-08 -8.69101e-08 9.47074e-08)
(3.81336e-08 -9.97435e-08 1.11144e-07)
(4.44886e-08 -1.14463e-07 1.29243e-07)
(5.13734e-08 -1.29597e-07 1.46554e-07)
(6.3195e-08 -1.50689e-07 1.66029e-07)
(0 0 0)
(0 0 0)
(0 0 0)
(0 0 0)
(0 0 0)
(0 0 0)
(0 0 0)
(0 0 0)
(0 0 0)
(0 0 0)
(0 0 0)
(0 0 0)
(0 0 0)
(0 0 0)
(0 0 0)
(0 0 0)
(6.06153e-09 6.69071e-09 2.85148e-09)
(0 0 0)
(4.78789e-10 -1.13481e-09 7.68967e-10)
(9.14478e-10 -2.17126e-09 1.49673e-09)
(1.32469e-09 -3.15079e-09 2.2343e-09)
(1.72533e-09 -4.10405e-09 3.02646e-09)
(2.13139e-09 -5.05002e-09 3.91396e-09)
(2.55788e-09 -5.99417e-09 4.93462e-09)
(3.02126e-09 -6.92519e-09 6.12326e-09)
(3.54154e-09 -7.8091e-09 7.51016e-09)
(4.14608e-09 -8.57978e-09 9.11685e-09)
(4.8778e-09 -9.12422e-09 1.09479e-08)
(5.81255e-09 -9.26049e-09 1.29765e-08)
(7.09306e-09 -8.70603e-09 1.51183e-08)
(8.97707e-09 -7.04282e-09 1.71805e-08)
(1.18112e-08 -3.77234e-09 1.87497e-08)
(1.54131e-08 9.20494e-10 1.90796e-08)
(1.77266e-08 5.87486e-09 1.47203e-08)
(0 0 0)
(9.45539e-10 -2.23595e-09 1.5179e-09)
(1.80557e-09 -4.27948e-09 2.95396e-09)
(2.61445e-09 -6.21354e-09 4.40843e-09)
(3.403e-09 -8.10002e-09 5.96905e-09)
(4.20013e-09 -9.9789e-09 7.7157e-09)
(5.03451e-09 -1.18652e-08 9.72249e-09)
(5.93657e-09 -1.37436e-08 1.20578e-08)
(6.94111e-09 -1.55589e-08 1.4781e-08)
(8.09126e-09 -1.72016e-08 1.7934e-08)
(9.44547e-09 -1.84886e-08 2.15234e-08)
(1.10906e-08 -1.91449e-08 2.54887e-08)
(1.31595e-08 -1.88074e-08 2.96428e-08)
(1.58273e-08 -1.71203e-08 3.35644e-08)
(1.91606e-08 -1.40974e-08 3.643e-08)
(2.25061e-08 -1.09552e-08 3.71206e-08)
(2.44629e-08 -1.10782e-08 3.36484e-08)
(0 0 0)
(1.38914e-09 -3.27053e-09 2.2285e-09)
(2.65172e-09 -6.26289e-09 4.33566e-09)
(3.83719e-09 -9.10139e-09 6.46751e-09)
(4.98964e-09 -1.18804e-08 8.75158e-09)
(6.1503e-09 -1.46643e-08 1.13039e-08)
(7.35939e-09 -1.74847e-08 1.42325e-08)
(8.65816e-09 -2.03344e-08 1.76376e-08)
(1.00904e-08 -2.31574e-08 2.1607e-08)
(1.17029e-08 -2.58345e-08 2.62048e-08)
(1.35441e-08 -2.81657e-08 3.14462e-08)
(1.56583e-08 -2.98626e-08 3.72514e-08)
(1.80679e-08 -3.05851e-08 4.33648e-08)
(2.07193e-08 -3.01059e-08 4.9221e-08)
(2.33468e-08 -2.8734e-08 5.3784e-08)
(2.52661e-08 -2.77824e-08 5.57438e-08)
(2.50176e-08 -2.95407e-08 5.3055e-08)
(0 0 0)
(1.79942e-09 -4.20501e-09 2.88393e-09)
(3.43313e-09 -8.05768e-09 5.60858e-09)
(4.96338e-09 -1.17229e-08 8.36067e-09)
(6.44552e-09 -1.53283e-08 1.1303e-08)
(7.93098e-09 -1.89661e-08 1.45834e-08)
(9.46946e-09 -2.26916e-08 1.83401e-08)
(1.11105e-08 -2.65188e-08 2.2702e-08)
(1.29038e-08 -3.04123e-08 2.77846e-08)
(1.48953e-08 -3.42755e-08 3.36767e-08)
(1.71172e-08 -3.79353e-08 4.04119e-08)
(1.95623e-08 -4.11348e-08 4.79151e-08)
(2.21327e-08 -4.35552e-08 5.59063e-08)
(2.45436e-08 -4.4925e-08 6.37391e-08)
(2.62144e-08 -4.53038e-08 7.01928e-08)
(2.64567e-08 -4.54319e-08 7.35951e-08)
(2.41506e-08 -4.7161e-08 7.1588e-08)
(0 0 0)
(2.16788e-09 -5.00631e-09 3.47012e-09)
(4.13325e-09 -9.60035e-09 6.74481e-09)
(5.9685e-09 -1.39853e-08 1.00452e-08)
(7.73775e-09 -1.83217e-08 1.35633e-08)
(9.50042e-09 -2.27314e-08 1.74736e-08)
(1.13136e-08 -2.72988e-08 2.19388e-08)
(1.32338e-08 -3.20692e-08 2.71119e-08)
(1.53164e-08 -3.70445e-08 3.31328e-08)
(1.76113e-08 -4.21762e-08 4.01158e-08)
(2.01484e-08 -4.73539e-08 4.81215e-08)
(2.29068e-08 -5.23921e-08 5.71033e-08)
(2.57487e-08 -5.70128e-08 6.68055e-08)
(2.83001e-08 -6.08272e-08 7.6577e-08)
(2.98141e-08 -6.33544e-08 8.5083e-08)
(2.94516e-08 -6.42929e-08 9.02453e-08)
(2.57062e-08 -6.4731e-08 8.92389e-08)
(0 0 0)
(2.48803e-09 -5.64287e-09 3.97633e-09)
(4.73959e-09 -1.08299e-08 7.72321e-09)
(6.83415e-09 -1.57983e-08 1.14887e-08)
(8.84189e-09 -2.0739e-08 1.54875e-08)
(1.08276e-08 -2.58027e-08 1.99134e-08)
(1.28536e-08 -3.11043e-08 2.4947e-08)
(1.49818e-08 -3.67247e-08 3.07585e-08)
(1.72742e-08 -4.27116e-08 3.75054e-08)
(1.97909e-08 -4.90785e-08 4.53226e-08)
(2.25804e-08 -5.58025e-08 5.42982e-08)
(2.56599e-08 -6.28161e-08 6.4426e-08)
(2.89691e-08 -6.99807e-08 7.55109e-08)
(3.22766e-08 -7.69961e-08 8.69726e-08)
(3.50177e-08 -8.31765e-08 9.74791e-08)
(3.62503e-08 -8.71924e-08 1.046e-07)
(3.34703e-08 -8.66737e-08 1.05174e-07)
(0 0 0)
(2.75567e-09 -6.08617e-09 4.39569e-09)
(5.24423e-09 -1.16908e-08 8.53045e-09)
(7.549e-09 -1.7079e-08 1.26713e-08)
(9.74314e-09 -2.24663e-08 1.70477e-08)
(1.1894e-08 -2.80287e-08 2.18656e-08)
(1.4066e-08 -3.39084e-08 2.73149e-08)
(1.63237e-08 -4.0219e-08 3.35738e-08)
(1.87341e-08 -4.70507e-08 4.0807e-08)
(2.13673e-08 -5.4475e-08 4.9158e-08)
(2.42964e-08 -6.2553e-08 5.87293e-08)
(2.75947e-08 -7.13443e-08 6.95439e-08)
(3.13276e-08 -8.09128e-08 8.14643e-08)
(3.55292e-08 -9.12937e-08 9.40091e-08)
(4.01032e-08 -1.02289e-07 1.05943e-07)
(4.43739e-08 -1.12524e-07 1.14618e-07)
(4.72598e-08 -1.20528e-07 1.16091e-07)
(0 0 0)
(2.96904e-09 -6.31241e-09 4.72554e-09)
(5.64436e-09 -1.21372e-08 9.162e-09)
(8.10967e-09 -1.77579e-08 1.35869e-08)
(1.04379e-08 -2.34076e-08 1.82368e-08)
(1.26956e-08 -2.92803e-08 2.33214e-08)
(1.4946e-08 -3.55383e-08 2.90317e-08)
(1.7252e-08 -4.23191e-08 3.55431e-08)
(1.96793e-08 -4.97414e-08 4.30146e-08)
(2.22995e-08 -5.79126e-08 5.15811e-08)
(2.51926e-08 -6.69371e-08 6.13355e-08)
(2.84512e-08 -7.69295e-08 7.22945e-08)
(3.21808e-08 -8.80261e-08 8.43278e-08)
(3.64811e-08 -1.0037e-07 9.70003e-08)
(4.13319e-08 -1.13954e-07 1.09242e-07)
(4.58895e-08 -1.27136e-07 1.1844e-07)
(5.26556e-08 -1.4413e-07 1.2005e-07)
(0 0 0)
(0 0 0)
(0 0 0)
(0 0 0)
(0 0 0)
(0 0 0)
(0 0 0)
(0 0 0)
(0 0 0)
(0 0 0)
(0 0 0)
(0 0 0)
(0 0 0)
(0 0 0)
(0 0 0)
(0 0 0)
(3.20747e-09 3.08453e-09 1.65629e-09)
(0 0 0)
(4.8132e-10 -1.15501e-09 6.84469e-10)
(9.18525e-10 -2.21031e-09 1.33148e-09)
(1.32846e-09 -3.20846e-09 1.98565e-09)
(1.72589e-09 -4.18119e-09 2.68567e-09)
(2.12398e-09 -5.14873e-09 3.46607e-09)
(2.53483e-09 -6.11845e-09 4.35768e-09)
(2.96998e-09 -7.08237e-09 5.38695e-09)
(3.44109e-09 -8.01301e-09 6.57317e-09)
(3.96097e-09 -8.85742e-09 7.92251e-09)
(4.54632e-09 -9.52986e-09 9.41664e-09)
(5.22416e-09 -9.9046e-09 1.09925e-08)
(6.04376e-09 -9.81298e-09 1.25076e-08)
(7.0869e-09 -9.05263e-09 1.36845e-08)
(8.42742e-09 -7.44218e-09 1.40513e-08)
(9.85205e-09 -5.13827e-09 1.31323e-08)
(1.01881e-08 -1.78208e-09 9.86972e-09)
(0 0 0)
(9.50747e-10 -2.27559e-09 1.35116e-09)
(1.81403e-09 -4.35605e-09 2.62795e-09)
(2.62274e-09 -6.32649e-09 3.91802e-09)
(3.40559e-09 -8.25085e-09 5.29729e-09)
(4.18812e-09 -1.01713e-08 6.83341e-09)
(4.99354e-09 -1.21062e-08 8.58697e-09)
(5.8433e-09 -1.40456e-08 1.06101e-08)
(6.75713e-09 -1.59449e-08 1.29413e-08)
(7.75239e-09 -1.77153e-08 1.55938e-08)
(8.84312e-09 -1.92158e-08 1.85339e-08)
(1.00384e-08 -2.02531e-08 2.16428e-08)
(1.13371e-08 -2.06134e-08 2.46532e-08)
(1.27023e-08 -2.01696e-08 2.70607e-08)
(1.39758e-08 -1.91219e-08 2.80773e-08)
(1.47501e-08 -1.82532e-08 2.71036e-08)
(1.46941e-08 -1.90765e-08 2.45628e-08)
(0 0 0)
(1.39732e-09 -3.32817e-09 1.98384e-09)
(2.6653e-09 -6.37412e-09 3.85747e-09)
(3.85143e-09 -9.26525e-09 5.74859e-09)
(4.99699e-09 -1.20986e-08 7.76758e-09)
(6.1387e-09 -1.49415e-08 1.00129e-08)
(7.30961e-09 -1.7829e-08 1.2573e-08)
(8.53918e-09 -2.07599e-08 1.55247e-08)
(9.85176e-09 -2.3689e-08 1.89266e-08)
(1.12619e-08 -2.65182e-08 2.28031e-08)
(1.27646e-08 -2.90891e-08 2.7116e-08)
(1.43157e-08 -3.11917e-08 3.17147e-08)
(1.57978e-08 -3.2619e-08 3.62605e-08)
(1.69639e-08 -3.33249e-08 4.01346e-08)
(1.74004e-08 -3.37035e-08 4.24325e-08)
(1.67837e-08 -3.45913e-08 4.25089e-08)
(1.49253e-08 -3.69236e-08 4.09683e-08)
(0 0 0)
(1.81094e-09 -4.2786e-09 2.5676e-09)
(3.45271e-09 -8.19957e-09 4.99059e-09)
(4.98536e-09 -1.19315e-08 7.43232e-09)
(6.46102e-09 -1.56053e-08 1.00337e-08)
(7.92609e-09 -1.9316e-08 1.29205e-08)
(9.42215e-09 -2.3122e-08 1.6206e-08)
(1.09857e-08 -2.70417e-08 1.999e-08)
(1.2645e-08 -3.10476e-08 2.4351e-08)
(1.44119e-08 -3.50576e-08 2.93289e-08)
(1.62629e-08 -3.89279e-08 3.48923e-08)
(1.81032e-08 -4.24559e-08 4.08839e-08)
(1.97028e-08 -4.54151e-08 4.69368e-08)
(2.06091e-08 -4.76584e-08 5.23753e-08)
(2.01421e-08 -4.9308e-08 5.62004e-08)
(1.8e-08 -5.07819e-08 5.75687e-08)
(1.43297e-08 -5.29287e-08 5.69955e-08)
(0 0 0)
(2.18309e-09 -5.09329e-09 3.08992e-09)
(4.15969e-09 -9.76791e-09 6.00252e-09)
(5.99997e-09 -1.42313e-08 8.93128e-09)
(7.76485e-09 -1.86472e-08 1.20427e-08)
(9.50859e-09 -2.31403e-08 1.54849e-08)
(1.12801e-08 -2.77966e-08 1.93922e-08)
(1.31228e-08 -3.26633e-08 2.38833e-08)
(1.50713e-08 -3.77445e-08 2.9055e-08)
(1.71421e-08 -4.29959e-08 3.49639e-08)
(1.93126e-08 -4.83162e-08 4.15936e-08)
(2.148e-08 -5.35379e-08 4.87971e-08)
(2.33851e-08 -5.84157e-08 5.62081e-08)
(2.45006e-08 -6.26097e-08 6.31256e-08)
(2.39905e-08 -6.56756e-08 6.84587e-08)
(2.13766e-08 -6.71944e-08 7.11116e-08)
(1.63852e-08 -6.75491e-08 7.1475e-08)
(0 0 0)
(2.50717e-09 -5.74024e-09 3.54125e-09)
(4.77353e-09 -1.10173e-08 6.87445e-09)
(6.87655e-09 -1.60731e-08 1.02168e-08)
(8.88342e-09 -2.11016e-08 1.37543e-08)
(1.08542e-08 -2.62557e-08 1.76522e-08)
(1.28435e-08 -3.16507e-08 2.20594e-08)
(1.49013e-08 -3.73661e-08 2.71087e-08)
(1.70706e-08 -4.34456e-08 3.291e-08)
(1.93817e-08 -4.98953e-08 3.95334e-08)
(2.18363e-08 -5.66792e-08 4.69773e-08)
(2.43784e-08 -6.37078e-08 5.51111e-08)
(2.68369e-08 -7.08044e-08 6.35807e-08)
(2.88342e-08 -7.76088e-08 7.1671e-08)
(2.97075e-08 -8.33652e-08 7.81885e-08)
(2.88404e-08 -8.67581e-08 8.17661e-08)
(2.49024e-08 -8.51404e-08 8.28459e-08)
(0 0 0)
(2.7788e-09 -6.19054e-09 3.91543e-09)
(5.28595e-09 -1.18917e-08 7.59445e-09)
(7.6031e-09 -1.73731e-08 1.12709e-08)
(9.80085e-09 -2.28537e-08 1.51439e-08)
(1.19424e-08 -2.85108e-08 1.9389e-08)
(1.40856e-08 -3.44856e-08 2.41635e-08)
(1.62848e-08 -4.08876e-08 2.96065e-08)
(1.85907e-08 -4.77977e-08 3.58331e-08)
(2.10483e-08 -5.52705e-08 4.29186e-08)
(2.36912e-08 -6.33363e-08 5.08682e-08)
(2.65301e-08 -7.20002e-08 5.95603e-08)
(2.95312e-08 -8.12287e-08 6.86492e-08)
(3.25867e-08 -9.08917e-08 7.74012e-08)
(3.54764e-08 -1.00566e-07 8.44923e-08)
(3.77782e-08 -1.08883e-07 8.8199e-08)
(3.96281e-08 -1.1409e-07 8.85621e-08)
(0 0 0)
(2.99603e-09 -6.42015e-09 4.21002e-09)
(5.69371e-09 -1.23445e-08 8.15833e-09)
(8.17547e-09 -1.80614e-08 1.20881e-08)
(1.05123e-08 -2.3807e-08 1.62048e-08)
(1.27673e-08 -2.97761e-08 2.06876e-08)
(1.49983e-08 -3.61292e-08 2.56949e-08)
(1.726e-08 -4.29977e-08 3.13638e-08)
(1.96051e-08 -5.04881e-08 3.78053e-08)
(2.2085e-08 -5.86849e-08 4.50885e-08)
(2.47485e-08 -6.76536e-08 5.32117e-08)
(2.76381e-08 -7.74405e-08 6.20493e-08)
(3.07784e-08 -8.80654e-08 7.12582e-08)
(3.41507e-08 -9.94832e-08 8.01217e-08)
(3.76184e-08 -1.11444e-07 8.73604e-08)
(4.05599e-08 -1.22407e-07 9.11735e-08)
(4.54188e-08 -1.35779e-07 8.90367e-08)
(0 0 0)
(0 0 0)
(0 0 0)
(0 0 0)
(0 0 0)
(0 0 0)
(0 0 0)
(0 0 0)
(0 0 0)
(0 0 0)
(0 0 0)
(0 0 0)
(0 0 0)
(0 0 0)
(0 0 0)
(0 0 0)
(1.90415e-09 1.56997e-09 1.65437e-09)
(0 0 0)
(4.82288e-10 -1.17162e-09 5.76451e-10)
(9.19512e-10 -2.24241e-09 1.12078e-09)
(1.32761e-09 -3.25587e-09 1.66992e-09)
(1.72008e-09 -4.2446e-09 2.25554e-09)
(2.10815e-09 -5.22987e-09 2.90523e-09)
(2.50087e-09 -6.22062e-09 3.64265e-09)
(2.90508e-09 -7.21172e-09 4.48643e-09)
(3.32485e-09 -8.18107e-09 5.44706e-09)
(3.76077e-09 -9.08594e-09 6.5209e-09)
(4.20972e-09 -9.85966e-09 7.67975e-09)
(4.66699e-09 -1.04106e-08 8.85455e-09)
(5.13276e-09 -1.06253e-08 9.91359e-09)
(5.62324e-09 -1.0373e-08 1.06433e-08)
(6.16955e-09 -9.50464e-09 1.07729e-08)
(6.71888e-09 -7.97684e-09 1.01916e-08)
(6.78255e-09 -4.83297e-09 8.56267e-09)
(0 0 0)
(9.52914e-10 -2.30817e-09 1.138e-09)
(1.81653e-09 -4.41897e-09 2.21223e-09)
(2.62203e-09 -6.41925e-09 3.29527e-09)
(3.39572e-09 -8.37454e-09 4.44924e-09)
(4.15954e-09 -1.03288e-08 5.72827e-09)
(4.93113e-09 -1.2303e-08 7.17893e-09)
(5.72328e-09 -1.42918e-08 8.83812e-09)
(6.54209e-09 -1.62589e-08 1.07273e-08)
(7.38361e-09 -1.81314e-08 1.28411e-08)
(8.22902e-09 -1.97968e-08 1.5128e-08)
(9.03928e-09 -2.11093e-08 1.74607e-08)
(9.75034e-09 -2.19215e-08 1.9599e-08)
(1.0273e-08 -2.21586e-08 2.11638e-08)
(1.05066e-08 -2.19378e-08 2.17051e-08)
(1.0416e-08 -2.16365e-08 2.11212e-08)
(1.04147e-08 -2.20839e-08 2.02425e-08)
(0 0 0)
(1.4011e-09 -3.37551e-09 1.67102e-09)
(2.67025e-09 -6.46541e-09 3.24757e-09)
(3.85259e-09 -9.39945e-09 4.8354e-09)
(4.98618e-09 -1.22768e-08 6.52486e-09)
(6.10293e-09 -1.51667e-08 8.3948e-09)
(7.22852e-09 -1.81072e-08 1.05134e-08)
(8.38111e-09 -2.11014e-08 1.29356e-08)
(9.56765e-09 -2.41123e-08 1.5695e-08)
(1.07765e-08 -2.70567e-08 1.87894e-08)
(1.19643e-08 -2.98026e-08 2.21552e-08)
(1.30367e-08 -3.21811e-08 2.56311e-08)
(1.38219e-08 -3.40362e-08 2.89169e-08)
(1.40594e-08 -3.53398e-08 3.15593e-08)
(1.34782e-08 -3.63603e-08 3.30666e-08)
(1.21937e-08 -3.75681e-08 3.33495e-08)
(1.07887e-08 -3.9522e-08 3.33198e-08)
(0 0 0)
(1.81684e-09 -4.33894e-09 2.163e-09)
(3.46125e-09 -8.31573e-09 4.20209e-09)
(4.99056e-09 -1.21018e-08 6.25255e-09)
(6.45321e-09 -1.58301e-08 8.42981e-09)
(7.89012e-09 -1.95977e-08 1.08347e-08)
(9.33458e-09 -2.34651e-08 1.35548e-08)
(1.08105e-08 -2.74531e-08 1.66618e-08)
(1.23273e-08 -3.15388e-08 2.02025e-08)
(1.38692e-08 -3.56485e-08 2.4182e-08)
(1.5375e-08 -3.9653e-08 2.85352e-08)
(1.67044e-08 -4.33715e-08 3.3087e-08)
(1.75889e-08 -4.66002e-08 3.75102e-08)
(1.75957e-08 -4.91852e-08 4.13168e-08)
(1.62364e-08 -5.11439e-08 4.39798e-08)
(1.36522e-08 -5.26659e-08 4.53021e-08)
(1.07043e-08 -5.43958e-08 4.61228e-08)
(0 0 0)
(2.1916e-09 -5.16442e-09 2.60341e-09)
(4.17297e-09 -9.90462e-09 5.05494e-09)
(6.01146e-09 -1.4431e-08 7.51486e-09)
(7.76413e-09 -1.89096e-08 1.01196e-08)
(9.47966e-09 -2.34661e-08 1.29883e-08)
(1.11985e-08 -2.81874e-08 1.62247e-08)
(1.29515e-08 -3.31198e-08 1.99147e-08)
(1.47545e-08 -3.82666e-08 2.41172e-08)
(1.65981e-08 -4.35813e-08 2.88463e-08)
(1.84251e-08 -4.89598e-08 3.40411e-08)
(2.00938e-08 -5.42288e-08 3.95231e-08)
(2.13187e-08 -5.91285e-08 4.495e-08)
(2.16097e-08 -6.32831e-08 4.98025e-08)
(2.03364e-08 -6.61746e-08 5.34942e-08)
(1.74426e-08 -6.73235e-08 5.56969e-08)
(1.33395e-08 -6.7074e-08 5.72283e-08)
(0 0 0)
(2.51869e-09 -5.81962e-09 2.98418e-09)
(4.79253e-09 -1.11696e-08 5.79025e-09)
(6.89625e-09 -1.6295e-08 8.59815e-09)
(8.89339e-09 -2.13917e-08 1.15605e-08)
(1.08387e-08 -2.66131e-08 1.48102e-08)
(1.27788e-08 -3.20731e-08 1.84629e-08)
(1.47517e-08 -3.78473e-08 2.26145e-08)
(1.67838e-08 -4.39718e-08 2.73327e-08)
(1.88817e-08 -5.04399e-08 3.26383e-08)
(2.10171e-08 -5.71938e-08 3.84743e-08)
(2.31008e-08 -6.41081e-08 4.4659e-08)
(2.4941e-08 -7.09486e-08 5.08311e-08)
(2.61976e-08 -7.72746e-08 5.64161e-08)
(2.63998e-08 -8.22575e-08 6.07135e-08)
(2.53236e-08 -8.46822e-08 6.32592e-08)
(2.23199e-08 -8.22136e-08 6.50709e-08)
(0 0 0)
(2.79357e-09 -6.27538e-09 3.30007e-09)
(5.31129e-09 -1.20543e-08 6.39788e-09)
(7.63236e-09 -1.76096e-08 9.48725e-09)
(9.82412e-09 -2.31617e-08 1.27317e-08)
(1.19449e-08 -2.88876e-08 1.62727e-08)
(1.40457e-08 -3.49256e-08 2.02325e-08)
(1.61703e-08 -4.13783e-08 2.47118e-08)
(1.83547e-08 -4.83137e-08 2.97814e-08)
(2.06239e-08 -5.57645e-08 3.54636e-08)
(2.29859e-08 -6.37244e-08 4.17005e-08)
(2.54223e-08 -7.21391e-08 4.83032e-08)
(2.7879e-08 -8.08829e-08 5.48839e-08)
(3.02723e-08 -8.97016e-08 6.07893e-08)
(3.2532e-08 -9.80711e-08 6.51278e-08)
(3.45775e-08 -1.04819e-07 6.71927e-08)
(3.71955e-08 -1.08661e-07 6.80482e-08)
(0 0 0)
(3.01411e-09 -6.50748e-09 3.54898e-09)
(5.72562e-09 -1.25118e-08 6.87421e-09)
(8.21491e-09 -1.83044e-08 1.01774e-08)
(1.05502e-08 -2.41228e-08 1.36275e-08)
(1.27905e-08 -3.01607e-08 1.7369e-08)
(1.49879e-08 -3.65746e-08 2.15253e-08)
(1.71881e-08 -4.34872e-08 2.61961e-08)
(1.94318e-08 -5.0989e-08 3.14488e-08)
(2.17539e-08 -5.91378e-08 3.73008e-08)
(2.41822e-08 -6.79557e-08 4.36882e-08)
(2.67345e-08 -7.74214e-08 5.04142e-08)
(2.94148e-08 -8.74553e-08 5.70788e-08)
(3.2213e-08 -9.78883e-08 6.29988e-08)
(3.50887e-08 -1.08388e-07 6.72137e-08)
(3.76845e-08 -1.17693e-07 6.88756e-08)
(4.28908e-08 -1.29453e-07 6.71609e-08)
(0 0 0)
(0 0 0)
(0 0 0)
(0 0 0)
(0 0 0)
(0 0 0)
(0 0 0)
(0 0 0)
(0 0 0)
(0 0 0)
(0 0 0)
(0 0 0)
(0 0 0)
(0 0 0)
(0 0 0)
(0 0 0)
(1.41362e-09 1.05009e-09 1.52636e-09)
(0 0 0)
(4.82232e-10 -1.18449e-09 4.49207e-10)
(9.18582e-10 -2.26725e-09 8.72992e-10)
(1.32415e-09 -3.29257e-09 1.29974e-09)
(1.71123e-09 -4.29369e-09 1.7535e-09)
(2.08926e-09 -5.29253e-09 2.25475e-09)
(2.46472e-09 -6.29916e-09 2.82035e-09)
(2.84065e-09 -7.31036e-09 3.46248e-09)
(3.21563e-09 -8.30752e-09 4.18593e-09)
(3.58242e-09 -9.25379e-09 4.98327e-09)
(3.92757e-09 -1.0092e-08 5.82759e-09)
(4.23419e-09 -1.07438e-08 6.66315e-09)
(4.49234e-09 -1.11093e-08 7.39774e-09)
(4.7219e-09 -1.10575e-08 7.90741e-09)
(4.99778e-09 -1.03961e-08 8.08062e-09)
(5.37873e-09 -8.97643e-09 7.92979e-09)
(5.5623e-09 -5.71221e-09 7.1172e-09)
(0 0 0)
(9.53076e-10 -2.33343e-09 8.86854e-10)
(1.8153e-09 -4.46773e-09 1.72327e-09)
(2.61617e-09 -6.49107e-09 2.565e-09)
(3.37975e-09 -8.47011e-09 3.45922e-09)
(4.12469e-09 -1.045e-08 4.44612e-09)
(4.8639e-09 -1.24535e-08 5.55899e-09)
(5.60324e-09 -1.44781e-08 6.82206e-09)
(6.33898e-09 -1.64927e-08 8.24548e-09)
(7.05381e-09 -1.84333e-08 9.81629e-09)
(7.71261e-09 -2.02001e-08 1.1485e-08)
(8.26068e-09 -2.16638e-08 1.3149e-08)
(8.63125e-09 -2.26854e-08 1.46392e-08)
(8.77453e-09 -2.31608e-08 1.57301e-08)
(8.72018e-09 -2.30897e-08 1.62189e-08)
(8.63344e-09 -2.2675e-08 1.61359e-08)
(9.04429e-09 -2.2623e-08 1.59329e-08)
(0 0 0)
(1.40194e-09 -3.41223e-09 1.30236e-09)
(2.6697e-09 -6.53614e-09 2.53005e-09)
(3.84609e-09 -9.5032e-09 3.76424e-09)
(4.96613e-09 -1.24139e-08 5.07358e-09)
(6.05738e-09 -1.5339e-08 6.51669e-09)
(7.13923e-09 -1.83179e-08 8.14244e-09)
(8.22086e-09 -2.13565e-08 9.98708e-09)
(9.2968e-09 -2.4422e-08 1.20675e-08)
(1.03394e-08 -2.74382e-08 1.43694e-08)
(1.12882e-08 -3.02826e-08 1.68297e-08)
(1.20371e-08 -3.2796e-08 1.9317e-08)
(1.2429e-08 -3.48174e-08 2.16194e-08)
(1.22829e-08 -3.62683e-08 2.34687e-08)
(1.15193e-08 -3.72833e-08 2.46512e-08)
(1.04619e-08 -3.82021e-08 2.52074e-08)
(9.74144e-09 -3.96018e-08 2.55755e-08)
(0 0 0)
(1.8189e-09 -4.3857e-09 1.68602e-09)
(3.46256e-09 -8.40558e-09 3.2741e-09)
(4.9856e-09 -1.2233e-08 4.86814e-09)
(6.43292e-09 -1.60023e-08 6.55581e-09)
(7.8405e-09 -1.98115e-08 8.41218e-09)
(9.23452e-09 -2.37219e-08 1.05002e-08)
(1.06289e-08 -2.77551e-08 1.28675e-08)
(1.20199e-08 -3.1889e-08 1.55387e-08)
(1.33756e-08 -3.60514e-08 1.85014e-08)
(1.46196e-08 -4.01137e-08 2.16872e-08)
(1.56076e-08 -4.38916e-08 2.49496e-08)
(1.61026e-08 -4.7162e-08 2.80541e-08)
(1.57818e-08 -4.97157e-08 3.07117e-08)
(1.43803e-08 -5.1468e-08 3.26958e-08)
(1.22265e-08 -5.25645e-08 3.39776e-08)
(1.01531e-08 -5.37324e-08 3.49231e-08)
(0 0 0)
(2.1954e-09 -5.21945e-09 2.02961e-09)
(4.17735e-09 -1.00101e-08 3.93922e-09)
(6.01029e-09 -1.45843e-08 5.85189e-09)
(7.74764e-09 -1.91093e-08 7.87134e-09)
(9.43293e-09 -2.37111e-08 1.00864e-08)
(1.10994e-08 -2.84758e-08 1.25717e-08)
(1.27678e-08 -3.34479e-08 1.53847e-08)
(1.44412e-08 -3.86263e-08 1.85569e-08)
(1.60954e-08 -4.39582e-08 2.20797e-08)
(1.76614e-08 -4.93277e-08 2.58825e-08)
(1.89997e-08 -5.45417e-08 2.98083e-08)
(1.98669e-08 -5.93059e-08 3.36027e-08)
(1.9897e-08 -6.31915e-08 3.69481e-08)
(1.86921e-08 -6.56283e-08 3.95818e-08)