/*--------------------------------*- C++ -*----------------------------------*\
| =========                 |                                                 |
| \\      /  F ield         | OpenFOAM: The Open Source CFD Toolbox           |
|  \\    /   O peration     | Version:  v1912                                 |
|   \\  /    A nd           | Website:  www.openfoam.com                      |
|    \\/     M anipulation  |                                                 |
\*---------------------------------------------------------------------------*/
FoamFile
{
    version     2.0;
    format      ascii;
    class       volVectorField;
    location    "0.71/solid";
    object      D;
}
// * * * * * * * * * * * * * * * * * * * * * * * * * * * * * * * * * * * * * //

dimensions      [0 1 0 0 0 0 0];


internalField   nonuniform List<vector> 
256
(
(2.68546e-08 3.85453e-08 2.92626e-08)
(3.39712e-09 2.24636e-08 2.6583e-08)
(-3.18382e-09 2.21347e-08 2.65109e-08)
(-2.58481e-08 3.71595e-08 2.9117e-08)
(4.37811e-08 3.00806e-08 5.60794e-08)
(8.83525e-09 2.03465e-08 5.25329e-08)
(-7.42069e-09 1.98211e-08 5.25175e-08)
(-4.13071e-08 2.832e-08 5.61123e-08)
(4.61824e-08 1.53582e-08 7.06775e-08)
(1.02831e-08 1.14943e-08 6.68692e-08)
(-7.39717e-09 1.08504e-08 6.69334e-08)
(-4.22477e-08 1.3347e-08 7.09335e-08)
(4.57286e-08 2.29591e-09 8.2003e-08)
(1.03385e-08 1.8221e-10 7.78046e-08)
(-5.85485e-09 -5.55283e-10 7.79269e-08)
(-4.02001e-08 3.44651e-11 8.24248e-08)
(4.65957e-08 -1.01189e-08 9.32323e-08)
(1.08662e-08 -1.29487e-08 8.85737e-08)
(-4.67239e-09 -1.37744e-08 8.87343e-08)
(-3.93445e-08 -1.26242e-08 9.37664e-08)
(5.09593e-08 -2.3898e-08 1.06038e-07)
(1.28519e-08 -2.81119e-08 1.00953e-07)
(-4.84385e-09 -2.90268e-08 1.01138e-07)
(-4.18866e-08 -2.6643e-08 1.06646e-07)
(6.10719e-08 -4.52071e-08 1.21571e-07)
(1.68847e-08 -4.85641e-08 1.16502e-07)
(-6.99892e-09 -4.95518e-08 1.167e-07)
(-5.01257e-08 -4.81515e-08 1.22221e-07)
(7.55677e-08 -9.80166e-08 1.3742e-07)
(2.13027e-08 -9.45297e-08 1.33322e-07)
(-9.60971e-09 -9.53569e-08 1.33518e-07)
(-6.27649e-08 -1.00572e-07 1.3807e-07)
(1.87067e-08 1.7586e-08 5.64968e-09)
(1.72624e-09 4.39937e-09 6.95272e-09)
(-1.54427e-09 4.17029e-09 7.03e-09)
(-1.77465e-08 1.64806e-08 5.87272e-09)
(3.07861e-08 1.20713e-08 2.23313e-08)
(5.58015e-09 3.92856e-09 2.48693e-08)
(-4.29487e-09 3.4387e-09 2.50299e-08)
(-2.84973e-08 1.04273e-08 2.27961e-08)
(3.21765e-08 2.22098e-09 3.61581e-08)
(6.62332e-09 -1.12484e-09 3.91117e-08)
(-3.97413e-09 -1.76769e-09 3.93398e-08)
(-2.85538e-08 2.3517e-10 3.68184e-08)
(3.14332e-08 -8.30228e-09 4.7252e-08)
(6.60891e-09 -1.02469e-08 5.02503e-08)
(-2.45504e-09 -1.09918e-08 5.0532e-08)
(-2.63136e-08 -1.05654e-08 4.80672e-08)
(3.20406e-08 -1.94316e-08 5.75518e-08)
(7.08388e-09 -2.21962e-08 6.0459e-08)
(-1.29246e-09 -2.30295e-08 6.07791e-08)
(-2.52655e-08 -2.19453e-08 5.84782e-08)
(3.61998e-08 -3.16712e-08 6.82235e-08)
(9.01842e-09 -3.59099e-08 7.10107e-08)
(-1.46602e-09 -3.68315e-08 7.13562e-08)
(-2.76453e-08 -3.44272e-08 6.92227e-08)
(4.64599e-08 -4.87231e-08 7.86852e-08)
(1.30648e-08 -5.20416e-08 8.14304e-08)
(-3.6688e-09 -5.30369e-08 8.17887e-08)
(-3.60531e-08 -5.16836e-08 7.97219e-08)
(6.17387e-08 -9.15326e-08 8.45976e-08)
(1.75397e-08 -8.7097e-08 8.73912e-08)
(-6.34756e-09 -8.79352e-08 8.77504e-08)
(-4.94812e-08 -9.41102e-08 8.56379e-08)
(1.31704e-08 1.11183e-08 2.709e-09)
(2.70432e-10 7.89639e-11 4.4539e-09)
(-1.55387e-10 -1.18467e-10 4.51429e-09)
(-1.23006e-08 1.01275e-08 2.88148e-09)
(2.16655e-08 2.88485e-09 1.38209e-08)
(2.62486e-09 -3.8575e-09 1.71156e-08)
(-1.5311e-09 -4.31066e-09 1.72499e-08)
(-1.95945e-08 1.36513e-09 1.42069e-08)
(2.23957e-08 -6.64016e-09 2.57358e-08)
(3.2787e-09 -9.4976e-09 2.95259e-08)
(-9.24393e-10 -1.01141e-08 2.97128e-08)
(-1.9095e-08 -8.53417e-09 2.62763e-08)
(2.15933e-08 -1.58187e-08 3.63954e-08)
(3.2149e-09 -1.76641e-08 4.02917e-08)
(5.60209e-10 -1.83923e-08 4.05203e-08)
(-1.68794e-08 -1.80204e-08 3.70589e-08)
(2.21578e-08 -2.50999e-08 4.59804e-08)
(3.66061e-09 -2.78838e-08 4.98653e-08)
(1.68599e-09 -2.87065e-08 5.01261e-08)
(-1.58505e-08 -2.75737e-08 4.67382e-08)
(2.63311e-08 -3.46384e-08 5.46875e-08)
(5.56746e-09 -3.89349e-08 5.8526e-08)
(1.49085e-09 -3.985e-08 5.88093e-08)
(-1.82851e-08 -3.73703e-08 5.55105e-08)
(3.67587e-08 -4.76647e-08 6.13783e-08)
(9.6251e-09 -5.10372e-08 6.51616e-08)
(-7.57351e-10 -5.2029e-08 6.54572e-08)
(-2.68828e-08 -5.06122e-08 6.2237e-08)
(5.22093e-08 -8.53343e-08 6.32477e-08)
(1.41238e-08 -8.09088e-08 6.70064e-08)
(-3.48181e-09 -8.17441e-08 6.73036e-08)
(-4.04931e-08 -8.78984e-08 6.41121e-08)
(1.06834e-08 9.10528e-09 2.54685e-09)
(-3.39201e-10 -6.97018e-10 3.66155e-09)
(4.07437e-10 -8.83443e-10 3.70255e-09)
(-9.89238e-09 8.17234e-09 2.66696e-09)
(1.74646e-08 -8.05645e-10 1.08046e-08)
(1.2689e-09 -6.71472e-09 1.29281e-08)
(-3.27838e-10 -7.14264e-09 1.30265e-08)
(-1.55818e-08 -2.23508e-09 1.10914e-08)
(1.79743e-08 -1.11368e-08 2.03007e-08)
(1.73357e-09 -1.37003e-08 2.27402e-08)
(3.75493e-10 -1.42892e-08 2.28795e-08)
(-1.49489e-08 -1.29408e-08 2.07085e-08)
(1.73156e-08 -1.99714e-08 2.94447e-08)
(1.68827e-09 -2.17794e-08 3.1931e-08)
(1.76715e-09 -2.24843e-08 3.21022e-08)
(-1.29483e-08 -2.20982e-08 2.99482e-08)
(1.80271e-08 -2.79345e-08 3.76027e-08)
(2.16731e-09 -3.07565e-08 4.00587e-08)
(2.8014e-09 -3.15613e-08 4.02553e-08)
(-1.21217e-08 -3.03514e-08 3.81821e-08)
(2.23179e-08 -3.54844e-08 4.43331e-08)
(4.08505e-09 -3.98354e-08 4.67457e-08)
(2.55131e-09 -4.07372e-08 4.69611e-08)
(-1.47128e-08 -3.81753e-08 4.49681e-08)
(3.27764e-08 -4.63526e-08 4.87143e-08)
(8.11726e-09 -4.98559e-08 5.10957e-08)
(2.95561e-10 -5.08376e-08 5.1322e-08)
(-2.33656e-08 -4.92703e-08 4.93819e-08)
(4.80687e-08 -8.18574e-08 4.95383e-08)
(1.2577e-08 -7.78594e-08 5.19673e-08)
(-2.41562e-09 -7.86866e-08 5.21947e-08)
(-3.68329e-08 -8.43955e-08 5.02113e-08)
(9.74073e-09 8.28791e-09 2.32768e-09)
(-4.84435e-10 -8.92775e-10 2.88673e-09)
(5.23822e-10 -1.07216e-09 2.91483e-09)
(-9.00457e-09 7.39506e-09 2.41072e-09)
(1.59194e-08 -2.15511e-09 8.5925e-09)
(8.84384e-10 -7.66077e-09 9.65327e-09)
(-4.83779e-11 -8.0708e-09 9.72312e-09)
(-1.4174e-08 -3.51884e-09 8.79726e-09)
(1.64513e-08 -1.29495e-08 1.57248e-08)
(1.30625e-09 -1.53888e-08 1.69289e-08)
(6.24229e-10 -1.59556e-08 1.70294e-08)
(-1.36325e-08 -1.46815e-08 1.60206e-08)
(1.59847e-08 -2.17507e-08 2.2796e-08)
(1.30789e-09 -2.35675e-08 2.39968e-08)
(1.90696e-09 -2.42512e-08 2.41212e-08)
(-1.18828e-08 -2.38112e-08 2.31643e-08)
(1.68737e-08 -2.90696e-08 2.90958e-08)
(1.83533e-09 -3.19301e-08 3.02553e-08)
(2.84331e-09 -3.27169e-08 3.03991e-08)
(-1.12807e-08 -3.14316e-08 2.95229e-08)
(2.12617e-08 -3.56575e-08 3.4045e-08)
(3.7661e-09 -4.00435e-08 3.5171e-08)
(2.54183e-09 -4.09309e-08 3.53295e-08)
(-1.4004e-08 -3.83056e-08 3.45165e-08)
(3.16607e-08 -4.56811e-08 3.70494e-08)
(7.75337e-09 -4.92868e-08 3.81724e-08)
(3.01134e-10 -5.02572e-08 3.83397e-08)
(-2.26217e-08 -4.85659e-08 3.75483e-08)
(4.67387e-08 -8.01856e-08 3.76878e-08)
(1.21588e-08 -7.65637e-08 3.88796e-08)
(-2.37991e-09 -7.7382e-08 3.90476e-08)
(-3.58921e-08 -8.26967e-08 3.81914e-08)
(9.38502e-09 7.89491e-09 1.83389e-09)
(-4.85964e-10 -9.84232e-10 2.08743e-09)
(5.07852e-10 -1.1584e-09 2.10601e-09)
(-8.68361e-09 7.03002e-09 1.88854e-09)
(1.54055e-08 -2.61293e-09 6.29979e-09)
(8.39259e-10 -7.94509e-09 6.7696e-09)
(-7.14071e-11 -8.3423e-09 6.81643e-09)
(-1.37506e-08 -3.92987e-09 6.43651e-09)
(1.60312e-08 -1.35007e-08 1.12467e-08)
(1.2746e-09 -1.5906e-08 1.17649e-08)
(5.34911e-10 -1.64566e-08 1.1833e-08)
(-1.33533e-08 -1.51799e-08 1.14465e-08)
(1.57211e-08 -2.22878e-08 1.61687e-08)
(1.31882e-09 -2.41303e-08 1.66663e-08)
(1.72791e-09 -2.47977e-08 1.67512e-08)
(-1.18047e-08 -2.42974e-08 1.64196e-08)
(1.67409e-08 -2.93811e-08 2.05484e-08)
(1.88146e-09 -3.22705e-08 2.10122e-08)
(2.59001e-09 -3.30428e-08 2.11107e-08)
(-1.13706e-08 -3.16987e-08 2.08414e-08)
(2.11809e-08 -3.56591e-08 2.39312e-08)
(3.81576e-09 -4.00591e-08 2.43764e-08)
(2.25391e-09 -4.09344e-08 2.44855e-08)
(-1.41749e-08 -3.82711e-08 2.42567e-08)
(3.15028e-08 -4.54495e-08 2.59655e-08)
(7.76085e-09 -4.91029e-08 2.64218e-08)
(3.0689e-11 -5.00635e-08 2.65374e-08)
(-2.27367e-08 -4.83056e-08 2.63115e-08)
(4.6406e-08 -7.94366e-08 2.65116e-08)
(1.21201e-08 -7.60318e-08 2.70232e-08)
(-2.6243e-09 -7.68422e-08 2.71392e-08)
(-3.58485e-08 -8.19243e-08 2.68614e-08)
(9.23327e-09 7.70673e-09 1.16043e-09)
(-4.68349e-10 -1.02604e-09 1.26768e-09)
(4.80277e-10 -1.19678e-09 1.27833e-09)
(-8.55204e-09 6.8593e-09 1.19152e-09)
(1.5219e-08 -2.74287e-09 3.84589e-09)
(8.58089e-10 -8.00416e-09 4.03788e-09)
(-1.30741e-10 -8.393e-09 4.06487e-09)
(-1.36179e-08 -4.02971e-09 3.92421e-09)
(1.59228e-08 -1.35833e-08 6.7545e-09)
(1.31275e-09 -1.59865e-08 6.95815e-09)
(4.22706e-10 -1.65266e-08 6.99758e-09)
(-1.33309e-08 -1.5228e-08 6.86974e-09)
(1.57113e-08 -2.23416e-08 9.63398e-09)
(1.38404e-09 -2.42068e-08 9.8204e-09)
(1.55726e-09 -2.48634e-08 9.86981e-09)
(-1.19108e-08 -2.43172e-08 9.77968e-09)
(1.68068e-08 -2.93871e-08 1.21924e-08)
(1.96547e-09 -3.22935e-08 1.23588e-08)
(2.37368e-09 -3.30559e-08 1.24165e-08)
(-1.15779e-08 -3.16743e-08 1.23634e-08)
(2.12683e-08 -3.5626e-08 1.41634e-08)
(3.89769e-09 -4.00276e-08 1.43223e-08)
(2.01773e-09 -4.08945e-08 1.43863e-08)
(-1.44243e-08 -3.82125e-08 1.43543e-08)
(3.15316e-08 -4.53974e-08 1.5362e-08)
(7.81341e-09 -4.90633e-08 1.55326e-08)
(-1.93779e-10 -5.00169e-08 1.56005e-08)
(-2.29432e-08 -4.82329e-08 1.55656e-08)
(4.63193e-08 -7.91196e-08 1.57373e-08)
(1.2141e-08 -7.58132e-08 1.59407e-08)
(-2.83151e-09 -7.6618e-08 1.60089e-08)
(-3.59516e-08 -8.15903e-08 1.59434e-08)
(9.17032e-09 7.63146e-09 3.9594e-10)
(-4.59e-10 -1.03981e-09 4.25796e-10)
(4.66428e-10 -1.20888e-09 4.2927e-10)
(-8.49835e-09 6.79236e-09 4.06036e-10)
(1.51466e-08 -2.76723e-09 1.29244e-09)
(8.70654e-10 -8.00259e-09 1.3446e-09)
(-1.62108e-10 -8.38731e-09 1.35342e-09)
(-1.35705e-08 -4.03939e-09 1.31794e-09)
(1.58891e-08 -1.35586e-08 2.25206e-09)
(1.33548e-09 -1.5965e-08 2.30584e-09)
(3.64992e-10 -1.64998e-08 2.31876e-09)
(-1.33377e-08 -1.51863e-08 2.2897e-09)
(1.5723e-08 -2.22957e-08 3.19802e-09)
(1.41895e-09 -2.41728e-08 3.24556e-09)
(1.47178e-09 -2.4824e-08 3.26178e-09)
(-1.19778e-08 -2.42543e-08 3.24577e-09)
(1.68515e-08 -2.93414e-08 4.03765e-09)
(2.00785e-09 -3.22552e-08 4.07882e-09)
(2.26706e-09 -3.30126e-08 4.09779e-09)
(-1.1691e-08 -3.16132e-08 4.09386e-09)
(2.132e-08 -3.56008e-08 4.68519e-09)
(3.93769e-09 -4.00007e-08 4.72452e-09)
(1.90215e-09 -4.08632e-08 4.74563e-09)
(-1.4555e-08 -3.81742e-08 4.74807e-09)
(3.15532e-08 -4.53933e-08 5.08272e-09)
(7.83886e-09 -4.90595e-08 5.12673e-09)
(-3.04007e-10 -5.00095e-08 5.14915e-09)
(-2.30521e-08 -4.82181e-08 5.14993e-09)
(4.62844e-08 -7.90044e-08 5.21621e-09)
(1.21506e-08 -7.57328e-08 5.27087e-09)
(-2.93335e-09 -7.65346e-08 5.29337e-09)
(-3.60106e-08 -8.14663e-08 5.28425e-09)
)
;

boundaryField
{
    interface
    {
        type            solidTraction;
        traction        nonuniform List<vector> 
192
(
(41.335 -0.35995 -2.74923)
(43.0645 -0.329077 -4.4451)
(44.6589 -0.055214 -5.05341)
(45.6806 0.378299 -5.21769)
(45.9972 0.757436 -5.17061)
(46.9138 1.42944 -5.03684)
(45.3506 1.94068 -4.65087)
(48.9299 4.37808 -4.3522)
(40.2787 -0.263258 -1.34874)
(41.068 -0.252785 -2.33772)
(42.0315 -0.0107257 -2.62672)
(42.7176 0.430363 -2.65347)
(42.7762 0.830697 -2.56055)
(43.5787 1.57137 -2.42127)
(41.7322 2.13732 -2.17243)
(45.4074 4.69493 -1.97466)
(42.843 -0.228241 -1.05864)
(43.536 -0.215584 -1.81178)
(44.4854 0.0206804 -2.02739)
(45.1844 0.483309 -2.042)
(45.1634 0.920758 -1.96544)
(45.884 1.74236 -1.85308)
(43.5943 2.3902 -1.67339)
(47.031 5.11752 -1.52291)
(43.0598 -0.175596 -0.643774)
(43.5675 -0.141671 -1.16596)
(44.3173 0.0960013 -1.30865)
(44.9018 0.563125 -1.30549)
(44.7616 1.01684 -1.23951)
(45.4034 1.87311 -1.15202)
(42.9546 2.55746 -1.03805)
(46.3205 5.32584 -0.947997)
(43.84 -0.150513 -0.469357)
(44.2942 -0.0955423 -0.850526)
(44.9545 0.151177 -0.955597)
(45.4877 0.626984 -0.953215)
(45.2712 1.09788 -0.90472)
(45.8377 1.98384 -0.839849)
(43.2169 2.70148 -0.76037)
(46.4391 5.51168 -0.69584)
(44.0495 -0.130993 -0.285396)
(44.455 -0.0583915 -0.535328)
(45.0379 0.196675 -0.604926)
(45.5209 0.67774 -0.602035)
(45.248 1.15821 -0.568644)
(45.7676 2.05911 -0.525065)
(43.0651 2.79407 -0.476232)
(46.2302 5.62504 -0.438278)
(44.3064 -0.121586 -0.167057)
(44.6947 -0.0369479 -0.313106)
(45.2368 0.225346 -0.354172)
(45.6922 0.710977 -0.352742)
(45.3837 1.19871 -0.333569)
(45.8682 2.10993 -0.307959)
(43.1019 2.85708 -0.280472)
(46.2136 5.70366 -0.257894)
(44.3704 -0.115783 -0.0493138)
(44.7464 -0.0249648 -0.0959556)
(45.2659 0.240531 -0.109276)
(45.7058 0.727591 -0.10866)
(45.3818 1.21824 -0.102432)
(45.8497 2.13322 -0.0940984)
(43.0639 2.88595 -0.0859567)
(46.1486 5.73898 -0.0789154)
(3.85424 0.915031 14.9863)
(6.55116 1.09954 10.8344)
(7.63371 0.930655 6.91067)
(8.02087 0.683798 5.34724)
(8.14338 0.57648 5.02234)
(8.24365 0.614284 5.71274)
(8.38303 0.750806 7.61451)
(9.19778 0.961856 9.22098)
(2.29354 0.546771 19.0274)
(4.39419 0.831474 18.0993)
(5.1691 0.725608 16.7702)
(5.41135 0.450754 16.3173)
(5.48881 0.267507 16.2146)
(5.61336 0.169769 16.4988)
(5.92048 0.187988 17.122)
(6.99716 0.268822 17.496)
(2.29244 0.398327 16.1955)
(4.4371 0.666947 15.4897)
(5.25984 0.584535 14.247)
(5.52604 0.289233 13.7839)
(5.60064 0.055923 13.7008)
(5.69399 -0.133352 13.9761)
(5.94277 -0.234933 14.669)
(6.97396 -0.246645 15.4814)
(2.53671 0.326269 16.5267)
(5.0746 0.566746 16.1143)
(6.11616 0.481588 15.0398)
(6.47124 0.166473 14.6964)
(6.56682 -0.0880371 14.7098)
(6.68363 -0.319658 14.9588)
(6.8835 -0.489756 15.4677)
(7.9617 -0.648836 16.1122)
(-8.10744 0.795747 0.723958)
(-5.34825 0.992101 1.43721)
(-2.6254 0.687078 1.66982)
(-1.27729 0.147089 1.77342)
(-0.842689 -0.141764 1.84417)
(0.549256 -0.543479 2.07276)
(-0.0736547 -0.511315 2.25633)
(8.50229 -2.70387 2.83689)
(-12.4345 0.326328 -0.289188)
(-11.8845 0.444784 -0.240729)
(-11.0534 0.291888 -0.306668)
(-10.4736 -0.0274113 -0.318193)
(-10.2962 -0.117891 -0.260745)
(-8.76604 -0.358155 -0.0344598)
(-8.84826 -0.0974735 0.24902)
(-0.0347178 -2.14559 0.698287)
(-12.7143 0.185578 -0.141222)
(-12.3192 0.232668 -0.000393624)
(-11.6742 0.14613 0.051874)
(-11.0465 -0.0592186 0.105107)
(-10.7719 -0.0319821 0.186113)
(-8.87289 -0.181191 0.368432)
(-8.63406 0.192965 0.5587)
(0.791568 -1.95703 0.810513)
(-14.103 0.0913637 -0.167367)
(-13.9349 0.0876655 -0.0446864)
(-13.6023 0.0467485 0.0229459)
(-13.0422 -0.0653611 0.0808582)
(-12.7299 0.0616533 0.150129)
(-10.5719 -0.00418833 0.282209)
(-9.98846 0.44717 0.408891)
(-0.23253 -1.7227 0.560218)
(-14.3877 0.0760325 -0.0512162)
(-14.214 0.0550497 0.0902432)
(-13.909 0.0340734 0.179392)
(-13.2974 -0.0367418 0.240499)
(-12.9081 0.13894 0.295459)
(-10.5866 0.108664 0.37787)
(-9.86741 0.581129 0.440766)
(0.0658535 -1.643 0.508248)
(-14.824 0.0710234 -0.0347083)
(-14.6569 0.044849 0.0716358)
(-14.3734 0.0369815 0.143325)
(-13.7299 -0.00873003 0.189306)
(-13.2908 0.198078 0.227252)
(-10.8582 0.190424 0.278548)
(-10.0345 0.672324 0.313935)
(0.0298857 -1.5819 0.349832)
(-14.9449 0.0744476 -0.00383429)
(-14.7627 0.04857 0.0664689)
(-14.4674 0.0472612 0.113472)
(-13.7903 0.0119975 0.142273)
(-13.3164 0.232933 0.164358)
(-10.823 0.233891 0.191109)
(-9.95596 0.717504 0.207306)
(0.180088 -1.56057 0.221248)
(-15.0527 0.0752298 -0.00511949)
(-14.8684 0.0501061 0.0171265)
(-14.5699 0.0524094 0.0327257)
(-13.8794 0.0224198 0.0422439)
(-13.3869 0.250135 0.049709)
(-10.8636 0.255729 0.058494)
(-9.96675 0.740261 0.064353)
(0.201613 -1.54785 0.0689477)
(9.2572 -8.67913 -0.826722)
(8.47472 -6.80094 -0.612263)
(8.39037 -4.32207 -0.418533)
(8.37707 -2.7876 -0.273264)
(8.43621 -1.59627 -0.194372)
(8.47356 -0.76147 -0.119815)
(8.50824 -0.23165 -0.071593)
(8.523 0.0227781 -0.021621)
(7.0256 -17.0603 -0.106733)
(5.95173 -16.5553 -0.0180338)
(5.65264 -15.5793 0.0704611)
(5.54053 -14.8769 0.0886887)
(5.51642 -14.2735 0.0809764)
(5.50091 -13.8352 0.0643716)
(5.50058 -13.5474 0.0392482)
(5.49905 -13.3971 0.0143556)
(7.00066 -15.0704 0.423981)
(5.95862 -14.1237 0.423275)
(5.70984 -13.0842 0.394928)
(5.63325 -12.3924 0.322335)
(5.62811 -11.7783 0.253293)
(5.62363 -11.371 0.177821)
(5.6287 -11.0894 0.10596)
(5.62891 -10.9602 0.0349345)
(7.95606 -15.7481 0.828621)
(6.86432 -15.0063 0.681609)
(6.65889 -14.246 0.577533)
(6.56473 -13.7123 0.453492)
(6.5644 -13.1888 0.352475)
(6.55779 -12.8657 0.243293)
(6.56502 -12.6277 0.145886)
(6.56587 -12.5201 0.047538)
)
;
        pressure        uniform 0;
        secondOrder     false;
        setEffectiveTraction false;
        relaxationFactor 1;
        value           nonuniform List<vector> 
192
(
(8.51652e-08 5.62042e-08 2.69923e-08)
(9.8405e-08 3.49125e-08 5.23371e-08)
(1.01938e-07 1.58451e-08 6.66416e-08)
(1.03211e-07 2.39929e-09 7.79356e-08)
(1.06189e-07 -8.81109e-09 8.91551e-08)
(1.13336e-07 -2.02787e-08 1.01964e-07)
(1.27077e-07 -3.90547e-08 1.17543e-07)
(1.48402e-07 -9.37638e-08 1.33491e-07)
(6.71642e-08 2.99592e-08 2.22841e-09)
(7.67356e-08 1.54387e-08 1.6802e-08)
(7.87704e-08 2.38277e-09 3.0211e-08)
(7.93391e-08 -8.33617e-09 4.12177e-08)
(8.18489e-08 -1.82399e-08 5.1442e-08)
(8.88428e-08 -2.80661e-08 6.2066e-08)
(1.0333e-07 -4.2338e-08 7.26066e-08)
(1.27783e-07 -8.7177e-08 7.87576e-08)
(5.55577e-08 1.98272e-08 7.02995e-10)
(6.29515e-08 5.19114e-09 1.04902e-08)
(6.44071e-08 -6.65821e-09 2.21849e-08)
(6.48393e-08 -1.5878e-08 3.28656e-08)
(6.72923e-08 -2.39153e-08 4.24767e-08)
(7.44298e-08 -3.09879e-08 5.12168e-08)
(8.9452e-08 -4.11947e-08 5.79571e-08)
(1.14691e-07 -8.09197e-08 5.983e-08)
(4.9433e-08 1.61423e-08 1.68933e-09)
(5.5594e-08 1.01707e-09 9.36785e-09)
(5.69333e-08 -1.1174e-08 1.88144e-08)
(5.75287e-08 -1.99581e-08 2.80423e-08)
(6.01573e-08 -2.66837e-08 3.62814e-08)
(6.74905e-08 -3.17968e-08 4.30656e-08)
(8.27022e-08 -3.99145e-08 4.74396e-08)
(1.07891e-07 -7.74243e-08 4.81705e-08)
(4.63528e-08 1.47029e-08 2.00302e-09)
(5.20421e-08 -4.77488e-10 8.07758e-09)
(5.34618e-08 -1.29331e-08 1.52389e-08)
(5.4288e-08 -2.1645e-08 2.23972e-08)
(5.71318e-08 -2.77502e-08 2.87741e-08)
(6.46072e-08 -3.19604e-08 3.37606e-08)
(7.98111e-08 -3.93114e-08 3.67309e-08)
(1.04724e-07 -7.57611e-08 3.7272e-08)
(4.47493e-08 1.40925e-08 1.70698e-09)
(5.03203e-08 -9.51395e-10 6.12461e-09)
(5.18641e-08 -1.34218e-08 1.11145e-08)
(5.2879e-08 -2.21102e-08 1.61002e-08)
(5.5884e-08 -2.8016e-08 2.05316e-08)
(6.34348e-08 -3.19682e-08 2.39328e-08)
(7.85681e-08 -3.91427e-08 2.59332e-08)
(1.03219e-07 -7.50342e-08 2.64067e-08)
(4.39018e-08 1.38198e-08 1.10672e-09)
(4.94538e-08 -1.07048e-09 3.78112e-09)
(5.10913e-08 -1.34602e-08 6.71891e-09)
(5.22254e-08 -2.21205e-08 9.63442e-09)
(5.53253e-08 -2.79977e-08 1.222e-08)
(6.29081e-08 -3.19444e-08 1.41982e-08)
(7.79754e-08 -3.91342e-08 1.53745e-08)
(1.02446e-07 -7.47392e-08 1.57069e-08)
(4.3526e-08 1.37107e-08 3.80195e-10)
(4.90748e-08 -1.08755e-09 1.27432e-09)
(5.07578e-08 -1.34145e-08 2.2436e-09)
(5.19471e-08 -2.20549e-08 3.20093e-09)
(5.50888e-08 -2.7942e-08 4.04881e-09)
(6.26822e-08 -3.1925e-08 4.69809e-09)
(7.77134e-08 -3.91517e-08 5.08812e-09)
(1.02093e-07 -7.46371e-08 5.20748e-09)
(2.73205e-08 5.98809e-08 8.91865e-08)
(4.47667e-08 4.04345e-08 1.12028e-07)
(4.72495e-08 2.18393e-08 1.27771e-07)
(4.6714e-08 7.93474e-09 1.40939e-07)
(4.7471e-08 -4.11002e-09 1.5436e-07)
(5.17264e-08 -1.68133e-08 1.69925e-07)
(6.18199e-08 -3.73616e-08 1.88985e-07)
(7.65092e-08 -9.38141e-08 2.11597e-07)
(2.70955e-09 4.22427e-08 8.02234e-08)
(7.9455e-09 3.04182e-08 1.02445e-07)
(9.34789e-09 1.78123e-08 1.17088e-07)
(9.32035e-09 5.60842e-09 1.29314e-07)
(9.74261e-09 -7.16168e-09 1.41961e-07)
(1.16278e-08 -2.11299e-08 1.5698e-07)
(1.5668e-08 -4.04716e-08 1.76453e-07)
(2.03285e-08 -9.01616e-08 2.02449e-07)
(-2.54995e-09 4.18919e-08 7.93231e-08)
(-6.52512e-09 2.99269e-08 1.01627e-07)
(-6.38023e-09 1.72028e-08 1.16321e-07)
(-4.69891e-09 4.89499e-09 1.28581e-07)
(-3.37331e-09 -7.97158e-09 1.4125e-07)
(-3.41948e-09 -2.20353e-08 1.56278e-07)
(-5.56808e-09 -4.14567e-08 1.7575e-07)
(-8.42173e-09 -9.09878e-08 2.01761e-07)
(-2.6329e-08 5.84668e-08 8.66877e-08)
(-4.22425e-08 3.87742e-08 1.09807e-07)
(-4.31951e-08 1.99252e-08 1.25686e-07)
(-4.10137e-08 5.74271e-09 1.38952e-07)
(-4.0012e-08 -6.56884e-09 1.52439e-07)
(-4.24224e-08 -1.95294e-08 1.68036e-07)
(-5.06291e-08 -4.02958e-08 1.87107e-07)
(-6.34597e-08 -9.63664e-08 2.09802e-07)
(-8.0157e-08 5.39484e-08 2.68513e-08)
(-9.18709e-08 3.242e-08 5.24423e-08)
(-9.38595e-08 1.30704e-08 6.70366e-08)
(-9.34512e-08 -6.91305e-10 7.85467e-08)
(-9.46276e-08 -1.22026e-08 8.99132e-08)
(-9.98896e-08 -2.39478e-08 1.02819e-07)
(-1.11719e-07 -4.2932e-08 1.18452e-07)
(-1.31128e-07 -9.72298e-08 1.34402e-07)
(-6.22298e-08 2.80416e-08 2.4858e-09)
(-7.0498e-08 1.31292e-08 1.73679e-08)
(-7.11292e-08 -3.10708e-10 3.10301e-08)
(-7.01088e-08 -1.13875e-08 4.22369e-08)
(-7.08658e-08 -2.16124e-08 5.26047e-08)
(-7.59844e-08 -3.17303e-08 6.33224e-08)
(-8.85454e-08 -4.62247e-08 7.39112e-08)
(-1.11084e-07 -9.06645e-08 8.00701e-08)
(-5.08435e-08 1.81013e-08 9.17918e-10)
(-5.70459e-08 3.06377e-09 1.0978e-08)
(-5.71994e-08 -9.21291e-09 2.2875e-08)
(-5.61224e-08 -1.88315e-08 3.37176e-08)
(-5.68728e-08 -2.72223e-08 4.34522e-08)
(-6.21511e-08 -3.46122e-08 5.22774e-08)
(-7.5233e-08 -4.50601e-08 5.90652e-08)
(-9.85326e-08 -8.43885e-08 6.09502e-08)
(-4.49093e-08 1.45409e-08 1.84292e-09)
(-4.9983e-08 -9.70938e-10 9.7363e-09)
(-5.01041e-08 -1.35992e-08 1.93429e-08)
(-4.92588e-08 -2.2805e-08 2.86991e-08)
(-5.02315e-08 -2.99103e-08 3.70397e-08)
(-5.57279e-08 -3.53643e-08 4.38979e-08)
(-6.89958e-08 -4.37402e-08 4.83167e-08)
(-9.22277e-08 -8.0859e-08 4.90611e-08)
(-4.19617e-08 1.31897e-08 2.10852e-09)
(-4.66445e-08 -2.36184e-09 8.33946e-09)
(-4.69135e-08 -1.52543e-08 1.56217e-08)
(-4.63543e-08 -2.43992e-08 2.28785e-08)
(-4.75831e-08 -3.09012e-08 2.93352e-08)
(-5.32461e-08 -3.54703e-08 3.43821e-08)
(-6.65132e-08 -4.30938e-08 3.73911e-08)
(-8.94643e-08 -7.91601e-08 3.79454e-08)
(-4.04416e-08 1.26386e-08 1.77541e-09)
(-4.50611e-08 -2.76244e-09 6.29751e-09)
(-4.55031e-08 -1.56664e-08 1.13711e-08)
(-4.51741e-08 -2.47931e-08 1.64266e-08)
(-4.65969e-08 -3.11062e-08 2.09157e-08)
(-5.23574e-08 -3.54295e-08 2.43618e-08)
(-6.55647e-08 -4.28871e-08 2.63919e-08)
(-8.82564e-08 -7.84018e-08 2.68763e-08)
(-3.96424e-08 1.24018e-08 1.14521e-09)
(-4.42762e-08 -2.83499e-09 3.87921e-09)
(-4.48431e-08 -1.56548e-08 6.86584e-09)
(-4.46613e-08 -2.47555e-08 9.82298e-09)
(-4.62016e-08 -3.10459e-08 1.24435e-08)
(-5.20105e-08 -3.53711e-08 1.44494e-08)
(-6.51617e-08 -4.2851e-08 1.56445e-08)
(-8.76764e-08 -7.80839e-08 1.59839e-08)
(-3.92887e-08 1.23096e-08 3.92613e-10)
(-4.39349e-08 -2.82956e-09 1.30609e-09)
(-4.45623e-08 -1.55844e-08 2.29139e-09)
(-4.44497e-08 -2.4666e-08 3.26254e-09)
(-4.60436e-08 -3.09689e-08 4.12214e-09)
(-5.18718e-08 -3.53339e-08 4.78076e-09)
(-6.49921e-08 -4.28541e-08 5.17719e-09)
(-8.74195e-08 -7.79698e-08 5.299e-09)
(7.68239e-08 -1.72243e-07 1.379e-07)
(6.28089e-08 -1.59019e-07 8.14269e-08)
(5.33115e-08 -1.49348e-07 6.08289e-08)
(4.92871e-08 -1.43258e-07 4.82511e-08)
(4.80468e-08 -1.39734e-07 3.70826e-08)
(4.77574e-08 -1.37777e-07 2.62451e-08)
(4.76842e-08 -1.36745e-07 1.56293e-08)
(4.76515e-08 -1.363e-07 5.18743e-09)
(2.06389e-08 -1.63703e-07 1.33648e-07)
(1.66413e-08 -1.47125e-07 8.3986e-08)
(1.32271e-08 -1.37077e-07 6.4697e-08)
(1.17852e-08 -1.31519e-07 5.08811e-08)
(1.14588e-08 -1.28564e-07 3.84227e-08)
(1.14724e-08 -1.26965e-07 2.68355e-08)
(1.15165e-08 -1.2611e-07 1.5866e-08)
(1.1534e-08 -1.25732e-07 5.25077e-09)
(-8.09795e-09 -1.6364e-07 1.33848e-07)
(-4.59331e-09 -1.47051e-07 8.43473e-08)
(-1.73348e-09 -1.37007e-07 6.49915e-08)
(-7.80673e-10 -1.31448e-07 5.11042e-08)
(-8.4575e-10 -1.28487e-07 3.85865e-08)
(-1.15024e-09 -1.26882e-07 2.69482e-08)
(-1.38633e-09 -1.26022e-07 1.5932e-08)
(-1.49906e-09 -1.25641e-07 5.27253e-09)
(-6.3131e-08 -1.72329e-07 1.38557e-07)
(-4.96591e-08 -1.59032e-07 8.24695e-08)
(-4.07084e-08 -1.49361e-07 6.16836e-08)
(-3.71729e-08 -1.43261e-07 4.89109e-08)
(-3.63307e-08 -1.39718e-07 3.75736e-08)
(-3.63382e-08 -1.37741e-07 2.65848e-08)
(-3.64607e-08 -1.36695e-07 1.58289e-08)
(-3.65248e-08 -1.36242e-07 5.25326e-09)
)
;
        gradient        nonuniform List<vector> 
192
(
(4.66485e-06 1.41271e-06 -1.81629e-07)
(4.36991e-06 3.86553e-07 -2.99382e-07)
(4.46045e-06 3.89488e-08 -3.22868e-07)
(4.59861e-06 8.2708e-09 -3.25392e-07)
(4.76745e-06 1.04624e-07 -3.2618e-07)
(4.99014e-06 2.89544e-07 -3.2594e-07)
(5.28042e-06 4.92194e-07 -3.22219e-07)
(5.82673e-06 3.40219e-07 -3.14298e-07)
(3.8766e-06 9.89852e-07 -2.73701e-07)
(3.67596e-06 2.69392e-07 -4.42342e-07)
(3.72752e-06 1.29431e-08 -4.75769e-07)
(3.83247e-06 -2.71126e-09 -4.8274e-07)
(3.98466e-06 9.5343e-08 -4.8879e-07)
(4.21144e-06 2.88407e-07 -4.92596e-07)
(4.54958e-06 5.10805e-07 -4.86292e-07)
(5.28357e-06 3.48447e-07 -4.67194e-07)
(3.39098e-06 6.96715e-07 -1.60481e-07)
(3.30288e-06 1.84503e-07 -2.66452e-07)
(3.36091e-06 -1.44422e-09 -2.8407e-07)
(3.45968e-06 -4.75041e-09 -2.82379e-07)
(3.61075e-06 9.47682e-08 -2.80295e-07)
(3.8479e-06 2.92041e-07 -2.77662e-07)
(4.21546e-06 5.17595e-07 -2.73693e-07)
(4.99853e-06 3.53169e-07 -2.73419e-07)
(3.09997e-06 5.62958e-07 -6.86018e-08)
(3.05035e-06 1.45817e-07 -1.14937e-07)
(3.11671e-06 -2.97932e-09 -1.18905e-07)
(3.21705e-06 1.06397e-09 -1.12188e-07)
(3.37041e-06 1.0006e-07 -1.05699e-07)
(3.61381e-06 2.9501e-07 -1.01403e-07)
(3.99407e-06 5.15049e-07 -1.01974e-07)
(4.78579e-06 3.54652e-07 -1.09424e-07)
(2.92896e-06 5.13201e-07 -2.59732e-08)
(2.88981e-06 1.3421e-07 -4.11942e-08)
(2.96084e-06 1.30852e-09 -3.8875e-08)
(3.06427e-06 8.45739e-09 -3.19033e-08)
(3.22065e-06 1.05553e-07 -2.57367e-08)
(3.46764e-06 2.95765e-07 -2.27515e-08)
(3.85204e-06 5.09575e-07 -2.54814e-08)
(4.63883e-06 3.53957e-07 -3.32623e-08)
(2.82914e-06 4.95809e-07 -1.01529e-08)
(2.79318e-06 1.32923e-07 -1.40146e-08)
(2.86663e-06 6.31423e-09 -1.05767e-08)
(2.97263e-06 1.4203e-08 -5.47628e-09)
(3.13145e-06 1.09212e-07 -1.34634e-09)
(3.38032e-06 2.95266e-07 1.26736e-10)
(3.76522e-06 5.04539e-07 -2.58848e-09)
(4.54506e-06 3.52192e-07 -8.39357e-09)
(2.77348e-06 4.89045e-07 -4.29624e-09)
(2.73878e-06 1.33791e-07 -5.18132e-09)
(2.81348e-06 9.84871e-09 -2.84707e-09)
(2.92113e-06 1.76883e-08 3.48847e-11)
(3.08148e-06 1.11157e-07 2.20728e-09)
(3.33118e-06 2.94524e-07 2.77822e-09)
(3.71551e-06 5.01056e-07 1.00402e-09)
(4.4901e-06 3.50428e-07 -2.43629e-09)
(2.74845e-06 4.86337e-07 -1.25957e-09)
(2.71426e-06 1.34375e-07 -1.44942e-09)
(2.7895e-06 1.15315e-08 -6.76534e-10)
(2.89793e-06 1.92577e-08 2.33026e-10)
(3.05899e-06 1.11955e-07 8.92778e-10)
(3.30898e-06 2.94063e-07 1.03179e-09)
(3.69281e-06 4.99325e-07 4.31442e-10)
(4.46472e-06 3.49384e-07 -6.99078e-10)
(3.7273e-08 1.70685e-06 4.79391e-06)
(7.88467e-08 8.28311e-07 4.47588e-06)
(8.53675e-08 5.18484e-07 4.56752e-06)
(7.88336e-08 4.51106e-07 4.71486e-06)
(7.00239e-08 4.8071e-07 4.89023e-06)
(6.13692e-08 5.66777e-07 5.11093e-06)
(5.98373e-08 6.27643e-07 5.39317e-06)
(7.53221e-08 3.36196e-07 5.93421e-06)
(-5.50051e-08 1.58233e-06 4.29123e-06)
(-7.11797e-08 8.05734e-07 3.99296e-06)
(-7.48141e-08 5.05444e-07 4.01753e-06)
(-8.14506e-08 4.34097e-07 4.12076e-06)
(-8.98895e-08 4.62965e-07 4.27101e-06)
(-9.7928e-08 5.58562e-07 4.48216e-06)
(-9.73336e-08 6.47397e-07 4.79606e-06)
(-7.79362e-08 3.49453e-07 5.53009e-06)
(5.0709e-08 1.58057e-06 4.22498e-06)
(7.16454e-08 8.08459e-07 3.92873e-06)
(8.13551e-08 5.08195e-07 3.95099e-06)
(9.24752e-08 4.36021e-07 4.05234e-06)
(1.03926e-07 4.64223e-07 4.20126e-06)
(1.13949e-07 5.59318e-07 4.41116e-06)
(1.14467e-07 6.47604e-07 4.72395e-06)
(9.5038e-08 3.49527e-07 5.45941e-06)
(-3.8474e-08 1.70459e-06 4.60565e-06)
(-7.48361e-08 8.36338e-07 4.29556e-06)
(-7.57935e-08 5.26257e-07 4.38021e-06)
(-6.5082e-08 4.5666e-07 4.52215e-06)
(-5.34004e-08 4.84432e-07 4.69378e-06)
(-4.28594e-08 5.69092e-07 4.91118e-06)
(-4.02703e-08 6.2846e-07 5.19083e-06)
(-5.5583e-08 3.36464e-07 5.73856e-06)
(-4.34471e-06 1.34311e-06 -1.81259e-07)
(-4.04511e-06 3.28004e-07 -2.93594e-07)
(-4.12895e-06 -2.21297e-08 -3.11751e-07)
(-4.26009e-06 -5.80616e-08 -3.10248e-07)
(-4.42265e-06 3.37277e-08 -3.08256e-07)
(-4.64024e-06 2.15617e-07 -3.0623e-07)
(-4.92747e-06 4.17558e-07 -3.01558e-07)
(-5.46908e-06 2.67391e-07 -2.93429e-07)
(-3.55866e-06 9.24881e-07 -2.70954e-07)
(-3.36006e-06 2.16152e-07 -4.34255e-07)
(-3.40603e-06 -4.36702e-08 -4.63057e-07)
(-3.50362e-06 -6.57679e-08 -4.66418e-07)
(-3.64803e-06 2.66311e-08 -4.69883e-07)
(-3.86713e-06 2.15747e-07 -4.7203e-07)
(-4.19939e-06 4.36716e-07 -4.64854e-07)
(-4.92824e-06 2.75652e-07 -4.45426e-07)
(-3.08344e-06 6.37903e-07 -1.57085e-07)
(-2.99612e-06 1.35891e-07 -2.58309e-07)
(-3.04835e-06 -5.42991e-08 -2.72098e-07)
(-3.13944e-06 -6.48916e-08 -2.67304e-07)
(-3.28179e-06 2.81135e-08 -2.62874e-07)
(-3.50928e-06 2.20644e-07 -2.58645e-07)
(-3.86801e-06 4.44162e-07 -2.53743e-07)
(-4.64316e-06 2.80792e-07 -2.52955e-07)
(-2.80136e-06 5.09485e-07 -6.59228e-08)
(-2.75209e-06 1.01131e-07 -1.0841e-07)
(-2.81242e-06 -5.267e-08 -1.09249e-07)
(-2.90484e-06 -5.65461e-08 -9.99305e-08)
(-3.04879e-06 3.52891e-08 -9.13941e-08)
(-3.28121e-06 2.24878e-07 -8.56182e-08)
(-3.65042e-06 4.42408e-07 -8.52169e-08)
(-4.43159e-06 2.82922e-07 -9.20128e-08)
(-2.63657e-06 4.63572e-07 -2.41759e-08)
(-2.59764e-06 9.25599e-08 -3.6624e-08)
(-2.66248e-06 -4.5823e-08 -3.1909e-08)
(-2.75772e-06 -4.70378e-08 -2.28688e-08)
(-2.90419e-06 4.24255e-08 -1.50172e-08)
(-3.13936e-06 2.26821e-07 -1.07529e-08)
(-3.51132e-06 4.37768e-07 -1.2571e-08)
(-4.28578e-06 2.82929e-07 -1.96808e-08)
(-2.54064e-06 4.48685e-07 -9.05103e-09)
(-2.50484e-06 9.33945e-08 -1.112e-08)
(-2.57198e-06 -3.89169e-08 -6.03081e-09)
(-2.66955e-06 -3.9655e-08 5.6104e-10)
(-2.81811e-06 4.74049e-08 5.94732e-09)
(-3.0546e-06 2.27325e-07 8.40898e-09)
(-3.42624e-06 4.33481e-07 6.43307e-09)
(-4.19263e-06 2.81801e-07 1.1951e-09)
(-2.48723e-06 4.434e-07 -3.70533e-09)
(-2.45266e-06 9.55777e-08 -3.60018e-09)
(-2.52098e-06 -3.41433e-08 -3.11892e-10)
(-2.62004e-06 -3.50601e-08 3.46413e-09)
(-2.7699e-06 5.02735e-08 6.4107e-09)