/*--------------------------------*- C++ -*----------------------------------*\
| =========                 |                                                 |
| \\      /  F ield         | OpenFOAM: The Open Source CFD Toolbox           |
|  \\    /   O peration     | Version:  v1912                                 |
|   \\  /    A nd           | Website:  www.openfoam.com                      |
|    \\/     M anipulation  |                                                 |
\*---------------------------------------------------------------------------*/
FoamFile
{
    version     2.0;
    format      ascii;
    class       volVectorField;
    location    "0.71/solid";
    object      DD;
}
// * * * * * * * * * * * * * * * * * * * * * * * * * * * * * * * * * * * * * //

dimensions      [0 1 0 0 0 0 0];


internalField   nonuniform List<vector> 
256
(
(2.34671e-10 2.43102e-10 2.83799e-10)
(5.47001e-11 1.52382e-10 2.6847e-10)
(-6.8492e-11 1.46727e-10 2.61606e-10)
(-2.30023e-10 2.23003e-10 2.63027e-10)
(4.32591e-10 2.04676e-10 6.58307e-10)
(1.1172e-10 1.25192e-10 6.34161e-10)
(-1.41855e-10 1.22708e-10 6.20331e-10)
(-4.36931e-10 1.99462e-10 6.16191e-10)
(4.74182e-10 2.17494e-11 9.22743e-10)
(1.20582e-10 -1.39893e-11 8.91914e-10)
(-1.69441e-10 -1.10488e-11 8.74104e-10)
(-4.96755e-10 3.40366e-11 8.68465e-10)
(4.64027e-10 -1.85582e-10 1.145e-09)
(1.06875e-10 -2.02494e-10 1.10477e-09)
(-1.81036e-10 -1.94135e-10 1.08411e-09)
(-5.11577e-10 -1.5762e-10 1.08205e-09)
(4.61054e-10 -4.10423e-10 1.36376e-09)
(9.349e-11 -4.32711e-10 1.31212e-09)
(-2.00121e-10 -4.19234e-10 1.28902e-09)
(-5.4055e-10 -3.67868e-10 1.29342e-09)
(5.05334e-10 -6.83925e-10 1.60233e-09)
(9.6787e-11 -7.16049e-10 1.54056e-09)
(-2.43517e-10 -6.97482e-10 1.51512e-09)
(-6.24268e-10 -6.26816e-10 1.52495e-09)
(6.22337e-10 -1.08599e-09 1.86208e-09)
(1.23692e-10 -1.09951e-09 1.80183e-09)
(-3.19464e-10 -1.07514e-09 1.77397e-09)
(-7.88466e-10 -1.01214e-09 1.77759e-09)
(7.55969e-10 -1.64716e-09 2.06801e-09)
(1.49851e-10 -1.60286e-09 2.0278e-09)
(-4.05661e-10 -1.56942e-09 1.99775e-09)
(-9.7729e-10 -1.54598e-09 1.97752e-09)
(1.4905e-10 8.62906e-11 1.18163e-10)
(3.30407e-11 1.17742e-11 1.32813e-10)
(-3.86296e-11 9.78452e-12 1.29854e-10)
(-1.38802e-10 7.44468e-11 1.09401e-10)
(2.83113e-10 -3.33595e-12 3.70905e-10)
(7.1129e-11 -6.84841e-11 4.00211e-10)
(-8.1894e-11 -6.80238e-11 3.92088e-10)
(-2.72279e-10 -2.73176e-12 3.47227e-10)
(3.08568e-10 -1.6905e-10 6.04227e-10)
(7.62678e-11 -1.98022e-10 6.36953e-10)
(-9.77836e-11 -1.93375e-10 6.25261e-10)
(-3.08627e-10 -1.53915e-10 5.70013e-10)
(2.9455e-10 -3.57398e-10 8.14186e-10)
(6.36383e-11 -3.71765e-10 8.44638e-10)
(-1.04267e-10 -3.62429e-10 8.30355e-10)
(-3.13782e-10 -3.28188e-10 7.72109e-10)
(2.88766e-10 -5.64906e-10 1.01602e-09)
(5.16119e-11 -5.87211e-10 1.04188e-09)
(-1.19575e-10 -5.73139e-10 1.02538e-09)
(-3.35008e-10 -5.21902e-10 9.67182e-10)
(3.32307e-10 -8.05403e-10 1.21874e-09)
(5.65337e-11 -8.40122e-10 1.23969e-09)
(-1.60091e-10 -8.2127e-10 1.22109e-09)
(-4.13514e-10 -7.48521e-10 1.16353e-09)
(4.59305e-10 -1.13307e-09 1.40453e-09)
(8.7365e-11 -1.14661e-09 1.4228e-09)
(-2.35924e-10 -1.12258e-09 1.40235e-09)
(-5.83432e-10 -1.06087e-09 1.34363e-09)
(6.17578e-10 -1.59017e-09 1.50687e-09)
(1.18826e-10 -1.5255e-09 1.5248e-09)
(-3.23956e-10 -1.49367e-09 1.50354e-09)
(-7.92743e-10 -1.49351e-09 1.44318e-09)
(7.82487e-11 2.57435e-11 5.84794e-11)
(1.27322e-11 -2.9272e-11 8.08405e-11)
(-1.46405e-11 -3.08095e-11 7.88325e-11)
(-6.50559e-11 1.38619e-11 5.27738e-11)
(1.54555e-10 -1.07942e-10 2.33102e-10)
(3.1032e-11 -1.57093e-10 2.76051e-10)
(-3.11289e-11 -1.56318e-10 2.70432e-10)
(-1.34366e-10 -1.08277e-10 2.17185e-10)
(1.66255e-10 -2.81995e-10 4.27747e-10)
(3.17938e-11 -3.04743e-10 4.76554e-10)
(-3.62626e-11 -3.00193e-10 4.68083e-10)
(-1.50894e-10 -2.68741e-10 4.03493e-10)
(1.51367e-10 -4.60118e-10 6.1723e-10)
(2.02816e-11 -4.7389e-10 6.65699e-10)
(-3.82931e-11 -4.65023e-10 6.54955e-10)
(-1.49823e-10 -4.33522e-10 5.86103e-10)
(1.46365e-10 -6.4218e-10 7.95744e-10)
(9.93647e-12 -6.66419e-10 8.41803e-10)
(-5.05008e-11 -6.53099e-10 8.29078e-10)
(-1.67136e-10 -6.0233e-10 7.58553e-10)
(1.92142e-10 -8.37289e-10 9.56497e-10)
(1.67137e-11 -8.75154e-10 9.99523e-10)
(-8.87545e-11 -8.57341e-10 9.8501e-10)
(-2.43682e-10 -7.84153e-10 9.13797e-10)
(3.2574e-10 -1.09627e-09 1.07458e-09)
(5.06849e-11 -1.11216e-09 1.11427e-09)
(-1.64132e-10 -1.08955e-09 1.09842e-09)
(-4.16338e-10 -1.02865e-09 1.02752e-09)
(4.93966e-10 -1.47948e-09 1.10492e-09)
(8.57441e-11 -1.41276e-09 1.14167e-09)
(-2.5244e-10 -1.38276e-09 1.1256e-09)
(-6.31919e-10 -1.38821e-09 1.0566e-09)
(4.4824e-11 2.35617e-12 4.56823e-11)
(3.28743e-12 -3.92397e-11 6.1436e-11)
(-3.4656e-12 -4.10133e-11 5.9939e-11)
(-2.98354e-11 -1.08226e-11 4.15354e-11)
(9.27751e-11 -1.49493e-10 1.78776e-10)
(1.16692e-11 -1.87971e-10 2.0862e-10)
(-5.85157e-12 -1.87872e-10 2.04566e-10)
(-6.67008e-11 -1.52663e-10 1.67484e-10)
(9.91474e-11 -3.31269e-10 3.34276e-10)
(1.09747e-11 -3.50465e-10 3.6771e-10)
(-4.91842e-12 -3.46846e-10 3.61531e-10)
(-7.34321e-11 -3.21553e-10 3.16802e-10)
(8.73082e-11 -5.03276e-10 4.91791e-10)
(1.71297e-12 -5.17676e-10 5.24363e-10)
(-4.68062e-12 -5.09926e-10 5.16355e-10)
(-7.09965e-11 -4.80629e-10 4.68799e-10)
(8.68851e-11 -6.64125e-10 6.37749e-10)
(-5.85218e-12 -6.90553e-10 6.68047e-10)
(-1.55467e-11 -6.78507e-10 6.58396e-10)
(-8.87942e-11 -6.28523e-10 6.09717e-10)
(1.36748e-10 -8.25233e-10 7.58006e-10)
(3.18035e-12 -8.65814e-10 7.85855e-10)
(-5.24212e-11 -8.49423e-10 7.74765e-10)
(-1.65718e-10 -7.76617e-10 7.25482e-10)
(2.72133e-10 -1.04392e-09 8.31016e-10)
(3.84331e-11 -1.06405e-09 8.56666e-10)
(-1.25873e-10 -1.04297e-09 8.44586e-10)
(-3.36786e-10 -9.81002e-10 7.95154e-10)
(4.39299e-10 -1.39243e-09 8.33716e-10)
(7.42948e-11 -1.33456e-09 8.58705e-10)
(-2.11996e-10 -1.30607e-09 8.46589e-10)
(-5.48161e-10 -1.30573e-09 7.97127e-10)
(3.33535e-11 -6.2366e-12 3.9285e-11)
(8.73317e-13 -4.12528e-11 4.73999e-11)
(-1.42634e-13 -4.328e-11 4.63203e-11)
(-1.72428e-11 -2.04768e-11 3.63398e-11)
(7.25672e-11 -1.61493e-10 1.41799e-10)
(6.86946e-12 -1.9512e-10 1.56638e-10)
(2.41831e-12 -1.95778e-10 1.53765e-10)
(-4.27957e-11 -1.67278e-10 1.33897e-10)
(7.93951e-11 -3.43761e-10 2.59723e-10)
(7.02375e-12 -3.62079e-10 2.75573e-10)
(5.66888e-12 -3.59492e-10 2.71185e-10)
(-4.69039e-11 -3.37462e-10 2.47439e-10)
(7.19773e-11 -5.10104e-10 3.80035e-10)
(3.6335e-13 -5.25932e-10 3.94439e-10)
(6.69518e-12 -5.19359e-10 3.88689e-10)
(-4.55661e-11 -4.91256e-10 3.6365e-10)
(7.66361e-11 -6.57241e-10 4.89703e-10)
(-4.39546e-12 -6.85722e-10 5.01981e-10)
(-3.68622e-12 -6.74939e-10 4.94973e-10)
(-6.51718e-11 -6.2562e-10 4.69455e-10)
(1.29936e-10 -7.99707e-10 5.74851e-10)
(6.57092e-12 -8.42343e-10 5.85284e-10)
(-3.94768e-11 -8.27261e-10 5.77181e-10)
(-1.42474e-10 -7.55129e-10 5.51158e-10)
(2.64692e-10 -1.0004e-09 6.20482e-10)
(4.21323e-11 -1.02413e-09 6.29853e-10)
(-1.10524e-10 -1.00435e-09 6.21023e-10)
(-3.10114e-10 -9.41405e-10 5.94279e-10)
(4.28171e-10 -1.33421e-09 6.16604e-10)
(7.78215e-11 -1.2851e-09 6.2658e-10)
(-1.93983e-10 -1.2578e-09 6.1775e-10)
(-5.15226e-10 -1.2511e-09 5.89895e-10)
(3.03229e-11 -9.00442e-12 3.05878e-11)
(9.66189e-13 -4.13165e-11 3.41362e-11)
(2.62285e-13 -4.35262e-11 3.34127e-11)
(-1.35293e-11 -2.3964e-11 2.86329e-11)
(6.8586e-11 -1.61827e-10 1.04268e-10)
(7.52087e-12 -1.9395e-10 1.10267e-10)
(3.83139e-12 -1.95186e-10 1.08353e-10)
(-3.65345e-11 -1.69518e-10 9.90537e-11)
(7.78179e-11 -3.40382e-10 1.86628e-10)
(9.22597e-12 -3.59204e-10 1.92336e-10)
(7.60788e-12 -3.57444e-10 1.89411e-10)
(-4.10271e-11 -3.36711e-10 1.78504e-10)
(7.43063e-11 -5.01356e-10 2.69954e-10)
(4.7555e-12 -5.18739e-10 2.7423e-10)
(8.80622e-12 -5.13121e-10 2.70375e-10)
(-4.12773e-11 -4.855e-10 2.59039e-10)
(8.28483e-11 -6.40787e-10 3.44778e-10)
(2.14397e-12 -6.70893e-10 3.47425e-10)
(-1.3079e-12 -6.61121e-10 3.42694e-10)
(-6.23664e-11 -6.12297e-10 3.31171e-10)
(1.38354e-10 -7.7507e-10 4.00918e-10)
(1.44741e-11 -8.19047e-10 4.02366e-10)
(-3.61629e-11 -8.0498e-10 3.96869e-10)
(-1.3956e-10 -7.33604e-10 3.84889e-10)
(2.72003e-10 -9.69221e-10 4.29122e-10)
(5.00949e-11 -9.95166e-10 4.3016e-10)
(-1.05164e-10 -9.76345e-10 4.24158e-10)
(-3.03947e-10 -9.13168e-10 4.1133e-10)
(4.32286e-10 -1.29631e-09 4.25161e-10)
(8.55259e-11 -1.25282e-09 4.26949e-10)
(-1.86458e-10 -1.22639e-09 4.2095e-10)
(-5.03906e-10 -1.21583e-09 4.07012e-10)
(2.97126e-11 -9.59305e-12 1.93564e-11)
(1.44063e-12 -4.08762e-11 2.07433e-11)
(4.92898e-14 -4.32014e-11 2.03288e-11)
(-1.25309e-11 -2.49958e-11 1.82425e-11)
(6.87645e-11 -1.5896e-10 6.38645e-11)
(8.93845e-12 -1.90868e-10 6.59334e-11)
(3.57648e-12 -1.92476e-10 6.48389e-11)
(-3.53964e-11 -1.67854e-10 6.08983e-11)
(8.01155e-11 -3.33334e-10 1.12458e-10)
(1.18986e-11 -3.52926e-10 1.14013e-10)
(7.34797e-12 -3.51714e-10 1.12339e-10)
(-4.07897e-11 -3.31372e-10 1.07832e-10)
(7.92431e-11 -4.90191e-10 1.61076e-10)
(8.89097e-12 -5.08766e-10 1.61654e-10)
(8.56175e-12 -5.03792e-10 1.5944e-10)
(-4.22267e-11 -4.76327e-10 1.54837e-10)
(9.01923e-11 -6.25687e-10 2.04249e-10)
(7.63664e-12 -6.56865e-10 2.03845e-10)
(-1.34211e-12 -6.47775e-10 2.01117e-10)
(-6.41667e-11 -5.99299e-10 1.9643e-10)
(1.46932e-10 -7.56968e-10 2.36087e-10)
(2.08071e-11 -8.01701e-10 2.35032e-10)
(-3.55015e-11 -7.88311e-10 2.31852e-10)
(-1.41055e-10 -7.17577e-10 2.26833e-10)
(2.79749e-10 -9.49163e-10 2.51644e-10)
(5.64714e-11 -9.76217e-10 2.50462e-10)
(-1.03119e-10 -9.58031e-10 2.46983e-10)
(-3.03167e-10 -8.95049e-10 2.41343e-10)
(4.37936e-10 -1.27301e-09 2.49098e-10)
(9.17451e-11 -1.23247e-09 2.48411e-10)
(-1.82973e-10 -1.2066e-09 2.44934e-10)
(-4.99717e-10 -1.19424e-09 2.3858e-10)
(2.96209e-11 -9.58027e-12 6.61401e-12)
(1.71299e-12 -4.05121e-11 6.97508e-12)
(-1.11221e-13 -4.28932e-11 6.84019e-12)
(-1.22633e-11 -2.51946e-11 6.2525e-12)
(6.92461e-11 -1.56767e-10 2.15038e-11)
(9.73848e-12 -1.88738e-10 2.19847e-11)
(3.29976e-12 -1.90527e-10 2.16288e-11)
(-3.52749e-11 -1.6624e-10 2.05416e-11)
(8.16991e-11 -3.28632e-10 3.75569e-11)
(1.33397e-11 -3.487e-10 3.7821e-11)
(7.01691e-12 -3.47756e-10 3.72762e-11)
(-4.11972e-11 -3.27504e-10 3.60553e-11)
(8.21055e-11 -4.833e-10 5.35065e-11)
(1.10407e-11 -5.02496e-10 5.34315e-11)
(8.23129e-12 -4.97841e-10 5.271e-11)
(-4.32153e-11 -4.70419e-10 5.14773e-11)
(9.41756e-11 -6.1715e-10 6.75874e-11)
(1.04294e-11 -6.4885e-10 6.71882e-11)
(-1.54761e-12 -6.40099e-10 6.62975e-11)
(-6.55139e-11 -5.91806e-10 6.50381e-11)
(1.51465e-10 -7.47536e-10 7.78986e-11)
(2.39994e-11 -7.92601e-10 7.72957e-11)
(-3.53408e-11 -7.79548e-10 7.62556e-11)
(-1.42185e-10 -7.09178e-10 7.4875e-11)
(2.83871e-10 -9.39277e-10 8.28892e-11)
(5.96991e-11 -9.66772e-10 8.22605e-11)
(-1.02276e-10 -9.489e-10 8.11214e-11)
(-3.03163e-10 -8.86126e-10 7.95179e-11)
(4.41043e-10 -1.26178e-09 8.20279e-11)
(9.49056e-11 -1.22246e-09 8.15654e-11)
(-1.8142e-10 -1.19687e-09 8.04266e-11)
(-4.98041e-10 -1.18386e-09 7.85839e-11)
)
;

boundaryField
{
    interface
    {
        type            calculated;
        value           nonuniform List<vector> 
192
(
(2.75274e-10 4.09917e-10 2.57817e-10)
(4.74247e-10 2.64553e-10 6.12511e-10)
(5.18462e-10 2.96075e-11 8.72681e-10)
(5.12087e-10 -1.88865e-10 1.09522e-09)
(5.09987e-10 -4.00097e-10 1.31494e-09)
(5.49376e-10 -6.43605e-10 1.55495e-09)
(6.63213e-10 -1.02333e-09 1.81778e-09)
(8.11556e-10 -1.61e-09 2.02858e-09)
(1.59536e-10 1.94331e-10 7.90583e-11)
(2.98052e-10 3.6543e-11 3.01397e-10)
(3.23857e-10 -1.66192e-10 5.27246e-10)
(3.10146e-10 -3.6235e-10 7.36022e-10)
(3.02731e-10 -5.55467e-10 9.37353e-10)
(3.40642e-10 -7.62768e-10 1.14044e-09)
(4.68351e-10 -1.06175e-09 1.33038e-09)
(6.593e-10 -1.54819e-09 1.44137e-09)
(7.47867e-11 8.39445e-11 3.24237e-11)
(1.59957e-10 -8.59407e-11 1.85518e-10)
(1.73081e-10 -2.82794e-10 3.75393e-10)
(1.58695e-10 -4.65091e-10 5.6542e-10)
(1.53124e-10 -6.31987e-10 7.45275e-10)
(1.96128e-10 -7.92446e-10 9.07608e-10)
(3.34974e-10 -1.02082e-09 1.02779e-09)
(5.40095e-10 -1.43452e-09 1.06036e-09)
(3.55987e-11 3.67559e-11 3.4459e-11)
(9.58657e-11 -1.35913e-10 1.5828e-10)
(1.04864e-10 -3.32636e-10 3.12562e-10)
(9.43444e-11 -5.06343e-10 4.71944e-10)
(9.47014e-11 -6.51766e-10 6.20317e-10)
(1.44244e-10 -7.78922e-10 7.42455e-10)
(2.88087e-10 -9.68279e-10 8.15754e-10)
(4.92296e-10 -1.34635e-09 8.17267e-10)
(2.08622e-11 2.02436e-11 3.56601e-11)
(7.31012e-11 -1.49983e-10 1.35752e-10)
(8.32433e-11 -3.43909e-10 2.54391e-10)
(7.79057e-11 -5.10795e-10 3.76785e-10)
(8.44082e-11 -6.42752e-10 4.88694e-10)
(1.38944e-10 -7.52694e-10 5.75253e-10)
(2.83911e-10 -9.25839e-10 6.2045e-10)
(4.83614e-10 -1.2879e-09 6.14851e-10)
(1.63307e-11 1.57228e-11 2.96778e-11)
(6.74871e-11 -1.49953e-10 1.03318e-10)
(8.04118e-11 -3.38953e-10 1.86808e-10)
(7.95603e-11 -5.00099e-10 2.7177e-10)
(9.07009e-11 -6.24776e-10 3.48168e-10)
(1.48384e-10 -7.27782e-10 4.05168e-10)
(2.93133e-10 -8.95739e-10 4.32887e-10)
(4.88672e-10 -1.25014e-09 4.27602e-10)
(1.52193e-11 1.50262e-11 1.91811e-11)
(6.6961e-11 -1.4636e-10 6.40298e-11)
(8.22183e-11 -3.30715e-10 1.13429e-10)
(8.43818e-11 -4.87673e-10 1.63026e-10)
(9.83999e-11 -6.08766e-10 2.07081e-10)
(1.57845e-10 -7.09579e-10 2.39364e-10)
(3.02189e-10 -8.76412e-10 2.54612e-10)
(4.94908e-10 -1.22704e-09 2.51287e-10)
(1.50211e-11 1.51365e-11 6.5911e-12)
(6.72259e-11 -1.43748e-10 2.16243e-11)
(8.36847e-11 -3.25418e-10 3.79529e-11)
(8.73087e-11 -4.80182e-10 5.42221e-11)
(1.0267e-10 -5.99811e-10 6.85833e-11)
(1.629e-10 -7.00113e-10 7.90318e-11)
(3.07006e-10 -8.66884e-10 8.39197e-11)
(4.98342e-10 -1.21595e-09 8.28046e-11)
(2.43827e-10 4.78628e-10 2.93945e-10)
(4.49449e-10 3.64412e-10 6.65297e-10)
(4.91503e-10 1.43424e-10 9.32266e-10)
(4.78859e-10 -7.53274e-11 1.15927e-09)
(4.72552e-10 -2.96091e-10 1.37919e-09)
(5.13581e-10 -5.59343e-10 1.61107e-09)
(6.29426e-10 -9.69563e-10 1.86266e-09)
(7.65631e-10 -1.58801e-09 2.07683e-09)
(4.91497e-11 3.7804e-10 2.60978e-10)
(1.02222e-10 2.81053e-10 6.17926e-10)
(1.08419e-10 1.03664e-10 8.71258e-10)
(9.16494e-11 -9.74423e-11 1.08266e-09)
(7.48043e-11 -3.23762e-10 1.28595e-09)
(7.49843e-11 -5.93619e-10 1.50336e-09)
(1.01663e-10 -9.77698e-10 1.75722e-09)
(1.32286e-10 -1.54043e-09 2.01064e-09)
(-6.98554e-11 3.67211e-10 2.44825e-10)
(-1.46352e-10 2.75833e-10 5.96417e-10)
(-1.75308e-10 1.04898e-10 8.45666e-10)
(-1.8672e-10 -9.04037e-11 1.05387e-09)
(-2.048e-10 -3.11481e-10 1.25441e-09)
(-2.47424e-10 -5.76245e-10 1.46922e-09)
(-3.25527e-10 -9.54484e-10 1.72036e-09)
(-4.18232e-10 -1.50745e-09 1.97081e-09)
(-2.4476e-10 4.42808e-10 2.45163e-10)
(-4.65764e-10 3.50822e-10 5.97969e-10)
(-5.30001e-10 1.50502e-10 8.51915e-10)
(-5.45241e-10 -5.13814e-11 1.06917e-09)
(-5.73352e-10 -2.57142e-10 1.28083e-09)
(-6.56127e-10 -5.0577e-10 1.50499e-09)
(-8.21436e-10 -8.9899e-10 1.74895e-09)
(-1.01479e-09 -1.48808e-09 1.95607e-09)
(-2.11399e-10 3.89741e-10 2.32851e-10)
(-4.19498e-10 2.66145e-10 5.60608e-10)
(-4.80773e-10 5.26996e-11 8.04806e-10)
(-4.97856e-10 -1.4667e-10 1.01576e-09)
(-5.26166e-10 -3.39693e-10 1.22563e-09)
(-6.03235e-10 -5.64835e-10 1.45632e-09)
(-7.6124e-10 -9.23878e-10 1.70985e-09)
(-9.5881e-10 -1.47912e-09 1.91263e-09)
(-9.46269e-11 1.77217e-10 6.81591e-11)
(-2.33474e-10 3.9725e-11 2.71583e-10)
(-2.69556e-10 -1.43538e-10 4.83545e-10)
(-2.73871e-10 -3.21591e-10 6.81668e-10)
(-2.92173e-10 -4.96967e-10 8.73827e-10)
(-3.63453e-10 -6.86413e-10 1.06838e-09)
(-5.31064e-10 -9.66058e-10 1.25059e-09)
(-7.65844e-10 -1.4237e-09 1.35684e-09)
(-8.97554e-12 6.37171e-11 2.55312e-11)
(-8.8389e-11 -8.68173e-11 1.65789e-10)
(-1.05872e-10 -2.64875e-10 3.44692e-10)
(-1.04286e-10 -4.2946e-10 5.25404e-10)
(-1.19688e-10 -5.78863e-10 6.96998e-10)
(-1.91767e-10 -7.2185e-10 8.51846e-10)
(-3.66517e-10 -9.31593e-10 9.65854e-10)
(-6.11739e-10 -1.31725e-09 9.95454e-10)
(3.1221e-11 1.33114e-11 2.95814e-11)
(-1.9315e-11 -1.41764e-10 1.4459e-10)
(-2.82917e-11 -3.20479e-10 2.90803e-10)
(-2.62172e-11 -4.76787e-10 4.42733e-10)
(-4.34772e-11 -6.04841e-10 5.84225e-10)
(-1.18272e-10 -7.14617e-10 7.00179e-10)
(-2.94434e-10 -8.85389e-10 7.68596e-10)
(-5.35683e-10 -1.2352e-09 7.67953e-10)
(4.66903e-11 -5.46724e-12 3.22626e-11)
(6.68743e-12 -1.59862e-10 1.26354e-10)
(-3.87277e-13 -3.36769e-10 2.39337e-10)
(-2.69073e-13 -4.86687e-10 3.56219e-10)
(-2.03854e-11 -6.01391e-10 4.62847e-10)
(-9.70393e-11 -6.93891e-10 5.44617e-10)
(-2.71413e-10 -8.48215e-10 5.86068e-10)
(-5.05617e-10 -1.1816e-09 5.7883e-10)
(5.16744e-11 -1.14481e-11 2.74545e-11)
(1.43483e-11 -1.62643e-10 9.7203e-11)
(6.44013e-12 -3.35524e-10 1.76975e-10)
(4.37423e-12 -4.80164e-10 2.58204e-10)
(-1.79762e-11 -5.87725e-10 3.30919e-10)
(-9.54178e-11 -6.73206e-10 3.84534e-10)
(-2.67373e-10 -8.22079e-10 4.09593e-10)
(-4.9548e-10 -1.14741e-09 4.03134e-10)
(5.30403e-11 -1.30141e-11 1.79258e-11)
(1.60406e-11 -1.60789e-10 6.05829e-11)
(7.00282e-12 -3.29664e-10 1.07874e-10)
(3.41768e-12 -4.70481e-10 1.55321e-10)
(-2.02845e-11 -5.7459e-10 1.97216e-10)
(-9.79275e-11 -6.57825e-10 2.27489e-10)
(-2.6801e-10 -8.05381e-10 2.41146e-10)
(-4.92005e-10 -1.12666e-09 2.37113e-10)
(5.33536e-11 -1.33101e-11 6.18552e-12)
(1.63101e-11 -1.59006e-10 2.0511e-11)
(6.64005e-12 -3.25518e-10 3.6157e-11)
(2.29773e-12 -4.64338e-10 5.17243e-11)
(-2.19821e-11 -5.67061e-10 6.53748e-11)
(-9.96334e-11 -6.49763e-10 7.51575e-11)
(-2.68745e-10 -7.9716e-10 7.95168e-11)
(-4.90711e-10 -1.11672e-09 7.81648e-11)
(7.63475e-10 -1.65696e-09 2.08334e-09)
(6.224e-10 -1.59244e-09 1.46495e-09)
(4.99764e-10 -1.49116e-09 1.05549e-09)
(4.4787e-10 -1.41319e-09 7.97398e-10)
(4.39045e-10 -1.35802e-09 5.92576e-10)
(4.44501e-10 -1.32106e-09 4.09861e-10)
(4.50785e-10 -1.29823e-09 2.40464e-10)
(4.54129e-10 -1.28728e-09 7.92206e-11)
(1.30416e-10 -1.58665e-09 2.03967e-09)
(9.47014e-11 -1.48254e-09 1.47727e-09)
(6.15617e-11 -1.37835e-09 1.09393e-09)
(5.27045e-11 -1.31309e-09 8.26789e-10)
(5.87159e-11 -1.27025e-09 6.06145e-10)
(6.80412e-11 -1.24129e-09 4.13792e-10)
(7.51399e-11 -1.2227e-09 2.4082e-10)
(7.86747e-11 -1.2135e-09 7.90629e-11)
(-4.19884e-10 -1.54329e-09 2.0098e-09)
(-3.31956e-10 -1.44148e-09 1.45687e-09)
(-2.58582e-10 -1.33925e-09 1.0787e-09)
(-2.19207e-10 -1.27554e-09 8.15349e-10)
(-2.02487e-10 -1.23389e-09 5.97828e-10)
(-1.95709e-10 -1.20579e-09 4.08151e-10)
(-1.92534e-10 -1.18776e-09 2.37554e-10)
(-1.91074e-10 -1.17883e-09 7.79937e-11)
(-1.01658e-09 -1.52516e-09 1.99336e-09)
(-8.2769e-10 -1.46587e-09 1.40374e-09)
(-6.66041e-10 -1.37002e-09 1.00966e-09)
(-5.83515e-10 -1.29664e-09 7.6285e-10)
(-5.51654e-10 -1.24502e-09 5.6742e-10)
(-5.40762e-10 -1.2106e-09 3.92798e-10)
(-5.36604e-10 -1.18943e-09 2.30588e-10)
(-5.34867e-10 -1.17929e-09 7.59886e-11)
)
;
    }
    symmetry
    {
        type            symmetry;
    }
    bottom
    {
        type            calculated;
        value           uniform (0 0 0);
    }
}


// ************************************************************************* //
