/*--------------------------------*- C++ -*----------------------------------*\
| =========                 |                                                 |
| \\      /  F ield         | OpenFOAM: The Open Source CFD Toolbox           |
|  \\    /   O peration     | Version:  v1912                                 |
|   \\  /    A nd           | Website:  www.openfoam.com                      |
|    \\/     M anipulation  |                                                 |
\*---------------------------------------------------------------------------*/
FoamFile
{
    version     2.0;
    format      ascii;
    class       volSymmTensorField;
    location    "0.71/solid";
    object      epsilon;
}
// * * * * * * * * * * * * * * * * * * * * * * * * * * * * * * * * * * * * * //

dimensions      [0 0 0 0 0 0 0];


internalField   nonuniform List<symmTensor> 
256
(
(-2.80157e-06 1.92363e-07 -7.21855e-08 1.37252e-06 2.17114e-07 -2.86922e-06)
(-6.00768e-07 -4.17823e-08 -3.04751e-08 8.56202e-07 2.14936e-07 -2.53822e-06)
(-5.84904e-07 4.09138e-08 2.90577e-08 8.39117e-07 2.15497e-07 -2.50211e-06)
(-2.62564e-06 -1.85525e-07 7.13804e-08 1.30959e-06 2.19356e-07 -2.76771e-06)
(-2.88387e-06 -7.00423e-10 -1.10281e-07 -4.63741e-07 2.69779e-08 -2.9129e-06)
(-1.02404e-06 -3.37348e-08 -5.03746e-08 -2.19386e-07 3.72485e-08 -2.54975e-06)
(-1.00285e-06 3.76012e-08 4.91406e-08 -2.25686e-07 3.8286e-08 -2.51412e-06)
(-2.70028e-06 2.99385e-09 1.09355e-07 -4.7625e-07 3.01538e-08 -2.8141e-06)
(-2.94821e-06 -2.89022e-08 -1.18767e-07 -5.55693e-07 -1.75754e-09 -2.97415e-06)
(-1.07159e-06 -3.00459e-08 -5.53347e-08 -4.03286e-07 1.65333e-10 -2.56392e-06)
(-1.05061e-06 3.41858e-08 5.45348e-08 -4.07528e-07 8.6418e-10 -2.52737e-06)
(-2.76149e-06 3.05028e-08 1.1795e-07 -5.6571e-07 4.42804e-10 -2.87241e-06)
(-3.00711e-06 -1.90719e-08 -1.23297e-07 -5.09542e-07 6.79021e-09 -3.05245e-06)
(-1.03167e-06 -2.26803e-08 -5.76936e-08 -4.8886e-07 4.23062e-09 -2.61146e-06)
(-1.01077e-06 2.57703e-08 5.70809e-08 -4.92495e-07 4.63855e-09 -2.57407e-06)
(-2.81695e-06 2.04136e-08 1.22553e-07 -5.19425e-07 8.16493e-09 -2.94823e-06)
(-3.09831e-06 -2.14747e-09 -1.28098e-07 -5.23878e-07 2.70463e-08 -3.15873e-06)
(-1.02536e-06 -1.14206e-08 -6.03316e-08 -5.65882e-07 2.32648e-08 -2.6978e-06)
(-1.00421e-06 1.33551e-08 5.97444e-08 -5.69431e-07 2.35042e-08 -2.65973e-06)
(-2.90477e-06 3.0683e-09 1.27397e-07 -5.33549e-07 2.78983e-08 -3.05265e-06)
(-3.25722e-06 3.02374e-08 -1.32306e-07 -7.01765e-07 6.39584e-08 -3.31176e-06)
(-1.11606e-06 8.89609e-09 -6.28534e-08 -7.12306e-07 6.16592e-08 -2.83992e-06)
(-1.09477e-06 -8.57618e-09 6.22285e-08 -7.15548e-07 6.17832e-08 -2.80122e-06)
(-3.06098e-06 -3.00698e-08 1.31655e-07 -7.10545e-07 6.44336e-08 -3.20406e-06)
(-3.52395e-06 8.94664e-08 -1.31215e-07 -1.48237e-06 1.21747e-07 -3.5543e-06)
(-1.36142e-06 4.1061e-08 -6.25704e-08 -1.32836e-06 1.27072e-07 -3.09946e-06)
(-1.34021e-06 -4.35332e-08 6.18792e-08 -1.3266e-06 1.27052e-07 -3.0602e-06)
(-3.32627e-06 -9.03901e-08 1.30614e-07 -1.47858e-06 1.21797e-07 -3.4454e-06)
(-3.99866e-06 1.19894e-07 -1.1952e-07 -4.02523e-06 1.48882e-07 -4.02355e-06)
(-1.70355e-06 5.75013e-08 -5.71596e-08 -3.68624e-06 1.61688e-07 -3.68367e-06)
(-1.68135e-06 -5.62975e-08 5.63356e-08 -3.64742e-06 1.616e-07 -3.64507e-06)
(-3.79764e-06 -1.19019e-07 1.1889e-07 -3.9187e-06 1.48741e-07 -3.91792e-06)
(-2.27791e-06 1.15598e-07 -5.53861e-08 5.93146e-07 5.5394e-09 -5.31073e-07)
(-4.0502e-07 -6.10933e-08 -1.74636e-08 1.66559e-07 9.43741e-08 -4.42583e-07)
(-3.89456e-07 6.24207e-08 1.94843e-08 1.5218e-07 9.80669e-08 -4.39932e-07)
(-2.10337e-06 -1.08115e-07 5.61638e-08 5.38157e-07 1.63682e-08 -5.2471e-07)
(-2.3421e-06 -1.40778e-08 -8.51898e-08 -3.073e-07 3.31272e-08 -8.4517e-07)
(-7.01618e-07 -3.73552e-08 -3.5118e-08 -1.10484e-07 7.95494e-08 -7.08346e-07)
(-6.81549e-07 4.06886e-08 3.81637e-08 -1.1876e-07 8.178e-08 -7.05352e-07)
(-2.16408e-06 1.58508e-08 8.62246e-08 -3.24908e-07 3.99078e-08 -8.38107e-07)
(-2.37482e-06 -3.02225e-08 -8.93896e-08 -4.07472e-07 2.9223e-08 -8.98834e-07)
(-7.23012e-07 -2.95991e-08 -3.82269e-08 -2.83508e-07 4.38913e-08 -7.46865e-07)
(-7.03543e-07 3.19984e-08 4.17946e-08 -2.8861e-07 4.53774e-08 -7.44411e-07)
(-2.19461e-06 3.09479e-08 9.05477e-08 -4.19854e-07 3.38989e-08 -8.93145e-07)
(-2.41272e-06 -2.01266e-08 -9.06843e-08 -4.33053e-07 3.27916e-08 -9.12152e-07)
(-6.77765e-07 -2.22894e-08 -3.8435e-08 -4.21428e-07 3.50096e-08 -7.50259e-07)
(-6.58451e-07 2.36309e-08 4.2319e-08 -4.25236e-07 3.60222e-08 -7.48131e-07)
(-2.22898e-06 2.07051e-08 9.19538e-08 -4.43609e-07 3.60499e-08 -9.07317e-07)
(-2.49146e-06 -3.81556e-09 -9.31097e-08 -4.67378e-07 5.9905e-08 -9.45039e-07)
(-6.66662e-07 -1.18836e-08 -3.97837e-08 -5.13262e-07 5.82542e-08 -7.74169e-07)
(-6.46987e-07 1.23995e-08 4.37762e-08 -5.16795e-07 5.89196e-08 -7.72163e-07)
(-2.30347e-06 4.18353e-09 9.44603e-08 -4.77234e-07 6.20611e-08 -9.40565e-07)
(-2.64935e-06 2.97039e-08 -9.52607e-08 -5.85828e-07 1.03929e-07 -1.02701e-06)
(-7.53316e-07 8.20593e-09 -4.1518e-08 -5.96908e-07 1.01484e-07 -8.48534e-07)
(-7.33274e-07 -8.93563e-09 4.5467e-08 -6.00147e-07 1.01864e-07 -8.46575e-07)
(-2.45715e-06 -2.98956e-08 9.66734e-08 -5.94767e-07 1.05164e-07 -1.02272e-06)
(-2.94269e-06 9.45016e-08 -9.41069e-08 -1.19723e-06 1.39165e-07 -1.20385e-06)
(-1.00257e-06 4.20744e-08 -4.15607e-08 -1.02374e-06 1.39074e-07 -1.0268e-06)
(-9.82358e-07 -4.52352e-08 4.533e-08 -1.02207e-06 1.39171e-07 -1.02486e-06)
(-2.74738e-06 -9.56473e-08 9.55469e-08 -1.19366e-06 1.39545e-07 -1.19968e-06)
(-3.52577e-06 1.31437e-07 -8.88491e-08 -3.55566e-06 1.22533e-07 -1.48344e-06)
(-1.36172e-06 6.27548e-08 -4.02604e-08 -3.10225e-06 1.27713e-07 -1.32632e-06)
(-1.34042e-06 -6.18337e-08 4.37454e-08 -3.0626e-06 1.27683e-07 -1.3243e-06)
(-3.32679e-06 -1.30676e-07 9.02356e-08 -3.44539e-06 1.22532e-07 -1.47915e-06)
(-1.95349e-06 6.37869e-08 -2.26643e-08 2.80063e-07 8.04914e-08 -6.20565e-08)
(-2.66516e-07 -8.34147e-08 -2.60156e-09 -7.55708e-08 1.64731e-07 -6.58234e-08)
(-2.51421e-07 8.36205e-08 3.79284e-09 -8.85826e-08 1.67105e-07 -6.65489e-08)
(-1.78462e-06 -5.70151e-08 2.29423e-08 2.29852e-07 8.78013e-08 -6.41152e-08)
(-2.03225e-06 -2.12964e-08 -3.36537e-08 -3.55169e-07 1.01499e-07 -2.30534e-07)
(-4.63932e-07 -4.18725e-08 -8.82199e-09 -1.91531e-07 1.44288e-07 -2.38824e-07)
(-4.44386e-07 4.45362e-08 1.05831e-08 -1.99912e-07 1.46172e-07 -2.40067e-07)
(-1.85933e-06 2.27865e-08 3.41471e-08 -3.73233e-07 1.07324e-07 -2.34093e-07)
(-2.0628e-06 -2.89358e-08 -3.31029e-08 -3.7407e-07 9.21674e-08 -3.17148e-07)
(-4.66402e-07 -2.88385e-08 -9.12718e-09 -2.76132e-07 1.06006e-07 -3.27428e-07)
(-4.47474e-07 3.05473e-08 1.09996e-08 -2.81634e-07 1.07489e-07 -3.29206e-07)
(-1.88759e-06 2.93744e-08 3.36594e-08 -3.8771e-07 9.67609e-08 -3.22197e-07)
(-2.09741e-06 -1.96456e-08 -3.16184e-08 -3.69195e-07 8.57548e-08 -3.56146e-07)
(-4.20661e-07 -2.19178e-08 -7.9567e-09 -3.67723e-07 8.80677e-08 -3.66387e-07)
(-4.01886e-07 2.25412e-08 9.89445e-09 -3.7185e-07 8.92079e-08 -3.68597e-07)
(-1.91851e-06 1.9942e-08 3.22127e-08 -3.80791e-07 8.9291e-08 -3.62379e-07)
(-2.17532e-06 -4.15234e-09 -3.12121e-08 -3.76396e-07 9.78932e-08 -3.98984e-07)
(-4.09437e-07 -1.25405e-08 -7.70854e-09 -4.25416e-07 9.67403e-08 -4.08006e-07)
(-3.90222e-07 1.24069e-08 9.66725e-09 -4.29154e-07 9.75713e-08 -4.10475e-07)
(-1.99162e-06 4.29936e-09 3.18402e-08 -3.86997e-07 1.00454e-07 -4.05921e-07)
(-2.33922e-06 3.00338e-08 -3.10186e-08 -4.51295e-07 1.15847e-07 -4.77808e-07)
(-4.96804e-07 7.52891e-09 -8.11617e-09 -4.63069e-07 1.13708e-07 -4.85301e-07)
(-4.77052e-07 -8.78668e-09 1.00177e-08 -4.66449e-07 1.14254e-07 -4.87902e-07)
(-2.15016e-06 -3.03645e-08 3.16754e-08 -4.60769e-07 1.17507e-07 -4.85093e-07)
(-2.6504e-06 9.56579e-08 -3.05786e-08 -1.01392e-06 1.09307e-07 -5.99418e-07)
(-7.50321e-07 4.19198e-08 -8.68618e-09 -8.39478e-07 1.06661e-07 -6.06693e-07)
(-7.30158e-07 -4.54763e-08 1.03971e-08 -8.37882e-07 1.06936e-07 -6.09335e-07)
(-2.45652e-06 -9.68711e-08 3.12371e-08 -1.01056e-06 1.1015e-07 -6.06799e-07)
(-3.26098e-06 1.32514e-07 -3.07587e-08 -3.31396e-06 6.70691e-08 -7.01185e-07)
(-1.11382e-06 6.2956e-08 -9.0678e-09 -2.84417e-06 6.4636e-08 -7.08478e-07)
(-1.09234e-06 -6.21738e-08 1.03771e-08 -2.80483e-06 6.47085e-08 -7.11115e-07)
(-3.06181e-06 -1.31753e-07 3.13295e-08 -3.20424e-06 6.73269e-08 -7.08533e-07)
(-1.77043e-06 4.27176e-08 -5.99928e-09 1.65993e-07 1.0521e-07 -7.62648e-09)
(-2.05519e-07 -9.05902e-08 4.00834e-09 -1.48235e-07 1.5618e-07 -3.13434e-08)
(-1.91064e-07 8.94896e-08 -3.15379e-09 -1.60522e-07 1.57754e-07 -3.19892e-08)
(-1.60667e-06 -3.68129e-08 6.12371e-09 1.18745e-07 1.1026e-07 -9.41519e-09)
(-1.84909e-06 -2.26356e-08 -7.4908e-09 -4.04841e-07 1.27139e-07 -1.04567e-07)
(-3.5585e-07 -4.26423e-08 4.81477e-09 -2.60065e-07 1.52754e-07 -1.49247e-07)
(-3.37015e-07 4.44769e-08 -3.54005e-09 -2.68115e-07 1.54168e-07 -1.50535e-07)
(-1.68113e-06 2.37932e-08 7.75132e-09 -4.22263e-07 1.31576e-07 -1.08192e-07)
(-1.88317e-06 -2.63806e-08 -5.3224e-09 -3.83315e-07 1.23308e-07 -2.0022e-07)
(-3.51977e-07 -2.73303e-08 6.06343e-09 -3.01295e-07 1.31116e-07 -2.51941e-07)
(-3.33649e-07 2.85448e-08 -4.83092e-09 -3.06833e-07 1.32342e-07 -2.53669e-07)
(-1.7127e-06 2.66516e-08 5.6029e-09 -3.97263e-07 1.27095e-07 -2.05114e-07)
(-1.92107e-06 -1.78182e-08 -3.17545e-09 -3.35954e-07 1.13699e-07 -2.71988e-07)
(-3.10969e-07 -2.07913e-08 7.50511e-09 -3.41125e-07 1.1415e-07 -3.25898e-07)
(-2.92732e-07 2.10712e-08 -6.35993e-09 -3.45443e-07 1.1517e-07 -3.27982e-07)
(-1.74673e-06 1.79964e-08 3.44353e-09 -3.48212e-07 1.16828e-07 -2.77892e-07)
(-2.0024e-06 -3.21248e-09 -1.85641e-09 -3.1026e-07 1.09188e-07 -3.37691e-07)
(-3.04515e-07 -1.23006e-08 8.27394e-09 -3.6112e-07 1.07684e-07 -3.922e-07)
(-2.85779e-07 1.18931e-08 -7.1922e-09 -3.65059e-07 1.08485e-07 -3.9454e-07)
(-1.82285e-06 3.2772e-09 2.11755e-09 -3.21542e-07 1.1162e-07 -3.44305e-07)
(-2.17156e-06 3.02296e-08 -1.21742e-09 -3.68362e-07 1.00926e-07 -4.1285e-07)
(-3.95332e-07 6.97141e-09 8.26609e-09 -3.81986e-07 9.92852e-08 -4.67101e-07)
(-3.75956e-07 -8.45695e-09 -7.26626e-09 -3.85526e-07 9.98577e-08 -4.69596e-07)
(-1.98589e-06 -3.06007e-08 1.47663e-09 -3.78379e-07 1.02644e-07 -4.19878e-07)
(-2.49022e-06 9.37128e-08 -1.67238e-09 -9.27461e-07 7.18879e-08 -4.86577e-07)
(-6.49616e-07 4.00697e-08 7.35924e-09 -7.60478e-07 6.97202e-08 -5.39784e-07)
(-6.29657e-07 -4.38139e-08 -6.55373e-09 -7.58988e-07 7.00544e-08 -5.4235e-07)
(-2.29843e-06 -9.49265e-08 1.90623e-09 -9.24404e-07 7.28947e-08 -4.93775e-07)
(-3.10273e-06 1.28609e-07 -3.05976e-09 -3.16613e-06 3.39828e-08 -5.11198e-07)
(-1.00969e-06 6.04699e-08 6.9146e-09 -2.70647e-06 3.04415e-08 -5.62536e-07)
(-9.88198e-07 -5.9774e-08 -6.54162e-09 -2.66745e-06 3.05393e-08 -5.6512e-07)
(-2.90414e-06 -1.27831e-07 3.17227e-09 -3.05712e-06 3.43038e-08 -5.18415e-07)
(-1.66898e-06 3.64943e-08 -8.99742e-10 1.22656e-07 9.70982e-08 -1.42592e-08)
(-1.84338e-07 -8.96011e-08 4.40383e-09 -1.71071e-07 1.22528e-07 -3.14823e-08)
(-1.70403e-07 8.76328e-08 -3.75595e-09 -1.82859e-07 1.2363e-07 -3.19308e-08)
(-1.50885e-06 -3.12204e-08 1.00262e-09 7.75244e-08 1.00657e-07 -1.55683e-08)
(-1.74561e-06 -2.15037e-08 3.1468e-10 -4.24748e-07 1.15898e-07 -9.00954e-08)
(-3.19356e-07 -4.125e-08 7.00975e-09 -2.8992e-07 1.28118e-07 -1.23171e-07)
(-3.01168e-07 4.24234e-08 -5.99582e-09 -2.97668e-07 1.29149e-07 -1.24202e-07)
(-1.58133e-06 2.23798e-08 -1.02002e-10 -4.41531e-07 1.1915e-07 -9.30982e-08)
(-1.78332e-06 -2.40672e-08 2.32825e-09 -3.91912e-07 1.18395e-07 -1.8108e-07)
(-3.16541e-07 -2.58259e-08 8.45587e-09 -3.18135e-07 1.21378e-07 -2.19506e-07)
(-2.98776e-07 2.66266e-08 -7.48914e-09 -3.23607e-07 1.22307e-07 -2.20931e-07)
(-1.61637e-06 2.41968e-08 -2.1096e-09 -4.05848e-07 1.2128e-07 -1.85241e-07)
(-1.82567e-06 -1.60578e-08 4.0385e-09 -3.22402e-07 1.10546e-07 -2.6552e-07)
(-2.81555e-07 -1.97134e-08 9.55834e-09 -3.30825e-07 1.09755e-07 -3.05293e-07)
(-2.63815e-07 1.97537e-08 -8.71686e-09 -3.35226e-07 1.10563e-07 -3.0702e-07)
(-1.65465e-06 1.61582e-08 -3.85038e-09 -3.35002e-07 1.13032e-07 -2.70572e-07)
(-1.91109e-06 -2.22373e-09 5.16644e-09 -2.78135e-07 9.80243e-08 -3.41084e-07)
(-2.80608e-07 -1.18908e-08 1.01745e-08 -3.29519e-07 9.66025e-08 -3.8093e-07)
(-2.6232e-07 1.13338e-08 -9.43801e-09 -3.33595e-07 9.72675e-08 -3.82892e-07)
(-1.73458e-06 2.24765e-09 -5.00619e-09 -2.89887e-07 1.00049e-07 -3.46815e-07)
(-2.08373e-06 3.00681e-08 5.57683e-09 -3.3223e-07 7.77894e-08 -4.08038e-07)
(-3.74397e-07 6.44609e-09 1.01515e-08 -3.47135e-07 7.69347e-08 -4.47386e-07)
(-3.55403e-07 -8.04299e-09 -9.51813e-09 -3.50806e-07 7.74338e-08 -4.49511e-07)
(-1.9006e-06 -3.04519e-08 -5.43856e-09 -3.42686e-07 7.92961e-08 -4.14228e-07)
(-2.40416e-06 9.13188e-08 4.86464e-09 -8.90563e-07 4.54593e-08 -4.54976e-07)
(-6.27191e-07 3.81658e-08 9.33871e-09 -7.30405e-07 4.46158e-08 -4.93478e-07)
(-6.07502e-07 -4.20079e-08 -8.89058e-09 -7.29022e-07 4.49226e-08 -4.95691e-07)
(-2.21412e-06 -9.25253e-08 -4.76898e-09 -8.87821e-07 4.63957e-08 -4.61407e-07)
(-3.01101e-06 1.24672e-07 3.6063e-09 -3.07203e-06 1.84873e-08 -4.60534e-07)
(-9.82371e-07 5.80904e-08 9.02851e-09 -2.62555e-06 1.62094e-08 -4.98883e-07)
(-9.61018e-07 -5.74567e-08 -8.96845e-09 -2.58671e-06 1.63016e-08 -5.01111e-07)
(-2.81313e-06 -1.2389e-07 -3.63869e-09 -2.96345e-06 1.87884e-08 -4.66997e-07)
(-1.61199e-06 3.51615e-08 -9.61449e-13 1.0564e-07 7.55251e-08 -2.33451e-08)
(-1.77543e-07 -8.70001e-08 2.88206e-09 -1.78587e-07 8.72377e-08 -3.23811e-08)
(-1.63953e-07 8.4507e-08 -2.42434e-09 -1.90014e-07 8.79782e-08 -3.273e-08)
(-1.45415e-06 -3.02865e-08 8.78625e-11 6.20031e-08 7.78929e-08 -2.4384e-08)
(-1.68792e-06 -2.00906e-08 1.19797e-09 -4.27912e-07 8.82506e-08 -9.49323e-08)
(-3.09538e-07 -3.9688e-08 4.90346e-09 -2.98435e-07 9.33411e-08 -1.12308e-07)
(-2.91797e-07 4.04228e-08 -4.15456e-09 -3.05963e-07 9.40474e-08 -1.13165e-07)
(-1.52601e-06 2.07758e-08 -1.0187e-09 -4.44199e-07 9.04705e-08 -9.74609e-08)
(-1.72845e-06 -2.24754e-08 2.54189e-09 -3.93497e-07 9.23502e-08 -1.79406e-07)
(-3.09926e-07 -2.4763e-08 5.92749e-09 -3.23705e-07 9.29898e-08 -1.99415e-07)
(-2.92558e-07 2.52536e-08 -5.19981e-09 -3.29108e-07 9.36374e-08 -2.00636e-07)
(-1.56376e-06 2.24959e-08 -2.35625e-09 -4.0735e-07 9.43657e-08 -1.83016e-07)
(-1.77436e-06 -1.48794e-08 3.61146e-09 -3.17608e-07 8.71081e-08 -2.6324e-07)
(-2.79863e-07 -1.90308e-08 6.58669e-09 -3.2729e-07 8.60794e-08 -2.83528e-07)
(-2.62471e-07 1.88805e-08 -5.96401e-09 -3.31724e-07 8.66552e-08 -2.85029e-07)
(-1.60543e-06 1.49168e-08 -3.45459e-09 -3.30377e-07 8.88893e-08 -2.67693e-07)
(-1.86291e-06 -1.59823e-09 4.30449e-09 -2.67426e-07 7.44501e-08 -3.38069e-07)
(-2.83018e-07 -1.16472e-08 6.92447e-09 -3.18576e-07 7.34658e-08 -3.57929e-07)
(-2.65041e-07 1.09773e-08 -6.40398e-09 -3.22734e-07 7.39527e-08 -3.59653e-07)
(-1.68827e-06 1.59022e-09 -4.17863e-09 -2.79473e-07 7.5943e-08 -3.4319e-07)
(-2.03746e-06 2.98023e-08 4.48651e-09 -3.21367e-07 5.44855e-08 -3.97632e-07)
(-3.78539e-07 6.04041e-09 6.85863e-09 -3.36648e-07 5.4255e-08 -4.16973e-07)
(-3.59813e-07 -7.71272e-09 -6.4377e-09 -3.40414e-07 5.4631e-08 -4.18863e-07)
(-1.85588e-06 -3.01967e-08 -4.38846e-09 -3.32137e-07 5.56324e-08 -4.03245e-07)
(-2.35745e-06 8.95821e-08 3.91929e-09 -8.75551e-07 2.86406e-08 -4.33749e-07)
(-6.29442e-07 3.69031e-08 6.31925e-09 -7.19453e-07 2.87025e-08 -4.52797e-07)
(-6.09952e-07 -4.08091e-08 -6.0523e-09 -7.18156e-07 2.89395e-08 -4.54784e-07)
(-2.16847e-06 -9.07874e-08 -3.86491e-09 -8.73065e-07 2.93763e-08 -4.39653e-07)
(-2.95825e-06 1.2206e-07 3.01984e-09 -3.01336e-06 1.07909e-08 -4.3901e-07)
(-9.80606e-07 5.65824e-08 6.09761e-09 -2.57591e-06 9.76574e-09 -4.58777e-07)
(-9.59372e-07 -5.5994e-08 -6.13378e-09 -2.53717e-06 9.83874e-09 -4.60774e-07)
(-2.7608e-06 -1.21282e-07 -3.07452e-09 -2.90505e-06 1.10313e-08 -4.44961e-07)
(-1.58077e-06 3.49341e-08 -4.56256e-13 9.92773e-08 4.74287e-08 -2.87591e-08)
(-1.7506e-07 -8.51377e-08 1.44866e-09 -1.80604e-07 5.24998e-08 -3.32327e-08)
(-1.61674e-07 8.23488e-08 -1.17577e-09 -1.91796e-07 5.29272e-08 -3.35349e-08)
(-1.42426e-06 -3.02889e-08 5.82722e-11 5.65918e-08 4.87807e-08 -2.96502e-08)
(-1.65661e-06 -1.9165e-08 6.26635e-10 -4.25801e-07 5.43977e-08 -1.00147e-07)
(-3.06995e-07 -3.86903e-08 2.50374e-09 -2.9921e-07 5.63298e-08 -1.085e-07)
(-2.89521e-07 3.91687e-08 -2.04369e-09 -3.06596e-07 5.67424e-08 -1.0926e-07)
(-1.49607e-06 1.97386e-08 -5.06059e-10 -4.41746e-07 5.56869e-08 -1.02371e-07)
(-1.69894e-06 -2.15716e-08 1.32703e-09 -3.91975e-07 5.73018e-08 -1.79893e-07)
(-3.10002e-07 -2.4173e-08 3.03953e-09 -3.24054e-07 5.72352e-08 -1.89182e-07)
(-2.92873e-07 2.44653e-08 -2.58335e-09 -3.29408e-07 5.76173e-08 -1.90284e-07)
(-1.53556e-06 2.15216e-08 -1.19968e-09 -4.05751e-07 5.8491e-08 -1.83135e-07)
(-1.74711e-06 -1.42347e-08 1.87519e-09 -3.16076e-07 5.42998e-08 -2.59413e-07)
(-2.83081e-07 -1.86905e-08 3.35957e-09 -3.2614e-07 5.35821e-08 -2.68416e-07)
(-2.65896e-07 1.84056e-08 -2.96845e-09 -3.30587e-07 5.39259e-08 -2.69788e-07)
(-1.57938e-06 1.42265e-08 -1.76642e-09 -3.28926e-07 5.53673e-08 -2.63477e-07)
(-1.83757e-06 -1.28269e-09 2.21868e-09 -2.65687e-07 4.56917e-08 -3.30216e-07)
(-2.88662e-07 -1.15515e-08 3.50477e-09 -3.16416e-07 4.51721e-08 -3.38667e-07)
(-2.70868e-07 1.07967e-08 -3.18409e-09 -3.20621e-07 4.54671e-08 -3.40259e-07)
(-1.66398e-06 1.24898e-09 -2.13236e-09 -2.77905e-07 4.66017e-08 -3.34951e-07)
(-2.013e-06 2.96004e-08 2.28511e-09 -3.20205e-07 3.22793e-08 -3.84921e-07)
(-3.85012e-07 5.79463e-09 3.44791e-09 -3.35396e-07 3.23215e-08 -3.93037e-07)
(-3.6644e-07 -7.52294e-09 -3.19761e-09 -3.3922e-07 3.25528e-08 -3.94798e-07)
(-1.83229e-06 -3.00059e-08 -2.2203e-09 -3.31172e-07 3.29911e-08 -3.90172e-07)
(-2.33212e-06 8.85859e-08 1.9588e-09 -8.69871e-07 1.63006e-08 -4.17656e-07)
(-6.34507e-07 3.62379e-08 3.16538e-09 -7.15712e-07 1.66183e-08 -4.25902e-07)
(-6.15131e-07 -4.01882e-08 -3.01682e-09 -7.1447e-07 1.67662e-08 -4.27765e-07)
(-2.14373e-06 -8.97944e-08 -1.92542e-09 -8.67556e-07 1.67654e-08 -4.23232e-07)
(-2.92862e-06 1.20633e-07 1.42624e-09 -2.97948e-06 5.91415e-09 -4.25908e-07)
(-9.83015e-07 5.58018e-08 3.02017e-09 -2.54685e-06 5.57595e-09 -4.35046e-07)
(-9.61853e-07 -5.5244e-08 -3.06406e-09 -2.50817e-06 5.62223e-09 -4.36916e-07)
(-2.73139e-06 -1.19861e-07 -1.46504e-09 -2.87133e-06 6.06799e-09 -4.31543e-07)
(-1.56681e-06 3.48723e-08 -1.60023e-11 9.72846e-08 1.61311e-08 -3.11273e-08)
(-1.74078e-07 -8.42869e-08 4.26794e-10 -1.80848e-07 1.75663e-08 -3.38695e-08)
(-1.60787e-07 8.1365e-08 -3.36097e-10 -1.91924e-07 1.7706e-08 -3.4152e-08)
(-1.41091e-06 -3.03318e-08 3.60808e-11 5.50594e-08 1.65704e-08 -3.19512e-08)
(-1.64265e-06 -1.87598e-08 1.59889e-10 -4.23802e-07 1.83175e-08 -1.02767e-07)
(-3.06175e-07 -3.82559e-08 7.3546e-10 -2.98503e-07 1.88161e-08 -1.0765e-07)
(-2.88824e-07 3.86176e-08 -5.80283e-10 -3.05818e-07 1.89517e-08 -1.08366e-07)
(-1.48274e-06 1.92827e-08 -1.17642e-10 -4.39573e-07 1.87398e-08 -1.04843e-07)
(-1.68582e-06 -2.11822e-08 3.69413e-10 -3.90569e-07 1.9303e-08 -1.80131e-07)
(-3.10482e-07 -2.39286e-08 8.94253e-10 -3.23405e-07 1.92254e-08 -1.8528e-07)
(-2.93463e-07 2.41258e-08 -7.38596e-10 -3.28734e-07 1.93518e-08 -1.86327e-07)
(-1.52304e-06 2.10986e-08 -3.24239e-10 -4.04298e-07 1.96958e-08 -1.83189e-07)
(-1.73505e-06 -1.3962e-08 5.34331e-10 -3.15656e-07 1.83156e-08 -2.5664e-07)
(-2.85025e-07 -1.85597e-08 9.86729e-10 -3.25804e-07 1.807e-08 -2.61319e-07)
(-2.67936e-07 1.82058e-08 -8.52696e-10 -3.30256e-07 1.81843e-08 -2.62632e-07)
(-1.56787e-06 1.39301e-08 -4.95405e-10 -3.28538e-07 1.8671e-08 -2.60509e-07)
(-1.82637e-06 -1.1568e-09 6.35638e-10 -2.66102e-07 1.53291e-08 -3.246e-07)
(-2.91688e-07 -1.15243e-08 1.02516e-09 -3.16558e-07 1.51733e-08 -3.28753e-07)
(-2.73977e-07 1.07233e-08 -9.1588e-10 -3.20784e-07 1.5272e-08 -3.30285e-07)
(-1.65326e-06 1.10854e-09 -6.04746e-10 -2.78397e-07 1.56344e-08 -3.29145e-07)
(-2.00214e-06 2.9502e-08 6.51871e-10 -3.21038e-07 1.0703e-08 -3.76972e-07)
(-3.88357e-07 5.68581e-09 1.00435e-09 -3.36087e-07 1.07484e-08 -3.80936e-07)
(-3.69854e-07 -7.44528e-09 -9.20269e-10 -3.39938e-07 1.08263e-08 -3.82639e-07)
(-1.82181e-06 -2.99146e-08 -6.28919e-10 -3.32099e-07 1.09439e-08 -3.82047e-07)
(-2.32069e-06 8.81507e-08 5.48504e-10 -8.68073e-07 5.35114e-09 -4.08894e-07)
(-6.37144e-07 3.59673e-08 9.18844e-10 -7.14642e-07 5.50201e-09 -4.13186e-07)
(-6.1782e-07 -3.99413e-08 -8.70273e-10 -7.13427e-07 5.55212e-09 -4.14994e-07)
(-2.13256e-06 -8.93622e-08 -5.36854e-10 -8.65842e-07 5.50973e-09 -4.14311e-07)
(-2.91504e-06 1.20024e-07 3.72269e-10 -2.96405e-06 1.91046e-09 -4.19071e-07)
(-9.84354e-07 5.54842e-08 8.67179e-10 -2.53342e-06 1.84345e-09 -4.24232e-07)
(-9.63223e-07 -5.49422e-08 -8.84547e-10 -2.49476e-06 1.85924e-09 -4.26045e-07)
(-2.7179e-06 -1.19257e-07 -3.8575e-10 -2.85597e-06 1.96325e-09 -4.24552e-07)
)
;

boundaryField
{
    interface
    {
        type            calculated;
        value           nonuniform List<symmTensor> 
192
(
(-4.66485e-06 2.29522e-12 1.7917e-11 1.37252e-06 2.17114e-07 -2.86922e-06)
(-4.36991e-06 2.0532e-12 2.89499e-11 -4.63741e-07 2.69779e-08 -2.9129e-06)
(-4.46045e-06 2.32475e-13 3.28803e-11 -5.55693e-07 -1.75754e-09 -2.97415e-06)
(-4.59861e-06 -2.60218e-12 3.39248e-11 -5.09542e-07 6.79021e-09 -3.05245e-06)
(-4.76745e-06 -5.07267e-12 3.3601e-11 -5.23878e-07 2.70463e-08 -3.15873e-06)
(-4.99014e-06 -9.43905e-12 3.27179e-11 -7.01765e-07 6.39584e-08 -3.31176e-06)
(-5.28042e-06 -1.27548e-11 3.01968e-11 -1.48237e-06 1.21747e-07 -3.5543e-06)
(-5.82673e-06 -2.85791e-11 2.82441e-11 -4.02523e-06 1.48882e-07 -4.02355e-06)
(-3.8766e-06 1.65182e-12 8.79012e-12 5.93146e-07 5.5394e-09 -5.31073e-07)
(-3.67596e-06 1.54585e-12 1.52259e-11 -3.073e-07 3.31272e-08 -8.4517e-07)
(-3.72752e-06 -6.57883e-14 1.70908e-11 -4.07472e-07 2.9223e-08 -8.98834e-07)
(-3.83247e-06 -2.94934e-12 1.72509e-11 -4.33053e-07 3.27916e-08 -9.12152e-07)
(-3.98466e-06 -5.55783e-12 1.66365e-11 -4.67378e-07 5.9905e-08 -9.45039e-07)
(-4.21144e-06 -1.03706e-11 1.57227e-11 -5.85828e-07 1.03929e-07 -1.02701e-06)
(-4.54958e-06 -1.40417e-11 1.40959e-11 -1.19723e-06 1.39165e-07 -1.20385e-06)
(-5.28357e-06 -3.06489e-11 1.28011e-11 -3.55566e-06 1.22533e-07 -1.48344e-06)
(-3.39098e-06 1.41474e-12 6.90238e-12 2.80063e-07 8.04914e-08 -6.20565e-08)
(-3.30288e-06 1.29559e-12 1.18059e-11 -3.55169e-07 1.01499e-07 -2.30534e-07)
(-3.36091e-06 -2.78134e-13 1.31968e-11 -3.7407e-07 9.21674e-08 -3.17148e-07)
(-3.45968e-06 -3.30243e-12 1.32798e-11 -3.69195e-07 8.57548e-08 -3.56146e-07)
(-3.61075e-06 -6.15263e-12 1.27726e-11 -3.76396e-07 9.78932e-08 -3.98984e-07)
(-3.8479e-06 -1.14916e-11 1.20338e-11 -4.51295e-07 1.15847e-07 -4.77808e-07)
(-4.21546e-06 -1.56946e-11 1.08561e-11 -1.01392e-06 1.09307e-07 -5.99418e-07)
(-4.99853e-06 -3.34062e-11 9.86815e-12 -3.31396e-06 6.70691e-08 -7.01185e-07)
(-3.09997e-06 1.06618e-12 4.19923e-12 1.65993e-07 1.0521e-07 -7.62648e-09)
(-3.05035e-06 8.09815e-13 7.60041e-12 -4.04841e-07 1.27139e-07 -1.04567e-07)
(-3.11671e-06 -7.72349e-13 8.51983e-12 -3.83315e-07 1.23308e-07 -2.0022e-07)
(-3.21705e-06 -3.82696e-12 8.48974e-12 -3.35954e-07 1.13699e-07 -2.71988e-07)
(-3.37041e-06 -6.78344e-12 8.0528e-12 -3.1026e-07 1.09188e-07 -3.37691e-07)
(-3.61381e-06 -1.23482e-11 7.47651e-12 -3.68362e-07 1.00926e-07 -4.1285e-07)
(-3.99407e-06 -1.67886e-11 6.72674e-12 -9.27461e-07 7.18879e-08 -4.86577e-07)
(-4.78579e-06 -3.47692e-11 6.13207e-12 -3.16613e-06 3.39828e-08 -5.11198e-07)
(-2.92896e-06 8.98591e-13 3.06225e-12 1.22656e-07 9.70982e-08 -1.42592e-08)
(-2.88981e-06 5.05838e-13 5.54538e-12 -4.24748e-07 1.15898e-07 -9.00954e-08)
(-2.96084e-06 -1.13509e-12 6.22184e-12 -3.91912e-07 1.18395e-07 -1.8108e-07)
(-3.06427e-06 -4.24738e-12 6.1984e-12 -3.22402e-07 1.10546e-07 -2.6552e-07)
(-3.22065e-06 -7.31619e-12 5.87595e-12 -2.78135e-07 9.80243e-08 -3.41084e-07)
(-3.46764e-06 -1.30745e-11 5.44727e-12 -3.3223e-07 7.77894e-08 -4.08038e-07)
(-3.85204e-06 -1.77313e-11 4.92244e-12 -8.90563e-07 4.54593e-08 -4.54976e-07)
(-4.63883e-06 -3.59853e-11 4.49442e-12 -3.07203e-06 1.84873e-08 -4.60534e-07)
(-2.82914e-06 7.68078e-13 1.8625e-12 1.0564e-07 7.55251e-08 -2.33451e-08)
(-2.79318e-06 2.61133e-13 3.49054e-12 -4.27912e-07 8.82506e-08 -9.49323e-08)
(-2.86663e-06 -1.43425e-12 3.93794e-12 -3.93497e-07 9.23502e-08 -1.79406e-07)
(-2.97263e-06 -4.58163e-12 3.91293e-12 -3.17608e-07 8.71081e-08 -2.6324e-07)
(-3.13145e-06 -7.71327e-12 3.68997e-12 -2.67426e-07 7.44501e-08 -3.38069e-07)
(-3.38032e-06 -1.35692e-11 3.4008e-12 -3.21367e-07 5.44855e-08 -3.97632e-07)
(-3.76522e-06 -1.83389e-11 3.07653e-12 -8.75551e-07 2.86406e-08 -4.33749e-07)
(-4.54506e-06 -3.67291e-11 2.82259e-12 -3.01336e-06 1.07909e-08 -4.3901e-07)
(-2.77348e-06 7.04127e-13 1.09023e-12 9.92773e-08 4.74287e-08 -2.87591e-08)
(-2.73878e-06 1.19129e-13 2.0413e-12 -4.25801e-07 5.43977e-08 -1.00147e-07)
(-2.81348e-06 -1.6235e-12 2.30478e-12 -3.91975e-07 5.73018e-08 -1.79893e-07)
(-2.92113e-06 -4.80131e-12 2.29116e-12 -3.16076e-07 5.42998e-08 -2.59413e-07)
(-3.08148e-06 -7.98069e-12 2.16226e-12 -2.65687e-07 4.56917e-08 -3.30216e-07)
(-3.33118e-06 -1.39042e-11 1.99144e-12 -3.20205e-07 3.22793e-08 -3.84921e-07)
(-3.71551e-06 -1.87534e-11 1.80778e-12 -8.69871e-07 1.63006e-08 -4.17656e-07)
(-4.4901e-06 -3.7246e-11 1.65573e-12 -2.97948e-06 5.91415e-09 -4.25908e-07)
(-2.74845e-06 6.64595e-13 3.21829e-13 9.72846e-08 1.61311e-08 -3.11273e-08)
(-2.71426e-06 3.94836e-14 6.2545e-13 -4.23802e-07 1.83175e-08 -1.02767e-07)
(-2.7895e-06 -1.72414e-12 7.1073e-13 -3.90569e-07 1.9303e-08 -1.80131e-07)
(-2.89793e-06 -4.91168e-12 7.05084e-13 -3.15656e-07 1.83156e-08 -2.5664e-07)
(-3.05899e-06 -8.11037e-12 6.62956e-13 -2.66102e-07 1.53291e-08 -3.246e-07)
(-3.30898e-06 -1.40586e-11 6.07095e-13 -3.21038e-07 1.0703e-08 -3.76972e-07)
(-3.69281e-06 -1.89442e-11 5.52251e-13 -8.68073e-07 5.35114e-09 -4.08894e-07)
(-4.46472e-06 -3.74792e-11 5.04431e-13 -2.96405e-06 1.91046e-09 -4.19071e-07)
(-2.80157e-06 1.92363e-07 -2.51441e-11 1.37252e-06 -5.99103e-12 -4.79391e-06)
(-2.88387e-06 -7.00423e-10 -4.271e-11 -4.63741e-07 -7.15127e-12 -4.47588e-06)
(-2.94821e-06 -2.89022e-08 -4.97109e-11 -5.55693e-07 -6.02344e-12 -4.56752e-06)
(-3.00711e-06 -1.90719e-08 -5.21881e-11 -5.09542e-07 -4.4112e-12 -4.71486e-06)
(-3.09831e-06 -2.14747e-09 -5.2956e-11 -5.23878e-07 -3.71318e-12 -4.89023e-06)
(-3.25722e-06 3.02374e-08 -5.35864e-11 -7.01765e-07 -3.959e-12 -5.11093e-06)
(-3.52395e-06 8.94664e-08 -5.44696e-11 -1.48237e-06 -4.84174e-12 -5.39317e-06)
(-3.99866e-06 1.19894e-07 -5.97375e-11 -4.02523e-06 -6.21516e-12 -5.93421e-06)
(-6.00768e-07 -4.17823e-08 -1.498e-11 8.56202e-07 -3.57006e-12 -4.29123e-06)
(-1.02404e-06 -3.37348e-08 -2.86841e-11 -2.19386e-07 -5.38859e-12 -3.99296e-06)
(-1.07159e-06 -3.00459e-08 -3.37016e-11 -4.03286e-07 -4.67297e-12 -4.01753e-06)
(-1.03167e-06 -2.26803e-08 -3.52489e-11 -4.8886e-07 -2.88411e-12 -4.12076e-06)
(-1.02536e-06 -1.14206e-08 -3.57337e-11 -5.65882e-07 -1.69801e-12 -4.27101e-06)
(-1.11606e-06 8.89609e-09 -3.65288e-11 -7.12306e-07 -1.068e-12 -4.48216e-06)
(-1.36142e-06 4.1061e-08 -3.85045e-11 -1.32836e-06 -1.186e-12 -4.79606e-06)
(-1.70355e-06 5.75013e-08 -4.54744e-11 -3.68624e-06 -1.71428e-12 -5.53009e-06)
(-5.84904e-07 4.09138e-08 -1.49935e-11 8.39117e-07 -2.57771e-12 -4.22498e-06)
(-1.00285e-06 3.76012e-08 -2.89996e-11 -2.25686e-07 -4.29936e-12 -3.92873e-06)
(-1.05061e-06 3.41858e-08 -3.43352e-11 -4.07528e-07 -3.7424e-12 -3.95099e-06)
(-1.01077e-06 2.57703e-08 -3.60398e-11 -4.92495e-07 -1.82714e-12 -4.05234e-06)
(-1.00421e-06 1.33551e-08 -3.65044e-11 -5.69431e-07 -3.21002e-13 -4.20126e-06)
(-1.09477e-06 -8.57618e-09 -3.70931e-11 -7.15548e-07 8.99457e-13 -4.41116e-06)
(-1.34021e-06 -4.35332e-08 -3.86845e-11 -1.3266e-06 1.55578e-12 -4.72395e-06)
(-1.68135e-06 -5.62975e-08 -4.53537e-11 -3.64742e-06 1.62888e-12 -5.45941e-06)
(-2.62564e-06 -1.85525e-07 -1.663e-11 1.30959e-06 -2.08661e-12 -4.60565e-06)
(-2.70028e-06 2.99385e-09 -3.32157e-11 -4.7625e-07 -3.63216e-12 -4.29556e-06)
(-2.76149e-06 3.05028e-08 -3.99715e-11 -5.6571e-07 -3.0623e-12 -4.38021e-06)
(-2.81695e-06 2.04136e-08 -4.22461e-11 -5.19425e-07 -1.02365e-12 -4.52215e-06)
(-2.90477e-06 3.0683e-09 -4.28393e-11 -5.33549e-07 6.15437e-13 -4.69378e-06)
(-3.06098e-06 -3.00698e-08 -4.35722e-11 -7.10545e-07 2.10874e-12 -4.91118e-06)
(-3.32627e-06 -9.03901e-08 -4.48346e-11 -1.47858e-06 3.20746e-12 -5.19083e-06)
(-3.79764e-06 -1.19019e-07 -5.17986e-11 -3.9187e-06 4.23669e-12 -5.73856e-06)
(-4.34471e-06 5.16377e-12 4.781e-12 1.30959e-06 2.19356e-07 -2.76771e-06)
(-4.04511e-06 6.37704e-12 9.46684e-12 -4.7625e-07 3.01538e-08 -2.8141e-06)
(-4.12895e-06 4.31675e-12 1.09854e-11 -5.6571e-07 4.42804e-10 -2.87241e-06)
(-4.26009e-06 7.67077e-13 1.16507e-11 -5.19425e-07 8.16493e-09 -2.94823e-06)
(-4.42265e-06 -1.12755e-12 1.20963e-11 -5.33549e-07 2.78983e-08 -3.05265e-06)
(-4.64024e-06 -3.7529e-12 1.35674e-11 -7.10545e-07 6.44336e-08 -3.20406e-06)
(-4.92747e-06 -3.54519e-12 1.47389e-11 -1.47858e-06 1.21797e-07 -3.4454e-06)
(-5.46908e-06 -1.78136e-11 1.84979e-11 -3.9187e-06 1.48741e-07 -3.91792e-06)
(-3.55866e-06 2.07598e-12 -1.86396e-12 5.38157e-07 1.63682e-08 -5.2471e-07)
(-3.36006e-06 2.80306e-12 -1.51818e-12 -3.24908e-07 3.99078e-08 -8.38107e-07)
(-3.40603e-06 1.75355e-12 -1.94012e-12 -4.19854e-07 3.38989e-08 -8.93145e-07)
(-3.50362e-06 -3.5688e-13 -2.0174e-12 -4.43609e-07 3.60499e-08 -9.07317e-07)
(-3.64803e-06 -9.65588e-13 -1.64933e-12 -4.77234e-07 6.20611e-08 -9.40565e-07)
(-3.86713e-06 -2.54626e-12 -1.81745e-13 -5.94767e-07 1.05164e-07 -1.02272e-06)
(-4.19939e-06 -8.48518e-13 1.65331e-12 -1.19366e-06 1.39545e-07 -1.19968e-06)
(-4.92824e-06 -1.41972e-11 4.57442e-12 -3.44539e-06 1.22532e-07 -1.47915e-06)
(-3.08344e-06 1.14447e-12 -8.84453e-13 2.29852e-07 8.78013e-08 -6.41152e-08)
(-2.99612e-06 1.41457e-12 6.65388e-14 -3.73233e-07 1.07324e-07 -2.34093e-07)
(-3.04835e-06 8.05983e-13 4.1254e-13 -3.8771e-07 9.67609e-08 -3.22197e-07)
(-3.13944e-06 -5.63131e-13 7.51106e-13 -3.80791e-07 8.9291e-08 -3.62379e-07)
(-3.28179e-06 -4.1013e-13 1.26632e-12 -3.86997e-07 1.00454e-07 -4.05921e-07)
(-3.50928e-06 -1.4035e-12 2.44353e-12 -4.60769e-07 1.17507e-07 -4.85093e-07)