/*--------------------------------*- C++ -*----------------------------------*\
| =========                 |                                                 |
| \\      /  F ield         | OpenFOAM: The Open Source CFD Toolbox           |
|  \\    /   O peration     | Version:  v1912                                 |
|   \\  /    A nd           | Website:  www.openfoam.com                      |
|    \\/     M anipulation  |                                                 |
\*---------------------------------------------------------------------------*/
FoamFile
{
    version     2.0;
    format      ascii;
    class       volVectorField;
    location    "0.71/solid";
    object      heatFlux;
}
// * * * * * * * * * * * * * * * * * * * * * * * * * * * * * * * * * * * * * //

dimensions      [1 0 -3 0 0 0 0];


internalField   nonuniform List<vector> 
256
(
(-65998.3 69688.4 -69710.6)
(-13225.1 40560.8 -68155.4)
(12060.8 40151.4 -66966.1)
(59913.9 67534 -66175.3)
(-63325.3 9711.86 -67349.4)
(-16311.9 6158.22 -68530.3)
(14912.5 6102.93 -67288.2)
(56935.6 9473.4 -63736.1)
(-64492.9 2251.15 -68621.9)
(-16834 1357.58 -70093.7)
(15376 1339.07 -68799.2)
(57967.7 2172.64 -64876.4)
(-66353.2 2224.66 -70507.8)
(-17224 1293.96 -72101.6)
(15727.5 1282.62 -70771.3)
(59691.1 2169.01 -66666.7)
(-68996.7 3755.03 -73156)
(-17776 2379.35 -75009.8)
(16251 2370.36 -73654.4)
(62209 3712.4 -69246.1)
(-72819.6 8720.03 -77006.2)
(-18608.7 6837.2 -79504.7)
(17060.6 6811.63 -78125.9)
(65922.1 8647.21 -73031.9)
(-76987.1 28382.8 -81335.9)
(-19684.4 27416.6 -85247.6)
(18061.1 27212.1 -83841.4)
(69972 27830.3 -77290.7)
(-72287.2 77213.6 -77127.6)
(-19779.4 82914 -82846.1)
(17474.3 81552.6 -81497.1)
(64935.5 73323.4 -73281.6)
(-62562.9 36998.9 -17910.9)
(-11822.4 10299.1 -15451.2)
(11197.8 10203.7 -15296.7)
(56790.7 35740.3 -17459.9)
(-62868.3 5653.81 -22456.7)
(-14972.8 1980.89 -19863.7)
(14243.4 1969.25 -19669.2)
(56893.3 5534.42 -21893.3)
(-64348.3 1298.42 -23167.6)
(-15507 381.588 -20567.5)
(14751.3 376.428 -20362.8)
(58243.8 1252.86 -22578.3)
(-66338.2 1283.91 -23624.5)
(-15894.8 323.645 -21014.2)
(15114.7 318.782 -20804.9)
(60090.6 1240.7 -23025.5)
(-69258.6 2360.34 -24259.1)
(-16472.1 843.265 -21670.1)
(15668.4 837.627 -21458.7)
(62864.1 2318.07 -23660.1)
(-73767.4 6709.12 -25238.9)
(-17417.5 4374.02 -22775.6)
(16589.5 4349.89 -22563.5)
(67225.1 6628.05 -24648.3)
(-79469.1 26749.9 -26721.9)
(-18831.3 24687.4 -24675.2)
(17922.4 24472.5 -24464)
(72766.7 26154.3 -26147.4)
(-77049 81468.5 -28348)
(-19694.9 85355.1 -27398.9)
(18056.4 83929 -27199.3)
(69980.4 77357.3 -27820.4)
(-56095.1 29320.8 -4366.91)
(-10610.8 5245.88 -2427.11)
(10052.1 5185.54 -2409.87)
(50514.6 28180.8 -4297.52)
(-56900.9 4455.13 -5714.54)
(-13524.4 1041.88 -3374.24)
(12882.8 1036.77 -3350.65)
(51137.4 4354.93 -5623.85)
(-58343.2 1083.36 -5900.9)
(-14029.2 207.081 -3512.15)
(13365.2 203.37 -3487.29)
(52450.1 1040.49 -5806.87)
(-60276.5 1133.18 -5979.15)
(-14404.4 191.392 -3572.2)
(13716.2 186.753 -3547.04)
(54234.6 1087.24 -5885.73)
(-63176.6 2140.56 -6074.96)
(-14975.6 617.969 -3658.04)
(14261 611.697 -3633.13)
(56970.4 2089.62 -5985.94)
(-67760.4 6257.2 -6235.44)
(-15933.3 3832.11 -3829.19)
(15187.9 3806.35 -3805.16)
(61370.2 6159.96 -6156.26)
(-73846.9 25273.8 -6686.01)
(-17426.4 22793.3 -4370.35)
(16588.9 22576.3 -4348.15)
(67240.9 24658.2 -6623.92)
(-72962.8 77210.7 -8678.79)
(-18630.8 79672.9 -6818.86)
(17052.8 78262.3 -6798.49)
(65945.4 73136.1 -8634.73)
(-51740.4 26917.5 -1566.24)
(-9865.39 4497.74 -389.037)
(9327.38 4443.21 -385.367)
(46301.8 25818.9 -1535.8)
(-52546.1 4119.81 -1992.08)
(-12608.9 895.851 -546.771)
(11993.8 891.833 -541.687)
(46933.9 4025.07 -1953.49)
(-53933.7 1033.81 -2044.1)
(-13093.4 183.632 -568.006)
(12456.6 180.042 -562.722)
(48192.7 990.989 -2004.58)
(-55828.6 1109.86 -2058.6)
(-13462.6 177.75 -574.313)
(12801.2 172.946 -569.07)
(49935.7 1061.63 -2019.96)
(-58705 2104.04 -2072.54)
(-14030.3 586.27 -583.188)
(13340.5 579.504 -578.172)
(52635.2 2047.54 -2036.75)
(-63283.2 6098.07 -2108.12)
(-14987.2 3661.71 -614.669)
(14262.4 3634.87 -610.192)
(57004.4 5990.07 -2078.3)
(-69449.4 24306.6 -2323.23)
(-16493.5 21697.7 -837.323)
(15668.8 21479.2 -834.011)
(62913.2 23675.8 -2304.61)
(-69255 73467.8 -3686.3)
(-17814.6 75271.3 -2346.43)
(16240.5 73868.4 -2344.57)
(62264 69411.1 -3681.96)
(-49110.9 25762.5 -806.172)
(-9429.94 4310.07 -116.593)
(8905.36 4258.49 -114.56)
(43768.8 24691.5 -786.242)
(-49888.8 3977.28 -1004.25)
(-12074 862.907 -158.87)
(11476.1 859.418 -156.054)
(44378.8 3886.15 -978.926)
(-51246.9 1016.84 -1025.36)
(-12547.8 179.54 -163.686)
(11928.6 175.987 -160.77)
(45609.4 974.025 -999.417)
(-53124.3 1104.73 -1029)
(-12914.9 176.21 -164.357)
(12270.6 171.303 -161.477)
(47331.6 1055.08 -1003.68)
(-55988.5 2091.04 -1032.37)
(-13481.2 577.613 -165.566)
(12807.5 570.575 -162.815)
(50010.3 2031.28 -1008.79)
(-60550 6006.51 -1050.34)
(-14435.4 3577.97 -177.427)
(13724.3 3550.51 -174.975)
(54347 5892.1 -1030.26)
(-66707.9 23695.6 -1183.65)
(-15937.2 21061.5 -297.614)
(15121.6 20841.9 -295.839)
(60221.7 23054.5 -1170.3)
(-66793.5 70997.1 -2046.47)
(-17289.1 72526.5 -1193.11)
(15717.3 71125.8 -1192.47)
(59822.2 66943.7 -2043.19)
(-47532.1 25107.1 -457.513)
(-9173.78 4222.28 -57.7867)
(8657.73 4172.6 -56.5148)
(42249 24053.8 -445.301)
(-48294.3 3900.63 -565.591)
(-11760.7 848.757 -77.3737)
(11173.7 845.622 -75.595)
(42846.9 3811.9 -549.925)
(-49638.2 1009.06 -576.086)
(-12228.8 178.145 -79.3464)
(11620.9 174.619 -77.5005)
(44063.5 966.234 -560.026)
(-51507.5 1102.85 -577.268)
(-12595.1 175.87 -79.4272)
(11961.8 170.902 -77.6014)
(45774.4 1052.26 -561.605)
(-54364 2082.7 -578.994)
(-13160.7 573.2 -79.8368)
(12497.3 566.006 -78.0865)
(48439.6 2020.96 -564.402)
(-58907.7 5946.79 -591.21)
(-14111.8 3529.67 -86.361)
(13409.6 3501.85 -84.7787)
(52748.6 5828.56 -578.664)
(-65034.8 23310.4 -675.577)
(-15605.7 20682 -155.651)
(14796.2 20461.7 -154.451)
(58577.4 22662.9 -666.966)
(-65233.1 69424.6 -1205.42)
(-16960.6 70837.4 -684.151)
(15390.5 69437.4 -683.669)
(58271.2 65370.7 -1203.13)
(-46627 24739.4 -239.431)
(-9028.94 4174.91 -29.4105)
(8517.85 4126.38 -28.7122)
(41377.2 23696.3 -232.902)
(-47381.2 3858.7 -295)
(-11584 841.347 -39.166)
(11003.6 838.433 -38.1818)
(41969.2 3771.42 -286.562)
(-48718.1 1005.16 -300.128)
(-12049.2 177.487 -40.0988)
(11447.9 173.98 -39.0744)
(43178.8 962.345 -291.462)
(-50583.3 1101.82 -300.579)
(-12415.2 175.72 -40.1044)
(11788.4 170.717 -39.0901)
(44883.9 1050.7 -292.124)
(-53434.7 2077.1 -301.655)
(-12980.3 570.679 -40.3189)
(12322.9 563.397 -39.3444)
(47540.2 2014.22 -293.777)
(-57964 5909.92 -309.043)
(-13928.9 3502.16 -43.7982)
(13232 3474.14 -42.9113)
(51829 5789.53 -302.25)
(-64063 23081.4 -356.194)
(-15416.1 20463.7 -80.4327)
(14610.3 20243 -79.7418)
(57621 22430.1 -351.484)
(-64305.7 68485.1 -645.451)
(-16767.3 69847.3 -362.645)
(15198.3 68447.2 -362.346)
(57347.9 64429.9 -644.194)
(-46212 24572.6 -74.7607)
(-8963.06 4153.7 -9.10647)
(8454.24 4105.71 -8.88421)
(40977.3 23534.3 -72.7132)
(-46962.8 3839.93 -91.9764)
(-11503.9 838.069 -12.1038)
(10926.3 835.26 -11.7891)
(41566.7 3753.34 -89.3186)
(-48296.7 1003.48 -93.5312)
(-11967.7 177.207 -12.3847)
(11369.5 173.711 -12.0566)
(42773.3 960.672 -90.7975)
(-50160.1 1101.32 -93.6579)
(-12333.6 175.65 -12.3835)
(11709.8 170.632 -12.0585)
(44475.8 1049.95 -90.9907)
(-53008.8 2074.24 -94.0381)
(-12898.4 569.506 -12.4543)
(12243.8 562.185 -12.142)
(47127.5 2010.84 -91.5539)
(-57530.2 5892.25 -96.5184)
(-13845.7 3489.55 -13.5562)
(13151.1 3461.45 -13.2714)
(51405.9 5770.86 -94.3777)
(-63613.5 22974 -111.712)
(-15329.2 20363.2 -25.0621)
(14525.1 20142.3 -24.8381)
(57178 22320.9 -110.229)
(-63871.6 68043.3 -203.877)
(-16677.4 69386.1 -114.106)
(15108.9 67986.1 -114.005)
(56915.1 63987.3 -203.495)
)
;

boundaryField
{
    interface
    {
        type            calculated;
        value           nonuniform List<vector> 
192
(
(-105912 69688.4 -69710.6)
(-94479.6 9711.86 -67349.4)
(-95794.3 2251.15 -68621.9)
(-98748.3 2224.66 -70507.8)
(-102940 3755.03 -73156)
(-108930 8720.03 -77006.2)
(-115156 28382.8 -81335.9)
(-105933 77213.6 -77127.6)
(-101567 36998.9 -17910.9)
(-95895.4 5653.81 -22456.7)
(-97792.2 1298.42 -23167.6)
(-101001 1283.91 -23624.5)
(-105692 2360.34 -24259.1)
(-112826 6709.12 -25238.9)
(-121443 26749.9 -26721.9)
(-115264 81468.5 -28348)
(-91025.4 29320.8 -4366.91)
(-86816.7 4455.13 -5714.54)
(-88695 1083.36 -5900.9)
(-91815.5 1133.18 -5979.15)
(-96478.2 2140.56 -6074.96)
(-103738 6257.2 -6235.44)
(-112969 25273.8 -6686.01)
(-109182 77210.7 -8678.79)
(-83801.9 26917.5 -1566.24)
(-79931.5 4119.81 -1992.08)
(-81740.5 1033.81 -2044.1)
(-84796.2 1109.86 -2058.6)
(-89418.9 2104.04 -2072.54)
(-96669.8 6098.07 -2108.12)
(-106035 24306.6 -2323.23)
(-103396 73467.8 -3686.3)
(-79411.3 25762.5 -806.172)
(-75683.1 3977.28 -1004.25)
(-77454.7 1016.84 -1025.36)
(-80479.7 1104.73 -1029)
(-85080.7 2091.04 -1032.37)
(-92304.3 6006.51 -1050.34)
(-101662 23695.6 -1183.65)
(-99523 70997.1 -2046.47)
(-76764.5 25107.1 -457.513)
(-73118.7 3900.63 -565.591)
(-74872.9 1009.06 -576.086)
(-77883.2 1102.85 -577.268)
(-82470.6 2082.7 -578.994)
(-89664.7 5946.79 -591.21)
(-98978 23310.4 -675.577)
(-97058.6 69424.6 -1205.42)
(-75243 24739.4 -239.431)
(-71644.5 3858.7 -295)
(-73390.5 1005.16 -300.128)
(-76393.4 1101.82 -300.579)
(-80971.4 2077.1 -301.655)
(-88141.8 5909.92 -309.043)
(-97412.6 23081.4 -356.194)
(-95589.9 68485.1 -645.451)
(-74544.4 24572.6 -74.7607)
(-70967.4 3839.93 -91.9764)
(-72710 1003.48 -93.5312)
(-75709.5 1101.32 -93.6579)
(-80282.8 2074.24 -94.0381)
(-87440.3 5892.25 -96.5184)
(-96686.9 22974 -111.712)
(-94901.2 68043.3 -203.877)
(-65998.3 69688.4 -110227)
(-63325.3 9711.86 -98513.8)
(-64492.9 2251.15 -99933.9)
(-66353.2 2224.66 -102925)
(-68996.7 3755.03 -107121)
(-72819.6 8720.03 -113133)
(-76987.1 28382.8 -119459)
(-72287.2 77213.6 -110109)
(-13225.1 40560.8 -109643)
(-16311.9 6158.22 -103205)
(-16834 1357.58 -105165)
(-17224 1293.96 -108396)
(-17776 2379.35 -113056)
(-18608.7 6837.2 -120130)
(-19684.4 27416.6 -128606)
(-19779.4 82914 -121354)
(12060.8 40151.4 -107544)
(14912.5 6102.93 -101070)
(15376 1339.07 -102942)
(15727.5 1282.62 -106111)
(16251 2370.36 -110725)
(17060.6 6811.63 -117754)
(18061.1 27212.1 -126176)
(17474.3 81552.6 -119018)
(59913.9 67534 -103957)
(56935.6 9473.4 -92278.7)
(57967.7 2172.64 -93480.8)
(59691.1 2169.01 -96300.3)
(62209 3712.4 -100364)
(65922.1 8647.21 -106242)
(69972 27830.3 -112415)
(64935.5 73323.4 -103389)
(95340.3 67534 -66175.3)
(83593.3 9473.4 -63736.1)
(84707 2172.64 -64876.4)
(87437.1 2169.01 -66666.7)
(91416.8 3712.4 -69246.1)
(97215.1 8647.21 -73031.9)
(103272 27830.3 -77290.7)
(94005.5 73323.4 -73281.6)
(91099.4 35740.3 -17459.9)
(85195.4 5534.42 -21893.3)
(86875.4 1252.86 -22578.3)
(89837.3 1240.7 -23025.5)
(94272.1 2318.07 -23660.1)
(101145 6628.05 -24648.3)
(109521 26154.3 -26147.4)
(103293 77357.3 -27820.4)
(80868.2 28180.8 -4297.52)
(76445.3 4354.93 -5623.85)
(78102.8 1040.49 -5806.87)
(80965.4 1087.24 -5885.73)
(85342.4 2089.62 -5985.94)
(92280.7 6159.96 -6156.26)
(101176 24658.2 -6623.92)
(97267.4 73136.1 -8634.73)
(73896.9 25818.9 -1535.8)
(69823 4025.07 -1953.49)
(71412.3 990.989 -2004.58)
(74204.8 1061.63 -2019.96)
(78519.8 2047.54 -2036.75)
(85406.2 5990.07 -2078.3)
(94365.4 23675.8 -2304.61)
(91532.2 69411.1 -3681.96)
(69677.4 24691.5 -786.242)
(65751.7 3886.15 -978.926)
(67305.1 974.025 -999.417)
(70061.1 1055.08 -1003.68)
(74339.4 2031.28 -1008.79)
(81170.6 5892.1 -1030.26)
(90079.1 23054.5 -1170.3)
(87695.8 66943.7 -2043.19)
(67134.6 24053.8 -445.301)
(63294.7 3811.9 -549.925)
(64831.1 966.234 -560.026)
(67566.5 1052.26 -561.605)
(71820.7 2020.96 -564.402)
(78605 5828.56 -578.664)
(87442.8 22662.9 -666.966)
(85247.9 65370.7 -1203.13)
(65671.9 23696.3 -232.902)
(61881.1 3771.42 -286.562)
(63409 962.345 -291.462)
(66133.7 1050.7 -292.124)
(70371.8 2014.22 -293.777)
(77122.3 5789.53 -302.25)
(85902.6 22430.1 -351.484)
(83786.1 64429.9 -644.194)
(64999.6 23534.3 -72.7132)
(61231.2 3753.34 -89.3186)
(62755.6 960.672 -90.7975)
(65475.4 1049.95 -90.9907)
(69705.4 2010.84 -91.5539)
(76438.3 5770.86 -94.3777)
(85187.4 22320.9 -110.229)
(83099.4 63987.3 -203.495)
(-72287.2 110245 -77127.6)
(-77049 119688 -28348)
(-72962.8 113492 -8678.79)
(-69255 107672 -3686.3)
(-66793.5 103790 -2046.47)
(-65233.1 101311 -1205.42)
(-64305.7 99826.1 -645.451)
(-63871.6 99126.9 -203.877)
(-19779.4 121469 -82846.1)
(-19694.9 128800 -27398.9)
(-18630.8 120435 -6818.86)
(-17814.6 113529 -2346.43)
(-17289.1 109160 -1193.11)
(-16960.6 106453 -684.151)
(-16767.3 104859 -362.645)
(-16677.4 104114 -114.106)
(17474.3 119113 -81497.1)
(18056.4 126336 -27199.3)
(17052.8 118003 -6798.49)
(16240.5 111115 -2344.57)
(15717.3 106752 -1192.47)
(15390.5 104046 -683.669)
(15198.3 102453 -362.346)
(15108.9 101709 -114.005)
(64935.5 103462 -73281.6)
(69980.4 112536 -27820.4)
(65945.4 106433 -8634.73)
(62264 100666 -3681.96)
(59822.2 96803.1 -2043.19)
(58271.2 94330.5 -1203.13)
(57347.9 92847.8 -644.194)
(56915.1 92149.2 -203.495)
)
;
    }
    symmetry
    {
        type            symmetry;
    }
    bottom
    {
        type            calculated;
        value           nonuniform List<vector> 
32
(
(-65998.3 122660 -69710.6)
(-62562.9 64272.1 -17910.9)
(-56095.1 51016.1 -4366.91)
(-51740.4 46804.5 -1566.24)
(-49110.9 44751.2 -806.172)
(-47532.1 43579.8 -457.513)
(-46627 42921.1 -239.431)
(-46212 42622.1 -74.7607)
(-13225.1 70491.2 -68155.4)
(-11822.4 17155.2 -15451.2)
(-10610.8 8686.44 -2427.11)
(-9865.39 7446.74 -389.037)
(-9429.94 7130.3 -116.593)
(-9173.78 6980.37 -57.7867)
(-9028.94 6899.15 -29.4105)
(-8963.06 6862.72 -9.10647)
(12060.8 69759.5 -66966.1)
(11197.8 16982.4 -15296.7)
(10052.1 8572.89 -2409.87)
(9327.38 7342.91 -385.367)
(8905.36 7031.42 -114.56)
(8657.73 6884.67 -56.5148)
(8517.85 6805.36 -28.7122)
(8454.24 6769.82 -8.88421)
(59913.9 118734 -66175.3)
(56790.7 61946.3 -17459.9)
(50514.6 48894.9 -4297.52)
(46301.8 44756.3 -1535.8)
(43768.8 42751.7 -786.242)
(42249 41611.3 -445.301)
(41377.2 40970.5 -232.902)
(40977.3 40679.7 -72.7132)
)
;
    }
}


// ************************************************************************* //
