/*--------------------------------*- C++ -*----------------------------------*\
| =========                 |                                                 |
| \\      /  F ield         | OpenFOAM: The Open Source CFD Toolbox           |
|  \\    /   O peration     | Version:  v1912                                 |
|   \\  /    A nd           | Website:  www.openfoam.com                      |
|    \\/     M anipulation  |                                                 |
\*---------------------------------------------------------------------------*/
FoamFile
{
    version     2.0;
    format      ascii;
    class       volSymmTensorField;
    location    "0.71/solid";
    object      sigma;
}
// * * * * * * * * * * * * * * * * * * * * * * * * * * * * * * * * * * * * * //

dimensions      [1 -1 -2 0 0 0 0];


internalField   nonuniform List<symmTensor> 
256
(
(-160343 29594.2 -11105.5 481825 33402.2 -170749)
(84745.6 -6428.05 -4688.47 308895 33067 -213324)
(86639.3 6294.44 4470.42 305719 33153.3 -208315)
(-133058 -28542.3 10981.6 472362 33747.1 -154915)
(-190454 -107.757 -16966.4 181874 4150.45 -194920)
(-21768.9 -5189.96 -7749.94 102023 5730.54 -256495)
(-18341 5784.8 7560.09 101222 5890.15 -250844)
(-160394 460.592 16823.9 181765 4639.04 -177905)
(-191619 -4446.49 -18271.9 176461 -270.391 -195609)
(-36349.9 -4622.45 -8513.04 66466.4 25.4358 -265938)
(-32929.3 5259.35 8389.97 66007 132.951 -260122)
(-161258 4692.74 18146.1 176554 68.1237 -178323)
(-188741 -2934.14 -18968.8 195500 1044.65 -195716)
(-28097.8 -3489.28 -8875.94 55411 650.865 -271143)
(-24701.3 3964.66 8781.67 55033.7 713.623 -265208)
(-157946 3140.56 18854.2 195519 1256.14 -178143)
(-194041 -330.38 -19707.3 202026 4160.97 -203335)
(-25763.4 -1757.01 -9281.79 44925.7 3579.2 -283062)
(-22325.5 2054.62 9191.44 44564.3 3616.03 -277021)
(-162695 472.045 19599.6 202108 4292.05 -185446)
(-214302 4651.91 -20354.8 178845 9839.75 -222692)
(-43478.1 1368.63 -9669.76 18638.3 9486.04 -308687)
(-40003.3 -1319.41 9573.61 18338.6 9505.11 -302533)
(-182407 -4626.13 20254.7 179197 9912.86 -204421)
(-246874 13764.1 -20186.9 67215.6 18730.2 -251543)
(-79632.9 6317.07 -9626.21 -74546.7 19549.6 -347024)
(-76068.6 -6697.41 9519.87 -73975.5 19546.4 -340684)
(-214356 -13906.2 20094.4 69903.4 18738 -232684)
(-169957 18445.3 -18387.6 -174044 22905 -173785)
(43265.9 8846.35 -8793.79 -261764 24875.2 -261368)
(46712.7 -8661.15 8667.02 -255760 24861.6 -255397)
(-137523 -18310.5 18290.7 -156147 22883.2 -156027)
(-204420 17784.4 -8520.94 237281 852.216 64323.9)
(-33672.9 -9398.97 -2686.71 54262.2 14519.1 -39451.8)
(-31915.6 9603.19 2997.58 51412.9 15087.2 -39681.2)
(-177577 -16633.1 8640.58 228813 2518.18 65294.5)
(-240270 -2165.82 -13106.1 72775.8 5096.49 -9973.41)
(-133120 -5746.95 -5402.77 -42176.4 12238.4 -134155)
(-129630 6259.79 5871.33 -43047.3 12581.5 -133292)
(-210488 2438.58 13265.3 72461.2 6139.66 -6492.51)
(-247057 -4649.61 -13752.2 55612.7 4495.85 -19981.5)
(-156804 -4553.7 -5881.06 -89188.3 6752.5 -160474)
(-153239 4922.83 6429.94 -89403 6981.13 -159526)
(-216831 4761.21 13930.4 56208.3 5215.22 -16605.6)
(-249062 -3096.39 -13951.4 55502.8 5044.85 -18204.8)
(-157873 -3429.14 -5913.08 -118436 5386.1 -169026)
(-154300 3635.52 6510.62 -118420 5541.87 -168097)
(-218322 3185.39 14146.7 56350.5 5546.15 -14989.2)
(-258606 -587.01 -14324.6 52791.7 9216.16 -20694.6)
(-163202 -1828.25 -6120.56 -139602 8962.18 -179742)
(-159574 1907.61 6734.8 -139544 9064.55 -178832)
(-227216 643.62 14532.3 53744.4 9547.87 -17537.2)
(-284641 4569.83 -14655.5 32823.2 15989.1 -35051)
(-188719 1262.45 -6387.38 -164656 15613 -203368)
(-185045 -1374.71 6994.93 -164563 15671.4 -202476)
(-252557 -4599.32 14872.8 33963.2 16179.1 -31875.9)
(-326439 14538.7 -14478 -57906 21410.1 -58924.7)
(-232342 6472.98 -6393.95 -235598 21395.9 -236069)
(-228578 -6959.26 6973.85 -234688 21410.9 -235117)
(-293590 -14715 14699.5 -54556.3 21468.4 -55483.1)
(-247189 20221 -13669.1 -251788 18851.2 67014.6)
(-79543.6 9654.58 -6193.91 -347316 19648.1 -74097)
(-75943.2 -9512.87 6730.07 -340894 19643.5 -73463.1)
(-214419 -20104.1 13882.4 -232664 18851 69834)
(-181935 9813.38 -3486.82 161689 12383.3 109055)
(-33778.7 -12833 -400.24 -4402.52 25343.3 -2902.93)
(-32009.4 12864.7 583.513 -6957.4 25708.4 -3567.6)
(-155758 -8771.56 3529.59 154161 13507.9 108935)
(-200557 -3276.37 -5177.5 57456 15615.2 76630.6)
(-97704.3 -6441.92 -1357.23 -55796.5 22198.1 -63072.2)
(-94351.2 6851.73 1628.17 -56739.7 22488 -62917.4)
(-171736 3505.62 5253.4 56893.3 16511.4 78299.4)
(-204895 -4451.65 -5092.75 54908.9 14179.6 63666.1)
(-114874 -4436.69 -1404.18 -85601.9 16308.6 -93493.6)
(-111456 4699.59 1692.25 -85941.6 16536.8 -93260.4)
(-175642 4519.14 5178.36 55108.2 14886.3 65187.2)
(-207127 -3022.4 -4864.38 58752 13193 60759.6)
(-115926 -3371.97 -1224.11 -107782 13548.9 -107576)
(-112494 3467.88 1522.22 -107873 13724.3 -107373)
(-177333 3068 4955.79 59239.4 13737.1 62072)
(-216572 -638.822 -4801.87 60186.1 15060.5 56711)
(-121275 -1929.3 -1185.93 -123733 14883.1 -121055)
(-117771 1908.75 1487.27 -123761 15011 -120887)
(-186049 661.44 4898.49 60816.3 15454.5 57905)
(-242227 4620.58 -4772.09 48222.8 17822.6 44144)
(-145699 1158.29 -1248.64 -140509 17493.6 -143929)
(-142120 -1351.8 1541.18 -140489 17577.5 -143789)
(-210846 -4671.46 4873.14 49059.7 18078 45317.5)
(-284736 14716.6 -4704.41 -32968.8 16816.4 30800.4)
(-187951 6449.2 -1336.34 -201667 16409.4 -165854)
(-184240 -6996.36 1599.55 -200813 16451.7 -165652)
(-252342 -14903.2 4805.71 -29887.3 16946.1 32230.2)
(-214630 20386.8 -4732.1 -222781 10318.3 179185)
(-42481.3 9685.54 -1395.05 -308689 9943.99 19879.2)
(-38935.5 -9565.2 1596.48 -302397 9955.15 19714.1)
(-182172 -20269.7 4819.92 -204085 10358 179871)
(-165854 6571.95 -922.967 132057 16186.2 105347)
(-29510.4 -13937 616.667 -20697.5 24027.6 -2714.22)
(-27759.8 13767.6 -485.199 -23061 24269.8 -3286.79)
(-140225 -5663.53 942.11 125225 16963 105508)
(-176200 -3482.39 -1152.43 45991.7 19559.8 92187.7)
(-77132.5 -6560.35 740.734 -62396.5 23500.7 -45347.4)
(-73853.4 6842.6 -544.623 -63253.4 23718.2 -45164.3)
(-148071 3660.5 1192.51 45600.3 20242.5 93918.9)
(-178815 -4058.56 -818.831 51931.8 18970.5 80100.3)
(-89659.4 -4204.66 932.836 -81862.2 20171.7 -74269.3)
(-86312.9 4391.51 -743.219 -82187.3 20360.3 -74008.3)
(-150262 4100.25 861.985 52112.3 19553.1 81673.6)
(-181104 -2741.27 -488.53 62760 17492.1 72600.9)
(-90194.3 -3198.66 1154.63 -94833.7 17561.6 -92491.1)
(-86827.1 3241.73 -978.451 -94936.4 17718.5 -92250.1)
(-151995 2768.68 529.773 63161.7 17973.5 73980.2)
(-190603 -494.228 -285.602 69727.3 16798.1 65507.1)
(-95524.2 -1892.4 1272.91 -104233 16566.8 -109014)
(-92073.8 1829.71 -1106.49 -104271 16690 -108806)
(-160703 504.185 325.777 70268.5 17172.4 66766.4)
(-215935 4650.7 -187.296 61479.9 15527.1 54635.6)
(-119258 1072.52 1271.71 -117205 15274.6 -130300)
(-115711 -1301.07 -1117.89 -117183 15362.7 -130117)
(-185058 -4707.81 227.174 62250.3 15791.4 55865.7)
(-257879 14417.3 -257.29 -17455.3 11059.7 50372.9)
(-160002 6164.58 1132.19 -177058 10726.2 -143105)
(-156293 -6740.6 -1008.27 -176190 10777.6 -142861)
(-225798 -14604.1 293.267 -14409.3 11214.6 51841.3)
(-193137 19786 -470.732 -202891 5228.13 205560)
(-21440.2 9303.06 1063.78 -282484 4683.31 47352)
(-17886.5 -9196 -1006.4 -276233 4698.36 47202.5)
(-160840 -19666.3 488.041 -184375 5277.5 206194)
(-157140 5614.51 -138.422 118497 14938.2 97433.3)
(-28436.7 -13784.8 677.512 -26395.6 18850.4 -4920.38)
(-26714.7 13482 -577.838 -28631.1 19020 -5411.34)
(-131882 -4803.14 154.249 112176 15485.6 97853.7)
(-165009 -3308.26 48.4123 38200.1 17830.5 89685.1)
(-70457.3 -6346.16 1078.42 -65928.8 19710.4 -40275)
(-67245 6526.67 -922.433 -66706.6 19869 -40019.4)
(-137341 3443.05 -15.6926 38013 18330.8 91618)
(-167112 -3702.65 358.192 46950.3 18214.7 79386.1)
(-81121 -3973.21 1300.9 -81366.3 18673.6 -66192.7)
(-77839.1 4096.4 -1152.18 -81659.3 18816.5 -65862.9)
(-139028 3722.58 -324.553 47206.7 18658.4 81146.2)
(-169576 -2470.43 621.308 61696.4 17007.1 70447.5)
(-81525.6 -3032.83 1470.51 -89105.6 16885.4 -85177.5)
(-78216.8 3039.03 -1341.06 -89203.2 17009.7 -84863.8)
(-140917 2485.88 -592.366 62106.6 17389.5 72018.8)
(-179228 -342.113 794.837 71996.4 15080.7 62311.8)
(-86980.9 -1829.36 1565.31 -94505.7 14861.9 -102415)
(-83581.9 1743.66 -1452 -94547.2 14964.2 -102131)
(-149738 345.793 -770.182 72522 15392.1 63763.9)
(-204356 4625.87 857.974 65105.7 11967.6 53442.9)
(-110358 991.706 1561.77 -106164 11836.1 -121587)
(-106850 -1237.38 -1464.33 -106143 11912.9 -121328)
(-173813 -4684.91 -836.702 65865.7 12199.4 54859.3)
(-245622 14049.1 748.406 -12760 6993.74 54253.4)
(-150085 5871.67 1436.73 -165964 6863.96 -129514)
(-146394 -6462.76 -1367.78 -165090 6911.17 -129193)
(-213757 -14234.7 -733.689 -9711.67 7137.8 55890.5)
(-183807 19180.3 554.815 -193194 2844.19 208575)
(-16341.8 8936.98 1389 -269138 2493.75 58041)
(-12795 -8839.49 -1379.76 -262901 2507.95 57960)
(-151617 -19060 -559.799 -174743 2890.52 209327)
(-152128 5409.46 -0.147915 112123 11619.2 92278.9)
(-28515.3 -13384.6 443.394 -28675.8 13421.2 -6182.61)
(-26813.2 13001.1 -372.975 -30822.6 13535.1 -6625.04)
(-127090 -4659.47 13.5173 106164 11983.5 92873.7)
(-159464 -3090.86 184.303 34382.3 13577 85610)
(-68800.7 -6105.85 754.378 -67092.5 14360.2 -38457.7)
(-65635.8 6218.9 -639.164 -67815.3 14468.8 -38154)
(-132074 3196.28 -156.724 34358.2 13918.5 87702.5)
(-161566 -3457.75 391.059 43810.9 14207.7 76747.9)
(-78955.3 -3809.69 911.921 -81075.2 14306.1 -61953.6)
(-75720.3 3885.17 -799.97 -81343.4 14405.8 -61578.4)
(-133763 3460.91 -362.501 44146 14517.8 78658.9)
(-164204 -2289.14 555.609 59911.6 13401.3 68276.1)
(-79443.3 -2927.81 1013.34 -86739.8 13243 -80007.1)
(-76177.8 2904.69 -917.54 -86832.1 13331.6 -79648.2)
(-135810 2294.89 -531.476 60352 13675.3 69995.6)
(-173958 -245.882 662.23 71501.9 11453.9 60633.7)
(-85012.3 -1791.88 1065.3 -90482.8 11302.4 -96537.2)
(-81651.9 1688.81 -985.228 -90527.7 11377.3 -96207.7)
(-144704 244.649 -642.866 72032.9 11683.5 62230.3)
(-198912 4584.97 690.233 65102.9 8382.38 53369.8)
(-108157 929.294 1055.17 -101713 8346.93 -114070)
(-104680 -1186.57 -990.415 -101696 8404.76 -113765)
(-168558 -4645.65 -675.148 65863.6 8558.83 54923.9)
(-239641 13781.9 602.968 -11656.2 4406.24 56313.4)
(-147240 5677.4 972.193 -161088 4415.77 -120064)
(-143569 -6278.33 -931.122 -160215 4452.24 -119697)
(-207897 -13967.3 -594.601 -8604.22 4519.43 58074.5)
(-179444 18778.4 464.591 -187922 1660.14 208132)
(-16401.5 8704.99 938.093 -261832 1502.42 63879.9)
(-12864.8 -8614.47 -943.659 -255603 1513.65 63842.6)
(-147306 -18658.7 -473.003 -169498 1697.12 208977)
(-149199 5374.48 -0.0701932 109270 7296.72 89572.3)
(-28685.3 -13098.1 222.871 -29538.2 8076.89 -6865.71)
(-26993.7 12669 -180.887 -31627.8 8142.64 -7280.03)
(-124280 -4659.83 8.96495 103543 7504.73 90275.1)
(-156469 -2948.46 96.4054 32885.9 8368.88 82986.5)
(-68442.9 -5952.35 385.191 -67245.2 8666.12 -37905.2)
(-65305.3 6025.96 -314.414 -67932.3 8729.59 -37572.9)
(-129230 3036.71 -77.8552 32974.5 8567.21 85186)
(-158668 -3318.7 204.159 42404.1 8815.66 75032.2)
(-78528.3 -3718.92 467.62 -80690 8805.41 -59940.5)
(-75320.6 3763.88 -397.439 -80941.4 8864.21 -59537.7)
(-131017 3311.02 -184.566 42799.9 8998.62 77048.4)
(-161422 -2189.95 288.491 58737.1 8353.82 67454.4)
(-79126.3 -2875.46 516.857 -85750.7 8243.4 -76870.1)
(-75885.9 2831.64 -456.684 -85838.3 8296.3 -76484.7)
(-133172 2188.7 -271.757 59206.1 8518.05 69275.2)
(-171217 -197.337 341.336 70610.5 7029.5 60683)
(-84756.8 -1777.15 539.196 -89026.7 6949.55 -92449.9)
(-81419 1661.02 -489.86 -89073.4 6994.93 -92094.6)
(-142090 192.15 -328.056 71152.5 7169.49 62376.1)
(-196039 4553.91 351.555 64391.3 4966.04 54435.1)
(-107750 891.481 530.448 -100117 4972.54 -108984)
(-104291 -1157.38 -491.94 -100103 5008.13 -108653)
(-165785 -4616.29 -341.585 65156.6 5075.55 56079.6)
(-236420 13628.6 301.353 -11459.3 2507.78 58112.3)
(-146453 5575.06 486.982 -158946 2556.66 -114360)
(-142793 -6182.81 -464.127 -158076 2579.41 -113967)
(-204737 -13814.5 -296.218 -8403.09 2579.3 59954.4)
(-177084 18558.9 219.421 -184908 909.87 207948)
(-17173.2 8584.9 464.642 -257764 857.839 67129.8)
(-13642.3 -8499.08 -471.394 -251538 864.959 67117.1)
(-144967 -18440.2 -225.391 -166495 933.536 208856)
(-147813 5364.96 -2.46189 108202 2481.71 88446.6)
(-28750.2 -12967.2 65.6607 -29791.8 2702.5 -7179.67)
(-27063.1 12517.7 -51.7072 -31853.3 2724 -7580.75)
(-122946 -4666.43 5.5509 102588 2549.29 89201.5)
(-155081 -2886.12 24.5983 32433.5 2818.08 81823.5)
(-68344.8 -5885.53 113.148 -67164.5 2894.78 -37802.5)
(-65219.3 5941.17 -89.2743 -67833.9 2915.65 -37456.6)
(-127908 2966.58 -18.0988 32579.6 2883.04 84076.5)
(-157339 -3258.81 56.8327 41931 2969.69 74306)
(-78441.8 -3681.32 137.577 -80430 2957.76 -59180)
(-75246.3 3711.66 -113.63 -80672.7 2977.2 -58763.9)
(-129755 3245.93 -49.8829 42359.4 3030.12 76376.2)
(-160147 -2148 82.2048 58220.9 2817.78 67300.2)
(-79101.7 -2855.34 151.804 -85375.4 2780 -75454.7)
(-75872.6 2800.9 -131.184 -85460.3 2797.58 -75056.6)
(-131959 2143.1 -76.2161 58706.8 2872.46 69172.9)
(-169953 -177.969 97.7905 70087.9 2358.32 61088.1)
(-84755.4 -1772.98 157.716 -88581.5 2334.36 -90457.7)
(-81427.8 1649.74 -140.905 -88628.7 2349.54 -90090.5)
(-140880 170.545 -93.0378 70637.5 2405.29 62830.2)
(-194705 4538.78 100.288 63925 1646.62 55319.8)
(-107673 874.74 154.516 -99631 1653.6 -106531)
(-104222 -1145.43 -141.58 -99619.1 1665.59 -106188)
(-164493 -4602.25 -96.7568 64694 1683.67 57009.6)
(-234919 13561.6 84.3852 -11439 823.252 59204)
(-146199 5533.43 141.361 -158122 846.463 -111744)
(-142544 -6144.82 -133.888 -157252 854.173 -111340)
(-203260 -13748 -82.5929 -8379.77 847.651 61086.6)
(-175956 18465.3 57.2722 -183496 293.917 208039)
(-17588.1 8536.04 133.412 -255906 283.607 68584.6)
(-14059.5 -8452.65 -136.084 -249681 286.037 68583.2)
(-143845 -18347.2 -59.3461 -165086 302.038 208979)
)
;

boundaryField
{
    interface
    {
        type            calculated;
        value           nonuniform List<symmTensor> 
192
(
(-41.5309 0.353111 2.75645 928784 33402.2 276210)
(-43.2654 0.315877 4.45383 600906 4150.45 224112)
(-44.8511 0.0357654 5.05851 600687 -270.391 228617)
(-45.8633 -0.400335 5.2192 629042 1044.65 237826)
(-46.1717 -0.78041 5.16939 652811 4160.97 247450)
(-47.0824 -1.45216 5.03353 659704 9839.75 258166)
(-45.5151 -1.96228 4.64566 584269 18730.2 265511)
(-49.0889 -4.39678 4.34525 277105 22905 277363)
(-40.4677 0.254126 1.35233 687613 852.216 514656)
(-41.2606 0.237822 2.34244 518215 5096.49 435466)
(-42.2178 -0.0101213 2.62936 510734 4495.85 435140)
(-42.8973 -0.453745 2.65399 522945 5044.85 449237)
(-42.9497 -0.85505 2.55946 541077 9216.16 467591)
(-43.7479 -1.59548 2.41888 557743 15989.1 489868)
(-41.8983 -2.16026 2.1686 515704 21410.1 514685)
(-45.5704 -4.71522 1.9694 265788 18851.2 584590)
(-43.0364 0.217653 1.0619 564734 12383.3 512100)
(-43.7328 0.199322 1.81629 453450 15615.2 472624)
(-44.676 -0.0427898 2.03028 459470 14179.6 468227)
(-45.3684 -0.508066 2.04305 475414 13193 477421)
(-45.3405 -0.946558 1.96501 497548 15060.5 494073)
(-46.056 -1.76794 1.85136 522508 17822.6 518429)
(-43.7624 -2.41455 1.67018 492502 16816.4 556271)
(-47.1965 -5.13942 1.51818 259118 10318.3 661083)
(-43.2525 0.164028 0.646035 502412 16186.2 475701)
(-43.7629 0.124587 1.16929 406957 19559.8 453153)
(-44.5076 -0.118823 1.31074 420478 18970.5 448647)
(-45.0862 -0.588763 1.30611 443200 17492.1 453041)
(-44.9397 -1.04361 1.23889 470748 16798.1 466528)
(-45.5769 -1.89973 1.15023 499253 15527.1 492409)
(-43.124 -2.58286 1.03488 471742 11059.7 539570)
(-46.4884 -5.3491 0.943396 249133 5228.13 657584)
(-44.0335 0.138245 0.471115 469436 14938.2 448372)
(-44.4902 0.0778213 0.853135 379196 17830.5 430681)
(-45.1458 -0.17463 0.957206 395175 18214.7 427610)
(-45.6734 -0.653443 0.9536 421779 17007.1 430531)
(-45.4506 -1.12557 0.903992 452649 15080.7 442964)
(-46.0126 -2.01146 0.838042 482325 11967.6 470663)
(-43.3875 -2.72789 0.757299 455568 6993.74 522581)
(-46.6086 -5.5362 0.691449 241000 2844.19 642768)
(-44.243 0.118166 0.286539 451460 11619.2 431616)
(-44.6507 0.0401743 0.537006 363843 13577 415071)
(-45.2292 -0.220654 0.605837 380437 14207.7 413374)
(-45.7069 -0.704867 0.601989 408420 13401.3 416784)
(-45.4279 -1.18666 0.567688 440574 11453.9 429705)
(-45.9432 -2.08757 0.5232 470562 8382.38 458829)
(-43.2363 -2.82136 0.473312 444521 4406.24 512491)
(-46.4007 -5.65064 0.434245 235600 1660.14 631654)
(-44.5001 0.108327 0.167728 441919 7296.72 422221)
(-44.8905 0.0183275 0.314046 355798 8368.88 405899)
(-45.4284 -0.249769 0.354582 372494 8815.66 405122)
(-45.8786 -0.738663 0.352486 400732 8353.82 409449)
(-45.5642 -1.2278 0.332655 433153 7029.5 423226)
(-46.0443 -2.1391 0.306375 463181 4966.04 453224)
(-43.2735 -2.88513 0.278121 437747 2507.78 507319)
(-46.3847 -5.73015 0.254728 232357 909.87 625214)
(-44.5641 0.102245 0.0495121 437761 2481.71 418006)
(-44.9421 0.00607439 0.0962231 352333 2818.08 401723)
(-45.4575 -0.265253 0.109343 369021 2969.69 401396)
(-45.8923 -0.755644 0.108474 397227 2817.78 406306)
(-45.5623 -1.24775 0.101993 429630 2358.32 420630)
(-46.026 -2.16286 0.0933992 459637 1646.62 451032)
(-43.2357 -2.91449 0.0849617 434532 823.252 505175)
(-46.32 -5.76604 0.0776048 230827 293.917 622362)
(306498 29594.2 -3.86832 948666 -0.921696 -15.1044)
(244914 -107.757 -6.57076 617241 -1.10019 -10.937)
(249117 -4446.49 -7.64784 617197 -0.926684 -7.02353)
(262725 -2934.14 -8.02893 646966 -0.678647 -5.47793)
(275674 -330.38 -8.14707 671741 -0.571258 -5.17043)
(285180 4651.91 -8.24406 678327 -0.609078 -5.87531)
(287564 13764.1 -8.37994 601654 -0.744883 -7.78868)
(297766 18445.3 -9.19039 293679 -0.956178 -9.40714)
(567744 -6428.05 -2.30462 791893 -0.54924 -19.1719)
(456740 -5189.96 -4.41293 580532 -0.829014 -18.2392)
(453205 -4622.45 -5.18486 556021 -0.718918 -16.9166)
(475228 -3489.28 -5.42291 558737 -0.443709 -16.4712)
(499314 -1757.01 -5.49749 570003 -0.261233 -16.3761)
(517845 1368.63 -5.61982 579961 -0.164307 -16.6666)
(528390 6317.07 -5.92377 533476 -0.182461 -17.2946)
(588681 8846.35 -6.99606 283650 -0.263735 -17.6748)
(559995 6294.44 -2.3067 779075 -0.39657 -16.3336)
(450120 5784.8 -4.46148 569683 -0.661439 -15.6241)
(446197 5259.35 -5.28233 545133 -0.575754 -14.3885)
(467920 3964.66 -5.54459 547655 -0.281099 -13.9334)
(491839 2054.62 -5.61605 558729 -0.049385 -13.8582)
(510199 -1319.41 -5.70663 568541 0.138378 -14.1396)
(520560 -6697.41 -5.95146 522653 0.23935 -14.8376)
(581225 -8661.15 -6.97749 278752 0.250596 -15.6552)
(304601 -28542.3 -2.55845 910021 -0.321017 -16.6715)
(245411 460.592 -5.1101 587569 -0.558794 -16.2565)
(249020 4692.74 -6.14946 586831 -0.471124 -15.1904)
(262324 3140.56 -6.4994 615789 -0.157484 -14.8555)
(275217 472.045 -6.59066 640020 0.0946825 -14.8755)
(284631 -4626.13 -6.70341 646236 0.324422 -15.128)
(286839 -13906.2 -6.89763 571099 0.493456 -15.6399)
(298586 -18310.5 -7.96901 279963 0.651798 -16.2868)
(-8.16745 0.794425 0.735539 869884 33747.1 242607)
(-5.37882 0.981082 1.45644 549050 4639.04 189381)
(-2.65199 0.664115 1.69006 548188 68.1237 193311)
(-1.31219 0.118012 1.79241 575485 1256.14 201823)
(-0.890289 -0.173469 1.86098 598323 4292.05 210768)
(0.490772 -0.57737 2.08729 604569 9912.86 220951)
(-0.152722 -0.545413 2.26753 530598 18738 228011)
(8.43569 -2.74056 2.84583 238529 22883.2 238649)
(-12.5417 0.319381 -0.286763 630267 2518.18 466749)
(-11.9848 0.43124 -0.233566 466934 6139.66 387981)
(-11.1555 0.269777 -0.298479 459400 5215.22 386586)
(-10.5796 -0.0549045 -0.31037 470760 5546.15 399420)
(-10.4079 -0.148552 -0.253743 487804 9547.87 416522)
(-8.87659 -0.391733 -0.0279608 503432 16179.1 437592)
(-8.96686 -0.130541 0.254355 462410 21468.4 461483)
(-0.113519 -2.18418 0.703758 228132 18851 530629)
(-12.8204 0.176072 -0.13607 509724 13507.9 464498)
(-12.4204 0.217626 0.0102367 403508 16511.4 424914)
(-11.7764 0.123997 0.0634677 409317 14886.3 419396)
(-11.1499 -0.0866356 0.115555 424397 13737.1 427229)
(-10.8794 -0.0630969 0.194819 445341 15454.5 442430)
(-8.97682 -0.215922 0.375928 468992 18078 465250)
(-8.74502 0.158737 0.564634 439599 16946.1 501716)
(0.732421 -1.99929 0.815217 221373 10358 605328)
(-14.2185 0.0803297 -0.163396 449232 16963 429515)
(-14.047 0.07181 -0.0361243 358421 20242.5 406740)
(-13.7153 0.0246051 0.0319797 371548 19553.1 401110)
(-13.1546 -0.0929579 0.0884878 393314 17973.5 404132)
(-12.8449 0.0299826 0.156053 419563 17172.4 416061)
(-10.6799 -0.0401566 0.28698 446579 15791.4 440194)
(-10.1003 0.412158 0.412421 419376 11214.6 485627)
(-0.282701 -1.76784 0.562504 211457 5277.5 602026)
(-14.5024 0.0642154 -0.047504 417538 15485.6 403216)
(-14.3254 0.0385448 0.0975412 331695 18330.8 385300)
(-14.0205 0.0112822 0.186725 347160 18658.4 381099)
(-13.4074 -0.0654441 0.246326 372712 17389.5 382624)
(-13.0208 0.105842 0.299613 402188 15392.1 393430)
(-10.6913 0.0708677 0.380842 430247 12199.4 419241)
(-9.9754 0.544629 0.442541 403605 7137.8 469207)
(0.0260249 -1.69094 0.508753 203435 2890.52 587505)
(-14.9404 0.0585837 -0.032309 400391 11983.5 387101)
(-14.7703 0.0276887 0.0763973 317007 13918.5 370352)
(-14.4868 0.0134365 0.147854 333006 14517.8 367519)
(-13.841 -0.0386152 0.192626 359859 13675.3 369503)
(-13.4043 0.163664 0.229225 390546 11683.5 380743)
(-10.9626 0.151096 0.279574 418830 8558.83 407890)
(-10.1413 0.634615 0.314025 392786 4519.43 459465)
(-0.00390986 -1.63189 0.34892 198090 1697.12 576565)
(-15.061 0.0615337 -0.0023842 391342 7504.73 378074)
(-14.8761 0.0308438 0.06921 309356 8567.21 361568)
(-14.5808 0.0229901 0.115929 325405 8998.62 359653)
(-13.9011 -0.0188983 0.143889 352465 8518.05 362535)
(-13.4293 0.197426 0.165038 383370 7169.49 374594)
(-10.9262 0.193361 0.191105 411639 5075.55 402562)
(-10.0612 0.678796 0.206615 386132 2579.3 454490)
(0.150704 -1.61209 0.219803 194870 933.536 570221)
(-15.1691 0.0620118 -0.00469738 387414 2549.29 374028)
(-14.9822 0.0320127 0.0179413 306074 2883.04 357571)
(-14.6837 0.0276801 0.0334147 322089 3030.12 356106)
(-13.9905 -0.00905308 0.042622 349095 2872.46 359562)
(-13.4999 0.213993 0.0497456 379957 2405.29 372149)
(-10.9667 0.214515 0.058272 408180 1683.67 400496)
(-10.0716 0.700948 0.0638708 382968 847.651 452434)
(0.17408 -1.60025 0.0681699 193345 302.038 567410)
(298363 9.27431 -18387.6 -8.87167 -0.823596 294535)
(288173 8.49591 -13669.1 -6.98411 -0.608868 602377)
(286173 8.41451 -4732.1 -4.49979 -0.416537 679987)
(278356 8.4034 -470.732 -2.95933 -0.272148 677053)
(269670 8.46418 554.815 -1.76357 -0.194066 662052)
(262919 8.50283 464.591 -0.925382 -0.119959 650494)
(258684 8.53853 219.421 -0.393321 -0.0719572 643716)
(256710 8.55393 57.2722 -0.137745 -0.0218059 640705)
(589262 7.04857 -8793.79 -17.244 -0.104299 284628)
(529299 5.9795 -6193.91 -16.7334 -0.0152935 534745)
(519931 5.68383 -1395.05 -15.7559 0.0720897 582291)
(505080 5.5738 1063.78 -15.051 0.0897478 573872)
(488854 5.55118 1389 -14.4459 0.0814867 563237)
(475994 5.53681 938.093 -14.0063 0.0645836 556276)
(467786 5.5374 464.642 -13.7176 0.0392617 552089)
(463917 5.53644 133.412 -13.5668 0.0143396 550090)
(581722 7.02822 8667.02 -15.2488 0.425524 279612)
(521347 5.99199 6730.07 -14.2975 0.425008 523827)
(512098 5.74754 1596.48 -13.2563 0.396064 570748)
(497333 5.6736 -1006.4 -12.5624 0.323241 562422)
(481128 5.67033 -1379.76 -11.9465 0.253969 551883)
(468268 5.6672 -943.659 -11.5379 0.178363 544976)
(460058 5.67332 -471.394 -11.2553 0.106333 540817)
(456188 5.67417 -136.084 -11.1257 0.03508 538830)
(298896 7.98868 18290.7 -15.9267 0.829484 280392)
(287203 6.90421 13882.4 -15.1827 0.682876 571456)
(285406 6.70483 4819.92 -14.4221 0.578689 647448)
(277692 6.6145 488.041 -13.8881 0.454617 644726)
(268992 6.61696 -559.799 -13.3643 0.353569 629936)
(262225 6.61231 -473.003 -13.0411 0.244325 618508)
(257982 6.62097 -225.391 -12.803 0.146719 611805)
(256006 6.62265 -59.3461 -12.6954 0.0478829 608829)
)
;
    }
    symmetry
    {
        type            symmetry;
    }
    bottom
    {
        type            calculated;
        value           nonuniform List<symmTensor> 
32
(
(-729531 86182.9 -11105.5 175884 82184.6 -739937)
(-512228 56759.9 -8520.94 54662.1 -7428.15 -243484)
(-430470 37268.3 -3486.82 6907.56 3623.54 -139480)
(-393487 29011.2 -922.967 -9047.18 11318.5 -122285)
(-374484 26080.3 -138.422 -15711.7 12462.1 -119910)
(-363815 25024.2 -0.147915 -18648.2 10391.4 -119408)
(-357772 24575.7 -0.0701932 -19724.2 6735.78 -119001)
(-354982 24387 -2.46189 -20007.8 2320.76 -118722)
(-247260 -4341.74 -4688.47 121640 74938.1 -545330)
(-119501 -10016.6 -2686.71 -3044.64 8348.07 -125280)
(-78620.3 -15623.1 -400.24 -36646.1 19568 -47744.6)
(-65382.5 -17454.7 616.667 -42343 21037.6 -38586.3)
(-61503.1 -17381.2 677.512 -44131.4 17322.6 -37986.8)
(-60621.6 -16918.7 443.394 -45420.9 12640.7 -38289)
(-60437.2 -16579.9 222.871 -46133.1 7715.58 -38617.6)
(-60373.4 -16425.1 65.6607 -46389.9 2599.1 -38802.9)
(-241858 3016.34 4470.42 120554 74715.1 -536813)
(-117120 9083.29 2997.58 -5876.95 9025.89 -124885)
(-76462.4 14503 583.513 -39240.4 20005.2 -48020.6)
(-63286.1 16152.5 -485.199 -44764.8 21317.7 -38813.1)
(-59458.8 15974 -577.838 -46438.8 17514.4 -38155.4)
(-58610.6 15454.9 -372.975 -47644.3 12768.3 -38422.5)
(-58444.2 15086.8 -180.887 -48300.9 7788.97 -38730.5)
(-58388.3 14919.8 -51.7072 -48530.3 2623.06 -38906)
(-683244 -84291.9 10981.6 178048 81806.6 -705101)
(-474708 -54698.2 8640.58 51725.8 -5447.87 -231837)
(-394389 -35398.2 3529.59 4814.72 4950.29 -129695)
(-358216 -27348.6 942.11 -10452.2 12208.3 -112483)
(-339764 -24556.5 154.249 -16616.5 13077.8 -110028)
(-329422 -23582.9 13.5173 -19183.9 10797.6 -109459)
(-323560 -23180.1 8.96495 -20020.3 6966.82 -109004)
(-320848 -23011.8 5.5509 -20187 2395.7 -108701)
)
;
    }
}


// ************************************************************************* //
