/*--------------------------------*- C++ -*----------------------------------*\
| =========                 |                                                 |
| \\      /  F ield         | OpenFOAM: The Open Source CFD Toolbox           |
|  \\    /   O peration     | Version:  v1912                                 |
|   \\  /    A nd           | Website:  www.openfoam.com                      |
|    \\/     M anipulation  |                                                 |
\*---------------------------------------------------------------------------*/
FoamFile
{
    version     2.0;
    format      ascii;
    class       volScalarField;
    location    "0.71/solid";
    object      sigmaHyd;
}
// * * * * * * * * * * * * * * * * * * * * * * * * * * * * * * * * * * * * * //

dimensions      [1 -1 -2 0 0 0 0];


internalField   nonuniform List<scalar> 
256
(
-716379
-380464
-374649
-680627
-1.04342e+06
-632196
-623775
-998439
-1.07968e+06
-673132
-664251
-1.03327e+06
-1.09485e+06
-688666
-679556
-1.04743e+06
-1.13015e+06
-714841
-705563
-1.08183e+06
-1.21179e+06
-778048
-768589
-1.1626e+06
-1.42677e+06
-964872
-954502
-1.37504e+06
-2.00791e+06
-1.51224e+06
-1.49564e+06
-1.93904e+06
-369306
-113507
-112868
-348321
-582429
-253408
-250943
-554516
-613521
-292231
-289427
-584601
-626321
-308242
-305303
-596651
-650647
-325682
-322658
-620212
-710365
-366460
-363333
-679106
-890628
-508853
-504882
-856787
-1.42748e+06
-965049
-954552
-1.37522e+06
-289248
-67985
-67758.7
-269814
-436326
-149048
-147394
-411109
-459003
-178327
-176386
-432915
-470458
-192462
-190389
-443614
-491783
-207143
-204975
-464090
-544720
-240862
-238567
-516004
-710623
-366082
-362896
-678980
-1.21269e+06
-777745
-768048
-1.16243e+06
-268678
-64182.8
-63929.1
-249557
-393083
-127527
-125944
-368597
-411118
-150869
-149025
-385846
-421502
-162999
-161026
-395472
-441726
-176306
-174230
-414784
-492129
-207403
-205180
-464024
-650709
-324980
-321832
-619435
-1.13001e+06
-713116
-703462
-1.07995e+06
-260098
-64481.9
-64198.7
-241149
-376742
-122075
-120506
-352660
-392719
-142364
-140552
-367910
-402265
-152946
-151010
-376705
-421718
-165176
-163135
-395213
-470667
-194820
-192620
-442919
-624951
-308512
-305369
-593891
-1.0906e+06
-684467
-674806
-1.0406e+06
-254949
-64751.8
-64449.5
-236088
-368460
-120047
-118488
-344611
-383559
-138841
-137050
-359021
-392535
-148447
-146537
-367250
-411401
-159920
-157905
-385155
-459410
-188693
-186515
-431877
-611125
-300282
-297149
-580198
-1.06844e+06
-669215
-659553
-1.01847e+06
-251709
-64816.1
-64500.7
-232887
-363759
-119118
-117563
-340032
-378468
-137206
-135428
-354074
-387100
-146273
-144379
-361964
-405578
-157291
-155291
-379473
-453021
-185574
-183410
-425606
-603274
-296020
-292894
-572419
-1.05567e+06
-660819
-651157
-1.00571e+06
-250109
-64799.2
-64477.1
-231300
-361536
-118721
-117168
-337860
-376087
-136528
-134754
-351755
-384557
-145358
-143471
-359486
-402845
-156167
-154174
-376801
-450024
-184230
-182072
-422660
-599610
-294162
-291040
-568786
-1.04969e+06
-657001
-647338
-999738
)
;

boundaryField
{
    interface
    {
        type            zeroGradient;
    }
    symmetry
    {
        type            symmetry;
    }
    bottom
    {
        type            zeroGradient;
    }
}


// ************************************************************************* //
