/*--------------------------------*- C++ -*----------------------------------*\
| =========                 |                                                 |
| \\      /  F ield         | OpenFOAM: The Open Source CFD Toolbox           |
|  \\    /   O peration     | Version:  v1912                                 |
|   \\  /    A nd           | Website:  www.openfoam.com                      |
|    \\/     M anipulation  |                                                 |
\*---------------------------------------------------------------------------*/
FoamFile
{
    version     2.0;
    format      ascii;
    class       volVectorField;
    location    "0.71/solid";
    object      U;
}
// * * * * * * * * * * * * * * * * * * * * * * * * * * * * * * * * * * * * * //

dimensions      [0 1 -1 0 0 0 0];


internalField   nonuniform List<vector> 
256
(
(2.34671e-08 2.43102e-08 2.83799e-08)
(5.47001e-09 1.52382e-08 2.6847e-08)
(-6.8492e-09 1.46727e-08 2.61606e-08)
(-2.30023e-08 2.23003e-08 2.63027e-08)
(4.32591e-08 2.04676e-08 6.58307e-08)
(1.1172e-08 1.25192e-08 6.34161e-08)
(-1.41855e-08 1.22708e-08 6.20331e-08)
(-4.36931e-08 1.99462e-08 6.16191e-08)
(4.74182e-08 2.17494e-09 9.22743e-08)
(1.20582e-08 -1.39893e-09 8.91914e-08)
(-1.69441e-08 -1.10488e-09 8.74104e-08)
(-4.96755e-08 3.40366e-09 8.68465e-08)
(4.64027e-08 -1.85582e-08 1.145e-07)
(1.06875e-08 -2.02494e-08 1.10477e-07)
(-1.81036e-08 -1.94135e-08 1.08411e-07)
(-5.11577e-08 -1.5762e-08 1.08205e-07)
(4.61054e-08 -4.10423e-08 1.36376e-07)
(9.349e-09 -4.32711e-08 1.31212e-07)
(-2.00121e-08 -4.19234e-08 1.28902e-07)
(-5.4055e-08 -3.67868e-08 1.29342e-07)
(5.05334e-08 -6.83925e-08 1.60233e-07)
(9.6787e-09 -7.16049e-08 1.54056e-07)
(-2.43517e-08 -6.97482e-08 1.51512e-07)
(-6.24268e-08 -6.26816e-08 1.52495e-07)
(6.22337e-08 -1.08599e-07 1.86208e-07)
(1.23692e-08 -1.09951e-07 1.80183e-07)
(-3.19464e-08 -1.07514e-07 1.77397e-07)
(-7.88466e-08 -1.01214e-07 1.77759e-07)
(7.55969e-08 -1.64716e-07 2.06801e-07)
(1.49851e-08 -1.60286e-07 2.0278e-07)
(-4.05661e-08 -1.56942e-07 1.99775e-07)
(-9.7729e-08 -1.54598e-07 1.97752e-07)
(1.4905e-08 8.62906e-09 1.18163e-08)
(3.30407e-09 1.17742e-09 1.32813e-08)
(-3.86296e-09 9.78452e-10 1.29854e-08)
(-1.38802e-08 7.44468e-09 1.09401e-08)
(2.83113e-08 -3.33595e-10 3.70905e-08)
(7.1129e-09 -6.84841e-09 4.00211e-08)
(-8.1894e-09 -6.80238e-09 3.92088e-08)
(-2.72279e-08 -2.73176e-10 3.47227e-08)
(3.08568e-08 -1.6905e-08 6.04227e-08)
(7.62678e-09 -1.98022e-08 6.36953e-08)
(-9.77836e-09 -1.93375e-08 6.25261e-08)
(-3.08627e-08 -1.53915e-08 5.70013e-08)
(2.9455e-08 -3.57398e-08 8.14186e-08)
(6.36383e-09 -3.71765e-08 8.44638e-08)
(-1.04267e-08 -3.62429e-08 8.30355e-08)
(-3.13782e-08 -3.28188e-08 7.72109e-08)
(2.88766e-08 -5.64906e-08 1.01602e-07)
(5.16119e-09 -5.87211e-08 1.04188e-07)
(-1.19575e-08 -5.73139e-08 1.02538e-07)
(-3.35008e-08 -5.21902e-08 9.67182e-08)
(3.32307e-08 -8.05403e-08 1.21874e-07)
(5.65337e-09 -8.40122e-08 1.23969e-07)
(-1.60091e-08 -8.2127e-08 1.22109e-07)
(-4.13514e-08 -7.48521e-08 1.16353e-07)
(4.59305e-08 -1.13307e-07 1.40453e-07)
(8.7365e-09 -1.14661e-07 1.4228e-07)
(-2.35924e-08 -1.12258e-07 1.40235e-07)
(-5.83432e-08 -1.06087e-07 1.34363e-07)
(6.17578e-08 -1.59017e-07 1.50687e-07)
(1.18826e-08 -1.5255e-07 1.5248e-07)
(-3.23956e-08 -1.49367e-07 1.50354e-07)
(-7.92743e-08 -1.49351e-07 1.44318e-07)
(7.82487e-09 2.57435e-09 5.84794e-09)
(1.27322e-09 -2.9272e-09 8.08405e-09)
(-1.46405e-09 -3.08095e-09 7.88325e-09)
(-6.50559e-09 1.38619e-09 5.27738e-09)
(1.54555e-08 -1.07942e-08 2.33102e-08)
(3.1032e-09 -1.57093e-08 2.76051e-08)
(-3.11289e-09 -1.56318e-08 2.70432e-08)
(-1.34366e-08 -1.08277e-08 2.17185e-08)
(1.66255e-08 -2.81995e-08 4.27747e-08)
(3.17938e-09 -3.04743e-08 4.76554e-08)
(-3.62626e-09 -3.00193e-08 4.68083e-08)
(-1.50894e-08 -2.68741e-08 4.03493e-08)
(1.51367e-08 -4.60118e-08 6.1723e-08)
(2.02816e-09 -4.7389e-08 6.65699e-08)
(-3.82931e-09 -4.65023e-08 6.54955e-08)
(-1.49823e-08 -4.33522e-08 5.86103e-08)
(1.46365e-08 -6.4218e-08 7.95744e-08)
(9.93647e-10 -6.66419e-08 8.41803e-08)
(-5.05008e-09 -6.53099e-08 8.29078e-08)
(-1.67136e-08 -6.0233e-08 7.58553e-08)
(1.92142e-08 -8.37289e-08 9.56497e-08)
(1.67137e-09 -8.75154e-08 9.99523e-08)
(-8.87545e-09 -8.57341e-08 9.8501e-08)
(-2.43682e-08 -7.84153e-08 9.13797e-08)
(3.2574e-08 -1.09627e-07 1.07458e-07)
(5.06849e-09 -1.11216e-07 1.11427e-07)
(-1.64132e-08 -1.08955e-07 1.09842e-07)
(-4.16338e-08 -1.02865e-07 1.02752e-07)
(4.93966e-08 -1.47948e-07 1.10492e-07)
(8.57441e-09 -1.41276e-07 1.14167e-07)
(-2.5244e-08 -1.38276e-07 1.1256e-07)
(-6.31919e-08 -1.38821e-07 1.0566e-07)
(4.4824e-09 2.35617e-10 4.56823e-09)
(3.28743e-10 -3.92397e-09 6.1436e-09)
(-3.4656e-10 -4.10133e-09 5.9939e-09)
(-2.98354e-09 -1.08226e-09 4.15354e-09)
(9.27751e-09 -1.49493e-08 1.78776e-08)
(1.16692e-09 -1.87971e-08 2.0862e-08)
(-5.85157e-10 -1.87872e-08 2.04566e-08)
(-6.67008e-09 -1.52663e-08 1.67484e-08)
(9.91474e-09 -3.31269e-08 3.34276e-08)
(1.09747e-09 -3.50465e-08 3.6771e-08)
(-4.91842e-10 -3.46846e-08 3.61531e-08)
(-7.34321e-09 -3.21553e-08 3.16802e-08)
(8.73082e-09 -5.03276e-08 4.91791e-08)
(1.71297e-10 -5.17676e-08 5.24363e-08)
(-4.68062e-10 -5.09926e-08 5.16355e-08)
(-7.09965e-09 -4.80629e-08 4.68799e-08)
(8.68851e-09 -6.64125e-08 6.37749e-08)
(-5.85218e-10 -6.90553e-08 6.68047e-08)
(-1.55467e-09 -6.78507e-08 6.58396e-08)
(-8.87942e-09 -6.28523e-08 6.09717e-08)
(1.36748e-08 -8.25233e-08 7.58006e-08)
(3.18035e-10 -8.65814e-08 7.85855e-08)
(-5.24212e-09 -8.49423e-08 7.74765e-08)
(-1.65718e-08 -7.76617e-08 7.25482e-08)
(2.72133e-08 -1.04392e-07 8.31016e-08)
(3.84331e-09 -1.06405e-07 8.56666e-08)
(-1.25873e-08 -1.04297e-07 8.44586e-08)
(-3.36786e-08 -9.81002e-08 7.95154e-08)
(4.39299e-08 -1.39243e-07 8.33716e-08)
(7.42948e-09 -1.33456e-07 8.58705e-08)
(-2.11996e-08 -1.30607e-07 8.46589e-08)
(-5.48161e-08 -1.30573e-07 7.97127e-08)
(3.33535e-09 -6.2366e-10 3.9285e-09)
(8.73317e-11 -4.12528e-09 4.73999e-09)
(-1.42634e-11 -4.328e-09 4.63203e-09)
(-1.72428e-09 -2.04768e-09 3.63398e-09)
(7.25672e-09 -1.61493e-08 1.41799e-08)
(6.86946e-10 -1.9512e-08 1.56638e-08)
(2.41831e-10 -1.95778e-08 1.53765e-08)
(-4.27957e-09 -1.67278e-08 1.33897e-08)
(7.93951e-09 -3.43761e-08 2.59723e-08)
(7.02375e-10 -3.62079e-08 2.75573e-08)
(5.66888e-10 -3.59492e-08 2.71185e-08)
(-4.69039e-09 -3.37462e-08 2.47439e-08)
(7.19773e-09 -5.10104e-08 3.80035e-08)
(3.6335e-11 -5.25932e-08 3.94439e-08)
(6.69518e-10 -5.19359e-08 3.88689e-08)
(-4.55661e-09 -4.91256e-08 3.6365e-08)
(7.66361e-09 -6.57241e-08 4.89703e-08)
(-4.39546e-10 -6.85722e-08 5.01981e-08)
(-3.68622e-10 -6.74939e-08 4.94973e-08)
(-6.51718e-09 -6.2562e-08 4.69455e-08)
(1.29936e-08 -7.99707e-08 5.74851e-08)
(6.57092e-10 -8.42343e-08 5.85284e-08)
(-3.94768e-09 -8.27261e-08 5.77181e-08)
(-1.42474e-08 -7.55129e-08 5.51158e-08)
(2.64692e-08 -1.0004e-07 6.20482e-08)
(4.21323e-09 -1.02413e-07 6.29853e-08)
(-1.10524e-08 -1.00435e-07 6.21023e-08)
(-3.10114e-08 -9.41405e-08 5.94279e-08)
(4.28171e-08 -1.33421e-07 6.16604e-08)
(7.78215e-09 -1.2851e-07 6.2658e-08)
(-1.93983e-08 -1.2578e-07 6.1775e-08)
(-5.15226e-08 -1.2511e-07 5.89895e-08)
(3.03229e-09 -9.00442e-10 3.05878e-09)
(9.66189e-11 -4.13165e-09 3.41362e-09)
(2.62285e-11 -4.35262e-09 3.34127e-09)
(-1.35293e-09 -2.3964e-09 2.86329e-09)
(6.8586e-09 -1.61827e-08 1.04268e-08)
(7.52087e-10 -1.9395e-08 1.10267e-08)
(3.83139e-10 -1.95186e-08 1.08353e-08)
(-3.65345e-09 -1.69518e-08 9.90537e-09)
(7.78179e-09 -3.40382e-08 1.86628e-08)
(9.22597e-10 -3.59204e-08 1.92336e-08)
(7.60788e-10 -3.57444e-08 1.89411e-08)
(-4.10271e-09 -3.36711e-08 1.78504e-08)
(7.43063e-09 -5.01356e-08 2.69954e-08)
(4.7555e-10 -5.18739e-08 2.7423e-08)
(8.80622e-10 -5.13121e-08 2.70375e-08)
(-4.12773e-09 -4.855e-08 2.59039e-08)
(8.28483e-09 -6.40787e-08 3.44778e-08)
(2.14397e-10 -6.70893e-08 3.47425e-08)
(-1.3079e-10 -6.61121e-08 3.42694e-08)
(-6.23664e-09 -6.12297e-08 3.31171e-08)
(1.38354e-08 -7.7507e-08 4.00918e-08)
(1.44741e-09 -8.19047e-08 4.02366e-08)
(-3.61629e-09 -8.0498e-08 3.96869e-08)
(-1.3956e-08 -7.33604e-08 3.84889e-08)
(2.72003e-08 -9.69221e-08 4.29122e-08)
(5.00949e-09 -9.95166e-08 4.3016e-08)
(-1.05164e-08 -9.76345e-08 4.24158e-08)
(-3.03947e-08 -9.13168e-08 4.1133e-08)
(4.32286e-08 -1.29631e-07 4.25161e-08)
(8.55259e-09 -1.25282e-07 4.26949e-08)
(-1.86458e-08 -1.22639e-07 4.2095e-08)
(-5.03906e-08 -1.21583e-07 4.07012e-08)
(2.97126e-09 -9.59305e-10 1.93564e-09)
(1.44063e-10 -4.08762e-09 2.07433e-09)
(4.92898e-12 -4.32014e-09 2.03288e-09)
(-1.25309e-09 -2.49958e-09 1.82425e-09)
(6.87645e-09 -1.5896e-08 6.38645e-09)
(8.93845e-10 -1.90868e-08 6.59334e-09)
(3.57648e-10 -1.92476e-08 6.48389e-09)
(-3.53964e-09 -1.67854e-08 6.08983e-09)
(8.01155e-09 -3.33334e-08 1.12458e-08)
(1.18986e-09 -3.52926e-08 1.14013e-08)
(7.34797e-10 -3.51714e-08 1.12339e-08)
(-4.07897e-09 -3.31372e-08 1.07832e-08)
(7.92431e-09 -4.90191e-08 1.61076e-08)
(8.89097e-10 -5.08766e-08 1.61654e-08)
(8.56175e-10 -5.03792e-08 1.5944e-08)
(-4.22267e-09 -4.76327e-08 1.54837e-08)
(9.01923e-09 -6.25687e-08 2.04249e-08)
(7.63664e-10 -6.56865e-08 2.03845e-08)
(-1.34211e-10 -6.47775e-08 2.01117e-08)
(-6.41667e-09 -5.99299e-08 1.9643e-08)
(1.46932e-08 -7.56968e-08 2.36087e-08)
(2.08071e-09 -8.01701e-08 2.35032e-08)
(-3.55015e-09 -7.88311e-08 2.31852e-08)
(-1.41055e-08 -7.17577e-08 2.26833e-08)
(2.79749e-08 -9.49163e-08 2.51644e-08)
(5.64714e-09 -9.76217e-08 2.50462e-08)
(-1.03119e-08 -9.58031e-08 2.46983e-08)
(-3.03167e-08 -8.95049e-08 2.41343e-08)
(4.37936e-08 -1.27301e-07 2.49098e-08)
(9.17451e-09 -1.23247e-07 2.48411e-08)
(-1.82973e-08 -1.2066e-07 2.44934e-08)
(-4.99717e-08 -1.19424e-07 2.3858e-08)
(2.96209e-09 -9.58027e-10 6.61401e-10)
(1.71299e-10 -4.05121e-09 6.97508e-10)
(-1.11221e-11 -4.28932e-09 6.84019e-10)
(-1.22633e-09 -2.51946e-09 6.2525e-10)
(6.92461e-09 -1.56767e-08 2.15038e-09)
(9.73848e-10 -1.88738e-08 2.19847e-09)
(3.29976e-10 -1.90527e-08 2.16288e-09)
(-3.52749e-09 -1.6624e-08 2.05416e-09)
(8.16991e-09 -3.28632e-08 3.75569e-09)
(1.33397e-09 -3.487e-08 3.7821e-09)
(7.01691e-10 -3.47756e-08 3.72762e-09)
(-4.11972e-09 -3.27504e-08 3.60553e-09)
(8.21055e-09 -4.833e-08 5.35065e-09)
(1.10407e-09 -5.02496e-08 5.34315e-09)
(8.23129e-10 -4.97841e-08 5.271e-09)
(-4.32153e-09 -4.70419e-08 5.14773e-09)
(9.41756e-09 -6.1715e-08 6.75874e-09)
(1.04294e-09 -6.4885e-08 6.71882e-09)
(-1.54761e-10 -6.40099e-08 6.62975e-09)
(-6.55139e-09 -5.91806e-08 6.50381e-09)
(1.51465e-08 -7.47536e-08 7.78986e-09)
(2.39994e-09 -7.92601e-08 7.72957e-09)
(-3.53408e-09 -7.79548e-08 7.62556e-09)
(-1.42185e-08 -7.09178e-08 7.4875e-09)
(2.83871e-08 -9.39277e-08 8.28892e-09)
(5.96991e-09 -9.66772e-08 8.22605e-09)
(-1.02276e-08 -9.489e-08 8.11214e-09)
(-3.03163e-08 -8.86126e-08 7.95179e-09)
(4.41043e-08 -1.26178e-07 8.20279e-09)
(9.49056e-09 -1.22246e-07 8.15654e-09)
(-1.8142e-08 -1.19687e-07 8.04266e-09)
(-4.98041e-08 -1.18386e-07 7.85839e-09)
)
;

boundaryField
{
    interface
    {
        type            calculated;
        value           nonuniform List<vector> 
192
(
(2.75274e-08 4.09917e-08 2.57817e-08)
(4.74247e-08 2.64553e-08 6.12511e-08)
(5.18462e-08 2.96075e-09 8.72681e-08)
(5.12087e-08 -1.88865e-08 1.09522e-07)
(5.09987e-08 -4.00097e-08 1.31494e-07)
(5.49376e-08 -6.43605e-08 1.55495e-07)
(6.63213e-08 -1.02333e-07 1.81778e-07)
(8.11556e-08 -1.61e-07 2.02858e-07)
(1.59536e-08 1.94331e-08 7.90583e-09)
(2.98052e-08 3.6543e-09 3.01397e-08)
(3.23857e-08 -1.66192e-08 5.27246e-08)
(3.10146e-08 -3.6235e-08 7.36022e-08)
(3.02731e-08 -5.55467e-08 9.37353e-08)
(3.40642e-08 -7.62768e-08 1.14044e-07)
(4.68351e-08 -1.06175e-07 1.33038e-07)
(6.593e-08 -1.54819e-07 1.44137e-07)
(7.47867e-09 8.39445e-09 3.24237e-09)
(1.59957e-08 -8.59407e-09 1.85518e-08)
(1.73081e-08 -2.82794e-08 3.75393e-08)
(1.58695e-08 -4.65091e-08 5.6542e-08)
(1.53124e-08 -6.31987e-08 7.45275e-08)
(1.96128e-08 -7.92446e-08 9.07608e-08)
(3.34974e-08 -1.02082e-07 1.02779e-07)
(5.40095e-08 -1.43452e-07 1.06036e-07)
(3.55987e-09 3.67559e-09 3.4459e-09)
(9.58657e-09 -1.35913e-08 1.5828e-08)
(1.04864e-08 -3.32636e-08 3.12562e-08)
(9.43444e-09 -5.06343e-08 4.71944e-08)
(9.47014e-09 -6.51766e-08 6.20317e-08)
(1.44244e-08 -7.78922e-08 7.42455e-08)
(2.88087e-08 -9.68279e-08 8.15754e-08)
(4.92296e-08 -1.34635e-07 8.17267e-08)
(2.08622e-09 2.02436e-09 3.56601e-09)
(7.31012e-09 -1.49983e-08 1.35752e-08)
(8.32433e-09 -3.43909e-08 2.54391e-08)
(7.79057e-09 -5.10795e-08 3.76785e-08)
(8.44082e-09 -6.42752e-08 4.88694e-08)
(1.38944e-08 -7.52694e-08 5.75253e-08)
(2.83911e-08 -9.25839e-08 6.2045e-08)
(4.83614e-08 -1.2879e-07 6.14851e-08)
(1.63307e-09 1.57228e-09 2.96778e-09)
(6.74871e-09 -1.49953e-08 1.03318e-08)
(8.04118e-09 -3.38953e-08 1.86808e-08)
(7.95603e-09 -5.00099e-08 2.7177e-08)
(9.07009e-09 -6.24776e-08 3.48168e-08)
(1.48384e-08 -7.27782e-08 4.05168e-08)
(2.93133e-08 -8.95739e-08 4.32887e-08)
(4.88672e-08 -1.25014e-07 4.27602e-08)
(1.52193e-09 1.50262e-09 1.91811e-09)
(6.6961e-09 -1.4636e-08 6.40298e-09)
(8.22183e-09 -3.30715e-08 1.13429e-08)
(8.43818e-09 -4.87673e-08 1.63026e-08)
(9.83999e-09 -6.08766e-08 2.07081e-08)
(1.57845e-08 -7.09579e-08 2.39364e-08)
(3.02189e-08 -8.76412e-08 2.54612e-08)
(4.94908e-08 -1.22704e-07 2.51287e-08)
(1.50211e-09 1.51365e-09 6.5911e-10)
(6.72259e-09 -1.43748e-08 2.16243e-09)
(8.36847e-09 -3.25418e-08 3.79529e-09)
(8.73087e-09 -4.80182e-08 5.42221e-09)
(1.0267e-08 -5.99811e-08 6.85833e-09)
(1.629e-08 -7.00113e-08 7.90318e-09)
(3.07006e-08 -8.66884e-08 8.39197e-09)
(4.98342e-08 -1.21595e-07 8.28046e-09)
(2.43827e-08 4.78628e-08 2.93945e-08)
(4.49449e-08 3.64412e-08 6.65297e-08)
(4.91503e-08 1.43424e-08 9.32266e-08)
(4.78859e-08 -7.53274e-09 1.15927e-07)
(4.72552e-08 -2.96091e-08 1.37919e-07)
(5.13581e-08 -5.59343e-08 1.61107e-07)
(6.29426e-08 -9.69563e-08 1.86266e-07)
(7.65631e-08 -1.58801e-07 2.07683e-07)
(4.91497e-09 3.7804e-08 2.60978e-08)
(1.02222e-08 2.81053e-08 6.17926e-08)
(1.08419e-08 1.03664e-08 8.71258e-08)
(9.16494e-09 -9.74423e-09 1.08266e-07)
(7.48043e-09 -3.23762e-08 1.28595e-07)
(7.49843e-09 -5.93619e-08 1.50336e-07)
(1.01663e-08 -9.77698e-08 1.75722e-07)
(1.32286e-08 -1.54043e-07 2.01064e-07)
(-6.98554e-09 3.67211e-08 2.44825e-08)
(-1.46352e-08 2.75833e-08 5.96417e-08)
(-1.75308e-08 1.04898e-08 8.45666e-08)
(-1.8672e-08 -9.04037e-09 1.05387e-07)
(-2.048e-08 -3.11481e-08 1.25441e-07)
(-2.47424e-08 -5.76245e-08 1.46922e-07)
(-3.25527e-08 -9.54484e-08 1.72036e-07)
(-4.18232e-08 -1.50745e-07 1.97081e-07)
(-2.4476e-08 4.42808e-08 2.45163e-08)
(-4.65764e-08 3.50822e-08 5.97969e-08)
(-5.30001e-08 1.50502e-08 8.51915e-08)
(-5.45241e-08 -5.13814e-09 1.06917e-07)
(-5.73352e-08 -2.57142e-08 1.28083e-07)
(-6.56127e-08 -5.0577e-08 1.50499e-07)
(-8.21436e-08 -8.9899e-08 1.74895e-07)
(-1.01479e-07 -1.48808e-07 1.95607e-07)
(-2.11399e-08 3.89741e-08 2.32851e-08)
(-4.19498e-08 2.66145e-08 5.60608e-08)
(-4.80773e-08 5.26996e-09 8.04806e-08)
(-4.97856e-08 -1.4667e-08 1.01576e-07)
(-5.26166e-08 -3.39693e-08 1.22563e-07)
(-6.03235e-08 -5.64835e-08 1.45632e-07)
(-7.6124e-08 -9.23878e-08 1.70985e-07)
(-9.5881e-08 -1.47912e-07 1.91263e-07)
(-9.46269e-09 1.77217e-08 6.81591e-09)
(-2.33474e-08 3.9725e-09 2.71583e-08)
(-2.69556e-08 -1.43538e-08 4.83545e-08)
(-2.73871e-08 -3.21591e-08 6.81668e-08)
(-2.92173e-08 -4.96967e-08 8.73827e-08)
(-3.63453e-08 -6.86413e-08 1.06838e-07)
(-5.31064e-08 -9.66058e-08 1.25059e-07)
(-7.65844e-08 -1.4237e-07 1.35684e-07)
(-8.97554e-10 6.37171e-09 2.55312e-09)
(-8.8389e-09 -8.68173e-09 1.65789e-08)
(-1.05872e-08 -2.64875e-08 3.44692e-08)
(-1.04286e-08 -4.2946e-08 5.25404e-08)
(-1.19688e-08 -5.78863e-08 6.96998e-08)
(-1.91767e-08 -7.2185e-08 8.51846e-08)
(-3.66517e-08 -9.31593e-08 9.65854e-08)
(-6.11739e-08 -1.31725e-07 9.95454e-08)
(3.1221e-09 1.33114e-09 2.95814e-09)
(-1.9315e-09 -1.41764e-08 1.4459e-08)
(-2.82917e-09 -3.20479e-08 2.90803e-08)
(-2.62172e-09 -4.76787e-08 4.42733e-08)
(-4.34772e-09 -6.04841e-08 5.84225e-08)
(-1.18272e-08 -7.14617e-08 7.00179e-08)
(-2.94434e-08 -8.85389e-08 7.68596e-08)
(-5.35683e-08 -1.2352e-07 7.67953e-08)
(4.66903e-09 -5.46724e-10 3.22626e-09)
(6.68743e-10 -1.59862e-08 1.26354e-08)
(-3.87277e-11 -3.36769e-08 2.39337e-08)
(-2.69073e-11 -4.86687e-08 3.56219e-08)
(-2.03854e-09 -6.01391e-08 4.62847e-08)
(-9.70393e-09 -6.93891e-08 5.44617e-08)
(-2.71413e-08 -8.48215e-08 5.86068e-08)
(-5.05617e-08 -1.1816e-07 5.7883e-08)
(5.16744e-09 -1.14481e-09 2.74545e-09)
(1.43483e-09 -1.62643e-08 9.7203e-09)
(6.44013e-10 -3.35524e-08 1.76975e-08)
(4.37423e-10 -4.80164e-08 2.58204e-08)
(-1.79762e-09 -5.87725e-08 3.30919e-08)
(-9.54178e-09 -6.73206e-08 3.84534e-08)
(-2.67373e-08 -8.22079e-08 4.09593e-08)
(-4.9548e-08 -1.14741e-07 4.03134e-08)
(5.30403e-09 -1.30141e-09 1.79258e-09)
(1.60406e-09 -1.60789e-08 6.05829e-09)
(7.00282e-10 -3.29664e-08 1.07874e-08)
(3.41768e-10 -4.70481e-08 1.55321e-08)
(-2.02845e-09 -5.7459e-08 1.97216e-08)
(-9.79275e-09 -6.57825e-08 2.27489e-08)
(-2.6801e-08 -8.05381e-08 2.41146e-08)
(-4.92005e-08 -1.12666e-07 2.37113e-08)
(5.33536e-09 -1.33101e-09 6.18552e-10)
(1.63101e-09 -1.59006e-08 2.0511e-09)
(6.64005e-10 -3.25518e-08 3.6157e-09)
(2.29773e-10 -4.64338e-08 5.17243e-09)
(-2.19821e-09 -5.67061e-08 6.53748e-09)
(-9.96334e-09 -6.49763e-08 7.51575e-09)
(-2.68745e-08 -7.9716e-08 7.95168e-09)
(-4.90711e-08 -1.11672e-07 7.81648e-09)
(7.63475e-08 -1.65696e-07 2.08334e-07)
(6.224e-08 -1.59244e-07 1.46495e-07)
(4.99764e-08 -1.49116e-07 1.05549e-07)
(4.4787e-08 -1.41319e-07 7.97398e-08)
(4.39045e-08 -1.35802e-07 5.92576e-08)
(4.44501e-08 -1.32106e-07 4.09861e-08)
(4.50785e-08 -1.29823e-07 2.40464e-08)
(4.54129e-08 -1.28728e-07 7.92206e-09)
(1.30416e-08 -1.58665e-07 2.03967e-07)
(9.47014e-09 -1.48254e-07 1.47727e-07)
(6.15617e-09 -1.37835e-07 1.09393e-07)
(5.27045e-09 -1.31309e-07 8.26789e-08)
(5.87159e-09 -1.27025e-07 6.06145e-08)
(6.80412e-09 -1.24129e-07 4.13792e-08)
(7.51399e-09 -1.2227e-07 2.4082e-08)
(7.86747e-09 -1.2135e-07 7.90629e-09)
(-4.19884e-08 -1.54329e-07 2.0098e-07)
(-3.31956e-08 -1.44148e-07 1.45687e-07)
(-2.58582e-08 -1.33925e-07 1.0787e-07)
(-2.19207e-08 -1.27554e-07 8.15349e-08)
(-2.02487e-08 -1.23389e-07 5.97828e-08)
(-1.95709e-08 -1.20579e-07 4.08151e-08)
(-1.92534e-08 -1.18776e-07 2.37554e-08)
(-1.91074e-08 -1.17883e-07 7.79937e-09)
(-1.01658e-07 -1.52516e-07 1.99336e-07)
(-8.2769e-08 -1.46587e-07 1.40374e-07)
(-6.66041e-08 -1.37002e-07 1.00966e-07)
(-5.83515e-08 -1.29664e-07 7.6285e-08)
(-5.51654e-08 -1.24502e-07 5.6742e-08)
(-5.40762e-08 -1.2106e-07 3.92798e-08)
(-5.36604e-08 -1.18943e-07 2.30588e-08)
(-5.34867e-08 -1.17929e-07 7.59886e-09)
)
;
    }
    symmetry
    {
        type            symmetry;
    }
    bottom
    {
        type            calculated;
        value           uniform (0 0 0);
    }
}


// ************************************************************************* //
