/*--------------------------------*- C++ -*----------------------------------*\
| =========                 |                                                 |
| \\      /  F ield         | OpenFOAM: The Open Source CFD Toolbox           |
|  \\    /   O peration     | Version:  v1912                                 |
|   \\  /    A nd           | Website:  www.openfoam.com                      |
|    \\/     M anipulation  |                                                 |
\*---------------------------------------------------------------------------*/
FoamFile
{
    version     2.0;
    format      ascii;
    class       volScalarField;
    location    "0.28/fluid";
    object      p;
}
// * * * * * * * * * * * * * * * * * * * * * * * * * * * * * * * * * * * * * //

dimensions      [0 2 -2 0 0 0 0];


internalField   nonuniform List<scalar> 
14592
(
0.0708762
0.0654004
0.0635505
0.0619354
0.0608574
0.0599138
0.0590701
0.0583079
0.0575688
0.0569633
0.0562995
0.0559667
0.0553067
0.0556606
0.0548038
0.0575493
0.0665993
0.0649019
0.0632814
0.0619381
0.0608929
0.0599668
0.059126
0.0583709
0.0576422
0.0570567
0.0564184
0.056138
0.0555318
0.056062
0.0552502
0.0590151
0.0647065
0.0640542
0.0628121
0.0617676
0.060794
0.0599097
0.0590789
0.0583288
0.0576023
0.0570235
0.0563975
0.056153
0.0555922
0.0562591
0.0555256
0.0597543
0.0634495
0.0632405
0.0623408
0.0615194
0.0606414
0.0598104
0.0589988
0.0582563
0.057531
0.0569557
0.0563386
0.0561262
0.055612
0.0564025
0.0557891
0.0602833
0.0627011
0.062622
0.0619221
0.0612387
0.0604355
0.0596456
0.0588452
0.0580964
0.0573503
0.0567428
0.0560825
0.0558248
0.055255
0.0560405
0.0554102
0.0601175
0.0621718
0.0621412
0.0615738
0.0609808
0.0602349
0.0594753
0.058682
0.0579246
0.0571595
0.0565267
0.055843
0.0555766
0.0550221
0.0559221
0.0554496
0.0606036
0.0618294
0.0618143
0.0613125
0.0607628
0.0600429
0.059289
0.0584811
0.0576884
0.0568665
0.0561452
0.0553374
0.0548859
0.0540665
0.0546202
0.0535718
0.058685
0.0616215
0.0616124
0.0611381
0.0606039
0.059889
0.0591268
0.058298
0.0574704
0.0566038
0.0558221
0.0549541
0.0544381
0.0535985
0.0543011
0.0535191
0.0608848
0.0707423
0.0652683
0.0634562
0.0618837
0.060862
0.0599821
0.0592113
0.0585329
0.057889
0.0573914
0.0568495
0.0566217
0.0560894
0.0563071
0.0554998
0.0565855
0.0664657
0.0647681
0.0631865
0.0618867
0.0608988
0.060037
0.05927
0.0585996
0.0579671
0.0574905
0.0569741
0.0567948
0.0563053
0.0566437
0.0558224
0.0573625
0.0645701
0.0639165
0.062713
0.061712
0.0607958
0.0599759
0.0592184
0.0585524
0.0579207
0.0574494
0.0569416
0.056794
0.0563373
0.0567854
0.0560037
0.0578001
0.063311
0.0631005
0.0622388
0.0614603
0.0606391
0.0598719
0.0591328
0.0584734
0.0578416
0.057373
0.0568719
0.0567561
0.056339
0.0569019
0.0562106
0.0581936
0.0625595
0.0624789
0.0618161
0.0611746
0.0604268
0.059699
0.0589687
0.0582998
0.0576423
0.0571359
0.0565821
0.0564129
0.05592
0.0564693
0.0557121
0.0578867
0.062027
0.0619949
0.0614638
0.0609117
0.0602198
0.0595205
0.0587946
0.0581143
0.0574342
0.0568996
0.0563177
0.0561422
0.0556591
0.0563471
0.0557292
0.0583745
0.0616805
0.0616641
0.0611977
0.0606875
0.0600196
0.059323
0.0585784
0.0578569
0.0571112
0.0564768
0.055752
0.0553727
0.0545792
0.0549084
0.053582
0.0562315
0.0614681
0.0614581
0.0610182
0.0605224
0.0598576
0.0591502
0.0583812
0.0576204
0.0568244
0.0561244
0.055333
0.054895
0.0540824
0.054642
0.0535891
0.0587045
0.0706528
0.0651798
0.063397
0.0618596
0.0608868
0.0600655
0.0593671
0.0587781
0.0582482
0.0578971
0.0575589
0.0575871
0.0574729
0.0581089
0.058233
0.059485
0.0663765
0.0646786
0.0631272
0.0618631
0.0609249
0.0601228
0.0594293
0.0588499
0.0583336
0.0580066
0.0576978
0.0577789
0.0577148
0.0584679
0.0586181
0.0602205
0.0644781
0.0638234
0.0626497
0.0616844
0.0608181
0.0600579
0.0593736
0.0587983
0.0582821
0.05796
0.0576586
0.0577721
0.0577406
0.0586076
0.0588179
0.0606648
0.0632169
0.063005
0.0621725
0.0614293
0.0606574
0.0599494
0.0592827
0.0587131
0.0581955
0.0578756
0.0575795
0.0577268
0.0577343
0.0587238
0.0590268
0.0610583
0.0624622
0.0623801
0.0617458
0.0611385
0.0604388
0.0597685
0.059108
0.0585256
0.0579772
0.0576136
0.0572547
0.0573403
0.0572516
0.05822
0.058413
0.0606279
0.0619263
0.0618929
0.0613895
0.0608706
0.0602253
0.0595814
0.0589227
0.0583254
0.0577494
0.0573524
0.0569562
0.0570303
0.0569324
0.0580412
0.0583222
0.0610085
0.0615757
0.061558
0.0611184
0.0606403
0.0600168
0.0593727
0.0586907
0.0580457
0.0573937
0.0568827
0.0563187
0.0561586
0.0556822
0.0563753
0.0557471
0.058385
0.0613589
0.0613478
0.060934
0.060469
0.0598467
0.0591889
0.0584782
0.0577881
0.0570772
0.0564895
0.0558404
0.0556036
0.0550639
0.0559777
0.0554935
0.0606494
0.0705938
0.0651213
0.0633605
0.0618499
0.060915
0.0601383
0.059493
0.0589645
0.0585035
0.0582242
0.0579672
0.0580493
0.0580118
0.0585811
0.0587454
0.0596954
0.0663177
0.0646192
0.0630905
0.061854
0.0609543
0.0601975
0.0595577
0.0590394
0.0585928
0.0583381
0.0581103
0.0582426
0.0582496
0.0589136
0.0590862
0.0602849
0.0644169
0.0637607
0.0626095
0.0616716
0.0608439
0.060129
0.0594981
0.0589834
0.0585356
0.0582843
0.0580604
0.0582203
0.0582497
0.0590102
0.0592203
0.0606208
0.0631536
0.0629401
0.0621295
0.0614133
0.0606796
0.0600164
0.0594024
0.0588928
0.0584423
0.0581923
0.0579714
0.0581637
0.0582252
0.0591013
0.0593847
0.0609529
0.0623958
0.0623122
0.0616991
0.061118
0.0604554
0.0598286
0.059219
0.0586941
0.0582094
0.057912
0.0576216
0.0577471
0.0576988
0.0585473
0.0586908
0.0604356
0.0618567
0.0618218
0.0613391
0.0608456
0.0602362
0.0596344
0.0590247
0.0584829
0.0579677
0.0576346
0.0573028
0.0574172
0.057352
0.0583478
0.0585571
0.0607767
0.0615024
0.0614833
0.0610637
0.0606099
0.0600207
0.0594165
0.0587803
0.0581868
0.0575898
0.0571361
0.0566252
0.056497
0.0560289
0.0566034
0.0558381
0.0580026
0.0612817
0.0612694
0.0608749
0.0604333
0.0598438
0.0592239
0.0585563
0.0579144
0.0572542
0.0567202
0.0561188
0.0559155
0.0553778
0.0561987
0.0555588
0.0602769
0.0705571
0.065085
0.0633411
0.0618519
0.0609478
0.0602091
0.059611
0.0591392
0.0587487
0.0585513
0.0584006
0.0585895
0.0587098
0.059367
0.0597354
0.0605994
0.0662813
0.0645823
0.0630711
0.0618565
0.0609883
0.0602701
0.0596783
0.0592179
0.0588432
0.0586724
0.0585532
0.0587942
0.0589616
0.0597078
0.0600875
0.0611553
0.0643784
0.0637211
0.0625871
0.0616711
0.060875
0.0601987
0.0596157
0.0591587
0.0587821
0.0586141
0.0584971
0.0587638
0.0589485
0.0597834
0.0601911
0.0614418
0.0631132
0.0628986
0.0621048
0.0614101
0.0607076
0.0600827
0.059516
0.0590633
0.0586832
0.0585158
0.0583999
0.0586985
0.0589114
0.0598596
0.0603304
0.0617422
0.0623528
0.0622679
0.0616711
0.0611108
0.0604785
0.0598888
0.0593248
0.0588549
0.0584373
0.0582189
0.0580276
0.0582544
0.0583458
0.0592607
0.0595686
0.0611522
0.0618109
0.0617749
0.0613079
0.0608344
0.0602544
0.0596883
0.0591223
0.0586332
0.0581817
0.0579244
0.0576858
0.0578982
0.0579614
0.0590217
0.0593701
0.061427
0.0614533
0.0614332
0.0610287
0.060594
0.0600327
0.0594622
0.0588669
0.058322
0.0577827
0.0573975
0.0569676
0.0569254
0.0565588
0.0571816
0.0564907
0.0584728
0.0612292
0.0612159
0.060836
0.0604127
0.0598496
0.0592615
0.058632
0.0580351
0.0574273
0.0569557
0.056425
0.0562997
0.0558435
0.0567093
0.0560982
0.0606405
0.0705353
0.0650633
0.0633313
0.0618572
0.0609748
0.0602622
0.0596954
0.0592585
0.0589073
0.058748
0.0586387
0.0588499
0.0590007
0.0596263
0.0600007
0.0607891
0.0662597
0.0645601
0.0630613
0.0618622
0.0610161
0.0603244
0.0597643
0.0593393
0.0590043
0.0588719
0.0587943
0.0590563
0.059252
0.0599591
0.0603392
0.0613049
0.0643551
0.0636968
0.062575
0.0616744
0.0609005
0.0602507
0.0596992
0.0592772
0.0589397
0.0588091
0.0587315
0.0590164
0.0592237
0.0600112
0.0604081
0.0615441
0.0630885
0.0628727
0.0620908
0.0614112
0.0607307
0.060132
0.0595964
0.0591784
0.0588365
0.058706
0.0586279
0.0589436
0.0591748
0.060072
0.060522
0.0618148
0.062326
0.06224
0.0616546
0.0611089
0.0604979
0.0599336
0.0593996
0.0589631
0.0585817
0.0583983
0.0582413
0.0584828
0.0585857
0.0594459
0.0597188
0.061181
0.0617818
0.0617448
0.0612888
0.0608295
0.06027
0.0597285
0.0591913
0.0587342
0.0583173
0.0580937
0.0578869
0.0581135
0.0581832
0.0591896
0.0594897
0.0614254
0.0614216
0.0614006
0.0610066
0.0605855
0.0600438
0.0594965
0.0589282
0.0584132
0.0579055
0.0575509
0.0571475
0.0571164
0.056746
0.0573115
0.0565441
0.058394
0.0611948
0.0611808
0.060811
0.0604006
0.0598562
0.0592901
0.0586859
0.0581171
0.0575383
0.0570952
0.0565879
0.0564737
0.0560089
0.0568236
0.0561225
0.0605385
0.0705236
0.0650517
0.0633275
0.0618636
0.060996
0.0603016
0.0597574
0.059347
0.0590276
0.0589028
0.0588355
0.0590826
0.0592819
0.0599216
0.0603354
0.0610868
0.0662481
0.0645482
0.0630576
0.0618688
0.061038
0.0603648
0.0598277
0.0594297
0.0591273
0.0590304
0.0589958
0.0592947
0.0595397
0.0602591
0.0606784
0.061593
0.0643424
0.0636835
0.0625697
0.0616795
0.0609208
0.0602896
0.0597611
0.059366
0.0590607
0.0589652
0.0589297
0.0592503
0.0595041
0.0603
0.0607304
0.0618085
0.0630747
0.0628583
0.0620842
0.0614148
0.0607494
0.060169
0.0596561
0.0592647
0.0589546
0.0588588
0.0588219
0.0591726
0.059448
0.0603516
0.0608296
0.0620623
0.0623108
0.0622241
0.0616462
0.0611104
0.060514
0.0599676
0.0594554
0.0590445
0.0586935
0.0585432
0.0584247
0.0586992
0.0588413
0.0597052
0.0599966
0.0613972
0.0617651
0.0617274
0.0612787
0.0608288
0.0602834
0.059759
0.0592428
0.0588103
0.0584222
0.0582302
0.0580593
0.0583172
0.0584213
0.0594297
0.059738
0.0616117
0.061403
0.0613814
0.0609944
0.0605823
0.0600539
0.0595229
0.0589742
0.0584821
0.0580004
0.0576746
0.0573025
0.0572988
0.0569535
0.057516
0.0567352
0.0585142
0.0611744
0.0611598
0.0607967
0.0603949
0.0598631
0.0593123
0.0587264
0.0581787
0.0576236
0.0572068
0.0567266
0.0566368
0.05619
0.0570002
0.056271
0.0606188
0.0705182
0.0650469
0.0633259
0.0618672
0.0610064
0.0603203
0.059786
0.0593864
0.0590789
0.0589646
0.0589082
0.0591591
0.0593637
0.059992
0.0604041
0.0611411
0.0662432
0.0645429
0.0630561
0.0618724
0.0610486
0.0603838
0.0598567
0.0594695
0.0591789
0.0590923
0.0590681
0.0593698
0.0596186
0.0603239
0.06074
0.0616354
0.0643366
0.0636775
0.0625675
0.0616822
0.0609306
0.0603078
0.0597892
0.0594047
0.0591109
0.0590253
0.0589994
0.0593215
0.0595771
0.0603563
0.0607803
0.0618366
0.0630686
0.0628517
0.0620815
0.0614168
0.0607583
0.0601863
0.0596831
0.0593022
0.0590033
0.0589172
0.0588894
0.0592413
0.0595172
0.0604029
0.0608715
0.0620813
0.0623038
0.0622167
0.0616425
0.0611113
0.0605217
0.0599833
0.0594807
0.0590799
0.0587396
0.0585986
0.0584884
0.0587636
0.0589048
0.0597501
0.0600285
0.0614052
0.0617574
0.0617193
0.0612741
0.0608287
0.0602898
0.0597732
0.0592661
0.0588435
0.0584655
0.0582826
0.0581193
0.058378
0.0584797
0.0594692
0.05976
0.0616086
0.0613944
0.0613724
0.0609888
0.0605809
0.0600588
0.0595352
0.0589951
0.0585122
0.05804
0.0577226
0.0573572
0.057354
0.0570047
0.057548
0.0567436
0.0584938
0.0611649
0.0611499
0.0607901
0.0603923
0.0598665
0.0593227
0.0587448
0.0582058
0.0576596
0.0572505
0.0567762
0.0566869
0.0562345
0.0570254
0.0562669
0.0605825
0.0806013
0.070027
0.0664619
0.0634682
0.0615766
0.0599654
0.05856
0.0572232
0.0558873
0.0545274
0.0530548
0.0515093
0.0497121
0.0478396
0.0455472
0.043292
0.0762743
0.0691966
0.0660251
0.063347
0.0615328
0.0599612
0.05857
0.0572437
0.0559155
0.0545642
0.0531005
0.0515669
0.0497813
0.0479238
0.0456416
0.0433944
0.0743503
0.0682166
0.065435
0.0630703
0.0613721
0.0598727
0.0585133
0.0572064
0.0558895
0.054547
0.0530926
0.0515697
0.0497991
0.047958
0.0456954
0.0434631
0.073056
0.0673598
0.064912
0.0627761
0.0611934
0.0597641
0.0584388
0.0571506
0.0558432
0.0545061
0.0530573
0.0515407
0.0497817
0.0479537
0.045712
0.0434977
0.072287
0.0667278
0.0644747
0.0624827
0.0609904
0.0596199
0.0583261
0.0570543
0.0557541
0.0544187
0.0529712
0.0514549
0.049704
0.0478851
0.0456693
0.0434795
0.0717539
0.0662501
0.0641268
0.0622297
0.0608054
0.0594793
0.0582097
0.056949
0.0556524
0.0543156
0.052868
0.051351
0.0496105
0.0478029
0.0456216
0.0434619
0.0714192
0.0659344
0.0638782
0.0620311
0.0606455
0.0593442
0.0580865
0.0568277
0.0555276
0.0541822
0.0527273
0.051201
0.0494644
0.0476601
0.0455156
0.0433885
0.0712278
0.0657497
0.063723
0.0618974
0.0605274
0.0592343
0.0579772
0.0567128
0.0554047
0.0540485
0.0525871
0.0510536
0.049327
0.0475325
0.0454347
0.0433455
0.0762635
0.0691809
0.0660025
0.0633188
0.0614989
0.0599245
0.0585297
0.0571936
0.0558512
0.054484
0.0529984
0.0514436
0.0496247
0.0477452
0.0454144
0.0431694
0.0719615
0.0686201
0.0656575
0.0632474
0.06148
0.0599348
0.0585483
0.0572165
0.0558766
0.054513
0.0530318
0.0514835
0.0496716
0.047802
0.0454789
0.0432423
0.0700406
0.0677091
0.0651179
0.0630124
0.0613422
0.0598585
0.0584974
0.0571805
0.0558491
0.0544921
0.0530186
0.0514796
0.0496815
0.0478269
0.0455226
0.0433005
0.0687547
0.0668598
0.0646116
0.0627341
0.0611741
0.0597569
0.0584273
0.0571276
0.0558049
0.0544532
0.0529854
0.0514529
0.0496671
0.047826
0.045543
0.0433389
0.0679914
0.0662254
0.0641798
0.062447
0.0609758
0.0596156
0.0583164
0.0570332
0.0557177
0.0543679
0.0529021
0.0513705
0.0495937
0.0477622
0.0455062
0.0433261
0.0674601
0.0657433
0.063833
0.0621965
0.0607936
0.0594772
0.0582021
0.0569308
0.0556197
0.0542697
0.0528053
0.0512747
0.0495108
0.0476926
0.0454741
0.0433241
0.0671268
0.0654259
0.0635854
0.0619996
0.0606357
0.0593434
0.0580802
0.0568118
0.0554978
0.0541398
0.0526693
0.05113
0.0493715
0.0475572
0.0453787
0.0432606
0.066936
0.0652407
0.0634312
0.0618674
0.0605196
0.059235
0.0579727
0.0567
0.0553793
0.0540118
0.0525367
0.0509926
0.0492476
0.0474459
0.0453195
0.0432397
0.0743427
0.0682041
0.0654213
0.0630583
0.0613666
0.0598814
0.0585372
0.0572424
0.0559335
0.0546032
0.0531418
0.0516222
0.0497875
0.0479192
0.0454385
0.0431456
0.0700467
0.0677158
0.0651314
0.0630338
0.0613769
0.0599105
0.0585683
0.0572752
0.0559681
0.0546419
0.0531859
0.0516746
0.0498484
0.0479927
0.0455186
0.0432357
0.0681376
0.066853
0.06464
0.0628423
0.0612665
0.0598506
0.0585266
0.0572442
0.0559435
0.054623
0.0531747
0.0516729
0.0498617
0.0480218
0.0455654
0.0432949
0.0668638
0.0660221
0.0641549
0.0625838
0.0611118
0.0597573
0.0584613
0.0571937
0.0559003
0.0545842
0.0531418
0.0516473
0.0498501
0.0480259
0.0455934
0.0433425
0.0661081
0.0653958
0.0637334
0.0623064
0.0609197
0.0596192
0.0583509
0.0570972
0.055809
0.0544928
0.0530504
0.0515547
0.0497658
0.04795
0.0455486
0.0433246
0.0655801
0.0649158
0.0633902
0.0620595
0.0607397
0.0594814
0.0582355
0.0569919
0.0557066
0.0543886
0.0529471
0.0514518
0.0496783
0.0478783
0.0455247
0.0433369
0.0652479
0.0645987
0.0631435
0.0618633
0.0605812
0.0593456
0.0581097
0.0568666
0.0555756
0.0542458
0.0527942
0.0512846
0.0495138
0.0477124
0.0454092
0.0432567
0.0650565
0.0644126
0.0629887
0.0617302
0.0604635
0.0592344
0.0579981
0.0567489
0.0554493
0.0541074
0.0526498
0.0511331
0.0493788
0.0475914
0.0453586
0.043253
0.0730454
0.0673437
0.064905
0.062784
0.0612277
0.0598364
0.0585542
0.0573126
0.0560471
0.0547651
0.0533348
0.0518622
0.0500025
0.048152
0.0454384
0.0430877
0.0687586
0.0668631
0.0646327
0.0627767
0.0612505
0.0598742
0.0585914
0.0573505
0.0560866
0.0548094
0.0533853
0.0519235
0.0500751
0.0482442
0.0455402
0.0432073
0.0668609
0.0660176
0.0641614
0.0626041
0.0611528
0.059822
0.0585536
0.0573211
0.0560622
0.0547899
0.0533736
0.0519222
0.0500902
0.0482769
0.0455878
0.0432632
0.0655963
0.0651975
0.0636868
0.0623555
0.0610048
0.0597329
0.0584901
0.0572707
0.0560181
0.0547498
0.0533397
0.0518967
0.0500811
0.048287
0.0456242
0.0433216
0.0648468
0.064578
0.0632716
0.0620835
0.0608159
0.0595956
0.0583781
0.0571702
0.0559205
0.0546493
0.0532367
0.0517893
0.0499803
0.0481923
0.0455651
0.0432928
0.0643218
0.0641008
0.0629309
0.0618386
0.0606365
0.059457
0.0582602
0.0570606
0.0558122
0.0545375
0.0531252
0.0516779
0.049888
0.0481199
0.045556
0.0433298
0.0639906
0.0637845
0.0626846
0.0616421
0.0604764
0.0593181
0.0581291
0.0569269
0.0556692
0.0543776
0.0529497
0.0514797
0.0496876
0.0479087
0.0454097
0.0432222
0.0637984
0.0635977
0.0625288
0.0615076
0.0603563
0.0592033
0.0580124
0.0568018
0.0555332
0.0542267
0.0527914
0.0513122
0.0495418
0.0477808
0.0453816
0.0432574
0.0722725
0.0667085
0.0644834
0.0625303
0.0610985
0.0598078
0.0586081
0.0574472
0.0562595
0.0550708
0.0537229
0.052367
0.0505394
0.0487883
0.0457866
0.0433696
0.0679918
0.0662248
0.0642165
0.06253
0.0611274
0.0598507
0.0586503
0.0574907
0.056306
0.0551244
0.0537859
0.0524466
0.0506366
0.048918
0.0459317
0.0435387
0.066101
0.0653861
0.0637545
0.0623664
0.061036
0.0598023
0.0586142
0.0574617
0.0562812
0.0551046
0.0537748
0.0524481
0.0506573
0.0489603
0.0459831
0.0435896
0.0648428
0.0645728
0.0632861
0.0621234
0.0608917
0.0597149
0.0585505
0.0574096
0.0562344
0.0550614
0.0537383
0.0524223
0.0506517
0.0489807
0.0460339
0.0436681
0.0640976
0.0639578
0.0628745
0.0618541
0.0607034
0.0595759
0.0584339
0.0573014
0.0561255
0.0549454
0.0536152
0.0522895
0.0505215
0.0488539
0.0459489
0.0436243
0.0635744
0.0634826
0.0625351
0.0616094
0.0605227
0.059434
0.0583103
0.0571831
0.0560055
0.0548185
0.0534861
0.0521587
0.0504132
0.0487722
0.0459543
0.0437003
0.063243
0.0631662
0.0622879
0.0614108
0.0603589
0.0592889
0.0581694
0.0570347
0.0558413
0.0546281
0.053269
0.0519025
0.0501411
0.0484697
0.0457331
0.0435283
0.0630491
0.0629778
0.0621299
0.0612732
0.060234
0.0591673
0.0580428
0.0568956
0.0556867
0.0544521
0.05308
0.0516969
0.0499592
0.0483085
0.0457133
0.0436135
0.0717177
0.0662091
0.0641377
0.0623097
0.060988
0.0597927
0.0586778
0.0576019
0.056497
0.055407
0.0541437
0.0529061
0.0510927
0.0494208
0.0459646
0.0433856
0.0674385
0.0657193
0.0638707
0.0623112
0.0610192
0.0598383
0.0587231
0.0576495
0.0565489
0.0554682
0.0542174
0.0530032
0.0512151
0.0495929
0.046144
0.0435477
0.0655498
0.0648806
0.0634101
0.0621492
0.0609287
0.05979
0.0586861
0.0576187
0.0565216
0.055446
0.0542045
0.0530055
0.0512382
0.0496395
0.0461745
0.0435339
0.0642944
0.0640696
0.0629435
0.0619075
0.0607846
0.0597016
0.0586201
0.0575632
0.0564705
0.0553982
0.054164
0.0529784
0.051235
0.0496703
0.0462356
0.0436252
0.0635507
0.0634561
0.0625325
0.0616378
0.0605944
0.0595586
0.0584969
0.0574452
0.0563479
0.0552636
0.0540164
0.0528143
0.0510668
0.0495017
0.0461169
0.0435699
0.0630277
0.0629813
0.0621927
0.0613917
0.0604109
0.0594119
0.0583661
0.0573169
0.0562148
0.0551204
0.0538688
0.0526645
0.0509451
0.0494209
0.0461626
0.0437381
0.0626951
0.0626637
0.0619435
0.06119
0.0602421
0.059259
0.0582137
0.0571515
0.0560266
0.0548953
0.0536034
0.05234
0.0505855
0.0490055
0.0458558
0.0435122
0.0624987
0.062473
0.0617825
0.0610483
0.0601118
0.0591297
0.0580763
0.0569975
0.0558523
0.0546937
0.0533842
0.0520998
0.0503773
0.0488381
0.0459079
0.0437843
0.0713408
0.0658526
0.0638811
0.0621427
0.0609154
0.0598125
0.0587919
0.057822
0.0568361
0.0559024
0.0548161
0.0538415
0.0522602
0.0509895
0.0473567
0.0448132
0.0670631
0.0653591
0.0636137
0.062145
0.0609483
0.0598609
0.058841
0.0578751
0.0568957
0.0559753
0.0549066
0.053966
0.052422
0.051227
0.047586
0.0448878
0.0651744
0.0645186
0.0631518
0.0619818
0.0608564
0.0598108
0.0588016
0.0578414
0.0568654
0.0559506
0.0548927
0.0539726
0.052454
0.0512939
0.0476122
0.0448003
0.0639198
0.063708
0.0626849
0.0617392
0.0607106
0.0597197
0.0587318
0.0577811
0.0568084
0.055897
0.0548472
0.0539455
0.0524574
0.051349
0.0477038
0.0449286
0.0631758
0.0630941
0.0622726
0.0614671
0.0605163
0.0595705
0.0585996
0.0576502
0.0566678
0.0557379
0.0546664
0.0537391
0.0522359
0.0511251
0.0475394
0.0448807
0.0626518
0.0626183
0.0619307
0.061218
0.060328
0.0594168
0.0584587
0.057508
0.0565163
0.0555711
0.0544898
0.0535573
0.0520836
0.0510338
0.0476239
0.0452014
0.0623166
0.0622983
0.0616781
0.0610116
0.0601523
0.0592535
0.058291
0.0573201
0.0562948
0.0552965
0.0541512
0.0531243
0.0515689
0.050406
0.0470968
0.0448433
0.0621169
0.0621044
0.0615131
0.0608647
0.0600147
0.0591138
0.0581389
0.0571453
0.0560917
0.055055
0.0538792
0.0528158
0.0512833
0.050175
0.0471639
0.0454119
0.0710665
0.0655867
0.063686
0.0620164
0.0608688
0.0598474
0.0589125
0.0580382
0.0571569
0.0563516
0.0554016
0.0546036
0.0531473
0.0520038
0.0478696
0.0442504
0.0667891
0.0650901
0.0634175
0.0620186
0.0609029
0.0598978
0.0589646
0.0580955
0.0572221
0.0564329
0.0555037
0.0547471
0.0533315
0.0522652
0.0479867
0.0435109
0.0648986
0.0642461
0.0629521
0.061852
0.0608078
0.0598444
0.0589215
0.0580577
0.0571869
0.0564033
0.0554845
0.0547509
0.0533571
0.0523161
0.0479051
0.0429536
0.0636432
0.0634343
0.0624833
0.061607
0.0606589
0.0597496
0.0588469
0.0579915
0.0571231
0.0563427
0.0554319
0.0547207
0.0533597
0.0523809
0.0479976
0.0430254
0.0628974
0.0628185
0.0620683
0.0613311
0.0604593
0.0595931
0.0587047
0.0578471
0.0569638
0.0561586
0.0552167
0.0544706
0.0530798
0.0520965
0.0477829
0.0430085
0.0623712
0.0623405
0.0617237
0.0610781
0.0602654
0.0594318
0.0585535
0.0576914
0.056795
0.0559708
0.0550153
0.0542656
0.0529102
0.0520252
0.0479668
0.0436031
0.0620327
0.0620174
0.0614671
0.0608664
0.060082
0.0592577
0.0583705
0.0574815
0.0565416
0.0556499
0.0546081
0.0537327
0.0522475
0.0512011
0.0472426
0.0431862
0.0618291
0.0618197
0.0612976
0.0607139
0.0599368
0.0591076
0.0582043
0.0572875
0.0563133
0.055376
0.0542969
0.0533843
0.051935
0.0510264
0.0475441
0.04452
0.0615419
0.0615344
0.0610518
0.0605049
0.0597688
0.058976
0.0581045
0.0572144
0.0562616
0.0553411
0.0542735
0.0533679
0.0519174
0.0510021
0.0474931
0.0444317
0.0615984
0.061589
0.0610649
0.0604795
0.059702
0.0588667
0.05795
0.0570055
0.055992
0.054987
0.0538339
0.0527853
0.0512555
0.0501421
0.0471038
0.0453226
0.0617938
0.0617716
0.0611679
0.0605168
0.0596755
0.0587816
0.0578073
0.0567958
0.0557057
0.0545909
0.0533129
0.0520493
0.0503327
0.0487897
0.0458341
0.0436838
0.0621986
0.062131
0.061383
0.0606255
0.0597
0.0587382
0.0577091
0.0566434
0.0555017
0.0543207
0.0529877
0.051631
0.0499037
0.0482523
0.0456369
0.0435138
0.0628345
0.0626378
0.0616781
0.0607668
0.0597438
0.0587091
0.0576258
0.0565076
0.0553156
0.0540703
0.0526801
0.0512318
0.0494757
0.0477169
0.0453024
0.0431582
0.0640163
0.063378
0.0620711
0.0609306
0.0598014
0.0586999
0.0575791
0.0564291
0.0552121
0.0539364
0.0525278
0.051045
0.0493079
0.0475249
0.0452805
0.0431574
0.0658397
0.0641523
0.062466
0.0610264
0.0598216
0.0586712
0.0575311
0.0563619
0.0551281
0.05383
0.0524068
0.0508988
0.049173
0.0473774
0.0452424
0.0431469
0.070128
0.0646654
0.0627625
0.0610604
0.0598332
0.0586713
0.0575363
0.0563784
0.0551572
0.0538702
0.0524604
0.0509626
0.049255
0.0474664
0.04536
0.043255
0.0613837
0.0613753
0.0609264
0.0604165
0.0597283
0.0589868
0.0581701
0.0573393
0.0564464
0.0555921
0.0545769
0.0537197
0.0522361
0.0511816
0.0471751
0.0430556
0.0614353
0.0614253
0.0609342
0.0603847
0.0596531
0.0588664
0.0580007
0.0571105
0.0561504
0.0552043
0.0540962
0.0530948
0.0515444
0.0503746
0.0470177
0.044715
0.061626
0.0616034
0.061032
0.0604155
0.0596181
0.0587698
0.0578422
0.0568787
0.0558338
0.0547661
0.0535197
0.0522869
0.0505403
0.0489542
0.0457624
0.0433765
0.0620265
0.0619587
0.0612428
0.0605191
0.0596359
0.0587174
0.057732
0.0567101
0.0556089
0.0544688
0.0531628
0.0518324
0.0500841
0.0484106
0.045641
0.0434002
0.0626586
0.0624618
0.0615338
0.0606557
0.0596736
0.05868
0.0576375
0.056559
0.0554027
0.0541916
0.0528228
0.0513933
0.0496189
0.0478416
0.0453181
0.0431007
0.0638378
0.0631998
0.0619244
0.0608166
0.0597277
0.0586662
0.0575845
0.0564721
0.0552886
0.0540442
0.0526557
0.0511898
0.0494402
0.0476435
0.0453222
0.0431442
0.0656594
0.063973
0.062318
0.0609107
0.0597449
0.0586337
0.0575317
0.0563981
0.0551959
0.0539266
0.0525221
0.0510287
0.0492941
0.0474869
0.0452951
0.0431548
0.0699482
0.0644882
0.0626164
0.0609466
0.0597586
0.0586351
0.0575385
0.0564176
0.0552292
0.0539724
0.0525834
0.0511025
0.0493897
0.0475924
0.045435
0.0432858
0.0612698
0.0612605
0.0608368
0.0603563
0.0597082
0.0590127
0.0582486
0.0574799
0.0566579
0.0558939
0.0549815
0.0542629
0.0529108
0.0520137
0.0478705
0.0433944
0.0613169
0.0613062
0.0608394
0.0603182
0.0596247
0.0588809
0.0580632
0.0572281
0.0563291
0.0554582
0.0544303
0.0535355
0.0520683
0.051008
0.0475177
0.0450122
0.0615032
0.0614801
0.0609323
0.0603427
0.0595814
0.0587726
0.0578881
0.0569722
0.0559773
0.0549679
0.0537772
0.0526145
0.0509041
0.0493703
0.046044
0.043554
0.0618998
0.0618316
0.061139
0.0604413
0.0595924
0.058711
0.0577651
0.0567855
0.0557268
0.0546342
0.0533702
0.0520896
0.0503596
0.0487145
0.0458453
0.043538
0.0625284
0.0623314
0.0614262
0.0605735
0.0596243
0.0586654
0.0576591
0.0566179
0.0554977
0.0543246
0.0529864
0.0515903
0.0498214
0.0480543
0.0454534
0.0431848
0.0637053
0.0630673
0.0618146
0.0607318
0.059675
0.0586469
0.0575994
0.0565215
0.0553707
0.0541591
0.0527959
0.051355
0.0496072
0.0478124
0.0454323
0.0432093
0.0655254
0.0638396
0.062207
0.0608242
0.0596893
0.0586107
0.0575417
0.0564402
0.0552679
0.0540276
0.0526445
0.0511706
0.0494358
0.0476262
0.0453886
0.043209
0.0698145
0.0643564
0.0625071
0.0608618
0.0597047
0.0586132
0.0575497
0.0564621
0.0553045
0.0540774
0.0527109
0.0512503
0.0495391
0.04774
0.0455407
0.0433514
0.0611883
0.0611779
0.0607729
0.0603147
0.0596977
0.0590375
0.0583129
0.0575873
0.0568091
0.0560902
0.0552121
0.0545151
0.0531325
0.0521351
0.0476827
0.0427154
0.0612314
0.0612198
0.0607709
0.0602713
0.0596073
0.0588967
0.0581155
0.05732
0.05646
0.0556294
0.0546305
0.0537572
0.0522639
0.051141
0.0474288
0.0446379
0.0614138
0.06139
0.0608596
0.0602905
0.0595571
0.0587793
0.0579281
0.0570473
0.0560859
0.0551101
0.0539411
0.0527942
0.0510577
0.0494797
0.0459911
0.0433464
0.061807
0.0617383
0.0610629
0.060385
0.0595626
0.0587105
0.0577955
0.0568479
0.0558194
0.0547564
0.0535112
0.052245
0.0504954
0.0488221
0.0458412
0.0434405
0.0624328
0.0622354
0.0613468
0.0605135
0.0595898
0.0586584
0.0576807
0.0566687
0.0555752
0.0544276
0.0531053
0.0517209
0.0499366
0.0481491
0.0454683
0.0431374
0.0636078
0.0629696
0.0617334
0.0606695
0.0596379
0.0586363
0.0576161
0.0565657
0.0554402
0.0542522
0.0529042
0.0514746
0.0497161
0.0479062
0.0454673
0.043196
0.0654266
0.0637409
0.0621248
0.0607606
0.0596499
0.0585971
0.0575546
0.0564792
0.0553309
0.0541126
0.052744
0.0512808
0.0495386
0.0477171
0.0454349
0.0432159
0.069716
0.0642591
0.0624262
0.0607997
0.0596667
0.0586008
0.0575644
0.0565038
0.0553711
0.0541672
0.0528169
0.0513689
0.049653
0.0478444
0.0456042
0.0433758
0.0611322
0.061121
0.0607299
0.0602891
0.0596969
0.0590661
0.0583759
0.0576904
0.0569568
0.05629
0.0554657
0.0548264
0.0534804
0.0524855
0.0478765
0.0425653
0.0611719
0.0611596
0.060724
0.060241
0.0596004
0.0589171
0.0581673
0.0574075
0.0565863
0.0557999
0.0548438
0.0540163
0.0525441
0.0514239
0.0475858
0.044601
0.0613511
0.0613267
0.0608091
0.0602555
0.0595442
0.0587915
0.0579685
0.057119
0.05619
0.05525
0.0541126
0.0529986
0.0512697
0.0496902
0.0461028
0.0433486
0.0617415
0.0616722
0.0610094
0.0603465
0.0595449
0.0587162
0.057827
0.0569073
0.0559068
0.0548736
0.053653
0.0524116
0.0506641
0.0489879
0.0459348
0.0434649
0.0623647
0.062167
0.0612905
0.0604719
0.0595679
0.0586583
0.0577043
0.056717
0.0556478
0.0545249
0.0532216
0.0518551
0.0500697
0.0482777
0.0455426
0.0431634
0.0635381
0.0628998
0.0616757
0.060626
0.0596137
0.058633
0.057635
0.0566078
0.0555043
0.0543382
0.0530065
0.0515912
0.049831
0.0480155
0.0455345
0.0432243
0.0653558
0.0636703
0.0620662
0.0607159
0.0596238
0.0585912
0.05757
0.0565162
0.0553885
0.0541899
0.0528358
0.0513845
0.0496405
0.0478133
0.045498
0.0432463
0.0696455
0.0641895
0.0623687
0.0607562
0.0596415
0.0585958
0.0575813
0.0565428
0.0554313
0.0542478
0.0529128
0.0514775
0.0497612
0.0479476
0.0456764
0.0434155
0.061095
0.0610831
0.0607017
0.0602732
0.0596985
0.0590883
0.0584213
0.0577611
0.0570531
0.056411
0.0556043
0.0549721
0.0536047
0.0525503
0.0477808
0.0422144
0.0611321
0.0611191
0.0606929
0.0602215
0.0595975
0.0589335
0.0582052
0.0574686
0.0566702
0.0559061
0.0549647
0.0541445
0.052653
0.0514904
0.0475311
0.0443964
0.0613087
0.0612839
0.0607752
0.0602327
0.059537
0.0588021
0.0579987
0.0571701
0.056261
0.0553402
0.0542147
0.0531069
0.0513609
0.0497511
0.0460746
0.0432309
0.0616969
0.0616273
0.0609733
0.060321
0.0595342
0.0587222
0.0578512
0.0569506
0.0559681
0.054952
0.0537419
0.0525066
0.0507459
0.0490487
0.0459321
0.0434041
0.0623184
0.0621203
0.0612524
0.060444
0.0595542
0.0586603
0.0577231
0.0567533
0.0557003
0.0545925
0.0532984
0.0519377
0.0501424
0.0483354
0.0455539
0.0431341
0.0634905
0.062852
0.0616363
0.0605968
0.0595983
0.0586327
0.0576509
0.0566401
0.055552
0.0544001
0.0530774
0.051668
0.0499007
0.0480739
0.0455576
0.0432151
0.0653074
0.0636219
0.0620261
0.0606858
0.0596071
0.0585891
0.0575834
0.0565454
0.0554323
0.0542472
0.052902
0.0514566
0.0497078
0.0478718
0.0455289
0.0432507
0.0695972
0.0641419
0.0623294
0.060727
0.0596254
0.0585945
0.0575961
0.0565739
0.0554776
0.0543083
0.0529833
0.0515551
0.0498354
0.0480144
0.0457176
0.0434302
0.0610727
0.0610602
0.0606853
0.0602648
0.059702
0.0591059
0.0584556
0.0578143
0.0571269
0.0565072
0.0557217
0.055108
0.0537455
0.0526736
0.0478192
0.0420841
0.0611079
0.0610945
0.0606743
0.0602107
0.0595978
0.0589469
0.0582338
0.0575143
0.0567339
0.055989
0.0550647
0.0542595
0.0527692
0.0515938
0.0475683
0.0443373
0.0612828
0.0612577
0.0607547
0.0602195
0.0595342
0.0588114
0.0580217
0.0572081
0.0563145
0.0554097
0.0542974
0.0532011
0.0514536
0.0498345
0.0461082
0.0432063
0.0616695
0.0615997
0.0609513
0.060306
0.0595289
0.0587282
0.0578698
0.0569827
0.0560136
0.0550113
0.0538118
0.0525854
0.0508225
0.049118
0.0459649
0.043399
0.0622897
0.0620914
0.0612289
0.0604274
0.0595468
0.0586634
0.0577378
0.0567801
0.0557389
0.0546427
0.0533573
0.0520036
0.0502059
0.0483931
0.0455842
0.0431376
0.063461
0.0628224
0.0616121
0.0605791
0.0595897
0.0586342
0.0576632
0.0566638
0.0555866
0.0544452
0.0531302
0.0517267
0.0499574
0.0481254
0.0455877
0.0432237
0.0652772
0.0635918
0.0620014
0.0606675
0.0595976
0.0585893
0.057594
0.0565668
0.0554638
0.0542885
0.0529502
0.0515102
0.0497597
0.0479193
0.0455592
0.043263
0.0695672
0.0641123
0.0623052
0.0607093
0.0596163
0.0585952
0.0576076
0.0565963
0.0555106
0.0543514
0.0530338
0.0516114
0.0498908
0.0480658
0.0457527
0.0434474
0.0610622
0.0610494