/*--------------------------------*- C++ -*----------------------------------*\
| =========                 |                                                 |
| \\      /  F ield         | OpenFOAM: The Open Source CFD Toolbox           |
|  \\    /   O peration     | Version:  v1912                                 |
|   \\  /    A nd           | Website:  www.openfoam.com                      |
|    \\/     M anipulation  |                                                 |
\*---------------------------------------------------------------------------*/
FoamFile
{
    version     2.0;
    format      ascii;
    class       surfaceScalarField;
    location    "0.28/fluid";
    object      phi;
}
// * * * * * * * * * * * * * * * * * * * * * * * * * * * * * * * * * * * * * //

dimensions      [0 3 -1 0 0 0 0];
oriented        oriented;


internalField   nonuniform List<scalar> 
41600
(
5.15048e-05
1.11923e-05
2.41748e-07
-4.38817e-07
4.40742e-05
7.7267e-06
1.33641e-07
-4.29792e-07
3.95179e-05
4.83249e-06
-2.07068e-07
-6.90879e-08
3.71612e-05
2.57472e-06
-6.38212e-07
4.2022e-07
3.58358e-05
1.47755e-06
-1.18808e-06
1.03593e-06
3.4956e-05
9.70487e-07
-1.87566e-06
1.78497e-06
3.42082e-05
7.81499e-07
-2.73927e-06
2.70556e-06
3.34393e-05
7.41791e-07
-3.8303e-06
3.85738e-06
3.25543e-05
7.84357e-07
-5.222e-06
5.32268e-06
3.14688e-05
8.63222e-07
-7.02807e-06
7.25029e-06
3.00823e-05
9.68086e-07
-9.40598e-06
9.82439e-06
2.82035e-05
1.02309e-06
-1.25716e-05
1.34273e-05
2.55055e-05
1.05976e-06
-1.69513e-05
1.85896e-05
2.1132e-05
7.56003e-07
-2.26192e-05
2.62366e-05
1.34969e-05
4.80732e-07
-2.99743e-05
3.71287e-05
-1.79042e-06
-2.69423e-05
4.22296e-05
6.52858e-05
8.65977e-06
2.14856e-07
-4.68107e-07
6.51522e-05
8.25469e-06
-2.04254e-08
-3.74022e-07
6.42028e-05
6.16603e-06
-5.42175e-07
1.58062e-07
6.30489e-05
4.04181e-06
-1.19397e-06
8.80804e-07
6.19629e-05
2.78777e-06
-2.0181e-06
1.79386e-06
6.09326e-05
2.13818e-06
-3.05677e-06
2.91931e-06
5.98689e-05
1.90121e-06
-4.37216e-06
4.31615e-06
5.86702e-05
1.91126e-06
-6.04583e-06
6.07513e-06
5.72351e-05
2.08864e-06
-8.19192e-06
8.3227e-06
5.54271e-05
2.37857e-06
-1.09849e-05
1.12776e-05
5.30805e-05
2.75865e-06
-1.4666e-05
1.5222e-05
4.98159e-05
3.15423e-06
-1.95739e-05
2.07073e-05
4.51137e-05
3.57017e-06
-2.63045e-05
2.84964e-05
3.73175e-05
3.70135e-06
-3.50555e-05
3.99062e-05
2.44956e-05
3.62783e-06
-4.59049e-05
5.55798e-05
1.10095e-06
-4.11315e-05
6.27357e-05
6.5786e-05
5.63532e-06
2.07318e-07
-4.68895e-07
6.74607e-05
6.99012e-06
-5.17219e-08
-3.58411e-07
6.79863e-05
6.04152e-06
-5.98481e-07
1.97425e-07
6.7748e-05
4.60829e-06
-1.27571e-06
9.47477e-07
6.717e-05
3.60201e-06
-2.1307e-06
1.89451e-06
6.64013e-05
3.0528e-06
-3.20969e-06
3.06373e-06
6.5467e-05
2.89673e-06
-4.57758e-06
4.51637e-06
6.43203e-05
3.03066e-06
-6.31986e-06
6.34715e-06
6.28803e-05
3.39621e-06
-8.55526e-06
8.68772e-06
6.10062e-05
3.95268e-06
-1.14682e-05
1.17682e-05
5.85076e-05
4.68297e-06
-1.53101e-05
1.58844e-05
5.49509e-05
5.5333e-06
-2.04482e-05
2.16258e-05
4.97313e-05
6.49683e-06
-2.74976e-05
2.97906e-05
4.10269e-05
7.29559e-06
-3.67212e-05
4.18314e-05
2.6728e-05
7.68239e-06
-4.81488e-05
5.8393e-05
4.67512e-06
-4.33369e-05
6.64908e-05
6.45599e-05
3.83722e-06
2.22726e-07
-4.84549e-07
6.63475e-05
5.61456e-06
-2.2443e-08
-3.89569e-07
6.73869e-05
5.40486e-06
-5.57398e-07
1.54679e-07
6.77126e-05
4.61214e-06
-1.22113e-06
8.91531e-07
6.7583e-05
3.96919e-06
-2.05868e-06
1.82108e-06
6.71386e-05
3.64495e-06
-3.11377e-06
2.9661e-06
6.64383e-05
3.66039e-06
-4.44841e-06
4.385e-06
6.54684e-05
3.97617e-06
-6.14566e-06
6.17002e-06
6.41682e-05
4.56779e-06
-8.32014e-06
8.44881e-06
6.24013e-05
5.42439e-06
-1.11551e-05
1.14503e-05
5.99668e-05
6.54808e-06
-1.48952e-05
1.54645e-05
5.64014e-05
7.92338e-06
-1.99188e-05
2.10941e-05
5.1049e-05
9.54886e-06
-2.68278e-05
2.91282e-05
4.20282e-05
1.11595e-05
-3.59565e-05
4.11133e-05
2.71093e-05
1.22364e-05
-4.73357e-05
5.77007e-05
8.33943e-06
-4.28493e-05
6.62942e-05
6.38647e-05
2.73364e-06
2.50585e-07
-5.11711e-07
6.54562e-05
4.43492e-06
3.53014e-08
-4.47122e-07
6.66194e-05
4.64421e-06
-4.75382e-07
7.28505e-08
6.72357e-05
4.32543e-06
-1.11459e-06
7.84981e-07
6.7415e-05
4.02806e-06
-1.92054e-06
1.68231e-06
6.72516e-05
3.95776e-06
-2.93144e-06
2.78208e-06
6.68001e-05
4.17839e-06
-4.20358e-06
4.13699e-06
6.60591e-05
4.6983e-06
-5.81415e-06
5.83306e-06
6.49811e-05
5.5259e-06
-7.86853e-06
7.98838e-06
6.34364e-05
6.68867e-06
-1.05422e-05
1.08227e-05
6.12194e-05
8.21981e-06
-1.40612e-05
1.46064e-05
5.7835e-05
1.0174e-05
-1.88069e-05
1.99406e-05
5.25566e-05
1.25964e-05
-2.53411e-05
2.75719e-05
4.33504e-05
1.53211e-05
-3.40998e-05
3.91444e-05
2.77634e-05
1.76505e-05
-4.50841e-05
5.52569e-05
1.29511e-05
-4.11475e-05
6.42992e-05
6.35262e-05
1.96802e-06
2.84229e-07
-5.44808e-07
6.49477e-05
3.42502e-06
1.06581e-07
-5.18187e-07
6.61449e-05
3.84959e-06
-3.73787e-07
-2.87867e-08
6.69397e-05
3.86068e-06
-9.83186e-07
6.5314e-07
6.73489e-05
3.85825e-06
-1.7507e-06
1.51126e-06
6.74261e-05
4.03239e-06
-2.70753e-06
2.55573e-06
6.72133e-05
4.46208e-06
-3.90297e-06
3.83212e-06
6.67121e-05
5.1877e-06
-5.40671e-06
5.41845e-06
6.58827e-05
6.24709e-06
-7.31277e-06
7.42099e-06
6.45981e-05
7.71263e-06
-9.78608e-06
1.00467e-05
6.26467e-05
9.6591e-06
-1.30292e-05
1.35413e-05
5.9498e-05
1.22485e-05
-1.74239e-05
1.84981e-05
5.43559e-05
1.5611e-05
-2.34763e-05
2.56038e-05
4.50037e-05
1.98102e-05
-3.17472e-05
3.66103e-05
2.87192e-05
2.40865e-05
-4.21787e-05
5.20272e-05
1.90136e-05
-3.90086e-05
6.16654e-05
6.33901e-05
1.33823e-06
3.2315e-07
-5.83508e-07
6.47331e-05
2.49381e-06
1.8894e-07
-6.00717e-07
6.59654e-05
3.02056e-06
-2.56347e-07
-1.46838e-07
6.68917e-05
3.26555e-06
-8.31327e-07
5.00101e-07
6.74857e-05
3.50586e-06
-1.55403e-06
1.31245e-06
6.77802e-05
3.89338e-06
-2.44693e-06
2.29144e-06
6.78136e-05
4.50572e-06
-3.55007e-06
3.47298e-06
6.75991e-05
5.4013e-06
-4.92179e-06
4.92268e-06
6.7119e-05
6.63797e-06
-6.6383e-06
6.72751e-06
6.62784e-05
8.3286e-06
-8.84208e-06
9.06678e-06
6.49065e-05
1.05866e-05
-1.16916e-05
1.21359e-05
6.25013e-05
1.37186e-05
-1.55361e-05
1.64713e-05
5.82661e-05
1.79963e-05
-2.07599e-05
2.26098e-05
4.96081e-05
2.4173e-05
-2.80246e-05
3.23198e-05
3.31374e-05
3.1852e-05
-3.70691e-05
4.57743e-05
3.12667e-05
-3.4833e-05
5.57173e-05
6.33542e-05
3.64997e-07
-6.25477e-07
7.44516e-07
6.46956e-05
2.77468e-07
-6.89858e-07
1.5648e-06
6.59894e-05
-1.30181e-07
-2.74136e-07
2.13104e-06
6.70337e-05
-6.68519e-07
3.35534e-07
2.55428e-06
6.77845e-05
-1.34364e-06
1.09935e-06
2.99933e-06
6.82679e-05
-2.16881e-06
2.00906e-06
3.56969e-06
6.85242e-05
-3.17456e-06
3.0907e-06
4.33336e-06
6.8577e-05
-4.40753e-06
4.3971e-06
5.35893e-06
6.8426e-05
-5.92655e-06
5.99658e-06
6.71889e-06
6.80021e-05
-7.8511e-06
8.04038e-06
8.56326e-06
6.7169e-05
-1.02979e-05
1.06773e-05
1.10404e-05
6.54613e-05
-1.35806e-05
1.43836e-05
1.46233e-05
6.21513e-05
-1.79643e-05
1.95564e-05
1.97141e-05
5.44794e-05
-2.42118e-05
2.79722e-05
2.80844e-05
3.90194e-05
-3.18984e-05
3.9544e-05
3.96665e-05
-3.12792e-05
5.07065e-05
5.08587e-05
5.14383e-05
1.11977e-05
1.05748e-07
4.38927e-05
7.7419e-06
-6.27296e-08
3.92154e-05
4.8499e-06
-3.79652e-07
3.67404e-05
2.59389e-06
-7.57076e-07
3.52906e-05
1.50164e-06
-1.23997e-06
3.4267e-05
1.00236e-06
-1.85437e-06
3.334e-05
8.24596e-07
-2.63688e-06
3.234e-05
8.0007e-07
-3.63033e-06
3.11512e-05
8.63858e-07
-4.89714e-06
2.96698e-05
9.71409e-07
-6.51803e-06
2.7763e-05
1.11857e-06
-8.61776e-06
2.52416e-05
1.23368e-06
-1.12839e-05
2.17295e-05
1.36706e-06
-1.48063e-05
1.66463e-05
1.22839e-06
-1.87643e-05
8.65587e-06
1.13237e-06
-2.31163e-05
-6.89969e-07
-1.75965e-05
6.51938e-05
8.67436e-06
4.44164e-08
6.49006e-05
8.28729e-06
-2.72612e-07
6.37695e-05
6.20862e-06
-7.69784e-07
6.24273e-05
4.09293e-06
-1.35078e-06
6.11396e-05
2.85219e-06
-2.08091e-06
5.98758e-05
2.22235e-06
-3.01303e-06
5.85226e-05
2.01359e-06
-4.20794e-06
5.69504e-05
2.06203e-06
-5.73561e-06
5.50237e-05
2.29184e-06
-7.69313e-06
5.25684e-05
2.65059e-06
-1.02088e-05
4.93666e-05
3.12464e-06
-1.34702e-05
4.50267e-05
3.63815e-06
-1.76384e-05
3.89714e-05
4.21732e-06
-2.30995e-05
2.99737e-05
4.53733e-06
-2.93667e-05
1.6511e-05
4.6297e-06
-3.59395e-05
2.04671e-06
-2.73572e-05
6.56925e-05
5.65741e-06
3.17449e-08
6.72027e-05
7.03814e-06
-3.12764e-07
6.75401e-05
6.10762e-06
-8.34844e-07
6.71058e-05
4.69059e-06
-1.43912e-06
6.63176e-05
3.70653e-06
-2.19683e-06
6.5306e-05
3.18947e-06
-3.16521e-06
6.40708e-05
3.0792e-06
-4.40801e-06
6.25359e-05
3.27594e-06
-5.9988e-06
6.05836e-05
3.72739e-06
-8.03855e-06
5.80328e-05
4.397e-06
-1.06638e-05
5.46365e-05
5.28002e-06
-1.40692e-05
4.99439e-05
6.31838e-06
-1.84358e-05
4.32885e-05
7.53179e-06
-2.41567e-05
3.32932e-05
8.57729e-06
-3.07659e-05
1.8287e-05
9.16654e-06
-3.76793e-05
5.65784e-06
-2.86611e-05
6.44681e-05
3.86586e-06
4.61424e-08
6.60937e-05
5.67638e-06
-2.86276e-07
6.69492e-05
5.4918e-06
-7.97024e-07
6.70846e-05
4.72233e-06
-1.38829e-06
6.67518e-05
4.11006e-06
-2.12944e-06
6.60731e-05
3.82974e-06
-3.07536e-06
6.50832e-05
3.90778e-06
-4.28704e-06
6.37391e-05
4.31024e-06
-5.83589e-06
6.19441e-05
5.02142e-06
-7.81911e-06
5.95208e-05
6.03766e-06
-1.03725e-05
5.62108e-05
7.3789e-06
-1.36841e-05
5.15298e-05
9.02589e-06
-1.79453e-05
4.47529e-05
1.10162e-05
-2.35352e-05
3.44338e-05
1.29814e-05
-3.00416e-05
1.87629e-05
1.43768e-05
-3.68751e-05
9.64192e-06
-2.80705e-05
6.37754e-05
2.76795e-06
7.30637e-08
6.52097e-05
4.5087e-06
-2.31239e-07
6.61961e-05
4.74884e-06
-7.18869e-07
6.66316e-05
4.45915e-06
-1.28691e-06
6.66198e-05
4.19971e-06
-1.99843e-06
6.62377e-05
4.18354e-06
-2.90307e-06
6.55169e-05
4.48157e-06
-4.05655e-06
6.44283e-05
5.10971e-06
-5.52508e-06
6.28906e-05
6.08828e-06
-7.39767e-06
6.07339e-05
7.45634e-06
-9.80419e-06
5.7696e-05
9.27255e-06
-1.29168e-05
5.32541e-05
1.15943e-05
-1.69335e-05
4.66017e-05
1.45277e-05
-2.22002e-05
3.61045e-05
1.77764e-05
-2.83976e-05
1.96728e-05
2.06498e-05
-3.49254e-05
1.47958e-05
-2.66287e-05
6.34398e-05
2.00694e-06
1.05468e-07
6.471e-05
3.50824e-06
-1.63189e-07
6.57392e-05
3.96795e-06
-6.22079e-07
6.63646e-05
4.01259e-06
-1.16202e-06
6.65972e-05
4.05385e-06
-1.83748e-06
6.64744e-05
4.29043e-06
-2.69159e-06
6.60167e-05
4.80984e-06
-3.77355e-06
6.52003e-05
5.66239e-06
-5.14299e-06
6.39535e-05
6.90108e-06
-6.87876e-06
6.21107e-05
8.61574e-06
-9.10271e-06
5.94051e-05
1.09158e-05
-1.19668e-05
5.52718e-05
1.39789e-05
-1.5675e-05
4.88253e-05
1.80254e-05
-2.05275e-05
3.82039e-05
2.29759e-05
-2.63253e-05
2.09668e-05
2.81467e-05
-3.24384e-05
2.16084e-05
-2.48545e-05
6.33071e-05
1.38026e-06
1.42727e-07
6.45059e-05
2.58317e-06
-8.47666e-08
6.55803e-05
3.14773e-06
-5.10501e-07
6.63506e-05
3.42904e-06
-1.01807e-06
6.67853e-05
3.71661e-06
-1.65157e-06
6.69032e-05
4.17169e-06
-2.44607e-06
6.6724e-05
4.8814e-06
-3.44237e-06
6.62391e-05
5.91578e-06
-4.69036e-06
6.54054e-05
7.3501e-06
-6.25354e-06
6.40957e-05
9.3203e-06
-8.23696e-06
6.20952e-05
1.19818e-05
-1.07572e-05
5.88659e-05
1.56768e-05
-1.40048e-05
5.35245e-05
2.07971e-05
-1.81903e-05
4.37298e-05
2.79956e-05
-2.32495e-05
2.62221e-05
3.70409e-05
-2.84557e-05
3.48466e-05
-2.18491e-05
6.32747e-05
1.82581e-07
7.87926e-07
6.44795e-05
-7.04272e-10
1.65661e-06
6.56263e-05
-3.90909e-07
2.26163e-06
6.65286e-05
-8.64014e-07
2.72227e-06
6.71385e-05
-1.45291e-06
3.21594e-06
6.74696e-05
-2.18412e-06
3.8559e-06
6.75461e-05
-3.08978e-06
4.72009e-06
6.73741e-05
-4.20965e-06
5.88998e-06
6.69328e-05
-5.59197e-06
7.45681e-06
6.61272e-05
-7.32421e-06
9.59898e-06
6.47878e-05
-9.48841e-06
1.25117e-05
6.24144e-05
-1.22594e-05
1.6729e-05
5.82112e-05
-1.57576e-05
2.27937e-05
4.95869e-05
-2.00629e-05
3.2471e-05
3.31419e-05
-2.43706e-05
4.59581e-05
-1.92387e-05
5.59479e-05
5.13843e-05
1.12029e-05
1.85954e-08
4.37416e-05
7.75577e-06
-1.75787e-07
3.89557e-05
4.86622e-06
-4.60002e-07
3.63685e-05
2.612e-06
-7.81845e-07
3.47964e-05
1.52417e-06
-1.19209e-06
3.36286e-05
1.03176e-06
-1.71827e-06
3.25198e-05
8.6368e-07
-2.39179e-06
3.12819e-05
8.51795e-07
-3.24425e-06
2.97744e-05
9.32308e-07
-4.32189e-06
2.78673e-05
1.06084e-06
-5.67181e-06
2.53914e-05
1.23589e-06
-7.37778e-06
2.21648e-05
1.38554e-06
-9.44282e-06
1.78385e-05
1.56415e-06
-1.20441e-05
1.22691e-05
1.49062e-06
-1.46856e-05
4.93104e-06
1.40073e-06
-1.7179e-05
-3.15708e-07
-1.23497e-05
6.51182e-05
8.68839e-06
-5.93141e-08
6.4689e-05
8.31809e-06
-4.05697e-07
6.3395e-05
6.24917e-06
-8.58726e-07
6.18759e-05
4.14169e-06
-1.36139e-06
6.03926e-05
2.91334e-06
-1.98681e-06
5.88989e-05
2.30176e-06
-2.78932e-06
5.72584e-05
2.11895e-06
-3.82269e-06
5.53132e-05
2.20242e-06
-5.14108e-06
5.28908e-05
2.47943e-06
-6.81788e-06
4.97783e-05
2.89877e-06
-8.93417e-06
4.57074e-05
3.45287e-06
-1.16163e-05
4.02975e-05
4.06127e-06
-1.49043e-05
3.30218e-05
4.76107e-06
-1.90207e-05
2.3291e-05
5.198e-06
-2.33434e-05
1.06406e-05
5.34827e-06
-2.72366e-05
2.58622e-06
-1.96185e-05
6.56157e-05
5.67879e-06
-7.43168e-08
6.69857e-05
7.08401e-06
-4.48715e-07
6.71544e-05
6.17078e-06
-9.25116e-07
6.65361e-05
4.76916e-06
-1.44838e-06
6.55444e-05
3.80598e-06
-2.09771e-06
6.42936e-05
3.31903e-06
-2.93175e-06
6.276e-05
3.25161e-06
-4.00702e-06
6.08374e-05
3.50701e-06
-5.38084e-06
5.83695e-05
4.03843e-06
-7.12961e-06
5.51327e-05
4.81247e-06
-9.34073e-06
5.08262e-05
5.83489e-06
-1.21447e-05
4.5006e-05
7.04061e-06
-1.55948e-05
3.70537e-05
8.46971e-06
-1.99131e-05
2.62528e-05
9.713e-06
-2.448e-05
1.2045e-05
1.04502e-05
-2.85734e-05
6.49933e-06
-2.05292e-05
6.43929e-05
3.89355e-06
-6.15269e-08
6.58808e-05
5.73554e-06
-4.25709e-07
6.65716e-05
5.57482e-06
-8.91843e-07
6.65284e-05
4.82739e-06
-1.40326e-06
6.59986e-05
4.24404e-06
-2.03773e-06
6.50889e-05
4.00509e-06
-2.85174e-06
6.38108e-05
4.14214e-06
-3.89946e-06
6.20919e-05
4.62636e-06
-5.23638e-06
5.97965e-05
5.45046e-06
-6.93571e-06
5.67039e-05
6.617e-06
-9.08446e-06
5.24996e-05
8.16268e-06
-1.18076e-05
4.66999e-05
1.00621e-05
-1.51671e-05
3.86192e-05
1.23882e-05
-1.9373e-05
2.74658e-05
1.46729e-05
-2.38481e-05
1.25427e-05
1.63641e-05
-2.78659e-05
1.09769e-05
-2.00053e-05
6.37026e-05
2.80097e-06
-3.69564e-08
6.50036e-05
4.57917e-06
-3.75906e-07
6.58322e-05
4.84855e-06
-8.21149e-07
6.6098e-05
4.58641e-06
-1.3117e-06
6.59005e-05
4.36282e-06
-1.91976e-06
6.53019e-05
4.39783e-06
-2.69723e-06
6.4312e-05
4.76919e-06
-3.69368e-06
6.28736e-05
5.50009e-06
-4.96037e-06
6.08677e-05
6.62253e-06
-6.56387e-06
5.80814e-05
8.18628e-06
-8.58716e-06
5.41951e-05
1.02751e-05
-1.11429e-05
4.86785e-05
1.29465e-05
-1.43013e-05
4.07496e-05
1.6365e-05
-1.8248e-05
2.93998e-05
2.01094e-05
-2.24842e-05
1.3606e-05
2.35175e-05
-2.6285e-05
1.68221e-05
-1.88678e-05
6.33696e-05
2.04422e-06
-7.41715e-09
6.45123e-05
3.5875e-06
-3.1421e-07
6.53919e-05
4.08048e-06
-7.33555e-07
6.58583e-05
4.1569e-06
-1.19894e-06
6.5919e-05
4.23952e-06
-1.77491e-06
6.55976e-05
4.53529e-06
-2.50763e-06
6.48944e-05
5.14e-06
-3.4411e-06
6.37591e-05
6.11358e-06
-4.62124e-06
6.2085e-05
7.52424e-06
-6.10634e-06
5.9664e-05
9.47852e-06
-7.97398e-06
5.61725e-05
1.2121e-05
-1.03212e-05
5.10288e-05
1.56425e-05
-1.32273e-05
4.33578e-05
2.03526e-05
-1.68442e-05
3.18808e-05
2.60369e-05
-2.07758e-05
1.51419e-05
3.21088e-05
-2.42907e-05
2.45923e-05
-1.74828e-05
6.32402e-05
1.42032e-06
2.6425e-08
6.43181e-05
2.66805e-06
-2.4322e-07
6.52525e-05
3.26838e-06
-6.32754e-07
6.58764e-05
3.58409e-06
-1.06922e-06
6.61558e-05
3.91647e-06
-1.60796e-06
6.60974e-05
4.43576e-06
-2.28813e-06
6.57034e-05
5.23835e-06
-3.14666e-06
6.49427e-05
6.4057e-06
-4.22182e-06
6.37424e-05
8.03093e-06
-5.5599e-06
6.19386e-05
1.02726e-05
-7.22728e-06
5.92675e-05
1.33303e-05
-9.29531e-06
5.51684e-05
1.75792e-05
-1.18424e-05
4.87574e-05
2.35337e-05
-1.49603e-05
3.81768e-05
3.17463e-05
-1.83783e-05
2.09668e-05
4.2195e-05
-2.13319e-05
3.90758e-05
-1.53658e-05
6.32113e-05
6.25098e-08
8.29117e-07
6.43023e-05
-1.67259e-07
1.74357e-06
6.53194e-05
-5.24864e-07
2.38527e-06
6.60887e-05
-9.30558e-07
2.88132e-06
6.65608e-05
-1.42968e-06
3.42116e-06
6.67391e-05
-2.054e-06
4.12733e-06
6.66331e-05
-2.8331e-06
5.08761e-06
6.62303e-05
-3.79724e-06
6.39612e-06
6.54863e-05
-4.98064e-06
8.16358e-06
6.4276e-05
-6.43779e-06
1.05966e-05
6.23914e-05
-8.21456e-06
1.3941e-05
5.93084e-05
-1.03865e-05
1.87891e-05
5.42335e-05
-1.29843e-05
2.58353e-05
4.49555e-05
-1.58701e-05
3.68315e-05
2.8725e-05
-1.8267e-05
5.23218e-05
-1.34783e-05
6.20403e-05
5.1341e-05
1.12075e-05
-2.99511e-08
4.36182e-05
7.76814e-06
-2.2111e-07
3.87402e-05
4.88099e-06
-4.62956e-07
3.60561e-05
2.62856e-06
-7.26395e-07
3.43795e-05
1.54481e-06
-1.06031e-06
3.30928e-05
1.05885e-06
-1.49039e-06
3.18432e-05
9.0005e-07
-2.04223e-06
3.04363e-05
9.00807e-07
-2.73817e-06
2.87266e-05
9.98857e-07
-3.611e-06
2.65884e-05
1.15129e-06
-4.68496e-06
2.38625e-05
1.36044e-06
-6.01234e-06
2.04155e-05
1.55852e-06
-7.55425e-06
1.59716e-05
1.80722e-06
-9.40744e-06
1.05589e-05
1.84379e-06
-1.11166e-05
3.9825e-06
1.85922e-06
-1.24618e-05
2.44153e-07
-8.61138e-06
6.50568e-05
8.70119e-06
-1.09785e-07
6.45145e-05
8.34593e-06
-4.41183e-07
6.30816e-05
6.28593e-06
-8.30708e-07
6.14093e-05
4.18594e-06
-1.24654e-06
5.97574e-05
2.9687e-06
-1.75879e-06
5.80707e-05
2.3735e-06
-2.41728e-06
5.62006e-05
2.21403e-06
-3.26659e-06
5.39779e-05
2.32918e-06
-4.34668e-06
5.12197e-05
2.64918e-06
-5.71004e-06
4.77154e-05
3.12462e-06
-7.40316e-06
4.32095e-05
3.75411e-06
-9.50407e-06
3.73936e-05
4.45655e-06
-1.19864e-05
2.98579e-05
5.28109e-06
-1.49589e-05
2.03268e-05
5.86099e-06
-1.78294e-05
8.80875e-06
6.13824e-06
-1.99976e-05
3.27865e-06
-1.38443e-05
6.55533e-05
5.69833e-06
-1.24727e-07
6.68068e-05
7.12563e-06
-4.81941e-07
6.68316e-05
6.22801e-06
-8.91979e-07
6.6054e-05
4.84025e-06
-1.32515e-06
6.48866e-05
3.89563e-06
-1.85723e-06
6.34349e-05
3.43532e-06
-2.54185e-06
6.16623e-05
3.40564e-06
-3.42604e-06
5.94505e-05
3.71241e-06
-4.55231e-06
5.66321e-05
4.31337e-06
-5.97539e-06
5.29849e-05
5.17748e-06
-7.74639e-06
4.82208e-05
6.31911e-06
-9.94558e-06
4.19694e-05
7.66775e-06
-1.25547e-05
3.37352e-05
9.28036e-06
-1.56781e-05
2.31325e-05
1.07019e-05
-1.87182e-05
1.01052e-05
1.15902e-05
-2.09981e-05
7.33727e-06
-1.44826e-05
6.4332e-05
3.91883e-06
-1.14006e-07
6.57057e-05
5.7892e-06
-4.62953e-07
6.62561e-05
5.64995e-06
-8.64255e-07
6.60582e-05
4.92221e-06
-1.28732e-06
6.53585e-05
4.36446e-06
-1.80683e-06
6.42549e-05
4.16183e-06
-2.47465e-06
6.27467e-05
4.35023e-06
-3.33588e-06
6.07496e-05
4.90474e-06
-4.4316e-06
5.8117e-05
5.82441e-06
-5.81409e-06
5.46289e-05
7.11541e-06
-7.53434e-06
4.99825e-05
8.82633e-06
-9.66837e-06
4.3765e-05
1.09232e-05
-1.2205e-05
3.54084e-05
1.35033e-05
-1.52394e-05
2.44457e-05
1.60219e-05
-1.82054e-05
1.0675e-05
1.79178e-05
-2.04228e-05
1.2063e-05
-1.4056e-05
6.36438e-05
2.83103e-06
-9.29499e-08
6.48346e-05
4.64299e-06
-4.20511e-07
6.55288e-05
4.93862e-06
-8.04036e-07
6.56478e-05
4.701e-06
-1.20943e-06
6.52902e-05
4.50902e-06
-1.70674e-06
6.45101e-05
4.58871e-06
-2.344e-06
6.33059e-05
5.02332e-06
-3.1626e-06
6.16093e-05
5.84134e-06
-4.20036e-06
5.92912e-05
7.08308e-06
-5.50448e-06
5.6139e-05
8.80394e-06
-7.12349e-06
5.18432e-05
1.11037e-05
-9.12453e-06
4.59386e-05
1.40312e-05
-1.15047e-05
3.77501e-05
1.77857e-05
-1.43419e-05
2.65759e-05
2.18436e-05
-1.71316e-05
1.18589e-05
2.55496e-05
-1.91999e-05
1.82446e-05
-1.31906e-05
6.33132e-05
2.07803e-06
-6.76461e-08
6.43507e-05
3.65913e-06
-3.67844e-07
6.51032e-05
4.18194e-06
-7.29361e-07
6.54322e-05
4.28657e-06
-1.11347e-06
6.53446e-05
4.40554e-06
-1.58381e-06
6.48566e-05
4.75271e-06
-2.18365e-06
6.39582e-05
5.43043e-06
-2.94984e-06
6.25891e-05
6.50534e-06
-3.91611e-06
6.06331e-05
8.05604e-06
-5.12332e-06
5.78822e-05
1.01975e-05
-6.61661e-06
5.40215e-05
1.3095e-05
-8.45178e-06
4.85271e-05
1.6934e-05
-1.06357e-05
4.06197e-05
2.20719e-05
-1.32229e-05
2.9305e-05
2.81722e-05
-1.57898e-05
1.35463e-05
3.46839e-05
-1.76663e-05
2.64492e-05
-1.21411e-05
6.31866e-05
1.45653e-06
-3.87156e-08
6.41652e-05
2.74461e-06
-3.0729e-07
6.4981e-05
3.37697e-06
-6.43514e-07
6.54784e-05
3.72318e-06
-1.00325e-06
6.56235e-05
4.09486e-06
-1.44237e-06
6.54167e-05
4.66972e-06
-1.99841e-06
6.48517e-05
5.55137e-06
-2.7026e-06
6.38892e-05
6.82904e-06
-3.58294e-06
6.24491e-05
8.60754e-06
-4.67139e-06
6.03688e-05
1.10567e-05
-6.00615e-06
5.73939e-05
1.44001e-05
-7.62545e-06
5.30127e-05
1.90142e-05
-9.54131e-06
4.64229e-05
2.54716e-05
-1.17702e-05
3.6006e-05
3.4201e-05
-1.39903e-05
1.96333e-05
4.52518e-05
-1.5527e-05
4.13787e-05
-1.06621e-05
6.31607e-05
-7.92951e-09
8.66234e-07
6.41588e-05
-2.42561e-07
1.82185e-06
6.50662e-05
-5.51704e-07
2.49636e-06
6.57206e-05
-8.85486e-07
3.02379e-06
6.60731e-05
-1.29137e-06
3.60405e-06
6.61222e-05
-1.80081e-06
4.36739e-06
6.58705e-05
-2.43914e-06
5.40908e-06
6.52989e-05
-3.22833e-06
6.83175e-06
6.43587e-05
-4.19131e-06
8.75842e-06
6.29268e-05
-5.35869e-06
1.14095e-05
6.08068e-05
-6.75108e-06
1.50566e-05
5.75161e-05
-8.38441e-06
2.03028e-05
5.2334e-05
-1.02366e-05
2.79061e-05
4.3243e-05
-1.20953e-05
3.95172e-05
2.77411e-05
-1.33016e-05
5.57883e-05
-9.32896e-06
6.49704e-05
5.13068e-05
1.12115e-05
-4.82453e-08
4.35197e-05
7.7785e-06
-2.12544e-07
3.8566e-05
4.89344e-06
-4.02669e-07
3.58009e-05
2.64252e-06
-6.03833e-07
3.40356e-05
1.56209e-06
-8.5707e-07
3.26474e-05
1.08129e-06
-1.18348e-06
3.12773e-05
9.29759e-07
-1.60193e-06
2.97258e-05
9.40094e-07
-2.12674e-06
2.78429e-05
1.05081e-06
-2.7789e-06
2.55065e-05
1.21949e-06
-3.56805e-06
2.25682e-05
1.45016e-06
-4.52415e-06
1.89371e-05
1.67654e-06
-5.59975e-06
1.4414e-05
1.96269e-06
-6.84701e-06
9.17171e-06
2.05545e-06
-7.9298e-06
3.25644e-06
2.11083e-06
-8.65739e-06
5.19922e-07
-5.87485e-06
6.5008e-05
8.7121e-06
-1.18357e-07
6.43745e-05
8.36957e-06
-3.98785e-07
6.28273e-05
6.31718e-06
-7.07249e-07
6.10271e-05
4.22356e-06
-1.02735e-06
5.92327e-05
3.01562e-06
-1.41799e-06
5.73825e-05
2.43401e-06
-1.91979e-06
5.53184e-05
2.29377e-06
-2.56643e-06
5.28619e-05
2.43474e-06
-3.38491e-06
4.98231e-05
2.78924e-06
-4.40966e-06
4.59946e-05
3.30875e-06
-5.66393e-06
4.11371e-05
3.99581e-06
-7.19214e-06
3.50076e-05
4.76731e-06
-8.94766e-06
2.73124e-05
5.67939e-06
-1.09804e-05
1.80282e-05
6.35231e-06
-1.28421e-05
7.49581e-06
6.70087e-06
-1.40552e-05
3.73025e-06
-9.55875e-06
6.55036e-05
5.71507e-06
-1.31275e-07
6.66632e-05
7.16114e-06
-4.33088e-07
6.65696e-05
6.27681e-06
-7.5806e-07
6.56589e-05
4.9008e-06
-1.0917e-06
6.43431e-05
3.9718e-06
-1.49765e-06
6.27211e-05
3.53382e-06
-2.01959e-06
6.07464e-05
3.53562e-06
-2.69316e-06
5.8291e-05
3.88504e-06
-3.54728e-06
5.51796e-05
4.54328e-06
-4.61795e-06
5.11926e-05
5.4808e-06
-5.93154e-06
4.60582e-05
6.71823e-06
-7.53357e-06
3.94736e-05
8.17944e-06
-9.3822e-06
3.10643e-05
9.93297e-06
-1.15224e-05
2.07123e-05
1.14856e-05
-1.34994e-05
8.71464e-06
1.24772e-05
-1.47768e-05
7.97175e-06
-1.00094e-05
6.42835e-05
3.94049e-06
-1.22973e-07
6.55652e-05
5.83505e-06
-4.18524e-07
6.60004e-05
5.71405e-06
-7.36654e-07
6.56732e-05
5.00298e-06
-1.06234e-06
6.48299e-05
4.46681e-06
-1.4585e-06
6.35618e-05
4.29471e-06
-1.96744e-06
6.18587e-05
4.52618e-06
-2.62333e-06
5.96268e-05
5.1394e-06
-3.45409e-06
5.67113e-05
6.13856e-06
-4.49394e-06
5.28947e-05
7.53242e-06
-5.76931e-06
4.78886e-05
9.37867e-06
-7.32274e-06
4.13455e-05
1.16354e-05
-9.11788e-06
3.28146e-05
1.44176e-05
-1.11931e-05
2.20928e-05
1.71186e-05
-1.31166e-05
9.32922e-06
1.91681e-05
-1.43501e-05
1.29419e-05
-9.69695e-06
6.35971e-05
2.85677e-06
-1.06362e-07
6.46993e-05
4.6975e-06
-3.85168e-07
6.52833e-05
5.01543e-06
-6.89357e-07
6.52795e-05
4.79857e-06
-1.00124e-06
6.47865e-05
4.63326e-06
-1.38018e-06
6.38522e-05
4.75058e-06
-1.86552e-06
6.24661e-05
5.23836e-06
-2.48869e-06
6.0551e-05
6.12938e-06
-3.27527e-06
5.79701e-05
7.47083e-06
-4.25589e-06
5.45124e-05
9.32234e-06
-5.45564e-06
4.98812e-05
1.17964e-05
-6.91111e-06
4.36711e-05
1.49337e-05
-8.59292e-06
3.53157e-05
1.89594e-05
-1.05284e-05
2.4365e-05
2.32676e-05
-1.233e-05
1.0596e-05
2.72049e-05
-1.34677e-05
1.94291e-05
-9.08183e-06
6.32686e-05
2.10694e-06
-8.64146e-08
6.42217e-05
3.72025e-06
-3.43732e-07
6.48701e-05
4.26838e-06
-6.30667e-07
6.50842e-05
4.3969e-06
-9.25957e-07
6.48711e-05
4.54657e-06
-1.28398e-06
6.42414e-05
4.93704e-06
-1.74043e-06
6.31771e-05
5.67617e-06
-2.32337e-06
6.16098e-05
6.83612e-06
-3.05545e-06
5.9416e-05
8.50406e-06
-3.96283e-06
5.63889e-05
1.08016e-05
-5.06866e-06
5.22247e-05
1.39107e-05
-6.40188e-06
4.64531e-05
1.80111e-05
-7.94148e-06
3.8393e-05
2.34962e-05
-9.6997e-06
2.72853e-05
2.99327e-05
-1.13471e-05
1.2396e-05
3.67901e-05
-1.23622e-05
2.80178e-05
-8.33376e-06
6.31444e-05
1.48743e-06
-6.36314e-08
6.40436e-05
2.80985e-06
-2.96106e-07
6.47623e-05
3.4694e-06
-5.63242e-07
6.51541e-05
3.84144e-06
-8.39566e-07
6.51854e-05
4.24633e-06
-1.17344e-06
6.48522e-05
4.86805e-06
-1.59623e-06
6.41414e-05
5.81628e-06
-2.13183e-06
6.30068e-05
7.18667e-06
-2.79894e-06
6.13632e-05
9.09384e-06
-3.61762e-06
5.90492e-05
1.17165e-05
-4.60702e-06
5.58211e-05
1.52981e-05
-5.78479e-06
5.12127e-05
2.02146e-05
-7.13633e-06
4.45064e-05
2.7083e-05
-8.65064e-06
3.42865e-05
3.62333e-05
-1.00709e-05
1.86692e-05
4.7764e-05
-1.08836e-05
4.3358e-05
-7.33308e-06
6.31211e-05
-3.94202e-08
8.97847e-07
6.40451e-05
-2.45233e-07
1.88848e-06
6.48632e-05
-4.91171e-07
2.59084e-06
6.54216e-05
-7.47302e-07
3.14484e-06
6.56727e-05
-1.05546e-06
3.75925e-06
6.56116e-05
-1.44238e-06
4.5708e-06
6.52352e-05
-1.92763e-06
5.68108e-06
6.45196e-05
-2.52569e-06
7.19973e-06
6.34124e-05
-3.25038e-06
9.2601e-06
6.17928e-05
-4.11633e-06
1.20937e-05
5.94762e-05
-5.12973e-06
1.59933e-05
5.60185e-05
-6.28149e-06
2.15693e-05
5.07733e-05
-7.53726e-06
2.96288e-05
4.18884e-05
-8.71799e-06
4.1741e-05
2.70471e-05
-9.33552e-06
5.86391e-05
-6.41913e-06
6.74952e-05
5.12815e-05
1.12146e-05
-4.4299e-08
4.34464e-05
7.78662e-06
-1.64062e-07
3.84355e-05
4.90319e-06
-2.9493e-07
3.56091e-05
2.65355e-06
-4.30979e-07
3.37774e-05
1.57577e-06
-6.01164e-07
3.23154e-05
1.09914e-06
-8.20593e-07
3.08615e-05
9.53561e-07
-1.10165e-06
2.92155e-05
9.71943e-07
-1.4527e-06
2.72291e-05
1.0936e-06
-1.88611e-06
2.47884e-05
1.27696e-06
-2.40427e-06
2.17592e-05
1.52778e-06
-3.02272e-06
1.80795e-05
1.78157e-06
-3.70169e-06
1.3594e-05
2.1047e-06
-4.46619e-06
8.51257e-06
2.24847e-06
-5.09681e-06
2.96713e-06
2.34717e-06
-5.45911e-06
7.55257e-07
-3.66296e-06
6.49716e-05
8.7207e-06
-9.60638e-08
6.42695e-05
8.38815e-06
-2.98292e-07
6.26356e-05
6.34172e-06
-5.11879e-07
6.07381e-05
4.25314e-06
-7.29413e-07
5.88364e-05
3.05244e-06
-9.92961e-07
5.68655e-05
2.48146e-06
-1.3312e-06
5.4663e-05
2.35621e-06
-1.7666e-06
5.20484e-05
2.51737e-06
-2.31571e-06
4.88325e-05
2.89887e-06
-2.99903e-06
4.48189e-05
3.45306e-06
-3.82638e-06
3.97893e-05
4.1856e-06
-4.82042e-06
3.35486e-05
5.01229e-06
-5.93767e-06
2.58748e-05
5.99452e-06
-7.19639e-06
1.68381e-05
6.74228e-06
-8.29918e-06
6.90033e-06
7.15184e-06
-8.92218e-06
4.0903e-06
-5.99345e-06
6.54666e-05
5.72826e-06
-1.05397e-07
6.65555e-05
7.18908e-06
-3.2291e-07
6.63721e-05
6.31515e-06
-5.4814e-07
6.53601e-05
4.94833e-06
-7.7493e-07
6.39324e-05
4.03144e-06
-1.04893e-06
6.21845e-05
3.61069e-06
-1.40086e-06
6.00654e-05
3.63669e-06
-1.85461e-06
5.74448e-05
4.01868e-06
-2.42797e-06
5.41478e-05
4.72035e-06
-3.14245e-06
4.9966e-05
5.7131e-06
-4.00978e-06
4.46493e-05
7.02185e-06
-5.05305e-06
3.79445e-05
8.56619e-06
-6.23134e-06
2.95529e-05
1.04226e-05
-7.55891e-06
1.94577e-05
1.20709e-05
-8.73276e-06
8.08501e-06
1.31376e-05
-9.38992e-06
8.44707e-06
-6.28116e-06
6.42475e-05
3.95758e-06
-9.97942e-08
6.546e-05
5.87112e-06
-3.13056e-07
6.58077e-05
5.7644e-06
-5.33596e-07
6.53823e-05
5.0663e-06
-7.5489e-07
6.44306e-05
4.5468e-06
-1.0222e-06
6.3041e-05
4.39813e-06
-1.36527e-06
6.1199e-05
4.6624e-06
-1.80704e-06
5.88083e-05
5.31989e-06
-2.36465e-06
5.5715e-05
6.37826e-06
-3.05846e-06
5.17116e-05
7.84746e-06
-3.90033e-06
4.65312e-05
9.79105e-06
-4.9115e-06
3.9874e-05
1.21602e-05
-6.0547e-06
3.13623e-05
1.50813e-05
-7.34004e-06
2.0891e-05
1.79049e-05
-8.47926e-06
8.73474e-06
2.00524e-05
-9.10861e-06
1.35616e-05
-6.07674e-06
6.35625e-05
2.87704e-06
-8.83123e-08
6.45982e-05
4.74035e-06
-2.90074e-07
6.50985e-05
5.07572e-06
-5.01044e-07
6.50015e-05
4.87497e-06
-7.12882e-07
6.44063e-05
4.73021e-06
-9.68458e-07
6.33582e-05
4.87628e-06
-1.29549e-06
6.18427e-05
5.40429e-06
-1.71513e-06
5.97805e-05
6.34986e-06
-2.243e-06
5.70355e-05
7.76457e-06
-2.89724e-06
5.34064e-05
9.70995e-06
-3.68902e-06
4.86162e-05
1.23061e-05
-4.63601e-06
4.2304e-05
1.55855e-05
-5.70591e-06
3.39707e-05
1.97886e-05
-6.90239e-06
2.32575e-05
2.42535e-05
-7.96546e-06
1.00566e-05
2.8324e-05
-8.53834e-06
2.02197e-05
-5.6833e-06
6.32355e-05
2.12968e-06
-7.45621e-08
6.41254e-05
3.76826e-06
-2.61533e-07
6.46949e-05
4.33618e-06
-4.60631e-07
6.48218e-05
4.4832e-06
-6.61101e-07
6.4514e-05
4.65645e-06
-9.02409e-07
6.37798e-05
5.07989e-06
-1.20981e-06
6.25977e-05
5.86525e-06
-1.60221e-06
6.08973e-05
7.0882e-06
-2.09337e-06
5.85563e-05
8.84126e-06
-2.6986e-06
5.53767e-05
1.1249e-05
-3.42805e-06
5.10729e-05
1.45028e-05
-4.29478e-06
4.52148e-05
1.87745e-05
-5.27245e-06
3.71822e-05
2.44774e-05
-6.35594e-06
2.62984e-05
3.11124e-05
-7.32217e-06
1.19275e-05
3.81554e-05
-7.82272e-06
2.90153e-05
-5.20199e-06
6.31132e-05
1.51171e-06
-5.88506e-08
6.3953e-05
2.86106e-06
-2.28721e-07
6.45983e-05
3.54184e-06
-4.14221e-07
6.49098e-05
3.93388e-06
-6.01731e-07
6.48552e-05
4.36423e-06
-8.26609e-07
6.44285e-05
5.02154e-06
-1.1112e-06
6.36139e-05
6.0197e-06
-1.47169e-06
6.23642e-05
7.4584e-06
-1.91937e-06
6.05954e-05
9.45819e-06
-2.46578e-06
5.81545e-05
1.22018e-05
-3.11899e-06
5.48147e-05
1.59433e-05
-3.88551e-06
5.01444e-05
2.10528e-05
-4.74432e-06
4.34786e-05
2.81699e-05
-5.67742e-06
3.34706e-05
3.75571e-05
-6.50762e-06
1.83076e-05
4.93312e-05
-6.89633e-06
4.45738e-05
-4.58403e-06
6.30918e-05
-4.21727e-08
9.22646e-07
6.39606e-05
-1.93688e-07
1.94073e-06
6.47111e-05
-3.64629e-07
2.66482e-06
6.51966e-05
-5.38331e-07
3.23937e-06
6.53711e-05
-7.45693e-07
3.87996e-06
6.52282e-05
-1.00596e-06
4.72806e-06
6.47631e-05
-1.33245e-06
5.88963e-06
6.39509e-05
-1.73382e-06
7.47865e-06
6.27418e-05
-2.21769e-06
9.63461e-06
6.1023e-05
-2.78972e-06
1.2594e-05
5.86256e-05
-3.44964e-06
1.66607e-05
5.51359e-05
-4.18123e-06
2.24423e-05
4.99529e-05
-4.95363e-06
3.07693e-05
4.12782e-05
-5.63871e-06
4.31526e-05
2.68368e-05
-5.92011e-06
6.03572e-05