/*--------------------------------*- C++ -*----------------------------------*\
| =========                 |                                                 |
| \\      /  F ield         | OpenFOAM: The Open Source CFD Toolbox           |
|  \\    /   O peration     | Version:  v1912                                 |
|   \\  /    A nd           | Website:  www.openfoam.com                      |
|    \\/     M anipulation  |                                                 |
\*---------------------------------------------------------------------------*/
FoamFile
{
    version     2.0;
    format      ascii;
    class       pointVectorField;
    location    "0.28/fluid";
    object      pointMotionU;
}
// * * * * * * * * * * * * * * * * * * * * * * * * * * * * * * * * * * * * * //

dimensions      [0 1 -1 0 0 0 0];


internalField   nonuniform List<vector> 
16859
(
(0 0 0)
(0 0 0)
(0 0 0)
(0 0 0)
(0 0 0)
(0 0 0)
(0 0 0)
(0 0 0)
(0 0 0)
(0 0 0)
(0 0 0)
(0 0 0)
(0 0 0)
(0 0 0)
(0 0 0)
(0 0 0)
(3.24923e-08 5.75302e-08 3.01141e-08)
(0 0 0)
(7.5836e-10 -2.01198e-09 1.54879e-09)
(1.44166e-09 -3.85399e-09 3.01556e-09)
(2.07154e-09 -5.60257e-09 4.50358e-09)
(2.66715e-09 -7.31386e-09 6.10311e-09)
(3.24645e-09 -9.02087e-09 7.89548e-09)
(3.82795e-09 -1.07329e-08 9.95714e-09)
(4.43332e-09 -1.24301e-08 1.23608e-08)
(5.09261e-09 -1.4051e-08 1.51746e-08)
(5.85628e-09 -1.54675e-08 1.8462e-08)
(6.82264e-09 -1.64427e-08 2.22847e-08)
(8.19651e-09 -1.65457e-08 2.67141e-08)
(1.04343e-08 -1.49647e-08 3.18842e-08)
(1.45271e-08 -1.01237e-08 3.81611e-08)
(2.24279e-08 9.71662e-10 4.64992e-08)
(3.55996e-08 2.07252e-08 5.75291e-08)
(6.40066e-08 6.40277e-08 7.26403e-08)
(0 0 0)
(1.50405e-09 -3.9655e-09 3.05924e-09)
(2.8592e-09 -7.59884e-09 5.95617e-09)
(4.10854e-09 -1.10511e-08 8.89321e-09)
(5.29022e-09 -1.44334e-08 1.20466e-08)
(6.43999e-09 -1.78166e-08 1.55766e-08)
(7.59455e-09 -2.1228e-08 1.96347e-08)
(8.79555e-09 -2.46419e-08 2.43636e-08)
(1.00974e-08 -2.79586e-08 2.98964e-08)
(1.15844e-08 -3.09685e-08 3.63531e-08)
(1.34053e-08 -3.32937e-08 4.38347e-08)
(1.58433e-08 -3.42917e-08 5.24135e-08)
(1.9474e-08 -3.29082e-08 6.21444e-08)
(2.53774e-08 -2.7575e-08 7.31261e-08)
(3.52155e-08 -1.65181e-08 8.55236e-08)
(4.89557e-08 -9.77397e-10 9.81243e-08)
(8.04959e-08 2.00211e-08 1.19657e-07)
(0 0 0)
(2.2253e-09 -5.80008e-09 4.49494e-09)
(4.23047e-09 -1.11195e-08 8.74999e-09)
(6.07956e-09 -1.61819e-08 1.30597e-08)
(7.82931e-09 -2.11549e-08 1.76801e-08)
(9.53352e-09 -2.61533e-08 2.28462e-08)
(1.12469e-08 -3.12351e-08 2.87798e-08)
(1.30301e-08 -3.63903e-08 3.56912e-08)
(1.4957e-08 -4.15192e-08 4.37766e-08)
(1.713e-08 -4.63969e-08 5.32121e-08)
(1.97015e-08 -5.06195e-08 6.41319e-08)
(2.29277e-08 -5.35253e-08 7.6592e-08)
(2.72617e-08 -5.41262e-08 9.05202e-08)
(3.34486e-08 -5.11986e-08 1.05665e-07)
(4.2514e-08 -4.38645e-08 1.21504e-07)
(5.40739e-08 -3.39169e-08 1.36004e-07)
(7.98265e-08 -1.99949e-08 1.56849e-07)
(0 0 0)
(2.91024e-09 -7.45414e-09 5.82247e-09)
(5.53268e-09 -1.42981e-08 1.13305e-08)
(7.95129e-09 -2.08253e-08 1.69011e-08)
(1.0241e-08 -2.72609e-08 2.28621e-08)
(1.24736e-08 -3.37693e-08 2.95151e-08)
(1.47223e-08 -4.04516e-08 3.71462e-08)
(1.70675e-08 -4.73359e-08 4.60281e-08)
(1.96032e-08 -5.43612e-08 5.64195e-08)
(2.2447e-08 -6.13495e-08 6.85566e-08)
(2.57466e-08 -6.79624e-08 8.26236e-08)
(2.97025e-08 -7.36323e-08 9.8696e-08)
(3.45822e-08 -7.75009e-08 1.16642e-07)
(4.07023e-08 -7.84412e-08 1.35956e-07)
(4.83796e-08 -7.53696e-08 1.55487e-07)
(5.70101e-08 -6.88676e-08 1.72131e-07)
(7.74918e-08 -5.57484e-08 1.92624e-07)
(0 0 0)
(3.54721e-09 -8.86792e-09 7.01378e-09)
(6.74319e-09 -1.70193e-08 1.36417e-08)
(9.69018e-09 -2.48131e-08 2.03311e-08)
(1.24802e-08 -3.25307e-08 2.74709e-08)
(1.52023e-08 -4.0389e-08 3.54193e-08)
(1.79486e-08 -4.85401e-08 4.45167e-08)
(2.08212e-08 -5.70674e-08 5.50903e-08)
(2.39401e-08 -6.59778e-08 6.74569e-08)
(2.745e-08 -7.51884e-08 8.1918e-08)
(3.15256e-08 -8.44961e-08 9.87353e-08)
(3.63723e-08 -9.35221e-08 1.18076e-07)
(4.22018e-08 -1.01615e-07 1.39905e-07)
(4.91224e-08 -1.07686e-07 1.63743e-07)
(5.69548e-08 -1.09996e-07 1.88165e-07)
(6.45226e-08 -1.06978e-07 2.08847e-07)
(8.16454e-08 -9.2148e-08 2.31137e-07)
(0 0 0)
(4.12501e-09 -9.98479e-09 8.04643e-09)
(7.84018e-09 -1.91743e-08 1.56393e-08)
(1.12634e-08 -2.79852e-08 2.32822e-08)
(1.45014e-08 -3.67503e-08 3.14119e-08)
(1.76587e-08 -4.57363e-08 4.043e-08)
(2.0845e-08 -5.51482e-08 5.07178e-08)
(2.41843e-08 -6.5131e-08 6.26437e-08)
(2.78268e-08 -7.5774e-08 7.65714e-08)
(3.19602e-08 -8.71135e-08 9.28625e-08)
(3.68259e-08 -9.91282e-08 1.11868e-07)
(4.27394e-08 -1.11719e-07 1.33908e-07)
(5.00957e-08 -1.24648e-07 1.59211e-07)
(5.92854e-08 -1.37329e-07 1.87725e-07)
(7.04137e-08 -1.48291e-07 2.18519e-07)
(8.17213e-08 -1.54294e-07 2.46556e-07)
(1.00763e-07 -1.39931e-07 2.7595e-07)
(0 0 0)
(4.63367e-09 -1.07546e-08 8.90519e-09)
(8.80424e-09 -2.06666e-08 1.7294e-08)
(1.26415e-08 -3.01984e-08 2.57101e-08)
(1.62633e-08 -3.97249e-08 3.46233e-08)
(1.97855e-08 -4.95548e-08 4.44629e-08)
(2.3331e-08 -5.99391e-08 5.5634e-08)
(2.70412e-08 -7.10791e-08 6.85273e-08)
(3.10916e-08 -8.31395e-08 8.35314e-08)
(3.57112e-08 -9.62668e-08 1.01043e-07)
(4.12153e-08 -1.10612e-07 1.21475e-07)
(4.80652e-08 -1.26365e-07 1.45278e-07)
(5.69593e-08 -1.43803e-07 1.72969e-07)
(6.8933e-08 -1.63319e-07 2.05125e-07)
(8.53548e-08 -1.85234e-07 2.42077e-07)
(1.05246e-07 -2.07162e-07 2.79636e-07)
(1.44334e-07 -2.3347e-07 3.30927e-07)
(0 0 0)
(5.06555e-09 -1.1137e-08 9.58339e-09)
(9.62089e-09 -2.14189e-08 1.8594e-08)
(1.38029e-08 -3.13377e-08 2.75987e-08)
(1.77354e-08 -4.12964e-08 3.7084e-08)
(2.15398e-08 -5.16327e-08 4.74903e-08)
(2.53449e-08 -6.26308e-08 5.92276e-08)
(2.92987e-08 -7.45319e-08 7.26857e-08)
(3.35857e-08 -8.75514e-08 8.82472e-08)
(3.84487e-08 -1.01902e-07 1.06299e-07)
(4.42265e-08 -1.17828e-07 1.27244e-07)
(5.14219e-08 -1.35652e-07 1.51535e-07)
(6.08012e-08 -1.55868e-07 1.79724e-07)
(7.3511e-08 -1.79244e-07 2.1251e-07)
(9.10655e-08 -2.06841e-07 2.50648e-07)
(1.11947e-07 -2.36119e-07 2.89867e-07)
(1.74114e-07 -2.9851e-07 3.65405e-07)
(0 0 0)
(0 0 0)
(0 0 0)
(0 0 0)
(0 0 0)
(0 0 0)
(0 0 0)
(0 0 0)
(0 0 0)
(0 0 0)
(0 0 0)
(0 0 0)
(0 0 0)
(0 0 0)
(0 0 0)
(0 0 0)
(1.12127e-08 2.73179e-08 1.42084e-08)
(0 0 0)
(7.42139e-10 -2.05377e-09 1.50136e-09)
(1.408e-09 -3.93394e-09 2.92104e-09)
(2.01627e-09 -5.7194e-09 4.35772e-09)
(2.58263e-09 -7.46916e-09 5.89777e-09)
(3.1204e-09 -9.21898e-09 7.61844e-09)
(3.64139e-09 -1.09804e-08 9.59088e-09)
(4.15691e-09 -1.27372e-08 1.1881e-08)
(4.68058e-09 -1.44343e-08 1.45476e-08)
(5.23584e-09 -1.59564e-08 1.76399e-08)
(5.87586e-09 -1.70916e-08 2.11936e-08)
(6.72957e-09 -1.74613e-08 2.52295e-08)
(8.1102e-09 -1.63705e-08 2.97691e-08)
(1.07168e-08 -1.25005e-08 3.49027e-08)
(1.58569e-08 -3.48993e-09 4.08942e-08)
(2.43757e-08 1.24251e-08 4.7542e-08)
(3.25438e-08 3.39212e-08 5.11894e-08)
(0 0 0)
(1.47295e-09 -4.0469e-09 2.96495e-09)
(2.79479e-09 -7.75463e-09 5.76844e-09)
(4.00299e-09 -1.12795e-08 8.60433e-09)
(5.12922e-09 -1.47378e-08 1.1641e-08)
(6.20068e-09 -1.8205e-08 1.50305e-08)
(7.24156e-09 -2.17124e-08 1.89135e-08)
(8.27455e-09 -2.52404e-08 2.342e-08)
(9.32417e-09 -2.87005e-08 2.86656e-08)
(1.04265e-08 -3.19037e-08 3.47443e-08)
(1.16525e-08 -3.45125e-08 4.17133e-08)
(1.31615e-08 -3.59692e-08 4.95687e-08)
(1.53216e-08 -3.53949e-08 5.82116e-08)
(1.88784e-08 -3.15662e-08 6.74263e-08)
(2.50091e-08 -2.33674e-08 7.68024e-08)
(3.3925e-08 -1.22048e-08 8.5142e-08)
(4.31554e-08 -6.79827e-09 9.28498e-08)
(0 0 0)
(2.18197e-09 -5.91778e-09 4.3558e-09)
(4.14083e-09 -1.13453e-08 8.4734e-09)
(5.93304e-09 -1.65137e-08 1.26351e-08)
(7.60672e-09 -2.15976e-08 1.70854e-08)
(9.20417e-09 -2.67174e-08 2.20466e-08)
(1.07637e-08 -3.19363e-08 2.77253e-08)
(1.23211e-08 -3.72516e-08 3.43134e-08)
(1.39118e-08 -4.25759e-08 4.19834e-08)
(1.55765e-08 -4.77066e-08 5.08762e-08)
(1.73714e-08 -5.22833e-08 6.10751e-08)
(1.94011e-08 -5.5735e-08 7.25514e-08)
(2.1882e-08 -5.72534e-08 8.5082e-08)
(2.52274e-08 -5.59531e-08 9.81477e-08)
(3.00977e-08 -5.15446e-08 1.10795e-07)
(3.65875e-08 -4.59277e-08 1.21253e-07)
(4.18031e-08 -4.42364e-08 1.28973e-07)
(0 0 0)
(2.8582e-09 -7.60403e-09 5.64189e-09)
(5.42521e-09 -1.4586e-08 1.09722e-08)
(7.77621e-09 -2.12491e-08 1.63521e-08)
(9.97634e-09 -2.78263e-08 2.20945e-08)
(1.20844e-08 -3.44882e-08 2.84844e-08)
(1.41555e-08 -4.13415e-08 3.57887e-08)
(1.62427e-08 -4.84212e-08 4.42573e-08)
(1.83983e-08 -5.56767e-08 5.41195e-08)
(2.06733e-08 -6.29479e-08 6.55707e-08)
(2.31123e-08 -6.99315e-08 7.87396e-08)
(2.57501e-08 -7.61311e-08 9.36145e-08)
(2.85957e-08 -8.08251e-08 1.09925e-07)
(3.16021e-08 -8.31424e-08 1.26943e-07)
(3.47078e-08 -8.24525e-08 1.43173e-07)
(3.78256e-08 -7.95043e-08 1.55884e-07)
(3.93673e-08 -7.83496e-08 1.63686e-07)
(0 0 0)
(3.49041e-09 -9.04506e-09 6.79629e-09)
(6.62609e-09 -1.736e-08 1.32107e-08)
(9.50017e-09 -2.53145e-08 1.96719e-08)
(1.21946e-08 -3.31989e-08 2.65506e-08)
(1.47857e-08 -4.12365e-08 3.41853e-08)
(1.73476e-08 -4.95847e-08 4.2894e-08)
(1.99563e-08 -5.83322e-08 5.29774e-08)
(2.26918e-08 -6.74924e-08 6.47182e-08)
(2.56363e-08 -7.69922e-08 7.83725e-08)
(2.88653e-08 -8.66478e-08 9.41391e-08)
(3.24223e-08 -9.61167e-08 1.12092e-07)
(3.62506e-08 -1.04813e-07 1.32053e-07)
(4.00421e-08 -1.11762e-07 1.53326e-07)
(4.3091e-08 -1.15432e-07 1.7416e-07)
(4.45275e-08 -1.14417e-07 1.9077e-07)
(4.26975e-08 -1.11955e-07 2.00445e-07)
(0 0 0)
(4.0673e-09 -1.01833e-08 7.79734e-09)
(7.72145e-09 -1.95561e-08 1.51462e-08)
(1.10716e-08 -2.8547e-08 2.25291e-08)
(1.42152e-08 -3.74981e-08 3.03622e-08)
(1.7245e-08 -4.66826e-08 3.9025e-08)
(2.0255e-08 -5.63101e-08 4.88739e-08)
(2.3347e-08 -6.65288e-08 6.0248e-08)
(2.66373e-08 -7.74298e-08 7.34731e-08)
(3.02624e-08 -8.90508e-08 8.88607e-08)
(3.4382e-08 -1.01373e-07 1.06691e-07)
(3.91762e-08 -1.14301e-07 1.27172e-07)
(4.48068e-08 -1.27595e-07 1.50358e-07)
(5.12738e-08 -1.40655e-07 1.75915e-07)
(5.80757e-08 -1.51936e-07 2.02452e-07)
(6.34857e-08 -1.58254e-07 2.25542e-07)
(5.96049e-08 -1.5222e-07 2.41128e-07)
(0 0 0)
(4.57842e-09 -1.09675e-08 8.63008e-09)
(8.69078e-09 -2.10764e-08 1.67501e-08)
(1.24591e-08 -3.08014e-08 2.48808e-08)
(1.59931e-08 -4.05267e-08 3.34695e-08)
(1.9399e-08 -5.05676e-08 4.29221e-08)
(2.27873e-08 -6.11789e-08 5.36173e-08)
(2.62823e-08 -7.2563e-08 6.59148e-08)
(3.00345e-08 -8.48824e-08 8.01629e-08)
(3.42367e-08 -9.82776e-08 9.67044e-08)
(3.9149e-08 -1.1289e-07 1.15874e-07)
(4.51435e-08 -1.2889e-07 1.37994e-07)
(5.27728e-08 -1.46521e-07 1.63363e-07)
(6.28522e-08 -1.66119e-07 1.92163e-07)
(7.64356e-08 -1.87852e-07 2.23967e-07)
(9.29848e-08 -2.09653e-07 2.54932e-07)
(1.05576e-07 -2.29162e-07 2.80142e-07)
(0 0 0)
(5.01533e-09 -1.13568e-08 9.28801e-09)
(9.51794e-09 -2.18421e-08 1.80108e-08)
(1.36381e-08 -3.19607e-08 2.67113e-08)
(1.74933e-08 -4.21247e-08 3.58525e-08)
(2.11974e-08 -5.26781e-08 4.58504e-08)
(2.48703e-08 -6.39083e-08 5.70887e-08)
(2.86482e-08 -7.60557e-08 6.99258e-08)
(3.26998e-08 -8.93304e-08 8.47042e-08)
(3.72462e-08 -1.03935e-07 1.01757e-07)
(4.25957e-08 -1.20092e-07 1.2141e-07)
(4.92052e-08 -1.38094e-07 1.43981e-07)
(5.77756e-08 -1.58373e-07 1.69799e-07)
(6.93809e-08 -1.81595e-07 1.99147e-07)
(8.54848e-08 -2.08561e-07 2.31942e-07)
(1.05221e-07 -2.36935e-07 2.64119e-07)
(1.44325e-07 -2.79908e-07 3.0234e-07)
(0 0 0)
(0 0 0)
(0 0 0)
(0 0 0)
(0 0 0)
(0 0 0)
(0 0 0)
(0 0 0)
(0 0 0)
(0 0 0)
(0 0 0)
(0 0 0)
(0 0 0)
(0 0 0)
(0 0 0)
(0 0 0)
(-3.52154e-09 8.27303e-09 2.88187e-09)
(0 0 0)
(7.21769e-10 -2.09029e-09 1.3984e-09)
(1.366e-09 -4.00424e-09 2.71933e-09)
(1.94765e-09 -5.8224e-09 4.05332e-09)
(2.47792e-09 -7.60556e-09 5.4791e-09)
(2.96421e-09 -9.39232e-09 7.06659e-09)
(3.40959e-09 -1.11977e-08 8.87841e-09)
(3.81177e-09 -1.30112e-08 1.097e-08)
(4.16204e-09 -1.47892e-08 1.33866e-08)
(4.44548e-09 -1.64406e-08 1.61561e-08)
(4.64481e-09 -1.78056e-08 1.92768e-08)
(4.75251e-09 -1.86239e-08 2.26916e-08)
(4.78872e-09 -1.84792e-08 2.62416e-08)
(4.78836e-09 -1.67324e-08 2.95747e-08)
(4.62557e-09 -1.25971e-08 3.19333e-08)
(3.59879e-09 -6.31214e-09 3.19372e-08)
(-2.76483e-09 -5.44588e-10 2.15868e-08)
(0 0 0)
(1.43381e-09 -4.11794e-09 2.76142e-09)
(2.71418e-09 -7.89101e-09 5.36955e-09)
(3.8715e-09 -1.14791e-08 8.00246e-09)
(4.92903e-09 -1.50026e-08 1.08142e-08)
(5.90291e-09 -1.85412e-08 1.39418e-08)
(6.80111e-09 -2.21319e-08 1.75091e-08)
(7.62134e-09 -2.57644e-08 2.16259e-08)
(8.34794e-09 -2.93689e-08 2.63817e-08)
(8.94921e-09 -3.27948e-08 3.18323e-08)
(9.3779e-09 -3.57849e-08 3.79712e-08)
(9.57992e-09 -3.79506e-08 4.46739e-08)
(9.51072e-09 -3.87717e-08 5.15969e-08)
(9.12619e-09 -3.77326e-08 5.80006e-08)
(8.26217e-09 -3.48605e-08 6.24696e-08)
(6.47443e-09 -3.1871e-08 6.31083e-08)
(8.76027e-10 -3.47014e-08 5.49378e-08)
(0 0 0)
(2.12707e-09 -6.02025e-09 4.05677e-09)
(4.02794e-09 -1.15417e-08 7.88733e-09)
(5.74924e-09 -1.68011e-08 1.17513e-08)
(7.32783e-09 -2.19784e-08 1.58724e-08)
(8.79106e-09 -2.71989e-08 2.04507e-08)
(1.01557e-08 -3.25318e-08 2.56682e-08)
(1.14247e-08 -3.79845e-08 3.16879e-08)
(1.25819e-08 -4.3489e-08 3.86454e-08)
(1.35824e-08 -4.8882e-08 4.663e-08)
(1.4341e-08 -5.38836e-08 5.56439e-08)
(1.47176e-08 -5.80875e-08 6.55227e-08)
(1.44959e-08 -6.10115e-08 7.57989e-08)
(1.33528e-08 -6.23465e-08 8.54872e-08)
(1.08572e-08 -6.25656e-08 9.28331e-08)
(6.86396e-09 -6.33961e-08 9.56806e-08)
(-1.77077e-09 -6.77557e-08 8.91512e-08)
(0 0 0)
(2.79156e-09 -7.734e-09 5.25486e-09)
(5.28836e-09 -1.48349e-08 1.02138e-08)
(7.55405e-09 -2.16127e-08 1.52094e-08)
(9.64068e-09 -2.83066e-08 2.05273e-08)
(1.15899e-08 -3.50919e-08 2.64243e-08)
(1.34323e-08 -4.20799e-08 3.31358e-08)
(1.51848e-08 -4.93132e-08 4.08751e-08)
(1.68426e-08 -5.6755e-08 4.98247e-08)
(1.83646e-08 -6.42739e-08 6.0116e-08)
(1.96463e-08 -7.16253e-08 7.17817e-08)
(2.04706e-08 -7.84364e-08 8.4663e-08)
(2.04191e-08 -8.42317e-08 9.82479e-08)
(1.87565e-08 -8.85955e-08 1.11406e-07)
(1.44757e-08 -9.15881e-08 1.22056e-07)
(7.44592e-09 -9.41167e-08 1.2742e-07)
(-4.6268e-09 -9.89709e-08 1.22115e-07)
(0 0 0)
(3.41646e-09 -9.19761e-09 6.33051e-09)
(6.47454e-09 -1.76519e-08 1.22986e-08)
(9.25503e-09 -2.57405e-08 1.82987e-08)
(1.18262e-08 -3.37597e-08 2.46695e-08)
(1.42464e-08 -4.19363e-08 3.17156e-08)
(1.65654e-08 -5.04303e-08 3.97181e-08)
(1.88226e-08 -5.93329e-08 4.89339e-08)
(2.10416e-08 -6.86618e-08 5.95903e-08)
(2.32148e-08 -7.83535e-08 7.18657e-08)
(2.5271e-08 -8.8248e-08 8.58444e-08)
(2.70059e-08 -9.80579e-08 1.01423e-07)
(2.79337e-08 -1.07324e-07 1.18136e-07)
(2.70409e-08 -1.15362e-07 1.34845e-07)
(2.26371e-08 -1.21269e-07 1.49248e-07)
(1.37955e-08 -1.2435e-07 1.57848e-07)
(-1.96407e-09 -1.28037e-07 1.5456e-07)
(0 0 0)
(3.99044e-09 -1.03529e-08 7.2635e-09)
(7.56431e-09 -1.98807e-08 1.41018e-08)
(1.08185e-08 -2.90199e-08 2.09585e-08)
(1.38371e-08 -3.81183e-08 2.82138e-08)
(1.6696e-08 -4.74514e-08 3.62093e-08)
(1.94661e-08 -5.72283e-08 4.52602e-08)
(2.22157e-08 -6.75939e-08 5.56565e-08)
(2.50101e-08 -7.86323e-08 6.76606e-08)
(2.79044e-08 -9.03697e-08 8.14934e-08)
(3.09241e-08 -1.0277e-07 9.72958e-08)
(3.40149e-08 -1.15712e-07 1.15047e-07)
(3.69109e-08 -1.28922e-07 1.34403e-07)
(3.88524e-08 -1.41796e-07 1.54349e-07)
(3.81485e-08 -1.52981e-07 1.72539e-07)
(3.27147e-08 -1.60003e-07 1.8473e-07)
(1.41317e-08 -1.57914e-07 1.84575e-07)
(0 0 0)
(4.5026e-09 -1.11483e-08 8.03995e-09)
(8.53617e-09 -2.14223e-08 1.55966e-08)
(1.22113e-08 -3.13048e-08 2.31488e-08)
(1.56254e-08 -4.1185e-08 3.1105e-08)
(1.88697e-08 -5.1379e-08 3.98306e-08)
(2.20345e-08 -6.21383e-08 4.96605e-08)
(2.52158e-08 -7.36567e-08 6.09023e-08)
(2.85209e-08 -8.60801e-08 7.38362e-08)
(3.20746e-08 -9.95191e-08 8.87057e-08)
(3.60233e-08 -1.14062e-07 1.05687e-07)
(4.05336e-08 -1.29782e-07 1.24822e-07)
(4.57606e-08 -1.46734e-07 1.45883e-07)
(5.17467e-08 -1.64885e-07 1.68025e-07)
(5.81215e-08 -1.83746e-07 1.88973e-07)
(6.33348e-08 -2.00821e-07 2.03762e-07)
(5.95388e-08 -2.13994e-07 2.02894e-07)
(0 0 0)
(4.94369e-09 -1.15427e-08 8.65379e-09)
(9.37227e-09 -2.21977e-08 1.67725e-08)
(1.34058e-08 -3.24778e-08 2.48552e-08)
(1.7151e-08 -4.27994e-08 3.33246e-08)
(2.07093e-08 -5.35062e-08 4.25555e-08)
(2.41839e-08 -6.48803e-08 5.2887e-08)
(2.76886e-08 -7.71501e-08 6.46257e-08)
(3.1358e-08 -9.05025e-08 7.80463e-08)
(3.53607e-08 -1.05099e-07 9.3383e-08)
(3.99172e-08 -1.2109e-07 1.108e-07)
(4.53238e-08 -1.38633e-07 1.30338e-07)
(5.19678e-08 -1.57901e-07 1.51785e-07)
(6.03062e-08 -1.79042e-07 1.74381e-07)
(7.06563e-08 -2.01866e-07 1.96119e-07)
(8.15524e-08 -2.2331e-07 2.12014e-07)
(1.00667e-07 -2.4876e-07 2.08699e-07)
(0 0 0)
(0 0 0)
(0 0 0)
(0 0 0)
(0 0 0)
(0 0 0)
(0 0 0)
(0 0 0)
(0 0 0)
(0 0 0)
(0 0 0)
(0 0 0)
(0 0 0)
(0 0 0)
(0 0 0)
(0 0 0)
(-8.90655e-09 8.1806e-10 2.93074e-09)
(0 0 0)
(6.99354e-10 -2.12058e-09 1.24507e-09)
(1.31996e-09 -4.06234e-09 2.42008e-09)
(1.87268e-09 -5.90741e-09 3.60463e-09)
(2.36394e-09 -7.71829e-09 4.86738e-09)
(2.79477e-09 -9.53579e-09 6.26821e-09)
(3.15912e-09 -1.13782e-08 7.85908e-09)
(3.44096e-09 -1.32411e-08 9.68362e-09)
(3.60974e-09 -1.5093e-08 1.17729e-08)
(3.61425e-09 -1.6868e-08 1.4136e-08)
(3.3745e-09 -1.84592e-08 1.67434e-08)
(2.77001e-09 -1.97144e-08 1.94945e-08)
(1.61265e-09 -2.04403e-08 2.21589e-08)
(-4.33935e-10 -2.04318e-08 2.4279e-08)
(-3.99177e-09 -1.95785e-08 2.50489e-08)
(-9.49436e-09 -1.81613e-08 2.35774e-08)
(-1.67761e-08 -1.51655e-08 1.86247e-08)
(0 0 0)
(1.39071e-09 -4.17696e-09 2.45882e-09)
(2.62571e-09 -8.00411e-09 4.77897e-09)
(3.72759e-09 -1.16443e-08 7.11707e-09)
(4.71063e-09 -1.52211e-08 9.60732e-09)
(5.579e-09 -1.88177e-08 1.23671e-08)
(6.32381e-09 -2.24764e-08 1.54995e-08)
(6.91751e-09 -2.61967e-08 1.90911e-08)
(7.30515e-09 -2.9928e-08 2.32044e-08)
(7.39168e-09 -3.35592e-08 2.78598e-08)
(7.02567e-09 -3.69125e-08 3.3003e-08)
(5.98071e-09 -3.97526e-08 3.84445e-08)
(3.93324e-09 -4.18376e-08 4.37554e-08)
(4.49929e-10 -4.3075e-08 4.81234e-08)
(-4.87528e-09 -4.38232e-08 5.02647e-08)
(-1.14451e-08 -4.49545e-08 4.91372e-08)
(-1.69763e-08 -4.84952e-08 4.65532e-08)
(0 0 0)
(2.06643e-09 -6.10544e-09 3.61272e-09)
(3.90357e-09 -1.17047e-08 7.02074e-09)
(5.54733e-09 -1.70385e-08 1.04523e-08)
(7.02222e-09 -2.22905e-08 1.41023e-08)
(8.33947e-09 -2.75901e-08 1.8142e-08)
(9.49331e-09 -3.3012e-08 2.27234e-08)
(1.04537e-08 -3.85729e-08 2.7976e-08)
(1.11537e-08 -4.4224e-08 3.39957e-08)
(1.14699e-08 -4.98407e-08 4.08222e-08)
(1.1194e-08 -5.52198e-08 4.83954e-08)
(9.99846e-09 -6.00977e-08 5.64762e-08)
(7.39933e-09 -6.42323e-08 6.4525e-08)
(2.78127e-09 -6.76263e-08 7.15637e-08)
(-4.26693e-09 -7.08629e-08 7.61629e-08)
(-1.2585e-08 -7.47636e-08 7.72305e-08)
(-1.99944e-08 -7.99253e-08 7.67918e-08)
(0 0 0)
(2.71752e-09 -7.84184e-09 4.68042e-09)
(5.13672e-09 -1.50408e-08 9.093e-09)
(7.30845e-09 -2.19114e-08 1.35299e-08)
(9.27029e-09 -2.86967e-08 1.82399e-08)
(1.10452e-08 -3.5575e-08 2.34432e-08)
(1.26383e-08 -4.26613e-08 2.93365e-08)
(1.4029e-08 -5.00037e-08 3.60899e-08)
(1.51572e-08 -5.75769e-08 4.38346e-08)
(1.58974e-08 -6.52745e-08 5.26378e-08)
(1.60183e-08 -7.29029e-08 6.24535e-08)
(1.512e-08 -8.01859e-08 7.30329e-08)
(1.25447e-08 -8.68129e-08 8.37949e-08)
(7.34787e-09 -9.25917e-08 9.36786e-08)
(-1.30625e-09 -9.76961e-08 1.01115e-07)
(-1.21796e-08 -1.02469e-07 1.04666e-07)
(-2.23172e-08 -1.07861e-07 1.06127e-07)
(0 0 0)
(3.33363e-09 -9.32374e-09 5.63927e-09)
(6.3052e-09 -1.78923e-08 1.09505e-08)
(8.98164e-09 -2.60878e-08 1.62801e-08)
(1.14158e-08 -3.42098e-08 2.19229e-08)
(1.36465e-08 -4.24866e-08 2.81402e-08)
(1.56969e-08 -5.10783e-08 3.51671e-08)
(1.75689e-08 -6.00746e-08 4.3209e-08)
(1.92303e-08 -6.94927e-08 5.24302e-08)
(2.05905e-08 -7.92712e-08 6.29292e-08)
(2.14554e-08 -8.92598e-08 7.46874e-08)
(2.1444e-08 -9.91976e-08 8.74755e-08)
(1.98439e-08 -1.08682e-07 1.00714e-07)
(1.54534e-08 -1.17138e-07 1.13297e-07)
(6.78663e-09 -1.23792e-07 1.23503e-07)
(-5.68439e-09 -1.27829e-07 1.29491e-07)
(-1.90652e-08 -1.30979e-07 1.32957e-07)
(0 0 0)
(3.90344e-09 -1.04925e-08 6.47114e-09)
(7.38683e-09 -2.01464e-08 1.25574e-08)
(1.05331e-08 -2.94024e-08 1.86486e-08)
(1.34109e-08 -3.86104e-08 2.50754e-08)
(1.60771e-08 -4.80454e-08 3.2131e-08)
(1.85774e-08 -5.79123e-08 4.0079e-08)
(2.09445e-08 -6.83471e-08 4.91511e-08)
(2.31916e-08 -7.9419e-08 5.95372e-08)
(2.52966e-08 -9.11303e-08 7.13618e-08)
(2.71697e-08 -1.03408e-07 8.46337e-08)
(2.85857e-08 -1.16074e-07 9.91505e-08)
(2.90443e-08 -1.2877e-07 1.14343e-07)
(2.75536e-08 -1.40788e-07 1.2905e-07)
(2.25377e-08 -1.50729e-07 1.4131e-07)
(1.33061e-08 -1.56337e-07 1.4878e-07)
(-2.47566e-09 -1.51923e-07 1.53816e-07)
(0 0 0)
(4.41562e-09 -1.12964e-08 7.16374e-09)
(8.35917e-09 -2.17039e-08 1.38903e-08)
(1.19278e-08 -3.17089e-08 2.06002e-08)
(1.52046e-08 -4.17017e-08 2.76489e-08)
(1.82632e-08 -5.19956e-08 3.53498e-08)
(2.11713e-08 -6.28343e-08 4.39833e-08)
(2.39931e-08 -7.43958e-08 5.37949e-08)
(2.67905e-08 -8.67987e-08 6.4986e-08)
(2.96197e-08 -1.00108e-07 7.76926e-08)
(3.25238e-08 -1.14335e-07 9.19351e-08)
(3.55082e-08 -1.29423e-07 1.07521e-07)
(3.84844e-08 -1.45204e-07 1.23874e-07)
(4.11874e-08 -1.6129e-07 1.39736e-07)
(4.31356e-08 -1.76774e-07 1.52751e-07)
(4.38922e-08 -1.89381e-07 1.59722e-07)
(4.21246e-08 -1.97316e-07 1.62011e-07)
(0 0 0)
(4.86016e-09 -1.16942e-08 7.71169e-09)
(9.20273e-09 -2.24857e-08 1.49397e-08)
(1.31355e-08 -3.28903e-08 2.21222e-08)
(1.67523e-08 -4.33241e-08 2.96271e-08)
(2.01393e-08 -5.4127e-08 3.7776e-08)
(2.33802e-08 -6.55703e-08 4.68531e-08)
(2.65625e-08 -7.78622e-08 5.71028e-08)
(2.97825e-08 -9.11548e-08 6.87213e-08)
(3.31525e-08 -1.05551e-07 8.18346e-08)
(3.68065e-08 -1.21104e-07 9.64494e-08)
(4.09028e-08 -1.37807e-07 1.12357e-07)
(4.56102e-08 -1.55557e-07 1.28966e-07)
(5.10829e-08 -1.74066e-07 1.45006e-07)
(5.74144e-08 -1.92619e-07 1.58112e-07)
(6.39788e-08 -2.08551e-07 1.64858e-07)
(8.09937e-08 -2.28008e-07 1.60827e-07)
(0 0 0)
(0 0 0)
(0 0 0)
(0 0 0)
(0 0 0)
(0 0 0)
(0 0 0)
(0 0 0)
(0 0 0)
(0 0 0)
(0 0 0)
(0 0 0)
(0 0 0)
(0 0 0)
(0 0 0)
(0 0 0)
(-1.07179e-08 -1.55268e-09 3.64011e-09)
(0 0 0)
(6.7714e-10 -2.14441e-09 1.04804e-09)
(1.27443e-09 -4.108e-09 2.03637e-09)
(1.7988e-09 -5.97419e-09 3.0313e-09)
(2.25214e-09 -7.80685e-09 4.08947e-09)
(2.62962e-09 -9.64834e-09 5.25924e-09)
(2.9173e-09 -1.15194e-08 6.58119e-09)
(3.08786e-09 -1.34204e-08 8.08756e-09)
(3.09434e-09 -1.53296e-08 9.79791e-09)
(2.86103e-09 -1.72002e-08 1.17103e-08)
(2.27151e-09 -1.89608e-08 1.37869e-08)
(1.1535e-09 -2.0523e-08 1.593e-08)
(-7.48297e-10 -2.17959e-08 1.79474e-08)
(-3.81992e-09 -2.27047e-08 1.95258e-08)
(-8.57741e-09 -2.31779e-08 2.02715e-08)
(-1.48886e-08 -2.30458e-08 1.99994e-08)
(-2.15342e-08 -1.99296e-08 1.79688e-08)
(0 0 0)
(1.34792e-09 -4.22369e-09 2.07014e-09)
(2.53805e-09 -8.09358e-09 4.02206e-09)
(3.5855e-09 -1.17747e-08 5.98611e-09)
(4.49593e-09 -1.53926e-08 8.07291e-09)
(5.26259e-09 -1.90332e-08 1.03772e-08)
(5.86184e-09 -2.27428e-08 1.29799e-08)
(6.24553e-09 -2.65284e-08 1.59454e-08)
(6.32922e-09 -3.03543e-08 1.93134e-08)
(5.97563e-09 -3.41384e-08 2.3083e-08)
(4.97528e-09 -3.77555e-08 2.71851e-08)
(3.02983e-09 -4.1057e-08 3.14388e-08)
(-2.49079e-10 -4.39201e-08 3.54929e-08)
(-5.25903e-09 -4.63402e-08 3.87895e-08)
(-1.20184e-08 -4.85047e-08 4.06666e-08)
(-1.89715e-08 -5.0521e-08 4.09061e-08)
(-2.30048e-08 -5.32132e-08 4.09209e-08)
(0 0 0)
(2.00603e-09 -6.17325e-09 3.04239e-09)
(3.77997e-09 -1.18341e-08 5.91017e-09)
(5.34728e-09 -1.72257e-08 8.79312e-09)
(6.72073e-09 -2.25342e-08 1.18516e-08)
(7.89671e-09 -2.78916e-08 1.52243e-08)
(8.84974e-09 -3.33763e-08 1.90307e-08)
(9.52266e-09 -3.9012e-08 2.33675e-08)
(9.81093e-09 -4.47632e-08 2.82973e-08)
(9.53967e-09 -5.05321e-08 3.38274e-08)
(8.43673e-09 -5.61626e-08 3.98748e-08)
(6.10791e-09 -6.14646e-08 4.6211e-08)
(2.04443e-09 -6.62842e-08 5.24007e-08)
(-4.22007e-09 -7.06502e-08 5.77878e-08)
(-1.25143e-08 -7.49121e-08 6.1666e-08)
(-2.06543e-08 -7.92592e-08 6.37944e-08)
(-2.58489e-08 -8.37662e-08 6.5509e-08)
(0 0 0)
(2.64346e-09 -7.92772e-09 3.94247e-09)
(4.98533e-09 -1.52041e-08 7.65631e-09)
(7.06399e-09 -2.21461e-08 1.13842e-08)
(8.90311e-09 -2.89984e-08 1.53309e-08)
(1.05084e-08 -3.59414e-08 1.96746e-08)
(1.18622e-08 -4.30914e-08 2.45707e-08)
(1.29138e-08 -5.04991e-08 3.01464e-08)
(1.35616e-08 -5.8145e-08 3.64884e-08)
(1.36267e-08 -6.59357e-08 4.36192e-08)
(1.28167e-08 -7.37016e-08 5.14569e-08)
(1.06793e-08 -8.12042e-08 5.97545e-08)
(6.5739e-09 -8.81715e-08 6.80379e-08)
(-2.10402e-10 -9.43993e-08 7.56052e-08)
(-9.81871e-09 -9.98788e-08 8.17001e-08)
(-2.00142e-08 -1.04565e-07 8.58585e-08)
(-2.74568e-08 -1.09099e-07 8.91678e-08)
(0 0 0)
(3.25033e-09 -9.42399e-09 4.75104e-09)
(6.13521e-09 -1.80822e-08 9.22191e-09)
(8.70792e-09 -2.63587e-08 1.37003e-08)
(1.10063e-08 -3.4554e-08 1.84286e-08)
(1.3051e-08 -4.28962e-08 2.36188e-08)
(1.48416e-08 -5.15431e-08 2.94564e-08)
(1.63487e-08 -6.05802e-08 3.60953e-08)
(1.74992e-08 -7.0018e-08 4.36443e-08)
(1.81506e-08 -7.97875e-08 5.21428e-08)
(1.80523e-08 -8.97284e-08 6.1517e-08)
(1.67822e-08 -9.95655e-08 7.15129e-08)
(1.36661e-08 -1.08872e-07 8.16273e-08)
(7.77188e-09 -1.17017e-07 9.11013e-08)
(-1.64601e-09 -1.23119e-07 9.90845e-08)
(-1.31124e-08 -1.26249e-07 1.049e-07)
(-2.34545e-08 -1.27943e-07 1.09599e-07)
(0 0 0)
(3.81536e-09 -1.06031e-08 5.4527e-09)
(7.20744e-09 -2.03552e-08 1.05768e-08)
(1.02452e-08 -2.96983e-08 1.56956e-08)
(1.29823e-08 -3.89821e-08 2.10813e-08)
(1.54574e-08 -4.84788e-08 2.69715e-08)
(1.76934e-08 -5.83868e-08 3.35745e-08)
(1.96934e-08 -6.88298e-08 4.10635e-08)
(2.14316e-08 -7.98573e-08 4.95635e-08)
(2.2838e-08 -9.14406e-08 5.91257e-08)
(2.37698e-08 -1.03459e-07 6.96805e-08)
(2.39628e-08 -1.15662e-07 8.09609e-08)
(2.29491e-08 -1.27589e-07 9.24127e-08)
(1.99879e-08 -1.38411e-07 1.03153e-07)
(1.42267e-08 -1.46655e-07 1.12104e-07)
(6.02522e-09 -1.50308e-07 1.18386e-07)
(-6.42933e-09 -1.44117e-07 1.23673e-07)
(0 0 0)
(4.32684e-09 -1.14132e-08 6.03714e-09)
(8.17877e-09 -2.1924e-08 1.17011e-08)
(1.16394e-08 -3.20192e-08 1.73407e-08)
(1.47774e-08 -4.20874e-08 2.32483e-08)
(1.76495e-08 -5.24369e-08 2.96781e-08)
(2.03024e-08 -6.33011e-08 3.68518e-08)
(2.27735e-08 -7.4839e-08 4.49523e-08)
(2.50896e-08 -8.71376e-08 5.41106e-08)
(2.72636e-08 -1.00212e-07 6.43796e-08)
(2.92888e-08 -1.13995e-07 7.56828e-08)
(3.11276e-08 -1.28309e-07 8.77269e-08)
(3.26989e-08 -1.42816e-07 9.98822e-08)
(3.3919e-08 -1.56933e-07 1.11072e-07)
(3.49142e-08 -1.69682e-07 1.19802e-07)
(3.6284e-08 -1.7937e-07 1.24745e-07)
(3.73823e-08 -1.85316e-07 1.27741e-07)
(0 0 0)
(4.77407e-09 -1.18132e-08 6.49989e-09)
(9.02819e-09 -2.27097e-08 1.2587e-08)
(1.28576e-08 -3.32047e-08 1.86249e-08)
(1.6343e-08 -4.37118e-08 2.49161e-08)
(1.95553e-08 -5.45641e-08 3.17218e-08)
(2.25602e-08 -6.60198e-08 3.92668e-08)
(2.54216e-08 -7.82637e-08 4.77329e-08)
(2.8206e-08 -9.14096e-08 5.72456e-08)
(3.09878e-08 -1.055e-07 6.78475e-08)
(3.38565e-08 -1.20494e-07 7.94446e-08)
(3.69258e-08 -1.36247e-07 9.17151e-08)
(4.03482e-08 -1.52464e-07 1.03978e-07)
(4.4377e-08 -1.68661e-07 1.15059e-07)
(4.95123e-08 -1.84092e-07 1.23275e-07)
(5.59424e-08 -1.96904e-07 1.27026e-07)
(7.52437e-08 -2.14369e-07 1.24832e-07)
(0 0 0)
(0 0 0)
(0 0 0)
(0 0 0)
(0 0 0)
(0 0 0)
(0 0 0)
(0 0 0)
(0 0 0)
(0 0 0)
(0 0 0)
(0 0 0)
(0 0 0)
(0 0 0)
(0 0 0)
(0 0 0)
(-1.11742e-08 -2.13848e-09 3.35848e-09)
(0 0 0)
(6.57278e-10 -2.16187e-09 8.15575e-10)
(1.23382e-09 -4.14128e-09 1.58414e-09)
(1.73309e-09 -6.0232e-09 2.357e-09)
(2.15316e-09 -7.87233e-09 3.1776e-09)
(2.48461e-09 -9.73124e-09 4.08193e-09)
(2.70756e-09 -1.16224e-08 5.09949e-09)
(2.78711e-09 -1.35493e-08 6.25257e-09)
(2.66686e-09 -1.54962e-08 7.55277e-09)
(2.26028e-09 -1.7427e-08 8.99441e-09)
(1.44153e-09 -1.92875e-08 1.05451e-08)
(3.53756e-11 -2.10121e-08 1.2133e-08)
(-2.19667e-09 -2.25314e-08 1.36343e-08)
(-5.57811e-09 -2.37617e-08 1.48789e-08)
(-1.04784e-08 -2.45283e-08 1.57132e-08)
(-1.65878e-08 -2.44319e-08 1.60907e-08)
(-2.25488e-08 -2.08553e-08 1.50672e-08)
(0 0 0)
(1.30957e-09 -4.25839e-09 1.61135e-09)
(2.45966e-09 -8.16006e-09 3.12974e-09)
(3.45878e-09 -1.18716e-08 4.65579e-09)
(4.30544e-09 -1.55198e-08 6.27395e-09)
(4.9842e-09 -1.91914e-08 8.05511e-09)
(5.46033e-09 -2.29352e-08 1.00582e-08)
(5.67183e-09 -2.67632e-08 1.23281e-08)
(5.51752e-09 -3.06484e-08 1.48887e-08)
(4.8426e-09 -3.45241e-08 1.77306e-08)
(3.42566e-09 -3.82883e-08 2.07942e-08)
(9.75475e-10 -4.18198e-08 2.3946e-08)
(-2.84019e-09 -4.50078e-08 2.69539e-08)
(-8.26107e-09 -4.77899e-08 2.94964e-08)
(-1.49979e-08 -5.01369e-08 3.12576e-08)
(-2.12511e-08 -5.18541e-08 3.21203e-08)
(-2.39725e-08 -5.36294e-08 3.25922e-08)
(0 0 0)
(1.95174e-09 -6.22424e-09 2.3688e-09)
(3.66906e-09 -1.19313e-08 4.60032e-09)
(5.16837e-09 -1.73657e-08 6.84071e-09)
(6.45254e-09 -2.27144e-08 9.21219e-09)
(7.50603e-09 -2.81106e-08 1.18187e-08)
(8.2886e-09 -3.36349e-08 1.47478e-08)
(8.72493e-09 -3.93145e-08 1.80672e-08)
(8.68955e-09 -4.51208e-08 2.18148e-08)
(7.98824e-09 -5.09676e-08 2.59836e-08)
(6.34083e-09 -5.67158e-08 3.04989e-08)
(3.37942e-09 -6.21906e-08 3.51904e-08)
(-1.30043e-09 -6.72262e-08 3.97656e-08)
(-7.92109e-09 -7.17626e-08 4.38426e-08)
(-1.5909e-08 -7.59239e-08 4.7084e-08)
(-2.28933e-08 -7.97008e-08 4.93237e-08)
(-2.63734e-08 -8.3279e-08 5.0898e-08)
(0 0 0)
(2.57663e-09 -7.99276e-09 3.07043e-09)
(4.84902e-09 -1.53273e-08 5.96099e-09)
(6.84457e-09 -2.23212e-08 8.8583e-09)
(8.57526e-09 -2.92198e-08 1.19183e-08)
(1.00328e-08 -3.62035e-08 1.52749e-08)
(1.11826e-08 -4.3389e-08 1.90421e-08)
(1.19535e-08 -5.08262e-08 2.33091e-08)
(1.22217e-08 -5.8496e-08 2.8129e-08)
(1.17901e-08 -6.63058e-08 3.35014e-08)
(1.03654e-08 -7.40867e-08 3.93471e-08)
(7.54126e-09 -8.15915e-08 4.54743e-08)
(2.82041e-09 -8.85147e-08 5.15548e-08)
(-4.2032e-09 -9.45607e-08 5.7175e-08)
(-1.32246e-08 -9.95496e-08 6.19688e-08)
(-2.18983e-08 -1.03379e-07 6.56041e-08)
(-2.73535e-08 -1.06878e-07 6.8216e-08)
(0 0 0)
(3.17486e-09 -9.50001e-09 3.70096e-09)
(5.9815e-09 -1.82253e-08 7.18138e-09)
(8.46123e-09 -2.65599e-08 1.06622e-08)
(1.06391e-08 -3.48038e-08 1.43282e-08)
(1.25208e-08 -4.31838e-08 1.83386e-08)
(1.40882e-08 -5.18543e-08 2.283e-08)
(1.52911e-08 -6.08943e-08 2.79098e-08)
(1.60347e-08 -7.03047e-08 3.36446e-08)
(1.61604e-08 -8.00018e-08 4.00409e-08)
(1.54222e-08 -8.98029e-08 4.70172e-08)
(1.34557e-08 -9.93974e-08 5.43613e-08)
(9.75123e-09 -1.08303e-07 6.17043e-08)