/*--------------------------------*- C++ -*----------------------------------*\
| =========                 |                                                 |
| \\      /  F ield         | OpenFOAM: The Open Source CFD Toolbox           |
|  \\    /   O peration     | Version:  v1912                                 |
|   \\  /    A nd           | Website:  www.openfoam.com                      |
|    \\/     M anipulation  |                                                 |
\*---------------------------------------------------------------------------*/
FoamFile
{
    version     2.0;
    format      ascii;
    class       volScalarField;
    location    "0.28/fluid";
    object      T;
}
// * * * * * * * * * * * * * * * * * * * * * * * * * * * * * * * * * * * * * //

dimensions      [0 0 0 1 0 0 0];


internalField   nonuniform List<scalar> 
14592
(
273.115
273.354
273.618
273.923
274.282
274.711
275.229
275.855
276.608
277.512
278.589
279.868
281.381
283.175
285.334
288.069
273.114
273.35
273.612
273.913
274.269
274.694
275.208
275.827
276.574
277.471
278.541
279.813
281.321
283.114
285.276
288.008
273.112
273.344
273.602
273.898
274.247
274.665
275.169
275.778
276.513
277.396
278.452
279.71
281.209
282.999
285.17
287.929
273.109
273.336
273.587
273.876
274.216
274.624
275.115
275.709
276.426
277.288
278.322
279.558
281.038
282.82
285.004
287.812
273.106
273.326
273.569
273.849
274.178
274.572
275.047
275.621
276.314
277.148
278.15
279.352
280.801
282.563
284.755
287.628
273.102
273.314
273.548
273.817
274.133
274.511
274.966
275.515
276.178
276.976
277.935
279.089
280.487
282.204
284.382
287.326
273.098
273.301
273.525
273.782
274.083
274.442
274.875
275.395
276.022
276.775
277.679
278.767
280.086
281.717
283.821
286.792
273.093
273.287
273.5
273.743
274.029
274.368
274.775
275.264
275.85
276.552
277.39
278.393
279.6
281.081
282.987
285.741
273.12
273.371
273.65
273.97
274.349
274.804
275.354
276.02
276.824
277.792
278.95
280.329
281.965
283.909
286.237
289.082
273.119
273.368
273.643
273.961
274.336
274.786
275.331
275.991
276.789
277.749
278.899
280.272
281.904
283.848
286.181
289.032
273.117
273.361
273.632
273.944
274.313
274.755
275.291
275.94
276.724
277.67
278.806
280.165
281.788
283.732
286.079
288.964
273.114
273.353
273.617
273.921
274.281
274.712
275.234
275.867
276.632
277.557
278.669
280.005
281.611
283.55
285.917
288.859
273.111
273.342
273.598
273.893
274.24
274.658
275.162
275.773
276.514
277.408
278.487
279.789
281.364
283.286
285.669
288.691
273.107
273.33
273.576
273.859
274.193
274.593
275.076
275.661
276.37
277.226
278.26
279.51
281.033
282.913
285.292
288.407
273.102
273.316
273.551
273.822
274.14
274.52
274.979
275.534
276.204
277.012
277.988
279.167
280.607
282.397
284.71
287.879
273.098
273.301
273.525
273.781
274.082
274.442
274.874
275.394
276.021
276.774
277.678
278.766
280.084
281.715
283.82
286.791
273.126
273.388
273.679
274.014
274.412
274.89
275.468
276.17
277.019
278.041
279.264
280.718
282.438
284.461
286.831
289.585
273.124
273.384
273.672
274.004
274.398
274.871
275.444
276.14
276.982
277.996
279.211
280.659
282.376
284.4
286.776
289.54
273.122
273.377
273.66
273.987
274.374
274.839
275.402
276.086
276.914
277.914
279.114
280.549
282.256
284.282
286.675
289.476
273.12
273.368
273.645
273.963
274.34
274.793
275.343
276.009
276.818
277.795
278.972
280.384
282.075
284.098
286.514
289.375
273.116
273.357
273.625
273.933
274.298
274.736
275.267
275.912
276.693
277.64
278.782
280.158
281.819
283.828
286.266
289.212
273.112
273.344
273.602
273.898
274.248
274.668
275.177
275.794
276.542
277.448
278.543
279.867
281.475
283.444
285.884
288.932
273.107
273.329
273.576
273.859
274.192
274.592
275.075
275.66
276.368
277.224
278.257
279.508
281.03
282.911
285.29
288.406
273.102
273.314
273.548
273.816
274.132
274.51
274.964
275.513
276.175
276.972
277.931
279.085
280.483
282.2
284.378
287.324
273.13
273.402
273.705
274.053
274.467
274.965
275.568
276.3
277.185
278.251
279.523
281.031
282.801
284.858
287.213
289.857
273.129
273.398
273.698
274.043
274.452
274.945
275.543
276.269
277.147
278.204
279.469
280.971
282.738
284.796
287.16
289.814
273.127
273.392
273.686
274.025
274.427
274.912
275.499
276.213
277.077
278.12
279.369
280.857
282.616
284.677
287.059
289.75
273.124
273.382
273.669
274
274.392
274.865
275.437
276.133
276.977
277.997
279.222
280.688
282.431
284.49
286.898
289.651
273.12
273.371
273.649
273.969
274.349
274.805
275.359
276.032
276.848
277.835
279.026
280.456
282.169
284.216
286.648
289.489
273.116
273.357
273.624
273.932
274.297
274.735
275.265
275.909
276.691
277.637
278.778
280.155
281.816
283.825
286.264
289.21
273.111
273.342
273.597
273.891
274.239
274.655
275.159
275.77
276.509
277.403
278.482
279.783
281.358
283.281
285.665
288.689
273.106
273.325
273.568
273.847
274.176
274.569
275.043
275.617
276.308
277.142
278.143
279.345
280.794
282.556
284.748
287.623
273.134
273.415
273.726
274.086
274.513
275.027
275.65
276.407
277.321
278.419
279.727
281.27
283.069
285.134
287.46
290.015
273.133
273.411
273.719
274.075
274.498
275.007
275.625
276.375
277.281
278.372
279.672
281.209
283.004
285.072
287.407
289.972
273.131
273.404
273.707
274.057
274.472
274.972
275.58
276.317
277.209
278.284
279.57
281.093
282.881
284.952
287.306
289.909
273.128
273.394
273.69
274.031
274.436
274.924
275.516
276.235
277.107
278.158
279.419
280.92
282.692
284.763
287.144
289.81
273.124
273.382
273.668
273.999
274.391
274.863
275.435
276.13
276.974
277.993
279.218
280.683
282.426
284.486
286.894
289.649
273.119
273.368
273.643
273.961
274.337
274.79
275.338
276.004
276.812
277.788
278.964
280.376
282.067
284.09
286.507
289.371
273.114
273.352
273.616
273.919
274.277
274.708
275.229
275.86
276.625
277.548
278.659
279.995
281.601
283.54
285.908
288.853
273.109
273.335
273.586
273.873
274.213
274.619
275.109
275.702
276.417
277.278
278.311
279.547
281.026
282.809
284.993
287.804
273.137
273.424
273.743
274.111
274.549
275.075
275.714
276.488
277.423
278.544
279.877
281.442
283.254
285.318
287.617
290.109
273.136
273.42
273.736
274.1
274.533
275.055
275.688
276.455
277.383
278.496
279.821
281.38
283.19
285.256
287.564
290.067
273.134
273.413
273.723
274.081
274.507
275.019
275.641
276.396
277.309
278.407
279.717
281.262
283.065
285.135
287.462
290.004
273.131
273.403
273.706
274.055
274.47
274.97
275.576
276.313
277.204
278.279
279.563
281.087
282.874
284.945
287.3
289.905
273.127
273.391
273.684
274.022
274.424
274.907
275.493
276.205
277.069
278.11
279.358
280.846
282.605
284.666
287.049
289.743
273.122
273.376
273.658
273.984
274.369
274.833
275.394
276.077
276.903
277.901
279.1
280.534
282.241
284.267
286.662
289.466
273.117
273.36
273.63
273.94
274.307
274.748
275.282
275.929
276.712
277.656
278.79
280.148
281.771
283.715
286.063
288.953
273.111
273.343
273.599
273.894
274.241
274.658
275.16
275.767
276.5
277.381
278.435
279.692
281.19
282.98
285.152
287.916
273.139
273.431
273.754
274.129
274.573
275.108
275.756
276.542
277.491
278.627
279.975
281.552
283.371
285.431
287.71
290.163
273.138
273.426
273.747
274.117
274.557
275.087
275.73
276.509
277.45
278.579
279.918
281.49
283.306
285.369
287.657
290.121
273.136
273.419
273.734
274.098
274.53
275.051
275.683
276.449
277.376
278.489
279.813
281.371
283.181
285.247
287.555
290.058
273.133
273.409
273.716
274.071
274.493
275.001
275.617
276.365
277.27
278.359
279.658
281.194
282.989
285.056
287.392
289.959
273.129
273.397
273.694
274.038
274.446
274.937
275.533
276.256
277.132
278.188
279.451
280.951
282.717
284.776
287.14
289.797
273.124
273.382
273.668
273.999
274.39
274.861
275.432
276.125
276.965
277.976
279.19
280.636
282.352
284.376
286.754
289.521
273.119
273.366
273.639
273.955
274.328
274.776
275.318
275.976
276.77
277.728
278.876
280.246
281.878
283.822
286.156
289.01
273.113
273.348
273.608
273.908
274.261
274.684
275.194
275.811
276.555
277.449
278.517
279.787
281.294
283.087
285.248
287.982
273.141
273.434
273.76
274.137
274.585
275.124
275.778
276.57
277.525
278.669
280.023
281.606
283.428
285.484
287.753
290.188
273.139
273.43
273.753
274.126
274.569
275.104
275.751
276.536
277.484
278.62
279.966
281.543
283.362
285.422
287.7
290.146
273.137
273.422
273.74
274.107
274.542
275.067
275.704
276.476
277.41
278.529
279.86
281.424
283.237
285.3
287.598
290.083
273.134
273.412
273.722
274.08
274.504
275.016
275.637
276.391
277.303
278.398
279.705
281.246
283.044
285.109
287.435
289.984
273.13
273.4
273.7
274.046
274.457
274.952
275.553
276.281
277.164
278.226
279.496
281.002
282.772
284.828
287.183
289.822
273.125
273.385
273.674
274.007
274.401
274.876
275.451
276.15
276.995
278.014
279.234
280.686
282.405
284.428
286.796
289.546
273.119
273.368
273.644
273.962
274.338
274.79
275.337
275.999
276.8
277.764
278.918
280.295
281.93
283.873
286.199
289.037
273.114
273.351
273.613
273.915
274.27
274.697
275.212
275.833
276.583
277.483
278.557
279.833
281.345
283.138
285.294
288.012
273.081
273.25
273.434
273.641
273.878
274.152
274.47
274.835
275.252
275.718
276.23
276.776
277.339
277.894
278.408
278.846
273.081
273.248
273.43
273.635
273.87
274.142
274.456
274.818
275.231
275.694
276.201
276.742
277.301
277.851
278.362
278.796
273.079
273.244
273.423
273.625
273.856
274.123
274.432
274.788
275.193
275.647
276.146
276.678
277.227
277.769
278.272
278.701
273.078
273.238
273.414
273.611
273.836
274.096
274.397
274.744
275.139
275.582
276.067
276.586
277.121
277.65
278.141
278.56
273.075
273.232
273.402
273.592
273.811
274.062
274.354
274.689
275.071
275.498
275.967
276.468
276.985
277.495
277.97
278.375
273.073
273.223
273.387
273.571
273.781
274.023
274.303
274.624
274.99
275.399
275.848
276.326
276.82
277.308
277.761
278.149
273.07
273.214
273.372
273.548
273.748
273.979
274.246
274.552
274.899
275.287
275.712
276.165
276.632
277.092
277.52
277.886
273.067
273.205
273.355
273.523
273.713
273.933
274.185
274.474
274.801
275.166
275.565
275.989
276.426
276.856
277.254
277.595
273.082
273.254
273.44
273.651
273.892
274.171
274.496
274.871
275.299
275.781
276.313
276.884
277.476
278.064
278.613
279.083
273.082
273.251
273.436
273.644
273.883
274.16
274.482
274.853
275.278
275.755
276.282
276.848
277.435
278.019
278.564
279.032
273.08
273.247
273.429
273.634
273.868
274.14
274.456
274.821
275.238
275.708
276.226
276.782
277.36
277.934
278.472
278.934
273.079
273.241
273.419
273.619
273.848
274.113
274.421
274.777
275.183
275.641
276.145
276.687
277.251
277.811
278.337
278.788
273.076
273.234
273.407
273.6
273.822
274.079
274.377
274.721
275.113
275.555
276.042
276.565
277.109
277.651
278.16
278.597
273.074
273.226
273.392
273.579
273.792
274.039
274.325
274.654
275.03
275.453
275.919
276.419
276.939
277.456
277.942
278.361
273.071
273.217
273.376
273.555
273.759
273.995
274.267
274.58
274.937
275.338
275.779
276.252
276.743
277.232
277.69
278.084
273.068
273.207
273.359
273.529
273.723
273.947
274.204
274.5
274.837
275.214
275.627
276.07
276.528
276.983
277.409
277.776
273.085
273.261
273.453
273.67
273.919
274.21
274.549
274.942
275.395
275.908
276.479
277.098
277.75
278.405
279.027
279.566
273.084
273.258
273.448
273.663
273.91
274.198
274.534
274.924
275.372
275.88
276.446
277.061
277.707
278.358
278.976
279.513
273.083
273.254
273.441
273.652
273.895
274.178
274.507
274.89
275.331
275.831
276.387
276.991
277.627
278.269
278.879
279.41
273.081
273.248
273.431
273.637
273.874
274.149
274.471
274.844
275.273
275.76
276.302
276.891
277.512
278.139
278.736
279.257
273.078
273.241
273.418
273.618
273.847
274.114
274.425
274.785
275.2
275.67
276.193
276.762
277.362
277.969
278.547
279.053
273.076
273.232
273.403
273.595
273.816
274.072
274.371
274.716
275.113
275.563
276.063
276.607
277.18
277.759
278.313
278.797
273.073
273.223
273.387
273.571
273.782
274.026
274.31
274.638
275.015
275.441
275.914
276.428
276.969
277.515
278.037
278.492
273.069
273.213
273.369
273.544
273.745
273.976
274.245
274.555
274.909
275.309
275.753
276.232
276.736
277.243
277.726
278.148
273.088
273.271
273.471
273.698
273.96
274.267
274.626
275.047
275.535
276.093
276.722
277.414
278.155
278.916
279.654
280.307
273.087
273.268
273.467
273.691
273.951
274.254
274.611
275.027
275.51
276.064
276.687
277.374
278.109
278.866
279.6
280.251
273.086
273.264
273.459
273.68
273.935
274.233
274.583
274.992
275.467
276.011
276.624
277.3
278.024
278.771
279.498
280.143
273.084
273.258
273.448
273.664
273.912
274.203
274.544
274.943
275.405
275.935
276.533
277.193
277.901
278.632
279.345
279.98
273.081
273.25
273.435
273.644
273.884
274.166
274.495
274.881
275.327
275.839
276.416
277.054
277.739
278.447
279.14
279.758
273.079
273.241
273.419
273.62
273.852
274.122
274.438
274.807
275.235
275.724
276.275
276.884
277.539
278.217
278.88
279.474
273.075
273.232
273.402
273.594
273.815
274.073
274.374
274.724
275.13
275.593
276.114
276.689
277.306
277.943
278.568
279.128
273.072
273.221
273.384
273.566
273.776
274.02
274.305
274.635
275.016
275.451
275.938
276.473
277.045
277.635
278.21
278.724
273.092
273.284
273.495
273.735
274.012
274.339
274.725
275.18
275.712
276.328
277.032
277.819
278.68
279.587
280.494
281.32
273.092
273.282
273.49
273.727
274.003
274.326
274.708
275.159
275.686
276.297
276.994
277.776
278.631
279.534
280.438
281.263
273.09
273.277
273.482
273.715
273.985
274.303
274.679
275.121
275.639
276.24
276.926
277.696
278.54
279.433
280.329
281.15
273.088
273.27
273.471
273.698
273.962
274.272
274.637
275.069
275.574
276.159
276.828
277.581
278.407
279.283
280.166
280.978
273.085
273.262
273.457
273.677
273.932
274.232
274.586
275.002
275.49
276.055
276.702
277.429
278.229
279.081
279.942
280.738
273.082
273.253
273.44
273.652
273.897
274.185
274.524
274.923
275.39
275.93
276.548
277.243
278.008
278.824
279.652
280.42
273.079
273.243
273.422
273.624
273.859
274.133
274.455
274.834
275.276
275.787
276.371
277.026
277.746
278.513
279.292
280.017
273.075
273.232
273.402
273.595
273.817
274.077
274.381
274.738
275.153
275.631
276.175
276.784
277.449
278.155
278.868
279.529
273.097
273.3
273.523
273.777
274.074
274.424
274.84
275.335
275.919
276.603
277.394
278.296
279.304
280.4
281.538
282.624
273.097
273.297
273.518
273.769
274.063
274.41
274.823
275.312
275.891
276.569
277.354
278.25
279.252
280.344
281.48
282.566
273.095
273.292
273.509
273.756
274.045
274.386
274.791
275.272
275.841
276.508
277.28
278.164
279.155
280.238
281.368
282.453
273.093
273.285
273.497
273.738
274.019
274.352
274.747
275.216
275.77
276.42
277.174
278.038
279.011
280.077
281.196
282.276
273.09
273.277
273.482
273.716
273.988
274.309
274.691
275.144
275.679
276.307
277.036
277.873
278.817
279.857
280.955
282.022
273.087
273.267
273.465
273.689
273.951
274.259
274.625
275.059
275.571
276.171
276.868
277.668
278.572
279.571
280.632
281.672
273.083
273.256
273.445
273.66
273.909
274.203
274.551
274.962
275.447
276.014
276.672
277.425
278.276
279.215
280.215
281.201
273.079
273.244
273.424
273.628
273.865
274.143
274.471
274.858
275.312
275.842
276.454
277.152
277.935
278.795
279.704
280.597
273.103
273.317
273.554
273.824
274.141
274.517
274.967
275.504
276.145
276.902
277.789
278.818
279.995
281.318
282.759
284.231
273.102
273.314
273.548
273.816
274.129
274.502
274.948
275.48
276.115
276.866
277.746
278.769
279.941
281.26
282.7
284.174
273.1
273.309
273.539
273.802
274.11
274.476
274.914
275.437
276.061
276.8
277.667
278.677
279.837
281.149
282.587
284.065
273.098
273.302
273.526
273.783
274.083
274.44
274.866
275.376
275.985
276.705
277.553
278.542
279.683
280.979
282.411
283.894
273.095
273.293
273.51
273.759
274.049
274.394
274.807
275.299
275.887
276.583
277.403
278.362
279.473
280.743
282.158
283.64
273.092
273.282
273.492
273.731
274.01
274.341
274.736
275.207
275.769
276.435
277.219
278.137
279.203
280.428
281.806
283.27
273.088
273.27
273.471
273.699
273.965
274.281
274.656
275.103
275.635
276.263
277.003
277.867
278.87
280.024
281.329
282.734
273.084
273.258
273.448
273.665
273.918
274.216
274.569
274.99
275.488
276.074
276.761
277.559
278.48
279.532
280.713
281.978
273.109
273.335
273.586
273.873
274.211
274.614
275.098
275.68
276.378
277.21
278.195
279.354
280.707
282.275
284.08
286.113
273.108
273.332
273.58
273.865
274.199
274.598
275.078
275.655
276.346
277.172
278.15
279.302
280.649
282.216
284.021
286.056
273.106
273.327
273.57
273.85
274.178
274.57
275.042
275.609
276.289
277.101
278.066
279.204
280.541
282.102
283.91
285.959
273.104
273.319
273.557
273.829
274.15
274.532
274.991
275.544
276.207
277
277.943
279.06
280.378
281.927
283.737
285.809
273.1
273.309
273.54
273.804
274.114
274.483
274.927
275.461
276.102
276.868
277.782
278.867
280.153
281.678
283.482
285.578
273.097
273.298
273.52
273.774
274.071
274.426
274.851
275.362
275.975
276.708
277.582
278.621
279.859
281.338
283.113
285.222
273.093
273.285
273.498
273.74
274.024
274.361
274.765
275.249
275.829
276.521
277.345
278.324
279.49
280.888
282.584
284.651
273.088
273.272
273.474
273.704
273.973
274.292
274.672
275.127
275.67
276.315
277.079
277.982
279.05
280.32
281.851
283.721
273.088
273.272
273.474
273.704
273.973
274.291
274.672
275.126
275.669
276.314
277.078
277.981
279.048
280.319
281.85
283.72
273.084
273.257
273.448
273.665
273.917
274.215
274.568
274.989
275.486
276.073
276.759
277.557
278.478
279.53
280.711
281.976
273.079
273.244
273.424
273.628
273.864
274.142
274.47
274.856
275.311
275.84
276.452
277.149
277.932
278.792
279.702
280.595
273.075
273.231
273.402
273.594
273.816
274.076
274.38
274.736
275.151
275.629
276.172
276.781
277.446
278.152
278.865
279.527
273.072
273.221
273.383
273.566
273.775
274.019
274.303
274.633
275.014
275.448
275.935
276.47
277.042
277.632
278.207
278.722
273.069
273.212
273.368
273.543
273.744
273.975
274.243
274.553
274.907
275.307
275.75
276.229
276.732
277.24
277.723
278.145
273.067
273.207
273.359
273.529
273.722
273.945
274.203
274.498
274.834
275.211
275.624
276.066
276.525
276.98
277.406
277.773
273.067
273.205
273.354
273.522
273.712
273.931
274.183
274.472
274.799
275.164
275.562
275.986
276.422
276.852
277.251
277.592
273.093
273.285
273.497
273.74
274.023
274.36
274.764
275.248
275.827
276.519
277.343
278.322
279.487
280.885
282.582
284.649
273.088
273.27
273.47
273.698
273.964
274.279
274.654
275.101
275.632
276.261
277
277.863
278.866
280.02
281.326
282.731
273.083
273.255
273.444
273.659
273.908
274.202
274.549
274.96
275.444
276.011
276.668
277.421
278.271
279.211
280.211
281.198
273.079
273.242
273.421
273.623
273.857
274.131
274.453
274.831
275.273
275.784
276.367
277.022
277.742
278.509
279.288
280.013
273.075
273.231
273.401
273.593
273.814
274.071
274.372
274.722
275.127
275.589
276.11
276.684
277.301
277.939
278.564
279.124
273.072
273.222
273.386
273.57
273.78
274.024
274.308
274.636
275.012
275.437
275.91
276.423
276.964
277.511
278.032
278.489
273.071
273.217
273.376
273.554
273.758
273.993
274.264
274.577
274.934
275.334
275.775
276.247
276.738
277.227
277.685
278.08
273.07
273.214
273.371
273.547
273.747
273.977
274.244
274.549
274.896
275.283
275.708
276.16
276.627
277.087
277.516
277.882
273.097
273.298
273.519
273.773
274.07
274.424
274.849
275.359
275.971
276.704
277.577
278.616
279.854
281.333
283.108
285.218
273.091
273.282
273.491
273.729
274.008
274.338
274.733
275.204
275.765
276.43
277.214
278.131
279.197
280.422
281.801
283.265
273.087
273.266
273.464
273.688
273.949
274.257
274.622
275.055
275.566
276.166
276.862
277.662
278.566
279.565
280.626
281.666
273.082
273.252
273.439
273.651
273.895
274.183
274.521
274.919
275.385
275.925
276.542
277.237
278.002
278.818
279.646
280.415
273.078
273.241
273.418
273.619
273.85
274.119
274.435
274.803
275.23
275.719
276.27
276.878
277.532
278.21
278.874
279.469
273.075
273.232
273.402
273.594
273.814
274.07
274.367
274.712
275.108
275.557
276.057
276.6
277.173
277.753
278.307
278.791
273.073
273.226
273.391
273.577
273.79
274.037
274.322
274.65
275.026
275.448
275.913
276.413
276.932
277.45
277.936
278.355
273.073
273.223
273.386
273.57
273.779
274.021
274.3
274.62
274.985
275.394
275.842
276.32
276.813
277.301
277.755
278.143
273.1
273.309
273.539
273.802
274.111
274.48
274.923
275.456
276.096
276.861
277.774
278.859
280.145
281.669
283.475
285.572
273.095
273.292
273.509
273.757
274.047
274.391
274.802
275.294
275.88
276.576
277.395
278.354
279.464
280.734
282.15
283.633
273.09
273.276
273.481
273.714
273.985
274.306
274.686
275.138
275.673
276.3
277.028
277.864
278.808
279.848
280.946
282.014
273.085
273.262
273.455
273.675
273.929
274.228
274.581
274.996
275.483
276.047
276.693
277.42
278.22
279.072
279.933
280.73
273.081
273.249
273.434
273.642
273.882
274.162
274.491
274.875
275.321
275.832
276.408
277.045
277.729
278.438
279.131
279.75
273.078
273.24
273.417
273.616
273.845
274.11
274.42
274.78
275.193
275.662
276.185
276.753
277.353
277.96
278.539
279.045
273.076
273.234
273.405
273.598
273.82
274.076
274.372
274.715
275.107
275.548
276.034
276.557
277.1
277.642
278.151
278.589
273.075
273.231
273.4
273.59
273.808
274.059
274.349
274.684
275.064
275.491
275.959
276.459
276.976
277.486
277.961
278.368
273.103
273.318
273.555
273.826
274.146
274.527
274.985
275.536
276.198
276.989
277.931
279.048
280.365
281.914
283.726
285.799
273.098
273.301
273.524
273.78
274.079
274.435
274.86
275.368
275.975
276.694
277.541
278.529
279.67
280.966
282.399
283.882
273.092
273.284
273.495
273.735
274.015
274.347
274.74
275.208
275.76
276.409
277.162
278.026
278.997
280.064
281.183
282.264
273.088
273.269
273.469
273.695
273.958
274.266
274.631
275.061
275.564
276.148
276.816
277.568
278.393
279.27
280.153
280.966
273.084
273.257
273.446
273.661
273.908
274.198
274.538
274.935
275.396
275.925
276.521
277.18
277.888
278.619
279.333
279.969
273.08
273.247
273.429
273.634
273.87
274.144
274.465
274.836
275.264
275.75
276.291
276.879
277.499
278.127
278.725
279.247
273.078
273.24
273.417
273.616
273.844
274.108
274.415
274.769
275.175
275.631
276.134
276.675
277.239
277.799
278.326
278.779
273.077
273.237
273.412
273.608
273.832
274.091
274.391
274.737
275.131
275.572
276.057
276.575
277.11
277.638
278.13
278.55
273.105
273.325
273.568
273.846
274.173
274.563
275.032
275.597
276.275
277.085
278.048
279.186
280.522
282.082
283.892
285.943
273.1
273.307
273.536
273.798
274.104
274.468
274.904
275.426
276.047
276.784
277.65
278.658
279.818
281.129
282.568
284.047
273.094
273.291
273.506
273.752
274.039
274.378
274.782
275.261
275.828
276.492
277.263
278.146
279.136
280.219
281.35
282.435
273.09
273.275
273.479
273.711
273.98
274.296
274.67
275.11
275.627
276.225
276.91
277.679
278.522
279.415
280.312
281.134
273.085
273.262
273.456
273.676
273.929
274.226
274.574
274.981
275.454
275.996
276.608
277.283
278.007
278.754
279.481
280.128
273.082
273.252
273.438
273.648
273.89
274.171
274.499
274.88
275.319
275.817
276.372
276.975
277.61
278.252
278.863
279.396
273.08
273.246
273.426
273.63
273.863
274.134
274.448
274.811
275.227
275.695
276.211
276.766
277.344
277.918
278.457
278.92
273.079
273.243
273.421
273.621
273.851
274.116
274.424
274.778
275.182
275.635
276.132
276.663
277.212
277.754
278.258
278.688
273.107
273.33
273.576
273.859
274.191
274.588
275.065
275.638
276.327
277.15
278.125
279.276
280.622
282.188
283.994
286.029
273.101
273.312
273.544
273.81
274.121
274.492
274.934
275.464
276.096
276.844
277.722
278.743
279.914
281.233
282.674
284.148
273.096
273.295
273.514
273.764
274.055
274.4
274.81
275.297
275.873
276.548
277.331
278.225
279.227
280.319
281.455
282.543
273.091
273.279
273.487
273.722
273.995
274.316
274.696
275.144
275.669
276.277
276.972
277.752
278.607
279.51
280.414
281.241
273.087
273.266
273.463
273.686
273.944
274.245
274.599
275.013
275.494
276.045
276.666
277.351
278.086
278.842
279.578
280.231
273.083
273.256
273.445
273.658
273.903
274.189
274.522
274.91
275.356
275.862
276.426
277.039
277.684
278.336
278.955
279.495
273.081
273.249
273.433
273.639
273.876
274.151
274.471
274.84
275.263
275.738
276.263
276.828
277.414
277.998
278.545
279.015
273.08
273.246
273.427
273.631
273.864
274.133
274.446
274.806
275.217
275.677
276.183
276.723
277.281
277.831
278.343
278.78
273.108
273.332
273.581
273.865
274.2
274.6
275.081
275.659
276.353
277.182
278.164
279.32
280.671
282.239
284.042
286.069
273.102
273.314
273.548
273.816
274.13
274.503
274.95
275.484
276.121
276.874
277.759
278.785
279.961
281.283
282.725
284.196
273.097
273.297
273.518
273.77
274.063
274.411
274.824
275.315
275.896
276.576
277.364
278.264
279.271
280.367
281.507
282.594
273.092
273.282
273.49
273.727
274.003
274.326
274.709
275.161
275.69
276.303
277.004
277.789
278.649
279.556
280.464
281.293
273.087
273.268
273.467
273.691
273.951
274.255
274.611
275.029
275.513
276.069
276.695
277.386
278.125
278.887
279.626
280.282
273.084
273.258
273.448
273.663
273.91
274.198
274.534
274.925
275.375
275.885
276.454
277.071
277.722
278.378
279.001
279.543
273.082
273.251
273.436
273.644
273.883
274.16
274.482
274.855
275.281
275.76
276.29
276.859
277.45
278.038
278.589
279.062
273.081
273.248
273.43
273.635
273.87
274.142
274.457
274.82
275.234
275.699
276.208
276.753
277.315
277.87
278.386
278.826
273.064
273.195
273.338
273.497
273.677
273.884
274.122
274.394
274.7
275.041
275.412
275.806
276.21
276.607
276.974
277.287
273.06
273.185
273.321
273.471
273.642
273.837
274.06
274.314
274.6
274.916
275.26
275.623
275.994
276.357
276.692
276.977
273.057
273.176
273.305
273.447
273.608
273.792
274.001
274.238
274.504
274.797
275.114
275.448
275.787
276.117
276.421
276.678
273.055
273.168
273.29
273.426
273.578
273.751
273.947
274.169
274.417
274.689
274.982
275.288
275.598
275.899
276.174
276.406
273.053
273.161
273.278
273.407
273.552
273.716
273.902
274.111
274.343
274.597
274.869
275.152
275.437
275.712
275.962
276.174
273.051
273.156
273.268
273.393
273.532
273.689
273.866
274.065
274.285
274.525
274.78
275.045
275.31
275.565
275.796
275.991
273.05
273.152
273.262
273.383
273.519
273.671
273.842
274.034
274.245
274.475
274.719
274.971
275.223
275.464
275.682
275.865
273.049
273.15
273.259
273.379
273.512
273.662
273.83
274.018
274.226
274.451
274.689
274.935
275.179
275.413
275.625
275.802
273.064
273.197
273.342
273.503
273.687
273.898
274.14
274.418
274.733
275.084
275.469
275.879
276.303
276.722
277.112
277.448
273.061
273.188
273.325
273.477
273.651
273.849
274.077
274.336
274.63
274.956
275.311
275.688
276.076
276.458
276.813
277.116
273.058
273.178
273.308
273.453
273.616
273.803
274.016
274.259
274.531
274.833
275.16
275.506
275.859
276.205
276.524
276.797
273.055
273.17
273.294
273.431
273.585
273.761
273.962
274.188
274.442
274.721
275.023
275.339
275.661
275.974
276.262
276.507
273.053
273.163
273.281
273.412
273.559
273.726
273.915
274.128
274.366
274.626
274.905
275.197
275.492
275.777
276.038
276.259
273.051
273.157
273.271
273.397
273.539
273.698
273.879
274.081
274.306
274.551
274.813
275.085
275.359
275.623
275.863
276.065
273.05
273.154
273.265
273.388
273.525
273.68
273.854
274.049
274.265
274.5
274.75
275.009
275.268
275.517
275.742
275.932
273.05
273.152
273.262
273.383
273.519
273.671
273.842
274.034
274.245
274.475
274.719
274.971
275.223
275.464
275.682
275.865
273.066
273.202
273.351
273.517
273.707
273.925
274.178
274.468
274.8
275.172
275.583
276.027
276.49
276.954
277.394
277.777
273.063
273.192
273.333
273.49
273.669
273.875
274.111
274.383
274.691
275.035
275.414
275.82
276.242
276.662
277.057
277.399
273.06
273.183
273.316
273.465
273.634
273.827
274.048
274.301
274.587
274.905
275.252
275.622
276.004
276.381
276.734
277.037
273.057
273.174
273.301
273.442
273.601
273.783
273.991
274.227
274.492
274.786
275.105
275.442
275.787
276.126
276.44
276.709
273.054
273.167
273.288
273.423
273.574
273.746
273.942
274.164
274.412
274.685
274.979
275.288
275.602
275.909
276.191
276.43
273.053
273.161
273.278
273.407
273.553
273.718
273.904
274.114
274.348
274.605
274.88
275.167
275.458
275.738
275.995
276.213
273.051
273.157
273.271
273.397
273.539
273.698
273.879
274.081
274.306
274.551
274.813
275.085
275.359
275.622
275.862
276.065
273.051
273.156
273.268
273.393
273.532
273.689
273.866
274.065
274.285
274.524
274.78
275.045
275.31
275.565
275.796
275.99
273.068
273.21
273.365
273.538
273.736
273.966
274.234
274.543
274.898
275.302
275.752
276.245
276.768
277.304
277.822
278.283
273.065
273.2
273.346
273.51
273.697
273.913
274.163
274.451
274.781
275.153
275.566
276.015
276.487
276.967
277.426
277.831
273.062
273.189
273.328
273.483
273.659
273.862
274.095
274.364
274.669
275.011
275.388
275.794
276.218
276.644
277.047
277.398
273.059
273.18
273.312
273.459
273.625
273.816
274.035
274.284
274.567
274.881
275.226
275.593
275.973
276.351
276.704
277.01
273.056
273.173
273.299
273.438
273.596
273.777
273.983
274.217
274.48
274.771
275.087
275.422
275.765
276.102
276.415
276.683
273.054
273.167
273.288
273.422
273.574
273.746
273.942
274.164
274.411
274.684
274.979
275.288
275.602
275.908
276.19
276.43
273.053
273.163
273.281
273.412
273.559
273.726
273.915
274.128
274.365
274.626
274.905
275.197
275.492
275.777
276.038
276.259
273.053
273.161
273.278
273.407
273.552
273.716
273.902
274.111
274.343
274.597
274.869
275.152
275.437
275.711
275.962
276.173
273.072
273.22
273.382
273.565
273.775
274.019
274.305
274.638
275.024
275.467
275.969
276.526
277.13
277.765
278.399
278.98
273.068
273.209
273.362
273.535
273.732
273.962
274.229
274.539
274.896
275.303
275.761
276.265
276.806
277.367
277.918
278.415
273.065
273.198
273.343
273.506
273.692
273.907
274.156
274.444
274.773
275.146
275.562
276.014
276.495
276.985
277.458
277.878
273.061
273.189
273.327
273.481
273.656
273.858
274.09
274.358
274.662
275.003
275.38
275.787
276.212
276.641
277.048
277.403
273.059
273.18
273.312
273.459
273.625
273.816
274.034
274.284
274.566
274.881
275.225
275.593
275.973
276.35
276.704
277.009
273.057
273.174
273.301
273.442
273.601
273.783
273.991
274.227
274.492
274.786
275.104
275.442
275.787
276.126
276.44
276.708
273.055
273.17
273.294
273.431
273.585
273.761
273.961
274.188
274.441
274.721
275.022
275.339
275.66
275.974
276.262