/*--------------------------------*- C++ -*----------------------------------*\
| =========                 |                                                 |
| \\      /  F ield         | OpenFOAM: The Open Source CFD Toolbox           |
|  \\    /   O peration     | Version:  v1912                                 |
|   \\  /    A nd           | Website:  www.openfoam.com                      |
|    \\/     M anipulation  |                                                 |
\*---------------------------------------------------------------------------*/
FoamFile
{
    version     2.0;
    format      ascii;
    class       surfaceScalarField;
    location    "0.35/fluid";
    object      meshPhi;
}
// * * * * * * * * * * * * * * * * * * * * * * * * * * * * * * * * * * * * * //

dimensions      [0 3 -1 0 0 0 0];
oriented        oriented;


internalField   nonuniform List<scalar> 
41600
(
2.21344e-13
-6.15614e-13
2.27865e-13
-2.3523e-13
4.21289e-13
-1.79377e-12
6.71227e-13
-6.93243e-13
6.06584e-13
-2.88861e-12
1.10484e-12
-1.14206e-12
7.83183e-13
-3.93984e-12
1.55683e-12
-1.6112e-12
9.56565e-13
-4.97471e-12
2.05228e-12
-2.12707e-12
1.1322e-12
-6.00655e-12
2.61415e-12
-2.71428e-12
1.31626e-12
-7.0323e-12
3.26384e-12
-3.39627e-12
1.51703e-12
-8.02704e-12
4.02116e-12
-4.19564e-12
1.74783e-12
-8.93319e-12
4.90375e-12
-5.13415e-12
2.03388e-12
-9.64077e-12
5.92598e-12
-6.23315e-12
2.42739e-12
-9.95054e-12
7.0981e-12
-7.51606e-12
3.04305e-12
-9.49853e-12
8.42833e-12
-9.01913e-12
4.1266e-12
-7.60001e-12
9.93544e-12
-1.08271e-11
6.14189e-12
-2.9853e-12
1.16729e-11
-1.31565e-11
9.37878e-12
5.77764e-12
1.36416e-11
-1.6266e-11
2.12477e-11
1.72924e-11
-2.52554e-11
6.59993e-13
-1.21285e-12
6.77787e-13
-6.99743e-13
1.25615e-12
-3.53486e-12
1.99648e-12
-2.06211e-12
1.80853e-12
-5.69476e-12
3.28588e-12
-3.39675e-12
2.33483e-12
-7.77158e-12
4.62928e-12
-4.791e-12
2.85137e-12
-9.82095e-12
6.1009e-12
-6.32314e-12
3.37438e-12
-1.18733e-11
7.76896e-12
-8.0662e-12
3.92179e-12
-1.39292e-11
9.69702e-12
-1.00898e-11
4.51663e-12
-1.59504e-11
1.19438e-11
-1.24607e-11
5.19387e-12
-1.78428e-11
1.4561e-11
-1.52424e-11
6.01544e-12
-1.94292e-11
1.75888e-11
-1.84939e-11
7.10238e-12
-2.04055e-11
2.10484e-11
-2.22705e-11
8.7063e-12
-2.02781e-11
2.49352e-11
-2.66359e-11
1.13268e-11
-1.8309e-11
2.92217e-11
-3.17094e-11
1.58001e-11
-1.36215e-11
3.38614e-11
-3.77609e-11
2.2356e-11
-6.21215e-12
3.85922e-11
-4.48922e-11
2.36459e-12
4.2478e-11
-5.46186e-11
1.08671e-12
-1.77345e-12
1.11074e-12
-1.14682e-12
2.06821e-12
-5.17045e-12
3.2715e-12
-3.37926e-12
2.9774e-12
-8.33502e-12
5.3832e-12
-5.56501e-12
3.8433e-12
-1.13855e-11
7.58133e-12
-7.84605e-12
4.69281e-12
-1.44082e-11
9.98664e-12
-1.03499e-11
5.55256e-12
-1.74564e-11
1.27105e-11
-1.31957e-11
6.45115e-12
-2.0545e-11
1.5857e-11
-1.64974e-11
7.42287e-12
-2.36405e-11
1.95227e-11
-2.03639e-11
8.51455e-12
-2.66444e-11
2.37924e-11
-2.48977e-11
9.79812e-12
-2.93664e-11
2.87294e-11
-3.01893e-11
1.1398e-11
-3.14889e-11
3.43567e-11
-3.63066e-11
1.3545e-11
-3.2534e-11
4.06273e-11
-4.32841e-11
1.66439e-11
-3.18901e-11
4.73834e-11
-5.11187e-11
2.1262e-11
-2.90529e-11
5.42948e-11
-5.97577e-11
2.72109e-11
-2.44527e-11
6.06627e-11
-6.86507e-11
-1.93049e-11
6.57877e-11
-7.98871e-11
1.49382e-12
-2.2788e-12
1.51644e-12
-1.56575e-12
2.84274e-12
-6.64642e-12
4.4657e-12
-4.61284e-12
4.09176e-12
-1.07228e-11
7.34559e-12
-7.59349e-12
5.28063e-12
-1.46652e-11
1.03392e-11
-1.06996e-11
6.44652e-12
-1.85928e-11
1.36098e-11
-1.41035e-11
7.6262e-12
-2.2587e-11
1.73084e-11
-1.7967e-11
8.85846e-12
-2.6688e-11
2.15771e-11
-2.24449e-11
1.01872e-11
-3.08864e-11
2.65488e-11
-2.76863e-11
1.16654e-11
-3.51095e-11
3.23424e-11
-3.38322e-11
1.33597e-11
-3.92005e-11
3.90488e-11
-4.10054e-11
1.53611e-11
-4.28882e-11
4.67024e-11
-4.92894e-11
1.77997e-11
-4.57559e-11
5.52307e-11
-5.86933e-11
2.08515e-11
-4.72445e-11
6.43725e-11
-6.90945e-11
2.47101e-11
-4.67842e-11
7.35548e-11
-8.01462e-11
2.90751e-11
-4.43582e-11
8.16774e-11
-9.0801e-11
-4.03661e-11
8.7537e-11
-1.02545e-10
1.87389e-12
-2.7108e-12
1.88579e-12
-1.94703e-12
3.56539e-12
-7.90977e-12
5.55191e-12
-5.73455e-12
5.13047e-12
-1.27723e-11
9.12731e-12
-9.43461e-12
6.61879e-12
-1.7493e-11
1.28366e-11
-1.32827e-11
8.07724e-12
-2.22243e-11
1.68798e-11
-1.74902e-11
9.5526e-12
-2.70795e-11
2.14427e-11
-2.22557e-11
1.10943e-11
-3.21319e-11
2.67011e-11
-2.77702e-11
1.27574e-11
-3.74105e-11
3.28217e-11
-3.42199e-11
1.46038e-11
-4.28927e-11
3.99582e-11
-4.17838e-11
1.67019e-11
-4.84913e-11
4.82372e-11
-5.06239e-11
1.91216e-11
-5.40302e-11
5.77271e-11
-6.08611e-11
2.19167e-11
-5.92019e-11
6.83789e-11
-7.25274e-11
2.50763e-11
-6.34929e-11
7.99133e-11
-8.54722e-11
2.84563e-11
-6.60845e-11
9.16139e-11
-9.91795e-11
3.1553e-11
-6.60506e-11
1.01959e-10
-1.1212e-10
-6.24232e-11
1.09117e-10
-1.2508e-10
2.22012e-12
-3.05232e-12
2.21139e-12
-2.28299e-12
4.22293e-12
-8.91036e-12
6.50807e-12
-6.72145e-12
6.07381e-12
-1.44018e-11
1.06911e-11
-1.10498e-11
7.83108e-12
-1.97548e-11
1.50193e-11
-1.55392e-11
9.55033e-12
-2.51531e-11
1.97224e-11
-2.04328e-11
1.12878e-11
-3.07417e-11
2.50139e-11
-2.59584e-11
1.31043e-11
-3.66299e-11
3.10968e-11
-3.23362e-11
1.50684e-11
-4.28915e-11
3.81662e-11
-3.97831e-11
1.726e-11
-4.95665e-11
4.64078e-11
-4.85129e-11
1.97702e-11
-5.66597e-11
5.59887e-11
-5.87319e-11
2.26986e-11
-6.41338e-11
6.70336e-11
-7.06222e-11
2.61327e-11
-7.1884e-11
7.95753e-11
-8.43062e-11
3.00824e-11
-7.96529e-11
9.3444e-11
-9.97551e-11
3.43423e-11
-8.67961e-11
1.08003e-10
-1.16557e-10
3.80883e-11
-9.18844e-11
1.21502e-10
-1.32931e-10
-9.05694e-11
1.31483e-10
-1.4906e-10
2.52659e-12
-3.28815e-12
2.48789e-12
-2.56806e-12
4.80388e-12
-9.60355e-12
7.31826e-12
-7.55707e-12
6.9046e-12
-1.5538e-11
1.20104e-11
-1.24114e-11
8.89381e-12
-2.1347e-11
1.68485e-11
-1.74291e-11
1.0834e-11
-2.72404e-11
2.20842e-11
-2.2876e-11
1.27892e-11
-3.33908e-11
2.79498e-11
-2.90002e-11
1.48302e-11
-3.99394e-11
3.46662e-11
-3.60411e-11
1.70399e-11
-4.70014e-11
4.24472e-11
-4.42354e-11
1.95203e-11
-5.46749e-11
5.1501e-11
-5.38219e-11
2.24013e-11
-6.3052e-11
6.20277e-11
-6.5043e-11
2.58547e-11
-7.22365e-11
7.42085e-11
-7.81443e-11
3.01097e-11
-8.23677e-11
8.81837e-11
-9.33706e-11
3.5448e-11
-9.36396e-11
1.03985e-10
-1.10929e-10
4.21128e-11
-1.06235e-10
1.21306e-10
-1.30822e-10
4.93816e-11
-1.19538e-10
1.38587e-10
-1.51548e-10
-1.33082e-10
1.5308e-10
-1.74455e-10
2.78874e-12
2.71223e-12
-2.79914e-12
-3.4059e-12
5.29956e-12
7.9737e-12
-8.23243e-12
-9.9531e-12
7.60991e-12
1.30709e-11
-1.3505e-11
-1.61214e-11
9.78903e-12
1.83044e-11
-1.89319e-11
-2.21848e-11
1.19035e-11
2.39381e-11
-2.4792e-11
-2.83711e-11
1.40219e-11
3.02136e-11
-3.13431e-11
-3.48726e-11
1.62211e-11
3.73583e-11
-3.88315e-11
-4.18533e-11
1.85928e-11
4.55908e-11
-4.74994e-11
-4.94571e-11
2.12544e-11
5.51244e-11
-5.75912e-11
-5.78189e-11
2.43642e-11
6.61682e-11
-6.93593e-11
-6.70807e-11
2.81507e-11
7.89251e-11
-8.30746e-11
-7.74158e-11
3.29577e-11
9.35901e-11
-9.9045e-11
-8.90688e-11
3.93002e-11
1.10325e-10
-1.1763e-10
-1.02408e-10
4.78507e-11
1.29106e-10
-1.39185e-10
-1.17942e-10
5.80269e-11
1.48623e-10
-1.62556e-10
-1.35196e-10
1.67826e-10
-1.93608e-10
-1.60033e-10
2.18312e-13
-6.27304e-13
2.12143e-13
4.14833e-13
-1.8279e-12
6.24691e-13
5.95585e-13
-2.94387e-12
1.02751e-12
7.65656e-13
-4.01618e-12
1.4463e-12
9.29334e-13
-5.07348e-12
1.90372e-12
1.09027e-12
-6.13075e-12
2.42014e-12
1.2518e-12
-7.18728e-12
3.01384e-12
1.41756e-12
-8.22231e-12
3.70057e-12
1.59305e-12
-9.18648e-12
4.49206e-12
1.78963e-12
-9.98697e-12
5.39271e-12
2.0341e-12
-1.0462e-11
6.39351e-12
2.38921e-12
-1.0333e-11
7.46042e-12
2.98717e-12
-9.11578e-12
8.51217e-12
4.04367e-12
-6.0131e-12
9.37203e-12
5.59444e-12
-3.14842e-13
9.70465e-12
7.56432e-12
8.57981e-12
6.51179e-13
-1.23565e-12
6.30994e-13
1.23739e-12
-3.60138e-12
1.85799e-12
1.77662e-12
-5.80251e-12
3.05577e-12
2.28407e-12
-7.92059e-12
4.30051e-12
2.77262e-12
-1.00138e-11
5.65932e-12
3.25332e-12
-1.21153e-11
7.1926e-12
3.73599e-12
-1.42298e-11
8.95472e-12
4.23059e-12
-1.63258e-11
1.09926e-11
4.75022e-12
-1.83227e-11
1.33412e-11
5.31921e-12
-2.00704e-11
1.60133e-11
5.992e-12
-2.13221e-11
1.89798e-11
6.893e-12
-2.17041e-11
2.21336e-11
8.27177e-12
-2.07216e-11
2.52225e-11
1.04938e-11
-1.79381e-11
2.77282e-11
1.34942e-11
-1.37038e-11
2.87952e-11
-1.07885e-11
2.60174e-11
1.07296e-12
-1.80641e-12
1.03404e-12
2.03897e-12
-5.26666e-12
3.04449e-12
2.92774e-12
-8.49094e-12
5.00615e-12
3.76448e-12
-1.16012e-11
7.04298e-12
4.57083e-12
-1.4687e-11
9.26415e-12
5.36552e-12
-1.78051e-11
1.17683e-11
6.16502e-12
-2.09747e-11
1.46446e-11
6.98421e-12
-2.41702e-11
1.79711e-11
7.83787e-12
-2.73071e-11
2.18064e-11
8.74481e-12
-3.02235e-11
2.61741e-11
9.73906e-12
-3.26601e-11
3.10298e-11
1.08929e-11
-3.4256e-11
3.62022e-11
1.23411e-11
-3.46205e-11
4.12921e-11
1.42464e-11
-3.36068e-11
4.55254e-11
1.64184e-11
-3.18565e-11
4.77682e-11
-3.12802e-11
4.59503e-11
1.47646e-12
-2.32074e-12
1.41177e-12
2.80585e-12
-6.76884e-12
4.15597e-12
4.02919e-12
-1.09212e-11
6.83141e-12
5.18152e-12
-1.49396e-11
9.60565e-12
6.29354e-12
-1.89466e-11
1.26262e-11
7.39245e-12
-2.30273e-11
1.60269e-11
8.50248e-12
-2.72258e-11
1.993e-11
9.64443e-12
-3.15388e-11
2.44437e-11
1.08337e-11
-3.59046e-11
2.96531e-11
1.2076e-11
-4.01883e-11
3.55999e-11
1.33604e-11
-4.41631e-11
4.2241e-11
1.46471e-11
-4.75015e-11
4.93745e-11
1.58446e-11
-4.98153e-11
5.65155e-11
1.67965e-11
-5.08267e-11
6.27281e-11
1.73106e-11
-5.07518e-11
6.66406e-11
-5.09878e-11
6.59791e-11
1.85456e-12
-2.76028e-12
1.75578e-12
3.5243e-12
-8.05422e-12
5.16733e-12
5.06078e-12
-1.30064e-11
8.48927e-12
6.50856e-12
-1.78162e-11
1.19271e-11
7.90754e-12
-2.264e-11
1.56617e-11
9.29443e-12
-2.75941e-11
1.98578e-11
1.07034e-11
-3.27545e-11
2.46669e-11
1.21654e-11
-3.81534e-11
3.02256e-11
1.3704e-11
-4.37735e-11
3.66471e-11
1.53246e-11
-4.95376e-11
4.39991e-11
1.69928e-11
-5.52907e-11
5.22609e-11
1.8587e-11
-6.07696e-11
6.12409e-11
1.98194e-11
-6.55537e-11
7.04325e-11
2.01868e-11
-6.90161e-11
7.87958e-11
1.92958e-11
-7.04885e-11
8.46739e-11
-7.06667e-11
8.53941e-11
2.20053e-12
-3.10771e-12
2.05921e-12
4.18118e-12
-9.072e-12
6.0581e-12
6.00292e-12
-1.46636e-11
9.94518e-12
7.71899e-12
-2.01159e-11
1.39571e-11
9.37821e-12
-2.56163e-11
1.83019e-11
1.10272e-11
-3.13123e-11
2.31688e-11
1.27123e-11
-3.73143e-11
2.87332e-11
1.44798e-11
-4.36959e-11
3.51554e-11
1.63738e-11
-5.04957e-11
4.25741e-11
1.84273e-11
-5.77156e-11
5.1087e-11
2.06408e-11
-6.53139e-11
6.07107e-11
2.293e-11
-7.31787e-11
7.13001e-11
2.50168e-11
-8.10463e-11
8.23921e-11
2.62812e-11
-8.82864e-11
9.29277e-11
2.59126e-11
-9.35944e-11
1.00992e-10
-9.42768e-11
1.0353e-10
2.50829e-12
-3.34757e-12
2.31708e-12
4.76469e-12
-9.77693e-12
6.81346e-12
6.8378e-12
-1.58187e-11
1.11743e-11
8.78805e-12
-2.17337e-11
1.56598e-11
1.06718e-11
-2.77355e-11
2.04973e-11
1.25449e-11
-3.39984e-11
2.58933e-11
1.44654e-11
-4.06632e-11
3.20387e-11
1.64975e-11
-4.78421e-11
3.91093e-11
1.87133e-11
-5.56258e-11
4.72612e-11
2.11939e-11
-6.40928e-11
5.66155e-11
2.40269e-11
-7.3322e-11
6.72241e-11
2.72898e-11
-8.34045e-11
7.89989e-11
3.0995e-11
-9.4441e-11
9.15564e-11
3.49472e-11
-1.06436e-10
1.03888e-10
3.83379e-11
-1.18639e-10
1.13866e-10
-1.29562e-10
1.17718e-10
2.77295e-12
2.52653e-12
-3.46728e-12
5.26546e-12
7.42517e-12
-1.01322e-11
7.55134e-12
1.21635e-11
-1.64114e-11
9.69587e-12
1.70165e-11
-2.25841e-11
1.17606e-11
2.2223e-11
-2.88818e-11
1.38073e-11
2.79976e-11
-3.5498e-11
1.59031e-11
3.4537e-11
-4.25953e-11
1.8125e-11
4.20211e-11
-5.03121e-11
2.05677e-11
5.06092e-11
-5.87726e-11
2.3353e-11
6.04274e-11
-6.80985e-11
2.66456e-11
7.15398e-11
-7.84266e-11
3.06731e-11
8.38866e-11
-8.99325e-11
3.57389e-11
9.71425e-11
-1.02852e-10
4.21489e-11
1.1039e-10
-1.17426e-10
4.92706e-11
1.2145e-10
-1.32935e-10
1.25413e-10
-1.51533e-10
2.14387e-13
-6.37219e-13
1.8886e-13
4.06583e-13
-1.85688e-12
5.55953e-13
5.81724e-13
-2.99087e-12
9.13864e-13
7.43828e-13
-4.08111e-12
1.28505e-12
8.9572e-13
-5.15743e-12
1.68903e-12
1.03888e-12
-6.23659e-12
2.14288e-12
1.17324e-12
-7.32074e-12
2.66125e-12
1.29693e-12
-8.39461e-12
3.2556e-12
1.40601e-12
-9.41997e-12
3.9321e-12
1.49502e-12
-1.03275e-11
4.68733e-12
1.55897e-12
-1.10061e-11
5.50025e-12
1.59663e-12
-1.1288e-11
6.31768e-12
1.60747e-12
-1.09347e-11
7.02946e-12
1.55837e-12
-9.65627e-12
7.43481e-12
1.31703e-12
-7.38234e-12
7.27081e-12
-4.45827e-12
6.61235e-12
6.39734e-13
-1.25496e-12
5.6175e-13
1.21335e-12
-3.65779e-12
1.65358e-12
1.73626e-12
-5.89387e-12
2.71787e-12
2.2206e-12
-8.04667e-12
3.82117e-12
2.67503e-12
-1.01765e-11
5.02124e-12
3.10436e-12
-1.23194e-11
6.36879e-12
3.50881e-12
-1.44847e-11
7.90746e-12
3.88279e-12
-1.66498e-11
9.67164e-12
4.21338e-12
-1.87518e-11
1.16802e-11
4.47968e-12
-2.06771e-11
1.39241e-11
4.65475e-12
-2.22528e-11
1.63431e-11
4.70949e-12
-2.32529e-11
1.87853e-11
4.60645e-12
-2.34552e-11
2.09431e-11
4.25087e-12
-2.28261e-11
2.2284e-11
3.44789e-12
-2.18657e-11
2.21864e-11
-2.22784e-11
2.04218e-11
1.05496e-12
-1.83427e-12
9.20618e-13
2.00118e-12
-5.34795e-12
2.70972e-12
2.8644e-12
-8.62243e-12
4.45286e-12
3.66508e-12
-1.17823e-11
6.25835e-12
4.41837e-12
-1.49197e-11
8.22015e-12
5.13355e-12
-1.80944e-11
1.04211e-11
5.81262e-12
-2.13307e-11
1.29331e-11
6.44753e-12
-2.46118e-11
1.58138e-11
7.01552e-12
-2.78714e-11
1.90966e-11
7.47291e-12
-3.09838e-11
2.27722e-11
7.74785e-12
-3.37616e-11
2.67537e-11
7.73113e-12
-3.59795e-11
3.08185e-11
7.26518e-12
-3.74741e-11
3.45285e-11
6.15152e-12
-3.83779e-11
3.71719e-11
4.36362e-12
-3.93115e-11
3.80016e-11
-4.13244e-11
3.72582e-11
1.45339e-12
-2.35604e-12
1.25705e-12
2.75746e-12
-6.87174e-12
3.69937e-12
3.9482e-12
-1.10873e-11
6.07703e-12
5.05472e-12
-1.51676e-11
8.53638e-12
6.09967e-12
-1.92378e-11
1.12044e-11
7.09869e-12
-2.33855e-11
1.41936e-11
8.05855e-12
-2.76582e-11
1.76029e-11
8.97277e-12
-3.20588e-11
2.1513e-11
9.81324e-12
-3.65381e-11
2.59753e-11
1.05156e-11
-4.09865e-11
3.09885e-11
1.09557e-11
-4.52288e-11
3.64578e-11
1.09131e-11
-4.9036e-11
4.21281e-11
1.00357e-11
-5.21906e-11
4.74993e-11
7.90527e-12
-5.46493e-11
5.17784e-11
4.61695e-12
-5.66931e-11
5.41165e-11
-5.91761e-11
5.47024e-11
1.82825e-12
-2.8017e-12
1.56358e-12
3.46912e-12
-8.17484e-12
4.60027e-12
4.96856e-12
-1.32007e-11
7.55285e-12
6.36452e-12
-1.80821e-11
1.06008e-11
7.68812e-12
-2.29773e-11
1.38999e-11
8.96356e-12
-2.8004e-11
1.75886e-11
1.02065e-11
-3.3239e-11
2.17899e-11
1.14191e-11
-3.87157e-11
2.66064e-11
1.25799e-11
-4.44196e-11
3.21088e-11
1.36235e-11
-5.02812e-11
3.83112e-11
1.44023e-11
-5.61641e-11
4.51265e-11
1.4619e-11
-6.18472e-11
5.22953e-11
1.37416e-11
-6.70007e-11
5.92926e-11
1.10423e-11
-7.11761e-11
6.52639e-11
6.45301e-12
-7.39082e-11
6.92043e-11
-7.57516e-11
7.11419e-11
2.17287e-12
-3.15377e-12
1.83411e-12
4.12321e-12
-9.20607e-12
5.39418e-12
5.90612e-12
-1.48792e-11
8.84958e-12
7.56816e-12
-2.04098e-11
1.2407e-11
9.14931e-12
-2.59867e-11
1.62456e-11
1.06839e-11
-3.17573e-11
2.05248e-11
1.22001e-11
-3.78296e-11
2.53867e-11
1.37167e-11
-4.42726e-11
3.09521e-11
1.52348e-11
-5.1117e-11
3.73092e-11
1.67195e-11
-5.83519e-11
4.4489e-11
1.80621e-11
-6.5916e-11
5.24194e-11
1.90035e-11
-7.3668e-11
6.085e-11
1.90113e-11
-8.13105e-11
6.92423e-11
1.72053e-11
-8.82168e-11
7.66674e-11
1.30643e-11
-9.32353e-11
8.19245e-11
-9.40459e-11
8.49887e-11
2.48107e-12
-3.39669e-12
2.06417e-12
4.70762e-12
-9.91981e-12
6.06786e-12
6.74256e-12
-1.60482e-11
9.94514e-12
8.63993e-12
-2.20456e-11
1.39231e-11
1.04479e-11
-2.81265e-11
1.81979e-11
1.22108e-11
-3.44635e-11
2.29433e-11
1.39706e-11
-4.11925e-11
2.83142e-11
1.57665e-11
-4.84158e-11
3.44429e-11
1.76322e-11
-5.62069e-11
4.14284e-11
1.95878e-11
-6.46144e-11
4.93131e-11
2.16192e-11
-7.36642e-11
5.80361e-11
2.36318e-11
-8.33524e-11
6.73524e-11
2.53626e-11
-9.36103e-11
7.66996e-11
2.62637e-11
-1.04171e-10
8.50274e-11
2.56606e-11
-1.14089e-10
9.08318e-11
-1.21877e-10
9.38258e-11
2.74765e-12
2.25119e-12
-3.51775e-12
5.21233e-12
6.61393e-12
-1.0279e-11
7.46265e-12
1.08277e-11
-1.6647e-11
9.55811e-12
1.51326e-11
-2.29038e-11
1.1553e-11
1.97346e-11
-2.92811e-11
1.34994e-11
2.48147e-11
-3.59698e-11
1.54502e-11
3.05325e-11
-4.31255e-11
1.74618e-11
3.70228e-11
-5.08739e-11
1.95967e-11
4.43856e-11
-5.93159e-11
2.19251e-11
5.26629e-11
-6.85338e-11
2.45241e-11
6.17926e-11
-7.85953e-11
2.74667e-11
7.15254e-11
-8.95523e-11
3.07916e-11
8.12788e-11
-1.0142e-10
3.44175e-11
8.99238e-11
-1.14074e-10
3.77471e-11
9.57321e-11
-1.26525e-10
9.71882e-11
-1.3984e-10
2.10045e-13
-6.45247e-13
1.5902e-13
3.97513e-13
-1.88032e-12
4.67993e-13
5.6661e-13
-3.02883e-12
7.68854e-13
7.20245e-13
-4.1335e-12
1.08019e-12
8.59744e-13
-5.22516e-12
1.41787e-12
9.84448e-13
-6.32201e-12
1.79541e-12
1.09111e-12
-7.42883e-12
2.22385e-12
1.17288e-12
-8.53542e-12
2.71097e-12
1.21789e-12
-9.61372e-12
3.25917e-12
1.20762e-12
-1.06147e-11
3.86163e-12
1.11518e-12
-1.14672e-11
4.49605e-12
9.02185e-13
-1.20799e-11
5.11529e-12
5.09941e-13
-1.23503e-11
5.63746e-12
-1.54163e-13
-1.21842e-11
5.94817e-12
-1.12776e-12
-1.15581e-11
5.95668e-12
-1.0011e-11
6.04826e-12
6.27056e-13
-1.27062e-12
4.73035e-13
1.18688e-12
-3.70347e-12
1.39207e-12
1.69219e-12
-5.96773e-12
2.28677e-12
2.15189e-12
-8.14829e-12
3.21219e-12
2.57035e-12
-1.03071e-11
4.21532e-12
2.94625e-12
-1.24826e-11
5.33629e-12
3.27077e-12
-1.46882e-11
6.6081e-12
3.52442e-12
-1.69094e-11
8.05421e-12
3.6725e-12
-1.90991e-11
9.68239e-12
3.65955e-12
-2.11744e-11
1.14739e-11
3.40378e-12
-2.30198e-11
1.33655e-11
2.79164e-12
-2.4508e-11
1.52244e-11
1.67538e-12
-2.55575e-11
1.68229e-11
-9.30851e-14
-2.62401e-11
1.78531e-11
-2.36715e-12
-2.68359e-11
1.80918e-11
-2.80209e-11
1.76107e-11
1.03494e-12
-1.85686e-12
7.75325e-13
1.95943e-12
-5.41376e-12
2.28146e-12
2.79496e-12
-8.72852e-12
3.74702e-12
3.55698e-12
-1.19274e-11
5.26151e-12
4.25406e-12
-1.51046e-11
6.90137e-12
4.88616e-12
-1.83222e-11
8.73225e-12
5.4417e-12
-2.16083e-11
1.08088e-11
5.8922e-12
-2.49541e-11
1.31705e-11
6.1839e-12
-2.83082e-11
1.58328e-11
6.22661e-12
-3.15742e-11
1.87707e-11
5.88083e-12
-3.46174e-11
2.18925e-11
4.94836e-12
-3.72975e-11
2.5006e-11
3.19341e-12
-3.95556e-11
2.77918e-11
4.88778e-13
-4.15601e-11
2.98417e-11
-2.65167e-12
-4.36764e-11
3.0884e-11
-4.62653e-11
3.13083e-11
1.42756e-12
-2.38459e-12
1.05883e-12
2.70363e-12
-6.95479e-12
3.1152e-12
3.85877e-12
-1.12207e-11
5.1145e-12
4.9158e-12
-1.5349e-11
7.1776e-12
5.88916e-12
-1.94664e-11
9.40784e-12
6.78307e-12
-2.36619e-11
1.18946e-11
7.58784e-12
-2.79853e-11
1.4713e-11
8.27285e-12
-3.24433e-11
1.79192e-11
8.77455e-12
-3.69955e-11
2.1539e-11
8.97822e-12
-4.15501e-11
2.55485e-11
8.69248e-12
-4.59646e-11
2.98434e-11
7.62223e-12
-5.0063e-11
3.42023e-11
5.38526e-12
-5.36932e-11
3.82654e-11
1.72822e-12
-5.6835e-11
4.15909e-11
-2.65857e-12
-5.96108e-11
4.38618e-11
-6.23876e-11
4.53927e-11
1.79845e-12
-2.83506e-12
1.31726e-12
3.40707e-12
-8.27174e-12
3.8745e-12
4.8656e-12
-1.33558e-11
6.35757e-12
6.205e-12
-1.82915e-11
8.91468e-12
7.44728e-12
-2.3238e-11
1.16726e-11
8.60423e-12
-2.8313e-11
1.47415e-11
9.6738e-12
-3.3592e-11
1.82149e-11
1.06329e-11
-3.91067e-11
2.21644e-11
1.14237e-11
-4.48409e-11
2.66276e-11
1.19312e-11
-5.07248e-11
3.15864e-11
1.19449e-11
-5.66245e-11
3.69341e-11
1.11065e-11
-6.2326e-11
4.2435e-11
8.88358e-12
-6.75132e-11
4.77045e-11
4.76034e-12
-7.17476e-11
5.22662e-11
-7.23311e-13
-7.45296e-11
5.57201e-11
-7.60904e-11
5.82792e-11
2.14106e-12
-3.19069e-12
1.54544e-12
4.05699e-12
-9.31313e-12
4.54393e-12
5.79642e-12
-1.50499e-11
7.45031e-12
7.39865e-12
-2.06388e-11
1.04352e-11
8.89443e-12
-2.62687e-11
1.36445e-11
1.03056e-11
-3.20848e-11
1.7205e-11
1.1643e-11
-3.81902e-11
2.1225e-11
1.29005e-11
-4.46459e-11
2.57885e-11
1.40446e-11
-5.1469e-11
3.09432e-11
1.49932e-11
-5.86282e-11
3.66768e-11
1.55782e-11
-6.60297e-11
4.2881e-11
1.54829e-11
-7.34838e-11
4.93049e-11
1.41755e-11
-8.06286e-11
5.55235e-11
1.09873e-11
-8.67801e-11
6.09839e-11
6.01558e-12
-9.08327e-11
6.51759e-11
-9.05033e-11
6.83481e-11
2.44907e-12
-3.43583e-12
1.73959e-12
4.64105e-12
-1.00332e-11
5.11232e-12
6.63245e-12
-1.62285e-11
8.37409e-12
8.47026e-12
-2.22863e-11
1.17125e-11
1.01938e-11
-2.84199e-11
1.52871e-11
1.18358e-11
-3.47982e-11
1.92364e-11
1.34219e-11
-4.15489e-11
2.36782e-11
1.49687e-11
-4.87603e-11
2.87041e-11
1.64781e-11
-5.64831e-11
3.43668e-11
1.79263e-11
-6.47281e-11
4.06555e-11
1.92422e-11
-7.34597e-11
4.7455e-11
2.02684e-11
-8.25754e-11
5.44883e-11
2.0717e-11
-9.18606e-11
6.12607e-11
2.01955e-11
-1.00883e-10
6.70675e-11
1.86141e-11
-1.08732e-10
7.11969e-11
-1.14224e-10
7.39185e-11
2.71702e-12
1.89755e-12
-3.55776e-12
5.14864e-12
5.57342e-12
-1.03948e-11
7.35746e-12
9.11896e-12
-1.68309e-11
9.39645e-12
1.27325e-11
-2.31484e-11
1.13119e-11
1.65818e-11
-2.95773e-11
1.31455e-11
2.08112e-11
-3.63031e-11
1.49359e-11
2.55419e-11
-4.34714e-11
1.67197e-11
3.08667e-11
-5.11903e-11
1.85316e-11
3.6837e-11
-5.95322e-11
2.0403e-11
4.34368e-11
-6.85327e-11
2.23579e-11
5.05391e-11
-7.81848e-11
2.4403e-11
5.78391e-11
-8.84234e-11
2.65251e-11
6.47772e-11
-9.9095e-11
2.87156e-11
7.05073e-11
-1.09889e-10
3.08613e-11
7.41096e-11
-1.19904e-10
7.52199e-11
-1.30592e-10
2.05796e-13
-6.51371e-13
1.23844e-13
3.88676e-13
-1.89817e-12
3.64377e-13
5.51978e-13
-3.05773e-12
5.98341e-13
6.97594e-13
-4.17343e-12
8.40011e-13
8.25528e-13
-5.27672e-12
1.10137e-12
9.33346e-13
-6.38677e-12
1.39234e-12
1.01532e-12
-7.51027e-12
1.72069e-12
1.06113e-12
-8.64068e-12
2.09138e-12
1.05409e-12
-9.75693e-12
2.50491e-12
9.69201e-13
-1.08227e-11
2.95465e-12
7.71551e-13
-1.17881e-11
3.42316e-12
4.14772e-13
-1.25947e-11
3.87827e-12
-1.60427e-13
-1.31782e-11
4.27219e-12
-1.01706e-12
-1.34546e-11
4.55261e-12
-2.0967e-12
-1.32904e-11
4.69066e-12
-1.18823e-11
5.03106e-12
6.14642e-13
-1.28262e-12
3.68426e-13
1.16107e-12
-3.73848e-12
1.08397e-12
1.64947e-12
-6.02425e-12
1.77982e-12
2.0858e-12
-8.22582e-12
2.4982e-12
2.47062e-12
-1.04062e-11
3.27459e-12
2.79756e-12
-1.26053e-11
4.13847e-12
3.05074e-12
-1.48395e-11
5.11318e-12
3.20102e-12
-1.71e-11
6.21371e-12
3.20064e-12
-1.93499e-11
7.44206e-12
2.97761e-12
-2.1525e-11
8.77964e-12
2.43216e-12
-2.35392e-11
1.0177e-11
1.43927e-12
-2.53032e-11
1.15425e-11
-1.27153e-13
-2.67612e-11
1.27402e-11
-2.29769e-12
-2.79302e-11
1.36186e-11
-4.66925e-12
-2.88665e-11
1.40901e-11
-2.98695e-11
1.4095e-11
1.01531e-12
-1.87425e-12
6.03955e-13
1.91863e-12
-5.46437e-12
1.7768e-12
2.72747e-12
-8.80978e-12
2.91682e-12
3.4527e-12
-1.20379e-11
4.09256e-12
4.09704e-12
-1.52437e-11
5.3617e-12
4.65273e-12
-1.84909e-11
6.77264e-12
5.09769e-12
-2.18101e-11
8.36407e-12
5.38931e-12
-2.51971e-11
1.01615e-11
5.45578e-12
-2.86095e-11
1.21702e-11
5.18628e-12
-3.19669e-11
1.43639e-11
4.42418e-12
-3.51583e-11
1.66701e-11
2.97558e-12
-3.80692e-11
1.89549e-11
6.75554e-13
-4.06431e-11
2.10239e-11
-2.38759e-12
-4.29669e-11
2.26683e-11
-5.37461e-12
-4.52041e-11
2.37631e-11
-4.75158e-11
2.44305e-11
1.40212e-12
-2.40659e-12
8.2494e-13
2.65079e-12
-7.01864e-12
2.42655e-12
3.77145e-12
-1.13226e-11
3.98197e-12
4.78113e-12
-1.5486e-11
5.58372e-12
5.68699e-12
-1.96361e-11
7.30978e-12
6.48372e-12
-2.38625e-11
9.22612e-12
7.14898e-12
-2.82152e-11
1.13861e-11
7.6356e-12
-3.27023e-11
1.38262e-11
7.86012e-12
-3.72865e-11
1.65569e-11
7.68784e-12
-4.18819e-11
1.95497e-11
6.91747e-12
-4.63545e-11
2.27195e-11
5.28019e-12
-5.05337e-11
2.59089e-11
2.51087e-12
-5.4252e-11
2.88964e-11
-1.36622e-12
-5.74168e-11
3.14554e-11
-5.34274e-12
-6.00251e-11
3.3427e-11
-6.23518e-11
3.48508e-11
1.7689e-12
-2.86072e-12
1.02647e-12
3.34575e-12
-8.34599e-12
3.01852e-12
4.76441e-12
-1.34735e-11
4.95058e-12
6.0493e-12
-1.84481e-11
6.93601e-12
7.21438e-12
-2.34287e-11
9.07052e-12
8.26099e-12
-2.85317e-11
1.14355e-11
9.17349e-12
-3.38298e-11
1.40975e-11
9.91154e-12
-3.93508e-11
1.71029e-11
1.03977e-11
-4.50725e-11
2.04683e-11
1.04994e-11
-5.09168e-11
2.41658e-11
1.00038e-11
-5.6737e-11
2.81025e-11
8.59537e-12
-6.22988e-11
3.21034e-11
5.88842e-12
-6.72517e-11
3.59238e-11
1.6781e-12
-7.1105e-11
3.93134e-11
-3.19295e-12
-7.33296e-11
4.20622e-11
-7.41636e-11
4.41406e-11
2.10921e-12
-3.21897e-12
1.20448e-12
3.99095e-12
-9.39473e-12
3.54064e-12
5.68762e-12
-1.51786e-11
5.80236e-12
7.23171e-12
-2.08084e-11
8.12019e-12
8.6457e-12
-2.64716e-11
1.06043e-11
9.94089e-12
-3.23103e-11
1.33484e-11
1.11145e-11
-3.84213e-11
1.64294e-11
1.21438e-11
-4.48556e-11
1.99015e-11
1.29766e-11
-5.16149e-11
2.37859e-11
1.35156e-11
-5.86437e-11
2.80541e-11
1.35938e-11
-6.58129e-11
3.26034e-11
1.29424e-11
-7.28829e-11
3.72344e-11
1.11834e-11
-7.94326e-11
4.16588e-11
7.96869e-12
-8.47381e-11
4.55664e-11
3.70248e-12
-8.77753e-11
4.8694e-11
-8.65139e-11
5.10669e-11
2.41664e-12
-3.46565e-12
1.35601e-12
4.57387e-12
-1.01191e-11
3.98414e-12
6.52198e-12
-1.63634e-11
6.52281e-12
8.30126e-12
-2.24627e-11
9.11547e-12
9.94308e-12
-2.86278e-11
1.18828e-11
1.147e-11
-3.50225e-11
1.49272e-11
1.2895e-11
-4.17655e-11
1.8332e-11
1.42191e-11
-4.893e-11
2.21558e-11
1.5427e-11
-5.6543e-11
2.64211e-11
1.64809e-11
-6.45788e-11
3.1095e-11
1.73093e-11
-7.29479e-11
3.60603e-11
1.77959e-11
-8.14743e-11
4.10819e-11
1.77895e-11
-8.98602e-11
4.5799e-11
1.71966e-11
-9.76355e-11
4.97825e-11
1.62457e-11
-1.04061e-10
5.26681e-11
-1.08408e-10
5.45967e-11
2.68549e-12
1.47936e-12
-3.58808e-12
5.0834e-12
4.34416e-12
-1.04821e-11
7.25039e-12
7.10414e-12
-1.69677e-11
9.23318e-12
9.91106e-12
-2.33261e-11
1.10707e-11
1.28918e-11
-2.97843e-11
1.27954e-11
1.61531e-11
-3.65214e-11
1.44345e-11
1.97807e-11
-4.36718e-11
1.60108e-11
2.38333e-11
-5.13258e-11
1.75435e-11
2.83306e-11
-5.95273e-11
1.90501e-11
3.32326e-11
-6.82694e-11
2.05511e-11
3.84058e-11
-7.74841e-11
2.20804e-11
4.35807e-11
-8.70266e-11
2.37266e-11
4.83275e-11
-9.66611e-11
2.57211e-11
5.20959e-11
-1.06056e-10
2.82439e-11
5.44017e-11
-1.14541e-10
5.50969e-11
-1.24034e-10
2.02123e-13
-6.55648e-13
8.46498e-14
3.81063e-13
-1.91068e-12
2.49013e-13
5.39435e-13
-3.07809e-12
4.08772e-13
6.78309e-13
-4.20169e-12
5.73583e-13
7.96678e-13
-5.31318e-12
7.51427e-13
8.90828e-13
-6.4322e-12
9.48769e-13
9.53443e-13
-7.56655e-12
1.17052e-12
9.72329e-13
-8.71186e-12
1.41961e-12
9.28941e-13
-9.85069e-12
1.69588e-12
7.97308e-13
-1.09524e-11
1.99466e-12
5.44073e-13
-1.19743e-11
2.30512e-12
1.30028e-13
-1.28636e-11
2.60891e-12
-4.86627e-13
-1.35506e-11
2.8811e-12
-1.34077e-12
-1.39177e-11
3.09728e-12
-2.36336e-12
-1.37624e-11
3.24051e-12
-1.22188e-11
3.54851e-12
6.03909e-13
-1.29115e-12
2.51854e-13
1.13883e-12
-3.76337e-12
7.40883e-13
1.61282e-12
-6.06451e-12
1.21612e-12
2.02947e-12
-8.28099e-12
1.70608e-12
2.38644e-12
-1.04762e-11
2.23437e-12
2.67368e-12
-1.26909e-11
2.82028e-12
2.87086e-12
-1.4943e-11
3.47857e-12
2.94363e-12
-1.72267e-11
4.21809e-12
2.83945e-12
-1.95104e-11
5.03874e-12
2.48475e-12
-2.17371e-11
5.92728e-12
1.78654e-12
-2.38289e-11
6.85272e-12
6.4478e-13
-2.56978e-11
7.7619e-12
-1.01004e-12
-2.72648e-11
8.58104e-12
-3.12332e-12
-2.84726e-11
9.23226e-12
-5.27154e-12
-2.9271e-11
9.65495e-12
-2.9904e-11
9.74343e-12
9.98309e-13
-1.88674e-12
4.12934e-13
1.88341e-12
-5.50071e-12
1.21467e-12
2.66946e-12
-8.86798e-12
1.99341e-12
3.36363e-12
-1.21164e-11
2.79537e-12
3.96418e-12
-1.53414e-11
3.65896e-12
4.4578e-12
-1.8607e-11
4.61588e-12
4.81569e-12
-2.19451e-11
5.69069e-12
4.98787e-12
-2.53533e-11
6.8985e-12
4.89655e-12
-2.87926e-11
8.24035e-12
4.43119e-12
-3.21871e-11
9.6972e-12
3.45082e-12
-3.54284e-11
1.12229e-11
1.80866e-12
-3.83938e-11
1.27378e-11
-5.63181e-13
-4.09903e-11
1.41329e-11
-3.44522e-12
-4.322e-11
1.52933e-11
-5.99665e-12
-4.51613e-11
1.6122e-11
-4.6999e-11
1.66157e-11
1.38003e-12
-2.42249e-12
5.64131e-13
2.60504e-12
-7.06466e-12
1.65918e-12
3.69616e-12
-1.13956e-11
2.72185e-12
4.66574e-12
-1.55829e-11
3.81444e-12
5.51535e-12
-1.9754e-11
4.98894e-12
6.23285e-12
-2.39979e-11
6.2886e-12
6.78781e-12
-2.83639e-11
7.74739e-12
7.12471e-12
-3.28593e-11
9.38684e-12
7.15444e-12
-3.74454e-11
1.12105e-11
6.74604e-12
-4.20338e-11
1.31967e-11
5.72394e-12
-4.64836e-11
1.52896e-11
3.88734e-12
-5.06064e-11
1.73928e-11
1.10041e-12
-5.41945e-11
1.9379e-11
-2.45563e-12
-5.70863e-11
2.11192e-11
-5.80903e-12
-5.92385e-11
2.24869e-11
-6.09981e-11
2.34192e-11
1.74315e-12
-2.87929e-12
7.02066e-13
3.29243e-12
-8.39947e-12
2.0643e-12
4.67678e-12
-1.35575e-11
3.38445e-12
5.9153e-12
-1.85581e-11
4.73884e-12
7.01574e-12
-2.35593e-11
6.19132e-12
7.9719e-12
-2.86756e-11
7.7953e-12
8.75954e-12
-3.39766e-11
9.59304e-12
9.32983e-12
-3.94848e-11
1.1612e-11
9.60076e-12
-4.51702e-11
1.38584e-11
9.44677e-12
-5.09428e-11
1.63092e-11
8.68854e-12
-5.66379e-11
1.89007e-11
7.0933e-12
-6.19943e-11
2.15211e-11
4.42515e-12
-6.6625e-11
2.40245e-11
6.50192e-13
-7.00016e-11
2.62639e-11
-3.45545e-12
-7.16146e-11
2.80796e-11
-7.18171e-11
2.93701e-11
2.08129e-12
-3.23936e-12
8.23946e-13
3.93319e-12
-9.4533e-12
2.42172e-12
5.59286e-12
-1.527e-11
3.96731e-12
7.08721e-12
-2.09264e-11
5.54858e-12
8.43228e-12
-2.66084e-11
7.23905e-12
9.63173e-12
-3.24544e-11
9.10029e-12
1.06742e-11
-3.85554e-11
1.1181e-11
1.15288e-11
-4.49525e-11
1.3513e-11
1.21397e-11
-5.16327e-11
1.61043e-11
1.24183e-11
-5.85192e-11
1.89289e-11
1.22343e-11
-6.54536e-11
2.19126e-11
1.14064e-11
-7.21612e-11
2.49219e-11
9.71324e-12
-7.81899e-11
2.77767e-11
6.98473e-12
-8.28171e-11
3.02906e-11
3.55234e-12
-8.51142e-11
3.22798e-11
-8.329e-11
3.36925e-11
2.388e-12
-3.48709e-12
9.27728e-13
4.51467e-12
-1.01805e-11
2.72542e-12
6.42505e-12
-1.64586e-11
4.46047e-12
8.15391e-12
-2.25843e-11
6.22945e-12
9.7263e-12
-2.87657e-11
8.11294e-12
1.11575e-11
-3.51617e-11
1.01781e-11
1.24522e-11
-4.18822e-11
1.24778e-11
1.36038e-11
-4.89874e-11
1.50458e-11
1.45939e-11
-5.64838e-11
1.78897e-11
1.53927e-11
-6.43169e-11
2.09783e-11
1.5963e-11
-7.23595e-11
2.42233e-11
1.62703e-11
-8.03948e-11
2.74612e-11
1.63112e-11
-8.8099e-11
3.04591e-11
1.61683e-11
-9.50336e-11
3.29554e-11
1.60199e-11
-1.00619e-10
3.47202e-11
-1.04434e-10
3.58099e-11
2.65739e-12
1.01224e-12
-3.6098e-12
5.0254e-12
2.97206e-12
-1.05442e-11
7.15562e-12
4.8586e-12
-1.70636e-11
9.08957e-12
6.77406e-12
-2.34476e-11
1.08603e-11
8.80322e-12
-2.99197e-11
1.24934e-11
1.10161e-11
-3.6653e-11
1.40088e-11
1.34669e-11
-4.3772e-11
1.54221e-11
1.61892e-11
-5.13512e-11
1.67489e-11
1.91876e-11
-5.94114e-11
1.80133e-11
2.24246e-11
-6.79133e-11
1.92631e-11
2.57977e-11