/*--------------------------------*- C++ -*----------------------------------*\
| =========                 |                                                 |
| \\      /  F ield         | OpenFOAM: The Open Source CFD Toolbox           |
|  \\    /   O peration     | Version:  v1912                                 |
|   \\  /    A nd           | Website:  www.openfoam.com                      |
|    \\/     M anipulation  |                                                 |
\*---------------------------------------------------------------------------*/
FoamFile
{
    version     2.0;
    format      ascii;
    class       volVectorField;
    location    "0.35/fluid";
    object      U;
}
// * * * * * * * * * * * * * * * * * * * * * * * * * * * * * * * * * * * * * //

dimensions      [0 1 -1 0 0 0 0];


internalField   nonuniform List<vector> 
14592
(
(0.0879515 0.0166835 0.0005657)
(0.0744663 0.0104357 0.000636324)
(0.0625114 0.00595121 0.000196247)
(0.0568411 0.00266789 -0.000462571)
(0.0535823 0.00120323 -0.00130852)
(0.0517907 0.000570776 -0.00234246)
(0.0504741 0.000335649 -0.00361412)
(0.049333 0.00024787 -0.00520147)
(0.0480373 0.00021823 -0.00721441)
(0.0466628 0.000187643 -0.0098391)
(0.044674 0.00014382 -0.0133328)
(0.0426603 -1.3722e-05 -0.0181227)
(0.0388144 -0.00024083 -0.0249831)
(0.0352416 -0.000979682 -0.0345768)
(0.0250207 -0.00151986 -0.0478842)
(0.0141859 -0.00452793 -0.0481795)
(0.104085 0.0163754 0.000641169)
(0.104641 0.0141464 0.000635283)
(0.103071 0.0101097 -3.49463e-05)
(0.100897 0.0061108 -0.00104456)
(0.0987339 0.00374956 -0.00235287)
(0.0968863 0.00251249 -0.00397574)
(0.0951075 0.00199294 -0.00599261)
(0.093288 0.00185438 -0.00852812)
(0.0911195 0.00193305 -0.0117585)
(0.0886471 0.00212509 -0.015972)
(0.0851765 0.00238568 -0.0215706)
(0.0812227 0.00259461 -0.0292085)
(0.0743752 0.00275952 -0.0399784)
(0.0667343 0.00239619 -0.0548994)
(0.0483956 0.00189584 -0.0744112)
(0.0281356 -0.0018962 -0.073781)
(0.103824 0.0103639 0.000648846)
(0.107589 0.0124202 0.000619312)
(0.109882 0.010511 -9.34301e-05)
(0.110033 0.00760088 -0.00115592)
(0.109311 0.00551183 -0.0025315)
(0.10815 0.00427832 -0.00424204)
(0.106702 0.00375583 -0.00637203)
(0.105002 0.00371066 -0.00905397)
(0.102827 0.00400203 -0.0124741)
(0.100235 0.00452943 -0.0169404)
(0.0965024 0.00523804 -0.0228789)
(0.092081 0.00601728 -0.0310024)
(0.0843921 0.00684259 -0.0424573)
(0.0754449 0.00726659 -0.0584333)
(0.0545938 0.00712854 -0.0793159)
(0.0311235 0.00297132 -0.0794712)
(0.101986 0.00685074 0.000668387)
(0.105437 0.00994584 0.000657439)
(0.108583 0.00945813 -4.22153e-05)
(0.109873 0.00776288 -0.00108872)
(0.110176 0.00629524 -0.00244296)
(0.109745 0.00539002 -0.00412459)
(0.108812 0.00508468 -0.00621472)
(0.107474 0.00527338 -0.00884316)
(0.105567 0.00587675 -0.0121913)
(0.103176 0.00683739 -0.0165675)
(0.0995701 0.00813049 -0.0223909)
(0.095184 0.00969216 -0.0303981)
(0.0873296 0.0115088 -0.0417285)
(0.07799 0.0131377 -0.0577136)
(0.0562162 0.0138932 -0.078773)
(0.0312998 0.00853763 -0.0796932)
(0.101073 0.00466687 0.000702807)
(0.103828 0.00770824 0.000733562)
(0.106887 0.00806606 6.94084e-05)
(0.108635 0.00731496 -0.000940492)
(0.109548 0.00649843 -0.00224825)
(0.109685 0.00603192 -0.00386593)
(0.109247 0.00604858 -0.00586616)
(0.108336 0.00654131 -0.00837014)
(0.10682 0.00749138 -0.0115459)
(0.104807 0.00889448 -0.0156906)
(0.101569 0.0107605 -0.0211974)
(0.0975324 0.0130845 -0.0288079)
(0.0898956 0.0158702 -0.0396092)
(0.0805666 0.0186704 -0.0550998)
(0.0580782 0.0203781 -0.0756704)
(0.031647 0.0132894 -0.0775076)
(0.100682 0.00332645 0.000744864)
(0.102957 0.00592399 0.000828933)
(0.105805 0.00666207 0.000211345)
(0.107767 0.0065303 -0.000752521)
(0.10907 0.00625592 -0.00200278)
(0.109645 0.00622373 -0.0035411)
(0.109644 0.00659627 -0.00542922)
(0.109154 0.0074306 -0.00777695)
(0.108061 0.00876401 -0.0107353)
(0.106482 0.0106659 -0.0145849)
(0.103693 0.0132191 -0.0196838)
(0.100108 0.0165708 -0.0267709)
(0.092814 0.0208702 -0.0368518)
(0.0836438 0.0259249 -0.0516212)
(0.0604949 0.0304198 -0.0713867)
(0.0324702 0.0223706 -0.0744537)
(0.100536 0.00228999 0.00079435)
(0.102579 0.00434362 0.000940474)
(0.105315 0.00524451 0.000377764)
(0.107422 0.00553868 -0.000532186)
(0.109006 0.00571255 -0.00171486)
(0.10994 0.00607452 -0.00315858)
(0.110344 0.00678201 -0.00491042)
(0.110307 0.00792719 -0.00706249)
(0.109744 0.00958484 -0.00973843)
(0.108811 0.0118849 -0.0131829)
(0.106853 0.0149613 -0.0176847)
(0.104343 0.0191009 -0.0239207)
(0.0983961 0.0245523 -0.032696)
(0.0908474 0.0314229 -0.0458272)
(0.0681913 0.0382737 -0.0632243)
(0.0392563 0.0288591 -0.0676111)
(0.10049 0.00139826 0.000848151)
(0.102469 0.00287285 0.00106129)
(0.105216 0.00379706 0.000557839)
(0.107469 0.00438061 -0.000294371)
(0.109287 0.00491435 -0.00140522)
(0.110516 0.00561333 -0.00274879)
(0.111271 0.00661153 -0.00435683)
(0.111644 0.00801966 -0.00630282)
(0.111582 0.00994304 -0.00868313)
(0.11126 0.012584 -0.0117044)
(0.110105 0.0161612 -0.0155871)
(0.108618 0.0212734 -0.0209377)
(0.104019 0.028538 -0.0283622)
(0.0983285 0.0398816 -0.0397968)
(0.0768984 0.054987 -0.0548767)
(0.0506295 0.062207 -0.0620247)
(0.0879184 0.0166857 0.000328477)
(0.074286 0.0104466 0.000262207)
(0.0621177 0.00596062 -0.000161685)
(0.056261 0.00267461 -0.000741876)
(0.0528134 0.0012108 -0.00148648)
(0.0508228 0.000581066 -0.00241518)
(0.0492661 0.000350231 -0.00357808)
(0.047821 0.000267972 -0.00503909)
(0.0461271 0.000246687 -0.00688959)
(0.0442233 0.000228286 -0.00925426)
(0.041556 0.000207127 -0.012322)
(0.0386047 9.16954e-05 -0.0162404)
(0.0337606 -4.98858e-05 -0.0214633)
(0.0285348 -0.000583645 -0.0273263)
(0.0181244 -0.000900983 -0.033662)
(0.00592614 -0.0030021 -0.0243626)
(0.104039 0.0163886 0.000329919)
(0.104391 0.0141798 0.000124403)
(0.102512 0.0101512 -0.000548953)
(0.10003 0.0061571 -0.0014625)
(0.0975451 0.00380684 -0.00262889)
(0.0953522 0.00258785 -0.00409502)
(0.0931626 0.00209464 -0.00594586)
(0.0908263 0.00199142 -0.00828955)
(0.0879818 0.00211827 -0.0112752)
(0.0846112 0.00237364 -0.0151086)
(0.079967 0.00272304 -0.0200883)
(0.0744179 0.00304907 -0.0264983)
(0.0657459 0.00338637 -0.0349691)
(0.0554148 0.00326463 -0.0447394)
(0.0363208 0.00296241 -0.0547234)
(0.014143 -0.000476581 -0.0397938)
(0.103779 0.010389 0.00032445)
(0.107332 0.0124777 8.21926e-05)
(0.109304 0.0105903 -0.000637303)
(0.109129 0.00769743 -0.0016012)
(0.108065 0.00563253 -0.00282872)
(0.106537 0.00443488 -0.00437443)
(0.104652 0.00396416 -0.00632934)
(0.102405 0.00398953 -0.00880944)
(0.0995131 0.00437664 -0.0119724)
(0.0959672 0.00502841 -0.0160406)
(0.0909799 0.0059037 -0.0213289)
(0.0848548 0.00688564 -0.0281599)
(0.075184 0.00797777 -0.037184)
(0.0633493 0.00866554 -0.0476713)
(0.0416025 0.00868138 -0.0583544)
(0.0160468 0.00405647 -0.0424538)
(0.101943 0.00688319 0.000342788)
(0.105183 0.0100206 0.000115415)
(0.108013 0.00956661 -0.000591493)
(0.108984 0.00790091 -0.00153923)
(0.108955 0.00647094 -0.00274566)
(0.108167 0.00561955 -0.00426329)
(0.106812 0.00539123 -0.0061798)
(0.104943 0.00568616 -0.00860865)
(0.102341 0.00643535 -0.0117027)
(0.099023 0.00758874 -0.0156845)
(0.0941882 0.0091424 -0.0208609)
(0.0881288 0.0110252 -0.0275717)
(0.0783021 0.0132648 -0.0364501)
(0.066072 0.0152916 -0.0468456)
(0.0433501 0.0163235 -0.0574826)
(0.016223 0.0099326 -0.0418022)
(0.101031 0.00470712 0.000377553)
(0.10358 0.00780053 0.000190111)
(0.106332 0.00820231 -0.000482121)
(0.107775 0.00749145 -0.0013941)
(0.108373 0.00672477 -0.00255591)
(0.108174 0.00632837 -0.00401263)
(0.107342 0.00644506 -0.00584375)
(0.105938 0.00707689 -0.00815487)
(0.103774 0.00821952 -0.0110865)
(0.100898 0.00988054 -0.0148526)
(0.0965047 0.012099 -0.0197363)
(0.0908921 0.0148642 -0.0260868)
(0.0813563 0.0182419 -0.0344902)
(0.0692183 0.0216009 -0.0444377)
(0.0456867 0.0237539 -0.0546552)
(0.0168422 0.015114 -0.0397462)
(0.100641 0.0033731 0.000419718)
(0.102716 0.00603046 0.000284064)
(0.105268 0.00682044 -0.000342996)
(0.106942 0.00673734 -0.00121036)
(0.10795 0.00652301 -0.0023171)
(0.108217 0.00657503 -0.0036982)
(0.107855 0.00706823 -0.00542278)
(0.106918 0.00807263 -0.00758616)
(0.105235 0.00964543 -0.0103133)
(0.102872 0.0118767 -0.0138055)
(0.0990208 0.0148935 -0.018315)
(0.0939858 0.0188545 -0.0241987)
(0.0848913 0.0240161 -0.0319737)
(0.0730481 0.0299676 -0.0413199)
(0.0487543 0.0353905 -0.0509422)
(0.0180735 0.0252935 -0.037181)
(0.100496 0.00234197 0.00046868)
(0.102346 0.00446128 0.000393323)
(0.1048 0.0054197 -0.000180743)
(0.106637 0.00576849 -0.000996104)
(0.107952 0.00600972 -0.00203829)
(0.10861 0.00646607 -0.0033295)
(0.108698 0.00730906 -0.00492524)
(0.108273 0.00864686 -0.00690543)
(0.107205 0.010578 -0.00937127)
(0.105609 0.0132608 -0.0124975)
(0.102751 0.0168838 -0.0164815)
(0.0990329 0.0217629 -0.0216558)
(0.0915365 0.0282897 -0.0283983)
(0.0817188 0.036337 -0.0366017)
(0.0578472 0.0445464 -0.044845)
(0.0261182 0.0325456 -0.032752)
(0.100452 0.00145351 0.000521328)
(0.102246 0.00299694 0.000510945)
(0.104725 0.00398156 -5.89555e-06)
(0.106728 0.00462296 -0.000765693)
(0.108302 0.00522815 -0.00173924)
(0.10929 0.00602727 -0.00293507)
(0.109774 0.00716972 -0.00439451)
(0.109822 0.00878491 -0.00618124)
(0.10934 0.0110056 -0.00837249)
(0.108479 0.0140725 -0.0111147)
(0.106587 0.018273 -0.0145505)
(0.10414 0.0242777 -0.0189834)
(0.0982535 0.0329052 -0.0246486)
(0.0907754 0.0459655 -0.0316741)
(0.0681797 0.0634247 -0.0385577)
(0.0392945 0.0679124 -0.0290583)
(0.0878928 0.0166876 0.000164045)
(0.0741408 0.0104558 1.47183e-05)
(0.0617906 0.00596869 -0.000380674)
(0.0557613 0.00268051 -0.000883815)
(0.0521303 0.0012172 -0.00152502)
(0.0499396 0.000589302 -0.00233423)
(0.0481393 0.000361185 -0.00335871)
(0.0463823 0.000281789 -0.00464959)
(0.0442785 0.000264025 -0.00628183)
(0.0418179 0.000249443 -0.00833957)
(0.0384328 0.000234733 -0.0109723)
(0.0344761 0.000131489 -0.014223)
(0.0285823 1.04811e-05 -0.0184349)
(0.0218891 -0.000455321 -0.0228483)
(0.0118168 -0.000795097 -0.027162)
(0.00104677 -0.00254295 -0.0194969)
(0.104003 0.0164012 0.000119529)
(0.104187 0.0142108 -0.000200605)
(0.102043 0.0101904 -0.000845473)
(0.0992799 0.00620136 -0.0016545)
(0.0964876 0.00386122 -0.00267002)
(0.0939549 0.00265853 -0.00395441)
(0.0913574 0.00218887 -0.00559049)
(0.0885056 0.00211683 -0.00766869)
(0.0849889 0.0022853 -0.0103117)
(0.0807191 0.00259357 -0.0136654)
(0.074912 0.00301352 -0.0179593)
(0.0677897 0.00342552 -0.0233171)
(0.0574176 0.00387355 -0.0301792)
(0.0449132 0.00387953 -0.037586)
(0.0260972 0.00359139 -0.0443399)
(0.00590072 0.000156644 -0.0315656)
(0.103743 0.0104134 0.000105908)
(0.107122 0.0125326 -0.000257223)
(0.10882 0.0106663 -0.000948359)
(0.108347 0.0077902 -0.0018037)
(0.106957 0.00574798 -0.00287345)
(0.105068 0.00458367 -0.00422812)
(0.102751 0.00416098 -0.00595682)
(0.0999582 0.00425162 -0.00815727)
(0.0963551 0.00472691 -0.0109592)
(0.0918575 0.00549189 -0.0145222)
(0.0856318 0.00651627 -0.0190866)
(0.0778345 0.00767311 -0.0248042)
(0.0663235 0.00898359 -0.0321214)
(0.0521503 0.00986164 -0.0400826)
(0.0305796 0.00994407 -0.0472998)
(0.0070514 0.00482955 -0.0336095)
(0.101909 0.00691506 0.000122238)
(0.104977 0.0100927 -0.00022929)
(0.107536 0.00967089 -0.00090894)
(0.108217 0.0080334 -0.00174897)
(0.10787 0.00663893 -0.00279905)
(0.106731 0.00583802 -0.00412788)
(0.104956 0.00568191 -0.00582154)
(0.102559 0.00607633 -0.00797564)
(0.0992636 0.00696189 -0.0107157)
(0.0950168 0.00829427 -0.0142018)
(0.0889623 0.0100878 -0.0186672)
(0.0812485 0.01226 -0.0242795)
(0.0695693 0.0148725 -0.0314698)
(0.0549674 0.0172321 -0.0393503)
(0.0323379 0.0184898 -0.0465227)
(0.00716351 0.0112525 -0.0330549)
(0.100999 0.00474644 0.000155137)
(0.10338 0.00788943 -0.000159896)
(0.10587 0.00833301 -0.000807278)
(0.107034 0.00766036 -0.00161417)
(0.107331 0.00694081 -0.00262335)
(0.106802 0.00661054 -0.0038968)
(0.105577 0.0068217 -0.0055132)
(0.103678 0.00758493 -0.00756144)
(0.100865 0.00890972 -0.0101565)
(0.0971175 0.0108139 -0.0134523)
(0.0915669 0.013364 -0.017663)
(0.0843776 0.0165399 -0.0229689)
(0.0730317 0.0204647 -0.0297642)
(0.058558 0.0243342 -0.0372891)
(0.0349906 0.0269253 -0.0441595)
(0.00790038 0.0171111 -0.0314014)
(0.10061 0.00341832 0.000194984)
(0.102523 0.00613264 -7.21322e-05)
(0.104824 0.00697179 -0.000677627)
(0.106234 0.00693484 -0.00144342)
(0.106961 0.0067774 -0.00240221)
(0.106923 0.00690913 -0.00360687)
(0.1062 0.00751673 -0.00512673)
(0.104812 0.00868249 -0.00704193)
(0.102535 0.010483 -0.00945401)
(0.0993748 0.0130269 -0.0125078)
(0.0944517 0.0164837 -0.0163919)
(0.0879525 0.0210177 -0.0212992)
(0.0771235 0.0269861 -0.0275697)
(0.0630384 0.0337714 -0.0346136)
(0.0385659 0.0400965 -0.041051)
(0.00936409 0.0285547 -0.0293073)
(0.100466 0.00239196 0.000240925)
(0.102161 0.00457364 2.96894e-05)
(0.104377 0.0055865 -0.000526838)
(0.105969 0.00598708 -0.00124492)
(0.107026 0.00629227 -0.00214481)
(0.107409 0.00683824 -0.00326798)
(0.107177 0.00781026 -0.00467173)
(0.10636 0.00933184 -0.00642341)
(0.104777 0.0115252 -0.0086048)
(0.102497 0.0145751 -0.0113416)
(0.0987146 0.0187251 -0.0147792)
(0.0937477 0.0243151 -0.0191041)
(0.0847177 0.0318762 -0.024554)
(0.0729569 0.0410663 -0.0307458)
(0.0487403 0.0506576 -0.0362556)
(0.0180986 0.0369813 -0.0259583)
(0.100422 0.00150623 0.000290003)
(0.10207 0.00311484 0.000138946)
(0.104324 0.00415663 -0.000364821)
(0.106101 0.0048529 -0.0010319)
(0.107442 0.00552601 -0.00186911)
(0.108188 0.00642046 -0.00290563)
(0.108397 0.00770069 -0.00418617)
(0.108113 0.00951418 -0.00576446)
(0.1072 0.0120213 -0.00770197)
(0.105778 0.0154995 -0.0101033)
(0.103122 0.0203064 -0.0130694)
(0.09967 0.0271762 -0.0167752)
(0.0924991 0.0371318 -0.0213506)
(0.0834824 0.0518652 -0.0266342)
(0.0604691 0.07176 -0.0312003)
(0.0325413 0.07498 -0.0229805)
(0.0878734 0.0166893 5.93113e-05)
(0.0740255 0.0104637 -0.000126117)
(0.0615255 0.00597599 -0.000477061)
(0.0553488 0.00268621 -0.000898795)
(0.0515605 0.00122362 -0.00143033)
(0.0492012 0.000597948 -0.00210357)
(0.0472061 0.00037343 -0.00295795)
(0.0452168 0.000298932 -0.00402846)
(0.0428377 0.000288585 -0.00536575)
(0.0400433 0.000285439 -0.00700821)
(0.0363079 0.000290314 -0.0090406)
(0.0319422 0.000223344 -0.0114031)
(0.0258413 0.00016379 -0.0142605)
(0.0189619 -0.000168701 -0.0168433)
(0.00969106 -0.000376334 -0.0187189)
(0.000370026 -0.00184873 -0.0122702)
(0.103974 0.0164127 -7.76801e-06)
(0.104023 0.0142385 -0.000369088)
(0.10166 0.010226 -0.000951145)
(0.0986555 0.00624193 -0.00164044)
(0.0955979 0.00391105 -0.00249061)
(0.0927749 0.00272328 -0.00356574)
(0.0898422 0.00227542 -0.0049375)
(0.0865893 0.00223284 -0.00667267)
(0.0825909 0.00244163 -0.00885712)
(0.0777347 0.00280338 -0.0115699)
(0.0712787 0.00329774 -0.0149436)
(0.0634118 0.00380941 -0.0189479)
(0.0525336 0.00439738 -0.0237727)
(0.0396503 0.00459738 -0.028399)
(0.0219994 0.00448236 -0.0315921)
(0.00414958 0.00110649 -0.0207592)
(0.103716 0.0104359 -2.50598e-05)
(0.106954 0.0125825 -0.000429759)
(0.108423 0.0107353 -0.00105479)
(0.107696 0.00787457 -0.00178476)
(0.106024 0.00585265 -0.00268123)
(0.103826 0.00471799 -0.00381601)
(0.101153 0.00433799 -0.00526661)
(0.0979342 0.00448669 -0.00710605)
(0.0938179 0.00504063 -0.00942555)
(0.0886956 0.00590726 -0.0123141)
(0.0817712 0.00706695 -0.0159103)
(0.0731748 0.00838849 -0.0202003)
(0.0610979 0.00991304 -0.0253671)
(0.0465073 0.0110148 -0.0303719)
(0.02614 0.0112711 -0.0337951)
(0.00512486 0.0058558 -0.022105)
(0.101883 0.00694443 -1.12076e-05)
(0.104812 0.0101584 -0.000407099)
(0.107147 0.00976564 -0.00102225)
(0.107579 0.00815347 -0.00173864)
(0.106958 0.00679048 -0.00261787)
(0.105519 0.00603394 -0.00373025)
(0.103399 0.00594092 -0.00515078)
(0.100589 0.00642156 -0.00695077)
(0.096797 0.00742424 -0.00921799)
(0.091946 0.00890846 -0.0120421)
(0.0852122 0.0109031 -0.0155555)
(0.0767224 0.0133154 -0.0197563)
(0.0644863 0.0162342 -0.0248129)
(0.0494737 0.0188775 -0.0297331)
(0.0280139 0.0203511 -0.0330833)
(0.00532227 0.0125283 -0.0215586)
(0.100974 0.00478254 1.80393e-05)
(0.10322 0.00797031 -0.000346112)
(0.105493 0.00845145 -0.000932931)
(0.10642 0.00781289 -0.0016203)
(0.106457 0.00713491 -0.00246408)
(0.105646 0.00686237 -0.00352887)
(0.104097 0.0071552 -0.00488344)
(0.101814 0.00803051 -0.00659381)
(0.0985396 0.00950819 -0.00873951)
(0.0942324 0.0116118 -0.0114064)
(0.0880498 0.0144271 -0.0147126)
(0.0801416 0.0179199 -0.0186692)
(0.0682698 0.0222519 -0.0234175)
(0.0534115 0.0264858 -0.0280655)
(0.0309284 0.0293685 -0.0312007)
(0.00618754 0.0187288 -0.0202617)
(0.100586 0.0034596 5.34695e-05)
(0.102369 0.00622529 -0.000268636)
(0.104463 0.00710853 -0.000818739)
(0.105649 0.00711259 -0.00147026)
(0.106133 0.0070051 -0.00227044)
(0.105834 0.00720597 -0.00327615)
(0.104815 0.00791149 -0.00454834)
(0.103078 0.00921279 -0.00614623)
(0.100382 0.0112001 -0.00813889)
(0.096717 0.0139918 -0.0106067)
(0.0912207 0.017784 -0.013649)
(0.0840762 0.0227292 -0.0172921)
(0.0727629 0.0292423 -0.0216399)
(0.0583374 0.0365338 -0.0259356)
(0.0348474 0.0433276 -0.0287924)
(0.00780541 0.0307612 -0.0186833)
(0.100443 0.00243731 9.41385e-05)
(0.102014 0.00467518 -0.000178899)
(0.104034 0.00573676 -0.000686158)
(0.105417 0.00618325 -0.00129623)
(0.106251 0.00654442 -0.00204565)
(0.106399 0.00716779 -0.00298172)
(0.105905 0.00824951 -0.00415558)
(0.104783 0.00992383 -0.00561683)
(0.102839 0.0123291 -0.00741989)
(0.100133 0.0156634 -0.00963366)
(0.0958668 0.0202025 -0.0123286)
(0.0903746 0.0262802 -0.0155385)
(0.0809453 0.0344999 -0.0193054)
(0.0689533 0.0443269 -0.0230473)
(0.0455767 0.0545664 -0.025399)
(0.0168112 0.0397152 -0.0164712)
(0.1004 0.0015538 0.000137407)
(0.10193 0.00322105 -8.28253e-05)
(0.104002 0.0043139 -0.000543934)
(0.105586 0.00505873 -0.00110972)
(0.106726 0.00579115 -0.00180512)
(0.107263 0.00676761 -0.00266707)
(0.107245 0.00816423 -0.00373644)
(0.106703 0.0101408 -0.00505259)
(0.105489 0.0128756 -0.00665488)
(0.103722 0.0166644 -0.00859935)
(0.100679 0.0219017 -0.010927)
(0.0968316 0.0293295 -0.0136765)
(0.0893638 0.0400598 -0.0168271)
(0.0802609 0.0555977 -0.0199869)
(0.0579812 0.0764438 -0.0218587)
(0.0316944 0.0785194 -0.0145456)
(0.0878582 0.0166907 5.27297e-08)
(0.0739348 0.01047 -0.000183776)
(0.0613143 0.00598185 -0.000475018)
(0.055015 0.00269072 -0.00081064)
(0.0510935 0.00122849 -0.00122936)
(0.0485894 0.000604204 -0.00176078)
(0.0464266 0.00038182 -0.00243661)
(0.0442368 0.000309831 -0.00328127)
(0.0416214 0.000302756 -0.00433053)
(0.0385412 0.00030404 -0.00560271)
(0.0345089 0.00031612 -0.0071531)
(0.0298073 0.000263651 -0.00890962)
(0.0235462 0.000228322 -0.0109717)
(0.0165898 -4.24007e-05 -0.0127505)
(0.00804049 -0.000205277 -0.013862)
(-7.15068e-05 -0.00154902 -0.00909551)
(0.103952 0.0164224 -7.11599e-05)
(0.103893 0.0142619 -0.000414389)
(0.101353 0.0102561 -0.000902672)
(0.0981488 0.00627628 -0.00145768)
(0.0948678 0.00395304 -0.00213237)
(0.0917978 0.0027774 -0.00298472)
(0.0885795 0.00234706 -0.00407341)
(0.084986 0.00232778 -0.00544744)
(0.0805827 0.00256768 -0.00716791)
(0.0752388 0.00296944 -0.00927971)
(0.0682555 0.00351741 -0.011867)
(0.0598075 0.0040976 -0.0148651)
(0.0485765 0.00477711 -0.0183717)
(0.0355424 0.00509534 -0.0215833)
(0.0189778 0.00506773 -0.023488)
(0.00308949 0.00165828 -0.0153545)
(0.103694 0.0104551 -8.84641e-05)
(0.10682 0.0126249 -0.000470599)
(0.108105 0.0107942 -0.000995649)
(0.107168 0.00794648 -0.00158412)
(0.105259 0.00594161 -0.00229616)
(0.102798 0.00483171 -0.00319633)
(0.0998213 0.00448717 -0.00434836)
(0.0962405 0.00468378 -0.00580621)
(0.0916927 0.00530207 -0.007635)
(0.086051 0.00625081 -0.00988684)
(0.0785591 0.00751798 -0.0126491)
(0.069339 0.00896723 -0.0158678)
(0.0568655 0.0106533 -0.019631)
(0.042104 0.0119148 -0.0231149)
(0.022866 0.0122838 -0.025158)
(0.00396225 0.00659455 -0.0163602)
(0.101862 0.00696971 -7.74478e-05)
(0.104681 0.0102146 -0.000453169)
(0.106835 0.00984661 -0.000970257)
(0.107061 0.00825597 -0.00154754)
(0.106209 0.00691953 -0.00224548)
(0.104515 0.00620026 -0.00312753)
(0.1021 0.00616007 -0.00425541)
(0.09894 0.00671258 -0.00568188)
(0.0947293 0.00781234 -0.00746944)
(0.0893744 0.00942131 -0.00967103)
(0.0820867 0.0115792 -0.0123695)
(0.0729881 0.0141833 -0.0155206)
(0.0603568 0.0173419 -0.0192015)
(0.0451723 0.0202001 -0.0226243)
(0.0248111 0.0218277 -0.0246163)
(0.00421166 0.0135299 -0.0159562)
(0.100954 0.00481362 -5.32719e-05)
(0.103093 0.00803957 -0.000403132)
(0.105192 0.00855268 -0.000896994)
(0.105922 0.00794307 -0.00145052)
(0.10574 0.00730023 -0.00211969)
(0.104689 0.00707635 -0.00296335)
(0.102863 0.00743788 -0.00403833)
(0.100254 0.00840719 -0.00539343)
(0.0965884 0.0100126 -0.007085)
(0.0918125 0.0122818 -0.00916385)
(0.0851117 0.0153155 -0.0117028)
(0.0766355 0.0190665 -0.014669)
(0.0643859 0.0237249 -0.0181217)
(0.0493653 0.0282472 -0.0213492)
(0.0279079 0.0313541 -0.0232004)
(0.00516247 0.020069 -0.014998)
(0.100567 0.00349507 -2.39683e-05)
(0.102247 0.00630455 -0.000339332)
(0.104175 0.0072253 -0.000803088)
(0.105176 0.00726415 -0.00132735)
(0.105455 0.00719893 -0.00196114)
(0.104933 0.00745815 -0.00275712)
(0.103661 0.00824615 -0.00376594)
(0.101625 0.00966128 -0.00503126)
(0.0985743 0.0118049 -0.0066016)
(0.0944861 0.0148027 -0.00852438)
(0.0885185 0.0188715 -0.0108591)
(0.0808623 0.0241521 -0.0135865)
(0.0691991 0.0311014 -0.0167407)
(0.0546355 0.0387939 -0.0197118)
(0.0320814 0.0459469 -0.0213789)
(0.00689165 0.0326036 -0.0138137)
(0.100425 0.00247617 9.59481e-06)
(0.101899 0.0047619 -0.000265476)
(0.103763 0.00586491 -0.000694158)
(0.104973 0.00635035 -0.00118467)
(0.10562 0.00675894 -0.0017774)
(0.105567 0.00744771 -0.00251739)
(0.104846 0.00862201 -0.00344764)
(0.103463 0.0104249 -0.00460474)
(0.101211 0.013008 -0.00602652)
(0.0981429 0.0165801 -0.00775328)
(0.0934756 0.0214422 -0.00982471)
(0.0875611 0.0279211 -0.0122315)
(0.0778386 0.0366738 -0.0149685)
(0.0657713 0.047015 -0.0175561)
(0.0432069 0.0577639 -0.0189101)
(0.0160822 0.0420525 -0.0122274)
(0.100383 0.00159442 4.52186e-05)
(0.101822 0.00331157 -0.000186493)
(0.103747 0.00444783 -0.00057741)
(0.105173 0.00523387 -0.00103187)
(0.106142 0.00601654 -0.00158086)
(0.106502 0.00706235 -0.00226115)
(0.106287 0.0085573 -0.00310771)
(0.105524 0.0106713 -0.00414951)
(0.104053 0.0135975 -0.00541323)
(0.101991 0.0176459 -0.00693081)
(0.0986256 0.0232409 -0.00872138)
(0.0944598 0.0311274 -0.0107833)
(0.0867777 0.042484 -0.0130713)
(0.077697 0.05867 -0.0152468)
(0.0561274 0.0802682 -0.016301)
(0.0312908 0.0815996 -0.0107994)
(0.0878473 0.0166918 -2.41292e-05)
(0.0738682 0.0104749 -0.000176574)
(0.0611578 0.00598644 -0.000394489)
(0.0547663 0.00269442 -0.000638122)
(0.0507451 0.00123263 -0.000938973)
(0.0481347 0.000609778 -0.00132017)
(0.0458533 0.000389704 -0.00180378)
(0.0435293 0.000320895 -0.00240393)
(0.040768 0.00031852 -0.00314108)
(0.0375273 0.000326953 -0.00401761)
(0.0333567 0.000350551 -0.00505967)
(0.0285283 0.000318014 -0.00619567)
(0.0222826 0.000313611 -0.00746864)
(0.0154235 9.9831e-05 -0.00847671)
(0.00730954 -1.22077e-05 -0.00892513)
(-0.000144489 -0.00129807 -0.00567221)
(0.103936 0.0164301 -8.51392e-05)
(0.103797 0.0142802 -0.000363559)
(0.101124 0.0102797 -0.000731654)
(0.0977689 0.00630343 -0.00113812)
(0.0943193 0.00398625 -0.00162609)
(0.0910652 0.00282028 -0.00224051)
(0.0876402 0.00240399 -0.00302344)
(0.0838103 0.00240361 -0.00400592)
(0.0791425 0.0026691 -0.00522453)
(0.0735034 0.00310441 -0.00669647)
(0.0662392 0.00369799 -0.00846187)
(0.0575292 0.00433749 -0.0104439)
(0.0462353 0.00509651 -0.0126699)
(0.0333234 0.00551386 -0.0145773)
(0.0174791 0.00556765 -0.0154273)
(0.00274118 0.00210519 -0.00980386)
(0.103678 0.0104703 -9.9554e-05)
(0.106722 0.0126583 -0.000408572)
(0.107868 0.0108404 -0.000804782)
(0.106771 0.00800302 -0.00123616)
(0.104683 0.00601144 -0.00175157)
(0.102026 0.00492076 -0.00240093)
(0.0988292 0.00460367 -0.00323013)
(0.0949961 0.00483734 -0.00427379)
(0.090165 0.00550528 -0.00557116)
(0.0842065 0.00651735 -0.00714409)
(0.0764083 0.0078673 -0.00903401)
(0.066903 0.00941532 -0.0111696)
(0.0543474 0.0112262 -0.0135689)
(0.0397109 0.0126127 -0.0156513)
(0.0212342 0.0130749 -0.0165695)
(0.00358034 0.00717655 -0.0104705)
(0.101847 0.00698969 -9.15791e-05)
(0.104584 0.0102589 -0.000396244)
(0.106603 0.00991027 -0.000786647)
(0.106673 0.00833642 -0.0012097)
(0.105647 0.00702051 -0.00171472)
(0.103762 0.00632988 -0.00235079)
(0.101134 0.00633001 -0.00316245)
(0.0977297 0.00693699 -0.00418347)
(0.0932451 0.00810965 -0.0054513)
(0.087585 0.00981128 -0.00698852)
(0.0800015 0.012089 -0.00883342)
(0.0706294 0.0148322 -0.0109214)
(0.0579194 0.0181622 -0.0132629)
(0.0428627 0.0211737 -0.0153011)
(0.0232413 0.0229096 -0.0161812)
(0.00387288 0.0142689 -0.0101813)
(0.10094 0.00483815 -7.35523e-05)
(0.103 0.0080941 -0.000359119)
(0.104968 0.00863221 -0.00073231)
(0.10555 0.00804507 -0.0011378)
(0.105203 0.00742929 -0.00162168)
(0.103971 0.00724257 -0.00222975)
(0.101946 0.00765611 -0.00300303)
(0.0991094 0.00869579 -0.00397262)
(0.0951899 0.0103956 -0.00517188)
(0.0901331 0.012785 -0.00662238)
(0.0831601 0.0159742 -0.00835598)
(0.0744367 0.0199048 -0.010317)
(0.0621181 0.0247849 -0.0125046)
(0.047229 0.0294983 -0.0144135)
(0.0264619 0.0327442 -0.0152077)
(0.00488235 0.0210044 -0.00953163)
(0.100553 0.00352302 -5.16996e-05)
(0.102158 0.00636687 -0.000311665)
(0.103962 0.00731692 -0.000662538)
(0.104822 0.00738272 -0.00104642)
(0.104947 0.00734992 -0.00150436)
(0.104259 0.00765346 -0.00207766)
(0.102803 0.00850344 -0.00280295)
(0.100561 0.0100028 -0.00370792)
(0.0972807 0.0122602 -0.0048207)
(0.0929416 0.0154043 -0.00616117)
(0.0867315 0.0196642 -0.00775287)
(0.0788621 0.0251685 -0.00955074)
(0.0671439 0.0323978 -0.0115389)
(0.0527209 0.0403353 -0.0132806)
(0.030798 0.0476855 -0.0139674)
(0.00668313 0.033808 -0.00873782)
(0.100412 0.00250673 -2.67038e-05)
(0.101814 0.00482999 -0.000256748)
(0.103561 0.00596532 -0.000581655)
(0.104642 0.00648089 -0.000940695)
(0.105146 0.00692575 -0.00136862)
(0.104943 0.00766404 -0.00190125)
(0.104059 0.00890755 -0.0025699)
(0.102495 0.010805 -0.00339765)
(0.100044 0.0135161 -0.00440575)
(0.0967649 0.0172544 -0.00561046)
(0.0918958 0.0223352 -0.0070236)
(0.0858165 0.0290743 -0.00860978)
(0.0760629 0.0381572 -0.0103313)
(0.0641576 0.0487982 -0.0118382)
(0.04215 0.0598108 -0.0123596)
(0.0159816 0.043522 -0.00773554)
(0.100371 0.00162629 -2.1779e-07)
(0.101742 0.00338254 -0.000198067)
(0.103559 0.00455264 -0.000495018)
(0.104865 0.00537051 -0.000827533)
(0.105706 0.00619157 -0.00122347)
(0.105932 0.00728973 -0.00171273)
(0.105575 0.00885786 -0.00232102)
(0.104658 0.0110722 -0.00306644)
(0.103022 0.0141348 -0.00396309)
(0.100791 0.0183621 -0.00502285)
(0.0972689 0.0241941 -0.00624544)
(0.092994 0.0323689 -0.007604)
(0.0853163 0.0440966 -0.0090395)
(0.0764348 0.0606385 -0.0102958)
(0.0553619 0.0825994 -0.0106698)
(0.0313671 0.0834649 -0.00684432)
(0.0878399 0.0166924 -2.38726e-05)
(0.0738239 0.0104782 -0.000124558)
(0.0610532 0.00598945 -0.000258732)
(0.0545989 0.00269685 -0.000407066)
(0.0505094 0.00123523 -0.000588547)
(0.0478256 0.000613174 -0.000818678)
(0.0454622 0.000394312 -0.00111063)
(0.0430449 0.000327015 -0.00147234)
(0.0401822 0.000326666 -0.00191538)
(0.0368301 0.000337957 -0.00243901)
(0.0325632 0.000366024 -0.00305723)
(0.0276495 0.000341611 -0.00372385)
(0.0214157 0.000349939 -0.00446027)
(0.0146366 0.00016209 -0.00503363)
(0.00683089 6.98102e-05 -0.00526034)
(-0.000191335 -0.00118788 -0.00335646)
(0.103925 0.0164353 -6.50228e-05)
(0.103733 0.0142927 -0.000245381)
(0.100971 0.0102959 -0.000474046)
(0.0975127 0.00632202 -0.000722378)
(0.0939479 0.0040089 -0.00101802)
(0.0905675 0.00284939 -0.00138984)
(0.0870003 0.00244238 -0.0018635)
(0.083008 0.00245433 -0.00245693)
(0.0781594 0.00273621 -0.00319097)
(0.0723198 0.00319255 -0.00407266)
(0.0648672 0.00381398 -0.00512275)
(0.0559882 0.00448865 -0.00628921)
(0.0446647 0.00529358 -0.00758078)
(0.0318645 0.00576589 -0.00866674)
(0.016527 0.00586018 -0.00909899)
(0.00253879 0.00235263 -0.00578309)
(0.103668 0.0104808 -7.4187e-05)
(0.106656 0.0126812 -0.000274222)
(0.107709 0.0108722 -0.000520768)
(0.106503 0.0080419 -0.000784333)
(0.104293 0.00605939 -0.00109683)
(0.101502 0.00498179 -0.00148991)
(0.0981531 0.00468329 -0.0019918)
(0.0941467 0.00494193 -0.00262254)
(0.0891217 0.00564311 -0.00340455)
(0.082948 0.00669721 -0.00434754)
(0.0749443 0.00810145 -0.00547285)
(0.0652546 0.00971327 -0.00673127)
(0.0526574 0.0116033 -0.00812552)
(0.0381366 0.0130665 -0.00931319)
(0.0201967 0.0135821 -0.00978129)
(0.00335809 0.0075398 -0.00618052)
(0.101837 0.00700349 -6.95095e-05)
(0.104519 0.0102895 -0.000266869)
(0.106447 0.00995413 -0.000509923)
(0.106412 0.00839183 -0.000768309)
(0.105266 0.00708996 -0.00107444)
(0.103251 0.00641889 -0.0014594)
(0.100475 0.0064465 -0.00195062)
(0.0969032 0.00709049 -0.00256766)
(0.0922309 0.00831249 -0.00333189)
(0.0863629 0.0100765 -0.00425351)
(0.0785801 0.0124342 -0.00535214)
(0.0690305 0.0152694 -0.00658257)
(0.0562798 0.0187113 -0.00794327)
(0.0413391 0.0218206 -0.00910575)
(0.0222402 0.0236223 -0.00955315)
(0.0036756 0.014752 -0.00601291)
(0.10093 0.00485512 -5.83452e-05)
(0.102938 0.00813173 -0.000244008)
(0.104818 0.00868703 -0.000476514)
(0.105299 0.00811534 -0.000724119)
(0.104839 0.00751811 -0.00101736)
(0.103484 0.00735683 -0.00138526)
(0.101321 0.00780594 -0.00185319)
(0.0983276 0.00889365 -0.00243914)
(0.0942336 0.0106577 -0.00316213)
(0.0889848 0.0131287 -0.00403191)
(0.0818276 0.0164229 -0.00506456)
(0.0729429 0.0204742 -0.00622037)
(0.0605882 0.0255012 -0.00749197)
(0.0458152 0.0303406 -0.00858051)
(0.0255372 0.0336747 -0.00898235)
(0.00472065 0.0216337 -0.00563606)
(0.100544 0.00354233 -4.48938e-05)
(0.102098 0.00640987 -0.000214808)
(0.103819 0.00738007 -0.000433559)
(0.104584 0.00746439 -0.00066791)
(0.104604 0.00745383 -0.000945288)
(0.103801 0.00778774 -0.00129198)
(0.102219 0.00868015 -0.00173074)
(0.0998346 0.0102372 -0.00227751)
(0.0963959 0.0125721 -0.00294829)
(0.091885 0.0158158 -0.00375192)
(0.0855105 0.0202049 -0.00469984)
(0.0775016 0.0258598 -0.0057587)