/*--------------------------------*- C++ -*----------------------------------*\
| =========                 |                                                 |
| \\      /  F ield         | OpenFOAM: The Open Source CFD Toolbox           |
|  \\    /   O peration     | Version:  v1912                                 |
|   \\  /    A nd           | Website:  www.openfoam.com                      |
|    \\/     M anipulation  |                                                 |
\*---------------------------------------------------------------------------*/
FoamFile
{
    version     2.0;
    format      ascii;
    class       volVectorField;
    location    "0.05/solid";
    object      DD;
}
// * * * * * * * * * * * * * * * * * * * * * * * * * * * * * * * * * * * * * //

dimensions      [0 1 0 0 0 0 0];


internalField   nonuniform List<vector> 
256
(
(5.81691e-09 1.74511e-09 8.39561e-09)
(1.7025e-09 -2.81101e-10 5.51346e-09)
(-1.08882e-09 -3.40779e-10 5.75081e-09)
(-4.99737e-09 1.30612e-09 9.24476e-09)
(8.96461e-09 -2.75743e-09 1.78121e-08)
(3.41394e-09 -4.02056e-09 1.44785e-08)
(-1.26529e-09 -4.36821e-09 1.50467e-08)
(-6.51568e-09 -4.05519e-09 1.96731e-08)
(9.4378e-09 -8.601e-09 2.4423e-08)
(4.24676e-09 -9.32648e-09 2.15053e-08)
(-2.7463e-10 -9.95651e-09 2.22791e-08)
(-5.17534e-09 -1.06689e-08 2.68883e-08)
(9.71081e-09 -1.49593e-08 2.99378e-08)
(5.01082e-09 -1.5776e-08 2.72199e-08)
(1.05991e-09 -1.66578e-08 2.81239e-08)
(-3.36681e-09 -1.7724e-08 3.27934e-08)
(1.05141e-08 -2.16305e-08 3.5004e-08)
(6.07458e-09 -2.29065e-08 3.23278e-08)
(2.38268e-09 -2.40209e-08 3.33198e-08)
(-1.7902e-09 -2.50512e-08 3.81286e-08)
(1.23813e-08 -2.85571e-08 4.02153e-08)
(7.71316e-09 -3.0357e-08 3.76024e-08)
(3.43675e-09 -3.16963e-08 3.86541e-08)
(-9.6774e-10 -3.26204e-08 4.35221e-08)
(1.61761e-08 -3.60009e-08 4.6271e-08)
(1.01883e-08 -3.75896e-08 4.40158e-08)
(3.97421e-09 -3.91466e-08 4.51067e-08)
(-1.76712e-09 -4.07044e-08 4.96835e-08)
(2.20054e-08 -4.43562e-08 5.30257e-08)
(1.29395e-08 -4.36162e-08 5.16685e-08)
(4.5466e-09 -4.53497e-08 5.27876e-08)
(-4.32668e-09 -4.96776e-08 5.64847e-08)
(6.38379e-10 -2.25963e-09 5.08376e-09)
(3.78133e-10 -2.81277e-09 5.0462e-09)
(-1.14609e-10 -2.96027e-09 5.227e-09)
(-1.4017e-10 -2.85593e-09 5.64061e-09)
(1.35101e-09 -7.46121e-09 1.34991e-08)
(1.0625e-09 -8.03008e-09 1.39077e-08)
(2.1688e-10 -8.46937e-09 1.43621e-08)
(2.55222e-10 -8.9039e-09 1.48552e-08)
(1.62837e-09 -1.2994e-08 2.02371e-08)
(1.64091e-09 -1.36035e-08 2.10106e-08)
(1.08224e-09 -1.42931e-08 2.16475e-08)
(1.41599e-09 -1.5141e-08 2.21294e-08)
(1.98967e-09 -1.89648e-08 2.58653e-08)
(2.34352e-09 -1.98291e-08 2.67904e-08)
(2.2016e-09 -2.07441e-08 2.75481e-08)
(2.86823e-09 -2.1761e-08 2.81228e-08)
(2.89364e-09 -2.52163e-08 3.09576e-08)
(3.38694e-09 -2.65926e-08 3.1903e-08)
(3.34459e-09 -2.77236e-08 3.27446e-08)
(4.1502e-09 -2.86416e-08 3.34738e-08)
(5.04959e-09 -3.15054e-08 3.59874e-08)
(5.08884e-09 -3.34454e-08 3.69092e-08)
(4.19408e-09 -3.47911e-08 3.78094e-08)
(4.54613e-09 -3.55593e-08 3.86855e-08)
(9.62759e-09 -3.7507e-08 4.10055e-08)
(7.79226e-09 -3.90555e-08 4.19432e-08)
(4.4103e-09 -4.06112e-08 4.28807e-08)
(2.87225e-09 -4.21969e-08 4.38176e-08)
(1.68333e-08 -4.2728e-08 4.46449e-08)
(1.08464e-08 -4.11049e-08 4.56337e-08)
(4.62925e-09 -4.28254e-08 4.65867e-08)
(-1.11537e-09 -4.80417e-08 4.75034e-08)
(-1.94779e-09 -3.32698e-09 3.73446e-09)
(-6.31716e-10 -3.19942e-09 4.21283e-09)
(7.08511e-10 -3.34109e-09 4.344e-09)
(2.23607e-09 -3.82353e-09 4.11725e-09)
(-3.22057e-09 -9.7482e-09 1.06731e-08)
(-8.98466e-10 -9.75917e-09 1.17685e-08)
(1.62359e-09 -1.01843e-08 1.21018e-08)
(4.24823e-09 -1.106e-08 1.16357e-08)
(-3.31158e-09 -1.5728e-08 1.68032e-08)
(-5.99699e-10 -1.61329e-08 1.81999e-08)
(2.44803e-09 -1.68013e-08 1.86785e-08)
(5.46523e-09 -1.77422e-08 1.81926e-08)
(-2.90679e-09 -2.16492e-08 2.21263e-08)
(3.8526e-11 -2.25024e-08 2.36356e-08)
(3.37313e-09 -2.33916e-08 2.42186e-08)
(6.62387e-09 -2.43186e-08 2.38324e-08)
(-1.89638e-09 -2.74735e-08 2.68714e-08)
(1.06918e-09 -2.89247e-08 2.8395e-08)
(4.32951e-09 -3.0029e-08 2.90547e-08)
(7.60655e-09 -3.07849e-08 2.88154e-08)
(5.19325e-10 -3.29072e-08 3.12077e-08)
(2.83798e-09 -3.49546e-08 3.26826e-08)
(4.96397e-09 -3.62752e-08 3.33981e-08)
(7.599e-09 -3.68653e-08 3.33268e-08)
(5.68594e-09 -3.7634e-08 3.49149e-08)
(5.74778e-09 -3.91776e-08 3.62924e-08)
(4.8689e-09 -4.07109e-08 3.70431e-08)
(5.23403e-09 -4.22487e-08 3.71486e-08)
(1.3691e-08 -4.18131e-08 3.71433e-08)
(9.04315e-09 -3.98503e-08 3.83942e-08)
(4.77931e-09 -4.15511e-08 3.91546e-08)
(3.7829e-10 -4.70752e-08 3.94172e-08)
(-2.74284e-09 -3.6993e-09 2.92738e-09)
(-9.9684e-10 -3.28515e-09 3.20664e-09)
(9.74181e-10 -3.40825e-09 3.29968e-09)
(2.89662e-09 -4.09527e-09 3.19143e-09)
(-4.89954e-09 -1.08061e-08 8.51021e-09)
(-1.73162e-09 -1.05119e-08 9.17691e-09)
(2.11621e-09 -1.08933e-08 9.41473e-09)
(5.54711e-09 -1.19425e-08 9.18443e-09)
(-5.30229e-09 -1.72384e-08 1.36514e-08)
(-1.64753e-09 -1.74845e-08 1.4524e-08)
(2.91102e-09 -1.81018e-08 1.48705e-08)
(6.84103e-09 -1.90646e-08 1.46444e-08)
(-4.944e-09 -2.32444e-08 1.82427e-08)
(-1.09559e-09 -2.40567e-08 1.92044e-08)
(3.70432e-09 -2.4896e-08 1.96346e-08)
(7.83581e-09 -2.57374e-08 1.949e-08)
(-3.88926e-09 -2.87942e-08 2.22872e-08)
(-9.97774e-11 -3.0272e-08 2.32717e-08)
(4.51518e-09 -3.13309e-08 2.37674e-08)
(8.59895e-09 -3.19507e-08 2.37384e-08)
(-1.34144e-09 -3.36745e-08 2.57615e-08)
(1.68343e-09 -3.57812e-08 2.67207e-08)
(4.99367e-09 -3.70622e-08 2.72663e-08)
(8.32121e-09 -3.75019e-08 2.73706e-08)
(4.08175e-09 -3.78231e-08 2.84788e-08)
(4.66883e-09 -3.94059e-08 2.93714e-08)
(4.71636e-09 -4.09055e-08 2.99486e-08)
(5.59481e-09 -4.23299e-08 3.01939e-08)
(1.23933e-08 -4.18364e-08 3.011e-08)
(8.04987e-09 -3.98336e-08 3.09269e-08)
(4.46323e-09 -4.15065e-08 3.15095e-08)
(3.53167e-10 -4.70108e-08 3.18562e-08)
(-2.88348e-09 -3.86123e-09 2.23162e-09)
(-1.06606e-09 -3.34928e-09 2.33274e-09)
(9.89171e-10 -3.45711e-09 2.39675e-09)
(2.95419e-09 -4.1857e-09 2.40995e-09)
(-5.26717e-09 -1.13018e-08 6.52532e-09)
(-1.9485e-09 -1.08751e-08 6.79749e-09)
(2.1265e-09 -1.12159e-08 6.96211e-09)
(5.67323e-09 -1.22935e-08 6.98575e-09)
(-5.81846e-09 -1.8013e-08 1.0543e-08)
(-1.98195e-09 -1.81654e-08 1.09279e-08)
(2.86615e-09 -1.87321e-08 1.11703e-08)
(6.94999e-09 -1.96698e-08 1.12305e-08)
(-5.52696e-09 -2.41163e-08 1.41756e-08)
(-1.50946e-09 -2.48834e-08 1.46245e-08)
(3.57049e-09 -2.56719e-08 1.49298e-08)
(7.84928e-09 -2.64427e-08 1.50542e-08)
(-4.48531e-09 -2.95585e-08 1.73482e-08)
(-5.64744e-10 -3.10274e-08 1.7827e-08)
(4.28327e-09 -3.20394e-08 1.81842e-08)
(8.48034e-09 -3.25637e-08 1.83884e-08)
(-1.91177e-09 -3.42166e-08 1.99835e-08)
(1.19127e-09 -3.63374e-08 2.04654e-08)
(4.66522e-09 -3.75769e-08 2.08637e-08)
(8.05573e-09 -3.79121e-08 2.11543e-08)
(3.57053e-09 -3.82111e-08 2.19772e-08)
(4.17061e-09 -3.98162e-08 2.24395e-08)
(4.29542e-09 -4.12793e-08 2.28639e-08)
(5.17286e-09 -4.26035e-08 2.32375e-08)
(1.19581e-08 -4.22624e-08 2.32343e-08)
(7.55333e-09 -4.02729e-08 2.36695e-08)
(3.96239e-09 -4.19141e-08 2.40962e-08)
(-2.24429e-10 -4.73372e-08 2.45165e-08)
(-2.87117e-09 -3.93173e-09 1.5708e-09)
(-1.06148e-09 -3.39598e-09 1.59599e-09)
(9.55116e-10 -3.49305e-09 1.63748e-09)
(2.89231e-09 -4.20887e-09 1.68492e-09)
(-5.25964e-09 -1.15329e-08 4.60721e-09)
(-1.97213e-09 -1.10594e-08 4.69287e-09)
(2.0274e-09 -1.13702e-08 4.80018e-09)
(5.51752e-09 -1.24219e-08 4.90433e-09)
(-5.8519e-09 -1.83923e-08 7.46711e-09)
(-2.05791e-09 -1.84976e-08 7.60503e-09)
(2.70476e-09 -1.9025e-08 7.76435e-09)
(6.72489e-09 -1.99216e-08 7.91534e-09)
(-5.60625e-09 -2.4573e-08 1.00636e-08)
(-1.64143e-09 -2.53039e-08 1.02415e-08)
(3.34543e-09 -2.60511e-08 1.04443e-08)
(7.55456e-09 -2.67677e-08 1.06437e-08)
(-4.59856e-09 -3.00096e-08 1.232e-08)
(-7.45802e-10 -3.14553e-08 1.25258e-08)
(3.9949e-09 -3.24281e-08 1.27659e-08)
(8.1101e-09 -3.28907e-08 1.30161e-08)
(-2.04754e-09 -3.46302e-08 1.41696e-08)
(9.70148e-10 -3.67389e-08 1.43916e-08)
(4.31895e-09 -3.79424e-08 1.4662e-08)
(7.61191e-09 -3.82134e-08 1.49623e-08)
(3.42057e-09 -3.86305e-08 1.5561e-08)
(3.91763e-09 -4.02304e-08 1.57877e-08)
(3.89921e-09 -4.1661e-08 1.60775e-08)
(4.66227e-09 -4.29222e-08 1.64209e-08)
(1.18056e-08 -4.27413e-08 1.64733e-08)
(7.27605e-09 -4.07462e-08 1.66942e-08)
(3.52236e-09 -4.23584e-08 1.69844e-08)
(-8.01547e-10 -4.77257e-08 1.73475e-08)
(-2.84972e-09 -3.96028e-09 9.32615e-10)
(-1.0524e-09 -3.4218e-09 9.36365e-10)
(9.30763e-10 -3.51208e-09 9.59635e-10)
(2.84311e-09 -4.20864e-09 9.96125e-10)
(-5.21047e-09 -1.16355e-08 2.73967e-09)
(-1.96512e-09 -1.11482e-08 2.76215e-09)
(1.9518e-09 -1.14398e-08 2.82259e-09)
(5.38355e-09 -1.246e-08 2.90596e-09)
(-5.80577e-09 -1.85692e-08 4.44634e-09)
(-2.07302e-09 -1.8653e-08 4.49025e-09)
(2.58196e-09 -1.91544e-08 4.58052e-09)
(6.52693e-09 -2.00154e-08 4.69895e-09)
(-5.58331e-09 -2.48033e-08 5.99768e-09)
(-1.68968e-09 -2.55104e-08 6.06262e-09)
(3.17981e-09 -2.62294e-08 6.17838e-09)
(7.30632e-09 -2.69091e-08 6.32745e-09)
(-4.60467e-09 -3.02692e-08 7.34298e-09)
(-8.29398e-10 -3.16931e-08 7.42662e-09)
(3.79013e-09 -3.26383e-08 7.56474e-09)
(7.81825e-09 -3.30638e-08 7.74229e-09)
(-2.08241e-09 -3.49141e-08 8.44183e-09)
(8.53446e-10 -3.70045e-08 8.54039e-09)
(4.07977e-09 -3.81821e-08 8.697e-09)
(7.28253e-09 -3.8417e-08 8.9003e-09)
(3.35984e-09 -3.89537e-08 9.2707e-09)
(3.77186e-09 -4.05376e-08 9.37852e-09)
(3.63074e-09 -4.19443e-08 9.54692e-09)
(4.30096e-09 -4.31717e-08 9.77058e-09)
(1.17264e-08 -4.31104e-08 9.82595e-09)
(7.10635e-09 -4.1097e-08 9.93387e-09)
(3.22777e-09 -4.26876e-08 1.01021e-08)
(-1.19497e-09 -4.80278e-08 1.03338e-08)
(-2.84064e-09 -3.97017e-09 3.09171e-10)
(-1.04881e-09 -3.43225e-09 3.09319e-10)
(9.20648e-10 -3.51922e-09 3.16813e-10)
(2.82153e-09 -4.20487e-09 3.29553e-10)
(-5.18675e-09 -1.1674e-08 9.08769e-10)
(-1.96164e-09 -1.11832e-08 9.13125e-10)
(1.91744e-09 -1.14654e-08 9.32633e-10)
(5.32106e-09 -1.24673e-08 9.62277e-10)
(-5.77969e-09 -1.8639e-08 1.4756e-09)
(-2.07836e-09 -1.87143e-08 1.48573e-09)
(2.52364e-09 -1.92028e-08 1.51496e-09)
(6.43027e-09 -2.00442e-08 1.55718e-09)
(-5.5664e-09 -2.49005e-08 1.99101e-09)
(-1.71028e-09 -2.5596e-08 2.00764e-09)
(3.09978e-09 -2.63009e-08 2.04526e-09)
(7.18303e-09 -2.69617e-08 2.09798e-09)
(-4.60299e-09 -3.03896e-08 2.4377e-09)
(-8.67943e-10 -3.18011e-08 2.4608e-09)
(3.69081e-09 -3.27321e-08 2.50586e-09)
(7.67384e-09 -3.314e-08 2.56782e-09)
(-2.09766e-09 -3.50581e-08 2.80244e-09)
(7.97086e-10 -3.71366e-08 2.83124e-09)
(3.96366e-09 -3.83007e-08 2.88252e-09)
(7.12104e-09 -3.8519e-08 2.95246e-09)
(3.32876e-09 -3.91243e-08 3.07826e-09)
(3.69945e-09 -4.06965e-08 3.11107e-09)
(3.50008e-09 -4.20905e-08 3.16629e-09)
(4.12498e-09 -4.33033e-08 3.24227e-09)
(1.16827e-08 -4.33054e-08 3.26468e-09)
(7.02024e-09 -4.12782e-08 3.29794e-09)
(3.08412e-09 -4.28573e-08 3.35303e-09)
(-1.38532e-09 -4.81871e-08 3.43126e-09)
)
;

boundaryField
{
    interface
    {
        type            calculated;
        value           nonuniform List<vector> 
192
(
(-9.08719e-09 5.44043e-09 7.14991e-09)
(-6.78893e-09 -1.85229e-09 1.58298e-08)
(-6.4214e-09 -8.41455e-09 2.23061e-08)
(-6.11044e-09 -1.46904e-08 2.78171e-08)
(-5.13143e-09 -2.0963e-08 3.29099e-08)
(-2.87808e-09 -2.71417e-08 3.82068e-08)
(1.62545e-09 -3.35951e-08 4.4464e-08)
(1.18896e-08 -4.25368e-08 5.15278e-08)
(-2.1371e-08 -1.76236e-09 3.14263e-09)
(-2.09884e-08 -7.2138e-09 1.04528e-08)
(-2.07873e-08 -1.28344e-08 1.70497e-08)
(-2.04005e-08 -1.86487e-08 2.27109e-08)
(-1.93005e-08 -2.44515e-08 2.7855e-08)
(-1.66501e-08 -2.98221e-08 3.30219e-08)
(-1.10669e-08 -3.45613e-08 3.8383e-08)
(2.28036e-09 -4.0597e-08 4.25663e-08)
(-2.52348e-08 -4.61916e-09 2.88917e-09)
(-2.66958e-08 -1.00893e-08 9.11044e-09)
(-2.68469e-08 -1.56496e-08 1.50705e-08)
(-2.64125e-08 -2.12956e-08 2.03928e-08)
(-2.51935e-08 -2.66172e-08 2.51757e-08)
(-2.22527e-08 -3.10118e-08 2.96099e-08)
(-1.60281e-08 -3.43413e-08 3.35284e-08)
(-1.57791e-09 -3.94722e-08 3.60332e-08)
(-2.67045e-08 -5.60999e-09 2.69348e-09)
(-2.89982e-08 -1.14461e-08 7.99856e-09)
(-2.9451e-08 -1.72497e-08 1.30247e-08)
(-2.9053e-08 -2.28913e-08 1.75876e-08)
(-2.77725e-08 -2.78938e-08 2.16399e-08)
(-2.46732e-08 -3.16819e-08 2.51537e-08)
(-1.8158e-08 -3.43896e-08 2.79499e-08)
(-3.27817e-09 -3.94001e-08 2.96767e-08)
(-2.71794e-08 -5.89899e-09 2.19955e-09)
(-2.96847e-08 -1.20357e-08 6.43529e-09)
(-3.02779e-08 -1.8078e-08 1.04056e-08)
(-2.9936e-08 -2.37831e-08 1.401e-08)
(-2.86541e-08 -2.86549e-08 1.71708e-08)
(-2.5511e-08 -3.22028e-08 1.98069e-08)
(-1.89187e-08 -3.47439e-08 2.18119e-08)
(-3.9211e-09 -3.97985e-08 2.30874e-08)
(-2.73224e-08 -5.96454e-09 1.57924e-09)
(-2.98267e-08 -1.22782e-08 4.62138e-09)
(-3.04547e-08 -1.8479e-08 7.47028e-09)
(-3.01502e-08 -2.42598e-08 1.00495e-08)
(-2.88923e-08 -2.91201e-08 1.22902e-08)
(-2.57611e-08 -3.26256e-08 1.41269e-08)
(-1.91753e-08 -3.51675e-08 1.55083e-08)
(-4.16653e-09 -4.02792e-08 1.64153e-08)
(-2.7369e-08 -5.97544e-09 9.4025e-10)
(-2.9842e-08 -1.23746e-08 2.75789e-09)
(-3.04685e-08 -1.86625e-08 4.46439e-09)
(-3.01818e-08 -2.45031e-08 6.00763e-09)
(-2.89469e-08 -2.93941e-08 7.34186e-09)
(-2.58391e-08 -3.29231e-08 8.42928e-09)
(-1.92761e-08 -3.55017e-08 9.24773e-09)
(-4.28154e-09 -4.06575e-08 9.7952e-09)
(-2.73852e-08 -5.97713e-09 3.11442e-10)
(-2.98417e-08 -1.24089e-08 9.14699e-10)
(-3.04634e-08 -1.8734e-08 1.48212e-09)
(-3.01832e-08 -2.46065e-08 1.99523e-09)
(-2.89608e-08 -2.95226e-08 2.43811e-09)
(-2.58676e-08 -3.30753e-08 2.79862e-09)
(-1.93196e-08 -3.56794e-08 3.07048e-09)
(-4.33624e-09 -4.08591e-08 3.25376e-09)
(5.71912e-09 8.29699e-09 -8.21808e-09)
(9.1223e-09 1.24939e-09 2.93071e-10)
(9.76679e-09 -5.56956e-09 6.82501e-09)
(1.00917e-08 -1.23141e-08 1.24173e-08)
(1.08921e-08 -1.90611e-08 1.76726e-08)
(1.27323e-08 -2.57403e-08 2.32475e-08)
(1.65157e-08 -3.27983e-08 3.00089e-08)
(2.2415e-08 -4.2376e-08 4.14064e-08)
(1.0412e-09 4.71688e-09 -1.69995e-08)
(2.72257e-09 -2.26005e-11 -8.85674e-09)
(3.71076e-09 -6.14113e-09 -2.0158e-09)
(4.55731e-09 -1.30704e-08 3.72358e-09)
(5.65352e-09 -2.03109e-08 9.01719e-09)
(7.32285e-09 -2.7435e-08 1.47226e-08)
(9.89724e-09 -3.40731e-08 2.20908e-08)
(1.288e-08 -4.14839e-08 3.59981e-08)
(-1.56083e-10 4.85862e-09 -1.68541e-08)
(3.33367e-11 -2.36135e-10 -8.39215e-09)
(1.07109e-09 -6.68722e-09 -1.34461e-09)
(2.45327e-09 -1.38976e-08 4.52771e-09)
(3.83286e-09 -2.13883e-08 9.91115e-09)
(4.91666e-09 -2.87496e-08 1.56782e-08)
(5.39113e-09 -3.56132e-08 2.30911e-08)
(5.75065e-09 -4.32101e-08 3.7058e-08)
(-4.64243e-09 8.53563e-09 -7.27029e-09)
(-6.10211e-09 3.55705e-10 2.26552e-09)
(-4.73755e-09 -7.38883e-09 9.41214e-09)
(-2.84953e-09 -1.49139e-08 1.5402e-08)
(-1.17737e-09 -2.23691e-08 2.09305e-08)
(-2.64076e-10 -2.97316e-08 2.66887e-08)
(-1.01474e-09 -3.74637e-08 3.35505e-08)
(-3.62951e-09 -4.76832e-08 4.49925e-08)
(1.19819e-08 4.18445e-09 8.20785e-09)
(1.13313e-08 -4.01062e-09 1.81871e-08)
(1.2778e-08 -1.1456e-08 2.54593e-08)
(1.45522e-08 -1.85702e-08 3.14933e-08)
(1.59623e-08 -2.56508e-08 3.69499e-08)
(1.64023e-08 -3.2626e-08 4.24954e-08)
(1.48473e-08 -3.98645e-08 4.88999e-08)
(7.65539e-09 -4.95453e-08 5.60304e-08)
(2.41104e-08 -2.88461e-09 3.83218e-09)
(2.48354e-08 -9.29284e-09 1.21642e-08)
(2.60802e-08 -1.57942e-08 1.94693e-08)
(2.7521e-08 -2.24444e-08 2.56251e-08)
(2.86265e-08 -2.90609e-08 3.11246e-08)
(2.85425e-08 -3.52396e-08 3.65438e-08)
(2.58271e-08 -4.07813e-08 4.20673e-08)
(1.54976e-08 -4.75815e-08 4.63272e-08)
(2.77488e-08 -5.44452e-09 3.35803e-09)
(2.99667e-08 -1.18671e-08 1.03128e-08)
(3.12602e-08 -1.8336e-08 1.68364e-08)
(3.24094e-08 -2.48537e-08 2.25905e-08)
(3.32077e-08 -3.10286e-08 2.77033e-08)
(3.26937e-08 -3.6272e-08 3.23831e-08)
(2.92393e-08 -4.04433e-08 3.6468e-08)
(1.77469e-08 -4.63768e-08 3.90501e-08)
(2.90299e-08 -6.2061e-09 3.01188e-09)
(3.18454e-08 -1.29285e-08 8.82817e-09)
(3.32133e-08 -1.96366e-08 1.42732e-08)
(3.41939e-08 -2.61768e-08 1.91837e-08)
(3.47592e-08 -3.20718e-08 2.352e-08)
(3.39513e-08 -3.67507e-08 2.72564e-08)
(3.01043e-08 -4.03376e-08 3.02092e-08)
(1.81107e-08 -4.61806e-08 3.20069e-08)
(2.93736e-08 -6.34245e-09 2.41101e-09)
(3.22473e-08 -1.32923e-08 6.99314e-09)
(3.35947e-08 -2.02137e-08 1.12596e-08)
(3.44732e-08 -2.68251e-08 1.51245e-08)
(3.48951e-08 -3.26152e-08 1.85107e-08)
(3.39243e-08 -3.7085e-08 2.13316e-08)
(2.99049e-08 -4.05332e-08 2.34707e-08)
(1.77189e-08 -4.64415e-08 2.48052e-08)
(2.94332e-08 -6.31122e-09 1.71267e-09)
(3.22096e-08 -1.33799e-08 4.97675e-09)
(3.3484e-08 -2.04307e-08 8.02111e-09)
(3.42871e-08 -2.71139e-08 1.07795e-08)
(3.46257e-08 -3.29049e-08 1.31817e-08)
(3.35724e-08 -3.73512e-08 1.51557e-08)
(2.94797e-08 -4.08186e-08 1.66389e-08)
(1.72165e-08 -4.67985e-08 1.75901e-08)
(2.94313e-08 -6.2652e-09 1.01381e-09)
(3.21203e-08 -1.33808e-08 2.95507e-09)
(3.33275e-08 -2.04959e-08 4.77261e-09)
(3.40764e-08 -2.72318e-08 6.42034e-09)
(3.4367e-08 -3.30577e-08 7.85137e-09)
(3.32717e-08 -3.75374e-08 9.02303e-09)
(2.9145e-08 -4.10521e-08 9.90493e-09)
(1.68468e-08 -4.70853e-08 1.04798e-08)
(2.94252e-08 -6.2404e-09 3.34947e-10)
(3.20717e-08 -1.33693e-08 9.77901e-10)
(3.3243e-08 -2.05096e-08 1.58134e-09)
(3.39632e-08 -2.72724e-08 2.1288e-09)
(3.42307e-08 -3.31243e-08 2.60393e-09)
(3.31166e-08 -3.76316e-08 2.99284e-09)
(2.89748e-08 -4.11765e-08 3.28628e-09)
(1.66617e-08 -4.72381e-08 3.47886e-09)
(2.27299e-08 -3.27334e-08 5.36088e-08)
(1.74929e-08 -2.64576e-08 4.40092e-08)
(1.43706e-08 -2.48321e-08 3.69204e-08)
(1.31105e-08 -2.44878e-08 3.02223e-08)
(1.26924e-08 -2.47216e-08 2.34606e-08)
(1.25376e-08 -2.51112e-08 1.66853e-08)
(1.24492e-08 -2.54455e-08 9.96699e-09)
(1.23988e-08 -2.56301e-08 3.31346e-09)
(1.31876e-08 -2.79448e-08 5.21068e-08)
(1.08705e-08 -1.91781e-08 4.46922e-08)
(8.97743e-09 -1.69716e-08 3.80764e-08)
(7.96718e-09 -1.65294e-08 3.10325e-08)
(7.46603e-09 -1.67773e-08 2.38977e-08)
(7.18008e-09 -1.71674e-08 1.69002e-08)
(7.00041e-09 -1.74853e-08 1.00669e-08)
(6.90795e-09 -1.7656e-08 3.34326e-09)
(6.06174e-09 -2.96204e-08 5.32263e-08)
(6.36325e-09 -2.08113e-08 4.5637e-08)
(6.5853e-09 -1.85821e-08 3.88248e-08)
(6.25731e-09 -1.81138e-08 3.16002e-08)
(5.72824e-09 -1.8333e-08 2.43092e-08)
(5.26702e-09 -1.86967e-08 1.71778e-08)
(4.96023e-09 -1.89948e-08 1.02268e-08)
(4.81108e-09 -1.91549e-08 3.39545e-09)
(-3.31103e-09 -3.81844e-08 5.70729e-08)
(-4.16348e-11 -3.19069e-08 4.68528e-08)
(1.40992e-09 -3.02424e-08 3.91595e-08)
(1.31389e-09 -2.98199e-08 3.19217e-08)
(6.83239e-10 -2.99629e-08 2.46952e-08)
(7.64372e-11 -3.02698e-08 1.75201e-08)
(-3.31399e-10 -3.05422e-08 1.04491e-08)
(-5.27613e-10 -3.06937e-08 3.47108e-09)
)
;
    }
    symmetry
    {
        type            symmetry;
    }
    bottom
    {
        type            calculated;
        value           uniform (0 0 0);
    }
}


// ************************************************************************* //
