/*--------------------------------*- C++ -*----------------------------------*\
| =========                 |                                                 |
| \\      /  F ield         | OpenFOAM: The Open Source CFD Toolbox           |
|  \\    /   O peration     | Version:  v1912                                 |
|   \\  /    A nd           | Website:  www.openfoam.com                      |
|    \\/     M anipulation  |                                                 |
\*---------------------------------------------------------------------------*/
FoamFile
{
    version     2.0;
    format      ascii;
    class       volScalarField;
    location    "0.05/solid";
    object      epsilonEq;
}
// * * * * * * * * * * * * * * * * * * * * * * * * * * * * * * * * * * * * * //

dimensions      [0 0 0 0 0 0 0];


internalField   nonuniform List<scalar> 
256
(
2.91473e-06
3.31485e-06
3.30668e-06
2.98663e-06
2.89906e-06
3.39794e-06
3.38752e-06
2.9586e-06
3.02554e-06
3.46891e-06
3.45807e-06
3.08103e-06
3.11574e-06
3.52347e-06
3.51247e-06
3.16836e-06
3.20498e-06
3.59509e-06
3.58394e-06
3.25488e-06
3.34749e-06
3.7116e-06
3.70002e-06
3.39428e-06
3.46162e-06
3.81351e-06
3.80058e-06
3.50816e-06
5.13516e-07
3.6843e-06
3.66265e-06
4.66786e-07
3.29369e-06
9.00553e-07
9.1515e-07
3.43399e-06
3.22162e-06
7.00241e-07
7.14953e-07
3.35506e-06
3.27056e-06
6.45731e-07
6.59269e-07
3.40139e-06
3.33208e-06
6.84421e-07
6.96726e-07
3.46005e-06
3.39899e-06
7.34685e-07
7.45889e-07
3.52335e-06
3.48017e-06
6.74398e-07
6.84299e-07
3.59992e-06
3.52817e-06
3.98625e-07
4.02621e-07
3.64583e-06
3.46543e-06
3.81466e-06
3.80114e-06
3.51001e-06
3.29203e-06
9.23025e-07
9.393e-07
3.42957e-06
3.25991e-06
9.34907e-07
9.51834e-07
3.39192e-06
3.30795e-06
9.17586e-07
9.33184e-07
3.43835e-06
3.35646e-06
9.27058e-07
9.41695e-07
3.48489e-06
3.4061e-06
9.36103e-07
9.50073e-07
3.53156e-06
3.46247e-06
8.48563e-07
8.61788e-07
3.58367e-06
3.48487e-06
6.75516e-07
6.83958e-07
3.60336e-06
3.3544e-06
3.7119e-06
3.69918e-06
3.39695e-06
3.27097e-06
8.9163e-07
9.06347e-07
3.40652e-06
3.24857e-06
1.01626e-06
1.03197e-06
3.38052e-06
3.2996e-06
1.03372e-06
1.04855e-06
3.43121e-06
3.33963e-06
1.03443e-06
1.04865e-06
3.4701e-06
3.37526e-06
1.02482e-06
1.03859e-06
3.50332e-06
3.41346e-06
9.2728e-07
9.40322e-07
3.53763e-06
3.4132e-06
7.34079e-07
7.42766e-07
3.53488e-06
3.21968e-06
3.59466e-06
3.58168e-06
3.26236e-06
3.25471e-06
8.48475e-07
8.61756e-07
3.38845e-06
3.23371e-06
1.00268e-06
1.01731e-06
3.36504e-06
3.28476e-06
1.02978e-06
1.04399e-06
3.41666e-06
3.31987e-06
1.0254e-06
1.03928e-06
3.45126e-06
3.34745e-06
1.00554e-06
1.01912e-06
3.47686e-06
3.37535e-06
8.96725e-07
9.09713e-07
3.50122e-06
3.36388e-06
6.79887e-07
6.88541e-07
3.48758e-06
3.15133e-06
3.52777e-06
3.5142e-06
3.19319e-06
3.23931e-06
8.1159e-07
8.23914e-07
3.37164e-06
3.21736e-06
9.6747e-07
9.81335e-07
3.34788e-06
3.26662e-06
9.92426e-07
1.00618e-06
3.39823e-06
3.29867e-06
9.84284e-07
9.97892e-07
3.43017e-06
3.32204e-06
9.59959e-07
9.73388e-07
3.45185e-06
3.34491e-06
8.44848e-07
8.57822e-07
3.47146e-06
3.32897e-06
6.15556e-07
6.24011e-07
3.45361e-06
3.10984e-06
3.49322e-06
3.4791e-06
3.15033e-06
3.22731e-06
7.85161e-07
7.9692e-07
3.35871e-06
3.20434e-06
9.38653e-07
9.52043e-07
3.3342e-06
3.25185e-06
9.60208e-07
9.73648e-07
3.38307e-06
3.28206e-06
9.5009e-07
9.63497e-07
3.41337e-06
3.30335e-06
9.24706e-07
9.38012e-07
3.43316e-06
3.32403e-06
8.07323e-07
8.20273e-07
3.45076e-06
3.30652e-06
5.72078e-07
5.80317e-07
3.43149e-06
3.08312e-06
3.47603e-06
3.46151e-06
3.12239e-06
3.22086e-06
7.71241e-07
7.82743e-07
3.35181e-06
3.19738e-06
9.236e-07
9.36766e-07
3.32688e-06
3.24398e-06
9.43522e-07
9.56808e-07
3.37494e-06
3.27332e-06
9.3277e-07
9.46069e-07
3.40448e-06
3.29376e-06
9.07441e-07
9.20676e-07
3.42349e-06
3.31364e-06
7.89486e-07
8.02412e-07
3.44038e-06
3.29565e-06
5.51711e-07
5.59821e-07
3.4207e-06
3.06964e-06
3.46871e-06
3.45399e-06
3.1082e-06
)
;

boundaryField
{
    interface
    {
        type            calculated;
        value           nonuniform List<scalar> 
192
(
4.69018e-06
4.72179e-06
4.85226e-06
4.94304e-06
5.04331e-06
5.23337e-06
5.49851e-06
2.78849e-06
5.95926e-06
5.87496e-06
5.93441e-06
6.0027e-06
6.09098e-06
6.255e-06
6.53033e-06
5.5013e-06
5.7787e-06
5.68375e-06
5.73735e-06
5.79791e-06
5.87313e-06
6.01415e-06
6.26005e-06
5.23939e-06
5.69517e-06
5.58971e-06
5.64157e-06
5.69547e-06
5.75917e-06
5.8832e-06
6.10655e-06
5.05752e-06
5.66435e-06
5.55706e-06
5.60697e-06
5.65581e-06
5.71189e-06
5.82577e-06
6.03771e-06
4.97816e-06
5.64723e-06
5.54074e-06
5.58887e-06
5.63424e-06
5.68568e-06
5.79409e-06
6.00106e-06
4.93541e-06
5.63592e-06
5.53016e-06
5.57698e-06
5.62025e-06
5.66913e-06
5.77485e-06
5.97983e-06
4.90935e-06
5.63006e-06
5.52459e-06
5.57073e-06
5.61304e-06
5.66079e-06
5.76545e-06
5.96974e-06
4.89643e-06
4.9752e-06
5.02382e-06
5.14563e-06
5.2242e-06
5.31417e-06
5.49849e-06
5.7699e-06
3.25083e-06
6.14461e-06
6.24651e-06
6.34448e-06
6.41351e-06
6.5079e-06
6.69934e-06
7.01128e-06
5.94338e-06
6.13103e-06
6.23123e-06
6.32867e-06
6.3973e-06
6.49137e-06
6.68241e-06
6.99356e-06
5.92077e-06
4.94706e-06
4.98111e-06
5.10137e-06
5.17915e-06
5.2686e-06
5.45272e-06
5.72432e-06
3.13742e-06
4.91072e-06
4.93325e-06
5.05764e-06
5.14255e-06
5.23647e-06
5.41918e-06
5.6833e-06
3.05951e-06
6.19313e-06
6.09886e-06
6.1556e-06
6.2203e-06
6.30312e-06
6.45941e-06
6.7296e-06
5.68443e-06
6.01257e-06
5.9094e-06
5.96143e-06
6.0193e-06
6.0897e-06
6.22324e-06
6.46334e-06
5.42143e-06
5.93046e-06
5.81866e-06
5.87015e-06
5.9222e-06
5.98166e-06
6.09858e-06
6.31625e-06
5.24408e-06
5.89998e-06
5.78746e-06
5.83784e-06
5.88545e-06
5.93774e-06
6.04486e-06
6.25139e-06
5.16738e-06
5.88264e-06
5.7715e-06
5.82056e-06
5.86508e-06
5.91304e-06
6.01497e-06
6.21675e-06
5.12576e-06
5.87102e-06
5.76087e-06
5.80886e-06
5.85149e-06
5.89706e-06
5.99648e-06
6.19643e-06
5.10006e-06
5.86497e-06
5.75521e-06
5.80262e-06
5.84436e-06
5.88889e-06
5.98732e-06
6.18666e-06
5.08719e-06
3.25178e-06
5.7731e-06
5.50443e-06
5.3265e-06
5.25337e-06
5.21633e-06
5.19405e-06
5.18288e-06
5.9435e-06
7.01172e-06
6.6991e-06
6.50786e-06
6.4209e-06
6.38139e-06
6.36293e-06
6.35526e-06
5.92084e-06
6.99349e-06
6.68116e-06
6.48966e-06
6.40229e-06
6.36237e-06
6.3436e-06
6.33578e-06
3.13804e-06
5.72584e-06
5.45495e-06
5.27458e-06
5.19897e-06
5.15961e-06
5.13556e-06
5.12341e-06
)
;
    }
    symmetry
    {
        type            symmetry;
    }
    bottom
    {
        type            calculated;
        value           nonuniform List<scalar> 
32
(
3.00234e-06
3.40828e-06
3.41851e-06
3.40416e-06
3.38888e-06
3.3729e-06
3.36032e-06
3.35358e-06
3.35819e-06
9.83543e-07
9.44626e-07
8.82167e-07
8.28108e-07
7.88427e-07
7.6144e-07
7.47374e-07
3.34894e-06
1.00007e-06
9.61632e-07
8.96878e-07
8.4113e-07
8.00412e-07
7.72817e-07
7.5847e-07
3.08079e-06
3.55796e-06
3.56314e-06
3.54498e-06
3.52694e-06
3.50901e-06
3.49519e-06
3.48787e-06
)
;
    }
}


// ************************************************************************* //
