/*--------------------------------*- C++ -*----------------------------------*\
| =========                 |                                                 |
| \\      /  F ield         | OpenFOAM: The Open Source CFD Toolbox           |
|  \\    /   O peration     | Version:  v1912                                 |
|   \\  /    A nd           | Website:  www.openfoam.com                      |
|    \\/     M anipulation  |                                                 |
\*---------------------------------------------------------------------------*/
FoamFile
{
    version     2.0;
    format      ascii;
    class       volScalarField;
    location    "0.05/solid";
    object      sigmaEq;
}
// * * * * * * * * * * * * * * * * * * * * * * * * * * * * * * * * * * * * * //

dimensions      [1 -1 -2 0 0 0 0];


internalField   nonuniform List<scalar> 
256
(
672630
764966
763081
689222
669015
784141
781736
682753
698202
800519
798015
711008
719017
813108
810569
731159
739610
829635
827062
751126
772497
856523
853850
783296
798835
880041
877057
809575
118504
850222
845226
107720
760081
207820
211188
792459
743450
161594
164989
774245
754744
149015
152139
784937
768941
157943
160783
798474
784383
169543
172128
813080
803117
155630
157915
830751
814194
91990.5
92912.5
841346
799716
880307
877185
810003
759700
213006
216762
791439
752286
215748
219654
782751
763372
211751
215350
793466
774568
213936
217314
804204
786022
216024
219248
814976
799031
195822
198874
827001
804201
155888
157836
831544
774093
856592
853657
783911
754840
205761
209157
786119
749671
234521
238146
780120
761447
238551
241972
791817
770685
238714
241996
800793
778906
236497
239675
808459
787722
213988
216997
816375
787663
169403
171408
815743
743003
829538
826540
752853
751086
195802
198867
781950
746241
231388
234764
776548
758022
237642
240922
788461
766123
236631
239834
796445
772488
232048
235182
802351
778928
206936
209934
807974
776280
156897
158894
804827
727231
814100
810970
736889
747532
187290
190134
778070
742468
223262
226462
772588
753834
229021
232195
784207
761231
227142
230283
791577
766625
221529
224628
796581
771901
194965
197959
801106
768224
142051
144002
796987
717655
806128
802870
727000
744763
181191
183905
775086
739463
216612
219702
769430
750428
221586
224688
780708
757399
219252
222345
787702
762313
213394
216464
792268
767084
186305
189294
796330
763042
132018
133919
791882
711490
802161
798811
720551
743275
177979
180633
773494
737856
213138
216177
767742
748610
217736
220802
778833
755382
215255
218324
785649
760099
209409
212464
790036
764687
182189
185172
793934
760534
127318
129190
789391
708378
800471
797074
717277
)
;

boundaryField
{
    interface
    {
        type            calculated;
        value           nonuniform List<scalar> 
192
(
1.08235e+06
1.08964e+06
1.11975e+06
1.1407e+06
1.16384e+06
1.2077e+06
1.26889e+06
643499
1.37521e+06
1.35576e+06
1.36948e+06
1.38524e+06
1.40561e+06
1.44346e+06
1.507e+06
1.26953e+06
1.33355e+06
1.31163e+06
1.324e+06
1.33798e+06
1.35534e+06
1.38788e+06
1.44463e+06
1.20909e+06
1.31427e+06
1.28993e+06
1.3019e+06
1.31434e+06
1.32904e+06
1.35766e+06
1.4092e+06
1.16712e+06
1.30716e+06
1.2824e+06
1.29392e+06
1.30519e+06
1.31813e+06
1.34441e+06
1.39332e+06
1.14881e+06
1.30321e+06
1.27863e+06
1.28974e+06
1.30021e+06
1.31208e+06
1.3371e+06
1.38486e+06
1.13894e+06
1.3006e+06
1.27619e+06
1.28699e+06
1.29698e+06
1.30826e+06
1.33266e+06
1.37996e+06
1.13293e+06
1.29924e+06
1.27491e+06
1.28555e+06
1.29532e+06
1.30634e+06
1.33049e+06
1.37763e+06
1.12994e+06
1.14812e+06
1.15934e+06
1.18745e+06
1.20558e+06
1.22635e+06
1.26888e+06
1.33152e+06
750191
1.41799e+06
1.4415e+06
1.46411e+06
1.48004e+06
1.50182e+06
1.546e+06
1.61799e+06
1.37155e+06
1.41485e+06
1.43798e+06
1.46046e+06
1.4763e+06
1.49801e+06
1.5421e+06
1.6139e+06
1.36633e+06
1.14163e+06
1.14949e+06
1.17724e+06
1.19519e+06
1.21583e+06
1.25832e+06
1.321e+06
724021
1.13324e+06
1.13844e+06
1.16715e+06
1.18674e+06
1.20842e+06
1.25058e+06
1.31153e+06
706040
1.42918e+06
1.40743e+06
1.42052e+06
1.43545e+06
1.45457e+06
1.49063e+06
1.55298e+06
1.31179e+06
1.38752e+06
1.36371e+06
1.37571e+06
1.38907e+06
1.40532e+06
1.43613e+06
1.49154e+06
1.2511e+06
1.36857e+06
1.34277e+06
1.35465e+06
1.36666e+06
1.38038e+06
1.40736e+06
1.4576e+06
1.21017e+06
1.36153e+06
1.33557e+06
1.34719e+06
1.35818e+06
1.37025e+06
1.39497e+06
1.44263e+06
1.19247e+06
1.35753e+06
1.33188e+06
1.34321e+06
1.35348e+06
1.36455e+06
1.38807e+06
1.43464e+06
1.18287e+06
1.35485e+06
1.32943e+06
1.34051e+06
1.35034e+06
1.36086e+06
1.3838e+06
1.42995e+06
1.17694e+06
1.35346e+06
1.32813e+06
1.33907e+06
1.3487e+06
1.35897e+06
1.38169e+06
1.42769e+06
1.17397e+06
750411
1.33225e+06
1.27025e+06
1.22919e+06
1.21232e+06
1.20377e+06
1.19863e+06
1.19605e+06
1.37158e+06
1.61809e+06
1.54595e+06
1.50181e+06
1.48175e+06
1.47263e+06
1.46837e+06
1.4666e+06
1.36635e+06
1.61388e+06
1.54181e+06
1.49761e+06
1.47745e+06
1.46824e+06
1.46391e+06
1.4621e+06
724164
1.32135e+06
1.25884e+06
1.21721e+06
1.19976e+06
1.19068e+06
1.18513e+06
1.18233e+06
)
;
    }
    symmetry
    {
        type            symmetry;
    }
    bottom
    {
        type            calculated;
        value           nonuniform List<scalar> 
32
(
692847
786526
788886
785576
782049
778362
775458
773903
774967
226971
217991
203577
191102
181945
175717
172471
772833
230785
221915
206972
194107
184710
178342
175031
710952
821067
822262
818073
813909
809772
806583
804892
)
;
    }
}


// ************************************************************************* //
