/*--------------------------------*- C++ -*----------------------------------*\
| =========                 |                                                 |
| \\      /  F ield         | OpenFOAM: The Open Source CFD Toolbox           |
|  \\    /   O peration     | Version:  v1912                                 |
|   \\  /    A nd           | Website:  www.openfoam.com                      |
|    \\/     M anipulation  |                                                 |
\*---------------------------------------------------------------------------*/
FoamFile
{
    version     2.0;
    format      ascii;
    class       volScalarField;
    location    "0.05/solid";
    object      T;
}
// * * * * * * * * * * * * * * * * * * * * * * * * * * * * * * * * * * * * * //

dimensions      [0 0 0 1 0 0 0];


internalField   nonuniform List<scalar> 
256
(
292.583
292.79
292.79
292.574
292.574
292.785
292.785
292.564
292.574
292.785
292.785
292.564
292.574
292.785
292.785
292.564
292.573
292.784
292.784
292.563
292.571
292.783
292.783
292.561
292.563
292.778
292.778
292.553
292.325
292.55
292.55
292.315
292.802
292.995
292.995
292.791
292.797
292.995
292.995
292.786
292.797
292.995
292.995
292.786
292.797
292.995
292.995
292.786
292.796
292.995
292.995
292.786
292.795
292.995
292.995
292.785
292.79
292.993
292.993
292.779
292.563
292.778
292.778
292.553
292.807
292.998
292.998
292.797
292.803
292.998
292.998
292.792
292.803
292.998
292.998
292.792
292.802
292.998
292.998
292.792
292.802
292.998
292.998
292.791
292.801
292.998
292.998
292.79
292.795
292.995
292.995
292.785
292.571
292.783
292.783
292.561
292.808
292.998
292.998
292.798
292.804
292.998
292.998
292.793
292.804
292.998
292.998
292.793
292.804
292.998
292.998
292.793
292.803
292.998
292.998
292.792
292.802
292.998
292.998
292.791
292.796
292.995
292.995
292.786
292.573
292.784
292.784
292.563
292.809
292.998
292.998
292.798
292.804
292.998
292.998
292.793
292.804
292.998
292.998
292.793
292.804
292.998
292.998
292.793
292.804
292.998
292.998
292.793
292.802
292.998
292.998
292.792
292.797
292.995
292.995
292.786
292.574
292.785
292.785
292.564
292.809
292.998
292.998
292.798
292.804
292.998
292.998
292.793
292.804
292.998
292.998
292.793
292.804
292.998
292.998
292.793
292.804
292.998
292.998
292.793
292.803
292.998
292.998
292.792
292.797
292.995
292.995
292.786
292.574
292.785
292.785
292.564
292.809
292.998
292.998
292.798
292.805
292.998
292.998
292.794
292.804
292.998
292.998
292.793
292.804
292.998
292.998
292.793
292.804
292.998
292.998
292.793
292.803
292.998
292.998
292.792
292.797
292.995
292.995
292.786
292.574
292.785
292.785
292.564
292.809
292.998
292.998
292.798
292.805
292.998
292.998
292.794
292.804
292.998
292.998
292.793
292.804
292.998
292.998
292.793
292.804
292.998
292.998
292.793
292.803
292.998
292.998
292.792
292.797
292.995
292.995
292.786
292.574
292.785
292.785
292.564
)
;

boundaryField
{
    interface
    {
        type            fixedValue;
        value           nonuniform List<scalar> 
192
(
288.672
288.663
288.654
288.637
288.598
288.51
288.301
287.655
289.35
289.344
289.336
289.319
289.282
289.194
288.978
288.301
289.575
289.569
289.561
289.544
289.506
289.416
289.194
288.51
289.667
289.661
289.653
289.636
289.597
289.506
289.282
288.598
289.707
289.701
289.693
289.675
289.636
289.544
289.319
288.636
289.724
289.718
289.71
289.693
289.653
289.561
289.336
288.654
289.732
289.726
289.718
289.7
289.66
289.568
289.343
288.662
289.735
289.729
289.721
289.703
289.663
289.571
289.346
288.666
288.491
288.481
288.473
288.457
288.421
288.338
288.131
287.468
289.091
289.085
289.078
289.064
289.031
288.951
288.742
288.049
289.103
289.098
289.091
289.077
289.044
288.964
288.754
288.061
288.521
288.513
288.506
288.49
288.454
288.371
288.163
287.498
288.567
288.558
288.551
288.535
288.499
288.415
288.207
287.543
289.255
289.25
289.244
289.229
289.195
289.112
288.898
288.207
289.476
289.471
289.465
289.45
289.416
289.331
289.112
288.415
289.563
289.558
289.552
289.537
289.502
289.416
289.195
288.499
289.599
289.594
289.588
289.573
289.537
289.45
289.229
288.536
289.615
289.61
289.603
289.588
289.552
289.465
289.244
288.551
289.621
289.616
289.61
289.594
289.558
289.471
289.25
288.558
289.623
289.618
289.612
289.597
289.56
289.473
289.252
288.561
287.468
288.131
288.338
288.421
288.457
288.473
288.48
288.483
288.049
288.742
288.951
289.031
289.064
289.078
289.084
289.087
288.061
288.754
288.964
289.044
289.077
289.091
289.097
289.1
287.498
288.163
288.371
288.455
288.49
288.506
288.513
288.516
)
;
    }
    symmetry
    {
        type            symmetry;
    }
    bottom
    {
        type            fixedValue;
        value           uniform 293;
    }
}


// ************************************************************************* //
