/*--------------------------------*- C++ -*----------------------------------*\
| =========                 |                                                 |
| \\      /  F ield         | OpenFOAM: The Open Source CFD Toolbox           |
|  \\    /   O peration     | Version:  v1912                                 |
|   \\  /    A nd           | Website:  www.openfoam.com                      |
|    \\/     M anipulation  |                                                 |
\*---------------------------------------------------------------------------*/
FoamFile
{
    version     2.0;
    format      ascii;
    class       volVectorField;
    location    "0.05/solid";
    object      U;
}
// * * * * * * * * * * * * * * * * * * * * * * * * * * * * * * * * * * * * * //

dimensions      [0 1 -1 0 0 0 0];


internalField   nonuniform List<vector> 
256
(
(5.81691e-07 1.74511e-07 8.39561e-07)
(1.7025e-07 -2.81101e-08 5.51346e-07)
(-1.08882e-07 -3.40779e-08 5.75081e-07)
(-4.99737e-07 1.30612e-07 9.24476e-07)
(8.96461e-07 -2.75743e-07 1.78121e-06)
(3.41394e-07 -4.02056e-07 1.44785e-06)
(-1.26529e-07 -4.36821e-07 1.50467e-06)
(-6.51568e-07 -4.05519e-07 1.96731e-06)
(9.4378e-07 -8.601e-07 2.4423e-06)
(4.24676e-07 -9.32648e-07 2.15053e-06)
(-2.7463e-08 -9.95651e-07 2.22791e-06)
(-5.17534e-07 -1.06689e-06 2.68883e-06)
(9.71081e-07 -1.49593e-06 2.99378e-06)
(5.01082e-07 -1.5776e-06 2.72199e-06)
(1.05991e-07 -1.66578e-06 2.81239e-06)
(-3.36681e-07 -1.7724e-06 3.27934e-06)
(1.05141e-06 -2.16305e-06 3.5004e-06)
(6.07458e-07 -2.29065e-06 3.23278e-06)
(2.38268e-07 -2.40209e-06 3.33198e-06)
(-1.7902e-07 -2.50512e-06 3.81286e-06)
(1.23813e-06 -2.85571e-06 4.02153e-06)
(7.71316e-07 -3.0357e-06 3.76024e-06)
(3.43675e-07 -3.16963e-06 3.86541e-06)
(-9.6774e-08 -3.26204e-06 4.35221e-06)
(1.61761e-06 -3.60009e-06 4.6271e-06)
(1.01883e-06 -3.75896e-06 4.40158e-06)
(3.97421e-07 -3.91466e-06 4.51067e-06)
(-1.76712e-07 -4.07044e-06 4.96835e-06)
(2.20054e-06 -4.43562e-06 5.30257e-06)
(1.29395e-06 -4.36162e-06 5.16685e-06)
(4.5466e-07 -4.53497e-06 5.27876e-06)
(-4.32668e-07 -4.96776e-06 5.64847e-06)
(6.38379e-08 -2.25963e-07 5.08376e-07)
(3.78133e-08 -2.81277e-07 5.0462e-07)
(-1.14609e-08 -2.96027e-07 5.227e-07)
(-1.4017e-08 -2.85593e-07 5.64061e-07)
(1.35101e-07 -7.46121e-07 1.34991e-06)
(1.0625e-07 -8.03008e-07 1.39077e-06)
(2.1688e-08 -8.46937e-07 1.43621e-06)
(2.55222e-08 -8.9039e-07 1.48552e-06)
(1.62837e-07 -1.2994e-06 2.02371e-06)
(1.64091e-07 -1.36035e-06 2.10106e-06)
(1.08224e-07 -1.42931e-06 2.16475e-06)
(1.41599e-07 -1.5141e-06 2.21294e-06)
(1.98967e-07 -1.89648e-06 2.58653e-06)
(2.34352e-07 -1.98291e-06 2.67904e-06)
(2.2016e-07 -2.07441e-06 2.75481e-06)
(2.86823e-07 -2.1761e-06 2.81228e-06)
(2.89364e-07 -2.52163e-06 3.09576e-06)
(3.38694e-07 -2.65926e-06 3.1903e-06)
(3.34459e-07 -2.77236e-06 3.27446e-06)
(4.1502e-07 -2.86416e-06 3.34738e-06)
(5.04959e-07 -3.15054e-06 3.59874e-06)
(5.08884e-07 -3.34454e-06 3.69092e-06)
(4.19408e-07 -3.47911e-06 3.78094e-06)
(4.54613e-07 -3.55593e-06 3.86855e-06)
(9.62759e-07 -3.7507e-06 4.10055e-06)
(7.79226e-07 -3.90555e-06 4.19432e-06)
(4.4103e-07 -4.06112e-06 4.28807e-06)
(2.87225e-07 -4.21969e-06 4.38176e-06)
(1.68333e-06 -4.2728e-06 4.46449e-06)
(1.08464e-06 -4.11049e-06 4.56337e-06)
(4.62925e-07 -4.28254e-06 4.65867e-06)
(-1.11537e-07 -4.80417e-06 4.75034e-06)
(-1.94779e-07 -3.32698e-07 3.73446e-07)
(-6.31716e-08 -3.19942e-07 4.21283e-07)
(7.08511e-08 -3.34109e-07 4.344e-07)
(2.23607e-07 -3.82353e-07 4.11725e-07)
(-3.22057e-07 -9.7482e-07 1.06731e-06)
(-8.98466e-08 -9.75917e-07 1.17685e-06)
(1.62359e-07 -1.01843e-06 1.21018e-06)
(4.24823e-07 -1.106e-06 1.16357e-06)
(-3.31158e-07 -1.5728e-06 1.68032e-06)
(-5.99699e-08 -1.61329e-06 1.81999e-06)
(2.44803e-07 -1.68013e-06 1.86785e-06)
(5.46523e-07 -1.77422e-06 1.81926e-06)
(-2.90679e-07 -2.16492e-06 2.21263e-06)
(3.8526e-09 -2.25024e-06 2.36356e-06)
(3.37313e-07 -2.33916e-06 2.42186e-06)
(6.62387e-07 -2.43186e-06 2.38324e-06)
(-1.89638e-07 -2.74735e-06 2.68714e-06)
(1.06918e-07 -2.89247e-06 2.8395e-06)
(4.32951e-07 -3.0029e-06 2.90547e-06)
(7.60655e-07 -3.07849e-06 2.88154e-06)
(5.19325e-08 -3.29072e-06 3.12077e-06)
(2.83798e-07 -3.49546e-06 3.26826e-06)
(4.96397e-07 -3.62752e-06 3.33981e-06)
(7.599e-07 -3.68653e-06 3.33268e-06)
(5.68594e-07 -3.7634e-06 3.49149e-06)
(5.74778e-07 -3.91776e-06 3.62924e-06)
(4.8689e-07 -4.07109e-06 3.70431e-06)
(5.23403e-07 -4.22487e-06 3.71486e-06)
(1.3691e-06 -4.18131e-06 3.71433e-06)
(9.04315e-07 -3.98503e-06 3.83942e-06)
(4.77931e-07 -4.15511e-06 3.91546e-06)
(3.7829e-08 -4.70752e-06 3.94172e-06)
(-2.74284e-07 -3.6993e-07 2.92738e-07)
(-9.9684e-08 -3.28515e-07 3.20664e-07)
(9.74181e-08 -3.40825e-07 3.29968e-07)
(2.89662e-07 -4.09527e-07 3.19143e-07)
(-4.89954e-07 -1.08061e-06 8.51021e-07)
(-1.73162e-07 -1.05119e-06 9.17691e-07)
(2.11621e-07 -1.08933e-06 9.41473e-07)
(5.54711e-07 -1.19425e-06 9.18443e-07)
(-5.30229e-07 -1.72384e-06 1.36514e-06)
(-1.64753e-07 -1.74845e-06 1.4524e-06)
(2.91102e-07 -1.81018e-06 1.48705e-06)
(6.84103e-07 -1.90646e-06 1.46444e-06)
(-4.944e-07 -2.32444e-06 1.82427e-06)
(-1.09559e-07 -2.40567e-06 1.92044e-06)
(3.70432e-07 -2.4896e-06 1.96346e-06)
(7.83581e-07 -2.57374e-06 1.949e-06)
(-3.88926e-07 -2.87942e-06 2.22872e-06)
(-9.97774e-09 -3.0272e-06 2.32717e-06)
(4.51518e-07 -3.13309e-06 2.37674e-06)
(8.59895e-07 -3.19507e-06 2.37384e-06)
(-1.34144e-07 -3.36745e-06 2.57615e-06)
(1.68343e-07 -3.57812e-06 2.67207e-06)
(4.99367e-07 -3.70622e-06 2.72663e-06)
(8.32121e-07 -3.75019e-06 2.73706e-06)
(4.08175e-07 -3.78231e-06 2.84788e-06)
(4.66883e-07 -3.94059e-06 2.93714e-06)
(4.71636e-07 -4.09055e-06 2.99486e-06)
(5.59481e-07 -4.23299e-06 3.01939e-06)
(1.23933e-06 -4.18364e-06 3.011e-06)
(8.04987e-07 -3.98336e-06 3.09269e-06)
(4.46323e-07 -4.15065e-06 3.15095e-06)
(3.53167e-08 -4.70108e-06 3.18562e-06)
(-2.88348e-07 -3.86123e-07 2.23162e-07)
(-1.06606e-07 -3.34928e-07 2.33274e-07)
(9.89171e-08 -3.45711e-07 2.39675e-07)
(2.95419e-07 -4.1857e-07 2.40995e-07)
(-5.26717e-07 -1.13018e-06 6.52532e-07)
(-1.9485e-07 -1.08751e-06 6.79749e-07)
(2.1265e-07 -1.12159e-06 6.96211e-07)
(5.67323e-07 -1.22935e-06 6.98575e-07)
(-5.81846e-07 -1.8013e-06 1.0543e-06)
(-1.98195e-07 -1.81654e-06 1.09279e-06)
(2.86615e-07 -1.87321e-06 1.11703e-06)
(6.94999e-07 -1.96698e-06 1.12305e-06)
(-5.52696e-07 -2.41163e-06 1.41756e-06)
(-1.50946e-07 -2.48834e-06 1.46245e-06)
(3.57049e-07 -2.56719e-06 1.49298e-06)
(7.84928e-07 -2.64427e-06 1.50542e-06)
(-4.48531e-07 -2.95585e-06 1.73482e-06)
(-5.64744e-08 -3.10274e-06 1.7827e-06)
(4.28327e-07 -3.20394e-06 1.81842e-06)
(8.48034e-07 -3.25637e-06 1.83884e-06)
(-1.91177e-07 -3.42166e-06 1.99835e-06)
(1.19127e-07 -3.63374e-06 2.04654e-06)
(4.66522e-07 -3.75769e-06 2.08637e-06)
(8.05573e-07 -3.79121e-06 2.11543e-06)
(3.57053e-07 -3.82111e-06 2.19772e-06)
(4.17061e-07 -3.98162e-06 2.24395e-06)
(4.29542e-07 -4.12793e-06 2.28639e-06)
(5.17286e-07 -4.26035e-06 2.32375e-06)
(1.19581e-06 -4.22624e-06 2.32343e-06)
(7.55333e-07 -4.02729e-06 2.36695e-06)
(3.96239e-07 -4.19141e-06 2.40962e-06)
(-2.24429e-08 -4.73372e-06 2.45165e-06)
(-2.87117e-07 -3.93173e-07 1.5708e-07)
(-1.06148e-07 -3.39598e-07 1.59599e-07)
(9.55116e-08 -3.49305e-07 1.63748e-07)
(2.89231e-07 -4.20887e-07 1.68492e-07)
(-5.25964e-07 -1.15329e-06 4.60721e-07)
(-1.97213e-07 -1.10594e-06 4.69287e-07)
(2.0274e-07 -1.13702e-06 4.80018e-07)
(5.51752e-07 -1.24219e-06 4.90433e-07)
(-5.8519e-07 -1.83923e-06 7.46711e-07)
(-2.05791e-07 -1.84976e-06 7.60503e-07)
(2.70476e-07 -1.9025e-06 7.76435e-07)
(6.72489e-07 -1.99216e-06 7.91534e-07)
(-5.60625e-07 -2.4573e-06 1.00636e-06)
(-1.64143e-07 -2.53039e-06 1.02415e-06)
(3.34543e-07 -2.60511e-06 1.04443e-06)
(7.55456e-07 -2.67677e-06 1.06437e-06)
(-4.59856e-07 -3.00096e-06 1.232e-06)
(-7.45802e-08 -3.14553e-06 1.25258e-06)
(3.9949e-07 -3.24281e-06 1.27659e-06)
(8.1101e-07 -3.28907e-06 1.30161e-06)
(-2.04754e-07 -3.46302e-06 1.41696e-06)
(9.70148e-08 -3.67389e-06 1.43916e-06)
(4.31895e-07 -3.79424e-06 1.4662e-06)
(7.61191e-07 -3.82134e-06 1.49623e-06)
(3.42057e-07 -3.86305e-06 1.5561e-06)
(3.91763e-07 -4.02304e-06 1.57877e-06)
(3.89921e-07 -4.1661e-06 1.60775e-06)
(4.66227e-07 -4.29222e-06 1.64209e-06)
(1.18056e-06 -4.27413e-06 1.64733e-06)
(7.27605e-07 -4.07462e-06 1.66942e-06)
(3.52236e-07 -4.23584e-06 1.69844e-06)
(-8.01547e-08 -4.77257e-06 1.73475e-06)
(-2.84972e-07 -3.96028e-07 9.32615e-08)
(-1.0524e-07 -3.4218e-07 9.36365e-08)
(9.30763e-08 -3.51208e-07 9.59635e-08)
(2.84311e-07 -4.20864e-07 9.96125e-08)
(-5.21047e-07 -1.16355e-06 2.73967e-07)
(-1.96512e-07 -1.11482e-06 2.76215e-07)
(1.9518e-07 -1.14398e-06 2.82259e-07)
(5.38355e-07 -1.246e-06 2.90596e-07)
(-5.80577e-07 -1.85692e-06 4.44634e-07)
(-2.07302e-07 -1.8653e-06 4.49025e-07)
(2.58196e-07 -1.91544e-06 4.58052e-07)
(6.52693e-07 -2.00154e-06 4.69895e-07)
(-5.58331e-07 -2.48033e-06 5.99768e-07)
(-1.68968e-07 -2.55104e-06 6.06262e-07)
(3.17981e-07 -2.62294e-06 6.17838e-07)
(7.30632e-07 -2.69091e-06 6.32745e-07)
(-4.60467e-07 -3.02692e-06 7.34298e-07)
(-8.29398e-08 -3.16931e-06 7.42662e-07)
(3.79013e-07 -3.26383e-06 7.56474e-07)
(7.81825e-07 -3.30638e-06 7.74229e-07)
(-2.08241e-07 -3.49141e-06 8.44183e-07)
(8.53446e-08 -3.70045e-06 8.54039e-07)
(4.07977e-07 -3.81821e-06 8.697e-07)
(7.28253e-07 -3.8417e-06 8.9003e-07)
(3.35984e-07 -3.89537e-06 9.2707e-07)
(3.77186e-07 -4.05376e-06 9.37852e-07)
(3.63074e-07 -4.19443e-06 9.54692e-07)
(4.30096e-07 -4.31717e-06 9.77058e-07)
(1.17264e-06 -4.31104e-06 9.82595e-07)
(7.10635e-07 -4.1097e-06 9.93387e-07)
(3.22777e-07 -4.26876e-06 1.01021e-06)
(-1.19497e-07 -4.80278e-06 1.03338e-06)
(-2.84064e-07 -3.97017e-07 3.09171e-08)
(-1.04881e-07 -3.43225e-07 3.09319e-08)
(9.20648e-08 -3.51922e-07 3.16813e-08)
(2.82153e-07 -4.20487e-07 3.29553e-08)
(-5.18675e-07 -1.1674e-06 9.08769e-08)
(-1.96164e-07 -1.11832e-06 9.13125e-08)
(1.91744e-07 -1.14654e-06 9.32633e-08)
(5.32106e-07 -1.24673e-06 9.62277e-08)
(-5.77969e-07 -1.8639e-06 1.4756e-07)
(-2.07836e-07 -1.87143e-06 1.48573e-07)
(2.52364e-07 -1.92028e-06 1.51496e-07)
(6.43027e-07 -2.00442e-06 1.55718e-07)
(-5.5664e-07 -2.49005e-06 1.99101e-07)
(-1.71028e-07 -2.5596e-06 2.00764e-07)
(3.09978e-07 -2.63009e-06 2.04526e-07)
(7.18303e-07 -2.69617e-06 2.09798e-07)
(-4.60299e-07 -3.03896e-06 2.4377e-07)
(-8.67943e-08 -3.18011e-06 2.4608e-07)
(3.69081e-07 -3.27321e-06 2.50586e-07)
(7.67384e-07 -3.314e-06 2.56782e-07)
(-2.09766e-07 -3.50581e-06 2.80244e-07)
(7.97086e-08 -3.71366e-06 2.83124e-07)
(3.96366e-07 -3.83007e-06 2.88252e-07)
(7.12104e-07 -3.8519e-06 2.95246e-07)
(3.32876e-07 -3.91243e-06 3.07826e-07)
(3.69945e-07 -4.06965e-06 3.11107e-07)
(3.50008e-07 -4.20905e-06 3.16629e-07)
(4.12498e-07 -4.33033e-06 3.24227e-07)
(1.16827e-06 -4.33054e-06 3.26468e-07)
(7.02024e-07 -4.12782e-06 3.29794e-07)
(3.08412e-07 -4.28573e-06 3.35303e-07)
(-1.38532e-07 -4.81871e-06 3.43126e-07)
)
;

boundaryField
{
    interface
    {
        type            calculated;
        value           nonuniform List<vector> 
192
(
(-9.08719e-07 5.44043e-07 7.14991e-07)
(-6.78893e-07 -1.85229e-07 1.58298e-06)
(-6.4214e-07 -8.41455e-07 2.23061e-06)
(-6.11044e-07 -1.46904e-06 2.78171e-06)
(-5.13143e-07 -2.0963e-06 3.29099e-06)
(-2.87808e-07 -2.71417e-06 3.82068e-06)
(1.62545e-07 -3.35951e-06 4.4464e-06)
(1.18896e-06 -4.25368e-06 5.15278e-06)
(-2.1371e-06 -1.76236e-07 3.14263e-07)
(-2.09884e-06 -7.2138e-07 1.04528e-06)
(-2.07873e-06 -1.28344e-06 1.70497e-06)
(-2.04005e-06 -1.86487e-06 2.27109e-06)
(-1.93005e-06 -2.44515e-06 2.7855e-06)
(-1.66501e-06 -2.98221e-06 3.30219e-06)
(-1.10669e-06 -3.45613e-06 3.8383e-06)
(2.28036e-07 -4.0597e-06 4.25663e-06)
(-2.52348e-06 -4.61916e-07 2.88917e-07)
(-2.66958e-06 -1.00893e-06 9.11044e-07)
(-2.68469e-06 -1.56496e-06 1.50705e-06)
(-2.64125e-06 -2.12956e-06 2.03928e-06)
(-2.51935e-06 -2.66172e-06 2.51757e-06)
(-2.22527e-06 -3.10118e-06 2.96099e-06)
(-1.60281e-06 -3.43413e-06 3.35284e-06)
(-1.57791e-07 -3.94722e-06 3.60332e-06)
(-2.67045e-06 -5.60999e-07 2.69348e-07)
(-2.89982e-06 -1.14461e-06 7.99856e-07)
(-2.9451e-06 -1.72497e-06 1.30247e-06)
(-2.9053e-06 -2.28913e-06 1.75876e-06)
(-2.77725e-06 -2.78938e-06 2.16399e-06)
(-2.46732e-06 -3.16819e-06 2.51537e-06)
(-1.8158e-06 -3.43896e-06 2.79499e-06)
(-3.27817e-07 -3.94001e-06 2.96767e-06)
(-2.71794e-06 -5.89899e-07 2.19955e-07)
(-2.96847e-06 -1.20357e-06 6.43529e-07)
(-3.02779e-06 -1.8078e-06 1.04056e-06)
(-2.9936e-06 -2.37831e-06 1.401e-06)
(-2.86541e-06 -2.86549e-06 1.71708e-06)
(-2.5511e-06 -3.22028e-06 1.98069e-06)
(-1.89187e-06 -3.47439e-06 2.18119e-06)
(-3.9211e-07 -3.97985e-06 2.30874e-06)
(-2.73224e-06 -5.96454e-07 1.57924e-07)
(-2.98267e-06 -1.22782e-06 4.62138e-07)
(-3.04547e-06 -1.8479e-06 7.47028e-07)
(-3.01502e-06 -2.42598e-06 1.00495e-06)
(-2.88923e-06 -2.91201e-06 1.22902e-06)
(-2.57611e-06 -3.26256e-06 1.41269e-06)
(-1.91753e-06 -3.51675e-06 1.55083e-06)
(-4.16653e-07 -4.02792e-06 1.64153e-06)
(-2.7369e-06 -5.97544e-07 9.4025e-08)
(-2.9842e-06 -1.23746e-06 2.75789e-07)
(-3.04685e-06 -1.86625e-06 4.46439e-07)
(-3.01818e-06 -2.45031e-06 6.00763e-07)
(-2.89469e-06 -2.93941e-06 7.34186e-07)
(-2.58391e-06 -3.29231e-06 8.42928e-07)
(-1.92761e-06 -3.55017e-06 9.24773e-07)
(-4.28154e-07 -4.06575e-06 9.7952e-07)
(-2.73852e-06 -5.97713e-07 3.11442e-08)
(-2.98417e-06 -1.24089e-06 9.14699e-08)
(-3.04634e-06 -1.8734e-06 1.48212e-07)
(-3.01832e-06 -2.46065e-06 1.99523e-07)
(-2.89608e-06 -2.95226e-06 2.43811e-07)
(-2.58676e-06 -3.30753e-06 2.79862e-07)
(-1.93196e-06 -3.56794e-06 3.07048e-07)
(-4.33624e-07 -4.08591e-06 3.25376e-07)
(5.71912e-07 8.29699e-07 -8.21808e-07)
(9.1223e-07 1.24939e-07 2.93071e-08)
(9.76679e-07 -5.56956e-07 6.82501e-07)
(1.00917e-06 -1.23141e-06 1.24173e-06)
(1.08921e-06 -1.90611e-06 1.76726e-06)
(1.27323e-06 -2.57403e-06 2.32475e-06)
(1.65157e-06 -3.27983e-06 3.00089e-06)
(2.2415e-06 -4.2376e-06 4.14064e-06)
(1.0412e-07 4.71688e-07 -1.69995e-06)
(2.72257e-07 -2.26005e-09 -8.85674e-07)
(3.71076e-07 -6.14113e-07 -2.0158e-07)
(4.55731e-07 -1.30704e-06 3.72358e-07)
(5.65352e-07 -2.03109e-06 9.01719e-07)
(7.32285e-07 -2.7435e-06 1.47226e-06)
(9.89724e-07 -3.40731e-06 2.20908e-06)
(1.288e-06 -4.14839e-06 3.59981e-06)
(-1.56083e-08 4.85862e-07 -1.68541e-06)
(3.33367e-09 -2.36135e-08 -8.39215e-07)
(1.07109e-07 -6.68722e-07 -1.34461e-07)
(2.45327e-07 -1.38976e-06 4.52771e-07)
(3.83286e-07 -2.13883e-06 9.91115e-07)
(4.91666e-07 -2.87496e-06 1.56782e-06)
(5.39113e-07 -3.56132e-06 2.30911e-06)
(5.75065e-07 -4.32101e-06 3.7058e-06)
(-4.64243e-07 8.53563e-07 -7.27029e-07)
(-6.10211e-07 3.55705e-08 2.26552e-07)
(-4.73755e-07 -7.38883e-07 9.41214e-07)
(-2.84953e-07 -1.49139e-06 1.5402e-06)
(-1.17737e-07 -2.23691e-06 2.09305e-06)
(-2.64076e-08 -2.97316e-06 2.66887e-06)
(-1.01474e-07 -3.74637e-06 3.35505e-06)
(-3.62951e-07 -4.76832e-06 4.49925e-06)
(1.19819e-06 4.18445e-07 8.20785e-07)
(1.13313e-06 -4.01062e-07 1.81871e-06)
(1.2778e-06 -1.1456e-06 2.54593e-06)
(1.45522e-06 -1.85702e-06 3.14933e-06)
(1.59623e-06 -2.56508e-06 3.69499e-06)
(1.64023e-06 -3.2626e-06 4.24954e-06)
(1.48473e-06 -3.98645e-06 4.88999e-06)
(7.65539e-07 -4.95453e-06 5.60304e-06)
(2.41104e-06 -2.88461e-07 3.83218e-07)
(2.48354e-06 -9.29284e-07 1.21642e-06)
(2.60802e-06 -1.57942e-06 1.94693e-06)
(2.7521e-06 -2.24444e-06 2.56251e-06)
(2.86265e-06 -2.90609e-06 3.11246e-06)
(2.85425e-06 -3.52396e-06 3.65438e-06)
(2.58271e-06 -4.07813e-06 4.20673e-06)
(1.54976e-06 -4.75815e-06 4.63272e-06)
(2.77488e-06 -5.44452e-07 3.35803e-07)
(2.99667e-06 -1.18671e-06 1.03128e-06)
(3.12602e-06 -1.8336e-06 1.68364e-06)
(3.24094e-06 -2.48537e-06 2.25905e-06)
(3.32077e-06 -3.10286e-06 2.77033e-06)
(3.26937e-06 -3.6272e-06 3.23831e-06)
(2.92393e-06 -4.04433e-06 3.6468e-06)
(1.77469e-06 -4.63768e-06 3.90501e-06)
(2.90299e-06 -6.2061e-07 3.01188e-07)
(3.18454e-06 -1.29285e-06 8.82817e-07)
(3.32133e-06 -1.96366e-06 1.42732e-06)
(3.41939e-06 -2.61768e-06 1.91837e-06)
(3.47592e-06 -3.20718e-06 2.352e-06)
(3.39513e-06 -3.67507e-06 2.72564e-06)
(3.01043e-06 -4.03376e-06 3.02092e-06)
(1.81107e-06 -4.61806e-06 3.20069e-06)
(2.93736e-06 -6.34245e-07 2.41101e-07)
(3.22473e-06 -1.32923e-06 6.99314e-07)
(3.35947e-06 -2.02137e-06 1.12596e-06)
(3.44732e-06 -2.68251e-06 1.51245e-06)
(3.48951e-06 -3.26152e-06 1.85107e-06)
(3.39243e-06 -3.7085e-06 2.13316e-06)
(2.99049e-06 -4.05332e-06 2.34707e-06)
(1.77189e-06 -4.64415e-06 2.48052e-06)
(2.94332e-06 -6.31122e-07 1.71267e-07)
(3.22096e-06 -1.33799e-06 4.97675e-07)
(3.3484e-06 -2.04307e-06 8.02111e-07)
(3.42871e-06 -2.71139e-06 1.07795e-06)
(3.46257e-06 -3.29049e-06 1.31817e-06)
(3.35724e-06 -3.73512e-06 1.51557e-06)
(2.94797e-06 -4.08186e-06 1.66389e-06)
(1.72165e-06 -4.67985e-06 1.75901e-06)
(2.94313e-06 -6.2652e-07 1.01381e-07)
(3.21203e-06 -1.33808e-06 2.95507e-07)
(3.33275e-06 -2.04959e-06 4.77261e-07)
(3.40764e-06 -2.72318e-06 6.42034e-07)
(3.4367e-06 -3.30577e-06 7.85137e-07)
(3.32717e-06 -3.75374e-06 9.02303e-07)
(2.9145e-06 -4.10521e-06 9.90493e-07)
(1.68468e-06 -4.70853e-06 1.04798e-06)
(2.94252e-06 -6.2404e-07 3.34947e-08)
(3.20717e-06 -1.33693e-06 9.77901e-08)
(3.3243e-06 -2.05096e-06 1.58134e-07)
(3.39632e-06 -2.72724e-06 2.1288e-07)
(3.42307e-06 -3.31243e-06 2.60393e-07)
(3.31166e-06 -3.76316e-06 2.99284e-07)
(2.89748e-06 -4.11765e-06 3.28628e-07)
(1.66617e-06 -4.72381e-06 3.47886e-07)
(2.27299e-06 -3.27334e-06 5.36088e-06)
(1.74929e-06 -2.64576e-06 4.40092e-06)
(1.43706e-06 -2.48321e-06 3.69204e-06)
(1.31105e-06 -2.44878e-06 3.02223e-06)
(1.26924e-06 -2.47216e-06 2.34606e-06)
(1.25376e-06 -2.51112e-06 1.66853e-06)
(1.24492e-06 -2.54455e-06 9.96699e-07)
(1.23988e-06 -2.56301e-06 3.31346e-07)
(1.31876e-06 -2.79448e-06 5.21068e-06)
(1.08705e-06 -1.91781e-06 4.46922e-06)
(8.97743e-07 -1.69716e-06 3.80764e-06)
(7.96718e-07 -1.65294e-06 3.10325e-06)
(7.46603e-07 -1.67773e-06 2.38977e-06)
(7.18008e-07 -1.71674e-06 1.69002e-06)
(7.00041e-07 -1.74853e-06 1.00669e-06)
(6.90795e-07 -1.7656e-06 3.34326e-07)
(6.06174e-07 -2.96204e-06 5.32263e-06)
(6.36325e-07 -2.08113e-06 4.5637e-06)
(6.5853e-07 -1.85821e-06 3.88248e-06)
(6.25731e-07 -1.81138e-06 3.16002e-06)
(5.72824e-07 -1.8333e-06 2.43092e-06)
(5.26702e-07 -1.86967e-06 1.71778e-06)
(4.96023e-07 -1.89948e-06 1.02268e-06)
(4.81108e-07 -1.91549e-06 3.39545e-07)
(-3.31103e-07 -3.81844e-06 5.70729e-06)
(-4.16348e-09 -3.19069e-06 4.68528e-06)
(1.40992e-07 -3.02424e-06 3.91595e-06)
(1.31389e-07 -2.98199e-06 3.19217e-06)
(6.83239e-08 -2.99629e-06 2.46952e-06)
(7.64372e-09 -3.02698e-06 1.75201e-06)
(-3.31399e-08 -3.05422e-06 1.04491e-06)
(-5.27613e-08 -3.06937e-06 3.47108e-07)
)
;
    }
    symmetry
    {
        type            symmetry;
    }
    bottom
    {
        type            calculated;
        value           uniform (0 0 0);
    }
}


// ************************************************************************* //
