# Force       
# CofR        : (5.000000e-01 1.000000e-01 0.000000e+00)
#
# Time        	(total_x total_y total_z)	(pressure_x pressure_y pressure_z)	(viscous_x viscous_y viscous_z)
0.01          	(1.467916e+02 -2.105559e+02 2.105573e+02)	(1.462397e+02 -2.105413e+02 2.105434e+02)	(5.518828e-01 -1.450979e-02 1.392191e-02)
0.02          	(6.670970e+00 -1.245862e+00 1.249982e+00)	(6.135272e+00 -1.233521e+00 1.238028e+00)	(5.356980e-01 -1.234115e-02 1.195426e-02)
0.03          	(4.059779e+00 -1.093701e+00 1.103111e+00)	(3.541152e+00 -1.084036e+00 1.093585e+00)	(5.186269e-01 -9.665560e-03 9.526634e-03)
0.04          	(3.550816e+00 -1.017844e+00 1.027707e+00)	(3.047636e+00 -1.010472e+00 1.020304e+00)	(5.031803e-01 -7.371681e-03 7.402839e-03)
0.05          	(3.329536e+00 -9.787044e-01 9.905005e-01)	(2.840514e+00 -9.735860e-01 9.851505e-01)	(4.890212e-01 -5.118465e-03 5.349993e-03)
0.06          	(3.183284e+00 -9.437169e-01 9.573873e-01)	(2.707380e+00 -9.408033e-01 9.540107e-01)	(4.759041e-01 -2.913664e-03 3.376547e-03)
0.07          	(3.069877e+00 -9.113259e-01 9.267579e-01)	(2.606190e+00 -9.105630e-01 9.252734e-01)	(4.636870e-01 -7.628488e-04 1.484501e-03)
0.08          	(2.974747e+00 -8.807996e-01 8.979029e-01)	(2.522477e+00 -8.821304e-01 8.982299e-01)	(4.522703e-01 1.330780e-03 -3.270280e-04)
0.09          	(2.891527e+00 -8.517921e-01 8.704905e-01)	(2.449951e+00 -8.551574e-01 8.725506e-01)	(4.415757e-01 3.365362e-03 -2.060131e-03)
0.1           	(2.816973e+00 -8.240986e-01 8.443286e-01)	(2.385434e+00 -8.294386e-01 8.480460e-01)	(4.315387e-01 5.339937e-03 -3.717462e-03)
0.11          	(2.749201e+00 -7.975988e-01 8.193055e-01)	(2.327097e+00 -8.048530e-01 8.246075e-01)	(4.221040e-01 7.254215e-03 -5.301964e-03)
0.12          	(2.687001e+00 -7.721966e-01 7.953323e-01)	(2.273777e+00 -7.813050e-01 8.021490e-01)	(4.132238e-01 9.108413e-03 -6.816708e-03)
0.13          	(2.629532e+00 -7.478249e-01 7.723475e-01)	(2.224677e+00 -7.587281e-01 7.806123e-01)	(4.048558e-01 1.090318e-02 -8.264803e-03)
0.14          	(2.576166e+00 -7.244288e-01 7.502979e-01)	(2.179203e+00 -7.370683e-01 7.599473e-01)	(3.969624e-01 1.263946e-02 -9.649333e-03)
0.15          	(2.526423e+00 -7.019530e-01 7.291345e-01)	(2.136913e+00 -7.162714e-01 7.401078e-01)	(3.895098e-01 1.431844e-02 -1.097333e-02)
0.16          	(2.479918e+00 -6.803543e-01 7.088157e-01)	(2.097451e+00 -6.962957e-01 7.210555e-01)	(3.824674e-01 1.594148e-02 -1.223974e-02)
0.17          	(2.436336e+00 -6.595960e-01 6.893074e-01)	(2.060528e+00 -6.771061e-01 7.027588e-01)	(3.758075e-01 1.751010e-02 -1.345144e-02)
0.18          	(2.395399e+00 -6.396292e-01 6.705629e-01)	(2.025895e+00 -6.586550e-01 6.851740e-01)	(3.695045e-01 1.902589e-02 -1.461116e-02)
0.19          	(2.356880e+00 -6.204244e-01 6.525538e-01)	(1.993345e+00 -6.409150e-01 6.682753e-01)	(3.635353e-01 2.049053e-02 -1.572155e-02)
0.2           	(2.320583e+00 -6.019476e-01 6.352480e-01)	(1.962704e+00 -6.238534e-01 6.520331e-01)	(3.578784e-01 2.190573e-02 -1.678514e-02)
0.21          	(2.286329e+00 -5.841658e-01 6.186132e-01)	(1.933815e+00 -6.074390e-01 6.364175e-01)	(3.525141e-01 2.327321e-02 -1.780433e-02)
0.22          	(2.253964e+00 -5.670490e-01 6.026206e-01)	(1.906540e+00 -5.916437e-01 6.214020e-01)	(3.474240e-01 2.459469e-02 -1.878142e-02)
0.23          	(2.223348e+00 -5.505668e-01 5.872412e-01)	(1.880757e+00 -5.764387e-01 6.069598e-01)	(3.425913e-01 2.587185e-02 -1.971860e-02)
0.24          	(2.194358e+00 -5.346913e-01 5.724473e-01)	(1.856358e+00 -5.617977e-01 5.930653e-01)	(3.380002e-01 2.710638e-02 -2.061794e-02)
0.25          	(2.166880e+00 -5.193965e-01 5.582136e-01)	(1.833243e+00 -5.476964e-01 5.796950e-01)	(3.336362e-01 2.829993e-02 -2.148140e-02)
0.26          	(2.140810e+00 -5.046562e-01 5.445152e-01)	(1.811324e+00 -5.341104e-01 5.668260e-01)	(3.294857e-01 2.945411e-02 -2.231085e-02)
0.27          	(2.116057e+00 -4.904464e-01 5.313282e-01)	(1.790521e+00 -5.210169e-01 5.544362e-01)	(3.255360e-01 3.057050e-02 -2.310806e-02)
0.28          	(2.092539e+00 -4.767447e-01 5.186311e-01)	(1.770763e+00 -5.083953e-01 5.425058e-01)	(3.217755e-01 3.165061e-02 -2.387469e-02)
0.29          	(2.070171e+00 -4.635285e-01 5.064017e-01)	(1.751977e+00 -4.962244e-01 5.310140e-01)	(3.181932e-01 3.269591e-02 -2.461234e-02)
0.3           	(2.048889e+00 -4.507768e-01 4.946197e-01)	(1.734110e+00 -4.844846e-01 5.199421e-01)	(3.147788e-01 3.370784e-02 -2.532249e-02)
0.31          	(2.028620e+00 -4.384688e-01 4.832647e-01)	(1.717097e+00 -4.731565e-01 5.092713e-01)	(3.115229e-01 3.468775e-02 -2.600655e-02)
0.32          	(2.009309e+00 -4.265866e-01 4.723192e-01)	(1.700892e+00 -4.622235e-01 4.989851e-01)	(3.084164e-01 3.563694e-02 -2.666587e-02)
0.33          	(1.990896e+00 -4.151111e-01 4.617648e-01)	(1.685445e+00 -4.516678e-01 4.890664e-01)	(3.054512e-01 3.655670e-02 -2.730166e-02)
0.34          	(1.973330e+00 -4.040246e-01 4.515838e-01)	(1.670711e+00 -4.414728e-01 4.794990e-01)	(3.026194e-01 3.744822e-02 -2.791512e-02)
0.35          	(1.956564e+00 -3.933116e-01 4.417617e-01)	(1.656650e+00 -4.316243e-01 4.702691e-01)	(2.999136e-01 3.831267e-02 -2.850738e-02)
0.36          	(1.940550e+00 -3.829545e-01 4.322806e-01)	(1.643223e+00 -4.221057e-01 4.613601e-01)	(2.973271e-01 3.915116e-02 -2.907951e-02)
0.37          	(1.925251e+00 -3.729405e-01 4.231284e-01)	(1.630398e+00 -4.129052e-01 4.527610e-01)	(2.948536e-01 3.996474e-02 -2.963252e-02)
0.38          	(1.910623e+00 -3.632535e-01 4.142894e-01)	(1.618137e+00 -4.040079e-01 4.444567e-01)	(2.924869e-01 4.075441e-02 -3.016735e-02)
0.39          	(1.896633e+00 -3.538805e-01 4.057508e-01)	(1.606412e+00 -3.954017e-01 4.364357e-01)	(2.902215e-01 4.152115e-02 -3.068492e-02)
0.4           	(1.883246e+00 -3.448081e-01 3.974995e-01)	(1.595194e+00 -3.870740e-01 4.286855e-01)	(2.880521e-01 4.226587e-02 -3.118604e-02)
0.41          	(1.870430e+00 -3.360240e-01 3.895234e-01)	(1.584456e+00 -3.790135e-01 4.211949e-01)	(2.859737e-01 4.298945e-02 -3.167153e-02)
0.42          	(1.858157e+00 -3.275168e-01 3.818115e-01)	(1.574175e+00 -3.712095e-01 4.139537e-01)	(2.839818e-01 4.369274e-02 -3.214213e-02)
0.43          	(1.846397e+00 -3.192748e-01 3.743524e-01)	(1.564325e+00 -3.636513e-01 4.069510e-01)	(2.820719e-01 4.437653e-02 -3.259857e-02)
0.44          	(1.835125e+00 -3.112870e-01 3.671353e-01)	(1.554885e+00 -3.563286e-01 4.001769e-01)	(2.802399e-01 4.504157e-02 -3.304153e-02)
0.45          	(1.824317e+00 -3.035437e-01 3.601508e-01)	(1.545835e+00 -3.492323e-01 3.936225e-01)	(2.784820e-01 4.568859e-02 -3.347162e-02)
0.46          	(1.813949e+00 -2.960341e-01 3.533883e-01)	(1.537154e+00 -3.423524e-01 3.872778e-01)	(2.767945e-01 4.631828e-02 -3.388946e-02)
0.47          	(1.804001e+00 -2.887517e-01 3.468414e-01)	(1.528827e+00 -3.356830e-01 3.811370e-01)	(2.751741e-01 4.693130e-02 -3.429562e-02)
0.48          	(1.794451e+00 -2.816830e-01 3.404969e-01)	(1.520834e+00 -3.292113e-01 3.751875e-01)	(2.736174e-01 4.752828e-02 -3.469063e-02)
0.49          	(1.785281e+00 -2.748236e-01 3.343507e-01)	(1.513159e+00 -3.229334e-01 3.694257e-01)	(2.721215e-01 4.810982e-02 -3.507500e-02)
0.5           	(1.776473e+00 -2.681635e-01 3.283929e-01)	(1.505789e+00 -3.168400e-01 3.638421e-01)	(2.706835e-01 4.867647e-02 -3.544921e-02)
0.51          	(1.768008e+00 -2.616942e-01 3.226153e-01)	(1.498707e+00 -3.109230e-01 3.584290e-01)	(2.693006e-01 4.922876e-02 -3.581370e-02)
0.52          	(1.759873e+00 -2.554128e-01 3.170148e-01)	(1.491903e+00 -3.051799e-01 3.531837e-01)	(2.679704e-01 4.976716e-02 -3.616888e-02)
0.53          	(1.752051e+00 -2.493045e-01 3.115774e-01)	(1.485360e+00 -2.995966e-01 3.480925e-01)	(2.666904e-01 5.029210e-02 -3.651507e-02)
0.54          	(1.744528e+00 -2.433716e-01 3.063053e-01)	(1.479070e+00 -2.941756e-01 3.431579e-01)	(2.654584e-01 5.080401e-02 -3.685265e-02)
0.55          	(1.737291e+00 -2.376004e-01 3.011848e-01)	(1.473019e+00 -2.889037e-01 3.383668e-01)	(2.642721e-01 5.130332e-02 -3.718196e-02)
0.56          	(1.730327e+00 -2.319876e-01 2.962129e-01)	(1.467198e+00 -2.837781e-01 3.337163e-01)	(2.631295e-01 5.179044e-02 -3.750332e-02)
0.57          	(1.723626e+00 -2.265302e-01 2.913867e-01)	(1.461598e+00 -2.787960e-01 3.292038e-01)	(2.620288e-01 5.226580e-02 -3.781707e-02)
0.58          	(1.717175e+00 -2.212178e-01 2.866958e-01)	(1.456207e+00 -2.739476e-01 3.248194e-01)	(2.609680e-01 5.272980e-02 -3.812355e-02)
0.59          	(1.710963e+00 -2.160480e-01 2.821382e-01)	(1.451018e+00 -2.692309e-01 3.205612e-01)	(2.599455e-01 5.318281e-02 -3.842302e-02)
0.6           	(1.704981e+00 -2.110141e-01 2.777072e-01)	(1.446021e+00 -2.646393e-01 3.164229e-01)	(2.589595e-01 5.362517e-02 -3.871576e-02)
0.61          	(1.699217e+00 -2.061129e-01 2.733997e-01)	(1.441208e+00 -2.601701e-01 3.124017e-01)	(2.580087e-01 5.405720e-02 -3.900204e-02)
0.62          	(1.693664e+00 -2.013394e-01 2.692109e-01)	(1.436572e+00 -2.558186e-01 3.084930e-01)	(2.570914e-01 5.447923e-02 -3.928211e-02)
0.63          	(1.688311e+00 -1.966881e-01 2.651355e-01)	(1.432105e+00 -2.515796e-01 3.046917e-01)	(2.562063e-01 5.489153e-02 -3.955621e-02)
0.64          	(1.683153e+00 -1.921550e-01 2.611696e-01)	(1.427801e+00 -2.474493e-01 3.009941e-01)	(2.553520e-01 5.529439e-02 -3.982457e-02)
0.65          	(1.678179e+00 -1.877362e-01 2.573093e-01)	(1.423652e+00 -2.434243e-01 2.973967e-01)	(2.545273e-01 5.568808e-02 -4.008740e-02)
0.66          	(1.673382e+00 -1.834281e-01 2.535511e-01)	(1.419651e+00 -2.395010e-01 2.938960e-01)	(2.537309e-01 5.607290e-02 -4.034492e-02)
0.67          	(1.668756e+00 -1.792271e-01 2.498916e-01)	(1.415794e+00 -2.356762e-01 2.904890e-01)	(2.529618e-01 5.644912e-02 -4.059735e-02)
0.68          	(1.664294e+00 -1.751288e-01 2.463266e-01)	(1.412076e+00 -2.319458e-01 2.871715e-01)	(2.522189e-01 5.681700e-02 -4.084485e-02)
0.69          	(1.659989e+00 -1.711301e-01 2.428530e-01)	(1.408488e+00 -2.283068e-01 2.839406e-01)	(2.515010e-01 5.717678e-02 -4.108756e-02)
0.7           	(1.655834e+00 -1.672277e-01 2.394679e-01)	(1.405027e+00 -2.247564e-01 2.807935e-01)	(2.508073e-01 5.752867e-02 -4.132565e-02)
0.71          	(1.651825e+00 -1.634185e-01 2.361679e-01)	(1.401688e+00 -2.212915e-01 2.777272e-01)	(2.501367e-01 5.787292e-02 -4.155931e-02)
0.72          	(1.647955e+00 -1.596991e-01 2.329500e-01)	(1.398466e+00 -2.179088e-01 2.747387e-01)	(2.494884e-01 5.820974e-02 -4.178867e-02)
0.73          	(1.644218e+00 -1.560673e-01 2.298121e-01)	(1.395357e+00 -2.146066e-01 2.718260e-01)	(2.488616e-01 5.853934e-02 -4.201391e-02)
0.74          	(1.640611e+00 -1.525199e-01 2.267511e-01)	(1.392356e+00 -2.113818e-01 2.689862e-01)	(2.482553e-01 5.886190e-02 -4.223515e-02)
0.75          	(1.637127e+00 -1.490541e-01 2.237642e-01)	(1.389458e+00 -2.082317e-01 2.662167e-01)	(2.476689e-01 5.917761e-02 -4.245254e-02)
0.76          	(1.633763e+00 -1.456675e-01 2.208491e-01)	(1.386661e+00 -2.051542e-01 2.635153e-01)	(2.471016e-01 5.948667e-02 -4.266620e-02)
0.77          	(1.630512e+00 -1.423575e-01 2.180032e-01)	(1.383960e+00 -2.021468e-01 2.608795e-01)	(2.465526e-01 5.978924e-02 -4.287628e-02)
0.78          	(1.627373e+00 -1.391220e-01 2.152247e-01)	(1.381351e+00 -1.992075e-01 2.583076e-01)	(2.460214e-01 6.008549e-02 -4.308287e-02)
0.79          	(1.624340e+00 -1.359584e-01 2.125110e-01)	(1.378832e+00 -1.963339e-01 2.557971e-01)	(2.455072e-01 6.037558e-02 -4.328610e-02)
0.8           	(1.621408e+00 -1.328647e-01 2.098602e-01)	(1.376399e+00 -1.935243e-01 2.533463e-01)	(2.450094e-01 6.065966e-02 -4.348607e-02)
0.81          	(1.618576e+00 -1.298386e-01 2.072702e-01)	(1.374049e+00 -1.907765e-01 2.509531e-01)	(2.445275e-01 6.093788e-02 -4.368288e-02)
0.82          	(1.615839e+00 -1.268783e-01 2.047391e-01)	(1.371778e+00 -1.880887e-01 2.486157e-01)	(2.440609e-01 6.121037e-02 -4.387662e-02)
0.83          	(1.613193e+00 -1.239817e-01 2.022649e-01)	(1.369584e+00 -1.854590e-01 2.463323e-01)	(2.436090e-01 6.147727e-02 -4.406739e-02)
0.84          	(1.610636e+00 -1.211471e-01 1.998461e-01)	(1.367464e+00 -1.828858e-01 2.441014e-01)	(2.431714e-01 6.173872e-02 -4.425526e-02)
0.85          	(1.608163e+00 -1.183727e-01 1.974809e-01)	(1.365416e+00 -1.803675e-01 2.419213e-01)	(2.427475e-01 6.199482e-02 -4.444033e-02)
0.86          	(1.605773e+00 -1.156563e-01 1.951672e-01)	(1.363437e+00 -1.779020e-01 2.397899e-01)	(2.423368e-01 6.224570e-02 -4.462266e-02)
0.87          	(1.603462e+00 -1.129969e-01 1.929041e-01)	(1.361523e+00 -1.754883e-01 2.377065e-01)	(2.419389e-01 6.249148e-02 -4.480233e-02)
0.88          	(1.601228e+00 -1.103927e-01 1.906899e-01)	(1.359675e+00 -1.731250e-01 2.356693e-01)	(2.415534e-01 6.273224e-02 -4.497939e-02)
0.89          	(1.599069e+00 -1.078424e-01 1.885227e-01)	(1.357889e+00 -1.708105e-01 2.336766e-01)	(2.411798e-01 6.296810e-02 -4.515392e-02)
0.9           	(1.596982e+00 -1.053447e-01 1.864016e-01)	(1.356165e+00 -1.685439e-01 2.317276e-01)	(2.408179e-01 6.319915e-02 -4.532596e-02)
0.91          	(1.594965e+00 -1.028976e-01 1.843252e-01)	(1.354497e+00 -1.663231e-01 2.298208e-01)	(2.404671e-01 6.342547e-02 -4.549559e-02)
0.92          	(1.593013e+00 -1.004996e-01 1.822922e-01)	(1.352886e+00 -1.641468e-01 2.279550e-01)	(2.401272e-01 6.364716e-02 -4.566287e-02)
0.93          	(1.591126e+00 -9.814995e-02 1.803014e-01)	(1.351329e+00 -1.620143e-01 2.261293e-01)	(2.397977e-01 6.386431e-02 -4.582784e-02)
0.94          	(1.589302e+00 -9.584698e-02 1.783514e-01)	(1.349824e+00 -1.599240e-01 2.243419e-01)	(2.394783e-01 6.407699e-02 -4.599057e-02)
0.95          	(1.587538e+00 -9.358950e-02 1.764411e-01)	(1.348370e+00 -1.578748e-01 2.225922e-01)	(2.391686e-01 6.428530e-02 -4.615110e-02)
0.96          	(1.585832e+00 -9.137666e-02 1.745699e-01)	(1.346963e+00 -1.558660e-01 2.208794e-01)	(2.388684e-01 6.448931e-02 -4.630949e-02)
0.97          	(1.584181e+00 -8.920605e-02 1.727353e-01)	(1.345604e+00 -1.538952e-01 2.192011e-01)	(2.385774e-01 6.468910e-02 -4.646578e-02)
0.98          	(1.582584e+00 -8.707740e-02 1.709371e-01)	(1.344289e+00 -1.519622e-01 2.175571e-01)	(2.382952e-01 6.488475e-02 -4.662001e-02)
0.99          	(1.581039e+00 -8.498978e-02 1.691745e-01)	(1.343018e+00 -1.500661e-01 2.159468e-01)	(2.380217e-01 6.507634e-02 -4.677223e-02)
1             	(1.579545e+00 -8.294190e-02 1.674465e-01)	(1.341788e+00 -1.482058e-01 2.143690e-01)	(2.377566e-01 6.526393e-02 -4.692248e-02)
