/*--------------------------------*- C++ -*----------------------------------*\
| =========                 |                                                 |
| \\      /  F ield         | OpenFOAM: The Open Source CFD Toolbox           |
|  \\    /   O peration     | Version:  v1912                                 |
|   \\  /    A nd           | Website:  www.openfoam.com                      |
|    \\/     M anipulation  |                                                 |
\*---------------------------------------------------------------------------*/
FoamFile
{
    version     2.0;
    format      ascii;
    class       volVectorField;
    location    "0.85/solid";
    object      D;
}
// * * * * * * * * * * * * * * * * * * * * * * * * * * * * * * * * * * * * * //

dimensions      [0 1 0 0 0 0 0];


internalField   nonuniform List<vector> 
256
(
(2.98353e-08 4.16916e-08 3.29569e-08)
(4.10201e-09 2.44859e-08 3.01276e-08)
(-4.10143e-09 2.40737e-08 2.99501e-08)
(-2.87736e-08 4.0018e-08 3.24951e-08)
(4.93586e-08 3.28353e-08 6.4784e-08)
(1.028e-08 2.20841e-08 6.09896e-08)
(-9.34597e-09 2.15262e-08 6.07591e-08)
(-4.6987e-08 3.10157e-08 6.41657e-08)
(5.23426e-08 1.5731e-08 8.29694e-08)
(1.18377e-08 1.1406e-08 7.88172e-08)
(-9.73965e-09 1.08145e-08 7.86025e-08)
(-4.88091e-08 1.39319e-08 8.23799e-08)
(5.1764e-08 -9.40216e-11 9.72975e-08)
(1.1694e-08 -2.40494e-09 9.26254e-08)
(-8.40793e-09 -3.00535e-09 9.24232e-08)
(-4.70412e-08 -1.89879e-09 9.6735e-08)
(5.25719e-08 -1.5524e-08 1.11454e-07)
(1.20105e-08 -1.85864e-08 1.06172e-07)
(-7.53613e-09 -1.91947e-08 1.05969e-07)
(-4.66401e-08 -1.73439e-08 1.10886e-07)
(5.74526e-08 -3.29811e-08 1.27412e-07)
(1.39787e-08 -3.75135e-08 1.21576e-07)
(-8.33173e-09 -3.81307e-08 1.21361e-07)
(-5.03309e-08 -3.4811e-08 1.26806e-07)
(6.89236e-08 -5.96324e-08 1.46293e-07)
(1.82588e-08 -6.30689e-08 1.40504e-07)
(-1.15155e-08 -6.36669e-08 1.40264e-07)
(-6.06825e-08 -6.13964e-08 1.45618e-07)
(8.48522e-08 -1.19582e-07 1.64685e-07)
(2.28875e-08 -1.15562e-07 1.60123e-07)
(-1.52865e-08 -1.1586e-07 1.59848e-07)
(-7.56353e-08 -1.20538e-07 1.63919e-07)
(2.06704e-08 1.87309e-08 7.25264e-09)
(2.17209e-09 4.59686e-09 8.72897e-09)
(-2.07724e-09 4.33953e-09 8.7597e-09)
(-1.95666e-08 1.74594e-08 7.3382e-09)
(3.45741e-08 1.20874e-08 2.73284e-08)
(6.54139e-09 3.09516e-09 3.02119e-08)
(-5.4372e-09 2.61784e-09 3.02447e-08)
(-3.21477e-08 1.0472e-08 2.74211e-08)
(3.63443e-08 4.94461e-11 4.4292e-08)
(7.65429e-09 -3.67462e-09 4.76247e-08)
(-5.3679e-09 -4.23843e-09 4.76683e-08)
(-3.27663e-08 -1.68023e-09 4.44128e-08)
(3.54288e-08 -1.29822e-08 5.82056e-08)
(7.46039e-09 -1.50942e-08 6.15457e-08)
(-3.98101e-09 -1.56865e-08 6.16016e-08)
(-3.06662e-08 -1.47687e-08 5.83559e-08)
(3.5951e-08 -2.68798e-08 7.11985e-08)
(7.74882e-09 -2.98838e-08 7.43805e-08)
(-3.07243e-09 -3.04901e-08 7.44395e-08)
(-2.99686e-08 -2.87002e-08 7.13525e-08)
(4.06432e-08 -4.23462e-08 8.45479e-08)
(9.69794e-09 -4.69457e-08 8.75386e-08)
(-3.83114e-09 -4.75649e-08 8.75897e-08)
(-3.34424e-08 -4.41899e-08 8.46743e-08)
(5.24374e-08 -6.38023e-08 9.74419e-08)
(1.40599e-08 -6.72048e-08 1.00348e-07)
(-7.06757e-09 -6.7815e-08 1.00383e-07)
(-4.40717e-08 -6.56072e-08 9.7517e-08)
(6.95109e-08 -1.12572e-07 1.04723e-07)
(1.88324e-08 -1.07343e-07 1.07668e-07)
(-1.09403e-08 -1.07676e-07 1.07692e-07)
(-6.01114e-08 -1.13617e-07 1.04759e-07)
(1.42473e-08 1.14822e-08 3.50755e-09)
(4.63895e-10 -2.69503e-10 5.52111e-09)
(-3.78357e-10 -4.88715e-10 5.54993e-09)
(-1.31865e-08 1.03227e-08 3.59024e-09)
(2.38301e-08 1.51912e-09 1.69477e-08)
(3.08922e-09 -5.87612e-09 2.07619e-08)
(-2.00908e-09 -6.31251e-09 2.0808e-08)
(-2.14727e-08 1.12633e-11 1.70835e-08)
(2.47597e-08 -1.03151e-08 3.14566e-08)
(3.76153e-09 -1.34746e-08 3.58357e-08)
(-1.50212e-09 -1.40139e-08 3.58893e-08)
(-2.12591e-08 -1.19836e-08 3.16151e-08)
(2.37737e-08 -2.18708e-08 4.46427e-08)
(3.53734e-09 -2.38803e-08 4.91183e-08)
(-8.10414e-11 -2.44633e-08 4.91776e-08)
(-1.90879e-08 -2.36373e-08 4.48154e-08)
(2.42687e-08 -3.35873e-08 5.66003e-08)
(3.82454e-09 -3.66429e-08 6.10267e-08)
(8.38046e-10 -3.72504e-08 6.10867e-08)
(-1.83513e-08 -3.54171e-08 5.67714e-08)
(2.90188e-08 -4.57664e-08 6.74357e-08)
(5.77983e-09 -5.04749e-08 7.17673e-08)
(8.8617e-11 -5.11037e-08 7.18216e-08)
(-2.1858e-08 -4.76441e-08 6.75853e-08)
(4.10976e-08 -6.23278e-08 7.5701e-08)
(1.02092e-08 -6.58214e-08 7.9923e-08)
(-3.19303e-09 -6.64503e-08 7.99687e-08)
(-3.27339e-08 -6.41908e-08 7.58184e-08)
(5.85179e-08 -1.05045e-07 7.80338e-08)
(1.50685e-08 -9.97866e-08 8.21829e-08)
(-7.12268e-09 -1.00144e-07 8.22272e-08)
(-4.90734e-08 -1.0616e-07 7.81378e-08)
(1.13217e-08 9.15756e-09 3.1576e-09)
(-2.68835e-10 -1.18734e-09 4.46676e-09)
(3.35085e-10 -1.39934e-09 4.48428e-09)
(-1.03107e-08 8.03501e-09 3.21254e-09)
(1.88149e-08 -2.7278e-09 1.31784e-08)
(1.48369e-09 -9.15356e-09 1.56727e-08)
(-4.62481e-10 -9.57561e-09 1.57074e-08)
(-1.6552e-08 -4.19071e-09 1.32878e-08)
(1.94527e-08 -1.54725e-08 2.47372e-08)
(1.95148e-09 -1.82941e-08 2.75909e-08)
(2.2909e-10 -1.88208e-08 2.7633e-08)
(-1.60634e-08 -1.71073e-08 2.48701e-08)
(1.86519e-08 -2.66093e-08 3.59734e-08)
(1.7794e-09 -2.8593e-08 3.88592e-08)
(1.5946e-09 -2.91704e-08 3.89044e-08)
(-1.40792e-08 -2.83632e-08 3.61151e-08)
(1.93573e-08 -3.67376e-08 4.607e-08)
(2.1411e-09 -3.98657e-08 4.88911e-08)
(2.44565e-09 -4.04753e-08 4.89359e-08)
(-1.3544e-08 -3.85774e-08 4.62082e-08)
(2.42852e-08 -4.64926e-08 5.44007e-08)
(4.14301e-09 -5.12992e-08 5.71403e-08)
(1.66253e-09 -5.1937e-08 5.71811e-08)
(-1.72095e-08 -4.84003e-08 5.45238e-08)
(3.6433e-08 -6.0373e-08 5.97715e-08)
(8.57264e-09 -6.40589e-08 6.24432e-08)
(-1.60202e-09 -6.47018e-08 6.24795e-08)
(-2.8126e-08 -6.228e-08 5.98752e-08)
(5.37067e-08 -1.00469e-07 6.06801e-08)
(1.34131e-08 -9.57455e-08 6.33826e-08)
(-5.49121e-09 -9.61191e-08 6.34197e-08)
(-4.42848e-08 -1.01632e-07 6.07786e-08)
(1.02211e-08 8.22331e-09 2.84779e-09)
(-4.48595e-10 -1.41451e-09 3.50848e-09)
(5.00496e-10 -1.62347e-09 3.51965e-09)
(-9.24701e-09 7.12393e-09 2.8846e-09)
(1.69898e-08 -4.24287e-09 1.04665e-08)
(1.03274e-09 -1.02019e-08 1.17142e-08)
(-6.14717e-11 -1.0618e-08 1.17389e-08)
(-1.48054e-08 -5.68149e-09 1.05471e-08)
(1.7655e-08 -1.74595e-08 1.91597e-08)
(1.47123e-09 -2.01468e-08 2.05621e-08)
(6.35753e-10 -2.06677e-08 2.05937e-08)
(-1.4365e-08 -1.90763e-08 1.92623e-08)
(1.71068e-08 -2.84935e-08 2.78269e-08)
(1.38378e-09 -3.05074e-08 2.92047e-08)
(1.90784e-09 -3.10821e-08 2.92387e-08)
(-1.26399e-08 -3.02409e-08 2.79376e-08)
(1.80594e-08 -3.78045e-08 3.55848e-08)
(1.83447e-09 -4.1002e-08 3.68902e-08)
(2.67194e-09 -4.16135e-08 3.69238e-08)
(-1.23478e-08 -3.9652e-08 3.56934e-08)
(2.31332e-08 -4.63576e-08 4.16726e-08)
(3.87878e-09 -5.12315e-08 4.29165e-08)
(1.85533e-09 -5.18755e-08 4.29476e-08)
(-1.61464e-08 -4.8286e-08 4.17716e-08)
(3.522e-08 -5.91532e-08 4.53027e-08)
(8.27245e-09 -6.29934e-08 4.65248e-08)
(-1.36048e-09 -6.36454e-08 4.65534e-08)
(-2.69824e-08 -6.10892e-08 4.53899e-08)
(5.22435e-08 -9.80518e-08 4.59221e-08)
(1.30614e-08 -9.38153e-08 4.72159e-08)
(-5.18289e-09 -9.41988e-08 4.72455e-08)
(-4.28677e-08 -9.92445e-08 4.60069e-08)
(9.82088e-09 7.79195e-09 2.23766e-09)
(-4.51054e-10 -1.50884e-09 2.53557e-09)
(4.93374e-10 -1.71548e-09 2.54283e-09)
(-8.87057e-09 6.70906e-09 2.26169e-09)
(1.6414e-08 -4.71023e-09 7.67537e-09)
(9.93272e-10 -1.04758e-08 8.22053e-09)
(-5.74206e-11 -1.08883e-08 8.23735e-09)
(-1.42838e-08 -6.13218e-09 7.73025e-09)
(1.72045e-08 -1.79737e-08 1.37114e-08)
(1.46722e-09 -2.06346e-08 1.43002e-08)
(5.84236e-10 -2.11524e-08 1.43223e-08)
(-1.39873e-08 -1.95792e-08 1.37836e-08)
(1.68662e-08 -2.89265e-08 1.97386e-08)
(1.45381e-09 -3.09887e-08 2.02863e-08)
(1.77219e-09 -3.15623e-08 2.03106e-08)
(-1.24805e-08 -3.06702e-08 1.9818e-08)
(1.80032e-08 -3.79147e-08 2.51145e-08)
(1.97076e-09 -4.11652e-08 2.56048e-08)
(2.4688e-09 -4.17782e-08 2.5629e-08)
(-1.23724e-08 -3.97671e-08 2.51936e-08)
(2.31605e-08 -4.60514e-08 2.92506e-08)
(4.03929e-09 -5.09605e-08 2.97041e-08)
(1.6329e-09 -5.16085e-08 2.97269e-08)
(-1.62471e-08 -4.79927e-08 2.93243e-08)
(3.51593e-08 -5.8524e-08 3.16742e-08)
(8.39456e-09 -6.24441e-08 3.21307e-08)
(-1.53609e-09 -6.31016e-08 3.2152e-08)
(-2.69826e-08 -6.04779e-08 3.17409e-08)
(5.19726e-08 -9.68159e-08 3.21886e-08)
(1.3137e-08 -9.2869e-08 3.27072e-08)
(-5.30177e-09 -9.32585e-08 3.27293e-08)
(-4.26431e-08 -9.80273e-08 3.2254e-08)
(9.65902e-09 7.59505e-09 1.41568e-09)
(-4.28233e-10 -1.54595e-09 1.53998e-09)
(4.64732e-10 -1.75099e-09 1.54415e-09)
(-8.72269e-09 6.52256e-09 1.42937e-09)
(1.62256e-08 -4.80564e-09 4.68785e-09)
(1.0295e-09 -1.04975e-08 4.90522e-09)
(-1.15775e-10 -1.09075e-08 4.91507e-09)
(-1.41284e-08 -6.21649e-09 4.7197e-09)
(1.71223e-08 -1.79686e-08 8.23887e-09)
(1.54035e-09 -2.06382e-08 8.46053e-09)
(4.75115e-10 -2.11541e-08 8.47369e-09)
(-1.39509e-08 -1.95665e-08 8.28151e-09)
(1.69188e-08 -2.88404e-08 1.17633e-08)
(1.57499e-09 -3.09423e-08 1.19539e-08)
(1.60685e-09 -3.15152e-08 1.19685e-08)
(-1.2586e-08 -3.05815e-08 1.1811e-08)
(1.81649e-08 -3.77307e-08 1.48971e-08)
(2.13048e-09 -4.10142e-08 1.50536e-08)
(2.26258e-09 -4.1628e-08 1.50683e-08)
(-1.25882e-08 -3.95857e-08 1.49452e-08)
(2.33616e-08 -4.57889e-08 1.72962e-08)
(4.20981e-09 -5.07118e-08 1.74352e-08)
(1.41802e-09 -5.13619e-08 1.74493e-08)
(-1.64988e-08 -4.77374e-08 1.73418e-08)
(3.52929e-08 -5.82147e-08 1.87103e-08)
(8.5382e-09 -6.2164e-08 1.88578e-08)
(-1.71926e-09 -6.28245e-08 1.88712e-08)
(-2.71598e-08 -6.01787e-08 1.87523e-08)
(5.19671e-08 -9.61992e-08 1.90636e-08)
(1.32487e-08 -9.23894e-08 1.92489e-08)
(-5.44713e-09 -9.27823e-08 1.92627e-08)
(-4.26726e-08 -9.74212e-08 1.91049e-08)
(9.59417e-09 7.51951e-09 4.83128e-10)
(-4.15672e-10 -1.55548e-09 5.17341e-10)
(4.49433e-10 -1.75973e-09 5.18708e-10)
(-8.6643e-09 6.452e-09 4.87582e-10)
(1.61581e-08 -4.8027e-09 1.57586e-09)
(1.05225e-09 -1.04696e-08 1.63374e-09)
(-1.49074e-10 -1.08783e-08 1.63698e-09)
(-1.40763e-08 -6.20801e-09 1.5863e-09)
(1.71081e-08 -1.78844e-08 2.74768e-09)
(1.58224e-09 -2.05638e-08 2.80412e-09)
(4.15718e-10 -2.10788e-08 2.80849e-09)
(-1.39587e-08 -1.94785e-08 2.76177e-09)
(1.69677e-08 -2.8707e-08 3.90527e-09)
(1.63925e-09 -3.08298e-08 3.95066e-09)
(1.52065e-09 -3.14023e-08 3.95556e-09)
(-1.26608e-08 -3.04467e-08 3.92115e-09)
(1.82624e-08 -3.75765e-08 4.93265e-09)
(2.21161e-09 -4.08751e-08 4.96702e-09)
(2.15788e-09 -4.14893e-08 4.97199e-09)
(-1.27127e-08 -3.94326e-08 4.94882e-09)
(2.34741e-08 -4.56433e-08 5.71897e-09)
(4.29475e-09 -5.057e-08 5.74837e-09)
(1.31017e-09 -5.12211e-08 5.75315e-09)
(-1.6637e-08 -4.7595e-08 5.73438e-09)
(3.53711e-08 -5.80835e-08 6.18575e-09)
(8.61001e-09 -6.20399e-08 6.21899e-09)
(-1.81188e-09 -6.27018e-08 6.22355e-09)
(-2.72605e-08 -6.0052e-08 6.20007e-09)
(5.19773e-08 -9.59397e-08 6.31163e-09)
(1.33047e-08 -9.21806e-08 6.35724e-09)
(-5.5212e-09 -9.25749e-08 6.36192e-09)
(-4.27015e-08 -9.71664e-08 6.32574e-09)
)
;

boundaryField
{
    interface
    {
        type            solidTraction;
        traction        nonuniform List<vector> 
192
(
(39.097 -0.354536 -2.65178)
(40.7503 -0.368566 -4.30769)
(42.4424 -0.131905 -4.94511)
(43.5884 0.305727 -5.14743)
(44.0131 0.70147 -5.13167)
(45.0112 1.39566 -5.02287)
(43.4962 1.9291 -4.65888)
(47.146 4.40818 -4.38001)
(38.1252 -0.260621 -1.29947)
(38.8574 -0.297337 -2.25759)
(39.8887 -0.0944986 -2.55729)
(40.6599 0.34763 -2.60114)
(40.7999 0.762018 -2.5222)
(41.6626 1.52378 -2.39482)
(39.8512 2.11216 -2.15957)
(43.5714 4.70923 -1.97536)
(40.6433 -0.226821 -1.01686)
(41.2825 -0.262262 -1.74227)
(42.2958 -0.0674647 -1.96397)
(43.0801 0.392433 -1.99083)
(43.1479 0.841194 -1.92439)
(43.9369 1.68266 -1.82131)
(41.6927 2.35326 -1.65353)
(45.1693 5.11796 -1.51543)
(40.8733 -0.174639 -0.61504)
(41.3316 -0.187136 -1.11477)
(42.1339 0.00986458 -1.26045)
(42.7912 0.47148 -1.26495)
(42.7319 0.934158 -1.20508)
(43.436 1.80834 -1.12359)
(41.033 2.51482 -1.01868)
(44.427 5.31631 -0.938514)
(41.646 -0.149519 -0.447085)
(42.0545 -0.139763 -0.810371)
(42.7614 0.0673187 -0.91758)
(43.3631 0.535301 -0.920653)
(43.2245 1.01337 -0.876576)
(43.8521 1.91555 -0.816225)
(41.2799 2.65466 -0.743759)
(44.5236 5.49468 -0.68698)
(41.8589 -0.129896 -0.270506)
(42.2205 -0.101197 -0.507792)
(42.8444 0.115182 -0.5787)
(43.3923 0.587028 -0.579337)
(43.1935 1.07346 -0.548822)
(43.7717 1.98922 -0.508231)
(41.1189 2.74495 -0.46424)
(44.3003 5.60315 -0.431738)
(42.1146 -0.120413 -0.157994)
(42.4602 -0.0787006 -0.296358)
(43.0404 0.145389 -0.338137)
(43.5586 0.621011 -0.338766)
(43.3225 1.11388 -0.321306)
(43.8644 2.03902 -0.297487)
(41.1489 2.80642 -0.272901)
(44.2741 5.67855 -0.253609)
(42.1795 -0.114621 -0.0464551)
(42.5136 -0.0661724 -0.0905286)
(43.0695 0.161456 -0.104062)
(43.5709 0.638158 -0.104121)
(43.3181 1.13353 -0.0984483)
(43.8426 2.06195 -0.0906959)
(41.108 2.83464 -0.0835099)
(44.2047 5.71238 -0.0775613)
(3.67537 0.889032 13.6409)
(6.28074 1.11014 9.66419)
(7.41377 0.982645 5.63252)
(7.87302 0.749576 3.84589)
(8.05154 0.644262 3.29468)
(8.19505 0.682503 3.79254)
(8.37804 0.826169 5.54519)
(9.24479 1.03173 7.00181)
(2.14835 0.532799 17.3663)
(4.13372 0.863175 16.4922)
(4.92952 0.80678 15.0954)
(5.2208 0.541787 14.5478)
(5.33663 0.352233 14.3466)
(5.49202 0.245643 14.5451)
(5.83958 0.263592 15.104)
(6.97048 0.336537 15.3938)
(2.11288 0.395134 14.5865)
(4.11259 0.719213 13.9315)
(4.94137 0.688401 12.6166)
(5.25139 0.39654 12.0547)
(5.36625 0.148343 11.8712)
(5.49671 -0.0581743 12.0645)
(5.79544 -0.167336 12.6897)
(6.88943 -0.186744 13.4295)
(2.27392 0.32757 14.8078)
(4.61877 0.634107 14.4394)
(5.66375 0.603627 13.2794)
(6.07401 0.286622 12.8285)
(6.22321 0.00919804 12.7556)
(6.39237 -0.245125 12.9559)
(6.66226 -0.427741 13.4248)
(7.82241 -0.597136 14.0298)
(-7.338 0.719873 0.578881)
(-4.94375 0.995335 1.17946)
(-2.30795 0.798256 1.38382)
(-0.868643 0.306324 1.49274)
(-0.276915 0.0266236 1.58425)
(1.23992 -0.366397 1.83648)
(0.861388 -0.338956 2.05617)
(9.28732 -2.50107 2.66043)
(-11.1164 0.294925 -0.319203)
(-10.6635 0.46541 -0.338736)
(-9.83027 0.384136 -0.428314)
(-9.20961 0.103573 -0.445596)
(-8.96791 0.0274692 -0.386851)
(-7.45031 -0.19476 -0.164821)
(-7.44333 0.0526143 0.12286)
(0.896517 -1.92649 0.561735)
(-11.3915 0.170086 -0.198741)
(-11.0697 0.261302 -0.132953)
(-10.4261 0.229283 -0.105862)
(-9.78893 0.0600528 -0.0506216)
(-9.46823 0.107177 0.0402031)
(-7.6229 -0.0144323 0.226775)
(-7.31962 0.344913 0.42473)
(1.49001 -1.70129 0.681307)
(-12.6574 0.0839136 -0.212318)
(-12.5441 0.117586 -0.152911)
(-12.2104 0.120184 -0.102652)
(-11.6663 0.0450395 -0.0403228)
(-11.3284 0.195746 0.0385839)
(-9.26961 0.165504 0.172995)
(-8.65852 0.596683 0.304052)
(0.3532 -1.44064 0.45977)
(-12.9446 0.0695522 -0.0947553)
(-12.8245 0.08347 -0.00412211)
(-12.5287 0.104671 0.0741315)
(-11.941 0.0758485 0.142021)
(-11.5319 0.278862 0.206835)
(-9.32561 0.289016 0.29295)
(-8.58606 0.738095 0.360521)
(0.521194 -1.33541 0.433096)
(-13.3563 0.0651729 -0.0636668)
(-13.2402 0.0735106 0.00776174)
(-12.9712 0.108233 0.0731312)
(-12.36 0.10793 0.125193)
(-11.9049 0.343678 0.170443)
(-9.60485 0.37873 0.223826)
(-8.77107 0.834387 0.261646)
(0.407029 -1.25748 0.300321)
(-13.4774 0.068918 -0.0218427)
(-13.3457 0.0781468 0.0280811)
(-13.0657 0.120357 0.0721293)
(-12.426 0.133004 0.10495)
(-11.9378 0.383595 0.131599)
(-9.58548 0.428316 0.159604)
(-8.71316 0.883577 0.177125)
(0.499829 -1.22502 0.19274)
(-13.5797 0.0699944 -0.0105088)
(-13.4454 0.0803152 0.00515939)
(-13.1627 0.126552 0.0198434)
(-12.5117 0.145534 0.030692)
(-12.0069 0.40309 0.0396061)
(-9.62979 0.452785 0.0486976)
(-8.73121 0.907924 0.0548294)
(0.496607 -1.20729 0.0598932)
(9.31809 -6.37242 -0.872076)
(8.49078 -4.60484 -0.664428)
(8.37576 -2.18794 -0.456639)
(8.34151 -0.727518 -0.302326)
(8.38759 0.408581 -0.214092)
(8.41662 1.20077 -0.132975)
(8.4462 1.70298 -0.0788471)
(8.4585 1.94364 -0.0240534)
(7.00774 -14.8912 -0.142392)
(5.88134 -14.4616 -0.0603132)
(5.54574 -13.5036 0.0409371)
(5.41372 -12.8358 0.0659997)
(5.37832 -12.2553 0.0657664)
(5.35643 -11.8366 0.054207)
(5.35234 -11.5614 0.0336326)
(5.34907 -11.4178 0.0124744)
(6.92569 -12.9589 0.400693)
(5.81936 -12.0764 0.395817)
(5.5231 -11.0593 0.376061)
(5.41968 -10.3998 0.307786)
(5.39852 -9.81066 0.243471)
(5.38498 -9.42388 0.171198)
(5.38462 -9.15628 0.102272)
(5.38234 -9.03407 0.033701)
(7.82044 -13.6139 0.815668)
(6.64515 -12.9106 0.663444)
(6.37037 -12.1579 0.564092)
(6.2342 -11.6337 0.443494)
(6.20609 -11.1181 0.345728)
(6.18283 -10.8012 0.238875)
(6.17978 -10.5686 0.143377)
(6.17591 -10.4639 0.0467018)
)
;
        pressure        uniform 0;
        secondOrder     false;
        setEffectiveTraction false;
        relaxationFactor 1;
        value           nonuniform List<vector> 
192
(
(8.87589e-08 6.149e-08 3.03725e-08)
(1.04629e-07 3.84621e-08 6.04866e-08)
(1.08788e-07 1.63324e-08 7.83268e-08)
(1.09989e-07 -3.66637e-11 9.26292e-08)
(1.12924e-07 -1.41017e-08 1.06792e-07)
(1.20538e-07 -2.8893e-08 1.22779e-07)
(1.35624e-07 -5.27821e-08 1.4176e-07)
(1.58487e-07 -1.1494e-07 1.60329e-07)
(6.93971e-08 3.2542e-08 3.35543e-09)
(8.08839e-08 1.60058e-08 2.09459e-08)
(8.33164e-08 2.63116e-10 3.73958e-08)
(8.37247e-08 -1.30805e-08 5.12076e-08)
(8.61378e-08 -2.55761e-08 6.41223e-08)
(9.36118e-08 -3.82244e-08 7.74391e-08)
(1.09684e-07 -5.6585e-08 9.0485e-08)
(1.36263e-07 -1.07751e-07 9.81394e-08)
(5.67076e-08 2.10016e-08 1.17019e-09)
(6.53215e-08 4.14716e-09 1.30077e-08)
(6.70063e-08 -1.03292e-08 2.72334e-08)
(6.72691e-08 -2.19935e-08 4.04481e-08)
(6.9654e-08 -3.22759e-08 5.24516e-08)
(7.735e-08 -4.15589e-08 6.33459e-08)
(9.41295e-08 -5.49526e-08 7.16997e-08)
(1.21738e-07 -1.00112e-07 7.40825e-08)
(5.00577e-08 1.66917e-08 2.15095e-09)
(5.71043e-08 -6.95066e-10 1.14682e-08)
(5.86168e-08 -1.55132e-08 2.29608e-08)
(5.90949e-08 -2.66331e-08 3.43065e-08)
(6.17364e-08 -3.53291e-08 4.45174e-08)
(6.97198e-08 -4.22234e-08 5.29291e-08)
(8.67665e-08 -5.30172e-08 5.83019e-08)
(1.14347e-07 -9.54967e-08 5.91114e-08)
(4.67712e-08 1.5026e-08 2.47252e-09)
(5.32324e-08 -2.38442e-09 9.86613e-09)
(5.48394e-08 -1.74302e-08 1.85975e-08)
(5.56187e-08 -2.83923e-08 2.73803e-08)
(5.85591e-08 -3.62978e-08 3.52461e-08)
(6.67537e-08 -4.20671e-08 4.13913e-08)
(8.38131e-08 -5.18752e-08 4.49841e-08)
(1.11076e-07 -9.30813e-08 4.54885e-08)
(4.50998e-08 1.43506e-08 2.09709e-09)
(5.14231e-08 -2.86433e-09 7.48424e-09)
(5.31904e-08 -1.78607e-08 1.35782e-08)
(5.42194e-08 -2.87267e-08 1.96915e-08)
(5.73845e-08 -3.63409e-08 2.51408e-08)
(6.56983e-08 -4.1762e-08 2.93076e-08)
(8.26871e-08 -5.13205e-08 3.16923e-08)
(1.09644e-07 -9.18671e-08 3.21194e-08)
(4.42335e-08 1.40662e-08 1.35898e-09)
(5.05427e-08 -2.93984e-09 4.62383e-09)
(5.24344e-08 -1.77952e-08 8.21471e-09)
(5.36238e-08 -2.85796e-08 1.17886e-08)
(5.69233e-08 -3.61198e-08 1.49618e-08)
(6.52938e-08 -4.15065e-08 1.73746e-08)
(8.22133e-08 -5.10629e-08 1.87632e-08)
(1.08958e-07 -9.1274e-08 1.90648e-08)
(4.38533e-08 1.39576e-08 4.66907e-10)
(5.01645e-08 -2.92423e-09 1.55897e-09)
(5.21176e-08 -1.7682e-08 2.74412e-09)
(5.33821e-08 -2.84183e-08 3.91747e-09)
(5.6742e-08 -3.59497e-08 4.95702e-09)
(6.51343e-08 -4.13658e-08 5.74709e-09)
(8.20154e-08 -5.09572e-08 6.20529e-09)
(1.08654e-07 -9.10286e-08 6.31419e-09)
(3.04208e-08 6.6127e-08 9.31161e-08)
(5.05597e-08 4.53386e-08 1.20949e-07)
(5.36271e-08 2.38596e-08 1.40321e-07)
(5.29314e-08 7.02728e-09 1.56557e-07)
(5.35834e-08 -7.99524e-09 1.72925e-07)
(5.83113e-08 -2.42714e-08 1.91568e-07)
(6.97442e-08 -5.03141e-08 2.139e-07)
(8.5891e-08 -1.14619e-07 2.39082e-07)
(3.35067e-09 4.72652e-08 8.38177e-08)
(9.27446e-09 3.42566e-08 1.10874e-07)
(1.07467e-08 1.93151e-08 1.28965e-07)
(1.04763e-08 4.43374e-09 1.44051e-07)
(1.06401e-08 -1.13486e-08 1.59432e-07)
(1.24669e-08 -2.89303e-08 1.77355e-07)
(1.67528e-08 -5.34323e-08 2.00155e-07)
(2.16794e-08 -1.10393e-07 2.29205e-07)
(-3.50921e-09 4.67511e-08 8.26768e-08)
(-8.55128e-09 3.36894e-08 1.09728e-07)
(-8.84816e-09 1.87307e-08 1.27805e-07)
(-7.37967e-09 3.83628e-09 1.42876e-07)
(-6.35662e-09 -1.19601e-08 1.58235e-07)
(-7.02333e-09 -2.95568e-08 1.76126e-07)
(-1.02361e-08 -5.40453e-08 1.98883e-07)
(-1.43364e-08 -1.10696e-07 2.27905e-07)
(-2.94592e-08 6.41833e-08 8.98956e-08)
(-4.83236e-08 4.3487e-08 1.17709e-07)
(-5.02223e-08 2.20744e-08 1.37011e-07)
(-4.83316e-08 5.22781e-09 1.5319e-07)
(-4.7778e-08 -9.82601e-09 1.69495e-07)
(-5.1329e-08 -2.61281e-08 1.88049e-07)
(-6.16648e-08 -5.21183e-08 2.10272e-07)
(-7.68636e-08 -1.15591e-07 2.35433e-07)
(-8.28575e-08 5.89583e-08 2.98506e-08)
(-9.73633e-08 3.60247e-08 5.97877e-08)
(-1.0026e-07 1.39456e-08 7.76628e-08)
(-1.00163e-07 -2.44098e-09 9.19963e-08)
(-1.0179e-07 -1.65214e-08 1.0615e-07)
(-1.08126e-07 -3.13005e-08 1.22086e-07)
(-1.22015e-07 -5.50704e-08 1.40974e-07)
(-1.43771e-07 -1.16335e-07 1.59424e-07)
(-6.35401e-08 3.0388e-08 3.44137e-09)
(-7.37417e-08 1.3772e-08 2.10425e-08)
(-7.49442e-08 -2.05055e-09 3.75252e-08)
(-7.40602e-08 -1.54681e-08 5.13675e-08)
(-7.51385e-08 -2.80062e-08 6.42802e-08)
(-8.12765e-08 -4.06642e-08 7.7556e-08)
(-9.6069e-08 -5.894e-08 9.05298e-08)
(-1.21458e-07 -1.09262e-07 9.81189e-08)
(-5.10503e-08 1.89875e-08 1.27623e-09)
(-5.8394e-08 2.02946e-09 1.31845e-08)
(-5.8857e-08 -1.25798e-08 2.74394e-08)
(-5.7825e-08 -2.43642e-08 4.06687e-08)
(-5.88513e-08 -3.47246e-08 5.26653e-08)
(-6.51603e-08 -4.40485e-08 6.35271e-08)
(-8.05829e-08 -5.73869e-08 7.18321e-08)
(-1.06918e-07 -1.01718e-07 7.41813e-08)
(-4.4572e-08 1.47507e-08 2.22763e-09)
(-5.03894e-08 -2.75253e-09 1.1621e-08)
(-5.06952e-08 -1.77255e-08 2.31466e-08)
(-4.98782e-08 -2.8993e-08 3.45031e-08)
(-5.11436e-08 -3.77947e-08 4.47073e-08)
(-5.7703e-08 -4.47548e-08 5.3096e-08)
(-7.33344e-08 -5.55111e-08 5.84374e-08)
(-9.95749e-08 -9.71653e-08 5.92273e-08)
(-4.14046e-08 1.3137e-08 2.52455e-09)
(-4.66778e-08 -4.40198e-09 9.98005e-09)
(-4.70979e-08 -1.96176e-08 1.87433e-08)
(-4.65861e-08 -3.07452e-08 2.75379e-08)
(-4.81399e-08 -3.87753e-08 3.54005e-08)
(-5.48862e-08 -4.46273e-08 4.15311e-08)
(-7.0492e-08 -5.44088e-08 4.51041e-08)
(-9.63701e-08 -9.47914e-08 4.55965e-08)
(-3.98083e-08 1.24977e-08 2.1306e-09)
(-4.49735e-08 -4.85299e-09 7.561e-09)
(-4.55714e-08 -2.003e-08 1.36801e-08)
(-4.53153e-08 -3.10739e-08 1.98046e-08)
(-4.7089e-08 -3.88254e-08 2.52538e-08)
(-5.39397e-08 -4.43401e-08 2.94124e-08)
(-6.94514e-08 -5.38788e-08 3.17853e-08)
(-9.49948e-08 -9.36029e-08 3.22052e-08)
(-3.89854e-08 1.22353e-08 1.3778e-09)
(-4.41552e-08 -4.90943e-09 4.66783e-09)
(-4.48898e-08 -1.99521e-08 8.27437e-09)
(-4.47993e-08 -3.09222e-08 1.18561e-08)
(-4.67059e-08 -3.86074e-08 1.50303e-08)
(-5.36054e-08 -4.40944e-08 1.74393e-08)
(-6.90345e-08 -5.36351e-08 1.88218e-08)
(-9.43492e-08 -9.30244e-08 1.91196e-08)
(-3.86251e-08 1.21372e-08 4.72984e-10)
(-4.38058e-08 -4.88441e-09 1.57329e-09)
(-4.4608e-08 -1.98323e-08 2.76372e-09)
(-4.45956e-08 -3.07581e-08 3.93984e-09)
(-4.65623e-08 -3.84384e-08 4.97995e-09)
(-5.34802e-08 -4.3958e-08 5.76893e-09)
(-6.88648e-08 -5.35357e-08 6.22526e-09)
(-9.40666e-08 -9.27856e-08 6.33297e-09)
(8.61697e-08 -1.94042e-07 1.65413e-07)
(7.06159e-08 -1.80276e-07 1.01089e-07)
(5.96708e-08 -1.69371e-07 7.5008e-08)
(5.50135e-08 -1.6229e-07 5.89318e-08)
(5.36709e-08 -1.58058e-07 4.50087e-08)
(5.34616e-08 -1.55625e-07 3.17254e-08)
(5.34786e-08 -1.54299e-07 1.88446e-08)
(5.34945e-08 -1.53713e-07 6.24674e-09)
(2.19582e-08 -1.84705e-07 1.60653e-07)
(1.76092e-08 -1.67095e-07 1.03724e-07)
(1.38443e-08 -1.55746e-07 7.92835e-08)
(1.23264e-08 -1.49345e-07 6.18897e-08)
(1.2099e-08 -1.45834e-07 4.64968e-08)
(1.22485e-08 -1.43859e-07 3.23508e-08)
(1.23954e-08 -1.42764e-07 1.90768e-08)
(1.24644e-08 -1.42266e-07 6.30504e-09)
(-1.40416e-08 -1.83969e-07 1.60384e-07)
(-9.37093e-09 -1.66381e-07 1.03763e-07)
(-5.52831e-09 -1.55067e-07 7.93381e-08)
(-4.01877e-09 -1.48689e-07 6.19334e-08)
(-3.82468e-09 -1.45191e-07 4.65304e-08)
(-4.0113e-09 -1.43224e-07 3.23752e-08)
(-4.1883e-09 -1.42132e-07 1.90918e-08)
(-4.27387e-09 -1.41637e-07 6.31009e-09)
(-7.65662e-08 -1.92086e-07 1.64663e-07)
(-6.08024e-08 -1.78322e-07 1.01165e-07)
(-4.97896e-08 -1.67503e-07 7.51415e-08)
(-4.51388e-08 -1.60484e-07 5.90497e-08)
(-4.38318e-08 -1.56289e-07 4.51058e-08)
(-4.36621e-08 -1.53878e-07 3.17982e-08)
(-4.37103e-08 -1.52564e-07 1.88897e-08)
(-4.37431e-08 -1.51982e-07 6.26204e-09)
)
;
        gradient        nonuniform List<vector> 
192
(
(4.71389e-06 1.58387e-06 -2.0675e-07)
(4.42166e-06 4.50142e-07 -3.43791e-07)
(4.5156e-06 4.81066e-08 -3.71409e-07)
(4.65802e-06 4.58863e-09 -3.73468e-07)
(4.82818e-06 1.13781e-07 -3.72947e-07)
(5.04681e-06 3.27053e-07 -3.70602e-07)
(5.33605e-06 5.48018e-07 -3.62607e-07)
(5.8908e-06 3.7133e-07 -3.48436e-07)
(3.89813e-06 1.10489e-06 -3.11776e-07)
(3.70479e-06 3.13474e-07 -5.10599e-07)
(3.75777e-06 1.70936e-08 -5.51693e-07)
(3.86367e-06 -7.86111e-09 -5.5984e-07)
(4.01495e-06 1.04297e-07 -5.66096e-07)
(4.23749e-06 3.29749e-07 -5.68708e-07)
(4.57974e-06 5.77383e-07 -5.56548e-07)
(5.34019e-06 3.85732e-07 -5.26713e-07)
(3.39682e-06 7.61547e-07 -1.86989e-07)
(3.31931e-06 2.10243e-07 -3.15206e-07)
(3.37974e-06 -1.12907e-09 -3.37857e-07)
(3.47963e-06 -9.81362e-09 -3.35565e-07)
(3.63082e-06 1.04912e-07 -3.319e-07)
(3.8665e-06 3.366e-07 -3.27183e-07)
(4.24256e-06 5.90013e-07 -3.2011e-07)
(5.05763e-06 3.94592e-07 -3.16103e-07)
(3.09888e-06 6.0273e-07 -8.05322e-08)
(3.06315e-06 1.62619e-07 -1.36822e-07)
(3.13312e-06 -3.2612e-09 -1.4211e-07)
(3.23545e-06 -1.90223e-09 -1.33356e-07)
(3.39033e-06 1.12678e-07 -1.24202e-07)
(3.63477e-06 3.41538e-07 -1.17726e-07)
(4.02668e-06 5.88464e-07 -1.17565e-07)
(4.85121e-06 3.97813e-07 -1.255e-07)
(2.924e-06 5.44216e-07 -3.00215e-08)
(2.89941e-06 1.48676e-07 -4.803e-08)
(2.97475e-06 2.34107e-09 -4.49759e-08)
(3.08096e-06 8.09485e-09 -3.57251e-08)
(3.23998e-06 1.20542e-07 -2.70921e-08)
(3.48964e-06 3.43238e-07 -2.25043e-08)
(3.88745e-06 5.82241e-07 -2.54847e-08)
(4.70662e-06 3.9764e-07 -3.46914e-08)
(2.82231e-06 5.24696e-07 -1.12458e-08)
(2.80073e-06 1.47672e-07 -1.52899e-08)
(2.87887e-06 9.04651e-09 -1.06622e-08)
(2.98825e-06 1.59825e-08 -3.76685e-09)
(3.1505e-06 1.259e-07 2.10327e-09)
(3.40303e-06 3.43146e-07 4.5617e-09)
(3.80223e-06 5.76279e-07 1.45064e-09)
(4.6137e-06 3.95901e-07 -5.53339e-09)
(2.76596e-06 5.17691e-07 -4.53631e-09)
(2.74537e-06 1.49264e-07 -5.12133e-09)
(2.82497e-06 1.38661e-08 -1.93295e-09)
(2.9364e-06 2.0861e-08 2.02502e-09)
(3.10067e-06 1.28871e-07 5.17912e-09)
(3.35458e-06 3.42586e-07 6.26915e-09)
(3.75364e-06 5.72147e-07 4.2326e-09)
(4.55925e-06 3.94021e-07 9.12176e-11)
(2.74073e-06 5.15044e-07 -1.29761e-09)
(2.72051e-06 1.50278e-07 -1.35109e-09)
(2.80076e-06 1.6194e-08 -2.84677e-10)
(2.91315e-06 2.3095e-08 9.76458e-10)
(3.07837e-06 1.30144e-07 1.94918e-09)
(3.33282e-06 3.422e-07 2.24986e-09)
(3.73155e-06 5.70101e-07 1.56309e-09)
(4.53416e-06 3.92886e-07 2.04119e-10)
(4.68369e-08 1.95483e-06 4.81274e-06)
(9.60886e-08 1.00027e-06 4.49319e-06)
(1.02755e-07 6.50283e-07 4.58815e-06)
(9.33933e-08 5.69704e-07 4.74072e-06)
(8.09263e-08 6.02298e-07 4.9177e-06)
(6.8697e-08 6.96779e-07 5.13249e-06)
(6.56463e-08 7.45462e-07 5.40861e-06)
(8.31047e-08 3.97001e-07 5.95183e-06)
(-6.0107e-08 1.82235e-06 4.29521e-06)
(-8.04448e-08 9.73803e-07 3.99074e-06)
(-8.72741e-08 6.32726e-07 4.01179e-06)
(-9.74189e-08 5.47095e-07 4.11405e-06)
(-1.09638e-07 5.79026e-07 4.26086e-06)
(-1.20943e-07 6.86659e-07 4.46227e-06)
(-1.20488e-07 7.70932e-07 4.77202e-06)
(-9.6646e-08 4.1358e-07 5.52656e-06)
(4.73779e-08 1.81419e-06 4.21814e-06)
(6.3575e-08 9.73057e-07 3.91753e-06)
(7.13196e-08 6.33291e-07 3.93619e-06)
(8.22614e-08 5.4733e-07 4.0362e-06)
(9.43609e-08 5.78764e-07 4.18131e-06)
(1.04672e-07 6.85913e-07 4.38117e-06)
(1.02348e-07 7.69727e-07 4.68951e-06)
(7.60139e-08 4.13098e-07 5.4446e-06)
(-5.48498e-08 1.93322e-06 4.59204e-06)
(-1.06925e-07 9.97705e-07 4.28344e-06)
(-1.13062e-07 6.51395e-07 4.37046e-06)
(-1.03232e-07 5.70127e-07 4.51643e-06)
(-9.10362e-08 6.01429e-07 4.68868e-06)
(-7.98478e-08 6.94633e-07 4.8994e-06)
(-7.85846e-08 7.42247e-07 5.17231e-06)
(-9.82576e-08 3.95754e-07 5.72108e-06)
(-4.32671e-06 1.51522e-06 -2.11558e-07)
(-4.0301e-06 4.00722e-07 -3.50234e-07)
(-4.11604e-06 1.09356e-09 -3.77369e-07)
(-4.24977e-06 -4.33758e-08 -3.79097e-07)
(-4.41196e-06 6.57947e-08 -3.78927e-07)
(-4.6236e-06 2.80843e-07 -3.7767e-07)
(-4.90658e-06 5.06083e-07 -3.71482e-07)
(-5.45083e-06 3.36258e-07 -3.59574e-07)
(-3.51788e-06 1.03429e-06 -3.11746e-07)
(-3.32752e-06 2.63999e-07 -5.10292e-07)
(-3.37423e-06 -2.96253e-08 -5.51004e-07)
(-3.47152e-06 -5.59529e-08 -5.59072e-07)
(-3.61359e-06 5.55244e-08 -5.65782e-07)
(-3.82673e-06 2.82059e-07 -5.6946e-07)
(-4.15978e-06 5.33379e-07 -5.5897e-07)
(-4.90777e-06 3.48412e-07 -5.31232e-07)
(-3.0291e-06 6.93185e-07 -1.8512e-07)
(-2.9537e-06 1.61455e-07 -3.11915e-07)
(-3.00783e-06 -4.76923e-08 -3.3406e-07)
(-3.09897e-06 -5.8157e-08 -3.31741e-07)
(-3.24001e-06 5.54036e-08 -3.2849e-07)
(-3.46418e-06 2.87653e-07 -3.24655e-07)
(-3.82792e-06 5.4431e-07 -3.18908e-07)
(-4.62758e-06 3.55415e-07 -3.16522e-07)
(-2.7409e-06 5.37256e-07 -7.87927e-08)
(-2.70698e-06 1.15054e-07 -1.33348e-07)
(-2.77055e-06 -4.94557e-08 -1.37884e-07)
(-2.86392e-06 -5.03863e-08 -1.2896e-07)
(-3.00797e-06 6.26092e-08 -1.20069e-07)
(-3.23948e-06 2.91641e-07 -1.1423e-07)
(-3.61667e-06 5.41512e-07 -1.15027e-07)
(-4.42321e-06 3.57318e-07 -1.24107e-07)
(-2.57261e-06 4.81048e-07 -2.88044e-08)
(-2.54979e-06 1.0236e-07 -4.53644e-08)
(-2.61863e-06 -4.33073e-08 -4.15206e-08)
(-2.71569e-06 -4.03431e-08 -3.19714e-08)
(-2.86337e-06 7.01329e-08 -2.34302e-08)
(-3.09918e-06 2.92695e-07 -1.92449e-08)
(-3.48077e-06 5.34434e-07 -2.28638e-08)
(-4.28019e-06 3.56254e-07 -3.28288e-08)
(-2.47502e-06 4.63088e-07 -1.04872e-08)
(-2.45517e-06 1.02335e-07 -1.35398e-08)
(-2.52673e-06 -3.60648e-08 -8.2806e-09)
(-2.62678e-06 -3.22969e-08 -1.07656e-09)
(-2.77732e-06 7.53357e-08 4.81113e-09)
(-3.0154e-06 2.92208e-07 7.05098e-09)
(-3.39751e-06 5.2793e-07 3.55241e-09)
(-4.18814e-06 3.53952e-07 -3.89734e-09)
(-2.42101e-06 4.57022e-07 -4.12561e-09)
(-2.40215e-06 1.04565e-07 -4.14986e-09)
(-2.47511e-06 -3.08454e-08 -5.71382e-10)
(-2.57706e-06 -2.72519e-08 3.60609e-09)
(-2.72941e-06 7.82605e-08 6.80806e-09)
(-2.96853e-06 2.91437e-07 7.79968e-09)