/*--------------------------------*- C++ -*----------------------------------*\
| =========                 |                                                 |
| \\      /  F ield         | OpenFOAM: The Open Source CFD Toolbox           |
|  \\    /   O peration     | Version:  v1912                                 |
|   \\  /    A nd           | Website:  www.openfoam.com                      |
|    \\/     M anipulation  |                                                 |
\*---------------------------------------------------------------------------*/
FoamFile
{
    version     2.0;
    format      ascii;
    class       volVectorField;
    location    "0.85/solid";
    object      DD;
}
// * * * * * * * * * * * * * * * * * * * * * * * * * * * * * * * * * * * * * //

dimensions      [0 1 0 0 0 0 0];


internalField   nonuniform List<vector> 
256
(
(1.95974e-10 2.10482e-10 2.48544e-10)
(4.67549e-11 1.38146e-10 2.41145e-10)
(-6.323e-11 1.31967e-10 2.3304e-10)
(-1.92727e-10 1.89608e-10 2.24337e-10)
(3.71272e-10 1.9025e-10 5.9337e-10)
(9.6096e-11 1.23092e-10 5.80296e-10)
(-1.34271e-10 1.20961e-10 5.63556e-10)
(-3.81427e-10 1.87068e-10 5.42905e-10)
(4.12583e-10 3.01091e-11 8.43247e-10)
(1.02901e-10 -3.97605e-13 8.23186e-10)
(-1.66023e-10 4.11559e-12 8.01379e-10)
(-4.46956e-10 4.79802e-11 7.77365e-10)
(4.0439e-10 -1.59474e-10 1.05176e-09)
(8.80141e-11 -1.71087e-10 1.0225e-09)
(-1.84046e-10 -1.59958e-10 9.9707e-10)
(-4.71253e-10 -1.22518e-10 9.7486e-10)
(3.98847e-10 -3.67596e-10 1.25338e-09)
(7.12721e-11 -3.79445e-10 1.21391e-09)
(-2.08985e-10 -3.62028e-10 1.1854e-09)
(-5.06775e-10 -3.12726e-10 1.16717e-09)
(4.29567e-10 -6.22024e-10 1.46802e-09)
(6.60563e-11 -6.37089e-10 1.42038e-09)
(-2.54837e-10 -6.13349e-10 1.38894e-09)
(-5.87788e-10 -5.49091e-10 1.37299e-09)
(5.104e-10 -9.87368e-10 1.69098e-09)
(7.60322e-11 -9.86556e-10 1.64595e-09)
(-3.26757e-10 -9.55549e-10 1.61157e-09)
(-7.28554e-10 -8.93535e-10 1.58729e-09)
(5.88194e-10 -1.45766e-09 1.85406e-09)
(8.1831e-11 -1.42354e-09 1.82556e-09)
(-4.07433e-10 -1.38174e-09 1.78871e-09)
(-8.76239e-10 -1.33162e-09 1.74353e-09)
(1.33232e-10 7.81114e-11 1.11626e-10)
(3.07905e-11 1.58094e-11 1.22238e-10)
(-3.75922e-11 1.37874e-11 1.18578e-10)
(-1.23029e-10 6.63134e-11 1.00836e-10)
(2.60306e-10 4.37188e-12 3.46188e-10)
(6.64795e-11 -5.25912e-11 3.67197e-10)
(-8.14417e-11 -5.12674e-11 3.57157e-10)
(-2.51544e-10 7.84189e-12 3.16974e-10)
(2.88582e-10 -1.44496e-10 5.63128e-10)
(7.11821e-11 -1.69759e-10 5.8568e-10)
(-1.01215e-10 -1.63173e-10 5.71155e-10)
(-2.94835e-10 -1.23226e-10 5.20682e-10)
(2.77465e-10 -3.16585e-10 7.57961e-10)
(5.80076e-11 -3.264e-10 7.77497e-10)
(-1.13229e-10 -3.14043e-10 7.59686e-10)
(-3.08939e-10 -2.78048e-10 7.05576e-10)
(2.70886e-10 -5.0684e-10 9.42996e-10)
(4.33956e-11 -5.19529e-10 9.5758e-10)
(-1.33889e-10 -5.01344e-10 9.36977e-10)
(-3.37276e-10 -4.51328e-10 8.82113e-10)
(3.0425e-10 -7.29706e-10 1.12536e-09)
(4.10394e-11 -7.48079e-10 1.13466e-09)
(-1.77014e-10 -7.23956e-10 1.11146e-09)
(-4.15402e-10 -6.56963e-10 1.05659e-09)
(3.99564e-10 -1.03394e-09 1.28969e-09)
(5.6629e-11 -1.03367e-09 1.29564e-09)
(-2.4962e-10 -1.00301e-09 1.2702e-09)
(-5.65439e-10 -9.41986e-10 1.21402e-09)
(5.03865e-10 -1.43498e-09 1.38386e-09)
(6.93181e-11 -1.38386e-09 1.38886e-09)
(-3.33097e-10 -1.34383e-09 1.36247e-09)
(-7.3471e-10 -1.31398e-09 1.30491e-09)
(7.57779e-11 2.61206e-11 5.60157e-11)
(1.45857e-11 -2.15046e-11 7.27246e-11)
(-1.68776e-11 -2.30583e-11 7.02435e-11)
(-6.17916e-11 1.39853e-11 4.89486e-11)
(1.54411e-10 -8.96233e-11 2.16012e-10)
(3.47024e-11 -1.34104e-10 2.48462e-10)
(-3.65319e-11 -1.32493e-10 2.41532e-10)
(-1.33867e-10 -8.75967e-11 1.9634e-10)
(1.70577e-10 -2.47474e-10 3.94078e-10)
(3.63694e-11 -2.67946e-10 4.30726e-10)
(-4.53788e-11 -2.61535e-10 4.2025e-10)
(-1.57518e-10 -2.28681e-10 3.64037e-10)
(1.58765e-10 -4.10884e-10 5.67565e-10)
(2.48041e-11 -4.20757e-10 6.03202e-10)
(-5.21035e-11 -4.08994e-10 5.89878e-10)
(-1.64287e-10 -3.75616e-10 5.28938e-10)
(1.53624e-10 -5.78656e-10 7.30042e-10)
(1.24881e-11 -5.93978e-10 7.62709e-10)
(-6.91436e-11 -5.76708e-10 7.46911e-10)
(-1.88262e-10 -5.26999e-10 6.83867e-10)
(1.90874e-10 -7.62418e-10 8.75297e-10)
(1.30251e-11 -7.84864e-10 9.04153e-10)
(-1.10089e-10 -7.61991e-10 8.86149e-10)
(-2.65131e-10 -6.94196e-10 8.22339e-10)
(2.95939e-10 -1.00982e-09 9.83461e-10)
(3.33162e-11 -1.01246e-09 1.00798e-09)
(-1.82994e-10 -9.83516e-10 9.88345e-10)
(-4.20222e-10 -9.23378e-10 9.2521e-10)
(4.14652e-10 -1.35253e-09 1.01874e-09)
(5.12242e-11 -1.2981e-09 1.03949e-09)
(-2.67649e-10 -1.26025e-09 1.01963e-09)
(-5.99433e-10 -1.23806e-09 9.59034e-10)
(4.61445e-11 4.78237e-12 4.20905e-11)
(6.32915e-12 -3.17527e-11 5.45012e-11)
(-6.44208e-12 -3.36094e-11 5.2658e-11)
(-2.98465e-11 -9.02037e-12 3.69686e-11)
(9.91941e-11 -1.27917e-10 1.62546e-10)
(1.81402e-11 -1.63451e-10 1.86301e-10)
(-1.25612e-11 -1.62711e-10 1.81306e-10)
(-7.12232e-11 -1.29495e-10 1.48599e-10)
(1.10487e-10 -2.93024e-10 3.03553e-10)
(1.90287e-11 -3.10712e-10 3.29997e-10)
(-1.49183e-11 -3.05486e-10 3.22372e-10)
(-8.44687e-11 -2.78689e-10 2.81948e-10)
(1.01587e-10 -4.51672e-10 4.46747e-10)
(1.00152e-11 -4.62566e-10 4.71959e-10)
(-1.8625e-11 -4.522e-10 4.62061e-10)
(-8.8706e-11 -4.21312e-10 4.18302e-10)
(1.00973e-10 -6.01678e-10 5.79411e-10)
(7.95732e-13 -6.19668e-10 6.02009e-10)
(-3.36957e-11 -6.03973e-10 5.90073e-10)
(-1.12179e-10 -5.55251e-10 5.44731e-10)
(1.42735e-10 -7.5661e-10 6.89124e-10)
(4.1422e-12 -7.82498e-10 7.08763e-10)
(-7.29923e-11 -7.61371e-10 6.95053e-10)
(-1.89026e-10 -6.93924e-10 6.48921e-10)
(2.51314e-10 -9.68998e-10 7.58086e-10)
(2.67297e-11 -9.7617e-10 7.74753e-10)
(-1.44253e-10 -9.49111e-10 7.59841e-10)
(-3.43514e-10 -8.88328e-10 7.13826e-10)
(3.7239e-10 -1.2809e-09 7.6683e-10)
(4.6587e-11 -1.23318e-09 7.8188e-10)
(-2.27152e-10 -1.19723e-09 7.66959e-10)
(-5.21224e-10 -1.17218e-09 7.21782e-10)
(3.50404e-11 -3.36566e-12 3.55205e-11)
(3.83534e-12 -3.41823e-11 4.20957e-11)
(-2.79707e-12 -3.63553e-11 4.07677e-11)
(-1.73021e-11 -1.85116e-11 3.18886e-11)
(7.94021e-11 -1.39598e-10 1.27751e-10)
(1.34692e-11 -1.70889e-10 1.39882e-10)
(-3.52685e-12 -1.71096e-10 1.36343e-10)
(-4.67604e-11 -1.44446e-10 1.17994e-10)
(9.10203e-11 -3.05432e-10 2.34258e-10)
(1.54315e-11 -3.22538e-10 2.47036e-10)
(-3.03456e-12 -3.18603e-10 2.41625e-10)
(-5.65184e-11 -2.95351e-10 2.19084e-10)
(8.63676e-11 -4.5967e-10 3.43364e-10)
(9.20159e-12 -4.72198e-10 3.54531e-10)
(-5.35516e-12 -4.63295e-10 3.47433e-10)
(-6.09137e-11 -4.34017e-10 3.23124e-10)
(9.06747e-11 -5.98383e-10 4.43233e-10)
(2.97512e-12 -6.18732e-10 4.52098e-10)
(-1.93852e-11 -6.04599e-10 4.43445e-10)
(-8.52954e-11 -5.5687e-10 4.18227e-10)
(1.35976e-10 -7.37352e-10 5.21636e-10)
(8.57007e-12 -7.65776e-10 5.28357e-10)
(-5.72322e-11 -7.46269e-10 5.18357e-10)
(-1.61943e-10 -6.79644e-10 4.92397e-10)
(2.44897e-10 -9.33258e-10 5.65662e-10)
(3.20865e-11 -9.44223e-10 5.70807e-10)
(-1.26077e-10 -9.1877e-10 5.59926e-10)
(-3.13345e-10 -8.57456e-10 5.33376e-10)
(3.64327e-10 -1.23154e-09 5.66354e-10)
(5.24727e-11 -1.19112e-09 5.71389e-10)
(-2.06393e-10 -1.15667e-09 5.60542e-10)
(-4.86224e-10 -1.12736e-09 5.33538e-10)
(3.17453e-11 -6.08199e-12 2.74943e-11)
(3.64972e-12 -3.45012e-11 3.03599e-11)
(-1.98292e-12 -3.69021e-11 2.94711e-11)
(-1.31339e-11 -2.21385e-11 2.50896e-11)
(7.46542e-11 -1.40546e-10 9.3613e-11)
(1.36938e-11 -1.70493e-10 9.84853e-11)
(-1.16118e-12 -1.71419e-10 9.61302e-11)
(-3.91361e-11 -1.47769e-10 8.71829e-11)
(8.84022e-11 -3.03367e-10 1.67873e-10)
(1.72533e-11 -3.2106e-10 1.72341e-10)
(3.05777e-13 -3.18153e-10 1.68737e-10)
(-4.85224e-11 -2.96543e-10 1.57851e-10)
(8.75165e-11 -4.53267e-10 2.43416e-10)
(1.3329e-11 -4.67457e-10 2.46385e-10)
(-1.41536e-12 -4.59738e-10 2.41631e-10)
(-5.3835e-11 -4.31315e-10 2.29946e-10)
(9.5618e-11 -5.8561e-10 3.1173e-10)
(9.39217e-12 -6.07784e-10 3.1297e-10)
(-1.47762e-11 -5.94905e-10 3.07134e-10)
(-7.90717e-11 -5.47966e-10 2.94944e-10)
(1.4321e-10 -7.17438e-10 3.63759e-10)
(1.65713e-11 -7.47527e-10 3.63614e-10)
(-5.13881e-11 -7.2928e-10 3.56838e-10)
(-1.55175e-10 -6.6358e-10 3.44e-10)
(2.51627e-10 -9.07032e-10 3.91309e-10)
(4.05434e-11 -9.20381e-10 3.90425e-10)
(-1.18088e-10 -8.96134e-10 3.83037e-10)
(-3.03436e-10 -8.34892e-10 3.69411e-10)
(3.69092e-10 -1.1992e-09 3.90403e-10)
(6.11064e-11 -1.16363e-09 3.89821e-10)
(-1.96189e-10 -1.13028e-09 3.82464e-10)
(-4.71921e-10 -1.09835e-09 3.68134e-10)
(3.09378e-11 -6.73075e-12 1.73637e-11)
(3.94386e-12 -3.42478e-11 1.8446e-11)
(-1.94893e-12 -3.67928e-11 1.79378e-11)
(-1.18328e-11 -2.33456e-11 1.59978e-11)
(7.42753e-11 -1.3839e-10 5.72592e-11)
(1.48074e-11 -1.68152e-10 5.88578e-11)
(-8.22307e-13 -1.6954e-10 5.75128e-11)
(-3.71015e-11 -1.47108e-10 5.36103e-11)
(8.99388e-11 -2.97701e-10 1.01046e-10)
(1.96304e-11 -3.1618e-10 1.02101e-10)
(9.28464e-13 -3.13951e-10 1.0004e-10)
(-4.68952e-11 -2.92996e-10 9.53479e-11)
(9.16062e-11 -4.44184e-10 1.4514e-10)
(1.72424e-11 -4.59623e-10 1.45191e-10)
(-5.09281e-13 -4.52702e-10 1.42462e-10)
(-5.29753e-11 -4.24697e-10 1.37446e-10)
(1.0209e-10 -5.73233e-10 1.84636e-10)
(1.4768e-11 -5.96608e-10 1.83648e-10)
(-1.34101e-11 -5.84574e-10 1.80285e-10)
(-7.86867e-11 -5.38184e-10 1.74996e-10)
(1.51004e-10 -7.02385e-10 2.14255e-10)
(2.29423e-11 -7.33443e-10 2.12508e-10)
(-4.91318e-11 -7.16037e-10 2.0859e-10)
(-1.54224e-10 -6.51098e-10 2.02856e-10)
(2.5897e-10 -8.89967e-10 2.29552e-10)
(4.72083e-11 -9.0458e-10 2.27488e-10)
(-1.14362e-10 -8.81128e-10 2.23209e-10)
(-3.00256e-10 -8.20248e-10 2.16882e-10)
(3.75084e-10 -1.17928e-09 2.28759e-10)
(6.7885e-11 -1.14633e-09 2.26946e-10)
(-1.90966e-10 -1.11369e-09 2.22685e-10)
(-4.65758e-10 -1.08062e-09 2.15863e-10)
(3.07679e-11 -6.77372e-12 5.92879e-12)
(4.14087e-12 -3.39927e-11 6.19987e-12)
(-2.00647e-12 -3.66075e-11 6.03471e-12)
(-1.14406e-11 -2.36541e-11 5.48641e-12)
(7.4527e-11 -1.36628e-10 1.92699e-11)
(1.54815e-11 -1.66457e-10 1.96163e-11)
(-8.45234e-13 -1.68069e-10 1.91792e-11)
(-3.65973e-11 -1.46065e-10 1.8088e-11)
(9.11995e-11 -2.93809e-10 3.37324e-11)
(2.09507e-11 -3.12766e-10 3.38562e-11)
(9.85421e-13 -3.10871e-10 3.3186e-11)
(-4.66911e-11 -2.90139e-10 3.18842e-11)
(9.41082e-11 -4.38448e-10 4.82027e-11)
(1.93088e-11 -4.54535e-10 4.79795e-11)
(-3.2458e-13 -4.4801e-10 4.70907e-11)
(-5.31542e-11 -4.20178e-10 4.57017e-11)
(1.05712e-10 -5.66104e-10 6.10976e-11)
(1.75337e-11 -5.90065e-10 6.05313e-11)
(-1.29818e-11 -5.78452e-10 5.94337e-11)
(-7.90501e-11 -5.32345e-10 5.79561e-11)
(1.55231e-10 -6.94443e-10 7.07073e-11)
(2.61889e-11 -7.25941e-10 6.99007e-11)
(-4.82436e-11 -7.08954e-10 6.86197e-11)
(-1.54252e-10 -6.44435e-10 6.69838e-11)
(2.62977e-10 -8.81513e-10 7.56284e-11)
(5.0615e-11 -8.96657e-10 7.47332e-11)
(-1.12745e-10 -8.73599e-10 7.33328e-11)
(-2.99172e-10 -8.12996e-10 7.14832e-11)
(3.78439e-10 -1.16967e-09 7.53396e-11)
(7.13591e-11 -1.13781e-09 7.45331e-11)
(-1.88609e-10 -1.10553e-09 7.31384e-11)
(-4.63204e-10 -1.0721e-09 7.11186e-11)
)
;

boundaryField
{
    interface
    {
        type            calculated;
        value           nonuniform List<vector> 
192
(
(2.42135e-10 3.52294e-10 2.28865e-10)
(4.20643e-10 2.44402e-10 5.58564e-10)
(4.65315e-10 3.83878e-11 8.0526e-10)
(4.6093e-10 -1.62908e-10 1.01433e-09)
(4.56825e-10 -3.61302e-10 1.21731e-09)
(4.84901e-10 -5.94136e-10 1.43419e-09)
(5.66376e-10 -9.47712e-10 1.66153e-09)
(6.4655e-10 -1.43741e-09 1.8307e-09)
(1.58827e-10 1.76496e-10 8.15776e-11)
(2.93853e-10 4.32091e-11 2.91974e-10)
(3.24149e-10 -1.40207e-10 5.02627e-10)
(3.1429e-10 -3.2101e-10 6.96555e-10)
(3.07538e-10 -5.00144e-10 8.8169e-10)
(3.38553e-10 -6.97537e-10 1.06569e-09)
(4.3963e-10 -9.84037e-10 1.23607e-09)
(5.60748e-10 -1.40874e-09 1.34047e-09)
(8.74369e-11 8.36679e-11 3.42444e-11)
(1.75905e-10 -6.59239e-11 1.75735e-10)
(1.94763e-10 -2.46386e-10 3.49555e-10)
(1.84349e-10 -4.15124e-10 5.23596e-10)
(1.79841e-10 -5.7063e-10 6.87565e-10)
(2.16934e-10 -7.2684e-10 8.34919e-10)
(3.31206e-10 -9.5388e-10 9.46399e-10)
(4.72208e-10 -1.32203e-09 9.85875e-10)
(5.1338e-11 4.11171e-11 3.19064e-11)
(1.16745e-10 -1.11832e-10 1.43794e-10)
(1.31721e-10 -2.92427e-10 2.83664e-10)
(1.24945e-10 -4.54051e-10 4.28648e-10)
(1.26135e-10 -5.91392e-10 5.63674e-10)
(1.69808e-10 -7.19025e-10 6.754e-10)
(2.90118e-10 -9.11584e-10 7.45325e-10)
(4.34649e-10 -1.2485e-09 7.54249e-10)
(3.66319e-11 2.5245e-11 3.19209e-11)
(9.38748e-11 -1.25603e-10 1.21617e-10)
(1.09751e-10 -3.03692e-10 2.28737e-10)
(1.07893e-10 -4.59757e-10 3.39847e-10)
(1.14945e-10 -5.85981e-10 4.41894e-10)
(1.63518e-10 -6.98797e-10 5.21754e-10)
(2.85601e-10 -8.76171e-10 5.6574e-10)
(4.28434e-10 -1.19847e-09 5.6553e-10)
(3.15522e-11 2.0518e-11 2.64688e-11)
(8.71446e-11 -1.26382e-10 9.23316e-11)
(1.05462e-10 -3.00153e-10 1.67603e-10)
(1.07873e-10 -4.51464e-10 2.44726e-10)
(1.19388e-10 -5.71688e-10 3.14584e-10)
(1.71081e-10 -6.78437e-10 3.67516e-10)
(2.93387e-10 -8.50562e-10 3.94828e-10)
(4.3382e-10 -1.16597e-09 3.93092e-10)
(3.00224e-11 1.95726e-11 1.71194e-11)
(8.5802e-11 -1.2364e-10 5.72276e-11)
(1.06204e-10 -2.93369e-10 1.01745e-10)
(1.11495e-10 -4.41147e-10 1.46788e-10)
(1.25809e-10 -5.58385e-10 1.8716e-10)
(1.79291e-10 -6.63166e-10 2.17261e-10)
(3.01488e-10 -8.33947e-10 2.3239e-10)
(4.40172e-10 -1.14607e-09 2.31096e-10)
(2.96271e-11 1.95501e-11 5.88635e-12)
(8.56993e-11 -1.21521e-10 1.93328e-11)
(1.07188e-10 -2.88915e-10 3.40477e-11)
(1.13879e-10 -4.34821e-10 4.88282e-11)
(1.29509e-10 -5.50824e-10 6.20031e-11)
(1.83806e-10 -6.55127e-10 7.17642e-11)
(3.05918e-10 -8.25711e-10 7.66302e-11)
(4.43734e-10 -1.13649e-09 7.61784e-11)
(2.03962e-10 4.20961e-10 2.70397e-10)
(3.85404e-10 3.38926e-10 6.14996e-10)
(4.26558e-10 1.44707e-10 8.68185e-10)
(4.1579e-10 -5.6939e-11 1.08131e-09)
(4.07015e-10 -2.63529e-10 1.28459e-09)
(4.34572e-10 -5.12625e-10 1.49506e-09)
(5.13865e-10 -8.90858e-10 1.71449e-09)
(5.92749e-10 -1.40707e-09 1.87509e-09)
(4.28776e-11 3.43506e-10 2.52881e-10)
(8.864e-11 2.68602e-10 5.88799e-10)
(9.24315e-11 1.10155e-10 8.29566e-10)
(7.43402e-11 -7.34049e-11 1.0285e-09)
(5.42753e-11 -2.79974e-10 1.21761e-09)
(4.62847e-11 -5.29078e-10 1.4172e-09)
(5.61803e-11 -8.85261e-10 1.64176e-09)
(6.54922e-11 -1.37028e-09 1.83284e-09)
(-6.74339e-11 3.31116e-10 2.34855e-10)
(-1.43622e-10 2.63046e-10 5.63824e-10)
(-1.77481e-10 1.12495e-10 7.99463e-10)
(-1.95959e-10 -6.39509e-11 9.94432e-10)
(-2.20673e-10 -2.64059e-10 1.18016e-09)
(-2.66686e-10 -5.06805e-10 1.37655e-09)
(-3.41425e-10 -8.55607e-10 1.59791e-09)
(-4.27943e-10 -1.32901e-09 1.78572e-09)
(-2.07249e-10 3.81418e-10 2.1658e-10)
(-4.09965e-10 3.25325e-10 5.37528e-10)
(-4.80322e-10 1.5597e-10 7.74426e-10)
(-5.05717e-10 -2.50661e-11 9.75463e-10)
(-5.4111e-10 -2.13191e-10 1.16854e-09)
(-6.2184e-10 -4.44059e-10 1.36952e-09)
(-7.63839e-10 -8.00901e-10 1.57973e-09)
(-9.14891e-10 -1.28248e-09 1.73245e-09)
(-1.78747e-10 3.33146e-10 1.9965e-10)
(-3.70996e-10 2.50625e-10 4.96162e-10)
(-4.38727e-10 7.0438e-11 7.22649e-10)
(-4.65374e-10 -1.07561e-10 9.17047e-10)
(-5.00835e-10 -2.83591e-10 1.10762e-09)
(-5.77574e-10 -4.93644e-10 1.31287e-09)
(-7.16254e-10 -8.2142e-10 1.52886e-09)
(-8.61744e-10 -1.27403e-09 1.68882e-09)
(-9.24523e-11 1.59956e-10 6.81016e-11)
(-2.29699e-10 5.07936e-11 2.55083e-10)
(-2.74406e-10 -1.08876e-10 4.48322e-10)
(-2.88691e-10 -2.67437e-10 6.28833e-10)
(-3.15584e-10 -4.24711e-10 8.02484e-10)
(-3.89861e-10 -5.9992e-10 9.75928e-10)
(-5.42762e-10 -8.62158e-10 1.13694e-09)
(-7.2282e-10 -1.25258e-09 1.23571e-09)
(-1.90796e-11 6.28997e-11 2.56526e-11)
(-1.02112e-10 -6.36648e-11 1.51259e-10)
(-1.28031e-10 -2.21075e-10 3.11444e-10)
(-1.35271e-10 -3.67929e-10 4.73878e-10)
(-1.58659e-10 -5.01787e-10 6.27591e-10)
(-2.3375e-10 -6.36204e-10 7.65744e-10)
(-3.94978e-10 -8.39801e-10 8.69728e-10)
(-5.90239e-10 -1.17462e-09 9.05661e-10)
(1.87097e-11 1.62469e-11 2.58458e-11)
(-3.62886e-11 -1.1584e-10 1.26821e-10)
(-5.29228e-11 -2.74318e-10 2.56697e-10)
(-5.84114e-11 -4.14384e-10 3.92458e-10)
(-8.24505e-11 -5.3017e-10 5.18988e-10)
(-1.59513e-10 -6.36088e-10 6.23122e-10)
(-3.22535e-10 -8.05277e-10 6.87105e-10)
(-5.17459e-10 -1.10876e-09 6.93479e-10)
(3.45846e-11 -2.49611e-12 2.771e-11)
(-9.11085e-12 -1.34642e-10 1.09972e-10)
(-2.2889e-11 -2.91812e-10 2.10096e-10)
(-2.92534e-11 -4.26822e-10 3.14405e-10)
(-5.51504e-11 -5.31611e-10 4.09949e-10)
(-1.33317e-10 -6.2263e-10 4.83933e-10)
(-2.94596e-10 -7.76384e-10 5.23355e-10)
(-4.84653e-10 -1.06484e-09 5.21212e-10)
(4.03911e-11 -9.07111e-12 2.3722e-11)
(3.02711e-13 -1.38922e-10 8.47676e-11)
(-1.34454e-11 -2.92868e-10 1.55445e-10)
(-2.12627e-11 -4.23677e-10 2.2796e-10)
(-4.86828e-11 -5.22629e-10 2.93291e-10)
(-1.27101e-10 -6.07487e-10 3.42069e-10)
(-2.8592e-10 -7.55704e-10 3.66139e-10)
(-4.71164e-10 -1.03686e-09 3.63017e-10)
(4.23406e-11 -1.11122e-11 1.55743e-11)
(3.2111e-12 -1.38342e-10 5.29752e-11)
(-1.10986e-11 -2.89027e-10 9.48897e-11)
(-2.00552e-11 -4.16748e-10 1.37275e-10)
(-4.83691e-11 -5.1287e-10 1.7499e-10)
(-1.26671e-10 -5.95704e-10 2.02625e-10)
(-2.83583e-10 -7.42363e-10 2.15816e-10)
(-4.65461e-10 -1.01994e-09 2.13684e-10)
(4.29288e-11 -1.16448e-11 5.38829e-12)
(4.04308e-12 -1.37252e-10 1.79618e-11)
(-1.0657e-11 -2.85999e-10 3.18331e-11)
(-2.0164e-11 -4.12087e-10 4.57463e-11)
(-4.88596e-11 -5.07069e-10 5.80468e-11)
(-1.27027e-10 -5.89403e-10 6.69909e-11)
(-2.82956e-10 -7.35757e-10 7.1212e-11)
(-4.63157e-10 -1.01184e-09 7.04801e-11)
(5.89788e-10 -1.47969e-09 1.87368e-09)
(5.04209e-10 -1.46029e-09 1.35758e-09)
(4.16293e-10 -1.38271e-09 9.80223e-10)
(3.76661e-10 -1.31771e-09 7.36582e-10)
(3.70759e-10 -1.27079e-09 5.45927e-10)
(3.76815e-10 -1.23912e-09 3.77338e-10)
(3.83451e-10 -1.21951e-09 2.21377e-10)
(3.87063e-10 -1.21008e-09 7.29375e-11)
(6.28509e-11 -1.43179e-09 1.84227e-09)
(4.65301e-11 -1.38141e-09 1.3575e-09)
(2.81535e-11 -1.29783e-09 1.00182e-09)
(2.56675e-11 -1.24168e-09 7.55135e-10)
(3.37543e-11 -1.20445e-09 5.54002e-10)
(4.38769e-11 -1.17933e-09 3.78622e-10)
(5.14874e-11 -1.16325e-09 2.2049e-10)
(5.53236e-11 -1.1553e-09 7.24046e-11)
(-4.30414e-10 -1.3796e-09 1.8056e-09)
(-3.50569e-10 -1.33166e-09 1.33209e-09)
(-2.8266e-10 -1.25037e-09 9.82975e-10)
(-2.42405e-10 -1.19613e-09 7.41064e-10)
(-2.22336e-10 -1.16039e-09 5.43805e-10)
(-2.12511e-10 -1.13635e-09 3.71719e-10)
(-2.07394e-10 -1.12097e-09 2.16498e-10)
(-2.0504e-10 -1.11336e-09 7.10984e-11)
(-9.17562e-10 -1.32126e-09 1.76369e-09)
(-7.72877e-10 -1.30757e-09 1.28152e-09)
(-6.36703e-10 -1.23655e-09 9.23583e-10)
(-5.59201e-10 -1.17726e-09 6.94105e-10)
(-5.24816e-10 -1.1348e-09 5.15083e-10)
(-5.10652e-10 -1.10638e-09 3.56451e-10)
(-5.04372e-10 -1.08888e-09 2.09299e-10)
(-5.01697e-10 -1.08049e-09 6.89867e-11)
)
;
    }
    symmetry
    {
        type            symmetry;
    }
    bottom
    {
        type            calculated;
        value           uniform (0 0 0);
    }
}


// ************************************************************************* //
