/*--------------------------------*- C++ -*----------------------------------*\
| =========                 |                                                 |
| \\      /  F ield         | OpenFOAM: The Open Source CFD Toolbox           |
|  \\    /   O peration     | Version:  v1912                                 |
|   \\  /    A nd           | Website:  www.openfoam.com                      |
|    \\/     M anipulation  |                                                 |
\*---------------------------------------------------------------------------*/
FoamFile
{
    version     2.0;
    format      ascii;
    class       volVectorField;
    location    "0.85/solid";
    object      DD_0;
}
// * * * * * * * * * * * * * * * * * * * * * * * * * * * * * * * * * * * * * //

dimensions      [0 1 0 0 0 0 0];


internalField   nonuniform List<vector> 
256
(
(1.9835e-10 2.12477e-10 2.50672e-10)
(4.72859e-11 1.39046e-10 2.42851e-10)
(-6.35569e-11 1.329e-10 2.34837e-10)
(-1.94985e-10 1.9164e-10 2.2672e-10)
(3.75143e-10 1.91211e-10 5.97347e-10)
(9.71544e-11 1.23258e-10 5.83671e-10)
(-1.3471e-10 1.21091e-10 5.67146e-10)
(-3.8483e-10 1.87847e-10 5.47501e-10)
(4.16543e-10 2.9662e-11 8.48114e-10)
(1.04139e-10 -1.21816e-12 8.27468e-10)
(-1.66158e-10 3.1672e-12 8.05957e-10)
(-4.49981e-10 4.70845e-11 7.83094e-10)
(4.08283e-10 -1.61006e-10 1.05745e-09)
(8.9382e-11 -1.73004e-10 1.0276e-09)
(-1.83723e-10 -1.62093e-10 1.00252e-09)
(-4.73631e-10 -1.24755e-10 9.81585e-10)
(4.02967e-10 -3.70129e-10 1.26011e-09)
(7.29162e-11 -3.82692e-10 1.21998e-09)
(-2.08231e-10 -3.65581e-10 1.19187e-09)
(-5.08679e-10 -3.16213e-10 1.17507e-09)
(4.34627e-10 -6.25708e-10 1.47624e-09)
(6.83126e-11 -6.41901e-10 1.42782e-09)
(-2.53859e-10 -6.18558e-10 1.39682e-09)
(-5.89802e-10 -5.5399e-10 1.38251e-09)
(5.17814e-10 -9.93368e-10 1.70148e-09)
(7.94365e-11 -9.93521e-10 1.65564e-09)
(-3.25948e-10 -9.63019e-10 1.62173e-09)
(-7.31955e-10 -9.01054e-10 1.5992e-09)
(5.99079e-10 -1.46921e-09 1.86712e-09)
(8.661e-11 -1.43467e-09 1.83807e-09)
(-4.06879e-10 -1.39349e-09 1.80172e-09)
(-8.82003e-10 -1.34503e-09 1.75805e-09)
(1.34244e-10 7.86456e-11 1.12032e-10)
(3.09553e-11 1.5585e-11 1.22891e-10)
(-3.76645e-11 1.35609e-11 1.19285e-10)
(-1.24022e-10 6.68259e-11 1.01396e-10)
(2.61814e-10 3.95412e-12 3.47682e-10)
(6.6821e-11 -5.35602e-11 3.69215e-10)
(-8.14526e-11 -5.23088e-11 3.5932e-10)
(-2.52861e-10 7.18322e-12 3.18887e-10)
(2.89951e-10 -1.45954e-10 5.65608e-10)
(7.15841e-11 -1.71495e-10 5.88813e-10)
(-1.00944e-10 -1.65063e-10 5.74501e-10)
(-2.95686e-10 -1.25172e-10 5.23783e-10)
(2.78689e-10 -3.19029e-10 7.61354e-10)
(5.84872e-11 -3.29181e-10 7.81598e-10)
(-1.12562e-10 -3.1706e-10 7.64052e-10)
(-3.09174e-10 -2.8122e-10 7.09743e-10)
(2.72214e-10 -5.10316e-10 9.47411e-10)
(4.40935e-11 -5.23672e-10 9.62731e-10)
(-1.32826e-10 -5.05804e-10 9.42435e-10)
(-3.37002e-10 -4.5577e-10 8.8743e-10)
(3.06298e-10 -7.34232e-10 1.13103e-09)
(4.22649e-11 -7.53698e-10 1.14109e-09)
(-1.75721e-10 -7.29979e-10 1.11823e-09)
(-4.15097e-10 -6.62704e-10 1.06327e-09)
(4.03706e-10 -1.03994e-09 1.29667e-09)
(5.88971e-11 -1.0406e-09 1.30344e-09)
(-2.48453e-10 -1.01045e-09 1.27836e-09)
(-5.66328e-10 -9.49488e-10 1.22211e-09)
(5.11421e-10 -1.44448e-09 1.39136e-09)
(7.28699e-11 -1.39268e-09 1.39721e-09)
(-3.32139e-10 -1.35327e-09 1.3712e-09)
(-7.3796e-10 -1.32531e-09 1.31355e-09)
(7.59541e-11 2.61126e-11 5.61476e-11)
(1.44886e-11 -2.19764e-11 7.3206e-11)
(-1.67504e-11 -2.35328e-11 7.07612e-11)
(-6.20127e-11 1.398e-11 4.91851e-11)
(1.54475e-10 -9.07152e-11 2.1701e-10)
(3.45058e-11 -1.35524e-10 2.50126e-10)
(-3.619e-11 -1.33983e-10 2.43296e-10)
(-1.33922e-10 -8.88901e-11 1.97624e-10)
(1.70378e-10 -2.4956e-10 3.9608e-10)
(3.61367e-11 -2.70214e-10 4.33509e-10)
(-4.47714e-11 -2.63951e-10 4.23185e-10)
(-1.57094e-10 -2.31209e-10 3.66477e-10)
(1.58397e-10 -4.13858e-10 5.7054e-10)
(2.46079e-11 -4.2402e-10 6.07009e-10)
(-5.11572e-11 -4.12484e-10 5.9388e-10)
(-1.63318e-10 -3.79267e-10 5.32478e-10)
(1.53308e-10 -5.82475e-10 7.33994e-10)
(1.24634e-11 -5.98417e-10 7.67536e-10)
(-6.78392e-11 -5.81453e-10 7.51968e-10)
(-1.86815e-10 -5.31732e-10 6.88493e-10)
(1.91165e-10 -7.66892e-10 8.80192e-10)
(1.3457e-11 -7.90373e-10 9.09977e-10)
(-1.08553e-10 -7.67889e-10 8.92234e-10)
(-2.63608e-10 -6.99829e-10 8.28002e-10)
(2.98128e-10 -1.01502e-09 9.88953e-10)
(3.46914e-11 -1.01856e-09 1.01447e-09)
(-1.81546e-10 -9.90095e-10 9.95111e-10)
(-4.19757e-10 -9.30014e-10 9.31538e-10)
(4.19996e-10 -1.36025e-09 1.02392e-09)
(5.37826e-11 -1.30519e-09 1.0457e-09)
(-2.6636e-10 -1.26794e-09 1.02612e-09)
(-6.01127e-10 -1.24753e-09 9.65064e-10)
(4.60731e-11 4.63864e-12 4.22976e-11)
(6.15308e-12 -3.22102e-11 5.49193e-11)
(-6.26965e-12 -3.40644e-11 5.31026e-11)
(-2.98596e-11 -9.13273e-12 3.72504e-11)
(9.88258e-11 -1.29218e-10 1.63511e-10)
(1.77571e-11 -1.64965e-10 1.87661e-10)
(-1.21455e-11 -1.6428e-10 1.82737e-10)
(-7.0964e-11 -1.3094e-10 1.49766e-10)
(1.09822e-10 -2.95346e-10 3.05401e-10)
(1.85602e-11 -3.13161e-10 3.32304e-10)
(-1.42706e-11 -3.08065e-10 3.24787e-10)
(-8.37752e-11 -2.81384e-10 2.84109e-10)
(1.00756e-10 -4.54796e-10 4.4947e-10)
(9.55778e-12 -4.65951e-10 4.7517e-10)
(-1.76916e-11 -4.5579e-10 4.65414e-10)
(-8.75474e-11 -4.25043e-10 4.21437e-10)
(1.0019e-10 -6.05433e-10 5.82944e-10)
(4.84036e-13 -6.24008e-10 6.06057e-10)
(-3.24489e-11 -6.08596e-10 5.94293e-10)
(-1.10609e-10 -5.59848e-10 5.48765e-10)
(1.42526e-10 -7.60698e-10 6.93296e-10)
(4.24717e-12 -7.87571e-10 7.13486e-10)
(-7.15349e-11 -7.66809e-10 6.99972e-10)
(-1.87408e-10 -6.99097e-10 6.53668e-10)
(2.52885e-10 -9.73477e-10 7.6249e-10)
(2.77096e-11 -9.81522e-10 7.79759e-10)
(-1.42868e-10 -9.54921e-10 7.65059e-10)
(-3.42892e-10 -8.94164e-10 7.18859e-10)
(3.76897e-10 -1.28765e-09 7.70844e-10)
(4.86728e-11 -1.23942e-09 7.86551e-10)
(-2.25901e-10 -1.20404e-09 7.71841e-10)
(-5.22593e-10 -1.18058e-09 7.2643e-10)
(3.49417e-11 -3.53889e-12 3.57455e-11)
(3.6615e-12 -3.46128e-11 4.24191e-11)
(-2.64516e-12 -3.67786e-11 4.11101e-11)
(-1.73124e-11 -1.86319e-11 3.21662e-11)
(7.89997e-11 -1.40922e-10 1.28599e-10)
(1.30718e-11 -1.72382e-10 1.40908e-10)
(-3.16437e-12 -1.7263e-10 1.37419e-10)
(-4.65414e-11 -1.45864e-10 1.18983e-10)
(9.03272e-11 -3.07762e-10 2.35802e-10)
(1.49307e-11 -3.24973e-10 2.48786e-10)
(-2.47942e-12 -3.21146e-10 2.43453e-10)
(-5.59267e-11 -2.97991e-10 2.20848e-10)
(8.55166e-11 -4.62723e-10 3.45593e-10)
(8.69633e-12 -4.75495e-10 3.5698e-10)
(-4.55748e-12 -4.66776e-10 3.49984e-10)
(-5.99225e-11 -4.37609e-10 3.25645e-10)
(8.98783e-11 -6.01917e-10 4.46059e-10)
(2.59971e-12 -6.22827e-10 4.55159e-10)
(-1.83137e-11 -6.08956e-10 4.4663e-10)
(-8.3954e-11 -5.61176e-10 4.21412e-10)
(1.35743e-10 -7.41052e-10 5.24868e-10)
(8.58727e-12 -7.70427e-10 5.31846e-10)
(-5.59765e-11 -7.51262e-10 5.21989e-10)
(-1.60593e-10 -6.84361e-10 4.96045e-10)
(2.46375e-10 -9.37253e-10 5.68978e-10)
(3.29347e-11 -9.49077e-10 5.74416e-10)
(-1.24897e-10 -9.24058e-10 5.63688e-10)
(-3.12967e-10 -8.62739e-10 5.37148e-10)
(3.68604e-10 -1.23773e-09 5.69375e-10)
(5.43771e-11 -1.1969e-09 5.74746e-10)
(-2.05342e-10 -1.16299e-09 5.64051e-10)
(-4.87747e-10 -1.13514e-09 5.37018e-10)
(3.16619e-11 -6.25888e-12 2.76816e-11)
(3.492e-12 -3.49153e-11 3.05909e-11)
(-1.85715e-12 -3.73055e-11 2.97149e-11)
(-1.31743e-11 -2.22479e-11 2.53117e-11)
(7.42966e-11 -1.41833e-10 9.426e-11)
(1.33198e-11 -1.71937e-10 9.92077e-11)
(-8.62334e-13 -1.72893e-10 9.68865e-11)
(-3.90076e-11 -1.49115e-10 8.79235e-11)
(8.77698e-11 -3.05616e-10 1.69014e-10)
(1.67706e-11 -3.23406e-10 1.73568e-10)
(7.65083e-13 -3.20593e-10 1.70016e-10)
(-4.80735e-11 -2.99055e-10 1.59138e-10)
(8.67331e-11 -4.56176e-10 2.45033e-10)
(1.28318e-11 -4.706e-10 2.48094e-10)
(-7.44268e-13 -4.63049e-10 2.43408e-10)
(-5.30334e-11 -4.3471e-10 2.31756e-10)
(9.48923e-11 -5.88917e-10 3.13743e-10)
(9.01293e-12 -6.11636e-10 3.15084e-10)
(-1.38601e-11 -5.99e-10 3.09331e-10)
(-7.79633e-11 -5.5199e-10 2.97196e-10)
(1.43038e-10 -7.20847e-10 3.66018e-10)
(1.65675e-11 -7.51863e-10 3.65988e-10)
(-5.03092e-11 -7.3394e-10 3.59307e-10)
(-1.54088e-10 -6.67951e-10 3.46538e-10)
(2.53123e-10 -9.10721e-10 3.93598e-10)
(4.1342e-11 -9.24915e-10 3.92851e-10)
(-1.17093e-10 -9.01085e-10 3.85567e-10)
(-3.03314e-10 -8.39817e-10 3.72008e-10)
(3.73305e-10 -1.20504e-09 3.92495e-10)
(6.29296e-11 -1.16911e-09 3.92078e-10)
(-1.95327e-10 -1.13628e-09 3.84823e-10)
(-4.73651e-10 -1.10574e-09 3.70536e-10)
(3.08662e-11 -6.90422e-12 1.74849e-11)
(3.79674e-12 -3.46503e-11 1.85868e-11)
(-1.83915e-12 -3.71824e-11 1.8086e-11)
(-1.18934e-11 -2.34426e-11 1.61392e-11)
(7.3951e-11 -1.39634e-10 5.76614e-11)
(1.44505e-11 -1.69549e-10 5.92919e-11)
(-5.63385e-13 -1.70961e-10 5.79666e-11)
(-3.70326e-11 -1.48389e-10 5.4067e-11)
(8.93513e-11 -2.99865e-10 1.01742e-10)
(1.91628e-11 -3.18438e-10 1.02832e-10)
(1.32751e-12 -3.16295e-10 1.00801e-10)
(-4.65395e-11 -2.95393e-10 9.61266e-11)
(9.08718e-11 -4.46964e-10 1.46112e-10)
(1.6754e-11 -4.62632e-10 1.46201e-10)
(8.2489e-14 -4.55868e-10 1.43512e-10)
(-5.2296e-11 -4.27929e-10 1.38528e-10)
(1.01413e-10 -5.76372e-10 1.85831e-10)
(1.4389e-11 -6.00282e-10 1.84886e-10)
(-1.25911e-11 -5.88479e-10 1.81571e-10)
(-7.77264e-11 -5.42004e-10 1.76328e-10)
(1.50873e-10 -7.05606e-10 2.15582e-10)
(2.29269e-11 -7.37575e-10 2.13887e-10)
(-4.81644e-11 -7.20482e-10 2.10024e-10)
(-1.53303e-10 -6.55245e-10 2.04344e-10)
(2.60479e-10 -8.93472e-10 2.30889e-10)
(4.7977e-11 -9.08919e-10 2.28889e-10)
(-1.13484e-10 -8.85872e-10 2.24671e-10)
(-3.00298e-10 -8.24954e-10 2.18397e-10)
(3.79261e-10 -1.18492e-09 2.29983e-10)
(6.96588e-11 -1.15161e-09 2.28251e-10)
(-1.90226e-10 -1.11949e-09 2.24049e-10)
(-4.67626e-10 -1.08777e-09 2.17267e-10)
(3.0701e-11 -6.94392e-12 5.97054e-12)
(3.99808e-12 -3.43884e-11 6.24741e-12)
(-1.90349e-12 -3.69893e-11 6.0847e-12)
(-1.15095e-11 -2.3743e-11 5.5349e-12)
(7.42162e-11 -1.37846e-10 1.9406e-11)
(1.51315e-11 -1.67827e-10 1.97616e-11)
(-6.03735e-13 -1.6946e-10 1.93311e-11)
(-3.65539e-11 -1.47308e-10 1.82425e-11)
(9.06307e-11 -2.95923e-10 3.39658e-11)
(2.04889e-11 -3.14974e-10 3.40997e-11)
(1.35775e-12 -3.13159e-10 3.34391e-11)
(-4.63764e-11 -2.92472e-10 3.21446e-11)
(9.33941e-11 -4.41156e-10 4.85263e-11)
(1.8823e-11 -4.57471e-10 4.83141e-11)
(2.31588e-13 -4.51096e-10 4.7438e-11)
(-5.25295e-11 -4.23322e-10 4.60612e-11)
(1.05054e-10 -5.69155e-10 6.1493e-11)
(1.71529e-11 -5.93647e-10 6.09394e-11)
(-1.22069e-11 -5.82259e-10 5.98574e-11)
(-7.81566e-11 -5.3606e-10 5.83962e-11)
(1.55115e-10 -6.97572e-10 7.11443e-11)
(2.61655e-11 -7.29974e-10 7.03532e-11)
(-4.73271e-11 -7.13294e-10 6.90903e-11)
(-1.53406e-10 -6.48472e-10 6.74735e-11)
(2.64488e-10 -8.84931e-10 7.60677e-11)
(5.13668e-11 -9.00902e-10 7.51924e-11)
(-1.11922e-10 -8.78243e-10 7.38116e-11)
(-2.99288e-10 -8.17597e-10 7.19806e-11)
(3.82593e-10 -1.17521e-09 7.57424e-11)
(7.31064e-11 -1.14301e-09 7.49605e-11)
(-1.87927e-10 -1.11123e-09 7.3585e-11)
(-4.65134e-10 -1.07912e-09 7.15799e-11)
)
;

boundaryField
{
    interface
    {
        type            calculated;
        value           nonuniform List<vector> 
192
(
(2.44187e-10 3.55851e-10 2.3061e-10)
(4.24113e-10 2.45759e-10 5.61853e-10)
(4.68829e-10 3.79461e-11 8.09361e-10)
(4.64375e-10 -1.64401e-10 1.01923e-09)
(4.60463e-10 -3.63544e-10 1.22322e-09)
(4.8934e-10 -5.96997e-10 1.44153e-09)
(5.72972e-10 -9.52255e-10 1.67108e-09)
(6.57284e-10 -1.44788e-09 1.84274e-09)
(1.59e-10 1.7766e-10 8.14333e-11)
(2.94338e-10 4.28804e-11 2.92515e-10)
(3.24388e-10 -1.41736e-10 5.04068e-10)
(3.14327e-10 -3.23464e-10 6.98883e-10)
(3.0759e-10 -5.03414e-10 8.84997e-10)
(3.39124e-10 -7.01359e-10 1.07016e-09)
(4.4203e-10 -9.88659e-10 1.24175e-09)
(5.67484e-10 -1.41721e-09 1.34659e-09)
(8.67442e-11 8.37198e-11 3.41053e-11)
(1.7506e-10 -6.71097e-11 1.76264e-10)
(1.93576e-10 -2.4858e-10 3.51048e-10)
(1.82938e-10 -4.18126e-10 5.26057e-10)
(1.78408e-10 -5.74284e-10 6.90988e-10)
(2.15948e-10 -7.30688e-10 8.39249e-10)
(3.31912e-10 -9.57818e-10 9.51248e-10)
(4.76924e-10 -1.32881e-09 9.90292e-10)
(5.04341e-11 4.08634e-11 3.20447e-11)
(1.15563e-10 -1.13282e-10 1.44643e-10)
(1.30178e-10 -2.94865e-10 2.85388e-10)
(1.23186e-10 -4.57205e-10 4.3125e-10)
(1.24363e-10 -5.94991e-10 5.67087e-10)
(1.68475e-10 -7.22524e-10 6.79441e-10)
(2.90401e-10 -9.14885e-10 7.49552e-10)
(4.3866e-10 -1.25435e-09 7.57996e-10)
(3.57189e-11 2.49465e-11 3.2143e-11)
(9.26879e-11 -1.27076e-10 1.22467e-10)
(1.08217e-10 -3.06133e-10 2.30289e-10)
(1.06157e-10 -4.62836e-10 3.42088e-10)
(1.1321e-10 -5.89361e-10 4.44735e-10)
(1.62224e-10 -7.01928e-10 5.24996e-10)
(2.85873e-10 -8.79038e-10 5.69038e-10)
(4.32252e-10 -1.20379e-09 5.68477e-10)
(3.06706e-11 2.02308e-11 2.66629e-11)
(8.60215e-11 -1.27807e-10 9.29981e-11)
(1.04011e-10 -3.02508e-10 1.68771e-10)
(1.06234e-10 -4.54397e-10 2.46372e-10)
(1.17758e-10 -5.74841e-10 3.16627e-10)
(1.6989e-10 -6.8129e-10 3.698e-10)
(2.93728e-10 -8.53155e-10 3.97124e-10)
(4.37592e-10 -1.17097e-09 3.95159e-10)
(2.91656e-11 1.93002e-11 1.72448e-11)
(8.47267e-11 -1.25013e-10 5.76415e-11)
(1.04816e-10 -2.95635e-10 1.02457e-10)
(1.09926e-10 -4.4395e-10 1.47777e-10)
(1.24252e-10 -5.61372e-10 1.88372e-10)
(1.78169e-10 -6.6584e-10 2.18602e-10)
(3.01877e-10 -8.36376e-10 2.33731e-10)
(4.43922e-10 -1.15087e-09 2.32306e-10)
(2.87819e-11 1.92855e-11 5.92926e-12)
(8.46454e-11 -1.22864e-10 1.94724e-11)
(1.05828e-10 -2.91129e-10 3.42857e-11)
(1.1234e-10 -4.37551e-10 4.91569e-11)
(1.27985e-10 -5.53726e-10 6.24034e-11)
(1.82712e-10 -6.57715e-10 7.22049e-11)
(3.06324e-10 -8.28062e-10 7.70699e-11)
(4.47468e-10 -1.14121e-09 7.65756e-11)
(2.06424e-10 4.24482e-10 2.71833e-10)
(3.89468e-10 3.40571e-10 6.18154e-10)
(4.30756e-10 1.44688e-10 8.72186e-10)
(4.1993e-10 -5.80059e-11 1.08614e-09)
(4.1138e-10 -2.65431e-10 1.29043e-09)
(4.39875e-10 -5.15366e-10 1.50223e-09)
(5.21552e-10 -8.95647e-10 1.72369e-09)
(6.04006e-10 -1.41811e-09 1.88741e-09)
(4.33257e-11 3.45676e-10 2.53489e-10)
(8.96016e-11 2.69412e-10 5.90774e-10)
(9.35973e-11 1.09765e-10 8.32303e-10)
(7.56483e-11 -7.4875e-11 1.03198e-09)
(5.58542e-11 -2.82636e-10 1.22196e-09)
(4.84578e-11 -5.32986e-10 1.42266e-09)
(5.95e-11 -8.90958e-10 1.64911e-09)
(7.02589e-11 -1.38085e-09 1.84394e-09)
(-6.75914e-11 3.33396e-10 2.35585e-10)
(-1.43756e-10 2.63872e-10 5.66041e-10)
(-1.77254e-10 1.12012e-10 8.02522e-10)
(-1.9523e-10 -6.56127e-11 9.98296e-10)
(-2.19461e-10 -2.67005e-10 1.18493e-09)
(-2.65188e-10 -5.11092e-10 1.38248e-09)
(-3.40059e-10 -8.61795e-10 1.60576e-09)
(-4.26884e-10 -1.3402e-09 1.79734e-09)
(-2.09522e-10 3.85195e-10 2.18347e-10)
(-4.13381e-10 3.26941e-10 5.41396e-10)
(-4.83327e-10 1.55607e-10 7.79383e-10)
(-5.08027e-10 -2.67589e-11 9.81423e-10)
(-5.42898e-10 -2.1598e-10 1.17566e-09)
(-6.23695e-10 -4.47957e-10 1.37808e-09)
(-7.67075e-10 -8.07167e-10 1.59044e-09)
(-9.20566e-10 -1.29537e-09 1.74634e-09)
(-1.80694e-10 3.36593e-10 2.0171e-10)
(-3.73995e-10 2.51596e-10 5.00231e-10)
(-4.41307e-10 6.92859e-11 7.27844e-10)
(-4.673e-10 -1.10079e-10 9.2327e-10)
(-5.02247e-10 -2.87168e-10 1.11504e-09)
(-5.78951e-10 -4.98169e-10 1.32189e-09)
(-7.18797e-10 -8.28002e-10 1.54023e-09)
(-8.67235e-10 -1.28694e-09 1.70276e-09)
(-9.26468e-11 1.61046e-10 6.8153e-11)
(-2.30046e-10 5.00991e-11 2.56159e-10)
(-2.7418e-10 -1.11093e-10 4.5056e-10)
(-2.87787e-10 -2.7089e-10 6.32164e-10)
(-3.14078e-10 -4.29287e-10 8.06963e-10)
(-3.88118e-10 -6.05371e-10 9.81718e-10)
(-5.41937e-10 -8.68771e-10 1.14406e-09)
(-7.25205e-10 -1.26343e-09 1.24333e-09)
(-1.84947e-11 6.29635e-11 2.56438e-11)
(-1.01329e-10 -6.51196e-11 1.52149e-10)
(-1.26688e-10 -2.2386e-10 3.13497e-10)
(-1.33323e-10 -3.71836e-10 4.7707e-10)
(-1.56153e-10 -5.06658e-10 6.31893e-10)
(-2.31002e-10 -6.41592e-10 7.71078e-10)
(-3.93072e-10 -8.45633e-10 8.75677e-10)
(-5.91285e-10 -1.18367e-09 9.11221e-10)
(1.94519e-11 1.6073e-11 2.6075e-11)
(-3.52978e-11 -1.17461e-10 1.2792e-10)
(-5.14316e-11 -2.77238e-10 2.58816e-10)
(-5.63994e-11 -4.18334e-10 3.95587e-10)
(-7.99568e-11 -5.34881e-10 5.23048e-10)
(-1.56829e-10 -6.41024e-10 6.27913e-10)
(-3.2067e-10 -8.10367e-10 6.9216e-10)
(-5.18322e-10 -1.11676e-09 6.98084e-10)
(3.53015e-11 -2.6686e-12 2.79944e-11)
(-8.19858e-12 -1.3621e-10 1.10993e-10)
(-2.15439e-11 -2.94645e-10 2.11921e-10)
(-2.74584e-11 -4.30601e-10 3.17015e-10)
(-5.29421e-11 -5.36007e-10 4.13249e-10)
(-1.30969e-10 -6.27105e-10 4.87714e-10)
(-2.93063e-10 -7.80949e-10 5.27253e-10)
(-4.85711e-10 -1.07223e-09 5.24782e-10)
(4.10536e-11 -9.20254e-12 2.39567e-11)
(1.09883e-12 -1.4039e-10 8.55456e-11)
(-1.22727e-11 -2.95548e-10 1.5679e-10)
(-1.96922e-11 -4.27237e-10 2.29849e-10)
(-4.67475e-11 -5.26725e-10 2.95638e-10)
(-1.25062e-10 -6.11611e-10 3.44715e-10)
(-2.84698e-10 -7.59924e-10 3.6884e-10)
(-4.72454e-10 -1.04386e-09 3.65505e-10)
(4.29667e-11 -1.12113e-11 1.57228e-11)
(3.93287e-12 -1.39727e-10 5.34532e-11)
(-1.00387e-11 -2.91577e-10 9.57019e-11)
(-1.86309e-11 -4.20131e-10 1.38402e-10)
(-4.66094e-11 -5.16751e-10 1.76376e-10)
(-1.24828e-10 -5.996e-10 2.04173e-10)
(-2.8256e-10 -7.46372e-10 2.1739e-10)
(-4.66904e-10 -1.0267e-09 2.15137e-10)
(4.35396e-11 -1.17273e-11 5.43888e-12)
(4.74881e-12 -1.38591e-10 1.81227e-11)
(-9.64744e-12 -2.88478e-10 3.21037e-11)
(-1.88068e-11 -4.15376e-10 4.61194e-11)
(-4.71806e-11 -5.1084e-10 5.85036e-11)
(-1.25275e-10 -5.93188e-10 6.74992e-11)
(-2.82023e-10 -7.39663e-10 7.1728e-11)
(-4.64671e-10 -1.01848e-09 7.09568e-11)
(6.0111e-10 -1.49051e-09 1.88648e-09)
(5.12107e-10 -1.46849e-09 1.36412e-09)
(4.21953e-10 -1.38938e-09 9.84713e-10)
(3.8149e-10 -1.32354e-09 7.40212e-10)
(3.75365e-10 -1.27611e-09 5.48723e-10)
(3.81357e-10 -1.24411e-09 3.79292e-10)
(3.87956e-10 -1.2243e-09 2.22525e-10)
(3.91543e-10 -1.21478e-09 7.33155e-11)
(6.76808e-11 -1.44151e-09 1.85448e-09)
(5.00653e-11 -1.38789e-09 1.36484e-09)
(3.07022e-11 -1.30293e-09 1.00739e-09)
(2.77689e-11 -1.24619e-09 7.59477e-10)
(3.56905e-11 -1.20861e-09 5.57168e-10)
(4.57389e-11 -1.18325e-09 3.80758e-10)
(5.3302e-11 -1.16701e-09 2.21725e-10)
(5.71119e-11 -1.15898e-09 7.28088e-11)
(-4.29288e-10 -1.38997e-09 1.8183e-09)
(-3.48984e-10 -1.33878e-09 1.33981e-09)
(-2.80776e-10 -1.25609e-09 9.88814e-10)
(-2.40614e-10 -1.20123e-09 7.45603e-10)
(-2.20783e-10 -1.16511e-09 5.47112e-10)
(-2.11172e-10 -1.14082e-09 3.7395e-10)
(-2.0619e-10 -1.12527e-09 2.17787e-10)
(-2.039e-10 -1.11758e-09 7.15205e-11)
(-9.23166e-10 -1.33403e-09 1.77796e-09)
(-7.75889e-10 -1.31768e-09 1.28917e-09)
(-6.38162e-10 -1.24506e-09 9.28882e-10)
(-5.60368e-10 -1.18485e-09 6.98331e-10)
(-5.26167e-10 -1.14182e-09 5.18308e-10)
(-5.12229e-10 -1.11302e-09 3.58693e-10)
(-5.06097e-10 -1.09529e-09 2.10613e-10)
(-5.03487e-10 -1.08678e-09 6.94188e-11)
)
;
    }
    symmetry
    {
        type            symmetry;
    }
    bottom
    {
        type            calculated;
        value           uniform (0 0 0);
    }
}


// ************************************************************************* //
