/*--------------------------------*- C++ -*----------------------------------*\
| =========                 |                                                 |
| \\      /  F ield         | OpenFOAM: The Open Source CFD Toolbox           |
|  \\    /   O peration     | Version:  v1912                                 |
|   \\  /    A nd           | Website:  www.openfoam.com                      |
|    \\/     M anipulation  |                                                 |
\*---------------------------------------------------------------------------*/
FoamFile
{
    version     2.0;
    format      ascii;
    class       volSymmTensorField;
    location    "0.85/solid";
    object      epsilon;
}
// * * * * * * * * * * * * * * * * * * * * * * * * * * * * * * * * * * * * * //

dimensions      [0 0 0 0 0 0 0];


internalField   nonuniform List<symmTensor> 
256
(
(-2.87161e-06 2.23913e-07 -7.99633e-08 1.49054e-06 2.59094e-07 -2.92045e-06)
(-6.78735e-07 -3.23587e-08 -3.43399e-08 9.31399e-07 2.56694e-07 -2.57558e-06)
(-6.57512e-07 2.08475e-08 3.20726e-08 9.11999e-07 2.56203e-07 -2.53288e-06)
(-2.6568e-06 -2.19358e-07 7.83428e-08 1.42067e-06 2.57716e-07 -2.79916e-06)
(-2.9924e-06 5.02551e-09 -1.23864e-07 -5.19212e-07 4.25797e-08 -2.99571e-06)
(-1.17409e-06 -3.57342e-08 -5.75244e-08 -2.61598e-07 5.3556e-08 -2.61092e-06)
(-1.14534e-06 3.2934e-08 5.49546e-08 -2.65184e-07 5.41758e-08 -2.56905e-06)
(-2.76787e-06 -5.27931e-09 1.21632e-07 -5.21722e-07 4.39854e-08 -2.87661e-06)
(-3.0679e-06 -3.12231e-08 -1.34343e-07 -6.58587e-07 5.74844e-09 -3.06762e-06)
(-1.24165e-06 -3.50252e-08 -6.36844e-08 -4.8978e-07 7.3703e-09 -2.62974e-06)
(-1.21293e-06 3.46398e-08 6.15152e-08 -4.90632e-07 7.78866e-09 -2.58678e-06)
(-2.83941e-06 3.09057e-08 1.32125e-07 -6.5829e-07 6.72329e-09 -2.94457e-06)
(-3.13041e-06 -2.19642e-08 -1.40055e-07 -6.251e-07 1.35393e-08 -3.1522e-06)
(-1.20344e-06 -2.73847e-08 -6.67249e-08 -5.99848e-07 9.87785e-09 -2.67862e-06)
(-1.1747e-06 2.70968e-08 6.48004e-08 -6.00184e-07 1.00189e-08 -2.63453e-06)
(-2.89755e-06 2.19114e-08 1.37902e-07 -6.25516e-07 1.38311e-08 -3.0258e-06)
(-3.22532e-06 -2.18379e-09 -1.46029e-07 -6.57742e-07 3.70122e-08 -3.26396e-06)
(-1.20216e-06 -1.38606e-08 -7.00613e-08 -7.02171e-07 3.17806e-08 -2.76625e-06)
(-1.17301e-06 1.31872e-08 6.81923e-08 -7.02507e-07 3.1736e-08 -2.72124e-06)
(-2.98806e-06 2.05935e-09 1.43915e-07 -6.58245e-07 3.67939e-08 -3.13501e-06)
(-3.39289e-06 3.64304e-08 -1.50973e-07 -8.82168e-07 8.05393e-08 -3.42352e-06)
(-1.31569e-06 1.09875e-08 -7.30787e-08 -8.89651e-07 7.73409e-08 -2.91189e-06)
(-1.28619e-06 -1.2769e-08 7.1138e-08 -8.89444e-07 7.7137e-08 -2.86602e-06)
(-3.15178e-06 -3.70168e-08 1.48882e-07 -8.81051e-07 7.9871e-08 -3.29234e-06)
(-3.68132e-06 1.02626e-07 -1.48505e-07 -1.73201e-06 1.44661e-07 -3.68132e-06)
(-1.60878e-06 4.87436e-08 -7.21489e-08 -1.56098e-06 1.51372e-07 -3.18914e-06)
(-1.57883e-06 -5.28229e-08 7.00285e-08 -1.55458e-06 1.50951e-07 -3.14238e-06)
(-3.43663e-06 -1.03819e-07 1.46419e-07 -1.71453e-06 1.43457e-07 -3.54818e-06)
(-4.18469e-06 1.32997e-07 -1.32697e-07 -4.1774e-06 1.69339e-07 -4.17514e-06)
(-2.00278e-06 6.49187e-08 -6.47578e-08 -3.81557e-06 1.85583e-07 -3.81237e-06)
(-1.97046e-06 -6.25645e-08 6.24206e-08 -3.76824e-06 1.85118e-07 -3.76541e-06)
(-3.93239e-06 -1.3086e-07 1.30625e-07 -4.04476e-06 1.68148e-07 -4.04374e-06)
(-2.31903e-06 1.34883e-07 -6.31723e-08 6.16366e-07 4.37161e-08 -5.88987e-07)
(-4.54954e-07 -5.67789e-08 -2.13105e-08 1.53841e-07 1.41855e-07 -4.92129e-07)
(-4.34774e-07 5.34807e-08 2.33231e-08 1.39148e-07 1.4442e-07 -4.88004e-07)
(-2.10873e-06 -1.27372e-07 6.37195e-08 5.58628e-07 5.06398e-08 -5.78097e-07)
(-2.41305e-06 -1.15518e-08 -9.87993e-08 -3.73629e-07 5.72317e-08 -9.56726e-07)
(-8.00226e-07 -3.98732e-08 -4.27446e-08 -1.6543e-07 1.09355e-07 -8.04553e-07)
(-7.73782e-07 4.0862e-08 4.54606e-08 -1.71559e-07 1.10699e-07 -7.99022e-07)
(-2.19797e-06 1.25449e-08 9.93349e-08 -3.82792e-07 6.07016e-08 -9.41644e-07)
(-2.45268e-06 -3.29668e-08 -1.0458e-07 -5.01391e-07 4.83113e-08 -1.03026e-06)
(-8.34244e-07 -3.36888e-08 -4.69983e-08 -3.63787e-07 6.45322e-08 -8.59629e-07)
(-8.08411e-07 3.45058e-08 5.02565e-08 -3.66086e-07 6.52842e-08 -8.54264e-07)
(-2.23508e-06 3.29907e-08 1.05193e-07 -5.04814e-07 5.01925e-08 -1.0153e-06)
(-2.4912e-06 -2.30875e-08 -1.06542e-07 -5.38585e-07 5.12973e-08 -1.0531e-06)
(-7.88197e-07 -2.60975e-08 -4.76069e-08 -5.24183e-07 5.28054e-08 -8.70143e-07)
(-7.62532e-07 2.62097e-08 5.13708e-08 -5.25033e-07 5.31316e-08 -8.64912e-07)
(-2.26946e-06 2.31666e-08 1.07309e-07 -5.404e-07 5.20117e-08 -1.03839e-06)
(-2.57152e-06 -3.97075e-09 -1.09687e-07 -5.8728e-07 8.27906e-08 -1.09708e-06)
(-7.80469e-07 -1.37275e-08 -4.94505e-08 -6.37031e-07 7.93637e-08 -9.02898e-07)
(-7.54348e-07 1.33343e-08 5.3461e-08 -6.37568e-07 7.93239e-08 -8.97641e-07)
(-2.34472e-06 4.01755e-09 1.10573e-07 -5.88425e-07 8.24508e-08 -1.08229e-06)
(-2.73765e-06 3.64321e-08 -1.12254e-07 -7.38449e-07 1.34581e-07 -1.19953e-06)
(-8.89486e-07 1.09249e-08 -5.15706e-08 -7.46421e-07 1.3006e-07 -9.96184e-07)
(-8.62807e-07 -1.23936e-08 5.556e-08 -7.46499e-07 1.29706e-07 -9.90793e-07)
(-2.50559e-06 -3.6767e-08 1.1321e-07 -7.3814e-07 1.33314e-07 -1.18442e-06)
(-3.05742e-06 1.10306e-07 -1.10062e-07 -1.40452e-06 1.74799e-07 -1.41183e-06)
(-1.1901e-06 5.12166e-08 -5.10847e-08 -1.20795e-06 1.73771e-07 -1.21163e-06)
(-1.16263e-06 -5.5116e-08 5.49149e-08 -1.20222e-06 1.73187e-07 -1.20592e-06)
(-2.81997e-06 -1.11266e-07 1.11083e-07 -1.38855e-06 1.72907e-07 -1.39599e-06)
(-3.68367e-06 1.4869e-07 -1.02216e-07 -3.68356e-06 1.45496e-07 -1.73302e-06)
(-1.60902e-06 7.22263e-08 -4.85036e-08 -3.19284e-06 1.52082e-07 -1.5588e-06)
(-1.57888e-06 -7.00777e-08 5.25494e-08 -3.14544e-06 1.51668e-07 -1.55241e-06)
(-3.43731e-06 -1.46532e-07 1.03486e-07 -3.54841e-06 1.44312e-07 -1.71563e-06)
(-1.97408e-06 7.28707e-08 -2.6605e-08 2.60027e-07 1.08819e-07 -8.19007e-08)
(-2.92514e-07 -8.41784e-08 -3.98539e-09 -1.22912e-07 2.04988e-07 -8.52443e-08)
(-2.73008e-07 8.20473e-08 4.81456e-09 -1.36025e-07 2.0619e-07 -8.55085e-08)
(-1.77072e-06 -6.51814e-08 2.66818e-08 2.06679e-07 1.12493e-07 -8.25132e-08)
(-2.07447e-06 -2.139e-08 -4.06481e-08 -4.35946e-07 1.31339e-07 -2.82998e-07)
(-5.16784e-07 -4.534e-08 -1.19745e-08 -2.64102e-07 1.80659e-07 -2.90785e-07)
(-4.91237e-07 4.76362e-08 1.29626e-08 -2.70504e-07 1.81459e-07 -2.90746e-07)
(-1.86612e-06 2.28755e-08 4.07328e-08 -4.46126e-07 1.33622e-07 -2.82666e-07)
(-2.10983e-06 -3.18773e-08 -4.06608e-08 -4.67798e-07 1.2173e-07 -3.91096e-07)
(-5.25236e-07 -3.25074e-08 -1.27012e-08 -3.60083e-07 1.37368e-07 -4.00676e-07)
(-5.00413e-07 3.41901e-08 1.37642e-08 -3.63016e-07 1.37872e-07 -4.00706e-07)
(-1.89905e-06 3.22274e-08 4.07724e-08 -4.72971e-07 1.23048e-07 -3.90854e-07)
(-2.14454e-06 -2.25507e-08 -3.91226e-08 -4.65444e-07 1.15166e-07 -4.44643e-07)
(-4.77095e-07 -2.52952e-08 -1.14609e-08 -4.63366e-07 1.16921e-07 -4.53731e-07)
(-4.52505e-07 2.58315e-08 1.27276e-08 -4.6473e-07 1.17135e-07 -4.53943e-07)
(-1.92962e-06 2.28001e-08 3.93132e-08 -4.6867e-07 1.15617e-07 -4.44816e-07)
(-2.22429e-06 -4.33414e-09 -3.86992e-08 -4.77911e-07 1.29352e-07 -5.02571e-07)
(-4.68613e-07 -1.42068e-08 -1.12132e-08 -5.31893e-07 1.26671e-07 -5.09788e-07)
(-4.43516e-07 1.39542e-08 1.26281e-08 -5.32807e-07 1.26589e-07 -5.10072e-07)
(-2.00379e-06 4.48241e-09 3.89694e-08 -4.80137e-07 1.28928e-07 -5.02886e-07)
(-2.39803e-06 3.70537e-08 -3.84683e-08 -5.74811e-07 1.49543e-07 -6.02946e-07)
(-5.78603e-07 1.04739e-08 -1.16898e-08 -5.83571e-07 1.45428e-07 -6.07967e-07)
(-5.52757e-07 -1.2003e-08 1.31173e-08 -5.83998e-07 1.45098e-07 -6.08171e-07)
(-2.17102e-06 -3.7318e-08 3.88019e-08 -5.75472e-07 1.48367e-07 -6.03009e-07)
(-2.73905e-06 1.12551e-07 -3.7797e-08 -1.18557e-06 1.40274e-07 -7.53408e-07)
(-8.85812e-07 5.1662e-08 -1.21961e-08 -9.86234e-07 1.35615e-07 -7.58094e-07)
(-8.58863e-07 -5.58061e-08 1.361e-08 -9.8081e-07 1.35188e-07 -7.58071e-07)
(-2.50478e-06 -1.1348e-07 3.8227e-08 -1.17033e-06 1.38797e-07 -7.52835e-07)
(-3.3978e-06 1.51197e-07 -3.75247e-08 -3.42739e-06 8.38404e-08 -8.80864e-07)
(-1.31281e-06 7.31149e-08 -1.22589e-08 -2.91769e-06 8.0589e-08 -8.85714e-07)
(-1.28284e-06 -7.11477e-08 1.40403e-08 -2.87079e-06 8.03694e-08 -8.85444e-07)
(-3.1528e-06 -1.49028e-07 3.82411e-08 -3.29308e-06 8.31232e-08 -8.79615e-07)
(-1.78125e-06 4.72345e-08 -7.03747e-09 1.28595e-07 1.30771e-07 -1.31952e-08)
(-2.19732e-07 -9.34205e-08 4.14187e-09 -2.06818e-07 1.89944e-07 -4.02527e-08)
(-2.00838e-07 9.09496e-08 -3.7536e-09 -2.19499e-07 1.90569e-07 -4.06058e-08)
(-1.58337e-06 -3.99701e-08 6.97947e-09 7.6886e-08 1.33016e-07 -1.41127e-08)
(-1.8782e-06 -2.36017e-08 -9.25598e-09 -4.92601e-07 1.58176e-07 -1.29625e-07)
(-3.85549e-07 -4.6275e-08 4.72471e-09 -3.42136e-07 1.87984e-07 -1.80956e-07)
(-3.60715e-07 4.85686e-08 -4.37247e-09 -3.48429e-07 1.88433e-07 -1.81381e-07)
(-1.67528e-06 2.50862e-08 9.14014e-09 -5.02847e-07 1.59648e-07 -1.30728e-07)
(-1.91659e-06 -2.9032e-08 -6.98215e-09 -4.7763e-07 1.56506e-07 -2.45939e-07)
(-3.84473e-07 -3.05261e-08 6.05555e-09 -3.88789e-07 1.65143e-07 -3.05471e-07)
(-3.60297e-07 3.24387e-08 -5.82909e-09 -3.91895e-07 1.65432e-07 -3.05912e-07)
(-1.71112e-06 2.94992e-08 6.8412e-09 -4.8345e-07 1.57346e-07 -2.47056e-07)
(-1.95517e-06 -2.03157e-08 -4.47334e-09 -4.25302e-07 1.47101e-07 -3.36316e-07)
(-3.41145e-07 -2.37144e-08 7.7742e-09 -4.31432e-07 1.46731e-07 -3.98272e-07)
(-3.17172e-07 2.44636e-08 -7.55181e-09 -4.3309e-07 1.4684e-07 -3.98777e-07)
(-1.74544e-06 2.06684e-08 4.34664e-09 -4.29401e-07 1.47344e-07 -3.37557e-07)
(-2.03949e-06 -3.11764e-09 -2.83107e-09 -3.97666e-07 1.42099e-07 -4.20312e-07)
(-3.38233e-07 -1.37408e-08 8.75852e-09 -4.54125e-07 1.3922e-07 -4.82729e-07)
(-3.13703e-07 1.35627e-08 -8.49068e-09 -4.55332e-07 1.39136e-07 -4.83258e-07)
(-1.82378e-06 3.32797e-09 2.74034e-09 -4.00742e-07 1.41739e-07 -4.2156e-07)
(-2.22023e-06 3.73065e-08 -2.02788e-09 -4.72707e-07 1.31103e-07 -5.15262e-07)
(-4.52453e-07 9.87182e-09 8.79425e-09 -4.83865e-07 1.27955e-07 -5.77015e-07)
(-4.27051e-07 -1.14873e-08 -8.49759e-09 -4.84531e-07 1.27717e-07 -5.77481e-07)
(-1.99718e-06 -3.75427e-08 1.98551e-09 -4.74053e-07 1.30252e-07 -5.16274e-07)
(-2.57055e-06 1.1024e-07 -2.66703e-09 -1.07954e-06 9.45409e-08 -6.07968e-07)
(-7.60701e-07 4.9412e-08 7.71236e-09 -8.88926e-07 9.07026e-08 -6.67963e-07)
(-7.33973e-07 -5.37482e-08 -7.35495e-09 -8.83642e-07 9.04346e-08 -6.68306e-07)
(-2.33881e-06 -1.11156e-07 2.71585e-09 -1.06463e-06 9.3563e-08 -6.08571e-07)
(-3.23148e-06 1.46657e-07 -4.34456e-09 -3.27476e-06 4.40506e-08 -6.42233e-07)
(-1.18396e-06 7.01735e-08 7.32434e-09 -2.77772e-06 3.925e-08 -6.99341e-07)
(-1.15396e-06 -6.83054e-08 -6.64169e-09 -2.73115e-06 3.91298e-08 -6.99635e-07)
(-2.98748e-06 -1.44466e-07 4.61886e-09 -3.14112e-06 4.3615e-08 -6.42619e-07)
(-1.6754e-06 3.96767e-08 -8.95619e-10 7.9609e-08 1.19487e-07 -1.83988e-08)
(-1.94413e-07 -9.26264e-08 4.89636e-09 -2.32328e-07 1.49011e-07 -3.86236e-08)
(-1.75968e-07 8.97746e-08 -4.65584e-09 -2.4483e-07 1.49424e-07 -3.8829e-08)
(-1.48126e-06 -3.27877e-08 8.50052e-10 2.88489e-08 1.21058e-07 -1.90171e-08)
(-1.76885e-06 -2.24205e-08 4.74282e-10 -5.13656e-07 1.43295e-07 -1.10062e-07)
(-3.41025e-07 -4.45533e-08 7.81992e-09 -3.74646e-07 1.57314e-07 -1.49043e-07)
(-3.16762e-07 4.65565e-08 -7.61997e-09 -3.80885e-07 1.57614e-07 -1.49401e-07)
(-1.56978e-06 2.37757e-08 -5.7707e-10 -5.24005e-07 1.44363e-07 -1.11151e-07)
(-1.81105e-06 -2.62887e-08 2.78645e-09 -4.85012e-07 1.48591e-07 -2.20515e-07)
(-3.40385e-07 -2.8572e-08 9.49749e-09 -4.0611e-07 1.515e-07 -2.65815e-07)
(-3.16724e-07 3.03981e-08 -9.44658e-09 -4.09282e-07 1.51682e-07 -2.66215e-07)
(-1.60933e-06 2.67414e-08 -2.93301e-09 -4.91189e-07 1.49186e-07 -2.2173e-07)
(-1.85494e-06 -1.8119e-08 4.85258e-09 -4.06902e-07 1.41079e-07 -3.24697e-07)
(-3.03978e-07 -2.22542e-08 1.08628e-08 -4.17104e-07 1.39324e-07 -3.71458e-07)
(-2.80475e-07 2.30264e-08 -1.08948e-08 -4.18917e-07 1.39383e-07 -3.71877e-07)
(-1.6488e-06 1.84981e-08 -5.0178e-09 -4.11514e-07 1.41241e-07 -3.25942e-07)
(-1.94449e-06 -1.84615e-09 6.2872e-09 -3.57282e-07 1.26687e-07 -4.19109e-07)
(-3.07749e-07 -1.31401e-08 1.16874e-08 -4.14482e-07 1.24123e-07 -4.65727e-07)
(-2.83645e-07 1.29753e-08 -1.17366e-08 -4.15868e-07 1.2406e-07 -4.66138e-07)
(-1.73208e-06 2.08402e-09 -6.44549e-09 -3.60901e-07 1.26444e-07 -4.20291e-07)
(-2.12991e-06 3.70574e-08 6.81806e-09 -4.26973e-07 1.01592e-07 -5.03001e-07)
(-4.25557e-07 9.20004e-09 1.17129e-08 -4.39828e-07 9.97335e-08 -5.48723e-07)
(-4.00504e-07 -1.0869e-08 -1.17448e-08 -4.40637e-07 9.95809e-08 -5.49085e-07)
(-1.90963e-06 -3.72766e-08 -6.94661e-09 -4.28745e-07 1.01041e-07 -5.03991e-07)
(-2.48267e-06 1.0714e-07 5.85546e-09 -1.03389e-06 6.09853e-08 -5.61946e-07)
(-7.3161e-07 4.69041e-08 1.07267e-08 -8.51675e-07 5.91423e-08 -6.06251e-07)
(-7.05096e-07 -5.13401e-08 -1.06902e-08 -8.46466e-07 5.89816e-08 -6.06549e-07)
(-2.25282e-06 -1.08042e-07 -5.9169e-09 -1.01917e-06 6.03738e-08 -5.62685e-07)
(-3.13695e-06 1.4174e-07 4.26907e-09 -3.17823e-06 2.44618e-08 -5.69831e-07)
(-1.14853e-06 6.71722e-08 1.04722e-08 -2.69718e-06 2.12938e-08 -6.13506e-07)
(-1.11858e-06 -6.53528e-08 -1.01956e-08 -2.65076e-06 2.12247e-08 -6.13808e-07)
(-2.89379e-06 -1.3953e-07 -4.17605e-09 -3.0449e-06 2.41935e-08 -5.70493e-07)
(-1.6166e-06 3.81667e-08 1.69471e-10 6.16344e-08 9.28476e-08 -2.86422e-08)
(-1.8655e-07 -8.96521e-08 3.25528e-09 -2.39694e-07 1.06247e-07 -3.93698e-08)
(-1.6839e-07 8.65385e-08 -3.09648e-09 -2.52076e-07 1.06527e-07 -3.95099e-08)
(-1.42479e-06 -3.15264e-08 -1.89951e-10 1.15377e-08 9.39057e-08 -2.91046e-08)
(-1.70878e-06 -2.07376e-08 1.63248e-09 -5.15314e-07 1.0911e-07 -1.15573e-07)
(-3.29428e-07 -4.2598e-08 5.58743e-09 -3.82516e-07 1.14689e-07 -1.36179e-07)
(-3.05542e-07 4.43452e-08 -5.44588e-09 -3.88739e-07 1.149e-07 -1.36477e-07)
(-1.51211e-06 2.19778e-08 -1.68604e-09 -5.25766e-07 1.09869e-07 -1.16548e-07)
(-1.75418e-06 -2.4348e-08 3.22536e-09 -4.84326e-07 1.15541e-07 -2.18416e-07)
(-3.32406e-07 -2.71815e-08 6.79956e-09 -4.10257e-07 1.15743e-07 -2.42032e-07)
(-3.0909e-07 2.88501e-08 -6.77186e-09 -4.13479e-07 1.15868e-07 -2.424e-07)
(-1.5548e-06 2.47488e-08 -3.31608e-09 -4.90761e-07 1.15976e-07 -2.19616e-07)
(-1.80238e-06 -1.66301e-08 4.53893e-09 -3.98818e-07 1.10561e-07 -3.21271e-07)
(-3.0188e-07 -2.13221e-08 7.63186e-09 -4.10612e-07 1.08697e-07 -3.45015e-07)
(-2.78687e-07 2.20303e-08 -7.69257e-09 -4.12515e-07 1.08736e-07 -3.45404e-07)
(-1.59844e-06 1.69952e-08 -4.65561e-09 -4.03757e-07 1.10694e-07 -3.22532e-07)
(-1.8959e-06 -1.03769e-09 5.43201e-09 -3.42497e-07 9.58589e-08 -4.13754e-07)
(-3.10689e-07 -1.27803e-08 8.10488e-09 -3.99437e-07 9.40569e-08 -4.36733e-07)
(-2.86863e-07 1.25885e-08 -8.20499e-09 -4.00924e-07 9.40189e-08 -4.3711e-07)
(-1.68549e-06 1.27921e-09 -5.5552e-09 -3.46449e-07 9.57254e-08 -4.14963e-07)
(-2.08394e-06 3.6682e-08 5.67898e-09 -4.12187e-07 7.12842e-08 -4.87527e-07)
(-4.30552e-07 8.66712e-09 8.07334e-09 -4.25579e-07 7.04567e-08 -5.09625e-07)
(-4.05728e-07 -1.03705e-08 -8.17188e-09 -4.26469e-07 7.03667e-08 -5.09966e-07)
(-1.8653e-06 -3.68921e-08 -5.78778e-09 -4.14217e-07 7.09592e-08 -4.88597e-07)
(-2.43641e-06 1.0485e-07 4.93051e-09 -1.01529e-06 3.87643e-08 -5.31847e-07)
(-7.33907e-07 4.52008e-08 7.43568e-09 -8.38169e-07 3.83254e-08 -5.5334e-07)
(-7.07543e-07 -4.96844e-08 -7.48528e-09 -8.33001e-07 3.82327e-08 -5.53645e-07)
(-2.20768e-06 -1.0574e-07 -4.99724e-09 -1.00069e-06 3.84024e-08 -5.32752e-07)
(-3.08356e-06 1.38408e-07 3.80624e-09 -3.11821e-06 1.44061e-08 -5.3717e-07)
(-1.14549e-06 6.52283e-08 7.28087e-09 -2.64812e-06 1.2895e-08 -5.59339e-07)
(-1.1156e-06 -6.3431e-08 -7.17518e-09 -2.60176e-06 1.28561e-08 -5.59656e-07)
(-2.84089e-06 -1.36185e-07 -3.77712e-09 -2.98501e-06 1.42477e-08 -5.38039e-07)
(-1.58472e-06 3.80134e-08 1.09986e-10 5.57882e-08 5.83109e-08 -3.50906e-08)
(-1.83886e-07 -8.74477e-08 1.63855e-09 -2.4087e-07 6.39857e-08 -4.03647e-08)
(-1.65889e-07 8.41747e-08 -1.54554e-09 -2.5317e-07 6.41497e-08 -4.04824e-08)
(-1.39426e-06 -3.15196e-08 -1.16552e-10 6.12142e-09 5.89201e-08 -3.54822e-08)
(-1.67661e-06 -1.96027e-08 8.95328e-10 -5.11272e-07 6.73071e-08 -1.2199e-07)
(-3.26827e-07 -4.1333e-08 2.86193e-09 -3.81846e-07 6.92681e-08 -1.31736e-07)
(-3.03157e-07 4.29143e-08 -2.77178e-09 -3.88063e-07 6.93957e-08 -1.32007e-07)
(-1.48133e-06 2.07694e-08 -9.1602e-10 -5.21781e-07 6.77631e-08 -1.22879e-07)
(-1.72412e-06 -2.32314e-08 1.73558e-09 -4.80695e-07 7.16481e-08 -2.19275e-07)
(-3.32943e-07 -2.64007e-08 3.49848e-09 -4.08895e-07 7.11945e-08 -2.29921e-07)
(-3.09825e-07 2.79435e-08 -3.47536e-09 -4.12154e-07 7.12716e-08 -2.30276e-07)
(-1.52608e-06 2.35881e-08 -1.77847e-09 -4.873e-07 7.19205e-08 -2.20437e-07)
(-1.77507e-06 -1.58078e-08 2.41438e-09 -3.95242e-07 6.87768e-08 -3.16667e-07)
(-3.06239e-07 -2.08468e-08 3.90679e-09 -4.07519e-07 6.75197e-08 -3.26712e-07)
(-2.83221e-07 2.14826e-08 -3.9445e-09 -4.09478e-07 6.75458e-08 -3.271e-07)
(-1.57239e-06 1.61508e-08 -2.47641e-09 -4.00384e-07 6.88728e-08 -3.17937e-07)
(-1.87102e-06 -6.2498e-10 2.86185e-09 -3.38969e-07 5.87108e-08 -4.03637e-07)
(-3.18046e-07 -1.26251e-08 4.12119e-09 -3.9539e-07 5.77137e-08 -4.12755e-07)
(-2.94374e-07 1.23966e-08 -4.19249e-09 -3.96934e-07 5.76958e-08 -4.13139e-07)
(-1.66172e-06 8.6024e-10 -2.93211e-09 -3.43118e-07 5.86527e-08 -4.04896e-07)
(-2.06032e-06 3.64039e-08 2.95913e-09 -4.0968e-07 4.2213e-08 -4.70633e-07)
(-4.38871e-07 8.34637e-09 4.0853e-09 -4.22996e-07 4.19479e-08 -4.79115e-07)
(-4.14173e-07 -1.00746e-08 -4.1618e-09 -4.2393e-07 4.19017e-08 -4.79475e-07)
(-1.8426e-06 -3.66113e-08 -3.02412e-09 -4.1186e-07 4.20468e-08 -4.71798e-07)
(-2.41191e-06 1.03525e-07 2.53504e-09 -1.00821e-06 2.20791e-08 -5.09769e-07)
(-7.40242e-07 4.4291e-08 3.76314e-09 -8.33553e-07 2.21799e-08 -5.18234e-07)
(-7.1396e-07 -4.87985e-08 -3.81328e-09 -8.28407e-07 2.21321e-08 -5.1857e-07)
(-2.1838e-06 -1.04408e-07 -2.57793e-09 -9.93677e-07 2.18903e-08 -5.10817e-07)
(-3.05399e-06 1.36566e-07 1.87749e-09 -3.0837e-06 7.91407e-09 -5.17539e-07)
(-1.14828e-06 6.42078e-08 3.66844e-09 -2.61948e-06 7.35303e-09 -5.27e-07)
(-1.11843e-06 -6.24201e-08 -3.63443e-09 -2.57315e-06 7.33329e-09 -5.27348e-07)
(-2.81157e-06 -1.34334e-07 -1.86925e-09 -2.95056e-06 7.83151e-09 -5.18564e-07)
(-1.57056e-06 3.80117e-08 1.80329e-11 5.43362e-08 1.98346e-08 -3.79761e-08)
(-1.82895e-07 -8.64267e-08 4.81409e-10 -2.40501e-07 2.14155e-08 -4.11465e-08)
(-1.64973e-07 8.30784e-08 -4.50582e-10 -2.5276e-07 2.14695e-08 -4.12572e-08)
(-1.38071e-06 -3.15856e-08 -1.93476e-11 4.87985e-09 2.00332e-08 -3.83391e-08)
(-1.66237e-06 -1.90989e-08 2.41545e-10 -5.08078e-07 2.26749e-08 -1.25274e-07)
(-3.26144e-07 -4.07765e-08 8.38672e-10 -3.80167e-07 2.31475e-08 -1.30779e-07)
(-3.02571e-07 4.22785e-08 -8.07344e-10 -3.8638e-07 2.31903e-08 -1.31041e-07)
(-1.46772e-06 2.02309e-08 -2.4651e-10 -5.18609e-07 2.28267e-08 -1.2612e-07)
(-1.7109e-06 -2.27473e-08 4.93839e-10 -4.78087e-07 2.41358e-08 -2.19731e-07)
(-3.33848e-07 -2.60736e-08 1.02699e-09 -4.07204e-07 2.39131e-08 -2.25293e-07)
(-3.10818e-07 2.75512e-08 -1.01743e-09 -4.10481e-07 2.39395e-08 -2.25644e-07)
(-1.51346e-06 2.3081e-08 -5.05966e-10 -4.84773e-07 2.4229e-08 -2.20866e-07)
(-1.76314e-06 -1.54578e-08 6.98737e-10 -3.93842e-07 2.31834e-08 -3.13372e-07)
(-3.08941e-07 -2.06593e-08 1.14551e-09 -4.06226e-07 2.27544e-08 -3.18091e-07)
(-2.86e-07 2.12524e-08 -1.15712e-09 -4.08211e-07 2.27639e-08 -3.18482e-07)
(-1.56102e-06 1.57868e-08 -7.17648e-10 -3.99082e-07 2.32189e-08 -3.14643e-07)
(-1.8602e-06 -4.58113e-10 8.31603e-10 -3.38725e-07 1.96789e-08 -3.96594e-07)
(-3.22091e-07 -1.25734e-08 1.20468e-09 -3.94804e-07 1.93676e-08 -4.00412e-07)
(-2.98486e-07 1.2321e-08 -1.22901e-09 -3.96376e-07 1.93626e-08 -4.00807e-07)
(-1.6514e-06 6.87761e-10 -8.53929e-10 -3.42967e-07 1.96637e-08 -3.97881e-07)
(-2.05e-06 3.62698e-08 8.57077e-10 -4.1014e-07 1.39864e-08 -4.60304e-07)
(-4.43279e-07 8.20597e-09 1.19114e-09 -4.23294e-07 1.39377e-08 -4.63672e-07)
(-4.18635e-07 -9.9482e-09 -1.21835e-09 -4.24249e-07 1.39236e-08 -4.64049e-07)
(-1.83267e-06 -3.6477e-08 -8.78233e-10 -4.12389e-07 1.3936e-08 -4.61523e-07)
(-2.40099e-06 1.02943e-07 7.2375e-10 -1.00593e-06 7.23863e-09 -4.97921e-07)
(-7.43659e-07 4.39171e-08 1.09616e-09 -8.32213e-07 7.32998e-09 -5.01536e-07)
(-7.17411e-07 -4.84354e-08 -1.11537e-09 -8.27077e-07 7.31531e-09 -5.01894e-07)
(-2.17315e-06 -1.03822e-07 -7.3811e-10 -9.91427e-07 7.18028e-09 -4.99047e-07)
(-3.04053e-06 1.35775e-07 5.07578e-10 -3.06805e-06 2.55662e-09 -5.07505e-07)
(-1.14997e-06 6.37883e-08 1.06275e-09 -2.60625e-06 2.42653e-09 -5.12123e-07)
(-1.12013e-06 -6.20044e-08 -1.05564e-09 -2.55993e-06 2.4205e-09 -5.12492e-07)
(-2.79821e-06 -1.33539e-07 -5.05981e-10 -2.93493e-06 2.53108e-09 -5.08613e-07)
)
;

boundaryField
{
    interface
    {
        type            calculated;
        value           nonuniform List<symmTensor> 
192
(
(-4.71389e-06 2.25564e-12 1.72619e-11 1.49054e-06 2.59094e-07 -2.92045e-06)
(-4.42166e-06 2.30698e-12 2.80287e-11 -5.19212e-07 4.25797e-08 -2.99571e-06)
(-4.5156e-06 7.2454e-13 3.21545e-11 -6.58587e-07 5.74844e-09 -3.06762e-06)
(-4.65802e-06 -2.14236e-12 3.345e-11 -6.251e-07 1.35393e-08 -3.1522e-06)
(-4.82818e-06 -4.72337e-12 3.33318e-11 -6.57742e-07 3.70122e-08 -3.26396e-06)
(-5.04681e-06 -9.23392e-12 3.26123e-11 -8.82168e-07 8.05393e-08 -3.42352e-06)
(-5.33605e-06 -1.26941e-11 3.02362e-11 -1.73201e-06 1.44661e-07 -3.68132e-06)
(-5.8908e-06 -2.87881e-11 2.84147e-11 -4.1774e-06 1.69339e-07 -4.17514e-06)
(-3.89813e-06 1.62887e-12 8.45715e-12 6.16366e-07 4.37161e-08 -5.88987e-07)
(-3.70479e-06 1.83221e-12 1.46865e-11 -3.73629e-07 5.72317e-08 -9.56726e-07)
(-3.75777e-06 4.72661e-13 1.66237e-11 -5.01391e-07 4.83113e-08 -1.03026e-06)
(-3.86367e-06 -2.42253e-12 1.68967e-11 -5.38585e-07 5.12973e-08 -1.0531e-06)
(-4.01495e-06 -5.12464e-12 1.6374e-11 -5.8728e-07 8.27906e-08 -1.09708e-06)
(-4.23749e-06 -1.00741e-11 1.55381e-11 -7.38449e-07 1.34581e-07 -1.19953e-06)
(-4.57974e-06 -1.38911e-11 1.4001e-11 -1.40452e-06 1.74799e-07 -1.41183e-06)
(-5.34019e-06 -3.07529e-11 1.27959e-11 -3.68356e-06 1.45496e-07 -1.73302e-06)
(-3.39682e-06 1.39827e-12 6.62013e-12 2.60027e-07 1.08819e-07 -8.19007e-08)
(-3.31931e-06 1.59502e-12 1.13382e-11 -4.35946e-07 1.31339e-07 -2.82998e-07)
(-3.37974e-06 2.88645e-13 1.27704e-11 -4.67798e-07 1.2173e-07 -3.91096e-07)
(-3.47963e-06 -2.72212e-12 1.29342e-11 -4.65444e-07 1.15166e-07 -4.44643e-07)
(-3.63082e-06 -5.64775e-12 1.24932e-11 -4.77911e-07 1.29352e-07 -5.02571e-07)
(-3.8665e-06 -1.11152e-11 1.1815e-11 -5.74811e-07 1.49543e-07 -6.02946e-07)
(-4.24256e-06 -1.5466e-11 1.07158e-11 -1.18557e-06 1.40274e-07 -7.53408e-07)
(-5.05763e-06 -3.34182e-11 9.80948e-12 -3.42739e-06 8.38404e-08 -8.80864e-07)
(-3.09888e-06 1.05163e-12 4.00494e-12 1.28595e-07 1.30771e-07 -1.31952e-08)
(-3.06315e-06 1.10042e-12 7.25595e-12 -4.92601e-07 1.58176e-07 -1.29625e-07)
(-3.13312e-06 -2.19532e-13 8.19605e-12 -4.7763e-07 1.56506e-07 -2.45939e-07)
(-3.23545e-06 -3.24189e-12 8.21627e-12 -4.25302e-07 1.47101e-07 -3.36316e-07)
(-3.39033e-06 -6.25832e-12 7.81898e-12 -3.97666e-07 1.42099e-07 -4.20312e-07)
(-3.63477e-06 -1.19387e-11 7.28172e-12 -4.72707e-07 1.31103e-07 -5.15262e-07)
(-4.02668e-06 -1.65228e-11 6.59141e-12 -1.07954e-06 9.45409e-08 -6.07968e-07)
(-4.85121e-06 -3.47159e-11 6.06174e-12 -3.27476e-06 4.40506e-08 -6.42233e-07)
(-2.924e-06 8.82839e-13 2.91175e-12 7.9609e-08 1.19487e-07 -1.83988e-08)
(-2.89941e-06 7.87444e-13 5.27535e-12 -5.13656e-07 1.43295e-07 -1.10062e-07)
(-2.97475e-06 -5.97858e-13 5.96651e-12 -4.85012e-07 1.48591e-07 -2.20515e-07)
(-3.08096e-06 -3.6624e-12 5.97871e-12 -4.06902e-07 1.41079e-07 -3.24697e-07)
(-3.23998e-06 -6.77939e-12 5.68486e-12 -3.57282e-07 1.26687e-07 -4.19109e-07)
(-3.48964e-06 -1.26422e-11 5.28538e-12 -4.26973e-07 1.01592e-07 -5.03001e-07)
(-3.88745e-06 -1.74384e-11 4.80639e-12 -1.03389e-06 6.09853e-08 -5.61946e-07)
(-4.70662e-06 -3.58834e-11 4.42915e-12 -3.17823e-06 2.44618e-08 -5.69831e-07)
(-2.82231e-06 7.51106e-13 1.76183e-12 6.16344e-08 9.28476e-08 -2.86422e-08)
(-2.80073e-06 5.3267e-13 3.30547e-12 -5.15314e-07 1.0911e-07 -1.15573e-07)
(-2.87887e-06 -9.12915e-13 3.76173e-12 -4.84326e-07 1.15541e-07 -2.18416e-07)
(-2.98825e-06 -4.00345e-12 3.75967e-12 -3.98818e-07 1.10561e-07 -3.21271e-07)
(-3.1505e-06 -7.17529e-12 3.55518e-12 -3.42497e-07 9.58589e-08 -4.13754e-07)
(-3.40303e-06 -1.31268e-11 3.28516e-12 -4.12187e-07 7.12842e-08 -4.87527e-07)
(-3.80223e-06 -1.80314e-11 2.99234e-12 -1.01529e-06 3.87643e-08 -5.31847e-07)
(-4.6137e-06 -3.65957e-11 2.77393e-12 -3.11821e-06 1.44061e-08 -5.3717e-07)
(-2.76596e-06 6.86182e-13 1.02894e-12 5.57882e-08 5.83109e-08 -3.50906e-08)
(-2.74537e-06 3.83259e-13 1.92865e-12 -5.11272e-07 6.73071e-08 -1.2199e-07)
(-2.82497e-06 -1.11267e-12 2.1969e-12 -4.80695e-07 7.16481e-08 -2.19275e-07)
(-2.9364e-06 -4.22841e-12 2.19659e-12 -3.95242e-07 6.87768e-08 -3.16667e-07)
(-3.10067e-06 -7.44254e-12 2.07858e-12 -3.38969e-07 5.87108e-08 -4.03637e-07)
(-3.35458e-06 -1.34556e-11 1.91913e-12 -4.0968e-07 4.2213e-08 -4.70633e-07)
(-3.75364e-06 -1.84363e-11 1.7542e-12 -1.00821e-06 2.20791e-08 -5.09769e-07)
(-4.55925e-06 -3.7092e-11 1.62344e-12 -3.0837e-06 7.91407e-09 -5.17539e-07)
(-2.74073e-06 6.46446e-13 3.02493e-13 5.43362e-08 1.98346e-08 -3.79761e-08)
(-2.72051e-06 2.9973e-13 5.88939e-13 -5.08078e-07 2.26749e-08 -1.25274e-07)
(-2.80076e-06 -1.2194e-12 6.75618e-13 -4.78087e-07 2.41358e-08 -2.19731e-07)
(-2.91315e-06 -4.34256e-12 6.74312e-13 -3.93842e-07 2.31834e-08 -3.13372e-07)
(-3.07837e-06 -7.57331e-12 6.35681e-13 -3.38725e-07 1.96789e-08 -3.96594e-07)
(-3.33282e-06 -1.36079e-11 5.83469e-13 -4.1014e-07 1.39864e-08 -4.60304e-07)
(-3.73155e-06 -1.86233e-11 5.34752e-13 -1.00593e-06 7.23863e-09 -4.97921e-07)
(-4.53416e-06 -3.73159e-11 4.93966e-13 -3.06805e-06 2.55662e-09 -5.07505e-07)
(-2.87161e-06 2.23913e-07 -2.39446e-11 1.49054e-06 -5.82512e-12 -4.81274e-06)
(-2.9924e-06 5.02551e-09 -4.0904e-11 -5.19212e-07 -7.2289e-12 -4.49319e-06)
(-3.0679e-06 -3.12231e-08 -4.82436e-11 -6.58587e-07 -6.37407e-12 -4.58815e-06)
(-3.13041e-06 -2.19642e-08 -5.11951e-11 -6.251e-07 -4.84777e-12 -4.74072e-06)
(-3.22532e-06 -2.18379e-09 -5.23288e-11 -6.57742e-07 -4.15945e-12 -4.9177e-06)
(-3.39289e-06 3.64304e-08 -5.32413e-11 -8.82168e-07 -4.40612e-12 -5.13249e-06)
(-3.68132e-06 1.02626e-07 -5.44117e-11 -1.73201e-06 -5.33603e-12 -5.40861e-06)
(-4.18469e-06 1.32997e-07 -6.00244e-11 -4.1774e-06 -6.67361e-12 -5.95183e-06)
(-6.78735e-07 -3.23587e-08 -1.40023e-11 9.31399e-07 -3.48218e-12 -4.29521e-06)
(-1.17409e-06 -3.57342e-08 -2.6939e-11 -2.61598e-07 -5.60525e-12 -3.99074e-06)
(-1.24165e-06 -3.50252e-08 -3.20996e-11 -4.8978e-07 -5.21408e-12 -4.01179e-06)
(-1.20344e-06 -2.73847e-08 -3.39704e-11 -5.99848e-07 -3.48345e-12 -4.11405e-06)
(-1.20216e-06 -1.38606e-08 -3.47054e-11 -7.02171e-07 -2.25185e-12 -4.26086e-06)
(-1.31569e-06 1.09875e-08 -3.57013e-11 -8.89651e-07 -1.56169e-12 -4.46227e-06)
(-1.60878e-06 4.87436e-08 -3.7944e-11 -1.56098e-06 -1.67822e-12 -4.77202e-06)
(-2.00278e-06 6.49187e-08 -4.52741e-11 -3.81557e-06 -2.15599e-12 -5.52656e-06)
(-6.57512e-07 2.08475e-08 -1.37842e-11 9.11999e-07 -2.55935e-12 -4.21814e-06)
(-1.14534e-06 3.2934e-08 -2.68261e-11 -2.65184e-07 -4.65073e-12 -3.91753e-06)
(-1.21293e-06 3.46398e-08 -3.22076e-11 -4.90632e-07 -4.43054e-12 -3.93619e-06)
(-1.1747e-06 2.70968e-08 -3.42032e-11 -6.00184e-07 -2.52982e-12 -4.0362e-06)
(-1.17301e-06 1.31872e-08 -3.49315e-11 -7.02507e-07 -9.21561e-13 -4.18131e-06)
(-1.28619e-06 -1.2769e-08 -3.57631e-11 -8.89444e-07 4.13962e-13 -4.38117e-06)
(-1.57883e-06 -5.28229e-08 -3.76845e-11 -1.55458e-06 1.11976e-12 -4.68951e-06)
(-1.97046e-06 -6.25645e-08 -4.47716e-11 -3.76824e-06 1.24145e-12 -5.4446e-06)
(-2.6568e-06 -2.19358e-07 -1.4866e-11 1.42067e-06 -2.0955e-12 -4.59204e-06)
(-2.76787e-06 -5.27931e-09 -3.01738e-11 -5.21722e-07 -4.08097e-12 -4.28344e-06)
(-2.83941e-06 3.09057e-08 -3.6963e-11 -6.5829e-07 -3.86655e-12 -4.37046e-06)
(-2.89755e-06 2.19114e-08 -3.96051e-11 -6.25516e-07 -1.80654e-12 -4.51643e-06)
(-2.98806e-06 2.05935e-09 -4.05503e-11 -6.58245e-07 -1.26475e-14 -4.68868e-06)
(-3.15178e-06 -3.70168e-08 -4.1626e-11 -8.81051e-07 1.63007e-12 -4.8994e-06)
(-3.43663e-06 -1.03819e-07 -4.33504e-11 -1.71453e-06 2.81056e-12 -5.17231e-06)
(-3.93239e-06 -1.3086e-07 -5.08582e-11 -4.04476e-06 3.90508e-12 -5.72108e-06)
(-4.32671e-06 4.66024e-12 3.80555e-12 1.42067e-06 2.57716e-07 -2.79916e-06)
(-4.0301e-06 6.39943e-12 7.74182e-12 -5.21722e-07 4.39854e-08 -2.87661e-06)
(-4.11604e-06 5.04509e-12 9.0765e-12 -6.5829e-07 6.72329e-09 -2.94457e-06)
(-4.24977e-06 1.80036e-12 9.78001e-12 -6.25516e-07 1.38311e-08 -3.0258e-06)
(-4.41196e-06 -3.91378e-14 1.03651e-11 -6.58245e-07 3.67939e-08 -3.13501e-06)
(-4.6236e-06 -2.60534e-12 1.19941e-11 -8.81051e-07 7.9871e-08 -3.29234e-06)
(-4.90658e-06 -2.42766e-12 1.34074e-11 -1.71453e-06 1.43457e-07 -3.54818e-06)
(-5.45083e-06 -1.6493e-11 1.73256e-11 -4.04476e-06 1.68148e-07 -4.04374e-06)
(-3.51788e-06 1.86432e-12 -2.0739e-12 5.58628e-07 5.06398e-08 -5.78097e-07)
(-3.32752e-06 2.93691e-12 -2.18631e-12 -3.82792e-07 6.07016e-08 -9.41644e-07)
(-3.37423e-06 2.35459e-12 -2.76665e-12 -5.04814e-07 5.01925e-08 -1.0153e-06)
(-3.47152e-06 4.91588e-13 -2.88107e-12 -5.404e-07 5.20117e-08 -1.03839e-06)
(-3.61359e-06 -2.42016e-14 -2.50252e-12 -5.88425e-07 8.24508e-08 -1.08229e-06)
(-3.82673e-06 -1.48318e-12 -1.05829e-12 -7.3814e-07 1.33314e-07 -1.18442e-06)
(-4.15978e-06 1.27942e-13 8.09907e-13 -1.38855e-06 1.72907e-07 -1.39599e-06)
(-4.90777e-06 -1.27651e-11 3.66639e-12 -3.54841e-06 1.44312e-07 -1.71563e-06)
(-3.0291e-06 1.03557e-12 -1.27747e-12 2.06679e-07 1.12493e-07 -8.25132e-08)
(-2.9537e-06 1.59744e-12 -8.28941e-13 -4.46126e-07 1.33622e-07 -2.82666e-07)
(-3.00783e-06 1.34467e-12 -6.49198e-13 -4.72971e-07 1.23048e-07 -3.90854e-07)
(-3.09897e-06 2.09018e-13 -2.95912e-13 -4.6867e-07 1.15617e-07 -4.44816e-07)
(-3.24001e-06 4.9433e-13 2.86767e-13 -4.80137e-07 1.28928e-07 -5.02886e-07)
(-3.46418e-06 -3.14068e-13 1.49496e-12 -5.75472e-07 1.48367e-07 -6.03009e-07)
(-3.82792e-06 2.02685e-12 2.77661e-12 -1.17033e-06 1.38797e-07 -7.52835e-07)