/*--------------------------------*- C++ -*----------------------------------*\
| =========                 |                                                 |
| \\      /  F ield         | OpenFOAM: The Open Source CFD Toolbox           |
|  \\    /   O peration     | Version:  v1912                                 |
|   \\  /    A nd           | Website:  www.openfoam.com                      |
|    \\/     M anipulation  |                                                 |
\*---------------------------------------------------------------------------*/
FoamFile
{
    version     2.0;
    format      ascii;
    class       pointVectorField;
    location    "0.85/solid";
    object      pointDD;
}
// * * * * * * * * * * * * * * * * * * * * * * * * * * * * * * * * * * * * * //

dimensions      [0 1 0 0 0 0 0];


internalField   nonuniform List<vector> 
405
(
(1.48699e-10 2.57751e-10 1.66421e-10)
(6.17099e-11 1.91117e-10 1.30819e-10)
(-6.13907e-12 1.68656e-10 1.21934e-10)
(-6.86708e-11 1.78134e-10 1.12859e-10)
(-1.28666e-10 2.38188e-10 1.38743e-10)
(3.13036e-10 3.39146e-10 4.18205e-10)
(1.80221e-10 3.42999e-10 4.31768e-10)
(-1.98847e-11 3.01568e-10 4.1009e-10)
(-2.07068e-10 3.25226e-10 3.88197e-10)
(-2.9174e-10 3.22629e-10 3.6248e-10)
(4.2448e-10 1.91606e-10 7.11751e-10)
(2.48258e-10 2.15597e-10 7.25386e-10)
(-3.5008e-11 1.88574e-10 6.95413e-10)
(-3.02848e-10 2.14209e-10 6.6881e-10)
(-4.25003e-10 2.0059e-10 6.32691e-10)
(4.42148e-10 -9.18818e-12 9.42271e-10)
(2.5228e-10 3.11294e-11 9.5189e-10)
(-5.16672e-11 2.13235e-11 9.12989e-10)
(-3.3987e-10 4.48621e-11 8.85946e-10)
(-4.72535e-10 2.34453e-11 8.47396e-10)
(4.3514e-10 -2.1117e-10 1.14939e-09)
(2.37855e-10 -1.68462e-10 1.153e-09)
(-7.20044e-11 -1.70347e-10 1.10517e-09)
(-3.65865e-10 -1.41567e-10 1.07965e-09)
(-5.03259e-10 -1.57352e-10 1.04217e-09)
(4.45828e-10 -4.32898e-10 1.35779e-09)
(2.35537e-10 -3.96301e-10 1.35362e-09)
(-9.66999e-11 -3.94979e-10 1.29788e-09)
(-4.12577e-10 -3.57029e-10 1.27369e-09)
(-5.6034e-10 -3.58621e-10 1.23964e-09)
(4.99929e-10 -7.36333e-10 1.57632e-09)
(2.62726e-10 -7.04455e-10 1.56713e-09)
(-1.26412e-10 -6.94188e-10 1.50836e-09)
(-4.98448e-10 -6.51843e-10 1.48093e-09)
(-6.69877e-10 -6.40006e-10 1.44775e-09)
(5.79885e-10 -1.17076e-09 1.77045e-09)
(3.07072e-10 -1.13837e-09 1.76604e-09)
(-1.61924e-10 -1.11004e-09 1.71456e-09)
(-6.12025e-10 -1.067e-09 1.67395e-09)
(-8.14182e-10 -1.04471e-09 1.63247e-09)
(6.09696e-10 -1.44139e-09 1.85982e-09)
(3.2772e-10 -1.42221e-09 1.85597e-09)
(-1.82503e-10 -1.37767e-09 1.81661e-09)
(-6.72702e-10 -1.32808e-09 1.77186e-09)
(-8.98066e-10 -1.29259e-09 1.72832e-09)
(1.00241e-10 1.32197e-10 7.76108e-11)
(0 0 0)
(0 0 0)
(0 0 0)
(-6.77999e-11 1.23275e-10 6.69378e-11)
(2.78864e-10 2.041e-10 2.90245e-10)
(0 0 0)
(0 0 0)
(0 0 0)
(-2.17974e-10 1.9863e-10 2.54749e-10)
(3.7599e-10 4.64481e-11 5.39606e-10)
(0 0 0)
(0 0 0)
(0 0 0)
(-3.28457e-10 6.57451e-11 4.80554e-10)
(3.91171e-10 -1.46434e-10 7.54693e-10)
(0 0 0)
(0 0 0)
(0 0 0)
(-3.66799e-10 -1.03359e-10 6.79212e-10)
(3.84896e-10 -3.36341e-10 9.52471e-10)
(0 0 0)
(0 0 0)
(0 0 0)
(-3.92621e-10 -2.70825e-10 8.63996e-10)
(3.96954e-10 -5.3828e-10 1.14972e-09)
(0 0 0)
(0 0 0)
(0 0 0)
(-4.45963e-10 -4.50466e-10 1.04973e-09)
(4.57365e-10 -8.05856e-10 1.34937e-09)
(0 0 0)
(0 0 0)
(0 0 0)
(-5.56613e-10 -6.94286e-10 1.23865e-09)
(5.53326e-10 -1.19447e-09 1.5172e-09)
(0 0 0)
(0 0 0)
(0 0 0)
(-7.10895e-10 -1.05255e-09 1.39758e-09)
(5.75324e-10 -1.44653e-09 1.60061e-09)
(3.00845e-10 -1.4383e-09 1.60776e-09)
(-1.67901e-10 -1.38111e-09 1.58437e-09)
(-6.17856e-10 -1.33502e-09 1.54572e-09)
(-8.18751e-10 -1.28886e-09 1.49243e-09)
(6.1566e-11 6.50409e-11 2.89555e-11)
(0 0 0)
(0 0 0)
(0 0 0)
(-2.7883e-11 5.5714e-11 2.34385e-11)
(1.79005e-10 5.93622e-11 1.45883e-10)
(0 0 0)
(0 0 0)
(0 0 0)
(-1.10836e-10 5.24962e-11 1.25024e-10)
(2.47167e-10 -1.02327e-10 3.29973e-10)
(0 0 0)
(0 0 0)
(0 0 0)
(-1.83562e-10 -8.57056e-11 2.91527e-10)
(2.54388e-10 -2.80682e-10 5.18083e-10)
(0 0 0)
(0 0 0)
(0 0 0)
(-2.066e-10 -2.41329e-10 4.65619e-10)
(2.46504e-10 -4.51727e-10 6.97352e-10)
(0 0 0)
(0 0 0)
(0 0 0)
(-2.24551e-10 -3.90466e-10 6.33196e-10)
(2.60716e-10 -6.23788e-10 8.67466e-10)
(0 0 0)
(0 0 0)
(0 0 0)
(-2.74463e-10 -5.40655e-10 7.92937e-10)
(3.31581e-10 -8.40574e-10 1.02077e-09)
(0 0 0)
(0 0 0)
(0 0 0)
(-3.90338e-10 -7.34521e-10 9.37084e-10)
(4.50948e-10 -1.16717e-09 1.12721e-09)
(0 0 0)
(0 0 0)
(0 0 0)
(-5.627e-10 -1.03229e-09 1.03701e-09)
(4.88365e-10 -1.39344e-09 1.16604e-09)
(2.48797e-10 -1.38056e-09 1.17428e-09)
(-1.39636e-10 -1.31532e-09 1.1686e-09)
(-5.10702e-10 -1.28154e-09 1.13004e-09)
(-6.8066e-10 -1.24283e-09 1.08662e-09)
(3.46937e-11 3.11963e-11 1.65377e-11)
(0 0 0)
(0 0 0)
(0 0 0)
(-9.24726e-14 1.97867e-11 1.28746e-11)
(1.07856e-10 -1.32426e-11 9.64199e-11)
(0 0 0)
(0 0 0)
(0 0 0)
(-3.46925e-11 -2.50894e-11 8.23945e-11)
(1.54784e-10 -1.79142e-10 2.38187e-10)
(0 0 0)
(0 0 0)
(0 0 0)
(-7.98385e-11 -1.68724e-10 2.11555e-10)
(1.58944e-10 -3.51997e-10 3.96366e-10)
(0 0 0)
(0 0 0)
(0 0 0)
(-9.3659e-11 -3.19426e-10 3.58619e-10)
(1.53817e-10 -5.07799e-10 5.50871e-10)
(0 0 0)
(0 0 0)
(0 0 0)
(-1.08698e-10 -4.53567e-10 5.03229e-10)
(1.7318e-10 -6.51972e-10 6.90389e-10)
(0 0 0)
(0 0 0)
(0 0 0)
(-1.58593e-10 -5.76062e-10 6.33861e-10)
(2.52017e-10 -8.27832e-10 8.00511e-10)
(0 0 0)
(0 0 0)
(0 0 0)
(-2.77694e-10 -7.29342e-10 7.36425e-10)
(3.82046e-10 -1.109e-09 8.57962e-10)
(0 0 0)
(0 0 0)
(0 0 0)
(-4.56303e-10 -9.82114e-10 7.88993e-10)
(4.24953e-10 -1.31774e-09 8.64232e-10)
(2.11694e-10 -1.30998e-09 8.6844e-10)
(-1.17811e-10 -1.2465e-09 8.70248e-10)
(-4.30242e-10 -1.21508e-09 8.35431e-10)
(-5.75901e-10 -1.1743e-09 8.04207e-10)
(2.19925e-11 1.65905e-11 1.59568e-11)
(0 0 0)
(0 0 0)
(0 0 0)
(1.33236e-11 3.4377e-12 1.3389e-11)
(7.46474e-11 -4.27681e-11 8.23094e-11)
(0 0 0)
(0 0 0)
(0 0 0)
(1.9737e-12 -5.91827e-11 7.25871e-11)
(1.13023e-10 -2.08388e-10 1.94453e-10)
(0 0 0)
(0 0 0)
(0 0 0)
(-3.03028e-11 -2.04153e-10 1.75896e-10)
(1.18577e-10 -3.77482e-10 3.20224e-10)
(0 0 0)
(0 0 0)
(0 0 0)
(-4.08691e-11 -3.51834e-10 2.93414e-10)
(1.18479e-10 -5.22795e-10 4.43516e-10)
(0 0 0)
(0 0 0)
(0 0 0)
(-5.63164e-11 -4.75747e-10 4.0895e-10)
(1.43602e-10 -6.48799e-10 5.50681e-10)
(0 0 0)
(0 0 0)
(0 0 0)
(-1.07608e-10 -5.80125e-10 5.08998e-10)
(2.27261e-10 -8.01394e-10 6.27055e-10)
(0 0 0)
(0 0 0)
(0 0 0)
(-2.2749e-10 -7.10095e-10 5.79379e-10)
(3.59701e-10 -1.05868e-09 6.57711e-10)
(0 0 0)
(0 0 0)
(0 0 0)
(-4.04811e-10 -9.38814e-10 6.06288e-10)
(4.02626e-10 -1.25887e-09 6.50572e-10)
(2.0171e-10 -1.25866e-09 6.47911e-10)
(-1.0133e-10 -1.20066e-09 6.48501e-10)
(-3.8719e-10 -1.16714e-09 6.23514e-10)
(-5.21532e-10 -1.12141e-09 6.05969e-10)
(1.7046e-11 1.14407e-11 1.45974e-11)
(0 0 0)
(0 0 0)
(0 0 0)
(1.87439e-11 -2.8918e-12 1.2858e-11)
(6.23009e-11 -5.15556e-11 6.80845e-11)
(0 0 0)
(0 0 0)
(0 0 0)
(1.65419e-11 -7.12827e-11 6.15428e-11)
(9.90581e-11 -2.13958e-10 1.52572e-10)
(0 0 0)
(0 0 0)
(0 0 0)
(-1.12856e-11 -2.14561e-10 1.4007e-10)
(1.07745e-10 -3.78766e-10 2.45228e-10)
(0 0 0)
(0 0 0)
(0 0 0)
(-2.17126e-11 -3.58795e-10 2.26977e-10)
(1.12525e-10 -5.17223e-10 3.35263e-10)
(0 0 0)
(0 0 0)
(0 0 0)
(-3.85873e-11 -4.76185e-10 3.11401e-10)
(1.42233e-10 -6.33726e-10 4.11437e-10)
(0 0 0)
(0 0 0)
(0 0 0)
(-9.10628e-11 -5.71089e-10 3.82311e-10)
(2.28397e-10 -7.75992e-10 4.6246e-10)
(0 0 0)
(0 0 0)
(0 0 0)
(-2.10234e-10 -6.90551e-10 4.28874e-10)
(3.60311e-10 -1.02279e-09 4.79798e-10)
(0 0 0)
(0 0 0)
(0 0 0)
(-3.84083e-10 -9.08447e-10 4.43431e-10)
(4.02457e-10 -1.21859e-09 4.70472e-10)
(2.06301e-10 -1.22342e-09 4.63972e-10)
(-8.9304e-11 -1.17013e-09 4.62037e-10)
(-3.67579e-10 -1.13448e-09 4.46765e-10)
(-4.97821e-10 -1.08572e-09 4.38941e-10)
(1.53936e-11 1.00226e-11 1.08971e-11)
(0 0 0)
(0 0 0)
(0 0 0)
(2.06829e-11 -5.04582e-12 9.82406e-12)
(5.86303e-11 -5.24831e-11 4.82869e-11)
(0 0 0)
(0 0 0)
(0 0 0)
(2.15614e-11 -7.43618e-11 4.42598e-11)
(9.61531e-11 -2.10886e-10 1.04727e-10)
(0 0 0)
(0 0 0)
(0 0 0)
(-5.25754e-12 -2.1479e-10 9.70193e-11)
(1.07759e-10 -3.71533e-10 1.65216e-10)
(0 0 0)
(0 0 0)
(0 0 0)
(-1.64655e-11 -3.5558e-10 1.53892e-10)
(1.16141e-10 -5.05671e-10 2.23315e-10)
(0 0 0)
(0 0 0)
(0 0 0)
(-3.45924e-11 -4.68981e-10 2.08379e-10)
(1.48892e-10 -6.17919e-10 2.7163e-10)
(0 0 0)
(0 0 0)
(0 0 0)
(-8.77059e-11 -5.59673e-10 2.53244e-10)
(2.36312e-10 -7.56528e-10 3.02999e-10)
(0 0 0)
(0 0 0)
(0 0 0)
(-2.05819e-10 -6.75314e-10 2.81662e-10)
(3.67217e-10 -9.99136e-10 3.12851e-10)
(0 0 0)
(0 0 0)
(0 0 0)
(-3.76532e-10 -8.88717e-10 2.89664e-10)
(4.08564e-10 -1.19267e-09 3.05726e-10)
(2.13908e-10 -1.2003e-09 2.99457e-10)
(-8.11352e-11 -1.14997e-09 2.96832e-10)
(-3.58732e-10 -1.11315e-09 2.88492e-10)
(-4.87912e-10 -1.06302e-09 2.85613e-10)
(1.49124e-11 9.78067e-12 5.75145e-12)
(0 0 0)
(0 0 0)
(0 0 0)
(2.13174e-11 -5.68923e-12 5.24064e-12)
(5.77877e-11 -5.15096e-11 2.48916e-11)
(0 0 0)
(0 0 0)
(0 0 0)
(2.31309e-11 -7.45878e-11 2.29749e-11)
(9.62234e-11 -2.06861e-10 5.30884e-11)
(0 0 0)
(0 0 0)
(0 0 0)
(-3.62537e-12 -2.12655e-10 4.9415e-11)
(1.09692e-10 -3.64563e-10 8.28524e-11)
(0 0 0)
(0 0 0)
(0 0 0)
(-1.54937e-11 -3.50965e-10 7.74361e-11)
(1.20173e-10 -4.96294e-10 1.11195e-10)
(0 0 0)
(0 0 0)
(0 0 0)
(-3.4362e-11 -4.62194e-10 1.04015e-10)
(1.54604e-10 -6.06875e-10 1.34547e-10)
(0 0 0)
(0 0 0)
(0 0 0)
(-8.77317e-11 -5.51261e-10 1.25663e-10)
(2.42626e-10 -7.44488e-10 1.49511e-10)
(0 0 0)
(0 0 0)
(0 0 0)
(-2.05059e-10 -6.65806e-10 1.39161e-10)
(3.72828e-10 -9.85555e-10 1.54074e-10)
(0 0 0)
(0 0 0)
(0 0 0)
(-3.73789e-10 -8.77474e-10 1.42798e-10)
(4.13605e-10 -1.17804e-09 1.50397e-10)
(2.19331e-10 -1.18703e-09 1.46802e-10)
(-7.64058e-11 -1.13822e-09 1.45123e-10)
(-3.54626e-10 -1.10092e-09 1.4147e-10)
(-4.83672e-10 -1.05029e-09 1.40612e-10)
(2.01317e-11 4.25879e-12 0)
(8.72719e-12 -1.01916e-11 0)
(5.336e-13 -1.76501e-11 0)
(-3.36176e-12 -1.50654e-11 0)
(1.04961e-11 -1.17663e-11 0)
(5.51553e-11 -6.13431e-11 0)
(3.12293e-11 -8.59629e-11 0)
(4.19266e-12 -1.01282e-10 0)
(-1.27224e-11 -9.35989e-11 0)
(-2.66498e-13 -7.96538e-11 0)
(8.96535e-11 -2.10218e-10 0)
(5.05397e-11 -2.27415e-10 0)
(9.14309e-12 -2.39541e-10 0)
(-2.07871e-11 -2.28786e-10 0)
(-2.24756e-11 -2.14864e-10 0)
(1.01594e-10 -3.63998e-10 0)
(5.63918e-11 -3.7489e-10 0)
(1.02301e-11 -3.81546e-10 0)
(-2.47961e-11 -3.673e-10 0)
(-3.26666e-11 -3.52101e-10 0)
(1.10802e-10 -4.97549e-10 0)
(5.91656e-11 -5.12288e-10 0)
(5.88403e-12 -5.17766e-10 0)
(-3.63777e-11 -4.94746e-10 0)
(-5.0307e-11 -4.6792e-10 0)
(1.43564e-10 -6.16624e-10 0)
(7.61663e-11 -6.44138e-10 0)
(-4.37569e-12 -6.50853e-10 0)
(-7.36319e-11 -6.16046e-10 0)
(-1.02297e-10 -5.68313e-10 0)
(2.26983e-10 -7.64198e-10 0)
(1.23753e-10 -7.99638e-10 0)
(-2.10462e-11 -8.01288e-10 0)
(-1.53603e-10 -7.59996e-10 0)
(-2.15852e-10 -6.95648e-10 0)
(3.47767e-10 -1.00335e-09 0)
(1.90848e-10 -1.02141e-09 0)
(-4.48451e-11 -1.0034e-09 0)
(-2.65933e-10 -9.66056e-10 0)
(-3.77122e-10 -9.08172e-10 0)
(4.03079e-10 -1.17208e-09 0)
(2.23046e-10 -1.16821e-09 0)
(-6.67417e-11 -1.128e-09 0)
(-3.39638e-10 -1.09287e-09 0)
(-4.7602e-10 -1.05481e-09 0)
)
;

boundaryField
{
    interface
    {
        type            calculated;
    }
    symmetry
    {
        type            symmetry;
    }
    bottom
    {
        type            calculated;
    }
}


// ************************************************************************* //
