/*--------------------------------*- C++ -*----------------------------------*\
| =========                 |                                                 |
| \\      /  F ield         | OpenFOAM: The Open Source CFD Toolbox           |
|  \\    /   O peration     | Version:  v1912                                 |
|   \\  /    A nd           | Website:  www.openfoam.com                      |
|    \\/     M anipulation  |                                                 |
\*---------------------------------------------------------------------------*/
FoamFile
{
    version     2.0;
    format      ascii;
    class       volScalarField;
    location    "0.85/solid";
    object      sigmaHyd;
}
// * * * * * * * * * * * * * * * * * * * * * * * * * * * * * * * * * * * * * //

dimensions      [1 -1 -2 0 0 0 0];


internalField   nonuniform List<scalar> 
256
(
-716921
-387152
-379732
-672547
-1.08455e+06
-674435
-663263
-1.0277e+06
-1.13235e+06
-726862
-715057
-1.07371e+06
-1.15128e+06
-746984
-734903
-1.09148e+06
-1.19117e+06
-778431
-766127
-1.13022e+06
-1.2831e+06
-852871
-840275
-1.22086e+06
-1.51578e+06
-1.05982e+06
-1.04597e+06
-1.44989e+06
-2.08954e+06
-1.60512e+06
-1.58402e+06
-2.00348e+06
-381943
-132207
-130605
-354699
-623900
-295035
-290727
-587067
-664055
-342943
-338127
-625866
-680481
-363754
-358746
-641376
-709312
-386733
-381593
-669240
-779271
-438682
-433350
-738025
-978962
-601614
-595127
-934085
-1.51671e+06
-1.06011e+06
-1.04612e+06
-1.45022e+06
-299325
-83445.1
-82423.5
-274425
-465570
-178612
-175415
-432486
-494787
-214332
-210689
-460480
-509105
-232365
-228530
-473851
-534129
-251716
-247732
-497802
-595964
-295023
-290821
-558251
-779671
-438357
-432957
-737990
-1.28434e+06
-852702
-839846
-1.22092e+06
-277642
-77800.4
-76823.8
-253432
-416738
-151440
-148421
-384810
-440026
-179789
-176351
-406938
-452798
-195141
-191506
-418733
-476245
-212514
-208715
-441013
-534700
-252222
-248177
-497918
-709675
-386265
-380987
-668669
-1.19141e+06
-776837
-764124
-1.12854e+06
-269031
-77560.7
-76604.5
-245237
-398761
-144119
-141175
-367489
-419430
-168718
-165370
-387042
-431089
-182090
-178545
-397710
-453479
-197993
-194275
-418878
-509981
-235685
-231704
-473727
-679751
-364923
-359685
-639113
-1.1475e+06
-743202
-730525
-1.08486e+06
-263934
-77602.3
-76662.6
-240392
-389944
-141354
-138460
-359071
-409487
-164116
-160828
-377529
-420411
-176251
-172768
-387455
-442025
-191143
-187483
-407816
-497275
-227626
-223694
-461353
-663924
-354236
-349031
-623521
-1.12316e+06
-725491
-712837
-1.06066e+06
-260671
-77520
-76590.3
-237269
-384978
-140068
-137205
-354331
-404016
-161960
-158709
-372302
-414497
-173412
-169966
-381785
-435605
-187698
-184075
-401623
-490106
-223497
-219596
-454376
-654981
-348671
-343489
-614715
-1.1092e+06
-715793
-703154
-1.04678e+06
-259034
-77423.7
-76498.3
-235694
-382621
-139515
-136665
-352076
-401452
-161057
-157824
-369850
-411726
-172210
-168782
-379125
-432587
-186218
-182611
-398708
-486740
-221708
-217822
-451097
-650807
-346235
-341064
-610603
-1.10268e+06
-711391
-698758
-1.04029e+06
)
;

boundaryField
{
    interface
    {
        type            zeroGradient;
    }
    symmetry
    {
        type            symmetry;
    }
    bottom
    {
        type            zeroGradient;
    }
}


// ************************************************************************* //
