/*--------------------------------*- C++ -*----------------------------------*\
| =========                 |                                                 |
| \\      /  F ield         | OpenFOAM: The Open Source CFD Toolbox           |
|  \\    /   O peration     | Version:  v1912                                 |
|   \\  /    A nd           | Website:  www.openfoam.com                      |
|    \\/     M anipulation  |                                                 |
\*---------------------------------------------------------------------------*/
FoamFile
{
    version     2.0;
    format      ascii;
    class       volSymmTensorField;
    location    "0.85/solid";
    object      sigma;
}
// * * * * * * * * * * * * * * * * * * * * * * * * * * * * * * * * * * * * * //

dimensions      [1 -1 -2 0 0 0 0];


internalField   nonuniform List<symmTensor> 
256
(
(-137418 34448.2 -12302 533682 39860.7 -144932)
(99879.3 -4978.26 -5283.07 347592 39491.4 -191943)
(102137 3207.3 4934.24 343600 39415.8 -186381)
(-106293 -33747.4 12052.7 521011 39648.7 -128194)
(-163703 773.156 -19056 216788 6550.73 -164211)
(-11753.7 -5497.57 -8849.91 128630 8239.38 -232805)
(-7379.01 5066.77 8454.55 128030 8334.73 -226412)
(-129623 -812.202 18712.6 215938 6766.98 -146352)
(-164511 -4803.55 -20668.1 206152 884.376 -164469)
(-29673 -5388.49 -9797.6 85998.6 1133.89 -243227)
(-25276.9 5329.2 9463.87 85846.7 1198.26 -236637)
(-130198 4754.73 20327 205359 1034.35 -146377)
(-160383 -3379.11 -21546.9 225049 2082.97 -163736)
(-21604.5 -4213.03 -10265.4 71255.7 1519.67 -248555)
(-17247.2 4168.73 9969.29 71140.5 1541.37 -241836)
(-125640 3370.99 21215.8 223903 2127.86 -145371)
(-164248 -335.968 -22466 230764 5694.18 -170193)
(-19598.9 -2132.4 -10778.7 57322.5 4889.32 -260229)
(-15191.2 2028.8 10491.1 57194.3 4882.47 -253381)
(-128873 316.823 22140.8 229560 5660.6 -151481)
(-183243 5604.68 -23226.7 203021 12390.7 -187957)
(-39677.7 1690.39 -11242.9 25866.3 11898.6 -285247)
(-35197.9 -1964.46 10944.3 25840.3 11867.2 -278248)
(-147166 -5694.89 22904.9 202177 12287.9 -168791)
(-210623 15788.7 -22846.9 89270.4 22255.6 -210623)
(-74029.2 7499.01 -11099.8 -66674.8 23288.1 -317161)
(-69395.8 -8126.6 10773.6 -65666.1 23223.2 -309943)
(-173664 -15972.1 22526 91273.7 22070.2 -190825)
(-128017 20461.1 -20415 -126895 26052.2 -126547)
(59461 9987.49 -9962.75 -219431 28551.2 -218938)
(63813.2 -9625.3 9603.17 -212769 28479.7 -212334)
(-91263.9 -20132.3 20096.1 -108551 25868.9 -108394)
(-189260 20751.3 -9718.81 262340 6725.56 76901.6)
(-31825.2 -8735.22 -3278.53 61835.5 21823.9 -37544.5)
(-29497.5 8227.79 3588.17 58798.1 22218.4 -37686.7)
(-158550 -19595.7 9803.01 251812 7790.74 76931.1)
(-221847 -1777.21 -15199.9 91909.8 8804.88 2202.62)
(-137414 -6134.35 -6576.09 -39753.3 16823.9 -138080)
(-132781 6286.47 6993.93 -40131.2 17030.6 -136664)
(-187955 1929.99 15282.3 91303.1 9338.71 5325.96)
(-228937 -5071.81 -16089.2 71262.1 7432.51 -10101.7)
(-165496 -5182.89 -7230.51 -93117.5 9928.03 -169401)
(-160725 5308.59 7731.77 -92675.3 10043.7 -167780)
(-194607 5075.49 16183.6 71588 7721.92 -6947.62)
(-230445 -3551.92 -16391 69957.9 7891.9 -9197.86)
(-168243 -4014.99 -7324.14 -127625 8123.91 -180850)
(-163459 4032.26 7903.2 -126921 8174.09 -179210)
(-195573 3564.09 16509 70437.3 8001.81 -6177.02)
(-239366 -610.884 -16875 65901.1 12737 -12528.9)
(-175663 -2111.92 -7607.77 -153596 12209.8 -194498)
(-170806 2051.42 8224.77 -152840 12203.7 -192851)
(-203757 618.085 17011.2 66441.8 12684.7 -9538.09)
(-265043 5604.94 -17269.9 42526.2 20704.8 -28408.8)
(-205558 1680.76 -7933.94 -183548 20009.3 -221973)
(-200615 -1906.71 8547.69 -182722 19954.8 -220305)
(-228593 -5656.46 17416.9 43322.5 20509.9 -25336.4)
(-301652 16970.2 -16932.7 -47360 26892.2 -48485)
(-247758 7879.48 -7859.19 -250505 26734 -251070)
(-242664 -8479.39 8448.44 -248754 26644.2 -249323)
(-264186 -17117.9 17089.6 -43966.5 26601.1 -45111.7)
(-210952 22875.3 -15725.6 -210936 22384.1 89147.7)
(-73866.8 11111.7 -7462.1 -317531 23397.2 -66139.8)
(-69202.1 -10781.2 8084.53 -310212 23333.6 -65130.5)
(-173742 -22543.3 15921 -190834 22201.9 91132)
(-171513 11210.9 -4093.08 172196 16741.5 119592)
(-35710.2 -12950.5 -613.137 -9617.64 31536.7 -3822.54)
(-33370 12622.7 740.701 -12295.6 31721.6 -4523.91)
(-141685 -10027.9 4104.89 162530 17306.7 118039)
(-186616 -3290.76 -6253.55 65464.9 20206 88995.3)
(-103765 -6975.38 -1842.23 -64891.1 27793.7 -68996.3)
(-99312.3 7328.65 1994.25 -65353.3 27916.8 -68467.5)
(-153914 3519.31 6266.58 64547.6 20557.2 89695.3)
(-190904 -4904.19 -6255.5 61716.3 18727.7 73516.7)
(-124127 -5001.14 -1954.04 -98719.1 21133.6 -104964)
(-119554 5260.01 2117.57 -98416 21211.1 -104214)
(-157759 4958.06 6272.68 61638.4 18930.5 74271.8)
(-192637 -3469.33 -6018.86 65685.2 17717.9 68885.3)
(-126603 -3891.57 -1763.21 -124491 17987.9 -123009)
(-122013 3974.08 1958.09 -123893 18020.8 -122234)
(-158921 3507.71 6048.18 65840.7 17787.3 69510.5)
(-201564 -666.791 -5953.73 67110.2 19900.3 63316.4)
(-134064 -2185.66 -1725.1 -143799 19487.8 -140398)
(-129384 2146.8 1942.78 -143121 19475.2 -139623)
(-167031 689.601 5995.29 67376.9 19835 63877)
(-227110 5700.57 -5918.21 53385.1 23006.6 49056.7)
(-163045 1611.37 -1798.43 -163809 22373.6 -167562)
(-158248 -1846.61 2018.05 -163054 22322.8 -166773)
(-191574 -5741.23 5969.52 53895.3 22825.7 49658.9)
(-265154 17315.6 -5814.93 -26157.9 21580.6 40328.6)
(-204684 7948 -1876.33 -220133 20863.9 -185035)
(-199691 -8585.56 2093.84 -218452 20798.1 -184185)
(-228366 -17458.5 5881.08 -23066.6 21353.4 41162.9)
(-183559 23261.1 -5773.03 -188112 12898.5 203662)
(-38426.3 11248.5 -1885.99 -285331 12398.3 27280.9)
(-33868.8 -10945.8 2160.04 -278169 12364.5 27268.7)
(-146903 -22927.4 5883.24 -168483 12788.2 202819)
(-156938 7266.85 -1082.69 136885 20118.7 115071)
(-31060.4 -14372.4 637.211 -29073.7 29222.2 -3448.28)
(-28754.6 13992.2 -577.477 -31625.6 29318.3 -4103.53)
(-127809 -6149.25 1073.77 127614 20464 113614)
(-162845 -3631.03 -1424 50324 24334.8 106166)
(-80287.2 -7119.23 726.879 -73608.3 28920.6 -48811.3)
(-75936.6 7472.09 -672.687 -74046.6 28989.6 -48346.9)
(-130971 3859.42 1406.17 49403.8 24561.3 106653)
(-164992 -4466.46 -1074.18 56385.9 24077.8 92030.8)
(-94893.1 -4696.32 931.623 -95557.2 25406.6 -82739.1)
(-90424.2 4990.57 -896.783 -95285.5 25451.1 -82057.4)
(-132679 4538.34 1052.49 56194.3 24207.1 92562.6)
(-166706 -3125.5 -688.206 68658.1 22630.9 82348.3)
(-96510.5 -3648.37 1196.03 -110401 22574 -105299)
(-92016.8 3763.62 -1161.82 -109850 22590.8 -104571)
(-133795 3179.75 668.713 68672.6 22668.3 82802.5)
(-175679 -479.636 -435.549 76909.3 21861.4 73425.4)
(-103794 -2113.96 1347.46 -121623 21418.5 -126024)
(-99197.3 2086.57 -1306.26 -120986 21405.5 -125283)
(-141886 511.995 421.591 77042.8 21806 73840)
(-200886 5739.46 -311.982 67963.7 20169.8 61416.9)
(-131878 1518.74 1352.96 -136711 19685.4 -151041)
(-127141 -1767.27 -1307.32 -135984 19648.8 -150284)
(-165970 -5775.79 305.463 68357.2 20038.7 61861.7)
(-238585 16960 -410.312 -9198.1 14544.7 63350.8)
(-172130 7601.85 1186.52 -191857 13954.3 -157862)
(-167163 -8268.95 -1131.53 -190189 13913 -157060)
(-202232 -17100.9 417.823 -6203.61 14394.3 63959.2)
(-163153 22562.6 -668.394 -169812 6777.01 235193)
(-14574.3 10795.9 1126.82 -259768 6038.46 59982.4)
(-10032.9 -10508.5 -1021.8 -252678 6019.97 59863)
(-126797 -22225.5 710.594 -150435 6710 233950)
(-149106 6104.11 -137.788 120894 18382.6 105816)
(-29727.6 -14250.2 753.286 -35560.7 22924.8 -5760.08)
(-27462.4 13811.5 -716.283 -38056.5 22988.4 -6364.07)
(-120453 -5044.26 130.777 111871 18624.2 104507)
(-152276 -3449.3 72.9665 40830 22045.3 102921)
(-72311.8 -6854.36 1203.07 -77484.3 24202.1 -42776.1)
(-68040.2 7162.55 -1172.3 -77905.2 24248.3 -42292.3)
(-120947 3657.81 -88.78 39940.9 22209.6 103457)
(-153760 -4044.41 428.684 50245.6 22860.1 90937.5)
(-84562.2 -4395.69 1461.15 -94673.8 23307.7 -73089.9)
(-80171.7 4676.63 -1453.32 -94411.4 23335.7 -72401.1)
(-121993 4114.06 -451.232 50028.9 22951.7 91484.1)
(-155642 -2787.55 746.55 67133 21704.4 79779.9)
(-85907.8 -3423.73 1671.2 -103312 21434.5 -96289.2)
(-81486.2 3542.52 -1676.13 -102785 21443.5 -95548.1)
(-123257 2845.87 -771.969 67095.4 21729.3 80260.3)
(-164788 -284.023 967.262 79397.5 19490.3 69885.5)
(-93251.4 -2021.56 1798.07 -109672 19095.9 -117556)
(-88718.2 1996.19 -1805.62 -109060 19086.1 -116794)
(-131475 320.618 -991.614 79475.3 19452.8 70338.4)
(-189759 5701.14 1048.93 72231.6 15629.5 60535)
(-120815 1415.39 1801.98 -123010 15343.6 -139763)
(-116125 -1672.15 -1806.89 -122299 15320.1 -138983)
(-155244 -5734.85 -1068.71 72584 15544.8 61007.6)
(-226819 16483.1 900.839 -3927.91 9382.36 68678.2)
(-159982 7216.02 1650.25 -178454 9098.81 -140696)
(-155040 -7898.48 -1644.65 -176789 9074.09 -139879)
(-190752 -16621.9 -910.293 -959.251 9288.27 69269.4)
(-154898 21806.1 656.78 -161249 3763.35 240043)
(-8546.39 10334.2 1611.1 -246800 3275.96 73764.5)
(-4018.57 -10054.3 -1568.56 -239738 3265.34 73639)
(-118730 -21466.1 -642.47 -141977 3722.08 238701)
(-144698 5871.81 26.0725 113491 14284.2 99602.8)
(-29806.3 -13792.6 500.812 -37982.2 16345.6 -7163.17)
(-27569.7 13313.6 -476.382 -40444.3 16388.7 -7741.92)
(-116333 -4850.22 -29.2233 104640 14447 98387.2)
(-147398 -3190.4 251.151 36211.6 16786.2 97710.1)
(-70388.4 -6553.54 859.605 -78555.7 17644.5 -40657.8)
(-66171.4 6822.35 -837.828 -78971 17676.9 -40161.4)
(-116400 3381.21 -259.39 35346.1 16902.9 98302.6)
(-148871 -3745.85 496.21 46491.2 17775.6 87400.3)
(-81988.6 -4181.77 1046.09 -93965.7 17806.6 -68085)
(-77653.3 4438.47 -1041.82 -93713.2 17825.9 -67393.3)
(-117436 3807.51 -510.166 46261.4 17842.4 87975.9)
(-150950 -2558.48 698.297 64981.4 17009.4 76911.7)
(-83390.4 -3280.32 1174.13 -100118 16722.6 -90026.5)
(-79020.3 3389.27 -1183.47 -99609.2 16728.6 -89284.4)
(-118884 2614.64 -716.248 64914.2 17029.9 77410.3)
(-160217 -159.645 835.694 78767.5 14747.5 67805)
(-90825.5 -1966.21 1246.91 -104479 14470.3 -110217)
(-86338 1936.7 -1262.31 -103886 14464.4 -109453)
(-127193 196.801 -854.646 78812.8 14727 68272.2)
(-184985 5643.38 873.69 72207 10966.8 60616.2)
(-118041 1333.4 1242.05 -117276 10839.5 -130206)
(-113387 -1595.46 -1257.21 -116578 10825.6 -129424)
(-150708 -5675.71 -890.428 72535.9 10916.8 61092.8)
(-221512 16130.8 758.541 -2878.04 5963.74 71497.9)
(-156481 6953.97 1143.95 -172522 5896.21 -128702)
(-151562 -7643.75 -1151.58 -170863 5881.95 -127885)
(-185614 -16267.7 -768.806 76.6741 5908.06 72067.6)
(-151599 21293.5 585.576 -156930 2216.32 240153)
(-8773.74 10035.1 1120.13 -239948 1983.85 81402.9)
(-4259.23 -9758.61 -1103.87 -232900 1977.85 81270.6)
(-115538 -20951.5 -581.095 -137710 2191.95 238747)
(-142125 5848.22 16.921 110261 8970.91 96280.1)
(-30017.6 -13453.5 252.084 -38784.4 9843.95 -7937.44)
(-27797.2 12950 -237.775 -41225.1 9869.18 -8503.89)
(-113923 -4849.17 -17.9311 101520 9064.64 95119.4)
(-144866 -3015.8 137.743 34416.6 10354.9 94306.2)
(-70046.1 -6358.92 440.296 -78510.4 10656.6 -40032)
(-65860.7 6602.21 -426.428 -78923.1 10676.3 -39530)
(-114053 3195.29 -140.926 33569.3 10425.1 94938.9)
(-146459 -3574.05 267.013 44838.3 11022.8 85056.8)
(-81558.6 -4061.65 538.228 -93243.6 10953 -65709.1)
(-77255.6 4299 -534.671 -92998.5 10964.9 -65017.3)
(-115211 3628.94 -273.611 44601.3 11064.7 85657.2)
(-148676 -2431.97 371.444 63606 10581 75694.6)
(-83077.8 -3207.19 601.044 -98659.4 10387.6 -86227.6)
(-78737.9 3305.01 -606.847 -98162 10391.7 -85488.6)
(-116787 2484.74 -380.985 63521.5 10595.8 76205.6)
(-157995 -96.1508 440.284 77706.1 9032.44 67757.2)
(-90563.9 -1942.33 634.029 -102463 8879.03 -105134)
(-86103.4 1907.17 -644.999 -101882 8876.27 -104375)
(-125130 132.345 -451.094 77732.5 9023.49 68228.2)
(-182610 5600.6 455.251 71335.4 6494.3 61958.1)
(-117552 1284.06 628.508 -115110 6453.53 -123744)
(-112920 -1549.93 -640.276 -114422 6446.42 -122967)
(-148463 -5632.5 -465.249 71650.6 6468.74 62429.4)
(-218790 15927 390.007 -2836.01 3396.78 73846.8)
(-155556 6814 578.944 -169911 3412.29 -121401)
(-150650 -7507.46 -586.658 -168258 3404.94 -120590)
(-182985 -16062.8 -396.605 110.992 3367.74 74397)
(-149980 21010.2 288.844 -154551 1217.55 240243)
(-9881.3 9878.12 564.375 -236219 1131.24 85700.8)
(-5374.61 -9603.09 -559.143 -229178 1128.2 85560.8)
(-113974 -20666.8 -287.577 -135356 1204.85 238796)
(-140898 5847.96 2.7743 109087 3051.47 94884.6)
(-30102.8 -13296.4 74.063 -38965.3 3294.69 -8295.38)
(-27889.6 12781.3 -69.3202 -41395.4 3303 -8856.52)
(-112769 -4859.32 -2.97655 100399 3082.03 93749.5)
(-143698 -2938.29 37.1608 33886.1 3488.44 92779)
(-69982 -6273.31 129.026 -78293.4 3561.15 -39925.9)
(-65810.8 6504.38 -124.207 -78704.6 3567.74 -39421.6)
(-112969 3112.45 -37.9245 33049 3511.8 93432)
(-145366 -3499.59 75.9752 44297.3 3713.2 84044.3)
(-81511.1 -4011.33 157.999 -92796.7 3678.95 -64810.4)
(-77222.6 4238.64 -156.528 -92555.3 3683 -64118.8)
(-114202 3550.92 -77.8409 44057.4 3727.54 84658.6)
(-147648 -2378.12 107.498 63014.1 3566.68 75394.2)
(-83100.3 -3178.35 176.232 -98067.3 3500.68 -84508.2)
(-78774 3269.61 -178.019 -97575.7 3502.14 -83771.2)
(-115838 2428.74 -110.407 62921.7 3572.14 75912.3)
(-156981 -70.4789 127.939 77091.9 3027.52 68188.9)
(-90604.4 -1934.37 185.335 -101791 2979.63 -102654)
(-86156 1895.54 -189.078 -101216 2978.87 -101898)
(-124187 105.809 -131.374 77109.5 3025.19 68661.2)
(-181517 5579.97 131.858 70768.6 2151.76 63051.2)
(-117481 1262.46 183.252 -114406 2144.27 -120618)
(-112858 -1530.49 -187.438 -113722 2142.1 -119845)
(-147427 -5611.85 -135.113 71077.5 2143.99 63518.5)
(-217532 15837.4 111.346 -2906.12 1113.64 75248.6)
(-155279 6756.48 168.64 -168903 1127.69 -118030)
(-150380 -7451.59 -171.595 -167252 1125.43 -117224)
(-181765 -15972.7 -113.555 37.4538 1104.66 75788.1)
(-149211 20888.4 78.0888 -153445 393.326 240485)
(-10489 9813.58 163.5 -234532 373.313 87641.3)
(-5985.56 -9539.14 -162.406 -227494 372.384 87496.5)
(-113228 -20544.4 -77.8432 -134261 389.398 239018)
)
;

boundaryField
{
    interface
    {
        type            calculated;
        value           nonuniform List<symmTensor> 
192
(
(-39.2356 0.347021 2.65568 954488 39860.7 275874)
(-40.893 0.354921 4.3121 600335 6550.73 219336)
(-42.5787 0.111468 4.94684 593344 884.376 222723)
(-43.7156 -0.329594 5.14615 620405 2082.97 231621)
(-44.1322 -0.726673 5.12797 641562 5694.18 240605)
(-45.124 -1.4206 5.01727 640670 12390.7 249692)
(-43.6056 -1.95294 4.65172 554424 22255.6 254531)
(-47.2502 -4.42893 4.37149 263552 26052.2 263899)
(-38.2589 0.250595 1.3011 694500 6725.56 509061)
(-38.9939 0.281879 2.25946 512447 8804.88 422739)
(-40.0204 0.072717 2.55748 500941 7432.51 419577)
(-40.7851 -0.372697 2.59949 511510 7891.9 432354)
(-40.9188 -0.788405 2.51908 527292 12737 448862)
(-41.7766 -1.54986 2.39048 538272 20704.8 467337)
(-39.9626 -2.13709 2.154 488455 26892.2 487330)
(-43.6791 -4.73121 1.9686 254822 22384.1 554906)
(-40.7802 0.215118 1.01848 562551 16741.5 509946)
(-41.4218 0.245387 1.74434 443553 20206 467084)
(-42.4304 0.0444069 1.96468 447948 18727.7 459748)
(-43.2081 -0.418788 1.98987 463677 17717.9 466877)
(-43.2691 -0.868885 1.92203 485020 19900.3 481226)
(-44.0526 -1.71002 1.81769 506370 23006.6 502042)
(-41.8052 -2.37939 1.64858 470264 21580.6 536750)
(-45.2784 -5.14126 1.50915 250760 12898.5 642534)
(-41.0096 0.16179 0.616144 496494 20118.7 474680)
(-41.4699 0.169295 1.1163 395427 24334.8 451270)
(-42.2682 -0.0337742 1.26093 408495 24077.8 444140)
(-42.9196 -0.498752 1.26404 432287 22630.9 445977)
(-42.854 -0.962818 1.20292 460367 21861.4 456883)
(-43.5531 -1.83672 1.12026 486428 20169.8 479881)
(-41.1467 -2.54196 1.01406 453366 14544.7 525915)
(-44.5381 -5.34091 0.932575 242486 6777.01 647491)
(-41.7831 0.135821 0.447961 462052 18382.6 446974)
(-42.1932 0.121145 0.811593 366997 22045.3 429089)
(-42.8963 -0.0919781 0.917924 382994 22860.1 423686)
(-43.4925 -0.563446 0.919801 411350 21704.4 423997)
(-43.3477 -1.04298 0.874594 443448 19490.3 433936)
(-43.9702 -1.94495 0.813136 471136 15629.5 459440)
(-41.3946 -2.68283 0.739445 438968 9382.36 511574)
(-44.636 -5.52052 0.681407 235091 3763.35 636384)
(-41.9959 0.115555 0.271051 443643 14284.2 429754)
(-42.359 0.0819493 0.508533 351560 16786.2 413059)
(-42.9794 -0.140449 0.578728 368348 17775.6 409258)
(-43.5219 -0.615915 0.578411 398331 17009.4 410262)
(-43.3172 -1.10389 0.546951 431957 14747.5 420995)
(-43.8905 -2.01951 0.505409 460085 10966.8 448494)
(-41.2341 -2.77406 0.46036 428718 5963.74 503094)
(-44.4136 -5.63011 0.426759 230030 2216.32 627113)
(-42.2518 0.105566 0.158299 434072 8970.91 420091)
(-42.5988 0.0589629 0.296716 343665 10354.9 403554)
(-43.1756 -0.17118 0.337984 360615 11022.8 400833)
(-43.6885 -0.650524 0.337937 390903 10581 402992)
(-43.4466 -1.14501 0.319782 424834 9032.44 414885)
(-43.9836 -2.07009 0.29525 453017 6494.3 443640)
(-41.2644 -2.83635 0.269877 422332 3396.78 499015)
(-44.3879 -5.70646 0.24976 226963 1217.55 621757)
(-42.3168 0.0994532 0.0465373 429968 3051.47 415766)
(-42.6521 0.0461123 0.090606 340332 3488.44 399225)
(-43.2047 -0.1876 0.103941 357291 3713.2 397038)
(-43.7009 -0.668087 0.10374 387542 3566.68 399922)
(-43.4423 -1.16512 0.0977971 421440 3027.52 412537)
(-43.962 -2.09353 0.0897644 449599 2151.76 441881)
(-41.2236 -2.86512 0.0822695 419285 1113.64 497440)
(-44.3187 -5.74091 0.0759948 225512 393.326 619441)
(298621 34448.2 -3.68378 969721 -0.896173 -13.7259)
(230880 773.156 -6.29292 611371 -1.11214 -9.73752)
(233879 -4803.55 -7.4221 604543 -0.980626 -5.71105)
(247736 -3379.11 -7.87617 633168 -0.745812 -3.93814)
(260363 -335.968 -8.05058 655375 -0.639915 -3.4014)
(267627 5604.68 -8.19097 653891 -0.677865 -3.91175)
(265731 15788.7 -8.37104 565624 -0.820928 -5.67379)
(271861 20461.1 -9.23453 272982 -1.02671 -7.13979)
(556363 -4978.26 -2.1542 804076 -0.53572 -17.4675)
(433314 -5497.57 -4.14446 573697 -0.862346 -16.5897)
(426161 -5388.49 -4.9384 541832 -0.802166 -15.1964)
(447772 -4213.03 -5.22622 540632 -0.535915 -14.6547)
(470555 -2132.4 -5.33929 547477 -0.346439 -14.4599)
(484074 1690.39 -5.49252 549618 -0.24026 -14.6641)
(486637 7499.01 -5.83753 493991 -0.258188 -15.2272)
(542105 9987.49 -6.96524 263213 -0.33169 -15.5226)
(547774 3207.3 -2.12065 789237 -0.393747 -14.6828)
(426477 5066.77 -4.12709 561886 -0.715497 -14.0247)
(418949 5329.2 -4.95502 530073 -0.681621 -12.7137)
(440218 4168.73 -5.26202 528606 -0.389203 -12.1583)
(462804 2028.8 -5.37408 535189 -0.141779 -11.9816)
(476139 -1964.46 -5.50202 537177 0.0636865 -12.1807)
(478554 -8126.6 -5.79761 482283 0.172271 -12.8105)
(534469 -9625.3 -6.88794 257887 0.190992 -13.5556)
(297714 -33747.4 -2.28707 925018 -0.322385 -14.909)
(233150 -812.202 -4.64212 578712 -0.627841 -14.5386)
(235533 4754.73 -5.68661 571090 -0.594853 -13.3837)
(249046 3370.99 -6.0931 598589 -0.27793 -12.9403)
(261621 316.823 -6.2385 620054 -0.00194577 -12.8739)
(268851 -5694.89 -6.404 618194 0.25078 -13.0783)
(267015 -15972.1 -6.6693 531953 0.432394 -13.5505)
(275169 -20132.3 -7.82434 257882 0.600782 -14.1589)
(-7.38375 0.71696 0.585469 884206 39648.7 235001)
(-4.96772 0.984527 1.19105 539746 6766.98 177455)
(-2.32513 0.776167 1.39639 531960 1034.35 180224)
(-0.891511 0.276978 1.50462 557576 2127.86 188302)
(-0.310276 -0.0060212 1.59463 577495 5660.6 196453)
(1.19825 -0.400821 1.84525 575777 12287.9 204809)
(0.804203 -0.373486 2.06268 491084 22070.2 208986)
(9.23919 -2.53738 2.66548 216328 25868.9 216485)
(-11.195 0.286819 -0.319061 627144 7790.74 452263)
(-10.7368 0.451833 -0.336355 453024 9338.71 367047)
(-9.90358 0.362245 -0.425639 441439 7721.92 362904)
(-9.28605 0.0756289 -0.443241 450933 8001.81 374318)
(-9.04895 -0.00372333 -0.385003 465401 12684.7 389421)
(-7.531 -0.228181 -0.162814 475159 20509.9 406500)
(-7.52965 0.0196834 0.124601 426336 26601.1 425191)
(0.839199 -1.96386 0.56406 209133 22201.9 491100)
(-11.4706 0.159318 -0.196534 497801 17306.7 453310)
(-11.1454 0.24576 -0.127529 385770 20557.2 410918)
(-10.5019 0.206873 -0.0998767 389967 18930.5 402601)
(-9.86597 0.0321566 -0.0455249 404651 17787.3 408321)
(-9.5489 0.0760507 0.044118 424586 19835 421086)
(-7.70037 -0.0483181 0.229994 444409 22825.7 440173)
(-7.40039 0.311824 0.427171 408852 21353.4 473082)
(1.44692 -1.74128 0.683145 205310 12788.2 576611)
(-12.7443 0.0714741 -0.21046 433493 20464 419493)
(-12.6287 0.100772 -0.148152 339086 24561.3 396335)
(-12.2958 0.0973262 -0.0976705 351849 24207.1 388218)
(-11.7513 0.0168911 -0.0363961 374530 22668.3 388660)
(-11.4156 0.164337 0.0411869 401100 21806 397897)
(-9.35052 0.131035 0.174852 425441 20038.7 418945)
(-8.74078 0.563334 0.30505 392613 14394.3 462775)
(0.317323 -1.48282 0.460018 197244 6710 581629)
(-13.0314 0.0562043 -0.092691 400212 18624.2 392848)
(-12.9092 0.0658864 0.000377266 311647 22209.6 375163)
(-12.6138 0.0811436 0.0785953 327287 22951.7 368742)
(-12.0253 0.0467836 0.14532 354477 21729.3 367642)
(-11.6178 0.246385 0.208756 384983 19452.8 375846)
(-9.40397 0.253262 0.293933 410827 15544.8 399251)
(-8.66524 0.70366 0.360506 378699 9288.27 448927)
(0.493651 -1.37994 0.432128 190045 3722.08 570723)
(-13.4446 0.0511341 -0.0623056 382533 14447 376281)
(-13.3267 0.0552322 0.010723 296818 16902.9 359775)
(-13.0576 0.0839243 0.0759179 313213 17842.4 354928)
(-12.4453 0.0778722 0.126937 341991 17029.9 354487)
(-11.9915 0.310125 0.171018 373969 14727 363428)
(-9.68271 0.341794 0.223584 400173 10916.8 388730)
(-8.84916 0.798917 0.260547 368732 5908.06 440723)
(0.384533 -1.30388 0.298383 185096 2191.95 561554)
(-13.5656 0.0543664 -0.0210037 373392 9064.64 366991)
(-13.4321 0.0592671 0.0297886 289274 10425.1 350643)
(-13.152 0.0953 0.0736068 305804 11064.7 346860)
(-12.5109 0.102036 0.105646 334861 10595.8 347546)
(-12.024 0.349064 0.131451 367110 9023.49 357606)
(-9.66237 0.390342 0.15882 393323 6468.74 384102)
(-8.79002 0.84717 0.175677 362499 3367.74 436785)
(0.480984 -1.27288 0.190608 182088 1204.85 556241)
(-13.6682 0.0551085 -0.010277 369485 3082.03 362836)
(-13.5321 0.0610379 0.00564363 286102 3511.8 346485)
(-13.2494 0.101022 0.0202152 302628 3727.54 343229)
(-12.5968 0.113994 0.0307667 331635 3572.14 344625)
(-12.0933 0.367952 0.0393637 363834 3025.19 355386)
(-9.70651 0.414172 0.0482055 390001 2143.99 382442)
(-8.80769 0.870909 0.0540775 359517 1104.66 435268)
(0.479306 -1.256 0.058861 180659 389.398 553938)
(272630 9.33579 -20415 -6.51617 -0.869477 274099)
(266558 8.51153 -15725.6 -4.74167 -0.661491 566658)
(268968 8.39893 -5773.03 -2.32102 -0.454771 656189)
(263721 8.36671 -668.394 -0.8557 -0.301244 662066)
(255935 8.41444 656.78 0.284146 -0.213761 650876)
(249415 8.44485 585.576 1.07933 -0.133117 641167)
(245237 8.47553 288.844 1.58356 -0.0792239 635460)
(243282 8.48853 78.0888 1.82529 -0.0242531 632978)
(542851 7.02984 -9962.75 -15.0246 -0.140053 264452)
(487848 5.90701 -7462.1 -14.5898 -0.0574623 495575)
(486750 5.57419 -1885.99 -13.6306 0.0429278 552457)
(477528 5.44413 1126.82 -12.9603 0.0674683 552085)
(463519 5.41025 1611.1 -12.3781 0.0666551 545830)
(451335 5.38961 1120.13 -11.958 0.0546963 541511)
(443320 5.38651 564.375 -11.6819 0.0338129 538902)
(439512 5.38388 163.5 -11.5378 0.0125097 537642)
(535111 6.95145 9603.17 -13.0892 0.402689 258964)
(479615 5.8494 8084.53 -12.2022 0.398272 483687)
(478603 5.55661 2160.04 -11.1836 0.378011 539740)
(469475 5.45559 -1021.8 -10.5218 0.309481 539371)
(455497 5.43625 -1568.56 -9.93084 0.244816 533155)
(443321 5.42412 -1103.87 -9.5426 0.172244 528851)
(435307 5.42487 -559.143 -9.27401 0.102963 526243)
(431500 5.42327 -162.406 -9.15132 0.0339546 524982)
(275596 7.85098 20096.1 -13.7468 0.817341 258466)
(267542 6.68118 15921 -13.0405 0.665779 532416)
(269920 6.4113 5883.24 -12.2872 0.566294 619641)
(264711 6.27855 710.594 -11.7622 0.445616 625458)
(256880 6.25306 -642.47 -11.2459 0.347663 614311)
(250321 6.23172 -581.095 -10.9286 0.240557 604606)
(246118 6.23011 -287.577 -10.6957 0.144632 598889)
(244153 6.2271 -77.8432 -10.5909 0.0471965 596399)
)
;
    }
    symmetry
    {
        type            symmetry;
    }
    bottom
    {
        type            calculated;
        value           nonuniform List<symmTensor> 
32
(
(-725256 96213.3 -12302 229658 92301.6 -732770)
(-519415 62962.4 -9718.81 67894 -1844.38 -253254)
(-434943 40306.1 -4093.08 10081.4 6856.72 -143839)
(-396559 30574.6 -1082.69 -9811.63 14417.7 -124550)
(-377283 27140.5 -137.788 -18320.3 15423.9 -122361)
(-366617 25946.7 26.0725 -22008.5 12803.6 -122316)
(-360597 25465.8 16.921 -23316 8292.74 -122192)
(-357815 25270.1 2.7743 -23641.9 2856.89 -122032)
(-253895 -1861.34 -5283.07 151890 84711.6 -545717)
(-136839 -8773.89 -3278.53 -10269.5 15631.6 -142558)
(-91077.3 -15562.1 -613.137 -49392.2 25077.3 -59189.7)
(-74763.1 -17895.8 637.211 -55571.7 25726.2 -47151)
(-69855.5 -17909.5 753.286 -57355.1 21096 -45887.9)
(-68695.5 -17402.5 500.812 -58565.8 15401.3 -46052.3)
(-68435.5 -17013.8 252.084 -59172.4 9405.06 -46355.3)
(-68346.8 -16833.7 74.063 -59353.6 3168.97 -46539.4)
(-247059 -1343.98 4934.24 150389 84171.7 -535576)
(-133305 7005.44 3588.17 -13007.5 16117.5 -141495)
(-87879.8 13967.3 740.701 -51893.5 25324.4 -59033.7)
(-71674 16250.3 -577.477 -57998.5 25849.8 -47022.9)
(-66842.3 16216 -716.283 -59751.4 21173 -45743.9)
(-65729.8 15679.1 -476.382 -60937.2 15452 -45902.1)
(-65496.5 15273 -237.775 -61525.7 9434.4 -46203.1)
(-65419.8 15084.9 -69.3202 -61697.5 3178.61 -46386.6)
(-668875 -94261 12052.7 232393 90909.6 -690776)
(-473274 -60445.1 9803.01 66030 -526.962 -237793)
(-390966 -37853.9 4104.89 8500.34 7594.73 -131242)
(-353750 -28272.5 1073.77 -11262.8 14848.4 -112326)
(-335234 -24945.3 130.777 -19669.9 15711.5 -110275)
(-325025 -23816.2 -29.2233 -23253.9 12992.9 -110305)
(-319262 -23371.8 -17.9311 -24483.7 8400.66 -110220)
(-316596 -23192.5 -2.97655 -24769.9 2891.95 -110077)
)
;
    }
}


// ************************************************************************* //
