/*--------------------------------*- C++ -*----------------------------------*\
| =========                 |                                                 |
| \\      /  F ield         | OpenFOAM: The Open Source CFD Toolbox           |
|  \\    /   O peration     | Version:  v1912                                 |
|   \\  /    A nd           | Website:  www.openfoam.com                      |
|    \\/     M anipulation  |                                                 |
\*---------------------------------------------------------------------------*/
FoamFile
{
    version     2.0;
    format      ascii;
    class       volVectorField;
    location    "0.85/solid";
    object      U;
}
// * * * * * * * * * * * * * * * * * * * * * * * * * * * * * * * * * * * * * //

dimensions      [0 1 -1 0 0 0 0];


internalField   nonuniform List<vector> 
256
(
(1.95974e-08 2.10482e-08 2.48544e-08)
(4.67549e-09 1.38146e-08 2.41145e-08)
(-6.323e-09 1.31967e-08 2.3304e-08)
(-1.92727e-08 1.89608e-08 2.24337e-08)
(3.71272e-08 1.9025e-08 5.9337e-08)
(9.6096e-09 1.23092e-08 5.80296e-08)
(-1.34271e-08 1.20961e-08 5.63556e-08)
(-3.81427e-08 1.87068e-08 5.42905e-08)
(4.12583e-08 3.01091e-09 8.43247e-08)
(1.02901e-08 -3.97605e-11 8.23186e-08)
(-1.66023e-08 4.11559e-10 8.01379e-08)
(-4.46956e-08 4.79802e-09 7.77365e-08)
(4.0439e-08 -1.59474e-08 1.05176e-07)
(8.80141e-09 -1.71087e-08 1.0225e-07)
(-1.84046e-08 -1.59958e-08 9.9707e-08)
(-4.71253e-08 -1.22518e-08 9.7486e-08)
(3.98847e-08 -3.67596e-08 1.25338e-07)
(7.12721e-09 -3.79445e-08 1.21391e-07)
(-2.08985e-08 -3.62028e-08 1.1854e-07)
(-5.06775e-08 -3.12726e-08 1.16717e-07)
(4.29567e-08 -6.22024e-08 1.46802e-07)
(6.60563e-09 -6.37089e-08 1.42038e-07)
(-2.54837e-08 -6.13349e-08 1.38894e-07)
(-5.87788e-08 -5.49091e-08 1.37299e-07)
(5.104e-08 -9.87368e-08 1.69098e-07)
(7.60322e-09 -9.86556e-08 1.64595e-07)
(-3.26757e-08 -9.55549e-08 1.61157e-07)
(-7.28554e-08 -8.93535e-08 1.58729e-07)
(5.88194e-08 -1.45766e-07 1.85406e-07)
(8.1831e-09 -1.42354e-07 1.82556e-07)
(-4.07433e-08 -1.38174e-07 1.78871e-07)
(-8.76239e-08 -1.33162e-07 1.74353e-07)
(1.33232e-08 7.81114e-09 1.11626e-08)
(3.07905e-09 1.58094e-09 1.22238e-08)
(-3.75922e-09 1.37874e-09 1.18578e-08)
(-1.23029e-08 6.63134e-09 1.00836e-08)
(2.60306e-08 4.37188e-10 3.46188e-08)
(6.64795e-09 -5.25912e-09 3.67197e-08)
(-8.14417e-09 -5.12674e-09 3.57157e-08)
(-2.51544e-08 7.84189e-10 3.16974e-08)
(2.88582e-08 -1.44496e-08 5.63128e-08)
(7.11821e-09 -1.69759e-08 5.8568e-08)
(-1.01215e-08 -1.63173e-08 5.71155e-08)
(-2.94835e-08 -1.23226e-08 5.20682e-08)
(2.77465e-08 -3.16585e-08 7.57961e-08)
(5.80076e-09 -3.264e-08 7.77497e-08)
(-1.13229e-08 -3.14043e-08 7.59686e-08)
(-3.08939e-08 -2.78048e-08 7.05576e-08)
(2.70886e-08 -5.0684e-08 9.42996e-08)
(4.33956e-09 -5.19529e-08 9.5758e-08)
(-1.33889e-08 -5.01344e-08 9.36977e-08)
(-3.37276e-08 -4.51328e-08 8.82113e-08)
(3.0425e-08 -7.29706e-08 1.12536e-07)
(4.10394e-09 -7.48079e-08 1.13466e-07)
(-1.77014e-08 -7.23956e-08 1.11146e-07)
(-4.15402e-08 -6.56963e-08 1.05659e-07)
(3.99564e-08 -1.03394e-07 1.28969e-07)
(5.6629e-09 -1.03367e-07 1.29564e-07)
(-2.4962e-08 -1.00301e-07 1.2702e-07)
(-5.65439e-08 -9.41986e-08 1.21402e-07)
(5.03865e-08 -1.43498e-07 1.38386e-07)
(6.93181e-09 -1.38386e-07 1.38886e-07)
(-3.33097e-08 -1.34383e-07 1.36247e-07)
(-7.3471e-08 -1.31398e-07 1.30491e-07)
(7.57779e-09 2.61206e-09 5.60157e-09)
(1.45857e-09 -2.15046e-09 7.27246e-09)
(-1.68776e-09 -2.30583e-09 7.02435e-09)
(-6.17916e-09 1.39853e-09 4.89486e-09)
(1.54411e-08 -8.96233e-09 2.16012e-08)
(3.47024e-09 -1.34104e-08 2.48462e-08)
(-3.65319e-09 -1.32493e-08 2.41532e-08)
(-1.33867e-08 -8.75967e-09 1.9634e-08)
(1.70577e-08 -2.47474e-08 3.94078e-08)
(3.63694e-09 -2.67946e-08 4.30726e-08)
(-4.53788e-09 -2.61535e-08 4.2025e-08)
(-1.57518e-08 -2.28681e-08 3.64037e-08)
(1.58765e-08 -4.10884e-08 5.67565e-08)
(2.48041e-09 -4.20757e-08 6.03202e-08)
(-5.21035e-09 -4.08994e-08 5.89878e-08)
(-1.64287e-08 -3.75616e-08 5.28938e-08)
(1.53624e-08 -5.78656e-08 7.30042e-08)
(1.24881e-09 -5.93978e-08 7.62709e-08)
(-6.91436e-09 -5.76708e-08 7.46911e-08)
(-1.88262e-08 -5.26999e-08 6.83867e-08)
(1.90874e-08 -7.62418e-08 8.75297e-08)
(1.30251e-09 -7.84864e-08 9.04153e-08)
(-1.10089e-08 -7.61991e-08 8.86149e-08)
(-2.65131e-08 -6.94196e-08 8.22339e-08)
(2.95939e-08 -1.00982e-07 9.83461e-08)
(3.33162e-09 -1.01246e-07 1.00798e-07)
(-1.82994e-08 -9.83516e-08 9.88345e-08)
(-4.20222e-08 -9.23378e-08 9.2521e-08)
(4.14652e-08 -1.35253e-07 1.01874e-07)
(5.12242e-09 -1.2981e-07 1.03949e-07)
(-2.67649e-08 -1.26025e-07 1.01963e-07)
(-5.99433e-08 -1.23806e-07 9.59034e-08)
(4.61445e-09 4.78237e-10 4.20905e-09)
(6.32915e-10 -3.17527e-09 5.45012e-09)
(-6.44208e-10 -3.36094e-09 5.2658e-09)
(-2.98465e-09 -9.02037e-10 3.69686e-09)
(9.91941e-09 -1.27917e-08 1.62546e-08)
(1.81402e-09 -1.63451e-08 1.86301e-08)
(-1.25612e-09 -1.62711e-08 1.81306e-08)
(-7.12232e-09 -1.29495e-08 1.48599e-08)
(1.10487e-08 -2.93024e-08 3.03553e-08)
(1.90287e-09 -3.10712e-08 3.29997e-08)
(-1.49183e-09 -3.05486e-08 3.22372e-08)
(-8.44687e-09 -2.78689e-08 2.81948e-08)
(1.01587e-08 -4.51672e-08 4.46747e-08)
(1.00152e-09 -4.62566e-08 4.71959e-08)
(-1.8625e-09 -4.522e-08 4.62061e-08)
(-8.8706e-09 -4.21312e-08 4.18302e-08)
(1.00973e-08 -6.01678e-08 5.79411e-08)
(7.95732e-11 -6.19668e-08 6.02009e-08)
(-3.36957e-09 -6.03973e-08 5.90073e-08)
(-1.12179e-08 -5.55251e-08 5.44731e-08)
(1.42735e-08 -7.5661e-08 6.89124e-08)
(4.1422e-10 -7.82498e-08 7.08763e-08)
(-7.29923e-09 -7.61371e-08 6.95053e-08)
(-1.89026e-08 -6.93924e-08 6.48921e-08)
(2.51314e-08 -9.68998e-08 7.58086e-08)
(2.67297e-09 -9.7617e-08 7.74753e-08)
(-1.44253e-08 -9.49111e-08 7.59841e-08)
(-3.43514e-08 -8.88328e-08 7.13826e-08)
(3.7239e-08 -1.2809e-07 7.6683e-08)
(4.6587e-09 -1.23318e-07 7.8188e-08)
(-2.27152e-08 -1.19723e-07 7.66959e-08)
(-5.21224e-08 -1.17218e-07 7.21782e-08)
(3.50404e-09 -3.36566e-10 3.55205e-09)
(3.83534e-10 -3.41823e-09 4.20957e-09)
(-2.79707e-10 -3.63553e-09 4.07677e-09)
(-1.73021e-09 -1.85116e-09 3.18886e-09)
(7.94021e-09 -1.39598e-08 1.27751e-08)
(1.34692e-09 -1.70889e-08 1.39882e-08)
(-3.52685e-10 -1.71096e-08 1.36343e-08)
(-4.67604e-09 -1.44446e-08 1.17994e-08)
(9.10203e-09 -3.05432e-08 2.34258e-08)
(1.54315e-09 -3.22538e-08 2.47036e-08)
(-3.03456e-10 -3.18603e-08 2.41625e-08)
(-5.65184e-09 -2.95351e-08 2.19084e-08)
(8.63676e-09 -4.5967e-08 3.43364e-08)
(9.20159e-10 -4.72198e-08 3.54531e-08)
(-5.35516e-10 -4.63295e-08 3.47433e-08)
(-6.09137e-09 -4.34017e-08 3.23124e-08)
(9.06747e-09 -5.98383e-08 4.43233e-08)
(2.97512e-10 -6.18732e-08 4.52098e-08)
(-1.93852e-09 -6.04599e-08 4.43445e-08)
(-8.52954e-09 -5.5687e-08 4.18227e-08)
(1.35976e-08 -7.37352e-08 5.21636e-08)
(8.57007e-10 -7.65776e-08 5.28357e-08)
(-5.72322e-09 -7.46269e-08 5.18357e-08)
(-1.61943e-08 -6.79644e-08 4.92397e-08)
(2.44897e-08 -9.33258e-08 5.65662e-08)
(3.20865e-09 -9.44223e-08 5.70807e-08)
(-1.26077e-08 -9.1877e-08 5.59926e-08)
(-3.13345e-08 -8.57456e-08 5.33376e-08)
(3.64327e-08 -1.23154e-07 5.66354e-08)
(5.24727e-09 -1.19112e-07 5.71389e-08)
(-2.06393e-08 -1.15667e-07 5.60542e-08)
(-4.86224e-08 -1.12736e-07 5.33538e-08)
(3.17453e-09 -6.08199e-10 2.74943e-09)
(3.64972e-10 -3.45012e-09 3.03599e-09)
(-1.98292e-10 -3.69021e-09 2.94711e-09)
(-1.31339e-09 -2.21385e-09 2.50896e-09)
(7.46542e-09 -1.40546e-08 9.3613e-09)
(1.36938e-09 -1.70493e-08 9.84853e-09)
(-1.16118e-10 -1.71419e-08 9.61302e-09)
(-3.91361e-09 -1.47769e-08 8.71829e-09)
(8.84022e-09 -3.03367e-08 1.67873e-08)
(1.72533e-09 -3.2106e-08 1.72341e-08)
(3.05777e-11 -3.18153e-08 1.68737e-08)
(-4.85224e-09 -2.96543e-08 1.57851e-08)
(8.75165e-09 -4.53267e-08 2.43416e-08)
(1.3329e-09 -4.67457e-08 2.46385e-08)
(-1.41536e-10 -4.59738e-08 2.41631e-08)
(-5.3835e-09 -4.31315e-08 2.29946e-08)
(9.5618e-09 -5.8561e-08 3.1173e-08)
(9.39217e-10 -6.07784e-08 3.1297e-08)
(-1.47762e-09 -5.94905e-08 3.07134e-08)
(-7.90717e-09 -5.47966e-08 2.94944e-08)
(1.4321e-08 -7.17438e-08 3.63759e-08)
(1.65713e-09 -7.47527e-08 3.63614e-08)
(-5.13881e-09 -7.2928e-08 3.56838e-08)
(-1.55175e-08 -6.6358e-08 3.44e-08)
(2.51627e-08 -9.07032e-08 3.91309e-08)
(4.05434e-09 -9.20381e-08 3.90425e-08)
(-1.18088e-08 -8.96134e-08 3.83037e-08)
(-3.03436e-08 -8.34892e-08 3.69411e-08)
(3.69092e-08 -1.1992e-07 3.90403e-08)
(6.11064e-09 -1.16363e-07 3.89821e-08)
(-1.96189e-08 -1.13028e-07 3.82464e-08)
(-4.71921e-08 -1.09835e-07 3.68134e-08)
(3.09378e-09 -6.73075e-10 1.73637e-09)
(3.94386e-10 -3.42478e-09 1.8446e-09)
(-1.94893e-10 -3.67928e-09 1.79378e-09)
(-1.18328e-09 -2.33456e-09 1.59978e-09)
(7.42753e-09 -1.3839e-08 5.72592e-09)
(1.48074e-09 -1.68152e-08 5.88578e-09)
(-8.22307e-11 -1.6954e-08 5.75128e-09)
(-3.71015e-09 -1.47108e-08 5.36103e-09)
(8.99388e-09 -2.97701e-08 1.01046e-08)
(1.96304e-09 -3.1618e-08 1.02101e-08)
(9.28464e-11 -3.13951e-08 1.0004e-08)
(-4.68952e-09 -2.92996e-08 9.53479e-09)
(9.16062e-09 -4.44184e-08 1.4514e-08)
(1.72424e-09 -4.59623e-08 1.45191e-08)
(-5.09281e-11 -4.52702e-08 1.42462e-08)
(-5.29753e-09 -4.24697e-08 1.37446e-08)
(1.0209e-08 -5.73233e-08 1.84636e-08)
(1.4768e-09 -5.96608e-08 1.83648e-08)
(-1.34101e-09 -5.84574e-08 1.80285e-08)
(-7.86867e-09 -5.38184e-08 1.74996e-08)
(1.51004e-08 -7.02385e-08 2.14255e-08)
(2.29423e-09 -7.33443e-08 2.12508e-08)
(-4.91318e-09 -7.16037e-08 2.0859e-08)
(-1.54224e-08 -6.51098e-08 2.02856e-08)
(2.5897e-08 -8.89967e-08 2.29552e-08)
(4.72083e-09 -9.0458e-08 2.27488e-08)
(-1.14362e-08 -8.81128e-08 2.23209e-08)
(-3.00256e-08 -8.20248e-08 2.16882e-08)
(3.75084e-08 -1.17928e-07 2.28759e-08)
(6.7885e-09 -1.14633e-07 2.26946e-08)
(-1.90966e-08 -1.11369e-07 2.22685e-08)
(-4.65758e-08 -1.08062e-07 2.15863e-08)
(3.07679e-09 -6.77372e-10 5.92879e-10)
(4.14087e-10 -3.39927e-09 6.19987e-10)
(-2.00647e-10 -3.66075e-09 6.03471e-10)
(-1.14406e-09 -2.36541e-09 5.48641e-10)
(7.4527e-09 -1.36628e-08 1.92699e-09)
(1.54815e-09 -1.66457e-08 1.96163e-09)
(-8.45234e-11 -1.68069e-08 1.91792e-09)
(-3.65973e-09 -1.46065e-08 1.8088e-09)
(9.11995e-09 -2.93809e-08 3.37324e-09)
(2.09507e-09 -3.12766e-08 3.38562e-09)
(9.85421e-11 -3.10871e-08 3.3186e-09)
(-4.66911e-09 -2.90139e-08 3.18842e-09)
(9.41082e-09 -4.38448e-08 4.82027e-09)
(1.93088e-09 -4.54535e-08 4.79795e-09)
(-3.2458e-11 -4.4801e-08 4.70907e-09)
(-5.31542e-09 -4.20178e-08 4.57017e-09)
(1.05712e-08 -5.66104e-08 6.10976e-09)
(1.75337e-09 -5.90065e-08 6.05313e-09)
(-1.29818e-09 -5.78452e-08 5.94337e-09)
(-7.90501e-09 -5.32345e-08 5.79561e-09)
(1.55231e-08 -6.94443e-08 7.07073e-09)
(2.61889e-09 -7.25941e-08 6.99007e-09)
(-4.82436e-09 -7.08954e-08 6.86197e-09)
(-1.54252e-08 -6.44435e-08 6.69838e-09)
(2.62977e-08 -8.81513e-08 7.56284e-09)
(5.0615e-09 -8.96657e-08 7.47332e-09)
(-1.12745e-08 -8.73599e-08 7.33328e-09)
(-2.99172e-08 -8.12996e-08 7.14832e-09)
(3.78439e-08 -1.16967e-07 7.53396e-09)
(7.13591e-09 -1.13781e-07 7.45331e-09)
(-1.88609e-08 -1.10553e-07 7.31384e-09)
(-4.63204e-08 -1.0721e-07 7.11186e-09)
)
;

boundaryField
{
    interface
    {
        type            calculated;
        value           nonuniform List<vector> 
192
(
(2.42135e-08 3.52294e-08 2.28865e-08)
(4.20643e-08 2.44402e-08 5.58564e-08)
(4.65315e-08 3.83878e-09 8.0526e-08)
(4.6093e-08 -1.62908e-08 1.01433e-07)
(4.56825e-08 -3.61302e-08 1.21731e-07)
(4.84901e-08 -5.94136e-08 1.43419e-07)
(5.66376e-08 -9.47712e-08 1.66153e-07)
(6.4655e-08 -1.43741e-07 1.8307e-07)
(1.58827e-08 1.76496e-08 8.15776e-09)
(2.93853e-08 4.32091e-09 2.91974e-08)
(3.24149e-08 -1.40207e-08 5.02627e-08)
(3.1429e-08 -3.2101e-08 6.96555e-08)
(3.07538e-08 -5.00144e-08 8.8169e-08)
(3.38553e-08 -6.97537e-08 1.06569e-07)
(4.3963e-08 -9.84037e-08 1.23607e-07)
(5.60748e-08 -1.40874e-07 1.34047e-07)
(8.74369e-09 8.36679e-09 3.42444e-09)
(1.75905e-08 -6.59239e-09 1.75735e-08)
(1.94763e-08 -2.46386e-08 3.49555e-08)
(1.84349e-08 -4.15124e-08 5.23596e-08)
(1.79841e-08 -5.7063e-08 6.87565e-08)
(2.16934e-08 -7.2684e-08 8.34919e-08)
(3.31206e-08 -9.5388e-08 9.46399e-08)
(4.72208e-08 -1.32203e-07 9.85875e-08)
(5.1338e-09 4.11171e-09 3.19064e-09)
(1.16745e-08 -1.11832e-08 1.43794e-08)
(1.31721e-08 -2.92427e-08 2.83664e-08)
(1.24945e-08 -4.54051e-08 4.28648e-08)
(1.26135e-08 -5.91392e-08 5.63674e-08)
(1.69808e-08 -7.19025e-08 6.754e-08)
(2.90118e-08 -9.11584e-08 7.45325e-08)
(4.34649e-08 -1.2485e-07 7.54249e-08)
(3.66319e-09 2.5245e-09 3.19209e-09)
(9.38748e-09 -1.25603e-08 1.21617e-08)
(1.09751e-08 -3.03692e-08 2.28737e-08)
(1.07893e-08 -4.59757e-08 3.39847e-08)
(1.14945e-08 -5.85981e-08 4.41894e-08)
(1.63518e-08 -6.98797e-08 5.21754e-08)
(2.85601e-08 -8.76171e-08 5.6574e-08)
(4.28434e-08 -1.19847e-07 5.6553e-08)
(3.15522e-09 2.0518e-09 2.64688e-09)
(8.71446e-09 -1.26382e-08 9.23316e-09)
(1.05462e-08 -3.00153e-08 1.67603e-08)
(1.07873e-08 -4.51464e-08 2.44726e-08)
(1.19388e-08 -5.71688e-08 3.14584e-08)
(1.71081e-08 -6.78437e-08 3.67516e-08)
(2.93387e-08 -8.50562e-08 3.94828e-08)
(4.3382e-08 -1.16597e-07 3.93092e-08)
(3.00224e-09 1.95726e-09 1.71194e-09)
(8.5802e-09 -1.2364e-08 5.72276e-09)
(1.06204e-08 -2.93369e-08 1.01745e-08)
(1.11495e-08 -4.41147e-08 1.46788e-08)
(1.25809e-08 -5.58385e-08 1.8716e-08)
(1.79291e-08 -6.63166e-08 2.17261e-08)
(3.01488e-08 -8.33947e-08 2.3239e-08)
(4.40172e-08 -1.14607e-07 2.31096e-08)
(2.96271e-09 1.95501e-09 5.88635e-10)
(8.56993e-09 -1.21521e-08 1.93328e-09)
(1.07188e-08 -2.88915e-08 3.40477e-09)
(1.13879e-08 -4.34821e-08 4.88282e-09)
(1.29509e-08 -5.50824e-08 6.20031e-09)
(1.83806e-08 -6.55127e-08 7.17642e-09)
(3.05918e-08 -8.25711e-08 7.66302e-09)
(4.43734e-08 -1.13649e-07 7.61784e-09)
(2.03962e-08 4.20961e-08 2.70397e-08)
(3.85404e-08 3.38926e-08 6.14996e-08)
(4.26558e-08 1.44707e-08 8.68185e-08)
(4.1579e-08 -5.6939e-09 1.08131e-07)
(4.07015e-08 -2.63529e-08 1.28459e-07)
(4.34572e-08 -5.12625e-08 1.49506e-07)
(5.13865e-08 -8.90858e-08 1.71449e-07)
(5.92749e-08 -1.40707e-07 1.87509e-07)
(4.28776e-09 3.43506e-08 2.52881e-08)
(8.864e-09 2.68602e-08 5.88799e-08)
(9.24315e-09 1.10155e-08 8.29566e-08)
(7.43402e-09 -7.34049e-09 1.0285e-07)
(5.42753e-09 -2.79974e-08 1.21761e-07)
(4.62847e-09 -5.29078e-08 1.4172e-07)
(5.61803e-09 -8.85261e-08 1.64176e-07)
(6.54922e-09 -1.37028e-07 1.83284e-07)
(-6.74339e-09 3.31116e-08 2.34855e-08)
(-1.43622e-08 2.63046e-08 5.63824e-08)
(-1.77481e-08 1.12495e-08 7.99463e-08)
(-1.95959e-08 -6.39509e-09 9.94432e-08)
(-2.20673e-08 -2.64059e-08 1.18016e-07)
(-2.66686e-08 -5.06805e-08 1.37655e-07)
(-3.41425e-08 -8.55607e-08 1.59791e-07)
(-4.27943e-08 -1.32901e-07 1.78572e-07)
(-2.07249e-08 3.81418e-08 2.1658e-08)
(-4.09965e-08 3.25325e-08 5.37528e-08)
(-4.80322e-08 1.5597e-08 7.74426e-08)
(-5.05717e-08 -2.50661e-09 9.75463e-08)
(-5.4111e-08 -2.13191e-08 1.16854e-07)
(-6.2184e-08 -4.44059e-08 1.36952e-07)
(-7.63839e-08 -8.00901e-08 1.57973e-07)
(-9.14891e-08 -1.28248e-07 1.73245e-07)
(-1.78747e-08 3.33146e-08 1.9965e-08)
(-3.70996e-08 2.50625e-08 4.96162e-08)
(-4.38727e-08 7.0438e-09 7.22649e-08)
(-4.65374e-08 -1.07561e-08 9.17047e-08)
(-5.00835e-08 -2.83591e-08 1.10762e-07)
(-5.77574e-08 -4.93644e-08 1.31287e-07)
(-7.16254e-08 -8.2142e-08 1.52886e-07)
(-8.61744e-08 -1.27403e-07 1.68882e-07)
(-9.24523e-09 1.59956e-08 6.81016e-09)
(-2.29699e-08 5.07936e-09 2.55083e-08)
(-2.74406e-08 -1.08876e-08 4.48322e-08)
(-2.88691e-08 -2.67437e-08 6.28833e-08)
(-3.15584e-08 -4.24711e-08 8.02484e-08)
(-3.89861e-08 -5.9992e-08 9.75928e-08)
(-5.42762e-08 -8.62158e-08 1.13694e-07)
(-7.2282e-08 -1.25258e-07 1.23571e-07)
(-1.90796e-09 6.28997e-09 2.56526e-09)
(-1.02112e-08 -6.36648e-09 1.51259e-08)
(-1.28031e-08 -2.21075e-08 3.11444e-08)
(-1.35271e-08 -3.67929e-08 4.73878e-08)
(-1.58659e-08 -5.01787e-08 6.27591e-08)
(-2.3375e-08 -6.36204e-08 7.65744e-08)
(-3.94978e-08 -8.39801e-08 8.69728e-08)
(-5.90239e-08 -1.17462e-07 9.05661e-08)
(1.87097e-09 1.62469e-09 2.58458e-09)
(-3.62886e-09 -1.1584e-08 1.26821e-08)
(-5.29228e-09 -2.74318e-08 2.56697e-08)
(-5.84114e-09 -4.14384e-08 3.92458e-08)
(-8.24505e-09 -5.3017e-08 5.18988e-08)
(-1.59513e-08 -6.36088e-08 6.23122e-08)
(-3.22535e-08 -8.05277e-08 6.87105e-08)
(-5.17459e-08 -1.10876e-07 6.93479e-08)
(3.45846e-09 -2.49611e-10 2.771e-09)
(-9.11085e-10 -1.34642e-08 1.09972e-08)
(-2.2889e-09 -2.91812e-08 2.10096e-08)
(-2.92534e-09 -4.26822e-08 3.14405e-08)
(-5.51504e-09 -5.31611e-08 4.09949e-08)
(-1.33317e-08 -6.2263e-08 4.83933e-08)
(-2.94596e-08 -7.76384e-08 5.23355e-08)
(-4.84653e-08 -1.06484e-07 5.21212e-08)
(4.03911e-09 -9.07111e-10 2.3722e-09)
(3.02711e-11 -1.38922e-08 8.47676e-09)
(-1.34454e-09 -2.92868e-08 1.55445e-08)
(-2.12627e-09 -4.23677e-08 2.2796e-08)
(-4.86828e-09 -5.22629e-08 2.93291e-08)
(-1.27101e-08 -6.07487e-08 3.42069e-08)
(-2.8592e-08 -7.55704e-08 3.66139e-08)
(-4.71164e-08 -1.03686e-07 3.63017e-08)
(4.23406e-09 -1.11122e-09 1.55743e-09)
(3.2111e-10 -1.38342e-08 5.29752e-09)
(-1.10986e-09 -2.89027e-08 9.48897e-09)
(-2.00552e-09 -4.16748e-08 1.37275e-08)
(-4.83691e-09 -5.1287e-08 1.7499e-08)
(-1.26671e-08 -5.95704e-08 2.02625e-08)
(-2.83583e-08 -7.42363e-08 2.15816e-08)
(-4.65461e-08 -1.01994e-07 2.13684e-08)
(4.29288e-09 -1.16448e-09 5.38829e-10)
(4.04308e-10 -1.37252e-08 1.79618e-09)
(-1.0657e-09 -2.85999e-08 3.18331e-09)
(-2.0164e-09 -4.12087e-08 4.57463e-09)
(-4.88596e-09 -5.07069e-08 5.80468e-09)
(-1.27027e-08 -5.89403e-08 6.69909e-09)
(-2.82956e-08 -7.35757e-08 7.1212e-09)
(-4.63157e-08 -1.01184e-07 7.04801e-09)
(5.89788e-08 -1.47969e-07 1.87368e-07)
(5.04209e-08 -1.46029e-07 1.35758e-07)
(4.16293e-08 -1.38271e-07 9.80223e-08)
(3.76661e-08 -1.31771e-07 7.36582e-08)
(3.70759e-08 -1.27079e-07 5.45927e-08)
(3.76815e-08 -1.23912e-07 3.77338e-08)
(3.83451e-08 -1.21951e-07 2.21377e-08)
(3.87063e-08 -1.21008e-07 7.29375e-09)
(6.28509e-09 -1.43179e-07 1.84227e-07)
(4.65301e-09 -1.38141e-07 1.3575e-07)
(2.81535e-09 -1.29783e-07 1.00182e-07)
(2.56675e-09 -1.24168e-07 7.55135e-08)
(3.37543e-09 -1.20445e-07 5.54002e-08)
(4.38769e-09 -1.17933e-07 3.78622e-08)
(5.14874e-09 -1.16325e-07 2.2049e-08)
(5.53236e-09 -1.1553e-07 7.24046e-09)
(-4.30414e-08 -1.3796e-07 1.8056e-07)
(-3.50569e-08 -1.33166e-07 1.33209e-07)
(-2.8266e-08 -1.25037e-07 9.82975e-08)
(-2.42405e-08 -1.19613e-07 7.41064e-08)
(-2.22336e-08 -1.16039e-07 5.43805e-08)
(-2.12511e-08 -1.13635e-07 3.71719e-08)
(-2.07394e-08 -1.12097e-07 2.16498e-08)
(-2.0504e-08 -1.11336e-07 7.10984e-09)
(-9.17562e-08 -1.32126e-07 1.76369e-07)
(-7.72877e-08 -1.30757e-07 1.28152e-07)
(-6.36703e-08 -1.23655e-07 9.23583e-08)
(-5.59201e-08 -1.17726e-07 6.94105e-08)
(-5.24816e-08 -1.1348e-07 5.15083e-08)
(-5.10652e-08 -1.10638e-07 3.56451e-08)
(-5.04372e-08 -1.08888e-07 2.09299e-08)
(-5.01697e-08 -1.08049e-07 6.89867e-09)
)
;
    }
    symmetry
    {
        type            symmetry;
    }
    bottom
    {
        type            calculated;
        value           uniform (0 0 0);
    }
}


// ************************************************************************* //
