/*--------------------------------*- C++ -*----------------------------------*\
| =========                 |                                                 |
| \\      /  F ield         | OpenFOAM: The Open Source CFD Toolbox           |
|  \\    /   O peration     | Version:  v1912                                 |
|   \\  /    A nd           | Website:  www.openfoam.com                      |
|    \\/     M anipulation  |                                                 |
\*---------------------------------------------------------------------------*/
FoamFile
{
    version     2.0;
    format      ascii;
    class       volVectorField;
    location    "0.24/solid";
    object      D;
}
// * * * * * * * * * * * * * * * * * * * * * * * * * * * * * * * * * * * * * //

dimensions      [0 1 0 0 0 0 0];


internalField   nonuniform List<vector> 
256
(
(9.99581e-09 2.23708e-08 1.02362e-08)
(-6.23984e-11 1.35375e-08 1.00514e-08)
(7.58265e-10 1.3425e-08 1.02089e-08)
(-9.28845e-09 2.1836e-08 1.08197e-08)
(1.50102e-08 1.91964e-08 1.50219e-08)
(1.82667e-09 1.47014e-08 1.4839e-08)
(5.04965e-10 1.42953e-08 1.52615e-08)
(-1.26719e-08 1.77481e-08 1.64266e-08)
(1.58294e-08 1.65086e-08 1.47777e-08)
(2.82717e-09 1.47433e-08 1.45309e-08)
(1.47209e-09 1.40437e-08 1.51429e-08)
(-1.15389e-08 1.42248e-08 1.67428e-08)
(1.64395e-08 1.60679e-08 1.3308e-08)
(3.65574e-09 1.51409e-08 1.3146e-08)
(2.95251e-09 1.41733e-08 1.3893e-08)
(-9.85096e-09 1.30275e-08 1.56754e-08)
(1.74876e-08 1.70899e-08 1.15238e-08)
(4.70383e-09 1.63235e-08 1.16154e-08)
(4.5502e-09 1.51071e-08 1.24659e-08)
(-8.25652e-09 1.33466e-08 1.42018e-08)
(1.84976e-08 1.93323e-08 9.60463e-09)
(5.80695e-09 1.85246e-08 1.00254e-08)
(6.42717e-09 1.70662e-08 1.09629e-08)
(-6.298e-09 1.49106e-08 1.25413e-08)
(1.88834e-08 2.18883e-08 7.73937e-09)
(6.77914e-09 2.07158e-08 8.40689e-09)
(8.77088e-09 1.90221e-08 9.4263e-09)
(-3.44023e-09 1.67938e-08 1.09097e-08)
(1.93897e-08 8.55838e-09 7.10428e-09)
(7.8501e-09 7.17119e-09 7.75577e-09)
(1.13085e-08 5.35617e-09 8.84822e-09)
(-5.07287e-10 3.00018e-09 1.04679e-08)
(9.73079e-09 1.27441e-08 -1.03348e-09)
(1.58678e-11 4.73626e-09 -1.03279e-09)
(3.56472e-10 4.58852e-09 -8.62029e-10)
(-9.22467e-09 1.21632e-08 -5.2669e-10)
(1.48752e-08 1.41091e-08 5.42669e-10)
(1.83412e-09 9.86205e-09 5.68264e-10)
(-2.80184e-10 9.39249e-09 9.81818e-10)
(-1.31557e-08 1.25711e-08 1.75116e-09)
(1.5605e-08 1.4669e-08 6.21028e-10)
(2.72087e-09 1.29251e-08 7.04074e-10)
(4.56546e-10 1.21746e-08 1.28795e-09)
(-1.22739e-08 1.23221e-08 2.32842e-09)
(1.60817e-08 1.56895e-08 -6.70762e-10)
(3.43244e-09 1.47412e-08 -4.84675e-10)
(1.78309e-09 1.37401e-08 2.23653e-10)
(-1.07165e-08 1.26177e-08 1.4094e-09)
(1.71116e-08 1.72229e-08 -2.54851e-09)
(4.39711e-09 1.64175e-08 -2.2356e-09)
(3.24746e-09 1.51806e-08 -1.42903e-09)
(-9.31251e-09 1.34705e-08 -1.71426e-10)
(1.82713e-08 1.92919e-08 -4.53918e-09)
(5.47265e-09 1.84468e-08 -4.11785e-09)
(4.97475e-09 1.69785e-08 -3.22861e-09)
(-7.67398e-09 1.48802e-08 -1.91282e-09)
(1.89388e-08 2.09523e-08 -6.07736e-09)
(6.46584e-09 1.97531e-08 -5.60908e-09)
(7.15098e-09 1.80676e-08 -4.65336e-09)
(-5.24419e-09 1.59048e-08 -3.24926e-09)
(1.9681e-08 7.1677e-09 -6.2328e-09)
(7.56713e-09 5.74035e-09 -5.77626e-09)
(9.54365e-09 3.97608e-09 -4.79231e-09)
(-2.68194e-09 1.7458e-09 -3.31058e-09)
(9.39736e-09 1.02278e-08 -7.32943e-10)
(8.40188e-11 2.74525e-09 -8.47026e-10)
(1.044e-10 2.61017e-09 -7.21142e-10)
(-9.06248e-09 9.74701e-09 -3.72931e-10)
(1.48477e-08 1.12745e-08 -4.65179e-10)
(1.87251e-09 7.21895e-09 -5.74646e-10)
(-8.43005e-10 6.77057e-09 -2.6091e-10)
(-1.36175e-08 9.87262e-09 4.29054e-10)
(1.56774e-08 1.25224e-08 -4.34939e-10)
(2.6881e-09 1.08235e-08 -4.7711e-10)
(-3.31223e-10 1.00991e-08 -2.57027e-11)
(-1.31219e-08 1.03153e-08 8.62373e-10)
(1.6064e-08 1.42019e-08 -1.25894e-09)
(3.29971e-09 1.32848e-08 -1.21382e-09)
(8.46032e-10 1.23138e-08 -6.5611e-10)
(-1.17174e-08 1.12678e-08 3.5838e-10)
(1.70095e-08 1.59715e-08 -2.61505e-09)
(4.18207e-09 1.51903e-08 -2.48818e-09)
(2.18651e-09 1.39868e-08 -1.84331e-09)
(-1.04296e-08 1.23543e-08 -7.32605e-10)
(1.81969e-08 1.77473e-08 -3.93868e-09)
(5.23026e-09 1.6907e-08 -3.7614e-09)
(3.77206e-09 1.54769e-08 -3.04412e-09)
(-8.98385e-09 1.34735e-08 -1.83485e-09)
(1.90529e-08 1.8647e-08 -4.53004e-09)
(6.25851e-09 1.74739e-08 -4.34565e-09)
(5.77506e-09 1.58351e-08 -3.57671e-09)
(-6.88045e-09 1.37497e-08 -2.26196e-09)
(2.01002e-08 4.58946e-09 -3.70766e-09)
(7.40055e-09 3.37216e-09 -3.55617e-09)
(8.01175e-09 1.66378e-09 -2.77612e-09)
(-4.74285e-09 -6.7143e-10 -1.38687e-09)
(8.95445e-09 9.55098e-09 -3.56767e-10)
(6.87414e-11 2.38851e-09 -4.25159e-10)
(2.16673e-11 2.27097e-09 -3.35203e-10)
(-8.75029e-09 9.16558e-09 -1.00246e-10)
(1.43874e-08 9.9846e-09 -5.36443e-10)
(1.78145e-09 6.06729e-09 -5.70826e-10)
(-1.08243e-09 5.66223e-09 -3.42528e-10)
(-1.35203e-08 8.75272e-09 1.12222e-10)
(1.52981e-08 1.08884e-08 -6.97554e-10)
(2.53902e-09 9.24511e-09 -6.63869e-10)
(-7.45449e-10 8.57367e-09 -3.30377e-10)
(-1.33281e-08 8.87153e-09 2.59118e-10)
(1.56371e-08 1.24478e-08 -1.23589e-09)
(3.07005e-09 1.1581e-08 -1.12915e-09)
(3.01153e-10 1.06648e-08 -7.10591e-10)
(-1.20808e-08 9.70195e-09 -2.22739e-11)
(1.64692e-08 1.40704e-08 -2.05828e-09)
(3.86388e-09 1.33352e-08 -1.88186e-09)
(1.54798e-09 1.2186e-08 -1.39129e-09)
(-1.08579e-08 1.06328e-08 -6.24197e-10)
(1.75866e-08 1.55287e-08 -2.73085e-09)
(4.85543e-09 1.4718e-08 -2.50616e-09)
(3.03749e-09 1.33419e-08 -1.95603e-09)
(-9.49246e-09 1.14263e-08 -1.11227e-09)
(1.85218e-08 1.6008e-08 -2.67611e-09)
(5.88794e-09 1.49039e-08 -2.44094e-09)
(4.90947e-09 1.33181e-08 -1.85066e-09)
(-7.59335e-09 1.12735e-08 -9.25627e-10)
(1.97898e-08 2.0859e-09 -1.47364e-09)
(7.0498e-09 1.14758e-09 -1.28493e-09)
(7.01892e-09 -5.12654e-10 -6.89163e-10)
(-5.78283e-09 -3.03123e-09 3.12936e-10)
(8.58049e-09 9.19436e-09 -2.14283e-10)
(1.39471e-11 2.24323e-09 -2.2948e-10)
(2.0866e-11 2.14027e-09 -1.66334e-10)
(-8.46434e-09 8.88071e-09 -3.50312e-11)
(1.38245e-08 9.25399e-09 -4.99258e-10)
(1.61787e-09 5.45415e-09 -4.4949e-10)
(-1.12793e-09 5.08889e-09 -2.87917e-10)
(-1.32055e-08 8.16456e-09 -4.21602e-11)
(1.47234e-08 9.70659e-09 -7.50288e-10)
(2.30957e-09 8.12559e-09 -6.30548e-10)
(-8.95164e-10 7.50571e-09 -3.92297e-10)
(-1.31645e-08 7.86068e-09 -6.90993e-11)
(1.5018e-08 1.08734e-08 -1.1201e-09)
(2.77241e-09 1.00606e-08 -9.37791e-10)
(5.41969e-11 9.19895e-09 -6.35541e-10)
(-1.20325e-08 8.30312e-09 -2.45349e-10)
(1.57526e-08 1.21728e-08 -1.55938e-09)
(3.48805e-09 1.14877e-08 -1.31839e-09)
(1.22971e-09 1.03922e-08 -9.60626e-10)
(-1.08585e-08 8.9041e-09 -5.13868e-10)
(1.67884e-08 1.33521e-08 -1.78874e-09)
(4.41858e-09 1.25814e-08 -1.50332e-09)
(2.6511e-09 1.12564e-08 -1.09941e-09)
(-9.53865e-09 9.40749e-09 -5.98849e-10)
(1.77483e-08 1.36382e-08 -1.42706e-09)
(5.43551e-09 1.26077e-08 -1.12837e-09)
(4.42937e-09 1.10688e-08 -6.93887e-10)
(-7.77174e-09 9.04645e-09 -1.34674e-10)
(1.91416e-08 -7.75906e-11 -2.35784e-10)
(6.59597e-09 -7.89262e-10 2.31255e-11)
(6.44752e-09 -2.40929e-09 4.60722e-10)
(-6.17825e-09 -5.07355e-09 1.08295e-09)
(8.32457e-09 8.93951e-09 -1.47914e-10)
(-3.59361e-11 2.12735e-09 -1.42014e-10)
(3.84774e-11 2.03503e-09 -1.00123e-10)
(-8.26359e-09 8.67541e-09 -2.98708e-11)
(1.33813e-08 8.73746e-09 -4.02963e-10)
(1.47122e-09 5.03212e-09 -3.32206e-10)
(-1.11163e-09 4.6967e-09 -2.24599e-10)
(-1.29215e-08 7.75128e-09 -1.00475e-10)
(1.42241e-08 8.84188e-09 -6.33329e-10)
(2.10039e-09 7.31928e-09 -5.02141e-10)
(-9.32534e-10 6.73951e-09 -3.4254e-10)
(-1.29361e-08 7.12554e-09 -1.79397e-10)
(1.44703e-08 9.64046e-09 -8.76894e-10)
(2.50728e-09 8.87586e-09 -6.96186e-10)
(-4.66001e-11 8.05778e-09 -4.92281e-10)
(-1.18711e-08 7.2076e-09 -2.89021e-10)
(1.51333e-08 1.06275e-08 -1.08577e-09)
(3.16326e-09 9.98553e-09 -8.61074e-10)
(1.07607e-09 8.93318e-09 -6.1806e-10)
(-1.07357e-08 7.49309e-09 -3.77271e-10)
(1.6108e-08 1.15898e-08 -1.09306e-09)
(4.04491e-09 1.08548e-08 -8.34826e-10)
(2.44614e-09 9.57053e-09 -5.59015e-10)
(-9.45321e-09 7.77011e-09 -2.81294e-10)
(1.70734e-08 1.17745e-08 -6.76955e-10)
(5.04231e-09 1.0801e-08 -4.07721e-10)
(4.15764e-09 9.29874e-09 -1.10245e-10)
(-7.77675e-09 7.29467e-09 2.08375e-10)
(1.85363e-08 -1.79978e-09 2.93334e-10)
(6.19292e-09 -2.35833e-09 5.35194e-10)
(6.11229e-09 -3.94695e-09 8.34444e-10)
(-6.32571e-09 -6.70099e-09 1.19699e-09)
(8.17239e-09 8.77121e-09 -9.26495e-11)
(-6.76543e-11 2.04279e-09 -8.48244e-11)
(5.24724e-11 1.95732e-09 -6.0902e-11)
(-8.14332e-09 8.53795e-09 -2.56616e-11)
(1.3104e-08 8.38204e-09 -2.61675e-10)
(1.3755e-09 4.74103e-09 -2.10157e-10)
(-1.09153e-09 4.42495e-09 -1.48566e-10)
(-1.27377e-08 7.46171e-09 -8.949e-11)
(1.38948e-08 8.25591e-09 -4.13445e-10)
(1.95944e-09 6.77685e-09 -3.22224e-10)
(-9.3892e-10 6.2236e-09 -2.30541e-10)
(-1.27697e-08 6.62433e-09 -1.5389e-10)
(1.41007e-08 8.80198e-09 -5.50353e-10)
(2.32682e-09 8.07266e-09 -4.27394e-10)
(-9.00198e-11 7.28391e-09 -3.09736e-10)
(-1.17384e-08 6.46098e-09 -2.12354e-10)
(1.4717e-08 9.56897e-09 -6.35873e-10)
(2.94317e-09 8.95725e-09 -4.85899e-10)
(9.9776e-10 7.93428e-09 -3.45043e-10)
(-1.06292e-08 6.52548e-09 -2.2624e-10)
(1.56538e-08 1.03842e-08 -5.80881e-10)
(3.79236e-09 9.67392e-09 -4.10748e-10)
(2.33232e-09 8.41738e-09 -2.50294e-10)
(-9.37566e-09 6.64961e-09 -1.09323e-10)
(1.66203e-08 1.05055e-08 -2.72339e-10)
(4.77459e-09 9.56779e-09 -9.55792e-11)
(3.99956e-09 8.09055e-09 7.78285e-11)
(-7.75874e-09 6.10199e-09 2.4354e-10)
(1.81228e-08 -2.99371e-09 3.54465e-10)
(5.91601e-09 -3.46177e-09 5.15527e-10)
(5.91273e-09 -5.02889e-09 6.8984e-10)
(-6.39777e-09 -7.82993e-09 8.81183e-10)
(8.10234e-09 8.68785e-09 -3.20032e-11)
(-8.22614e-11 1.99855e-09 -2.89504e-11)
(5.92714e-11 1.91644e-09 -2.11745e-11)
(-8.08787e-09 8.46934e-09 -1.03017e-11)
(1.29745e-08 8.19903e-09 -9.07069e-11)
(1.33054e-09 4.58995e-09 -7.26329e-11)
(-1.08118e-09 4.28332e-09 -5.25894e-11)
(-1.26516e-08 7.31058e-09 -3.48394e-11)
(1.37375e-08 7.95726e-09 -1.42831e-10)
(1.89172e-09 6.50092e-09 -1.11101e-10)
(-9.39911e-10 5.96075e-09 -8.12106e-11)
(-1.26887e-08 6.36727e-09 -5.84267e-11)
(1.39213e-08 8.37853e-09 -1.86681e-10)
(2.2389e-09 7.66761e-09 -1.44065e-10)
(-1.08063e-10 6.89347e-09 -1.0562e-10)
(-1.16714e-08 6.08317e-09 -7.64624e-11)
(1.45145e-08 9.0357e-09 -2.08809e-10)
(2.83554e-09 8.43939e-09 -1.57109e-10)
(9.62462e-10 7.43115e-09 -1.10979e-10)
(-1.05752e-08 6.03781e-09 -7.48526e-11)
(1.54333e-08 9.77698e-09 -1.8105e-10)
(3.66871e-09 9.07901e-09 -1.22684e-10)
(2.2788e-09 7.83645e-09 -7.00361e-11)
(-9.33733e-09 6.08534e-09 -2.64658e-11)
(1.64002e-08 9.86521e-09 -6.88153e-11)
(4.643e-09 8.94439e-09 -8.30053e-12)
(3.92374e-09 7.47981e-09 4.86587e-11)
(-7.75054e-09 5.50041e-09 1.00573e-10)
(1.79215e-08 -3.60283e-09 1.47297e-10)
(5.77944e-09 -4.02951e-09 2.02696e-10)
(5.81605e-09 -5.58571e-09 2.59932e-10)
(-6.43421e-09 -8.40605e-09 3.20274e-10)
)
;

boundaryField
{
    interface
    {
        type            solidTraction;
        traction        nonuniform List<vector> 
192
(
(62.5394 -0.255958 -4.00651)
(64.5124 -0.021382 -5.8004)
(65.3882 0.329336 -6.06848)
(66.0244 0.707824 -6.02026)
(65.9058 1.04004 -5.81922)
(66.6138 1.70277 -5.56256)
(64.5678 2.1521 -5.00986)
(67.8862 4.55639 -4.54807)
(60.537 -0.144125 -2.07397)
(61.5479 0.0887269 -3.15843)
(62.0577 0.422815 -3.27395)
(62.5437 0.831431 -3.19477)
(62.2883 1.19944 -3.0241)
(63.0408 1.94928 -2.81939)
(60.8115 2.45188 -2.46178)
(64.5867 5.0237 -2.16167)
(63.6297 -0.118567 -1.68376)
(64.5536 0.135074 -2.5419)
(65.0617 0.492619 -2.63218)
(65.5465 0.949241 -2.56668)
(65.1534 1.37193 -2.42833)
(65.8005 2.22069 -2.25855)
(63.0489 2.8096 -1.98251)
(66.6576 5.58665 -1.73338)
(63.6221 -0.0729539 -1.07796)
(64.3518 0.199472 -1.67977)
(64.7372 0.568569 -1.73698)
(65.1601 1.04933 -1.6803)
(64.6808 1.50031 -1.57445)
(65.3026 2.39574 -1.44789)
(62.4013 3.02215 -1.26438)
(66.0653 5.86606 -1.10084)
(64.5079 -0.0559303 -0.805413)
(65.1866 0.235742 -1.25032)
(65.517 0.623419 -1.2935)
(65.9082 1.12805 -1.25117)
(65.3527 1.6066 -1.1726)
(65.9104 2.54151 -1.07682)
(62.8144 3.20381 -0.944029)
(66.3841 6.1064 -0.820956)
(64.6367 -0.0396581 -0.508934)
(65.2619 0.265971 -0.803245)
(65.5417 0.665785 -0.831405)
(65.9041 1.18483 -0.801612)
(65.3053 1.67964 -0.748595)
(65.8378 2.63612 -0.684432)
(62.6604 3.31776 -0.600079)
(66.2206 6.25202 -0.522192)
(64.9204 -0.0329288 -0.300807)
(65.5305 0.282589 -0.473373)
(65.7858 0.692285 -0.490305)
(66.1319 1.22189 -0.472878)
(65.5012 1.72853 -0.442084)
(66.0052 2.69967 -0.403926)
(62.756 3.39508 -0.355384)
(66.281 6.35126 -0.308513)
(64.9626 -0.0280283 -0.0934473)
(65.5582 0.292027 -0.149663)
(65.7991 0.705824 -0.155095)
(66.1363 1.23976 -0.149146)
(65.4949 1.75167 -0.139134)
(65.9885 2.72876 -0.126615)
(62.7205 3.4307 -0.111546)
(66.2305 6.39646 -0.0963668)
(6.14661 0.813839 26.5252)
(9.15821 0.741915 21.4425)
(9.68382 0.460439 19.196)
(9.72065 0.339169 18.9579)
(9.6256 0.300763 19.8066)
(9.54193 0.367962 21.5075)
(9.39596 0.427681 24.3598)
(9.74649 0.623612 27.0882)
(4.5028 0.388222 34.5869)
(7.19953 0.395088 33.544)
(7.6018 0.214949 33.053)
(7.59927 0.101474 33.0644)
(7.54267 0.0287492 33.391)
(7.53395 0.00409921 33.9882)
(7.55793 0.00147696 34.8437)
(8.09969 0.0636068 35.5602)
(4.81275 0.209883 30.9009)
(7.65869 0.203556 30.1597)
(8.1151 0.0687682 29.7401)
(8.1157 -0.0543954 29.7283)
(8.03201 -0.156935 30.0806)
(7.96497 -0.249206 30.6344)
(7.89411 -0.316513 31.5946)
(8.33138 -0.334906 32.5957)
(5.6443 0.13357 31.7215)
(8.91193 0.0976762 31.2782)
(9.46143 -0.0318363 30.9688)
(9.47287 -0.170735 30.955)
(9.3507 -0.289223 31.2268)
(9.23938 -0.425272 31.5208)
(9.02533 -0.533776 32.1432)
(9.42599 -0.677618 32.7413)
(-12.5602 0.84453 2.64091)
(-7.57996 0.529239 4.07093)
(-5.56779 -0.108541 4.26423)
(-4.86254 -0.618456 4.23924)
(-5.46647 -0.959056 4.13924)
(-4.89749 -1.53353 4.12833)
(-7.49119 -1.61882 3.91738)
(2.10007 -4.10706 4.15269)
(-22.7665 0.26001 0.676843)
(-21.7363 0.0462571 1.36622)
(-21.2898 -0.330848 1.39244)
(-20.7672 -0.716511 1.34352)
(-20.9177 -0.956111 1.30655)
(-19.1417 -1.48295 1.3782)
(-20.1209 -1.33 1.3901)
(-7.40465 -3.87696 1.68494)
(-22.4373 0.120098 0.901571)
(-21.6211 -0.105824 1.59451)
(-21.1626 -0.41765 1.67624)
(-20.4994 -0.784909 1.6523)
(-20.5135 -1.00031 1.61062)
(-18.2793 -1.53858 1.62213)
(-19.0205 -1.31383 1.5665)
(-4.63966 -4.08843 1.63159)
(-24.7011 0.0375579 0.568421)
(-24.2085 -0.200147 1.09333)
(-23.9004 -0.479456 1.15972)
(-23.1711 -0.824104 1.14094)
(-23.0181 -1.00517 1.10798)
(-20.2886 -1.52807 1.11189)
(-20.5927 -1.23333 1.07281)
(-4.88448 -4.1034 1.11007)
(-24.8646 0.0244524 0.517139)
(-24.3802 -0.227451 0.929461)
(-24.0512 -0.508579 0.98944)
(-23.2381 -0.85608 0.977863)
(-23.0005 -1.03124 0.949193)
(-20.0314 -1.55872 0.936248)
(-20.2021 -1.24056 0.888965)
(-3.74369 -4.20427 0.87744)
(-25.4578 0.016994 0.336687)
(-24.9982 -0.243768 0.616393)
(-24.6617 -0.527776 0.658593)
(-23.7883 -0.877043 0.650836)
(-23.4716 -1.04676 0.631484)
(-20.3003 -1.57361 0.620975)
(-20.3232 -1.23642 0.589918)
(-3.30215 -4.25542 0.579806)
(-25.5555 0.0171076 0.211899)
(-25.0875 -0.249562 0.377541)
(-24.7314 -0.53801 0.403327)
(-23.8168 -0.891007 0.398939)
(-23.4576 -1.06056 0.387442)
(-20.182 -1.5895 0.378662)
(-20.1444 -1.24434 0.358968)
(-2.80373 -4.30135 0.346904)
(-25.6892 0.0159299 0.065677)
(-25.2237 -0.253169 0.119851)
(-24.8595 -0.543199 0.128291)
(-23.9253 -0.897337 0.126699)
(-23.5392 -1.06662 0.123133)
(-20.2095 -1.59532 0.120153)
(-20.1242 -1.24643 0.114653)
(-2.62963 -4.32087 0.110508)
(9.76172 -26.8791 -0.584272)
(9.42163 -24.0244 -0.388658)
(9.58324 -20.9381 -0.313462)
(9.69142 -18.8682 -0.210664)
(9.82502 -17.3389 -0.168842)
(9.90685 -16.2346 -0.107609)
(9.96876 -15.559 -0.0676376)
(9.99686 -15.2231 -0.0210189)
(8.10636 -35.3727 -0.0170621)
(7.56804 -34.568 0.0441521)
(7.54733 -33.5509 0.0573179)
(7.55701 -32.7458 0.0606785)
(7.60626 -32.107 0.0437764)
(7.63473 -31.615 0.0349555)
(7.66143 -31.3076 0.0195394)
(7.67322 -31.1379 0.00769873)
(8.3364 -32.4084 0.386134)
(7.89929 -31.3114 0.367288)
(7.97193 -30.1828 0.316139)
(8.04141 -29.4093 0.248152)
(8.12653 -28.7381 0.18824)
(8.17811 -28.2777 0.130578)
(8.21798 -27.9681 0.0763477)
(8.23544 -27.8218 0.0252385)
(9.42086 -32.5638 0.730313)
(9.01965 -31.8752 0.586342)
(9.23554 -31.1108 0.492178)
(9.3547 -30.6439 0.375611)
(9.49239 -30.1426 0.289516)
(9.57368 -29.8408 0.198148)
(9.63487 -29.6094 0.11838)
(9.66225 -29.5021 0.0388664)
)
;
        pressure        uniform 0;
        secondOrder     false;
        setEffectiveTraction false;
        relaxationFactor 1;
        value           nonuniform List<vector> 
192
(
(6.82336e-08 2.86222e-08 1.0177e-08)
(7.03623e-08 2.06547e-08 1.50051e-08)
(7.22283e-08 1.6866e-08 1.47416e-08)
(7.43379e-08 1.64826e-08 1.32133e-08)
(7.74695e-08 1.76046e-08 1.13809e-08)
(8.17152e-08 1.96815e-08 9.45683e-09)
(8.6663e-08 2.21117e-08 7.64445e-09)
(9.07314e-08 8.96039e-09 7.09074e-09)
(6.16703e-08 1.88956e-08 -1.18343e-09)
(6.48103e-08 1.55776e-08 5.01528e-10)
(6.63129e-08 1.49706e-08 5.82487e-10)
(6.81634e-08 1.60663e-08 -7.65181e-10)
(7.13134e-08 1.77705e-08 -2.66853e-09)
(7.59391e-08 1.9749e-08 -4.61482e-09)
(8.17858e-08 2.13051e-08 -6.0354e-09)
(8.74661e-08 7.65511e-09 -6.05554e-09)
(5.56212e-08 1.6289e-08 -9.27306e-10)
(5.98565e-08 1.28446e-08 -5.87562e-10)
(6.14677e-08 1.28265e-08 -5.12111e-10)
(6.31477e-08 1.45351e-08 -1.37049e-09)
(6.61299e-08 1.6505e-08 -2.77604e-09)
(7.07097e-08 1.82585e-08 -4.11022e-09)
(7.67362e-08 1.91233e-08 -4.6346e-09)
(8.33381e-08 5.1437e-09 -3.68075e-09)
(5.16872e-08 1.53864e-08 -5.61162e-10)
(5.61102e-08 1.15705e-08 -7.92518e-10)
(5.78394e-08 1.12009e-08 -9.36341e-10)
(5.94523e-08 1.27408e-08 -1.49765e-09)
(6.22782e-08 1.4558e-08 -2.37277e-09)
(6.67262e-08 1.60423e-08 -3.08322e-09)
(7.27683e-08 1.65593e-08 -3.00247e-09)
(7.98331e-08 2.66728e-09 -1.71346e-09)
(4.92929e-08 1.47956e-08 -3.71888e-10)
(5.35926e-08 1.07898e-08 -7.50978e-10)
(5.53288e-08 1.00051e-08 -1.01901e-09)
(5.68946e-08 1.11309e-08 -1.41203e-09)
(5.9604e-08 1.26156e-08 -1.89354e-09)
(6.39321e-08 1.38515e-08 -2.15858e-09)
(6.99402e-08 1.4227e-08 -1.78932e-09)
(7.72186e-08 5.07864e-10 -5.49287e-10)
(4.78391e-08 1.4366e-08 -2.50026e-10)
(5.19832e-08 1.02124e-08 -5.83228e-10)
(5.36704e-08 9.11421e-09 -8.40612e-10)
(5.51875e-08 9.86798e-09 -1.10637e-09)
(5.78155e-08 1.10372e-08 -1.34479e-09)
(6.20576e-08 1.20753e-08 -1.37682e-09)
(6.80252e-08 1.23822e-08 -9.59042e-10)
(7.54066e-08 -1.21662e-09 3.85455e-11)
(4.70021e-08 1.40903e-08 -1.48258e-10)
(5.10381e-08 9.81269e-09 -3.63452e-10)
(5.26758e-08 8.5052e-09 -5.35165e-10)
(5.41521e-08 9.00774e-09 -6.87678e-10)
(5.67277e-08 9.95753e-09 -7.9066e-10)
(6.09163e-08 1.08604e-08 -7.49618e-10)
(6.6854e-08 1.11233e-08 -4.40697e-10)
(7.4288e-08 -2.4124e-09 2.0072e-10)
(4.66182e-08 1.39571e-08 -4.95316e-11)
(5.06025e-08 9.60786e-09 -1.23086e-10)
(5.22129e-08 8.19405e-09 -1.82182e-10)
(5.36667e-08 8.57298e-09 -2.31553e-10)
(5.62164e-08 9.41399e-09 -2.59472e-10)
(6.03797e-08 1.02489e-08 -2.36194e-10)
(6.63023e-08 1.04878e-08 -1.23856e-10)
(7.37597e-08 -3.02213e-09 9.69701e-11)
(9.98021e-09 2.86854e-08 7.25945e-08)
(1.49744e-08 2.03318e-08 7.45012e-08)
(1.57873e-08 1.60802e-08 7.5303e-08)
(1.6448e-08 1.52545e-08 7.53413e-08)
(1.75836e-08 1.61641e-08 7.56509e-08)
(1.86782e-08 1.83863e-08 7.70078e-08)
(1.90993e-08 2.12633e-08 7.98718e-08)
(1.95609e-08 8.57854e-09 8.32104e-08)
(-6.84468e-11 1.97601e-08 6.86886e-08)
(1.88777e-09 1.58213e-08 7.12128e-08)
(2.91973e-09 1.43201e-08 7.16192e-08)
(3.80324e-09 1.4412e-08 7.16355e-08)
(4.94059e-09 1.55433e-08 7.22915e-08)
(6.14775e-09 1.77225e-08 7.42699e-08)
(7.20211e-09 2.01484e-08 7.80157e-08)
(8.28741e-09 7.19264e-09 8.24354e-08)
(9.51137e-10 1.97927e-08 6.83567e-08)
(9.03124e-10 1.55288e-08 7.1105e-08)
(2.02639e-09 1.37015e-08 7.16828e-08)
(3.5862e-09 1.35041e-08 7.18284e-08)
(5.19812e-09 1.43746e-08 7.25859e-08)
(7.05746e-09 1.63063e-08 7.46504e-08)
(9.39789e-09 1.84933e-08 7.84813e-08)
(1.19879e-08 5.39346e-09 8.30372e-08)
(-9.09393e-09 2.86475e-08 7.18785e-08)
(-1.22005e-08 1.92289e-08 7.45539e-08)
(-1.08806e-08 1.4037e-08 7.58769e-08)
(-9.11e-09 1.23922e-08 7.63006e-08)
(-7.49938e-09 1.25631e-08 7.69122e-08)
(-5.54004e-09 1.40875e-08 7.85195e-08)
(-2.64269e-09 1.62754e-08 8.16098e-08)
(3.9758e-10 3.06192e-09 8.52766e-08)
(-6.6245e-08 2.73262e-08 1.09015e-08)
(-6.66974e-08 1.83108e-08 1.67839e-08)
(-6.6588e-08 1.35195e-08 1.72564e-08)
(-6.63828e-08 1.22068e-08 1.6263e-08)
(-6.68649e-08 1.24582e-08 1.4845e-08)
(-6.81638e-08 1.37062e-08 1.32649e-08)
(-6.99906e-08 1.53459e-08 1.17601e-08)
(-7.10611e-08 1.62794e-09 1.14647e-08)
(-5.95472e-08 1.77583e-08 -5.8306e-10)
(-6.14443e-08 1.33334e-08 1.9878e-09)
(-6.1302e-08 1.17122e-08 2.7244e-09)
(-6.10834e-08 1.18773e-08 1.87623e-09)
(-6.17663e-08 1.27097e-08 3.72074e-10)
(-6.35771e-08 1.38629e-08 -1.24112e-09)
(-6.64033e-08 1.46566e-08 -2.38897e-09)
(-6.92352e-08 5.18159e-10 -2.25141e-09)
(-5.36768e-08 1.5417e-08 -4.91371e-10)
(-5.69634e-08 1.08875e-08 5.20473e-10)
(-5.72074e-08 9.84022e-09 1.12623e-09)
(-5.70542e-08 1.05946e-08 6.9972e-10)
(-5.77606e-08 1.16708e-08 -3.45986e-10)
(-5.96755e-08 1.2586e-08 -1.37996e-09)
(-6.27943e-08 1.26893e-08 -1.67441e-09)
(-6.66238e-08 -1.77508e-09 -6.11377e-10)
(-4.99334e-08 1.47332e-08 -2.49683e-10)
(-5.36277e-08 9.89715e-09 9.39276e-12)
(-5.42053e-08 8.51156e-09 2.69964e-10)
(-5.41849e-08 9.08425e-09 5.67063e-11)
(-5.49087e-08 9.98551e-09 -5.16781e-10)
(-5.68355e-08 1.06099e-08 -9.73378e-10)
(-6.00803e-08 1.03459e-08 -7.02627e-10)
(-6.44437e-08 -4.05644e-09 6.71971e-10)
(-4.76772e-08 1.42982e-08 -1.56615e-10)
(-5.14026e-08 9.33956e-09 -1.91709e-10)
(-5.21458e-08 7.56735e-09 -1.66944e-10)
(-5.22349e-08 7.72649e-09 -2.97607e-10)
(-5.29857e-08 8.28046e-09 -5.44262e-10)
(-5.4916e-08 8.63552e-09 -6.08506e-10)
(-5.82259e-08 8.20614e-09 -8.86779e-11)
(-6.28719e-08 -6.05073e-09 1.21882e-09)
(-4.63126e-08 1.39717e-08 -1.10068e-10)
(-4.99834e-08 8.91937e-09 -2.17307e-10)
(-5.07873e-08 6.86285e-09 -2.77981e-10)
(-5.0941e-08 6.65735e-09 -3.62431e-10)
(-5.17186e-08 6.88845e-09 -4.34492e-10)
(-5.3659e-08 7.03011e-09 -3.21938e-10)
(-5.70079e-08 6.51258e-09 2.05224e-10)
(-6.18152e-08 -7.64567e-09 1.25196e-09)
(-4.55287e-08 1.37582e-08 -6.95556e-11)
(-4.91518e-08 8.61826e-09 -1.56891e-10)
(-4.99743e-08 6.37442e-09 -2.15682e-10)
(-5.01601e-08 5.92571e-09 -2.62204e-10)
(-5.09571e-08 5.9346e-09 -2.66301e-10)
(-5.29094e-08 5.93172e-09 -1.38232e-10)
(-5.62836e-08 5.3573e-09 2.37049e-10)
(-6.11854e-08 -8.75244e-09 9.08364e-10)
(-4.51696e-08 1.36542e-08 -2.41513e-11)
(-4.87691e-08 8.46074e-09 -5.63491e-11)
(-4.95969e-08 6.12213e-09 -7.86635e-11)
(-4.97958e-08 5.55465e-09 -9.32006e-11)
(-5.06026e-08 5.45411e-09 -8.83446e-11)
(-5.25624e-08 5.37891e-09 -3.60296e-11)
(-5.59497e-08 4.77441e-09 9.85428e-11)
(-6.08967e-08 -9.31691e-09 3.29401e-10)
(1.99391e-08 -6.75545e-08 7.46193e-09)
(2.02831e-08 -6.49711e-08 -5.24064e-09)
(2.06832e-08 -6.28264e-08 -2.43726e-09)
(2.03167e-08 -6.20925e-08 -3.0691e-10)
(1.96139e-08 -6.22901e-08 7.3561e-10)
(1.89692e-08 -6.28143e-08 1.02235e-09)
(1.85321e-08 -6.33103e-08 8.05217e-10)
(1.83202e-08 -6.35959e-08 2.99576e-10)
(8.65198e-09 -6.75161e-08 8.1242e-09)
(8.36628e-09 -6.38792e-08 -4.82649e-09)
(8.13322e-09 -6.08964e-08 -2.40797e-09)
(7.70068e-09 -5.95932e-08 -2.44561e-10)
(7.18015e-09 -5.94351e-08 8.99609e-10)
(6.73097e-09 -5.97473e-08 1.20333e-09)
(6.42607e-09 -6.01275e-08 9.33325e-10)
(6.27643e-09 -6.03625e-08 3.44631e-10)
(1.23526e-08 -6.88408e-08 9.21194e-09)
(1.05436e-08 -6.50909e-08 -3.86915e-09)
(9.02396e-09 -6.20496e-08 -1.65389e-09)
(8.06494e-09 -6.07e-08 3.29143e-10)
(7.51993e-09 -6.05035e-08 1.31933e-09)
(7.1993e-09 -6.0786e-08 1.48936e-09)
(7.00612e-09 -6.1146e-08 1.09954e-09)
(6.91154e-09 -6.13707e-08 3.99142e-10)
(7.69371e-10 -7.18128e-08 1.08125e-08)
(-1.50907e-09 -6.89603e-08 -2.39258e-09)
(-3.6057e-09 -6.66654e-08 -1.92533e-10)
(-4.63904e-09 -6.57999e-08 1.41353e-09)
(-5.02203e-09 -6.58859e-08 2.00044e-09)
(-5.16329e-09 -6.63235e-08 1.88611e-09)
(-5.23467e-09 -6.67605e-08 1.30747e-09)
(-5.2721e-09 -6.70162e-08 4.64312e-10)
)
;
        gradient        nonuniform List<vector> 
192
(
(4.65902e-06 5.00116e-07 -4.72962e-09)
(4.42817e-06 1.16672e-07 -1.34213e-09)
(4.51191e-06 2.85917e-08 -2.88424e-09)
(4.63187e-06 3.31742e-08 -7.57404e-09)
(4.79855e-06 4.11743e-08 -1.14346e-08)
(5.05741e-06 2.7938e-08 -1.1824e-08)
(5.42237e-06 1.78708e-08 -7.59385e-09)
(5.70734e-06 3.21605e-08 -1.08335e-09)
(4.15516e-06 4.92119e-07 -1.19966e-08)
(3.9948e-06 1.17486e-07 -3.29125e-09)
(4.05663e-06 2.41336e-08 -3.08326e-09)
(4.16654e-06 3.01425e-08 -7.55355e-09)
(4.33615e-06 4.38087e-08 -9.6022e-09)
(4.61343e-06 3.65688e-08 -6.05097e-09)
(5.02776e-06 2.82256e-08 3.35689e-09)
(5.42281e-06 3.89931e-08 1.41809e-08)
(3.69791e-06 4.84899e-07 -1.5549e-08)
(3.60071e-06 1.25602e-07 -9.79067e-09)
(3.66323e-06 2.43319e-08 -6.1738e-09)
(3.7667e-06 2.66551e-08 -8.92409e-09)
(3.92963e-06 4.26763e-08 -1.28799e-08)
(4.20102e-06 4.08965e-08 -1.37234e-08)
(4.61466e-06 3.81027e-08 -8.36503e-09)
(5.05903e-06 4.4339e-08 2.15343e-09)
(3.41862e-06 4.66836e-07 -1.63516e-08)
(3.33782e-06 1.26875e-07 -2.0486e-08)
(3.40331e-06 2.50023e-08 -1.9103e-08)
(3.50521e-06 2.34365e-08 -2.09405e-08)
(3.66472e-06 3.90092e-08 -2.51588e-08)
(3.93117e-06 4.10836e-08 -2.81892e-08)
(4.33972e-06 4.41031e-08 -2.61089e-08)
(4.80347e-06 4.65101e-08 -1.91858e-08)
(3.25699e-06 4.48099e-07 -1.26084e-08)
(3.18145e-06 1.22861e-07 -2.01376e-08)
(3.24843e-06 2.38791e-08 -2.14974e-08)
(3.35013e-06 2.05995e-08 -2.33541e-08)
(3.50811e-06 3.54276e-08 -2.67329e-08)
(3.7715e-06 3.99465e-08 -2.95874e-08)
(4.17536e-06 4.71066e-08 -2.89803e-08)
(4.64616e-06 4.68364e-08 -2.50802e-08)
(3.16116e-06 4.34118e-07 -8.16895e-09)
(3.08815e-06 1.17993e-07 -1.44212e-08)
(3.15571e-06 2.1787e-08 -1.65826e-08)
(3.25738e-06 1.82012e-08 -1.8358e-08)
(3.41457e-06 3.27759e-08 -2.07211e-08)
(3.67597e-06 3.88363e-08 -2.27011e-08)
(4.07614e-06 4.86108e-08 -2.25669e-08)
(4.54962e-06 4.66531e-08 -2.03831e-08)
(3.10638e-06 4.25526e-07 -4.44865e-09)
(3.03473e-06 1.14452e-07 -8.14219e-09)
(3.10248e-06 1.99431e-08 -9.73766e-09)
(3.20412e-06 1.64611e-08 -1.0986e-08)
(3.36085e-06 3.10846e-08 -1.23829e-08)
(3.62101e-06 3.81009e-08 -1.3499e-08)
(4.0187e-06 4.9425e-08 -1.34686e-08)
(4.49321e-06 4.65043e-08 -1.22996e-08)
(3.08127e-06 4.21537e-07 -1.40227e-09)
(3.01023e-06 1.12707e-07 -2.59031e-09)
(3.07804e-06 1.89438e-08 -3.14804e-09)
(3.17964e-06 1.5556e-08 -3.58983e-09)
(3.33616e-06 3.02629e-08 -4.0531e-09)
(3.59571e-06 3.77507e-08 -4.41151e-09)
(3.99217e-06 4.98104e-08 -4.40328e-09)
(4.46706e-06 4.6456e-08 -4.02617e-09)
(-1.2478e-09 5.05171e-07 4.98867e-06)
(-2.86486e-09 9.08395e-08 4.75835e-06)
(-3.36531e-09 -3.42722e-08 4.84203e-06)
(6.75056e-10 -6.50725e-08 4.96266e-06)
(7.67542e-09 -7.40629e-08 5.13017e-06)
(1.44516e-08 -7.56843e-08 5.39226e-06)
(1.72703e-08 -5.00015e-08 5.77059e-06)
(1.36988e-08 1.61232e-09 6.08849e-06)
(-4.83871e-10 4.97814e-07 4.69097e-06)
(4.88799e-09 8.95946e-08 4.5099e-06)
(7.40432e-09 -3.38582e-08 4.56706e-06)
(1.18001e-08 -5.8309e-08 4.67916e-06)
(1.89406e-08 -6.24124e-08 4.85409e-06)
(2.72643e-08 -6.41704e-08 5.13956e-06)
(3.38381e-08 -4.53916e-08 5.5687e-06)
(3.4985e-08 1.71575e-09 5.97437e-06)
(1.54298e-08 5.09411e-07 4.65182e-06)
(3.18527e-08 9.86807e-08 4.46748e-06)
(4.43445e-08 -2.737e-08 4.5232e-06)
(5.06957e-08 -5.35404e-08 4.63483e-06)
(5.18333e-08 -5.86037e-08 4.8096e-06)
(5.04237e-08 -6.07946e-08 5.095e-06)
(5.01606e-08 -4.22972e-08 5.5244e-06)
(5.43528e-08 2.98308e-09 5.93512e-06)
(1.55612e-08 5.44927e-07 4.8847e-06)
(3.77132e-08 1.18463e-07 4.65018e-06)
(5.26684e-08 -1.5024e-08 4.73073e-06)
(5.92773e-08 -5.08225e-08 4.85002e-06)
(6.05717e-08 -6.26864e-08 5.01683e-06)
(6.06363e-08 -6.58467e-08 5.27825e-06)
(6.38034e-08 -4.14737e-08 5.656e-06)
(7.23894e-08 4.93905e-09 5.98469e-06)
(-4.55652e-06 4.39218e-07 6.54094e-09)
(-4.32203e-06 4.50166e-08 2.85866e-08)
(-4.40393e-06 -5.64211e-08 4.10898e-08)
(-4.52255e-06 -6.56567e-08 4.70064e-08)
(-4.68867e-06 -7.1072e-08 5.14609e-08)
(-4.94926e-06 -9.6346e-08 5.78928e-08)
(-5.32403e-06 -1.15836e-07 6.80328e-08)
(-5.6443e-06 -1.09779e-07 7.97426e-08)
(-4.02581e-06 4.47611e-07 -4.5096e-09)
(-3.86309e-06 6.09845e-08 1.8931e-08)
(-3.92225e-06 -4.87882e-08 3.1678e-08)
(-4.02935e-06 -5.92368e-08 3.73467e-08)
(-4.1963e-06 -6.08633e-08 4.34799e-08)
(-4.47225e-06 -8.13861e-08 5.37358e-08)
(-4.89273e-06 -9.98587e-08 6.88231e-08)
(-5.32426e-06 -9.82111e-08 8.47337e-08)
(-3.56915e-06 4.53602e-07 -9.47516e-09)
(-3.46767e-06 8.11865e-08 7.31348e-09)
(-3.52684e-06 -3.80091e-08 2.11082e-08)
(-3.62695e-06 -5.38557e-08 2.73072e-08)
(-3.78648e-06 -5.46837e-08 3.09295e-08)
(-4.05534e-06 -7.10039e-08 3.63914e-08)
(-4.47311e-06 -8.48378e-08 4.70042e-08)
(-4.95048e-06 -8.82922e-08 6.20394e-08)
(-3.29465e-06 4.45412e-07 -1.19549e-08)
(-3.20859e-06 9.15546e-08 -8.22636e-09)
(-3.27017e-06 -2.87971e-08 8.67625e-10)
(-3.36833e-06 -4.9416e-08 6.31842e-09)
(-3.52407e-06 -5.17794e-08 8.5933e-09)
(-3.78744e-06 -6.53115e-08 1.1111e-08)
(-4.19895e-06 -7.42095e-08 1.784e-08)
(-4.69287e-06 -8.20165e-08 2.87228e-08)
(-3.13703e-06 4.33397e-07 -9.72672e-09)
(-3.05577e-06 9.39998e-08 -1.19639e-08)
(-3.1185e-06 -2.3466e-08 -7.82761e-09)
(-3.21619e-06 -4.61303e-08 -4.1806e-09)
(-3.37018e-06 -4.98912e-08 -2.43155e-09)
(-3.63019e-06 -6.1757e-08 -7.72506e-10)
(-4.03634e-06 -6.72251e-08 3.67965e-09)
(-4.53549e-06 -7.81744e-08 1.08692e-08)
(-3.04392e-06 4.23701e-07 -6.41579e-09)
(-2.96496e-06 9.3447e-08 -9.34658e-09)
(-3.0281e-06 -2.1015e-08 -7.88672e-09)
(-3.12559e-06 -4.40201e-08 -5.87276e-09)
(-3.27863e-06 -4.83713e-08 -4.57769e-09)
(-3.53647e-06 -5.92001e-08 -3.2515e-09)
(-3.93849e-06 -6.25672e-08 -2.52131e-10)
(-4.43916e-06 -7.55745e-08 4.39805e-09)
(-2.99083e-06 4.17621e-07 -3.51152e-09)
(-2.91312e-06 9.25244e-08 -5.39204e-09)
(-2.97637e-06 -1.9993e-08 -4.94332e-09)
(-3.07373e-06 -4.28213e-08 -3.98807e-09)
(-3.22623e-06 -4.72699e-08 -3.20495e-09)
(-3.4827e-06 -5.74313e-08 -2.31268e-09)
(-3.88199e-06 -5.95751e-08 -5.19305e-10)
(-4.38301e-06 -7.38008e-08 2.17448e-09)