/*--------------------------------*- C++ -*----------------------------------*\
| =========                 |                                                 |
| \\      /  F ield         | OpenFOAM: The Open Source CFD Toolbox           |
|  \\    /   O peration     | Version:  v1912                                 |
|   \\  /    A nd           | Website:  www.openfoam.com                      |
|    \\/     M anipulation  |                                                 |
\*---------------------------------------------------------------------------*/
FoamFile
{
    version     2.0;
    format      ascii;
    class       volVectorField;
    location    "0.24/solid";
    object      DD_0_0;
}
// * * * * * * * * * * * * * * * * * * * * * * * * * * * * * * * * * * * * * //

dimensions      [0 1 0 0 0 0 0];


internalField   nonuniform List<vector> 
256
(
(6.33952e-10 5.449e-10 7.07879e-10)
(1.13164e-10 2.50815e-10 5.46439e-10)
(-1.15427e-10 2.47009e-10 5.45616e-10)
(-6.19639e-10 5.26139e-10 7.04841e-10)
(9.96624e-10 2.38087e-10 1.42312e-09)
(2.31895e-10 6.6398e-11 1.22331e-09)
(-2.24526e-10 6.12298e-11 1.22325e-09)
(-9.68065e-10 2.20535e-10 1.42252e-09)
(1.01082e-09 -2.00935e-10 1.88652e-09)
(2.44978e-10 -2.58876e-10 1.69281e-09)
(-2.2591e-10 -2.64381e-10 1.69359e-09)
(-9.71084e-10 -2.17763e-10 1.88829e-09)
(9.61039e-10 -6.35889e-10 2.29469e-09)
(2.25002e-10 -6.72854e-10 2.09235e-09)
(-1.94474e-10 -6.78413e-10 2.09361e-09)
(-9.10178e-10 -6.52616e-10 2.29772e-09)
(9.52592e-10 -1.08873e-09 2.71646e-09)
(2.2051e-10 -1.16866e-09 2.49368e-09)
(-1.78506e-10 -1.17427e-09 2.49522e-09)
(-8.90337e-10 -1.10555e-09 2.72025e-09)
(1.07141e-09 -1.60605e-09 3.20233e-09)
(2.71296e-10 -1.74961e-09 2.95432e-09)
(-2.175e-10 -1.75543e-09 2.95611e-09)
(-9.97416e-10 -1.62331e-09 3.20696e-09)
(1.44301e-09 -2.34508e-09 3.81128e-09)
(4.11686e-10 -2.44904e-09 3.54608e-09)
(-3.46058e-10 -2.45543e-09 3.54799e-09)
(-1.35649e-09 -2.36378e-09 3.81676e-09)
(2.06251e-09 -3.74307e-09 4.48349e-09)
(5.6591e-10 -3.49513e-09 4.2322e-09)
(-4.90058e-10 -3.5005e-09 4.23359e-09)
(-1.96186e-09 -3.76024e-09 4.48862e-09)
(2.66349e-10 1.08619e-10 2.27027e-10)
(4.17444e-11 -6.94991e-11 2.80008e-10)
(-4.22796e-11 -7.19758e-11 2.8032e-10)
(-2.53933e-10 9.40414e-11 2.27513e-10)
(4.37949e-10 -1.89924e-10 7.50341e-10)
(9.95566e-11 -3.01773e-10 8.49842e-10)
(-9.05864e-11 -3.06464e-10 8.50609e-10)
(-4.13149e-10 -2.05885e-10 7.52239e-10)
(4.32379e-10 -5.59573e-10 1.2085e-09)
(1.02577e-10 -6.01348e-10 1.32422e-09)
(-8.27796e-11 -6.06808e-10 1.32557e-09)
(-3.97463e-10 -5.76125e-10 1.21213e-09)
(3.86305e-10 -9.60436e-10 1.6162e-09)
(8.51164e-11 -9.93141e-10 1.73226e-09)
(-5.45933e-11 -9.98785e-10 1.7341e-09)
(-3.40929e-10 -9.77297e-10 1.62115e-09)
(3.74914e-10 -1.3939e-09 2.02069e-09)
(8.18992e-11 -1.47031e-09 2.13063e-09)
(-4.04803e-11 -1.47608e-09 2.1328e-09)
(-3.1855e-10 -1.41109e-09 2.02654e-09)
(4.82413e-10 -1.86538e-09 2.45167e-09)
(1.30878e-10 -2.00572e-09 2.55455e-09)
(-7.81916e-11 -2.01176e-09 2.55696e-09)
(-4.14523e-10 -1.88323e-09 2.45818e-09)
(8.37366e-10 -2.43e-09 2.87506e-09)
(2.66862e-10 -2.53183e-09 2.97444e-09)
(-2.02791e-10 -2.53854e-09 2.97694e-09)
(-7.56906e-10 -2.44946e-09 2.88188e-09)
(1.4474e-09 -3.36413e-09 3.08482e-09)
(4.1598e-10 -3.10278e-09 3.1866e-09)
(-3.4188e-10 -3.10887e-09 3.18897e-09)
(-1.3524e-09 -3.3822e-09 3.09131e-09)
(6.61291e-11 -2.22344e-11 1.35315e-10)
(-1.99117e-11 -1.34406e-10 2.09628e-10)
(1.93094e-11 -1.36506e-10 2.09802e-10)
(-5.47823e-11 -3.55454e-11 1.35702e-10)
(9.84873e-11 -3.94416e-10 5.30655e-10)
(-2.00064e-11 -4.60532e-10 6.61974e-10)
(2.83576e-11 -4.64793e-10 6.62449e-10)
(-7.58709e-11 -4.09007e-10 5.31993e-10)
(7.2551e-11 -7.7426e-10 9.4136e-10)
(-2.84393e-11 -8.01011e-10 1.088e-09)
(4.6947e-11 -8.06201e-10 1.08884e-09)
(-4.05534e-11 -7.89954e-10 9.4379e-10)
(3.3002e-11 -1.15186e-09 1.32926e-09)
(-4.37755e-11 -1.18343e-09 1.47687e-09)
(7.24072e-11 -1.18895e-09 1.47807e-09)
(8.89718e-12 -1.16827e-09 1.33271e-09)
(2.64401e-11 -1.53221e-09 1.69972e-09)
(-4.54065e-11 -1.61055e-09 1.8444e-09)
(8.44577e-11 -1.61627e-09 1.84589e-09)
(2.60588e-11 -1.54921e-09 1.70399e-09)
(1.34376e-10 -1.90258e-09 2.04627e-09)
(2.26591e-12 -2.04446e-09 2.18791e-09)
(4.7722e-11 -2.05051e-09 2.18961e-09)
(-7.05279e-11 -1.92042e-09 2.05114e-09)
(4.84332e-10 -2.30121e-09 2.30539e-09)
(1.34128e-10 -2.40662e-09 2.44589e-09)
(-7.29629e-11 -2.4134e-09 2.44769e-09)
(-4.07855e-10 -2.32078e-09 2.31052e-09)
(1.07797e-09 -3.04898e-09 2.34444e-09)
(2.78907e-10 -2.80511e-09 2.48857e-09)
(-2.07958e-10 -2.81126e-09 2.49032e-09)
(-9.86768e-10 -3.06671e-09 2.34934e-09)
(7.34488e-14 -6.09944e-11 1.18718e-10)
(-4.08798e-11 -1.41899e-10 1.61807e-10)
(3.99661e-11 -1.43899e-10 1.61984e-10)
(1.07304e-11 -7.389e-11 1.1922e-10)
(-2.38658e-11 -4.69806e-10 4.31956e-10)
(-6.62884e-11 -5.12715e-10 5.08994e-10)
(7.36974e-11 -5.16729e-10 5.09455e-10)
(4.51998e-11 -4.83598e-10 4.33325e-10)
(-6.03725e-11 -8.67279e-10 7.71432e-10)
(-8.09735e-11 -8.85967e-10 8.57382e-10)
(9.79604e-11 -8.90903e-10 8.58107e-10)
(9.05137e-11 -8.82193e-10 7.73597e-10)
(-9.38734e-11 -1.22942e-09 1.10339e-09)
(-9.44894e-11 -1.26145e-09 1.18912e-09)
(1.21105e-10 -1.26677e-09 1.19009e-09)
(1.33443e-10 -1.24523e-09 1.1063e-09)
(-9.21677e-11 -1.5598e-09 1.41043e-09)
(-9.3484e-11 -1.64103e-09 1.49334e-09)
(1.30133e-10 -1.64662e-09 1.49454e-09)
(1.41987e-10 -1.57637e-09 1.41399e-09)
(2.17722e-11 -1.85162e-09 1.66771e-09)
(-4.48814e-11 -1.99638e-09 1.74774e-09)
(9.22185e-11 -2.00234e-09 1.74911e-09)
(3.9214e-11 -1.86921e-09 1.67176e-09)
(3.7089e-10 -2.16749e-09 1.82583e-09)
(8.49625e-11 -2.27941e-09 1.90463e-09)
(-2.65914e-11 -2.28616e-09 1.90609e-09)
(-2.9728e-10 -2.18696e-09 1.83012e-09)
(9.52494e-10 -2.86076e-09 1.82668e-09)
(2.27389e-10 -2.6414e-09 1.90972e-09)
(-1.59397e-10 -2.64752e-09 1.9112e-09)
(-8.64067e-10 -2.87831e-09 1.83091e-09)
(-1.38308e-11 -7.40206e-11 1.02248e-10)
(-4.23596e-11 -1.42138e-10 1.21324e-10)
(4.11918e-11 -1.44091e-10 1.21516e-10)
(2.42847e-11 -8.6674e-11 1.02833e-10)
(-4.86202e-11 -4.89267e-10 3.46499e-10)
(-7.23815e-11 -5.23431e-10 3.79716e-10)
(7.89979e-11 -5.27304e-10 3.8018e-10)
(6.90471e-11 -5.02567e-10 3.47896e-10)
(-8.55128e-11 -8.89541e-10 6.08567e-10)
(-8.80425e-11 -9.05827e-10 6.44819e-10)
(1.03743e-10 -9.10579e-10 6.4549e-10)
(1.14273e-10 -9.03877e-10 6.10591e-10)
(-1.13716e-10 -1.23823e-09 8.66178e-10)
(-9.98662e-11 -1.27169e-09 9.01233e-10)
(1.24777e-10 -1.27684e-09 9.02085e-10)
(1.51505e-10 -1.2535e-09 8.68747e-10)
(-1.0503e-10 -1.53612e-09 1.09831e-09)
(-9.65623e-11 -1.61994e-09 1.13085e-09)
(1.31183e-10 -1.62539e-09 1.13186e-09)
(1.52766e-10 -1.55229e-09 1.10134e-09)
(1.41658e-11 -1.78717e-09 1.2799e-09)
(-4.66986e-11 -1.93447e-09 1.31007e-09)
(9.17898e-11 -1.94036e-09 1.3112e-09)
(4.45603e-11 -1.80452e-09 1.28328e-09)
(3.62682e-10 -2.07366e-09 1.38086e-09)
(8.21297e-11 -2.19108e-09 1.41011e-09)
(-2.61165e-11 -2.19783e-09 1.41132e-09)
(-2.91363e-10 -2.09317e-09 1.38444e-09)
(9.36791e-10 -2.74899e-09 1.37848e-09)
(2.23518e-10 -2.54832e-09 1.41104e-09)
(-1.57906e-10 -2.5545e-09 1.41232e-09)
(-8.50555e-10 -2.76678e-09 1.38218e-09)
(-1.4273e-11 -7.7958e-11 7.84224e-11)
(-3.96738e-11 -1.41287e-10 8.58931e-11)
(3.83107e-11 -1.43209e-10 8.60661e-11)
(2.4474e-11 -9.0444e-11 7.89595e-11)
(-4.596e-11 -4.8788e-10 2.54509e-10)
(-6.78671e-11 -5.19898e-10 2.66353e-10)
(7.38655e-11 -5.23685e-10 2.66754e-10)
(6.5709e-11 -5.00855e-10 2.55721e-10)
(-7.89659e-11 -8.81714e-10 4.39392e-10)
(-8.2232e-11 -8.98348e-10 4.51298e-10)
(9.69181e-11 -9.0298e-10 4.51856e-10)
(1.06673e-10 -8.95652e-10 4.41073e-10)
(-1.0274e-10 -1.21887e-09 6.19498e-10)
(-9.25636e-11 -1.25399e-09 6.29973e-10)
(1.16123e-10 -1.25901e-09 6.30653e-10)
(1.39156e-10 -1.23376e-09 6.21557e-10)
(-8.9483e-11 -1.4996e-09 7.78665e-10)
(-8.77685e-11 -1.5853e-09 7.87314e-10)
(1.20772e-10 -1.59066e-09 7.88093e-10)
(1.35598e-10 -1.51546e-09 7.81033e-10)
(3.27639e-11 -1.7345e-09 8.98926e-10)
(-3.71397e-11 -1.88347e-09 9.06047e-10)
(8.04347e-11 -1.88932e-09 9.06903e-10)
(2.41928e-11 -1.75175e-09 9.0152e-10)
(3.80458e-10 -2.01357e-09 9.63568e-10)
(9.10551e-11 -2.13422e-09 9.70239e-10)
(-3.69095e-11 -2.14102e-09 9.71158e-10)
(-3.1093e-10 -2.03325e-09 9.66312e-10)
(9.50017e-10 -2.68098e-09 9.63327e-10)
(2.31962e-10 -2.49104e-09 9.72126e-10)
(-1.68136e-10 -2.49736e-09 9.73131e-10)
(-8.65443e-10 -2.69923e-09 9.66248e-10)
(-1.31221e-11 -7.85002e-11 4.90914e-11)
(-3.76186e-11 -1.40026e-10 5.18325e-11)
(3.6117e-11 -1.41931e-10 5.19518e-11)
(2.31504e-11 -9.08786e-11 4.9464e-11)
(-4.08815e-11 -4.81319e-10 1.55484e-10)
(-6.37614e-11 -5.13305e-10 1.5918e-10)
(6.93252e-11 -5.1704e-10 1.59452e-10)
(6.01637e-11 -4.94087e-10 1.56304e-10)
(-7.02457e-11 -8.6745e-10 2.65171e-10)
(-7.67526e-11 -8.85074e-10 2.6823e-10)
(9.0725e-11 -8.89633e-10 2.686e-10)
(9.72235e-11 -8.81138e-10 2.66284e-10)
(-9.09221e-11 -1.19642e-09 3.70865e-10)
(-8.60175e-11 -1.23285e-09 3.72871e-10)
(1.08624e-10 -1.2378e-09 3.73312e-10)
(1.26382e-10 -1.21107e-09 3.72202e-10)
(-7.50702e-11 -1.46921e-09 4.63114e-10)
(-8.03978e-11 -1.55608e-09 4.64056e-10)
(1.12259e-10 -1.56139e-09 4.64552e-10)
(1.20055e-10 -1.4849e-09 4.64626e-10)
(4.86229e-11 -1.69913e-09 5.31792e-10)
(-2.94332e-11 -1.84897e-09 5.3195e-10)
(7.14595e-11 -1.85482e-09 5.32488e-10)
(7.09926e-12 -1.71635e-09 5.33431e-10)
(3.95588e-10 -1.97758e-09 5.68534e-10)
(9.83607e-11 -2.09971e-09 5.68553e-10)
(-4.55168e-11 -2.10657e-09 5.69132e-10)
(-3.27297e-10 -1.99747e-09 5.70265e-10)
(9.62479e-10 -2.64127e-09 5.6936e-10)
(2.38996e-10 -2.45637e-09 5.70521e-10)
(-1.76363e-10 -2.46282e-09 5.71169e-10)
(-8.79021e-10 -2.65997e-09 5.71237e-10)
(-1.25559e-11 -7.82452e-11 1.66891e-11)
(-3.67176e-11 -1.39117e-10 1.73886e-11)
(3.51432e-11 -1.41014e-10 1.74311e-11)
(2.24959e-11 -9.0571e-11 1.68217e-11)
(-3.84059e-11 -4.76658e-10 5.22732e-11)
(-6.18824e-11 -5.08889e-10 5.30888e-11)
(6.72203e-11 -5.12599e-10 5.31849e-11)
(5.74487e-11 -4.89326e-10 5.25623e-11)
(-6.58967e-11 -8.58152e-10 8.85973e-11)
(-7.41568e-11 -8.76422e-10 8.91159e-11)
(8.77593e-11 -8.80946e-10 8.92454e-11)
(9.25004e-11 -8.71719e-10 8.89867e-11)
(-8.50314e-11 -1.18298e-09 1.23371e-10)
(-8.28886e-11 -1.22009e-09 1.23513e-10)
(1.05001e-10 -1.22501e-09 1.23666e-10)
(1.20001e-10 -1.19751e-09 1.23834e-10)
(-6.80205e-11 -1.45273e-09 1.53539e-10)
(-7.69083e-11 -1.54016e-09 1.53337e-10)
(1.08178e-10 -1.54544e-09 1.53508e-10)
(1.12425e-10 -1.46835e-09 1.5406e-10)
(5.62261e-11 -1.68153e-09 1.75887e-10)
(-2.58281e-11 -1.83172e-09 1.7545e-10)
(6.72005e-11 -1.83758e-09 1.75634e-10)
(-1.13536e-12 -1.69876e-09 1.76448e-10)
(4.02784e-10 -1.96055e-09 1.87866e-10)
(1.01771e-10 -2.08318e-09 1.87408e-10)
(-4.95904e-11 -2.09009e-09 1.87606e-10)
(-3.3512e-10 -1.98058e-09 1.88458e-10)
(9.68422e-10 -2.62282e-09 1.8832e-10)
(2.42271e-10 -2.43977e-09 1.88218e-10)
(-1.80226e-10 -2.4463e-09 1.88442e-10)
(-8.85514e-10 -2.64179e-09 1.88968e-10)
)
;

boundaryField
{
    interface
    {
        type            calculated;
        value           nonuniform List<vector> 
192
(
(4.10345e-10 9.52542e-10 6.1229e-10)
(7.02852e-10 3.32303e-10 1.27023e-09)
(7.23114e-10 -2.09833e-10 1.72602e-09)
(6.87067e-10 -6.50447e-10 2.13686e-09)
(6.87324e-10 -1.06114e-09 2.56105e-09)
(7.97932e-10 -1.48345e-09 3.04736e-09)
(1.11856e-09 -2.09731e-09 3.65362e-09)
(1.94459e-09 -3.57791e-09 4.32034e-09)
(-1.64805e-10 2.84692e-10 8.50799e-11)
(-3.63573e-11 -1.48418e-10 5.25813e-10)
(-4.39036e-11 -5.72486e-10 9.7394e-10)
(-8.68021e-11 -9.74804e-10 1.38419e-09)
(-9.91294e-11 -1.36987e-09 1.78916e-09)
(-8.75887e-12 -1.74977e-09 2.21742e-09)
(2.87668e-10 -2.18875e-09 2.63539e-09)
(1.12342e-09 -3.20436e-09 2.83869e-09)
(-3.52472e-10 1.89186e-11 6.87532e-11)
(-3.33623e-10 -3.92812e-10 4.15208e-10)
(-3.60521e-10 -7.90633e-10 8.18177e-10)
(-3.98258e-10 -1.16339e-09 1.20922e-09)
(-4.05156e-10 -1.50687e-09 1.58296e-09)
(-3.09701e-10 -1.78811e-09 1.93111e-09)
(-6.52108e-12 -2.06532e-09 2.18878e-09)
(8.05718e-10 -2.89176e-09 2.22072e-09)
(-4.21355e-10 -6.69435e-11 9.87329e-11)
(-4.48729e-10 -4.84919e-10 3.95184e-10)
(-4.84916e-10 -8.84783e-10 7.31919e-10)
(-5.16383e-10 -1.23737e-09 1.06671e-09)
(-5.14147e-10 -1.53089e-09 1.37757e-09)
(-4.10319e-10 -1.73586e-09 1.63766e-09)
(-1.02797e-10 -1.93481e-09 1.79542e-09)
(6.89715e-10 -2.70347e-09 1.79138e-09)
(-4.42339e-10 -8.96343e-11 9.8665e-11)
(-4.77853e-10 -5.07189e-10 3.40979e-10)
(-5.13548e-10 -9.05817e-10 6.03921e-10)
(-5.3898e-10 -1.24311e-09 8.63963e-10)
(-5.28853e-10 -1.50416e-09 1.09898e-09)
(-4.18571e-10 -1.67024e-09 1.28265e-09)
(-1.09856e-10 -1.84301e-09 1.38325e-09)
(6.68275e-10 -2.59108e-09 1.37787e-09)
(-4.48626e-10 -9.30171e-11 7.86023e-11)
(-4.80277e-10 -5.04055e-10 2.56446e-10)
(-5.11549e-10 -8.95912e-10 4.4321e-10)
(-5.31874e-10 -1.2215e-09 6.25198e-10)
(-5.16491e-10 -1.46572e-09 7.86157e-10)
(-4.02647e-10 -1.61702e-09 9.07541e-10)
(-9.44253e-11 -1.78426e-09 9.71795e-10)
(6.74357e-10 -2.5228e-09 9.6975e-10)
(-4.51399e-10 -9.2002e-11 4.95222e-11)
(-4.78844e-10 -4.95601e-10 1.57374e-10)
(-5.06164e-10 -8.79963e-10 2.68439e-10)
(-5.22942e-10 -1.19763e-09 3.75293e-10)
(-5.04559e-10 -1.43432e-09 4.6848e-10)
(-3.89109e-10 -1.58147e-09 5.37659e-10)
(-8.17693e-11 -1.74912e-09 5.74116e-10)
(6.81447e-10 -2.48314e-09 5.73962e-10)
(-4.52799e-10 -9.09865e-11 1.68312e-11)
(-4.78212e-10 -4.89994e-10 5.28926e-11)
(-5.03509e-10 -8.69811e-10 8.96849e-11)
(-5.1853e-10 -1.18351e-09 1.24844e-10)
(-4.98807e-10 -1.41742e-09 1.55302e-10)
(-3.82777e-10 -1.56383e-09 1.77788e-10)
(-7.60116e-11 -1.73251e-09 1.89665e-10)
(6.84596e-10 -2.4648e-09 1.89806e-10)
(6.41359e-10 1.07765e-09 3.92364e-10)
(1.02309e-09 5.32752e-10 1.02857e-09)
(1.04262e-09 1.69611e-11 1.501e-09)
(9.89352e-10 -4.28404e-10 1.93021e-09)
(9.74583e-10 -8.61815e-10 2.36765e-09)
(1.08688e-09 -1.33235e-09 2.84843e-09)
(1.45553e-09 -2.02479e-09 3.40422e-09)
(2.08125e-09 -3.58216e-09 4.2705e-09)
(7.25699e-11 6.93254e-10 7.33103e-11)
(1.81901e-10 3.52994e-10 6.69532e-10)
(1.96721e-10 -4.16118e-11 1.13043e-09)
(1.74709e-10 -4.72636e-10 1.53647e-09)
(1.65179e-10 -9.53167e-10 1.93986e-09)
(2.09719e-10 -1.48651e-09 2.38037e-09)
(3.45844e-10 -2.12957e-09 2.90529e-09)
(5.03423e-10 -3.33181e-09 3.82274e-09)
(-7.58556e-11 6.89227e-10 6.81639e-11)
(-1.74749e-10 3.48226e-10 6.66046e-10)
(-1.77065e-10 -4.67877e-11 1.1274e-09)
(-1.43156e-10 -4.78006e-10 1.53362e-09)
(-1.21885e-10 -9.58648e-10 1.93705e-09)
(-1.54362e-10 -1.49224e-09 2.37744e-09)
(-2.78406e-10 -2.13606e-09 2.9019e-09)
(-4.25969e-10 -3.33723e-09 3.81749e-09)
(-6.27574e-10 1.05798e-09 3.77292e-10)
(-9.94182e-10 5.16398e-10 1.0196e-09)
(-1.00184e-09 1.03628e-12 1.49298e-09)
(-9.37064e-10 -4.44624e-10 1.92243e-09)
(-9.10669e-10 -8.78238e-10 2.35994e-09)
(-1.01099e-09 -1.34918e-09 2.8408e-09)
(-1.36687e-09 -2.04336e-09 3.39663e-09)
(-1.97845e-09 -3.5993e-09 4.26162e-09)
(-3.19627e-10 9.23069e-10 6.09423e-10)
(-5.97327e-10 3.08401e-10 1.27071e-09)
(-6.05629e-10 -2.32231e-10 1.72948e-09)
(-5.58153e-10 -6.72799e-10 2.14194e-09)
(-5.46963e-10 -1.08373e-09 2.56712e-09)
(-6.45398e-10 -1.50676e-09 3.05443e-09)
(-9.50763e-10 -2.12266e-09 3.66166e-09)
(-1.74344e-09 -3.60172e-09 4.32794e-09)
(2.37407e-10 2.60814e-10 8.6285e-11)
(1.19697e-10 -1.69999e-10 5.29173e-10)
(1.37855e-10 -5.94177e-10 9.79477e-10)
(1.91507e-10 -9.97022e-10 1.39136e-09)
(2.15042e-10 -1.39269e-09 1.79743e-09)
(1.36933e-10 -1.77364e-09 2.22644e-09)
(-1.44035e-10 -2.21498e-09 2.64471e-09)
(-9.4659e-10 -3.22923e-09 2.84753e-09)
(4.20254e-10 -2.88089e-12 6.95238e-11)
(4.10828e-10 -4.12562e-10 4.17392e-10)
(4.47559e-10 -8.11143e-10 8.21782e-10)
(4.95609e-10 -1.18492e-09 1.2141e-09)
(5.13663e-10 -1.52935e-09 1.58885e-09)
(4.30905e-10 -1.81193e-09 1.93769e-09)
(1.44058e-10 -2.09171e-09 2.19561e-09)
(-6.34668e-10 -2.91627e-09 2.22725e-09)
(4.87409e-10 -8.78718e-11 9.94448e-11)
(5.23356e-10 -5.03542e-10 3.97086e-10)
(5.68799e-10 -9.0425e-10 7.34881e-10)
(6.10218e-10 -1.25809e-09 1.07064e-09)
(6.19054e-10 -1.5528e-09 1.38231e-09)
(5.28212e-10 -1.75938e-09 1.64298e-09)
(2.37666e-10 -1.96113e-09 1.80099e-09)
(-5.20945e-10 -2.7278e-09 1.79685e-09)
(5.08006e-10 -1.10006e-10 9.93912e-11)
(5.51509e-10 -5.25063e-10 3.42762e-10)
(5.96017e-10 -9.24488e-10 6.06545e-10)
(6.31091e-10 -1.26312e-09 8.67314e-10)
(6.31915e-10 -1.52554e-09 1.10294e-09)
(5.34749e-10 -1.69348e-09 1.28703e-09)
(2.43395e-10 -1.86937e-09 1.38785e-09)
(-5.00526e-10 -2.61572e-09 1.38252e-09)
(5.14452e-10 -1.12989e-10 7.9239e-11)
(5.53683e-10 -5.21402e-10 2.57938e-10)
(5.93428e-10 -9.1401e-10 4.45331e-10)
(6.23139e-10 -1.24099e-09 6.27834e-10)
(6.18578e-10 -1.48672e-09 7.89208e-10)
(5.17892e-10 -1.6401e-09 9.10883e-10)
(2.27274e-10 -1.81083e-09 9.75294e-10)
(-5.07034e-10 -2.54799e-09 9.73363e-10)
(5.17513e-10 -1.11707e-10 4.99563e-11)
(5.52259e-10 -5.12603e-10 1.58367e-10)
(5.87813e-10 -8.97689e-10 2.69825e-10)
(6.13787e-10 -1.21677e-09 3.76989e-10)
(6.06117e-10 -1.45507e-09 4.70418e-10)
(5.03832e-10 -1.6045e-09 5.39761e-10)
(2.14244e-10 -1.77592e-09 5.76311e-10)
(-5.14296e-10 -2.50888e-09 5.76254e-10)
(5.19103e-10 -1.10556e-10 1.69846e-11)
(5.51675e-10 -5.06825e-10 5.32403e-11)
(5.8509e-10 -8.87353e-10 9.01668e-11)
(6.0921e-10 -1.20248e-09 1.25429e-10)
(6.00139e-10 -1.43806e-09 1.55967e-10)
(4.97276e-10 -1.58686e-09 1.78506e-10)
(2.08339e-10 -1.75946e-09 1.90413e-10)
(-5.17475e-10 -2.49086e-09 1.90591e-10)
(2.08309e-09 -3.53064e-09 4.46921e-09)
(1.46193e-09 -2.95779e-09 2.9113e-09)
(1.0956e-09 -2.69648e-09 2.2186e-09)
(9.76283e-10 -2.51541e-09 1.75168e-09)
(9.6556e-10 -2.39292e-09 1.33354e-09)
(9.81605e-10 -2.31288e-09 9.36397e-10)
(9.953e-10 -2.26445e-09 5.5482e-10)
(1.00165e-09 -2.24158e-09 1.83708e-10)
(5.05254e-10 -3.08623e-09 4.21578e-09)
(3.52146e-10 -2.46293e-09 3.0141e-09)
(2.19458e-10 -2.2331e-09 2.37322e-09)
(1.74057e-10 -2.09155e-09 1.84553e-09)
(1.74875e-10 -1.99926e-09 1.37346e-09)
(1.86035e-10 -1.93647e-09 9.49139e-10)
(1.94361e-10 -1.8961e-09 5.57702e-10)
(1.98118e-10 -1.87619e-09 1.84067e-10)
(-4.23792e-10 -3.08482e-09 4.21732e-09)
(-2.72042e-10 -2.46349e-09 3.01666e-09)
(-1.42579e-10 -2.23414e-09 2.37498e-09)
(-1.00192e-10 -2.09274e-09 1.84701e-09)
(-1.03313e-10 -2.0005e-09 1.37478e-09)
(-1.16112e-10 -1.93777e-09 9.50211e-10)
(-1.25485e-10 -1.89746e-09 5.58404e-10)
(-1.29742e-10 -1.87759e-09 1.84312e-10)
(-1.97619e-09 -3.53333e-09 4.47458e-09)
(-1.36057e-09 -2.96211e-09 2.91793e-09)
(-9.98144e-10 -2.70091e-09 2.22337e-09)
(-8.81645e-10 -2.51988e-09 1.75593e-09)
(-8.73039e-10 -2.39759e-09 1.33741e-09)
(-8.90617e-10 -2.31788e-09 9.39547e-10)
(-9.05303e-10 -2.26978e-09 5.56878e-10)
(-9.12127e-10 -2.24711e-09 1.84423e-10)
)
;
    }
    symmetry
    {
        type            symmetry;
    }
    bottom
    {
        type            calculated;
        value           uniform (0 0 0);
    }
}


// ************************************************************************* //
