/*--------------------------------*- C++ -*----------------------------------*\
| =========                 |                                                 |
| \\      /  F ield         | OpenFOAM: The Open Source CFD Toolbox           |
|  \\    /   O peration     | Version:  v1912                                 |
|   \\  /    A nd           | Website:  www.openfoam.com                      |
|    \\/     M anipulation  |                                                 |
\*---------------------------------------------------------------------------*/
FoamFile
{
    version     2.0;
    format      ascii;
    class       volScalarField;
    location    "0.24/solid";
    object      epsilonEq;
}
// * * * * * * * * * * * * * * * * * * * * * * * * * * * * * * * * * * * * * //

dimensions      [0 0 0 0 0 0 0];


internalField   nonuniform List<scalar> 
256
(
2.3076e-06
1.89066e-06
1.8746e-06
2.24729e-06
1.64148e-06
1.61558e-06
1.59743e-06
1.58398e-06
1.70214e-06
1.62325e-06
1.60476e-06
1.64638e-06
1.78875e-06
1.6713e-06
1.653e-06
1.73456e-06
1.88072e-06
1.74928e-06
1.73114e-06
1.82746e-06
1.98785e-06
1.86042e-06
1.84237e-06
1.93526e-06
1.89866e-06
1.90025e-06
1.88326e-06
1.85094e-06
1.52186e-07
2.0644e-06
2.04916e-06
1.40535e-07
1.68536e-06
3.62333e-07
3.55117e-07
1.61959e-06
1.43119e-06
3.20838e-07
3.12575e-07
1.36794e-06
1.44748e-06
2.72493e-07
2.65239e-07
1.38484e-06
1.49172e-06
2.44089e-07
2.3754e-07
1.42889e-06
1.55926e-06
2.4231e-07
2.36097e-07
1.49583e-06
1.65615e-06
2.32533e-07
2.26756e-07
1.59252e-06
1.68059e-06
5.95959e-08
5.85613e-08
1.62162e-06
1.89813e-06
1.9006e-06
1.88409e-06
1.85188e-06
1.52557e-06
2.35852e-07
2.2909e-07
1.46369e-06
1.38264e-06
2.80431e-07
2.71233e-07
1.31973e-06
1.4069e-06
2.64397e-07
2.55556e-07
1.34295e-06
1.44708e-06
2.42485e-07
2.3386e-07
1.38212e-06
1.50974e-06
2.36432e-07
2.278e-07
1.44357e-06
1.60449e-06
2.27796e-07
2.19385e-07
1.5376e-06
1.65575e-06
2.27587e-07
2.23356e-07
1.5931e-06
1.98716e-06
1.86117e-06
1.84402e-06
1.93793e-06
1.41008e-06
2.11367e-07
2.05269e-07
1.35314e-06
1.2898e-06
2.66359e-07
2.58218e-07
1.23043e-06
1.31995e-06
2.61076e-07
2.52898e-07
1.25856e-06
1.35965e-06
2.43231e-07
2.35077e-07
1.29665e-06
1.41874e-06
2.36194e-07
2.2798e-07
1.3542e-06
1.50851e-06
2.26779e-07
2.18827e-07
1.44297e-06
1.55846e-06
2.28106e-07
2.24433e-07
1.49695e-06
1.88354e-06
1.75213e-06
1.73541e-06
1.83618e-06
1.3419e-06
1.98413e-07
1.92809e-07
1.28881e-06
1.22776e-06
2.50344e-07
2.43226e-07
1.17155e-06
1.26012e-06
2.47335e-07
2.40039e-07
1.20139e-06
1.29973e-06
2.30772e-07
2.23369e-07
1.23897e-06
1.35686e-06
2.22587e-07
2.15043e-07
1.29426e-06
1.44347e-06
2.11512e-07
2.04177e-07
1.37964e-06
1.49077e-06
2.07242e-07
2.04447e-07
1.43082e-06
1.80582e-06
1.67843e-06
1.66212e-06
1.76047e-06
1.30064e-06
1.89597e-07
1.84393e-07
1.25022e-06
1.18926e-06
2.37812e-07
2.31449e-07
1.13535e-06
1.22209e-06
2.34528e-07
2.27948e-07
1.16541e-06
1.26143e-06
2.1795e-07
2.11199e-07
1.20244e-06
1.31741e-06
2.08894e-07
2.01914e-07
1.25635e-06
1.40218e-06
1.96963e-07
1.90091e-07
1.33969e-06
1.44749e-06
1.89022e-07
1.86961e-07
1.38875e-06
1.75592e-06
1.63312e-06
1.61711e-06
1.71216e-06
1.27653e-06
1.83823e-07
1.78907e-07
1.22778e-06
1.16672e-06
2.29701e-07
2.23839e-07
1.11429e-06
1.1995e-06
2.25838e-07
2.19747e-07
1.14417e-06
1.23852e-06
2.08969e-07
2.02679e-07
1.18074e-06
1.29383e-06
1.99356e-07
1.92767e-07
1.23381e-06
1.37758e-06
1.87133e-07
1.80559e-07
1.31599e-06
1.42163e-06
1.77493e-07
1.75935e-07
1.36371e-06
1.7261e-06
1.60706e-06
1.59125e-06
1.68343e-06
1.26531e-06
1.80943e-07
1.76178e-07
1.21737e-06
1.15625e-06
2.2579e-07
2.20182e-07
1.10455e-06
1.18893e-06
2.21615e-07
2.15774e-07
1.13428e-06
1.22777e-06
2.04563e-07
1.98511e-07
1.17059e-06
1.28276e-06
1.94687e-07
1.88299e-07
1.22327e-06
1.36606e-06
1.82395e-07
1.7597e-07
1.30491e-06
1.4095e-06
1.7217e-07
1.70866e-07
1.35199e-06
1.7121e-06
1.59514e-06
1.57942e-06
1.66999e-06
)
;

boundaryField
{
    interface
    {
        type            calculated;
        value           nonuniform List<scalar> 
192
(
3.21526e-06
2.50309e-06
2.58401e-06
2.69781e-06
2.82637e-06
2.99388e-06
3.01497e-06
1.5976e-06
2.91263e-06
2.58165e-06
2.62141e-06
2.70547e-06
2.82854e-06
3.01737e-06
3.18973e-06
3.01474e-06
2.62466e-06
2.40929e-06
2.45393e-06
2.53156e-06
2.64775e-06
2.83135e-06
3.01795e-06
2.99416e-06
2.42285e-06
2.23413e-06
2.28378e-06
2.35983e-06
2.47159e-06
2.64866e-06
2.831e-06
2.83144e-06
2.3054e-06
2.12538e-06
2.17714e-06
2.25277e-06
2.36229e-06
2.5354e-06
2.7134e-06
2.72003e-06
2.23534e-06
2.05976e-06
2.1122e-06
2.18753e-06
2.29579e-06
2.46652e-06
2.64128e-06
2.65007e-06
2.19489e-06
2.02185e-06
2.07443e-06
2.14951e-06
2.25705e-06
2.42639e-06
2.59905e-06
2.60861e-06
2.17622e-06
2.00434e-06
2.05694e-06
2.13187e-06
2.23907e-06
2.40776e-06
2.57939e-06
2.58922e-06
3.37394e-06
2.67974e-06
2.75977e-06
2.87262e-06
3.00071e-06
3.16989e-06
3.20737e-06
1.93158e-06
3.28368e-06
2.92366e-06
2.95687e-06
3.04504e-06
3.17796e-06
3.38054e-06
3.5694e-06
3.3584e-06
3.25448e-06
2.89139e-06
2.92359e-06
3.01166e-06
3.14462e-06
3.34719e-06
3.5368e-06
3.33256e-06
3.29006e-06
2.59708e-06
2.67705e-06
2.79058e-06
2.91915e-06
3.08832e-06
3.12809e-06
1.88475e-06
3.13236e-06
2.42097e-06
2.50281e-06
2.61753e-06
2.74676e-06
2.91554e-06
2.94462e-06
1.58415e-06
2.8078e-06
2.47751e-06
2.51649e-06
2.59921e-06
2.72077e-06
2.90884e-06
3.08687e-06
2.94542e-06
2.52305e-06
2.30498e-06
2.34743e-06
2.4229e-06
2.53686e-06
2.71881e-06
2.90988e-06
2.91833e-06
2.32703e-06
2.13402e-06
2.18055e-06
2.25387e-06
2.36298e-06
2.53798e-06
2.7241e-06
2.75623e-06
2.21416e-06
2.02902e-06
2.07714e-06
2.14962e-06
2.25618e-06
2.42692e-06
2.60829e-06
2.6463e-06
2.14725e-06
1.96609e-06
2.01461e-06
2.08653e-06
2.1916e-06
2.35973e-06
2.53757e-06
2.57761e-06
2.10877e-06
1.92991e-06
1.97845e-06
2.04996e-06
2.15415e-06
2.32073e-06
2.49628e-06
2.53708e-06
2.09105e-06
1.91326e-06
1.96175e-06
2.03305e-06
2.13682e-06
2.30268e-06
2.47711e-06
2.51817e-06
1.93198e-06
3.20723e-06
3.17003e-06
3.00551e-06
2.8947e-06
2.82555e-06
2.78469e-06
2.76558e-06
3.35873e-06
3.57009e-06
3.38243e-06
3.18383e-06
3.05988e-06
2.98493e-06
2.94175e-06
2.92189e-06
3.33289e-06
3.5378e-06
3.3497e-06
3.15149e-06
3.02786e-06
2.95316e-06
2.91015e-06
2.89037e-06
1.88512e-06
3.12901e-06
3.09113e-06
2.92871e-06
2.81975e-06
2.75205e-06
2.71219e-06
2.69358e-06
)
;
    }
    symmetry
    {
        type            symmetry;
    }
    bottom
    {
        type            calculated;
        value           nonuniform List<scalar> 
32
(
2.961e-06
1.94067e-06
1.71294e-06
1.58979e-06
1.51845e-06
1.47457e-06
1.44872e-06
1.43667e-06
2.15372e-06
4.34857e-07
2.57432e-07
2.29728e-07
2.18409e-07
2.1051e-07
2.05205e-07
2.02538e-07
2.13856e-06
4.26314e-07
2.49214e-07
2.22471e-07
2.11792e-07
2.04356e-07
1.99371e-07
1.96872e-07
2.89932e-06
1.87208e-06
1.65009e-06
1.53348e-06
1.467e-06
1.42641e-06
1.40258e-06
1.39149e-06
)
;
    }
}


// ************************************************************************* //
