/*--------------------------------*- C++ -*----------------------------------*\
| =========                 |                                                 |
| \\      /  F ield         | OpenFOAM: The Open Source CFD Toolbox           |
|  \\    /   O peration     | Version:  v1912                                 |
|   \\  /    A nd           | Website:  www.openfoam.com                      |
|    \\/     M anipulation  |                                                 |
\*---------------------------------------------------------------------------*/
FoamFile
{
    version     2.0;
    format      ascii;
    class       volSymmTensorField;
    location    "0.24/solid";
    object      epsilon;
}
// * * * * * * * * * * * * * * * * * * * * * * * * * * * * * * * * * * * * * //

dimensions      [0 0 0 0 0 0 0];


internalField   nonuniform List<symmTensor> 
256
(
(-2.53067e-06 3.66977e-08 -3.00304e-09 8.31342e-07 3.00206e-08 -2.71973e-06)
(-1.84751e-07 -7.18147e-08 6.31499e-10 5.64776e-07 3.64391e-08 -2.56717e-06)
(-1.84521e-07 9.56172e-08 -1.92747e-10 5.54406e-07 3.89865e-08 -2.54733e-06)
(-2.4792e-06 -2.56899e-08 4.49028e-09 7.91681e-07 3.95033e-08 -2.66928e-06)
(-2.47776e-06 -1.5782e-08 -2.12574e-09 -1.17244e-07 -2.81676e-08 -2.66876e-06)
(-2.90104e-07 -2.0115e-08 1.24874e-09 2.41167e-08 -2.59968e-08 -2.54036e-06)
(-2.89972e-07 3.76057e-08 6.09167e-11 1.2373e-08 -2.4359e-08 -2.51933e-06)
(-2.42455e-06 2.32773e-08 4.53166e-09 -1.52223e-07 -2.21549e-08 -2.6186e-06)
(-2.516e-06 -1.0507e-08 -3.14863e-09 -6.25693e-08 -2.6967e-08 -2.70415e-06)
(-2.87146e-07 -6.35843e-09 7.37837e-10 8.79071e-09 -2.66474e-08 -2.56007e-06)
(-2.87322e-07 1.92904e-08 8.77111e-10 -2.43901e-09 -2.55339e-08 -2.5387e-06)
(-2.46218e-06 1.59157e-08 5.75545e-09 -9.44113e-08 -2.27827e-08 -2.65365e-06)
(-2.57161e-06 -9.81051e-10 -3.47388e-09 1.1627e-08 -2.00537e-08 -2.76091e-06)
(-2.69741e-07 -1.78992e-10 6.66905e-10 3.1604e-08 -1.8575e-08 -2.61219e-06)
(-2.70134e-07 9.64759e-09 9.26229e-10 2.12685e-08 -1.77169e-08 -2.5908e-06)
(-2.51734e-06 4.95209e-09 6.1014e-09 -1.75633e-08 -1.68023e-08 -2.71033e-06)
(-2.65495e-06 2.62249e-09 -1.90465e-09 6.52886e-08 -1.71877e-08 -2.84653e-06)
(-2.58749e-07 1.68376e-09 1.61813e-09 6.76747e-08 -1.46628e-08 -2.70406e-06)
(-2.59207e-07 4.97792e-09 -1.22092e-10 5.78577e-08 -1.39152e-08 -2.6827e-06)
(-2.60047e-06 1.57013e-10 4.5215e-09 3.76608e-08 -1.44311e-08 -2.79588e-06)
(-2.78252e-06 -1.1035e-09 1.28763e-09 9.59683e-08 -1.93276e-08 -2.97901e-06)
(-2.41408e-07 -1.90797e-09 3.42342e-09 8.78452e-08 -1.68209e-08 -2.85265e-06)
(-2.42099e-07 6.06623e-09 -1.97076e-09 7.82991e-08 -1.60743e-08 -2.83133e-06)
(-2.72914e-06 2.51993e-09 1.33842e-09 6.89438e-08 -1.67621e-08 -2.92821e-06)
(-2.95327e-06 -7.27214e-09 4.80945e-09 -2.15479e-07 -2.18634e-08 -3.16163e-06)
(-2.02251e-07 -8.23145e-09 5.27677e-09 -2.27069e-07 -2.09744e-08 -3.06467e-06)
(-2.04387e-07 9.59425e-09 -3.71087e-09 -2.34201e-07 -2.0117e-08 -3.04379e-06)
(-2.90624e-06 6.66591e-09 -2.14801e-09 -2.38208e-07 -1.9255e-08 -3.11118e-06)
(-3.08446e-06 -5.86141e-09 6.27377e-09 -3.31111e-06 -1.35077e-08 -3.31099e-06)
(-1.61624e-07 -5.27491e-09 5.86341e-09 -3.25838e-06 -1.38799e-08 -3.25783e-06)
(-1.67148e-07 4.54867e-09 -4.11524e-09 -3.2412e-06 -1.30529e-08 -3.24037e-06)
(-3.05847e-06 3.85791e-09 -3.71095e-09 -3.26839e-06 -1.13047e-08 -3.26792e-06)
(-2.27188e-06 4.29525e-08 -2.97848e-09 5.37063e-07 -1.26338e-07 -2.19382e-07)
(-1.87486e-07 -6.30557e-08 3.17865e-09 2.91966e-07 -1.12567e-07 -2.17969e-07)
(-1.84811e-07 7.50322e-08 -1.47769e-09 2.7962e-07 -1.06951e-07 -2.18602e-07)
(-2.20453e-06 -3.61544e-08 4.48564e-09 4.94686e-07 -1.08645e-07 -2.23853e-07)
(-2.25822e-06 -1.30992e-08 -5.46075e-10 3.8498e-08 -6.2673e-08 -3.09741e-07)
(-3.03109e-07 -2.01157e-08 4.84985e-09 1.63778e-07 -5.74554e-08 -3.08274e-07)
(-2.99796e-07 2.80911e-08 -1.65076e-09 1.51721e-07 -5.37474e-08 -3.10448e-07)
(-2.18905e-06 1.65401e-08 2.97013e-09 3.17828e-09 -5.02037e-08 -3.19951e-07)
(-2.286e-06 -1.14076e-08 8.11268e-11 3.16096e-08 -5.19964e-08 -3.04252e-07)
(-3.0297e-07 -8.96074e-09 5.27852e-09 9.75825e-08 -4.97271e-08 -3.00161e-07)
(-2.99895e-07 1.46023e-08 -1.78963e-09 8.69525e-08 -4.70273e-08 -3.03371e-07)
(-2.21574e-06 1.36701e-08 2.49487e-09 9.33069e-10 -4.25123e-08 -3.17608e-07)
(-2.33625e-06 -1.95348e-09 -6.57007e-12 5.1079e-08 -5.03555e-08 -2.91338e-07)
(-2.85971e-07 -2.73197e-09 5.3839e-09 6.9848e-08 -4.79577e-08 -2.87196e-07)
(-2.82979e-07 6.67481e-09 -2.12402e-09 6.01199e-08 -4.5765e-08 -2.90981e-07)
(-2.26467e-06 3.58079e-09 2.53009e-09 2.29678e-08 -4.25958e-08 -3.06341e-07)
(-2.42236e-06 2.89059e-09 7.48382e-10 7.2047e-08 -4.9868e-08 -2.82777e-07)
(-2.77283e-07 -2.14404e-11 5.97719e-09 7.41124e-08 -4.76636e-08 -2.82072e-07)
(-2.74192e-07 2.44601e-09 -2.99525e-09 6.47676e-08 -4.57255e-08 -2.86184e-07)
(-2.34935e-06 -1.89129e-09 1.71508e-09 4.52501e-08 -4.31453e-08 -2.98688e-07)
(-2.56269e-06 6.78504e-10 2.71909e-09 7.45878e-08 -5.11389e-08 -2.70866e-07)
(-2.65931e-07 -2.44676e-09 7.33878e-09 6.67113e-08 -4.99115e-08 -2.75735e-07)
(-2.62933e-07 3.36969e-09 -4.5008e-09 5.77401e-08 -4.8136e-08 -2.8014e-07)
(-2.4891e-06 -6.45737e-10 -2.66563e-10 4.86866e-08 -4.51487e-08 -2.87523e-07)
(-2.76334e-06 -4.95159e-09 5.53811e-09 -2.42484e-07 -4.93499e-08 -2.45388e-07)
(-2.35756e-07 -7.90265e-09 9.03367e-09 -2.54129e-07 -4.90025e-08 -2.55051e-07)
(-2.34201e-07 7.20607e-09 -6.36002e-09 -2.60048e-07 -4.75067e-08 -2.6006e-07)
(-2.69427e-06 3.32818e-09 -3.15538e-09 -2.62689e-07 -4.44185e-08 -2.63434e-07)
(-2.95368e-06 -4.558e-09 8.12485e-09 -3.16124e-06 -2.14003e-08 -2.16239e-07)
(-2.02747e-07 -4.92031e-09 9.90951e-09 -3.06504e-06 -2.06668e-08 -2.26239e-07)
(-2.04981e-07 3.97991e-09 -8.31105e-09 -3.04451e-06 -1.98502e-08 -2.32487e-07)
(-2.90664e-06 2.22425e-09 -6.35488e-09 -3.11142e-06 -1.89693e-08 -2.37096e-07)
(-2.03522e-06 4.64002e-08 -5.01689e-09 4.30047e-07 -4.39122e-08 1.35342e-08)
(-1.85859e-07 -5.66109e-08 6.46753e-10 1.99284e-07 -3.76942e-08 1.21525e-08)
(-1.8293e-07 6.26315e-08 1.3929e-09 1.87615e-07 -3.29961e-08 1.05365e-08)
(-1.96791e-06 -4.20314e-08 5.85717e-09 3.92393e-07 -2.94149e-08 8.52888e-09)
(-2.05986e-06 -9.15623e-09 -3.52559e-09 4.58917e-08 -3.82646e-08 -2.15822e-08)
(-3.13814e-07 -1.89989e-08 1.51598e-09 1.61566e-07 -3.42484e-08 -2.27818e-08)
(-3.09801e-07 2.21805e-08 2.01453e-09 1.49779e-07 -3.03482e-08 -2.64869e-08)
(-1.98933e-06 1.07232e-08 5.08213e-09 1.13664e-08 -2.58307e-08 -3.27787e-08)
(-2.0914e-06 -1.09086e-08 -1.94786e-09 5.85466e-08 -4.57433e-08 -2.63716e-08)
(-3.20172e-07 -9.96061e-09 2.27387e-09 1.21317e-07 -4.31921e-08 -2.73589e-08)
(-3.162e-07 1.18083e-08 1.37488e-09 1.10865e-07 -3.99611e-08 -3.23665e-08)
(-2.01923e-06 1.16617e-08 3.61508e-09 2.79036e-08 -3.52125e-08 -4.1386e-08)
(-2.13863e-06 -2.51322e-09 -1.76291e-09 6.89836e-08 -5.42181e-08 -1.13026e-08)
(-3.04358e-07 -3.94097e-09 2.40442e-09 8.73355e-08 -5.17129e-08 -1.28894e-08)
(-3.00342e-07 5.00741e-09 9.02565e-10 7.77543e-08 -4.89294e-08 -1.86849e-08)
(-2.06474e-06 2.99867e-09 3.32929e-09 4.07798e-08 -4.51078e-08 -2.86334e-08)
(-2.22137e-06 2.84773e-09 -1.93531e-09 7.09081e-08 -5.83225e-08 9.80445e-09)
(-2.9646e-07 -5.41849e-10 2.38509e-09 7.24434e-08 -5.62997e-08 7.07476e-09)
(-2.92234e-07 9.00383e-10 5.60927e-10 6.32629e-08 -5.38256e-08 7.54824e-10)
(-2.14556e-06 -2.66071e-09 3.38556e-09 4.41147e-08 -5.03097e-08 -9.05543e-09)
(-2.35984e-06 1.8065e-09 -1.64319e-09 5.35086e-08 -5.67818e-08 3.61666e-08)
(-2.88496e-07 -1.93893e-09 2.77345e-09 4.56723e-08 -5.58624e-08 3.22337e-08)
(-2.84282e-07 1.55121e-09 -1.07116e-10 3.69651e-08 -5.36995e-08 2.54517e-08)
(-2.28279e-06 -2.29346e-09 3.00573e-09 2.79082e-08 -4.98328e-08 1.60111e-08)
(-2.56322e-06 -2.22319e-09 -2.34348e-10 -2.63156e-07 -4.7133e-08 6.8025e-08)
(-2.65557e-07 -6.41611e-09 3.75432e-09 -2.70696e-07 -4.64395e-08 6.33627e-08)
(-2.62779e-07 5.15493e-09 -1.57824e-09 -2.76263e-07 -4.4815e-08 5.6054e-08)
(-2.48966e-06 3.47111e-10 1.40689e-09 -2.82899e-07 -4.18331e-08 4.64727e-08)
(-2.78351e-06 -1.12474e-09 2.06461e-09 -2.97778e-06 -1.71862e-08 9.51833e-08)
(-2.41769e-07 -3.18311e-09 4.14209e-09 -2.85278e-06 -1.50689e-08 8.98266e-08)
(-2.42868e-07 2.17513e-09 -3.55431e-09 -2.83196e-06 -1.44368e-08 8.20629e-08)
(-2.73033e-06 -1.3062e-09 -1.60649e-09 -2.92818e-06 -1.51327e-08 7.24703e-08)
(-1.88703e-06 4.50848e-08 -4.76463e-09 3.90712e-07 -1.92664e-08 1.03732e-08)
(-1.78656e-07 -5.42982e-08 -4.85073e-10 1.69116e-07 -1.49801e-08 1.23509e-08)
(-1.76381e-07 5.7163e-08 2.41378e-09 1.58664e-07 -1.14763e-08 1.10962e-08)
(-1.82276e-06 -4.24066e-08 5.34228e-09 3.58366e-07 -8.54316e-09 6.758e-09)
(-1.92103e-06 -7.45561e-09 -5.45426e-09 2.67487e-08 -2.36134e-08 -6.81585e-10)
(-3.09396e-07 -1.85209e-08 -6.07177e-10 1.37132e-07 -2.00352e-08 2.50313e-09)
(-3.06035e-07 1.91831e-08 3.98121e-09 1.26054e-07 -1.67685e-08 -5.40152e-10)
(-1.85305e-06 8.01495e-09 6.61153e-09 -5.88098e-09 -1.3487e-08 -9.42429e-09)
(-1.95684e-06 -1.01861e-08 -4.42747e-09 4.9265e-08 -3.51523e-08 -6.307e-09)
(-3.2087e-07 -1.02614e-08 -1.13565e-10 1.10273e-07 -3.25626e-08 -3.06877e-09)
(-3.17343e-07 1.01e-08 3.59047e-09 1.00051e-07 -2.96145e-08 -7.33188e-09)
(-1.88674e-06 1.01747e-08 5.6859e-09 1.89845e-08 -2.58915e-08 -1.86295e-08)
(-2.00395e-06 -2.81659e-09 -4.1566e-09 6.364e-08 -4.6892e-08 2.77686e-09)
(-3.0672e-07 -4.58207e-09 -2.00374e-11 8.1801e-08 -4.4422e-08 5.52054e-09)
(-3.03016e-07 4.14418e-09 3.15036e-09 7.2247e-08 -4.17577e-08 4.11383e-10)
(-1.9318e-06 2.72016e-09 5.31128e-09 3.52246e-08 -3.848e-08 -1.20746e-08)
(-2.08447e-06 2.39004e-09 -4.51509e-09 6.16173e-08 -5.29375e-08 2.11134e-08)
(-2.98425e-07 -9.90107e-10 -2.70262e-10 6.27413e-08 -5.07965e-08 2.33958e-08)
(-2.94436e-07 3.39337e-10 3.00864e-09 5.35432e-08 -4.8401e-08 1.76537e-08)
(-2.01015e-06 -2.59449e-09 5.53006e-09 3.44875e-08 -4.54021e-08 4.37474e-09)
(-2.22021e-06 2.14841e-09 -4.79085e-09 3.87519e-08 -5.01296e-08 4.29989e-08)
(-2.90982e-07 -1.62711e-09 -3.68526e-10 3.13756e-08 -4.88464e-08 4.51615e-08)
(-2.86958e-07 6.97772e-10 2.72931e-09 2.26413e-08 -4.6799e-08 3.88941e-08)
(-2.14432e-06 -2.83865e-09 5.66737e-09 1.28155e-08 -4.36748e-08 2.472e-08)
(-2.42254e-06 -3.45239e-11 -4.16728e-09 -2.68856e-07 -3.75161e-08 6.20595e-08)
(-2.72247e-07 -4.95558e-09 2.45777e-11 -2.71409e-07 -3.64496e-08 6.43456e-08)
(-2.69626e-07 3.51011e-09 1.69625e-09 -2.77092e-07 -3.49945e-08 5.76564e-08)
(-2.34953e-06 -1.90157e-09 4.79746e-09 -2.89151e-07 -3.27808e-08 4.25457e-08)
(-2.65653e-06 2.20603e-09 -2.90209e-09 -2.84558e-06 -1.13113e-08 6.94376e-08)
(-2.55418e-07 -1.3493e-09 -2.01041e-10 -2.70476e-06 -9.24673e-09 7.1586e-08)
(-2.56653e-07 2.26878e-10 3.36316e-10 -2.68411e-06 -8.74958e-09 6.47369e-08)
(-2.60247e-06 -4.70898e-09 2.84765e-09 -2.79684e-06 -9.62375e-09 4.93965e-08)
(-1.79983e-06 4.25138e-08 -3.29872e-09 3.68967e-07 -1.32501e-08 4.17707e-09)
(-1.71193e-07 -5.42227e-08 -5.67284e-10 1.53947e-07 -9.40127e-09 5.66288e-09)
(-1.69566e-07 5.53042e-08 2.11259e-09 1.44583e-07 -6.9019e-09 4.70159e-09)
(-1.73822e-06 -4.09445e-08 3.74827e-09 3.40905e-07 -5.67353e-09 1.40751e-09)
(-1.83486e-06 -7.28482e-09 -4.52847e-09 1.02447e-08 -1.78315e-08 2.66961e-09)
(-2.99048e-07 -1.86948e-08 -9.88858e-10 1.17647e-07 -1.43624e-08 4.77241e-09)
(-2.96467e-07 1.79438e-08 3.78133e-09 1.07309e-07 -1.19149e-08 2.35859e-09)
(-1.76943e-06 7.25527e-09 5.45481e-09 -2.04007e-08 -1.03551e-08 -4.25395e-09)
(-1.87249e-06 -9.84431e-09 -4.16843e-09 3.23882e-08 -2.66738e-08 1.28451e-09)
(-3.12371e-07 -1.04634e-08 -8.06366e-10 9.21288e-08 -2.41414e-08 3.23457e-09)
(-3.09481e-07 9.17217e-09 3.74364e-09 8.22013e-08 -2.18178e-08 -2.43252e-10)
(-1.80464e-06 9.41278e-09 5.19552e-09 2.77114e-09 -1.94918e-08 -8.77031e-09)
(-1.91998e-06 -2.98565e-09 -4.0072e-09 4.93234e-08 -3.61647e-08 7.17997e-09)
(-2.99277e-07 -4.95969e-09 -7.82107e-10 6.72416e-08 -3.39294e-08 8.6592e-09)
(-2.96098e-07 3.67408e-09 3.44689e-09 5.77289e-08 -3.17533e-08 4.36618e-09)
(-1.84983e-06 2.56854e-09 4.95362e-09 2.08685e-08 -2.93911e-08 -5.33494e-09)
(-1.99935e-06 1.99556e-09 -4.26561e-09 4.95748e-08 -4.1115e-08 1.94502e-08)
(-2.90458e-07 -1.34424e-09 -1.01872e-09 5.04165e-08 -3.91517e-08 2.04157e-08)
(-2.86932e-07 1.33264e-10 3.32601e-09 4.11494e-08 -3.7167e-08 1.54646e-08)
(-1.92685e-06 -2.41469e-09 5.08181e-09 2.20874e-08 -3.49316e-08 4.93852e-09)
(-2.13314e-06 2.2627e-09 -4.53566e-09 2.93079e-08 -3.80659e-08 3.2756e-08)
(-2.82745e-07 -1.48259e-09 -1.21199e-09 2.24012e-08 -3.6732e-08 3.34267e-08)
(-2.79145e-07 2.57337e-10 3.13119e-09 1.35319e-08 -3.50467e-08 2.79403e-08)
(-2.05889e-06 -3.06057e-09 5.20499e-09 2.84698e-09 -3.27702e-08 1.66194e-08)
(-2.33393e-06 1.45153e-09 -4.25195e-09 -2.68595e-07 -2.68053e-08 3.99831e-08)
(-2.66378e-07 -3.92016e-09 -1.12452e-09 -2.67413e-07 -2.57649e-08 4.06645e-08)
(-2.64145e-07 2.35138e-09 2.41868e-09 -2.73314e-07 -2.4592e-08 3.48083e-08)
(-2.26219e-06 -3.4253e-09 4.67811e-09 -2.89621e-07 -2.29706e-08 2.268e-08)
(-2.57399e-06 4.55252e-09 -3.67557e-09 -2.76282e-06 -7.51617e-09 3.53395e-08)
(-2.53882e-07 -2.88433e-11 -1.60376e-09 -2.61377e-06 -6.01444e-09 3.64024e-08)
(-2.55484e-07 -1.21319e-09 1.53199e-09 -2.59333e-06 -5.62481e-09 3.04721e-08)
(-2.52026e-06 -7.12704e-09 3.51083e-09 -2.71489e-06 -6.17157e-09 1.7681e-08)
(-1.74779e-06 4.04081e-08 -1.97985e-09 3.53539e-07 -9.74027e-09 2.43266e-09)
(-1.65722e-07 -5.46919e-08 -3.38106e-10 1.43189e-07 -6.74662e-09 2.89312e-09)
(-1.64553e-07 5.47491e-08 1.4375e-09 1.34634e-07 -5.07667e-09 2.10863e-09)
(-1.688e-06 -3.95214e-08 2.3088e-09 3.28534e-07 -4.73114e-09 1.87393e-10)
(-1.78228e-06 -7.55679e-09 -2.89243e-09 -1.95258e-09 -1.35736e-08 4.75166e-09)
(-2.89859e-07 -1.90443e-08 -6.40074e-10 1.03839e-07 -1.07324e-08 4.78666e-09)
(-2.87854e-07 1.74815e-08 2.68139e-09 9.40898e-08 -9.06355e-09 2.78702e-09)
(-1.71868e-06 7.18245e-09 3.58204e-09 -3.09976e-08 -8.52379e-09 -9.46595e-10)
(-1.82033e-06 -9.78358e-09 -2.82831e-09 1.80602e-08 -1.92462e-08 6.73688e-09)
(-3.03132e-07 -1.0663e-08 -5.93359e-10 7.68748e-08 -1.71273e-08 6.16649e-09)
(-3.0073e-07 8.71286e-09 2.78988e-09 6.72217e-08 -1.54979e-08 3.23512e-09)
(-1.75412e-06 9.11045e-09 3.60752e-09 -1.08735e-08 -1.4249e-08 -1.69582e-09)
(-1.86795e-06 -3.10348e-09 -2.77714e-09 3.57133e-08 -2.52387e-08 1.13949e-08)
(-2.90337e-07 -5.19818e-09 -6.09752e-10 5.3325e-08 -2.34686e-08 1.02079e-08)
(-2.87567e-07 3.4034e-09 2.62948e-09 4.38734e-08 -2.19056e-08 6.51611e-09)
(-1.79929e-06 2.49736e-09 3.50515e-09 7.3511e-09 -2.04001e-08 6.59908e-10)
(-1.94669e-06 1.76287e-09 -2.92836e-09 3.89869e-08 -2.81995e-08 1.84701e-08)
(-2.81146e-07 -1.56729e-09 -7.71702e-10 3.9579e-08 -2.66906e-08 1.66498e-08)
(-2.77979e-07 3.02504e-12 2.51851e-09 3.0255e-08 -2.52461e-08 1.23117e-08)
(-1.87555e-06 -2.31514e-09 3.55654e-09 1.12501e-08 -2.3709e-08 5.75257e-09)
(-2.07925e-06 2.34185e-09 -3.08848e-09 2.29395e-08 -2.55914e-08 2.41571e-08)
(-2.73236e-07 -1.40225e-09 -9.21816e-10 1.63096e-08 -2.45414e-08 2.18515e-08)
(-2.69962e-07 -3.13176e-11 2.34753e-09 7.31118e-09 -2.33122e-08 1.69824e-08)
(-2.00622e-06 -3.21489e-09 3.59421e-09 -3.96843e-09 -2.17223e-08 9.79052e-09)
(-2.27869e-06 2.39595e-09 -2.94544e-09 -2.67792e-07 -1.74631e-08 2.30945e-08)
(-2.58316e-07 -3.27768e-09 -9.42193e-10 -2.64263e-07 -1.66992e-08 2.06558e-08)
(-2.56381e-07 1.59812e-09 1.86289e-09 -2.7035e-07 -1.58474e-08 1.54343e-08)
(-2.20793e-06 -4.40751e-09 3.25315e-09 -2.89422e-07 -1.46618e-08 7.56427e-09)
(-2.52168e-06 6.037e-09 -2.67374e-09 -2.71207e-06 -4.87803e-09 1.1805e-08)
(-2.48481e-07 7.95381e-10 -1.38853e-09 -2.55875e-06 -3.9333e-09 9.84804e-09)
(-2.50373e-07 -2.1399e-09 1.27007e-09 -2.53848e-06 -3.6507e-09 4.58237e-09)
(-2.46834e-06 -8.67515e-09 2.52975e-09 -2.66482e-06 -3.89515e-09 -4.03543e-09)
(-1.71799e-06 3.90976e-08 -1.03191e-09 3.43065e-07 -6.05983e-09 2.31821e-09)
(-1.62398e-07 -5.50604e-08 -1.45779e-10 1.35676e-07 -4.23779e-09 2.26128e-09)
(-1.61513e-07 5.45611e-08 7.99568e-10 1.27645e-07 -3.28058e-09 1.57897e-09)
(-1.65933e-06 -3.85989e-08 1.23174e-09 3.19993e-07 -3.2123e-09 3.91382e-10)
(-1.75193e-06 -7.79905e-09 -1.51725e-09 -1.0306e-08 -8.59225e-09 6.24511e-09)
(-2.8391e-07 -1.93e-08 -2.75718e-10 9.46812e-08 -6.79568e-09 5.19147e-09)
(-2.82265e-07 1.72929e-08 1.51119e-09 8.53256e-08 -5.83011e-09 3.44018e-09)
(-1.68949e-06 7.23483e-09 1.94131e-09 -3.82724e-08 -5.68928e-09 1.31271e-09)
(-1.78995e-06 -9.80937e-09 -1.51898e-09 8.39868e-09 -1.1733e-08 9.80995e-09)
(-2.96674e-07 -1.08099e-08 -2.5773e-10 6.66326e-08 -1.0356e-08 7.82079e-09)
(-2.94583e-07 8.48987e-09 1.60956e-09 5.71792e-08 -9.39931e-09 5.22658e-09)
(-1.7248e-06 9.00192e-09 2.00503e-09 -2.00145e-08 -8.81128e-09 2.41941e-09)
(-1.83753e-06 -3.1859e-09 -1.51378e-09 2.62613e-08 -1.48436e-08 1.38043e-08)
(-2.83814e-07 -5.34344e-09 -2.77659e-10 4.36081e-08 -1.37193e-08 1.10424e-08)
(-2.81305e-07 3.25004e-09 1.53577e-09 3.42135e-08 -1.27882e-08 7.73322e-09)
(-1.76984e-06 2.47011e-09 1.9735e-09 -1.977e-09 -1.19678e-08 4.25117e-09)
(-1.9159e-06 1.64263e-09 -1.59308e-09 3.16441e-08 -1.62237e-08 1.75393e-08)
(-2.74386e-07 -1.69153e-09 -3.68878e-10 3.20252e-08 -1.52949e-08 1.40793e-08)
(-2.71448e-07 -9.43723e-11 1.46057e-09 2.26695e-08 -1.44259e-08 1.01416e-08)
(-1.84566e-06 -2.27766e-09 1.99186e-09 3.77253e-09 -1.35225e-08 6.04836e-09)
(-2.04773e-06 2.40494e-09 -1.67077e-09 1.87297e-08 -1.44929e-08 1.82401e-08)
(-2.66429e-07 -1.35379e-09 -4.56183e-10 1.22108e-08 -1.38548e-08 1.42428e-08)
(-2.6336e-07 -2.25074e-10 1.34084e-09 3.12556e-09 -1.31121e-08 9.77957e-09)
(-1.97551e-06 -3.33067e-09 1.99039e-09 -8.46981e-09 -1.21499e-08 5.09656e-09)
(-2.24626e-06 2.95743e-09 -1.59721e-09 -2.67558e-07 -9.73959e-09 1.21628e-08)
(-2.52415e-07 -2.91254e-09 -4.91404e-10 -2.62714e-07 -9.30339e-09 7.98841e-09)
(-2.50666e-07 1.14612e-09 1.05217e-09 -2.68925e-07 -8.78799e-09 3.17808e-09)
(-2.17616e-06 -5.00054e-09 1.78932e-09 -2.89591e-07 -8.03757e-09 -2.15605e-09)
(-2.49074e-06 6.90394e-09 -1.46224e-09 -2.68265e-06 -2.74743e-09 -2.92074e-09)
(-2.44201e-07 1.26359e-09 -7.80998e-10 -2.52722e-06 -2.24478e-09 -6.64996e-09)
(-2.46276e-07 -2.68201e-09 6.94184e-10 -2.50707e-06 -2.07344e-09 -1.14902e-08)
(-2.43771e-06 -9.58892e-09 1.3721e-09 -2.63586e-06 -2.14852e-09 -1.75342e-08)
(-1.70433e-06 3.84915e-08 -3.19413e-10 3.37737e-07 -2.06069e-09 2.49305e-09)
(-1.60861e-07 -5.52313e-08 -3.77841e-11 1.3177e-07 -1.45817e-09 2.2755e-09)
(-1.60112e-07 5.44888e-08 2.54477e-10 1.23995e-07 -1.14648e-09 1.64153e-09)
(-1.64621e-06 -3.81684e-08 3.86174e-10 3.15598e-07 -1.13751e-09 7.19266e-10)
(-1.738e-06 -7.91591e-09 -4.65846e-10 -1.46118e-08 -2.93845e-09 7.04764e-09)
(-2.81114e-07 -1.94172e-08 -6.84271e-11 9.00473e-08 -2.33227e-09 5.6558e-09)
(-2.79643e-07 1.72145e-08 4.81417e-10 8.08863e-08 -2.01659e-09 4.02311e-09)
(-1.67611e-06 7.26773e-09 6.08503e-10 -4.20413e-08 -1.99252e-09 2.48659e-09)
(-1.77593e-06 -9.83208e-09 -4.68686e-10 3.59007e-09 -3.94624e-09 1.11255e-08)
(-2.93548e-07 -1.08814e-08 -6.10659e-11 6.15531e-08 -3.47361e-09 8.6665e-09)
(-2.91608e-07 8.39469e-09 5.16831e-10 5.22028e-08 -3.15881e-09 6.23503e-09)
(-1.71131e-06 8.96444e-09 6.33436e-10 -2.45481e-08 -2.98678e-09 4.24634e-09)
(-1.82347e-06 -3.22833e-09 -4.7032e-10 2.15689e-08 -4.89425e-09 1.47407e-08)
(-2.80587e-07 -5.41239e-09 -6.85583e-11 3.87695e-08 -4.5106e-09 1.14292e-08)
(-2.78206e-07 3.17941e-09 4.95599e-10 2.9408e-08 -4.20212e-09 8.30712e-09)
(-1.75624e-06 2.46152e-09 6.27192e-10 -6.58931e-09 -3.94234e-09 5.77632e-09)
(-1.90166e-06 1.59117e-09 -4.9536e-10 2.79691e-08 -5.27639e-09 1.68936e-08)
(-2.7104e-07 -1.74744e-09 -9.79771e-11 2.82281e-08 -4.96478e-09 1.28602e-08)
(-2.68214e-07 -1.47245e-10 4.69583e-10 1.88598e-08 -4.6754e-09 9.12046e-09)
(-1.83185e-06 -2.26667e-09 6.31931e-10 4.32917e-11 -4.37674e-09 6.02184e-09)
(-2.03315e-06 2.4401e-09 -5.18383e-10 1.65902e-08 -4.67203e-09 1.52386e-08)
(-2.63089e-07 -1.33068e-09 -1.26407e-10 1.01e-08 -4.46099e-09 1.06686e-08)
(-2.60121e-07 -3.23979e-10 4.26985e-10 9.73125e-10 -4.2129e-09 6.40661e-09)
(-1.96132e-06 -3.39339e-09 6.27779e-10 -1.0748e-08 -3.88845e-09 2.71578e-09)
(-2.23123e-06 3.22201e-09 -4.94935e-10 -2.67596e-07 -3.11897e-09 6.82309e-09)
(-2.4953e-07 -2.74669e-09 -1.41101e-10 -2.6217e-07 -2.98018e-09 2.0776e-09)
(-2.47871e-07 9.32666e-10 3.30475e-10 -2.68443e-07 -2.80777e-09 -2.52974e-09)
(-2.16145e-06 -5.28275e-09 5.605e-10 -2.89828e-07 -2.5484e-09 -6.88226e-09)
(-2.47637e-06 7.30548e-09 -4.51918e-10 -2.66908e-06 -8.84578e-10 -1.00352e-08)
(-2.4211e-07 1.47529e-09 -2.39347e-10 -2.5128e-06 -7.28688e-10 -1.43645e-08)
(-2.44273e-07 -2.93248e-09 2.08956e-10 -2.49271e-06 -6.71312e-10 -1.89954e-08)
(-2.42351e-06 -1.00151e-08 4.21618e-10 -2.62253e-06 -6.83492e-10 -2.40291e-08)
)
;

boundaryField
{
    interface
    {
        type            calculated;
        value           nonuniform List<symmTensor> 
192
(
(-4.65902e-06 1.632e-12 2.65309e-11 8.31342e-07 3.00206e-08 -2.71973e-06)
(-4.42817e-06 9.5879e-14 3.81381e-11 -1.17244e-07 -2.81676e-08 -2.66876e-06)
(-4.51191e-06 -2.16982e-12 3.97869e-11 -6.25693e-08 -2.6967e-08 -2.70415e-06)
(-4.63187e-06 -4.60674e-12 3.94334e-11 1.1627e-08 -2.00537e-08 -2.76091e-06)
(-4.79855e-06 -6.75833e-12 3.80977e-11 6.52886e-08 -1.71877e-08 -2.84653e-06)
(-5.05741e-06 -1.10784e-11 3.64007e-11 9.59683e-08 -1.93276e-08 -2.97901e-06)
(-5.42237e-06 -1.39909e-11 3.27573e-11 -2.15479e-07 -2.18634e-08 -3.16163e-06)
(-5.70734e-06 -2.96616e-11 2.97066e-11 -3.31111e-06 -1.35077e-08 -3.31099e-06)
(-4.15516e-06 9.11865e-13 1.37673e-11 5.37063e-07 -1.26338e-07 -2.19382e-07)
(-3.9948e-06 -6.19505e-13 2.07815e-11 3.8498e-08 -6.2673e-08 -3.09741e-07)
(-4.05663e-06 -2.78549e-12 2.14831e-11 3.16096e-08 -5.19964e-08 -3.04252e-07)
(-4.16654e-06 -5.42521e-12 2.09495e-11 5.1079e-08 -5.03555e-08 -2.91338e-07)
(-4.33615e-06 -7.81417e-12 1.98257e-11 7.2047e-08 -4.9868e-08 -2.82777e-07)
(-4.61343e-06 -1.27083e-11 1.84794e-11 7.45878e-08 -5.11389e-08 -2.70866e-07)
(-5.02776e-06 -1.59659e-11 1.61244e-11 -2.42484e-07 -4.93499e-08 -2.45388e-07)
(-5.42281e-06 -3.2746e-11 1.41474e-11 -3.16124e-06 -2.14003e-08 -2.16239e-07)
(-3.69791e-06 7.57738e-13 1.11944e-11 4.30047e-07 -4.39122e-08 1.35342e-08)
(-3.60071e-06 -9.16622e-13 1.67513e-11 4.58917e-08 -3.82646e-08 -2.15822e-08)
(-3.66323e-06 -3.24692e-12 1.73012e-11 5.85466e-08 -4.57433e-08 -2.63716e-08)
(-3.7667e-06 -6.20554e-12 1.68608e-11 6.89836e-08 -5.42181e-08 -1.13026e-08)
(-3.92963e-06 -8.95531e-12 1.59496e-11 7.09081e-08 -5.83225e-08 9.80445e-09)
(-4.20102e-06 -1.45005e-11 1.48318e-11 5.35086e-08 -5.67818e-08 3.61666e-08)
(-4.61466e-06 -1.83214e-11 1.3011e-11 -2.63156e-07 -4.7133e-08 6.8025e-08)
(-5.05903e-06 -3.64516e-11 1.13655e-11 -2.97778e-06 -1.71862e-08 9.51833e-08)
(-3.41862e-06 4.67833e-13 7.17838e-12 3.90712e-07 -1.92664e-08 1.03732e-08)
(-3.33782e-06 -1.33005e-12 1.10743e-11 2.67487e-08 -2.36134e-08 -6.81585e-10)
(-3.40331e-06 -3.74046e-12 1.14203e-11 4.9265e-08 -3.51523e-08 -6.307e-09)
(-3.50521e-06 -6.86074e-12 1.10428e-11 6.364e-08 -4.6892e-08 2.77686e-09)
(-3.66472e-06 -9.79788e-12 1.03481e-11 6.16173e-08 -5.29375e-08 2.11134e-08)
(-3.93117e-06 -1.56507e-11 9.51678e-12 3.87519e-08 -5.01296e-08 4.29989e-08)
(-4.33972e-06 -1.97155e-11 8.30725e-12 -2.68856e-07 -3.75161e-08 6.20595e-08)
(-4.80347e-06 -3.82882e-11 7.22709e-12 -2.84558e-06 -1.13113e-08 6.94376e-08)
(-3.25699e-06 3.62737e-13 5.3663e-12 3.68967e-07 -1.32501e-08 4.17707e-09)
(-3.18145e-06 -1.56151e-12 8.24684e-12 1.02447e-08 -1.78315e-08 2.66961e-09)
(-3.24843e-06 -4.0966e-12 8.5086e-12 3.23882e-08 -2.66738e-08 1.28451e-09)
(-3.35013e-06 -7.37549e-12 8.22704e-12 4.93234e-08 -3.61647e-08 7.17997e-09)
(-3.50811e-06 -1.04944e-11 7.71186e-12 4.95748e-08 -4.1115e-08 1.94502e-08)
(-3.7715e-06 -1.66068e-11 7.08299e-12 2.93079e-08 -3.80659e-08 3.2756e-08)
(-4.17536e-06 -2.09053e-11 6.20798e-12 -2.68595e-07 -2.68053e-08 3.99831e-08)
(-4.64616e-06 -3.98641e-11 5.39483e-12 -2.76282e-06 -7.51617e-09 3.53395e-08)
(-3.16116e-06 2.6038e-13 3.39657e-12 3.53539e-07 -9.74027e-09 2.43266e-09)
(-3.08815e-06 -1.75482e-12 5.30296e-12 -1.95258e-09 -1.35736e-08 4.75166e-09)
(-3.15571e-06 -4.37083e-12 5.47354e-12 1.80602e-08 -1.92462e-08 6.73688e-09)
(-3.25738e-06 -7.7456e-12 5.27603e-12 3.57133e-08 -2.52387e-08 1.13949e-08)
(-3.41457e-06 -1.0972e-11 4.9291e-12 3.89869e-08 -2.81995e-08 1.84701e-08)
(-3.67597e-06 -1.72268e-11 4.50849e-12 2.29395e-08 -2.55914e-08 2.41571e-08)
(-4.07614e-06 -2.16515e-11 3.95317e-12 -2.67792e-07 -1.74631e-08 2.30945e-08)
(-4.54962e-06 -4.0819e-11 3.43873e-12 -2.71207e-06 -4.87803e-09 1.1805e-08)
(-3.10638e-06 2.18878e-13 2.00619e-12 3.43065e-07 -6.05983e-09 2.31821e-09)
(-3.03473e-06 -1.86073e-12 3.12374e-12 -1.0306e-08 -8.59225e-09 6.24511e-09)
(-3.10248e-06 -4.54203e-12 3.22673e-12 8.39868e-09 -1.1733e-08 9.80995e-09)
(-3.20412e-06 -7.98651e-12 3.11154e-12 2.62613e-08 -1.48436e-08 1.38043e-08)
(-3.36085e-06 -1.12908e-11 2.91052e-12 3.16441e-08 -1.62237e-08 1.75393e-08)
(-3.62101e-06 -1.76418e-11 2.66089e-12 1.87297e-08 -1.44929e-08 1.82401e-08)
(-4.0187e-06 -2.21561e-11 2.342e-12 -2.67558e-07 -9.73959e-09 1.21628e-08)
(-4.49321e-06 -4.14673e-11 2.03307e-12 -2.68265e-06 -2.74743e-09 -2.92074e-09)
(-3.08127e-06 1.88568e-13 6.25706e-13 3.37737e-07 -2.06069e-09 2.49305e-09)
(-3.01023e-06 -1.92051e-12 9.90278e-13 -1.46118e-08 -2.93845e-09 7.04764e-09)
(-3.07804e-06 -4.62905e-12 1.02339e-12 3.59007e-09 -3.94624e-09 1.11255e-08)
(-3.17964e-06 -8.10233e-12 9.84186e-13 2.15689e-08 -4.89425e-09 1.47407e-08)
(-3.33616e-06 -1.14414e-11 9.18934e-13 2.79691e-08 -5.27639e-09 1.68936e-08)
(-3.59571e-06 -1.78317e-11 8.3705e-13 1.65902e-08 -4.67203e-09 1.52386e-08)
(-3.99217e-06 -2.23885e-11 7.38029e-13 -2.67596e-07 -3.11897e-09 6.82309e-09)
(-4.46706e-06 -4.17628e-11 6.37888e-13 -2.66908e-06 -8.84578e-10 -1.00352e-08)
(-2.53067e-06 3.66977e-08 -4.08593e-11 8.31342e-07 -5.16108e-12 -4.98867e-06)
(-2.47776e-06 -1.5782e-08 -6.03815e-11 -1.17244e-07 -4.67754e-12 -4.75835e-06)
(-2.516e-06 -1.0507e-08 -6.36429e-11 -6.25693e-08 -2.88404e-12 -4.84203e-06)
(-2.57161e-06 -9.81051e-10 -6.38229e-11 1.1627e-08 -2.14937e-12 -4.96266e-06)
(-2.65495e-06 2.62249e-09 -6.3168e-11 6.52886e-08 -1.92125e-12 -5.13017e-06)
(-2.78252e-06 -1.1035e-09 -6.25823e-11 9.59683e-08 -2.36385e-12 -5.39226e-06)
(-2.95327e-06 -7.27214e-09 -6.15542e-11 -2.15479e-07 -2.73066e-12 -5.77059e-06)
(-3.08446e-06 -5.86141e-09 -6.36837e-11 -3.31111e-06 -3.98765e-12 -6.08849e-06)
(-1.84751e-07 -7.18147e-08 -3.01953e-11 5.64776e-07 -2.42722e-12 -4.69097e-06)
(-2.90104e-07 -2.0115e-08 -4.77399e-11 2.41167e-08 -2.44626e-12 -4.5099e-06)
(-2.87146e-07 -6.35843e-09 -5.02389e-11 8.79071e-09 -1.31488e-12 -4.56706e-06)
(-2.69741e-07 -1.78992e-10 -5.01844e-11 3.1604e-08 -6.25994e-13 -4.67916e-06)
(-2.58749e-07 1.68376e-09 -4.97929e-11 6.76747e-08 -1.78791e-13 -4.85409e-06)
(-2.41408e-07 -1.90797e-09 -4.97003e-11 8.78452e-08 -3.34932e-14 -5.13956e-06)
(-2.02251e-07 -8.23145e-09 -4.97793e-11 -2.27069e-07 -1.21739e-14 -5.5687e-06)
(-1.61624e-07 -5.27491e-09 -5.31268e-11 -3.25838e-06 -4.03278e-13 -5.97437e-06)
(-1.84521e-07 9.56172e-08 -3.22569e-11 5.54406e-07 -1.30099e-12 -4.65182e-06)
(-2.89972e-07 3.76057e-08 -5.07571e-11 1.2373e-08 -1.23162e-12 -4.46748e-06)
(-2.87322e-07 1.92904e-08 -5.35933e-11 -2.43901e-09 -3.81463e-13 -4.5232e-06)
(-2.70134e-07 9.64759e-09 -5.35523e-11 2.12685e-08 3.82051e-13 -4.63483e-06)
(-2.59207e-07 4.97792e-09 -5.29834e-11 5.78577e-08 1.0265e-12 -4.8096e-06)
(-2.42099e-07 6.06623e-09 -5.2513e-11 7.82991e-08 1.61022e-12 -5.095e-06)
(-2.04387e-07 9.59425e-09 -5.19812e-11 -2.34201e-07 2.04007e-12 -5.5244e-06)
(-1.67148e-07 4.54867e-09 -5.46452e-11 -3.2412e-06 2.16277e-12 -5.93512e-06)
(-2.4792e-06 -2.56899e-08 -3.77924e-11 7.91681e-07 -8.22072e-13 -4.8847e-06)
(-2.42455e-06 2.32773e-08 -5.89862e-11 -1.52223e-07 -5.58956e-13 -4.65018e-06)
(-2.46218e-06 1.59157e-08 -6.23921e-11 -9.44113e-08 2.64575e-13 -4.73073e-06)
(-2.51734e-06 4.95209e-09 -6.24084e-11 -1.75633e-08 1.137e-12 -4.85002e-06)
(-2.60047e-06 1.57013e-10 -6.15803e-11 3.76608e-08 1.88911e-12 -5.01683e-06)
(-2.72914e-06 2.51993e-09 -6.08098e-11 6.89438e-08 2.75965e-12 -5.27825e-06)
(-2.90624e-06 6.66591e-09 -5.93321e-11 -2.38208e-07 3.45168e-12 -5.656e-06)
(-3.05847e-06 3.85791e-09 -6.17422e-11 -3.26839e-06 4.382e-12 -5.98469e-06)
(-4.55652e-06 5.39648e-12 1.79332e-11 7.91681e-07 3.95033e-08 -2.66928e-06)
(-4.32203e-06 3.2911e-12 2.73476e-11 -1.52223e-07 -2.21549e-08 -2.6186e-06)
(-4.40393e-06 -8.32753e-13 2.85529e-11 -9.44113e-08 -2.27827e-08 -2.65365e-06)
(-4.52255e-06 -4.0982e-12 2.83533e-11 -1.75633e-08 -1.68023e-08 -2.71033e-06)
(-4.68867e-06 -6.32306e-12 2.76584e-11 3.76608e-08 -1.44311e-08 -2.79588e-06)
(-4.94926e-06 -1.01088e-11 2.75093e-11 6.89438e-08 -1.67621e-08 -2.92821e-06)
(-5.32403e-06 -1.07273e-11 2.60085e-11 -2.38208e-07 -1.9255e-08 -3.11118e-06)
(-5.6443e-06 -2.70144e-11 2.73948e-11 -3.26839e-06 -1.13047e-08 -3.26792e-06)
(-4.02581e-06 1.64723e-12 4.86034e-12 4.94686e-07 -1.08645e-07 -2.23853e-07)
(-3.86309e-06 2.17185e-13 9.47743e-12 3.17828e-09 -5.02037e-08 -3.19951e-07)
(-3.92225e-06 -2.23333e-12 9.64188e-12 9.33069e-10 -4.25123e-08 -3.17608e-07)
(-4.02935e-06 -4.73444e-12 9.30667e-12 2.29678e-08 -4.25958e-08 -3.06341e-07)
(-4.1963e-06 -6.33268e-12 9.03167e-12 4.52501e-08 -4.31453e-08 -2.98688e-07)
(-4.47225e-06 -9.84511e-12 9.43112e-12 4.86866e-08 -4.51487e-08 -2.87523e-07)
(-4.89273e-06 -8.93259e-12 9.40468e-12 -2.62689e-07 -4.44185e-08 -2.63434e-07)
(-5.32426e-06 -2.56598e-11 1.1236e-11 -3.11142e-06 -1.89693e-08 -2.37096e-07)
(-3.56915e-06 7.66976e-13 6.27673e-12 3.92393e-07 -2.94149e-08 8.52888e-09)
(-3.46767e-06 -7.39412e-13 1.08644e-11 1.13664e-08 -2.58307e-08 -3.27787e-08)
(-3.52684e-06 -2.79269e-12 1.13733e-11 2.79036e-08 -3.52125e-08 -4.1386e-08)
(-3.62695e-06 -5.20101e-12 1.11941e-11 4.07798e-08 -4.51078e-08 -2.86334e-08)
(-3.78648e-06 -6.6687e-12 1.08889e-11 4.41147e-08 -5.03097e-08 -9.05543e-09)
(-4.05534e-06 -1.02865e-11 1.09046e-11 2.79082e-08 -4.98328e-08 1.60111e-08)
(-4.47311e-06 -8.93262e-12 1.04629e-11 -2.82899e-07 -4.18331e-08 4.64727e-08)