/*--------------------------------*- C++ -*----------------------------------*\
| =========                 |                                                 |
| \\      /  F ield         | OpenFOAM: The Open Source CFD Toolbox           |
|  \\    /   O peration     | Version:  v1912                                 |
|   \\  /    A nd           | Website:  www.openfoam.com                      |
|    \\/     M anipulation  |                                                 |
\*---------------------------------------------------------------------------*/
FoamFile
{
    version     2.0;
    format      ascii;
    class       pointVectorField;
    location    "0.24/solid";
    object      pointDD;
}
// * * * * * * * * * * * * * * * * * * * * * * * * * * * * * * * * * * * * * //

dimensions      [0 1 0 0 0 0 0];


internalField   nonuniform List<vector> 
405
(
(3.43546e-10 6.37773e-10 3.22356e-10)
(1.67946e-10 4.17972e-10 1.30175e-10)
(-1.48422e-12 3.28576e-10 5.84211e-11)
(-1.66743e-10 4.11596e-10 1.23779e-10)
(-3.12398e-10 6.22034e-10 3.13852e-10)
(6.77791e-10 6.92419e-10 7.86679e-10)
(4.52671e-10 6.35433e-10 5.49753e-10)
(-1.74955e-12 5.02178e-10 3.96831e-10)
(-4.46659e-10 6.24493e-10 5.37903e-10)
(-6.26134e-10 6.72636e-10 7.74506e-10)
(8.50933e-10 1.82724e-10 1.30666e-09)
(5.77952e-10 2.24585e-10 1.0564e-09)
(1.10191e-12 1.65445e-10 8.90812e-10)
(-5.65199e-10 2.16511e-10 1.04527e-09)
(-7.91111e-10 1.68768e-10 1.29505e-09)
(8.40376e-10 -2.68283e-10 1.71978e-09)
(5.68271e-10 -1.88399e-10 1.46791e-09)
(4.05361e-12 -2.15099e-10 1.29315e-09)
(-5.49816e-10 -1.94694e-10 1.45632e-09)
(-7.74666e-10 -2.79003e-10 1.70803e-09)
(8.14953e-10 -6.69916e-10 2.11771e-09)
(5.43552e-10 -6.03214e-10 1.85798e-09)
(6.4566e-12 -6.36774e-10 1.66887e-09)
(-5.20374e-10 -6.08159e-10 1.84595e-09)
(-7.44315e-10 -6.78392e-10 2.10571e-09)
(8.62487e-10 -1.07521e-09 2.54599e-09)
(5.73109e-10 -1.0505e-09 2.26858e-09)
(8.48639e-12 -1.10921e-09 2.06119e-09)
(-5.45887e-10 -1.05438e-09 2.25617e-09)
(-7.87484e-10 -1.08196e-09 2.53384e-09)
(1.07605e-09 -1.59565e-09 3.04487e-09)
(7.2697e-10 -1.60365e-09 2.7363e-09)
(1.01444e-11 -1.66498e-09 2.51161e-09)
(-6.96234e-10 -1.60711e-09 2.72346e-09)
(-9.96364e-10 -1.60161e-09 3.03267e-09)
(1.57341e-09 -2.62376e-09 3.67019e-09)
(1.02668e-09 -2.57535e-09 3.39936e-09)
(1.08205e-11 -2.54302e-09 3.17955e-09)
(-9.93324e-10 -2.57741e-09 3.38535e-09)
(-1.48447e-09 -2.6276e-09 3.65728e-09)
(1.92514e-09 -3.33319e-09 4.07325e-09)
(1.20906e-09 -3.17248e-09 3.93391e-09)
(1.13239e-11 -3.01251e-09 3.77223e-09)
(-1.17363e-09 -3.16733e-09 3.92466e-09)
(-1.84496e-09 -3.32936e-09 4.06243e-09)
(8.54666e-11 2.9613e-10 1.60864e-10)
(0 0 0)
(0 0 0)
(0 0 0)
(-4.80889e-11 2.84277e-10 1.59144e-10)
(2.74583e-10 3.5109e-10 5.76827e-10)
(0 0 0)
(0 0 0)
(0 0 0)
(-1.95331e-10 3.30835e-10 5.73008e-10)
(3.81867e-10 -1.14869e-10 1.04254e-09)
(0 0 0)
(0 0 0)
(0 0 0)
(-2.94747e-10 -1.29854e-10 1.03855e-09)
(3.6594e-10 -5.35472e-10 1.44498e-09)
(0 0 0)
(0 0 0)
(0 0 0)
(-2.72623e-10 -5.47427e-10 1.44132e-09)
(3.4184e-10 -9.18511e-10 1.831e-09)
(0 0 0)
(0 0 0)
(0 0 0)
(-2.4325e-10 -9.28254e-10 1.82752e-09)
(3.82839e-10 -1.29339e-09 2.23954e-09)
(0 0 0)
(0 0 0)
(0 0 0)
(-2.79388e-10 -1.30145e-09 2.2362e-09)
(5.72877e-10 -1.732e-09 2.69328e-09)
(0 0 0)
(0 0 0)
(0 0 0)
(-4.63573e-10 -1.73936e-09 2.69001e-09)
(1.1e-09 -2.57354e-09 3.13371e-09)
(0 0 0)
(0 0 0)
(0 0 0)
(-9.75953e-10 -2.57883e-09 3.12999e-09)
(1.57518e-09 -3.11008e-09 3.38634e-09)
(1.02879e-09 -2.84104e-09 3.40467e-09)
(1.30453e-11 -2.62312e-09 3.37089e-09)
(-9.90979e-10 -2.83105e-09 3.40244e-09)
(-1.48274e-09 -3.10463e-09 3.38255e-09)
(-8.79105e-11 7.94933e-11 3.38853e-11)
(0 0 0)
(0 0 0)
(0 0 0)
(1.20274e-10 6.92616e-11 3.35615e-11)
(-1.36664e-10 -3.60112e-11 2.48448e-10)
(0 0 0)
(0 0 0)
(0 0 0)
(2.0522e-10 -5.38586e-11 2.47401e-10)
(-1.05497e-10 -4.22257e-10 6.26479e-10)
(0 0 0)
(0 0 0)
(0 0 0)
(1.81199e-10 -4.36231e-10 6.25006e-10)
(-1.33992e-10 -7.93366e-10 1.01051e-09)
(0 0 0)
(0 0 0)
(0 0 0)
(2.159e-10 -8.05124e-10 1.00908e-09)
(-1.61199e-10 -1.1446e-09 1.37899e-09)
(0 0 0)
(0 0 0)
(0 0 0)
(2.48626e-10 -1.15455e-09 1.37768e-09)
(-1.26404e-10 -1.47012e-09 1.74187e-09)
(0 0 0)
(0 0 0)
(0 0 0)
(2.19171e-10 -1.47867e-09 1.74058e-09)
(5.5145e-11 -1.79534e-09 2.07952e-09)
(0 0 0)
(0 0 0)
(0 0 0)
(4.41419e-11 -1.80343e-09 2.07806e-09)
(5.74645e-10 -2.40379e-09 2.28864e-09)
(0 0 0)
(0 0 0)
(0 0 0)
(-4.60119e-10 -2.40985e-09 2.28668e-09)
(1.07947e-09 -2.75516e-09 2.35694e-09)
(7.30707e-10 -2.44894e-09 2.43349e-09)
(1.46629e-11 -2.22641e-09 2.4941e-09)
(-6.90902e-10 -2.44011e-09 2.43245e-09)
(-9.91354e-10 -2.75061e-09 2.35492e-09)
(-1.47731e-10 -3.15848e-12 3.6361e-11)
(0 0 0)
(0 0 0)
(0 0 0)
(1.78661e-10 -1.30179e-11 3.61366e-11)
(-2.92569e-10 -1.9774e-10 2.1969e-10)
(0 0 0)
(0 0 0)
(0 0 0)
(3.58154e-10 -2.14901e-10 2.18952e-10)
(-3.0434e-10 -5.74543e-10 5.3795e-10)
(0 0 0)
(0 0 0)
(0 0 0)
(3.77014e-10 -5.88058e-10 5.36812e-10)
(-3.36872e-10 -9.27915e-10 8.78209e-10)
(0 0 0)
(0 0 0)
(0 0 0)
(4.15931e-10 -9.39524e-10 8.7695e-10)
(-3.58045e-10 -1.2432e-09 1.2068e-09)
(0 0 0)
(0 0 0)
(0 0 0)
(4.4298e-10 -1.25324e-09 1.20553e-09)
(-3.1673e-10 -1.5033e-09 1.50782e-09)
(0 0 0)
(0 0 0)
(0 0 0)
(4.07598e-10 -1.51211e-09 1.50652e-09)
(-1.29637e-10 -1.73031e-09 1.74441e-09)
(0 0 0)
(0 0 0)
(0 0 0)
(2.27887e-10 -1.7388e-09 1.74295e-09)
(3.8145e-10 -2.22254e-09 1.84273e-09)
(0 0 0)
(0 0 0)
(0 0 0)
(-2.67236e-10 -2.22884e-09 1.84091e-09)
(8.62398e-10 -2.52927e-09 1.83498e-09)
(5.74422e-10 -2.25474e-09 1.88309e-09)
(1.53208e-11 -2.04938e-09 1.94189e-09)
(-5.33429e-10 -2.24621e-09 1.88212e-09)
(-7.73788e-10 -2.52484e-09 1.83319e-09)
(-1.68209e-10 -2.88958e-11 4.384e-11)
(0 0 0)
(0 0 0)
(0 0 0)
(1.98639e-10 -3.86722e-11 4.37429e-11)
(-3.46165e-10 -2.50097e-10 2.10853e-10)
(0 0 0)
(0 0 0)
(0 0 0)
(4.10678e-10 -2.67087e-10 2.1053e-10)
(-3.72407e-10 -6.27557e-10 4.72777e-10)
(0 0 0)
(0 0 0)
(0 0 0)
(4.43978e-10 -6.40928e-10 4.72252e-10)
(-4.03676e-10 -9.7207e-10 7.49887e-10)
(0 0 0)
(0 0 0)
(0 0 0)
(4.81782e-10 -9.83617e-10 7.49258e-10)
(-4.17572e-10 -1.25908e-09 1.01535e-09)
(0 0 0)
(0 0 0)
(0 0 0)
(5.01849e-10 -1.26916e-09 1.01467e-09)
(-3.68484e-10 -1.47226e-09 1.24525e-09)
(0 0 0)
(0 0 0)
(0 0 0)
(4.59166e-10 -1.48123e-09 1.2445e-09)
(-1.76646e-10 -1.64709e-09 1.40641e-09)
(0 0 0)
(0 0 0)
(0 0 0)
(2.75368e-10 -1.65586e-09 1.40551e-09)
(3.26792e-10 -2.09496e-09 1.45916e-09)
(0 0 0)
(0 0 0)
(0 0 0)
(-2.11501e-10 -2.10153e-09 1.45804e-09)
(7.99366e-10 -2.38297e-09 1.43267e-09)
(5.33136e-10 -2.12612e-09 1.4439e-09)
(1.57063e-11 -1.93776e-09 1.47592e-09)
(-4.91268e-10 -2.11774e-09 1.44343e-09)
(-7.09612e-10 -2.37871e-09 1.43167e-09)
(-1.73912e-10 -3.51106e-11 3.97941e-11)
(0 0 0)
(0 0 0)
(0 0 0)
(2.04236e-10 -4.4837e-11 3.97969e-11)
(-3.58575e-10 -2.60427e-10 1.75722e-10)
(0 0 0)
(0 0 0)
(0 0 0)
(4.22826e-10 -2.77334e-10 1.75713e-10)
(-3.84465e-10 -6.33464e-10 3.75818e-10)
(0 0 0)
(0 0 0)
(0 0 0)
(4.55744e-10 -6.46781e-10 3.75771e-10)
(-4.11513e-10 -9.68965e-10 5.82475e-10)
(0 0 0)
(0 0 0)
(0 0 0)
(4.89419e-10 -9.80497e-10 5.82382e-10)
(-4.1923e-10 -1.23744e-09 7.77203e-10)
(0 0 0)
(0 0 0)
(0 0 0)
(5.03513e-10 -1.24756e-09 7.77061e-10)
(-3.64348e-10 -1.42595e-09 9.39625e-10)
(0 0 0)
(0 0 0)
(0 0 0)
(4.55364e-10 -1.43507e-09 9.39409e-10)
(-1.69976e-10 -1.58031e-09 1.04673e-09)
(0 0 0)
(0 0 0)
(0 0 0)
(2.69484e-10 -1.58937e-09 1.0464e-09)
(3.27265e-10 -2.01275e-09 1.07886e-09)
(0 0 0)
(0 0 0)
(0 0 0)
(-2.10742e-10 -2.01974e-09 1.0784e-09)
(7.9734e-10 -2.28907e-09 1.05499e-09)
(5.3722e-10 -2.03994e-09 1.04862e-09)
(1.59894e-11 -1.86328e-09 1.06154e-09)
(-4.947e-10 -2.03173e-09 1.04858e-09)
(-7.06506e-10 -2.28518e-09 1.05469e-09)
(-1.75384e-10 -3.56605e-11 2.89091e-11)
(0 0 0)
(0 0 0)
(0 0 0)
(2.05762e-10 -4.53449e-11 2.89525e-11)
(-3.59626e-10 -2.5789e-10 1.23231e-10)
(0 0 0)
(0 0 0)
(0 0 0)
(4.23948e-10 -2.74728e-10 1.23351e-10)
(-3.81526e-10 -6.23572e-10 2.57444e-10)
(0 0 0)
(0 0 0)
(0 0 0)
(4.52837e-10 -6.36854e-10 2.57601e-10)
(-4.04259e-10 -9.50448e-10 3.93267e-10)
(0 0 0)
(0 0 0)
(0 0 0)
(4.82236e-10 -9.61978e-10 3.93418e-10)
(-4.0764e-10 -1.20806e-09 5.19251e-10)
(0 0 0)
(0 0 0)
(0 0 0)
(4.92115e-10 -1.21824e-09 5.1937e-10)
(-3.49326e-10 -1.38604e-09 6.22026e-10)
(0 0 0)
(0 0 0)
(0 0 0)
(4.40742e-10 -1.39529e-09 6.22086e-10)
(-1.54039e-10 -1.53448e-09 6.88036e-10)
(0 0 0)
(0 0 0)
(0 0 0)
(2.54244e-10 -1.54381e-09 6.88009e-10)
(3.38792e-10 -1.96184e-09 7.07688e-10)
(0 0 0)
(0 0 0)
(0 0 0)
(-2.21255e-10 -1.9693e-09 7.07592e-10)
(8.07902e-10 -2.2305e-09 6.92043e-10)
(5.48918e-10 -1.98379e-09 6.82969e-10)
(1.61868e-11 -1.8135e-09 6.87037e-10)
(-5.05952e-10 -1.97576e-09 6.83119e-10)
(-7.1624e-10 -2.22703e-09 6.92094e-10)
(-1.75907e-10 -3.51496e-11 1.50073e-11)
(0 0 0)
(0 0 0)
(0 0 0)
(2.06363e-10 -4.48053e-11 1.5042e-11)
(-3.59201e-10 -2.5382e-10 6.29782e-11)
(0 0 0)
(0 0 0)
(0 0 0)
(4.23646e-10 -2.70612e-10 6.30777e-11)
(-3.78158e-10 -6.13394e-10 1.30081e-10)
(0 0 0)
(0 0 0)
(0 0 0)
(4.49555e-10 -6.26651e-10 1.30219e-10)
(-3.98068e-10 -9.34215e-10 1.97143e-10)
(0 0 0)
(0 0 0)
(0 0 0)
(4.7614e-10 -9.45746e-10 1.97286e-10)
(-3.98975e-10 -1.18626e-09 2.58713e-10)
(0 0 0)
(0 0 0)
(0 0 0)
(4.83601e-10 -1.19648e-09 2.58841e-10)
(-3.38963e-10 -1.36043e-09 3.08384e-10)
(0 0 0)
(0 0 0)
(0 0 0)
(4.30645e-10 -1.36979e-09 3.08479e-10)
(-1.43491e-10 -1.50791e-09 3.39993e-10)
(0 0 0)
(0 0 0)
(0 0 0)
(2.44134e-10 -1.51746e-09 3.40043e-10)
(3.4672e-10 -1.93383e-09 3.49524e-10)
(0 0 0)
(0 0 0)
(0 0 0)
(-2.28549e-10 -1.94163e-09 3.49544e-10)
(8.15377e-10 -2.19821e-09 3.42133e-10)
(5.56579e-10 -1.95176e-09 3.36732e-10)
(1.63037e-11 -1.78432e-09 3.37702e-10)
(-5.13352e-10 -1.94386e-09 3.36864e-10)
(-7.23205e-10 -2.19506e-09 3.42238e-10)
(-1.18463e-10 -4.46821e-11 0)
(-8.58257e-12 -4.69425e-11 0)
(-2.86764e-13 -6.21808e-11 0)
(1.0875e-11 -5.0338e-11 0)
(1.42226e-10 -5.50742e-11 0)
(-1.85059e-10 -2.48334e-10 0)
(-2.63085e-11 -2.67757e-10 0)
(1.13699e-12 -2.92152e-10 0)
(3.48531e-11 -2.74494e-10 0)
(2.24714e-10 -2.6231e-10 0)
(-2.03809e-10 -6.0438e-10 0)
(-4.40548e-11 -6.12443e-10 0)
(4.58067e-12 -6.2704e-10 0)
(5.98339e-11 -6.18876e-10 0)
(2.50723e-10 -6.15952e-10 0)
(-2.2373e-10 -9.25253e-10 0)
(-5.95418e-11 -9.35801e-10 0)
(7.73893e-12 -9.50647e-10 0)
(8.13996e-11 -9.41626e-10 0)
(2.76903e-10 -9.35396e-10 0)
(-2.24743e-10 -1.18626e-09 0)
(-6.1873e-11 -1.22305e-09 0)
(1.03651e-11 -1.25332e-09 0)
(8.90016e-11 -1.22819e-09 0)
(2.83845e-10 -1.19522e-09 0)
(-1.62256e-10 -1.38695e-09 0)
(-1.74863e-11 -1.47717e-09 0)
(1.26155e-11 -1.53333e-09 0)
(4.93263e-11 -1.48182e-09 0)
(2.27366e-10 -1.39511e-09 0)
(4.42421e-11 -1.57887e-09 0)
(1.31322e-10 -1.72155e-09 0)
(1.44993e-11 -1.78579e-09 0)
(-9.51168e-11 -1.72627e-09 0)
(2.78581e-11 -1.58717e-09 0)
(4.98845e-10 -2.01373e-09 0)
(4.01929e-10 -2.08977e-09 0)
(1.55446e-11 -2.07796e-09 0)
(-3.61807e-10 -2.09346e-09 0)
(-4.15076e-10 -2.02036e-09 0)
(8.47824e-10 -2.26367e-09 0)
(5.61277e-10 -2.13717e-09 0)
(1.60491e-11 -2.01309e-09 0)
(-5.18662e-10 -2.13447e-09 0)
(-7.68821e-10 -2.26278e-09 0)
)
;

boundaryField
{
    interface
    {
        type            calculated;
    }
    symmetry
    {
        type            symmetry;
    }
    bottom
    {
        type            calculated;
    }
}


// ************************************************************************* //
