/*--------------------------------*- C++ -*----------------------------------*\
| =========                 |                                                 |
| \\      /  F ield         | OpenFOAM: The Open Source CFD Toolbox           |
|  \\    /   O peration     | Version:  v1912                                 |
|   \\  /    A nd           | Website:  www.openfoam.com                      |
|    \\/     M anipulation  |                                                 |
\*---------------------------------------------------------------------------*/
FoamFile
{
    version     2.0;
    format      ascii;
    class       volScalarField;
    location    "0.24/solid";
    object      sigmaEq;
}
// * * * * * * * * * * * * * * * * * * * * * * * * * * * * * * * * * * * * * //

dimensions      [1 -1 -2 0 0 0 0];


internalField   nonuniform List<scalar> 
256
(
532523
436306
432601
518606
378802
372826
368638
365534
392801
374597
370329
379934
412789
385685
381461
400284
434012
403681
399494
421721
458735
429328
425163
446598
438152
438519
434598
427139
35119.9
476401
472883
32431.1
388929
83615.3
81950
373753
330275
74039.6
72132.8
315678
334034
62882.9
61209.1
319578
344243
56328.2
54817
329744
359829
55917.7
54484
345192
382188
53661.5
52328.3
367505
387829
13752.9
13514.1
374221
438030
438601
434789
427357
352053
54427.5
52866.9
337774
319071
64714.8
62592.1
304554
324668
61014.7
58974.5
309911
333943
55958.2
53967.7
318950
348400
54561.2
52569.2
333130
370268
52568.3
50627.3
354830
382096
52520
51543.7
367637
458574
429500
425543
447216
325402
48777
47369.8
312264
297647
61467.5
59588.7
283945
304605
60248.3
58361
290437
313765
56130.3
54248.6
299228
327402
54506.4
52610.9
312508
348119
52333.7
50498.6
332994
359645
52639.8
51792.1
345450
434664
404338
400480
423734
309669
45787.7
44494.4
297418
283330
57771.6
56129.2
270358
290796
57077.4
55393.7
277243
299938
53255.1
51546.7
285916
313121
51366.2
49625.3
298675
333108
48810.5
47117.8
318379
344024
47825
47180.1
330188
416729
387329
383565
406262
300148
43753.1
42552.3
288513
274446
54879.7
53411.3
262004
282022
54121.8
52603.3
268940
291099
50296
48738.3
277486
304017
48206.2
46595.4
289926
323580
45453
43867.1
309159
334035
43620.5
43144.8
320480
405212
376873
373179
395114
294584
42420.6
41286.2
283335
269243
53007.9
51655.1
257144
276808
52116.5
50710.9
264039
285813
48223.7
46772.2
272479
298575
46005.3
44484.7
284726
317904
43184.6
41667.5
303690
328068
40960
40600.3
314701
398330
370861
367211
388485
291995
41756
40656.5
280932
266827
52105.4
50811.1
254897
274369
51142
49794.1
261756
283332
47206.8
45810.2
270137
296021
44927.8
43453.5
282294
315244
42091.2
40608.5
301133
325270
39731.6
39430.7
311997
395100
368108
364481
385383
)
;

boundaryField
{
    interface
    {
        type            calculated;
        value           nonuniform List<scalar> 
192
(
741982
577637
596310
622572
652240
690894
695763
368677
672145
595764
604941
624338
652739
696316
736091
695708
605692
555991
566293
584205
611020
653389
696451
690960
559119
515567
527026
544576
570367
611230
653307
653408
532015
490472
502417
519871
545144
585093
626169
627699
515847
475330
487431
504815
529799
569197
609527
611554
506513
466580
478716
496041
520858
559935
599780
601987
502204
462541
474678
491971
516710
555636
595245
597512
778601
618401
636871
662913
692472
731514
740162
445750
757773
674691
682355
702701
733376
780124
823709
775015
751034
667243
674676
694998
725683
772429
816184
769051
759246
599327
617780
643980
673650
712690
721868
434942
722852
558686
577571
604046
633867
672817
679527
365574
647954
571734
580728
599817
627869
671270
712355
679713
582243
531918
541714
559132
585428
627419
671512
673461
537007
492466
503203
520124
545302
585688
628639
636054
510960
468234
479339
496067
520656
560059
601912
610685
495518
453714
464911
481508
505753
544553
585592
594834
486640
445363
456565
473069
497112
535554
576065
585481
482549
441521
452711
469165
493113
531387
571641
581115
445842
740129
731545
693578
668007
652050
642620
638210
775091
823867
780562
734731
706125
688830
678866
674283
769129
816416
773008
727266
698736
681498
671573
667009
435027
722079
713337
675857
650711
635090
625889
621596
)
;
    }
    symmetry
    {
        type            symmetry;
    }
    bottom
    {
        type            calculated;
        value           nonuniform List<scalar> 
32
(
683308
447846
395295
366874
350413
340286
334320
331539
497011
100352
59407.3
53014.2
50402
48579.3
47355
46739.5
493514
98380.2
57510.8
51339.4
48875
47159.1
46008.8
45431.9
669074
432017
380791
353881
338539
329171
323672
321114
)
;
    }
}


// ************************************************************************* //
