/*--------------------------------*- C++ -*----------------------------------*\
| =========                 |                                                 |
| \\      /  F ield         | OpenFOAM: The Open Source CFD Toolbox           |
|  \\    /   O peration     | Version:  v1912                                 |
|   \\  /    A nd           | Website:  www.openfoam.com                      |
|    \\/     M anipulation  |                                                 |
\*---------------------------------------------------------------------------*/
FoamFile
{
    version     2.0;
    format      ascii;
    class       volSymmTensorField;
    location    "0.24/solid";
    object      sigma;
}
// * * * * * * * * * * * * * * * * * * * * * * * * * * * * * * * * * * * * * //

dimensions      [1 -1 -2 0 0 0 0];


internalField   nonuniform List<symmTensor> 
256
(
(-383226 5645.8 -462.007 134007 4618.55 -412311)
(-16989.2 -11048.4 97.1537 98322.7 5606.01 -383515)
(-16668.4 14710.3 -29.6534 97012.7 5997.92 -380177)
(-369046 -3952.29 690.813 134166 6077.44 -398290)
(-414963 -2428 -327.037 -51807.6 -4333.48 -444348)
(-73658.3 -3094.62 192.114 -25316.6 -3999.51 -419852)
(-73496.7 5785.48 9.3718 -26982.1 -3747.53 -416475)
(-399776 3581.13 697.179 -50186.3 -3408.44 -429629)
(-417287 -1616.47 -484.405 -39835.7 -4148.77 -446232)
(-74036.4 -978.22 113.513 -28507.6 -4099.6 -423717)
(-73906.7 2967.75 134.94 -30078.5 -3928.29 -420272)
(-401747 2448.57 885.454 -37473.9 -3505.03 -431203)
(-423929 -150.931 -534.443 -26508.2 -3085.18 -453052)
(-69724.8 -27.5372 102.601 -23364.1 -2857.69 -430102)
(-69573.7 1484.25 142.497 -24742.6 -2725.67 -426600)
(-408130 761.86 938.676 -23548.4 -2584.97 -437820)
(-439276 403.461 -293.022 -20777.9 -2644.27 -468750)
(-67917.9 259.041 248.943 -17698.9 -2255.81 -444120)
(-67741.1 765.834 -18.7833 -18961.9 -2140.79 -440586)
(-423362 24.1559 695.615 -17495.9 -2220.17 -453425)
(-465317 -169.769 198.097 -22473.2 -2973.48 -495546)
(-67474.9 -293.534 526.68 -16820.6 -2587.83 -469204)
(-67336 933.266 -303.193 -18044 -2472.97 -465679)
(-449640 387.681 205.911 -19166.6 -2578.79 -480267)
(-513632 -1118.79 739.916 -92433.5 -3363.6 -545688)
(-80005.9 -1266.38 811.811 -83824 -3226.83 -520378)
(-80051.9 1476.04 -570.903 -84638.6 -3094.93 -516884)
(-499038 1025.52 -330.464 -88572.3 -2962.31 -530568)
(-543899 -901.755 965.195 -578769 -2078.11 -578749)
(-91179.6 -811.525 902.063 -567604 -2135.37 -567519)
(-90936.7 699.795 -633.114 -563867 -2008.14 -563740)
(-531156 593.524 -570.915 -563452 -1739.18 -563379)
(-333632 6608.08 -458.227 98512.7 -19436.6 -17863.5)
(-14524.3 -9700.87 489.024 59237.7 -17318.1 -19213.9)
(-15034.8 11543.4 -227.337 56416.2 -16453.9 -20233.3)
(-318869 -5562.21 690.099 96394.7 -16714.6 -14149.6)
(-369064 -2015.26 -84.0115 -15722.5 -9642.01 -69297.7)
(-66696.5 -3094.73 746.131 5132.19 -8839.29 -67491.1)
(-67130.1 4321.71 -253.962 2334.1 -8268.83 -68768.8)
(-353149 2544.63 456.944 -15882.3 -7723.64 -65594.5)
(-373837 -1755.02 12.481 -17282.3 -7999.45 -68953.3)
(-73066.8 -1378.58 812.08 -11443.4 -7650.32 -72634.6)
(-73523.2 2246.51 -275.327 -14008.2 -7234.97 -74058)
(-357555 2103.09 383.827 -16529.4 -6540.36 -65535.8)
(-380481 -300.535 -1.01078 -13199.4 -7747 -65879)
(-69974 -420.303 828.292 -15232.6 -7378.1 -70162.4)
(-70422.2 1026.89 -326.772 -17637.7 -7040.77 -71653.3)
(-363884 550.891 389.245 -11940 -6553.2 -62602.8)
(-394740 444.706 115.136 -10984.3 -7672.01 -65572.7)
(-66133.1 -3.29853 919.567 -12072.2 -7332.87 -66869.8)
(-66556.6 376.31 -460.807 -14408.9 -7034.69 -68401.4)
(-377871 -290.968 263.859 -9471.35 -6637.74 -62384.8)
(-419985 104.385 418.322 -14250.1 -7867.53 -67396.9)
(-61765.1 -376.424 1129.04 -10589.4 -7678.69 -63273.4)
(-62213.3 518.414 -692.431 -12879 -7405.54 -64860.5)
(-403074 -99.3441 -41.0097 -12645.5 -6945.96 -64370)
(-470223 -761.783 852.017 -82399.5 -7592.29 -82846.3)
(-69571.1 -1215.79 1389.8 -72397.7 -7538.84 -72539.5)
(-70174.9 1108.63 -978.465 -74151.5 -7308.73 -74153.3)
(-454048 512.027 -485.442 -79959.5 -6833.62 -80074)
(-513763 -701.23 1249.98 -545696 -3292.36 -92617.8)
(-80074.9 -756.97 1524.54 -520427 -3179.51 -83689)
(-80089.9 612.293 -1278.62 -516941 -3053.88 -84321.5)
(-499048 342.192 -977.673 -530553 -2918.36 -88349.1)
(-287015 7138.49 -771.829 92256.9 -6755.72 28178.1)
(-12464.9 -8709.37 99.5005 46787.9 -5799.12 17998.4)
(-12896.9 9635.61 214.292 44110 -5076.32 16867.2)
(-271680 -6466.36 901.103 91443.8 -4525.37 32387.8)
(-316710 -1408.65 -542.399 7251.7 -5886.87 -3128.9)
(-53244 -2922.91 233.228 19891.2 -5268.99 -8469.9)
(-53581 3412.38 309.928 17123.6 -4668.96 -9994.19)
(-300333 1649.72 781.867 7465.56 -3973.95 673.997)
(-321670 -1678.25 -299.671 9090.38 -7037.43 -3973.97)
(-59978.3 -1532.4 349.826 7943.07 -6644.93 -14930.1)
(-60324.8 1816.67 211.52 5377.4 -6147.86 -16658.2)
(-304947 1794.11 556.166 9997.46 -5417.31 -662.476)
(-328464 -386.649 -271.217 11169.1 -8341.24 -1182.64)
(-57855 -606.302 369.911 2405.6 -7955.82 -13013.6)
(-58186.8 770.37 138.856 -18.2298 -7527.6 -14855)
(-311413 461.334 512.198 12513.6 -6939.66 1834.68)
(-342801 438.112 -297.741 9856.09 -8972.7 455.533)
(-54911.2 -83.3614 366.937 1843.16 -8661.49 -8213.56)
(-55209.6 138.521 86.2964 -517.84 -8280.86 -10134.5)
(-325423 -409.339 520.855 11450.5 -7739.95 3270.51)
(-368548 277.924 -252.798 2737.25 -8735.66 69.2487)
(-51908.3 -298.298 426.685 -497.789 -8594.22 -2565.27)
(-52219.3 238.648 -16.4794 -2796.66 -8261.46 -4567.96)
(-351004 -352.84 462.42 4487.69 -7666.59 2657.36)
(-419983 -342.029 -36.0536 -66126.9 -7251.23 -15175.9)
(-61468.6 -987.094 577.587 -62259.2 -7144.53 -10865.6)
(-61919.1 793.066 -242.806 -63993.6 -6894.62 -12867.8)
(-402952 53.4016 216.444 -63450.1 -6435.86 -12777.5)
(-465485 -173.037 317.633 -495374 -2644.04 -22609.3)
(-67338.7 -489.709 637.244 -469032 -2318.29 -16324.1)
(-67170 334.636 -546.817 -465492 -2221.05 -17180.6)
(-449557 -200.954 -247.152 -479995 -2328.1 -18356.8)
(-261685 6936.12 -733.021 88736.2 -2964.06 30222.6)
(-14867 -8353.57 -74.6266 38636.4 -2304.63 14518.7)
(-15283.7 8794.31 371.351 36261.6 -1765.59 13558.8)
(-246261 -6524.1 821.889 89297.3 -1314.33 35203.7)
(-289625 -1147.02 -839.117 10033.5 -3632.83 5813.46)
(-52970.2 -2849.37 -93.4118 15726.5 -3082.34 -4985.63)
(-53313.8 2951.25 612.494 13161.4 -2579.78 -6314.63)
(-273284 1233.07 1017.16 10896.6 -2074.92 10351.4)
(-294725 -1567.1 -681.149 13905.5 -5408.04 5355.96)
(-59658.3 -1578.67 -17.4715 6671.52 -5009.63 -10765.7)
(-60001.8 1553.84 552.38 4212.69 -4556.08 -12307.8)
(-278056 1565.34 874.754 15132 -3983.3 9345.25)
(-301720 -433.321 -639.477 16369.9 -7214.16 7006.39)
(-58027.6 -704.934 -3.08267 1744.79 -6834.15 -9990.66)
(-58351.1 637.567 484.671 -618.25 -6424.26 -11669.9)
(-284728 418.486 817.119 17891.1 -5920 10614.3)
(-316218 367.699 -694.63 13948.7 -8144.23 7717.3)
(-55702.5 -152.324 -41.5788 -138.519 -7814.85 -6191.68)
(-55989.8 52.2056 462.867 -2454.63 -7446.31 -7976.1)
(-298888 -399.152 850.778 15671.8 -6984.94 11039.1)
(-342351 330.524 -737.054 5181.83 -7712.25 5835.23)
(-53779.9 -250.324 -56.6963 -4186.37 -7514.83 -2065.48)
(-54075.7 107.349 419.893 -6445.09 -7199.85 -3944.65)
(-324806 -436.715 871.903 7060.66 -6719.19 8892.12)
(-394298 -5.31137 -641.12 -62963.1 -5771.71 -12053)
(-64672.2 -762.396 3.78118 -64543.3 -5607.62 -12888.7)
(-65098.4 540.017 260.961 -66247 -5383.77 -14747.3)
(-377140 -292.549 738.071 -60158.4 -5043.2 -9128.16)
(-439023 339.389 -446.475 -468107 -1740.19 -19642.4)
(-66614.6 -207.585 -30.9294 -443436 -1422.57 -16306.4)
(-66401.9 34.9042 51.7409 -439857 -1346.09 -16957.4)
(-422665 -724.459 438.099 -452568 -1480.58 -14684.9)
(-246363 6540.59 -507.496 87297.2 -2038.48 31175.7)
(-15585.2 -8341.95 -87.2744 34436.3 -1446.35 11623.3)
(-16010.2 8508.34 325.014 32320.4 -1061.83 10800.1)
(-230935 -6299.15 576.657 88930.1 -872.85 36699.6)
(-273251 -1120.74 -696.688 10610.7 -2743.31 9445.31)
(-52400 -2876.13 -152.132 11707 -2209.6 -5658.38)
(-52787.9 2760.59 581.743 9331.52 -1833.07 -6814.68)
(-257016 1116.2 839.202 12066.1 -1593.09 14550.2)
(-278401 -1514.51 -641.297 14657.4 -4103.66 9872.27)
(-58966.1 -1609.76 -124.056 3264.6 -3714.05 -10411.4)
(-59348.7 1411.1 575.945 910.154 -3356.58 -11773.6)
(-261854 1448.12 799.31 16209.4 -2998.74 14433.8)
(-285550 -459.331 -616.493 17419.3 -5563.8 10935.7)
(-57570.4 -763.029 -120.324 -1183.01 -5219.91 -10195.7)
(-57928.4 565.243 530.29 -3493.46 -4885.12 -11703.1)
(-268687 395.16 762.096 19112.8 -4521.71 15081.5)
(-300146 307.01 -656.248 15072.3 -6325.39 10437.7)
(-55551.1 -206.807 -156.726 -3108.9 -6023.33 -7724.41)
(-55871.9 20.5022 511.694 -5397.84 -5718 -9349.36)
(-282948 -371.49 781.818 16889.2 -5374.1 14250.9)
(-326426 348.108 -697.793 6259.01 -5856.29 6789.47)
(-54182.8 -228.091 -186.461 -7237.2 -5651.08 -5540.97)
(-54510.5 39.5903 481.722 -9483.29 -5391.8 -7266.61)
(-308995 -470.857 800.767 8195.19 -5041.57 10314)
(-378441 223.312 -654.147 -60696.3 -4123.9 -13222.8)
(-65780.1 -603.101 -173.003 -65939.4 -3963.83 -18542.8)
(-66232.7 361.751 372.105 -67643.3 -3783.39 -20239.9)
(-361327 -526.969 719.709 -57854.8 -3533.93 -9808.53)
(-421884 700.388 -565.472 -450934 -1156.33 -20448.5)
(-65017.2 -4.43743 -246.733 -428077 -925.299 -20358.1)
(-64818.8 -186.644 235.691 -424487 -865.355 -20825.5)
(-405373 -1096.47 540.127 -435316 -949.472 -14920.3)
(-237071 6216.63 -304.592 86210.6 -1498.5 32194.2)
(-15775 -8414.14 -52.0163 31749.8 -1037.94 10165.8)
(-16204.7 8422.94 221.154 29824.2 -781.026 9435.57)
(-221628 -6080.21 355.199 88608.1 -727.868 38093.2)
(-263195 -1162.58 -444.99 10701.1 -2088.25 11732.6)
(-51630.3 -2929.89 -98.473 8938.61 -1651.15 -6300.14)
(-52051.8 2689.46 412.521 6708.76 -1394.39 -7337.81)
(-247021 1104.99 551.083 12621.8 -1311.35 17245)
(-268311 -1505.17 -435.124 14518.5 -2960.95 12776.5)
(-58012.9 -1640.46 -91.286 449.621 -2634.96 -10428.6)
(-58426.6 1340.44 429.212 -1818.62 -2384.3 -11662.7)
(-251835 1401.61 555.004 16356.4 -2192.15 17768.3)
(-275540 -477.459 -427.253 17331.6 -3882.87 13590.3)
(-56702.4 -799.72 -93.808 -3831.3 -3610.56 -10464.7)
(-57088.3 523.601 404.535 -6097.46 -3370.09 -11844.7)
(-258755 384.209 539.254 19189.2 -3138.47 18159.8)
(-290196 271.211 -450.518 15292.5 -4338.38 12136)
(-54839.6 -241.121 -118.723 -5497.37 -4106.25 -9024.94)
(-55187.5 0.465391 387.463 -7766.87 -3884.02 -10527.4)
(-273080 -356.176 547.159 17197.2 -3647.53 16351.4)
(-316528 360.285 -475.151 6884.64 -3937.14 7071.96)
(-53773.6 -215.731 -141.818 -9228.12 -3775.6 -8375.52)
(-54127.5 -4.81809 361.158 -11470 -3586.49 -9982.14)
(-299173 -494.599 552.956 8865.92 -3341.9 10982.7)
(-368471 368.607 -453.145 -59101.1 -2686.63 -14349.3)
(-65766 -504.258 -144.953 -66680.9 -2569.11 -22847.2)
(-66241.9 245.865 286.598 -68390.9 -2438.06 -24424.2)
(-351393 -678.079 500.485 -56236.9 -2255.67 -10546.7)
(-410762 928.77 -411.345 -440052 -750.467 -20995)
(-63186.6 122.366 -213.619 -418612 -605.122 -23443.7)
(-63004.7 -329.215 195.395 -415021 -561.646 -23780.9)
(-394161 -1334.64 389.192 -424388 -599.254 -15037)
(-231751 6015.02 -158.755 85333.9 -932.281 32911.3)
(-15872.9 -8470.83 -22.4275 29984.7 -651.968 9459.33)
(-16303.7 8394.01 123.01 28182.2 -504.705 8787.37)
(-216294 -5938.3 189.498 88216.9 -494.2 39047.4)
(-257401 -1199.85 -233.422 10541.5 -1321.88 13087.9)
(-51096.7 -2969.22 -42.4182 7148.02 -1045.49 -6619.63)
(-51537.8 2660.44 232.49 5014.57 -896.94 -7583.19)
(-241259 1113.05 298.663 12774.1 -875.273 18864.2)
(-262472 -1509.13 -233.689 14197 -1805.07 14414.1)
(-57323.5 -1663.06 -39.6508 -1430.15 -1593.23 -10478.1)
(-57755.3 1306.13 247.625 -3638.04 -1446.05 -11630.8)
(-246034 1384.91 308.466 16240.2 -1355.58 19691.5)
(-269733 -490.139 -232.89 17004.8 -2283.64 15088.4)
(-56028.7 -822.067 -42.7167 -5656.12 -2110.66 -10666.2)
(-56430.8 500.006 236.273 -7889.5 -1967.41 -11963.4)
(-252990 380.017 303.615 18988.2 -1841.2 19946.3)
(-284420 252.713 -245.089 15202.4 -2495.95 13032.4)
(-54245 -260.235 -56.7505 -7104.88 -2353.06 -9865.78)
(-54608.5 -14.5188 224.702 -9359.67 -2219.37 -11287)
(-267350 -350.41 306.439 17177.3 -2080.39 17527.4)
(-310771 369.99 -257.041 7145.97 -2229.68 7070.65)
(-53349.9 -208.275 -70.182 -10482.3 -2131.51 -10169.7)
(-53718.9 -34.6267 206.283 -12721 -2017.24 -11697.3)
(-293458 -512.411 306.214 9163.46 -1869.21 11250.6)
(-362631 454.989 -245.724 -58214.7 -1498.4 -15180.8)
(-65570.6 -448.082 -75.6006 -67155 -1431.29 -25508.5)
(-66060.2 176.326 161.872 -68869.3 -1352 -27007.2)
(-345575 -769.313 275.28 -55333.1 -1236.55 -11112.4)
(-404114 1062.14 -224.96 -433638 -422.682 -21372.1)
(-61883.1 194.398 -120.153 -413117 -345.351 -25336.8)
(-61711.3 -412.617 106.798 -409526 -318.99 -25590.5)
(-387461 -1475.22 211.092 -417945 -330.542 -15125.7)
(-229323 5921.77 -49.1405 84840.6 -317.029 33264.5)
(-15931 -8497.12 -5.81294 29089.2 -224.333 9166.93)
(-16361.9 8382.89 39.1503 27346.9 -176.382 8523.3)
(-213858 -5872.06 59.4114 87958.5 -175.001 39515.5)
(-254753 -1217.83 -71.6686 10383.5 -452.069 13715.8)
(-50850.4 -2987.26 -10.5273 6251.4 -358.81 -6731.9)
(-51300.4 2648.38 74.0641 4165.66 -310.245 -7659.45)
(-238624 1118.11 93.6158 12771.3 -306.541 19621.8)
(-259799 -1512.63 -72.1055 13973.9 -607.113 15133.2)
(-56995.4 -1674.07 -9.39475 -2364.49 -534.402 -10500.9)
(-57435.5 1291.49 79.5125 -4541.57 -485.971 -11613.5)
(-243378 1379.14 97.4516 16122.9 -459.505 20552.8)
(-267071 -496.666 -72.3569 16780.7 -752.961 15730.2)
(-55698.4 -832.676 -10.5474 -6566.69 -693.938 -10772.9)
(-56107.9 489.139 76.2459 -8782.63 -646.48 -12028.9)
(-250346 378.695 96.4911 18831.5 -606.515 20733.9)
(-281770 244.795 -76.2093 15095.2 -811.753 13391.2)
(-53947.7 -268.838 -15.0734 -7906.44 -763.813 -10270.7)
(-54318.3 -22.6531 72.2435 -10153 -719.292 -11651.4)
(-264720 -348.718 97.2202 17109.1 -673.345 18028.9)
(-308127 375.399 -79.7512 7217.73 -718.774 7009.8)
(-53131.9 -204.719 -19.4472 -11102.7 -686.306 -11015.2)
(-53507.6 -49.8429 65.69 -13339.3 -648.139 -12503.4)
(-290832 -522.059 96.5814 9256.1 -598.224 11327.5)
(-359939 495.694 -76.1438 -57842 -479.842 -15623.6)
(-65461 -422.568 -21.7079 -67405.6 -458.489 -26752.1)
(-65956.7 143.487 50.8423 -69121.7 -431.965 -28211.9)
(-342892 -812.731 86.2308 -54950.1 -392.062 -11420)
(-401013 1123.92 -69.5259 -430661 -136.089 -21577.1)
(-61249.1 226.968 -36.8226 -410585 -112.106 -26211.3)
(-61081.9 -451.15 32.1471 -406995 -103.279 -26423.8)
(-384336 -1540.79 64.8643 -414955 -105.153 -15185.4)
)
;

boundaryField
{
    interface
    {
        type            calculated;
        value           nonuniform List<symmTensor> 
192
(
(-63.5513 0.251077 4.08168 844608 4618.55 298289)
(-65.5212 0.0147506 5.86741 663154 -4333.48 270614)
(-66.3724 -0.333819 6.12107 684448 -4148.77 278052)
(-67.0025 -0.70873 6.06667 714317 -3085.18 287773)
(-66.8669 -1.03974 5.86119 748215 -2644.27 300243)
(-67.5769 -1.70437 5.60011 792760 -2973.48 319687)
(-65.4975 -2.15244 5.03959 800994 -3363.6 347740)
(-68.8179 -4.56332 4.57024 368581 -2078.11 368601)
(-61.484 0.140287 2.11805 721819 -19436.6 605443)
(-62.4949 -0.0953085 3.19716 620445 -9642.01 566870)
(-62.9904 -0.428537 3.3051 628897 -7999.45 577226)
(-63.4775 -0.834647 3.22301 648801 -7747 596121)
(-63.2091 -1.20218 3.05011 678120 -7672.01 623532)
(-63.9731 -1.95513 2.84299 721169 -7867.53 668022)
(-61.7159 -2.4563 2.48067 736135 -7592.29 735688)
(-65.5161 -5.03784 2.17653 347868 -3292.36 800945)
(-64.61 0.116575 1.72222 635006 -6755.72 570927)
(-65.537 -0.141019 2.57712 560950 -5886.87 550569)
(-66.0298 -0.499527 2.66172 572515 -7037.43 559450)
(-66.5158 -0.954698 2.59396 590038 -8341.24 577686)
(-66.1069 -1.37774 2.45379 615402 -8972.7 606001)
(-66.766 -2.23084 2.28181 654477 -8735.66 651809)
(-63.9816 -2.81868 2.00169 669398 -7251.23 720349)
(-67.6202 -5.60794 1.74854 320125 -2644.04 792889)
(-64.58 0.0719744 1.10437 585987 -2964.06 527473)
(-65.3137 -0.204623 1.70373 517561 -3632.83 513341)
(-65.6857 -0.575456 1.75697 531099 -5408.04 522550)
(-66.1121 -1.0555 1.69888 548988 -7214.16 539624)
(-65.6181 -1.50737 1.59201 573217 -8144.23 566986)
(-66.2561 -2.4078 1.46412 610691 -7712.25 611344)
(-63.3233 -3.03316 1.27804 626223 -5771.71 677133)
(-67.0258 -5.8905 1.11186 301146 -1740.19 749611)
(-65.4734 0.0558057 0.825585 557774 -2038.48 501653)
(-66.1576 -0.240233 1.26874 490964 -2743.31 489799)
(-66.4759 -0.630246 1.30902 504675 -4103.66 499890)
(-66.8715 -1.13469 1.2657 522926 -5563.8 516442)
(-66.3011 -1.61452 1.18644 547270 -6325.39 542635)
(-66.8758 -2.55489 1.08969 584673 -5856.29 585203)
(-63.747 -3.2162 0.955074 600977 -4123.9 648450)
(-67.3577 -6.13295 0.829974 289678 -1156.33 720164)
(-65.5952 0.0400584 0.522549 540657 -1498.5 486641)
(-66.2259 -0.269972 0.81584 474733 -2088.25 475765)
(-66.4945 -0.672435 0.842083 488206 -2960.95 486464)
(-66.8621 -1.19163 0.811696 506563 -3882.87 502822)
(-66.2489 -1.68801 0.758324 531250 -4338.38 528094)
(-66.8001 -2.65028 0.693614 568996 -3937.14 569183)
(-63.5903 -3.331 0.60818 585836 -2686.63 630588)
(-67.1948 -6.27985 0.529035 282634 -750.467 701691)
(-65.8796 0.0336735 0.308644 530617 -932.281 478195)
(-66.4956 -0.286266 0.480575 465229 -1321.88 467775)
(-66.7405 -0.698774 0.49642 478530 -1805.07 478747)
(-67.0923 -1.22869 0.478698 496914 -2283.64 494998)
(-66.4475 -1.73704 0.447772 521855 -2495.95 519686)
(-66.9706 -2.71412 0.409368 559892 -2229.68 559817)
(-63.6887 -3.40862 0.360308 577035 -1498.4 620069)
(-67.259 -6.37959 0.31278 278481 -422.682 690747)
(-65.9205 0.0290104 0.0962625 525935 -317.029 474359)
(-66.5221 -0.295462 0.15235 460798 -452.069 464131)
(-66.7529 -0.712161 0.157444 474030 -607.113 475189)
(-67.0961 -1.24651 0.151413 492426 -752.961 491376)
(-66.4407 -1.76022 0.141374 517491 -811.753 515787)
(-66.9539 -2.74333 0.128777 555672 -718.774 555464)
(-63.6533 -3.44438 0.113543 572947 -479.842 615166)
(-67.2093 -6.42504 0.0981366 276544 -136.089 685628)
(378126 5645.8 -6.28604 895359 -0.794013 -26.9925)
(350838 -2428 -9.28947 713994 -0.719622 -21.9076)
(357830 -1616.47 -9.79122 735282 -0.443698 -19.7468)
(367835 -150.931 -9.8189 765256 -0.330672 -19.5548)
(380783 403.461 -9.71816 799281 -0.295576 -20.4407)
(401476 -169.769 -9.62805 844320 -0.36367 -22.1823)
(433409 -1118.79 -9.46988 854608 -0.420101 -25.0723)
(462131 -901.755 -9.7975 427261 -0.613485 -27.8552)
(693229 -11048.4 -4.64544 808541 -0.373418 -35.296)
(649165 -3094.62 -7.3446 697507 -0.376348 -34.2644)
(658415 -978.22 -7.72906 703944 -0.202289 -33.8056)
(678339 -27.5372 -7.72068 724699 -0.0963068 -33.8288)
(706941 259.041 -7.66045 757160 -0.0275062 -34.1641)
(753528 -293.534 -7.6462 804182 -0.0051528 -34.77)
(825572 -1266.38 -7.65835 821754 -0.00187291 -35.6282)
(894233 -811.525 -8.17336 417808 -0.0620428 -36.3556)
(687245 14710.3 -4.9626 800926 -0.200152 -31.5562)
(642662 5785.48 -7.80878 689177 -0.18948 -30.8276)
(651643 2967.75 -8.24512 695471 -0.0586866 -30.4364)
(671462 1484.25 -8.23882 716293 0.058777 -30.4364)
(700030 765.834 -8.15129 748810 0.157924 -30.7992)
(746569 933.266 -8.07892 795861 0.247726 -31.3608)
(818432 1476.04 -7.99711 813845 0.313857 -32.3279)
(887347 699.795 -8.40696 414417 0.332734 -33.333)
(370045 -3952.29 -5.81421 873257 -0.126473 -32.398)
(342372 3581.13 -9.0748 691962 -0.0859933 -31.9637)
(348976 2448.57 -9.59878 713248 0.0407039 -31.6768)
(358841 761.86 -9.6013 743423 0.174923 -31.6671)
(371716 24.1559 -9.4739 777582 0.290633 -31.9429)
(392140 387.681 -9.35535 822614 0.424561 -32.2347)
(423008 1025.52 -9.12802 833474 0.531028 -32.8598)
(450155 593.524 -9.4988 417859 0.674153 -33.451)
(-12.6404 0.830228 2.75896 822788 6077.44 290333)
(-7.60881 0.506323 4.20733 641502 -3408.44 262059)
(-5.65332 -0.128116 4.39275 662997 -3505.03 269267)
(-4.97424 -0.630492 4.36205 693069 -2584.97 278798)
(-5.62062 -0.972778 4.25515 727122 -2220.17 291193)
(-5.08638 -1.5552 4.23221 772027 -2578.79 310926)
(-7.77044 -1.65036 4.00131 782426 -2962.31 340430)
(1.85538 -4.15607 4.21459 365527 -1739.18 365600)
(-23.1832 0.25342 0.747745 695437 -16714.6 584893)
(-22.146 0.0334131 1.45807 594788 -7723.64 545076)
(-21.714 -0.34359 1.48337 603545 -6540.36 554539)
(-21.1897 -0.728375 1.4318 623413 -6553.2 572750)
(-21.3503 -0.974258 1.38949 652525 -6637.74 599611)
(-19.5585 -1.51463 1.45094 695509 -6945.96 643784)
(-20.581 -1.37424 1.44687 712293 -6833.62 712178)
(-7.6828 -3.94767 1.72861 340429 -2918.36 782633)
(-22.8157 0.117996 0.96565 609445 -4525.37 550389)
(-21.9907 -0.113756 1.67145 535215 -3973.95 528423)
(-21.5404 -0.429645 1.74974 546862 -5417.31 536202)
(-20.8747 -0.800155 1.72217 564245 -6939.66 553566)
(-20.8992 -1.02595 1.67522 589301 -7739.95 581121)
(-18.6464 -1.58254 1.67764 628173 -7666.59 626342)
(-19.4374 -1.37425 1.60968 644628 -6435.86 695300)
(-4.82852 -4.17907 1.66391 311118 -2328.1 772757)
(-25.1263 0.0382445 0.612525 561977 -1314.33 507883)
(-24.6238 -0.205288 1.14526 492700 -2074.92 492155)
(-24.3164 -0.491344 1.2083 506000 -3983.3 500213)
(-23.5794 -0.842229 1.18656 523600 -5920 516323)
(-23.4317 -1.03686 1.14973 547446 -6984.94 542814)
(-20.6735 -1.58107 1.14705 584634 -6719.19 586466)
(-21.024 -1.30442 1.10007 601487 -5043.2 652517)
(-5.03974 -4.20602 1.13105 291692 -1480.58 729575)
(-25.2871 0.0258119 0.548584 535041 -872.85 482811)
(-24.7931 -0.232259 0.964786 466955 -1593.09 469439)
(-24.4631 -0.521445 1.02156 480172 -2998.74 478396)
(-23.6413 -0.876575 1.00758 497985 -4521.71 493954)
(-23.4077 -1.06711 0.97622 521863 -5374.1 519225)
(-20.4067 -1.61757 0.958803 558908 -5041.57 561027)
(-20.6247 -1.31845 0.906668 576397 -3533.93 624444)
(-3.86479 -4.31384 0.891283 280088 -949.472 700484)
(-25.8872 0.0187003 0.35772 518813 -727.868 468299)
(-25.4181 -0.248596 0.639776 451353 -1311.35 455976)
(-25.0792 -0.54151 0.679655 464163 -2192.15 465575)
(-24.1961 -0.899306 0.670253 481967 -3138.47 480938)
(-23.8817 -1.08568 0.649148 506112 -3647.53 505266)
(-20.6754 -1.63652 0.635733 543440 -3341.9 545557)
(-20.7447 -1.31887 0.601759 561375 -2255.67 607065)
(-3.40181 -4.36965 0.589378 272972 -599.254 682323)
(-25.9864 0.018908 0.223583 509331 -494.2 460162)
(-25.509 -0.254563 0.39033 442259 -875.273 448349)
(-25.1498 -0.552344 0.414732 454798 -1355.58 458250)
(-24.2249 -0.914282 0.409427 472554 -1841.2 473512)
(-23.8671 -1.10115 0.397016 496900 -2080.39 497250)
(-20.555 -1.65457 0.386696 534477 -1869.21 536564)
(-20.5635 -1.32918 0.365566 552656 -1236.55 596877)
(-2.89025 -4.41786 0.352386 268789 -330.542 671608)
(-26.1204 0.0178531 0.0698158 504917 -175.001 456474)
(-25.6456 -0.258185 0.124431 438029 -306.541 444880)
(-25.2779 -0.557781 0.132428 450454 -459.505 454883)
(-24.3332 -0.921081 0.13054 468186 -606.515 470088)
(-23.9479 -1.10803 0.126675 492628 -673.345 493547)
(-20.5812 -1.66146 0.123172 530326 -598.224 532398)
(-20.5416 -1.33247 0.1172 548611 -392.062 592141)
(-2.70894 -4.43857 0.112657 266838 -105.153 666608)
(462214 9.79732 965.195 -27.6534 -0.575777 427364)
(433425 9.47953 1249.98 -24.7483 -0.382818 854570)
(401480 9.65238 317.633 -21.6324 -0.311901 844356)
(381172 9.76567 -446.475 -19.5342 -0.21015 800552)
(369676 9.90238 -565.472 -17.991 -0.168915 771112)
(362980 9.98623 -411.345 -16.8732 -0.107799 752747)
(359151 10.0491 -224.96 -16.1915 -0.0676022 741893)
(357380 10.0777 -69.5259 -15.8519 -0.0210878 736816)
(894327 8.16559 902.063 -36.1737 -0.0176828 417988)
(825629 7.6537 1524.54 -35.3594 0.0414606 822015)
(753768 7.64453 637.244 -34.344 0.0528908 804782)
(708250 7.6596 -30.9294 -33.5357 0.0567187 758558)
(682703 7.71221 -246.733 -32.8983 0.0404442 727362)
(668066 7.743 -213.619 -32.4051 0.0325671 707808)
(659823 7.77087 -120.153 -32.0981 0.0181795 696369)
(656049 7.78325 -36.8226 -31.9281 0.00720706 691087)
(887445 8.39755 -633.114 -33.1508 0.38128 414641)
(818488 7.98776 -1278.62 -32.0511 0.361831 814256)
(746769 8.07114 -546.817 -30.9197 0.310803 796758)
(701252 8.14568 51.7409 -30.1434 0.243628 750697)
(675671 8.2339 235.691 -29.4715 0.184515 719664)
(661010 8.28777 195.395 -29.0096 0.12789 700234)
(652755 8.32878 106.798 -28.6997 0.0746793 688875)
(648976 8.34684 32.1471 -28.553 0.0246615 683634)
(450208 9.47924 -570.915 -33.2778 0.723931 417985)
(423020 9.10797 -977.673 -32.5966 0.580555 833720)
(392150 9.33707 -247.152 -31.8319 0.487522 823351)
(372126 9.4631 438.099 -31.3693 0.371654 780106)
(360697 9.60487 540.127 -30.8698 0.286284 751149)
(354041 9.68924 389.192 -30.5692 0.195788 733165)
(350236 9.75192 211.092 -30.3387 0.116807 722572)
(348478 9.78011 64.8643 -30.2315 0.0383445 717628)
)
;
    }
    symmetry
    {
        type            symmetry;
    }
    bottom
    {
        type            calculated;
        value           nonuniform List<symmTensor> 
32
(
(-788651 28687.7 -462.007 -123984 28751.8 -817736)
(-519335 28634.4 -458.227 -12965.3 -25041.4 -203567)
(-451972 27668.3 -771.829 -12980.8 -9422.88 -136779)
(-418686 26129.9 -733.021 -10823.5 -3785.38 -126778)
(-399216 24874.4 -507.496 -9158.04 -2259.39 -121677)
(-387760 24051 -304.592 -8844.18 -1561.24 -118495)
(-381303 23573.8 -158.755 -9043.67 -957.317 -116640)
(-378374 23356.3 -49.1405 -9242.66 -325.187 -115786)
(-220991 -14146.7 97.1537 -25953 29168 -587517)
(-31908.1 -12449.4 489.024 55228.4 -22959 -36597.7)
(-23296 -11202.4 99.5005 39085.4 -8824.39 7167.35)
(-24626.8 -10777 -74.6266 32255.8 -3388.71 4758.88)
(-24730.2 -10766.6 -87.2744 29216.1 -1813.97 2478.35)
(-24646.5 -10843.4 -52.0163 27031.9 -1182.31 1294.25)
(-24605.2 -10899.2 -22.4275 25521.1 -720.147 727.03)
(-24598.1 -10923.8 -5.81294 24747.4 -246.208 499.895)
(-219678 17433.2 -29.6534 -26059.2 29636.9 -583187)
(-32624.4 13619.7 -227.337 52282.1 -21943 -37823)
(-23940.8 11414.4 214.292 36327.5 -8003.26 5823.32)
(-25244 10559.6 371.351 29841.8 -2785.71 3598.58)
(-25353.5 10339.9 325.014 27075.3 -1386.57 1456.84)
(-25274.6 10310.7 221.154 25087.7 -897.596 365.665)
(-25234.6 10315.5 123.01 23703.7 -557.227 -143.459)
(-25227.5 10319.8 39.1503 22992 -193.203 -342.354)
(-773907 -27326.8 690.813 -123742 30742.8 -803150)
(-507080 -27898.1 690.099 -18221.1 -21839.6 -202361)
(-438866 -27343.1 901.103 -16147 -6906.67 -134798)
(-405359 -26109.6 821.889 -12126.6 -1949.66 -123894)
(-385843 -25049.2 576.657 -9124.24 -969.671 -118209)
(-374360 -24340.7 355.199 -7892.8 -711.156 -114638)
(-367886 -23926.3 189.498 -7521.77 -474.961 -112544)
(-364949 -23736.7 59.4114 -7447.85 -168.948 -111575)
)
;
    }
}


// ************************************************************************* //
