/*--------------------------------*- C++ -*----------------------------------*\
| =========                 |                                                 |
| \\      /  F ield         | OpenFOAM: The Open Source CFD Toolbox           |
|  \\    /   O peration     | Version:  v1912                                 |
|   \\  /    A nd           | Website:  www.openfoam.com                      |
|    \\/     M anipulation  |                                                 |
\*---------------------------------------------------------------------------*/
FoamFile
{
    version     2.0;
    format      ascii;
    class       volScalarField;
    location    "0.24/solid";
    object      T;
}
// * * * * * * * * * * * * * * * * * * * * * * * * * * * * * * * * * * * * * //

dimensions      [0 0 0 1 0 0 0];


internalField   nonuniform List<scalar> 
256
(
291.968
292.472
292.474
291.97
291.853
292.41
292.412
291.855
291.841
292.405
292.407
291.844
291.829
292.399
292.401
291.831
291.807
292.388
292.39
291.81
291.767
292.367
292.369
291.77
291.658
292.291
292.294
291.66
290.899
291.592
291.596
290.907
292.517
292.945
292.945
292.513
292.46
292.937
292.936
292.454
292.454
292.936
292.936
292.449
292.448
292.936
292.935
292.443
292.436
292.935
292.934
292.432
292.415
292.932
292.932
292.411
292.34
292.895
292.894
292.336
291.658
292.291
292.294
291.66
292.581
292.974
292.973
292.576
292.53
292.97
292.969
292.525
292.525
292.969
292.969
292.52
292.519
292.969
292.968
292.514
292.508
292.969
292.968
292.504
292.487
292.966
292.966
292.483
292.415
292.932
292.932
292.411
291.767
292.367
292.369
291.77
292.6
292.975
292.975
292.595
292.551
292.972
292.971
292.545
292.546
292.971
292.971
292.54
292.54
292.971
292.97
292.535
292.529
292.971
292.97
292.524
292.508
292.969
292.968
292.504
292.436
292.935
292.934
292.432
291.807
292.388
292.39
291.81
292.61
292.976
292.975
292.605
292.561
292.972
292.971
292.556
292.556
292.972
292.971
292.551
292.55
292.972
292.971
292.545
292.54
292.971
292.97
292.535
292.519
292.969
292.968
292.514
292.447
292.936
292.935
292.443
291.828
292.399
292.401
291.831
292.615
292.976
292.975
292.61
292.567
292.972
292.971
292.561
292.562
292.972
292.971
292.556
292.556
292.972
292.971
292.551
292.545
292.971
292.971
292.54
292.524
292.969
292.968
292.519
292.453
292.936
292.936
292.449
291.841
292.404
292.406
291.843
292.618
292.976
292.975
292.613
292.571
292.972
292.972
292.564
292.565
292.972
292.971
292.559
292.559
292.972
292.971
292.554
292.549
292.971
292.971
292.543
292.527
292.969
292.969
292.522
292.457
292.936
292.936
292.452
291.847
292.408
292.41
291.85
292.619
292.976
292.976
292.614
292.572
292.972
292.972
292.566
292.567
292.972
292.971
292.561
292.561
292.972
292.971
292.555
292.55
292.971
292.971
292.544
292.529
292.969
292.969
292.524
292.458
292.937
292.936
292.453
291.85
292.409
292.411
291.853
)
;

boundaryField
{
    interface
    {
        type            fixedValue;
        value           nonuniform List<scalar> 
192
(
290.065
289.978
289.937
289.875
289.777
289.614
289.301
288.392
290.847
290.795
290.761
290.709
290.624
290.477
290.186
289.301
291.122
291.076
291.044
290.994
290.911
290.766
290.477
289.613
291.263
291.218
291.186
291.136
291.054
290.91
290.623
289.776
291.343
291.299
291.268
291.218
291.135
290.992
290.707
289.872
291.391
291.347
291.316
291.266
291.183
291.04
290.756
289.931
291.418
291.374
291.343
291.293
291.21
291.067
290.785
289.965
291.431
291.387
291.355
291.305
291.223
291.08
290.798
289.981
289.934
289.847
289.805
289.744
289.646
289.481
289.164
288.242
290.576
290.522
290.487
290.436
290.352
290.206
289.91
288.996
290.595
290.542
290.509
290.457
290.374
290.228
289.932
289.02
289.994
289.911
289.871
289.811
289.714
289.55
289.233
288.316
290.126
290.042
290.002
289.942
289.845
289.681
289.364
288.45
290.908
290.858
290.825
290.775
290.692
290.546
290.252
289.364
291.184
291.139
291.109
291.06
290.979
290.837
290.546
289.681
291.323
291.28
291.25
291.202
291.122
290.98
290.692
289.845
291.403
291.36
291.33
291.282
291.202
291.06
290.775
289.942
291.45
291.407
291.378
291.33
291.249
291.108
290.824
290.001
291.477
291.434
291.404
291.356
291.276
291.135
290.853
290.035
291.489
291.447
291.417
291.369
291.288
291.147
290.866
290.051
288.242
289.163
289.48
289.644
289.741
289.799
289.834
289.85
288.995
289.91
290.205
290.351
290.434
290.483
290.512
290.525
289.02
289.932
290.228
290.373
290.456
290.506
290.534
290.547
288.316
289.233
289.55
289.714
289.811
289.87
289.904
289.92
)
;
    }
    symmetry
    {
        type            symmetry;
    }
    bottom
    {
        type            fixedValue;
        value           uniform 293;
    }
}


// ************************************************************************* //
