/*--------------------------------*- C++ -*----------------------------------*\
| =========                 |                                                 |
| \\      /  F ield         | OpenFOAM: The Open Source CFD Toolbox           |
|  \\    /   O peration     | Version:  v1912                                 |
|   \\  /    A nd           | Website:  www.openfoam.com                      |
|    \\/     M anipulation  |                                                 |
\*---------------------------------------------------------------------------*/
FoamFile
{
    version     2.0;
    format      ascii;
    class       volVectorField;
    location    "0.43/fluid";
    object      cellMotionU;
}
// * * * * * * * * * * * * * * * * * * * * * * * * * * * * * * * * * * * * * //

dimensions      [0 1 -1 0 0 0 0];


internalField   nonuniform List<vector> 
14592
(
(1.76657e-10 -4.06963e-10 3.07202e-10)
(4.92433e-10 -1.13785e-09 8.69121e-10)
(7.82708e-10 -1.81746e-09 1.4214e-09)
(1.057e-09 -2.46988e-09 1.99904e-09)
(1.32554e-09 -3.11396e-09 2.63735e-09)
(1.59717e-09 -3.75647e-09 3.36641e-09)
(1.88234e-09 -4.3952e-09 4.21711e-09)
(2.19426e-09 -5.01273e-09 5.21905e-09)
(2.55277e-09 -5.57011e-09 6.40195e-09)
(2.99252e-09 -5.98952e-09 7.79421e-09)
(3.58525e-09 -6.12588e-09 9.43086e-09)
(4.49435e-09 -5.68804e-09 1.13731e-08)
(6.11332e-09 -4.03068e-09 1.37946e-08)
(9.48128e-09 5.00107e-10 1.72707e-08)
(1.70605e-08 1.21557e-08 2.33902e-08)
(3.10454e-08 3.60722e-08 3.35066e-08)
(5.26034e-10 -1.20826e-09 9.13283e-10)
(1.46665e-09 -3.37896e-09 2.58437e-09)
(2.32991e-09 -5.39815e-09 4.2241e-09)
(3.14666e-09 -7.34126e-09 5.94221e-09)
(3.94395e-09 -9.25828e-09 7.83474e-09)
(4.74949e-09 -1.11765e-08 9.99539e-09)
(5.59322e-09 -1.30922e-08 1.25138e-08)
(6.51193e-09 -1.49619e-08 1.54773e-08)
(7.55744e-09 -1.66807e-08 1.8968e-08)
(8.81532e-09 -1.80497e-08 2.30624e-08)
(1.04465e-08 -1.87107e-08 2.78279e-08)
(1.27709e-08 -1.80395e-08 3.33354e-08)
(1.64825e-08 -1.49304e-08 3.97314e-08)
(2.29265e-08 -7.51795e-09 4.73607e-08)
(3.41734e-08 6.63802e-09 5.68411e-08)
(4.93031e-08 2.54868e-08 6.70928e-08)
(8.64857e-10 -1.97347e-09 1.49678e-09)
(2.41086e-09 -5.52042e-09 4.23435e-09)
(3.82954e-09 -8.82569e-09 6.92059e-09)
(5.16957e-09 -1.20108e-08 9.72943e-09)
(6.47653e-09 -1.51658e-08 1.28217e-08)
(7.79479e-09 -1.83414e-08 1.63482e-08)
(9.17182e-09 -2.15449e-08 2.04553e-08)
(1.0663e-08 -2.47258e-08 2.52847e-08)
(1.23403e-08 -2.77527e-08 3.09706e-08)
(1.43089e-08 -3.03719e-08 3.76296e-08)
(1.67393e-08 -3.215e-08 4.53456e-08)
(1.99385e-08 -3.23971e-08 5.41535e-08)
(2.44874e-08 -3.01103e-08 6.4045e-08)
(3.14154e-08 -2.41369e-08 7.50325e-08)
(4.21528e-08 -1.41017e-08 8.72135e-08)
(5.56931e-08 -3.70667e-09 9.93892e-08)
(1.18635e-09 -2.67809e-09 2.0434e-09)
(3.30629e-09 -7.49499e-09 5.77943e-09)
(5.25013e-09 -1.19913e-08 9.44149e-09)
(7.08424e-09 -1.63392e-08 1.32664e-08)
(8.86963e-09 -2.06666e-08 1.74688e-08)
(1.06668e-08 -2.50576e-08 2.22541e-08)
(1.25387e-08 -2.9544e-08 2.78206e-08)
(1.45561e-08 -3.40947e-08 3.43618e-08)
(1.68026e-08 -3.85927e-08 4.2062e-08)
(1.9384e-08 -4.28003e-08 5.10823e-08)
(2.24368e-08 -4.63098e-08 6.15278e-08)
(2.61533e-08 -4.84913e-08 7.3403e-08)
(3.08431e-08 -4.84891e-08 8.65711e-08)
(3.69746e-08 -4.5406e-08 1.00674e-07)
(4.5237e-08 -3.90256e-08 1.1509e-07)
(5.49891e-08 -3.18348e-08 1.2773e-07)
(1.48416e-09 -3.29817e-09 2.54067e-09)
(4.13557e-09 -9.23501e-09 7.18423e-09)
(6.56409e-09 -1.4789e-08 1.17297e-08)
(8.85103e-09 -2.0179e-08 1.64662e-08)
(1.10725e-08 -2.55765e-08 2.16588e-08)
(1.33028e-08 -3.1103e-08 2.75579e-08)
(1.56195e-08 -3.68285e-08 3.44074e-08)
(1.8108e-08 -4.27627e-08 4.24476e-08)
(2.08654e-08 -4.88413e-08 5.1913e-08)
(2.40021e-08 -5.48983e-08 6.30172e-08)
(2.76304e-08 -6.06263e-08 7.59127e-08)
(3.18687e-08 -6.55194e-08 9.06524e-08)
(3.67983e-08 -6.87936e-08 1.07066e-07)
(4.24388e-08 -6.93407e-08 1.24616e-07)
(4.88263e-08 -6.59065e-08 1.42055e-07)
(5.55564e-08 -5.91086e-08 1.56072e-07)
(1.75313e-09 -3.81089e-09 2.97906e-09)
(4.8835e-09 -1.06756e-08 8.42045e-09)
(7.74638e-09 -1.71127e-08 1.37367e-08)
(1.04363e-08 -2.33869e-08 1.92622e-08)
(1.30406e-08 -2.97091e-08 2.5299e-08)
(1.56462e-08 -3.62428e-08 3.21348e-08)
(1.83441e-08 -4.31027e-08 4.00494e-08)
(2.12358e-08 -5.03546e-08 4.93218e-08)
(2.44381e-08 -5.80109e-08 6.02314e-08)
(2.8086e-08 -6.60184e-08 7.30481e-08)
(3.23271e-08 -7.42349e-08 8.80089e-08)
(3.73173e-08 -8.23737e-08 1.05282e-07)
(4.31788e-08 -8.98722e-08 1.2489e-07)
(4.98892e-08 -9.55444e-08 1.46489e-07)
(5.7122e-08 -9.68964e-08 1.68749e-07)
(6.35223e-08 -9.11433e-08 1.86845e-07)
(1.98875e-09 -4.1943e-09 3.35116e-09)
(5.53776e-09 -1.17561e-08 9.46756e-09)
(8.77748e-09 -1.88652e-08 1.543e-08)
(1.18113e-08 -2.58238e-08 2.16042e-08)
(1.47361e-08 -3.28806e-08 2.83214e-08)
(1.76474e-08 -4.02372e-08 3.5893e-08)
(2.06471e-08 -4.80532e-08 4.46224e-08)
(2.38512e-08 -5.64525e-08 5.48132e-08)
(2.73998e-08 -6.55302e-08 6.67756e-08)
(3.14669e-08 -7.53593e-08 8.0825e-08)
(3.62815e-08 -8.59985e-08 9.72828e-08)
(4.21594e-08 -9.74949e-08 1.1648e-07)
(4.95678e-08 -1.09858e-07 1.3878e-07)
(5.91538e-08 -1.22848e-07 1.64499e-07)
(7.15693e-08 -1.35141e-07 1.93305e-07)
(8.47272e-08 -1.42271e-07 2.1972e-07)
(2.18792e-09 -4.43009e-09 3.65302e-09)
(6.08966e-09 -1.24246e-08 1.03146e-08)
(9.64315e-09 -1.99606e-08 1.67906e-08)
(1.29574e-08 -2.73699e-08 2.34682e-08)
(1.61331e-08 -3.4929e-08 3.06924e-08)
(1.92708e-08 -4.28706e-08 3.87869e-08)
(2.24777e-08 -5.13907e-08 4.80627e-08)
(2.58777e-08 -6.06601e-08 5.88294e-08)
(2.96247e-08 -7.0839e-08 7.14028e-08)
(3.39205e-08 -8.20965e-08 8.61096e-08)
(3.90541e-08 -9.4644e-08 1.03302e-07)
(4.54794e-08 -1.08804e-07 1.23404e-07)
(5.39867e-08 -1.25148e-07 1.4702e-07)
(6.6049e-08 -1.44759e-07 1.75137e-07)
(8.43561e-08 -1.69447e-07 2.09204e-07)
(1.08968e-07 -1.97666e-07 2.45789e-07)
(1.75526e-10 -4.15011e-10 2.91824e-10)
(4.88995e-10 -1.16047e-09 8.25581e-10)
(7.75601e-10 -1.85387e-09 1.34846e-09)
(1.04476e-09 -2.5205e-09 1.89485e-09)
(1.30457e-09 -3.17858e-09 2.49517e-09)
(1.56253e-09 -3.83723e-09 3.1782e-09)
(1.82602e-09 -4.49561e-09 3.97107e-09)
(2.10334e-09 -5.13914e-09 4.89872e-09)
(2.40582e-09 -5.73398e-09 5.98308e-09)
(2.75317e-09 -6.21468e-09 7.24022e-09)
(3.1869e-09 -6.4633e-09 8.67734e-09)
(3.80059e-09 -6.26389e-09 1.02914e-08)
(4.82986e-09 -5.17678e-09 1.20845e-08)
(6.77522e-09 -2.25418e-09 1.40751e-08)
(1.05296e-08 4.41959e-09 1.62429e-08)
(1.57656e-08 1.55428e-08 1.75382e-08)
(5.22884e-10 -1.23196e-09 8.6771e-10)
(1.45636e-09 -3.44529e-09 2.45365e-09)
(2.30986e-09 -5.5053e-09 4.00775e-09)
(3.11082e-09 -7.48809e-09 5.63004e-09)
(3.88341e-09 -9.44767e-09 7.4112e-09)
(4.64982e-09 -1.14137e-08 9.43604e-09)
(5.43146e-09 -1.33869e-08 1.17839e-08)
(6.25116e-09 -1.5331e-08 1.45283e-08)
(7.13736e-09 -1.7155e-08 1.77307e-08)
(8.13423e-09 -1.86896e-08 2.14319e-08)
(9.3239e-09 -1.96456e-08 2.56327e-08)
(1.08859e-08 -1.95495e-08 3.02671e-08)
(1.317e-08 -1.76751e-08 3.51367e-08)
(1.67857e-08 -1.30442e-08 3.97865e-08)
(2.21603e-08 -5.13144e-09 4.30817e-08)
(2.7377e-08 2.97208e-09 4.29168e-08)
(8.60042e-10 -2.01177e-09 1.4218e-09)
(2.39531e-09 -5.62775e-09 4.02004e-09)
(3.79867e-09 -8.99796e-09 6.56465e-09)
(5.11498e-09 -1.22487e-08 9.21835e-09)
(6.38415e-09 -1.54727e-08 1.21293e-08)
(7.64256e-09 -1.87254e-08 1.54351e-08)
(8.92473e-09 -2.20197e-08 1.92656e-08)
(1.02652e-08 -2.53143e-08 2.37405e-08)
(1.17014e-08 -2.84958e-08 2.89625e-08)
(1.32783e-08 -3.13483e-08 3.49975e-08)
(1.50623e-08 -3.35182e-08 4.18409e-08)
(1.71701e-08 -3.44905e-08 4.93579e-08)
(1.98109e-08 -3.36418e-08 5.71815e-08)
(2.32675e-08 -3.05764e-08 6.45228e-08)
(2.75193e-08 -2.61632e-08 6.98704e-08)
(3.0897e-08 -2.39487e-08 7.1171e-08)
(1.18051e-09 -2.72965e-09 1.94079e-09)
(3.28771e-09 -7.6391e-09 5.48706e-09)
(5.21287e-09 -1.22232e-08 8.95616e-09)
(7.01759e-09 -1.66587e-08 1.25697e-08)
(8.75654e-09 -2.10788e-08 1.65267e-08)
(1.048e-08 -2.55719e-08 2.10138e-08)
(1.22354e-08 -3.01755e-08 2.62072e-08)
(1.40685e-08 -3.48674e-08 3.2272e-08)
(1.60219e-08 -3.9547e-08 3.93523e-08)
(1.81304e-08 -4.40105e-08 4.75468e-08)
(2.04123e-08 -4.79217e-08 5.68624e-08)
(2.286e-08 -5.08038e-08 6.71366e-08)
(2.53877e-08 -5.21203e-08 7.78782e-08)
(2.777e-08 -5.16055e-08 8.8036e-08)
(2.9458e-08 -5.00646e-08 9.56264e-08)
(2.95028e-08 -4.99304e-08 9.79971e-08)
(1.47836e-09 -3.3613e-09 2.41346e-09)
(4.11654e-09 -9.41124e-09 6.82102e-09)
(6.52521e-09 -1.50722e-08 1.11274e-08)
(8.78082e-09 -2.05698e-08 1.56036e-08)
(1.0952e-08 -2.60798e-08 2.04939e-08)
(1.31026e-08 -3.17286e-08 2.60267e-08)
(1.52937e-08 -3.75905e-08 3.24194e-08)
(1.75846e-08 -4.36816e-08 3.98781e-08)
(2.00294e-08 -4.99482e-08 4.85898e-08)
(2.26635e-08 -5.62461e-08 5.86949e-08)
(2.54877e-08 -6.23138e-08 7.02479e-08)
(2.83928e-08 -6.77465e-08 8.30996e-08)
(3.10771e-08 -7.19898e-08 9.67635e-08)
(3.28398e-08 -7.44431e-08 1.1003e-07)
(3.25232e-08 -7.4915e-08 1.20453e-07)
(2.95782e-08 -7.4722e-08 1.24418e-07)
(1.74821e-09 -3.88328e-09 2.83025e-09)
(4.86674e-09 -1.08779e-08 7.99562e-09)
(7.71105e-09 -1.74381e-08 1.30334e-08)
(1.03704e-08 -2.38351e-08 1.82556e-08)
(1.29255e-08 -3.02856e-08 2.39422e-08)
(1.54529e-08 -3.69565e-08 3.0355e-08)
(1.8028e-08 -4.39654e-08 3.77439e-08)
(2.07278e-08 -5.13806e-08 4.63494e-08)
(2.36283e-08 -5.9217e-08 5.63962e-08)
(2.67978e-08 -6.7427e-08 6.80753e-08)
(3.02705e-08 -7.58813e-08 8.1499e-08)
(3.39959e-08 -8.43262e-08 9.66251e-08)
(3.76872e-08 -9.22899e-08 1.13075e-07)
(4.0539e-08 -9.88603e-08 1.29741e-07)
(4.08311e-08 -1.02427e-07 1.43993e-07)
(3.6874e-08 -1.01696e-07 1.51072e-07)
(1.98549e-09 -4.27368e-09 3.1842e-09)
(5.5257e-09 -1.19778e-08 8.99142e-09)
(8.74986e-09 -1.92216e-08 1.46424e-08)
(1.17571e-08 -2.63149e-08 2.04794e-08)
(1.46376e-08 -3.35114e-08 2.68081e-08)
(1.74783e-08 -4.10156e-08 3.39128e-08)
(2.03676e-08 -4.89882e-08 4.20648e-08)
(2.34005e-08 -5.75515e-08 5.15262e-08)
(2.66825e-08 -6.67956e-08 6.2548e-08)
(3.03327e-08 -7.67837e-08 7.53591e-08)
(3.44826e-08 -8.75556e-08 9.0136e-08)
(3.92671e-08 -9.9124e-08 1.06954e-07)
(4.47642e-08 -1.11428e-07 1.25646e-07)
(5.08057e-08 -1.24112e-07 1.45429e-07)
(5.63404e-08 -1.35822e-07 1.63877e-07)
(5.83143e-08 -1.42837e-07 1.75035e-07)
(2.18688e-09 -4.51369e-09 3.47161e-09)
(6.08404e-09 -1.26581e-08 9.79769e-09)
(9.62662e-09 -2.03361e-08 1.5937e-08)
(1.29196e-08 -2.78871e-08 2.22509e-08)
(1.60589e-08 -3.55928e-08 2.9059e-08)
(1.91376e-08 -4.3688e-08 3.66563e-08)
(2.22523e-08 -5.23682e-08 4.53215e-08)
(2.55106e-08 -6.17996e-08 5.53218e-08)
(2.90396e-08 -7.21318e-08 6.69126e-08)
(3.30001e-08 -8.35131e-08 8.03322e-08)
(3.76071e-08 -9.61153e-08 9.57812e-08)
(4.31714e-08 -1.10179e-07 1.13396e-07)
(5.01632e-08 -1.26089e-07 1.33165e-07)
(5.93106e-08 -1.44473e-07 1.54647e-07)
(7.14006e-08 -1.65923e-07 1.75953e-07)
(8.44674e-08 -1.87344e-07 1.90687e-07)
(1.73676e-10 -4.21842e-10 2.65923e-10)
(4.83248e-10 -1.17963e-09 7.51765e-10)
(7.64944e-10 -1.88476e-09 1.22733e-09)
(1.02669e-09 -2.56309e-09 1.72236e-09)
(1.27519e-09 -3.23347e-09 2.26432e-09)
(1.51553e-09 -3.90649e-09 2.87809e-09)
(1.75128e-09 -4.58257e-09 3.58568e-09)
(1.98464e-09 -5.25186e-09 4.40688e-09)
(2.21613e-09 -5.88682e-09 5.35432e-09)
(2.44629e-09 -6.4389e-09 6.43084e-09)
(2.67903e-09 -6.82749e-09 7.61903e-09)
(2.93272e-09 -6.92168e-09 8.86556e-09)
(3.24307e-09 -6.50913e-09 1.00421e-08)
(3.67067e-09 -5.21071e-09 1.08871e-08)
(4.11011e-09 -2.44256e-09 1.07901e-08)
(3.83537e-09 1.69378e-09 8.72374e-09)
(5.17462e-10 -1.25205e-09 7.90467e-10)
(1.43987e-09 -3.50163e-09 2.23463e-09)
(2.27884e-09 -5.59595e-09 3.64697e-09)
(3.05852e-09 -7.61294e-09 5.11732e-09)
(3.79854e-09 -9.60884e-09 6.72579e-09)
(4.51418e-09 -1.16161e-08 8.54519e-09)
(5.21621e-09 -1.36412e-08 1.06419e-08)
(5.90993e-09 -1.56556e-08 1.30713e-08)
(6.59469e-09 -1.7589e-08 1.58719e-08)
(7.26309e-09 -1.93121e-08 1.90475e-08)
(7.9059e-09 -2.06213e-08 2.25385e-08)
(8.51459e-09 -2.1231e-08 2.61584e-08)
(9.09485e-09 -2.07929e-08 2.94961e-08)
(9.57881e-09 -1.90462e-08 3.16811e-08)
(9.56206e-09 -1.63032e-08 3.11365e-08)
(8.1966e-09 -1.43862e-08 2.67035e-08)
(8.51628e-10 -2.04425e-09 1.29523e-09)
(2.36973e-09 -5.71865e-09 3.66131e-09)
(3.75054e-09 -9.14429e-09 5.97381e-09)
(5.03391e-09 -1.24501e-08 8.37949e-09)
(6.25263e-09 -1.57319e-08 1.10085e-08)
(7.43262e-09 -1.90494e-08 1.39799e-08)
(8.59215e-09 -2.24212e-08 1.74012e-08)
(9.74022e-09 -2.58187e-08 2.13655e-08)
(1.08712e-08 -2.91509e-08 2.59375e-08)
(1.19587e-08 -3.22511e-08 3.11298e-08)
(1.29448e-08 -3.48668e-08 3.68549e-08)
(1.37265e-08 -3.6682e-08 4.28398e-08)
(1.41243e-08 -3.74377e-08 4.84856e-08)
(1.38107e-08 -3.72736e-08 5.26621e-08)
(1.22241e-08 -3.73217e-08 5.36256e-08)
(9.20379e-09 -3.93428e-08 5.05498e-08)
(1.17007e-09 -2.77318e-09 1.76854e-09)
(3.25558e-09 -7.76123e-09 4.99718e-09)
(5.15252e-09 -1.24192e-08 8.15099e-09)
(6.91581e-09 -1.69279e-08 1.1427e-08)
(8.59137e-09 -2.14239e-08 1.50015e-08)
(1.02166e-08 -2.59994e-08 1.90354e-08)
(1.18194e-08 -3.06979e-08 2.3676e-08)
(1.34144e-08 -3.55063e-08 2.90515e-08)
(1.49943e-08 -4.03449e-08 3.52576e-08)
(1.65128e-08 -4.50511e-08 4.23266e-08)
(1.7854e-08 -4.93743e-08 5.01678e-08)
(1.87768e-08 -5.30034e-08 5.84651e-08)
(1.88383e-08 -5.56956e-08 6.65394e-08)
(1.72912e-08 -5.75984e-08 7.31062e-08)
(1.32587e-08 -5.96973e-08 7.62472e-08)
(7.38687e-09 -6.30328e-08 7.48143e-08)
(1.46684e-09 -3.41445e-09 2.19928e-09)
(4.08113e-09 -9.55983e-09 6.21318e-09)
(6.45845e-09 -1.53106e-08 1.01285e-08)
(8.66789e-09 -2.08963e-08 1.41875e-08)
(1.07685e-08 -2.64961e-08 1.86058e-08)
(1.28101e-08 -3.22393e-08 2.35811e-08)
(1.48327e-08 -3.82031e-08 2.92948e-08)
(1.68632e-08 -4.4409e-08 3.59092e-08)
(1.89031e-08 -5.0813e-08 4.35515e-08)
(2.09071e-08 -5.72941e-08 5.22842e-08)
(2.27307e-08 -6.36403e-08 6.20316e-08)
(2.40566e-08 -6.95484e-08 7.25063e-08)
(2.42157e-08 -7.46605e-08 8.2985e-08)
(2.20401e-08 -7.87046e-08 9.21088e-08)
(1.61077e-08 -8.18022e-08 9.77152e-08)
(7.44145e-09 -8.45221e-08 9.80463e-08)
(1.73667e-09 -3.94405e-09 2.57932e-09)
(4.83133e-09 -1.10479e-08 7.28433e-09)
(7.64377e-09 -1.77103e-08 1.18655e-08)
(1.0256e-08 -2.42067e-08 1.66019e-08)
(1.2739e-08 -3.07569e-08 2.17407e-08)
(1.51554e-08 -3.75287e-08 2.75085e-08)
(1.75603e-08 -4.46397e-08 3.41149e-08)
(1.99984e-08 -5.21558e-08 4.17488e-08)
(2.24968e-08 -6.00896e-08 5.05671e-08)
(2.50425e-08 -6.83911e-08 6.06617e-08)
(2.75411e-08 -7.69318e-08 7.20028e-08)
(2.972e-08 -8.54723e-08 8.43313e-08)
(3.09371e-08 -9.35887e-08 9.69733e-08)
(2.98853e-08 -1.00512e-07 1.08531e-07)
(2.45318e-08 -1.04945e-07 1.16631e-07)
(1.48031e-08 -1.0567e-07 1.18896e-07)
(1.97503e-09 -4.34e-09 2.90257e-09)
(5.49316e-09 -1.21632e-08 8.19311e-09)
(8.6875e-09 -1.95179e-08 1.33329e-08)
(1.165e-08 -2.67187e-08 1.86282e-08)
(1.44618e-08 -3.40209e-08 2.43486e-08)
(1.7197e-08 -4.16289e-08 3.07407e-08)
(1.99252e-08 -4.96991e-08 3.80317e-08)
(2.27131e-08 -5.83452e-08 4.64284e-08)
(2.56217e-08 -6.76418e-08 5.61062e-08)
(2.86973e-08 -7.76247e-08 6.718e-08)
(3.19523e-08 -8.8287e-08 7.96542e-08)
(3.53105e-08 -9.95583e-08 9.33152e-08)
(3.84847e-08 -1.11232e-07 1.07534e-07)
(4.07326e-08 -1.22728e-07 1.20873e-07)
(4.05181e-08 -1.3251e-07 1.30605e-07)
(3.64002e-08 -1.37376e-07 1.3348e-07)
(2.17821e-09 -4.58325e-09 3.16519e-09)
(6.05685e-09 -1.28524e-08 8.92968e-09)
(9.57337e-09 -2.06466e-08 1.45151e-08)
(1.28265e-08 -2.83093e-08 2.02441e-08)
(1.59041e-08 -3.61237e-08 2.63997e-08)
(1.88882e-08 -4.43227e-08 3.32374e-08)
(2.18594e-08 -5.30948e-08 4.09913e-08)
(2.49009e-08 -6.25926e-08 4.98715e-08)
(2.81028e-08 -7.29404e-08 6.00562e-08)
(3.15644e-08 -8.42421e-08 7.16636e-08)
(3.53978e-08 -9.65892e-08 8.4705e-08)
(3.97256e-08 -1.10071e-07 9.89863e-08)
(4.46675e-08 -1.24784e-07 1.139e-07)
(5.03223e-08 -1.40792e-07 1.27965e-07)
(5.66742e-08 -1.57815e-07 1.38005e-07)
(6.27658e-08 -1.72958e-07 1.39394e-07)
(1.71392e-10 -4.27385e-10 2.30624e-10)
(4.76403e-10 -1.19517e-09 6.51858e-10)
(7.52213e-10 -1.90973e-09 1.06303e-09)
(1.00579e-09 -2.59746e-09 1.49064e-09)
(1.24193e-09 -3.27808e-09 1.95681e-09)
(1.46331e-09 -3.96265e-09 2.482e-09)
(1.66982e-09 -4.65398e-09 3.0836e-09)
(1.85777e-09 -5.3447e-09 3.77516e-09)
(2.01836e-09 -6.0148e-09 4.56299e-09)
(2.13636e-09 -6.62936e-09 5.4411e-09)
(2.18817e-09 -7.13637e-09 6.38122e-09)
(2.13984e-09 -7.4641e-09 7.31631e-09)
(1.94412e-09 -7.51407e-09 8.12649e-09)
(1.48873e-09 -7.13601e-09 8.59669e-09)
(4.94317e-10 -6.05234e-09 8.46145e-09)
(-1.35939e-09 -4.01477e-09 7.59793e-09)
(5.10861e-10 -1.26839e-09 6.85627e-10)
(1.41987e-09 -3.54736e-09 1.93723e-09)
(2.24207e-09 -5.6695e-09 3.15974e-09)
(2.99785e-09 -7.71426e-09 4.4289e-09)
(3.70203e-09 -9.73937e-09 5.81244e-09)
(4.36286e-09 -1.17803e-08 7.36971e-09)
(4.98051e-09 -1.3847e-08 9.15214e-09)
(5.54411e-09 -1.59204e-08 1.11989e-08)
(6.0271e-09 -1.79469e-08 1.35288e-08)
(6.38058e-09 -1.98317e-08 1.61224e-08)
(6.52598e-09 -2.14381e-08 1.88923e-08)
(6.35274e-09 -2.25998e-08 2.16413e-08)
(5.70372e-09 -2.31636e-08 2.39762e-08)
(4.37865e-09 -2.30743e-08 2.52599e-08)
(2.19793e-09 -2.24966e-08 2.46859e-08)
(-3.16301e-10 -2.18711e-08 2.23968e-08)
(8.41317e-10 -2.07059e-09 1.1236e-09)
(2.33846e-09 -5.79269e-09 3.17426e-09)
(3.69304e-09 -9.26305e-09 5.17602e-09)
(4.93909e-09 -1.2613e-08 7.25302e-09)
(6.10191e-09 -1.59407e-08 9.51464e-09)
(7.19663e-09 -1.93088e-08 1.2058e-08)
(8.2258e-09 -2.27415e-08 1.49674e-08)
(9.17403e-09 -2.62199e-08 1.83086e-08)
(9.99883e-09 -2.96739e-08 2.21156e-08)
(1.06161e-08 -3.2977e-08 2.6365e-08)
(1.08819e-08 -3.5951e-08 3.09324e-08)
(1.05728e-08 -3.84048e-08 3.55298e-08)
(9.37591e-09 -4.02471e-08 3.96294e-08)
(6.94776e-09 -4.17075e-08 4.24303e-08)
(3.24936e-09 -4.35405e-08 4.31391e-08)
(-3.50913e-10 -4.6233e-08 4.22055e-08)
(1.15687e-09 -2.80864e-09 1.53389e-09)
(3.2159e-09 -7.86034e-09 4.33361e-09)
(5.0794e-09 -1.25781e-08 7.06353e-09)
(6.79517e-09 -1.71447e-08 9.89238e-09)
(8.39974e-09 -2.16992e-08 1.29677e-08)
(9.91728e-09 -2.63366e-08 1.64212e-08)
(1.13563e-08 -3.11042e-08 2.03681e-08)
(1.27027e-08 -3.59968e-08 2.49007e-08)
(1.39062e-08 -4.09503e-08 3.00727e-08)
(1.48562e-08 -4.58338e-08 3.58663e-08)
(1.53474e-08 -5.04542e-08 4.21445e-08)
(1.50344e-08 -5.45957e-08 4.85881e-08)
(1.33775e-08 -5.81298e-08 5.45941e-08)
(9.73609e-09 -6.12412e-08 5.93209e-08)
(3.92287e-09 -6.4592e-08 6.19546e-08)
(-1.94335e-09 -6.83372e-08 6.26949e-08)
(1.45197e-09 -3.45748e-09 1.90807e-09)
(4.03628e-09 -9.6803e-09 5.38882e-09)
(6.37569e-09 -1.55029e-08 8.77878e-09)
(8.53133e-09 -2.11572e-08 1.22844e-08)
(1.05518e-08 -2.68243e-08 1.60864e-08)
(1.24722e-08 -3.26344e-08 2.03463e-08)
(1.43122e-08 -3.86659e-08 2.52071e-08)
(1.60676e-08 -4.49416e-08 3.0786e-08)
(1.76955e-08 -5.14226e-08 3.71569e-08)
(1.90851e-08 -5.79994e-08 4.43161e-08)
(2.0014e-08 -6.44853e-08 5.21424e-08)
(2.00568e-08 -7.06164e-08 6.02838e-08)
(1.84999e-08 -7.60874e-08 6.81427e-08)
(1.43375e-08 -8.06331e-08 7.48198e-08)
(6.917e-09 -8.41814e-08 7.94195e-08)
(-1.33439e-09 -8.67782e-08 8.17663e-08)
(1.72129e-09 -3.99314e-09 2.23843e-09)
(4.7847e-09 -1.1185e-08 6.31907e-09)
(7.55767e-09 -1.79285e-08 1.02864e-08)
(1.01137e-08 -2.45012e-08 1.43778e-08)
(1.25131e-08 -3.11235e-08 1.88005e-08)
(1.48041e-08 -3.79626e-08 2.37402e-08)
(1.70207e-08 -4.51323e-08 2.93616e-08)
(1.91782e-08 -5.26926e-08 3.58019e-08)
(2.12597e-08 -6.06465e-08 4.31528e-08)
(2.31926e-08 -6.89303e-08 5.14296e-08)
(2.48017e-08 -7.73964e-08 6.05129e-08)
(2.57247e-08 -8.5777e-08 7.00694e-08)
(2.52716e-08 -9.36043e-08 7.9457e-08)
(2.23109e-08 -1.00047e-07 8.77066e-08)
(1.56105e-08 -1.03715e-07 9.37744e-08)
(6.55271e-09 -1.03365e-07 9.72627e-08)
(1.96013e-09 -4.39337e-09 2.51933e-09)
(5.44802e-09 -1.2312e-08 7.10891e-09)
(8.6038e-09 -1.97541e-08 1.15611e-08)
(1.15112e-08 -2.70358e-08 1.61361e-08)
(1.42414e-08 -3.44123e-08 2.10604e-08)
(1.68544e-08 -4.20845e-08 2.65363e-08)
(1.94008e-08 -5.02014e-08 3.27426e-08)
(2.19195e-08 -5.88628e-08 3.98286e-08)
(2.44312e-08 -6.81196e-08 4.78964e-08)
(2.69278e-08 -7.79699e-08 5.69712e-08)
(2.93457e-08 -8.83441e-08 6.69372e-08)
(3.15174e-08 -9.90698e-08 7.74503e-08)
(3.3089e-08 -1.09781e-07 8.78055e-08)
(3.34386e-08 -1.19694e-07 9.68403e-08)
(3.1763e-08 -1.2715e-07 1.0311e-07)
(2.8181e-08 -1.2952e-07 1.05994e-07)
(2.16475e-09 -4.63899e-09 2.74783e-09)
(6.0158e-09 -1.30078e-08 7.74968e-09)
(9.49684e-09 -2.08926e-08 1.25887e-08)
(1.2699e-08 -2.86384e-08 1.75397e-08)
(1.57008e-08 -3.6527e-08 2.28403e-08)
(1.85721e-08 -4.47862e-08 2.87004e-08)
(2.13763e-08 -5.35935e-08 3.53043e-08)
(2.41725e-08 -6.3082e-08 4.28031e-08)
(2.70155e-08 -7.33426e-08 5.12986e-08)
(2.99562e-08 -8.44244e-08 6.08125e-08)
(3.30381e-08 -9.6328e-08 7.12216e-08)
(3.6292e-08 -1.08993e-07 8.21578e-08)
(3.97424e-08 -1.22279e-07 9.2842e-08)
(4.35027e-08 -1.35934e-07 1.01876e-07)
(4.80388e-08 -1.49489e-07 1.07172e-07)
(5.38091e-08 -1.6108e-07 1.07344e-07)
(1.69039e-10 -4.31656e-10 1.87451e-10)
(4.69278e-10 -1.20706e-09 5.29354e-10)
(7.39333e-10 -1.92864e-09 8.63375e-10)
(9.84753e-10 -2.6239e-09 1.20904e-09)
(1.20899e-09 -3.31204e-09 1.58534e-09)
(1.41248e-09 -4.00545e-09 2.00715e-09)
(1.59211e-09 -4.70813e-09 2.48745e-09)
(1.73967e-09 -5.41467e-09 3.03476e-09)
(1.84029e-09 -6.11009e-09 3.6515e-09)
(1.86953e-09 -6.76843e-09 4.32895e-09)
(1.79204e-09 -7.35189e-09 5.04047e-09)
(1.55985e-09 -7.81421e-09 5.73608e-09)
(1.10444e-09 -8.09316e-09 6.32888e-09)
(3.13634e-10 -8.07602e-09 6.73751e-09)
(-1.04688e-09 -7.47885e-09 6.93803e-09)
(-3.09051e-09 -5.82983e-09 7.02208e-09)
(5.03978e-10 -1.28096e-09 5.57139e-10)
(1.39929e-09 -3.58245e-09 1.57423e-09)
(2.20455e-09 -5.72616e-09 2.56552e-09)
(2.93681e-09 -7.7918e-09 3.59328e-09)
(3.60642e-09 -9.83958e-09 4.70981e-09)
(4.21544e-09 -1.19057e-08 5.96087e-09)
(4.75534e-09 -1.40029e-08 7.3836e-09)
(5.20316e-09 -1.6119e-08 9.00418e-09)
(5.51509e-09 -1.82114e-08 1.08288e-08)
(5.61949e-09 -2.02059e-08 1.2831e-08)
(5.41132e-09 -2.2001e-08 1.49324e-08)
(4.75105e-09 -2.34781e-08 1.69699e-08)
(3.48715e-09 -2.45262e-08 1.86905e-08)
(1.51943e-09 -2.50521e-08 1.97383e-08)
(-9.90231e-10 -2.4936e-08 1.98152e-08)
(-3.06099e-09 -2.40903e-08 1.91152e-08)
(8.30494e-10 -2.09099e-09 9.13172e-10)
(2.30616e-09 -5.84988e-09 2.57969e-09)
(3.63418e-09 -9.35452e-09 4.20383e-09)
(4.84336e-09 -1.27382e-08 5.88559e-09)
(5.95196e-09 -1.60998e-08 7.71094e-09)
(6.96582e-09 -1.95042e-08 9.75406e-09)
(7.87447e-09 -2.29795e-08 1.20769e-08)
(8.64445e-09 -2.65128e-08 1.47227e-08)
(9.20915e-09 -3.00474e-08 1.77057e-08)
(9.45476e-09 -3.34796e-08 2.09897e-08)
(9.20698e-09 -3.66665e-08 2.44599e-08)
(8.22789e-09 -3.94596e-08 2.78893e-08)
(6.25451e-09 -4.17823e-08 3.09188e-08)
(3.16704e-09 -4.3756e-08 3.31254e-08)
(-5.63482e-10 -4.57696e-08 3.42553e-08)
(-3.19139e-09 -4.79312e-08 3.46569e-08)
(1.14306e-09 -2.83605e-09 1.24729e-09)
(3.17445e-09 -7.93715e-09 3.52213e-09)
(5.00401e-09 -1.27007e-08 5.738e-09)
(6.67247e-09 -1.73104e-08 8.02899e-09)
(8.20786e-09 -2.19073e-08 1.05113e-08)
(9.62267e-09 -2.65873e-08 1.32858e-08)
(1.09095e-08 -3.13993e-08 1.64371e-08)
(1.20332e-08 -3.63427e-08 2.00274e-08)
(1.29156e-08 -4.13609e-08 2.40807e-08)
(1.34161e-08 -4.63375e-08 2.85617e-08)
(1.33051e-08 -5.11016e-08 3.33414e-08)
(1.2239e-08 -5.54555e-08 3.81466e-08)
(9.78775e-09 -5.92585e-08 4.25969e-08)
(5.62113e-09 -6.25742e-08 4.62459e-08)
(1.40642e-10 -6.57719e-08 4.88549e-08)
(-4.31242e-09 -6.88533e-08 5.05306e-08)
(1.43615e-09 -3.49084e-09 1.55164e-09)
(3.98886e-09 -9.77339e-09 4.38091e-09)
(6.28938e-09 -1.56505e-08 7.13302e-09)
(8.391e-09 -2.13555e-08 9.9725e-09)
(1.03325e-08 -2.70692e-08 1.30415e-08)
(1.21365e-08 -3.2922e-08 1.64642e-08)
(1.38053e-08 -3.89911e-08 2.03459e-08)
(1.53123e-08 -4.52973e-08 2.4765e-08)
(1.6587e-08 -5.18001e-08 2.97583e-08)
(1.74911e-08 -5.83887e-08 3.52973e-08)
(1.77796e-08 -6.4872e-08 4.12348e-08)
(1.7059e-08 -7.09768e-08 4.73057e-08)
(1.47483e-08 -7.63545e-08 5.30789e-08)
(1.02142e-08 -8.06359e-08 5.80996e-08)
(3.42626e-09 -8.35719e-08 6.20944e-08)
(-3.08361e-09 -8.52506e-08 6.49116e-08)
(1.70456e-09 -4.03109e-09 1.82046e-09)
(4.73461e-09 -1.12907e-08 5.13837e-09)
(7.46645e-09 -1.80954e-08 8.35987e-09)
(9.96523e-09 -2.4723e-08 1.16743e-08)
(1.22816e-08 -3.13937e-08 1.52448e-08)
(1.44505e-08 -3.82718e-08 1.92144e-08)
(1.64891e-08 -4.54659e-08 2.37042e-08)
(1.83905e-08 -5.30271e-08 2.88061e-08)
(2.01116e-08 -6.09444e-08 3.45666e-08)
(2.15533e-08 -6.91327e-08 4.09578e-08)
(2.25272e-08 -7.74116e-08 4.78383e-08)
(2.27017e-08 -8.54627e-08 5.4904e-08)
(2.15382e-08 -9.27468e-08 6.16867e-08)
(1.82922e-08 -9.83447e-08 6.76431e-08)
(1.23774e-08 -1.00838e-07 7.24228e-08)
(5.26812e-09 -9.9312e-08 7.58302e-08)
(1.94354e-09 -4.43446e-09 2.04949e-09)
(5.39831e-09 -1.24262e-08 5.78185e-09)
(8.51309e-09 -1.99336e-08 9.39767e-09)
(1.13637e-08 -2.72726e-08 1.31045e-08)
(1.40113e-08 -3.46967e-08 1.7081e-08)
(1.65039e-08 -4.24019e-08 2.14826e-08)
(1.88758e-08 -5.05279e-08 2.6441e-08)
(2.1145e-08 -5.91584e-08 3.20555e-08)
(2.33087e-08 -6.83192e-08 3.83771e-08)
(2.53335e-08 -7.7968e-08 4.53757e-08)
(2.71429e-08 -8.79744e-08 5.28973e-08)
(2.85963e-08 -9.80792e-08 6.05997e-08)
(2.94727e-08 -1.07807e-07 6.79144e-08)
(2.95064e-08 -1.16289e-07 7.40988e-08)
(2.85208e-08 -1.21982e-07 7.85422e-08)
(2.67853e-08 -1.22957e-07 8.11745e-08)
(2.14919e-09 -4.68176e-09 2.2358e-09)
(5.96908e-09 -1.31265e-08 6.30422e-09)
(9.41145e-09 -2.10786e-08 1.02348e-08)
(1.25597e-08 -2.88822e-08 1.42473e-08)
(1.54837e-08 -3.68166e-08 1.85287e-08)
(1.82419e-08 -4.51026e-08 2.32414e-08)
(2.08831e-08 -5.39056e-08 2.85202e-08)
(2.34478e-08 -6.33373e-08 3.44651e-08)
(2.59694e-08 -7.34555e-08 4.11246e-08)
(2.84756e-08 -8.42566e-08 4.84601e-08)
(3.09947e-08 -9.56632e-08 5.62992e-08)
(3.35713e-08 -1.07507e-07 6.42567e-08)
(3.63273e-08 -1.19518e-07 7.16576e-08)
(3.96535e-08 -1.31366e-07 7.7509e-08)
(4.45618e-08 -1.42781e-07 8.07199e-08)
(5.17944e-08 -1.52834e-07 8.10093e-08)
(1.66927e-10 -4.34621e-10 1.38071e-10)
(4.63019e-10 -1.21533e-09 3.90197e-10)
(7.27948e-10 -1.94217e-09 6.35275e-10)
(9.66436e-10 -2.6417e-09 8.89546e-10)
(1.1807e-09 -3.33637e-09 1.16529e-09)
(1.36944e-09 -4.03624e-09 1.47334e-09)
(1.52742e-09 -4.74632e-09 1.82214e-09)
(1.64386e-09 -5.4632e-09 2.21711e-09)
(1.70061e-09 -6.17409e-09 2.65852e-09)
(1.67056e-09 -6.8566e-09 3.13877e-09)
(1.51739e-09 -7.47907e-09 3.6387e-09)
(1.19663e-09 -7.99927e-09 4.12372e-09)
(6.55146e-10 -8.35614e-09 4.55804e-09)
(-1.8902e-10 -8.41685e-09 4.90842e-09)
(-1.5295e-09 -7.8605e-09 5.23062e-09)
(-3.46493e-09 -6.16443e-09 5.57042e-09)
(4.97867e-10 -1.28986e-09 4.10716e-10)
(1.38101e-09 -3.60756e-09 1.15953e-09)
(2.17147e-09 -5.76569e-09 1.88921e-09)
(2.88365e-09 -7.84832e-09 2.64421e-09)
(3.52391e-09 -9.91104e-09 3.46243e-09)
(4.09e-09 -1.1994e-08 4.37575e-09)
(4.56728e-09 -1.41114e-08 5.40919e-09)
(4.92537e-09 -1.62536e-08 6.57847e-09)
(5.11218e-09 -1.83843e-08 7.88442e-09)
(5.04968e-09 -2.04384e-08 9.30405e-09)
(4.63318e-09 -2.23241e-08 1.07778e-08)
(3.74413e-09 -2.39284e-08 1.22075e-08)
(2.28826e-09 -2.51177e-08 1.34375e-08)
(2.79721e-10 -2.57187e-08 1.43008e-08)
(-1.96404e-09 -2.54446e-08 1.4656e-08)
(-3.50996e-09 -2.41563e-08 1.45036e-08)
(8.20882e-10 -2.10566e-09 6.73195e-10)
(2.27738e-09 -5.89083e-09 1.90054e-09)
(3.5823e-09 -9.42096e-09 3.09614e-09)
(4.75947e-09 -1.28272e-08 4.33175e-09)
(5.82224e-09 -1.62133e-08 5.66953e-09)
(6.76895e-09 -1.9642e-08 7.16116e-09)
(7.58016e-09 -2.31434e-08 8.84816e-09)
(8.21171e-09 -2.67085e-08 1.07574e-08)
(8.58574e-09 -3.02858e-08 1.28927e-08)
(8.58177e-09 -3.37795e-08 1.5221e-08)
(8.03319e-09 -3.7054e-08 1.76582e-08)
(6.74356e-09 -3.99566e-08 2.00537e-08)
(4.5574e-09 -4.23606e-08 2.22007e-08)
(1.54429e-09 -4.42684e-08 2.38861e-08)
(-1.61786e-09 -4.58756e-08 2.49937e-08)
(-3.37153e-09 -4.73441e-08 2.55816e-08)
(1.13065e-09 -2.85599e-09 9.19188e-10)
(3.13746e-09 -7.99277e-09 2.59587e-09)
(4.937e-09 -1.27886e-08 4.22691e-09)
(6.56471e-09 -1.74301e-08 5.91062e-09)
(8.04098e-09 -2.20544e-08 7.72974e-09)
(9.36997e-09 -2.67606e-08 9.75518e-09)
(1.05334e-08 -3.15974e-08 1.20441e-08)
(1.14832e-08 -3.65643e-08 1.46348e-08)
(1.21297e-08 -4.16063e-08 1.75363e-08)
(1.23276e-08 -4.66081e-08 2.07127e-08)
(1.18641e-08 -5.13951e-08 2.40621e-08)
(1.04633e-08 -5.57517e-08 2.74135e-08)
(7.83848e-09 -5.94785e-08 3.05302e-08)
(3.90494e-09 -6.25171e-08 3.31953e-08)
(-7.18762e-10 -6.50927e-08 3.52885e-08)
(-4.02693e-09 -6.73688e-08 3.66782e-08)
(1.42184e-09 -3.51497e-09 1.14391e-09)
(3.94625e-09 -9.84097e-09 3.22936e-09)
(6.21239e-09 -1.57575e-08 5.2558e-09)
(8.26659e-09 -2.14963e-08 7.34262e-09)
(1.01406e-08 -2.72407e-08 9.5919e-09)
(1.1847e-08 -3.31179e-08 1.20907e-08)
(1.33761e-08 -3.92029e-08 1.49101e-08)
(1.46884e-08 -4.55129e-08 1.80988e-08)
(1.57021e-08 -5.2001e-08 2.16719e-08)
(1.6277e-08 -5.85462e-08 2.55902e-08)
(1.61965e-08 -6.4942e-08 2.9751e-08)
(1.51433e-08 -7.08784e-08 3.39525e-08)
(1.27165e-08 -7.59516e-08 3.79435e-08)
(8.55566e-09 -7.97023e-08 4.14874e-08)
(2.84821e-09 -8.18155e-08 4.44407e-08)
(-2.31437e-09 -8.26193e-08 4.65084e-08)
(1.68935e-09 -4.05872e-09 1.34258e-09)
(4.68911e-09 -1.13672e-08 3.78849e-09)
(7.38403e-09 -1.82149e-08 6.16091e-09)
(9.83286e-09 -2.48805e-08 8.59718e-09)
(1.20773e-08 -3.15804e-08 1.12142e-08)
(1.4143e-08 -3.84775e-08 1.41126e-08)
(1.60353e-08 -4.56742e-08 1.7374e-08)
(1.77342e-08 -5.3212e-08 2.10551e-08)
(1.91865e-08 -6.10649e-08 2.51738e-08)
(2.02939e-08 -6.9125e-08 2.96925e-08)
(2.08967e-08 -7.71782e-08 3.4491e-08)
(2.07524e-08 -8.48639e-08 3.93471e-08)
(1.95064e-08 -9.15865e-08 4.39541e-08)
(1.67013e-08 -9.63891e-08 4.80132e-08)
(1.19788e-08 -9.79058e-08 5.13433e-08)
(6.34074e-09 -9.55708e-08 5.36755e-08)
(1.92823e-09 -4.46422e-09 1.51166e-09)
(5.35259e-09 -1.25087e-08 4.26368e-09)
(8.43047e-09 -2.00621e-08 6.92688e-09)
(1.12303e-08 -2.74388e-08 9.65188e-09)
(1.38062e-08 -3.48908e-08 1.2567e-08)
(1.61962e-08 -4.26084e-08 1.57815e-08)
(1.84232e-08 -5.07223e-08 1.93842e-08)
(2.04933e-08 -5.93016e-08 2.34355e-08)
(2.23939e-08 -6.83487e-08 2.79534e-08)
(2.40931e-08 -7.7787e-08 3.2895e-08)
(2.55421e-08 -8.74404e-08 3.81231e-08)
(2.66803e-08 -9.69924e-08 4.33717e-08)
(2.74624e-08 -1.05921e-07 4.82437e-08)
(2.78962e-08 -1.13367e-07 5.2297e-08)
(2.80353e-08 -1.17962e-07 5.5211e-08)
(2.77039e-08 -1.18253e-07 5.69268e-08)