/*--------------------------------*- C++ -*----------------------------------*\
| =========                 |                                                 |
| \\      /  F ield         | OpenFOAM: The Open Source CFD Toolbox           |
|  \\    /   O peration     | Version:  v1912                                 |
|   \\  /    A nd           | Website:  www.openfoam.com                      |
|    \\/     M anipulation  |                                                 |
\*---------------------------------------------------------------------------*/
FoamFile
{
    version     2.0;
    format      ascii;
    class       surfaceScalarField;
    location    "0.43/fluid";
    object      meshPhi;
}
// * * * * * * * * * * * * * * * * * * * * * * * * * * * * * * * * * * * * * //

dimensions      [0 3 -1 0 0 0 0];
oriented        oriented;


internalField   nonuniform List<scalar> 
41600
(
2.07659e-13
-5.38598e-13
2.00232e-13
-2.06754e-13
3.95638e-13
-1.56916e-12
5.89906e-13
-6.09424e-13
5.7064e-13
-2.52621e-12
9.71243e-13
-1.00433e-12
7.38643e-13
-3.44424e-12
1.36917e-12
-1.41769e-12
9.05312e-13
-4.347e-12
1.80613e-12
-1.87321e-12
1.0765e-12
-5.24613e-12
2.3031e-12
-2.39333e-12
1.25898e-12
-6.13857e-12
2.87998e-12
-2.99984e-12
1.46171e-12
-7.00115e-12
3.55554e-12
-3.71412e-12
1.69857e-12
-7.78056e-12
4.34662e-12
-4.55707e-12
1.99453e-12
-8.37534e-12
5.26707e-12
-5.54928e-12
2.39931e-12
-8.60257e-12
6.32666e-12
-6.71327e-12
3.01856e-12
-8.13159e-12
7.53332e-12
-8.08358e-12
4.07475e-12
-6.34858e-12
8.90452e-12
-9.73942e-12
5.98043e-12
-2.13029e-12
1.04873e-11
-1.18791e-11
8.96603e-12
5.75966e-12
1.22752e-11
-1.47361e-11
1.94454e-11
1.54917e-11
-2.28562e-11
6.18676e-13
-1.06112e-12
5.95564e-13
-6.15006e-13
1.17862e-12
-3.09218e-12
1.75449e-12
-1.81267e-12
1.69969e-12
-4.98027e-12
2.88828e-12
-2.98682e-12
2.19961e-12
-6.7943e-12
4.0708e-12
-4.21511e-12
2.69516e-12
-8.58296e-12
5.36853e-12
-5.5678e-12
3.20354e-12
-1.03727e-11
6.84363e-12
-7.11139e-12
3.74426e-12
-1.21633e-11
8.55514e-12
-8.91044e-12
4.34218e-12
-1.39187e-11
1.05585e-11
-1.1028e-11
5.03381e-12
-1.55522e-11
1.29031e-11
-1.35249e-11
5.88073e-12
-1.68997e-11
1.56277e-11
-1.64583e-11
6.99824e-12
-1.76811e-11
1.87528e-11
-1.98822e-11
8.61659e-12
-1.74452e-11
2.22763e-11
-2.38592e-11
1.11824e-11
-1.55246e-11
2.61752e-11
-2.85047e-11
1.54219e-11
-1.1136e-11
3.04057e-11
-3.40707e-11
2.14573e-11
-4.29893e-12
3.47156e-11
-4.06476e-11
3.6648e-12
3.81441e-11
-4.95317e-11
1.01709e-12
-1.55172e-12
9.7593e-13
-1.00786e-12
1.93731e-12
-4.52333e-12
2.87466e-12
-2.97016e-12
2.79304e-12
-7.2901e-12
4.73109e-12
-4.89266e-12
3.61314e-12
-9.95567e-12
6.66543e-12
-6.90164e-12
4.42496e-12
-1.25959e-11
8.78591e-12
-9.11149e-12
5.25625e-12
-1.5257e-11
1.11938e-11
-1.16306e-11
6.13751e-12
-1.7951e-11
1.39854e-11
-1.4564e-11
7.10542e-12
-2.06462e-11
1.72513e-11
-1.80143e-11
8.20885e-12
-2.32512e-11
2.10723e-11
-2.20795e-11
9.52007e-12
-2.55898e-11
2.55093e-11
-2.68469e-11
1.11576e-11
-2.73683e-11
3.05857e-11
-3.23841e-11
1.33305e-11
-2.81479e-11
3.6262e-11
-3.87304e-11
1.63911e-11
-2.73717e-11
4.24001e-11
-4.5895e-11
2.0801e-11
-2.45849e-11
4.87027e-11
-5.38441e-11
2.62785e-11
-2.01948e-11
5.45238e-11
-6.20797e-11
-1.53265e-11
5.91146e-11
-7.24456e-11
1.39504e-12
-1.99429e-12
1.33228e-12
-1.3759e-12
2.65659e-12
-5.81581e-12
3.92353e-12
-4.05388e-12
3.82852e-12
-9.38097e-12
6.45464e-12
-6.6749e-12
4.94997e-12
-1.2828e-11
9.08815e-12
-9.40963e-12
6.05808e-12
-1.62618e-11
1.19703e-11
-1.24126e-11
7.19024e-12
-1.97535e-11
1.52381e-11
-1.58305e-11
8.38658e-12
-2.33373e-11
1.90224e-11
-1.98056e-11
9.69279e-12
-2.70031e-11
2.34471e-11
-2.44774e-11
1.11635e-11
-3.06834e-11
2.86248e-11
-2.99797e-11
1.28659e-11
-3.42327e-11
3.46418e-11
-3.64304e-11
1.48867e-11
-3.74002e-11
4.15326e-11
-4.39123e-11
1.73425e-11
-3.98033e-11
4.92356e-11
-5.24432e-11
2.03781e-11
-4.0933e-11
5.75216e-11
-6.19277e-11
2.41166e-11
-4.02794e-11
6.58789e-11
-7.20733e-11
2.81768e-11
-3.78539e-11
7.33046e-11
-8.19384e-11
-3.40562e-11
7.86011e-11
-9.28281e-11
1.74526e-12
-2.37306e-12
1.65663e-12
-1.71079e-12
3.3224e-12
-6.92359e-12
4.87727e-12
-5.03904e-12
4.78541e-12
-1.11785e-11
8.01894e-12
-8.29194e-12
6.18253e-12
-1.53092e-11
1.1281e-11
-1.16788e-11
7.55965e-12
-1.94502e-11
1.48426e-11
-1.5389e-11
8.96298e-12
-2.37008e-11
1.88717e-11
-1.9602e-11
1.04418e-11
-2.81249e-11
2.3529e-11
-2.44926e-11
1.20507e-11
-3.27473e-11
2.89695e-11
-3.02337e-11
1.38513e-11
-3.75466e-11
3.53371e-11
-3.69938e-11
1.59099e-11
-4.24418e-11
4.27505e-11
-4.49265e-11
1.82918e-11
-4.72696e-11
5.12747e-11
-5.41476e-11
2.10442e-11
-5.17478e-11
6.08686e-11
-6.46951e-11
2.41486e-11
-5.54122e-11
7.12866e-11
-7.64478e-11
2.7443e-11
-5.7537e-11
8.18923e-11
-8.89659e-11
3.03898e-11
-5.7327e-11
9.13141e-11
-1.00886e-10
-5.39081e-11
9.78029e-11
-1.12903e-10
2.06141e-12
-2.6731e-12
1.94248e-12
-2.0058e-12
3.92248e-12
-7.80287e-12
5.71664e-12
-5.90565e-12
5.64554e-12
-1.26112e-11
9.39166e-12
-9.71025e-12
7.28638e-12
-1.72994e-11
1.3197e-11
-1.36605e-11
8.89824e-12
-2.20296e-11
1.73384e-11
-1.79738e-11
1.05351e-11
-2.69298e-11
2.20079e-11
-2.28554e-11
1.22549e-11
-3.20961e-11
2.73906e-11
-2.8506e-11
1.4123e-11
-3.75944e-11
3.36665e-11
-3.51256e-11
1.6214e-11
-4.34608e-11
4.10079e-11
-4.29138e-11
1.8611e-11
-4.96988e-11
4.95695e-11
-5.2063e-11
2.14013e-11
-5.62722e-11
5.94653e-11
-6.2742e-11
2.46579e-11
-6.30819e-11
7.07252e-11
-7.50655e-11
2.83814e-11
-6.98939e-11
8.31974e-11
-8.90156e-11
3.23745e-11
-7.61383e-11
9.63156e-11
-1.04241e-10
3.58644e-11
-8.05714e-11
1.08511e-10
-1.19164e-10
-7.95143e-11
1.17513e-10
-1.34024e-10
2.33835e-12
-2.881e-12
2.1852e-12
-2.25615e-12
4.44693e-12
-8.41431e-12
6.42788e-12
-6.63948e-12
6.39424e-12
-1.36143e-11
1.05498e-11
-1.09061e-11
8.24157e-12
-1.87067e-11
1.4803e-11
-1.53204e-11
1.00475e-11
-2.38769e-11
1.94118e-11
-2.01195e-11
1.18719e-11
-2.92777e-11
2.4585e-11
-2.55265e-11
1.378e-11
-3.50344e-11
3.05233e-11
-3.17586e-11
1.58475e-11
-4.12509e-11
3.74226e-11
-3.90333e-11
1.81656e-11
-4.80162e-11
4.5475e-11
-4.75711e-11
2.08471e-11
-5.54141e-11
5.48632e-11
-5.75952e-11
2.4037e-11
-6.35363e-11
6.57502e-11
-6.93284e-11
2.79236e-11
-7.25026e-11
7.82573e-11
-8.29878e-11
3.27344e-11
-8.24763e-11
9.24049e-11
-9.87542e-11
3.86524e-11
-9.36047e-11
1.07908e-10
-1.16624e-10
4.50104e-11
-1.05323e-10
1.23361e-10
-1.35246e-10
-1.1717e-10
1.36273e-10
-1.55825e-10
2.57246e-12
2.3822e-12
-2.45915e-12
-2.98578e-12
4.88896e-12
7.00353e-12
-7.23288e-12
-8.72563e-12
7.02159e-12
1.14815e-11
-1.1867e-11
-1.41347e-11
9.03457e-12
1.6082e-11
-1.66408e-11
-1.94552e-11
1.09892e-11
2.104e-11
-2.18026e-11
-2.48888e-11
1.29483e-11
2.65722e-11
-2.75833e-11
-3.0606e-11
1.49809e-11
3.28845e-11
-3.42062e-11
-3.67532e-11
1.71683e-11
4.01767e-11
-4.18926e-11
-4.34605e-11
1.96121e-11
4.86444e-11
-5.08668e-11
-5.08512e-11
2.24466e-11
5.84771e-11
-6.13592e-11
-5.90547e-11
2.58606e-11
6.98553e-11
-7.36122e-11
-6.82265e-11
3.01332e-11
8.29458e-11
-8.78939e-11
-7.85809e-11
3.56784e-11
9.78771e-11
-1.04509e-10
-9.04354e-11
4.30228e-11
1.14604e-10
-1.23743e-10
-1.04218e-10
5.16098e-11
1.31929e-10
-1.44528e-10
-1.19476e-10
1.48861e-10
-1.71696e-10
-1.41052e-10
2.06319e-13
-5.49155e-13
1.86363e-13
3.92583e-13
-1.59998e-12
5.48826e-13
5.64988e-13
-2.57615e-12
9.02883e-13
7.28892e-13
-3.51322e-12
1.27125e-12
8.89069e-13
-4.43619e-12
1.67421e-12
1.04998e-12
-5.35821e-12
2.13034e-12
1.21617e-12
-6.2783e-12
2.65667e-12
1.39291e-12
-7.17683e-12
3.26806e-12
1.58788e-12
-8.00751e-12
3.97564e-12
1.81505e-12
-8.68371e-12
4.78363e-12
2.10399e-12
-9.0552e-12
5.68362e-12
2.51991e-12
-8.86561e-12
6.64435e-12
3.19751e-12
-7.67532e-12
7.59224e-12
4.35674e-12
-4.76995e-12
8.36874e-12
6.03421e-12
4.67432e-13
8.67513e-12
7.63707e-12
7.7766e-12
6.1484e-13
-1.08174e-12
5.54291e-13
1.16986e-12
-3.15237e-12
1.63225e-12
1.68347e-12
-5.07779e-12
2.68489e-12
2.17161e-12
-6.92915e-12
3.77962e-12
2.6485e-12
-8.75745e-12
4.9765e-12
3.12736e-12
-1.05917e-11
6.33063e-12
3.62132e-12
-1.24352e-11
7.89247e-12
4.14485e-12
-1.42579e-11
9.70619e-12
4.71703e-12
-1.59843e-11
1.18049e-11
5.36935e-12
-1.74743e-11
1.42007e-11
6.16398e-12
-1.84975e-11
1.68669e-11
7.23111e-12
-1.87084e-11
1.97052e-11
8.82229e-12
-1.7654e-11
2.2487e-11
1.12964e-11
-1.49417e-11
2.47454e-11
1.4558e-11
-1.09088e-11
2.57132e-11
-8.03152e-12
2.33291e-11
1.0113e-12
-1.58161e-12
9.0828e-13
1.92404e-12
-4.61058e-12
2.67431e-12
2.76837e-12
-7.43154e-12
4.39788e-12
3.57046e-12
-1.01514e-11
6.1888e-12
4.35371e-12
-1.28489e-11
8.14486e-12
5.13984e-12
-1.55736e-11
1.03558e-11
5.94975e-12
-1.83416e-11
1.29041e-11
6.8046e-12
-2.11276e-11
1.58626e-11
7.72752e-12
-2.38525e-11
1.92869e-11
8.74778e-12
-2.63648e-11
2.31992e-11
9.91116e-12
-2.8422e-11
2.75585e-11
1.13e-11
-2.96886e-11
3.2208e-11
1.30517e-11
-2.98049e-11
3.6786e-11
1.53067e-11
-2.86395e-11
4.05929e-11
1.77991e-11
-2.67991e-11
4.26054e-11
-2.60748e-11
4.10389e-11
1.38818e-12
-2.03242e-12
1.23997e-12
2.64068e-12
-5.92713e-12
3.65021e-12
3.79867e-12
-9.56147e-12
6.00037e-12
4.89795e-12
-1.30777e-11
8.43898e-12
5.97086e-12
-1.65841e-11
1.10982e-11
7.04743e-12
-2.01552e-11
1.40995e-11
8.15625e-12
-2.38289e-11
1.75552e-11
9.32446e-12
-2.76005e-11
2.15659e-11
1.05761e-11
-3.14119e-11
2.62115e-11
1.19288e-11
-3.51369e-11
3.15308e-11
1.33866e-11
-3.85634e-11
3.74839e-11
1.49284e-11
-4.13878e-11
4.3886e-11
1.64814e-11
-4.32538e-11
5.0298e-11
1.78858e-11
-4.39133e-11
5.58738e-11
1.88638e-11
-4.35878e-11
5.93754e-11
-4.35839e-11
5.88303e-11
1.73837e-12
-2.41816e-12
1.54197e-12
3.30609e-12
-7.05527e-12
4.53796e-12
4.75422e-12
-1.1392e-11
7.45543e-12
6.12743e-12
-1.56043e-11
1.04766e-11
7.46644e-12
-1.98304e-11
1.37634e-11
8.80968e-12
-2.41726e-11
1.74647e-11
1.01943e-11
-2.86977e-11
2.17192e-11
1.16556e-11
-3.34332e-11
2.66532e-11
1.32235e-11
-3.83626e-11
3.23718e-11
1.49131e-11
-4.34137e-11
3.89374e-11
1.67051e-11
-4.84421e-11
4.63298e-11
1.85036e-11
-5.32049e-11
5.43734e-11
2.00637e-11
-5.73204e-11
6.26086e-11
2.0931e-11
-6.02298e-11
7.00967e-11
2.06729e-11
-6.13576e-11
7.53458e-11
-6.12874e-11
7.60234e-11
2.05554e-12
-2.72367e-12
1.80829e-12
3.90803e-12
-7.95052e-12
5.31969e-12
5.61688e-12
-1.28505e-11
8.73304e-12
7.23441e-12
-1.763e-11
1.22581e-11
8.80886e-12
-2.24548e-11
1.60806e-11
1.03868e-11
-2.74554e-11
2.03714e-11
1.20147e-11
-3.27296e-11
2.52902e-11
1.37399e-11
-3.83433e-11
3.09842e-11
1.56076e-11
-4.43316e-11
3.75815e-11
1.76537e-11
-5.06965e-11
4.5171e-11
1.98853e-11
-5.73984e-11
5.37655e-11
2.22364e-11
-6.4334e-11
6.32301e-11
2.44744e-11
-7.1265e-11
7.31431e-11
2.60692e-11
-7.76322e-11
8.2549e-11
2.62781e-11
-8.22894e-11
8.97297e-11
-8.29255e-11
9.2005e-11
2.33444e-12
-2.93534e-12
2.03459e-12
4.43631e-12
-8.57295e-12
5.98259e-12
6.37146e-12
-1.38714e-11
9.81182e-12
8.19803e-12
-1.90617e-11
1.37525e-11
9.97023e-12
-2.43329e-11
1.80075e-11
1.17414e-11
-2.98399e-11
2.27625e-11
1.35672e-11
-3.57082e-11
2.81908e-11
1.55077e-11
-4.20394e-11
3.44533e-11
1.76297e-11
-4.89173e-11
4.1693e-11
2.00067e-11
-5.64148e-11
5.00192e-11
2.2716e-11
-6.46034e-11
5.94761e-11
2.58246e-11
-7.35641e-11
6.99784e-11
2.93452e-11
-8.33849e-11
8.11738e-11
3.31157e-11
-9.4066e-11
9.21533e-11
3.64245e-11
-1.04936e-10
1.01023e-10
-1.14638e-10
1.04502e-10
2.5712e-12
2.21844e-12
-3.04197e-12
4.88363e-12
6.51967e-12
-8.88974e-12
7.00712e-12
1.06805e-11
-1.44008e-11
9.00332e-12
1.4944e-11
-1.98226e-11
1.093e-11
1.95228e-11
-2.53605e-11
1.28446e-11
2.46095e-11
-3.11867e-11
1.48086e-11
3.03823e-11
-3.7447e-11
1.68914e-11
3.70052e-11
-4.42676e-11
1.91762e-11
4.46237e-11
-5.17633e-11
2.17676e-11
5.33512e-11
-6.00475e-11
2.48036e-11
6.32419e-11
-6.9246e-11
2.84709e-11
7.42356e-11
-7.95176e-11
3.3016e-11
8.60312e-11
-9.10723e-11
3.86785e-11
9.7803e-11
-1.04124e-10
4.48781e-11
1.07623e-10
-1.1803e-10
1.11304e-10
-1.34725e-10
2.04117e-13
-5.58135e-13
1.65852e-13
3.87797e-13
-1.62624e-12
4.88247e-13
5.56582e-13
-2.61876e-12
8.02636e-13
7.15021e-13
-3.57216e-12
1.12884e-12
8.66746e-13
-4.51248e-12
1.48432e-12
1.01447e-12
-5.45444e-12
1.88466e-12
1.15993e-12
-6.39957e-12
2.34347e-12
1.30383e-12
-7.33302e-12
2.87152e-12
1.44597e-12
-8.21826e-12
3.47454e-12
1.58629e-12
-8.98941e-12
4.14916e-12
1.7279e-12
-9.54078e-12
4.87542e-12
1.88276e-12
-9.71367e-12
5.6038e-12
2.07521e-12
-9.28284e-12
6.23338e-12
2.31746e-12
-7.97456e-12
6.58223e-12
2.50503e-12
-5.71911e-12
6.41591e-12
-2.82357e-12
5.77591e-12
6.08463e-13
-1.09927e-12
4.93297e-13
1.15599e-12
-3.20359e-12
1.45211e-12
1.65912e-12
-5.16086e-12
2.38685e-12
2.13146e-12
-7.04396e-12
3.35633e-12
2.58392e-12
-8.90581e-12
4.41227e-12
3.02472e-12
-1.0778e-11
5.60088e-12
3.45904e-12
-1.2668e-11
6.96261e-12
3.88842e-12
-1.45534e-11
8.52959e-12
4.31021e-12
-1.63742e-11
1.03194e-11
4.7181e-12
-1.80226e-11
1.2323e-11
5.10602e-12
-1.93338e-11
1.44834e-11
5.47579e-12
-2.00931e-11
1.66592e-11
5.83806e-12
-2.00894e-11
1.85683e-11
6.16234e-12
-1.92888e-11
1.97272e-11
6.23758e-12
-1.81658e-11
1.95789e-11
-1.82918e-11
1.78837e-11
1.00142e-12
-1.60697e-12
8.08374e-13
1.90253e-12
-4.68466e-12
2.3793e-12
2.73059e-12
-7.55155e-12
3.90995e-12
3.50817e-12
-1.03169e-11
5.49615e-12
4.25361e-12
-1.3062e-11
7.22209e-12
4.98096e-12
-1.58393e-11
9.16312e-12
5.69921e-12
-1.8669e-11
1.13855e-11
6.41036e-12
-2.1534e-11
1.39428e-11
7.10611e-12
-2.43707e-11
1.68662e-11
7.76317e-12
-2.70601e-11
2.01459e-11
8.338e-12
-2.94235e-11
2.36993e-11
8.75946e-12
-3.12465e-11
2.73194e-11
8.91524e-12
-3.23734e-11
3.06039e-11
8.63083e-12
-3.29272e-11
3.2904e-11
7.76385e-12
-3.35055e-11
3.35474e-11
-3.51388e-11
3.27063e-11
1.37581e-12
-2.06467e-12
1.10369e-12
2.61373e-12
-6.02127e-12
3.2479e-12
3.75125e-12
-9.71376e-12
5.33528e-12
4.8197e-12
-1.32872e-11
7.49545e-12
5.84513e-12
-1.68524e-11
9.8422e-12
6.8482e-12
-2.04864e-11
1.24776e-11
7.84308e-12
-2.42302e-11
1.54923e-11
8.83409e-12
-2.80845e-11
1.89608e-11
9.80872e-12
-3.20024e-11
2.29306e-11
1.07252e-11
-3.58802e-11
2.73992e-11
1.1492e-11
-3.9552e-11
3.22761e-11
1.19333e-11
-4.28022e-11
3.73234e-11
1.175e-11
-4.54279e-11
4.20812e-11
1.05457e-11
-4.73917e-11
4.58254e-11
8.26986e-12
-4.89751e-11
4.7792e-11
-5.10001e-11
4.81143e-11
1.72475e-12
-2.45615e-12
1.3727e-12
3.27633e-12
-7.16606e-12
4.0384e-12
4.70167e-12
-1.15709e-11
6.63009e-12
6.0405e-12
-1.58498e-11
9.30677e-12
7.32667e-12
-2.01429e-11
1.22078e-11
8.5885e-12
-2.45543e-11
1.54586e-11
9.84771e-12
-2.91516e-11
1.91712e-11
1.11156e-11
-3.39638e-11
2.34399e-11
1.23843e-11
-3.89768e-11
2.83296e-11
1.36086e-11
-4.41256e-11
3.38514e-11
1.46735e-11
-4.9283e-11
3.99215e-11
1.53326e-11
-5.4244e-11
4.62978e-11
1.51273e-11
-5.87079e-11
5.2497e-11
1.33973e-11
-6.22713e-11
5.77384e-11
9.96749e-12
-6.45299e-11
6.11185e-11
-6.59386e-11
6.26284e-11
2.04197e-12
-2.76606e-12
1.61006e-12
3.87817e-12
-8.07407e-12
4.73492e-12
5.56382e-12
-1.30498e-11
7.7677e-12
7.1462e-12
-1.79025e-11
1.08914e-11
8.66668e-12
-2.27999e-11
1.42661e-11
1.01618e-11
-2.78728e-11
1.80355e-11
1.16633e-11
-3.32172e-11
2.23289e-11
1.3195e-11
-3.88957e-11
2.72568e-11
1.4766e-11
-4.49366e-11
3.28994e-11
1.6355e-11
-5.13312e-11
3.92831e-11
1.78769e-11
-5.80239e-11
4.63378e-11
1.91169e-11
-6.48869e-11
5.38295e-11
1.96232e-11
-7.16537e-11
6.12626e-11
1.86331e-11
-7.77646e-11
6.77906e-11
1.56308e-11
-8.21942e-11
7.2335e-11
-8.29183e-11
7.48279e-11
2.32207e-12
-2.98066e-12
1.8119e-12
4.40882e-12
-8.70498e-12
5.32599e-12
6.32203e-12
-1.40842e-11
8.72899e-12
8.11512e-12
-1.9352e-11
1.22218e-11
9.83589e-12
-2.46989e-11
1.59792e-11
1.15286e-11
-3.02789e-11
2.01577e-11
1.32351e-11
-3.62137e-11
2.48977e-11
1.49949e-11
-4.2597e-11
3.03196e-11
1.68423e-11
-4.94979e-11
3.65135e-11
1.87995e-11
-5.69641e-11
4.35156e-11
2.08584e-11
-6.50224e-11
5.12665e-11
2.29415e-11
-7.36733e-11
5.95377e-11
2.48284e-11
-8.2861e-11
6.78139e-11
2.6056e-11
-9.23543e-11
7.51438e-11
2.60157e-11
-1.01311e-10
8.01865e-11
-1.08333e-10
8.26362e-11
2.56098e-12
1.97603e-12
-3.08865e-12
4.86047e-12
5.80532e-12
-9.02573e-12
6.96462e-12
9.50383e-12
-1.46198e-11
8.93084e-12
1.32837e-11
-2.0121e-11
1.08113e-11
1.73283e-11
-2.57356e-11
1.26556e-11
2.18002e-11
-3.16342e-11
1.45136e-11
2.68438e-11
-3.79572e-11
1.64372e-11
3.25817e-11
-4.482e-11
1.84825e-11
3.91044e-11
-5.23184e-11
2.07108e-11
4.64481e-11
-6.05322e-11
2.31868e-11
5.45528e-11
-6.95288e-11
2.59685e-11
6.31876e-11
-7.93626e-11
2.9081e-11
7.18217e-11
-9.0058e-11
3.24401e-11
7.944e-11
-1.01522e-10
3.54927e-11
8.45117e-11
-1.1289e-10
8.56586e-11
-1.25201e-10
2.01424e-13
-5.65442e-13
1.39604e-13
3.82041e-13
-1.64759e-12
4.10841e-13
5.46685e-13
-2.65339e-12
6.74953e-13
6.99045e-13
-3.62006e-12
9.48335e-13
8.41544e-13
-4.57454e-12
1.2452e-12
9.75109e-13
-5.53282e-12
1.57787e-12
1.09877e-12
-6.49874e-12
1.95658e-12
1.20895e-12
-7.46192e-12
2.38854e-12
1.29862e-12
-8.39488e-12
2.8758e-12
1.35643e-12
-9.24975e-12
3.4116e-12
1.36641e-12
-9.95628e-12
3.97441e-12
1.30798e-12
-1.04232e-11
4.51968e-12
1.15318e-12
-1.05454e-11
4.9711e-12
8.56193e-13
-1.02205e-11
5.22263e-12
3.81817e-13
-9.41984e-12
5.19139e-12
-7.76401e-12
5.20301e-12
6.00635e-13
-1.11355e-12
4.1525e-13
1.13927e-12
-3.24531e-12
1.22197e-12
1.63037e-12
-5.22844e-12
2.0073e-12
2.08506e-12
-7.13719e-12
2.81985e-12
2.51077e-12
-9.02596e-12
3.70172e-12
2.91062e-12
-1.09285e-11
4.68949e-12
3.28207e-12
-1.28558e-11
5.8136e-12
3.61474e-12
-1.47928e-11
7.09569e-12
3.88713e-12
-1.66934e-11
8.54256e-12
4.06296e-12
-1.84769e-11
1.01355e-11
4.08821e-12
-2.00301e-11
1.18137e-11
3.88985e-12
-2.12259e-11
1.34514e-11
3.37679e-12
-2.19786e-11
1.48371e-11
2.45494e-12
-2.23494e-11
1.56864e-11
1.18144e-12
-2.262e-11
1.5798e-11
-2.34566e-11
1.52497e-11
9.89178e-13
-1.62765e-12
6.8055e-13
1.87638e-12
-4.74499e-12
2.00246e-12
2.68565e-12
-7.64905e-12
3.28862e-12
3.43565e-12
-1.04508e-11
4.61822e-12
4.1394e-12
-1.32332e-11
6.05978e-12
4.80319e-12
-1.60509e-11
7.67297e-12
5.42443e-12
-1.89278e-11
9.50789e-12
5.98755e-12
-2.18533e-11
1.16009e-11
6.4574e-12
-2.47777e-11
1.39657e-11
6.77014e-12
-2.76076e-11
1.65769e-11
6.82248e-12
-3.0212e-11
1.93462e-11
6.46266e-12
-3.24525e-11
2.20917e-11
5.50037e-12
-3.42676e-11
2.45164e-11
3.79919e-12
-3.58144e-11
2.62443e-11
1.65711e-12
-3.74645e-11
2.70338e-11
-3.96257e-11
2.7253e-11
1.36024e-12
-2.09091e-12
9.29312e-13
2.58046e-12
-6.09775e-12
2.73392e-12
3.69404e-12
-9.837e-12
4.4882e-12
4.72744e-12
-1.34555e-11
6.29918e-12
5.70002e-12
-1.70655e-11
8.25947e-12
6.62294e-12
-2.07456e-11
1.045e-11
7.49635e-12
-2.45387e-11
1.29395e-11
8.30378e-12
-2.84493e-11
1.57792e-11
9.00197e-12
-3.24382e-11
1.89921e-11
9.50506e-12
-3.64176e-11
2.25535e-11
9.66135e-12
-4.02513e-11
2.63625e-11
9.2257e-12
-4.37714e-11
3.02091e-11
7.85995e-12
-4.68342e-11
3.37586e-11
5.28496e-12
-4.94235e-11
3.66042e-11
1.94127e-12
-5.16782e-11
3.84665e-11
-5.3982e-11
3.96586e-11
1.70716e-12
-2.48695e-12
1.15603e-12
3.2387e-12
-7.25572e-12
3.39997e-12
4.63691e-12
-1.17149e-11
5.57848e-12
5.93604e-12
-1.60453e-11
7.82284e-12
7.16259e-12
-2.03879e-11
1.02465e-11
8.33452e-12
-2.48471e-11
1.2949e-11
9.45854e-12
-2.94896e-11
1.60153e-11
1.05241e-11
-3.43432e-11
1.95108e-11
1.14916e-11
-3.93924e-11
2.34687e-11
1.22727e-11
-4.45723e-11
2.78697e-11
1.26956e-11
-4.97582e-11
3.26099e-11
1.24559e-11
-5.47525e-11
3.74665e-11
1.10815e-11
-5.92662e-11
4.2082e-11
8.06941e-12
-6.29033e-11
4.60178e-11
3.74716e-12
-6.52258e-11
4.89221e-11
-6.641e-11
5.10229e-11
2.02371e-12
-2.8003e-12
1.35619e-12
3.83905e-12
-8.17358e-12
3.98716e-12
5.49636e-12
-1.32091e-11
6.53694e-12
7.03729e-12
-1.81176e-11
9.15658e-12
8.49577e-12
-2.30669e-11
1.19764e-11
9.89797e-12
-2.81863e-11
1.51107e-11
1.12607e-11
-3.35681e-11
1.86576e-11
1.25865e-11
-3.92678e-11
2.26933e-11
1.38544e-11
-4.53025e-11
2.72602e-11
1.50017e-11
-5.16455e-11
3.2344e-11
1.58903e-11
-5.82133e-11
3.78402e-11
1.6251e-11
-6.48361e-11
4.35128e-11
1.56207e-11
-7.11894e-11
4.89683e-11
1.33953e-11
-7.66595e-11
5.36991e-11
9.56609e-12
-8.02541e-11
5.72544e-11
-7.99883e-11
5.98922e-11
2.30442e-12
-3.01711e-12
1.52651e-12
4.37087e-12
-8.81082e-12
4.48579e-12
6.25636e-12
-1.42532e-11
7.34738e-12
8.00885e-12
-1.95792e-11
1.02772e-11
9.66907e-12
-2.49786e-11
1.34176e-11
1.12715e-11
-3.06024e-11
1.68931e-11
1.28442e-11
-3.65659e-11
2.08102e-11
1.44072e-11
-4.29509e-11
2.52518e-11
1.59673e-11
-4.98068e-11
3.02646e-11
1.75082e-11
-5.71486e-11
3.5836e-11
1.89717e-11
-6.49498e-11
4.18562e-11
2.02227e-11
-7.31251e-11
4.80674e-11
2.10114e-11
-8.14899e-11
5.40147e-11
2.0988e-11
-8.96636e-11
5.9056e-11
2.002e-11
-9.68222e-11
6.25602e-11
-1.01801e-10
6.47967e-11
2.54498e-12
1.6651e-12
-3.12606e-12
4.82589e-12
4.89043e-12
-9.13427e-12
6.90441e-12
8.00114e-12
-1.47929e-11
8.83296e-12
1.11725e-11
-2.03528e-11
1.06573e-11
1.45541e-11
-2.60193e-11
1.24185e-11
1.82753e-11
-3.19588e-11
1.4154e-11
2.24456e-11
-3.83035e-11
1.58989e-11
2.7149e-11
-4.5154e-11
1.76852e-11
3.24309e-11
-5.25813e-11
1.95404e-11
3.82744e-11
-6.06253e-11
2.14828e-11
4.45602e-11
-6.92883e-11
2.35117e-11
5.10076e-11
-7.85234e-11
2.56026e-11
5.71061e-11
-8.82075e-11
2.77198e-11
6.20904e-11
-9.80823e-11
2.97044e-11
6.51454e-11
-1.07347e-10
6.59625e-11
-1.17296e-10
1.98643e-13
-5.71068e-13
1.08692e-13
3.76151e-13
-1.66401e-12
3.19777e-13
5.36687e-13
-2.68003e-12
5.25061e-13
6.8313e-13
-3.65693e-12
7.37148e-13
8.16814e-13
-4.62227e-12
9.66774e-13
9.37139e-13
-5.59292e-12
1.22299e-12
1.04095e-12
-6.57437e-12
1.51296e-12
1.1216e-12
-7.55953e-12
1.84119e-12
1.16766e-12
-8.52715e-12
2.2079e-12
1.16185e-12
-9.44069e-12
2.60636e-12
1.0806e-12
-1.02491e-11
3.01945e-12
8.95111e-13
-1.08902e-11
3.41628e-12
5.74195e-13
-1.1293e-11
3.75188e-12
9.27536e-14
-1.1366e-11
3.9776e-12
-5.04467e-13
-1.09867e-11
4.06881e-12
-9.47982e-12
4.32413e-12
5.92539e-13
-1.12459e-12
3.23325e-13
1.12213e-12
-3.27756e-12
9.51202e-13
1.60127e-12
-5.28062e-12
1.56169e-12
2.03874e-12
-7.209e-12
2.19211e-12
2.43884e-12
-9.11808e-12
2.87427e-12
2.80031e-12
-1.1043e-11
3.63502e-12
3.11447e-12
-1.29974e-11
4.49575e-12
3.36228e-12
-1.4971e-11
5.47009e-12
3.51042e-12
-1.69273e-11
6.55919e-12
3.50732e-12
-1.88021e-11
7.74426e-12
3.28142e-12
-2.05086e-11
8.97674e-12
2.74628e-12
-2.19537e-11
1.01688e-11
1.82287e-12
-2.30748e-11
1.11933e-11
5.08406e-13
-2.38853e-11
1.19112e-11
-9.20392e-13
-2.44681e-11
1.22503e-11
-2.51499e-11
1.21813e-11
9.7646e-13
-1.64368e-12
5.29966e-13
1.84946e-12
-4.79174e-12
1.55898e-12
2.63994e-12
-7.72438e-12
2.55901e-12
3.36293e-12
-1.05536e-11
3.59071e-12
4.02661e-12
-1.33635e-11
4.70585e-12
4.63063e-12
-1.62098e-11
5.94831e-12
5.16318e-12
-1.91188e-11
7.3534e-12
5.5961e-12
-2.20842e-11
8.94422e-12
5.87779e-12
-2.50642e-11
1.07246e-11
5.92504e-12
-2.79797e-11
1.26681e-11
5.61681e-12
-3.07211e-11
1.47031e-11
4.80004e-12
-3.31736e-11
1.67012e-11
3.33742e-12
-3.52777e-11
1.84815e-11
1.26916e-12
-3.71177e-11
1.98548e-11
-8.20422e-13
-3.88831e-11
2.07209e-11
-4.07955e-11
2.12187e-11
1.34394e-12
-2.11127e-12
7.23809e-13
2.54594e-12
-6.15699e-12
2.12885e-12
3.63544e-12
-9.93196e-12
3.49311e-12
4.63424e-12
-1.3584e-11
4.89854e-12
5.55572e-12
-1.72259e-11
6.41504e-12
6.40285e-12
-2.09368e-11
8.10228e-12
7.16468e-12
-2.47602e-11
1.00087e-11
7.80994e-12
-2.87017e-11
1.21672e-11
8.27721e-12
-3.27247e-11
1.45863e-11
8.46146e-12
-3.67472e-11
1.72368e-11
8.19891e-12
-4.06405e-11
2.00345e-11
7.26134e-12
-4.42422e-11
2.28285e-11
5.40339e-12
-4.73943e-11
2.54135e-11
2.57828e-12
-5.00157e-11
2.75851e-11
-4.88631e-13
-5.21315e-11
2.9217e-11
-5.40389e-11
3.03824e-11
1.6885e-12
-2.51081e-12
9.00572e-13
3.19919e-12
-7.32496e-12
2.64803e-12
4.56981e-12
-1.18254e-11
4.34253e-12
5.82943e-12
-1.61933e-11
6.08451e-12
6.99785e-12
-2.057e-11
7.95966e-12
8.0841e-12
-2.50586e-11
1.00414e-11
9.08297e-12
-2.97239e-11
1.23898e-11
9.96849e-12
-3.459e-11
1.50467e-11
1.06832e-11
-3.96365e-11
1.80261e-11
1.11213e-11
-4.47908e-11
2.12986e-11
1.11056e-11
-4.99174e-11
2.47728e-11
1.03626e-11
-5.48005e-11
2.82826e-11
8.53898e-12
-5.91199e-11
3.16016e-11
5.39431e-12
-6.24317e-11
3.45044e-11
1.52867e-12
-6.42715e-11
3.68215e-11
-6.48242e-11
3.85687e-11
2.004e-12
-2.82672e-12
1.05672e-12
3.79727e-12
-8.25011e-12
3.10598e-12
5.42538e-12
-1.33306e-11
5.08961e-12
6.92457e-12
-1.82791e-11
7.12317e-12
8.32191e-12
-2.32625e-11
9.30512e-12
9.63457e-12
-2.84077e-11
1.17198e-11
1.08674e-11
-3.38018e-11
1.44366e-11
1.20083e-11
-3.94916e-11
1.75042e-11
1.3019e-11
-4.54805e-11
2.09404e-11
1.38216e-11
-5.17207e-11
2.47154e-11
1.42758e-11
-5.80971e-11
2.87297e-11
1.41482e-11
-6.43954e-11
3.27962e-11
1.31012e-11
-7.02367e-11
3.66493e-11
1.08009e-11
-7.49686e-11
4.00094e-11
7.51261e-12
-7.7668e-11
4.26592e-11
-7.65808e-11
4.46649e-11
2.28487e-12
-3.04514e-12
1.18965e-12
4.32938e-12
-8.89184e-12
3.49504e-12
6.1858e-12
-1.43813e-11
5.72162e-12
7.89679e-12
-1.97482e-11
7.99632e-12
9.49647e-12
-2.51808e-11
1.04269e-11
1.10107e-11
-3.08259e-11
1.31052e-11
1.24566e-11
-3.67911e-11
1.61063e-11
1.384e-11
-4.31453e-11
1.94828e-11
1.51522e-11
-4.9917e-11
2.32535e-11
1.6363e-11
-5.70891e-11
2.73852e-11
1.74109e-11
-6.45871e-11
3.17662e-11
1.8192e-11
-7.22598e-11
3.61785e-11
1.85673e-11
-7.98462e-11
4.02922e-11
1.84377e-11
-8.69254e-11
4.372e-11
1.79485e-11
-9.2817e-11
4.61525e-11
-9.67441e-11
4.7755e-11
2.52663e-12
1.29786e-12
-3.15472e-12
4.78687e-12
3.81091e-12
-9.21702e-12
6.83789e-12
6.23173e-12
-1.49233e-11
8.7272e-12
8.69455e-12
-2.05241e-11
1.04945e-11
1.13125e-11
-2.62221e-11
1.2173e-11
1.41814e-11
-3.21789e-11
1.37904e-11
1.73781e-11
-3.85172e-11
1.5369e-11
2.09554e-11
-4.53221e-11
1.69269e-11
2.49297e-11
-5.264e-11
1.84784e-11
2.92616e-11
-6.04728e-11
2.00363e-11
3.38262e-11
-6.87693e-11
2.16196e-11
3.8376e-11
-7.74107e-11
2.32863e-11
4.25203e-11
-8.61985e-11
2.51997e-11
4.57634e-11
-9.48481e-11
2.74528e-11
4.76861e-11
-1.02753e-10
4.81853e-11
-1.11602e-10
1.96161e-13
-5.75064e-13
7.42865e-14
3.70926e-13
-1.6757e-12
2.18507e-13
5.27891e-13
-2.69906e-12
3.58649e-13
6.69272e-13
-3.68337e-12
5.03248e-13
7.95545e-13
-4.65647e-12
6.59467e-13
9.04981e-13
-5.63568e-12
8.33207e-13
9.92983e-13
-6.62747e-12
1.02897e-12
1.05111e-12
-7.62667e-12
1.24934e-12
1.06607e-12
-8.61531e-12
1.49396e-12
1.01919e-12
-9.56195e-12
1.75795e-12
8.87439e-13
-1.04222e-11
2.03045e-12
6.47097e-13
-1.11391e-11
2.29359e-12
2.80763e-13
-1.16372e-11
2.52401e-12
-2.12043e-13
-1.17958e-11
2.69969e-12
-7.70041e-13
-1.14327e-11
2.80762e-12
-9.81762e-12
3.05463e-12
5.85308e-13
-1.13254e-12
2.21e-13
1.1069e-12
-3.30077e-12
6.50051e-13
1.57564e-12
-5.31823e-12
1.06689e-12
1.99836e-12
-7.26069e-12
1.49676e-12
2.37689e-12
-9.18403e-12
1.96087e-12
2.70677e-12
-1.11241e-11
2.47674e-12
2.9752e-12
-1.30959e-11
3.05783e-12
3.15826e-12
-1.50919e-11
3.71202e-12
3.21767e-12
-1.70801e-11
4.43854e-12
3.09903e-12
-1.90032e-11
5.22374e-12
2.73446e-12
-2.07818e-11
6.03643e-12
2.0563e-12
-2.23242e-11
6.82507e-12
1.03169e-12
-2.3547e-11
7.5214e-12
-2.65759e-13
-2.43969e-11
8.05634e-12
-1.52164e-12
-2.48611e-11
8.38302e-12
-2.52134e-11
8.42356e-12
9.65073e-13
-1.6553e-12
3.623e-13
1.82549e-12
-4.82561e-12
1.06561e-12
2.59958e-12
-7.77885e-12
1.74859e-12
3.29934e-12
-1.06276e-11
2.45218e-12
3.92919e-12
-1.34562e-11
3.2109e-12
4.48388e-12
-1.63211e-11
4.05342e-12
4.94548e-12
-1.92493e-11
5.00204e-12
5.27882e-12
-2.22363e-11
6.07018e-12
5.42594e-12
-2.52434e-11
7.25787e-12
5.30177e-12
-2.81956e-11
8.54528e-12
4.79577e-12
-3.09858e-11
9.88583e-12
3.79201e-12
-3.34921e-11
1.12029e-11
2.23477e-12
-3.5622e-11
1.23966e-11
2.84633e-13
-3.73826e-11
1.33664e-11
-1.44501e-12
-3.88853e-11
1.40377e-11
-4.03695e-11
1.44263e-11
1.32927e-12
-2.12609e-12
4.94913e-13
2.51507e-12
-6.2e-12
1.45544e-12
3.58343e-12
-1.00006e-11
2.38736e-12
4.55239e-12
-1.36759e-11
3.34594e-12
5.43055e-12
-1.7339e-11
4.37777e-12
6.21489e-12
-2.10684e-11
5.52192e-12
6.88711e-12
-2.49073e-11
6.80902e-12
7.40793e-12
-2.88603e-11
8.25826e-12
7.70964e-12
-3.28898e-11
9.87169e-12
7.68806e-12
-3.69113e-11
1.16263e-11
7.19816e-12
-4.07903e-11
1.3466e-11
6.0667e-12
-4.43484e-11
1.52988e-11
4.15889e-12
-4.73912e-11
1.70088e-11
1.57403e-12
-4.97744e-11
1.8484e-11
-9.62994e-13
-5.1486e-11
1.96265e-11
-5.28858e-11
2.0403e-11
1.6716e-12
-2.52817e-12
6.15903e-13
3.1636e-12
-7.37518e-12
1.81076e-12
4.50988e-12
-1.19049e-11
2.96847e-12
5.73519e-12
-1.62985e-11
4.15671e-12
6.85408e-12
-2.06967e-11
5.43265e-12
7.86897e-12
-2.52011e-11
6.84436e-12
8.7668e-12
-2.98738e-11
8.42988e-12
9.51348e-12
-3.47342e-11
1.02136e-11
1.0046e-11
-3.9755e-11
1.21998e-11
1.02624e-11
-4.4853e-11
1.43638e-11
1.00107e-11
-4.98762e-11
1.66423e-11
9.08515e-12
-5.45845e-11
1.89303e-11
7.26146e-12
-5.8624e-11
2.10952e-11
4.45919e-12
-6.15161e-11
2.30094e-11
1.25336e-12
-6.28141e-11
2.4547e-11
-6.28075e-11
2.56431e-11
1.98596e-12
-2.84591e-12
7.22831e-13
3.75927e-12
-8.30544e-12
2.1243e-12
5.36142e-12
-1.34176e-11
3.47974e-12
6.8241e-12
-1.83929e-11
4.86703e-12
8.16898e-12
-2.33969e-11
6.35188e-12
9.40652e-12
-2.85535e-11
7.98961e-12
1.05338e-11
-3.39446e-11
9.82397e-12
1.15308e-11
-3.96087e-11
1.18832e-11
1.23548e-11
-4.55359e-11
1.41728e-11
1.2933e-11
-5.16591e-11
1.66657e-11
1.31531e-11
-5.78366e-11
1.92897e-11
1.2854e-11
-6.38217e-11
2.19208e-11
1.18328e-11
-6.92059e-11
2.43959e-11
9.92142e-12
-7.33351e-11
2.65514e-11
7.35413e-12
-7.53721e-11
2.824e-11
-7.378e-11
2.94432e-11
2.26674e-12
-3.06543e-12
8.13889e-13
4.29118e-12
-8.95022e-12
2.39076e-12
6.12148e-12
-1.44726e-11
3.91241e-12
7.79584e-12
-1.98665e-11
5.46441e-12
9.34311e-12
-2.53179e-11
7.11871e-12
1.07828e-11
-3.09696e-11
8.93559e-12
1.21244e-11
-3.6922e-11
1.09624e-11
1.33667e-11
-4.32322e-11
1.3229e-11
1.44966e-11
-4.99106e-11
1.57407e-11
1.5489e-11
-5.69139e-11
1.8466e-11
1.63088e-11
-6.41336e-11
2.13206e-11
1.6919e-11
-7.13802e-11
2.41541e-11
1.73076e-11
-7.8366e-11
2.67561e-11
1.75368e-11
-8.46939e-11
2.88943e-11
1.77366e-11
-8.98243e-11
3.03791e-11
-9.32519e-11
3.1287e-11
2.50931e-12
8.88032e-13
-3.17541e-12
4.75034e-12
2.60714e-12
-9.27643e-12
6.77633e-12
4.26176e-12
-1.50159e-11
8.63062e-12
5.9424e-12
-2.06431e-11
1.0348e-11
7.72473e-12
-2.63582e-11
1.19558e-11
9.67149e-12
-3.23176e-11
1.34748e-11
1.18312e-11
-3.86357e-11
1.49209e-11
1.42335e-11
-4.53838e-11
1.63078e-11
1.68811e-11
-5.25876e-11
1.76533e-11
1.97372e-11
-6.02201e-11
1.89914e-11
2.27055e-11
-6.81933e-11
2.03962e-11
2.56117e-11
-7.63512e-11