/*--------------------------------*- C++ -*----------------------------------*\
| =========                 |                                                 |
| \\      /  F ield         | OpenFOAM: The Open Source CFD Toolbox           |
|  \\    /   O peration     | Version:  v1912                                 |
|   \\  /    A nd           | Website:  www.openfoam.com                      |
|    \\/     M anipulation  |                                                 |
\*---------------------------------------------------------------------------*/
FoamFile
{
    version     2.0;
    format      ascii;
    class       volScalarField;
    location    "0.43/fluid";
    object      p;
}
// * * * * * * * * * * * * * * * * * * * * * * * * * * * * * * * * * * * * * //

dimensions      [0 2 -2 0 0 0 0];


internalField   nonuniform List<scalar> 
14592
(
0.0612873
0.0557247
0.0538705
0.0522976
0.0513451
0.050551
0.0498755
0.0492698
0.0486872
0.0482062
0.0476774
0.0474043
0.0468407
0.0471122
0.0462753
0.0485404
0.0570684
0.0553408
0.0536928
0.0523643
0.0514219
0.0506287
0.0499445
0.049338
0.0487606
0.0482945
0.047787
0.047559
0.0470411
0.047476
0.0466517
0.0499381
0.055125
0.0545035
0.0532773
0.0522771
0.0513981
0.0506317
0.0499424
0.0493313
0.048752
0.0482931
0.0478039
0.0476222
0.0471624
0.0477597
0.047002
0.0508965
0.0539197
0.0537492
0.0528782
0.0521055
0.0513114
0.0505836
0.0498988
0.0492845
0.0486995
0.0482405
0.0477594
0.0476116
0.0472011
0.0479338
0.0472945
0.0515103
0.053203
0.0531578
0.0525034
0.0518771
0.0511574
0.050465
0.0497838
0.0491578
0.0485498
0.0480612
0.0475437
0.0473642
0.0469143
0.0476674
0.0470282
0.0514835
0.0527154
0.0527116
0.0521943
0.0516583
0.0509936
0.0503268
0.0496472
0.0490083
0.0483777
0.0478621
0.0473188
0.0471313
0.0466945
0.0475685
0.0470874
0.0520141
0.0523993
0.0524061
0.0519585
0.0514673
0.0508291
0.0501668
0.0494715
0.0487974
0.048112
0.0475148
0.0468569
0.0465026
0.0458199
0.0463809
0.0453478
0.050284
0.0522083
0.0522187
0.0518
0.0513244
0.0506914
0.0500205
0.0493035
0.0485946
0.0478636
0.0472068
0.0464866
0.0460694
0.0453631
0.0460788
0.0453062
0.0525485
0.0611768
0.055616
0.0537986
0.0522669
0.0513683
0.0506344
0.0500279
0.0495011
0.0490098
0.048632
0.0482246
0.048056
0.0476308
0.0477966
0.0470614
0.0478879
0.0569579
0.0552304
0.05362
0.0523334
0.0514458
0.0507137
0.0500992
0.0495725
0.0490873
0.0487254
0.0483393
0.0482118
0.0478216
0.0480931
0.0473208
0.0485968
0.0550112
0.0543884
0.0531991
0.0522407
0.051417
0.0507121
0.0500925
0.0495611
0.0490733
0.0487179
0.0483474
0.0482625
0.0479185
0.0483205
0.0475759
0.0491762
0.0538038
0.0536316
0.0527965
0.0520648
0.0513254
0.0506585
0.0500426
0.0495072
0.0490124
0.0486559
0.0482909
0.0482388
0.0479356
0.0484588
0.0477984
0.0496056
0.0530841
0.053037
0.0524176
0.0518312
0.0511648
0.0505316
0.0499171
0.049367
0.0488448
0.0484538
0.0480438
0.0479528
0.0475905
0.0481223
0.0474093
0.0494074
0.0525936
0.0525879
0.0521049
0.0516075
0.0509945
0.050385
0.0497696
0.0492035
0.0486547
0.0482332
0.0477916
0.047693
0.047335
0.0480047
0.0474198
0.0498864
0.0522737
0.0522788
0.0518647
0.0514107
0.0508221
0.0502144
0.0495791
0.0489724
0.0483604
0.0478467
0.0472722
0.046989
0.0463387
0.0466806
0.0454016
0.0479007
0.0520788
0.0520875
0.0517016
0.0512622
0.0506768
0.0500578
0.0493973
0.0487511
0.0480875
0.0475081
0.0468634
0.0465203
0.0458417
0.0464078
0.0453673
0.0503099
0.0611062
0.0555469
0.0537578
0.0522601
0.0514081
0.0507294
0.0501902
0.0497455
0.0493588
0.0491131
0.0488916
0.0489514
0.0489121
0.0494533
0.0495883
0.0505628
0.0568874
0.05516
0.0535787
0.0523268
0.0514867
0.0508106
0.0502645
0.0498213
0.0494425
0.0492151
0.0490181
0.0491224
0.0491247
0.0497667
0.0499075
0.0512249
0.0549375
0.0543136
0.0531527
0.052229
0.051453
0.0508046
0.0502534
0.0498056
0.0494239
0.0492032
0.0490213
0.0491697
0.0492203
0.0499987
0.0502024
0.051817
0.0537277
0.0535542
0.0527467
0.052049
0.0513567
0.0507457
0.0501975
0.0497448
0.0493549
0.0491327
0.0489551
0.0491385
0.0492305
0.0501388
0.0504365
0.0522538
0.0530049
0.0529563
0.0523636
0.05181
0.0511893
0.0506105
0.0500615
0.0495913
0.0491697
0.0489082
0.0486773
0.0488157
0.048832
0.0497449
0.0499546
0.0519556
0.0525112
0.0525041
0.052047
0.0515812
0.0510125
0.0504553
0.0499027
0.0494133
0.0489604
0.0486633
0.0483921
0.0485183
0.0485205
0.0495737
0.0498622
0.052333
0.0521875
0.0521912
0.0518022
0.0513785
0.0508321
0.050274
0.0496973
0.0491614
0.048636
0.0482343
0.0478076
0.0477222
0.0473677
0.0480408
0.0474389
0.0498957
0.0519886
0.0519961
0.0516345
0.0512241
0.050679
0.0501069
0.049501
0.04892
0.0483348
0.047857
0.0473421
0.0471798
0.0467525
0.0476387
0.0471376
0.0520721
0.0610617
0.0555033
0.0537354
0.0522637
0.0514476
0.050811
0.0503219
0.0499342
0.0496137
0.0494373
0.0492979
0.0494144
0.0494611
0.0499518
0.0501482
0.0508589
0.056843
0.0551154
0.0535559
0.0523306
0.0515271
0.0508937
0.0503982
0.0500127
0.0497008
0.0495434
0.0494286
0.049587
0.0496706
0.0502402
0.0504264
0.0513776
0.0548902
0.0542652
0.0531255
0.0522282
0.051489
0.0508836
0.0503831
0.0499927
0.0496771
0.0495251
0.0494221
0.0496198
0.0497411
0.0504261
0.0506527
0.0518406
0.0536781
0.0535031
0.0527162
0.0520443
0.0513883
0.0508198
0.0503216
0.0499257
0.0496006
0.049446
0.0493445
0.0495747
0.0497292
0.0505339
0.050832
0.0521986
0.0529522
0.0529021
0.0523291
0.0518004
0.0512149
0.0506774
0.0501766
0.0497611
0.0494011
0.0492037
0.0490426
0.0492226
0.0492874
0.0500881
0.0502658
0.0518049
0.0524555
0.0524469
0.0520088
0.0515671
0.0510322
0.0505149
0.0500085
0.0495715
0.049177
0.0489414
0.0487348
0.0489014
0.0489418
0.0498858
0.0501143
0.0521219
0.0521282
0.0521305
0.0517598
0.0513591
0.0508451
0.0503246
0.0497912
0.0493039
0.0488313
0.0484846
0.0481116
0.0480581
0.0477167
0.0482738
0.047544
0.0495294
0.0519257
0.0519319
0.051588
0.0511996
0.0506854
0.0501489
0.0495836
0.0490478
0.0485108
0.0480838
0.0476159
0.0474852
0.047061
0.0478508
0.0471918
0.05167
0.0610364
0.0554788
0.0537273
0.0522763
0.0514896
0.0508888
0.0504438
0.0501086
0.0498529
0.0497506
0.0497076
0.049918
0.0501079
0.0506753
0.0510611
0.0517045
0.0568178
0.0550902
0.0535476
0.0523436
0.0515701
0.0509731
0.0505224
0.0501904
0.0499445
0.0498628
0.0498463
0.0500999
0.0503286
0.0509688
0.0513473
0.0521855
0.0548625
0.0542367
0.0531135
0.0522373
0.0515283
0.0509596
0.050504
0.0501671
0.049917
0.0498401
0.0498337
0.0501241
0.050385
0.0511308
0.0515409
0.0525911
0.0536484
0.0534724
0.0527014
0.0520501
0.0514239
0.0508917
0.0504379
0.0500949
0.0498343
0.0497541
0.0497472
0.0500691
0.0503585
0.0512202
0.0516906
0.0529105
0.0529198
0.0528686
0.0523108
0.0518019
0.0512453
0.0507429
0.050285
0.0499206
0.0496223
0.0494962
0.0494244
0.0496918
0.0498808
0.0507324
0.0510594
0.0524462
0.0524203
0.0524107
0.0519872
0.0515646
0.0510574
0.0505739
0.0501086
0.0497204
0.0493845
0.049217
0.049094
0.0493445
0.0494975
0.0504897
0.0508403
0.0526923
0.0520899
0.0520913
0.0517345
0.051352
0.0508642
0.0503757
0.0498806
0.0494385
0.0490193
0.0487343
0.0484339
0.048454
0.0482001
0.04879
0.048119
0.0499291
0.0518842
0.0518895
0.051559
0.0511879
0.0506987
0.0501922
0.0496625
0.0491685
0.0486797
0.0483086
0.0479038
0.047839
0.0474824
0.0482998
0.0476505
0.0519481
0.0610225
0.0554653
0.0537252
0.0522888
0.0515226
0.0509463
0.0505305
0.050228
0.0500097
0.0499441
0.0499427
0.0501775
0.0504025
0.0509471
0.0513476
0.0519289
0.0568039
0.0550762
0.0535455
0.0523563
0.0516037
0.0510316
0.0506105
0.0503116
0.0501036
0.0500589
0.0500842
0.0503612
0.0506235
0.0512339
0.0516221
0.0523704
0.0548467
0.0542202
0.0531085
0.0522471
0.0515592
0.0510155
0.0505894
0.0502855
0.0500727
0.0500319
0.0500651
0.0503758
0.0506638
0.05137
0.0517777
0.0527218
0.0536309
0.0534541
0.0526941
0.0520572
0.0514518
0.0509443
0.0505197
0.0502092
0.0499851
0.0499402
0.0499711
0.0503114
0.0506229
0.0514395
0.051896
0.0530038
0.0529001
0.0528481
0.0523007
0.0518058
0.0512692
0.0507907
0.050361
0.0500279
0.0497643
0.0496716
0.0496341
0.0499172
0.0501208
0.0509227
0.0512198
0.0524914
0.0523985
0.0523881
0.0519746
0.0515652
0.0510774
0.0506169
0.0501786
0.0498205
0.0495172
0.0493815
0.0492898
0.0495546
0.0497159
0.050657
0.0509619
0.052698
0.0520657
0.0520662
0.0517191
0.0513492
0.0508797
0.0504129
0.0499431
0.049529
0.0491396
0.0488834
0.0486091
0.0486401
0.0483838
0.0489185
0.0481728
0.0498563
0.0518574
0.051862
0.0515408
0.0511817
0.0507098
0.0502239
0.0497179
0.0492499
0.0487883
0.0484436
0.048061
0.0480061
0.0476409
0.0484062
0.0476648
0.0518345
0.061016
0.0554591
0.0537267
0.0523003
0.0515482
0.0509892
0.0505946
0.0503168
0.0501279
0.0500937
0.0501304
0.0503963
0.0506643
0.05122
0.0516555
0.0522082
0.0567975
0.0550697
0.053547
0.052368
0.0516299
0.0510754
0.0506759
0.0504021
0.0502242
0.0502116
0.0502759
0.0505847
0.0508905
0.0515099
0.0519329
0.0526377
0.054839
0.0542121
0.053108
0.0522567
0.0515834
0.0510574
0.0506531
0.0503743
0.0501913
0.0501823
0.0502534
0.0505943
0.0509224
0.0516324
0.0520686
0.0529606
0.053622
0.0534448
0.0526921
0.0520651
0.051474
0.0509841
0.0505808
0.0502952
0.0501004
0.0500868
0.0501544
0.050524
0.0508728
0.0516905
0.0521688
0.0532217
0.0528897
0.0528371
0.0522968
0.0518113
0.0512886
0.0508272
0.0504181
0.050109
0.0498733
0.0498107
0.0498074
0.0501178
0.0503538
0.0511536
0.0514625
0.0526774
0.0523866
0.0523756
0.0519689
0.0515685
0.051094
0.0506498
0.0502313
0.0498961
0.0496194
0.0495121
0.049452
0.0497424
0.0499309
0.0508677
0.0511731
0.0528516
0.052052
0.052052
0.0517113
0.05135
0.0508931
0.0504418
0.0499904
0.0495977
0.0492324
0.0490022
0.0487554
0.0488086
0.048571
0.0490965
0.0483303
0.0499472
0.051842
0.0518461
0.0515311
0.0511801
0.0507201
0.0502487
0.0497598
0.0493116
0.0488719
0.0485507
0.0481918
0.0481562
0.0478028
0.0485567
0.0477789
0.0518803
0.0610132
0.055457
0.0537276
0.0523061
0.0515604
0.0510093
0.0506239
0.0503561
0.0501783
0.0501542
0.0502017
0.0504722
0.0507469
0.0512942
0.0517312
0.0522727
0.0567951
0.055067
0.053548
0.0523739
0.0516424
0.0510958
0.0507055
0.0504418
0.0502749
0.0502721
0.0503468
0.0506592
0.0509705
0.0515792
0.0520026
0.052691
0.0548356
0.0542085
0.0531082
0.0522615
0.0515949
0.0510768
0.0506816
0.0504128
0.0502404
0.0502407
0.0503211
0.0506641
0.0509953
0.0516912
0.0521244
0.052997
0.0536182
0.0534406
0.0526915
0.0520689
0.0514844
0.0510023
0.0506081
0.0503322
0.0501478
0.0501432
0.0502195
0.0505906
0.0509407
0.0517426
0.0522144
0.0532465
0.0528851
0.0528321
0.0522952
0.051814
0.0512977
0.0508438
0.0504435
0.0501438
0.049918
0.0498639
0.0498685
0.0501798
0.0504154
0.0511983
0.0514965
0.0526895
0.0523812
0.0523699
0.0519664
0.0515702
0.0511017
0.0506648
0.0502547
0.0499285
0.0496612
0.0495622
0.0495091
0.0498
0.0499863
0.0509053
0.0511946
0.0528499
0.0520457
0.0520454
0.0517078
0.0513504
0.0508994
0.0504549
0.0500115
0.0496272
0.0492706
0.049048
0.0488073
0.0488607
0.0486191
0.0491262
0.0483373
0.0499274
0.0518348
0.0518387
0.0515266
0.0511793
0.0507249
0.05026
0.0497785
0.0493382
0.0489065
0.0485923
0.0482386
0.0482028
0.0478434
0.0485778
0.0477704
0.0518401
0.070784
0.060097
0.0565128
0.0535599
0.0518109
0.0503796
0.049185
0.0480584
0.0469371
0.0457867
0.0445274
0.0431887
0.0416178
0.0399546
0.0379145
0.0358731
0.066488
0.0593104
0.0561015
0.0534455
0.0517653
0.050372
0.0491905
0.0480733
0.0469607
0.0458191
0.0445694
0.0432431
0.0416862
0.0400405
0.038014
0.0359824
0.0645177
0.0583031
0.0555012
0.0531762
0.0516179
0.0502994
0.0491477
0.0480479
0.0469457
0.0458127
0.0445735
0.0432601
0.0417219
0.0400968
0.0380952
0.0360824
0.0632573
0.0574806
0.0550139
0.0529175
0.0514711
0.0502177
0.0490942
0.0480087
0.0469126
0.0457831
0.0445488
0.0432419
0.0417161
0.0401058
0.0381259
0.0361321
0.0625082
0.0568647
0.0546006
0.0526529
0.0512984
0.0501021
0.0490067
0.0479342
0.0468424
0.0457127
0.0444786
0.0431722
0.0416541
0.0400535
0.0380973
0.0361272
0.0620055
0.0564135
0.0542809
0.0524273
0.0511396
0.0499852
0.0489111
0.0478472
0.0467569
0.0456247
0.0443892
0.0430817
0.0415721
0.0399823
0.0380564
0.0361157
0.0616901
0.0561146
0.0540514
0.0522485
0.0509998
0.0498694
0.048806
0.0477429
0.0466479
0.0455065
0.0442631
0.0429465
0.041439
0.0398525
0.0379585
0.0360502
0.0615116
0.0559415
0.0539087
0.052127
0.0508941
0.0497714
0.0487088
0.0476402
0.0465372
0.0453855
0.0441351
0.0428118
0.0413117
0.0397345
0.0378817
0.0360114
0.0664845
0.0593038
0.0560898
0.0534283
0.0517423
0.0503425
0.0491584
0.0480351
0.0469077
0.04575
0.0444789
0.0431309
0.0415412
0.0398716
0.0377986
0.0357663
0.0622416
0.0588418
0.0558133
0.0533922
0.05174
0.0503588
0.0491775
0.0480565
0.0469295
0.0457739
0.0445063
0.043164
0.0415823
0.039924
0.0378636
0.0358446
0.0602695
0.0579176
0.055279
0.0531816
0.0516283
0.050306
0.0491448
0.0480348
0.0469132
0.0457625
0.0445026
0.0431705
0.0416054
0.0399651
0.0379269
0.0359239
0.0590214
0.0571088
0.0548164
0.0529479
0.0514999
0.0502368
0.049099
0.0479997
0.0468823
0.045734
0.0444785
0.0431526
0.0416001
0.0399745
0.0379579
0.0359738
0.0582779
0.056489
0.054409
0.0526913
0.0513338
0.0501261
0.0490147
0.0479275
0.0468141
0.0456657
0.044411
0.0430861
0.041542
0.0399265
0.0379342
0.0359734
0.0577779
0.0560325
0.0540903
0.0524685
0.0511782
0.050012
0.0489216
0.0478433
0.0467321
0.0455822
0.0443275
0.0430032
0.0414699
0.0398671
0.0379076
0.0359763
0.0574639
0.0557308
0.0538611
0.0522911
0.0510403
0.0498979
0.048818
0.0477411
0.0466261
0.0454679
0.0442065
0.0428742
0.0413447
0.0397461
0.0378215
0.0359219
0.057286
0.0555568
0.0537189
0.052171
0.0509365
0.049802
0.0487227
0.0476412
0.0465197
0.0453526
0.0440862
0.0427494
0.0412307
0.0396442
0.0377657
0.0359045
0.0645258
0.0583089
0.0555093
0.0531871
0.0516348
0.0503264
0.0491908
0.0481039
0.047004
0.0458753
0.0446223
0.0432978
0.041687
0.0400112
0.0377891
0.0356851
0.0602834
0.0579329
0.0553034
0.0532157
0.0516755
0.0503716
0.04923
0.04814
0.0470386
0.0459113
0.0446623
0.0433447
0.041743
0.0400802
0.0378687
0.0357776
0.0583177
0.0570715
0.0548446
0.0530804
0.0516158
0.0503517
0.0492174
0.0481306
0.0470302
0.0459058
0.0446642
0.0433568
0.0417725
0.0401273
0.0379344
0.0358533
0.0570846
0.056289
0.0544173
0.052883
0.0515141
0.0503002
0.0491823
0.0481017
0.0470027
0.0458792
0.0446416
0.0433408
0.0417704
0.0401414
0.037971
0.0359094
0.0563507
0.05568
0.0540273
0.0526448
0.051362
0.0501982
0.049102
0.04803
0.0469321
0.0458062
0.0445674
0.0432658
0.0417032
0.0400835
0.0379401
0.0359042
0.0558558
0.0552269
0.0537152
0.0524291
0.0512118
0.0500869
0.049009
0.0479439
0.0468463
0.045717
0.0444774
0.0431759
0.041626
0.0400217
0.0379205
0.0359214
0.0555438
0.0549259
0.0534881
0.052254
0.0510751
0.0499717
0.0489022
0.0478362
0.0467317
0.0455906
0.0443406
0.0430264
0.0414781
0.0398745
0.0378187
0.0358577
0.055366
0.0547512
0.0533459
0.0521337
0.0509704
0.0498731
0.0488027
0.0477305
0.0466174
0.0454649
0.0442083
0.0428876
0.0413528
0.0397638
0.0377722
0.0358614
0.0632758
0.0574971
0.0550444
0.0529649
0.0515441
0.0503242
0.0492427
0.0482009
0.0471384
0.0460506
0.0448251
0.0435381
0.0419008
0.0402261
0.037776
0.0355798
0.0590465
0.0571353
0.0548649
0.0530211
0.0516065
0.0503855
0.049293
0.0482451
0.0471801
0.046094
0.0448733
0.0435954
0.04197
0.0403145
0.0378775
0.0356976
0.0570953
0.0562991
0.0544405
0.0529217
0.0515735
0.050384
0.0492915
0.0482421
0.0471758
0.0460915
0.0448783
0.0436117
0.0420051
0.0403676
0.0379411
0.0357588
0.0558758
0.0555328
0.0540314
0.0527426
0.0514855
0.0503416
0.0492615
0.0482154
0.0471487
0.0460644
0.0448552
0.0435962
0.0420052
0.0403865
0.0379822
0.0358191
0.0551511
0.0549337
0.0536522
0.0525149
0.051341
0.0502438
0.049182
0.0481414
0.0470729
0.0459834
0.0447707
0.0435081
0.0419233
0.040312
0.0379371
0.0358028
0.0546615
0.0544854
0.0533448
0.0523035
0.0511934
0.050133
0.0490874
0.0480513
0.0469811
0.0458862
0.0446716
0.0434085
0.0418392
0.0402473
0.0379287
0.0358429
0.0543517
0.0541862
0.0531193
0.0521293
0.0510562
0.0500154
0.0489758
0.0479356
0.0468548
0.0457432
0.0445129
0.0432295
0.0416575
0.0400591
0.0378009
0.0357616
0.0541737
0.0540112
0.0529765
0.0520079
0.0509494
0.0499133
0.0488711
0.0478223
0.0467302
0.0456041
0.044365
0.0430727
0.0415186
0.0399393
0.0377746
0.0358071
0.0625361
0.0568919
0.0546607
0.0527542
0.0514589
0.0503362
0.0493296
0.0483588
0.0473642
0.0463558
0.0452003
0.0440081
0.0423883
0.0407784
0.0380357
0.0357206
0.0583128
0.0565255
0.0544873
0.0528193
0.0515299
0.050405
0.0493863
0.0484096
0.0474135
0.0464087
0.0452608
0.0440827
0.0424805
0.0409015
0.0381748
0.035874
0.0563703
0.0556986
0.0540788
0.0527374
0.0515112
0.0504136
0.0493913
0.0484108
0.0474123
0.0464094
0.0452704
0.0441064
0.0425257
0.0409667
0.0382358
0.0359097
0.0551601
0.054942
0.0536803
0.0525689
0.0514313
0.0503764
0.0493634
0.048384
0.0473837
0.0463802
0.0452458
0.0440916
0.0425298
0.0409953
0.0382867
0.0359812
0.0544422
0.0543502
0.0533085
0.0523481
0.0512912
0.0502801
0.0492819
0.0483044
0.0472988
0.0462862
0.0451443
0.0439824
0.0424237
0.0408951
0.03822
0.0359524
0.0539565
0.0539058
0.0530047
0.0521393
0.0511443
0.0501678
0.049183
0.0482067
0.047196
0.0461747
0.0450283
0.0438641
0.0423241
0.0408222
0.0382263
0.0360338
0.0536479
0.0536078
0.0527798
0.0519646
0.0510046
0.0500453
0.0490629
0.0480775
0.0470501
0.0460036
0.0448315
0.043633
0.0420788
0.040555
0.0380384
0.0359102
0.0534689
0.0534318
0.0526356
0.0518408
0.0508937
0.049937
0.0489491
0.0479509
0.0469073
0.0458401
0.0446536
0.0434395
0.0419051
0.0404049
0.0380254
0.0360184
0.0620286
0.0564366
0.0543606
0.0525778
0.0513903
0.0503577
0.0494296
0.0485361
0.0476177
0.0466984
0.0456213
0.0445335
0.0429203
0.0413647
0.0381705
0.0356476
0.0578078
0.0560634
0.0541868
0.0526448
0.0514643
0.0504297
0.0494897
0.0485912
0.0476724
0.0467589
0.0456923
0.044625
0.0430363
0.0415268
0.0383329
0.0357661
0.0558687
0.0552372
0.0537819
0.0525675
0.0514496
0.050441
0.049496
0.0485927
0.0476714
0.0467605
0.0457045
0.0446548
0.0430889
0.0415974
0.0383555
0.0356859
0.0546634
0.0544847
0.0533871
0.0524022
0.0513716
0.0504042
0.0494668
0.0485632
0.0476389
0.0467272
0.0456763
0.0446389
0.0430946
0.0416335
0.0384042
0.0357431
0.053949
0.0538962
0.0530181
0.0521832
0.0512315
0.0503056
0.0493801
0.0484751
0.0475418
0.0466166
0.0455532
0.0445027
0.0429558
0.0414975
0.0383049
0.0356967
0.0534652
0.0534538
0.0527153
0.0519743
0.0510829
0.0501895
0.0492746
0.0483677
0.0474259
0.0464885
0.0454178
0.0443642
0.0428407
0.041423
0.0383471
0.0358658
0.0531565
0.0531556
0.0524896
0.0517975
0.0509392
0.0500604
0.0491439
0.0482226
0.0472571
0.0462847
0.0451756
0.0440696
0.0425151
0.0410542
0.0380894
0.0357129
0.0529757
0.0529778
0.052343
0.0516704
0.0508232
0.0499449
0.0490195
0.0480812
0.0470945
0.0460948
0.0449661
0.0438394
0.0423127
0.0408963
0.0381511
0.0360213
0.061689
0.0561153
0.0541402
0.0524473
0.0513517
0.0504066
0.0495658
0.0487684
0.0479574
0.0471767
0.0462576
0.0454012
0.0439908
0.0427874
0.039413
0.0369334
0.0574695
0.0557373
0.0539651
0.0525147
0.0514271
0.0504808
0.0496293
0.0488282
0.0480189
0.0472473
0.0463431
0.0455163
0.0441403
0.0430069
0.0396112
0.0369776
0.0555308
0.0549087
0.0535588
0.0524366
0.0514116
0.0504912
0.0496344
0.0488284
0.0480168
0.0472493
0.0463583
0.0455561
0.0442085
0.0431051
0.0396237
0.0367994
0.0543273
0.0541573
0.0531645
0.0522711
0.0513326
0.0504522
0.0496017
0.0487943
0.0479789
0.0472107
0.046326
0.0455416
0.0442223
0.043167
0.0396955
0.0368669
0.0536139
0.0535697
0.0527954
0.0520508
0.0511898
0.0503486
0.0495071
0.0486948
0.0478658
0.0470789
0.0461748
0.0453712
0.0440413
0.0429895
0.039558
0.0368111
0.0531302
0.0531273
0.0524919
0.0518398
0.0510374
0.0502265
0.0493924
0.0485744
0.0477324
0.0469284
0.0460118
0.0452026
0.0438978
0.0429064
0.0396346
0.0371057
0.05282
0.0528276
0.0522638
0.0516591
0.0508878
0.0500881
0.0492477
0.0484086
0.0475331
0.0466796
0.0457036
0.0448104
0.0434326
0.0423457
0.0391773
0.0368194
0.0526363
0.0526472
0.0521138
0.0515272
0.0507652
0.0499631
0.0491096
0.0482474
0.047343
0.0464515
0.0454433
0.0445145
0.0431563
0.0421278
0.0392563
0.0374051
0.0614493
0.0558829
0.0539783
0.0523527
0.0513336
0.050466
0.0497059
0.0489975
0.0482849
0.0476239
0.0468337
0.0461418
0.0448435
0.0437704
0.0399266
0.0367527
0.0572301
0.0555014
0.0538016
0.0524196
0.0514094
0.0505417
0.0497717
0.049061
0.0483515
0.0477021
0.0469294
0.046273
0.0450083
0.0440008
0.0399813
0.0360483
0.0552894
0.0546686
0.0533912
0.0523375
0.0513903
0.0505489
0.0497736
0.049058
0.0483463
0.047702
0.0469434
0.0463156
0.0450751
0.0440853
0.0398565
0.0353182
0.0540856
0.0539163
0.052995
0.0521695
0.051308
0.0505058
0.0497359
0.0490179
0.0483014
0.0476562
0.0469039
0.0462977
0.0450863
0.0441511
0.0399027
0.0352475
0.0533712
0.0533273
0.0526236
0.0519458
0.0511603
0.0503954
0.0496319
0.0489056
0.0481711
0.0475019
0.0467223
0.0460896
0.044855
0.0439212
0.039711
0.0351654
0.0528861
0.0528835
0.0523178
0.0517315
0.0510028
0.0502658
0.049507
0.0487718
0.0480201
0.0473297
0.0465334
0.0458959
0.0446911
0.0438503
0.0398673
0.0356575
0.0525733
0.0525813
0.0520863
0.0515461
0.0508464
0.0501174
0.0493479
0.0485851
0.0477907
0.0470375
0.046161
0.0454106
0.0440883
0.0431035
0.0392182
0.0352327
0.0523862
0.0523977
0.0519324
0.0514091
0.0507169
0.0499824
0.049196
0.0484051
0.0475751
0.0467763
0.0458598
0.045072
0.0437815
0.0429306
0.0395101
0.0364434
0.0521336
0.0521453
0.051719
0.0512309
0.0505779
0.0498778
0.0491204
0.048353
0.0475412
0.046756
0.0458476
0.0450632
0.0437667
0.0429031
0.0394427
0.0363203
0.0521806
0.0521917
0.0517248
0.0511995
0.0505061
0.0497656
0.0489657
0.0481473
0.0472772
0.0464119
0.0454204
0.0445006
0.0431376
0.0420963
0.0391832
0.0372889
0.0523561
0.0523579
0.0518081
0.0512172
0.0504622
0.049666
0.048814
0.0479358
0.0469967
0.0460332
0.044928
0.0438141
0.0422838
0.0408541
0.0380688
0.0358994
0.0527215
0.0526839
0.051985
0.0512864
0.0504515
0.0495944
0.0486947
0.0477697
0.0467845
0.0457618
0.0446051
0.0434081
0.0418736
0.0403623
0.0379486
0.0359064
0.0533263
0.0531633
0.0522353
0.0513737
0.0504412
0.0495197
0.0485775
0.0476116
0.0465863
0.0455112
0.0443068
0.0430351
0.041484
0.0398959
0.0377028
0.0357039
0.0544508
0.0538369
0.0525461
0.0514502
0.0504224
0.0494498
0.0484881
0.0475046
0.0464635
0.0453659
0.0441471
0.0428491
0.0413197
0.0397237
0.0377079
0.0357682
0.0563228
0.0545974
0.0528808
0.0514554
0.0503624
0.0493561
0.0483917
0.0474052
0.0463592
0.0452498
0.0440232
0.0427107
0.0411991
0.0396071
0.0377076
0.0358196
0.0605479
0.0549905
0.0530811
0.0514217
0.0503294
0.0493316
0.048383
0.0474117
0.0463838
0.0452891
0.0440777
0.0427778
0.0412842
0.039701
0.037827
0.0359294
0.0519995
0.0520096
0.0516154
0.0511623
0.0505546
0.0499033
0.0491976
0.0484858
0.047731
0.0470084
0.0461517
0.0454129
0.0440834
0.0430812
0.0391257
0.0350505
0.0520419
0.0520517
0.0516163
0.0511248
0.0504749
0.0497804
0.0490285
0.0482606
0.0474408
0.0466301
0.0456821
0.0448054
0.0434212
0.0423159
0.0390769
0.0366484
0.0522127
0.0522133
0.0516945
0.0511365
0.0504229
0.04967
0.0488617
0.0480281
0.0471313
0.0462112
0.0451364
0.04405
0.0424901
0.0410098
0.0379811
0.0355444
0.0525737
0.052535
0.0518667
0.0512007
0.0504059
0.0495895
0.0487307
0.047846
0.0468981
0.0459124
0.0447808
0.0436062
0.0420512
0.0405115
0.0379426
0.0357621
0.0531747
0.0530107
0.052113
0.0512832
0.0503897
0.049507
0.0486026
0.0476731
0.0466804
0.045636
0.0444513
0.0431953
0.0416269
0.0400164
0.0377164
0.0356325
0.0542963
0.0536819
0.0524213
0.0513568
0.050367
0.0494324
0.0485072
0.0475576
0.0465466
0.0454767
0.0442756
0.0429912
0.0414498
0.0398371
0.0377473
0.0357465
0.0561669
0.0544418
0.0527554
0.0513608
0.0503049
0.0493347
0.0484053
0.0474514
0.0464335
0.0453495
0.0441393
0.0428386
0.0413186
0.0397132
0.0377603
0.0358249
0.0603923
0.054837
0.0529577
0.0513291
0.050274
0.0493118
0.0483986
0.0474612
0.0464627
0.0453947
0.0442017
0.042916
0.0414175
0.0398237
0.0379016
0.0359568
0.0519049
0.0519137
0.0515431
0.0511178
0.0505483
0.0499403
0.049284
0.0486296
0.0479404
0.0472994
0.0465359
0.04592
0.0447048
0.0438373
0.0397305
0.0353593
0.0519431
0.0519517
0.0515393
0.0510742
0.0504606
0.0498067
0.0490998
0.0483828
0.0476191
0.0468761
0.0460003
0.0452167
0.0439023
0.0428836
0.0394938
0.0368443
0.0521095
0.0521092
0.0516129
0.0510803
0.0504006
0.0496853
0.0489175
0.0481279
0.0472772
0.0464098
0.0453852
0.044359
0.0428269
0.041381
0.0382042
0.0356286
0.0524666
0.0524271
0.0517808
0.0511399
0.0503774
0.049596
0.0487742
0.0479284
0.0470197
0.0460765
0.0449826
0.0438501
0.042308
0.0407839
0.0381094
0.0358396
0.0530642
0.0528996
0.0520234
0.0512177
0.0503556
0.0495057
0.0486351
0.04774
0.0467805
0.0457701
0.0446131
0.0433853
0.04182
0.0402119
0.0378337
0.0356854
0.0541834
0.0535686
0.0523295
0.0512888
0.0503292
0.0494265
0.0485333
0.0476151
0.0466338
0.0455932
0.0444149
0.0431514
0.0416104
0.0399946
0.0378472
0.0357946
0.0560529
0.0543279
0.0526629
0.0512917
0.050265
0.0493249
0.0484259
0.0475015
0.046511
0.0454529
0.044262
0.042978
0.0414573
0.0398469
0.0378506
0.0358729
0.0602784
0.0547247
0.0528668
0.0512617
0.0502359
0.0493032
0.0484208
0.0475142
0.0465437
0.0455026
0.0443302
0.0430622
0.041565
0.0399672
0.0380053
0.0360177
0.051838
0.0518457
0.0514921
0.0510878
0.0505475
0.0499728
0.0493536
0.0487397
0.048092
0.0474935
0.0467637
0.0461679
0.0449235
0.0439562
0.0395478
0.0347315
0.0518725
0.0518801
0.0514842
0.0510391
0.0504533
0.0498307
0.0491579
0.0484777
0.0477507
0.047045
0.046197
0.0454323
0.0440922
0.0430068
0.039395
0.0364591
0.0520353
0.052034
0.0515541
0.0510405
0.0503869
0.0497008
0.0489641
0.0482071
0.0473878
0.0465512
0.0455476
0.0445348
0.0429772
0.0414828
0.0381415
0.0353947
0.0523891
0.0523488
0.0517183
0.0510962
0.0503587
0.0496046
0.0488116
0.0479954
0.0471145
0.046198
0.0451217
0.0440011
0.04244
0.0408839
0.0380981
0.035723
0.0529839
0.0528186
0.051958
0.0511704
0.0503325
0.0495083
0.0486643
0.0477958
0.0468609
0.0458735
0.0447312
0.0435131
0.0419335
0.0403027
0.037847
0.0356293
0.0541012
0.0534859
0.0522622
0.0512394
0.0503031
0.0494256
0.0485579
0.0476645
0.0467061
0.0456865
0.0445219
0.0432676
0.0417167
0.0400841
0.0378807
0.035776
0.0559696
0.0542448
0.0525952
0.0512415
0.0502373
0.049321
0.0484464
0.0475459
0.0465768
0.0455384
0.0443606
0.0430854
0.041558
0.039935
0.0378972
0.0358784
0.0601954
0.0546427
0.0528005
0.051213
0.0502099
0.0493007
0.048443
0.0475615
0.0466134
0.0455932
0.0444355
0.0431782
0.0416769
0.0400686
0.0380684
0.0360399
0.0517931
0.0517999
0.0514592
0.0510713
0.0505544
0.0500076
0.0494207
0.048844
0.0482376
0.0476859
0.047004
0.0464563
0.0452382
0.0442607
0.039691
0.0345603
0.0518244
0.0518313
0.0514477
0.0510181
0.0504545
0.0498576
0.0492143
0.0485673
0.0478761
0.0472101
0.0464
0.0456729
0.0443458
0.0432504
0.0395048
0.0363714
0.0519842
0.0519823
0.0515143
0.0510154
0.0503823
0.0497201
0.0490099
0.048282
0.0474928
0.0466886
0.0457132
0.0447274
0.0431723
0.0416661
0.0382193
0.0353472
0.0523352
0.0522944
0.0516755
0.0510678
0.0503498
0.0496177
0.0488489
0.0480586
0.0472036
0.0463141
0.0452599
0.0441594
0.0425975
0.0410312
0.03817
0.0357142
0.0529277
0.052762
0.0519127
0.0511387
0.0503196
0.049516
0.0486941
0.0478486
0.0469361
0.0459712
0.0448463
0.0436431
0.0420613
0.0404215
0.0379115
0.0356384
0.0540434
0.0534278
0.0522154
0.0512059
0.0502876
0.0494301
0.0485833
0.047711
0.0467729
0.0457731
0.0446235
0.0433813
0.0418283
0.0401875
0.0379432
0.0357958
0.055911
0.0541862
0.0525478
0.0512072
0.0502203
0.0493229
0.0484681
0.0475875
0.0466373
0.0456168
0.0444524
0.0431877
0.0416587
0.0400287
0.0379597
0.0359067
0.060137
0.0545851
0.0527542
0.0511799
0.0501943
0.0493035
0.0484659
0.0476053
0.0466767
0.0456751
0.0445318
0.0432859
0.0417844
0.0401702
0.0381407
0.036078
0.0517637
0.0517698
0.0514379
0.0510615
0.050561
0.0500333
0.0494681
0.0489149
0.0483323
0.0478034
0.0471381
0.0465963
0.0453571
0.0443201
0.0395951
0.0342299
0.0517926
0.0517989
0.0514238
0.051005
0.0504569
0.0498779
0.0492546
0.048629
0.0479588
0.047313
0.0465166
0.045795
0.0444484
0.0433083
0.0394427
0.0361606
0.05195
0.0519476
0.0514879
0.0509992
0.0503806
0.0497351
0.0490431
0.0483344
0.0475636
0.0467767
0.0458123
0.044831
0.043259
0.04172
0.0381837
0.0352146
0.052299
0.0522577
0.0516468
0.0510492
0.050345
0.0496284
0.0488765
0.0481036
0.0472651
0.0463909
0.0453462
0.0442501
0.0426753
0.0410858
0.0381616
0.0356419
0.0528898
0.0527236
0.0518822
0.0511178
0.050312
0.0495231
0.0487167
0.0478871
0.0469893
0.0460379
0.0449215
0.0437227
0.0421315
0.0404755
0.0379206
0.0356034
0.0540042
0.0533884
0.0521837
0.0511837
0.0502782
0.049435
0.0486031
0.0477456
0.0468213
0.0458343
0.0446927
0.0434552
0.0418956
0.0402426
0.0379648
0.0357833
0.0558712
0.0541464
0.0525157
0.0511844
0.0502098
0.049326
0.0484855
0.0476192
0.0466822
0.0456737
0.0445173
0.0432575
0.0417241
0.040085
0.0379903
0.03591
0.0600973
0.054546
0.052723
0.0511581
0.0501849
0.0493074
0.0484844
0.0476389
0.046724
0.0457354
0.044601
0.0433613
0.0418568
0.0402346
0.0381811
0.0360909
0.0517464
0.0517522
0.0514261
0.0510574
0.0505679
0.0500537
0.0495041
0.0489687
0.0484052
0.0478965
0.0472498
0.0467223
0.0454835
0.0444237
0.039612
0.03409
0.0517736
0.0517796
0.05141
0.0509985
0.0504609
0.0498943
0.0492853
0.0486756
0.0480222
0.0473937
0.0466123
0.0459022
0.0445531
0.043395
0.0394601
0.0360808
0.0519295
0.0519268
0.0514724
0.0509905
0.0503817
0.0497476
0.0490686
0.048374
0.0476175
0.0468452
0.0458925
0.0449202
0.0433445
0.0417918
0.0382029
0.0351694
0.052277
0.0522355
0.0516297
0.0510388
0.0503438
0.0496378
0.0488977
0.0481374
0.0473114
0.0464496
0.0454145
0.0443255
0.0427472
0.0411475
0.0381856
0.0356231
0.0528666
0.0527003
0.0518638
0.0511057
0.0503088
0.0495297
0.0487342
0.0479158
0.0470291
0.0460884
0.04498
0.043787
0.042193
0.0405294
0.0379474
0.0356003
0.0539803
0.0533643
0.0521646
0.0511707
0.0502737
0.0494401
0.0486183
0.0477713
0.0468571
0.0458797
0.0447453
0.0435129
0.0419512
0.040292
0.0379935
0.0357889
0.0558468
0.054122
0.0524962
0.051171
0.0502044
0.0493297
0.048499
0.0476425
0.046715
0.0457155
0.0445656
0.0433105
0.0417758
0.0401319
0.038021
0.0359221
0.060073
0.0545221
0.052704
0.0511453
0.0501803
0.0493117
0.0484985
0.0476634
0.0467584
0.045779
0.0446518
0.0434173
0.0419122
0.0402857
0.0382169
0.0361081
0.0517384
0.0517438