/*--------------------------------*- C++ -*----------------------------------*\
| =========                 |                                                 |
| \\      /  F ield         | OpenFOAM: The Open Source CFD Toolbox           |
|  \\    /   O peration     | Version:  v1912                                 |
|   \\  /    A nd           | Website:  www.openfoam.com                      |
|    \\/     M anipulation  |                                                 |
\*---------------------------------------------------------------------------*/
FoamFile
{
    version     2.0;
    format      ascii;
    class       pointVectorField;
    location    "0.43/fluid";
    object      pointMotionU;
}
// * * * * * * * * * * * * * * * * * * * * * * * * * * * * * * * * * * * * * //

dimensions      [0 1 -1 0 0 0 0];


internalField   nonuniform List<vector> 
16859
(
(0 0 0)
(0 0 0)
(0 0 0)
(0 0 0)
(0 0 0)
(0 0 0)
(0 0 0)
(0 0 0)
(0 0 0)
(0 0 0)
(0 0 0)
(0 0 0)
(0 0 0)
(0 0 0)
(0 0 0)
(0 0 0)
(2.54128e-08 4.29841e-08 2.44558e-08)
(0 0 0)
(6.65823e-10 -1.51593e-09 1.1762e-09)
(1.26927e-09 -2.90057e-09 2.29074e-09)
(1.83242e-09 -4.20929e-09 3.42277e-09)
(2.37522e-09 -5.48301e-09 4.64228e-09)
(2.91693e-09 -6.74651e-09 6.01421e-09)
(3.47809e-09 -8.00613e-09 7.60116e-09)
(4.08324e-09 -9.24444e-09 9.46457e-09)
(4.76568e-09 -1.04094e-08 1.16646e-08)
(5.57729e-09 -1.13948e-08 1.426e-08)
(6.61026e-09 -1.2005e-08 1.73092e-08)
(8.04377e-09 -1.18871e-08 2.08818e-08)
(1.02503e-08 -1.03925e-08 2.51048e-08)
(1.40078e-08 -6.28849e-09 3.03017e-08)
(2.07882e-08 2.71499e-09 3.72773e-08)
(3.14558e-08 1.83109e-08 4.65546e-08)
(5.10055e-08 5.1005e-08 5.90162e-08)
(0 0 0)
(1.31764e-09 -2.98686e-09 2.32251e-09)
(2.51143e-09 -5.71704e-09 4.5226e-09)
(3.62469e-09 -8.30072e-09 6.75559e-09)
(4.69644e-09 -1.08201e-08 9.15864e-09)
(5.76441e-09 -1.33281e-08 1.18594e-08)
(6.86831e-09 -1.58435e-08 1.49811e-08)
(8.05418e-09 -1.83424e-08 1.86437e-08)
(9.38147e-09 -2.07406e-08 2.29642e-08)
(1.09363e-08 -2.28638e-08 2.80528e-08)
(1.2858e-08 -2.43981e-08 3.40074e-08)
(1.53909e-08 -2.48144e-08 4.09089e-08)
(1.89878e-08 -2.32623e-08 4.88371e-08)
(2.44455e-08 -1.84973e-08 5.79165e-08)
(3.28756e-08 -9.1459e-09 6.83287e-08)
(4.37845e-08 3.68835e-09 7.9079e-08)
(6.56178e-08 2.14129e-08 9.71307e-08)
(0 0 0)
(1.94235e-09 -4.36815e-09 3.4111e-09)
(3.70127e-09 -8.36512e-09 6.64068e-09)
(5.33982e-09 -1.21554e-08 9.91492e-09)
(6.91473e-09 -1.58642e-08 1.34335e-08)
(8.48084e-09 -1.95771e-08 1.73827e-08)
(1.00951e-08 -2.33356e-08 2.19418e-08)
(1.18213e-08 -2.71272e-08 2.72864e-08)
(1.37373e-08 -3.08672e-08 3.35873e-08)
(1.59451e-08 -3.43676e-08 4.10035e-08)
(1.85877e-08 -3.72909e-08 4.96654e-08)
(2.18791e-08 -3.90899e-08 5.96478e-08)
(2.61565e-08 -3.8962e-08 7.09394e-08)
(3.19196e-08 -3.59239e-08 8.33985e-08)
(3.97263e-08 -2.92911e-08 9.66692e-08)
(4.88076e-08 -2.06128e-08 1.09087e-07)
(6.61816e-08 -8.77147e-09 1.26838e-07)
(0 0 0)
(2.52749e-09 -5.61432e-09 4.41623e-09)
(4.81468e-09 -1.07582e-08 8.59406e-09)
(6.94226e-09 -1.56493e-08 1.28231e-08)
(8.98287e-09 -2.04566e-08 1.73588e-08)
(1.10066e-08 -2.53035e-08 2.24392e-08)
(1.30856e-08 -3.02641e-08 2.82941e-08)
(1.52992e-08 -3.53561e-08 3.51492e-08)
(1.77396e-08 -4.05265e-08 4.32261e-08)
(2.05176e-08 -4.56256e-08 5.27342e-08)
(2.37662e-08 -5.03693e-08 6.38454e-08)
(2.76438e-08 -5.42891e-08 7.66534e-08)
(3.23316e-08 -5.66864e-08 9.11027e-08)
(3.79894e-08 -5.66591e-08 1.06859e-07)
(4.46373e-08 -5.33743e-08 1.2309e-07)
(5.13838e-08 -4.74459e-08 1.37292e-07)
(6.47227e-08 -3.63955e-08 1.54872e-07)
(0 0 0)
(3.06198e-09 -6.6809e-09 5.31624e-09)
(5.83026e-09 -1.2811e-08 1.034e-08)
(8.40042e-09 -1.86579e-08 1.54148e-08)
(1.08586e-08 -2.44341e-08 2.08428e-08)
(1.32879e-08 -3.03027e-08 2.69056e-08)
(1.57737e-08 -3.63782e-08 3.38745e-08)
(1.84097e-08 -4.27229e-08 4.20177e-08)
(2.13032e-08 -4.93399e-08 5.16029e-08)
(2.45795e-08 -5.61582e-08 6.28906e-08)
(2.83804e-08 -6.30067e-08 7.61117e-08)
(3.28569e-08 -6.95714e-08 9.14293e-08)
(3.81392e-08 -7.53241e-08 1.08858e-07)
(4.4239e-08 -7.94041e-08 1.28084e-07)
(5.08631e-08 -8.04844e-08 1.48084e-07)
(5.67982e-08 -7.74994e-08 1.65465e-07)
(6.78143e-08 -6.51979e-08 1.84665e-07)
(0 0 0)
(3.53661e-09 -7.52575e-09 6.09456e-09)
(6.73018e-09 -1.4442e-08 1.18458e-08)
(9.68789e-09 -2.10611e-08 1.764e-08)
(1.25062e-08 -2.76349e-08 2.38157e-08)
(1.52784e-08 -3.43657e-08 3.06867e-08)
(1.81004e-08 -4.14097e-08 3.8555e-08)
(2.10785e-08 -4.888e-08 4.77201e-08)
(2.43362e-08 -5.68478e-08 5.84847e-08)
(2.80221e-08 -6.53413e-08 7.11538e-08)
(3.23163e-08 -7.43394e-08 8.60243e-08)
(3.74373e-08 -8.37556e-08 1.03367e-07)
(4.36394e-08 -9.33906e-08 1.23385e-07)
(5.11476e-08 -1.02781e-07 1.46073e-07)
(5.99262e-08 -1.10804e-07 1.70773e-07)
(6.84677e-08 -1.15073e-07 1.93588e-07)
(8.16205e-08 -1.04613e-07 2.18732e-07)
(0 0 0)
(3.94438e-09 -8.11116e-09 6.7404e-09)
(7.50109e-09 -1.55784e-08 1.30905e-08)
(1.0785e-08 -2.27496e-08 1.94671e-08)
(1.3899e-08 -2.99097e-08 2.62331e-08)
(1.69425e-08 -3.72941e-08 3.37222e-08)
(2.00181e-08 -4.50964e-08 4.22536e-08)
(2.324e-08 -5.34761e-08 5.21425e-08)
(2.67441e-08 -6.25674e-08 6.37085e-08)
(3.07e-08 -7.24901e-08 7.72795e-08)
(3.53313e-08 -8.3365e-08 9.31949e-08)
(4.09489e-08 -9.53383e-08 1.11815e-07)
(4.80095e-08 -1.08616e-07 1.33541e-07)
(5.71795e-08 -1.23478e-07 1.58802e-07)
(6.92951e-08 -1.40124e-07 1.87812e-07)
(8.34193e-08 -1.56677e-07 2.17226e-07)
(1.09937e-07 -1.76068e-07 2.56928e-07)
(0 0 0)
(4.2811e-09 -8.40615e-09 7.24942e-09)
(8.13544e-09 -1.616e-08 1.40667e-08)
(1.1681e-08 -2.36335e-08 2.08859e-08)
(1.50228e-08 -3.1134e-08 2.80818e-08)
(1.82616e-08 -3.89204e-08 3.59952e-08)
(2.15007e-08 -4.72138e-08 4.49476e-08)
(2.48548e-08 -5.62068e-08 5.52516e-08)
(2.84605e-08 -6.60762e-08 6.72196e-08)
(3.24906e-08 -7.69987e-08 8.11679e-08)
(3.71768e-08 -8.91726e-08 9.74231e-08)
(4.28501e-08 -1.02855e-07 1.16338e-07)
(5.00027e-08 -1.18422e-07 1.38324e-07)
(5.93576e-08 -1.36439e-07 1.63874e-07)
(7.18165e-08 -1.57655e-07 1.93474e-07)
(8.60815e-08 -1.80014e-07 2.23689e-07)
(1.27466e-07 -2.25014e-07 2.7892e-07)
(0 0 0)
(0 0 0)
(0 0 0)
(0 0 0)
(0 0 0)
(0 0 0)
(0 0 0)
(0 0 0)
(0 0 0)
(0 0 0)
(0 0 0)
(0 0 0)
(0 0 0)
(0 0 0)
(0 0 0)
(0 0 0)
(1.27526e-08 2.12622e-08 1.08787e-08)
(0 0 0)
(6.63191e-10 -1.5481e-09 1.13909e-09)
(1.26281e-09 -2.96217e-09 2.2168e-09)
(1.81967e-09 -4.29931e-09 3.30848e-09)
(2.35209e-09 -5.60228e-09 4.48057e-09)
(2.87706e-09 -6.8978e-09 5.79431e-09)
(3.41151e-09 -8.19423e-09 7.30774e-09)
(3.97422e-09 -9.47683e-09 9.07616e-09)
(4.58926e-09 -1.06981e-08 1.11509e-08)
(5.29358e-09 -1.17604e-08 1.35766e-08)
(6.15473e-09 -1.24861e-08 1.63872e-08)
(7.3118e-09 -1.25608e-08 1.96045e-08)
(9.06843e-09 -1.14192e-08 2.32518e-08)
(1.20705e-08 -8.01615e-09 2.7405e-08)
(1.74866e-08 -5.29295e-10 3.22561e-08)
(2.59269e-08 1.22695e-08 3.75763e-08)
(3.50109e-08 2.90373e-08 3.96756e-08)
(0 0 0)
(1.31287e-09 -3.04974e-09 2.249e-09)
(2.49964e-09 -5.83744e-09 4.37619e-09)
(3.60125e-09 -8.47699e-09 6.52964e-09)
(4.65376e-09 -1.10542e-08 8.83961e-09)
(5.69059e-09 -1.36252e-08 1.14264e-08)
(6.74474e-09 -1.62126e-08 1.44042e-08)
(7.85157e-09 -1.87971e-08 1.78812e-08)
(9.05348e-09 -2.13022e-08 2.19578e-08)
(1.04092e-08 -2.3568e-08 2.67192e-08)
(1.20136e-08 -2.53105e-08 3.22211e-08)
(1.40422e-08 -2.60626e-08 3.84701e-08)
(1.68395e-08 -2.51043e-08 4.54011e-08)
(2.10432e-08 -2.14541e-08 5.28496e-08)
(2.75501e-08 -1.42542e-08 6.04636e-08)
(3.61595e-08 -4.74436e-09 6.71971e-08)
(4.55783e-08 4.91772e-10 7.25486e-08)
(0 0 0)
(1.93649e-09 -4.45941e-09 3.30296e-09)
(3.68642e-09 -8.54005e-09 6.42547e-09)
(5.3097e-09 -1.24119e-08 9.58334e-09)
(6.85915e-09 -1.62052e-08 1.29663e-08)
(8.38387e-09 -2.001e-08 1.67497e-08)
(9.93185e-09 -2.38725e-08 2.11e-08)
(1.15529e-08 -2.77858e-08 2.6176e-08)
(1.33024e-08 -3.16738e-08 3.21258e-08)
(1.5246e-08 -3.53649e-08 3.90754e-08)
(1.7469e-08 -3.85538e-08 4.71041e-08)
(2.00965e-08 -4.07603e-08 5.62034e-08)
(2.33314e-08 -4.1318e-08 6.62158e-08)
(2.74946e-08 -3.95108e-08 7.67426e-08)
(3.29743e-08 -3.5135e-08 8.70081e-08)
(3.94311e-08 -2.9847e-08 9.55109e-08)
(4.53949e-08 -2.79599e-08 1.01039e-07)
(0 0 0)
(2.52194e-09 -5.73094e-09 4.27626e-09)
(4.7998e-09 -1.0982e-08 8.31582e-09)
(6.91075e-09 -1.59778e-08 1.23951e-08)
(8.92304e-09 -2.08935e-08 1.67568e-08)
(1.09003e-08 -2.58578e-08 2.16251e-08)
(1.29049e-08 -3.09499e-08 2.72134e-08)
(1.50006e-08 -3.61931e-08 3.37267e-08)
(1.72545e-08 -4.15419e-08 4.13596e-08)
(1.97374e-08 -4.68605e-08 5.02823e-08)
(2.25184e-08 -5.18908e-08 6.06115e-08)
(2.56552e-08 -5.62166e-08 7.23553e-08)
(2.91726e-08 -5.92442e-08 8.53214e-08)
(3.30162e-08 -6.02735e-08 9.89543e-08)
(3.70085e-08 -5.88383e-08 1.12072e-07)
(4.07089e-08 -5.56884e-08 1.2243e-07)
(4.36571e-08 -5.42124e-08 1.28172e-07)
(0 0 0)
(3.05828e-09 -6.81918e-09 5.1481e-09)
(5.81864e-09 -1.30765e-08 1.00061e-08)
(8.37315e-09 -1.90479e-08 1.49019e-08)
(1.08036e-08 -2.49527e-08 2.01227e-08)
(1.31869e-08 -3.09602e-08 2.59335e-08)
(1.55987e-08 -3.71898e-08 3.25868e-08)
(1.81177e-08 -4.37083e-08 4.03271e-08)
(2.08272e-08 -5.05246e-08 4.93909e-08)
(2.38138e-08 -5.75759e-08 5.99957e-08)
(2.71581e-08 -6.47058e-08 7.2313e-08)
(3.09113e-08 -7.16278e-08 8.6416e-08)
(3.50395e-08 -7.78639e-08 1.02182e-07)
(3.9306e-08 -8.26417e-08 1.19084e-07)
(4.31262e-08 -8.47917e-08 1.35766e-07)
(4.56042e-08 -8.33518e-08 1.49207e-07)
(4.60314e-08 -8.06284e-08 1.5658e-07)
(0 0 0)
(3.53616e-09 -7.6812e-09 5.90247e-09)
(6.72481e-09 -1.47406e-08 1.14647e-08)
(9.66998e-09 -2.14998e-08 1.70555e-08)
(1.24644e-08 -2.82184e-08 2.29965e-08)
(1.51956e-08 -3.51049e-08 2.95833e-08)
(1.79515e-08 -4.23202e-08 3.7097e-08)
(2.08253e-08 -4.99811e-08 4.58114e-08)
(2.39205e-08 -5.81616e-08 5.59952e-08)
(2.7354e-08 -6.68928e-08 6.79073e-08)
(3.12556e-08 -7.61573e-08 8.17793e-08)
(3.57627e-08 -8.58737e-08 9.77834e-08)
(4.09922e-08 -9.58459e-08 1.15966e-07)
(4.69482e-08 -1.05602e-07 1.36069e-07)
(5.32813e-08 -1.13956e-07 1.5701e-07)
(5.86626e-08 -1.18529e-07 1.75325e-07)
(5.86231e-08 -1.14134e-07 1.87405e-07)
(0 0 0)
(3.94827e-09 -8.27855e-09 6.52891e-09)
(7.50428e-09 -1.59e-08 1.26714e-08)
(1.07803e-08 -2.32224e-08 1.88253e-08)
(1.38764e-08 -3.05387e-08 2.53354e-08)
(1.68875e-08 -3.80907e-08 3.25162e-08)
(1.99099e-08 -4.60765e-08 4.0665e-08)
(2.30481e-08 -5.4658e-08 5.00702e-08)
(2.64233e-08 -6.397e-08 6.10162e-08)
(3.01833e-08 -7.41312e-08 7.37831e-08)
(3.45182e-08 -8.52583e-08 8.8641e-08)
(3.96878e-08 -9.74894e-08 1.05842e-07)
(4.60699e-08 -1.11016e-07 1.25606e-07)
(5.42251e-08 -1.26089e-07 1.4804e-07)
(6.48732e-08 -1.42816e-07 1.72756e-07)
(7.75179e-08 -1.59556e-07 1.96696e-07)
(8.87278e-08 -1.74269e-07 2.15816e-07)
(0 0 0)
(4.28997e-09 -8.5796e-09 7.02318e-09)
(8.14855e-09 -1.64935e-08 1.36188e-08)
(1.16919e-08 -2.4124e-08 2.02013e-08)
(1.5023e-08 -3.1787e-08 2.71266e-08)
(1.82395e-08 -3.97479e-08 3.4716e-08)
(2.14406e-08 -4.82317e-08 4.3269e-08)
(2.47346e-08 -5.74326e-08 5.3072e-08)
(2.8249e-08 -6.75265e-08 6.44026e-08)
(3.21434e-08 -7.86856e-08 7.75307e-08)
(3.6632e-08 -9.10989e-08 9.2715e-08)
(4.20207e-08 -1.05006e-07 1.10201e-07)
(4.87704e-08 -1.20755e-07 1.30221e-07)
(5.75797e-08 -1.38862e-07 1.52946e-07)
(6.93617e-08 -1.59929e-07 1.78228e-07)
(8.32848e-08 -1.8209e-07 2.0285e-07)
(1.0974e-07 -2.15313e-07 2.31493e-07)
(0 0 0)
(0 0 0)
(0 0 0)
(0 0 0)
(0 0 0)
(0 0 0)
(0 0 0)
(0 0 0)
(0 0 0)
(0 0 0)
(0 0 0)
(0 0 0)
(0 0 0)
(0 0 0)
(0 0 0)
(0 0 0)
(3.40583e-09 8.02761e-09 2.55461e-09)
(0 0 0)
(6.57252e-10 -1.57599e-09 1.06019e-09)
(1.24971e-09 -3.01586e-09 2.06202e-09)
(1.79626e-09 -4.37806e-09 3.07439e-09)
(2.31281e-09 -5.70665e-09 4.15763e-09)
(2.81297e-09 -7.03027e-09 5.36675e-09)
(3.30838e-09 -8.35999e-09 6.75252e-09)
(3.80926e-09 -9.68549e-09 8.36097e-09)
(4.32538e-09 -1.09678e-08 1.02306e-08)
(4.86885e-09 -1.21275e-08 1.23863e-08)
(5.46156e-09 -1.30266e-08 1.48273e-08)
(6.15369e-09 -1.34405e-08 1.75062e-08)
(7.05895e-09 -1.3015e-08 2.02927e-08)
(8.39352e-09 -1.12137e-08 2.28987e-08)
(1.03966e-08 -7.37662e-09 2.47101e-08)
(1.26921e-08 -1.70439e-09 2.46417e-08)
(1.18931e-08 3.84402e-09 1.70438e-08)
(0 0 0)
(1.30166e-09 -3.10417e-09 2.09311e-09)
(2.4749e-09 -5.9421e-09 4.07035e-09)
(3.55702e-09 -8.63042e-09 6.0673e-09)
(4.57962e-09 -1.12576e-08 8.20249e-09)
(5.56974e-09 -1.38832e-08 1.05839e-08)
(6.55047e-09 -1.65342e-08 1.33111e-08)
(7.54139e-09 -1.91986e-08 1.64748e-08)
(8.5589e-09 -2.18138e-08 2.0151e-08)
(9.61736e-09 -2.4249e-08 2.43887e-08)
(1.07339e-08 -2.62816e-08 2.91842e-08)
(1.19418e-08 -2.75756e-08 3.44362e-08)
(1.33121e-08 -2.76875e-08 3.98654e-08)
(1.49553e-08 -2.6186e-08 4.4869e-08)
(1.68635e-08 -2.31075e-08 4.82958e-08)
(1.83925e-08 -1.99531e-08 4.86319e-08)
(1.70256e-08 -2.14848e-08 4.2399e-08)
(0 0 0)
(1.92132e-09 -4.5382e-09 3.07399e-09)
(3.65287e-09 -8.69143e-09 5.9764e-09)
(5.24961e-09 -1.26338e-08 8.90502e-09)
(6.75837e-09 -1.64991e-08 1.20326e-08)
(8.21955e-09 -2.03817e-08 1.55163e-08)
(9.66793e-09 -2.43325e-08 1.95018e-08)
(1.11325e-08 -2.83526e-08 2.41224e-08)
(1.26346e-08 -3.23807e-08 2.94924e-08)
(1.41836e-08 -3.62749e-08 3.56888e-08)
(1.57692e-08 -3.97928e-08 4.27158e-08)
(1.73508e-08 -4.25826e-08 5.04407e-08)
(1.88368e-08 -4.42344e-08 5.84855e-08)
(2.00376e-08 -4.44936e-08 6.60515e-08)
(2.05749e-08 -4.37876e-08 7.17121e-08)
(1.99313e-08 -4.36877e-08 7.37377e-08)
(1.55891e-08 -4.6842e-08 6.86972e-08)
(0 0 0)
(2.50459e-09 -5.83125e-09 3.98006e-09)
(4.76125e-09 -1.11746e-08 7.73519e-09)
(6.84139e-09 -1.62597e-08 1.15189e-08)
(8.80631e-09 -2.12664e-08 1.5552e-08)
(1.07097e-08 -2.63272e-08 2.00356e-08)
(1.25988e-08 -3.15258e-08 2.51568e-08)
(1.4514e-08 -3.68914e-08 3.10885e-08)
(1.64849e-08 -4.23897e-08 3.79828e-08)
(1.85203e-08 -4.79068e-08 4.59505e-08)
(2.05873e-08 -5.32315e-08 5.50203e-08)
(2.25714e-08 -5.8044e-08 6.50647e-08)
(2.42006e-08 -6.1946e-08 7.56717e-08)
(2.49325e-08 -6.46022e-08 8.59308e-08)
(2.39111e-08 -6.61038e-08 9.41654e-08)
(2.06571e-08 -6.73358e-08 9.81648e-08)
(1.33703e-08 -7.07072e-08 9.40795e-08)
(0 0 0)
(3.04073e-09 -6.93749e-09 4.79206e-09)
(5.77928e-09 -1.33035e-08 9.30862e-09)
(8.3017e-09 -1.93799e-08 1.38504e-08)
(1.06825e-08 -2.53908e-08 1.86789e-08)
(1.29883e-08 -3.15089e-08 2.40317e-08)
(1.52795e-08 -3.78565e-08 3.01305e-08)
(1.76111e-08 -4.45032e-08 3.71823e-08)
(2.00289e-08 -5.14618e-08 4.53738e-08)
(2.25586e-08 -5.86783e-08 5.48526e-08)
(2.51801e-08 -6.60157e-08 6.56872e-08)
(2.77744e-08 -7.32326e-08 7.7793e-08)
(3.00103e-08 -7.99528e-08 9.07949e-08)
(3.11527e-08 -8.56311e-08 1.03776e-07)
(2.99123e-08 -8.95761e-08 1.149e-07)
(2.53363e-08 -9.13374e-08 1.21403e-07)
(1.52541e-08 -9.334e-08 1.18841e-07)
(0 0 0)
(3.52029e-09 -7.81347e-09 5.4951e-09)
(6.68864e-09 -1.49943e-08 1.06673e-08)
(9.6032e-09 -2.18704e-08 1.58549e-08)
(1.23497e-08 -2.87063e-08 2.13506e-08)
(1.50059e-08 -3.57131e-08 2.74196e-08)
(1.76456e-08 -4.30528e-08 3.4309e-08)
(2.03401e-08 -5.08407e-08 4.2251e-08)
(2.31586e-08 -5.91471e-08 5.14588e-08)
(2.61624e-08 -6.79963e-08 6.21117e-08)
(2.93896e-08 -7.73603e-08 7.4321e-08)
(3.28175e-08 -8.71421e-08 8.80647e-08)
(3.62708e-08 -9.71274e-08 1.03057e-07)
(3.92295e-08 -1.06844e-07 1.18475e-07)
(4.0523e-08 -1.15239e-07 1.3246e-07)
(3.85766e-08 -1.2041e-07 1.41699e-07)
(2.75875e-08 -1.18681e-07 1.41464e-07)
(0 0 0)
(3.93567e-09 -8.42026e-09 6.07943e-09)
(7.47463e-09 -1.61717e-08 1.17924e-08)
(1.07238e-08 -2.3619e-08 1.75037e-08)
(1.3777e-08 -3.10598e-08 2.35272e-08)
(1.67205e-08 -3.8738e-08 3.01453e-08)
(1.96382e-08 -4.68507e-08 3.76196e-08)
(2.26162e-08 -5.55549e-08 4.61947e-08)
(2.57465e-08 -6.49748e-08 5.60963e-08)
(2.91301e-08 -7.52091e-08 6.75197e-08)
(3.28793e-08 -8.63388e-08 8.06014e-08)
(3.71143e-08 -9.8435e-08 9.5366e-08)
(4.19443e-08 -1.11558e-07 1.11612e-07)
(4.74064e-08 -1.25705e-07 1.28645e-07)
(5.32631e-08 -1.40522e-07 1.44669e-07)
(5.83601e-08 -1.54073e-07 1.5588e-07)
(5.83186e-08 -1.64264e-07 1.55457e-07)
(0 0 0)
(4.28176e-09 -8.72583e-09 6.54103e-09)
(8.12778e-09 -1.67739e-08 1.26768e-08)
(1.16496e-08 -2.45332e-08 1.87873e-08)
(1.49448e-08 -3.23242e-08 2.51967e-08)
(1.81042e-08 -4.04137e-08 3.21936e-08)
(2.12168e-08 -4.90243e-08 4.0042e-08)
(2.43759e-08 -5.83431e-08 4.8985e-08)
(2.76861e-08 -6.8531e-08 5.92424e-08)
(3.12707e-08 -7.97324e-08 7.10007e-08)
(3.52832e-08 -9.20866e-08 8.4387e-08)
(3.99199e-08 -1.05741e-07 9.94218e-08)
(4.54294e-08 -1.20864e-07 1.15918e-07)
(5.20915e-08 -1.3762e-07 1.33247e-07)
(6.00445e-08 -1.55941e-07 1.49829e-07)
(6.80574e-08 -1.73502e-07 1.61879e-07)
(8.10827e-08 -1.95531e-07 1.59983e-07)
(0 0 0)
(0 0 0)
(0 0 0)
(0 0 0)
(0 0 0)
(0 0 0)
(0 0 0)
(0 0 0)
(0 0 0)
(0 0 0)
(0 0 0)
(0 0 0)
(0 0 0)
(0 0 0)
(0 0 0)
(0 0 0)
(-8.35597e-10 2.37196e-09 1.99273e-09)
(0 0 0)
(6.49098e-10 -1.59918e-09 9.43515e-10)
(1.23218e-09 -3.06047e-09 1.83407e-09)
(1.76586e-09 -4.44346e-09 2.73204e-09)
(2.26332e-09 -5.79344e-09 3.68982e-09)
(2.7342e-09 -7.14066e-09 4.75429e-09)
(3.18421e-09 -8.49879e-09 5.96729e-09)
(3.61428e-09 -9.86217e-09 7.36445e-09)
(4.01909e-09 -1.12013e-08 8.97128e-09)
(4.38532e-09 -1.24562e-08 1.0795e-08)
(4.69067e-09 -1.35294e-08 1.28091e-08)
(4.90487e-09 -1.428e-08 1.49266e-08)
(4.99071e-09 -1.45245e-08 1.69528e-08)
(4.88783e-09 -1.40559e-08 1.85082e-08)
(4.43516e-09 -1.27203e-08 1.89374e-08)
(3.34009e-09 -1.07341e-08 1.7562e-08)
(8.78199e-10 -7.46848e-09 1.33038e-08)
(0 0 0)
(1.28615e-09 -3.14945e-09 1.86279e-09)
(2.44155e-09 -6.02914e-09 3.6205e-09)
(3.49923e-09 -8.75788e-09 5.39191e-09)
(4.48556e-09 -1.14264e-08 7.28001e-09)
(5.42017e-09 -1.40969e-08 9.37677e-09)
(6.31512e-09 -1.68007e-08 1.17644e-08)
(7.17287e-09 -1.95332e-08 1.45134e-08)
(7.98251e-09 -2.22469e-08 1.76748e-08)
(8.71378e-09 -2.48416e-08 2.12648e-08)
(9.30963e-09 -2.71561e-08 2.52354e-08)
(9.67816e-09 -2.89743e-08 2.94234e-08)
(9.68317e-09 -3.00699e-08 3.34696e-08)
(9.12683e-09 -3.03429e-08 3.67026e-08)
(7.74366e-09 -3.00955e-08 3.80776e-08)
(5.49583e-09 -3.01869e-08 3.68053e-08)
(2.98951e-09 -3.24354e-08 3.40674e-08)
(0 0 0)
(1.89994e-09 -4.6037e-09 2.73595e-09)
(3.6069e-09 -8.8172e-09 5.31634e-09)
(5.16993e-09 -1.28175e-08 7.91453e-09)
(6.6287e-09 -1.67414e-08 1.06805e-08)
(8.01359e-09 -2.06862e-08 1.37484e-08)
(9.34459e-09 -2.47074e-08 1.72384e-08)
(1.06281e-08 -2.88133e-08 2.12549e-08)
(1.18502e-08 -3.29577e-08 2.58762e-08)
(1.29643e-08 -3.70291e-08 3.11339e-08)
(1.38715e-08 -4.08449e-08 3.69734e-08)
(1.43923e-08 -4.41665e-08 4.31903e-08)
(1.42283e-08 -4.67745e-08 4.93339e-08)
(1.29377e-08 -4.86664e-08 5.4596e-08)
(1.00551e-08 -5.03715e-08 5.78107e-08)
(5.86893e-09 -5.27622e-08 5.81539e-08)
(1.21095e-09 -5.66089e-08 5.70356e-08)
(0 0 0)
(2.47933e-09 -5.91443e-09 3.54282e-09)
(4.70687e-09 -1.13341e-08 6.88182e-09)
(6.74703e-09 -1.64921e-08 1.02391e-08)
(8.65269e-09 -2.15712e-08 1.38066e-08)
(1.04659e-08 -2.67067e-08 1.77557e-08)
(1.22171e-08 -3.19851e-08 2.22413e-08)
(1.39211e-08 -3.74406e-08 2.73992e-08)
(1.55684e-08 -4.30481e-08 3.33358e-08)
(1.71075e-08 -4.87137e-08 4.0104e-08)
(1.84134e-08 -5.42666e-08 4.76599e-08)
(1.92338e-08 -5.94648e-08 5.57912e-08)
(1.9107e-08 -6.40422e-08 6.40131e-08)
(1.7292e-08 -6.78438e-08 7.14521e-08)
(1.29514e-08 -7.10563e-08 7.68365e-08)
(6.4696e-09 -7.41179e-08 7.90823e-08)
(-6.22792e-10 -7.79731e-08 7.9445e-08)
(0 0 0)
(3.01378e-09 -7.03526e-09 4.26631e-09)
(5.72113e-09 -1.34906e-08 8.28307e-09)
(8.20056e-09 -1.96517e-08 1.23138e-08)
(1.05177e-08 -2.57453e-08 1.65856e-08)
(1.27268e-08 -3.19457e-08 2.13012e-08)
(1.4871e-08 -3.83758e-08 2.66443e-08)
(1.69792e-08 -4.5105e-08 3.2778e-08)
(1.90578e-08 -5.21463e-08 3.98343e-08)
(2.10728e-08 -5.94483e-08 4.789e-08)
(2.29143e-08 -6.68836e-08 5.69227e-08)
(2.43307e-08 -7.42335e-08 6.67351e-08)
(2.48103e-08 -8.11694e-08 7.68436e-08)
(2.34373e-08 -8.72297e-08 8.63406e-08)
(1.89676e-08 -9.18176e-08 9.38384e-08)
(1.13287e-08 -9.43724e-08 9.79389e-08)
(1.7642e-09 -9.60679e-08 9.98198e-08)
(0 0 0)
(3.49379e-09 -7.92232e-09 4.89313e-09)
(6.63124e-09 -1.52024e-08 9.49392e-09)
(9.50295e-09 -2.21716e-08 1.40987e-08)
(1.21858e-08 -2.9097e-08 1.89618e-08)
(1.47458e-08 -3.61898e-08 2.43095e-08)
(1.72397e-08 -4.36097e-08 3.03471e-08)
(1.97145e-08 -5.14661e-08 3.72573e-08)
(2.22023e-08 -5.98192e-08 4.51913e-08)
(2.47087e-08 -6.86767e-08 5.42456e-08)
(2.71876e-08 -7.79844e-08 6.44187e-08)
(2.94892e-08 -8.76046e-08 7.55342e-08)
(3.12569e-08 -9.72604e-08 8.7117e-08)
(3.17687e-08 -1.06398e-07 9.82151e-08)
(2.98488e-08 -1.13913e-07 1.07259e-07)
(2.4795e-08 -1.18031e-07 1.12469e-07)
(1.46064e-08 -1.1459e-07 1.1546e-07)
(0 0 0)
(3.91149e-09 -8.53636e-09 5.41454e-09)
(7.42192e-09 -1.63933e-08 1.04974e-08)
(1.0631e-08 -2.39392e-08 1.55682e-08)
(1.36244e-08 -3.14733e-08 2.08996e-08)
(1.64775e-08 -3.92383e-08 2.6733e-08)
(1.92592e-08 -4.74264e-08 3.32856e-08)
(2.20335e-08 -5.61839e-08 4.07502e-08)
(2.48597e-08 -6.56159e-08 4.92861e-08)
(2.77896e-08 -7.57882e-08 5.89981e-08)
(3.08599e-08 -8.67262e-08 6.98932e-08)
(3.40724e-08 -9.84052e-08 8.18035e-08)
(3.73536e-08 -1.10721e-07 9.42489e-08)
(4.04975e-08 -1.23403e-07 1.06205e-07)
(4.31238e-08 -1.35764e-07 1.15806e-07)
(4.47688e-08 -1.45987e-07 1.20638e-07)
(4.50883e-08 -1.51969e-07 1.21541e-07)
(0 0 0)
(4.26133e-09 -8.84517e-09 5.82685e-09)
(8.0827e-09 -1.70015e-08 1.1287e-08)
(1.15692e-08 -2.48616e-08 1.67136e-08)
(1.48112e-08 -3.2747e-08 2.23882e-08)
(1.789e-08 -4.09223e-08 2.8558e-08)
(2.08818e-08 -4.96034e-08 3.54425e-08)
(2.38614e-08 -5.89634e-08 4.32331e-08)
(2.69059e-08 -6.91386e-08 5.20841e-08)
(3.00976e-08 -8.02315e-08 6.20922e-08)
(3.35268e-08 -9.23106e-08 7.32546e-08)
(3.72888e-08 -1.05403e-07 8.53934e-08)
(4.1471e-08 -1.19476e-07 9.80214e-08)
(4.61231e-08 -1.3437e-07 1.10111e-07)
(5.11853e-08 -1.49619e-07 1.19804e-07)
(5.59674e-08 -1.63155e-07 1.2453e-07)
(6.65734e-08 -1.80071e-07 1.20594e-07)
(0 0 0)
(0 0 0)
(0 0 0)
(0 0 0)
(0 0 0)
(0 0 0)
(0 0 0)
(0 0 0)
(0 0 0)
(0 0 0)
(0 0 0)
(0 0 0)
(0 0 0)
(0 0 0)
(0 0 0)
(0 0 0)
(-2.36403e-09 4.07147e-10 2.45302e-09)
(0 0 0)
(6.40014e-10 -1.61755e-09 7.94189e-10)
(1.21288e-09 -3.09576e-09 1.54304e-09)
(1.73292e-09 -4.49518e-09 2.29669e-09)
(2.21057e-09 -5.86206e-09 3.09828e-09)
(2.65168e-09 -7.2279e-09 3.98552e-09)
(3.05648e-09 -8.60827e-09 4.99081e-09)
(3.41781e-09 -1.00014e-08 6.13998e-09)
(3.71819e-09 -1.13852e-08 7.44814e-09)
(3.92585e-09 -1.27148e-08 8.91195e-09)
(3.99043e-09 -1.39203e-08 1.04962e-08)
(3.84012e-09 -1.49104e-08 1.21138e-08)
(3.38036e-09 -1.55817e-08 1.35982e-08)
(2.49248e-09 -1.58294e-08 1.46818e-08)
(1.04445e-09 -1.55378e-08 1.50291e-08)
(-8.96506e-10 -1.45962e-08 1.45041e-08)
(-3.11613e-09 -1.13697e-08 1.26422e-08)
(0 0 0)
(1.2688e-09 -3.18541e-09 1.56812e-09)
(2.4047e-09 -6.0982e-09 3.04631e-09)
(3.43637e-09 -8.85881e-09 4.53324e-09)
(4.38493e-09 -1.15596e-08 6.11358e-09)
(5.26288e-09 -1.42648e-08 7.86131e-09)
(6.07211e-09 -1.70087e-08 9.84033e-09)
(6.80023e-09 -1.97929e-08 1.21018e-08)
(7.41449e-09 -2.25815e-08 1.46767e-08)
(7.85264e-09 -2.52967e-08 1.75609e-08)
(8.01214e-09 -2.78188e-08 2.06907e-08)
(7.74133e-09 -2.99999e-08 2.39059e-08)
(6.84072e-09 -3.17077e-08 2.69057e-08)
(5.10427e-09 -3.29136e-08 2.92211e-08)
(2.48831e-09 -3.37916e-08 3.03062e-08)
(-3.78251e-10 -3.46086e-08 3.00337e-08)
(-2.01678e-09 -3.6211e-08 2.95739e-08)
(0 0 0)
(1.87584e-09 -4.65579e-09 2.30345e-09)
(3.5557e-09 -8.91705e-09 4.47388e-09)
(5.08259e-09 -1.29628e-08 6.65517e-09)
(6.48895e-09 -1.69317e-08 8.97057e-09)
(7.79548e-09 -2.0923e-08 1.1528e-08)
(9.00856e-09 -2.49952e-08 1.44211e-08)
(1.01151e-08 -2.91621e-08 1.77261e-08)
(1.1073e-08 -3.33881e-08 2.14918e-08)
(1.17966e-08 -3.75825e-08 2.57197e-08)
(1.21356e-08 -4.16001e-08 3.03326e-08)
(1.18519e-08 -4.52611e-08 3.5129e-08)
(1.06087e-08 -4.84166e-08 3.97366e-08)
(8.03347e-09 -5.10871e-08 4.36077e-08)
(4.02768e-09 -5.36191e-08 4.61658e-08)
(-3.81084e-10 -5.63786e-08 4.72865e-08)
(-3.58733e-09 -5.96768e-08 4.81451e-08)
(0 0 0)
(2.45044e-09 -5.98053e-09 2.98329e-09)
(4.6455e-09 -1.14604e-08 5.79235e-09)
(6.64231e-09 -1.6675e-08 8.61145e-09)
(8.48523e-09 -2.18085e-08 1.15981e-08)
(1.02051e-08 -2.69975e-08 1.48905e-08)
(1.18165e-08 -3.23301e-08 1.86095e-08)
(1.33124e-08 -3.78424e-08 2.28547e-08)
(1.46525e-08 -4.3514e-08 2.76935e-08)
(1.57441e-08 -4.92617e-08 3.31388e-08)
(1.64118e-08 -5.49341e-08 3.91131e-08)
(1.63544e-08 -6.03197e-08 4.53984e-08)
(1.51003e-08 -6.51843e-08 5.15921e-08)
(1.20403e-08 -6.93643e-08 5.71123e-08)
(6.78946e-09 -7.29002e-08 6.13512e-08)
(4.66625e-10 -7.59171e-08 6.40283e-08)
(-4.77424e-09 -7.90898e-08 6.61538e-08)
(0 0 0)
(2.9823e-09 -7.11274e-09 3.59322e-09)
(5.6542e-09 -1.36383e-08 6.97316e-09)
(8.08631e-09 -1.98643e-08 1.03584e-08)
(1.0335e-08 -2.60185e-08 1.39353e-08)
(1.24428e-08 -3.22752e-08 1.78673e-08)
(1.44363e-08 -3.87557e-08 2.2298e-08)
(1.6322e-08 -4.55267e-08 2.73472e-08)
(1.80753e-08 -5.25965e-08 3.30992e-08)
(1.9622e-08 -5.99081e-08 3.95794e-08)
(2.08056e-08 -6.73271e-08 4.67162e-08)
(2.13331e-08 -7.46248e-08 5.42864e-08)
(2.07e-08 -8.14533e-08 6.1866e-08)
(1.81516e-08 -8.73067e-08 6.88293e-08)
(1.29357e-08 -9.1496e-08 7.44975e-08)
(5.71674e-09 -9.33766e-08 7.84352e-08)
(-1.70473e-09 -9.39821e-08 8.16464e-08)
(0 0 0)
(3.4619e-09 -8.00824e-09 4.12199e-09)
(6.56333e-09 -1.53657e-08 7.99416e-09)
(9.38686e-09 -2.24055e-08 1.18622e-08)
(1.20002e-08 -2.93948e-08 1.59349e-08)
(1.44575e-08 -3.65434e-08 2.0395e-08)
(1.67999e-08 -4.4006e-08 2.54029e-08)
(1.90525e-08 -5.18836e-08 3.10927e-08)
(2.1218e-08 -6.02213e-08 3.75606e-08)
(2.32648e-08 -6.90038e-08 4.48409e-08)
(2.51031e-08 -7.81409e-08 5.2865e-08)
(2.65447e-08 -8.74394e-08 6.14011e-08)
(2.7239e-08 -9.6541e-08 6.99859e-08)
(2.66149e-08 -1.04789e-07 7.78941e-08)
(2.39775e-08 -1.11008e-07 8.42673e-08)
(1.93823e-08 -1.13605e-07 8.85138e-08)
(1.1545e-08 -1.08818e-07 9.21247e-08)
(0 0 0)
(3.8811e-09 -8.62763e-09 4.56214e-09)
(7.35705e-09 -1.65664e-08 8.84086e-09)
(1.05199e-08 -2.4186e-08 1.31012e-08)
(1.34464e-08 -3.17852e-08 1.75672e-08)
(1.62012e-08 -3.96035e-08 2.24339e-08)
(1.88386e-08 -4.78255e-08 2.78711e-08)
(2.14026e-08 -5.65836e-08 3.40201e-08)
(2.39262e-08 -6.59597e-08 4.09811e-08)
(2.64272e-08 -7.5982e-08 4.87895e-08)
(2.89018e-08 -8.66161e-08 5.73719e-08)
(3.13123e-08 -9.77449e-08 6.64775e-08)
(3.3576e-08 -1.09129e-07 7.55855e-08)
(3.55916e-08 -1.20334e-07 8.3818e-08)
(3.73732e-08 -1.30586e-07 8.99836e-08)
(3.91818e-08 -1.38474e-07 9.31333e-08)
(4.14844e-08 -1.42702e-07 9.48495e-08)
(0 0 0)
(4.23397e-09 -8.93863e-09 4.91044e-09)
(8.02405e-09 -1.71785e-08 9.50765e-09)
(1.14682e-08 -2.51132e-08 1.40679e-08)
(1.4649e-08 -3.30631e-08 1.88229e-08)
(1.7638e-08 -4.12886e-08 2.39725e-08)
(2.04986e-08 -4.9996e-08 2.96886e-08)
(2.32883e-08 -5.93414e-08 3.6111e-08)
(2.60613e-08 -6.94326e-08 4.33356e-08)
(2.88705e-08 -8.03268e-08 5.13897e-08)
(3.17699e-08 -9.20216e-08 6.01879e-08)
(3.48162e-08 -1.04438e-07 6.94607e-08)
(3.80741e-08 -1.17393e-07 7.86526e-08)
(4.16445e-08 -1.30563e-07 8.68141e-08)
(4.57246e-08 -1.43427e-07 9.26097e-08)
(5.01909e-08 -1.54482e-07 9.48786e-08)
(6.20902e-08 -1.69579e-07 9.23925e-08)
(0 0 0)
(0 0 0)
(0 0 0)
(0 0 0)
(0 0 0)
(0 0 0)
(0 0 0)
(0 0 0)
(0 0 0)
(0 0 0)
(0 0 0)
(0 0 0)
(0 0 0)
(0 0 0)
(0 0 0)
(0 0 0)
(-2.78071e-09 -1.38176e-10 2.31706e-09)
(0 0 0)
(6.31301e-10 -1.63119e-09 6.18337e-10)
(1.19449e-09 -3.12188e-09 1.20084e-09)
(1.70187e-09 -4.53355e-09 1.78618e-09)
(2.16146e-09 -5.91309e-09 2.40737e-09)
(2.57592e-09 -7.29255e-09 3.0925e-09)
(2.94119e-09 -8.68878e-09 3.86494e-09)
(3.24428e-09 -1.01024e-08 4.74211e-09)
(3.46003e-09 -1.15163e-08 5.73222e-09)
(3.54718e-09 -1.28937e-08 6.82825e-09)
(3.4454e-09 -1.41782e-08 7.99902e-09)
(3.0757e-09 -1.5297e-08 9.17832e-09)
(2.34833e-09 -1.61641e-08 1.02565e-08)
(1.18235e-09 -1.66696e-08 1.10875e-08)
(-4.50861e-10 -1.6623e-08 1.15406e-08)
(-2.33213e-09 -1.57451e-08 1.16064e-08)
(-4.10114e-09 -1.22186e-08 1.0676e-08)
(0 0 0)
(1.25213e-09 -3.21228e-09 1.22103e-09)
(2.36954e-09 -6.14976e-09 2.37109e-09)
(3.37697e-09 -8.93411e-09 3.52619e-09)
(4.29098e-09 -1.16587e-08 4.75095e-09)
(5.11809e-09 -1.43887e-08 6.10057e-09)
(5.85218e-09 -1.71604e-08 7.62121e-09)
(6.47024e-09 -1.99789e-08 9.34758e-09)
(6.92586e-09 -2.28154e-08 1.12968e-08)
(7.14098e-09 -2.56041e-08 1.34572e-08)
(6.9988e-09 -2.82436e-08 1.57718e-08)
(6.34391e-09 -3.06085e-08 1.81186e-08)
(5.00674e-09 -3.25762e-08 2.0296e-08)
(2.88722e-09 -3.40727e-08 2.20373e-08)
(1.71859e-10 -3.51026e-08 2.30963e-08)
(-2.28368e-09 -3.56935e-08 2.34472e-08)
(-3.00989e-09 -3.65621e-08 2.35686e-08)
(0 0 0)
(1.85257e-09 -4.69492e-09 1.79388e-09)
(3.50662e-09 -8.99192e-09 3.48289e-09)
(4.99969e-09 -1.30713e-08 5.17773e-09)
(6.35788e-09 -1.70726e-08 6.9723e-09)
(7.59381e-09 -2.10961e-08 8.94721e-09)
(8.70313e-09 -2.52017e-08 1.11703e-08)
(9.65877e-09 -2.9406e-08 1.36936e-08)
(1.04016e-08 -3.36786e-08 1.65447e-08)
(1.08276e-08 -3.79381e-08 1.97126e-08)
(1.07737e-08 -4.20527e-08 2.31259e-08)
(1.00104e-08 -4.58551e-08 2.66281e-08)
(8.26398e-09 -4.91879e-08 2.99687e-08)
(5.33444e-09 -5.19994e-08 3.28374e-08)
(1.43474e-09 -5.44532e-08 3.49806e-08)
(-2.20772e-09 -5.67509e-08 3.6355e-08)
(-4.15154e-09 -5.92749e-08 3.73401e-08)
(0 0 0)
(2.42234e-09 -6.03027e-09 2.32379e-09)
(4.58623e-09 -1.15552e-08 4.51025e-09)
(6.54219e-09 -1.68112e-08 6.70106e-09)
(8.32709e-09 -2.1983e-08 9.01614e-09)
(9.96225e-09 -2.72074e-08 1.15588e-08)
(1.14501e-08 -3.25723e-08 1.44166e-08)
(1.27677e-08 -3.81135e-08 1.76579e-08)
(1.38564e-08 -4.38107e-08 2.13217e-08)
(1.46058e-08 -4.95811e-08 2.54011e-08)
(1.48321e-08 -5.52739e-08 2.98189e-08)
(1.42562e-08 -6.06716e-08 3.4401e-08)
(1.24994e-08 -6.55132e-08 3.8871e-08)
(9.17337e-09 -6.95591e-08 4.28972e-08)
(4.24904e-09 -7.27102e-08 4.62133e-08)
(-1.00512e-09 -7.5043e-08 4.86634e-08)
(-4.73658e-09 -7.73717e-08 5.04835e-08)
(0 0 0)
(2.95134e-09 -7.17099e-09 2.79947e-09)
(5.58888e-09 -1.37488e-08 5.43084e-09)
(7.97599e-09 -2.00217e-08 8.06202e-09)
(1.0161e-08 -2.62174e-08 1.08349e-08)
(1.21761e-08 -3.25091e-08 1.38718e-08)
(1.40354e-08 -3.90154e-08 1.7277e-08)
(1.57289e-08 -4.57979e-08 2.11324e-08)
(1.72141e-08 -5.28575e-08 2.5487e-08)
(1.84003e-08 -6.01254e-08 3.03386e-08)
(1.91269e-08 -6.74496e-08 3.56066e-08)
(1.91321e-08 -7.45732e-08 4.11031e-08)
(1.80207e-08 -8.11026e-08 4.65215e-08)
(1.52841e-08 -8.64639e-08 5.14883e-08)