/*--------------------------------*- C++ -*----------------------------------*\
| =========                 |                                                 |
| \\      /  F ield         | OpenFOAM: The Open Source CFD Toolbox           |
|  \\    /   O peration     | Version:  v1912                                 |
|   \\  /    A nd           | Website:  www.openfoam.com                      |
|    \\/     M anipulation  |                                                 |
\*---------------------------------------------------------------------------*/
FoamFile
{
    version     2.0;
    format      ascii;
    class       volScalarField;
    location    "0.59/solid";
    object      epsilonEq;
}
// * * * * * * * * * * * * * * * * * * * * * * * * * * * * * * * * * * * * * //

dimensions      [0 0 0 0 0 0 0];


internalField   nonuniform List<scalar> 
256
(
2.70892e-06
1.93078e-06
1.9052e-06
2.59586e-06
1.60838e-06
1.3817e-06
1.36068e-06
1.51929e-06
1.61085e-06
1.31489e-06
1.29423e-06
1.52179e-06
1.69123e-06
1.32401e-06
1.30351e-06
1.6014e-06
1.75613e-06
1.35919e-06
1.33868e-06
1.66552e-06
1.7682e-06
1.39073e-06
1.37015e-06
1.67699e-06
1.46408e-06
1.28998e-06
1.2721e-06
1.37986e-06
2.24724e-07
1.45436e-06
1.44251e-06
2.38897e-07
1.65189e-06
3.85616e-07
3.74743e-07
1.53454e-06
1.23499e-06
3.80384e-07
3.70476e-07
1.12917e-06
1.212e-06
2.89918e-07
2.82128e-07
1.10659e-06
1.22896e-06
2.00951e-07
1.9565e-07
1.12212e-06
1.26635e-06
1.6509e-07
1.6216e-07
1.15746e-06
1.31539e-06
1.78301e-07
1.75636e-07
1.20449e-06
1.24673e-06
1.31913e-07
1.36238e-07
1.13815e-06
1.46409e-06
1.29187e-06
1.27406e-06
1.37989e-06
1.39888e-06
2.21441e-07
2.17231e-07
1.28639e-06
1.18749e-06
2.24406e-07
2.15567e-07
1.08326e-06
1.17903e-06
1.61791e-07
1.53189e-07
1.0731e-06
1.1954e-06
9.71591e-08
9.12519e-08
1.08707e-06
1.23668e-06
8.4489e-08
8.27064e-08
1.12555e-06
1.3039e-06
1.06136e-07
1.02539e-07
1.19e-06
1.31381e-06
1.73142e-07
1.71263e-07
1.20265e-06
1.7696e-06
1.39474e-06
1.37436e-06
1.67889e-06
1.25622e-06
2.00502e-07
1.98673e-07
1.14949e-06
1.10202e-06
1.92534e-07
1.87469e-07
1.00339e-06
1.09978e-06
1.42084e-07
1.37574e-07
9.98115e-07
1.11718e-06
1.00752e-07
1.00282e-07
1.01218e-06
1.16079e-06
9.19947e-08
9.45511e-08
1.05231e-06
1.23344e-06
9.42269e-08
9.33921e-08
1.12147e-06
1.26205e-06
1.48796e-07
1.47812e-07
1.1524e-06
1.7658e-06
1.36804e-06
1.34789e-06
1.67628e-06
1.17411e-06
1.73217e-07
1.71203e-07
1.0709e-06
1.03587e-06
1.71457e-07
1.67509e-07
9.40602e-07
1.03912e-06
1.32106e-07
1.28874e-07
9.40377e-07
1.06007e-06
9.75288e-08
9.77293e-08
9.57455e-07
1.10754e-06
8.71852e-08
8.945e-08
1.00104e-06
1.1839e-06
8.3497e-08
8.15487e-08
1.07354e-06
1.21986e-06
1.46892e-07
1.45516e-07
1.11167e-06
1.72569e-06
1.3369e-06
1.31699e-06
1.63748e-06
1.12752e-06
1.50835e-07
1.48064e-07
1.02635e-06
9.94194e-07
1.52604e-07
1.48354e-07
9.00623e-07
1.00127e-06
1.17268e-07
1.13514e-07
9.04063e-07
1.02588e-06
8.06549e-08
7.9788e-08
9.24563e-07
1.07685e-06
6.71494e-08
6.7896e-08
9.71461e-07
1.156e-06
6.85024e-08
6.35858e-08
1.04662e-06
1.19646e-06
1.57287e-07
1.55183e-07
1.08931e-06
1.69644e-06
1.31558e-06
1.2958e-06
1.60908e-06
1.10194e-06
1.34721e-07
1.3117e-07
1.0019e-06
9.70382e-07
1.37464e-07
1.32547e-07
8.77635e-07
9.7966e-07
1.01801e-07
9.69724e-08
8.83208e-07
1.00683e-06
6.00012e-08
5.7394e-08
9.06176e-07
1.06013e-06
4.34502e-08
4.20623e-08
9.55337e-07
1.1411e-06
5.71251e-08
4.89133e-08
1.03228e-06
1.18449e-06
1.67024e-07
1.64515e-07
1.07803e-06
1.67995e-06
1.3027e-06
1.28298e-06
1.59313e-06
1.0905e-06
1.25917e-07
1.21857e-07
9.90958e-07
9.59568e-07
1.2875e-07
1.2334e-07
8.67165e-07
9.69842e-07
9.18181e-08
8.61144e-08
8.73705e-07
9.98263e-07
4.44902e-08
3.98738e-08
8.97898e-07
1.05268e-06
2.33805e-08
1.80834e-08
9.48157e-07
1.13452e-06
5.13315e-08
4.08275e-08
1.02597e-06
1.17939e-06
1.72076e-07
1.69419e-07
1.07327e-06
1.67279e-06
1.29667e-06
1.27699e-06
1.58623e-06
)
;

boundaryField
{
    interface
    {
        type            calculated;
        value           nonuniform List<scalar> 
192
(
3.48958e-06
2.29017e-06
2.3096e-06
2.42135e-06
2.52036e-06
2.5726e-06
2.32413e-06
1.27333e-06
2.68592e-06
2.14095e-06
2.13482e-06
2.19676e-06
2.28471e-06
2.38892e-06
2.37334e-06
2.32487e-06
2.36365e-06
2.05339e-06
2.06509e-06
2.12397e-06
2.21498e-06
2.33801e-06
2.38982e-06
2.5762e-06
2.1502e-06
1.91109e-06
1.93323e-06
1.99313e-06
2.08613e-06
2.21539e-06
2.28772e-06
2.53488e-06
2.022e-06
1.80409e-06
1.83261e-06
1.89575e-06
1.99197e-06
2.12501e-06
2.2058e-06
2.46681e-06
1.94741e-06
1.73683e-06
1.76894e-06
1.83519e-06
1.93433e-06
2.06984e-06
2.15485e-06
2.41865e-06
1.90603e-06
1.69849e-06
1.73246e-06
1.80083e-06
1.90191e-06
2.03887e-06
2.12611e-06
2.39066e-06
1.88747e-06
1.68116e-06
1.71594e-06
1.78533e-06
1.88734e-06
2.02495e-06
2.11317e-06
2.37808e-06
3.5573e-06
2.36208e-06
2.38308e-06
2.49775e-06
2.59914e-06
2.65237e-06
2.40906e-06
1.39584e-06
3.05674e-06
2.3654e-06
2.31663e-06
2.37036e-06
2.4546e-06
2.54224e-06
2.49827e-06
2.40008e-06
3.01466e-06
2.32801e-06
2.2785e-06
2.33161e-06
2.41537e-06
2.50248e-06
2.46003e-06
2.37284e-06
3.4217e-06
2.25564e-06
2.27482e-06
2.38743e-06
2.48748e-06
2.53985e-06
2.30416e-06
1.36714e-06
3.31242e-06
2.12955e-06
2.14695e-06
2.25632e-06
2.353e-06
2.40305e-06
2.15733e-06
1.14079e-06
2.48949e-06
1.95634e-06
1.94819e-06
2.0064e-06
2.09021e-06
2.19044e-06
2.17578e-06
2.15754e-06
2.1737e-06
1.87201e-06
1.88023e-06
1.93462e-06
2.02062e-06
2.1384e-06
2.19012e-06
2.40574e-06
1.96781e-06
1.73659e-06
1.75426e-06
1.80893e-06
1.89622e-06
2.01928e-06
2.09039e-06
2.36614e-06
1.84465e-06
1.63422e-06
1.65786e-06
1.71531e-06
1.80535e-06
1.93162e-06
2.01054e-06
2.2996e-06
1.77315e-06
1.56966e-06
1.5967e-06
1.657e-06
1.74966e-06
1.87809e-06
1.96093e-06
2.25241e-06
1.73353e-06
1.5328e-06
1.56162e-06
1.6239e-06
1.71836e-06
1.84807e-06
1.93299e-06
2.22501e-06
1.71577e-06
1.51614e-06
1.54572e-06
1.60898e-06
1.7043e-06
1.83459e-06
1.92044e-06
2.21272e-06
1.39813e-06
2.4108e-06
2.65665e-06
2.61474e-06
2.54566e-06
2.49618e-06
2.46721e-06
2.45414e-06
2.40167e-06
2.50185e-06
2.54984e-06
2.47113e-06
2.40052e-06
2.35232e-06
2.32299e-06
2.30918e-06
2.37422e-06
2.46337e-06
2.50978e-06
2.4315e-06
2.36118e-06
2.31312e-06
2.28386e-06
2.27009e-06
1.36826e-06
2.30521e-06
2.5437e-06
2.50285e-06
2.4349e-06
2.38617e-06
2.35764e-06
2.3448e-06
)
;
    }
    symmetry
    {
        type            symmetry;
    }
    bottom
    {
        type            calculated;
        value           nonuniform List<scalar> 
32
(
3.82572e-06
2.0978e-06
1.67496e-06
1.49775e-06
1.40538e-06
1.35372e-06
1.32539e-06
1.31272e-06
2.4513e-06
4.8768e-07
2.29539e-07
2.11628e-07
1.9005e-07
1.70803e-07
1.56826e-07
1.49298e-07
2.42179e-06
4.72684e-07
2.18451e-07
2.02382e-07
1.79934e-07
1.5944e-07
1.44298e-07
1.36024e-07
3.68996e-06
1.96888e-06
1.55159e-06
1.38081e-06
1.29281e-06
1.24385e-06
1.21708e-06
1.20512e-06
)
;
    }
}


// ************************************************************************* //
