/*--------------------------------*- C++ -*----------------------------------*\
| =========                 |                                                 |
| \\      /  F ield         | OpenFOAM: The Open Source CFD Toolbox           |
|  \\    /   O peration     | Version:  v1912                                 |
|   \\  /    A nd           | Website:  www.openfoam.com                      |
|    \\/     M anipulation  |                                                 |
\*---------------------------------------------------------------------------*/
FoamFile
{
    version     2.0;
    format      ascii;
    class       pointVectorField;
    location    "0.59/solid";
    object      pointD;
}
// * * * * * * * * * * * * * * * * * * * * * * * * * * * * * * * * * * * * * //

dimensions      [0 1 0 0 0 0 0];


internalField   nonuniform List<vector> 
405
(
(3.52726e-08 3.49069e-08 3.64111e-08)
(6.56113e-09 2.28217e-08 4.06446e-08)
(9.80873e-11 1.86946e-08 3.83518e-08)
(-6.21449e-09 2.25141e-08 3.99804e-08)
(-3.35255e-08 3.39018e-08 3.58114e-08)
(5.93089e-08 4.30682e-08 6.44097e-08)
(1.79751e-08 3.85455e-08 9.03028e-08)
(5.74691e-10 3.20751e-08 8.56486e-08)
(-1.64796e-08 3.77548e-08 8.91289e-08)
(-5.58599e-08 4.13149e-08 6.37652e-08)
(6.69584e-08 2.58114e-08 8.00907e-08)
(2.3654e-08 2.49101e-08 1.05311e-07)
(1.40117e-09 2.15301e-08 1.00379e-07)
(-2.0466e-08 2.37755e-08 1.04385e-07)
(-6.18074e-08 2.35607e-08 7.98869e-08)
(6.84591e-08 1.23735e-08 9.07017e-08)
(2.44325e-08 1.31582e-08 1.16297e-07)
(2.33887e-09 1.14156e-08 1.10987e-07)
(-1.93775e-08 1.16967e-08 1.15533e-07)
(-6.14638e-08 9.62305e-09 9.082e-08)
(6.96673e-08 2.42664e-09 1.00214e-07)
(2.47456e-08 3.13511e-09 1.26487e-07)
(3.36053e-09 1.52789e-09 1.20882e-07)
(-1.76487e-08 1.36864e-09 1.25844e-07)
(-6.0636e-08 -8.05661e-10 1.00571e-07)
(7.32036e-08 -6.52881e-09 1.10614e-07)
(2.64921e-08 -6.6864e-09 1.37926e-07)
(4.46788e-09 -8.81332e-09 1.32116e-07)
(-1.71796e-08 -8.74179e-09 1.37373e-07)
(-6.19582e-08 -1.02189e-08 1.11152e-07)
(8.09594e-08 -1.83891e-08 1.23241e-07)
(3.0912e-08 -1.92033e-08 1.52194e-07)
(5.65673e-09 -2.14729e-08 1.46415e-07)
(-1.92291e-08 -2.15374e-08 1.51711e-07)
(-6.73618e-08 -2.25125e-08 1.23921e-07)
(9.40952e-08 -4.96387e-08 1.3847e-07)
(3.81707e-08 -4.94295e-08 1.70787e-07)
(6.89251e-09 -5.0023e-08 1.65848e-07)
(-2.40248e-08 -5.18737e-08 1.70389e-07)
(-7.80641e-08 -5.39424e-08 1.39277e-07)
(9.02697e-08 -9.94301e-08 1.34992e-07)
(4.25624e-08 -1.09831e-07 1.45574e-07)
(7.68267e-09 -1.07606e-07 1.42694e-07)
(-2.68344e-08 -1.11533e-07 1.45946e-07)
(-7.32849e-08 -1.02797e-07 1.36122e-07)
(3.67328e-08 1.96166e-08 6.25335e-09)
(0 0 0)
(0 0 0)
(0 0 0)
(-3.46281e-08 1.8685e-08 6.3829e-09)
(7.81288e-08 3.12881e-08 2.06973e-08)
(1.52831e-08 1.75218e-08 2.35371e-08)
(4.69485e-10 1.1949e-08 2.3303e-08)
(-1.4008e-08 1.66583e-08 2.38047e-08)
(-7.31894e-08 2.91489e-08 2.12212e-08)
(8.39848e-08 1.66974e-08 3.43126e-08)
(2.0071e-08 1.20175e-08 3.80809e-08)
(1.17956e-09 8.92054e-09 3.79691e-08)
(-1.73381e-08 1.07709e-08 3.8597e-08)
(-7.75058e-08 1.40016e-08 3.53184e-08)
(8.571e-08 5.30516e-09 4.39732e-08)
(2.06749e-08 3.8722e-09 4.79052e-08)
(2.02107e-09 2.23833e-09 4.78402e-08)
(-1.62662e-08 2.31414e-09 4.8617e-08)
(-7.74926e-08 2.05726e-09 4.53605e-08)
(8.7645e-08 -3.463e-09 5.22556e-08)
(2.097e-08 -5.14036e-09 5.6166e-08)
(2.96869e-09 -6.66904e-09 5.60683e-08)
(-1.46652e-08 -6.98067e-09 5.70246e-08)
(-7.74588e-08 -7.23706e-09 5.39317e-08)
(9.23302e-08 -1.14204e-08 6.07664e-08)
(2.27159e-08 -1.50592e-08 6.46238e-08)
(4.01852e-09 -1.71384e-08 6.44658e-08)
(-1.43075e-08 -1.71711e-08 6.55945e-08)
(-7.99714e-08 -1.56908e-08 6.26631e-08)
(1.01869e-07 -2.15272e-08 7.03199e-08)
(2.71405e-08 -2.74323e-08 7.41318e-08)
(5.1622e-09 -2.97361e-08 7.39501e-08)
(-1.64484e-08 -2.98067e-08 7.5188e-08)
(-8.7191e-08 -2.6256e-08 7.23852e-08)
(1.18342e-07 -4.91263e-08 7.98939e-08)
(3.43807e-08 -5.36368e-08 8.37374e-08)
(6.36624e-09 -5.42207e-08 8.36643e-08)
(-2.1288e-08 -5.60979e-08 8.48471e-08)
(-1.01275e-07 -5.40367e-08 8.20699e-08)
(9.46325e-08 -1.07874e-07 8.58881e-08)
(3.88657e-08 -1.40724e-07 8.70749e-08)
(7.58284e-09 -1.36454e-07 8.70307e-08)
(-2.33333e-08 -1.41666e-07 8.81939e-08)
(-7.75477e-08 -1.11054e-07 8.78361e-08)
(3.00046e-08 1.15882e-08 4.04202e-10)
(0 0 0)
(0 0 0)
(0 0 0)
(-2.79756e-08 1.07876e-08 5.71333e-10)
(6.35843e-08 1.69391e-08 5.7328e-09)
(1.05708e-08 6.44557e-09 9.62954e-09)
(3.58677e-10 1.77785e-09 1.06346e-08)
(-9.51909e-09 5.65735e-09 9.93986e-09)
(-5.89201e-08 1.50281e-08 6.29981e-09)
(6.79319e-08 5.72839e-09 1.56362e-08)
(1.39369e-08 2.08194e-09 2.073e-08)
(9.69756e-10 -5.82548e-10 2.21773e-08)
(-1.16288e-08 8.7713e-10 2.12569e-08)
(-6.1947e-08 3.1987e-09 1.66179e-08)
(6.90524e-08 -3.04875e-09 2.47922e-08)
(1.42398e-08 -4.21584e-09 3.01413e-08)
(1.72698e-09 -5.71585e-09 3.17508e-08)
(-1.04253e-08 -5.74961e-09 3.0835e-08)
(-6.14966e-08 -6.17531e-09 2.61008e-08)
(7.0686e-08 -1.02155e-08 3.27345e-08)
(1.44334e-08 -1.17945e-08 3.81316e-08)
(2.60547e-09 -1.32866e-08 3.97934e-08)
(-8.85913e-09 -1.36166e-08 3.89564e-08)
(-6.12838e-08 -1.38958e-08 3.43025e-08)
(7.52481e-08 -1.66738e-08 4.01917e-08)
(1.60955e-08 -2.02789e-08 4.5598e-08)
(3.59977e-09 -2.2352e-08 4.72733e-08)
(-8.52467e-09 -2.23742e-08 4.65252e-08)
(-6.37537e-08 -2.0869e-08 4.19627e-08)
(8.50379e-08 -2.42867e-08 4.72299e-08)
(2.04989e-08 -3.02398e-08 5.26117e-08)
(4.69981e-09 -3.25428e-08 5.42921e-08)
(-1.0727e-08 -3.25956e-08 5.36143e-08)
(-7.127e-08 -2.89501e-08 4.91518e-08)
(1.02587e-07 -4.70859e-08 5.21524e-08)
(2.78269e-08 -5.15801e-08 5.74848e-08)
(5.87129e-09 -5.20738e-08 5.91769e-08)
(-1.57166e-08 -5.40142e-08 5.85266e-08)
(-8.6464e-08 -5.19276e-08 5.41631e-08)
(8.22097e-08 -1.00162e-07 5.45806e-08)
(3.23097e-08 -1.29684e-07 5.68454e-08)
(7.06592e-09 -1.24598e-07 5.85202e-08)
(-1.78049e-08 -1.30564e-07 5.78755e-08)
(-6.61172e-08 -1.03256e-07 5.63675e-08)
(2.59661e-08 8.63843e-09 3.94473e-10)
(0 0 0)
(0 0 0)
(0 0 0)
(-2.40439e-08 7.93388e-09 5.19076e-10)
(5.49007e-08 1.09261e-08 4.28625e-09)
(7.72609e-09 2.43543e-09 6.70734e-09)
(2.71171e-10 -1.61525e-09 7.61716e-09)
(-6.86101e-09 1.71546e-09 6.93922e-09)
(-5.05315e-08 9.21598e-09 4.71706e-09)
(5.85196e-08 -2.0431e-10 1.19888e-08)
(1.01925e-08 -3.19431e-09 1.51855e-08)
(7.98476e-10 -5.52524e-09 1.64872e-08)
(-8.23724e-09 -4.3209e-09 1.55867e-08)
(-5.29862e-08 -2.53341e-09 1.27441e-08)
(5.95145e-08 -8.37589e-09 2.00758e-08)
(1.03511e-08 -9.41411e-09 2.34089e-08)
(1.48244e-09 -1.08006e-08 2.485e-08)
(-7.03382e-09 -1.08765e-08 2.39421e-08)
(-5.2548e-08 -1.13248e-08 2.10926e-08)
(6.11505e-08 -1.44883e-08 2.73902e-08)
(1.05424e-08 -1.60652e-08 3.07109e-08)
(2.29948e-09 -1.75289e-08 3.22007e-08)
(-5.58638e-09 -1.78253e-08 3.13519e-08)
(-5.24492e-08 -1.80183e-08 2.86232e-08)
(6.57694e-08 -1.93814e-08 3.38106e-08)
(1.22047e-08 -2.30131e-08 3.71015e-08)
(3.24368e-09 -2.5082e-08 3.86108e-08)
(-5.34989e-09 -2.50543e-08 3.78295e-08)
(-5.50565e-08 -2.34507e-08 3.52188e-08)
(7.57467e-08 -2.48846e-08 3.89767e-08)
(1.6618e-08 -3.08746e-08 4.22422e-08)
(4.30363e-09 -3.3186e-08 4.37596e-08)
(-7.63881e-09 -3.31811e-08 4.30339e-08)
(-6.28089e-08 -2.944e-08 4.05158e-08)
(9.35921e-08 -4.5019e-08 4.17237e-08)
(2.39427e-08 -4.95834e-08 4.50069e-08)
(5.44279e-09 -5.01206e-08 4.65342e-08)
(-1.26858e-08 -5.19691e-08 4.58289e-08)
(-7.83236e-08 -4.97605e-08 4.33371e-08)
(7.49997e-08 -9.50386e-08 4.26401e-08)
(2.84567e-08 -1.2298e-07 4.43703e-08)
(6.61058e-09 -1.17883e-07 4.59556e-08)
(-1.48574e-08 -1.23821e-07 4.51734e-08)
(-5.97886e-08 -9.80531e-08 4.40574e-08)
(2.38304e-08 7.55559e-09 7.0211e-10)
(0 0 0)
(0 0 0)
(0 0 0)
(-2.1993e-08 6.91919e-09 7.89786e-10)
(5.03041e-08 8.62429e-09 4.13549e-09)
(6.52165e-09 1.06275e-09 5.28602e-09)
(2.13038e-10 -2.64777e-09 5.82363e-09)
(-5.78918e-09 3.95438e-10 5.4521e-09)
(-4.61685e-08 7.06769e-09 4.44452e-09)
(5.35975e-08 -2.80327e-09 1.01598e-08)
(8.60752e-09 -5.50031e-09 1.16755e-08)
(6.7687e-10 -7.64023e-09 1.24503e-08)
(-6.91139e-09 -6.55398e-09 1.19677e-08)
(-4.84199e-08 -4.95906e-09 1.07106e-08)
(5.46627e-08 -1.10592e-08 1.66646e-08)
(8.75264e-09 -1.20806e-08 1.82119e-08)
(1.30142e-09 -1.33981e-08 1.90704e-08)
(-5.81075e-09 -1.34673e-08 1.86047e-08)
(-4.8162e-08 -1.38387e-08 1.74156e-08)
(5.64295e-08 -1.67252e-08 2.27134e-08)
(9.00318e-09 -1.83481e-08 2.4211e-08)
(2.06683e-09 -1.97924e-08 2.50966e-08)
(-4.52407e-09 -2.0038e-08 2.4688e-08)
(-4.82882e-08 -2.01024e-08 2.36355e-08)
(6.11584e-08 -2.06951e-08 2.78402e-08)
(1.07062e-08 -2.4362e-08 2.92933e-08)
(2.96787e-09 -2.6424e-08 3.019e-08)
(-4.41297e-09 -2.63405e-08 2.984e-08)
(-5.10786e-08 -2.46321e-08 2.89048e-08)
(7.1214e-08 -2.51047e-08 3.16018e-08)
(1.51186e-08 -3.11035e-08 3.30467e-08)
(3.99236e-09 -3.34235e-08 3.3952e-08)
(-6.76962e-09 -3.33543e-08 3.36448e-08)
(-5.89594e-08 -2.95466e-08 3.27748e-08)
(8.90332e-08 -4.40429e-08 3.34215e-08)
(2.23822e-08 -4.86764e-08 3.49241e-08)
(5.10183e-09 -4.92901e-08 3.58477e-08)
(-1.18118e-08 -5.10125e-08 3.5546e-08)
(-7.44765e-08 -4.86846e-08 3.46566e-08)
(7.15774e-08 -9.22491e-08 3.3877e-08)
(2.69174e-08 -1.19224e-07 3.48264e-08)
(6.24421e-09 -1.14308e-07 3.58194e-08)
(-1.40538e-08 -1.20026e-07 3.54303e-08)
(-5.70963e-08 -9.51871e-08 3.49558e-08)
(2.27162e-08 7.1067e-09 7.20452e-10)
(0 0 0)
(0 0 0)
(0 0 0)
(-2.09355e-08 6.51734e-09 7.79531e-10)
(4.79542e-08 7.72447e-09 3.51443e-09)
(6.09648e-09 5.42343e-10 4.00617e-09)
(1.76074e-10 -2.99758e-09 4.27569e-09)
(-5.4513e-09 -8.59777e-11 4.12061e-09)
(-4.39772e-08 6.27791e-09 3.72514e-09)
(5.11646e-08 -3.79941e-09 7.98894e-09)
(8.07139e-09 -6.40003e-09 8.61903e-09)
(5.9537e-10 -8.44577e-09 9.00904e-09)
(-6.55208e-09 -7.39658e-09 8.82244e-09)
(-4.62335e-08 -5.82312e-09 8.36915e-09)
(5.23432e-08 -1.21667e-08 1.27744e-08)
(8.2541e-09 -1.32172e-08 1.339e-08)
(1.17533e-09 -1.45007e-08 1.38222e-08)
(-5.57629e-09 -1.45412e-08 1.36659e-08)
(-4.61716e-08 -1.48098e-08 1.3299e-08)
(5.4246e-08 -1.77126e-08 1.72706e-08)
(8.56747e-09 -1.93839e-08 1.78368e-08)
(1.90023e-09 -2.08165e-08 1.82816e-08)
(-4.43203e-09 -2.1013e-08 1.81744e-08)
(-4.65076e-08 -2.09612e-08 1.79217e-08)
(5.90654e-08 -2.13325e-08 2.10313e-08)
(1.0306e-08 -2.50198e-08 2.15638e-08)
(2.76632e-09 -2.70728e-08 2.20154e-08)
(-4.42515e-09 -2.69428e-08 2.19535e-08)
(-4.94494e-08 -2.5155e-08 2.17903e-08)
(6.91293e-08 -2.53591e-08 2.37005e-08)
(1.47015e-08 -3.1343e-08 2.424e-08)
(3.76135e-09 -3.36625e-08 2.47014e-08)
(-6.82231e-09 -3.3545e-08 2.46685e-08)
(-5.7384e-08 -2.97022e-08 2.45431e-08)
(8.68251e-08 -4.37966e-08 2.50192e-08)
(2.18933e-08 -4.84592e-08 2.56191e-08)
(4.84586e-09 -4.91234e-08 2.60996e-08)
(-1.18405e-08 -5.0753e-08 2.60657e-08)
(-7.28079e-08 -4.83532e-08 2.59105e-08)
(7.00529e-08 -9.0887e-08 2.53579e-08)
(2.64259e-08 -1.17241e-07 2.58176e-08)
(5.96694e-09 -1.12481e-07 2.6345e-08)
(-1.41216e-08 -1.18009e-07 2.62498e-08)
(-5.61293e-08 -9.37594e-08 2.61349e-08)
(2.21189e-08 6.90081e-09 5.48621e-10)
(0 0 0)
(0 0 0)
(0 0 0)
(-2.03727e-08 6.34165e-09 5.85019e-10)
(4.6725e-08 7.35688e-09 2.49537e-09)
(5.94901e-09 3.28486e-10 2.70261e-09)
(1.53574e-10 -3.12801e-09 2.82782e-09)
(-5.35765e-09 -2.7325e-10 2.77447e-09)
(-4.2846e-08 5.98298e-09 2.62601e-09)
(4.99392e-08 -4.13682e-09 5.45656e-09)
(7.90574e-09 -6.71609e-09 5.70944e-09)
(5.43944e-10 -8.71834e-09 5.89048e-09)
(-6.49858e-09 -7.67274e-09 5.83788e-09)
(-4.51637e-08 -6.06973e-09 5.69422e-09)
(5.12099e-08 -1.25375e-08 8.57212e-09)
(8.12776e-09 -1.36207e-08 8.80373e-09)
(1.09342e-09 -1.48889e-08 9.00411e-09)
(-5.62188e-09 -1.48996e-08 8.97898e-09)
(-4.52506e-08 -1.50834e-08 8.90301e-09)
(5.32074e-08 -1.80811e-08 1.15016e-08)
(8.48407e-09 -1.97854e-08 1.17001e-08)
(1.78947e-09 -2.12109e-08 1.19065e-08)
(-4.57724e-09 -2.13696e-08 1.19158e-08)
(-4.57341e-08 -2.12355e-08 1.19157e-08)
(5.80798e-08 -2.16427e-08 1.39454e-08)
(1.02415e-08 -2.53364e-08 1.41257e-08)
(2.62991e-09 -2.73801e-08 1.4337e-08)
(-4.63975e-09 -2.72179e-08 1.4376e-08)
(-4.87742e-08 -2.53797e-08 1.44318e-08)
(6.81241e-08 -2.56109e-08 1.56759e-08)
(1.46159e-08 -3.15716e-08 1.58676e-08)
(3.60289e-09 -3.38837e-08 1.60879e-08)
(-7.0589e-09 -3.37367e-08 1.6144e-08)
(-5.6725e-08 -2.98794e-08 1.62191e-08)
(8.57025e-08 -4.38515e-08 1.65745e-08)
(2.17497e-08 -4.85128e-08 1.6811e-08)
(4.6686e-09 -4.91975e-08 1.70457e-08)
(-1.20554e-08 -5.07749e-08 1.70996e-08)
(-7.20571e-08 -4.83441e-08 1.71514e-08)
(6.93227e-08 -9.02719e-08 1.68406e-08)
(2.62657e-08 -1.16225e-07 1.70608e-08)
(5.77375e-09 -1.11551e-07 1.73192e-08)
(-1.43514e-08 -1.16966e-07 1.73394e-08)
(-5.5787e-08 -9.30949e-08 1.73433e-08)
(2.1816e-08 6.8065e-09 2.90118e-10)
(0 0 0)
(0 0 0)
(0 0 0)
(-2.00883e-08 6.26406e-09 3.07466e-10)
(4.61097e-08 7.20786e-09 1.28293e-09)
(5.89132e-09 2.4434e-10 1.36236e-09)
(1.41511e-10 -3.1733e-09 1.41193e-09)
(-5.32897e-09 -3.42041e-10 1.39702e-09)
(-4.22835e-08 5.87498e-09 1.34539e-09)
(4.93379e-08 -4.2338e-09 2.75519e-09)
(7.8486e-09 -6.81096e-09 2.84823e-09)
(5.15715e-10 -8.79416e-09 2.91972e-09)
(-6.50308e-09 -7.74422e-09 2.91036e-09)
(-4.46475e-08 -6.11404e-09 2.86932e-09)
(5.0662e-08 -1.26306e-08 4.28603e-09)
(8.09464e-09 -1.37345e-08 4.36672e-09)
(1.04755e-09 -1.49962e-08 4.44578e-09)
(-5.68501e-09 -1.49866e-08 4.45179e-09)
(-4.48207e-08 -1.5119e-08 4.44577e-09)
(5.27107e-08 -1.81946e-08 5.72279e-09)
(8.47321e-09 -1.9916e-08 5.78797e-09)
(1.72643e-09 -2.13372e-08 5.86969e-09)
(-4.69639e-09 -2.14731e-08 5.89311e-09)
(-4.53869e-08 -2.12922e-08 5.9238e-09)
(5.76072e-08 -2.17841e-08 6.92228e-09)
(1.02379e-08 -2.54777e-08 6.98032e-09)
(2.55125e-09 -2.75144e-08 7.0649e-09)
(-4.79685e-09 -2.73338e-08 7.10268e-09)
(-4.84792e-08 -2.54688e-08 7.15946e-09)
(6.76314e-08 -2.57847e-08 7.77685e-09)
(1.45966e-08 -3.17269e-08 7.8425e-09)
(3.51061e-09 -3.40313e-08 7.93234e-09)
(-7.22702e-09 -3.38694e-08 7.97797e-09)
(-5.64324e-08 -3.00073e-08 8.04277e-09)
(8.51337e-08 -4.3957e-08 8.23738e-09)
(2.16947e-08 -4.86078e-08 8.32602e-09)
(4.56466e-09 -4.9297e-08 8.42345e-09)
(-1.22105e-08 -5.08505e-08 8.46766e-09)
(-7.17052e-08 -4.84101e-08 8.52048e-09)
(6.89565e-08 -9.00217e-08 8.3886e-09)
(2.61943e-08 -1.15745e-07 8.4823e-09)
(5.65999e-09 -1.11109e-07 8.5887e-09)
(-1.45096e-08 -1.16469e-07 8.61888e-09)
(-5.56486e-08 -9.28142e-08 8.6353e-09)
(1.74224e-08 7.10719e-09 0)
(2.08973e-09 1.81279e-09 0)
(-2.36382e-12 -2.92004e-10 0)
(-1.97377e-09 1.61262e-09 0)
(-1.61167e-08 6.52955e-09 0)
(2.87531e-08 5.33475e-09 0)
(5.87454e-09 2.2254e-10 0)
(1.3772e-10 -3.18358e-09 0)
(-5.32134e-09 -3.58831e-10 0)
(-2.64329e-08 4.21991e-09 0)
(3.19063e-08 -4.66554e-09 0)
(7.83261e-09 -6.82975e-09 0)
(5.06736e-10 -8.80749e-09 0)
(-6.50672e-09 -7.75533e-09 0)
(-2.87555e-08 -6.29594e-09 0)
(3.26928e-08 -1.27251e-08 0)
(8.08625e-09 -1.37548e-08 0)
(1.03281e-09 -1.50146e-08 0)
(-5.70755e-09 -1.4998e-08 0)
(-2.84452e-08 -1.4892e-08 0)
(3.39325e-08 -1.85648e-08 0)
(8.47144e-09 -1.99439e-08 0)
(1.706e-09 -2.13637e-08 0)
(-4.73674e-09 -2.1492e-08 0)
(-2.8266e-08 -2.12642e-08 0)
(3.75658e-08 -2.28863e-08 0)
(1.02378e-08 -2.55177e-08 0)
(2.52558e-09 -2.75519e-08 0)
(-4.84913e-09 -2.73654e-08 0)
(-3.01676e-08 -2.61035e-08 0)
(4.5637e-08 -2.79309e-08 0)
(1.45909e-08 -3.17807e-08 0)
(3.48034e-09 -3.4082e-08 0)
(-7.28271e-09 -3.39157e-08 0)
(-3.62424e-08 -3.16324e-08 0)
(5.96534e-08 -4.62584e-08 0)
(2.1677e-08 -4.86477e-08 0)
(4.53044e-09 -4.93372e-08 0)
(-1.22619e-08 -5.08839e-08 0)
(-4.80901e-08 -5.0158e-08 0)
(5.94445e-08 -8.10643e-08 0)
(2.59759e-08 -8.87579e-08 0)
(5.34708e-09 -8.60306e-08 0)
(-1.49206e-08 -9.0217e-08 0)
(-4.70026e-08 -8.40246e-08 0)
)
;

boundaryField
{
    interface
    {
        type            calculated;
    }
    symmetry
    {
        type            symmetry;
    }
    bottom
    {
        type            calculated;
    }
}


// ************************************************************************* //
