/*--------------------------------*- C++ -*----------------------------------*\
| =========                 |                                                 |
| \\      /  F ield         | OpenFOAM: The Open Source CFD Toolbox           |
|  \\    /   O peration     | Version:  v1912                                 |
|   \\  /    A nd           | Website:  www.openfoam.com                      |
|    \\/     M anipulation  |                                                 |
\*---------------------------------------------------------------------------*/
FoamFile
{
    version     2.0;
    format      ascii;
    class       volSymmTensorField;
    location    "0.59/solid";
    object      sigma;
}
// * * * * * * * * * * * * * * * * * * * * * * * * * * * * * * * * * * * * * //

dimensions      [1 -1 -2 0 0 0 0];


internalField   nonuniform List<symmTensor> 
256
(
(-188915 24832.6 -9653.92 425867 27363.7 -202381)
(68245.5 -7735.57 -3993.93 269855 27130.7 -237899)
(69791.7 8810.36 3873.07 267287 27329.9 -233369)
(-164918 -23540.2 9629.13 419023 28103.8 -187280)
(-222213 -832.537 -14508.5 143685 2089.98 -230851)
(-31817.6 -4854.43 -6506.49 76169.3 3521.32 -282270)
(-29213.5 6178.37 6462.55 75170.9 3722.1 -277262)
(-195689 1464.16 14520.2 144149 2759.37 -214569)
(-223663 -4018.27 -15521.8 142844 -1228.51 -231892)
(-43173 -3888.74 -7096.77 47423.8 -922.994 -290652)
(-40595 5013.28 7119.71 46685.5 -787.585 -285504)
(-196798 4472.64 15559.2 143634 -764.729 -215313)
(-222320 -2453.69 -16050.6 161447 132.875 -233098)
(-35111 -2793.88 -7364.59 39769.9 -114.824 -295939)
(-32546 3631.39 7408.29 39146.5 -24.3566 -290686)
(-195040 2809.47 16099 162374 457.725 -216232)
(-229338 -275.171 -16597.3 168316 2739.99 -242148)
(-32626.8 -1380.25 -7659.05 32555.5 2364.75 -308251)
(-30028.3 1956.02 7702.31 31971.2 2431.76 -302912)
(-201596 527.684 16652.2 169395 2984.74 -225004)
(-250870 3691.97 -17079.2 149584 7332.78 -263133)
(-47454.3 1038.97 -7944.88 11576.6 7115.31 -334236)
(-44846.9 -762.163 7985.01 11028.2 7170.07 -328817)
(-222744 -3586.51 17143.7 150859 7529.39 -245685)
(-288276 11406.3 -17013.1 41819.4 14935.7 -297879)
(-83400.2 4997.28 -7944.32 -80412.7 15549.4 -377915)
(-80767 -5186.25 7986.48 -80226.7 15592 -372348)
(-259827 -11520.3 17089.4 44979.7 15084.7 -279932)
(-221965 15821.5 -15756.8 -231607 19169.4 -231421)
(23448.9 7440.84 -7369.76 -309931 20616.3 -309617)
(26091.3 -7377.03 7403.39 -304524 20647.4 -304224)
(-193629 -15832.8 15825.4 -214215 19270.5 -214122)
(-222335 15118.5 -7212.85 211692 -4149.49 50705.4)
(-33874 -9846.01 -2084.44 49321.5 7820.71 -39609.5)
(-32629.2 10572.2 2389.8 46587.4 8504.46 -39954.5)
(-198729 -13983.9 7359.94 204936 -2080.08 52423.8)
(-260395 -2379.22 -10874.5 54273.4 1855.09 -21949.5)
(-125744 -5295 -4225.68 -40480.8 7979.9 -126981)
(-123240 6059.14 4719.89 -41796.5 8413.77 -126622)
(-234149 2737.8 11091.8 54138.5 3240.7 -18271.4)
(-266791 -4162.76 -11306.9 40490.9 1853.68 -29689.9)
(-145287 -3924.54 -4551.92 -81197.6 3804.56 -148510)
(-142751 4465 5120.67 -81987.3 4108.72 -148154)
(-240107 4352.41 11547.3 41246.1 2863.91 -26209.1)
(-269486 -2599.03 -11423.7 41379.7 2417.15 -27306.5)
(-145005 -2840.61 -4538.84 -105307 2809.47 -154462)
(-142466 3182.05 5132.75 -105892 3037.2 -154149)
(-242327 2742.89 11675.5 42460.1 3187.01 -23997.8)
(-279813 -486.035 -11686.7 39820.9 5864.69 -29096.1)
(-148334 -1509.78 -4673.68 -121680 5804.39 -162304)
(-145752 1689.13 5267.62 -122226 5982.21 -162027)
(-252091 577.376 11946 41040.6 6464.13 -25863.7)
(-305997 3600.15 -11922.6 23290.6 11378.2 -41518.1)
(-168735 889.759 -4863.78 -141533 11224.1 -181340)
(-166137 -917.991 5448.2 -142065 11362.5 -181107)
(-277729 -3614.57 12190.2 24646.2 11840.7 -38323.1)
(-351968 11893.9 -11817.7 -66604.3 15904.7 -67514.1)
(-210765 5015.3 -4896.1 -214321 15970 -214711)
(-208139 -5402.9 5451.73 -214126 16061 -214441)
(-323214 -12091 12085.6 -63386.6 16214.9 -64123.6)
(-288566 17050.8 -11290.5 -298062 15047.9 41577.1)
(-83364.9 7983.94 -4815.3 -378138 15637.4 -80036.6)
(-80693.9 -7968.8 5273.51 -372508 15676.7 -79744.5)
(-259873 -17093.4 11517.1 -279890 15181.1 44976.1)
(-194942 8743.31 -2913.08 150483 8441.64 97162.8)
(-31140.8 -12469.7 -235.614 2275.48 19377 -984.04)
(-29877.7 12770.5 458.462 -213.132 19867.6 -1666.34)
(-171794 -7814.11 2979.32 144720 9954.43 98188.8)
(-216702 -3110.92 -4178.68 48992.1 11315.4 63405.5)
(-90574.6 -5830.73 -954.708 -44692.3 16819 -55404.9)
(-88161.3 6273.84 1310.85 -46062.5 17223.8 -55612.1)
(-191181 3340.86 4301.54 48689 12587.5 65772.3)
(-221105 -3951.58 -4031.4 47558.6 9895.03 52889.5)
(-104941 -3860.78 -952.099 -70619 11707.7 -80578.1)
(-102499 4125.37 1328.3 -71511.9 12039.2 -80810.5)
(-195167 4030.34 4167.51 47962.8 10948.7 54965.9)
(-224025 -2538.87 -3823.02 51159.3 8885.28 51424.1)
(-104901 -2836.87 -790.371 -89338 9277.61 -91052.6)
(-102449 2945.08 1159.74 -90018.8 9551.24 -91351.6)
(-197588 2590.72 3959.74 51892.6 9757.91 53243.6)
(-234195 -527.47 -3768.19 52363.5 10368.1 48701.8)
(-108328 -1621.31 -754.911 -102057 10349.4 -100751)
(-105817 1616.97 1112.15 -102685 10575 -101110)
(-207111 550.517 3904.48 53266.7 11082.8 50369)
(-259899 3639.59 -3738.97 41943.2 12731.9 38133.5)
(-127746 782.764 -801.223 -115581 12600.6 -118692)
(-125191 -940.981 1141.56 -116177 12779.3 -119107)
(-232099 -3697.57 3875.56 43026.7 13295 39727.1)
(-306073 11993.8 -3675.23 -39603.7 12158 21461.1)
(-168070 4958.62 -873.244 -179780 11964.2 -142490)
(-165448 -5421.61 1166.17 -179623 12083.3 -142854)
(-277527 -12211.6 3801.93 -36584.9 12541.6 23284.5)
(-251188 17109.6 -3703.41 -263157 7780.74 149715)
(-46675.2 7968.16 -940.671 -334171 7532.89 12658.5)
(-44005.2 -7969.59 1091.42 -328637 7576.02 12328.9)
(-222533 -17153.7 3777.09 -245332 7926.14 151559)
(-177259 6156.71 -811.925 126267 12456.6 94349.1)
(-27628.4 -13272.6 548.957 -11518.9 18977.1 -1230.35)
(-26370.7 13269.3 -365.54 -13770.9 19322.1 -1787.68)
(-154521 -5407.65 851.923 121415 13535.9 95795.6)
(-191805 -3204.02 -970.239 40793.9 14991 77434.3)
(-73397.7 -5920.92 675.475 -49952.1 18271.2 -40372.8)
(-71034.9 6146.49 -376.333 -51190.7 18592.1 -40485.3)
(-166844 3346.68 1052.93 40796.7 15991.3 80070.6)
(-194888 -3608.46 -663.63 46544.2 14092.6 67455.7)
(-84163.8 -3693.03 848.068 -67056.4 15145.7 -64458.6)
(-81767.8 3801.9 -546.508 -67899.7 15433.9 -64596)
(-169527 3630.08 754.177 47009.4 14990 69785.5)
(-197920 -2321.12 -390.728 55834.4 12560.9 61932.7)
(-83898.3 -2725.52 1027.16 -78267.4 12718.8 -78623.7)
(-81484.1 2719.76 -749.194 -78931.6 12972.9 -78827.4)
(-172041 2330.47 476.041 56538 13351.1 63993.8)
(-208152 -425.317 -238.854 61284.9 11890.7 56506.9)
(-87464.7 -1613.12 1112.53 -85970.7 11814.6 -91047.5)
(-84983.4 1528.45 -857.429 -86584.9 12032.5 -91316.4)
(-181573 419.82 317.917 62144.8 12564.9 58391.6)
(-233599 3668.14 -167.15 53514.6 11006.6 47034.5)
(-106488 712.369 1105.78 -96813.5 10909.5 -108007)
(-103946 -920.931 -875.93 -97387.3 11084.7 -108333)
(-206188 -3739.99 240.112 54580.4 11548.2 48837.6)
(-279141 11785.7 -203.342 -25973.5 7725.25 37590.2)
(-145478 4754.96 1000.52 -159638 7570.89 -124524)
(-142841 -5245.96 -827.11 -159450 7687.54 -124788)
(-250796 -12005.2 259.961 -22938.6 8095.39 39640.7)
(-228595 16663.7 -347.431 -241649 3780.15 171136)
(-28958.9 7684.47 938.234 -307593 3417.55 34763.3)
(-26262.7 -7698.56 -909.108 -302076 3456.05 34533.6)
(-199961 -16706.7 349.341 -223929 3910.55 173187)
(-167503 5365.27 -168.024 115090 11636.4 87926.3)
(-26855.1 -13113.2 571.339 -16644.9 14907.3 -3415.74)
(-25617.2 12924.7 -426.546 -18718.8 15151.7 -3870.33)
(-145047 -4740.21 200.656 110936 12398.9 89714.8)
(-179829 -3048.4 -27.7046 34664.5 13778.3 75876.9)
(-67992.5 -5757.26 902.597 -53350.9 15381.1 -36317)
(-65686.8 5841 -656.377 -54467.2 15618.4 -36319.6)
(-155253 3131.27 95.8437 34996.8 14513.4 78826)
(-182532 -3317.45 232.619 42693.3 13758.8 67399.1)
(-77322.5 -3523.9 1086.7 -67133.4 14213.7 -57922.4)
(-74980.4 3532.85 -836.699 -67915.3 14436.6 -57948.1)
(-157564 3303.23 -158.181 43310.6 14447.8 70039.4)
(-185734 -2114.82 443.009 55208.8 12494.1 60525.7)
(-77036.4 -2612.75 1218.17 -74064 12490.5 -72913.7)
(-74670.5 2540.54 -992.799 -74702.8 12694.9 -73004.3)
(-160234 2100.45 -374.912 55968.3 13125.5 62895.3)
(-196096 -316.891 570.477 63337.6 10827.5 54002.9)
(-80783 -1577.48 1282.69 -78600.4 10744.5 -86210.5)
(-78344.4 1451.13 -1083.87 -79203.4 10924.8 -86367.3)
(-169857 297.268 -510.806 64215.3 11382.5 56188.7)
(-221381 3655.43 613.695 56560.4 8441.52 45843.6)
(-99633.8 653.221 1272.21 -88506.2 8415.17 -101805)
(-97124.5 -885.882 -1102.74 -89070.6 8561.92 -102018)
(-194240 -3732.86 -563.24 57640.4 8894.82 47942.5)
(-266268 11534.5 541.333 -21806.2 4747.13 40238.6)
(-137801 4556.28 1175.62 -150947 4720.61 -114605)
(-135179 -5062.4 -1060.99 -150748 4818.27 -114751)
(-238080 -11754.1 -509.008 -18749.6 5058.48 42586.2)
(-217934 16231.2 406.628 -230587 2001.81 172816)
(-24686.6 7424.05 1126.36 -293785 1776.8 42488)
(-21993.9 -7449.8 -1135.49 -288271 1808.3 42376.9)
(-189330 -16275.9 -423.172 -212893 2109.03 175143)
(-161783 5167.28 -40.2812 109742 9059.56 83894.7)
(-26941.2 -12783.6 369.251 -18877.1 10597.6 -4599.87)
(-25716.7 12486.3 -265.821 -20824 10761.5 -4989.67)
(-139484 -4619.54 65.759 106088 9565.98 85917.8)
(-173512 -2876.96 93.0253 31638.1 10488 73001.5)
(-66566.6 -5576.65 621.263 -54705.9 11195 -34863.5)
(-64302.6 5573.12 -439.032 -55732.5 11357.2 -34793)
(-149159 2922.25 -39.4127 32235.4 10986.8 76186.1)
(-176214 -3123.93 260.542 40162.5 10781 65755.1)
(-75494.6 -3406.04 748.741 -67345.7 10934.1 -54467.4)
(-73193 3350.2 -559.759 -68078.6 11089.7 -54417.8)
(-151474 3086.47 -201.253 40927.7 11260.7 68635.6)
(-179564 -1978.57 389.651 53787 9937.28 59172.4)
(-75305.1 -2542.24 825.528 -72595.8 9885.2 -68818)
(-72976.2 2426.14 -655.012 -73213.2 10031.2 -68832.8)
(-154281 1948.81 -335.357 54620.4 10387.9 61781.9)
(-190007 -248.633 466.97 62996.1 8291.96 52854.1)
(-79181.3 -1556.93 858.509 -75788.5 8239.28 -81768.9)
(-76776.4 1403.02 -711.074 -76384.7 8370.38 -81850.2)
(-163958 219.863 -420.358 63908 8696.22 55276.1)
(-215147 3629.09 484.442 56636.9 5915.09 45729)
(-97918.8 608.273 843.959 -85339.1 5940.97 -96328.1)
(-95437.5 -857.612 -722.984 -85902.8 6048.82 -96466.1)
(-188155 -3710.59 -446.787 57735.3 6249.93 48059)
(-259522 11353.8 423.608 -20611.2 2956.5 41625)
(-135586 4427.34 777.291 -147158 3012.5 -107768)
(-132982 -4945.29 -700.996 -146958 3084.53 -107836)
(-231415 -11574.6 -401.622 -17538.5 3188.27 44199.2)
(-212327 15949.3 324.053 -224208 1153.22 172100)
(-24478.1 7262.62 737.917 -285961 1062.2 46590.9)
(-21793.8 -7298.24 -754.97 -280449 1085.47 46557.9)
(-183725 -15997.2 -339.964 -206519 1232.88 174636)
(-158441 5112.56 -23.156 107272 5687.79 81829.4)
(-27080.1 -12555 185.423 -19848.7 6370.8 -5227.37)
(-25862 12197.4 -123.589 -21713.6 6465.23 -5578.1)
(-136222 -4609.06 39.2958 103937 5976.63 84000.8)
(-170003 -2768.14 44.5998 30431.7 6456.53 71168.7)
(-66187.7 -5463.02 316.613 -55111.2 6746.99 -34421.6)
(-63947.6 5410.15 -205.103 -56079.2 6841.2 -34306.5)
(-145767 2792.12 -10.297 31211.1 6744.67 74509.9)
(-172776 -3015.98 130.649 38993.8 6695.37 64689.5)
(-75049.9 -3341.81 383.054 -67346 6736.06 -52831.6)
(-72771.9 3247.22 -265.338 -68045.2 6827.56 -52735.5)
(-148155 2964.66 -92.1877 39870.3 6976.69 67734.2)
(-176220 -1904.94 196.108 52806.9 6217.9 58781.8)
(-74956.9 -2508.43 419.819 -72114.3 6176.73 -66338.3)
(-72649.5 2364.33 -312.849 -72715.7 6263.62 -66306.2)
(-151050 1865.36 -160.585 53703.5 6486.2 61556)
(-186693 -214.752 233.933 62280.2 5112.98 53041)
(-78901.9 -1550.7 432.693 -74913.5 5090.68 -78665.2)
(-76516.6 1377.96 -340.855 -75504.5 5169.55 -78700.1)
(-160743 179.654 -203.563 63225.1 5356.8 55624.8)
(-211722 3608.38 239.344 56109.1 3514.56 46557.9)
(-97561.7 580.782 421.538 -84315.2 3551.34 -92611.9)
(-95096.7 -842.507 -347.642 -84879 3616.72 -92704)
(-184806 -3693.27 -215.228 57224.9 3718.55 49044.9)
(-255763 11251.5 203.597 -20254.1 1684.5 42906.3)
(-134939 4360.89 385.284 -145511 1750.06 -103685)
(-132345 -4887.98 -340.257 -145313 1793.93 -103707)
(-227691 -11474.1 -189.873 -17168.5 1826.68 45632.6)
(-209132 15798.3 143.489 -220480 629.95 171781)
(-24872.8 7181.04 358.608 -281522 607.532 48833.8)
(-22193.4 -7223.86 -371.384 -276010 621.763 48847.7)
(-180518 -15849.1 -153.576 -202787 678.939 174456)
(-156870 5091.01 -9.43546 106315 1934.03 80983.6)
(-27132.2 -12451.9 54.7566 -20197.1 2130.52 -5512.55)
(-25916.5 12067.6 -34.1973 -22021.8 2161.35 -5844.56)
(-134684 -4607.59 14.9289 103135 2027.83 83226.9)
(-168374 -2721.25 9.10946 30053.1 2172.52 70369.6)
(-66058.8 -5414.17 93.2301 -55191.8 2252.08 -34338)
(-63829.4 5339.18 -55.731 -56130.6 2282.96 -34201.5)
(-144189 2735.67 2.64577 30924.7 2266.65 73788.8)
(-171190 -2969.87 34.7438 38584.2 2255.46 64253.3)
(-74922.4 -3315.65 112.972 -67294.6 2262.81 -52215.4)
(-72654.9 3203.03 -73.0076 -67976.6 2292.96 -52096.6)
(-146620 2912.13 -21.4553 39519.5 2348.05 67381.3)
(-174677 -1874.07 54.3471 52363.1 2100.07 58783.1)
(-74880.8 -2496.04 123.528 -71972.8 2085.89 -65224.4)
(-72583 2338.2 -87.025 -72565.6 2114.68 -65169.6)
(-149554 1829.67 -42.0023 53295.1 2189.01 61641.6)
(-185157 -201.505 65.4009 61850.4 1719.02 53432.7)
(-78852.9 -1549.97 126.642 -74705 1713.78 -77154.5)
(-76476.3 1367.42 -95.3482 -75292.9 1740.05 -77166.9)
(-159249 163.071 -54.8451 62815.1 1800.36 56099.1)
(-210127 3598.19 66.5033 55750.8 1167.98 47249.8)
(-97472.7 568.474 122.654 -84051.4 1183.92 -90822.9)
(-95014.9 -837.016 -97.6563 -84615.2 1205.78 -90892.9)
(-183241 -3685.06 -58.1655 56877.5 1236.38 49816.6)
(-254005 11207.4 55.0929 -20145.6 554.88 43700.3)
(-134715 4334.48 111.42 -144886 581.874 -101829)
(-132126 -4866.64 -96.3724 -144689 596.584 -101829)
(-225945 -11431.2 -50.37 -17052.4 602.735 46503.5)
(-207607 15735.1 35.047 -218727 203.564 171779)
(-25083.7 7148.61 101.906 -279480 201.415 49826.2)
(-22406.2 -7195.25 -106.411 -273968 206.197 49862.5)
(-178982 -15787.6 -38.424 -201030 220.078 174525)
)
;

boundaryField
{
    interface
    {
        type            calculated;
        value           nonuniform List<symmTensor> 
192
(
(-44.3282 0.353759 2.88972 905874 27363.7 277626)
(-46.1368 0.270488 4.63021 604466 2089.98 229930)
(-47.6049 -0.0392193 5.19322 610105 -1228.51 235368)
(-48.5084 -0.466145 5.31265 639354 132.875 244808)
(-48.7231 -0.831099 5.23134 665510 2739.99 255045)
(-49.5671 -1.48701 5.07124 680164 7332.78 267448)
(-47.9454 -1.979 4.65908 617510 14935.7 277812)
(-51.4542 -4.38126 4.33566 291819 19169.4 292006)
(-43.1604 0.251688 1.42414 684352 -4149.49 523366)
(-44.0116 0.186222 2.4493 527694 1855.09 451471)
(-44.8885 -0.0934563 2.71812 523923 1853.68 453743)
(-45.4975 -0.531373 2.72315 537724 2417.15 469037)
(-45.4807 -0.920132 2.6139 558165 5864.69 489248)
(-46.2344 -1.64636 2.46132 580428 11378.2 515619)
(-44.3444 -2.19285 2.19547 547411 15904.7 546501)
(-47.9874 -4.71936 1.98054 278068 15047.9 617707)
(-45.7894 0.214803 1.1228 569916 8441.64 516596)
(-46.5425 0.145406 1.90942 466037 11315.4 480450)
(-47.4089 -0.131432 2.11156 473516 9895.03 478846)
(-48.0299 -0.595403 2.11013 489724 8885.28 489989)
(-47.924 -1.02421 2.02126 512607 10368.1 508946)
(-48.587 -1.83302 1.89794 540937 12731.9 537127)
(-46.2415 -2.46126 1.70303 517974 12158 579039)
(-49.6536 -5.16081 1.53648 268289 7780.74 681161)
(-45.99 0.161533 0.688365 510871 12456.6 478953)
(-46.5527 0.0720717 1.23757 420745 14991 457385)
(-47.235 -0.205599 1.37147 434591 14092.6 455502)
(-47.7516 -0.677917 1.3578 456311 12560.9 462409)
(-47.5351 -1.12534 1.28385 483297 11890.7 478519)
(-48.126 -1.97082 1.18879 514049 11006.6 507569)
(-45.6209 -2.63602 1.06306 493061 7725.25 556624)
(-48.9775 -5.3813 0.960133 256545 3780.15 669329)
(-46.7809 0.136214 0.50384 479121 11636.4 451958)
(-47.2861 0.0271369 0.906221 393454 13778.3 434667)
(-47.8877 -0.259749 1.00503 409294 13758.8 434000)
(-48.3563 -0.743479 0.994888 434214 12494.1 439531)
(-48.0653 -1.21001 0.940318 463851 10827.5 454516)
(-48.5819 -2.08685 0.869492 495391 8441.52 484675)
(-45.9015 -2.78594 0.780761 475051 4747.13 537096)
(-49.1217 -5.57644 0.705967 247692 2001.81 651095)
(-46.9861 0.116437 0.308388 461448 9059.56 435600)
(-47.4404 -0.0088603 0.57305 378061 10488 419425)
(-47.9708 -0.303856 0.638472 394341 10781 419934)
(-48.3932 -0.794479 0.630305 420388 9937.28 425774)
(-48.049 -1.27191 0.592782 451088 8291.96 440946)
(-48.5214 -2.16499 0.545072 482858 5915.09 471950)
(-45.7581 -2.882 0.489735 463153 2956.5 525390)
(-48.9271 -5.69578 0.444458 241948 1153.22 638256)
(-47.2453 0.106852 0.181033 451864 5687.79 426422)
(-47.6811 -0.0295525 0.335984 369793 6456.53 410530)
(-48.1741 -0.331647 0.374591 386115 6695.37 411811)
(-48.571 -0.827921 0.369957 412368 6217.9 418343)
(-48.1927 -1.31355 0.348221 443311 5112.98 434071)
(-48.6309 -2.21788 0.320003 475123 3514.56 465572)
(-45.8025 -2.94756 0.288496 455947 1684.5 519107)
(-48.9211 -5.77854 0.261357 238516 629.95 630777)
(-47.308 0.100829 0.0536867 447623 1934.03 422292)
(-47.7309 -0.0412107 0.103274 366161 2172.52 406478)
(-48.2029 -0.346344 0.115778 382461 2255.46 408130)
(-48.5857 -0.844555 0.114074 408687 2100.07 415107)
(-48.1928 -1.33358 0.106981 439629 1719.02 431211)
(-48.6152 -2.24214 0.0977647 471435 1167.98 462934)
(-45.7671 -2.97765 0.0882701 452541 554.88 516386)
(-48.8602 -5.81588 0.0796831 236899 203.564 627405)
(315956 24832.6 -4.10877 930738 -0.942845 -16.761)
(260566 -832.537 -6.90847 626463 -1.07314 -12.39)
(265783 -4018.27 -7.91511 632291 -0.85582 -8.65028)
(279028 -2453.69 -8.22226 662795 -0.605955 -7.34974)
(292252 -275.171 -8.28915 689906 -0.504002 -7.27415)
(304080 3691.97 -8.3468 704535 -0.545238 -8.16931)
(311337 11406.3 -8.43661 641432 -0.672152 -10.2419)
(325649 15821.5 -9.18607 316007 -0.887486 -12.0269)
(582495 -7735.57 -2.51106 784105 -0.554611 -21.2569)
(483711 -4854.43 -4.7524 591698 -0.777646 -20.267)
(483458 -3888.74 -5.4866 574054 -0.621718 -19.0496)
(505669 -2793.88 -5.67245 580550 -0.353146 -18.7054)
(531011 -1380.25 -5.71324 596194 -0.185698 -18.7094)
(554901 1038.97 -5.80853 613932 -0.101395 -19.0778)
(574940 4997.28 -6.06848 577928 -0.118372 -19.7675)
(639155 7440.84 -7.07491 305775 -0.203845 -20.2265)
(575399 8810.36 -2.56161 772894 -0.38844 -18.3438)
(477254 6178.37 -4.88234 581638 -0.589297 -17.5856)
(476616 5013.28 -5.67801 563897 -0.461284 -16.4619)
(498570 3631.39 -5.88931 570263 -0.182325 -16.109)
(523775 1956.02 -5.92265 585774 0.0258504 -16.1337)
(547510 -762.163 -5.97875 603385 0.193616 -16.4865)
(567342 -5186.25 -6.16877 567882 0.287608 -17.2481)
(631873 -7377.03 -7.1175 301258 0.295656 -18.125)
(313075 -23540.2 -2.9139 897015 -0.308259 -18.7927)
(259400 1464.16 -5.6717 599238 -0.474456 -18.3375)
(264049 4472.64 -6.67715 604482 -0.345957 -17.3941)
(277026 2809.47 -6.96062 634440 -0.0542083 -17.1575)
(290184 527.684 -7.00007 661175 0.167742 -17.2515)
(301866 -3586.51 -7.06351 675469 0.375097 -17.5368)
(308726 -11520.3 -7.18241 613532 0.532173 -18.0787)
(324068 -15832.8 -8.15756 303481 0.68495 -18.7454)
(-9.02682 0.864907 0.935086 856533 28103.8 250229)
(-5.8195 0.954066 1.78617 560112 2759.37 201394)
(-3.06835 0.533341 2.04017 565264 -764.729 206317)
(-1.84281 -0.0406839 2.12891 593788 457.725 215181)
(-1.58938 -0.337276 2.17053 619288 2984.74 224890)
(-0.350061 -0.757532 2.366 633497 7529.39 236953)
(-1.27877 -0.725799 2.49855 572322 15084.7 247410)
(7.48582 -2.95821 3.04368 261096 19270.5 261190)
(-14.0967 0.343623 -0.223472 635339 -2080.08 482827)
(-13.4364 0.39166 -0.076943 483242 3240.7 410832)
(-12.6421 0.16282 -0.114122 479458 2863.91 412003)
(-12.1045 -0.188357 -0.12412 492609 3187.01 426151)
(-12.0006 -0.299531 -0.0751122 512172 6464.13 445268)
(-10.4458 -0.571903 0.143467 533591 11840.7 470622)
(-10.6493 -0.301885 0.40697 501674 16214.9 500937)
(-1.23157 -2.42955 0.856488 247508 15181.1 572374)
(-14.3431 0.186881 -0.0407054 522957 9954.43 476425)
(-13.8584 0.177253 0.200596 422643 12587.5 439726)
(-13.2271 0.0302931 0.276628 429927 10948.7 436930)
(-12.6085 -0.213587 0.322699 445440 9757.91 446791)
(-12.39 -0.21847 0.385447 467331 11082.8 464433)
(-10.4404 -0.412444 0.552484 494571 13295 491271)
(-10.3156 -0.030576 0.720377 472330 12541.6 532200)
(-0.107669 -2.29309 0.956348 237312 7926.14 634202)
(-15.8716 0.0853575 -0.0925402 465756 13535.9 440137)
(-15.6401 0.0349939 0.111991 378691 15991.3 417965)
(-15.3082 -0.0575986 0.195164 392110 14990 414887)
(-14.7285 -0.214702 0.241915 413012 13351.1 420468)
(-14.4481 -0.127734 0.294897 438899 12564.9 435145)
(-12.1896 -0.249013 0.415429 468391 11548.2 462648)
(-11.6872 0.212967 0.527471 447838 8095.39 510418)
(-0.998042 -2.09497 0.666653 225504 3910.55 622620)
(-16.142 0.0685686 0.0145234 435345 12398.9 414123)
(-15.907 0.00299725 0.218016 352438 14513.4 396267)
(-15.5931 -0.0697006 0.313983 367682 14447.8 394411)
(-14.946 -0.193348 0.363035 391663 13125.5 398590)
(-14.5916 -0.0637319 0.40248 420092 11382.5 412066)
(-12.1555 -0.156637 0.475044 450249 8894.82 440551)
(-11.5043 0.331691 0.527184 430158 5058.48 491494)
(-0.550927 -2.04744 0.583553 216682 2109.03 604718)
(-16.6048 0.0622794 0.00810557 418547 9565.98 398377)
(-16.3804 -0.00824117 0.155735 337728 10986.8 381679)
(-16.0842 -0.0692398 0.229829 353299 11260.7 381007)
(-15.3976 -0.173308 0.266541 378314 10387.9 385475)
(-14.9845 -0.0159654 0.293492 407720 8696.22 399088)
(-12.421 -0.0900934 0.33866 438015 6249.93 428339)
(-11.6517 0.413432 0.367586 418438 3188.27 480176)
(-0.500662 -2.00679 0.396747 210938 1232.88 592092)
(-16.7223 0.064735 0.0221598 409489 5976.63 389553)
(-16.4845 -0.00626976 0.116039 329871 6744.67 373169)
(-16.1757 -0.0623588 0.163436 345413 6976.69 373277)
(-15.4547 -0.158959 0.186208 370574 6486.2 378427)
(-15.0045 0.0106535 0.201645 400167 5356.8 392567)
(-12.3697 -0.0566066 0.224686 430449 3718.55 422269)
(-11.5488 0.45204 0.237144 411324 1826.68 474125)
(-0.286259 -1.99877 0.247024 207497 678.939 584740)
(-16.8352 0.0648506 0.00276789 405493 2027.83 385585)
(-16.5963 -0.00586004 0.0326221 326432 2266.65 369296)
(-16.2839 -0.059047 0.0482694 341918 2348.05 369780)
(-15.5484 -0.15159 0.0557739 367024 2189.01 375370)
(-15.0781 0.0241381 0.061096 396588 1800.36 389872)
(-12.4076 -0.039075 0.0687186 426835 1236.38 419774)
(-11.5513 0.471943 0.0734785 407956 602.735 471511)
(-0.237573 -1.9922 0.0767663 205871 220.078 581426)
(326101 9.25565 -15756.8 -11.5727 -0.778179 316645)
(311767 8.5323 -11290.5 -9.55342 -0.559456 641910)
(304787 8.4862 -3703.41 -6.99077 -0.384539 705691)
(294350 8.49621 -347.431 -5.37088 -0.249348 694081)
(284824 8.56944 406.628 -4.11785 -0.180091 675573)
(277875 8.6155 324.053 -3.2372 -0.111013 662302)
(273593 8.65575 143.489 -2.67822 -0.0673474 654506)
(271599 8.67327 35.047 -2.40933 -0.0202264 650984)
(639599 7.11836 -7369.76 -19.8566 -0.073627 306533)
(575600 6.11463 -4815.3 -19.2759 0.0175382 578928)
(556489 5.86063 -940.671 -18.2811 0.0904687 615823)
(535704 5.77055 938.234 -17.5472 0.101869 599426)
(517296 5.75872 1126.36 -16.9235 0.0879103 584470)
(503791 5.75007 737.917 -16.468 0.0683869 574860)
(495391 5.75411 358.608 -16.1693 0.0410086 569097)
(491454 5.75471 101.906 -16.0131 0.0149592 566364)
(632253 7.15897 7403.39 -17.7729 0.438069 301938)
(567905 6.20231 5273.51 -16.7699 0.437376 568854)
(548936 6.01197 1091.42 -15.7078 0.400396 605270)
(528225 5.9653 -909.108 -14.9891 0.324738 589021)
(509825 5.9778 -1135.49 -14.3532 0.253411 574195)
(496314 5.98337 -754.97 -13.9288 0.177525 564665)
(487908 5.99484 -371.384 -13.6353 0.105526 558949)
(483968 5.99813 -106.411 -13.5004 0.0348316 556237)
(324287 8.17336 15825.4 -18.4308 0.829212 303793)
(308964 7.18774 11517.1 -17.6677 0.684145 613814)
(302404 7.06465 3777.09 -16.9039 0.577124 676495)
(292125 7.01668 349.341 -16.3708 0.451395 665274)
(282614 7.04643 -423.172 -15.8454 0.350021 647088)
(275670 7.05788 -339.964 -15.5213 0.241367 634031)
(271395 7.07663 -153.576 -15.2811 0.144818 626369)
(269406 7.08293 -38.424 -15.1722 0.0472553 622913)
)
;
    }
    symmetry
    {
        type            symmetry;
    }
    bottom
    {
        type            calculated;
        value           nonuniform List<symmTensor> 
32
(
(-735583 75872.5 -9653.92 121469 72176.1 -749049)
(-507365 50839.8 -7212.85 41586.9 -12070.6 -234325)
(-428420 34654.7 -2913.08 3606.08 834.899 -136314)
(-392585 27804.5 -811.925 -8582.62 8407.95 -120977)
(-373692 25307 -168.024 -13490 9627.21 -118263)
(-362941 24351.9 -40.2812 -15717.4 8075.17 -117263)
(-356836 23920.5 -23.156 -16580.9 5239.65 -116566)
(-354021 23733.7 -9.43546 -16829.2 1805.42 -116167)
(-240916 -6685.24 -3993.93 92447.9 65582.5 -547061)
(-102456 -10994.1 -2084.44 5385.58 1698.89 -108192)
(-66926.5 -15369 -235.614 -23454.6 14245.7 -36769.8)
(-56676.4 -16727.5 548.957 -28966.5 16447.3 -30278.3)
(-53718.1 -16605.5 571.339 -30861.7 13653 -30278.7)
(-53064.5 -16210.5 369.251 -32273.1 9966.05 -30723.2)
(-52937.1 -15931.9 185.423 -33114.4 6079.43 -31084.3)
(-52893.1 -15806.2 54.7566 -33458.6 2047.04 -31273.5)
(-236667 6774.65 3873.07 91669.7 65591.4 -539828)
(-100976 10695.3 2389.8 2502.85 2505.32 -108301)
(-65581.8 14623.7 458.462 -26104 14815.5 -37370.5)
(-55359.2 15709.5 -365.54 -31376.2 16837.8 -30776.2)
(-52435.8 15443.4 -426.546 -33098.4 13926 -30689)
(-51805.1 14973.4 -265.821 -34384.6 10148.2 -31078.1)
(-51689.5 14657.2 -123.589 -35144.2 6184.11 -31405.6)
(-51650.5 14516.2 -34.1973 -35448.4 2081.18 -31578.6)
(-697639 -74067.7 9629.13 123163 72554.1 -720002)
(-476844 -49148.5 7359.94 37890 -9641.28 -225692)
(-398747 -33240.9 2979.32 1153.5 2570.67 -128764)
(-363439 -26635.8 851.923 -9950.7 9620.3 -113123)
(-344930 -24298.2 200.656 -14073.8 10474.4 -110168)
(-334399 -23437.6 65.759 -15742.4 8634.93 -108997)
(-328411 -23058.1 39.2958 -16250.3 5558.15 -108188)
(-325645 -22894.5 14.9289 -16326.5 1908.75 -107734)
)
;
    }
}


// ************************************************************************* //
