/*--------------------------------*- C++ -*----------------------------------*\
| =========                 |                                                 |
| \\      /  F ield         | OpenFOAM: The Open Source CFD Toolbox           |
|  \\    /   O peration     | Version:  v1912                                 |
|   \\  /    A nd           | Website:  www.openfoam.com                      |
|    \\/     M anipulation  |                                                 |
\*---------------------------------------------------------------------------*/
FoamFile
{
    version     2.0;
    format      ascii;
    class       volScalarField;
    location    "0.59/solid";
    object      T;
}
// * * * * * * * * * * * * * * * * * * * * * * * * * * * * * * * * * * * * * //

dimensions      [0 0 0 1 0 0 0];


internalField   nonuniform List<scalar> 
256
(
291.543
292.184
292.191
291.579
291.197
291.972
291.98
291.239
291.145
291.942
291.95
291.189
291.108
291.921
291.93
291.153
291.051
291.889
291.898
291.097
290.948
291.824
291.834
290.994
290.676
291.606
291.616
290.724
289.6
290.548
290.566
289.668
292.258
292.826
292.827
292.277
292.063
292.766
292.767
292.085
292.034
292.758
292.759
292.057
292.014
292.754
292.755
292.038
291.982
292.747
292.749
292.006
291.918
292.725
292.727
291.943
291.704
292.58
292.582
291.731
290.675
291.606
291.616
290.724
292.403
292.913
292.914
292.421
292.248
292.883
292.883
292.268
292.224
292.878
292.879
292.245
292.206
292.876
292.877
292.227
292.177
292.872
292.873
292.2
292.118
292.856
292.856
292.141
291.918
292.725
292.727
291.943
290.947
291.824
291.833
290.994
292.449
292.925
292.925
292.466
292.304
292.898
292.898
292.323
292.281
292.894
292.894
292.301
292.264
292.892
292.892
292.284
292.235
292.888
292.889
292.257
292.177
292.872
292.873
292.2
291.981
292.747
292.749
292.006
291.049
291.888
291.898
291.097
292.471
292.927
292.928
292.488
292.331
292.901
292.902
292.35
292.309
292.898
292.898
292.328
292.292
292.896
292.896
292.311
292.263
292.892
292.892
292.284
292.205
292.876
292.877
292.227
292.013
292.754
292.755
292.037
291.105
291.92
291.929
291.152
292.484
292.929
292.929
292.501
292.347
292.903
292.903
292.365
292.325
292.899
292.9
292.343
292.307
292.897
292.898
292.327
292.279
292.894
292.894
292.299
292.221
292.878
292.879
292.243
292.031
292.757
292.759
292.055
291.138
291.938
291.947
291.185
292.491
292.929
292.93
292.508
292.356
292.904
292.904
292.373
292.334
292.9
292.901
292.352
292.316
292.898
292.899
292.335
292.288
292.895
292.895
292.308
292.23
292.879
292.88
292.252
292.041
292.759
292.761
292.065
291.157
291.948
291.957
291.204
292.495
292.93
292.93
292.511
292.359
292.904
292.905
292.377
292.338
292.901
292.901
292.356
292.32
292.899
292.899
292.339
292.292
292.895
292.895
292.312
292.234
292.88
292.88
292.256
292.045
292.76
292.762
292.07
291.165
291.953
291.962
291.213
)
;

boundaryField
{
    interface
    {
        type            fixedValue;
        value           nonuniform List<scalar> 
192
(
290.146
289.913
289.84
289.763
289.649
289.461
289.085
288.093
290.936
290.794
290.739
290.677
290.583
290.422
290.076
289.083
291.228
291.111
291.062
291.005
290.915
290.758
290.42
289.457
291.369
291.26
291.214
291.157
291.068
290.912
290.579
289.643
291.449
291.344
291.298
291.242
291.153
290.998
290.669
289.752
291.496
291.393
291.348
291.292
291.203
291.049
290.722
289.819
291.523
291.421
291.376
291.32
291.232
291.078
290.753
289.858
291.536
291.434
291.389
291.333
291.245
291.092
290.768
289.877
290.081
289.85
289.776
289.699
289.585
289.395
289.017
288.024
290.742
290.589
290.532
290.469
290.376
290.214
289.864
288.851
290.773
290.622
290.566
290.505
290.411
290.25
289.901
288.896
290.19
289.967
289.897
289.823
289.711
289.524
289.149
288.173
290.298
290.075
290.007
289.933
289.822
289.636
289.263
288.29
291.071
290.934
290.882
290.824
290.734
290.576
290.234
289.263
291.357
291.246
291.2
291.146
291.06
290.908
290.576
289.635
291.495
291.391
291.348
291.295
291.21
291.06
290.733
289.821
291.572
291.472
291.429
291.377
291.293
291.144
290.821
289.93
291.618
291.52
291.478
291.425
291.342
291.194
290.875
289.997
291.645
291.547
291.505
291.453
291.37
291.222
290.905
290.036
291.657
291.56
291.518
291.466
291.383
291.235
290.919
290.055
288.023
289.014
289.39
289.577
289.687
289.754
289.794
289.812
288.85
289.861
290.21
290.37
290.46
290.514
290.546
290.561
288.895
289.9
290.247
290.407
290.497
290.552
290.583
290.598
288.172
289.148
289.522
289.708
289.817
289.884
289.924
289.943
)
;
    }
    symmetry
    {
        type            symmetry;
    }
    bottom
    {
        type            fixedValue;
        value           uniform 293;
    }
}


// ************************************************************************* //
