/*--------------------------------*- C++ -*----------------------------------*\
| =========                 |                                                 |
| \\      /  F ield         | OpenFOAM: The Open Source CFD Toolbox           |
|  \\    /   O peration     | Version:  v1912                                 |
|   \\  /    A nd           | Website:  www.openfoam.com                      |
|    \\/     M anipulation  |                                                 |
\*---------------------------------------------------------------------------*/
FoamFile
{
    version     2.0;
    format      ascii;
    class       volVectorField;
    location    "0.59/solid";
    object      U;
}
// * * * * * * * * * * * * * * * * * * * * * * * * * * * * * * * * * * * * * //

dimensions      [0 1 -1 0 0 0 0];


internalField   nonuniform List<vector> 
256
(
(2.80107e-08 2.8147e-08 3.26424e-08)
(6.25564e-09 1.68047e-08 2.99533e-08)
(-7.44814e-09 1.6293e-08 2.93641e-08)
(-2.74721e-08 2.62446e-08 3.08218e-08)
(5.00987e-08 2.188e-08 7.34915e-08)
(1.26896e-08 1.26219e-08 6.95302e-08)
(-1.51576e-08 1.23715e-08 6.83709e-08)
(-5.01854e-08 2.12861e-08 6.9912e-08)
(5.40684e-08 9.4508e-10 1.01671e-07)
(1.36536e-08 -3.0715e-09 9.70903e-08)
(-1.7582e-08 -2.86582e-09 9.56151e-08)
(-5.55858e-08 1.84559e-09 9.71235e-08)
(5.2657e-08 -2.18978e-08 1.25589e-07)
(1.22419e-08 -2.40194e-08 1.20031e-07)
(-1.81877e-08 -2.33587e-08 1.18331e-07)
(-5.61672e-08 -1.96781e-08 1.20355e-07)
(5.24403e-08 -4.64433e-08 1.49518e-07)
(1.10755e-08 -4.96503e-08 1.42667e-07)
(-1.9636e-08 -4.85639e-08 1.40775e-07)
(-5.85212e-08 -4.30086e-08 1.43701e-07)
(5.81067e-08 -7.61161e-08 1.76137e-07)
(1.21166e-08 -8.10501e-08 1.68033e-07)
(-2.39197e-08 -7.95473e-08 1.65955e-07)
(-6.7376e-08 -7.14894e-08 1.69763e-07)
(7.35728e-08 -1.20411e-07 2.06316e-07)
(1.64344e-08 -1.23169e-07 1.98155e-07)
(-3.22224e-08 -1.21201e-07 1.95878e-07)
(-8.66588e-08 -1.14438e-07 1.99366e-07)
(9.33037e-08 -1.87204e-07 2.32158e-07)
(2.10119e-08 -1.80934e-07 2.26217e-07)
(-4.17302e-08 -1.78207e-07 2.23746e-07)
(-1.10841e-07 -1.78918e-07 2.24683e-07)
(1.66142e-08 9.46469e-09 1.25794e-08)
(3.48098e-09 6.19728e-10 1.4523e-08)
(-3.95639e-09 4.35073e-10 1.42766e-08)
(-1.5624e-08 8.32223e-09 1.18452e-08)
(3.06327e-08 -1.44258e-09 4.01035e-08)
(7.48903e-09 -8.75011e-09 4.39617e-08)
(-8.30089e-09 -8.74701e-09 4.32883e-08)
(-2.94908e-08 -1.52324e-09 3.81363e-08)
(3.27532e-08 -1.9978e-08 6.54331e-08)
(7.95289e-09 -2.31515e-08 6.98113e-08)
(-9.57274e-09 -2.28047e-08 6.88499e-08)
(-3.24477e-08 -1.88395e-08 6.26154e-08)
(3.09109e-08 -4.07741e-08 8.82635e-08)
(6.61767e-09 -4.25616e-08 9.24708e-08)
(-9.75418e-09 -4.18241e-08 9.13036e-08)
(-3.21292e-08 -3.84598e-08 8.48184e-08)
(3.02574e-08 -6.36474e-08 1.10459e-07)
(5.5324e-09 -6.67536e-08 1.14224e-07)
(-1.08702e-08 -6.56232e-08 1.12881e-07)
(-3.3647e-08 -6.01883e-08 1.06472e-07)
(3.55031e-08 -8.98859e-08 1.33128e-07)
(6.6227e-09 -9.49683e-08 1.36429e-07)
(-1.48406e-08 -9.34468e-08 1.34917e-07)
(-4.17177e-08 -8.52907e-08 1.28627e-07)
(5.14153e-08 -1.25291e-07 1.54216e-07)
(1.11476e-08 -1.27989e-07 1.57307e-07)
(-2.30207e-08 -1.26054e-07 1.55642e-07)
(-6.1095e-08 -1.19467e-07 1.49245e-07)
(7.32006e-08 -1.77326e-07 1.65363e-07)
(1.60564e-08 -1.68817e-07 1.68492e-07)
(-3.2566e-08 -1.66239e-07 1.66757e-07)
(-8.69806e-08 -1.69448e-07 1.60154e-07)
(8.02879e-09 2.47048e-09 6.21662e-09)
(9.99933e-10 -3.85863e-09 9.10484e-09)
(-1.16795e-09 -4.00038e-09 8.93631e-09)
(-6.80565e-09 1.34314e-09 5.73825e-09)
(1.52957e-08 -1.30728e-08 2.55135e-08)
(2.58785e-09 -1.83966e-08 3.09636e-08)
(-2.51443e-09 -1.83611e-08 3.04944e-08)
(-1.33971e-08 -1.32124e-08 2.41869e-08)
(1.59153e-08 -3.23905e-08 4.6978e-08)
(2.50208e-09 -3.48004e-08 5.31616e-08)
(-2.71202e-09 -3.44585e-08 5.2459e-08)
(-1.43557e-08 -3.13981e-08 4.49692e-08)
(1.40093e-08 -5.19949e-08 6.78386e-08)
(1.25586e-09 -5.36677e-08 7.40363e-08)
(-2.52606e-09 -5.29686e-08 7.31503e-08)
(-1.35348e-08 -4.98956e-08 6.52732e-08)
(1.33978e-08 -7.1988e-08 8.76022e-08)
(2.96372e-10 -7.52218e-08 9.35984e-08)
(-3.37649e-09 -7.41546e-08 9.25527e-08)
(-1.47097e-08 -6.87927e-08 8.45455e-08)
(1.87161e-08 -9.2979e-08 1.05529e-07)
(1.47622e-09 -9.82769e-08 1.11289e-07)
(-7.09928e-09 -9.68428e-08 1.10099e-07)
(-2.25075e-08 -8.86977e-08 1.02023e-07)
(3.4946e-08 -1.20197e-07 1.18554e-07)
(6.14771e-09 -1.23078e-07 1.24088e-07)
(-1.51311e-08 -1.21263e-07 1.22786e-07)
(-4.18828e-08 -1.14757e-07 1.14686e-07)
(5.71751e-08 -1.63129e-07 1.21069e-07)
(1.12362e-08 -1.54639e-07 1.2643e-07)
(-2.45841e-08 -1.52212e-07 1.25107e-07)
(-6.79079e-08 -1.5569e-07 1.17088e-07)
(4.28965e-09 -7.65077e-11 5.04217e-09)
(-6.55736e-11 -4.81549e-09 6.9885e-09)
(3.77513e-11 -4.9761e-09 6.86232e-09)
(-2.9228e-09 -1.30791e-09 4.69274e-09)
(8.43523e-09 -1.75816e-08 1.99002e-08)
(3.66732e-10 -2.16668e-08 2.35313e-08)
(1.8945e-10 -2.16847e-08 2.31916e-08)
(-6.05826e-09 -1.79484e-08 1.89556e-08)
(8.4862e-09 -3.77342e-08 3.71814e-08)
(7.91554e-11 -3.97207e-08 4.12477e-08)
(5.73683e-10 -3.94529e-08 4.07331e-08)
(-6.07993e-09 -3.7027e-08 3.57279e-08)
(6.91835e-09 -5.65743e-08 5.46336e-08)
(-9.55967e-10 -5.82822e-08 5.86362e-08)
(9.21604e-10 -5.76735e-08 5.79727e-08)
(-5.23294e-09 -5.47964e-08 5.27298e-08)
(6.78998e-09 -7.40545e-08 7.08122e-08)
(-1.6546e-09 -7.7471e-08 7.46077e-08)
(1.50937e-10 -7.65078e-08 7.3811e-08)
(-6.55271e-09 -7.12075e-08 6.84978e-08)
(1.2491e-08 -9.10576e-08 8.41116e-08)
(-2.94522e-10 -9.65629e-08 8.77024e-08)
(-3.45179e-09 -9.52453e-08 8.67884e-08)
(-1.44262e-08 -8.71478e-08 8.14294e-08)
(2.87378e-08 -1.13664e-07 9.19552e-08)
(4.40843e-09 -1.16948e-07 9.54024e-08)
(-1.12518e-08 -1.15258e-07 9.44061e-08)
(-3.35394e-08 -1.08607e-07 8.89955e-08)
(5.05061e-08 -1.52737e-07 9.16038e-08)
(9.46872e-09 -1.45385e-07 9.51034e-08)
(-2.04366e-08 -1.43078e-07 9.41003e-08)
(-5.88468e-08 -1.45657e-07 8.85737e-08)
(3.11402e-09 -9.81494e-10 4.3956e-09)
(-2.89586e-10 -4.97335e-09 5.37442e-09)
(3.35477e-10 -5.15475e-09 5.28325e-09)
(-1.65653e-09 -2.29931e-09 4.14654e-09)
(6.39006e-09 -1.8812e-08 1.58893e-08)
(-1.09345e-10 -2.2358e-08 1.76517e-08)
(9.49137e-10 -2.24373e-08 1.74106e-08)
(-3.71155e-09 -1.93917e-08 1.52264e-08)
(6.5056e-09 -3.89899e-08 2.90406e-08)
(-3.2634e-10 -4.08673e-08 3.09302e-08)
(1.52419e-09 -4.0683e-08 3.05641e-08)
(-3.54369e-09 -3.85605e-08 2.80162e-08)
(5.40704e-09 -5.71212e-08 4.24019e-08)
(-1.10965e-09 -5.89611e-08 4.41536e-08)
(1.90102e-09 -5.84476e-08 4.36761e-08)
(-2.89079e-09 -5.56523e-08 4.10419e-08)
(5.81561e-09 -7.29551e-08 5.45389e-08)
(-1.53604e-09 -7.6557e-08 5.60859e-08)
(1.13092e-09 -7.56963e-08 5.55061e-08)
(-4.47605e-09 -7.04327e-08 5.28636e-08)
(1.18643e-08 -8.77884e-08 6.38806e-08)
(-4.26626e-12 -9.34612e-08 6.52636e-08)
(-2.39371e-09 -9.22496e-08 6.45944e-08)
(-1.24439e-08 -8.42074e-08 6.19227e-08)
(2.79676e-08 -1.0843e-07 6.86916e-08)
(4.67695e-09 -1.12065e-07 7.00154e-08)
(-9.94961e-09 -1.10479e-07 6.92855e-08)
(-3.11828e-08 -1.0369e-07 6.65247e-08)
(4.91694e-08 -1.45923e-07 6.78334e-08)
(9.66117e-09 -1.39617e-07 6.92995e-08)
(-1.88591e-08 -1.37402e-07 6.85662e-08)
(-5.57143e-08 -1.39124e-07 6.56158e-08)
(2.84467e-09 -1.26283e-09 3.43423e-09)
(-2.44876e-10 -4.95251e-09 3.86257e-09)
(3.31601e-10 -5.14884e-09 3.80137e-09)
(-1.33147e-09 -2.63952e-09 3.26843e-09)
(6.08768e-09 -1.87721e-08 1.17099e-08)
(1.36694e-11 -2.21575e-08 1.2421e-08)
(9.9606e-10 -2.22839e-08 1.22601e-08)
(-3.22222e-09 -1.95077e-08 1.12713e-08)
(6.47818e-09 -3.85007e-08 2.09091e-08)
(-4.6217e-11 -4.04266e-08 2.15952e-08)
(1.5858e-09 -4.03096e-08 2.13508e-08)
(-3.16237e-09 -3.82854e-08 2.02303e-08)
(5.79104e-09 -5.5978e-08 3.01669e-08)
(-6.1529e-10 -5.79699e-08 3.07101e-08)
(1.94419e-09 -5.75338e-08 3.03894e-08)
(-2.72877e-09 -5.47523e-08 2.92592e-08)
(6.60519e-09 -7.08886e-08 3.84309e-08)
(-8.34071e-10 -7.46409e-08 3.88144e-08)
(1.16655e-09 -7.3862e-08 3.84225e-08)
(-4.52057e-09 -6.86208e-08 3.73035e-08)
(1.28763e-08 -8.47825e-08 4.45563e-08)
(8.19423e-10 -9.0565e-08 4.48317e-08)
(-2.28972e-09 -8.94354e-08 4.43771e-08)
(-1.25194e-08 -8.14544e-08 4.32301e-08)
(2.88204e-08 -1.04745e-07 4.74968e-08)
(5.47459e-09 -1.0859e-07 4.77602e-08)
(-9.6473e-09 -1.07081e-07 4.72633e-08)
(-3.09227e-08 -1.00241e-07 4.60235e-08)
(4.95848e-08 -1.415e-07 4.67841e-08)
(1.03984e-08 -1.35849e-07 4.71728e-08)
(-1.83437e-08 -1.33703e-07 4.66738e-08)
(-5.48576e-08 -1.34907e-07 4.5275e-08)
(2.80727e-09 -1.3139e-09 2.17541e-09)
(-1.75274e-10 -4.88752e-09 2.34671e-09)
(2.83657e-10 -5.0933e-09 2.31161e-09)
(-1.26207e-09 -2.727e-09 2.08075e-09)
(6.1732e-09 -1.84022e-08 7.1781e-09)
(1.9479e-10 -2.17671e-08 7.42968e-09)
(9.11262e-10 -2.19239e-08 7.3376e-09)
(-3.19904e-09 -1.92364e-08 6.92829e-09)
(6.80184e-09 -3.76374e-08 1.26091e-08)
(2.64265e-10 -3.96431e-08 1.28077e-08)
(1.47529e-09 -3.95707e-08 1.26676e-08)
(-3.27647e-09 -3.75619e-08 1.22219e-08)
(6.39233e-09 -5.46233e-08 1.80098e-08)
(-1.61233e-10 -5.67334e-08 1.81095e-08)
(1.81275e-09 -5.63495e-08 1.79252e-08)
(-3.00011e-09 -5.35599e-08 1.749e-08)
(7.45518e-09 -6.90666e-08 2.27706e-08)
(-2.50179e-10 -7.29184e-08 2.27739e-08)
(1.03508e-09 -7.21947e-08 2.25477e-08)
(-4.91166e-09 -6.69694e-08 2.21217e-08)
(1.38471e-08 -8.26206e-08 2.62332e-08)
(1.47655e-09 -8.84627e-08 2.61785e-08)
(-2.36774e-09 -8.73878e-08 2.59152e-08)
(-1.29041e-08 -7.94609e-08 2.54668e-08)
(2.96766e-08 -1.02393e-07 2.78454e-08)
(6.11573e-09 -1.06338e-07 2.77945e-08)
(-9.59279e-09 -1.0488e-07 2.75062e-08)
(-3.10743e-08 -9.80457e-08 2.69915e-08)
(5.01591e-08 -1.3878e-07 2.74083e-08)
(1.10021e-08 -1.3347e-07 2.74343e-08)
(-1.81491e-08 -1.31368e-07 2.71448e-08)
(-5.46207e-08 -1.32323e-07 2.6533e-08)
(2.80748e-09 -1.30574e-09 7.43575e-10)
(-1.38789e-10 -4.83871e-09 7.89302e-10)
(2.56494e-10 -5.04907e-09 7.77877e-10)
(-1.24766e-09 -2.73628e-09 7.12829e-10)
(6.2496e-09 -1.81328e-08 2.41761e-09)
(2.91268e-10 -2.15055e-08 2.47824e-09)
(8.58319e-10 -2.16771e-08 2.44828e-09)
(-3.22538e-09 -1.90145e-08 2.33652e-09)
(7.00085e-09 -3.70742e-08 4.21212e-09)
(4.26691e-10 -3.91296e-08 4.2501e-09)
(1.40514e-09 -3.90791e-08 4.20449e-09)
(-3.3779e-09 -3.7067e-08 4.08635e-09)
(6.72573e-09 -5.38019e-08 5.98353e-09)
(7.07356e-11 -5.59738e-08 5.98707e-09)
(1.73196e-09 -5.56158e-08 5.92696e-09)
(-3.17811e-09 -5.28188e-08 5.81436e-09)
(7.90353e-09 -6.80512e-08 7.53503e-09)
(4.27843e-11 -7.19513e-08 7.50679e-09)
(9.56888e-10 -7.12551e-08 7.43286e-09)
(-5.14151e-09 -6.60389e-08 7.32328e-09)
(1.43477e-08 -8.1505e-08 8.65483e-09)
(1.80355e-09 -8.7372e-08 8.60862e-09)
(-2.41694e-09 -8.63243e-08 8.52246e-09)
(-1.3123e-08 -7.8429e-08 8.40429e-09)
(3.01199e-08 -1.01238e-07 9.17059e-09)
(6.43601e-09 -1.05221e-07 9.12731e-09)
(-9.57673e-09 -1.03788e-07 9.03285e-09)
(-3.11765e-08 -9.69686e-08 8.891e-09)
(5.04654e-08 -1.3747e-07 9.02476e-09)
(1.13048e-08 -1.32299e-07 9.00683e-09)
(-1.80639e-08 -1.3022e-07 8.91197e-09)
(-5.45326e-08 -1.3108e-07 8.73804e-09)
)
;

boundaryField
{
    interface
    {
        type            calculated;
        value           nonuniform List<vector> 
192
(
(3.13054e-08 4.76743e-08 2.92924e-08)
(5.30388e-08 2.83943e-08 6.76638e-08)
(5.71935e-08 1.58453e-09 9.533e-08)
(5.61607e-08 -2.23049e-08 1.19267e-07)
(5.59697e-08 -4.5081e-08 1.43266e-07)
(6.08965e-08 -7.08331e-08 1.69953e-07)
(7.54778e-08 -1.11612e-07 2.0029e-07)
(9.84404e-08 -1.81672e-07 2.26447e-07)
(1.55213e-08 2.12764e-08 7.58401e-09)
(2.94734e-08 2.59207e-09 3.1403e-08)
(3.14558e-08 -1.99086e-08 5.5895e-08)
(2.95379e-08 -4.13982e-08 7.86017e-08)
(2.85539e-08 -6.24994e-08 1.00698e-07)
(3.28649e-08 -8.45965e-08 1.2328e-07)
(4.81134e-08 -1.15866e-07 1.44559e-07)
(7.51846e-08 -1.71483e-07 1.56331e-07)
(5.64956e-09 8.30159e-09 3.13558e-09)
(1.36187e-08 -1.11012e-08 1.99643e-08)
(1.42437e-08 -3.27122e-08 4.09114e-08)
(1.22866e-08 -5.26244e-08 6.18406e-08)
(1.14798e-08 -7.08114e-08 8.17355e-08)
(1.62256e-08 -8.75921e-08 9.97763e-08)
(3.23914e-08 -1.10582e-07 1.12885e-07)
(6.01611e-08 -1.57135e-07 1.15396e-07)
(1.43634e-09 3.1047e-09 3.81355e-09)
(6.73054e-09 -1.65325e-08 1.76739e-08)
(6.92489e-09 -3.81135e-08 3.48291e-08)
(5.39525e-09 -5.69985e-08 5.24831e-08)
(5.22353e-09 -7.26615e-08 6.89168e-08)
(1.06343e-08 -8.55708e-08 8.23987e-08)
(2.72167e-08 -1.04161e-07 9.02106e-08)
(5.44212e-08 -1.46706e-07 8.96024e-08)
(-1.97561e-11 1.39452e-09 4.03441e-09)
(4.50041e-09 -1.79642e-08 1.53025e-08)
(4.83787e-09 -3.92358e-08 2.85387e-08)
(3.86274e-09 -5.72938e-08 4.21202e-08)
(4.34643e-09 -7.13409e-08 5.44927e-08)
(1.02794e-08 -8.22505e-08 6.3977e-08)
(2.693e-08 -9.91043e-08 6.87123e-08)
(5.33935e-08 -1.39907e-07 6.76031e-08)
(-4.02877e-10 9.70252e-10 3.35758e-09)
(4.08167e-09 -1.78638e-08 1.16558e-08)
(4.73883e-09 -3.8575e-08 2.09833e-08)
(4.2406e-09 -5.59464e-08 3.04133e-08)
(5.21397e-09 -6.91174e-08 3.88408e-08)
(1.14741e-08 -7.92288e-08 4.5052e-08)
(2.80729e-08 -9.5568e-08 4.79241e-08)
(5.39382e-08 -1.3552e-07 4.70315e-08)
(-4.63709e-10 9.31208e-10 2.16613e-09)
(4.12955e-09 -1.74036e-08 7.21861e-09)
(5.05056e-09 -3.75827e-08 1.27398e-08)
(4.87241e-09 -5.44601e-08 1.82435e-08)
(6.14675e-09 -6.7203e-08 2.30952e-08)
(1.25861e-08 -7.70654e-08 2.66011e-08)
(2.91228e-08 -9.33148e-08 2.81703e-08)
(5.45952e-08 -1.32838e-07 2.76285e-08)
(-4.60164e-10 9.58523e-10 7.43633e-10)
(4.20121e-09 -1.70845e-08 2.43672e-09)
(5.2568e-09 -3.69553e-08 4.26188e-09)
(5.23356e-09 -5.35764e-08 6.06689e-09)
(6.6475e-09 -6.61459e-08 7.64713e-09)
(1.3165e-08 -7.5951e-08 8.77998e-09)
(2.96659e-08 -9.22084e-08 9.28141e-09)
(5.49464e-08 -1.31551e-07 9.10134e-09)
(2.9013e-08 5.46804e-08 3.21248e-08)
(5.20217e-08 3.91372e-08 7.21098e-08)
(5.60933e-08 1.39695e-08 1.00464e-07)
(5.4428e-08 -9.93593e-09 1.24882e-07)
(5.38534e-08 -3.38062e-08 1.48882e-07)
(5.91723e-08 -6.19167e-08 1.74559e-07)
(7.45454e-08 -1.06406e-07 2.03276e-07)
(9.46737e-08 -1.80236e-07 2.31518e-07)
(5.43569e-09 4.16755e-08 2.65705e-08)
(1.14088e-08 2.94063e-08 6.4507e-08)
(1.21391e-08 9.55375e-09 9.13871e-08)
(1.0427e-08 -1.2625e-08 1.14072e-07)
(8.88935e-09 -3.76495e-08 1.36114e-07)
(9.57077e-09 -6.7178e-08 1.59917e-07)
(1.38247e-08 -1.08623e-07 1.88418e-07)
(1.89086e-08 -1.736e-07 2.21284e-07)
(-7.23143e-09 4.07267e-08 2.5144e-08)
(-1.50629e-08 2.89344e-08 6.26635e-08)
(-1.75744e-08 9.62436e-09 8.9212e-08)
(-1.81072e-08 -1.20685e-08 1.11635e-07)
(-1.93782e-08 -3.66577e-08 1.33453e-07)
(-2.34878e-08 -6.57715e-08 1.57043e-07)
(-3.19201e-08 -1.06754e-07 1.85316e-07)
(-4.21138e-08 -1.70912e-07 2.17904e-07)
(-2.89619e-08 5.14281e-08 2.7736e-08)
(-5.31224e-08 3.78617e-08 6.626e-08)
(-5.89409e-08 1.44565e-08 9.35568e-08)
(-5.95002e-08 -8.03367e-09 1.1718e-07)
(-6.1693e-08 -3.06565e-08 1.40513e-07)
(-7.03843e-08 -5.7573e-08 1.65566e-07)
(-8.97577e-08 -1.00708e-07 1.93657e-07)
(-1.14506e-07 -1.72057e-07 2.21265e-07)
(-2.50396e-08 4.56589e-08 2.71146e-08)
(-4.73925e-08 2.83146e-08 6.32693e-08)
(-5.28559e-08 3.34125e-09 8.96609e-08)
(-5.36579e-08 -1.8944e-08 1.12678e-07)
(-5.58765e-08 -4.02061e-08 1.35896e-07)
(-6.38067e-08 -6.44547e-08 1.61844e-07)
(-8.1878e-08 -1.03572e-07 1.91425e-07)
(-1.08522e-07 -1.70975e-07 2.16885e-07)
(-9.34603e-09 1.96009e-08 6.67842e-09)
(-2.32556e-08 2.68276e-09 2.8939e-08)
(-2.60083e-08 -1.81798e-08 5.23075e-08)
(-2.54923e-08 -3.81598e-08 7.41599e-08)
(-2.65407e-08 -5.7791e-08 9.5519e-08)
(-3.35107e-08 -7.84285e-08 1.17409e-07)
(-5.19152e-08 -1.08151e-07 1.38051e-07)
(-8.22242e-08 -1.61354e-07 1.4942e-07)
(5.36583e-10 6.39382e-09 2.56276e-09)
(-6.88207e-09 -1.13249e-08 1.83285e-08)
(-7.79281e-09 -3.13635e-08 3.83769e-08)
(-6.8101e-09 -4.98069e-08 5.85488e-08)
(-7.65837e-09 -6.65493e-08 7.77716e-08)
(-1.47065e-08 -8.19042e-08 9.51999e-08)
(-3.36914e-08 -1.03406e-07 1.07797e-07)
(-6.44066e-08 -1.47594e-07 1.10054e-07)
(4.80149e-09 9.37349e-10 3.40534e-09)
(3.83084e-10 -1.7159e-08 1.65339e-08)
(2.63079e-10 -3.72332e-08 3.30246e-08)
(1.17666e-09 -5.4678e-08 5.00685e-08)
(3.21875e-11 -6.89089e-08 6.59392e-08)
(-7.36067e-09 -8.04008e-08 7.89133e-08)
(-2.64643e-08 -9.75018e-08 8.63204e-08)
(-5.63665e-08 -1.3765e-07 8.55251e-08)
(6.29592e-09 -9.57294e-10 3.7486e-09)
(2.85468e-09 -1.89199e-08 1.45172e-08)
(2.84017e-09 -3.87655e-08 2.72866e-08)
(3.47216e-09 -5.54191e-08 4.04157e-08)
(1.94776e-09 -6.80442e-08 5.23554e-08)
(-5.70728e-09 -7.75303e-08 6.14458e-08)
(-2.46302e-08 -9.28719e-08 6.58704e-08)
(-5.35893e-08 -1.31233e-07 6.46184e-08)
(6.70385e-09 -1.5011e-09 3.16975e-09)
(3.42449e-09 -1.90499e-08 1.11431e-08)
(3.25457e-09 -3.84086e-08 2.01633e-08)
(3.6024e-09 -5.44125e-08 2.92864e-08)
(1.79868e-09 -6.61729e-08 3.74123e-08)
(-5.98988e-09 -7.48535e-08 4.3345e-08)
(-2.46784e-08 -8.96565e-08 4.59963e-08)
(-5.2887e-08 -1.27129e-07 4.50016e-08)
(6.7792e-09 -1.61173e-09 2.05976e-09)
(3.4657e-09 -1.87328e-08 6.92901e-09)
(3.13178e-09 -3.76114e-08 1.22757e-08)
(3.28026e-09 -5.31509e-08 1.76023e-08)
(1.30709e-09 -6.44931e-08 2.22769e-08)
(-6.52966e-09 -7.29199e-08 2.56177e-08)
(-2.50336e-08 -8.76162e-08 2.70549e-08)
(-5.27458e-08 -1.24632e-07 2.64517e-08)
(6.78256e-09 -1.61802e-09 7.09214e-10)
(3.43562e-09 -1.84819e-08 2.34308e-09)
(3.01426e-09 -3.70786e-08 4.11168e-09)
(3.06564e-09 -5.23776e-08 5.85884e-09)
(1.01551e-09 -6.35523e-08 7.38073e-09)
(-6.83126e-09 -7.19199e-08 8.45899e-09)
(-2.52398e-08 -8.66158e-08 8.91654e-09)
(-5.2708e-08 -1.23437e-07 8.716e-09)
(9.45022e-08 -1.86661e-07 2.33172e-07)
(7.3995e-08 -1.74444e-07 1.59345e-07)
(5.80497e-08 -1.61825e-07 1.14922e-07)
(5.16834e-08 -1.52607e-07 8.73023e-08)
(5.06005e-08 -1.46157e-07 6.50242e-08)
(5.11615e-08 -1.41847e-07 4.49982e-08)
(5.18024e-08 -1.3919e-07 2.64009e-08)
(5.21323e-08 -1.37916e-07 8.69736e-09)
(1.87624e-08 -1.76093e-07 2.26855e-07)
(1.32844e-08 -1.59237e-07 1.61919e-07)
(8.50647e-09 -1.4679e-07 1.20572e-07)
(7.05366e-09 -1.39289e-07 9.13478e-08)
(7.53055e-09 -1.34377e-07 6.69154e-08)
(8.44869e-09 -1.31043e-07 4.5636e-08)
(9.14874e-09 -1.28895e-07 2.65469e-08)
(9.49172e-09 -1.27831e-07 8.71425e-09)
(-4.22346e-08 -1.72442e-07 2.24401e-07)
(-3.24086e-08 -1.55808e-07 1.60258e-07)
(-2.43218e-08 -1.43527e-07 1.19317e-07)
(-2.03691e-08 -1.36153e-07 9.0398e-08)
(-1.89828e-08 -1.31337e-07 6.62225e-08)
(-1.85796e-08 -1.28071e-07 4.51652e-08)
(-1.84363e-08 -1.25967e-07 2.6274e-08)
(-1.83691e-08 -1.24924e-07 8.6249e-09)
(-1.14635e-07 -1.75556e-07 2.25746e-07)
(-9.02259e-08 -1.63824e-07 1.54347e-07)
(-7.10869e-08 -1.51647e-07 1.1114e-07)
(-6.22062e-08 -1.42793e-07 8.44322e-08)
(-5.92302e-08 -1.3662e-07 6.29284e-08)
(-5.84465e-08 -1.3251e-07 4.35747e-08)
(-5.82281e-08 -1.29982e-07 2.55763e-08)
(-5.81398e-08 -1.28772e-07 8.42738e-09)
)
;
    }
    symmetry
    {
        type            symmetry;
    }
    bottom
    {
        type            calculated;
        value           uniform (0 0 0);
    }
}


// ************************************************************************* //
