/*--------------------------------*- C++ -*----------------------------------*\
| =========                 |                                                 |
| \\      /  F ield         | OpenFOAM: The Open Source CFD Toolbox           |
|  \\    /   O peration     | Version:  v1912                                 |
|   \\  /    A nd           | Website:  www.openfoam.com                      |
|    \\/     M anipulation  |                                                 |
\*---------------------------------------------------------------------------*/
FoamFile
{
    version     2.0;
    format      ascii;
    class       volVectorField;
    location    "0.47/solid";
    object      D;
}
// * * * * * * * * * * * * * * * * * * * * * * * * * * * * * * * * * * * * * //

dimensions      [0 1 0 0 0 0 0];


internalField   nonuniform List<vector> 
256
(
(2.01148e-08 3.17779e-08 2.14072e-08)
(1.89817e-09 1.84308e-08 1.93868e-08)
(-1.39534e-09 1.82251e-08 1.94573e-08)
(-1.92358e-08 3.08489e-08 2.17023e-08)
(3.17449e-08 2.48385e-08 3.84099e-08)
(5.79396e-09 1.73253e-08 3.58284e-08)
(-3.77729e-09 1.68592e-08 3.60942e-08)
(-2.92427e-08 2.32169e-08 3.93104e-08)
(3.32009e-08 1.51495e-08 4.62356e-08)
(7.01463e-09 1.22451e-08 4.35395e-08)
(-3.16857e-09 1.15497e-08 4.39617e-08)
(-2.88872e-08 1.29145e-08 4.75948e-08)
(3.30919e-08 7.57997e-09 5.18104e-08)
(7.41402e-09 5.97044e-09 4.8959e-08)
(-1.47697e-09 5.07081e-09 4.9494e-08)
(-2.66973e-08 4.77437e-09 5.35023e-08)
(3.40177e-08 1.06891e-09 5.7287e-08)
(8.22756e-09 -9.9676e-10 5.42861e-08)
(5.79227e-11 -2.08793e-09 5.4906e-08)
(-2.52727e-08 -2.2757e-09 5.92327e-08)
(3.70294e-08 -5.57566e-09 6.36958e-08)
(9.96984e-09 -8.61004e-09 6.05694e-08)
(9.20544e-10 -9.89166e-09 6.12591e-08)
(-2.56854e-08 -9.44955e-09 6.58507e-08)
(4.34366e-08 -1.62491e-08 7.19764e-08)
(1.29727e-08 -1.89484e-08 6.8883e-08)
(7.65924e-10 -2.04157e-08 6.96341e-08)
(-2.92889e-08 -2.06492e-08 7.43125e-08)
(5.31844e-08 -5.29981e-08 8.15979e-08)
(1.63007e-08 -5.10435e-08 7.89515e-08)
(4.44267e-10 -5.2534e-08 7.97468e-08)
(-3.6096e-08 -5.75682e-08 8.406e-08)
(1.47196e-08 1.53183e-08 2.62639e-09)
(8.93169e-10 4.257e-09 3.46073e-09)
(-5.95574e-10 4.07207e-09 3.59796e-09)
(-1.39965e-08 1.44864e-08 3.02811e-09)
(2.34389e-08 1.24323e-08 1.26867e-08)
(3.78607e-09 6.03965e-09 1.42968e-08)
(-2.30043e-09 5.54774e-09 1.46211e-08)
(-2.14205e-08 1.08032e-08 1.36299e-08)
(2.43236e-08 7.03842e-09 2.04227e-08)
(4.72053e-09 4.45009e-09 2.23242e-08)
(-1.67135e-09 3.72145e-09 2.27861e-08)
(-2.07651e-08 4.77124e-09 2.17681e-08)
(2.40261e-08 1.51689e-09 2.6027e-08)
(5.03039e-09 -3.32026e-12 2.80152e-08)
(-1.04861e-10 -9.29025e-10 2.85807e-08)
(-1.85974e-08 -1.31336e-09 2.76799e-08)
(2.47951e-08 -4.11052e-09 3.09903e-08)
(5.77057e-09 -6.13518e-09 3.29941e-08)
(1.33043e-09 -7.2447e-09 3.36408e-08)
(-1.71801e-08 -7.46934e-09 3.28857e-08)
(2.77015e-08 -1.00394e-08 3.62117e-08)
(7.44891e-09 -1.30639e-08 3.82079e-08)
(2.1159e-09 -1.43567e-08 3.89208e-08)
(-1.76176e-08 -1.39165e-08 3.83046e-08)
(3.41499e-08 -1.85885e-08 4.16028e-08)
(1.04153e-08 -2.12639e-08 4.36079e-08)
(1.8839e-09 -2.27308e-08 4.43707e-08)
(-2.13687e-08 -2.29685e-08 4.38467e-08)
(4.41953e-08 -4.89015e-08 4.48365e-08)
(1.37211e-08 -4.65277e-08 4.6881e-08)
(1.50252e-09 -4.79933e-08 4.76617e-08)
(-2.85642e-08 -5.33952e-08 4.71418e-08)
(1.12469e-08 1.05295e-08 1.21086e-09)
(3.3614e-11 1.01e-09 2.2608e-09)
(1.22372e-10 8.46427e-10 2.36222e-09)
(-1.0671e-08 9.80901e-09 1.49989e-09)
(1.80021e-08 6.03854e-09 7.6784e-09)
(2.00791e-09 5.70042e-10 9.66404e-09)
(-9.28953e-10 1.07122e-10 9.91249e-09)
(-1.63856e-08 4.54856e-09 8.38728e-09)
(1.85851e-08 1.15862e-09 1.44312e-08)
(2.68391e-09 -1.12403e-09 1.67373e-08)
(-2.72252e-10 -1.82503e-09 1.70951e-08)
(-1.56536e-08 -9.81114e-10 1.54604e-08)
(1.82421e-08 -3.30437e-09 2.00749e-08)
(2.92197e-09 -4.75226e-09 2.24847e-08)
(1.17135e-09 -5.65194e-09 2.29288e-08)
(-1.36307e-08 -6.0211e-09 2.13624e-08)
(1.89566e-08 -7.77572e-09 2.49078e-08)
(3.60183e-09 -9.7883e-09 2.73554e-08)
(2.50601e-09 -1.0872e-08 2.78703e-08)
(-1.23145e-08 -1.10309e-08 2.64085e-08)
(2.18581e-08 -1.22642e-08 2.93036e-08)
(5.23025e-09 -1.52942e-08 3.17623e-08)
(3.21038e-09 -1.65594e-08 3.23349e-08)
(-1.28716e-08 -1.60412e-08 3.09783e-08)
(2.83967e-08 -1.87536e-08 3.28601e-08)
(8.17233e-09 -2.14385e-08 3.53186e-08)
(2.89712e-09 -2.2873e-08 3.59304e-08)
(-1.68126e-08 -2.3028e-08 3.46582e-08)
(3.85082e-08 -4.6111e-08 3.41222e-08)
(1.14584e-08 -4.37398e-08 3.65966e-08)
(2.44772e-09 -4.51661e-08 3.72151e-08)
(-2.41583e-08 -5.04851e-08 3.59536e-08)
(9.65706e-09 9.12732e-09 1.3319e-09)
(-3.20342e-10 4.6342e-10 1.97905e-09)
(3.9538e-10 3.15462e-10 2.05076e-09)
(-9.19511e-09 8.49016e-09 1.53707e-09)
(1.54477e-08 3.4307e-09 6.01413e-09)
(1.18496e-09 -1.50131e-09 7.26647e-09)
(-3.76221e-10 -1.92598e-09 7.44744e-09)
(-1.4136e-08 2.08634e-09 6.53081e-09)
(1.59466e-08 -2.05439e-09 1.13542e-08)
(1.71978e-09 -4.14425e-09 1.28187e-08)
(2.36732e-10 -4.79964e-09 1.30831e-08)
(-1.34964e-08 -4.03471e-09 1.21156e-08)
(1.56656e-08 -6.35713e-09 1.63018e-08)
(1.92511e-09 -7.75856e-09 1.78289e-08)
(1.54803e-09 -8.61291e-09 1.81614e-08)
(-1.16953e-08 -8.92095e-09 1.72682e-08)
(1.64105e-08 -1.0114e-08 2.05694e-08)
(2.57513e-09 -1.21203e-08 2.21167e-08)
(2.77168e-09 -1.31608e-08 2.25069e-08)
(-1.05467e-08 -1.32279e-08 2.17114e-08)
(1.93368e-08 -1.3572e-08 2.4101e-08)
(4.17066e-09 -1.6606e-08 2.56546e-08)
(3.39209e-09 -1.78297e-08 2.6092e-08)
(-1.1242e-08 -1.72182e-08 2.53875e-08)
(2.59007e-08 -1.90105e-08 2.65933e-08)
(7.07911e-09 -2.17287e-08 2.81509e-08)
(3.01568e-09 -2.31229e-08 2.8619e-08)
(-1.53003e-08 -2.31623e-08 2.79796e-08)
(3.59627e-08 -4.51278e-08 2.74975e-08)
(1.03322e-08 -4.29104e-08 2.909e-08)
(2.51547e-09 -4.42995e-08 2.9561e-08)
(-2.2674e-08 -4.93888e-08 2.89063e-08)
(8.99625e-09 8.52714e-09 1.26927e-09)
(-4.12062e-10 3.05688e-10 1.59336e-09)
(4.40298e-10 1.69831e-10 1.64362e-09)
(-8.61127e-09 7.95114e-09 1.41288e-09)
(1.43929e-08 2.37668e-09 4.76855e-09)
(9.14295e-10 -2.28097e-09 5.4068e-09)
(-2.79668e-10 -2.67281e-09 5.53528e-09)
(-1.32921e-08 1.14984e-09 5.13451e-09)
(1.48985e-08 -3.56532e-09 8.73796e-09)
(1.38914e-09 -5.55688e-09 9.48938e-09)
(2.56171e-10 -6.16986e-09 9.67886e-09)
(-1.27903e-08 -5.40612e-09 9.2828e-09)
(1.46969e-08 -8.00494e-09 1.25962e-08)
(1.58065e-09 -9.38304e-09 1.33778e-08)
(1.45109e-09 -1.01931e-08 1.36183e-08)
(-1.11941e-08 -1.04274e-08 1.32952e-08)
(1.54901e-08 -1.15131e-08 1.59774e-08)
(2.2134e-09 -1.35127e-08 1.67672e-08)
(2.57631e-09 -1.45104e-08 1.70519e-08)
(-1.02067e-08 -1.44934e-08 1.68116e-08)
(1.84296e-08 -1.45304e-08 1.86791e-08)
(3.78034e-09 -1.75584e-08 1.94752e-08)
(3.12637e-09 -1.8742e-08 1.97963e-08)
(-1.10118e-08 -1.80541e-08 1.96263e-08)
(2.49673e-08 -1.95958e-08 2.0524e-08)
(6.64848e-09 -2.23317e-08 2.1332e-08)
(2.70648e-09 -2.36895e-08 2.16765e-08)
(-1.5124e-08 -2.3638e-08 2.15491e-08)
(3.49494e-08 -4.50914e-08 2.13652e-08)
(9.86476e-09 -4.29993e-08 2.22079e-08)
(2.17062e-09 -4.43569e-08 2.2554e-08)
(-2.2486e-08 -4.92574e-08 2.24072e-08)
(8.70502e-09 8.20167e-09 1.00726e-09)
(-4.24485e-10 2.09291e-10 1.15804e-09)
(4.25287e-10 8.22859e-11 1.19149e-09)
(-8.36839e-09 7.66799e-09 1.10219e-09)
(1.39512e-08 1.90922e-09 3.48207e-09)
(8.39332e-10 -2.61324e-09 3.78162e-09)
(-3.14214e-10 -2.98077e-09 3.86754e-09)
(-1.29864e-08 7.67113e-10 3.72538e-09)
(1.44846e-08 -4.23393e-09 6.21649e-09)
(1.28976e-09 -6.17956e-09 6.5707e-09)
(1.5145e-10 -6.76002e-09 6.69814e-09)
(-1.26034e-08 -5.96988e-09 6.58127e-09)
(1.43406e-08 -8.81642e-09 8.91214e-09)
(1.47221e-09 -1.01835e-08 9.28032e-09)
(1.26069e-09 -1.09585e-08 9.4431e-09)
(-1.11561e-08 -1.11288e-08 9.38373e-09)
(1.51671e-08 -1.23208e-08 1.13044e-08)
(2.09009e-09 -1.43128e-08 1.16772e-08)
(2.31312e-09 -1.52762e-08 1.1871e-08)
(-1.02875e-08 -1.51949e-08 1.18714e-08)
(1.81049e-08 -1.52539e-08 1.32132e-08)
(3.63105e-09 -1.82691e-08 1.35937e-08)
(2.81195e-09 -1.94207e-08 1.38133e-08)
(-1.11662e-08 -1.86802e-08 1.38609e-08)
(2.46029e-08 -2.02492e-08 1.45383e-08)
(6.46284e-09 -2.29819e-08 1.49333e-08)
(2.36193e-09 -2.43112e-08 1.51696e-08)
(-1.53028e-08 -2.42053e-08 1.52422e-08)
(3.45141e-08 -4.54043e-08 1.52532e-08)
(9.64693e-09 -4.33717e-08 1.56735e-08)
(1.80114e-09 -4.47049e-08 1.59107e-08)
(-2.26487e-08 -4.94969e-08 1.59694e-08)
(8.56217e-09 8.02573e-09 6.36883e-10)
(-4.23654e-10 1.51892e-10 7.03063e-10)
(4.09233e-10 3.06127e-11 7.22236e-10)
(-8.25352e-09 7.51838e-09 6.9096e-10)
(1.3744e-08 1.69043e-09 2.11877e-09)
(8.14515e-10 -2.76595e-09 2.25064e-09)
(-3.5333e-10 -3.11772e-09 2.3e-09)
(-1.28595e-08 6.02414e-10 2.25779e-09)
(1.42982e-08 -4.52385e-09 3.72115e-09)
(1.25308e-09 -6.44813e-09 3.87754e-09)
(6.54381e-11 -7.00718e-09 3.951e-09)
(-1.2554e-08 -6.1913e-09 3.93046e-09)
(1.41861e-08 -9.19552e-09 5.30179e-09)
(1.42799e-09 -1.05567e-08 5.46481e-09)
(1.12103e-09 -1.13082e-08 5.559e-09)
(-1.11977e-08 -1.14345e-08 5.57378e-09)
(1.50284e-08 -1.27643e-08 6.71506e-09)
(2.03333e-09 -1.47492e-08 6.88143e-09)
(2.12757e-09 -1.56893e-08 6.99402e-09)
(-1.04019e-08 -1.55666e-08 7.04374e-09)
(1.79585e-08 -1.574e-08 7.85278e-09)
(3.55443e-09 -1.87422e-08 8.02566e-09)
(2.59357e-09 -1.98721e-08 8.15364e-09)
(-1.13243e-08 -1.90999e-08 8.22985e-09)
(2.44249e-08 -2.0762e-08 8.66236e-09)
(6.36043e-09 -2.34828e-08 8.8463e-09)
(2.12343e-09 -2.47928e-08 8.98426e-09)
(-1.54737e-08 -2.46596e-08 9.07338e-09)
(3.42877e-08 -4.57401e-08 9.14128e-09)
(9.52152e-09 -4.37242e-08 9.33962e-09)
(1.54632e-09 -4.50408e-08 9.47811e-09)
(-2.28091e-08 -4.97829e-08 9.55983e-09)
(8.49914e-09 7.94849e-09 2.16999e-10)
(-4.23093e-10 1.26403e-10 2.35898e-10)
(4.01908e-10 7.91937e-12 2.42145e-10)
(-8.20331e-09 7.45372e-09 2.34558e-10)
(1.36531e-08 1.60135e-09 7.10758e-10)
(8.03847e-10 -2.82715e-09 7.48456e-10)
(-3.72052e-10 -3.17122e-09 7.64553e-10)
(-1.28058e-08 5.39561e-10 7.55957e-10)
(1.42165e-08 -4.63437e-09 1.23876e-09)
(1.23668e-09 -6.54978e-09 1.28357e-09)
(2.44138e-11 -7.09828e-09 1.30757e-09)
(-1.25365e-08 -6.26819e-09 1.30696e-09)
(1.41175e-08 -9.34678e-09 1.7587e-09)
(1.40701e-09 -1.0705e-08 1.80557e-09)
(1.0547e-09 -1.14448e-08 1.8364e-09)
(-1.12223e-08 -1.15493e-08 1.84754e-09)
(1.49652e-08 -1.29624e-08 2.22513e-09)
(2.00508e-09 -1.4943e-08 2.27332e-09)
(2.03938e-09 -1.58714e-08 2.31024e-09)
(-1.04602e-08 -1.57286e-08 2.33276e-09)
(1.78896e-08 -1.59826e-08 2.60314e-09)
(3.51554e-09 -1.89771e-08 2.65387e-09)
(2.48938e-09 -2.0096e-08 2.6959e-09)
(-1.14029e-08 -1.93092e-08 2.72691e-09)
(2.43395e-08 -2.10352e-08 2.87622e-09)
(6.30848e-09 -2.37472e-08 2.93099e-09)
(2.00889e-09 -2.50474e-08 2.97635e-09)
(-1.55585e-08 -2.49032e-08 3.01133e-09)
(3.41783e-08 -4.59393e-08 3.04425e-09)
(9.45776e-09 -4.39246e-08 3.10362e-09)
(1.4236e-09 -4.52329e-08 3.14915e-09)
(-2.28894e-08 -4.9957e-08 3.18191e-09)
)
;

boundaryField
{
    interface
    {
        type            solidTraction;
        traction        nonuniform List<vector> 
192
(
(47.9738 -0.351759 -3.08053)
(49.8558 -0.222375 -4.86542)
(51.1809 0.10728 -5.37009)
(51.9884 0.519289 -5.44442)
(52.115 0.869214 -5.33046)
(52.9013 1.51474 -5.14549)
(51.2096 1.99102 -4.70427)
(54.6528 4.37029 -4.35226)
(46.6682 -0.247761 -1.53159)
(47.5795 -0.131384 -2.59498)
(48.3613 0.170583 -2.83584)
(48.9128 0.59827 -2.81914)
(48.8333 0.974889 -2.69425)
(49.555 1.69339 -2.52911)
(47.6117 2.22413 -2.24432)
(51.2418 4.73391 -2.01042)
(49.3783 -0.212556 -1.214)
(50.1899 -0.0890286 -2.03672)
(50.9679 0.21462 -2.2195)
(51.5268 0.673862 -2.20245)
(51.3484 1.09385 -2.10188)
(51.9718 1.89742 -1.96823)
(49.5595 2.51028 -1.75675)
(52.9687 5.19783 -1.57258)
(49.5552 -0.16106 -0.752125)
(50.173 -0.0185831 -1.32948)
(50.7847 0.287235 -1.45078)
(51.2488 0.758807 -1.42702)
(50.9668 1.19991 -1.34586)
(51.5255 2.04227 -1.24407)
(48.9537 2.69245 -1.10616)
(52.3259 5.43051 -0.989831)
(50.3599 -0.137342 -0.553197)
(50.9179 0.0236329 -0.977636)
(51.4567 0.339727 -1.06756)
(51.8763 0.82569 -1.05012)
(51.5207 1.28799 -0.990339)
(52.0064 2.16348 -0.91444)
(49.2557 2.84814 -0.816521)
(52.4998 5.63469 -0.73136)
(50.5577 -0.118517 -0.341271)
(51.0631 0.0574227 -0.621141)
(51.537 0.381816 -0.680786)
(51.9145 0.876428 -0.667858)
(51.5084 1.35095 -0.627097)
(51.9526 2.24392 -0.576179)
(49.1182 2.94696 -0.514797)
(52.3179 5.75899 -0.462552)
(50.8205 -0.109741 -0.201103)
(51.3065 0.0764751 -0.365305)
(51.7465 0.408152 -0.40067)
(52.1007 0.909564 -0.393307)
(51.6614 1.39322 -0.369744)
(52.0725 2.2983 -0.339671)
(49.1716 3.0144 -0.304657)
(52.3238 5.84499 -0.273399)
(50.8808 -0.104052 -0.060001)
(51.3532 0.087248 -0.1127)
(51.7743 0.42193 -0.124178)
(52.1155 0.925787 -0.121597)
(51.6627 1.41327 -0.113955)
(52.0589 2.32299 -0.10418)
(49.1381 3.04513 -0.0935943)
(52.2666 5.8836 -0.0837046)
(4.45113 0.948631 18.8739)
(7.35252 1.02134 14.27)
(8.26204 0.762913 10.7982)
(8.49168 0.527427 9.77125)
(8.50982 0.437802 9.94303)
(8.52924 0.485334 11.038)
(8.5663 0.599591 13.2921)
(9.23783 0.816495 15.2758)
(2.82208 0.543325 23.9774)
(5.21669 0.700398 22.9323)
(5.89114 0.507985 21.868)
(6.02145 0.264943 21.6301)
(6.03184 0.12 21.7357)
(6.10116 0.0512343 22.1763)
(6.30898 0.0647861 22.9256)
(7.22763 0.150131 23.4605)
(2.9378 0.365048 20.9498)
(5.44576 0.49555 20.1516)
(6.19005 0.338669 19.1867)
(6.34295 0.0931697 18.938)
(6.33982 -0.0855082 19.0625)
(6.36209 -0.23153 19.4789)
(6.48837 -0.318667 20.3013)
(7.33512 -0.327317 21.226)
(3.40981 0.283643 21.5091)
(6.38198 0.374758 21.0218)
(7.31494 0.221003 20.2387)
(7.52218 -0.0332595 20.0899)
(7.5117 -0.222647 20.2467)
(7.52645 -0.407848 20.5496)
(7.56039 -0.552592 21.1161)
(8.41496 -0.702697 21.7846)
(-10.0211 0.92632 1.22024)
(-6.33012 0.901561 2.22606)
(-3.63738 0.387208 2.48996)
(-2.54522 -0.191958 2.5566)
(-2.48458 -0.493438 2.56611)
(-1.40407 -0.939729 2.72101)
(-2.68459 -0.917253 2.78871)
(6.28818 -3.19649 3.28519)
(-16.0221 0.362037 -0.105067)
(-15.2477 0.337126 0.166761)
(-14.5214 0.0486343 0.159561)
(-14.0077 -0.316919 0.146935)
(-13.9743 -0.451535 0.182742)
(-12.3858 -0.768832 0.382105)
(-12.7428 -0.499653 0.607992)
(-2.62623 -2.71211 1.04403)
(-16.1904 0.197363 0.109397)
(-15.6075 0.129742 0.470379)
(-15.0069 -0.0670792 0.565897)
(-14.3852 -0.342541 0.600844)
(-14.2249 -0.387977 0.643991)
(-12.2212 -0.644258 0.785154)
(-12.2592 -0.265939 0.91438)
(-1.15638 -2.64135 1.12357)
(-17.87 0.0945383 0.0159937)
(-17.567 -0.00371148 0.313422)
(-17.2384 -0.142566 0.406529)
(-16.6272 -0.344504 0.441122)
(-16.376 -0.309079 0.476224)
(-14.0187 -0.504663 0.577353)
(-13.6641 -0.0457492 0.662746)
(-1.89958 -2.48561 0.785128)
(-18.1157 0.0779386 0.103416)
(-17.8149 -0.0334694 0.373193)
(-17.4923 -0.155108 0.470653)
(-16.8093 -0.332586 0.506848)
(-16.4803 -0.262637 0.531134)
(-13.9259 -0.437168 0.58882)
(-13.4231 0.0502899 0.622613)
(-1.29057 -2.47174 0.666756)
(-18.605 0.0713579 0.065831)
(-18.3194 -0.0449502 0.25648)
(-18.0092 -0.157272 0.32935)
(-17.283 -0.320352 0.356279)
(-16.8947 -0.227039 0.372914)
(-14.189 -0.386798 0.408879)
(-13.5525 0.119394 0.427218)
(-1.15071 -2.45115 0.449747)
(-18.7165 0.0735701 0.0566567)
(-18.4192 -0.0441972 0.174827)
(-18.0953 -0.153549 0.220617)
(-17.3337 -0.311978 0.237295)
(-16.9091 -0.208576 0.246679)
(-14.1221 -0.363199 0.264473)
(-13.4263 0.150106 0.271374)
(-0.86913 -2.4556 0.277553)
(-18.8346 0.0734726 0.0135064)
(-18.5373 -0.0444904 0.0513199)
(-18.209 -0.151751 0.0664228)
(-17.4317 -0.30729 0.0719352)
(-16.9862 -0.198678 0.0753517)
(-14.1578 -0.349927 0.081359)
(-13.4214 0.166801 0.0845144)
(-0.792465 -2.4545 0.0866904)
(9.27357 -14.8995 -0.729131)
(8.62276 -12.7147 -0.509644)
(8.6196 -10.0493 -0.356832)
(8.65204 -8.33745 -0.230993)
(8.73801 -7.02046 -0.170311)
(8.79106 -6.09313 -0.10493)
(8.83555 -5.50583 -0.0644051)
(8.85487 -5.22264 -0.0191479)
(7.24324 -23.1485 -0.0471176)
(6.32716 -22.5011 0.0415948)
(6.12352 -21.4909 0.0980228)
(6.05498 -20.7328 0.104161)
(6.05476 -20.095 0.0862952)
(6.05197 -19.6267 0.066555)
(6.05959 -19.3207 0.0393875)
(6.06165 -19.16 0.0145039)
(7.34878 -20.9256 0.439491)
(6.49644 -19.8825 0.435139)
(6.36978 -18.8005 0.391095)
(6.35204 -18.0631 0.314441)
(6.38128 -17.4117 0.243551)
(6.396 -16.975 0.170061)
(6.41317 -16.6734 0.100676)
(6.41894 -16.5343 0.0332512)
(8.40743 -21.5128 0.816102)
(7.54535 -20.7482 0.670449)
(7.50872 -19.9843 0.562895)
(7.5049 -19.461 0.437216)
(7.56277 -18.9385 0.337918)
(7.5907 -18.6175 0.232185)
(7.61978 -18.3774 0.139035)
(7.63071 -18.2681 0.0453139)
)
;
        pressure        uniform 0;
        secondOrder     false;
        setEffectiveTraction false;
        relaxationFactor 1;
        value           nonuniform List<vector> 
192
(
(7.76502e-08 4.47427e-08 1.99444e-08)
(8.56899e-08 2.811e-08 3.60696e-08)
(8.82321e-08 1.54863e-08 4.37238e-08)
(8.97585e-08 7.78427e-09 4.92616e-08)
(9.27878e-08 2.05344e-09 5.47108e-08)
(9.87597e-08 -3.22067e-09 6.11055e-08)
(1.09014e-07 -1.221e-08 6.93945e-08)
(1.24796e-07 -5.00727e-08 7.90407e-08)
(6.3472e-08 2.48578e-08 4.09177e-10)
(6.97044e-08 1.48333e-08 9.25057e-09)
(7.12654e-08 7.18526e-09 1.67682e-08)
(7.22974e-08 1.63486e-09 2.23141e-08)
(7.50476e-08 -3.19152e-09 2.72246e-08)
(8.10124e-08 -7.70036e-09 3.24184e-08)
(9.18537e-08 -1.44646e-08 3.78424e-08)
(1.09793e-07 -4.59468e-08 4.11671e-08)
(5.42318e-08 1.78417e-08 -5.49797e-11)
(5.97206e-08 7.87308e-09 5.68027e-09)
(6.10271e-08 1.21867e-09 1.23366e-08)
(6.19307e-08 -3.21137e-09 1.79844e-08)
(6.45802e-08 -6.87154e-09 2.28113e-08)
(7.05829e-08 -9.90387e-09 2.72121e-08)
(8.17378e-08 -1.45906e-08 3.07975e-08)
(1.00296e-07 -4.31336e-08 3.20638e-08)
(4.91171e-08 1.54035e-08 7.69117e-10)
(5.40154e-08 5.00308e-09 5.11163e-09)
(5.53092e-08 -1.99986e-09 1.04323e-08)
(5.62731e-08 -6.24103e-09 1.54153e-08)
(5.89454e-08 -9.19602e-09 1.97026e-08)
(6.49838e-08 -1.11992e-08 2.32436e-08)
(7.6227e-08 -1.48536e-08 2.57358e-08)
(9.48694e-08 -4.21413e-08 2.66077e-08)
(4.63859e-08 1.43744e-08 1.03117e-09)
(5.0998e-08 3.85225e-09 4.39426e-09)
(5.23381e-08 -3.48925e-09 8.37229e-09)
(5.33996e-08 -7.8569e-09 1.22648e-08)
(5.61297e-08 -1.05797e-08 1.56663e-08)
(6.21847e-08 -1.21607e-08 1.8371e-08)
(7.34028e-08 -1.54654e-08 2.01994e-08)
(9.19458e-08 -4.21106e-08 2.10029e-08)
(4.48742e-08 1.38657e-08 8.98684e-10)
(4.93763e-08 3.35413e-09 3.31973e-09)
(5.07637e-08 -4.13652e-09 6.06631e-09)
(5.18994e-08 -8.64565e-09 8.78431e-09)
(5.46732e-08 -1.13795e-08 1.11888e-08)
(6.0725e-08 -1.28945e-08 1.30953e-08)
(7.18841e-08 -1.61464e-08 1.44026e-08)
(9.03082e-08 -4.24371e-08 1.50877e-08)
(4.40414e-08 1.36023e-08 5.85379e-10)
(4.84981e-08 3.12446e-09 2.0442e-09)
(4.99159e-08 -4.41326e-09 3.65407e-09)
(5.1094e-08 -9.01283e-09 5.24597e-09)
(5.38902e-08 -1.1821e-08 6.66453e-09)
(5.99309e-08 -1.33905e-08 7.79891e-09)
(7.10388e-08 -1.66792e-08 8.59647e-09)
(8.93755e-08 -4.27863e-08 9.05728e-09)
(4.36648e-08 1.34865e-08 2.01233e-10)
(4.81019e-08 3.03071e-09 6.88028e-10)
(4.95328e-08 -4.5182e-09 1.21832e-09)
(5.07289e-08 -9.15946e-09 1.74155e-09)
(5.35335e-08 -1.20192e-08 2.20931e-09)
(5.95659e-08 -1.36387e-08 2.5859e-09)
(7.0646e-08 -1.69625e-08 2.85485e-09)
(8.89385e-08 -4.29932e-08 3.0169e-09)
(2.03418e-08 4.67323e-08 8.14778e-08)
(3.22709e-08 3.10458e-08 9.47238e-08)
(3.37841e-08 1.84998e-08 1.03652e-07)
(3.36548e-08 1.03429e-08 1.10947e-07)
(3.45569e-08 4.04031e-09 1.18597e-07)
(3.75444e-08 -1.90321e-09 1.27988e-07)
(4.39556e-08 -1.17734e-08 1.40153e-07)
(5.38029e-08 -5.04736e-08 1.55941e-07)
(1.41115e-09 3.22347e-08 7.38762e-08)
(5.21589e-09 2.33636e-08 8.699e-08)
(6.44713e-09 1.55279e-08 9.51698e-08)
(6.83588e-09 8.65713e-09 1.01939e-07)
(7.6333e-09 1.90584e-09 1.09286e-07)
(9.36167e-09 -4.9608e-09 1.18582e-07)
(1.23881e-08 -1.43528e-08 1.31214e-07)
(1.58391e-08 -4.84399e-08 1.4929e-07)
(-8.15988e-10 3.2113e-08 7.33194e-08)
(-2.90588e-09 2.29854e-08 8.6617e-08)
(-2.15373e-09 1.48997e-08 9.49281e-08)
(-3.40125e-10 7.80688e-09 1.01796e-07)
(1.29562e-09 8.5335e-10 1.09218e-07)
(2.24192e-09 -6.20967e-09 1.18575e-07)
(2.12436e-09 -1.57938e-08 1.31262e-07)
(1.72257e-09 -4.99199e-08 1.49421e-07)
(-1.93598e-08 4.61021e-08 8.00356e-08)
(-2.94727e-08 2.96901e-08 9.39147e-08)
(-2.9028e-08 1.64625e-08 1.03235e-07)
(-2.67093e-08 7.68385e-09 1.10822e-07)
(-2.51773e-08 8.11378e-10 1.18699e-07)
(-2.54976e-08 -5.67967e-09 1.28275e-07)
(-2.90475e-08 -1.60969e-08 1.406e-07)
(-3.59114e-08 -5.50146e-08 1.56625e-07)
(-7.41456e-08 4.29687e-08 2.03307e-08)
(-8.05052e-08 2.56299e-08 3.72403e-08)
(-8.11817e-08 1.22782e-08 4.54942e-08)
(-8.05772e-08 3.87072e-09 5.14717e-08)
(-8.12162e-08 -2.52877e-09 5.72577e-08)
(-8.45695e-08 -8.44567e-09 6.39281e-08)
(-9.20601e-08 -1.80467e-08 7.24536e-08)
(-1.05028e-07 -5.61398e-08 8.22699e-08)
(-6.00187e-08 2.33407e-08 8.86907e-10)
(-6.49557e-08 1.24954e-08 1.04157e-08)
(-6.49231e-08 4.06547e-09 1.84597e-08)
(-6.4022e-08 -2.20967e-09 2.44133e-08)
(-6.4522e-08 -7.71436e-09 2.96462e-08)
(-6.79618e-08 -1.28695e-08 3.51012e-08)
(-7.61064e-08 -2.02319e-08 4.07277e-08)
(-9.13393e-08 -5.18984e-08 4.41576e-08)
(-5.10026e-08 1.65732e-08 2.99552e-10)
(-5.54305e-08 5.79423e-09 6.56625e-09)
(-5.53626e-08 -1.66984e-09 1.36433e-08)
(-5.4517e-08 -6.85596e-09 1.96369e-08)
(-5.50594e-08 -1.12207e-08 2.47503e-08)
(-5.86395e-08 -1.49168e-08 2.93846e-08)
(-6.71642e-08 -2.02063e-08 3.31413e-08)
(-8.30627e-08 -4.89244e-08 3.44812e-08)
(-4.60916e-08 1.4323e-08 1.02214e-09)
(-5.0112e-08 3.16167e-09 5.7575e-09)
(-5.02028e-08 -4.64492e-09 1.13998e-08)
(-4.95723e-08 -9.65844e-09 1.66592e-08)
(-5.0267e-08 -1.33413e-08 2.11846e-08)
(-5.39828e-08 -1.60299e-08 2.49226e-08)
(-6.2665e-08 -2.03043e-08 2.75576e-08)
(-7.86899e-08 -4.77805e-08 2.84883e-08)
(-4.35028e-08 1.3427e-08 1.20622e-09)
(-4.73675e-08 2.1946e-09 4.84718e-09)
(-4.76323e-08 -5.93065e-09 9.05962e-09)
(-4.72211e-08 -1.10733e-08 1.31605e-08)
(-4.8081e-08 -1.4539e-08 1.67469e-08)
(-5.19017e-08 -1.68249e-08 1.96074e-08)
(-6.06249e-08 -2.07694e-08 2.15499e-08)
(-7.6595e-08 -4.76215e-08 2.2401e-08)
(-4.2081e-08 1.30067e-08 1.01277e-09)
(-4.59214e-08 1.82586e-09 3.61728e-09)
(-4.63224e-08 -6.42749e-09 6.52223e-09)
(-4.60738e-08 -1.17078e-08 9.38468e-09)
(-4.70593e-08 -1.51925e-08 1.19202e-08)
(-5.09466e-08 -1.74265e-08 1.39391e-08)
(-5.96661e-08 -2.13347e-08 1.53297e-08)
(-7.5557e-08 -4.78483e-08 1.60503e-08)
(-4.13003e-08 1.27967e-08 6.49699e-10)
(-4.51466e-08 1.67752e-09 2.21267e-09)
(-4.56335e-08 -6.6068e-09 3.91378e-09)
(-4.54847e-08 -1.19726e-08 5.59036e-09)
(-4.65473e-08 -1.5535e-08 7.08695e-09)
(-5.04717e-08 -1.78321e-08 8.28907e-09)
(-5.9179e-08 -2.17883e-08 9.13732e-09)
(-7.50119e-08 -4.81295e-08 9.62004e-09)
(-4.09476e-08 1.2706e-08 2.22008e-10)
(-4.47983e-08 1.62286e-09 7.42547e-10)
(-4.53248e-08 -6.66411e-09 1.30261e-09)
(-4.52221e-08 -1.20684e-08 1.85371e-09)
(-4.63203e-08 -1.56835e-08 2.34736e-09)
(-5.02609e-08 -1.80347e-08 2.74657e-09)
(-5.89607e-08 -2.20316e-08 3.03254e-09)
(-7.47647e-08 -4.83021e-08 3.20199e-09)
(5.41599e-08 -1.27367e-07 8.18359e-08)
(4.50806e-08 -1.17112e-07 4.31146e-08)
(3.94054e-08 -1.10465e-07 3.31787e-08)
(3.6903e-08 -1.06589e-07 2.72426e-08)
(3.59182e-08 -1.04615e-07 2.14342e-08)
(3.5491e-08 -1.03693e-07 1.54154e-08)
(3.5262e-08 -1.03301e-07 9.27502e-09)
(3.51491e-08 -1.03162e-07 3.09405e-09)
(1.61858e-08 -1.21408e-07 7.91244e-08)
(1.34951e-08 -1.08899e-07 4.50551e-08)
(1.12232e-08 -1.01829e-07 3.56923e-08)
(1.01261e-08 -9.80728e-08 2.89049e-08)
(9.68212e-09 -9.62978e-08 2.23232e-08)
(9.47306e-09 -9.55006e-08 1.58547e-08)
(9.34769e-09 -9.51616e-08 9.47786e-09)
(9.28216e-09 -9.50396e-08 3.15372e-09)
(2.07664e-09 -1.2223e-07 7.99187e-08)
(3.22046e-09 -1.09656e-07 4.58198e-08)
(4.13508e-09 -1.02551e-07 3.62917e-08)
(4.13611e-09 -9.87625e-08 2.93587e-08)
(3.7362e-09 -9.69587e-08 2.26554e-08)
(3.3335e-09 -9.61386e-08 1.60817e-08)
(3.06206e-09 -9.5784e-08 9.61015e-09)
(2.93275e-09 -9.56541e-08 3.19718e-09)
(-3.55503e-08 -1.30144e-07 8.42937e-08)
(-2.79609e-08 -1.19698e-07 4.53711e-08)
(-2.36077e-08 -1.12945e-07 3.49521e-08)
(-2.22046e-08 -1.0897e-07 2.85994e-08)
(-2.20776e-08 -1.0691e-07 2.24343e-08)
(-2.22738e-08 -1.05921e-07 1.61009e-08)
(-2.2449e-08 -1.05482e-07 9.67488e-09)
(-2.25346e-08 -1.0532e-07 3.22544e-09)
)
;
        gradient        nonuniform List<vector> 
192
(
(4.60283e-06 1.03719e-06 -1.17024e-07)
(4.3156e-06 2.6172e-07 -1.87223e-07)
(4.4025e-06 2.69413e-08 -2.00944e-07)
(4.53333e-06 1.63434e-08 -2.03904e-07)
(4.70161e-06 7.87622e-08 -2.06091e-07)
(4.93842e-06 1.88398e-07 -2.07224e-07)
(5.24618e-06 3.23125e-07 -2.06556e-07)
(5.72891e-06 2.34035e-07 -2.0458e-07)
(3.90019e-06 7.63167e-07 -1.77377e-07)
(3.70124e-06 1.92078e-07 -2.74891e-07)
(3.75535e-06 1.17472e-08 -2.92353e-07)
(3.86171e-06 9.43754e-09 -2.97032e-07)
(4.0202e-06 7.352e-08 -3.01256e-07)
(4.26487e-06 1.87119e-07 -3.0346e-07)
(4.6163e-06 3.29905e-07 -3.00828e-07)
(5.24782e-06 2.36382e-07 -2.9355e-07)
(3.43879e-06 5.84976e-07 -1.01267e-07)
(3.33748e-06 1.46763e-07 -1.5985e-07)
(3.39536e-06 4.80411e-09 -1.67569e-07)
(3.49508e-06 7.44014e-09 -1.67239e-07)
(3.64988e-06 7.23343e-08 -1.67719e-07)
(3.89798e-06 1.88826e-07 -1.67319e-07)
(4.26729e-06 3.33034e-07 -1.65008e-07)
(4.94304e-06 2.38189e-07 -1.64672e-07)
(3.1568e-06 5.02093e-07 -4.50227e-08)
(3.08542e-06 1.2579e-07 -7.22001e-08)
(3.14901e-06 4.362e-09 -7.37505e-08)
(3.2486e-06 9.28849e-09 -7.0922e-08)
(3.40279e-06 7.34398e-08 -6.93482e-08)
(3.65176e-06 1.89831e-07 -6.85857e-08)
(4.02611e-06 3.32553e-07 -6.86022e-08)
(4.71254e-06 2.38925e-07 -7.11884e-08)
(2.99117e-06 4.67782e-07 -1.9048e-08)
(2.92841e-06 1.18046e-07 -2.99429e-08)
(2.99516e-06 6.08501e-09 -2.92538e-08)
(3.09622e-06 1.1843e-08 -2.65145e-08)
(3.25116e-06 7.46708e-08 -2.48816e-08)
(3.50041e-06 1.89573e-07 -2.46506e-08)
(3.87484e-06 3.30432e-07 -2.59665e-08)
(4.55972e-06 2.38467e-07 -2.89798e-08)
(2.89354e-06 4.53123e-07 -8.68614e-09)
(2.83401e-06 1.15592e-07 -1.29868e-08)
(2.90233e-06 7.79253e-09 -1.20151e-08)
(3.00471e-06 1.36612e-08 -1.02261e-08)
(3.16049e-06 7.5304e-08 -9.24308e-09)
(3.40961e-06 1.88746e-07 -9.42941e-09)
(3.7825e-06 3.28224e-07 -1.08553e-08)
(4.46353e-06 2.37375e-07 -1.32403e-08)
(2.83834e-06 4.46122e-07 -4.12032e-09)
(2.78033e-06 1.14722e-07 -5.9659e-09)
(2.84942e-06 8.84716e-09 -5.36653e-09)
(2.95263e-06 1.46154e-08 -4.4655e-09)
(3.10895e-06 7.54677e-08 -4.04271e-09)
(3.35779e-06 1.87961e-07 -4.30924e-09)
(3.72911e-06 3.26622e-07 -5.27185e-09)
(4.40702e-06 2.36307e-07 -6.72011e-09)
(2.81325e-06 4.43045e-07 -1.2613e-09)
(2.7559e-06 1.14349e-07 -1.81842e-09)
(2.8253e-06 9.2938e-09 -1.63527e-09)
(2.92891e-06 1.49852e-08 -1.37206e-09)
(3.08547e-06 7.54604e-08 -1.26552e-09)
(3.3341e-06 1.87517e-07 -1.37941e-09)
(3.70452e-06 3.25814e-07 -1.70913e-09)
(4.38081e-06 2.35685e-07 -2.18804e-09)
(1.81613e-08 1.19636e-06 4.80565e-06)
(4.20771e-08 4.96581e-07 4.50511e-06)
(4.66569e-08 2.68021e-07 4.59327e-06)
(4.50345e-08 2.21034e-07 4.73089e-06)
(4.31386e-08 2.37712e-07 4.90477e-06)
(4.1195e-08 2.93795e-07 5.14338e-06)
(4.15208e-08 3.58051e-07 5.4541e-06)
(4.94824e-08 2.0196e-07 5.94747e-06)
(-3.89618e-08 1.10431e-06 4.35916e-06)
(-4.62455e-08 4.83063e-07 4.09293e-06)
(-4.54004e-08 2.6262e-07 4.13042e-06)
(-4.6251e-08 2.14935e-07 4.23843e-06)
(-4.75413e-08 2.32208e-07 4.39997e-06)
(-4.8653e-08 2.91939e-07 4.64097e-06)
(-4.67649e-08 3.67644e-07 4.98647e-06)
(-3.69289e-08 2.08286e-07 5.6271e-06)
(4.63482e-08 1.11103e-06 4.30897e-06)
(6.9713e-08 4.90095e-07 4.04182e-06)
(8.11871e-08 2.67999e-07 4.07731e-06)
(9.09474e-08 2.18885e-07 4.18416e-06)
(9.90156e-08 2.35302e-07 4.34497e-06)
(1.0571e-07 2.94559e-07 4.58525e-06)
(1.08675e-07 3.69748e-07 4.9302e-06)
(1.02264e-07 2.09127e-07 5.5739e-06)
(-9.91949e-09 1.22026e-06 4.66667e-06)
(-1.83986e-08 5.17855e-07 4.36834e-06)
(-1.12648e-08 2.83839e-07 4.45126e-06)
(-9.57795e-10 2.32758e-07 4.58555e-06)
(7.6314e-09 2.46966e-07 4.75728e-06)
(1.50262e-08 3.0159e-07 4.99391e-06)
(1.93116e-08 3.64178e-07 5.30299e-06)
(1.47704e-08 2.04288e-07 5.80517e-06)
(-4.39279e-06 9.69582e-07 -1.09728e-07)
(-4.101e-06 1.9304e-07 -1.65615e-07)
(-4.18356e-06 -5.09032e-08 -1.68042e-07)
(-4.31039e-06 -7.22926e-08 -1.62444e-07)
(-4.47548e-06 -2.02452e-08 -1.58003e-07)
(-4.71073e-06 8.03105e-08 -1.53807e-07)
(-5.0217e-06 2.08199e-07 -1.48711e-07)
(-5.51459e-06 1.1427e-07 -1.43207e-07)
(-3.68177e-06 7.08345e-07 -1.71296e-07)
(-3.48282e-06 1.35375e-07 -2.5714e-07)
(-3.53264e-06 -5.64618e-08 -2.64669e-07)
(-3.63398e-06 -7.17045e-08 -2.61329e-07)
(-3.78736e-06 -1.96017e-08 -2.59163e-07)
(-4.02753e-06 8.37623e-08 -2.56271e-07)
(-4.37901e-06 2.18926e-07 -2.49517e-07)
(-5.02201e-06 1.19741e-07 -2.38739e-07)
(-3.22653e-06 5.41134e-07 -9.60271e-08)
(-3.1236e-06 9.96537e-08 -1.45682e-07)
(-3.17672e-06 -5.5098e-08 -1.45365e-07)
(-3.2709e-06 -6.67885e-08 -1.38033e-07)
(-3.41959e-06 -1.51883e-08 -1.32659e-07)
(-3.66143e-06 8.99546e-08 -1.27501e-07)
(-4.02813e-06 2.25731e-07 -1.21357e-07)
(-4.71235e-06 1.24853e-07 -1.1779e-07)
(-2.95172e-06 4.66623e-07 -4.11948e-08)
(-2.87808e-06 8.60264e-08 -6.18649e-08)
(-2.93651e-06 -4.88167e-08 -5.72606e-08)
(-3.03016e-06 -5.89994e-08 -4.87265e-08)
(-3.17762e-06 -9.06958e-09 -4.21479e-08)
(-3.41926e-06 9.5064e-08 -3.71888e-08)
(-3.78918e-06 2.28638e-07 -3.37632e-08)
(-4.48127e-06 1.28666e-07 -3.34361e-08)
(-2.79132e-06 4.38068e-07 -1.65328e-08)
(-2.72603e-06 8.35806e-08 -2.29863e-08)
(-2.78736e-06 -4.19624e-08 -1.78544e-08)
(-2.88216e-06 -5.16765e-08 -1.07769e-08)
(-3.02994e-06 -3.65074e-09 -5.17619e-09)
(-3.2712e-06 9.83396e-08 -1.50914e-09)
(-3.64007e-06 2.29485e-07 5.96874e-11)
(-4.32872e-06 1.30869e-07 -4.96917e-10)
(-2.69701e-06 4.27097e-07 -7.15417e-09)
(-2.63479e-06 8.46994e-08 -8.64811e-09)
(-2.69752e-06 -3.66092e-08 -4.72294e-09)
(-2.79342e-06 -4.63216e-08 7.57643e-11)
(-2.94174e-06 1.98176e-10 3.90726e-09)
(-3.18243e-06 1.003e-07 6.25536e-09)
(-3.54906e-06 2.29652e-07 6.99809e-09)
(-4.23266e-06 1.31886e-07 6.46758e-09)
(-2.64374e-06 4.22262e-07 -3.30089e-09)
(-2.58297e-06 8.60082e-08 -3.60956e-09)
(-2.64636e-06 -3.32398e-08 -1.33454e-09)
(-2.74296e-06 -4.30466e-08 1.32652e-09)
(-2.89164e-06 2.52888e-09 3.4561e-09)
(-3.13179e-06 1.01431e-07 4.73737e-09)
(-3.49643e-06 2.29698e-07 5.11577e-09)
(-4.17623e-06 1.32274e-07 4.81682e-09)