/*--------------------------------*- C++ -*----------------------------------*\
| =========                 |                                                 |
| \\      /  F ield         | OpenFOAM: The Open Source CFD Toolbox           |
|  \\    /   O peration     | Version:  v1912                                 |
|   \\  /    A nd           | Website:  www.openfoam.com                      |
|    \\/     M anipulation  |                                                 |
\*---------------------------------------------------------------------------*/
FoamFile
{
    version     2.0;
    format      ascii;
    class       volScalarField;
    location    "0.47/solid";
    object      epsilonEq;
}
// * * * * * * * * * * * * * * * * * * * * * * * * * * * * * * * * * * * * * //

dimensions      [0 0 0 0 0 0 0];


internalField   nonuniform List<scalar> 
256
(
2.57985e-06
1.88821e-06
1.86654e-06
2.48548e-06
1.59599e-06
1.41539e-06
1.39585e-06
1.51799e-06
1.61938e-06
1.3731e-06
1.35359e-06
1.54188e-06
1.70291e-06
1.39593e-06
1.37656e-06
1.62548e-06
1.77659e-06
1.44504e-06
1.42568e-06
1.69895e-06
1.81709e-06
1.50046e-06
1.481e-06
1.73913e-06
1.56379e-06
1.43486e-06
1.4174e-06
1.49171e-06
1.80008e-07
1.60558e-06
1.59274e-06
1.96262e-07
1.63617e-06
3.62375e-07
3.53114e-07
1.53643e-06
1.26426e-06
3.51911e-07
3.42858e-07
1.17273e-06
1.25367e-06
2.73595e-07
2.66203e-07
1.16253e-06
1.27857e-06
2.00001e-07
1.94278e-07
1.18642e-06
1.32449e-06
1.69235e-07
1.64809e-07
1.23077e-06
1.38745e-06
1.72904e-07
1.68834e-07
1.29223e-06
1.3403e-06
8.08157e-08
8.58075e-08
1.24788e-06
1.56348e-06
1.43617e-06
1.41894e-06
1.49196e-06
1.41441e-06
2.00119e-07
1.95678e-07
1.3199e-06
1.22056e-06
2.18325e-07
2.09183e-07
1.13094e-06
1.22211e-06
1.6906e-07
1.59662e-07
1.13078e-06
1.24555e-06
1.09883e-07
1.0067e-07
1.15221e-06
1.29296e-06
8.608e-08
7.75168e-08
1.19727e-06
1.36841e-06
1.0174e-07
9.32513e-08
1.27047e-06
1.38618e-06
1.66972e-07
1.6397e-07
1.29117e-06
1.81752e-06
1.50333e-06
1.48434e-06
1.74117e-06
1.27988e-06
1.75349e-07
1.72291e-07
1.19097e-06
1.13134e-06
1.81871e-07
1.74934e-07
1.04668e-06
1.13919e-06
1.41298e-07
1.3374e-07
1.05166e-06
1.16375e-06
9.43391e-08
8.73523e-08
1.07341e-06
1.21217e-06
7.42004e-08
6.78143e-08
1.11889e-06
1.29037e-06
8.56621e-08
7.78357e-08
1.19427e-06
1.32109e-06
1.51722e-07
1.49292e-07
1.2276e-06
1.78355e-06
1.452e-06
1.43341e-06
1.70885e-06
1.20218e-06
1.53592e-07
1.49911e-07
1.11692e-06
1.06649e-06
1.61538e-07
1.55318e-07
9.85127e-07
1.07894e-06
1.28901e-07
1.22223e-07
9.94278e-07
1.10617e-06
8.89448e-08
8.26335e-08
1.0182e-06
1.15678e-06
7.18322e-08
6.54982e-08
1.06548e-06
1.23668e-06
8.23398e-08
7.40635e-08
1.14224e-06
1.27158e-06
1.49357e-07
1.47178e-07
1.17962e-06
1.73121e-06
1.40742e-06
1.38918e-06
1.65816e-06
1.15766e-06
1.38198e-07
1.3365e-07
1.07469e-06
1.02667e-06
1.48348e-07
1.42008e-07
9.47233e-07
1.04199e-06
1.20381e-07
1.13619e-07
9.5909e-07
1.07166e-06
8.2908e-08
7.6005e-08
9.85182e-07
1.12422e-06
6.6776e-08
5.91072e-08
1.03419e-06
1.20534e-06
8.06047e-08
7.1374e-08
1.112e-06
1.24237e-06
1.54844e-07
1.52707e-07
1.15152e-06
1.6952e-06
1.37791e-06
1.3599e-06
1.62333e-06
1.13295e-06
1.28214e-07
1.22956e-07
1.05132e-06
1.00408e-06
1.39598e-07
1.32947e-07
9.25728e-07
1.02096e-06
1.13613e-07
1.06467e-07
9.39065e-07
1.05221e-06
7.69363e-08
6.91673e-08
9.66622e-07
1.10603e-06
6.15006e-08
5.24108e-08
1.01677e-06
1.18789e-06
7.9388e-08
6.95173e-08
1.09522e-06
1.22622e-06
1.59957e-07
1.57873e-07
1.13608e-06
1.67438e-06
1.36018e-06
1.34232e-06
1.60327e-06
1.12181e-06
1.23134e-07
1.17474e-07
1.0408e-06
9.93836e-07
1.35023e-07
1.28156e-07
9.15979e-07
1.01139e-06
1.09697e-07
1.02266e-07
9.29959e-07
1.04339e-06
7.32349e-08
6.48716e-08
9.58217e-07
1.0978e-06
5.83216e-08
4.83391e-08
1.0089e-06
1.17999e-06
7.86763e-08
6.85234e-08
1.08763e-06
1.21896e-06
1.62568e-07
1.6053e-07
1.12916e-06
1.665e-06
1.3519e-06
1.33411e-06
1.59427e-06
)
;

boundaryField
{
    interface
    {
        type            calculated;
        value           nonuniform List<scalar> 
192
(
3.38701e-06
2.31848e-06
2.36077e-06
2.47496e-06
2.58382e-06
2.6706e-06
2.4875e-06
1.35051e-06
2.70856e-06
2.22262e-06
2.23185e-06
2.30089e-06
2.39936e-06
2.52833e-06
2.55866e-06
2.4878e-06
2.40342e-06
2.11882e-06
2.14118e-06
2.20588e-06
2.30441e-06
2.4453e-06
2.52903e-06
2.67284e-06
2.19427e-06
1.9667e-06
1.99773e-06
2.06281e-06
2.16149e-06
2.30486e-06
2.40191e-06
2.59477e-06
2.06955e-06
1.85933e-06
1.8954e-06
1.96268e-06
2.0629e-06
2.20762e-06
2.30909e-06
2.51238e-06
1.9966e-06
1.7931e-06
1.83185e-06
1.90115e-06
2.0029e-06
2.14843e-06
2.25153e-06
2.45686e-06
1.95571e-06
1.75534e-06
1.79544e-06
1.86605e-06
1.96882e-06
2.11474e-06
2.21846e-06
2.42431e-06
1.93723e-06
1.73821e-06
1.77886e-06
1.8501e-06
1.95333e-06
2.0994e-06
2.20333e-06
2.40943e-06
3.4756e-06
2.41518e-06
2.4587e-06
2.57531e-06
2.68648e-06
2.77528e-06
2.60216e-06
1.53161e-06
3.07381e-06
2.47409e-06
2.45263e-06
2.51899e-06
2.6193e-06
2.74161e-06
2.75706e-06
2.64126e-06
3.03702e-06
2.43902e-06
2.41661e-06
2.48251e-06
2.58248e-06
2.70436e-06
2.72089e-06
2.6146e-06
3.35979e-06
2.31874e-06
2.3608e-06
2.47628e-06
2.58667e-06
2.67469e-06
2.50688e-06
1.499e-06
3.24134e-06
2.18304e-06
2.22425e-06
2.3373e-06
2.44494e-06
2.53067e-06
2.3518e-06
1.25352e-06
2.54377e-06
2.06553e-06
2.07301e-06
2.13916e-06
2.23439e-06
2.36038e-06
2.39295e-06
2.35213e-06
2.24472e-06
1.96453e-06
1.98361e-06
2.04456e-06
2.13894e-06
2.2756e-06
2.36043e-06
2.53323e-06
2.04272e-06
1.81858e-06
1.84539e-06
1.90603e-06
1.9999e-06
2.13822e-06
2.23537e-06
2.45661e-06
1.92295e-06
1.71561e-06
1.74704e-06
1.80939e-06
1.90436e-06
2.04352e-06
2.1445e-06
2.37572e-06
1.85314e-06
1.6521e-06
1.68599e-06
1.75009e-06
1.84629e-06
1.98595e-06
2.08823e-06
2.32122e-06
1.8141e-06
1.61593e-06
1.65105e-06
1.71631e-06
1.81336e-06
1.95322e-06
2.05594e-06
2.28933e-06
1.79647e-06
1.59952e-06
1.63516e-06
1.70097e-06
1.79841e-06
1.93834e-06
2.04119e-06
2.27476e-06
1.53317e-06
2.6031e-06
2.77786e-06
2.69804e-06
2.61446e-06
2.5577e-06
2.52426e-06
2.50894e-06
2.64238e-06
2.75956e-06
2.74721e-06
2.63231e-06
2.54447e-06
2.48692e-06
2.45234e-06
2.43613e-06
2.61557e-06
2.72335e-06
2.70997e-06
2.59557e-06
2.50808e-06
2.45073e-06
2.41628e-06
2.40012e-06
1.49976e-06
2.50775e-06
2.67799e-06
2.59989e-06
2.51783e-06
2.46214e-06
2.42939e-06
2.41441e-06
)
;
    }
    symmetry
    {
        type            symmetry;
    }
    bottom
    {
        type            calculated;
        value           nonuniform List<scalar> 
32
(
3.57157e-06
2.02575e-06
1.66378e-06
1.50378e-06
1.41816e-06
1.36919e-06
1.34188e-06
1.32956e-06
2.33221e-06
4.54565e-07
2.17366e-07
1.96572e-07
1.80388e-07
1.67439e-07
1.58715e-07
1.54285e-07
2.3085e-06
4.42105e-07
2.07595e-07
1.87775e-07
1.70789e-07
1.56999e-07
1.47635e-07
1.42849e-07
3.46246e-06
1.91775e-06
1.562e-06
1.40872e-06
1.32773e-06
1.28173e-06
1.25617e-06
1.24466e-06
)
;
    }
}


// ************************************************************************* //
