/*--------------------------------*- C++ -*----------------------------------*\
| =========                 |                                                 |
| \\      /  F ield         | OpenFOAM: The Open Source CFD Toolbox           |
|  \\    /   O peration     | Version:  v1912                                 |
|   \\  /    A nd           | Website:  www.openfoam.com                      |
|    \\/     M anipulation  |                                                 |
\*---------------------------------------------------------------------------*/
FoamFile
{
    version     2.0;
    format      ascii;
    class       volVectorField;
    location    "0.47/solid";
    object      heatFlux;
}
// * * * * * * * * * * * * * * * * * * * * * * * * * * * * * * * * * * * * * //

dimensions      [1 0 -3 0 0 0 0];


internalField   nonuniform List<vector> 
256
(
(-72485.9 59593.8 -77159.1)
(-12445.2 32660.2 -73856.5)
(11877.3 32454.1 -72928.9)
(68342.4 58581.3 -74288.1)
(-71147.9 6118.5 -75998.5)
(-14694.4 3572.22 -74537.2)
(14043.8 3549.03 -73551.8)
(66782 6029.94 -72979.8)
(-72436.5 1304.44 -77353.5)
(-15014.7 711.652 -75967)
(14335 702.662 -74937.7)
(67970 1264.44 -74215.6)
(-74404.2 1506.17 -79346.5)
(-15296.2 803.158 -77954.4)
(14596.6 797.962 -76899.3)
(69847.3 1478.07 -76135.6)
(-77338.9 2592.14 -82297.7)
(-15722.9 1486.79 -80989.6)
(15009.9 1483.63 -79919)
(72711.2 2576.44 -79041)
(-81865.7 6133.08 -86870.6)
(-16404.7 4410.59 -85938.5)
(15686.2 4401.52 -84854.6)
(77200.6 6118.82 -83576.2)
(-88138.9 24811.4 -93354.9)
(-17454.4 22986.4 -93582.3)
(16718.2 22866.6 -92480.4)
(83492.1 24503.7 -90010.3)
(-87564.2 93569.7 -93526.2)
(-18349.5 96238.5 -96205.2)
(17203.6 95156.1 -95130.1)
(82840.4 90306.4 -90289.8)
(-66547.4 29718.8 -16126.3)
(-10752.5 6057.08 -13445.7)
(10531.2 6050.34 -13348.7)
(62522.3 29274 -15849)
(-67199.6 3298.74 -19146.1)
(-12916 831.641 -16236.1)
(12685.7 832.424 -16118.3)
(63028.5 3277.97 -18808.6)
(-68578.6 695.087 -19535.5)
(-13218.8 131.886 -16596.6)
(12977.6 130.084 -16473.4)
(64308.5 672.798 -19184.1)
(-70543.7 808.649 -19843.7)
(-13481 130.363 -16878.6)
(13226.6 128.267 -16753)
(66172.2 784.772 -19487.9)
(-73568.5 1490.55 -20306.3)
(-13899.2 352.961 -17326.3)
(13632 350.737 -17200)
(69098.9 1469.53 -19952.7)
(-78488.8 4343.58 -21055.9)
(-14620.8 2379.2 -18116)
(14343.1 2369.54 -17989.9)
(73934.7 4316.2 -20710.9)
(-85969.9 22360.2 -22350.1)
(-15873.2 19648.5 -19644.6)
(15569 19522.3 -19519.8)
(81379.2 22021.2 -22020.3)
(-88175.3 93426.5 -24798.5)
(-17458.7 93637.4 -22980.5)
(16715.9 92522.4 -22862.7)
(83491.5 90037.4 -24502)
(-58971.4 24321.4 -3183.8)
(-9667.66 2978.44 -1499.82)
(9473.97 2987.12 -1492.02)
(55040.3 23923.7 -3153.46)
(-59813.4 2709.23 -3854.19)
(-11666.6 421.313 -1910.54)
(11471.3 424.398 -1900.53)
(55745.5 2694.83 -3816.37)
(-61124.1 606.931 -3923.68)
(-11952.5 69.2161 -1955.21)
(11747.5 67.9007 -1944.79)
(56957.1 585.135 -3884.88)
(-63014.6 735.373 -3958.59)
(-12205.6 73.4086 -1978.59)
(11987.2 71.3595 -1968.07)
(58740.1 709.47 -3920.4)
(-65976.2 1379.87 -4004.71)
(-12616.5 249.34 -2015.67)
(12383.5 246.797 -2005.25)
(61586.9 1353.43 -3968.98)
(-70880.9 4089.34 -4081.37)
(-13338.7 2092.28 -2091.6)
(13091.3 2081.73 -2081.55)
(66373.5 4051.28 -4051.22)
(-78534.3 21068.8 -4335.19)
(-14624.1 18121.9 -2378.34)
(14342.5 17993.8 -2369.25)
(73936.3 20712.7 -4316.07)
(-81949.7 86984.2 -6117.27)
(-16413.7 86026.8 -4404.24)
(15682 84920.9 -4397.34)
(77201.3 83619.3 -6116.37)
(-54284.9 22680.8 -1130.76)
(-9060.71 2646.73 -181.249)
(8877.59 2657.79 -179.551)
(50446 22304.1 -1113.7)
(-55099.7 2558.86 -1331)
(-10962.3 376.242 -231.005)
(10779.8 379.655 -228.826)
(51130.3 2546.56 -1310.35)
(-56369.1 590.684 -1347.67)
(-11239.9 63.8319 -235.655)
(11047.9 62.5397 -233.427)
(52301.5 568.769 -1326.71)
(-58226.8 727.628 -1351.99)
(-11490.5 69.9051 -237.052)
(11284.8 67.8064 -234.836)
(54048.4 700.669 -1331.41)
(-61160.3 1367.77 -1355.89)
(-11899.7 239.957 -239.246)
(11678.7 237.258 -237.09)
(56857.1 1338.7 -1336.49)
(-66037.8 4013.1 -1367.71)
(-12621 2016.54 -248.594)
(12383.5 2005.55 -246.604)
(61596.5 3969.12 -1351.09)
(-73678.4 20324.3 -1477)
(-13907.3 17335.9 -351.599)
(13631.2 17206.5 -350.099)
(69110.5 19956.1 -1466.76)
(-77491.3 82474.9 -2565.68)
(-15738.7 81129.5 -1475.38)
(15003.7 80025.3 -1475.33)
(72721.1 79111.9 -2568.6)
(-51509 21859.6 -596.92)
(-8716.45 2566.18 -53.6809)
(8541.52 2578.74 -52.5765)
(47735.3 21499.6 -584.381)
(-52302.6 2492.32 -693.054)
(-10564.4 366.907 -66.3264)
(10391.9 370.521 -64.9051)
(48402.8 2481.82 -677.721)
(-53553.8 585.943 -699.382)
(-10838.3 63.1693 -67.1981)
(10656.4 61.8905 -65.7455)
(49556.5 564.076 -683.755)
(-55399.3 727.153 -699.5)
(-11088.5 69.8176 -67.1583)
(10892.8 67.6972 -65.7109)
(51289 699.695 -684.043)
(-58320.8 1364.15 -699.471)
(-11497.7 237.797 -67.1949)
(11286.3 235.029 -65.7748)
(54079.7 1333.75 -684.62)
(-63173.8 3968.24 -705.757)
(-12217.6 1979.92 -70.4126)
(11988.8 1968.72 -69.0729)
(58782.7 3921 -692.388)
(-70758.2 19870.9 -774.147)
(-13497.2 16895.1 -124.6)
(13227.4 16765.1 -123.512)
(66218.9 19495.2 -764.421)
(-74666.5 79630.4 -1440.22)
(-15323.4 78185.3 -769.8)
(14588.8 77080.5 -769.532)
(69889.8 76262.1 -1438.8)
(-49844.4 21390.8 -338.989)
(-8516.37 2526.72 -27.3674)
(8346.89 2540.31 -26.6402)
(46109.4 21042 -331)
(-50627.5 2456.39 -391.468)
(-10334.2 362.725 -33.3992)
(10168.4 366.486 -32.4556)
(46768.9 2447.18 -381.576)
(-51870.8 584.239 -394.342)
(-10606.3 62.9999 -33.7334)
(10431.3 61.7338 -32.7656)
(47915 562.448 -384.219)
(-53711.4 727.539 -393.843)
(-10856.7 69.9083 -33.6285)
(10667.9 67.7771 -32.6625)
(49641.1 699.804 -383.805)
(-56625.8 1361.52 -393.678)
(-11266 236.703 -33.5792)
(11061.2 233.896 -32.628)
(52420.8 1330.36 -383.983)
(-61456.9 3938.42 -398.47)
(-11984.3 1959.13 -35.3492)
(11761.5 1947.82 -34.4412)
(57094.7 3889.32 -389.612)
(-68983.2 19589.8 -442.053)
(-13256.6 16636.5 -66.0069)
(12991.4 16506.1 -65.2278)
(64459.7 19209.7 -435.272)
(-72890.7 77835.6 -844.784)
(-15068 76380.8 -441.113)
(14334.7 75275.1 -440.746)
(68107.5 74462 -842.887)
(-48888.8 21129.1 -176.562)
(-8404.1 2505.42 -13.8898)
(8237.88 2519.65 -13.4788)
(45175.1 20787.1 -172.173)
(-49666.6 2436.97 -203.298)
(-10205.4 360.541 -16.8818)
(10043.8 364.396 -16.3454)
(45830.7 2428.6 -197.808)
(-50906.3 583.568 -204.598)
(-10476.7 62.94 -17.0299)
(10305.9 61.6836 -16.4782)
(46973.4 561.847 -198.958)
(-52744.6 727.816 -204.218)
(-10727.3 69.9719 -16.9624)
(10542.7 67.8348 -16.4112)
(48696.2 699.931 -198.616)
(-55654.1 1359.52 -204.212)
(-11136.7 236.077 -16.9377)
(10935.9 233.25 -16.3945)
(51468.8 1327.94 -198.792)
(-60468.8 3919.86 -207.301)
(-11853.5 1947.49 -17.8794)
(11634.5 1936.12 -17.3584)
(56122.2 3869.71 -202.32)
(-67951.4 19424.6 -231.705)
(-13120.4 16489.4 -33.849)
(12858.1 16358.8 -33.3894)
(63436.1 19041.9 -227.801)
(-71836.9 76765.5 -449.498)
(-14919.3 75322.4 -232.289)
(14187.1 74216 -232.02)
(67048.8 73388 -448.161)
(-48450.1 21011 -54.9587)
(-8353.29 2495.95 -4.27866)
(8188.6 2510.48 -4.14586)
(44745.8 20672.1 -53.5615)
(-49225.7 2428.36 -63.192)
(-10147.2 359.585 -5.19132)
(9987.51 363.487 -5.01748)
(45399.9 2420.4 -61.4344)
(-50463.9 583.319 -63.5711)
(-10418.2 62.9193 -5.23428)
(10249.4 61.6681 -5.05515)
(46541.2 561.64 -61.7608)
(-52301.3 727.925 -63.4408)
(-10668.9 70.0006 -5.212)
(10486.2 67.8608 -5.03299)
(48262.5 699.97 -61.6419)
(-55208.2 1358.43 -63.4623)
(-11078.2 235.786 -5.20556)
(10879.4 232.949 -5.02921)
(51031.5 1326.66 -61.7218)
(-60014.1 3910.93 -64.5274)
(-11794.3 1942.22 -5.50322)
(11577.1 1930.82 -5.33388)
(55674.2 3860.31 -62.9265)
(-67473.8 19347.6 -72.3929)
(-13058.3 16422.1 -10.4788)
(12797.5 16291.4 -10.3277)
(62961.7 18963.8 -71.1294)
(-71343.7 76262.8 -141.455)
(-14850.6 74829.3 -72.7895)
(14118.8 73722.5 -72.6934)
(66552.6 72883.2 -140.996)
)
;

boundaryField
{
    interface
    {
        type            calculated;
        value           nonuniform List<vector> 
192
(
(-120270 59593.8 -77159.1)
(-113131 6118.5 -75998.5)
(-115079 1304.44 -77353.5)
(-118457 1506.17 -79346.5)
(-123477 2592.14 -82297.7)
(-131170 6133.08 -86870.6)
(-141633 24811.4 -93354.9)
(-138917 93569.7 -93526.2)
(-111598 29718.8 -16126.3)
(-108572 3298.74 -19146.1)
(-110726 695.087 -19535.5)
(-114134 808.649 -19843.7)
(-119350 1490.55 -20306.3)
(-127749 4343.58 -21055.9)
(-140224 22360.2 -22350.1)
(-141699 93426.5 -24798.5)
(-98602.2 24321.4 -3183.8)
(-96281.6 2709.23 -3854.19)
(-98331.9 606.931 -3923.68)
(-101609 735.373 -3958.59)
(-106712 1379.87 -4004.71)
(-115080 4089.34 -4081.37)
(-127834 21068.8 -4335.19)
(-131324 86984.2 -6117.27)
(-90441.1 22680.8 -1130.76)
(-88259.9 2558.86 -1331)
(-90244.2 590.684 -1347.67)
(-93460.5 727.628 -1351.99)
(-98511.1 1367.77 -1355.89)
(-106827 4013.1 -1367.71)
(-119554 20324.3 -1477)
(-123757 82474.9 -2565.68)
(-85576.4 21859.6 -596.92)
(-83459.9 2492.32 -693.054)
(-85415.3 585.943 -699.382)
(-88607.8 727.153 -699.5)
(-93634.5 1364.15 -699.471)
(-101904 3968.24 -705.757)
(-114533 19870.9 -774.147)
(-118938 79630.4 -1440.22)
(-82646.5 21390.8 -338.989)
(-80569 2456.39 -391.468)
(-82512 584.239 -394.342)
(-85694.4 727.539 -393.843)
(-90706.7 1361.52 -393.678)
(-98935.7 3938.42 -398.47)
(-111463 19589.8 -442.053)
(-115897 77835.6 -844.784)
(-80959.2 21129.1 -176.562)
(-78904.1 2436.97 -203.298)
(-80841.4 583.568 -204.598)
(-84018.8 727.816 -204.218)
(-89021.4 1359.52 -204.212)
(-97220.3 3919.86 -207.301)
(-109671 19424.6 -231.705)
(-114086 76765.5 -449.498)
(-80183.3 21011 -54.9587)
(-78138.3 2428.36 -63.192)
(-80073.4 583.319 -63.5711)
(-83248.6 727.925 -63.4408)
(-88246.1 1358.43 -63.4623)
(-96428.9 3910.93 -64.5274)
(-108840 19347.6 -72.3929)
(-113237 76262.8 -141.455)
(-72485.9 59593.8 -126931)
(-71147.9 6118.5 -119635)
(-72436.5 1304.44 -121680)
(-74404.2 1506.17 -125112)
(-77338.9 2592.14 -130174)
(-81865.7 6133.08 -137957)
(-88138.9 24811.4 -148709)
(-87564.2 93569.7 -146366)
(-12445.2 32660.2 -123531)
(-14694.4 3572.22 -120051)
(-15014.7 711.652 -122270)
(-15296.2 803.158 -125725)
(-15722.9 1486.79 -130970)
(-16404.7 4410.59 -139426)
(-17454.4 22986.4 -152093)
(-18349.5 96238.5 -153284)
(11877.3 32454.1 -121856)
(14043.8 3549.03 -118298)
(14335 702.662 -120440)
(14596.6 797.962 -123848)
(15009.9 1483.63 -129063)
(15686.2 4401.52 -137493)
(16718.2 22866.6 -150122)
(17203.6 95156.1 -151355)
(68342.4 58581.3 -121702)
(66782 6029.94 -114219)
(67970 1264.44 -116053)
(69847.3 1478.07 -119348)
(72711.2 2576.44 -124317)
(77200.6 6118.82 -132015)
(83492.1 24503.7 -142650)
(82840.4 90306.4 -140477)
(112742 58581.3 -74288.1)
(105253 6029.94 -72979.8)
(107035 1264.44 -74215.6)
(110260 1478.07 -76135.6)
(115157 2576.44 -79041)
(122781 6118.82 -83576.2)
(133284 24503.7 -90010.3)
(130786 90306.4 -90289.8)
(103974 29274 -15849)
(100680 3277.97 -18808.6)
(102655 672.798 -19184.1)
(105882 784.772 -19487.9)
(110923 1469.53 -19952.7)
(119170 4316.2 -20710.9)
(131590 22021.2 -22020.3)
(133286 90037.4 -24502)
(91137.9 23923.7 -3153.46)
(88560.6 2694.83 -3816.37)
(90430.6 585.135 -3884.88)
(93515.4 709.47 -3920.4)
(98414 1353.43 -3968.98)
(106569 4051.28 -4051.22)
(119174 20712.7 -4316.07)
(122787 83619.3 -6116.37)
(83144.2 22304.1 -1113.7)
(80715.7 2546.56 -1310.35)
(82521.3 568.769 -1326.71)
(85539.6 700.669 -1331.41)
(90366.9 1338.7 -1336.49)
(98432.9 3969.12 -1351.09)
(110947 19956.1 -1466.76)
(115183 79111.9 -2568.6)
(78396.1 21499.6 -584.381)
(76038.1 2481.82 -677.721)
(77816.1 564.076 -683.755)
(80806.3 699.695 -684.043)
(85598.4 1333.75 -684.62)
(93596.2 3921 -692.388)
(105972 19495.2 -764.421)
(110350 76262.1 -1438.8)
(75534.5 21042 -331)
(73218.6 2447.18 -381.576)
(74984.4 562.448 -384.219)
(77961.5 699.804 -383.805)
(82731.9 1330.36 -383.983)
(90675.9 3889.32 -389.612)
(102927 19209.7 -435.272)
(107294 74462 -842.887)
(73884.4 20787.1 -172.173)
(71592.3 2428.6 -197.808)
(73352.7 561.847 -198.958)
(76322.9 699.931 -198.616)
(81079.4 1327.94 -198.792)
(88985.5 3869.71 -202.32)
(101147 19041.9 -227.801)
(105472 73388 -448.161)
(73124.8 20672.1 -53.5615)
(70843.5 2420.4 -61.4344)
(72601.6 561.64 -61.7608)
(75568.8 699.97 -61.6419)
(80318.1 1326.66 -61.7218)
(88204.8 3860.31 -62.9265)
(100320 18963.8 -71.1294)
(104617 72883.2 -140.996)
(-87564.2 146439 -93526.2)
(-88175.3 148839 -24798.5)
(-81949.7 138165 -6117.27)
(-77491.3 130500 -2565.68)
(-74666.5 125635 -1440.22)
(-72890.7 122553 -844.784)
(-71836.9 120711 -449.498)
(-71343.7 119843 -141.455)
(-18349.5 153343 -96205.2)
(-17458.7 152196 -22980.5)
(-16413.7 139592 -4404.24)
(-15738.7 131232 -1475.38)
(-15323.4 126156 -769.8)
(-15068 123025 -441.113)
(-14919.3 121180 -232.289)
(-14850.6 120319 -72.7895)
(17203.6 151402 -95130.1)
(16715.9 150201 -22862.7)
(15682 137618 -4397.34)
(15003.7 129263 -1475.33)
(14588.8 124187 -769.532)
(14334.7 121055 -440.746)
(14187.1 119209 -232.02)
(14118.8 118347 -72.6934)
(82840.4 140508 -90289.8)
(83491.5 142702 -24502)
(77201.3 132097 -6116.37)
(72721.1 124452 -2568.6)
(69889.8 119587 -1438.8)
(68107.5 116501 -842.887)
(67048.8 114654 -448.161)
(66552.6 113784 -140.996)
)
;
    }
    symmetry
    {
        type            symmetry;
    }
    bottom
    {
        type            calculated;
        value           nonuniform List<vector> 
32
(
(-72485.9 108388 -77159.1)
(-66547.4 53613.1 -16126.3)
(-58971.4 43882.8 -3183.8)
(-54284.9 40877.9 -1130.76)
(-51509 39359.8 -596.92)
(-49844.4 38490.2 -338.989)
(-48888.8 38003.8 -176.562)
(-48450.1 37784 -54.9587)
(-12445.2 58984.4 -73856.5)
(-10752.5 10619.7 -13445.7)
(-9667.66 5201.73 -1499.82)
(-9060.71 4620.43 -181.249)
(-8716.45 4476.73 -53.6809)
(-8516.37 4405.71 -27.3674)
(-8404.1 4367.26 -13.8898)
(-8353.29 4350.15 -4.27866)
(11877.3 58607.2 -72928.9)
(10531.2 10603.2 -13348.7)
(9473.97 5212.19 -1492.02)
(8877.59 4635.06 -179.551)
(8541.52 4493.98 -52.5765)
(8346.89 4424.75 -26.6402)
(8237.88 4387.42 -13.4788)
(8188.6 4370.84 -4.14586)
(68342.4 106494 -74288.1)
(62522.3 52744.6 -15849)
(55040.3 43097.6 -3153.46)
(50446 40130.8 -1113.7)
(47735.3 38642.8 -584.381)
(46109.4 37793.3 -331)
(45175.1 37318.8 -172.173)
(44745.8 37104.6 -53.5615)
)
;
    }
}


// ************************************************************************* //
