/*--------------------------------*- C++ -*----------------------------------*\
| =========                 |                                                 |
| \\      /  F ield         | OpenFOAM: The Open Source CFD Toolbox           |
|  \\    /   O peration     | Version:  v1912                                 |
|   \\  /    A nd           | Website:  www.openfoam.com                      |
|    \\/     M anipulation  |                                                 |
\*---------------------------------------------------------------------------*/
FoamFile
{
    version     2.0;
    format      ascii;
    class       volScalarField;
    location    "0.47/solid";
    object      sigmaEq;
}
// * * * * * * * * * * * * * * * * * * * * * * * * * * * * * * * * * * * * * //

dimensions      [1 -1 -2 0 0 0 0];


internalField   nonuniform List<scalar> 
256
(
595351
435741
430741
573571
368306
326629
322118
350306
373703
316868
312367
355819
392979
322137
317667
375110
409982
333470
329003
392065
419329
346260
341770
401339
360876
331122
327092
344240
41540.3
370518
367556
45291.3
377578
83625
81487.9
354560
291752
81210.1
79121
270630
289309
63137.3
61431.5
268275
295055
46154
44833.3
273790
305651
39054.1
38032.7
284023
320181
39900.9
38961.7
298206
309301
18649.8
19801.7
287973
360802
331424
327447
344299
326403
46181.3
45156.4
304593
281668
50382.8
48273
260987
282025
39013.9
36845.1
260949
287434
25357.7
23231.6
265894
298375
19864.6
17888.5
276293
315786
23478.4
21519.5
293186
319887
38532.1
37839.1
297961
419427
346923
342541
401807
295356
40465.2
39759.4
274838
261079
41970.2
40369.4
241542
262889
32607.3
30863
242690
268558
21770.6
20158.2
247709
279732
17123.2
15649.5
258205
297777
19768.2
17962.1
275600
304867
35012.8
34451.9
283293
411588
335078
330787
394350
277425
35444.3
34594.8
257750
246114
37278.1
35842.6
227337
248985
29746.4
28205.3
229449
255271
20525.7
19069.3
234969
266948
16576.7
15115
245880
285388
19001.5
17091.6
263594
293441
34467.1
33964.1
272221
399509
324788
320580
382653
267153
31891.9
30842.3
248005
236925
34234.1
32771.1
218592
240460
27780.3
26219.7
221328
247305
19132.6
17539.6
227350
259435
15409.8
13640.1
238660
278156
18601.1
16470.9
256614
286702
35733.2
35240.2
265735
391201
317978
313824
374615
261450
29587.8
28374.5
242612
231712
32214.9
30680.1
213630
235607
26218.5
24569.4
216707
242819
17754.5
15961.7
223067
255239
14192.4
12094.8
234639
274129
18320.3
16042.5
252743
282974
36913.2
36432.3
262171
386396
313888
309767
369984
258880
28415.6
27109.4
240185
229347
31159.1
29574.5
211380
233398
25314.7
23599.8
214606
240783
16900.4
14970.4
221127
253338
13458.8
11155.2
232822
272305
18156.1
15813.1
250993
281298
37515.7
37045.3
260576
384232
311976
307871
367907
)
;

boundaryField
{
    interface
    {
        type            calculated;
        value           nonuniform List<scalar> 
192
(
781617
535035
544794
571146
596267
616292
574039
311656
625052
512912
515043
530975
553698
583462
590459
574109
554635
488959
494117
509050
531788
564300
583623
616809
506369
453853
461014
476034
498806
531891
554288
598793
477589
429075
437401
452926
476054
509451
532867
579780
460755
413792
422735
438727
462208
495791
519585
566968
451318
405079
414332
430628
454342
488016
511953
559457
447053
401124
410506
426945
450769
484476
508462
556023
802062
557348
567392
594303
619957
640449
600499
353448
709341
570944
565991
581306
604453
632680
636246
609522
700850
562851
557679
572886
595956
624082
627898
603370
775335
535093
544800
571448
596924
617237
578512
345923
748001
503778
513290
539377
564217
584000
542722
289274
587025
476660
478388
493652
515629
544703
552220
542798
518012
453354
457756
471822
493601
525139
544714
584592
471396
419673
425860
439852
461515
493437
515855
566911
443758
395909
403162
417552
439467
471582
494884
548244
427648
381253
389075
403866
426068
458296
481899
535666
418638
372906
381011
396072
418467
450744
474449
528306
414570
369120
377343
392532
415019
447309
471044
524945
353809
600715
641045
622626
603336
590238
582522
578985
609779
636822
633972
607456
587185
573904
565925
562184
603594
628465
625377
598978
578788
565553
557602
553875
346098
578711
617998
599975
581037
568187
560630
557172
)
;
    }
    symmetry
    {
        type            symmetry;
    }
    bottom
    {
        type            calculated;
        value           nonuniform List<scalar> 
32
(
824207
467482
383948
347027
327268
315968
309666
306821
538202
104900
50161.5
45362.8
41628.1
38639.8
36626.5
35604.1
532732
102024
47906.6
43332.7
39412.9
36230.6
34069.7
32965.2
799030
442557
360462
325090
306400
295783
289886
287228
)
;
    }
}


// ************************************************************************* //
