/*--------------------------------*- C++ -*----------------------------------*\
| =========                 |                                                 |
| \\      /  F ield         | OpenFOAM: The Open Source CFD Toolbox           |
|  \\    /   O peration     | Version:  v1912                                 |
|   \\  /    A nd           | Website:  www.openfoam.com                      |
|    \\/     M anipulation  |                                                 |
\*---------------------------------------------------------------------------*/
FoamFile
{
    version     2.0;
    format      ascii;
    class       volSymmTensorField;
    location    "0.47/solid";
    object      sigma;
}
// * * * * * * * * * * * * * * * * * * * * * * * * * * * * * * * * * * * * * //

dimensions      [1 -1 -2 0 0 0 0];


internalField   nonuniform List<symmTensor> 
256
(
(-230213 19358.3 -7606.19 354107 20690.2 -247550)
(47101 -9016.4 -3047.54 223305 20667 -271037)
(48267.6 11146.9 3010.06 221247 20957.9 -266962)
(-209373 -17869.4 7675.38 349784 21759.6 -233006)
(-265906 -1492.44 -11167.6 94747.7 11.6901 -279783)
(-43513.9 -4404.39 -4873 46752.3 1216.06 -315306)
(-41740.4 6335.88 4947.87 45524.9 1447.05 -310916)
(-242901 2357.23 11320.1 95733 819.245 -264127)
(-267653 -3432.22 -11871.2 98471.1 -2170.89 -281179)
(-51332.9 -3045.86 -5281.49 25635 -1892.11 -322430)
(-49597.2 4568.78 5419.74 24598 -1736.06 -317925)
(-244285 4057.94 12055 99915.1 -1611.43 -265210)
(-268421 -1848.16 -12223.8 115981 -827.043 -283942)
(-43910.8 -1994.2 -5452.05 21710.6 -923.903 -328021)
(-42177.7 3123.73 5602.53 20818.4 -811.931 -323426)
(-244683 2324.21 12417.1 117747 -413.47 -267702)
(-277748 -149.526 -12538 122789 1174 -294935)
(-41450 -924.645 -5614.57 18178.6 1025.71 -340931)
(-39689.9 1720.88 5759.62 17349.6 1116.69 -336271)
(-253662 489.259 12736.2 124780 1508.72 -278467)
(-300782 2576.27 -12774.9 109071 4432.1 -317854)
(-52397.2 660.169 -5755.75 3471.26 4376.27 -367095)
(-50652.2 -202.318 5898.37 2663.06 4460.08 -362388)
(-276508 -2409.67 12982.4 111186 4727.77 -301184)
(-343074 8273.04 -12698.9 8298.28 10171.5 -358790)
(-85394.6 3329.55 -5739.38 -84664.6 10577.8 -415444)
(-83694.4 -3349.31 5893.23 -84866 10659.8 -410638)
(-318866 -8367.82 12920 11837.7 10439.2 -341768)
(-295689 12004 -11935.5 -312244 14069.3 -312125)
(-3983.7 5480.62 -5396.19 -373471 14958.3 -373239)
(-2159.96 -5510.16 5553.98 -368661 15029.4 -368424)
(-271815 -12143.2 12147 -295404 14277.9 -295330)
(-246961 12335.5 -5537.07 180983 -9131.24 33454.1)
(-31853.3 -10103 -1373.84 46952.3 518.051 -37425)
(-31156.3 11282.1 1669.38 44257.7 1292.99 -37942)
(-226389 -11221.7 5711.53 175873 -6741.32 35897.3)
(-286205 -2447.08 -8093 33499.8 -1544.23 -35582.3)
(-113476 -4703.36 -2848.63 -33683.9 3243.38 -114784)
(-111967 5673.57 3356.07 -35487.4 3747.79 -114968)
(-263381 2878.98 8365.28 33466.9 110.295 -31788.6)
(-292116 -3530.42 -8316.02 23488 -1000.9 -40785.8)
(-128605 -3188.68 -3026.52 -67214.5 537.242 -131089)
(-127096 3871.87 3600.33 -68607.6 899.847 -131346)
(-268874 3786.7 8613.58 24335.1 237.454 -37258)
(-295828 -1976.42 -8362.76 25369.8 -487.177 -37973.5)
(-127107 -2147.49 -2982.04 -85428.1 -81.2364 -134318)
(-125596 2602.68 3558.52 -86637.4 202.969 -134634)
(-272165 2166.23 8665.43 26608.2 495.565 -34620.5)
(-307243 -288.174 -8501.36 24982.3 2061.55 -39088.3)
(-128212 -1101.03 -3038.85 -96200 2155.6 -138877)
(-126670 1364 3599.52 -97369 2393.8 -139240)
(-283118 407.835 8806.31 26393.4 2876.23 -35825.2)
(-333418 2542.03 -8597.87 12417.3 6036.76 -48857.4)
(-141984 503.652 -3123.78 -109809 6045.6 -151896)
(-140449 -460.216 3671.67 -110971 6249.41 -152319)
(-308914 -2545.18 8909.04 13925.4 6722 -45684.5)
(-382821 8570.34 -8483.17 -74267.4 9415.91 -75049.4)
(-178517 3276.71 -3126.79 -182203 9512.35 -182512)
(-177020 -3566.12 3646.05 -182720 9667.24 -182926)
(-358176 -8786.54 8791.25 -71255 9936.01 -71795.2)
(-343325 12738.9 -8142.98 -358907 10272.5 8041.28)
(-85404.3 5787.62 -3103.11 -415598 10653.8 -84364.9)
(-83666.8 -5866.15 3483.48 -410751 10731 -84424.9)
(-318896 -12918.8 8383.46 -341714 10518.3 11905.1)
(-213779 7853.95 -2278.37 136224 4151.25 81262.7)
(-27163.4 -11756.2 -95.6194 11927.5 12509.6 2506.85)
(-26434.2 12296.1 353.92 9437.18 13104.8 1742.57)
(-193406 -7024.08 2366.82 132176 5986.09 83410.7)
(-238656 -2768.27 -3091.18 38452.7 6490.46 46755.1)
(-81134.6 -5047.88 -564.634 -29451.6 10670.1 -44517.3)
(-79659.6 5513.68 996.071 -31284.2 11167.9 -45137.2)
(-216263 3000.26 3257.2 38372 8067.08 49728.9)
(-243179 -3327.23 -2894.98 38181.9 5082.66 39026.4)
(-92713.9 -3183.99 -518.343 -51067.6 6501.97 -63938.9)
(-91236.3 3451.11 971.069 -52533.3 6915.69 -64668.6)
(-220394 3417.4 3076.7 38774.4 6414.04 41596.3)
(-247106 -1942.06 -2722.77 41395 4003.86 38961.5)
(-91740.1 -2199.47 -386.821 -65874 4404.36 -70557.1)
(-90252.7 2322.18 816.293 -67158.2 4755.98 -71380.7)
(-223876 2000.47 2899.72 42354.9 5139.25 41241.3)
(-258352 -315.315 -2683.1 42085.1 4961.73 37589.5)
(-93130.9 -1212.34 -358.264 -74950.5 5065.54 -75982.6)
(-91597.7 1225.34 760.585 -76186 5369.33 -76882.6)
(-234575 339.345 2853.95 43241 5934.41 39689.6)
(-284108 2599.02 -2650.63 33121.2 6799.46 29635.6)
(-106351 423.483 -379.86 -84820.1 6801.78 -87598.8)
(-104802 -547.481 757.202 -86029.6 7057.19 -88576.8)
(-259778 -2663.23 2817.63 34439 7612.34 31608.2)
(-333472 8675.81 -2562.37 -47134.1 6764.04 10826.8)
(-141433 3244.28 -409.045 -150498 6722.36 -110533)
(-139887 -3618.66 725.238 -151030 6904.73 -111476)
(-308730 -8920.74 2711.28 -44209.7 7356.06 12949.8)
(-301070 12803.8 -2525.22 -317808 4844.41 109044)
(-51835.3 5785.42 -455.356 -366973 4748.71 4378.41)
(-50037.9 -5876.86 569.048 -362180 4817.96 3857.44)
(-276327 -12987.8 2590.67 -300827 5074.89 111917)
(-194077 5982.36 -735.259 118094 8221.07 79633.6)
(-24928.2 -12226.5 420.281 375.739 13140.3 1515.59)
(-24192.9 12378.3 -190.854 -1841.42 13571.7 902.968)
(-173964 -5370.51 794.159 115144 9553.87 82332.8)
(-213130 -2749.62 -848.899 33690.3 9785.28 59142.2)
(-68372.8 -5102.41 522.612 -33861.2 12290.2 -32782.9)
(-66927.3 5275.38 -132.883 -35524.6 12696 -33254.2)
(-191148 2864.07 969.554 34042 11045.8 62571.5)
(-216778 -3047.71 -581.983 39111.6 8559.57 51710.2)
(-77473.5 -3084.79 667.872 -48388.6 9430.17 -51436.7)
(-76018.7 3128.9 -268.809 -49774.7 9798.74 -52018.6)
(-194424 3054.21 714.274 39849.2 9711.43 54709.7)
(-220856 -1799.57 -376.869 46515.9 6945.66 48303.3)
(-76553.4 -2154.49 797.442 -57656.3 7180.24 -61135.8)
(-75082 2111.63 -432.233 -58899.6 7511.85 -61820.6)
(-198043 1794.93 500.402 47508.5 7983.91 50973.3)
(-232176 -263.137 -285.549 49948.2 6248.92 44669.7)
(-78259.9 -1232.6 844.709 -63517.2 6309.64 -68873.4)
(-76735.5 1132.92 -515.327 -64719.9 6603.3 -69648.1)
(-208767 245.154 397.662 51114.6 7164.23 47115.8)
(-257800 2631.47 -246.452 42395.5 5781.01 37078.6)
(-91499 379.009 832.523 -72002.7 5800.06 -80244.9)
(-89945.6 -566.495 -540.176 -73174.6 6045.37 -81102.2)
(-233734 -2716.2 347.08 43747.1 6546.66 39385.1)
(-306635 8605.98 -241.153 -36116.8 3929.74 23020.6)
(-125762 3152.57 772.132 -136283 3911.08 -98382.1)
(-124188 -3554.28 -556.73 -136774 4080.62 -99186.4)
(-281972 -8854.53 315.589 -33126.3 4474.96 25524.4)
(-277164 12595.3 -287.08 -294379 2175.34 124950)
(-38499.1 5644.98 722.754 -340220 2014.52 20142.3)
(-36661.7 -5749.73 -708.953 -335419 2071.83 19784.7)
(-252283 -12780.9 279.564 -277417 2370.21 128255)
(-182906 5343.35 -233.447 109683 7864.87 75134.1)
(-24543.9 -12084.7 415.714 -4295.7 10378.5 -744.093)
(-23821.2 12009.4 -231.662 -6294.38 10685.7 -1236.8)
(-162978 -4877.47 280.994 107593 8808.02 78251.9)
(-200044 -2625.43 -168.735 29483.5 9149.56 58900.1)
(-64402.2 -4997.37 647.839 -37294.4 10437.1 -29978.4)
(-63006.2 4994.9 -323.525 -38800.9 10739.2 -30309.3)
(-178358 2666.32 267.91 30275.9 10078 62743)
(-203445 -2830.27 31.9648 36576.1 8689.39 52711.2)
(-72499 -2981.82 785.974 -49298.2 9131.85 -46670.4)
(-71089.5 2894.65 -449.024 -50599.7 9419.52 -47106.4)
(-181397 2788.74 77.8661 37536 9577.72 56129.6)
(-207679 -1665.52 183.752 46394.8 7354.02 48112.1)
(-71656.7 -2098.28 875.769 -55379.6 7465.85 -57203.7)
(-70225.4 1962.76 -569.169 -56581.8 7734.5 -57744.2)
(-185163 1626.72 -82.1332 47489.2 8186.06 51189.9)
(-219101 -205.671 259.093 51761.9 5963.2 43332.2)
(-73595.5 -1227.12 906.898 -59015.7 6007.45 -65982.2)
(-72107.6 1068.62 -637.076 -60196.2 6250.1 -66617.7)
(-195961 166.341 -170.021 52976.8 6713.93 46166.7)
(-244624 2630.56 277.635 44842.7 4407.38 36211.8)
(-86887.3 343.743 888.638 -66935.8 4464.13 -76910.8)
(-85363.7 -562.384 -660.138 -68092.9 4667.01 -77630.2)
(-220766 -2724.47 -202.961 46229.4 5039.29 38900.4)
(-292906 8497.02 245.142 -32509.8 2226.71 24431.9)
(-120682 3062.64 825.032 -130467 2276 -92856.6)
(-119124 -3480.09 -671.666 -130947 2414.4 -93514.8)
(-268341 -8747.11 -197.665 -29482.6 2673.74 27335.4)
(-264678 12384.8 182.619 -281491 1081.33 125578)
(-35072.1 5516.21 774.663 -325798 992.831 24504.1)
(-33237.7 -5635.12 -792.285 -320993 1038.24 24302.3)
(-239745 -12575.2 -205.995 -264513 1237.2 129295)
(-176236 5131.95 -101.765 105545 6135.26 72488.7)
(-24649.6 -11853.1 265.597 -6570.27 7362.88 -1912.89)
(-23935.3 11645.8 -133.713 -8410.88 7568.94 -2327.5)
(-156401 -4756.45 137.856 104072 6761.26 75896.6)
(-192709 -2511.86 -38.0088 27372.5 6958.44 57482.8)
(-63208.4 -4885.77 439.524 -38972.8 7581.04 -29026.1)
(-61849.5 4779.25 -199.855 -40361.9 7787.29 -29263.3)
(-171186 2508.24 114.185 28519.1 7587.15 61630.4)
(-196103 -2693.97 83.4876 34751.3 6879.28 52316.9)
(-70994.9 -2912.63 531.67 -50186.2 7088.38 -44160.2)
(-69620.8 2745.51 -277.17 -51419.5 7289.59 -44496.8)
(-174224 2623.47 2.19349 35920.5 7497.18 56054.7)
(-200453 -1578.73 173.796 45390.2 5995.82 47828.7)
(-70252.7 -2064.26 582.011 -55032.3 6050.46 -54354.6)
(-68853.4 1871.36 -348.696 -56200.6 6242.67 -54795)
(-178099 1519.23 -93.8864 46599.6 6589.27 51226.2)
(-211933 -169.674 218.696 51611.1 4691.99 42919.2)
(-72334.2 -1225.39 594.734 -57662.4 4733.59 -63201.3)
(-70876.2 1029.45 -391.576 -58828.8 4909.76 -63738.4)
(-188938 117.07 -149.295 52885.8 5236.88 46065.8)
(-237351 2618.35 223.326 45066.7 3114.38 36150)
(-85649.2 316.754 575.701 -65268.2 3188.14 -73823.5)
(-84151.5 -557.344 -408.597 -66421.6 3336.13 -74445.1)
(-213601 -2718.86 -166.924 46487.3 3576.88 39145.7)
(-285188 8416.85 190.678 -31181.4 1344.42 25091.9)
(-119171 3005.96 528.009 -127976 1428.71 -89154.8)
(-117631 -3437.29 -421.764 -128457 1529.48 -89712.8)
(-260666 -8669.82 -156.963 -28129.1 1672.29 28304.6)
(-257448 12251.2 137.783 -273688 600.816 124802)
(-34453.6 5439.67 483.43 -317329 581.19 26607.2)
(-32627.9 -5571.26 -505.164 -312522 614.166 26509.9)
(-232462 -12447.4 -157.93 -256688 714.705 128828)
(-172347 5045.03 -56.456 103531 3849.95 71203.7)
(-24765.5 -11698.9 133.454 -7722.76 4416.64 -2516.89)
(-24054.3 11419.1 -54.5873 -9461.22 4535.18 -2883.48)
(-152554 -4721.12 78.9 102453 4206.9 74796.3)
(-188547 -2443.68 -26.2161 26493.4 4271.37 56580.4)
(-62799 -4817.57 224.216 -39730.4 4554.71 -28755.5)
(-61461.5 4653.18 -77.9799 -41042.3 4674.33 -28935.2)
(-167105 2415.22 74.0774 27882.2 4633.77 60929.2)
(-191979 -2620.58 34.6021 33850.8 4280.89 52030)
(-70508.8 -2876.69 271.958 -50687.4 4375.3 -42983.8)
(-69155.3 2663.38 -114.022 -51873.5 4493.46 -43258.4)
(-170183 2533.48 19.958 35175.6 4642.59 55983.6)
(-196398 -1532.99 79.4343 44627.9 3790.08 47972.7)
(-69842.5 -2049.91 295.389 -55184.3 3819.07 -52641.6)
(-68461.9 1822.12 -149.243 -56327.9 3933.41 -53019)
(-174123 1461.01 -28.0407 45931.1 4142.79 51589.9)
(-207897 -152.505 100.835 51101.1 2937.53 43301.8)
(-71998.4 -1228.44 298.403 -57489.8 2970.28 -61238.6)
(-70557.7 1008.01 -171.432 -58645.9 3076.08 -61713.3)
(-184971 91.2502 -56.1844 52428.8 3265.2 46665.1)
(-233230 2608.08 100.577 44773.9 1874.66 36735.8)
(-85319.1 299.988 285.15 -64914.9 1933.75 -71703.4)
(-83836.5 -556.728 -182.134 -66066.7 2023.07 -72263.3)
(-209529 -2713.7 -64.6811 46224.1 2154.81 39944.1)
(-280769 8373.45 80.524 -30639.9 773.072 25784.9)
(-118688 2978.95 257.75 -126935 844.151 -86997.8)
(-117158 -3421.5 -193.801 -127419 905.094 -87493.8)
(-256260 -8629.51 -59.3901 -27568.3 972.475 29207.4)
(-253194 12184.3 46.941 -269063 325.222 124445)
(-34371.2 5404.16 227.173 -312448 333.641 27694.8)
(-32550.6 -5545.19 -242.045 -307639 353.62 27661.9)
(-228164 -12385.5 -59.264 -252044 394.552 128678)
(-170533 5006.29 -19.3759 102709 1308.48 70697.3)
(-24811.4 -11630.5 39.5491 -8206.81 1475.18 -2785.93)
(-24101.1 11318.7 -13.3312 -9895.26 1513.85 -3129.35)
(-150753 -4705.77 26.955 101823 1424.39 74380.1)
(-186618 -2415.14 -11.8283 26194.4 1434.89 56204.7)
(-62637.6 -4788.91 66.3509 -40025.2 1517.64 -28711.1)
(-61309.6 4598.8 -17.2617 -41298.8 1556.81 -28863)
(-165208 2375.62 28.0923 27705.3 1553.15 60653.5)
(-190073 -2589.77 6.16333 33509.7 1442.19 51935)
(-70330.9 -2862.68 80.6155 -50902.6 1469.95 -42543.3)
(-68986.6 2628.22 -27.13 -52064.7 1508.84 -42787.7)
(-168310 2495.11 12.5157 34916.1 1561.07 55997.4)
(-194522 -1514.22 19.4566 44263.5 1284.78 48163.6)
(-69701.9 -2045.6 87.2489 -55333.8 1294.54 -51878.9)
(-68329.6 1801.09 -37.4731 -56464.4 1332.4 -52225.4)
(-172278 1436.29 -1.7577 45618.3 1401.55 51892.6)
(-206024 -146.164 25.5778 50778.7 994.424 43688.5)
(-71887.9 -1231.38 87.4871 -57568.6 1006.99 -60284.7)
(-70454.9 998.512 -44.2229 -58719.1 1042.19 -60728.7)
(-183125 80.5088 -10.1762 52136.8 1103.54 47162.7)
(-231311 2603.06 25.0824 44547.5 628.336 37214.8)
(-85208.9 292.397 82.8706 -64913.3 650.519 -70683.6)
(-83733 -557.911 -47.9336 -66064.1 680.326 -71213.4)
(-207627 -2711.53 -12.7381 46015.2 722.01 40531.5)
(-278704 8355.97 18.6201 -30434.8 258.306 26236.3)
(-118508 2969.32 74.128 -126560 285.246 -86036)
(-116983 -3418.17 -52.6031 -127045 305.619 -86501.9)
(-254195 -8613.93 -11.3673 -27352 325.158 29765.1)
(-251170 12158.5 7.25321 -266886 105.282 124385)
(-34335.2 5391.46 63.293 -310190 111.418 28161.6)
(-32516.7 -5537.52 -68.3538 -305381 118.103 28159.8)
(-226114 -12362.3 -11.3221 -249856 128.542 128723)
)
;

boundaryField
{
    interface
    {
        type            calculated;
        value           nonuniform List<symmTensor> 
192
(
(-48.3788 0.344507 3.10128 882284 20690.2 280627)
(-50.2668 0.208164 4.88858 612723 11.6901 238193)
(-51.5763 -0.126216 5.38585 624153 -2170.89 244503)
(-52.3752 -0.539459 5.4553 654058 -827.043 254135)
(-52.4932 -0.889998 5.33794 682793 1174 265069)
(-53.2742 -1.53602 5.15042 706418 4432.1 279493)
(-51.5743 -2.01131 4.70601 661138 10171.5 294050)
(-55.0111 -4.38899 4.35083 310588 14069.3 310706)
(-47.0578 0.238529 1.54339 685368 -9131.24 537839)
(-47.974 0.115352 2.60904 543897 -1544.23 474815)
(-48.7456 -0.191108 2.84576 544111 -1000.9 479837)
(-49.2919 -0.620269 2.8263 559755 -487.177 496412)
(-49.2063 -0.997651 2.69946 582885 2061.55 518815)
(-49.9254 -1.71689 2.53276 611537 6036.76 550262)
(-47.9758 -2.24662 2.24569 590577 9415.91 589795)
(-51.6056 -4.75562 2.00953 294278 10272.5 661226)
(-49.7774 0.202361 1.22425 579973 4151.25 525012)
(-50.5936 0.0719148 2.04944 484575 6490.46 492878)
(-51.3621 -0.236572 2.22909 493565 5082.66 494409)
(-51.9152 -0.697661 2.20977 510163 4003.86 507729)
(-51.7295 -1.11863 2.10746 533900 4961.73 529404)
(-52.3496 -1.92316 1.97229 565860 6799.46 562374)
(-49.9295 -2.53505 1.75861 552312 6764.04 610273)
(-53.3397 -5.22238 1.57215 280213 4844.41 707064)
(-49.9516 0.150257 0.759315 524252 8221.07 485792)
(-50.5738 0.000992822 1.33856 440224 9785.28 465676)
(-51.1775 -0.309808 1.4576 454295 8559.57 466894)
(-51.6368 -0.783558 1.43212 474934 6945.66 476721)
(-51.3481 -1.22581 1.34959 501255 6248.92 495977)
(-51.9043 -2.06929 1.24654 534384 5781.01 529067)
(-49.3248 -2.71849 1.1068 522257 3929.74 581394)
(-52.7 -5.45682 0.988547 266373 2175.34 685701)
(-50.7582 0.126128 0.558785 493680 7864.87 459131)
(-51.3203 -0.0415744 0.984713 413265 9149.56 442682)
(-51.8518 -0.362841 1.07292 428799 8689.39 444934)
(-52.2669 -0.851291 1.05408 451834 7354.02 453551)
(-51.9047 -1.31493 0.993137 480049 5963.2 471619)
(-52.388 -2.19167 0.916109 513602 4407.38 504971)
(-49.6291 -2.87538 0.816632 502046 2226.71 558987)
(-52.877 -5.6625 0.729805 256698 1081.33 663767)
(-50.9551 0.106932 0.344959 476219 6135.26 443163)
(-51.4644 -0.0756674 0.625785 397687 6958.44 427797)
(-51.9316 -0.405345 0.684209 413459 6879.28 431024)
(-52.3049 -0.902656 0.670233 437328 5995.82 439766)
(-51.8924 -1.37863 0.628566 466370 4691.99 457678)
(-52.3346 -2.27297 0.57675 500108 3114.38 491191)
(-49.4919 -2.97509 0.514171 489103 1344.42 545376)
(-52.6962 -5.7879 0.460631 250542 600.816 649032)
(-51.2184 0.0978794 0.203332 466512 3849.95 434185)
(-51.7083 -0.0949661 0.368062 389077 4271.37 419165)
(-52.142 -0.432032 0.402653 404825 4280.89 423004)
(-52.4921 -0.936302 0.39459 428843 3790.08 432188)
(-52.0464 -1.42153 0.370398 458111 2937.53 450312)
(-52.4555 -2.32806 0.339682 491922 1874.66 483884)
(-49.5462 -3.04329 0.303845 481352 773.072 537776)
(-52.7034 -5.87478 0.271688 246877 325.222 640385)
(-51.2785 0.0919909 0.060696 462141 1308.48 430130)
(-51.7547 -0.105916 0.113559 385217 1434.89 415227)
(-52.1695 -0.446042 0.124763 400923 1442.19 419349)
(-52.5069 -0.952843 0.121924 424924 1284.78 428824)
(-52.0477 -1.44196 0.114047 454217 994.424 447127)
(-52.4419 -2.35318 0.10403 488047 628.336 480714)
(-49.5127 -3.07446 0.0931426 477702 258.306 534373)
(-52.6464 -5.91392 0.082922 245154 105.282 636424)
(329196 19358.3 -4.48925 913516 -0.952245 -19.106)
(281261 -1492.44 -7.39845 641915 -1.01659 -14.4781)
(287419 -3432.22 -8.29633 653543 -0.753532 -11.0375)
(300093 -1848.16 -8.51815 684494 -0.519956 -10.0377)
(313553 -149.526 -8.53164 714091 -0.431656 -10.2335)
(328139 2576.27 -8.54738 737992 -0.479817 -11.348)
(341790 8273.04 -8.57893 693163 -0.592516 -13.6206)
(360807 12004 -9.24188 344252 -0.809274 -15.6253)
(604430 -9016.4 -2.85729 780634 -0.542494 -24.2779)
(520359 -4404.39 -5.26542 610625 -0.692128 -23.2281)
(523522 -3045.86 -5.93214 600490 -0.496672 -22.181)
(545679 -1994.2 -6.05688 611300 -0.256938 -21.9532)
(572404 -924.645 -6.06452 632033 -0.1144 -22.0683)
(602869 660.169 -6.1314 658738 -0.047203 -22.5154)
(635831 3329.55 -6.33379 636561 -0.0602602 -23.2701)
(703407 5480.62 -7.24271 333920 -0.145296 -23.8118)
(597870 11146.9 -2.98007 770849 -0.360305 -21.2349)
(513993 6335.88 -5.50464 601258 -0.484911 -20.4341)
(516791 4568.78 -6.24166 590986 -0.326676 -19.487)
(538739 3123.73 -6.3885 601735 -0.0853457 -19.2481)
(565359 1720.88 -6.38199 622398 0.0902621 -19.3821)
(595694 -202.318 -6.4011 649009 0.234138 -19.8043)
(628435 -3349.31 -6.52086 627264 0.320577 -20.6324)
(696281 -5510.16 -7.35641 329780 0.329426 -21.5611)
(325127 -17869.4 -3.46476 884283 -0.276177 -21.8026)
(278214 2357.23 -6.45522 616848 -0.362789 -21.3138)
(283842 4057.94 -7.37816 628042 -0.208785 -20.5481)
(296279 2324.21 -7.57749 658709 0.0408229 -20.4071)
(309661 489.259 -7.56225 688103 0.226944 -20.5696)
(324044 -2409.67 -7.57231 711739 0.409987 -20.8738)
(337063 -8367.82 -7.5976 667766 0.553427 -21.4427)
(356451 -12143.2 -8.4391 332861 0.703269 -22.1106)
(-10.1201 0.924281 1.25198 842159 21759.6 259370)
(-6.3806 0.885386 2.27225 575734 819.245 215874)
(-3.69938 0.359622 2.5355 586875 -1611.43 221750)
(-2.62097 -0.2216 2.59917 616395 -413.47 230947)
(-2.58056 -0.525685 2.60511 644766 1508.72 241520)
(-1.51645 -0.976206 2.7554 668193 4727.77 255822)
(-2.83506 -0.9557 2.81571 624509 10439.2 270902)
(6.15897 -3.24003 3.30636 288185 14277.9 288258)
(-16.2258 0.354518 -0.0906981 644225 -6741.32 504249)
(-15.4406 0.320373 0.19364 505911 110.295 440655)
(-14.7232 0.0239615 0.188358 506187 237.454 444593)
(-14.2112 -0.345058 0.174603 521396 495.565 460167)
(-14.185 -0.484127 0.208391 543877 2876.23 481658)
(-12.5925 -0.807759 0.404843 571918 6722 512308)
(-12.967 -0.539875 0.625681 552208 9936.01 551668)
(-2.77572 -2.76124 1.05925 270974 10518.3 624594)
(-16.383 0.188292 0.126876 540549 5986.09 491784)
(-15.7913 0.113124 0.499585 447337 8067.08 458694)
(-15.1952 -0.0908344 0.595726 456189 6414.04 459011)
(-14.5733 -0.371711 0.628593 472279 5139.25 471165)
(-14.4191 -0.423405 0.668962 495246 5934.41 491694)
(-12.4094 -0.687977 0.806549 526371 7612.34 523540)
(-12.4665 -0.311348 0.930642 513718 7356.06 570877)
(-1.26862 -2.69823 1.13609 256122 5074.89 668866)
(-18.0782 0.0847633 0.0285205 486635 9553.87 453825)
(-17.769 -0.0199829 0.334736 404225 11045.8 432755)
(-17.4415 -0.165937 0.427653 417885 9711.43 432746)
(-16.8277 -0.374766 0.460137 437875 7983.91 441340)
(-16.5802 -0.346831 0.492703 463318 7164.23 459319)
(-14.2124 -0.551963 0.590905 495459 6546.66 491097)
(-13.875 -0.0946659 0.672497 483950 4474.96 542601)
(-1.9966 -2.5476 0.792351 242072 2370.21 647743)
(-18.3207 0.0676211 0.113423 457419 8808.02 428078)
(-18.0144 -0.0501438 0.389196 378272 10078 410739)
(-17.6919 -0.179323 0.485799 393185 9577.72 411778)
(-17.0058 -0.364641 0.519944 415431 8186.06 419132)
(-16.6805 -0.302994 0.542002 442662 6713.93 435852)
(-14.1141 -0.487778 0.597305 475109 5039.29 467780)
(-13.6288 -0.00182544 0.628338 463987 2673.74 520805)
(-1.37098 -2.53778 0.670543 232342 1237.2 626150)
(-18.8128 0.0605446 0.072296 440859 6761.26 412684)
(-18.522 -0.0621871 0.266696 363372 7587.15 396483)
(-18.2114 -0.182406 0.338681 378382 7497.18 398516)
(-17.4816 -0.353886 0.36401 401354 6589.27 405981)
(-17.0964 -0.269346 0.378993 429323 5236.88 422503)
(-14.3771 -0.439716 0.413269 461867 3576.88 454525)
(-13.7576 0.0651717 0.429777 451175 1672.29 507608)
(-1.22197 -2.51982 0.45101 226131 714.705 611647)
(-18.9235 0.0623674 0.0604605 431698 4206.9 404041)
(-18.6213 -0.0619829 0.18066 355177 4633.77 388224)
(-18.2968 -0.179505 0.225773 370077 4642.59 390885)
(-17.5315 -0.346662 0.241391 393130 4142.79 398788)
(-17.11 -0.252309 0.249701 421264 3265.2 415500)
(-14.3085 -0.417729 0.266408 453822 2154.81 447541)
(-13.6295 0.0944025 0.272179 443490 972.475 500265)
(-0.933496 -2.52609 0.27748 222427 394.552 603149)
(-19.0421 0.0620145 0.0146979 427583 1424.39 400140)
(-18.74 -0.0626186 0.0531642 351513 1553.15 384461)
(-18.411 -0.178185 0.0680194 366333 1561.07 387414)
(-17.6299 -0.342609 0.0731539 389333 1401.55 395607)
(-17.1874 -0.24318 0.0761908 417462 1103.54 412488)
(-14.3441 -0.405306 0.0818119 450009 722.01 444525)
(-13.6242 0.110303 0.0845755 439867 325.158 496984)
(-0.853992 -2.52595 0.0864253 220681 128.542 599259)
(361120 9.29688 -11935.5 -15.2561 -0.724538 344684)
(342055 8.65443 -8142.98 -13.0531 -0.505317 693420)
(328576 8.65623 -2525.22 -10.3762 -0.355054 738690)
(315065 8.69138 -287.08 -8.65466 -0.230251 717179)
(304654 8.7792 182.619 -7.33103 -0.170468 694910)
(297534 8.83353 137.783 -6.39876 -0.105373 679785)
(293225 8.87899 46.941 -5.80852 -0.064935 670865)
(291219 8.89889 7.25321 -5.52376 -0.0193744 666774)
(703720 7.27743 -5396.19 -23.5051 -0.0450012 334464)
(636257 6.37152 -3103.11 -22.8516 0.0431833 637296)
(603971 6.17361 -455.356 -21.8401 0.0978985 660185)
(575986 6.10773 722.754 -21.0799 0.103572 634627)
(555104 6.10928 774.663 -20.4411 0.0854122 614680)
(540911 6.10771 483.43 -19.9717 0.0657873 601972)
(532314 6.11626 227.173 -19.6652 0.0388131 594380)
(528305 6.11888 63.293 -19.504 0.0143021 590802)
(696551 7.3892 5553.98 -21.2655 0.439092 330287)
(628794 6.5487 3483.48 -20.2193 0.434276 628036)
(596666 6.42902 569.048 -19.1355 0.389693 650561)
(568737 6.41461 -708.953 -18.3966 0.31311 625183)
(547849 6.44609 -792.285 -17.744 0.242427 605389)
(533642 6.46235 -505.164 -17.3063 0.169306 592780)
(525035 6.48065 -242.045 -17.0041 0.100249 585248)
(521021 6.48709 -68.3538 -16.8647 0.0331314 581698)
(356593 8.45183 12147 -21.8428 0.814493 333077)
(337195 7.60335 8383.46 -21.0792 0.668852 667996)
(324367 7.57587 2590.67 -20.3154 0.561554 712611)
(311072 7.57683 279.564 -19.7935 0.436125 691610)
(300705 7.63801 -205.995 -19.2716 0.337238 669745)
(293613 7.66817 -157.93 -18.9511 0.231899 654903)
(289325 7.69883 -59.264 -18.7112 0.139033 646167)
(287330 7.71063 -11.3221 -18.6021 0.0453724 642167)
)
;
    }
    symmetry
    {
        type            symmetry;
    }
    bottom
    {
        type            calculated;
        value           nonuniform List<symmTensor> 
32
(
(-744957 63357.3 -7606.19 56270.9 60400.7 -762294)
(-504683 44212.4 -5537.07 26406.8 -16527.4 -224268)
(-429085 32067.2 -2278.37 -467.238 -2073.09 -134044)
(-394292 26787.7 -735.259 -8424.79 5115.8 -120581)
(-375355 24721.5 -233.447 -11366.8 6386.79 -117315)
(-364425 23845.6 -101.765 -12810.9 5427.13 -115700)
(-358209 23418.1 -56.456 -13448.7 3529.77 -114658)
(-355350 23228.2 -19.3759 -13665.2 1216.54 -114120)
(-233935 -9169.4 -3047.54 59090.8 55023.9 -552073)
(-82692.5 -11805.4 -1373.84 16824.9 -5504.49 -88264.2)
(-53997.4 -14690.1 -95.6194 -7337.42 8076.32 -24327.1)
(-47133.1 -15528 420.281 -12932 11095.2 -20689.3)
(-45143.4 -15393.2 415.714 -15055.1 9414.33 -21343.6)
(-44705.8 -15103.6 265.597 -16653.8 6889.81 -21969.1)
(-44626.4 -14907.3 133.454 -17671 4199.02 -22377.8)
(-44600.5 -14819.9 39.5491 -18130.2 1412.47 -22575.1)
(-230760 10518 3010.06 58576.6 55231.2 -545989)
(-82037.2 12072.4 1669.38 13895.2 -4595.12 -88822.9)
(-53397.7 14290 353.92 -10042.7 8757.32 -25220.9)
(-46533.5 14781.9 -190.854 -15343.9 11579.1 -21437.6)
(-44564.8 14471.8 -231.662 -17246.3 9755.87 -21980.4)
(-44141.6 14092.1 -133.713 -18686.1 7118.06 -22533.8)
(-44069 13851.4 -54.5873 -19600.4 4330.12 -22898.2)
(-44045.9 13746.1 -13.3312 -20009.3 1455.21 -23074.1)
(-714966 -61661.1 7675.38 57513.2 61446.2 -738599)
(-480683 -42866.5 5711.53 22058 -13734.6 -218397)
(-405355 -31066.4 2366.82 -3223.43 5.14938 -128538)
(-370818 -26061.8 794.159 -9759.12 6600.65 -114521)
(-352103 -24172.4 280.994 -11674.4 7429.74 -110873)
(-341293 -23400.7 137.856 -12398.8 6116.96 -108995)
(-335136 -23030.4 78.9 -12582.5 3922.42 -107786)
(-332299 -22865.9 26.955 -12580 1343.96 -107166)
)
;
    }
}


// ************************************************************************* //
