/*--------------------------------*- C++ -*----------------------------------*\
| =========                 |                                                 |
| \\      /  F ield         | OpenFOAM: The Open Source CFD Toolbox           |
|  \\    /   O peration     | Version:  v1912                                 |
|   \\  /    A nd           | Website:  www.openfoam.com                      |
|    \\/     M anipulation  |                                                 |
\*---------------------------------------------------------------------------*/
FoamFile
{
    version     2.0;
    format      ascii;
    class       volScalarField;
    location    "0.47/solid";
    object      sigmaHyd;
}
// * * * * * * * * * * * * * * * * * * * * * * * * * * * * * * * * * * * * * //

dimensions      [1 -1 -2 0 0 0 0];


internalField   nonuniform List<scalar> 
256
(
-718643
-368863
-365444
-696450
-962734
-551876
-547436
-936046
-980507
-574001
-569329
-952861
-990491
-582385
-577554
-962105
-1.01801e+06
-599438
-594507
-989069
-1.07969e+06
-641488
-636508
-1.05047e+06
-1.25256e+06
-783470
-778074
-1.22252e+06
-1.83681e+06
-1.32771e+06
-1.3178e+06
-1.79508e+06
-345923
-73815.1
-74549.9
-334527
-503984
-172368
-172463
-489430
-520688
-196134
-196097
-505536
-528076
-203969
-203864
-512408
-544883
-211520
-211380
-528739
-585815
-231738
-231589
-569311
-723736
-330981
-330414
-706203
-1.25293e+06
-783511
-778015
-1.22252e+06
-273032
-36753.8
-37661
-261967
-384916
-93651.3
-94128.8
-371453
-397322
-112284
-112666
-383405
-404523
-119738
-120063
-390120
-419942
-126234
-126526
-405016
-457220
-142837
-143105
-441773
-585876
-231341
-231144
-569079
-1.0801e+06
-641106
-635934
-1.05009e+06
-254270
-36556.7
-37346.3
-242980
-351632
-82296.1
-82711
-338298
-361444
-97383.3
-97731.1
-347770
-368313
-104001
-104307
-354193
-383502
-110248
-110523
-368844
-419937
-126134
-126378
-404674
-544554
-210587
-210344
-527751
-1.01747e+06
-597808
-592566
-987190
-245361
-37840.8
-38538.2
-233895
-337711
-80066.7
-80420
-324420
-346359
-93308.1
-93615.6
-332807
-352864
-99167.6
-99445.5
-338903
-367821
-105095
-105350
-353328
-403767
-120611
-120833
-388631
-526019
-203064
-202789
-509243
-986212
-578200
-572907
-955786
-239965
-38579.9
-39212.6
-228352
-330158
-79368.1
-79677.9
-316855
-338319
-91717.6
-91995.9
-324803
-344558
-97087.2
-97346
-330662
-359296
-102751
-102992
-344878
-394896
-118039
-118250
-379819
-515715
-199430
-199140
-498946
-968041
-567429
-562109
-937513
-236728
-38963.8
-39554.4
-225011
-325862
-79101.7
-79382.7
-312532
-333814
-91035.6
-91293.7
-320299
-339893
-96136.3
-96381.5
-326014
-354475
-101634
-101866
-340081
-389855
-116795
-116999
-374799
-509848
-197619
-197320
-493072
-957499
-561425
-556088
-926903
-235192
-39123.1
-39693
-223420
-323864
-79001.6
-79268.1
-310514
-331735
-90770.3
-91017.9
-318212
-337739
-95754.8
-95992.5
-323861
-352243
-101175
-101402
-337854
-387518
-116280
-116480
-372466
-507131
-196851
-196548
-490348
-952583
-558685
-553341
-921951
)
;

boundaryField
{
    interface
    {
        type            zeroGradient;
    }
    symmetry
    {
        type            symmetry;
    }
    bottom
    {
        type            zeroGradient;
    }
}


// ************************************************************************* //
