/*--------------------------------*- C++ -*----------------------------------*\
| =========                 |                                                 |
| \\      /  F ield         | OpenFOAM: The Open Source CFD Toolbox           |
|  \\    /   O peration     | Version:  v1912                                 |
|   \\  /    A nd           | Website:  www.openfoam.com                      |
|    \\/     M anipulation  |                                                 |
\*---------------------------------------------------------------------------*/
FoamFile
{
    version     2.0;
    format      ascii;
    class       volVectorField;
    location    "0.43/solid";
    object      DD;
}
// * * * * * * * * * * * * * * * * * * * * * * * * * * * * * * * * * * * * * //

dimensions      [0 1 0 0 0 0 0];


internalField   nonuniform List<vector> 
256
(
(3.70907e-10 3.56497e-10 4.14178e-10)
(7.57919e-11 1.95984e-10 3.596e-10)
(-8.5734e-11 1.91652e-10 3.54943e-10)
(-3.64803e-10 3.39146e-10 3.99088e-10)
(6.31353e-10 2.39453e-10 8.89681e-10)
(1.52849e-10 1.23659e-10 8.15215e-10)
(-1.7167e-10 1.21391e-10 8.06424e-10)
(-6.28759e-10 2.33508e-10 8.61765e-10)
(6.6436e-10 -2.23652e-11 1.20782e-09)
(1.6217e-10 -6.85657e-11 1.12885e-09)
(-1.91196e-10 -6.72469e-11 1.11793e-09)
(-6.71935e-10 -1.63082e-11 1.17337e-09)
(6.40385e-10 -2.94457e-10 1.48292e-09)
(1.45154e-10 -3.21223e-10 1.39349e-09)
(-1.88762e-10 -3.16366e-10 1.3811e-09)
(-6.62412e-10 -2.78123e-10 1.44396e-09)
(6.36739e-10 -5.83766e-10 1.76431e-09)
(1.3415e-10 -6.31065e-10 1.65902e-09)
(-1.9684e-10 -6.22981e-10 1.6454e-09)
(-6.77537e-10 -5.5821e-10 1.72163e-09)
(7.12207e-10 -9.29146e-10 2.08473e-09)
(1.54726e-10 -1.00754e-09 1.96235e-09)
(-2.41063e-10 -9.96445e-10 1.94756e-09)
(-7.76296e-10 -8.94922e-10 2.0386e-09)
(9.32006e-10 -1.44861e-09 2.46704e-09)
(2.2468e-10 -1.4998e-09 2.33897e-09)
(-3.40064e-10 -1.48557e-09 2.32285e-09)
(-1.02374e-09 -1.40525e-09 2.41723e-09)
(1.25039e-09 -2.32326e-09 2.83249e-09)
(3.02194e-10 -2.21469e-09 2.72674e-09)
(-4.53964e-10 -2.19494e-09 2.70906e-09)
(-1.3738e-09 -2.26296e-09 2.77871e-09)
(1.96885e-10 1.07638e-10 1.42049e-10)
(3.69492e-11 -7.1949e-12 1.71239e-10)
(-4.08467e-11 -8.75348e-12 1.69331e-10)
(-1.87719e-10 9.70935e-11 1.36244e-10)
(3.46275e-10 -4.22168e-11 4.66056e-10)
(8.04018e-11 -1.27932e-10 5.22428e-10)
(-8.59741e-11 -1.282e-10 5.1731e-10)
(-3.35095e-10 -4.39494e-11 4.50998e-10)
(3.58512e-10 -2.67317e-10 7.6161e-10)
(8.31201e-11 -3.02248e-10 8.261e-10)
(-9.42089e-11 -2.99911e-10 8.1896e-10)
(-3.53282e-10 -2.59528e-10 7.4058e-10)
(3.30652e-10 -5.1628e-10 1.02835e-09)
(6.69242e-11 -5.38503e-10 1.09179e-09)
(-8.91236e-11 -5.33163e-10 1.08329e-09)
(-3.36598e-10 -4.99437e-10 1.00311e-09)
(3.20841e-10 -7.89679e-10 1.29164e-09)
(5.62722e-11 -8.34149e-10 1.3506e-09)
(-9.47704e-11 -8.2585e-10 1.34095e-09)
(-3.42808e-10 -7.64209e-10 1.26283e-09)
(3.8688e-10 -1.09841e-09 1.56663e-09)
(7.57793e-11 -1.17592e-09 1.621e-09)
(-1.35543e-10 -1.16479e-09 1.61026e-09)
(-4.29651e-10 -1.0647e-09 1.53443e-09)
(6.0101e-10 -1.50315e-09 1.82779e-09)
(1.44678e-10 -1.55258e-09 1.88072e-09)
(-2.31303e-10 -1.5387e-09 1.86892e-09)
(-6.68984e-10 -1.46113e-09 1.79235e-09)
(9.29135e-10 -2.14142e-09 1.95772e-09)
(2.21788e-10 -2.01057e-09 2.01234e-09)
(-3.42715e-10 -1.99211e-09 1.99998e-09)
(-1.02622e-09 -2.08444e-09 1.92045e-09)
(8.2172e-11 2.0556e-11 7.21267e-11)
(3.51366e-12 -5.80658e-11 1.13676e-10)
(-5.04795e-12 -5.92346e-11 1.12327e-10)
(-7.14075e-11 1.03354e-11 6.82693e-11)
(1.46311e-10 -1.80489e-10 3.05041e-10)
(1.46434e-11 -2.3932e-10 3.81021e-10)
(-1.35134e-11 -2.39265e-10 3.7736e-10)
(-1.29711e-10 -1.82418e-10 2.94682e-10)
(1.42005e-10 -4.12919e-10 5.61359e-10)
(1.02846e-11 -4.37918e-10 6.46888e-10)
(-1.08219e-11 -4.35572e-10 6.41531e-10)
(-1.27723e-10 -4.06073e-10 5.46044e-10)
(1.14702e-10 -6.46781e-10 8.09369e-10)
(-4.95268e-12 -6.67233e-10 8.95493e-10)
(-3.41508e-12 -6.62164e-10 8.88874e-10)
(-1.08437e-10 -6.31465e-10 7.90188e-10)
(1.05397e-10 -8.84914e-10 1.04616e-09)
(-1.46991e-11 -9.29853e-10 1.13055e-09)
(-7.20348e-12 -9.22019e-10 1.12286e-09)
(-1.12416e-10 -8.61359e-10 1.02364e-09)
(1.70235e-10 -1.12774e-09 1.26345e-09)
(4.33085e-12 -1.20593e-09 1.34622e-09)
(-4.51424e-11 -1.19545e-09 1.33757e-09)
(-1.95605e-10 -1.09631e-09 1.23788e-09)
(3.82058e-10 -1.42627e-09 1.41999e-09)
(7.19102e-11 -1.47698e-09 1.5021e-09)
(-1.37543e-10 -1.46396e-09 1.49266e-09)
(-4.30353e-10 -1.38697e-09 1.39187e-09)
(7.04527e-10 -1.943e-09 1.43806e-09)
(1.47774e-10 -1.81766e-09 1.52101e-09)
(-2.4589e-10 -1.80025e-09 1.51136e-09)
(-7.79796e-10 -1.88886e-09 1.40893e-09)
(3.76359e-11 -8.50257e-12 6.15609e-11)
(-9.35392e-12 -6.68106e-11 8.79437e-11)
(8.83791e-12 -6.81128e-11 8.69335e-11)
(-2.58268e-11 -1.94849e-11 5.87437e-11)
(6.51831e-11 -2.32309e-10 2.43143e-10)
(-1.27982e-11 -2.75853e-10 2.91095e-10)
(1.74898e-11 -2.76156e-10 2.88434e-10)
(-4.50646e-11 -2.35825e-10 2.35729e-10)
(5.45356e-11 -4.74539e-10 4.51716e-10)
(-2.00298e-11 -4.94268e-10 5.05128e-10)
(2.58748e-11 -4.92422e-10 5.01176e-10)
(-3.40122e-11 -4.69676e-10 4.40546e-10)
(3.14431e-11 -6.9792e-10 6.61069e-10)
(-3.3169e-11 -7.18501e-10 7.1399e-10)
(3.39252e-11 -7.14049e-10 7.08988e-10)
(-1.6269e-11 -6.84842e-10 6.46703e-10)
(2.77292e-11 -9.03551e-10 8.55322e-10)
(-4.03784e-11 -9.50027e-10 9.0624e-10)
(3.00762e-11 -9.42907e-10 9.00326e-10)
(-2.33823e-11 -8.82417e-10 8.38112e-10)
(9.63287e-11 -1.09539e-09 1.01503e-09)
(-2.01168e-11 -1.17494e-09 1.06427e-09)
(-6.93347e-12 -1.16525e-09 1.05755e-09)
(-1.08119e-10 -1.06652e-09 9.95282e-10)
(3.0617e-10 -1.33713e-09 1.10671e-09)
(4.63536e-11 -1.39183e-09 1.15555e-09)
(-9.63799e-11 -1.37964e-09 1.14824e-09)
(-3.38896e-10 -1.30041e-09 1.08497e-09)
(6.18639e-10 -1.80903e-09 1.09434e-09)
(1.20406e-10 -1.69976e-09 1.14584e-09)
(-2.01354e-10 -1.68309e-09 1.13841e-09)
(-6.76571e-10 -1.75706e-09 1.07191e-09)
(2.54929e-11 -1.83923e-11 5.42645e-11)
(-1.11766e-11 -6.76782e-11 6.70927e-11)
(1.11969e-11 -6.91336e-11 6.63672e-11)
(-1.30087e-11 -3.00221e-11 5.22677e-11)
(4.44138e-11 -2.45289e-10 1.95373e-10)
(-1.73442e-11 -2.82611e-10 2.17836e-10)
(2.41357e-11 -2.83352e-10 2.15949e-10)
(-2.205e-11 -2.50349e-10 1.90175e-10)
(3.46936e-11 -4.8749e-10 3.54897e-10)
(-2.40498e-11 -5.05868e-10 3.78953e-10)
(3.39493e-11 -5.04605e-10 3.76137e-10)
(-1.0034e-11 -4.84596e-10 3.47012e-10)
(1.682e-11 -7.01185e-10 5.15781e-10)
(-3.47042e-11 -7.23061e-10 5.38431e-10)
(4.1603e-11 -7.19265e-10 5.3482e-10)
(4.52752e-12 -6.90267e-10 5.05484e-10)
(1.91062e-11 -8.85222e-10 6.61347e-10)
(-3.92067e-11 -9.33453e-10 6.81908e-10)
(3.7058e-11 -9.2703e-10 6.77584e-10)
(-6.59316e-12 -8.66329e-10 6.48832e-10)
(9.14935e-11 -1.0496e-09 7.72582e-10)
(-1.74449e-11 -1.13048e-09 7.91625e-10)
(3.61246e-13 -1.1215e-09 7.86681e-10)
(-9.32806e-11 -1.02297e-09 7.58092e-10)
(2.99033e-10 -1.26868e-09 8.27819e-10)
(4.81394e-11 -1.32697e-09 8.46829e-10)
(-8.66396e-11 -1.31545e-09 8.41445e-10)
(-3.20115e-10 -1.23405e-09 8.1182e-10)
(6.03103e-10 -1.72307e-09 8.1262e-10)
(1.2074e-10 -1.62736e-09 8.34409e-10)
(-1.88865e-10 -1.61126e-09 8.28948e-10)
(-6.47959e-10 -1.67281e-09 7.96116e-10)
(2.34849e-11 -2.13007e-11 4.24335e-11)
(-1.00176e-11 -6.70156e-11 4.8017e-11)
(1.03403e-11 -6.85805e-11 4.75317e-11)
(-1.05798e-11 -3.33711e-11 4.11057e-11)
(4.32748e-11 -2.43588e-10 1.44201e-10)
(-1.49404e-11 -2.79216e-10 1.53137e-10)
(2.30035e-11 -2.80298e-10 1.51882e-10)
(-1.95055e-11 -2.49785e-10 1.40766e-10)
(3.69368e-11 -4.79949e-10 2.56058e-10)
(-1.99726e-11 -4.98866e-10 2.64719e-10)
(3.24344e-11 -4.98079e-10 2.6284e-10)
(-9.62309e-12 -4.78587e-10 2.50832e-10)
(2.35711e-11 -6.8498e-10 3.67684e-10)
(-2.84939e-11 -7.08429e-10 3.74828e-10)
(3.94196e-11 -7.05171e-10 3.72401e-10)
(1.86058e-12 -6.75776e-10 3.60803e-10)
(3.02839e-11 -8.56962e-10 4.66642e-10)
(-3.09584e-11 -9.06653e-10 4.72138e-10)
(3.43188e-11 -9.0079e-10 4.69208e-10)
(-1.22193e-11 -8.39833e-10 4.582e-10)
(1.05087e-10 -1.00965e-09 5.39198e-10)
(-8.11985e-12 -1.09144e-09 5.43662e-10)
(-2.07356e-12 -1.083e-09 5.40293e-10)
(-9.99318e-11 -9.84751e-10 5.29354e-10)
(3.1055e-10 -1.22148e-09 5.7266e-10)
(5.68236e-11 -1.28189e-09 5.77322e-10)
(-8.72263e-11 -1.27088e-09 5.73644e-10)
(-3.2344e-10 -1.18843e-09 5.61749e-10)
(6.08669e-10 -1.66745e-09 5.61162e-10)
(1.28449e-10 -1.58005e-09 5.67885e-10)
(-1.87474e-10 -1.56438e-09 5.64157e-10)
(-6.44244e-10 -1.61848e-09 5.49905e-10)
(2.3574e-11 -2.16676e-11 2.68688e-11)
(-8.88601e-12 -6.5998e-11 2.91445e-11)
(9.37159e-12 -6.76319e-11 2.88667e-11)
(-1.04239e-11 -3.40109e-11 2.61113e-11)
(4.54533e-11 -2.38374e-10 8.84212e-11)
(-1.2345e-11 -2.73874e-10 9.16219e-11)
(2.11354e-11 -2.75175e-10 9.09041e-11)
(-2.08598e-11 -2.4529e-10 8.64664e-11)
(4.20046e-11 -4.68461e-10 1.54533e-10)
(-1.5964e-11 -4.88288e-10 1.57114e-10)
(2.99341e-11 -4.87818e-10 1.56038e-10)
(-1.31093e-11 -4.68103e-10 1.51554e-10)
(3.16898e-11 -6.67142e-10 2.19678e-10)
(-2.30444e-11 -6.91829e-10 2.21198e-10)
(3.63973e-11 -6.88936e-10 2.19803e-10)
(-3.77844e-12 -6.59086e-10 2.15738e-10)
(4.10762e-11 -8.33094e-10 2.76625e-10)
(-2.42556e-11 -8.83752e-10 2.77147e-10)
(3.10051e-11 -8.78268e-10 2.75455e-10)
(-1.95803e-11 -8.17153e-10 2.71763e-10)
(1.1714e-10 -9.81634e-10 3.17531e-10)
(-7.98157e-13 -1.06387e-09 3.17505e-10)
(-5.08646e-12 -1.05581e-09 3.1555e-10)
(-1.07632e-10 -9.57886e-10 3.11834e-10)
(3.21125e-10 -1.19166e-09 3.35804e-10)
(6.37419e-11 -1.25303e-09 3.35997e-10)
(-8.90184e-11 -1.24236e-09 3.33859e-10)
(-3.28823e-10 -1.15968e-09 3.29471e-10)
(6.15466e-10 -1.63331e-09 3.28957e-10)
(1.3476e-10 -1.55017e-09 3.30353e-10)
(-1.87976e-10 -1.53479e-09 3.28187e-10)
(-6.45114e-10 -1.58521e-09 3.22422e-10)
(2.37594e-11 -2.14568e-11 9.18162e-12)
(-8.34027e-12 -6.52885e-11 9.80247e-12)
(8.89654e-12 -6.69559e-11 9.71217e-12)
(-1.04961e-11 -3.39313e-11 8.93578e-12)
(4.67719e-11 -2.34759e-10 2.97819e-11)
(-1.10515e-11 -2.70396e-10 3.05722e-11)
(2.01726e-11 -2.71804e-10 3.03388e-11)
(-2.17964e-11 -2.42022e-10 2.91478e-11)
(4.47957e-11 -4.61143e-10 5.16355e-11)
(-1.39516e-11 -4.81534e-10 5.21613e-11)
(2.86204e-11 -4.8122e-10 5.18112e-11)
(-1.5161e-11 -4.61277e-10 5.06682e-11)
(3.59623e-11 -6.56534e-10 7.30054e-11)
(-2.03324e-11 -6.8187e-10 7.31597e-11)
(3.4825e-11 -6.79159e-10 7.27047e-11)
(-6.87983e-12 -6.49046e-10 7.1723e-11)
(4.65742e-11 -8.20011e-10 9.15539e-11)
(-2.0962e-11 -8.71134e-10 9.13801e-11)
(2.93217e-11 -8.6584e-10 9.08269e-11)
(-2.34416e-11 -8.04663e-10 8.99676e-11)
(1.2316e-10 -9.67343e-10 1.04768e-10)
(2.77034e-12 -1.04976e-09 1.04428e-10)
(-6.58736e-12 -1.04188e-09 1.03787e-10)
(-1.11557e-10 -9.44173e-10 1.02905e-10)
(3.26392e-10 -1.17711e-09 1.10605e-10)
(6.71181e-11 -1.23879e-09 1.10354e-10)
(-8.99158e-11 -1.22829e-09 1.09653e-10)
(-3.31575e-10 -1.14565e-09 1.08531e-10)
(6.18891e-10 -1.61691e-09 1.08345e-10)
(1.37838e-10 -1.53549e-09 1.08486e-10)
(-1.88232e-10 -1.52026e-09 1.07776e-10)
(-6.45654e-10 -1.56925e-09 1.06204e-10)
)
;

boundaryField
{
    interface
    {
        type            calculated;
        value           nonuniform List<vector> 
192
(
(3.8068e-10 6.07061e-10 3.65279e-10)
(6.2381e-10 3.12815e-10 8.0708e-10)
(6.57875e-10 -2.01086e-11 1.11904e-09)
(6.38201e-10 -3.01364e-10 1.39458e-09)
(6.34239e-10 -5.65811e-10 1.67657e-09)
(6.98424e-10 -8.5533e-10 1.99669e-09)
(8.96292e-10 -1.31406e-09 2.37805e-09)
(1.28804e-09 -2.23523e-09 2.74303e-09)
(1.29424e-10 2.43428e-10 6.98679e-11)
(2.66521e-10 -1.81122e-12 3.44799e-10)
(2.74926e-10 -2.71224e-10 6.31024e-10)
(2.44792e-10 -5.25699e-10 8.96928e-10)
(2.2905e-10 -7.75623e-10 1.1588e-09)
(2.79543e-10 -1.02837e-09 1.43114e-09)
(4.70666e-10 -1.36759e-09 1.6903e-09)
(8.9412e-10 -2.05386e-09 1.82125e-09)
(6.80921e-12 7.76764e-11 3.23167e-11)
(7.29676e-11 -1.65532e-10 2.3477e-10)
(6.66111e-11 -4.20823e-10 4.85367e-10)
(3.72331e-11 -6.55935e-10 7.34569e-10)
(2.37354e-11 -8.71032e-10 9.72881e-10)
(7.78367e-11 -1.05858e-09 1.19082e-09)
(2.75454e-10 -1.2927e-09 1.34628e-09)
(6.92506e-10 -1.85641e-09 1.36043e-09)
(-4.02331e-11 1.72018e-11 4.73927e-11)
(-4.4158e-12 -2.28085e-10 2.1767e-10)
(-1.55825e-11 -4.82976e-10 4.2489e-10)
(-3.98235e-11 -7.04624e-10 6.366e-10)
(-4.60567e-11 -8.87331e-10 8.3375e-10)
(1.50525e-11 -1.02578e-09 9.95348e-10)
(2.15914e-10 -1.20655e-09 1.08595e-09)
(6.19657e-10 -1.72309e-09 1.06899e-09)
(-5.43283e-11 -9.1592e-13 5.07279e-11)
(-2.5668e-11 -2.4299e-10 1.89897e-10)
(-3.50051e-11 -4.9439e-10 3.50499e-10)
(-5.3082e-11 -7.05083e-10 5.13815e-10)
(-5.20074e-11 -8.66556e-10 6.61986e-10)
(1.48223e-11 -9.79618e-10 7.74772e-10)
(2.1601e-10 -1.14077e-09 8.28914e-10)
(6.07796e-10 -1.63767e-09 8.10128e-10)
(-5.69003e-11 -4.61113e-12 4.19546e-11)
(-2.71492e-11 -2.40226e-10 1.44462e-10)
(-3.25733e-11 -4.84876e-10 2.57887e-10)
(-4.54014e-11 -6.86645e-10 3.71402e-10)
(-3.89725e-11 -8.36585e-10 4.72135e-10)
(3.14017e-11 -9.3959e-10 5.45611e-10)
(2.3181e-10 -1.09558e-09 5.78183e-10)
(6.14814e-10 -1.58265e-09 5.64253e-10)
(-5.66686e-11 -4.41108e-12 2.69379e-11)
(-2.48281e-11 -2.33767e-10 8.92961e-11)
(-2.70554e-11 -4.71904e-10 1.56498e-10)
(-3.63516e-11 -6.67376e-10 2.22777e-10)
(-2.66772e-11 -8.11733e-10 2.80698e-10)
(4.55712e-11 -9.11624e-10 3.22049e-10)
(2.45123e-10 -1.06709e-09 3.39765e-10)
(6.22503e-10 -1.54906e-09 3.31513e-10)
(-5.62616e-11 -3.82425e-12 9.22812e-12)
(-2.33043e-11 -2.29501e-10 3.01117e-11)
(-2.39166e-11 -4.63847e-10 5.23335e-11)
(-3.15e-11 -6.56091e-10 7.40737e-11)
(-2.03327e-11 -7.98213e-10 9.29286e-11)
(5.27037e-11 -8.97391e-10 1.06274e-10)
(2.51753e-10 -1.05318e-09 1.11922e-10)
(6.26397e-10 -1.53299e-09 1.09202e-10)
(3.81704e-10 6.82462e-10 3.68396e-10)
(6.54027e-10 4.37864e-10 8.19894e-10)
(6.89e-10 1.25945e-10 1.13921e-09)
(6.62187e-10 -1.55332e-10 1.42069e-09)
(6.54282e-10 -4.33312e-10 1.70302e-09)
(7.25627e-10 -7.53464e-10 2.01031e-09)
(9.44478e-10 -1.26167e-09 2.36424e-09)
(1.26868e-09 -2.23175e-09 2.79178e-09)
(6.09752e-11 4.89688e-10 2.57907e-10)
(1.32024e-10 3.15974e-10 6.80123e-10)
(1.3969e-10 7.60048e-11 9.83601e-10)
(1.19692e-10 -1.88681e-10 1.24461e-09)
(1.04415e-10 -4.88849e-10 1.5018e-09)
(1.20428e-10 -8.37556e-10 1.78244e-09)
(1.88628e-10 -1.3087e-09 2.12455e-09)
(2.71334e-10 -2.11946e-09 2.60455e-09)
(-7.58711e-11 4.81995e-10 2.4651e-10)
(-1.60045e-10 3.1214e-10 6.65984e-10)
(-1.80077e-10 7.64245e-11 9.6707e-10)
(-1.76153e-10 -1.84497e-10 1.22622e-09)
(-1.81196e-10 -4.81365e-10 1.48186e-09)
(-2.2201e-10 -8.27083e-10 1.76101e-09)
(-3.20506e-10 -1.2952e-09 2.10143e-09)
(-4.40976e-10 -2.10001e-09 2.57889e-09)
(-3.79621e-10 6.5436e-10 3.31868e-10)
(-6.59282e-10 4.27081e-10 7.73861e-10)
(-7.06586e-10 1.29243e-10 1.08561e-09)
(-6.95781e-10 -1.41057e-10 1.36149e-09)
(-7.07935e-10 -4.09551e-10 1.63928e-09)
(-8.03743e-10 -7.21022e-10 1.94241e-09)
(-1.05142e-09 -1.22022e-09 2.29219e-09)
(-1.40852e-09 -2.17222e-09 2.7146e-09)
(-3.19336e-10 5.87536e-10 3.47402e-10)
(-5.65609e-10 3.10293e-10 7.73078e-10)
(-6.08453e-10 -7.89205e-12 1.07637e-09)
(-6.01613e-10 -2.7672e-10 1.34582e-09)
(-6.1476e-10 -5.29736e-10 1.62274e-09)
(-7.00273e-10 -8.08368e-10 1.9382e-09)
(-9.22205e-10 -1.25587e-09 2.3147e-09)
(-1.33436e-09 -2.1576e-09 2.67445e-09)
(-7.2854e-11 2.27797e-10 6.28914e-11)
(-2.09126e-10 -2.55712e-12 3.2623e-10)
(-2.22623e-10 -2.5915e-10 6.04521e-10)
(-2.02347e-10 -5.02053e-10 8.64607e-10)
(-2.01148e-10 -7.40943e-10 1.12155e-09)
(-2.70656e-10 -9.83154e-10 1.38925e-09)
(-4.8375e-10 -1.31198e-09 1.644e-09)
(-9.24794e-10 -1.98074e-09 1.77194e-09)
(4.874e-11 6.06152e-11 2.77923e-11)
(-1.28963e-11 -1.68338e-10 2.22168e-10)
(-8.12445e-12 -4.11389e-10 4.66221e-10)
(1.44883e-11 -6.35289e-10 7.101e-10)
(1.62465e-11 -8.39563e-10 9.43782e-10)
(-5.42182e-11 -1.01682e-09 1.15749e-09)
(-2.71333e-10 -1.24092e-09 1.30934e-09)
(-7.04152e-10 -1.78713e-09 1.32152e-09)
(9.56647e-11 -1.76186e-12 4.41413e-11)
(6.67058e-11 -2.33778e-10 2.0881e-10)
(7.89166e-11 -4.76873e-10 4.1112e-10)
(9.9035e-11 -6.87497e-10 6.18458e-10)
(9.60729e-11 -8.5945e-10 8.11652e-10)
(2.10198e-11 -9.87637e-10 9.69698e-10)
(-1.97101e-10 -1.15829e-09 1.05741e-09)
(-6.14937e-10 -1.65681e-09 1.03895e-09)
(1.09857e-10 -2.12573e-11 4.84539e-11)
(8.94451e-11 -2.51092e-10 1.83782e-10)
(1.01651e-10 -4.91239e-10 3.40911e-10)
(1.17641e-10 -6.91125e-10 5.00949e-10)
(1.09439e-10 -8.41872e-10 6.46039e-10)
(3.06514e-11 -9.44584e-10 7.56043e-10)
(-1.8598e-10 -1.09537e-09 8.07955e-10)
(-5.90451e-10 -1.57377e-09 7.88033e-10)
(1.12474e-10 -2.58497e-11 4.04582e-11)
(9.19004e-11 -2.50023e-10 1.40466e-10)
(1.01422e-10 -4.83927e-10 2.51599e-10)
(1.13607e-10 -6.75124e-10 3.62878e-10)
(1.01573e-10 -8.1438e-10 4.61446e-10)
(2.07257e-11 -9.06939e-10 5.32941e-10)
(-1.9377e-10 -1.05235e-09 5.63925e-10)
(-5.88388e-10 -1.52055e-09 5.49193e-10)
(1.12277e-10 -2.61898e-11 2.60896e-11)
(9.01787e-11 -2.44617e-10 8.7038e-11)
(9.72573e-11 -4.72372e-10 1.52937e-10)
(1.06825e-10 -6.57465e-10 2.17922e-10)
(9.25328e-11 -7.91185e-10 2.74568e-10)
(1.07881e-11 -8.80568e-10 3.14739e-10)
(-2.01953e-10 -1.0253e-09 3.31504e-10)
(-5.90229e-10 -1.48817e-09 3.22774e-10)
(1.11895e-10 -2.5858e-11 8.9536e-12)
(8.89453e-11 -2.40854e-10 2.93816e-11)
(9.47651e-11 -4.65004e-10 5.11808e-11)
(1.03059e-10 -6.46972e-10 7.2498e-11)
(8.77591e-11 -7.78489e-10 9.09326e-11)
(5.70842e-12 -8.67133e-10 1.03886e-10)
(-2.06085e-10 -1.01212e-09 1.09218e-10)
(-5.91262e-10 -1.4727e-09 1.06339e-10)
(1.26726e-09 -2.28344e-09 2.83279e-09)
(9.40199e-10 -2.04e-09 1.86265e-09)
(7.16485e-10 -1.87096e-09 1.35496e-09)
(6.34287e-10 -1.75237e-09 1.03936e-09)
(6.21868e-10 -1.67004e-09 7.77226e-10)
(6.29213e-10 -1.6151e-09 5.38722e-10)
(6.36801e-10 -1.58123e-09 3.16322e-10)
(6.40492e-10 -1.56501e-09 1.04245e-10)
(2.70111e-10 -2.09335e-09 2.72332e-09)
(1.84456e-10 -1.79753e-09 1.91308e-09)
(1.12078e-10 -1.64021e-09 1.44331e-09)
(8.89149e-11 -1.54691e-09 1.09826e-09)
(9.27789e-11 -1.48557e-09 8.04482e-10)
(1.02673e-10 -1.44357e-09 5.48588e-10)
(1.10121e-10 -1.41637e-09 3.19214e-10)
(1.13667e-10 -1.40286e-09 1.04816e-10)
(-4.41902e-10 -2.06545e-09 2.70582e-09)
(-3.24253e-10 -1.77181e-09 1.90131e-09)
(-2.28097e-10 -1.61573e-09 1.4341e-09)
(-1.87039e-10 -1.5233e-09 1.09117e-09)
(-1.77511e-10 -1.46257e-09 7.99271e-10)
(-1.77875e-10 -1.42101e-09 5.4504e-10)
(-1.79226e-10 -1.3941e-09 3.17156e-10)
(-1.79803e-10 -1.38073e-09 1.04143e-10)
(-1.40948e-09 -2.19927e-09 2.77945e-09)
(-1.055e-09 -1.95997e-09 1.82692e-09)
(-8.08515e-10 -1.79381e-09 1.32709e-09)
(-7.08214e-10 -1.67746e-09 1.0179e-09)
(-6.82103e-10 -1.59682e-09 7.61473e-10)
(-6.79698e-10 -1.54308e-09 5.28005e-10)
(-6.81043e-10 -1.51e-09 3.10113e-10)
(-6.81692e-10 -1.49418e-09 1.02213e-10)
)
;
    }
    symmetry
    {
        type            symmetry;
    }
    bottom
    {
        type            calculated;
        value           uniform (0 0 0);
    }
}


// ************************************************************************* //
