/*--------------------------------*- C++ -*----------------------------------*\
| =========                 |                                                 |
| \\      /  F ield         | OpenFOAM: The Open Source CFD Toolbox           |
|  \\    /   O peration     | Version:  v1912                                 |
|   \\  /    A nd           | Website:  www.openfoam.com                      |
|    \\/     M anipulation  |                                                 |
\*---------------------------------------------------------------------------*/
FoamFile
{
    version     2.0;
    format      ascii;
    class       pointVectorField;
    location    "0.43/solid";
    object      pointD;
}
// * * * * * * * * * * * * * * * * * * * * * * * * * * * * * * * * * * * * * //

dimensions      [0 1 0 0 0 0 0];


internalField   nonuniform List<vector> 
405
(
(3.16864e-08 2.88394e-08 3.28584e-08)
(5.01401e-09 1.86089e-08 3.82167e-08)
(1.64188e-10 1.51427e-08 3.62882e-08)
(-4.60611e-09 1.84578e-08 3.77666e-08)
(-3.02749e-08 2.81025e-08 3.25815e-08)
(5.20182e-08 3.56807e-08 5.57579e-08)
(1.36279e-08 3.14695e-08 8.21676e-08)
(7.71139e-10 2.61096e-08 7.83544e-08)
(-1.19072e-08 3.08999e-08 8.1485e-08)
(-4.90151e-08 3.41823e-08 5.57245e-08)
(5.7449e-08 2.24309e-08 6.57566e-08)
(1.78702e-08 2.1158e-08 9.15701e-08)
(1.72304e-09 1.84129e-08 8.76648e-08)
(-1.42328e-08 2.00692e-08 9.12467e-08)
(-5.25815e-08 2.01571e-08 6.63707e-08)
(5.87832e-08 1.33407e-08 7.19509e-08)
(1.86216e-08 1.33673e-08 9.82265e-08)
(2.79992e-09 1.19097e-08 9.41005e-08)
(-1.28402e-08 1.18e-08 9.81501e-08)
(-5.18261e-08 1.03282e-08 7.30259e-08)
(6.0169e-08 7.44073e-09 7.73437e-08)
(1.91781e-08 7.43667e-09 1.0444e-07)
(3.99759e-09 6.07846e-09 1.00198e-07)
(-1.10048e-08 5.4365e-09 1.04551e-07)
(-5.08553e-08 3.74023e-09 7.87653e-08)
(6.32728e-08 2.7506e-09 8.34097e-08)
(2.07219e-08 2.18184e-09 1.11767e-07)
(5.3226e-09 4.2052e-10 1.07512e-07)
(-9.90081e-09 -2.23187e-10 1.12028e-07)
(-5.1343e-08 -1.59994e-09 8.51075e-08)
(6.91532e-08 -3.22744e-09 9.11541e-08)
(2.39068e-08 -4.22857e-09 1.21396e-07)
(6.77716e-09 -6.21481e-09 1.17301e-07)
(-1.01923e-08 -7.02982e-09 1.21784e-07)
(-5.43904e-08 -8.20794e-09 9.30857e-08)
(7.86684e-08 -2.43302e-08 1.01174e-07)
(2.89413e-08 -2.45757e-08 1.34538e-07)
(8.33897e-09 -2.55382e-08 1.31129e-07)
(-1.21379e-08 -2.76645e-08 1.35074e-07)
(-6.0935e-08 -2.97742e-08 1.03327e-07)
(7.27176e-08 -6.72926e-08 9.48217e-08)
(3.2066e-08 -7.84906e-08 1.05944e-07)
(9.31876e-09 -7.73944e-08 1.04151e-07)
(-1.33198e-08 -8.10979e-08 1.07145e-07)
(-5.34839e-08 -7.20674e-08 9.72274e-08)
(3.47754e-08 1.65795e-08 4.66627e-09)
(0 0 0)
(0 0 0)
(0 0 0)
(-3.31543e-08 1.5792e-08 4.90812e-09)
(7.27421e-08 2.70031e-08 1.48762e-08)
(1.18846e-08 1.58828e-08 1.66822e-08)
(5.57884e-10 1.11575e-08 1.6541e-08)
(-1.05755e-08 1.51099e-08 1.71436e-08)
(-6.87532e-08 2.50137e-08 1.57572e-08)
(7.69134e-08 1.63607e-08 2.36298e-08)
(1.55492e-08 1.26466e-08 2.60073e-08)
(1.33394e-09 1.00606e-08 2.60009e-08)
(-1.26706e-08 1.13752e-08 2.68288e-08)
(-7.12977e-08 1.35507e-08 2.52076e-08)
(7.8579e-08 9.08073e-09 2.90841e-08)
(1.61587e-08 7.84985e-09 3.1585e-08)
(2.2761e-09 6.42196e-09 3.16641e-08)
(-1.14029e-08 6.14386e-09 3.26732e-08)
(-7.10431e-08 5.48179e-09 3.1186e-08)
(8.07277e-08 4.14727e-09 3.33906e-08)
(1.66598e-08 2.77112e-09 3.59244e-08)
(3.36995e-09 1.41834e-09 3.60444e-08)
(-9.7171e-09 6.66679e-10 3.72139e-08)
(-7.09577e-08 -1.94841e-10 3.58929e-08)
(8.50644e-08 9.08827e-11 3.77767e-08)
(1.81639e-08 -2.54287e-09 4.03244e-08)
(4.61163e-09 -4.31251e-09 4.04718e-08)
(-8.73712e-09 -5.03009e-09 4.1775e-08)
(-7.27714e-08 -4.95672e-09 4.05991e-08)
(9.28387e-08 -4.98045e-09 4.29119e-08)
(2.1327e-08 -9.11368e-09 4.54575e-08)
(5.99657e-09 -1.11391e-08 4.56404e-08)
(-9.14263e-09 -1.19769e-08 4.70414e-08)
(-7.78022e-08 -1.0699e-08 4.59986e-08)
(1.05414e-07 -2.39292e-08 4.84925e-08)
(2.63386e-08 -2.7217e-08 5.10563e-08)
(7.5029e-09 -2.81839e-08 5.13204e-08)
(-1.11758e-08 -3.03269e-08 5.2736e-08)
(-8.75393e-08 -3.01166e-08 5.17766e-08)
(7.9242e-08 -7.67928e-08 5.23224e-08)
(2.96868e-08 -1.10718e-07 5.32448e-08)
(9.07548e-09 -1.08025e-07 5.35275e-08)
(-1.14038e-08 -1.12683e-07 5.49395e-08)
(-6.03854e-08 -8.14722e-08 5.52769e-08)
(2.92718e-08 1.03577e-08 -1.41431e-11)
(0 0 0)
(0 0 0)
(0 0 0)
(-2.77148e-08 9.69438e-09 2.05958e-10)
(6.12672e-08 1.61848e-08 3.1529e-09)
(8.81706e-09 7.26771e-09 5.68324e-09)
(3.82528e-10 3.21462e-09 6.38023e-09)
(-7.84198e-09 6.5345e-09 6.10219e-09)
(-5.75696e-08 1.44204e-08 3.91857e-09)
(6.47015e-08 8.58722e-09 9.35704e-09)
(1.16049e-08 5.53165e-09 1.26156e-08)
(1.01203e-09 3.23997e-09 1.36429e-08)
(-9.35097e-09 4.28412e-09 1.33367e-08)
(-5.96708e-08 5.96093e-09 1.07004e-08)
(6.59519e-08 3.49973e-09 1.46788e-08)
(1.20139e-08 2.43813e-09 1.81071e-08)
(1.83278e-09 1.09362e-09 1.92846e-08)
(-8.12391e-09 7.53917e-10 1.90574e-08)
(-5.92334e-08 5.51703e-11 1.64747e-08)
(6.78688e-08 -1.91637e-10 1.89273e-08)
(1.24256e-08 -1.50313e-09 2.2418e-08)
(2.82712e-09 -2.83214e-09 2.36747e-08)
(-6.54464e-09 -3.58279e-09 2.35495e-08)
(-5.90946e-08 -4.39913e-09 2.10861e-08)
(7.2136e-08 -3.3182e-09 2.28018e-08)
(1.3866e-08 -5.93426e-09 2.63246e-08)
(3.98749e-09 -7.69406e-09 2.76315e-08)
(-5.65962e-09 -8.39228e-09 2.76036e-08)
(-6.09697e-08 -8.24415e-09 2.52565e-08)
(8.01495e-08 -7.06932e-09 2.65782e-08)
(1.70186e-08 -1.12355e-08 3.00933e-08)
(5.30613e-09 -1.32513e-08 3.14348e-08)
(-6.18371e-09 -1.40601e-08 3.14884e-08)
(-6.63321e-08 -1.26672e-08 2.92682e-08)
(9.36116e-08 -2.31633e-08 2.94336e-08)
(2.20788e-08 -2.645e-08 3.29143e-08)
(6.75942e-09 -2.73583e-08 3.42798e-08)
(-8.37129e-09 -2.95003e-08 3.43758e-08)
(-7.70381e-08 -2.92106e-08 3.22757e-08)
(7.0501e-08 -7.15683e-08 3.11689e-08)
(2.54225e-08 -1.02403e-07 3.28854e-08)
(8.29006e-09 -9.90537e-08 3.42338e-08)
(-8.68157e-09 -1.04258e-07 3.4324e-08)
(-5.30735e-08 -7.60878e-08 3.36901e-08)
(2.58476e-08 8.21207e-09 1.01286e-10)
(0 0 0)
(0 0 0)
(0 0 0)
(-2.43967e-08 7.66152e-09 2.61278e-10)
(5.41838e-08 1.18014e-08 2.36245e-09)
(6.98639e-09 4.2019e-09 3.92631e-09)
(2.629e-10 5.96981e-10 4.53201e-09)
(-6.25809e-09 3.54278e-09 4.23389e-09)
(-5.08092e-08 1.02792e-08 2.9279e-09)
(5.73354e-08 4.25923e-09 7.0738e-09)
(9.23371e-09 1.61174e-09 9.11245e-09)
(7.76465e-10 -4.44667e-10 1.00031e-08)
(-7.45507e-09 4.56083e-10 9.65232e-09)
(-5.28427e-08 1.88744e-09 8.08246e-09)
(5.85156e-08 -3.84825e-10 1.18367e-08)
(9.54582e-09 -1.3558e-09 1.3971e-08)
(1.49354e-09 -2.61242e-09 1.4988e-08)
(-6.33526e-09 -2.94842e-09 1.4694e-08)
(-5.25302e-08 -3.59055e-09 1.3209e-08)
(6.03814e-08 -3.37741e-09 1.59051e-08)
(9.92388e-09 -4.66603e-09 1.80637e-08)
(2.39919e-09 -5.95894e-09 1.91484e-08)
(-4.89729e-09 -6.65876e-09 1.89381e-08)
(-5.25047e-08 -7.36947e-09 1.75838e-08)
(6.46277e-08 -5.58462e-09 1.93808e-08)
(1.13355e-08 -8.20344e-09 2.15522e-08)
(3.48564e-09 -9.94119e-09 2.26811e-08)
(-4.12906e-09 -1.05784e-08 2.25526e-08)
(-5.44887e-08 -1.03167e-08 2.13158e-08)
(7.27391e-08 -8.19457e-09 2.22803e-08)
(1.44879e-08 -1.23843e-08 2.44468e-08)
(4.74349e-09 -1.43834e-08 2.56043e-08)
(-4.77221e-09 -1.51266e-08 2.55439e-08)
(-6.0044e-08 -1.36132e-08 2.44168e-08)
(8.64833e-08 -2.27779e-08 2.40954e-08)
(1.95609e-08 -2.60984e-08 2.62587e-08)
(6.1461e-09 -2.69985e-08 2.74332e-08)
(-7.07177e-09 -2.90649e-08 2.74048e-08)
(-7.10969e-08 -2.86525e-08 2.63542e-08)
(6.52797e-08 -6.8577e-08 2.51007e-08)
(2.29167e-08 -9.75822e-08 2.64776e-08)
(7.63225e-09 -9.41045e-08 2.76638e-08)
(-7.48258e-09 -9.93613e-08 2.7593e-08)
(-4.91077e-08 -7.29541e-08 2.70833e-08)
(2.39464e-08 7.42209e-09 3.56022e-10)
(0 0 0)
(0 0 0)
(0 0 0)
(-2.25822e-08 6.95527e-09 4.68797e-10)
(5.01991e-08 1.00819e-08 2.3405e-09)
(6.16157e-09 3.12642e-09 3.11748e-09)
(1.87567e-10 -2.26503e-10 3.48003e-09)
(-5.60088e-09 2.5336e-09 3.33771e-09)
(-4.70802e-08 8.75438e-09 2.74366e-09)
(5.31798e-08 2.22467e-09 5.93827e-09)
(8.15741e-09 -2.24346e-10 6.96077e-09)
(6.16611e-10 -2.13573e-09 7.50463e-09)
(-6.71454e-09 -1.28505e-09 7.35232e-09)
(-4.91047e-08 8.2315e-11 6.66693e-09)
(5.43997e-08 -2.60273e-09 9.76359e-09)
(8.4434e-09 -3.54275e-09 1.08256e-08)
(1.25144e-09 -4.73325e-09 1.14544e-08)
(-5.72991e-09 -5.03325e-09 1.13565e-08)
(-4.89854e-08 -5.57577e-09 1.07695e-08)
(5.62998e-08 -5.42009e-09 1.32076e-08)
(8.82209e-09 -6.70723e-09 1.42704e-08)
(2.08317e-09 -7.96401e-09 1.49468e-08)
(-4.4383e-09 -8.60053e-09 1.49203e-08)
(-4.91325e-08 -9.19319e-09 1.44562e-08)
(6.05524e-08 -7.15303e-09 1.60916e-08)
(1.02213e-08 -9.77096e-09 1.71588e-08)
(3.10607e-09 -1.14812e-08 1.78688e-08)
(-3.78323e-09 -1.20522e-08 1.79097e-08)
(-5.12386e-08 -1.16859e-08 1.75484e-08)
(6.86764e-08 -9.19697e-09 1.83271e-08)
(1.3359e-08 -1.33862e-08 1.94023e-08)
(4.31042e-09 -1.53648e-08 2.01363e-08)
(-4.51705e-09 -1.60413e-08 2.02304e-08)
(-5.68963e-08 -1.44364e-08 1.99487e-08)
(8.24521e-08 -2.30964e-08 1.97187e-08)
(1.84105e-08 -2.64392e-08 2.08143e-08)
(5.66754e-09 -2.7343e-08 2.15649e-08)
(-6.88405e-09 -2.93263e-08 2.16801e-08)
(-6.80439e-08 -2.88102e-08 2.14393e-08)
(6.24932e-08 -6.72617e-08 2.04972e-08)
(2.17685e-08 -9.50782e-08 2.138e-08)
(7.11386e-09 -9.16198e-08 2.21458e-08)
(-7.37602e-09 -9.67901e-08 2.22181e-08)
(-4.73461e-08 -7.15124e-08 2.20007e-08)
(2.29026e-08 7.05936e-09 3.93564e-10)
(0 0 0)
(0 0 0)
(0 0 0)
(-2.15967e-08 6.65033e-09 4.69775e-10)
(4.8019e-08 9.31925e-09 2.00055e-09)
(5.81912e-09 2.66375e-09 2.36453e-09)
(1.40607e-10 -5.53706e-10 2.55673e-09)
(-5.36693e-09 2.12147e-09 2.51628e-09)
(-4.50731e-08 8.13215e-09 2.27497e-09)
(5.09248e-08 1.29287e-09 4.63052e-09)
(7.71203e-09 -1.06756e-09 5.10993e-09)
(5.11464e-10 -2.8965e-09 5.40504e-09)
(-6.49431e-09 -2.05165e-09 5.38172e-09)
(-4.71367e-08 -6.72826e-10 5.13124e-09)
(5.21943e-08 -3.75249e-09 7.43195e-09)
(7.99575e-09 -4.68514e-09 7.92615e-09)
(1.08562e-09 -5.83179e-09 8.27373e-09)
(-5.62644e-09 -6.08921e-09 8.29779e-09)
(-4.71806e-08 -6.5367e-09 8.13105e-09)
(5.41389e-08 -6.63191e-09 1.00274e-08)
(8.38027e-09 -7.92039e-09 1.05183e-08)
(1.86008e-09 -9.14719e-09 1.08979e-08)
(-4.45353e-09 -9.72717e-09 1.09772e-08)
(-4.74796e-08 -1.0221e-08 1.09052e-08)
(5.83987e-08 -8.25291e-09 1.22104e-08)
(9.76845e-09 -1.08619e-08 1.27062e-08)
(2.83198e-09 -1.25453e-08 1.31107e-08)
(-3.88823e-09 -1.30614e-08 1.32404e-08)
(-4.96872e-08 -1.2616e-08 1.3245e-08)
(6.64963e-08 -1.01326e-08 1.38826e-08)
(1.28814e-08 -1.43044e-08 1.43936e-08)
(3.99235e-09 -1.62601e-08 1.48181e-08)
(-4.68407e-09 -1.6885e-08 1.49856e-08)
(-5.53953e-08 -1.52203e-08 1.50427e-08)
(8.02163e-08 -2.37353e-08 1.49854e-08)
(1.78984e-08 -2.70769e-08 1.55227e-08)
(5.31174e-09 -2.7976e-08 1.59615e-08)
(-7.09061e-09 -2.98985e-08 1.61427e-08)
(-6.65447e-08 -2.93165e-08 1.62217e-08)
(6.10102e-08 -6.68789e-08 1.56344e-08)
(2.12439e-08 -9.39425e-08 1.61773e-08)
(6.72548e-09 -9.05183e-08 1.66232e-08)
(-7.63503e-09 -9.55985e-08 1.67757e-08)
(-4.66384e-08 -7.10263e-08 1.67134e-08)
(2.23192e-08 6.87002e-09 3.04854e-10)
(0 0 0)
(0 0 0)
(0 0 0)
(-2.10489e-08 6.49797e-09 3.51896e-10)
(4.68105e-08 8.93937e-09 1.42097e-09)
(5.66731e-09 2.42898e-09 1.59206e-09)
(1.12293e-10 -7.15966e-10 1.68841e-09)
(-5.28154e-09 1.92122e-09 1.6873e-09)
(-4.39718e-08 7.84484e-09 1.59107e-09)
(4.96873e-08 8.49867e-10 3.147e-09)
(7.51675e-09 -1.4699e-09 3.3714e-09)
(4.45729e-10 -3.25299e-09 3.52249e-09)
(-6.44072e-09 -2.40014e-09 3.54269e-09)
(-4.60803e-08 -9.94401e-10 3.45932e-09)
(5.09898e-08 -4.33e-09 4.96537e-09)
(7.80104e-09 -5.26033e-09 5.19619e-09)
(9.78874e-10 -6.37939e-09 5.37766e-09)
(-5.65399e-09 -6.60194e-09 5.43172e-09)
(-4.62343e-08 -6.97988e-09 5.40494e-09)
(5.2963e-08 -7.31974e-09 6.67118e-09)
(8.18671e-09 -8.60655e-09 6.90105e-09)
(1.71302e-09 -9.81127e-09 7.10276e-09)
(-4.56167e-09 -1.03495e-08 7.19359e-09)
(-4.66376e-08 -1.07746e-08 7.22774e-09)
(5.72218e-08 -8.98823e-09 8.12235e-09)
(9.56287e-09 -1.1585e-08 8.35818e-09)
(2.6479e-09 -1.32465e-08 8.5769e-09)
(-4.05753e-09 -1.37237e-08 8.70054e-09)
(-4.89132e-08 -1.32256e-08 8.78327e-09)
(6.52845e-08 -1.08794e-08 9.24871e-09)
(1.26517e-08 -1.50301e-08 9.49893e-09)
(3.77566e-09 -1.69649e-08 9.73234e-09)
(-4.89367e-09 -1.75555e-08 9.87991e-09)
(-5.46444e-08 -1.58545e-08 9.99425e-09)
(7.89406e-08 -2.4364e-08 1.00337e-08)
(1.76379e-08 -2.76913e-08 1.03047e-08)
(5.06695e-09 -2.85785e-08 1.05483e-08)
(-7.32473e-09 -3.04649e-08 1.07044e-08)
(-6.57751e-08 -2.98473e-08 1.08311e-08)
(6.01751e-08 -6.689e-08 1.05169e-08)
(2.09649e-08 -9.34816e-08 1.0841e-08)
(6.45668e-09 -9.00727e-08 1.10853e-08)
(-7.89882e-09 -9.50967e-08 1.1226e-08)
(-4.634e-08 -7.09616e-08 1.12127e-08)
(2.20164e-08 6.77461e-09 1.61896e-10)
(0 0 0)
(0 0 0)
(0 0 0)
(-2.07652e-08 6.42302e-09 1.8434e-10)
(4.61857e-08 8.7529e-09 7.30056e-10)
(5.59578e-09 2.31262e-09 8.00889e-10)
(9.71981e-11 -7.95982e-10 8.41461e-10)
(-5.24572e-09 1.82478e-09 8.46799e-10)
(-4.34049e-08 7.71059e-09 8.11379e-10)
(4.90495e-08 6.43209e-10 1.58505e-09)
(7.42492e-09 -1.65715e-09 1.67778e-09)
(4.09825e-10 -3.41666e-09 1.74232e-09)
(-6.42649e-09 -2.55586e-09 1.76054e-09)
(-4.55418e-08 -1.13079e-09 1.73489e-09)
(5.03681e-08 -4.6034e-09 2.47746e-09)
(7.70841e-09 -5.53177e-09 2.57318e-09)
(9.1941e-10 -6.63534e-09 2.65182e-09)
(-5.68527e-09 -6.83621e-09 2.68734e-09)
(-4.57564e-08 -7.1739e-09 2.68935e-09)
(5.23543e-08 -7.67429e-09 3.3184e-09)
(8.09221e-09 -8.95806e-09 3.41461e-09)
(1.62974e-09 -1.01492e-08 3.50323e-09)
(-4.63801e-09 -1.06625e-08 3.5569e-09)
(-4.62174e-08 -1.10484e-08 3.58804e-09)
(5.66086e-08 -9.41154e-09 4.04041e-09)
(9.45885e-09 -1.19986e-08 4.14072e-09)
(2.54227e-09 -1.36459e-08 4.23809e-09)
(-4.16855e-09 -1.41003e-08 4.30778e-09)
(-4.85303e-08 -1.35726e-08 4.36211e-09)
(6.46453e-08 -1.13508e-08 4.6091e-09)
(1.25314e-08 -1.5486e-08 4.71772e-09)
(3.65006e-09 -1.74063e-08 4.82287e-09)
(-5.02779e-09 -1.79779e-08 4.9041e-09)
(-5.42716e-08 -1.62573e-08 4.97336e-09)
(7.82581e-08 -2.47958e-08 5.01923e-09)
(1.74978e-08 -2.81092e-08 5.13876e-09)
(4.92405e-09 -2.89852e-08 5.24917e-09)
(-7.4732e-09 -3.08535e-08 5.33455e-09)
(-6.53875e-08 -3.02194e-08 5.40977e-09)
(5.9725e-08 -6.69921e-08 5.2786e-09)
(2.081e-08 -9.33206e-08 5.4342e-09)
(6.2991e-09 -8.9914e-08 5.54346e-09)
(-8.06202e-09 -9.49106e-08 5.62256e-09)
(-4.62041e-08 -7.10175e-08 5.61939e-09)
(1.74146e-08 7.17245e-09 0)
(2.0012e-09 2.10027e-09 0)
(-5.96356e-12 1.59118e-10 0)
(-1.94683e-09 1.96143e-09 0)
(-1.65041e-08 6.79449e-09 0)
(2.84586e-08 6.97905e-09 0)
(5.57373e-09 2.27718e-09 0)
(9.24672e-11 -8.20266e-10 0)
(-5.23491e-09 1.79583e-09 0)
(-2.6831e-08 6.09742e-09 0)
(3.12927e-08 1.9962e-10 0)
(7.39645e-09 -1.71259e-09 0)
(3.9843e-10 -3.46474e-09 0)
(-6.42268e-09 -2.60095e-09 0)
(-2.89793e-08 -1.34222e-09 0)
(3.20783e-08 -4.76199e-09 0)
(7.67929e-09 -5.61234e-09 0)
(9.00345e-10 -6.71088e-09 0)
(-5.69591e-09 -6.90449e-09 0)
(-2.87124e-08 -7.00102e-09 0)
(3.32572e-08 -8.04495e-09 0)
(8.06195e-09 -9.06668e-09 0)
(1.60282e-09 -1.02533e-08 0)
(-4.663e-09 -1.07583e-08 0)
(-2.84231e-08 -1.09848e-08 0)
(3.62412e-08 -1.02831e-08 0)
(9.425e-09 -1.21332e-08 0)
(2.50788e-09 -1.37757e-08 0)
(-4.2047e-09 -1.42226e-08 0)
(-2.9527e-08 -1.39146e-08 0)
(4.23294e-08 -1.29301e-08 0)
(1.24918e-08 -1.56404e-08 0)
(3.60895e-09 -1.75556e-08 0)
(-5.07152e-09 -1.8121e-08 0)
(-3.33747e-08 -1.72282e-08 0)
(5.27302e-08 -2.65051e-08 0)
(1.74516e-08 -2.82552e-08 0)
(4.87711e-09 -2.91269e-08 0)
(-7.52177e-09 -3.09898e-08 0)
(-4.12906e-08 -3.1262e-08 0)
(5.03162e-08 -5.79149e-08 0)
(2.05573e-08 -6.60461e-08 0)
(5.89718e-09 -6.42576e-08 0)
(-8.61077e-09 -6.8235e-08 0)
(-3.75693e-08 -6.19946e-08 0)
)
;

boundaryField
{
    interface
    {
        type            calculated;
    }
    symmetry
    {
        type            symmetry;
    }
    bottom
    {
        type            calculated;
    }
}


// ************************************************************************* //
