/*--------------------------------*- C++ -*----------------------------------*\
| =========                 |                                                 |
| \\      /  F ield         | OpenFOAM: The Open Source CFD Toolbox           |
|  \\    /   O peration     | Version:  v1912                                 |
|   \\  /    A nd           | Website:  www.openfoam.com                      |
|    \\/     M anipulation  |                                                 |
\*---------------------------------------------------------------------------*/
FoamFile
{
    version     2.0;
    format      ascii;
    class       pointVectorField;
    location    "0.43/solid";
    object      pointDD;
}
// * * * * * * * * * * * * * * * * * * * * * * * * * * * * * * * * * * * * * //

dimensions      [0 1 0 0 0 0 0];


internalField   nonuniform List<vector> 
405
(
(2.54128e-10 4.29841e-10 2.44558e-10)
(1.1067e-10 2.93038e-10 1.56576e-10)
(-3.72399e-12 2.42921e-10 1.26104e-10)
(-1.13873e-10 2.84089e-10 1.44594e-10)
(-2.32986e-10 4.13965e-10 2.26423e-10)
(5.10055e-10 5.1005e-10 5.90162e-10)
(3.07183e-10 4.81497e-10 5.3158e-10)
(-1.07291e-11 3.99949e-10 4.62631e-10)
(-3.18705e-10 4.68894e-10 5.04556e-10)
(-4.80962e-10 4.94818e-10 5.56552e-10)
(6.56178e-10 2.14129e-10 9.71307e-10)
(4.03685e-10 2.38947e-10 9.05707e-10)
(-1.71018e-11 1.95136e-10 8.24194e-10)
(-4.26497e-10 2.36222e-10 8.73131e-10)
(-6.34983e-10 2.14681e-10 9.27231e-10)
(6.61816e-10 -8.77147e-11 1.26838e-09)
(4.02642e-10 -3.55157e-11 1.19703e-09)
(-2.42117e-11 -5.51871e-11 1.10537e-09)
(-4.39649e-10 -2.99717e-11 1.1601e-09)
(-6.53108e-10 -7.41065e-11 1.21732e-09)
(6.47227e-10 -3.63955e-10 1.54872e-09)
(3.85144e-10 -3.16543e-10 1.46753e-09)
(-3.33105e-11 -3.35848e-10 1.36362e-09)
(-4.40266e-10 -3.04118e-10 1.42721e-09)
(-6.55022e-10 -3.39266e-10 1.49233e-09)
(6.78143e-10 -6.51979e-10 1.84665e-09)
(4.01188e-10 -6.28295e-10 1.74939e-09)
(-4.45911e-11 -6.58713e-10 1.63178e-09)
(-4.78721e-10 -6.09755e-10 1.70614e-09)
(-7.06678e-10 -6.17169e-10 1.78566e-09)
(8.16205e-10 -1.04613e-09 2.18732e-09)
(4.9479e-10 -1.04035e-09 2.07039e-09)
(-5.8365e-11 -1.06713e-09 1.94236e-09)
(-5.9942e-10 -1.01588e-09 2.02426e-09)
(-8.6941e-10 -1.00137e-09 2.12188e-09)
(1.09937e-09 -1.76068e-09 2.56928e-09)
(6.6828e-10 -1.73039e-09 2.47128e-09)
(-7.53798e-11 -1.70584e-09 2.35235e-09)
(-8.05357e-10 -1.69691e-09 2.42178e-09)
(-1.17913e-09 -1.70148e-09 2.49898e-09)
(1.27466e-09 -2.25014e-09 2.7892e-09)
(7.69347e-10 -2.182e-09 2.73811e-09)
(-8.53585e-11 -2.09457e-09 2.65314e-09)
(-9.25221e-10 -2.13424e-09 2.69469e-09)
(-1.38412e-09 -2.17636e-09 2.72283e-09)
(1.27526e-10 2.12622e-10 1.08787e-10)
(0 0 0)
(0 0 0)
(0 0 0)
(-9.80475e-11 2.03833e-10 1.02573e-10)
(3.50109e-10 2.90373e-10 3.96756e-10)
(0 0 0)
(0 0 0)
(0 0 0)
(-2.91731e-10 2.80767e-10 3.774e-10)
(4.55783e-10 4.91772e-12 7.25486e-10)
(0 0 0)
(0 0 0)
(0 0 0)
(-4.01453e-10 1.01736e-11 6.95051e-10)
(4.53949e-10 -2.79599e-10 1.01039e-09)
(0 0 0)
(0 0 0)
(0 0 0)
(-4.08759e-10 -2.61454e-10 9.7283e-10)
(4.36571e-10 -5.42124e-10 1.28172e-09)
(0 0 0)
(0 0 0)
(0 0 0)
(-4.04967e-10 -5.12363e-10 1.23868e-09)
(4.60314e-10 -8.06284e-10 1.5658e-09)
(0 0 0)
(0 0 0)
(0 0 0)
(-4.46709e-10 -7.6555e-10 1.51793e-09)
(5.86231e-10 -1.14134e-09 1.87405e-09)
(0 0 0)
(0 0 0)
(0 0 0)
(-5.94221e-10 -1.08984e-09 1.82154e-09)
(8.87278e-10 -1.74269e-09 2.15816e-09)
(0 0 0)
(0 0 0)
(0 0 0)
(-9.16277e-10 -1.67655e-09 2.10127e-09)
(1.0974e-09 -2.15313e-09 2.31493e-09)
(6.65507e-10 -2.05358e-09 2.33296e-09)
(-7.78973e-11 -1.93203e-09 2.31088e-09)
(-8.07658e-10 -1.99912e-09 2.30338e-09)
(-1.18091e-09 -2.07439e-09 2.26319e-09)
(3.40583e-11 8.02761e-11 2.55461e-11)
(0 0 0)
(0 0 0)
(0 0 0)
(-6.02848e-12 7.21032e-11 2.26709e-11)
(1.18931e-10 3.84402e-11 1.70438e-10)
(0 0 0)
(0 0 0)
(0 0 0)
(-6.15341e-11 2.93795e-11 1.5977e-10)
(1.70256e-10 -2.14848e-10 4.2399e-10)
(0 0 0)
(0 0 0)
(0 0 0)
(-1.13192e-10 -2.10358e-10 4.04785e-10)
(1.55891e-10 -4.6842e-10 6.86972e-10)
(0 0 0)
(0 0 0)
(0 0 0)
(-1.04651e-10 -4.5197e-10 6.61362e-10)
(1.33703e-10 -7.07072e-10 9.40795e-10)
(0 0 0)
(0 0 0)
(0 0 0)
(-9.31899e-11 -6.79462e-10 9.10009e-10)
(1.52541e-10 -9.334e-10 1.18841e-09)
(0 0 0)
(0 0 0)
(0 0 0)
(-1.27444e-10 -8.9512e-10 1.15302e-09)
(2.75875e-10 -1.18681e-09 1.41464e-09)
(0 0 0)
(0 0 0)
(0 0 0)
(-2.69989e-10 -1.13822e-09 1.37502e-09)
(5.83186e-10 -1.64264e-09 1.55457e-09)
(0 0 0)
(0 0 0)
(0 0 0)
(-5.96007e-10 -1.58019e-09 1.5117e-09)
(8.10827e-10 -1.95531e-09 1.59983e-09)
(4.88304e-10 -1.83717e-09 1.6435e-09)
(-6.39541e-11 -1.70632e-09 1.67295e-09)
(-6.03966e-10 -1.78533e-09 1.62236e-09)
(-8.73114e-10 -1.88041e-09 1.56187e-09)
(-8.35597e-12 2.37196e-11 1.99273e-11)
(0 0 0)
(0 0 0)
(0 0 0)
(3.61012e-11 1.47133e-11 1.79834e-11)
(8.78199e-12 -7.46848e-11 1.33038e-10)
(0 0 0)
(0 0 0)
(0 0 0)
(4.95536e-11 -8.58155e-11 1.25728e-10)
(2.98951e-11 -3.24354e-10 3.40674e-10)
(0 0 0)
(0 0 0)
(0 0 0)
(3.11504e-11 -3.22594e-10 3.27079e-10)
(1.21095e-11 -5.66089e-10 5.70356e-10)
(0 0 0)
(0 0 0)
(0 0 0)
(4.60789e-11 -5.52762e-10 5.51475e-10)
(-6.22792e-12 -7.79731e-10 7.9445e-10)
(0 0 0)
(0 0 0)
(0 0 0)
(5.64607e-11 -7.5545e-10 7.70998e-10)
(1.7642e-11 -9.60679e-10 9.98198e-10)
(0 0 0)
(0 0 0)
(0 0 0)
(1.97803e-11 -9.25868e-10 9.70657e-10)
(1.46064e-10 -1.1459e-09 1.1546e-09)
(0 0 0)
(0 0 0)
(0 0 0)
(-1.25408e-10 -1.10092e-09 1.12349e-09)
(4.50883e-10 -1.51969e-09 1.21541e-09)
(0 0 0)
(0 0 0)
(0 0 0)
(-4.46881e-10 -1.46079e-09 1.18181e-09)
(6.65734e-10 -1.80071e-09 1.20594e-09)
(3.87941e-10 -1.70261e-09 1.23397e-09)
(-5.35357e-11 -1.58154e-09 1.26671e-09)
(-4.82966e-10 -1.65258e-09 1.21756e-09)
(-7.08955e-10 -1.7288e-09 1.17636e-09)
(-2.36403e-11 4.07147e-12 2.45302e-11)
(0 0 0)
(0 0 0)
(0 0 0)
(5.13804e-11 -5.75479e-12 2.31488e-11)
(-3.11613e-11 -1.13697e-10 1.26422e-10)
(0 0 0)
(0 0 0)
(0 0 0)
(9.04182e-11 -1.26972e-10 1.21297e-10)
(-2.01678e-11 -3.6211e-10 2.95739e-10)
(0 0 0)
(0 0 0)
(0 0 0)
(8.41797e-11 -3.63245e-10 2.86156e-10)
(-3.58733e-11 -5.96768e-10 4.81451e-10)
(0 0 0)
(0 0 0)
(0 0 0)
(9.9311e-11 -5.86683e-10 4.67859e-10)
(-4.77424e-11 -7.90898e-10 6.61538e-10)
(0 0 0)
(0 0 0)
(0 0 0)
(1.05547e-10 -7.69986e-10 6.44275e-10)
(-1.70473e-11 -9.39821e-10 8.16464e-10)
(0 0 0)
(0 0 0)
(0 0 0)
(6.42957e-11 -9.08386e-10 7.95858e-10)
(1.1545e-10 -1.08818e-09 9.21247e-10)
(0 0 0)
(0 0 0)
(0 0 0)
(-8.28526e-11 -1.04647e-09 8.97777e-10)
(4.14844e-10 -1.42702e-09 9.48495e-10)
(0 0 0)
(0 0 0)
(0 0 0)
(-3.97117e-10 -1.37106e-09 9.23087e-10)
(6.20902e-10 -1.69579e-09 9.23925e-10)
(3.59462e-10 -1.61372e-09 9.29832e-10)
(-4.57139e-11 -1.50459e-09 9.48295e-10)
(-4.38717e-10 -1.56504e-09 9.17453e-10)
(-6.48926e-10 -1.62621e-09 9.01589e-10)
(-2.78071e-11 -1.38176e-12 2.31706e-11)
(0 0 0)
(0 0 0)
(0 0 0)
(5.55829e-11 -1.17767e-11 2.2228e-11)
(-4.10114e-11 -1.22186e-10 1.0676e-10)
(0 0 0)
(0 0 0)
(0 0 0)
(1.00919e-10 -1.37055e-10 1.0329e-10)
(-3.00989e-11 -3.65621e-10 2.35686e-10)
(0 0 0)
(0 0 0)
(0 0 0)
(9.61046e-11 -3.6907e-10 2.2919e-10)
(-4.15154e-11 -5.92749e-10 3.73401e-10)
(0 0 0)
(0 0 0)
(0 0 0)
(1.0858e-10 -5.85354e-10 3.64084e-10)
(-4.73658e-11 -7.73717e-10 5.04835e-10)
(0 0 0)
(0 0 0)
(0 0 0)
(1.10565e-10 -7.55625e-10 4.92828e-10)
(-1.1189e-11 -9.05587e-10 6.13626e-10)
(0 0 0)
(0 0 0)
(0 0 0)
(6.55971e-11 -8.76944e-10 5.99117e-10)
(1.23511e-10 -1.03889e-09 6.8187e-10)
(0 0 0)
(0 0 0)
(0 0 0)
(-8.20933e-11 -9.99811e-10 6.65216e-10)
(4.17608e-10 -1.36417e-09 6.9537e-10)
(0 0 0)
(0 0 0)
(0 0 0)
(-3.89647e-10 -1.31051e-09 6.77276e-10)
(6.18423e-10 -1.62637e-09 6.72582e-10)
(3.61633e-10 -1.55357e-09 6.67254e-10)
(-3.99833e-11 -1.45318e-09 6.74345e-10)
(-4.29297e-10 -1.50587e-09 6.58447e-10)
(-6.3516e-10 -1.55855e-09 6.56676e-10)
(-2.83922e-11 -2.25555e-12 1.72231e-11)
(0 0 0)
(0 0 0)
(0 0 0)
(5.61878e-11 -1.30099e-11 1.66369e-11)
(-4.13866e-11 -1.20754e-10 7.56626e-11)
(0 0 0)
(0 0 0)
(0 0 0)
(1.01708e-10 -1.3667e-10 7.3513e-11)
(-2.79015e-11 -3.57693e-10 1.62036e-10)
(0 0 0)
(0 0 0)
(0 0 0)
(9.51896e-11 -3.62735e-10 1.5801e-10)
(-3.53454e-11 -5.777e-10 2.52141e-10)
(0 0 0)
(0 0 0)
(0 0 0)
(1.04778e-10 -5.72222e-10 2.46334e-10)
(-3.68506e-11 -7.50585e-10 3.36753e-10)
(0 0 0)
(0 0 0)
(0 0 0)
(1.03634e-10 -7.34538e-10 3.29203e-10)
(2.8308e-12 -8.74883e-10 4.05123e-10)
(0 0 0)
(0 0 0)
(0 0 0)
(5.64049e-11 -8.48268e-10 3.95923e-10)
(1.38476e-10 -1.00347e-09 4.46402e-10)
(0 0 0)
(0 0 0)
(0 0 0)
(-9.10522e-11 -9.66288e-10 4.35777e-10)
(4.28562e-10 -1.3236e-09 4.53428e-10)
(0 0 0)
(0 0 0)
(0 0 0)
(-3.93585e-10 -1.27159e-09 4.41849e-10)
(6.25833e-10 -1.58201e-09 4.37702e-10)
(3.69702e-10 -1.51407e-09 4.30711e-10)
(-3.60765e-11 -1.41876e-09 4.32499e-10)
(-4.2946e-10 -1.46705e-09 4.25078e-10)
(-6.3484e-10 -1.51545e-09 4.27521e-10)
(-2.82326e-11 -2.05883e-12 9.0415e-12)
(0 0 0)
(0 0 0)
(0 0 0)
(5.6043e-11 -1.30119e-11 8.7608e-12)
(-4.02657e-11 -1.17876e-10 3.88935e-11)
(0 0 0)
(0 0 0)
(0 0 0)
(1.00824e-10 -1.3438e-10 3.78657e-11)
(-2.47761e-11 -3.49755e-10 8.20598e-11)
(0 0 0)
(0 0 0)
(0 0 0)
(9.27866e-11 -3.55712e-10 8.01343e-11)
(-2.97059e-11 -5.64805e-10 1.2642e-10)
(0 0 0)
(0 0 0)
(0 0 0)
(1.00477e-10 -5.60453e-10 1.23634e-10)
(-2.87154e-11 -7.33353e-10 1.67619e-10)
(0 0 0)
(0 0 0)
(0 0 0)
(9.7544e-11 -7.18528e-10 1.6398e-10)
(1.28163e-11 -8.5474e-10 2.00487e-10)
(0 0 0)
(0 0 0)
(0 0 0)
(4.91971e-11 -8.29344e-10 1.96032e-10)
(1.48788e-10 -9.8232e-10 2.20003e-10)
(0 0 0)
(0 0 0)
(0 0 0)
(-9.78853e-11 -9.4628e-10 2.14837e-10)
(4.36444e-10 -1.30058e-09 2.231e-10)
(0 0 0)
(0 0 0)
(0 0 0)
(-3.97382e-10 -1.24957e-09 2.17459e-10)
(6.31548e-10 -1.55707e-09 2.1532e-10)
(3.7527e-10 -1.49137e-09 2.11149e-10)
(-3.38102e-11 -1.39851e-09 2.11332e-10)
(-4.30441e-10 -1.44475e-09 2.08406e-10)
(-6.36056e-10 -1.49126e-09 2.10359e-10)
(-1.08341e-11 -8.42701e-12 0)
(3.85478e-12 -2.16863e-11 0)
(1.39067e-13 -3.30611e-11 0)
(-3.99901e-13 -2.52218e-11 0)
(3.37998e-11 -1.99298e-11 0)
(-2.25863e-12 -1.22385e-10 0)
(1.27849e-11 -1.47975e-10 0)
(2.41933e-12 -1.68611e-10 0)
(-8.05854e-13 -1.53678e-10 0)
(4.2137e-11 -1.35666e-10 0)
(1.10867e-11 -3.47313e-10 0)
(1.66411e-11 -3.61958e-10 0)
(5.94744e-12 -3.76239e-10 0)
(2.95889e-12 -3.64081e-10 0)
(3.66882e-11 -3.52289e-10 0)
(6.33536e-12 -5.59404e-10 0)
(1.16185e-11 -5.7027e-10 0)
(7.29033e-12 -5.80946e-10 0)
(1.03511e-11 -5.67675e-10 0)
(4.39459e-11 -5.55575e-10 0)
(7.67599e-12 -7.32712e-10 0)
(1.03106e-11 -7.57387e-10 0)
(5.71309e-12 -7.74501e-10 0)
(8.45632e-12 -7.49677e-10 0)
(4.01242e-11 -7.19792e-10 0)
(5.05263e-11 -8.70739e-10 0)
(3.78857e-11 -9.27061e-10 0)
(1.13568e-12 -9.57153e-10 0)
(-2.8066e-11 -9.14139e-10 0)
(-1.03827e-11 -8.48614e-10 0)
(1.88502e-10 -1.02376e-09 0)
(1.2986e-10 -1.10825e-09 0)
(-6.65369e-12 -1.13968e-09 0)
(-1.34909e-10 -1.09e-09 0)
(-1.60877e-10 -9.9227e-10 0)
(4.55858e-10 -1.34505e-09 0)
(2.8756e-10 -1.39208e-09 0)
(-1.82977e-11 -1.38071e-09 0)
(-3.13844e-10 -1.36586e-09 0)
(-4.43644e-10 -1.29993e-09 0)
(6.28593e-10 -1.57164e-09 0)
(3.77722e-10 -1.53007e-09 0)
(-2.91324e-11 -1.45983e-09 0)
(-4.23845e-10 -1.4911e-09 0)
(-6.39536e-10 -1.51204e-09 0)
)
;

boundaryField
{
    interface
    {
        type            calculated;
    }
    symmetry
    {
        type            symmetry;
    }
    bottom
    {
        type            calculated;
    }
}


// ************************************************************************* //
