/*--------------------------------*- C++ -*----------------------------------*\
| =========                 |                                                 |
| \\      /  F ield         | OpenFOAM: The Open Source CFD Toolbox           |
|  \\    /   O peration     | Version:  v1912                                 |
|   \\  /    A nd           | Website:  www.openfoam.com                      |
|    \\/     M anipulation  |                                                 |
\*---------------------------------------------------------------------------*/
FoamFile
{
    version     2.0;
    format      ascii;
    class       volSymmTensorField;
    location    "0.43/solid";
    object      sigma;
}
// * * * * * * * * * * * * * * * * * * * * * * * * * * * * * * * * * * * * * //

dimensions      [1 -1 -2 0 0 0 0];


internalField   nonuniform List<symmTensor> 
256
(
(-247995 17335.2 -6739.7 325377 18280.3 -266880)
(38673.5 -9419.82 -2655.72 205611 18360.3 -284745)
(39705.2 11870.9 2642.75 203701 18677 -280813)
(-228184 -15789.7 6839.38 321874 19445.1 -252468)
(-284106 -1690.92 -9791.93 75283 -691.33 -300061)
(-47861 -4221.05 -4214.23 35968.6 412.705 -328547)
(-46366.1 6329.13 4322.41 34657.7 651.449 -324352)
(-262281 2623.68 9988.64 76426.3 153.008 -284580)
(-285959 -3192.03 -10391.3 80501.3 -2486.57 -301577)
(-54441.2 -2733.5 -4561.48 17605.1 -2227.16 -335205)
(-52986.1 4369.97 4731.11 16464.4 -2065.78 -330905)
(-263771 3866.94 10620.3 82150.2 -1901.65 -285780)
(-287583 -1611.18 -10684.7 97478.6 -1165.89 -304973)
(-47359 -1697.67 -4699.99 15027.1 -1210.52 -340947)
(-45903 2909.11 4878.9 14040.9 -1092.76 -336563)
(-265045 2120.91 10922.3 99506 -728.243 -288913)
(-297829 -87.0091 -10911.6 104169 607.107 -316733)
(-44953 -750.188 -4813.6 12846.1 540.505 -354097)
(-43471.4 1606.79 4985.27 11931.9 638.043 -349654)
(-274986 450.423 11153.3 106442 966.333 -300467)
(-321417 2164.22 -11046.5 92266.7 3353.19 -340366)
(-54343.9 521.72 -4895.68 474.861 3358.95 -380264)
(-52884.1 -14.6709 5064.65 -420.225 3450.86 -375784)
(-298459 -1981.71 11296.8 94641.9 3676 -323936)
(-365248 7011.12 -10935.2 -5170.34 8307.85 -383334)
(-85483.6 2681.89 -4857.2 -85542.3 8649.45 -429879)
(-84093.2 -2651.17 5039.67 -85870.2 8743.01 -425319)
(-342508 -7101.86 11199.1 -1527.46 8609.35 -366620)
(-326725 10382.2 -10313.1 -345959 11971.7 -345862)
(-15307.8 4667.63 -4580.02 -399106 12675.3 -398901)
(-13759 -4721.69 4770.65 -394492 12758.6 -394275)
(-304454 -10559.4 10566.8 -329317 12211.9 -329247)
(-257250 11380.1 -4869.64 169294 -10798.5 26644)
(-30442.5 -10130.5 -1107.66 47037.8 -2109.05 -35925.8)
(-29939.2 11446.7 1399.17 44335.3 -1308.65 -36515.4)
(-237638 -10273.5 5053.64 164717 -8318.45 29327.7)
(-296543 -2430.59 -7007.04 25988.8 -2742.76 -40561.5)
(-107955 -4470.35 -2334.14 -29895.7 1509.78 -109252)
(-106781 5500.05 2843.71 -31873.3 2033.51 -109626)
(-274834 2884.4 7297.49 25968.8 -1014.05 -36746.9)
(-302279 -3280.95 -7163.56 17324 -2026.61 -44864.2)
(-121571 -2915.01 -2464.49 -60808.7 -653.108 -123725)
(-120404 3640.04 3037.22 -62410.7 -274.728 -124191)
(-280162 3557.08 7479.59 18184.7 -725.83 -41332)
(-306416 -1735.47 -7191.59 19542.9 -1544.74 -41955.9)
(-119708 -1888.23 -2414.23 -76849.3 -1141.68 -126014)
(-118540 2376.98 2982.31 -78273 -842.149 -126544)
(-283898 1938.73 7510.49 20815.9 -503.579 -38597.2)
(-318269 -196.428 -7285.91 19557.6 655.844 -42849.2)
(-120018 -941.008 -2444.29 -85535.7 793.267 -129372)
(-118821 1228.43 2991.35 -86916.3 1048.07 -129949)
(-295327 324.136 7605.17 21015.1 1530 -39583.8)
(-344400 2165.63 -7324.99 8438.85 4041.17 -51545.2)
(-131193 370.332 -2487.03 -96814.1 4090.13 -140022)
(-130010 -305.759 3019.98 -98187 4312.24 -140663)
(-321138 -2165.96 7649.53 9984.34 4788.73 -48386.5)
(-394658 7274.32 -7184.62 -76428.8 6974.85 -77162.9)
(-164741 2623.22 -2465.3 -168418 7070.2 -168700)
(-163616 -2880.2 2969.93 -169170 7243.46 -169340)
(-371386 -7496.72 7504.96 -73499.2 7554.81 -73971.2)
(-365482 10975.7 -6877.96 -383429 8404.53 -5425.58)
(-85506.2 4907.69 -2444.1 -430010 8721.04 -85269.1)
(-84079.1 -5009.7 2799.28 -425418 8809.42 -85445.6)
(-342533 -11196.1 7123.51 -366565 8682.58 -1434.88)
(-221932 7613.16 -2050.18 130532 2597.6 74716.1)
(-25431 -11415.4 -55.7718 16050.8 9941.79 4157.16)
(-24889.1 12029.4 325.427 13540.7 10567.6 3348.09)
(-202418 -6812.88 2145.99 127047 4526.89 77239.8)
(-247807 -2606.94 -2703.47 34322.6 4715.74 40186.6)
(-77355.9 -4742.92 -436.228 -23182.7 8388.64 -39971.3)
(-76194.5 5214.54 891.257 -25179.5 8912.89 -40741.5)
(-226411 2840.1 2883.41 34307.9 6378.92 43345.6)
(-252389 -3087.14 -2494.44 34441.4 3317.07 33478.9)
(-88026.8 -2932.73 -376.659 -43257.8 4586.71 -57349.7)
(-86868.8 3201.39 852.989 -44920.4 5023.23 -58253.2)
(-230611 3181.27 2690.67 35094.8 4725.92 36203.3)
(-256734 -1713.71 -2338.87 37490.5 2204.36 33874.9)
(-86784.1 -1960.27 -258.599 -56638.1 2602.82 -62612.9)
(-85616.2 2088.65 706.187 -58127.7 2975.84 -63617.1)
(-234532 1774.46 2528.46 38523.8 3412.4 36301.4)
(-268430 -218.498 -2306.48 37934 2948.28 32963.9)
(-87467.7 -1049.95 -233.572 -64391.7 3086.46 -66481.7)
(-86257.2 1069.21 648.88 -65832.4 3411.68 -67565.6)
(-245721 242.994 2487.96 39171.8 3992.15 35202.6)
(-294213 2235.43 -2272.14 29407.5 4574.08 26043.2)
(-98320.5 306.76 -244.666 -72969.9 4606.94 -75632.2)
(-97101.5 -419.555 632.095 -74383.1 4883.53 -76799)
(-271012 -2301.62 2448.27 30802.7 5456.3 28135.6)
(-344445 7404.32 -2168.83 -49891.3 4749.86 6940.12)
(-130684 2614.35 -252.489 -138683 4744.06 -97462.8)
(-129492 -2958.33 575.096 -139443 4944.16 -98601.2)
(-320962 -7657.69 2324.52 -47003.1 5400.39 9142.92)
(-321689 11075 -2093.81 -340295 3752.47 92199.7)
(-53854.4 4927.22 -285.607 -380126 3715.14 1318.94)
(-52346 -5041.24 390.607 -375570 3791.69 730.531)
(-298289 -11300.6 2158.11 -323584 4006.33 95384.5)
(-201436 5996.82 -719.599 114618 6649.42 73572)
(-23764.5 -11765.6 360.573 5178.56 10958.4 2839.4)
(-23213.3 11967.5 -116.815 2951.69 11415.2 2189.22)
(-182126 -5425.36 784.486 112291 8057.08 76690)
(-222039 -2550.65 -824.766 30761.3 7857.5 52007.4)
(-66333 -4783.06 448.713 -27423.2 10074.4 -29481.2)
(-65195.2 4939.8 -31.0599 -29240.5 10504.5 -30088)
(-200999 2657.44 957.265 31220.5 9192.79 55680)
(-225905 -2832.32 -573.924 36024.7 6520.75 45548.2)
(-74917.7 -2857.68 583.23 -41044.4 7322.7 -46167.9)
(-73775.8 2883.51 -154.411 -42619.1 7713.8 -46909.8)
(-204502 2834.98 719.102 36852.8 7744.25 48756)
(-230409 -1599.48 -393.963 42708.2 4872.75 42892)
(-73817.3 -1938.77 694.616 -49616.4 5131.58 -54262.4)
(-72658.9 1886.37 -303.202 -51058.6 5484.64 -55116.9)
(-208572 1591.12 529.133 43797.3 5980.01 45753.3)
(-242186 -184.971 -325.206 45331.7 4153.41 39895.8)
(-74876.9 -1079.62 727.93 -54826.1 4257.34 -60276.3)
(-73669.7 976.582 -376.788 -56228.8 4571.79 -61226.9)
(-219795 163.428 447.175 46599.4 5135.39 42517.8)
(-267895 2270.39 -298.497 37757.9 3831.56 33060.1)
(-85912.8 273.755 714.094 -62495.8 3881.8 -69458.3)
(-84685.7 -454.107 -403.88 -63868.1 4146.37 -70497.8)
(-244913 -2359.18 407.21 39204.5 4659.15 35521.2)
(-317685 7392.19 -277.938 -39935.2 2525.46 17707.3)
(-117717 2567.71 671.19 -126813 2542.37 -87494)
(-116496 -2938.95 -443.463 -127530 2726.56 -88485.6)
(-294239 -7649.92 357.71 -36965.7 3119.4 20333.1)
(-297298 10966.5 -285.216 -316159 1593.09 106124)
(-42257.9 4845.89 626.437 -353376 1505.03 14721)
(-40706.4 -4973.75 -614.553 -348807 1567.51 14311.7)
(-273704 -11195.1 276.029 -299435 1805.54 109807)
(-189687 5404.86 -265.234 107239 6463.81 69835.2)
(-23533.3 -11636.7 350.221 628.205 8693.9 525.867)
(-22993 11599.5 -154.202 -1368.84 9019.63 0.434688)
(-170530 -4985.66 317.388 105821 7460.27 73396.4)
(-208493 -2440.06 -233.304 27269.1 7434.79 52302.7)
(-62883.1 -4699.51 541.857 -30909 8607.79 -27160.5)
(-61792.8 4670.91 -193.89 -32559.8 8928.55 -27618.4)
(-187715 2469.24 341.968 28203.3 8418.97 56420.9)
(-212156 -2641.46 -54.8883 33980.8 6819.23 47009.1)
(-70610 -2777.7 662.928 -42297.6 7256.04 -42055.7)
(-69511.1 2662.76 -299.871 -43781.5 7561.99 -42642.3)
(-191028 2592.4 175.44 35053.7 7763.99 50669.4)
(-216812 -1491.39 76.0239 42774.2 5457.46 43232.5)
(-69617.4 -1902.26 738.062 -48087.3 5608.15 -50970.7)
(-68497.1 1749.1 -407.423 -49484.2 5894.67 -51672.8)
(-195241 1445.64 35.6171 43980.3 6345.62 46531.7)
(-228682 -146.269 132.566 47058.9 4163.24 39074.9)
(-70925.8 -1084.81 757.395 -51416.1 4249.33 -58082.7)
(-69753.6 917.425 -466.98 -52794.3 4509.18 -58887.3)
(-206533 101.065 -34.8529 48385.6 4968.29 42111.1)
(-254316 2273.2 141.719 40000.2 2912.33 32387.5)
(-82097.8 247.051 736.421 -58641.4 2993.08 -67174.2)
(-80900 -461.086 -491.085 -59998.1 3211.4 -68069.7)
(-231519 -2372.45 -60.033 41488.5 3593.64 35254.9)
(-303612 7336.48 122.856 -36524.9 1301.82 18700.1)
(-113593 2517.4 684.793 -122077 1370.79 -83627)
(-112389 -2904.8 -520.053 -122784 1520.46 -84465.9)
(-280245 -7596.4 -70.8613 -33515 1786.54 21753.5)
(-284082 10842.2 86.8208 -302556 749.382 106470)
(-39118.3 4767.42 633.199 -338723 709.746 17844.6)
(-37570.5 -4910.36 -651.301 -334147 758.988 17600.4)
(-260407 -11076.7 -111.359 -285801 918.573 110604)
(-182635 5183.24 -128.121 103555 5049.95 67723.8)
(-23649.4 -11445.6 223 -1685.14 6161.96 -657.302)
(-23116 11269.7 -82.5323 -3515.36 6380.4 -1100.82)
(-163550 -4858.2 167.456 102789 5711.23 71592.7)
(-200754 -2348.91 -92.3968 25496.2 5651.2 51438.9)
(-61766.5 -4613.36 366.046 -32730.2 6244.13 -26415)
(-60712.2 4475.71 -109.161 -34255.9 6463.1 -26773.3)
(-180118 2331.54 175.393 26811.6 6317.38 55883.8)
(-204406 -2525.65 12.0693 32417 5439.48 47098.3)
(-69209.8 -2725.46 445.15 -43456.8 5668.18 -39906.1)
(-68145 2525.86 -171.177 -44867.3 5882.28 -40386.5)
(-183425 2445.85 81.5134 33718.2 6096.62 51102.4)
(-209168 -1422.11 88.6773 41921.8 4542.75 43371.3)
(-68316.5 -1880.82 486.297 -48173.6 4633.78 -48585.2)
(-67227 1665.96 -234.561 -49533.5 4838.91 -49180.5)
(-187740 1353.97 -1.19385 43255.5 5176.26 47014.2)
(-221088 -122.034 122.073 46979.2 3363.88 38960.2)
(-69771.3 -1089.73 492.036 -50615.8 3436.78 -55916.9)
(-68628.1 881.606 -272.805 -51978 3625.41 -56617)
(-199068 62.1802 -46.0316 48373.9 3947.91 42331)
(-246633 2265.53 121.887 40289.1 2081.51 32365.5)
(-81015.2 226.203 471.563 -57530.6 2169.12 -64977.4)
(-79843.1 -464.08 -291.301 -58883.1 2328.19 -65769.5)
(-223932 -2372.26 -60.0782 41816 2579.43 35561.8)
(-295521 7293.07 98.9002 -35144.2 755.742 19098.1)
(-112335 2486.35 430.78 -120075 845.87 -81111.5)
(-111149 -2888.37 -315.714 -120784 954.62 -81844.5)
(-272186 -7556.46 -61.69 -32106.8 1110.38 22483.9)
(-276221 10764.8 62.9611 -294208 401.583 105720)
(-38327.9 4722.66 383.876 -330020 407.332 19201)
(-36789.3 -4879.19 -405.608 -325441 442.997 19068.3)
(-252475 -11006.2 -83.7745 -277424 524.91 110193)
(-178529 5082.1 -70.3249 101714 3168.27 66736.5)
(-23760 -11320.6 112.22 -2917.68 3691.31 -1263.11)
(-23229.1 11068.8 -28.2324 -4640.08 3816.93 -1656.07)
(-159471 -4810.77 94.6918 101365 3545.3 70802)
(-196338 -2296.17 -54.8912 24735.3 3462.21 50883)
(-61344.1 -4561.78 187.181 -33631.9 3743.55 -26218.6)
(-60310.5 4363.68 -30.5948 -35075.1 3870.49 -26515.6)
(-175770 2252.89 106.825 26310.9 3846.03 55543.1)
(-200016 -2464.67 -3.37901 31613.3 3389.93 47104.3)
(-68703.1 -2699.4 228.036 -44155.7 3503.35 -38905.6)
(-67658.1 2451.24 -58.2124 -45515.4 3629.06 -39319.6)
(-179106 2367.38 62.7255 33083.3 3774.45 51340.2)
(-204838 -1386.21 34.1667 41237.1 2895.67 43720.1)
(-67877.1 -1873.16 246.84 -48570.4 2948.68 -47157.9)
(-66805.6 1621.11 -89.2565 -49903.3 3070.7 -47685.5)
(-183477 1304.7 21.8881 42673.8 3272.09 47599.1)
(-216774 -110.896 49.7875 46544.3 2136.52 39421.8)
(-69407.8 -1096.01 246.519 -50709.6 2187.52 -54377.2)
(-68281.3 861.469 -109.436 -52060.4 2300.79 -55010.4)
(-194813 41.602 -0.999983 47997.7 2487.56 43025.4)
(-242245 2258.75 47.4594 40086.7 1271.64 32866.5)
(-80686.8 213.146 232.687 -57426.3 1336.88 -63449.8)
(-79529.7 -468.463 -121.352 -58776.9 1432.83 -64175.9)
(-219585 -2371.18 -8.17506 41646.6 1572.97 36291)
(-290856 7271.14 32.8629 -34537.3 441.039 19572.4)
(-111910 2473.25 208.608 -119265 511.729 -79677.7)
(-110735 -2887.16 -139.073 -119977 577.432 -80344.7)
(-267527 -7538.05 -9.52496 -31479 656.44 23184.3)
(-271563 10729.8 8.98654 -289247 215.302 105370)
(-38061.6 4704.33 176.506 -324982 234.512 19858.5)
(-36528.5 -4870.97 -191.203 -320401 256.092 19794.9)
(-247763 -10976.7 -21.6391 -272439 290.271 110070)
(-176618 5036.18 -23.4871 100942 1076.51 66359.4)
(-23805.8 -11265.8 33.3295 -3458.11 1231.9 -1530.51)
(-23275.5 10980.4 -5.41357 -5127.75 1272.89 -1899.06)
(-157567 -4789.22 31.7013 100797 1198.94 70520.9)
(-194293 -2274.54 -20.2477 24463.8 1161.78 50663.7)
(-61171.1 -4540.46 55.5878 -34012.3 1245.84 -26192.9)
(-60146.8 4315.52 -3.05281 -35414.8 1287.39 -26460.3)
(-173752 2219.72 37.8618 26170.4 1286.99 55430.7)
(-197987 -2439.34 -5.0689 31295.9 1142.1 47136.1)
(-68505.6 -2689.64 67.8375 -44475.2 1177.09 -38532.3)
(-67469.6 2419.31 -10.3662 -45809.1 1218.47 -38913.9)
(-177105 2334.12 25.3454 32854.1 1268.45 51488.7)
(-202834 -1371.71 5.99212 40900.3 984.54 43982.6)
(-67711.3 -1871.6 73.1099 -48832.2 1002.51 -46525.7)
(-66647.8 1601.85 -19.467 -50151 1042.91 -47020.2)
(-181499 1283.87 13.2744 42393.4 1109.13 47981.6)
(-214773 -107.028 10.3834 46260.6 727.87 39808.2)
(-69272.9 -1100.2 72.3856 -50897.6 746.33 -53629.2)
(-68153.9 852.329 -25.6788 -52242.2 784.013 -54229.5)
(-192834 32.9706 6.41848 47747.6 844.744 43530.8)
(-240203 2255.49 9.31716 39909.8 430.154 33268.1)
(-80566.5 207.219 67.614 -57522.3 453.97 -62714.3)
(-79415.9 -471.959 -29.8346 -58871.8 485.984 -63408.2)
(-217558 -2371.07 4.17814 41488.9 530.874 36809.1)
(-288677 7263.37 4.59245 -34298.8 150.37 19895.9)
(-111747 2469.55 59.8318 -118985 176.514 -79050.1)
(-110576 -2890.12 -36.392 -119699 198.469 -79685)
(-265346 -7532.41 3.4121 -31228.6 222.544 23622.3)
(-269351 10718.1 -3.57898 -286914 69.8404 105296)
(-37932.8 4698.97 48.5106 -322649 78.8275 20130.7)
(-36401.9 -4871.01 -53.4781 -318068 86.0447 20100.6)
(-245521 -10968 -0.588096 -270092 94.9762 110111)
)
;

boundaryField
{
    interface
    {
        type            calculated;
        value           nonuniform List<symmTensor> 
192
(
(-50.1397 0.33741 3.19986 874405 18280.3 282148)
(-52.0536 0.182084 5.00144 617079 -691.33 241735)
(-53.2989 -0.158645 5.46918 630389 -2486.57 248311)
(-54.065 -0.56653 5.51995 660447 -1165.89 257996)
(-54.149 -0.912679 5.38938 690087 607.107 269184)
(-54.9103 -1.55752 5.19172 717003 3353.19 284370)
(-53.1752 -2.02766 4.7338 678834 8307.85 300671)
(-56.5861 -4.40046 4.36514 318052 11971.7 318149)
(-48.7493 0.230015 1.60026 687225 -10798.5 544575)
(-49.6878 0.086048 2.67894 551521 -2742.76 484970)
(-50.4185 -0.227758 2.9006 553125 -2026.61 490936)
(-50.9466 -0.653581 2.8718 569452 -1544.74 507953)
(-50.8375 -1.02776 2.73827 593578 655.844 531171)
(-51.5487 -1.74726 2.56623 624551 4041.17 564567)
(-49.5717 -2.27182 2.27017 608469 6974.85 607735)
(-53.2035 -4.77951 2.02527 300886 8404.53 678889)
(-51.5092 0.194499 1.27288 584961 2597.6 529146)
(-52.3477 0.0417556 2.11104 492711 4715.74 498575)
(-53.0778 -0.276472 2.27992 502208 3317.07 501245)
(-53.6106 -0.736486 2.25363 518968 2204.36 515353)
(-53.3967 -1.15571 2.14608 543015 2948.28 538045)
(-54.0065 -1.96182 2.00627 576236 4574.08 572871)
(-51.5529 -2.56889 1.78466 566509 4749.86 623340)
(-54.9703 -5.25752 1.58989 285046 3752.47 717540)
(-51.6698 0.14304 0.793334 530356 6649.42 489310)
(-52.3133 -0.0282066 1.3824 448601 7857.5 469847)
(-52.886 -0.349628 1.49414 462710 6520.75 472233)
(-53.3291 -0.823996 1.46398 482965 4872.75 483148)
(-53.0147 -1.26551 1.37807 509035 4153.41 503599)
(-53.5642 -2.1115 1.27186 542974 3831.56 538277)
(-50.9516 -2.75596 1.12631 534484 2525.46 592127)
(-54.3434 -5.49764 1.00179 270420 1593.09 692704)
(-52.484 0.119582 0.585193 500164 6463.81 462760)
(-53.0668 -0.0698227 1.01883 421716 7434.79 446749)
(-53.5704 -0.402489 1.10179 437092 6819.23 450120)
(-53.9708 -0.892888 1.07949 459442 5457.46 459901)
(-53.5829 -1.35667 1.016 487131 4163.24 479147)
(-54.0602 -2.23671 0.936488 521383 2912.33 513770)
(-51.2665 -2.9159 0.832554 513450 1301.82 568675)
(-54.5349 -5.70772 0.740779 260446 749.382 669472)
(-52.6761 0.100673 0.362508 482752 5049.95 446921)
(-53.2053 -0.103214 0.648534 406037 5651.2 431980)
(-53.6472 -0.444613 0.703484 421578 5439.48 436259)
(-54.0075 -0.94465 0.687185 444654 4542.75 446103)
(-53.5703 -1.42132 0.643875 473087 3363.88 465068)
(-54.008 -2.31945 0.590413 507522 2081.51 499598)
(-51.1304 -3.01722 0.524864 500115 755.742 554357)
(-54.3584 -5.83557 0.467959 254137 401.583 654065)
(-52.9418 0.0919014 0.214013 472985 3168.27 438008)
(-53.4515 -0.121979 0.381853 397284 3462.21 423432)
(-53.861 -0.471038 0.414452 412776 3389.93 428267)
(-54.1991 -0.978558 0.405009 435981 2895.67 438464)
(-53.7291 -1.46488 0.379844 464638 2136.52 457516)
(-54.1341 -2.37555 0.34812 499165 1271.64 491944)
(-51.1892 -3.08657 0.310509 492159 441.039 546268)
(-54.3716 -5.92412 0.276297 250384 215.302 645001)
(-53.0003 0.086099 0.0640871 468559 1076.51 433976)
(-53.4962 -0.132674 0.11802 393331 1161.78 419531)
(-53.8874 -0.484867 0.128576 408776 1142.1 424617)
(-54.2134 -0.99516 0.125278 431967 984.54 435049)
(-53.7302 -1.48556 0.117091 460660 727.87 454208)
(-54.1208 -2.40109 0.106749 495218 430.154 488577)
(-51.156 -3.11824 0.0952931 488418 150.37 542613)
(-54.3157 -5.96399 0.0844052 248621 69.8404 640830)
(334827 17335.2 -4.66714 908198 -0.948663 -20.1012)
(289759 -1690.92 -7.61261 649148 -0.987375 -15.3775)
(296195 -3192.03 -8.46232 662655 -0.710892 -12.0781)
(308605 -1611.18 -8.6532 693666 -0.488727 -11.1928)
(322118 -87.0091 -8.6484 724117 -0.40701 -11.4899)
(337720 2164.22 -8.64922 751404 -0.458214 -12.6868)
(353924 7011.12 -8.65728 714002 -0.564314 -15.0392)
(374626 10382.2 -9.28243 355392 -0.780404 -17.1348)
(614092 -9419.82 -3.02551 781030 -0.531043 -25.5872)
(535656 -4221.05 -5.49544 619485 -0.653252 -24.5203)
(539968 -2733.5 -6.13013 612015 -0.448919 -23.5493)
(562019 -1697.67 -6.23282 624405 -0.225094 -23.3629)
(589215 -750.188 -6.22961 647014 -0.0930457 -23.517)
(622174 521.72 -6.28619 676992 -0.032534 -23.9901)
(660411 2681.89 -6.46488 660352 -0.0434559 -24.7662)
(728873 4667.63 -7.33005 345075 -0.126828 -25.3363)
(607677 11870.9 -3.17856 771673 -0.344029 -22.4794)
(529297 6329.13 -5.77682 610321 -0.441882 -21.67)
(533256 4369.97 -6.48292 602707 -0.278726 -20.7993)
(555115 2909.11 -6.60535 615059 -0.0550804 -20.5996)
(582217 1606.79 -6.58536 637621 0.108059 -20.772)
(615057 -14.6709 -6.5913 667520 0.243214 -21.2168)
(653072 -2651.17 -6.68312 651295 0.326886 -22.0675)
(721792 -4721.69 -7.46886 341059 0.336906 -23.011)
(330288 -15789.7 -3.71547 880346 -0.259272 -23.087)
(286006 2623.68 -6.78381 624713 -0.319374 -22.5919)
(291927 3866.94 -7.66374 637848 -0.16219 -21.898)
(304112 2120.91 -7.83148 668663 0.0692856 -21.786)
(317542 450.423 -7.79758 698970 0.242892 -21.97)
(332924 -1981.71 -7.78867 726024 0.417539 -22.2766)
(348414 -7101.86 -7.77766 689394 0.555856 -22.8543)
(369225 -10559.4 -8.5623 344362 0.705088 -23.5174)
(-10.5443 0.936112 1.4001 837292 19445.1 262949)
(-6.59904 0.847998 2.48698 582530 153.008 221524)
(-3.97468 0.2896 2.74861 595630 -1901.65 227699)
(-2.95172 -0.287298 2.80077 625418 -728.243 236999)
(-2.99732 -0.595513 2.79237 654795 966.333 247885)
(-2.00079 -1.06067 2.92304 681605 3676 263026)
(-3.48333 -1.04849 2.95102 645097 8609.35 280005)
(5.60083 -3.35533 3.41549 298579 12211.9 298648)
(-17.1143 0.351961 -0.019674 648593 -8318.45 513204)
(-16.2818 0.286535 0.323734 515603 -1014.05 452887)
(-15.6015 -0.030575 0.328864 517305 -725.83 457788)
(-15.0937 -0.403837 0.311966 533273 -503.579 473859)
(-15.0953 -0.555378 0.338208 556831 1530 496232)
(-13.4836 -0.903316 0.522209 587282 4788.73 528911)
(-13.9339 -0.641529 0.720773 572519 7554.81 572047)
(-3.4192 -2.90137 1.14306 280067 8682.58 645197)
(-17.2214 0.184784 0.208546 547925 4526.89 498117)
(-16.5894 0.0842532 0.634515 457428 6378.92 466465)
(-16.0107 -0.138902 0.735016 466816 4725.92 467925)
(-15.3853 -0.433485 0.761219 483136 3412.4 480914)
(-15.2552 -0.506007 0.791482 506494 3992.15 502525)
(-13.2187 -0.80379 0.914739 538978 5456.3 536311)
(-13.3588 -0.435596 1.01746 530221 5400.39 586367)
(-1.75075 -2.87123 1.20755 263307 4006.33 682276)
(-18.984 0.0819116 0.0866689 495102 8057.08 459501)
(-18.6454 -0.0440338 0.432073 414512 9192.79 438972)
(-18.3203 -0.209999 0.525857 428227 7744.25 440131)
(-17.6925 -0.439279 0.551773 447896 5980.01 449852)
(-17.4589 -0.437914 0.575739 473172 5135.39 469090)
(-15.0453 -0.681972 0.663038 506229 4659.15 502546)
(-14.784 -0.233162 0.72982 498437 3119.4 555735)
(-2.41371 -2.74105 0.84038 248420 1805.54 657662)
(-19.2136 0.064937 0.159275 466266 7460.27 433841)
(-18.8801 -0.0734802 0.461569 388614 8418.97 416831)
(-18.5554 -0.224663 0.556084 403374 7763.99 418990)
(-17.8535 -0.434468 0.583879 424995 6345.62 427546)
(-17.5417 -0.403076 0.598813 451783 4968.29 445509)
(-14.9238 -0.630005 0.645902 485039 3593.64 478805)
(-14.5159 -0.152313 0.667046 477622 1786.54 532891)
(-1.71728 -2.74636 0.702947 238363 918.573 634768)
(-19.7182 0.0576504 0.102024 449759 5711.23 418562)
(-19.4018 -0.0859467 0.313284 373607 6317.38 402679)
(-19.0864 -0.229542 0.382948 388383 6096.62 405768)
(-18.3386 -0.427784 0.403561 410617 5176.26 414375)
(-17.9647 -0.375585 0.413676 438061 3947.91 432018)
(-15.1866 -0.589744 0.442667 471413 2579.43 465158)
(-14.6422 -0.0923949 0.453286 464402 1110.38 518993)
(-1.52924 -2.73742 0.471008 231982 524.91 619599)
(-19.8259 0.059241 0.077975 440540 3545.3 409977)
(-19.4986 -0.0865181 0.20752 365268 3846.03 394501)
(-19.1689 -0.228371 0.250903 379906 3774.45 398163)
(-18.3849 -0.423516 0.263603 402196 3272.09 407121)
(-17.9743 -0.362674 0.26904 429803 2487.56 424830)
(-15.1105 -0.572705 0.282693 463187 1572.97 457832)
(-14.506 -0.0675967 0.285276 456505 656.44 511168)
(-1.21118 -2.74923 0.288576 228181 290.271 610690)
(-19.9469 0.0587155 0.0202774 436372 1198.94 406096)
(-19.62 -0.0875866 0.0618487 361512 1286.99 390772)
(-19.2855 -0.227906 0.0761248 376061 1268.45 394696)
(-18.4851 -0.420856 0.0802874 398301 1109.13 403889)
(-18.0528 -0.35547 0.0823918 425914 844.744 421697)
(-15.1453 -0.562527 0.0870226 459301 530.874 454621)
(-14.4987 -0.053678 0.0888013 452788 222.544 507639)
(-1.11936 -2.75164 0.0900081 226391 94.9762 606594)
(374895 9.33249 -10313.1 -16.7946 -0.704015 355759)
(354137 8.72602 -6877.96 -14.5127 -0.485918 714194)
(338073 8.74797 -2093.81 -11.7859 -0.346079 751962)
(323435 8.79285 -285.216 -10.0225 -0.224976 726857)
(312733 8.88642 86.8208 -8.67094 -0.16849 703285)
(305576 8.94396 62.9611 -7.71785 -0.104417 687518)
(301274 8.99148 8.98654 -7.11574 -0.0647194 678206)
(299270 9.01231 -3.57898 -6.82463 -0.0193052 673916)
(729143 7.36182 -4580.02 -25.051 -0.0365226 345550)
(660763 6.49995 -2444.1 -24.3729 0.0491127 661000)
(623118 6.32538 -285.607 -23.3566 0.0968571 678291)
(592417 6.26913 626.437 -22.5887 0.100997 649396)
(570657 6.27629 633.199 -21.9463 0.0819627 627620)
(556243 6.2778 383.876 -21.4728 0.0630765 613771)
(547593 6.28836 176.506 -21.1645 0.0369626 605513)
(543566 6.29189 48.5106 -21.0018 0.0137126 601630)
(722028 7.49878 4770.65 -22.7345 0.435719 341512)
(653369 6.70917 2799.28 -21.677 0.428706 652002)
(615883 6.61774 390.607 -20.5856 0.381957 668960)
(585232 6.61557 -614.553 -19.8412 0.305744 640250)
(563460 6.65449 -651.301 -19.1839 0.236028 618630)
(549029 6.67512 -405.608 -18.7424 0.164656 604887)
(540368 6.69626 -191.203 -18.438 0.097335 596692)
(536336 6.70403 -53.4781 -18.2972 0.0321887 592839)
(369345 8.57404 10566.8 -23.2656 0.805459 344552)
(348516 7.78371 7123.51 -22.5071 0.659411 689614)
(333181 7.79335 2158.11 -21.7437 0.552909 726855)
(318778 7.81238 276.029 -21.2281 0.428161 702289)
(308130 7.88527 -111.359 -20.7084 0.330814 679140)
(301009 7.92257 -83.7745 -20.3902 0.227247 663677)
(296731 7.95778 -21.6391 -20.1509 0.136208 654564)
(294741 7.97172 -0.588096 -20.0419 0.0444623 650373)
)
;
    }
    symmetry
    {
        type            symmetry;
    }
    bottom
    {
        type            calculated;
        value           nonuniform List<symmTensor> 
32
(
(-749197 58541.2 -6739.7 31346.3 55949.4 -768082)
(-504599 41812 -4869.64 20746.7 -17968.4 -220705)
(-430248 31222 -2050.18 -2064.65 -3103.32 -133600)
(-395764 26510.8 -719.599 -8482.52 3892.13 -120756)
(-376771 24587.3 -265.234 -10712.5 5180.14 -117249)
(-365758 23731.4 -128.121 -11876.1 4442.76 -115398)
(-359494 23301.6 -70.3249 -12435.9 2894.79 -114228)
(-356615 23109.2 -23.4871 -12643.3 997.948 -113638)
(-231494 -10016.7 -2655.72 46748 51163.6 -554912)
(-75326.5 -12020.3 -1107.66 21553.6 -8083.37 -80809.7)
(-49336.9 -14334.9 -55.7718 -1095.34 5751.86 -19748.8)
(-43708.3 -14985.6 360.573 -6789.21 9079.8 -17104.4)
(-42055.2 -14856.8 350.221 -9021.17 7830.38 -17995.9)
(-41686.3 -14613.1 223 -10699.8 5744.06 -18694.3)
(-41620.2 -14450.5 112.22 -11788.2 3499.18 -19123.3)
(-41599.9 -14378.4 33.3295 -12293.2 1176.31 -19324.5)
(-228659 11753.5 2642.75 46312 51429.6 -549177)
(-74930.3 12461.9 1399.17 18606.8 -7144.77 -81506.6)
(-48971.5 14044.1 325.427 -3821.49 6465.85 -20734.3)
(-43335.5 14328.1 -116.815 -9207.15 9591.45 -17933)
(-41699.6 14015.1 -154.202 -11204.7 8192.25 -18706.1)
(-41342.7 13677 -82.5323 -12714.8 5985.94 -19327.5)
(-41282.1 13468 -28.2324 -13694.2 3638.09 -19709.1)
(-41263.8 13377.3 -5.41357 -14146 1221.59 -19887.4)
(-721784 -56886.3 6839.38 32436.8 57198.7 -746069)
(-482664 -40575.6 5053.64 16200.8 -15071 -215699)
(-408391 -30349.3 2145.99 -4911.58 -923.374 -128733)
(-374075 -25921.2 784.486 -9806.56 5458.22 -115259)
(-355252 -24179.4 317.388 -10937.7 6281.31 -111326)
(-344328 -23430.5 167.456 -11334 5171.23 -109186)
(-338104 -23059.4 94.6918 -11410.3 3309.49 -107831)
(-335239 -22893.1 31.7013 -11384.8 1132.52 -107151)
)
;
    }
}


// ************************************************************************* //
