/*--------------------------------*- C++ -*----------------------------------*\
| =========                 |                                                 |
| \\      /  F ield         | OpenFOAM: The Open Source CFD Toolbox           |
|  \\    /   O peration     | Version:  v1912                                 |
|   \\  /    A nd           | Website:  www.openfoam.com                      |
|    \\/     M anipulation  |                                                 |
\*---------------------------------------------------------------------------*/
FoamFile
{
    version     2.0;
    format      ascii;
    class       volScalarField;
    location    "0.43/solid";
    object      sigmaHyd;
}
// * * * * * * * * * * * * * * * * * * * * * * * * * * * * * * * * * * * * * //

dimensions      [1 -1 -2 0 0 0 0];


internalField   nonuniform List<scalar> 
256
(
-719747
-367132
-364065
-699649
-947925
-537495
-533625
-924015
-962890
-556627
-552554
-938082
-972176
-563896
-559673
-946670
-998371
-579387
-575072
-972366
-1.05638e+06
-617634
-613285
-1.03017e+06
-1.22033e+06
-750552
-745855
-1.19356e+06
-1.8031e+06
-1.29317e+06
-1.28424e+06
-1.76557e+06
-341888
-65877.2
-66811.3
-331940
-489934
-157254
-157705
-477356
-504429
-178563
-178907
-491298
-511012
-185014
-185297
-497398
-526576
-190829
-191082
-512526
-564211
-207416
-207668
-549859
-693695
-298280
-298170
-678535
-1.22066e+06
-750579
-745787
-1.19354e+06
-270667
-30716.8
-31789.3
-260860
-376322
-83578.1
-84351.9
-364592
-387158
-100466
-101167
-375021
-393723
-106781
-107434
-381139
-408203
-111855
-112481
-395143
-442824
-125502
-126113
-429313
-564243
-207024
-207229
-549614
-1.05672e+06
-617260
-612727
-1.02978e+06
-252164
-31174.7
-32118.9
-242053
-344728
-73978.9
-74674.3
-333039
-353289
-87718.3
-88369.8
-341312
-359638
-93396.3
-94015.5
-347261
-374044
-98424.3
-99021.9
-361186
-408141
-111702
-112280
-394758
-526194
-189878
-190029
-511515
-997799
-577816
-573201
-970532
-243137
-32635.9
-33480
-232800
-331150
-72302.6
-72927
-319451
-338691
-84403.9
-85006.5
-326785
-344758
-89464.2
-90048.8
-332496
-359034
-94314
-94884.8
-346301
-392821
-107420
-107972
-379534
-508888
-183955
-184071
-494214
-967999
-559810
-555141
-940556
-237676
-33467.6
-34241.1
-227159
-323692
-71841.2
-72415.5
-311946
-330806
-83155.5
-83722.6
-318904
-336665
-87814.2
-88374.1
-324437
-350791
-92491.7
-93044.8
-338108
-384342
-105487
-106025
-371094
-499195
-181154
-181253
-484512
-950553
-549842
-545143
-922994
-234436
-33916.1
-34643.9
-223794
-319457
-71694.9
-72236.2
-307662
-326391
-82643.8
-83186.7
-314469
-332123
-87083
-87625.7
-319894
-346138
-91648.1
-92188.8
-333464
-379533
-104582
-105109
-366293
-493681
-179786
-179875
-478983
-940429
-544269
-539552
-912792
-232912
-34111.4
-34816.7
-222206
-317497
-71648.9
-72173.7
-305673
-324361
-82452.8
-82983.2
-312423
-330036
-86797.6
-87331.1
-317799
-343993
-91310.1
-91844.1
-331317
-377313
-104216
-104739
-364070
-491135
-179216
-179299
-476426
-935714
-541725
-537000
-908038
)
;

boundaryField
{
    interface
    {
        type            zeroGradient;
    }
    symmetry
    {
        type            symmetry;
    }
    bottom
    {
        type            zeroGradient;
    }
}


// ************************************************************************* //
