/*--------------------------------*- C++ -*----------------------------------*\
| =========                 |                                                 |
| \\      /  F ield         | OpenFOAM: The Open Source CFD Toolbox           |
|  \\    /   O peration     | Version:  v1912                                 |
|   \\  /    A nd           | Website:  www.openfoam.com                      |
|    \\/     M anipulation  |                                                 |
\*---------------------------------------------------------------------------*/
FoamFile
{
    version     2.0;
    format      ascii;
    class       volScalarField;
    location    "0.43/solid";
    object      T;
}
// * * * * * * * * * * * * * * * * * * * * * * * * * * * * * * * * * * * * * //

dimensions      [0 0 0 1 0 0 0];


internalField   nonuniform List<scalar> 
256
(
291.687
292.293
292.297
291.707
291.443
292.152
292.157
291.466
291.412
292.135
292.14
291.435
291.386
292.121
292.126
291.41
291.344
292.099
292.104
291.368
291.267
292.054
292.059
291.291
291.062
291.899
291.905
291.087
290.073
290.956
290.967
290.111
292.357
292.881
292.881
292.365
292.228
292.85
292.85
292.236
292.211
292.847
292.847
292.22
292.197
292.845
292.845
292.206
292.175
292.842
292.842
292.184
292.13
292.831
292.831
292.14
291.978
292.738
292.738
291.989
291.062
291.899
291.905
291.087
292.47
292.942
292.942
292.477
292.363
292.927
292.926
292.37
292.349
292.925
292.924
292.356
292.336
292.924
292.923
292.344
292.315
292.922
292.921
292.324
292.274
292.914
292.913
292.283
292.13
292.831
292.831
292.14
291.266
292.054
292.059
291.291
292.505
292.948
292.948
292.511
292.403
292.934
292.934
292.41
292.39
292.933
292.932
292.397
292.377
292.932
292.931
292.385
292.357
292.93
292.929
292.365
292.315
292.922
292.921
292.324
292.174
292.842
292.842
292.184
291.343
292.098
292.104
291.368
292.522
292.95
292.949
292.529
292.424
292.936
292.935
292.43
292.41
292.935
292.934
292.417
292.398
292.934
292.933
292.405
292.377
292.932
292.931
292.385
292.336
292.924
292.923
292.344
292.197
292.845
292.845
292.206
291.384
292.12
292.126
291.409
292.532
292.95
292.95
292.538
292.435
292.937
292.936
292.441
292.422
292.935
292.935
292.428
292.409
292.934
292.934
292.416
292.389
292.933
292.932
292.396
292.347
292.925
292.924
292.356
292.209
292.847
292.847
292.219
291.409
292.133
292.138
291.434
292.538
292.951
292.95
292.544
292.442
292.937
292.937
292.447
292.428
292.936
292.935
292.434
292.416
292.935
292.934
292.422
292.395
292.933
292.933
292.402
292.354
292.925
292.925
292.362
292.217
292.848
292.848
292.226
291.423
292.14
292.146
291.448
292.54
292.951
292.951
292.546
292.444
292.938
292.937
292.45
292.431
292.936
292.935
292.437
292.419
292.935
292.935
292.425
292.398
292.933
292.933
292.405
292.357
292.925
292.925
292.365
292.22
292.848
292.848
292.229
291.429
292.144
292.149
291.454
)
;

boundaryField
{
    interface
    {
        type            fixedValue;
        value           nonuniform List<scalar> 
192
(
290.139
289.97
289.913
289.842
289.735
289.557
289.209
288.23
290.932
290.832
290.787
290.73
290.641
290.487
290.169
289.208
291.214
291.13
291.089
291.035
290.949
290.8
290.486
289.555
291.353
291.274
291.235
291.181
291.096
290.948
290.638
289.731
291.433
291.356
291.317
291.264
291.179
291.031
290.725
289.835
291.481
291.405
291.366
291.313
291.228
291.081
290.777
289.9
291.508
291.432
291.394
291.341
291.256
291.11
290.807
289.937
291.521
291.445
291.407
291.354
291.269
291.123
290.821
289.955
290.05
289.884
289.825
289.754
289.646
289.467
289.115
288.13
290.709
290.603
290.557
290.499
290.41
290.256
289.931
288.945
290.734
290.629
290.585
290.528
290.438
290.285
289.961
288.979
290.135
289.974
289.919
289.85
289.744
289.566
289.215
288.242
290.249
290.088
290.033
289.965
289.86
289.683
289.333
288.365
291.032
290.935
290.893
290.839
290.752
290.601
290.283
289.333
291.311
291.231
291.193
291.141
291.058
290.912
290.601
289.683
291.448
291.372
291.335
291.285
291.203
291.058
290.752
289.859
291.527
291.452
291.416
291.366
291.284
291.14
290.838
289.964
291.573
291.5
291.463
291.414
291.332
291.189
290.89
290.028
291.6
291.527
291.491
291.441
291.36
291.217
290.92
290.066
291.612
291.539
291.503
291.453
291.372
291.23
290.933
290.084
288.129
289.113
289.464
289.641
289.746
289.811
289.849
289.867
288.944
289.93
290.254
290.406
290.494
290.547
290.578
290.592
288.979
289.96
290.283
290.436
290.523
290.576
290.607
290.622
288.242
289.214
289.565
289.742
289.847
289.912
289.95
289.968
)
;
    }
    symmetry
    {
        type            symmetry;
    }
    bottom
    {
        type            fixedValue;
        value           uniform 293;
    }
}


// ************************************************************************* //
