/*--------------------------------*- C++ -*----------------------------------*\
| =========                 |                                                 |
| \\      /  F ield         | OpenFOAM: The Open Source CFD Toolbox           |
|  \\    /   O peration     | Version:  v1912                                 |
|   \\  /    A nd           | Website:  www.openfoam.com                      |
|    \\/     M anipulation  |                                                 |
\*---------------------------------------------------------------------------*/
FoamFile
{
    version     2.0;
    format      ascii;
    class       volVectorField;
    location    "0.72/solid";
    object      D;
}
// * * * * * * * * * * * * * * * * * * * * * * * * * * * * * * * * * * * * * //

dimensions      [0 1 0 0 0 0 0];


internalField   nonuniform List<vector> 
256
(
(2.70861e-08 3.87857e-08 2.95435e-08)
(3.45121e-09 2.26148e-08 2.68493e-08)
(-3.25188e-09 2.22802e-08 2.67702e-08)
(-2.6075e-08 3.73797e-08 2.93768e-08)
(4.42087e-08 3.02841e-08 5.67323e-08)
(8.94579e-09 2.04716e-08 5.31627e-08)
(-7.56189e-09 1.99437e-08 5.31333e-08)
(-4.17394e-08 2.85184e-08 5.67225e-08)
(4.66517e-08 1.53808e-08 7.15936e-08)
(1.04024e-08 1.14814e-08 6.77555e-08)
(-7.56624e-09 1.08406e-08 6.78016e-08)
(-4.27403e-08 1.33822e-08 7.17946e-08)
(4.61879e-08 2.11258e-09 8.31402e-08)
(1.0444e-08 -1.76659e-11 7.89026e-08)
(-6.03597e-09 -7.46625e-10 7.90039e-08)
(-4.07083e-08 -1.20338e-10 8.34981e-08)
(4.70519e-08 -1.05257e-08 9.45869e-08)
(1.09582e-08 -1.3377e-08 8.98778e-08)
(-4.87301e-09 -1.41889e-08 9.00149e-08)
(-3.98821e-08 -1.29877e-08 9.50495e-08)
(5.14588e-08 -2.45767e-08 1.07629e-07)
(1.29466e-08 -2.88214e-08 1.02483e-07)
(-5.08797e-09 -2.97174e-08 1.02643e-07)
(-4.25076e-08 -2.72635e-08 1.08159e-07)
(6.16856e-08 -4.62849e-08 1.23419e-07)
(1.70049e-08 -4.96542e-08 1.18291e-07)
(-7.31857e-09 -5.06172e-08 1.18461e-07)
(-5.09089e-08 -4.91541e-08 1.23983e-07)
(7.63105e-08 -9.96479e-08 1.3947e-07)
(2.14476e-08 -9.61179e-08 1.35334e-07)
(-1.0015e-08 -9.69111e-08 1.35499e-07)
(-6.37333e-08 -1.02101e-07 1.40028e-07)
(1.88545e-08 1.76717e-08 5.7673e-09)
(1.75912e-09 4.41151e-09 7.08466e-09)
(-1.58282e-09 4.18043e-09 7.15893e-09)
(-1.78841e-08 1.65544e-08 5.98145e-09)
(3.10674e-08 1.20687e-08 2.27001e-08)
(5.65095e-09 3.8614e-09 2.52668e-08)
(-4.3767e-09 3.37205e-09 2.54191e-08)
(-2.87679e-08 1.04254e-08 2.31409e-08)
(3.24836e-08 2.05402e-09 3.67589e-08)
(6.69927e-09 -1.32052e-09 3.97444e-08)
(-4.07213e-09 -1.9586e-09 3.99606e-08)
(-2.88613e-08 8.37287e-11 3.73844e-08)
(3.17265e-08 -8.65622e-09 4.80614e-08)
(6.67224e-09 -1.06149e-08 5.10894e-08)
(-2.55991e-09 -1.13503e-08 5.13566e-08)
(-2.66269e-08 -1.08896e-08 4.88339e-08)
(3.23282e-08 -1.99916e-08 5.85617e-08)
(7.13503e-09 -2.27778e-08 6.14938e-08)
(-1.41301e-09 -2.35968e-08 6.17972e-08)
(-2.56005e-08 -2.24615e-08 5.94384e-08)
(3.65302e-08 -3.24702e-08 6.94344e-08)
(9.07398e-09 -3.67424e-08 7.22417e-08)
(-1.62722e-09 -3.76448e-08 7.25682e-08)
(-2.80587e-08 -3.51682e-08 7.03775e-08)
(4.69148e-08 -4.98478e-08 8.00801e-08)
(1.31501e-08 -5.31789e-08 8.28427e-08)
(-3.90549e-09 -5.41497e-08 8.31802e-08)
(-3.66348e-08 -5.27349e-08 8.10549e-08)
(6.23475e-08 -9.31099e-08 8.60942e-08)
(1.7655e-08 -8.8611e-08 8.89048e-08)
(-6.67182e-09 -8.94168e-08 8.92424e-08)
(-5.02687e-08 -9.55892e-08 8.70698e-08)
(1.32485e-08 1.11441e-08 2.76726e-09)
(2.83337e-10 5.03408e-11 4.53405e-09)
(-1.70224e-10 -1.48633e-10 4.59239e-09)
(-1.23654e-08 1.01414e-08 2.93394e-09)
(2.18201e-08 2.77846e-09 1.40525e-08)
(2.65622e-09 -4.0127e-09 1.73893e-08)
(-1.56266e-09 -4.46504e-09 1.75179e-08)
(-1.97288e-08 1.25854e-09 1.44223e-08)
(2.25624e-08 -6.91926e-09 2.61607e-08)
(3.31092e-09 -9.79931e-09 2.99987e-08)
(-9.61356e-10 -1.04111e-08 3.0177e-08)
(-1.92464e-08 -8.79967e-09 2.66765e-08)
(2.17453e-08 -1.62746e-08 3.70084e-08)
(3.23565e-09 -1.81336e-08 4.09522e-08)
(5.20886e-10 -1.88528e-08 4.11699e-08)
(-1.70303e-08 -1.84492e-08 3.76403e-08)
(2.23049e-08 -2.57368e-08 4.67706e-08)
(3.67091e-09 -2.85442e-08 5.07005e-08)
(1.63413e-09 -2.93534e-08 5.09484e-08)
(-1.60192e-08 -2.81699e-08 4.74906e-08)
(2.65233e-08 -3.54694e-08 5.56372e-08)
(5.5841e-09 -3.98026e-08 5.95176e-08)
(1.40059e-09 -4.06995e-08 5.97861e-08)
(-1.85304e-08 -3.81471e-08 5.64167e-08)
(3.70824e-08 -4.87537e-08 6.24452e-08)
(9.6747e-09 -5.21411e-08 6.62671e-08)
(-9.22709e-10 -5.31098e-08 6.65465e-08)
(-2.72992e-08 -5.16323e-08 6.32561e-08)
(5.26972e-08 -8.68032e-08 6.43454e-08)
(1.42071e-08 -8.23121e-08 6.81395e-08)
(-3.7351e-09 -8.31169e-08 6.84204e-08)
(-4.1122e-08 -8.92745e-08 6.51607e-08)
(1.07283e-08 9.10784e-09 2.59222e-09)
(-3.35649e-10 -7.35635e-10 3.7224e-09)
(4.03713e-10 -9.23843e-10 3.76188e-09)
(-9.92223e-09 8.16167e-09 2.70812e-09)
(1.7558e-08 -9.53323e-10 1.0982e-08)
(1.28112e-09 -6.90066e-09 1.31349e-08)
(-3.34241e-10 -7.32845e-09 1.32292e-08)
(-1.56489e-08 -2.38584e-09 1.12574e-08)
(1.80744e-08 -1.14649e-08 2.06324e-08)
(1.74523e-09 -1.40475e-08 2.31048e-08)
(3.69785e-10 -1.46327e-08 2.32378e-08)
(-1.50232e-08 -1.32589e-08 2.10225e-08)
(1.74041e-08 -2.04704e-08 2.99327e-08)
(1.69073e-09 -2.22926e-08 3.2451e-08)
(1.7614e-09 -2.29895e-08 3.26141e-08)
(-1.30207e-08 -2.2574e-08 3.04129e-08)
(1.81153e-08 -2.85933e-08 3.82355e-08)
(2.16211e-09 -3.14412e-08 4.07212e-08)
(2.7845e-09 -3.22337e-08 4.09081e-08)
(-1.22122e-08 -3.0974e-08 3.87865e-08)
(2.24553e-08 -3.63038e-08 4.50853e-08)
(4.08849e-09 -4.06943e-08 4.75252e-08)
(2.49741e-09 -4.15794e-08 4.77293e-08)
(-1.48802e-08 -3.89452e-08 4.56873e-08)
(3.30471e-08 -4.73902e-08 4.95392e-08)
(8.15502e-09 -5.09126e-08 5.19456e-08)
(1.68461e-10 -5.18728e-08 5.21595e-08)
(-2.37027e-08 -5.02438e-08 5.01704e-08)
(4.85029e-08 -8.32405e-08 5.03664e-08)
(1.26495e-08 -7.91855e-08 5.28196e-08)
(-2.62851e-09 -7.99838e-08 5.30347e-08)
(-3.73785e-08 -8.56904e-08 5.10022e-08)
(9.77423e-09 8.28191e-09 2.36665e-09)
(-4.83307e-10 -9.33438e-10 2.93369e-09)
(5.23447e-10 -1.11486e-09 2.96069e-09)
(-9.02183e-09 7.37475e-09 2.4467e-09)
(1.59926e-08 -2.31477e-09 8.73312e-09)
(8.91807e-10 -7.85389e-09 9.80852e-09)
(-4.64551e-11 -8.26455e-09 9.87545e-09)
(-1.42171e-08 -3.68424e-09 8.92986e-09)
(1.65316e-08 -1.329e-08 1.59824e-08)
(1.31398e-09 -1.57476e-08 1.72021e-08)
(6.292e-10 -1.63117e-08 1.72981e-08)
(-1.36802e-08 -1.50155e-08 1.62657e-08)
(1.60579e-08 -2.22566e-08 2.31729e-08)
(1.30902e-09 -2.4089e-08 2.43879e-08)
(1.91272e-09 -2.47659e-08 2.45065e-08)
(-1.19296e-08 -2.42978e-08 2.35247e-08)
(1.69516e-08 -2.97219e-08 2.95817e-08)
(1.83163e-09 -3.26102e-08 3.07532e-08)
(2.83845e-09 -3.3386e-08 3.08899e-08)
(-1.13474e-08 -3.20516e-08 2.99881e-08)
(2.13922e-08 -3.64519e-08 3.46154e-08)
(3.77299e-09 -4.08794e-08 3.57515e-08)
(2.50107e-09 -4.17515e-08 3.59018e-08)
(-1.4148e-08 -3.90546e-08 3.50629e-08)
(3.1924e-08 -4.66758e-08 3.76653e-08)
(7.79493e-09 -5.03043e-08 3.87974e-08)
(1.89581e-10 -5.12545e-08 3.89557e-08)
(-2.29319e-08 -4.95005e-08 3.81375e-08)
(4.71619e-08 -8.15112e-08 3.83002e-08)
(1.22349e-08 -7.7841e-08 3.95015e-08)
(-2.57459e-09 -7.86315e-08 3.96606e-08)
(-3.64046e-08 -8.39377e-08 3.87766e-08)
(9.41547e-09 7.88615e-09 1.86422e-09)
(-4.84768e-10 -1.02498e-09 2.12126e-09)
(5.07914e-10 -1.20137e-09 2.1391e-09)
(-8.69713e-09 7.00622e-09 1.91689e-09)
(1.54746e-08 -2.77297e-09 6.40317e-09)
(8.47295e-10 -8.1371e-09 6.87889e-09)
(-6.79987e-11 -8.53553e-09 6.92378e-09)
(-1.37874e-08 -4.09759e-09 6.53459e-09)
(1.61099e-08 -1.3838e-08 1.14318e-08)
(1.2845e-09 -1.6262e-08 1.19556e-08)
(5.41925e-10 -1.68108e-08 1.20207e-08)
(-1.3395e-08 -1.55133e-08 1.16233e-08)
(1.57965e-08 -2.27851e-08 1.64364e-08)
(1.32432e-09 -2.46448e-08 1.69383e-08)
(1.73591e-09 -2.53065e-08 1.70192e-08)
(-1.1847e-08 -2.47785e-08 1.66763e-08)
(1.68249e-08 -3.00172e-08 2.08905e-08)
(1.88428e-09 -3.29361e-08 2.13567e-08)
(2.58769e-09 -3.36985e-08 2.14505e-08)
(-1.14343e-08 -3.23058e-08 2.11696e-08)
(2.13198e-08 -3.64292e-08 2.4329e-08)
(3.83055e-09 -4.08722e-08 2.47755e-08)
(2.21665e-09 -4.17331e-08 2.48791e-08)
(-1.43156e-08 -3.89989e-08 2.46382e-08)
(3.17734e-08 -4.64134e-08 2.63915e-08)
(7.81039e-09 -5.00918e-08 2.68487e-08)
(-7.53141e-11 -5.10332e-08 2.69581e-08)
(-2.30405e-08 -4.92124e-08 2.67194e-08)
(4.68334e-08 -8.07247e-08 2.69338e-08)
(1.2204e-08 -7.72772e-08 2.7447e-08)
(-2.81126e-09 -7.80607e-08 2.75569e-08)
(-3.63495e-08 -8.31306e-08 2.72652e-08)
(9.26308e-09 7.69738e-09 1.17962e-09)
(-4.66694e-10 -1.06636e-09 1.28823e-09)
(4.80146e-10 -1.23945e-09 1.29846e-09)
(-8.56453e-09 6.83445e-09 1.20958e-09)
(1.52883e-08 -2.9001e-09 3.9092e-09)
(8.67516e-10 -8.19314e-09 4.10323e-09)
(-1.27542e-10 -8.58358e-09 4.12911e-09)
(-1.36535e-08 -4.19585e-09 3.98452e-09)
(1.60038e-08 -1.39137e-08 6.86601e-09)
(1.3253e-09 -1.63364e-08 7.07118e-09)
(4.29527e-10 -1.68752e-08 7.1089e-09)
(-1.33722e-08 -1.55563e-08 6.97655e-09)
(1.57916e-08 -2.2828e-08 9.79373e-09)
(1.39365e-09 -2.47115e-08 9.98069e-09)
(1.56511e-09 -2.5363e-08 1.00279e-08)
(-1.19539e-08 -2.47894e-08 9.93309e-09)
(1.6898e-08 -3.00084e-08 1.2395e-08)
(1.97376e-09 -3.29454e-08 1.2561e-08)
(2.37143e-09 -3.36985e-08 1.26159e-08)
(-1.16432e-08 -3.22686e-08 1.25581e-08)
(2.14157e-08 -3.63783e-08 1.43977e-08)
(3.9188e-09 -4.08236e-08 1.45555e-08)
(1.98125e-09 -4.16768e-08 1.46162e-08)
(-1.45663e-08 -3.89246e-08 1.45792e-08)
(3.18099e-08 -4.63415e-08 1.56118e-08)
(7.86934e-09 -5.00335e-08 1.57811e-08)
(-2.97616e-10 -5.09686e-08 1.58455e-08)
(-2.32459e-08 -4.91219e-08 1.58049e-08)
(4.67524e-08 -8.03847e-08 1.59847e-08)
(1.22311e-08 -7.70386e-08 1.61873e-08)
(-3.01486e-09 -7.7817e-08 1.6252e-08)
(-3.64483e-08 -8.27753e-08 1.61801e-08)
(9.20004e-09 7.62212e-09 4.02497e-10)
(-4.57079e-10 -1.07978e-09 4.32707e-10)
(4.66144e-10 -1.25124e-09 4.36044e-10)
(-8.51057e-09 6.7673e-09 4.12226e-10)
(1.52163e-08 -2.92231e-09 1.31376e-09)
(8.8087e-10 -8.18949e-09 1.36639e-09)
(-1.59167e-10 -8.57599e-09 1.37485e-09)
(-1.3606e-08 -4.20396e-09 1.33828e-09)
(1.59716e-08 -1.38843e-08 2.2893e-09)
(1.34945e-09 -1.63107e-08 2.34333e-09)
(3.7151e-10 -1.68445e-08 2.3557e-09)
(-1.33793e-08 -1.55107e-08 2.32541e-09)
(1.58061e-08 -2.27752e-08 3.25109e-09)
(1.4307e-09 -2.46713e-08 3.29854e-09)
(1.47934e-09 -2.53177e-08 3.31403e-09)
(-1.20219e-08 -2.47206e-08 3.29677e-09)
(1.69467e-08 -2.99542e-08 4.10469e-09)
(2.01893e-09 -3.28991e-08 4.14546e-09)
(2.26465e-09 -3.36476e-08 4.16352e-09)
(-1.17576e-08 -3.22001e-08 4.15831e-09)
(2.14719e-08 -3.63437e-08 4.76249e-09)
(3.96199e-09 -4.07877e-08 4.8012e-09)
(1.86588e-09 -4.16369e-08 4.82125e-09)
(-1.46981e-08 -3.88781e-08 4.8223e-09)
(3.18356e-08 -4.63276e-08 5.165e-09)
(7.89803e-09 -5.00204e-08 5.20837e-09)
(-4.06945e-10 -5.09521e-08 5.22963e-09)
(-2.33548e-08 -4.90983e-08 5.22879e-09)
(4.67206e-08 -8.02584e-08 5.29768e-09)
(1.22439e-08 -7.69483e-08 5.35184e-09)
(-3.11509e-09 -7.7724e-08 5.37319e-09)
(-3.65055e-08 -8.26411e-08 5.36222e-09)
)
;

boundaryField
{
    interface
    {
        type            solidTraction;
        traction        nonuniform List<vector> 
192
(
(41.147 -0.359675 -2.74074)
(42.8707 -0.332296 -4.43341)
(44.4733 -0.0610519 -5.04433)
(45.5041 0.372959 -5.21164)
(45.8284 0.753326 -5.16697)
(46.7507 1.42682 -5.03509)
(45.1913 1.93962 -4.65087)
(48.7757 4.37991 -4.35381)
(40.0978 -0.263214 -1.34432)
(40.8827 -0.256433 -2.33078)
(41.8517 -0.0171532 -2.62082)
(42.5439 0.424188 -2.64897)
(42.6083 0.825558 -2.55715)
(43.4149 1.56763 -2.41879)
(41.5712 2.13516 -2.17105)
(45.2493 4.69543 -1.97438)
(42.6581 -0.228272 -1.0549)
(43.3469 -0.219406 -1.80575)
(44.3016 0.0138836 -2.022)
(45.0067 0.476459 -2.03761)
(44.9922 0.914731 -1.96186)
(45.7174 1.73763 -1.85022)
(43.4314 2.38706 -1.6715)
(46.8705 5.11687 -1.52204)
(42.8758 -0.175647 -0.641184)
(43.3799 -0.145402 -1.16152)
(44.134 0.0893541 -1.30457)
(44.7236 0.55618 -1.30205)
(44.5893 1.01054 -1.23657)
(45.2353 1.86796 -1.14955)
(42.7901 2.55386 -1.03632)
(46.1576 5.3244 -0.947072)
(43.6555 -0.150544 -0.467355)
(44.1061 -0.0991663 -0.847054)
(44.7702 0.14469 -0.952389)
(45.3085 0.620005 -0.950464)
(45.0975 1.09141 -0.902329)
(45.6682 1.97839 -0.837819)
(43.0513 2.69754 -0.758909)
(46.2744 5.50965 -0.69501)
(43.8653 -0.131014 -0.284057)
(44.2674 -0.0618964 -0.53296)
(44.8536 0.190348 -0.602723)
(45.3413 0.670815 -0.600131)
(45.0737 1.1517 -0.566976)
(45.5974 2.05352 -0.523636)
(42.8988 2.78995 -0.475194)
(46.0644 5.62264 -0.437684)
(44.1221 -0.121597 -0.166243)
(44.507 -0.0403706 -0.311666)
(45.0522 0.219128 -0.352824)
(45.5122 0.704095 -0.35157)
(45.2089 1.19218 -0.332537)
(45.6974 2.10425 -0.307071)
(42.9351 2.85283 -0.279818)
(46.0471 5.701 -0.257507)
(44.1862 -0.115794 -0.0490575)
(44.5589 -0.0283454 -0.0954907)
(45.0813 0.234377 -0.10884)
(45.5257 0.720743 -0.108282)
(45.2068 1.21172 -0.102099)
(45.6786 2.12751 -0.0938122)
(42.8969 2.88164 -0.0857475)
(45.9818 5.73621 -0.0787949)
(3.8388 0.913107 14.8739)
(6.52847 1.10082 10.7364)
(7.61549 0.93525 6.8025)
(8.00826 0.689119 5.2212)
(8.1349 0.581709 4.87876)
(8.23835 0.619406 5.5545)
(8.38113 0.756511 7.44456)
(9.2001 0.967171 9.03908)
(2.28073 0.5459 18.8876)
(4.37196 0.834491 17.9638)
(5.14896 0.732379 16.6283)
(5.3951 0.457788 16.1679)
(5.47536 0.273761 16.0576)
(5.60214 0.175202 16.3355)
(5.91244 0.193433 16.9538)
(6.99358 0.273769 17.3215)
(2.27656 0.398399 16.0603)
(4.40938 0.671597 15.3584)
(5.23313 0.592916 14.1089)
(5.50293 0.297257 13.638)
(5.58057 0.0624839 13.5473)
(5.67668 -0.128234 13.8166)
(5.92943 -0.230377 14.5043)
(6.96583 -0.24253 15.3116)
(2.51387 0.326718 16.3829)
(5.03641 0.572505 15.9739)
(6.07913 0.491149 14.8917)
(6.43884 0.175189 14.5401)
(6.53852 -0.081392 14.5472)
(6.65925 -0.314767 14.7931)
(6.86464 -0.485801 15.2993)
(7.94953 -0.645499 15.9413)
(-8.04575 0.790018 0.711259)
(-5.31623 0.993065 1.41532)
(-2.5981 0.696273 1.64597)
(-1.24234 0.15936 1.75025)
(-0.795553 -0.129028 1.82285)
(0.606782 -0.529824 2.05346)
(0.00374941 -0.497912 2.24015)
(8.56735 -2.68791 2.82279)
(-12.3266 0.324114 -0.292399)
(-11.7843 0.44696 -0.249917)
(-10.9521 0.299479 -0.317827)
(-10.369 -0.017212 -0.329685)
(-10.1863 -0.106564 -0.271957)
(-8.65758 -0.345123 -0.0456074)
(-8.73221 -0.0853623 0.238638)
(0.0422437 -2.12803 0.687414)
(-12.607 0.184537 -0.146738)
(-12.2178 0.235256 -0.0122904)
(-11.5724 0.152895 0.0380694)
(-10.944 -0.049802 0.0916254)
(-10.6659 -0.0207948 0.173663)
(-8.77082 -0.167534 0.356564)
(-8.52548 0.205731 0.547813)
(0.849268 -1.93631 0.800308)
(-13.9861 0.0908902 -0.171583)
(-13.8224 0.0901858 -0.0541806)
(-13.4897 0.052676 0.0121517)
(-12.9307 -0.0565569 0.0706111)
(-12.6165 0.0726715 0.140806)
(-10.4658 0.010037 0.273305)
(-9.87914 0.460077 0.400545)
(-0.183713 -1.69972 0.552462)
(-14.2714 0.0756214 -0.0551068)
(-14.102 0.0574651 0.0822124)
(-13.7978 0.0398514 0.170599)
(-13.1882 -0.0276329 0.232418)
(-12.7968 0.150601 0.288275)
(-10.4838 0.123964 0.371122)
(-9.7619 0.594812 0.434502)
(0.104409 -1.61795 0.502549)
(-14.7059 0.0706643 -0.0372652)
(-14.5429 0.0473043 0.0662578)
(-14.2604 0.042828 0.137577)
(-13.6197 0.000815143 0.184105)
(-13.1788 0.21031 0.222704)
(-10.7559 0.206515 0.274262)
(-9.93035 0.686503 0.309912)
(0.0623913 -1.5555 0.346132)
(-14.8269 0.0741234 -0.00540599)
(-14.6487 0.0511047 0.0632684)
(-14.3543 0.0532748 0.110115)
(-13.6805 0.0219534 0.139259)
(-13.2052 0.245625 0.161755)
(-10.7218 0.250543 0.188657)
(-9.85338 0.732045 0.204999)
(0.208135 -1.53329 0.219132)
(-14.9342 0.0749313 -0.00559239)
(-14.7539 0.052694 0.0161274)
(-14.4564 0.0585163 0.0316794)
(-13.7692 0.0325467 0.0413117)
(-13.2755 0.263032 0.048907)
(-10.7627 0.27262 0.0577329)
(-9.86472 0.754946 0.0636276)
(0.227753 -1.52019 0.0682793)
(9.26052 -8.49072 -0.830187)
(8.47432 -6.62163 -0.616165)
(8.38749 -4.148 -0.421255)
(8.37258 -2.61935 -0.275283)
(8.43074 -1.4323 -0.195691)
(8.46748 -0.600739 -0.12068)
(8.50179 -0.0730013 -0.0720578)
(8.51638 0.180394 -0.0217777)
(7.02262 -16.8809 -0.109309)
(5.94438 -16.3816 -0.0209761)
(5.64234 -15.4069 0.0685538)
(5.52871 -14.707 0.0872944)
(5.50376 -14.1052 0.0801009)
(5.48779 -13.6683 0.0638053)
(5.48719 -13.3814 0.0389479)
(5.48554 -13.2316 0.0142541)
(6.99316 -14.8963 0.422535)
(5.94577 -13.9541 0.421659)
(5.69314 -12.9163 0.393962)
(5.61448 -12.2267 0.321659)
(5.60813 -11.6144 0.252892)
(5.60297 -11.2085 0.177569)
(5.60763 -10.9279 0.105831)
(5.60765 -10.7992 0.0348908)
(7.94408 -15.5735 0.828065)
(6.84549 -14.834 0.68079)
(6.63452 -14.0742 0.577024)
(6.53712 -13.5408 0.45319)
(6.53468 -13.0177 0.352323)
(6.52682 -12.6949 0.243217)
(6.53327 -12.4572 0.14585)
(6.53377 -12.3498 0.047526)
)
;
        pressure        uniform 0;
        secondOrder     false;
        setEffectiveTraction false;
        relaxationFactor 1;
        value           nonuniform List<vector> 
192
(
(8.54378e-08 5.66093e-08 2.72477e-08)
(9.8875e-08 3.51755e-08 5.29451e-08)
(1.02452e-07 1.58755e-08 6.75087e-08)
(1.03719e-07 2.2127e-09 7.9024e-08)
(1.06695e-07 -9.2078e-09 9.04618e-08)
(1.13881e-07 -2.0918e-08 1.03509e-07)
(1.27733e-07 -4.00717e-08 1.19348e-07)
(1.492e-07 -9.53594e-08 1.35503e-07)
(6.73238e-08 3.01521e-08 2.30769e-09)
(7.70336e-08 1.54759e-08 1.71026e-08)
(7.90946e-08 2.21881e-09 3.07361e-08)
(7.96499e-08 -8.695e-09 4.19503e-08)
(8.21524e-08 -1.87906e-08 5.23746e-08)
(8.91838e-08 -2.88233e-08 6.32002e-08)
(1.03796e-07 -4.33931e-08 7.3929e-08)
(1.28435e-07 -8.87136e-08 8.01906e-08)
(5.56336e-08 1.99112e-08 7.35535e-10)
(6.31129e-08 5.10691e-09 1.06748e-08)
(6.45822e-08 -6.93794e-09 2.25581e-08)
(6.50003e-08 -1.63389e-08 3.34275e-08)
(6.74478e-08 -2.45421e-08 4.32171e-08)
(7.46279e-08 -3.17747e-08 5.21182e-08)
(8.97872e-08 -4.22098e-08 5.8978e-08)
(1.15226e-07 -8.23448e-08 6.0884e-08)
(4.94699e-08 1.61794e-08 1.72355e-09)
(5.56917e-08 8.83187e-10 9.52488e-09)
(5.70405e-08 -1.15033e-08 1.91245e-08)
(5.76257e-08 -2.046e-08 2.85106e-08)
(6.02548e-08 -2.73304e-08 3.6897e-08)
(6.76371e-08 -3.25705e-08 4.38024e-08)
(8.29909e-08 -4.08779e-08 4.82494e-08)
(1.08379e-07 -7.87623e-08 4.89824e-08)
(4.6375e-08 1.47236e-08 2.03836e-09)
(5.2117e-08 -6.25423e-10 8.21214e-09)
(5.35473e-08 -1.32737e-08 1.54911e-08)
(5.43686e-08 -2.21515e-08 2.27709e-08)
(5.72189e-08 -2.83881e-08 2.92589e-08)
(6.47484e-08 -3.27084e-08 3.43314e-08)
(8.00956e-08 -4.02329e-08 3.73468e-08)
(1.05204e-07 -7.70414e-08 3.78827e-08)
(4.47669e-08 1.41086e-08 1.73639e-09)
(5.03895e-08 -1.09937e-09 6.227e-09)
(5.19467e-08 -1.37575e-08 1.12997e-08)
(5.2961e-08 -2.26063e-08 1.63697e-08)
(5.59772e-08 -2.86362e-08 2.0877e-08)
(6.35853e-08 -3.26917e-08 2.43348e-08)
(7.88616e-08 -4.00345e-08 2.63628e-08)
(1.03704e-07 -7.62772e-08 2.68314e-08)
(4.39183e-08 1.38352e-08 1.12573e-09)
(4.95224e-08 -1.21493e-09 3.84459e-09)
(5.11756e-08 -1.37878e-08 6.83137e-09)
(5.23122e-08 -2.26043e-08 9.79609e-09)
(5.54261e-08 -2.86021e-08 1.24254e-08)
(6.30679e-08 -3.265e-08 1.44357e-08)
(7.8278e-08 -4.00069e-08 1.56273e-08)
(1.02936e-07 -7.59593e-08 1.59565e-08)
(4.35423e-08 1.37262e-08 3.86727e-10)
(4.91437e-08 -1.22943e-09 1.29575e-09)
(5.08436e-08 -1.37368e-08 2.28123e-09)
(5.20367e-08 -2.25313e-08 3.25471e-09)
(5.51939e-08 -2.85376e-08 4.11684e-09)
(6.28471e-08 -3.26212e-08 4.77651e-09)
(7.80207e-08 -4.0015e-08 5.17142e-09)
(1.02588e-07 -7.58463e-08 5.28972e-09)
(2.7561e-08 6.03548e-08 8.94785e-08)
(4.5211e-08 4.07969e-08 1.12689e-07)
(4.77359e-08 2.19829e-08 1.28699e-07)
(4.71879e-08 7.86101e-09 1.42092e-07)
(4.79385e-08 -4.40329e-09 1.55732e-07)
(5.2234e-08 -1.73686e-08 1.71526e-07)
(6.24404e-08 -3.83246e-08 1.90836e-07)
(7.72613e-08 -9.53871e-08 2.13657e-07)
(2.75826e-09 4.26179e-08 8.04838e-08)
(8.04675e-09 3.06983e-08 1.03061e-07)
(9.4552e-09 1.79165e-08 1.17956e-07)
(9.41085e-09 5.51298e-09 1.30392e-07)
(9.81608e-09 -7.48179e-09 1.43242e-07)
(1.17009e-08 -2.17181e-08 1.58476e-07)
(1.57665e-08 -4.14417e-08 1.78201e-07)
(2.0456e-08 -9.16881e-08 2.04445e-07)
(-2.61962e-09 4.22562e-08 7.95672e-08)
(-6.67121e-09 3.02017e-08 1.02221e-07)
(-6.55561e-09 1.73083e-08 1.17163e-07)
(-4.8862e-09 4.80673e-09 1.2963e-07)
(-3.57915e-09 -8.27917e-09 1.42499e-07)
(-3.66813e-09 -2.26059e-08 1.57739e-07)
(-5.89447e-09 -4.24032e-08 1.7746e-07)
(-8.84024e-09 -9.24808e-08 2.03717e-07)
(-2.65706e-08 5.89046e-08 8.69305e-08)
(-4.27036e-08 3.9123e-08 1.104e-07)
(-4.37209e-08 2.00761e-08 1.26532e-07)
(-4.15555e-08 5.69343e-09 1.40013e-07)
(-4.05825e-08 -6.82244e-09 1.5371e-07)
(-4.30754e-08 -2.00301e-08 1.6953e-07)
(-5.14454e-08 -4.11869e-08 1.88842e-07)
(-6.44657e-08 -9.78378e-08 2.1174e-07)
(-8.03656e-08 5.43334e-08 2.70814e-08)
(-9.22865e-08 3.26849e-08 5.29977e-08)
(-9.43368e-08 1.31245e-08 6.78348e-08)
(-9.39463e-08 -8.34865e-10 7.95545e-08)
(-9.51516e-08 -1.25378e-08 9.11293e-08)
(-1.00491e-07 -2.45069e-08 1.04263e-07)
(-1.12476e-07 -4.38478e-08 1.20147e-07)
(-1.32079e-07 -9.86923e-08 1.36296e-07)
(-6.23243e-08 2.82174e-08 2.55401e-09)
(-7.07314e-08 1.31698e-08 1.76382e-08)
(-7.13993e-08 -4.51474e-10 3.15109e-08)
(-7.0384e-08 -1.17048e-08 4.29143e-08)
(-7.11599e-08 -2.21035e-08 5.34727e-08)
(-7.63499e-08 -3.24097e-08 6.43832e-08)
(-8.90773e-08 -4.71824e-08 7.51525e-08)
(-1.11846e-07 -9.20745e-08 8.14171e-08)
(-5.08534e-08 1.8165e-08 9.43455e-10)
(-5.71355e-08 2.97883e-09 1.11426e-08)
(-5.73071e-08 -9.47427e-09 2.3217e-08)
(-5.62293e-08 -1.9256e-08 3.42388e-08)
(-5.69956e-08 -2.77949e-08 4.41435e-08)
(-6.23462e-08 -3.53271e-08 5.31222e-08)
(-7.56017e-08 -4.59844e-08 6.00231e-08)
(-9.91423e-08 -8.56943e-08 6.19383e-08)
(-4.48792e-08 1.45545e-08 1.87219e-09)
(-5.00038e-08 -1.11058e-09 9.87943e-09)
(-5.01345e-08 -1.39159e-08 1.96309e-08)
(-4.92876e-08 -2.32768e-08 2.91377e-08)
(-5.02781e-08 -3.05091e-08 3.76186e-08)
(-5.58494e-08 -3.60726e-08 4.45917e-08)
(-6.92924e-08 -4.46192e-08 4.90786e-08)
(-9.27616e-08 -8.2084e-08 4.98229e-08)
(-4.19161e-08 1.31845e-08 2.14041e-09)
(-4.66392e-08 -2.51964e-09 8.46448e-09)
(-4.69158e-08 -1.55874e-08 1.58586e-08)
(-4.6357e-08 -2.48811e-08 2.32313e-08)
(-4.76063e-08 -3.1497e-08 2.97937e-08)
(-5.3346e-08 -3.61584e-08 3.49218e-08)
(-6.67864e-08 -4.39362e-08 3.7972e-08)
(-8.9968e-08 -8.03322e-08 3.85195e-08)
(-4.03909e-08 1.26274e-08 1.80256e-09)
(-4.5048e-08 -2.92313e-09 6.3937e-09)
(-4.54984e-08 -1.59984e-08 1.15463e-08)
(-4.51719e-08 -2.52687e-08 1.66824e-08)
(-4.66174e-08 -3.16886e-08 2.12436e-08)
(-5.24554e-08 -3.60974e-08 2.47429e-08)
(-6.58336e-08 -4.37038e-08 2.6798e-08)
(-8.87497e-08 -7.95403e-08 2.72762e-08)
(-3.95903e-08 1.2389e-08 1.16294e-09)
(-4.42613e-08 -2.99392e-09 3.93918e-09)
(-4.48377e-08 -1.59812e-08 6.97265e-09)
(-4.46598e-08 -2.52216e-08 9.97683e-09)
(-4.62242e-08 -3.16155e-08 1.26389e-08)
(-5.21108e-08 -3.60239e-08 1.46748e-08)
(-6.54309e-08 -4.36513e-08 1.58836e-08)
(-8.8166e-08 -7.92019e-08 1.62191e-08)
(-3.92363e-08 1.22964e-08 3.98734e-10)
(-4.39197e-08 -2.98677e-09 1.32639e-09)
(-4.45572e-08 -1.59067e-08 2.32719e-09)
(-4.44493e-08 -2.51261e-08 3.31378e-09)
(-4.60678e-08 -3.1531e-08 4.18692e-09)
(-5.19736e-08 -3.59787e-08 4.85525e-09)
(-6.5262e-08 -4.36463e-08 5.25602e-09)
(-8.79078e-08 -7.90781e-08 5.37653e-09)
(7.75737e-08 -1.73885e-07 1.39966e-07)
(6.34223e-08 -1.60601e-07 8.28829e-08)
(5.3805e-08 -1.50831e-07 6.1878e-08)
(4.97296e-08 -1.44663e-07 4.90433e-08)
(4.84807e-08 -1.41085e-07 3.76712e-08)
(4.81967e-08 -1.39091e-07 2.66522e-08)
(4.81299e-08 -1.38037e-07 1.58681e-08)
(4.81005e-08 -1.37581e-07 5.26612e-09)
(2.07645e-08 -1.65277e-07 1.35672e-07)
(1.67327e-08 -1.486e-07 8.54533e-08)
(1.32865e-08 -1.38449e-07 6.57832e-08)
(1.18362e-08 -1.32827e-07 5.17018e-08)
(1.15159e-08 -1.29829e-07 3.90245e-08)
(1.15389e-08 -1.28201e-07 2.72464e-08)
(1.15901e-08 -1.27328e-07 1.61051e-08)
(1.16111e-08 -1.2694e-07 5.32927e-09)
(-8.51815e-09 -1.6517e-07 1.35841e-07)
(-4.9263e-09 -1.48484e-07 8.57939e-08)
(-1.99359e-09 -1.3834e-07 6.60622e-08)
(-1.00138e-09 -1.32718e-07 5.19134e-08)
(-1.0495e-09 -1.29715e-07 3.91799e-08)
(-1.34699e-09 -1.28082e-07 2.73533e-08)
(-1.57976e-09 -1.27204e-07 1.61678e-08)
(-1.69097e-09 -1.26815e-07 5.34995e-09)
(-6.41388e-08 -1.73838e-07 1.40532e-07)
(-5.04819e-08 -1.60485e-07 8.38633e-08)
(-4.13716e-08 -1.50721e-07 6.26861e-08)
(-3.7754e-08 -1.44548e-07 4.96681e-08)
(-3.68798e-08 -1.40954e-07 3.81367e-08)
(-3.68761e-08 -1.38943e-07 2.69746e-08)
(-3.69943e-08 -1.37876e-07 1.60577e-08)
(-3.70567e-08 -1.37413e-07 5.32867e-09)
)
;
        gradient        nonuniform List<vector> 
192
(
(4.66814e-06 1.42589e-06 -1.83666e-07)
(4.3733e-06 3.91309e-07 -3.02974e-07)
(4.46405e-06 3.9583e-08 -3.26795e-07)
(4.60252e-06 8.00997e-09 -3.29296e-07)
(4.77143e-06 1.05428e-07 -3.30005e-07)
(4.99375e-06 2.92693e-07 -3.29644e-07)
(5.2838e-06 4.97058e-07 -3.25669e-07)
(5.83119e-06 3.43085e-07 -3.17349e-07)
(3.87755e-06 9.98435e-07 -2.76769e-07)
(3.67729e-06 2.72578e-07 -4.47803e-07)
(3.72889e-06 1.31827e-08 -4.81821e-07)
(3.83387e-06 -3.10191e-09 -4.88886e-07)
(3.98594e-06 9.60833e-08 -4.94973e-07)
(4.21229e-06 2.91754e-07 -4.98741e-07)
(4.55052e-06 5.16375e-07 -4.92093e-07)
(5.28702e-06 3.51707e-07 -4.72291e-07)
(3.39081e-06 7.01369e-07 -1.62538e-07)
(3.30342e-06 1.86276e-07 -2.70212e-07)
(3.36158e-06 -1.49493e-09 -2.88209e-07)
(3.4604e-06 -5.14204e-09 -2.86474e-07)
(3.61143e-06 9.55722e-08 -2.84283e-07)
(3.84837e-06 2.95572e-07 -2.81521e-07)
(4.21638e-06 5.23509e-07 -2.77376e-07)
(5.00231e-06 3.56675e-07 -2.76912e-07)
(3.09933e-06 5.65724e-07 -6.94932e-08)
(3.0507e-06 1.46921e-07 -1.16566e-07)
(3.11728e-06 -3.07534e-09 -1.20632e-07)
(3.21773e-06 8.24305e-10 -1.13765e-07)
(3.37116e-06 1.01037e-07 -1.07083e-07)
(3.61454e-06 2.98662e-07 -1.02637e-07)
(3.9955e-06 5.20985e-07 -1.03181e-07)
(4.7901e-06 3.58253e-07 -1.10717e-07)
(2.92806e-06 5.15334e-07 -2.62632e-08)
(2.88995e-06 1.35147e-07 -4.16788e-08)
(2.96125e-06 1.30945e-09 -3.93031e-08)
(3.06485e-06 8.4071e-09 -3.21655e-08)
(3.22138e-06 1.06701e-07 -2.58202e-08)
(3.46849e-06 2.99475e-07 -2.2722e-08)
(3.85373e-06 5.1543e-07 -2.54843e-08)
(4.64333e-06 3.57579e-07 -3.3398e-08)
(2.82812e-06 4.978e-07 -1.02265e-08)
(2.79319e-06 1.33888e-07 -1.40929e-08)
(2.86694e-06 6.44062e-09 -1.05653e-08)
(2.97316e-06 1.43081e-08 -5.33448e-09)
(3.13219e-06 1.10481e-07 -1.07902e-09)
(3.38125e-06 2.98998e-07 4.6299e-10)
(3.76706e-06 5.1031e-07 -2.28961e-09)
(4.54964e-06 3.55805e-07 -8.19753e-09)
(2.77242e-06 4.91026e-07 -4.31073e-09)
(2.73873e-06 1.34814e-07 -5.16943e-09)
(2.81375e-06 1.00697e-08 -2.77128e-09)
(2.92165e-06 1.7894e-08 1.88771e-10)
(3.08225e-06 1.12499e-07 2.43163e-09)
(3.33217e-06 2.98265e-07 3.03839e-09)
(3.71745e-06 5.0677e-07 1.24013e-09)
(4.49472e-06 3.54025e-07 -2.2607e-09)
(2.74738e-06 4.88326e-07 -1.26153e-09)
(2.71419e-06 1.35431e-07 -1.44017e-09)
(2.78976e-06 1.17999e-08 -6.45415e-10)
(2.89845e-06 1.95113e-08 2.89641e-10)
(3.05978e-06 1.13331e-07 9.71789e-10)
(3.31002e-06 2.97807e-07 1.12185e-09)
(3.69481e-06 5.05012e-07 5.13557e-10)
(4.46937e-06 3.52971e-07 -6.36708e-10)
(3.79991e-08 1.72553e-06 4.7948e-06)
(8.01796e-08 8.41017e-07 4.47655e-06)
(8.67339e-08 5.2817e-07 4.56839e-06)
(8.00008e-08 4.59875e-07 4.71611e-06)
(7.09254e-08 4.89789e-07 4.89158e-06)
(6.20116e-08 5.76644e-07 5.11176e-06)
(6.03851e-08 6.36824e-07 5.39338e-06)
(7.60667e-08 3.40869e-07 5.93499e-06)
(-5.54362e-08 1.60025e-06 4.29076e-06)
(-7.19234e-08 8.18135e-07 3.99184e-06)
(-7.5773e-08 5.14809e-07 4.01607e-06)
(-8.26551e-08 4.42451e-07 4.11919e-06)
(-9.13697e-08 4.71618e-07 4.26912e-06)
(-9.96549e-08 5.68263e-07 4.47942e-06)
(-9.90771e-08 6.57007e-07 4.79278e-06)
(-7.93274e-08 3.54386e-07 5.52889e-06)
(5.05806e-08 1.59807e-06 4.22376e-06)
(7.12542e-08 8.20637e-07 3.92699e-06)
(8.08505e-08 5.17421e-07 3.9489e-06)
(9.19816e-08 4.44269e-07 4.05012e-06)
(1.03508e-07 4.7278e-07 4.19869e-06)
(1.13587e-07 5.68921e-07 4.40772e-06)
(1.13928e-07 6.57121e-07 4.71994e-06)
(9.39815e-08 3.54423e-07 5.45743e-06)
(-3.96517e-08 1.72199e-06 4.60429e-06)
(-7.71402e-08 8.48363e-07 4.29419e-06)
(-7.84526e-08 5.35519e-07 4.37899e-06)
(-6.77787e-08 4.65101e-07 4.52122e-06)
(-5.60326e-08 4.93217e-07 4.69287e-06)
(-4.54203e-08 5.78672e-07 4.90969e-06)
(-4.29211e-08 6.37376e-07 5.18868e-06)
(-5.85894e-08 3.41037e-07 5.73692e-06)
(-4.34325e-06 1.3563e-06 -1.83635e-07)
(-4.04377e-06 3.33318e-07 -2.97981e-07)
(-4.12773e-06 -2.06137e-08 -3.16783e-07)
(-4.25904e-06 -5.71622e-08 -3.15493e-07)
(-4.42156e-06 3.59851e-08 -3.13623e-07)
(-4.63863e-06 2.2053e-07 -3.11662e-07)
(-4.9254e-06 4.24507e-07 -3.06914e-07)
(-5.46763e-06 2.72673e-07 -2.9855e-07)
(-3.55522e-06 9.33044e-07 -2.74195e-07)
(-3.35708e-06 2.19551e-07 -4.40215e-07)
(-3.40303e-06 -4.28162e-08 -4.6988e-07)
(-3.50056e-06 -6.52168e-08 -4.73563e-07)
(-3.64475e-06 2.86342e-08 -4.7726e-07)
(-3.86329e-06 2.2068e-07 -4.79546e-07)
(-4.1954e-06 4.44199e-07 -4.72191e-07)
(-4.9262e-06 2.81177e-07 -4.52217e-07)
(-3.07904e-06 6.41887e-07 -1.59239e-07)
(-2.99254e-06 1.37623e-07 -2.6238e-07)
(-3.04485e-06 -5.39676e-08 -2.76762e-07)
(-3.13591e-06 -6.45457e-08 -2.72123e-07)
(-3.27811e-06 2.99995e-08 -2.67764e-07)
(-3.50526e-06 2.25598e-07 -2.63566e-07)
(-3.8642e-06 4.51835e-07 -2.58635e-07)
(-4.64162e-06 2.86415e-07 -2.57794e-07)
(-2.79656e-06 5.11424e-07 -6.68738e-08)
(-2.74839e-06 1.02021e-07 -1.10234e-07)
(-2.8089e-06 -5.25642e-08 -1.11324e-07)
(-2.90135e-06 -5.6221e-08 -1.02014e-07)
(-3.04527e-06 3.71902e-08 -9.34341e-08)
(-3.27754e-06 2.29809e-07 -8.76445e-08)
(-3.64718e-06 4.49972e-07 -8.73414e-08)
(-4.43065e-06 2.88513e-07 -9.434e-08)
(-2.63154e-06 4.6478e-07 -2.45027e-08)
(-2.59376e-06 9.31687e-08 -3.72303e-08)
(-2.65884e-06 -4.57503e-08 -3.25625e-08)
(-2.75419e-06 -4.66573e-08 -2.34708e-08)
(-2.90071e-06 4.43682e-08 -1.55557e-08)
(-3.13584e-06 2.31691e-07 -1.12875e-08)
(-3.50836e-06 4.45141e-07 -1.32386e-08)
(-4.28507e-06 2.88439e-07 -2.05732e-08)
(-2.5355e-06 4.49691e-07 -9.14647e-09)
(-2.50085e-06 9.39575e-08 -1.12715e-08)
(-2.56827e-06 -3.88069e-08 -6.15849e-09)
(-2.66599e-06 -3.9215e-08 4.87259e-10)
(-2.81465e-06 4.93735e-08 5.91875e-09)
(-3.05118e-06 2.32127e-07 8.37108e-09)
(-3.42345e-06 4.40687e-07 6.28489e-09)
(-4.19201e-06 2.87225e-07 8.77606e-10)
(-2.48206e-06 4.44362e-07 -3.73132e-09)
(-2.44862e-06 9.61543e-08 -3.62738e-09)
(-2.51724e-06 -3.39929e-08 -3.11586e-10)
(-2.61648e-06 -3.45805e-08 3.49888e-09)
(-2.76648e-06 5.2252e-08 6.46884e-09)