/*--------------------------------*- C++ -*----------------------------------*\
| =========                 |                                                 |
| \\      /  F ield         | OpenFOAM: The Open Source CFD Toolbox           |
|  \\    /   O peration     | Version:  v1912                                 |
|   \\  /    A nd           | Website:  www.openfoam.com                      |
|    \\/     M anipulation  |                                                 |
\*---------------------------------------------------------------------------*/
FoamFile
{
    version     2.0;
    format      ascii;
    class       volVectorField;
    location    "0.72/solid";
    object      DD_0_0;
}
// * * * * * * * * * * * * * * * * * * * * * * * * * * * * * * * * * * * * * //

dimensions      [0 1 0 0 0 0 0];


internalField   nonuniform List<vector> 
256
(
(2.37953e-10 2.45876e-10 2.86839e-10)
(5.53134e-11 1.5355e-10 2.70746e-10)
(-6.89315e-11 1.47937e-10 2.63968e-10)
(-2.33226e-10 2.25853e-10 2.66296e-10)
(4.37644e-10 2.05792e-10 6.63829e-10)
(1.12911e-10 1.25316e-10 6.38639e-10)
(-1.42532e-10 1.22819e-10 6.25005e-10)
(-4.41635e-10 2.00476e-10 6.22272e-10)
(4.79164e-10 2.09466e-11 9.29507e-10)
(1.21878e-10 -1.51655e-11 8.97663e-10)
(-1.6983e-10 -1.23178e-11 8.80122e-10)
(-5.01012e-10 3.28977e-11 8.76006e-10)
(4.68773e-10 -1.87897e-10 1.15296e-09)
(1.08195e-10 -2.0518e-10 1.11169e-09)
(-1.80963e-10 -1.96993e-10 1.09136e-09)
(-5.15118e-10 -1.60497e-10 1.09094e-09)
(4.65925e-10 -4.14194e-10 1.37319e-09)
(9.50018e-11 -4.37267e-10 1.3204e-09)
(-1.99648e-10 -4.2404e-10 1.29767e-09)
(-5.43631e-10 -3.7242e-10 1.30391e-09)
(5.1121e-10 -6.89345e-10 1.61377e-09)
(9.89005e-11 -7.22803e-10 1.55068e-09)
(-2.42934e-10 -7.04568e-10 1.52565e-09)
(-6.27651e-10 -6.33251e-10 1.53758e-09)
(6.3109e-10 -1.09443e-09 1.8766e-09)
(1.27093e-10 -1.10906e-09 1.81491e-09)
(-3.19325e-10 -1.08512e-09 1.78748e-09)
(-7.93895e-10 -1.02188e-09 1.79342e-09)
(7.69391e-10 -1.66333e-09 2.08626e-09)
(1.54804e-10 -1.6179e-09 2.04482e-09)
(-4.06097e-10 -1.58502e-09 2.01524e-09)
(-9.86418e-10 -1.5638e-09 1.99714e-09)
(1.50333e-10 8.69373e-11 1.18713e-10)
(3.31953e-11 1.13991e-11 1.33707e-10)
(-3.87055e-11 9.41686e-12 1.30793e-10)
(-1.40099e-10 7.51114e-11 1.10083e-10)
(2.84901e-10 -4.06797e-12 3.7304e-10)
(7.14507e-11 -6.98425e-11 4.03029e-10)
(-8.19551e-11 -6.94306e-11 3.95032e-10)
(-2.7397e-10 -3.62371e-12 3.49724e-10)
(3.10075e-10 -1.71203e-10 6.07779e-10)
(7.65833e-11 -2.00423e-10 6.41331e-10)
(-9.75728e-11 -1.95894e-10 6.29825e-10)
(-3.09785e-10 -1.56443e-10 5.74108e-10)
(2.95768e-10 -3.60948e-10 8.19044e-10)
(6.39426e-11 -3.75625e-10 8.5037e-10)
(-1.03663e-10 -3.66478e-10 8.36321e-10)
(-3.14271e-10 -3.32324e-10 7.77649e-10)
(2.8998e-10 -5.69957e-10 1.02232e-09)
(5.20572e-11 -5.92974e-10 1.04907e-09)
(-1.18606e-10 -5.79165e-10 1.03284e-09)
(-3.3499e-10 -5.27751e-10 9.74279e-10)
(3.34257e-10 -8.11996e-10 1.22677e-09)
(5.74888e-11 -8.47977e-10 1.24864e-09)
(-1.58996e-10 -8.29465e-10 1.23035e-09)
(-4.13601e-10 -7.56136e-10 1.17246e-09)
(4.63736e-10 -1.1416e-09 1.41437e-09)
(8.94682e-11 -1.1562e-09 1.43361e-09)
(-2.35194e-10 -1.1326e-09 1.41349e-09)
(-5.85233e-10 -1.07069e-09 1.35446e-09)
(6.2644e-10 -1.60336e-09 1.51738e-09)
(1.2234e-10 -1.53735e-09 1.53633e-09)
(-3.23705e-10 -1.50607e-09 1.51541e-09)
(-7.98059e-10 -1.50832e-09 1.45472e-09)
(7.84243e-11 2.56897e-11 5.8718e-11)
(1.25523e-11 -2.99377e-11 8.15542e-11)
(-1.44367e-11 -3.14694e-11 7.95766e-11)
(-6.5301e-11 1.38438e-11 5.30996e-11)
(1.54495e-10 -1.09542e-10 2.34627e-10)
(3.06847e-11 -1.59033e-10 2.78435e-10)
(-3.06842e-11 -1.58305e-10 2.72902e-10)
(-1.3437e-10 -1.10005e-10 2.18955e-10)
(1.65804e-10 -2.84971e-10 4.30699e-10)
(3.1346e-11 -3.07857e-10 4.80486e-10)
(-3.55527e-11 -3.0342e-10 4.72147e-10)
(-1.50351e-10 -2.72052e-10 4.06824e-10)
(1.50631e-10 -4.64365e-10 6.21551e-10)
(1.97959e-11 -4.784e-10 6.71045e-10)
(-3.72522e-11 -4.69716e-10 6.6047e-10)
(-1.48701e-10 -4.38314e-10 5.90918e-10)
(1.45586e-10 -6.47683e-10 8.01437e-10)
(9.55244e-12 -6.7258e-10 8.48556e-10)
(-4.91314e-11 -6.59512e-10 8.36034e-10)
(-1.65542e-10 -6.08586e-10 7.64839e-10)
(1.91976e-10 -8.43813e-10 9.63516e-10)
(1.67621e-11 -8.82864e-10 1.00766e-09)
(-8.72452e-11 -8.65376e-10 9.93378e-10)
(-2.42135e-10 -7.91647e-10 9.21496e-10)
(3.27796e-10 -1.10376e-09 1.08246e-09)
(5.17547e-11 -1.12066e-09 1.12335e-09)
(-1.62918e-10 -1.09847e-09 1.10774e-09)
(-4.16303e-10 -1.03736e-09 1.03614e-09)
(5.00058e-10 -1.49035e-09 1.1124e-09)
(8.80901e-11 -1.42243e-09 1.15042e-09)
(-2.51619e-10 -1.39294e-09 1.13461e-09)
(-6.35058e-10 -1.40061e-09 1.06483e-09)
(4.46985e-11 2.14212e-12 4.60069e-11)
(3.01472e-12 -3.98783e-11 6.20355e-11)
(-3.19879e-12 -4.16417e-11 6.05606e-11)
(-2.98125e-11 -1.09771e-11 4.19221e-11)
(9.21966e-11 -1.51357e-10 1.80198e-10)
(1.11036e-11 -1.90041e-10 2.1053e-10)
(-5.28711e-12 -1.89977e-10 2.06536e-10)
(-6.62867e-11 -1.54605e-10 1.69078e-10)
(9.81476e-11 -3.34551e-10 3.36938e-10)
(1.02615e-11 -3.53829e-10 3.70924e-10)
(-4.11401e-12 -3.50307e-10 3.64839e-10)
(-7.25113e-11 -3.25112e-10 3.19732e-10)
(8.60428e-11 -5.07717e-10 4.95673e-10)
(9.45666e-13 -5.22355e-10 5.2882e-10)
(-3.59864e-12 -5.14768e-10 5.20936e-10)
(-6.95837e-11 -4.85551e-10 4.73039e-10)
(8.559e-11 -6.69534e-10 6.42768e-10)
(-6.53592e-12 -6.96589e-10 6.73661e-10)
(-1.4181e-11 -6.84775e-10 6.6416e-10)
(-8.69848e-11 -6.3462e-10 6.15173e-10)
(1.3604e-10 -8.31232e-10 7.63932e-10)
(2.8905e-12 -8.72946e-10 7.92412e-10)
(-5.09322e-11 -8.56858e-10 7.81495e-10)
(-1.63985e-10 -7.83517e-10 7.31916e-10)
(2.73516e-10 -1.05045e-09 8.3731e-10)
(3.90876e-11 -1.07157e-09 8.6365e-10)
(-1.24652e-10 -1.05089e-09 8.51758e-10)
(-3.36486e-10 -9.8868e-10 8.02004e-10)
(4.44445e-10 -1.40203e-09 8.39528e-10)
(7.61386e-11 -1.34315e-09 8.65293e-10)
(-2.11131e-10 -1.31515e-09 8.53362e-10)
(-5.50811e-10 -1.31679e-09 8.03499e-10)
(3.32031e-11 -6.48548e-12 3.96135e-11)
(6.10944e-13 -4.18581e-11 4.78535e-11)
(9.81565e-14 -4.38711e-11 4.67894e-11)
(-1.72152e-11 -2.06479e-11 3.67109e-11)
(7.19647e-11 -1.63381e-10 1.43012e-10)
(6.30156e-12 -1.9717e-10 1.58065e-10)
(2.92722e-12 -1.9785e-10 1.55234e-10)
(-4.24202e-11 -1.692e-10 1.35228e-10)
(7.83844e-11 -3.47048e-10 2.61911e-10)
(6.29453e-12 -3.65429e-10 2.77997e-10)
(6.3818e-12 -3.62922e-10 2.73676e-10)
(-4.60832e-11 -3.40969e-10 2.49814e-10)
(7.0719e-11 -5.14445e-10 3.83179e-10)
(-4.2954e-13 -5.305e-10 3.97828e-10)
(7.64359e-12 -5.2407e-10 3.92165e-10)
(-4.43219e-11 -4.96017e-10 3.67047e-10)
(7.53665e-11 -6.62348e-10 4.93685e-10)
(-5.11456e-12 -6.91437e-10 5.06218e-10)
(-2.49366e-12 -6.80864e-10 4.99318e-10)
(-6.35984e-11 -6.31351e-10 4.73749e-10)
(1.29252e-10 -8.05181e-10 5.79418e-10)
(6.22566e-12 -8.48916e-10 5.90124e-10)
(-3.81864e-11 -8.34116e-10 5.82147e-10)
(-1.41022e-10 -7.61439e-10 5.5609e-10)
(2.66029e-10 -1.00628e-09 6.25207e-10)
(4.26872e-11 -1.031e-09 6.3489e-10)
(-1.095e-10 -1.01158e-09 6.26196e-10)
(-3.10067e-10 -9.48369e-10 5.99406e-10)
(4.33114e-10 -1.34309e-09 6.20964e-10)
(7.95158e-11 -1.29308e-09 6.31312e-10)
(-1.93308e-10 -1.26625e-09 6.22616e-10)
(-5.18014e-10 -1.26136e-09 5.94658e-10)
(3.01963e-11 -9.25693e-12 3.08544e-11)
(7.28831e-13 -4.19012e-11 3.4458e-11)
(4.7005e-13 -4.40937e-11 3.37447e-11)
(-1.35373e-11 -2.41266e-11 2.89268e-11)
(6.80515e-11 -1.63661e-10 1.05183e-10)
(6.99307e-12 -1.95936e-10 1.11268e-10)
(4.26719e-12 -1.97185e-10 1.09382e-10)
(-3.62649e-11 -1.71355e-10 1.00044e-10)
(7.68999e-11 -3.43558e-10 1.88234e-10)
(8.53628e-12 -3.62439e-10 1.94034e-10)
(8.21582e-12 -3.60746e-10 1.91153e-10)
(-4.03682e-11 -3.40063e-10 1.80231e-10)
(7.31547e-11 -5.055e-10 2.72224e-10)
(3.99622e-12 -5.23104e-10 2.76595e-10)
(9.61945e-12 -5.17615e-10 2.72798e-10)
(-4.0244e-11 -4.90015e-10 2.61474e-10)
(8.1696e-11 -6.45585e-10 3.47607e-10)
(1.4507e-12 -6.76286e-10 3.50353e-10)
(-2.78943e-13 -6.66708e-10 3.45694e-10)
(-6.10506e-11 -6.1767e-10 3.34207e-10)
(1.37785e-10 -7.80146e-10 4.04106e-10)
(1.41408e-11 -8.252e-10 4.05664e-10)
(-3.50571e-11 -8.11398e-10 4.00252e-10)
(-1.38398e-10 -7.39465e-10 3.88322e-10)
(2.73414e-10 -9.74686e-10 4.32381e-10)
(5.06343e-11 -1.0016e-09 4.33553e-10)
(-1.0433e-10 -9.83132e-10 4.27643e-10)
(-3.04182e-10 -9.19666e-10 4.1486e-10)
(4.37209e-10 -1.30472e-09 4.28174e-10)
(8.71745e-11 -1.2604e-09 4.30135e-10)
(-1.85976e-10 -1.23442e-09 4.24226e-10)
(-5.06914e-10 -1.22557e-09 4.10297e-10)
(2.96031e-11 -9.84007e-12 1.95274e-11)
(1.21917e-12 -4.14454e-11 2.09388e-11)
(2.37197e-13 -4.37514e-11 2.05299e-11)
(-1.25623e-11 -2.51456e-11 1.84287e-11)
(6.82787e-11 -1.60733e-10 6.44303e-11)
(8.4385e-12 -1.92793e-10 6.65344e-11)
(3.96662e-12 -1.94408e-10 6.54556e-11)
(-3.51964e-11 -1.69612e-10 6.15062e-11)
(7.92647e-11 -3.36393e-10 1.13434e-10)
(1.12384e-11 -3.56045e-10 1.15024e-10)
(7.88969e-12 -3.5489e-10 1.13374e-10)
(-4.02377e-11 -3.34582e-10 1.08875e-10)
(7.81677e-11 -4.9416e-10 1.62438e-10)
(8.15764e-12 -5.12954e-10 1.63052e-10)
(9.29009e-12 -5.08097e-10 1.60871e-10)
(-4.13315e-11 -4.80635e-10 1.5629e-10)
(8.91207e-11 -6.30256e-10 2.05928e-10)
(6.96314e-12 -6.62022e-10 2.05562e-10)
(-4.1593e-13 -6.53115e-10 2.02875e-10)
(-6.30168e-11 -6.04406e-10 1.98226e-10)
(1.46439e-10 -7.61786e-10 2.3796e-10)
(2.04836e-11 -8.07582e-10 2.3695e-10)
(-3.45122e-11 -7.94447e-10 2.33819e-10)
(-1.40077e-10 -7.23147e-10 2.28847e-10)
(2.81209e-10 -9.54374e-10 2.53549e-10)
(5.7003e-11 -9.82391e-10 2.52426e-10)
(-1.02407e-10 -9.64543e-10 2.49e-10)
(-3.03582e-10 -9.01262e-10 2.43403e-10)
(4.42851e-10 -1.28113e-09 2.50861e-10)
(9.33672e-11 -1.23979e-09 2.50254e-10)
(-1.82617e-10 -1.21437e-09 2.46828e-10)
(-5.02869e-10 -1.20367e-09 2.405e-10)
(2.95182e-11 -9.82235e-12 6.67268e-12)
(1.49818e-12 -4.10722e-11 7.04098e-12)
(6.84041e-14 -4.34332e-11 6.90794e-12)
(-1.23043e-11 -2.53361e-11 6.31605e-12)
(6.87807e-11 -1.58505e-10 2.16949e-11)
(9.25023e-12 -1.90628e-10 2.21858e-11)
(3.67047e-12 -1.9242e-10 2.18349e-11)
(-3.51045e-11 -1.67952e-10 2.07462e-11)
(8.08774e-11 -3.31623e-10 3.78838e-11)
(1.26919e-11 -3.51752e-10 3.81576e-11)
(7.52976e-12 -3.50862e-10 3.76206e-11)
(-4.06922e-11 -3.30632e-10 3.64037e-11)
(8.10634e-11 -4.87172e-10 5.39598e-11)
(1.03182e-11 -5.06586e-10 5.38945e-11)
(8.92196e-12 -5.02043e-10 5.31836e-11)
(-4.23819e-11 -4.74614e-10 5.19602e-11)
(9.31385e-11 -6.216e-10 6.81428e-11)
(9.76332e-12 -6.53883e-10 6.77543e-11)
(-6.67603e-13 -6.45311e-10 6.6877e-11)
(-6.44385e-11 -5.96777e-10 6.56317e-11)
(1.51003e-10 -7.52228e-10 7.85157e-11)
(2.36778e-11 -7.98349e-10 7.79258e-11)
(-3.44043e-11 -7.85544e-10 7.69015e-11)
(-1.41291e-10 -7.14605e-10 7.55379e-11)
(2.85349e-10 -9.44367e-10 8.35153e-11)
(6.02239e-11 -9.72819e-10 8.29042e-11)
(-1.0162e-10 -9.5528e-10 8.17823e-11)
(-3.03659e-10 -8.92201e-10 8.01948e-11)
(4.45947e-10 -1.26977e-09 8.26078e-11)
(9.65114e-11 -1.22966e-09 8.21694e-11)
(-1.81122e-10 -1.20451e-09 8.10475e-11)
(-5.01257e-10 -1.19313e-09 7.92149e-11)
)
;

boundaryField
{
    interface
    {
        type            calculated;
        value           nonuniform List<vector> 
192
(
(2.78051e-10 4.14775e-10 2.60318e-10)
(4.78531e-10 2.66094e-10 6.17118e-10)
(5.22615e-10 2.87279e-11 8.78455e-10)
(5.16001e-10 -1.91208e-10 1.10218e-09)
(5.13979e-10 -4.03585e-10 1.32334e-09)
(5.54185e-10 -6.48054e-10 1.5653e-09)
(6.70525e-10 -1.02989e-09 1.8311e-09)
(8.2471e-10 -1.62481e-09 2.04551e-09)
(1.59405e-10 1.95746e-10 7.8832e-11)
(2.98086e-10 3.58669e-11 3.02254e-10)
(3.23475e-10 -1.68487e-10 5.2944e-10)
(3.09396e-10 -3.65973e-10 7.39509e-10)
(3.01854e-10 -5.60336e-10 9.42238e-10)
(3.40225e-10 -7.68558e-10 1.14696e-09)
(4.69925e-10 -1.06856e-09 1.33855e-09)
(6.66717e-10 -1.56013e-09 1.45005e-09)
(7.35888e-11 8.39196e-11 3.23101e-11)
(1.58413e-10 -8.76978e-11 1.86452e-10)
(1.71041e-10 -2.85938e-10 3.77718e-10)
(1.56295e-10 -4.6942e-10 5.69121e-10)
(1.50579e-10 -6.37347e-10 7.5034e-10)
(1.93978e-10 -7.98262e-10 9.13962e-10)
(3.34658e-10 -1.02674e-09 1.0349e-09)
(5.4511e-10 -1.44425e-09 1.0669e-09)
(3.41677e-11 3.63659e-11 3.4702e-11)
(9.39471e-11 -1.37995e-10 1.59566e-10)
(1.02436e-10 -3.3609e-10 3.15084e-10)
(9.15814e-11 -5.10858e-10 4.75696e-10)
(9.18206e-11 -6.57036e-10 6.25213e-10)
(1.41761e-10 -7.84252e-10 7.48251e-10)
(2.87365e-10 -9.73345e-10 8.21869e-10)
(4.96546e-10 -1.35487e-09 8.22792e-10)
(1.94382e-11 1.98065e-11 3.59884e-11)
(7.12072e-11 -1.52086e-10 1.36977e-10)
(8.08605e-11 -3.4736e-10 2.566e-10)
(7.52137e-11 -5.15201e-10 3.79958e-10)
(8.16263e-11 -6.47716e-10 4.92712e-10)
(1.36573e-10 -7.57516e-10 5.79854e-10)
(2.8326e-10 -9.30313e-10 6.25181e-10)
(4.87712e-10 -1.29573e-09 6.19155e-10)
(1.49562e-11 1.5305e-11 2.99547e-11)
(6.56937e-11 -1.51986e-10 1.04262e-10)
(7.81596e-11 -3.42283e-10 1.88455e-10)
(7.7019e-11 -5.04302e-10 2.74086e-10)
(8.80872e-11 -6.29428e-10 3.51046e-10)
(1.46188e-10 -7.32217e-10 4.08403e-10)
(2.92629e-10 -8.99831e-10 4.36176e-10)
(4.92775e-10 -1.25751e-09 4.30609e-10)
(1.38813e-11 1.46304e-11 1.9358e-11)
(6.52396e-11 -1.48319e-10 6.46128e-11)
(8.00602e-11 -3.33922e-10 1.14429e-10)
(8.19474e-11 -4.91697e-10 1.64415e-10)
(9.59018e-11 -6.13189e-10 2.08788e-10)
(1.55765e-10 -7.13765e-10 2.41264e-10)
(3.01782e-10 -8.80272e-10 2.56533e-10)
(4.99023e-10 -1.23414e-09 2.53046e-10)
(1.37002e-11 1.47524e-11 6.65148e-12)
(6.55371e-11 -1.45665e-10 2.18205e-11)
(8.15695e-11 -3.28554e-10 3.82871e-11)
(8.49233e-11 -4.84107e-10 5.46837e-11)
(1.00224e-10 -6.04116e-10 6.91473e-11)
(1.60871e-10 -7.04177e-10 7.96568e-11)
(3.06639e-10 -8.70632e-10 8.45501e-11)
(5.02456e-10 -1.22292e-09 8.33819e-11)
(2.47188e-10 4.83543e-10 2.95946e-10)
(4.54697e-10 3.66459e-10 6.69449e-10)
(4.96726e-10 1.43231e-10 9.37598e-10)
(4.83846e-10 -7.69764e-11 1.16581e-09)
(4.77651e-10 -2.98992e-10 1.38716e-09)
(5.19672e-10 -5.63491e-10 1.62084e-09)
(6.38417e-10 -9.76307e-10 1.87508e-09)
(7.79404e-10 -1.60344e-09 2.09401e-09)
(4.95932e-11 3.80897e-10 2.61492e-10)
(1.03201e-10 2.82046e-10 6.20123e-10)
(1.09528e-10 1.03099e-10 8.74543e-10)
(9.27906e-11 -9.94945e-11 1.08703e-09)
(7.61211e-11 -3.27518e-10 1.29154e-09)
(7.68701e-11 -5.99176e-10 1.51044e-09)
(1.04813e-10 -9.85519e-10 1.76665e-09)
(1.37049e-10 -1.55469e-09 2.02546e-09)
(-7.00469e-11 3.7018e-10 2.45487e-10)
(-1.46629e-10 2.76858e-10 5.98868e-10)
(-1.75249e-10 1.04271e-10 8.49272e-10)
(-1.86155e-10 -9.26037e-11 1.05861e-09)
(-2.03773e-10 -3.15465e-10 1.26041e-09)
(-2.46213e-10 -5.82114e-10 1.47675e-09)
(-3.247e-10 -9.62723e-10 1.73029e-09)
(-4.1802e-10 -1.52226e-09 1.98613e-09)
(-2.47978e-10 4.47995e-10 2.47552e-10)
(-4.70501e-10 3.52904e-10 6.02855e-10)
(-5.34266e-10 1.50067e-10 8.58196e-10)
(-5.48741e-10 -5.35188e-11 1.07682e-09)
(-5.76334e-10 -2.6076e-10 1.29005e-09)
(-6.59359e-10 -5.10875e-10 1.51614e-09)
(-8.26701e-10 -9.06991e-10 1.76284e-09)
(-1.02385e-09 -1.50514e-09 1.97479e-09)
(-2.14226e-10 3.94567e-10 2.35636e-10)
(-4.23546e-10 2.67422e-10 5.65919e-10)
(-4.84312e-10 5.12702e-11 8.11568e-10)
(-5.00675e-10 -1.4984e-10 1.02391e-09)
(-5.2847e-10 -3.44285e-10 1.2354e-09)
(-6.05645e-10 -5.70683e-10 1.46821e-09)
(-7.65301e-10 -9.32188e-10 1.72484e-09)
(-9.67622e-10 -1.49609e-09 1.93133e-09)
(-9.46953e-11 1.78628e-10 6.81006e-11)
(-2.33607e-10 3.87982e-11 2.72906e-10)
(-2.6902e-10 -1.46366e-10 4.86441e-10)
(-2.72594e-10 -3.26021e-10 6.86043e-10)
(-2.90247e-10 -5.02916e-10 8.79755e-10)
(-3.61351e-10 -6.93573e-10 1.07608e-09)
(-5.30179e-10 -9.74571e-10 1.26006e-09)
(-7.69785e-10 -1.43774e-09 1.36688e-09)
(-8.04492e-12 6.37613e-11 2.55269e-11)
(-8.71179e-11 -8.87423e-11 1.67032e-10)
(-1.03936e-10 -2.68469e-10 3.47503e-10)
(-1.01674e-10 -4.34514e-10 5.29744e-10)
(-1.16514e-10 -5.85225e-10 7.02836e-10)
(-1.8842e-10 -7.28954e-10 8.5909e-10)
(-3.64285e-10 -9.39131e-10 9.73951e-10)
(-6.13891e-10 -1.32896e-09 1.00302e-09)
(3.23468e-11 1.30476e-11 2.98998e-11)
(-1.7762e-11 -1.4393e-10 1.46088e-10)
(-2.61377e-11 -3.24287e-10 2.93664e-10)
(-2.35033e-11 -4.81931e-10 4.46942e-10)
(-4.02758e-11 -6.11017e-10 5.89686e-10)
(-1.14961e-10 -7.21139e-10 7.06636e-10)
(-2.92207e-10 -8.91971e-10 7.75444e-10)
(-5.37533e-10 -1.24561e-09 7.74236e-10)
(4.77777e-11 -5.73916e-12 3.26414e-11)
(8.14202e-12 -1.61982e-10 1.27721e-10)
(1.59443e-12 -3.40493e-10 2.41777e-10)
(2.20674e-12 -4.91637e-10 3.5971e-10)
(-1.7509e-11 -6.07174e-10 4.67264e-10)
(-9.40981e-11 -6.99819e-10 5.49692e-10)
(-2.69558e-10 -8.54119e-10 5.91329e-10)
(-5.07659e-10 -1.19122e-09 5.83682e-10)
(5.26894e-11 -1.16761e-11 2.77631e-11)
(1.56499e-11 -1.64647e-10 9.82374e-11)
(8.21595e-12 -3.39067e-10 1.78769e-10)
(6.61785e-12 -4.84843e-10 2.60726e-10)
(-1.54051e-11 -5.93129e-10 3.34061e-10)
(-9.28273e-11 -6.7868e-10 3.88086e-10)
(-2.65875e-10 -8.27535e-10 4.13238e-10)
(-4.97772e-10 -1.15651e-09 4.0651e-10)
(5.40072e-11 -1.3206e-11 1.81201e-11)
(1.72429e-11 -1.62692e-10 6.12155e-11)
(8.63619e-12 -3.33047e-10 1.08955e-10)
(5.45614e-12 -4.74938e-10 1.56824e-10)
(-1.79192e-11 -5.79718e-10 1.99072e-10)
(-9.55628e-11 -6.63003e-10 2.2957e-10)
(-2.66741e-10 -8.10561e-10 2.43272e-10)
(-4.94462e-10 -1.13544e-09 2.39085e-10)
(5.42987e-11 -1.3484e-11 6.25146e-12)
(1.74684e-11 -1.60855e-10 2.07231e-11)
(8.2095e-12 -3.28812e-10 3.65172e-11)
(4.25339e-12 -4.68676e-10 5.22226e-11)
(-1.97107e-11 -5.72048e-10 6.5987e-11)
(-9.73721e-11 -6.54796e-10 7.58413e-11)
(-2.6758e-10 -8.02207e-10 8.0214e-11)
(-4.93243e-10 -1.12536e-09 7.88117e-11)
(7.77297e-10 -1.67207e-09 2.10121e-09)
(6.31551e-10 -1.60352e-09 1.47414e-09)
(5.06127e-10 -1.50035e-09 1.06207e-09)
(4.53302e-10 -1.42132e-09 8.02712e-10)
(4.4429e-10 -1.36547e-09 5.96636e-10)
(4.49731e-10 -1.32805e-09 4.12686e-10)
(4.56009e-10 -1.30496e-09 2.42122e-10)
(4.59342e-10 -1.29388e-09 7.97662e-11)
(1.35225e-10 -1.59947e-09 2.05629e-09)
(9.80154e-11 -1.49074e-09 1.48746e-09)
(6.37362e-11 -1.38497e-09 1.10187e-09)
(5.44162e-11 -1.31897e-09 8.32955e-10)
(6.03035e-11 -1.27567e-09 6.10625e-10)
(6.95959e-11 -1.24639e-09 4.16814e-10)
(7.66733e-11 -1.22759e-09 2.42569e-10)
(8.01936e-11 -1.21828e-09 7.96356e-11)
(-4.19623e-10 -1.55673e-09 2.02688e-09)
(-3.30965e-10 -1.45028e-09 1.46739e-09)
(-2.57077e-10 -1.34643e-09 1.08688e-09)
(-2.17725e-10 -1.28197e-09 8.21688e-10)
(-2.01242e-10 -1.23984e-09 6.02432e-10)
(-1.94687e-10 -1.2114e-09 4.11257e-10)
(-1.91653e-10 -1.19315e-09 2.3935e-10)
(-1.90257e-10 -1.18411e-09 7.8582e-11)
(-1.02558e-09 -1.54209e-09 2.0126e-09)
(-8.32787e-10 -1.47874e-09 1.41392e-09)
(-6.6897e-10 -1.38091e-09 1.01695e-09)
(-5.85997e-10 -1.3064e-09 7.68686e-10)
(-5.54312e-10 -1.25402e-09 5.71854e-10)
(-5.43662e-10 -1.21911e-09 3.95875e-10)
(-5.39661e-10 -1.19764e-09 2.3239e-10)
(-5.37992e-10 -1.18735e-09 7.65814e-11)
)
;
    }
    symmetry
    {
        type            symmetry;
    }
    bottom
    {
        type            calculated;
        value           uniform (0 0 0);
    }
}


// ************************************************************************* //
