/*--------------------------------*- C++ -*----------------------------------*\
| =========                 |                                                 |
| \\      /  F ield         | OpenFOAM: The Open Source CFD Toolbox           |
|  \\    /   O peration     | Version:  v1912                                 |
|   \\  /    A nd           | Website:  www.openfoam.com                      |
|    \\/     M anipulation  |                                                 |
\*---------------------------------------------------------------------------*/
FoamFile
{
    version     2.0;
    format      ascii;
    class       volSymmTensorField;
    location    "0.72/solid";
    object      epsilon;
}
// * * * * * * * * * * * * * * * * * * * * * * * * * * * * * * * * * * * * * //

dimensions      [0 0 0 0 0 0 0];


internalField   nonuniform List<symmTensor> 
256
(
(-2.80677e-06 1.94767e-07 -7.28406e-08 1.3814e-06 2.20236e-07 -2.87293e-06)
(-6.06759e-07 -4.10845e-08 -3.07948e-08 8.61728e-07 2.18025e-07 -2.54067e-06)
(-5.90524e-07 3.95111e-08 2.93208e-08 8.44479e-07 2.18518e-07 -2.50411e-06)
(-2.62809e-06 -1.88075e-07 7.19799e-08 1.31796e-06 2.22242e-07 -2.77005e-06)
(-2.89191e-06 -2.96404e-10 -1.11411e-07 -4.68099e-07 2.80924e-08 -2.91892e-06)
(-1.03541e-06 -3.38926e-08 -5.09577e-08 -2.22668e-07 3.84265e-08 -2.55384e-06)
(-1.0137e-06 3.73251e-08 4.96365e-08 -2.28793e-07 3.94381e-08 -2.51778e-06)
(-2.70543e-06 2.42406e-09 1.10397e-07 -4.79951e-07 3.11567e-08 -2.81873e-06)
(-2.95701e-06 -2.90972e-08 -1.20048e-07 -5.63431e-07 -1.23074e-09 -2.98089e-06)
(-1.08436e-06 -3.04191e-08 -5.60078e-08 -4.09785e-07 6.781e-10 -2.56826e-06)
(-1.06285e-06 3.42664e-08 5.51196e-08 -4.13807e-07 1.35951e-09 -2.53127e-06)
(-2.76734e-06 3.05735e-08 1.19136e-07 -5.72776e-07 8.92368e-10 -2.8777e-06)
(-3.01614e-06 -1.93025e-08 -1.24666e-07 -5.18128e-07 7.2762e-09 -3.05963e-06)
(-1.04448e-06 -2.30336e-08 -5.84169e-08 -4.97169e-07 4.63802e-09 -2.61586e-06)
(-1.02305e-06 2.59056e-08 5.77202e-08 -5.0059e-07 5.029e-09 -2.57801e-06)
(-2.82297e-06 2.05543e-08 1.23827e-07 -5.27396e-07 8.58184e-09 -2.9539e-06)
(-3.10759e-06 -2.16167e-09 -1.29559e-07 -5.33785e-07 2.77836e-08 -3.16629e-06)
(-1.0385e-06 -1.16072e-08 -6.11098e-08 -5.76074e-07 2.38949e-08 -2.70224e-06)
(-1.01681e-06 1.33736e-08 6.04407e-08 -5.79415e-07 2.4116e-08 -2.6637e-06)
(-2.91096e-06 3.01529e-09 1.28765e-07 -5.42864e-07 2.85668e-08 -3.05866e-06)
(-3.26712e-06 3.07166e-08 -1.33837e-07 -7.15185e-07 6.52218e-08 -3.31977e-06)
(-1.13094e-06 9.06031e-09 -6.36761e-08 -7.25545e-07 6.28544e-08 -2.84454e-06)
(-1.10908e-06 -8.8771e-09 6.29674e-08 -7.28565e-07 6.29571e-08 -2.80535e-06)
(-3.06771e-06 -3.05975e-08 1.33091e-07 -7.23329e-07 6.56229e-08 -3.21048e-06)
(-3.53551e-06 9.05583e-08 -1.32666e-07 -1.50143e-06 1.23572e-07 -3.56346e-06)
(-1.38008e-06 4.16872e-08 -6.33566e-08 -1.34593e-06 1.29004e-07 -3.10535e-06)
(-1.35828e-06 -4.42689e-08 6.25742e-08 -1.34387e-06 1.28957e-07 -3.06558e-06)
(-3.33451e-06 -9.14993e-08 1.31966e-07 -1.49674e-06 1.23539e-07 -3.45291e-06)
(-4.01285e-06 1.21043e-07 -1.20673e-07 -4.03673e-06 1.50592e-07 -4.03501e-06)
(-1.72651e-06 5.81336e-08 -5.78034e-08 -3.69564e-06 1.63664e-07 -3.69302e-06)
(-1.70362e-06 -5.68559e-08 5.6882e-08 -3.65624e-06 1.6355e-07 -3.65385e-06)
(-3.80818e-06 -1.20083e-07 1.19947e-07 -3.92842e-06 1.50379e-07 -3.92763e-06)
(-2.28068e-06 1.17009e-07 -5.601e-08 5.94806e-07 8.25792e-09 -5.35524e-07)
(-4.08747e-07 -6.08115e-08 -1.77624e-08 1.65458e-07 9.78695e-08 -4.46305e-07)
(-3.92864e-07 6.18334e-08 1.97844e-08 1.51049e-07 1.01491e-07 -4.43556e-07)
(-2.10363e-06 -1.09519e-07 5.67722e-08 5.39596e-07 1.88399e-08 -5.28858e-07)
(-2.34698e-06 -1.39267e-08 -8.62686e-08 -3.12353e-07 3.4859e-08 -8.53596e-07)
(-7.08882e-07 -3.75648e-08 -3.57059e-08 -1.1464e-07 8.17542e-08 -7.15467e-07)
(-6.88377e-07 4.07471e-08 3.87332e-08 -1.22781e-07 8.3929e-08 -7.12307e-07)
(-2.16636e-06 1.56488e-08 8.72701e-08 -3.29413e-07 4.143e-08 -8.46003e-07)
(-2.38013e-06 -3.04498e-08 -9.05834e-08 -4.14498e-07 3.06132e-08 -9.08659e-07)
(-7.31114e-07 -2.99134e-08 -3.88972e-08 -2.89525e-07 4.54185e-08 -7.55136e-07)
(-7.11212e-07 3.22104e-08 4.24489e-08 -2.94446e-07 4.68582e-08 -7.52493e-07)
(-2.1973e-06 3.11292e-08 9.17056e-08 -4.263e-07 3.51115e-08 -9.02361e-07)
(-2.41802e-06 -2.03647e-08 -9.19248e-08 -4.40913e-07 3.41563e-08 -9.22636e-07)
(-6.85729e-07 -2.25826e-08 -3.91324e-08 -4.29146e-07 3.63353e-08 -7.5901e-07)
(-6.65983e-07 2.3844e-08 4.30134e-08 -4.32763e-07 3.73041e-08 -7.5668e-07)
(-2.23162e-06 2.09107e-08 9.31614e-08 -4.50904e-07 3.7252e-08 -9.17156e-07)
(-2.49683e-06 -3.84643e-09 -9.44057e-08 -4.76279e-07 6.1619e-08 -9.56326e-07)
(-6.74824e-07 -1.20338e-08 -4.05185e-08 -5.22551e-07 5.9852e-08 -7.83545e-07)
(-6.54711e-07 1.24903e-08 4.45175e-08 -5.25891e-07 6.04719e-08 -7.81329e-07)
(-2.30612e-06 4.19357e-09 9.5726e-08 -4.85573e-07 6.36142e-08 -9.51179e-07)
(-2.65527e-06 3.0206e-08 -9.65966e-08 -5.97124e-07 1.06257e-07 -1.03984e-06)
(-7.63147e-07 8.40422e-09 -4.22869e-08 -6.08021e-07 1.03677e-07 -8.59315e-07)
(-7.42654e-07 -9.1831e-09 4.6244e-08 -6.11058e-07 1.04008e-07 -8.57135e-07)
(-2.46028e-06 -3.04069e-08 9.79796e-08 -6.05468e-07 1.07329e-07 -1.03485e-06)
(-2.95056e-06 9.57691e-08 -9.53839e-08 -1.21279e-06 1.4191e-07 -1.21947e-06)
(-1.01641e-06 4.27916e-08 -4.23025e-08 -1.03737e-06 1.41762e-07 -1.04047e-06)
(-9.95697e-07 -4.60058e-08 4.60809e-08 -1.03544e-06 1.41815e-07 -1.03829e-06)
(-2.75229e-06 -9.69026e-08 9.67967e-08 -1.20842e-06 1.4214e-07 -1.21454e-06)
(-3.53736e-06 1.32885e-07 -8.9954e-08 -3.56488e-06 1.24362e-07 -1.50249e-06)
(-1.38039e-06 6.35341e-08 -4.09226e-08 -3.1082e-06 1.2965e-07 -1.34388e-06)
(-1.35847e-06 -6.25349e-08 4.44491e-08 -3.06803e-06 1.29594e-07 -1.34157e-06)
(-3.33504e-06 -1.32032e-07 9.13329e-08 -3.45291e-06 1.24283e-07 -1.49735e-06)
(-1.95471e-06 6.44062e-08 -2.29596e-08 2.78451e-07 8.25593e-08 -6.35017e-08)
(-2.68374e-07 -8.35315e-08 -2.69632e-09 -7.92472e-08 1.67762e-07 -6.72452e-08)
(-2.52975e-07 8.35814e-08 3.86422e-09 -9.22734e-08 1.7006e-07 -6.7941e-08)
(-1.78342e-06 -5.75705e-08 2.32242e-08 2.27998e-07 8.96358e-08 -6.54667e-08)
(-2.03499e-06 -2.13414e-08 -3.41728e-08 -3.61267e-07 1.03714e-07 -2.34363e-07)
(-4.67655e-07 -4.21592e-08 -9.04385e-09 -1.96993e-07 1.47025e-07 -2.42638e-07)
(-4.47701e-07 4.48011e-08 1.07547e-08 -2.05249e-07 1.48841e-07 -2.43798e-07)
(-1.85959e-06 2.28313e-08 3.4639e-08 -3.78821e-07 1.09313e-07 -2.3767e-07)
(-2.06582e-06 -2.91745e-08 -3.36592e-08 -3.81062e-07 9.43704e-08 -3.2253e-07)
(-4.70475e-07 -2.91241e-08 -9.37757e-09 -2.82418e-07 1.08359e-07 -3.32791e-07)
(-4.51147e-07 3.08318e-08 1.11977e-08 -2.87755e-07 1.09779e-07 -3.34456e-07)
(-1.88813e-06 2.96069e-08 3.41864e-08 -3.94155e-07 9.8754e-08 -3.27238e-07)
(-2.10039e-06 -1.98785e-08 -3.21678e-08 -3.7635e-07 8.7958e-08 -3.62575e-07)
(-4.24489e-07 -2.21817e-08 -8.19991e-09 -3.74897e-07 9.02416e-08 -3.72768e-07)
(-4.0532e-07 2.27988e-08 1.00948e-08 -3.78845e-07 9.13224e-08 -3.7485e-07)
(-1.91898e-06 2.01716e-08 3.27355e-08 -3.87405e-07 9.12959e-08 -3.68419e-07)
(-2.1784e-06 -4.18716e-09 -3.1759e-08 -3.83895e-07 1.00271e-07 -4.06524e-07)
(-4.13416e-07 -1.26816e-08 -7.95117e-09 -4.33379e-07 9.90205e-08 -4.15452e-07)
(-3.93802e-07 1.25394e-08 9.8757e-09 -4.36935e-07 9.97927e-08 -4.17782e-07)
(-1.99212e-06 4.33414e-09 3.23637e-08 -3.93957e-07 1.02639e-07 -4.13038e-07)
(-2.34297e-06 3.05497e-08 -3.1564e-08 -4.60338e-07 1.1841e-07 -4.86982e-07)
(-5.02455e-07 7.73644e-09 -8.36559e-09 -4.71938e-07 1.16146e-07 -4.94331e-07)
(-4.82289e-07 -9.01356e-09 1.02375e-08 -4.7513e-07 1.16635e-07 -4.96779e-07)
(-2.15125e-06 -3.08762e-08 3.21998e-08 -4.69247e-07 1.19886e-07 -4.93805e-07)
(-2.65635e-06 9.69874e-08 -3.11144e-08 -1.02668e-06 1.11658e-07 -6.10819e-07)
(-7.60102e-07 4.26687e-08 -8.93715e-09 -8.50191e-07 1.08882e-07 -6.17941e-07)
(-7.39478e-07 -4.62692e-08 1.06296e-08 -8.48348e-07 1.09111e-07 -6.20412e-07)
(-2.45963e-06 -9.81823e-08 3.17579e-08 -1.02255e-06 1.1235e-07 -6.17691e-07)
(-3.27096e-06 1.34046e-07 -3.12769e-08 -3.32209e-06 6.83477e-08 -7.14557e-07)
(-1.12865e-06 6.37743e-08 -9.305e-09 -2.8489e-06 6.58517e-08 -7.21704e-07)
(-1.10658e-06 -6.29169e-08 1.06452e-08 -2.80905e-06 6.59052e-08 -7.24154e-07)
(-3.06855e-06 -1.33192e-07 3.18569e-08 -3.21069e-06 6.85421e-08 -7.21352e-07)
(-1.77094e-06 4.29972e-08 -6.06732e-09 1.6309e-07 1.0712e-07 -8.01219e-09)
(-2.06492e-07 -9.08621e-08 4.03021e-09 -1.52726e-07 1.58735e-07 -3.20072e-08)
(-1.91732e-07 8.96678e-08 -3.20612e-09 -1.65046e-07 1.60248e-07 -3.26341e-08)
(-1.6048e-06 -3.70004e-08 6.17968e-09 1.15517e-07 1.11988e-07 -9.74479e-09)
(-1.85089e-06 -2.27424e-08 -7.60445e-09 -4.11454e-07 1.29469e-07 -1.06387e-07)
(-3.57844e-07 -4.29425e-08 4.8278e-09 -2.66237e-07 1.55412e-07 -1.51616e-07)
(-3.38601e-07 4.48089e-08 -3.61348e-09 -2.74176e-07 1.56764e-07 -1.52849e-07)
(-1.68049e-06 2.39214e-08 7.84015e-09 -4.28411e-07 1.33716e-07 -1.0985e-07)
(-1.88523e-06 -2.65957e-08 -5.42505e-09 -3.90341e-07 1.258e-07 -2.03565e-07)
(-3.54093e-07 -2.75819e-08 6.08468e-09 -3.07838e-07 1.33678e-07 -2.55931e-07)
(-3.35369e-07 2.88425e-08 -4.91796e-09 -3.1322e-07 1.34843e-07 -2.57577e-07)
(-1.71231e-06 2.68791e-08 5.67785e-09 -4.03764e-07 1.29397e-07 -2.08217e-07)
(-1.92313e-06 -1.80197e-08 -3.24976e-09 -3.4257e-07 1.16212e-07 -2.76709e-07)
(-3.12855e-07 -2.10224e-08 7.54771e-09 -3.47875e-07 1.1661e-07 -3.31285e-07)
(-2.94229e-07 2.13323e-08 -6.46266e-09 -3.52021e-07 1.17572e-07 -3.33268e-07)
(-1.74632e-06 1.8209e-08 3.49196e-09 -3.54302e-07 1.19154e-07 -2.82313e-07)
(-2.00464e-06 -3.22612e-09 -1.90552e-09 -3.16669e-07 1.11676e-07 -3.43779e-07)
(-3.06616e-07 -1.2426e-08 8.33305e-09 -3.68035e-07 1.10081e-07 -3.98947e-07)
(-2.87487e-07 1.20326e-08 -7.30408e-09 -3.71798e-07 1.10825e-07 -4.01171e-07)
(-1.82257e-06 3.30021e-09 2.14368e-09 -3.27423e-07 1.13928e-07 -3.50048e-07)
(-2.17461e-06 3.0748e-08 -1.2536e-09 -3.75936e-07 1.03212e-07 -4.20435e-07)
(-3.99158e-07 7.17331e-09 8.32821e-09 -3.89427e-07 1.01475e-07 -4.75322e-07)
(-3.79374e-07 -8.66909e-09 -7.37388e-09 -3.92783e-07 1.01995e-07 -4.77687e-07)
(-1.98632e-06 -3.11104e-08 1.49317e-09 -3.85397e-07 1.04763e-07 -4.27077e-07)
(-2.49559e-06 9.50053e-08 -1.72438e-09 -9.38734e-07 7.35893e-08 -4.95597e-07)
(-6.57573e-07 4.07829e-08 7.40584e-09 -7.69825e-07 7.13127e-08 -5.49394e-07)
(-6.37154e-07 -4.45715e-08 -6.62959e-09 -7.68088e-07 7.16078e-08 -5.51816e-07)
(-2.30101e-06 -9.61998e-08 1.94609e-09 -9.34904e-07 7.44671e-08 -5.02371e-07)
(-3.11212e-06 1.30078e-07 -3.14079e-09 -3.17393e-06 3.47311e-08 -5.20904e-07)
(-1.02263e-06 6.1246e-08 6.96109e-09 -2.71111e-06 3.10958e-08 -5.7276e-07)
(-1.00056e-06 -6.04755e-08 -6.5693e-09 -2.67157e-06 3.11796e-08 -5.75196e-07)
(-2.91033e-06 -1.29206e-07 3.26327e-09 -3.06323e-06 3.50032e-08 -5.27682e-07)
(-1.66918e-06 3.66809e-08 -8.92324e-10 1.19343e-07 9.87808e-08 -1.456e-08)
(-1.85016e-07 -8.98827e-08 4.44924e-09 -1.75747e-07 1.24529e-07 -3.20229e-08)
(-1.70771e-07 8.78518e-08 -3.8279e-09 -1.87588e-07 1.25586e-07 -3.24557e-08)
(-1.50667e-06 -3.12986e-08 9.85433e-10 7.38101e-08 1.02211e-07 -1.58245e-08)
(-1.74699e-06 -2.16039e-08 3.39813e-10 -4.31439e-07 1.17961e-07 -9.15758e-08)
(-3.2078e-07 -4.15249e-08 7.08504e-09 -2.96283e-07 1.3032e-07 -1.2512e-07)
(-3.02179e-07 4.2754e-08 -6.12422e-09 -3.03937e-07 1.31304e-07 -1.26107e-07)
(-1.5803e-06 2.25112e-08 -1.47828e-10 -4.47805e-07 1.21072e-07 -9.44551e-08)
(-1.78498e-06 -2.42495e-08 2.37736e-09 -3.98837e-07 1.20667e-07 -1.84012e-07)
(-3.18049e-07 -2.60446e-08 8.54979e-09 -3.24702e-07 1.23649e-07 -2.22984e-07)
(-2.99884e-07 2.69128e-08 -7.6428e-09 -3.30027e-07 1.2453e-07 -2.24343e-07)
(-1.61561e-06 2.43997e-08 -2.18264e-09 -4.12272e-07 1.23403e-07 -1.87984e-07)
(-1.8274e-06 -1.62264e-08 4.11455e-09 -3.28637e-07 1.12845e-07 -2.69925e-07)
(-2.82904e-07 -1.99166e-08 9.67194e-09 -3.37252e-07 1.11988e-07 -3.10255e-07)
(-2.64773e-07 2.00041e-08 -8.88732e-09 -3.41487e-07 1.12748e-07 -3.11898e-07)
(-1.65394e-06 1.63447e-08 -3.94953e-09 -3.40721e-07 1.1518e-07 -2.74732e-07)
(-1.91309e-06 -2.21558e-09 5.26582e-09 -2.83905e-07 1.00186e-07 -3.46901e-07)
(-2.82263e-07 -1.20021e-08 1.03037e-08 -3.35808e-07 9.86871e-08 -3.8729e-07)
(-2.63581e-07 1.14699e-08 -9.61816e-09 -3.39711e-07 9.93051e-08 -3.89152e-07)
(-1.73407e-06 2.25339e-09 -5.12633e-09 -2.95135e-07 1.02064e-07 -3.52338e-07)
(-2.08663e-06 3.058e-08 5.6858e-09 -3.39078e-07 7.95826e-08 -4.15126e-07)
(-3.77823e-07 6.63687e-09 1.02842e-08 -3.53881e-07 7.86637e-08 -4.54993e-07)
(-3.58419e-07 -8.24014e-09 -9.69396e-09 -3.57369e-07 7.91207e-08 -4.57004e-07)
(-1.9009e-06 -3.09531e-08 -5.5649e-09 -3.48978e-07 8.09562e-08 -4.20981e-07)
(-2.40945e-06 9.25547e-08 4.95448e-09 -9.01186e-07 4.66154e-08 -4.62955e-07)
(-6.34689e-07 3.8832e-08 9.45747e-09 -7.39232e-07 4.5708e-08 -5.01938e-07)
(-6.14536e-07 -4.27186e-08 -9.03631e-09 -7.37602e-07 4.59846e-08 -5.04028e-07)
(-2.21661e-06 -9.37413e-08 -4.86917e-09 -8.97663e-07 4.74515e-08 -4.69019e-07)
(-3.02021e-06 1.2606e-07 3.66844e-09 -3.07966e-06 1.89268e-08 -4.6865e-07)
(-9.94731e-07 5.88161e-08 9.14925e-09 -2.63025e-06 1.65834e-08 -5.07452e-07)
(-9.72791e-07 -5.81068e-08 -9.07646e-09 -2.59089e-06 1.66652e-08 -5.09555e-07)
(-2.81913e-06 -1.25182e-07 -3.69323e-09 -2.96939e-06 1.91912e-08 -4.7474e-07)
(-1.61206e-06 3.53394e-08 1.55741e-11 1.02264e-07 7.68285e-08 -2.37406e-08)
(-1.78151e-07 -8.72499e-08 2.91494e-09 -1.83242e-07 8.86722e-08 -3.29092e-08)
(-1.64247e-07 8.47111e-08 -2.47667e-09 -1.94738e-07 8.93829e-08 -3.32446e-08)
(-1.45185e-06 -3.03464e-08 6.4277e-11 5.81725e-08 7.91118e-08 -2.47423e-08)
(-1.68914e-06 -2.0169e-08 1.23751e-09 -4.34483e-07 8.98222e-08 -9.64784e-08)
(-3.10852e-07 -3.99329e-08 4.9632e-09 -3.04741e-07 9.49509e-08 -1.14106e-07)
(-2.92693e-07 4.07352e-08 -4.25385e-09 -3.12188e-07 9.56253e-08 -1.14927e-07)
(-1.52481e-06 2.08902e-08 -1.07349e-09 -4.50391e-07 9.19478e-08 -9.89068e-08)
(-1.72998e-06 -2.26314e-08 2.60087e-09 -4.00243e-07 9.40959e-08 -1.82328e-07)
(-3.1136e-07 -2.49577e-08 6.00205e-09 -3.30154e-07 9.47054e-08 -2.02618e-07)
(-2.9359e-07 2.55257e-08 -5.31995e-09 -3.35418e-07 9.53193e-08 -2.03784e-07)
(-1.56288e-06 2.26763e-08 -2.43332e-09 -4.13618e-07 9.60094e-08 -1.85783e-07)
(-1.77602e-06 -1.50247e-08 3.68872e-09 -3.23585e-07 8.88732e-08 -2.67584e-07)
(-2.81211e-07 -1.92157e-08 6.67409e-09 -3.33482e-07 8.77862e-08 -2.88144e-07)
(-2.63427e-07 1.91211e-08 -6.0958e-09 -3.37753e-07 8.83274e-08 -2.89574e-07)
(-1.60465e-06 1.50833e-08 -3.54968e-09 -3.35849e-07 9.0548e-08 -2.71831e-07)
(-1.86491e-06 -1.57605e-09 4.39679e-09 -2.72882e-07 7.60611e-08 -3.43733e-07)
(-2.84743e-07 -1.17498e-08 7.0218e-09 -3.24547e-07 7.50211e-08 -3.63843e-07)
(-2.66371e-07 1.11105e-08 -6.54154e-09 -3.28534e-07 7.54742e-08 -3.6548e-07)
(-1.68777e-06 1.58432e-09 -4.28713e-09 -2.84409e-07 7.74488e-08 -3.48602e-07)
(-2.04041e-06 3.03063e-08 4.58392e-09 -3.27923e-07 5.57458e-08 -4.04355e-07)
(-3.82062e-07 6.2219e-09 6.95836e-09 -3.43114e-07 5.54775e-08 -4.23921e-07)
(-3.62922e-07 -7.89778e-09 -6.57108e-09 -3.46695e-07 5.58233e-08 -4.25711e-07)
(-1.85624e-06 -3.06886e-08 -4.49933e-09 -3.38132e-07 5.67975e-08 -4.09674e-07)
(-2.36279e-06 9.0775e-08 4.00302e-09 -8.85911e-07 2.93905e-08 -4.41071e-07)
(-6.36974e-07 3.75359e-08 6.411e-09 -7.281e-07 2.94219e-08 -4.60325e-07)
(-6.17017e-07 -4.14853e-08 -6.16481e-09 -7.26552e-07 2.96376e-08 -4.62203e-07)
(-2.17103e-06 -9.19597e-08 -3.95663e-09 -8.82633e-07 3.00552e-08 -4.46652e-07)
(-2.96741e-06 1.2339e-07 3.085e-09 -3.02089e-06 1.10561e-08 -4.46309e-07)
(-9.92894e-07 5.72737e-08 6.19288e-09 -2.58067e-06 9.99562e-09 -4.66284e-07)
(-9.7107e-07 -5.6608e-08 -6.22089e-09 -2.54142e-06 1.00614e-08 -4.68173e-07)
(-2.76677e-06 -1.22515e-07 -3.13468e-09 -2.91088e-06 1.12707e-08 -4.51931e-07)
(-1.5808e-06 3.51197e-08 9.54228e-12 9.59456e-08 4.82479e-08 -2.92345e-08)
(-1.75659e-07 -8.536e-08 1.46533e-09 -1.8519e-07 5.33666e-08 -3.3771e-08)
(-1.61957e-07 8.25342e-08 -1.20415e-09 -1.96461e-07 5.37769e-08 -3.40611e-08)
(-1.42192e-06 -3.03511e-08 4.40441e-11 5.2772e-08 4.95519e-08 -3.00933e-08)
(-1.65778e-06 -1.92269e-08 6.49933e-10 -4.32221e-07 5.53706e-08 -1.01788e-07)
(-3.08316e-07 -3.8915e-08 2.53477e-09 -3.05401e-07 5.73057e-08 -1.1025e-07)
(-2.90421e-07 3.94668e-08 -2.09879e-09 -3.12715e-07 5.76999e-08 -1.10979e-07)
(-1.49483e-06 1.9839e-08 -5.38608e-10 -4.47814e-07 5.66059e-08 -1.03926e-07)
(-1.70044e-06 -2.17115e-08 1.36116e-09 -3.98557e-07 5.83818e-08 -1.8285e-07)
(-3.11485e-07 -2.43538e-08 3.07847e-09 -3.30367e-07 5.82879e-08 -1.92245e-07)
(-2.9395e-07 2.47282e-08 -2.65046e-09 -3.35588e-07 5.86503e-08 -1.93299e-07)
(-1.53465e-06 2.16878e-08 -1.24493e-09 -4.1187e-07 5.9512e-08 -1.85957e-07)
(-1.74878e-06 -1.43668e-08 1.91907e-09 -3.21894e-07 5.53888e-08 -2.63707e-07)
(-2.8453e-07 -1.88656e-08 3.40503e-09 -3.32179e-07 5.46333e-08 -2.72794e-07)
(-2.6695e-07 1.86405e-08 -3.04173e-09 -3.36466e-07 5.49566e-08 -2.74103e-07)
(-1.57862e-06 1.43814e-08 -1.82141e-09 -3.34247e-07 5.63936e-08 -2.6759e-07)
(-1.83961e-06 -1.2531e-09 2.27032e-09 -2.71006e-07 4.66699e-08 -3.35715e-07)
(-2.90531e-07 -1.16496e-08 3.55525e-09 -3.22242e-07 4.61177e-08 -3.44226e-07)
(-2.72339e-07 1.09287e-08 -3.25996e-09 -3.26276e-07 4.63925e-08 -3.4574e-07)
(-1.66353e-06 1.23697e-09 -2.19418e-09 -2.82705e-07 4.75172e-08 -3.40226e-07)
(-2.01603e-06 3.00989e-08 2.33913e-09 -3.26662e-07 3.30227e-08 -3.91331e-07)
(-3.8869e-07 5.97063e-09 3.49978e-09 -3.41764e-07 3.30458e-08 -3.99486e-07)
(-3.69703e-07 -7.70041e-09 -3.27065e-09 -3.45402e-07 3.32592e-08 -4.01156e-07)
(-1.83273e-06 -3.04913e-08 -2.28277e-09 -3.37065e-07 3.36777e-08 -3.96319e-07)
(-2.33753e-06 8.97534e-08 2.00539e-09 -8.80128e-07 1.67275e-08 -4.24529e-07)
(-6.42149e-07 3.68522e-08 3.21385e-09 -7.24299e-07 1.7033e-08 -4.32807e-07)
(-6.22305e-07 -4.08446e-08 -3.07835e-09 -7.22804e-07 1.71682e-08 -4.3457e-07)
(-2.14637e-06 -9.09406e-08 -1.97705e-09 -8.77013e-07 1.71501e-08 -4.29812e-07)
(-2.93778e-06 1.2193e-07 1.46246e-09 -2.98696e-06 6.06067e-09 -4.32723e-07)
(-9.95344e-07 5.64742e-08 3.07147e-09 -2.55166e-06 5.70658e-09 -4.41903e-07)
(-9.73588e-07 -5.58377e-08 -3.11095e-09 -2.51246e-06 5.74859e-09 -4.43675e-07)
(-2.73738e-06 -1.21061e-07 -1.49849e-09 -2.8771e-06 6.19927e-09 -4.38059e-07)
(-1.56683e-06 3.50631e-08 -1.29556e-11 9.39962e-08 1.64099e-08 -3.16422e-08)
(-1.74678e-07 -8.44957e-08 4.31625e-10 -1.85385e-07 1.78568e-08 -3.44187e-08)
(-1.6107e-07 8.15406e-08 -3.44825e-10 -1.96545e-07 1.7991e-08 -3.46901e-08)
(-1.40856e-06 -3.03969e-08 3.16281e-11 5.12668e-08 1.68336e-08 -3.24362e-08)
(-1.6438e-06 -1.8814e-08 1.66907e-10 -4.30129e-07 1.86459e-08 -1.04459e-07)
(-3.0751e-07 -3.84715e-08 7.44446e-10 -3.04618e-07 1.91429e-08 -1.09392e-07)
(-2.89736e-07 3.89089e-08 -5.97329e-10 -3.11865e-07 1.92725e-08 -1.10079e-07)
(-1.48149e-06 1.93765e-08 -1.27752e-10 -4.4556e-07 1.90507e-08 -1.06456e-07)
(-1.68732e-06 -2.13151e-08 3.79732e-10 -3.97058e-07 1.96668e-08 -1.83106e-07)
(-3.12001e-07 -2.41033e-08 9.05559e-10 -3.29637e-07 1.9579e-08 -1.8829e-07)
(-2.94576e-07 2.43847e-08 -7.594e-10 -3.34835e-07 1.96988e-08 -1.89292e-07)
(-1.52213e-06 2.12584e-08 -3.383e-10 -4.10333e-07 2.00403e-08 -1.86039e-07)
(-1.73673e-06 -1.40883e-08 5.47633e-10 -3.21398e-07 1.86816e-08 -2.60896e-07)
(-2.86536e-07 -1.87308e-08 9.99955e-10 -3.31768e-07 1.84232e-08 -2.65585e-07)
(-2.69051e-07 1.84384e-08 -8.75372e-10 -3.36062e-07 1.85307e-08 -2.66838e-07)
(-1.56712e-06 1.40799e-08 -5.12471e-10 -3.33788e-07 1.90164e-08 -2.64597e-07)
(-1.82844e-06 -1.12411e-09 6.51288e-10 -2.71371e-07 1.56556e-08 -3.29994e-07)
(-2.9364e-07 -1.16207e-08 1.03988e-09 -3.22328e-07 1.54893e-08 -3.34129e-07)
(-2.7553e-07 1.0855e-08 -9.39256e-10 -3.26383e-07 1.55813e-08 -3.35588e-07)
(-1.65285e-06 1.09403e-09 -6.23853e-10 -2.83148e-07 1.59402e-08 -3.34327e-07)
(-2.00521e-06 2.99979e-08 6.68222e-10 -3.27469e-07 1.09485e-08 -3.83204e-07)
(-3.9212e-07 5.85949e-09 1.01954e-09 -3.42425e-07 1.09881e-08 -3.87133e-07)
(-3.73202e-07 -7.61927e-09 -9.42673e-10 -3.46091e-07 1.106e-08 -3.8875e-07)
(-1.8223e-06 -3.0397e-08 -6.4814e-10 -3.37963e-07 1.11705e-08 -3.88029e-07)
(-2.32615e-06 8.93068e-08 5.62565e-10 -8.78294e-07 5.49047e-09 -4.15536e-07)
(-6.44851e-07 3.65738e-08 9.33168e-10 -7.23211e-07 5.63817e-09 -4.1979e-07)
(-6.25057e-07 -4.05891e-08 -8.89054e-10 -7.21741e-07 5.68409e-09 -4.21503e-07)
(-2.13524e-06 -9.04965e-08 -5.52633e-10 -8.7526e-07 5.63502e-09 -4.20675e-07)
(-2.92422e-06 1.21307e-07 3.82992e-10 -2.97152e-06 1.95778e-09 -4.25648e-07)
(-9.96713e-07 5.61486e-08 8.82529e-10 -2.53824e-06 1.88632e-09 -4.30783e-07)
(-9.74987e-07 -5.55271e-08 -8.98535e-10 -2.49906e-06 1.9007e-09 -4.32503e-07)
(-2.7239e-06 -1.20441e-07 -3.95587e-10 -2.86173e-06 2.00552e-09 -4.30846e-07)
)
;

boundaryField
{
    interface
    {
        type            calculated;
        value           nonuniform List<symmTensor> 
192
(
(-4.66814e-06 2.29335e-12 1.78598e-11 1.3814e-06 2.20236e-07 -2.87293e-06)
(-4.3733e-06 2.07422e-12 2.88716e-11 -4.68099e-07 2.80924e-08 -2.91892e-06)
(-4.46405e-06 2.70305e-13 3.28195e-11 -5.63431e-07 -1.23074e-09 -2.98089e-06)
(-4.60252e-06 -2.56792e-12 3.3884e-11 -5.18128e-07 7.2762e-09 -3.05963e-06)
(-4.77143e-06 -5.04653e-12 3.35761e-11 -5.33785e-07 2.77836e-08 -3.16629e-06)
(-4.99375e-06 -9.42256e-12 3.27053e-11 -7.15185e-07 6.52218e-08 -3.31977e-06)
(-5.2838e-06 -1.27484e-11 3.01957e-11 -1.50143e-06 1.23572e-07 -3.56346e-06)
(-5.83119e-06 -2.85913e-11 2.82538e-11 -4.03673e-06 1.50592e-07 -4.03501e-06)
(-3.87755e-06 1.65139e-12 8.76026e-12 5.94806e-07 8.25792e-09 -5.35524e-07)
(-3.67729e-06 1.56967e-12 1.51792e-11 -3.12353e-07 3.4859e-08 -8.53596e-07)
(-3.72889e-06 -2.40774e-14 1.70512e-11 -4.14498e-07 3.06132e-08 -9.08659e-07)
(-3.83387e-06 -2.90956e-12 1.72206e-11 -4.40913e-07 3.41563e-08 -9.22636e-07)
(-3.98594e-06 -5.52488e-12 1.66133e-11 -4.76279e-07 6.1619e-08 -9.56326e-07)
(-4.21229e-06 -1.03467e-11 1.57056e-11 -5.97124e-07 1.06257e-07 -1.03984e-06)
(-4.55052e-06 -1.4028e-11 1.4086e-11 -1.21279e-06 1.4191e-07 -1.21947e-06)
(-5.28702e-06 -3.06524e-11 1.27986e-11 -3.56488e-06 1.24362e-07 -1.50249e-06)
(-3.39081e-06 1.41471e-12 6.87706e-12 2.78451e-07 8.25593e-08 -6.35017e-08)
(-3.30342e-06 1.32051e-12 1.17653e-11 -3.61267e-07 1.03714e-07 -2.34363e-07)
(-3.36158e-06 -2.34004e-13 1.31606e-11 -3.81062e-07 9.43704e-08 -3.2253e-07)
(-3.4604e-06 -3.2582e-12 1.32503e-11 -3.7635e-07 8.7958e-08 -3.62575e-07)
(-3.61143e-06 -6.11382e-12 1.27483e-11 -3.83895e-07 1.00271e-07 -4.06524e-07)
(-3.84837e-06 -1.14611e-11 1.20143e-11 -4.60338e-07 1.1841e-07 -4.86982e-07)
(-4.21638e-06 -1.56744e-11 1.0843e-11 -1.02668e-06 1.11658e-07 -6.10819e-07)
(-5.00231e-06 -3.34019e-11 9.86173e-12 -3.32209e-06 6.83477e-08 -7.14557e-07)
(-3.09933e-06 1.0662e-12 4.18171e-12 1.6309e-07 1.0712e-07 -8.01219e-09)
(-3.0507e-06 8.34098e-13 7.57055e-12 -4.11454e-07 1.29469e-07 -1.06387e-07)
(-3.11728e-06 -7.29249e-13 8.4925e-12 -3.90341e-07 1.258e-07 -2.03565e-07)
(-3.21773e-06 -3.78211e-12 8.46664e-12 -3.4257e-07 1.16212e-07 -2.76709e-07)
(-3.37116e-06 -6.74285e-12 8.0329e-12 -3.16669e-07 1.11676e-07 -3.43779e-07)
(-3.61454e-06 -1.2315e-11 7.45972e-12 -3.75936e-07 1.03212e-07 -4.20435e-07)
(-3.9955e-06 -1.67654e-11 6.7148e-12 -9.38734e-07 7.35893e-08 -4.95597e-07)
(-4.7901e-06 -3.47597e-11 6.12546e-12 -3.17393e-06 3.47311e-08 -5.20904e-07)
(-2.92806e-06 8.98434e-13 3.04871e-12 1.19343e-07 9.87808e-08 -1.456e-08)
(-2.88995e-06 5.29352e-13 5.52206e-12 -4.31439e-07 1.17961e-07 -9.15758e-08)
(-2.96125e-06 -1.09305e-12 6.20032e-12 -3.98837e-07 1.20667e-07 -1.84012e-07)
(-3.06485e-06 -4.20231e-12 6.17989e-12 -3.28637e-07 1.12845e-07 -2.69925e-07)
(-3.22138e-06 -7.27449e-12 5.85979e-12 -2.83905e-07 1.00186e-07 -3.46901e-07)
(-3.46849e-06 -1.30393e-11 5.43346e-12 -3.39078e-07 7.95826e-08 -4.15126e-07)
(-3.85373e-06 -1.77059e-11 4.91237e-12 -9.01186e-07 4.66154e-08 -4.62955e-07)
(-4.64333e-06 -3.5972e-11 4.48851e-12 -3.07966e-06 1.89268e-08 -4.6865e-07)
(-2.82812e-06 7.67821e-13 1.85345e-12 1.02264e-07 7.68285e-08 -2.37406e-08)
(-2.79319e-06 2.83829e-13 3.47464e-12 -4.34483e-07 8.98222e-08 -9.64784e-08)
(-2.86694e-06 -1.39328e-12 3.92316e-12 -4.00243e-07 9.40959e-08 -1.82328e-07)
(-2.97316e-06 -4.53693e-12 3.90012e-12 -3.23585e-07 8.88732e-08 -2.67584e-07)
(-3.13219e-06 -7.67132e-12 3.67869e-12 -2.72882e-07 7.60611e-08 -3.43733e-07)
(-3.38125e-06 -1.35331e-11 3.39107e-12 -3.27923e-07 5.57458e-08 -4.04355e-07)
(-3.76706e-06 -1.83122e-11 3.06936e-12 -8.85911e-07 2.93905e-08 -4.41071e-07)
(-4.54964e-06 -3.67134e-11 2.81833e-12 -3.02089e-06 1.10561e-08 -4.46309e-07)
(-2.77242e-06 7.03783e-13 1.08472e-12 9.59456e-08 4.82479e-08 -2.92345e-08)
(-2.73873e-06 1.41258e-13 2.03162e-12 -4.32221e-07 5.53706e-08 -1.01788e-07)
(-2.81375e-06 -1.58326e-12 2.29573e-12 -3.98557e-07 5.83818e-08 -1.8285e-07)
(-2.92165e-06 -4.7569e-12 2.28326e-12 -3.21894e-07 5.53888e-08 -2.63707e-07)
(-3.08225e-06 -7.93862e-12 2.15526e-12 -2.71006e-07 4.66699e-08 -3.35715e-07)
(-3.33217e-06 -1.38675e-11 1.98537e-12 -3.26662e-07 3.30227e-08 -3.91331e-07)
(-3.71745e-06 -1.87259e-11 1.80325e-12 -8.80128e-07 1.67275e-08 -4.24529e-07)
(-4.49472e-06 -3.72286e-11 1.65294e-12 -2.98696e-06 6.06067e-09 -4.32723e-07)
(-2.74738e-06 6.64235e-13 3.20095e-13 9.39962e-08 1.64099e-08 -3.16422e-08)
(-2.71419e-06 6.13197e-14 6.22327e-13 -4.30129e-07 1.86459e-08 -1.04459e-07)
(-2.78976e-06 -1.68434e-12 7.07802e-13 -3.97058e-07 1.96668e-08 -1.83106e-07)
(-2.89845e-06 -4.86751e-12 7.02534e-13 -3.21398e-07 1.86816e-08 -2.60896e-07)
(-3.05978e-06 -8.06832e-12 6.60697e-13 -2.71371e-07 1.56556e-08 -3.29994e-07)
(-3.31002e-06 -1.40217e-11 6.05135e-13 -3.27469e-07 1.09485e-08 -3.83204e-07)
(-3.69481e-06 -1.89164e-11 5.50791e-13 -8.78294e-07 5.49047e-09 -4.15536e-07)
(-4.46937e-06 -3.74611e-11 5.03548e-13 -2.97152e-06 1.95778e-09 -4.25648e-07)
(-2.80677e-06 1.94767e-07 -2.50404e-11 1.3814e-06 -5.97873e-12 -4.7948e-06)
(-2.89191e-06 -2.96404e-10 -4.25583e-11 -4.68099e-07 -7.16034e-12 -4.47655e-06)
(-2.95701e-06 -2.90972e-08 -4.95894e-11 -5.63431e-07 -6.05437e-12 -4.56839e-06)
(-3.01614e-06 -1.93025e-08 -5.21033e-11 -5.18128e-07 -4.44645e-12 -4.71611e-06)
(-3.10759e-06 -2.16167e-09 -5.28983e-11 -5.33785e-07 -3.74754e-12 -4.89158e-06)
(-3.26712e-06 3.07166e-08 -5.35494e-11 -7.15185e-07 -3.99252e-12 -5.11176e-06)
(-3.53551e-06 9.05583e-08 -5.44551e-11 -1.50143e-06 -4.87913e-12 -5.39338e-06)
(-4.01285e-06 1.21043e-07 -5.9751e-11 -4.03673e-06 -6.25004e-12 -5.93499e-06)
(-6.06759e-07 -4.10845e-08 -1.48936e-11 8.61728e-07 -3.5647e-12 -4.29076e-06)
(-1.03541e-06 -3.38926e-08 -2.8535e-11 -2.22668e-07 -5.40915e-12 -3.99184e-06)
(-1.08436e-06 -3.04191e-08 -3.35669e-11 -4.09785e-07 -4.71806e-12 -4.01607e-06)
(-1.04448e-06 -2.30336e-08 -3.51398e-11 -4.97169e-07 -2.93034e-12 -4.11919e-06)
(-1.0385e-06 -1.16072e-08 -3.56428e-11 -5.76074e-07 -1.73879e-12 -4.26912e-06)
(-1.13094e-06 9.06031e-09 -3.64524e-11 -7.25545e-07 -1.10324e-12 -4.47942e-06)
(-1.38008e-06 4.16872e-08 -3.84492e-11 -1.34593e-06 -1.22136e-12 -4.79278e-06)
(-1.72651e-06 5.81336e-08 -4.54488e-11 -3.69564e-06 -1.7465e-12 -5.52889e-06)
(-5.90524e-07 3.95111e-08 -1.48865e-11 8.44479e-07 -2.57852e-12 -4.22376e-06)
(-1.0137e-06 3.73251e-08 -2.88139e-11 -2.28793e-07 -4.33061e-12 -3.92699e-06)
(-1.06285e-06 3.42664e-08 -3.41567e-11 -4.13807e-07 -3.79787e-12 -3.9489e-06)
(-1.02305e-06 2.59056e-08 -3.58853e-11 -5.0059e-07 -1.87957e-12 -4.05012e-06)
(-1.01681e-06 1.33736e-08 -3.63697e-11 -5.79415e-07 -3.63489e-13 -4.19869e-06)
(-1.10908e-06 -8.8771e-09 -3.69765e-11 -7.28565e-07 8.66545e-13 -4.40772e-06)
(-1.35828e-06 -4.42689e-08 -3.85941e-11 -1.34387e-06 1.52653e-12 -4.71994e-06)
(-1.70362e-06 -5.68559e-08 -4.5298e-11 -3.65624e-06 1.60237e-12 -5.45743e-06)
(-2.62809e-06 -1.88075e-07 -1.64765e-11 1.31796e-06 -2.08978e-12 -4.60429e-06)
(-2.70543e-06 2.42406e-09 -3.29607e-11 -4.79951e-07 -3.67054e-12 -4.29419e-06)
(-2.76734e-06 3.05735e-08 -3.97253e-11 -5.72776e-07 -3.12522e-12 -4.37899e-06)
(-2.82297e-06 2.05543e-08 -4.20307e-11 -5.27396e-07 -1.0803e-12 -4.52122e-06)
(-2.91096e-06 3.01529e-09 -4.26507e-11 -5.42864e-07 5.72672e-13 -4.69287e-06)
(-3.06771e-06 -3.05975e-08 -4.34092e-11 -7.23329e-07 2.07747e-12 -4.90969e-06)
(-3.33451e-06 -9.14993e-08 -4.47081e-11 -1.49674e-06 3.18232e-12 -5.18868e-06)
(-3.80818e-06 -1.20083e-07 -5.17165e-11 -3.92842e-06 4.21542e-12 -5.73692e-06)
(-4.34325e-06 5.12604e-12 4.69557e-12 1.31796e-06 2.22242e-07 -2.77005e-06)
(-4.04377e-06 6.38387e-12 9.32026e-12 -4.79951e-07 3.11567e-08 -2.81873e-06)
(-4.12773e-06 4.37741e-12 1.08262e-11 -5.72776e-07 8.92368e-10 -2.8777e-06)
(-4.25904e-06 8.47098e-13 1.14963e-11 -5.27396e-07 8.58184e-09 -2.9539e-06)
(-4.42156e-06 -1.04466e-12 1.19542e-11 -5.42864e-07 2.85668e-08 -3.05866e-06)
(-4.63863e-06 -3.6638e-12 1.34388e-11 -7.23329e-07 6.56229e-08 -3.21048e-06)
(-4.9254e-06 -3.45757e-12 1.46312e-11 -1.49674e-06 1.23539e-07 -3.45291e-06)
(-5.46763e-06 -1.7709e-11 1.84042e-11 -3.92842e-06 1.50379e-07 -3.92763e-06)
(-3.55522e-06 2.06135e-12 -1.88625e-12 5.39596e-07 1.88399e-08 -5.28858e-07)
(-3.35708e-06 2.81766e-12 -1.58075e-12 -3.29413e-07 4.143e-08 -8.46003e-07)
(-3.40303e-06 1.80347e-12 -2.01586e-12 -4.263e-07 3.51115e-08 -9.02361e-07)
(-3.50056e-06 -2.90386e-13 -2.09526e-12 -4.50904e-07 3.7252e-08 -9.17156e-07)
(-3.64475e-06 -8.91643e-13 -1.72507e-12 -4.85573e-07 6.36142e-08 -9.51179e-07)
(-3.86329e-06 -2.46076e-12 -2.56688e-13 -6.05468e-07 1.07329e-07 -1.03485e-06)
(-4.1954e-06 -7.68939e-13 1.58388e-12 -1.20842e-06 1.4214e-07 -1.21454e-06)
(-4.9262e-06 -1.40816e-11 4.50212e-12 -3.45291e-06 1.24283e-07 -1.49735e-06)
(-3.07904e-06 1.1374e-12 -9.22078e-13 2.27998e-07 8.96358e-08 -6.54667e-08)
(-2.99254e-06 1.43155e-12 -1.38143e-14 -3.78821e-07 1.09313e-07 -2.3767e-07)
(-3.04485e-06 8.50256e-13 3.19719e-13 -3.94155e-07 9.8754e-08 -3.27238e-07)
(-3.13591e-06 -5.01615e-13 6.60501e-13 -3.87405e-07 9.12959e-08 -3.68419e-07)
(-3.27811e-06 -3.36769e-13 1.18269e-12 -3.93957e-07 1.02639e-07 -4.13038e-07)
(-3.50526e-06 -1.31345e-12 2.36408e-12 -4.69247e-07 1.19886e-07 -4.93805e-07)