/*--------------------------------*- C++ -*----------------------------------*\
| =========                 |                                                 |
| \\      /  F ield         | OpenFOAM: The Open Source CFD Toolbox           |
|  \\    /   O peration     | Version:  v1912                                 |
|   \\  /    A nd           | Website:  www.openfoam.com                      |
|    \\/     M anipulation  |                                                 |
\*---------------------------------------------------------------------------*/
FoamFile
{
    version     2.0;
    format      ascii;
    class       volSymmTensorField;
    location    "0.72/solid";
    object      sigma;
}
// * * * * * * * * * * * * * * * * * * * * * * * * * * * * * * * * * * * * * //

dimensions      [1 -1 -2 0 0 0 0];


internalField   nonuniform List<symmTensor> 
256
(
(-158386 29964.1 -11206.3 485947 33882.4 -168564)
(85956.7 -6320.7 -4737.67 311878 33542.3 -211569)
(87878 6078.64 4510.9 308648 33618.1 -206519)
(-130825 -28934.6 11073.8 476260 34191.1 -152666)
(-188220 -45.6006 -17140.2 184674 4321.9 -192375)
(-20996.1 -5214.24 -7839.65 104041 5911.77 -254600)
(-17499.9 5742.33 7636.39 103256 6067.4 -248896)
(-157867 372.932 16984.1 184514 4793.34 -175297)
(-189361 -4476.5 -18468.9 178883 -189.345 -193034)
(-35830.8 -4679.87 -8616.58 67949.8 104.323 -264123)
(-32340.1 5271.76 8479.94 67513 209.155 -258250)
(-158711 4703.61 18328.7 178915 137.287 -175688)
(-186376 -2969.61 -19179.3 197933 1119.41 -193067)
(-27579.2 -3543.63 -8987.22 56622.2 713.541 -269330)
(-24113.5 3985.48 8880.02 56264.4 773.693 -263338)
(-155292 3162.19 19050.3 197873 1320.28 -175435)
(-191556 -332.565 -19932.2 204414 4274.4 -200587)
(-25263.4 -1785.73 -9401.5 45878.9 3676.14 -281224)
(-21755.8 2057.48 9298.57 45535 3710.16 -275124)
(-159914 463.891 19809.9 204409 4394.9 -182636)
(-211720 4725.63 -20590.3 180886 10034.1 -219820)
(-43180.1 1393.89 -9796.33 19187.7 9669.91 -306812)
(-39633.1 -1365.71 9687.29 18908.2 9685.7 -300597)
(-179517 -4707.31 20475.5 181157 10095.8 -201481)
(-243902 13932 -20410.2 69034.2 19011 -248202)
(-79265.6 6413.41 -9747.17 -74011.2 19846.8 -344691)
(-75624.1 -6810.59 9626.8 -73408.2 19839.5 -338287)
(-211054 -14076.8 20302.5 71678.2 19006.1 -229270)
(-166378 18622 -18565 -170051 23167.9 -169786)
(44642.8 8943.63 -8892.83 -258301 25179.1 -257897)
(48155.7 -8747.06 8751.07 -252247 25161.6 -251879)
(-133618 -18474.2 18453.3 -152116 23135.3 -151994)
(-203157 18001.4 -8616.92 239225 1270.45 65328.1)
(-33587.5 -9355.62 -2732.68 54751.7 15056.9 -39365.6)
(-31788.6 9512.83 3043.76 51890.3 15614.1 -39587.4)
(-176039 -16849.1 8734.18 230612 2898.44 66234.4)
(-238793 -2142.56 -13272.1 74225.8 5362.93 -9042.48)
(-133562 -5779.2 -5493.21 -42140.4 12577.6 -134575)
(-129990 6268.79 5958.95 -42975.5 12912.2 -133672)
(-208714 2407.51 13426.2 73893.2 6373.85 -5582.2)
(-245607 -4684.58 -13935.9 56797.8 4709.72 -19227)
(-157577 -4602.07 -5984.19 -89640 6987.47 -161273)
(-153925 4955.45 6530.6 -89807.5 7208.96 -160276)
(-215084 4789.1 14108.6 57377.3 5401.77 -15863)
(-247567 -3133.04 -14142.3 56603.8 5254.82 -17507.4)
(-158762 -3474.25 -6020.36 -119288 5590.05 -170036)
(-155103 3668.31 6617.45 -119223 5739.09 -169056)
(-216528 3217.02 14332.5 57428.8 5731.08 -14302.3)
(-257057 -591.758 -14524 53796.8 9479.85 -20056.6)
(-164249 -1851.36 -6233.61 -140823 9208 -180976)
(-160533 1921.58 6848.85 -140715 9303.37 -180013)
(-225361 645.165 14727.1 54723.7 9786.8 -16908.1)
(-283073 4647.07 -14861 33564.2 16347.2 -34546.2)
(-190132 1292.96 -6505.68 -166266 15950.3 -204927)
(-186367 -1412.78 7114.47 -166122 16001.3 -203980)
(-250672 -4677.99 15073.8 34683.1 16512.2 -31375.2)
(-324506 14733.7 -14674.4 -57158.1 21832.3 -58185.2)
(-233753 6583.33 -6508.07 -236978 21809.6 -237456)
(-229894 -7077.81 7089.37 -236008 21817.7 -236447)
(-291319 -14908.1 14891.8 -53801.1 21867.7 -54743.6)
(-244219 20443.9 -13839.1 -248453 19132.6 68837.8)
(-79171.4 9774.48 -6295.79 -344989 19946.1 -73555.4)
(-75494.1 -9620.76 6838.32 -338502 19937.6 -72893.8)
(-211118 -20312.6 14051.2 -229252 19120.4 71603.5)
(-181044 9908.64 -3532.24 162519 12701.4 109911)
(-33952.3 -12851 -414.818 -4855.93 25809.6 -3009.47)
(-32141.7 12858.7 594.496 -7418.42 26163.2 -3674.96)
(-154609 -8857.01 3572.95 154841 13790.1 109693)
(-199408 -3283.3 -5257.35 58087.5 15956.1 77611.2)
(-98211 -6486.03 -1391.36 -56570.7 22619.3 -63592.9)
(-94779.4 6892.47 1654.57 -57479.2 22898.6 -63409.8)
(-170310 3512.51 5329.08 57501.3 16817.4 79216.7)
(-203743 -4488.38 -5178.34 55450.9 14518.5 64455.8)
(-115613 -4480.63 -1442.7 -86680.9 16670.6 -94430.6)
(-112112 4743.35 1722.73 -86974.8 16889.1 -94159.6)
(-174210 4554.91 5259.44 55631.8 15192.9 65926.7)
(-205929 -3058.24 -4948.9 59308.2 13532 61427.5)
(-116762 -3412.57 -1261.52 -109132 13883.3 -108804)
(-113247 3507.51 1553.05 -109174 14049.6 -108560)
(-175854 3103.33 5036.24 59773.5 14045.5 62694.4)
(-215326 -644.179 -4886.01 60750.7 15426.3 57269.2)
(-122266 -1951.02 -1223.26 -125337 15233.9 -122579)
(-118679 1929.15 1519.34 -125315 15352.7 -122368)
(-184515 666.79 4979.04 61356.8 15790.6 58421.2)
(-240977 4699.96 -4856 48658.9 18216.9 44559.9)
(-147059 1190.22 -1287.01 -142364 17868.7 -145809)
(-143393 -1386.7 1575 -142292 17943.9 -145622)
(-209296 -4750.19 4953.82 49474 18443.9 45695.9)
(-283169 14921.1 -4786.82 -32450.9 17178.2 31527.2)
(-189356 6564.41 -1374.95 -203216 16751.1 -167485)
(-185554 -7118.34 1635.32 -202303 16786.3 -167236)
(-250456 -15105 4885.84 -29366.2 17284.7 32919.5)
(-212047 20622.5 -4811.84 -219914 10515 181245)
(-42165.2 9811.43 -1431.54 -306820 10131 20441.4)
(-38546.6 -9679.52 1637.72 -300464 10139.3 20288.7)
(-179279 -20491 4901.06 -201147 10544.9 181828)
(-165083 6614.96 -933.434 132461 16480 106138)
(-29640.7 -13978.8 620.033 -21368.9 24420.8 -2796.83)
(-27849.8 13795 -493.25 -23744.3 24653.6 -3373.22)
(-139205 -5692.38 950.719 125459 17229 106188)
(-175095 -3498.83 -1169.91 46356.5 19918.4 93289.8)
(-77396.5 -6606.53 742.739 -63303 23909.6 -45669.1)
(-74041 6893.68 -555.92 -64129.4 24117.5 -45463.7)
(-146697 3680.21 1206.18 45929.8 20571.6 94939.2)
(-177674 -4091.65 -834.623 52308.2 19353.8 81042.8)
(-90072 -4243.37 936.105 -82955.8 20565.8 -74970.2)
(-86645.7 4437.3 -756.609 -83238.2 20745.1 -74677.7)
(-148851 4135.25 873.516 52463.7 19907.2 82547.8)
(-179912 -2772.26 -499.963 63251.1 17878.7 73383.5)
(-90679.3 -3234.21 1161.19 -96067 17940.1 -93514.7)
(-87232 3281.89 -994.256 -96123.2 18088 -93238)
(-150530 2801.39 537.225 63626.7 18331.4 74701.8)
(-189363 -496.327 -293.157 70326 17180.8 66155.2)
(-96152.3 -1911.69 1282.01 -105601 16935.6 -110357)
(-92620.6 1851.17 -1123.71 -105592 17050 -110110)
(-159183 507.724 329.796 70839.5 17527.3 67358.6)
(-214687 4730.46 -192.862 62031.9 15878.8 55185.9)
(-120236 1103.59 1281.26 -118739 15611.5 -131953)
(-116604 -1333.71 -1134.44 -118667 15691.5 -131729)
(-183519 -4786.22 229.719 62776.9 16117.5 56364.6)
(-256326 14616.2 -265.289 -16809.2 11321.4 51365.6)
(-161023 6274.29 1139.36 -178292 10971.2 -144380)
(-157224 -6857.15 -1019.94 -177368 11016.6 -144095)
(-223935 -14800 299.399 -13764.3 11456.5 52779.2)
(-190639 20012 -483.198 -200148 5343.25 208010)
(-20888 9422.47 1070.94 -280654 4783.98 48322.5)
(-17263.1 -9303.93 -1010.66 -274342 4796.86 48177.4)
(-158042 -19877.8 502.042 -181566 5385.11 208519)
(-156442 5643.22 -137.281 118716 15197 98115.5)
(-28545.3 -13828.1 684.498 -27119.3 19158.3 -5007.98)
(-26783.9 13515.7 -588.907 -29371.3 19320.9 -5504.73)
(-130944 -4815.17 151.605 112208 15724.8 98418)
(-163957 -3323.68 52.2789 38435.8 18147.9 90722.4)
(-70622.2 -6388.45 1090.01 -66853.4 20049.2 -40520.6)
(-67334.3 6577.54 -942.188 -67604.7 20200.5 -40246.3)
(-136027 3463.26 -22.7428 38202.1 18626.5 92563.6)
(-166014 -3730.69 365.748 47239 18564.1 80288.9)
(-81399.1 -4006.86 1315.35 -82422.6 19022.9 -66773.8)
(-78038.3 4140.42 -1175.82 -82675.7 19158.4 -66416.5)
(-137665 3753.81 -335.79 47463.8 18985.1 81969.6)
(-168426 -2496.36 633.007 62153.1 17360.8 71185.6)
(-81866.4 -3064.09 1487.99 -90227.6 17228.9 -86074.2)
(-78478.6 3077.55 -1367.28 -90280.7 17345.8 -85728.5)
(-139501 2514.57 -607.62 62533 17720 72685.2)
(-178032 -340.859 810.127 72611.9 15413.2 62920.2)
(-87460.3 -1846.48 1585.19 -95698.1 15182.6 -103618)
(-83980.6 1764.6 -1479.72 -95693 15277.7 -103299)
(-148268 346.676 -788.667 73107.2 15702.1 64306.6)
(-203149 4704.62 874.738 65705 12243.5 54005.3)
(-111174 1021.06 1582.19 -107490 12102.1 -123046)
(-107581 -1267.71 -1491.38 -107420 12172.4 -122748)
(-172320 -4762.02 -856.139 66437.5 12454.8 55360.1)
(-244111 14239.2 762.228 -12071.3 7171.6 55349)
(-150933 5974.15 1455 -167017 7032 -130510)
(-147153 -6572.1 -1390.2 -166086 7074.55 -130152)
(-211941 -14421.7 -749.103 -9025.91 7300.24 56919.3)
(-181400 19393.9 564.375 -190546 2911.81 211147)
(-15721.8 9048.63 1407.58 -267340 2551.29 59244.2)
(-12104.2 -8939.5 -1396.38 -261043 2563.88 59162.9)
(-148917 -19258.8 -568.189 -172033 2952.49 211759)
(-151480 5436.83 2.39601 112263 11819.8 92877.4)
(-28623.7 -13423.1 448.452 -29406.9 13641.9 -6278.78)
(-26882.8 13032.5 -381.026 -31573.6 13751.2 -6728.51)
(-126206 -4668.68 9.88877 106105 12171.1 93348.9)
(-158468 -3102.92 190.386 34556.8 13818.8 86557.5)
(-68946.5 -6143.52 763.57 -68006.3 14607.8 -38677.9)
(-65706.4 6266.95 -654.439 -68705.7 14711.6 -38357.8)
(-130819 3213.87 -165.152 34477.1 14145.8 88551.6)
(-160523 -3481.75 400.134 44052.5 14476.3 77577.9)
(-79204.6 -3839.65 923.393 -82096.1 14570.1 -62475.2)
(-75891.4 3927.04 -818.454 -82326.7 14664.5 -62075.2)
(-132459 3488.66 -374.357 44349.9 14770.7 79401.4)
(-163112 -2311.49 567.496 60340.4 13672.8 68955.9)
(-79754 -2956.27 1026.78 -87795.6 13505.6 -80820.6)
(-76409.9 2941.7 -937.815 -87844.8 13588.8 -80432.5)
(-134454 2320.51 -546.105 60746.4 13930.5 70595.2)
(-172821 -242.47 676.429 72106.4 11701.7 61206.2)
(-85460 -1807.66 1080.28 -91583.6 11541.7 -97629.1)
(-82019.5 1709.3 -1006.39 -91583 11611.4 -97267.1)
(-143297 243.741 -659.559 72604.4 11915.2 62728.6)
(-197761 4662.51 705.219 65698.3 8576.27 53939.6)
(-108932 957.215 1070.52 -102940 8535 -115372)
(-105371 -1215.04 -1010.94 -102874 8588.21 -115031)
(-167125 -4721.33 -692.205 66429.9 8738.07 55423.4)
(-238185 13965.4 615.849 -10973.1 4521.62 57463.8)
(-148039 5774.75 986.307 -162059 4526.45 -120863)
(-144279 -6382.35 -948.433 -161130 4559.63 -120461)
(-206140 -14147.6 -608.712 -7925.29 4623.87 59148.7)
(-177126 18983.1 474.616 -185353 1700.93 210736)
(-15798.2 8811.34 952.752 -260072 1537.79 65218.7)
(-12190.9 -8708.93 -957.06 -253783 1547.91 65177.8)
(-144699 -18848.5 -482.258 -166869 1733.96 211430)
(-148581 5403.03 1.46804 109381 7422.75 90122.4)
(-28796.5 -13132.3 225.436 -30262.9 8210.24 -6967.61)
(-27066.5 12697.6 -185.253 -32374.8 8273.37 -7390.24)
(-123429 -4669.4 6.77601 103447 7623.36 90698.5)
(-155510 -2957.99 99.9897 33037.7 8518.55 83873.5)
(-68590.1 -5986.92 389.965 -68141.6 8816.26 -38118.4)
(-65377.6 6071.81 -322.891 -68807.5 8876.9 -37771.1)
(-128015 3052.15 -82.8628 33064.4 8708.61 85970.2)
(-157663 -3340.24 209.409 42627.1 8981.82 75812.9)
(-78778.2 -3746.74 473.611 -81683.2 8967.36 -60433.7)
(-75492.7 3804.34 -407.763 -81898.5 9023.13 -60007.9)
(-129755 3336.59 -191.528 42980.6 9155.69 77736.5)
(-160371 -2210.28 295.242 59150.5 8521.36 68102.4)
(-79438.3 -2902.41 523.85 -86768.9 8405.12 -77632.8)
(-76119.8 2867.78 -467.958 -86814.5 8454.86 -77220.2)
(-131859 2212.53 -280.217 59582.4 8675.94 69837.3)
(-170122 -192.785 349.28 71201.6 7179.98 61246.4)
(-85205.1 -1792.25 546.961 -90083.7 7095.03 -93465.8)
(-81787.6 1681.33 -501.532 -90085.5 7137.31 -93079.9)
(-140726 190.303 -337.566 71708.7 7310.34 62859.3)
(-194928 4630.6 359.866 64973.6 5080.41 55024.6)
(-108519 918.559 538.427 -101300 5083.97 -110180)
(-104977 -1184.68 -503.178 -101238 5116.79 -109816)
(-164394 -4690.97 -351.195 65708.5 5181.18 56592.6)
(-235005 13808.2 308.522 -10788.5 2573.47 59303.6)
(-147242 5669.57 494.439 -159880 2620.46 -115035)
(-143492 -6283.79 -473.592 -158953 2641.26 -114610)
(-203022 -13990.9 -304.162 -7737.14 2638.48 61063)
(-174826 18758.5 224.993 -182392 932.412 210568)
(-16597.5 8688.34 472.533 -256031 877.935 68547.4)
(-12996.1 -8590.42 -478.608 -249745 884.399 68529.1)
(-142423 -18624.7 -230.536 -163919 953.734 211318)
(-147207 5394.33 -1.99317 108305 2524.61 88975.6)
(-28862.7 -12999.3 66.4039 -30510 2747.2 -7284.39)
(-27137.3 12544.7 -53.05 -32595 2767.84 -7694.29)
(-122110 -4676.45 4.86585 102479 2589.79 89602.1)
(-154140 -2894.47 25.678 32579.5 2868.6 82682.5)
(-68494.5 -5918.68 114.53 -68049.6 2945.06 -38014.9)
(-65294.3 5985.98 -91.8968 -68698.7 2965 -37654.7)
(-126712 2981 -19.6541 32660.6 2930.88 84830.5)
(-156353 -3279.25 58.4203 42148.9 3025.66 75064.6)
(-78694.8 -3708.21 139.317 -81408 3012.15 -59662.4)
(-75421.6 3751.49 -116.831 -81615.4 3030.59 -59224.1)
(-128513 3270.52 -52.0461 42532.7 3083.12 77039.5)
(-159115 -2167.44 84.2513 58628.6 2874.1 67936.5)
(-79417.5 -2881.66 153.839 -86376.3 2834.33 -76194.2)
(-76110.4 2836.68 -134.673 -86419.7 2850.88 -75769.9)
(-130668 2166.15 -78.8416 59075.7 2925.6 69720.5)
(-168878 -172.94 100.198 70671.9 2408.55 61653.1)
(-85207.2 -1787.8 159.981 -89620.7 2382.97 -91436.4)
(-81799.9 1670 -144.501 -89623.4 2397.12 -91039.5)
(-139538 168.312 -95.9775 71185.5 2452.34 63311.9)
(-193614 4615.06 102.803 64499.3 1684.38 55924.6)
(-108443 901.46 156.853 -100797 1690.47 -107675)
(-104908 -1172.19 -145.027 -100738 1701.54 -107300)
(-163122 -4676.46 -99.7139 65237.2 1718.53 57534.7)
(-233523 13739.5 86.5484 -10775 844.688 60418.5)
(-146985 5626.74 143.564 -159041 867.41 -112361)
(-143241 -6244.47 -136.777 -158116 874.475 -111925)
(-201565 -13922.5 -85.0205 -7721.16 866.926 62215.1)
(-173728 18662.6 58.9219 -181004 301.197 210668)
(-17027.6 8638.24 135.774 -254186 290.204 70038.5)
(-13428.6 -8542.63 -138.236 -247902 292.416 70030.5)
(-141331 -18529.4 -60.8595 -162535 308.542 211447)
)
;

boundaryField
{
    interface
    {
        type            calculated;
        value           nonuniform List<symmTensor> 
192
(
(-41.3378 0.352823 2.74767 930656 33882.4 276145)
(-43.0665 0.319111 4.44178 600757 4321.9 223708)
(-44.6605 0.0415853 5.04916 600051 -189.345 228134)
(-45.6818 -0.395064 5.21293 628323 1119.41 237323)
(-45.998 -0.776389 5.16555 651899 4274.4 246898)
(-46.9143 -1.44962 5.03159 658194 10034.1 257488)
(-45.3508 -1.9613 4.6455 581858 19011 264622)
(-48.9299 -4.39867 4.34674 276022 23167.9 276287)
(-40.2819 0.25406 1.34773 688014 1270.45 514117)
(-41.0703 0.241488 2.33526 517642 5362.93 434374)
(-42.0332 -0.00370422 2.62326 509864 4709.72 433839)
(-42.7188 -0.447625 2.64932 521951 5254.82 447840)
(-42.777 -0.849982 2.5559 539905 9479.85 466051)
(-43.5792 -1.59179 2.41624 556136 16347.2 488025)
(-41.7324 -2.15815 2.16708 513455 21832.3 512428)
(-45.4074 -4.71575 1.96901 264899 19132.6 582190)
(-42.8465 0.217647 1.05801 564459 12701.4 511851)
(-43.5386 0.203156 1.81005 452596 15956.1 472120)
(-44.4873 -0.0360006 2.02471 458497 14518.5 467502)
(-45.1857 -0.501262 2.03851 474423 13532 476543)
(-45.1643 -0.940587 1.96128 496499 15426.3 493017)
(-45.8844 -1.76324 1.84835 521190 18216.9 517091)
(-43.5945 -2.41145 1.66815 490681 17178.2 554659)
(-47.031 -5.13876 1.51719 258448 10515 659607)
(-43.0636 0.164031 0.64334 501868 16480 475544)
(-43.5702 0.128323 1.1647 405994 19918.4 452927)
(-44.3193 -0.112192 1.30654 419485 19353.8 448220)
(-44.9031 -0.581863 1.30256 442287 17878.7 452420)
(-44.7624 -1.03736 1.23583 469877 17180.8 465707)
(-45.4038 -1.89461 1.14765 498202 15878.8 491356)
(-42.9547 -2.57929 1.03305 470229 11321.4 538404)
(-46.3204 -5.34765 0.942378 248596 5343.25 656753)
(-43.844 0.138221 0.469032 468788 15197 448187)
(-44.297 0.0814388 0.849548 378189 18147.9 430475)
(-44.9565 -0.168162 0.953896 394173 18564.1 427223)
(-45.4891 -0.64651 0.950753 420911 17360.8 429943)
(-45.272 -1.11915 0.901506 451875 15413.2 442183)
(-45.8381 -2.00604 0.835917 481403 12243.5 469703)
(-43.2169 -2.72398 0.755749 454194 7171.6 521614)
(-46.4389 -5.53415 0.69054 240519 2911.81 642212)
(-44.0537 0.118126 0.285146 450784 11819.8 431398)
(-44.458 0.0436661 0.534559 362834 13818.8 414835)
(-45.04 -0.21435 0.603564 379448 14476.3 412973)
(-45.5223 -0.69799 0.600018 407582 13672.8 416197)
(-45.2487 -1.1802 0.565952 439848 11701.7 428948)
(-45.7679 -2.08201 0.521703 469696 8576.27 457938)
(-43.065 -2.81726 0.472209 443210 4521.62 511647)
(-46.2299 -5.64821 0.433589 235146 1700.93 631235)
(-44.3108 0.108274 0.16688 441242 7422.75 421984)
(-44.6977 0.021732 0.312557 354803 8518.55 405639)
(-45.2389 -0.243579 0.35319 371523 8981.82 404709)
(-45.6936 -0.731831 0.351271 399916 8521.36 408868)
(-45.3844 -1.22133 0.331579 432453 7179.98 422498)
(-45.8684 -2.13346 0.305442 462341 5080.41 452392)
(-43.1017 -2.88091 0.277423 436468 2573.47 506560)
(-46.2132 -5.72747 0.254298 231917 932.412 624876)
(-44.3748 0.10219 0.0492454 437090 2524.61 417761)
(-44.7495 0.00943381 0.0957426 351349 2868.6 401452)
(-45.268 -0.259129 0.108893 368063 3025.66 400978)
(-45.7071 -0.748848 0.108082 396424 2874.1 405731)
(-45.3824 -1.24128 0.101646 428940 2408.55 419921)
(-45.8498 -2.15719 0.0930976 458807 1684.38 450233)
(-43.0636 -2.91022 0.084737 433267 844.688 504460)
(-46.1481 -5.76325 0.0774689 230393 301.197 622065)
(305837 29964.1 -3.85237 950170 -0.919805 -14.9891)
(243779 -45.6006 -6.54744 616673 -1.10159 -10.8364)
(247897 -4476.5 -7.62913 616141 -0.931441 -6.91227)
(261528 -2969.61 -8.01589 645838 -0.68407 -5.34848)
(274455 -332.565 -8.13819 670425 -0.576544 -5.02321)
(283784 4725.63 -8.23836 676390 -0.614234 -5.71329)
(285818 13932 -8.3777 598755 -0.750635 -7.61478)
(295704 18622 -9.19246 292031 -0.961544 -9.22106)
(566751 -6320.7 -2.29133 792672 -0.548415 -19.0282)
(454817 -5214.24 -4.39 579855 -0.832178 -18.0999)
(451016 -4679.87 -5.16413 554797 -0.725856 -16.7706)
(473016 -3543.63 -5.40612 557217 -0.450821 -16.3176)
(497003 -1785.73 -5.4835 568145 -0.267506 -16.2149)
(515135 1393.89 -5.60807 577503 -0.169729 -16.499)
(525013 6413.41 -5.91526 530267 -0.187902 -17.1221)
(584963 8943.63 -6.99212 282020 -0.268693 -17.496)
(558944 6078.64 -2.29022 779714 -0.396695 -16.1947)
(448182 5742.33 -4.4329 568938 -0.666248 -15.4891)
(443993 5271.76 -5.25488 543846 -0.584287 -14.2465)
(465690 3985.48 -5.52081 546067 -0.289164 -13.7835)
(489507 2057.48 -5.59533 556798 -0.0559214 -13.7005)
(507468 -1365.71 -5.68869 566009 0.133315 -13.9759)
(517163 -6810.59 -5.93755 519379 0.234851 -14.6689)
(577493 -8747.06 -6.96892 277090 0.246518 -15.4813)
(304015 -28934.6 -2.53484 911100 -0.321504 -16.5239)
(244408 372.932 -5.07088 586790 -0.564698 -16.1123)
(247930 4703.61 -6.11158 585556 -0.480804 -15.0382)
(261255 3162.19 -6.46626 614420 -0.1662 -14.6952)
(274125 463.891 -6.56164 638448 0.0881034 -14.7089)
(283367 -4707.31 -6.67834 644041 0.319611 -14.9583)
(285243 -14076.8 -6.87817 567975 0.489588 -15.4674)
(296712 -18474.2 -7.95639 278214 0.648526 -16.1121)
(-8.10458 0.788621 0.722396 870948 34191.1 242022)
(-5.34627 0.982134 1.43389 548274 4793.34 188462)
(-2.62388 0.673448 1.66557 546913 137.287 192310)
(-1.27615 0.130323 1.76866 574098 1320.28 200791)
(-0.841895 -0.160717 1.83911 596722 4394.9 209677)
(0.549734 -0.563661 2.06751 602355 10095.8 219717)
(-0.0734323 -0.531934 2.25096 527485 19006.1 226537)
(8.50235 -2.72446 2.83142 236810 23135.3 236932)
(-12.4314 0.317131 -0.290192 629959 2898.44 465582)
(-11.8822 0.433485 -0.243193 465782 6373.85 386307)
(-11.0516 0.277456 -0.310132 457948 5401.77 384708)
(-10.4724 -0.0446747 -0.322348 469168 5731.08 397437)
(-10.2954 -0.137176 -0.265396 486017 9786.8 414385)
(-8.76556 -0.378579 -0.0394905 501195 16512.2 435137)
(-8.84804 -0.118298 0.243674 459527 21867.7 458585)
(-0.0346973 -2.16641 0.692634 226659 19120.4 527515)
(-12.7108 0.174984 -0.141858 508762 13790.1 463614)
(-12.3167 0.220239 -0.00212527 402098 16817.4 423813)
(-11.6724 0.130809 0.0491875 407788 15192.9 418083)
(-11.0452 -0.0771715 0.101615 422836 14045.5 425757)
(-10.7711 -0.0518106 0.181953 443705 15790.6 440770)
(-8.87243 -0.202069 0.363704 467071 18443.9 463293)
(-8.63389 0.171724 0.553467 437168 17284.7 499454)
(0.79153 -1.97826 0.804791 220144 10544.9 603119)
(-14.0992 0.0797993 -0.167802 447997 17229 428726)
(-13.9322 0.0743163 -0.0459506 356906 20571.6 405915)
(-13.6004 0.0305565 0.0208364 370007 19907.2 400091)
(-13.0408 -0.084099 0.07793 391841 18331.4 402916)
(-12.7291 0.0411337 0.146447 418118 17527.3 414637)
(-10.5715 -0.0256837 0.277842 444934 16117.5 438521)
(-9.98836 0.425351 0.403889 417263 11456.5 483806)
(-0.232636 -1.7445 0.5546 210372 5385.11 600457)
(-14.3837 0.0637404 -0.0515403 416193 15724.8 402403)
(-14.2112 0.0409458 0.089266 330133 18626.5 384495)
(-13.907 0.0170878 0.177692 345613 18985.1 380119)
(-13.296 -0.0562674 0.238039 371289 17720 381442)
(-12.9072 0.117673 0.292248 400845 15702.1 392044)
(-10.5863 0.086467 0.373941 428738 12454.8 417661)
(-9.86739 0.558637 0.436149 401636 7300.24 467582)
(0.0656649 -1.66547 0.502953 202413 2952.49 586204)
(-14.8198 0.0581577 -0.0349581 399012 12171.1 386256)
(-14.6539 0.0301241 0.0708698 315441 14145.8 369515)
(-14.3714 0.0193068 0.141967 331471 14770.7 366523)
(-13.7286 -0.0289791 0.187295 358470 13930.5 368319)
(-13.29 0.176089 0.224567 389255 11915.2 379379)
(-10.858 0.167523 0.275194 417382 8738.07 406375)
(-10.0346 0.649138 0.309921 390884 4623.87 457958)
(0.0296 -1.60507 0.345154 197098 1733.96 575397)
(-14.9406 0.0611398 -0.00401029 389960 7623.36 377211)
(-14.7597 0.0333571 0.0659231 307802 8708.61 360707)
(-14.4653 0.0290305 0.112493 323888 9155.69 358644)
(-13.789 -0.008854 0.140806 351099 8675.94 361354)
(-13.3157 0.210324 0.162373 382106 7310.34 373257)
(-10.8228 0.210365 0.188596 410218 5181.18 401103)
(-9.95617 0.693687 0.204259 384265 2638.48 453065)
(0.179694 -1.58438 0.217645 193894 953.734 569132)
(-15.0483 0.0616423 -0.00518727 386035 2589.79 373157)
(-14.8654 0.0345783 0.0169147 304529 2930.88 356699)
(-14.5678 0.0338133 0.0323431 320585 3083.12 355092)
(-13.8781 0.00116458 0.0416666 347741 2925.6 358386)
(-13.3863 0.227101 0.0489226 378704 2452.34 370831)
(-10.8636 0.231765 0.0574919 406770 1718.53 399068)
(-9.96706 0.715985 0.0631283 381115 866.926 451052)
(0.201137 -1.57214 0.0674865 192377 308.542 566359)
(296313 9.27755 -18565 -8.67904 -0.827101 292904)
(286442 8.49534 -13839.1 -6.80079 -0.612801 599499)
(284802 8.4114 -4811.84 -4.32186 -0.419261 678094)
(277185 8.39867 -483.198 -2.78731 -0.274162 675834)
(268566 8.45847 564.375 -1.59589 -0.195375 661113)
(261831 8.49652 474.616 -0.760975 -0.120817 649693)
(257601 8.53185 224.993 -0.231015 -0.0724183 642995)
(255628 8.54707 58.9219 0.0235193 -0.021962 640023)
(585556 7.04539 -8892.83 -17.0603 -0.106877 283016)
(525942 5.97182 -6295.79 -16.5553 -0.0182175 531558)
(517263 5.67315 -1431.54 -15.5792 0.0702212 579870)
(502857 5.56159 1070.94 -14.8768 0.0883944 572068)
(486800 5.53813 1407.58 -14.2733 0.0806478 561766)
(473991 5.5233 952.752 -13.8351 0.0640439 555008)
(465798 5.52362 472.533 -13.5472 0.0389776 550943)
(461934 5.52254 135.774 -13.3969 0.0142432 549000)
(578001 7.02045 8751.07 -15.0705 0.424123 277966)
(517969 5.97871 6838.32 -14.1237 0.423459 520570)
(509407 5.73035 1637.72 -13.0843 0.39517 568242)
(495088 5.65431 -1010.66 -12.3925 0.322632 560528)
(479052 5.64982 -1396.38 -11.7784 0.253624 550319)
(466244 5.64602 -957.06 -11.3712 0.178151 543613)
(458049 5.65173 -478.608 -11.0896 0.10623 539574)
(454184 5.6524 -138.236 -10.9604 0.0350449 537643)
(297030 7.97641 18453.3 -15.7481 0.828998 278653)
(285618 6.88493 14051.2 -15.0065 0.682147 568339)
(284163 6.67992 4901.06 -14.2462 0.578263 645270)
(276644 6.58632 502.042 -13.7126 0.454393 643204)
(268009 6.58665 -568.189 -13.1892 0.35348 628685)
(261257 6.58074 -482.258 -12.8662 0.244296 617386)
(257017 6.58862 -230.536 -12.6284 0.146714 610758)
(255041 6.58995 -60.8595 -12.5209 0.0478813 607819)
)
;
    }
    symmetry
    {
        type            symmetry;
    }
    bottom
    {
        type            calculated;
        value           nonuniform List<symmTensor> 
32
(
(-729137 86963.2 -11206.3 180035 82956.5 -739316)
(-512698 57226.2 -8616.92 55673.4 -7034.45 -244212)
(-430727 37486 -3532.24 7155.82 3854.17 -139772)
(-393645 29118 -933.434 -9095.23 11548.8 -122424)
(-374627 26151.1 -137.281 -15898.2 12684.5 -120069)
(-363961 25085.8 2.39601 -18891 10572.8 -119604)
(-357922 24635.3 1.46804 -19984.1 6852.97 -119219)
(-355132 24446.3 -1.99317 -20270.6 2361.12 -118949)
(-247760 -4154.79 -4737.67 123923 75673.3 -545286)
(-120822 -9930.37 -2732.68 -3642.73 8883.31 -126600)
(-79548.9 -15629.8 -414.818 -37641 19983.2 -48606)
(-66077.7 -17498.9 620.033 -43363.6 21393.6 -39233.8)
(-62123.2 -17430.8 684.498 -45147.7 17608.3 -38585.8)
(-61222.3 -16964 448.452 -46429.6 12849.4 -38877.4)
(-61032.8 -16620.9 225.436 -47132.8 7843.26 -39203.9)
(-60967.3 -16464.1 66.4039 -47383.4 2642.17 -39388.9)
(-242259 2703.64 4510.9 122809 75429.3 -536656)
(-118362 8940.89 3043.76 -6469.95 9549.02 -126161)
(-77320 14477.1 594.496 -40230.1 20408.2 -48853.2)
(-63913.3 16172.6 -493.25 -45786.5 21663.6 -39436.8)
(-60012.6 16003 -588.907 -47461.6 17792.7 -38733.4)
(-59145.9 15481.3 -381.026 -48663.2 12972 -38991.6)
(-58974.9 15109.8 -185.253 -49313.3 7913.8 -39298.7)
(-58917.6 14941 -53.05 -49537.5 2665.2 -39474.6)
(-682140 -85066.3 11073.8 182239 82511.1 -703981)
(-474576 -55132.7 8734.18 52806.6 -5096.21 -232302)
(-394094 -35576.1 3572.95 5095.94 5143.16 -129793)
(-357847 -27412 950.719 -10503.5 12409 -112454)
(-339394 -24581.9 151.605 -16832.2 13279 -110033)
(-329065 -23597.9 9.88877 -19472.9 10965 -109510)
(-323211 -23192.6 6.77601 -20337 7076.03 -109083)
(-320504 -23023.8 4.86585 -20511.8 2433.48 -108792)
)
;
    }
}


// ************************************************************************* //
