/*--------------------------------*- C++ -*----------------------------------*\
| =========                 |                                                 |
| \\      /  F ield         | OpenFOAM: The Open Source CFD Toolbox           |
|  \\    /   O peration     | Version:  v1912                                 |
|   \\  /    A nd           | Website:  www.openfoam.com                      |
|    \\/     M anipulation  |                                                 |
\*---------------------------------------------------------------------------*/
FoamFile
{
    version     2.0;
    format      ascii;
    class       volScalarField;
    location    "0.72/solid";
    object      sigmaEq;
}
// * * * * * * * * * * * * * * * * * * * * * * * * * * * * * * * * * * * * * //

dimensions      [1 -1 -2 0 0 0 0];


internalField   nonuniform List<scalar> 
256
(
654478
458630
451625
623438
376237
315888
310568
352749
371555
294735
289591
347974
389158
293548
288450
365197
402116
298499
293405
377838
398781
300679
295593
374326
319702
271041
266789
297211
60804.4
306646
304122
63175.5
387574
96502.6
93521.4
355874
281919
95482.4
92898.2
253778
273776
72094.2
70115.4
245760
276011
48672.9
47468.7
247573
282897
40020.4
39620
253880
291309
45130.6
44750.6
261737
271898
41185.4
42063.7
242814
319804
271629
267347
297177
321784
58293.3
57170.2
290982
269428
56193.7
54120.5
241427
265273
39662.2
37881.8
236933
267522
26053.2
25608.4
238566
275783
26845.8
27538.5
246096
289570
31381.9
31429.3
259153
290887
44162.2
43912
261119
399389
301883
296766
374751
286952
54253.7
53949.1
257504
250735
51046.1
50200.7
224193
247996
38687.8
38287.4
220752
250355
31980.5
32840.9
222239
259343
32143
33666.9
230314
274862
29947
30817.1
244891
281728
36684.3
36754.3
252262
405080
300974
295850
380547
266939
46889.7
46728.1
238267
235160
46246.9
45801.7
209426
233866
36998.4
36975.3
207305
237182
31269
32294.5
209604
247391
30085.6
31626.9
218810
264183
25461.1
26239.5
234561
273489
35581.4
35424.8
244316
398650
296758
291644
374298
255599
40210.1
40000
227327
224949
40543.3
40092
199540
224720
31941.4
31853.2
198441
229146
25175.6
26144
201797
240522
22891.2
24380.5
212146
258338
18457.8
18773.1
228901
269270
38478
37945.8
240309
393428
293711
288586
369175
249399
35077.2
34769.4
221321
219005
35443.3
34869.5
193709
219408
26120.5
25849.1
193221
224650
17557.5
18536.5
197381
236831
14604.5
16270.5
208537
255352
12157.8
11789.8
226008
267383
41494.6
40741.3
238566
390589
291880
286743
366391
246633
32147.9
31765.3
218631
216285
32354.2
31678.5
191019
216979
22130.6
21699.3
190815
222631
11416.1
12589.1
195386
235207
7582.2
9997.94
206943
254077
8016.17
6779.8
224773
266668
43115.2
42273.9
237922
389429
291028
285887
365257
)
;

boundaryField
{
    interface
    {
        type            calculated;
        value           nonuniform List<scalar> 
192
(
829985
525977
524644
549581
570153
574793
505701
279103
619688
481570
476534
489252
507336
526208
514376
505996
540571
463535
463792
476109
495533
520156
526483
576001
490112
432800
435901
448555
468796
495623
508182
574444
459633
408116
412993
426605
447949
476179
491585
562039
441929
392209
398108
412683
435019
464212
481200
552601
432171
383090
389534
404781
427789
457578
475469
547155
427820
378970
385656
401235
424569
454636
472945
544762
841709
537951
537037
562699
583779
588354
519282
295659
707413
528642
510955
520304
536151
549004
527793
506953
696195
519311
501530
510706
526414
539147
518424
500502
805029
510544
509163
534124
554761
559166
492500
289698
780930
482562
480544
504617
524386
528266
459509
240228
566000
431721
426189
437855
454781
472523
460626
459540
488355
414421
413881
425012
443101
466298
472366
528939
439707
385429
387481
398774
417506
442654
454648
527800
410391
361857
365590
377730
397462
423868
438537
515730
393369
346547
351262
364308
384979
412277
428463
506487
383986
337732
342972
356667
377985
405847
422918
501156
379801
333741
339214
353234
374867
402996
420481
498816
296382
519910
589809
588434
575889
566169
560504
558003
507449
528902
551261
540812
528308
519278
513704
511073
500927
519423
541249
530857
518390
509369
503795
501164
290063
492813
560219
558855
546437
536783
531148
528660
)
;
    }
    symmetry
    {
        type            symmetry;
    }
    bottom
    {
        type            calculated;
        value           nonuniform List<scalar> 
32
(
937903
502719
391522
346536
323578
310945
304098
301058
595444
122460
57864.9
54033.6
47808.7
41795.1
37145.1
34513.6
587002
118298
54858.8
51742.8
45412.8
39103.4
34107.3
31219.6
899449
467422
357234
313605
291567
279482
272935
270024
)
;
    }
}


// ************************************************************************* //
