/*--------------------------------*- C++ -*----------------------------------*\
| =========                 |                                                 |
| \\      /  F ield         | OpenFOAM: The Open Source CFD Toolbox           |
|  \\    /   O peration     | Version:  v1912                                 |
|   \\  /    A nd           | Website:  www.openfoam.com                      |
|    \\/     M anipulation  |                                                 |
\*---------------------------------------------------------------------------*/
FoamFile
{
    version     2.0;
    format      ascii;
    class       volVectorField;
    location    "0.72/solid";
    object      U;
}
// * * * * * * * * * * * * * * * * * * * * * * * * * * * * * * * * * * * * * //

dimensions      [0 1 -1 0 0 0 0];


internalField   nonuniform List<vector> 
256
(
(2.31469e-08 2.40395e-08 2.80839e-08)
(5.40936e-09 1.51236e-08 2.66243e-08)
(-6.80616e-09 1.45539e-08 2.59294e-08)
(-2.26901e-08 2.20223e-08 2.59835e-08)
(4.27641e-08 2.03573e-08 6.52921e-08)
(1.1054e-08 1.25063e-08 6.2978e-08)
(-1.41196e-08 1.22593e-08 6.15752e-08)
(-4.32337e-08 1.98464e-08 6.1024e-08)
(4.6929e-08 2.25212e-09 9.16145e-08)
(1.19293e-08 -1.28451e-09 8.86294e-08)
(-1.69072e-08 -9.80992e-10 8.68212e-08)
(-4.92601e-08 3.51507e-09 8.61082e-08)
(4.59357e-08 -1.83335e-08 1.13724e-07)
(1.05553e-08 -1.99876e-08 1.09801e-07)
(-1.81125e-08 -1.91342e-08 1.07703e-07)
(-5.08129e-08 -1.54803e-08 1.07334e-07)
(4.56251e-08 -4.0676e-08 1.35456e-07)
(9.19712e-09 -4.28269e-08 1.30403e-07)
(-2.00614e-08 -4.14539e-08 1.28057e-07)
(-5.37563e-08 -3.63412e-08 1.28314e-07)
(4.99533e-08 -6.78657e-08 1.59117e-07)
(9.4667e-09 -7.09465e-08 1.53067e-07)
(-2.44128e-08 -6.90562e-08 1.50483e-07)
(-6.20994e-08 -6.20518e-08 1.51259e-07)
(6.13704e-08 -1.07775e-07 1.84792e-07)
(1.20298e-08 -1.09019e-07 1.78906e-07)
(-3.19654e-08 -1.06538e-07 1.76075e-07)
(-7.832e-08 -1.00259e-07 1.76211e-07)
(7.4277e-08 -1.63138e-07 2.05022e-07)
(1.44919e-08 -1.58816e-07 2.01117e-07)
(-4.05301e-08 -1.55416e-07 1.98066e-07)
(-9.68438e-08 -1.52853e-07 1.95835e-07)
(1.4779e-08 8.56531e-09 1.17626e-08)
(3.28853e-09 1.21359e-09 1.31941e-08)
(-3.85537e-09 1.01393e-09 1.28936e-08)
(-1.37529e-08 7.37935e-09 1.08731e-08)
(2.8135e-08 -2.63151e-10 3.68827e-08)
(7.08069e-09 -6.71598e-09 3.97464e-08)
(-8.18364e-09 -6.66498e-09 3.89213e-08)
(-2.70617e-08 -1.86284e-10 3.44782e-08)
(3.07075e-08 -1.66958e-08 6.0077e-08)
(7.59471e-09 -1.9568e-08 6.32687e-08)
(-9.79976e-09 -1.90912e-08 6.20805e-08)
(-3.07493e-08 -1.51441e-08 5.66007e-08)
(2.93334e-08 -3.53944e-08 8.09459e-08)
(6.33225e-09 -3.68e-08 8.39049e-08)
(-1.04873e-08 -3.58471e-08 8.2453e-08)
(-3.13311e-08 -3.24139e-08 7.66691e-08)
(2.87546e-08 -5.59991e-08 1.00989e-07)
(5.115e-09 -5.81589e-08 1.03487e-07)
(-1.20548e-08 -5.67252e-08 1.01809e-07)
(-3.35044e-08 -5.16179e-08 9.60243e-08)
(3.30355e-08 -7.98989e-08 1.21092e-07)
(5.55621e-09 -8.32462e-08 1.23097e-07)
(-1.61198e-08 -8.13266e-08 1.21206e-07)
(-4.13454e-08 -7.41073e-08 1.1548e-07)
(4.54907e-08 -1.12476e-07 1.39494e-07)
(8.52556e-09 -1.13726e-07 1.41225e-07)
(-2.36683e-08 -1.11279e-07 1.39147e-07)
(-5.817e-08 -1.05125e-07 1.33304e-07)
(6.08836e-08 -1.57729e-07 1.49663e-07)
(1.15317e-08 -1.51391e-07 1.51355e-07)
(-3.24259e-08 -1.48154e-07 1.49194e-07)
(-7.87593e-08 -1.479e-07 1.4319e-07)
(7.80729e-09 2.57931e-09 5.82509e-09)
(1.29049e-09 -2.86231e-09 8.01476e-09)
(-1.48375e-09 -3.01659e-09 7.81089e-09)
(-6.48118e-09 1.38778e-09 5.24567e-09)
(1.54605e-08 -1.06386e-08 2.31624e-08)
(3.13672e-09 -1.55199e-08 2.7373e-08)
(-3.1564e-09 -1.54375e-08 2.68026e-08)
(-1.34355e-08 -1.06589e-08 2.15461e-08)
(1.66686e-08 -2.79097e-08 4.2488e-08)
(3.2225e-09 -3.01704e-08 4.72723e-08)
(-3.69622e-09 -2.97038e-08 4.6412e-08)
(-1.51424e-08 -2.655e-08 4.00243e-08)
(1.52074e-08 -4.55981e-08 6.13028e-08)
(2.07457e-09 -4.69489e-08 6.60489e-08)
(-3.93232e-09 -4.60438e-08 6.49573e-08)
(-1.50928e-08 -4.28834e-08 5.81402e-08)
(1.47109e-08 -6.36823e-08 7.90206e-08)
(1.02947e-09 -6.60408e-08 8.3522e-08)
(-5.18604e-09 -6.46833e-08 8.22288e-08)
(-1.68713e-08 -5.96212e-08 7.52415e-08)
(1.92275e-08 -8.30944e-08 9.49665e-08)
(1.66392e-09 -8.67637e-08 9.9159e-08)
(-9.02602e-09 -8.49494e-08 9.76842e-08)
(-2.45221e-08 -7.76826e-08 9.06278e-08)
(3.23681e-08 -1.08899e-07 1.06691e-07)
(4.95974e-09 -1.10387e-07 1.10542e-07)
(-1.65359e-08 -1.08085e-07 1.08931e-07)
(-4.16402e-08 -1.02013e-07 1.0191e-07)
(4.87948e-08 -1.46888e-07 1.09765e-07)
(8.33891e-09 -1.40332e-07 1.13313e-07)
(-2.53291e-08 -1.3728e-07 1.11681e-07)
(-6.28892e-08 -1.37606e-07 1.04856e-07)
(4.49449e-09 2.56398e-10 4.53684e-09)
(3.55172e-10 -3.8617e-09 6.08526e-09)
(-3.72398e-10 -4.04e-09 5.93329e-09)
(-2.98545e-09 -1.06722e-09 4.11577e-09)
(9.33357e-09 -1.47678e-08 1.77395e-08)
(1.22196e-09 -1.85949e-08 2.06759e-08)
(-6.40263e-10 -1.85815e-08 2.02643e-08)
(-6.70997e-09 -1.50766e-08 1.65929e-08)
(1.0012e-08 -3.2807e-08 3.31687e-08)
(1.16685e-09 -3.47181e-08 3.64577e-08)
(-5.708e-10 -3.43463e-08 3.58302e-08)
(-7.43304e-09 -3.18073e-08 3.1394e-08)
(8.85392e-09 -4.98949e-08 4.8801e-08)
(2.4566e-10 -5.1311e-08 5.20015e-08)
(-5.74714e-10 -5.05195e-08 5.11882e-08)
(-7.23835e-09 -4.75815e-08 4.64657e-08)
(8.81409e-09 -6.58859e-08 6.32861e-08)
(-5.19558e-10 -6.84666e-08 6.62572e-08)
(-1.68978e-09 -6.72386e-08 6.52768e-08)
(-9.05779e-09 -6.22564e-08 6.04387e-08)
(1.37421e-08 -8.19401e-08 7.52234e-08)
(3.44317e-10 -8.58863e-08 7.7946e-08)
(-5.39013e-09 -8.42165e-08 7.68195e-08)
(-1.67434e-08 -7.69874e-08 7.19197e-08)
(2.70742e-08 -1.03757e-07 8.24889e-08)
(3.77594e-09 -1.05671e-07 8.49855e-08)
(-1.27101e-08 -1.03525e-07 8.37586e-08)
(-3.37106e-08 -9.7349e-08 7.88464e-08)
(4.34219e-08 -1.38307e-07 8.28064e-08)
(7.24401e-09 -1.32618e-07 8.52288e-08)
(-2.12884e-08 -1.29719e-07 8.39984e-08)
(-5.45611e-08 -1.2949e-07 7.90909e-08)
(3.34993e-09 -5.99444e-10 3.89658e-09)
(1.12799e-10 -4.06628e-09 4.69578e-09)
(-3.75356e-11 -4.27037e-09 4.58621e-09)
(-1.72662e-09 -2.03101e-09 3.59766e-09)
(7.31527e-09 -1.59655e-08 1.40617e-08)
(7.42324e-10 -1.93119e-08 1.55247e-08)
(1.92273e-10 -1.93754e-08 1.5233e-08)
(-4.31558e-09 -1.65401e-08 1.32595e-08)
(8.03796e-09 -3.40557e-08 2.57591e-08)
(7.73472e-10 -3.5881e-08 2.73207e-08)
(4.97097e-10 -3.56141e-08 2.68752e-08)
(-4.7702e-09 -3.34033e-08 2.45118e-08)
(7.32031e-09 -5.05875e-08 3.76972e-08)
(1.13428e-10 -5.21477e-08 3.91133e-08)
(5.76245e-10 -5.14757e-08 3.85293e-08)
(-4.67843e-09 -4.86601e-08 3.60332e-08)
(7.78696e-09 -6.52271e-08 4.85823e-08)
(-3.7012e-10 -6.80151e-08 4.97848e-08)
(-4.86387e-10 -6.69154e-08 4.9073e-08)
(-6.67197e-09 -6.2002e-08 4.65258e-08)
(1.30589e-08 -7.94389e-08 5.70402e-08)
(6.89192e-10 -8.35941e-08 5.80562e-08)
(-4.07579e-09 -8.20573e-08 5.72333e-08)
(-1.43911e-08 -7.48966e-08 5.46338e-08)
(2.6335e-08 -9.94682e-08 6.15883e-08)
(4.15611e-09 -1.01745e-07 6.24943e-08)
(-1.11553e-08 -9.97294e-08 6.15975e-08)
(-3.1018e-08 -9.34594e-08 5.89272e-08)
(4.23295e-08 -1.32557e-07 6.12364e-08)
(7.61195e-09 -1.27732e-07 6.2197e-08)
(-1.94681e-08 -1.24954e-07 6.13005e-08)
(-5.12536e-08 -1.24106e-07 5.85247e-08)
(3.04457e-09 -8.75862e-10 3.03282e-09)
(1.19664e-10 -4.07468e-09 3.38225e-09)
(6.20334e-12 -4.29732e-09 3.30885e-09)
(-1.35175e-09 -2.38066e-09 2.83456e-09)
(6.91054e-09 -1.6004e-08 1.03377e-08)
(8.0361e-10 -1.9201e-08 1.0929e-08)
(3.40835e-10 -1.93233e-08 1.07348e-08)
(-3.67899e-09 -1.67724e-08 9.80846e-09)
(7.87126e-09 -3.37287e-08 1.85063e-08)
(9.89937e-10 -3.56047e-08 1.90679e-08)
(7.01441e-10 -3.5422e-08 1.8771e-08)
(-4.16648e-09 -3.33433e-08 1.76815e-08)
(7.54289e-09 -4.9732e-08 2.67741e-08)
(5.49505e-10 -5.14483e-08 2.71923e-08)
(8.00801e-10 -5.08734e-08 2.68009e-08)
(-4.22862e-09 -4.81087e-08 2.56658e-08)
(8.39684e-09 -6.36119e-08 3.42022e-08)
(2.81499e-10 -6.65637e-08 3.44569e-08)
(-2.32252e-10 -6.55667e-08 3.39765e-08)
(-6.36586e-09 -6.0705e-08 3.28203e-08)
(1.38896e-08 -7.70141e-08 3.97813e-08)
(1.4786e-09 -8.13055e-08 3.99149e-08)
(-3.72598e-09 -7.98719e-08 3.93567e-08)
(-1.40709e-08 -7.2788e-08 3.81535e-08)
(2.70593e-08 -9.63914e-08 4.2595e-08)
(4.95423e-09 -9.88898e-08 4.26852e-08)
(-1.06003e-08 -9.69724e-08 4.20757e-08)
(-3.03734e-08 -9.06814e-08 4.07884e-08)
(4.27436e-08 -1.28813e-07 4.2223e-08)
(8.38728e-09 -1.24543e-07 4.23846e-08)
(-1.86962e-08 -1.21853e-07 4.17757e-08)
(-5.00997e-08 -1.2063e-07 4.03806e-08)
(2.98188e-09 -9.35256e-10 1.91899e-09)
(1.65563e-10 -4.03218e-09 2.05527e-09)
(-1.31482e-11 -4.26656e-09 2.01323e-09)
(-1.24959e-09 -2.48515e-09 1.80606e-09)
(6.92367e-09 -1.57232e-08 6.33133e-09)
(9.42686e-10 -1.88988e-08 6.5347e-09)
(3.19871e-10 -1.90589e-08 6.42365e-09)
(-3.55828e-09 -1.6614e-08 6.03037e-09)
(8.0945e-09 -3.30353e-08 1.11507e-08)
(1.25441e-09 -3.49882e-08 1.13026e-08)
(6.82054e-10 -3.48611e-08 1.11327e-08)
(-4.13215e-09 -3.28236e-08 1.06812e-08)
(8.02919e-09 -4.86326e-08 1.59748e-08)
(9.6064e-10 -5.04683e-08 1.6029e-08)
(7.84845e-10 -4.99589e-08 1.58042e-08)
(-4.30987e-09 -4.72117e-08 1.53414e-08)
(9.12346e-09 -6.21243e-08 2.02614e-08)
(8.28982e-10 -6.51841e-08 2.0217e-08)
(-2.2541e-10 -6.42565e-08 1.994e-08)
(-6.52943e-09 -5.9431e-08 1.94674e-08)
(1.474e-08 -7.5229e-08 2.34262e-08)
(2.11113e-09 -7.95975e-08 2.33161e-08)
(-3.64822e-09 -7.82328e-08 2.29932e-08)
(-1.42019e-08 -7.12139e-08 2.24865e-08)
(2.78293e-08 -9.44103e-08 2.49791e-08)
(5.59287e-09 -9.70207e-08 2.48548e-08)
(-1.03837e-08 -9.51679e-08 2.45016e-08)
(-3.02774e-08 -8.88976e-08 2.39331e-08)
(4.33097e-08 -1.26511e-07 2.47383e-08)
(9.01209e-09 -1.22533e-07 2.46616e-08)
(-1.83352e-08 -1.19901e-07 2.43086e-08)
(-4.96664e-08 -1.18502e-07 2.36706e-08)
(2.97204e-09 -9.34457e-10 6.55683e-10)
(1.92151e-10 -3.99666e-09 6.91079e-10)
(-2.83866e-11 -4.23673e-09 6.77401e-10)
(-1.22188e-09 -2.50587e-09 6.19036e-10)
(6.96987e-09 -1.55076e-08 2.13175e-09)
(1.02157e-09 -1.86894e-08 2.17885e-09)
(2.94127e-10 -1.88678e-08 2.14274e-09)
(-3.5432e-09 -1.64571e-08 2.03413e-09)
(8.25007e-09 -3.25718e-08 3.72384e-09)
(1.39734e-09 -3.45723e-08 3.74926e-09)
(6.5184e-10 -3.44725e-08 3.69396e-09)
(-4.16824e-09 -3.24448e-08 3.57143e-09)
(8.31224e-09 -4.7953e-08 5.30646e-09)
(1.17463e-09 -4.98509e-08 5.29797e-09)
(7.55588e-10 -4.93739e-08 5.22473e-09)
(-4.40261e-09 -4.6632e-08 5.10047e-09)
(9.51849e-09 -6.12822e-08 6.70462e-09)
(1.10763e-09 -6.43945e-08 6.66361e-09)
(-2.41332e-10 -6.35015e-08 6.57317e-09)
(-6.65675e-09 -5.8695e-08 6.44578e-09)
(1.51903e-08 -7.42981e-08 7.72974e-09)
(2.43026e-09 -7.87006e-08 7.66812e-09)
(-3.62687e-09 -7.73702e-08 7.56251e-09)
(-1.43067e-08 -7.0388e-08 7.42273e-09)
(2.82399e-08 -9.34336e-08 8.22799e-09)
(5.91642e-09 -9.60887e-08 8.16333e-09)
(-1.02938e-08 -9.42678e-08 8.04767e-09)
(-3.02689e-08 -8.80188e-08 7.88568e-09)
(4.36215e-08 -1.25401e-07 8.14641e-09)
(9.32986e-09 -1.21544e-07 8.09772e-09)
(-1.81742e-08 -1.1894e-07 7.98214e-09)
(-4.94924e-08 -1.17479e-07 7.79682e-09)
)
;

boundaryField
{
    interface
    {
        type            calculated;
        value           nonuniform List<vector> 
192
(
(2.72558e-08 4.05172e-08 2.55382e-08)
(4.7003e-08 2.63028e-08 6.08019e-08)
(5.14363e-08 3.04493e-09 8.67053e-08)
(5.08213e-08 -1.86595e-08 1.08844e-07)
(5.06026e-08 -3.96716e-08 1.30675e-07)
(5.44602e-08 -6.39294e-08 1.54486e-07)
(6.55964e-08 -1.01694e-07 1.80479e-07)
(7.98613e-08 -1.59556e-07 2.01208e-07)
(1.59637e-08 1.92938e-08 7.92779e-09)
(2.97976e-08 3.71892e-09 3.00569e-08)
(3.24183e-08 -1.63963e-08 5.2512e-08)
(3.10828e-08 -3.58828e-08 7.32639e-08)
(3.0353e-08 -5.50737e-08 9.32609e-08)
(3.40979e-08 -7.57149e-08 1.13411e-07)
(4.6671e-08 -1.05514e-07 1.32244e-07)
(6.51946e-08 -1.53655e-07 1.43292e-07)
(7.5938e-09 8.39627e-09 3.25403e-09)
(1.61439e-08 -8.42329e-09 1.84622e-08)
(1.75045e-08 -2.79731e-08 3.73142e-08)
(1.6101e-08 -4.60876e-08 5.6183e-08)
(1.55574e-08 -6.26774e-08 7.40355e-08)
(1.98183e-08 -7.86802e-08 9.01432e-08)
(3.35209e-08 -1.01507e-07 1.02087e-07)
(5.35113e-08 -1.42506e-07 1.054e-07)
(3.6981e-09 3.71341e-09 3.42255e-09)
(9.77175e-09 -1.33885e-08 1.57033e-08)
(1.07215e-08 -3.2927e-08 3.10111e-08)
(9.70205e-09 -5.01945e-08 4.68293e-08)
(9.74884e-09 -6.4664e-08 6.15552e-08)
(1.46632e-08 -7.73751e-08 7.36813e-08)
(2.88728e-08 -9.63367e-08 8.09807e-08)
(4.88074e-08 -1.33806e-07 8.11902e-08)
(2.2239e-09 2.06685e-09 3.53413e-09)
(7.49309e-09 -1.47936e-08 1.3456e-08)
(8.5551e-09 -3.40546e-08 2.5224e-08)
(8.05145e-09 -5.06503e-08 3.73695e-08)
(8.71011e-09 -6.37926e-08 4.8478e-08)
(1.41226e-08 -7.4802e-08 5.70771e-08)
(2.84487e-08 -9.21506e-08 6.15846e-08)
(4.79548e-08 -1.2803e-07 6.10669e-08)
(1.76596e-09 1.61292e-09 2.94083e-09)
(6.92195e-09 -1.47974e-08 1.02398e-08)
(8.25927e-09 -3.35707e-08 1.85205e-08)
(8.20232e-09 -4.96007e-08 2.69514e-08)
(9.32309e-09 -6.20254e-08 3.45364e-08)
(1.50497e-08 -7.23485e-08 4.02016e-08)
(2.93569e-08 -8.91779e-08 4.29686e-08)
(4.84604e-08 -1.24297e-07 4.24681e-08)
(1.65127e-09 1.54113e-09 1.90087e-09)
(6.86234e-09 -1.44451e-08 6.34618e-09)
(8.4308e-09 -3.2759e-08 1.12454e-08)
(8.6741e-09 -4.83755e-08 1.61671e-08)
(1.00818e-08 -6.04467e-08 2.05418e-08)
(1.59846e-08 -7.05526e-08 2.37514e-08)
(3.02533e-08 -8.72679e-08 2.52742e-08)
(4.90832e-08 -1.22014e-07 2.49578e-08)
(1.62978e-09 1.55102e-09 6.53227e-10)
(6.88568e-09 -1.41881e-08 2.14331e-09)
(8.5733e-09 -3.22363e-08 3.76273e-09)
(8.96207e-09 -4.7636e-08 5.37723e-09)
(1.05038e-08 -5.95628e-08 6.80338e-09)
(1.64852e-08 -6.96179e-08 7.84232e-09)
(3.07311e-08 -8.63259e-08 8.33063e-09)
(4.94268e-08 -1.20917e-07 8.22437e-09)
(2.40545e-08 4.73834e-08 2.91991e-08)
(4.44303e-08 3.624e-08 6.61227e-08)
(4.8637e-08 1.43602e-08 9.27048e-08)
(4.73947e-08 -7.37288e-09 1.15288e-07)
(4.6752e-08 -2.93277e-08 1.3714e-07)
(5.07563e-08 -5.55319e-08 1.60152e-07)
(6.20551e-08 -9.62989e-08 1.85053e-07)
(7.52078e-08 -1.57296e-07 2.06007e-07)
(4.87053e-09 3.75242e-08 2.6045e-08)
(1.01244e-08 2.80077e-08 6.15743e-08)
(1.07306e-08 1.04213e-08 8.6802e-08)
(9.04964e-09 -9.54413e-09 1.07837e-07)
(7.34693e-09 -3.20102e-08 1.28048e-07)
(7.30796e-09 -5.88206e-08 1.49642e-07)
(9.85044e-09 -9.70062e-08 1.74797e-07)
(1.27529e-08 -1.52649e-07 1.99615e-07)
(-6.96662e-09 3.64301e-08 2.44152e-08)
(-1.46086e-08 2.74824e-08 5.93983e-08)
(-1.75379e-08 1.05511e-08 8.42108e-08)
(-1.87296e-08 -8.82523e-09 1.04921e-07)
(-2.05838e-08 -3.07588e-08 1.24851e-07)
(-2.48653e-08 -5.70516e-08 1.46182e-07)
(-3.26393e-08 -9.46425e-08 1.71062e-07)
(-4.18507e-08 -1.49296e-07 1.9558e-07)
(-2.41622e-08 4.37742e-08 2.42824e-08)
(-4.61138e-08 3.48777e-08 5.93166e-08)
(-5.2584e-08 1.50928e-08 8.45745e-08)
(-5.41838e-08 -4.92858e-09 1.06167e-07)
(-5.70466e-08 -2.536e-08 1.2718e-07)
(-6.53006e-08 -5.00775e-08 1.49408e-07)
(-8.16335e-08 -8.91143e-08 1.73532e-07)
(-1.00602e-07 -1.47137e-07 1.93776e-07)
(-2.08643e-08 3.85032e-08 2.30129e-08)
(-4.15533e-08 2.64889e-08 5.55405e-08)
(-4.77309e-08 5.41003e-09 7.98181e-08)
(-4.95103e-08 -1.4356e-08 1.00778e-07)
(-5.23927e-08 -3.35194e-08 1.21606e-07)
(-6.00903e-08 -5.59106e-08 1.44469e-07)
(-7.57293e-08 -9.15722e-08 1.69517e-07)
(-9.50269e-08 -1.46251e-07 1.89435e-07)
(-9.45399e-09 1.7583e-08 6.82085e-09)
(-2.33315e-08 4.06283e-09 2.70285e-08)
(-2.70058e-08 -1.40766e-08 4.80711e-08)
(-2.75117e-08 -3.1725e-08 6.77389e-08)
(-2.94053e-08 -4.91142e-08 8.68029e-08)
(-3.65514e-08 -6.79406e-08 1.06085e-07)
(-5.31929e-08 -9.57716e-08 1.24134e-07)
(-7.62019e-08 -1.40994e-07 1.34702e-07)
(-9.8694e-10 6.36694e-09 2.5537e-09)
(-8.96123e-09 -8.49352e-09 1.6458e-08)
(-1.07745e-08 -2.61355e-08 3.4195e-08)
(-1.06816e-08 -4.2451e-08 5.21168e-08)
(-1.22792e-08 -5.72637e-08 6.91296e-08)
(-1.95052e-08 -7.14902e-08 8.44771e-08)
(-3.68708e-08 -9.2421e-08 9.57947e-08)
(-6.09667e-08 -1.30577e-07 9.88066e-08)
(3.01349e-09 1.35663e-09 2.92706e-09)
(-2.08031e-09 -1.39647e-08 1.43128e-08)
(-3.03708e-09 -3.16751e-08 2.88008e-08)
(-2.88566e-09 -4.71752e-08 4.38619e-08)
(-4.66039e-09 -5.98799e-08 5.78887e-08)
(-1.21523e-08 -7.0824e-08 6.93868e-08)
(-2.96616e-08 -8.78944e-08 7.61907e-08)
(-5.33903e-08 -1.22501e-07 7.61819e-08)
(4.56307e-09 -5.20464e-10 3.18917e-09)
(5.29133e-10 -1.57791e-08 1.25017e-08)
(-2.30328e-10 -3.33125e-08 2.3695e-08)
(-2.67012e-10 -4.81845e-08 3.52807e-08)
(-2.31964e-09 -5.95736e-08 4.58527e-08)
(-9.99188e-09 -6.88098e-08 5.39656e-08)
(-2.73225e-08 -8.42436e-08 5.80928e-08)
(-5.03643e-08 -1.17219e-07 5.74092e-08)
(5.06917e-09 -1.12298e-09 2.71526e-09)
(1.30971e-09 -1.60687e-08 9.61905e-09)
(4.7255e-10 -3.32058e-08 1.75219e-08)
(2.2272e-10 -4.75587e-08 2.55736e-08)
(-2.04796e-09 -5.82443e-08 3.27846e-08)
(-9.79488e-09 -6.67858e-08 3.81061e-08)
(-2.68832e-08 -8.16739e-08 4.06031e-08)
(-4.93258e-08 -1.13849e-07 3.99837e-08)
(5.21078e-09 -1.28319e-09 1.77357e-09)
(1.48873e-09 -1.58933e-08 5.99637e-09)
(5.42792e-10 -3.26356e-08 1.06815e-08)
(1.44368e-10 -4.66122e-08 1.53848e-08)
(-2.25863e-09 -5.69577e-08 1.954e-08)
(-1.00235e-08 -6.52766e-08 2.25455e-08)
(-2.69243e-08 -8.00312e-08 2.39069e-08)
(-4.89619e-08 -1.11805e-07 2.35188e-08)
(5.24433e-09 -1.31461e-09 6.12102e-10)
(1.52005e-09 -1.57205e-08 2.03035e-09)
(5.12796e-10 -3.22299e-08 3.58043e-09)
(4.02986e-11 -4.60098e-08 5.12363e-09)
(-2.41913e-09 -5.62187e-08 6.47759e-09)
(-1.01838e-08 -6.44846e-08 7.44891e-09)
(-2.69874e-08 -7.92221e-08 7.88356e-09)
(-4.88251e-08 -1.10827e-07 7.75332e-09)
(7.49874e-08 -1.64222e-07 2.0659e-07)
(6.13364e-08 -1.5816e-07 1.456e-07)
(4.93471e-08 -1.48219e-07 1.0491e-07)
(4.42501e-08 -1.40526e-07 7.92236e-08)
(4.33866e-08 -1.35076e-07 5.8863e-08)
(4.39341e-08 -1.31423e-07 4.07114e-08)
(4.45636e-08 -1.29167e-07 2.38853e-08)
(4.48992e-08 -1.28085e-07 7.86902e-09)
(1.25613e-08 -1.57408e-07 2.02344e-07)
(9.13776e-09 -1.47448e-07 1.46734e-07)
(5.93651e-09 -1.37187e-07 1.0862e-07)
(5.097e-09 -1.30732e-07 8.20786e-08)
(5.71094e-09 -1.26494e-07 6.01782e-08)
(6.64715e-09 -1.23629e-07 4.10849e-08)
(7.3594e-09 -1.21791e-07 2.39119e-08)
(7.71446e-09 -1.20881e-07 7.85054e-09)
(-4.20208e-08 -1.53012e-07 1.9931e-07)
(-3.32989e-08 -1.43283e-07 1.4466e-07)
(-2.60109e-08 -1.33219e-07 1.07072e-07)
(-2.20706e-08 -1.26923e-07 8.0917e-08)
(-2.03748e-08 -1.22805e-07 5.9334e-08)
(-1.96748e-08 -1.20028e-07 4.05124e-08)
(-1.93432e-08 -1.18247e-07 2.35804e-08)
(-1.91908e-08 -1.17364e-07 7.74204e-09)
(-1.00786e-07 -1.50859e-07 1.97455e-07)
(-8.2276e-08 -1.45323e-07 1.39379e-07)
(-6.63226e-08 -1.35934e-07 1.00254e-07)
(-5.81134e-08 -1.28707e-07 7.57159e-08)
(-5.49098e-08 -1.23619e-07 5.63095e-08)
(-5.37964e-08 -1.20225e-07 3.89796e-08)
(-5.33651e-08 -1.18138e-07 2.2883e-08)
(-5.31845e-08 -1.17138e-07 7.54103e-09)
)
;
    }
    symmetry
    {
        type            symmetry;
    }
    bottom
    {
        type            calculated;
        value           uniform (0 0 0);
    }
}


// ************************************************************************* //
