/*--------------------------------*- C++ -*----------------------------------*\
| =========                 |                                                 |
| \\      /  F ield         | OpenFOAM: The Open Source CFD Toolbox           |
|  \\    /   O peration     | Version:  v1912                                 |
|   \\  /    A nd           | Website:  www.openfoam.com                      |
|    \\/     M anipulation  |                                                 |
\*---------------------------------------------------------------------------*/
FoamFile
{
    version     2.0;
    format      ascii;
    class       volScalarField;
    location    "0.16/solid";
    object      epsilonEq;
}
// * * * * * * * * * * * * * * * * * * * * * * * * * * * * * * * * * * * * * //

dimensions      [0 0 0 0 0 0 0];


internalField   nonuniform List<scalar> 
256
(
2.24193e-06
1.98805e-06
1.97314e-06
2.19661e-06
1.74404e-06
1.80938e-06
1.79131e-06
1.69686e-06
1.81594e-06
1.83428e-06
1.81582e-06
1.77072e-06
1.90101e-06
1.88775e-06
1.86951e-06
1.85753e-06
1.99761e-06
1.97318e-06
1.95516e-06
1.95513e-06
2.1302e-06
2.10393e-06
2.08611e-06
2.08858e-06
2.12898e-06
2.19411e-06
2.17712e-06
2.09225e-06
2.18797e-07
2.33744e-06
2.32092e-06
1.88789e-07
1.80637e-06
4.04772e-07
3.98424e-07
1.7591e-06
1.60967e-06
3.39465e-07
3.3201e-07
1.56286e-06
1.6357e-06
3.01523e-07
2.94891e-07
1.58935e-06
1.68697e-06
2.94945e-07
2.88933e-07
1.64029e-06
1.76213e-06
3.10478e-07
3.04805e-07
1.71473e-06
1.87112e-06
2.97047e-07
2.91858e-07
1.82362e-06
1.93222e-06
1.29222e-07
1.27066e-07
1.89002e-06
2.12874e-06
2.19429e-06
2.17779e-06
2.09357e-06
1.66935e-06
3.12838e-07
3.0617e-07
1.62435e-06
1.55507e-06
3.57406e-07
3.49506e-07
1.5071e-06
1.58761e-06
3.50254e-07
3.42864e-07
1.53888e-06
1.63356e-06
3.43291e-07
3.36203e-07
1.5839e-06
1.70096e-06
3.47286e-07
3.4027e-07
1.65017e-06
1.80126e-06
3.28549e-07
3.2187e-07
1.75003e-06
1.87132e-06
2.93407e-07
2.89696e-07
1.8249e-06
2.12976e-06
2.10406e-06
2.08717e-06
2.09167e-06
1.56501e-06
2.90817e-07
2.85144e-07
1.52457e-06
1.46572e-06
3.62073e-07
3.55264e-07
1.42076e-06
1.50351e-06
3.67649e-07
3.60956e-07
1.45694e-06
1.54752e-06
3.61071e-07
3.54499e-07
1.49956e-06
1.60893e-06
3.59846e-07
3.53308e-07
1.55964e-06
1.70065e-06
3.37814e-07
3.31672e-07
1.65082e-06
1.76314e-06
2.99431e-07
2.96285e-07
1.71794e-06
2.00003e-06
1.97446e-06
1.95793e-06
1.96371e-06
1.5028e-06
2.75151e-07
2.70477e-07
1.4663e-06
1.40687e-06
3.46427e-07
3.40718e-07
1.36516e-06
1.44584e-06
3.53528e-07
3.47715e-07
1.402e-06
1.48843e-06
3.45662e-07
3.39855e-07
1.44286e-06
1.54619e-06
3.40438e-07
3.34624e-07
1.49909e-06
1.63275e-06
3.14e-07
3.08556e-07
1.58497e-06
1.6901e-06
2.66155e-07
2.63866e-07
1.64682e-06
1.9156e-06
1.89276e-06
1.87659e-06
1.88137e-06
1.46404e-06
2.6233e-07
2.58406e-07
1.43043e-06
1.36942e-06
3.28893e-07
3.24012e-07
1.33026e-06
1.40792e-06
3.33862e-07
3.28769e-07
1.36637e-06
1.44927e-06
3.24213e-07
3.19059e-07
1.40575e-06
1.50486e-06
3.16638e-07
3.11415e-07
1.45964e-06
1.58863e-06
2.87763e-07
2.82829e-07
1.54256e-06
1.64305e-06
2.34227e-07
2.32641e-07
1.60135e-06
1.86303e-06
1.84506e-06
1.82916e-06
1.83053e-06
1.44084e-06
2.53044e-07
2.49618e-07
1.40909e-06
1.34698e-06
3.16087e-07
3.11761e-07
1.30953e-06
1.3848e-06
3.19043e-07
3.14453e-07
1.34483e-06
1.42526e-06
3.08103e-07
3.03412e-07
1.38319e-06
1.47965e-06
2.99476e-07
2.94657e-07
1.43574e-06
1.56201e-06
2.69795e-07
2.65186e-07
1.51711e-06
1.61484e-06
2.1354e-07
2.12435e-07
1.57422e-06
1.83163e-06
1.81877e-06
1.80306e-06
1.80033e-06
1.4299e-06
2.48143e-07
2.44968e-07
1.39906e-06
1.33644e-06
3.09602e-07
3.0556e-07
1.29983e-06
1.37386e-06
3.11582e-07
3.07254e-07
1.33469e-06
1.41387e-06
3.00051e-07
2.95603e-07
1.37254e-06
1.46773e-06
2.91074e-07
2.86464e-07
1.42449e-06
1.5495e-06
2.61246e-07
2.56798e-07
1.5052e-06
1.60162e-06
2.03933e-07
2.03074e-07
1.56156e-06
1.81682e-06
1.80704e-06
1.79142e-06
1.78614e-06
)
;

boundaryField
{
    interface
    {
        type            calculated;
        value           nonuniform List<scalar> 
192
(
3.24383e-06
2.7212e-06
2.81142e-06
2.92e-06
3.05163e-06
3.24882e-06
3.37734e-06
1.77678e-06
3.17977e-06
2.92449e-06
2.97278e-06
3.05902e-06
3.18784e-06
3.39772e-06
3.64218e-06
3.3772e-06
2.88858e-06
2.70899e-06
2.75982e-06
2.83957e-06
2.95932e-06
3.15729e-06
3.39858e-06
3.249e-06
2.693e-06
2.52771e-06
2.58202e-06
2.6593e-06
2.77286e-06
2.96098e-06
3.19118e-06
3.05562e-06
2.58247e-06
2.42214e-06
2.47739e-06
2.55317e-06
2.66314e-06
2.84552e-06
3.06865e-06
2.93817e-06
2.51683e-06
2.35963e-06
2.41479e-06
2.48943e-06
2.59726e-06
2.77641e-06
2.99531e-06
2.86714e-06
2.47884e-06
2.32358e-06
2.37847e-06
2.45235e-06
2.55896e-06
2.73636e-06
2.95286e-06
2.82543e-06
2.46126e-06
2.30693e-06
2.36162e-06
2.43512e-06
2.54118e-06
2.71782e-06
2.93322e-06
2.80593e-06
3.43847e-06
2.93546e-06
3.0228e-06
3.12728e-06
3.25532e-06
3.45189e-06
3.59548e-06
2.16242e-06
3.54316e-06
3.3025e-06
3.35321e-06
3.44284e-06
3.58137e-06
3.81059e-06
4.08208e-06
3.78405e-06
3.5157e-06
3.27088e-06
3.32069e-06
3.41031e-06
3.54898e-06
3.77837e-06
4.05063e-06
3.75827e-06
3.36397e-06
2.85583e-06
2.94375e-06
3.04943e-06
3.17829e-06
3.37527e-06
3.52081e-06
2.10554e-06
3.194e-06
2.66966e-06
2.76091e-06
2.87026e-06
3.00229e-06
3.20079e-06
3.33839e-06
1.80629e-06
3.10627e-06
2.84919e-06
2.89673e-06
2.98151e-06
3.10864e-06
3.31786e-06
3.56902e-06
3.33946e-06
2.8163e-06
2.63161e-06
2.68053e-06
2.7582e-06
2.87576e-06
3.0725e-06
3.31948e-06
3.20383e-06
2.62601e-06
2.45397e-06
2.50552e-06
2.58026e-06
2.69138e-06
2.87808e-06
3.11352e-06
3.0113e-06
2.52024e-06
2.35232e-06
2.40431e-06
2.47721e-06
2.58454e-06
2.76535e-06
2.99343e-06
2.89592e-06
2.4581e-06
2.29289e-06
2.34455e-06
2.41609e-06
2.52111e-06
2.69854e-06
2.92218e-06
2.82678e-06
2.42241e-06
2.25895e-06
2.3102e-06
2.38085e-06
2.48454e-06
2.6601e-06
2.8812e-06
2.78646e-06
2.40596e-06
2.24335e-06
2.29436e-06
2.36457e-06
2.46765e-06
2.64239e-06
2.86232e-06
2.76768e-06
2.16261e-06
3.59536e-06
3.45184e-06
3.25869e-06
3.14429e-06
3.07628e-06
3.03669e-06
3.01823e-06
3.7842e-06
4.08232e-06
3.81133e-06
3.58467e-06
3.45348e-06
3.37844e-06
3.33698e-06
3.31836e-06
3.75846e-06
4.05125e-06
3.77985e-06
3.55346e-06
3.42258e-06
3.34781e-06
3.30654e-06
3.28803e-06
2.10591e-06
3.52195e-06
3.37817e-06
3.18684e-06
3.07418e-06
3.00761e-06
2.96902e-06
2.95107e-06
)
;
    }
    symmetry
    {
        type            symmetry;
    }
    bottom
    {
        type            calculated;
        value           nonuniform List<scalar> 
32
(
2.72368e-06
2.00443e-06
1.82985e-06
1.72384e-06
1.66028e-06
1.61984e-06
1.59545e-06
1.58393e-06
2.17397e-06
4.70981e-07
3.29854e-07
2.98899e-07
2.82988e-07
2.71172e-07
2.62774e-07
2.58336e-07
2.16057e-06
4.64034e-07
3.22794e-07
2.93227e-07
2.78479e-07
2.67477e-07
2.5961e-07
2.55441e-07
2.68081e-06
1.95627e-06
1.78596e-06
1.68601e-06
1.62729e-06
1.59026e-06
1.56802e-06
1.55754e-06
)
;
    }
}


// ************************************************************************* //
