/*--------------------------------*- C++ -*----------------------------------*\
| =========                 |                                                 |
| \\      /  F ield         | OpenFOAM: The Open Source CFD Toolbox           |
|  \\    /   O peration     | Version:  v1912                                 |
|   \\  /    A nd           | Website:  www.openfoam.com                      |
|    \\/     M anipulation  |                                                 |
\*---------------------------------------------------------------------------*/
FoamFile
{
    version     2.0;
    format      ascii;
    class       volSymmTensorField;
    location    "0.16/solid";
    object      epsilon;
}
// * * * * * * * * * * * * * * * * * * * * * * * * * * * * * * * * * * * * * //

dimensions      [0 0 0 0 0 0 0];


internalField   nonuniform List<symmTensor> 
256
(
(-2.54092e-06 -7.58519e-09 2.84189e-08 7.0402e-07 -2.49788e-08 -2.76436e-06)
(-5.69779e-08 -7.58572e-08 1.42679e-08 5.16679e-07 -1.23121e-08 -2.70743e-06)
(-5.95282e-08 1.00216e-07 -1.39018e-08 5.08029e-07 -9.94612e-09 -2.68904e-06)
(-2.51944e-06 1.76221e-08 -2.67792e-08 6.71368e-07 -1.61018e-08 -2.71755e-06)
(-2.47296e-06 -1.70723e-08 4.25163e-08 1.44685e-08 -4.24844e-08 -2.70965e-06)
(-8.36936e-08 -1.66395e-08 2.18127e-08 1.15094e-07 -4.41537e-08 -2.6914e-06)
(-8.71204e-08 3.36144e-08 -2.07497e-08 1.04059e-07 -4.26763e-08 -2.6715e-06)
(-2.45069e-06 2.42655e-08 -3.99877e-08 -1.95566e-08 -3.70119e-08 -2.66166e-06)
(-2.50921e-06 -4.10262e-09 4.20468e-08 8.97844e-08 -3.38657e-08 -2.74098e-06)
(-7.93847e-08 -7.01436e-10 2.17526e-08 1.38583e-07 -3.49418e-08 -2.71441e-06)
(-8.30158e-08 1.31389e-08 -2.04467e-08 1.27822e-07 -3.39177e-08 -2.69424e-06)
(-2.48637e-06 9.35267e-09 -3.93454e-08 5.89392e-08 -2.99758e-08 -2.69298e-06)
(-2.56488e-06 4.53163e-09 4.18097e-08 1.6609e-07 -2.79528e-08 -2.78994e-06)
(-7.65546e-08 5.20819e-09 2.17132e-08 1.90137e-07 -2.56694e-08 -2.76479e-06)
(-8.03244e-08 3.92829e-09 -2.04277e-08 1.80168e-07 -2.48559e-08 -2.74469e-06)
(-2.54146e-06 -6.76253e-10 -3.90879e-08 1.37878e-07 -2.4853e-08 -2.74219e-06)
(-2.64526e-06 4.64372e-09 4.45314e-08 2.32965e-07 -2.99531e-08 -2.86646e-06)
(-7.0348e-08 4.73307e-09 2.33243e-08 2.5367e-07 -2.58316e-08 -2.85416e-06)
(-7.41499e-08 1.68356e-09 -2.21165e-08 2.44197e-07 -2.51081e-08 -2.83416e-06)
(-2.62143e-06 -1.95943e-09 -4.18157e-08 2.06278e-07 -2.7286e-08 -2.81888e-06)
(-2.7633e-06 -9.77321e-09 4.96033e-08 3.10295e-07 -4.39143e-08 -2.99037e-06)
(-2.69687e-08 -5.72852e-09 2.6247e-08 3.0633e-07 -3.98977e-08 -3.00189e-06)
(-3.09774e-08 9.72993e-09 -2.50721e-08 2.97181e-07 -3.91609e-08 -2.98205e-06)
(-2.74046e-06 1.10949e-08 -4.68911e-08 2.84353e-07 -4.14116e-08 -2.94288e-06)
(-2.91207e-06 -4.07915e-08 5.48709e-08 1.46181e-07 -6.94142e-08 -3.1592e-06)
(9.63014e-08 -2.40958e-08 2.91134e-08 6.68235e-08 -6.85012e-08 -3.20671e-06)
(9.07575e-08 2.56443e-08 -2.78239e-08 5.98759e-08 -6.76145e-08 -3.18749e-06)
(-2.89636e-06 4.00919e-08 -5.21637e-08 1.2427e-07 -6.68053e-08 -3.11227e-06)
(-2.88995e-06 -5.57098e-08 5.60527e-08 -3.15963e-06 -7.3655e-08 -3.15953e-06)
(2.66311e-07 -2.90337e-08 2.95507e-08 -3.23683e-06 -7.54516e-08 -3.23651e-06)
(2.56786e-07 2.84619e-08 -2.80291e-08 -3.22182e-06 -7.45693e-08 -3.2212e-06)
(-2.90221e-06 5.36537e-08 -5.34783e-08 -3.12085e-06 -7.14201e-08 -3.12026e-06)
(-2.41025e-06 2.88788e-08 1.7452e-08 5.58321e-07 -1.64233e-07 -1.20956e-07)
(-1.36826e-07 -5.96968e-08 1.03535e-08 3.61467e-07 -1.79116e-07 -1.61828e-07)
(-1.36343e-07 7.20167e-08 -8.91807e-09 3.50681e-07 -1.73907e-07 -1.62543e-07)
(-2.36682e-06 -2.28193e-08 -1.58641e-08 5.22255e-07 -1.47778e-07 -1.25652e-07)
(-2.39345e-06 -1.06096e-08 3.01816e-08 1.5641e-07 -9.43216e-08 -1.57393e-07)
(-2.16877e-07 -1.56637e-08 1.83397e-08 2.58882e-07 -1.03584e-07 -2.14769e-07)
(-2.16255e-07 2.34261e-08 -1.55664e-08 2.47714e-07 -1.00157e-07 -2.16867e-07)
(-2.34812e-06 1.39475e-08 -2.76615e-08 1.22604e-07 -8.27768e-08 -1.67291e-07)
(-2.42314e-06 -5.79259e-09 3.09995e-08 1.66137e-07 -7.79576e-08 -1.43404e-07)
(-2.1981e-07 -3.97143e-09 1.91001e-08 2.1935e-07 -7.9799e-08 -1.994e-07)
(-2.19299e-07 9.47952e-09 -1.61027e-08 2.09232e-07 -7.72935e-08 -2.02422e-07)
(-2.37667e-06 8.05637e-09 -2.83502e-08 1.36641e-07 -6.91106e-08 -1.56141e-07)
(-2.47644e-06 3.09692e-09 3.0308e-08 1.96226e-07 -7.61945e-08 -1.27364e-07)
(-2.15756e-07 2.03037e-09 1.86572e-08 2.21274e-07 -7.37194e-08 -1.84661e-07)
(-2.15267e-07 1.86488e-09 -1.59022e-08 2.11913e-07 -7.16529e-08 -1.88228e-07)
(-2.42856e-06 -1.47117e-09 -2.77225e-08 1.69141e-07 -6.88507e-08 -1.41686e-07)
(-2.5632e-06 5.13264e-09 3.13855e-08 2.28588e-07 -8.36871e-08 -1.10474e-07)
(-2.11616e-07 2.80779e-09 1.94354e-08 2.4914e-07 -8.03858e-08 -1.73922e-07)
(-2.1103e-07 -3.96802e-10 -1.69453e-08 2.40145e-07 -7.85276e-08 -1.77817e-07)
(-2.51378e-06 -4.14486e-09 -2.88643e-08 2.02785e-07 -7.72304e-08 -1.25722e-07)
(-2.69823e-06 -7.20239e-09 3.42872e-08 2.51792e-07 -9.90919e-08 -7.54612e-08)
(-1.75869e-07 -6.01954e-09 2.15674e-08 2.48264e-07 -9.69445e-08 -1.47972e-07)
(-1.75403e-07 6.99628e-09 -1.9206e-08 2.39709e-07 -9.52103e-08 -1.52156e-07)
(-2.64832e-06 7.20421e-09 -3.17888e-08 2.27031e-07 -9.32498e-08 -9.14346e-08)
(-2.88123e-06 -3.76639e-08 3.8175e-08 1.04432e-08 -1.07449e-07 8.81448e-09)
(-6.45173e-08 -2.31723e-08 2.41893e-08 -7.06369e-08 -1.06717e-07 -7.09998e-08)
(-6.56686e-08 2.2846e-08 -2.19631e-08 -7.6303e-08 -1.0521e-07 -7.57811e-08)
(-2.83678e-06 3.59818e-08 -3.57669e-08 -8.92214e-09 -1.02528e-07 -8.44976e-09)
(-2.91232e-06 -5.46568e-08 4.15274e-08 -3.159e-06 -6.90497e-08 1.45828e-07)
(9.58509e-08 -2.87926e-08 2.56003e-08 -3.20693e-06 -6.82792e-08 6.73611e-08)
(9.02119e-08 2.80996e-08 -2.43646e-08 -3.18812e-06 -6.74312e-08 6.12787e-08)
(-2.89677e-06 5.22624e-08 -3.9738e-08 -3.11288e-06 -6.66049e-08 1.25768e-07)
(-2.19306e-06 5.00152e-08 1.70595e-10 5.08391e-07 -8.94386e-08 3.24542e-08)
(-1.80557e-07 -4.305e-08 1.53535e-09 3.067e-07 -1.08999e-07 3.26133e-08)
(-1.79642e-07 4.95552e-08 4.04343e-10 2.96453e-07 -1.04563e-07 3.1067e-08)
(-2.14835e-06 -4.62211e-08 6.88809e-10 4.76483e-07 -7.57555e-08 2.75975e-08)
(-2.21839e-06 -3.72069e-09 5.25622e-09 1.78557e-07 -8.50476e-08 3.37447e-08)
(-3.06793e-07 -1.24456e-08 4.74006e-09 2.80193e-07 -9.31329e-08 3.61507e-08)
(-3.052e-07 1.55547e-08 -1.38097e-09 2.69302e-07 -8.94773e-08 3.2621e-08)
(-2.17025e-06 5.26068e-09 -3.68552e-09 1.4559e-07 -7.33948e-08 2.30217e-08)
(-2.253e-06 -6.02064e-09 6.83771e-09 1.91112e-07 -8.86033e-08 4.93612e-08)
(-3.21332e-07 -5.45297e-09 5.66994e-09 2.48842e-07 -8.94471e-08 5.32759e-08)
(-3.19649e-07 7.3244e-09 -2.20977e-09 2.38942e-07 -8.64187e-08 4.85416e-08)
(-2.20317e-06 6.83742e-09 -5.1646e-09 1.61804e-07 -7.87157e-08 3.5103e-08)
(-2.30295e-06 1.9192e-09 6.37195e-09 2.01275e-07 -9.64151e-08 7.73607e-08)
(-3.16594e-07 4.06827e-10 5.33484e-09 2.2887e-07 -9.37726e-08 8.08165e-08)
(-3.14822e-07 7.55053e-10 -2.21255e-09 2.1969e-07 -9.11436e-08 7.53503e-08)
(-2.25135e-06 -1.3828e-09 -4.80287e-09 1.7422e-07 -8.77973e-08 6.09363e-08)
(-2.38557e-06 4.9856e-09 5.86548e-09 2.01371e-07 -1.05533e-07 1.14982e-07)
(-3.1178e-07 2.41612e-09 5.17036e-09 2.21903e-07 -1.02488e-07 1.16753e-07)
(-3.09818e-07 -1.95756e-09 -2.39954e-09 2.13097e-07 -1.00127e-07 1.10787e-07)
(-2.3321e-06 -4.77339e-09 -4.41499e-09 1.75663e-07 -9.78805e-08 9.70894e-08)
(-2.51695e-06 -5.82747e-09 6.10591e-09 1.85572e-07 -1.09823e-07 1.70744e-07)
(-2.79154e-07 -4.95762e-09 5.80932e-09 1.82357e-07 -1.07994e-07 1.70618e-07)
(-2.77261e-07 4.70812e-09 -3.31488e-09 1.74089e-07 -1.05905e-07 1.64205e-07)
(-2.46254e-06 5.3273e-09 -4.75175e-09 1.61185e-07 -1.0311e-07 1.51593e-07)
(-2.69893e-06 -3.38695e-08 7.77774e-09 -6.94194e-08 -9.52888e-08 2.47566e-07)
(-1.76049e-07 -2.07388e-08 7.34856e-09 -1.43893e-07 -9.37779e-08 2.46338e-07)
(-1.75812e-07 1.99203e-08 -5.33457e-09 -1.49195e-07 -9.21824e-08 2.39402e-07)
(-2.64929e-06 3.19348e-08 -6.62579e-09 -8.83459e-08 -9.00831e-08 2.27042e-07)
(-2.76411e-06 -4.94751e-08 1.08369e-08 -2.98927e-06 -4.19863e-08 3.09957e-07)
(-2.78146e-08 -2.60257e-08 7.9476e-09 -3.00165e-06 -3.84069e-08 3.07752e-07)
(-3.22246e-08 2.52839e-08 -7.45809e-09 -2.98241e-06 -3.7778e-08 3.0034e-07)
(-2.74186e-06 4.69577e-08 -1.03935e-08 -2.94323e-06 -3.99596e-08 2.88231e-07)
(-2.05441e-06 5.41481e-08 -4.97091e-09 4.88587e-07 -6.43466e-08 1.67315e-08)
(-1.88215e-07 -3.74846e-08 -2.17374e-09 2.86806e-07 -7.39028e-08 2.81949e-08)
(-1.87897e-07 4.10125e-08 4.00715e-09 2.77681e-07 -7.06006e-08 2.69745e-08)
(-2.01245e-06 -5.19349e-08 5.52794e-09 4.61615e-07 -5.42517e-08 1.31948e-08)
(-2.09102e-06 -1.08579e-09 -5.63493e-09 1.69137e-07 -7.27351e-08 3.23158e-08)
(-3.31194e-07 -1.11778e-08 -2.60782e-09 2.69377e-07 -7.55685e-08 5.23208e-08)
(-3.30177e-07 1.18792e-08 5.823e-09 2.59151e-07 -7.24947e-08 4.93781e-08)
(-2.0451e-06 1.66649e-09 6.74938e-09 1.37954e-07 -6.32117e-08 2.3854e-08)
(-2.13024e-06 -5.76664e-09 -4.87443e-09 1.82605e-07 -8.33647e-08 5.24854e-08)
(-3.53646e-07 -6.03857e-09 -2.25964e-09 2.42621e-07 -8.24793e-08 7.46364e-08)
(-3.52341e-07 5.98758e-09 5.57749e-09 2.32958e-07 -7.97026e-08 7.05414e-08)
(-2.08216e-06 5.85075e-09 6.08661e-09 1.53698e-07 -7.46404e-08 4.06432e-08)
(-2.17929e-06 1.05834e-09 -5.05129e-09 1.85113e-07 -9.4306e-08 8.40009e-08)
(-3.49099e-07 -5.62097e-10 -2.44869e-09 2.14445e-07 -9.14496e-08 1.06003e-07)
(-3.47583e-07 2.91703e-10 5.43694e-09 2.05317e-07 -8.89279e-08 1.01115e-07)
(-2.12917e-06 -1.07847e-09 6.1632e-09 1.57935e-07 -8.63427e-08 6.97811e-08)
(-2.25849e-06 4.17247e-09 -5.80327e-09 1.70505e-07 -1.0077e-07 1.26008e-07)
(-3.41887e-07 1.91574e-09 -2.87818e-09 1.91107e-07 -9.76434e-08 1.47434e-07)
(-3.40115e-07 -2.41339e-09 5.48986e-09 1.82311e-07 -9.53587e-08 1.41949e-07)
(-2.20633e-06 -4.33565e-09 6.77791e-09 1.44558e-07 -9.35836e-08 1.10001e-07)
(-2.38553e-06 -5.49374e-09 -6.31075e-09 1.43731e-07 -9.54529e-08 1.76047e-07)
(-3.08401e-07 -4.33227e-09 -2.92663e-09 1.41587e-07 -9.32451e-08 1.97187e-07)
(-3.06664e-07 3.57598e-09 5.16777e-09 1.3332e-07 -9.12735e-08 1.91201e-07)
(-2.33228e-06 4.79546e-09 7.14427e-09 1.1911e-07 -8.92327e-08 1.58568e-07)
(-2.56457e-06 -3.07092e-08 -5.56744e-09 -9.78027e-08 -7.07042e-08 2.22139e-07)
(-2.09617e-07 -1.84287e-08 -2.20611e-09 -1.6388e-07 -6.87476e-08 2.43312e-07)
(-2.09526e-07 1.74577e-08 3.81255e-09 -1.69274e-07 -6.73293e-08 2.36913e-07)
(-2.51572e-06 2.87136e-08 6.14842e-09 -1.17208e-07 -6.60717e-08 2.03455e-07)
(-2.64732e-06 -4.42628e-08 -3.93612e-09 -2.86492e-06 -2.42058e-08 2.36726e-07)
(-7.02654e-08 -2.3048e-08 -2.52992e-09 -2.85378e-06 -2.06999e-08 2.57796e-07)
(-7.48402e-08 2.22092e-08 2.56951e-09 -2.83464e-06 -2.02085e-08 2.51219e-07)
(-2.62457e-06 4.16702e-08 3.83012e-09 -2.81963e-06 -2.25284e-08 2.17461e-07)
(-1.97273e-06 5.21476e-08 -4.26392e-09 4.72603e-07 -5.1958e-08 1.17457e-08)
(-1.83275e-07 -3.77865e-08 -2.25861e-09 2.73753e-07 -5.39008e-08 1.92923e-08)
(-1.83575e-07 3.96666e-08 3.70423e-09 2.65651e-07 -5.15648e-08 1.83661e-08)
(-1.93353e-06 -5.09675e-08 4.67927e-09 4.49657e-07 -4.4891e-08 9.07125e-09)
(-2.0105e-06 -1.14548e-09 -6.3392e-09 1.54641e-07 -6.06248e-08 3.45513e-08)
(-3.25928e-07 -1.15764e-08 -3.64825e-09 2.53602e-07 -5.95721e-08 4.77756e-08)
(-3.25656e-07 1.09569e-08 6.27411e-09 2.44073e-07 -5.72711e-08 4.54579e-08)
(-1.96723e-06 1.17481e-09 7.20307e-09 1.25329e-07 -5.36035e-08 2.79035e-08)
(-2.05118e-06 -5.80427e-09 -6.36659e-09 1.6433e-07 -7.03287e-08 6.00967e-08)
(-3.50442e-07 -6.47814e-09 -3.75397e-09 2.24795e-07 -6.82081e-08 7.46934e-08)
(-3.49748e-07 5.36141e-09 6.52593e-09 2.15418e-07 -6.6015e-08 7.13659e-08)
(-2.00548e-06 5.49132e-09 7.32848e-09 1.36074e-07 -6.35552e-08 5.04789e-08)
(-2.09978e-06 5.17175e-10 -6.49499e-09 1.6334e-07 -7.89926e-08 9.22296e-08)
(-3.45748e-07 -1.13657e-09 -3.89135e-09 1.93314e-07 -7.62429e-08 1.06559e-07)
(-3.44738e-07 6.5479e-11 6.4123e-09 1.84242e-07 -7.41789e-08 1.02462e-07)
(-2.05183e-06 -8.41786e-10 7.38229e-09 1.36173e-07 -7.2573e-08 8.02884e-08)
(-2.17677e-06 3.49644e-09 -7.00891e-09 1.46314e-07 -8.14951e-08 1.2994e-07)
(-3.36403e-07 1.49172e-09 -4.22583e-09 1.66887e-07 -7.87473e-08 1.43566e-07)
(-3.35082e-07 -2.51501e-09 6.41049e-09 1.5805e-07 -7.68514e-08 1.38848e-07)
(-2.12666e-06 -3.86385e-09 7.77195e-09 1.20101e-07 -7.5592e-08 1.1611e-07)
(-2.30084e-06 -5.37578e-09 -7.42073e-09 1.22676e-07 -7.21387e-08 1.66824e-07)
(-3.01446e-07 -4.00168e-09 -4.38796e-09 1.21505e-07 -7.01066e-08 1.7989e-07)
(-3.0013e-07 2.97688e-09 6.19818e-09 1.13141e-07 -6.84811e-08 1.74664e-07)
(-2.24955e-06 4.57592e-09 8.03886e-09 9.76553e-08 -6.7028e-08 1.51448e-07)
(-2.4777e-06 -2.85109e-08 -7.02712e-09 -1.05119e-07 -4.84939e-08 1.90314e-07)
(-2.05057e-07 -1.68041e-08 -4.10336e-09 -1.64936e-07 -4.68316e-08 2.03208e-07)
(-2.05365e-07 1.57401e-08 5.29039e-09 -1.70507e-07 -4.56867e-08 1.97624e-07)
(-2.43059e-06 2.6485e-08 7.39818e-09 -1.25113e-07 -4.47342e-08 1.7381e-07)
(-2.56959e-06 -4.0586e-08 -6.29114e-09 -2.7898e-06 -1.50219e-08 1.86368e-07)
(-7.11202e-08 -2.09193e-08 -4.74982e-09 -2.76467e-06 -1.25818e-08 1.99952e-07)
(-7.60916e-08 1.9988e-08 4.54756e-09 -2.74572e-06 -1.21941e-08 1.94285e-07)
(-2.54774e-06 3.79362e-08 6.05721e-09 -2.74525e-06 -1.36694e-08 1.69482e-07)
(-1.92409e-06 4.95453e-08 -2.60095e-09 4.57858e-07 -3.90556e-08 1.21497e-08)
(-1.77353e-07 -3.92427e-08 -1.35072e-09 2.62505e-07 -3.81414e-08 1.53319e-08)
(-1.7809e-07 4.01962e-08 2.36536e-09 2.5517e-07 -3.65943e-08 1.4592e-08)
(-1.88696e-06 -4.89946e-08 2.89742e-09 4.37789e-07 -3.44291e-08 1.00348e-08)
(-1.96083e-06 -1.88004e-09 -4.16532e-09 1.40813e-07 -4.58322e-08 3.89043e-08)
(-3.15361e-07 -1.23514e-08 -2.36187e-09 2.38986e-07 -4.35714e-08 4.39032e-08)
(-3.15642e-07 1.09918e-08 4.26e-09 2.30015e-07 -4.20066e-08 4.20149e-08)
(-1.91963e-06 1.59329e-09 4.79692e-09 1.13017e-07 -4.11049e-08 3.35292e-08)
(-2.00133e-06 -6.04474e-09 -4.41693e-09 1.47304e-07 -5.26395e-08 6.7509e-08)
(-3.38917e-07 -6.86637e-09 -2.55399e-09 2.07472e-07 -5.03545e-08 7.25553e-08)
(-3.38697e-07 5.14199e-09 4.60737e-09 1.98359e-07 -4.88158e-08 6.97859e-08)
(-1.95753e-06 5.50856e-09 5.1357e-09 1.19711e-07 -4.79268e-08 5.95497e-08)
(-2.04936e-06 1.8133e-10 -4.54918e-09 1.45166e-07 -5.78293e-08 9.85127e-08)
(-3.33519e-07 -1.4704e-09 -2.66143e-09 1.75119e-07 -5.55884e-08 1.0294e-07)
(-3.32909e-07 -7.24935e-11 4.55735e-09 1.66116e-07 -5.41032e-08 9.94514e-08)
(-2.00319e-06 -6.82016e-10 5.22263e-09 1.18125e-07 -5.32383e-08 8.83762e-08)
(-2.125e-06 3.11778e-09 -4.83309e-09 1.30336e-07 -5.76866e-08 1.29789e-07)
(-3.22771e-07 1.25034e-09 -2.85569e-09 1.50709e-07 -5.56551e-08 1.33345e-07)
(-3.21807e-07 -2.59715e-09 4.49974e-09 1.41839e-07 -5.42718e-08 1.29243e-07)
(-2.07658e-06 -3.60887e-09 5.41338e-09 1.03951e-07 -5.33915e-08 1.17773e-07)
(-2.2473e-06 -5.25887e-09 -5.04694e-09 1.12551e-07 -4.88433e-08 1.55105e-07)
(-2.86919e-07 -3.79396e-09 -2.96682e-09 1.11895e-07 -4.73797e-08 1.57892e-07)
(-2.85935e-07 2.58897e-09 4.30448e-09 1.0344e-07 -4.61903e-08 1.53285e-07)
(-2.19764e-06 4.39207e-09 5.50833e-09 8.72032e-08 -4.50986e-08 1.41516e-07)
(-2.42277e-06 -2.71356e-08 -4.81952e-09 -1.06604e-07 -3.12564e-08 1.65517e-07)
(-1.92059e-07 -1.5824e-08 -2.87593e-09 -1.62688e-07 -3.01842e-08 1.68001e-07)
(-1.9268e-07 1.46809e-08 3.70645e-09 -1.68403e-07 -2.93494e-08 1.63057e-07)
(-2.37714e-06 2.50835e-08 5.07932e-09 -1.27052e-07 -2.84992e-08 1.50811e-07)
(-2.51961e-06 -3.83489e-08 -4.47033e-09 -2.74527e-06 -9.48724e-09 1.54413e-07)
(-6.13945e-08 -1.9648e-08 -3.45053e-09 -2.71268e-06 -8.07707e-09 1.5769e-07)
(-6.66733e-08 1.86431e-08 3.19973e-09 -2.69391e-06 -7.79378e-09 1.52707e-07)
(-2.49871e-06 3.56551e-08 4.25931e-09 -2.70134e-06 -8.48942e-09 1.39407e-07)
(-1.89643e-06 4.78247e-08 -1.30648e-09 4.46555e-07 -2.42485e-08 1.34654e-08)
(-1.73452e-07 -4.02656e-08 -6.12577e-10 2.53853e-07 -2.31063e-08 1.44822e-08)
(-1.74459e-07 4.07276e-08 1.21052e-09 2.47014e-07 -2.22256e-08 1.38528e-08)
(-1.86064e-06 -4.7627e-08 1.48391e-09 4.28306e-07 -2.16391e-08 1.16966e-08)
(-1.93219e-06 -2.43742e-09 -2.10806e-09 1.30212e-07 -2.84439e-08 4.22685e-08)
(-3.0776e-07 -1.28882e-08 -1.08613e-09 2.28023e-07 -2.66665e-08 4.29974e-08)
(-3.08388e-07 1.11339e-08 2.22657e-09 2.19424e-07 -2.57635e-08 4.13722e-08)
(-1.89238e-06 1.98051e-09 2.49241e-09 1.0344e-07 -2.57346e-08 3.77031e-08)
(-1.97217e-06 -6.26066e-09 -2.286e-09 1.35203e-07 -3.23322e-08 7.1839e-08)
(-3.29928e-07 -7.12645e-09 -1.19761e-09 1.95005e-07 -3.07116e-08 7.17223e-08)
(-3.30009e-07 5.06896e-09 2.45376e-09 1.86084e-07 -2.98081e-08 6.93046e-08)
(-1.92968e-06 5.60344e-09 2.73053e-09 1.08116e-07 -2.9578e-08 6.49643e-08)
(-2.01969e-06 -1.75035e-11 -2.38113e-09 1.33205e-07 -3.48338e-08 1.01126e-07)
(-3.23752e-07 -1.65463e-09 -1.26249e-09 1.62936e-07 -3.33971e-08 1.00088e-07)
(-3.234e-07 -1.58888e-10 2.43782e-09 1.53997e-07 -3.25111e-08 9.69936e-08)
(-1.97474e-06 -5.83004e-10 2.80336e-09 1.06309e-07 -3.21026e-08 9.22067e-08)
(-2.09454e-06 2.93655e-09 -2.52051e-09 1.20993e-07 -3.39091e-08 1.27301e-07)
(-3.12188e-07 1.1359e-09 -1.35906e-09 1.41111e-07 -3.26943e-08 1.25332e-07)
(-3.11453e-07 -2.68047e-09 2.38279e-09 1.32228e-07 -3.18602e-08 1.2164e-07)
(-2.0473e-06 -3.50242e-09 2.88668e-09 9.45287e-08 -3.13207e-08 1.16539e-07)
(-2.2159e-06 -5.158e-09 -2.61252e-09 1.0756e-07 -2.79835e-08 1.45188e-07)
(-2.75956e-07 -3.66605e-09 -1.41667e-09 1.07072e-07 -2.71486e-08 1.42463e-07)
(-2.75182e-07 2.33963e-09 2.24371e-09 9.85597e-08 -2.64276e-08 1.38269e-07)
(-2.16736e-06 4.24629e-09 2.9023e-09 8.20121e-08 -2.57095e-08 1.32847e-07)
(-2.39057e-06 -2.63529e-08 -2.49099e-09 -1.06899e-07 -1.75297e-08 1.48748e-07)
(-1.82092e-07 -1.52949e-08 -1.39894e-09 -1.61065e-07 -1.69827e-08 1.45744e-07)
(-1.82909e-07 1.40907e-08 1.89833e-09 -1.6687e-07 -1.64759e-08 1.41221e-07)
(-2.34597e-06 2.42799e-08 2.65027e-09 -1.27634e-07 -1.58487e-08 1.35281e-07)
(-2.4901e-06 -3.7121e-08 -2.31526e-09 -2.71999e-06 -5.32141e-09 1.3441e-07)
(-5.3397e-08 -1.89738e-08 -1.75885e-09 -2.68386e-06 -4.63832e-09 1.32097e-07)
(-5.88692e-08 1.79176e-08 1.57395e-09 -2.66523e-06 -4.4657e-09 1.2756e-07)
(-2.4699e-06 3.43971e-08 2.17656e-09 -2.6765e-06 -4.70967e-09 1.20688e-07)
(-1.88383e-06 4.70399e-08 -3.91657e-10 4.40496e-07 -8.21653e-09 1.43139e-08)
(-1.71656e-07 -4.07158e-08 -1.67621e-10 2.49146e-07 -7.773e-09 1.45986e-08)
(-1.72792e-07 4.09674e-08 3.64922e-10 2.42551e-07 -7.48729e-09 1.4022e-08)
(-1.84872e-06 -4.70004e-08 4.50529e-10 4.23126e-07 -7.37417e-09 1.27125e-08)
(-1.91912e-06 -2.68964e-09 -6.24356e-10 1.2451e-07 -9.62229e-09 4.39881e-08)
(-3.04188e-07 -1.31226e-08 -2.92893e-10 2.22198e-07 -8.98331e-09 4.32621e-08)
(-3.04983e-07 1.11979e-08 6.72736e-10 2.13784e-07 -8.68854e-09 4.17637e-08)
(-1.88e-06 2.15879e-09 7.53025e-10 9.8248e-08 -8.74099e-09 3.98182e-08)
(-1.95877e-06 -6.36847e-09 -6.80409e-10 1.29038e-07 -1.08754e-08 7.3655e-08)
(-3.25568e-07 -7.24507e-09 -3.23464e-10 1.88638e-07 -1.03036e-08 7.17306e-08)
(-3.25797e-07 5.04003e-09 7.45682e-10 1.79817e-07 -1.00063e-08 6.94843e-08)
(-1.91694e-06 5.65799e-09 8.30476e-10 1.02219e-07 -9.97118e-09 6.73163e-08)
(-2.006e-06 -1.09689e-10 -7.13487e-10 1.27415e-07 -1.15946e-08 1.01769e-07)
(-3.18935e-07 -1.73613e-09 -3.44109e-10 1.5699e-07 -1.11036e-08 9.87816e-08)
(-3.18709e-07 -2.01863e-10 7.42036e-10 1.48086e-07 -1.08099e-08 9.58819e-08)
(-1.96168e-06 -5.36482e-10 8.57068e-10 1.0061e-07 -1.06901e-08 9.34603e-08)
(-2.08049e-06 2.86397e-09 -7.55719e-10 1.16714e-07 -1.11478e-08 1.25289e-07)
(-3.06993e-07 1.09041e-09 -3.73409e-10 1.36668e-07 -1.07464e-08 1.21364e-07)
(-3.06371e-07 -2.73043e-09 7.21116e-10 1.27782e-07 -1.04682e-08 1.17875e-07)
(-2.03384e-06 -3.46577e-09 8.80725e-10 9.02254e-08 -1.02846e-08 1.15165e-07)
(-2.20143e-06 -5.10257e-09 -7.81151e-10 1.05412e-07 -9.09462e-09 1.39708e-07)
(-2.70638e-07 -3.60623e-09 -3.91372e-10 1.04949e-07 -8.82766e-09 1.35076e-07)
(-2.69967e-07 2.21751e-09 6.7162e-10 9.64105e-08 -8.58641e-09 1.31088e-07)
(-2.15347e-06 4.16784e-09 8.79944e-10 7.97746e-08 -8.33283e-09 1.28001e-07)
(-2.37575e-06 -2.59992e-08 -7.42754e-10 -1.06978e-07 -5.65355e-09 1.40322e-07)
(-1.77279e-07 -1.50664e-08 -3.91036e-10 -1.6036e-07 -5.49126e-09 1.35464e-07)
(-1.78192e-07 1.38287e-08 5.58241e-10 -1.66209e-07 -5.32138e-09 1.31149e-07)
(-2.33167e-06 2.39146e-08 7.96496e-10 -1.27849e-07 -5.08888e-09 1.27484e-07)
(-2.47649e-06 -3.65817e-08 -6.86332e-10 -2.70845e-06 -1.71819e-09 1.24611e-07)
(-4.95436e-08 -1.8687e-08 -5.10845e-10 -2.67096e-06 -1.51912e-09 1.20369e-07)
(-5.51097e-08 1.76041e-08 4.43973e-10 -2.65239e-06 -1.46115e-09 1.16053e-07)
(-2.45667e-06 3.38422e-08 6.38154e-10 -2.66518e-06 -1.5121e-09 1.1154e-07)
)
;

boundaryField
{
    interface
    {
        type            calculated;
        value           nonuniform List<symmTensor> 
192
(
(-4.85788e-06 1.16182e-12 3.18641e-11 7.0402e-07 -2.49788e-08 -2.76436e-06)
(-4.67777e-06 -4.21205e-13 4.24613e-11 1.44685e-08 -4.24844e-08 -2.70965e-06)
(-4.75646e-06 -2.59952e-12 4.32472e-11 8.97844e-08 -3.38657e-08 -2.74098e-06)
(-4.86558e-06 -4.85277e-12 4.25304e-11 1.6609e-07 -2.79528e-08 -2.78994e-06)
(-5.02423e-06 -7.01856e-12 4.09375e-11 2.32965e-07 -2.99531e-08 -2.86646e-06)
(-5.28615e-06 -1.14767e-11 3.8927e-11 3.10295e-07 -4.39143e-08 -2.99037e-06)
(-5.68453e-06 -1.43497e-11 3.47704e-11 1.46181e-07 -6.94142e-08 -3.1592e-06)
(-5.82169e-06 -3.06068e-11 3.12001e-11 -3.15963e-06 -7.3655e-08 -3.15953e-06)
(-4.506e-06 4.94831e-13 1.68425e-11 5.58321e-07 -1.64233e-07 -1.20956e-07)
(-4.37575e-06 -1.13534e-12 2.318e-11 1.5641e-07 -9.43216e-08 -1.57393e-07)
(-4.4377e-06 -3.3027e-12 2.3414e-11 1.66137e-07 -7.79576e-08 -1.43404e-07)
(-4.54364e-06 -5.82087e-12 2.27024e-11 1.96226e-07 -7.61945e-08 -1.27364e-07)
(-4.71147e-06 -8.27811e-12 2.14472e-11 2.28588e-07 -8.36871e-08 -1.10474e-07)
(-4.99763e-06 -1.33955e-11 1.9919e-11 2.51792e-07 -9.90919e-08 -7.54612e-08)
(-5.45047e-06 -1.66016e-11 1.7269e-11 1.04432e-08 -1.07449e-07 8.81448e-09)
(-5.6847e-06 -3.41933e-11 1.50168e-11 -3.159e-06 -6.90497e-08 1.45828e-07)
(-4.04002e-06 4.32248e-13 1.38747e-11 5.08391e-07 -8.94386e-08 3.24542e-08)
(-3.95273e-06 -1.41237e-12 1.89442e-11 1.78557e-07 -8.50476e-08 3.37447e-08)
(-4.01482e-06 -3.85505e-12 1.91304e-11 1.91112e-07 -8.86033e-08 4.93612e-08)
(-4.1154e-06 -6.74559e-12 1.85442e-11 2.01275e-07 -9.64151e-08 7.73607e-08)
(-4.27641e-06 -9.61593e-12 1.75173e-11 2.01371e-07 -1.05533e-07 1.14982e-07)
(-4.55393e-06 -1.54597e-11 1.62308e-11 1.85572e-07 -1.09823e-07 1.70744e-07)
(-4.99873e-06 -1.92509e-11 1.415e-11 -6.94194e-08 -9.52888e-08 2.47566e-07)
(-5.28706e-06 -3.83819e-11 1.22245e-11 -2.98927e-06 -4.19863e-08 3.09957e-07)
(-3.76457e-06 1.92795e-13 9.03959e-12 4.88587e-07 -6.43466e-08 1.67315e-08)
(-3.6869e-06 -1.79191e-12 1.25839e-11 1.69137e-07 -7.27351e-08 3.23158e-08)
(-3.75115e-06 -4.37029e-12 1.26711e-11 1.82605e-07 -8.33647e-08 5.24854e-08)
(-3.85008e-06 -7.46611e-12 1.21992e-11 1.85113e-07 -9.4306e-08 8.40009e-08)
(-4.00719e-06 -1.05641e-11 1.14322e-11 1.70505e-07 -1.0077e-07 1.26008e-07)
(-4.27841e-06 -1.67639e-11 1.049e-11 1.43731e-07 -9.54529e-08 1.76047e-07)
(-4.71501e-06 -2.0804e-11 9.11158e-12 -9.78027e-08 -7.07042e-08 2.22139e-07)
(-5.0277e-06 -4.04691e-11 7.8441e-12 -2.86492e-06 -2.42058e-08 2.36726e-07)
(-3.60987e-06 1.21709e-13 6.74422e-12 4.72603e-07 -5.1958e-08 1.17457e-08)
(-3.53561e-06 -2.00364e-12 9.35702e-12 1.54641e-07 -6.06248e-08 3.45513e-08)
(-3.60078e-06 -4.74493e-12 9.42679e-12 1.6433e-07 -7.03287e-08 6.00967e-08)
(-3.69903e-06 -8.02538e-12 9.07657e-12 1.6334e-07 -7.89926e-08 9.22296e-08)
(-3.85406e-06 -1.13288e-11 8.50967e-12 1.46314e-07 -8.14951e-08 1.2994e-07)
(-4.12153e-06 -1.78137e-11 7.80023e-12 1.22676e-07 -7.21387e-08 1.66824e-07)
(-4.5525e-06 -2.20887e-11 6.80698e-12 -1.05119e-07 -4.84939e-08 1.90314e-07)
(-4.87663e-06 -4.21897e-11 5.85172e-12 -2.7898e-06 -1.50219e-08 1.86368e-07)
(-3.51984e-06 4.5233e-14 4.35322e-12 4.57858e-07 -3.90556e-08 1.21497e-08)
(-3.44759e-06 -2.17766e-12 6.0915e-12 1.40813e-07 -4.58322e-08 3.89043e-08)
(-3.51297e-06 -5.02522e-12 6.13344e-12 1.47304e-07 -5.26395e-08 6.7509e-08)
(-3.61075e-06 -8.42254e-12 5.89229e-12 1.45166e-07 -5.78293e-08 9.85127e-08)
(-3.76455e-06 -1.18551e-11 5.5129e-12 1.30336e-07 -5.76866e-08 1.29789e-07)
(-4.02976e-06 -1.85049e-11 5.04014e-12 1.12551e-07 -4.88433e-08 1.55105e-07)
(-4.457e-06 -2.29124e-11 4.40778e-12 -1.06604e-07 -3.12564e-08 1.65517e-07)
(-4.7868e-06 -4.32568e-11 3.79814e-12 -2.74527e-06 -9.48724e-09 1.54413e-07)
(-3.46904e-06 1.47394e-14 2.54028e-12 4.46555e-07 -2.42485e-08 1.34654e-08)
(-3.39796e-06 -2.27578e-12 3.55438e-12 1.30212e-07 -2.84439e-08 4.22685e-08)
(-3.46332e-06 -5.20039e-12 3.58258e-12 1.35203e-07 -3.23322e-08 7.1839e-08)
(-3.56075e-06 -8.67631e-12 3.4437e-12 1.33205e-07 -3.48338e-08 1.01126e-07)
(-3.71384e-06 -1.21957e-11 3.22704e-12 1.20993e-07 -3.39091e-08 1.27301e-07)
(-3.97775e-06 -1.89504e-11 2.95092e-12 1.0756e-07 -2.79835e-08 1.45188e-07)
(-4.40272e-06 -2.3447e-11 2.5941e-12 -1.06899e-07 -1.75297e-08 1.48748e-07)
(-4.73534e-06 -4.39497e-11 2.23459e-12 -2.71999e-06 -5.32141e-09 1.3441e-07)
(-3.44596e-06 -4.6968e-15 8.20737e-13 4.40496e-07 -8.21653e-09 1.43139e-08)
(-3.3754e-06 -2.32638e-12 1.15519e-12 1.2451e-07 -9.62229e-09 4.39881e-08)
(-3.4407e-06 -5.28585e-12 1.16456e-12 1.29038e-07 -1.08754e-08 7.3655e-08)
(-3.53796e-06 -8.79667e-12 1.11824e-12 1.27415e-07 -1.15946e-08 1.01769e-07)
(-3.69072e-06 -1.23576e-11 1.04813e-12 1.16714e-07 -1.11478e-08 1.25289e-07)
(-3.95403e-06 -1.91572e-11 9.5675e-13 1.05412e-07 -9.09462e-09 1.39708e-07)
(-4.37793e-06 -2.36987e-11 8.44467e-13 -1.06978e-07 -5.65355e-09 1.40322e-07)
(-4.71174e-06 -4.42732e-11 7.25261e-13 -2.70845e-06 -1.71819e-09 1.24611e-07)
(-2.54092e-06 -7.58519e-09 -5.08976e-11 7.0402e-07 -3.76549e-12 -5.24332e-06)
(-2.47296e-06 -1.70723e-08 -6.90654e-11 1.44685e-08 -3.2974e-12 -5.06939e-06)
(-2.50921e-06 -4.10262e-09 -7.09031e-11 8.97844e-08 -2.01773e-12 -5.1458e-06)
(-2.56488e-06 4.53163e-09 -7.0569e-11 1.6609e-07 -1.74092e-12 -5.25045e-06)
(-2.64526e-06 4.64372e-09 -6.95716e-11 2.32965e-07 -1.72049e-12 -5.405e-06)
(-2.7633e-06 -9.77321e-09 -6.85303e-11 3.10295e-07 -2.19936e-12 -5.66773e-06)
(-2.91207e-06 -4.07915e-08 -6.67187e-11 1.46181e-07 -2.39826e-12 -6.08051e-06)
(-2.88995e-06 -5.57098e-08 -6.73378e-11 -3.15963e-06 -3.44255e-12 -6.25856e-06)
(-5.69779e-08 -7.58572e-08 -4.04406e-11 5.16679e-07 -1.50619e-12 -5.05998e-06)
(-8.36936e-08 -1.66395e-08 -5.71565e-11 1.15094e-07 -1.42474e-12 -4.93497e-06)
(-7.93847e-08 -7.01436e-10 -5.85717e-11 1.38583e-07 -7.3925e-13 -4.99667e-06)
(-7.65546e-08 5.20819e-09 -5.82013e-11 1.90137e-07 -4.31397e-13 -5.10229e-06)
(-7.0348e-08 4.73307e-09 -5.75755e-11 2.5367e-07 -2.08807e-13 -5.27305e-06)
(-2.69687e-08 -5.72852e-09 -5.70869e-11 3.0633e-07 -1.89494e-13 -5.5689e-06)
(9.63014e-08 -2.40958e-08 -5.64482e-11 6.68235e-08 -1.57294e-13 -6.04136e-06)
(2.66311e-07 -2.90337e-08 -5.80978e-11 -3.23683e-06 -4.24395e-13 -6.28227e-06)
(-5.95282e-08 1.00216e-07 -4.2623e-11 5.08029e-07 -7.32395e-13 -5.02347e-06)
(-8.71204e-08 3.36144e-08 -6.00328e-11 1.04059e-07 -5.23584e-13 -4.89472e-06)
(-8.30158e-08 1.31389e-08 -6.16412e-11 1.27822e-07 7.04435e-14 -4.95524e-06)
(-8.03244e-08 3.92829e-09 -6.12403e-11 1.80168e-07 5.6275e-13 -5.06056e-06)
(-7.41499e-08 1.68356e-09 -6.04508e-11 2.44197e-07 1.0331e-12 -5.2313e-06)
(-3.09774e-08 9.72993e-09 -5.96331e-11 2.97181e-07 1.48744e-12 -5.5273e-06)
(9.07575e-08 2.56443e-08 -5.8502e-11 5.98759e-08 1.8478e-12 -6.0004e-06)
(2.56786e-07 2.84619e-08 -5.94931e-11 -3.22182e-06 1.98908e-12 -6.24723e-06)
(-2.51944e-06 1.76221e-08 -4.94374e-11 6.71368e-07 -3.64439e-13 -5.14597e-06)
(-2.45069e-06 2.42655e-08 -6.90216e-11 -1.95566e-08 3.75654e-14 -4.96553e-06)
(-2.48637e-06 9.35267e-09 -7.09094e-11 5.89392e-08 6.83854e-13 -5.03974e-06)
(-2.54146e-06 -6.76253e-10 -7.04422e-11 1.37878e-07 1.33598e-12 -5.14369e-06)
(-2.62143e-06 -1.95943e-09 -6.93123e-11 2.06278e-07 1.95698e-12 -5.29799e-06)
(-2.74046e-06 1.10949e-08 -6.80682e-11 2.84353e-07 2.71162e-12 -5.56055e-06)
(-2.89636e-06 4.00919e-08 -6.58553e-11 1.2427e-07 3.28546e-12 -5.97333e-06)
(-2.90221e-06 5.36537e-08 -6.64078e-11 -3.12085e-06 4.13431e-12 -6.16279e-06)
(-4.80983e-06 4.03614e-12 2.6496e-11 6.71368e-07 -1.61018e-08 -2.71755e-06)
(-4.62638e-06 1.6715e-12 3.64189e-11 -1.95566e-08 -3.70119e-08 -2.66166e-06)
(-4.70352e-06 -2.06898e-12 3.70374e-11 5.89392e-08 -2.99758e-08 -2.69298e-06)
(-4.8112e-06 -4.91765e-12 3.64578e-11 1.37878e-07 -2.4853e-08 -2.74219e-06)
(-4.96896e-06 -7.3075e-12 3.53168e-11 2.06278e-07 -2.7286e-08 -2.81888e-06)
(-5.23245e-06 -1.15567e-11 3.43258e-11 2.84353e-07 -4.14116e-08 -2.94288e-06)
(-5.64202e-06 -1.29064e-11 3.15311e-11 1.2427e-07 -6.68053e-08 -3.11227e-06)
(-5.82716e-06 -3.04916e-11 3.12979e-11 -3.12085e-06 -7.14201e-08 -3.12026e-06)
(-4.42011e-06 1.00041e-12 1.01016e-11 5.22255e-07 -1.47778e-07 -1.25652e-07)
(-4.28633e-06 -6.90761e-13 1.5499e-11 1.22604e-07 -8.27768e-08 -1.67291e-07)
(-4.34579e-06 -3.14388e-12 1.54956e-11 1.36641e-07 -6.91106e-08 -1.56141e-07)
(-4.44884e-06 -5.62133e-12 1.49628e-11 1.69141e-07 -6.88507e-08 -1.41686e-07)
(-4.61382e-06 -7.6925e-12 1.43268e-11 2.02785e-07 -7.72304e-08 -1.25722e-07)
(-4.89873e-06 -1.20173e-11 1.40096e-11 2.27031e-07 -9.32498e-08 -9.14346e-08)
(-5.35927e-06 -1.20861e-11 1.29604e-11 -8.92214e-09 -1.02528e-07 -8.44976e-09)
(-5.6423e-06 -3.07402e-11 1.37981e-11 -3.11288e-06 -6.66049e-08 1.25768e-07)
(-3.95244e-06 4.14546e-13 1.06964e-11 4.76483e-07 -7.57555e-08 2.75975e-08)
(-3.85963e-06 -1.37884e-12 1.55984e-11 1.4559e-07 -7.33948e-08 2.30217e-08)
(-3.91853e-06 -3.71986e-12 1.581e-11 1.61804e-07 -7.87157e-08 3.5103e-08)
(-4.01576e-06 -6.3182e-12 1.53911e-11 1.7422e-07 -8.77973e-08 6.09363e-08)
(-4.17339e-06 -8.50107e-12 1.47584e-11 1.75663e-07 -9.78805e-08 9.70894e-08)
(-4.44888e-06 -1.32076e-11 1.41743e-11 1.61185e-07 -1.0311e-07 1.51593e-07)
(-4.89992e-06 -1.3121e-11 1.29833e-11 -8.83459e-08 -9.00831e-08 2.27042e-07)
(-5.23373e-06 -3.35392e-11 1.25676e-11 -2.94323e-06 -3.99596e-08 2.88231e-07)
(-3.6813e-06 5.90009e-14 7.0641e-12 4.61615e-07 -5.42517e-08 1.31948e-08)