/*--------------------------------*- C++ -*----------------------------------*\
| =========                 |                                                 |
| \\      /  F ield         | OpenFOAM: The Open Source CFD Toolbox           |
|  \\    /   O peration     | Version:  v1912                                 |
|   \\  /    A nd           | Website:  www.openfoam.com                      |
|    \\/     M anipulation  |                                                 |
\*---------------------------------------------------------------------------*/
FoamFile
{
    version     2.0;
    format      ascii;
    class       volVectorField;
    location    "0.16/solid";
    object      heatFlux;
}
// * * * * * * * * * * * * * * * * * * * * * * * * * * * * * * * * * * * * * //

dimensions      [1 0 -3 0 0 0 0];


internalField   nonuniform List<vector> 
256
(
(-98224.2 35158.6 -105111)
(-8469.22 17642.3 -95640.2)
(8549.78 17605 -94965.8)
(96983 35364 -102850)
(-98243.2 1391.59 -105183)
(-9084.47 723.751 -96163.5)
(9171.93 720.801 -95439.5)
(96925.3 1395.58 -102759)
(-99378.3 235.044 -106313)
(-9140.01 109.384 -97183.3)
(9221.61 107.977 -96434.1)
(98003.8 225.376 -103815)
(-101285 368.788 -108181)
(-9211.54 172.544 -98893.4)
(9287.93 171.812 -98132.5)
(99863 359.767 -105647)
(-104441 701.9 -111275)
(-9336.99 348.206 -101809)
(9408.83 348.029 -101044)
(102991 695.29 -108728)
(-109813 1769.02 -116599)
(-9565.41 1100.07 -107039)
(9635.01 1100.15 -106276)
(108393 1771.39 -114058)
(-119297 13162.5 -126207)
(-10005.9 11723.4 -117037)
(10080.2 11695.6 -116283)
(118081 13105.7 -123690)
(-130053 137856 -137852)
(-11032.3 130910 -130907)
(11017.3 130175 -130173)
(129472 135415 -135414)
(-84556.6 16312.1 -9878.17)
(-7217.01 1289.84 -8188.96)
(7395.52 1309.96 -8160.95)
(82907.8 16668.2 -9804.53)
(-85101.2 683.777 -10589.7)
(-7785.11 66.6956 -8832.1)
(7982.81 67.7083 -8800.89)
(83384.8 699.173 -10506.7)
(-86162.1 116.061 -10645.4)
(-7833.08 6.01387 -8879.91)
(8028 5.8203 -8847.83)
(84381.2 109.202 -10560.2)
(-87950.5 185.641 -10713.5)
(-7895.35 8.34841 -8938.34)
(8085.99 8.05798 -8905.9)
(86104.1 176.408 -10627.8)
(-90984.5 367.234 -10833.2)
(-8010.66 26.3156 -9047.88)
(8196.06 25.9533 -9015.36)
(89078.3 357.146 -10748.6)
(-96343 1112.43 -11054.1)
(-8236.63 406.492 -9268.29)
(8416.82 405.47 -9236.06)
(94412.7 1106.58 -10972.8)
(-106295 11509.6 -11509.2)
(-8717.62 9771.53 -9771.42)
(8896.14 9740.16 -9740.11)
(104494 11434.7 -11434.8)
(-119302 126215 -13162)
(-10006 117043 -11723.2)
(10080 116286 -11695.5)
(118079 123691 -13105.9)
(-74665 14690.8 -1016.4)
(-6752 621.275 -331.741)
(6934.21 643.115 -330.727)
(72939.6 15052.8 -1008.29)
(-75210.4 624.344 -1085.37)
(-7295.69 32.7989 -365.404)
(7497.35 33.9274 -364.275)
(73410.8 639.861 -1076.78)
(-76237.7 111.231 -1088.29)
(-7342.42 3.14451 -367.041)
(7541.27 2.97316 -365.895)
(74371 104.22 -1079.78)
(-77987.4 181.016 -1089.78)
(-7403.95 4.57148 -368.322)
(7598.43 4.28106 -367.172)
(76052.2 171.425 -1081.4)
(-80985.9 361.242 -1091.21)
(-7519.15 18.2583 -370.83)
(7708.12 17.8686 -369.687)
(78984.6 350.311 -1083.14)
(-86336 1093.02 -1092.65)
(-7747.32 376.529 -376.521)
(7930.48 375.403 -375.405)
(84296.5 1085.16 -1085.3)
(-96349.8 11054.6 -1112.05)
(-8236.77 9268.48 -406.481)
(8416.75 9236.15 -405.47)
(94409.9 10972.7 -1106.73)
(-109824 116614 -1768.22)
(-9565.81 107049 -1099.8)
(9634.68 106281 -1100.02)
(108388 114058 -1771.57)
(-69308 14210.3 -349.471)
(-6531.34 592.69 -16.5227)
(6718.97 614.961 -16.1647)
(67612 14583.1 -339.66)
(-69846.3 611.884 -367.227)
(-7064.01 31.3955 -18.0977)
(7271.43 32.5413 -17.7083)
(68074.2 627.68 -356.782)
(-70869.8 111.651 -367.112)
(-7110.68 3.09555 -18.139)
(7315.26 2.92249 -17.7504)
(69030.3 104.583 -356.693)
(-72621.6 182.718 -365.919)
(-7172.74 4.55907 -18.1259)
(7372.91 4.26531 -17.7397)
(70714 173.053 -355.542)
(-75630.4 364.363 -363.688)
(-7289.13 18.1175 -18.1056)
(7483.75 17.7209 -17.7231)
(73656.5 353.247 -353.373)
(-80997.1 1091.59 -360.557)
(-7519.39 370.842 -18.2463)
(7708.04 369.687 -17.8708)
(78981.9 1082.99 -350.432)
(-91002.8 10834 -366.508)
(-8011.04 9048.25 -26.2937)
(8195.9 9015.55 -25.9505)
(89072.8 10748.4 -357.27)
(-104465 111302 -700.347)
(-9337.83 101828 -347.639)
(9408.24 101055 -347.718)
(102983 108729 -695.412)
(-66287.6 13974.1 -176.424)
(-6418.69 586.654 -4.29067)
(6611.07 609.242 -4.03729)
(64634.1 14356.4 -168.557)
(-66824.9 606.702 -184.478)
(-6946.17 31.1826 -4.60023)
(7158.67 32.3416 -4.32398)
(65096.1 622.827 -176.038)
(-67853.1 112.539 -184.026)
(-6993.05 3.11631 -4.5922)
(7202.72 2.94176 -4.31636)
(66057.8 105.46 -175.573)
(-69616.2 184.441 -182.854)
(-7055.77 4.60489 -4.56196)
(7261.01 4.30837 -4.28842)
(67753.7 174.746 -174.429)
(-72641 366.603 -181.11)
(-7173.19 18.1379 -4.51567)
(7372.86 17.7376 -4.24498)
(70713.3 355.421 -172.719)
(-78018.3 1090.2 -179.362)
(-7404.63 368.341 -4.52625)
(7598.29 367.176 -4.25912)
(76049.1 1081.26 -171.051)
(-87989.6 10714.9 -183.856)
(-7896.21 8939.09 -8.25988)
(8085.77 8906.3 -8.00307)
(86098 10627.7 -175.975)
(-101332 108230 -364.952)
(-9213.18 98928.3 -170.935)
(9286.91 98153.7 -170.721)
(99853.4 105652 -358.894)
(-64543.4 13849.4 -92.7246)
(-6358.95 583.799 -2.06523)
(6554.7 606.6 -1.90159)
(62924.7 14238.5 -87.3678)
(-65081.7 604.283 -96.6742)
(-6883.86 31.094 -2.20288)
(7099.99 32.2622 -2.02424)
(63388.9 620.663 -90.9125)
(-66115.6 113.275 -96.2821)
(-6930.97 3.13382 -2.19466)
(7144.27 2.95805 -2.01625)
(64357.2 106.192 -90.5028)
(-67888.9 185.634 -95.4644)
(-6994.18 4.6356 -2.17434)
(7203.05 4.33669 -1.99779)
(66064.3 175.908 -89.71)
(-70925.7 367.855 -94.3908)
(-7112.27 18.1532 -2.14651)
(7315.55 17.7502 -1.97224)
(69036.8 356.625 -88.6699)
(-76306.6 1088.85 -93.5907)
(-7344.28 367.098 -2.1512)
(7541.52 365.929 -1.97912)
(74376.2 1079.73 -87.9212)
(-86241.7 10648.4 -96.7356)
(-7835.19 8881.84 -4.01025)
(8028.18 8849.08 -3.84033)
(84384.6 10560.6 -91.2783)
(-99468 106410 -195.935)
(-9143.59 97254.2 -89.0844)
(9220.28 96480.1 -88.8363)
(98002.3 103832 -191.15)
(-63573.8 13784.7 -45.3277)
(-6327.87 582.386 -0.970016)
(6525.77 605.316 -0.878796)
(61979.5 14178.1 -42.2388)
(-64113.1 603.145 -47.1642)
(-6851.52 31.0531 -1.0322)
(7069.96 32.227 -0.932595)
(62445.8 619.692 -43.8394)
(-65151.4 113.749 -46.9236)
(-6898.79 3.14484 -1.02709)
(7114.41 2.9682 -0.92762)
(63419.2 106.663 -43.5859)
(-66931.7 186.332 -46.4652)
(-6962.3 4.65304 -1.01601)
(7173.47 4.35238 -0.917725)
(65133.9 176.579 -43.145)
(-69975.5 368.477 -45.9095)
(-7080.77 18.161 -1.00191)
(7286.33 17.7562 -0.905101)
(68114.1 357.21 -42.6148)
(-75356.5 1087.85 -45.5921)
(-7313.02 366.478 -1.00499)
(7512.52 365.308 -0.909416)
(73453.6 1078.65 -42.3291)
(-85264.6 10612.5 -47.4146)
(-7803.32 8852.16 -1.88199)
(7998.51 8819.45 -1.78619)
(83432.4 10524.5 -44.2484)
(-98409 105377 -97.2664)
(-9106.09 96319.4 -43.4531)
(9184.85 95546.1 -43.2799)
(96955.8 102802 -94.3068)
(-63138.6 13756.9 -13.6268)
(-6314.5 581.797 -0.285601)
(6513.44 604.788 -0.256283)
(61556.9 14152.4 -12.6177)
(-63678.5 602.687 -14.1641)
(-6837.63 31.0369 -0.303516)
(7057.18 32.2134 -0.271501)
(62024.2 619.316 -13.0777)
(-64718.8 113.974 -14.0847)
(-6884.97 3.15001 -0.301827)
(7101.72 2.97292 -0.269858)
(63000.3 106.886 -12.9936)
(-66502.5 186.648 -13.9388)
(-6948.63 4.66078 -0.298345)
(7160.92 4.35921 -0.266785)
(64718.6 176.879 -12.854)
(-69549.6 368.728 -13.769)
(-7067.26 18.1642 -0.294085)
(7273.93 17.7585 -0.263029)
(67702.2 357.441 -12.6937)
(-74930 1087.34 -13.6876)
(-7299.6 366.218 -0.295191)
(7500.19 365.048 -0.264534)
(73041.2 1078.1 -12.6231)
(-84824 10596.7 -14.2805)
(-7789.56 8839.39 -0.554018)
(7985.82 8806.71 -0.523086)
(83004.7 10508.6 -13.244)
(-97927.2 104908 -29.477)
(-9089.61 95897.8 -13.0592)
(9169.42 95125.1 -12.9984)
(96481.2 102334 -28.4815)
)
;

boundaryField
{
    interface
    {
        type            calculated;
        value           nonuniform List<vector> 
192
(
(-179545 35158.6 -105111)
(-178357 1391.59 -105183)
(-180518 235.044 -106313)
(-184190 368.788 -108181)
(-190251 701.9 -111275)
(-200537 1769.02 -116599)
(-218625 13162.5 -126207)
(-238140 137856 -137852)
(-154660 16312.1 -9878.17)
(-154611 683.777 -10589.7)
(-156637 116.061 -10645.4)
(-160089 185.641 -10713.5)
(-165927 367.234 -10833.2)
(-176193 1112.43 -11054.1)
(-195136 11509.6 -11509.2)
(-218634 126215 -13162)
(-135805 14690.8 -1016.4)
(-135806 624.344 -1085.37)
(-137768 111.231 -1088.29)
(-141144 181.016 -1089.78)
(-146911 361.242 -1091.21)
(-157156 1093.02 -1092.65)
(-176206 11054.6 -1112.05)
(-200560 116614 -1768.22)
(-125532 14210.3 -349.471)
(-125541 611.884 -367.227)
(-127495 111.651 -367.112)
(-130875 182.718 -365.919)
(-136660 364.363 -363.688)
(-146933 1091.59 -360.557)
(-165963 10834 -366.508)
(-190298 111302 -700.347)
(-119716 13974.1 -176.424)
(-119734 606.702 -184.478)
(-121696 112.539 -184.026)
(-125097 184.441 -182.854)
(-130912 366.603 -181.11)
(-141205 1090.2 -179.362)
(-160166 10714.9 -183.856)
(-184281 108230 -364.952)
(-116347 13849.4 -92.7246)
(-116372 604.283 -96.6742)
(-118345 113.275 -96.2821)
(-121766 185.634 -95.4644)
(-127604 367.855 -94.3908)
(-137902 1088.85 -93.5907)
(-156792 10648.4 -96.7356)
(-180691 106410 -195.935)
(-114470 13784.7 -45.3277)
(-114499 603.145 -47.1642)
(-116481 113.749 -46.9236)
(-119915 186.332 -46.4652)
(-125766 368.477 -45.9095)
(-136064 1087.85 -45.5921)
(-154901 10612.5 -47.4146)
(-178648 105377 -97.2664)
(-113626 13756.9 -13.6268)
(-113657 602.687 -14.1641)
(-115644 113.974 -14.0847)
(-119084 186.648 -13.9388)
(-124941 368.728 -13.769)
(-135238 1087.34 -13.6876)
(-154048 10596.7 -14.2805)
(-177717 104908 -29.477)
(-98224.2 35158.6 -192031)
(-98243.2 1391.59 -190865)
(-99378.3 235.044 -193019)
(-101285 368.788 -196622)
(-104441 701.9 -202577)
(-109813 1769.02 -212790)
(-119297 13162.5 -231127)
(-130053 137856 -251988)
(-8469.22 17642.3 -175539)
(-9084.47 723.751 -175364)
(-9140.01 109.384 -177311)
(-9211.54 172.544 -180617)
(-9336.99 348.206 -186234)
(-9565.41 1100.07 -196263)
(-10005.9 11723.4 -215303)
(-11032.3 130910 -240097)
(8549.78 17605 -174244)
(9171.93 720.801 -173976)
(9221.61 107.977 -175875)
(9287.93 171.812 -179158)
(9408.83 348.029 -184767)
(9635.01 1100.15 -194800)
(10080.2 11695.6 -213855)
(11017.3 130175 -238683)
(96983 35364 -187649)
(96925.3 1395.58 -186177)
(98003.8 225.376 -188187)
(99863 359.767 -191720)
(102991 695.29 -197646)
(108393 1771.39 -207865)
(118081 13105.7 -226241)
(129472 135415 -247236)
(176831 35364 -102850)
(175467 1395.58 -102759)
(177523 225.376 -103815)
(181108 359.767 -105647)
(187122 695.29 -108728)
(197474 1771.39 -114058)
(215960 13105.7 -123690)
(236810 135415 -135414)
(151044 16668.2 -9804.53)
(150825 699.173 -10506.7)
(152727 109.202 -10560.2)
(156057 176.408 -10627.8)
(161785 357.146 -10748.6)
(172012 1106.58 -10972.8)
(191214 11434.7 -11434.8)
(215956 123691 -13105.9)
(132032 15052.8 -1008.29)
(131850 639.861 -1076.78)
(133682 104.22 -1079.78)
(136930 171.425 -1081.4)
(142575 350.311 -1083.14)
(152754 1085.16 -1085.3)
(172006 10972.7 -1106.73)
(197464 114058 -1771.57)
(121807 14583.1 -339.66)
(121629 627.68 -356.782)
(123453 104.583 -356.693)
(126705 173.053 -355.542)
(132368 353.247 -353.373)
(142570 1082.99 -350.432)
(161774 10748.4 -357.27)
(187107 108729 -695.412)
(116068 14356.4 -168.557)
(115899 622.827 -176.038)
(117734 105.46 -175.573)
(121009 174.746 -174.429)
(126704 355.421 -172.719)
(136924 1081.26 -171.051)
(156045 10627.7 -175.975)
(181090 105652 -358.894)
(112762 14238.5 -87.3678)
(112602 620.663 -90.9125)
(114450 106.192 -90.5028)
(117746 175.908 -89.71)
(123466 356.625 -88.6699)
(133692 1079.73 -87.9212)
(152734 10560.6 -91.2783)
(177521 103832 -191.15)
(110929 14178.1 -42.2388)
(110776 619.692 -43.8394)
(112634 106.663 -43.5859)
(115945 176.579 -43.145)
(121679 357.21 -42.6148)
(131905 1078.65 -42.3291)
(150889 10524.5 -44.2484)
(175500 102802 -94.3068)
(110109 14152.4 -12.6177)
(109958 619.316 -13.0777)
(111821 106.886 -12.9936)
(115139 176.879 -12.854)
(120880 357.441 -12.6937)
(131105 1078.1 -12.6231)
(150059 10508.6 -13.244)
(174581 102334 -28.4815)
(-130053 251996 -137852)
(-119302 231143 -13162)
(-109824 212819 -1768.22)
(-104465 202630 -700.347)
(-101332 196719 -364.952)
(-99468 193207 -195.935)
(-98409 191211 -97.2664)
(-97927.2 190302 -29.477)
(-11032.3 240103 -130907)
(-10006 215315 -11723.2)
(-9565.81 196283 -1099.8)
(-9337.83 186270 -347.639)
(-9213.18 180685 -170.935)
(-9143.59 177449 -89.0844)
(-9106.09 175637 -43.4531)
(-9089.61 174819 -13.0592)
(11017.3 238688 -130173)
(10080 213862 -11695.5)
(9634.68 194811 -1100.02)
(9408.24 184788 -347.718)
(9286.91 179200 -170.721)
(9220.28 175964 -88.8363)
(9184.85 174154 -43.2799)
(9169.42 173337 -12.9984)
(129472 247238 -135414)
(118079 226243 -13105.9)
(108388 207866 -1771.57)
(102983 197649 -695.412)
(99853.4 191730 -358.894)
(98002.3 188220 -191.15)
(96955.8 186229 -94.3068)
(96481.2 185323 -28.4815)
)
;
    }
    symmetry
    {
        type            symmetry;
    }
    bottom
    {
        type            calculated;
        value           nonuniform List<vector> 
32
(
(-98224.2 67742.3 -105111)
(-84556.6 31358.9 -9878.17)
(-74665 28229.6 -1016.4)
(-69308 27293.3 -349.471)
(-66287.6 26831.7 -176.424)
(-64543.4 26587.6 -92.7246)
(-63573.8 26460.8 -45.3277)
(-63138.6 26406.3 -13.6268)
(-8469.22 33936.1 -95640.2)
(-7217.01 2452.8 -8188.96)
(-6752 1180.28 -331.741)
(-6531.34 1125.83 -16.5227)
(-6418.69 1114.19 -4.29067)
(-6358.95 1108.67 -2.06523)
(-6327.87 1105.93 -0.970016)
(-6314.5 1104.79 -0.285601)
(8549.78 33865.4 -94965.8)
(7395.52 2490.89 -8160.95)
(6934.21 1221.61 -330.727)
(6718.97 1167.98 -16.1647)
(6611.07 1156.95 -4.03729)
(6554.7 1151.83 -1.90159)
(6525.77 1149.34 -0.878796)
(6513.44 1148.32 -0.256283)
(96983 68135.2 -102850)
(82907.8 32034.9 -9804.53)
(72939.6 28917.1 -1008.29)
(67612 28001.7 -339.66)
(64634.1 27558.5 -168.557)
(62924.7 27327.5 -87.3678)
(61979.5 27209 -42.2388)
(61556.9 27158.5 -12.6177)
)
;
    }
}


// ************************************************************************* //
