/*--------------------------------*- C++ -*----------------------------------*\
| =========                 |                                                 |
| \\      /  F ield         | OpenFOAM: The Open Source CFD Toolbox           |
|  \\    /   O peration     | Version:  v1912                                 |
|   \\  /    A nd           | Website:  www.openfoam.com                      |
|    \\/     M anipulation  |                                                 |
\*---------------------------------------------------------------------------*/
FoamFile
{
    version     2.0;
    format      ascii;
    class       pointVectorField;
    location    "0.16/solid";
    object      pointDD;
}
// * * * * * * * * * * * * * * * * * * * * * * * * * * * * * * * * * * * * * //

dimensions      [0 1 0 0 0 0 0];


internalField   nonuniform List<vector> 
405
(
(3.40341e-10 8.57929e-10 3.83834e-10)
(2.2744e-10 5.64283e-10 1.38817e-11)
(4.01692e-12 4.30553e-10 -1.17127e-10)
(-2.14232e-10 5.60571e-10 1.64662e-11)
(-2.77884e-10 8.3465e-10 3.93746e-10)
(7.0993e-10 8.60954e-10 1.02e-09)
(6.08156e-10 7.99986e-10 4.4853e-10)
(2.09876e-11 6.088e-10 1.75852e-10)
(-5.54436e-10 7.84529e-10 4.62516e-10)
(-5.89387e-10 8.16225e-10 1.04938e-09)
(9.19741e-10 6.75761e-11 1.78519e-09)
(7.74369e-10 1.46859e-10 1.19672e-09)
(4.834e-11 6.85601e-11 9.13914e-10)
(-6.64888e-10 1.15866e-10 1.22384e-09)
(-7.4549e-10 2.63787e-12 1.83698e-09)
(9.07616e-10 -6.12015e-10 2.3932e-09)
(7.70176e-10 -4.91405e-10 1.81538e-09)
(7.81628e-11 -5.31988e-10 1.52936e-09)
(-6.01661e-10 -5.36163e-10 1.84927e-09)
(-6.7736e-10 -6.96763e-10 2.45741e-09)
(8.90285e-10 -1.22061e-09 2.96998e-09)
(7.54414e-10 -1.12622e-09 2.39621e-09)
(1.10325e-10 -1.18309e-09 2.09868e-09)
(-5.21996e-10 -1.18243e-09 2.43395e-09)
(-5.98768e-10 -1.32298e-09 3.04137e-09)
(9.76714e-10 -1.82022e-09 3.58129e-09)
(8.15231e-10 -1.78661e-09 3.00003e-09)
(1.4534e-10 -1.88282e-09 2.68479e-09)
(-5.13061e-10 -1.85252e-09 3.04001e-09)
(-6.17757e-10 -1.93817e-09 3.65711e-09)
(1.28531e-09 -2.53465e-09 4.28757e-09)
(1.04511e-09 -2.54597e-09 3.67746e-09)
(1.8343e-10 -2.65015e-09 3.34439e-09)
(-6.66889e-10 -2.621e-09 3.71876e-09)
(-8.51652e-10 -2.66754e-09 4.36653e-09)
(2.00328e-09 -3.89599e-09 5.2021e-09)
(1.47825e-09 -3.81856e-09 4.66217e-09)
(2.24018e-10 -3.78859e-09 4.33603e-09)
(-1.0181e-09 -3.90199e-09 4.70386e-09)
(-1.48207e-09 -4.04308e-09 5.28316e-09)
(2.56711e-09 -4.76506e-09 5.84128e-09)
(1.74575e-09 -4.48186e-09 5.58151e-09)
(2.49624e-10 -4.2606e-09 5.34151e-09)
(-1.2335e-09 -4.56551e-09 5.62689e-09)
(-2.00913e-09 -4.90891e-09 5.92063e-09)
(-1.22019e-10 3.60247e-10 2.53592e-10)
(0 0 0)
(0 0 0)
(0 0 0)
(1.90177e-10 3.34386e-10 2.62375e-10)
(-1.28891e-10 3.46014e-10 8.96628e-10)
(0 0 0)
(0 0 0)
(0 0 0)
(2.86426e-10 2.85073e-10 9.27748e-10)
(-8.47006e-12 -3.60646e-10 1.60097e-09)
(0 0 0)
(0 0 0)
(0 0 0)
(2.10635e-10 -4.41083e-10 1.65446e-09)
(-1.76635e-11 -9.87438e-10 2.19654e-09)
(0 0 0)
(0 0 0)
(0 0 0)
(2.69897e-10 -1.0879e-09 2.2643e-09)
(-1.99926e-11 -1.56382e-09 2.75532e-09)
(0 0 0)
(0 0 0)
(0 0 0)
(3.29059e-10 -1.68291e-09 2.832e-09)
(7.41296e-11 -2.11974e-09 3.3373e-09)
(0 0 0)
(0 0 0)
(0 0 0)
(2.99009e-10 -2.25601e-09 3.41983e-09)
(3.66792e-10 -2.72718e-09 3.98369e-09)
(0 0 0)
(0 0 0)
(0 0 0)
(7.91324e-11 -2.8802e-09 4.0704e-09)
(1.15186e-09 -3.83666e-09 4.62951e-09)
(0 0 0)
(0 0 0)
(0 0 0)
(-6.14028e-10 -4.00518e-09 4.71883e-09)
(2.01877e-09 -4.41306e-09 5.00936e-09)
(1.49846e-09 -3.88807e-09 5.02661e-09)
(2.44125e-10 -3.58135e-09 4.97861e-09)
(-9.97912e-10 -3.96878e-09 5.07217e-09)
(-1.46693e-09 -4.56307e-09 5.08871e-09)
(-4.05713e-10 4.41961e-11 7.33217e-11)
(0 0 0)
(0 0 0)
(0 0 0)
(4.64714e-10 2.24201e-11 7.99451e-11)
(-7.85429e-10 -2.09198e-10 4.3861e-10)
(0 0 0)
(0 0 0)
(0 0 0)
(9.18679e-10 -2.63167e-10 4.61993e-10)
(-7.6681e-10 -7.91642e-10 1.03112e-09)
(0 0 0)
(0 0 0)
(0 0 0)
(9.34823e-10 -8.67006e-10 1.07201e-09)
(-7.86115e-10 -1.34883e-09 1.60804e-09)
(0 0 0)
(0 0 0)
(0 0 0)
(9.97629e-10 -1.44537e-09 1.66145e-09)
(-7.85012e-10 -1.88062e-09 2.14905e-09)
(0 0 0)
(0 0 0)
(0 0 0)
(1.04891e-09 -1.99669e-09 2.21118e-09)
(-6.90873e-10 -2.3693e-09 2.67747e-09)
(0 0 0)
(0 0 0)
(0 0 0)
(1.01608e-09 -2.50347e-09 2.74567e-09)
(-3.99828e-10 -2.82703e-09 3.17753e-09)
(0 0 0)
(0 0 0)
(0 0 0)
(7.96466e-10 -2.97883e-09 3.24984e-09)
(3.86594e-10 -3.62518e-09 3.51424e-09)
(0 0 0)
(0 0 0)
(0 0 0)
(1.01248e-10 -3.79287e-09 3.58878e-09)
(1.32093e-09 -3.93219e-09 3.64533e-09)
(1.08581e-09 -3.3379e-09 3.75419e-09)
(2.24798e-10 -3.02522e-09 3.84204e-09)
(-6.24876e-10 -3.41939e-09 3.7922e-09)
(-8.14536e-10 -4.08205e-09 3.71128e-09)
(-4.97309e-10 -7.07698e-11 7.81509e-11)
(0 0 0)
(0 0 0)
(0 0 0)
(5.5369e-10 -8.91276e-11 8.30557e-11)
(-1.02319e-09 -4.36445e-10 3.97546e-10)
(0 0 0)
(0 0 0)
(0 0 0)
(1.14758e-09 -4.8325e-10 4.14826e-10)
(-1.06932e-09 -1.01052e-09 9.00789e-10)
(0 0 0)
(0 0 0)
(0 0 0)
(1.22179e-09 -1.07877e-09 9.31269e-10)
(-1.09495e-09 -1.54761e-09 1.41347e-09)
(0 0 0)
(0 0 0)
(0 0 0)
(1.28538e-09 -1.63801e-09 1.45407e-09)
(-1.08496e-09 -2.03362e-09 1.89807e-09)
(0 0 0)
(0 0 0)
(0 0 0)
(1.32348e-09 -2.14479e-09 1.94636e-09)
(-9.80606e-10 -2.43588e-09 2.34199e-09)
(0 0 0)
(0 0 0)
(0 0 0)
(1.27756e-09 -2.56644e-09 2.39595e-09)
(-6.78559e-10 -2.76366e-09 2.70525e-09)
(0 0 0)
(0 0 0)
(0 0 0)
(1.04549e-09 -2.91311e-09 2.76311e-09)
(1.0672e-10 -3.41604e-09 2.89432e-09)
(0 0 0)
(0 0 0)
(0 0 0)
(3.5091e-10 -3.58241e-09 2.95434e-09)
(1.02557e-09 -3.66356e-09 2.92647e-09)
(8.71406e-10 -3.09913e-09 2.99781e-09)
(2.08577e-10 -2.80508e-09 3.08059e-09)
(-4.43007e-10 -3.1809e-09 3.02867e-09)
(-5.50648e-10 -3.81311e-09 2.97987e-09)
(-5.34566e-10 -1.0599e-10 8.34153e-11)
(0 0 0)
(0 0 0)
(0 0 0)
(5.90303e-10 -1.21986e-10 8.7178e-11)
(-1.11732e-09 -5.12618e-10 3.68474e-10)
(0 0 0)
(0 0 0)
(0 0 0)
(1.23798e-09 -5.53926e-10 3.81549e-10)
(-1.18767e-09 -1.09595e-09 7.83085e-10)
(0 0 0)
(0 0 0)
(0 0 0)
(1.33163e-09 -1.15787e-09 8.06011e-10)
(-1.21513e-09 -1.62769e-09 1.20211e-09)
(0 0 0)
(0 0 0)
(0 0 0)
(1.39263e-09 -1.71208e-09 1.2328e-09)
(-1.19774e-09 -2.08043e-09 1.596e-09)
(0 0 0)
(0 0 0)
(0 0 0)
(1.41959e-09 -2.18653e-09 1.63289e-09)
(-1.08417e-09 -2.42281e-09 1.93981e-09)
(0 0 0)
(0 0 0)
(0 0 0)
(1.3617e-09 -2.54956e-09 1.98148e-09)
(-7.74387e-10 -2.68337e-09 2.1971e-09)
(0 0 0)
(0 0 0)
(0 0 0)
(1.12028e-09 -2.83046e-09 2.24213e-09)
(9.09036e-12 -3.28498e-09 2.32015e-09)
(0 0 0)
(0 0 0)
(0 0 0)
(4.26861e-10 -3.4505e-09 2.36718e-09)
(9.34434e-10 -3.50385e-09 2.32478e-09)
(8.12791e-10 -2.94751e-09 2.34646e-09)
(1.95856e-10 -2.67122e-09 2.39144e-09)
(-4.09803e-10 -3.0296e-09 2.37108e-09)
(-4.83113e-10 -3.65364e-09 2.36704e-09)
(-5.50635e-10 -1.148e-10 7.16711e-11)
(0 0 0)
(0 0 0)
(0 0 0)
(6.06506e-10 -1.29183e-10 7.44551e-11)
(-1.15156e-09 -5.31548e-10 2.99936e-10)
(0 0 0)
(0 0 0)
(0 0 0)
(1.27082e-09 -5.68941e-10 3.09498e-10)
(-1.2238e-09 -1.1169e-09 6.16773e-10)
(0 0 0)
(0 0 0)
(0 0 0)
(1.36299e-09 -1.17401e-09 6.33409e-10)
(-1.24887e-09 -1.6434e-09 9.30945e-10)
(0 0 0)
(0 0 0)
(0 0 0)
(1.41827e-09 -1.72293e-09 9.53197e-10)
(-1.22623e-09 -2.07647e-09 1.22235e-09)
(0 0 0)
(0 0 0)
(0 0 0)
(1.43699e-09 -2.17832e-09 1.2492e-09)
(-1.10688e-09 -2.38939e-09 1.46911e-09)
(0 0 0)
(0 0 0)
(0 0 0)
(1.37097e-09 -2.51293e-09 1.49959e-09)
(-7.933e-10 -2.62527e-09 1.6466e-09)
(0 0 0)
(0 0 0)
(0 0 0)
(1.12429e-09 -2.7705e-09 1.67969e-09)
(-1.17474e-11 -3.21243e-09 1.73264e-09)
(0 0 0)
(0 0 0)
(0 0 0)
(4.32177e-10 -3.37764e-09 1.76739e-09)
(9.24665e-10 -3.41153e-09 1.73405e-09)
(8.15204e-10 -2.85235e-09 1.73148e-09)
(1.86426e-10 -2.58747e-09 1.75002e-09)
(-4.31084e-10 -2.93487e-09 1.74999e-09)
(-4.90603e-10 -3.56196e-09 1.76557e-09)
(-5.59397e-10 -1.16109e-10 5.07309e-11)
(0 0 0)
(0 0 0)
(0 0 0)
(6.15608e-10 -1.2943e-10 5.25773e-11)
(-1.16681e-09 -5.32369e-10 2.07618e-10)
(0 0 0)
(0 0 0)
(0 0 0)
(1.28565e-09 -5.67152e-10 2.13913e-10)
(-1.23489e-09 -1.114e-09 4.20231e-10)
(0 0 0)
(0 0 0)
(0 0 0)
(1.37142e-09 -1.16781e-09 4.31119e-10)
(-1.25634e-09 -1.63454e-09 6.27838e-10)
(0 0 0)
(0 0 0)
(0 0 0)
(1.42079e-09 -1.71062e-09 6.42369e-10)
(-1.23023e-09 -2.05753e-09 8.18005e-10)
(0 0 0)
(0 0 0)
(0 0 0)
(1.43391e-09 -2.1563e-09 8.35551e-10)
(-1.10796e-09 -2.35949e-09 9.76422e-10)
(0 0 0)
(0 0 0)
(0 0 0)
(1.36323e-09 -2.48071e-09 9.96379e-10)
(-7.93066e-10 -2.58966e-09 1.08907e-09)
(0 0 0)
(0 0 0)
(0 0 0)
(1.11411e-09 -2.73364e-09 1.1108e-09)
(-1.29159e-11 -3.17424e-09 1.14586e-09)
(0 0 0)
(0 0 0)
(0 0 0)
(4.22943e-10 -3.33946e-09 1.16876e-09)
(9.32806e-10 -3.35965e-09 1.14869e-09)
(8.2833e-10 -2.79387e-09 1.14104e-09)
(1.79977e-10 -2.53434e-09 1.14723e-09)
(-4.57138e-10 -2.87682e-09 1.15341e-09)
(-5.10461e-10 -3.51081e-09 1.1696e-09)
(-5.64505e-10 -1.1591e-10 2.60143e-11)
(0 0 0)
(0 0 0)
(0 0 0)
(6.20996e-10 -1.28623e-10 2.69358e-11)
(-1.17523e-09 -5.29756e-10 1.05414e-10)
(0 0 0)
(0 0 0)
(0 0 0)
(1.29402e-09 -5.63042e-10 1.08542e-10)
(-1.24002e-09 -1.10699e-09 2.11764e-10)
(0 0 0)
(0 0 0)
(0 0 0)
(1.37519e-09 -1.15889e-09 2.17155e-10)
(-1.25883e-09 -1.62301e-09 3.14668e-10)
(0 0 0)
(0 0 0)
(0 0 0)
(1.42058e-09 -1.69707e-09 3.21848e-10)
(-1.23076e-09 -2.04151e-09 4.0819e-10)
(0 0 0)
(0 0 0)
(0 0 0)
(1.43048e-09 -2.13845e-09 4.16857e-10)
(-1.10721e-09 -2.34048e-09 4.85521e-10)
(0 0 0)
(0 0 0)
(0 0 0)
(1.35747e-09 -2.46032e-09 4.95386e-10)
(-7.92037e-10 -2.57077e-09 5.40472e-10)
(0 0 0)
(0 0 0)
(0 0 0)
(1.10738e-09 -2.71405e-09 5.51223e-10)
(-1.26875e-11 -3.1559e-09 5.69021e-10)
(0 0 0)
(0 0 0)
(0 0 0)
(4.1675e-10 -3.32124e-09 5.80373e-10)
(9.38901e-10 -3.33338e-09 5.71458e-10)
(8.3696e-10 -2.76193e-09 5.66638e-10)
(1.76248e-10 -2.50427e-09 5.68292e-10)
(-4.73255e-10 -2.84519e-09 5.72829e-10)
(-5.23313e-10 -3.48509e-09 5.81878e-10)
(-4.02959e-10 -1.34365e-10 0)
(-3.62678e-11 -1.01212e-10 0)
(-1.03533e-12 -1.17599e-10 0)
(3.74626e-11 -1.06511e-10 0)
(4.43666e-10 -1.48487e-10 0)
(-6.49011e-10 -5.05197e-10 0)
(-1.06552e-10 -5.02574e-10 0)
(3.47097e-13 -5.2691e-10 0)
(1.14592e-10 -5.18568e-10 0)
(7.16108e-10 -5.33964e-10 0)
(-7.14262e-10 -1.09164e-09 0)
(-1.56294e-10 -1.08886e-09 0)
(8.0269e-12 -1.10521e-09 0)
(1.8045e-10 -1.11587e-09 0)
(7.97772e-10 -1.13747e-09 0)
(-7.39092e-10 -1.61571e-09 0)
(-1.7647e-10 -1.63028e-09 0)
(2.13891e-11 -1.65718e-09 0)
(2.27323e-10 -1.66853e-09 0)
(8.48998e-10 -1.68095e-09 0)
(-7.1931e-10 -2.05097e-09 0)
(-1.64858e-10 -2.11024e-09 0)
(4.0602e-11 -2.16663e-09 0)
(2.54271e-10 -2.1597e-09 0)
(8.67342e-10 -2.13609e-09 0)
(-6.01192e-10 -2.39036e-09 0)
(-7.91872e-11 -2.53007e-09 0)
(6.5871e-11 -2.62879e-09 0)
(2.19396e-10 -2.59076e-09 0)
(7.99847e-10 -2.49545e-09 0)
(-2.74568e-10 -2.68809e-09 0)
(1.63405e-10 -2.90609e-09 0)
(9.70811e-11 -3.01908e-09 0)
(3.97472e-11 -2.97843e-09 0)
(5.37385e-10 -2.81374e-09 0)
(4.38866e-10 -3.28698e-09 0)
(5.92223e-10 -3.39642e-09 0)
(1.33536e-10 -3.39009e-09 0)
(-3.147e-10 -3.47985e-09 0)
(-9.38168e-11 -3.43236e-09 0)
(1.05826e-09 -3.49847e-09 0)
(8.43849e-10 -3.22883e-09 0)
(1.63986e-10 -3.0417e-09 0)
(-5.04508e-10 -3.31477e-09 0)
(-6.73016e-10 -3.64422e-09 0)
)
;

boundaryField
{
    interface
    {
        type            calculated;
    }
    symmetry
    {
        type            symmetry;
    }
    bottom
    {
        type            calculated;
    }
}


// ************************************************************************* //
