/*--------------------------------*- C++ -*----------------------------------*\
| =========                 |                                                 |
| \\      /  F ield         | OpenFOAM: The Open Source CFD Toolbox           |
|  \\    /   O peration     | Version:  v1912                                 |
|   \\  /    A nd           | Website:  www.openfoam.com                      |
|    \\/     M anipulation  |                                                 |
\*---------------------------------------------------------------------------*/
FoamFile
{
    version     2.0;
    format      ascii;
    class       pointVectorField;
    location    "0.16/solid";
    object      pointD;
}
// * * * * * * * * * * * * * * * * * * * * * * * * * * * * * * * * * * * * * //

dimensions      [0 1 0 0 0 0 0];


internalField   nonuniform List<vector> 
405
(
(2.32682e-08 1.33595e-08 2.4817e-08)
(9.61662e-10 8.35122e-09 3.45575e-08)
(2.19378e-10 6.97124e-09 3.42341e-08)
(-5.5761e-10 8.39336e-09 3.43225e-08)
(-2.26335e-08 1.30565e-08 2.48407e-08)
(3.52804e-08 1.85306e-08 3.61124e-08)
(2.62515e-09 1.55905e-08 6.75639e-08)
(8.78162e-10 1.33988e-08 6.72061e-08)
(-9.53096e-10 1.53362e-08 6.73155e-08)
(-3.35286e-08 1.75496e-08 3.65649e-08)
(3.62499e-08 1.73087e-08 3.31236e-08)
(3.71379e-09 1.50302e-08 6.42854e-08)
(1.81315e-09 1.37592e-08 6.41772e-08)
(-1.90624e-10 1.4133e-08 6.44223e-08)
(-3.27525e-08 1.53294e-08 3.42881e-08)
(3.77154e-08 1.92229e-08 2.90609e-08)
(4.63659e-09 1.73154e-08 6.07575e-08)
(2.87565e-09 1.65294e-08 6.06797e-08)
(1.00562e-09 1.58478e-08 6.11824e-08)
(-3.21692e-08 1.63504e-08 3.07404e-08)
(3.96724e-08 2.31948e-08 2.46395e-08)
(5.77874e-09 2.15481e-08 5.7378e-08)
(4.08409e-09 2.09892e-08 5.7549e-08)
(2.27809e-09 1.95733e-08 5.80253e-08)
(-3.1763e-08 1.95126e-08 2.67118e-08)
(4.1602e-08 2.85386e-08 2.01882e-08)
(6.61308e-09 2.73093e-08 5.46428e-08)
(5.44341e-09 2.69095e-08 5.52509e-08)
(4.15929e-09 2.48655e-08 5.54712e-08)
(-3.10277e-08 2.41002e-08 2.25775e-08)
(4.23164e-08 3.56253e-08 1.57435e-08)
(6.12347e-09 3.47191e-08 5.28148e-08)
(6.95852e-09 3.41108e-08 5.39861e-08)
(7.65617e-09 3.18268e-08 5.38036e-08)
(-2.88361e-08 3.04673e-08 1.84062e-08)
(4.01831e-08 3.96784e-08 1.08827e-08)
(4.10675e-09 3.8273e-08 5.02008e-08)
(8.62499e-09 3.65177e-08 5.188e-08)
(1.29344e-08 3.49945e-08 5.13886e-08)
(-2.37308e-08 3.39016e-08 1.3823e-08)
(2.61757e-08 1.39642e-08 -4.86315e-09)
(2.97999e-09 -8.18795e-10 9.30698e-09)
(9.66235e-09 -3.41249e-09 1.12296e-08)
(1.60895e-08 -3.86885e-09 1.10196e-08)
(-7.84039e-09 8.58909e-09 -1.73965e-09)
(3.22883e-08 9.30827e-09 7.16351e-10)
(0 0 0)
(0 0 0)
(0 0 0)
(-3.16311e-08 8.82657e-09 1.03577e-09)
(6.50356e-08 1.81006e-08 6.64897e-10)
(3.67576e-09 1.3378e-08 -3.91312e-10)
(5.85915e-10 1.08554e-08 -3.9987e-11)
(-2.53437e-09 1.28271e-08 1.92088e-10)
(-6.30661e-08 1.66009e-08 1.75782e-09)
(6.63094e-08 1.85775e-08 -2.11054e-09)
(5.0672e-09 1.67834e-08 -3.56735e-09)
(1.31866e-09 1.53913e-08 -3.14498e-09)
(-2.4669e-09 1.56697e-08 -2.57997e-09)
(-6.28535e-08 1.60517e-08 -2.38226e-10)
(6.82655e-08 2.15804e-08 -6.61079e-09)
(5.93004e-09 2.062e-08 -8.05573e-09)
(2.23313e-09 1.9735e-08 -7.55856e-09)
(-1.50378e-09 1.89987e-08 -6.78066e-09)
(-6.29604e-08 1.81166e-08 -4.16864e-09)
(7.09775e-08 2.60485e-08 -1.182e-08)
(6.9164e-09 2.54558e-08 -1.30929e-08)
(3.32718e-09 2.47568e-08 -1.24372e-08)
(-3.0264e-10 2.3368e-08 -1.15992e-08)
(-6.34603e-08 2.17165e-08 -8.93887e-09)
(7.43115e-08 3.12527e-08 -1.74661e-08)
(7.62411e-09 3.1483e-08 -1.85626e-08)
(4.5941e-09 3.09265e-08 -1.77007e-08)
(1.52184e-09 2.89518e-08 -1.68911e-08)
(-6.4253e-08 2.61035e-08 -1.4228e-08)
(7.74427e-08 3.72229e-08 -2.34053e-08)
(7.10005e-09 3.84623e-08 -2.44237e-08)
(6.03097e-09 3.77483e-08 -2.33773e-08)
(4.89789e-09 3.55035e-08 -2.26007e-08)
(-6.4614e-08 3.13091e-08 -1.98648e-08)
(7.76405e-08 3.90166e-08 -2.84504e-08)
(5.16819e-09 3.94174e-08 -2.95614e-08)
(7.63035e-09 3.76218e-08 -2.84445e-08)
(9.9559e-09 3.61218e-08 -2.7619e-08)
(-6.21198e-08 3.24788e-08 -2.46658e-08)
(4.07286e-08 -5.00063e-10 -3.06686e-08)
(4.82091e-09 -4.03476e-08 -3.02415e-08)
(9.326e-09 -4.27139e-08 -2.91454e-08)
(1.36289e-08 -4.29012e-08 -2.8281e-08)
(-2.32101e-08 -5.84567e-09 -2.725e-08)
(3.08237e-08 8.24018e-09 -8.93028e-10)
(0 0 0)
(0 0 0)
(0 0 0)
(-3.01254e-08 7.84561e-09 -6.4785e-10)
(6.32165e-08 1.66319e-08 -3.01876e-09)
(5.62182e-09 1.0843e-08 -4.48473e-09)
(3.65235e-10 8.22064e-09 -4.76503e-09)
(-4.86876e-09 1.02867e-08 -4.01012e-09)
(-6.13284e-08 1.53046e-08 -2.16113e-09)
(6.56325e-08 1.84096e-08 -6.0672e-09)
(7.58259e-09 1.63058e-08 -8.03589e-09)
(9.27509e-10 1.48212e-08 -8.35409e-09)
(-5.70001e-09 1.51943e-08 -7.22198e-09)
(-6.25638e-08 1.60526e-08 -4.5636e-09)
(6.75113e-08 2.24237e-08 -1.01698e-08)
(8.4142e-09 2.14648e-08 -1.21484e-08)
(1.70487e-09 2.05485e-08 -1.24005e-08)
(-4.97661e-09 1.98606e-08 -1.10836e-08)
(-6.28501e-08 1.91231e-08 -8.1677e-09)
(7.00865e-08 2.73377e-08 -1.4964e-08)
(9.28551e-09 2.67626e-08 -1.68206e-08)
(2.6871e-09 2.60594e-08 -1.69661e-08)
(-3.88126e-09 2.47042e-08 -1.55583e-08)
(-6.34174e-08 2.31611e-08 -1.25616e-08)
(7.35022e-08 3.22301e-08 -1.9967e-08)
(9.97746e-09 3.23938e-08 -2.17365e-08)
(3.86235e-09 3.18362e-08 -2.17749e-08)
(-2.22211e-09 2.99022e-08 -2.03107e-08)
(-6.44517e-08 2.72317e-08 -1.72321e-08)
(7.70419e-08 3.67188e-08 -2.44182e-08)
(9.57108e-09 3.78187e-08 -2.62088e-08)
(5.22365e-09 3.71138e-08 -2.61704e-08)
(8.85237e-10 3.49148e-08 -2.46496e-08)
(-6.53455e-08 3.0964e-08 -2.14095e-08)
(7.8193e-08 3.58156e-08 -2.66814e-08)
(7.83934e-09 3.61093e-08 -2.86176e-08)
(6.76103e-09 3.43636e-08 -2.85578e-08)
(5.6142e-09 3.28975e-08 -2.69764e-08)
(-6.39151e-08 2.94655e-08 -2.34837e-08)
(4.36186e-08 -3.50182e-09 -2.66369e-08)
(7.59312e-09 -4.1121e-08 -2.67145e-08)
(8.40318e-09 -4.30057e-08 -2.6739e-08)
(9.07447e-09 -4.35189e-08 -2.51007e-08)
(-2.7609e-08 -8.63575e-09 -2.3796e-08)
(2.88872e-08 8.114e-09 -7.68533e-10)
(0 0 0)
(0 0 0)
(0 0 0)
(-2.82664e-08 7.83018e-09 -5.92004e-10)
(6.00029e-08 1.62259e-08 -2.93506e-09)
(6.5224e-09 9.94053e-09 -3.64121e-09)
(2.30155e-10 7.29775e-09 -3.93721e-09)
(-6.03807e-09 9.45145e-09 -3.2957e-09)
(-5.8389e-08 1.51413e-08 -2.30771e-09)
(6.31972e-08 1.78611e-08 -5.96375e-09)
(8.86816e-09 1.55484e-08 -6.95756e-09)
(6.62124e-10 1.40354e-08 -7.28791e-09)
(-7.50892e-09 1.45264e-08 -6.35143e-09)
(-6.06381e-08 1.57693e-08 -4.84174e-09)
(6.51109e-08 2.18941e-08 -9.52199e-09)
(9.70173e-09 2.09558e-08 -1.05183e-08)
(1.32254e-09 2.00564e-08 -1.07881e-08)
(-7.01743e-09 1.94477e-08 -9.70907e-09)
(-6.1179e-08 1.88528e-08 -7.99543e-09)
(6.74895e-08 2.66301e-08 -1.3499e-08)
(1.04501e-08 2.61414e-08 -1.43836e-08)
(2.20413e-09 2.54834e-08 -1.4568e-08)
(-5.99798e-09 2.41799e-08 -1.34073e-08)
(-6.17414e-08 2.26967e-08 -1.16312e-08)
(7.07182e-08 3.08429e-08 -1.73778e-08)
(1.10523e-08 3.1047e-08 -1.81547e-08)
(3.29468e-09 3.0536e-08 -1.82601e-08)
(-4.41693e-09 2.86526e-08 -1.70377e-08)
(-6.27497e-08 2.60721e-08 -1.52204e-08)
(7.42054e-08 3.40713e-08 -2.02349e-08)
(1.0668e-08 3.51298e-08 -2.09884e-08)
(4.58541e-09 3.4482e-08 -2.10419e-08)
(-1.47249e-09 3.23258e-08 -1.97606e-08)
(-6.37214e-08 2.85343e-08 -1.78433e-08)
(7.58054e-08 3.18298e-08 -2.08058e-08)
(9.08713e-09 3.2161e-08 -2.167e-08)
(6.06372e-09 3.0568e-08 -2.17214e-08)
(2.98621e-09 2.90506e-08 -2.03825e-08)
(-6.28353e-08 2.56887e-08 -1.82644e-08)
(4.36724e-08 -5.98028e-09 -1.9613e-08)
(8.84789e-09 -4.1024e-08 -1.93746e-08)
(7.65368e-09 -4.2385e-08 -1.95581e-08)
(6.33359e-09 -4.33237e-08 -1.81215e-08)
(-2.90721e-08 -1.09417e-08 -1.73791e-08)
(2.75093e-08 7.97168e-09 -6.86377e-10)
(0 0 0)
(0 0 0)
(0 0 0)
(-2.69662e-08 7.77538e-09 -5.63135e-10)
(5.73819e-08 1.58197e-08 -2.71882e-09)
(6.5779e-09 9.51093e-09 -2.83144e-09)
(1.49071e-10 6.89932e-09 -2.95678e-09)
(-6.27158e-09 9.09127e-09 -2.58694e-09)
(-5.6011e-08 1.49412e-08 -2.27639e-09)
(6.07642e-08 1.71487e-08 -5.47696e-09)
(8.99584e-09 1.48032e-08 -5.63407e-09)
(4.88281e-10 1.33131e-08 -5.74493e-09)
(-7.99873e-09 1.38819e-08 -5.19883e-09)
(-5.86235e-08 1.53045e-08 -4.67437e-09)
(6.26781e-08 2.07801e-08 -8.41752e-09)
(9.80006e-09 1.98928e-08 -8.53629e-09)
(1.05672e-09 1.90368e-08 -8.58625e-09)
(-7.65834e-09 1.84954e-08 -7.94606e-09)
(-5.93373e-08 1.79947e-08 -7.30648e-09)
(6.4901e-08 2.50057e-08 -1.14668e-08)
(1.04365e-08 2.46192e-08 -1.14871e-08)
(1.85441e-09 2.402e-08 -1.14648e-08)
(-6.69257e-09 2.27683e-08 -1.07645e-08)
(-5.9905e-08 2.13186e-08 -1.00842e-08)
(6.79329e-08 2.85533e-08 -1.41979e-08)
(1.09227e-08 2.88368e-08 -1.4113e-08)
(2.87184e-09 2.83847e-08 -1.4024e-08)
(-5.14061e-09 2.65497e-08 -1.3277e-08)
(-6.08583e-08 2.40124e-08 -1.25793e-08)
(7.13075e-08 3.10683e-08 -1.5876e-08)
(1.05035e-08 3.21461e-08 -1.57467e-08)
(4.10023e-09 3.15694e-08 -1.56131e-08)
(-2.2853e-09 2.94448e-08 -1.48222e-08)
(-6.18362e-08 2.57438e-08 -1.40664e-08)
(7.31207e-08 2.83944e-08 -1.5733e-08)
(9.0008e-09 2.88228e-08 -1.56702e-08)
(5.52544e-09 2.73907e-08 -1.55386e-08)
(1.98904e-09 2.58067e-08 -1.4701e-08)
(-6.12523e-08 2.24454e-08 -1.38041e-08)
(4.24508e-08 -8.23473e-09 -1.42865e-08)
(8.71633e-09 -4.16346e-08 -1.36712e-08)
(7.06875e-09 -4.26019e-08 -1.36581e-08)
(5.28747e-09 -4.38511e-08 -1.27345e-08)
(-2.90121e-08 -1.30444e-08 -1.26003e-08)
(2.66168e-08 7.77248e-09 -5.57039e-10)
(0 0 0)
(0 0 0)
(0 0 0)
(-2.61307e-08 7.63675e-09 -4.74996e-10)
(5.55375e-08 1.53279e-08 -2.22179e-09)
(6.36164e-09 9.16699e-09 -2.12291e-09)
(9.9659e-11 6.60674e-09 -2.13871e-09)
(-6.16886e-09 8.80166e-09 -1.95695e-09)
(-5.43398e-08 1.45993e-08 -1.92483e-09)
(5.88415e-08 1.63699e-08 -4.44349e-09)
(8.69256e-09 1.40923e-08 -4.27709e-09)
(3.76014e-10 1.26485e-08 -4.24935e-09)
(-7.93488e-09 1.32544e-08 -3.97879e-09)
(-5.69966e-08 1.47181e-08 -3.89868e-09)
(6.06915e-08 1.9558e-08 -6.68207e-09)
(9.4312e-09 1.87416e-08 -6.45143e-09)
(8.77295e-10 1.79362e-08 -6.367e-09)
(-7.66078e-09 1.74391e-08 -6.04234e-09)
(-5.77734e-08 1.69815e-08 -5.9175e-09)
(6.27938e-08 2.32708e-08 -8.84588e-09)
(9.97559e-09 2.29725e-08 -8.53524e-09)
(1.61034e-09 2.24287e-08 -8.39335e-09)
(-6.73051e-09 2.12182e-08 -8.02879e-09)
(-5.83447e-08 1.97907e-08 -7.88127e-09)
(6.56783e-08 2.63316e-08 -1.06271e-08)
(1.03664e-08 2.66866e-08 -1.02366e-08)
(2.56927e-09 2.6288e-08 -1.0043e-08)
(-5.19919e-09 2.44929e-08 -9.64526e-09)
(-5.92645e-08 2.1986e-08 -9.48461e-09)
(6.89596e-08 2.85054e-08 -1.15487e-08)
(9.90579e-09 2.96155e-08 -1.11202e-08)
(3.74653e-09 2.91003e-08 -1.08919e-08)
(-2.40416e-09 2.70019e-08 -1.04626e-08)
(-6.02474e-08 2.33603e-08 -1.0261e-08)
(7.08731e-08 2.57301e-08 -1.11872e-08)
(8.43762e-09 2.62446e-08 -1.07962e-08)
(5.12743e-09 2.49345e-08 -1.05695e-08)
(1.74736e-09 2.33076e-08 -1.0106e-08)
(-5.98412e-08 1.99421e-08 -9.80894e-09)
(4.1038e-08 -1.01512e-08 -9.92743e-09)
(8.10415e-09 -4.25831e-08 -9.22902e-09)
(6.63165e-09 -4.32966e-08 -9.08436e-09)
(5.01592e-09 -4.47313e-08 -8.56602e-09)
(-2.84805e-08 -1.48343e-08 -8.72629e-09)
(2.6073e-08 7.60197e-09 -3.88035e-10)
(0 0 0)
(0 0 0)
(0 0 0)
(-2.56238e-08 7.50477e-09 -3.38146e-10)
(5.43671e-08 1.48937e-08 -1.54476e-09)
(6.15746e-09 8.87982e-09 -1.4336e-09)
(7.04154e-11 6.36589e-09 -1.41469e-09)
(-6.03321e-09 8.55174e-09 -1.33088e-09)
(-5.32808e-08 1.42637e-08 -1.36308e-09)
(5.75473e-08 1.56858e-08 -3.07207e-09)
(8.38163e-09 1.34925e-08 -2.88414e-09)
(3.06844e-10 1.20937e-08 -2.82273e-09)
(-7.77276e-09 1.27136e-08 -2.69829e-09)
(-5.58929e-08 1.41664e-08 -2.73598e-09)
(5.93173e-08 1.85235e-08 -4.56343e-09)
(9.05138e-09 1.77737e-08 -4.31695e-09)
(7.63161e-10 1.70119e-08 -4.21242e-09)
(-7.51818e-09 1.65403e-08 -4.06007e-09)
(-5.66753e-08 1.60958e-08 -4.08704e-09)
(6.13311e-08 2.18598e-08 -5.93433e-09)
(9.52747e-09 2.16264e-08 -5.63157e-09)
(1.45103e-09 2.11255e-08 -5.48723e-09)
(-6.60878e-09 1.99437e-08 -5.31101e-09)
(-5.72451e-08 1.85309e-08 -5.32713e-09)
(6.41213e-08 2.46164e-08 -6.98926e-09)
(9.85419e-09 2.5021e-08 -6.63576e-09)
(2.36773e-09 2.46623e-08 -6.45692e-09)
(-5.09714e-09 2.28971e-08 -6.2589e-09)
(-5.81527e-08 2.04155e-08 -6.26358e-09)
(6.73419e-08 2.66309e-08 -7.45699e-09)
(9.36359e-09 2.77653e-08 -7.07946e-09)
(3.50718e-09 2.72933e-08 -6.87796e-09)
(-2.34724e-09 2.52172e-08 -6.65837e-09)
(-5.91479e-08 2.16197e-08 -6.63352e-09)
(6.93047e-08 2.38386e-08 -7.1176e-09)
(7.91071e-09 2.44074e-08 -6.76103e-09)
(4.85482e-09 2.31744e-08 -6.56036e-09)
(1.72275e-09 2.153e-08 -6.3186e-09)
(-5.88504e-08 1.81716e-08 -6.23312e-09)
(3.99522e-08 -1.16e-08 -6.2285e-09)
(7.54407e-09 -4.34788e-08 -5.68212e-09)
(6.32954e-09 -4.40485e-08 -5.52944e-09)
(4.96494e-09 -4.55762e-08 -5.25918e-09)
(-2.80052e-08 -1.61879e-08 -5.45906e-09)
(2.57829e-08 7.49612e-09 -1.98412e-10)
(0 0 0)
(0 0 0)
(0 0 0)
(-2.53545e-08 7.42014e-09 -1.74865e-10)
(5.3734e-08 1.46102e-08 -7.87015e-10)
(6.03668e-09 8.68781e-09 -7.26017e-10)
(5.50794e-11 6.20353e-09 -7.1029e-10)
(-5.94881e-09 8.38123e-09 -6.76978e-10)
(-5.27097e-08 1.40356e-08 -7.00947e-10)
(5.68301e-08 1.52288e-08 -1.55846e-09)
(8.19103e-09 1.30937e-08 -1.45397e-09)
(2.69513e-10 1.1725e-08 -1.414e-09)
(-7.66285e-09 1.23493e-08 -1.36489e-09)
(-5.52816e-08 1.3786e-08 -1.39844e-09)
(5.85428e-08 1.78483e-08 -2.29938e-09)
(8.81382e-09 1.7143e-08 -2.1621e-09)
(7.00183e-10 1.64096e-08 -2.09924e-09)
(-7.41179e-09 1.59508e-08 -2.03839e-09)
(-5.60558e-08 1.55085e-08 -2.07118e-09)
(6.05027e-08 2.09659e-08 -2.96119e-09)
(9.2482e-09 2.07714e-08 -2.79503e-09)
(1.36152e-09 2.02972e-08 -2.71189e-09)
(-6.51307e-09 1.91321e-08 -2.63989e-09)
(-5.66228e-08 1.77279e-08 -2.66848e-09)
(6.32411e-08 2.35604e-08 -3.44942e-09)
(9.53891e-09 2.39932e-08 -3.25898e-09)
(2.25282e-09 2.36584e-08 -3.15877e-09)
(-5.01576e-09 2.19118e-08 -3.0758e-09)
(-5.75281e-08 1.94476e-08 -3.09761e-09)
(6.64292e-08 2.55018e-08 -3.64261e-09)
(9.0314e-09 2.66494e-08 -3.44106e-09)
(3.36912e-09 2.6202e-08 -3.32985e-09)
(-2.29494e-09 2.41416e-08 -3.23576e-09)
(-5.85354e-08 2.05729e-08 -3.24164e-09)
(6.84163e-08 2.27081e-08 -3.44656e-09)
(7.58562e-09 2.33038e-08 -3.25478e-09)
(4.69618e-09 2.21114e-08 -3.14396e-09)
(1.72693e-09 2.04631e-08 -3.03891e-09)
(-5.82994e-08 1.7116e-08 -3.01488e-09)
(3.93194e-08 -1.2497e-08 -2.99317e-09)
(7.20218e-09 -4.40916e-08 -2.70476e-09)
(6.15256e-09 -4.45913e-08 -2.61553e-09)
(4.9489e-09 -4.61575e-08 -2.49904e-09)
(-2.77303e-08 -1.70258e-08 -2.618e-09)
(1.98979e-08 8.13095e-09 0)
(2.14419e-09 3.18607e-09 0)
(-1.50089e-12 1.62067e-09 0)
(-2.1614e-09 3.14204e-09 0)
(-1.96377e-08 8.04739e-09 0)
(3.22185e-08 1.27628e-08 0)
(5.99836e-09 8.62053e-09 0)
(5.03205e-11 6.14622e-09 0)
(-5.92187e-09 8.32096e-09 0)
(-3.16901e-08 1.22672e-08 0)
(3.5303e-08 1.45974e-08 0)
(8.12969e-09 1.29544e-08 0)
(2.57744e-10 1.1596e-08 0)
(-7.62701e-09 1.22214e-08 0)
(-3.43008e-08 1.3343e-08 0)
(3.64877e-08 1.74832e-08 0)
(8.73638e-09 1.69253e-08 0)
(6.80096e-10 1.62017e-08 0)
(-7.37623e-09 1.57468e-08 0)
(-3.45891e-08 1.54471e-08 0)
(3.76482e-08 2.05992e-08 0)
(9.1568e-09 2.04804e-08 0)
(1.3327e-09 2.00151e-08 0)
(-6.4808e-09 1.88555e-08 0)
(-3.43984e-08 1.77796e-08 0)
(3.907e-08 2.33301e-08 0)
(9.43592e-09 2.36477e-08 0)
(2.21553e-09 2.33208e-08 0)
(-4.98869e-09 2.15806e-08 0)
(-3.40234e-08 1.97417e-08 0)
(4.01004e-08 2.56076e-08 0)
(8.92301e-09 2.62772e-08 0)
(3.32405e-09 2.58377e-08 0)
(-2.27794e-09 2.37829e-08 0)
(-3.28816e-08 2.12897e-08 0)
(3.97272e-08 2.28736e-08 0)
(7.47942e-09 2.29354e-08 0)
(4.64413e-09 2.17556e-08 0)
(1.72786e-09 2.01072e-08 0)
(-3.01611e-08 1.79621e-08 0)
(2.92802e-08 -2.03577e-09 0)
(6.84193e-09 -1.29226e-08 0)
(5.72423e-09 -1.40383e-08 0)
(4.4593e-09 -1.54275e-08 0)
(-1.8156e-08 -6.53005e-09 0)
)
;

boundaryField
{
    interface
    {
        type            calculated;
    }
    symmetry
    {
        type            symmetry;
    }
    bottom
    {
        type            calculated;
    }
}


// ************************************************************************* //
