/*--------------------------------*- C++ -*----------------------------------*\
| =========                 |                                                 |
| \\      /  F ield         | OpenFOAM: The Open Source CFD Toolbox           |
|  \\    /   O peration     | Version:  v1912                                 |
|   \\  /    A nd           | Website:  www.openfoam.com                      |
|    \\/     M anipulation  |                                                 |
\*---------------------------------------------------------------------------*/
FoamFile
{
    version     2.0;
    format      ascii;
    class       volScalarField;
    location    "0.16/solid";
    object      T;
}
// * * * * * * * * * * * * * * * * * * * * * * * * * * * * * * * * * * * * * //

dimensions      [0 0 0 1 0 0 0];


internalField   nonuniform List<scalar> 
256
(
292.153
292.576
292.577
292.148
292.089
292.542
292.543
292.083
292.084
292.54
292.541
292.079
292.077
292.537
292.538
292.072
292.065
292.531
292.532
292.061
292.042
292.519
292.52
292.037
291.977
292.476
292.477
291.972
291.384
291.933
291.935
291.382
292.608
292.969
292.969
292.6
292.576
292.966
292.966
292.567
292.574
292.966
292.965
292.565
292.571
292.966
292.965
292.562
292.565
292.966
292.965
292.556
292.552
292.965
292.964
292.544
292.509
292.945
292.945
292.5
291.977
292.476
292.477
291.972
292.647
292.985
292.985
292.639
292.618
292.984
292.983
292.609
292.616
292.984
292.983
292.607
292.613
292.984
292.983
292.604
292.607
292.983
292.983
292.598
292.595
292.983
292.982
292.586
292.552
292.965
292.964
292.544
292.042
292.519
292.52
292.037
292.659
292.986
292.985
292.65
292.631
292.984
292.984
292.621
292.628
292.984
292.984
292.619
292.625
292.984
292.984
292.616
292.619
292.984
292.984
292.61
292.607
292.983
292.983
292.598
292.565
292.966
292.965
292.556
292.065
292.531
292.532
292.061
292.665
292.986
292.986
292.656
292.637
292.985
292.984
292.627
292.634
292.985
292.984
292.624
292.631
292.984
292.984
292.621
292.625
292.984
292.984
292.616
292.613
292.984
292.983
292.604
292.571
292.966
292.965
292.562
292.077
292.537
292.538
292.072
292.668
292.986
292.986
292.658
292.64
292.985
292.984
292.63
292.637
292.985
292.984
292.627
292.634
292.985
292.984
292.624
292.628
292.984
292.984
292.619
292.616
292.984
292.983
292.607
292.574
292.966
292.965
292.565
292.083
292.54
292.541
292.078
292.669
292.986
292.986
292.66
292.642
292.985
292.984
292.631
292.639
292.985
292.984
292.629
292.636
292.985
292.984
292.626
292.63
292.984
292.984
292.62
292.617
292.984
292.983
292.608
292.575
292.966
292.966
292.566
292.087
292.541
292.542
292.082
292.67
292.986
292.986
292.661
292.642
292.985
292.984
292.632
292.64
292.985
292.984
292.63
292.637
292.985
292.984
292.627
292.63
292.984
292.984
292.621
292.618
292.984
292.983
292.609
292.576
292.966
292.966
292.567
292.088
292.542
292.543
292.083
)
;

boundaryField
{
    interface
    {
        type            fixedValue;
        value           nonuniform List<scalar> 
192
(
289.938
289.885
289.851
289.797
289.708
289.554
289.26
288.413
290.706
290.673
290.644
290.597
290.517
290.375
290.093
289.26
290.981
290.95
290.923
290.876
290.798
290.656
290.375
289.554
291.122
291.092
291.064
291.018
290.939
290.797
290.516
289.707
291.201
291.171
291.143
291.097
291.017
290.876
290.596
289.796
291.247
291.217
291.189
291.142
291.062
290.921
290.642
289.848
291.272
291.242
291.214
291.167
291.087
290.946
290.668
289.878
291.284
291.254
291.226
291.179
291.099
290.957
290.68
289.892
289.784
289.731
289.697
289.644
289.556
289.403
289.105
288.242
290.414
290.38
290.352
290.307
290.23
290.091
289.808
288.947
290.432
290.399
290.372
290.326
290.249
290.111
289.827
288.968
289.835
289.785
289.754
289.702
289.614
289.461
289.163
288.301
289.972
289.92
289.888
289.835
289.747
289.592
289.293
288.434
290.747
290.714
290.687
290.642
290.563
290.422
290.137
289.293
291.023
290.994
290.968
290.923
290.846
290.706
290.422
289.592
291.163
291.134
291.108
291.064
290.986
290.846
290.563
289.747
291.241
291.212
291.186
291.142
291.064
290.923
290.642
289.836
291.286
291.257
291.231
291.186
291.108
290.968
290.687
289.888
291.311
291.282
291.256
291.211
291.132
290.992
290.713
289.917
291.322
291.293
291.267
291.222
291.143
291.003
290.724
289.931
288.242
289.105
289.402
289.555
289.642
289.694
289.723
289.737
288.947
289.808
290.091
290.229
290.306
290.35
290.375
290.387
288.967
289.827
290.111
290.249
290.326
290.37
290.395
290.407
288.301
289.163
289.461
289.614
289.701
289.753
289.782
289.795
)
;
    }
    symmetry
    {
        type            symmetry;
    }
    bottom
    {
        type            fixedValue;
        value           uniform 293;
    }
}


// ************************************************************************* //
