/*--------------------------------*- C++ -*----------------------------------*\
| =========                 |                                                 |
| \\      /  F ield         | OpenFOAM: The Open Source CFD Toolbox           |
|  \\    /   O peration     | Version:  v1912                                 |
|   \\  /    A nd           | Website:  www.openfoam.com                      |
|    \\/     M anipulation  |                                                 |
\*---------------------------------------------------------------------------*/
FoamFile
{
    version     2.0;
    format      ascii;
    class       surfaceScalarField;
    location    "0.98/fluid";
    object      phi;
}
// * * * * * * * * * * * * * * * * * * * * * * * * * * * * * * * * * * * * * //

dimensions      [0 3 -1 0 0 0 0];
oriented        oriented;


internalField   nonuniform List<scalar> 
41600
(
5.00427e-05
1.26499e-05
3.20443e-07
-5.13057e-07
3.97138e-05
1.0682e-05
5.74991e-07
-9.2812e-07
3.18687e-05
8.23625e-06
5.21051e-07
-9.1224e-07
2.68182e-05
5.40251e-06
2.02177e-07
-5.54139e-07
2.36788e-05
3.40737e-06
-3.53602e-07
8.55762e-08
2.17655e-05
2.08491e-06
-1.08736e-06
9.15803e-07
2.05321e-05
1.3111e-06
-1.98277e-06
1.90501e-06
1.96303e-05
8.8812e-07
-3.05403e-06
3.06777e-06
1.88442e-05
6.77215e-07
-4.35632e-06
4.46522e-06
1.80381e-05
5.64351e-07
-5.96863e-06
6.21031e-06
1.71312e-05
4.73276e-07
-8.03732e-06
8.47099e-06
1.60071e-05
2.92984e-07
-1.06699e-05
1.1501e-05
1.45201e-05
-4.57263e-09
-1.42238e-05
1.57155e-05
1.21771e-05
-7.55476e-07
-1.82861e-05
2.13845e-05
7.75294e-06
-1.32665e-06
-2.28572e-05
2.86081e-05
-3.67193e-06
-1.8282e-05
2.97069e-05
6.47306e-05
1.06928e-05
4.58606e-07
-7.32162e-07
6.32651e-05
1.26914e-05
8.85867e-07
-1.42975e-06
6.04727e-05
1.16977e-05
9.17421e-07
-1.58645e-06
5.73877e-05
9.16231e-06
5.26036e-07
-1.20091e-06
5.46354e-05
6.746e-06
-3.1112e-07
-2.7523e-07
5.23665e-05
4.7978e-06
-1.54313e-06
1.09922e-06
5.04858e-05
3.47326e-06
-3.13737e-06
2.85585e-06
4.88061e-05
2.68034e-06
-5.10067e-06
4.98818e-06
4.71308e-05
2.28843e-06
-7.50799e-06
7.572e-06
4.52567e-05
2.14927e-06
-1.0493e-05
1.07822e-05
4.29896e-05
2.13672e-06
-1.42929e-05
1.48966e-05
3.99856e-05
2.09178e-06
-1.91333e-05
2.03385e-05
3.58111e-05
1.93786e-06
-2.5486e-05
2.77182e-05
2.92325e-05
1.19278e-06
-3.27055e-05
3.73358e-05
1.90089e-05
1.859e-07
-3.97088e-05
4.84198e-05
-2.96027e-06
-3.07736e-05
4.90709e-05
6.63638e-05
7.12571e-06
5.15363e-07
-8.12015e-07
6.87561e-05
1.09076e-05
1.0204e-06
-1.62892e-06
6.97825e-05
1.14411e-05
1.10712e-06
-1.87686e-06
6.96524e-05
1.00933e-05
7.34498e-07
-1.53542e-06
6.88645e-05
8.25811e-06
-1.32166e-07
-5.9203e-07
6.77134e-05
6.52752e-06
-1.45762e-06
8.79019e-07
6.63467e-05
5.24065e-06
-3.21662e-06
2.81592e-06
6.4777e-05
4.45782e-06
-5.41899e-06
5.21124e-06
6.29311e-05
4.13678e-06
-8.14149e-06
8.13905e-06
6.06495e-05
4.17593e-06
-1.15309e-05
1.17858e-05
5.77046e-05
4.47019e-06
-1.58419e-05
1.64534e-05
5.36465e-05
4.87034e-06
-2.13507e-05
2.26302e-05
4.78691e-05
5.28203e-06
-2.85577e-05
3.09909e-05
3.87554e-05
5.1545e-06
-3.69009e-05
4.20529e-05
2.47684e-05
4.26731e-06
-4.49882e-05
5.48937e-05
2.1264e-07
-3.53208e-05
5.69163e-05
6.53331e-05
4.5927e-06
5.42558e-07
-8.42621e-07
6.85699e-05
8.29813e-06
1.09123e-06
-1.71854e-06
7.12037e-05
9.6086e-06
1.2122e-06
-2.01349e-06
7.28135e-05
9.32419e-06
8.63584e-07
-1.70426e-06
7.35092e-05
8.33081e-06
1.58843e-08
-7.84293e-07
7.34611e-05
7.19997e-06
-1.29614e-06
6.71846e-07
7.2833e-05
6.31367e-06
-3.04992e-06
2.605e-06
7.17077e-05
5.83088e-06
-5.25871e-06
5.0109e-06
7.00824e-05
5.79825e-06
-7.99953e-06
7.96333e-06
6.7839e-05
6.19052e-06
-1.14239e-05
1.16527e-05
6.4747e-05
6.96488e-06
-1.57868e-05
1.63842e-05
6.03036e-05
8.02597e-06
-2.13932e-05
2.2681e-05
5.379e-05
9.30212e-06
-2.87519e-05
3.12454e-05
4.33908e-05
1.01908e-05
-3.74138e-05
4.27766e-05
2.73234e-05
9.89638e-06
-4.59639e-05
5.64022e-05
4.48124e-06
-3.66188e-05
5.96736e-05
6.43981e-05
2.99177e-06
5.6369e-07
-8.60846e-07
6.73366e-05
5.98752e-06
1.1454e-06
-1.77327e-06
7.02661e-05
7.48365e-06
1.29656e-06
-2.10119e-06
7.25792e-05
7.85569e-06
9.74677e-07
-1.81922e-06
7.40999e-05
7.58193e-06
1.57883e-07
-9.2975e-07
7.48321e-05
7.09621e-06
-1.11245e-06
4.84063e-07
7.48639e-05
6.73254e-06
-2.80971e-06
2.35896e-06
7.42664e-05
6.68476e-06
-4.94549e-06
4.68918e-06
7.30538e-05
7.05874e-06
-7.59225e-06
7.54435e-06
7.11278e-05
7.90375e-06
-1.09005e-05
1.11132e-05
6.82631e-05
9.25287e-06
-1.51151e-05
1.56918e-05
6.39214e-05
1.11049e-05
-2.05601e-05
2.18228e-05
5.72855e-05
1.34658e-05
-2.77321e-05
3.02043e-05
4.63244e-05
1.57653e-05
-3.63271e-05
4.17137e-05
2.88975e-05
1.67464e-05
-4.49478e-05
5.55246e-05
9.80626e-06
-3.62636e-05
5.98361e-05
6.38365e-05
1.94854e-06
5.83639e-07
-8.76873e-07
6.63187e-05
4.12832e-06
1.19609e-06
-1.81911e-06
6.91162e-05
5.48534e-06
1.37996e-06
-2.17918e-06
7.16415e-05
6.16817e-06
1.09164e-06
-1.92939e-06
7.35832e-05
6.40397e-06
3.15381e-07
-1.07914e-06
7.48267e-05
6.47363e-06
-8.99437e-07
2.78509e-07
7.53784e-05
6.62678e-06
-2.51887e-06
2.07292e-06
7.52713e-05
7.04831e-06
-4.54906e-06
4.29267e-06
7.45118e-05
7.873e-06
-7.05359e-06
6.99878e-06
7.30057e-05
9.21403e-06
-1.01772e-05
1.03731e-05
7.05298e-05
1.11821e-05
-1.41474e-05
1.4694e-05
6.65143e-05
1.39084e-05
-1.93018e-05
2.05138e-05
6.00603e-05
1.75236e-05
-2.61076e-05
2.85039e-05
4.88979e-05
2.16364e-05
-3.44402e-05
3.97314e-05
3.04637e-05
2.47085e-05
-4.29184e-05
5.33906e-05
1.66443e-05
-3.52081e-05
5.88338e-05
6.35691e-05
1.16967e-06
6.06424e-07
-8.96649e-07
6.57423e-05
2.5734e-06
1.25196e-06
-1.87027e-06
6.83794e-05
3.64165e-06
1.47377e-06
-2.26718e-06
7.09629e-05
4.41545e-06
1.22784e-06
-2.05862e-06
7.314e-05
4.98305e-06
5.0319e-07
-1.25938e-06
7.47372e-05
5.49132e-06
-6.42746e-07
2.79497e-08
7.57104e-05
6.09699e-06
-2.16604e-06
1.72259e-06
7.607e-05
6.94954e-06
-4.06241e-06
3.80156e-06
7.58277e-05
8.18593e-06
-6.37872e-06
6.30811e-06
7.49169e-05
9.96503e-06
-9.24181e-06
9.40164e-06
7.31625e-05
1.24609e-05
-1.28406e-05
1.33162e-05
7.00307e-05
1.59699e-05
-1.74972e-05
1.85675e-05
6.46318e-05
2.07976e-05
-2.3587e-05
2.57119e-05
5.42912e-05
2.72086e-05
-3.11727e-05
3.59411e-05
3.56406e-05
3.38916e-05
-3.87805e-05
4.82479e-05
3.00311e-05
-3.24305e-05
5.46843e-05
6.34699e-05
6.32139e-07
-9.2098e-07
4.88614e-07
6.55163e-05
1.31379e-06
-1.92983e-06
1.14301e-06
6.80964e-05
1.57771e-06
-2.36842e-06
1.85227e-06
7.07393e-05
1.38059e-06
-2.20829e-06
2.60027e-06
7.30864e-05
7.15542e-07
-1.46906e-06
3.38943e-06
7.49432e-05
-3.52943e-07
-2.61033e-07
4.2485e-06
7.62463e-05
-1.77097e-06
1.32468e-06
5.24021e-06
7.70009e-05
-3.52173e-06
3.25115e-06
6.46546e-06
7.72305e-05
-5.63296e-06
5.54135e-06
8.04794e-06
7.68985e-05
-8.20933e-06
8.32731e-06
1.01791e-05
7.58794e-05
-1.13977e-05
1.17955e-05
1.30823e-05
7.36928e-05
-1.54964e-05
1.6414e-05
1.72389e-05
6.95307e-05
-2.07851e-05
2.26253e-05
2.31195e-05
6.04654e-05
-2.75376e-05
3.17574e-05
3.20541e-05
4.28428e-05
-3.42875e-05
4.27362e-05
4.30655e-05
-3.02063e-05
5.12955e-05
5.17847e-05
4.99765e-05
1.26562e-05
1.87695e-07
3.9521e-05
1.07012e-05
3.29378e-07
3.15349e-05
8.25926e-06
2.47865e-07
2.63528e-05
5.42257e-06
-3.82823e-08
2.30924e-05
3.42566e-06
-5.18875e-07
2.10568e-05
2.10461e-06
-1.15636e-06
1.96812e-05
1.33712e-06
-1.94428e-06
1.85981e-05
9.24437e-07
-2.89534e-06
1.75706e-05
7.27626e-07
-4.05653e-06
1.64468e-05
6.31917e-07
-5.47668e-06
1.51159e-05
5.65457e-07
-7.27194e-06
1.34705e-05
4.19467e-07
-9.44395e-06
1.13119e-05
1.78437e-07
-1.22437e-05
8.43821e-06
-4.89074e-07
-1.49234e-05
3.91675e-06
-1.07831e-06
-1.72574e-05
-2.87196e-06
-1.14933e-05
6.46373e-05
1.07078e-05
2.69729e-07
6.29879e-05
1.27285e-05
5.07952e-07
5.99633e-05
1.17499e-05
4.51339e-07
5.66291e-05
9.21916e-06
6.37307e-08
5.36239e-05
6.80594e-06
-6.86208e-07
5.10923e-05
4.86518e-06
-1.77218e-06
4.89157e-05
3.55771e-06
-3.18131e-06
4.68736e-05
2.79249e-06
-4.92666e-06
4.4729e-05
2.43954e-06
-7.07526e-06
4.22389e-05
2.34824e-06
-9.71926e-06
3.91558e-05
2.39702e-06
-1.30414e-05
3.51326e-05
2.4192e-06
-1.71098e-05
2.96952e-05
2.34449e-06
-2.22146e-05
2.20853e-05
1.65478e-06
-2.72395e-05
1.15208e-05
5.5994e-07
-3.07826e-05
-2.4598e-06
-1.96649e-05
6.62699e-05
7.14419e-06
3.09061e-07
6.84701e-05
1.09534e-05
5.95226e-07
6.92473e-05
1.15123e-05
5.67532e-07
6.88388e-05
1.01817e-05
1.80401e-07
6.7758e-05
8.3618e-06
-6.0719e-07
6.62959e-05
6.65182e-06
-1.78213e-06
6.45779e-05
5.39864e-06
-3.33961e-06
6.25831e-05
4.66649e-06
-5.29812e-06
6.01927e-05
4.4166e-06
-7.72819e-06
5.71991e-05
4.54618e-06
-1.07352e-05
5.33114e-05
4.95676e-06
-1.4514e-05
4.80653e-05
5.48534e-06
-1.91707e-05
4.08048e-05
6.04429e-06
-2.4997e-05
3.04339e-05
5.99145e-06
-3.08666e-05
1.59994e-05
4.98882e-06
-3.49825e-05
5.37604e-07
-2.23189e-05
6.5242e-05
4.61243e-06
3.32327e-07
6.82889e-05
8.34781e-06
6.49938e-07
7.06763e-05
9.69106e-06
6.46015e-07
7.20096e-05
9.43632e-06
2.75761e-07
7.24119e-05
8.47289e-06
-4.97568e-07
7.20497e-05
7.37926e-06
-1.66135e-06
7.10654e-05
6.54659e-06
-3.21359e-06
6.95091e-05
6.14055e-06
-5.17648e-06
6.73322e-05
6.21529e-06
-7.62129e-06
6.4365e-05
6.74821e-06
-1.06586e-05
6.03085e-05
7.70881e-06
-1.44824e-05
5.46357e-05
8.98753e-06
-1.92225e-05
4.65656e-05
1.05293e-05
-2.51668e-05
3.48095e-05
1.15854e-05
-3.12516e-05
1.81999e-05
1.12326e-05
-3.55981e-05
4.91354e-06
-2.27949e-05
6.43093e-05
3.01295e-06
3.5387e-07
6.70612e-05
6.04105e-06
7.00303e-07
6.97506e-05
7.57554e-06
7.22657e-07
7.1797e-05
7.98771e-06
3.76846e-07
7.30376e-05
7.75752e-06
-3.67298e-07
7.34711e-05
7.3252e-06
-1.49195e-06
7.31651e-05
7.03471e-06
-2.99176e-06
7.21583e-05
7.08926e-06
-4.88743e-06
7.04205e-05
7.60681e-06
-7.24601e-06
6.78012e-05
8.64505e-06
-1.0178e-05
6.40041e-05
1.02585e-05
-1.38677e-05
5.84567e-05
1.24379e-05
-1.84631e-05
5.02641e-05
1.5227e-05
-2.42371e-05
3.78978e-05
1.78629e-05
-3.02384e-05
1.97961e-05
1.8969e-05
-3.45826e-05
1.06246e-05
-2.21786e-05
6.37493e-05
1.97211e-06
3.75142e-07
6.60483e-05
4.18706e-06
7.51147e-07
6.86124e-05
5.58684e-06
8.0455e-07
7.08829e-05
6.31775e-06
4.91062e-07
7.25616e-05
6.60814e-06
-2.13909e-07
7.35284e-05
6.7451e-06
-1.28611e-06
7.37693e-05
6.98872e-06
-2.71385e-06
7.32865e-05
7.53578e-06
-4.51271e-06
7.20434e-05
8.53791e-06
-6.74157e-06
6.98938e-05
1.01241e-05
-9.5067e-06
6.65439e-05
1.24379e-05
-1.29768e-05
6.13801e-05
1.56154e-05
-1.73154e-05
5.34124e-05
1.98558e-05
-2.27688e-05
4.08329e-05
2.4543e-05
-2.85408e-05
2.15816e-05
2.80685e-05
-3.27665e-05
1.81215e-05
-2.11235e-05
6.34837e-05
1.1961e-06
3.9869e-07
6.54777e-05
2.63791e-06
8.07163e-07
6.78889e-05
3.75221e-06
8.9717e-07
7.02307e-05
4.57941e-06
6.24369e-07
7.21641e-05
5.20921e-06
-3.12833e-08
7.35106e-05
5.79472e-06
-1.03888e-06
7.42082e-05
6.50328e-06
-2.37816e-06
7.42388e-05
7.49811e-06
-4.05534e-06
7.35762e-05
8.93669e-06
-6.11489e-06
7.21075e-05
1.10009e-05
-8.64987e-06
6.95956e-05
1.39074e-05
-1.17982e-05
6.5459e-05
1.79774e-05
-1.57226e-05
5.87178e-05
2.36142e-05
-2.06043e-05
4.70584e-05
3.0876e-05
-2.58463e-05
2.74767e-05
3.84555e-05
-2.95858e-05
3.2365e-05
-1.91973e-05
6.33865e-05
4.24082e-07
5.17681e-07
6.52582e-05
8.67496e-07
1.21246e-06
6.76208e-05
9.9782e-07
1.9695e-06
7.00356e-05
7.71495e-07
2.77368e-06
7.21587e-05
1.72243e-07
3.62943e-06
7.37921e-05
-7.63119e-07
4.57155e-06
7.48566e-05
-2.00532e-06
5.67308e-06
7.53324e-05
-3.54963e-06
7.05023e-06
7.52104e-05
-5.42389e-06
8.84956e-06
7.4414e-05
-7.70436e-06
1.12924e-05
7.27667e-05
-1.04948e-05
1.46517e-05
6.97382e-05
-1.39511e-05
1.94605e-05
6.44455e-05
-1.81857e-05
2.63075e-05
5.42192e-05
-2.28305e-05
3.63952e-05
3.56659e-05
-2.6104e-05
4.88254e-05
-1.76631e-05
5.54876e-05
4.9926e-05
1.26624e-05
9.92149e-08
3.93711e-05
1.07186e-05
1.65762e-07
3.12669e-05
8.28108e-06
7.0989e-08
2.59652e-05
5.44331e-06
-1.79896e-07
2.25865e-05
3.4451e-06
-5.85332e-07
2.0426e-05
2.12503e-06
-1.12088e-06
1.89039e-05
1.36287e-06
-1.78499e-06
1.76357e-05
9.58846e-07
-2.58601e-06
1.63638e-05
7.73855e-07
-3.55853e-06
1.49187e-05
6.92213e-07
-4.72377e-06
1.31616e-05
6.44669e-07
-6.15955e-06
1.09996e-05
5.23624e-07
-7.80554e-06
8.25107e-06
3.15588e-07
-9.81073e-06
5.08195e-06
-3.03538e-07
-1.14507e-05
1.24197e-06
-9.79022e-07
-1.24384e-05
-2.54147e-06
-7.70988e-06
6.45656e-05
1.0723e-05
1.43481e-07
6.27717e-05
1.27644e-05
2.56059e-07
5.95545e-05
1.18013e-05
1.48373e-07
5.59999e-05
9.27768e-06
-2.16041e-07
5.27578e-05
6.869e-06
-8.68e-07
4.99694e-05
4.93545e-06
-1.79419e-06
4.74988e-05
3.64362e-06
-2.99149e-06
4.50994e-05
2.90346e-06
-4.47189e-06
4.24989e-05
2.58623e-06
-6.28713e-06
3.94222e-05
2.53923e-06
-8.48951e-06
3.55812e-05
2.64476e-06
-1.12005e-05
3.06539e-05
2.72868e-06
-1.43876e-05
2.4222e-05
2.72163e-06
-1.81889e-05
1.61069e-05
2.07301e-06
-2.15009e-05
6.44473e-06
8.65963e-07
-2.29653e-05
-2.17608e-06
-1.35856e-05
6.61984e-05
7.16387e-06
1.69854e-07
6.82484e-05
1.09999e-05
3.09712e-07
6.88197e-05
1.15842e-05
2.13255e-07
6.81674e-05
1.02726e-05
-1.6213e-07
6.68151e-05
8.46901e-06
-8.54882e-07
6.50521e-05
6.77899e-06
-1.86267e-06
6.29888e-05
5.55711e-06
-3.18983e-06
6.05772e-05
4.87143e-06
-4.85453e-06
5.76607e-05
4.68716e-06
-6.91257e-06
5.39924e-05
4.90046e-06
-9.42815e-06
4.92342e-05
5.41901e-06
-1.25301e-05
4.29384e-05
6.06603e-06
-1.62123e-05
3.45016e-05
6.75818e-06
-2.05967e-05
2.34659e-05
6.77104e-06
-2.4529e-05
9.94357e-06
5.66337e-06
-2.62576e-05
8.44543e-07
-1.53959e-05
6.51733e-05
4.63389e-06
1.8899e-07
6.80729e-05
8.39934e-06
3.50851e-07
7.02579e-05
9.77518e-06
2.70038e-07
7.13499e-05
9.55053e-06
-9.41708e-08
7.1481e-05
8.61703e-06
-7.76697e-07
7.08155e-05
7.55914e-06
-1.77597e-06
6.94814e-05
6.77645e-06
-3.09885e-06
6.75025e-05
6.44114e-06
-4.76726e-06
6.47914e-05
6.61495e-06
-6.83796e-06
6.11361e-05
7.27742e-06
-9.38039e-06
5.61851e-05
8.40942e-06
-1.25218e-05
4.94175e-05
9.88599e-06
-1.62748e-05
4.00932e-05
1.16673e-05
-2.07516e-05
2.75728e-05
1.28732e-05
-2.48333e-05
1.18132e-05
1.24919e-05
-2.6667e-05
5.46617e-06
-1.56033e-05
6.4243e-05
3.03566e-06
2.0908e-07
6.68513e-05
6.09626e-06
3.95118e-07
6.93446e-05
7.66842e-06
3.36137e-07
7.1159e-05
8.11984e-06
-6.91347e-09
7.21402e-05
7.93203e-06
-6.63484e-07
7.22848e-05
7.55066e-06
-1.62804e-06
7.16457e-05
7.32857e-06
-2.90476e-06
7.0236e-05
7.47794e-06
-4.51454e-06
6.79872e-05
8.12838e-06
-6.51064e-06
6.47049e-05
9.3447e-06
-8.96302e-06
6.00364e-05
1.12013e-05
-1.1991e-05
5.34048e-05
1.36777e-05
-1.56232e-05
4.394e-05
1.6853e-05
-1.99581e-05
3.07478e-05
1.97918e-05
-2.39648e-05
1.338e-05
2.10567e-05
-2.57796e-05
1.16989e-05
-1.50313e-05
6.36848e-05
1.99646e-06
2.29562e-07
6.58437e-05
4.24615e-06
4.42358e-07
6.82182e-05
5.68732e-06
4.11107e-07
7.02675e-05
6.46433e-06
9.72836e-08
7.17023e-05
6.80715e-06
-5.2383e-07
7.24004e-05
7.00798e-06
-1.44151e-06
7.23335e-05
7.33634e-06
-2.65472e-06
7.14786e-05
8.00032e-06
-4.18018e-06
6.97622e-05
9.16743e-06
-6.06427e-06
6.69941e-05
1.09803e-05
-8.37425e-06
6.28222e-05
1.36134e-05
-1.12169e-05
5.66179e-05
1.72027e-05
-1.46362e-05
4.74009e-05
2.20128e-05
-1.87115e-05
3.39636e-05
2.72282e-05
-2.25399e-05
1.52981e-05
3.12437e-05
-2.4288e-05
2.00487e-05
-1.41753e-05
6.3421e-05
1.22222e-06
2.51926e-07
6.52789e-05
2.70079e-06
4.94593e-07
6.75078e-05
3.85903e-06
4.96561e-07
6.96401e-05
4.73688e-06
2.19574e-07
7.13473e-05
5.42593e-06
-3.57248e-07
7.24495e-05
6.08445e-06
-1.2176e-06
7.28715e-05
6.88964e-06
-2.35348e-06
7.25729e-05
8.01778e-06
-3.77413e-06
7.14943e-05
9.64559e-06
-5.51445e-06
6.94824e-05
1.19754e-05
-7.63298e-06
6.62475e-05
1.52644e-05
-1.02144e-05
6.11858e-05
1.98522e-05
-1.33104e-05
5.33172e-05
2.62383e-05
-1.69612e-05
4.08419e-05
3.4297e-05
-2.04398e-05
2.16423e-05
4.28298e-05
-2.19722e-05
3.54129e-05
-1.29193e-05
6.33256e-05
2.75431e-07
5.45243e-07
6.50658e-05
5.50019e-07
1.27812e-06
6.7254e-05
5.88512e-07
2.08012e-06
6.94718e-05
3.53386e-07
2.93716e-06
7.13872e-05
-1.72999e-07
3.85582e-06
7.28018e-05
-9.6947e-07
4.87615e-06
7.36256e-05
-2.02057e-06
6.08116e-06
7.38191e-05
-3.32666e-06
7.60132e-06
7.33455e-05
-4.90944e-06
9.60473e-06
7.20928e-05
-6.81599e-06
1.23396e-05
6.98412e-05
-9.10625e-06
1.61275e-05
6.60335e-05
-1.18357e-05
2.15445e-05
5.9788e-05
-1.50042e-05
2.93023e-05
4.8847e-05
-1.80856e-05
4.04932e-05
3.05677e-05
-1.944e-05
5.4445e-05
-1.19343e-05
6.02518e-05
4.98876e-05
1.26681e-05
4.34793e-08
3.92555e-05
1.07338e-05
6.40461e-08
3.10563e-05
8.3006e-06
-3.03768e-08
2.56548e-05
5.46256e-06
-2.41032e-07
2.2176e-05
3.46357e-06
-5.70027e-07
1.99118e-05
2.14494e-06
-1.00162e-06
1.82751e-05
1.38818e-06
-1.53649e-06
1.68755e-05
9.93171e-07
-2.17956e-06
1.54503e-05
8.21375e-07
-2.95473e-06
1.38351e-05
7.57823e-07
-3.86636e-06
1.18996e-05
7.37994e-07
-4.96206e-06
9.59224e-06
6.61992e-07
-6.16018e-06
6.78875e-06
5.28081e-07
-7.53533e-06
3.78589e-06
4.29543e-08
-8.49083e-06
6.2717e-07
-5.38114e-07
-8.74161e-06
-1.9132e-06
-5.16952e-06
6.45106e-05
1.07372e-05
6.3779e-08
6.26042e-05
1.27968e-05
9.95082e-08
5.92322e-05
1.1848e-05
-2.70288e-08
5.54947e-05
9.3319e-06
-3.47878e-07
5.20516e-05
6.92819e-06
-8.89531e-07
4.90459e-05
5.00186e-06
-1.64539e-06
4.63347e-05
3.72452e-06
-2.61668e-06
4.3661e-05
3.00764e-06
-3.8126e-06
4.07408e-05
2.72465e-06
-5.27024e-06
3.73004e-05
2.72302e-06
-7.01429e-06
3.30634e-05
2.89213e-06
-9.11772e-06
2.77793e-05
3.06034e-06
-1.15018e-05
2.11487e-05
3.17305e-06
-1.42032e-05
1.32945e-05
2.68364e-06
-1.62874e-05
4.78753e-06
1.59738e-06
-1.65938e-05
-1.40233e-06
-9.30895e-06
6.61437e-05
7.18262e-06
8.07582e-08
6.80769e-05
1.1043e-05
1.30258e-07
6.84831e-05
1.16507e-05
4.36419e-09
6.76286e-05
1.03571e-05
-3.32842e-07
6.60464e-05
8.56919e-06
-9.13686e-07
6.40283e-05
6.89761e-06
-1.74024e-06
6.16794e-05
5.70371e-06
-2.82013e-06
5.89415e-05
5.05937e-06
-4.16838e-06
5.56453e-05
4.93424e-06
-5.82596e-06
5.15425e-05
5.22511e-06
-7.8275e-06
4.63064e-05
5.84815e-06
-1.025e-05
3.95643e-05
6.62214e-06
-1.3032e-05
3.08472e-05
7.47917e-06
-1.61858e-05
2.00596e-05
7.65403e-06
-1.87117e-05
7.85566e-06
6.64387e-06
-1.91001e-05
1.62259e-06
-1.05652e-05
6.51212e-05
4.65464e-06
9.57931e-08
6.79069e-05
8.448e-06
1.60144e-07
6.993e-05
9.85366e-06
4.3976e-08
7.08224e-05
9.65692e-06
-2.86333e-07
7.07242e-05
8.75092e-06
-8.60273e-07
6.98016e-05
7.725e-06
-1.68075e-06
6.8178e-05
6.98615e-06
-2.75767e-06
6.58673e-05
6.71225e-06
-4.10949e-06
6.27699e-05
6.97198e-06
-5.77831e-06
5.86711e-05
7.74703e-06
-7.80354e-06
5.32291e-05
9.02914e-06
-1.02608e-05
4.59956e-05
1.06835e-05
-1.31027e-05
3.63649e-05
1.26884e-05
-1.63302e-05
2.40692e-05
1.40778e-05
-1.89614e-05
9.64398e-06
1.37871e-05
-1.93851e-05
6.31088e-06
-1.06477e-05
6.41931e-05
3.05752e-06
1.13128e-07
6.6691e-05
6.14836e-06
1.96821e-07
6.9028e-05
7.7549e-06
9.79461e-08
7.06509e-05
8.24214e-06
-2.15113e-07
7.14133e-05
8.09247e-06
-7.67344e-07
7.1313e-05
7.756e-06
-1.55878e-06
7.03986e-05
7.59317e-06
-2.59734e-06
6.86738e-05
7.82344e-06
-3.90093e-06
6.60582e-05
8.5859e-06
-5.50897e-06
6.2354e-05
9.94994e-06
-7.46181e-06
5.72166e-05
1.20047e-05
-9.82908e-06
5.01362e-05
1.47174e-05
-1.25767e-05
4.03691e-05
1.81921e-05
-1.56947e-05
2.73815e-05
2.13671e-05
-1.82665e-05
1.12944e-05
2.2764e-05
-1.86693e-05
1.27462e-05
-1.01722e-05
6.36364e-05
2.01945e-06
1.31225e-07
6.56883e-05
4.30119e-06
2.37618e-07
6.79124e-05
5.77991e-06
1.62022e-07
6.97796e-05
6.59848e-06
-1.26286e-07
7.10088e-05
6.98787e-06
-6.4838e-07
7.14792e-05
7.24445e-06
-1.40034e-06
7.11581e-05
7.64553e-06
-2.386e-06
7.00136e-05
8.40784e-06
-3.62006e-06
6.79609e-05
9.71083e-06
-5.13654e-06
6.48059e-05
1.1705e-05
-6.97427e-06
6.0203e-05
1.45842e-05
-9.19359e-06
5.35844e-05
1.84738e-05
-1.1774e-05
4.40851e-05
2.36729e-05
-1.46931e-05
3.08368e-05
2.92089e-05
-1.71334e-05
1.3362e-05
3.34563e-05
-1.75055e-05
2.14409e-05
-9.508e-06
6.33743e-05
1.24625e-06
1.50866e-07
6.51288e-05
2.75826e-06
2.82946e-07
6.72137e-05
3.95602e-06
2.35603e-07
6.91741e-05
4.879e-06
-2.13921e-08
7.06905e-05
5.62028e-06
-5.0599e-07
7.15851e-05
6.34222e-06
-1.21e-06
7.17791e-05
7.22976e-06
-2.13168e-06
7.1224e-05
8.4689e-06
-3.28013e-06
6.98511e-05
1.025e-05
-4.68073e-06
6.75036e-05
1.27864e-05
-6.36691e-06
6.38987e-05
1.63587e-05
-8.38401e-06
5.84834e-05
2.13009e-05
-1.07222e-05
5.03798e-05
2.81538e-05
-1.33384e-05
3.80838e-05
3.66197e-05
-1.55546e-05
1.99259e-05
4.55013e-05
-1.58595e-05
3.71298e-05
-8.68227e-06
6.32805e-05
1.71205e-07
5.6993e-07
6.49213e-05
3.30646e-07
1.33689e-06
6.69725e-05
3.14399e-07
2.17893e-06
6.90293e-05
9.29299e-08
3.08263e-06
7.07692e-05
-3.49143e-07
4.0565e-06
7.19973e-05
-9.99814e-07
5.14446e-06
7.26208e-05
-1.85139e-06
6.43718e-06
7.25937e-05
-2.90623e-06
8.07551e-06
7.18719e-05
-4.17975e-06
1.02421e-05
7.0341e-05
-5.69798e-06
1.31993e-05
6.77888e-05
-7.4895e-06
1.72941e-05
6.3701e-05
-9.55289e-06
2.3106e-05
5.7286e-05
-1.18251e-05
3.13897e-05
4.65326e-05
-1.37885e-05
4.3076e-05
2.91616e-05
-1.40748e-05
5.75071e-05
-8.05737e-06
6.24146e-05
4.98581e-05
1.26729e-05
1.24884e-08
3.91664e-05
1.07463e-05
9.35381e-09
3.08917e-05
8.31674e-06
-7.24434e-08
2.54087e-05
5.47857e-06
-2.36555e-07
2.18455e-05
3.479e-06
-4.85828e-07
1.94927e-05
2.16144e-06
-8.10253e-07
1.77583e-05
1.40881e-06
-1.21086e-06
1.62477e-05
1.02068e-06
-1.68973e-06
1.46958e-05
8.58889e-07
-2.26171e-06
1.29432e-05
8.08775e-07
-2.92254e-06
1.08706e-05
8.09029e-07
-3.69845e-06
8.46019e-06
7.64943e-07
-4.51471e-06
5.64822e-06
6.81191e-07
-5.40456e-06
2.81689e-06
2.86154e-07
-5.94566e-06
2.098e-07
-2.34885e-07
-5.89963e-06
-1.55445e-06
-3.40528e-06
6.44682e-05
1.07494e-05
1.91589e-08
6.24746e-05
1.28243e-05
1.51399e-08
5.89802e-05
1.18875e-05
-1.03343e-07
5.50943e-05
9.37813e-06
-3.61539e-07
5.14844e-05
6.97897e-06
-7.79613e-07
4.82958e-05
5.0589e-06
-1.35427e-06
4.5382e-05
3.79362e-06
-2.08766e-06
4.24796e-05
3.09597e-06
-2.98556e-06
3.92991e-05
2.8413e-06
-4.07206e-06
3.55715e-05
2.87722e-06
-5.3552e-06
3.10384e-05
3.09884e-06
-6.87437e-06
2.55122e-05
3.33618e-06
-8.54682e-06
1.88057e-05
3.54629e-06
-1.03619e-05
1.12592e-05
3.17977e-06
-1.16345e-05
3.72873e-06
2.18217e-06
-1.14804e-05
-8.64831e-07
-6.26985e-06
6.61016e-05
7.19903e-06
2.95308e-08
6.79446e-05
1.10803e-05
3.12319e-08
6.82203e-05
1.17078e-05
-9.16265e-08
6.72021e-05
1.043e-05
-3.66543e-07
6.54297e-05
8.65573e-06
-8.18004e-07
6.31974e-05
6.99999e-06
-1.44909e-06
6.06083e-05
5.82963e-06
-2.26696e-06
5.75982e-05
5.21981e-06
-3.2822e-06
5.39917e-05
5.14403e-06
-4.52213e-06
4.95441e-05
5.4996e-06
-6.00231e-06
4.39473e-05
6.20971e-06
-7.76412e-06
3.68973e-05
7.08937e-06
-9.73514e-06
2.80553e-05
8.08342e-06
-1.18809e-05
1.75888e-05
8.39115e-06
-1.34565e-05
6.51371e-06
7.46055e-06
-1.33035e-05
2.23109e-06
-7.14743e-06
6.50812e-05
4.67303e-06
4.05949e-08
6.77792e-05
8.49051e-06
5.18343e-08
6.96747e-05
9.92179e-06
-6.5393e-08
7.04056e-05
9.74904e-06
-3.36367e-07
7.01179e-05
8.86672e-06
-7.83496e-07
6.89797e-05
7.86803e-06
-1.4106e-06
6.71123e-05
7.16603e-06
-2.22671e-06
6.45245e-05
6.94338e-06
-3.24527e-06
6.11103e-05
7.2746e-06
-4.49467e-06
5.66578e-05
8.14298e-06
-5.99444e-06
5.08427e-05
9.54898e-06
-7.78489e-06
4.32838e-05
1.13494e-05
-9.80391e-06
3.35072e-05
1.35367e-05
-1.20068e-05
2.1518e-05
1.50765e-05
-1.36575e-05
8.24224e-06
1.48642e-05
-1.35129e-05
7.01818e-06
-7.19251e-06
6.4155e-05
3.07692e-06
5.42643e-08
6.65683e-05
6.19402e-06
7.99561e-08
6.87825e-05
7.83007e-06
-2.44675e-08
7.02508e-05
8.34793e-06
-2.8237e-07
7.08321e-05
8.23084e-06
-7.12768e-07
7.05264e-05
7.9324e-06
-1.31744e-06
6.93799e-05
7.81933e-06
-2.10413e-06
6.73913e-05
8.11705e-06
-3.086e-06
6.44741e-05
8.97245e-06
-4.28961e-06
6.04325e-05
1.04583e-05
-5.73556e-06
5.49374e-05
1.26751e-05
-7.4601e-06
4.75419e-05
1.55795e-05
-9.41127e-06
3.76278e-05
1.92934e-05
-1.15373e-05
2.49279e-05
2.2658e-05
-1.31481e-05
9.95151e-06
2.41637e-05
-1.29924e-05
1.3646e-05
-6.84849e-06
6.35997e-05
2.03966e-06
6.87785e-08
6.557e-05
4.34915e-06
1.12198e-07
6.76763e-05
5.85998e-06
2.58238e-08
6.93967e-05
6.71396e-06
-2.12786e-07
7.04559e-05
7.14294e-06
-6.19642e-07
7.0735e-05
7.4466e-06
-1.19366e-06
7.01993e-05
7.90867e-06
-1.93962e-06
6.88118e-05
8.75289e-06
-2.86842e-06
6.64821e-05
1.01684e-05
-4.00276e-06
6.30172e-05
1.23114e-05
-5.36245e-06
5.80856e-05
1.53906e-05
-6.97751e-06
5.11763e-05
1.95215e-05
-8.8067e-06
4.15409e-05
2.50272e-05
-1.07914e-05
2.85623e-05
3.08164e-05
-1.23132e-05
1.21273e-05
3.52453e-05
-1.21522e-05
2.26427e-05
-6.37736e-06
6.3339e-05
1.26709e-06
8.44913e-08
6.50151e-05
2.80781e-06
1.48184e-07
6.69875e-05
4.03922e-06
8.39384e-08
6.88097e-05
5.00057e-06
-1.30205e-07
7.01684e-05
5.78608e-06
-5.07843e-07
7.08884e-05
6.56146e-06
-1.0448e-06
7.08891e-05
7.5181e-06
-1.74181e-06
7.01179e-05
8.84977e-06
-2.60583e-06
6.85012e-05
1.07578e-05
-3.65352e-06
6.58834e-05
1.34639e-05
-4.90158e-06
6.19943e-05
1.72663e-05
-6.37057e-06
5.63303e-05
2.24925e-05
-8.02915e-06
4.81164e-05
2.9712e-05
-9.80935e-06
3.60716e-05
3.84993e-05
-1.11928e-05
1.88376e-05
4.76527e-05
-1.10328e-05
3.86463e-05
-5.84835e-06
6.32467e-05
1.0062e-07
5.90991e-07
6.48123e-05
1.85878e-07
1.38692e-06
6.6757e-05
1.46018e-07
2.26291e-06
6.86847e-05
-4.0365e-08
3.20616e-06
7.028e-05
-3.84933e-07
4.22662e-06
7.13509e-05
-8.80762e-07
5.37151e-06
7.18039e-05
-1.52418e-06
6.73784e-06
7.15901e-05
-2.31739e-06
8.47475e-06
7.06617e-05
-3.27007e-06
1.07765e-05
6.89059e-05
-4.39443e-06
1.39162e-05
6.61232e-05
-5.70046e-06
1.826e-05
6.18406e-05
-7.16532e-06
2.43875e-05
5.53574e-05
-8.71334e-06
3.30834e-05
4.48494e-05
-9.94057e-06
4.51594e-05
2.82876e-05
-9.82481e-06
5.99645e-05
-5.45881e-06
6.43354e-05
4.98369e-05
1.26767e-05
-1.05058e-09
3.91023e-05
1.0756e-05
-1.2042e-08
3.07724e-05
8.3292e-06
-7.1722e-08
2.5229e-05
5.49113e-06
-1.84378e-07
2.16038e-05
3.49133e-06
-3.51918e-07
1.91873e-05
2.17487e-06
-5.68621e-07
1.73858e-05
1.42585e-06
-8.3523e-07
1.58047e-05
1.0438e-06
-1.15236e-06
1.41802e-05
8.91098e-07
-1.52833e-06
1.23607e-05
8.5375e-07
-1.95685e-06
1.02396e-05
8.73447e-07
-2.45072e-06
7.81989e-06
8.59914e-07
-2.95495e-06
5.07284e-06
8.23672e-07
-3.48118e-06
2.38676e-06
5.03853e-07
-3.76342e-06
7.65974e-08
4.64464e-08
-3.63592e-06
-1.26446e-06
-2.06422e-06
6.44376e-05
1.07589e-05
-7.16274e-10
6.23809e-05
1.28456e-05
-1.77906e-08
5.87965e-05
1.19183e-05
-1.08035e-07
5.48006e-05
9.41437e-06
-2.88846e-07
5.10667e-05
7.01908e-06
-5.73487e-07
4.77435e-05
5.10419e-06
-9.6044e-07
4.46846e-05
3.8486e-06
-1.45147e-06
4.16261e-05
3.16644e-06
-2.04975e-06
3.82797e-05
2.93486e-06
-2.76936e-06
3.43868e-05
3.00207e-06
-3.61064e-06
2.97098e-05
3.26831e-06
-4.5922e-06
2.41056e-05
3.56605e-06
-5.64881e-06
1.74603e-05
3.86264e-06
-6.75564e-06
1.01934e-05
3.60503e-06
-7.46872e-06
3.26233e-06
2.69609e-06
-7.19899e-06
-4.18159e-07
-3.85382e-06
6.60712e-05
7.21208e-06
5.14574e-09
6.78488e-05
1.11096e-05
-1.03285e-08
6.80286e-05
1.17528e-05
-1.05871e-07
6.6889e-05
1.04873e-05
-2.99921e-07
6.49749e-05
8.72402e-06
-6.08799e-07
6.25843e-05
7.0808e-06
-1.03508e-06
5.98211e-05
5.9288e-06
-1.58401e-06
5.66217e-05
5.34581e-06
-2.26216e-06
5.28118e-05
5.30853e-06
-3.08588e-06
4.81571e-05
5.71501e-06
-4.06058e-06
4.23727e-05
6.49434e-06
-5.20572e-06
3.52054e-05
7.45989e-06
-6.46163e-06
2.64049e-05
8.56739e-06
-7.78514e-06
1.62495e-05
8.99098e-06
-8.68716e-06
5.89303e-06
8.14075e-06
-8.39162e-06
2.73836e-06
-4.41093e-06
6.50525e-05
4.68776e-06
1.23852e-08
6.76871e-05
8.5243e-06
2.55912e-09
6.94889e-05
9.97564e-06
-9.0048e-08
7.01002e-05
9.82175e-06
-2.82063e-07
6.96712e-05
8.95798e-06
-5.88492e-07
6.83734e-05
7.98042e-06
-1.01243e-06
6.63293e-05
7.30671e-06
-1.5605e-06
6.3548e-05
7.1231e-06
-2.24126e-06
5.99253e-05
7.50854e-06
-3.07197e-06
5.52591e-05
8.44756e-06
-4.06081e-06
4.9248e-05
9.94712e-06
-5.22663e-06
4.15621e-05
1.18584e-05
-6.51638e-06
3.18179e-05
1.41843e-05
-7.87956e-06
2.01379e-05
1.58437e-05
-8.83029e-06
7.59826e-06
1.57004e-05
-8.53294e-06
7.57934e-06
-4.43524e-06
6.41278e-05
3.09246e-06
2.17996e-08
6.64801e-05
6.23035e-06
2.15591e-08
6.86043e-05
7.88955e-06
-6.26221e-08
6.99583e-05
8.43134e-06
-2.45879e-07
7.04049e-05
8.33956e-06
-5.40954e-07
6.99472e-05
8.07034e-06
-9.49653e-07
6.86325e-05
7.99505e-06
-1.47781e-06
6.64601e-05
8.34341e-06
-2.13392e-06
6.33453e-05
9.26787e-06
-2.9341e-06
5.91016e-05
1.08431e-05
-3.88742e-06
5.34216e-05
1.31773e-05
-5.0103e-06
4.59068e-05
1.62184e-05
-6.25652e-06
3.60258e-05
2.00994e-05
-7.57143e-06
2.36237e-05
2.35959e-05
-8.49817e-06
9.35652e-06
2.51715e-05
-8.19629e-06
1.43009e-05
-4.21355e-06
6.35736e-05
2.05578e-06
3.191e-08
6.54851e-05
4.38717e-06
4.38072e-08
6.75054e-05
5.92317e-06
-2.80712e-08
6.91174e-05
6.80469e-06
-1.98133e-07
7.00502e-05
7.26422e-06
-4.77077e-07
7.01879e-05
7.60382e-06
-8.64847e-07
6.94969e-05
8.11181e-06
-1.36536e-06
6.79407e-05
9.01682e-06
-1.9857e-06
6.54308e-05
1.05145e-05
-2.73947e-06
6.1783e-05
1.2764e-05
-3.63541e-06
5.66859e-05
1.5983e-05
-4.68617e-06
4.96732e-05
2.02772e-05
-5.85281e-06
4.00767e-05
2.59819e-05
-7.0775e-06
2.73819e-05
3.19269e-05
-7.94933e-06
1.16077e-05
3.64455e-05
-7.652e-06
2.3443e-05
-3.91176e-06
6.33139e-05
1.28354e-06
4.28457e-08
6.49337e-05
2.84681e-06
6.87189e-08
6.68243e-05
4.10449e-06
1.20344e-08
6.85445e-05
5.09559e-06
-1.41256e-07
6.9786e-05
5.91509e-06
-4.0022e-07
7.03767e-05
6.73107e-06
-7.6278e-07
7.02375e-05
7.73946e-06
-1.23024e-06
6.93164e-05
9.13925e-06
-1.80718e-06
6.75419e-05
1.11389e-05
-2.50342e-06
6.47661e-05
1.39642e-05
-3.32607e-06
6.07378e-05
1.79232e-05
-4.28235e-06
5.49919e-05
2.33345e-05
-5.3406e-06
4.6825e-05
3.07793e-05
-6.43971e-06
3.50447e-05
3.97469e-05
-7.23257e-06
1.84012e-05
4.90144e-05
-6.95814e-06
3.95946e-05
-3.59884e-06
6.32227e-05
5.40149e-08
6.07433e-07
6.47347e-05
9.47531e-08
1.42596e-06
6.6602e-05
5.48385e-08
2.32835e-06
6.84345e-05
-7.94196e-08
3.30215e-06
6.99221e-05
-3.15792e-07
4.35832e-06
7.08766e-05
-6.50412e-07
5.54629e-06
7.1206e-05
-1.08171e-06
6.96753e-06
7.08625e-05
-1.61121e-06
8.77656e-06
6.98008e-05
-2.24437e-06
1.11749e-05
6.79153e-05
-2.98577e-06
1.4441e-05
6.50238e-05
-3.83659e-06
1.89508e-05
6.0687e-05
-4.77162e-06
2.52777e-05
5.42653e-05
-5.72805e-06
3.42157e-05
4.40075e-05
-6.43157e-06
4.64956e-05
2.79637e-05
-6.21073e-06
6.14442e-05
-3.37212e-06
6.54716e-05
4.98228e-05
1.26792e-05
-3.09587e-09
3.90599e-05
1.07625e-05
-1.16221e-08