/*--------------------------------*- C++ -*----------------------------------*\
| =========                 |                                                 |
| \\      /  F ield         | OpenFOAM: The Open Source CFD Toolbox           |
|  \\    /   O peration     | Version:  v1912                                 |
|   \\  /    A nd           | Website:  www.openfoam.com                      |
|    \\/     M anipulation  |                                                 |
\*---------------------------------------------------------------------------*/
FoamFile
{
    version     2.0;
    format      ascii;
    class       pointVectorField;
    location    "0.98/fluid";
    object      pointMotionU;
}
// * * * * * * * * * * * * * * * * * * * * * * * * * * * * * * * * * * * * * //

dimensions      [0 1 -1 0 0 0 0];


internalField   nonuniform List<vector> 
16859
(
(0 0 0)
(0 0 0)
(0 0 0)
(0 0 0)
(0 0 0)
(0 0 0)
(0 0 0)
(0 0 0)
(0 0 0)
(0 0 0)
(0 0 0)
(0 0 0)
(0 0 0)
(0 0 0)
(0 0 0)
(0 0 0)
(1.31676e-08 2.31256e-08 1.54684e-08)
(0 0 0)
(3.76841e-10 -9.83433e-10 7.75288e-10)
(7.21849e-10 -1.8809e-09 1.5116e-09)
(1.05081e-09 -2.72708e-09 2.26242e-09)
(1.37852e-09 -3.54691e-09 3.07515e-09)
(1.71985e-09 -4.35462e-09 3.99424e-09)
(2.09141e-09 -5.1518e-09 5.06323e-09)
(2.51384e-09 -5.92332e-09 6.32618e-09)
(3.01527e-09 -6.63005e-09 7.82851e-09)
(3.63759e-09 -7.19592e-09 9.6177e-09)
(4.44821e-09 -7.48479e-09 1.17452e-08)
(5.56427e-09 -7.25832e-09 1.42744e-08)
(7.20174e-09 -6.09446e-09 1.73085e-08)
(9.76557e-09 -3.2303e-09 2.10676e-08)
(1.39377e-08 2.66337e-09 2.60349e-08)
(1.98598e-08 1.23557e-08 3.23886e-08)
(2.7824e-08 3.10282e-08 3.91174e-08)
(0 0 0)
(7.4277e-10 -1.93776e-09 1.53001e-09)
(1.42228e-09 -3.70734e-09 2.98248e-09)
(2.06899e-09 -5.37822e-09 4.46233e-09)
(2.7112e-09 -7.00101e-09 6.06244e-09)
(3.3774e-09 -8.60643e-09 7.8698e-09)
(4.0989e-09 -1.02019e-08 9.96951e-09)
(4.91357e-09 -1.17651e-08 1.24473e-08)
(5.87124e-09 -1.32318e-08 1.53908e-08)
(7.04212e-09 -1.44761e-08 1.8889e-08)
(8.53109e-09 -1.52774e-08 2.30307e-08)
(1.05017e-08 -1.52718e-08 2.79036e-08)
(1.32142e-08 -1.3887e-08 3.36016e-08)
(1.70534e-08 -1.03054e-08 4.02343e-08)
(2.24055e-08 -3.65653e-09 4.78812e-08)
(2.85179e-08 5.24807e-09 5.56628e-08)
(3.79468e-08 1.83452e-08 6.70675e-08)
(0 0 0)
(1.0877e-09 -2.83446e-09 2.24531e-09)
(2.0815e-09 -5.42579e-09 4.3754e-09)
(3.0246e-09 -7.87837e-09 6.54284e-09)
(3.95685e-09 -1.027e-08 8.88249e-09)
(4.91806e-09 -1.26515e-08 1.15205e-08)
(5.95111e-09 -1.50434e-08 1.45802e-08)
(7.10616e-09 -1.74289e-08 1.81855e-08)
(8.44607e-09 -1.97413e-08 2.24625e-08)
(1.00533e-08 -2.18433e-08 2.75373e-08)
(1.20387e-08 -2.34956e-08 3.35284e-08)
(1.45519e-08 -2.4318e-08 4.05336e-08)
(1.7788e-08 -2.37593e-08 4.86073e-08)
(2.19587e-08 -2.11445e-08 5.77178e-08)
(2.71255e-08 -1.59876e-08 6.76412e-08)
(3.23557e-08 -9.35367e-09 7.70523e-08)
(3.96191e-08 -1.61557e-10 8.92122e-08)
(0 0 0)
(1.40271e-09 -3.64442e-09 2.90397e-09)
(2.68206e-09 -6.98095e-09 5.65627e-09)
(3.89144e-09 -1.01485e-08 8.45173e-09)
(5.07979e-09 -1.32531e-08 1.14622e-08)
(6.29534e-09 -1.63693e-08 1.48481e-08)
(7.58898e-09 -1.95385e-08 1.87658e-08)
(9.01823e-09 -2.2763e-08 2.33729e-08)
(1.06517e-08 -2.59964e-08 2.88293e-08)
(1.25728e-08 -2.91267e-08 3.52952e-08)
(1.48819e-08 -3.19518e-08 4.29193e-08)
(1.76917e-08 -3.4148e-08 5.18165e-08)
(2.11081e-08 -3.52455e-08 6.20227e-08)
(2.51673e-08 -3.46503e-08 7.34056e-08)
(2.96743e-08 -3.18329e-08 8.54828e-08)
(3.3665e-08 -2.72843e-08 9.64e-08)
(3.87599e-08 -1.93444e-08 1.08918e-07)
(0 0 0)
(1.68077e-09 -4.33894e-09 3.49167e-09)
(3.21029e-09 -8.31781e-09 6.79679e-09)
(4.64928e-09 -1.21083e-08 1.01457e-08)
(6.05294e-09 -1.58447e-08 1.37408e-08)
(7.47493e-09 -1.96277e-08 1.77705e-08)
(8.97067e-09 -2.35247e-08 2.24179e-08)
(1.0601e-08 -2.75675e-08 2.78673e-08)
(1.24355e-08 -3.17476e-08 3.43068e-08)
(1.45549e-08 -3.6006e-08 4.19269e-08)
(1.70486e-08 -4.0218e-08 5.09101e-08)
(2.00048e-08 -4.41701e-08 6.14077e-08)
(2.34842e-08 -4.75249e-08 7.3491e-08)
(2.74502e-08 -4.97685e-08 8.70364e-08)
(3.16181e-08 -5.01653e-08 1.01465e-07)
(3.50331e-08 -4.8214e-08 1.14441e-07)
(3.91183e-08 -4.06974e-08 1.28417e-07)
(0 0 0)
(1.91703e-09 -4.89068e-09 3.99768e-09)
(3.65692e-09 -9.38343e-09 7.77581e-09)
(5.28474e-09 -1.36794e-08 1.15924e-08)
(6.85903e-09 -1.79391e-08 1.56731e-08)
(8.43584e-09 -2.22888e-08 2.02268e-08)
(1.00719e-08 -2.68237e-08 2.54551e-08)
(1.1828e-08 -3.16098e-08 3.15605e-08)
(1.37722e-08 -3.6684e-08 3.87501e-08)
(1.59815e-08 -4.20531e-08 4.7237e-08)
(1.85408e-08 -4.76909e-08 5.72341e-08)
(2.15382e-08 -5.35321e-08 6.89421e-08)
(2.50509e-08 -5.94507e-08 8.25168e-08)
(2.91004e-08 -6.51886e-08 9.79718e-08)
(3.35261e-08 -7.01607e-08 1.14888e-07)
(3.74304e-08 -7.30765e-08 1.30657e-07)
(4.26193e-08 -6.95528e-08 1.48274e-07)
(0 0 0)
(2.10891e-09 -5.27487e-09 4.41529e-09)
(4.01732e-09 -1.01297e-08 8.58033e-09)
(5.79163e-09 -1.47895e-08 1.27724e-08)
(7.49086e-09 -1.94367e-08 1.72324e-08)
(9.17056e-09 -2.42198e-08 2.21809e-08)
(1.08857e-08 -2.92592e-08 2.78292e-08)
(1.2694e-08 -3.46519e-08 3.43871e-08)
(1.46588e-08 -4.04765e-08 4.20679e-08)
(1.68515e-08 -4.67992e-08 5.10918e-08)
(1.93536e-08 -5.36822e-08 6.16849e-08)
(2.22594e-08 -6.11982e-08 7.40796e-08)
(2.56818e-08 -6.94463e-08 8.85084e-08)
(2.97505e-08 -7.85507e-08 1.05165e-07)
(3.45451e-08 -8.85331e-08 1.23985e-07)
(3.93827e-08 -9.81106e-08 1.4251e-07)
(4.70982e-08 -1.08509e-07 1.64962e-07)
(0 0 0)
(2.25617e-09 -5.47091e-09 4.74213e-09)
(4.29163e-09 -1.05166e-08 9.20644e-09)
(6.17119e-09 -1.53782e-08 1.36807e-08)
(7.95163e-09 -2.02536e-08 1.84126e-08)
(9.68531e-09 -2.53074e-08 2.36262e-08)
(1.14228e-08 -3.06783e-08 2.95325e-08)
(1.32153e-08 -3.6486e-08 3.63366e-08)
(1.51178e-08 -4.28373e-08 4.42431e-08)
(1.71909e-08 -4.98341e-08 5.34577e-08)
(1.95032e-08 -5.75847e-08 6.41875e-08)
(2.21348e-08 -6.62205e-08 7.66412e-08)
(2.51839e-08 -7.59202e-08 9.10296e-08)
(2.87636e-08 -8.69238e-08 1.07545e-07)
(3.29175e-08 -9.94549e-08 1.2622e-07)
(3.68761e-08 -1.12e-07 1.44536e-07)
(4.77852e-08 -1.32141e-07 1.72153e-07)
(0 0 0)
(0 0 0)
(0 0 0)
(0 0 0)
(0 0 0)
(0 0 0)
(0 0 0)
(0 0 0)
(0 0 0)
(0 0 0)
(0 0 0)
(0 0 0)
(0 0 0)
(0 0 0)
(0 0 0)
(0 0 0)
(9.36054e-09 1.18694e-08 7.31694e-09)
(0 0 0)
(3.85692e-10 -1.00884e-09 7.50497e-10)
(7.38652e-10 -1.92981e-09 1.46216e-09)
(1.07497e-09 -2.79913e-09 2.18594e-09)
(1.40966e-09 -3.64308e-09 2.96677e-09)
(1.7576e-09 -4.47714e-09 3.84631e-09)
(2.13507e-09 -5.30399e-09 4.86457e-09)
(2.56183e-09 -6.10981e-09 6.06086e-09)
(3.06453e-09 -6.85751e-09 7.4738e-09)
(3.68259e-09 -7.4749e-09 9.14035e-09)
(4.47996e-09 -7.83417e-09 1.10941e-08)
(5.56974e-09 -7.71537e-09 1.33652e-08)
(7.16623e-09 -6.73856e-09 1.5988e-08)
(9.67915e-09 -4.24075e-09 1.90266e-08)
(1.37798e-08 8.3997e-10 2.25836e-08)
(1.96305e-08 8.99752e-09 2.63759e-08)
(2.59997e-08 1.87138e-08 2.75178e-08)
(0 0 0)
(7.60245e-10 -1.98775e-09 1.48109e-09)
(1.45549e-09 -3.80362e-09 2.88497e-09)
(2.11685e-09 -5.52013e-09 4.31164e-09)
(2.77309e-09 -7.19059e-09 5.84913e-09)
(3.4527e-09 -8.84805e-09 7.579e-09)
(4.18638e-09 -1.05021e-08 9.57956e-09)
(5.01043e-09 -1.21329e-08 1.19275e-08)
(5.97178e-09 -1.36797e-08 1.46978e-08)
(7.13575e-09 -1.50235e-08 1.79603e-08)
(8.59953e-09 -1.5958e-08 2.17728e-08)
(1.05167e-08 -1.61498e-08 2.61695e-08)
(1.31383e-08 -1.50961e-08 3.11448e-08)
(1.68509e-08 -1.2131e-08 3.6622e-08)
(2.20661e-08 -6.71139e-09 4.2347e-08)
(2.82705e-08 2.27487e-10 4.74519e-08)
(3.51765e-08 4.80528e-09 5.13678e-08)
(0 0 0)
(1.11345e-09 -2.90751e-09 2.17361e-09)
(2.13052e-09 -5.56656e-09 4.23259e-09)
(3.09545e-09 -8.08606e-09 6.32239e-09)
(4.04879e-09 -1.05477e-08 8.57089e-09)
(5.03046e-09 -1.30056e-08 1.10964e-08)
(6.08262e-09 -1.54836e-08 1.40127e-08)
(7.25346e-09 -1.79681e-08 1.74311e-08)
(8.60197e-09 -2.0397e-08 2.14606e-08)
(1.02036e-08 -2.26409e-08 2.6202e-08)
(1.21578e-08 -2.44766e-08 3.17354e-08)
(1.4597e-08 -2.55582e-08 3.80962e-08)
(1.7695e-08 -2.5409e-08 4.52348e-08)
(2.16481e-08 -2.35134e-08 5.2945e-08)
(2.65389e-08 -1.9706e-08 6.07289e-08)
(3.17083e-08 -1.51721e-08 6.7414e-08)
(3.67674e-08 -1.30802e-08 7.19488e-08)
(0 0 0)
(1.43626e-09 -3.73832e-09 2.81145e-09)
(2.74604e-09 -7.16202e-09 5.47216e-09)
(3.98418e-09 -1.04158e-08 8.16792e-09)
(5.20059e-09 -1.36109e-08 1.10617e-08)
(6.44384e-09 -1.68262e-08 1.43042e-08)
(7.76427e-09 -2.01067e-08 1.804e-08)
(9.21747e-09 -2.3459e-08 2.24113e-08)
(1.08679e-08 -2.68414e-08 2.75579e-08)
(1.27914e-08 -3.01497e-08 3.36109e-08)
(1.50747e-08 -3.31954e-08 4.0677e-08)
(1.78089e-08 -3.56828e-08 4.88069e-08)
(2.10688e-08 -3.71987e-08 5.7936e-08)
(2.48562e-08 -3.72655e-08 6.77744e-08)
(2.89757e-08 -3.55815e-08 7.75948e-08)
(3.27256e-08 -3.27339e-08 8.575e-08)
(3.60926e-08 -3.11036e-08 9.07172e-08)
(0 0 0)
(1.72151e-09 -4.45078e-09 3.38079e-09)
(3.2881e-09 -8.5336e-09 6.57636e-09)
(4.76233e-09 -1.24272e-08 9.8064e-09)
(6.20073e-09 -1.6272e-08 1.32631e-08)
(7.65764e-09 -2.01739e-08 1.71234e-08)
(9.18836e-09 -2.42046e-08 2.15571e-08)
(1.08523e-08 -2.84008e-08 2.67313e-08)
(1.27159e-08 -3.27585e-08 3.2812e-08)
(1.48529e-08 -3.72253e-08 3.99587e-08)
(1.73408e-08 -4.16864e-08 4.83103e-08)
(2.02485e-08 -4.5945e-08 5.79539e-08)
(2.36067e-08 -4.9693e-08 6.88635e-08)
(2.73437e-08 -5.24642e-08 8.07654e-08)
(3.11668e-08 -5.36036e-08 9.28382e-08)
(3.43531e-08 -5.26414e-08 1.02989e-07)
(3.67709e-08 -5.05753e-08 1.09162e-07)
(0 0 0)
(1.96419e-09 -5.01684e-09 3.87125e-09)
(3.74707e-09 -9.62703e-09 7.52473e-09)
(5.41596e-09 -1.40398e-08 1.12066e-08)
(7.03109e-09 -1.84225e-08 1.51313e-08)
(8.64967e-09 -2.29075e-08 1.94951e-08)
(1.03289e-08 -2.75951e-08 2.44853e-08)
(1.21291e-08 -3.2556e-08 3.02864e-08)
(1.41165e-08 -3.78319e-08 3.70823e-08)
(1.6364e-08 -4.3435e-08 4.50544e-08)
(1.89494e-08 -4.93464e-08 5.43718e-08)
(2.19502e-08 -5.55103e-08 6.5171e-08)
(2.54302e-08 -6.18128e-08 7.75105e-08)
(2.94064e-08 -6.80027e-08 9.1252e-08)
(3.3752e-08 -7.34639e-08 1.05712e-07)
(3.78126e-08 -7.68885e-08 1.1855e-07)
(4.11609e-08 -7.62956e-08 1.27428e-07)
(0 0 0)
(2.16155e-09 -5.41113e-09 4.2763e-09)
(4.11801e-09 -1.0393e-08 8.30466e-09)
(5.93837e-09 -1.51794e-08 1.23497e-08)
(7.6837e-09 -1.99605e-08 1.66404e-08)
(9.41115e-09 -2.48912e-08 2.13843e-08)
(1.11769e-08 -3.00974e-08 2.67779e-08)
(1.30391e-08 -3.56813e-08 3.30129e-08)
(1.50609e-08 -4.17262e-08 4.02795e-08)
(1.7313e-08 -4.83029e-08 4.87668e-08)
(1.98753e-08 -5.54799e-08 5.86582e-08)
(2.28424e-08 -6.33376e-08 7.01234e-08)
(2.63346e-08 -7.19883e-08 8.32991e-08)
(3.05167e-08 -8.1574e-08 9.82233e-08)
(3.55689e-08 -9.21082e-08 1.14544e-07)
(4.111e-08 -1.02457e-07 1.30091e-07)
(4.71636e-08 -1.11679e-07 1.42426e-07)
(0 0 0)
(2.31323e-09 -5.6125e-09 4.59362e-09)
(4.40082e-09 -1.07904e-08 8.9123e-09)
(6.33041e-09 -1.57843e-08 1.32308e-08)
(8.16111e-09 -2.07999e-08 1.77844e-08)
(9.94726e-09 -2.60087e-08 2.27843e-08)
(1.17411e-08 -3.15554e-08 2.84269e-08)
(1.35953e-08 -3.75646e-08 3.49e-08)
(1.5566e-08 -4.41476e-08 4.23859e-08)
(1.77152e-08 -5.14104e-08 5.10617e-08)
(2.0114e-08 -5.94655e-08 6.1095e-08)
(2.28484e-08 -6.845e-08 7.26383e-08)
(2.60317e-08 -7.85522e-08 8.58159e-08)
(2.98135e-08 -9.00252e-08 1.00676e-07)
(3.43185e-08 -1.03077e-07 1.16978e-07)
(3.89415e-08 -1.16315e-07 1.32453e-07)
(4.64945e-08 -1.34053e-07 1.49602e-07)
(0 0 0)
(0 0 0)
(0 0 0)
(0 0 0)
(0 0 0)
(0 0 0)
(0 0 0)
(0 0 0)
(0 0 0)
(0 0 0)
(0 0 0)
(0 0 0)
(0 0 0)
(0 0 0)
(0 0 0)
(0 0 0)
(6.24635e-09 6.1326e-09 2.97834e-09)
(0 0 0)
(3.92631e-10 -1.03161e-09 6.98437e-10)
(7.51636e-10 -1.97382e-09 1.35985e-09)
(1.09302e-09 -2.86414e-09 2.0308e-09)
(1.43144e-09 -3.73007e-09 2.75203e-09)
(1.78112e-09 -4.5884e-09 3.56067e-09)
(2.15697e-09 -5.44345e-09 4.49135e-09)
(2.57615e-09 -6.28395e-09 5.57635e-09)
(3.06055e-09 -7.07763e-09 6.84429e-09)
(3.64087e-09 -7.76236e-09 8.31659e-09)
(4.36451e-09 -8.23236e-09 1.00002e-08)
(5.31176e-09 -8.31783e-09 1.18745e-08)
(6.62724e-09 -7.75645e-09 1.3869e-08)
(8.56518e-09 -6.1645e-09 1.58193e-08)
(1.14702e-08 -3.09385e-09 1.73712e-08)
(1.51889e-08 1.26614e-09 1.78689e-08)
(1.79902e-08 5.95373e-09 1.43975e-08)
(0 0 0)
(7.74007e-10 -2.03251e-09 1.37839e-09)
(1.48126e-09 -3.89009e-09 2.68317e-09)
(2.15277e-09 -5.64785e-09 4.00579e-09)
(2.81675e-09 -7.36146e-09 5.4261e-09)
(3.50045e-09 -9.0664e-09 7.01683e-09)
(4.23202e-09 -1.07752e-08 8.84585e-09)
(5.04302e-09 -1.24723e-08 1.09765e-08)
(5.97177e-09 -1.41054e-08 1.34647e-08)
(7.0679e-09 -1.55714e-08 1.6352e-08)
(8.39974e-09 -1.66988e-08 1.96492e-08)
(1.00668e-08 -1.72297e-08 2.33083e-08)
(1.2215e-08 -1.68223e-08 2.71691e-08)
(1.50293e-08 -1.51386e-08 3.08629e-08)
(1.85835e-08 -1.21821e-08 3.36618e-08)
(2.22292e-08 -9.08367e-09 3.45506e-08)
(2.48672e-08 -8.82844e-09 3.19422e-08)
(0 0 0)
(1.13387e-09 -2.9728e-09 2.02301e-09)
(2.16884e-09 -5.69267e-09 3.9368e-09)
(3.14912e-09 -8.27228e-09 5.87444e-09)
(4.11467e-09 -1.07967e-08 7.95198e-09)
(5.10375e-09 -1.33234e-08 1.0275e-08)
(6.15525e-09 -1.58797e-08 1.29424e-08)
(7.31125e-09 -1.84574e-08 1.60466e-08)
(8.61963e-09 -2.10034e-08 1.96703e-08)
(1.01359e-08 -2.34056e-08 2.38761e-08)
(1.19237e-08 -2.54771e-08 2.86839e-08)
(1.4051e-08 -2.69473e-08 3.40301e-08)
(1.65736e-08 -2.74931e-08 3.96948e-08)
(1.94804e-08 -2.68885e-08 4.51805e-08)
(2.25445e-08 -2.53957e-08 4.95644e-08)
(2.50528e-08 -2.42364e-08 5.16438e-08)
(2.58422e-08 -2.55619e-08 4.97342e-08)
(0 0 0)
(1.46311e-09 -3.82203e-09 2.6169e-09)
(2.79657e-09 -7.32369e-09 5.0903e-09)
(4.05537e-09 -1.06545e-08 7.59023e-09)
(5.28889e-09 -1.39299e-08 1.02647e-08)
(6.544e-09 -1.72325e-08 1.32483e-08)
(7.86752e-09 -2.06114e-08 1.6667e-08)
(9.30846e-09 -2.40779e-08 2.06398e-08)
(1.09194e-08 -2.75982e-08 2.52744e-08)
(1.27547e-08 -3.10821e-08 3.06564e-08)
(1.48637e-08 -3.43691e-08 3.68228e-08)
(1.72709e-08 -3.72209e-08 4.3715e-08)
(1.99326e-08 -3.93403e-08 5.10921e-08)
(2.26486e-08 -4.04684e-08 5.83842e-08)
(2.49373e-08 -4.06428e-08 6.45e-08)
(2.60795e-08 -4.05382e-08 6.79014e-08)
(2.51278e-08 -4.18047e-08 6.66125e-08)
(0 0 0)
(1.75445e-09 -4.55018e-09 3.14726e-09)
(3.35026e-09 -8.72557e-09 6.11834e-09)
(4.85044e-09 -1.27106e-08 9.11437e-09)
(6.31119e-09 -1.66505e-08 1.23099e-08)
(7.78539e-09 -2.06552e-08 1.58634e-08)
(9.32507e-09 -2.48004e-08 1.99232e-08)
(1.09835e-08 -2.91264e-08 2.46298e-08)
(1.28157e-08 -3.36343e-08 3.01129e-08)
(1.48757e-08 -3.82794e-08 3.64807e-08)
(1.7206e-08 -4.29615e-08 4.37945e-08)
(1.9814e-08 -4.75135e-08 5.20209e-08)
(2.26201e-08 -5.16869e-08 6.09405e-08)
(2.53614e-08 -5.51371e-08 6.99793e-08)
(2.74643e-08 -5.74373e-08 7.79424e-08)
(2.81578e-08 -5.83038e-08 8.29206e-08)
(2.61939e-08 -5.84489e-08 8.25096e-08)
(0 0 0)
(2.00272e-09 -5.12864e-09 3.60441e-09)
(3.82001e-09 -9.84297e-09 7.00187e-09)
(5.51992e-09 -1.43585e-08 1.04179e-08)
(7.16273e-09 -1.88481e-08 1.40473e-08)
(8.80459e-09 -2.34481e-08 1.8066e-08)
(1.05001e-08 -2.82623e-08 2.26382e-08)
(1.23044e-08 -3.33639e-08 2.79196e-08)
(1.42742e-08 -3.87963e-08 3.40553e-08)
(1.64661e-08 -4.45728e-08 4.11713e-08)
(1.89289e-08 -5.06748e-08 4.93527e-08)
(2.16891e-08 -5.70468e-08 5.86013e-08)
(2.47172e-08 -6.35745e-08 6.87512e-08)
(2.78626e-08 -7.00101e-08 7.9294e-08)
(3.07347e-08 -7.57721e-08 8.90439e-08)
(3.25962e-08 -7.96709e-08 9.57872e-08)
(3.18567e-08 -7.96853e-08 9.67781e-08)
(0 0 0)
(2.20505e-09 -5.53154e-09 3.98224e-09)
(4.20055e-09 -1.06256e-08 7.72911e-09)
(6.05659e-09 -1.55229e-08 1.14831e-08)
(7.83465e-09 -2.04191e-08 1.54523e-08)
(9.59137e-09 -2.54734e-08 1.98233e-08)
(1.13811e-08 -3.08147e-08 2.47684e-08)
(1.32582e-08 -3.65462e-08 3.04499e-08)
(1.5279e-08 -4.27504e-08 3.70188e-08)
(1.75014e-08 -4.94937e-08 4.46076e-08)
(1.99842e-08 -5.68338e-08 5.33132e-08)
(2.27835e-08 -6.48295e-08 6.31619e-08)
(2.59476e-08 -7.35472e-08 7.40389e-08)
(2.95041e-08 -8.30342e-08 8.55285e-08)
(3.33932e-08 -9.31312e-08 9.65519e-08)
(3.7099e-08 -1.02592e-07 1.04748e-07)
(4.03234e-08 -1.10174e-07 1.06924e-07)
(0 0 0)
(2.36093e-09 -5.7373e-09 4.27857e-09)
(4.49151e-09 -1.10316e-08 8.29638e-09)
(6.46078e-09 -1.61407e-08 1.23052e-08)
(8.32866e-09 -2.12761e-08 1.65194e-08)
(1.01495e-08 -2.66132e-08 2.11287e-08)
(1.19745e-08 -3.22996e-08 2.63058e-08)
(1.3854e-08 -3.84601e-08 3.22102e-08)
(1.58395e-08 -4.52032e-08 3.89866e-08)
(1.79843e-08 -5.2627e-08 4.67589e-08)
(2.03449e-08 -6.08277e-08 5.56135e-08)
(2.29807e-08 -6.99101e-08 6.55693e-08)
(2.59536e-08 -7.99994e-08 7.65161e-08)
(2.9312e-08 -9.12253e-08 8.80782e-08)
(3.29978e-08 -1.03577e-07 9.9326e-08)
(3.63208e-08 -1.15558e-07 1.07931e-07)
(4.11136e-08 -1.30923e-07 1.10641e-07)
(0 0 0)
(0 0 0)
(0 0 0)
(0 0 0)
(0 0 0)
(0 0 0)
(0 0 0)
(0 0 0)
(0 0 0)
(0 0 0)
(0 0 0)
(0 0 0)
(0 0 0)
(0 0 0)
(0 0 0)
(0 0 0)
(3.87879e-09 3.16153e-09 1.66585e-09)
(0 0 0)
(3.97708e-10 -1.05134e-09 6.21722e-10)
(7.60884e-10 -2.01197e-09 1.20975e-09)
(1.10518e-09 -2.92056e-09 1.80479e-09)
(1.44461e-09 -3.8057e-09 2.44205e-09)
(1.79224e-09 -4.68541e-09 3.15296e-09)
(2.16092e-09 -5.56577e-09 3.96574e-09)
(2.56419e-09 -6.43845e-09 4.9048e-09)
(3.01758e-09 -7.27681e-09 5.98838e-09)
(3.54037e-09 -8.03003e-09 7.22315e-09)
(4.15899e-09 -8.6157e-09 8.59382e-09)
(4.91429e-09 -8.91214e-09 1.00447e-08)
(5.87437e-09 -8.75421e-09 1.14487e-08)
(7.14762e-09 -7.94022e-09 1.25582e-08)
(8.84675e-09 -6.28316e-09 1.29553e-08)
(1.07674e-08 -3.9265e-09 1.22172e-08)
(1.16989e-08 -5.62972e-10 9.29735e-09)
(0 0 0)
(7.84163e-10 -2.07127e-09 1.22704e-09)
(1.49981e-09 -3.96501e-09 2.38713e-09)
(2.17733e-09 -5.75855e-09 3.5602e-09)
(2.84376e-09 -7.50963e-09 4.8153e-09)
(3.52419e-09 -9.25599e-09 6.21405e-09)
(4.24302e-09 -1.10132e-08 7.81184e-09)
(5.02524e-09 -1.27706e-08 9.65681e-09)
(5.89766e-09 -1.4485e-08 1.17852e-08)
(6.8898e-09 -1.60714e-08 1.4211e-08)
(8.03446e-09 -1.73945e-08 1.69059e-08)
(9.36784e-09 -1.82665e-08 1.97642e-08)
(1.09248e-08 -1.84744e-08 2.25451e-08)
(1.27094e-08 -1.78777e-08 2.47919e-08)
(1.45895e-08 -1.66394e-08 2.57884e-08)
(1.60758e-08 -1.55122e-08 2.49785e-08)
(1.6677e-08 -1.59138e-08 2.25973e-08)
(0 0 0)
(1.14912e-09 -3.02925e-09 1.80103e-09)
(2.19683e-09 -5.80172e-09 3.50276e-09)
(3.18655e-09 -8.43325e-09 5.22154e-09)
(4.15671e-09 -1.10117e-08 7.05778e-09)
(5.14279e-09 -1.35975e-08 9.10108e-09)
(6.17877e-09 -1.62215e-08 1.14323e-08)
(7.29823e-09 -1.88809e-08 1.41223e-08)
(8.53441e-09 -2.15321e-08 1.72259e-08)
(9.91781e-09 -2.40818e-08 2.07679e-08)
(1.14693e-08 -2.63789e-08 2.4716e-08)
(1.31849e-08 -2.82203e-08 2.89362e-08)
(1.50028e-08 -2.93987e-08 3.31213e-08)
(1.6741e-08 -2.98461e-08 3.67053e-08)
(1.80193e-08 -2.99016e-08 3.88544e-08)
(1.83693e-08 -3.0373e-08 3.8957e-08)
(1.73954e-08 -3.22235e-08 3.73945e-08)
(0 0 0)
(1.48345e-09 -3.89424e-09 2.33003e-09)
(2.83408e-09 -7.46312e-09 4.52967e-09)
(4.10611e-09 -1.08601e-08 6.74763e-09)
(5.3473e-09 -1.42038e-08 9.11205e-09)
(6.60145e-09 -1.75801e-08 1.17373e-08)
(7.91e-09 -2.10415e-08 1.47268e-08)
(9.3127e-09 -2.46035e-08 1.81724e-08)
(1.08463e-08 -2.82397e-08 2.21473e-08)
(1.25391e-08 -3.18731e-08 2.66903e-08)
(1.43966e-08 -3.53687e-08 3.1776e-08)
(1.63722e-08 -3.85353e-08 3.72636e-08)
(1.83112e-08 -4.1155e-08 4.28197e-08)
(1.98609e-08 -4.30752e-08 4.78228e-08)
(2.04184e-08 -4.43832e-08 5.13438e-08)
(1.95215e-08 -4.54657e-08 5.25823e-08)
(1.69788e-08 -4.71098e-08 5.18389e-08)
(0 0 0)
(1.77977e-09 -4.6357e-09 2.80266e-09)
(3.39722e-09 -8.89061e-09 5.44534e-09)
(4.91473e-09 -1.29536e-08 8.10405e-09)
(6.38702e-09 -1.69736e-08 1.09301e-08)
(7.86399e-09 -2.10634e-08 1.40581e-08)
(9.39243e-09 -2.53014e-08 1.76104e-08)
(1.10166e-08 -2.97301e-08 2.16961e-08)
(1.27766e-08 -3.43536e-08 2.64049e-08)
(1.47016e-08 -3.91318e-08 3.17908e-08)
(1.67938e-08 -4.39732e-08 3.78419e-08)
(1.89961e-08 -4.87267e-08 4.44276e-08)
(2.11289e-08 -5.31712e-08 5.12153e-08)
(2.27913e-08 -5.69991e-08 5.75608e-08)
(2.32949e-08 -5.98008e-08 6.24475e-08)
(2.20873e-08 -6.117e-08 6.48339e-08)
(1.86007e-08 -6.12591e-08 6.48733e-08)
(0 0 0)
(2.03278e-09 -5.22457e-09 3.21029e-09)
(3.87609e-09 -1.0028e-08 6.23284e-09)
(5.59759e-09 -1.46307e-08 9.26502e-09)
(7.25637e-09 -1.92092e-08 1.24758e-08)
(8.90599e-09 -2.39026e-08 1.60151e-08)
(1.05964e-08 -2.88161e-08 2.00185e-08)
(1.23749e-08 -3.40229e-08 2.46076e-08)
(1.42851e-08 -3.95643e-08 2.98836e-08)
(1.6362e-08 -4.54489e-08 3.59129e-08)
(1.86205e-08 -5.16485e-08 4.26972e-08)
(2.10321e-08 -5.80902e-08 5.01218e-08)
(2.34809e-08 -6.46278e-08 5.78688e-08)
(2.56933e-08 -7.09586e-08 6.52899e-08)
(2.71673e-08 -7.64255e-08 7.12901e-08)
(2.73429e-08 -7.98191e-08 7.45848e-08)
(2.51528e-08 -7.88824e-08 7.52716e-08)
(0 0 0)
(2.23948e-09 -5.63457e-09 3.54748e-09)
(4.26513e-09 -1.08243e-08 6.88161e-09)
(6.14693e-09 -1.5815e-08 1.02147e-08)
(7.94559e-09 -2.0806e-08 1.37276e-08)
(9.71571e-09 -2.5959e-08 1.75792e-08)
(1.15079e-08 -3.14032e-08 2.19125e-08)
(1.33702e-08 -3.72398e-08 2.68544e-08)
(1.53481e-08 -4.35448e-08 3.25109e-08)
(1.74827e-08 -5.03722e-08 3.89526e-08)
(1.98053e-08 -5.7756e-08 4.61874e-08)
(2.23279e-08 -6.57115e-08 5.41106e-08)
(2.50277e-08 -7.42261e-08 6.24173e-08)
(2.78254e-08 -8.32096e-08 7.04584e-08)
(3.0553e-08 -9.23092e-08 7.70582e-08)
(3.28304e-08 -1.00258e-07 8.06543e-08)
(3.49126e-08 -1.05497e-07 8.10885e-08)
(0 0 0)
(2.39923e-09 -5.84383e-09 3.81221e-09)
(4.56363e-09 -1.12371e-08 7.38827e-09)
(6.56252e-09 -1.64427e-08 1.09488e-08)
(8.45542e-09 -2.16759e-08 1.46801e-08)
(1.02953e-08 -2.71143e-08 1.87444e-08)
(1.21307e-08 -3.29048e-08 2.3285e-08)
(1.4007e-08 -3.9169e-08 2.84272e-08)
(1.59675e-08 -4.60066e-08 3.42724e-08)
(1.8053e-08 -5.34986e-08 4.08853e-08)
(2.02992e-08 -6.17105e-08 4.82676e-08)
(2.27327e-08 -7.06934e-08 5.63113e-08)
(2.53605e-08 -8.04789e-08 6.47166e-08)
(2.81485e-08 -9.10456e-08 7.28569e-08)
(3.09515e-08 -1.02185e-07 7.96116e-08)
(3.3209e-08 -1.12462e-07 8.33587e-08)
(3.65029e-08 -1.24804e-07 8.19781e-08)
(0 0 0)
(0 0 0)
(0 0 0)
(0 0 0)
(0 0 0)
(0 0 0)
(0 0 0)
(0 0 0)
(0 0 0)
(0 0 0)
(0 0 0)
(0 0 0)
(0 0 0)
(0 0 0)
(0 0 0)
(0 0 0)
(2.67914e-09 1.80721e-09 1.50141e-09)
(0 0 0)
(4.0115e-10 -1.06771e-09 5.23668e-10)
(7.66915e-10 -2.04362e-09 1.0184e-09)
(1.11246e-09 -2.96736e-09 1.51788e-09)
(1.45099e-09 -3.86844e-09 2.05092e-09)
(1.79422e-09 -4.76591e-09 2.64262e-09)
(2.15273e-09 -5.66735e-09 3.31459e-09)
(2.53641e-09 -6.567e-09 4.0839e-09)
(2.9546e-09 -7.4429e-09 4.96036e-09)
(3.41629e-09 -8.25306e-09 5.94089e-09)
(3.93084e-09 -8.93147e-09 6.99976e-09)
(4.51076e-09 -9.38578e-09 8.07331e-09)
(5.1787e-09 -9.4983e-09 9.03936e-09)
(5.9777e-09 -9.12864e-09 9.69922e-09)
(6.96237e-09 -8.11804e-09 9.80022e-09)
(8.03804e-09 -6.44283e-09 9.23586e-09)
(8.55869e-09 -3.32282e-09 7.67501e-09)
(0 0 0)
(7.91139e-10 -2.1034e-09 1.03358e-09)
(1.51212e-09 -4.02712e-09 2.00968e-09)
(2.1924e-09 -5.85027e-09 2.99445e-09)
(2.85751e-09 -7.63229e-09 4.04441e-09)
(3.53007e-09 -9.41275e-09 5.2088e-09)
(4.23036e-09 -1.12097e-08 6.53013e-09)
(4.97665e-09 -1.30168e-08 8.04227e-09)
(5.78472e-09 -1.47981e-08 9.76521e-09)
(6.66618e-09 -1.64824e-08 1.16944e-08)
(7.62535e-09 -1.79588e-08 1.37827e-08)
(8.65485e-09 -1.90808e-08 1.59123e-08)
(9.72871e-09 -1.96925e-08 1.78586e-08)
(1.0789e-08 -1.96986e-08 1.92652e-08)
(1.17185e-08 -1.91909e-08 1.97048e-08)
(1.23149e-08 -1.85724e-08 1.90726e-08)
(1.27248e-08 -1.86786e-08 1.80826e-08)
(0 0 0)
(1.15979e-09 -3.07601e-09 1.51721e-09)
(2.2158e-09 -5.89201e-09 2.94921e-09)
(3.21024e-09 -8.56631e-09 4.3923e-09)
(4.17956e-09 -1.1189e-08 5.92867e-09)
(5.15598e-09 -1.38228e-08 7.63007e-09)
(6.16812e-09 -1.65013e-08 9.5587e-09)
(7.24088e-09 -1.9226e-08 1.17649e-08)
(8.39353e-09 -2.19606e-08 1.428e-08)
(9.63469e-09 -2.46247e-08 1.71023e-08)
(1.09521e-08 -2.70901e-08 2.01734e-08)
(1.2295e-08 -2.91893e-08 2.3343e-08)
(1.35456e-08 -3.07587e-08 2.63287e-08)
(1.44871e-08 -3.17459e-08 2.86993e-08)
(1.48189e-08 -3.23804e-08 2.99783e-08)
(1.44191e-08 -3.31485e-08 3.00701e-08)
(1.35817e-08 -3.46737e-08 2.97832e-08)
(0 0 0)
(1.49794e-09 -3.95396e-09 1.9631e-09)
(2.86012e-09 -7.57829e-09 3.81434e-09)
(4.13937e-09 -1.10294e-08 5.67688e-09)
(5.38128e-09 -1.44285e-08 7.65567e-09)
(6.62604e-09 -1.78637e-08 9.84237e-09)
(7.90917e-09 -2.13896e-08 1.23169e-08)
(9.26092e-09 -2.50249e-08 1.51449e-08)
(1.07032e-08 -2.87472e-08 1.83698e-08)
(1.22416e-08 -3.24873e-08 2.19966e-08)
(1.38489e-08 -3.61228e-08 2.59653e-08)
(1.54361e-08 -3.94812e-08 3.01127e-08)
(1.6804e-08 -4.23633e-08 3.41297e-08)
(1.75904e-08 -4.46086e-08 3.75488e-08)
(1.73079e-08 -4.62113e-08 3.98522e-08)
(1.58421e-08 -4.73576e-08 4.0844e-08)
(1.36595e-08 -4.86595e-08 4.12824e-08)
(0 0 0)
(1.79817e-09 -4.70628e-09 2.36165e-09)
(3.43059e-09 -9.02654e-09 4.58616e-09)
(4.95835e-09 -1.3153e-08 6.8193e-09)
(6.434e-09 -1.72371e-08 9.18508e-09)
(7.90387e-09 -2.13936e-08 1.17917e-08)
(9.40891e-09 -2.57019e-08 1.47338e-08)
(1.09841e-08 -3.02051e-08 1.80899e-08)
(1.26553e-08 -3.49069e-08 2.19145e-08)
(1.44305e-08 -3.97662e-08 2.62211e-08)
(1.62831e-08 -4.46891e-08 3.09537e-08)
(1.81198e-08 -4.95194e-08 3.5947e-08)
(1.97277e-08 -5.40215e-08 4.08793e-08)
(2.07099e-08 -5.78525e-08 4.52545e-08)
(2.04998e-08 -6.05337e-08 4.84963e-08)
(1.88624e-08 -6.16053e-08 5.02784e-08)
(1.58582e-08 -6.1217e-08 5.13231e-08)
(0 0 0)
(2.05504e-09 -5.30352e-09 2.7056e-09)
(3.91686e-09 -1.01799e-08 5.25037e-09)
(5.652e-09 -1.48531e-08 7.79785e-09)
(7.31764e-09 -1.9502e-08 1.04867e-08)
(8.96411e-09 -2.42672e-08 1.34374e-08)
(1.0636e-08 -2.92535e-08 1.67554e-08)
(1.23724e-08 -3.45318e-08 2.05284e-08)
(1.42042e-08 -4.0138e-08 2.48187e-08)
(1.61485e-08 -4.60703e-08 2.96464e-08)
(1.81957e-08 -5.22826e-08 3.49602e-08)
(2.02881e-08 -5.86708e-08 4.05941e-08)
(2.22846e-08 -6.50375e-08 4.62144e-08)
(2.39192e-08 -7.10044e-08 5.12839e-08)
(2.47984e-08 -7.584e-08 5.51326e-08)
(2.46365e-08 -7.84123e-08 5.73012e-08)
(2.29384e-08 -7.6743e-08 5.86193e-08)
(0 0 0)
(2.26543e-09 -5.71915e-09 2.99033e-09)
(4.31307e-09 -1.09869e-08 5.79802e-09)
(6.21207e-09 -1.60527e-08 8.59913e-09)
(8.02158e-09 -2.11182e-08 1.15421e-08)
(9.79352e-09 -2.63457e-08 1.47551e-08)
(1.1574e-08 -3.1863e-08 1.83492e-08)
(1.34041e-08 -3.77665e-08 2.24166e-08)
(1.53189e-08 -4.41226e-08 2.70226e-08)
(1.73448e-08 -5.09675e-08 3.21888e-08)
(1.94937e-08 -5.83049e-08 3.78644e-08)
(2.17545e-08 -6.60995e-08 4.38799e-08)
(2.40835e-08 -7.42583e-08 4.98855e-08)
(2.64055e-08 -8.25779e-08 5.52885e-08)
(2.86341e-08 -9.0602e-08 5.92728e-08)
(3.06127e-08 -9.72057e-08 6.11709e-08)
(3.31141e-08 -1.01188e-07 6.18694e-08)
(0 0 0)
(2.42855e-09 -5.93108e-09 3.21407e-09)
(4.6182e-09 -1.14048e-08 6.22617e-09)
(6.63774e-09 -1.66877e-08 9.21931e-09)
(8.54561e-09 -2.19971e-08 1.23467e-08)
(1.03927e-08 -2.75109e-08 1.57393e-08)
(1.22239e-08 -3.33737e-08 1.9509e-08)
(1.40793e-08 -3.97007e-08 2.37467e-08)
(1.59938e-08 -4.65794e-08 2.85148e-08)
(1.7997e-08 -5.40695e-08 3.38306e-08)
(2.01097e-08 -6.22004e-08 3.96386e-08)
(2.23405e-08 -7.09664e-08 4.57647e-08)
(2.46791e-08 -8.03132e-08 5.18523e-08)
(2.70897e-08 -9.01072e-08 5.72925e-08)
(2.94787e-08 -1.00051e-07 6.12227e-08)
(3.14557e-08 -1.08918e-07 6.28522e-08)
(3.48844e-08 -1.19726e-07 6.14651e-08)
(0 0 0)
(0 0 0)
(0 0 0)
(0 0 0)
(0 0 0)
(0 0 0)
(0 0 0)
(0 0 0)
(0 0 0)
(0 0 0)
(0 0 0)
(0 0 0)
(0 0 0)
(0 0 0)
(0 0 0)
(0 0 0)
(2.18126e-09 1.30367e-09 1.34543e-09)
(0 0 0)
(4.03273e-10 -1.0805e-09 4.08153e-10)
(7.70422e-10 -2.06833e-09 7.93376e-10)
(1.11613e-09 -3.00391e-09 1.18153e-09)
(1.4528e-09 -3.91741e-09 1.5945e-09)
(1.79081e-09 -4.82862e-09 2.05091e-09)
(2.13877e-09 -5.74619e-09 2.56611e-09)
(2.50345e-09 -6.66616e-09 3.15117e-09)
(2.88944e-09 -7.56959e-09 3.81035e-09)
(3.29862e-09 -8.41962e-09 4.53657e-09)
(3.73024e-09 -9.15843e-09 5.30441e-09)
(4.18377e-09 -9.70519e-09 6.06097e-09)
(4.66792e-09 -9.95411e-09 6.71782e-09)
(5.21971e-09 -9.76555e-09 7.15561e-09)
(5.9192e-09 -8.94602e-09 7.2663e-09)
(6.76715e-09 -7.38576e-09 7.06496e-09)
(7.30939e-09 -4.19563e-09 6.27443e-09)
(0 0 0)
(7.95539e-10 -2.12853e-09 8.05632e-10)
(1.51952e-09 -4.07566e-09 1.56574e-09)
(2.20041e-09 -5.9219e-09 2.3311e-09)
(2.86224e-09 -7.72789e-09 3.14463e-09)
(3.52526e-09 -9.53451e-09 4.04289e-09)
(4.20607e-09 -1.13616e-08 5.05619e-09)
(4.91733e-09 -1.32055e-08 6.20657e-09)
(5.66636e-09 -1.5035e-08 7.50312e-09)
(6.45254e-09 -1.67862e-08 8.93344e-09)
(7.26401e-09 -1.83597e-08 1.04506e-08)
(8.07519e-09 -1.96229e-08 1.19567e-08)
(8.84845e-09 -2.04271e-08 1.32893e-08)
(9.54525e-09 -2.06521e-08 1.42303e-08)
(1.01454e-08 -2.0288e-08 1.45829e-08)
(1.06303e-08 -1.95853e-08 1.43858e-08)
(1.12963e-08 -1.92631e-08 1.40815e-08)
(0 0 0)
(1.16671e-09 -3.11257e-09 1.1827e-09)
(2.22762e-09 -5.96254e-09 2.29795e-09)
(3.22359e-09 -8.67006e-09 3.41967e-09)
(4.18908e-09 -1.13268e-08 4.61027e-09)
(5.15321e-09 -1.39969e-08 5.92309e-09)
(6.13983e-09 -1.67159e-08 7.4026e-09)
(7.16659e-09 -1.94878e-08 9.08183e-09)
(8.24216e-09 -2.22802e-08 1.0976e-08)
(9.36055e-09 -2.50189e-08 1.30712e-08)
(1.04918e-08 -2.75837e-08 1.53075e-08)
(1.1569e-08 -2.98151e-08 1.75588e-08)
(1.24751e-08 -3.15449e-08 1.96203e-08)
(1.30438e-08 -3.26761e-08 2.12293e-08)
(1.31239e-08 -3.33206e-08 2.21739e-08)
(1.27921e-08 -3.38474e-08 2.2508e-08)
(1.2451e-08 -3.48855e-08 2.26849e-08)
(0 0 0)
(1.5076e-09 -4.00061e-09 1.53046e-09)
(2.87689e-09 -7.66812e-09 2.97242e-09)
(4.15918e-09 -1.11611e-08 4.42042e-09)
(5.39781e-09 -1.46024e-08 5.95418e-09)
(6.62953e-09 -1.80815e-08 7.64196e-09)
(7.88457e-09 -2.16543e-08 9.54104e-09)
(9.18529e-09 -2.53403e-08 1.16949e-08)
(1.05424e-08 -2.91186e-08 1.41257e-08)
(1.19469e-08 -3.29209e-08 1.68214e-08)
(1.33555e-08 -3.66256e-08 1.97167e-08)
(1.46689e-08 -4.00562e-08 2.26713e-08)
(1.57016e-08 -4.29954e-08 2.5458e-08)
(1.61658e-08 -4.52335e-08 2.77917e-08)
(1.57499e-08 -4.66744e-08 2.94438e-08)
(1.45234e-08 -4.74651e-08 3.04076e-08)
(1.30054e-08 -4.8288e-08 3.10854e-08)
(0 0 0)
(1.81073e-09 -4.76131e-09 1.84144e-09)
(3.45277e-09 -9.13232e-09 3.57442e-09)
(4.98565e-09 -1.33075e-08 5.31087e-09)
(6.45968e-09 -1.744e-08 7.14506e-09)
(7.91776e-09 -2.16455e-08 9.15766e-09)
(9.39554e-09 -2.60032e-08 1.14167e-08)
(1.09203e-08 -3.05551e-08 1.39744e-08)
(1.25073e-08 -3.53021e-08 1.68598e-08)
(1.41515e-08 -4.01972e-08 2.0064e-08)
(1.58133e-08 -4.51366e-08 2.35205e-08)
(1.73947e-08 -4.99453e-08 2.70803e-08)
(1.87056e-08 -5.43558e-08 3.04992e-08)
(1.94339e-08 -5.7976e-08 3.34662e-08)
(1.91921e-08 -6.02794e-08 3.57169e-08)