/*--------------------------------*- C++ -*----------------------------------*\
| =========                 |                                                 |
| \\      /  F ield         | OpenFOAM: The Open Source CFD Toolbox           |
|  \\    /   O peration     | Version:  v1912                                 |
|   \\  /    A nd           | Website:  www.openfoam.com                      |
|    \\/     M anipulation  |                                                 |
\*---------------------------------------------------------------------------*/
FoamFile
{
    version     2.0;
    format      ascii;
    class       volScalarField;
    location    "0.98/fluid";
    object      T;
}
// * * * * * * * * * * * * * * * * * * * * * * * * * * * * * * * * * * * * * //

dimensions      [0 0 0 1 0 0 0];


internalField   nonuniform List<scalar> 
14592
(
273.312
273.946
274.605
275.291
276.009
276.766
277.566
278.416
279.326
280.303
281.361
282.512
283.776
285.182
286.786
288.729
273.31
273.941
274.596
275.278
275.993
276.745
277.541
278.388
279.292
280.265
281.317
282.463
283.722
285.122
286.709
288.574
273.308
273.934
274.582
275.259
275.967
276.713
277.501
278.34
279.235
280.198
281.239
282.374
283.623
285.015
286.594
288.449
273.305
273.925
274.567
275.236
275.936
276.672
277.45
278.277
279.16
280.108
281.133
282.251
283.484
284.863
286.44
288.316
273.302
273.915
274.549
275.209
275.9
276.625
277.391
278.203
279.068
279.997
280.999
282.093
283.301
284.659
286.229
288.133
273.298
273.903
274.53
275.181
275.86
276.573
277.324
278.118
278.963
279.867
280.841
281.9
283.07
284.39
285.932
287.85
273.294
273.891
274.509
275.15
275.818
276.517
277.251
278.026
278.847
279.722
280.66
281.675
282.79
284.044
285.513
287.379
273.29
273.879
274.487
275.118
275.774
276.458
277.176
277.929
278.724
279.565
280.461
281.422
282.466
283.621
284.946
286.588
273.316
273.96
274.629
275.327
276.06
276.833
277.654
278.531
279.473
280.493
281.602
282.82
284.17
285.687
287.432
289.527
273.315
273.955
274.62
275.314
276.042
276.812
277.629
278.501
279.439
280.453
281.557
282.77
284.115
285.626
287.358
289.398
273.312
273.947
274.606
275.294
276.016
276.778
277.588
278.452
279.38
280.383
281.476
282.678
284.013
285.518
287.245
289.288
273.309
273.938
274.59
275.27
275.984
276.736
277.535
278.386
279.3
280.288
281.365
282.549
283.868
285.362
287.093
289.167
273.306
273.927
274.572
275.243
275.946
276.687
277.472
278.309
279.205
280.172
281.224
282.383
283.676
285.15
286.88
288.997
273.302
273.916
274.551
275.213
275.905
276.633
277.402
278.22
279.094
280.035
281.056
282.179
283.432
284.867
286.574
288.722
273.298
273.903
274.53
275.181
275.861
276.574
277.326
278.123
278.972
279.881
280.864
281.938
283.132
284.497
286.128
288.236
273.294
273.89
274.507
275.147
275.815
276.513
277.247
278.021
278.841
279.715
280.652
281.667
282.781
284.035
285.506
287.373
273.32
273.973
274.652
275.361
276.107
276.896
277.736
278.637
279.608
280.663
281.817
283.087
284.499
286.082
287.881
289.963
273.319
273.968
274.642
275.347
276.089
276.874
277.71
278.606
279.573
280.622
281.77
283.036
284.442
286.021
287.812
289.856
273.316
273.96
274.628
275.327
276.062
276.84
277.668
278.555
279.511
280.55
281.687
282.941
284.339
285.912
287.703
289.757
273.313
273.95
274.612
275.302
276.028
276.796
277.613
278.487
279.429
280.452
281.571
282.807
284.189
285.754
287.551
289.643
273.31
273.939
274.593
275.274
275.99
276.745
277.548
278.406
279.329
280.33
281.425
282.634
283.99
285.537
287.337
289.478
273.306
273.927
274.572
275.243
275.947
276.689
277.475
278.314
279.214
280.187
281.249
282.421
283.736
285.243
287.024
289.205
273.302
273.915
274.549
275.21
275.901
276.628
277.396
278.213
279.086
280.026
281.046
282.168
283.421
284.856
286.564
288.715
273.297
273.901
274.526
275.175
275.853
276.564
277.313
278.106
278.949
279.851
280.823
281.882
283.051
284.37
285.914
287.837
273.324
273.985
274.672
275.391
276.148
276.951
277.808
278.729
279.725
280.81
281.997
283.306
284.757
286.373
288.18
290.206
273.323
273.979
274.662
275.377
276.131
276.929
277.782
278.698
279.689
280.768
281.95
283.254
284.7
286.313
288.113
290.108
273.32
273.971
274.648
275.356
276.103
276.894
277.738
278.645
279.626
280.693
281.864
283.157
284.595
286.203
288.007
290.015
273.317
273.961
274.631
275.331
276.068
276.849
277.682
278.576
279.541
280.592
281.745
283.02
284.442
286.043
287.856
289.904
273.313
273.95
274.611
275.302
276.029
276.797
277.615
278.492
279.438
280.466
281.594
282.841
284.238
285.822
287.64
289.74
273.309
273.938
274.59
275.27
275.984
276.739
277.54
278.397
279.319
280.318
281.412
282.621
283.976
285.522
287.324
289.469
273.305
273.925
274.567
275.236
275.937
276.676
277.458
278.292
279.186
280.151
281.202
282.359
283.651
285.125
286.857
288.981
273.3
273.911
274.543
275.2
275.887
276.609
277.372
278.181
279.043
279.969
280.969
282.061
283.267
284.625
286.198
288.11
273.327
273.995
274.689
275.417
276.184
276.998
277.869
278.806
279.822
280.928
282.141
283.476
284.95
286.579
288.376
290.347
273.326
273.989
274.679
275.402
276.165
276.976
277.842
278.775
279.785
280.886
282.093
283.423
284.893
286.519
288.311
290.254
273.323
273.981
274.665
275.381
276.137
276.94
277.797
278.72
279.72
280.81
282.005
283.325
284.786
286.41
288.205
290.164
273.32
273.971
274.647
275.355
276.102
276.894
277.74
278.649
279.633
280.706
281.884
283.185
284.632
286.248
288.055
290.054
273.316
273.959
274.627
275.326
276.061
276.84
277.671
278.563
279.528
280.577
281.729
283.003
284.424
286.025
287.839
289.891
273.312
273.947
274.605
275.293
276.016
276.781
277.594
278.466
279.405
280.425
281.542
282.777
284.157
285.721
287.52
289.621
273.308
273.933
274.582
275.258
275.967
276.716
277.51
278.358
279.268
280.253
281.326
282.508
283.825
285.318
287.051
289.137
273.303
273.919
274.557
275.221
275.916
276.648
277.421
278.243
279.121
280.065
281.087
282.202
283.433
284.811
286.39
288.276
273.33
274.002
274.703
275.436
276.211
277.034
277.916
278.865
279.895
281.018
282.248
283.599
285.086
286.718
288.501
290.431
273.328
273.997
274.692
275.422
276.193
277.012
277.888
278.833
279.858
280.975
282.199
283.546
285.029
286.659
288.437
290.34
273.326
273.988
274.678
275.401
276.164
276.975
277.843
278.778
279.792
280.898
282.11
283.446
284.922
286.549
288.332
290.251
273.322
273.978
274.66
275.374
276.128
276.928
277.784
278.706
279.704
280.792
281.987
283.305
284.765
286.387
288.182
290.142
273.319
273.967
274.64
275.344
276.087
276.874
277.715
278.618
279.596
280.661
281.829
283.12
284.556
286.162
287.965
289.98
273.314
273.954
274.618
275.311
276.041
276.813
277.636
278.519
279.471
280.506
281.639
282.891
284.285
285.856
287.646
289.71
273.31
273.94
274.593
275.275
275.991
276.747
277.55
278.408
279.331
280.33
281.42
282.617
283.949
285.45
287.177
289.23
273.305
273.925
274.568
275.238
275.939
276.678
277.459
278.291
279.181
280.139
281.176
282.306
283.551
284.939
286.516
288.379
273.332
274.008
274.712
275.45
276.23
277.059
277.948
278.905
279.944
281.077
282.318
283.679
285.172
286.804
288.575
290.479
273.33
274.002
274.702
275.436
276.211
277.036
277.92
278.873
279.907
281.034
282.269
283.625
285.115
286.745
288.512
290.39
273.327
273.993
274.687
275.414
276.182
276.999
277.874
278.817
279.84
280.956
282.18
283.525
285.007
286.635
288.407
290.301
273.324
273.983
274.669
275.388
276.146
276.952
277.815
278.744
279.751
280.85
282.055
283.383
284.85
286.473
288.257
290.192
273.32
273.972
274.649
275.357
276.104
276.897
277.744
278.656
279.642
280.717
281.896
283.196
284.639
286.247
288.04
290.03
273.316
273.959
274.626
275.323
276.058
276.835
277.665
278.555
279.516
280.56
281.704
282.965
284.367
285.939
287.721
289.762
273.311
273.944
274.601
275.287
276.007
276.768
277.578
278.443
279.374
280.382
281.481
282.689
284.028
285.532
287.252
289.284
273.307
273.93
274.576
275.249
275.955
276.698
277.486
278.324
279.222
280.188
281.234
282.375
283.628
285.019
286.593
288.44
273.332
274.01
274.716
275.457
276.239
277.072
277.964
278.925
279.969
281.107
282.353
283.719
285.214
286.845
288.61
290.501
273.331
274.004
274.706
275.443
276.221
277.049
277.936
278.893
279.931
281.064
282.304
283.665
285.157
286.786
288.547
290.412
273.328
273.996
274.691
275.421
276.191
277.011
277.89
278.837
279.865
280.986
282.214
283.564
285.049
286.676
288.442
290.324
273.325
273.986
274.673
275.394
276.155
276.964
277.83
278.763
279.775
280.879
282.089
283.421
284.891
286.513
288.292
290.215
273.321
273.974
274.653
275.364
276.113
276.909
277.759
278.674
279.665
280.745
281.929
283.234
284.68
286.287
288.075
290.053
273.317
273.961
274.63
275.33
276.066
276.847
277.679
278.573
279.538
280.587
281.736
283.001
284.406
285.979
287.756
289.785
273.312
273.947
274.605
275.293
276.016
276.779
277.591
278.46
279.396
280.408
281.512
282.724
284.067
285.571
287.288
289.309
273.307
273.932
274.58
275.255
275.963
276.708
277.499
278.341
279.242
280.213
281.264
282.409
283.665
285.058
286.629
288.468
273.288
273.874
274.477
275.098
275.737
276.394
277.068
277.758
278.461
279.172
279.883
280.585
281.263
281.9
282.476
282.966
273.287
273.87
274.47
275.089
275.726
276.381
277.053
277.74
278.441
279.148
279.857
280.555
281.231
281.866
282.439
282.928
273.285
273.864
274.461
275.076
275.708
276.359
277.026
277.709
278.404
279.106
279.809
280.501
281.171
281.801
282.37
282.856
273.283
273.858
274.449
275.059
275.686
276.33
276.991
277.667
278.354
279.048
279.742
280.427
281.088
281.709
282.271
282.752
273.28
273.85
274.436
275.039
275.659
276.296
276.949
277.616
278.294
278.978
279.661
280.334
280.984
281.594
282.147
282.62
273.277
273.841
274.421
275.017
275.63
276.259
276.903
277.559
278.226
278.898
279.568
280.227
280.862
281.459
281.999
282.462
273.274
273.832
274.405
274.994
275.599
276.219
276.852
277.498
278.152
278.81
279.465
280.108
280.727
281.308
281.833
282.284
273.271
273.822
274.389
274.97
275.567
276.177
276.8
277.434
278.074
278.717
279.356
279.982
280.583
281.146
281.655
282.091
273.288
273.874
274.479
275.101
275.743
276.403
277.082
277.778
278.488
279.208
279.93
280.646
281.342
281.998
282.594
283.104
273.287
273.87
274.472
275.092
275.731
276.389
277.065
277.758
278.465
279.182
279.902
280.615
281.307
281.962
282.555
283.064
273.285
273.865
274.462
275.077
275.712
276.365
277.036
277.725
278.426
279.138
279.852
280.558
281.245
281.894
282.483
282.989
273.283
273.858
274.45
275.06
275.688
276.335
277
277.681
278.375
279.078
279.783
280.481
281.159
281.799
282.381
282.881
273.281
273.85
274.436
275.04
275.662
276.301
276.958
277.629
278.314
279.006
279.7
280.386
281.051
281.68
282.252
282.744
273.278
273.841
274.421
275.018
275.632
276.263
276.91
277.571
278.244
278.924
279.604
280.275
280.926
281.54
282.098
282.579
273.275
273.832
274.405
274.995
275.601
276.222
276.859
277.509
278.168
278.834
279.498
280.153
280.786
281.383
281.925
282.392
273.271
273.822
274.388
274.97
275.568
276.18
276.806
277.444
278.09
278.739
279.387
280.023
280.637
281.214
281.738
282.188
273.29
273.878
274.485
275.112
275.758
276.425
277.112
277.819
278.543
279.281
280.028
280.772
281.502
282.199
282.837
283.387
273.288
273.874
274.478
275.101
275.745
276.409
277.093
277.797
278.519
279.254
279.997
280.738
281.465
282.159
282.795
283.344
273.286
273.868
274.467
275.086
275.724
276.384
277.063
277.762
278.477
279.206
279.943
280.678
281.399
282.087
282.718
283.264
273.284
273.861
274.455
275.068
275.7
276.353
277.025
277.716
278.423
279.144
279.871
280.596
281.307
281.986
282.61
283.149
273.282
273.852
274.441
275.047
275.673
276.317
276.981
277.662
278.359
279.068
279.783
280.495
281.193
281.859
282.472
283.002
273.279
273.844
274.425
275.025
275.642
276.278
276.932
277.602
278.287
278.982
279.682
280.379
281.06
281.709
282.306
282.824
273.275
273.834
274.409
275.001
275.61
276.236
276.879
277.538
278.209
278.888
279.571
280.249
280.91
281.54
282.117
282.618
273.272
273.824
274.392
274.976
275.577
276.193
276.825
277.47
278.126
278.79
279.454
280.111
280.75
281.356
281.912
282.393
273.292
273.885
274.497
275.129
275.783
276.46
277.159
277.882
278.628
279.393
280.173
280.961
281.744
282.503
283.209
283.827
273.29
273.88
274.489
275.118
275.769
276.443
277.139
277.859
278.601
279.363
280.14
280.924
281.704
282.46
283.164
283.78
273.289
273.874
274.478
275.102
275.748
276.416
277.107
277.822
278.557
279.313
280.083
280.86
281.633
282.382
283.082
283.694
273.286
273.867
274.465
275.083
275.722
276.384
277.067
277.773
278.5
279.246
280.006
280.772
281.534
282.273
282.964
283.57
273.283
273.858
274.45
275.062
275.694
276.347
277.021
277.717
278.433
279.166
279.912
280.664
281.411
282.136
282.813
283.408
273.28
273.849
274.435
275.039
275.662
276.306
276.97
277.654
278.357
279.075
279.804
280.538
281.266
281.971
282.63
283.209
273.277
273.839
274.418
275.014
275.629
276.263
276.915
277.586
278.274
278.975
279.685
280.398
281.102
281.783
282.418
282.976
273.274
273.829
274.4
274.989
275.594
276.218
276.858
277.515
278.187
278.87
279.559
280.247
280.925
281.577
282.183
282.714
273.295
273.894
274.513
275.154
275.818
276.507
277.222
277.966
278.738
279.538
280.363
281.208
282.062
282.908
283.715
284.436
273.293
273.889
274.505
275.142
275.803
276.489
277.201
277.942
278.71
279.506
280.328
281.168
282.019
282.862
283.666
284.385
273.291
273.883
274.493
275.125
275.781
276.461
277.168
277.902
278.664
279.453
280.266
281.099
281.942
282.778
283.577
284.292
273.289
273.875
274.48
275.106
275.754
276.427
277.126
277.851
278.603
279.382
280.184
281.005
281.836
282.66
283.449
284.157
273.286
273.866
274.465
275.084
275.724
276.388
277.077
277.792
278.531
279.296
280.083
280.888
281.701
282.509
283.282
283.979
273.283
273.857
274.449
275.059
275.691
276.346
277.023
277.725
278.45
279.198
279.966
280.75
281.541
282.325
283.076
283.753
273.28
273.847
274.431
275.034
275.656
276.3
276.966
277.653
278.362
279.091
279.837
280.596
281.358
282.112
282.832
283.48
273.276
273.836
274.413
275.007
275.62
276.253
276.906
277.578
278.269
278.977
279.699
280.429
281.159
281.875
282.556
283.166
273.298
273.906
274.533
275.184
275.86
276.564
277.298
278.066
278.87
279.71
280.589
281.502
282.446
283.406
284.353
285.231
273.297
273.901
274.525
275.172
275.844
276.545
277.276
278.041
278.841
279.677
280.551
281.461
282.4
283.357
284.301
285.175
273.295
273.894
274.513
275.154
275.821
276.516
277.241
277.999
278.791
279.62
280.485
281.386
282.318
283.266
284.204
285.074
273.292
273.886
274.499
275.134
275.794
276.48
277.197
277.945
278.727
279.544
280.397
281.284
282.202
283.138
284.065
284.929
273.289
273.877
274.483
275.111
275.762
276.44
277.146
277.882
278.651
279.453
280.288
281.157
282.055
282.972
283.882
284.734
273.286
273.867
274.466
275.085
275.728
276.395
277.089
277.811
278.564
279.347
280.162
281.006
281.878
282.766
283.649
284.479
273.283
273.856
274.448
275.059
275.691
276.347
277.028
277.735
278.469
279.231
280.02
280.835
281.672
282.522
283.365
284.155
273.279
273.845
274.429
275.031
275.653
276.297
276.964
277.655
278.369
279.107
279.868
280.649
281.445
282.246
283.033
283.765
273.303
273.918
274.556
275.218
275.907
276.628
277.384
278.179
279.017
279.902
280.839
281.831
282.879
283.978
285.113
286.23
273.301
273.913
274.547
275.205
275.891
276.609
277.361
278.152
278.986
279.867
280.8
281.787
282.83
283.925
285.055
286.162
273.299
273.906
274.535
275.187
275.867
276.578
277.324
278.108
278.934
279.807
280.73
281.708
282.742
283.828
284.95
286.052
273.296
273.898
274.52
275.166
275.838
276.541
277.278
278.051
278.866
279.726
280.635
281.598
282.617
283.691
284.803
285.9
273.293
273.889
274.504
275.142
275.806
276.498
277.224
277.984
278.784
279.628
280.518
281.46
282.457
283.509
284.605
285.694
273.29
273.878
274.486
275.115
275.769
276.451
277.163
277.909
278.692
279.514
280.381
281.295
282.261
283.281
284.345
285.412
273.286
273.867
274.467
275.087
275.731
276.4
277.099
277.827
278.59
279.388
280.226
281.106
282.031
283.002
284.014
285.03
273.283
273.856
274.447
275.058
275.691
276.348
277.031
277.742
278.482
279.254
280.059
280.898
281.772
282.68
283.612
284.535
273.307
273.932
274.58
275.254
275.958
276.696
277.474
278.297
279.171
280.103
281.102
282.175
283.333
284.589
285.955
287.428
273.306
273.927
274.571
275.241
275.941
276.676
277.45
278.269
279.139
280.067
281.06
282.128
283.282
284.533
285.888
287.333
273.303
273.92
274.558
275.223
275.917
276.645
277.412
278.223
279.084
280.003
280.986
282.044
283.188
284.43
285.777
287.213
273.301
273.911
274.543
275.2
275.887
276.606
277.363
278.164
279.013
279.917
280.885
281.927
283.055
284.284
285.624
287.064
273.297
273.901
274.526
275.175
275.852
276.561
277.306
278.093
278.926
279.812
280.76
281.779
282.883
284.089
285.416
286.86
273.294
273.891
274.507
275.148
275.814
276.511
277.243
278.013
278.827
279.691
280.611
281.599
282.669
283.839
285.134
286.565
273.29
273.879
274.488
275.118
275.774
276.458
277.174
277.926
278.718
279.555
280.443
281.391
282.413
283.525
284.755
286.125
273.286
273.867
274.467
275.087
275.732
276.402
277.102
277.835
278.602
279.409
280.26
281.161
282.12
283.151
284.27
285.491
273.286
273.866
274.466
275.086
275.729
276.399
277.099
277.83
278.597
279.404
280.254
281.154
282.114
283.144
284.264
285.485
273.282
273.855
274.445
275.055
275.687
276.342
277.024
277.734
278.473
279.244
280.048
280.886
281.76
282.668
283.6
284.524
273.278
273.844
274.426
275.026
275.647
276.29
276.955
277.644
278.357
279.094
279.854
280.634
281.429
282.231
283.017
283.75
273.275
273.834
274.409
275.002
275.613
276.244
276.895
277.566
278.255
278.962
279.682
280.411
281.14
281.856
282.537
283.148
273.273
273.827
274.396
274.983
275.586
276.208
276.847
277.502
278.171
278.852
279.54
280.227
280.904
281.556
282.162
282.695
273.271
273.822
274.387
274.97
275.568
276.182
276.812
277.455
278.11
278.771
279.433
280.089
280.728
281.334
281.89
282.372
273.271
273.819
274.384
274.964
275.559
276.169
276.793
277.428
278.072
278.72
279.365
280
280.613
281.191
281.715
282.167
273.27
273.819
274.384
274.963
275.557
276.165
276.786
277.417
278.056
278.697
279.334
279.959
280.56
281.123
281.632
282.069
273.289
273.877
274.485
275.114
275.768
276.451
277.166
277.916
278.707
279.542
280.429
281.377
282.398
283.51
284.741
286.113
273.285
273.865
274.463
275.082
275.724
276.391
277.087
277.814
278.575
279.372
280.208
281.086
282.011
282.982
283.994
285.011
273.282
273.854
274.443
275.052
275.682
276.336
277.014
277.719
278.451
279.211
279.999
280.812
281.649
282.498
283.341
284.133
273.279
273.844
274.426
275.026
275.646
276.288
276.951
277.636
278.342
279.069
279.813
280.57
281.332
282.085
282.805
283.455
273.276
273.836
274.412
275.006
275.618
276.249
276.899
277.567
278.252
278.951
279.659
280.37
281.074
281.754
282.39
282.949
273.274
273.83
274.403
274.992
275.599
276.222
276.862
277.518
278.186
278.863
279.544
280.22
280.881
281.51
282.088
282.591
273.273
273.828
274.399
274.986
275.589
276.208
276.841
277.488
278.145
278.808
279.47
280.123
280.756
281.353
281.896
282.364
273.273
273.828
274.399
274.985
275.587
276.204
276.834
277.477
278.128
278.783
279.436
280.078
280.697
281.278
281.804
282.256
273.293
273.888
274.503
275.14
275.805
276.5
277.228
277.996
278.808
279.669
280.588
281.574
282.643
283.813
285.109
286.543
273.289
273.875
274.48
275.107
275.758
276.437
277.146
277.889
278.669
279.489
280.353
281.265
282.231
283.25
284.315
285.384
273.285
273.863
274.459
275.076
275.715
276.379
277.07
277.789
278.538
279.319
280.131
280.974
281.844
282.732
283.616
284.447
273.281
273.853
274.441
275.049
275.678
276.329
277.003
277.701
278.423
279.168
279.933
280.715
281.505
282.288
283.04
283.719
273.279
273.844
274.427
275.028
275.648
276.288
276.948
277.629
278.328
279.043
279.77
280.502
281.228
281.933
282.593
283.174
273.277
273.839
274.417
275.013
275.627
276.26
276.91
277.576
278.257
278.949
279.647
280.341
281.021
281.671
282.269
282.788
273.276
273.836
274.413
275.006
275.617
276.244
276.887
277.545
278.214
278.89
279.568
280.237
280.887
281.501
282.061
282.544
273.276
273.836
274.413
275.006
275.615
276.239
276.879
277.532
278.195
278.864
279.531
280.189
280.823
281.421
281.962
282.427
273.296
273.897
274.519
275.164
275.838
276.543
277.284
278.067
278.896
279.779
280.724
281.741
282.843
284.05
285.378
286.826
273.292
273.884
274.495
275.13
275.789
276.478
277.199
277.955
278.751
279.591
280.478
281.418
282.413
283.465
284.561
285.653
273.288
273.871
274.474
275.097
275.745
276.418
277.119
277.851
278.615
279.413
280.246
281.112
282.009
282.924
283.835
284.689
273.284
273.861
274.455
275.07
275.706
276.365
277.049
277.759
278.495
279.255
280.039
280.841
281.653
282.46
283.234
283.933
273.281
273.852
274.44
275.048
275.675
276.323
276.993
277.684
278.395
279.124
279.867
280.617
281.362
282.087
282.765
283.362
273.279
273.846
274.43
275.032
275.653
276.293
276.952
277.629
278.321
279.026
279.738
280.448
281.144
281.811
282.424
282.957
273.278
273.844
274.426
275.025
275.642
276.277
276.928
277.595
278.275
278.964
279.654
280.338
281.003
281.632
282.205
282.699
273.278
273.844
274.425
275.024
275.64
276.272
276.92
277.582
278.255
278.936
279.616
280.287
280.935
281.546
282.1
282.576
273.298
273.905
274.532
275.184
275.865
276.579
277.331
278.126
278.97
279.87
280.834
281.873
282.999
284.226
285.567
287.011
273.294
273.891
274.508
275.149
275.816
276.512
277.243
278.011
278.82
279.676
280.581
281.54
282.557
283.629
284.741
285.841
273.29
273.879
274.486
275.116
275.77
276.45
277.161
277.903
278.68
279.492
280.341
281.225
282.14
283.075
284.003
284.868
273.286
273.868
274.467
275.087
275.73
276.396
277.089
277.808
278.555
279.328
280.126
280.944
281.773
282.597
283.387
284.097
273.284
273.859
274.452
275.064
275.698
276.353
277.03
277.73
278.452
279.192
279.948
280.712
281.472
282.211
282.903
283.512
273.282
273.853
274.442
275.049
275.675
276.322
276.988
277.673
278.375
279.09
279.814
280.537
281.246
281.925
282.55
283.094
273.281
273.85
274.437
275.041
275.664
276.304
276.963
277.638
278.327
279.025
279.727
280.422
281.099
281.739
282.324
282.827
273.28
273.85
274.436
275.04
275.661
276.299
276.954
277.624
278.306
278.996
279.687
280.369
281.029
281.651
282.215
282.7
273.3
273.911
274.543
275.2
275.887
276.608
277.367
278.172
279.027
279.939
280.918
281.971
283.111
284.35
285.694
287.131
273.296
273.897
274.519
275.164
275.836
276.539
277.277
278.054
278.873
279.74
280.659
281.632
282.663
283.747
284.867
285.968
273.292
273.884
274.496
275.13
275.789
276.476
277.193
277.944
278.729
279.552
280.413
281.31
282.238
283.185
284.122
284.993
273.288
273.873
274.477
275.101
275.748
276.42
277.119
277.846
278.601
279.385
280.193
281.023
281.863
282.698
283.498
284.216
273.285
273.864
274.461
275.077
275.715
276.376
277.059
277.766
278.496
279.245
280.011
280.785
281.556
282.305
283.006
283.622
273.283
273.858
274.45
275.061
275.693
276.344
277.016
277.707
278.417
279.14
279.873
280.605
281.324
282.012
282.646
283.196
273.282
273.855
274.445
275.053
275.68
276.326
276.99
277.672
278.367
279.073
279.783
280.487
281.173
281.822
282.414
282.924
273.282
273.855
274.445
275.052
275.677
276.321
276.981
277.657
278.346
279.043
279.742
280.432
281.101
281.731
282.303
282.794
273.302
273.915
274.55
275.211
275.902
276.627
277.392
278.203
279.065
279.986
280.973
282.036
283.184
284.428
285.773
287.202
273.297
273.901
274.526
275.174
275.85
276.558
277.301
278.083
278.91
279.784
280.711
281.693
282.732
283.822
284.946
286.046
273.293
273.888
274.503
275.14
275.803
276.493
277.215
277.971
278.763
279.593
280.461
281.366
282.303
283.257
284.199
285.073
273.289
273.877
274.483
275.11
275.761
276.437
277.14
277.872
278.633
279.423
280.239
281.075
281.924
282.765
283.571
284.293
273.286
273.868
274.467
275.087
275.728
276.392
277.079
277.791
278.526
279.281
280.053
280.834
281.612
282.367
283.074
283.695
273.284
273.861
274.456
275.07
275.704
276.359
277.035
277.731
278.445
279.175
279.913
280.651
281.377
282.071
282.71
283.265
273.283
273.858
274.451
275.062
275.692
276.341
277.009
277.695
278.395
279.106
279.822
280.532
281.223
281.878
282.475
282.99
273.283
273.858
274.451
275.061
275.689
276.335
276.999
277.68
278.373
279.075
279.78
280.475
281.15
281.786
282.362
282.857
273.303
273.917
274.554
275.217
275.909
276.637
277.405
278.218
279.084
280.009
281.001
282.068
283.22
284.466
285.811
287.236
273.298
273.903
274.529
275.179
275.857
276.567
277.313
278.098
278.928
279.806
280.737
281.723
282.766
283.859
284.984
286.084
273.294
273.89
274.506
275.145
275.809
276.502
277.227
277.985
278.78
279.614
280.486
281.395
282.335
283.292
284.236
285.111
273.29
273.879
274.486
275.115
275.767
276.446
277.151
277.886
278.649
279.442
280.261
281.102
281.954
282.799
283.607
284.33
273.287
273.87
274.47
275.091
275.734
276.4
277.089
277.803
278.541
279.299
280.074
280.859
281.64
282.399
283.108
283.731
273.285
273.863
274.459
275.075
275.71
276.367
277.045
277.743
278.46
279.192
279.933
280.674
281.403
282.1
282.742
283.299
273.284
273.86
274.454
275.066
275.698
276.349
277.019
277.706
278.409
279.123
279.841
280.554
281.248
281.906
282.506
283.022
273.284
273.86
274.454
275.065
275.695
276.343
277.009
277.691
278.387
279.092
279.799
280.497
281.175
281.813
282.392
282.889
273.268
273.813
274.372
274.947
275.535
276.136
276.748
277.369
277.996
278.624
279.246
279.854
280.436
280.98
281.47
281.891
273.265
273.804
274.357
274.924
275.504
276.096
276.698
277.307
277.921
278.534
279.139
279.728
280.291
280.816
281.288
281.693
273.263
273.796
274.343
274.903
275.476
276.059
276.651
277.25
277.851
278.449
279.039
279.61
280.155
280.661
281.116
281.506
273.26
273.788
274.33
274.885
275.451
276.027
276.611
277.2
277.79
278.375
278.95
279.506
280.034
280.523
280.962
281.338
273.258
273.783
274.32
274.871
275.432
276.002
276.579
277.159
277.739
278.314
278.876
279.419
279.932
280.407
280.832
281.196
273.257
273.779
274.314
274.861
275.418
275.984
276.556
277.13
277.702
278.268
278.82
279.352
279.855
280.318
280.732
281.087
273.256
273.777
274.31
274.856
275.411
275.974
276.542
277.111
277.679
278.238
278.784
279.309
279.803
280.259
280.665
281.013
273.256
273.777
274.31
274.855
275.409
275.97
276.536
277.104
277.668
278.225
278.767
279.288
279.778
280.23
280.632
280.977
273.268
273.813
274.372
274.946
275.535
276.138
276.753
277.378
278.01
278.644
279.273
279.89
280.483
281.04
281.543
281.977
273.265
273.803
274.356
274.923
275.504
276.098
276.702
277.315
277.933
278.551
279.163
279.76
280.333
280.868
281.351
281.767
273.263
273.795
274.342
274.902
275.476
276.061
276.655
277.257
277.862
278.465
279.06
279.638
280.191
280.706
281.17
281.569
273.26
273.788
274.329
274.884
275.451
276.029
276.615
277.206
277.799
278.389
278.968
279.53
280.065
280.562
281.008
281.391
273.258
273.782
274.32
274.87
275.432
276.003
276.582
277.165
277.748
278.326
278.893
279.44
279.96
280.441
280.872
281.242
273.257
273.778
274.313
274.86
275.418
275.985
276.559
277.135
277.71
278.28
278.836
279.372
279.88
280.348
280.767
281.127
273.257
273.777
274.31
274.856
275.412
275.976
276.546
277.118
277.688
278.25
278.8
279.328
279.827
280.287
280.698
281.05
273.256
273.777
274.31
274.856
275.411
275.973
276.541
277.111
277.678
278.238
278.784
279.308
279.803
280.258
280.664
281.013
273.269
273.815
274.375
274.952
275.543
276.15
276.77
277.403
278.044
278.689
279.334
279.969
280.585
281.166
281.697
282.156
273.266
273.805
274.359
274.928
275.511
276.108
276.718
277.337
277.963
278.592
279.217
279.831
280.422
280.979
281.484
281.921
273.263
273.797
274.344
274.906
275.482
276.07
276.669
277.277
277.889
278.502
279.108
279.701
280.269
280.802
281.284
281.699
273.261
273.789
274.332
274.888
275.457
276.037
276.627
277.224
277.824
278.422
279.011
279.585
280.133
280.644
281.105
281.501
273.259
273.784
274.322
274.873
275.437
276.011
276.594
277.182
277.771
278.356
278.932
279.489
280.02
280.513
280.956
281.336
273.258
273.78
274.315
274.864
275.424
275.994
276.571
277.152
277.732
278.308
278.872
279.417
279.934
280.413
280.842
281.21
273.257
273.778
274.313
274.86
275.418
275.985
276.558
277.134
277.71
278.279
278.835
279.371
279.879
280.347
280.766
281.126
273.257
273.779
274.313
274.86
275.418
275.983
276.555
277.128
277.701
278.266
278.819
279.351
279.853
280.316
280.73
281.085
273.271
273.819
274.383
274.963
275.56
276.173
276.801
277.444
278.099
278.763
279.43
280.093
280.741
281.362
281.936
282.437
273.267
273.81
274.366
274.939
275.527
276.129
276.746
277.375
278.014
278.659
279.303
279.94
280.56
281.149
281.69
282.16
273.265
273.801
274.351
274.917
275.496
276.09
276.696
277.312
277.935
278.562
279.185
279.798
280.39
280.949
281.458
281.9
273.262
273.793
274.338
274.897
275.47
276.056
276.652
277.257
277.866
278.476
279.08
279.671
280.239
280.771
281.253
281.67
273.26
273.787
274.328
274.883
275.45
276.029
276.617
277.212
277.81
278.406
278.994
279.566
280.113
280.623
281.083
281.479
273.259
273.783
274.321
274.873
275.436
276.011
276.593
277.181
277.77
278.355
278.93
279.488
280.018
280.511
280.954
281.335
273.258
273.782
274.319
274.869
275.43
276.002
276.58
277.163
277.746
278.324
278.89
279.438
279.957
280.438
280.869
281.239
273.258
273.782
274.32
274.87
275.43
276
276.577
277.157
277.737
278.311
278.873
279.415
279.929
280.404
280.829
281.193
273.273
273.826
274.395
274.981
275.584
276.206
276.845
277.502
278.175
278.861
279.557
280.257
280.951
281.626
282.261
282.826
273.27
273.816
274.378
274.955
275.55
276.16
276.787
277.429
278.084
278.748
279.418
280.087
280.744
281.378
281.967
282.486
273.267
273.807
274.362
274.932
275.518
276.119
276.734
277.361
277.999
278.643
279.288
279.927
280.55
281.145
281.692
282.17
273.264
273.799
274.348
274.912
275.491
276.083
276.687
277.302
277.925
278.55
279.173
279.786
280.379
280.939
281.45
281.894
273.262
273.793
274.338
274.897
275.469
276.054
276.65
277.255
277.864
278.474
279.078
279.669
280.236
280.768
281.251
281.668
273.261
273.789
274.331
274.887
275.455
276.035
276.625
277.221
277.821
278.418
279.008
279.581
280.129
280.64
281.101
281.498
273.26
273.787
274.328
274.882
275.449
276.026
276.611
277.202
277.795
278.384
278.963
279.525
280.06
280.556