/*--------------------------------*- C++ -*----------------------------------*\
| =========                 |                                                 |
| \\      /  F ield         | OpenFOAM: The Open Source CFD Toolbox           |
|  \\    /   O peration     | Version:  v1912                                 |
|   \\  /    A nd           | Website:  www.openfoam.com                      |
|    \\/     M anipulation  |                                                 |
\*---------------------------------------------------------------------------*/
FoamFile
{
    version     2.0;
    format      ascii;
    class       volVectorField;
    location    "0.98/fluid";
    object      U;
}
// * * * * * * * * * * * * * * * * * * * * * * * * * * * * * * * * * * * * * //

dimensions      [0 1 -1 0 0 0 0];


internalField   nonuniform List<vector> 
14592
(
(0.0877212 0.0173226 0.000569449)
(0.0718334 0.011935 0.00102666)
(0.0557853 0.00768557 0.000973784)
(0.0461318 0.00395471 0.000496154)
(0.0397598 0.00190459 -0.000349934)
(0.03602 0.000826594 -0.00146226)
(0.0336437 0.000336631 -0.00280979)
(0.0320679 0.000118256 -0.00441445)
(0.0307422 1.61635e-05 -0.00636254)
(0.0295802 -7.07283e-05 -0.00879685)
(0.0281031 -0.000191404 -0.0119588)
(0.0267936 -0.000451773 -0.0161323)
(0.0242773 -0.000847553 -0.0219624)
(0.0224506 -0.00173424 -0.0294412)
(0.0159679 -0.00213127 -0.0390099)
(0.00923194 -0.00489535 -0.0364396)
(0.103938 0.0182832 0.000813302)
(0.103189 0.0185524 0.00158068)
(0.0992221 0.015807 0.00170126)
(0.0942678 0.0114548 0.00114714)
(0.0894097 0.00781374 -0.000104152)
(0.0854298 0.00511995 -0.0019581)
(0.0821536 0.00340431 -0.00435134)
(0.0794101 0.00241711 -0.00728802)
(0.0767625 0.00191787 -0.0108813)
(0.0740781 0.0016823 -0.01536)
(0.0707028 0.0015411 -0.0211131)
(0.0669434 0.0012836 -0.0286382)
(0.0608451 0.000827332 -0.0388156)
(0.0540578 -0.00043492 -0.0514968)
(0.0387547 -0.00168794 -0.0657505)
(0.0226183 -0.00558383 -0.0593255)
(0.104002 0.0123649 0.000908125)
(0.10846 0.0174182 0.00181101)
(0.111426 0.017387 0.00203198)
(0.111888 0.0145694 0.00152017)
(0.111 0.0113505 0.00023447)
(0.109371 0.00851174 -0.00175485)
(0.107316 0.00646453 -0.00439352)
(0.105001 0.00520088 -0.00768774)
(0.102277 0.00458964 -0.0117516)
(0.0991236 0.00443367 -0.0168324)
(0.0949119 0.00454463 -0.0233491)
(0.0898255 0.00468135 -0.0318845)
(0.0816593 0.00470508 -0.0433881)
(0.0718663 0.00386376 -0.0579652)
(0.0512848 0.00227094 -0.0743731)
(0.0286362 -0.00274003 -0.0685243)
(0.102156 0.00796322 0.000949425)
(0.107022 0.0136114 0.00192409)
(0.112273 0.0151733 0.00220208)
(0.115594 0.0141529 0.00173004)
(0.117394 0.0121562 0.000474881)
(0.117837 0.0100724 -0.0014941)
(0.117237 0.00845719 -0.00412577)
(0.115835 0.00749164 -0.00743124)
(0.11362 0.00718847 -0.0115247)
(0.110664 0.00745692 -0.0166599)
(0.106375 0.00818717 -0.0232587)
(0.1009 0.00919692 -0.0319519)
(0.0918731 0.0103588 -0.043717)
(0.0806257 0.0108534 -0.0588934)
(0.0572858 0.00994552 -0.0762806)
(0.0308756 0.00339789 -0.0717614)
(0.101103 0.00514036 0.000978366)
(0.105066 0.00998679 0.00200284)
(0.11031 0.0121428 0.00232626)
(0.114558 0.0123506 0.00189344)
(0.117676 0.0115251 0.000682833)
(0.119444 0.0103956 -0.00122578)
(0.120013 0.00949221 -0.00377486)
(0.119556 0.0090852 -0.00697343)
(0.118085 0.00929425 -0.0109291)
(0.115707 0.0101379 -0.0158938)
(0.111853 0.0116028 -0.0222755)
(0.106676 0.0135984 -0.0307348)
(0.0976604 0.0160449 -0.0422384)
(0.0860437 0.0180442 -0.0573768)
(0.0611952 0.0180727 -0.0750012)
(0.0320572 0.00915456 -0.0718861)
(0.10062 0.00338611 0.00100492)
(0.103735 0.00705088 0.00207328)
(0.108409 0.00914776 0.00244372)
(0.112778 0.00999496 0.00205874)
(0.116456 0.0100424 0.000905807)
(0.11901 0.00979109 -0.000922491)
(0.120428 0.00966156 -0.00335764)
(0.120787 0.009935 -0.006401)
(0.120069 0.0107939 -0.0101472)
(0.118388 0.0123622 -0.0148388)
(0.115178 0.0147504 -0.0208582)
(0.110605 0.0180531 -0.0288847)
(0.102013 0.0223753 -0.0398428)
(0.0905874 0.0270093 -0.0546075)
(0.0648301 0.0299253 -0.0720455)
(0.033495 0.0192226 -0.0706445)
(0.100437 0.002163 0.001036)
(0.103051 0.00469369 0.00215109)
(0.107264 0.00645205 0.00257566)
(0.111564 0.00754427 0.00225126)
(0.115499 0.0081667 0.00117225)
(0.118549 0.00861557 -0.00055593)
(0.120602 0.00917969 -0.00284983)
(0.121675 0.0101025 -0.00569549)
(0.121738 0.0115833 -0.00916195)
(0.120932 0.0138174 -0.0134622)
(0.118753 0.0170039 -0.0189172)
(0.11546 0.0214114 -0.0261679)
(0.108406 0.0272888 -0.0359805)
(0.0988548 0.0341965 -0.0494669)
(0.0736832 0.0397496 -0.0652125)
(0.0413065 0.0270189 -0.06576)
(0.100377 0.00116676 0.00107221)
(0.102789 0.00262806 0.00223879)
(0.10681 0.00390679 0.0027238)
(0.111112 0.00501524 0.00246958)
(0.115236 0.00600791 0.00147663)
(0.11864 0.00700567 -0.000138658)
(0.121171 0.00816617 -0.00227825)
(0.122821 0.00967185 -0.00490905)
(0.123571 0.0117148 -0.00807118)
(0.123586 0.0145561 -0.0119413)
(0.122439 0.0184991 -0.0167738)
(0.120463 0.0241431 -0.0231562)
(0.115098 0.0321362 -0.031694)
(0.107853 0.0438547 -0.0437625)
(0.0841282 0.0579795 -0.0578595)
(0.0542387 0.062442 -0.0620407)
(0.0876892 0.0173257 0.000344536)
(0.0716478 0.011949 0.00061128)
(0.0553589 0.00769851 0.000509852)
(0.0454887 0.00396113 7.96646e-05)
(0.0389147 0.00190826 -0.000656086)
(0.0349882 0.000830327 -0.00163211)
(0.0324077 0.000343187 -0.00283365)
(0.0305803 0.000128645 -0.00428017)
(0.0289271 3.14568e-05 -0.00604421)
(0.0273185 -4.89706e-05 -0.0082122)
(0.0252782 -0.000155261 -0.0109662)
(0.0231601 -0.0003842 -0.014349)
(0.0198353 -0.000709221 -0.0187579)
(0.0165578 -0.00145678 -0.0231284)
(0.0101337 -0.00182139 -0.0271237)
(0.00258621 -0.0036014 -0.0178734)
(0.103895 0.0182988 0.00049369)
(0.102928 0.0185936 0.0009416)
(0.0986013 0.0158608 0.000909859)
(0.0932575 0.0115069 0.000349914)
(0.0879932 0.00786352 -0.000781051)
(0.083609 0.00517362 -0.00243271)
(0.0798973 0.00347303 -0.00457641)
(0.0766415 0.00251122 -0.00722845)
(0.0733476 0.00204719 -0.0104908)
(0.0698057 0.00185389 -0.0145197)
(0.0653244 0.00176837 -0.019608)
(0.0600452 0.00157652 -0.0259225)
(0.0522592 0.00120933 -0.0339536)
(0.042995 4.35153e-05 -0.042135)
(0.0272673 -0.00128818 -0.0484076)
(0.00986011 -0.00462826 -0.0310503)
(0.103961 0.0123908 0.000560223)
(0.108194 0.0174811 0.00109388)
(0.110782 0.0174799 0.00111862)
(0.110818 0.0146773 0.000569771)
(0.109467 0.0114696 -0.000610799)
(0.107362 0.00864852 -0.00239289)
(0.104789 0.00663519 -0.00475983)
(0.101868 0.00542522 -0.00773439)
(0.0983897 0.00488976 -0.0114228)
(0.0942472 0.00482783 -0.0160005)
(0.0887528 0.0050575 -0.0217807)
(0.0819191 0.00531952 -0.0289913)
(0.0717549 0.0054801 -0.0381374)
(0.0590851 0.00469758 -0.0476661)
(0.0378031 0.00292551 -0.054956)
(0.0137259 -0.00228003 -0.0353337)
(0.102119 0.00799026 0.000596187)
(0.106762 0.0136794 0.00118218)
(0.111639 0.0152833 0.00124731)
(0.114539 0.0142968 0.000726988)
(0.115878 0.0123323 -0.00043022)
(0.115842 0.0102894 -0.00219449)
(0.114716 0.00873611 -0.00455353)
(0.112699 0.00786118 -0.00753515)
(0.10972 0.00768494 -0.0112463)
(0.105763 0.00811718 -0.0158694)
(0.100165 0.0090606 -0.0217167)
(0.0929018 0.0103119 -0.0290517)
(0.0817837 0.011758 -0.0383775)
(0.0675187 0.0124098 -0.048245)
(0.0433209 0.0113591 -0.0559291)
(0.0152885 0.00388864 -0.0361144)
(0.101068 0.0051693 0.000627255)
(0.104811 0.01006 0.00125744)
(0.109689 0.0122671 0.00136299)
(0.113529 0.0125254 0.000879443)
(0.116204 0.0117528 -0.000234398)
(0.117517 0.0106882 -0.00194046)
(0.117586 0.00987526 -0.00422122)
(0.116547 0.00959568 -0.00710204)
(0.114348 0.00998278 -0.0106834)
(0.111018 0.0110619 -0.0151469)
(0.105903 0.0128421 -0.0207901)
(0.0989945 0.0152132 -0.0279019)
(0.0879022 0.0181275 -0.0369632)
(0.0732622 0.0204412 -0.0466958)
(0.047401 0.0204386 -0.0543711)
(0.0163624 0.00987778 -0.0351504)
(0.100586 0.00341756 0.000657369)
(0.103484 0.00713014 0.00133111)
(0.107799 0.00928508 0.00148267)
(0.111774 0.010196 0.00104671)
(0.115033 0.0103143 -9.4457e-06)
(0.117163 0.0101501 -0.00163789)
(0.11812 0.0101384 -0.00381109)
(0.117945 0.0105758 -0.00654664)
(0.116559 0.0116657 -0.00993276)
(0.114 0.0135494 -0.0141439)
(0.109612 0.0163768 -0.0194535)
(0.103415 0.0202396 -0.0261716)
(0.0928147 0.02532 -0.0347369)
(0.078452 0.0306076 -0.0441045)
(0.0515406 0.0339348 -0.0515685)
(0.0179956 0.0208859 -0.0334907)
(0.100404 0.00219857 0.000691037)
(0.102806 0.00478146 0.00141216)
(0.106668 0.00660338 0.00161752)
(0.110589 0.00776863 0.00124152)
(0.114132 0.0084753 0.000258304)
(0.116793 0.00902837 -0.00127427)
(0.118434 0.0097317 -0.00331505)
(0.119036 0.0108471 -0.00586732)
(0.118516 0.0126006 -0.00899708)
(0.11695 0.0152147 -0.012857)
(0.113747 0.0189415 -0.0176715)
(0.109056 0.0240657 -0.0237427)
(0.100213 0.0309497 -0.0314014)
(0.0880869 0.0388177 -0.0398944)
(0.0616465 0.0452089 -0.0464861)
(0.0268752 0.0294574 -0.0303215)
(0.100344 0.00120641 0.000727944)
(0.102549 0.0027238 0.0015003)
(0.106229 0.00407008 0.00176502)
(0.11017 0.00525747 0.00145768)
(0.113928 0.00634284 0.000558032)
(0.116979 0.00745617 -0.000867088)
(0.119148 0.00877035 -0.00276255)
(0.120397 0.0104887 -0.005115)
(0.120654 0.0128351 -0.00796482)
(0.12004 0.0161095 -0.0114374)
(0.118035 0.0206843 -0.0157035)
(0.114913 0.0272162 -0.0210481)
(0.108015 0.0365203 -0.027689)
(0.0986534 0.0497209 -0.035212)
(0.0736465 0.0656092 -0.0409695)
(0.0414289 0.0665256 -0.0278678)
(0.087665 0.0173286 0.000191454)
(0.0715061 0.0119607 0.000327763)
(0.0550245 0.00770987 0.00019706)
(0.0449643 0.00396767 -0.0001867)
(0.0381995 0.00191168 -0.000817542)
(0.0340842 0.000832984 -0.00165368)
(0.0312931 0.000347631 -0.00269105)
(0.0292062 0.000135291 -0.00394552)
(0.0272212 4.03062e-05 -0.00547659)
(0.0251581 -3.81598e-05 -0.0073341)
(0.0225515 -0.000139827 -0.00966044)
(0.0196147 -0.000355307 -0.0124098)
(0.0155012 -0.000654461 -0.0158786)
(0.0110227 -0.00133417 -0.01899)
(0.00510508 -0.0018034 -0.0213896)
(-0.0010494 -0.0031426 -0.01396)
(0.103861 0.0183144 0.000275666)
(0.102728 0.0186322 0.000505436)
(0.0981137 0.0159127 0.000375876)
(0.0924357 0.0115607 -0.000166737)
(0.0868025 0.00791686 -0.00116847)
(0.0820279 0.00523048 -0.00260461)
(0.0778847 0.0035432 -0.00446672)
(0.0741188 0.00260384 -0.00677485)
(0.0701925 0.00217135 -0.00961596)
(0.0658202 0.00201618 -0.0130932)
(0.0602991 0.00198011 -0.0174273)
(0.053613 0.00184545 -0.022637)
(0.0443883 0.00154565 -0.029035)
(0.0332669 0.000446931 -0.0349944)
(0.0180737 -0.0010244 -0.0385306)
(0.00268124 -0.00415559 -0.0238978)
(0.10393 0.0124177 0.000320956)
(0.107992 0.0175434 0.000601355)
(0.110279 0.0175725 0.000497538)
(0.109951 0.0147883 -5.48531e-05)
(0.108186 0.0115941 -0.0011141)
(0.105626 0.00879031 -0.0026728)
(0.102544 0.00680841 -0.00473368)
(0.0990263 0.00564753 -0.00732555)
(0.0948126 0.00518217 -0.0105411)
(0.0897177 0.00520813 -0.0145019)
(0.0830232 0.00554957 -0.0194422)
(0.0745832 0.00593006 -0.025427)
(0.0627136 0.00621661 -0.0327567)
(0.0478666 0.00548569 -0.0397577)
(0.0269532 0.00353593 -0.043875)
(0.0050535 -0.00193991 -0.0270443)
(0.102092 0.00801965 0.000351103)
(0.106565 0.0137496 0.000668618)
(0.111148 0.0153956 0.000591994)
(0.11369 0.0144446 5.90691e-05)
(0.114616 0.012513 -0.000983011)
(0.114124 0.0105096 -0.00252776)
(0.112484 0.00901387 -0.00458162)
(0.109862 0.00822216 -0.00717891)
(0.106136 0.00816281 -0.0104136)
(0.101212 0.00874592 -0.0144149)
(0.0943845 0.00988578 -0.0194154)
(0.0854694 0.011357 -0.0255108)
(0.0725452 0.0130586 -0.0329921)
(0.0559554 0.0138485 -0.0402559)
(0.0319646 0.0126823 -0.0446139)
(0.00605612 0.0044404 -0.0275377)
(0.101043 0.00520079 0.000381228)
(0.104621 0.0101362 0.000736532)
(0.109211 0.0123938 0.000694209)
(0.112706 0.0127023 0.000194045)
(0.114985 0.0119817 -0.000808446)
(0.115863 0.0109792 -0.00230013)
(0.115443 0.0102507 -0.00428318)
(0.113827 0.010089 -0.00679012)
(0.110916 0.0106406 -0.00990937)
(0.10666 0.0119368 -0.0137705)
(0.100353 0.0140073 -0.0185937)
(0.0918319 0.0167197 -0.0244998)
(0.0789225 0.0200576 -0.0317595)
(0.0619205 0.0226564 -0.0389147)
(0.0360955 0.0226829 -0.0432651)
(0.00698703 0.0108825 -0.0267082)
(0.100561 0.00345081 0.000411546)
(0.103299 0.00721117 0.000807417)
(0.107334 0.00942275 0.000807381)
(0.110977 0.0103952 0.000351578)
(0.113861 0.010582 -0.000597233)
(0.115585 0.0105006 -0.00201743)
(0.116088 0.0105992 -0.00390316)
(0.115381 0.0111887 -0.00628014)
(0.113336 0.0124927 -0.00922595)
(0.10992 0.014667 -0.0128653)
(0.104412 0.0178979 -0.0173981)
(0.0966926 0.022268 -0.0229681)
(0.084317 0.0280317 -0.0298132)
(0.0676389 0.0339068 -0.0366809)
(0.0405912 0.0376811 -0.0409068)
(0.00869505 0.0229993 -0.0253586)
(0.10038 0.00223453 0.000444791)
(0.102625 0.00486846 0.000885628)
(0.106216 0.00675145 0.000935891)
(0.109821 0.00798626 0.000535866)
(0.11301 0.00877354 -0.000345668)
(0.1153 0.00942528 -0.00167811)
(0.116531 0.0102592 -0.00344481)
(0.116661 0.0115545 -0.00565931)
(0.115558 0.0135624 -0.00838052)
(0.113243 0.0165293 -0.0117177)
(0.109052 0.0207574 -0.0158326)
(0.10303 0.0265403 -0.0208755)
(0.092576 0.03435 -0.0270102)
(0.0783918 0.0431165 -0.0332575)
(0.0516224 0.0504184 -0.0370018)
(0.0181106 0.0327315 -0.02312)
(0.100321 0.00124478 0.000480055)
(0.102373 0.00281571 0.000969047)
(0.105792 0.00422597 0.00107461)
(0.109432 0.0054879 0.000738086)
(0.112862 0.00666122 -6.66388e-05)
(0.115576 0.00788362 -0.00130124)
(0.117382 0.00934228 -0.00293733)
(0.118223 0.0112603 -0.00497415)
(0.117985 0.0138914 -0.00744915)
(0.116741 0.0175704 -0.0104513)
(0.113903 0.0227359 -0.0141)
(0.109679 0.0300907 -0.0185439)
(0.101394 0.0406192 -0.0238678)
(0.0903449 0.0552243 -0.0294047)
(0.0648924 0.0730181 -0.0326951)
(0.0337755 0.0721413 -0.0213006)
(0.0876467 0.0173312 9.20836e-05)
(0.0713981 0.0119705 0.000145033)
(0.0547651 0.00771973 5.76495e-06)
(0.0445489 0.00397377 -0.000324536)
(0.0376225 0.00191503 -0.000847544)
(0.0333471 0.000836208 -0.00153573)
(0.0303848 0.000353355 -0.00238901)
(0.0281019 0.000144813 -0.00341602)
(0.0258939 5.52506e-05 -0.00465664)
(0.0235601 -1.47495e-05 -0.00612374)
(0.0206881 -0.000100089 -0.00789946)
(0.01743 -0.000278921 -0.0098644)
(0.0132081 -0.000508106 -0.0121549)
(0.00859911 -0.00103208 -0.0137948)
(0.0034442 -0.00140393 -0.0143521)
(-0.00140185 -0.00241782 -0.00841915)
(0.103835 0.0183286 0.000133793)
(0.102574 0.0186665 0.000224226)
(0.0977338 0.0159594 4.70714e-05)
(0.0917832 0.0116106 -0.000447312)
(0.0858388 0.00796735 -0.00130064)
(0.0807313 0.00528515 -0.00250002)
(0.0762262 0.00361072 -0.0040453)
(0.0720516 0.00269315 -0.00595122)
(0.0676577 0.00229287 -0.00827913)
(0.062727 0.00218081 -0.011077)
(0.0566091 0.00220766 -0.0144731)
(0.0492369 0.00216481 -0.0183628)
(0.0395934 0.00200651 -0.0228365)
(0.0281841 0.00113363 -0.0263904)
(0.014238 -0.000161224 -0.0271802)
(0.00115283 -0.00308569 -0.015233)
(0.103907 0.0124429 0.00016349)
(0.107837 0.0176005 0.000280899)
(0.109888 0.0176573 0.000109949)
(0.109264 0.0148913 -0.00040588)
(0.107149 0.0117107 -0.00131771)
(0.104203 0.00892346 -0.00262665)
(0.100692 0.00697018 -0.00434255)
(0.0966881 0.00585392 -0.006489)
(0.0919175 0.00545378 -0.00913316)
(0.086162 0.0055656 -0.0123387)
(0.0787459 0.00602454 -0.0162413)
(0.0694829 0.00655229 -0.020766)
(0.0570456 0.00703721 -0.0259701)
(0.0417966 0.00653115 -0.0302547)
(0.0222117 0.00474189 -0.0312321)
(0.00304364 -0.000827141 -0.0172844)
(0.102071 0.00804802 0.000187734)
(0.106416 0.0138157 0.000330618)
(0.110769 0.0155003 0.000176981)
(0.113019 0.0145824 -0.000326536)
(0.1136 0.0126817 -0.00122645)
(0.112719 0.010714 -0.00252513)
(0.110645 0.00926925 -0.00423587)
(0.107529 0.0085506 -0.00638747)
(0.103237 0.00859449 -0.00904865)
(0.0976418 0.00931273 -0.0122903)
(0.0900732 0.0106329 -0.0162456)
(0.0803137 0.0123189 -0.0208626)
(0.0667795 0.0142922 -0.0261809)
(0.0497473 0.0153193 -0.0306344)
(0.0270519 0.0142737 -0.0316816)
(0.00395415 0.00555304 -0.0174159)
(0.101023 0.00523129 0.000214706)
(0.104477 0.0102083 0.000388573)
(0.108844 0.0125123 0.00026274)
(0.112059 0.0128668 -0.000213367)
(0.114007 0.0121936 -0.00107905)
(0.114515 0.0112462 -0.00233202)
(0.113682 0.0105913 -0.00398222)
(0.111597 0.010531 -0.00605737)
(0.108147 0.0112235 -0.00862177)
(0.103255 0.0127044 -0.0117474)
(0.0962407 0.0150208 -0.0155576)
(0.0869147 0.0180234 -0.0200206)
(0.0734068 0.021724 -0.0251583)
(0.0559705 0.0246058 -0.0295105)
(0.0313579 0.0247658 -0.0305168)
(0.00497957 0.012164 -0.0166352)
(0.100543 0.00348261 0.000242606)
(0.103159 0.00728735 0.00045202)
(0.106978 0.00955051 0.000362772)
(0.110353 0.0105787 -7.45546e-05)
(0.112924 0.0108267 -0.000893073)
(0.114303 0.0108179 -0.00208411)
(0.114423 0.0110115 -0.00365095)
(0.113285 0.0117299 -0.0056161)
(0.110745 0.0132119 -0.00803515)
(0.106747 0.0156223 -0.0109772)
(0.100588 0.019172 -0.0145502)
(0.092132 0.0239262 -0.0187435)
(0.0791938 0.0301816 -0.0235566)
(0.0621197 0.0364492 -0.0276897)
(0.0361801 0.0404732 -0.0286305)
(0.00684335 0.0247176 -0.015552)
(0.100362 0.00226808 0.000272939)
(0.10249 0.00494882 0.000522356)
(0.105872 0.006887 0.000477292)
(0.109222 0.00818416 8.8982e-05)
(0.112119 0.00904272 -0.000670825)
(0.11409 0.00978038 -0.00178645)
(0.114975 0.010726 -0.00325223)
(0.114721 0.0121719 -0.0050815)
(0.113182 0.0143876 -0.0073157)
(0.110362 0.0176329 -0.0100146)
(0.105605 0.0222408 -0.0132604)
(0.0989594 0.0284914 -0.0170581)
(0.0880167 0.0369111 -0.0213681)
(0.0735316 0.0461915 -0.0251179)
(0.0477132 0.0538911 -0.0259057)
(0.0164695 0.0349451 -0.0141683)
(0.100304 0.00127962 0.000304511)
(0.102243 0.00289885 0.000596574)
(0.105462 0.00436639 0.000600107)
(0.108861 0.00569437 0.000267399)
(0.112018 0.00694498 -0.000425744)
(0.114443 0.00826193 -0.00145742)
(0.115941 0.00984329 -0.00281247)
(0.116449 0.0119267 -0.00449323)
(0.115838 0.0147864 -0.00652493)
(0.114173 0.0187756 -0.00895464)
(0.110867 0.024369 -0.0118365)
(0.10615 0.0322667 -0.0151867)
(0.0974718 0.0435188 -0.0189281)
(0.0862534 0.058774 -0.0222494)
(0.0616214 0.077183 -0.0229629)
(0.0324942 0.0748247 -0.0131396)
(0.0876325 0.0173334 3.28196e-05)
(0.0713154 0.0119782 3.84229e-05)
(0.0545646 0.00772748 -9.09064e-05)
(0.0442223 0.00397827 -0.000359684)
(0.0371618 0.00191708 -0.000772181)
(0.03275 0.000837747 -0.00131097)
(0.029641 0.000356262 -0.00197787)
(0.0271911 0.000149771 -0.00277787)
(0.0247967 6.28474e-05 -0.00373841)
(0.0222408 -3.32146e-06 -0.00485821)
(0.0191578 -8.1052e-05 -0.00618881)
(0.015659 -0.000240491 -0.00761559)
(0.0113742 -0.000433979 -0.00921129)
(0.00675689 -0.000865604 -0.0102536)
(0.00223869 -0.00118667 -0.010362)
(-0.00156841 -0.00206917 -0.00610672)
(0.103815 0.0183406 4.88688e-05)
(0.102456 0.0186949 6.01279e-05)
(0.0974394 0.0159985 -0.000122665)
(0.0912706 0.0116527 -0.000540777)
(0.0850707 0.00801032 -0.00122783)
(0.0796841 0.00533166 -0.00217775)
(0.0748733 0.0036676 -0.00339395)
(0.070355 0.00276758 -0.00488748)
(0.0655748 0.00239327 -0.00670179)
(0.060194 0.00231582 -0.00885821)
(0.0536142 0.00239276 -0.0114342)
(0.0457428 0.00242187 -0.0143086)
(0.035852 0.00237192 -0.0174915)
(0.0243976 0.00166341 -0.0198274)
(0.0115743 0.000491754 -0.0198575)
(0.000384717 -0.00240516 -0.0110464)
(0.103889 0.0124648 6.74535e-05)
(0.107718 0.0176491 9.09067e-05)
(0.109585 0.0177296 -9.62756e-05)
(0.108725 0.0149795 -0.000539471)
(0.106324 0.011811 -0.00127949)
(0.103054 0.00903829 -0.00232094)
(0.0991822 0.00710911 -0.00367539)
(0.0947698 0.00603011 -0.00536167)
(0.089538 0.00568453 -0.00742843)
(0.0832478 0.00586838 -0.00990951)
(0.0752693 0.00642604 -0.0128864)
(0.0654022 0.00707766 -0.016257)
(0.0526115 0.00772979 -0.0199953)
(0.0372653 0.00740759 -0.0228543)
(0.0189036 0.00574407 -0.0229256)
(0.00200899 7.66179e-06 -0.0125525)
(0.102054 0.00807306 8.5944e-05)
(0.106302 0.0138732 0.000126167)
(0.110476 0.0155908 -5.0672e-05)
(0.112494 0.0147017 -0.000486571)
(0.112792 0.0128276 -0.00121887)
(0.111586 0.0108905 -0.0022533)
(0.109147 0.00948864 -0.00360448)
(0.105616 0.00883099 -0.00529574)
(0.100853 0.00896087 -0.00737743)
(0.0947128 0.00979145 -0.00988975)
(0.0865634 0.0112611 -0.0129125)
(0.0761795 0.0131245 -0.0163611)
(0.062255 0.0153216 -0.0201937)
(0.0450967 0.0165438 -0.0231814)
(0.0236061 0.0156013 -0.0232801)
(0.00286497 0.00645862 -0.0126446)
(0.101008 0.0052584 0.000108238)
(0.104368 0.0102716 0.000172493)
(0.108562 0.0126153 1.70285e-05)
(0.111554 0.0130093 -0.000397234)
(0.113232 0.0123767 -0.00110202)
(0.113431 0.0114761 -0.00209957)
(0.112249 0.0108832 -0.00340223)
(0.10977 0.0109075 -0.0050328)
(0.105871 0.0117172 -0.00703842)
(0.10046 0.013351 -0.00946088)
(0.0928896 0.0158698 -0.012373)
(0.0829662 0.0191097 -0.0157069)
(0.0690708 0.0231045 -0.0194086)
(0.0515073 0.0262182 -0.0223281)
(0.028032 0.0264961 -0.0224066)
(0.00396096 0.0132651 -0.0120684)
(0.100528 0.00351076 0.000131769)
(0.103054 0.00735403 0.000225045)
(0.106707 0.0096614 9.92083e-05)
(0.109869 0.0107372 -0.000283458)
(0.112184 0.0110373 -0.0009497)
(0.113274 0.0110899 -0.00189696)
(0.113071 0.0113631 -0.00313255)
(0.111569 0.0121888 -0.00467544)
(0.108616 0.0138183 -0.00656618)
(0.104143 0.0164228 -0.00884499)
(0.0974707 0.0202319 -0.0115738)
(0.0884688 0.0252951 -0.0147024)
(0.0751659 0.0319389 -0.0181637)
(0.0579842 0.0385167 -0.0209289)
(0.0330922 0.042738 -0.020987)
(0.00593652 0.0261924 -0.0112662)
(0.100348 0.0022974 0.000157261)
(0.102389 0.00501851 0.000283596)
(0.105611 0.0070038 0.000193935)
(0.108759 0.00835407 -0.000148703)
(0.111416 0.00927308 -0.000767039)
(0.113122 0.0100832 -0.00165336)
(0.113713 0.0111225 -0.00280813)
(0.113134 0.0126939 -0.00424357)
(0.11123 0.0150818 -0.00598981)
(0.107994 0.0185558 -0.00808129)
(0.102789 0.0234723 -0.0105628)
(0.0956788 0.0300986 -0.0133996)
(0.084418 0.0389987 -0.0165045)
(0.0698745 0.0486858 -0.0190189)
(0.0449724 0.0566971 -0.0190435)
(0.0156908 0.0368695 -0.0103182)
(0.100291 0.00130959 0.000183506)
(0.102146 0.0029701 0.000345019)
(0.105212 0.00448632 0.000295201)
(0.10842 0.00587038 -2.01345e-06)
(0.111356 0.00718632 -0.000566101)
(0.113539 0.00858286 -0.00138473)
(0.114776 0.0102672 -0.00245097)
(0.115 0.0124884 -0.00376886)
(0.114075 0.0155374 -0.00535655)
(0.112063 0.019781 -0.00724018)
(0.108386 0.0257212 -0.00944546)
(0.103301 0.0340532 -0.0119502)
(0.0943742 0.0458717 -0.0146491)
(0.0831755 0.0616399 -0.0168785)
(0.0593415 0.0805295 -0.0169335)
(0.0319459 0.077252 -0.00959725)
(0.0876222 0.017335 3.38217e-06)
(0.0712561 0.0119842 -1.11416e-05)
(0.0544198 0.00773336 -0.000114668)
(0.0439846 0.00398184 -0.000312913)
(0.036825 0.00191893 -0.000609831)
(0.0323133 0.000839502 -0.000994436)
(0.0291007 0.000359606 -0.00146801)
(0.0265394 0.000155719 -0.0020318)
(0.0240315 7.26239e-05 -0.00270105)
(0.0213547 1.243e-05 -0.00346565)
(0.0181836 -5.46504e-05 -0.00434975)
(0.0146092 -0.000192528 -0.00525647)
(0.0103856 -0.000349204 -0.00620997)
(0.00588987 -0.000707961 -0.00672792)
(0.00174577 -0.000968083 -0.00651974)
(-0.00151251 -0.00179336 -0.00368338)
(0.1038 0.0183501 6.32108e-06)
(0.102371 0.018717 -1.63913e-05)
(0.097226 0.0160287 -0.000170796)
(0.0908958 0.0116856 -0.000487331)
(0.084506 0.00804439 -0.000989851)
(0.078912 0.00536896 -0.00167512)
(0.0738784 0.00371353 -0.00254602)
(0.069118 0.0028282 -0.00360827)
(0.0640815 0.00247604 -0.00488739)
(0.0584242 0.00242908 -0.00638575)
(0.0515967 0.0025511 -0.00813901)
(0.043504 0.00264605 -0.0100341)
(0.0336014 0.00269554 -0.0120334)
(0.0223272 0.0021292 -0.013339)
(0.0102544 0.00107962 -0.012905)
(0.000198196 -0.00184903 -0.00689816)
(0.103876 0.012482 1.72217e-05)
(0.107632 0.0176872 -1.40977e-06)
(0.109366 0.0177861 -0.000163859)
(0.108331 0.0150487 -0.000502872)
(0.105717 0.0118902 -0.00104739)
(0.102206 0.00912913 -0.00180165)
(0.0980685 0.00721904 -0.0027746)
(0.0933645 0.0061695 -0.00397789)
(0.0878194 0.00586743 -0.00544105)
(0.08119 0.00610965 -0.00717534)
(0.0728926 0.0067487 -0.00921809)
(0.0627357 0.00750556 -0.0114667)
(0.0498752 0.00830295 -0.0138518)
(0.0347041 0.0081465 -0.0154978)
(0.0172011 0.0066109 -0.0150274)
(0.00170946 0.000711247 -0.0078933)
(0.102043 0.00809309 3.01866e-05)
(0.10622 0.0139188 2.19152e-05)
(0.110264 0.0156622 -0.00013486)
(0.112111 0.0147957 -0.000469952)
(0.112198 0.0129428 -0.00100987)
(0.110751 0.0110296 -0.0017598)
(0.108043 0.00966087 -0.00273105)
(0.104215 0.00905012 -0.00393879)
(0.0991306 0.00924612 -0.005414)
(0.0926426 0.0101633 -0.00717285)
(0.0841612 0.0117488 -0.00925142)
(0.0734751 0.0137517 -0.0115589)
(0.059461 0.0161268 -0.0140129)
(0.0424697 0.0175135 -0.0157448)
(0.0218371 0.0166728 -0.0152726)
(0.0025577 0.00720328 -0.00793357)
(0.100998 0.00528016 4.67534e-05)
(0.10429 0.010322 5.55621e-05)
(0.108359 0.0126969 -8.61684e-05)
(0.111187 0.0131219 -0.000405712)
(0.112663 0.0125209 -0.00092555)
(0.112632 0.0116564 -0.00164856)
(0.111194 0.0111107 -0.0025846)
(0.108433 0.0111991 -0.00374865)
(0.104229 0.0120968 -0.00516963)
(0.0984898 0.0138447 -0.00686519)
(0.0906043 0.0165135 -0.00886692)
(0.0803981 0.0199288 -0.0110961)
(0.0664166 0.0241393 -0.0134624)
(0.0490219 0.0274282 -0.0151494)
(0.0263601 0.0277994 -0.0146661)
(0.00371542 0.014113 -0.007532)
(0.100518 0.00353328 6.44869e-05)
(0.102979 0.00740706 9.47041e-05)
(0.106511 0.00974912 -2.53156e-05)
(0.109517 0.0108621 -0.000321576)
(0.111642 0.0112025 -0.000812978)
(0.112517 0.0113021 -0.00149907)
(0.112077 0.0116355 -0.00238626)
(0.110315 0.0125412 -0.00348699)
(0.107083 0.0142792 -0.0048257)
(0.102312 0.0170242 -0.0064194)
(0.0953548 0.0210175 -0.00829275)
(0.086104 0.0262948 -0.01038)
(0.0727292 0.0331991 -0.0125844)
(0.0557256 0.0399781 -0.0141723)
(0.0315848 0.0443071 -0.0136934)
(0.00577026 0.0272142 -0.00699163)
(0.100339 0.00232067 8.36714e-05)
(0.102316 0.0050736 0.000138495)
(0.105424 0.00709575 4.5246e-05)
(0.108424 0.00848724 -0.000221445)
(0.110903 0.00945282 -0.000677614)
(0.112411 0.0103181 -0.00131918)
(0.112787 0.0114277 -0.00214789)
(0.111976 0.0130918 -0.00317167)
(0.109824 0.0156047 -0.00440815)
(0.10633 0.019241 -0.00587126)
(0.10088 0.0243703 -0.00757564)
(0.0935665 0.0312464 -0.0094684)
(0.0822539 0.0404508 -0.0114454)
(0.0679007 0.0503783 -0.0128884)
(0.0436649 0.0585338 -0.0124415)
(0.0155938 0.0381158 -0.00642227)
(0.100282 0.00133313 0.000103292)
(0.102077 0.00302597 0.000184283)
(0.105034 0.00458009 0.000120561)
(0.108102 0.00600755 -0.000112588)
(0.110873 0.00737362 -0.000528908)
(0.112876 0.0088305 -0.00112113)
(0.113921 0.0105917 -0.00188586)
(0.113942 0.0129141 -0.00282559)
(0.112805 0.0160988 -0.00395007)
(0.110578 0.0205196 -0.00526864)
(0.106702 0.0266927 -0.00678487)
(0.101468 0.0353021 -0.00845736)
(0.0925199 0.0474585 -0.0101775)
(0.081534 0.0635011 -0.0114589)
(0.0582891 0.0825776 -0.0111016)
(0.0319552 0.0787216 -0.00602012)
(0.0876154 0.0173361 -5.74193e-06)
(0.071217 0.0119881 -2.25775e-05)
(0.0543242 0.00773715 -8.86627e-05)
(0.0438266 0.00398405 -0.000210856)
(0.0365997 0.00191987 -0.000390314)
(0.0320195 0.000840188 -0.000621813)
(0.0287355 0.000361071 -0.000906044)
(0.0260976 0.000158501 -0.00124341)
(0.0235125 7.72823e-05 -0.00164216)
(0.0207546 1.99629e-05 -0.0020942)
(0.0175256 -4.18733e-05 -0.0026115)
(0.0139063 -0.000168671 -0.00313415)
(0.00972766 -0.000306369 -0.003671)
(0.00532639 -0.000628027 -0.00394777)
(0.00143518 -0.000859429 -0.00378498)
(-0.0014852 -0.00165935 -0.00214838)
(0.103791 0.0183565 -7.80082e-06)
(0.102315 0.018732 -3.35867e-05)
(0.0970849 0.0160491 -0.00013584)
(0.0906467 0.0117081 -0.000333552)
(0.0841286 0.0080676 -0.000640494)
(0.0783933 0.00539433 -0.00105556)
(0.0732072 0.00374467 -0.00158076)
(0.0682817 0.00286916 -0.00221933)
(0.0630718 0.00253182 -0.00298549)
(0.0572308 0.0025052 -0.00387762)
(0.0502431 0.00265712 -0.00491262)
(0.0420174 0.00279515 -0.00601753)
(0.0321252 0.00290861 -0.00715933)
(0.0210046 0.00242917 -0.00787284)
(0.0094379 0.0014476 -0.00753052)
(9.78813e-05 -0.00152299 -0.00401923)
(0.103867 0.0124939 -1.98992e-06)
(0.107575 0.0177134 -2.73568e-05)
(0.109221 0.0178248 -0.000136658)
(0.108069 0.0150963 -0.000349517)
(0.105311 0.0119447 -0.000683411)
(0.101636 0.00919173 -0.00114135)
(0.0973171 0.00729474 -0.00172917)
(0.0924139 0.0062654 -0.0024538)
(0.0866564 0.00599313 -0.00333203)
(0.0798004 0.00627539 -0.00436763)
(0.071295 0.00697013 -0.00557824)
(0.0609603 0.00779871 -0.00689627)
(0.0480751 0.00869411 -0.00826821)
(0.0330607 0.00864626 -0.00917822)
(0.016145 0.00718856 -0.00879815)
(0.00154129 0.0011574 -0.00460552)
(0.102035 0.00810701 5.6112e-06)
(0.106166 0.0139503 -1.40191e-05)
(0.110124 0.0157116 -0.000120655)
(0.111857 0.0148607 -0.000331646)
(0.111801 0.0130224 -0.00066318)
(0.11019 0.0111257 -0.00111878)
(0.107298 0.00977971 -0.00170585)
(0.103267 0.00920104 -0.00243348)
(0.0979643 0.0094422 -0.00331949)
(0.0912434 0.0104185 -0.00437073)
(0.0825443 0.0120828 -0.00560429)
(0.0716709 0.0141803 -0.00695953)
(0.0576179 0.0166752 -0.00837514)
(0.0407784 0.018171 -0.00933743)
(0.0207357 0.017394 -0.00895357)
(0.00238439 0.00769364 -0.00463244)
(0.10099 0.00529536 1.58076e-05)
(0.104238 0.0103571 6.35529e-06)
(0.108225 0.0127534 -9.13648e-05)
(0.110943 0.0131997 -0.000292995)
(0.112284 0.0126206 -0.000612322)
(0.112096 0.011781 -0.0010515)
(0.110483 0.0112677 -0.00161718)
(0.107528 0.0113999 -0.0023184)
(0.103117 0.0123577 -0.00317184)
(0.0971572 0.0141832 -0.00418537)
(0.0890649 0.0169537 -0.00537371)
(0.0786828 0.0204875 -0.00668351)
(0.0646633 0.0248425 -0.00804961)
(0.0474193 0.0282485 -0.00898839)
(0.0253176 0.0286795 -0.00860266)
(0.00357913 0.0146847 -0.0044032)
(0.100511 0.00354902 2.68123e-05)
(0.102929 0.00744395 3.04757e-05)
(0.106383 0.00980994 -5.39623e-05)
(0.109284 0.0109485 -0.000241353)
(0.111282 0.0113166 -0.000543243)
(0.11201 0.0114485 -0.000959834)
(0.111407 0.0118231 -0.00149577)
(0.109468 0.0127834 -0.0021586)
(0.106045 0.0145952 -0.00296239)
(0.101074 0.0174354 -0.0039147)
(0.0939293 0.0215527 -0.00502647)
(0.0845242 0.0269735 -0.00625203)
(0.0711195 0.0340502 -0.0075237)
(0.0542701 0.0409623 -0.00840574)
(0.0306468 0.045359 -0.00802866)
(0.00568401 0.0279061 -0.00408638)
(0.100332 0.00233687 3.87131e-05)
(0.102269 0.00511182 5.75214e-05)
(0.105301 0.00715939 -1.04743e-05)