/*--------------------------------*- C++ -*----------------------------------*\
| =========                 |                                                 |
| \\      /  F ield         | OpenFOAM: The Open Source CFD Toolbox           |
|  \\    /   O peration     | Version:  v1912                                 |
|   \\  /    A nd           | Website:  www.openfoam.com                      |
|    \\/     M anipulation  |                                                 |
\*---------------------------------------------------------------------------*/
FoamFile
{
    version     2.0;
    format      ascii;
    class       volVectorField;
    location    "0.62/solid";
    object      D;
}
// * * * * * * * * * * * * * * * * * * * * * * * * * * * * * * * * * * * * * //

dimensions      [0 1 0 0 0 0 0];


internalField   nonuniform List<vector> 
256
(
(2.46172e-08 3.62514e-08 2.65917e-08)
(2.88215e-09 2.10481e-08 2.40804e-08)
(-2.5507e-09 2.07685e-08 2.4067e-08)
(-2.36551e-08 3.50436e-08 2.6625e-08)
(3.96967e-08 2.81974e-08 4.99436e-08)
(7.78589e-09 1.92158e-08 4.66555e-08)
(-6.11768e-09 1.87131e-08 4.67577e-08)
(-3.71952e-08 2.64867e-08 5.03358e-08)
(4.17275e-08 1.51945e-08 6.21141e-08)
(9.15079e-09 1.16656e-08 5.86232e-08)
(-5.85608e-09 1.09983e-08 5.88382e-08)
(-3.7614e-08 1.30838e-08 6.28313e-08)
(4.1375e-08 4.05612e-09 7.13932e-08)
(9.3296e-09 2.10776e-09 6.75978e-08)
(-4.22596e-09 1.30081e-09 6.78947e-08)
(-3.54592e-08 1.56192e-09 7.23487e-08)
(4.22652e-08 -6.27899e-09 8.05974e-08)
(9.97167e-09 -8.8796e-09 7.64486e-08)
(-2.88586e-09 -9.81805e-09 7.68041e-08)
(-3.43592e-08 -9.14077e-09 8.17269e-08)
(4.61938e-08 -1.75332e-08 9.11795e-08)
(1.19062e-08 -2.14085e-08 8.67017e-08)
(-2.66972e-09 -2.24792e-08 8.71016e-08)
(-3.61355e-08 -2.07574e-08 9.24423e-08)
(5.51461e-08 -3.51093e-08 1.04258e-07)
(1.56495e-08 -3.8304e-08 9.97876e-08)
(-4.12311e-09 -3.94961e-08 1.00221e-07)
(-4.28181e-08 -3.86735e-08 1.05622e-07)
(6.82619e-08 -8.25731e-08 1.1811e-07)
(1.97751e-08 -7.95316e-08 1.14424e-07)
(-5.93495e-09 -8.06404e-08 1.14874e-07)
(-5.36143e-08 -8.5982e-08 1.19526e-07)
(1.73171e-08 1.67854e-08 4.56521e-09)
(1.42342e-09 4.30817e-09 5.72325e-09)
(-1.19383e-09 4.09665e-09 5.82558e-09)
(-1.64483e-08 1.57856e-08 4.86256e-09)
(2.81716e-08 1.21304e-08 1.8911e-08)
(4.92858e-09 4.59701e-09 2.11594e-08)
(-3.55514e-09 4.10455e-09 2.13887e-08)
(-2.5983e-08 1.0486e-08 1.95762e-08)
(2.93442e-08 3.82572e-09 3.05834e-08)
(5.92627e-09 7.49292e-10 3.32114e-08)
(-3.10104e-09 6.85494e-11 3.35382e-08)
(-2.57321e-08 1.71618e-09 3.15326e-08)
(2.87386e-08 -4.94874e-09 3.97375e-08)
(6.02669e-09 -6.75315e-09 4.24289e-08)
(-1.53764e-09 -7.5757e-09 4.2831e-08)
(-2.34699e-08 -7.45499e-09 4.09075e-08)
(2.93991e-08 -1.41527e-08 4.81656e-08)
(6.6055e-09 -1.66907e-08 5.08066e-08)
(-2.50094e-10 -1.76417e-08 5.12656e-08)
(-2.22489e-08 -1.70262e-08 4.95035e-08)
(3.31399e-08 -2.41682e-08 5.69467e-08)
(8.47762e-09 -2.8048e-08 5.95111e-08)
(-6.26646e-11 -2.91276e-08 6.00131e-08)
(-2.39171e-08 -2.74011e-08 5.84112e-08)
(4.2165e-08 -3.81976e-08 6.56671e-08)
(1.22045e-08 -4.13553e-08 6.82118e-08)
(-1.56781e-09 -4.2552e-08 6.87424e-08)
(-3.07299e-08 -4.17636e-08 6.72171e-08)
(5.58521e-08 -7.67166e-08 7.06329e-08)
(1.63446e-08 -7.29167e-08 7.32272e-08)
(-3.43496e-09 -7.40224e-08 7.37657e-08)
(-4.21387e-08 -8.0108e-08 7.22105e-08)
(1.24599e-08 1.0889e-08 2.17315e-09)
(1.6301e-10 3.67946e-10 3.69872e-09)
(-3.1559e-11 1.84075e-10 3.77613e-09)
(-1.17062e-08 1.00036e-08 2.39398e-09)
(2.02777e-08 3.91817e-09 1.16637e-08)
(2.35929e-09 -2.36959e-09 1.45395e-08)
(-1.26768e-09 -2.82822e-09 1.47214e-08)
(-1.83855e-08 2.40543e-09 1.21845e-08)
(2.09177e-08 -3.98774e-09 2.1772e-08)
(3.01042e-09 -6.63588e-09 2.50861e-08)
(-6.24257e-10 -7.2895e-09 2.53447e-08)
(-1.77574e-08 -5.98986e-09 2.25176e-08)
(2.02605e-08 -1.15142e-08 3.06738e-08)
(3.05224e-09 -1.32265e-08 3.40955e-08)
(8.66841e-10 -1.40284e-08 3.4415e-08)
(-1.55725e-08 -1.39369e-08 3.16003e-08)
(2.08724e-08 -1.91084e-08 3.85997e-08)
(3.58802e-09 -2.16502e-08 4.20304e-08)
(2.091e-09 -2.25843e-08 4.23987e-08)
(-1.44046e-08 -2.19152e-08 3.96714e-08)
(2.46116e-08 -2.68511e-08 4.58092e-08)
(5.41857e-09 -3.07631e-08 4.92188e-08)
(2.23595e-09 -3.18274e-08 4.96246e-08)
(-1.61475e-08 -3.0028e-08 4.69926e-08)
(3.37545e-08 -3.75099e-08 5.14041e-08)
(9.1332e-09 -4.07021e-08 5.47855e-08)
(6.78506e-10 -4.18832e-08 5.5215e-08)
(-2.31332e-08 -4.10239e-08 5.26602e-08)
(4.7539e-08 -7.16024e-08 5.30154e-08)
(1.32698e-08 -6.78252e-08 5.63954e-08)
(-1.23513e-09 -6.89126e-08 5.68284e-08)
(-3.46811e-08 -7.49347e-08 5.42882e-08)
(1.0285e-08 9.09242e-09 2.12304e-09)
(-3.58168e-10 -3.19394e-10 3.08557e-09)
(4.28274e-10 -4.90283e-10 3.13929e-09)
(-9.62504e-09 8.27574e-09 2.27836e-09)
(1.66523e-08 6.11567e-10 9.14068e-09)
(1.18573e-09 -4.9439e-09 1.09774e-08)
(-2.96612e-10 -5.37165e-09 1.11101e-08)
(-1.49977e-08 -7.87124e-10 9.52328e-09)
(1.71208e-08 -8.02931e-09 1.71898e-08)
(1.66247e-09 -1.04175e-08 1.93078e-08)
(3.89677e-10 -1.10358e-08 1.94994e-08)
(-1.43229e-08 -9.91167e-09 1.77456e-08)
(1.6579e-08 -1.52712e-08 2.48694e-08)
(1.70305e-09 -1.69413e-08 2.70412e-08)
(1.76934e-09 -1.77104e-08 2.72802e-08)
(-1.23621e-08 -1.75857e-08 2.55675e-08)
(1.72961e-08 -2.1749e-08 3.16703e-08)
(2.24773e-09 -2.43105e-08 3.38316e-08)
(2.89151e-09 -2.52158e-08 3.41098e-08)
(-1.13893e-08 -2.44631e-08 3.24868e-08)
(2.11169e-08 -2.78255e-08 3.72836e-08)
(4.07026e-09 -3.17696e-08 3.94222e-08)
(2.96967e-09 -3.28085e-08 3.97313e-08)
(-1.32842e-08 -3.09233e-08 3.81935e-08)
(3.02793e-08 -3.67053e-08 4.09932e-08)
(7.75075e-09 -3.99907e-08 4.31183e-08)
(1.38629e-09 -4.11488e-08 4.34467e-08)
(-2.03424e-08 -4.01499e-08 4.19641e-08)
(4.39253e-08 -6.89564e-08 4.18109e-08)
(1.18445e-08 -6.552e-08 4.39862e-08)
(-5.35146e-10 -6.65866e-08 4.43161e-08)
(-3.17935e-08 -7.22246e-08 4.27935e-08)
(9.44643e-09 8.35368e-09 1.96143e-09)
(-4.82111e-10 -4.98275e-10 2.44274e-09)
(5.15726e-10 -6.59981e-10 2.48002e-09)
(-8.85075e-09 7.58601e-09 2.06953e-09)
(1.52897e-08 -6.29029e-10 7.26965e-09)
(8.44396e-10 -5.82635e-09 8.18892e-09)
(-8.95797e-11 -6.22983e-09 8.28317e-09)
(-1.38037e-08 -1.93999e-09 7.54149e-09)
(1.57758e-08 -9.72939e-09 1.33033e-08)
(1.27117e-09 -1.2002e-08 1.4356e-08)
(5.46393e-10 -1.25894e-08 1.44937e-08)
(-1.32418e-08 -1.1511e-08 1.37032e-08)
(1.53856e-08 -1.69929e-08 1.92551e-08)
(1.33558e-09 -1.86593e-08 2.03172e-08)
(1.81154e-09 -1.93973e-08 2.04904e-08)
(-1.15194e-08 -1.92091e-08 1.97622e-08)
(1.62337e-08 -2.29575e-08 2.45358e-08)
(1.90371e-09 -2.55396e-08 2.55755e-08)
(2.83289e-09 -2.64163e-08 2.57786e-08)
(-1.07524e-08 -2.55831e-08 2.51342e-08)
(2.01208e-08 -2.82483e-08 2.86962e-08)
(3.72257e-09 -3.221e-08 2.97182e-08)
(2.85081e-09 -3.32236e-08 2.99453e-08)
(-1.27745e-08 -3.12693e-08 2.93681e-08)
(2.92319e-08 -3.64501e-08 3.12836e-08)
(7.35693e-09 -3.98059e-08 3.23108e-08)
(1.26077e-09 -4.09418e-08 3.25528e-08)
(-1.98293e-08 -3.98287e-08 3.20041e-08)
(4.27025e-08 -6.78363e-08 3.19704e-08)
(1.13996e-08 -6.46926e-08 3.30587e-08)
(-6.54758e-10 -6.57403e-08 3.33015e-08)
(-3.11442e-08 -7.10476e-08 3.27002e-08)
(9.11709e-09 7.98573e-09 1.54835e-09)
(-4.85443e-10 -5.89931e-10 1.76789e-09)
(4.97356e-10 -7.44882e-10 1.79263e-09)
(-8.56189e-09 7.25208e-09 1.61966e-09)
(1.4809e-08 -1.08588e-09 5.32626e-09)
(7.91842e-10 -6.12357e-09 5.73888e-09)
(-1.22619e-10 -6.50936e-09 5.80197e-09)
(-1.34327e-08 -2.33399e-09 5.5073e-09)
(1.53663e-08 -1.03153e-08 9.50548e-09)
(1.21812e-09 -1.25493e-08 9.96895e-09)
(4.43474e-10 -1.31137e-08 1.00618e-08)
(-1.30095e-08 -1.20219e-08 9.77415e-09)
(1.50969e-08 -1.76161e-08 1.36521e-08)
(1.30558e-09 -1.92945e-08 1.41078e-08)
(1.61842e-09 -2.00082e-08 1.42254e-08)
(-1.14722e-08 -1.97562e-08 1.39955e-08)
(1.60404e-08 -2.34289e-08 1.7337e-08)
(1.88985e-09 -2.60256e-08 1.77734e-08)
(2.56414e-09 -2.68793e-08 1.7912e-08)
(-1.08581e-08 -2.59837e-08 1.77452e-08)
(1.99597e-08 -2.84867e-08 2.02007e-08)
(3.70044e-09 -3.24512e-08 2.06288e-08)
(2.53979e-09 -3.34441e-08 2.07845e-08)
(-1.29609e-08 -3.14454e-08 2.06618e-08)
(2.90052e-08 -3.65149e-08 2.19782e-08)
(7.29306e-09 -3.98988e-08 2.24203e-08)
(9.48999e-10 -4.10169e-08 2.25867e-08)
(-1.99895e-08 -3.98401e-08 2.24748e-08)
(4.23333e-08 -6.7446e-08 2.25691e-08)
(1.1293e-08 -6.44662e-08 2.30582e-08)
(-9.59859e-10 -6.54989e-08 2.32251e-08)
(-3.11945e-08 -7.0612e-08 2.30726e-08)
(8.97017e-09 7.80263e-09 9.79657e-10)
(-4.72709e-10 -6.36292e-10 1.07351e-09)
(4.72446e-10 -7.86846e-10 1.08769e-09)
(-8.43843e-09 7.09017e-09 1.02025e-09)
(1.46191e-08 -1.24393e-09 3.24942e-09)
(7.96838e-10 -6.21268e-09 3.42149e-09)
(-1.77963e-10 -6.58697e-09 3.45778e-09)
(-1.33077e-08 -2.45179e-09 3.35297e-09)
(1.52347e-08 -1.04657e-08 5.70498e-09)
(1.23107e-09 -1.26908e-08 5.89336e-09)
(3.36055e-10 -1.32399e-08 5.94699e-09)
(-1.29852e-08 -1.21235e-08 5.85949e-09)
(1.50398e-08 -1.77771e-08 8.13211e-09)
(1.33254e-09 -1.94674e-08 8.31204e-09)
(1.4531e-09 -2.01649e-08 8.38022e-09)
(-1.15646e-08 -1.98664e-08 8.3307e-09)
(1.60371e-08 -2.35795e-08 1.02898e-08)
(1.92359e-09 -2.61839e-08 1.04586e-08)
(2.35188e-09 -2.7022e-08 1.05393e-08)
(-1.10431e-08 -2.60862e-08 1.0527e-08)
(1.99669e-08 -2.86264e-08 1.19668e-08)
(3.72487e-09 -3.25861e-08 1.21335e-08)
(2.3019e-09 -3.35649e-08 1.22245e-08)
(-1.31901e-08 -3.1542e-08 1.2236e-08)
(2.89621e-08 -3.6653e-08 1.3024e-08)
(7.28836e-09 -4.00398e-08 1.32031e-08)
(7.10563e-10 -4.11455e-08 1.33005e-08)
(-2.01963e-08 -3.99413e-08 1.33148e-08)
(4.21957e-08 -6.73496e-08 1.34275e-08)
(1.12587e-08 -6.44405e-08 1.36342e-08)
(-1.19388e-09 -6.54627e-08 1.37319e-08)
(-3.133e-08 -7.04843e-08 1.37227e-08)
(8.90779e-09 7.72706e-09 3.34163e-10)
(-4.66066e-10 -6.53687e-10 3.60499e-10)
(4.60353e-10 -8.02091e-10 3.65122e-10)
(-8.3868e-09 7.02472e-09 3.47343e-10)
(1.45415e-08 -1.28942e-09 1.09158e-09)
(8.01752e-10 -6.23164e-09 1.13905e-09)
(-2.06116e-10 -6.6003e-09 1.15089e-09)
(-1.32603e-08 -2.47772e-09 1.12526e-09)
(1.51856e-08 -1.04859e-08 1.90152e-09)
(1.24034e-09 -1.27098e-08 1.95258e-09)
(2.82391e-10 -1.32514e-08 1.97012e-09)
(-1.29866e-08 -1.21196e-08 1.95191e-09)
(1.50245e-08 -1.77969e-08 2.6991e-09)
(1.34767e-09 -1.94936e-08 2.74696e-09)
(1.37199e-09 -2.0183e-08 2.76931e-09)
(-1.16205e-08 -1.98609e-08 2.76405e-09)
(1.60446e-08 -2.36151e-08 3.40807e-09)
(1.94051e-09 -2.62223e-08 3.45247e-09)
(2.24881e-09 -2.70525e-08 3.47898e-09)
(-1.11413e-08 -2.60977e-08 3.48587e-09)
(1.99765e-08 -2.86908e-08 3.96042e-09)
(3.73601e-09 -3.26461e-08 4.00473e-09)
(2.1868e-09 -3.36177e-08 4.03464e-09)
(-1.33076e-08 -3.15847e-08 4.0489e-09)
(2.89459e-08 -3.67425e-08 4.31265e-09)
(7.28494e-09 -4.01258e-08 4.3617e-09)
(5.94773e-10 -4.12252e-08 4.39377e-09)
(-2.03023e-08 -4.0012e-08 4.40841e-09)
(4.21331e-08 -6.73407e-08 4.45561e-09)
(1.12403e-08 -6.44549e-08 4.51357e-09)
(-1.30761e-09 -6.54718e-08 4.54573e-09)
(-3.14017e-08 -7.04595e-08 4.55285e-09)
)
;

boundaryField
{
    interface
    {
        type            solidTraction;
        traction        nonuniform List<vector> 
192
(
(43.2826 -0.360991 -2.84023)
(45.0667 -0.296518 -4.56725)
(46.5782 0.000262899 -5.14714)
(47.5182 0.427837 -5.28169)
(47.7646 0.795778 -5.21162)
(48.6309 1.45534 -5.06006)
(47.0294 1.95284 -4.65679)
(50.5607 4.36533 -4.34188)
(42.1537 -0.261965 -1.3972)
(42.9853 -0.215784 -2.41124)
(43.8919 0.0507311 -2.6882)
(44.5243 0.488317 -2.70093)
(44.5309 0.879313 -2.59732)
(45.2989 1.60862 -2.44928)
(43.4241 2.1607 -2.1894)
(47.0758 4.69589 -1.98049)
(44.7595 -0.226439 -1.09975)
(45.4938 -0.176848 -1.8758)
(46.3887 0.085941 -2.08368)
(47.0336 0.548142 -2.08811)
(46.9543 0.978315 -2.00371)
(47.6344 1.78966 -1.88433)
(45.3083 2.42352 -1.69489)
(48.7263 5.13053 -1.53413)
(44.9658 -0.173847 -0.672298)
(45.511 -0.103797 -1.213)
(46.2167 0.159867 -1.35083)
(46.7543 0.629183 -1.34121)
(46.5616 1.07726 -1.27038)
(47.1675 1.92469 -1.17822)
(44.6819 2.5954 -1.05686)
(48.0391 5.34662 -0.95867)
(45.7527 -0.14899 -0.491401)
(46.2418 -0.0588892 -0.887131)
(46.8637 0.213793 -0.988817)
(47.3524 0.693617 -0.981773)
(47.0849 1.1602 -0.929683)
(47.6161 2.03846 -0.861262)
(44.9563 2.7429 -0.776073)
(48.1747 5.53826 -0.705167)
(45.9594 -0.129614 -0.300123)
(46.3984 -0.022884 -0.560223)
(46.947 0.257887 -0.627638)
(47.3883 0.744027 -0.621664)
(47.0666 1.22108 -0.585925)
(47.5527 2.11519 -0.539987)
(44.8105 2.83737 -0.487237)
(47.9757 5.65522 -0.444832)
(46.2176 -0.120329 -0.17602)
(46.6386 -0.00223432 -0.32825)
(47.1487 0.285594 -0.368081)
(47.5638 0.776982 -0.364834)
(47.2076 1.26192 -0.344263)
(47.6593 2.16698 -0.31723)
(44.8524 2.90169 -0.287395)
(47.9662 5.73624 -0.262125)
(46.2808 -0.114539 -0.0521275)
(46.689 0.00934311 -0.100828)
(47.1777 0.300212 -0.113754)
(47.5782 0.79334 -0.112538)
(47.2072 1.2815 -0.105858)
(47.6428 2.19064 -0.0970635)
(44.8163 2.93109 -0.088154)
(47.9041 5.77264 -0.0802235)
(4.01882 0.931899 16.144)
(6.78606 1.08271 11.8473)
(7.8204 0.881785 8.03931)
(8.1538 0.631505 6.65169)
(8.23821 0.527097 6.49514)
(8.30928 0.566908 7.32447)
(8.41556 0.697319 9.3405)
(9.18747 0.911602 11.0656)
(2.4331 0.55249 20.4782)
(4.62823 0.797201 19.5084)
(5.37832 0.656878 18.2501)
(5.58282 0.384228 17.8704)
(5.63491 0.21077 17.8401)
(5.73927 0.121798 18.1823)
(6.01498 0.139441 18.8511)
(7.04581 0.223943 19.2834)
(2.46519 0.394294 17.5959)
(4.72808 0.617188 16.8538)
(5.53565 0.502117 15.6865)
(5.76561 0.215521 15.2979)
(5.81197 -0.00162102 15.288)
(5.87979 -0.176551 15.617)
(6.08944 -0.272956 16.3571)
(7.06684 -0.281696 17.2146)
(2.78042 0.318599 18.0084)
(5.46748 0.507353 17.5658)
(6.48924 0.390103 16.5753)
(6.79721 0.0883498 16.3054)
(6.85451 -0.144663 16.3748)
(6.93489 -0.359832 16.6502)
(7.08068 -0.521145 17.1822)
(8.09117 -0.675577 17.844)
(-8.71963 0.848323 0.860231)
(-5.66299 0.975911 1.66573)
(-2.91205 0.5939 1.91455)
(-1.64431 0.0302891 2.00938)
(-1.33013 -0.262504 2.06115)
(-0.0400569 -0.674987 2.26838)
(-0.864042 -0.642002 2.41905)
(7.83654 -2.86073 2.97703)
(-13.5294 0.344983 -0.249052)
(-12.9047 0.418312 -0.136456)
(-12.094 0.21526 -0.18258)
(-11.5444 -0.125398 -0.192108)
(-11.4156 -0.22788 -0.139412)
(-9.8696 -0.487605 0.0832269)
(-10.0305 -0.21953 0.355328)
(-0.819857 -2.32082 0.806339)
(-13.792 0.193839 -0.0779716)
(-13.3373 0.204456 0.129174)
(-12.6984 0.078537 0.198475)
(-12.0775 -0.151477 0.247849)
(-11.8395 -0.143527 0.31737)
(-9.90561 -0.320369 0.491104)
(-9.73809 0.0602704 0.668334)
(0.20197 -2.16568 0.910948)
(-15.2738 0.0948682 -0.119971)
(-15.0633 0.0613879 0.0569293)
(-14.7304 -0.0126453 0.136245)
(-14.1584 -0.153011 0.187332)
(-13.8673 -0.0504469 0.246629)
(-11.6397 -0.151123 0.3723)
(-11.1016 0.309356 0.490939)
(-0.733877 -1.95468 0.635011)
(-15.5502 0.078979 -0.00900692)
(-15.3345 0.0295919 0.174064)
(-15.0231 -0.0242141 0.268923)
(-14.3882 -0.128328 0.322488)
(-14.0228 0.0190072 0.367816)
(-11.6221 -0.0508109 0.444651)
(-10.9412 0.434264 0.501519)
(-0.335721 -1.89592 0.562317)
(-16.0045 0.0734463 -0.00714373)
(-15.7981 0.0190791 0.127068)
(-15.5059 -0.0223527 0.201234)
(-14.8316 -0.1052 0.241577)
(-14.4101 0.0714748 0.272571)
(-11.8904 0.0217982 0.32056)
(-11.0962 0.51984 0.352496)
(-0.313447 -1.84804 0.38452)
(-16.1235 0.0764967 0.0129707)
(-15.9031 0.0219502 0.099274)
(-15.5984 -0.0139474 0.147106)
(-14.8898 -0.0883491 0.172246)
(-14.4304 0.10127 0.190189)
(-11.8439 0.0591255 0.21503)
(-11.0019 0.561138 0.229311)
(-0.120165 -1.83524 0.240976)
(-16.2349 0.0770045 -2.96355e-05)
(-16.013 0.0229299 0.0273891)
(-15.7049 -0.00978187 0.0432215)
(-14.9818 -0.0797188 0.0515376)
(-14.5027 0.116244 0.0576923)
(-11.8823 0.078348 0.0659196)
(-11.0071 0.582328 0.0712615)
(-0.0803205 -1.82637 0.0751599)
(9.23792 -10.5839 -0.793715)
(8.4938 -8.61316 -0.575904)
(8.43444 -6.07981 -0.394352)
(8.43653 -4.48839 -0.2558)
(8.50484 -3.25573 -0.183429)
(8.54774 -2.39007 -0.112765)
(8.58583 -1.84058 -0.0679142)
(8.60221 -1.57642 -0.0203711)
(7.06907 -18.893 -0.0836141)
(6.04058 -18.336 0.00732869)
(5.77102 -17.3471 0.0855139)
(5.67343 -16.6226 0.099045)
(5.65724 -16.0049 0.0868981)
(5.64597 -15.5546 0.0680226)
(5.64821 -15.2591 0.0410491)
(5.64785 -15.1047 0.0149768)
(7.08815 -16.8441 0.434757)
(6.10153 -15.8576 0.434509)
(5.8912 -14.8026 0.400168)
(5.83446 -14.0917 0.325256)
(5.84084 -13.4622 0.254328)
(5.84273 -13.0427 0.17824)
(5.85171 -12.7527 0.105995)
(5.85371 -12.6194 0.0349586)
(8.08421 -17.5139 0.83032)
(7.06201 -16.7553 0.684874)
(6.91121 -15.9922 0.578422)
(6.84794 -15.4577 0.452912)
(6.8676 -14.9322 0.351264)
(6.87282 -14.6078 0.242129)
(6.88744 -14.3679 0.145105)
(6.89169 -14.2592 0.0472838)
)
;
        pressure        uniform 0;
        secondOrder     false;
        setEffectiveTraction false;
        relaxationFactor 1;
        value           nonuniform List<vector> 
192
(
(8.25824e-08 5.23298e-08 2.45758e-08)
(9.39767e-08 3.24749e-08 4.66482e-08)
(9.7118e-08 1.56141e-08 5.85662e-08)
(9.84585e-08 4.19062e-09 6.78116e-08)
(1.01453e-07 -5.07416e-09 7.69982e-08)
(1.08216e-07 -1.43127e-08 8.75726e-08)
(1.20841e-07 -2.9592e-08 1.00674e-07)
(1.40606e-07 -7.87061e-08 1.14585e-07)
(6.57362e-08 2.81575e-08 1.52565e-09)
(7.40562e-08 1.51371e-08 1.40559e-08)
(7.5875e-08 3.96748e-09 2.53805e-08)
(7.65816e-08 -4.93491e-09 3.44584e-08)
(7.91639e-08 -1.30522e-08 4.2817e-08)
(8.58005e-08 -2.09765e-08 5.15508e-08)
(9.90653e-08 -3.25192e-08 6.03188e-08)
(1.21579e-07 -7.27856e-08 6.54519e-08)
(5.49322e-08 1.90734e-08 4.14954e-10)
(6.15735e-08 6.03259e-09 8.78353e-09)
(6.29301e-08 -3.99203e-09 1.87159e-08)
(6.35057e-08 -1.15254e-08 2.76335e-08)
(6.60151e-08 -1.80205e-08 3.55736e-08)
(7.27518e-08 -2.36303e-08 4.28031e-08)
(8.64575e-08 -3.17777e-08 4.84324e-08)
(1.09648e-07 -6.7635e-08 5.00334e-08)
(4.91688e-08 1.58267e-08 1.36956e-09)
(5.48067e-08 2.3205e-09 7.89348e-09)
(5.60845e-08 -8.0476e-09 1.59041e-08)
(5.67876e-08 -1.52273e-08 2.36505e-08)
(5.94181e-08 -2.06144e-08 3.05104e-08)
(6.62914e-08 -2.45794e-08 3.61607e-08)
(8.01442e-08 -3.10028e-08 3.98624e-08)
(1.03307e-07 -6.49784e-08 4.06016e-08)
(4.62208e-08 1.45377e-08 1.66938e-09)
(5.14586e-08 9.53296e-10 6.80868e-09)
(5.28057e-08 -9.70537e-09 1.28645e-08)
(5.3692e-08 -1.68783e-08 1.88844e-08)
(5.64812e-08 -2.17736e-08 2.42218e-08)
(6.34513e-08 -2.49984e-08 2.84067e-08)
(7.72876e-08 -3.08042e-08 3.09649e-08)
(1.00223e-07 -6.38679e-08 3.15723e-08)
(4.46562e-08 1.39672e-08 1.42924e-09)
(4.97834e-08 4.76425e-10 5.1585e-09)
(5.12285e-08 -1.02432e-08 9.37011e-09)
(5.22623e-08 -1.74475e-08 1.35655e-08)
(5.51703e-08 -2.2213e-08 1.72878e-08)
(6.21872e-08 -2.52452e-08 2.01621e-08)
(7.59557e-08 -3.0921e-08 2.19107e-08)
(9.8672e-08 -6.34978e-08 2.24423e-08)
(4.38173e-08 1.36999e-08 9.27304e-10)
(4.89189e-08 3.22205e-10 3.1825e-09)
(5.04358e-08 -1.03605e-08 5.65974e-09)
(5.15612e-08 -1.75764e-08 8.11394e-09)
(5.45378e-08 -2.23475e-08 1.02908e-08)
(6.15707e-08 -2.53947e-08 1.1971e-08)
(7.52777e-08 -3.10953e-08 1.30091e-08)
(9.78414e-08 -6.3421e-08 1.33774e-08)
(4.34427e-08 1.35894e-08 3.1856e-10)
(4.85363e-08 2.80031e-10 1.07218e-09)
(5.00875e-08 -1.03651e-08 1.88922e-09)
(5.12547e-08 -1.7582e-08 2.69525e-09)
(5.4261e-08 -2.23769e-08 3.40994e-09)
(6.12974e-08 -2.54651e-08 3.96281e-09)
(7.49707e-08 -3.12028e-08 4.30859e-09)
(9.74583e-08 -6.34238e-08 4.43996e-09)
(2.4998e-08 5.53854e-08 8.64649e-08)
(4.05235e-08 3.70782e-08 1.05883e-07)
(4.263e-08 2.05571e-08 1.19179e-07)
(4.22182e-08 8.67704e-09 1.30257e-07)
(4.3029e-08 -1.33232e-09 1.41644e-07)
(4.68791e-08 -1.1618e-08 1.55053e-07)
(5.58219e-08 -2.83767e-08 1.71749e-07)
(6.91041e-08 -7.89317e-08 1.92249e-07)
(2.25137e-09 3.87322e-08 7.78575e-08)
(6.99016e-09 2.78516e-08 9.68034e-08)
(8.33269e-09 1.69012e-08 1.09125e-07)
(8.45587e-09 6.56417e-09 1.19406e-07)
(9.02424e-09 -4.1036e-09 1.30177e-07)
(1.08876e-08 -1.55737e-08 1.43182e-07)
(1.46414e-08 -3.13734e-08 1.60282e-07)
(1.89672e-08 -7.57553e-08 1.8379e-07)
(-1.91415e-09 3.84748e-08 7.70971e-08)
(-5.19682e-09 2.7406e-08 9.61695e-08)
(-4.80314e-09 1.62826e-08 1.08576e-07)
(-3.0373e-09 5.79231e-09 1.18919e-07)
(-1.56533e-09 -5.01632e-09 1.29735e-07)
(-1.23361e-09 -1.66249e-08 1.4277e-07)
(-2.66346e-09 -3.25531e-08 1.59893e-07)
(-4.65829e-09 -7.68593e-08 1.83443e-07)
(-2.40029e-08 5.42838e-08 8.43908e-08)
(-3.78698e-08 3.55384e-08 1.04242e-07)
(-3.82616e-08 1.85871e-08 1.17783e-07)
(-3.59711e-08 6.28583e-09 1.29041e-07)
(-3.4735e-08 -4.11741e-09 1.40563e-07)
(-3.63899e-08 -1.47836e-08 1.5407e-07)
(-4.30307e-08 -3.19027e-08 1.70841e-07)
(-5.39741e-08 -8.23266e-08 1.91485e-07)
(-7.81463e-08 5.02563e-08 2.46495e-08)
(-8.79424e-08 2.99766e-08 4.71958e-08)
(-8.93984e-08 1.26499e-08 5.95373e-08)
(-8.88628e-08 7.4824e-10 6.90958e-08)
(-8.98028e-08 -8.97176e-09 7.85118e-08)
(-9.43662e-08 -1.86428e-08 8.92608e-08)
(-1.04711e-07 -3.43039e-08 1.02494e-07)
(-1.22156e-07 -8.32751e-08 1.16477e-07)
(-6.13776e-08 2.63935e-08 1.87528e-09)
(-6.83945e-08 1.2807e-08 1.48738e-08)
(-6.87256e-08 1.08792e-09 2.65684e-08)
(-6.7694e-08 -8.32582e-09 3.59358e-08)
(-6.83096e-08 -1.69144e-08 4.45148e-08)
(-7.27922e-08 -2.5281e-08 5.34142e-08)
(-8.37986e-08 -3.72082e-08 6.2296e-08)
(-1.04038e-07 -7.73206e-08 6.74773e-08)
(-5.07999e-08 1.75265e-08 6.88145e-10)
(-5.63014e-08 3.91827e-09 9.43817e-09)
(-5.63217e-08 -6.6931e-09 1.96654e-08)
(-5.52833e-08 -1.47752e-08 2.88234e-08)
(-5.59154e-08 -2.17715e-08 3.69566e-08)
(-6.05506e-08 -2.78459e-08 4.43345e-08)
(-7.20175e-08 -3.63905e-08 5.00635e-08)
(-9.29411e-08 -7.20904e-08 5.1702e-08)
(-4.52345e-08 1.44314e-08 1.56449e-09)
(-4.98701e-08 3.87355e-10 8.37784e-09)
(-4.99328e-08 -1.05706e-08 1.66167e-08)
(-4.91264e-08 -1.83192e-08 2.45543e-08)
(-4.99614e-08 -2.42326e-08 3.15738e-08)
(-5.4788e-08 -2.86851e-08 3.73503e-08)
(-6.64291e-08 -3.55225e-08 4.11382e-08)
(-8.73324e-08 -6.93484e-08 4.19094e-08)
(-4.24246e-08 1.32496e-08 1.80375e-09)
(-4.67621e-08 -8.42237e-10 7.15026e-09)
(-4.69869e-08 -1.2082e-08 1.33749e-08)
(-4.64467e-08 -1.98314e-08 1.95397e-08)
(-4.75091e-08 -2.52694e-08 2.50015e-08)
(-5.24837e-08 -2.90001e-08 2.92874e-08)
(-6.41401e-08 -3.52362e-08 3.1916e-08)
(-8.48327e-08 -6.81616e-08 3.25506e-08)
(-4.09467e-08 1.27507e-08 1.51658e-09)
(-4.52419e-08 -1.22209e-09 5.38333e-09)
(-4.56303e-08 -1.25121e-08 9.71005e-09)
(-4.5299e-08 -2.02941e-08 1.40068e-08)
(-4.65331e-08 -2.56116e-08 1.78179e-08)
(-5.15966e-08 -2.91625e-08 2.07657e-08)
(-6.32148e-08 -3.52817e-08 2.25666e-08)
(-8.37069e-08 -6.77304e-08 2.31191e-08)
(-4.0158e-08 1.25267e-08 9.76483e-10)
(-4.44685e-08 -1.31509e-09 3.30988e-09)
(-4.49702e-08 -1.25593e-08 5.85378e-09)
(-4.47708e-08 -2.0352e-08 8.3678e-09)
(-4.61096e-08 -2.56798e-08 1.05979e-08)
(-5.12189e-08 -2.92537e-08 1.23227e-08)
(-6.27976e-08 -3.54063e-08 1.33931e-08)
(-8.31521e-08 -6.76111e-08 1.37745e-08)
(-3.98064e-08 1.24365e-08 3.34435e-10)
(-4.4128e-08 -1.32777e-09 1.11341e-09)
(-4.46838e-08 -1.25295e-08 1.95225e-09)
(-4.45462e-08 -2.03222e-08 2.77803e-09)
(-4.59329e-08 -2.56759e-08 3.51044e-09)
(-5.1061e-08 -2.92944e-08 4.07828e-09)
(-6.26176e-08 -3.54884e-08 4.43493e-09)
(-8.29042e-08 -6.75921e-08 4.57079e-09)
(6.94366e-08 -1.56752e-07 1.18466e-07)
(5.6869e-08 -1.44266e-07 6.78902e-08)
(4.85798e-08 -1.35577e-07 5.10752e-08)
(4.50566e-08 -1.30229e-07 4.08693e-08)
(4.39022e-08 -1.27227e-07 3.15928e-08)
(4.35638e-08 -1.25619e-07 2.24474e-08)
(4.34341e-08 -1.24804e-07 1.34012e-08)
(4.33716e-08 -1.24462e-07 4.4534e-09)
(1.92931e-08 -1.48937e-07 1.14658e-07)
(1.56721e-08 -1.33474e-07 7.03006e-08)
(1.25983e-08 -1.24422e-07 5.45463e-08)
(1.12529e-08 -1.19479e-07 4.32031e-08)
(1.08766e-08 -1.16926e-07 3.27952e-08)
(1.08071e-08 -1.156e-07 2.29952e-08)
(1.07879e-08 -1.1492e-07 1.36314e-08)
(1.0774e-08 -1.14629e-07 4.51717e-09)
(-4.32119e-09 -1.49243e-07 1.1511e-07)
(-1.63613e-09 -1.33748e-07 7.08338e-08)
(5.43214e-10 -1.24684e-07 5.49695e-08)
(1.14195e-09 -1.19727e-07 4.35231e-08)
(9.3494e-10 -1.17159e-07 3.30296e-08)
(5.77545e-10 -1.15819e-07 2.31558e-08)
(3.18017e-10 -1.15129e-07 1.37251e-08)
(1.94482e-10 -1.14833e-07 4.54801e-09)
(-5.3631e-08 -1.57961e-07 1.19885e-07)
(-4.20099e-08 -1.45354e-07 6.94488e-08)
(-3.45966e-08 -1.3662e-07 5.23174e-08)
(-3.1821e-08 -1.31223e-07 4.18218e-08)
(-3.12592e-08 -1.28173e-07 3.22971e-08)
(-3.13559e-08 -1.26525e-07 2.29319e-08)
(-3.151e-08 -1.2568e-07 1.36846e-08)
(-3.15873e-08 -1.25324e-07 4.54665e-09)
)
;
        gradient        nonuniform List<vector> 
192
(
(4.63721e-06 1.28627e-06 -1.61271e-07)
(4.3424e-06 3.42202e-07 -2.63632e-07)
(4.43124e-06 3.35658e-08 -2.83834e-07)
(4.56668e-06 1.07598e-08 -2.86526e-07)
(4.73503e-06 9.63868e-08 -2.87939e-07)
(4.96181e-06 2.57637e-07 -2.88557e-07)
(5.25556e-06 4.41389e-07 -2.86717e-07)
(5.78756e-06 3.09359e-07 -2.81938e-07)
(3.87353e-06 9.0977e-07 -2.43164e-07)
(3.67077e-06 2.40539e-07 -3.8841e-07)
(3.72247e-06 1.1341e-08 -4.16231e-07)
(3.82744e-06 1.10614e-09 -4.22324e-07)
(3.98118e-06 8.80376e-08 -4.2789e-07)
(4.21285e-06 2.55338e-07 -4.31676e-07)
(4.55203e-06 4.54272e-07 -4.2786e-07)
(5.25812e-06 3.1448e-07 -4.14484e-07)
(3.39779e-06 6.5475e-07 -1.40656e-07)
(3.30366e-06 1.69154e-07 -2.30411e-07)
(3.36099e-06 -3.43477e-10 -2.44495e-07)
(3.45962e-06 -8.99069e-10 -2.4322e-07)
(3.61141e-06 8.70347e-08 -2.42088e-07)
(3.85122e-06 2.57666e-07 -2.40485e-07)
(4.21624e-06 4.58581e-07 -2.37735e-07)
(4.96873e-06 3.17388e-07 -2.38555e-07)
(3.1107e-06 5.38743e-07 -6.02783e-08)
(3.05235e-06 1.36715e-07 -9.97763e-08)
(3.1171e-06 -1.46338e-09 -1.02857e-07)
(3.21669e-06 3.51439e-09 -9.75143e-08)
(3.36977e-06 9.07723e-08 -9.27904e-08)
(3.61396e-06 2.59691e-07 -8.98316e-08)
(3.98919e-06 4.56203e-07 -9.04665e-08)
(4.7505e-06 3.18242e-07 -9.67423e-08)
(2.94195e-06 4.94721e-07 -2.33642e-08)
(2.89351e-06 1.26586e-07 -3.68771e-08)
(2.96239e-06 1.92188e-09 -3.51019e-08)
(3.06451e-06 9.16807e-09 -2.96545e-08)
(3.2198e-06 9.47176e-08 -2.51252e-08)
(3.46644e-06 2.5999e-07 -2.31552e-08)
(3.84446e-06 4.51671e-07 -2.54934e-08)
(4.60163e-06 3.17472e-07 -3.18507e-08)
(2.84313e-06 4.7852e-07 -9.52924e-09)
(2.79795e-06 1.24985e-07 -1.34203e-08)
(2.86897e-06 5.76172e-09 -1.08297e-08)
(2.97323e-06 1.34918e-08 -6.92563e-09)
(3.13039e-06 9.72719e-08 -3.94049e-09)
(3.3782e-06 2.59323e-07 -3.08363e-09)
(3.75604e-06 4.47509e-07 -5.40073e-09)
(4.5071e-06 3.15858e-07 -1.01419e-08)
(2.78777e-06 4.71783e-07 -4.18826e-09)
(2.74398e-06 1.25291e-07 -5.3532e-09)
(2.81609e-06 8.41824e-09 -3.61972e-09)
(2.92171e-06 1.60578e-08 -1.4535e-09)
(3.08006e-06 9.85599e-08 7.88039e-11)
(3.32831e-06 2.5853e-07 3.33184e-10)
(3.70525e-06 4.44614e-07 -1.18823e-09)
(4.45166e-06 3.14282e-07 -4.0055e-09)
(2.76279e-06 4.68985e-07 -1.24828e-09)
(2.71958e-06 1.25556e-07 -1.55172e-09)
(2.79215e-06 9.66243e-09 -9.83905e-10)
(2.89842e-06 1.71907e-08 -3.07869e-10)
(3.05731e-06 9.90588e-08 1.48884e-10)
(3.30567e-06 2.58056e-07 1.91014e-10)
(3.68198e-06 4.43171e-07 -3.25523e-10)
(4.42602e-06 3.13357e-07 -1.2526e-09)
(3.04615e-08 1.53072e-06 4.78986e-06)
(6.61428e-08 7.10463e-07 4.47519e-06)
(7.21997e-08 4.29004e-07 4.56519e-06)
(6.74616e-08 3.69674e-07 4.70906e-06)
(6.10999e-08 3.95734e-07 4.88372e-06)
(5.4829e-08 4.73209e-07 5.10985e-06)
(5.40687e-08 5.38611e-07 5.39935e-06)
(6.73698e-08 2.91311e-07 5.93115e-06)
(-5.04621e-08 1.41472e-06 4.30217e-06)
(-6.36578e-08 6.90866e-07 4.01183e-06)
(-6.54483e-08 4.18855e-07 4.04013e-06)
(-6.98979e-08 3.56513e-07 4.14466e-06)
(-7.57937e-08 3.8208e-07 4.29826e-06)
(-8.14849e-08 4.66782e-07 4.5184e-06)
(-8.06481e-08 5.54443e-07 4.83953e-06)
(-6.46272e-08 3.02101e-07 5.54933e-06)
(5.09241e-08 1.4165e-06 4.24241e-06)
(7.36689e-08 6.95432e-07 3.95295e-06)
(8.42353e-08 4.22747e-07 3.97902e-06)
(9.50932e-08 3.5932e-07 4.08194e-06)
(1.05643e-07 3.84138e-07 4.23444e-06)
(1.14889e-07 4.68341e-07 4.45351e-06)
(1.16772e-07 5.55439e-07 4.77372e-06)
(1.02133e-07 3.02491e-07 5.48556e-06)
(-2.78215e-08 1.53922e-06 4.62126e-06)
(-5.3967e-08 7.24133e-07 4.31247e-06)
(-5.18119e-08 4.40263e-07 4.39612e-06)
(-4.09477e-08 3.77913e-07 4.53537e-06)
(-3.00582e-08 4.01869e-07 4.70689e-06)
(-2.03528e-08 4.77902e-07 4.93021e-06)
(-1.70045e-08 5.41663e-07 5.21749e-06)
(-2.87866e-08 2.92435e-07 5.75676e-06)
(-4.3593e-06 1.21702e-06 -1.58035e-07)
(-4.05978e-06 2.79189e-07 -2.51204e-07)
(-4.14276e-06 -3.47112e-08 -2.63518e-07)
(-4.27228e-06 -6.50944e-08 -2.60235e-07)
(-4.43549e-06 1.35213e-08 -2.57209e-07)
(-4.65845e-06 1.69169e-07 -2.54514e-07)
(-4.95139e-06 3.49567e-07 -2.50234e-07)
(-5.48337e-06 2.16556e-07 -2.43865e-07)
(-3.59434e-06 8.48632e-07 -2.38982e-07)
(-3.39292e-06 1.8568e-07 -3.76196e-07)
(-3.43948e-06 -5.02609e-08 -3.97134e-07)
(-3.53793e-06 -6.96662e-08 -3.97738e-07)
(-3.68485e-06 8.94144e-09 -3.99095e-07)
(-3.91001e-06 1.69614e-07 -3.99759e-07)
(-4.24549e-06 3.64429e-07 -3.93693e-07)
(-4.95195e-06 2.2299e-07 -3.78654e-07)
(-3.1275e-06 6.01835e-07 -1.36467e-07)
(-3.03328e-06 1.21027e-07 -2.19704e-07)
(-3.08514e-06 -5.62593e-08 -2.2818e-07)
(-3.17686e-06 -6.7059e-08 -2.22152e-07)
(-3.32087e-06 1.14983e-08 -2.17187e-07)
(-3.55225e-06 1.74569e-07 -2.12651e-07)
(-3.91074e-06 3.70672e-07 -2.07743e-07)
(-4.6608e-06 2.27548e-07 -2.06893e-07)
(-2.84876e-06 4.92456e-07 -5.71098e-08)
(-2.78979e-06 9.39583e-08 -9.16353e-08)
(-2.84879e-06 -5.27129e-08 -9.03106e-08)
(-2.94115e-06 -5.8675e-08 -8.10581e-08)
(-3.08577e-06 1.84412e-08 -7.30395e-08)
(-3.3203e-06 1.79059e-07 -6.74542e-08)
(-3.68694e-06 3.70189e-07 -6.60716e-08)
(-4.44312e-06 2.30095e-07 -7.07285e-08)
(-2.68591e-06 4.53089e-07 -2.1263e-08)
(-2.63667e-06 8.78206e-08 -3.12986e-08)
(-2.69961e-06 -4.56851e-08 -2.62655e-08)
(-2.79418e-06 -4.9789e-08 -1.77944e-08)
(-2.94053e-06 2.51018e-08 -1.0619e-08)
(-3.17673e-06 1.81537e-07 -6.46018e-09)
(-3.54486e-06 3.67399e-07 -7.05052e-09)
(-4.29508e-06 2.30873e-07 -1.19729e-08)
(-2.59078e-06 4.39892e-07 -8.24636e-09)
(-2.54473e-06 8.89516e-08 -9.91767e-09)
(-2.60966e-06 -3.92107e-08 -5.12807e-09)
(-2.70615e-06 -4.30291e-08 9.05783e-10)
(-2.854e-06 2.97754e-08 5.81728e-09)
(-3.09086e-06 1.82628e-07 8.31514e-09)
(-3.45802e-06 3.64677e-07 7.3437e-09)
(-4.20099e-06 2.30531e-07 3.72038e-09)
(-2.53757e-06 4.34923e-07 -3.50171e-09)
(-2.49286e-06 9.0936e-08 -3.44682e-09)
(-2.5588e-06 -3.4863e-08 -4.5613e-10)
(-2.6565e-06 -3.88441e-08 2.9681e-09)
(-2.80532e-06 3.25112e-08 5.66716e-09)