/*--------------------------------*- C++ -*----------------------------------*\
| =========                 |                                                 |
| \\      /  F ield         | OpenFOAM: The Open Source CFD Toolbox           |
|  \\    /   O peration     | Version:  v1912                                 |
|   \\  /    A nd           | Website:  www.openfoam.com                      |
|    \\/     M anipulation  |                                                 |
\*---------------------------------------------------------------------------*/
FoamFile
{
    version     2.0;
    format      ascii;
    class       pointVectorField;
    location    "0.62/solid";
    object      pointDD;
}
// * * * * * * * * * * * * * * * * * * * * * * * * * * * * * * * * * * * * * //

dimensions      [0 1 0 0 0 0 0];


internalField   nonuniform List<vector> 
405
(
(1.93283e-10 3.28608e-10 1.98909e-10)
(8.25722e-11 2.33446e-10 1.44659e-10)
(-4.64716e-12 2.00589e-10 1.28766e-10)
(-8.71698e-11 2.22654e-10 1.2968e-10)
(-1.72197e-10 3.10747e-10 1.76345e-10)
(3.98986e-10 4.12208e-10 4.90298e-10)
(2.35535e-10 4.02115e-10 4.80663e-10)
(-1.42154e-11 3.44658e-10 4.43043e-10)
(-2.52745e-10 3.86847e-10 4.45703e-10)
(-3.72159e-10 3.95467e-10 4.46738e-10)
(5.28976e-10 2.05994e-10 8.19937e-10)
(3.18021e-10 2.28379e-10 8.07811e-10)
(-2.3868e-11 1.93212e-10 7.59867e-10)
(-3.52609e-10 2.25426e-10 7.64187e-10)
(-5.15075e-10 2.08658e-10 7.60495e-10)
(5.43778e-10 -3.61335e-11 1.0761e-09)
(3.22047e-10 7.09476e-12 1.05904e-09)
(-3.45357e-11 -8.42981e-12 1.00171e-09)
(-3.77813e-10 1.51054e-11 1.00897e-09)
(-5.48753e-10 -1.623e-11 1.00595e-09)
(5.35769e-10 -2.66889e-10 1.3117e-09)
(3.08643e-10 -2.24488e-10 1.28694e-09)
(-4.78829e-11 -2.35742e-10 1.21942e-09)
(-3.90937e-10 -2.07106e-10 1.23173e-09)
(-5.65179e-10 -2.31871e-10 1.23318e-09)
(5.581e-10 -5.13384e-10 1.55614e-09)
(3.17125e-10 -4.84757e-10 1.51992e-09)
(-6.43331e-11 -4.99278e-10 1.44218e-09)
(-4.32062e-10 -4.58733e-10 1.46014e-09)
(-6.18028e-10 -4.64036e-10 1.47015e-09)
(6.52552e-10 -8.5464e-10 1.82582e-09)
(3.76437e-10 -8.3616e-10 1.77893e-09)
(-8.43772e-11 -8.44053e-10 1.69542e-09)
(-5.30856e-10 -8.01077e-10 1.71468e-09)
(-7.49123e-10 -7.90196e-10 1.73256e-09)
(8.20315e-10 -1.40696e-09 2.09573e-09)
(4.79152e-10 -1.37923e-09 2.06001e-09)
(-1.08797e-10 -1.35666e-09 1.98613e-09)
(-6.80729e-10 -1.33069e-09 1.99118e-09)
(-9.58834e-10 -1.32108e-09 1.99538e-09)
(9.10581e-10 -1.76954e-09 2.23617e-09)
(5.35538e-10 -1.73612e-09 2.21797e-09)
(-1.22919e-10 -1.68059e-09 2.16547e-09)
(-7.64225e-10 -1.66899e-09 2.15641e-09)
(-1.08873e-09 -1.66465e-09 2.14095e-09)
(1.14901e-10 1.6649e-10 8.99381e-11)
(0 0 0)
(0 0 0)
(0 0 0)
(-8.34737e-11 1.57204e-10 8.19351e-11)
(3.17844e-10 2.43503e-10 3.32172e-10)
(0 0 0)
(0 0 0)
(0 0 0)
(-2.56614e-10 2.34464e-10 3.06249e-10)
(4.21878e-10 3.46029e-11 6.12328e-10)
(0 0 0)
(0 0 0)
(0 0 0)
(-3.6783e-10 4.41465e-11 5.70142e-10)
(4.31196e-10 -1.95497e-10 8.54295e-10)
(0 0 0)
(0 0 0)
(0 0 0)
(-3.91301e-10 -1.6877e-10 8.01059e-10)
(4.21807e-10 -4.13393e-10 1.08082e-09)
(0 0 0)
(0 0 0)
(0 0 0)
(-4.02271e-10 -3.7071e-10 1.01885e-09)
(4.4125e-10 -6.38212e-10 1.31294e-09)
(0 0 0)
(0 0 0)
(0 0 0)
(-4.48453e-10 -5.79912e-10 1.24314e-09)
(5.34275e-10 -9.33083e-10 1.55727e-09)
(0 0 0)
(0 0 0)
(0 0 0)
(-5.74083e-10 -8.58483e-10 1.47999e-09)
(7.18996e-10 -1.41179e-09 1.77268e-09)
(0 0 0)
(0 0 0)
(0 0 0)
(-7.95158e-10 -1.31541e-09 1.68887e-09)
(8.17631e-10 -1.73413e-09 1.88652e-09)
(4.75436e-10 -1.6963e-09 1.90077e-09)
(-1.12232e-10 -1.61906e-09 1.88113e-09)
(-6.83945e-10 -1.62101e-09 1.85726e-09)
(-9.61353e-10 -1.62253e-09 1.8105e-09)
(5.47392e-11 7.28078e-11 2.7075e-11)
(0 0 0)
(0 0 0)
(0 0 0)
(-2.33272e-11 6.37239e-11 2.32086e-11)
(1.64686e-10 5.41336e-11 1.53516e-10)
(0 0 0)
(0 0 0)
(0 0 0)
(-1.0037e-10 4.48793e-11 1.38906e-10)
(2.27318e-10 -1.44724e-10 3.63727e-10)
(0 0 0)
(0 0 0)
(0 0 0)
(-1.64365e-10 -1.36684e-10 3.3691e-10)
(2.25819e-10 -3.53076e-10 5.81002e-10)
(0 0 0)
(0 0 0)
(0 0 0)
(-1.72045e-10 -3.28858e-10 5.44593e-10)
(2.12812e-10 -5.49905e-10 7.89674e-10)
(0 0 0)
(0 0 0)
(0 0 0)
(-1.75128e-10 -5.10247e-10 7.45278e-10)
(2.30789e-10 -7.41382e-10 9.90598e-10)
(0 0 0)
(0 0 0)
(0 0 0)
(-2.15997e-10 -6.86485e-10 9.39033e-10)
(3.28312e-10 -9.71601e-10 1.17286e-09)
(0 0 0)
(0 0 0)
(0 0 0)
(-3.42504e-10 -9.0106e-10 1.11484e-09)
(5.30331e-10 -1.35323e-09 1.2922e-09)
(0 0 0)
(0 0 0)
(0 0 0)
(-5.77154e-10 -1.26213e-09 1.22944e-09)
(6.45446e-10 -1.62136e-09 1.33387e-09)
(3.67815e-10 -1.57261e-09 1.35821e-09)
(-9.21358e-11 -1.48525e-09 1.36895e-09)
(-5.37534e-10 -1.50072e-09 1.32744e-09)
(-7.54828e-10 -1.51518e-09 1.27854e-09)
(2.06557e-11 2.90266e-11 1.71473e-11)
(0 0 0)
(0 0 0)
(0 0 0)
(1.10019e-11 1.86315e-11 1.45858e-11)
(7.54256e-11 -3.61764e-11 1.08865e-10)
(0 0 0)
(0 0 0)
(0 0 0)
(-8.43657e-12 -4.86446e-11 9.90414e-11)
(1.12558e-10 -2.35694e-10 2.76086e-10)
(0 0 0)
(0 0 0)
(0 0 0)
(-4.25315e-11 -2.31798e-10 2.57451e-10)
(1.07567e-10 -4.35693e-10 4.62626e-10)
(0 0 0)
(0 0 0)
(0 0 0)
(-4.24538e-11 -4.16133e-10 4.36276e-10)
(9.74683e-11 -6.13124e-10 6.44867e-10)
(0 0 0)
(0 0 0)
(0 0 0)
(-4.44951e-11 -5.78394e-10 6.11655e-10)
(1.20224e-10 -7.69312e-10 8.09848e-10)
(0 0 0)
(0 0 0)
(0 0 0)
(-8.64675e-11 -7.19547e-10 7.70429e-10)
(2.2404e-10 -9.46849e-10 9.37638e-10)
(0 0 0)
(0 0 0)
(0 0 0)
(-2.15836e-10 -8.81706e-10 8.92863e-10)
(4.30725e-10 -1.26679e-09 9.94552e-10)
(0 0 0)
(0 0 0)
(0 0 0)
(-4.52056e-10 -1.18132e-09 9.46227e-10)
(5.43697e-10 -1.51061e-09 9.93607e-10)
(3.01045e-10 -1.4728e-09 1.00918e-09)
(-7.68551e-11 -1.39028e-09 1.02568e-09)
(-4.40461e-10 -1.40381e-09 9.85952e-10)
(-6.24593e-10 -1.40942e-09 9.51425e-10)
(6.65895e-12 1.21188e-11 1.90109e-11)
(0 0 0)
(0 0 0)
(0 0 0)
(2.52732e-11 5.53656e-13 1.72009e-11)
(3.89127e-11 -6.99292e-11 9.88991e-11)
(0 0 0)
(0 0 0)
(0 0 0)
(3.00155e-11 -8.54969e-11 9.20567e-11)
(6.67994e-11 -2.68564e-10 2.33572e-10)
(0 0 0)
(0 0 0)
(0 0 0)
(8.15569e-12 -2.68913e-10 2.20536e-10)
(6.34801e-11 -4.63325e-10 3.83304e-10)
(0 0 0)
(0 0 0)
(0 0 0)
(9.81521e-12 -4.48563e-10 3.64503e-10)
(5.8945e-11 -6.26435e-10 5.29299e-10)
(0 0 0)
(0 0 0)
(0 0 0)
(5.47095e-12 -5.9673e-10 5.05078e-10)
(8.7805e-11 -7.58612e-10 6.55283e-10)
(0 0 0)
(0 0 0)
(0 0 0)
(-3.94854e-11 -7.13936e-10 6.26065e-10)
(1.95847e-10 -9.07121e-10 7.42047e-10)
(0 0 0)
(0 0 0)
(0 0 0)
(-1.70123e-10 -8.47017e-10 7.0858e-10)
(4.01064e-10 -1.19816e-09 7.69454e-10)
(0 0 0)
(0 0 0)
(0 0 0)
(-4.02245e-10 -1.11748e-09 7.33256e-10)
(5.09747e-10 -1.43175e-09 7.54304e-10)
(2.81289e-10 -1.40531e-09 7.56342e-10)
(-6.53734e-11 -1.331e-09 7.65793e-10)
(-3.97633e-10 -1.33862e-09 7.39033e-10)
(-5.68383e-10 -1.33458e-09 7.22773e-10)
(1.99545e-12 6.80124e-12 1.7868e-11)
(0 0 0)
(0 0 0)
(0 0 0)
(3.01234e-11 -5.56318e-12 1.66336e-11)
(2.74882e-11 -7.86267e-11 8.31011e-11)
(0 0 0)
(0 0 0)
(0 0 0)
(4.26817e-11 -9.64656e-11 7.84761e-11)
(5.43859e-11 -2.73215e-10 1.85221e-10)
(0 0 0)
(0 0 0)
(0 0 0)
(2.37643e-11 -2.76915e-10 1.76409e-10)
(5.4708e-11 -4.62262e-10 2.95902e-10)
(0 0 0)
(0 0 0)
(0 0 0)
(2.41013e-11 -4.51451e-10 2.83064e-10)
(5.55204e-11 -6.15825e-10 4.0244e-10)
(0 0 0)
(0 0 0)
(0 0 0)
(1.68729e-11 -5.90322e-10 3.85671e-10)
(8.92906e-11 -7.35334e-10 4.91331e-10)
(0 0 0)
(0 0 0)
(0 0 0)
(-3.05625e-11 -6.94881e-10 4.7086e-10)
(1.9951e-10 -8.71566e-10 5.48377e-10)
(0 0 0)
(0 0 0)
(0 0 0)
(-1.61038e-10 -8.15532e-10 5.24744e-10)
(4.01776e-10 -1.15072e-09 5.62738e-10)
(0 0 0)
(0 0 0)
(0 0 0)
(-3.8813e-10 -1.07379e-09 5.37077e-10)
(5.07364e-10 -1.37904e-09 5.47241e-10)
(2.83615e-10 -1.35961e-09 5.41964e-10)
(-5.69961e-11 -1.29169e-09 5.44734e-10)
(-3.83071e-10 -1.29463e-09 5.29706e-10)
(-5.49605e-10 -1.28491e-09 5.24882e-10)
(8.01148e-13 5.60154e-12 1.33572e-11)
(0 0 0)
(0 0 0)
(0 0 0)
(3.14321e-11 -7.26461e-12 1.2591e-11)
(2.51951e-11 -7.8563e-11 5.9031e-11)
(0 0 0)
(0 0 0)
(0 0 0)
(4.5732e-11 -9.78848e-11 5.61703e-11)
(5.3597e-11 -2.6805e-10 1.27371e-10)
(0 0 0)
(0 0 0)
(0 0 0)
(2.65318e-11 -2.74043e-10 1.21919e-10)
(5.72869e-11 -4.51636e-10 1.99688e-10)
(0 0 0)
(0 0 0)
(0 0 0)
(2.50153e-11 -4.43627e-10 1.91702e-10)
(6.20065e-11 -5.99269e-10 2.68307e-10)
(0 0 0)
(0 0 0)
(0 0 0)
(1.55855e-11 -5.768e-10 2.5779e-10)
(9.89775e-11 -7.13145e-10 3.24359e-10)
(0 0 0)
(0 0 0)
(0 0 0)
(-3.32966e-11 -6.75753e-10 3.11417e-10)
(2.10194e-10 -8.45326e-10 3.59065e-10)
(0 0 0)
(0 0 0)
(0 0 0)
(-1.63119e-10 -7.92218e-10 3.4403e-10)
(4.09921e-10 -1.11985e-09 3.66836e-10)
(0 0 0)
(0 0 0)
(0 0 0)
(-3.86208e-10 -1.04557e-09 3.5045e-10)
(5.13253e-10 -1.34532e-09 3.55765e-10)
(2.9061e-10 -1.32968e-09 3.49635e-10)
(-5.13031e-11 -1.26559e-09 3.49423e-10)
(-3.78581e-10 -1.26588e-09 3.41808e-10)
(-5.44326e-10 -1.25331e-09 3.41478e-10)
(6.06905e-13 5.53924e-12 7.03922e-12)
(0 0 0)
(0 0 0)
(0 0 0)
(3.16882e-11 -7.60264e-12 6.67275e-12)
(2.51977e-11 -7.67878e-11 3.04081e-11)
(0 0 0)
(0 0 0)
(0 0 0)
(4.61397e-11 -9.69397e-11 2.90414e-11)
(5.49549e-11 -2.62348e-10 6.45588e-11)
(0 0 0)
(0 0 0)
(0 0 0)
(2.62558e-11 -2.69656e-10 6.19531e-11)
(6.07769e-11 -4.42108e-10 1.00143e-10)
(0 0 0)
(0 0 0)
(0 0 0)
(2.3462e-11 -4.3574e-10 9.6315e-11)
(6.77517e-11 -5.86506e-10 1.33567e-10)
(0 0 0)
(0 0 0)
(0 0 0)
(1.27728e-11 -5.65841e-10 1.28505e-10)
(1.0645e-10 -6.98205e-10 1.60562e-10)
(0 0 0)
(0 0 0)
(0 0 0)
(-3.67955e-11 -6.62647e-10 1.54304e-10)
(2.18082e-10 -8.29418e-10 1.77021e-10)
(0 0 0)
(0 0 0)
(0 0 0)
(-1.66054e-10 -7.78063e-10 1.69722e-10)
(4.16232e-10 -1.10223e-09 1.80525e-10)
(0 0 0)
(0 0 0)
(0 0 0)
(-3.86691e-10 -1.02955e-09 1.72551e-10)
(5.18137e-10 -1.32633e-09 1.74961e-10)
(2.95623e-10 -1.31251e-09 1.71337e-10)
(-4.80066e-11 -1.25031e-09 1.70707e-10)
(-3.7694e-10 -1.2494e-09 1.67526e-10)
(-5.42734e-10 -1.23558e-09 1.68005e-10)
(9.91173e-12 -2.87236e-13 0)
(7.01054e-12 -1.4552e-11 0)
(3.20702e-13 -2.36221e-11 0)
(-2.67958e-12 -1.87592e-11 0)
(1.69785e-11 -1.39902e-11 0)
(3.5915e-11 -8.4585e-11 0)
(2.43309e-11 -1.10047e-10 0)
(3.2961e-12 -1.27882e-10 0)
(-9.22395e-12 -1.16955e-10 0)
(1.16296e-11 -1.00718e-10 0)
(6.22348e-11 -2.63329e-10 0)
(3.73591e-11 -2.80014e-10 0)
(7.7001e-12 -2.93755e-10 0)
(-1.25145e-11 -2.82513e-10 0)
(-4.31253e-12 -2.69401e-10 0)
(6.72575e-11 -4.39559e-10 0)
(3.88201e-11 -4.51021e-10 0)
(9.34696e-12 -4.60322e-10 0)
(-1.10071e-11 -4.47261e-10 0)
(-6.36194e-12 -4.33977e-10 0)
(7.36229e-11 -5.87143e-10 0)
(4.04674e-11 -6.06976e-10 0)
(7.11645e-12 -6.18739e-10 0)
(-1.71917e-11 -5.96271e-10 0)
(-1.67305e-11 -5.6919e-10 0)
(1.11867e-10 -7.11005e-10 0)
(6.31689e-11 -7.52039e-10 0)
(7.3363e-13 -7.70478e-10 0)
(-5.24206e-11 -7.34026e-10 0)
(-6.6384e-11 -6.80114e-10 0)
(2.21114e-10 -8.58784e-10 0)
(1.31582e-10 -9.16376e-10 0)
(-1.01724e-11 -9.3273e-10 0)
(-1.41823e-10 -8.90466e-10 0)
(-1.94364e-10 -8.14031e-10 0)
(4.05332e-10 -1.13172e-09 0)
(2.39172e-10 -1.16411e-09 0)
(-2.63093e-11 -1.152e-09 0)
(-2.79534e-10 -1.12681e-09 0)
(-4.03661e-10 -1.0676e-09 0)
(5.09086e-10 -1.32765e-09 0)
(2.97725e-10 -1.31275e-09 0)
(-4.13615e-11 -1.26445e-09 0)
(-3.66199e-10 -1.25905e-09 0)
(-5.38746e-10 -1.24505e-09 0)
)
;

boundaryField
{
    interface
    {
        type            calculated;
    }
    symmetry
    {
        type            symmetry;
    }
    bottom
    {
        type            calculated;
    }
}


// ************************************************************************* //
