/*--------------------------------*- C++ -*----------------------------------*\
| =========                 |                                                 |
| \\      /  F ield         | OpenFOAM: The Open Source CFD Toolbox           |
|  \\    /   O peration     | Version:  v1912                                 |
|   \\  /    A nd           | Website:  www.openfoam.com                      |
|    \\/     M anipulation  |                                                 |
\*---------------------------------------------------------------------------*/
FoamFile
{
    version     2.0;
    format      ascii;
    class       volSymmTensorField;
    location    "0.62/solid";
    object      sigma;
}
// * * * * * * * * * * * * * * * * * * * * * * * * * * * * * * * * * * * * * //

dimensions      [1 -1 -2 0 0 0 0];


internalField   nonuniform List<symmTensor> 
256
(
(-180787 26082.7 -10063.4 441103 28925 -193426)
(72743.3 -7407.47 -4187.5 280226 28658.2 -231083)
(74379.3 8195.51 4043.62 277514 28831.3 -226434)
(-155977 -24845.9 10014.5 433614 29572.8 -178153)
(-213327 -655.905 -15193.7 154100 2605.91 -220839)
(-29164.6 -4947.18 -6848.89 82933.3 4080.5 -275249)
(-26353.9 6100.82 6771.02 81987 4272.08 -270082)
(-185920 1222.35 15168.3 154425 3234.29 -204380)
(-214707 -4138.2 -16282.2 152113 -991.191 -221793)
(-41357.1 -4080.86 -7483.44 52413.8 -685.09 -283916)
(-38568.4 5092.23 7472.78 51746.9 -555.94 -278602)
(-186966 4544.13 16280.5 152733 -555.833 -205042)
(-212931 -2584.08 -16854 170881 363.976 -222685)
(-33210.8 -2976.06 -7775.37 43883.8 79.4856 -289163)
(-30437.7 3729.82 7787.52 43324 163.625 -283740)
(-184769 2905.34 16863.4 171587 662.861 -205646)
(-219470 -294.567 -17452.2 177699 3106.65 -231333)
(-30749.8 -1480.69 -8099.51 35818.8 2678.14 -301358)
(-27941.3 1992.41 8112.36 35292.3 2738.19 -295844)
(-190821 521.613 17468.4 178537 3325.24 -214006)
(-240664 3945.54 -17982.4 157805 7992.02 -251883)
(-46383.9 1125.93 -8414.52 13428.8 7738.49 -327267)
(-43559.8 -901.723 8423.75 12943.7 7784.95 -321666)
(-211587 -3858.29 18007.8 158857 8160.04 -234231)
(-276841 12059.7 -17899.8 48837.4 15964 -285114)
(-82588.8 5357.1 -8407.92 -79062.3 16630.2 -369650)
(-79722.3 -5591.98 8416.39 -78779.5 16661.9 -363889)
(-247358 -12180 17936.1 51888.5 16079.8 -266936)
(-207233 16573.3 -16510.1 -215374 20213.4 -215170)
(29024 7837.26 -7770.33 -296643 21795.8 -296308)
(31869.2 -7745.71 7767.23 -291085 21816.1 -290769)
(-177841 -16549.8 16539.4 -197850 20285.1 -197751)
(-217328 15795.7 -7569.46 218511 -2901.94 54405.2)
(-33988.4 -9748.8 -2244.25 50368.8 9542.29 -39744.6)
(-32612.8 10351.5 2551.46 47611.7 10199.6 -40056.2)
(-192928 -14656.4 7709.8 211333 -924.906 55939.8)
(-254910 -2338.09 -11477.3 59097.6 2675.33 -18810.8)
(-127981 -5419.97 -4536.8 -41311.1 9081.07 -129179)
(-125231 6125.84 5025.91 -42512.5 9494.29 -128691)
(-227788 2676.5 11680.6 58924.4 3982.67 -15173.8)
(-261413 -4296.84 -11963.2 44434.2 2529.56 -27144.2)
(-148589 -4090.85 -4900.92 -83680.7 4566.31 -151948)
(-145796 4591.37 5466.25 -84324.6 4853.26 -151442)
(-233851 4468.13 12188.7 45155.6 3473.21 -23683.5)
(-263908 -2733.99 -12099.8 45074.8 3095.17 -24897.5)
(-148634 -2996.51 -4898.12 -109138 3478.35 -158561)
(-145837 3306.32 5494.38 -109571 3689.58 -158093)
(-235859 2865.02 12338.1 46104 3803.24 -21606.9)
(-274015 -519.446 -12391.7 43227.3 6738.27 -26859.8)
(-152483 -1597.03 -5051.7 -126777 6633.24 -167156)
(-149640 1753 5652.05 -127171 6793.63 -166720)
(-245379 602.726 12638.8 44387.5 7275.77 -23641.4)
(-300175 3850.24 -12655.3 25789.7 12590 -39827.1)
(-174294 984.06 -5263.47 -148024 12385.6 -187464)
(-171429 -1032.13 5855.02 -148400 12505.3 -187066)
(-270955 -3868.08 12911 27097.7 12989.1 -36632.3)
(-345149 12611.7 -12539 -64494.8 17362.5 -65433.5)
(-217032 5403.96 -5293.92 -220528 17412.2 -220938)
(-214122 -5816.23 5856.85 -220154 17485.3 -220497)
(-315368 -12803.8 12795.9 -61236.7 17613.7 -62021.7)
(-277139 17936.7 -11948.5 -285313 16078.5 48603)
(-82540.8 8444.97 -5188.51 -369890 16720.9 -78667.7)
(-79636.7 -8401.24 5666.35 -364062 16749.8 -78288.7)
(-247409 -17941.4 12171.9 -266899 16180.4 51868)
(-191242 8996.7 -3061.72 153524 9452.13 100449)
(-31906.2 -12588.6 -274.783 370.179 20939.4 -1586.88)
(-30514.5 12825.2 488.262 -2129.83 21400.9 -2259.52)
(-167355 -8040.4 3122.28 147325 10874.7 101193)
(-212212 -3167.38 -4435.82 51275.3 12430.9 66987.4)
(-92551.1 -5998.42 -1054.09 -47807.7 18225.4 -57586.8)
(-89903.1 6434.34 1390.08 -49068.7 18603.6 -57699.3)
(-185878 3397.07 4547.41 50911 13616.1 69189.4)
(-216595 -4087.38 -4303 49557.3 11007.8 55830.4)
(-107620 -4013.55 -1063.33 -74743 12906.6 -84117)
(-104935 4277.74 1418.79 -75496.5 13214.3 -84230.4)
(-189840 4163.32 4427.05 49912.4 11981.5 57775.1)
(-219317 -2669.5 -4088.29 53231.5 10008 54008.6)
(-107840 -2979.41 -896.048 -94365.3 10394.1 -95514.3)
(-105144 3084.41 1248.82 -94898 10645.1 -95685.9)
(-192050 2719.77 4214.25 53905.7 10804.7 55706.9)
(-229276 -563.949 -4030.94 54517.2 11598.6 50953)
(-111757 -1706.99 -859.581 -107927 11543.8 -106199)
(-109000 1698.52 1203.99 -108405 11746.9 -106425)
(-201341 586.835 4157.86 55354.4 12239.1 52506.2)
(-254969 3889.94 -4001.95 43713.9 14072.4 39831.9)
(-132531 875.199 -910.698 -122304 13897.6 -125495)
(-129722 -1042.14 1240.18 -122747 14054.3 -125771)
(-226281 -3946.24 4130.19 44737.4 14564.1 41325)
(-300256 12724.2 -3939.75 -37868.6 13382.2 23907.9)
(-173602 5350.73 -988.973 -185867 13140.3 -149041)
(-170710 -5835.22 1275.15 -185537 13241.6 -149262)
(-270749 -12934.6 4060.44 -34830.5 13706.6 25642.2)
(-240987 18013.1 -3973.58 -251924 8448.1 157984)
(-45550.5 8436.03 -1057.09 -327219 8166.59 14551.6)
(-42661.4 -8409.97 1219.36 -321496 8202.28 14265.8)
(-211370 -18018.9 4050.29 -233881 8569 159550)
(-173992 6241.32 -836.913 127899 13428.3 97389)
(-28161.2 -13469.5 570.965 -14027.7 20302.6 -1697.47)
(-26778.2 13425.8 -399.873 -16301.5 20623.6 -2252.81)
(-150551 -5454.36 871.917 122560 14437 98519.6)
(-187456 -3288.53 -1010.66 42247.8 16183.9 81409.9)
(-74437.5 -6096.27 699.313 -53358.2 19639.3 -41827.2)
(-71845.8 6335.66 -424.591 -54498.2 19936.2 -41860.4)
(-161716 3439.38 1083.2 42156.9 17110.5 83832)
(-190415 -3730.59 -696.134 48055.7 15364.7 70868)
(-85638.2 -3829.43 877.53 -71073.1 16458.1 -67173.8)
(-83005.7 3956.57 -602.435 -71785.3 16723.3 -67207.6)
(-164268 3756.75 775.433 48451.6 16189.4 73018.3)
(-193236 -2434.92 -407.966 57760 13848.9 64840)
(-85560.3 -2852.26 1067.9 -82739.8 13986.1 -82386.9)
(-82909 2857.6 -813.874 -83262.5 14217.8 -82476.5)
(-166560 2448.38 482.873 58389.8 14567.7 66738.5)
(-203255 -450.556 -242.502 63631.8 13177 58987.3)
(-89575.8 -1691.67 1161.95 -90879.6 13064 -95884.8)
(-86853.5 1611.82 -927.569 -91349.2 13260.1 -96032.2)
(-175856 448.625 312.433 64413.5 13781.7 60722.5)
(-228669 3918.37 -163.636 55759.8 12193.6 49123.8)
(-109870 800.056 1156.58 -102280 12061.4 -114034)
(-107078 -1013.76 -944.417 -102705 12216.5 -114232)
(-200400 -3986.74 228.854 56753.3 12670.9 50791)
(-273328 12489.2 -209.049 -23704.7 8595.62 40942.5)
(-149535 5124.12 1041.78 -164481 8400.39 -129786)
(-146631 -5636.84 -879.995 -164123 8501.9 -129920)
(-244051 -12700.9 260.797 -20663.5 8915.76 42859.9)
(-218687 17521.4 -373.213 -230848 4154.71 180692)
(-26912.8 8123.81 977.084 -300718 3744.92 38083.3)
(-24001.8 -8110.46 -942.036 -295017 3778 37878.3)
(-189128 -17525.7 378.443 -212929 4266.4 182405)
(-164527 5409.47 -157.656 116094 12499.1 90558)
(-27305.3 -13309.8 602.019 -19286.5 15940.2 -3880.56)
(-25944.1 13093 -467.886 -21393.9 16167.1 -4338.05)
(-141391 -4740.3 186.285 111410 13211.3 92010.8)
(-175703 -3127.14 -3.19645 35681.6 14837.6 79585.1)
(-68700.4 -5919.26 953.288 -56775.4 16513.2 -37497.9)
(-66168.1 6026.18 -728.365 -57803.1 16732.2 -37429.9)
(-150368 3222.05 62.932 35890.3 15518.1 82293.3)
(-178249 -3422.59 270.41 43907.2 14922.3 70613.4)
(-78357.8 -3644.4 1147.68 -70984.1 15379.2 -60233.3)
(-75781.7 3680.18 -921.532 -71641.7 15583.6 -60165.4)
(-152515 3416.24 -205.618 44436.8 15554.5 73044.8)
(-181241 -2211.81 494.515 57019.7 13673.2 63206.9)
(-78232.9 -2725.93 1289.01 -78120.6 13640.5 -76261.4)
(-75632.2 2671.86 -1086.13 -78622.7 13826.4 -76247.1)
(-154962 2204.35 -435.629 57694.2 14247 65387.1)
(-191397 -330.574 634.037 65740.6 11940.3 56270.5)
(-82415.1 -1648.94 1361.38 -82876.4 11824.4 -90591.7)
(-79737.5 1531.88 -1182.5 -83338.1 11986.6 -90635.1)
(-164355 316.39 -582.555 66532.1 12438.9 58281.8)
(-216637 3902.63 682.645 58952.5 9363.88 47905.3)
(-102487 735.292 1352.7 -93245.2 9313.48 -107175)
(-99729.5 -971.37 -1199.99 -93662.9 9444.06 -107267)
(-188655 -3975.68 -639.002 59953.8 9765.88 49842.6)
(-260629 12206.5 600.683 -19402.6 5330.28 43898.7)
(-141267 4900.57 1248.57 -155148 5280.53 -118888)
(-138379 -5428.34 -1144.67 -154780 5366.49 -118913)
(-231523 -12417.9 -572.506 -16343.8 5602.81 46083.9)
(-208401 17041.4 449.942 -220167 2218.41 182682)
(-22432 7834.7 1199.45 -287039 1961.16 46581.3)
(-19525.2 -7832.46 -1204.87 -281345 1988.66 46483.6)
(-178892 -17046.7 -464.018 -202285 2311.55 184633)
(-159004 5211.41 -28.4645 110475 9728.55 86223.8)
(-27388.6 -12960.3 390.269 -21523.3 11336.5 -5079.38)
(-26042.4 12641.1 -294.62 -23512.5 11488.8 -5475.85)
(-136040 -4615.86 51.0673 106258 10201.7 87896.7)
(-169599 -2943.19 119.209 32446.8 11295.7 76387.6)
(-67216.7 -5722.94 658.706 -58071.4 12022.7 -35942.3)
(-64727.4 5747.23 -492.249 -59017.4 12172.4 -35807)
(-144502 3002.43 -71.7536 32896.2 11758 79313.1)
(-172145 -3215.71 297.135 41216.1 11676.1 68698.9)
(-76446.6 -3514.87 794.176 -71056 11815.6 -56569.1)
(-73912.6 3489.91 -623.286 -71670.2 11958.3 -56432.8)
(-146653 3187.66 -245.091 41877 12116.5 71349.4)
(-175293 -2063.9 435.407 55502.4 10842 61627.5)
(-76415.9 -2646.62 877.287 -76409.2 10763.5 -71882.8)
(-73853.8 2552.17 -724.26 -76893.5 10896.2 -71799.7)
(-149244 2042.44 -388.2 56240 11251.8 64025.7)
(-185534 -254.946 520.331 65357.4 9117.88 54971.5)
(-80724.1 -1623.98 915.13 -79740.9 9041.1 -85772.3)
(-78081.3 1481.87 -783.382 -80198.1 9159.23 -85747.1)
(-158695 232.658 -480.08 66176.5 9481.8 57197.9)
(-210622 3872.67 540.636 59003.1 6558.61 47792.6)
(-100651 685.931 901.692 -89738.7 6570.56 -101158)
(-97922.3 -937.424 -793.775 -90156.8 6666.84 -101182)
(-182799 -3949.19 -508.233 60018.8 6856.77 49939.6)
(-254093 12002.9 473.007 -18234.5 3331.52 45457)
(-138888 4754.64 830.686 -151069 3377.64 -111354)
(-136017 -5293.77 -762.673 -150701 3441.41 -111309)
(-225078 -12215.2 -454.231 -15162.3 3535.74 47845)
(-203138 16727 362.973 -214093 1283.38 182015)
(-22302.9 7654.37 792.501 -279357 1175.34 51139.1)
(-19404.8 -7661.29 -807.288 -273666 1195.82 51111.5)
(-173644 -16734.8 -377.302 -196222 1353.15 184147)
(-155777 5162.65 -16.5271 107903 6108.32 83986.6)
(-27534.7 -12715.9 196.013 -22461.6 6817.29 -5718.26)
(-26195.8 12339.9 -138.854 -24374.5 6905.02 -6078.19)
(-132903 -4609.27 30.9498 103985 6378.25 85798)
(-166231 -2825.38 59.1666 31164.6 6956.6 74345.2)
(-66843.8 -5598.87 335.811 -58405.2 7248.88 -35467.8)
(-64379.2 5576.15 -233.875 -59297.8 7335.95 -35291.6)
(-141259 2864.29 -28.5811 31779.7 7223.85 77415.4)
(-168854 -3099.69 150.95 39985.2 7249.27 67459.8)
(-76008.4 -3443.86 406.494 -70950.3 7277.08 -54832.2)
(-73498.7 3382.13 -299.926 -71534.5 7361 -54653.7)
(-143490 3058.5 -116.929 40745.4 7507.78 70260.5)
(-172102 -1983.68 221.283 54471.6 6775.54 61120.1)
(-76078.2 -2608.1 446.455 -75790.2 6717.09 -69229.6)
(-73538.4 2487.42 -350.426 -76261.1 6796.12 -69104.3)
(-146174 1953.08 -190.169 55264.1 7019.76 63668.1)
(-182377 -217.218 262.99 64594.8 5613.03 55118.8)
(-80453.4 -1615.56 461.731 -78710.4 5576.67 -82409.5)
(-77830.9 1456.04 -379.792 -79164 5647.81 -82342.6)
(-155643 189.197 -236.612 65441.6 5832.87 57491.7)
(-207348 3849.35 269.678 58424.8 3892.48 48680.8)
(-100284 655.824 451.153 -88563.4 3922.51 -97080.8)
(-97571.2 -918.776 -385.481 -88982.3 3981 -97063.2)
(-179605 -3928.84 -248.855 59455.3 4074.6 50969.7)
(-250479 11887.1 230.194 -17919.8 1897.1 46873)
(-138204 4678.9 412.938 -149289 1959.55 -106841)
(-135344 -5226.61 -373.132 -148923 1998.52 -106754)
(-221505 -12100.9 -218.496 -14836.8 2022.86 49396.7)
(-200172 16557.5 164.173 -210561 701.786 181720)
(-22800.5 7562.49 387.242 -275018 671.892 53645.4)
(-19907.4 -7576.01 -398.863 -269328 684.472 53659.7)
(-170674 -16567.8 -173.399 -192689 744.906 183974)
(-154257 5144.54 -7.44226 106916 2077.19 83065.8)
(-27589.4 -12605.3 57.8479 -22782.9 2280.23 -6009.63)
(-26253.4 12204.1 -38.8436 -24658.5 2308.88 -6352.12)
(-131421 -4610.31 12.3664 103143 2164.85 84944.4)
(-164668 -2774.38 13.4463 30767 2341.34 73450.1)
(-66722.7 -5545.34 98.8129 -58441 2420.18 -35377.7)
(-64269.2 5501.49 -64.5141 -59307.1 2448.73 -35182)
(-139750 2804.15 -2.92993 31466.1 2428.68 76592.4)
(-167338 -3050 40.8217 39559.2 2442.04 66946.7)
(-75891.9 -3414.77 119.798 -70841.8 2444.5 -54177.3)
(-73393.1 3335.84 -83.5876 -71410.9 2472.17 -53978.4)
(-142029 3002.69 -29.0233 40372.1 2527.17 69823.8)
(-170631 -1949.95 61.9148 54009 2287.4 61079.7)
(-76016 -2593.75 131.294 -75585.4 2267.33 -68036.2)
(-73486.2 2460.09 -98.5034 -76049.1 2293.53 -67890.5)
(-144755 1914.82 -51.0604 54832.5 2368.41 63704.3)
(-180915 -202.371 74.1375 64140.5 1885.73 55513.1)
(-80417.4 -1613.95 135.115 -78438.4 1875.93 -80772.1)
(-77803.9 1445.28 -107.195 -78889.7 1899.64 -80685.1)
(-154225 171.286 -64.9386 65004.1 1959.13 57960.6)
(-205824 3837.91 75.6068 58037.4 1292.5 49422.4)
(-100198 642.382 131.311 -88240.7 1306.48 -95116.9)
(-97493.3 -911.659 -109.119 -88659.9 1326.06 -95079.6)
(-178114 -3919.16 -68.3902 59077 1353.65 51783.1)
(-248790 11836.9 63.029 -17834.2 624.138 47745)
(-137971 4648.53 119.542 -148610 650.547 -104783)
(-135116 -5200.99 -106.28 -148245 663.631 -104676)
(-219830 -12051.8 -58.9983 -14744.7 666.543 50337)
(-198755 16486.1 41.0609 -208900 226.744 181738)
(-23066.2 7525.67 110.377 -273025 222.554 54758.4)
(-20175 -7542.67 -114.539 -267335 226.79 54792.5)
(-169250 -16497.8 -44.1671 -191026 241.313 184053)
)
;

boundaryField
{
    interface
    {
        type            calculated;
        value           nonuniform List<symmTensor> 
192
(
(-43.5344 0.354228 2.85081 911678 28925 277149)
(-45.3239 0.283136 4.57991 603226 2605.91 228287)
(-46.8247 -0.0194903 5.15517 607401 -991.191 233496)
(-47.7552 -0.44915 5.28569 636447 363.976 242881)
(-47.9935 -0.817873 5.21266 661990 3106.65 252958)
(-48.8539 -1.47733 5.05887 674599 7992.02 264910)
(-47.2474 -1.97374 4.65337 608377 15964 274426)
(-50.773 -4.38358 4.33636 287815 20213.4 288019)
(-42.3964 0.253009 1.40281 684857 -2901.94 520751)
(-43.2322 0.200622 2.41855 524814 2675.33 446906)
(-44.1312 -0.0714248 2.69292 520092 2529.56 448514)
(-44.7574 -0.511117 2.7033 533474 3095.17 463502)
(-44.7578 -0.902962 2.59797 553307 6738.27 483220)
(-45.5219 -1.63224 2.44856 574101 12590 508484)
(-43.6433 -2.18319 2.18703 538581 17362.5 537642)
(-47.2926 -4.71611 1.97646 274687 16078.5 608604)
(-45.0079 0.216166 1.10471 568252 9452.13 515177)
(-45.7462 0.160442 1.88257 462436 12430.9 478148)
(-46.6337 -0.107921 2.08846 469544 11007.8 475817)
(-47.2722 -0.57243 2.09091 485677 10008 486454)
(-47.1859 -1.00356 2.00496 508364 11598.6 504800)
(-47.8614 -1.81494 1.88422 535827 14072.4 531945)
(-45.5305 -2.44763 1.69312 510910 13382.2 572687)
(-48.9467 -5.15265 1.53063 265780 8448.1 675688)
(-45.2132 0.162725 0.675761 508383 13428.3 477873)
(-45.7618 0.0866728 1.21796 416865 16183.9 456027)
(-46.4613 -0.182496 1.3543 430637 15364.7 453449)
(-46.9932 -0.654363 1.34313 452614 13848.9 459694)
(-46.7943 -1.10351 1.27102 479750 13177 475105)
(-47.396 -1.95106 1.17768 509928 12193.6 503292)
(-44.9055 -2.62061 1.05482 487120 8595.62 551768)
(-48.2621 -5.37021 0.955066 254504 4154.71 666044)
(-46.0011 0.137246 0.49409 476330 12499.1 450794)
(-46.4933 0.0412338 0.890993 389468 14837.6 433372)
(-47.1098 -0.237021 0.991511 405356 14922.3 432062)
(-47.5929 -0.71961 0.98319 430714 13673.2 436901)
(-47.3192 -1.18738 0.929976 460675 11940.3 451205)
(-47.8463 -2.06586 0.860472 491735 9363.88 480688)
(-45.1814 -2.76915 0.77395 469601 5330.28 532902)
(-48.3998 -5.56315 0.701635 245840 2218.41 648689)
(-46.2076 0.117372 0.301886 458589 9728.55 434337)
(-46.6495 0.00480006 0.562744 374097 11295.7 418038)
(-47.1931 -0.281591 0.629285 390471 11676.1 417954)
(-47.6291 -0.770659 0.622326 417023 10842 423148)
(-47.3014 -1.249 0.585685 448104 9117.88 437718)
(-47.7836 -2.14342 0.53885 479411 6558.61 468200)
(-45.0361 -2.86449 0.485015 457933 3331.52 521625)
(-48.2018 -5.68118 0.441453 240188 1283.38 636296)
(-46.4661 0.107705 0.177071 449022 6108.32 425106)
(-46.8898 -0.0162004 0.32971 365894 6956.6 409075)
(-47.3952 -0.309702 0.368955 382326 7249.27 409801)
(-47.8052 -0.804149 0.365032 409097 6775.54 415745)
(-47.443 -1.29047 0.343818 440426 5613.03 430950)
(-47.8908 -2.19591 0.316128 471773 3892.48 462029)
(-45.0785 -2.92954 0.285518 450845 1897.1 515638)
(-48.1931 -5.76307 0.259416 236807 701.786 629088)
(-46.5292 0.101661 0.0524452 444806 2077.19 420955)
(-46.9401 -0.0280165 0.101262 362310 2341.34 404993)
(-47.4241 -0.324591 0.113972 378723 2442.04 406110)
(-47.8196 -0.820851 0.112502 405465 2287.4 412536)
(-47.4427 -1.31045 0.105577 436788 1885.73 428161)
(-47.8745 -2.22002 0.0965296 468125 1292.5 459510)
(-45.0425 -2.95943 0.0873255 447491 624.138 513070)
(-48.1312 -5.80002 0.0790778 235214 226.744 625852)
(313299 26082.7 -4.03875 935189 -0.938049 -16.2937)
(256261 -655.905 -6.81267 623688 -1.08201 -11.9785)
(261229 -4138.2 -7.83986 628048 -0.876134 -8.18609)
(274580 -2584.08 -8.16655 658392 -0.625432 -6.81941)
(287736 -294.567 -8.24647 684906 -0.521411 -6.68246)
(298945 3945.54 -8.31414 697415 -0.561466 -7.52774)
(304858 12059.7 -8.41639 630537 -0.690971 -9.55733)
(318086 16573.3 -9.18294 309945 -0.905446 -11.2968)
(578258 -7407.47 -2.44982 785741 -0.554312 -20.6648)
(476218 -4947.18 -4.65476 588316 -0.793122 -19.6898)
(475130 -4080.86 -5.40063 568900 -0.648545 -18.441)
(497312 -2976.06 -5.60039 574406 -0.376574 -18.07)
(522327 -1480.69 -5.64961 588895 -0.204469 -18.0481)
(544771 1125.93 -5.75172 604584 -0.116591 -18.3967)
(562157 5357.1 -6.02368 565684 -0.134063 -19.0706)
(625426 7837.26 -7.04882 299759 -0.218822 -19.5095)
(571008 8195.51 -2.48629 774143 -0.39187 -17.7741)
(469725 6100.82 -4.76184 578066 -0.610052 -17.0281)
(468250 5092.23 -5.56621 558565 -0.491966 -15.8711)
(490164 3729.82 -5.79148 563926 -0.20718 -15.4914)
(515033 1992.41 -5.83457 578267 0.00777131 -15.4901)
(537319 -901.723 -5.89949 593822 0.180927 -15.8251)
(554502 -5591.98 -6.10445 555445 0.276703 -16.5706)
(618101 -7745.71 -7.07513 295147 0.2852 -17.4331)
(310678 -24845.9 -2.8107 900269 -0.312864 -18.1941)
(255526 1222.35 -5.51383 595871 -0.497993 -17.749)
(259919 4544.13 -6.53138 599618 -0.378682 -16.7699)
(272993 2905.34 -6.83314 629350 -0.0795723 -16.5086)
(286087 521.613 -6.88588 655445 0.150597 -16.5845)
(297163 -3858.29 -6.96201 667607 0.36376 -16.8627)
(302736 -12180 -7.10123 601983 0.52395 -17.3974)
(317134 -16549.8 -8.10325 297125 0.677846 -18.0608)
(-8.79206 0.847489 0.876804 859976 29572.8 248209)
(-5.69951 0.963792 1.69209 557007 3234.29 198202)
(-2.94799 0.569573 1.94166 560653 -555.833 202878)
(-1.69074 0.000966004 2.03474 588889 662.861 211656)
(-1.39155 -0.294294 2.08387 613707 3325.24 221165)
(-0.114076 -0.709452 2.28816 625815 8160.04 232727)
(-0.96345 -0.67699 2.43445 561060 16079.8 242236)
(7.75249 -2.89898 2.98934 255091 20285.1 255190)
(-13.6636 0.338266 -0.243961 633798 -924.906 478405)
(-13.0309 0.403988 -0.124313 478684 3982.67 404585)
(-12.2242 0.192323 -0.168945 473935 3473.21 405096)
(-11.6781 -0.15306 -0.179014 486616 3803.24 418906)
(-11.5555 -0.259022 -0.127505 505516 7275.77 437488)
(-10.0077 -0.522506 0.0940021 525415 12989.1 461685)
(-10.179 -0.254143 0.363959 490968 17613.7 490183)
(-0.918697 -2.36184 0.814531 242340 16180.4 561106)
(-13.9224 0.184728 -0.0697459 519321 10874.7 473188)
(-13.4611 0.189141 0.144827 417434 13616.1 435712)
(-12.8243 0.0559749 0.21516 424341 11981.5 432203)
(-12.2047 -0.179315 0.263221 439735 10804.7 441536)
(-11.9716 -0.175711 0.330643 461380 12239.1 458532)
(-10.0341 -0.357312 0.502473 487694 14564.1 484282)
(-9.87676 0.0234788 0.677232 463468 13706.6 523940)
(0.127621 -2.21143 0.918 233101 8569 626532)
(-15.4154 0.0844163 -0.113865 461297 14437 437257)
(-15.2005 0.0455892 0.0691248 373223 17110.5 414898)
(-14.8684 -0.0350029 0.148862 386573 16189.4 411139)
(-14.2951 -0.181206 0.198315 407696 14567.7 416045)
(-14.007 -0.0835926 0.255602 433681 13781.7 429990)
(-11.7719 -0.189796 0.379635 462537 12670.9 456575)
(-11.2422 0.270935 0.496347 440130 8915.76 503653)
(-0.797253 -2.00391 0.638849 221797 4266.4 617131)
(-15.6902 0.0678 -0.0036813 430573 13211.3 411174)
(-15.4706 0.0132164 0.1839 346867 15518.1 393270)
(-15.1592 -0.0472246 0.278589 362174 15554.5 390782)
(-14.5217 -0.157863 0.330544 386561 14247 394253)
(-14.1598 -0.0159329 0.373925 415267 12438.9 407017)
(-11.7506 -0.0918733 0.449271 444883 9765.88 434772)
(-11.0763 0.393982 0.504601 422958 5602.81 485385)
(-0.387317 -1.94833 0.563863 213184 2311.55 600102)
(-16.1465 0.0616862 -0.00371697 413698 10201.7 395337)
(-15.9366 0.00209979 0.133409 332177 11758 378594)
(-15.6439 -0.0461706 0.20719 347864 12116.5 377337)
(-14.9669 -0.135978 0.246208 373356 11251.8 381141)
(-14.548 0.0349372 0.275736 403096 9481.8 394117)
(-12.0184 -0.0211729 0.322621 432869 6856.77 422790)
(-11.2298 0.478163 0.353418 411480 3535.74 474487)
(-0.358243 -1.90269 0.384295 207545 1353.15 587914)
(-16.2651 0.0642858 0.0150225 404651 6378.25 386464)
(-16.0413 0.00441518 0.10292 324382 7223.85 370018)
(-15.7363 -0.0385195 0.150371 340062 7507.78 369577)
(-15.0251 -0.120152 0.174599 365715 7019.76 374119)
(-14.5682 0.0634887 0.191573 395649 5832.87 387699)
(-11.9705 0.0147584 0.215636 425404 4074.6 416918)
(-11.1334 0.51838 0.229124 404490 2022.86 468724)
(-0.159865 -1.89151 0.239971 204164 744.906 580826)
(-16.3768 0.064504 0.000583216 400677 2164.85 382478)
(-16.1517 0.00503788 0.0284963 320989 2428.68 366115)
(-15.8432 -0.0348149 0.0441732 336617 2527.17 366069)
(-15.1176 -0.112108 0.0521578 362216 2368.41 371087)
(-14.641 0.0778081 0.0579642 392116 1959.13 385073)
(-12.0088 0.0332652 0.0659026 421833 1353.65 414539)
(-11.138 0.538943 0.0709551 401178 666.543 466259)
(-0.117914 -1.88353 0.0745418 202565 241.313 577644)
(318574 9.25613 -16510.1 -10.8218 -0.790171 310637)
(305332 8.51714 -11948.5 -8.83936 -0.572207 631074)
(299723 8.46127 -3973.58 -6.29898 -0.392373 698693)
(289981 8.46569 -373.213 -4.70059 -0.254766 689360)
(280670 8.53566 449.942 -3.4629 -0.18324 671753)
(273770 8.57982 362.973 -2.59349 -0.112984 658923)
(269499 8.6189 164.173 -2.04157 -0.0683201 651392)
(267510 8.63588 41.0609 -1.77618 -0.0205636 648003)
(625904 7.0945 -7770.33 -19.1241 -0.0812026 300572)
(562878 6.07211 -5188.51 -18.5613 0.00981844 566751)
(546483 5.80659 -1057.09 -17.5709 0.0866903 606585)
(527291 5.71122 977.084 -16.844 0.0996488 592287)
(509455 5.69654 1199.45 -16.2247 0.0870115 578469)
(496118 5.68639 792.501 -15.7731 0.0679502 569560)
(487768 5.68952 387.242 -15.4768 0.0408906 564214)
(483849 5.68971 110.377 -15.3219 0.0149071 561674)
(618509 7.11885 7767.23 -17.0672 0.435791 295871)
(555120 6.13959 5666.35 -16.0765 0.4355 556468)
(538861 5.93438 1219.36 -15.0198 0.400537 595789)
(519747 5.88049 -942.036 -14.3069 0.32546 581627)
(501923 5.88881 -1204.87 -13.6758 0.254429 567932)
(488581 5.89208 -807.288 -13.2551 0.178362 559097)
(480226 5.90211 -398.863 -12.9642 0.106108 553793)
(476305 5.90474 -114.539 -12.8305 0.0350176 551272)
(317375 8.11992 16539.4 -17.7346 0.830446 297465)
(303004 7.10669 12171.9 -16.9748 0.685226 602281)
(297758 6.96291 4050.29 -16.2115 0.578738 668678)
(288161 6.90379 378.443 -15.6773 0.453272 659695)
(278859 6.92638 -464.018 -15.1518 0.351738 642384)
(271958 6.93361 -377.302 -14.8275 0.242695 629749)
(267690 6.9497 -173.399 -14.5877 0.145644 622338)
(265704 6.95478 -44.1671 -14.4789 0.0475269 619008)
)
;
    }
    symmetry
    {
        type            symmetry;
    }
    bottom
    {
        type            calculated;
        value           nonuniform List<symmTensor> 
32
(
(-733815 78628.7 -10063.4 135942 74819.8 -746453)
(-508427 52379.7 -7569.46 45029.9 -10925.6 -236693)
(-428731 35307.5 -3061.72 4492.57 1537.96 -137040)
(-392616 28091.6 -836.913 -8676.5 9164.4 -121235)
(-373709 25485.8 -157.656 -14040.7 10367.8 -118624)
(-362986 24507.2 -28.4645 -16451.7 8680.56 -117758)
(-356901 24072.6 -16.5271 -17369.6 5630.71 -117138)
(-354094 23885.8 -7.44226 -17626.5 1940.13 -116771)
(-242563 -6083.54 -4187.5 100084 68020.8 -546389)
(-106941 -10761.6 -2244.25 3039.24 3404.37 -112697)
(-69952.3 -15466 -274.783 -26988.4 15642 -39633)
(-58921.2 -16946.7 570.965 -32523.9 17655.5 -32457.4)
(-55728.7 -16834 602.019 -34382.2 14616.1 -32304)
(-55019.2 -16419.1 390.269 -35757.7 10667 -32710)
(-54878.2 -16123.6 196.013 -36562.7 6508.1 -33061.8)
(-54829.5 -15989.9 57.8479 -36882.7 2191.69 -33249.7)
(-238033 5834.85 4043.62 99232.6 67974.9 -538847)
(-105242 10310.9 2551.46 167.97 4181.32 -112686)
(-68410.9 14629.8 488.262 -29624.8 16180.9 -40155.9)
(-57415.2 15858.8 -399.873 -34936 18020.2 -32889.8)
(-54261.7 15611.1 -467.886 -36634.9 14870 -32655.6)
(-53577.5 15125.3 -294.62 -37894.7 10836.4 -33011)
(-53449.8 14794.2 -138.854 -38624.1 6605.46 -33332.2)
(-53406.6 14645.9 -38.8436 -38907.1 2223.45 -33505.4)
(-693821 -76800 10014.5 137752 75017.6 -715997)
(-476198 -50597.9 7709.8 41511.4 -8599.63 -227330)
(-397495 -33783.5 3122.28 2124.13 3178.55 -128948)
(-361977 -26804.2 871.917 -10053.5 10301.4 -112907)
(-343494 -24353.5 186.285 -14700.1 11160.7 -110093)
(-333019 -23466.6 51.0673 -16597 9204.33 -109082)
(-327066 -23082.5 30.9498 -17186.4 5928.7 -108365)
(-324315 -22918.2 12.3664 -17284.2 2036.79 -107950)
)
;
    }
}


// ************************************************************************* //
