/*--------------------------------*- C++ -*----------------------------------*\
| =========                 |                                                 |
| \\      /  F ield         | OpenFOAM: The Open Source CFD Toolbox           |
|  \\    /   O peration     | Version:  v1912                                 |
|   \\  /    A nd           | Website:  www.openfoam.com                      |
|    \\/     M anipulation  |                                                 |
\*---------------------------------------------------------------------------*/
FoamFile
{
    version     2.0;
    format      ascii;
    class       volScalarField;
    location    "0.62/solid";
    object      sigmaEq;
}
// * * * * * * * * * * * * * * * * * * * * * * * * * * * * * * * * * * * * * //

dimensions      [1 -1 -2 0 0 0 0];


internalField   nonuniform List<scalar> 
256
(
632156
448418
442270
604947
372201
317763
312811
350976
371558
300985
296138
350315
389901
302317
297508
368436
404399
309675
304865
382721
405688
315704
310881
383858
333154
290786
286634
313011
54149.5
328239
325556
57229.3
382503
90599.3
87986.4
354372
283972
89522.5
87174.3
258704
277989
68023.4
66190.9
252821
281490
46751.9
45541.9
255970
289686
38334.3
37734.4
263665
300284
41902.2
41354.2
273776
283474
33091.7
34061.3
257483
333176
291258
287111
313009
322367
52663.6
51673.9
295318
272699
52610
50574.6
247758
270214
37577.1
35645.5
244886
273618
22815.8
21695.7
247722
282830
20856.9
20794.7
256266
297917
25813.8
25242
270688
299904
40764.8
40384.7
273306
406073
316694
311900
384294
288996
48040.7
47660.8
263284
253208
45721.2
44645.4
229596
252151
33809
32943.5
227836
255773
24974.7
25167.1
230663
265579
23620.3
24516.6
239639
282044
23429.3
23560
255264
288649
34673.9
34525.6
262393
406794
311822
307070
385257
269798
41472.8
41088.6
244891
237868
40860.8
40073.7
215039
238123
31663.6
31114
214485
242604
24272.4
24616
218041
253384
22281.4
23124.8
227898
270809
20446.1
20348.7
244397
279285
34125.2
33851.2
253358
398211
305354
300648
376948
258915
35932.9
35397.5
234463
228124
36178.7
35329.5
205671
229308
27835.3
27167.6
206009
234699
19783.8
19924.8
210421
246372
16942.9
17524.9
221132
264530
16070
15300.7
238334
274179
36687.8
36197.8
248488
391825
300883
296198
370740
252952
31869.1
31165.9
228745
222536
32294.1
31288.9
200257
224261
23703.3
22784.1
201119
230295
14190.7
14022.8
206156
242568
10584.9
10890.6
217454
261210
12575.5
10963
235137
271634
39139.6
38527.3
246098
388254
298181
293506
367277
250287
29620.2
28804.2
226187
219995
30022.6
28899.1
197785
221966
20983.8
19852.4
198886
228317
9802.22
9283.73
204236
240880
4813.59
4845.48
215821
259756
10698.3
8386.75
233740
270571
40421.5
39763
245113
386721
296916
292247
365797
)
;

boundaryField
{
    interface
    {
        type            calculated;
        value           nonuniform List<scalar> 
192
(
811085
527585
530729
556343
578650
588889
528474
290088
619392
490587
488317
502231
521981
544749
538995
528671
543952
471027
473143
486422
507037
534500
544972
589804
494428
438704
443330
456873
478037
507130
522709
582213
464640
414018
420190
434534
456530
486624
504370
567291
447320
398419
405464
420586
443331
474089
492954
556579
437729
389518
397023
412676
435921
467074
486544
550364
433435
385496
393202
409113
432599
463931
483673
547585
825713
542993
546515
572817
595670
606070
546568
315415
705410
541135
528359
540045
558618
577029
564024
541976
695364
532353
519422
530956
549412
567701
555075
535654
793212
517798
520887
546661
569171
579377
521777
308969
768340
489057
491681
516672
538381
548053
488195
257540
572169
446339
443593
456602
475347
497145
491534
488238
498230
427531
428841
441048
460463
486661
497051
548684
450469
396833
400421
412720
432520
460120
475349
541500
421845
373228
378268
391257
411783
440252
457492
526929
405232
358247
364119
377827
399035
428095
446385
516435
396041
349682
355992
370203
391879
421296
440161
510353
391929
345809
352311
366770
388672
418252
437378
507637
315988
547020
607162
599508
584372
573358
566916
564024
542373
564914
578899
562631
547256
536639
530156
527103
535995
555898
569482
553305
537991
527402
520933
517887
309250
522035
580302
572844
557942
547077
540723
537875
)
;
    }
    symmetry
    {
        type            symmetry;
    }
    bottom
    {
        type            calculated;
        value           nonuniform List<scalar> 
32
(
896256
488386
387522
345666
323967
311883
305278
302331
572596
114713
53984.7
49962.7
44682
39869.3
36317
34379.3
565424
111096
51333
47798.1
42329.7
37219
33374
31242.3
863322
457381
357743
317346
296638
285163
278905
276115
)
;
    }
}


// ************************************************************************* //
