/*--------------------------------*- C++ -*----------------------------------*\
| =========                 |                                                 |
| \\      /  F ield         | OpenFOAM: The Open Source CFD Toolbox           |
|  \\    /   O peration     | Version:  v1912                                 |
|   \\  /    A nd           | Website:  www.openfoam.com                      |
|    \\/     M anipulation  |                                                 |
\*---------------------------------------------------------------------------*/
FoamFile
{
    version     2.0;
    format      ascii;
    class       volScalarField;
    location    "0.62/solid";
    object      T;
}
// * * * * * * * * * * * * * * * * * * * * * * * * * * * * * * * * * * * * * //

dimensions      [0 0 0 1 0 0 0];


internalField   nonuniform List<scalar> 
256
(
291.522
292.167
292.174
291.561
291.157
291.941
291.95
291.203
291.102
291.908
291.917
291.15
291.063
291.886
291.896
291.112
291.004
291.852
291.862
291.054
290.896
291.784
291.794
290.946
290.612
291.554
291.565
290.665
289.527
290.482
290.5
289.601
292.241
292.816
292.817
292.263
292.035
292.75
292.751
292.06
292.003
292.741
292.742
292.029
291.982
292.736
292.738
292.008
291.948
292.729
292.73
291.976
291.88
292.704
292.706
291.908
291.656
292.548
292.551
291.686
290.611
291.554
291.565
290.664
292.392
292.908
292.909
292.412
292.228
292.874
292.874
292.251
292.202
292.869
292.87
292.225
292.183
292.867
292.867
292.207
292.153
292.862
292.863
292.178
292.091
292.843
292.845
292.117
291.88
292.704
292.706
291.908
290.894
291.783
291.793
290.946
292.44
292.92
292.921
292.459
292.287
292.89
292.891
292.309
292.263
292.886
292.887
292.285
292.244
292.884
292.885
292.267
292.214
292.88
292.88
292.238
292.153
292.862
292.863
292.178
291.947
292.728
292.73
291.976
291.001
291.851
291.862
291.053
292.463
292.923
292.924
292.482
292.316
292.895
292.895
292.336
292.292
292.89
292.891
292.313
292.273
292.888
292.889
292.296
292.243
292.884
292.885
292.267
292.182
292.866
292.867
292.207
291.98
292.736
292.738
292.008
291.059
291.884
291.894
291.111
292.476
292.925
292.925
292.495
292.332
292.896
292.897
292.352
292.308
292.892
292.893
292.329
292.29
292.89
292.891
292.312
292.26
292.886
292.887
292.283
292.199
292.869
292.869
292.223
291.999
292.74
292.741
292.027
291.093
291.903
291.913
291.145
292.484
292.925
292.926
292.502
292.341
292.897
292.898
292.361
292.317
292.893
292.894
292.338
292.299
292.891
292.892
292.321
292.269
292.887
292.888
292.292
292.208
292.87
292.87
292.233
292.01
292.742
292.744
292.037
291.113
291.914
291.924
291.165
292.487
292.926
292.926
292.506
292.345
292.898
292.898
292.365
292.321
292.894
292.894
292.342
292.303
292.892
292.892
292.325
292.273
292.887
292.888
292.296
292.213
292.87
292.871
292.237
292.015
292.743
292.744
292.042
291.122
291.919
291.929
291.174
)
;

boundaryField
{
    interface
    {
        type            fixedValue;
        value           nonuniform List<scalar> 
192
(
290.146
289.901
289.825
289.747
289.632
289.441
289.061
288.068
290.934
290.784
290.727
290.664
290.569
290.406
290.055
289.059
291.227
291.105
291.055
290.996
290.905
290.747
290.404
289.437
291.369
291.256
291.207
291.15
291.06
290.903
290.565
289.624
291.449
291.339
291.292
291.235
291.146
290.989
290.655
289.735
291.497
291.389
291.342
291.285
291.196
291.04
290.709
289.802
291.524
291.417
291.37
291.314
291.225
291.07
290.74
289.842
291.536
291.43
291.383
291.327
291.238
291.083
290.755
289.86
290.084
289.842
289.765
289.686
289.571
289.379
288.997
288.004
290.745
290.583
290.523
290.46
290.365
290.202
289.847
288.832
290.777
290.617
290.559
290.496
290.403
290.24
289.886
288.879
290.198
289.964
289.891
289.816
289.703
289.514
289.135
288.161
290.306
290.072
290
289.926
289.814
289.626
289.249
288.278
291.076
290.931
290.878
290.819
290.728
290.568
290.222
289.248
291.363
291.247
291.199
291.145
291.058
290.905
290.568
289.625
291.501
291.393
291.348
291.294
291.209
291.058
290.727
289.812
291.579
291.474
291.43
291.377
291.293
291.142
290.816
289.922
291.625
291.522
291.478
291.426
291.342
291.192
290.869
289.99
291.651
291.55
291.506
291.453
291.37
291.221
290.9
290.029
291.663
291.562
291.519
291.466
291.382
291.234
290.914
290.048
288.003
288.994
289.374
289.562
289.673
289.741
289.781
289.799
288.831
289.844
290.198
290.359
290.45
290.504
290.536
290.551
288.878
289.884
290.237
290.398
290.488
290.543
290.575
290.59
288.16
289.134
289.511
289.699
289.809
289.877
289.917
289.936
)
;
    }
    symmetry
    {
        type            symmetry;
    }
    bottom
    {
        type            fixedValue;
        value           uniform 293;
    }
}


// ************************************************************************* //
