/*--------------------------------*- C++ -*----------------------------------*\
| =========                 |                                                 |
| \\      /  F ield         | OpenFOAM: The Open Source CFD Toolbox           |
|  \\    /   O peration     | Version:  v1912                                 |
|   \\  /    A nd           | Website:  www.openfoam.com                      |
|    \\/     M anipulation  |                                                 |
\*---------------------------------------------------------------------------*/
FoamFile
{
    version     2.0;
    format      ascii;
    class       volVectorField;
    location    "0.98/solid";
    object      heatFlux;
}
// * * * * * * * * * * * * * * * * * * * * * * * * * * * * * * * * * * * * * //

dimensions      [1 0 -3 0 0 0 0];


internalField   nonuniform List<vector> 
256
(
(-62397.1 77191.4 -65364.2)
(-13443.1 47418.3 -64690.2)
(11508.5 46706.1 -63180.9)
(54054.7 73554.9 -61001.8)
(-58222.2 13280.2 -61661.2)
(-17042.2 9094.55 -64432.4)
(14628.2 8982.3 -62887.7)
(49508.3 12807.8 -57340.7)
(-59176.8 3378.32 -62780.5)
(-17741.1 2236.73 -66084.2)
(15221.7 2203.02 -64482.8)
(50293.6 3242.17 -58327.9)
(-60966.7 2952.92 -64603.9)
(-18217.5 1870.23 -68156.1)
(15633.6 1849.15 -66511.3)
(51904.1 2857.09 -60040.1)
(-63394 4865.2 -67025.6)
(-18844.8 3382.2 -70980.6)
(16208.5 3362.39 -69301.1)
(54152.7 4777.17 -62373.6)
(-66585.9 10914.4 -70222.4)
(-19720.3 9207 -74998.7)
(17028.6 9153.81 -73286)
(57165 10747.1 -65487)
(-68961.7 29961.9 -72689.5)
(-20605.5 30084.1 -78878.9)
(17748.7 29774.9 -77136.5)
(59302 29122 -67886.9)
(-62042.3 66093.4 -65952.2)
(-19907.3 73187.8 -73073.7)
(16066.4 71532.4 -71435.7)
(51887.2 61557.3 -61476.9)
(-60401.1 43465.5 -18773.3)
(-12381.3 15055.4 -16742.2)
(11212 14796.2 -16515.5)
(52528.2 41101.3 -18113.9)
(-60024.5 8328.24 -24575.1)
(-16288.1 3690.09 -22673.4)
(14833.9 3645.2 -22381.6)
(51891 8030.61 -23739.9)
(-61548.6 2110.33 -25646.2)
(-17064.3 839.824 -23806)
(15552.6 826.84 -23497.9)
(53253.5 2023.99 -24770.6)
(-63600.9 1838.5 -26246)
(-17571.6 640.799 -24433.6)
(16018 630.704 -24117.8)
(55121.7 1765.71 -25354)
(-66463.2 3339.7 -27007.5)
(-18272.1 1582.18 -25275.4)
(16677.5 1569.36 -24955.6)
(57787.4 3260.84 -26111.4)
(-70549.3 9043.37 -28107.3)
(-19341.9 6705.68 -26609.9)
(17696.7 6656.16 -26288)
(61660.8 8872.72 -27217.1)
(-74529 29541.2 -29483.3)
(-20659.3 28587.1 -28559.1)
(18844.5 28258.7 -28237.9)
(65359.3 28632.2 -28610.8)
(-69050 72895.4 -29891.2)
(-20624.4 79051.8 -30045.1)
(17741.8 77283.6 -29745.1)
(59324.1 68009.2 -29093.5)
(-54789.8 33843 -5326.41)
(-11185.4 8002.66 -3347.99)
(10136.7 7808.93 -3316.04)
(47203.3 31701.1 -5200.98)
(-55344.1 6407.39 -7470.55)
(-14848.7 2030.72 -5034.66)
(13561.7 1999.97 -4988.72)
(47530.1 6151.02 -7299.76)
(-56907.9 1707.35 -7843.26)
(-15592.8 476.54 -5344.13)
(14257 466.84 -5295.24)
(48931.7 1628.06 -7664.74)
(-58936 1591.56 -7984.14)
(-16089.2 400.806 -5465.46)
(14713.2 391.415 -5415.83)
(50770 1516.34 -7805.61)
(-61834.3 3003.89 -8139.51)
(-16792.9 1205.88 -5620.06)
(15372.6 1192.22 -5570.79)
(53453 2914.03 -7967.03)
(-66105.7 8438.64 -8392.7)
(-17900.9 5923.34 -5914.73)
(16421.4 5871.48 -5866.97)
(57472.8 8247.7 -8233.95)
(-70668.2 28178.1 -8994.21)
(-19360.1 26649 -6694.93)
(17696.9 26317.8 -6649.96)
(61698 27245.6 -8857.52)
(-66792.9 70533.6 -10831.1)
(-19761.2 75266 -9166.34)
(17018 73513.3 -9122.94)
(57222.6 65675.4 -10712.2)
(-50681.2 30668.6 -1961.16)
(-10370.9 6672.72 -661.751)
(9359.05 6491.42 -654.489)
(43286.7 28600.5 -1910.37)
(-51317.1 5811.4 -2685.41)
(-13806.3 1693.95 -1018.22)
(12568.8 1666.01 -1007.55)
(43707.3 5566.86 -2618.43)
(-52823.3 1596.75 -2802.45)
(-14516.3 409.02 -1081.31)
(13232 399.731 -1070.06)
(45052.2 1518.14 -2733.34)
(-54809.8 1542.25 -2835.38)
(-15003.3 364.869 -1099.98)
(13677.9 355.149 -1088.8)
(46844.1 1463.42 -2767.62)
(-57694 2931.14 -2864.96)
(-15703.4 1132.9 -1123.27)
(14330.5 1118.21 -1112.61)
(49498.3 2832.5 -2801.98)
(-61994.9 8188.67 -2935.24)
(-16816.2 5630.81 -1195.34)
(15377.5 5576.99 -1185.84)
(53520 7982.23 -2881.85)
(-66749 27102.9 -3259.48)
(-18315.1 25335.5 -1563.71)
(16681.9 25002.8 -1556.24)
(57892.8 26153.9 -3221.83)
(-63768.7 67493.9 -4724.53)
(-18916.3 71392.9 -3307.79)
(16195.9 69653.2 -3301.12)
(54273.7 62664.8 -4699.59)
(-48131.5 29196.4 -983.27)
(-9878.68 6322.68 -202.425)
(8888.12 6146.89 -198.822)
(40864.6 27172.3 -952.368)
(-48746.2 5566.1 -1309.62)
(-13170.9 1611.17 -303.106)
(11961.5 1584.4 -297.851)
(41270.8 5328.06 -1269.3)
(-50212.4 1557.39 -1357.29)
(-13860.4 394.788 -319.122)
(12605 385.595 -313.623)
(42576.2 1478.87 -1315.85)
(-52175.4 1529.05 -1367.52)
(-14342.7 358.846 -322.343)
(13045.6 348.86 -316.943)
(44340.9 1447.69 -1327.18)
(-55048.2 2904.03 -1376.13)
(-15040.6 1110.52 -326.986)
(13693.9 1095.18 -321.927)
(46973.7 2799.8 -1338.93)
(-59346 8044.12 -1410.99)
(-16151.5 5482.9 -356.023)
(14734.9 5427.85 -351.666)
(50973.9 7827.86 -1379.74)
(-64152.3 26388.8 -1613.97)
(-17656.8 24536.5 -560.756)
(16038.8 24202.5 -557.664)
(55371.2 25427.9 -1592.55)
(-61600.9 65328.3 -2581.91)
(-18337.8 68819.7 -1637.83)
(15626.2 67085.6 -1635.72)
(52153 60510.6 -2570.31)
(-46593 28375.7 -552.394)
(-9586.45 6167.19 -96.5988)
(8609.1 5994.75 -94.4417)
(39405.4 26378.9 -533.708)
(-47191.1 5437.38 -727.494)
(-12794.5 1577.26 -141.461)
(11602.6 1551.21 -138.3)
(39798.7 5203.38 -703.051)
(-48636.2 1538.84 -751.333)
(-13472.6 389.783 -147.955)
(12235.2 380.639 -144.647)
(41083 1460.26 -726.235)
(-50587.3 1523.41 -755.62)
(-13952.7 357.005 -148.872)
(12673.1 346.845 -145.632)
(42832.9 1440.34 -731.306)
(-53452.4 2887.67 -760.049)
(-14649.2 1099.23 -150.693)
(13318.6 1083.49 -147.661)
(45451.1 2779.94 -737.714)
(-57739.1 7950.83 -782.469)
(-15756.9 5397.04 -166.571)
(14353.8 5341.25 -163.949)
(49428.5 7728.61 -763.691)
(-62549.5 25932 -910.611)
(-17258.8 24053.6 -285.766)
(15650.1 23718.7 -283.889)
(53813.4 24963.3 -897.65)
(-60203.1 63926.2 -1512.71)
(-17970.1 67217.8 -928.62)
(15263.4 65486.2 -927.494)
(50781.5 59112.8 -1506.25)
(-45711.5 27916.6 -288.749)
(-9420.73 6084.62 -48.7179)
(8451.02 5914.15 -47.5568)
(38569.6 25935.5 -278.797)
(-46300.9 5367.16 -378.666)
(-12581.7 1559.81 -70.8127)
(11399.9 1534.19 -69.1006)
(38956.3 5135.53 -365.598)
(-47735.4 1529.26 -390.468)
(-13253.7 387.377 -73.885)
(12026.7 378.263 -72.0904)
(40229.8 1450.62 -377.05)
(-49680.4 1520.33 -392.447)
(-13732.7 356.108 -74.2593)
(12463.1 345.846 -72.5022)
(41971.7 1436.21 -379.484)
(-52540.2 2877.18 -395.005)
(-14428.2 1092.82 -75.189)
(13106.8 1076.86 -73.5442)
(44580.2 2767.42 -383.131)
(-56816.2 7893.56 -408.157)
(-15533 5347.83 -83.6399)
(14137.7 5291.62 -82.2112)
(48540.2 7667.92 -398.184)
(-61618 25658.6 -479.686)
(-17030.1 23774.4 -147.07)
(15426.9 23439 -146.035)
(52907.2 24685.3 -472.802)
(-59370 63085.4 -810.095)
(-17752.6 66278.2 -491.797)
(15048.6 64547.8 -491.208)
(49962.4 58273.7 -806.862)
(-45307.7 27708.3 -90.1921)
(-9345.26 6047.66 -15.0851)
(8379.02 5878.09 -14.7192)
(38186.7 25734.5 -87.0769)
(-45893.4 5335.66 -118.086)
(-12484.9 1552.09 -21.8763)
(11307.8 1526.67 -21.3347)
(38570.6 5105.13 -113.984)
(-47323.4 1525.06 -121.693)
(-13154.2 386.336 -22.8077)
(11932.1 377.237 -22.2392)
(39839.5 1446.38 -117.48)
(-49265.7 1518.87 -122.289)
(-13632.7 355.701 -22.9172)
(12367.8 345.391 -22.3607)
(41577.7 1434.26 -118.224)
(-52122.7 2871.96 -123.152)
(-14327.7 1089.84 -23.2149)
(13010.6 1073.78 -22.6941)
(44181.4 2761.25 -119.436)
(-56392.5 7866.15 -127.51)
(-15430.9 5325.16 -25.8918)
(14039.2 5268.76 -25.439)
(48132 7638.94 -124.396)
(-61187.5 25530 -150.553)
(-16925.1 23645.5 -45.8834)
(15324.4 23309.7 -45.5545)
(52487.9 24554.6 -148.414)
(-58979.8 62689.7 -256.067)
(-17651.2 65841 -154.852)
(14948.4 64111 -154.669)
(49578.1 57878.6 -255.104)
)
;

boundaryField
{
    interface
    {
        type            calculated;
        value           nonuniform List<vector> 
192
(
(-98529.5 77191.4 -65364.2)
(-83162.8 13280.2 -61661.2)
(-83717.5 3378.32 -62780.5)
(-86368.6 2952.92 -64603.9)
(-89986.5 4865.2 -67025.6)
(-94641 10914.4 -70222.4)
(-97707.1 29961.9 -72689.5)
(-85798.1 66093.4 -65952.2)
(-96261.8 43465.5 -18773.3)
(-87769.1 8328.24 -24575.1)
(-89280.4 2110.33 -25646.2)
(-92380.9 1838.5 -26246)
(-96714.3 3339.7 -27007.5)
(-102763 9043.37 -28107.3)
(-108171 29541.2 -29483.3)
(-97855.7 72895.4 -29891.2)
(-87377.1 33843 -5326.41)
(-81209.8 6407.39 -7470.55)
(-82860 1707.35 -7843.26)
(-85932.1 1591.56 -7984.14)
(-90331.2 3003.89 -8139.51)
(-96675.5 8438.64 -8392.7)
(-102969 28178.1 -8994.21)
(-94991.7 70533.6 -10831.1)
(-80778.8 30668.6 -1961.16)
(-75226 5811.4 -2685.41)
(-76828.2 1596.75 -2802.45)
(-79836 1542.25 -2835.38)
(-84214.8 2931.14 -2864.96)
(-90609.7 8188.67 -2935.24)
(-97209.1 27102.9 -3259.48)
(-90622.5 67493.9 -4724.53)
(-76659.3 29196.4 -983.27)
(-71348.6 5566.1 -1309.62)
(-72911.3 1557.39 -1357.29)
(-75881.7 1529.05 -1367.52)
(-80242.6 2904.03 -1376.13)
(-86635.9 8044.12 -1410.99)
(-93328.4 26388.8 -1613.97)
(-87441 65328.3 -2581.91)
(-74164.1 28375.7 -552.394)
(-68987 5437.38 -727.494)
(-70530.2 1538.84 -751.333)
(-73481.3 1523.41 -755.62)
(-77829.9 2887.67 -760.049)
(-84208.2 7950.83 -782.469)
(-90916.4 25932 -910.611)
(-85379.5 63926.2 -1512.71)
(-72730.9 27916.6 -288.749)
(-67629.9 5367.16 -378.666)
(-69164 1529.26 -390.468)
(-72105.1 1520.33 -392.447)
(-76445.2 2877.18 -395.005)
(-82808.1 7893.56 -408.157)
(-89509.3 25658.6 -479.686)
(-84147.3 63085.4 -810.095)
(-72073.6 27708.3 -90.1921)
(-67007.3 5335.66 -118.086)
(-68537.8 1525.06 -121.693)
(-71474.5 1518.87 -122.289)
(-75810 2871.96 -123.152)
(-82164 7866.15 -127.51)
(-88857.6 25530 -150.553)
(-83569.5 62689.7 -256.067)
(-62397.1 77191.4 -101171)
(-58222.2 13280.2 -85427.9)
(-59176.8 3378.32 -86099.8)
(-60966.7 2952.92 -88777.4)
(-63394 4865.2 -92361.2)
(-66585.9 10914.4 -96963.4)
(-68961.7 29961.9 -99946.8)
(-62042.3 66093.4 -87581.5)
(-13443.1 47418.3 -101547)
(-17042.2 9094.55 -91972.1)
(-17741.1 2236.73 -93526.5)
(-18217.5 1870.23 -96625.5)
(-18844.8 3382.2 -100860)
(-19720.3 9207 -106711)
(-20605.5 30084.1 -111654)
(-19907.3 73187.8 -99866.7)
(11508.5 46706.1 -98928.2)
(14628.2 8982.3 -89389.2)
(15221.7 2203.02 -90857.8)
(15633.6 1849.15 -93884)
(16208.5 3362.39 -98057.7)
(17028.6 9153.81 -103847)
(17748.7 29774.9 -108733)
(16066.4 71532.4 -97114.3)
(54054.7 73554.9 -93577.8)
(49508.3 12807.8 -78200)
(50293.6 3242.17 -78675.7)
(51904.1 2857.09 -81162.6)
(54152.7 4777.17 -84584.4)
(57165 10747.1 -89023.7)
(59302 29122 -91862.1)
(51887.2 61557.3 -80023.8)
(84470.9 73554.9 -61001.8)
(68957.6 12807.8 -57340.7)
(69297.7 3242.17 -58327.9)
(71670.9 2857.09 -60040.1)
(75000.1 4777.17 -62373.6)
(79363 10747.1 -65487)
(82112 29122 -67886.9)
(70113.4 61557.3 -61476.9)
(82410.1 41101.3 -18113.9)
(73818 8030.61 -23739.9)
(75089.9 2023.99 -24770.6)
(77885.2 1765.71 -25354)
(81887.8 3260.84 -26111.4)
(87580.3 8872.72 -27217.1)
(92598.5 28632.2 -28610.8)
(82160.1 68009.2 -29093.5)
(73964.8 31701.1 -5200.98)
(67717.6 6151.02 -7299.76)
(69119.6 1628.06 -7664.74)
(71874.9 1516.34 -7805.61)
(75912.2 2914.03 -7967.03)
(81837 8247.7 -8233.95)
(87649.8 27245.6 -8857.52)
(79480.9 65675.4 -10712.2)
(67697 28600.5 -1910.37)
(62072.7 5566.86 -2618.43)
(63426.4 1518.14 -2733.34)
(66109.5 1463.42 -2767.62)
(70102.1 2832.5 -2801.98)
(76032.6 7982.23 -2881.85)
(82080.7 26153.9 -3221.83)
(75238 62664.8 -4699.59)
(63799.3 27172.3 -952.368)
(58420.8 5328.06 -1269.3)
(59735.1 1478.87 -1315.85)
(62374.4 1447.69 -1327.18)
(66332.5 2799.8 -1338.93)
(72231.2 7827.86 -1379.74)
(78327.4 25427.9 -1592.55)
(72138.5 60510.6 -2570.31)
(61441.7 26378.9 -533.708)
(56198.3 5203.38 -703.051)
(57492.4 1460.26 -726.235)
(60107.6 1440.34 -731.306)
(64041.6 2779.94 -737.714)
(69905.9 7728.61 -763.691)
(75991.5 24963.3 -897.65)
(70122.8 59112.8 -1506.25)
(60087.8 25935.5 -278.797)
(54921.2 5135.53 -365.598)
(56205.5 1450.62 -377.05)
(58807.4 1436.21 -379.484)
(62725.6 2767.42 -383.131)
(68563.3 7667.92 -398.184)
(74627 24685.3 -472.802)
(68914.9 58273.7 -806.862)
(59466.6 25734.5 -87.0769)
(54335.1 5105.13 -113.984)
(55615.4 1446.38 -117.48)
(58211.1 1434.26 -118.224)
(62121.4 2761.25 -119.436)
(67944.8 7638.94 -124.396)
(73994.1 24554.6 -148.414)
(68347.3 57878.6 -255.104)
(-62042.3 87790.5 -65952.2)
(-69050 100285 -29891.2)
(-66792.9 97486.7 -10831.1)
(-63768.7 93156 -4724.53)
(-61600.9 90006.3 -2581.91)
(-60203.1 87956.4 -1512.71)
(-59370 86724.5 -810.095)
(-58979.8 86144.2 -256.067)
(-19907.3 100050 -73073.7)
(-20624.4 111955 -30045.1)
(-19761.2 107178 -9166.34)
(-18916.3 101580 -3307.79)
(-18337.8 97773.5 -1637.83)
(-17970.1 95383.9 -928.62)
(-17752.6 93976.3 -491.797)
(-17651.2 93319.7 -154.852)
(16066.4 97272.3 -71435.7)
(17741.8 108992 -29745.1)
(17018 104248 -9122.94)
(16195.9 98677.1 -3301.12)
(15626.2 94882.8 -1635.72)
(15263.4 92499.2 -927.494)
(15048.6 91094.5 -491.208)
(14948.4 90439.1 -154.669)
(51887.2 80153.1 -61476.9)
(59324.1 92075.2 -29093.5)
(57222.6 89354.6 -10712.2)
(54273.7 85095.9 -4699.59)
(52153 81980.4 -2570.31)
(50781.5 79947.4 -1506.25)
(49962.4 78723.9 -806.862)
(49578.1 78147.1 -255.104)
)
;
    }
    symmetry
    {
        type            symmetry;
    }
    bottom
    {
        type            calculated;
        value           nonuniform List<vector> 
32
(
(-62397.1 132102 -65364.2)
(-60401.1 72987.9 -18773.3)
(-54789.8 57009.1 -5326.41)
(-50681.2 51682.2 -1961.16)
(-48131.5 49164.5 -983.27)
(-46593 47749.1 -552.394)
(-45711.5 46954.9 -288.749)
(-45307.7 46594.1 -90.1921)
(-13443.1 79573.1 -64690.2)
(-12381.3 23907 -16742.2)
(-11185.4 12604.3 -3347.99)
(-10370.9 10515.1 -661.751)
(-9878.68 9957.25 -202.425)
(-9586.45 9705.39 -96.5988)
(-9420.73 9570.86 -48.7179)
(-9345.26 9510.52 -15.0851)
(11508.5 78329.8 -63180.9)
(11212 23462.8 -16515.5)
(10136.7 12267.7 -3316.04)
(9359.05 10198.6 -654.489)
(8888.12 9649.76 -198.822)
(8609.1 9403.35 -94.4417)
(8451.02 9272 -47.5568)
(8379.02 9213.12 -14.7192)
(54054.7 125607 -61001.8)
(52528.2 68755.2 -18113.9)
(47203.3 53151.2 -5200.98)
(43286.7 47951.3 -1910.37)
(40864.6 45509.8 -952.368)
(39405.4 44141.8 -533.708)
(38569.6 43374.9 -278.797)
(38186.7 43026.6 -87.0769)
)
;
    }
}


// ************************************************************************* //
