/*--------------------------------*- C++ -*----------------------------------*\
| =========                 |                                                 |
| \\      /  F ield         | OpenFOAM: The Open Source CFD Toolbox           |
|  \\    /   O peration     | Version:  v1912                                 |
|   \\  /    A nd           | Website:  www.openfoam.com                      |
|    \\/     M anipulation  |                                                 |
\*---------------------------------------------------------------------------*/
FoamFile
{
    version     2.0;
    format      ascii;
    class       volScalarField;
    location    "0.98/solid";
    object      sigmaEq;
}
// * * * * * * * * * * * * * * * * * * * * * * * * * * * * * * * * * * * * * //

dimensions      [1 -1 -2 0 0 0 0];


internalField   nonuniform List<scalar> 
256
(
706320
487758
478379
665045
388966
319224
312853
359668
373975
287736
281723
344394
389257
280435
274488
358862
398503
279827
273912
367528
385309
273851
268046
354178
295700
236190
231696
267388
72178.6
265970
263822
72517.8
403907
114125
110098
362875
282946
111407
108056
247446
269725
84043.2
81506.7
234455
269214
56504.1
55037.9
233370
273390
47649.4
47336.4
236804
277301
55348.3
55031.7
240063
254123
57975.5
58550.8
217482
296052
237088
232436
267278
324748
73656.8
71799
283804
266589
68324.2
65762
230346
258731
49622.4
47815.5
222408
258432
38600.2
38744.4
221459
264701
42741.5
44002.1
226915
275809
46515.8
47109.6
237218
276822
54660.9
54413.5
239055
386597
275594
269558
354578
286288
70224.2
69775.9
246663
249961
67296.1
66517.2
215503
243583
54511.4
54533.1
208544
242948
50253.1
51721.6
206892
250012
51609.7
53774.4
212903
263399
45858.2
47542.5
225156
272003
44698.2
44948.9
234315
403079
283062
276830
370644
264248
61272.3
61437.5
225317
233902
62657
62614.4
200369
229229
53499.3
54093.7
194894
229621
49275.2
51075.5
194053
238334
48127.3
50543
201627
253632
38486.6
40415.8
215643
266099
42002.3
41854.5
228528
401798
283881
277521
369190
251629
52230
52706.5
212918
222330
54873.6
55064.4
188992
218955
46108.5
46847.5
184710
220859
40359.8
42356.6
185325
231364
37597
40250.5
194717
248418
27082.2
29000.2
210491
263679
45157.4
44267
226206
399320
284108
277623
366541
244674
44851.1
45511.7
205977
215254
47356.3
47618.8
181828
212654
37305.2
38122.9
178266
215762
29658.4
32037.6
180094
227593
26176.8
29380.3
190872
245953
16152.4
18199.4
208009
263159
49199
47837.8
225762
398160
284334
277760
365250
241555
40488.7
41251.8
202826
211937
42672.7
42962.7
178412
209700
31219.3
32121.8
175190
213438
21753.4
24708.9
177666
225945
17915.5
22016.9
189159
244978
7471.69
10380.1
207014
263181
51501.2
49943.3
225823
397843
284473
277856
364866
)
;

boundaryField
{
    interface
    {
        type            calculated;
        value           nonuniform List<scalar> 
192
(
876288
528426
515590
538197
554588
547363
463786
258387
628432
470415
458731
468659
483179
494045
472123
464367
539645
453382
449283
459397
476249
494942
494491
549419
486517
425998
425615
436160
454316
476333
484403
560874
454225
401254
403192
414988
434798
459088
471554
554446
435397
384374
387654
400818
422180
448152
463309
548002
425058
374489
378490
392655
415106
442185
458976
544309
420470
369995
374319
388992
411986
439602
457172
542782
882469
534034
521704
545055
561799
553928
468321
257788
721658
511970
482570
486134
495786
497007
461376
439880
707181
501144
471846
475198
484675
485824
451027
433173
834461
500696
487856
510055
526110
518235
436459
252644
810639
472771
458835
479927
494991
486591
402976
204613
557667
405971
393788
402322
415325
424738
402364
402990
469937
389263
384525
393250
408489
425440
424413
487386
418628
363864
362530
371465
387815
407764
414861
499132
387431
340290
341145
351204
369121
391167
402435
492896
369160
323902
326045
337439
356890
380557
394458
486520
359077
314183
317020
329419
349971
374736
390285
482849
354585
309731
312882
325797
346900
372208
388556
481329
258923
469463
556433
568685
562341
555713
551850
550239
440648
463071
500263
502039
495903
490443
486938
485278
433828
452487
488726
490407
484208
478674
475114
473426
253254
436942
519640
531240
524631
517777
513744
512045
)
;
    }
    symmetry
    {
        type            symmetry;
    }
    bottom
    {
        type            calculated;
        value           nonuniform List<scalar> 
32
(
1.02986e+06
539221
405088
352483
326357
312243
304678
301335
652275
144648
69579.1
65018.7
56726.8
47972.7
40642.9
36211.2
640196
138979
65383.5
62222.8
54236.5
45402.2
37786.7
33060.6
976281
492437
358507
306805
281325
267533
260089
256778
)
;
    }
}


// ************************************************************************* //
