/*--------------------------------*- C++ -*----------------------------------*\
| =========                 |                                                 |
| \\      /  F ield         | OpenFOAM: The Open Source CFD Toolbox           |
|  \\    /   O peration     | Version:  v1912                                 |
|   \\  /    A nd           | Website:  www.openfoam.com                      |
|    \\/     M anipulation  |                                                 |
\*---------------------------------------------------------------------------*/
FoamFile
{
    version     2.0;
    format      ascii;
    class       volScalarField;
    location    "0.98/solid";
    object      T;
}
// * * * * * * * * * * * * * * * * * * * * * * * * * * * * * * * * * * * * * //

dimensions      [0 0 0 1 0 0 0];


internalField   nonuniform List<scalar> 
256
(
291.349
292.005
292.021
291.43
290.792
291.624
291.644
290.892
290.685
291.551
291.572
290.79
290.623
291.512
291.534
290.73
290.537
291.457
291.479
290.647
290.38
291.343
291.366
290.491
289.991
290.997
291.022
290.109
288.881
289.839
289.877
289.035
292.088
292.701
292.707
292.141
291.739
292.546
292.553
291.804
291.671
292.517
292.524
291.739
291.634
292.504
292.512
291.703
291.579
292.485
292.493
291.651
291.467
292.425
292.434
291.54
291.127
292.149
292.16
291.207
289.99
290.996
291.021
290.109
292.287
292.842
292.847
292.336
292.02
292.757
292.763
292.079
291.967
292.741
292.747
292.028
291.935
292.734
292.74
291.998
291.887
292.721
292.727
291.952
291.785
292.673
292.68
291.852
291.466
292.425
292.434
291.54
290.376
291.341
291.364
290.49
292.354
292.869
292.873
292.401
292.113
292.798
292.803
292.169
292.063
292.784
292.789
292.122
292.033
292.777
292.783
292.093
291.986
292.766
292.771
292.049
291.886
292.721
292.727
291.952
291.577
292.484
292.493
291.65
290.531
291.454
291.477
290.644
292.385
292.876
292.879
292.431
292.155
292.808
292.813
292.21
292.107
292.795
292.8
292.165
292.077
292.789
292.794
292.136
292.031
292.777
292.783
292.092
291.932
292.733
292.739
291.996
291.628
292.503
292.511
291.701
290.612
291.506
291.529
290.725
292.403
292.879
292.882
292.448
292.178
292.813
292.818
292.233
292.131
292.8
292.805
292.188
292.101
292.793
292.799
292.16
292.055
292.782
292.788
292.116
291.957
292.739
292.745
292.021
291.658
292.512
292.52
291.73
290.66
291.536
291.559
290.773
292.413
292.88
292.884
292.458
292.191
292.815
292.82
292.245
292.145
292.802
292.807
292.201
292.115
292.796
292.801
292.173
292.069
292.785
292.79
292.129
291.971
292.741
292.747
292.035
291.674
292.517
292.526
291.746
290.688
291.553
291.575
290.8
292.418
292.881
292.885
292.462
292.197
292.816
292.821
292.251
292.151
292.804
292.809
292.207
292.121
292.797
292.802
292.179
292.075
292.786
292.791
292.135
291.977
292.743
292.749
292.041
291.682
292.519
292.528
291.753
290.701
291.56
291.583
290.813
)
;

boundaryField
{
    interface
    {
        type            fixedValue;
        value           nonuniform List<scalar> 
192
(
290.116
289.748
289.633
289.537
289.406
289.189
288.762
287.802
290.882
290.638
290.55
290.473
290.364
290.175
289.767
288.758
291.194
291.002
290.927
290.857
290.753
290.571
290.171
289.181
291.343
291.169
291.1
291.031
290.929
290.749
290.355
289.392
291.426
291.26
291.193
291.125
291.024
290.844
290.456
289.513
291.475
291.313
291.247
291.179
291.078
290.9
290.515
289.587
291.503
291.343
291.277
291.21
291.109
290.931
290.549
289.63
291.516
291.357
291.291
291.224
291.124
290.946
290.565
289.65
290.083
289.72
289.604
289.508
289.377
289.161
288.735
287.781
290.735
290.47
290.377
290.299
290.191
290.003
289.593
288.583
290.784
290.523
290.432
290.356
290.249
290.062
289.655
288.657
290.261
289.913
289.803
289.713
289.586
289.374
288.956
288.032
290.376
290.029
289.921
289.832
289.706
289.496
289.078
288.156
291.111
290.88
290.798
290.727
290.624
290.441
290.044
289.077
291.412
291.232
291.163
291.098
291.001
290.827
290.44
289.493
291.555
291.393
291.329
291.266
291.171
290.999
290.621
289.7
291.635
291.48
291.417
291.356
291.262
291.092
290.719
289.82
291.681
291.53
291.469
291.408
291.314
291.145
290.777
289.893
291.708
291.559
291.498
291.437
291.344
291.176
290.81
289.936
291.72
291.572
291.511
291.45
291.358
291.19
290.825
289.956
287.778
288.728
289.151
289.361
289.481
289.555
289.598
289.618
288.581
289.588
289.995
290.178
290.279
290.338
290.373
290.389
288.655
289.651
290.055
290.238
290.338
290.398
290.432
290.448
288.03
288.953
289.369
289.577
289.697
289.77
289.813
289.833
)
;
    }
    symmetry
    {
        type            symmetry;
    }
    bottom
    {
        type            fixedValue;
        value           uniform 293;
    }
}


// ************************************************************************* //
