/*--------------------------------*- C++ -*----------------------------------*\
| =========                 |                                                 |
| \\      /  F ield         | OpenFOAM: The Open Source CFD Toolbox           |
|  \\    /   O peration     | Version:  v1912                                 |
|   \\  /    A nd           | Website:  www.openfoam.com                      |
|    \\/     M anipulation  |                                                 |
\*---------------------------------------------------------------------------*/
FoamFile
{
    version     2.0;
    format      ascii;
    class       volVectorField;
    location    "0.98/solid";
    object      U;
}
// * * * * * * * * * * * * * * * * * * * * * * * * * * * * * * * * * * * * * //

dimensions      [0 1 -1 0 0 0 0];


internalField   nonuniform List<vector> 
256
(
(1.6929e-08 1.88174e-08 2.25026e-08)
(4.03191e-09 1.27771e-08 2.21662e-08)
(-5.9521e-09 1.21222e-08 2.12382e-08)
(-1.67773e-08 1.67077e-08 1.97494e-08)
(3.26572e-08 1.78636e-08 5.48784e-08)
(8.30527e-09 1.20809e-08 5.4155e-08)
(-1.29637e-08 1.19251e-08 5.22e-08)
(-3.43335e-08 1.78197e-08 4.90204e-08)
(3.66015e-08 3.43858e-09 7.88657e-08)
(8.71952e-09 8.68065e-10 7.74241e-08)
(-1.65362e-08 1.50067e-09 7.48545e-08)
(-4.13397e-08 5.85663e-09 7.11458e-08)
(3.57926e-08 -1.43021e-08 9.88127e-08)
(7.0161e-09 -1.49638e-08 9.64561e-08)
(-1.89261e-08 -1.35491e-08 9.34479e-08)
(-4.45727e-08 -9.63392e-09 8.97636e-08)
(3.4902e-08 -3.40173e-08 1.17819e-07)
(4.94889e-09 -3.4317e-08 1.14512e-07)
(-2.19868e-08 -3.2157e-08 1.11135e-07)
(-4.87412e-08 -2.72266e-08 1.07654e-07)
(3.67968e-08 -5.81854e-08 1.376e-07)
(3.63578e-09 -5.83359e-08 1.33597e-07)
(-2.69119e-08 -5.54219e-08 1.29873e-07)
(-5.67876e-08 -4.9242e-08 1.26391e-07)
(4.20919e-08 -9.20505e-08 1.573e-07)
(3.22171e-09 -9.07876e-08 1.53575e-07)
(-3.40072e-08 -8.70065e-08 1.49511e-07)
(-6.93791e-08 -8.06205e-08 1.45089e-07)
(4.59391e-08 -1.32893e-07 1.70828e-07)
(2.12231e-09 -1.29722e-07 1.68399e-07)
(-4.18915e-08 -1.24708e-07 1.64063e-07)
(-8.16974e-08 -1.17812e-07 1.57861e-07)
(1.214e-08 7.17658e-09 1.06998e-08)
(2.86274e-09 1.80614e-09 1.1482e-08)
(-3.66789e-09 1.6115e-09 1.10446e-08)
(-1.11629e-08 6.04737e-09 9.41281e-09)
(2.42085e-08 8.43562e-10 3.29595e-08)
(6.19433e-09 -4.17894e-09 3.44554e-08)
(-8.14996e-09 -3.94163e-09 3.32586e-08)
(-2.36289e-08 1.54067e-09 2.94803e-08)
(2.71488e-08 -1.28658e-08 5.35643e-08)
(6.55457e-09 -1.50212e-08 5.50561e-08)
(-1.04947e-08 -1.41469e-08 5.33201e-08)
(-2.85262e-08 -1.00581e-08 4.84956e-08)
(2.61574e-08 -2.89794e-08 7.20373e-08)
(5.09663e-09 -2.95154e-08 7.31554e-08)
(-1.2209e-08 -2.79549e-08 7.10229e-08)
(-3.07059e-08 -2.41245e-08 6.57717e-08)
(2.53174e-08 -4.6877e-08 8.94035e-08)
(3.31929e-09 -4.73096e-08 8.9987e-08)
(-1.47972e-08 -4.50574e-08 8.75201e-08)
(-3.41927e-08 -4.00073e-08 8.21221e-08)
(2.77311e-08 -6.80194e-08 1.06239e-07)
(2.39567e-09 -6.85283e-08 1.06257e-07)
(-1.94519e-08 -6.55682e-08 1.03483e-07)
(-4.21052e-08 -5.90952e-08 9.80271e-08)
(3.4742e-08 -9.67428e-08 1.21179e-07)
(2.66024e-09 -9.55693e-08 1.20808e-07)
(-2.66525e-08 -9.18263e-08 1.17774e-07)
(-5.58054e-08 -8.55237e-08 1.12167e-07)
(4.12366e-08 -1.32856e-07 1.29998e-07)
(2.341e-09 -1.28328e-07 1.29487e-07)
(-3.48527e-08 -1.23504e-07 1.26345e-07)
(-7.02107e-08 -1.18322e-07 1.20611e-07)
(7.35045e-09 2.60394e-09 5.47251e-09)
(1.54757e-09 -1.627e-09 6.7492e-09)
(-1.81886e-09 -1.77459e-09 6.45205e-09)
(-5.91033e-09 1.40659e-09 4.62416e-09)
(1.53005e-08 -7.77217e-09 2.05335e-08)
(3.65215e-09 -1.18049e-08 2.30095e-08)
(-4.04876e-09 -1.15433e-08 2.21828e-08)
(-1.32992e-08 -7.27365e-09 1.81827e-08)
(1.71944e-08 -2.24388e-08 3.72286e-08)
(3.83423e-09 -2.42315e-08 3.9977e-08)
(-5.2768e-09 -2.33837e-08 3.8727e-08)
(-1.62521e-08 -1.99403e-08 3.36394e-08)
(1.61772e-08 -3.78014e-08 5.3493e-08)
(2.59594e-09 -3.84012e-08 5.60721e-08)
(-6.39081e-09 -3.69129e-08 5.44812e-08)
(-1.76156e-08 -3.33385e-08 4.88773e-08)
(1.55533e-08 -5.36648e-08 6.86511e-08)
(1.11069e-09 -5.44162e-08 7.08779e-08)
(-8.56964e-09 -5.22718e-08 6.89922e-08)
(-2.06313e-08 -4.72489e-08 6.31377e-08)
(1.84935e-08 -7.13497e-08 8.2126e-08)
(5.6348e-10 -7.2331e-08 8.39052e-08)
(-1.30021e-08 -6.9516e-08 8.17592e-08)
(-2.84652e-08 -6.29518e-08 7.58136e-08)
(2.67007e-08 -9.52505e-08 9.22819e-08)
(1.4112e-09 -9.44145e-08 9.35567e-08)
(-2.027e-08 -9.08684e-08 9.12206e-08)
(-4.28132e-08 -8.46671e-08 8.53529e-08)
(3.49011e-08 -1.26654e-07 9.61649e-08)
(1.72482e-09 -1.21764e-07 9.7026e-08)
(-2.86338e-08 -1.17191e-07 9.46645e-08)
(-5.84048e-08 -1.12872e-07 8.90691e-08)
(4.68253e-09 6.34093e-10 3.9907e-09)
(8.17906e-10 -2.6636e-09 4.98878e-09)
(-8.26321e-10 -2.84846e-09 4.76886e-09)
(-2.95772e-09 -7.68768e-10 3.37772e-09)
(1.02988e-08 -1.13542e-08 1.52027e-08)
(2.22312e-09 -1.46331e-08 1.71151e-08)
(-1.72862e-09 -1.44783e-08 1.65199e-08)
(-7.39767e-09 -1.12941e-08 1.35372e-08)
(1.17524e-08 -2.67204e-08 2.83199e-08)
(2.39145e-09 -2.83036e-08 3.04176e-08)
(-2.26197e-09 -2.75998e-08 2.95091e-08)
(-9.25099e-09 -2.47596e-08 2.57419e-08)
(1.10301e-08 -4.17038e-08 4.16613e-08)
(1.44463e-09 -4.24458e-08 4.3595e-08)
(-3.00645e-09 -4.11248e-08 4.24157e-08)
(-1.02636e-08 -3.78268e-08 3.82688e-08)
(1.08691e-08 -5.60356e-08 5.40218e-08)
(3.04893e-10 -5.7099e-08 5.56579e-08)
(-4.93165e-09 -5.51408e-08 5.42365e-08)
(-1.31481e-08 -5.02376e-08 4.98899e-08)
(1.43058e-08 -7.12052e-08 6.4285e-08)
(8.97583e-11 -7.25914e-08 6.55781e-08)
(-9.17057e-09 -6.99813e-08 6.39473e-08)
(-2.09455e-08 -6.34561e-08 5.95023e-08)
(2.30059e-08 -9.19947e-08 7.09354e-08)
(1.25e-09 -9.16386e-08 7.18724e-08)
(-1.6287e-08 -8.83133e-08 7.01013e-08)
(-3.53044e-08 -8.20878e-08 6.5679e-08)
(3.1697e-08 -1.20629e-07 7.2266e-08)
(1.85161e-09 -1.16271e-07 7.29836e-08)
(-2.45025e-08 -1.11922e-07 7.12135e-08)
(-5.09328e-08 -1.07528e-07 6.69225e-08)
(3.60854e-09 -1.44951e-10 3.30532e-09)
(5.6929e-10 -2.93821e-09 3.84851e-09)
(-4.38176e-10 -3.16103e-09 3.69037e-09)
(-1.70654e-09 -1.71114e-09 2.87169e-09)
(8.36884e-09 -1.24936e-08 1.18377e-08)
(1.77998e-09 -1.54027e-08 1.28381e-08)
(-7.58772e-10 -1.53615e-08 1.24166e-08)
(-4.90086e-09 -1.28263e-08 1.06735e-08)
(9.84996e-09 -2.79508e-08 2.17095e-08)
(2.0803e-09 -2.95064e-08 2.27375e-08)
(-9.55718e-10 -2.89571e-08 2.20933e-08)
(-6.32695e-09 -2.64987e-08 1.99001e-08)
(9.54585e-09 -4.25816e-08 3.18534e-08)
(1.43407e-09 -4.35106e-08 3.26996e-08)
(-1.50614e-09 -4.23639e-08 3.18548e-08)
(-7.27297e-09 -3.92644e-08 2.94419e-08)
(9.87346e-09 -5.59549e-08 4.11739e-08)
(6.16367e-10 -5.72855e-08 4.17689e-08)
(-3.27679e-09 -5.55125e-08 4.07397e-08)
(-1.01724e-08 -5.0738e-08 3.8198e-08)
(1.36829e-08 -6.97175e-08 4.85666e-08)
(6.58332e-10 -7.14014e-08 4.89176e-08)
(-7.33679e-09 -6.89824e-08 4.77294e-08)
(-1.79025e-08 -6.25552e-08 4.50916e-08)
(2.25051e-08 -8.89723e-08 5.28883e-08)
(1.96724e-09 -8.90149e-08 5.30394e-08)
(-1.42071e-08 -8.58796e-08 5.17481e-08)
(-3.19805e-08 -7.96404e-08 4.90568e-08)
(3.1195e-08 -1.16328e-07 5.33025e-08)
(2.6845e-09 -1.12602e-07 5.33945e-08)
(-2.21689e-08 -1.08433e-07 5.21096e-08)
(-4.72315e-08 -1.0377e-07 4.94149e-08)
(3.26287e-09 -4.11967e-10 2.54123e-09)
(5.33637e-10 -2.98941e-09 2.77689e-09)
(-3.26455e-10 -3.23959e-09 2.67119e-09)
(-1.25373e-09 -2.08877e-09 2.25468e-09)
(7.84603e-09 -1.2629e-08 8.64083e-09)
(1.77902e-09 -1.54208e-08 9.0371e-09)
(-4.45336e-10 -1.54657e-08 8.75683e-09)
(-4.02917e-09 -1.3246e-08 7.87429e-09)
(9.5234e-09 -2.78345e-08 1.55134e-08)
(2.2478e-09 -2.94606e-08 1.58545e-08)
(-5.03509e-10 -2.90339e-08 1.54256e-08)
(-5.35291e-09 -2.67707e-08 1.4319e-08)
(9.59e-09 -4.21043e-08 2.25359e-08)
(1.84663e-09 -4.3213e-08 2.27168e-08)
(-9.54334e-10 -4.22073e-08 2.21512e-08)
(-6.3317e-09 -3.92265e-08 2.09321e-08)
(1.02964e-08 -5.49341e-08 2.89264e-08)
(1.27482e-09 -5.64685e-08 2.89217e-08)
(-2.62126e-09 -5.48441e-08 2.8228e-08)
(-9.26277e-09 -5.01752e-08 2.693e-08)
(1.43491e-08 -6.80545e-08 3.386e-08)
(1.49838e-09 -6.99355e-08 3.36977e-08)
(-6.53012e-09 -6.7666e-08 3.28929e-08)
(-1.69024e-08 -6.13477e-08 3.15129e-08)
(2.31769e-08 -8.66944e-08 3.65911e-08)
(2.88979e-09 -8.6994e-08 3.63267e-08)
(-1.31754e-08 -8.40021e-08 3.54505e-08)
(-3.0675e-08 -7.77971e-08 3.39937e-08)
(3.17697e-08 -1.13482e-07 3.67285e-08)
(3.66503e-09 -1.10193e-07 3.64633e-08)
(-2.09106e-08 -1.06155e-07 3.55926e-08)
(-4.55408e-08 -1.01325e-07 3.40924e-08)
(3.16876e-09 -4.80448e-10 1.60082e-09)
(5.51359e-10 -2.97745e-09 1.68652e-09)
(-3.04561e-10 -3.24497e-09 1.62613e-09)
(-1.09921e-09 -2.22509e-09 1.43835e-09)
(7.77129e-09 -1.24617e-08 5.27672e-09)
(1.87219e-09 -1.52402e-08 5.39778e-09)
(-3.63515e-10 -1.53403e-08 5.23778e-09)
(-3.75397e-09 -1.32579e-08 4.84199e-09)
(9.62799e-09 -2.73638e-08 9.32691e-09)
(2.47138e-09 -2.9073e-08 9.38788e-09)
(-3.67279e-10 -2.87273e-08 9.14268e-09)
(-5.07705e-09 -2.65523e-08 8.64801e-09)
(9.9468e-09 -4.1341e-08 1.34277e-08)
(2.23319e-09 -4.25827e-08 1.33832e-08)
(-7.65164e-10 -4.16717e-08 1.30587e-08)
(-6.09623e-09 -3.87555e-08 1.2512e-08)
(1.08936e-08 -5.38857e-08 1.71292e-08)
(1.81962e-09 -5.5554e-08 1.69735e-08)
(-2.36308e-09 -5.40299e-08 1.65739e-08)
(-9.0423e-09 -4.94342e-08 1.59833e-08)
(1.50902e-08 -6.67596e-08 1.99473e-08)
(2.15865e-09 -6.87577e-08 1.97044e-08)
(-6.16471e-09 -6.65881e-08 1.92393e-08)
(-1.66031e-08 -6.03574e-08 1.85938e-08)
(2.39075e-08 -8.51933e-08 2.14712e-08)
(3.60272e-09 -8.56347e-08 2.11803e-08)
(-1.26537e-08 -8.27376e-08 2.06731e-08)
(-3.01553e-08 -7.65842e-08 1.9969e-08)
(3.24247e-08 -1.11723e-07 2.15215e-08)
(4.41434e-09 -1.08676e-07 2.12389e-08)
(-2.02332e-08 -1.04725e-07 2.0735e-08)
(-4.47515e-08 -9.98294e-08 1.99955e-08)
(3.14648e-09 -4.88235e-10 5.46062e-10)
(5.6616e-10 -2.95956e-09 5.6657e-10)
(-3.02561e-10 -3.2355e-09 5.4696e-10)
(-1.04977e-09 -2.26518e-09 4.93512e-10)
(7.78142e-09 -1.23147e-08 1.77471e-09)
(1.93219e-09 -1.51019e-08 1.79816e-09)
(-3.45146e-10 -1.52288e-08 1.74618e-09)
(-3.67274e-09 -1.31971e-08 1.63395e-09)
(9.73372e-09 -2.70309e-08 3.11228e-09)
(2.59808e-09 -2.87898e-08 3.11188e-09)
(-3.28929e-10 -2.84837e-08 3.03215e-09)
(-5.0068e-09 -2.63425e-08 2.89216e-09)
(1.01756e-08 -4.08478e-08 4.4585e-09)
(2.43921e-09 -4.21583e-08 4.42181e-09)
(-7.02446e-10 -4.12943e-08 4.31613e-09)
(-6.04731e-09 -3.84067e-08 4.16096e-09)
(1.12364e-08 -5.32704e-08 5.66817e-09)
(2.10185e-09 -5.50043e-08 5.59474e-09)
(-2.26507e-09 -5.35301e-08 5.46434e-09)
(-8.9968e-09 -4.89719e-08 5.29483e-09)
(1.55002e-08 -6.60676e-08 6.58385e-09)
(2.49719e-09 -6.81199e-08 6.48263e-09)
(-6.0118e-09 -6.6e-08 6.33059e-09)
(-1.65137e-08 -5.98171e-08 6.14186e-09)
(2.43125e-08 -8.44455e-08 7.07513e-09)
(3.96873e-09 -8.49485e-08 6.95967e-09)
(-1.24229e-08 -8.20984e-08 6.79369e-09)
(-2.99554e-08 -7.59795e-08 6.58377e-09)
(3.27932e-08 -1.10874e-07 7.0884e-09)
(4.79939e-09 -1.0793e-07 6.97648e-09)
(-1.9925e-08 -1.04021e-07 6.81155e-09)
(-4.44179e-08 -9.91098e-08 6.58902e-09)
)
;

boundaryField
{
    interface
    {
        type            calculated;
        value           nonuniform List<vector> 
192
(
(2.1888e-08 3.1214e-08 2.09625e-08)
(3.79695e-08 2.27817e-08 5.2183e-08)
(4.22979e-08 4.22235e-09 7.59553e-08)
(4.18698e-08 -1.4727e-08 9.59939e-08)
(4.11599e-08 -3.37663e-08 1.15175e-07)
(4.29427e-08 -5.63879e-08 1.35245e-07)
(4.84856e-08 -8.97649e-08 1.55471e-07)
(5.19185e-08 -1.32139e-07 1.69665e-07)
(1.55542e-08 1.62637e-08 8.30523e-09)
(2.85873e-08 4.59572e-09 2.86204e-08)
(3.18515e-08 -1.23786e-08 4.87126e-08)
(3.10505e-08 -2.94373e-08 6.71335e-08)
(3.02901e-08 -4.64837e-08 8.45663e-08)
(3.2691e-08 -6.56633e-08 1.01663e-07)
(4.05244e-08 -9.33664e-08 1.17331e-07)
(4.7726e-08 -1.31446e-07 1.27238e-07)
(9.43117e-09 8.26668e-09 3.60815e-09)
(1.83882e-08 -5.3112e-09 1.70562e-08)
(2.06417e-08 -2.22196e-08 3.33795e-08)
(1.98252e-08 -3.82118e-08 4.97112e-08)
(1.93455e-08 -5.30858e-08 6.50391e-08)
(2.24489e-08 -6.85629e-08 7.87697e-08)
(3.17626e-08 -9.11487e-08 8.93479e-08)
(4.12805e-08 -1.24735e-07 9.378e-08)
(6.08401e-09 4.37943e-09 3.05524e-09)
(1.28924e-08 -9.5868e-09 1.34698e-08)
(1.47857e-08 -2.65376e-08 2.64838e-08)
(1.4329e-08 -4.19248e-08 4.00035e-08)
(1.44156e-08 -5.52167e-08 5.26019e-08)
(1.81929e-08 -6.8171e-08 6.30824e-08)
(2.8207e-08 -8.7647e-08 6.98865e-08)
(3.84004e-08 -1.18459e-07 7.13395e-08)
(4.63255e-09 2.8494e-09 2.95042e-09)
(1.06258e-08 -1.09333e-08 1.12245e-08)
(1.25952e-08 -2.76566e-08 2.11522e-08)
(1.26167e-08 -4.25758e-08 3.14934e-08)
(1.32767e-08 -5.49207e-08 4.10307e-08)
(1.75476e-08 -6.65597e-08 4.85774e-08)
(2.78059e-08 -8.45943e-08 5.29311e-08)
(3.80431e-08 -1.14053e-07 5.33207e-08)
(4.09247e-09 2.36527e-09 2.43129e-09)
(9.88674e-09 -1.10639e-08 8.49146e-09)
(1.20774e-08 -2.73986e-08 1.54579e-08)
(1.25145e-08 -4.19111e-08 2.26361e-08)
(1.36136e-08 -5.37444e-08 2.91814e-08)
(1.82023e-08 -6.48345e-08 3.42118e-08)
(2.85289e-08 -8.23393e-08 3.69417e-08)
(3.86607e-08 -1.11166e-07 3.7036e-08)
(3.91291e-09 2.25457e-09 1.57173e-09)
(9.70091e-09 -1.08469e-08 5.26058e-09)
(1.20844e-08 -2.682e-08 9.3795e-09)
(1.28026e-08 -4.10247e-08 1.35741e-08)
(1.41797e-08 -5.25999e-08 1.73642e-08)
(1.89544e-08 -6.35062e-08 2.0235e-08)
(2.92997e-08 -8.08597e-08 2.17551e-08)
(3.93377e-08 -1.09392e-07 2.17774e-08)
(3.86216e-09 2.24375e-09 5.40494e-10)
(9.66745e-09 -1.06679e-08 1.77725e-09)
(1.21528e-08 -2.64324e-08 3.13871e-09)
(1.3008e-08 -4.04722e-08 4.51571e-09)
(1.45169e-08 -5.19394e-08 5.75388e-09)
(1.93776e-08 -6.27986e-08 6.68635e-09)
(2.97292e-08 -8.01223e-08 7.17638e-09)
(3.97192e-08 -1.08537e-07 7.18051e-09)
(1.76148e-08 3.81627e-08 2.54427e-08)
(3.38239e-08 3.19544e-08 5.78815e-08)
(3.76962e-08 1.44222e-08 8.22505e-08)
(3.66127e-08 -4.56375e-09 1.02649e-07)
(3.53972e-08 -2.43205e-08 1.21855e-07)
(3.69736e-08 -4.8315e-08 1.41393e-07)
(4.20752e-08 -8.37435e-08 1.60989e-07)
(4.59136e-08 -1.2839e-07 1.73724e-07)
(3.71571e-09 3.18574e-08 2.4493e-08)
(7.63548e-09 2.58954e-08 5.64526e-08)
(7.71655e-09 1.14434e-08 7.96762e-08)
(5.67476e-09 -5.69173e-09 9.87455e-08)
(3.27783e-09 -2.50316e-08 1.16693e-07)
(1.70404e-09 -4.85702e-08 1.3538e-07)
(1.27438e-09 -8.20869e-08 1.55597e-07)
(4.31282e-10 -1.25013e-07 1.70601e-07)
(-6.55643e-09 3.04817e-08 2.25491e-08)
(-1.42476e-08 2.53293e-08 5.36547e-08)
(-1.8106e-08 1.18127e-08 7.62589e-08)
(-2.05994e-08 -4.47888e-09 9.48599e-08)
(-2.37015e-08 -2.30506e-08 1.12404e-07)
(-2.87135e-08 -4.58279e-08 1.30719e-07)
(-3.61286e-08 -7.84588e-08 1.50572e-07)
(-4.45262e-08 -1.20057e-07 1.65224e-07)
(-1.82096e-08 3.39002e-08 1.96748e-08)
(-3.7178e-08 3.06689e-08 4.92501e-08)
(-4.47121e-08 1.60425e-08 7.16651e-08)
(-4.81125e-08 -5.06816e-10 9.06267e-08)
(-5.23268e-08 -1.80695e-08 1.08628e-07)
(-6.03956e-08 -3.9883e-08 1.27057e-07)
(-7.31155e-08 -7.2753e-08 1.45596e-07)
(-8.56796e-08 -1.1347e-07 1.57472e-07)
(-1.57785e-08 2.94854e-08 1.76295e-08)
(-3.37337e-08 2.39603e-08 4.49218e-08)
(-4.10059e-08 8.41652e-09 6.6256e-08)
(-4.44779e-08 -7.78341e-09 8.45268e-08)
(-4.86841e-08 -2.41727e-08 1.02224e-07)
(-5.64659e-08 -4.40824e-08 1.20917e-07)
(-6.90614e-08 -7.43929e-08 1.39828e-07)
(-8.05986e-08 -1.12557e-07 1.52998e-07)
(-8.98274e-09 1.47453e-08 6.69605e-09)
(-2.24739e-08 5.8815e-09 2.42217e-08)
(-2.7632e-08 -8.28877e-09 4.22236e-08)
(-2.98992e-08 -2.27078e-08 5.90323e-08)
(-3.33463e-08 -3.71573e-08 7.50946e-08)
(-4.11e-08 -5.36919e-08 9.09464e-08)
(-5.53497e-08 -7.84972e-08 1.05525e-07)
(-6.99406e-08 -1.12656e-07 1.14788e-07)
(-2.54904e-09 6.20896e-09 2.57283e-09)
(-1.10436e-08 -4.68819e-09 1.41248e-08)
(-1.43165e-08 -1.88612e-08 2.88205e-08)
(-1.57927e-08 -3.22436e-08 4.37666e-08)
(-1.8838e-08 -4.45364e-08 5.78765e-08)
(-2.66822e-08 -5.74062e-08 7.05236e-08)
(-4.18454e-08 -7.71821e-08 8.02276e-08)
(-5.81979e-08 -1.06955e-07 8.42495e-08)
(1.04056e-09 1.82006e-09 2.32675e-09)
(-4.70832e-09 -9.72076e-09 1.14375e-08)
(-6.97403e-09 -2.40431e-08 2.32605e-08)
(-8.17372e-09 -3.68524e-08 3.5683e-08)
(-1.11931e-08 -4.7567e-08 4.72751e-08)
(-1.91711e-08 -5.79169e-08 5.68615e-08)
(-3.45408e-08 -7.45909e-08 6.29707e-08)
(-5.11093e-08 -1.01585e-07 6.41291e-08)
(2.65736e-09 -5.9302e-11 2.44567e-09)
(-1.89771e-09 -1.16712e-08 9.83132e-09)
(-3.79246e-09 -2.59056e-08 1.89255e-08)
(-4.99121e-09 -3.8303e-08 2.84588e-08)
(-8.1114e-09 -4.80805e-08 3.72266e-08)
(-1.61395e-08 -5.7103e-08 4.40807e-08)
(-3.13432e-08 -7.23081e-08 4.78994e-08)
(-4.75773e-08 -9.79089e-08 4.80668e-08)
(3.30072e-09 -7.6806e-10 2.10284e-09)
(-8.19687e-10 -1.22212e-08 7.58752e-09)
(-2.64123e-09 -2.6195e-08 1.40064e-08)
(-3.92122e-09 -3.8249e-08 2.06379e-08)
(-7.13447e-09 -4.75324e-08 2.66474e-08)
(-1.51451e-08 -5.59945e-08 3.1188e-08)
(-3.01064e-08 -7.06374e-08 3.35373e-08)
(-4.59373e-08 -9.55637e-08 3.34724e-08)
(3.54001e-09 -1.0118e-09 1.38735e-09)
(-4.37154e-10 -1.22634e-08 4.75285e-09)
(-2.27361e-09 -2.59667e-08 8.56145e-09)
(-3.62463e-09 -3.77641e-08 1.24409e-08)
(-6.89101e-09 -4.68074e-08 1.59168e-08)
(-1.4864e-08 -5.5079e-08 1.84966e-08)
(-2.96331e-08 -6.9547e-08 1.9789e-08)
(-4.51752e-08 -9.41475e-08 1.97148e-08)
(3.61938e-09 -1.08457e-09 4.81149e-10)
(-3.13381e-10 -1.22078e-08 1.61364e-09)
(-2.16784e-09 -2.57488e-08 2.87459e-09)
(-3.55483e-09 -3.74091e-08 4.14872e-09)
(-6.84268e-09 -4.63552e-08 5.28345e-09)
(-1.47902e-08 -5.45774e-08 6.11952e-09)
(-2.94597e-08 -6.90034e-08 6.53379e-09)
(-4.48571e-08 -9.34699e-08 6.50559e-09)
(4.55236e-08 -1.35893e-07 1.7307e-07)
(4.08099e-08 -1.36733e-07 1.28438e-07)
(3.4638e-08 -1.30777e-07 9.31082e-08)
(3.16927e-08 -1.25246e-07 6.96847e-08)
(3.14013e-08 -1.21147e-07 5.15156e-08)
(3.21056e-08 -1.18353e-07 3.55772e-08)
(3.28286e-08 -1.16614e-07 2.08694e-08)
(3.32254e-08 -1.15775e-07 6.87595e-09)
(7.59869e-11 -1.32022e-07 1.70406e-07)
(3.05857e-12 -1.3053e-07 1.27497e-07)
(-6.40901e-10 -1.23847e-07 9.40116e-08)
(-3.25395e-10 -1.18943e-07 7.06932e-08)
(7.10465e-10 -1.15634e-07 5.18751e-08)
(1.83336e-09 -1.13399e-07 3.54818e-08)
(2.66464e-09 -1.11969e-07 2.06731e-08)
(3.08616e-09 -1.11262e-07 6.78984e-09)
(-4.4869e-08 -1.25954e-07 1.66088e-07)
(-3.73543e-08 -1.2472e-07 1.24466e-07)
(-3.08568e-08 -1.18295e-07 9.17687e-08)
(-2.66884e-08 -1.13614e-07 6.90239e-08)
(-2.43772e-08 -1.10482e-07 5.0668e-08)
(-2.31279e-08 -1.08375e-07 3.46657e-08)
(-2.24451e-08 -1.07029e-07 2.02014e-08)
(-2.21302e-08 -1.06363e-07 6.63557e-09)
(-8.6049e-08 -1.17499e-07 1.60159e-07)
(-7.43394e-08 -1.18952e-07 1.19376e-07)
(-6.24433e-08 -1.13749e-07 8.63704e-08)
(-5.50026e-08 -1.08888e-07 6.46469e-08)
(-5.1328e-08 -1.05321e-07 4.78641e-08)
(-4.96292e-08 -1.02916e-07 3.31072e-08)
(-4.88167e-08 -1.01431e-07 1.94418e-08)
(-4.84659e-08 -1.00717e-07 6.40911e-09)
)
;
    }
    symmetry
    {
        type            symmetry;
    }
    bottom
    {
        type            calculated;
        value           uniform (0 0 0);
    }
}


// ************************************************************************* //
