/*--------------------------------*- C++ -*----------------------------------*\
| =========                 |                                                 |
| \\      /  F ield         | OpenFOAM: The Open Source CFD Toolbox           |
|  \\    /   O peration     | Version:  v1912                                 |
|   \\  /    A nd           | Website:  www.openfoam.com                      |
|    \\/     M anipulation  |                                                 |
\*---------------------------------------------------------------------------*/
FoamFile
{
    version     2.0;
    format      ascii;
    class       volVectorField;
    location    "0.31/solid";
    object      D_0;
}
// * * * * * * * * * * * * * * * * * * * * * * * * * * * * * * * * * * * * * //

dimensions      [0 1 0 0 0 0 0];


internalField   nonuniform List<vector> 
256
(
(1.31988e-08 2.52428e-08 1.37491e-08)
(5.26884e-10 1.49424e-08 1.2871e-08)
(1.32578e-10 1.48074e-08 1.30134e-08)
(-1.24332e-08 2.46051e-08 1.42801e-08)
(2.01588e-08 2.06953e-08 2.21955e-08)
(3.0249e-09 1.52902e-08 2.11352e-08)
(-7.28698e-10 1.48645e-08 2.15339e-08)
(-1.77341e-08 1.91845e-08 2.35212e-08)
(2.11017e-08 1.58228e-08 2.4339e-08)
(4.08701e-09 1.37346e-08 2.3222e-08)
(1.79287e-10 1.30249e-08 2.38074e-08)
(-1.67241e-08 1.35137e-08 2.62163e-08)
(2.1466e-08 1.31993e-08 2.49722e-08)
(4.79261e-09 1.2072e-08 2.3879e-08)
(1.77215e-09 1.11043e-08 2.45977e-08)
(-1.48014e-08 1.01631e-08 2.72457e-08)
(2.2469e-08 1.19307e-08 2.53689e-08)
(5.7884e-09 1.07535e-08 2.44121e-08)
(3.39976e-09 9.54566e-09 2.52328e-08)
(-1.31837e-08 8.21644e-09 2.79482e-08)
(2.40932e-08 1.15085e-08 2.59663e-08)
(7.11842e-09 9.97545e-09 2.51999e-08)
(5.01693e-09 8.53259e-09 2.61065e-08)
(-1.18716e-08 7.13655e-09 2.88015e-08)
(2.63822e-08 1.01561e-08 2.72274e-08)
(8.76892e-09 8.46652e-09 2.66243e-08)
(6.63661e-09 6.79347e-09 2.76107e-08)
(-1.0957e-08 5.12726e-09 3.02933e-08)
(2.99626e-08 -1.04295e-08 2.99228e-08)
(1.05935e-08 -1.06454e-08 2.94055e-08)
(8.35198e-09 -1.24241e-08 3.04598e-08)
(-1.11416e-08 -1.58789e-08 3.31729e-08)
(1.11895e-08 1.34377e-08 7.55172e-11)
(2.54504e-10 4.4916e-09 3.49218e-10)
(1.04197e-10 4.3331e-09 5.15303e-10)
(-1.06228e-08 1.27862e-08 5.66222e-10)
(1.7315e-08 1.33967e-08 4.25267e-09)
(2.38143e-09 8.53097e-09 4.79057e-09)
(-8.20817e-10 8.04851e-09 5.19186e-09)
(-1.54975e-08 1.18124e-08 5.42347e-09)
(1.80431e-08 1.2116e-08 6.64888e-09)
(3.27756e-09 1.01377e-08 7.32217e-09)
(-8.15535e-11 9.37967e-09 7.89039e-09)
(-1.46056e-08 9.74884e-09 8.30851e-09)
(1.82736e-08 1.11278e-08 7.43728e-09)
(3.8767e-09 1.00089e-08 8.21203e-09)
(1.35298e-09 9.00843e-09 8.90307e-09)
(-1.28074e-08 8.06039e-09 9.46405e-09)
(1.92261e-08 1.0472e-08 7.63096e-09)
(4.79299e-09 9.28035e-09 8.50022e-09)
(2.84756e-09 8.05162e-09 9.28827e-09)
(-1.13428e-08 6.74645e-09 9.95017e-09)
(2.09242e-08 1.01259e-08 7.84277e-09)
(6.08296e-09 8.57536e-09 8.7857e-09)
(4.33049e-09 7.12166e-09 9.65519e-09)
(-1.02705e-08 5.76024e-09 1.0407e-08)
(2.33999e-08 8.79689e-09 8.4463e-09)
(7.72968e-09 7.09621e-09 9.42321e-09)
(5.80991e-09 5.42938e-09 1.03575e-08)
(-9.684e-09 3.80937e-09 1.12072e-08)
(2.71809e-08 -9.94248e-09 9.32773e-09)
(9.55776e-09 -1.00988e-08 1.03093e-08)
(7.41035e-09 -1.18321e-08 1.127e-08)
(-1.01976e-08 -1.52655e-08 1.21775e-08)
(9.85791e-09 1.02344e-08 -1.12279e-10)
(2.28899e-11 2.14309e-09 1.49826e-10)
(1.58319e-10 1.99946e-09 2.71994e-10)
(-9.46116e-09 9.68752e-09 2.36498e-10)
(1.55855e-08 9.49734e-09 2.08913e-09)
(1.83549e-09 5.05451e-09 2.64756e-09)
(-7.82509e-10 4.59544e-09 2.95176e-09)
(-1.42489e-08 8.05282e-09 2.95606e-09)
(1.63011e-08 8.85583e-09 4.17947e-09)
(2.60269e-09 7.0016e-09 4.88318e-09)
(-2.02191e-10 6.27064e-09 5.32168e-09)
(-1.36234e-08 6.62884e-09 5.43965e-09)
(1.64652e-08 8.64899e-09 5.32343e-09)
(3.11155e-09 7.57152e-09 6.11952e-09)
(1.07984e-09 6.60088e-09 6.66243e-09)
(-1.19953e-08 5.7171e-09 6.8975e-09)
(1.73488e-08 8.50777e-09 5.85315e-09)
(3.95214e-09 7.33545e-09 6.71752e-09)
(2.44903e-09 6.13932e-09 7.34627e-09)
(-1.06572e-08 4.91376e-09 7.68771e-09)
(1.90667e-08 8.3969e-09 6.28481e-09)
(5.20574e-09 6.84867e-09 7.18756e-09)
(3.80338e-09 5.43192e-09 7.8875e-09)
(-9.76478e-09 4.16447e-09 8.3365e-09)
(2.16936e-08 7.17377e-09 6.97937e-09)
(6.86355e-09 5.48639e-09 7.88831e-09)
(5.13701e-09 3.86442e-09 8.63864e-09)
(-9.46252e-09 2.33112e-09 9.19095e-09)
(2.56855e-08 -1.08498e-08 7.93974e-09)
(8.70734e-09 -1.08803e-08 8.83709e-09)
(6.60879e-09 -1.25596e-08 9.5976e-09)
(-1.0302e-08 -1.60146e-08 1.02004e-08)
(9.07158e-09 9.34809e-09 1.89753e-10)
(-9.6667e-11 1.74038e-09 3.45514e-10)
(1.81854e-10 1.61424e-09 4.32759e-10)
(-8.80403e-09 8.89566e-09 4.38488e-10)
(1.44956e-08 7.81705e-09 1.53523e-09)
(1.5161e-09 3.63299e-09 1.9005e-09)
(-7.86287e-10 3.21712e-09 2.12203e-09)
(-1.35157e-08 6.54087e-09 2.16503e-09)
(1.52413e-08 6.74935e-09 3.06952e-09)
(2.19706e-09 4.9922e-09 3.5473e-09)
(-3.46578e-10 4.31384e-09 3.87135e-09)
(-1.31372e-08 4.71006e-09 3.99961e-09)
(1.53906e-08 6.50828e-09 4.2087e-09)
(2.63748e-09 5.47952e-09 4.75719e-09)
(7.98337e-10 4.56295e-09 5.16455e-09)
(-1.16935e-08 3.76132e-09 5.39022e-09)
(1.62038e-08 6.48388e-09 4.94209e-09)
(3.40499e-09 5.34502e-09 5.54581e-09)
(2.06341e-09 4.2022e-09 6.02388e-09)
(-1.04583e-08 3.06566e-09 6.33975e-09)
(1.78802e-08 6.46785e-09 5.56203e-09)
(4.60692e-09 4.93854e-09 6.2013e-09)
(3.32104e-09 3.57451e-09 6.73782e-09)
(-9.67013e-09 2.40265e-09 7.14039e-09)
(2.05716e-08 5.26524e-09 6.37939e-09)
(6.25574e-09 3.61566e-09 7.0271e-09)
(4.54029e-09 2.04547e-09 7.6028e-09)
(-9.5533e-09 5.81351e-10 8.08614e-09)
(2.47039e-08 -1.23111e-08 7.51273e-09)
(8.10286e-09 -1.21961e-08 8.14074e-09)
(5.90332e-09 -1.38281e-08 8.72135e-09)
(-1.06361e-08 -1.73339e-08 9.25307e-09)
(8.61976e-09 8.9219e-09 2.63119e-10)
(-1.59706e-10 1.59402e-09 3.51252e-10)
(1.90167e-10 1.48221e-09 4.12618e-10)
(-8.43917e-09 8.54013e-09 4.37436e-10)
(1.3798e-08 6.99147e-09 1.16691e-09)
(1.32276e-09 2.97085e-09 1.39472e-09)
(-7.98205e-10 2.59413e-09 1.55183e-09)
(-1.30623e-08 5.85523e-09 1.61185e-09)
(1.4535e-08 5.46743e-09 2.22076e-09)
(1.93676e-09 3.78391e-09 2.53243e-09)
(-4.57663e-10 3.15631e-09 2.76432e-09)
(-1.28342e-08 3.59607e-09 2.88437e-09)
(1.46731e-08 4.91077e-09 3.148e-09)
(2.32186e-09 3.92773e-09 3.51395e-09)
(5.81436e-10 3.06479e-09 3.80844e-09)
(-1.15349e-08 2.33614e-09 4.00087e-09)
(1.54292e-08 4.73769e-09 3.87922e-09)
(3.0264e-09 3.63621e-09 4.28978e-09)
(1.76411e-09 2.54603e-09 4.63867e-09)
(-1.03849e-08 1.48504e-09 4.89925e-09)
(1.70515e-08 4.66058e-09 4.55358e-09)
(4.1751e-09 3.16048e-09 4.99715e-09)
(2.94946e-09 1.8465e-09 5.39125e-09)
(-9.66611e-09 7.49567e-10 5.71481e-09)
(1.97564e-08 3.4277e-09 5.38655e-09)
(5.80089e-09 1.82437e-09 5.84199e-09)
(4.08541e-09 3.00009e-10 6.26592e-09)
(-9.66685e-09 -1.11697e-09 6.64757e-09)
(2.39591e-08 -1.38309e-08 6.49758e-09)
(7.63737e-09 -1.3594e-08 6.93526e-09)
(5.36842e-09 -1.51866e-08 7.36205e-09)
(-1.09087e-08 -1.87352e-08 7.78352e-09)
(8.3583e-09 8.64701e-09 2.21806e-10)
(-1.96207e-10 1.48432e-09 2.70668e-10)
(1.94777e-10 1.38295e-09 3.11492e-10)
(-8.23229e-09 8.31404e-09 3.36978e-10)
(1.33644e-08 6.48972e-09 8.24349e-10)
(1.2001e-09 2.57497e-09 9.62283e-10)
(-8.03872e-10 2.22749e-09 1.06717e-09)
(-1.27855e-08 5.45479e-09 1.11957e-09)
(1.40688e-08 4.65914e-09 1.51249e-09)
(1.76109e-09 3.03092e-09 1.70975e-09)
(-5.24063e-10 2.44268e-09 1.86539e-09)
(-1.26343e-08 2.91483e-09 1.95566e-09)
(1.41864e-08 3.80111e-09 2.1727e-09)
(2.10143e-09 2.85627e-09 2.41015e-09)
(4.4335e-10 2.03607e-09 2.60911e-09)
(-1.14271e-08 1.36117e-09 2.74684e-09)
(1.48991e-08 3.41083e-09 2.76256e-09)
(2.75703e-09 2.34238e-09 3.03327e-09)
(1.56542e-09 1.29453e-09 3.27051e-09)
(-1.03408e-08 2.89567e-10 3.45468e-09)
(1.64771e-08 3.20601e-09 3.34831e-09)
(3.86214e-09 1.73443e-09 3.6449e-09)
(2.69692e-09 4.6026e-10 3.91422e-09)
(-9.67344e-09 -5.83016e-10 4.14132e-09)
(1.91775e-08 1.91769e-09 4.0579e-09)
(5.4636e-09 3.55138e-10 4.36552e-09)
(3.77324e-09 -1.13348e-09 4.65598e-09)
(-9.75192e-09 -2.51832e-09 4.92255e-09)
(2.34138e-08 -1.51469e-08 4.97329e-09)
(7.28488e-09 -1.48189e-08 5.26835e-09)
(5.00001e-09 -1.63811e-08 5.56055e-09)
(-1.1098e-08 -1.99594e-08 5.85558e-09)
(8.21102e-09 8.47676e-09 1.4008e-10)
(-2.17257e-10 1.40787e-09 1.64838e-10)
(1.98227e-10 1.31324e-09 1.88208e-10)
(-8.11662e-09 8.17416e-09 2.0562e-10)
(1.3112e-08 6.17472e-09 4.89574e-10)
(1.12653e-09 2.32441e-09 5.63947e-10)
(-8.04968e-10 1.9959e-09 6.241e-10)
(-1.26257e-08 5.2044e-09 6.57985e-10)
(1.37855e-08 4.15966e-09 8.81901e-10)
(1.65113e-09 2.56885e-09 9.91806e-10)
(-5.59094e-10 2.00661e-09 1.08136e-09)
(-1.25113e-08 2.49842e-09 1.13574e-09)
(1.38821e-08 3.097e-09 1.27398e-09)
(1.9597e-09 2.17953e-09 1.40894e-09)
(3.65301e-10 1.38808e-09 1.52389e-09)
(-1.13554e-08 7.47035e-10 1.60455e-09)
(1.45644e-08 2.53253e-09 1.64959e-09)
(2.58198e-09 1.48793e-09 1.80518e-09)
(1.44807e-09 4.68819e-10 1.94282e-09)
(-1.03099e-08 -4.99784e-10 2.05019e-09)
(1.61129e-08 2.21055e-09 2.04085e-09)
(3.65731e-09 7.6e-10 2.21259e-09)
(2.54318e-09 -4.87113e-10 2.36938e-09)
(-9.67786e-09 -1.49551e-09 2.50191e-09)
(1.88068e-08 8.6648e-10 2.51309e-09)
(5.24055e-09 -6.6743e-10 2.69213e-09)
(3.57991e-09 -2.13179e-09 2.86157e-09)
(-9.80653e-09 -3.49561e-09 3.01733e-09)
(2.30606e-08 -1.60965e-08 3.11002e-09)
(7.0494e-09 -1.57086e-08 3.28161e-09)
(4.76997e-09 -1.72501e-08 3.452e-09)
(-1.12188e-08 -2.08466e-08 3.62483e-09)
(8.14372e-09 8.39532e-09 4.73147e-11)
(-2.27048e-10 1.36923e-09 5.49129e-11)
(2.00231e-10 1.27788e-09 6.25198e-11)
(-8.06381e-09 8.10724e-09 6.85798e-11)
(1.29954e-08 6.01943e-09 1.621e-10)
(1.09198e-09 2.19972e-09 1.85636e-10)
(-8.04662e-10 1.88046e-09 2.05234e-10)
(-1.25519e-08 5.08041e-09 2.16808e-10)
(1.36517e-08 3.91605e-09 2.90022e-10)
(1.59834e-09 2.3441e-09 3.25381e-10)
(-5.74042e-10 1.79467e-09 3.54604e-10)
(-1.24527e-08 2.29557e-09 3.72649e-10)
(1.37356e-08 2.75306e-09 4.19961e-10)
(1.89053e-09 1.84981e-09 4.63842e-10)
(3.30312e-10 1.07267e-09 5.0143e-10)
(-1.13195e-08 4.47775e-10 5.27838e-10)
(1.44022e-08 2.09699e-09 5.48312e-10)
(2.49595e-09 1.06474e-09 5.9919e-10)
(1.39389e-09 6.00382e-11 6.44292e-10)
(-1.02934e-08 -8.90764e-10 6.79393e-10)
(1.5936e-08 1.70902e-09 6.85069e-10)
(3.55631e-09 2.69328e-10 7.41408e-10)
(2.4706e-09 -9.64175e-10 7.92878e-10)
(-9.67942e-09 -1.95527e-09 8.36286e-10)
(1.86263e-08 3.31098e-10 8.5018e-10)
(5.13013e-09 -1.18836e-09 9.09014e-10)
(3.48736e-09 -2.6405e-09 9.64695e-10)
(-9.83333e-09 -3.99367e-09 1.01582e-09)
(2.28883e-08 -1.65898e-08 1.05693e-09)
(6.93237e-09 -1.61724e-08 1.11329e-09)
(4.65902e-09 -1.77034e-08 1.16927e-09)
(-1.12786e-08 -2.13083e-08 1.2261e-09)
)
;

boundaryField
{
    interface
    {
        type            solidTraction;
        traction        uniform (0 0 0);
        pressure        uniform 0;
        secondOrder     false;
        setEffectiveTraction false;
        relaxationFactor 1;
        value           nonuniform List<vector> 
192
(
(7.08615e-08 3.35821e-08 1.32243e-08)
(7.46406e-08 2.2671e-08 2.14222e-08)
(7.66484e-08 1.61496e-08 2.35033e-08)
(7.85636e-08 1.35412e-08 2.4088e-08)
(8.16689e-08 1.25876e-08 2.44451e-08)
(8.64563e-08 1.24871e-08 2.50355e-08)
(9.30506e-08 1.16238e-08 2.63317e-08)
(1.01119e-07 -9.19801e-09 2.90798e-08)
(6.16439e-08 2.05638e-08 -7.60022e-10)
(6.557e-08 1.51101e-08 3.10886e-09)
(6.70458e-08 1.23557e-08 5.44823e-09)
(6.86451e-08 1.14236e-08 6.18658e-09)
(7.16852e-08 1.11348e-08 6.35044e-09)
(7.67311e-08 1.11697e-08 6.5857e-09)
(8.40951e-08 1.03614e-08 7.27376e-09)
(9.38582e-08 -8.65403e-09 8.25811e-09)
(5.463e-08 1.65952e-08 -6.42e-10)
(5.90948e-08 1.11082e-08 1.38389e-09)
(6.05755e-08 9.07582e-09 3.47862e-09)
(6.20241e-08 8.91105e-09 4.60228e-09)
(6.49199e-08 9.15836e-09 5.0972e-09)
(6.99432e-08 9.48344e-09 5.52344e-09)
(7.75189e-08 8.82891e-09 6.27199e-09)
(8.80776e-08 -9.51188e-09 7.32022e-09)
(5.03493e-08 1.52399e-08 -1.19943e-10)
(5.47682e-08 9.3595e-09 1.08809e-09)
(5.63245e-08 6.9732e-09 2.62772e-09)
(5.77421e-08 6.74907e-09 3.7604e-09)
(6.05323e-08 7.10648e-09 4.46193e-09)
(6.54699e-08 7.56017e-09 5.058e-09)
(7.30807e-08 6.97165e-09 5.89489e-09)
(8.39828e-08 -1.09506e-08 7.08096e-09)
(4.78592e-08 1.45263e-08 8.46828e-11)
(5.21118e-08 8.47031e-09 8.83926e-10)
(5.36835e-08 5.68628e-09 1.92744e-09)
(5.50922e-08 5.13448e-09 2.84675e-09)
(5.7813e-08 5.33255e-09 3.55286e-09)
(6.26677e-08 5.74278e-09 4.20265e-09)
(7.02479e-08 5.15511e-09 5.03787e-09)
(8.12721e-08 -1.24672e-08 6.17493e-09)
(4.63878e-08 1.40777e-08 1.19548e-10)
(5.05034e-08 7.91738e-09 6.52737e-10)
(5.2053e-08 4.86475e-09 1.32498e-09)
(5.34452e-08 4.00886e-09 1.97483e-09)
(5.61174e-08 3.98377e-09 2.54626e-09)
(6.09079e-08 4.27602e-09 3.11355e-09)
(6.84428e-08 3.65239e-09 3.8204e-09)
(7.95077e-08 -1.37871e-08 4.74858e-09)
(4.55493e-08 1.38075e-08 8.63905e-11)
(4.95781e-08 7.56838e-09 3.97266e-10)
(5.1101e-08 4.35226e-09 7.77542e-10)
(5.24744e-08 3.29192e-09 1.16121e-09)
(5.51135e-08 3.0905e-09 1.52531e-09)
(5.98611e-08 3.27155e-09 1.90551e-09)
(6.73602e-08 2.60394e-09 2.37524e-09)
(7.84389e-08 -1.47408e-08 2.97859e-09)
(4.51655e-08 1.36801e-08 3.04761e-11)
(4.91531e-08 7.39646e-09 1.32923e-10)
(5.06602e-08 4.1012e-09 2.56539e-10)
(5.2022e-08 2.94088e-09 3.83325e-10)
(5.46439e-08 2.64736e-09 5.0774e-10)
(5.93701e-08 2.76546e-09 6.40831e-10)
(6.68505e-08 2.06971e-09 8.05046e-10)
(7.79342e-08 -1.52363e-08 1.01385e-09)
(1.32426e-08 3.42291e-08 7.50176e-08)
(2.02818e-08 2.33429e-08 8.02387e-08)
(2.12418e-08 1.6517e-08 8.34562e-08)
(2.16363e-08 1.34568e-08 8.56797e-08)
(2.26932e-08 1.21793e-08 8.82166e-08)
(2.43685e-08 1.19732e-08 9.20231e-08)
(2.66807e-08 1.11453e-08 9.77309e-08)
(3.02563e-08 -9.61207e-09 1.05249e-07)
(3.43589e-10 2.34441e-08 6.97235e-08)
(2.86056e-09 1.7878e-08 7.53431e-08)
(3.95527e-09 1.44206e-08 7.80796e-08)
(4.70014e-09 1.23695e-08 8.01406e-08)
(5.75552e-09 1.10838e-08 8.28314e-08)
(7.15463e-09 1.05285e-08 8.70385e-08)
(8.86592e-09 9.5179e-09 9.34735e-08)
(1.0729e-08 -9.80941e-09 1.02384e-07)
(4.85525e-10 2.34443e-08 6.9346e-08)
(-1.31058e-10 1.7563e-08 7.51877e-08)
(9.29079e-10 1.37909e-08 7.80908e-08)
(2.61506e-09 1.14606e-08 8.02772e-08)
(4.28502e-09 9.92284e-09 8.30662e-08)
(5.91854e-09 9.12704e-09 8.7356e-08)
(7.55509e-09 7.88175e-09 9.3871e-08)
(9.29514e-09 -1.15731e-08 1.02905e-07)
(-1.23114e-08 3.40554e-08 7.41542e-08)
(-1.74423e-08 2.21686e-08 8.01396e-08)
(-1.62719e-08 1.44449e-08 8.38618e-08)
(-1.42488e-08 1.05961e-08 8.64584e-08)
(-1.2583e-08 8.60534e-09 8.92879e-08)
(-1.12378e-08 7.72276e-09 9.33375e-08)
(-1.02727e-08 6.22002e-09 9.92647e-08)
(-1.03921e-08 -1.50214e-08 1.07096e-07)
(-6.84294e-08 3.21471e-08 1.38888e-08)
(-7.05002e-08 2.02573e-08 2.31085e-08)
(-7.05245e-08 1.27806e-08 2.59134e-08)
(-7.01294e-08 9.2779e-09 2.70242e-08)
(-7.06009e-08 7.48384e-09 2.77889e-08)
(-7.24651e-08 6.57967e-09 2.87187e-08)
(-7.59576e-08 4.94453e-09 3.03178e-08)
(-8.09709e-08 -1.6395e-08 3.33123e-08)
(-5.91537e-08 1.93163e-08 -1.76735e-10)
(-6.1808e-08 1.28081e-08 4.55233e-09)
(-6.16255e-08 9.07629e-09 7.53349e-09)
(-6.11551e-08 7.24458e-09 8.76268e-09)
(-6.17386e-08 6.11208e-09 9.31871e-09)
(-6.39883e-08 5.34533e-09 9.88047e-09)
(-6.8347e-08 3.79098e-09 1.08337e-08)
(-7.52009e-08 -1.56682e-08 1.19679e-08)
(-5.23382e-08 1.56151e-08 -2.18091e-10)
(-5.58197e-08 9.09337e-09 2.46082e-09)
(-5.59128e-08 6.06538e-09 5.07276e-09)
(-5.55212e-08 4.97544e-09 6.61924e-09)
(-5.61451e-08 4.356e-09 7.46681e-09)
(-5.85145e-08 3.86559e-09 8.18664e-09)
(-6.31892e-08 2.46525e-09 9.15851e-09)
(-7.09109e-08 -1.63123e-08 1.03102e-08)
(-4.82557e-08 1.44756e-08 1.83051e-10)
(-5.19074e-08 7.62413e-09 1.86851e-09)
(-5.22865e-08 4.25445e-09 3.80246e-09)
(-5.20578e-08 3.0915e-09 5.27526e-09)
(-5.27437e-08 2.55968e-09 6.27183e-09)
(-5.51639e-08 2.17619e-09 7.11588e-09)
(-5.9977e-08 8.22691e-10 8.13738e-09)
(-6.81089e-08 -1.75591e-08 9.40494e-09)
(-4.59064e-08 1.39155e-08 2.94564e-10)
(-4.95436e-08 6.95395e-09 1.42944e-09)
(-5.0093e-08 3.21415e-09 2.75879e-09)
(-5.00074e-08 1.72372e-09 3.9344e-09)
(-5.07623e-08 1.01772e-09 4.87001e-09)
(-5.3218e-08 5.69847e-10 5.71578e-09)
(-5.80939e-08 -8.06451e-10 6.69736e-09)
(-6.64132e-08 -1.89144e-08 7.89913e-09)
(-4.45247e-08 1.35685e-08 2.56381e-10)
(-4.81244e-08 6.55526e-09 1.0105e-09)
(-4.87587e-08 2.57515e-09 1.87504e-09)
(-4.87669e-08 7.87686e-10 2.70208e-09)
(-4.95778e-08 -1.48975e-10 3.43602e-09)
(-5.20614e-08 -7.3044e-10 4.14435e-09)
(-5.69677e-08 -2.16232e-09 4.95756e-09)
(-6.53831e-08 -2.01089e-08 5.93319e-09)
(-4.37389e-08 1.33597e-08 1.63525e-10)
(-4.73113e-08 6.30304e-09 5.99624e-10)
(-4.79856e-08 2.18079e-09 1.0904e-09)
(-4.8046e-08 1.9656e-10 1.5777e-09)
(-4.88932e-08 -9.19314e-10 2.03839e-09)
(-5.13968e-08 -1.62155e-09 2.50346e-09)
(-5.632e-08 -3.11051e-09 3.03773e-09)
(-6.47893e-08 -2.0977e-08 3.67006e-09)
(-4.33794e-08 1.32612e-08 5.53854e-11)
(-4.69384e-08 6.17759e-09 1.98374e-10)
(-4.76289e-08 1.9874e-09 3.58003e-10)
(-4.77122e-08 -9.21586e-11 5.18859e-10)
(-4.85768e-08 -1.30091e-09 6.75289e-10)
(-5.10907e-08 -2.07049e-09 8.36695e-10)
(-5.60221e-08 -3.59399e-09 1.02254e-09)
(-6.45171e-08 -2.14292e-08 1.24108e-09)
(3.06338e-08 -8.57668e-08 3.02097e-08)
(2.78657e-08 -8.04584e-08 9.43274e-09)
(2.63636e-08 -7.693e-08 8.53185e-09)
(2.5357e-08 -7.52338e-08 8.25798e-09)
(2.45833e-08 -7.47705e-08 7.2065e-09)
(2.40133e-08 -7.48566e-08 5.53967e-09)
(2.3643e-08 -7.50845e-08 3.47074e-09)
(2.34623e-08 -7.52422e-08 1.18027e-09)
(1.10934e-08 -8.36358e-08 2.96868e-08)
(1.00313e-08 -7.69655e-08 1.0368e-08)
(9.13594e-09 -7.27557e-08 9.36144e-09)
(8.48326e-09 -7.07048e-08 8.81918e-09)
(7.97745e-09 -7.00536e-08 7.59096e-09)
(7.5946e-09 -7.00272e-08 5.797e-09)
(7.33896e-09 -7.0188e-08 3.61999e-09)
(7.21193e-09 -7.03142e-08 1.22924e-09)
(9.66167e-09 -8.48808e-08 3.07374e-08)
(8.70323e-09 -7.81094e-08 1.1304e-08)
(7.89358e-09 -7.38451e-08 1.00967e-08)
(7.18899e-09 -7.17497e-08 9.37815e-09)
(6.65496e-09 -7.10612e-08 8.00033e-09)
(6.28638e-09 -7.10058e-08 6.07643e-09)
(6.05571e-09 -7.11469e-08 3.78259e-09)
(5.94425e-09 -7.12632e-08 1.28261e-09)
(-1.00183e-08 -8.98075e-08 3.34484e-08)
(-9.13654e-09 -8.42441e-08 1.22115e-08)
(-9.28791e-09 -8.05699e-08 1.07176e-08)
(-9.6456e-09 -7.87448e-08 9.93329e-09)
(-9.93052e-09 -7.81721e-08 8.43994e-09)
(-1.01272e-08 -7.8174e-08 6.38346e-09)
(-1.0253e-08 -7.83445e-08 3.96208e-09)
(-1.03155e-08 -7.84734e-08 1.34155e-09)
)
;
        gradient        uniform (0 0 0);
    }
    symmetry
    {
        type            solidSymmetry;
        patchType       symmetry;
        secondOrder     false;
        value           nonuniform List<vector> 
32
(
(8.14372e-09 8.39532e-09 0)
(1.29954e-08 6.01943e-09 0)
(1.36517e-08 3.91605e-09 0)
(1.37356e-08 2.75306e-09 0)
(1.44022e-08 2.09699e-09 0)
(1.5936e-08 1.70902e-09 0)
(1.86263e-08 3.31098e-10 0)
(2.28883e-08 -1.65898e-08 0)
(-2.27048e-10 1.36923e-09 0)
(1.09198e-09 2.19972e-09 0)
(1.59834e-09 2.3441e-09 0)
(1.89053e-09 1.84981e-09 0)
(2.49595e-09 1.06474e-09 0)
(3.55631e-09 2.69328e-10 0)
(5.13013e-09 -1.18836e-09 0)
(6.93237e-09 -1.61724e-08 0)
(2.00231e-10 1.27788e-09 0)
(-8.04662e-10 1.88046e-09 0)
(-5.74042e-10 1.79467e-09 0)
(3.30312e-10 1.07267e-09 0)
(1.39389e-09 6.00382e-11 0)
(2.4706e-09 -9.64175e-10 0)
(3.48736e-09 -2.6405e-09 0)
(4.65902e-09 -1.77034e-08 0)
(-8.06381e-09 8.10724e-09 0)
(-1.25519e-08 5.08041e-09 0)
(-1.24527e-08 2.29557e-09 0)
(-1.13195e-08 4.47775e-10 0)
(-1.02934e-08 -8.90764e-10 0)
(-9.67942e-09 -1.95527e-09 0)
(-9.83333e-09 -3.99367e-09 0)
(-1.12786e-08 -2.13083e-08 0)
)
;
    }
    bottom
    {
        type            fixedDisplacement;
        value           uniform (0 0 0);
    }
}


// ************************************************************************* //
