/*--------------------------------*- C++ -*----------------------------------*\
| =========                 |                                                 |
| \\      /  F ield         | OpenFOAM: The Open Source CFD Toolbox           |
|  \\    /   O peration     | Version:  v1912                                 |
|   \\  /    A nd           | Website:  www.openfoam.com                      |
|    \\/     M anipulation  |                                                 |
\*---------------------------------------------------------------------------*/
FoamFile
{
    version     2.0;
    format      ascii;
    class       volVectorField;
    location    "0.31/solid";
    object      DD;
}
// * * * * * * * * * * * * * * * * * * * * * * * * * * * * * * * * * * * * * //

dimensions      [0 1 0 0 0 0 0];


internalField   nonuniform List<vector> 
256
(
(4.84635e-10 4.43903e-10 5.30449e-10)
(9.12887e-11 2.2432e-10 4.35097e-10)
(-9.87601e-11 2.2045e-10 4.31824e-10)
(-4.76441e-10 4.26956e-10 5.19321e-10)
(7.90102e-10 2.51053e-10 1.09567e-09)
(1.85013e-10 1.09507e-10 9.72907e-10)
(-1.95628e-10 1.06708e-10 9.67259e-10)
(-7.80396e-10 2.42606e-10 1.0772e-09)
(8.14386e-10 -7.97416e-11 1.46622e-09)
(1.94689e-10 -1.3165e-10 1.34258e-09)
(-2.08738e-10 -1.32156e-10 1.33591e-09)
(-8.08329e-10 -8.0006e-11 1.44461e-09)
(7.78451e-10 -4.12761e-10 1.79163e-09)
(1.74913e-10 -4.44585e-10 1.65744e-09)
(-1.95245e-10 -4.428e-10 1.65012e-09)
(-7.78704e-10 -4.06331e-10 1.76794e-09)
(7.72173e-10 -7.63655e-10 2.12878e-09)
(1.65208e-10 -8.26505e-10 1.97587e-09)
(-1.94571e-10 -8.22699e-10 1.96803e-09)
(-7.81289e-10 -7.51437e-10 2.10349e-09)
(8.6703e-10 -1.1754e-09 2.51735e-09)
(1.97719e-10 -1.28477e-09 2.34278e-09)
(-2.38719e-10 -1.27922e-09 2.33449e-09)
(-8.87603e-10 -1.15812e-09 2.49081e-09)
(1.15695e-09 -1.78619e-09 2.9964e-09)
(2.9811e-10 -1.86304e-09 2.81004e-09)
(-3.5387e-10 -1.85598e-09 2.80115e-09)
(-1.19122e-09 -1.76436e-09 2.96853e-09)
(1.61431e-09 -2.89918e-09 3.49442e-09)
(4.1002e-10 -2.73035e-09 3.32684e-09)
(-4.85427e-10 -2.71987e-09 3.3169e-09)
(-1.66384e-09 -2.86734e-09 3.46434e-09)
(2.30423e-10 1.15893e-10 1.6874e-10)
(3.89358e-11 -2.88792e-11 2.09751e-10)
(-4.17645e-11 -3.05067e-11 2.08536e-10)
(-2.20883e-10 1.04832e-10 1.64828e-10)
(3.89925e-10 -9.03295e-11 5.64578e-10)
(8.77387e-11 -1.88833e-10 6.41868e-10)
(-8.90711e-11 -1.90214e-10 6.38679e-10)
(-3.75927e-10 -9.55857e-11 5.55002e-10)
(3.93009e-10 -3.69794e-10 9.20232e-10)
(8.93433e-11 -4.07818e-10 1.009e-09)
(-9.14759e-11 -4.07708e-10 1.00475e-09)
(-3.80369e-10 -3.6897e-10 9.07509e-10)
(3.55496e-10 -6.759e-10 1.24039e-09)
(7.09819e-11 -7.02633e-10 1.32865e-09)
(-7.75898e-11 -7.00635e-10 1.32378e-09)
(-3.47431e-10 -6.69332e-10 1.22568e-09)
(3.43057e-10 -1.01061e-09 1.55911e-09)
(6.17211e-11 -1.06943e-09 1.64233e-09)
(-7.60227e-11 -1.06561e-09 1.63698e-09)
(-3.42446e-10 -9.98725e-10 1.54282e-09)
(4.2539e-10 -1.38251e-09 1.89696e-09)
(9.2222e-11 -1.48891e-09 1.97492e-09)
(-1.17127e-10 -1.48348e-09 1.96912e-09)
(-4.34988e-10 -1.36587e-09 1.8792e-09)
(7.01207e-10 -1.85097e-09 2.2235e-09)
(1.89017e-10 -1.92524e-09 2.29978e-09)
(-2.27774e-10 -1.91851e-09 2.29347e-09)
(-7.23229e-10 -1.83021e-09 2.20422e-09)
(1.15611e-09 -2.62246e-09 2.38113e-09)
(2.97231e-10 -2.4351e-09 2.46008e-09)
(-3.5466e-10 -2.42563e-09 2.4534e-09)
(-1.19193e-09 -2.59274e-09 2.3607e-09)
(8.00263e-11 9.4243e-12 9.13559e-11)
(-5.71604e-12 -8.59349e-11 1.47946e-10)
(4.42795e-12 -8.7195e-11 1.47028e-10)
(-6.9748e-11 -1.06614e-12 8.86513e-11)
(1.32347e-10 -2.55502e-10 3.82954e-10)
(4.70593e-13 -3.18922e-10 4.83972e-10)
(2.41322e-12 -3.19958e-10 4.81575e-10)
(-1.15455e-10 -2.6045e-10 3.76119e-10)
(1.17402e-10 -5.42541e-10 6.97253e-10)
(-6.73e-12 -5.68302e-10 8.10199e-10)
(1.10607e-11 -5.68096e-10 8.06841e-10)
(-9.97807e-11 -5.42021e-10 6.87613e-10)
(8.26667e-11 -8.29769e-10 9.98956e-10)
(-2.37036e-11 -8.54655e-10 1.1127e-09)
(2.53858e-11 -8.52776e-10 1.10872e-09)
(-6.78585e-11 -8.23968e-10 9.8736e-10)
(7.19443e-11 -1.12142e-09 1.28816e-09)
(-3.20124e-11 -1.1807e-09 1.39992e-09)
(2.74736e-11 -1.17713e-09 1.39546e-09)
(-6.31045e-11 -1.11057e-09 1.275e-09)
(1.52529e-10 -1.41175e-09 1.55642e-09)
(-2.90112e-12 -1.5183e-09 1.66651e-09)
(-1.10302e-11 -1.51322e-09 1.66162e-09)
(-1.52575e-10 -1.39634e-09 1.54185e-09)
(4.22415e-10 -1.74672e-09 1.75127e-09)
(9.03404e-11 -1.82262e-09 1.8614e-09)
(-1.17117e-10 -1.81635e-09 1.85613e-09)
(-4.33639e-10 -1.72738e-09 1.73543e-09)
(8.63294e-10 -2.36509e-09 1.76977e-09)
(1.94867e-10 -2.18957e-09 1.88301e-09)
(-2.39538e-10 -2.1806e-09 1.87756e-09)
(-8.87182e-10 -2.33646e-09 1.75317e-09)
(2.67992e-11 -2.36992e-11 8.02193e-11)
(-2.15653e-11 -9.3826e-11 1.14481e-10)
(2.08661e-11 -9.51416e-11 1.13795e-10)
(-1.59576e-11 -3.45842e-11 7.82666e-11)
(3.51434e-11 -3.16153e-10 3.09574e-10)
(-3.40162e-11 -3.60963e-10 3.7078e-10)
(3.89971e-11 -3.62139e-10 3.6904e-10)
(-1.62592e-11 -3.21855e-10 3.04704e-10)
(1.25614e-11 -6.15414e-10 5.67524e-10)
(-4.52651e-11 -6.34769e-10 6.35485e-10)
(5.33541e-11 -6.34774e-10 6.32995e-10)
(8.63967e-12 -6.15844e-10 5.60481e-10)
(-1.70295e-11 -8.89239e-10 8.24079e-10)
(-6.01481e-11 -9.14293e-10 8.916e-10)
(6.71676e-11 -9.12699e-10 8.88566e-10)
(3.69468e-11 -8.84535e-10 8.15353e-10)
(-2.10751e-11 -1.14011e-09 1.06218e-09)
(-6.58919e-11 -1.20119e-09 1.12746e-09)
(6.80814e-11 -1.19796e-09 1.12399e-09)
(3.64023e-11 -1.13045e-09 1.05206e-09)
(6.38003e-11 -1.3668e-09 1.25918e-09)
(-3.59086e-11 -1.47478e-09 1.32261e-09)
(2.98902e-11 -1.47008e-09 1.31876e-09)
(-5.61317e-11 -1.35262e-09 1.24784e-09)
(3.30911e-10 -1.63305e-09 1.37351e-09)
(5.52522e-11 -1.71361e-09 1.43683e-09)
(-7.31585e-11 -1.70771e-09 1.43269e-09)
(-3.33329e-10 -1.61489e-09 1.36115e-09)
(7.5855e-10 -2.20111e-09 1.35897e-09)
(1.57071e-10 -2.04633e-09 1.42653e-09)
(-1.92203e-10 -2.03765e-09 1.42227e-09)
(-7.72719e-10 -2.17322e-09 1.34605e-09)
(1.4153e-11 -3.4706e-11 7.04717e-11)
(-2.29926e-11 -9.41104e-11 8.65446e-11)
(2.25952e-11 -9.55073e-11 8.6066e-11)
(-2.93184e-12 -4.59492e-11 6.91352e-11)
(1.34871e-11 -3.30738e-10 2.49151e-10)
(-3.86524e-11 -3.68358e-10 2.76835e-10)
(4.48437e-11 -3.69758e-10 2.75627e-10)
(6.68268e-12 -3.37256e-10 2.45818e-10)
(-8.29825e-12 -6.30295e-10 4.47346e-10)
(-4.97763e-11 -6.47966e-10 4.77062e-10)
(6.02218e-11 -6.48257e-10 4.75315e-10)
(3.18863e-11 -6.31731e-10 4.4246e-10)
(-3.23508e-11 -8.91946e-10 6.45344e-10)
(-6.23405e-11 -9.18369e-10 6.73631e-10)
(7.29317e-11 -9.17088e-10 6.71461e-10)
(5.58332e-11 -8.88319e-10 6.39162e-10)
(-2.98083e-11 -1.11572e-09 8.24133e-10)
(-6.54537e-11 -1.17875e-09 8.50154e-10)
(7.23659e-11 -1.17585e-09 8.47629e-10)
(4.98364e-11 -1.10714e-09 8.16823e-10)
(5.94003e-11 -1.30854e-09 9.61412e-10)
(-3.41202e-11 -1.41804e-09 9.85712e-10)
(3.38358e-11 -1.41367e-09 9.82885e-10)
(-4.60013e-11 -1.29543e-09 9.53117e-10)
(3.24253e-10 -1.54884e-09 1.03109e-09)
(5.58003e-11 -1.63358e-09 1.05537e-09)
(-6.71497e-11 -1.62799e-09 1.05231e-09)
(-3.20043e-10 -1.53168e-09 1.022e-09)
(7.42395e-10 -2.09835e-09 1.01486e-09)
(1.55965e-10 -1.96012e-09 1.04278e-09)
(-1.83941e-10 -1.95168e-09 1.03965e-09)
(-7.49185e-10 -2.07119e-09 1.00541e-09)
(1.29437e-11 -3.78496e-11 5.48071e-11)
(-2.10388e-11 -9.31058e-11 6.16291e-11)
(2.08063e-11 -9.45617e-11 6.132e-11)
(-1.48575e-12 -4.93387e-11 5.39552e-11)
(1.43905e-11 -3.28175e-10 1.8373e-10)
(-3.50222e-11 -3.63993e-10 1.94396e-10)
(4.19326e-11 -3.65573e-10 1.93613e-10)
(6.57721e-12 -3.35307e-10 1.81592e-10)
(-3.5244e-12 -6.2087e-10 3.23078e-10)
(-4.447e-11 -6.39103e-10 3.33486e-10)
(5.63843e-11 -6.39637e-10 3.32342e-10)
(2.86323e-11 -6.23109e-10 3.1991e-10)
(-2.28597e-11 -8.7188e-10 4.60828e-10)
(-5.50285e-11 -8.99961e-10 4.69654e-10)
(6.79397e-11 -8.98946e-10 4.68216e-10)
(4.86886e-11 -8.69124e-10 4.56763e-10)
(-1.56413e-11 -1.08072e-09 5.82598e-10)
(-5.62304e-11 -1.14534e-09 5.89666e-10)
(6.63131e-11 -1.14271e-09 5.8797e-10)
(3.88554e-11 -1.07303e-09 5.77721e-10)
(7.6267e-11 -1.25945e-09 6.72361e-10)
(-2.39474e-11 -1.36999e-09 6.78256e-10)
(2.76062e-11 -1.36588e-09 6.76339e-10)
(-5.88996e-11 -1.2472e-09 6.66764e-10)
(3.39161e-10 -1.49213e-09 7.1519e-10)
(6.51613e-11 -1.57933e-09 7.21241e-10)
(-7.19198e-11 -1.57399e-09 7.19163e-10)
(-3.30291e-10 -1.47578e-09 7.09027e-10)
(7.50946e-10 -2.03273e-09 7.03594e-10)
(1.64323e-10 -1.90444e-09 7.12147e-10)
(-1.87202e-10 -1.89621e-09 7.10035e-10)
(-7.52482e-10 -2.00623e-09 6.97209e-10)
(1.35658e-11 -3.81359e-11 3.45843e-11)
(-1.9427e-11 -9.17904e-11 3.73284e-11)
(1.9278e-11 -9.32842e-11 3.71568e-11)
(-1.97193e-12 -4.9779e-11 3.41155e-11)
(1.80433e-11 -3.21658e-10 1.12553e-10)
(-3.15928e-11 -3.57441e-10 1.16278e-10)
(3.8904e-11 -3.59139e-10 1.1584e-10)
(3.38588e-12 -3.29181e-10 1.11367e-10)
(3.49208e-12 -6.06913e-10 1.95038e-10)
(-3.95465e-11 -6.26159e-10 1.98063e-10)
(5.23115e-11 -6.26859e-10 1.9742e-10)
(2.25115e-11 -6.09684e-10 1.93266e-10)
(-1.26174e-11 -8.50257e-10 2.75572e-10)
(-4.87283e-11 -8.7965e-10 2.77474e-10)
(6.30218e-11 -8.7882e-10 2.76658e-10)
(3.98598e-11 -8.48094e-10 2.73277e-10)
(-2.6285e-12 -1.05179e-09 3.45761e-10)
(-4.87847e-11 -1.11744e-09 3.46608e-10)
(6.0801e-11 -1.115e-09 3.45637e-10)
(2.78008e-11 -1.0447e-09 3.4298e-10)
(9.06371e-11 -1.22567e-09 3.96509e-10)
(-1.59938e-11 -1.33674e-09 3.96738e-10)
(2.21022e-11 -1.33282e-09 3.95631e-10)
(-7.07901e-11 -1.21402e-09 3.9329e-10)
(3.52103e-10 -1.45684e-09 4.20178e-10)
(7.26029e-11 -1.54514e-09 4.20601e-10)
(-7.64644e-11 -1.53998e-09 4.19399e-10)
(-3.40282e-10 -1.44108e-09 4.1662e-10)
(7.59927e-10 -1.99287e-09 4.13551e-10)
(1.71148e-10 -1.86956e-09 4.15389e-10)
(-1.90759e-10 -1.8615e-09 4.14175e-10)
(-7.58094e-10 -1.96689e-09 4.09878e-10)
(1.39558e-11 -3.78212e-11 1.17999e-11)
(-1.86871e-11 -9.0892e-11 1.25458e-11)
(1.85726e-11 -9.24045e-11 1.2491e-11)
(-2.29958e-12 -4.95395e-11 1.16507e-11)
(1.99713e-11 -3.17212e-10 3.78909e-11)
(-2.99578e-11 -3.53203e-10 3.87992e-11)
(3.74482e-11 -3.5496e-10 3.8659e-11)
(1.67035e-12 -3.24926e-10 3.75118e-11)
(7.13321e-12 -5.98076e-10 6.51757e-11)
(-3.71474e-11 -6.17955e-10 6.57821e-11)
(5.0303e-11 -6.18737e-10 6.5575e-11)
(1.92878e-11 -6.0111e-10 6.46067e-11)
(-7.39633e-12 -8.37489e-10 9.16172e-11)
(-4.56543e-11 -8.67573e-10 9.18281e-11)
(6.0594e-11 -8.66837e-10 9.1564e-11)
(3.53055e-11 -8.35626e-10 9.08761e-11)
(3.853e-12 -1.03607e-09 1.14501e-10)
(-4.51862e-11 -1.10222e-09 1.14366e-10)
(5.81193e-11 -1.09988e-09 1.14051e-10)
(2.2254e-11 -1.0293e-09 1.13599e-10)
(9.76607e-11 -1.20861e-09 1.30924e-10)
(-1.21837e-11 -1.31988e-09 1.30602e-10)
(1.94676e-11 -1.31606e-09 1.30241e-10)
(-7.66175e-11 -1.19728e-09 1.29875e-10)
(3.58385e-10 -1.43976e-09 1.38533e-10)
(7.61647e-11 -1.52841e-09 1.38295e-10)
(-7.86203e-11 -1.52336e-09 1.37902e-10)
(-3.45127e-10 -1.42431e-09 1.37371e-10)
(7.64287e-10 -1.97387e-09 1.36394e-10)
(1.74404e-10 -1.85253e-09 1.3661e-10)
(-1.92412e-10 -1.84456e-09 1.36215e-10)
(-7.60798e-10 -1.94816e-09 1.35197e-10)
)
;

boundaryField
{
    interface
    {
        type            calculated;
        value           nonuniform List<vector> 
192
(
(4.33943e-10 7.62587e-10 4.61625e-10)
(7.00331e-10 3.3349e-10 9.82762e-10)
(7.26554e-10 -8.26553e-11 1.34638e-09)
(6.97315e-10 -4.23314e-10 1.67302e-09)
(6.92323e-10 -7.41511e-10 2.01124e-09)
(7.74302e-10 -1.07921e-09 2.39925e-09)
(1.0268e-09 -1.59937e-09 2.87555e-09)
(1.61346e-09 -2.77487e-09 3.36962e-09)
(5.27371e-11 2.7098e-10 6.75923e-11)
(1.85489e-10 -4.9684e-11 4.00144e-10)
(1.83885e-10 -3.78402e-10 7.4599e-10)
(1.44342e-10 -6.88389e-10 1.06645e-09)
(1.25375e-10 -9.93137e-10 1.38405e-09)
(1.88068e-10 -1.29297e-09 1.71834e-09)
(4.21948e-10 -1.66829e-09 2.03987e-09)
(1.02656e-09 -2.50205e-09 2.19338e-09)
(-9.62373e-11 6.25173e-11 4.04543e-11)
(-4.89402e-11 -2.46159e-10 2.94263e-10)
(-6.69375e-11 -5.54962e-10 6.02144e-10)
(-1.03973e-10 -8.41134e-10 9.05828e-10)
(-1.19624e-10 -1.10396e-09 1.19713e-09)
(-5.33565e-11 -1.32413e-09 1.46602e-09)
(1.85678e-10 -1.56903e-09 1.6587e-09)
(7.72107e-10 -2.2474e-09 1.67038e-09)
(-1.49962e-10 -8.2137e-12 6.3754e-11)
(-1.38552e-10 -3.19714e-10 2.79862e-10)
(-1.62709e-10 -6.28458e-10 5.36101e-10)
(-1.939e-10 -8.9765e-10 7.95327e-10)
(-2.01402e-10 -1.11991e-09 1.03674e-09)
(-1.27702e-10 -1.2788e-09 1.2359e-09)
(1.14343e-10 -1.45936e-09 1.34897e-09)
(6.81811e-10 -2.08437e-09 1.32874e-09)
(-1.64614e-10 -2.77961e-11 6.70101e-11)
(-1.60153e-10 -3.36352e-10 2.43965e-10)
(-1.82599e-10 -6.41756e-10 4.43327e-10)
(-2.07361e-10 -8.97325e-10 6.43888e-10)
(-2.07065e-10 -1.09278e-09 8.25493e-10)
(-1.27266e-10 -1.22002e-09 9.6453e-10)
(1.15152e-10 -1.37809e-09 1.03315e-09)
(6.67647e-10 -1.98202e-09 1.01296e-09)
(-1.66803e-10 -3.10162e-11 5.46618e-11)
(-1.59733e-10 -3.32293e-10 1.8487e-10)
(-1.77766e-10 -6.30184e-10 3.26026e-10)
(-1.97079e-10 -8.74911e-10 4.65763e-10)
(-1.91246e-10 -1.05594e-09 5.89394e-10)
(-1.07791e-10 -1.17075e-09 6.80171e-10)
(1.33791e-10 -1.32346e-09 7.22154e-10)
(6.75865e-10 -1.91686e-09 7.07977e-10)
(-1.66447e-10 -3.02337e-11 3.48382e-11)
(-1.56202e-10 -3.24177e-10 1.13949e-10)
(-1.70557e-10 -6.1458e-10 1.97703e-10)
(-1.86169e-10 -8.51789e-10 2.79439e-10)
(-1.77043e-10 -1.02597e-09 3.50635e-10)
(-9.17588e-11 -1.13699e-09 4.01858e-10)
(1.48838e-10 -1.28952e-09 4.24985e-10)
(6.84391e-10 -1.87749e-09 4.16887e-10)
(-1.66081e-10 -2.93395e-11 1.18976e-11)
(-1.54244e-10 -3.18919e-10 3.83732e-11)
(-1.66741e-10 -6.04919e-10 6.60863e-11)
(-1.80546e-10 -8.38311e-10 9.29227e-11)
(-1.6992e-10 -1.00981e-09 1.16122e-10)
(-8.39051e-11 -1.11998e-09 1.3268e-10)
(1.56097e-10 -1.27311e-09 1.40104e-10)
(6.88503e-10 -1.8588e-09 1.37484e-10)
(4.95194e-10 8.50435e-10 4.01198e-10)
(8.1585e-10 4.84998e-10 9.19214e-10)
(8.43381e-10 9.42499e-11 1.29275e-09)
(8.04196e-10 -2.47119e-10 1.62893e-09)
(7.92705e-10 -5.82223e-10 1.97076e-09)
(8.82432e-10 -9.58498e-10 2.34628e-09)
(1.17078e-09 -1.54192e-09 2.78261e-09)
(1.63481e-09 -2.77929e-09 3.39711e-09)
(6.66169e-11 5.76322e-10 2.09338e-10)
(1.52892e-10 3.3638e-10 6.92404e-10)
(1.62099e-10 3.94853e-11 1.05075e-09)
(1.39522e-10 -2.86261e-10 1.36391e-09)
(1.25007e-10 -6.55169e-10 1.67524e-09)
(1.5199e-10 -1.07623e-09 2.01637e-09)
(2.49288e-10 -1.61702e-09 2.43036e-09)
(3.65632e-10 -2.60729e-09 3.09751e-09)
(-7.77212e-11 5.70222e-10 2.0057e-10)
(-1.69574e-10 3.32733e-10 6.82467e-10)
(-1.83247e-10 3.85618e-11 1.03946e-09)
(-1.67635e-10 -2.84772e-10 1.3516e-09)
(-1.6268e-10 -6.51606e-10 1.66209e-09)
(-2.01727e-10 -1.07094e-09 2.00239e-09)
(-3.14261e-10 -1.61037e-09 2.4153e-09)
(-4.51062e-10 -2.59699e-09 3.08026e-09)
(-4.89904e-10 8.26088e-10 3.72555e-10)
(-8.11199e-10 4.7393e-10 8.86849e-10)
(-8.43458e-10 9.26813e-11 1.25603e-09)
(-8.11341e-10 -2.41609e-10 1.58907e-09)
(-8.09305e-10 -5.7072e-10 1.92852e-09)
(-9.1096e-10 -9.41856e-10 2.30206e-09)
(-1.21344e-09 -1.52097e-09 2.73645e-09)
(-1.69336e-09 -2.74783e-09 3.34769e-09)
(-3.65863e-10 7.41167e-10 4.48687e-10)
(-6.30158e-10 3.25581e-10 9.60667e-10)
(-6.58653e-10 -8.04259e-11 1.32004e-09)
(-6.34348e-10 -4.13088e-10 1.64379e-09)
(-6.36878e-10 -7.2421e-10 1.97976e-09)
(-7.28568e-10 -1.05563e-09 2.36597e-09)
(-9.91098e-10 -1.57029e-09 2.84041e-09)
(-1.57772e-09 -2.73436e-09 3.33159e-09)
(5.22104e-12 2.54035e-10 6.3147e-11)
(-1.24415e-10 -5.57125e-11 3.88755e-10)
(-1.23242e-10 -3.76092e-10 7.30361e-10)
(-8.71039e-11 -6.78811e-10 1.04796e-09)
(-7.43047e-11 -9.76833e-10 1.36326e-09)
(-1.45472e-10 -1.27067e-09 1.69544e-09)
(-3.88367e-10 -1.64097e-09 2.01482e-09)
(-9.91811e-10 -2.46434e-09 2.16653e-09)
(1.51691e-10 4.52346e-11 3.74126e-11)
(1.09423e-10 -2.52941e-10 2.86193e-10)
(1.28953e-10 -5.53918e-10 5.90352e-10)
(1.64348e-10 -8.33134e-10 8.91256e-10)
(1.755e-10 -1.08938e-09 1.18028e-09)
(1.02459e-10 -1.3037e-09 1.44713e-09)
(-1.43899e-10 -1.54372e-09 1.63795e-09)
(-7.28258e-10 -2.21123e-09 1.64836e-09)
(2.04472e-10 -2.65301e-11 6.15576e-11)
(1.99357e-10 -3.28003e-10 2.74163e-10)
(2.2656e-10 -6.29143e-10 5.27558e-10)
(2.57673e-10 -8.91473e-10 7.84424e-10)
(2.62232e-10 -1.10717e-09 1.02382e-09)
(1.83321e-10 -1.26018e-09 1.22119e-09)
(-6.4533e-11 -1.43573e-09 1.33275e-09)
(-6.28979e-10 -2.04933e-09 1.31155e-09)
(2.18751e-10 -4.6887e-11 6.55135e-11)
(2.2141e-10 -3.4596e-10 2.40105e-10)
(2.47982e-10 -6.44017e-10 4.37457e-10)
(2.73889e-10 -8.92803e-10 6.36223e-10)
(2.71924e-10 -1.08168e-09 8.16207e-10)
(1.88177e-10 -1.20296e-09 9.53807e-10)
(-5.88598e-11 -1.35587e-09 1.02124e-09)
(-6.07518e-10 -1.94803e-09 1.00035e-09)
(2.20844e-10 -5.06117e-11 5.37128e-11)
(2.21427e-10 -3.42835e-10 1.82413e-10)
(2.44313e-10 -6.33634e-10 3.22251e-10)
(2.65643e-10 -8.71676e-10 4.60754e-10)
(2.59075e-10 -1.04612e-09 5.83228e-10)
(1.72606e-10 -1.15491e-09 6.72959e-10)
(-7.27223e-11 -1.30237e-09 7.14086e-10)
(-6.10326e-10 -1.8838e-09 6.99436e-10)
(2.20509e-10 -5.01326e-11 3.43176e-11)
(2.18233e-10 -3.353e-10 1.12592e-10)
(2.37887e-10 -6.188e-10 1.95601e-10)
(2.56067e-10 -8.49413e-10 2.76621e-10)
(2.46811e-10 -1.01703e-09 3.47129e-10)
(1.59123e-10 -1.12199e-09 3.97719e-10)
(-8.46446e-11 -1.26924e-09 4.20328e-10)
(-6.15288e-10 -1.84515e-09 4.11956e-10)
(2.20177e-10 -4.93823e-11 1.17321e-11)
(2.16457e-10 -3.30321e-10 3.79401e-11)
(2.34465e-10 -6.09517e-10 6.54121e-11)
(2.51103e-10 -8.36363e-10 9.20142e-11)
(2.40645e-10 -1.00131e-09 1.14985e-10)
(1.52529e-10 -1.10543e-09 1.31332e-10)
(-9.03536e-11 -1.25325e-09 1.38582e-10)
(-6.1762e-10 -1.82684e-09 1.35872e-10)
(1.63425e-09 -2.80263e-09 3.48519e-09)
(1.16946e-09 -2.40977e-09 2.24761e-09)
(8.78252e-10 -2.19601e-09 1.66443e-09)
(7.78217e-10 -2.04724e-09 1.29228e-09)
(7.65995e-10 -1.94458e-09 9.72763e-10)
(7.76799e-10 -1.87627e-09 6.77224e-10)
(7.86779e-10 -1.83427e-09 3.98837e-10)
(7.91475e-10 -1.81421e-09 1.31643e-10)
(3.65185e-10 -2.50174e-09 3.31456e-09)
(2.48014e-10 -2.05661e-09 2.32488e-09)
(1.48731e-10 -1.86538e-09 1.78582e-09)
(1.16192e-10 -1.74989e-09 1.36917e-09)
(1.19284e-10 -1.6736e-09 1.0073e-09)
(1.30181e-10 -1.62112e-09 6.89506e-10)
(1.38292e-10 -1.58706e-09 4.02412e-10)
(1.42063e-10 -1.57015e-09 1.32352e-10)
(-4.51187e-10 -2.48378e-09 3.30478e-09)
(-3.15262e-10 -2.0407e-09 2.31858e-09)
(-2.02827e-10 -1.85029e-09 1.78056e-09)
(-1.60494e-10 -1.73526e-09 1.36504e-09)
(-1.56189e-10 -1.65925e-09 1.00429e-09)
(-1.61768e-10 -1.60697e-09 6.87491e-10)
(-1.66442e-10 -1.57306e-09 4.01262e-10)
(-1.68517e-10 -1.55623e-09 1.31979e-10)
(-1.69347e-09 -2.75094e-09 3.45544e-09)
(-1.21437e-09 -2.36096e-09 2.22798e-09)
(-9.10843e-10 -2.14844e-09 1.64829e-09)
(-8.00786e-10 -2.00056e-09 1.27973e-09)
(-7.80903e-10 -1.89857e-09 9.63658e-10)
(-7.86205e-10 -1.83081e-09 6.71135e-10)
(-7.92632e-10 -1.78922e-09 3.95362e-10)
(-7.95573e-10 -1.76938e-09 1.30516e-10)
)
;
    }
    symmetry
    {
        type            symmetry;
    }
    bottom
    {
        type            calculated;
        value           uniform (0 0 0);
    }
}


// ************************************************************************* //
