/*--------------------------------*- C++ -*----------------------------------*\
| =========                 |                                                 |
| \\      /  F ield         | OpenFOAM: The Open Source CFD Toolbox           |
|  \\    /   O peration     | Version:  v1912                                 |
|   \\  /    A nd           | Website:  www.openfoam.com                      |
|    \\/     M anipulation  |                                                 |
\*---------------------------------------------------------------------------*/
FoamFile
{
    version     2.0;
    format      ascii;
    class       volSymmTensorField;
    location    "0.31/solid";
    object      epsilon;
}
// * * * * * * * * * * * * * * * * * * * * * * * * * * * * * * * * * * * * * //

dimensions      [0 0 0 0 0 0 0];


internalField   nonuniform List<symmTensor> 
256
(
(-2.56578e-06 6.79637e-08 -2.15839e-08 9.3266e-07 6.65206e-08 -2.72627e-06)
(-2.72993e-07 -6.83071e-08 -7.43154e-09 6.11329e-07 7.00297e-08 -2.52001e-06)
(-2.70557e-07 8.97478e-08 7.73934e-09 5.99981e-07 7.24781e-08 -2.49848e-06)
(-2.49429e-06 -5.70766e-08 2.27956e-08 8.89183e-07 7.5579e-08 -2.67046e-06)
(-2.53046e-06 -1.43029e-08 -2.95208e-08 -1.98873e-07 -1.87746e-08 -2.68415e-06)
(-4.37466e-07 -2.31165e-08 -1.13788e-08 -3.1276e-08 -1.42851e-08 -2.49061e-06)
(-4.34489e-07 3.96414e-08 1.25735e-08 -4.27025e-08 -1.26388e-08 -2.46817e-06)
(-2.45644e-06 2.1448e-08 3.15793e-08 -2.31966e-07 -1.27967e-08 -2.62952e-06)
(-2.57104e-06 -1.49242e-08 -3.14779e-08 -1.63197e-07 -2.2607e-08 -2.72247e-06)
(-4.38911e-07 -1.09266e-08 -1.24799e-08 -7.54464e-08 -2.159e-08 -2.5073e-06)
(-4.36283e-07 2.33202e-08 1.40214e-08 -8.6193e-08 -2.04749e-08 -2.48444e-06)
(-2.49609e-06 2.00817e-08 3.37488e-08 -1.93407e-07 -1.84623e-08 -2.66718e-06)
(-2.6262e-06 -4.96767e-09 -3.2292e-08 -9.15199e-08 -1.48856e-08 -2.78352e-06)
(-4.13351e-07 -4.5308e-09 -1.28012e-08 -7.35183e-08 -1.40948e-08 -2.55864e-06)
(-4.10953e-07 1.36401e-08 1.43465e-08 -8.33956e-08 -1.32499e-08 -2.53566e-06)
(-2.55049e-06 8.78829e-09 3.45966e-08 -1.19374e-07 -1.17027e-08 -2.72783e-06)
(-2.71055e-06 1.17543e-09 -3.18858e-08 -4.90677e-08 -8.45835e-09 -2.87374e-06)
(-4.0072e-07 -9.54405e-10 -1.24959e-08 -5.87343e-08 -7.12978e-09 -2.64965e-06)
(-3.98371e-07 7.39295e-09 1.3958e-08 -6.81629e-08 -6.40307e-09 -2.62661e-06)
(-2.63432e-06 1.52259e-09 3.4193e-08 -7.55665e-08 -5.77875e-09 -2.81776e-06)
(-2.8437e-06 5.06023e-09 -3.03515e-08 -5.59419e-08 -2.26738e-09 -3.01031e-06)
(-4.0364e-07 3.36713e-10 -1.16457e-08 -6.64707e-08 -8.1055e-10 -2.79613e-06)
(-4.01506e-07 3.65302e-09 1.30754e-08 -7.57094e-08 -9.54537e-11 -2.77303e-06)
(-2.76813e-06 -3.67004e-09 3.26893e-08 -8.20419e-08 2.11528e-10 -2.95401e-06)
(-3.03097e-06 1.54122e-08 -2.81929e-08 -4.73235e-07 1.04265e-08 -3.20267e-06)
(-4.25129e-07 2.54919e-09 -1.05658e-08 -4.41328e-07 1.16229e-08 -3.01301e-06)
(-4.24305e-07 -1.52233e-09 1.21078e-08 -4.47947e-07 1.24137e-08 -2.99019e-06)
(-2.96064e-06 -1.59815e-08 3.05955e-08 -4.94494e-07 1.28889e-08 -3.14658e-06)
(-3.25769e-06 2.66151e-08 -2.61765e-08 -3.4436e-06 2.63783e-08 -3.44333e-06)
(-4.74207e-07 1.03131e-08 -9.71284e-09 -3.31006e-06 2.75989e-08 -3.30924e-06)
(-4.76178e-07 -1.09886e-08 1.13901e-08 -3.29045e-06 2.83425e-08 -3.28943e-06)
(-3.20317e-06 -2.83849e-08 2.84975e-08 -3.39467e-06 2.84263e-08 -3.39424e-06)
(-2.2336e-06 5.47154e-08 -1.55745e-08 5.37199e-07 -1.03814e-07 -2.8601e-07)
(-2.27149e-07 -6.48842e-08 -1.21417e-09 2.56097e-07 -7.11817e-08 -2.60167e-07)
(-2.22742e-07 7.58088e-08 3.01011e-09 2.43218e-07 -6.56122e-08 -2.60524e-07)
(-2.15031e-06 -4.76999e-08 1.69671e-08 4.92157e-07 -8.63605e-08 -2.89486e-07)
(-2.22674e-06 -1.4561e-08 -1.99938e-08 -3.61487e-08 -4.37965e-08 -4.16382e-07)
(-3.72296e-07 -2.37457e-08 -3.60664e-09 1.05343e-07 -2.89193e-08 -3.79532e-07)
(-3.66851e-07 3.13918e-08 6.90262e-09 9.33873e-08 -2.52438e-08 -3.81356e-07)
(-2.14163e-06 1.78737e-08 2.22329e-08 -7.02235e-08 -3.14978e-08 -4.25325e-07)
(-2.25313e-06 -1.55435e-08 -1.9857e-08 -5.70895e-08 -3.5693e-08 -4.1857e-07)
(-3.72183e-07 -1.29573e-08 -3.59711e-09 1.92829e-08 -3.06139e-08 -3.77424e-07)
(-3.67058e-07 1.8353e-08 7.23167e-09 8.99002e-09 -2.79388e-08 -3.80297e-07)
(-2.16677e-06 1.76712e-08 2.22582e-08 -8.65145e-08 -2.63563e-08 -4.30673e-07)
(-2.30004e-06 -5.7929e-09 -1.98429e-08 -4.56965e-08 -3.34632e-08 -4.08829e-07)
(-3.47075e-07 -6.56247e-09 -3.30498e-09 -3.03785e-08 -3.09916e-08 -3.66085e-07)
(-3.4205e-07 1.02933e-08 6.77374e-09 -3.97189e-08 -2.88329e-08 -3.69533e-07)
(-2.2121e-06 7.33431e-09 2.22167e-08 -7.26431e-08 -2.58667e-08 -4.22576e-07)
(-2.38394e-06 1.09435e-09 -1.95678e-08 -3.41686e-08 -2.71861e-08 -4.07126e-07)
(-3.35952e-07 -2.47861e-09 -2.98292e-09 -4.43967e-08 -2.55233e-08 -3.6541e-07)
(-3.30799e-07 4.74769e-09 6.2175e-09 -5.33924e-08 -2.36333e-08 -3.69181e-07)
(-2.29424e-06 -1.38699e-10 2.19035e-08 -5.99336e-08 -2.06535e-08 -4.2178e-07)
(-2.52627e-06 6.0838e-09 -1.84871e-08 -5.0309e-08 -1.86822e-08 -4.12848e-07)
(-3.42725e-07 -4.12649e-10 -2.28726e-09 -6.07992e-08 -1.77987e-08 -3.73773e-07)
(-3.37613e-07 1.18526e-09 5.39711e-09 -6.95029e-08 -1.60898e-08 -3.77837e-07)
(-2.43551e-06 -6.05201e-09 2.08313e-08 -7.53713e-08 -1.29191e-08 -4.28279e-07)
(-2.74029e-06 1.71796e-08 -1.65762e-08 -4.26167e-07 -9.73749e-09 -4.29863e-07)
(-3.70379e-07 2.44754e-09 -1.31998e-09 -3.92407e-07 -9.30948e-09 -3.93692e-07)
(-3.66519e-07 -3.49485e-09 4.25556e-09 -3.97918e-07 -7.90296e-09 -3.98343e-07)
(-2.65291e-06 -1.87411e-08 1.88684e-08 -4.45051e-07 -5.07144e-09 -4.46709e-07)
(-3.03155e-06 2.84555e-08 -1.45284e-08 -3.20234e-06 1.0958e-08 -4.74155e-07)
(-4.25626e-07 1.09221e-08 -8.67153e-10 -3.01362e-06 1.19937e-08 -4.40244e-07)
(-4.24891e-07 -1.1862e-08 2.71523e-09 -2.99107e-06 1.27452e-08 -4.46032e-07)
(-2.96103e-06 -3.05411e-08 1.62339e-08 -3.14662e-06 1.32465e-08 -4.93674e-07)
(-1.98225e-06 4.64134e-08 -8.41578e-09 3.89712e-07 -1.77808e-08 5.14304e-10)
(-1.95504e-07 -6.47838e-08 2.82725e-10 1.35855e-07 6.13136e-09 -1.97949e-09)
(-1.90962e-07 7.01195e-08 1.67665e-09 1.23755e-07 1.06886e-08 -3.5457e-09)
(-1.9001e-06 -4.17342e-08 9.18167e-09 3.49577e-07 -3.72646e-09 -4.28591e-09)
(-2.01076e-06 -1.26597e-08 -9.26893e-09 -3.86097e-08 -9.07785e-09 -5.94489e-08)
(-3.2996e-07 -2.38756e-08 -2.58421e-10 8.75228e-08 3.25501e-09 -6.32232e-08)
(-3.24007e-07 2.70291e-08 3.63249e-09 7.58056e-08 7.06182e-09 -6.67894e-08)
(-1.92552e-06 1.42075e-08 1.06996e-08 -7.19927e-08 3.04352e-09 -7.01747e-08)
(-2.04005e-06 -1.46514e-08 -7.73648e-09 -2.84524e-08 -1.76197e-08 -7.86413e-08)
(-3.32193e-07 -1.35886e-08 3.66917e-10 3.96255e-08 -1.27174e-08 -8.29677e-08)
(-3.26383e-07 1.53884e-08 3.1369e-09 2.94524e-08 -9.55086e-09 -8.78159e-08)
(-1.95307e-06 1.53479e-08 9.27907e-09 -5.79849e-08 -7.32983e-09 -9.31185e-08)
(-2.08409e-06 -6.01523e-09 -7.17125e-09 -1.85388e-08 -2.56823e-08 -7.2898e-08)
(-3.08853e-07 -7.4695e-09 7.84058e-10 -5.57081e-09 -2.31699e-08 -7.78378e-08)
(-3.0302e-07 8.43904e-09 2.42761e-09 -1.48073e-08 -2.04434e-08 -8.34749e-08)
(-1.99512e-06 6.46244e-09 8.63273e-09 -4.56724e-08 -1.67883e-08 -8.96833e-08)
(-2.16519e-06 1.03654e-09 -7.16317e-09 -1.66813e-08 -2.59877e-08 -6.37159e-08)
(-2.98885e-07 -3.09174e-09 8.48011e-10 -2.77298e-08 -2.44524e-08 -6.93855e-08)
(-2.92809e-07 3.35572e-09 2.05218e-09 -3.65882e-08 -2.2038e-08 -7.55476e-08)
(-2.07391e-06 -8.63449e-10 8.53059e-09 -4.24999e-08 -1.81901e-08 -8.20236e-08)
(-2.30715e-06 6.92153e-09 -6.8929e-09 -3.91862e-08 -2.05304e-08 -5.83704e-08)
(-3.08537e-07 -3.26917e-10 1.03723e-09 -4.98198e-08 -1.99044e-08 -6.47343e-08)
(-3.02404e-07 -1.88485e-10 1.61854e-09 -5.82823e-08 -1.7807e-08 -7.13543e-08)
(-2.21398e-06 -7.38894e-09 8.19274e-09 -6.39891e-08 -1.38067e-08 -7.79594e-08)
(-2.52679e-06 1.90062e-08 -5.79585e-09 -4.04e-07 -1.44545e-08 -5.83382e-08)
(-3.41922e-07 3.20382e-09 1.5643e-09 -3.68004e-07 -1.40288e-08 -6.51812e-08)
(-3.37001e-07 -4.83131e-09 6.1669e-10 -3.73178e-07 -1.24707e-08 -7.23091e-08)
(-2.4358e-06 -2.08052e-08 6.92361e-09 -4.22384e-07 -9.37488e-09 -7.92818e-08)
(-2.84497e-06 3.05267e-08 -4.26122e-09 -3.00929e-06 5.12163e-11 -5.67432e-08)
(-4.0359e-07 1.18793e-08 1.70594e-09 -2.79672e-06 1.16126e-09 -6.40425e-08)
(-4.01827e-07 -1.28884e-08 -1.11125e-09 -2.77397e-06 1.7647e-09 -7.15964e-08)
(-2.76917e-06 -3.26812e-08 4.69272e-09 -2.95379e-06 2.02849e-09 -7.87818e-08)
(-1.82837e-06 4.13673e-08 -4.61681e-09 3.36506e-07 7.58194e-09 7.09028e-09)
(-1.77913e-07 -6.44145e-08 7.67097e-10 9.83716e-08 2.17403e-08 2.80049e-09)
(-1.74035e-07 6.66995e-08 1.06775e-09 8.74815e-08 2.51205e-08 1.59326e-09)
(-1.7497e-06 -3.83397e-08 5.14723e-09 3.01602e-07 1.79422e-08 3.62844e-09)
(-1.86493e-06 -1.15117e-08 -5.26212e-09 -6.38091e-08 7.85968e-09 -2.11205e-08)
(-3.0556e-07 -2.37589e-08 9.44145e-10 5.42175e-08 1.5897e-08 -2.91994e-08)
(-3.00281e-07 2.45104e-08 2.25189e-09 4.31994e-08 1.90667e-08 -3.21175e-08)
(-1.78274e-06 1.20972e-08 6.33329e-09 -9.53372e-08 1.76894e-08 -2.94902e-08)
(-1.89836e-06 -1.3552e-08 -3.99633e-09 -3.76371e-08 -2.88184e-09 -4.41724e-08)
(-3.10942e-07 -1.35962e-08 1.58322e-09 2.5864e-08 8.01609e-10 -5.36778e-08)
(-3.05606e-07 1.34958e-08 1.70996e-09 1.59053e-08 3.67545e-09 -5.77778e-08)
(-1.81396e-06 1.35272e-08 5.16498e-09 -6.68446e-08 6.13362e-09 -5.60088e-08)
(-1.94291e-06 -5.89685e-09 -3.37045e-09 -1.58034e-08 -1.43316e-08 -5.05808e-08)
(-2.90162e-07 -7.81498e-09 1.92013e-09 -4.27193e-09 -1.21701e-08 -6.08926e-08)
(-2.84678e-07 7.3627e-09 1.0592e-09 -1.34965e-08 -9.56866e-09 -6.58248e-08)
(-1.85619e-06 5.79613e-09 4.44831e-09 -4.318e-08 -6.13598e-09 -6.48965e-08)
(-2.0228e-06 8.47809e-10 -3.4121e-09 -1.03598e-08 -1.97594e-08 -4.87591e-08)
(-2.81025e-07 -3.45837e-09 1.84425e-09 -2.20296e-08 -1.82218e-08 -5.95502e-08)
(-2.75221e-07 2.76806e-09 7.84977e-10 -3.09162e-08 -1.58852e-08 -6.51085e-08)
(-1.93345e-06 -1.04132e-09 4.36829e-09 -3.65351e-08 -1.24265e-08 -6.49327e-08)
(-2.16339e-06 7.21851e-09 -3.51016e-09 -3.42314e-08 -1.88448e-08 -4.65248e-08)
(-2.91861e-07 -2.47161e-10 1.73517e-09 -4.48356e-08 -1.79728e-08 -5.7424e-08)
(-2.85945e-07 -7.80832e-10 5.52525e-10 -5.33297e-08 -1.59824e-08 -6.34997e-08)
(-2.07172e-06 -7.87141e-09 4.34562e-09 -5.9375e-08 -1.25851e-08 -6.42085e-08)
(-2.38353e-06 2.02818e-08 -3.06254e-09 -3.92265e-07 -1.49769e-08 -4.626e-08)
(-3.28708e-07 3.94489e-09 1.85392e-09 -3.54124e-07 -1.42962e-08 -5.70469e-08)
(-3.23952e-07 -5.75405e-09 -1.82705e-10 -3.59404e-07 -1.28902e-08 -6.35307e-08)
(-2.29327e-06 -2.21282e-08 3.66743e-09 -4.11144e-07 -1.04148e-08 -6.51362e-08)
(-2.71214e-06 3.22057e-08 -2.2773e-09 -2.87364e-06 -2.38454e-09 -4.39414e-08)
(-3.95027e-07 1.27443e-08 1.63046e-09 -2.65138e-06 -1.38771e-09 -5.48413e-08)
(-3.93374e-07 -1.38594e-08 -1.52906e-09 -2.62884e-06 -9.08444e-10 -6.14691e-08)
(-2.63556e-06 -3.44123e-08 2.21452e-09 -2.819e-06 -7.57082e-10 -6.32925e-08)
(-1.73876e-06 3.83544e-08 -2.59131e-09 3.10959e-07 1.03442e-08 1.3282e-10)
(-1.68423e-07 -6.39909e-08 6.60802e-10 8.20481e-08 1.85402e-08 -2.55395e-09)
(-1.65188e-07 6.45368e-08 8.16386e-10 7.22214e-08 2.09544e-08 -3.47484e-09)
(-1.66292e-06 -3.64135e-08 3.0111e-09 2.80243e-07 1.76786e-08 -2.51643e-09)
(-1.77616e-06 -1.11189e-08 -3.20092e-09 -8.10012e-08 9.95164e-09 -1.67345e-08)
(-2.91297e-07 -2.36668e-08 9.43924e-10 3.27206e-08 1.51064e-08 -2.2292e-08)
(-2.86794e-07 2.30528e-08 1.7146e-09 2.2427e-08 1.74789e-08 -2.46058e-08)
(-1.69671e-06 1.11347e-08 4.06945e-09 -1.10597e-07 1.72073e-08 -2.33714e-08)
(-1.81176e-06 -1.28677e-08 -2.525e-09 -5.28381e-08 2.81621e-09 -3.60296e-08)
(-2.98483e-07 -1.35367e-08 1.36348e-09 8.13741e-09 5.50417e-09 -4.2791e-08)
(-2.93785e-07 1.23613e-08 1.4288e-09 -1.53332e-09 7.7642e-09 -4.61322e-08)
(-1.72981e-06 1.24446e-08 3.48903e-09 -8.14031e-08 9.79875e-09 -4.56905e-08)
(-1.85739e-06 -5.73474e-09 -2.10402e-09 -2.43032e-08 -6.54564e-09 -4.7985e-08)
(-2.79727e-07 -7.97166e-09 1.55633e-09 -1.35696e-08 -4.78479e-09 -5.53799e-08)
(-2.74771e-07 6.72372e-09 9.82348e-10 -2.27573e-08 -2.66448e-09 -5.95158e-08)
(-1.77285e-06 5.33484e-09 2.99487e-09 -5.17289e-08 4.50311e-11 -6.00394e-08)
(-1.93703e-06 7.00889e-10 -2.12701e-09 -1.33357e-08 -1.292e-08 -5.31822e-08)
(-2.71258e-07 -3.70331e-09 1.44653e-09 -2.53385e-08 -1.15151e-08 -6.10068e-08)
(-2.65921e-07 2.49361e-09 7.63793e-10 -3.42973e-08 -9.58192e-09 -6.5788e-08)
(-1.84964e-06 -1.09088e-09 2.90019e-09 -3.98738e-08 -6.9078e-09 -6.71879e-08)
(-2.07658e-06 7.30262e-09 -2.27077e-09 -3.48623e-08 -1.44021e-08 -5.60107e-08)
(-2.82552e-07 -2.3456e-10 1.26333e-09 -4.53335e-08 -1.34188e-08 -6.4015e-08)
(-2.77062e-07 -1.06519e-09 5.86556e-10 -5.39633e-08 -1.17812e-08 -6.93206e-08)
(-1.98661e-06 -8.04989e-09 2.9102e-09 -6.05309e-08 -9.26745e-09 -7.16027e-08)
(-2.29577e-06 2.10622e-08 -2.12908e-09 -3.85626e-07 -1.20918e-08 -5.95962e-08)
(-3.21248e-07 4.45509e-09 1.18361e-09 -3.45931e-07 -1.13108e-08 -6.75433e-08)
(-3.16872e-07 -6.38239e-09 6.39974e-11 -3.51423e-07 -1.01766e-08 -7.32069e-08)
(-2.20674e-06 -2.29382e-08 2.53814e-09 -4.0521e-07 -8.39561e-09 -7.63143e-08)
(-2.62769e-06 3.33138e-08 -1.82987e-09 -2.78759e-06 -2.38946e-09 -6.38963e-08)
(-3.9034e-07 1.33439e-08 7.85428e-10 -2.56182e-06 -1.59753e-09 -7.17354e-08)
(-3.89025e-07 -1.45747e-08 -8.74093e-10 -2.53949e-06 -1.22242e-09 -7.74606e-08)
(-2.55136e-06 -3.55826e-08 1.66659e-09 -2.73373e-06 -1.0981e-09 -8.09267e-08)
(-1.68576e-06 3.65709e-08 -1.48835e-09 2.95414e-07 8.36117e-09 -3.17853e-09)
(-1.63113e-07 -6.37294e-08 4.22137e-10 7.20438e-08 1.30515e-08 -4.7126e-09)
(-1.60331e-07 6.32713e-08 6.33794e-10 6.30062e-08 1.46685e-08 -5.4664e-09)
(-1.61179e-06 -3.53005e-08 1.79951e-09 2.67684e-07 1.32229e-08 -5.33672e-09)
(-1.72287e-06 -1.10361e-08 -1.91863e-09 -9.14176e-08 7.51285e-09 -1.62787e-08)
(-2.82814e-07 -2.36576e-08 6.35343e-10 2.00121e-08 1.07542e-08 -1.98267e-08)
(-2.78881e-07 2.22525e-08 1.31779e-09 1.02931e-08 1.23731e-08 -2.17504e-08)
(-1.6453e-06 1.07157e-08 2.57194e-09 -1.1946e-07 1.24187e-08 -2.17663e-08)
(-1.75937e-06 -1.25425e-08 -1.60929e-09 -6.46463e-08 3.41056e-09 -3.18234e-08)
(-2.90659e-07 -1.3539e-08 8.67683e-10 -5.09327e-09 5.29874e-09 -3.63925e-08)
(-2.86445e-07 1.17313e-08 1.22989e-09 -1.44959e-08 6.88243e-09 -3.92171e-08)
(-1.67911e-06 1.18883e-08 2.34744e-09 -9.25488e-08 8.26835e-09 -3.99563e-08)
(-1.80573e-06 -5.64196e-09 -1.3911e-09 -3.41632e-08 -2.62488e-09 -4.48757e-08)
(-2.73045e-07 -8.07922e-09 9.52502e-10 -2.38955e-08 -1.29791e-09 -5.00235e-08)
(-2.68496e-07 6.35147e-09 9.77552e-10 -3.30245e-08 2.23006e-10 -5.35871e-08)
(-1.72271e-06 5.06527e-09 2.08174e-09 -6.15036e-08 2.07959e-09 -5.52442e-08)
(-1.88536e-06 6.13316e-10 -1.4077e-09 -1.96535e-08 -7.54084e-09 -5.416e-08)
(-2.65034e-07 -3.86497e-09 8.55738e-10 -3.18374e-08 -6.43619e-09 -5.97631e-08)
(-2.60055e-07 2.32732e-09 8.18725e-10 -4.0855e-08 -5.03128e-09 -6.3957e-08)
(-1.79934e-06 -1.12505e-09 2.00605e-09 -4.64452e-08 -3.17896e-09 -6.6458e-08)
(-2.02417e-06 7.33682e-09 -1.50996e-09 -3.80911e-08 -9.39226e-09 -6.15526e-08)
(-2.76577e-07 -2.42182e-10 7.02238e-10 -4.84247e-08 -8.55356e-09 -6.74708e-08)
(-2.71411e-07 -1.2508e-09 6.6913e-10 -5.71857e-08 -7.36103e-09 -7.21824e-08)
(-1.93539e-06 -8.15105e-09 1.99439e-09 -6.42128e-08 -5.64497e-09 -7.54545e-08)
(-2.24216e-06 2.15492e-08 -1.47037e-09 -3.82523e-07 -8.13014e-09 -6.96873e-08)
(-3.16307e-07 4.77987e-09 5.85138e-10 -3.41756e-07 -7.46013e-09 -7.56927e-08)
(-3.12219e-07 -6.81616e-09 3.00026e-10 -3.47434e-07 -6.63767e-09 -8.07453e-08)
(-2.154e-06 -2.34592e-08 1.76648e-09 -4.02709e-07 -5.43339e-09 -8.47126e-08)
(-2.57506e-06 3.40365e-08 -1.36707e-09 -2.73424e-06 -1.76286e-09 -7.97774e-08)
(-3.8704e-07 1.37388e-08 2.09167e-10 -2.50698e-06 -1.18267e-09 -8.56207e-08)
(-3.85993e-07 -1.50721e-08 -3.29721e-10 -2.48482e-06 -9.11413e-10 -9.07105e-08)
(-2.49898e-06 -3.63657e-08 1.22897e-09 -2.681e-06 -8.22521e-10 -9.50844e-08)
(-1.65556e-06 3.55482e-08 -7.91996e-10 2.85834e-07 5.2513e-09 -4.34997e-09)
(-1.60142e-07 -6.36041e-08 2.22105e-10 6.56611e-08 7.69511e-09 -5.29676e-09)
(-1.57638e-07 6.25974e-08 4.07888e-10 5.71343e-08 8.62389e-09 -5.95602e-09)
(-1.58271e-06 -3.46601e-08 9.8256e-10 2.59992e-07 8.02092e-09 -6.21405e-09)
(-1.69238e-06 -1.10395e-08 -1.03442e-09 -9.77175e-08 4.4295e-09 -1.61618e-08)
(-2.77923e-07 -2.36804e-08 3.47562e-10 1.25322e-08 6.23243e-09 -1.86449e-08)
(-2.74345e-07 2.18396e-08 8.38526e-10 3.19584e-09 7.16996e-09 -2.03377e-08)
(-1.61596e-06 1.05329e-08 1.43885e-09 -1.24713e-07 7.25272e-09 -2.09368e-08)
(-1.7292e-06 -1.24057e-08 -9.01565e-10 -7.21264e-08 2.27129e-09 -2.96073e-08)
(-2.85916e-07 -1.35696e-08 4.64158e-10 -1.33419e-08 3.40513e-09 -3.30415e-08)
(-2.82008e-07 1.14043e-08 8.30812e-10 -2.255e-08 4.33494e-09 -3.55511e-08)
(-1.65e-06 1.16221e-08 1.36479e-09 -9.95255e-08 5.11214e-09 -3.67662e-08)
(-1.77592e-06 -5.60828e-09 -8.06706e-10 -4.144e-08 -9.5247e-10 -4.2439e-08)
(-2.68822e-07 -8.15877e-09 4.94686e-10 -3.14441e-08 -1.21559e-10 -4.64826e-08)
(-2.64531e-07 6.14719e-09 7.10279e-10 -4.05186e-08 7.83796e-10 -4.96866e-08)
(-1.69385e-06 4.92814e-09 1.2451e-09 -6.86644e-08 1.84265e-09 -5.16977e-08)
(-1.85556e-06 5.62455e-10 -8.21085e-10 -2.52372e-08 -3.81392e-09 -5.36469e-08)
(-2.61059e-07 -3.96582e-09 4.30631e-10 -3.75324e-08 -3.11612e-09 -5.81875e-08)
(-2.56306e-07 2.2199e-09 6.16565e-10 -4.65838e-08 -2.27194e-09 -6.20027e-08)
(-1.77039e-06 -1.15082e-09 1.20236e-09 -5.21695e-08 -1.19225e-09 -6.47883e-08)
(-1.99388e-06 7.36073e-09 -8.7768e-10 -4.14222e-08 -5.08227e-09 -6.40936e-08)
(-2.72765e-07 -2.48605e-10 3.3585e-10 -5.16611e-08 -4.54055e-09 -6.90229e-08)
(-2.67799e-07 -1.38213e-09 5.14208e-10 -6.05119e-08 -3.82101e-09 -7.33489e-08)
(-1.90584e-06 -8.22339e-09 1.18451e-09 -6.78442e-08 -2.81551e-09 -7.68385e-08)
(-2.21092e-06 2.18524e-08 -8.64189e-10 -3.81484e-07 -4.48007e-09 -7.56876e-08)
(-3.13109e-07 4.97818e-09 2.52287e-10 -3.40028e-07 -4.04906e-09 -8.0789e-08)
(-3.09199e-07 -7.10188e-09 2.86436e-10 -3.45832e-07 -3.55226e-09 -8.5451e-08)
(-2.12332e-06 -2.37928e-08 1.04969e-09 -4.02078e-07 -2.84369e-09 -8.95677e-08)
(-2.54411e-06 3.44928e-08 -8.25666e-10 -2.70316e-06 -1.01766e-09 -8.96711e-08)
(-3.84826e-07 1.39857e-08 1.70378e-12 -2.47519e-06 -6.65047e-10 -9.4612e-08)
(-3.83949e-07 -1.53942e-08 -8.50033e-11 -2.45313e-06 -5.00955e-10 -9.93021e-08)
(-2.46823e-06 -3.68683e-08 7.41403e-10 -2.65035e-06 -4.46177e-10 -1.0383e-07)
(-1.64174e-06 3.5074e-08 -2.50854e-10 2.81194e-07 1.77977e-09 -4.67558e-09)
(-1.58777e-07 -6.35574e-08 6.84484e-11 6.2497e-08 2.54146e-09 -5.3925e-09)
(-1.56407e-07 6.23096e-08 1.40701e-10 5.42196e-08 2.84424e-09 -6.00751e-09)
(-1.56942e-06 -3.43592e-08 3.14755e-10 2.56264e-07 2.67875e-09 -6.39931e-09)
(-1.6784e-06 -1.10521e-08 -3.28548e-10 -1.0079e-07 1.45241e-09 -1.60424e-08)
(-2.75652e-07 -2.36979e-08 1.09795e-10 8.95622e-09 2.03246e-09 -1.80932e-08)
(-2.72245e-07 2.16643e-08 2.87352e-10 -1.90885e-10 2.33913e-09 -1.96767e-08)
(-1.60253e-06 1.04629e-08 4.6502e-10 -1.27265e-07 2.37291e-09 -2.04734e-08)
(-1.71534e-06 -1.23562e-08 -2.90834e-10 -7.57331e-08 7.68148e-10 -2.86427e-08)
(-2.83651e-07 -1.35918e-08 1.45906e-10 -1.72855e-08 1.14687e-09 -3.16206e-08)
(-2.79891e-07 1.12644e-08 2.91368e-10 -2.63934e-08 1.45285e-09 -3.39791e-08)
(-1.63663e-06 1.15143e-08 4.48287e-10 -1.02867e-07 1.70122e-09 -3.53253e-08)
(-1.76219e-06 -5.6006e-09 -2.6477e-10 -4.51411e-08 -2.3559e-10 -4.12227e-08)
(-2.66746e-07 -8.20172e-09 1.53201e-10 -3.52726e-08 4.7553e-11 -4.48416e-08)
(-2.62581e-07 6.05654e-09 2.56273e-10 -4.43155e-08 3.47392e-10 -4.78708e-08)
(-1.68058e-06 4.87201e-09 4.1473e-10 -7.22905e-08 6.89437e-10 -4.99307e-08)
(-1.84182e-06 5.37867e-10 -2.70733e-10 -2.83032e-08 -1.15413e-09 -5.31633e-08)
(-2.59082e-07 -4.01513e-09 1.30948e-10 -4.06559e-08 -9.1629e-10 -5.73068e-08)
(-2.54438e-07 2.16591e-09 2.25671e-10 -4.97214e-08 -6.35352e-10 -6.09359e-08)
(-1.75706e-06 -1.16413e-09 4.01545e-10 -5.52939e-08 -2.81313e-10 -6.37232e-08)
(-1.97989e-06 7.37492e-09 -2.8868e-10 -4.33916e-08 -1.58574e-09 -6.5067e-08)
(-2.70872e-07 -2.51155e-10 9.93175e-11 -5.35858e-08 -1.40062e-09 -6.96267e-08)
(-2.66003e-07 -1.45251e-09 1.89423e-10 -6.24803e-08 -1.16049e-09 -7.37627e-08)
(-1.89221e-06 -8.26342e-09 3.93823e-10 -6.99583e-08 -8.28158e-10 -7.72272e-08)
(-2.19644e-06 2.20029e-08 -2.8459e-10 -3.81282e-07 -1.40963e-09 -7.84397e-08)
(-3.11519e-07 5.07454e-09 7.02427e-11 -3.39487e-07 -1.2632e-09 -8.32007e-08)
(-3.07695e-07 -7.2467e-09 1.11734e-10 -3.45355e-07 -1.09717e-09 -8.76713e-08)
(-2.1091e-06 -2.39606e-08 3.4805e-10 -4.02079e-07 -8.61475e-10 -9.17427e-08)
(-2.52972e-06 3.47183e-08 -2.73608e-10 -2.68881e-06 -3.25705e-10 -9.4338e-08)
(-3.8372e-07 1.41063e-08 -1.62022e-11 -2.46054e-06 -2.08024e-10 -9.8938e-08)
(-3.82924e-07 -1.55546e-08 -1.2097e-11 -2.43854e-06 -1.5314e-10 -1.03433e-07)
(-2.45393e-06 -3.71186e-08 2.45729e-10 -2.63622e-06 -1.3409e-10 -1.0792e-07)
)
;

boundaryField
{
    interface
    {
        type            calculated;
        value           nonuniform List<symmTensor> 
192
(
(-4.60896e-06 1.86812e-12 2.36974e-11 9.3266e-07 6.65206e-08 -2.72627e-06)
(-4.35136e-06 4.97737e-13 3.55467e-11 -1.98873e-07 -1.87746e-08 -2.68415e-06)
(-4.43671e-06 -1.78264e-12 3.78289e-11 -1.63197e-07 -2.2607e-08 -2.72247e-06)
(-4.56132e-06 -4.31349e-12 3.77694e-11 -9.15199e-08 -1.48856e-08 -2.78352e-06)
(-4.7296e-06 -6.48851e-12 3.66489e-11 -4.90677e-08 -8.45835e-09 -2.87374e-06)
(-4.98163e-06 -1.07178e-11 3.51481e-11 -5.59419e-08 -2.26738e-09 -3.01031e-06)
(-5.32306e-06 -1.36762e-11 3.18286e-11 -4.73235e-07 1.04265e-08 -3.20267e-06)
(-5.69245e-06 -2.91375e-11 2.90881e-11 -3.4436e-06 2.63783e-08 -3.44333e-06)
(-4.02214e-06 1.16176e-12 1.2104e-11 5.37199e-07 -1.03814e-07 -2.8601e-07)
(-3.84405e-06 -1.73088e-13 1.9272e-11 -3.61487e-08 -4.37965e-08 -4.16382e-07)
(-3.90349e-06 -2.3135e-12 2.03218e-11 -5.70895e-08 -3.5693e-08 -4.1857e-07)
(-4.01282e-06 -5.00821e-12 1.99446e-11 -4.56965e-08 -3.34632e-08 -4.08829e-07)
(-4.17931e-06 -7.39612e-12 1.89426e-11 -3.41686e-08 -2.71861e-08 -4.07126e-07)
(-4.44556e-06 -1.2157e-11 1.77136e-11 -5.0309e-08 -1.86822e-08 -4.12848e-07)
(-4.83328e-06 -1.54693e-11 1.55686e-11 -4.26167e-07 -9.73749e-09 -4.29863e-07)
(-5.32382e-06 -3.19241e-11 1.37729e-11 -3.20234e-06 1.0958e-08 -4.74155e-07)
(-3.56767e-06 9.75686e-13 9.74312e-12 3.89712e-07 -1.77808e-08 5.14304e-10)
(-3.46624e-06 -4.58227e-13 1.53808e-11 -3.86097e-08 -9.07785e-09 -5.94489e-08)
(-3.5272e-06 -2.69477e-12 1.61954e-11 -2.84524e-08 -1.76197e-08 -7.86413e-08)
(-3.62978e-06 -5.66659e-12 1.58824e-11 -1.85388e-08 -2.56823e-08 -7.2898e-08)
(-3.79036e-06 -8.38498e-12 1.50769e-11 -1.66813e-08 -2.59877e-08 -6.37159e-08)
(-4.05365e-06 -1.37528e-11 1.40698e-11 -3.91862e-08 -2.05304e-08 -5.83704e-08)
(-4.44709e-06 -1.7616e-11 1.24372e-11 -4.04e-07 -1.44545e-08 -5.83382e-08)
(-4.98407e-06 -3.533e-11 1.09761e-11 -3.00929e-06 5.12163e-11 -5.67432e-08)
(-3.28808e-06 6.74427e-13 6.18045e-12 3.36506e-07 7.58194e-09 7.09028e-09)
(-3.20791e-06 -8.74942e-13 1.01445e-11 -6.38091e-08 7.85968e-09 -2.11205e-08)
(-3.27264e-06 -3.16061e-12 1.06806e-11 -3.76371e-08 -2.88184e-09 -4.41724e-08)
(-3.37397e-06 -6.26484e-12 1.03933e-11 -1.58034e-08 -1.43316e-08 -5.05808e-08)
(-3.53186e-06 -9.15205e-12 9.77101e-12 -1.03598e-08 -1.97594e-08 -4.87591e-08)
(-3.79186e-06 -1.48042e-11 9.0182e-12 -3.42314e-08 -1.88448e-08 -4.65248e-08)
(-4.1834e-06 -1.89113e-11 7.93993e-12 -3.92265e-07 -1.49769e-08 -4.626e-08)
(-4.73617e-06 -3.70213e-11 6.99285e-12 -2.87364e-06 -2.38454e-09 -4.39414e-08)
(-3.12485e-06 5.56718e-13 4.59874e-12 3.10959e-07 1.03442e-08 1.3282e-10)
(-3.05122e-06 -1.10892e-12 7.52706e-12 -8.10012e-08 9.95164e-09 -1.67345e-08)
(-3.11794e-06 -3.4932e-12 7.93134e-12 -5.28381e-08 2.81621e-09 -3.60296e-08)
(-3.21953e-06 -6.73294e-12 7.72004e-12 -2.43032e-08 -6.54564e-09 -4.7985e-08)
(-3.37652e-06 -9.78642e-12 7.26142e-12 -1.33357e-08 -1.292e-08 -5.31822e-08)
(-3.63437e-06 -1.56807e-11 6.69625e-12 -3.48623e-08 -1.44021e-08 -5.60107e-08)
(-4.02259e-06 -2.00185e-11 5.92188e-12 -3.85626e-07 -1.20918e-08 -5.95962e-08)
(-4.57906e-06 -3.84859e-11 5.21707e-12 -2.78759e-06 -2.38946e-09 -6.38963e-08)
(-3.02798e-06 4.52038e-13 2.8831e-12 2.95414e-07 8.36117e-09 -3.17853e-09)
(-2.9572e-06 -1.30069e-12 4.81878e-12 -9.14176e-08 7.51285e-09 -1.62787e-08)
(-3.0248e-06 -3.75191e-12 5.08753e-12 -6.46463e-08 3.41056e-09 -3.18234e-08)
(-3.12677e-06 -7.0727e-12 4.93894e-12 -3.41632e-08 -2.62488e-09 -4.48757e-08)
(-3.28342e-06 -1.02232e-11 4.63038e-12 -1.96535e-08 -7.54084e-09 -5.416e-08)
(-3.53974e-06 -1.62483e-11 4.25324e-12 -3.80911e-08 -9.39226e-09 -6.15526e-08)
(-3.9248e-06 -2.07097e-11 3.76443e-12 -3.82523e-07 -8.13014e-09 -6.96873e-08)
(-4.4815e-06 -3.93681e-11 3.32331e-12 -2.73424e-06 -1.76286e-09 -7.97774e-08)
(-2.97266e-06 4.0905e-13 1.7067e-12 2.85834e-07 5.2513e-09 -4.34997e-09)
(-2.90335e-06 -1.40421e-12 2.84372e-12 -9.77175e-08 4.4295e-09 -1.61618e-08)
(-2.97131e-06 -3.91176e-12 3.00522e-12 -7.21264e-08 2.27129e-09 -2.96073e-08)
(-3.07351e-06 -7.29357e-12 2.91974e-12 -4.144e-08 -9.5247e-10 -4.2439e-08)
(-3.22997e-06 -1.05161e-11 2.74157e-12 -2.52372e-08 -3.81392e-09 -5.36469e-08)
(-3.48527e-06 -1.66317e-11 2.51811e-12 -4.14222e-08 -5.08227e-09 -6.40936e-08)
(-3.86801e-06 -2.11821e-11 2.23738e-12 -3.81484e-07 -4.48007e-09 -7.56876e-08)
(-4.42423e-06 -3.99756e-11 1.97191e-12 -2.70316e-06 -1.01766e-09 -8.96711e-08)
(-2.94734e-06 3.76774e-13 5.20323e-13 2.81194e-07 1.77977e-09 -4.67558e-09)
(-2.87867e-06 -1.46378e-12 8.88525e-13 -1.0079e-07 1.45241e-09 -1.60424e-08)
(-2.94677e-06 -3.99356e-12 9.40966e-13 -7.57331e-08 7.68148e-10 -2.86427e-08)
(-3.04906e-06 -7.39935e-12 9.11852e-13 -4.51411e-08 -2.3559e-10 -4.12227e-08)
(-3.20543e-06 -1.06532e-11 8.54366e-13 -2.83032e-08 -1.15413e-09 -5.31633e-08)
(-3.46021e-06 -1.6805e-11 7.81733e-13 -4.33916e-08 -1.58574e-09 -6.5067e-08)
(-3.84175e-06 -2.13972e-11 6.95721e-13 -3.81282e-07 -1.40963e-09 -7.84397e-08)
(-4.39761e-06 -4.02488e-11 6.10796e-13 -2.68881e-06 -3.25705e-10 -9.4338e-08)
(-2.56578e-06 6.79637e-08 -3.56117e-11 9.3266e-07 -5.80327e-12 -4.89114e-06)
(-2.53046e-06 -1.43029e-08 -5.52842e-11 -1.98873e-07 -5.51966e-12 -4.62934e-06)
(-2.57104e-06 -1.49242e-08 -5.95681e-11 -1.63197e-07 -3.5799e-12 -4.7155e-06)
(-2.6262e-06 -4.96767e-09 -6.0178e-11 -9.15199e-08 -2.49723e-12 -4.84359e-06)
(-2.71055e-06 1.17543e-09 -5.97884e-11 -4.90677e-08 -2.12441e-12 -5.01518e-06)
(-2.8437e-06 5.06023e-09 -5.94764e-11 -5.59419e-08 -2.51892e-12 -5.27086e-06)
(-3.03097e-06 1.54122e-08 -5.89505e-11 -4.73235e-07 -3.02586e-12 -5.62318e-06)
(-3.25769e-06 2.66151e-08 -6.19941e-11 -3.4436e-06 -4.37213e-12 -6.01832e-06)
(-2.72993e-07 -6.83071e-08 -2.48607e-11 6.11329e-07 -3.00025e-12 -4.53014e-06)
(-4.37466e-07 -2.31165e-08 -4.20892e-11 -3.1276e-08 -3.24294e-12 -4.31419e-06)
(-4.38911e-07 -1.09266e-08 -4.53481e-11 -7.54464e-08 -1.90255e-12 -4.36526e-06)
(-4.13351e-07 -4.5308e-09 -4.55817e-11 -7.35183e-08 -8.72141e-13 -4.47745e-06)
(-4.0072e-07 -9.54405e-10 -4.53581e-11 -5.87343e-08 -2.43454e-13 -4.64949e-06)
(-4.0364e-07 3.36713e-10 -4.5493e-11 -6.64707e-08 1.18228e-14 -4.92097e-06)
(-4.25129e-07 2.54919e-09 -4.60649e-11 -4.41328e-07 5.6372e-15 -5.31756e-06)
(-4.74207e-07 1.03131e-08 -5.04823e-11 -3.31006e-06 -4.55722e-13 -5.81996e-06)
(-2.70557e-07 8.97478e-08 -2.6542e-11 5.99981e-07 -1.77812e-12 -4.48811e-06)
(-4.34489e-07 3.96414e-08 -4.47623e-11 -4.27025e-08 -1.90947e-12 -4.26952e-06)
(-4.36283e-07 2.33202e-08 -4.8443e-11 -8.6193e-08 -8.89738e-13 -4.31895e-06)
(-4.10953e-07 1.36401e-08 -4.87381e-11 -8.33956e-08 1.57317e-13 -4.43048e-06)
(-3.98371e-07 7.39295e-09 -4.83547e-11 -6.81629e-08 9.73487e-13 -4.6022e-06)
(-4.01506e-07 3.65302e-09 -4.81154e-11 -7.57094e-08 1.68363e-12 -4.87339e-06)
(-4.24305e-07 -1.52233e-09 -4.8063e-11 -4.47947e-07 2.17591e-12 -5.26995e-06)
(-4.76178e-07 -1.09886e-08 -5.1844e-11 -3.29045e-06 2.28867e-12 -5.77672e-06)
(-2.49429e-06 -5.70766e-08 -3.12281e-11 8.89183e-07 -1.26464e-12 -4.77819e-06)
(-2.45644e-06 2.1448e-08 -5.23987e-11 -2.31966e-07 -1.18269e-12 -4.51424e-06)
(-2.49609e-06 2.00817e-08 -5.68888e-11 -1.93407e-07 -2.14701e-13 -4.59656e-06)
(-2.55049e-06 8.78829e-09 -5.73334e-11 -1.19374e-07 9.07362e-13 -4.7227e-06)
(-2.63432e-06 1.52259e-09 -5.67564e-11 -7.55665e-08 1.81219e-12 -4.89318e-06)
(-2.76813e-06 -3.67004e-09 -5.62995e-11 -8.20419e-08 2.79873e-12 -5.14778e-06)
(-2.96064e-06 -1.59815e-08 -5.54083e-11 -4.94494e-07 3.59668e-12 -5.49915e-06)
(-3.20317e-06 -2.83849e-08 -5.90392e-11 -3.39467e-06 4.56947e-12 -5.90452e-06)
(-4.47085e-06 5.90114e-12 1.35107e-11 8.89183e-07 7.5579e-08 -2.67046e-06)
(-4.20927e-06 4.30285e-12 2.20739e-11 -2.31966e-07 -1.27967e-08 -2.62952e-06)
(-4.29205e-06 2.0492e-13 2.35974e-11 -1.93407e-07 -1.84623e-08 -2.66718e-06)
(-4.41469e-06 -3.30789e-12 2.36577e-11 -1.19374e-07 -1.17027e-08 -2.72783e-06)
(-4.58183e-06 -5.42616e-12 2.32658e-11 -7.55665e-08 -5.77875e-09 -2.81776e-06)
(-4.83476e-06 -8.85641e-12 2.36031e-11 -8.20419e-08 2.11528e-10 -2.95401e-06)
(-5.18404e-06 -9.0954e-12 2.29055e-11 -4.94494e-07 1.28889e-08 -3.14658e-06)
(-5.57946e-06 -2.4729e-11 2.51275e-11 -3.39467e-06 2.84263e-08 -3.39424e-06)
(-3.86438e-06 1.9921e-12 2.25757e-12 4.92157e-07 -8.63605e-08 -2.89486e-07)
(-3.68472e-06 9.088e-13 5.94351e-12 -7.02235e-08 -3.14978e-08 -4.25325e-07)
(-3.74102e-06 -1.46238e-12 6.13963e-12 -8.65145e-08 -2.63563e-08 -4.30673e-07)
(-3.84699e-06 -3.94639e-12 5.9357e-12 -7.26431e-08 -2.58667e-08 -4.22576e-07)
(-4.01021e-06 -5.26013e-12 5.89431e-12 -5.99336e-08 -2.06535e-08 -4.2178e-07)
(-4.27426e-06 -8.19535e-12 6.70553e-12 -7.53713e-08 -1.29191e-08 -4.28279e-07)
(-4.66625e-06 -6.82418e-12 7.32775e-12 -4.45051e-07 -5.07144e-09 -4.46709e-07)
(-5.18425e-06 -2.25514e-11 9.65631e-12 -3.14662e-06 1.32465e-08 -4.93674e-07)
(-3.41245e-06 9.93666e-13 3.84007e-12 3.49577e-07 -3.72646e-09 -4.28591e-09)
(-3.30767e-06 -2.07816e-13 7.80091e-12 -7.19927e-08 3.04352e-09 -7.01747e-08)
(-3.36485e-06 -2.0379e-12 8.45311e-12 -5.79849e-08 -7.32983e-09 -9.31185e-08)
(-3.4635e-06 -4.25377e-12 8.45171e-12 -4.56724e-08 -1.67883e-08 -8.96833e-08)
(-3.61994e-06 -5.26999e-12 8.3896e-12 -4.24999e-08 -1.81901e-08 -8.20236e-08)