/*--------------------------------*- C++ -*----------------------------------*\
| =========                 |                                                 |
| \\      /  F ield         | OpenFOAM: The Open Source CFD Toolbox           |
|  \\    /   O peration     | Version:  v1912                                 |
|   \\  /    A nd           | Website:  www.openfoam.com                      |
|    \\/     M anipulation  |                                                 |
\*---------------------------------------------------------------------------*/
FoamFile
{
    version     2.0;
    format      ascii;
    class       pointVectorField;
    location    "0.31/solid";
    object      pointD;
}
// * * * * * * * * * * * * * * * * * * * * * * * * * * * * * * * * * * * * * //

dimensions      [0 1 0 0 0 0 0];


internalField   nonuniform List<vector> 
405
(
(2.83444e-08 2.31414e-08 2.97016e-08)
(3.53701e-09 1.4775e-08 3.63379e-08)
(2.04503e-10 1.20087e-08 3.48699e-08)
(-3.09839e-09 1.4724e-08 3.60183e-08)
(-2.71989e-08 2.25899e-08 2.96214e-08)
(4.5368e-08 2.90642e-08 4.81669e-08)
(9.5648e-09 2.52855e-08 7.56363e-08)
(8.82707e-10 2.10363e-08 7.28463e-08)
(-7.73692e-09 2.48586e-08 7.52425e-08)
(-4.27451e-08 2.77488e-08 4.849e-08)
(4.89747e-08 1.98776e-08 5.32904e-08)
(1.25784e-08 1.82784e-08 8.02682e-08)
(1.894e-09 1.60999e-08 7.75416e-08)
(-8.73092e-09 1.72263e-08 8.02862e-08)
(-4.44206e-08 1.76158e-08 5.43617e-08)
(5.02904e-08 1.47514e-08 5.56671e-08)
(1.33707e-08 1.40911e-08 8.31732e-08)
(3.03757e-09 1.28872e-08 8.03485e-08)
(-7.24556e-09 1.24743e-08 8.34811e-08)
(-4.35306e-08 1.16142e-08 5.72667e-08)
(5.18871e-08 1.24427e-08 5.74283e-08)
(1.41617e-08 1.18296e-08 8.58768e-08)
(4.32249e-09 1.07397e-08 8.30921e-08)
(-5.47067e-09 9.70904e-09 8.64052e-08)
(-4.26135e-08 8.50338e-09 5.94251e-08)
(5.45822e-08 1.14664e-08 5.9612e-08)
(1.5481e-08 1.06232e-08 8.95296e-08)
(5.75657e-09 9.30205e-09 8.6912e-08)
(-3.92548e-09 8.03572e-09 9.02357e-08)
(-4.24931e-08 6.7748e-09 6.19273e-08)
(5.86026e-08 1.05126e-08 6.28813e-08)
(1.73811e-08 9.49282e-09 9.49604e-08)
(7.34487e-09 7.92016e-09 9.26508e-08)
(-2.66933e-09 6.45186e-09 9.58214e-08)
(-4.34443e-08 5.09456e-09 6.54709e-08)
(6.41381e-08 -1.1841e-09 6.77041e-08)
(1.99881e-08 -1.82594e-09 1.02636e-07)
(9.07369e-09 -3.10364e-09 1.00914e-07)
(-1.87169e-09 -5.24223e-09 1.03679e-07)
(-4.57672e-08 -7.20634e-09 7.05617e-08)
(5.56306e-08 -3.76445e-08 5.82635e-08)
(2.16781e-08 -4.98788e-08 7.02061e-08)
(1.01519e-08 -5.00222e-08 6.96278e-08)
(-1.43568e-09 -5.29656e-08 7.18439e-08)
(-3.54486e-08 -4.31524e-08 6.13305e-08)
(3.3248e-08 1.37949e-08 3.24836e-09)
(0 0 0)
(0 0 0)
(0 0 0)
(-3.19859e-08 1.31146e-08 3.55596e-09)
(6.85221e-08 2.33111e-08 9.72685e-09)
(8.79349e-09 1.4608e-08 1.05047e-08)
(6.06591e-10 1.06914e-08 1.04883e-08)
(-7.48491e-09 1.39034e-08 1.1076e-08)
(-6.52516e-08 2.14485e-08 1.08085e-08)
(7.14253e-08 1.65273e-08 1.42395e-08)
(1.15417e-08 1.36021e-08 1.52399e-08)
(1.41137e-09 1.14711e-08 1.53508e-08)
(-8.61788e-09 1.23315e-08 1.6228e-08)
(-6.64986e-08 1.36839e-08 1.61269e-08)
(7.31637e-08 1.29743e-08 1.60145e-08)
(1.22237e-08 1.18743e-08 1.70986e-08)
(2.4017e-09 1.06376e-08 1.73108e-08)
(-7.32545e-09 1.00994e-08 1.83867e-08)
(-6.62345e-08 9.20773e-09 1.8494e-08)
(7.55555e-08 1.14602e-08 1.68012e-08)
(1.29259e-08 1.03673e-08 1.79671e-08)
(3.56907e-09 9.21874e-09 1.8276e-08)
(-5.69452e-09 8.12985e-09 1.94811e-08)
(-6.62642e-08 6.83136e-09 1.97323e-08)
(7.95804e-08 1.08181e-08 1.74824e-08)
(1.41775e-08 9.2025e-09 1.87181e-08)
(4.90849e-09 7.81445e-09 1.91281e-08)
(-4.26832e-09 6.52326e-09 2.04143e-08)
(-6.75946e-08 5.37339e-09 2.07778e-08)
(8.56861e-08 1.00005e-08 1.85649e-08)
(1.60534e-08 7.743e-09 1.98222e-08)
(6.41669e-09 6.11144e-09 2.03236e-08)
(-3.14546e-09 4.63185e-09 2.16725e-08)
(-7.07529e-08 3.78074e-09 2.21668e-08)
(9.4053e-08 -1.10284e-09 2.03555e-08)
(1.86748e-08 -3.08911e-09 2.15848e-08)
(8.07892e-09 -4.38606e-09 2.21528e-08)
(-2.49541e-09 -6.52697e-09 2.35515e-08)
(-7.61063e-08 -7.93442e-09 2.41962e-08)
(6.47301e-08 -4.86416e-08 2.2069e-08)
(2.07603e-08 -8.41493e-08 2.27674e-08)
(9.83409e-09 -8.31686e-08 2.33398e-08)
(-1.11606e-09 -8.66695e-08 2.4752e-08)
(-4.5201e-08 -5.41063e-08 2.55304e-08)
(2.90576e-08 9.37313e-09 -3.23494e-10)
(0 0 0)
(0 0 0)
(0 0 0)
(-2.78337e-08 8.80767e-09 -7.35666e-11)
(6.0258e-08 1.58537e-08 9.73295e-10)
(7.42455e-09 8.2429e-09 2.11667e-09)
(3.93867e-10 4.74328e-09 2.47843e-09)
(-6.50965e-09 7.55441e-09 2.5967e-09)
(-5.72444e-08 1.42059e-08 1.84846e-09)
(6.31349e-08 1.16051e-08 3.86553e-09)
(9.81818e-09 8.98107e-09 5.29046e-09)
(1.02673e-09 7.00615e-09 5.85951e-09)
(-7.62514e-09 7.72302e-09 6.11768e-09)
(-5.87938e-08 8.95112e-09 5.40377e-09)
(6.4612e-08 9.82583e-09 5.75903e-09)
(1.03788e-08 8.81461e-09 7.28042e-09)
(1.87686e-09 7.61459e-09 7.97739e-09)
(-6.48884e-09 7.06016e-09 8.36744e-09)
(-5.85329e-08 6.22993e-09 7.81203e-09)
(6.68301e-08 9.25031e-09 6.69749e-09)
(1.09972e-08 8.18845e-09 8.29554e-09)
(2.92988e-09 7.04912e-09 9.08723e-09)
(-4.99936e-09 5.9799e-09 9.58691e-09)
(-5.85954e-08 4.77748e-09 9.16255e-09)
(7.08549e-08 9.05803e-09 7.33058e-09)
(1.2214e-08 7.41985e-09 8.97338e-09)
(4.17583e-09 6.03595e-09 9.83939e-09)
(-3.72183e-09 4.77731e-09 1.04326e-08)
(-6.00821e-08 3.7596e-09 1.01347e-08)
(7.72577e-08 8.49726e-09 8.13446e-09)
(1.41296e-08 6.16914e-09 9.7586e-09)
(5.6073e-09 4.54592e-09 1.06758e-08)
(-2.78981e-09 3.10765e-09 1.13527e-08)
(-6.36536e-08 2.42702e-09 1.12137e-08)
(8.6489e-08 -1.74058e-09 9.1716e-09)
(1.68416e-08 -3.77198e-09 1.07226e-08)
(7.20709e-09 -5.02599e-09 1.16633e-08)
(-2.35689e-09 -7.13316e-09 1.23967e-08)
(-6.99751e-08 -8.39613e-09 1.24345e-08)
(6.00029e-08 -4.62274e-08 1.03297e-08)
(1.89602e-08 -7.89093e-08 1.14292e-08)
(8.91068e-09 -7.73721e-08 1.2335e-08)
(-1.11773e-09 -8.12922e-08 1.30763e-08)
(-4.20954e-08 -5.14949e-08 1.32246e-08)
(2.61833e-08 7.97234e-09 -1.64434e-10)
(0 0 0)
(0 0 0)
(0 0 0)
(-2.50594e-08 7.52734e-09 1.59826e-11)
(5.46022e-08 1.29478e-08 5.97093e-10)
(6.56273e-09 6.00278e-09 1.34081e-09)
(2.56883e-10 2.78414e-09 1.63132e-09)
(-5.92615e-09 5.39009e-09 1.69172e-09)
(-5.1914e-08 1.15615e-08 1.2384e-09)
(5.75865e-08 8.69185e-09 2.57267e-09)
(8.74835e-09 6.24854e-09 3.5137e-09)
(7.56757e-10 4.4138e-09 3.97953e-09)
(-7.09497e-09 5.08806e-09 4.13082e-09)
(-5.38155e-08 6.31833e-09 3.7207e-09)
(5.90347e-08 7.19673e-09 4.32711e-09)
(9.25085e-09 6.24479e-09 5.32826e-09)
(1.48741e-09 5.1066e-09 5.90179e-09)
(-6.13563e-09 4.59136e-09 6.15436e-09)
(-5.37502e-08 3.86977e-09 5.89083e-09)
(6.11499e-08 6.99058e-09 5.46421e-09)
(9.80618e-09 5.96863e-09 6.52156e-09)
(2.43789e-09 4.86818e-09 7.1732e-09)
(-4.7854e-09 3.85914e-09 7.51985e-09)
(-5.3902e-08 2.76536e-09 7.37823e-09)
(6.50908e-08 7.12041e-09 6.26909e-09)
(1.0975e-08 5.48863e-09 7.37209e-09)
(3.59804e-09 4.13528e-09 8.083e-09)
(-3.62932e-09 2.94327e-09 8.51455e-09)
(-5.54609e-08 2.04926e-09 8.47839e-09)
(7.15329e-08 6.80321e-09 7.11448e-09)
(1.29026e-08 4.43817e-09 8.2172e-09)
(4.95863e-09 2.84611e-09 8.96595e-09)
(-2.84951e-09 1.47467e-09 9.47203e-09)
(-5.91918e-08 9.46599e-10 9.55935e-09)
(8.11035e-08 -3.00552e-09 8.14371e-09)
(1.56821e-08 -5.05179e-09 9.19572e-09)
(6.4993e-09 -6.24583e-09 9.95625e-09)
(-2.60166e-09 -8.31352e-09 1.05094e-08)
(-6.59379e-08 -9.45587e-09 1.07354e-08)
(5.67228e-08 -4.53003e-08 9.28671e-09)
(1.78153e-08 -7.58707e-08 1.02705e-08)
(8.15084e-09 -7.4064e-08 1.0989e-08)
(-1.48147e-09 -7.8161e-08 1.15498e-08)
(-4.02555e-08 -5.03989e-08 1.15635e-08)
(2.44735e-08 7.43254e-09 2.3876e-11)
(0 0 0)
(0 0 0)
(0 0 0)
(-2.34347e-08 7.07942e-09 1.51172e-10)
(5.11188e-08 1.1726e-08 6.47837e-10)
(6.06747e-09 5.17428e-09 1.08813e-09)
(1.72511e-10 2.12577e-09 1.27555e-09)
(-5.61685e-09 4.63467e-09 1.33931e-09)
(-4.86923e-08 1.05555e-08 1.10422e-09)
(5.4061e-08 7.14076e-09 2.00761e-09)
(8.11597e-09 4.81257e-09 2.58764e-09)
(5.76707e-10 3.07929e-09 2.8997e-09)
(-6.83871e-09 3.75775e-09 3.0346e-09)
(-5.07338e-08 5.02489e-09 2.83462e-09)
(5.5524e-08 5.36946e-09 3.39524e-09)
(8.58382e-09 4.45961e-09 4.01999e-09)
(1.21311e-09 3.38163e-09 4.41321e-09)
(-6.02965e-09 2.92103e-09 4.62619e-09)
(-5.08597e-08 2.30659e-09 4.53914e-09)
(5.75925e-08 5.07873e-09 4.48085e-09)
(9.09167e-09 4.09744e-09 5.14792e-09)
(2.07809e-09 3.04353e-09 5.6021e-09)
(-4.8006e-09 2.10126e-09 5.89008e-09)
(-5.11264e-08 1.10487e-09 5.90304e-09)
(6.14549e-08 5.25762e-09 5.33453e-09)
(1.02061e-08 3.65329e-09 6.04548e-09)
(3.16428e-09 2.3399e-09 6.54811e-09)
(-3.73665e-09 1.21612e-09 6.90362e-09)
(-5.27456e-08 4.17864e-10 6.99713e-09)
(6.78602e-08 5.02336e-09 6.19399e-09)
(1.21147e-08 2.6579e-09 6.92185e-09)
(4.46241e-09 1.10576e-09 7.45656e-09)
(-3.06153e-09 -2.0387e-10 7.86968e-09)
(-5.65512e-08 -6.23114e-10 8.04884e-09)
(7.75406e-08 -4.54871e-09 7.22812e-09)
(1.4921e-08 -6.57927e-09 7.93266e-09)
(5.95024e-09 -7.71225e-09 8.4757e-09)
(-2.9449e-09 -9.74875e-09 8.9255e-09)
(-6.34882e-08 -1.08115e-08 9.20117e-09)
(5.45222e-08 -4.53701e-08 8.33178e-09)
(1.70452e-08 -7.45445e-08 9.12903e-09)
(7.55586e-09 -7.25968e-08 9.63361e-09)
(-1.90764e-09 -7.67554e-08 1.00911e-08)
(-3.92291e-08 -5.03217e-08 1.00581e-08)
(2.34789e-08 7.1363e-09 8.14756e-11)
(0 0 0)
(0 0 0)
(0 0 0)
(-2.24979e-08 6.84663e-09 1.67543e-10)
(4.90527e-08 1.10661e-08 5.7285e-10)
(5.78058e-09 4.7529e-09 8.29084e-10)
(1.20285e-10 1.80825e-09 9.44758e-10)
(-5.44967e-09 4.26972e-09 1.00201e-09)
(-4.68042e-08 1.00517e-08 8.83157e-10)
(5.19179e-08 6.24954e-09 1.49682e-09)
(7.72938e-09 4.00486e-09 1.8511e-09)
(4.59046e-10 2.34233e-09 2.05082e-09)
(-6.70286e-09 3.03636e-09 2.16085e-09)
(-4.88962e-08 4.33302e-09 2.064e-09)
(5.33773e-08 4.16255e-09 2.48825e-09)
(8.16323e-09 3.28961e-09 2.88133e-09)
(1.02626e-09 2.26117e-09 3.13934e-09)
(-5.9956e-09 1.84898e-09 3.30508e-09)
(-4.91485e-08 1.31464e-09 3.28175e-09)
(5.54163e-08 3.63467e-09 3.36131e-09)
(8.63184e-09 2.69004e-09 3.7882e-09)
(1.82519e-09 1.67838e-09 4.09153e-09)
(-4.85757e-09 7.92642e-10 4.31177e-09)
(-4.9511e-08 -1.28032e-10 4.35973e-09)
(5.92181e-08 3.6989e-09 4.11873e-09)
(9.6985e-09 2.12651e-09 4.58163e-09)
(2.85212e-09 8.51326e-10 4.9223e-09)
(-3.86319e-09 -2.16553e-10 5.19175e-09)
(-5.11819e-08 -9.44377e-10 5.29809e-09)
(6.55701e-08 3.43349e-09 4.89362e-09)
(1.15783e-08 1.08456e-09 5.37707e-09)
(4.099e-09 -4.29344e-10 5.74353e-09)
(-3.26077e-09 -1.69088e-09 6.0544e-09)
(-5.50279e-08 -2.03637e-09 6.21928e-09)
(7.52657e-08 -6.01179e-09 5.81451e-09)
(1.43865e-08 -8.01441e-09 6.29034e-09)
(5.54311e-09 -9.09524e-09 6.66354e-09)
(-3.23257e-09 -1.11082e-08 7.00107e-09)
(-6.20518e-08 -1.21206e-08 7.23059e-09)
(5.30657e-08 -4.59003e-08 6.76015e-09)
(1.64902e-08 -7.42059e-08 7.37023e-09)
(7.11123e-09 -7.21772e-08 7.71333e-09)
(-2.25035e-09 -7.63522e-08 8.05669e-09)
(-3.86597e-08 -5.07327e-08 7.99757e-09)
(2.2901e-08 6.95598e-09 7.38595e-11)
(0 0 0)
(0 0 0)
(0 0 0)
(-2.19555e-08 6.70688e-09 1.26984e-10)
(4.78424e-08 1.06633e-08 4.11065e-10)
(5.61385e-09 4.49345e-09 5.54106e-10)
(8.88962e-11 1.61153e-09 6.21283e-10)
(-5.35607e-09 4.04885e-09 6.6251e-10)
(-4.57046e-08 9.75192e-09 6.03268e-10)
(5.06428e-08 5.70039e-09 9.93769e-10)
(7.49392e-09 3.51476e-09 1.19909e-09)
(3.8572e-10 1.89924e-09 1.31841e-09)
(-6.62477e-09 2.60708e-09 1.39404e-09)
(-4.78146e-08 3.92092e-09 1.34711e-09)
(5.20855e-08 3.38658e-09 1.62687e-09)
(7.89661e-09 2.54471e-09 1.86186e-09)
(9.06342e-10 1.55248e-09 2.01921e-09)
(-5.97791e-09 1.17508e-09 2.13005e-09)
(-4.81383e-08 6.91666e-10 2.12511e-09)
(5.40998e-08 2.64161e-09 2.22321e-09)
(8.33371e-09 1.72632e-09 2.48307e-09)
(1.65895e-09 7.46967e-10 2.67072e-09)
(-4.89973e-09 -9.81166e-11 2.81648e-09)
(-4.85641e-08 -9.67071e-10 2.85548e-09)
(5.7858e-08 2.55804e-09 2.77817e-09)
(9.36446e-09 1.01219e-09 3.06322e-09)
(2.64299e-09 -2.33086e-10 3.27621e-09)
(-3.95433e-09 -1.26095e-09 3.45392e-09)
(-5.02729e-08 -1.94008e-09 3.53081e-09)
(6.41638e-08 2.22079e-09 3.36096e-09)
(1.12192e-08 -1.10303e-10 3.66205e-09)
(3.852e-09 -1.59423e-09 3.89296e-09)
(-3.40193e-09 -2.82192e-09 4.09756e-09)
(-5.41429e-08 -3.11833e-09 4.21205e-09)
(7.38481e-08 -7.16972e-09 4.0487e-09)
(1.40216e-08 -9.1465e-09 4.34798e-09)
(5.26356e-09 -1.01883e-08 4.58373e-09)
(-3.43244e-09 -1.21848e-08 4.80574e-09)
(-6.12108e-08 -1.31648e-08 4.96109e-09)
(5.21317e-08 -4.64935e-08 4.73463e-09)
(1.61055e-08 -7.42687e-08 5.14884e-09)
(6.80398e-09 -7.2189e-08 5.36417e-09)
(-2.48627e-09 -7.63678e-08 5.58995e-09)
(-3.83392e-08 -5.12384e-08 5.53167e-09)
(2.25956e-08 6.85701e-09 4.09006e-11)
(0 0 0)
(0 0 0)
(0 0 0)
(-2.16694e-08 6.63035e-09 6.624e-11)
(4.72008e-08 1.04374e-08 2.11529e-10)
(5.52529e-09 4.34491e-09 2.76273e-10)
(7.21962e-11 1.49695e-09 3.07312e-10)
(-5.30677e-09 3.92256e-09 3.28481e-10)
(-4.51231e-08 9.5841e-09 3.03373e-10)
(4.99611e-08 5.38893e-09 4.95096e-10)
(7.36538e-09 3.23854e-09 5.89993e-10)
(3.45743e-10 1.65003e-09 6.4606e-10)
(-6.58231e-09 2.36648e-09 6.84091e-10)
(-4.72393e-08 3.68872e-09 6.64487e-10)
(5.13884e-08 2.94417e-09 8.03691e-10)
(7.74677e-09 2.123e-09 9.14548e-10)
(8.39668e-10 1.15272e-09 9.89451e-10)
(-5.96665e-09 7.95633e-10 1.04441e-09)
(-4.75983e-08 3.39624e-10 1.04365e-09)
(5.3385e-08 2.06119e-09 1.10418e-09)
(8.16317e-09 1.16489e-09 1.22834e-09)
(1.56499e-09 2.05523e-10 1.31847e-09)
(-4.92161e-09 -6.15548e-10 1.39038e-09)
(-4.80584e-08 -1.45498e-09 1.41025e-09)
(5.71165e-08 1.87053e-09 1.39517e-09)
(9.17181e-09 3.41582e-10 1.53227e-09)
(2.5232e-09 -8.85061e-10 1.6352e-09)
(-4.00521e-09 -1.8891e-09 1.72281e-09)
(-4.97896e-08 -2.5395e-09 1.76125e-09)
(6.33928e-08 1.47277e-09 1.70656e-09)
(1.10107e-08 -8.46296e-10 1.85209e-09)
(3.70905e-09 -2.31155e-09 1.96413e-09)
(-3.4828e-09 -3.51907e-09 2.06502e-09)
(-5.36732e-08 -3.78661e-09 2.1221e-09)
(7.30654e-08 -7.9006e-09 2.07304e-09)
(1.38079e-08 -9.86056e-09 2.21823e-09)
(5.1006e-09 -1.08784e-08 2.33277e-09)
(-3.54795e-09 -1.2865e-08 2.4423e-09)
(-6.07641e-08 -1.38263e-08 2.51954e-09)
(5.16074e-08 -4.69222e-08 2.43207e-09)
(1.58787e-08 -7.44086e-08 2.64137e-09)
(6.62406e-09 -7.22997e-08 2.74561e-09)
(-2.62292e-09 -7.6479e-08 2.85699e-09)
(-3.8174e-08 -5.16137e-08 2.82212e-09)
(1.7719e-08 7.33608e-09 0)
(1.97799e-09 2.40896e-09 0)
(-6.73289e-12 6.15953e-10 0)
(-1.96183e-09 2.3108e-09 0)
(-1.70751e-08 7.08983e-09 0)
(2.87928e-08 8.697e-09 0)
(5.49734e-09 4.29614e-09 0)
(6.69681e-11 1.45896e-09 0)
(-5.29118e-09 3.88104e-09 0)
(-2.76244e-08 7.96806e-09 0)
(3.15416e-08 4.89851e-09 0)
(7.32436e-09 3.14821e-09 0)
(3.33065e-10 1.56852e-09 0)
(-6.56864e-09 2.28785e-09 0)
(-2.9775e-08 3.41877e-09 0)
(3.24305e-08 2.7081e-09 0)
(7.69828e-09 1.98548e-09 0)
(8.1831e-10 1.02254e-09 0)
(-5.96259e-09 6.72094e-10 0)
(-2.96433e-08 4.38993e-10 0)
(3.36124e-08 1.67915e-09 0)
(8.10749e-09 9.80311e-10 0)
(1.53464e-09 2.76866e-11 0)
(-4.9281e-09 -7.8548e-10 0)
(-2.93382e-08 -1.38466e-09 0)
(3.605e-08 1.21109e-09 0)
(9.10866e-09 1.18322e-10 0)
(2.48424e-09 -1.10203e-09 0)
(-4.02128e-09 -2.09817e-09 0)
(-2.98254e-08 -2.63768e-09 0)
(4.03278e-08 4.58459e-10 0)
(1.09422e-08 -1.0939e-09 0)
(3.66231e-09 -2.55286e-09 0)
(-3.50892e-09 -3.75365e-09 0)
(-3.17463e-08 -4.14842e-09 0)
(4.70666e-08 -8.99272e-09 0)
(1.37376e-08 -1.01035e-08 0)
(5.0471e-09 -1.11134e-08 0)
(-3.58564e-09 -1.30966e-08 0)
(-3.58663e-08 -1.41944e-08 0)
(4.21764e-08 -3.75718e-08 0)
(1.55918e-08 -4.63824e-08 0)
(6.17577e-09 -4.55692e-08 0)
(-3.22705e-09 -4.89667e-08 0)
(-2.94284e-08 -4.22518e-08 0)
)
;

boundaryField
{
    interface
    {
        type            calculated;
    }
    symmetry
    {
        type            symmetry;
    }
    bottom
    {
        type            calculated;
    }
}


// ************************************************************************* //
