/*--------------------------------*- C++ -*----------------------------------*\
| =========                 |                                                 |
| \\      /  F ield         | OpenFOAM: The Open Source CFD Toolbox           |
|  \\    /   O peration     | Version:  v1912                                 |
|   \\  /    A nd           | Website:  www.openfoam.com                      |
|    \\/     M anipulation  |                                                 |
\*---------------------------------------------------------------------------*/
FoamFile
{
    version     2.0;
    format      ascii;
    class       volScalarField;
    location    "0.31/solid";
    object      sigmaEq;
}
// * * * * * * * * * * * * * * * * * * * * * * * * * * * * * * * * * * * * * //

dimensions      [1 -1 -2 0 0 0 0];


internalField   nonuniform List<scalar> 
256
(
551595
430964
426936
535231
371230
351395
347154
356449
382778
349619
345316
368307
402712
359089
354826
388507
422663
375094
370854
408602
442336
396576
392336
428349
407448
396918
392974
394611
31067.5
436300
432973
32222.6
380473
81176
79396.2
362706
312195
74720.3
72767.2
295396
313980
61283.9
59599.2
297304
322709
50960.4
49474.9
305945
336622
47781.7
46392.8
319664
356391
46196.4
44894
339292
355801
4347.04
5499.35
339620
407319
397058
393208
394768
339234
47624.8
46228.1
322552
301856
56699
54513
285338
305757
50730.9
48566.6
288933
313764
42708.6
40551.3
296635
327061
39460.9
37270.2
309575
347504
39069.2
36902
329733
356222
44883.1
43916
339302
442216
396893
392835
428904
311037
41546.9
40280
295563
280465
50755.4
48817.8
264878
285790
47052.5
45039
269657
293870
40526.3
38470.1
277280
306742
37625
35512.2
289694
326667
37384.4
35289.8
309248
336209
44060.3
43215.9
319585
423550
376056
372105
410675
294550
38313.5
37030.7
279955
265906
46804.8
45065.6
251058
271929
43958.1
42135.7
256428
280220
38222.7
36328
264156
292957
35558.9
33580.4
276356
312527
35329.4
33354.3
295492
321958
41190.9
40534.3
305686
407386
361104
357249
394957
284797
36353.4
35059.3
270791
256993
44390.4
42782.5
242650
263311
41914.6
40237.2
248262
271733
36553.3
34795
256057
284422
33992.6
32128.7
268152
303779
33808.4
31929.4
287026
313010
39193.9
38689.6
296999
396805
351651
347865
384719
279209
35188
33893.8
265566
251860
42988.9
41463.9
237832
258290
40675.6
39091.1
243529
266771
35486.6
33821.2
251348
279430
32942.7
31158.6
263377
298659
32784.7
30969.4
282089
307741
38020.5
37618.9
291901
390524
346105
342364
378669
276640
34636.6
33345
263169
249502
42337.7
40853.8
235626
255967
40087.5
38548.5
241348
264468
34966.9
33348.4
249170
277110
32417.8
30674.6
261165
296277
32267.8
30484.5
279798
305286
37489
37139.1
289530
387603
343540
339820
375863
)
;

boundaryField
{
    interface
    {
        type            calculated;
        value           nonuniform List<scalar> 
192
(
751081
556845
573110
599683
628050
660616
647867
346069
648061
559005
566081
584468
611092
650121
677738
647834
581226
525738
534471
551484
577024
616163
650247
660785
534099
487030
497191
514001
538865
577175
611620
629580
506381
461987
472852
489765
514387
552163
586233
605836
489946
446785
457954
474964
499488
536925
570558
590599
480545
438045
449335
466395
490866
528089
561393
581579
476233
434033
445365
462442
486888
524004
557138
577379
781371
590575
606876
633612
662228
695363
686169
411219
732734
630023
633872
652959
681489
722309
751440
712686
725549
622425
626035
645073
673585
714364
743672
706672
759965
570720
586883
613651
642288
675345
666830
401744
727130
533646
549994
576668
605088
637801
626605
336240
619363
530939
537762
555753
581928
620630
649289
626747
553565
497937
506072
522486
547382
585953
620787
638411
507902
460365
469711
485773
509875
547481
582488
607403
481270
436232
446167
462229
486001
522984
557500
583981
465557
421646
431824
447917
471529
508109
542114
568998
456595
413288
423557
439662
463183
499507
533137
560154
452491
409459
419756
435864
459339
495537
528974
556044
411380
686188
695525
663759
639889
624580
615513
611287
712810
751713
722998
683358
657189
640900
631344
626907
706788
743994
715155
675621
649532
633298
623777
619357
401843
667020
676002
644729
621278
606287
597433
593315
)
;
    }
    symmetry
    {
        type            symmetry;
    }
    bottom
    {
        type            calculated;
        value           nonuniform List<scalar> 
32
(
730449
449817
387285
356072
338509
327993
321920
319121
505662
99308.5
53003.9
47075.7
44550.6
42812.6
41702.4
41165.8
501664
97086
51003.3
45233.5
42730.2
41008.7
39916
39390.7
712901
431037
369953
340300
323853
314077
308454
305867
)
;
    }
}


// ************************************************************************* //
