/*--------------------------------*- C++ -*----------------------------------*\
| =========                 |                                                 |
| \\      /  F ield         | OpenFOAM: The Open Source CFD Toolbox           |
|  \\    /   O peration     | Version:  v1912                                 |
|   \\  /    A nd           | Website:  www.openfoam.com                      |
|    \\/     M anipulation  |                                                 |
\*---------------------------------------------------------------------------*/
FoamFile
{
    version     2.0;
    format      ascii;
    class       volSymmTensorField;
    location    "0.31/solid";
    object      sigma;
}
// * * * * * * * * * * * * * * * * * * * * * * * * * * * * * * * * * * * * * //

dimensions      [1 -1 -2 0 0 0 0];


internalField   nonuniform List<symmTensor> 
256
(
(-320070 10455.9 -3320.6 218152 10233.9 -344761)
(7424.65 -10508.8 -1143.31 143474 10773.8 -338271)
(8021.41 13807.4 1190.67 141950 11150.5 -334736)
(-303512 -8781.01 3507.02 217023 11627.5 -330615)
(-355162 -2200.44 -4541.66 3543.7 -2888.4 -378806)
(-62804.7 -3556.39 -1750.58 -314.021 -2197.71 -378673)
(-62151.6 6098.67 1934.39 -1876.79 -1944.44 -375026)
(-337165 3299.7 4858.35 5061.29 -1968.73 -363793)
(-357350 -2296.03 -4842.75 13087.2 -3477.99 -380648)
(-65525 -1681.02 -1919.99 -9607.37 -3321.54 -383739)
(-64910.6 3587.72 2157.14 -11050.7 -3149.99 -380012)
(-338999 3089.5 5192.12 15259.2 -2840.35 -365321)
(-362010 -764.257 -4968 27940.5 -2290.08 -386213)
(-59940.2 -697.046 -1969.42 -7658.25 -2168.44 -389985)
(-59313.2 2098.48 2207.15 -8919.66 -2038.45 -386191)
(-343376 1352.04 5322.55 30641.6 -1800.41 -370659)
(-375423 180.835 -4905.51 34036.3 -1301.29 -400529)
(-57854 -146.831 -1922.44 -5240.84 -1096.89 -403844)
(-57202.9 1137.38 2147.39 -6401.59 -985.087 -400009)
(-356618 234.245 5260.46 37035.6 -889.039 -384841)
(-400718 778.496 -4669.46 28167.9 -348.827 -426350)
(-61594.1 51.802 -1791.64 -9721.91 -124.7 -429669)
(-60978.4 562.004 2011.6 -10855.8 -14.6852 -425828)
(-382032 -564.621 5029.12 31211.8 32.5427 -410630)
(-448263 2371.1 -4337.37 -54765.3 1604.08 -474678)
(-83334 392.183 -1625.5 -85826.3 1788.13 -481469)
(-82861.8 -234.204 1862.73 -86499 1909.79 -477614)
(-430323 -2458.69 4707.01 -50916.9 1982.91 -458930)
(-446990 4094.63 -4027.15 -475591 4058.21 -475549)
(-58038.7 1586.64 -1494.28 -494324 4245.99 -494197)
(-57317.5 -1690.55 1752.32 -490283 4360.39 -490125)
(-430218 -4366.91 4384.23 -459680 4373.28 -459613)
(-297984 8417.76 -2396.08 128293 -15971.4 1645.08)
(-22744.6 -9982.19 -186.795 51601 -10951 -27824.3)
(-22864.1 11662.9 463.094 48822.1 -10094.2 -28676.6)
(-281256 -7338.44 2610.33 125277 -13286.2 5024.78)
(-335845 -2240.16 -3075.97 1169.02 -6737.93 -57328.5)
(-85486.6 -3653.19 -554.868 -12003.8 -4449.12 -86599.9)
(-85326.3 4829.51 1061.94 -14520.3 -3883.66 -87557.7)
(-317573 2749.81 3420.45 1105.27 -4845.82 -53525.7)
(-341018 -2391.31 -3054.92 -3165.46 -5491.23 -58777.8)
(-94507.2 -1993.43 -553.402 -34281.7 -4709.84 -95313.6)
(-94368.7 2823.54 1112.56 -36515.2 -4298.28 -96405.4)
(-322371 2718.65 3424.35 -2331.75 -4054.82 -55279.1)
(-346681 -891.215 -3052.75 141.024 -5148.19 -55725.4)
(-91738.1 -1009.61 -508.458 -43015.6 -4767.94 -94662.8)
(-91595 1583.59 1042.11 -45082.5 -4435.83 -95823.2)
(-327699 1128.35 3417.95 1448.37 -3979.49 -52387.5)
(-360050 168.362 -3010.43 1453.6 -4182.48 -55924.5)
(-89492.6 -381.324 -458.91 -44637.9 -3926.65 -94024.5)
(-89325.1 730.414 956.538 -46647.1 -3635.89 -95229.9)
(-340754 -21.3383 3369.77 2985.49 -3177.47 -52683.2)
(-385837 935.969 -2844.18 -4920.01 -2874.18 -60695.3)
(-91535.7 -63.4844 -351.886 -48162.4 -2738.27 -96312.3)
(-91392.8 182.348 830.325 -50145.1 -2475.35 -97581.2)
(-366407 -931.078 3204.81 -3309.04 -1987.55 -57602.5)
(-437158 2643.02 -2550.19 -81139.4 -1498.08 -81708)
(-111476 376.544 -203.074 -114865 -1432.23 -115063)
(-111456 -537.67 654.701 -116286 -1215.84 -116352)
(-418171 -2883.24 2902.83 -78499.9 -780.222 -78755)
(-448436 4377.77 -2235.14 -474712 1685.84 -54990.3)
(-83388.8 1680.32 -133.408 -481542 1845.18 -85637.7)
(-82882.8 -1824.92 417.727 -477679 1960.8 -86135.2)
(-430338 -4698.64 2497.52 -458890 2037.92 -50744.2)
(-255681 7140.52 -1294.73 109236 -2735.5 49359.3)
(-18440.2 -9966.74 43.4962 32538 943.286 11332.7)
(-18497.6 10787.6 257.946 29920.4 1644.4 10335.6)
(-238664 -6420.65 1412.56 107440 -573.302 52999.3)
(-284226 -1947.64 -1425.99 19181.1 -1396.59 15975.1)
(-63564.8 -3673.17 -39.7571 663.255 500.771 -22528.4)
(-63349.7 4158.32 558.844 -1840.09 1086.43 -23777.8)
(-265824 2185.77 1646.09 19333.6 468.233 19613.3)
(-289048 -2254.06 -1190.23 20429.2 -2710.72 12707.8)
(-71646.5 -2090.55 56.4488 -14443.6 -1956.52 -33304.1)
(-71443 2367.45 482.599 -16699.2 -1469.36 -34740.4)
(-270294 2361.21 1427.55 21256.8 -1127.67 15851.6)
(-294889 -925.42 -1103.27 22888.1 -3951.12 14525.2)
(-69756.9 -1149.15 120.624 -23098.1 -3564.61 -34216.1)
(-69541.4 1298.31 373.478 -25201 -3145.14 -35765.2)
(-275782 994.222 1328.11 24132.3 -2582.81 17361.4)
(-308207 159.467 -1102.03 22333.3 -3998.1 15097.2)
(-68212.3 -475.652 130.463 -26496.1 -3761.91 -32904.6)
(-67961.4 516.264 315.719 -28542.9 -3390.46 -34536.6)
(-288716 -132.838 1312.4 23808.8 -2798.48 17728.2)
(-334063 1064.85 -1060.45 14855.1 -3158.53 11903.7)
(-70892.9 -50.2949 159.573 -31090.2 -3062.21 -33384.7)
(-70650.1 -28.9977 249.007 -33092.9 -2739.54 -35104)
(-314286 -1136.76 1260.42 16482.2 -2124.1 14332.9)
(-385854 2924.03 -891.67 -59271.4 -2223.77 -6092.57)
(-91157.4 492.895 240.661 -95170 -2158.28 -48581.8)
(-91013.6 -743.279 94.8754 -96579.3 -1918.57 -50291.8)
(-366263 -3200.8 1065.17 -56506.3 -1442.29 -3721.37)
(-400929 4696.41 -655.572 -426209 7.87944 28028.6)
(-61324.5 1827.58 262.453 -429498 178.655 -9086.34)
(-60672 -1982.83 -170.961 -425618 271.493 -9867.35)
(-381911 -5027.88 721.958 -410314 312.075 31994.8)
(-232335 6364.21 -710.278 100723 1166.45 50043.9)
(-19029 -9909.92 118.015 23476.3 3344.66 8773.07)
(-19071.1 10261.5 164.27 21162.2 3864.7 7948.67)
(-215344 -5898.41 791.882 100241 2760.34 54399.3)
(-257619 -1771.03 -809.557 19476.8 1209.18 26044.2)
(-58757.4 -3655.21 145.253 -3407.04 2445.69 -16240.4)
(-58552.6 3770.83 346.444 -5709.5 2933.34 -17296.7)
(-239376 1861.11 974.353 20223.8 2721.45 30354.1)
(-262237 -2084.92 -614.82 24028.2 -443.36 23022.7)
(-65997.6 -2091.72 243.573 -14181.3 123.325 -26418.5)
(-65795.3 2076.28 263.071 -16331.9 565.454 -27667.8)
(-243663 2081.11 794.613 25124.7 943.633 26791.7)
(-268262 -907.208 -518.53 28215.8 -2204.87 22865.4)
(-64490.9 -1202.31 295.405 -20507.8 -1872.32 -29218.7)
(-64270.8 1132.72 162.954 -22550.6 -1472.1 -30601.2)
(-249331 891.712 684.355 29592.7 -943.997 26251.7)
(-281695 130.432 -524.939 27911.1 -3039.91 22003.5)
(-63493.6 -532.057 283.731 -23648.2 -2803.35 -29420.6)
(-63234.3 425.855 120.766 -25649 -2443.88 -30909.3)
(-262353 -160.203 672.044 29480.1 -1911.77 25111.3)
(-307723 1110.54 -540.025 19839.4 -2899.2 17948.1)
(-66913.2 -38.0247 266.949 -28909.3 -2765.05 -30846)
(-66655.3 -120.128 85.0039 -30868.3 -2458.83 -32432.9)
(-288021 -1210.99 668.556 21570 -1936.17 20826.4)
(-359549 3120.27 -471.16 -53200.8 -2304.14 30.7696)
(-87695 606.906 285.219 -91605.3 -2199.42 -45901)
(-87522.4 -885.239 -28.1084 -92976.5 -1983.1 -47457.5)
(-339875 -3404.33 564.22 -50317.5 -1602.28 2914.46)
(-375057 4954.73 -350.353 -399904 -366.852 35434.7)
(-55994.9 1960.66 250.839 -403126 -213.494 -3658.59)
(-55295.7 -2132.22 -235.24 -399214 -139.761 -4233.43)
(-355677 -5294.2 340.696 -383898 -116.474 40057.2)
(-218473 5900.68 -398.664 96868.6 1591.41 49049.3)
(-19347.4 -9844.75 101.662 19186.6 2852.33 6170.91)
(-19397.2 9928.73 125.598 17127.3 3223.76 5481.7)
(-201527 -5602.08 463.246 97421.1 2719.79 53919.6)
(-242382 -1710.59 -492.449 18411.1 1531.02 28298.2)
(-57030.3 -3641.04 145.219 -7181.38 2324.06 -15644.9)
(-56869.7 3546.58 263.784 -9297.18 2689.06 -16533)
(-224294 1713.03 626.069 19722.9 2647.27 33142.2)
(-246946 -1979.64 -388.461 23658.2 433.264 26244.2)
(-63864.1 -2082.58 209.767 -16691.7 846.795 -24526.8)
(-63701.1 1901.74 219.815 -18739.3 1194.49 -25600.6)
(-228540 1914.55 536.773 25060.5 1507.5 30554.7)
(-253113 -882.268 -323.695 28900.1 -1007.02 25256.7)
(-62548.4 -1226.41 239.436 -21601.2 -736.121 -28033.5)
(-62363 1034.42 151.131 -23591.7 -409.92 -29246.9)
(-234352 820.744 460.749 30436 6.92785 29157.4)
(-266628 107.829 -327.232 29325.2 -1987.7 23195)
(-61842.7 -569.741 222.544 -24008.9 -1771.55 -29496.4)
(-61616.3 383.633 117.507 -25982 -1474.14 -30826.7)
(-247445 -167.827 446.183 30981.1 -1062.74 26778.9)
(-292694 1123.48 -349.349 21416.2 -2215.71 18162.6)
(-65664.9 -36.0862 194.358 -29169.8 -2064.44 -32043.8)
(-65437.2 -163.876 90.2393 -31114.3 -1812.5 -33477)
(-273117 -1238.44 447.723 23203.9 -1425.76 21500.6)
(-344314 3240.34 -327.55 -50444.7 -1860.28 -286.285)
(-86738 685.398 182.094 -90535.4 -1740.12 -47706.5)
(-86587.5 -981.907 9.84575 -91903 -1565.63 -49100.6)
(-324675 -3528.95 390.483 -47517 -1291.63 3082.35)
(-359353 5125.2 -281.518 -383953 -367.61 35077.6)
(-53767.5 2052.91 120.835 -387842 -245.774 -4751.43)
(-53077.3 -2242.27 -134.476 -383918 -188.064 -5144.28)
(-339820 -5474.25 256.399 -367877 -168.939 40246.4)
(-210060 5626.29 -228.977 94736.5 1286.33 48799.2)
(-19507.3 -9804.52 64.9442 16670.7 2007.92 4862.07)
(-19561.8 9734.04 97.5068 14797.7 2256.69 4263.46)
(-193118 -5430.84 276.848 96031.5 2034.29 54028.4)
(-233226 -1697.87 -295.173 17767 1155.82 29326.9)
(-56140.5 -3639.63 97.7451 -9551.88 1654.49 -15680.9)
(-56013.9 3423.46 202.737 -11525.6 1903.55 -16455.4)
(-215217 1648.58 395.683 19528.1 1910.57 34557.9)
(-237763 -1929.61 -247.582 22963.9 524.702 28013.6)
(-62758.8 -2082.93 133.49 -18825.5 815.19 -23640.8)
(-62627.3 1804.82 189.213 -20788.9 1058.84 -24592.2)
(-219445 1828.97 361.145 24641.9 1272.05 32733)
(-244013 -867.994 -214.015 28535.7 -403.828 26887.6)
(-61534.5 -1242.96 146.539 -23203.8 -199.679 -27223.5)
(-61377.6 977.15 150.393 -25151.2 34.3086 -28314.7)
(-225339 779.272 320.268 30230.7 319.937 31193.7)
(-257570 94.3563 -216.569 29461.5 -1160.13 24152.8)
(-60983.6 -594.611 131.652 -25107.2 -990.183 -29403.4)
(-60784.6 358.049 125.958 -27061.5 -774.043 -30615.6)
(-238472 -173.085 308.624 31204.5 -489.07 28125.6)
(-283620 1128.74 -232.301 21931.2 -1444.96 18321.7)
(-65027.7 -37.2588 108.037 -29927.4 -1315.93 -32857.5)
(-64825.8 -192.43 102.943 -31868.1 -1132.47 -34175.3)
(-264107 -1254.01 306.83 23766.9 -868.457 22037.4)
(-335003 3315.26 -226.211 -48905 -1250.79 -776.394)
(-86272.5 735.365 90.0213 -90187.7 -1147.71 -49254.9)
(-86143.3 -1048.64 46.1578 -91560.9 -1021.18 -50531.9)
(-315378 -3609.11 271.766 -45948.2 -835.906 2974.28)
(-349399 5236.38 -210.319 -373887 -271.21 34490.9)
(-52354.6 2113.66 32.1796 -378499 -181.949 -5982.43)
(-51677.2 -2318.78 -50.7264 -374573 -140.217 -6249.19)
(-329760 -5594.72 189.072 -357762 -126.542 40070.7)
(-205195 5468.95 -121.846 93480.2 807.893 48836.5)
(-19609.8 -9785.25 34.17 15129 1183.86 4212.45)
(-19665.5 9630.37 62.752 13376.4 1326.75 3670.25)
(-188244 -5332.32 151.163 95249.4 1233.99 54294.6)
(-227947 -1698.38 -159.142 17385 681.461 29932.1)
(-55662.7 -3643.13 53.4711 -10977.3 958.836 -15773.7)
(-55555.8 3359.93 129.004 -12857.2 1103.07 -16477.8)
(-209972 1620.45 221.362 19450.2 1115.8 35415.8)
(-232467 -1908.57 -138.702 22468.1 349.43 29009.5)
(-62159.1 -2087.64 71.4089 -20224.7 523.865 -23255.4)
(-62046.1 1754.51 127.817 -22129.5 666.914 -24129.7)
(-214187 1788.02 209.967 24346.7 786.483 34002)
(-238754 -862.812 -124.109 28089.3 -146.534 27935.6)
(-60971.6 -1255.2 76.1055 -24451.9 -18.7014 -26765.5)
(-60831.2 945.722 109.274 -26367.8 120.584 -27778.2)
(-220120 758.176 191.554 29908.5 283.485 32518.8)
(-252329 86.5315 -126.321 29258.7 -586.758 24887.9)
(-60499.5 -610.126 66.2509 -26110.8 -479.402 -29288.5)
(-60316.3 341.523 94.8561 -28051.4 -349.529 -30423.6)
(-233269 -177.05 184.979 31073 -183.423 29131.6)
(-278351 1132.42 -135.028 22026.5 -781.888 18538.6)
(-64667.9 -38.2469 51.6692 -30652 -698.546 -33323.1)
(-64480.9 -212.636 79.109 -32590.6 -587.848 -34565.5)
(-258867 -1265.14 182.233 23901.3 -433.155 22517.5)
(-329556 3361.91 -132.952 -48104.4 -689.242 -1058.76)
(-86017.3 765.874 38.8134 -90158.8 -622.933 -50275.8)
(-85900.8 -1092.6 44.0671 -91536.7 -546.501 -51478)
(-309932 -3660.43 161.491 -45125.6 -437.49 2952.91)
(-343435 5306.58 -127.025 -367903 -156.564 34171.1)
(-51460.2 2151.65 0.26212 -373054 -102.315 -6811.84)
(-50790.6 -2368.34 -13.0774 -369127 -77.07 -6998.82)
(-323726 -5672.05 114.062 -351745 -68.6427 40027.3)
(-202954 5396 -38.593 92881.7 273.811 48901.8)
(-19662 -9778.05 10.5305 14380.2 390.994 3935.71)
(-19717.6 9586.09 21.6463 12686.6 437.575 3420.85)
(-185994 -5286.03 48.4239 94881.1 412.115 54471.4)
(-225516 -1700.32 -50.5458 17193.7 223.447 30231.8)
(-55449.4 -3645.83 16.8915 -11663.4 312.686 -15824.9)
(-55351.5 3332.96 44.208 -13497.1 359.867 -16494.9)
(-207553 1609.67 71.5415 19411 365.062 35840.4)
(-230028 -1900.96 -44.7437 22218.9 118.177 29463.6)
(-61889.6 -2091.05 22.4471 -20910.2 176.441 -23115.6)
(-61785 1732.98 44.8258 -22785.3 223.515 -23952.3)
(-211763 1771.43 68.9672 24201.7 261.726 34592.7)
(-236329 -861.631 -40.7338 27833 -36.2446 28435.9)
(-60713.8 -1261.8 23.5694 -25102.4 7.31585 -26574.6)
(-60580.9 931.775 39.4265 -27001.6 53.4449 -27548.6)
(-217710 749.54 63.8046 29719.4 106.067 33159.3)
(-249909 82.7488 -41.6512 29094.1 -177.558 25269.4)
(-60274.3 -617.712 20.1458 -26670.4 -140.968 -29232)
(-60098.4 333.216 34.7186 -28603.5 -97.7464 -30328.8)
(-230863 -179.097 61.7762 30948.3 -43.279 29651.5)
(-275914 1134.6 -44.4124 22009.9 -243.96 18675.2)
(-64500 -38.6393 15.2796 -31071.4 -215.48 -33539.2)
(-64319.7 -223.464 29.142 -33008.5 -178.536 -34744.3)
(-256439 -1271.29 60.5882 23907.1 -127.409 22788.9)
(-327026 3385.06 -43.7831 -47770.8 -216.866 -1179.65)
(-85900.9 780.699 10.8066 -90203.8 -194.338 -50775)
(-85790.2 -1114.88 17.1899 -91584 -168.795 -51940.4)
(-307399 -3686.25 53.5462 -44779.4 -132.535 2964.67)
(-340628 5341.28 -42.0935 -365103 -50.1085 34046.4)
(-51021.8 2170.2 -2.49265 -370533 -32.0036 -7209.18)
(-50355.7 -2393.02 -1.86108 -366605 -23.56 -7357.12)
(-320883 -5710.56 37.8044 -348927 -20.6293 40042.2)
)
;

boundaryField
{
    interface
    {
        type            calculated;
        value           nonuniform List<symmTensor> 
192
(
(-57.344 0.287404 3.64575 852499 10233.9 289586)
(-59.3145 0.0765749 5.46873 638785 -2888.4 256435)
(-60.3294 -0.274252 5.81983 657402 -3477.99 263668)
(-61.0041 -0.663615 5.81068 687600 -2290.08 273447)
(-60.9697 -0.998232 5.6383 720021 -1301.29 285456)
(-61.6832 -1.64889 5.40739 757737 -348.827 303219)
(-59.7858 -2.10403 4.89671 746067 1604.08 326154)
(-63.1212 -4.48269 4.4751 345914 4058.21 345956)
(-55.6318 0.178732 1.86216 701381 -15971.4 574734)
(-56.6283 -0.0266288 2.96492 585775 -6737.93 527277)
(-57.22 -0.355922 3.12644 591697 -5491.23 536085)
(-57.709 -0.770495 3.0684 610270 -5148.19 554403)
(-57.516 -1.13786 2.91425 637657 -4182.48 580278)
(-58.2307 -1.8703 2.72517 676134 -2874.18 620359)
(-56.1238 -2.3799 2.39517 677961 -1498.08 677393)
(-59.8079 -4.9114 2.1189 326322 1685.84 746043)
(-58.5705 0.150106 1.49894 608769 -2735.5 548892)
(-59.4722 -0.0704965 2.36628 527268 -1396.59 524062)
(-60.0651 -0.414579 2.4916 538209 -2710.72 530487)
(-60.5539 -0.871783 2.44345 555515 -3951.12 547152)
(-60.2373 -1.29 2.31952 580506 -3998.1 573270)
(-60.8454 -2.11582 2.16458 617548 -3158.53 614597)
(-58.2374 -2.71015 1.91341 621955 -2223.77 675134)
(-61.7323 -5.43539 1.68864 303752 7.87944 757989)
(-58.6536 0.103758 0.950838 557570 1166.45 506891)
(-59.3584 -0.134607 1.56069 483649 1209.18 490217)
(-59.8179 -0.486248 1.64317 497633 -443.36 496627)
(-60.2332 -0.963821 1.59898 516581 -2204.87 511230)
(-59.8248 -1.40801 1.50323 541709 -3039.91 535801)
(-60.3903 -2.27758 1.38742 578036 -2899.2 576145)
(-57.6268 -2.90943 1.22153 583194 -2304.14 636425)
(-61.1386 -5.69559 1.07582 286482 -366.852 721821)
(-59.5052 0.0856489 0.707498 528527 1591.41 480708)
(-60.1518 -0.170603 1.15801 456896 1531.02 466783)
(-60.5513 -0.537415 1.22021 471493 433.264 474079)
(-60.9303 -1.03584 1.1877 491513 -1007.02 487870)
(-60.4474 -1.5056 1.11714 517353 -1987.7 511223)
(-60.9446 -2.41242 1.03019 553709 -2215.71 550455)
(-57.9931 -3.07976 0.911059 559475 -1860.28 609633)
(-61.3975 -5.9209 0.802626 275549 -367.61 694580)
(-59.6663 0.0695442 0.443553 511232 1286.33 465295)
(-60.2597 -0.200107 0.741351 440829 1155.82 452388)
(-60.6043 -0.577217 0.782697 455347 524.702 460397)
(-60.9503 -1.08811 0.759837 475724 -403.828 474076)
(-60.4215 -1.5728 0.712366 502057 -1160.13 496748)
(-60.8865 -2.49973 0.654344 538654 -1444.96 535044)
(-57.8518 -3.18611 0.579143 544907 -1250.79 593036)
(-61.2319 -6.05663 0.511279 268748 -271.21 677127)
(-59.9431 0.0629307 0.26257 501247 807.893 456604)
(-60.5194 -0.216032 0.437496 431575 681.461 444122)
(-60.8361 -0.601809 0.462341 445968 349.43 452509)
(-61.1633 -1.12209 0.449191 466411 -146.534 466257)
(-60.6024 -1.61786 0.42178 492976 -586.758 488605)
(-61.0369 -2.55872 0.387402 529762 -781.888 526274)
(-57.9323 -3.25879 0.344212 536331 -689.242 583376)
(-61.2726 -6.1501 0.30337 264719 -156.564 666793)
(-59.9927 0.0579653 0.0800497 496638 273.811 452658)
(-60.5548 -0.225197 0.136696 427306 223.447 440344)
(-60.8555 -0.614394 0.144764 441637 118.177 448882)
(-61.1727 -1.13836 0.140285 462080 -36.2446 462682)
(-60.6001 -1.63895 0.131441 488728 -177.558 484903)
(-61.0223 -2.58538 0.120267 525603 -243.96 522268)
(-57.8983 -3.29187 0.107034 532322 -216.866 578913)
(-61.2202 -6.19213 0.0939685 262831 -50.1085 661981)
(357723 10455.9 -5.47872 895945 -0.892812 -23.9761)
(322886 -2200.44 -8.50527 681591 -0.849179 -18.9717)
(329901 -2296.03 -9.16433 700339 -0.550754 -16.2805)
(341121 -764.257 -9.25815 731072 -0.384189 -15.7949)
(354542 180.835 -9.19822 764001 -0.326832 -16.4381)
(373391 778.496 -9.15022 802277 -0.387526 -17.9341)
(398781 2371.1 -9.0693 792279 -0.465517 -20.5869)
(424689 4094.63 -9.53755 396088 -0.672635 -23.0462)
(654915 -10508.8 -3.82472 790964 -0.461577 -30.877)
(596389 -3556.39 -6.47526 658880 -0.498914 -29.7953)
(604025 -1681.02 -6.97663 659943 -0.2927 -29.1205)
(625217 -697.046 -7.01257 677499 -0.134176 -29.0634)
(653628 -146.831 -6.97817 706241 -0.0374545 -29.335)
(694945 51.802 -6.99892 746817 0.0018189 -29.8871)
(752652 392.183 -7.08691 750159 0.000867262 -30.7215)
(822392 1586.64 -7.76651 386107 -0.0701111 -31.3821)
(648827 13807.4 -4.08338 782756 -0.273557 -27.4561)
(589978 6098.67 -6.8865 650253 -0.293764 -26.6628)
(597308 3587.72 -7.45276 651168 -0.136883 -26.0763)
(618362 2098.48 -7.49817 668756 0.0242027 -25.9981)
(646717 1137.38 -7.43919 697518 0.149767 -26.2891)
(687956 562.004 -7.40236 738078 0.259021 -26.8023)
(745456 -234.204 -7.39431 741819 0.334756 -27.7237)
(815439 -1690.55 -7.976 382474 0.352103 -28.7052)
(351340 -8781.01 -4.80433 871875 -0.19456 -28.1878)
(316557 3299.7 -8.06133 658784 -0.181952 -27.7063)
(323122 3089.5 -8.75212 677380 -0.033031 -27.2612)
(334160 1352.04 -8.82052 708177 0.139594 -27.2199)
(347490 234.245 -8.73175 741144 0.278799 -27.4649)
(366073 -564.621 -8.66146 779317 0.430575 -27.7673)
(390511 -2458.69 -8.52436 769918 0.553335 -28.3734)
(415563 -4366.91 -9.08295 386102 0.702995 -29.003)
(-11.9393 0.907868 2.07856 824608 11627.5 276970)
(-7.30197 0.661977 3.39598 611885 -1968.73 243031)
(-5.00546 0.0315262 3.63037 630556 -2840.35 249976)
(-4.17117 -0.508906 3.63964 660814 -1800.41 259513)
(-4.55115 -0.834793 3.57936 693266 -889.039 271390)
(-3.80603 -1.36252 3.63124 731184 32.5427 289342)
(-5.93802 -1.39929 3.52393 721462 1982.91 313448)
(3.46305 -3.80446 3.86576 336125 4373.28 336191)
(-20.5253 0.306477 0.347318 670216 -13286.2 549964)
(-19.5516 0.139815 0.914387 556057 -4845.82 501426)
(-19.0171 -0.224982 0.944558 562213 -4054.82 509265)
(-18.5038 -0.607137 0.913184 580650 -3979.49 526814)
(-18.5987 -0.809251 0.906817 607717 -3177.47 552048)
(-16.8975 -1.26082 1.03162 645966 -1987.55 591673)
(-17.6553 -1.04987 1.12735 649397 -780.222 649142)
(-5.85882 -3.46944 1.48559 313476 2037.92 721621)
(-20.3895 0.152872 0.59078 578752 -573.302 524312)
(-19.6316 -0.0319716 1.20014 497777 468.233 498056)
(-19.1254 -0.313524 1.30048 508730 -1127.67 503325)
(-18.4777 -0.654427 1.30026 525801 -2582.81 519030)
(-18.4346 -0.810767 1.29071 550358 -2798.48 544277)
(-16.288 -1.24884 1.35243 586997 -2124.1 584848)
(-16.7752 -0.948577 1.36503 592687 -1442.29 645472)
(-3.54945 -3.57637 1.48705 289568 312.075 731876)
(-22.4308 0.0624367 0.354767 529224 2760.34 483382)
(-21.9935 -0.136991 0.827242 455171 2721.45 465301)
(-21.6789 -0.373286 0.912816 468850 943.633 470517)
(-20.9908 -0.675214 0.914503 487411 -943.997 484070)
(-20.8067 -0.781102 0.906644 512014 -1911.77 507645)
(-18.214 -1.18836 0.948288 547824 -1936.17 547080)
(-18.2789 -0.811661 0.954921 554020 -1602.28 607252)
(-3.96534 -3.52762 1.02653 271893 -116.474 695848)
(-22.6178 0.0503978 0.362297 501499 2719.79 457997)
(-22.1871 -0.16217 0.746297 429321 2647.27 442741)
(-21.8589 -0.393355 0.825659 443365 1507.5 448859)
(-21.0912 -0.690077 0.831455 462846 6.92785 461567)
(-20.8265 -0.780481 0.821712 488064 -1062.74 483862)
(-18.0094 -1.18356 0.835915 523810 -1425.76 522107)
(-17.9353 -0.779702 0.818485 530453 -1291.63 581052)
(-3.00322 -3.58789 0.829736 260812 -168.939 668935)
(-23.1749 0.0452413 0.234586 485098 2034.29 443095)
(-22.7664 -0.174768 0.497559 413895 1910.57 428924)
(-22.4375 -0.404428 0.554447 427694 1272.05 435785)
(-21.6151 -0.697861 0.55926 447413 319.937 448376)
(-21.2791 -0.776318 0.55297 473039 -489.07 469960)
(-18.2761 -1.17357 0.560836 508951 -868.457 507222)
(-18.0586 -0.749077 0.548689 515974 -835.906 564897)
(-2.66761 -3.61167 0.552974 253911 -126.542 651744)
(-23.2728 0.047997 0.154794 475665 1233.99 434710)
(-22.8552 -0.176822 0.312574 405046 1115.8 421012)
(-22.5092 -0.408584 0.347597 418622 786.483 428277)
(-21.6479 -0.703281 0.350812 438329 283.485 440940)
(-21.2726 -0.778054 0.346883 464129 -183.423 462188)
(-18.1726 -1.1747 0.348622 500178 -433.155 498795)
(-17.8948 -0.741468 0.339249 507451 -437.49 555529)
(-2.24032 -3.64215 0.335409 249823 -68.6427 641595)
(-23.403 0.0483394 0.0458407 471317 412.115 430907)
(-22.9871 -0.178473 0.0971579 400973 365.062 417403)
(-22.6345 -0.410628 0.108707 414441 261.726 424832)
(-21.7547 -0.705209 0.109717 434112 106.067 437552)
(-21.3548 -0.777854 0.108751 459965 -43.279 458668)
(-18.2044 -1.17298 0.109427 496076 -127.409 494958)
(-17.881 -0.735456 0.107435 503465 -132.535 551209)
(-2.10152 -3.65331 0.1063 247906 -20.6293 636876)
(424834 9.55455 -4027.15 -22.7939 -0.638555 396274)
(398857 9.09935 -2235.14 -20.1869 -0.428088 792303)
(373510 9.20039 -655.572 -17.2527 -0.326463 802467)
(355272 9.27961 -350.353 -15.3184 -0.216944 765764)
(343859 9.39363 -281.518 -13.8616 -0.171271 738289)
(336788 9.46229 -210.319 -12.824 -0.110448 720677)
(332640 9.51649 -127.025 -12.1792 -0.0718787 710246)
(330711 9.54036 -42.0935 -11.8629 -0.0228645 705386)
(822544 7.77213 -1494.28 -31.1622 -0.0269745 386386)
(752805 7.09597 -133.408 -30.4061 0.0468565 750556)
(695433 7.01125 262.453 -29.3836 0.0724193 747671)
(655656 6.99068 250.839 -28.5934 0.0744284 707992)
(631281 7.01927 120.835 -27.9491 0.0546745 680297)
(616427 7.03306 32.1796 -27.4641 0.0403909 662800)
(607808 7.05095 0.26212 -27.1551 0.0200292 652456)
(603824 7.0579 -2.49265 -26.9881 0.00708328 647637)
(815582 7.97966 1752.32 -28.4876 0.400939 382774)
(745588 7.39679 417.727 -27.4037 0.387018 742335)
(688372 7.40611 -170.961 -26.2888 0.336202 739177)
(648615 7.44544 -235.24 -25.5277 0.263695 699678)
(624213 7.51 -134.476 -24.8602 0.198863 672146)
(609337 7.54624 -50.7264 -24.4075 0.135153 654765)
(600703 7.57678 -13.0774 -24.0991 0.0762899 644495)
(596714 7.58903 -1.86108 -23.9551 0.0242292 639712)
(415633 9.07282 4384.23 -28.8002 0.753215 386238)
(390544 8.51207 2497.52 -28.0773 0.607285 770138)
(366160 8.6501 721.958 -27.3139 0.50662 780065)
(348203 8.72897 340.696 -26.8255 0.385469 743937)
(336864 8.84006 256.399 -26.3159 0.294252 716931)
(329843 8.90141 189.072 -26.0072 0.197895 699674)
(325728 8.95086 114.062 -25.7719 0.115187 689481)
(323816 8.97163 37.8044 -25.664 0.0365405 684741)
)
;
    }
    symmetry
    {
        type            symmetry;
    }
    bottom
    {
        type            calculated;
        value           nonuniform List<symmTensor> 
32
(
(-768250 41381.3 -3320.6 -57370.8 40306.9 -792941)
(-509244 33886.7 -2396.08 1200.33 -22255.2 -209615)
(-439065 28826.6 -1294.73 -8026.29 -6635.28 -134024)
(-405365 26001.8 -710.278 -9314.93 -425.685 -122986)
(-386077 24501.1 -398.664 -9194.18 952.509 -118555)
(-374756 23680.1 -228.977 -9449.61 1012.12 -115897)
(-368334 23228.4 -121.846 -9772.85 687.688 -114302)
(-365400 23023.1 -38.593 -9963.27 238.969 -113544)
(-224268 -12594 -1143.31 4398.19 38174.2 -569964)
(-49980.6 -12426.6 -186.795 39891.2 -16728.8 -55060.3)
(-33874.9 -12712 43.4962 21521.5 -2500.12 -4101.93)
(-32377.6 -12735.7 118.015 15258.9 1973.43 -4575.52)
(-31794 -12663.5 101.662 12577.6 2301.3 -6275.7)
(-31616.9 -12599.6 64.9442 10600.1 1762.09 -7247.56)
(-31577.8 -12562.2 34.17 9257.35 1070.44 -7755.48)
(-31570 -12546.1 10.5305 8590.67 357.056 -7972.29)
(-222410 15385.5 1190.67 4172.59 38588.1 -565168)
(-50313.3 13350.9 463.094 36909.8 -15723.5 -56125.8)
(-34170.2 12738.9 257.946 18744.2 -1703.72 -5336.94)
(-32649.4 12346.8 164.27 12821.8 2554.84 -5629.61)
(-32074.3 12069.7 125.598 10406.3 2713.9 -7195.39)
(-31903.8 11901.3 97.5068 8619.55 2037.7 -8078.57)
(-31867.1 11812.8 62.752 7399.73 1228.53 -8531.42)
(-31860 11776.3 21.6463 6793.15 408.559 -8721.56)
(-748606 -39880.3 3507.02 -56781.9 42088.9 -775709)
(-493339 -32965.6 2610.33 -3861.91 -19109.8 -207057)
(-422645 -28310.4 1412.56 -11105.1 -4199.04 -130982)
(-388861 -25787.7 791.882 -10616.2 1345.77 -119117)
(-369592 -24480.1 463.246 -9213.97 2199.86 -114145)
(-358270 -23773 276.848 -8582.67 1836.81 -111123)
(-351838 -23383.8 151.163 -8350.96 1156.84 -109299)
(-348896 -23206.2 48.4239 -8274.92 391.148 -108431)
)
;
    }
}


// ************************************************************************* //
