/*--------------------------------*- C++ -*----------------------------------*\
| =========                 |                                                 |
| \\      /  F ield         | OpenFOAM: The Open Source CFD Toolbox           |
|  \\    /   O peration     | Version:  v1912                                 |
|   \\  /    A nd           | Website:  www.openfoam.com                      |
|    \\/     M anipulation  |                                                 |
\*---------------------------------------------------------------------------*/
FoamFile
{
    version     2.0;
    format      ascii;
    class       volScalarField;
    location    "0.31/solid";
    object      sigmaHyd;
}
// * * * * * * * * * * * * * * * * * * * * * * * * * * * * * * * * * * * * * //

dimensions      [1 -1 -2 0 0 0 0];


internalField   nonuniform List<scalar> 
256
(
-726566
-363613
-361510
-712595
-902247
-493225
-490894
-886320
-909452
-503610
-501153
-892778
-916872
-507585
-505001
-899615
-938893
-518185
-515524
-921275
-984991
-544373
-541708
-967364
-1.11781e+06
-646578
-643741
-1.10029e+06
-1.69077e+06
-1.18225e+06
-1.17601e+06
-1.66535e+06
-330402
-38536.6
-40008
-324607
-446545
-107747
-109137
-439530
-454798
-121721
-123061
-447326
-459094
-123923
-125217
-451220
-470873
-124293
-125562
-462659
-498238
-129550
-130826
-489860
-599386
-192746
-193796
-590779
-1.11801e+06
-646583
-643665
-1.10022e+06
-265337
-10271.4
-11792.1
-259134
-351470
-50943.3
-52498.5
-344615
-357858
-62589.3
-64124.4
-350695
-362588
-65376.9
-66883.7
-355079
-374265
-66000.1
-67490.7
-366405
-400785
-70515.2
-72006.8
-392655
-498187
-129185
-130415
-489578
-985166
-544059
-541233
-966956
-247463
-12790.2
-14160.1
-240745
-324977
-46756.9
-48199.8
-317928
-330028
-56459.3
-57913.1
-322803
-334883
-59221.1
-60666.5
-327377
-346987
-60434.1
-61874.2
-339153
-374024
-65686.7
-67129.1
-365884
-470343
-123313
-124481
-461592
-938287
-516875
-513947
-919642
-237945
-14821.5
-16073.6
-230865
-312315
-46811.4
-48162.2
-305113
-316772
-55522.8
-56908.4
-309483
-321613
-58112.7
-59507.3
-314103
-333925
-59600.5
-61001
-326118
-361242
-65316.7
-66724.3
-353125
-456833
-122454
-123584
-448044
-913198
-503983
-500996
-894336
-232254
-15963.7
-17131.8
-224907
-305095
-47104.8
-48389.7
-297755
-309307
-55357.5
-56693
-301936
-314128
-57827.4
-59184.6
-306576
-326529
-59439.1
-60811.2
-318708
-353969
-65412.1
-66796.5
-345844
-449061
-122293
-123400
-440237
-898179
-496607
-493587
-879178
-229012
-16629.5
-17743.3
-221489
-301043
-47339.3
-48581.1
-293601
-305156
-55383.2
-56684.8
-297715
-309967
-57791.5
-59122.7
-302369
-322407
-59463.1
-60815.4
-314558
-349899
-65574.8
-66943.3
-341754
-444682
-122321
-123414
-435827
-889490
-492438
-489397
-870401
-227537
-16945.5
-18032.6
-219926
-299206
-47464.9
-48685.4
-291711
-303286
-55426.2
-56710.7
-295804
-308093
-57810.1
-59127.8
-300467
-320548
-59507.4
-60849.3
-312680
-348059
-65680.7
-67041
-339899
-442694
-122368
-123453
-433821
-885479
-490533
-487483
-866346
)
;

boundaryField
{
    interface
    {
        type            zeroGradient;
    }
    symmetry
    {
        type            symmetry;
    }
    bottom
    {
        type            zeroGradient;
    }
}


// ************************************************************************* //
