/*--------------------------------*- C++ -*----------------------------------*\
| =========                 |                                                 |
| \\      /  F ield         | OpenFOAM: The Open Source CFD Toolbox           |
|  \\    /   O peration     | Version:  v1912                                 |
|   \\  /    A nd           | Website:  www.openfoam.com                      |
|    \\/     M anipulation  |                                                 |
\*---------------------------------------------------------------------------*/
FoamFile
{
    version     2.0;
    format      ascii;
    class       volVectorField;
    location    "0.36/solid";
    object      DD_0_0;
}
// * * * * * * * * * * * * * * * * * * * * * * * * * * * * * * * * * * * * * //

dimensions      [0 1 0 0 0 0 0];


internalField   nonuniform List<vector> 
256
(
(4.50162e-10 4.18308e-10 4.94059e-10)
(8.65438e-11 2.16503e-10 4.11797e-10)
(-9.49097e-11 2.12569e-10 4.08099e-10)
(-4.4288e-10 4.01523e-10 4.81639e-10)
(7.42149e-10 2.49232e-10 1.03066e-09)
(1.7493e-10 1.15263e-10 9.23204e-10)
(-1.88657e-10 1.1282e-10 9.16579e-10)
(-7.35429e-10 2.4219e-10 1.00917e-09)
(7.68864e-10 -5.99272e-11 1.38412e-09)
(1.84177e-10 -1.10115e-10 1.27453e-09)
(-2.04023e-10 -1.09781e-10 1.26654e-09)
(-7.68398e-10 -5.73787e-11 1.35844e-09)
(7.36271e-10 -3.73424e-10 1.69344e-09)
(1.64856e-10 -4.03704e-10 1.57321e-09)
(-1.9424e-10 -4.00635e-10 1.56432e-09)
(-7.45311e-10 -3.62909e-10 1.66496e-09)
(7.30577e-10 -7.04621e-10 2.01318e-09)
(1.5437e-10 -7.6289e-10 1.87495e-09)
(-1.96643e-10 -7.5739e-10 1.86533e-09)
(-7.52287e-10 -6.87149e-10 1.98246e-09)
(8.19626e-10 -1.09539e-09 2.38085e-09)
(1.82967e-10 -1.19573e-09 2.2222e-09)
(-2.41373e-10 -1.18808e-09 2.21192e-09)
(-8.57235e-10 -1.07169e-09 2.34826e-09)
(1.08915e-09 -1.67854e-09 2.83078e-09)
(2.74066e-10 -1.74787e-09 2.66206e-09)
(-3.52433e-10 -1.73822e-09 2.65097e-09)
(-1.14554e-09 -1.6489e-09 2.79618e-09)
(1.50581e-09 -2.72181e-09 3.28891e-09)
(3.75713e-10 -2.571e-09 3.14022e-09)
(-4.79672e-10 -2.55732e-09 3.12792e-09)
(-1.5833e-09 -2.68009e-09 3.25155e-09)
(2.2077e-10 1.14438e-10 1.59473e-10)
(3.83127e-11 -2.16277e-11 1.97055e-10)
(-4.15717e-11 -2.31565e-11 1.95611e-10)
(-2.11602e-10 1.03834e-10 1.54924e-10)
(3.7717e-10 -7.38689e-11 5.31809e-10)
(8.52324e-11 -1.68681e-10 6.03029e-10)
(-8.83955e-11 -1.69526e-10 5.99213e-10)
(-3.64799e-10 -7.74047e-11 5.20444e-10)
(3.82619e-10 -3.36011e-10 8.68054e-10)
(8.68302e-11 -3.73006e-10 9.49739e-10)
(-9.2837e-11 -3.71936e-10 9.44559e-10)
(-3.73604e-10 -3.32187e-10 8.52657e-10)
(3.47563e-10 -6.2386e-10 1.17115e-09)
(6.87066e-11 -6.49095e-10 1.25218e-09)
(-8.19321e-11 -6.45736e-10 1.24615e-09)
(-3.4584e-10 -6.1311e-10 1.15309e-09)
(3.35451e-10 -9.39136e-10 1.47245e-09)
(5.85749e-11 -9.93584e-10 1.54865e-09)
(-8.29181e-11 -9.88017e-10 1.54194e-09)
(-3.44584e-10 -9.2194e-10 1.45221e-09)
(4.12508e-10 -1.29112e-09 1.79079e-09)
(8.53371e-11 -1.38895e-09 1.862e-09)
(-1.24382e-10 -1.38138e-09 1.85466e-09)
(-4.35923e-10 -1.26803e-09 1.7685e-09)
(6.69875e-10 -1.73987e-09 2.09702e-09)
(1.73431e-10 -1.80676e-09 2.16675e-09)
(-2.31153e-10 -1.79744e-09 2.15874e-09)
(-7.1047e-10 -1.71139e-09 2.07271e-09)
(1.08728e-09 -2.47237e-09 2.24541e-09)
(2.72179e-10 -2.30172e-09 2.31762e-09)
(-3.54184e-10 -2.28913e-09 2.30918e-09)
(-1.14719e-09 -2.43315e-09 2.21974e-09)
(8.12574e-11 1.36764e-11 8.44989e-11)
(-2.83418e-12 -7.69001e-11 1.36658e-10)
(1.38111e-12 -7.80569e-11 1.35591e-10)
(-7.10723e-11 3.55922e-12 8.1395e-11)
(1.37235e-10 -2.30803e-10 3.56927e-10)
(4.65977e-12 -2.92974e-10 4.50559e-10)
(-2.80798e-12 -2.93484e-10 4.47739e-10)
(-1.21154e-10 -2.34194e-10 3.4891e-10)
(1.251e-10 -5.00329e-10 6.52652e-10)
(-2.02215e-12 -5.25724e-10 7.575e-10)
(3.78593e-12 -5.24588e-10 7.53486e-10)
(-1.09796e-10 -4.97015e-10 6.41144e-10)
(9.20797e-11 -7.70418e-10 9.3732e-10)
(-1.89117e-11 -7.93754e-10 1.04293e-09)
(1.57387e-11 -7.90564e-10 1.03809e-09)
(-8.18678e-11 -7.60675e-10 9.23263e-10)
(8.11978e-11 -1.04497e-09 1.21004e-09)
(-2.81527e-11 -1.09976e-09 1.31381e-09)
(1.57331e-11 -1.09451e-09 1.30831e-09)
(-7.99699e-11 -1.02908e-09 1.19389e-09)
(1.56455e-10 -1.32001e-09 1.46229e-09)
(-2.59756e-12 -1.41799e-09 1.56451e-09)
(-2.29652e-11 -1.41086e-09 1.55842e-09)
(-1.67844e-10 -1.29847e-09 1.44423e-09)
(4.08578e-10 -1.64323e-09 1.64474e-09)
(8.2455e-11 -1.71151e-09 1.74694e-09)
(-1.25381e-10 -1.70276e-09 1.74036e-09)
(-4.35596e-10 -1.61654e-09 1.62502e-09)
(8.13891e-10 -2.23147e-09 1.66182e-09)
(1.78073e-10 -2.07086e-09 1.76662e-09)
(-2.44204e-10 -2.05893e-09 1.75983e-09)
(-8.58793e-10 -2.19383e-09 1.64125e-09)
(3.0701e-11 -1.82308e-11 7.38171e-11)
(-1.77241e-11 -8.50152e-11 1.05792e-10)
(1.69984e-11 -8.62545e-11 1.04994e-10)
(-1.97909e-11 -2.88727e-11 7.15636e-11)
(4.50728e-11 -2.88655e-10 2.87615e-10)
(-2.75727e-11 -3.33216e-10 3.44937e-10)
(3.19986e-11 -3.33937e-10 3.42883e-10)
(-2.64955e-11 -2.93078e-10 2.81876e-10)
(2.57656e-11 -5.69563e-10 5.29783e-10)
(-3.79162e-11 -5.88893e-10 5.93455e-10)
(4.42906e-11 -5.8806e-10 5.90477e-10)
(-6.01197e-12 -5.67529e-10 5.21359e-10)
(-2.3746e-12 -8.27035e-10 7.71387e-10)
(-5.27027e-11 -8.505e-10 8.34604e-10)
(5.60892e-11 -8.47697e-10 8.30924e-10)
(1.89264e-11 -8.18744e-10 7.60805e-10)
(-6.92108e-12 -1.0632e-09 9.95642e-10)
(-5.93941e-11 -1.11964e-09 1.05672e-09)
(5.52647e-11 -1.11484e-09 1.05246e-09)
(1.62032e-11 -1.04887e-09 9.8322e-10)
(7.23943e-11 -1.27829e-09 1.18074e-09)
(-3.28975e-11 -1.37757e-09 1.24008e-09)
(1.71093e-11 -1.37093e-09 1.23532e-09)
(-7.42005e-11 -1.25838e-09 1.16669e-09)
(3.21759e-10 -1.53624e-09 1.28735e-09)
(5.02709e-11 -1.6089e-09 1.34662e-09)
(-8.22018e-11 -1.60066e-09 1.34147e-09)
(-3.37837e-10 -1.51113e-09 1.27199e-09)
(7.14394e-10 -2.07561e-09 1.27227e-09)
(1.43335e-10 -1.93448e-09 1.33545e-09)
(-1.97552e-10 -1.92296e-09 1.33018e-09)
(-7.472e-10 -2.03908e-09 1.2563e-09)
(1.82286e-11 -2.88789e-11 6.5011e-11)
(-1.9243e-11 -8.54354e-11 8.01795e-11)
(1.88976e-11 -8.67796e-11 7.96133e-11)
(-6.83712e-12 -3.99763e-11 6.3435e-11)
(2.37801e-11 -3.02618e-10 2.31482e-10)
(-3.21135e-11 -3.40289e-10 2.5768e-10)
(3.80471e-11 -3.41302e-10 2.56238e-10)
(-3.59374e-12 -3.08093e-10 2.27499e-10)
(5.37255e-12 -5.83614e-10 4.17316e-10)
(-4.21801e-11 -6.01371e-10 4.45395e-10)
(5.14732e-11 -6.00917e-10 4.43286e-10)
(1.73488e-11 -5.8289e-10 4.11411e-10)
(-1.7282e-11 -8.2955e-10 6.03535e-10)
(-5.45752e-11 -8.54355e-10 6.30182e-10)
(6.23763e-11 -8.51971e-10 6.27535e-10)
(3.82542e-11 -8.22669e-10 5.95984e-10)
(-1.53919e-11 -1.04016e-09 7.71761e-10)
(-5.86007e-11 -1.09846e-09 7.96205e-10)
(6.03076e-11 -1.0941e-09 7.93093e-10)
(3.04987e-11 -1.02726e-09 7.62749e-10)
(6.80752e-11 -1.22322e-09 9.0058e-10)
(-3.07194e-11 -1.3239e-09 9.23401e-10)
(2.20251e-11 -1.31769e-09 9.19891e-10)
(-6.27804e-11 -1.20472e-09 8.90283e-10)
(3.15041e-10 -1.45616e-09 9.65114e-10)
(5.12613e-11 -1.53277e-09 9.8799e-10)
(-7.50591e-11 -1.52493e-09 9.84186e-10)
(-3.22902e-10 -1.43235e-09 9.53805e-10)
(6.98239e-10 -1.97715e-09 9.48208e-10)
(1.4266e-10 -1.85178e-09 9.74571e-10)
(-1.87955e-10 -1.84058e-09 9.70686e-10)
(-7.21888e-10 -1.94159e-09 9.36468e-10)
(1.67892e-11 -3.19296e-11 5.06754e-11)
(-1.7513e-11 -8.4501e-11 5.7181e-11)
(1.73812e-11 -8.59202e-11 5.68084e-11)
(-5.09584e-12 -4.33373e-11 4.96476e-11)
(2.41133e-11 -3.00193e-10 1.70788e-10)
(-2.88157e-11 -3.36102e-10 1.81003e-10)
(3.5658e-11 -3.37346e-10 1.80054e-10)
(-2.92015e-12 -3.06448e-10 1.68191e-10)
(9.46755e-12 -5.74536e-10 3.0134e-10)
(-3.71868e-11 -5.92859e-10 3.11277e-10)
(4.83168e-11 -5.9272e-10 3.09882e-10)
(1.51554e-11 -5.74842e-10 2.97465e-10)
(-8.49646e-12 -8.10329e-10 4.30773e-10)
(-4.7519e-11 -8.36769e-10 4.39138e-10)
(5.82057e-11 -8.34732e-10 4.37369e-10)
(3.23904e-11 -8.04577e-10 4.25763e-10)
(-1.97755e-12 -1.00678e-09 5.4524e-10)
(-4.95814e-11 -1.06662e-09 5.5188e-10)
(5.52234e-11 -1.06262e-09 5.49779e-10)
(2.10422e-11 -9.9503e-10 5.39189e-10)
(8.41005e-11 -1.17641e-09 6.29333e-10)
(-2.07154e-11 -1.27804e-09 6.34863e-10)
(1.69141e-11 -1.27219e-09 6.32474e-10)
(-7.38814e-11 -1.15902e-09 6.22356e-10)
(3.2899e-10 -1.40181e-09 6.68726e-10)
(6.04707e-11 -1.48073e-09 6.74475e-10)
(-7.85658e-11 -1.47322e-09 6.71878e-10)
(-3.31074e-10 -1.37902e-09 6.61028e-10)
(7.05765e-10 -1.91392e-09 6.56416e-10)
(1.50826e-10 -1.79808e-09 6.64607e-10)
(-1.89781e-10 -1.78715e-09 6.61964e-10)
(-7.22909e-10 -1.87918e-09 6.48442e-10)
(1.72576e-11 -3.22227e-11 3.20204e-11)
(-1.60361e-11 -8.32508e-11 3.46592e-11)
(1.60168e-11 -8.47177e-11 3.44491e-11)
(-5.38882e-12 -4.38242e-11 3.1444e-11)
(2.73461e-11 -2.93977e-10 1.04668e-10)
(-2.56163e-11 -3.29828e-10 1.0828e-10)
(3.29734e-11 -3.31222e-10 1.07744e-10)
(-5.56531e-12 -3.00728e-10 1.03208e-10)
(1.59413e-11 -5.6116e-10 1.81908e-10)
(-3.25068e-11 -5.80472e-10 1.84837e-10)
(4.47107e-11 -5.80545e-10 1.84046e-10)
(9.80973e-12 -5.62145e-10 1.79719e-10)
(1.17212e-12 -7.89614e-10 2.5753e-10)
(-4.14317e-11 -8.17346e-10 2.59347e-10)
(5.38481e-11 -8.15548e-10 2.58336e-10)
(2.44889e-11 -7.84623e-10 2.54679e-10)
(1.04504e-11 -9.79083e-10 3.23456e-10)
(-4.23079e-11 -1.03992e-09 3.24235e-10)
(5.03585e-11 -1.03616e-09 3.23026e-10)
(1.1052e-11 -9.68107e-10 3.19987e-10)
(9.78546e-11 -1.14403e-09 3.70928e-10)
(-1.29029e-11 -1.24614e-09 3.71121e-10)
(1.21474e-11 -1.24053e-09 3.69739e-10)
(-8.45566e-11 -1.1274e-09 3.66902e-10)
(3.41246e-10 -1.36781e-09 3.92585e-10)
(6.77806e-11 -1.44776e-09 3.93008e-10)
(-8.22778e-11 -1.44047e-09 3.91502e-10)
(-3.39676e-10 -1.34573e-09 3.88128e-10)
(7.1399e-10 -1.87535e-09 3.85429e-10)
(1.57489e-10 -1.76433e-09 3.87245e-10)
(-1.92397e-10 -1.75359e-09 3.85717e-10)
(-7.2698e-10 -1.84119e-09 3.80819e-10)
(1.75896e-11 -3.193e-11 1.09317e-11)
(-1.53499e-11 -8.23961e-11 1.16522e-11)
(1.53782e-11 -8.38862e-11 1.15844e-11)
(-5.64017e-12 -4.36251e-11 1.07463e-11)
(2.91021e-11 -2.89735e-10 3.52437e-11)
(-2.40743e-11 -3.25773e-10 3.61321e-11)
(3.16634e-11 -3.2724e-10 3.59589e-11)
(-7.04999e-12 -2.96725e-10 3.47732e-11)
(1.93461e-11 -5.52695e-10 6.07876e-11)
(-3.021e-11 -5.72623e-10 6.13831e-11)
(4.29082e-11 -5.728e-10 6.11266e-11)
(6.9305e-12 -5.54013e-10 6.00805e-11)
(6.13638e-12 -7.77376e-10 8.56073e-11)
(-3.8448e-11 -8.05787e-10 8.58124e-11)
(5.16726e-11 -8.04109e-10 8.54839e-11)
(2.03566e-11 -7.72764e-10 8.46833e-11)
(1.66721e-11 -9.64011e-10 1.07092e-10)
(-3.87793e-11 -1.02533e-09 1.06956e-10)
(4.79696e-11 -1.0217e-09 1.06562e-10)
(5.98981e-12 -9.53427e-10 1.05963e-10)
(1.0461e-10 -1.12764e-09 1.22442e-10)
(-9.14598e-12 -1.22993e-09 1.22128e-10)
(9.84677e-12 -1.22443e-09 1.21676e-10)
(-8.98339e-11 -1.11138e-09 1.21127e-10)
(3.47228e-10 -1.3513e-09 1.29385e-10)
(7.12931e-11 -1.43159e-09 1.29166e-10)
(-8.40547e-11 -1.42441e-09 1.28673e-10)
(-3.4389e-10 -1.32958e-09 1.27927e-10)
(7.18009e-10 -1.85691e-09 1.27052e-10)
(1.60681e-10 -1.7478e-09 1.27283e-10)
(-1.93622e-10 -1.73716e-09 1.26783e-10)
(-7.28976e-10 -1.82305e-09 1.25545e-10)
)
;

boundaryField
{
    interface
    {
        type            calculated;
        value           nonuniform List<vector> 
192
(
(4.22904e-10 7.16385e-10 4.31324e-10)
(6.82704e-10 3.28906e-10 9.26929e-10)
(7.10869e-10 -6.13986e-11 1.27365e-09)
(6.83995e-10 -3.82998e-10 1.58392e-09)
(6.78764e-10 -6.83784e-10 1.90452e-09)
(7.54973e-10 -1.00575e-09 2.2716e-09)
(9.91416e-10 -1.507e-09 2.71916e-09)
(1.52017e-09 -2.60806e-09 3.17419e-09)
(8.24804e-11 2.63922e-10 6.72513e-11)
(2.16376e-10 -3.34084e-11 3.80585e-10)
(2.17125e-10 -3.43415e-10 7.07117e-10)
(1.79657e-10 -6.35654e-10 1.01011e-09)
(1.60801e-10 -9.22902e-10 1.3101e-09)
(2.18951e-10 -1.20751e-09 1.625e-09)
(4.39676e-10 -1.57118e-09 1.92688e-09)
(9.90191e-10 -2.36169e-09 2.07243e-09)
(-5.85964e-11 6.82986e-11 3.69854e-11)
(-5.508e-12 -2.19844e-10 2.73907e-10)
(-2.06101e-11 -5.1162e-10 5.63442e-10)
(-5.61237e-11 -7.81395e-10 8.49839e-10)
(-7.20328e-11 -1.02888e-09 1.12445e-09)
(-1.03969e-11 -1.23817e-09 1.37727e-09)
(2.15656e-10 -1.47887e-09 1.55771e-09)
(7.50851e-10 -2.12315e-09 1.5686e-09)
(-1.10054e-10 7.11932e-13 5.80625e-11)
(-9.10007e-11 -2.8989e-10 2.59254e-10)
(-1.11762e-10 -5.81427e-10 4.99854e-10)
(-1.41601e-10 -8.35209e-10 7.44048e-10)
(-1.49602e-10 -1.04451e-09 9.71497e-10)
(-8.06689e-11 -1.19612e-09 1.15864e-09)
(1.4836e-10 -1.37575e-09 1.26397e-09)
(6.65819e-10 -1.96826e-09 1.24336e-09)
(-1.24285e-10 -1.83774e-11 6.15351e-11)
(-1.12157e-10 -3.05834e-10 2.26244e-10)
(-1.31095e-10 -5.93881e-10 4.13243e-10)
(-1.54525e-10 -8.34743e-10 6.02006e-10)
(-1.54826e-10 -1.01882e-09 7.72998e-10)
(-7.98833e-11 -1.14061e-09 9.03509e-10)
(1.49454e-10 -1.29862e-09 9.66924e-10)
(6.5252e-10 -1.87032e-09 9.46052e-10)
(-1.26363e-10 -2.17045e-11 5.04339e-11)
(-1.12042e-10 -3.02025e-10 1.71681e-10)
(-1.26671e-10 -5.8269e-10 3.03983e-10)
(-1.44666e-10 -8.13192e-10 4.35388e-10)
(-1.39439e-10 -9.83637e-10 5.51702e-10)
(-6.08494e-11 -1.09367e-09 6.36779e-10)
(1.67641e-10 -1.24639e-09 6.75278e-10)
(6.60544e-10 -1.80765e-09 6.60355e-10)
(-1.25877e-10 -2.10723e-11 3.22212e-11)
(-1.08687e-10 -2.94308e-10 1.05916e-10)
(-1.19761e-10 -5.67705e-10 1.84378e-10)
(-1.34078e-10 -7.90989e-10 2.61189e-10)
(-1.25544e-10 -9.54914e-10 3.28119e-10)
(-4.50961e-11 -1.06134e-09 3.76056e-10)
(1.82429e-10 -1.21378e-09 3.97145e-10)
(6.68924e-10 -1.76962e-09 3.8849e-10)
(-1.25411e-10 -2.02575e-11 1.1015e-11)
(-1.0676e-10 -2.89298e-10 3.5683e-11)
(-1.16038e-10 -5.58438e-10 6.16391e-11)
(-1.28564e-10 -7.78047e-10 8.68486e-11)
(-1.1852e-10 -9.39395e-10 1.08647e-10)
(-3.73179e-11 -1.045e-09 1.24131e-10)
(1.8963e-10 -1.19795e-09 1.3088e-10)
(6.7302e-10 -1.75151e-09 1.28057e-10)
(4.60951e-10 7.99489e-10 3.94804e-10)
(7.67137e-10 4.71749e-10 8.91448e-10)
(7.9669e-10 1.05771e-10 1.24705e-09)
(7.60961e-10 -2.16158e-10 1.56547e-09)
(7.50342e-10 -5.32768e-10 1.88829e-09)
(8.34582e-10 -8.90988e-10 2.2423e-09)
(1.10277e-09 -1.45153e-09 2.6533e-09)
(1.52599e-09 -2.61067e-09 3.2109e-09)
(6.50406e-11 5.50255e-10 2.28911e-10)
(1.46394e-10 3.30947e-10 6.91914e-10)
(1.54769e-10 5.23872e-11 1.03191e-09)
(1.32562e-10 -2.53596e-10 1.32788e-09)
(1.17397e-10 -6.00641e-10 1.62159e-09)
(1.40722e-10 -9.98949e-10 1.94326e-09)
(2.29103e-10 -1.51837e-09 2.3348e-09)
(3.3546e-10 -2.4565e-09 2.94543e-09)
(-7.74638e-11 5.43739e-10 2.19415e-10)
(-1.67182e-10 3.27433e-10 6.80754e-10)
(-1.83059e-10 5.21549e-11 1.01907e-09)
(-1.71316e-10 -2.50935e-10 1.31375e-09)
(-1.69778e-10 -5.95489e-10 1.60641e-09)
(-2.09872e-10 -9.91666e-10 1.92706e-09)
(-3.18914e-10 -1.50921e-09 2.31733e-09)
(-4.51846e-10 -2.44303e-09 2.92567e-09)
(-4.56944e-10 7.74227e-10 3.63778e-10)
(-7.66372e-10 4.61392e-10 8.54897e-10)
(-8.03595e-10 1.06569e-10 1.20514e-09)
(-7.78372e-10 -2.06902e-10 1.51966e-09)
(-7.81222e-10 -5.16323e-10 1.83947e-09)
(-8.82034e-10 -8.68259e-10 2.19086e-09)
(-1.16967e-09 -1.42308e-09 2.59929e-09)
(-1.61479e-09 -2.56946e-09 3.15305e-09)
(-3.57978e-10 6.96102e-10 4.16777e-10)
(-6.17785e-10 3.23573e-10 9.01028e-10)
(-6.50792e-10 -5.49043e-11 1.24213e-09)
(-6.3191e-10 -3.66933e-10 1.54854e-09)
(-6.37849e-10 -6.59164e-10 1.86606e-09)
(-7.28081e-10 -9.7337e-10 2.23052e-09)
(-9.79616e-10 -1.46738e-09 2.67534e-09)
(-1.5153e-09 -2.55462e-09 3.12677e-09)
(-2.60014e-11 2.47935e-10 6.19663e-11)
(-1.57968e-10 -3.69019e-11 3.66866e-10)
(-1.61127e-10 -3.36923e-10 6.87997e-10)
(-1.29683e-10 -6.20361e-10 9.87219e-10)
(-1.2028e-10 -8.99416e-10 1.28412e-09)
(-1.9091e-10 -1.17656e-09 1.59615e-09)
(-4.25424e-10 -1.53356e-09 1.89521e-09)
(-9.81277e-10 -2.31156e-09 2.0386e-09)
(1.12921e-10 5.16165e-11 3.3436e-11)
(6.43571e-11 -2.24511e-10 2.64325e-10)
(7.9507e-11 -5.06834e-10 5.49237e-10)
(1.11174e-10 -7.68128e-10 8.32063e-10)
(1.19647e-10 -1.00758e-09 1.10368e-09)
(4.75149e-11 -1.20956e-09 1.35379e-09)
(-1.90417e-10 -1.44379e-09 1.53185e-09)
(-7.29814e-10 -2.07522e-09 1.54125e-09)
(1.63819e-10 -1.73007e-11 5.55005e-11)
(1.5077e-10 -2.96521e-10 2.5248e-10)
(1.73433e-10 -5.78882e-10 4.89567e-10)
(2.0133e-10 -8.24295e-10 7.30769e-10)
(2.03757e-10 -1.02558e-09 9.55598e-10)
(1.2615e-10 -1.16986e-09 1.14042e-09)
(-1.13035e-10 -1.34288e-09 1.24382e-09)
(-6.33555e-10 -1.92195e-09 1.22207e-09)
(1.77781e-10 -3.73682e-11 5.9758e-11)
(1.72684e-10 -3.14138e-10 2.21601e-10)
(1.94848e-10 -5.93349e-10 4.06115e-10)
(2.1782e-10 -8.25953e-10 5.92614e-10)
(2.14071e-10 -1.002e-09 7.61536e-10)
(1.31939e-10 -1.11636e-09 8.90201e-10)
(-1.06185e-10 -1.26757e-09 9.52112e-10)
(-6.1134e-10 -1.82541e-09 9.30393e-10)
(1.79771e-10 -4.1333e-11 4.92834e-11)
(1.73154e-10 -3.11509e-10 1.68682e-10)
(1.91903e-10 -5.83667e-10 2.99347e-10)
(2.10495e-10 -8.06044e-10 4.29202e-10)
(2.02338e-10 -9.68456e-10 5.44048e-10)
(1.17661e-10 -1.07098e-09 6.27798e-10)
(-1.18606e-10 -1.21675e-09 6.6522e-10)
(-6.12853e-10 -1.76388e-09 6.49713e-10)
(1.79291e-10 -4.10853e-11 3.15789e-11)
(1.70204e-10 -3.04526e-10 1.04239e-10)
(1.85946e-10 -5.69656e-10 1.81774e-10)
(2.01524e-10 -7.84929e-10 2.57686e-10)
(1.90785e-10 -9.40839e-10 3.23749e-10)
(1.04971e-10 -1.0397e-09 3.7089e-10)
(-1.29666e-10 -1.18511e-09 3.91331e-10)
(-6.16997e-10 -1.72666e-09 3.82335e-10)
(1.78844e-10 -4.04523e-11 1.08088e-11)
(1.68482e-10 -2.99866e-10 3.51438e-11)
(1.82691e-10 -5.60861e-10 6.07999e-11)
(1.96799e-10 -7.72525e-10 8.5716e-11)
(1.84902e-10 -9.25873e-10 1.07228e-10)
(9.86891e-11 -1.0239e-09 1.22446e-10)
(-1.35039e-10 -1.16979e-09 1.2898e-10)
(-6.19005e-10 -1.70898e-09 1.26044e-10)
(1.52497e-09 -2.6446e-09 3.28211e-09)
(1.09996e-09 -2.29608e-09 2.12283e-09)
(8.27895e-10 -2.09502e-09 1.56263e-09)
(7.32778e-10 -1.95502e-09 1.20869e-09)
(7.20303e-10 -1.8582e-09 9.07787e-10)
(7.29934e-10 -1.79368e-09 6.30967e-10)
(7.39092e-10 -1.75395e-09 3.71175e-10)
(7.43423e-10 -1.73496e-09 1.22441e-10)
(3.34584e-10 -2.37698e-09 3.13015e-09)
(2.26359e-10 -1.97571e-09 2.19259e-09)
(1.34926e-10 -1.79423e-09 1.67481e-09)
(1.0516e-10 -1.68537e-09 1.28068e-09)
(1.08506e-10 -1.6135e-09 9.40472e-10)
(1.19121e-10 -1.56409e-09 6.42743e-10)
(1.27035e-10 -1.53202e-09 3.74675e-10)
(1.30731e-10 -1.51609e-09 1.23152e-10)
(-4.52407e-10 -2.35566e-09 3.11802e-09)
(-3.21337e-10 -1.95647e-09 2.18458e-09)
(-2.13477e-10 -1.77593e-09 1.66829e-09)
(-1.71416e-10 -1.66764e-09 1.27559e-09)
(-1.65516e-10 -1.59614e-09 9.36735e-10)
(-1.69521e-10 -1.54699e-09 6.40215e-10)
(-1.73195e-10 -1.5151e-09 3.73219e-10)
(-1.74823e-10 -1.49926e-09 1.22677e-10)
(-1.61535e-09 -2.58189e-09 3.24513e-09)
(-1.17199e-09 -2.23663e-09 2.09817e-09)
(-8.84386e-10 -2.03727e-09 1.54273e-09)
(-7.76746e-10 -1.89851e-09 1.19324e-09)
(-7.54744e-10 -1.80262e-09 8.96493e-10)
(-7.57569e-10 -1.73879e-09 6.23341e-10)
(-7.62358e-10 -1.69956e-09 3.66788e-10)
(-7.64556e-10 -1.68082e-09 1.2101e-10)
)
;
    }
    symmetry
    {
        type            symmetry;
    }
    bottom
    {
        type            calculated;
        value           uniform (0 0 0);
    }
}


// ************************************************************************* //
