/*--------------------------------*- C++ -*----------------------------------*\
| =========                 |                                                 |
| \\      /  F ield         | OpenFOAM: The Open Source CFD Toolbox           |
|  \\    /   O peration     | Version:  v1912                                 |
|   \\  /    A nd           | Website:  www.openfoam.com                      |
|    \\/     M anipulation  |                                                 |
\*---------------------------------------------------------------------------*/
FoamFile
{
    version     2.0;
    format      ascii;
    class       volScalarField;
    location    "0.36/solid";
    object      epsilonEq;
}
// * * * * * * * * * * * * * * * * * * * * * * * * * * * * * * * * * * * * * //

dimensions      [0 0 0 0 0 0 0];


internalField   nonuniform List<scalar> 
256
(
2.45102e-06
1.86662e-06
1.84799e-06
2.37283e-06
1.59867e-06
1.4778e-06
1.45915e-06
1.53026e-06
1.64066e-06
1.45913e-06
1.4403e-06
1.5733e-06
1.72638e-06
1.49463e-06
1.47595e-06
1.65985e-06
1.80876e-06
1.55755e-06
1.53894e-06
1.74259e-06
1.87917e-06
1.63819e-06
1.61952e-06
1.81309e-06
1.69083e-06
1.61579e-06
1.5986e-06
1.62992e-06
1.41452e-07
1.78803e-06
1.77414e-06
1.53621e-07
1.63799e-06
3.51338e-07
3.43219e-07
1.55376e-06
1.31588e-06
3.305e-07
3.21906e-07
1.23706e-06
1.31767e-06
2.65523e-07
2.58227e-07
1.23933e-06
1.35115e-06
2.10571e-07
2.04329e-07
1.27224e-06
1.40657e-06
1.89982e-07
1.84329e-07
1.32658e-06
1.48462e-06
1.85821e-07
1.80526e-07
1.40372e-06
1.46577e-06
2.75064e-08
3.44261e-08
1.38841e-06
1.69032e-06
1.6166e-06
1.59977e-06
1.63045e-06
1.44577e-06
1.97509e-07
1.92056e-07
1.36658e-06
1.27242e-06
2.3101e-07
2.21553e-07
1.19521e-06
1.28428e-06
1.9764e-07
1.88088e-07
1.20557e-06
1.31522e-06
1.54131e-07
1.44477e-07
1.23496e-06
1.3694e-06
1.35199e-07
1.25325e-07
1.28733e-06
1.45364e-06
1.38625e-07
1.28835e-07
1.36997e-06
1.48369e-06
1.79835e-07
1.75886e-07
1.40341e-06
1.87888e-06
1.64002e-06
1.62205e-06
1.81534e-06
1.31943e-06
1.70787e-07
1.6602e-07
1.24562e-06
1.1805e-06
1.99425e-07
1.91205e-07
1.10765e-06
1.19863e-06
1.75228e-07
1.66441e-07
1.1232e-06
1.23028e-06
1.39557e-07
1.30428e-07
1.1526e-06
1.28365e-06
1.23159e-07
1.13619e-07
1.20367e-06
1.36739e-06
1.27504e-07
1.17894e-07
1.28538e-06
1.4042e-06
1.72963e-07
1.69526e-07
1.3253e-06
1.81349e-06
1.56263e-06
1.54512e-06
1.75183e-06
1.24595e-06
1.54745e-07
1.49574e-07
1.17591e-06
1.11685e-06
1.81219e-07
1.73744e-07
1.04723e-06
1.13854e-06
1.61982e-07
1.53983e-07
1.06591e-06
1.17173e-06
1.31134e-07
1.22662e-07
1.09637e-06
1.22544e-06
1.17072e-07
1.08028e-07
1.14742e-06
1.30874e-06
1.2209e-07
1.12881e-07
1.22839e-06
1.34657e-06
1.65046e-07
1.62312e-07
1.2692e-06
1.74909e-06
1.50435e-06
1.48725e-06
1.68929e-06
1.20304e-06
1.44951e-07
1.39391e-07
1.13547e-06
1.07803e-06
1.70934e-07
1.63831e-07
1.01052e-06
1.10154e-06
1.54628e-07
1.47123e-07
1.03081e-06
1.13589e-06
1.26435e-07
1.18422e-07
1.06216e-06
1.19009e-06
1.13671e-07
1.04979e-07
1.11344e-06
1.27312e-06
1.19506e-07
1.10613e-07
1.19395e-06
1.31099e-06
1.61919e-07
1.59721e-07
1.23473e-06
1.70636e-06
1.46691e-06
1.4501e-06
1.64796e-06
1.17875e-06
1.39188e-07
1.33385e-07
1.11269e-06
1.05586e-06
1.65098e-07
1.5819e-07
9.89632e-07
1.08021e-06
1.50296e-07
1.43058e-07
1.01066e-06
1.11524e-06
1.23515e-07
1.15777e-07
1.04254e-06
1.16972e-06
1.11327e-07
1.02864e-07
1.09396e-06
1.25258e-06
1.17702e-07
1.09022e-07
1.17416e-06
1.29035e-06
1.60642e-07
1.58803e-07
1.21482e-06
1.68117e-06
1.44473e-06
1.42811e-06
1.6237e-06
1.16766e-06
1.36463e-07
1.30544e-07
1.10231e-06
1.04573e-06
1.62362e-07
1.55543e-07
9.80118e-07
1.07041e-06
1.48181e-07
1.41062e-07
1.00143e-06
1.10573e-06
1.22017e-07
1.14409e-07
1.03354e-06
1.16033e-06
1.10052e-07
1.01706e-07
1.085e-06
1.24309e-06
1.16666e-07
1.08094e-07
1.16503e-06
1.28081e-06
1.60139e-07
1.58482e-07
1.20564e-06
1.66955e-06
1.43443e-06
1.41789e-06
1.61254e-06
)
;

boundaryField
{
    interface
    {
        type            calculated;
        value           nonuniform List<scalar> 
192
(
3.29343e-06
2.3724e-06
2.43455e-06
2.54981e-06
2.66832e-06
2.79143e-06
2.69006e-06
1.44496e-06
2.76347e-06
2.34302e-06
2.36695e-06
2.44323e-06
2.55302e-06
2.70872e-06
2.79626e-06
2.69003e-06
2.47039e-06
2.21452e-06
2.24741e-06
2.3182e-06
2.42485e-06
2.58488e-06
2.70929e-06
2.79259e-06
2.2647e-06
2.05197e-06
2.09185e-06
2.16221e-06
2.26696e-06
2.42541e-06
2.55533e-06
2.67622e-06
2.14309e-06
1.94386e-06
1.98744e-06
2.05883e-06
2.16338e-06
2.32069e-06
2.45093e-06
2.5798e-06
2.07134e-06
1.87797e-06
1.92331e-06
1.99563e-06
2.10037e-06
2.25692e-06
2.38634e-06
2.51704e-06
2.03058e-06
1.84023e-06
1.88636e-06
1.95924e-06
2.06413e-06
2.22013e-06
2.34873e-06
2.47997e-06
2.01198e-06
1.82297e-06
1.8694e-06
1.94253e-06
2.04748e-06
2.2032e-06
2.33133e-06
2.46279e-06
3.40879e-06
2.50038e-06
2.56315e-06
2.67988e-06
2.80009e-06
2.92576e-06
2.83839e-06
1.69259e-06
3.12837e-06
2.62993e-06
2.6346e-06
2.71248e-06
2.82878e-06
2.9877e-06
3.07477e-06
2.92823e-06
3.09564e-06
2.59645e-06
2.60008e-06
2.67766e-06
2.7938e-06
2.95244e-06
3.04034e-06
2.902e-06
3.30923e-06
2.41147e-06
2.47332e-06
2.58979e-06
2.70981e-06
2.83496e-06
2.75115e-06
1.65471e-06
3.17619e-06
2.26041e-06
2.32246e-06
2.43769e-06
2.55601e-06
2.67923e-06
2.58372e-06
1.38402e-06
2.62635e-06
2.21013e-06
2.23273e-06
2.30694e-06
2.41439e-06
2.56815e-06
2.65943e-06
2.58423e-06
2.33843e-06
2.08347e-06
2.11351e-06
2.18133e-06
2.28476e-06
2.44172e-06
2.56861e-06
2.68181e-06
2.13938e-06
1.9263e-06
1.96239e-06
2.02911e-06
2.13007e-06
2.28478e-06
2.41629e-06
2.5665e-06
2.02259e-06
1.8223e-06
1.86161e-06
1.9289e-06
2.02924e-06
2.18239e-06
2.31368e-06
2.4715e-06
1.95398e-06
1.7591e-06
1.79992e-06
1.86785e-06
1.9681e-06
2.12018e-06
2.25033e-06
2.40979e-06
1.91511e-06
1.72298e-06
1.76447e-06
1.8328e-06
1.93303e-06
2.08438e-06
2.21351e-06
2.37343e-06
1.89739e-06
1.7065e-06
1.74823e-06
1.81674e-06
1.91694e-06
2.06792e-06
2.19648e-06
2.35661e-06
1.69353e-06
2.8387e-06
2.92699e-06
2.80819e-06
2.71082e-06
2.64728e-06
2.60967e-06
2.59222e-06
2.92894e-06
3.07634e-06
2.99149e-06
2.83844e-06
2.73316e-06
2.66651e-06
2.62706e-06
2.60866e-06
2.90263e-06
3.04204e-06
2.95654e-06
2.80399e-06
2.69906e-06
2.63264e-06
2.59333e-06
2.57501e-06
1.65522e-06
2.75195e-06
2.8379e-06
2.72118e-06
2.62557e-06
2.56332e-06
2.52658e-06
2.50956e-06
)
;
    }
    symmetry
    {
        type            symmetry;
    }
    bottom
    {
        type            calculated;
        value           nonuniform List<scalar> 
32
(
3.30154e-06
1.96828e-06
1.66769e-06
1.5244e-06
1.44521e-06
1.39858e-06
1.37199e-06
1.35982e-06
2.23045e-06
4.34225e-07
2.20267e-07
1.96077e-07
1.84107e-07
1.75592e-07
1.70174e-07
1.67557e-07
2.21132e-06
4.23778e-07
2.11307e-07
1.87753e-07
1.75516e-07
1.66774e-07
1.61229e-07
1.58555e-07
3.21535e-06
1.87851e-06
1.58433e-06
1.44784e-06
1.37345e-06
1.32997e-06
1.30527e-06
1.29399e-06
)
;
    }
}


// ************************************************************************* //
