/*--------------------------------*- C++ -*----------------------------------*\
| =========                 |                                                 |
| \\      /  F ield         | OpenFOAM: The Open Source CFD Toolbox           |
|  \\    /   O peration     | Version:  v1912                                 |
|   \\  /    A nd           | Website:  www.openfoam.com                      |
|    \\/     M anipulation  |                                                 |
\*---------------------------------------------------------------------------*/
FoamFile
{
    version     2.0;
    format      ascii;
    class       volSymmTensorField;
    location    "0.36/solid";
    object      epsilon;
}
// * * * * * * * * * * * * * * * * * * * * * * * * * * * * * * * * * * * * * //

dimensions      [0 0 0 0 0 0 0];


internalField   nonuniform List<symmTensor> 
256
(
(-2.59658e-06 8.76994e-08 -3.19941e-08 9.99438e-07 8.94725e-08 -2.73976e-06)
(-3.27557e-07 -6.55201e-08 -1.20003e-08 6.44492e-07 9.15195e-08 -2.50471e-06)
(-3.23555e-07 8.48257e-08 1.21633e-08 6.32501e-07 9.38302e-08 -2.48179e-06)
(-2.51198e-06 -7.71013e-08 3.2979e-08 9.5356e-07 9.7993e-08 -2.67944e-06)
(-2.57517e-06 -1.3034e-08 -4.52961e-08 -2.46774e-07 -1.26702e-08 -2.70605e-06)
(-5.30625e-07 -2.50542e-08 -1.87269e-08 -6.39946e-08 -6.9035e-09 -2.47615e-06)
(-5.25601e-07 4.0535e-08 1.97505e-08 -7.49994e-08 -5.2845e-09 -2.45253e-06)
(-2.48744e-06 1.9781e-08 4.70485e-08 -2.77949e-07 -6.84799e-09 -2.6474e-06)
(-2.61778e-06 -1.75827e-08 -4.80317e-08 -2.25537e-07 -1.9837e-08 -2.74653e-06)
(-5.3627e-07 -1.3923e-08 -2.02974e-08 -1.27412e-07 -1.84788e-08 -2.49104e-06)
(-5.3161e-07 2.56809e-08 2.16925e-08 -1.37611e-07 -1.73833e-08 -2.46693e-06)
(-2.52886e-06 2.24587e-08 4.99989e-08 -2.54004e-07 -1.5803e-08 -2.68696e-06)
(-2.67276e-06 -7.44025e-09 -4.92815e-08 -1.56063e-07 -1.1676e-08 -2.81002e-06)
(-5.06462e-07 -7.38162e-09 -2.08469e-08 -1.38874e-07 -1.13491e-08 -2.54147e-06)
(-5.02028e-07 1.60513e-08 2.22687e-08 -1.48238e-07 -1.05304e-08 -2.51716e-06)
(-2.58277e-06 1.10801e-08 5.12925e-08 -1.82435e-07 -8.60697e-09 -2.74983e-06)
(-2.75769e-06 3.45485e-10 -4.9688e-08 -1.21339e-07 -2.99242e-09 -2.90272e-06)
(-4.93494e-07 -2.68644e-09 -2.09914e-08 -1.38021e-07 -2.43383e-09 -2.63142e-06)
(-4.89089e-07 8.82449e-09 2.23448e-08 -1.46994e-07 -1.73851e-09 -2.60697e-06)
(-2.66686e-06 2.23809e-09 5.17122e-08 -1.46527e-07 -4.29129e-10 -2.84208e-06)
(-2.89432e-06 9.0107e-09 -4.92338e-08 -1.53413e-07 8.39718e-09 -3.0415e-06)
(-5.09795e-07 1.69044e-09 -2.076e-08 -1.65052e-07 9.21574e-09 -2.77618e-06)
(-5.05581e-07 2.06387e-09 2.20888e-08 -1.73877e-07 9.89013e-09 -2.7516e-06)
(-2.80376e-06 -7.68399e-09 5.13018e-08 -1.78303e-07 1.07481e-08 -2.98041e-06)
(-3.09282e-06 2.91143e-08 -4.78158e-08 -6.36003e-07 3.00823e-08 -3.24045e-06)
(-5.69366e-07 9.20933e-09 -2.01025e-08 -5.78947e-07 3.16483e-08 -2.99691e-06)
(-5.66345e-07 -8.4943e-09 2.15372e-08 -5.84964e-07 3.2372e-08 -2.97251e-06)
(-3.00664e-06 -2.96806e-08 4.99625e-08 -6.55466e-07 3.23685e-08 -3.17945e-06)
(-3.37355e-06 4.55551e-08 -4.51079e-08 -3.53248e-06 4.9992e-08 -3.53207e-06)
(-6.72882e-07 1.95184e-08 -1.89244e-08 -3.35348e-06 5.25402e-08 -3.35245e-06)
(-6.72206e-07 -2.009e-08 2.04604e-08 -3.33195e-06 5.32074e-08 -3.33076e-06)
(-3.2999e-06 -4.70943e-08 4.71807e-08 -3.47814e-06 5.18659e-08 -3.47772e-06)
(-2.22398e-06 6.28628e-08 -2.29311e-08 5.41213e-07 -8.94545e-08 -3.27011e-07)
(-2.53394e-07 -6.55875e-08 -3.88046e-09 2.37007e-07 -4.58061e-08 -2.87696e-07)
(-2.47743e-07 7.55888e-08 5.72254e-09 2.23885e-07 -4.03604e-08 -2.87789e-07)
(-2.12997e-06 -5.57595e-08 2.42402e-08 4.94738e-07 -7.24627e-08 -3.29557e-07)
(-2.22356e-06 -1.52558e-08 -3.15736e-08 -8.12574e-08 -3.23459e-08 -4.83817e-07)
(-4.18867e-07 -2.61015e-08 -8.75775e-09 7.01467e-08 -1.16674e-08 -4.26819e-07)
(-4.11867e-07 3.33943e-08 1.20738e-08 5.84461e-08 -8.08193e-09 -4.28263e-07)
(-2.12767e-06 1.8432e-08 3.3668e-08 -1.13904e-07 -2.04068e-08 -4.91414e-07)
(-2.2494e-06 -1.81343e-08 -3.18837e-08 -1.12154e-07 -2.5729e-08 -4.91777e-07)
(-4.19737e-07 -1.55793e-08 -9.08924e-09 -2.8825e-08 -1.8919e-08 -4.29151e-07)
(-4.13108e-07 2.07192e-08 1.27757e-08 -3.87016e-08 -1.63141e-08 -4.31627e-07)
(-2.15212e-06 2.01349e-08 3.41438e-08 -1.40163e-07 -1.66885e-08 -5.02465e-07)
(-2.29413e-06 -8.23432e-09 -3.1912e-08 -1.06078e-07 -2.3078e-08 -4.845e-07)
(-3.90026e-07 -9.06863e-09 -8.74998e-09 -9.25113e-08 -2.05347e-08 -4.19138e-07)
(-3.83505e-07 1.25902e-08 1.23251e-08 -1.01405e-07 -1.8446e-08 -4.22181e-07)
(-2.19503e-06 9.69275e-09 3.41641e-08 -1.31697e-07 -1.57619e-08 -4.96808e-07)
(-2.3765e-06 -3.98692e-12 -3.20072e-08 -1.00965e-07 -1.32037e-08 -4.875e-07)
(-3.77787e-07 -4.09004e-09 -8.64043e-09 -1.18462e-07 -1.18596e-08 -4.21551e-07)
(-3.71112e-07 6.208e-09 1.20209e-08 -1.27039e-07 -1.00483e-08 -4.2491e-07)
(-2.27533e-06 9.13783e-10 3.42385e-08 -1.25505e-07 -6.96092e-09 -5.007e-07)
(-2.52008e-06 9.55652e-09 -3.15199e-08 -1.30451e-07 1.33924e-09 -5.04769e-07)
(-3.96419e-07 8.20375e-10 -8.37811e-09 -1.42189e-07 2.01474e-09 -4.39574e-07)
(-3.89743e-07 -1.82789e-10 1.16489e-08 -1.50519e-07 3.6324e-09 -4.43219e-07)
(-2.41745e-06 -9.53455e-09 3.37719e-08 -1.5439e-07 6.79082e-09 -5.1875e-07)
(-2.7437e-06 3.07186e-08 -3.01176e-08 -5.44373e-07 1.47862e-08 -5.4855e-07)
(-4.60513e-07 8.91765e-09 -7.82049e-09 -4.83731e-07 1.53144e-08 -4.85252e-07)
(-4.5494e-07 -1.02222e-08 1.09124e-08 -4.88742e-07 1.66206e-08 -4.89453e-07)
(-2.64363e-06 -3.2233e-08 3.23288e-08 -5.61649e-07 1.91357e-08 -5.63911e-07)
(-3.09353e-06 4.80809e-08 -2.82293e-08 -3.24023e-06 3.06569e-08 -6.36991e-07)
(-5.69853e-07 2.04505e-08 -7.5662e-09 -2.99774e-06 3.20603e-08 -5.77695e-07)
(-5.66907e-07 -2.13114e-08 9.60041e-09 -2.97353e-06 3.27467e-08 -5.82933e-07)
(-3.00703e-06 -4.99231e-08 2.98877e-08 -3.1794e-06 3.2776e-08 -6.54835e-07)
(-1.96248e-06 4.73405e-08 -1.05625e-08 3.67937e-07 -2.30832e-09 -8.05954e-09)
(-2.03479e-07 -6.92859e-08 3.43302e-11 9.8796e-08 3.23679e-08 -1.1115e-08)
(-1.97772e-07 7.40818e-08 1.84329e-09 8.6524e-08 3.67455e-08 -1.26168e-08)
(-1.87031e-06 -4.24499e-08 1.12692e-08 3.26431e-07 1.11887e-08 -1.2631e-08)
(-1.99525e-06 -1.46738e-08 -1.28948e-08 -9.00812e-08 8.61969e-09 -8.38939e-08)
(-3.4394e-07 -2.6969e-08 -1.36097e-09 4.25705e-08 2.6104e-08 -8.90597e-08)
(-3.36563e-07 3.0091e-08 4.57288e-09 3.10775e-08 2.97698e-08 -9.24501e-08)
(-1.90002e-06 1.6207e-08 1.42196e-08 -1.22136e-07 2.02771e-08 -9.40581e-08)
(-2.0234e-06 -1.70502e-08 -1.14203e-08 -8.24794e-08 -2.54286e-10 -1.12503e-07)
(-3.44295e-07 -1.59793e-08 -8.31642e-10 -1.05229e-08 6.13066e-09 -1.18633e-07)
(-3.37129e-07 1.77527e-08 4.17875e-09 -2.03301e-08 9.18468e-09 -1.23261e-07)
(-1.92633e-06 1.771e-08 1.28556e-08 -1.1071e-07 9.64459e-09 -1.26284e-07)
(-2.06534e-06 -8.27951e-09 -1.06438e-08 -7.30676e-08 -7.95042e-09 -1.12913e-07)
(-3.16453e-07 -9.78267e-09 -2.50488e-10 -6.3047e-08 -5.40514e-09 -1.19637e-07)
(-3.0928e-07 1.06915e-08 3.34852e-09 -7.18755e-08 -2.78015e-09 -1.2504e-07)
(-1.96604e-06 8.70358e-09 1.2014e-08 -9.89531e-08 5.88468e-10 -1.28952e-07)
(-2.14527e-06 -9.29235e-11 -1.05386e-08 -7.17024e-08 -5.91995e-09 -1.11441e-07)
(-3.05397e-07 -4.7521e-09 -1.39458e-10 -9.02252e-08 -4.6561e-09 -1.18625e-07)
(-2.97954e-07 4.95513e-09 2.96824e-09 -9.86917e-08 -2.34236e-09 -1.24544e-07)
(-2.04333e-06 2.593e-10 1.18322e-08 -9.63491e-08 1.53442e-09 -1.28969e-07)
(-2.28948e-06 1.02111e-08 -1.02891e-08 -9.90647e-08 1.87088e-09 -1.19431e-07)
(-3.26454e-07 6.64432e-10 -7.04709e-11 -1.11051e-07 2.3443e-09 -1.26984e-07)
(-3.18902e-07 -1.27039e-09 2.68235e-09 -1.19166e-07 4.34056e-09 -1.33346e-07)
(-2.18518e-06 -1.06632e-08 1.15294e-08 -1.22794e-07 8.25827e-09 -1.38197e-07)
(-2.52061e-06 3.20427e-08 -9.39195e-09 -4.9521e-07 5.72708e-09 -1.39376e-07)
(-3.95323e-07 9.26707e-09 1.84976e-10 -4.33322e-07 5.9912e-09 -1.47268e-07)
(-3.8881e-07 -1.11507e-08 1.97103e-09 -4.38017e-07 7.46046e-09 -1.5411e-07)
(-2.41758e-06 -3.37808e-08 1.04755e-08 -5.11987e-07 1.05126e-08 -1.59427e-07)
(-2.89583e-06 4.94142e-08 -8.34622e-09 -3.04071e-06 1.08354e-08 -1.54139e-07)
(-5.09456e-07 2.09836e-08 1.62398e-10 -2.77715e-06 1.13358e-08 -1.62343e-07)
(-5.05568e-07 -2.19158e-08 4.54704e-10 -2.75281e-06 1.19027e-08 -1.69581e-07)
(-2.8047e-06 -5.13085e-08 8.76575e-09 -2.9801e-06 1.27027e-08 -1.7521e-07)
(-1.80485e-06 3.99137e-08 -4.59398e-09 3.05747e-07 2.35567e-08 5.13544e-09)
(-1.79265e-07 -7.00892e-08 1.50581e-09 5.64733e-08 4.38853e-08 -2.85814e-09)
(-1.74222e-07 7.19692e-08 2.3183e-10 4.53817e-08 4.71137e-08 -4.0154e-09)
(-1.71643e-06 -3.66163e-08 5.08105e-09 2.69319e-07 3.34688e-08 1.82616e-09)
(-1.84476e-06 -1.38655e-08 -5.23296e-09 -1.19019e-07 2.70952e-08 -3.36862e-08)
(-3.06831e-07 -2.70332e-08 1.86893e-09 3.75285e-09 3.79443e-08 -4.85163e-08)
(-3.00135e-07 2.78853e-08 1.14181e-09 -7.06313e-09 4.09802e-08 -5.12968e-08)
(-1.75289e-06 1.44884e-08 6.2217e-09 -1.49294e-07 3.65131e-08 -4.1653e-08)
(-1.877e-06 -1.57048e-08 -3.80656e-09 -9.15427e-08 1.71666e-08 -6.77394e-08)
(-3.09046e-07 -1.57767e-08 2.61e-09 -2.59385e-08 2.1527e-08 -8.49302e-08)
(-3.02371e-07 1.57699e-08 4.89965e-10 -3.55489e-08 2.42856e-08 -8.88398e-08)
(-1.78286e-06 1.56906e-08 4.88767e-09 -1.19491e-07 2.58109e-08 -7.90164e-08)
(-1.91988e-06 -7.88703e-09 -2.94419e-09 -6.5229e-08 6.02636e-09 -8.40027e-08)
(-2.84269e-07 -9.92123e-09 3.11387e-09 -5.74175e-08 7.98407e-09 -1.02218e-07)
(-2.77467e-07 9.50025e-09 -2.98389e-10 -6.62488e-08 1.04813e-08 -1.06932e-07)
(-1.82318e-06 7.80007e-09 3.94539e-09 -9.13858e-08 1.38793e-08 -9.76688e-08)
(-1.9993e-06 -1.04187e-10 -2.77348e-09 -5.55398e-08 9.69838e-10 -9.26405e-08)
(-2.7476e-07 -5.0492e-09 3.16279e-09 -7.48017e-08 2.13666e-09 -1.11371e-07)
(-2.67613e-07 4.35812e-09 -6.60738e-10 -8.33073e-08 4.37485e-09 -1.16692e-07)
(-1.89961e-06 -7.03863e-11 3.66802e-09 -8.05609e-08 7.98004e-09 -1.08101e-07)
(-2.14309e-06 1.04758e-08 -2.75302e-09 -8.15803e-08 6.01173e-10 -1.0276e-07)
(-2.97354e-07 6.07301e-10 3.05815e-09 -9.38103e-08 1.24581e-09 -1.21606e-07)
(-2.90039e-07 -1.69667e-09 -8.66464e-10 -1.01962e-07 3.1452e-09 -1.27425e-07)
(-2.04056e-06 -1.10978e-08 3.54118e-09 -1.05652e-07 6.56219e-09 -1.19669e-07)
(-2.37579e-06 3.27139e-08 -2.43777e-09 -4.72056e-07 -1.02995e-09 -1.14298e-07)
(-3.69101e-07 9.54246e-09 3.00035e-09 -4.09842e-07 -5.75597e-10 -1.33024e-07)
(-3.62759e-07 -1.16048e-08 -1.39694e-09 -4.14634e-07 7.59413e-10 -1.39231e-07)
(-2.27365e-06 -3.44906e-08 3.01099e-09 -4.89279e-07 3.29139e-09 -1.32335e-07)
(-2.75941e-06 5.00217e-08 -2.0088e-09 -2.90334e-06 3.22597e-09 -1.15382e-07)
(-4.86273e-07 2.12237e-08 2.75569e-09 -2.63392e-06 3.53681e-09 -1.34132e-07)
(-4.82478e-07 -2.22544e-08 -2.67369e-09 -2.60981e-06 3.99122e-09 -1.4047e-07)
(-2.66766e-06 -5.19533e-08 1.94259e-09 -2.84357e-06 4.7701e-09 -1.33852e-07)
(-1.71379e-06 3.6568e-08 -2.18062e-09 2.77736e-07 2.45088e-08 -2.18782e-09)
(-1.68338e-07 -6.94624e-08 1.4019e-09 3.93986e-08 3.54849e-08 -7.42405e-09)
(-1.63927e-07 6.96697e-08 -2.01745e-12 2.93309e-08 3.77899e-08 -8.30235e-09)
(-1.62833e-06 -3.43225e-08 2.569e-09 2.45346e-07 3.15274e-08 -4.71428e-09)
(-1.75433e-06 -1.33262e-08 -2.41478e-09 -1.36554e-07 2.70132e-08 -2.8438e-08)
(-2.89833e-07 -2.67485e-08 2.12018e-09 -1.89529e-08 3.32467e-08 -3.87107e-08)
(-2.83903e-07 2.6295e-08 3.88223e-10 -2.90717e-08 3.5516e-08 -4.0914e-08)
(-1.66537e-06 1.34037e-08 3.22117e-09 -1.64982e-07 3.39612e-08 -3.47609e-08)
(-1.78899e-06 -1.47823e-08 -1.52823e-09 -1.056e-07 2.11911e-08 -5.89082e-08)
(-2.93828e-07 -1.55242e-08 2.69915e-09 -4.33452e-08 2.39519e-08 -7.1048e-08)
(-2.87785e-07 1.45033e-08 -6.93203e-11 -5.26804e-08 2.61171e-08 -7.4231e-08)
(-1.69747e-06 1.43935e-08 2.42375e-09 -1.32942e-07 2.78784e-08 -6.81147e-08)
(-1.83344e-06 -7.49399e-09 -9.24476e-10 -7.00183e-08 1.20308e-08 -8.20926e-08)
(-2.71712e-07 -9.91308e-09 3.01612e-09 -6.33489e-08 1.34607e-08 -9.49776e-08)
(-2.65438e-07 8.75093e-09 -6.21836e-10 -7.21494e-08 1.54926e-08 -9.89227e-08)
(-1.7391e-06 7.12969e-09 1.75339e-09 -9.62369e-08 1.83393e-08 -9.35907e-08)
(-1.91324e-06 -7.96851e-11 -7.81085e-10 -5.2754e-08 4.77045e-09 -9.828e-08)
(-2.6364e-07 -5.20681e-09 3.00434e-09 -7.23552e-08 5.81327e-09 -1.11553e-07)
(-2.56962e-07 4.03663e-09 -9.10986e-10 -8.0935e-08 7.66371e-09 -1.16118e-07)
(-1.81567e-06 -2.74266e-10 1.50355e-09 -7.81384e-08 1.05164e-08 -1.1165e-07)
(-2.05665e-06 1.05339e-08 -8.36971e-10 -7.65045e-08 3.74904e-10 -1.11219e-07)
(-2.87121e-07 5.37917e-10 2.83848e-09 -8.88102e-08 1.16089e-09 -1.24609e-07)
(-2.80231e-07 -1.87674e-09 -1.07884e-09 -9.70947e-08 2.72455e-09 -1.29678e-07)
(-1.95592e-06 -1.12391e-08 1.43752e-09 -1.01088e-07 5.26859e-09 -1.26106e-07)
(-2.28882e-06 3.30015e-08 -8.0421e-10 -4.61078e-07 -2.97698e-09 -1.21535e-07)
(-3.60256e-07 9.69246e-09 2.64781e-09 -3.98746e-07 -2.33371e-09 -1.34838e-07)
(-3.54285e-07 -1.18668e-08 -1.46306e-09 -4.03739e-07 -1.25471e-09 -1.40247e-07)
(-2.18795e-06 -3.4801e-08 1.18785e-09 -4.78963e-07 5.30856e-10 -1.37489e-07)
(-2.67398e-06 5.02905e-08 -7.2643e-10 -2.81577e-06 8.11501e-10 -1.25562e-07)
(-4.79014e-07 2.13381e-08 2.28492e-09 -2.54586e-06 1.14523e-09 -1.38903e-07)
(-4.75534e-07 -2.24776e-08 -2.3902e-09 -2.52197e-06 1.50138e-09 -1.44366e-07)
(-2.5825e-06 -5.22746e-08 5.62281e-10 -2.75673e-06 2.03659e-09 -1.41794e-07)
(-1.66034e-06 3.49563e-08 -1.1874e-09 2.62128e-07 1.92854e-08 -6.48469e-09)
(-1.63036e-07 -6.87535e-08 8.89311e-10 2.99055e-08 2.5088e-08 -9.27246e-09)
(-1.59069e-07 6.79938e-08 1.13036e-10 2.05965e-08 2.66329e-08 -9.99066e-09)
(-1.57682e-06 -3.33604e-08 1.47747e-09 2.32614e-07 2.39409e-08 -8.5429e-09)
(-1.7007e-06 -1.30169e-08 -1.31867e-09 -1.45758e-07 2.04952e-08 -2.89815e-08)
(-2.81624e-07 -2.64995e-08 1.42386e-09 -3.09048e-08 2.3999e-08 -3.47895e-08)
(-2.76253e-07 2.52855e-08 4.2351e-10 -4.04731e-08 2.55479e-08 -3.66227e-08)
(-1.61369e-06 1.27707e-08 1.92916e-09 -1.72705e-07 2.5195e-08 -3.4217e-08)
(-1.73658e-06 -1.42741e-08 -8.48042e-10 -1.15729e-07 1.75481e-08 -5.53993e-08)
(-2.8673e-07 -1.53826e-08 1.77893e-09 -5.52369e-08 1.9266e-08 -6.24851e-08)
(-2.81165e-07 1.37611e-08 2.01178e-10 -6.43156e-08 2.07824e-08 -6.51781e-08)
(-1.64682e-06 1.36664e-08 1.53774e-09 -1.42444e-07 2.21998e-08 -6.3161e-08)
(-1.78216e-06 -7.25001e-09 -5.11365e-10 -7.74485e-08 1.1581e-08 -7.95242e-08)
(-2.66327e-07 -9.91853e-09 1.93991e-09 -7.1342e-08 1.25965e-08 -8.71565e-08)
(-2.60456e-07 8.30771e-09 -1.17489e-10 -8.00878e-08 1.40528e-08 -9.05566e-08)
(-1.68942e-06 6.72135e-09 1.15705e-09 -1.03593e-07 1.60821e-08 -8.94231e-08)
(-1.8624e-06 -6.29401e-11 -4.29549e-10 -5.63126e-08 5.45342e-09 -9.905e-08)
(-2.59267e-07 -5.31554e-09 1.89774e-09 -7.6027e-08 6.28892e-09 -1.07021e-07)
(-2.52945e-07 3.84297e-09 -3.1302e-10 -8.46657e-08 7.63275e-09 -1.11025e-07)
(-1.76626e-06 -4.01942e-10 9.90247e-10 -8.19486e-08 9.62076e-09 -1.10794e-07)
(-2.00544e-06 1.0534e-08 -4.88902e-10 -7.76351e-08 7.51814e-10 -1.14588e-07)
(-2.83261e-07 4.74878e-10 1.75054e-09 -8.98823e-08 1.47332e-09 -1.22769e-07)
(-2.76692e-07 -1.99111e-09 -4.49709e-10 -9.82947e-08 2.61165e-09 -1.27269e-07)
(-1.90593e-06 -1.12985e-08 9.44038e-10 -1.0266e-07 4.32334e-09 -1.27863e-07)
(-2.23652e-06 3.31604e-08 -5.27593e-10 -4.56334e-07 -2.35076e-09 -1.27018e-07)
(-3.57063e-07 9.7935e-09 1.56922e-09 -3.93786e-07 -1.71608e-09 -1.35269e-07)
(-3.51374e-07 -1.20714e-08 -7.32678e-10 -3.98959e-07 -9.33602e-10 -1.40092e-07)
(-2.13652e-06 -3.49893e-08 8.04625e-10 -4.74792e-07 2.09433e-10 -1.41359e-07)
(-2.62138e-06 5.0482e-08 -5.63027e-10 -2.76126e-06 1.69377e-10 -1.36138e-07)
(-4.76654e-07 2.14362e-08 1.22891e-09 -2.4917e-06 5.12892e-10 -1.44436e-07)
(-4.73426e-07 -2.26733e-08 -1.35933e-09 -2.46797e-06 7.70321e-10 -1.4929e-07)
(-2.53014e-06 -5.25204e-08 4.25299e-10 -2.7028e-06 1.0608e-09 -1.50732e-07)
(-1.63004e-06 3.41035e-08 -6.40147e-10 2.5314e-07 1.20968e-08 -8.33181e-09)
(-1.60248e-07 -6.83194e-08 4.51731e-10 2.42748e-08 1.49581e-08 -9.85707e-09)
(-1.56554e-07 6.70304e-08 1.47055e-10 1.54566e-08 1.58461e-08 -1.04859e-08)
(-1.54767e-06 -3.28781e-08 8.18664e-10 2.25445e-07 1.47504e-08 -1.01118e-08)
(-1.67023e-06 -1.28671e-08 -7.29161e-10 -1.50692e-07 1.24571e-08 -2.97381e-08)
(-2.77325e-07 -2.63665e-08 7.38532e-10 -3.72715e-08 1.4268e-08 -3.31538e-08)
(-2.72302e-07 2.47327e-08 3.85345e-10 -4.64735e-08 1.51653e-08 -3.47692e-08)
(-1.5844e-06 1.24413e-08 1.10876e-09 -1.7664e-07 1.5163e-08 -3.43008e-08)
(-1.70667e-06 -1.40259e-08 -5.08132e-10 -1.2176e-07 1.10159e-08 -5.36982e-08)
(-2.82996e-07 -1.53289e-08 9.20066e-10 -6.2171e-08 1.19797e-08 -5.80665e-08)
(-2.77731e-07 1.3366e-08 3.0467e-10 -7.10642e-08 1.28699e-08 -6.04624e-08)
(-1.618e-06 1.32949e-08 9.42799e-10 -1.47997e-07 1.37366e-08 -6.05407e-08)
(-1.7529e-06 -7.13211e-09 -3.49979e-10 -8.3293e-08 7.78111e-09 -7.7004e-08)
(-2.63508e-07 -9.94497e-09 9.88803e-10 -7.746e-08 8.40581e-09 -8.18635e-08)
(-2.57891e-07 8.06713e-09 1.50499e-10 -8.61547e-08 9.2723e-09 -8.49236e-08)
(-1.66113e-06 6.50669e-09 7.61405e-10 -1.09332e-07 1.0455e-08 -8.58545e-08)
(-1.8334e-06 -6.19264e-11 -3.15867e-10 -6.07302e-08 4.00209e-09 -9.75217e-08)
(-2.57022e-07 -5.39264e-09 9.49495e-10 -8.04751e-08 4.54406e-09 -1.0274e-07)
(-2.50923e-07 3.72653e-09 4.18314e-11 -8.91476e-08 5.35112e-09 -1.06384e-07)
(-1.73813e-06 -4.73369e-10 6.74173e-10 -8.65063e-08 6.50624e-09 -1.08171e-07)
(-1.97614e-06 1.05296e-08 -3.55313e-10 -8.03373e-08 8.19005e-10 -1.14853e-07)
(-2.81302e-07 4.34229e-10 8.55097e-10 -9.2492e-08 1.30931e-09 -1.20366e-07)
(-2.7493e-07 -2.07851e-09 -4.95943e-11 -1.00992e-07 1.9958e-09 -1.24498e-07)
(-1.87736e-06 -1.13379e-08 6.4406e-10 -1.05656e-07 2.97899e-09 -1.27032e-07)
(-2.20628e-06 3.32744e-08 -3.86979e-10 -4.54677e-07 -1.22539e-09 -1.297e-07)
(-3.55464e-07 9.87199e-09 7.39632e-10 -3.91873e-07 -7.81923e-10 -1.35397e-07)
(-3.49947e-07 -1.22338e-08 -2.31397e-10 -3.97167e-07 -3.09472e-10 -1.39849e-07)
(-2.10681e-06 -3.51309e-08 5.60795e-10 -4.73526e-07 3.27905e-10 -1.42956e-07)
(-2.59061e-06 5.06439e-08 -4.28297e-10 -2.72948e-06 5.1513e-11 -1.42691e-07)
(-4.75528e-07 2.15258e-08 5.0952e-10 -2.46016e-06 3.05332e-10 -1.48427e-07)
(-4.72458e-07 -2.28352e-08 -5.97518e-10 -2.43653e-06 4.60967e-10 -1.52903e-07)
(-2.49954e-06 -5.2725e-08 3.44923e-10 -2.67143e-06 5.92899e-10 -1.56204e-07)
(-1.61621e-06 3.37097e-08 -2.06576e-10 2.48954e-07 4.10689e-09 -8.97841e-09)
(-1.58981e-07 -6.81342e-08 1.35394e-10 2.16014e-08 4.97699e-09 -1.0031e-08)
(-1.55417e-07 6.66124e-08 6.35282e-11 1.3023e-08 5.26658e-09 -1.06183e-08)
(-1.53438e-06 -3.26523e-08 2.66573e-10 2.22137e-07 4.96845e-09 -1.06261e-08)
(-1.65631e-06 -1.28122e-08 -2.40271e-10 -1.52948e-07 4.1608e-09 -3.00557e-08)
(-2.75361e-07 -2.63165e-08 2.22673e-10 -4.01482e-08 4.72514e-09 -3.25561e-08)
(-2.70505e-07 2.44967e-08 1.53997e-10 -4.91692e-08 5.01874e-09 -3.40687e-08)
(-1.57104e-06 1.23066e-08 3.68635e-10 -1.78399e-07 5.04325e-09 -3.4294e-08)
(-1.69298e-06 -1.39269e-08 -1.75964e-10 -1.24567e-07 3.71276e-09 -5.29481e-08)
(-2.81252e-07 -1.53149e-08 2.77749e-10 -6.53644e-08 4.02649e-09 -5.62779e-08)
(-2.76133e-07 1.3197e-08 1.3623e-10 -7.41622e-08 4.31945e-09 -5.85317e-08)
(-1.60482e-06 1.31403e-08 3.24022e-10 -1.50553e-07 4.60647e-09 -5.93414e-08)
(-1.73948e-06 -7.08796e-09 -1.30424e-10 -8.63337e-08 2.69437e-09 -7.55849e-08)
(-2.62146e-07 -9.96626e-09 2.96287e-10 -8.06146e-08 2.90694e-09 -7.94055e-08)
(-2.56653e-07 7.96219e-09 9.1196e-11 -8.92797e-08 3.19386e-09 -8.23008e-08)
(-1.64817e-06 6.417e-09 2.71436e-10 -1.12303e-07 3.57925e-09 -8.39158e-08)
(-1.82009e-06 -6.57684e-11 -1.21993e-10 -6.33807e-08 1.44361e-09 -9.6278e-08)
(-2.55907e-07 -5.43352e-09 2.80959e-10 -8.31333e-08 1.63139e-09 -1.00485e-07)
(-2.49915e-07 3.67075e-09 5.67624e-11 -9.18201e-08 1.8999e-09 -1.03954e-07)
(-1.72523e-06 -5.04613e-10 2.45119e-10 -8.9216e-08 2.27718e-09 -1.06378e-07)
(-1.96266e-06 1.05289e-08 -1.35479e-10 -8.21634e-08 3.50666e-10 -1.14474e-07)
(-2.80315e-07 4.15848e-10 2.48997e-10 -9.42591e-08 5.22522e-10 -1.19021e-07)
(-2.74038e-07 -2.12855e-09 2.45731e-11 -1.02802e-07 7.51551e-10 -1.22973e-07)
(-1.86423e-06 -1.13609e-08 2.34541e-10 -1.07624e-07 1.07243e-09 -1.261e-07)
(-2.19229e-06 3.33398e-08 -1.45933e-10 -4.54271e-07 -3.52266e-10 -1.30715e-07)
(-3.54651e-07 9.9176e-09 2.10462e-10 -3.91302e-07 -1.95629e-10 -1.35495e-07)
(-3.49216e-07 -1.23262e-08 -3.88045e-11 -3.96657e-07 -3.77865e-11 -1.39766e-07)
(-2.09307e-06 -3.52124e-08 2.05496e-10 -4.73315e-07 1.67958e-10 -1.43426e-07)
(-2.57632e-06 5.07403e-08 -1.61416e-10 -2.71483e-06 1.92768e-11 -1.45671e-07)
(-4.74948e-07 2.15799e-08 1.30253e-10 -2.44559e-06 1.11404e-10 -1.50473e-07)
(-4.71954e-07 -2.29278e-08 -1.5982e-10 -2.42201e-06 1.63438e-10 -1.54766e-07)
(-2.48532e-06 -5.28446e-08 1.34e-10 -2.65698e-06 2.00722e-10 -1.58641e-07)
)
;

boundaryField
{
    interface
    {
        type            calculated;
        value           nonuniform List<symmTensor> 
192
(
(-4.59774e-06 2.05879e-12 2.22632e-11 9.99438e-07 8.94725e-08 -2.73976e-06)
(-4.32723e-06 8.29841e-13 3.40902e-11 -2.46774e-07 -1.26702e-08 -2.70605e-06)
(-4.41316e-06 -1.43611e-12 3.67175e-11 -2.25537e-07 -1.9837e-08 -2.74653e-06)
(-4.54007e-06 -4.0226e-12 3.6819e-11 -1.56063e-07 -1.1676e-08 -2.81002e-06)
(-4.70856e-06 -6.22827e-12 3.58086e-11 -1.21339e-07 -2.99242e-09 -2.90272e-06)
(-4.95547e-06 -1.04309e-11 3.43971e-11 -1.53413e-07 8.39718e-09 -3.0415e-06)
(-5.28365e-06 -1.34315e-11 3.12345e-11 -6.36003e-07 3.00823e-08 -3.24045e-06)
(-5.69799e-06 -2.88454e-11 2.86524e-11 -3.53248e-06 4.9992e-08 -3.53207e-06)
(-3.96639e-06 1.34544e-12 1.1257e-11 5.41213e-07 -8.94545e-08 -3.27011e-07)
(-3.77928e-06 1.6891e-13 1.83843e-11 -8.12574e-08 -3.23459e-08 -4.83817e-07)
(-3.83685e-06 -1.9401e-12 1.96105e-11 -1.12154e-07 -2.5729e-08 -4.91777e-07)
(-3.94523e-06 -4.6685e-12 1.93074e-11 -1.06078e-07 -2.3078e-08 -4.845e-07)
(-4.10903e-06 -7.07214e-12 1.8356e-11 -1.00965e-07 -1.32037e-08 -4.875e-07)
(-4.36773e-06 -1.17821e-11 1.71695e-11 -1.30451e-07 1.33924e-09 -5.04769e-07)
(-4.74078e-06 -1.51358e-11 1.51217e-11 -5.44373e-07 1.47862e-08 -5.4855e-07)
(-5.28467e-06 -3.1483e-11 1.34137e-11 -3.24023e-06 3.06569e-08 -6.36991e-07)
(-3.51131e-06 1.12808e-12 9.00961e-12 3.67937e-07 -2.30832e-09 -8.05954e-09)
(-3.40872e-06 -1.27729e-13 1.45842e-11 -9.00812e-08 8.61969e-09 -8.38939e-08)
(-3.4685e-06 -2.3003e-12 1.55257e-11 -8.24794e-08 -2.54286e-10 -1.12503e-07)
(-3.5701e-06 -5.28059e-12 1.52669e-11 -7.30676e-08 -7.95042e-09 -1.12913e-07)
(-3.72867e-06 -7.99666e-12 1.45007e-11 -7.17024e-08 -5.91995e-09 -1.11441e-07)
(-3.98652e-06 -1.32906e-11 1.35312e-11 -9.90647e-08 1.87088e-09 -1.19431e-07)
(-4.36951e-06 -1.71871e-11 1.19818e-11 -4.9521e-07 5.72708e-09 -1.39376e-07)
(-4.95855e-06 -3.47509e-11 1.06041e-11 -3.04071e-06 1.08354e-08 -1.54139e-07)
(-3.23137e-06 8.03873e-13 5.67013e-12 3.05747e-07 2.35567e-08 5.13544e-09)
(-3.15306e-06 -5.69866e-13 9.59113e-12 -1.19019e-07 2.70952e-08 -3.36862e-08)
(-3.21721e-06 -2.77751e-12 1.02104e-11 -9.15427e-08 1.71666e-08 -6.77394e-08)
(-3.31787e-06 -5.87275e-12 9.95524e-12 -6.5229e-08 6.02636e-09 -8.40027e-08)
(-3.47438e-06 -8.74649e-12 9.3534e-12 -5.55398e-08 9.69838e-10 -9.26405e-08)
(-3.73024e-06 -1.43123e-11 8.62172e-12 -8.15803e-08 6.01173e-10 -1.0276e-07)
(-4.11362e-06 -1.84524e-11 7.59733e-12 -4.72056e-07 -1.02995e-09 -1.14298e-07)
(-4.71643e-06 -3.63885e-11 6.7055e-12 -2.90334e-06 3.22597e-09 -1.15382e-07)
(-3.06743e-06 6.6298e-13 4.20311e-12 2.77736e-07 2.45088e-08 -2.18782e-09)
(-2.99641e-06 -8.27386e-13 7.09403e-12 -1.36554e-07 2.70132e-08 -2.8438e-08)
(-3.06292e-06 -3.12158e-12 7.55654e-12 -1.056e-07 2.11911e-08 -5.89082e-08)
(-3.16422e-06 -6.33829e-12 7.3673e-12 -7.00183e-08 1.20308e-08 -8.20926e-08)
(-3.32034e-06 -9.36834e-12 6.92196e-12 -5.2754e-08 4.77045e-09 -9.828e-08)
(-3.57477e-06 -1.51661e-11 6.37221e-12 -7.65045e-08 3.74904e-10 -1.11219e-07)
(-3.95592e-06 -1.95348e-11 5.63678e-12 -4.61078e-07 -2.97698e-09 -1.21535e-07)
(-4.56044e-06 -3.78142e-11 4.97465e-12 -2.81577e-06 8.11501e-10 -1.25562e-07)
(-2.97029e-06 5.45157e-13 2.62103e-12 2.62128e-07 1.92854e-08 -6.48469e-09)
(-2.90229e-06 -1.03598e-12 4.5291e-12 -1.45758e-07 2.04952e-08 -2.89815e-08)
(-2.9699e-06 -3.39287e-12 4.83526e-12 -1.15729e-07 1.75481e-08 -5.53993e-08)
(-3.07187e-06 -6.6823e-12 4.69943e-12 -7.74485e-08 1.1581e-08 -7.95242e-08)
(-3.22801e-06 -9.80311e-12 4.39684e-12 -5.63126e-08 5.45342e-09 -9.905e-08)
(-3.48134e-06 -1.57252e-11 4.02766e-12 -7.76351e-08 7.51814e-10 -1.14588e-07)
(-3.85981e-06 -2.02163e-11 3.56219e-12 -4.56334e-07 -2.35076e-09 -1.27018e-07)
(-4.46306e-06 -3.86786e-11 3.14808e-12 -2.76126e-06 1.69377e-10 -1.36138e-07)
(-2.91497e-06 4.92791e-13 1.55086e-12 2.5314e-07 1.20968e-08 -8.33181e-09)
(-2.84848e-06 -1.15197e-12 2.67128e-12 -1.50692e-07 1.24571e-08 -2.97381e-08)
(-2.91659e-06 -3.56266e-12 2.85351e-12 -1.2176e-07 1.10159e-08 -5.36982e-08)
(-3.01897e-06 -6.90766e-12 2.77435e-12 -8.3293e-08 7.78111e-09 -7.7004e-08)
(-3.17514e-06 -1.00962e-11 2.59835e-12 -6.07302e-08 4.00209e-09 -9.75217e-08)
(-3.42766e-06 -1.61044e-11 2.37886e-12 -8.03373e-08 8.19005e-10 -1.14853e-07)
(-3.80403e-06 -2.06831e-11 2.11098e-12 -4.54677e-07 -1.22539e-09 -1.297e-07)
(-4.40584e-06 -3.92762e-11 1.86159e-12 -2.72948e-06 5.1513e-11 -1.42691e-07)
(-2.8897e-06 4.56569e-13 4.68296e-13 2.48954e-07 4.10689e-09 -8.97841e-09)
(-2.82388e-06 -1.21856e-12 8.29607e-13 -1.52948e-07 4.1608e-09 -3.00557e-08)
(-2.89217e-06 -3.65092e-12 8.88518e-13 -1.24567e-07 3.71276e-09 -5.29481e-08)
(-2.99473e-06 -7.01725e-12 8.61156e-13 -8.63337e-08 2.69437e-09 -7.55849e-08)
(-3.15092e-06 -1.02347e-11 8.03966e-13 -6.33807e-08 1.44361e-09 -9.6278e-08)
(-3.403e-06 -1.62767e-11 7.32419e-13 -8.21634e-08 3.50666e-10 -1.14474e-07)
(-3.77825e-06 -2.08961e-11 6.5041e-13 -4.54271e-07 -3.52266e-10 -1.30715e-07)
(-4.37925e-06 -3.95454e-11 5.70793e-13 -2.71483e-06 1.92768e-11 -1.45671e-07)
(-2.59658e-06 8.76994e-08 -3.29939e-11 9.99438e-07 -6.02197e-12 -4.85111e-06)
(-2.57517e-06 -1.3034e-08 -5.24976e-11 -2.46774e-07 -5.96689e-12 -4.57328e-06)
(-2.61778e-06 -1.75827e-08 -5.73522e-11 -2.25537e-07 -4.0602e-12 -4.66031e-06)
(-2.67276e-06 -7.44025e-09 -5.8223e-11 -1.56063e-07 -2.80536e-12 -4.79206e-06)
(-2.75769e-06 3.45485e-10 -5.7978e-11 -1.21339e-07 -2.3656e-12 -4.96491e-06)
(-2.89432e-06 9.0107e-09 -5.78004e-11 -1.53413e-07 -2.73766e-12 -5.21514e-06)
(-3.09282e-06 2.91143e-08 -5.75386e-11 -6.36003e-07 -3.33278e-12 -5.55189e-06)
(-3.37355e-06 4.55551e-08 -6.10676e-11 -3.53248e-06 -4.71465e-12 -5.98693e-06)
(-3.27557e-07 -6.55201e-08 -2.22494e-11 6.44492e-07 -3.2285e-12 -4.45656e-06)
(-5.30625e-07 -2.50542e-08 -3.90119e-11 -6.39946e-08 -3.70378e-12 -4.22122e-06)
(-5.3627e-07 -1.3923e-08 -4.26751e-11 -1.27412e-07 -2.33724e-12 -4.26777e-06)
(-5.06462e-07 -7.38162e-09 -4.30826e-11 -1.38874e-07 -1.11636e-12 -4.37889e-06)
(-4.93494e-07 -2.68644e-09 -4.29376e-11 -1.38021e-07 -3.93143e-13 -4.54775e-06)
(-5.09795e-07 1.69044e-09 -4.3174e-11 -1.65052e-07 -8.32813e-14 -4.80902e-06)
(-5.69366e-07 9.20933e-09 -4.4016e-11 -5.78947e-07 -1.23323e-13 -5.18627e-06)
(-6.72882e-07 1.95184e-08 -4.90119e-11 -3.35348e-06 -6.30858e-13 -5.74177e-06)
(-3.23555e-07 8.48257e-08 -2.36326e-11 6.32501e-07 -1.97914e-12 -4.41221e-06)
(-5.25601e-07 4.0535e-08 -4.13418e-11 -7.49994e-08 -2.31862e-12 -4.17473e-06)
(-5.3161e-07 2.56809e-08 -4.54578e-11 -1.37611e-07 -1.26036e-12 -4.21952e-06)
(-5.02028e-07 1.60513e-08 -4.5958e-11 -1.48238e-07 -4.25673e-14 -4.32982e-06)
(-4.89089e-07 8.82449e-09 -4.56732e-11 -1.46994e-07 8.68328e-13 -4.49823e-06)
(-5.05581e-07 2.06387e-09 -4.55509e-11 -1.73877e-07 1.64235e-12 -4.75907e-06)
(-5.66345e-07 -8.4943e-09 -4.57866e-11 -5.84964e-07 2.15116e-12 -5.13611e-06)
(-6.72206e-07 -2.009e-08 -5.01946e-11 -3.33195e-06 2.2353e-12 -5.69554e-06)
(-2.51198e-06 -7.71013e-08 -2.77859e-11 9.5356e-07 -1.43197e-12 -4.73072e-06)
(-2.48744e-06 1.9781e-08 -4.85297e-11 -2.77949e-07 -1.54028e-12 -4.45216e-06)
(-2.52886e-06 2.24587e-08 -5.36026e-11 -2.54004e-07 -5.34777e-13 -4.53488e-06)
(-2.58277e-06 1.10801e-08 -5.43127e-11 -1.82435e-07 7.40612e-13 -4.66425e-06)
(-2.66686e-06 2.23809e-09 -5.38775e-11 -1.46527e-07 1.72711e-12 -4.83567e-06)
(-2.80376e-06 -7.68399e-09 -5.35895e-11 -1.78303e-07 2.76557e-12 -5.08453e-06)
(-3.00664e-06 -2.96806e-08 -5.3058e-11 -6.55466e-07 3.59968e-12 -5.42009e-06)
(-3.2999e-06 -4.70943e-08 -5.73764e-11 -3.47814e-06 4.56283e-12 -5.86494e-06)
(-4.43654e-06 6.0888e-12 1.13166e-11 9.5356e-07 9.7993e-08 -2.67944e-06)
(-4.16182e-06 4.92124e-12 1.9217e-11 -2.77949e-07 -6.84799e-09 -2.6474e-06)
(-4.24463e-06 9.73863e-13 2.08406e-11 -2.54004e-07 -1.5803e-08 -2.68696e-06)
(-4.36896e-06 -2.66753e-12 2.10208e-11 -1.82435e-07 -8.60697e-09 -2.74983e-06)
(-4.53571e-06 -4.73496e-12 2.07763e-11 -1.46527e-07 -4.29129e-10 -2.84208e-06)
(-4.78277e-06 -7.97372e-12 2.13513e-11 -1.78303e-07 1.07481e-08 -2.98041e-06)
(-5.11732e-06 -8.04691e-12 2.10715e-11 -6.55466e-07 3.23685e-08 -3.17945e-06)
(-5.55202e-06 -2.33667e-11 2.36903e-11 -3.47814e-06 5.18659e-08 -3.47772e-06)
(-3.78968e-06 2.17379e-12 1.02646e-12 4.94738e-07 -7.24627e-08 -3.29557e-07)
(-3.60151e-06 1.37062e-12 4.04653e-12 -1.13904e-07 -2.04068e-08 -4.91414e-07)
(-3.65556e-06 -8.93762e-13 4.18087e-12 -1.40163e-07 -1.66885e-08 -5.02465e-07)
(-3.76007e-06 -3.35873e-12 4.01645e-12 -1.31697e-07 -1.57619e-08 -4.96808e-07)
(-3.92006e-06 -4.51947e-12 4.07217e-12 -1.25505e-07 -6.96092e-09 -5.007e-07)
(-4.17583e-06 -7.13457e-12 5.06998e-12 -1.5439e-07 6.79082e-09 -5.1875e-07)
(-4.55179e-06 -5.57719e-12 6.01715e-12 -5.61649e-07 1.91357e-08 -5.63911e-07)
(-5.11755e-06 -2.08019e-11 8.56097e-12 -3.1794e-06 3.2776e-08 -6.54835e-07)
(-3.33839e-06 1.10757e-12 2.59796e-12 3.26431e-07 1.11887e-08 -1.2631e-08)
(-3.23301e-06 1.4294e-13 6.03794e-12 -1.22136e-07 2.02771e-08 -9.40581e-08)
(-3.28869e-06 -1.52753e-12 6.70479e-12 -1.1071e-07 9.64459e-09 -1.26284e-07)
(-3.38585e-06 -3.61249e-12 6.77729e-12 -9.89531e-08 5.88468e-10 -1.28952e-07)
(-3.53968e-06 -4.37429e-12 6.83012e-12 -9.63491e-08 1.53442e-09 -1.28969e-07)
(-3.79303e-06 -6.78815e-12 7.41849e-12 -1.22794e-07 8.25827e-09 -1.38197e-07)
(-4.17646e-06 -4.58797e-12 7.77509e-12 -5.11987e-07 1.05126e-08 -1.59427e-07)