/*--------------------------------*- C++ -*----------------------------------*\
| =========                 |                                                 |
| \\      /  F ield         | OpenFOAM: The Open Source CFD Toolbox           |
|  \\    /   O peration     | Version:  v1912                                 |
|   \\  /    A nd           | Website:  www.openfoam.com                      |
|    \\/     M anipulation  |                                                 |
\*---------------------------------------------------------------------------*/
FoamFile
{
    version     2.0;
    format      ascii;
    class       volVectorField;
    location    "0.36/solid";
    object      heatFlux;
}
// * * * * * * * * * * * * * * * * * * * * * * * * * * * * * * * * * * * * * //

dimensions      [1 0 -3 0 0 0 0];


internalField   nonuniform List<vector> 
256
(
(-77547.2 53042.3 -82857.1)
(-11639.4 28173.6 -78183.2)
(11318.5 28039.3 -77358.1)
(74266 52499.1 -80233.1)
(-76779.5 4389.48 -82215.3)
(-13363.6 2457.67 -78899.8)
(13006.9 2444 -78017.5)
(73323.8 4348.49 -79425.5)
(-78094.1 897.61 -83580.9)
(-13584.9 464.923 -80252.5)
(13209.3 459.178 -79332.1)
(74556.8 870.834 -80683.6)
(-80123.7 1132.8 -85632)
(-13802 578.252 -82234.7)
(13412.9 575.054 -81293.8)
(76519.6 1113.69 -82674.7)
(-83225.3 1977.13 -88748.6)
(-14142.7 1078.17 -85337.4)
(13744.8 1076.57 -84385.3)
(79577.3 1968.12 -85758.2)
(-88127.6 4710.18 -93696.4)
(-14702.6 3228.67 -90499)
(14302.8 3224.42 -89539.1)
(84477.9 4710.8 -90684.2)
(-95541.4 21931.7 -101330)
(-15628.4 19925.2 -99067.9)
(15226.9 19840.5 -98097.1)
(91981.3 21726.1 -98287.4)
(-97983 104638 -104611)
(-16793.8 104945 -104925)
(16103.7 103988 -103972)
(94531 101657 -101649)
(-69744.1 25660.4 -14665.9)
(-9909.66 4208.18 -12065)
(9847.67 4222.9 -11992.7)
(66455.1 25535.3 -14464.5)
(-70447.6 2281.16 -16873.2)
(-11527.9 458.828 -14065.6)
(11479.5 461.066 -13979.8)
(67041.3 2285.55 -16632.6)
(-71765.8 461.691 -17127.3)
(-11729.8 64.471 -14293.5)
(11674.4 63.4662 -14204.2)
(68276.5 446.382 -16877.6)
(-73731.1 589.611 -17356.2)
(-11926.1 70.167 -14497)
(11861.4 68.8843 -14406.2)
(70160.8 572.11 -17104.1)
(-76825.6 1091.62 -17713.3)
(-12250.5 194.095 -14833)
(12176.3 192.744 -14741.7)
(73180.8 1076.41 -17463.5)
(-81957.4 3194.88 -18306.7)
(-12825 1563.91 -15440.1)
(12743.7 1558.47 -15349.3)
(78258.7 3181.84 -18064.4)
(-90330.3 19391.3 -19386.4)
(-13886.9 16675.9 -16674.1)
(13794.3 16585.7 -16584.6)
(86656.7 19157.7 -19157.7)
(-95565.7 101376 -21925.3)
(-15630.6 99102.2 -19922.4)
(15225.6 98121.9 -19838.8)
(91978.4 98301.2 -21725.8)
(-61491.5 21503.3 -2505.38)
(-8966.29 2043.05 -1062.38)
(8919.02 2066.79 -1057.69)
(58242.4 21402 -2487.74)
(-62284.2 1928.1 -2909.79)
(-10470.2 229.146 -1291.43)
(10440 232.525 -1285.64)
(58922.6 1935.33 -2888.49)
(-63533.8 414.581 -2944.59)
(-10661.9 33.5063 -1312.09)
(10625.2 32.7376 -1306.11)
(60088.4 399.289 -2922.94)
(-65422.6 546.732 -2964.06)
(-10852 38.7959 -1324.33)
(10805.8 37.5318 -1318.29)
(61890.7 527.815 -2942.84)
(-68442.7 1026.67 -2990.26)
(-11171.1 135.059 -1344.78)
(11114.2 133.526 -1338.8)
(64821.4 1007.85 -2970.57)
(-73530.1 3037.1 -3033.08)
(-11745.2 1387.52 -1387.27)
(11678.5 1381.52 -1381.48)
(69824.9 3016.55 -3016.92)
(-81988 18313.1 -3190.68)
(-12826.6 15442.9 -1563.59)
(12743.3 15351 -1558.38)
(78256.5 18064.7 -3182.2)
(-88184.2 93770.9 -4702.03)
(-14707.2 90555 -3225.58)
(14300.3 89578.7 -3222.51)
(84472.7 90706.1 -4710.29)
(-56587.8 20245.3 -889.902)
(-8461.97 1854.38 -105.692)
(8422.31 1879.57 -104.571)
(53405.3 20159.1 -876.894)
(-57354.3 1841.94 -1007.35)
(-9903.73 209.111 -128.037)
(9882.39 212.646 -126.668)
(54062.8 1850.35 -992.118)
(-58571.7 407.42 -1014.64)
(-10091.3 31.5694 -129.659)
(10063.5 30.8076 -128.272)
(55196.8 392.03 -999.272)
(-60432.9 543.943 -1015.9)
(-10280.3 37.4794 -130.119)
(10242.9 36.195 -128.736)
(56968.8 524.486 -1000.7)
(-63426.9 1022.59 -1016.41)
(-10599 131.155 -130.884)
(10550.5 129.556 -129.524)
(59865.9 1002.33 -1001.77)
(-68485 2994.46 -1020.37)
(-11173.4 1345.1 -134.777)
(11114 1338.88 -133.487)
(64823.9 2970.21 -1007.23)
(-76900.5 17722.4 -1084.69)
(-12254.6 14837.6 -193.579)
(12175.7 14744.7 -192.549)
(73181.3 17464.4 -1075.68)
(-83329.5 88867.2 -1963.26)
(-14151 85427.6 -1072.52)
(13740.8 84450.2 -1072.67)
(79574.1 85795.6 -1965.32)
(-53704.7 19606 -472.596)
(-8180.96 1809.33 -30.975)
(8147.82 1835.55 -30.1886)
(50571.9 19533 -462.353)
(-54456 1803.36 -529.38)
(-9589.5 205.179 -36.4401)
(9575.89 208.824 -35.4766)
(51216.8 1812.96 -517.226)
(-55661.1 406.032 -531.729)
(-9775.49 31.4246 -36.683)
(9755.6 30.669 -35.7054)
(52339.1 390.71 -519.381)
(-57513.9 544.958 -530.828)
(-9964.86 37.571 -36.5837)
(9935.18 36.2798 -35.6075)
(54101.3 525.317 -518.513)
(-60498.6 1022.2 -529.589)
(-10284.2 130.401 -36.4769)
(10243.3 128.775 -35.5095)
(56985 1001.31 -517.506)
(-65532.8 2968.82 -531.753)
(-10858.3 1324.83 -37.7088)
(10806.1 1318.5 -36.7723)
(61910.3 2942.65 -520.406)
(-73878.5 17370.2 -572.56)
(-11934.5 14505.1 -68.0538)
(11861.2 14411.8 -67.2376)
(70179.3 17106.6 -563.472)
(-80305.2 85825.9 -1099)
(-13816.6 82386.4 -562.165)
(13407.5 81407.1 -561.891)
(76532.8 82745.3 -1096.4)
(-51978 19243.3 -266.436)
(-8019.57 1786.96 -15.8511)
(7990.93 1813.91 -15.3239)
(48874.1 19179.5 -259.677)
(-52722.2 1782.81 -297.075)
(-9409.82 203.404 -18.465)
(9401.61 207.13 -17.8152)
(49513.7 1793.32 -288.962)
(-53922.8 405.972 -297.911)
(-9595.25 31.4259 -18.5409)
(9580.85 30.6766 -17.8797)
(50631.9 390.742 -289.628)
(-55773.2 546.083 -296.951)
(-9785.12 37.6855 -18.4462)
(9760.92 36.391 -17.7854)
(52390.9 526.36 -288.668)
(-58752.7 1021.67 -296.081)
(-10104.9 130.03 -18.3553)
(10069.5 128.391 -17.6995)
(55267 1000.44 -287.918)
(-63766.2 2951.49 -298.114)
(-10678.4 1313.53 -19.0273)
(10631.3 1307.15 -18.3876)
(60166.4 2924.25 -290.354)
(-72046.6 17155.1 -324.279)
(-11749.3 14313.1 -35.8668)
(11680.2 14219.6 -35.2825)
(68359 16888.4 -317.78)
(-78413.5 83917.8 -638.124)
(-13613.9 80529.3 -318.962)
(13206.6 79548.7 -318.582)
(74629.2 80830.4 -635.224)
(-50987.1 19042.5 -137.754)
(-7929.84 1775.01 -7.96993)
(7903.99 1802.41 -7.66864)
(47899 18984.4 -133.94)
(-51728 1771.89 -153.172)
(-9310.24 202.489 -9.25093)
(9305.4 206.268 -8.87845)
(48536.4 1783.01 -148.559)
(-52926.9 406.155 -153.465)
(-9495.46 31.4434 -9.27853)
(9484.51 30.6988 -8.89861)
(49653.3 391.004 -148.736)
(-54776.5 546.788 -152.863)
(-9685.7 37.7565 -9.22228)
(9664.96 36.46 -8.8425)
(51411.1 527.027 -148.127)
(-57752.4 1021.04 -152.444)
(-10005.8 129.819 -9.17522)
(9973.78 128.173 -8.7984)
(54282.3 999.624 -147.771)
(-62750.3 2940.62 -153.894)
(-10578.6 1307.31 -9.53142)
(10534.8 1300.92 -9.16296)
(59163.1 2912.78 -149.432)
(-70983.3 17030.1 -168.569)
(-11645.5 14205.2 -18.1723)
(11579.3 14111.6 -17.8277)
(67302.1 16761.7 -164.75)
(-77294 82784.1 -336.621)
(-13497.1 79442.6 -166.386)
(13091.2 78461.2 -166.107)
(73502.1 79692.3 -334.618)
(-50532.5 18952.4 -42.7035)
(-7889.48 1769.74 -2.43964)
(7864.96 1797.36 -2.3417)
(47451.2 18897 -41.4715)
(-51272 1767.1 -47.4189)
(-9265.53 202.095 -2.82713)
(9262.3 205.9 -2.70587)
(48087.9 1778.52 -45.923)
(-52470.2 406.281 -47.4913)
(-9450.68 31.4546 -2.83419)
(9441.39 30.7126 -2.71034)
(49204.4 391.174 -45.9544)
(-54319.6 547.104 -47.2929)
(-9641.1 37.7888 -2.81598)
(9622.02 36.4912 -2.69217)
(50961.7 527.325 -45.7529)
(-57293.6 1020.64 -47.1754)
(-9961.29 129.721 -2.8019)
(9930.92 128.071 -2.67914)
(53830.3 999.133 -45.6562)
(-62283.1 2935.37 -47.6954)
(-10533.7 1304.53 -2.91433)
(10491.4 1298.12 -2.79423)
(58701.5 2907.27 -46.2437)
(-70491.7 16972.4 -52.4254)
(-11598.5 14156.3 -5.58496)
(11533.7 14062.6 -5.47154)
(66813 16703.2 -51.1743)
(-76770.9 82252.7 -105.44)
(-13443.4 78937.1 -51.8702)
(13038.4 77955.3 -51.7701)
(72975.1 79158.6 -104.745)
)
;

boundaryField
{
    interface
    {
        type            calculated;
        value           nonuniform List<vector> 
192
(
(-131940 53042.3 -82857.1)
(-126976 4389.48 -82215.3)
(-129170 897.61 -83580.9)
(-132799 1132.8 -85632)
(-138323 1977.13 -88748.6)
(-147009 4710.18 -93696.4)
(-159993 21931.7 -101330)
(-162707 104638 -104611)
(-119657 25660.4 -14665.9)
(-117822 2281.16 -16873.2)
(-120056 461.691 -17127.3)
(-123595 589.611 -17356.2)
(-129136 1091.62 -17713.3)
(-138252 3194.88 -18306.7)
(-152884 19391.3 -19386.4)
(-160038 101376 -21925.3)
(-105030 21503.3 -2505.38)
(-103601 1928.1 -2909.79)
(-105717 414.581 -2944.59)
(-109115 546.732 -2964.06)
(-114519 1026.67 -2990.26)
(-123547 3037.1 -3033.08)
(-138310 18313.1 -3190.68)
(-147115 93770.9 -4702.03)
(-96230.1 20245.3 -889.902)
(-94872.3 1841.94 -1007.35)
(-96932.3 407.42 -1014.64)
(-100278 543.943 -1015.9)
(-105630 1022.59 -1016.41)
(-114599 2994.46 -1020.37)
(-129278 17722.4 -1084.69)
(-138518 88867.2 -1963.26)
(-91025.2 19606 -472.596)
(-89703 1803.36 -529.38)
(-91741.6 406.032 -531.729)
(-95069.6 544.958 -530.828)
(-100402 1022.2 -529.589)
(-109324 2968.82 -531.753)
(-123874 17370.2 -572.56)
(-133138 85825.9 -1099)
(-87893.7 19243.3 -266.436)
(-86594 1782.81 -297.075)
(-88624.7 405.972 -297.911)
(-91946.8 546.083 -296.951)
(-97267.6 1021.67 -296.081)
(-106150 2951.49 -298.114)
(-120580 17155.1 -324.279)
(-129760 83917.8 -638.124)
(-86091.1 19042.5 -137.754)
(-84804.1 1771.89 -153.172)
(-86831.8 406.155 -153.465)
(-90151.7 546.788 -152.863)
(-95464.8 1021.04 -152.444)
(-104317 2940.62 -153.894)
(-118660 17030.1 -168.569)
(-127754 82784.1 -336.621)
(-85262.4 18952.4 -42.7035)
(-83981.3 1767.1 -47.4189)
(-86007.8 406.281 -47.4913)
(-89326.8 547.104 -47.2929)
(-94635.9 1020.64 -47.1754)
(-103472 2935.37 -47.6954)
(-117770 16972.4 -52.4254)
(-126815 82252.7 -105.44)
(-77547.2 53042.3 -140216)
(-76779.5 4389.48 -135165)
(-78094.1 897.61 -137447)
(-80123.7 1132.8 -141127)
(-83225.3 1977.13 -146696)
(-88127.6 4710.18 -155485)
(-95541.4 21931.7 -168828)
(-97983 104638 -172234)
(-11639.4 28173.6 -134191)
(-13363.6 2457.67 -132044)
(-13584.9 464.923 -134332)
(-13802 578.252 -137913)
(-14142.7 1078.17 -143486)
(-14702.6 3228.67 -152673)
(-15628.4 19925.2 -167617)
(-16793.8 104945 -175027)
(11318.5 28039.3 -132677)
(13006.9 2444 -130441)
(13209.3 459.178 -132659)
(13412.9 575.054 -136202)
(13744.8 1076.57 -141753)
(14302.8 3224.42 -150925)
(15226.9 19840.5 -165845)
(16103.7 103988 -173282)
(74266 52499.1 -135349)
(73323.8 4348.49 -130040)
(74556.8 870.834 -132124)
(76519.6 1113.69 -135690)
(79577.3 1968.12 -141190)
(84477.9 4710.8 -149925)
(91981.3 21726.1 -163191)
(94531 101657 -166718)
(125771 52499.1 -80233.1)
(120489 4348.49 -79425.5)
(122543 870.834 -80683.6)
(126058 1113.69 -82674.7)
(131507 1968.12 -85758.2)
(140191 4710.8 -90684.2)
(153342 21726.1 -98287.4)
(156526 101657 -101649)
(113227 25535.3 -14464.5)
(111141 2285.55 -16632.6)
(113221 446.382 -16877.6)
(116614 572.11 -17104.1)
(122023 1076.41 -17463.5)
(131043 3181.84 -18064.4)
(145728 19157.7 -19157.7)
(153338 98301.2 -21725.8)
(98666.8 21402 -2487.74)
(96992.6 1935.33 -2888.49)
(98953.4 399.289 -2922.94)
(102196 527.815 -2942.84)
(107439 1007.85 -2970.57)
(116315 3016.55 -3016.92)
(131039 18064.7 -3182.2)
(140184 90706.1 -4710.29)
(89987.4 20159.1 -876.894)
(88389.7 1850.35 -992.118)
(90295.1 392.03 -999.272)
(93479.2 524.486 -1000.7)
(98656.8 1002.33 -1001.77)
(107444 2970.21 -1007.23)
(122025 17464.4 -1075.68)
(131505 85795.6 -1965.32)
(84870.6 19533 -462.353)
(83311.8 1812.96 -517.226)
(85196.7 390.71 -519.381)
(88360.7 525.317 -518.513)
(93510.4 1001.31 -517.506)
(102234 2942.65 -520.406)
(116651 17106.6 -563.472)
(126089 82745.3 -1096.4)
(81789.4 19179.5 -259.677)
(80255 1793.32 -288.962)
(82132.7 390.742 -289.628)
(85289.3 526.36 -288.668)
(90422.9 1000.44 -287.918)
(99096.1 2924.25 -290.354)
(113373 16888.4 -317.78)
(122684 80830.4 -635.224)
(80013.4 18984.4 -133.94)
(78493.4 1783.01 -148.559)
(80368.6 391.004 -148.736)
(83522 527.027 -148.127)
(88645.4 999.624 -147.771)
(97283.2 2912.78 -149.432)
(111461 16761.7 -164.75)
(120661 79692.3 -334.618)
(79196.2 18897 -41.4715)
(77682.8 1778.52 -45.923)
(79557.2 391.174 -45.9544)
(82709.4 527.325 -45.7529)
(87827.5 999.133 -45.6562)
(96446.9 2907.27 -46.2437)
(110575 16703.2 -51.1743)
(119713 79158.6 -104.745)
(-97983 172280 -104611)
(-95565.7 168913 -21925.3)
(-88184.2 155624 -4702.03)
(-83329.5 146919 -1963.26)
(-80305.2 141491 -1099)
(-78413.5 138073 -638.124)
(-77294 136035 -336.621)
(-76770.9 135079 -105.44)
(-16793.8 175064 -104925)
(-15630.6 167683 -19922.4)
(-14707.2 152780 -3225.58)
(-14151 143657 -1072.52)
(-13816.6 138201 -562.165)
(-13613.9 134849 -318.962)
(-13497.1 132879 -166.386)
(-13443.4 131961 -51.8702)
(16103.7 173311 -103972)
(15225.6 165893 -19838.8)
(14300.3 151001 -3222.51)
(13740.8 141877 -1072.67)
(13407.5 136418 -561.891)
(13206.6 133064 -318.582)
(13091.2 131093 -166.107)
(13038.4 130174 -51.7701)
(94531 166735 -101649)
(91978.4 163218 -21725.8)
(84472.7 149968 -4710.29)
(79574.1 141263 -1965.32)
(76532.8 135826 -1096.4)
(74629.2 132398 -635.224)
(73502.1 130355 -334.618)
(72975.1 129395 -104.745)
)
;
    }
    symmetry
    {
        type            symmetry;
    }
    bottom
    {
        type            calculated;
        value           nonuniform List<vector> 
32
(
(-77547.2 98237.2 -82857.1)
(-69744.1 47240.4 -14665.9)
(-61491.5 39573.7 -2505.38)
(-56587.8 37218.9 -889.902)
(-53704.7 36014.1 -472.596)
(-51978 35328.5 -266.436)
(-50987.1 34948.3 -137.754)
(-50532.5 34777.5 -42.7035)
(-11639.4 51928.2 -78183.2)
(-9909.66 7577.56 -12065)
(-8966.29 3668.2 -1062.38)
(-8461.97 3328.05 -105.692)
(-8180.96 3245.44 -30.975)
(-8019.57 3204.15 -15.8511)
(-7929.84 3182.03 -7.96993)
(-7889.48 3172.27 -2.43964)
(11318.5 51679.5 -77358.1)
(9847.67 7601.76 -11992.7)
(8919.02 3708.53 -1057.69)
(8422.31 3371.01 -104.571)
(8147.82 3290.25 -30.1886)
(7990.93 3250.26 -15.3239)
(7903.99 3228.95 -7.66864)
(7864.96 3219.58 -2.3417)
(74266 97202.1 -80233.1)
(66455.1 46968.3 -14464.5)
(58242.4 39344.3 -2487.74)
(53405.3 37017.3 -876.894)
(50571.9 35836.7 -462.353)
(48874.1 35167.9 -259.677)
(47899 34798 -133.94)
(47451.2 34632.1 -41.4715)
)
;
    }
}


// ************************************************************************* //
