/*--------------------------------*- C++ -*----------------------------------*\
| =========                 |                                                 |
| \\      /  F ield         | OpenFOAM: The Open Source CFD Toolbox           |
|  \\    /   O peration     | Version:  v1912                                 |
|   \\  /    A nd           | Website:  www.openfoam.com                      |
|    \\/     M anipulation  |                                                 |
\*---------------------------------------------------------------------------*/
FoamFile
{
    version     2.0;
    format      ascii;
    class       pointVectorField;
    location    "0.36/solid";
    object      pointDD;
}
// * * * * * * * * * * * * * * * * * * * * * * * * * * * * * * * * * * * * * //

dimensions      [0 1 0 0 0 0 0];


internalField   nonuniform List<vector> 
405
(
(2.84939e-10 4.86101e-10 2.67854e-10)
(1.26191e-10 3.26096e-10 1.57012e-10)
(-3.27618e-12 2.65729e-10 1.16745e-10)
(-1.28612e-10 3.17908e-10 1.46411e-10)
(-2.62613e-10 4.70804e-10 2.51882e-10)
(5.65772e-10 5.61871e-10 6.43265e-10)
(3.46447e-10 5.23859e-10 5.48175e-10)
(-8.97679e-12 4.28573e-10 4.58969e-10)
(-3.54823e-10 5.12206e-10 5.24843e-10)
(-5.33627e-10 5.46723e-10 6.1451e-10)
(7.19255e-10 2.12813e-10 1.0555e-09)
(4.50267e-10 2.40523e-10 9.51228e-10)
(-1.36207e-11 1.92454e-10 8.48942e-10)
(-4.66646e-10 2.3747e-10 9.23817e-10)
(-6.92193e-10 2.11609e-10 1.01886e-09)
(7.19709e-10 -1.24417e-10 1.37861e-09)
(4.46219e-10 -6.59543e-11 1.26885e-09)
(-1.88505e-11 -8.74415e-11 1.15629e-09)
(-4.73091e-10 -6.20595e-11 1.23805e-09)
(-7.0174e-10 -1.14603e-10 1.33671e-09)
(7.01308e-10 -4.29172e-10 1.68659e-09)
(4.2612e-10 -3.77633e-10 1.56654e-09)
(-2.57334e-11 -4.00732e-10 1.44078e-09)
(-4.66715e-10 -3.68042e-10 1.53317e-09)
(-6.95723e-10 -4.10206e-10 1.64078e-09)
(7.36112e-10 -7.43773e-10 2.01636e-09)
(4.45451e-10 -7.21159e-10 1.87859e-09)
(-3.43513e-11 -7.594e-10 1.73746e-09)
(-5.03178e-10 -7.06626e-10 1.84305e-09)
(-7.46256e-10 -7.16656e-10 1.96728e-09)
(8.95402e-10 -1.16843e-09 2.39722e-09)
(5.55914e-10 -1.16801e-09 2.2354e-09)
(-4.49194e-11 -1.20438e-09 2.08148e-09)
(-6.34401e-10 -1.14898e-09 2.19774e-09)
(-9.2413e-10 -1.13375e-09 2.34506e-09)
(1.23934e-09 -1.96978e-09 2.84296e-09)
(7.65525e-10 -1.93613e-09 2.70446e-09)
(-5.81457e-11 -1.9094e-09 2.55848e-09)
(-8.68962e-10 -1.91023e-09 2.66408e-09)
(-1.28681e-09 -1.92406e-09 2.78719e-09)
(1.46184e-09 -2.5251e-09 3.10961e-09)
(8.8976e-10 -2.43431e-09 3.03708e-09)
(-6.59737e-11 -2.32698e-09 2.93182e-09)
(-1.00771e-09 -2.39613e-09 3.0024e-09)
(-1.53434e-09 -2.46692e-09 3.05733e-09)
(1.27833e-10 2.37008e-10 1.2038e-10)
(0 0 0)
(0 0 0)
(0 0 0)
(-9.7923e-11 2.28087e-10 1.15074e-10)
(3.53296e-10 3.12279e-10 4.36771e-10)
(0 0 0)
(0 0 0)
(0 0 0)
(-2.93328e-10 3.01619e-10 4.20685e-10)
(4.58936e-10 -1.81124e-11 7.96034e-10)
(0 0 0)
(0 0 0)
(0 0 0)
(-4.01109e-10 -1.57443e-11 7.71358e-10)
(4.51691e-10 -3.3501e-10 1.10781e-09)
(0 0 0)
(0 0 0)
(0 0 0)
(-4.00277e-10 -3.21824e-10 1.07784e-09)
(4.30594e-10 -6.25328e-10 1.40643e-09)
(0 0 0)
(0 0 0)
(0 0 0)
(-3.89232e-10 -6.026e-10 1.37251e-09)
(4.57005e-10 -9.14704e-10 1.72118e-09)
(0 0 0)
(0 0 0)
(0 0 0)
(-4.29159e-10 -8.83198e-10 1.68388e-09)
(5.99292e-10 -1.27386e-09 2.06615e-09)
(0 0 0)
(0 0 0)
(0 0 0)
(-5.87429e-10 -1.23418e-09 2.02562e-09)
(9.6247e-10 -1.94085e-09 2.38979e-09)
(0 0 0)
(0 0 0)
(0 0 0)
(-9.63789e-10 -1.88995e-09 2.34604e-09)
(1.23784e-09 -2.39339e-09 2.571e-09)
(7.63351e-10 -2.2537e-09 2.58988e-09)
(-6.00958e-11 -2.10561e-09 2.56528e-09)
(-8.70717e-10 -2.20936e-09 2.56708e-09)
(-1.28816e-09 -2.33098e-09 2.53114e-09)
(1.44945e-11 8.26213e-11 2.57298e-11)
(0 0 0)
(0 0 0)
(0 0 0)
(1.30763e-11 7.45239e-11 2.33356e-11)
(7.67964e-11 2.52226e-11 1.84044e-10)
(0 0 0)
(0 0 0)
(0 0 0)
(-2.01589e-11 1.54888e-11 1.75288e-10)
(1.21954e-10 -2.60138e-10 4.65342e-10)
(0 0 0)
(0 0 0)
(0 0 0)
(-6.47372e-11 -2.58167e-10 4.49821e-10)
(1.01792e-10 -5.41143e-10 7.56468e-10)
(0 0 0)
(0 0 0)
(0 0 0)
(-4.84554e-11 -5.29234e-10 7.36072e-10)
(7.57994e-11 -8.05835e-10 1.03762e-09)
(0 0 0)
(0 0 0)
(0 0 0)
(-3.03219e-11 -7.84801e-10 1.01341e-09)
(9.61552e-11 -1.05469e-09 1.3132e-09)
(0 0 0)
(0 0 0)
(0 0 0)
(-6.21895e-11 -1.02514e-09 1.28565e-09)
(2.32976e-10 -1.32347e-09 1.5661e-09)
(0 0 0)
(0 0 0)
(0 0 0)
(-2.13142e-10 -1.28607e-09 1.53547e-09)
(5.96827e-10 -1.81951e-09 1.72027e-09)
(0 0 0)
(0 0 0)
(0 0 0)
(-5.88499e-10 -1.77142e-09 1.68716e-09)
(8.91125e-10 -2.14992e-09 1.76893e-09)
(5.5074e-10 -1.98732e-09 1.82236e-09)
(-4.92139e-11 -1.83121e-09 1.86118e-09)
(-6.37706e-10 -1.94514e-09 1.80592e-09)
(-9.26708e-10 -2.09043e-09 1.7395e-09)
(-3.21731e-11 1.91759e-11 2.26034e-11)
(0 0 0)
(0 0 0)
(0 0 0)
(5.91777e-11 1.0482e-11 2.09587e-11)
(-4.43385e-11 -1.00384e-10 1.5031e-10)
(0 0 0)
(0 0 0)
(0 0 0)
(1.00987e-10 -1.11621e-10 1.44225e-10)
(-3.22188e-11 -3.80082e-10 3.83137e-10)
(0 0 0)
(0 0 0)
(0 0 0)
(9.17845e-11 -3.80137e-10 3.72002e-10)
(-5.58208e-11 -6.47448e-10 6.38902e-10)
(0 0 0)
(0 0 0)
(0 0 0)
(1.13829e-10 -6.37892e-10 6.23669e-10)
(-7.73893e-11 -8.84073e-10 8.8807e-10)
(0 0 0)
(0 0 0)
(0 0 0)
(1.2973e-10 -8.65554e-10 8.69401e-10)
(-5.17342e-11 -1.08206e-09 1.11518e-09)
(0 0 0)
(0 0 0)
(0 0 0)
(9.46572e-11 -1.05511e-09 1.09349e-09)
(8.98903e-11 -1.27436e-09 1.28986e-09)
(0 0 0)
(0 0 0)
(0 0 0)
(-5.90963e-11 -1.23964e-09 1.26553e-09)
(4.48334e-10 -1.6782e-09 1.35626e-09)
(0 0 0)
(0 0 0)
(0 0 0)
(-4.27435e-10 -1.63259e-09 1.32999e-09)
(7.25033e-10 -1.97339e-09 1.34412e-09)
(4.3396e-10 -1.83525e-09 1.3781e-09)
(-4.12009e-11 -1.69141e-09 1.41872e-09)
(-5.05072e-10 -1.79434e-09 1.36512e-09)
(-7.46171e-10 -1.9159e-09 1.32086e-09)
(-4.82604e-11 -1.9686e-12 2.83953e-11)
(0 0 0)
(0 0 0)
(0 0 0)
(7.51177e-11 -1.13068e-11 2.7226e-11)
(-8.65043e-11 -1.42446e-10 1.44467e-10)
(0 0 0)
(0 0 0)
(0 0 0)
(1.43558e-10 -1.55348e-10 1.40196e-10)
(-8.52617e-11 -4.20958e-10 3.35074e-10)
(0 0 0)
(0 0 0)
(0 0 0)
(1.46809e-10 -4.2323e-10 3.27212e-10)
(-1.06767e-10 -6.80406e-10 5.42417e-10)
(0 0 0)
(0 0 0)
(0 0 0)
(1.68564e-10 -6.73308e-10 5.31427e-10)
(-1.21508e-10 -8.94826e-10 7.42931e-10)
(0 0 0)
(0 0 0)
(0 0 0)
(1.79495e-10 -8.78835e-10 7.29148e-10)
(-8.87159e-11 -1.05651e-09 9.15548e-10)
(0 0 0)
(0 0 0)
(0 0 0)
(1.39107e-10 -1.03206e-09 8.99263e-10)
(5.70231e-11 -1.2077e-09 1.03252e-09)
(0 0 0)
(0 0 0)
(0 0 0)
(-1.70334e-11 -1.17536e-09 1.01409e-09)
(4.08606e-10 -1.57366e-09 1.06272e-09)
(0 0 0)
(0 0 0)
(0 0 0)
(-3.77097e-10 -1.53009e-09 1.04278e-09)
(6.75178e-10 -1.85523e-09 1.03483e-09)
(4.01651e-10 -1.73475e-09 1.0423e-09)
(-3.51905e-11 -1.60463e-09 1.06494e-09)
(-4.60613e-10 -1.69475e-09 1.03246e-09)
(-6.8458e-10 -1.79928e-09 1.0172e-09)
(-5.23163e-11 -7.52611e-12 2.66649e-11)
(0 0 0)
(0 0 0)
(0 0 0)
(7.91065e-11 -1.73131e-11 2.58717e-11)
(-9.58713e-11 -1.51007e-10 1.21846e-10)
(0 0 0)
(0 0 0)
(0 0 0)
(1.53263e-10 -1.65154e-10 1.18969e-10)
(-9.43625e-11 -4.24267e-10 2.67181e-10)
(0 0 0)
(0 0 0)
(0 0 0)
(1.57329e-10 -4.28322e-10 2.61872e-10)
(-1.11401e-10 -6.75394e-10 4.21174e-10)
(0 0 0)
(0 0 0)
(0 0 0)
(1.75924e-10 -6.70344e-10 4.13661e-10)
(-1.19915e-10 -8.74848e-10 5.67628e-10)
(0 0 0)
(0 0 0)
(0 0 0)
(1.82048e-10 -8.60975e-10 5.58056e-10)
(-8.14459e-11 -1.01718e-09 6.88815e-10)
(0 0 0)
(0 0 0)
(0 0 0)
(1.37408e-10 -9.94795e-10 6.77356e-10)
(6.65503e-11 -1.15177e-09 7.65075e-10)
(0 0 0)
(0 0 0)
(0 0 0)
(-1.96432e-11 -1.12135e-09 7.51998e-10)
(4.12039e-10 -1.50341e-09 7.80469e-10)
(0 0 0)
(0 0 0)
(0 0 0)
(-3.72496e-10 -1.46147e-09 7.66275e-10)
(6.73021e-10 -1.77739e-09 7.55143e-10)
(4.04234e-10 -1.66672e-09 7.49482e-10)
(-3.07747e-11 -1.54644e-09 7.58456e-10)
(-4.54242e-10 -1.62738e-09 7.42506e-10)
(-6.73631e-10 -1.72264e-09 7.42608e-10)
(-5.27243e-11 -8.24515e-12 1.97222e-11)
(0 0 0)
(0 0 0)
(0 0 0)
(7.94992e-11 -1.8316e-11 1.92335e-11)
(-9.55361e-11 -1.48968e-10 8.61627e-11)
(0 0 0)
(0 0 0)
(0 0 0)
(1.53194e-10 -1.63932e-10 8.4393e-11)
(-9.09501e-11 -4.15158e-10 1.83569e-10)
(0 0 0)
(0 0 0)
(0 0 0)
(1.54877e-10 -4.20443e-10 1.80297e-10)
(-1.03797e-10 -6.58433e-10 2.84426e-10)
(0 0 0)
(0 0 0)
(0 0 0)
(1.7015e-10 -6.54845e-10 2.79762e-10)
(-1.07843e-10 -8.48769e-10 3.78767e-10)
(0 0 0)
(0 0 0)
(0 0 0)
(1.72783e-10 -8.36438e-10 3.72766e-10)
(-6.57967e-11 -9.82531e-10 4.54948e-10)
(0 0 0)
(0 0 0)
(0 0 0)
(1.25566e-10 -9.61663e-10 4.47696e-10)
(8.31285e-11 -1.11202e-09 5.0115e-10)
(0 0 0)
(0 0 0)
(0 0 0)
(-3.14642e-11 -1.08301e-09 4.92817e-10)
(4.24123e-10 -1.45833e-09 5.09395e-10)
(0 0 0)
(0 0 0)
(0 0 0)
(-3.79026e-10 -1.41761e-09 5.00323e-10)
(6.81462e-10 -1.72778e-09 4.92122e-10)
(4.13213e-10 -1.62201e-09 4.84493e-10)
(-2.77581e-11 -1.50737e-09 4.87084e-10)
(-4.57103e-10 -1.58314e-09 4.80049e-10)
(-6.76022e-10 -1.67391e-09 4.84121e-10)
(-5.24816e-11 -7.92185e-12 1.03265e-11)
(0 0 0)
(0 0 0)
(0 0 0)
(7.92619e-11 -1.815e-11 1.00942e-11)
(-9.40368e-11 -1.45575e-10 4.42299e-11)
(0 0 0)
(0 0 0)
(0 0 0)
(1.51868e-10 -1.60999e-10 4.33886e-11)
(-8.71297e-11 -4.06205e-10 9.29139e-11)
(0 0 0)
(0 0 0)
(0 0 0)
(1.51616e-10 -4.12196e-10 9.13558e-11)
(-9.73116e-11 -6.44019e-10 1.42596e-10)
(0 0 0)
(0 0 0)
(0 0 0)
(1.64718e-10 -6.41291e-10 1.40366e-10)
(-9.87963e-11 -8.29507e-10 1.88554e-10)
(0 0 0)
(0 0 0)
(0 0 0)
(1.65354e-10 -8.18098e-10 1.85668e-10)
(-5.48864e-11 -9.59996e-10 2.25192e-10)
(0 0 0)
(0 0 0)
(0 0 0)
(1.16863e-10 -9.40042e-10 2.21685e-10)
(9.43211e-11 -1.08844e-09 2.47062e-10)
(0 0 0)
(0 0 0)
(0 0 0)
(-3.98862e-11 -1.06029e-09 2.43017e-10)
(4.32608e-10 -1.43288e-09 2.50769e-10)
(0 0 0)
(0 0 0)
(0 0 0)
(-3.84261e-10 -1.3929e-09 2.46355e-10)
(6.87752e-10 -1.69994e-09 2.42287e-10)
(4.19288e-10 -1.59631e-09 2.3774e-10)
(-2.60064e-11 -1.48436e-09 2.38227e-10)
(-4.59624e-10 -1.55773e-09 2.35583e-10)
(-6.7878e-10 -1.64663e-09 2.38398e-10)
(-2.84205e-11 -1.47719e-11 0)
(1.50108e-12 -2.66412e-11 0)
(4.1579e-14 -3.92349e-11 0)
(1.60121e-12 -2.99771e-11 0)
(5.03578e-11 -2.55669e-11 0)
(-3.33345e-11 -1.4795e-10 0)
(4.87206e-12 -1.7295e-10 0)
(2.02515e-12 -1.94905e-10 0)
(5.88326e-12 -1.78368e-10 0)
(7.10105e-11 -1.60423e-10 0)
(-2.77773e-11 -4.01924e-10 0)
(3.45518e-12 -4.15126e-10 0)
(5.24894e-12 -4.29499e-10 0)
(1.41921e-11 -4.17412e-10 0)
(7.2511e-11 -4.06971e-10 0)
(-3.74232e-11 -6.37267e-10 0)
(-4.84012e-12 -6.47818e-10 0)
(6.58572e-12 -6.59221e-10 0)
(2.48569e-11 -6.46122e-10 0)
(8.47293e-11 -6.34856e-10 0)
(-3.81968e-11 -8.28439e-10 0)
(-7.37317e-12 -8.55847e-10 0)
(5.4594e-12 -8.7587e-10 0)
(2.51049e-11 -8.49892e-10 0)
(8.40124e-11 -8.18475e-10 0)
(7.86024e-12 -9.78039e-10 0)
(2.33096e-11 -1.04278e-09 0)
(1.87572e-12 -1.07915e-09 0)
(-1.25431e-11 -1.03259e-09 0)
(3.23799e-11 -9.60616e-10 0)
(1.61788e-10 -1.13688e-09 0)
(1.2864e-10 -1.2363e-09 0)
(-4.29446e-12 -1.27588e-09 0)
(-1.29544e-10 -1.222e-09 0)
(-1.30726e-10 -1.11223e-09 0)
(4.76187e-10 -1.48599e-09 0)
(3.14505e-10 -1.54078e-09 0)
(-1.36371e-11 -1.52917e-09 0)
(-3.32099e-10 -1.5202e-09 0)
(-4.55436e-10 -1.45056e-09 0)
(6.90607e-10 -1.72456e-09 0)
(4.22242e-10 -1.66437e-09 0)
(-2.23222e-11 -1.58033e-09 0)
(-4.55459e-10 -1.63271e-09 0)
(-6.89219e-10 -1.67655e-09 0)
)
;

boundaryField
{
    interface
    {
        type            calculated;
    }
    symmetry
    {
        type            symmetry;
    }
    bottom
    {
        type            calculated;
    }
}


// ************************************************************************* //
