/*--------------------------------*- C++ -*----------------------------------*\
| =========                 |                                                 |
| \\      /  F ield         | OpenFOAM: The Open Source CFD Toolbox           |
|  \\    /   O peration     | Version:  v1912                                 |
|   \\  /    A nd           | Website:  www.openfoam.com                      |
|    \\/     M anipulation  |                                                 |
\*---------------------------------------------------------------------------*/
FoamFile
{
    version     2.0;
    format      ascii;
    class       volSymmTensorField;
    location    "0.36/solid";
    object      sigma;
}
// * * * * * * * * * * * * * * * * * * * * * * * * * * * * * * * * * * * * * //

dimensions      [1 -1 -2 0 0 0 0];


internalField   nonuniform List<symmTensor> 
256
(
(-285904 13492.2 -4922.17 267330 13765 -307931)
(21722.1 -10080 -1846.2 171268 14079.9 -313224)
(22506.1 13050.1 1871.28 169592 14435.4 -309531)
(-267928 -11861.7 5073.69 265232 15075.9 -293691)
(-321950 -2005.23 -6968.63 36264.9 -1949.26 -342085)
(-56164.6 -3854.5 -2881.06 15624.6 -1062.08 -355476)
(-55159.8 6236.16 3038.54 14163.6 -813 -351610)
(-302272 3043.24 7238.24 37649.8 -1053.54 -326881)
(-323999 -2705.04 -7389.49 44039 -3051.84 -343806)
(-60517.1 -2141.99 -3122.67 2384.26 -2842.89 -361251)
(-59552.9 3950.91 3337.31 1062.17 -2674.36 -357295)
(-303962 3455.19 7692.14 46015.3 -2431.24 -328285)
(-327314 -1144.65 -7581.77 59870 -1796.31 -348431)
(-54213.3 -1135.63 -3207.21 2338.61 -1746.01 -367292)
(-53241.7 2469.42 3425.96 1187.57 -1620.06 -363261)
(-306966 1704.64 7891.15 62316.6 -1324.15 -332668)
(-339345 53.1516 -7644.31 66247.2 -460.372 -361657)
(-51965.7 -413.298 -3229.44 2722.59 -374.435 -380877)
(-50970 1357.61 3437.66 1660.04 -267.463 -376798)
(-318771 344.322 7955.73 68972 -66.0199 -345728)
(-363940 1386.26 -7574.44 57738.3 1291.87 -386582)
(-58258.5 260.068 -3193.85 -5220.99 1417.81 -406933)
(-57293.8 317.518 3398.28 -6262.33 1521.56 -402835)
(-343387 -1182.15 7892.59 60529.1 1653.56 -370564)
(-410172 4479.12 -7356.28 -32199.7 4628.05 -432884)
(-84723.8 1416.82 -3092.69 -86197.7 4868.97 -458192)
(-83871.9 -1306.82 3313.42 -86736.3 4980.31 -454052)
(-390133 -4566.25 7686.54 -28413.8 4979.76 -416720)
(-391168 7008.48 -6939.67 -415618 7691.08 -415555)
(-38426.6 3002.83 -2911.45 -450826 8083.11 -450668)
(-37360.4 -3090.78 3147.76 -446551 8185.75 -446369)
(-371944 -7245.28 7258.57 -399367 7979.36 -399301)
(-278796 9671.2 -3527.86 146619 -13762.2 13045.6)
(-26710.4 -10090.4 -596.994 48735.9 -7047.08 -31987.6)
(-26562.5 11629 880.39 45995.5 -6209.29 -32723.5)
(-260843 -8578.38 3729.25 142958 -11148.1 16143.8)
(-317593 -2347.05 -4857.47 11991.8 -4976.3 -49940.4)
(-96081.5 -4015.61 -1347.35 -20848.7 -1794.98 -97305)
(-95497.1 5137.58 1857.51 -23141.2 -1243.37 -98019.5)
(-297848 2835.69 5179.69 11962.5 -3139.5 -46115.9)
(-323009 -2789.89 -4905.18 5797.18 -3958.3 -52606.3)
(-107019 -2396.82 -1398.34 -46878.7 -2910.61 -108467)
(-106452 3187.57 1965.49 -48851.5 -2509.86 -109302)
(-302876 3097.67 5252.9 6655.9 -2567.46 -49082.9)
(-327994 -1266.82 -4909.54 8629.48 -3550.47 -49589.3)
(-104587 -1395.17 -1346.15 -58815.3 -3159.19 -109066)
(-104017 1936.95 1896.18 -60617.2 -2837.85 -109967)
(-307499 1491.19 5256.02 9936.8 -2424.9 -46234)
(-340704 -0.613372 -4924.18 9378 -2031.34 -50088.8)
(-103437 -629.237 -1329.3 -63540.3 -1824.55 -110169)
(-102842 955.077 1849.37 -65291.8 -1545.88 -111118)
(-319850 140.582 5267.46 10892 -1070.91 -46830.4)
(-366686 1470.23 -4849.22 949.095 206.037 -56638.4)
(-109546 126.212 -1288.94 -70433.3 309.961 -116185)
(-108972 -28.1213 1792.14 -72168.8 558.831 -117199)
(-345621 -1466.85 5195.68 2542.13 1044.74 -53513.1)
(-417900 4725.94 -4633.48 -79542.7 2274.81 -80185.2)
(-136108 1371.95 -1203.15 -139680 2356.06 -139914)
(-135631 -1572.65 1678.83 -140831 2557.01 -140941)
(-397079 -4958.93 4973.66 -76774.8 2943.95 -77122.9)
(-410372 7397.05 -4342.97 -432941 4716.44 -32442.5)
(-84766.4 3146.23 -1164.03 -458288 4932.36 -85973)
(-83879.3 -3278.67 1476.99 -454128 5037.96 -86344.8)
(-390151 -7680.47 4598.11 -416670 5042.47 -28275.3)
(-239500 7283.15 -1625 119025 -355.126 61179.8)
(-21739.6 -10659.4 5.28157 24764.3 4979.67 7854.94)
(-21540.1 11397.2 283.583 22197.7 5653.15 6945.23)
(-221435 -6530.76 1733.72 116525 1721.34 64361.5)
(-267011 -2257.5 -1983.81 26092 1326.11 27043.9)
(-69813.4 -4149.07 -209.379 -10350.2 4016 -30601)
(-69203.2 4629.38 703.52 -12643.1 4579.98 -31647.3)
(-247339 2493.38 2187.62 26181.1 3119.56 30500.7)
(-271723 -2623.11 -1756.97 26881.1 -39.1209 22262.1)
(-78942.5 -2458.35 -127.945 -27592.9 943.179 -44225.2)
(-78342.2 2731.18 642.884 -29603.9 1413.03 -45439.5)
(-251688 2724.62 1977.79 27638.3 1483.78 25242.4)
(-276901 -1273.77 -1637.51 29602 -1223.14 23471.9)
(-77290 -1505.03 -38.5366 -38304.5 -831.56 -47010.6)
(-76679 1644.85 515.157 -40155.1 -427.715 -48334.2)
(-256483 1339.01 1848.3 30760.7 90.5335 26145.4)
(-289499 -14.2959 -1621.32 29511.6 -910.762 23397.9)
(-76695.6 -731.092 -21.4551 -43592.2 -716.323 -47961.4)
(-76046.7 762.327 456.653 -45390.9 -360.363 -49368.1)
(-268646 39.8924 1820.33 30890.2 236.065 25871.7)
(-315333 1570.94 -1582.93 21654.3 287.827 18521.1)
(-82992.7 102.22 -10.8417 -49853.8 360.661 -52305.1)
(-82346.3 -195.445 412.669 -51617.7 667.778 -53799.2)
(-294106 -1640.5 1773.76 23185.4 1270.5 20815.6)
(-366715 4929.64 -1444.91 -55114.2 881.089 -370.574)
(-109111 1425.7 28.4579 -114957 921.723 -70949)
(-108534 -1715.49 303.236 -116104 1147.76 -72426.3)
(-345462 -5197.05 1611.61 -52294.8 1617.33 1945.29)
(-364179 7602.19 -1284.03 -386469 1666.98 57619.2)
(-57896.6 3228.25 24.9844 -406772 1743.97 -4494.65)
(-56890.1 -3371.67 69.9545 -402619 1831.18 -5199.74)
(-343243 -7893.61 1348.58 -370227 1954.25 61294.5)
(-217433 6140.57 -706.766 107275 3624.1 61027)
(-21277.1 -10783 231.663 14990.4 6751.58 5862.51)
(-21064 11072.2 35.6662 12721.1 7248.27 5121.58)
(-199472 -5633.27 781.699 106028 5149.04 64875.3)
(-240771 -2133.15 -805.07 24726.7 4168.49 37854.8)
(-62214.3 -4158.95 287.527 -14432.1 5837.59 -22473.5)
(-61618.9 4290.05 175.663 -16530.9 6304.64 -23336.1)
(-221346 2228.99 957.185 25361.3 5617.39 41921.5)
(-245058 -2416.12 -585.625 29627.7 2641.01 33289.8)
(-69969.1 -2427.19 401.539 -26414.1 3311.85 -35489.7)
(-69375.1 2426.14 75.3793 -28325.6 3736.25 -36524.2)
(-225289 2413.94 751.949 30614 3970.91 36840.8)
(-250410 -1213.39 -452.952 34920.6 927.133 32032.4)
(-68605.2 -1526.34 479.057 -33704.9 1228.32 -40597.4)
(-67994.3 1461.58 -45.906 -35499.2 1612.5 -41758.2)
(-230252 1200.01 606.982 36178.9 2135.28 35212.3)
(-263104 -16.0287 -426.689 35935.1 149.206 30227.3)
(-68490.2 -776.8 486.583 -37727.4 328.717 -43353.4)
(-67836.7 670.48 -101.652 -39481.9 673.053 -44618)
(-242474 -10.8287 564.311 37380 1227.7 33143.1)
(-288993 1611.66 -423.541 28163 92.4881 24904.5)
(-75285.2 93.431 470.484 -43970.8 191.663 -48247.1)
(-74625.6 -261.026 -133.302 -45690.6 483.877 -49608)
(-267901 -1707.35 544.798 29776.3 1009.57 27619.8)
(-340166 5032.9 -375.042 -47283.2 -158.454 7756.54)
(-101419 1468.07 461.592 -107687 -88.5534 -65099.6)
(-100812 -1785.35 -214.913 -108792 116.833 -66422.6)
(-318878 -5306.25 463.229 -44358.9 506.368 10555.6)
(-338908 7695.64 -309.046 -361052 496.303 67865)
(-49743.9 3265.19 423.953 -380151 544.125 4431.73)
(-48691 -3423.75 -411.337 -375973 614.033 3925.66)
(-317678 -7992.81 298.86 -344740 733.861 72139.4)
(-204523 5625.85 -335.48 101866 3770.59 58800.6)
(-21348.3 -10686.5 215.676 10611.1 5459.21 3407.62)
(-21143.8 10718.4 -0.310377 8588.19 5813.82 2798.46)
(-186653 -5280.38 395.231 101605 4850.37 63134.6)
(-226295 -2050.18 -371.505 22593.8 4155.88 39227)
(-59736.4 -4115.15 326.182 -18062.5 5114.87 -21102.1)
(-59186 4045.38 59.7267 -19981.2 5464 -21803.1)
(-207070 2062.11 495.564 23759.1 5224.8 43793.1)
(-230462 -2274.2 -235.113 28521.6 3260.17 35705)
(-66893.3 -2388.34 415.254 -28357.5 3684.91 -32619.4)
(-66339.6 2231.28 -10.6647 -30169.6 4018.01 -33485.1)
(-210907 2214.39 372.885 29789.9 4288.99 39763.3)
(-235958 -1152.92 -142.227 35338.5 1850.9 33480.9)
(-65687 -1525.09 464.019 -33631.1 2070.88 -38497)
(-65111.7 1346.3 -95.6671 -35375 2383.48 -39494)
(-216009 1096.88 269.753 36739.4 2821.43 37146.5)
(-248734 -12.2592 -120.167 37494.4 733.915 30490.4)
(-65847.4 -801.047 462.206 -36419 894.349 -42449.4)
(-65227.3 621.02 -140.152 -38146.3 1179.03 -43559.1)
(-228298 -42.1948 231.315 39015.6 1617.9 33860)
(-274606 1620.61 -128.765 30031.7 57.6775 24691)
(-72932.2 82.7565 436.689 -42422.9 178.599 -47930.4)
(-72302 -288.729 -165.975 -44127.2 419.161 -49140)
(-253662 -1729.1 221.157 31697 810.553 27848.1)
(-325429 5077.15 -123.725 -44238 -457.997 7999.31)
(-99086 1491.15 407.355 -105007 -359.032 -64406.2)
(-98498 -1825.66 -225.086 -106106 -193.032 -65569)
(-304191 -5354 182.747 -41269.3 81.6701 11265.2)
(-324281 7737 -111.758 -346095 124.846 67783.9)
(-47122.5 3282.78 351.526 -365099 176.19 5202.28)
(-46075.8 -3458.1 -367.723 -360911 230.981 4873.28)
(-302922 -8042.24 86.5048 -329727 313.322 72570.8)
(-196714 5377.9 -182.678 99050.4 2966.98 57725.3)
(-21487.7 -10577.5 136.817 8195.68 3859.69 2168.3)
(-21288.5 10460.6 17.3901 6352.4 4097.37 1646.69)
(-178876 -5132.37 227.302 99499 3683.22 62398)
(-217764 -2002.6 -202.873 21457.8 3153.1 39423.5)
(-58753.7 -4076.84 219.055 -20181.6 3692.16 -20779.2)
(-58237.8 3890.08 65.1553 -21964 3930.44 -21371.6)
(-198643 1964.73 296.794 23047.3 3876.16 44353.2)
(-221912 -2196.01 -130.468 27449.3 2699.71 36730.9)
(-65668.9 -2366.56 273.682 -30054.5 2964 -31169.6)
(-65147.5 2117.1 30.9504 -31786.1 3197.29 -31918.8)
(-202467 2102.52 236.576 28976 3415.36 41173.3)
(-227497 -1115.39 -78.6715 34766.9 1781.7 34447.6)
(-64558.1 -1525.93 298.448 -34560.3 1937.93 -36993.3)
(-64011.9 1278.11 -18.0753 -36263 2161.96 -37873.6)
(-207658 1034.05 178.007 36315.5 2474.17 38495.5)
(-240316 -9.68309 -66.0845 37543.3 838.987 30968.3)
(-64870.5 -817.775 291.96 -36679.7 967.527 -41447.9)
(-64278.1 591.227 -48.1569 -38389 1174.27 -42444.2)
(-219980 -61.8372 152.346 39145.1 1480.12 34707.3)
(-266136 1620.61 -75.2157 30449.7 115.664 24764.8)
(-72114.8 73.0582 269.313 -42364.2 226.665 -47423.8)
(-71510.1 -306.324 -69.186 -44064.4 401.792 -48522)
(-245266 -1738.23 145.237 32160.3 665.128 28282.9)
(-316636 5101.59 -81.1681 -42762 -361.656 7902.06)
(-98285.9 1506.69 241.419 -103936 -264.013 -64163.7)
(-97717.9 -1857.13 -112.72 -105039 -143.631 -65213)
(-295414 -5382.97 123.788 -39763.6 32.2205 11533.8)
(-315222 7766.47 -86.6196 -336742 26.0581 67122.9)
(-45987.3 3297.87 189.063 -355995 78.9064 5123.22)
(-44951.6 -3488.2 -209.128 -351804 118.511 4915.44)
(-293767 -8080.06 65.4305 -320332 163.2 72294.8)
(-192182 5246.7 -98.4841 97537.5 1861.04 57311.1)
(-21592.4 -10510.7 69.497 6795.69 2301.24 1544.64)
(-21394.7 10312.4 22.6239 5068.5 2437.86 1077.34)
(-174347 -5058.17 125.948 98439.9 2269.29 62200.4)
(-212861 -1979.55 -112.179 20914.3 1916.48 39522.6)
(-58302.9 -4056.39 113.62 -21371.6 2195.07 -20738.1)
(-57807.1 3805.04 59.2838 -23064.1 2333.12 -21263.5)
(-193786 1914.05 170.579 22792.2 2332.77 44690.6)
(-217010 -2157.83 -78.1741 26823 1694.76 37294)
(-65114.8 -2358.29 141.549 -31141.8 1843.03 -30510.3)
(-64612.3 2056.31 46.8723 -32817.4 1979.99 -31186.3)
(-197616 2045.37 145.046 28539.1 2113.33 41994)
(-222641 -1097.25 -53.8429 34221.6 1197.09 35189.2)
(-64054.4 -1530 152.124 -35431.6 1293.2 -36109)
(-63525.2 1241.1 23.1537 -37104.3 1426.51 -36914.9)
(-202850 1001.03 117.139 35887.3 1608.47 39499.2)
(-235475 -9.52713 -48.595 37244.3 615.706 31584.1)
(-64444.6 -829.637 146.076 -37283.5 699.087 -40708.8)
(-63868.4 573.312 6.4356 -38979.9 823.249 -41631.7)
(-215182 -72.8261 103.719 38913.5 1000.96 35580.4)
(-261244 1619.94 -54.6635 30417.8 126.001 25107.7)
(-71776.5 66.8045 131.553 -42728.8 201.432 -47017.1)
(-71186.7 -319.771 -7.62989 -44427 307.046 -48043.3)
(-240405 -1744.29 99.0861 32165.9 458.306 28877.3)
(-311517 5119.14 -59.5352 -42039.7 -188.521 7956.82)
(-97963.9 1518.77 113.789 -103565 -120.296 -64107.5)
(-97407.8 -1882.12 -35.5995 -104672 -47.6111 -65085)
(-290294 -5404.76 86.2761 -39018.8 50.447 11838.1)
(-309809 7791.37 -65.8918 -331173 7.92508 66794.8)
(-45368.1 3311.66 78.3876 -350696 46.9742 4955.18)
(-44338.9 -3513.11 -91.9258 -346503 70.9181 4823.43)
(-288287 -8111.54 53.0651 -314732 91.2153 72225.9)
(-190084 5186.1 -31.781 96864.1 631.83 57182.2)
(-21640.9 -10482.2 20.8299 6141.06 765.691 1274.55)
(-21443.2 10248.1 9.77357 4470.66 810.243 833.535)
(-172246 -5023.43 41.0113 97986.8 764.377 62177.2)
(-210596 -1971.11 -36.9648 20690.8 640.123 39597.3)
(-58107.8 -4048.69 34.2574 -21921.2 726.945 -20753.2)
(-57621 3768.72 23.6918 -23569.3 772.113 -21246.2)
(-191539 1893.33 56.7131 22713.4 775.884 44883.4)
(-214747 -2142.6 -27.0714 26546.6 571.195 37564.9)
(-64878.3 -2356.14 42.7306 -31664.8 619.46 -30266.9)
(-64384.4 2030.31 20.9584 -33312 664.531 -30907.3)
(-195372 2021.59 49.8495 28361.4 708.688 42394)
(-220396 -1090.46 -20.0653 33933.1 414.518 35586.8)
(-63838.5 -1533.27 45.5827 -35910.5 447.221 -35724.5)
(-63317 1224.95 14.0301 -37567.4 491.363 -36493.7)
(-200624 987.23 41.7593 35662.4 550.655 40029.7)
(-233233 -10.1182 -18.7682 37030.6 222.094 31969.5)
(-64260.9 -835.925 43.2245 -37680.4 250.983 -40349.9)
(-63691.9 564.731 8.73268 -39369.6 292.292 -41236.4)
(-212957 -77.6328 37.7106 38737.8 350.336 36097.4)
(-258973 1619.82 -20.8429 30333.2 53.9487 25362.3)
(-71632.3 63.9767 38.3072 -43008.4 80.388 -46817.8)
(-71049.2 -327.469 3.78048 -44705.2 115.623 -47808.4)
(-238144 -1747.83 36.0832 32103 164.989 29260.5)
(-309131 5129.2 -22.4512 -41743.8 -54.1948 8033.94)
(-97830.1 1525.79 32.3788 -103469 -30.0968 -64113.8)
(-97279.4 -1896.34 -5.96992 -104578 -5.8133 -65056.2)
(-287904 -5417.3 31.6147 -38710.2 25.8396 12041.9)
(-307250 7806.2 -24.8332 -328559 2.96567 66696.3)
(-45064 3319.99 20.0389 -348240 17.1391 4855.14)
(-44037.7 -3527.35 -24.5877 -344047 25.1443 4760.45)
(-285692 -8129.93 20.6154 -312101 30.8803 72258.5)
)
;

boundaryField
{
    interface
    {
        type            calculated;
        value           nonuniform List<symmTensor> 
192
(
(-53.9235 0.316737 3.42511 861051 13765 285790)
(-55.8766 0.127668 5.24464 627706 -1949.26 249356)
(-56.9951 -0.220941 5.64884 644193 -3051.84 256348)
(-57.7059 -0.618861 5.66447 674405 -1796.31 266104)
(-57.7258 -0.958195 5.50901 705668 -460.372 277764)
(-58.4559 -1.60475 5.29186 738720 1291.87 294399)
(-56.6401 -2.06639 4.8053 714966 4628.05 314282)
(-60.0049 -4.43775 4.40806 333095 7691.08 333158)
(-52.3731 0.20699 1.73185 693426 -13762.2 559853)
(-53.348 0.0259862 2.82835 568874 -4976.3 506942)
(-54.0016 -0.298477 3.01701 572976 -3958.3 514573)
(-54.5029 -0.718231 2.97037 590585 -3550.47 532366)
(-54.3488 -1.08802 2.82399 616572 -2031.34 557105)
(-55.055 -1.81263 2.64146 651835 206.037 594247)
(-53.014 -2.32858 2.32642 645548 2274.81 644905)
(-56.664 -4.84354 2.06365 314472 4716.44 714971)
(-55.2233 0.17355 1.38609 596753 -355.126 538907)
(-56.1005 -0.0196507 2.24372 510504 1326.11 511456)
(-56.7551 -0.353893 2.38857 520870 -39.1209 516251)
(-57.258 -0.812399 2.34875 537947 -1223.14 531817)
(-56.9892 -1.23026 2.23087 562554 -910.762 556440)
(-57.5903 -2.04471 2.08172 598012 287.827 594879)
(-55.06 -2.64417 1.84336 595991 881.089 650735)
(-58.5083 -5.34629 1.6314 294994 1666.98 739082)
(-55.3484 0.123673 0.872327 544116 3624.1 497868)
(-56.0291 -0.0876717 1.47556 466720 4168.49 479848)
(-56.5402 -0.427309 1.57083 480815 2641.01 484477)
(-56.9618 -0.9035 1.53158 500349 927.133 497461)
(-56.5972 -1.34561 1.43898 525919 149.206 520211)
(-57.1467 -2.2019 1.32642 561275 92.4881 558016)
(-54.4587 -2.83883 1.16882 560186 -158.454 615226)
(-57.9026 -5.59823 1.03162 278878 496.303 707795)
(-56.1813 0.101997 0.646633 514584 3770.59 471519)
(-56.8006 -0.12729 1.09139 439921 4155.88 456554)
(-57.2482 -0.480242 1.16254 454915 3260.17 462099)
(-57.6303 -0.975122 1.13343 475973 1850.9 474115)
(-57.1919 -1.44128 1.06492 502648 733.915 495644)
(-57.671 -2.33325 0.98034 538138 57.6775 532797)
(-54.7985 -3.00536 0.867197 537614 -457.997 589851)
(-58.1274 -5.81757 0.76533 268352 124.846 682231)
(-56.3595 0.0838704 0.403235 497238 2966.98 455913)
(-56.925 -0.159382 0.696784 424025 3153.1 441991)
(-57.3146 -0.52198 0.743886 439046 2699.71 448328)
(-57.6605 -1.02805 0.722989 460622 1781.7 460303)
(-57.1746 -1.50817 0.676437 487896 838.987 481321)
(-57.6176 -2.41926 0.619641 523589 115.664 517904)
(-54.6613 -3.1102 0.548029 523557 -361.656 574221)
(-57.9577 -5.95055 0.48432 261758 26.0581 665622)
(-56.6306 0.075814 0.238594 487345 1861.04 447119)
(-57.1777 -0.177227 0.410966 414988 1916.48 433596)
(-57.5371 -0.548101 0.439002 429916 1694.76 440387)
(-57.8627 -1.06272 0.426823 451585 1197.09 452552)
(-57.3444 -1.55325 0.399746 479083 615.706 473423)
(-57.7557 -2.47759 0.365979 514915 126.001 509605)
(-54.7307 -3.18202 0.324766 515230 -188.521 565226)
(-57.9843 -6.0425 0.286399 257843 7.92508 655811)
(-56.6847 0.0702415 0.0720456 482813 631.83 443131)
(-57.2179 -0.187471 0.127632 410855 640.123 429761)
(-57.5601 -0.561679 0.136695 425727 571.195 436746)
(-57.8747 -1.07958 0.132485 447388 414.518 449042)
(-57.344 -1.57456 0.123687 474948 222.094 469887)
(-57.7419 -2.5041 0.11268 510840 53.9487 505870)
(-54.6973 -3.21478 0.100063 511326 -54.1948 561104)
(-57.9302 -6.0839 0.0878142 256006 2.96567 651262)
(346827 13492.2 -5.07598 900062 -0.926457 -22.1793)
(307384 -2005.23 -8.07655 665599 -0.917983 -17.2851)
(314221 -2705.04 -8.82341 682259 -0.624647 -14.3018)
(326032 -1144.65 -8.95739 713216 -0.431594 -13.6379)
(339558 53.1516 -8.91969 745150 -0.363939 -14.128)
(357034 1386.26 -8.89237 778712 -0.421179 -15.487)
(378299 4479.12 -8.8521 756272 -0.512736 -18.0014)
(402038 7008.48 -9.39501 377588 -0.725331 -20.2884)
(635203 -10080 -3.42298 784749 -0.496692 -28.3818)
(567756 -3854.5 -6.00183 639545 -0.569812 -27.2968)
(574051 -2141.99 -6.56539 636952 -0.359575 -26.4862)
(595732 -1135.63 -6.62809 652284 -0.171748 -26.3744)
(623705 -413.298 -6.60579 678393 -0.0604836 -26.5976)
(661392 260.068 -6.64216 714429 -0.0128125 -27.1161)
(710265 1416.82 -6.77169 708791 -0.0189728 -27.928)
(779800 3002.83 -7.54029 367401 -0.0970551 -28.5492)
(628999 13050.1 -3.63578 776085 -0.304483 -25.1185)
(561381 6236.16 -6.36027 630704 -0.356711 -24.3085)
(567347 3950.91 -6.99351 627962 -0.193901 -23.5943)
(588868 2469.42 -7.07045 643297 -0.00654882 -23.4648)
(616767 1357.61 -7.02664 669397 0.133589 -23.7058)
(654358 317.518 -7.00784 705390 0.252669 -24.1897)
(703015 -1306.82 -7.04408 700151 0.330948 -25.081)
(772795 -3090.78 -7.72224 363604 0.343893 -26.0474)
(341319 -11861.7 -4.27475 874478 -0.220303 -25.7963)
(302239 3043.24 -7.46611 642160 -0.236966 -25.3018)
(308594 3455.19 -8.24655 658571 -0.0822734 -24.7477)
(320202 1704.64 -8.3558 689485 0.11394 -24.6803)
(333638 344.322 -8.28885 721382 0.26571 -24.9006)
(350863 -1182.15 -8.24454 754779 0.425473 -25.2068)
(371275 -4566.25 -8.16277 732994 0.553796 -25.8005)
(394595 -7245.28 -8.82714 367172 0.701974 -26.4478)
(-11.3483 0.936738 1.74101 829234 15075.9 270311)
(-7.00924 0.757114 2.95647 597511 -1053.54 232980)
(-4.54245 0.149825 3.20625 613937 -2431.24 239637)
(-3.623 -0.410389 3.23396 644078 -1324.15 249094)
(-3.84921 -0.728456 3.19636 675254 -66.0199 260554)
(-2.98749 -1.22673 3.28481 708377 1653.56 277284)
(-4.81413 -1.23799 3.24177 686435 4979.76 298129)
(4.44597 -3.59487 3.64467 319062 7979.36 319128)
(-18.9507 0.334429 0.157916 659123 -11148.1 532308)
(-18.0336 0.210865 0.622543 536536 -3139.5 478458)
(-17.4326 -0.137502 0.64321 540813 -2567.46 485074)
(-16.9242 -0.516728 0.617915 558194 -2424.9 502024)
(-16.9786 -0.695303 0.626488 583760 -1070.91 526038)
(-15.322 -1.09763 0.779997 618668 1044.74 562613)
(-15.9343 -0.85803 0.925716 613852 2943.95 613504)
(-4.7411 -3.2003 1.31707 298172 5042.47 686566)
(-18.9351 0.170396 0.399687 563799 1721.34 511636)
(-18.2293 0.0219908 0.928915 478578 3119.56 482898)
(-17.6893 -0.235005 1.03151 488902 1483.78 486506)
(-17.0531 -0.555768 1.04266 505659 90.5335 501044)
(-16.9707 -0.672968 1.05079 529726 236.065 524708)
(-14.8772 -1.04433 1.14131 564636 1270.5 562266)
(-15.1988 -0.705841 1.19617 563750 1617.33 617990)
(-2.73324 -3.24223 1.35072 277532 1954.25 709054)
(-20.8404 0.0713206 0.221515 512891 5149.04 471738)
(-20.4469 -0.0953638 0.639442 435893 5617.39 452453)
(-20.1274 -0.30008 0.730047 449641 3970.91 455867)
(-19.4683 -0.56974 0.741849 468704 2135.28 467738)
(-19.2621 -0.625366 0.747621 493635 1227.7 489398)
(-16.7546 -0.955086 0.81024 528312 1009.57 526156)
(-16.663 -0.537367 0.844417 528099 506.368 583013)
(-3.26375 -3.15577 0.933999 261067 733.861 677946)
(-21.0458 0.0553708 0.262633 484700 4850.37 446229)
(-20.6588 -0.123529 0.612267 410037 5224.8 430071)
(-20.3317 -0.318383 0.699134 424444 4288.99 434417)
(-19.5955 -0.576504 0.713883 444880 2821.43 445288)
(-19.3102 -0.609845 0.714305 470815 1617.9 465659)
(-16.5875 -0.929264 0.743209 505523 810.553 501674)
(-16.3532 -0.483041 0.74294 505701 81.6701 558236)
(-2.42408 -3.19184 0.765031 250414 313.322 652712)
(-21.5773 0.0478435 0.169144 468256 3683.22 431155)
(-21.2104 -0.137063 0.410253 394796 3876.16 416102)
(-20.8875 -0.327399 0.47309 409070 3415.36 421267)
(-20.1008 -0.578487 0.484174 429908 2474.17 432088)
(-19.7487 -0.59562 0.48446 456353 1480.12 451915)
(-16.8519 -0.905872 0.501636 491182 665.128 487304)
(-16.477 -0.439105 0.499394 491738 32.2205 543036)
(-2.15708 -3.20138 0.509294 243725 163.2 636352)
(-21.6788 0.0489827 0.117048 458913 2269.29 422674)
(-21.3021 -0.139256 0.262868 386168 2332.77 408066)
(-20.9635 -0.32984 0.301614 400253 2113.33 413708)
(-20.1395 -0.580241 0.308489 421108 1608.47 424719)
(-19.7495 -0.591327 0.308186 447717 1000.96 444384)
(-16.7607 -0.899301 0.315046 482629 458.306 479341)
(-16.3253 -0.42409 0.310681 483462 50.447 534319)
(-1.77958 -3.22428 0.309573 239752 91.2153 626709)
(-21.8045 0.0481644 0.0330376 454641 764.377 418831)
(-21.4291 -0.141187 0.0801194 382231 775.884 404401)
(-21.0849 -0.331166 0.0928514 396216 708.688 410249)
(-20.2433 -0.580474 0.0950631 417026 550.655 421394)
(-19.8303 -0.588245 0.0952806 443666 350.336 441026)
(-16.7939 -0.894004 0.0976637 478611 164.989 475768)
(-16.3145 -0.414705 0.0972444 479579 25.8396 530332)
(-1.66263 -3.23194 0.0969884 237884 30.8803 622244)
(402232 9.43608 -6939.67 -19.9993 -0.663604 377845)
(378429 8.90869 -4342.97 -17.5476 -0.449905 756359)
(357245 8.97328 -1284.03 -14.7125 -0.331584 779043)
(340532 9.03773 -309.046 -12.8602 -0.217231 747306)
(329367 9.14326 -111.758 -11.4519 -0.166647 721431)
(322208 9.20753 -86.6196 -10.4547 -0.103989 704553)
(317959 9.25933 -65.8918 -9.82916 -0.0650669 694563)
(315981 9.28214 -24.8332 -9.52466 -0.0195065 689927)
(780000 7.56668 -2911.45 -28.3016 -0.0241195 367758)
(710497 6.8018 -1164.03 -27.5794 0.0547708 709291)
(662066 6.67598 24.9844 -26.5575 0.0893491 715468)
(626229 6.63963 423.953 -25.7767 0.0916794 680404)
(602912 6.65897 351.526 -25.1312 0.0720246 655237)
(588175 6.66757 189.063 -24.6509 0.0556064 639285)
(579489 6.68262 78.3876 -24.3411 0.032113 629812)
(575461 6.6883 20.0389 -24.1757 0.0121163 625380)
(772975 7.74692 3147.76 -25.8048 0.423902 363966)
(703211 7.06671 1476.99 -24.731 0.412361 700745)
(654940 7.03151 69.9545 -23.6262 0.362602 706630)
(619136 7.05316 -411.337 -22.8725 0.288163 671753)
(595799 7.10709 -367.723 -22.2086 0.22117 646748)
(581040 7.13694 -209.128 -21.7606 0.153981 630907)
(572342 7.16397 -91.9258 -21.4533 0.0907043 621504)
(568307 7.1746 -24.5877 -21.3104 0.030028 617106)
(394683 8.8369 7258.57 -26.2242 0.783589 367326)
(371332 8.16906 4598.11 -25.4826 0.637046 733207)
(351016 8.25091 1348.58 -24.7196 0.533371 755554)
(334568 8.30429 298.86 -24.2183 0.410681 724385)
(323471 8.39962 86.5048 -23.7039 0.316919 698965)
(316359 8.45107 65.4305 -23.3907 0.2173 682421)
(312141 8.49513 53.0651 -23.1533 0.130161 672653)
(310179 8.51337 20.6154 -23.0449 0.0425326 668130)
)
;
    }
    symmetry
    {
        type            symmetry;
    }
    bottom
    {
        type            calculated;
        value           nonuniform List<symmTensor> 
32
(
(-758777 49103.4 -4922.17 -17397.6 47316.9 -780804)
(-506107 37334.7 -3527.86 9897.45 -20456.9 -214265)
(-434107 29788.1 -1625 -5275.39 -5050.73 -133427)
(-400106 26139.1 -706.766 -8805.4 1522.96 -121646)
(-380961 24463.1 -335.48 -9706.7 2851.34 -117638)
(-369774 23632.8 -182.678 -10352.8 2548.5 -115335)
(-363417 23193.2 -98.4841 -10774.1 1674.67 -113924)
(-360503 22994.4 -31.781 -10968.9 578.167 -113237)
(-227198 -11513.4 -1846.2 23190.2 43883.8 -562144)
(-61228.4 -12306.5 -596.994 31340.2 -12915.9 -66505.7)
(-40633.9 -13506.7 5.28157 11246 1224.41 -11039.4)
(-37326.7 -13806.6 231.663 5274.93 5168.53 -10187.2)
(-36284.6 -13703.2 215.676 2805.13 4776.4 -11528.6)
(-36030.8 -13555.9 136.817 962.866 3541.14 -12374.9)
(-35983.6 -13461.4 69.497 -266.631 2154.75 -12846.5)
(-35971.5 -13420.1 20.8299 -861.561 722.718 -13056.1)
(-224940 13888.6 1871.28 22880.2 44242.1 -556977)
(-61266.9 13037.6 880.39 28366.7 -11933.6 -67427.8)
(-40661.9 13402.4 283.583 8484.63 1990.26 -12176.5)
(-37336.7 13304.2 35.6662 2843.27 5723.94 -11151.1)
(-36306.1 13003.4 -0.310377 628.213 5170.21 -12363.8)
(-36060.9 12755.1 17.3901 -1031.09 3804.36 -13125.7)
(-36017.1 12611.3 22.6239 -2142.64 2305.84 -13545.1)
(-36006.3 12550.1 9.77357 -2679.92 771.962 -13729.5)
(-735858 -47530.7 5073.69 -16588.1 48894.8 -761622)
(-487698 -36283.8 3729.25 5032.33 -17400 -210711)
(-415433 -29128.2 1733.72 -8266.9 -2710.17 -129636)
(-381452 -25774.6 781.699 -10115.1 3217.56 -117105)
(-362388 -24287.7 395.231 -9803.51 4044.35 -112600)
(-351235 -23568.9 227.302 -9606.78 3337.74 -109961)
(-344885 -23190.4 125.948 -9498.92 2123.92 -108338)
(-341972 -23018.8 41.0113 -9439.25 723.935 -107549)
)
;
    }
}


// ************************************************************************* //
