/*--------------------------------*- C++ -*----------------------------------*\
| =========                 |                                                 |
| \\      /  F ield         | OpenFOAM: The Open Source CFD Toolbox           |
|  \\    /   O peration     | Version:  v1912                                 |
|   \\  /    A nd           | Website:  www.openfoam.com                      |
|    \\/     M anipulation  |                                                 |
\*---------------------------------------------------------------------------*/
FoamFile
{
    version     2.0;
    format      ascii;
    class       volScalarField;
    location    "0.36/solid";
    object      sigmaHyd;
}
// * * * * * * * * * * * * * * * * * * * * * * * * * * * * * * * * * * * * * //

dimensions      [1 -1 -2 0 0 0 0];


internalField   nonuniform List<scalar> 
256
(
-722817
-364629
-362141
-706309
-921332
-511795
-508855
-902131
-931642
-525787
-522692
-911636
-939807
-531135
-527904
-919173
-963625
-543823
-540509
-942577
-1.01487e+06
-575171
-571843
-993744
-1.16155e+06
-690870
-687304
-1.14026e+06
-1.73968e+06
-1.2298e+06
-1.22249e+06
-1.70929e+06
-334963
-50680.5
-51941.2
-327465
-464772
-129257
-130281
-455498
-475554
-146286
-147239
-465791
-480785
-150279
-151182
-470590
-494160
-152967
-153844
-483589
-525883
-163030
-163914
-515098
-639437
-238249
-238856
-628198
-1.16179e+06
-690882
-687228
-1.14021e+06
-267101
-19299.7
-20644.1
-259418
-361538
-65071.6
-66322.6
-352702
-369731
-78908.5
-80120
-360554
-375219
-83189.5
-84365.9
-365657
-388069
-85707.9
-86864.9
-378109
-417996
-94081.4
-95235.7
-407696
-525867
-162652
-163489
-514832
-1.01511e+06
-574824
-571326
-993336
-248995
-20941.7
-22142.6
-240881
-332910
-58599.1
-59749.2
-323973
-339380
-69985.8
-71126.6
-330228
-344851
-73984.2
-75108
-335373
-357913
-76822.1
-77935.4
-348046
-387906
-85461.6
-86571
-377646
-493691
-151995
-152771
-482545
-963022
-542388
-538794
-940847
-239707
-22727.2
-23816.4
-231284
-319887
-57916.1
-58981.5
-310852
-325584
-68036.9
-69116.1
-316421
-330926
-71673.1
-72751.6
-321489
-344046
-74591.4
-75669.2
-334244
-374063
-83423.3
-84500.5
-363853
-478572
-148973
-149712
-467401
-935886
-527297
-523644
-913504
-234116
-23733.8
-24743.9
-225459
-312573
-57886.3
-58891.5
-303436
-317951
-67408.7
-68443.1
-308738
-323189
-70804.3
-71850.1
-313739
-336294
-73719.2
-74772.6
-326500
-366277
-82652.1
-83709.2
-356075
-469978
-147686
-148404
-458779
-919795
-518799
-515113
-897279
-230871
-24305.1
-25263.9
-222057
-308443
-57958.4
-58924.2
-299224
-313688
-67205.6
-68209.7
-304424
-318866
-70472
-71494.9
-309386
-331943
-73372.8
-74409.1
-322134
-361888
-82359.9
-83403.4
-351675
-465109
-147122
-147827
-453883
-910465
-514019
-510315
-887861
-229372
-24568.5
-25502.1
-220478
-306553
-58010.9
-58957.2
-297288
-311749
-67149.1
-68137.8
-302453
-316899
-70361.1
-71372.2
-307398
-329959
-73254.2
-74281.5
-320137
-359882
-82265.8
-83302.2
-349659
-462879
-146908
-147606
-451636
-906137
-511836
-508122
-883490
)
;

boundaryField
{
    interface
    {
        type            zeroGradient;
    }
    symmetry
    {
        type            symmetry;
    }
    bottom
    {
        type            zeroGradient;
    }
}


// ************************************************************************* //
