/*--------------------------------*- C++ -*----------------------------------*\
| =========                 |                                                 |
| \\      /  F ield         | OpenFOAM: The Open Source CFD Toolbox           |
|  \\    /   O peration     | Version:  v1912                                 |
|   \\  /    A nd           | Website:  www.openfoam.com                      |
|    \\/     M anipulation  |                                                 |
\*---------------------------------------------------------------------------*/
FoamFile
{
    version     2.0;
    format      ascii;
    class       volVectorField;
    location    "0.36/solid";
    object      U;
}
// * * * * * * * * * * * * * * * * * * * * * * * * * * * * * * * * * * * * * //

dimensions      [0 1 -1 0 0 0 0];


internalField   nonuniform List<vector> 
256
(
(4.29836e-08 4.02851e-08 4.7314e-08)
(8.37897e-09 2.11585e-08 3.98281e-08)
(-9.25913e-09 2.07571e-08 3.94328e-08)
(-4.22934e-08 3.85998e-08 4.59978e-08)
(7.13872e-08 2.47505e-08 9.93552e-08)
(1.69195e-08 1.1805e-08 8.9481e-08)
(-1.84362e-08 1.15702e-08 8.87612e-08)
(-7.08421e-08 2.40903e-08 9.70326e-08)
(7.42179e-08 -4.92164e-09 1.33748e-07)
(1.78393e-08 -9.84512e-09 1.23592e-07)
(-2.00855e-08 -9.77972e-09 1.22716e-07)
(-7.44119e-08 -4.55621e-09 1.30946e-07)
(7.11758e-08 -3.5166e-08 1.63768e-07)
(1.59585e-08 -3.81111e-08 1.52548e-07)
(-1.93023e-08 -3.77504e-08 1.51568e-07)
(-7.24613e-08 -3.39412e-08 1.60644e-07)
(7.06597e-08 -6.71688e-08 1.94737e-07)
(1.48899e-08 -7.27291e-08 1.81768e-07)
(-1.96967e-08 -7.2104e-08 1.80703e-07)
(-7.3384e-08 -6.5188e-08 1.91354e-07)
(7.92311e-08 -1.05047e-07 2.30284e-07)
(1.7542e-08 -1.14543e-07 2.15352e-07)
(-2.4171e-08 -1.1368e-07 2.14208e-07)
(-8.37511e-08 -1.0238e-07 2.26675e-07)
(1.04958e-07 -1.61736e-07 2.73555e-07)
(2.61182e-08 -1.68223e-07 2.57723e-07)
(-3.49927e-08 -1.67132e-07 2.56486e-07)
(-1.116e-07 -1.58395e-07 2.69704e-07)
(1.44174e-07 -2.61849e-07 3.17002e-07)
(3.56827e-08 -2.47853e-07 3.03243e-07)
(-4.74101e-08 -2.46322e-07 3.01876e-07)
(-1.53213e-07 -2.57177e-07 3.12844e-07)
(2.14888e-08 1.13152e-08 1.54554e-08)
(3.79753e-09 -1.76391e-09 1.9003e-08)
(-4.14087e-09 -1.9152e-09 1.88457e-08)
(-2.05787e-08 1.0265e-08 1.49652e-08)
(3.69527e-08 -6.49312e-09 5.13808e-08)
(8.39398e-09 -1.57537e-08 5.81311e-08)
(-8.78153e-09 -1.58185e-08 5.77141e-08)
(-3.57646e-08 -6.78436e-09 5.01435e-08)
(3.76601e-08 -3.17222e-08 8.39144e-08)
(8.5743e-09 -3.5371e-08 9.16514e-08)
(-9.32723e-09 -3.52249e-08 9.10808e-08)
(-3.68866e-08 -3.12179e-08 8.22235e-08)
(3.43266e-08 -5.94707e-08 1.13257e-07)
(6.8016e-09 -6.1919e-08 1.20919e-07)
(-8.39084e-09 -6.15246e-08 1.2025e-07)
(-3.43962e-08 -5.82163e-08 1.1126e-07)
(3.31634e-08 -8.98893e-08 1.42386e-07)
(5.76523e-09 -9.50865e-08 1.49577e-07)
(-8.61518e-09 -9.44513e-08 1.48829e-07)
(-3.4467e-08 -8.79322e-08 1.40138e-07)
(4.05829e-08 -1.23947e-07 1.7309e-07)
(8.24836e-09 -1.33227e-07 1.79797e-07)
(-1.27537e-08 -1.3237e-07 1.78973e-07)
(-4.34991e-08 -1.21339e-07 1.70603e-07)
(6.52348e-08 -1.67681e-07 2.02538e-07)
(1.65661e-08 -1.73937e-07 2.09103e-07)
(-2.31663e-08 -1.72879e-07 2.08203e-07)
(-7.00921e-08 -1.64459e-07 1.99818e-07)
(1.04738e-07 -2.38579e-07 2.1687e-07)
(2.5896e-08 -2.22525e-07 2.23667e-07)
(-3.51985e-08 -2.21108e-07 2.22721e-07)
(-1.11794e-07 -2.34178e-07 2.14002e-07)
(8.17548e-09 1.58167e-09 8.09123e-09)
(-1.15239e-10 -7.18325e-09 1.30398e-08)
(-3.26026e-11 -7.29699e-09 1.29252e-08)
(-7.14799e-09 5.7541e-10 7.75954e-09)
(1.399e-08 -2.17063e-08 3.42657e-08)
(7.23534e-10 -2.78482e-08 4.31845e-08)
(-5.64592e-10 -2.78799e-08 4.28792e-08)
(-1.23849e-08 -2.19923e-08 3.33993e-08)
(1.29651e-08 -4.76677e-08 6.27881e-08)
(1.06576e-10 -5.01971e-08 7.27865e-08)
(-8.64883e-12 -5.00461e-08 7.23486e-08)
(-1.1489e-08 -4.7226e-08 6.15339e-08)
(9.79387e-09 -7.37073e-08 9.02846e-08)
(-1.55103e-09 -7.59656e-08 1.00356e-07)
(1.06672e-09 -7.55909e-08 9.98247e-08)
(-8.91617e-09 -7.25673e-08 8.87417e-08)
(8.72964e-09 -1.00192e-07 1.16612e-07)
(-2.50024e-09 -1.05422e-07 1.26504e-07)
(9.65121e-10 -1.04822e-07 1.25897e-07)
(-8.87664e-09 -9.83815e-08 1.14828e-07)
(1.59748e-08 -1.26833e-07 1.40917e-07)
(-1.2336e-10 -1.36135e-07 1.50658e-07)
(-2.89122e-09 -1.35327e-07 1.49982e-07)
(-1.7548e-08 -1.24399e-07 1.38914e-07)
(4.01594e-08 -1.58494e-07 1.58464e-07)
(7.92721e-09 -1.64881e-07 1.68195e-07)
(-1.28871e-08 -1.63888e-07 1.67462e-07)
(-4.35005e-08 -1.55476e-07 1.56272e-07)
(7.85919e-08 -2.15518e-07 1.60143e-07)
(1.69845e-08 -2.00356e-07 1.70095e-07)
(-2.45205e-08 -1.99015e-07 1.69341e-07)
(-8.39717e-08 -2.11305e-07 1.57862e-07)
(3.27515e-09 -1.53706e-09 7.0376e-09)
(-1.55028e-09 -8.00958e-09 1.00958e-08)
(1.4828e-09 -8.13304e-09 1.001e-08)
(-2.16637e-09 -2.60266e-09 6.79628e-09)
(5.06294e-09 -2.73324e-08 2.75486e-08)
(-2.37226e-09 -3.17724e-08 3.30461e-08)
(2.81491e-09 -3.18292e-08 3.28239e-08)
(-3.18054e-09 -2.77368e-08 2.69281e-08)
(3.34514e-09 -5.43875e-08 5.08719e-08)
(-3.33397e-09 -5.63305e-08 5.69812e-08)
(3.94015e-09 -5.62149e-08 5.66568e-08)
(-1.37607e-09 -5.40923e-08 4.99543e-08)
(6.45551e-10 -7.92164e-08 7.41797e-08)
(-4.78106e-09 -8.1486e-08 8.02429e-08)
(5.02073e-09 -8.1156e-08 7.98393e-08)
(9.34586e-10 -7.82418e-08 7.30194e-08)
(1.95154e-10 -1.02009e-07 9.58135e-08)
(-5.47602e-09 -1.07397e-07 1.01668e-07)
(4.8573e-09 -1.06849e-07 1.01198e-07)
(5.50882e-10 -1.00376e-07 9.44437e-08)
(7.83527e-09 -1.22878e-07 1.13647e-07)
(-2.99939e-09 -1.32306e-07 1.19332e-07)
(1.06691e-09 -1.31554e-07 1.18805e-07)
(-8.34507e-09 -1.2063e-07 1.12092e-07)
(3.1754e-08 -1.48223e-07 1.23889e-07)
(4.87827e-09 -1.55034e-07 1.29564e-07)
(-8.61834e-09 -1.54099e-07 1.28993e-07)
(-3.38802e-08 -1.45387e-07 1.22186e-07)
(6.89685e-08 -2.00452e-07 1.224e-07)
(1.36938e-08 -1.87157e-07 1.28441e-07)
(-1.99028e-08 -1.85865e-07 1.27856e-07)
(-7.30031e-08 -1.96375e-07 1.20632e-07)
(2.03702e-09 -2.58173e-09 6.20379e-09)
(-1.70892e-09 -8.06139e-09 7.66382e-09)
(1.68364e-09 -8.19664e-09 7.60263e-09)
(-8.74758e-10 -3.69808e-09 6.0339e-09)
(2.95074e-09 -2.86983e-08 2.21681e-08)
(-2.82387e-09 -3.24665e-08 2.46961e-08)
(3.43323e-09 -3.25563e-08 2.45395e-08)
(-8.90112e-10 -2.92209e-08 2.17356e-08)
(1.32632e-09 -5.57547e-08 4.00515e-08)
(-3.75027e-09 -5.75465e-08 4.27597e-08)
(4.67883e-09 -5.74741e-08 4.25294e-08)
(9.71049e-10 -5.56077e-08 3.94064e-08)
(-8.29643e-10 -7.94728e-08 5.80028e-08)
(-4.95492e-09 -8.18751e-08 6.05682e-08)
(5.68224e-09 -8.15928e-08 6.02773e-08)
(2.89878e-09 -7.86585e-08 5.71732e-08)
(-6.46431e-10 -9.98058e-08 7.42244e-08)
(-5.38177e-09 -1.05376e-07 7.65728e-08)
(5.40826e-09 -1.04879e-07 7.62293e-08)
(2.0372e-09 -9.83367e-08 7.32294e-08)
(7.39874e-09 -1.17585e-07 8.66319e-08)
(-2.76424e-09 -1.27147e-07 8.88225e-08)
(1.61699e-09 -1.26447e-07 8.84335e-08)
(-7.12187e-09 -1.15499e-07 8.54909e-08)
(3.10743e-08 -1.40487e-07 9.28144e-08)
(4.9999e-09 -1.4768e-07 9.50119e-08)
(-7.83789e-09 -1.46793e-07 9.45896e-08)
(-3.22893e-08 -1.378e-07 9.15594e-08)
(6.73595e-08 -1.90895e-07 9.11257e-08)
(1.3651e-08 -1.79124e-07 9.36585e-08)
(-1.8867e-08 -1.7787e-07 9.32278e-08)
(-7.03771e-08 -1.86932e-07 8.98246e-08)
(1.87892e-09 -2.88233e-09 4.84111e-09)
(-1.54992e-09 -7.97356e-09 5.47041e-09)
(1.54846e-09 -8.11722e-09 5.42988e-09)
(-6.83138e-10 -4.03321e-09 4.72949e-09)
(2.94819e-09 -2.84694e-08 1.63591e-08)
(-2.51551e-09 -3.20634e-08 1.73508e-08)
(3.22565e-09 -3.21792e-08 1.72472e-08)
(-7.75931e-10 -2.90795e-08 1.60756e-08)
(1.69188e-09 -5.48774e-08 2.89165e-08)
(-3.27212e-09 -5.67255e-08 2.988e-08)
(4.40403e-09 -5.66887e-08 2.97272e-08)
(8.16092e-10 -5.48465e-08 2.84915e-08)
(1.87468e-12 -7.7615e-08 4.13874e-08)
(-4.26792e-09 -8.01791e-08 4.21947e-08)
(5.3145e-09 -7.99364e-08 4.19999e-08)
(2.39072e-09 -7.69284e-08 4.08353e-08)
(6.44015e-10 -9.65825e-08 5.24205e-08)
(-4.49598e-09 -1.02303e-07 5.30575e-08)
(4.95801e-09 -1.01846e-07 5.28251e-08)
(1.18506e-09 -9.52432e-08 5.17511e-08)
(8.94513e-09 -1.1306e-07 6.0515e-08)
(-1.77779e-09 -1.22715e-07 6.1044e-08)
(1.1727e-09 -1.22054e-07 6.0779e-08)
(-8.12249e-09 -1.111e-07 5.97409e-08)
(3.24093e-08 -1.35214e-07 6.4277e-08)
(5.90926e-09 -1.42632e-07 6.48295e-08)
(-8.11431e-09 -1.41781e-07 6.45411e-08)
(-3.29835e-08 -1.32641e-07 6.34219e-08)
(6.80559e-08 -1.84741e-07 6.30354e-08)
(1.44556e-08 -1.73896e-07 6.38256e-08)
(-1.89664e-08 -1.72671e-07 6.35321e-08)
(-7.03513e-08 -1.80869e-07 6.215e-08)
(1.9163e-09 -2.91285e-09 3.06102e-09)
(-1.41068e-09 -7.85349e-09 3.31709e-09)
(1.42189e-09 -8.00247e-09 3.2941e-09)
(-7.01013e-10 -4.08525e-09 2.99803e-09)
(3.24548e-09 -2.78698e-08 1.00277e-08)
(-2.21019e-09 -3.14564e-08 1.03802e-08)
(2.97769e-09 -3.15889e-08 1.03215e-08)
(-1.00789e-09 -2.85353e-08 9.86753e-09)
(2.30512e-09 -5.35814e-08 1.74551e-08)
(-2.82003e-09 -5.55266e-08 1.77408e-08)
(4.07118e-09 -5.55137e-08 1.76537e-08)
(3.28036e-10 -5.36268e-08 1.72142e-08)
(9.31866e-10 -7.56076e-08 2.47387e-08)
(-3.67377e-09 -7.82995e-08 2.49143e-08)
(4.91216e-09 -7.8084e-08 2.48027e-08)
(1.65667e-09 -7.5007e-08 2.44239e-08)
(1.84855e-09 -9.38984e-08 3.10909e-08)
(-3.78113e-09 -9.97182e-08 3.11637e-08)
(4.51024e-09 -9.92891e-08 3.10298e-08)
(2.50844e-10 -9.26471e-08 3.07065e-08)
(1.02805e-08 -1.0992e-07 3.56576e-08)
(-1.0071e-09 -1.19621e-07 3.56732e-08)
(7.40026e-10 -1.18987e-07 3.55197e-08)
(-9.11631e-09 -1.08045e-07 3.52104e-08)
(3.3593e-08 -1.31906e-07 3.77205e-08)
(6.63119e-09 -1.39425e-07 3.77602e-08)
(-8.43653e-09 -1.38598e-07 3.75927e-08)
(-3.37616e-08 -1.29413e-07 3.72249e-08)
(6.88373e-08 -1.80979e-07 3.69933e-08)
(1.51123e-08 -1.70603e-07 3.71692e-08)
(-1.91733e-08 -1.694e-07 3.69992e-08)
(-7.06717e-08 -1.77172e-07 3.64806e-08)
(1.9459e-09 -2.88529e-09 1.04535e-09)
(-1.34547e-09 -7.77119e-09 1.11534e-09)
(1.3621e-09 -7.92277e-09 1.10791e-09)
(-7.21614e-10 -4.06808e-09 1.02501e-09)
(3.41035e-09 -2.74597e-08 3.37684e-09)
(-2.06196e-09 -3.10637e-08 3.46382e-09)
(2.85539e-09 -3.12044e-08 3.44479e-09)
(-1.14257e-09 -2.81518e-08 3.32511e-09)
(2.63073e-09 -5.27607e-08 5.83286e-09)
(-2.59705e-09 -5.47663e-08 5.89118e-09)
(3.9032e-09 -5.47652e-08 5.86293e-09)
(6.08161e-11 -5.28434e-08 5.75488e-09)
(1.41185e-09 -7.44204e-08 8.22298e-09)
(-3.38157e-09 -7.71795e-08 8.24267e-09)
(4.70971e-09 -7.69776e-08 8.20636e-09)
(1.26902e-09 -7.38626e-08 8.12076e-09)
(2.45381e-09 -9.24359e-08 1.02926e-08)
(-3.43335e-09 -9.8303e-08 1.02786e-08)
(4.28898e-09 -9.7888e-08 1.02349e-08)
(-2.25754e-10 -9.12287e-08 1.01674e-08)
(1.09388e-08 -1.08328e-07 1.17687e-08)
(-6.3537e-10 -1.18045e-07 1.17373e-08)
(5.30038e-10 -1.17425e-07 1.1687e-08)
(-9.61051e-09 -1.06495e-07 1.16225e-08)
(3.41732e-08 -1.30298e-07 1.24291e-08)
(6.97929e-09 -1.37849e-07 1.24076e-08)
(-8.59174e-09 -1.37035e-07 1.23527e-08)
(-3.41455e-08 -1.27844e-07 1.22669e-08)
(6.92215e-08 -1.79178e-07 1.21911e-08)
(1.54282e-08 -1.68989e-07 1.22136e-08)
(-1.92706e-08 -1.67797e-07 1.21579e-08)
(-7.08316e-08 -1.75403e-07 1.20234e-08)
)
;

boundaryField
{
    interface
    {
        type            calculated;
        value           nonuniform List<vector> 
192
(
(4.14128e-08 6.88777e-08 4.13983e-08)
(6.69947e-08 3.2559e-08 8.95245e-08)
(6.99505e-08 -4.97463e-09 1.23256e-07)
(6.74333e-08 -3.60557e-08 1.53356e-07)
(6.69292e-08 -6.51551e-08 1.84401e-07)
(7.42374e-08 -9.64723e-08 2.19891e-07)
(9.69299e-08 -1.45501e-07 2.62954e-07)
(1.46348e-07 -2.51111e-07 3.0615e-07)
(9.72025e-09 2.59255e-08 6.75378e-09)
(2.31908e-08 -2.45045e-09 3.70319e-08)
(2.34384e-08 -3.23789e-08 6.86015e-08)
(1.98542e-08 -6.0595e-08 9.79113e-08)
(1.80208e-08 -8.83254e-08 1.26904e-07)
(2.36144e-08 -1.15929e-07 1.57276e-07)
(4.4935e-08 -1.51642e-07 1.86338e-07)
(9.67752e-08 -2.28088e-07 2.00474e-07)
(-3.92244e-09 7.12297e-09 3.53815e-09)
(1.72997e-09 -2.0509e-08 2.62936e-08)
(4.22387e-10 -4.87169e-08 5.42096e-08)
(-2.99824e-09 -7.47664e-08 8.18647e-08)
(-4.55697e-09 -9.86474e-08 1.0837e-07)
(1.38385e-09 -1.18976e-07 1.32731e-07)
(2.3257e-08 -1.4284e-07 1.50094e-07)
(7.37634e-08 -2.05235e-07 1.51201e-07)
(-8.9468e-09 5.47401e-10 5.50321e-09)
(-6.59613e-09 -2.7315e-08 2.47891e-08)
(-8.44374e-09 -5.5492e-08 4.79624e-08)
(-1.13087e-08 -8.00041e-08 7.1524e-08)
(-1.20918e-08 -1.00211e-07 9.34696e-08)
(-5.42879e-09 -1.14988e-07 1.11503e-07)
(1.67441e-08 -1.3294e-07 1.21618e-07)
(6.55691e-08 -1.90264e-07 1.19592e-07)
(-1.03573e-08 -1.33484e-09 5.85491e-09)
(-8.70144e-09 -2.88761e-08 2.16396e-08)
(-1.03634e-08 -5.67e-08 3.96384e-08)
(-1.2591e-08 -7.99662e-08 5.78421e-08)
(-1.26118e-08 -9.77489e-08 7.43367e-08)
(-5.35403e-09 -1.09655e-07 8.69095e-08)
(1.6848e-08 -1.25497e-07 9.29784e-08)
(6.42814e-08 -1.80762e-07 9.08976e-08)
(-1.05692e-08 -1.6756e-09 4.81105e-09)
(-8.72055e-09 -2.85163e-08 1.64329e-08)
(-9.95966e-09 -5.56141e-08 2.91613e-08)
(-1.16464e-08 -7.78772e-08 4.18279e-08)
(-1.11168e-08 -9.43469e-08 5.30444e-08)
(-3.4958e-09 -1.05119e-07 6.12355e-08)
(1.8622e-08 -1.20436e-07 6.49067e-08)
(6.50641e-08 -1.74667e-07 6.34049e-08)
(-1.05206e-08 -1.62246e-09 3.07784e-09)
(-8.40415e-09 -2.77728e-08 1.01433e-08)
(-9.2957e-09 -5.416e-08 1.76899e-08)
(-1.06171e-08 -7.57219e-08 2.50913e-08)
(-9.75706e-09 -9.15615e-08 3.15434e-08)
(-1.94903e-09 -1.01984e-07 3.6156e-08)
(2.00742e-08 -1.17268e-07 3.81615e-08)
(6.58887e-08 -1.70962e-07 3.72847e-08)
(-1.04721e-08 -1.54628e-09 1.05277e-09)
(-8.21797e-09 -2.72886e-08 3.41808e-09)
(-8.93406e-09 -5.32606e-08 5.91429e-09)
(-1.00778e-08 -7.44649e-08 8.343e-09)
(-9.06658e-09 -9.00544e-08 1.0444e-08)
(-1.1819e-09 -1.00398e-07 1.19332e-08)
(2.07851e-08 -1.15727e-07 1.25742e-08)
(6.6295e-08 -1.69194e-07 1.22871e-08)
(4.40688e-08 7.69525e-08 3.8958e-08)
(7.38327e-08 4.63592e-08 8.74251e-08)
(7.69241e-08 1.11818e-08 1.21994e-07)
(7.35759e-08 -1.99184e-08 1.52838e-07)
(7.25847e-08 -5.05396e-08 1.84042e-07)
(8.06936e-08 -8.53421e-08 2.18209e-07)
(1.063e-07 -1.40057e-07 2.57835e-07)
(1.4616e-07 -2.51245e-07 3.10245e-07)
(6.40754e-09 5.34859e-08 2.38469e-08)
(1.42696e-08 3.27462e-08 6.904e-08)
(1.50803e-08 5.92185e-09 1.02033e-07)
(1.29074e-08 -2.3567e-08 1.30675e-07)
(1.13802e-08 -5.70282e-08 1.59059e-07)
(1.35219e-08 -9.55536e-08 1.90127e-07)
(2.185e-08 -1.4625e-07 2.2799e-07)
(3.19006e-08 -2.36901e-07 2.85713e-07)
(-7.71801e-09 5.28057e-08 2.28512e-08)
(-1.65499e-08 3.23913e-08 6.78494e-08)
(-1.82483e-08 5.92217e-09 1.00655e-07)
(-1.72796e-08 -2.32536e-08 1.29155e-07)
(-1.73014e-08 -5.6444e-08 1.57422e-07)
(-2.13412e-08 -9.47341e-08 1.88375e-07)
(-3.19984e-08 -1.45215e-07 2.26101e-07)
(-4.50105e-08 -2.35394e-07 2.83589e-07)
(-4.37269e-08 7.43575e-08 3.57133e-08)
(-7.39345e-08 4.53277e-08 8.35234e-08)
(-7.79256e-08 1.13468e-08 1.17499e-07)
(-7.57828e-08 -1.88391e-08 1.47913e-07)
(-7.63222e-08 -4.86801e-08 1.78777e-07)
(-8.63064e-08 -8.27919e-08 2.12646e-07)
(-1.14114e-07 -1.36853e-07 2.51976e-07)
(-1.56462e-07 -2.4663e-07 3.03968e-07)
(-3.5057e-08 6.68837e-08 3.98514e-08)
(-6.07325e-08 3.21202e-08 8.67158e-08)
(-6.42848e-08 -4.15105e-09 1.19807e-07)
(-6.27029e-08 -3.41978e-08 1.49466e-07)
(-6.34811e-08 -6.23652e-08 1.80155e-07)
(-7.23928e-08 -9.2825e-08 2.15333e-07)
(-9.68388e-08 -1.41029e-07 2.5807e-07)
(-1.47308e-07 -2.45114e-07 3.00865e-07)
(-4.11223e-09 2.43509e-08 6.17834e-09)
(-1.74294e-08 -2.70718e-09 3.55284e-08)
(-1.7997e-08 -3.15597e-08 6.64919e-08)
(-1.51262e-08 -5.88209e-08 9.5373e-08)
(-1.43828e-08 -8.56562e-08 1.2401e-07)
(-2.1407e-08 -1.12433e-07 1.54052e-07)
(-4.4333e-08 -1.47385e-07 1.82792e-07)
(-9.70358e-08 -2.22454e-07 1.96691e-07)
(9.34275e-09 5.45868e-09 3.1559e-09)
(4.13536e-09 -2.09068e-08 2.52525e-08)
(5.39613e-09 -4.80929e-08 5.26555e-08)
(8.34486e-09 -7.32201e-08 7.99083e-08)
(9.03537e-09 -9.62232e-08 1.06072e-07)
(1.87862e-09 -1.15743e-07 1.30125e-07)
(-2.13953e-08 -1.38869e-07 1.47219e-07)
(-7.26355e-08 -1.99861e-07 1.48164e-07)
(1.43283e-08 -1.2659e-09 5.22758e-09)
(1.25884e-08 -2.79343e-08 2.40539e-08)
(1.45939e-08 -5.51208e-08 4.68388e-08)
(1.71965e-08 -7.87232e-08 7.00652e-08)
(1.73153e-08 -9.80551e-08 9.17148e-08)
(9.63361e-09 -1.12021e-07 1.09485e-07)
(-1.37554e-08 -1.29222e-07 1.19383e-07)
(-6.31878e-08 -1.85084e-07 1.17233e-07)
(1.57187e-08 -3.25683e-09 5.66281e-09)
(1.47878e-08 -2.96822e-08 2.1134e-08)
(1.67534e-08 -5.65547e-08 3.8858e-08)
(1.88816e-08 -7.89246e-08 5.68088e-08)
(1.84045e-08 -9.5831e-08 7.30705e-08)
(1.02893e-08 -1.06916e-07 8.5435e-08)
(-1.29809e-08 -1.21985e-07 9.1335e-08)
(-6.09146e-08 -1.75744e-07 8.91615e-08)
(1.59239e-08 -3.66841e-09 4.68586e-09)
(1.48747e-08 -2.94541e-08 1.61048e-08)
(1.65158e-08 -5.56379e-08 2.86521e-08)
(1.8219e-08 -7.70203e-08 4.11456e-08)
(1.7314e-08 -9.26143e-08 5.21975e-08)
(8.95548e-09 -1.02557e-07 6.02394e-08)
(-1.41212e-08 -1.17083e-07 6.37898e-08)
(-6.09817e-08 -1.69777e-07 6.22236e-08)
(1.58758e-08 -3.65799e-09 3.00754e-09)
(1.46032e-08 -2.87924e-08 9.95905e-09)
(1.59572e-08 -5.42927e-08 1.74029e-08)
(1.73681e-08 -7.49873e-08 2.47042e-08)
(1.6212e-08 -8.99532e-08 3.10591e-08)
(7.74501e-09 -9.9541e-08 3.55823e-08)
(-1.5165e-08 -1.14023e-07 3.75154e-08)
(-6.13424e-08 -1.66161e-07 3.66006e-08)
(1.5829e-08 -3.602e-09 1.03013e-09)
(1.44394e-08 -2.83473e-08 3.35873e-09)
(1.56467e-08 -5.34461e-08 5.82164e-09)
(1.69152e-08 -7.37905e-08 8.21763e-09)
(1.56465e-08 -8.85082e-08 1.02865e-08)
(7.1417e-09 -9.80144e-08 1.17461e-08)
(-1.56762e-08 -1.12538e-07 1.23629e-08)
(-6.15209e-08 -1.6444e-07 1.20633e-08)
(1.46044e-07 -2.55175e-07 3.16487e-07)
(1.05969e-07 -2.22983e-07 2.05287e-07)
(7.99422e-08 -2.03661e-07 1.50611e-07)
(7.07383e-08 -1.90195e-07 1.16244e-07)
(6.94823e-08 -1.80872e-07 8.7198e-08)
(7.03805e-08 -1.74656e-07 6.05566e-08)
(7.12514e-08 -1.70827e-07 3.56024e-08)
(7.16655e-08 -1.68995e-07 1.17407e-08)
(3.18002e-08 -2.30402e-07 3.02387e-07)
(2.15274e-08 -1.9292e-07 2.11793e-07)
(1.28576e-08 -1.75366e-07 1.61254e-07)
(1.0046e-08 -1.64877e-07 1.23133e-07)
(1.03937e-08 -1.57956e-07 9.0343e-08)
(1.1437e-08 -1.53202e-07 6.16953e-08)
(1.22163e-08 -1.50118e-07 3.59427e-08)
(1.25819e-08 -1.48585e-07 1.18102e-08)
(-4.50798e-08 -2.28096e-07 3.01037e-07)
(-3.22861e-08 -1.90825e-07 2.10895e-07)
(-2.17845e-08 -1.73372e-07 1.6053e-07)
(-1.75995e-08 -1.62947e-07 1.2257e-07)
(-1.69164e-08 -1.5607e-07 8.99294e-08)
(-1.72242e-08 -1.51347e-07 6.14147e-08)
(-1.75324e-08 -1.48282e-07 3.57807e-08)
(-1.76684e-08 -1.46759e-07 1.17573e-08)
(-1.56532e-07 -2.48333e-07 3.12368e-07)
(-1.14389e-07 -2.16492e-07 2.02534e-07)
(-8.66224e-08 -1.97367e-07 1.48411e-07)
(-7.60225e-08 -1.84048e-07 1.14538e-07)
(-7.37069e-08 -1.74836e-07 8.59482e-08)
(-7.38492e-08 -1.68701e-07 5.97101e-08)
(-7.42355e-08 -1.64927e-07 3.51141e-08)
(-7.44133e-08 -1.63123e-07 1.15812e-08)
)
;
    }
    symmetry
    {
        type            symmetry;
    }
    bottom
    {
        type            calculated;
        value           uniform (0 0 0);
    }
}


// ************************************************************************* //
