/*--------------------------------*- C++ -*----------------------------------*\
| =========                 |                                                 |
| \\      /  F ield         | OpenFOAM: The Open Source CFD Toolbox           |
|  \\    /   O peration     | Version:  v1912                                 |
|   \\  /    A nd           | Website:  www.openfoam.com                      |
|    \\/     M anipulation  |                                                 |
\*---------------------------------------------------------------------------*/
FoamFile
{
    version     2.0;
    format      ascii;
    class       volVectorField;
    location    "0.18/solid";
    object      D;
}
// * * * * * * * * * * * * * * * * * * * * * * * * * * * * * * * * * * * * * //

dimensions      [0 1 0 0 0 0 0];


internalField   nonuniform List<vector> 
256
(
(6.10194e-09 1.90495e-08 5.86052e-09)
(-7.56874e-10 1.20231e-08 6.69352e-09)
(1.46084e-09 1.19339e-08 6.85382e-09)
(-5.48758e-09 1.86307e-08 6.45477e-09)
(8.90458e-09 1.77937e-08 6.23528e-09)
(4.01597e-10 1.43462e-08 7.30926e-09)
(1.86647e-09 1.39743e-08 7.72708e-09)
(-6.7592e-09 1.64624e-08 7.62721e-09)
(9.64215e-09 1.78202e-08 3.13435e-09)
(1.31808e-09 1.64072e-08 4.10228e-09)
(2.83082e-09 1.57464e-08 4.70286e-09)
(-5.62796e-09 1.56566e-08 5.06767e-09)
(1.0556e-08 2.00685e-08 -8.48316e-10)
(2.26241e-09 1.93679e-08 2.53361e-10)
(4.10751e-09 1.84419e-08 9.85167e-10)
(-4.32934e-09 1.71543e-08 1.47698e-09)
(1.16522e-08 2.38865e-08 -5.22434e-09)
(3.3295e-09 2.36111e-08 -3.74693e-09)
(5.59558e-09 2.24386e-08 -2.91387e-09)
(-2.87288e-09 2.02755e-08 -2.59473e-09)
(1.1931e-08 2.93124e-08 -1.01257e-08)
(4.11184e-09 2.93866e-08 -8.16741e-09)
(7.69824e-09 2.79751e-08 -7.24916e-09)
(-2.77786e-10 2.50306e-08 -7.24345e-09)
(1.00372e-08 3.63923e-08 -1.57296e-08)
(4.21311e-09 3.58588e-08 -1.34205e-08)
(1.0815e-08 3.42171e-08 -1.24214e-08)
(4.7579e-09 3.14511e-08 -1.26196e-08)
(6.73452e-09 3.16117e-08 -2.05065e-08)
(4.3298e-09 2.86919e-08 -1.82963e-08)
(1.42162e-08 2.69243e-08 -1.72214e-08)
(1.13861e-08 2.62033e-08 -1.7202e-08)
(8.11612e-09 1.21098e-08 -2.45048e-09)
(-2.36941e-10 5.18702e-09 -2.77144e-09)
(6.09849e-10 5.05535e-09 -2.60408e-09)
(-7.68865e-09 1.16212e-08 -1.95122e-09)
(1.22239e-08 1.53363e-08 -4.11818e-09)
(1.22718e-09 1.17675e-08 -4.69847e-09)
(2.60827e-10 1.133e-08 -4.29339e-09)
(-1.06672e-08 1.39071e-08 -2.93251e-09)
(1.29894e-08 1.8184e-08 -6.87034e-09)
(2.09193e-09 1.66944e-08 -7.49389e-09)
(9.41155e-10 1.59829e-08 -6.92355e-09)
(-9.89506e-09 1.59563e-08 -5.20055e-09)
(1.37435e-08 2.16831e-08 -1.06757e-08)
(2.90363e-09 2.09367e-08 -1.11994e-08)
(2.08617e-09 1.9978e-08 -1.05084e-08)
(-8.69484e-09 1.87384e-08 -8.64388e-09)
(1.48361e-08 2.58923e-08 -1.50434e-08)
(3.87902e-09 2.55583e-08 -1.5403e-08)
(3.45413e-09 2.43662e-08 -1.46163e-08)
(-7.43948e-09 2.22744e-08 -1.27218e-08)
(1.53295e-08 3.08647e-08 -1.96856e-08)
(4.64392e-09 3.08834e-08 -1.98933e-08)
(5.4011e-09 2.94633e-08 -1.90258e-08)
(-5.22698e-09 2.65965e-08 -1.71199e-08)
(1.3814e-08 3.59837e-08 -2.38322e-08)
(4.7918e-09 3.54119e-08 -2.39706e-08)
(8.32815e-09 3.37802e-08 -2.30374e-08)
(-7.15682e-10 3.10941e-08 -2.10676e-08)
(1.08018e-08 2.79001e-08 -2.52899e-08)
(4.96874e-09 2.48606e-08 -2.54535e-08)
(1.15562e-08 2.31479e-08 -2.44915e-08)
(5.48524e-09 2.2633e-08 -2.24297e-08)
(9.01743e-09 1.03937e-08 -1.58622e-09)
(2.13402e-10 3.59083e-09 -2.15536e-09)
(-2.24419e-11 3.46953e-09 -2.03169e-09)
(-8.75298e-09 9.99692e-09 -1.23199e-09)
(1.42891e-08 1.37572e-08 -3.77512e-09)
(2.00613e-09 1.00986e-08 -4.68933e-09)
(-1.03417e-09 9.67967e-09 -4.3814e-09)
(-1.32038e-08 1.24548e-08 -2.89747e-09)
(1.52788e-08 1.73577e-08 -6.28452e-09)
(2.8706e-09 1.58211e-08 -7.22595e-09)
(-6.4295e-10 1.5134e-08 -6.78377e-09)
(-1.29351e-08 1.52637e-08 -5.01393e-09)
(1.59013e-08 2.1374e-08 -9.5014e-09)
(3.56925e-09 2.06528e-08 -1.03618e-08)
(3.71592e-10 1.97232e-08 -9.81623e-09)
(-1.18407e-08 1.85635e-08 -7.9194e-09)
(1.6878e-08 2.54949e-08 -1.314e-08)
(4.45227e-09 2.51979e-08 -1.39004e-08)
(1.63015e-09 2.40389e-08 -1.32701e-08)
(-1.06663e-08 2.20102e-08 -1.12996e-08)
(1.73937e-08 2.95555e-08 -1.65997e-08)
(5.19698e-09 2.95899e-08 -1.72902e-08)
(3.43132e-09 2.82081e-08 -1.65891e-08)
(-8.63911e-09 2.54245e-08 -1.45427e-08)
(1.60932e-08 3.28992e-08 -1.87948e-08)
(5.40368e-09 3.23764e-08 -1.94698e-08)
(6.16335e-09 3.07918e-08 -1.87179e-08)
(-4.48024e-09 2.816e-08 -1.65761e-08)
(1.34811e-08 2.34075e-08 -1.82321e-08)
(5.64645e-09 2.0684e-08 -1.89607e-08)
(9.21225e-09 1.90275e-08 -1.81975e-08)
(1.20025e-09 1.82991e-08 -1.59596e-08)
(8.98019e-09 9.95352e-09 -1.10367e-09)
(3.28077e-10 3.27945e-09 -1.43489e-09)
(-2.32344e-10 3.17495e-09 -1.34693e-09)
(-8.84203e-09 9.64879e-09 -8.52889e-10)
(1.45819e-08 1.29316e-08 -3.23109e-09)
(2.20211e-09 9.26887e-09 -3.73646e-09)
(-1.55194e-09 8.89142e-09 -3.51322e-09)
(-1.38487e-08 1.17931e-08 -2.59721e-09)
(1.57187e-08 1.62991e-08 -5.49255e-09)
(3.04799e-09 1.47684e-08 -5.98516e-09)
(-1.36938e-09 1.41324e-08 -5.65925e-09)
(-1.39442e-08 1.43891e-08 -4.5582e-09)
(1.62571e-08 2.01029e-08 -8.07974e-09)
(3.65558e-09 1.94347e-08 -8.49836e-09)
(-4.70183e-10 1.85583e-08 -8.08957e-09)
(-1.29657e-08 1.74755e-08 -6.89497e-09)
(1.70697e-08 2.37721e-08 -1.07956e-08)
(4.43425e-09 2.35394e-08 -1.11273e-08)
(7.1433e-10 2.24336e-08 -1.06483e-08)
(-1.1802e-08 2.04634e-08 -9.39578e-09)
(1.74778e-08 2.70358e-08 -1.30571e-08)
(5.11646e-09 2.71184e-08 -1.33225e-08)
(2.4279e-09 2.57898e-08 -1.27853e-08)
(-9.8154e-09 2.30739e-08 -1.14768e-08)
(1.62589e-08 2.94546e-08 -1.39872e-08)
(5.33881e-09 2.90412e-08 -1.42334e-08)
(5.01908e-09 2.75092e-08 -1.36569e-08)
(-5.86249e-09 2.48771e-08 -1.22772e-08)
(1.39364e-08 1.97702e-08 -1.28105e-08)
(5.61458e-09 1.74733e-08 -1.31277e-08)
(7.92886e-09 1.58648e-08 -1.25459e-08)
(-5.78222e-10 1.48044e-08 -1.10646e-08)
(8.69102e-09 9.67686e-09 -8.55561e-10)
(2.82667e-10 3.13615e-09 -9.86144e-10)
(-2.40431e-10 3.04582e-09 -9.24864e-10)
(-8.638e-09 9.44183e-09 -6.81908e-10)
(1.41711e-08 1.23232e-08 -2.65926e-09)
(2.07706e-09 8.72409e-09 -2.81134e-09)
(-1.62919e-09 8.38529e-09 -2.65428e-09)
(-1.36782e-08 1.13229e-08 -2.21548e-09)
(1.52998e-08 1.52594e-08 -4.53247e-09)
(2.86404e-09 1.37758e-08 -4.63379e-09)
(-1.55329e-09 1.31899e-08 -4.40199e-09)
(-1.39243e-08 1.35156e-08 -3.87039e-09)
(1.57626e-08 1.85905e-08 -6.49325e-09)
(3.39396e-09 1.79848e-08 -6.52525e-09)
(-7.37889e-10 1.71616e-08 -6.23103e-09)
(-1.30262e-08 1.61343e-08 -5.64243e-09)
(1.64357e-08 2.17396e-08 -8.36551e-09)
(4.08103e-09 2.15729e-08 -8.32375e-09)
(3.91922e-10 2.05197e-08 -7.97534e-09)
(-1.18665e-08 1.85964e-08 -7.34794e-09)
(1.673e-08 2.44764e-08 -9.71874e-09)
(4.69469e-09 2.4615e-08 -9.6179e-09)
(2.04715e-09 2.33368e-08 -9.22434e-09)
(-9.89121e-09 2.06701e-08 -8.5598e-09)
(1.55377e-08 2.65241e-08 -9.98996e-09)
(4.90712e-09 2.62182e-08 -9.86945e-09)
(4.54025e-09 2.4733e-08 -9.446e-09)
(-6.07163e-09 2.20892e-08 -8.73035e-09)
(1.33829e-08 1.69399e-08 -8.80236e-09)
(5.18701e-09 1.49819e-08 -8.74062e-09)
(7.35359e-09 1.34139e-08 -8.3146e-09)
(-1.04703e-09 1.20969e-08 -7.5175e-09)
(8.43755e-09 9.44655e-09 -6.38768e-10)
(2.16461e-10 3.01572e-09 -6.77383e-10)
(-2.04955e-10 2.93578e-09 -6.37034e-10)
(-8.43768e-09 9.25967e-09 -5.25421e-10)
(1.37116e-08 1.18009e-08 -1.98849e-09)
(1.90333e-09 8.28301e-09 -1.98879e-09)
(-1.58076e-09 7.9733e-09 -1.8848e-09)
(-1.33724e-08 1.0901e-08 -1.69672e-09)
(1.47613e-08 1.43519e-08 -3.3637e-09)
(2.62052e-09 1.29284e-08 -3.30439e-09)
(-1.5478e-09 1.23816e-08 -3.14983e-09)
(-1.36478e-08 1.27342e-08 -2.9247e-09)
(1.51495e-08 1.72463e-08 -4.72029e-09)
(3.0861e-09 1.66986e-08 -4.60318e-09)
(-7.84324e-10 1.59179e-08 -4.4054e-09)
(-1.27876e-08 1.49242e-08 -4.15069e-09)
(1.5724e-08 1.99798e-08 -5.91275e-09)
(3.70497e-09 1.98676e-08 -5.74078e-09)
(3.03695e-10 1.88568e-08 -5.50475e-09)
(-1.1637e-08 1.69682e-08 -5.22523e-09)
(1.59387e-08 2.24022e-08 -6.66578e-09)
(4.26531e-09 2.2587e-08 -6.45093e-09)
(1.91386e-09 2.13491e-08 -6.18277e-09)
(-9.67908e-09 1.87196e-08 -5.87703e-09)
(1.47558e-08 2.43046e-08 -6.65697e-09)
(4.46175e-09 2.40755e-08 -6.42791e-09)
(4.33755e-09 2.26272e-08 -6.13862e-09)
(-5.95323e-09 1.99824e-08 -5.79602e-09)
(1.26959e-08 1.48158e-08 -5.69931e-09)
(4.73418e-09 1.3075e-08 -5.50976e-09)
(7.08468e-09 1.15393e-08 -5.21933e-09)
(-1.09694e-09 1.00706e-08 -4.82144e-09)
(8.27829e-09 9.28197e-09 -3.9956e-10)
(1.72274e-10 2.92396e-09 -4.07736e-10)
(-1.77437e-10 2.85072e-09 -3.8483e-10)
(-8.30896e-09 9.12502e-09 -3.35684e-10)
(1.34033e-08 1.14073e-08 -1.22989e-09)
(1.78286e-09 7.95349e-09 -1.20004e-09)
(-1.53247e-09 7.66267e-09 -1.1408e-09)
(-1.31539e-08 1.05716e-08 -1.06466e-09)
(1.43792e-08 1.36823e-08 -2.06105e-09)
(2.44681e-09 1.23082e-08 -1.98786e-09)
(-1.51562e-09 1.17873e-08 -1.8994e-09)
(-1.34227e-08 1.21473e-08 -1.81103e-09)
(1.47088e-08 1.62757e-08 -2.85147e-09)
(2.8668e-09 1.5771e-08 -2.74039e-09)
(-7.80988e-10 1.5019e-08 -2.62659e-09)
(-1.2576e-08 1.40434e-08 -2.52498e-09)
(1.52214e-08 1.87418e-08 -3.50751e-09)
(3.44142e-09 1.8667e-08 -3.36312e-09)
(2.78542e-10 1.7685e-08 -3.2266e-09)
(-1.14345e-08 1.58196e-08 -3.11094e-09)
(1.53895e-08 2.09877e-08 -3.87903e-09)
(3.96743e-09 2.12028e-08 -3.7097e-09)
(1.85632e-09 1.99925e-08 -3.55396e-09)
(-9.49575e-09 1.73898e-08 -3.42169e-09)
(1.42114e-08 2.2824e-08 -3.80274e-09)
(4.15094e-09 2.26397e-08 -3.62569e-09)
(4.23401e-09 2.12169e-08 -3.45734e-09)
(-5.83285e-09 1.85793e-08 -3.30193e-09)
(1.22056e-08 1.33892e-08 -3.18989e-09)
(4.4155e-09 1.17685e-08 -3.03499e-09)
(6.9378e-09 1.02551e-08 -2.86623e-09)
(-1.08186e-09 8.71182e-09 -2.67933e-09)
(8.20481e-09 9.19728e-09 -1.36286e-10)
(1.52226e-10 2.87444e-09 -1.37251e-10)
(-1.64656e-10 2.80448e-09 -1.29829e-10)
(-8.24941e-09 9.05463e-09 -1.15669e-10)
(1.32589e-08 1.11969e-08 -4.16149e-10)
(1.72661e-09 7.77641e-09 -4.02742e-10)
(-1.50908e-09 7.49482e-09 -3.83513e-10)
(-1.30509e-08 1.03922e-08 -3.62689e-10)
(1.41957e-08 1.33287e-08 -6.93296e-10)
(2.36359e-09 1.19812e-08 -6.64499e-10)
(-1.49818e-09 1.1473e-08 -6.35716e-10)
(-1.33124e-08 1.18342e-08 -6.1217e-10)
(1.4494e-08 1.57727e-08 -9.52212e-10)
(2.76035e-09 1.52905e-08 -9.10325e-10)
(-7.76475e-10 1.45529e-08 -8.73197e-10)
(-1.24695e-08 1.35851e-08 -8.45924e-10)
(1.49766e-08 1.81111e-08 -1.161e-09)
(3.31325e-09 1.80551e-08 -1.108e-09)
(2.68701e-10 1.70877e-08 -1.06334e-09)
(-1.13334e-08 1.52339e-08 -1.03149e-09)
(1.51235e-08 2.02769e-08 -1.27214e-09)
(3.82262e-09 2.05064e-08 -1.21104e-09)
(1.82949e-09 1.93101e-08 -1.15999e-09)
(-9.40651e-09 1.67217e-08 -1.12237e-09)
(1.39479e-08 2.20841e-08 -1.23574e-09)
(3.99929e-09 2.19197e-08 -1.17229e-09)
(4.18401e-09 2.05098e-08 -1.11704e-09)
(-5.77575e-09 1.78788e-08 -1.07146e-09)
(1.19678e-08 1.26725e-08 -1.02545e-09)
(4.25952e-09 1.11039e-08 -9.69112e-10)
(6.86588e-09 9.60196e-09 -9.13772e-10)
(-1.07662e-09 8.02985e-09 -8.57982e-10)
)
;

boundaryField
{
    interface
    {
        type            solidTraction;
        traction        nonuniform List<vector> 
192
(
(69.4495 -0.193264 -4.53581)
(71.3731 0.0573297 -6.24289)
(72.0939 0.406858 -6.41446)
(72.6903 0.773183 -6.3252)
(72.4484 1.10861 -6.09493)
(73.1876 1.78932 -5.80659)
(70.8725 2.23343 -5.2)
(74.2515 4.69154 -4.68551)
(66.9268 -0.081531 -2.38153)
(67.9171 0.171083 -3.40671)
(68.3355 0.511445 -3.46929)
(68.8306 0.913832 -3.36902)
(68.4797 1.28974 -3.18254)
(69.3371 2.06584 -2.95912)
(66.8803 2.56181 -2.56908)
(70.8883 5.20989 -2.24034)
(70.2825 -0.0630273 -1.953)
(71.217 0.217556 -2.77062)
(71.6261 0.592689 -2.81974)
(72.1203 1.04887 -2.73662)
(71.6111 1.48454 -2.58406)
(72.3698 2.36754 -2.39636)
(69.3475 2.95202 -2.09123)
(73.2263 5.82383 -1.81257)
(70.0915 -0.0204464 -1.26346)
(70.8329 0.280351 -1.83544)
(71.1322 0.672377 -1.86307)
(71.58 1.15719 -1.7943)
(70.993 1.62471 -1.67897)
(71.759 2.55896 -1.54008)
(68.5988 3.1811 -1.33711)
(72.601 6.12855 -1.15318)
(71.033 -0.00590876 -0.945174)
(71.7352 0.315657 -1.36765)
(71.9894 0.730438 -1.38873)
(72.4117 1.24223 -1.3372)
(71.7468 1.73976 -1.25135)
(72.456 2.71626 -1.1459)
(69.0893 3.37448 -0.998654)
(73.0164 6.38563 -0.859307)
(71.1157 0.00897352 -0.604472)
(71.7642 0.345121 -0.884633)
(71.9735 0.774651 -0.897739)
(72.3727 1.3032 -0.861711)
(71.6681 1.81908 -0.803772)
(72.3637 2.8194 -0.733012)
(68.9182 3.49748 -0.638987)
(72.8603 6.54361 -0.549913)
(71.3953 0.0153281 -0.354771)
(72.0322 0.361755 -0.518424)
(72.2219 0.802537 -0.526431)
(72.6082 1.34279 -0.50531)
(71.8733 1.87148 -0.471706)
(72.5447 2.88741 -0.429742)
(69.0262 3.57927 -0.375877)
(72.9422 6.64879 -0.322527)
(71.4336 0.0196965 -0.113089)
(72.0564 0.370847 -0.166794)
(72.2339 0.816595 -0.169316)
(72.6129 1.36194 -0.16214)
(71.8684 1.89662 -0.151155)
(72.532 2.91914 -0.13722)
(68.9949 3.61777 -0.120232)
(72.901 6.69774 -0.102602)
(7.13921 0.686181 29.5044)
(10.0451 0.599904 24.4907)
(10.4133 0.361702 22.8139)
(10.3918 0.290664 22.8809)
(10.2592 0.273509 23.9679)
(10.1299 0.34514 25.9554)
(9.90146 0.38451 29.0553)
(10.0956 0.56009 32.1735)
(5.51793 0.294003 39.3099)
(8.17116 0.280835 38.3627)
(8.45423 0.144357 38.0666)
(8.41514 0.0751604 38.1521)
(8.33389 0.0270118 38.5289)
(8.28574 0.0164714 39.1852)
(8.23245 0.0109665 40.0523)
(8.59525 0.0597567 40.8473)
(5.85779 0.142351 35.2393)
(8.63811 0.118008 34.593)
(8.95984 0.0119345 34.3471)
(8.91814 -0.0779325 34.4135)
(8.80994 -0.16001 34.8302)
(8.70684 -0.237292 35.4397)
(8.56824 -0.296822 36.4461)
(8.82582 -0.317619 37.4771)
(6.82319 0.0714063 36.2338)
(9.97302 0.0220224 35.8671)
(10.3542 -0.0846218 35.6932)
(10.3098 -0.195306 35.7057)
(10.1539 -0.297203 35.9984)
(9.99342 -0.419888 36.2752)
(9.69652 -0.514942 36.9137)
(9.8994 -0.6517 37.4593)
(-12.7868 0.701087 3.48501)
(-7.57592 0.336601 4.99762)
(-5.95012 -0.278507 5.13003)
(-5.44112 -0.75055 5.06442)
(-6.32974 -1.11187 4.91687)
(-6.00705 -1.74148 4.82075)
(-9.22725 -1.89992 4.47389)
(0.590299 -4.51561 4.54942)
(-25.4505 0.175519 1.18972)
(-24.4013 -0.0780906 1.98555)
(-24.0397 -0.463417 1.99598)
(-23.5165 -0.853299 1.92562)
(-23.7341 -1.14463 1.85005)
(-21.8461 -1.76342 1.84842)
(-23.1286 -1.70593 1.75139)
(-9.13625 -4.44374 1.94884)
(-24.8561 0.0624981 1.34905)
(-24.0019 -0.202769 2.09712)
(-23.5949 -0.551622 2.14807)
(-22.9255 -0.94745 2.09683)
(-23.0084 -1.24062 2.01822)
(-20.6385 -1.90129 1.9658)
(-21.7268 -1.80029 1.82762)
(-5.75364 -4.79199 1.8144)
(-27.4563 -0.00491845 0.878)
(-26.9127 -0.283499 1.43261)
(-26.6071 -0.618241 1.47106)
(-25.838 -1.00991 1.42981)
(-25.7171 -1.28972 1.36887)
(-22.7818 -1.95447 1.32539)
(-23.4056 -1.7966 1.23222)
(-5.76441 -4.89295 1.22185)
(-27.6182 -0.0166299 0.733618)
(-27.0831 -0.312128 1.15552)
(-26.7447 -0.657414 1.19038)
(-25.8841 -1.0603 1.16067)
(-25.6659 -1.34585 1.11192)
(-22.4666 -2.02562 1.0663)
(-22.9592 -1.85181 0.985007)
(-4.39501 -5.04273 0.943144)
(-28.2499 -0.0239187 0.483055)
(-27.7392 -0.331059 0.767583)
(-27.3837 -0.685201 0.791591)
(-26.4562 -1.09571 0.770938)
(-26.147 -1.38444 0.73769)
(-22.7266 -2.07038 0.705015)
(-23.0643 -1.88215 0.652235)
(-3.79908 -5.12924 0.622732)
(-28.3698 -0.0250066 0.292214)
(-27.8506 -0.339985 0.458777)
(-27.4706 -0.701612 0.473482)
(-26.4981 -1.11857 0.461486)
(-26.138 -1.41157 0.442146)
(-22.6027 -2.10286 0.421051)
(-22.8756 -1.90878 0.389965)
(-3.21627 -5.19319 0.367525)
(-28.5014 -0.0264112 0.0942262)
(-27.9844 -0.344889 0.149069)
(-27.5938 -0.709844 0.15385)
(-26.6005 -1.1295 0.149688)
(-26.2098 -1.4247 0.143402)
(-22.6174 -2.11741 0.136097)
(-22.8396 -1.92096 0.12664)
(-2.9902 -5.22282 0.118611)
(10.1063 -32.0084 -0.53266)
(9.91976 -28.7874 -0.358053)
(10.1595 -25.5022 -0.309272)
(10.3069 -23.2227 -0.213695)
(10.4649 -21.5964 -0.174506)
(10.5649 -20.3961 -0.113965)
(10.6362 -19.6748 -0.07101)
(10.6699 -19.3134 -0.0230052)
(8.60013 -40.6933 -0.0269649)
(8.24043 -39.8187 0.020388)
(8.29689 -38.8165 0.0244524)
(8.347 -37.9858 0.0315378)
(8.42212 -37.3563 0.0197933)
(8.47045 -36.8563 0.0173112)
(8.50802 -36.5497 0.00936072)
(8.52598 -36.3783 0.00392377)
(8.8292 -37.3214 0.353938)
(8.57264 -36.2029 0.332102)
(8.71334 -35.0542 0.282698)
(8.81912 -34.2574 0.220465)
(8.92703 -33.581 0.165864)
(8.99722 -33.1087 0.114775)
(9.04727 -32.7971 0.0668179)
(9.07062 -32.6481 0.021977)
(9.89548 -37.3086 0.689452)
(9.6932 -36.6772 0.552038)
(9.99256 -35.9134 0.466335)
(10.1602 -35.4796 0.355379)
(10.3267 -34.9931 0.273853)
(10.4317 -34.7007 0.1879)
(10.5053 -34.4774 0.112005)
(10.5399 -34.3709 0.0370245)
)
;
        pressure        uniform 0;
        secondOrder     false;
        setEffectiveTraction false;
        relaxationFactor 1;
        value           nonuniform List<vector> 
192
(
(6.5859e-08 2.28011e-08 6.39127e-09)
(6.62156e-08 1.86787e-08 7.16023e-09)
(6.79598e-08 1.82332e-08 4.08622e-09)
(7.02841e-08 2.05712e-08 2.80482e-11)
(7.34037e-08 2.42304e-08 -4.41175e-09)
(7.69606e-08 2.89089e-08 -9.32172e-09)
(7.99371e-08 3.50935e-08 -1.48577e-08)
(7.89077e-08 3.09995e-08 -1.95213e-08)
(6.2881e-08 1.71948e-08 -1.72201e-09)
(6.52511e-08 1.65546e-08 -2.77261e-09)
(6.67975e-08 1.8564e-08 -5.46174e-09)
(6.89003e-08 2.21449e-08 -9.33997e-09)
(7.2111e-08 2.6289e-08 -1.37375e-08)
(7.61665e-08 3.06095e-08 -1.83205e-08)
(8.01848e-08 3.48522e-08 -2.23187e-08)
(8.07045e-08 2.74048e-08 -2.36036e-08)
(5.79889e-08 1.62204e-08 -1.37053e-09)
(6.21307e-08 1.53226e-08 -3.18607e-09)
(6.39043e-08 1.77608e-08 -5.60264e-09)
(6.58037e-08 2.1774e-08 -8.87345e-09)
(6.88123e-08 2.58682e-08 -1.25821e-08)
(7.27893e-08 2.93597e-08 -1.6063e-08)
(7.69439e-08 3.19215e-08 -1.8184e-08)
(7.85237e-08 2.29931e-08 -1.74487e-08)
(5.44839e-08 1.5844e-08 -1.18548e-09)
(5.90992e-08 1.46163e-08 -3.26091e-09)
(6.10494e-08 1.6718e-08 -5.48762e-09)
(6.2844e-08 2.04408e-08 -8.11472e-09)
(6.56407e-08 2.40775e-08 -1.09064e-08)
(6.94347e-08 2.68336e-08 -1.32233e-08)
(7.35769e-08 2.85697e-08 -1.41262e-08)
(7.57349e-08 1.93813e-08 -1.28353e-08)
(5.22244e-08 1.53924e-08 -9.91378e-10)
(5.67672e-08 1.39754e-08 -2.87706e-09)
(5.87227e-08 1.56574e-08 -4.77207e-09)
(6.04347e-08 1.88747e-08 -6.77038e-09)
(6.30675e-08 2.19817e-08 -8.70213e-09)
(6.67025e-08 2.42523e-08 -1.01037e-08)
(7.08026e-08 2.56878e-08 -1.03659e-08)
(7.32577e-08 1.65505e-08 -9.11264e-09)
(5.08147e-08 1.49838e-08 -7.42053e-10)
(5.51785e-08 1.33818e-08 -2.18058e-09)
(5.70588e-08 1.47115e-08 -3.59399e-09)
(5.86918e-08 1.74872e-08 -4.98387e-09)
(6.1212e-08 2.01773e-08 -6.21646e-09)
(6.47397e-08 2.21606e-08 -7.00104e-09)
(6.88017e-08 2.34944e-08 -6.98864e-09)
(7.14137e-08 1.44219e-08 -5.99371e-09)
(4.99989e-08 1.47024e-08 -4.57805e-10)
(5.42289e-08 1.29326e-08 -1.34316e-09)
(5.6036e-08 1.40089e-08 -2.20253e-09)
(5.76072e-08 1.64864e-08 -3.01542e-09)
(6.00573e-08 1.89122e-08 -3.69444e-09)
(6.3522e-08 2.07357e-08 -4.0829e-09)
(6.75592e-08 2.20286e-08 -4.00477e-09)
(7.02554e-08 1.29934e-08 -3.37194e-09)
(4.96259e-08 1.45632e-08 -1.54675e-10)
(5.37918e-08 1.26946e-08 -4.52282e-10)
(5.55595e-08 1.36377e-08 -7.39213e-10)
(5.70977e-08 1.59681e-08 -1.00593e-09)
(5.9514e-08 1.82688e-08 -1.22222e-09)
(6.295e-08 2.00202e-08 -1.33866e-09)
(6.69753e-08 2.12958e-08 -1.30163e-09)
(6.97099e-08 1.22766e-08 -1.08492e-09)
(6.04601e-09 2.20736e-08 7.02794e-08)
(8.71226e-09 1.71122e-08 6.82679e-08)
(9.40992e-09 1.60494e-08 6.6154e-08)
(1.0395e-08 1.79789e-08 6.35449e-08)
(1.1617e-08 2.15671e-08 6.11593e-08)
(1.20203e-08 2.66862e-08 5.95562e-08)
(1.01802e-08 3.37972e-08 5.90019e-08)
(6.79609e-09 3.0638e-08 5.69844e-08)
(-5.07616e-10 1.55238e-08 6.83796e-08)
(7.75908e-10 1.36985e-08 6.72299e-08)
(1.71161e-09 1.46432e-08 6.4786e-08)
(2.72218e-09 1.74056e-08 6.22918e-08)
(3.9085e-09 2.15059e-08 6.04566e-08)
(4.83236e-09 2.69682e-08 5.97173e-08)
(5.04152e-09 3.33266e-08 6.02313e-08)
(5.15252e-09 2.77052e-08 5.89853e-08)
(1.40214e-09 1.55791e-08 6.8076e-08)
(1.94739e-09 1.34366e-08 6.71379e-08)
(3.07365e-09 1.4061e-08 6.48611e-08)
(4.41489e-09 1.65377e-08 6.24941e-08)
(5.88509e-09 2.038e-08 6.07595e-08)
(7.93067e-09 2.55982e-08 6.01067e-08)
(1.10166e-08 3.1724e-08 6.07082e-08)
(1.44913e-08 2.59537e-08 5.96093e-08)
(-5.25182e-09 2.21512e-08 6.96427e-08)
(-6.13839e-09 1.61156e-08 6.83545e-08)
(-4.79231e-09 1.41191e-08 6.67515e-08)
(-3.43498e-09 1.52387e-08 6.45236e-08)
(-2.00262e-09 1.80954e-08 6.24378e-08)
(5.51722e-10 2.25243e-08 6.10836e-08)
(5.60671e-09 2.89614e-08 6.07547e-08)
(1.23787e-08 2.52708e-08 5.90724e-08)
(-6.44393e-08 2.16925e-08 7.12351e-09)
(-6.32226e-08 1.64975e-08 8.91546e-09)
(-6.30788e-08 1.50491e-08 6.55314e-09)
(-6.31749e-08 1.64654e-08 3.01639e-09)
(-6.3734e-08 1.92625e-08 -1.01712e-09)
(-6.44397e-08 2.31227e-08 -5.59059e-09)
(-6.44123e-08 2.85348e-08 -1.08261e-08)
(-6.06152e-08 2.38716e-08 -1.52298e-08)
(-6.12131e-08 1.62102e-08 -1.13466e-09)
(-6.24143e-08 1.44587e-08 -1.32101e-09)
(-6.23924e-08 1.54632e-08 -3.3734e-09)
(-6.25065e-08 1.81244e-08 -6.7657e-09)
(-6.33362e-08 2.14073e-08 -1.07731e-08)
(-6.46724e-08 2.49152e-08 -1.50293e-08)
(-6.57881e-08 2.84157e-08 -1.87577e-08)
(-6.36883e-08 2.04781e-08 -1.98829e-08)
(-5.64693e-08 1.54861e-08 -9.43409e-10)
(-5.97256e-08 1.35003e-08 -2.10174e-09)
(-6.02012e-08 1.49228e-08 -4.00129e-09)
(-6.03433e-08 1.79961e-08 -6.85133e-09)
(-6.11605e-08 2.12096e-08 -1.02086e-08)
(-6.25699e-08 2.38777e-08 -1.33952e-08)
(-6.39393e-08 2.56998e-08 -1.5289e-08)
(-6.29774e-08 1.62821e-08 -1.44435e-08)
(-5.31443e-08 1.53215e-08 -8.81481e-10)
(-5.7087e-08 1.30685e-08 -2.47837e-09)
(-5.79493e-08 1.41683e-08 -4.31068e-09)
(-5.81826e-08 1.69398e-08 -6.59837e-09)
(-5.89598e-08 1.96756e-08 -9.09552e-09)
(-6.03304e-08 2.15886e-08 -1.11636e-08)
(-6.1801e-08 2.25675e-08 -1.18791e-08)
(-6.14905e-08 1.28641e-08 -1.05026e-08)
(-5.10209e-08 1.50209e-08 -7.8287e-10)
(-5.50403e-08 1.26444e-08 -2.33437e-09)
(-5.60625e-08 1.33525e-08 -3.94428e-09)
(-5.63665e-08 1.56197e-08 -5.68675e-09)
(-5.71214e-08 1.78125e-08 -7.38901e-09)
(-5.84563e-08 1.9221e-08 -8.5937e-09)
(-5.99856e-08 1.98779e-08 -8.7075e-09)
(-6.00427e-08 1.02003e-08 -7.38766e-09)
(-4.97017e-08 1.47122e-08 -6.07598e-10)
(-5.36398e-08 1.22035e-08 -1.82767e-09)
(-5.46933e-08 1.25879e-08 -3.04996e-09)
(-5.50291e-08 1.44214e-08 -4.26311e-09)
(-5.57779e-08 1.61909e-08 -5.33308e-09)
(-5.71011e-08 1.72983e-08 -5.97577e-09)
(-5.86728e-08 1.78366e-08 -5.8556e-09)
(-5.89465e-08 8.20477e-09 -4.81263e-09)
(-4.89409e-08 1.44907e-08 -3.82701e-10)
(-5.28034e-08 1.185e-08 -1.14494e-09)
(-5.38498e-08 1.20027e-08 -1.89481e-09)
(-5.41949e-08 1.35462e-08 -2.60443e-09)
(-5.49441e-08 1.50493e-08 -3.18676e-09)
(-5.62692e-08 1.5989e-08 -3.48976e-09)
(-5.78718e-08 1.64755e-08 -3.34623e-09)
(-5.82729e-08 6.86863e-09 -2.68435e-09)
(-4.85939e-08 1.43797e-08 -1.30542e-10)
(-5.24194e-08 1.16578e-08 -3.88416e-10)
(-5.34579e-08 1.16888e-08 -6.39717e-10)
(-5.38047e-08 1.30901e-08 -8.72512e-10)
(-5.4555e-08 1.44679e-08 -1.05674e-09)
(-5.5884e-08 1.53319e-08 -1.14465e-09)
(-5.75034e-08 1.5796e-08 -1.08571e-09)
(-5.79652e-08 6.19914e-09 -8.59274e-10)
(7.16003e-09 -4.58828e-08 -2.00656e-08)
(1.13157e-08 -4.68337e-08 -2.32389e-08)
(1.39564e-08 -4.6279e-08 -1.61996e-08)
(1.43179e-08 -4.66445e-08 -1.11936e-08)
(1.36794e-08 -4.75826e-08 -7.5638e-09)
(1.29358e-08 -4.85886e-08 -4.81166e-09)
(1.24146e-08 -4.93751e-08 -2.65407e-09)
(1.21638e-08 -4.97975e-08 -8.46286e-10)
(5.50306e-09 -4.8594e-08 -1.78319e-08)
(6.15814e-09 -4.87965e-08 -2.34515e-08)
(6.74281e-09 -4.72132e-08 -1.71139e-08)
(6.59232e-09 -4.67712e-08 -1.17021e-08)
(6.06988e-09 -4.71721e-08 -7.64103e-09)
(5.55472e-09 -4.78633e-08 -4.7064e-09)
(5.20043e-09 -4.84865e-08 -2.54222e-09)
(5.02857e-09 -4.88412e-08 -8.02966e-10)
(1.48398e-08 -4.99118e-08 -1.67625e-08)
(1.21145e-08 -4.99895e-08 -2.25172e-08)
(9.80991e-09 -4.83448e-08 -1.63767e-08)
(8.59754e-09 -4.78556e-08 -1.11425e-08)
(8.0763e-09 -4.82178e-08 -7.23321e-09)
(7.83725e-09 -4.88789e-08 -4.42961e-09)
(7.70345e-09 -4.94815e-08 -2.38189e-09)
(7.63588e-09 -4.98257e-08 -7.5048e-10)
(1.27338e-08 -5.0075e-08 -1.67756e-08)
(6.69298e-09 -5.07473e-08 -2.04535e-08)
(2.39252e-09 -5.00417e-08 -1.40024e-08)
(6.58703e-10 -5.02753e-08 -9.514e-09)
(2.32236e-10 -5.11003e-08 -6.334e-09)
(2.04857e-10 -5.20175e-08 -3.97514e-09)
(2.27277e-10 -5.27428e-08 -2.16913e-09)
(2.33496e-10 -5.3134e-08 -6.87485e-10)
)
;
        gradient        nonuniform List<vector> 
192
(
(4.78056e-06 3.00128e-07 4.24604e-08)
(4.58489e-06 7.08048e-08 7.39962e-08)
(4.66541e-06 3.3034e-08 7.61493e-08)
(4.77825e-06 4.02112e-08 7.01092e-08)
(4.94012e-06 2.75144e-08 6.5007e-08)
(5.20236e-06 -3.22778e-08 6.43224e-08)
(5.59199e-06 -1.03902e-07 6.97499e-08)
(5.77385e-06 -4.89724e-08 7.88212e-08)
(4.38119e-06 4.06799e-07 5.82779e-08)
(4.24217e-06 9.74671e-08 1.07646e-07)
(4.30465e-06 3.03999e-08 1.12688e-07)
(4.41254e-06 3.69457e-08 1.06862e-07)
(4.58199e-06 3.17347e-08 1.04473e-07)
(4.86696e-06 -2.04145e-08 1.09214e-07)
(5.30966e-06 -9.05202e-08 1.21086e-07)
(5.59221e-06 -3.96225e-08 1.34901e-07)
(3.91772e-06 4.6613e-07 1.72552e-08)
(3.82732e-06 1.25231e-07 4.71243e-08)
(3.89004e-06 3.22512e-08 5.455e-08)
(3.99219e-06 3.19962e-08 5.02357e-08)
(4.15474e-06 2.9866e-08 4.4638e-08)
(4.43165e-06 -1.5666e-08 4.29355e-08)
(4.86806e-06 -7.82142e-08 4.88694e-08)
(5.20342e-06 -3.3153e-08 6.26682e-08)
(3.6403e-06 4.71242e-07 -6.54505e-09)
(3.56138e-06 1.34774e-07 -2.38559e-09)
(3.62645e-06 3.35128e-08 3.94762e-10)
(3.72695e-06 2.70337e-08 -2.79879e-09)
(3.88568e-06 2.44345e-08 -8.86791e-09)
(4.15655e-06 -1.61831e-08 -1.32939e-08)
(4.58544e-06 -7.0787e-08 -1.11275e-08)
(4.94388e-06 -3.11115e-08 -1.97895e-09)
(3.48267e-06 4.57242e-07 -1.08654e-08)
(3.40769e-06 1.3218e-07 -1.74239e-08)
(3.47383e-06 3.18392e-08 -1.91677e-08)
(3.57377e-06 2.27336e-08 -2.21705e-08)
(3.73054e-06 1.93709e-08 -2.693e-08)
(3.9978e-06 -1.79255e-08 -3.07976e-08)
(4.42119e-06 -6.68989e-08 -3.00747e-08)
(4.78999e-06 -3.11527e-08 -2.48224e-08)
(3.39017e-06 4.42983e-07 -8.26283e-09)
(3.31735e-06 1.26479e-07 -1.53672e-08)
(3.3838e-06 2.87671e-08 -1.84233e-08)
(3.48339e-06 1.92715e-08 -2.10862e-08)
(3.63904e-06 1.58073e-08 -2.42974e-08)
(3.90408e-06 -1.93277e-08 -2.68204e-08)
(4.32367e-06 -6.48114e-08 -2.65341e-08)
(4.69742e-06 -3.15146e-08 -2.35517e-08)
(3.33765e-06 4.33632e-07 -4.65957e-09)
(3.26605e-06 1.22023e-07 -9.06201e-09)
(3.33254e-06 2.61209e-08 -1.13185e-08)
(3.43187e-06 1.68595e-08 -1.31156e-08)
(3.58687e-06 1.36367e-08 -1.49545e-08)
(3.85061e-06 -2.01621e-08 -1.63102e-08)
(4.26782e-06 -6.36299e-08 -1.61627e-08)
(4.64398e-06 -3.16683e-08 -1.45645e-08)
(3.31369e-06 4.29274e-07 -1.47112e-09)
(3.24263e-06 1.19822e-07 -2.89065e-09)
(3.3091e-06 2.47139e-08 -3.67329e-09)
(3.40829e-06 1.56356e-08 -4.29774e-09)
(3.56299e-06 1.26127e-08 -4.89721e-09)
(3.82612e-06 -2.05359e-08 -5.32169e-09)
(4.24219e-06 -6.30656e-08 -5.27102e-09)
(4.61937e-06 -3.16772e-08 -4.75739e-09)
(-4.47458e-09 2.41924e-07 5.15351e-06)
(-1.53854e-08 -5.45159e-08 4.96261e-06)
(-1.85786e-08 -1.41667e-07 5.04157e-06)
(-1.2884e-08 -1.6717e-07 5.15146e-06)
(-2.82009e-09 -1.85545e-07 5.31069e-06)
(7.13912e-09 -2.101e-07 5.57456e-06)
(1.1437e-08 -2.07611e-07 5.97852e-06)
(4.92592e-09 -7.78931e-08 6.19928e-06)
(1.99407e-08 2.80059e-07 4.93489e-06)
(2.99449e-08 -5.18213e-08 4.79365e-06)
(3.14824e-08 -1.41116e-07 4.8547e-06)
(3.67814e-08 -1.56983e-07 4.96308e-06)
(4.63199e-08 -1.68415e-07 5.13628e-06)
(5.76417e-08 -1.93471e-07 5.43078e-06)
(6.6273e-08 -2.02578e-07 5.89214e-06)
(6.5817e-08 -7.89372e-08 6.18253e-06)
(-4.6959e-09 2.9162e-07 4.89777e-06)
(6.47385e-09 -4.30178e-08 4.75287e-06)
(1.94265e-08 -1.34838e-07 4.81266e-06)
(2.45906e-08 -1.52336e-07 4.92071e-06)
(2.31606e-08 -1.64689e-07 5.09387e-06)
(1.85944e-08 -1.90153e-07 5.38847e-06)
(1.61302e-08 -1.99448e-07 5.85037e-06)
(2.20019e-08 -7.76503e-08 6.14645e-06)
(1.88606e-08 2.81641e-07 5.05503e-06)
(4.96649e-08 -2.77417e-08 4.85819e-06)
(6.68518e-08 -1.23006e-07 4.9347e-06)
(7.15489e-08 -1.53251e-07 5.04373e-06)
(6.96213e-08 -1.74412e-07 5.2026e-06)
(6.63606e-08 -2.00503e-07 5.46617e-06)
(6.79043e-08 -1.99179e-07 5.86995e-06)
(7.94063e-08 -7.4599e-08 6.10196e-06)
(-4.71614e-06 2.44944e-07 5.34994e-08)
(-4.51707e-06 2.81176e-09 1.0306e-07)
(-4.59607e-06 -4.86008e-08 1.18837e-07)
(-4.70764e-06 -5.51111e-08 1.23153e-07)
(-4.86889e-06 -8.10453e-08 1.26209e-07)
(-5.13296e-06 -1.52638e-07 1.32229e-07)
(-5.53361e-06 -2.33302e-07 1.43484e-07)
(-5.76011e-06 -1.8653e-07 1.5778e-07)
(-4.28196e-06 3.67119e-07 6.5325e-08)
(-4.13977e-06 4.41273e-08 1.2892e-07)
(-4.19978e-06 -3.94529e-08 1.46171e-07)
(-4.30494e-06 -4.91226e-08 1.50255e-07)
(-4.47174e-06 -6.9372e-08 1.55895e-07)
(-4.75563e-06 -1.34499e-07 1.67252e-07)
(-5.20579e-06 -2.14267e-07 1.84787e-07)
(-5.53388e-06 -1.72387e-07 2.03743e-07)
(-3.81731e-06 4.39137e-07 2.30863e-08)
(-3.72174e-06 8.36407e-08 6.3658e-08)
(-3.78128e-06 -2.72687e-08 8.10111e-08)
(-3.88021e-06 -4.53884e-08 8.54456e-08)
(-4.03953e-06 -6.40488e-08 8.72784e-08)
(-4.31447e-06 -1.23747e-07 9.17949e-08)
(-4.75672e-06 -1.96811e-07 1.02961e-07)
(-5.13421e-06 -1.61364e-07 1.21293e-07)
(-3.54418e-06 4.53814e-07 -2.2873e-09)
(-3.45907e-06 1.02039e-07 9.50751e-09)
(-3.52041e-06 -1.76671e-08 1.98022e-08)
(-3.61735e-06 -4.28557e-08 2.37282e-08)
(-3.77262e-06 -6.30229e-08 2.4021e-08)
(-4.0412e-06 -1.18817e-07 2.50599e-08)
(-4.47508e-06 -1.84768e-07 3.18443e-08)
(-4.87298e-06 -1.55227e-07 4.49619e-08)
(-3.39063e-06 4.46325e-07 -8.07691e-09)
(-3.30897e-06 1.05721e-07 -9.51049e-09)
(-3.37106e-06 -1.30492e-08 -5.91114e-09)
(-3.46722e-06 -4.11698e-08 -3.54559e-09)
(-3.6204e-06 -6.27171e-08 -3.28591e-09)
(-3.88521e-06 -1.15923e-07 -2.71209e-09)
(-4.31312e-06 -1.76909e-07 1.82799e-09)
(-4.71966e-06 -1.5173e-07 1.03869e-08)
(-3.30112e-06 4.36201e-07 -6.57412e-09)
(-3.2214e-06 1.04198e-07 -1.04755e-08)
(-3.28364e-06 -1.17031e-08 -1.0021e-08)
(-3.37932e-06 -4.02305e-08 -8.99414e-09)
(-3.53127e-06 -6.21894e-08 -8.6284e-09)
(-3.79376e-06 -1.13703e-07 -7.89963e-09)
(-4.21757e-06 -1.71668e-07 -4.76678e-09)
(-4.62797e-06 -1.49266e-07 7.04986e-10)
(-3.25056e-06 4.29258e-07 -3.76138e-09)
(-3.17196e-06 1.0227e-07 -6.42249e-09)
(-3.23417e-06 -1.15685e-08 -6.70215e-09)
(-3.32951e-06 -3.97772e-08 -6.35657e-09)
(-3.48076e-06 -6.16226e-08 -6.06529e-09)
(-3.74188e-06 -1.12062e-07 -5.4457e-09)