/*--------------------------------*- C++ -*----------------------------------*\
| =========                 |                                                 |
| \\      /  F ield         | OpenFOAM: The Open Source CFD Toolbox           |
|  \\    /   O peration     | Version:  v1912                                 |
|   \\  /    A nd           | Website:  www.openfoam.com                      |
|    \\/     M anipulation  |                                                 |
\*---------------------------------------------------------------------------*/
FoamFile
{
    version     2.0;
    format      ascii;
    class       volSymmTensorField;
    location    "0.18/solid";
    object      epsilon;
}
// * * * * * * * * * * * * * * * * * * * * * * * * * * * * * * * * * * * * * //

dimensions      [0 0 0 0 0 0 0];


internalField   nonuniform List<symmTensor> 
256
(
(-2.52746e-06 4.7688e-09 1.89753e-08 7.36864e-07 -8.92067e-09 -2.74298e-06)
(-9.2822e-08 -7.47092e-08 1.01472e-08 5.27387e-07 1.65235e-09 -2.65674e-06)
(-9.46141e-08 9.93489e-08 -9.72342e-09 5.18164e-07 4.11871e-09 -2.63805e-06)
(-2.49704e-06 5.73608e-09 -1.73415e-08 7.0186e-07 3.15323e-10 -2.69564e-06)
(-2.4625e-06 -1.67733e-08 2.92801e-08 -2.45859e-08 -3.82062e-08 -2.68837e-06)
(-1.40762e-07 -1.74438e-08 1.56877e-08 8.76814e-08 -3.87449e-08 -2.63698e-06)
(-1.43216e-07 3.48608e-08 -1.44954e-08 7.62511e-08 -3.71984e-08 -2.61684e-06)
(-2.43105e-06 2.41794e-08 -2.67299e-08 -5.94804e-08 -3.24884e-08 -2.64029e-06)
(-2.49919e-06 -5.87481e-09 2.87588e-08 4.54973e-08 -3.17814e-08 -2.72088e-06)
(-1.36227e-07 -2.12982e-09 1.55529e-08 1.00432e-07 -3.24076e-08 -2.65927e-06)
(-1.38921e-07 1.49052e-08 -1.40994e-08 8.93514e-08 -3.13445e-08 -2.63886e-06)
(-2.46721e-06 1.12504e-08 -2.60266e-08 1.38389e-08 -2.77541e-08 -2.67272e-06)
(-2.555e-06 3.0413e-09 2.85857e-08 1.21324e-07 -2.56488e-08 -2.77228e-06)
(-1.2897e-07 3.84791e-09 1.55517e-08 1.44078e-07 -2.35579e-08 -2.71059e-06)
(-1.31835e-07 5.51198e-09 -1.41248e-08 1.33843e-07 -2.27227e-08 -2.69023e-06)
(-2.52256e-06 8.97003e-10 -2.58359e-08 9.23778e-08 -2.24705e-08 -2.72428e-06)
(-2.63651e-06 4.11786e-09 3.10659e-08 1.84878e-07 -2.63296e-08 -2.85173e-06)
(-1.21133e-07 4.0158e-09 1.70198e-08 2.00375e-07 -2.26322e-08 -2.80126e-06)
(-1.24048e-07 2.5517e-09 -1.56827e-08 1.90664e-07 -2.18951e-08 -2.78098e-06)
(-2.60381e-06 -1.3766e-09 -2.83277e-08 1.57527e-07 -2.36123e-08 -2.80384e-06)
(-2.75757e-06 -7.33913e-09 3.57022e-08 2.50117e-07 -3.70047e-08 -2.97848e-06)
(-8.46561e-08 -4.53717e-09 1.96763e-08 2.44955e-07 -3.34002e-08 -2.94991e-06)
(-8.77925e-08 8.63438e-09 -1.83803e-08 2.3557e-07 -3.26547e-08 -2.92977e-06)
(-2.726e-06 8.70359e-09 -3.29678e-08 2.23512e-07 -3.44647e-08 -2.93061e-06)
(-2.91248e-06 -3.13246e-08 4.05625e-08 4.59851e-08 -5.5991e-08 -3.15131e-06)
(1.55559e-08 -1.95725e-08 2.23007e-08 -1.38935e-08 -5.51144e-08 -3.15707e-06)
(1.08959e-08 2.1103e-08 -2.08924e-08 -2.10161e-08 -5.42289e-08 -3.1375e-06)
(-2.88795e-06 3.06534e-08 -3.78237e-08 2.34527e-08 -5.33618e-08 -3.10393e-06)
(-2.93502e-06 -4.1471e-08 4.18381e-08 -3.19539e-06 -5.65928e-08 -3.19531e-06)
(1.49634e-07 -2.22418e-08 2.2787e-08 -3.23478e-06 -5.80483e-08 -3.23441e-06)
(1.41126e-07 2.15981e-08 -2.1158e-08 -3.2193e-06 -5.71744e-08 -3.21863e-06)
(-2.93666e-06 3.93927e-08 -3.92219e-08 -3.15609e-06 -5.43486e-08 -3.15553e-06)
(-2.35765e-06 3.24727e-08 1.13758e-08 5.48922e-07 -1.52245e-07 -1.48935e-07)
(-1.50125e-07 -6.06418e-08 8.16674e-09 3.3909e-07 -1.59022e-07 -1.76977e-07)
(-1.49034e-07 7.30488e-08 -6.63066e-09 3.27707e-07 -1.53618e-07 -1.7771e-07)
(-2.30695e-06 -2.61199e-08 -9.79416e-09 5.10566e-07 -1.35175e-07 -1.53735e-07)
(-2.34102e-06 -1.13227e-08 2.11312e-08 1.21485e-07 -8.4563e-08 -2.00208e-07)
(-2.39261e-07 -1.67743e-08 1.42933e-08 2.30148e-07 -8.97008e-08 -2.39972e-07)
(-2.37887e-07 2.47092e-08 -1.13468e-08 2.18552e-07 -8.61412e-08 -2.4217e-07)
(-2.28844e-06 1.47383e-08 -1.86075e-08 8.67017e-08 -7.25689e-08 -2.10494e-07)
(-2.37028e-06 -7.29933e-09 2.19594e-08 1.26935e-07 -7.02011e-08 -1.88377e-07)
(-2.40964e-07 -5.24609e-09 1.49931e-08 1.83385e-07 -7.08699e-08 -2.26565e-07)
(-2.3974e-07 1.08726e-08 -1.18042e-08 1.72959e-07 -6.82741e-08 -2.29733e-07)
(-2.31662e-06 9.59394e-09 -1.9299e-08 9.66264e-08 -6.10436e-08 -2.01632e-07)
(-2.42307e-06 1.7669e-09 2.1501e-08 1.54166e-07 -6.86755e-08 -1.73062e-07)
(-2.33147e-07 8.19762e-10 1.4742e-08 1.77277e-07 -6.62415e-08 -2.12302e-07)
(-2.3197e-07 3.14651e-09 -1.1804e-08 1.67665e-07 -6.41145e-08 -2.16028e-07)
(-2.36809e-06 -1.2056e-10 -1.89054e-08 1.26362e-07 -6.11209e-08 -1.87928e-07)
(-2.51014e-06 4.58505e-09 2.25435e-08 1.83632e-07 -7.4015e-08 -1.58314e-07)
(-2.27639e-07 2.14196e-09 1.54988e-08 1.98933e-07 -7.10708e-08 -2.0307e-07)
(-2.2637e-07 3.10859e-10 -1.28425e-08 1.89707e-07 -6.91712e-08 -2.07124e-07)
(-2.45374e-06 -3.58232e-09 -2.00159e-08 1.57162e-07 -6.74135e-08 -1.74097e-07)
(-2.64719e-06 -4.93006e-09 2.52464e-08 2.01829e-07 -8.54571e-08 -1.29479e-07)
(-1.98567e-07 -4.88594e-09 1.74501e-08 1.97072e-07 -8.36427e-08 -1.82456e-07)
(-1.97418e-07 5.87144e-09 -1.49356e-08 1.8828e-07 -8.18814e-08 -1.86799e-07)
(-2.59038e-06 4.94496e-09 -2.27418e-08 1.76393e-07 -7.95189e-08 -1.45985e-07)
(-2.83528e-06 -2.83653e-08 2.89049e-08 -5.92919e-08 -9.09736e-08 -6.13054e-08)
(-1.09717e-07 -1.8787e-08 1.9854e-08 -1.20456e-07 -9.04261e-08 -1.20987e-07)
(-1.1015e-07 1.83732e-08 -1.74864e-08 -1.26308e-07 -8.89099e-08 -1.25931e-07)
(-2.78377e-06 2.66941e-08 -2.64864e-08 -7.92703e-08 -8.60089e-08 -7.91284e-08)
(-2.91277e-06 -4.03346e-08 3.21039e-08 -3.15102e-06 -5.55985e-08 4.54895e-08)
(1.50881e-08 -2.19644e-08 2.11507e-08 -3.15731e-06 -5.4869e-08 -1.32869e-08)
(1.033e-08 2.11706e-08 -1.98013e-08 -3.13814e-06 -5.40234e-08 -1.95231e-08)
(-2.88836e-06 3.79179e-08 -3.03045e-08 -3.10443e-06 -5.31398e-08 2.48484e-08)
(-2.13494e-06 4.85041e-08 -1.36451e-09 4.83019e-07 -7.5176e-08 2.69363e-08)
(-1.80797e-07 -4.70467e-08 1.19547e-09 2.73789e-07 -8.75225e-08 2.67309e-08)
(-1.79328e-07 5.34948e-08 8.1174e-10 2.62984e-07 -8.29349e-08 2.5143e-08)
(-2.08327e-06 -4.45099e-08 2.23481e-09 4.49034e-07 -6.1019e-08 2.19666e-08)
(-2.15932e-06 -5.27968e-09 2.65735e-09 1.39279e-07 -7.10296e-08 1.77419e-08)
(-3.06466e-07 -1.42036e-08 3.68646e-09 2.44605e-07 -7.56918e-08 1.92401e-08)
(-3.04199e-07 1.73567e-08 -2.09107e-10 2.3329e-07 -7.19066e-08 1.56033e-08)
(-2.10426e-06 6.83978e-09 -1.0609e-09 1.05335e-07 -5.89595e-08 6.7059e-09)
(-2.19318e-06 -7.30674e-09 4.24185e-09 1.52336e-07 -7.61116e-08 2.75558e-08)
(-3.18436e-07 -6.6053e-09 4.5682e-09 2.11084e-07 -7.59845e-08 3.01747e-08)
(-3.16115e-07 8.48313e-09 -9.8521e-10 2.0087e-07 -7.2854e-08 2.5286e-08)
(-2.13648e-06 8.10992e-09 -2.53981e-09 1.22173e-07 -6.58915e-08 1.28469e-08)
(-2.24274e-06 7.79953e-10 3.97334e-09 1.62744e-07 -8.43574e-08 5.192e-08)
(-3.10595e-07 -6.91877e-10 4.37113e-09 1.87536e-07 -8.17652e-08 5.40207e-08)
(-3.082e-07 1.83766e-09 -1.14e-09 1.78097e-07 -7.90591e-08 4.83761e-08)
(-2.18435e-06 -2.56201e-10 -2.3789e-09 1.34931e-07 -7.54857e-08 3.49781e-08)
(-2.32589e-06 4.48726e-09 3.57261e-09 1.6363e-07 -9.2185e-08 8.4956e-08)
(-3.04957e-07 1.71747e-09 4.25222e-09 1.78742e-07 -8.9473e-08 8.55131e-08)
(-3.02372e-07 -1.27942e-09 -1.38964e-09 1.69698e-07 -8.70544e-08 7.9359e-08)
(-2.2657e-06 -4.28246e-09 -2.10143e-09 1.37221e-07 -8.4343e-08 6.65203e-08)
(-2.45976e-06 -3.58791e-09 3.84444e-09 1.48087e-07 -9.48362e-08 1.3257e-07)
(-2.79247e-07 -3.96039e-09 4.83132e-09 1.43571e-07 -9.33431e-08 1.31416e-07)
(-2.76722e-07 3.67786e-09 -2.25669e-09 1.35058e-07 -9.12138e-08 1.24809e-07)
(-2.39864e-06 3.0885e-09 -2.47127e-09 1.22995e-07 -8.79908e-08 1.12862e-07)
(-2.64782e-06 -2.48002e-08 5.48133e-09 -1.2296e-07 -8.16154e-08 1.96901e-07)
(-1.98596e-07 -1.65794e-08 6.23922e-09 -1.78118e-07 -8.0411e-08 1.94743e-07)
(-1.97679e-07 1.56445e-08 -4.15315e-09 -1.83611e-07 -7.87942e-08 1.8761e-07)
(-2.59123e-06 2.28724e-08 -4.30922e-09 -1.42508e-07 -7.63394e-08 1.75808e-07)
(-2.7584e-06 -3.55613e-08 8.39287e-09 -2.97729e-06 -3.50228e-08 2.49587e-07)
(-8.5376e-08 -1.94451e-08 6.80403e-09 -2.94974e-06 -3.18447e-08 2.46517e-07)
(-8.8924e-08 1.85932e-08 -6.26295e-09 -2.93018e-06 -3.12107e-08 2.38911e-07)
(-2.72735e-06 3.30251e-08 -7.9325e-09 -2.93085e-06 -3.2977e-08 2.27301e-07)
(-1.99319e-06 5.10699e-08 -4.94003e-09 4.57703e-07 -5.05163e-08 1.46132e-08)
(-1.84251e-07 -4.24839e-08 -1.73998e-09 2.50966e-07 -5.62604e-08 2.33842e-08)
(-1.83402e-07 4.58505e-08 3.64011e-09 2.41327e-07 -5.28386e-08 2.21365e-08)
(-1.94428e-06 -4.8715e-08 5.51835e-09 4.28837e-07 -4.00519e-08 1.10016e-08)
(-2.02829e-06 -2.93593e-09 -5.63797e-09 1.26912e-07 -5.82295e-08 2.23172e-08)
(-3.22677e-07 -1.32031e-08 -2.11198e-09 2.29779e-07 -5.92479e-08 3.75597e-08)
(-3.21015e-07 1.38715e-08 5.44221e-09 2.19149e-07 -5.6067e-08 3.45423e-08)
(-1.97547e-06 3.50476e-09 6.79297e-09 9.48062e-08 -4.83722e-08 1.36397e-08)
(-2.06664e-06 -6.93347e-09 -4.81506e-09 1.43424e-07 -6.9469e-08 3.50409e-08)
(-3.41762e-07 -7.13267e-09 -1.73254e-09 2.03316e-07 -6.80716e-08 5.18431e-08)
(-3.39843e-07 7.02475e-09 5.16611e-09 1.93338e-07 -6.52046e-08 4.76355e-08)
(-2.0117e-06 6.97998e-09 6.06991e-09 1.13649e-07 -6.04584e-08 2.28707e-08)
(-2.11551e-06 6.91871e-11 -4.87407e-09 1.49459e-07 -8.08656e-08 6.0163e-08)
(-3.34546e-07 -1.58267e-09 -1.85125e-09 1.75421e-07 -7.81012e-08 7.67303e-08)
(-3.32426e-07 1.24534e-09 4.93904e-09 1.66025e-07 -7.55062e-08 7.1704e-08)
(-2.05859e-06 -1.21008e-10 6.02364e-09 1.21486e-07 -7.26669e-08 4.55394e-08)
(-2.19555e-06 3.77141e-09 -5.5231e-09 1.3866e-07 -8.73264e-08 9.54907e-08)
(-3.27107e-07 1.22432e-09 -2.2397e-09 1.53675e-07 -8.44907e-08 1.11534e-07)
(-3.24726e-07 -1.77936e-09 4.93307e-09 1.44629e-07 -8.21492e-08 1.05894e-07)
(-2.13664e-06 -3.95517e-09 6.52957e-09 1.11967e-07 -7.99565e-08 7.90332e-08)
(-2.3255e-06 -3.23644e-09 -5.96689e-09 1.1365e-07 -8.27069e-08 1.37619e-07)
(-3.00998e-07 -3.41487e-09 -2.30477e-09 1.10036e-07 -8.08096e-08 1.53446e-07)
(-2.98637e-07 2.60171e-09 4.61489e-09 1.01511e-07 -7.87978e-08 1.47295e-07)
(-2.26547e-06 2.53179e-09 6.82878e-09 8.82737e-08 -7.63583e-08 1.19658e-07)
(-2.51112e-06 -2.18508e-08 -5.23547e-09 -1.45313e-07 -6.12856e-08 1.76097e-07)
(-2.24796e-07 -1.44725e-08 -1.66293e-09 -1.92902e-07 -5.96346e-08 1.92007e-07)
(-2.24026e-07 1.33682e-08 3.33118e-09 -1.98501e-07 -5.81942e-08 1.85438e-07)
(-2.45517e-06 1.98586e-08 5.84417e-09 -1.65389e-07 -5.65854e-08 1.56914e-07)
(-2.63838e-06 -3.07863e-08 -3.6587e-09 -2.85028e-06 -2.05728e-08 1.88594e-07)
(-1.20151e-07 -1.67419e-08 -1.94808e-09 -2.80114e-06 -1.74535e-08 2.04401e-07)
(-1.23856e-07 1.57822e-08 2.04403e-09 -2.7817e-06 -1.69575e-08 1.97658e-07)
(-2.60663e-06 2.81709e-08 3.58046e-09 -2.80464e-06 -1.88844e-08 1.68843e-07)
(-1.9095e-06 4.89034e-08 -4.01585e-09 4.4e-07 -4.02179e-08 9.29795e-09)
(-1.78629e-07 -4.2713e-08 -1.8092e-09 2.37205e-07 -4.06122e-08 1.51501e-08)
(-1.78413e-07 4.43606e-08 3.31625e-09 2.28622e-07 -3.81832e-08 1.41979e-08)
(-1.86327e-06 -4.7621e-08 4.45384e-09 4.15294e-07 -3.28651e-08 6.54936e-09)
(-1.94573e-06 -2.9477e-09 -5.86773e-09 1.11651e-07 -4.8077e-08 2.48519e-08)
(-3.16005e-07 -1.35649e-08 -2.93794e-09 2.12794e-07 -4.6335e-08 3.49535e-08)
(-3.15106e-07 1.28593e-08 5.67042e-09 2.02882e-07 -4.39525e-08 3.25684e-08)
(-1.89547e-06 2.94367e-09 6.77341e-09 8.14748e-08 -4.08049e-08 1.80098e-08)
(-1.98563e-06 -6.88074e-09 -5.79593e-09 1.25347e-07 -5.78122e-08 4.2577e-08)
(-3.37062e-07 -7.52605e-09 -2.96991e-09 1.85215e-07 -5.55385e-08 5.36153e-08)
(-3.35766e-07 6.31045e-09 5.8498e-09 1.75527e-07 -5.32752e-08 5.01884e-08)
(-1.93295e-06 6.51464e-09 6.80179e-09 9.62293e-08 -5.08183e-08 3.26701e-08)
(-2.03426e-06 -3.81396e-10 -5.85374e-09 1.29604e-07 -6.6896e-08 6.71889e-08)
(-3.30009e-07 -2.11892e-09 -3.07269e-09 1.55942e-07 -6.42604e-08 7.79035e-08)
(-3.28403e-07 9.47215e-10 5.68672e-09 1.46596e-07 -6.21375e-08 7.36835e-08)
(-1.97938e-06 1.26041e-11 6.78021e-09 1.01617e-07 -6.0288e-08 5.48857e-08)
(-2.11236e-06 3.16488e-09 -6.30666e-09 1.17717e-07 -7.01783e-08 9.76571e-08)
(-3.20876e-07 8.08134e-10 -3.3911e-09 1.32604e-07 -6.76445e-08 1.07731e-07)
(-3.1895e-07 -1.9147e-09 5.65175e-09 1.23504e-07 -6.57019e-08 1.02872e-07)
(-2.05537e-06 -3.5622e-09 7.1029e-09 9.07148e-08 -6.41254e-08 8.34111e-08)
(-2.23961e-06 -3.11248e-09 -6.68344e-09 9.5689e-08 -6.25814e-08 1.27827e-07)
(-2.93657e-07 -3.13469e-09 -3.56752e-09 9.29051e-08 -6.07715e-08 1.37431e-07)
(-2.91718e-07 2.0338e-09 5.44069e-09 8.42654e-08 -5.91133e-08 1.32051e-07)
(-2.18137e-06 2.29988e-09 7.33059e-09 6.98556e-08 -5.73668e-08 1.11996e-07)
(-2.42321e-06 -1.98052e-08 -6.30692e-09 -1.50731e-07 -4.2336e-08 1.46604e-07)
(-2.19948e-07 -1.29877e-08 -3.33103e-09 -1.92663e-07 -4.08847e-08 1.5611e-07)
(-2.19575e-07 1.17745e-08 4.57569e-09 -1.98458e-07 -3.97224e-08 1.50365e-07)
(-2.3688e-06 1.77771e-08 6.70608e-09 -1.71464e-07 -3.85236e-08 1.29623e-07)
(-2.55891e-06 -2.74096e-08 -5.58257e-09 -2.77258e-06 -1.28963e-08 1.42224e-07)
(-1.20586e-07 -1.48031e-08 -3.92649e-09 -2.71089e-06 -1.07035e-08 1.52359e-07)
(-1.24681e-07 1.37377e-08 3.78944e-09 -2.69165e-06 -1.03129e-08 1.46531e-07)
(-2.52784e-06 2.47285e-08 5.38063e-09 -2.72773e-06 -1.15397e-08 1.24864e-07)
(-1.85951e-06 4.64376e-08 -2.4478e-09 4.24948e-07 -3.02214e-08 9.12e-09)
(-1.7285e-07 -4.39098e-08 -1.0866e-09 2.25975e-07 -2.87836e-08 1.15682e-08)
(-1.73083e-07 4.45824e-08 2.14956e-09 2.18182e-07 -2.71694e-08 1.08007e-08)
(-1.81522e-06 -4.58112e-08 2.763e-09 4.03214e-07 -2.53896e-08 6.92449e-09)
(-1.89484e-06 -3.56097e-09 -3.83889e-09 9.81067e-08 -3.64077e-08 2.85875e-08)
(-3.05848e-07 -1.4235e-08 -1.90512e-09 1.98254e-07 -3.39761e-08 3.22261e-08)
(-3.05514e-07 1.27519e-08 3.8879e-09 1.88917e-07 -3.23542e-08 3.02697e-08)
(-1.84653e-06 3.22581e-09 4.50482e-09 6.94909e-08 -3.15057e-08 2.30165e-08)
(-1.93472e-06 -7.04764e-09 -4.00682e-09 1.08908e-07 -4.30888e-08 4.94284e-08)
(-3.26181e-07 -7.8751e-09 -2.03363e-09 1.68312e-07 -4.08201e-08 5.29186e-08)
(-3.25367e-07 6.02214e-09 4.17368e-09 1.58892e-07 -3.92323e-08 5.0052e-08)
(-1.88382e-06 6.44739e-09 4.76192e-09 8.04637e-08 -3.82225e-08 4.11873e-08)
(-1.98296e-06 -6.67395e-10 -4.09475e-09 1.12557e-07 -4.86391e-08 7.28356e-08)
(-3.18676e-07 -2.43911e-09 -2.12269e-09 1.38784e-07 -4.65022e-08 7.56971e-08)
(-3.17475e-07 7.71414e-10 4.09395e-09 1.29503e-07 -4.49754e-08 7.2089e-08)
(-1.92972e-06 1.13619e-10 4.80083e-09 8.46801e-08 -4.39149e-08 6.23491e-08)
(-2.0599e-06 2.81886e-09 -4.34931e-09 1.03117e-07 -4.94334e-08 9.71599e-08)
(-3.08406e-07 5.6216e-10 -2.31617e-09 1.17768e-07 -4.75368e-08 9.92127e-08)
(-3.06839e-07 -2.01214e-09 4.02167e-09 1.08624e-07 -4.61204e-08 9.49746e-08)
(-2.00445e-06 -3.34706e-09 4.95727e-09 7.59071e-08 -4.50315e-08 8.47399e-08)
(-2.18551e-06 -3.00192e-09 -4.55169e-09 8.64966e-08 -4.23289e-08 1.16794e-07)
(-2.80497e-07 -2.96248e-09 -2.44249e-09 8.41569e-08 -4.0994e-08 1.18164e-07)
(-2.78888e-07 1.66466e-09 3.8307e-09 7.54094e-08 -3.97817e-08 1.13408e-07)
(-2.12874e-06 2.1165e-09 5.0371e-09 6.02839e-08 -3.8511e-08 1.02762e-07)
(-2.36772e-06 -1.85167e-08 -4.33866e-09 -1.51726e-07 -2.73359e-08 1.23744e-07)
(-2.08365e-07 -1.20849e-08 -2.37825e-09 -1.9024e-07 -2.63732e-08 1.24875e-07)
(-2.083e-07 1.07777e-08 3.25649e-09 -1.96197e-07 -2.55266e-08 1.19773e-07)
(-2.3146e-06 1.64563e-08 4.62205e-09 -1.7298e-07 -2.45432e-08 1.08568e-07)
(-2.50795e-06 -2.53298e-08 -3.98871e-09 -2.72595e-06 -8.17712e-09 1.12249e-07)
(-1.12224e-07 -1.36306e-08 -2.91525e-09 -2.65754e-06 -6.88555e-09 1.14113e-07)
(-1.16622e-07 1.24789e-08 2.72531e-09 -2.63848e-06 -6.60082e-09 1.08967e-07)
(-2.47762e-06 2.25956e-08 3.80681e-09 -2.68176e-06 -7.17896e-09 9.67633e-08)
(-1.83095e-06 4.48278e-08 -1.24427e-09 4.13786e-07 -1.87873e-08 1.00496e-08)
(-1.69115e-07 -4.47612e-08 -4.95045e-10 2.17549e-07 -1.74906e-08 1.08027e-08)
(-1.69625e-07 4.49116e-08 1.12351e-09 2.10268e-07 -1.65693e-08 1.01441e-08)
(-1.78791e-06 -4.45715e-08 1.43382e-09 3.93932e-07 -1.60538e-08 8.19504e-09)
(-1.86543e-06 -4.03466e-09 -1.96358e-09 8.80075e-08 -2.26549e-08 3.14469e-08)
(-2.98715e-07 -1.47012e-08 -8.7629e-10 1.87685e-07 -2.08672e-08 3.17209e-08)
(-2.98736e-07 1.27991e-08 2.07055e-09 1.78731e-07 -1.99304e-08 3.00258e-08)
(-1.81841e-06 3.51958e-09 2.3701e-09 6.04453e-08 -1.98424e-08 2.66807e-08)
(-1.90492e-06 -7.21613e-09 -2.09424e-09 9.73668e-08 -2.64472e-08 5.34081e-08)
(-3.17897e-07 -8.11117e-09 -9.52741e-10 1.5635e-07 -2.48763e-08 5.27979e-08)
(-3.1739e-07 5.90544e-09 2.2645e-09 1.47127e-07 -2.3944e-08 5.02823e-08)
(-1.85523e-06 6.4876e-09 2.56237e-09 6.94361e-08 -2.36029e-08 4.62505e-08)
(-1.95278e-06 -8.40286e-10 -2.16475e-09 1.01188e-07 -2.92006e-08 7.53616e-08)
(-3.09796e-07 -2.62022e-09 -1.00856e-09 1.27176e-07 -2.78333e-08 7.38571e-08)
(-3.08855e-07 6.65532e-10 2.23262e-09 1.17955e-07 -2.69228e-08 7.0644e-08)
(-1.90066e-06 1.80658e-10 2.60833e-09 7.34468e-08 -2.63909e-08 6.60953e-08)
(-2.02904e-06 2.64961e-09 -2.29153e-09 9.42412e-08 -2.89617e-08 9.50348e-08)
(-2.98856e-07 4.38957e-10 -1.10812e-09 1.08635e-07 -2.78182e-08 9.26556e-08)
(-2.97519e-07 -2.10084e-09 2.17177e-09 9.94701e-08 -2.69647e-08 8.88282e-08)
(-1.97464e-06 -3.25776e-09 2.67589e-09 6.69277e-08 -2.63104e-08 8.38748e-08)
(-2.15374e-06 -2.9087e-09 -2.3814e-09 8.16447e-08 -2.42053e-08 1.07873e-07)
(-2.70663e-07 -2.85661e-09 -1.17633e-09 7.94539e-08 -2.34315e-08 1.04798e-07)
(-2.69264e-07 1.42475e-09 2.03637e-09 7.06367e-08 -2.26973e-08 1.00456e-07)
(-2.09798e-06 1.97379e-09 2.68702e-09 5.51937e-08 -2.18888e-08 9.50932e-08)
(-2.33512e-06 -1.77736e-08 -2.26768e-09 -1.5197e-07 -1.53134e-08 1.08424e-07)
(-1.99548e-07 -1.15905e-08 -1.17064e-09 -1.88686e-07 -1.48105e-08 1.05112e-07)
(-1.99676e-07 1.02109e-08 1.70213e-09 -1.94748e-07 -1.42969e-08 1.00431e-07)
(-2.2829e-06 1.56874e-08 2.44284e-09 -1.73559e-07 -1.36125e-08 9.44912e-08)
(-2.47779e-06 -2.41677e-08 -2.09002e-09 -2.69927e-06 -4.58829e-09 9.34772e-08)
(-1.05357e-07 -1.29969e-08 -1.51004e-09 -2.62762e-06 -3.9485e-09 9.08129e-08)
(-1.09947e-07 1.17844e-08 1.36859e-09 -2.6087e-06 -3.77525e-09 8.61111e-08)
(-2.44804e-06 2.13961e-08 1.97181e-09 -2.65554e-06 -3.97742e-09 7.92691e-08)
(-1.8179e-06 4.409e-08 -3.76671e-10 4.07883e-07 -6.37128e-09 1.07169e-08)
(-1.67389e-07 -4.51396e-08 -1.35915e-10 2.13017e-07 -5.8951e-09 1.08997e-08)
(-1.68033e-07 4.50645e-08 3.43622e-10 2.05986e-07 -5.59582e-09 1.02932e-08)
(-1.77547e-06 -4.40001e-08 4.39707e-10 3.88936e-07 -5.48743e-09 9.02706e-09)
(-1.85196e-06 -4.25122e-09 -5.87489e-10 8.26294e-08 -7.67474e-09 3.29207e-08)
(-2.95359e-07 -1.49067e-08 -2.36104e-10 1.82134e-07 -7.04328e-09 3.20556e-08)
(-2.95551e-07 1.28222e-08 6.34373e-10 1.73371e-07 -6.73731e-09 3.04862e-08)
(-1.80558e-06 3.65739e-09 7.23782e-10 5.55922e-08 -6.75931e-09 2.8547e-08)
(-1.89119e-06 -7.30258e-09 -6.29224e-10 9.15165e-08 -8.89659e-09 5.5087e-08)
(-3.13877e-07 -8.22e-09 -2.56351e-10 1.50282e-07 -8.34641e-09 5.30472e-08)
(-3.13519e-07 5.85692e-09 6.97715e-10 1.41161e-07 -8.03963e-09 5.07022e-08)
(-1.84211e-06 6.51719e-09 7.87449e-10 6.3858e-08 -7.96275e-09 4.8464e-08)
(-1.93882e-06 -9.21452e-10 -6.54493e-10 9.56478e-08 -9.70689e-09 7.60737e-08)
(-3.0541e-07 -2.70168e-09 -2.7433e-10 1.21479e-07 -9.23983e-09 7.30143e-08)
(-3.04597e-07 6.14204e-10 6.89138e-10 1.12293e-07 -8.93802e-09 6.99957e-08)
(-1.88727e-06 2.13096e-10 8.05491e-10 6.79928e-08 -8.77656e-09 6.7418e-08)
(-2.01476e-06 2.58068e-09 -6.93198e-10 9.00834e-08 -9.50553e-09 9.33703e-08)
(-2.94158e-07 3.87822e-10 -3.05036e-10 1.04318e-07 -9.12617e-09 8.94222e-08)
(-2.92934e-07 -2.15251e-09 6.66656e-10 9.51455e-08 -8.84167e-09 8.57989e-08)
(-1.96091e-06 -3.22744e-09 8.24564e-10 6.27328e-08 -8.62178e-09 8.28487e-08)
(-2.13908e-06 -2.85733e-09 -7.18498e-10 7.94593e-08 -7.85608e-09 1.03023e-07)
(-2.6588e-07 -2.80683e-09 -3.26604e-10 7.72922e-08 -7.60659e-09 9.84147e-08)
(-2.64583e-07 1.30594e-09 6.18461e-10 6.84428e-08 -7.36106e-09 9.4279e-08)
(-2.08382e-06 1.89696e-09 8.22872e-10 5.28986e-08 -7.08048e-09 9.08811e-08)
(-2.32007e-06 -1.74337e-08 -6.82377e-10 -1.52087e-07 -4.93209e-09 1.0077e-07)
(-1.95278e-07 -1.1374e-08 -3.29502e-10 -1.8805e-07 -4.78063e-09 9.59595e-08)
(-1.95501e-07 9.95485e-09 5.08216e-10 -1.94163e-07 -4.6086e-09 9.14877e-08)
(-2.2683e-06 1.53332e-08 7.4179e-10 -1.73837e-07 -4.36109e-09 8.74677e-08)
(-2.46385e-06 -2.36493e-08 -6.25252e-10 -2.68703e-06 -1.48054e-09 8.43068e-08)
(-1.02039e-07 -1.27225e-08 -4.42995e-10 -2.61412e-06 -1.29113e-09 8.00821e-08)
(-1.06723e-07 1.14784e-08 3.92063e-10 -2.59526e-06 -1.233e-09 7.56001e-08)
(-2.43439e-06 2.08583e-08 5.84536e-10 -2.64353e-06 -1.27495e-09 7.07463e-08)
)
;

boundaryField
{
    interface
    {
        type            calculated;
        value           nonuniform List<symmTensor> 
192
(
(-4.78056e-06 1.27785e-12 3.02309e-11 7.36864e-07 -8.92067e-09 -2.74298e-06)
(-4.58489e-06 -3.18942e-13 4.11978e-11 -2.45859e-08 -3.82062e-08 -2.68837e-06)
(-4.66541e-06 -2.53467e-12 4.22124e-11 4.54973e-08 -3.17814e-08 -2.72088e-06)
(-4.77825e-06 -4.8531e-12 4.15916e-11 1.21324e-07 -2.56488e-08 -2.77228e-06)
(-4.94012e-06 -7.01066e-12 4.00656e-11 1.84878e-07 -2.63296e-08 -2.85173e-06)
(-5.20236e-06 -1.14386e-11 3.81512e-11 2.50117e-07 -3.70047e-08 -2.97848e-06)
(-5.59199e-06 -1.43158e-11 3.41413e-11 4.59851e-08 -5.5991e-08 -3.15131e-06)
(-5.77385e-06 -3.03778e-11 3.07282e-11 -3.19539e-06 -5.65928e-08 -3.19531e-06)
(-4.38119e-06 5.84679e-13 1.59107e-11 5.48922e-07 -1.52245e-07 -1.48935e-07)
(-4.24217e-06 -1.04116e-12 2.24915e-11 1.21485e-07 -8.4563e-08 -2.00208e-07)
(-4.30465e-06 -3.21601e-12 2.28495e-11 1.26935e-07 -7.02011e-08 -1.88377e-07)
(-4.41254e-06 -5.78075e-12 2.21834e-11 1.54166e-07 -6.86755e-08 -1.73062e-07)
(-4.58199e-06 -8.21102e-12 2.09606e-11 1.83632e-07 -7.4015e-08 -1.58314e-07)
(-4.86696e-06 -1.32717e-11 1.94883e-11 2.01829e-07 -8.54571e-08 -1.29479e-07)
(-5.30966e-06 -1.64848e-11 1.69182e-11 -5.92919e-08 -9.09736e-08 -6.13054e-08)
(-5.59221e-06 -3.38122e-11 1.47482e-11 -3.15102e-06 -5.55985e-08 4.54895e-08)
(-3.91772e-06 4.93503e-13 1.30672e-11 4.83019e-07 -7.5176e-08 2.69363e-08)
(-3.82732e-06 -1.3267e-12 1.8321e-11 1.39279e-07 -7.10296e-08 1.77419e-08)
(-3.89004e-06 -3.74519e-12 1.86042e-11 1.52336e-07 -7.61116e-08 2.75558e-08)
(-3.99219e-06 -6.66876e-12 1.8055e-11 1.62744e-07 -8.43574e-08 5.192e-08)
(-4.15474e-06 -9.49626e-12 1.70566e-11 1.6363e-07 -9.2185e-08 8.4956e-08)
(-4.43165e-06 -1.5263e-11 1.58206e-11 1.48087e-07 -9.48362e-08 1.3257e-07)
(-4.86806e-06 -1.90547e-11 1.38092e-11 -1.2296e-07 -8.16154e-08 1.96901e-07)
(-5.20342e-06 -3.78626e-11 1.19663e-11 -2.97729e-06 -3.50228e-08 2.49587e-07)
(-3.6403e-06 2.35484e-13 8.47178e-12 4.57703e-07 -5.05163e-08 1.46132e-08)
(-3.56138e-06 -1.71905e-12 1.21466e-11 1.26912e-07 -5.82295e-08 2.23172e-08)
(-3.62645e-06 -4.25561e-12 1.23025e-11 1.43424e-07 -6.9469e-08 3.50409e-08)
(-3.72695e-06 -7.37201e-12 1.18535e-11 1.49459e-07 -8.08656e-08 6.0163e-08)
(-3.88568e-06 -1.04133e-11 1.11037e-11 1.3866e-07 -8.73264e-08 9.54907e-08)
(-4.15655e-06 -1.65207e-11 1.01942e-11 1.1365e-07 -8.27069e-08 1.37619e-07)
(-4.58544e-06 -2.05586e-11 8.8605e-12 -1.45313e-07 -6.12856e-08 1.76097e-07)
(-4.94388e-06 -3.98709e-11 7.64742e-12 -2.85028e-06 -2.05728e-08 1.88594e-07)
(-3.48267e-06 1.5419e-13 6.33424e-12 4.4e-07 -4.02179e-08 9.29795e-09)
(-3.40769e-06 -1.93696e-12 9.04759e-12 1.11651e-07 -4.8077e-08 2.48519e-08)
(-3.47383e-06 -4.626e-12 9.16822e-12 1.25347e-07 -5.78122e-08 4.2577e-08)
(-3.57377e-06 -7.92103e-12 8.83382e-12 1.29604e-07 -6.6896e-08 6.71889e-08)
(-3.73054e-06 -1.1161e-11 8.27835e-12 1.17717e-07 -7.01783e-08 9.76571e-08)
(-3.9978e-06 -1.75469e-11 7.59086e-12 9.5689e-08 -6.25814e-08 1.27827e-07)
(-4.42119e-06 -2.18196e-11 6.62689e-12 -1.50731e-07 -4.2336e-08 1.46604e-07)
(-4.78999e-06 -4.15529e-11 5.7106e-12 -2.77258e-06 -1.28963e-08 1.42224e-07)
(-3.39017e-06 6.80747e-14 4.06266e-12 4.24948e-07 -3.02214e-08 9.12e-09)
(-3.31735e-06 -2.11828e-12 5.86437e-12 9.81067e-08 -3.64077e-08 2.85875e-08)
(-3.3838e-06 -4.90588e-12 5.93993e-12 1.08908e-07 -4.30888e-08 4.94284e-08)
(-3.48339e-06 -8.31215e-12 5.70819e-12 1.12557e-07 -4.86391e-08 7.28356e-08)
(-3.63904e-06 -1.16744e-11 5.33564e-12 1.03117e-07 -4.94334e-08 9.71599e-08)
(-3.90408e-06 -1.82184e-11 4.8768e-12 8.64966e-08 -4.23289e-08 1.16794e-07)
(-4.32367e-06 -2.26213e-11 4.26364e-12 -1.51726e-07 -2.73359e-08 1.23744e-07)
(-4.69742e-06 -4.25868e-11 3.68009e-12 -2.72595e-06 -8.17712e-09 1.12249e-07)
(-3.33765e-06 3.35861e-14 2.3805e-12 4.13786e-07 -1.87873e-08 1.00496e-08)
(-3.26605e-06 -2.21949e-12 3.43304e-12 8.80075e-08 -2.26549e-08 3.14469e-08)
(-3.33254e-06 -5.08097e-12 3.48056e-12 9.73668e-08 -2.64472e-08 5.34081e-08)
(-3.43187e-06 -8.56386e-12 3.34626e-12 1.01188e-07 -2.92006e-08 7.53616e-08)
(-3.58687e-06 -1.20103e-11 3.13217e-12 9.42412e-08 -2.89617e-08 9.50348e-08)
(-3.85061e-06 -1.86569e-11 2.8623e-12 8.16447e-08 -2.42053e-08 1.07873e-07)
(-4.26782e-06 -2.31491e-11 2.51381e-12 -1.5197e-07 -1.53134e-08 1.08424e-07)
(-4.64398e-06 -4.32684e-11 2.16706e-12 -2.69927e-06 -4.58829e-09 9.34772e-08)
(-3.31369e-06 1.01253e-14 7.62447e-13 4.07883e-07 -6.37128e-09 1.07169e-08)
(-3.24263e-06 -2.27352e-12 1.10861e-12 8.26294e-08 -7.67474e-09 3.29207e-08)
(-3.3091e-06 -5.16773e-12 1.12397e-12 9.15165e-08 -8.89659e-09 5.5087e-08)
(-3.40829e-06 -8.68406e-12 1.07881e-12 9.56478e-08 -9.70689e-09 7.60737e-08)
(-3.56299e-06 -1.21701e-11 1.00933e-12 9.00834e-08 -9.50553e-09 9.33703e-08)
(-3.82612e-06 -1.88601e-11 9.20088e-13 7.94593e-08 -7.85608e-09 1.03023e-07)
(-4.24219e-06 -2.33965e-11 8.10625e-13 -1.52087e-07 -4.93209e-09 1.0077e-07)
(-4.61937e-06 -4.35848e-11 6.96249e-13 -2.68703e-06 -1.48054e-09 8.43068e-08)
(-2.52746e-06 4.7688e-09 -4.7804e-11 7.36864e-07 -4.20903e-12 -5.15351e-06)
(-2.4625e-06 -1.67733e-08 -6.65059e-11 -2.45859e-08 -3.69105e-12 -4.96261e-06)
(-2.49919e-06 -5.87481e-09 -6.87246e-11 4.54973e-08 -2.23282e-12 -5.04157e-06)
(-2.555e-06 3.0413e-09 -6.85244e-11 1.21324e-07 -1.83594e-12 -5.15146e-06)
(-2.63651e-06 4.11786e-09 -6.76209e-11 1.84878e-07 -1.75458e-12 -5.31069e-06)
(-2.75757e-06 -7.33913e-09 -6.67195e-11 2.50117e-07 -2.22575e-12 -5.57456e-06)
(-2.91248e-06 -3.13246e-08 -6.5131e-11 4.59851e-08 -2.46248e-12 -5.97852e-06)
(-2.93502e-06 -4.1471e-08 -6.61905e-11 -3.19539e-06 -3.57557e-12 -6.19928e-06)
(-9.2822e-08 -7.47092e-08 -3.72977e-11 5.27387e-07 -1.76857e-12 -4.93489e-06)
(-1.40762e-07 -1.74438e-08 -5.44237e-11 8.76814e-08 -1.68691e-12 -4.79365e-06)
(-1.36227e-07 -2.12982e-09 -5.61314e-11 1.00432e-07 -8.66812e-13 -4.8547e-06)
(-1.2897e-07 3.84791e-09 -5.58409e-11 1.44078e-07 -4.66443e-13 -4.96308e-06)
(-1.21133e-07 4.0158e-09 -5.52827e-11 2.00375e-07 -1.83329e-13 -5.13628e-06)
(-8.46561e-08 -4.53717e-09 -5.49156e-11 2.44955e-07 -1.31369e-13 -5.43078e-06)
(1.55559e-08 -1.95725e-08 -5.44742e-11 -1.38935e-08 -9.58862e-14 -5.89214e-06)
(1.49634e-07 -2.22418e-08 -5.66049e-11 -3.23478e-06 -3.97162e-13 -6.18253e-06)
(-9.46141e-08 9.93489e-08 -3.95106e-11 5.18164e-07 -8.72511e-13 -4.89777e-06)
(-1.43216e-07 3.48608e-08 -5.74235e-11 7.62511e-08 -6.88744e-13 -4.75287e-06)
(-1.38921e-07 1.49052e-08 -5.93635e-11 8.93514e-08 -2.7479e-14 -4.81266e-06)
(-1.31835e-07 5.51198e-09 -5.9051e-11 1.33843e-07 5.26195e-13 -4.92071e-06)
(-1.24048e-07 2.5517e-09 -5.83204e-11 1.90664e-07 1.03891e-12 -5.09387e-06)
(-8.77925e-08 8.63438e-09 -5.76039e-11 2.3557e-07 1.52555e-12 -5.38847e-06)
(1.08959e-08 2.1103e-08 -5.66259e-11 -2.10161e-08 1.90407e-12 -5.85037e-06)
(1.41126e-07 2.15981e-08 -5.80784e-11 -3.2193e-06 2.04188e-12 -6.14645e-06)
(-2.49704e-06 5.73608e-09 -4.59512e-11 7.0186e-07 -4.64062e-13 -5.05503e-06)
(-2.43105e-06 2.41794e-08 -6.61934e-11 -5.94804e-08 -9.55294e-14 -4.85819e-06)
(-2.46721e-06 1.12504e-08 -6.84846e-11 1.38389e-08 5.90388e-13 -4.9347e-06)
(-2.52256e-06 8.97003e-10 -6.81401e-11 9.23778e-08 1.28982e-12 -5.04373e-06)
(-2.60381e-06 -1.3766e-09 -6.70906e-11 1.57527e-07 1.93899e-12 -5.2026e-06)
(-2.726e-06 8.70359e-09 -6.59854e-11 2.23512e-07 2.7232e-12 -5.46617e-06)
(-2.88795e-06 3.06534e-08 -6.39625e-11 2.34527e-08 3.32738e-12 -5.86995e-06)
(-2.93666e-06 3.93927e-08 -6.5036e-11 -3.15609e-06 4.20612e-12 -6.10196e-06)
(-4.71614e-06 4.45013e-12 2.38478e-11 7.0186e-07 3.15323e-10 -2.69564e-06)
(-4.51707e-06 2.09267e-12 3.37463e-11 -5.94804e-08 -3.24884e-08 -2.64029e-06)
(-4.59607e-06 -1.8018e-12 3.45381e-11 1.38389e-08 -2.77541e-08 -2.67272e-06)
(-4.70764e-06 -4.7774e-12 3.40672e-11 9.23778e-08 -2.24705e-08 -2.72428e-06)
(-4.86889e-06 -7.12215e-12 3.30526e-11 1.57527e-07 -2.36123e-08 -2.80384e-06)
(-5.13296e-06 -1.1259e-11 3.23158e-11 2.23512e-07 -3.44647e-08 -2.93061e-06)
(-5.53361e-06 -1.23839e-11 2.98901e-11 2.34527e-08 -5.33618e-08 -3.10393e-06)
(-5.76011e-06 -2.95657e-11 3.01596e-11 -3.15609e-06 -5.43486e-08 -3.15553e-06)
(-4.28196e-06 1.16307e-12 8.46843e-12 5.10566e-07 -1.35175e-07 -1.53735e-07)
(-4.13977e-06 -4.88456e-13 1.37435e-11 8.67017e-08 -7.25689e-08 -2.10494e-07)
(-4.19978e-06 -2.95415e-12 1.37982e-11 9.66264e-08 -6.10436e-08 -2.01632e-07)
(-4.30494e-06 -5.45043e-12 1.33226e-11 1.26362e-07 -6.11209e-08 -1.87928e-07)
(-4.47174e-06 -7.38383e-12 1.27892e-11 1.57162e-07 -6.74135e-08 -1.74097e-07)
(-4.75563e-06 -1.14977e-11 1.2686e-11 1.76393e-07 -7.95189e-08 -1.45985e-07)
(-5.20579e-06 -1.12555e-11 1.19234e-11 -7.92703e-08 -8.60089e-08 -7.91284e-08)
(-5.53388e-06 -2.93163e-11 1.30733e-11 -3.10443e-06 -5.31398e-08 2.48484e-08)
(-3.81731e-06 4.85851e-13 9.37646e-12 4.49034e-07 -6.1019e-08 2.19666e-08)
(-3.72174e-06 -1.25023e-12 1.42766e-11 1.05335e-07 -5.89595e-08 6.7059e-09)
(-3.78128e-06 -3.52045e-12 1.45778e-11 1.22173e-07 -6.58915e-08 1.28469e-08)
(-3.88021e-06 -6.08454e-12 1.42231e-11 1.34931e-07 -7.54857e-08 3.49781e-08)
(-4.03953e-06 -8.06324e-12 1.36777e-11 1.37221e-07 -8.4343e-08 6.65203e-08)
(-4.31447e-06 -1.24862e-11 1.32639e-11 1.22995e-07 -8.79908e-08 1.12862e-07)
(-4.75672e-06 -1.2001e-11 1.22741e-11 -1.42508e-07 -7.63394e-08 1.75808e-07)
(-5.13421e-06 -3.17475e-11 1.20897e-11 -2.93085e-06 -3.2977e-08 2.27301e-07)
(-3.54418e-06 8.1231e-14 6.132e-12 4.28837e-07 -4.00519e-08 1.10016e-08)