/*--------------------------------*- C++ -*----------------------------------*\
| =========                 |                                                 |
| \\      /  F ield         | OpenFOAM: The Open Source CFD Toolbox           |
|  \\    /   O peration     | Version:  v1912                                 |
|   \\  /    A nd           | Website:  www.openfoam.com                      |
|    \\/     M anipulation  |                                                 |
\*---------------------------------------------------------------------------*/
FoamFile
{
    version     2.0;
    format      ascii;
    class       pointVectorField;
    location    "0.18/solid";
    object      pointDD;
}
// * * * * * * * * * * * * * * * * * * * * * * * * * * * * * * * * * * * * * //

dimensions      [0 1 0 0 0 0 0];


internalField   nonuniform List<vector> 
405
(
(3.52266e-10 7.8176e-10 3.65463e-10)
(2.06696e-10 5.1206e-10 6.47379e-11)
(1.60252e-12 3.93827e-10 -4.39438e-11)
(-1.98782e-10 5.07381e-10 6.38744e-11)
(-3.03595e-10 7.62189e-10 3.67866e-10)
(7.141e-10 8.0481e-10 9.36938e-10)
(5.53142e-10 7.42504e-10 4.98134e-10)
(1.09754e-11 5.71778e-10 2.70606e-10)
(-5.20508e-10 7.29444e-10 5.01831e-10)
(-6.24006e-10 7.71673e-10 9.49094e-10)
(9.09175e-10 1.15485e-10 1.60592e-09)
(7.03116e-10 1.80166e-10 1.15113e-09)
(2.7473e-11 1.09334e-10 9.12359e-10)
(-6.36478e-10 1.59625e-10 1.1626e-09)
(-7.85711e-10 7.35708e-11 1.63109e-09)
(8.95064e-10 -4.7699e-10 2.13837e-09)
(6.94487e-10 -3.71123e-10 1.68932e-09)
(4.53599e-11 -4.05465e-10 1.44465e-09)
(-5.92517e-10 -3.98647e-10 1.70441e-09)
(-7.37984e-10 -5.28655e-10 2.17051e-09)
(8.71754e-10 -1.00553e-09 2.6471e-09)
(6.72713e-10 -9.20696e-10 2.19707e-09)
(6.4321e-11 -9.67606e-10 1.93931e-09)
(-5.331e-10 -9.54052e-10 2.21418e-09)
(-6.78515e-10 -1.06611e-09 2.68323e-09)
(9.40916e-10 -1.52986e-09 3.18985e-09)
(7.19438e-10 -1.49908e-09 2.72769e-09)
(8.47451e-11 -1.5802e-09 2.45139e-09)
(-5.39149e-10 -1.5374e-09 2.74598e-09)
(-7.08257e-10 -1.59842e-09 3.22853e-09)
(1.21255e-09 -2.16974e-09 3.81931e-09)
(9.19647e-10 -2.17986e-09 3.32596e-09)
(1.06779e-10 -2.26708e-09 3.0312e-09)
(-6.95284e-10 -2.22314e-09 3.34492e-09)
(-9.3614e-10 -2.24643e-09 3.85995e-09)
(1.85152e-09 -3.41403e-09 4.62943e-09)
(1.30392e-09 -3.34626e-09 4.19319e-09)
(1.2984e-10 -3.31271e-09 3.90343e-09)
(-1.03244e-09 -3.39391e-09 4.21195e-09)
(-1.52173e-09 -3.4982e-09 4.67118e-09)
(2.33707e-09 -4.23576e-09 5.18117e-09)
(1.54044e-09 -3.99691e-09 4.96565e-09)
(1.44357e-10 -3.79362e-09 4.75142e-09)
(-1.23894e-09 -4.04211e-09 4.98824e-09)
(-1.99033e-09 -4.31547e-09 5.22272e-09)
(-3.18336e-11 3.40682e-10 2.17312e-10)
(0 0 0)
(0 0 0)
(0 0 0)
(8.61452e-11 3.21265e-10 2.21561e-10)
(4.66683e-11 3.55035e-10 7.71489e-10)
(0 0 0)
(0 0 0)
(0 0 0)
(7.56245e-11 3.12603e-10 7.87544e-10)
(1.60555e-10 -2.63025e-10 1.38264e-09)
(0 0 0)
(0 0 0)
(0 0 0)
(-1.02154e-11 -3.14043e-10 1.41134e-09)
(1.46218e-10 -8.11414e-10 1.90348e-09)
(0 0 0)
(0 0 0)
(0 0 0)
(3.4452e-11 -8.72362e-10 1.94042e-09)
(1.32471e-10 -1.31342e-09 2.39649e-09)
(0 0 0)
(0 0 0)
(0 0 0)
(8.19229e-11 -1.38386e-09 2.43861e-09)
(2.03208e-10 -1.79945e-09 2.91351e-09)
(0 0 0)
(0 0 0)
(0 0 0)
(4.88352e-11 -1.87882e-09 2.95912e-09)
(4.54302e-10 -2.34152e-09 3.48851e-09)
(0 0 0)
(0 0 0)
(0 0 0)
(-1.5914e-10 -2.43011e-09 3.53671e-09)
(1.14453e-09 -3.3557e-09 4.0584e-09)
(0 0 0)
(0 0 0)
(0 0 0)
(-7.90957e-10 -3.4525e-09 4.10809e-09)
(1.86078e-09 -3.92877e-09 4.3907e-09)
(1.31589e-09 -3.50143e-09 4.40733e-09)
(1.41784e-10 -3.2231e-09 4.36337e-09)
(-1.02042e-09 -3.54322e-09 4.43252e-09)
(-1.51272e-09 -4.01136e-09 4.43466e-09)
(-2.73864e-10 6.03055e-11 5.61748e-11)
(0 0 0)
(0 0 0)
(0 0 0)
(3.20453e-10 4.3898e-11 5.97286e-11)
(-5.17234e-10 -1.38673e-10 3.60609e-10)
(0 0 0)
(0 0 0)
(0 0 0)
(6.20388e-10 -1.76134e-10 3.73266e-10)
(-4.95418e-10 -6.4699e-10 8.69534e-10)
(0 0 0)
(0 0 0)
(0 0 0)
(6.20705e-10 -6.94708e-10 8.91909e-10)
(-5.20764e-10 -1.13274e-09 1.37224e-09)
(0 0 0)
(0 0 0)
(0 0 0)
(6.72669e-10 -1.19137e-09 1.40176e-09)
(-5.33682e-10 -1.59502e-09 1.8476e-09)
(0 0 0)
(0 0 0)
(0 0 0)
(7.1689e-10 -1.6638e-09 1.88218e-09)
(-4.65752e-10 -2.02069e-09 2.31371e-09)
(0 0 0)
(0 0 0)
(0 0 0)
(6.85254e-10 -2.09901e-09 2.35185e-09)
(-2.19937e-10 -2.42629e-09 2.75257e-09)
(0 0 0)
(0 0 0)
(0 0 0)
(4.82087e-10 -2.51439e-09 2.79313e-09)
(4.65872e-10 -3.15526e-09 3.03933e-09)
(0 0 0)
(0 0 0)
(0 0 0)
(-1.4551e-10 -3.25176e-09 3.08106e-09)
(1.23352e-09 -3.48758e-09 3.14428e-09)
(9.43534e-10 -3.00388e-09 3.24125e-09)
(1.31361e-10 -2.72123e-09 3.31937e-09)
(-6.70016e-10 -3.04656e-09 3.26245e-09)
(-9.13672e-10 -3.57029e-09 3.18104e-09)
(-3.52378e-10 -4.27356e-11 6.09374e-11)
(0 0 0)
(0 0 0)
(0 0 0)
(3.96791e-10 -5.70623e-11 6.35693e-11)
(-7.21652e-10 -3.41235e-10 3.26205e-10)
(0 0 0)
(0 0 0)
(0 0 0)
(8.18359e-10 -3.74361e-10 3.3555e-10)
(-7.55978e-10 -8.39974e-10 7.57581e-10)
(0 0 0)
(0 0 0)
(0 0 0)
(8.70998e-10 -8.83455e-10 7.74212e-10)
(-7.86626e-10 -1.30597e-09 1.20412e-09)
(0 0 0)
(0 0 0)
(0 0 0)
(9.25187e-10 -1.36101e-09 1.22646e-09)
(-7.91696e-10 -1.72569e-09 1.62942e-09)
(0 0 0)
(0 0 0)
(0 0 0)
(9.59277e-10 -1.79165e-09 1.65619e-09)
(-7.15082e-10 -2.07228e-09 2.01931e-09)
(0 0 0)
(0 0 0)
(0 0 0)
(9.17571e-10 -2.14856e-09 2.04938e-09)
(-4.60717e-10 -2.3591e-09 2.33423e-09)
(0 0 0)
(0 0 0)
(0 0 0)
(7.05402e-10 -2.44591e-09 2.36656e-09)
(2.20097e-10 -2.9522e-09 2.48681e-09)
(0 0 0)
(0 0 0)
(0 0 0)
(8.28379e-11 -3.04789e-09 2.52031e-09)
(9.67304e-10 -3.23047e-09 2.50112e-09)
(7.50546e-10 -2.77877e-09 2.56339e-09)
(1.22326e-10 -2.51497e-09 2.63746e-09)
(-4.95205e-10 -2.82163e-09 2.58057e-09)
(-6.65296e-10 -3.31289e-09 2.53084e-09)
(-3.82339e-10 -7.42408e-11 6.75301e-11)
(0 0 0)
(0 0 0)
(0 0 0)
(4.26185e-10 -8.72058e-11 6.96032e-11)
(-7.98346e-10 -4.07884e-10 3.06061e-10)
(0 0 0)
(0 0 0)
(0 0 0)
(8.92507e-10 -4.3783e-10 3.13287e-10)
(-8.52895e-10 -9.1214e-10 6.6144e-10)
(0 0 0)
(0 0 0)
(0 0 0)
(9.6265e-10 -9.51957e-10 6.74162e-10)
(-8.84054e-10 -1.37097e-09 1.02604e-09)
(0 0 0)
(0 0 0)
(0 0 0)
(1.0149e-09 -1.42253e-09 1.04315e-09)
(-8.81719e-10 -1.75871e-09 1.37103e-09)
(0 0 0)
(0 0 0)
(0 0 0)
(1.03957e-09 -1.82175e-09 1.39169e-09)
(-7.96494e-10 -2.04966e-09 1.67152e-09)
(0 0 0)
(0 0 0)
(0 0 0)
(9.87875e-10 -2.12376e-09 1.69494e-09)
(-5.35706e-10 -2.2744e-09 1.89174e-09)
(0 0 0)
(0 0 0)
(0 0 0)
(7.68648e-10 -2.35989e-09 1.91709e-09)
(1.40527e-10 -2.8187e-09 1.98628e-09)
(0 0 0)
(0 0 0)
(0 0 0)
(1.50561e-10 -2.91392e-09 2.01274e-09)
(8.87774e-10 -3.07201e-09 1.97674e-09)
(6.99165e-10 -2.63275e-09 1.99371e-09)
(1.15193e-10 -2.38695e-09 2.03378e-09)
(-4.58025e-10 -2.67579e-09 2.00761e-09)
(-5.98748e-10 -3.15455e-09 2.00054e-09)
(-3.93769e-10 -8.19166e-11 5.90014e-11)
(0 0 0)
(0 0 0)
(0 0 0)
(4.37702e-10 -9.39502e-11 6.05875e-11)
(-8.22732e-10 -4.23016e-10 2.51028e-10)
(0 0 0)
(0 0 0)
(0 0 0)
(9.16104e-10 -4.50708e-10 2.56466e-10)
(-8.78085e-10 -9.26407e-10 5.22608e-10)
(0 0 0)
(0 0 0)
(0 0 0)
(9.85129e-10 -9.63451e-10 5.32057e-10)
(-9.06038e-10 -1.3781e-09 7.95505e-10)
(0 0 0)
(0 0 0)
(0 0 0)
(1.03232e-09 -1.42686e-09 8.08145e-10)
(-8.98042e-10 -1.74609e-09 1.05e-09)
(0 0 0)
(0 0 0)
(0 0 0)
(1.04971e-09 -1.80668e-09 1.06527e-09)
(-8.07036e-10 -2.00892e-09 1.26452e-09)
(0 0 0)
(0 0 0)
(0 0 0)
(9.91022e-10 -2.08119e-09 1.28187e-09)
(-5.43005e-10 -2.21026e-09 1.41467e-09)
(0 0 0)
(0 0 0)
(0 0 0)
(7.67904e-10 -2.29477e-09 1.4335e-09)
(1.29393e-10 -2.7395e-09 1.47881e-09)
(0 0 0)
(0 0 0)
(0 0 0)
(1.53493e-10 -2.83472e-09 1.49859e-09)
(8.82111e-10 -2.97601e-09 1.46881e-09)
(7.03086e-10 -2.53832e-09 1.46401e-09)
(1.09907e-10 -2.30437e-09 1.48027e-09)
(-4.72486e-10 -2.58165e-09 1.47466e-09)
(-6.02433e-10 -3.05906e-09 1.48683e-09)
(-3.99304e-10 -8.28262e-11 4.20984e-11)
(0 0 0)
(0 0 0)
(0 0 0)
(4.43517e-10 -9.42393e-11 4.31795e-11)
(-8.31576e-10 -4.22144e-10 1.74486e-10)
(0 0 0)
(0 0 0)
(0 0 0)
(9.24867e-10 -4.48322e-10 1.78152e-10)
(-8.82699e-10 -9.20057e-10 3.5671e-10)
(0 0 0)
(0 0 0)
(0 0 0)
(9.88362e-10 -9.55198e-10 3.63021e-10)
(-9.06694e-10 -1.36441e-09 5.36725e-10)
(0 0 0)
(0 0 0)
(0 0 0)
(1.03029e-09 -1.4112e-09 5.4512e-10)
(-8.94862e-10 -1.72167e-09 7.02328e-10)
(0 0 0)
(0 0 0)
(0 0 0)
(1.04267e-09 -1.7805e-09 7.12445e-10)
(-8.00734e-10 -1.97339e-09 8.39384e-10)
(0 0 0)
(0 0 0)
(0 0 0)
(9.79951e-10 -2.04437e-09 8.50875e-10)
(-5.35578e-10 -2.16876e-09 9.33835e-10)
(0 0 0)
(0 0 0)
(0 0 0)
(7.55193e-10 -2.25266e-09 9.46326e-10)
(1.34124e-10 -2.69433e-09 9.75553e-10)
(0 0 0)
(0 0 0)
(0 0 0)
(1.43358e-10 -2.78978e-09 9.88716e-10)
(8.9203e-10 -2.91932e-09 9.70158e-10)
(7.16338e-10 -2.47865e-09 9.61376e-10)
(1.06292e-10 -2.25065e-09 9.66615e-10)
(-4.92963e-10 -2.5223e-09 9.68602e-10)
(-6.1865e-10 -3.00301e-09 9.82273e-10)
(-4.02429e-10 -8.24442e-11 2.16708e-11)
(0 0 0)
(0 0 0)
(0 0 0)
(4.46879e-10 -9.34985e-11 2.22194e-11)
(-8.36096e-10 -4.18723e-10 8.87767e-11)
(0 0 0)
(0 0 0)
(0 0 0)
(9.29489e-10 -4.44025e-10 9.0626e-11)
(-8.83979e-10 -9.11341e-10 1.79913e-10)
(0 0 0)
(0 0 0)
(0 0 0)
(9.88986e-10 -9.45375e-10 1.83079e-10)
(-9.05237e-10 -1.35036e-09 2.69026e-10)
(0 0 0)
(0 0 0)
(0 0 0)
(1.02741e-09 -1.39598e-09 2.73222e-10)
(-8.91222e-10 -1.7025e-09 3.50298e-10)
(0 0 0)
(0 0 0)
(0 0 0)
(1.03689e-09 -1.76029e-09 3.55343e-10)
(-7.9566e-10 -1.95075e-09 4.16984e-10)
(0 0 0)
(0 0 0)
(0 0 0)
(9.72187e-10 -2.02099e-09 4.22709e-10)
(-5.30281e-10 -2.14574e-09 4.62805e-10)
(0 0 0)
(0 0 0)
(0 0 0)
(7.46887e-10 -2.22934e-09 4.69029e-10)
(1.37857e-10 -2.67102e-09 4.83642e-10)
(0 0 0)
(0 0 0)
(0 0 0)
(1.36556e-10 -2.76672e-09 4.90213e-10)
(8.99132e-10 -2.88939e-09 4.8175e-10)
(7.24984e-10 -2.44536e-09 4.76403e-10)
(1.042e-10 -2.21972e-09 4.77715e-10)
(-5.05796e-10 -2.48927e-09 4.80056e-10)
(-6.29368e-10 -2.97356e-09 4.87835e-10)
(-2.84208e-10 -9.71469e-11 0)
(-2.49503e-11 -7.91562e-11 0)
(-7.36645e-13 -9.55304e-11 0)
(2.6512e-11 -8.35175e-11 0)
(3.16965e-10 -1.09311e-10 0)
(-4.56329e-10 -4.01791e-10 0)
(-7.41356e-11 -4.08634e-10 0)
(5.25486e-13 -4.33408e-10 0)
(8.1915e-11 -4.20278e-10 0)
(5.10307e-10 -4.23466e-10 0)
(-5.04062e-10 -8.98098e-10 0)
(-1.11775e-10 -8.99352e-10 0)
(6.09837e-12 -9.14677e-10 0)
(1.31242e-10 -9.16928e-10 0)
(5.69838e-10 -9.28125e-10 0)
(-5.28639e-10 -1.3418e-09 0)
(-1.31289e-10 -1.35419e-09 0)
(1.46943e-11 -1.37563e-09 0)
(1.67828e-10 -1.37774e-09 0)
(6.11352e-10 -1.382e-09 0)
(-5.1918e-10 -1.70756e-09 0)
(-1.26652e-10 -1.75751e-09 0)
(2.63263e-11 -1.80288e-09 0)
(1.86539e-10 -1.78699e-09 0)
(6.25237e-10 -1.75831e-09 0)
(-4.25131e-10 -1.99095e-09 0)
(-5.86158e-11 -2.11136e-09 0)
(4.11926e-11 -2.19286e-09 0)
(1.4847e-10 -2.1469e-09 0)
(5.61623e-10 -2.05252e-09 0)
(-1.47008e-10 -2.245e-09 0)
(1.46692e-10 -2.43461e-09 0)
(5.92598e-11 -2.52821e-09 0)
(-2.01465e-11 -2.47677e-09 0)
(3.22112e-10 -2.31828e-09 0)
(4.67944e-10 -2.78252e-09 0)
(5.15039e-10 -2.87919e-09 0)
(7.99692e-11 -2.86919e-09 0)
(-3.45434e-10 -2.92739e-09 0)
(-2.41594e-10 -2.86658e-09 0)
(9.83147e-10 -3.01466e-09 0)
(7.31528e-10 -2.80007e-09 0)
(9.71934e-11 -2.63459e-09 0)
(-5.26299e-10 -2.84743e-09 0)
(-7.36239e-10 -3.09634e-09 0)
)
;

boundaryField
{
    interface
    {
        type            calculated;
    }
    symmetry
    {
        type            symmetry;
    }
    bottom
    {
        type            calculated;
    }
}


// ************************************************************************* //
