/*--------------------------------*- C++ -*----------------------------------*\
| =========                 |                                                 |
| \\      /  F ield         | OpenFOAM: The Open Source CFD Toolbox           |
|  \\    /   O peration     | Version:  v1912                                 |
|   \\  /    A nd           | Website:  www.openfoam.com                      |
|    \\/     M anipulation  |                                                 |
\*---------------------------------------------------------------------------*/
FoamFile
{
    version     2.0;
    format      ascii;
    class       volSymmTensorField;
    location    "0.18/solid";
    object      sigma;
}
// * * * * * * * * * * * * * * * * * * * * * * * * * * * * * * * * * * * * * //

dimensions      [1 -1 -2 0 0 0 0];


internalField   nonuniform List<symmTensor> 
256
(
(-462531 733.661 2919.28 39672.4 -1372.41 -495687)
(-44518.2 -11493.7 1561.11 50898.5 254.207 -438968)
(-44441.1 15284.4 -1495.91 49832.5 633.648 -435738)
(-451267 882.474 -2667.92 40871 48.5112 -481821)
(-488308 -2580.5 4504.63 -113244 -5877.88 -523058)
(-85701.7 -2683.66 2413.49 -50556.5 -5960.75 -469735)
(-85955.4 5363.2 -2230.06 -52191.2 -5722.82 -466513)
(-476469 3719.91 -4112.29 -111612 -4998.21 -508660)
(-490534 -903.816 4424.44 -99044.4 -4889.45 -524641)
(-83986.1 -327.664 2392.76 -47577 -4985.78 -472147)
(-84260.9 2293.11 -2169.13 -49142.1 -4822.23 -468866)
(-478317 1730.83 -4004.09 -96617.4 -4269.86 -509933)
(-498718 467.893 4397.79 -86976.6 -3945.98 -532146)
(-81058 591.986 2392.57 -39050.5 -3624.29 -478231)
(-81302 847.997 -2173.05 -40428.4 -3495.81 -474901)
(-486216 138 -3974.76 -83918.2 -3457 -517251)
(-515338 633.516 4779.37 -81278.1 -4050.71 -548448)
(-79492.7 617.816 2618.44 -30030 -3481.87 -491820)
(-79707.8 392.57 -2412.73 -31290.6 -3368.48 -488467)
(-502708 -211.785 -4358.11 -77886.4 -3632.67 -533482)
(-541289 -1129.1 5492.65 -78568.5 -5693.04 -575275)
(-74638.1 -698.026 3027.13 -23928.7 -5138.5 -515446)
(-74889.6 1328.37 -2827.74 -25141.6 -5023.8 -512116)
(-528929 1339.01 -5071.97 -75158.4 -5302.26 -560408)
(-588317 -4819.17 6240.38 -133169 -8613.99 -625061)
(-75883.8 -3011.15 3430.88 -80414.5 -8479.14 -563980)
(-76354.6 3246.61 -3214.22 -81264.1 -8342.9 -560724)
(-577298 4715.91 -5819.03 -129390 -8209.51 -610526)
(-653626 -6380.16 6436.63 -693683 -8706.59 -693669)
(-127249 -3421.82 3505.69 -647927 -8930.51 -647871)
(-127407 3322.79 -3255.07 -644395 -8796.07 -644292)
(-645248 6060.42 -6034.14 -679007 -8361.33 -678921)
(-380258 4995.8 1750.12 66907.4 -23422.2 -40455.1)
(-3501.36 -9329.51 1256.42 71762.5 -24464.9 -7632.43)
(-4351.86 11238.3 -1020.1 68992.9 -23633.6 -8763.56)
(-367872 -4018.44 -1506.79 65591.8 -20796.1 -36608.3)
(-412124 -1741.96 3250.95 -33276.9 -13009.7 -82768)
(-45229.8 -2580.67 2198.97 26986.8 -13800.1 -45339.2)
(-46165.1 3801.41 -1745.66 24056.4 -13252.5 -46823.9)
(-398971 2267.43 -2862.69 -33564.1 -11164.4 -79286.4)
(-416373 -1122.97 3378.36 -32186.9 -10800.2 -80696.5)
(-49417.8 -807.091 2306.63 15866.7 -10903.1 -47202.5)
(-50372.3 1672.71 -1816.03 13119.9 -10503.7 -48832.7)
(-402831 1475.99 -2969.08 -31563.3 -9391.32 -77449.2)
(-423683 271.83 3307.84 -27185.6 -10565.5 -77528.3)
(-46274.3 126.117 2268 16867.9 -10191 -43067.4)
(-47215.9 484.079 -1816.01 14266.4 -9863.77 -44763.3)
(-409797 -18.5477 -2908.52 -26035.9 -9403.21 -74388.2)
(-438385 705.392 3468.23 -23958.7 -11386.9 -76565.8)
(-41032.6 329.532 2384.43 24593.9 -10934 -37252.8)
(-41948 47.8244 -1975.77 22063.8 -10641.7 -38987)
(-424206 -551.127 -3079.38 -22528.7 -10371.3 -73491.6)
(-462532 -758.471 3884.07 -24221.2 -13147.2 -75191.6)
(-30340.2 -751.683 2684.63 30527.3 -12868.1 -27861.6)
(-31277.1 903.299 -2297.79 28061.1 -12597.1 -29643.4)
(-448331 760.764 -3498.74 -22674 -12233.7 -72270.6)
(-509919 -4363.89 4446.91 -82844.7 -13995.9 -83154.5)
(-24248.9 -2890.31 3054.46 -25901 -13911.7 -25982.6)
(-25368.3 2826.65 -2690.22 -27854.2 -13678.4 -27796.3)
(-496683 4106.78 -4074.84 -80605.6 -13232.1 -80583.8)
(-588411 -6205.33 4939.06 -625065 -8553.62 -133294)
(-75963 -3379.14 3253.96 -564024 -8441.38 -80328.3)
(-76406 3257.02 -3046.36 -560786 -8311.29 -80998.7)
(-577307 5833.52 -4662.24 -610549 -8175.36 -129121)
(-330259 7462.17 -209.924 72504.3 -11565.5 2337.76)
(-5244.82 -7237.95 183.919 64691.5 -13465 26682.6)
(-5999.77 8229.97 124.883 62048.2 -12759.2 25457.3)
(-317055 -6847.68 343.818 72529.9 -9387.53 6827.15)
(-360516 -812.259 408.824 -6884.95 -10927.6 -25583)
(-42275 -2185.17 567.147 42505.2 -11644.9 7833.66)
(-43074.2 2670.26 -32.1703 39616.4 -11062.5 6126.18)
(-346606 1052.27 -163.216 -6668.22 -9070.69 -21841.9)
(-365463 -1124.11 652.592 -4613.72 -11709.5 -23810.7)
(-48042.9 -1016.2 702.8 33421.6 -11689.9 5589.48)
(-48846.4 1305.1 -151.571 30689.8 -11208.3 3676.82)
(-351177 1247.68 -390.74 -3690.73 -10137.2 -20510.2)
(-372872 119.993 611.284 -2798.09 -12978.1 -19847.9)
(-45845 -106.443 672.481 30790.5 -12579.3 10249.7)
(-46630.3 282.717 -175.384 28184.6 -12162.9 8227.51)
(-358236 -39.4155 -365.985 -1422.97 -11613.2 -16800.4)
(-387806 690.348 549.632 -4803.39 -14182.3 -16907.1)
(-41600.3 264.226 654.187 32814.9 -13765.1 18471.9)
(-42353.1 -196.833 -213.79 30273 -13393 16374.7)
(-372838 -658.841 -323.297 -3158.8 -12975.8 -14035.8)
(-412964 -551.987 591.453 -11756.5 -14590.2 -14143.7)
(-32928.4 -609.29 743.279 32120.5 -14360.5 30250.5)
(-33694.8 565.825 -347.184 29656 -14032.9 28079.3)
(-397886 475.154 -380.196 -9941.45 -13537 -11500.3)
(-462513 -3815.42 843.281 -74072.4 -12556.2 -24863)
(-30116 -2550.68 959.88 -26965.5 -12370.9 30397.8)
(-31056.7 2406.84 -638.946 -28892.4 -12122.2 28218.6)
(-448230 3518.83 -662.957 -71503 -11744.5 -22531.4)
(-541419 -5470.97 1291.21 -575095 -5388.12 -78651.9)
(-74624.8 -2991.56 1046.77 -515296 -4899.19 -23564.4)
(-74852.6 2860.49 -963.53 -511969 -4801.64 -24416.4)
(-528886 5080.79 -1220.38 -560195 -5073.38 -74325.4)
(-303278 7856.91 -760.005 73782.5 -7771.74 5614.78)
(-9646.67 -6535.99 -267.69 57309.8 -8655.44 22297.1)
(-10389 7053.92 560.017 54954.1 -8129.02 21232.4)
(-289941 -7494.62 848.978 75154.8 -6161.83 10872.4)
(-333392 -451.681 -867.381 -1823.28 -8958.39 -17914.8)
(-46739.7 -2031.24 -324.92 38253.5 -9115.07 8681.4)
(-47544.4 2134.07 837.263 35557.7 -8625.69 7156.74)
(-319461 539.195 1045.07 -957.128 -7441.88 -13444.3)
(-338822 -1066.69 -740.779 1188 -10687.5 -15486.3)
(-53224.3 -1097.33 -266.544 30634 -10472.6 7330.45)
(-54023.4 1080.73 794.785 28004.5 -10031.5 5588.7)
(-324532 1073.84 933.833 2445.29 -9301.3 -11520.6)
(-346451 10.6442 -749.857 2005.37 -12440.9 -11732.5)
(-51576.5 -243.488 -284.808 26879.9 -12015.6 11696.8)
(-52352.6 191.59 759.852 24332.1 -11616.3 9821.16)
(-331821 -18.6167 926.714 3574.61 -11179.5 -8109.46)
(-361603 580.217 -849.707 -2494.39 -13434.8 -9135.79)
(-47960 188.357 -344.57 26006.5 -12998.6 19523.2)
(-48701.6 -273.747 758.934 23506.9 -12638.3 17547.6)
(-346646 -608.488 1004.55 -707.329 -12301 -5774.1)
(-387385 -497.914 -917.983 -12130.7 -12724.1 -8443.12)
(-40623.7 -525.365 -354.58 22612.4 -12432.2 29290.9)
(-41376.6 400.264 709.984 20184.7 -12122.7 27228.4)
(-372295 389.506 1050.58 -10181.4 -11747.4 -5353.11)
(-438005 -3361.66 -805.457 -74034.5 -9428.55 -24586.7)
(-39892.5 -2226.53 -255.836 -34985.8 -9174.55 24231.1)
(-40814.5 2056.65 512.49 -36887.5 -8952.95 22180.1)
(-423620 3055.18 899.104 -71345.5 -8705.44 -21760.4)
(-515206 -4736.35 -562.877 -547806 -3165.05 -80287.5)
(-78735.7 -2575.68 -299.704 -491195 -2685.16 -28804.6)
(-78924.9 2428.04 314.466 -487824 -2608.85 -29461.1)
(-502260 4333.99 550.84 -532723 -2905.29 -75263.7)
(-286821 7523.61 -617.823 74641.3 -6187.37 8379.43)
(-10770.9 -6571.23 -278.338 53203.5 -6248.03 19041.3)
(-11523 6824.71 510.193 51097.9 -5874.34 18109.5)
(-273504 -7326.31 685.207 77044.1 -5056.17 14160.2)
(-316236 -453.492 -902.728 283.913 -7396.46 -13069.8)
(-47312.1 -2086.9 -451.99 34041.6 -7128.46 6681.59)
(-48161.2 1978.35 872.372 31529.2 -6761.93 5327.11)
(-302430 452.873 1042.06 1714.52 -6277.68 -8049.32)
(-321826 -1058.58 -891.682 2939.85 -8894.19 -9794.06)
(-53951 -1157.85 -456.91 26399.3 -8544.38 6153.19)
(-54789.3 970.838 899.969 23871.1 -8196.18 4588.26)
(-307678 1002.25 1046.43 4503.36 -7818.2 -5274.98)
(-329636 -58.6762 -900.576 3265.31 -10291.7 -6336.97)
(-52574.7 -325.988 -472.721 22187.1 -9886.22 10181.1)
(-53385.6 145.725 874.881 19691.1 -9559.61 8473.86)
(-315161 1.93909 1043.11 4991.9 -9275.08 -2197.57)
(-344926 486.905 -970.255 -1836.16 -10796.7 -4922.34)
(-49259 124.328 -521.707 20507.1 -10406.8 16680.5)
(-50034.5 -294.569 869.5 18035.2 -10108 14861.1)
(-330136 -548.031 1092.75 30.233 -9865.44 -1093.41)
(-370983 -478.843 -1028.22 -11707.2 -9627.91 -6762.89)
(-42579 -482.26 -548.849 16892.1 -9349.46 23742.2)
(-43364.9 312.892 837.029 14478.7 -9094.36 21830.2)
(-356059 353.827 1127.78 -9716.44 -8825.65 -3233.3)
(-421985 -3046.95 -970.295 -72373.4 -6513.22 -26629.7)
(-42896 -1998.11 -512.466 -38698.2 -6289.96 14959.2)
(-43847.6 1811.47 703.952 -40598.8 -6111.14 13066.3)
(-407718 2734.93 1031.7 -69667 -5926.71 -23345.8)
(-497322 -4216.85 -858.857 -530195 -1984.04 -81762.6)
(-77851.3 -2277.39 -604.076 -476359 -1646.69 -35859.9)
(-78060.6 2113.49 582.991 -472979 -1586.6 -36335.6)
(-484294 3804.38 827.789 -515047 -1775.34 -76185.9)
(-276956 7144.24 -376.585 74499 -4649.45 10525.5)
(-10972.2 -6755.36 -167.17 50385.4 -4428.24 17399.8)
(-11729.5 6858.83 330.701 48465 -4179.91 16560.3)
(-263670 -7047.88 425.077 77626.8 -3906.09 16659.1)
(-305598 -547.841 -590.598 1009.36 -5601.18 -9685.9)
(-46621.5 -2190 -293.095 30932.7 -5227.09 5389.9)
(-47503.7 1961.83 598.138 28562.5 -4977.57 4155.29)
(-291898 496.279 693.049 2874.66 -4847.04 -4275.25)
(-311149 -1084.25 -616.433 3254.69 -6629.04 -5896.09)
(-53104 -1211.55 -312.867 22971.8 -6280.01 5219.03)
(-53972.8 926.484 642.104 20528.6 -6035.74 3783.88)
(-297119 991.906 732.602 5079.1 -5880.39 -963.432)
(-319052 -102.676 -629.962 3335.68 -7482.94 -2775.35)
(-51809.2 -375.247 -326.568 18569.3 -7154.19 8863.65)
(-52647.4 118.679 629.839 16118.3 -6919.29 7285.44)
(-304703 17.4798 738.588 5205.23 -6756.14 1769.7)
(-334434 433.67 -669.125 -1662.24 -7605.14 -2578.79)
(-48647.3 86.4861 -356.334 16918 -7313.36 14063.3)
(-49449.3 -309.561 618.719 14468.1 -7095.45 12368.2)
(-319782 -514.932 762.658 273.32 -6927.93 1632.21)
(-360630 -461.834 -700.26 -11090.9 -6512.14 -6429.71)
(-42319.3 -455.766 -375.767 13781.2 -6306.76 19013.1)
(-43131.2 256.101 589.338 11376 -6120.26 17221.9)
(-345845 325.615 774.938 -9071.9 -5924.77 -2536.78)
(-411747 -2848.72 -667.486 -70824.9 -4205.52 -28444.8)
(-43196.9 -1859.21 -365.885 -40408.4 -4057.42 8070.84)
(-44172.7 1658.1 500.999 -42310.8 -3927.16 6300.06)
(-397592 2531.74 711.085 -68111.8 -3775.87 -24796.7)
(-485604 -3896.9 -613.648 -519143 -1258.02 -82496.8)
(-75674.5 -2097.02 -448.5 -467262 -1059.31 -40853.6)
(-75904 1919.84 419.278 -463883 -1015.51 -41197.9)
(-472565 3476.25 585.662 -503972 -1104.46 -76506.3)
(-271415 6896.58 -191.426 73928.1 -2890.35 11814.8)
(-11051.2 -6886.34 -76.1607 48435.5 -2690.85 16628.4)
(-11809.7 6909.47 172.848 46635.3 -2549.12 15847.1)
(-258157 -6857.15 220.587 77510.8 -2469.82 18166.6)
(-299531 -620.717 -302.089 998.409 -3485.37 -7703.22)
(-46005 -2261.72 -134.814 28825.9 -3210.34 4831.35)
(-46906.2 1969.09 318.546 26550.3 -3066.22 3672.56)
(-285903 541.474 364.63 3151.22 -3052.67 -2043.34)
(-305010 -1110.17 -322.191 3033.95 -4068.8 -3728.93)
(-52293.7 -1247.87 -146.576 20667.5 -3827.12 4736.34)
(-53179.9 908.53 348.385 18284.2 -3683.69 3385)
(-291059 998.093 394.211 5042.88 -3631.22 1475.87)
(-312947 -129.275 -333.038 3047.56 -4492.4 -925.8)
(-50995.7 -403.11 -155.163 16230.8 -4282.04 8027.88)
(-51849.5 102.39 343.48 13813.6 -4141.97 6535.01)
(-298683 27.7935 401.281 5025.1 -4060.14 3894.1)
(-328385 407.632 -352.544 -1726.89 -4455.64 -1604.79)
(-47911.8 67.5318 -170.481 14779.3 -4279.73 12320.8)
(-48728.8 -323.205 334.118 12346.5 -4148.42 10709.3)
(-313824 -501.193 411.676 263.754 -4047.76 2871.01)
(-354654 -447.492 -366.369 -10747.6 -3723.89 -6712.47)
(-41782.2 -439.478 -180.974 12082 -3604.84 15981)
(-42608.7 219.192 313.288 9683.69 -3491.89 14271.2)
(-339962 303.661 413.387 -8704.99 -3367.5 -2566.61)
(-405797 -2734.4 -348.874 -69927.4 -2355.91 -29866.7)
(-42971.9 -1783.16 -180.098 -41300.9 -2278.53 3898.86)
(-43961.4 1570.91 261.867 -43203.3 -2199.53 2208.99)
(-391721 2413.44 375.822 -67207.8 -2094.23 -25969.3)
(-478682 -3718.12 -321.542 -512755 -705.891 -83101.7)
(-74019.4 -1999.52 -232.314 -462061 -607.462 -43839.4)
(-74261.2 1812.98 210.552 -458685 -580.807 -44098.4)
(-465652 3291.71 303.355 -497575 -611.911 -76835.5)
(-268926 6783.08 -57.9493 73501 -980.198 12398.6)
(-11108.7 -6944.56 -20.9101 47415.4 -906.939 16320.4)
(-11867.2 6933 52.8649 45674.1 -860.896 15567.6)
(-255684 -6769.25 67.6472 77302.3 -844.22 18854.8)
(-296795 -654.033 -90.3829 834.881 -1180.73 -6812.61)
(-45714.2 -2293.34 -36.3237 27746.3 -1083.58 4657.28)
(-46624 1972.64 97.5958 25517.8 -1036.51 3535.54)
(-283204 562.675 111.351 3129.73 -1039.89 -1031.08)
(-302234 -1123.47 -96.8036 2798.6 -1368.71 -2805.94)
(-51893.7 -1264.62 -39.4386 19515.4 -1284.06 4556.21)
(-52787.8 901.064 107.341 17163 -1236.87 3246.28)
(-288323 1002.64 121.146 4901.95 -1225.04 2533.64)
(-310180 -141.762 -100.691 2814.67 -1493.37 -196.74)
(-50580.3 -415.644 -42.2046 15095 -1421.51 7638.91)
(-51441 94.493 106.021 12696 -1375.08 6188.68)
(-295960 32.7841 123.922 4849.73 -1350.24 4761.3)
(-325643 397.027 -106.646 -1820.48 -1462.39 -1314.81)
(-47528.7 59.6649 -46.9286 13775.2 -1404.03 11483.6)
(-48352.4 -331.156 102.562 11352.1 -1360.26 9914.17)
(-311128 -496.53 126.856 200.896 -1326.43 3295.64)
(-351944 -439.59 -110.538 -10630.5 -1208.63 -7005.3)
(-41491 -431.82 -50.2468 11304.7 -1170.24 14554.3)
(-42324 200.914 95.1478 8910.69 -1132.47 12885.5)
(-337300 291.841 126.596 -8573.86 -1089.3 -2730.4)
(-403090 -2682.11 -104.981 -69554.1 -758.783 -30653.1)
(-42825.5 -1749.85 -50.6927 -41713.5 -735.481 1980.35)
(-43821.1 1531.52 78.1872 -43615.3 -709.015 331.034)
(-389055 2358.95 114.122 -66829.9 -670.937 -26629.2)
(-475500 -3638.36 -96.1926 -509836 -227.775 -83476.4)
(-73221.9 -1957.3 -68.153 -459696 -198.636 -45203.2)
(-73469.5 1765.9 60.3173 -456322 -189.693 -45419.9)
(-462478 3208.98 89.9285 -494653 -196.147 -77072)
)
;

boundaryField
{
    interface
    {
        type            calculated;
        value           nonuniform List<symmTensor> 
192
(
(-70.8204 0.196593 4.6509 848764 -1372.41 313404)
(-72.7305 -0.049068 6.33812 701512 -5877.88 291698)
(-73.4253 -0.389949 6.49422 724682 -4889.45 299085)
(-74.0142 -0.746631 6.39871 753706 -3945.98 308536)
(-73.7472 -1.07856 6.16394 788387 -4050.71 321217)
(-74.4987 -1.75978 5.86942 838769 -5693.04 342062)
(-72.1169 -2.20242 5.25251 867309 -8613.99 375418)
(-75.5248 -4.67351 4.72741 396611 -8706.59 396624)
(-68.1668 0.0899507 2.4478 758410 -23422.2 651048)
(-69.1505 -0.160178 3.46022 671263 -13009.7 621772)
(-69.5544 -0.49477 3.51531 681713 -10800.2 633204)
(-70.0521 -0.889346 3.41282 702501 -10565.5 652158)
(-69.682 -1.26323 3.22471 733104 -11386.9 680496)
(-70.5695 -2.0418 2.9982 779743 -13147.2 728773)
(-68.0555 -2.53612 2.6028 807682 -13995.9 807372)
(-72.1323 -5.20187 2.26895 375496 -8553.62 867267)
(-71.587 0.0759235 2.01034 676965 -11565.5 606798)
(-72.5232 -0.204107 2.81861 610174 -10927.6 591476)
(-72.9172 -0.576184 2.86219 621830 -11709.5 602633)
(-73.4141 -1.02596 2.77769 639147 -12978.1 622098)
(-72.8815 -1.46096 2.6241 664292 -14182.3 652188)
(-73.6724 -2.34815 2.43393 704502 -14590.2 702114)
(-70.5813 -2.93149 2.1245 729945 -12556.2 779155)
(-74.5376 -5.82501 1.84097 342406 -5388.12 838849)
(-71.3488 0.0362283 1.30335 630391 -7771.74 562223)
(-72.0917 -0.26447 1.86871 567358 -8958.39 551266)
(-72.3785 -0.65471 1.8927 579908 -10687.5 563234)
(-72.8323 -1.13416 1.82361 596298 -12440.9 582560)
(-72.224 -1.60205 1.70827 619057 -13434.8 612416)
(-73.0302 -2.54165 1.56833 656881 -12724.1 660569)
(-69.804 -3.16285 1.36315 683027 -9428.55 732475)
(-73.9005 -6.13399 1.17653 322019 -3165.05 789538)
(-72.3008 0.0237215 0.974499 603416 -6187.37 537154)
(-73.0076 -0.297993 1.39194 541365 -7396.46 528011)
(-73.2516 -0.711692 1.4105 553646 -8894.19 540912)
(-73.6814 -1.21862 1.35905 569676 -10291.7 560073)
(-72.9952 -1.71707 1.27359 591967 -10796.7 588881)
(-73.7465 -2.69952 1.16782 629694 -9627.91 634638)
(-70.3112 -3.35687 1.01952 656924 -6513.22 702668)
(-74.337 -6.39276 0.878555 310296 -1984.04 758728)
(-72.3752 0.010473 0.625024 586870 -4649.45 522896)
(-73.0286 -0.32589 0.902212 525382 -5601.18 514686)
(-73.2291 -0.754751 0.913836 537267 -6629.04 528116)
(-73.637 -1.27879 0.878183 553148 -7482.94 547037)
(-72.9119 -1.79606 0.820868 575643 -7605.14 574727)
(-73.6521 -2.80284 0.750276 613861 -6512.14 618522)
(-70.1384 -3.4802 0.655945 641768 -4205.52 684148)
(-74.1845 -6.55181 0.566167 303229 -1258.02 739876)
(-72.6505 0.00516709 0.36623 577071 -2890.35 514958)
(-73.293 -0.34146 0.52816 515935 -3485.37 507234)
(-73.475 -0.781688 0.535471 527605 -4068.8 520842)
(-73.8707 -1.31752 0.514809 543474 -4492.4 539500)
(-73.116 -1.84774 0.481872 566252 -4455.64 566374)
(-73.8334 -2.87029 0.440353 604888 -3723.89 608923)
(-70.2468 -3.56141 0.386741 633138 -2355.91 673198)
(-74.2693 -6.65668 0.333393 299112 -705.891 728765)
(-72.6891 0.00155774 0.1173 572476 -980.198 511374)
(-73.318 -0.349772 0.170555 511506 -1180.73 503858)
(-73.4883 -0.795035 0.172918 523099 -1368.71 517494)
(-73.8771 -1.33601 0.165971 538994 -1493.37 535982)
(-73.1132 -1.87233 0.155282 561939 -1462.39 562444)
(-73.8231 -2.90156 0.141552 600784 -1208.63 604410)
(-70.218 -3.59946 0.124711 629177 -758.783 668078)
(-74.2314 -6.70536 0.107115 297208 -227.775 723568)
(403978 733.661 -7.35446 906181 -0.647543 -30.0254)
(384607 -2580.5 -10.2317 759671 -0.567854 -25.0524)
(391113 -903.816 -10.573 782603 -0.343511 -23.4858)
(399433 467.893 -10.5422 811174 -0.282452 -23.6129)
(411387 633.516 -10.4032 845448 -0.269935 -24.7452)
(433356 -1129.1 -10.2645 896077 -0.342423 -26.7941)
(471668 -4819.17 -10.0202 926816 -0.378843 -29.9415)
(502160 -6380.16 -10.1832 462103 -0.550088 -33.1445)
(744893 -11493.7 -5.73811 840310 -0.272087 -40.2142)
(715790 -2683.66 -8.37287 750935 -0.259525 -39.2908)
(725879 -327.664 -8.6356 762288 -0.133356 -39.0276)
(743669 591.986 -8.59091 785677 -0.0717604 -39.1269)
(771522 617.816 -8.50503 820984 -0.0282045 -39.5122)
(822440 -698.026 -8.44855 873150 -0.0202106 -40.1807)
(908835 -3011.15 -8.38065 904305 -0.0147517 -41.0488)
(974137 -3421.82 -8.70845 453459 -0.0611018 -41.8611)
(738912 15284.4 -6.07855 833185 -0.134232 -36.0685)
(709142 5363.2 -8.83438 742906 -0.105961 -35.4418)
(719001 2293.11 -9.13285 754120 -0.00422754 -35.2246)
(736715 847.997 -9.08477 777588 0.0809531 -35.306)
(764553 392.57 -8.97237 812970 0.159832 -35.7338)
(815452 1328.37 -8.86213 865200 0.2347 -36.355)
(901695 3246.61 -8.71168 896786 0.292934 -37.3703)
(967281 3322.79 -8.93514 450293 0.314135 -38.4083)
(393501 882.474 -7.06941 885639 -0.0713942 -37.1166)
(373369 3719.91 -10.1836 738226 -0.0146968 -36.7656)
(379578 1730.83 -10.5361 761278 0.090829 -36.6126)
(387836 138 -10.4831 790134 0.198434 -36.629)
(399777 -211.785 -10.3216 824599 0.298306 -36.9231)
(421527 1339.01 -10.1516 875298 0.418953 -37.1946)
(458731 4715.91 -9.84038 906639 0.511904 -37.8343)
(486931 6060.42 -10.0055 453172 0.647095 -38.3667)
(-12.7482 0.684636 3.6689 833525 48.5112 310833)
(-7.51897 0.321949 5.19175 685775 -4998.21 288728)
(-5.96897 -0.2772 5.31355 709211 -4269.86 295895)
(-5.50472 -0.734985 5.2411 738459 -3457 305127)
(-6.4475 -1.09572 5.08502 773288 -3632.67 317692)
(-6.17615 -1.73215 4.97167 824066 -5302.26 338816)
(-9.5246 -1.90522 4.59848 854924 -8209.51 373788)
(0.337591 -4.54857 4.63993 400618 -8361.33 400704)
(-25.9519 0.178935 1.30284 737285 -20796.1 635085)
(-24.9033 -0.0751471 2.11439 650201 -11164.4 604478)
(-24.5536 -0.454484 2.1228 660962 -9391.32 615076)
(-24.0325 -0.838528 2.04963 681714 -9403.21 633362)
(-24.2614 -1.13597 1.96757 712114 -10371.3 661152)
(-22.3488 -1.76887 1.95169 758751 -12233.7 709154)
(-23.694 -1.73162 1.83437 788672 -13232.1 788693)
(-9.43288 -4.51019 2.01128 373752 -8175.36 855180)
(-25.3048 0.0747463 1.44253 656335 -9387.53 590632)
(-24.4453 -0.192343 2.1964 588756 -9070.69 573582)
(-24.045 -0.541608 2.24274 600507 -10137.2 583688)
(-23.3765 -0.936082 2.18817 617690 -11613.2 602313)
(-23.4701 -1.2405 2.10426 642554 -12975.8 631677)
(-21.0696 -1.92095 2.04059 682665 -13537 681106)
(-22.2293 -1.84631 1.88832 709857 -11744.5 758828)
(-5.9232 -4.88422 1.85996 338973 -5073.38 824842)
(-27.9773 0.0124971 0.943384 611206 -6161.83 546923)
(-27.4246 -0.268725 1.5004 546722 -7441.88 534235)
(-27.1161 -0.607656 1.53497 559059 -9301.3 545093)
(-26.3414 -1.00144 1.49142 575179 -11179.5 563495)
(-26.2231 -1.29681 1.42701 597603 -12301 592536)
(-23.2428 -1.98519 1.37578 635280 -11747.4 640109)
(-23.9309 -1.85698 1.27401 663006 -8705.44 712591)
(-5.88496 -5.00161 1.25486 318201 -2905.29 775659)
(-28.1457 0.00263476 0.778167 585498 -5056.17 522615)
(-27.6006 -0.296037 1.19974 521579 -6277.68 511815)
(-27.2565 -0.647038 1.23128 533402 -7818.2 523624)
(-26.3882 -1.05343 1.20006 549026 -9275.08 541837)
(-26.1689 -1.35681 1.14936 570914 -9865.44 569791)
(-22.9187 -2.06216 1.09913 608449 -8825.65 614932)
(-23.4747 -1.91984 1.01319 637154 -5926.71 683476)
(-4.47111 -5.15929 0.966467 306445 -1775.34 745306)
(-28.7823 -0.00327766 0.513738 569869 -3906.09 508901)
(-28.2609 -0.314054 0.798021 506262 -4847.04 499112)
(-27.8977 -0.674907 0.819847 517527 -5880.39 511485)
(-26.9612 -1.0899 0.798378 532895 -6756.14 529460)
(-26.648 -1.39814 0.7641 554924 -6927.93 556283)
(-23.1739 -2.11101 0.728669 592907 -5924.77 599442)
(-23.5731 -1.95555 0.673323 622221 -3775.87 665536)
(-3.84119 -5.25142 0.641122 299413 -1104.46 726878)
(-28.9107 -0.0036021 0.308953 560662 -2469.82 501318)
(-28.3806 -0.322476 0.475216 497265 -3052.67 492070)
(-27.9916 -0.69123 0.488772 508220 -3631.22 504653)
(-27.0093 -1.11305 0.476542 523505 -4060.14 522374)
(-26.6428 -1.42637 0.456938 545772 -4047.76 548379)
(-23.0513 -2.14518 0.434696 584142 -3367.5 590280)
(-23.3839 -1.98442 0.402719 613755 -2094.23 654994)
(-3.24264 -5.31749 0.379326 295343 -611.911 716082)
(-29.0409 -0.00439987 0.100166 556355 -844.22 497907)
(-28.5126 -0.3269 0.15501 493059 -1039.89 488898)
(-28.1124 -0.699196 0.159478 503895 -1225.04 501527)
(-27.1089 -1.1239 0.155312 519174 -1350.24 519086)
(-26.711 -1.43985 0.149004 541583 -1326.43 544678)
(-23.062 -2.16037 0.141373 580146 -1089.3 585990)
(-23.3433 -1.99755 0.131687 609881 -670.937 650081)
(-3.00514 -5.34805 0.123369 293467 -196.147 711048)
(502204 10.1344 6436.63 -32.9873 -0.522998 462160)
(471652 9.97793 4939.06 -29.6862 -0.352782 926769)
(433284 10.2321 1291.21 -26.3625 -0.30776 896052)
(411483 10.3867 -562.877 -24.0365 -0.213077 846402)
(400422 10.5482 -858.857 -22.3902 -0.173649 815981)
(394503 10.6506 -613.648 -21.1702 -0.113225 797610)
(391265 10.7224 -321.542 -20.4387 -0.0698904 786845)
(389788 10.7562 -96.1926 -20.0727 -0.022651 781812)
(974191 8.65628 3505.69 -41.7129 -0.029905 453569)
(908829 8.3304 3253.96 -40.823 0.0149477 904463)
(822483 8.40029 1046.77 -39.8245 0.0181269 873544)
(772178 8.4576 -299.704 -38.9879 0.0262285 822109)
(746382 8.53645 -604.076 -38.3598 0.0158542 788374)
(732706 8.58742 -448.5 -37.8585 0.0145792 767527)
(725354 8.62577 -232.314 -37.5515 0.00801837 755534)
(722049 8.64398 -68.153 -37.38 0.00345161 750068)
(967348 8.88152 -3255.07 -38.2578 0.347423 450463)
(901705 8.65809 -3046.36 -37.1338 0.325123 897112)
(815482 8.8095 -963.53 -35.9805 0.276055 865918)
(765160 8.92117 314.466 -35.1778 0.214822 814624)
(739328 9.03186 582.991 -34.5 0.161115 781053)
(725632 9.1042 419.278 -34.0248 0.1112 760338)
(718271 9.15475 210.552 -33.7125 0.0645111 748434)
(714965 9.17821 60.3173 -33.5629 0.0211407 743014)
(486978 9.94315 -6034.14 -38.2204 0.680839 453305)
(458741 9.7781 -4662.24 -37.6026 0.544897 906927)
(421490 10.091 -1220.38 -36.8398 0.460359 876051)
(399924 10.2669 550.84 -36.4135 0.350164 826920)
(388877 10.4372 827.789 -35.9308 0.269066 796985)
(382954 10.5453 585.662 -35.64 0.184056 779012)
(379709 10.6198 303.355 -35.4186 0.109122 768525)
(378228 10.6547 89.9285 -35.3119 0.035963 763634)
)
;
    }
    symmetry
    {
        type            symmetry;
    }
    bottom
    {
        type            calculated;
        value           nonuniform List<symmTensor> 
32
(
(-821125 15197.1 2919.28 -197829 16083.4 -854281)
(-540155 23648.9 1750.12 -28395.9 -28396.5 -200352)
(-475741 27097.8 -209.924 -19366.2 -13078.7 -143145)
(-443064 26870.2 -760.005 -13913.9 -7894.67 -134171)
(-423700 25834.4 -617.823 -10830 -6044.94 -128499)
(-412386 24992 -376.585 -10042.2 -4538.39 -124904)
(-406108 24483.6 -191.426 -10184 -2842.34 -122878)
(-403299 24253.2 -57.9493 -10425.4 -968.979 -121974)
(-220556 -15604.8 1561.11 -58298.8 19902.3 -615005)
(-12958.7 -12311.1 1256.42 73977.8 -30027.7 -17089.7)
(-12445.7 -9339.37 183.919 59564.1 -16198.4 19481.7)
(-16635.9 -8409.64 -267.69 52072.8 -9529.61 15307.9)
(-17395.3 -8462.1 -278.338 48684.8 -6474.32 12416.9)
(-17364.4 -8684.52 -167.17 46344.5 -4494.96 11007.7)
(-17294 -8834.09 -76.1607 44710.8 -2726.5 10385.6)
(-17275.4 -8898.3 -20.9101 43854.5 -920.8 10153.7)
(-219704 19155.3 -1495.91 -58269.3 20378.8 -611001)
(-13964.8 13651.7 -1020.1 71183.2 -29047.2 -18376.5)
(-13352.9 9717.41 124.883 56937.9 -15395.6 18104.1)
(-17516 8369.17 560.017 49776 -8940.66 14105.3)
(-18280.9 8221.48 510.193 46654.4 -6059.43 11351.6)
(-18253.5 8344.82 330.701 44507.2 -4220.37 10036.3)
(-18183.4 8448.17 172.848 42998.4 -2570.18 9473.33)
(-18164.4 8494.72 52.8649 42203.4 -870.087 9270.33)
(-811339 -14046 -2667.92 -197879 18105.6 -841893)
(-531568 -23093.4 -1506.79 -33621.8 -25290.2 -200304)
(-466065 -26932.5 343.818 -22523.9 -10616 -142183)
(-433126 -26998.3 848.978 -15251.1 -6102.53 -132313)
(-413737 -26150.6 685.207 -10874 -4795 -126074)
(-402439 -25418.1 425.077 -9209.87 -3720.77 -122110)
(-396184 -24969.4 220.587 -8812.82 -2381.19 -119860)
(-393390 -24765.1 67.6472 -8798.08 -820.096 -118851)
)
;
    }
}


// ************************************************************************* //
