/*--------------------------------*- C++ -*----------------------------------*\
| =========                 |                                                 |
| \\      /  F ield         | OpenFOAM: The Open Source CFD Toolbox           |
|  \\    /   O peration     | Version:  v1912                                 |
|   \\  /    A nd           | Website:  www.openfoam.com                      |
|    \\/     M anipulation  |                                                 |
\*---------------------------------------------------------------------------*/
FoamFile
{
    version     2.0;
    format      ascii;
    class       surfaceScalarField;
    location    "0.34/fluid";
    object      meshPhi;
}
// * * * * * * * * * * * * * * * * * * * * * * * * * * * * * * * * * * * * * //

dimensions      [0 3 -1 0 0 0 0];
oriented        oriented;


internalField   nonuniform List<scalar> 
41600
(
2.23225e-13
-6.2735e-13
2.31983e-13
-2.3944e-13
4.24808e-13
-1.82809e-12
6.8337e-13
-7.05673e-13
6.11503e-13
-2.94421e-12
1.12487e-12
-1.16261e-12
7.89247e-13
-4.01626e-12
1.58513e-12
-1.64026e-12
9.63416e-13
-5.07197e-12
2.08961e-12
-2.16547e-12
1.13935e-12
-6.12491e-12
2.66159e-12
-2.76313e-12
1.32311e-12
-7.17206e-12
3.32275e-12
-3.45701e-12
1.52282e-12
-8.18837e-12
4.09313e-12
-4.26993e-12
1.75169e-12
-9.11564e-12
4.9905e-12
-5.22381e-12
2.03486e-12
-9.84255e-12
6.02935e-12
-6.34011e-12
2.42476e-12
-1.01673e-11
7.21986e-12
-7.64225e-12
3.03712e-12
-9.72072e-12
8.57019e-12
-9.16657e-12
4.12059e-12
-7.80738e-12
1.00992e-11
-1.09984e-11
6.14582e-12
-3.1356e-12
1.18613e-11
-1.33563e-11
9.41151e-12
5.75613e-12
1.38586e-11
-1.65023e-11
2.14933e-11
1.75812e-11
-2.56112e-11
6.65719e-13
-1.23602e-12
6.90046e-13
-7.12294e-13
1.26689e-12
-3.60263e-12
2.03265e-12
-2.09917e-12
1.82359e-12
-5.80459e-12
3.34557e-12
-3.45799e-12
2.35342e-12
-7.92249e-12
4.71357e-12
-4.8776e-12
2.87244e-12
-1.00129e-11
6.21205e-12
-6.43747e-12
3.39657e-12
-1.21069e-11
7.91016e-12
-8.21161e-12
3.9434e-12
-1.42053e-11
9.8723e-12
-1.02706e-11
4.53558e-12
-1.62696e-11
1.21579e-11
-1.26818e-11
5.20773e-12
-1.82049e-11
1.48192e-11
-1.55092e-11
6.02161e-12
-1.98318e-11
1.78964e-11
-1.88121e-11
7.09878e-12
-2.08423e-11
2.14105e-11
-2.26458e-11
8.69344e-12
-2.07362e-11
2.53564e-11
-2.70735e-11
1.13124e-11
-1.87645e-11
2.97055e-11
-3.22142e-11
1.58073e-11
-1.40362e-11
3.4411e-11
-3.83398e-11
2.2426e-11
-6.54352e-12
3.92094e-11
-4.55524e-11
2.12473e-12
4.31739e-11
-5.53939e-11
1.09649e-12
-1.80741e-12
1.13089e-12
-1.16746e-12
2.08663e-12
-5.26983e-12
3.33097e-12
-3.44023e-12
3.00334e-12
-8.49608e-12
5.48133e-12
-5.66574e-12
3.87541e-12
-1.16067e-11
7.71982e-12
-7.98837e-12
4.72947e-12
-1.46896e-11
1.01691e-11
-1.05375e-11
5.59174e-12
-1.77989e-11
1.29421e-11
-1.34342e-11
6.49043e-12
-2.09503e-11
1.61444e-11
-1.67937e-11
7.45936e-12
-2.41106e-11
1.98738e-11
-2.07263e-11
8.54486e-12
-2.71799e-11
2.42158e-11
-2.53354e-11
9.8186e-12
-2.99659e-11
2.92341e-11
-3.07116e-11
1.14056e-11
-3.21471e-11
3.49512e-11
-3.69226e-11
1.35394e-11
-3.32393e-11
4.13183e-11
-4.40013e-11
1.66329e-11
-3.26222e-11
4.81744e-11
-5.1942e-11
2.12699e-11
-2.97836e-11
5.51843e-11
-6.06879e-11
2.72796e-11
-2.5156e-11
6.16416e-11
-6.968e-11
-1.99674e-11
6.68599e-11
-8.10399e-11
1.50792e-12
-2.3226e-12
1.5441e-12
-1.59409e-12
2.86941e-12
-6.77456e-12
4.54732e-12
-4.69655e-12
4.12944e-12
-1.09304e-11
7.48018e-12
-7.73167e-12
5.32752e-12
-1.49502e-11
1.05289e-11
-1.08945e-11
6.50056e-12
-1.89551e-11
1.38593e-11
-1.43602e-11
7.68507e-12
-2.30283e-11
1.76247e-11
-1.82928e-11
8.9195e-12
-2.72114e-11
2.19694e-11
-2.28495e-11
1.02474e-11
-3.14951e-11
2.70281e-11
-2.81813e-11
1.17213e-11
-3.58064e-11
3.29208e-11
-3.44303e-11
1.34077e-11
-3.99866e-11
3.9739e-11
-4.17199e-11
1.53979e-11
-4.37612e-11
4.75166e-11
-5.01332e-11
1.78242e-11
-4.67079e-11
5.61785e-11
-5.96769e-11
2.08681e-11
-4.82597e-11
6.54586e-11
-7.02235e-11
2.47353e-11
-4.78372e-11
7.47743e-11
-8.14172e-11
2.91407e-11
-4.54182e-11
8.30111e-11
-9.21936e-11
-4.14012e-11
8.89696e-11
-1.04062e-10
1.89259e-12
-2.76311e-12
1.92044e-12
-1.98256e-12
3.60084e-12
-8.06274e-12
5.65411e-12
-5.83938e-12
5.18067e-12
-1.30199e-11
9.29555e-12
-9.60735e-12
6.6816e-12
-1.78326e-11
1.30732e-11
-1.35259e-11
8.15042e-12
-2.2656e-11
1.71904e-11
-1.78097e-11
9.63388e-12
-2.76059e-11
2.18359e-11
-2.26607e-11
1.11814e-11
-3.27574e-11
2.71884e-11
-2.82729e-11
1.28478e-11
-3.81405e-11
3.3417e-11
-3.48348e-11
1.46952e-11
-4.37327e-11
4.06769e-11
-4.25272e-11
1.6792e-11
-4.94456e-11
4.90958e-11
-5.15132e-11
1.92088e-11
-5.51012e-11
5.87421e-11
-6.19136e-11
2.2001e-11
-6.03877e-11
6.95648e-11
-7.37589e-11
2.51597e-11
-6.47841e-11
8.12788e-11
-8.68926e-11
2.85454e-11
-6.74571e-11
9.31556e-11
-1.00787e-10
3.16616e-11
-6.74602e-11
1.0365e-10
-1.13885e-10
-6.38106e-11
1.10923e-10
-1.26983e-10
2.24361e-12
-3.11143e-12
2.25238e-12
-2.32502e-12
4.26746e-12
-9.08304e-12
6.62878e-12
-6.84528e-12
6.13701e-12
-1.4681e-11
1.08894e-11
-1.12533e-11
7.91058e-12
-2.01376e-11
1.52974e-11
-1.58251e-11
9.64391e-12
-2.56398e-11
2.00867e-11
-2.08075e-11
1.13936e-11
-3.13359e-11
2.54743e-11
-2.64327e-11
1.32206e-11
-3.73374e-11
3.16667e-11
-3.29242e-11
1.51942e-11
-4.37199e-11
3.88618e-11
-4.05018e-11
1.73946e-11
-5.0524e-11
4.72475e-11
-4.93818e-11
1.99146e-11
-5.77547e-11
5.69927e-11
-5.97723e-11
2.28555e-11
-6.53744e-11
6.82229e-11
-7.18567e-11
2.63075e-11
-7.32771e-11
8.09709e-11
-8.57577e-11
3.02826e-11
-8.12015e-11
9.50634e-11
-1.01444e-10
3.45757e-11
-8.84917e-11
1.09853e-10
-1.18492e-10
3.83565e-11
-9.36902e-11
1.23559e-10
-1.3509e-10
-9.23498e-11
1.33701e-10
-1.51406e-10
2.5549e-12
-3.35195e-12
2.53438e-12
-2.61575e-12
4.85751e-12
-9.78983e-12
7.45496e-12
-7.69734e-12
6.98081e-12
-1.5839e-11
1.22344e-11
-1.26414e-11
8.99014e-12
-2.17595e-11
1.71619e-11
-1.77512e-11
1.09484e-11
-2.77652e-11
2.24936e-11
-2.32973e-11
1.29203e-11
-3.40323e-11
2.84662e-11
-2.95323e-11
1.49772e-11
-4.07048e-11
3.53042e-11
-3.66995e-11
1.72033e-11
-4.79002e-11
4.32246e-11
-4.5039e-11
1.9702e-11
-5.57176e-11
5.24384e-11
-5.47924e-11
2.26059e-11
-6.42505e-11
6.31479e-11
-6.62048e-11
2.60912e-11
-7.36046e-11
7.55368e-11
-7.95248e-11
3.03933e-11
-8.39216e-11
8.97476e-11
-9.50001e-11
3.58026e-11
-9.53992e-11
1.05813e-10
-1.12841e-10
4.25717e-11
-1.08225e-10
1.23422e-10
-1.3305e-10
4.99706e-11
-1.21772e-10
1.40992e-10
-1.54099e-10
-1.35578e-10
1.55735e-10
-1.77351e-10
2.82169e-12
2.76329e-12
-2.85154e-12
-3.47204e-12
5.36194e-12
8.12359e-12
-8.38633e-12
-1.01461e-11
7.69869e-12
1.33159e-11
-1.37567e-11
-1.64332e-11
9.90166e-12
1.86463e-11
-1.92834e-11
-2.26123e-11
1.20381e-11
2.43837e-11
-2.52506e-11
-2.89154e-11
1.41776e-11
3.0774e-11
-3.19207e-11
-3.55388e-11
1.63979e-11
3.80487e-11
-3.95442e-11
-4.26496e-11
1.87926e-11
4.64297e-11
-4.83669e-11
-5.03941e-11
2.14812e-11
5.61333e-11
-5.86362e-11
-5.89089e-11
2.46259e-11
6.73711e-11
-7.06078e-11
-6.83379e-11
2.84614e-11
8.03493e-11
-8.45563e-11
-7.88571e-11
3.33413e-11
9.52664e-11
-1.00795e-10
-9.07147e-11
3.9796e-11
1.12288e-10
-1.1969e-10
-1.04286e-10
4.85197e-11
1.31395e-10
-1.41606e-10
-1.2009e-10
5.89269e-11
1.51254e-10
-1.65374e-10
-1.37645e-10
1.70813e-10
-1.97006e-10
-1.6296e-10
2.19923e-13
-6.39333e-13
2.16004e-13
4.17803e-13
-1.86305e-12
6.36076e-13
5.99632e-13
-3.00077e-12
1.04628e-12
7.7044e-13
-4.09431e-12
1.47277e-12
9.34377e-13
-5.17286e-12
1.93861e-12
1.09491e-12
-6.25168e-12
2.46442e-12
1.25512e-12
-7.33016e-12
3.06873e-12
1.41837e-12
-8.38748e-12
3.76752e-12
1.58975e-12
-9.37384e-12
4.57262e-12
1.78008e-12
-1.01955e-11
5.48849e-12
2.01551e-12
-1.06887e-11
6.50593e-12
2.35796e-12
-1.05716e-11
7.59042e-12
2.9385e-12
-9.35314e-12
8.65954e-12
3.97078e-12
-6.22381e-12
9.53408e-12
5.48974e-12
-4.59624e-13
9.87348e-12
7.52249e-12
8.71974e-12
6.56098e-13
-1.25938e-12
6.42492e-13
1.2465e-12
-3.67073e-12
1.8919e-12
1.7891e-12
-5.91479e-12
3.11168e-12
2.2989e-12
-8.07475e-12
4.37937e-12
2.78841e-12
-1.02098e-11
5.76316e-12
3.26816e-12
-1.23539e-11
7.32434e-12
3.74736e-12
-1.45118e-11
9.11802e-12
4.23514e-12
-1.66523e-11
1.11918e-11
4.74352e-12
-1.86939e-11
1.35809e-11
5.29539e-12
-2.04852e-11
1.62983e-11
5.94351e-12
-2.17763e-11
1.93143e-11
6.81057e-12
-2.21892e-11
2.25203e-11
8.14465e-12
-2.12226e-11
2.56602e-11
1.03107e-11
-1.84327e-11
2.82089e-11
1.32492e-11
-1.41715e-11
2.92979e-11
-1.12521e-11
2.64679e-11
1.08142e-12
-1.84116e-12
1.05293e-12
2.05474e-12
-5.36825e-12
3.10022e-12
2.94951e-12
-8.65544e-12
5.09803e-12
3.79059e-12
-1.1827e-11
7.1725e-12
4.59911e-12
-1.49741e-11
9.43455e-12
5.39315e-12
-1.81545e-11
1.19843e-11
6.18831e-12
-2.13884e-11
1.49123e-11
6.99836e-12
-2.46502e-11
1.82975e-11
7.83658e-12
-2.78547e-11
2.21994e-11
8.71981e-12
-3.08385e-11
2.66417e-11
9.67982e-12
-3.33393e-11
3.1579e-11
1.07869e-11
-3.49921e-11
3.68374e-11
1.21752e-11
-3.54012e-11
4.20119e-11
1.40112e-11
-3.44165e-11
4.63179e-11
1.61191e-11
-3.26838e-11
4.86047e-11
-3.21313e-11
4.67583e-11
1.4888e-12
-2.3655e-12
1.43769e-12
2.82898e-12
-6.89969e-12
4.23243e-12
4.06135e-12
-1.1133e-11
6.95738e-12
5.22054e-12
-1.52301e-11
9.783e-12
6.33671e-12
-1.93159e-11
1.28592e-11
7.43644e-12
-2.34772e-11
1.63219e-11
8.54313e-12
-2.77592e-11
2.02954e-11
9.67643e-12
-3.21593e-11
2.48893e-11
1.08502e-11
-3.66154e-11
3.01899e-11
1.2068e-11
-4.09911e-11
3.6239e-11
1.33166e-11
-4.50573e-11
4.29927e-11
1.45531e-11
-4.84824e-11
5.0246e-11
1.56841e-11
-5.08729e-11
5.75069e-11
1.65553e-11
-5.19459e-11
6.38259e-11
1.69899e-11
-5.19151e-11
6.78112e-11
-5.21901e-11
6.71422e-11
1.87114e-12
-2.81368e-12
1.78825e-12
3.5555e-12
-8.21024e-12
5.26303e-12
5.10443e-12
-1.32587e-11
8.64669e-12
6.56212e-12
-1.81623e-11
1.21483e-11
7.96808e-12
-2.30798e-11
1.59518e-11
9.35856e-12
-2.81302e-11
2.02245e-11
1.07672e-11
-3.33912e-11
2.51207e-11
1.22241e-11
-3.88962e-11
3.07789e-11
1.37515e-11
-4.46277e-11
3.73136e-11
1.53535e-11
-5.05079e-11
4.47934e-11
1.69931e-11
-5.63801e-11
5.3197e-11
1.85455e-11
-6.19775e-11
6.23298e-11
1.97175e-11
-6.68736e-11
7.16776e-11
2.00001e-11
-7.04303e-11
8.01853e-11
1.90079e-11
-7.19643e-11
8.61702e-11
-7.21862e-11
8.69071e-11
2.22165e-12
-3.16796e-12
2.0976e-12
4.22099e-12
-9.24795e-12
6.1711e-12
6.05889e-12
-1.49479e-11
1.01307e-11
7.78838e-12
-2.05056e-11
1.42171e-11
9.4581e-12
-2.61116e-11
1.8642e-11
1.11146e-11
-3.19168e-11
2.35981e-11
1.2804e-11
-3.80336e-11
2.92637e-11
1.45725e-11
-4.45372e-11
3.58015e-11
1.64636e-11
-5.14669e-11
4.33522e-11
1.851e-11
-5.88246e-11
5.20148e-11
2.07114e-11
-6.65682e-11
6.18057e-11
2.29813e-11
-7.45843e-11
7.2578e-11
2.50356e-11
-8.26048e-11
8.38619e-11
2.62419e-11
-8.99884e-11
9.45823e-11
2.5781e-11
-9.5406e-11
1.02793e-10
-9.61066e-11
1.05383e-10
2.53406e-12
-3.41252e-12
2.3606e-12
4.81333e-12
-9.96654e-12
6.94137e-12
6.90645e-12
-1.61249e-11
1.13838e-11
8.87389e-12
-2.21534e-11
1.59527e-11
1.07722e-11
-2.82693e-11
2.08796e-11
1.26573e-11
-3.46505e-11
2.63748e-11
1.45879e-11
-4.14405e-11
3.26324e-11
1.66283e-11
-4.87534e-11
3.98312e-11
1.88516e-11
-5.66811e-11
4.81294e-11
2.134e-11
-6.5303e-11
5.76496e-11
2.41832e-11
-7.46989e-11
6.84449e-11
2.74604e-11
-8.49611e-11
8.04262e-11
3.11846e-11
-9.61915e-11
9.3205e-11
3.51557e-11
-1.08394e-10
1.05757e-10
3.85517e-11
-1.20805e-10
1.15919e-10
-1.31921e-10
1.19842e-10
2.8033e-12
2.57429e-12
-3.53454e-12
5.32277e-12
7.56537e-12
-1.03285e-11
7.6325e-12
1.23926e-11
-1.67284e-11
9.79804e-12
1.73361e-11
-2.30187e-11
1.18813e-11
2.26389e-11
-2.9435e-11
1.39449e-11
2.852e-11
-3.61747e-11
1.60564e-11
3.51794e-11
-4.34031e-11
1.82942e-11
4.27999e-11
-5.1261e-11
2.07545e-11
5.15431e-11
-5.9874e-11
2.35619e-11
6.15371e-11
-6.93651e-11
2.68857e-11
7.2847e-11
-7.98726e-11
3.09598e-11
8.54131e-11
-9.15739e-11
3.60962e-11
9.89058e-11
-1.04707e-10
4.26113e-11
1.12393e-10
-1.19517e-10
4.98654e-11
1.23658e-10
-1.35269e-10
1.27685e-10
-1.54143e-10
2.15716e-13
-6.49502e-13
1.92313e-13
4.08986e-13
-1.89276e-12
5.66134e-13
5.84877e-13
-3.04889e-12
9.3064e-13
7.47304e-13
-4.1607e-12
1.30871e-12
8.98912e-13
-5.25861e-12
1.72017e-12
1.04093e-12
-6.35967e-12
2.18235e-12
1.17295e-12
-7.46623e-12
2.71011e-12
1.29265e-12
-8.56303e-12
3.31509e-12
1.39543e-12
-9.61164e-12
4.00357e-12
1.47483e-12
-1.05422e-11
4.7721e-12
1.52439e-12
-1.12427e-11
5.59943e-12
1.54037e-12
-1.1544e-11
6.43175e-12
1.51769e-12
-1.12053e-11
7.15755e-12
1.41491e-12
-9.93476e-12
7.57332e-12
1.09493e-12
-7.66197e-12
7.41188e-12
-4.73744e-12
6.75459e-12
6.43818e-13
-1.27917e-12
5.72037e-13
1.22078e-12
-3.72851e-12
1.68391e-12
1.7461e-12
-6.00828e-12
2.76784e-12
2.23158e-12
-8.2036e-12
3.89161e-12
2.6854e-12
-1.03759e-11
5.11392e-12
3.11167e-12
-1.2562e-11
6.48622e-12
3.50968e-12
-1.47716e-11
8.05282e-12
3.8726e-12
-1.69823e-11
9.84862e-12
4.18572e-12
-1.91308e-11
1.18928e-11
4.42551e-12
-2.11025e-11
1.41763e-11
4.56126e-12
-2.27232e-11
1.66382e-11
4.55832e-12
-2.3765e-11
1.91249e-11
4.37078e-12
-2.40036e-11
2.13247e-11
3.89261e-12
-2.34052e-11
2.26981e-11
2.93257e-12
-2.24728e-11
2.26133e-11
-2.29302e-11
2.08424e-11
1.06207e-12
-1.8697e-12
9.37522e-13
2.01424e-12
-5.45145e-12
2.75956e-12
2.88191e-12
-8.78987e-12
4.53499e-12
3.68504e-12
-1.20119e-11
6.37404e-12
4.43806e-12
-1.52114e-11
8.37222e-12
5.14928e-12
-1.84494e-11
1.06136e-11
5.81945e-12
-2.17509e-11
1.31713e-11
6.43874e-12
-2.50996e-11
1.61038e-11
6.98191e-12
-2.84287e-11
1.94451e-11
7.40172e-12
-3.16115e-11
2.31859e-11
7.6215e-12
-3.44591e-11
2.72381e-11
7.52581e-12
-3.6744e-11
3.13766e-11
6.95008e-12
-3.83013e-11
3.51577e-11
5.69294e-12
-3.92641e-11
3.786e-11
3.74905e-12
-4.02554e-11
3.87245e-11
-4.23268e-11
3.80007e-11
1.46393e-12
-2.40161e-12
1.28025e-12
2.77699e-12
-7.00488e-12
3.76775e-12
3.97473e-12
-1.13027e-11
6.18962e-12
5.08567e-12
-1.54628e-11
8.69479e-12
6.13165e-12
-1.96128e-11
1.14123e-11
7.12732e-12
-2.38421e-11
1.44566e-11
8.07811e-12
-2.81993e-11
1.79281e-11
8.97565e-12
-3.2688e-11
2.19088e-11
9.78917e-12
-3.72589e-11
2.64509e-11
1.04505e-11
-4.18015e-11
3.15535e-11
1.08305e-11
-4.61387e-11
3.71204e-11
1.07017e-11
-5.00393e-11
4.28934e-11
9.7052e-12
-5.32832e-11
4.83662e-11
7.42115e-12
-5.58248e-11
5.27347e-11
3.96997e-12
-5.7944e-11
5.51366e-11
-6.04981e-11
5.57669e-11
1.84267e-12
-2.85598e-12
1.59263e-12
3.496e-12
-8.33339e-12
4.68584e-12
5.00551e-12
-1.3457e-11
7.69354e-12
6.40856e-12
-1.84333e-11
1.07984e-11
7.73557e-12
-2.34233e-11
1.41587e-11
9.0099e-12
-2.85474e-11
1.79155e-11
1.0246e-11
-3.38839e-11
2.21936e-11
1.14446e-11
-3.94672e-11
2.70975e-11
1.2582e-11
-4.52829e-11
3.26991e-11
1.35892e-11
-5.12609e-11
3.90127e-11
1.43141e-11
-5.72634e-11
4.59503e-11
1.44519e-11
-6.30663e-11
5.32494e-11
1.34611e-11
-6.83352e-11
6.03782e-11
1.06055e-11
-7.26138e-11
6.64701e-11
5.83544e-12
-7.54263e-11
7.05036e-11
-7.73397e-11
7.25102e-11
2.19156e-12
-3.21494e-12
1.86844e-12
4.15818e-12
-9.38464e-12
5.49519e-12
5.95466e-12
-1.51677e-11
9.01534e-12
7.62707e-12
-2.08049e-11
1.26392e-11
9.21496e-12
-2.64887e-11
1.65491e-11
1.07521e-11
-3.23694e-11
2.09073e-11
1.22661e-11
-3.8557e-11
2.58585e-11
1.37746e-11
-4.51221e-11
3.15255e-11
1.52773e-11
-5.20955e-11
3.79978e-11
1.67374e-11
-5.94664e-11
4.53072e-11
1.80429e-11
-6.71725e-11
5.33811e-11
1.89286e-11
-7.50701e-11
6.19657e-11
1.88511e-11
-8.2857e-11
7.05158e-11
1.6914e-11
-8.98955e-11
7.80892e-11
1.2597e-11
-9.50144e-11
8.34644e-11
-9.5848e-11
8.66201e-11
2.50425e-12
-3.46255e-12
2.10307e-12
4.75112e-12
-1.0112e-11
6.18219e-12
6.80338e-12
-1.63586e-11
1.01323e-11
8.71485e-12
-2.24708e-11
1.41847e-11
1.05335e-11
-2.8667e-11
1.8539e-11
1.23037e-11
-3.51232e-11
2.33722e-11
1.4067e-11
-4.19776e-11
2.88421e-11
1.58627e-11
-4.93342e-11
3.50832e-11
1.77242e-11
-5.72674e-11
4.21961e-11
1.96713e-11
-6.5826e-11
5.02241e-11
2.16896e-11
-7.50356e-11
5.9106e-11
2.36825e-11
-8.48913e-11
6.85938e-11
2.53813e-11
-9.53219e-11
7.81176e-11
2.62261e-11
-1.06055e-10
8.66114e-11
2.55338e-11
-1.16126e-10
9.25451e-11
-1.24041e-10
9.5631e-11
2.77532e-12
2.29388e-12
-3.58588e-12
5.2644e-12
6.73923e-12
-1.04778e-11
7.53589e-12
1.10325e-11
-1.6968e-11
9.64933e-12
1.54181e-11
-2.33437e-11
1.16591e-11
2.01057e-11
-2.98408e-11
1.36177e-11
2.52801e-11
-3.66536e-11
1.55783e-11
3.11035e-11
-4.39406e-11
1.75979e-11
3.77133e-11
-5.18289e-11
1.97399e-11
4.52111e-11
-6.04207e-11
2.20762e-11
5.36397e-11
-6.97986e-11
2.46861e-11
6.29367e-11
-8.00303e-11
2.76455e-11
7.28496e-11
-9.11666e-11
3.09956e-11
8.27879e-11
-1.0322e-10
3.46565e-11
9.16051e-11
-1.16061e-10
3.80257e-11
9.75418e-11
-1.28678e-10
9.90609e-11
-1.42138e-10
2.11097e-13
-6.57729e-13
1.61936e-13
3.99362e-13
-1.91676e-12
4.76579e-13
5.68896e-13
-3.08772e-12
7.82999e-13
7.22467e-13
-4.21424e-12
1.10012e-12
8.61179e-13
-5.32774e-12
1.4441e-12
9.84059e-13
-6.44678e-12
1.82864e-12
1.08744e-12
-7.57636e-12
2.26494e-12
1.1639e-12
-8.70638e-12
2.76092e-12
1.20075e-12
-9.80877e-12
3.31907e-12
1.17818e-12
-1.08344e-11
3.93257e-12
1.06735e-12
-1.17117e-11
4.57894e-12
8.26747e-13
-1.23494e-11
5.21058e-12
3.92191e-13
-1.26454e-11
5.74475e-12
-3.37427e-13
-1.25067e-11
6.06582e-12
-1.40046e-12
-1.19109e-11
6.08182e-12
-1.0384e-11
6.18801e-12
6.30327e-13
-1.29521e-12
4.81714e-13
1.19268e-12
-3.77528e-12
1.41765e-12
1.69948e-12
-6.08381e-12
2.32892e-12
2.15919e-12
-8.3074e-12
3.27157e-12
2.57557e-12
-1.05092e-11
4.29341e-12
2.94644e-12
-1.27284e-11
5.43515e-12
3.26181e-12
-1.49789e-11
6.73031e-12
3.50064e-12
-1.72465e-11
8.20277e-12
3.62593e-12
-1.94839e-11
9.86057e-12
3.57886e-12
-2.16081e-11
1.16849e-11
3.27285e-12
-2.35029e-11
1.36121e-11
2.58736e-12
-2.50408e-11
1.55079e-11
1.36491e-12
-2.61407e-11
1.71422e-11
-5.52161e-13
-2.68754e-11
1.82034e-11
-3.002e-12
-2.7524e-11
1.84648e-11
-2.87632e-11
1.7996e-11
1.04075e-12
-1.89282e-12
7.89594e-13
1.96989e-12
-5.51878e-12
2.32353e-12
2.8084e-12
-8.89829e-12
3.81631e-12
3.57109e-12
-1.21601e-11
5.35907e-12
4.26558e-12
-1.54e-11
7.02952e-12
4.89065e-12
-1.86814e-11
8.89434e-12
5.43309e-12
-2.20335e-11
1.1009e-11
5.86218e-12
-2.54476e-11
1.34139e-11
6.121e-12
-2.88724e-11
1.61248e-11
6.11486e-12
-3.22109e-11
1.91166e-11
5.69826e-12
-3.5328e-11
2.2297e-11
4.66555e-12
-3.80822e-11
2.54716e-11
2.774e-12
-4.04148e-11
2.83175e-11
-1.01284e-13
-4.24949e-11
3.04212e-11
-3.40951e-12
-4.46858e-11
3.15059e-11
-4.73408e-11
3.19635e-11
1.43638e-12
-2.4308e-12
1.07841e-12
2.7197e-12
-7.08975e-12
3.17292e-12
3.87993e-12
-1.14389e-11
5.20951e-12
4.93906e-12
-1.56478e-11
7.3112e-12
5.91049e-12
-1.98457e-11
9.58306e-12
6.79712e-12
-2.41234e-11
1.21159e-11
7.58752e-12
-2.85318e-11
1.49863e-11
8.24863e-12
-3.30784e-11
1.82512e-11
8.71348e-12
-3.77228e-11
2.19373e-11
8.86259e-12
-4.23725e-11
2.60206e-11
8.49838e-12
-4.68839e-11
3.0396e-11
7.31837e-12
-5.10793e-11
3.48396e-11
4.93456e-12
-5.4805e-11
3.89875e-11
1.09957e-12
-5.80389e-11
4.2392e-11
-3.45486e-12
-6.08995e-11
4.47293e-11
-6.37501e-11
4.63133e-11
1.8108e-12
-2.89004e-12
1.34178e-12
3.42981e-12
-8.43225e-12
3.94674e-12
4.89616e-12
-1.36151e-11
6.4763e-12
6.23994e-12
-1.86465e-11
9.08132e-12
7.48222e-12
-2.36888e-11
1.18907e-11
8.63359e-12
-2.88616e-11
1.50165e-11
9.69044e-12
-3.42424e-11
1.85541e-11
1.06275e-11
-3.98635e-11
2.25763e-11
1.1384e-11
-4.5709e-11
2.71215e-11
1.18405e-11
-5.17084e-11
3.2172e-11
1.17809e-11
-5.77263e-11
3.76199e-11
1.08394e-11
-6.35459e-11
4.32272e-11
8.47565e-12
-6.88465e-11
4.86045e-11
4.17397e-12
-7.31824e-11
5.32687e-11
-1.49098e-12
-7.60431e-11
5.68111e-11
-7.76658e-11
5.94411e-11
2.15741e-12
-3.25257e-12
1.57442e-12
4.08733e-12
-9.4937e-12
4.6292e-12
5.83784e-12
-1.53415e-11
7.59019e-12
7.44753e-12
-2.1038e-11
1.06311e-11
8.94639e-12
-2.67755e-11
1.39003e-11
1.03554e-11
-3.2702e-11
1.75269e-11
1.16843e-11
-3.89227e-11
2.16213e-11
1.29255e-11
-4.54995e-11
2.62692e-11
1.40432e-11
-5.24498e-11
3.1519e-11
1.49525e-11
-5.97418e-11
3.7359e-11
1.54813e-11
-6.72802e-11
4.36799e-11
1.53062e-11
-7.48719e-11
5.02279e-11
1.38861e-11
-8.21489e-11
5.65727e-11
1.05443e-11
-8.84164e-11
6.21533e-11
5.3957e-12
-9.25507e-11
6.64488e-11
-9.22222e-11
6.97044e-11
2.46974e-12
-3.50239e-12
1.77243e-12
4.67962e-12
-1.02274e-11
5.20883e-12
6.68576e-12
-1.65419e-11
8.53209e-12
8.53467e-12
-2.27155e-11
1.19331e-11
1.02653e-11
-2.89651e-11
1.55745e-11
1.19097e-11
-3.54627e-11
1.95973e-11
1.34933e-11
-4.23383e-11
2.41216e-11
1.50318e-11
-4.96816e-11
2.92406e-11
1.65263e-11
-5.75434e-11
3.50083e-11
1.79522e-11
-6.59342e-11
4.14141e-11
1.92367e-11
-7.4817e-11
4.83419e-11
2.02199e-11
-8.40864e-11
5.55114e-11
2.06089e-11
-9.35226e-11
6.24212e-11
2.00058e-11
-1.02685e-10
6.83563e-11
1.83283e-11
-1.10648e-10
7.25909e-11
-1.16232e-10
7.53923e-11
2.74212e-12
1.93358e-12
-3.62654e-12
5.19567e-12
5.6792e-12
-1.05955e-11
7.42307e-12
9.29178e-12
-1.71549e-11
9.47708e-12
1.29733e-11
-2.35922e-11
1.14039e-11
1.68946e-11
-3.01414e-11
1.32451e-11
2.12027e-11
-3.69914e-11
1.50395e-11
2.60214e-11
-4.42901e-11
1.68238e-11
3.14452e-11
-5.21469e-11
1.86331e-11
3.75265e-11
-6.06347e-11
2.04997e-11
4.42497e-11
-6.97886e-11
2.24489e-11
5.14863e-11
-7.96e-11
2.44894e-11
5.89277e-11
-9.00006e-11
2.66103e-11
6.60066e-11
-1.00831e-10
2.88081e-11
7.18639e-11
-1.11773e-10
3.09778e-11
7.55627e-11
-1.21905e-10
7.67291e-11
-1.327e-10
2.06595e-13
-6.64001e-13
1.2611e-13
3.90021e-13
-1.93503e-12
3.71052e-13
5.53484e-13
-3.11726e-12
6.09334e-13
6.98706e-13
-4.25501e-12
8.55507e-13
8.25423e-13
-5.38032e-12
1.12176e-12
9.30842e-13
-6.51275e-12
1.41814e-12
1.00877e-12
-7.65924e-12
1.75257e-12
1.04825e-12
-8.81345e-12
2.1301e-12
1.03168e-12
-9.95436e-12
2.5513e-12
9.32696e-13
-1.10457e-11
3.00954e-12
7.14403e-13
-1.20378e-11
3.48731e-12
3.27321e-13
-1.28726e-11
3.95216e-12
-2.92937e-13
-1.34867e-11
4.35586e-12
-1.21663e-12
-1.37974e-11
4.64556e-12
-2.38363e-12
-1.36699e-11
4.79166e-12
-1.22806e-11
5.14664e-12
6.17176e-13
-1.3075e-12
3.75178e-13
1.16541e-12
-3.8111e-12
1.10386e-12
1.65449e-12
-6.14157e-12
1.81259e-12
2.08986e-12
-8.38653e-12
2.54437e-12
2.47135e-12
-1.06102e-11
3.33528e-12
2.79157e-12
-1.28533e-11
4.21527e-12
3.03339e-12
-1.51328e-11
5.20801e-12
3.16589e-12
-1.74401e-11
6.32886e-12
3.1388e-12
-1.97387e-11
7.58001e-12
2.87664e-12
-2.19642e-11
8.94289e-12
2.27472e-12
-2.40304e-11
1.03677e-11
1.20141e-12
-2.58485e-11
1.17621e-11
-4.77732e-13
-2.73631e-11
1.29887e-11
-2.79909e-12
-2.85916e-11
1.3894e-11
-5.33864e-12
-2.95854e-11
1.43878e-11
-3.0639e-11
1.44052e-11
1.01994e-12
-1.91062e-12
6.15061e-13
1.92676e-12
-5.57054e-12
1.80953e-12
2.7373e-12
-8.98129e-12
2.97072e-12
3.46163e-12
-1.22727e-11
4.16844e-12
4.1014e-12
-1.55417e-11
5.46133e-12
4.64744e-12
-1.88531e-11
6.89856e-12
5.07583e-12
-2.22386e-11
8.51946e-12
5.34149e-12
-2.56943e-11
1.03501e-11
5.36913e-12
-2.91781e-11
1.23962e-11
5.04329e-12
-3.26092e-11
1.46314e-11
4.20144e-12
-3.58764e-11
1.69828e-11
2.6431e-12
-3.88647e-11
1.93151e-11
1.99005e-13
-4.15177e-11
2.14318e-11
-3.03447e-12
-4.39216e-11
2.31209e-11
-6.17513e-12
-4.62349e-11
2.42529e-11
-4.8609e-11
2.49474e-11
1.40939e-12
-2.45329e-12
8.40191e-13
2.66379e-12
-7.15497e-12
2.47148e-12
3.78785e-12
-1.15428e-11
4.05592e-12
4.7976e-12
-1.57874e-11
5.68767e-12
5.69895e-12
-2.00185e-11
7.44602e-12
6.48505e-12
-2.43273e-11
9.39806e-12
7.13154e-12
-2.87652e-11
1.15981e-11
7.58853e-12
-3.33409e-11
1.40834e-11
7.76885e-12
-3.80172e-11
1.6865e-11
7.53295e-12
-4.27077e-11
1.99145e-11
6.67368e-12
-4.72774e-11
2.31462e-11
4.91623e-12
-5.15542e-11
2.6401e-11
1.99322e-12
-5.53683e-11
2.94547e-11
-2.05842e-12
-5.86246e-11
3.20768e-11
-6.18378e-12
-6.13142e-11
3.41027e-11
-6.37076e-11
3.55669e-11
1.7794e-12
-2.91623e-12
1.04557e-12
3.36482e-12
-8.50798e-12
3.07477e-12
4.78929e-12
-1.3735e-11
5.04301e-12
6.07619e-12
-1.8806e-11
7.06568e-12
7.23829e-12
-2.38827e-11
9.24013e-12
8.27548e-12
-2.90836e-11
1.16492e-11
9.17027e-12
-3.44834e-11
1.43606e-11
9.87986e-12
-4.01102e-11
1.74219e-11
1.03236e-11
-4.59422e-11
2.08502e-11
1.03644e-11
-5.19002e-11
2.46178e-11
9.78448e-12
-5.7836e-11
2.86311e-11
8.26239e-12
-6.35122e-11
3.27133e-11
5.40856e-12
-6.85733e-11
3.66163e-11
1.02541e-12
-7.25205e-11
4.00853e-11
-4.00513e-12
-7.48136e-11
4.29029e-11
-7.56964e-11
4.50326e-11
2.12349e-12
-3.28137e-12
1.22705e-12
4.01718e-12
-9.57678e-12
3.60704e-12
5.72273e-12
-1.54724e-11
5.91128e-12
7.27169e-12
-2.12104e-11
8.27263e-12
8.68555e-12
-2.69816e-11
1.08032e-11
9.97451e-12
-3.29307e-11
1.35985e-11
1.11343e-11
-3.91564e-11
1.67368e-11
1.21406e-11
-4.57106e-11
2.02736e-11
1.29387e-11
-5.25947e-11
2.42309e-11
1.34284e-11
-5.97527e-11
2.85801e-11
1.34391e-11
-6.7053e-11
3.3218e-11
1.26975e-11
-7.42524e-11
3.79428e-11
1.08199e-11
-8.09227e-11
4.2462e-11
7.45773e-12
-8.6329e-11
4.64599e-11
3.03751e-12
-8.9431e-11
4.96649e-11
-8.81549e-11
5.20953e-11
2.43509e-12
-3.53271e-12
1.38159e-12
4.60806e-12
-1.03147e-11
4.0593e-12
6.5686e-12
-1.66791e-11
6.64584e-12
8.35631e-12
-2.28946e-11
9.28724e-12
1.00019e-11
-2.9176e-11
1.21064e-11
1.15272e-11
-3.56899e-11
1.52075e-11
1.29443e-11
-4.25568e-11
1.86758e-11
1.42535e-11
-4.98512e-11
2.2571e-11
1.54384e-11
-5.75998e-11
2.69165e-11
1.64602e-11
-6.5776e-11
3.16794e-11
1.72463e-11
-7.4288e-11
3.67415e-11
1.76795e-11
-8.29558e-11
4.18647e-11
1.7607e-11
-9.14754e-11
4.66832e-11
1.69371e-11
-9.93689e-11
5.07604e-11
1.59115e-11
-1.05888e-10
5.37225e-11
-1.10313e-10
5.57053e-11
2.7083e-12
1.50743e-12
-3.65733e-12
5.12594e-12
4.42655e-12
-1.06841e-11
7.30919e-12
7.23873e-12
-1.72937e-11
9.30434e-12
1.00985e-11
-2.37725e-11
1.115e-11
1.31351e-11
-3.03512e-11
1.28783e-11
1.64572e-11
-3.72121e-11
1.45165e-11
2.01525e-11
-4.44917e-11
1.6087e-11
2.4281e-11
-5.22811e-11
1.76094e-11
2.88629e-11
-6.06244e-11
1.91021e-11
3.38584e-11
-6.95133e-11
2.05872e-11
3.91324e-11
-7.88773e-11
2.21015e-11
4.4412e-11
-8.85672e-11
2.3739e-11
4.9261e-11
-9.83406e-11
2.5742e-11
5.31202e-11
-1.07857e-10
2.8305e-11
5.54944e-11
-1.16436e-10
5.62283e-11
-1.26022e-10
2.02708e-13
-6.68371e-13
8.61877e-14
3.81988e-13
-1.9478e-12
2.53545e-13
5.40303e-13
-3.13804e-12
4.16237e-13
6.78525e-13
-4.28382e-12
5.8411e-13
7.95348e-13
-5.41746e-12
7.65282e-13
8.86663e-13
-6.55898e-12
9.66307e-13
9.44669e-13
-7.71647e-12
1.19218e-12
9.56514e-13
-8.88577e-12
1.44589e-12
9.02735e-13
-1.00496e-11
1.72736e-12
7.56085e-13
-1.11774e-11
2.03191e-12
4.81373e-13
-1.22268e-11
2.34871e-12
3.66271e-14
-1.31455e-11
2.65927e-12
-6.24542e-13
-1.38647e-11
2.93842e-12
-1.54388e-12
-1.4267e-11
3.16138e-12
-2.65178e-12
-1.41473e-11
3.31057e-12
-1.26185e-11
3.62889e-12
6.05826e-13
-1.31622e-12
2.56441e-13
1.14195e-12
-3.83654e-12
7.54399e-13
1.61599e-12
-6.18268e-12
1.23839e-12
2.03092e-12
-8.4428e-12
1.73746e-12
2.38358e-12
-1.06815e-11
2.27564e-12
2.66284e-12
-1.29404e-11
2.87248e-12
2.84701e-12
-1.5238e-11
3.543e-12
2.89994e-12
-1.75689e-11
4.29627e-12
2.76662e-12
-1.99016e-11
5.13236e-12
2.37015e-12
-2.21793e-11
6.03806e-12
1.61319e-12
-2.43242e-11
6.98231e-12
3.90028e-13
-2.62487e-11
7.91153e-12
-1.37573e-12
-2.78739e-11
8.75105e-12
-3.63426e-12
-2.91413e-11
9.42156e-12
-5.94428e-12
-2.99947e-11
9.86018e-12
-3.06725e-11
9.95678e-12
1.00198e-12
-1.92339e-12
4.20483e-13
1.88963e-12
-5.60767e-12
1.23693e-12
2.67636e-12
-9.04069e-12
2.03008e-12
3.36842e-12
-1.23528e-11
2.84699e-12
3.96284e-12
-1.56412e-11
3.72674e-12
4.4448e-12
-1.89712e-11
4.7015e-12
4.78356e-12
-2.23757e-11
5.79629e-12
4.92659e-12
-2.58527e-11
7.02659e-12
4.7927e-12
-2.93635e-11
8.39371e-12
4.26707e-12
-3.28321e-11
9.87869e-12
3.20365e-12
-3.61497e-11
1.14352e-11
1.45061e-12
-3.91931e-11
1.29829e-11
-1.06208e-12
-4.18686e-11
1.44112e-11
-4.10561e-12
-4.41767e-11
1.56029e-11
-6.8009e-12
-4.61898e-11
1.64571e-11
-4.80837e-11
1.69676e-11
1.38604e-12
-2.46954e-12
5.74505e-13
2.61556e-12
-7.20196e-12
1.68976e-12
3.70873e-12
-1.16172e-11
2.77219e-12
4.67676e-12
-1.58861e-11
3.8852e-12
5.51982e-12
-2.01384e-11
5.08166e-12
6.22411e-12
-2.44648e-11
6.40554e-12
6.75704e-12
-2.8916e-11
7.89147e-12
7.06029e-12
-3.34997e-11
9.56151e-12
7.04116e-12
-3.81775e-11
1.14195e-11
6.56435e-12
-4.28604e-11
1.34441e-11
5.44949e-12
-4.74064e-11
1.55791e-11
3.49172e-12
-5.16253e-11
1.77271e-11
5.55655e-13
-5.53067e-11
1.97587e-11
-3.16362e-12
-5.82855e-11
2.15421e-11
-6.65365e-12
-6.05121e-11
2.29458e-11
-6.23305e-11
2.39026e-11
1.75215e-12
-2.93516e-12
7.15065e-13
3.30854e-12
-8.56249e-12
2.1026e-12
4.69709e-12
-1.38206e-11
3.4474e-12
5.93572e-12
-1.89179e-11
4.82714e-12
7.0308e-12
-2.40153e-11
6.30676e-12
7.97457e-12
-2.92296e-11
7.94063e-12
8.74077e-12
-3.46318e-11
9.77184e-12
9.27806e-12
-4.02451e-11
1.18285e-11
9.50129e-12
-4.60394e-11
1.41174e-11
9.28122e-12
-5.19238e-11
1.66156e-11
8.43456e-12
-5.77317e-11
1.92591e-11
6.72484e-12
-6.31985e-11
2.19347e-11
3.91528e-12
-6.79318e-11
2.4494e-11
-1.95387e-14
-7.13948e-11
2.67865e-11
-4.27089e-12
-7.30666e-11
2.86467e-11
-7.3308e-11
2.99675e-11
2.09389e-12
-3.30213e-12
8.39312e-13
3.95611e-12
-9.63638e-12
2.46694e-12
5.62287e-12
-1.55653e-11
4.04149e-12
7.12e-12
-2.13303e-11
5.65239e-12
8.46238e-12
-2.71203e-11
7.37445e-12
9.65241e-12
-3.30766e-11
9.27037e-12
1.06771e-11
-3.92915e-11
1.13899e-11
1.15039e-11
-4.58071e-11
1.37656e-11
1.20746e-11
-5.261e-11
1.64059e-11
1.22985e-11
-5.96223e-11
1.92852e-11
1.20428e-11
-6.66829e-11
2.23287e-11
1.11238e-11
-7.35131e-11
2.5401e-11
9.31781e-12
-7.96537e-11
2.83192e-11
6.4554e-12
-8.43713e-11
3.08925e-11
2.88369e-12
-8.67224e-11
3.29307e-11
-8.48756e-11
3.43767e-11
2.40465e-12
-3.55449e-12
9.45147e-13
4.54533e-12
-1.03771e-11
2.77663e-12
6.46626e-12
-1.67757e-11
4.54429e-12
8.20137e-12
-2.3018e-11
6.34644e-12
9.77487e-12
-2.93157e-11
8.26511e-12
1.12011e-11
-3.58303e-11
1.03688e-11
1.24841e-11
-4.26738e-11
1.27114e-11
1.3616e-11
-4.9907e-11
1.53276e-11
1.45777e-11
-5.7536e-11
1.82254e-11
1.53388e-11
-6.55048e-11
2.13739e-11
1.58626e-11
-7.36836e-11
2.46839e-11
1.61151e-11
-8.18512e-11
2.79896e-11
1.60951e-11
-8.96779e-11
3.10546e-11
1.5888e-11
-9.67182e-11
3.36118e-11
1.56801e-11
-1.02385e-10
3.54244e-11
-1.06275e-10
3.65452e-11
2.67835e-12
1.03136e-12
-3.67936e-12
5.06429e-12
3.0282e-12
-1.07472e-11
7.20887e-12
4.95031e-12
-1.7391e-11
9.15302e-12
6.90173e-12
-2.38956e-11
1.09292e-11
8.9688e-12
-3.04881e-11
1.25629e-11
1.1223e-11
-3.73447e-11
1.40734e-11
1.37195e-11
-4.45916e-11
1.54763e-11
1.64929e-11
-5.23039e-11
1.67877e-11
1.95483e-11
-6.05022e-11
1.80329e-11
2.2848e-11
-6.91455e-11
1.92622e-11