/*--------------------------------*- C++ -*----------------------------------*\
| =========                 |                                                 |
| \\      /  F ield         | OpenFOAM: The Open Source CFD Toolbox           |
|  \\    /   O peration     | Version:  v1912                                 |
|   \\  /    A nd           | Website:  www.openfoam.com                      |
|    \\/     M anipulation  |                                                 |
\*---------------------------------------------------------------------------*/
FoamFile
{
    version     2.0;
    format      ascii;
    class       volScalarField;
    location    "0.34/fluid";
    object      p;
}
// * * * * * * * * * * * * * * * * * * * * * * * * * * * * * * * * * * * * * //

dimensions      [0 2 -2 0 0 0 0];


internalField   nonuniform List<scalar> 
14592
(
0.0663705
0.0608505
0.0590059
0.0574171
0.0564042
0.0555324
0.0547672
0.0540774
0.0534098
0.0528604
0.0522588
0.051949
0.0513342
0.0516411
0.0507911
0.0532973
0.0621199
0.0604075
0.0587773
0.0574472
0.0564569
0.0555955
0.0548285
0.0541425
0.0534833
0.0529517
0.052374
0.0521135
0.0515494
0.052027
0.0512078
0.0547416
0.0602041
0.0595688
0.0583379
0.0573187
0.0563939
0.0555664
0.0548019
0.0541162
0.0534573
0.0529326
0.0523701
0.0521503
0.0516382
0.0522647
0.0515195
0.0555783
0.0589735
0.0587837
0.0579
0.0571042
0.0562691
0.0554883
0.0547369
0.0540545
0.0533941
0.0528716
0.0523176
0.0521304
0.0516653
0.0524195
0.0517931
0.0561386
0.0582417
0.0581795
0.0575032
0.0568483
0.0560869
0.0553442
0.0546004
0.0539094
0.0532273
0.0526739
0.0520802
0.0518544
0.0513421
0.0521035
0.0514698
0.0560376
0.0577325
0.0577152
0.0571731
0.056608
0.0559027
0.0551881
0.0544491
0.0537478
0.0530455
0.0524661
0.0518476
0.0516129
0.0511136
0.0519907
0.0515133
0.0565364
0.0574032
0.0573991
0.0569243
0.0564029
0.0557234
0.0550138
0.0542597
0.0535232
0.0527652
0.0521011
0.0513638
0.050954
0.0502005
0.0507494
0.0497105
0.0547156
0.0572036
0.0572043
0.0567576
0.0562517
0.0555771
0.0548592
0.054084
0.0533129
0.0525098
0.0517858
0.0509868
0.0505127
0.049736
0.050435
0.0496576
0.056937
0.0662473
0.0607292
0.0589217
0.0573747
0.0564168
0.0556068
0.0549126
0.0543041
0.0537299
0.0532866
0.0528075
0.0526038
0.052124
0.0523112
0.0515396
0.0524943
0.0619969
0.0602844
0.0586923
0.0574049
0.0564705
0.0556718
0.0549764
0.0543727
0.0538079
0.0533835
0.0529283
0.05277
0.0523301
0.052632
0.0518354
0.0532464
0.0600781
0.0594414
0.0582482
0.0572717
0.056403
0.0556384
0.0549453
0.0543415
0.0537759
0.0533572
0.0529141
0.0527926
0.0523924
0.0528137
0.052053
0.0537471
0.0588455
0.0586539
0.0578071
0.0570534
0.0562739
0.0555553
0.0548745
0.0542731
0.0537047
0.0532871
0.0528502
0.0527602
0.0523993
0.0529367
0.0522627
0.0541494
0.0581106
0.0580466
0.0574063
0.0567924
0.0560852
0.0554031
0.0547275
0.0541143
0.0535196
0.0530659
0.0525801
0.052444
0.052016
0.0525505
0.0518185
0.053894
0.0575983
0.0575793
0.0570724
0.0565472
0.0558945
0.0552386
0.0545654
0.0539391
0.0533202
0.0528372
0.0523213
0.0521774
0.0517549
0.0524254
0.0518254
0.0543677
0.0572651
0.0572595
0.056819
0.0563361
0.0557072
0.0550535
0.0543609
0.0536938
0.0530107
0.052432
0.0517787
0.0514414
0.0507189
0.0510477
0.0497488
0.0523073
0.0570612
0.0570607
0.0566475
0.0561788
0.0555532
0.0548885
0.0541713
0.053465
0.0527309
0.0520866
0.0513642
0.0509668
0.0502189
0.0507731
0.0497283
0.0547372
0.0661665
0.0606497
0.0588709
0.0573584
0.0564481
0.0556952
0.0550709
0.0545483
0.0540835
0.0537795
0.0534949
0.0535329
0.0534541
0.0540375
0.054167
0.0552805
0.0619162
0.0602037
0.0586412
0.057389
0.0565031
0.0557624
0.055138
0.0546217
0.0541683
0.0538859
0.0536288
0.053716
0.053684
0.0543777
0.0545243
0.0559884
0.0599946
0.0593568
0.0581927
0.0572513
0.0564314
0.0557249
0.0551027
0.0545862
0.0541314
0.0538546
0.0536086
0.0537335
0.0537421
0.0545602
0.0547698
0.0564991
0.0587597
0.0585668
0.0577484
0.0570293
0.056298
0.055637
0.0550263
0.0545114
0.0540525
0.0537763
0.053535
0.0536936
0.0537411
0.054683
0.0549846
0.056904
0.0580217
0.0579562
0.0573435
0.0567632
0.0561029
0.0554766
0.0548688
0.054339
0.0538491
0.0535315
0.0532322
0.0533373
0.0532993
0.0542325
0.0544358
0.0565362
0.0575061
0.0574857
0.0570056
0.0565129
0.0559057
0.0553037
0.0546955
0.0541492
0.0536302
0.0532782
0.0529398
0.0530321
0.0529808
0.0540518
0.054336
0.0569039
0.057169
0.057162
0.0567475
0.0562958
0.0557103
0.0551076
0.0544756
0.0538823
0.0532894
0.0528283
0.052329
0.0521994
0.0517823
0.052457
0.0518437
0.0543774
0.0569609
0.0569592
0.0565712
0.0561325
0.0555483
0.0549318
0.0542712
0.0536329
0.0529807
0.0524432
0.0518566
0.0516494
0.0511624
0.0520522
0.0515594
0.0565863
0.0661141
0.0605979
0.0588408
0.0573546
0.0564811
0.0557715
0.0551986
0.0547347
0.0543375
0.0541043
0.0539018
0.0539961
0.054
0.0545265
0.0547088
0.0555399
0.061864
0.060151
0.0586108
0.0573856
0.0565371
0.0558403
0.055268
0.0548111
0.054426
0.054215
0.0540399
0.0541808
0.0542265
0.054841
0.0550232
0.0561023
0.0599397
0.0593006
0.0581583
0.0572438
0.0564615
0.055799
0.0552287
0.0547712
0.0543836
0.0541768
0.0540095
0.0541833
0.0542592
0.0549792
0.0552021
0.0564965
0.0587026
0.0585082
0.0577111
0.0570183
0.0563241
0.0557067
0.0551472
0.0546906
0.0542977
0.0540904
0.0539252
0.0541306
0.0542379
0.0550732
0.055367
0.0568315
0.0579616
0.0578946
0.0573023
0.0567475
0.0561233
0.0555394
0.0549809
0.0545071
0.0540799
0.0538275
0.0535978
0.0537447
0.0537527
0.0545718
0.0547363
0.056373
0.0574429
0.057421
0.0569608
0.0564928
0.0559204
0.0553593
0.0547986
0.0543061
0.0538467
0.0535574
0.0532839
0.0534173
0.0534028
0.0543645
0.0545847
0.0566902
0.0571021
0.0570937
0.0566984
0.0562703
0.0557181
0.0551541
0.0545666
0.0540232
0.0534841
0.0530794
0.0526338
0.0525368
0.0521316
0.0526908
0.0519465
0.0540101
0.0568903
0.0568873
0.0565178
0.0561019
0.0555494
0.0549697
0.0543508
0.0537591
0.0531563
0.052671
0.052132
0.0519578
0.0514745
0.0522711
0.0516229
0.0562055
0.0660826
0.060567
0.0588265
0.0573614
0.056518
0.0558453
0.0553182
0.0549092
0.0545797
0.0544248
0.0543235
0.054518
0.0546718
0.05528
0.0556583
0.0564138
0.0618327
0.0601194
0.0585964
0.0573928
0.0565751
0.0559158
0.05539
0.0549891
0.0546731
0.0545421
0.0544705
0.054713
0.0549106
0.0556007
0.0559816
0.0569384
0.0599061
0.059266
0.0581406
0.0572476
0.0564962
0.0558715
0.0553476
0.054946
0.0546269
0.0544995
0.0544337
0.0547072
0.0549296
0.0557165
0.0561288
0.0572802
0.0586671
0.0584717
0.0576908
0.0570191
0.0563555
0.0557755
0.0552619
0.0548604
0.054535
0.0544065
0.054341
0.0546451
0.0548947
0.0557938
0.0562662
0.0575801
0.0579234
0.0578553
0.0572787
0.0567443
0.0561497
0.0556019
0.0550878
0.0546672
0.0543045
0.0541275
0.0539919
0.0542329
0.054372
0.0552492
0.0555693
0.0570503
0.057402
0.0573791
0.056934
0.0564856
0.0559417
0.0554155
0.0548972
0.0544557
0.0540576
0.0538404
0.0536552
0.0538793
0.0539845
0.0550018
0.0553514
0.0572987
0.057058
0.0570486
0.0566678
0.0562585
0.0557333
0.0552023
0.0546544
0.0541581
0.0536747
0.0533352
0.0529664
0.0529491
0.0526378
0.0532369
0.0525579
0.0544435
0.0568429
0.056839
0.0564835
0.0560854
0.0555586
0.0550099
0.0544279
0.0538798
0.0533274
0.0529014
0.0524293
0.0523268
0.0519177
0.0527499
0.0521199
0.056525
0.0660643
0.060549
0.0588201
0.0573698
0.0565475
0.0558999
0.055403
0.0550278
0.0547365
0.0546189
0.0545592
0.0547774
0.0549645
0.0555465
0.055936
0.0566232
0.0618145
0.060101
0.05859
0.0574015
0.0566053
0.0559716
0.0554764
0.0551096
0.0548323
0.054739
0.054709
0.0549742
0.0552032
0.0558599
0.0562469
0.0571079
0.0598862
0.0592453
0.0581317
0.0572537
0.0565239
0.0559248
0.0554314
0.0550637
0.0547826
0.0546919
0.0546657
0.0549588
0.0552066
0.0559511
0.0563578
0.0573994
0.0586457
0.0584492
0.0576799
0.0570229
0.0563806
0.0558259
0.0553423
0.0549743
0.0546862
0.0545937
0.054566
0.0548882
0.0551587
0.0560107
0.0564669
0.0576661
0.0578998
0.0578307
0.0572651
0.0567449
0.0561709
0.0556478
0.0551627
0.0547743
0.0544468
0.054304
0.0542028
0.0544593
0.0546121
0.0554381
0.055727
0.0570905
0.0573762
0.0573524
0.0569179
0.0564831
0.0559591
0.0554567
0.0549662
0.0545556
0.054191
0.0540065
0.0538528
0.0540914
0.0542046
0.0551703
0.0554741
0.0573036
0.0570297
0.0570194
0.0566488
0.0562525
0.0557463
0.0552376
0.0547159
0.0542484
0.0537955
0.0534857
0.0531432
0.0531371
0.0528232
0.053367
0.0526133
0.0543701
0.056812
0.0568073
0.0564616
0.0560759
0.0555672
0.0550397
0.0544821
0.0539609
0.0534365
0.0530379
0.0525886
0.0524967
0.0520793
0.0528607
0.0521404
0.0564192
0.066055
0.0605399
0.0588187
0.0573785
0.0565706
0.0559409
0.0554659
0.0551164
0.054856
0.0547716
0.054752
0.0550039
0.0552366
0.055831
0.0562573
0.0569116
0.0618053
0.0600915
0.0585886
0.0574104
0.056629
0.0560135
0.0555407
0.0552002
0.0549543
0.0548951
0.0549062
0.0552058
0.0554811
0.0561481
0.0565716
0.0573854
0.0598757
0.0592343
0.0581285
0.0572608
0.0565459
0.0559651
0.0554941
0.0551525
0.0549026
0.0548456
0.0548595
0.0551856
0.0554766
0.0562268
0.0566641
0.0576508
0.0586341
0.0584371
0.0576753
0.0570284
0.0564008
0.0558642
0.0554027
0.0550606
0.0548031
0.0547439
0.0547552
0.0551097
0.0554207
0.0562762
0.0567569
0.0578987
0.0578868
0.057817
0.0572587
0.0567482
0.0561885
0.0556828
0.0552191
0.0548556
0.0545575
0.0544464
0.0543817
0.0546684
0.0548569
0.0556836
0.0559871
0.0572917
0.0573617
0.0573372
0.0569097
0.0564843
0.055974
0.0554883
0.0550183
0.0546316
0.0542947
0.0541405
0.0540207
0.0542878
0.0544316
0.0553961
0.0557037
0.0574736
0.0570134
0.0570026
0.0566386
0.0562511
0.0557579
0.0552651
0.0547625
0.0543172
0.0538896
0.0536073
0.0532944
0.0533132
0.0530212
0.0535586
0.0527876
0.0544758
0.0567939
0.0567887
0.0564494
0.0560721
0.0555756
0.0550631
0.0545232
0.0540226
0.0535212
0.0531476
0.0527238
0.0526539
0.0522514
0.0530247
0.0522718
0.0564824
0.0660507
0.0605363
0.0588182
0.057383
0.0565817
0.0559601
0.0554946
0.0551555
0.0549065
0.0548323
0.0548235
0.0550797
0.0553184
0.0559032
0.0563296
0.0569712
0.0618015
0.0600874
0.0585883
0.057415
0.0566404
0.056033
0.0555697
0.0552396
0.055005
0.0549559
0.0549772
0.0552801
0.0555601
0.0562149
0.0566373
0.0574335
0.059871
0.0592294
0.0581274
0.0572645
0.0565564
0.0559837
0.0555222
0.0551908
0.0549518
0.0549044
0.0549276
0.0552557
0.0555491
0.0562843
0.056717
0.0576834
0.058629
0.0584316
0.0576735
0.0570312
0.0564104
0.0558817
0.0554296
0.0550976
0.0548508
0.0548009
0.054821
0.0551769
0.0554888
0.0563279
0.0568007
0.0579211
0.0578809
0.0578108
0.057256
0.0567499
0.0561967
0.0556989
0.0552442
0.0548905
0.0546025
0.0545004
0.0544436
0.0547313
0.0549192
0.0557284
0.0560203
0.0573022
0.0573551
0.0573302
0.0569061
0.0564849
0.0559809
0.0555028
0.0550415
0.0546641
0.054337
0.0541913
0.0540788
0.0543466
0.0544882
0.0554346
0.0557256
0.0574716
0.0570058
0.0569947
0.056634
0.0562505
0.0557633
0.0552777
0.0547833
0.0543468
0.0539282
0.0536539
0.0533473
0.0533665
0.0530705
0.0535894
0.0527954
0.054456
0.0567855
0.05678
0.0564437
0.0560703
0.0555796
0.0550738
0.0545417
0.0540493
0.0535562
0.05319
0.0527716
0.0527019
0.0522937
0.0530478
0.0522655
0.0564444
0.0759851
0.0653517
0.061787
0.0588208
0.0570062
0.0554837
0.0541794
0.0529414
0.0517048
0.0504426
0.0490686
0.0476197
0.0459283
0.0441535
0.0419809
0.0398268
0.0716715
0.0645416
0.06136
0.0587014
0.0569612
0.0554779
0.0541875
0.0529596
0.0517311
0.0504776
0.0491128
0.047676
0.0459973
0.0442391
0.0420786
0.039933
0.0697261
0.0635518
0.0607699
0.0584333
0.0568105
0.0553994
0.054139
0.0529291
0.0517111
0.050466
0.0491109
0.0476857
0.0460236
0.0442833
0.0421443
0.0400149
0.0684497
0.0627124
0.0602645
0.0581559
0.0566464
0.0553029
0.0540738
0.0528807
0.0516707
0.0504303
0.0490806
0.0476619
0.0460117
0.0442852
0.0421674
0.0400563
0.0676917
0.0620898
0.0598403
0.0578775
0.0564583
0.0551724
0.0539729
0.0527944
0.0515903
0.0503507
0.0490018
0.0475834
0.0459411
0.0442238
0.0421307
0.0400438
0.0671737
0.061625
0.0595059
0.0576372
0.0562852
0.0550424
0.0538658
0.0526974
0.0514961
0.0502547
0.0489052
0.0474861
0.0458534
0.0441473
0.0420866
0.0400296
0.0668488
0.061318
0.0592669
0.0574483
0.0561349
0.0549164
0.0537509
0.0525837
0.0513785
0.0501282
0.0487712
0.0473429
0.0457131
0.0440105
0.0419843
0.03996
0.0666638
0.061139
0.0591178
0.0573204
0.0560226
0.0548121
0.0536473
0.0524745
0.0512615
0.0500007
0.0486372
0.047202
0.045581
0.0438883
0.041906
0.0399199
0.0716645
0.0645305
0.0613427
0.0586785
0.0569324
0.0554448
0.0541512
0.0529151
0.0516722
0.0504027
0.0490164
0.047558
0.0458464
0.0440647
0.0418567
0.0397112
0.0673896
0.0640175
0.0610267
0.0586206
0.0569195
0.0554571
0.0541697
0.0529374
0.0516962
0.0504296
0.0490472
0.0475952
0.0458911
0.04412
0.0419217
0.0397868
0.0654445
0.0631037
0.0604949
0.0584026
0.0567978
0.0553944
0.054129
0.0529091
0.0516747
0.0504137
0.0490391
0.0475965
0.0459076
0.0441526
0.0419745
0.0398544
0.0641784
0.0622746
0.0600099
0.0581452
0.0566475
0.0553069
0.0540694
0.052864
0.0516364
0.0503796
0.0490103
0.0475742
0.0458976
0.0441567
0.0419999
0.039898
0.0634262
0.0616487
0.0595915
0.0578739
0.056465
0.0551801
0.0539709
0.0527798
0.0515579
0.0503022
0.0489342
0.047499
0.0458311
0.0440999
0.0419688
0.0398906
0.0629103
0.0611791
0.0592581
0.0576363
0.0562948
0.0550526
0.053866
0.0526856
0.0514673
0.0502108
0.0488437
0.0474095
0.0457535
0.0440356
0.0419395
0.0398913
0.0625869
0.0608699
0.0590199
0.057449
0.0561465
0.0549279
0.0537525
0.0525743
0.0513527
0.0500881
0.0487145
0.047272
0.0456205
0.0439067
0.0418482
0.0398321
0.0624025
0.0606902
0.0588716
0.0573225
0.0560361
0.0548253
0.0536508
0.0524682
0.05124
0.0499662
0.0485881
0.047141
0.0455017
0.0438004
0.041791
0.0398135
0.069726
0.0635481
0.0607663
0.0584317
0.0568149
0.0554166
0.0541714
0.0529734
0.0517609
0.0505242
0.0491593
0.04773
0.0460003
0.0442204
0.0418632
0.0396571
0.0654541
0.0631144
0.0605134
0.0584297
0.0568378
0.0554525
0.054206
0.0530077
0.0517956
0.050562
0.0492019
0.0477804
0.0460596
0.0442925
0.0419438
0.0397485
0.063519
0.0622564
0.0600428
0.0582693
0.0567539
0.055413
0.0541789
0.0529873
0.051779
0.0505497
0.0491971
0.0477854
0.0460807
0.04433
0.0419993
0.0398151
0.0622665
0.0614492
0.0595851
0.0580384
0.0566221
0.0553374
0.0541263
0.0529459
0.0517427
0.0505164
0.0491691
0.0477645
0.0460738
0.0443391
0.0420314
0.0398668
0.0615229
0.0608328
0.0591801
0.0577804
0.056449
0.0552159
0.0540295
0.0528606
0.0516607
0.0504333
0.0490855
0.0476799
0.0459971
0.0442714
0.0419928
0.0398548
0.0610111
0.0603658
0.0588516
0.0575478
0.0562823
0.0550897
0.0539239
0.0527639
0.051566
0.0503362
0.0489886
0.0475834
0.0459148
0.0442049
0.0419713
0.0398701
0.0606892
0.0600572
0.0586149
0.0573618
0.0561341
0.0549634
0.0538067
0.0526466
0.0514424
0.0502009
0.048843
0.0474244
0.0457579
0.0440479
0.0418623
0.0397983
0.0605045
0.0598767
0.0584662
0.0572349
0.0560225
0.054858
0.0537008
0.0525347
0.0513219
0.0500688
0.0487047
0.0472794
0.045628
0.0439325
0.0418141
0.0397989
0.0684528
0.0627118
0.0602749
0.0581818
0.0566978
0.0553903
0.0542031
0.0530547
0.0518831
0.0506914
0.0493562
0.0479695
0.0462154
0.0444453
0.0418596
0.0395788
0.0641922
0.0622888
0.0600437
0.0582016
0.0567369
0.0554377
0.0542457
0.0530953
0.0519236
0.0507354
0.0494061
0.0480295
0.0462873
0.0445367
0.0419625
0.0396984
0.06227
0.0614516
0.0595994
0.0580669
0.0566711
0.0554099
0.054225
0.0530782
0.0519086
0.0507238
0.0494023
0.0480365
0.0463118
0.044579
0.042018
0.0397574
0.0610289
0.0606577
0.0591552
0.0578491
0.0565487
0.0553402
0.0541754
0.0530377
0.0518718
0.0506895
0.0493734
0.0480158
0.0463072
0.0445936
0.0420569
0.0398172
0.0602928
0.0600494
0.0587584
0.0575986
0.0563804
0.0552209
0.054078
0.0529491
0.051784
0.0505978
0.0492787
0.0479172
0.0462148
0.0445082
0.0420042
0.0397947
0.059785
0.0595861
0.0584333
0.0573689
0.056215
0.0550945
0.0539704
0.0528482
0.0516833
0.050493
0.0491732
0.0478117
0.0461266
0.0444397
0.0419954
0.0398334
0.0594647
0.0592787
0.0581975
0.0571832
0.0560657
0.0549654
0.0538482
0.0527227
0.0515479
0.0503408
0.0490053
0.0476224
0.0459348
0.0442396
0.0418577
0.0397389
0.0592795
0.0590976
0.058048
0.0570549
0.0559518
0.0548566
0.0537372
0.0526033
0.0514175
0.0501958
0.0488523
0.0474604
0.0457924
0.0441157
0.0418299
0.0397786
0.0676968
0.062092
0.0598724
0.0579489
0.056589
0.0553798
0.0542713
0.0531988
0.0521002
0.0509948
0.0497362
0.0484548
0.0467257
0.0450367
0.0421613
0.0397863
0.0634422
0.0616651
0.059647
0.0579766
0.0566355
0.0554334
0.0543194
0.0532453
0.0521479
0.0510482
0.0497984
0.0485325
0.0468214
0.0451642
0.042305
0.0399491
0.0615279
0.060836
0.0592148
0.0578544
0.0565792
0.0554118
0.0543022
0.0532301
0.0521339
0.0510377
0.0497968
0.0485442
0.0468535
0.0452175
0.0423622
0.0399951
0.0602944
0.0600501
0.0587787
0.0576443
0.056462
0.0553451
0.0542533
0.0531885
0.0520948
0.0510008
0.0497658
0.0485237
0.0468527
0.0452421
0.0424136
0.0400716
0.0595638
0.0594476
0.0583872
0.0573981
0.0562959
0.0552254
0.0541523
0.053093
0.0519966
0.0508946
0.0496524
0.0484017
0.0467336
0.0451281
0.0423378
0.0400366
0.0590588
0.0589872
0.0580644
0.0571697
0.0561301
0.0550964
0.0540395
0.052984
0.0518846
0.0507751
0.0495298
0.0482773
0.0466297
0.0450509
0.0423435
0.0401154
0.0587389
0.0586802
0.0578283
0.0569826
0.0559775
0.0549616
0.053908
0.0528442
0.0517287
0.0505936
0.0493221
0.0480332
0.0463706
0.0447662
0.0421391
0.0399685
0.0585523
0.0584979
0.0576769
0.0568515
0.0558592
0.0548464
0.0537875
0.0527113
0.0515801
0.0504241
0.049139
0.0478339
0.0461928
0.0446105
0.0421216
0.0400638
0.0671646
0.0616136
0.0595479
0.0577485
0.056497
0.0553803
0.0543534
0.0533624
0.0523436
0.0513324
0.0501563
0.0489868
0.0472699
0.0456488
0.0423212
0.0397605
0.062912
0.0611801
0.0593222
0.0577781
0.056546
0.0554367
0.0544048
0.0534131
0.0523967
0.0513936
0.0502294
0.0490821
0.0473906
0.0458176
0.0424944
0.0399015
0.0610004
0.0603513
0.0588923
0.0576588
0.0564917
0.0554161
0.0543875
0.0533968
0.0523813
0.051382
0.0502278
0.0490969
0.0474275
0.0458761
0.0425234
0.0398602
0.0597706
0.0595685
0.0584589
0.0574506
0.0563755
0.055349
0.0543366
0.0533522
0.0523381
0.0513406
0.0501929
0.0490752
0.0474286
0.0459098
0.0425798
0.0399384
0.0590424
0.0589684
0.0580689
0.057205
0.0562083
0.0552259
0.0542297
0.0532474
0.0522268
0.0512168
0.0500563
0.0489239
0.0472741
0.045757
0.0424719
0.0398914
0.0585384
0.058509
0.0577463
0.0569756
0.0560401
0.0550927
0.05411
0.0531285
0.0521018
0.0510809
0.0499147
0.0487797
0.0471554
0.0456789
0.0425152
0.0400603
0.0582177
0.0582013
0.0575087
0.0567857
0.055883
0.0549507
0.0539674
0.0529724
0.0519224
0.0508657
0.0496602
0.0484696
0.0468124
0.0452871
0.0422336
0.0398729
0.0580289
0.0580169
0.0573547
0.0566509
0.0557594
0.0548279
0.0538363
0.0528246
0.0517541
0.0506702
0.0494459
0.0482345
0.0466064
0.0451231
0.0422879
0.04016
0.0668056
0.061274
0.0593084
0.0575984
0.0564396
0.0554128
0.0544766
0.0535867
0.0526812
0.0518175
0.0508088
0.0498858
0.0483858
0.0471396
0.04363
0.0410999
0.0625544
0.0608364
0.0590819
0.0576287
0.0564901
0.0554718
0.0545316
0.0536426
0.0527417
0.0518895
0.0508975
0.0500067
0.0485432
0.0473706
0.0438466
0.0411572
0.060643
0.0600055
0.0586507
0.0575082
0.0564347
0.0554498
0.0545124
0.0536241
0.052724
0.0518767
0.0508967
0.0500284
0.0485922
0.0474527
0.0438681
0.0410275
0.0594145
0.0592234
0.0582173
0.0572995
0.0563171
0.0553802
0.0544579
0.0535747
0.0526752
0.0518298
0.0508573
0.0500071
0.0486003
0.0475109
0.0439512
0.0411297
0.0586866
0.0586234
0.0578265
0.057052
0.0561463
0.0552515
0.0543423
0.0534577
0.0525468
0.051683
0.05069
0.0498175
0.0483982
0.04731
0.0438028
0.0410847
0.058182
0.0581635
0.0575025
0.0568201
0.0559739
0.0551115
0.054213
0.0533254
0.0524039
0.0515242
0.0505201
0.0496422
0.0482497
0.0472218
0.043883
0.0413948
0.0578593
0.0578539
0.057262
0.056626
0.0558103
0.0549596
0.0540558
0.0531476
0.0521926
0.0512618
0.0501962
0.0492296
0.0477603
0.0466294
0.0433945
0.0410806
0.0576674
0.0576666
0.0571043
0.0564861
0.0556798
0.0548268
0.0539105
0.0529796
0.0519962
0.0510273
0.0499302
0.0489274
0.0474785
0.0464033
0.0434655
0.0416581
0.0665475
0.0610236
0.0591286
0.0574863
0.0564054
0.0554579
0.0546049
0.0538075
0.0530038
0.0522646
0.0513894
0.0506381
0.0492576
0.0481422
0.044142
0.0407368
0.0622965
0.0605826
0.0589009
0.0575163
0.0564568
0.0555188
0.0546627
0.0538674
0.0530698
0.0523448
0.0514892
0.0507769
0.0494344
0.0483912
0.0442309
0.0400069
0.0603832
0.059748
0.0584659
0.0573922
0.056398
0.0554935
0.05464
0.0538452
0.0530479
0.0523282
0.051485
0.0507984
0.0494794
0.0484582
0.0441298
0.039364
0.0591542
0.0589648
0.0580306
0.0571811
0.0562772
0.0554201
0.0545807
0.0537899
0.0529922
0.0522743
0.0514383
0.0507736
0.0494854
0.0485227
0.0442011
0.0393719
0.0584248
0.0583632
0.0576373
0.05693
0.0561013
0.0552843
0.0544553
0.0536597
0.0528458
0.0521036
0.0512385
0.0505432
0.049229
0.0482655
0.0440018
0.039332
0.0579184
0.0579015
0.0573107
0.0566943
0.0559235
0.0551369
0.0543159
0.053514
0.0526855
0.0519234
0.0510431
0.0503433
0.049061
0.0481925
0.0441712
0.039878
0.0575927
0.057589
0.0570663
0.0564952
0.0557526
0.0549745
0.0541437
0.0533147
0.0524432
0.0516161
0.0506528
0.0498343
0.0484293
0.0474096
0.0434905
0.0394669
0.0573972
0.0573982
0.0569043
0.05635
0.0556148
0.0548316
0.0539845
0.0531277
0.0522214
0.0513487
0.0503464
0.0494901
0.0481179
0.0472328
0.0437848
0.0407378
0.0571266
0.0571286
0.0566739
0.0561554
0.0554603
0.0547123
0.0538956
0.053064
0.0521775
0.0513202
0.050328
0.0494771
0.0481016
0.0472072
0.0437272
0.0406355
0.057179
0.0571799
0.0566842
0.0561278
0.0553919
0.0546025
0.053742
0.0528576
0.0519116
0.050972
0.0498948
0.0489043
0.0474548
0.0463712
0.0434002
0.0415579
0.0573649
0.0573546
0.056778
0.0561563
0.0553578
0.0545115
0.0535961
0.0526481
0.0516292
0.0505856
0.0493892
0.048195
0.0465687
0.0450776
0.0422108
0.0400509
0.0577513
0.0576986
0.056976
0.0562481
0.055368
0.0544567
0.0534898
0.052491
0.0514228
0.0503162
0.049066
0.0477832
0.0461478
0.0445603
0.0420452
0.0399592
0.0583717
0.0581916
0.0572497
0.0563646
0.0553882
0.0544085
0.0533927
0.0523466
0.0512327
0.0500675
0.0487644
0.0473987
0.04574
0.0440607
0.041754
0.0396778
0.0595247
0.0589001
0.0576052
0.0564905
0.0554137
0.0543748
0.0533294
0.052257
0.0511218
0.0499296
0.0486094
0.047213
0.0455735
0.0438775
0.041742
0.0397044
0.0613703
0.0596638
0.0579673
0.0565411
0.0553964
0.0543161
0.0532595
0.052176
0.0510292
0.0498194
0.0484876
0.0470712
0.0454458
0.0437456
0.0417221
0.0397243
0.0656298
0.0601189
0.058221
0.0565459
0.055389
0.0543058
0.0532588
0.0521879
0.051056
0.0498588
0.048541
0.047136
0.0455285
0.0438364
0.04184
0.0398333
0.0569795
0.0569804
0.0565585
0.0560759
0.0554274
0.0547294
0.0539658
0.0531917
0.0523637
0.051571
0.0506313
0.049828
0.0484208
0.0473889
0.0434125
0.0393151
0.0570273
0.0570271
0.0565637
0.056042
0.0553509
0.0546088
0.0537976
0.0529656
0.0520715
0.0511885
0.050156
0.049211
0.0477417
0.0465988
0.0433066
0.0409347
0.0572085
0.0571973
0.0566526
0.0560644
0.0553085
0.0545066
0.0536363
0.0527346
0.0517594
0.0507611
0.0495961
0.0484312
0.0467761
0.045239
0.0421341
0.0397237
0.0575906
0.0575372
0.0568459
0.0561513
0.0553121
0.0544429
0.0535182
0.0525615
0.0515322
0.0504645
0.0492404
0.0479821
0.0463264
0.044714
0.0420455
0.0398321
0.0582071
0.0580266
0.0571155
0.0562628
0.0553264
0.0543867
0.0534102
0.0524021
0.0513224
0.0501896
0.0489071
0.0475588
0.0458826
0.044183
0.0417692
0.0396143
0.0593574
0.0587327
0.0574686
0.056386
0.0553482
0.0543483
0.0533407
0.0523041
0.0512007
0.050038
0.0487368
0.0473556
0.045704
0.0439926
0.041782
0.0396864
0.0612015
0.0594956
0.0578298
0.0564352
0.0553283
0.0542858
0.0532657
0.0522163
0.0510995
0.0499168
0.0486025
0.0471994
0.0455654
0.0438526
0.0417742
0.0397301
0.0654613
0.0599528
0.0580855
0.0564419
0.0553231
0.0542768
0.0532667
0.0522314
0.0511305
0.0499618
0.0486637
0.0472742
0.0456616
0.0439598
0.0419139
0.0398614
0.0568746
0.0568744
0.0564768
0.056023
0.0554136
0.0547603
0.0540478
0.0533335
0.0525739
0.0518671
0.0510254
0.0503524
0.0490675
0.0481805
0.0440581
0.0396325
0.056918
0.056917
0.0564771
0.0559828
0.0553289
0.0546285
0.0538639
0.0530851
0.0522496
0.0514382
0.0504819
0.0496363
0.0482433
0.0471976
0.0437626
0.0411759
0.0570949
0.057083
0.0565613
0.0559993
0.0552783
0.054515
0.0536865
0.0528308
0.0519038
0.0509611
0.0498492
0.0487494
0.0471265
0.0456324
0.0423869
0.0398546
0.0574731
0.0574191
0.0567504
0.0560813
0.0552756
0.0544424
0.0535559
0.0526398
0.0516515
0.050629
0.0494449
0.0482325
0.0465926
0.0450019
0.0422315
0.03994
0.0580862
0.0579052
0.0570164
0.0561883
0.055284
0.0543781
0.0534366
0.0524645
0.0514195
0.0503229
0.0490698
0.0477523
0.0460808
0.0443873
0.0418962
0.0396833
0.0592342
0.0586093
0.0573673
0.0563089
0.0553025
0.054335
0.0533604
0.052357
0.051285
0.0501535
0.0488765
0.0475184
0.045868
0.0441558
0.0418871
0.0397428
0.0610768
0.0593713
0.0577274
0.0563567
0.0552796
0.0542687
0.0532805
0.0522618
0.0511738
0.0500187
0.048725
0.04734
0.0457057
0.0439891
0.0418662
0.0397811
0.0653369
0.0598301
0.0579848
0.056365
0.0552764
0.0542609
0.0532827
0.0522795
0.0512081
0.0500679
0.0487914
0.0474211
0.04581
0.0441052
0.0420186
0.0399246
0.0567999
0.0567986
0.0564189
0.0559867
0.0554073
0.0547883
0.054114
0.0534414
0.0527244
0.0520614
0.0512539
0.0506022
0.0492882
0.0483021
0.0438745
0.03898
0.0568394
0.0568375
0.0564147
0.0559413
0.055316
0.0546478
0.0539185
0.0531777
0.05238
0.0516074
0.0506796
0.0498542
0.0484361
0.0473263
0.0436698
0.0407959
0.0570126
0.0569999
0.0564949
0.0559527
0.0552588
0.0545255
0.0537291
0.0529072
0.0520126
0.0511021
0.0500116
0.0489266
0.0472783
0.0457383
0.0423305
0.0396354
0.0573874
0.0573328
0.0566806
0.0560308
0.0552508
0.0544459
0.0535892
0.0527039
0.0517445
0.0507501
0.0495842
0.0483848
0.046726
0.0451052
0.0422241
0.0398335
0.0579977
0.0578162
0.0569434
0.0561341
0.0552546
0.0543752
0.0534614
0.0525172
0.0514978
0.0504255
0.0491876
0.0478808
0.0461945
0.0444796
0.0419103
0.0396316
0.0591438
0.0585186
0.0572926
0.0562525
0.0552705
0.0543287
0.0533803
0.0524032
0.0513552
0.0502461
0.0489835
0.0476355
0.0459748
0.0442466
0.0419207
0.039726
0.0609852
0.0592799
0.0576518
0.0562992
0.0552453
0.0542594
0.0532969
0.052303
0.0512377
0.0501034
0.0488234
0.0474482
0.0458068
0.0440778
0.0419119
0.0397865
0.0652456
0.05974
0.0579107
0.0563091
0.0552439
0.0542529
0.0533005
0.0523234
0.0512757
0.0501575
0.0488964
0.0475376
0.0459221
0.0442072
0.042081
0.039947
0.056749
0.0567468
0.0563805
0.0559653
0.0554101
0.0548197
0.0541788
0.053545
0.0528711
0.0522578
0.0515013
0.0509023
0.0496196
0.048629
0.0440411
0.0388159
0.0567852
0.0567825
0.0563726
0.0559153
0.0553128
0.0546712
0.0539723
0.0532662
0.0525059
0.0517753
0.050888
0.0501044
0.0487032
0.0475894
0.0438024
0.0407308
0.0569552
0.056942
0.0564494
0.0559223
0.0552497
0.0545409
0.0537719
0.0529804
0.0521171
0.0512409
0.0501805
0.0491254
0.0474824
0.0459357
0.0424259
0.0396129
0.0573273
0.0572722
0.0566321
0.055997
0.0552371
0.0544549
0.0536232
0.0527649
0.0518326
0.0508668
0.0497244
0.0485475
0.0468895
0.045262
0.0423075
0.0398417
0.0579352
0.0577533
0.0568922
0.0560971
0.0552368
0.0543786
0.0534877
0.0525675
0.0515716
0.0505229
0.0493035
0.0480132
0.0463254
0.0446036
0.0419803
0.0396496
0.0590797
0.0584542
0.0572399
0.0562137
0.0552504
0.054329
0.053402
0.0524471
0.0514205
0.0503323
0.0490855
0.0477508
0.0460882
0.044353
0.0419858
0.0397501
0.0609201
0.0592149
0.0575984
0.0562592
0.055223
0.054257
0.0533153
0.0523421
0.0512964
0.0501812
0.0489151
0.0475512
0.0459082
0.0441729
0.0419748
0.0398158
0.0651807
0.059676
0.0578583
0.0562703
0.0552231
0.0542514
0.0533198
0.0523645
0.0513371
0.0502386
0.0489923
0.0476458
0.0460299
0.0443095
0.0421533
0.0399858
0.0567154
0.0567125
0.0563556
0.0559521
0.0554138
0.0548433
0.0542248
0.0536154
0.052966
0.0523763
0.0516369
0.0510445
0.0497408
0.0486911
0.0439454
0.038475
0.0567491
0.0567458
0.0563448
0.0558987
0.0553122
0.0546892
0.054011
0.0533271
0.0525887
0.0518792
0.0510061
0.0502288
0.0488084
0.0476513
0.0437437
0.0405222
0.0569167
0.0569029
0.0564189
0.0559025
0.055245
0.0545534
0.0538033
0.0530317
0.0521876
0.0513295
0.0502804
0.0492307
0.0475709
0.0459927
0.0423941
0.0394877
0.0572867
0.0572311
0.0565995
0.0559746
0.055229
0.0544631
0.0536488
0.0528087
0.0518936
0.0509439
0.0498114
0.0486397
0.0469687
0.0453191
0.0423017
0.0397749
0.0578928
0.0577105
0.0568576
0.0560725
0.0552259
0.0543828
0.0535081
0.0526045
0.051624
0.0505897
0.0493791
0.0480937
0.0463963
0.0446588
0.0419902
0.0396171
0.059036
0.0584103
0.0572041
0.0561877
0.0552379
0.054331
0.0534194
0.0524803
0.0514682
0.0503935
0.0491551
0.0478257
0.0461562
0.0444091
0.0420075
0.0397385
0.0608757
0.0591705
0.057562
0.0562324
0.0552089
0.0542572
0.0533307
0.0523722
0.0513405
0.050238
0.0489803
0.0476218
0.0459741
0.0442297
0.042005
0.039819
0.0651365
0.0596323
0.0578228
0.0562445
0.0552102
0.0542524
0.0533361
0.0523965
0.0513836
0.0502986
0.0490618
0.0477218
0.0461028
0.0443745
0.0421934
0.0399989
0.0566954
0.056692
0.0563412
0.0559457
0.0554189
0.0548622
0.0542598
0.0536689
0.0530395
0.0524713
0.0517519
0.051176
0.049875
0.048805
0.0439729
0.038339
0.0567273
0.0567236
0.0563284
0.0558899
0.0553142
0.054704
0.0540406
0.0533732
0.0526522
0.0519613
0.0511043
0.0503404
0.0489194
0.0477468
0.0437712
0.040452
0.0568932
0.0568792
0.0564007
0.0558914
0.055244
0.0545642
0.0538274
0.0530704
0.0522413
0.0513986
0.0503622
0.0493228
0.0476606
0.0460708
0.0424211
0.0394532
0.0572618
0.0572059
0.0565798
0.0559617
0.0552255
0.0544706
0.0536686
0.0528416
0.0519395
0.0510029
0.0498807
0.0487171
0.0470434
0.045385
0.0423307
0.0397634
0.0578667
0.0576842
0.0568365
0.056058
0.0552204
0.0543875
0.053524
0.0526322
0.0516631
0.0506401
0.0494378
0.048159
0.0464592
0.044715
0.0420192
0.0396177
0.0590091
0.0583833
0.0571822
0.0561722
0.0552312
0.0543341
0.0534329
0.0525049
0.0515033
0.0504387
0.0492078
0.047884
0.0462125
0.0444597
0.042037
0.0397456
0.0608482
0.059143
0.0575396
0.0562163
0.0552011
0.054259
0.0533426
0.0523944
0.0513726
0.0502794
0.0490286
0.0476751
0.046026
0.0442769
0.0420355
0.0398312
0.0651091
0.0596054
0.057801
0.0562291
0.0552032
0.0542547
0.0533486
0.0524198
0.0514171
0.0503419
0.0491123
0.0477779
0.0461581
0.0444258
0.0422288
0.0400161
0.056686
0.0566824
0.0563345