/*--------------------------------*- C++ -*----------------------------------*\
| =========                 |                                                 |
| \\      /  F ield         | OpenFOAM: The Open Source CFD Toolbox           |
|  \\    /   O peration     | Version:  v1912                                 |
|   \\  /    A nd           | Website:  www.openfoam.com                      |
|    \\/     M anipulation  |                                                 |
\*---------------------------------------------------------------------------*/
FoamFile
{
    version     2.0;
    format      ascii;
    class       pointVectorField;
    location    "0.34/fluid";
    object      pointMotionU;
}
// * * * * * * * * * * * * * * * * * * * * * * * * * * * * * * * * * * * * * //

dimensions      [0 1 -1 0 0 0 0];


internalField   nonuniform List<vector> 
16859
(
(0 0 0)
(0 0 0)
(0 0 0)
(0 0 0)
(0 0 0)
(0 0 0)
(0 0 0)
(0 0 0)
(0 0 0)
(0 0 0)
(0 0 0)
(0 0 0)
(0 0 0)
(0 0 0)
(0 0 0)
(0 0 0)
(2.94618e-08 5.05291e-08 2.75376e-08)
(0 0 0)
(7.18699e-10 -1.7662e-09 1.36215e-09)
(1.36878e-09 -3.3805e-09 2.65235e-09)
(1.9729e-09 -4.90821e-09 3.96159e-09)
(2.55124e-09 -6.39724e-09 5.36968e-09)
(3.12269e-09 -7.87632e-09 6.94943e-09)
(3.70687e-09 -9.35307e-09 8.76972e-09)
(4.32716e-09 -1.08087e-08 1.08968e-08)
(5.01588e-09 -1.21863e-08 1.33943e-08)
(5.82555e-09 -1.33691e-08 1.63233e-08)
(6.85366e-09 -1.41409e-08 1.97448e-08)
(8.29625e-09 -1.41103e-08 2.37311e-08)
(1.05753e-08 -1.2546e-08 2.84165e-08)
(1.45897e-08 -8.03962e-09 3.4152e-08)
(2.2077e-08 2.06108e-09 4.18305e-08)
(3.42026e-08 1.98122e-08 5.20494e-08)
(5.83424e-08 5.79132e-08 6.61126e-08)
(0 0 0)
(1.42433e-09 -3.48017e-09 2.69001e-09)
(2.71255e-09 -6.66354e-09 5.23744e-09)
(3.9092e-09 -9.67944e-09 7.82076e-09)
(5.05384e-09 -1.26235e-08 1.05961e-08)
(6.18382e-09 -1.55571e-08 1.37068e-08)
(7.3377e-09 -1.85031e-08 1.72889e-08)
(8.55982e-09 -2.14366e-08 2.14725e-08)
(9.9081e-09 -2.42655e-08 2.63815e-08)
(1.14697e-08 -2.6798e-08 3.21308e-08)
(1.33917e-08 -2.86889e-08 3.88212e-08)
(1.59428e-08 -2.93532e-08 4.65325e-08)
(1.96434e-08 -2.7839e-08 5.53379e-08)
(2.54412e-08 -2.27391e-08 6.53566e-08)
(3.47275e-08 -1.24791e-08 7.67717e-08)
(4.72001e-08 1.75727e-09 8.84913e-08)
(7.3935e-08 2.11257e-08 1.08477e-07)
(0 0 0)
(2.10425e-09 -5.08952e-09 3.95154e-09)
(4.00708e-09 -9.74986e-09 7.6921e-09)
(5.7737e-09 -1.41731e-08 1.14815e-08)
(7.462e-09 -1.85041e-08 1.55466e-08)
(9.12719e-09 -2.28425e-08 2.00973e-08)
(1.08257e-08 -2.72381e-08 2.53325e-08)
(1.26204e-08 -3.16798e-08 3.14435e-08)
(1.45882e-08 -3.60752e-08 3.86122e-08)
(1.68329e-08 -4.02181e-08 4.70057e-08)
(1.95047e-08 -4.37382e-08 5.67574e-08)
(2.28418e-08 -4.60327e-08 6.79375e-08)
(2.72412e-08 -4.62076e-08 8.05107e-08)
(3.33244e-08 -4.31614e-08 9.42867e-08)
(4.18729e-08 -3.6117e-08 1.08832e-07)
(5.22726e-08 -2.6761e-08 1.22307e-07)
(7.38129e-08 -1.38696e-08 1.41752e-07)
(0 0 0)
(2.74594e-09 -6.5408e-09 5.11707e-09)
(5.22813e-09 -1.25373e-08 9.95744e-09)
(7.53075e-09 -1.82424e-08 1.48536e-08)
(9.72882e-09 -2.38513e-08 2.0096e-08)
(1.18943e-08 -2.95072e-08 2.59535e-08)
(1.41008e-08 -3.52984e-08 3.26823e-08)
(1.64288e-08 -4.12483e-08 4.05298e-08)
(1.89722e-08 -4.73e-08 4.97345e-08)
(2.18459e-08 -5.32895e-08 6.05178e-08)
(2.51917e-08 -5.89059e-08 7.30591e-08)
(2.91901e-08 -6.36324e-08 8.74483e-08)
(3.40632e-08 -6.6693e-08 1.03599e-07)
(4.00416e-08 -6.7074e-08 1.21097e-07)
(4.7278e-08 -6.38191e-08 1.38958e-07)
(5.49969e-08 -5.75383e-08 1.54383e-07)
(7.18516e-08 -4.53927e-08 1.73555e-07)
(0 0 0)
(3.33768e-09 -7.78181e-09 6.16149e-09)
(6.35294e-09 -1.49252e-08 1.19835e-08)
(9.1466e-09 -2.17406e-08 1.78605e-08)
(1.1809e-08 -2.84727e-08 2.41369e-08)
(1.44275e-08 -3.5311e-08 3.1131e-08)
(1.7092e-08 -4.239e-08 3.91474e-08)
(1.99007e-08 -4.97837e-08 4.84819e-08)
(2.29678e-08 -5.74975e-08 5.94248e-08)
(2.64282e-08 -6.54541e-08 7.22552e-08)
(3.04409e-08 -7.34663e-08 8.72206e-08)
(3.51836e-08 -8.11895e-08 1.04492e-07)
(4.08237e-08 -8.80368e-08 1.24067e-07)
(4.74135e-08 -9.30321e-08 1.45559e-07)
(5.47011e-08 -9.46371e-08 1.6775e-07)
(6.1467e-08 -9.1538e-08 1.86789e-07)
(7.54665e-08 -7.78323e-08 2.07668e-07)
(0 0 0)
(3.86899e-09 -8.7631e-09 7.06527e-09)
(7.36108e-09 -1.68184e-08 1.37317e-08)
(1.05908e-08 -2.45273e-08 2.04432e-08)
(1.36612e-08 -3.21802e-08 2.75863e-08)
(1.66723e-08 -4.00112e-08 3.55174e-08)
(1.97283e-08 -4.82026e-08 4.45766e-08)
(2.29447e-08 -5.68851e-08 5.50962e-08)
(2.64583e-08 -6.61398e-08 6.74071e-08)
(3.04369e-08 -7.59986e-08 8.18406e-08)
(3.50911e-08 -8.64407e-08 9.87216e-08)
(4.0688e-08 -9.73768e-08 1.18351e-07)
(4.75511e-08 -1.08591e-07 1.40956e-07)
(5.59861e-08 -1.19562e-07 1.66519e-07)
(6.60232e-08 -1.28985e-07 1.94258e-07)
(7.60079e-08 -1.34038e-07 2.19718e-07)
(9.20935e-08 -1.21382e-07 2.47159e-07)
(0 0 0)
(4.33119e-09 -9.44071e-09 7.81544e-09)
(8.23588e-09 -1.81321e-08 1.51769e-08)
(1.18384e-08 -2.64764e-08 2.25637e-08)
(1.52508e-08 -3.48019e-08 3.03915e-08)
(1.8582e-08 -4.33806e-08 3.90406e-08)
(2.19457e-08 -5.24366e-08 4.88714e-08)
(2.54702e-08 -6.21524e-08 6.0235e-08)
(2.93108e-08 -7.26788e-08 7.34834e-08)
(3.36663e-08 -8.41492e-08 8.89769e-08)
(3.88058e-08 -9.67013e-08 1.07093e-07)
(4.51163e-08 -1.10508e-07 1.28242e-07)
(5.31778e-08 -1.25818e-07 1.52896e-07)
(6.38487e-08 -1.42979e-07 1.81569e-07)
(7.82451e-08 -1.62261e-07 2.14559e-07)
(9.54035e-08 -1.81536e-07 2.48116e-07)
(1.28509e-07 -2.04431e-07 2.93938e-07)
(0 0 0)
(4.71826e-09 -9.77907e-09 8.40664e-09)
(8.96628e-09 -1.87978e-08 1.63099e-08)
(1.28735e-08 -2.74857e-08 2.42097e-08)
(1.6556e-08 -3.61966e-08 3.25364e-08)
(2.01262e-08 -4.52296e-08 4.16791e-08)
(2.37008e-08 -5.48386e-08 5.20019e-08)
(2.74116e-08 -6.52429e-08 6.38542e-08)
(3.14187e-08 -7.66404e-08 7.75813e-08)
(3.59289e-08 -8.92274e-08 9.35334e-08)
(4.12274e-08 -1.03227e-07 1.12077e-07)
(4.77316e-08 -1.18937e-07 1.33619e-07)
(5.6075e-08 -1.36802e-07 1.58652e-07)
(6.72023e-08 -1.57503e-07 1.87787e-07)
(8.23375e-08 -1.8197e-07 2.21665e-07)
(1.00063e-07 -2.07914e-07 2.56452e-07)
(1.52371e-07 -2.62111e-07 3.2224e-07)
(0 0 0)
(0 0 0)
(0 0 0)
(0 0 0)
(0 0 0)
(0 0 0)
(0 0 0)
(0 0 0)
(0 0 0)
(0 0 0)
(0 0 0)
(0 0 0)
(0 0 0)
(0 0 0)
(0 0 0)
(0 0 0)
(1.26346e-08 2.45077e-08 1.24644e-08)
(0 0 0)
(7.0994e-10 -1.80273e-09 1.31972e-09)
(1.34999e-09 -3.45036e-09 2.56789e-09)
(1.94072e-09 -5.01019e-09 3.83137e-09)
(2.49993e-09 -6.53239e-09 5.18625e-09)
(3.04317e-09 -8.04794e-09 6.70129e-09)
(3.58498e-09 -9.56659e-09 8.44021e-09)
(4.14073e-09 -1.10727e-08 1.04626e-08)
(4.73016e-09 -1.2515e-08 1.28228e-08)
(5.38524e-09 -1.37875e-08 1.55676e-08)
(6.1694e-09 -1.46957e-08 1.87326e-08)
(7.22221e-09 -1.48936e-08 2.23403e-08)
(8.86225e-09 -1.37502e-08 2.64145e-08)
(1.17821e-08 -1.00795e-08 3.10387e-08)
(1.72562e-08 -1.78004e-09 3.64392e-08)
(2.60311e-08 1.26528e-08 4.2401e-08)
(3.51116e-08 3.18951e-08 4.51522e-08)
(0 0 0)
(1.40763e-09 -3.55142e-09 2.60587e-09)
(2.67677e-09 -6.79983e-09 5.07006e-09)
(3.84817e-09 -9.87886e-09 7.56324e-09)
(4.95687e-09 -1.28884e-08 1.02341e-08)
(6.03395e-09 -1.58935e-08 1.3218e-08)
(7.10844e-09 -1.89211e-08 1.66405e-08)
(8.21001e-09 -2.19516e-08 2.06191e-08)
(9.37352e-09 -2.49025e-08 2.52605e-08)
(1.06489e-08 -2.75999e-08 3.06538e-08)
(1.21234e-08 -2.9734e-08 3.68566e-08)
(1.39709e-08 -3.07936e-08 4.38727e-08)
(1.6557e-08 -2.99801e-08 5.16224e-08)
(2.05861e-08 -2.6191e-08 5.99158e-08)
(2.71061e-08 -1.84409e-08 6.83668e-08)
(3.60927e-08 -8.06267e-09 7.58512e-08)
(4.56769e-08 -2.73291e-09 8.2207e-08)
(0 0 0)
(2.08132e-09 -5.19265e-09 3.82764e-09)
(3.95805e-09 -9.94744e-09 7.44594e-09)
(5.6903e-09 -1.44628e-08 1.11034e-08)
(7.32991e-09 -1.88893e-08 1.50164e-08)
(8.9236e-09 -2.33314e-08 1.93821e-08)
(1.05152e-08 -2.7844e-08 2.43852e-08)
(1.21484e-08 -3.24223e-08 3.01988e-08)
(1.387e-08 -3.6985e-08 3.69813e-08)
(1.57354e-08 -4.13451e-08 4.48654e-08)
(1.78191e-08 -4.51711e-08 5.39336e-08)
(2.02399e-08 -4.79393e-08 6.41706e-08)
(2.32106e-08 -4.89149e-08 7.53896e-08)
(2.70988e-08 -4.73004e-08 8.71309e-08)
(3.24211e-08 -4.28565e-08 9.85237e-08)
(3.90244e-08 -3.73753e-08 1.0793e-07)
(4.47912e-08 -3.55866e-08 1.1437e-07)
(0 0 0)
(2.71917e-09 -6.67222e-09 4.95657e-09)
(5.17096e-09 -1.27894e-08 9.63903e-09)
(7.43365e-09 -1.86126e-08 1.43655e-08)
(9.57536e-09 -2.43436e-08 1.94124e-08)
(1.16585e-08 -3.01312e-08 2.50328e-08)
(1.37426e-08 -3.60689e-08 3.14645e-08)
(1.58871e-08 -4.21868e-08 3.89328e-08)
(1.81528e-08 -4.84372e-08 4.76471e-08)
(2.06019e-08 -5.46721e-08 5.77891e-08)
(2.32934e-08 -6.06119e-08 6.94826e-08)
(2.62745e-08 -6.58022e-08 8.27297e-08)
(2.95597e-08 -6.95885e-08 9.73034e-08)
(3.30909e-08 -7.11885e-08 1.12563e-07)
(3.67341e-08 -7.00592e-08 1.27165e-07)
(4.02071e-08 -6.69629e-08 1.38621e-07)
(4.25804e-08 -6.56335e-08 1.45216e-07)
(0 0 0)
(3.30981e-09 -7.93724e-09 5.96862e-09)
(6.29331e-09 -1.52237e-08 1.16013e-08)
(9.04527e-09 -2.2179e-08 1.72755e-08)
(1.1649e-08 -2.90553e-08 2.33186e-08)
(1.41823e-08 -3.60482e-08 3.00305e-08)
(1.67214e-08 -4.32974e-08 3.76943e-08)
(1.93442e-08 -5.0882e-08 4.65802e-08)
(2.2133e-08 -5.88138e-08 5.69453e-08)
(2.5173e-08 -6.70249e-08 6.90246e-08)
(2.85425e-08 -7.53455e-08 8.30039e-08)
(3.22879e-08 -8.34633e-08 9.89612e-08)
(3.63595e-08 -9.08494e-08 1.16752e-07)
(4.04759e-08 -9.66313e-08 1.35768e-07)
(4.39771e-08 -9.94557e-08 1.54456e-07)
(4.59636e-08 -9.81428e-08 1.69413e-07)
(4.53372e-08 -9.54987e-08 1.7778e-07)
(0 0 0)
(3.84264e-09 -8.93747e-09 6.84493e-09)
(7.30442e-09 -1.71534e-08 1.32955e-08)
(1.04942e-08 -2.50193e-08 1.97762e-08)
(1.35084e-08 -3.28336e-08 2.66548e-08)
(1.64388e-08 -4.08367e-08 3.42668e-08)
(1.93773e-08 -4.92157e-08 4.29289e-08)
(2.24221e-08 -5.81049e-08 5.29449e-08)
(2.56834e-08 -6.75879e-08 6.46097e-08)
(2.92875e-08 -7.76992e-08 7.82061e-08)
(3.3379e-08 -8.84213e-08 9.39901e-08)
(3.81154e-08 -9.96689e-08 1.12157e-07)
(4.36336e-08 -1.11228e-07 1.32764e-07)
(4.99329e-08 -1.22565e-07 1.55521e-07)
(5.65831e-08 -1.32308e-07 1.79196e-07)
(6.20434e-08 -1.37663e-07 1.99849e-07)
(6.01254e-08 -1.32286e-07 2.13566e-07)
(0 0 0)
(4.30853e-09 -9.62815e-09 7.57289e-09)
(8.18666e-09 -1.84922e-08 1.46971e-08)
(1.17538e-08 -2.70053e-08 2.18311e-08)
(1.51164e-08 -3.55039e-08 2.93699e-08)
(1.83765e-08 -4.42667e-08 3.7672e-08)
(2.16384e-08 -5.3522e-08 4.70732e-08)
(2.50172e-08 -6.34541e-08 5.78947e-08)
(2.86485e-08 -7.42133e-08 7.04505e-08)
(3.27019e-08 -8.59297e-08 8.50498e-08)
(3.74018e-08 -9.87339e-08 1.01995e-07)
(4.30639e-08 -1.12785e-07 1.21578e-07)
(5.01548e-08 -1.28309e-07 1.44065e-07)
(5.93692e-08 -1.45609e-07 1.69608e-07)
(7.16077e-08 -1.6483e-07 1.97811e-07)
(8.63578e-08 -1.84122e-07 2.2523e-07)
(9.85362e-08 -2.01198e-07 2.47316e-07)
(0 0 0)
(4.70082e-09 -9.97296e-09 8.14717e-09)
(8.92761e-09 -1.91704e-08 1.5797e-08)
(1.28058e-08 -2.8033e-08 2.34277e-08)
(1.64473e-08 -3.69234e-08 3.14483e-08)
(1.99591e-08 -4.61469e-08 4.02257e-08)
(2.34518e-08 -5.59612e-08 5.00989e-08)
(2.70478e-08 -6.65862e-08 6.13879e-08)
(3.08948e-08 -7.82168e-08 7.44002e-08)
(3.51822e-08 -9.10417e-08 8.94355e-08)
(4.01704e-08 -1.0527e-07 1.06786e-07)
(4.62407e-08 -1.21174e-07 1.26739e-07)
(5.3977e-08 -1.39153e-07 1.49579e-07)
(6.42744e-08 -1.59816e-07 1.75544e-07)
(7.83361e-08 -1.83887e-07 2.04528e-07)
(9.53088e-08 -2.09275e-07 2.32901e-07)
(1.28382e-07 -2.47761e-07 2.66289e-07)
(0 0 0)
(0 0 0)
(0 0 0)
(0 0 0)
(0 0 0)
(0 0 0)
(0 0 0)
(0 0 0)
(0 0 0)
(0 0 0)
(0 0 0)
(0 0 0)
(0 0 0)
(0 0 0)
(0 0 0)
(0 0 0)
(5.97101e-10 8.30551e-09 2.60592e-09)
(0 0 0)
(6.97565e-10 -1.83437e-09 1.22882e-09)
(1.32395e-09 -3.51122e-09 2.38975e-09)
(1.89692e-09 -5.09928e-09 3.56241e-09)
(2.43088e-09 -6.65022e-09 4.81604e-09)
(2.93684e-09 -8.19726e-09 6.21246e-09)
(3.42241e-09 -9.75331e-09 7.80734e-09)
(3.89205e-09 -1.13079e-08 9.65034e-09)
(4.34739e-09 -1.28199e-08 1.17826e-08)
(4.78911e-09 -1.42044e-08 1.42305e-08)
(5.22314e-09 -1.53133e-08 1.69929e-08)
(5.67702e-09 -1.59044e-08 2.00186e-08)
(6.22869e-09 -1.55922e-08 2.31625e-08)
(7.02431e-09 -1.3787e-08 2.61007e-08)
(8.15676e-09 -9.75998e-09 2.81376e-08)
(9.1032e-09 -3.72749e-09 2.80315e-08)
(5.8688e-09 1.9742e-09 1.89682e-08)
(0 0 0)
(1.38389e-09 -3.61303e-09 2.42624e-09)
(2.62688e-09 -6.91809e-09 4.71799e-09)
(3.7644e-09 -1.00518e-08 7.03185e-09)
(4.82523e-09 -1.31173e-08 9.50344e-09)
(5.83184e-09 -1.61833e-08 1.2254e-08)
(6.80036e-09 -1.92819e-08 1.53935e-08)
(7.7403e-09 -2.24018e-08 1.90202e-08)
(8.65379e-09 -2.54772e-08 2.32156e-08)
(9.53524e-09 -2.83681e-08 2.80316e-08)
(1.03745e-08 -3.08357e-08 3.3464e-08)
(1.11683e-08 -3.25194e-08 3.94014e-08)
(1.19397e-08 -3.29389e-08 4.55327e-08)
(1.27332e-08 -3.16228e-08 5.11824e-08)
(1.34696e-08 -2.86071e-08 5.50565e-08)
(1.35679e-08 -2.55092e-08 5.54469e-08)
(1.01846e-08 -2.77072e-08 4.81263e-08)
(0 0 0)
(2.04826e-09 -5.28151e-09 3.56376e-09)
(3.88861e-09 -1.01178e-08 6.92881e-09)
(5.57396e-09 -1.47118e-08 1.03234e-08)
(7.14773e-09 -1.92185e-08 1.39448e-08)
(8.64488e-09 -2.37467e-08 1.79698e-08)
(1.00921e-08 -2.83568e-08 2.25599e-08)
(1.15064e-08 -3.30532e-08 2.78609e-08)
(1.28922e-08 -3.77717e-08 3.39958e-08)
(1.42345e-08 -4.23606e-08 4.1047e-08)
(1.54896e-08 -4.656e-08 4.90187e-08)
(1.65716e-08 -4.99935e-08 5.7765e-08)
(1.73289e-08 -5.22187e-08 6.68645e-08)
(1.75029e-08 -5.29594e-08 7.54215e-08)
(1.66751e-08 -5.26753e-08 8.18367e-08)
(1.44771e-08 -5.30275e-08 8.41668e-08)
(8.00121e-09 -5.68021e-08 7.82626e-08)
(0 0 0)
(2.67956e-09 -6.78484e-09 4.61513e-09)
(5.08783e-09 -1.30051e-08 8.97013e-09)
(7.2947e-09 -1.89275e-08 1.33574e-08)
(9.35844e-09 -2.4759e-08 1.80287e-08)
(1.13279e-08 -3.06526e-08 2.32111e-08)
(1.32433e-08 -3.67063e-08 2.91129e-08)
(1.51341e-08 -4.29569e-08 3.59246e-08)
(1.70142e-08 -4.93695e-08 4.38112e-08)
(1.88694e-08 -5.58221e-08 5.28927e-08)
(2.06331e-08 -6.2088e-08 6.3201e-08)
(2.21399e-08 -6.78237e-08 7.45959e-08)
(2.30407e-08 -7.25965e-08 8.66182e-08)
(2.26858e-08 -7.60367e-08 9.82459e-08)
(2.01235e-08 -7.82301e-08 1.07594e-07)
(1.50267e-08 -8.0087e-08 1.12172e-07)
(5.30754e-09 -8.42208e-08 1.07363e-07)
(0 0 0)
(3.26679e-09 -8.06944e-09 5.55803e-09)
(6.20307e-09 -1.54767e-08 1.07975e-08)
(8.89472e-09 -2.2548e-08 1.60651e-08)
(1.14147e-08 -2.95408e-08 2.16592e-08)
(1.38269e-08 -3.6654e-08 2.78488e-08)
(1.61875e-08 -4.40298e-08 3.48823e-08)
(1.85447e-08 -5.17498e-08 4.29889e-08)
(2.09339e-08 -5.98304e-08 5.23729e-08)
(2.33652e-08 -6.82131e-08 6.3196e-08)
(2.57931e-08 -7.67506e-08 7.55352e-08)
(2.80535e-08 -8.51809e-08 8.92996e-08)
(2.97314e-08 -9.30898e-08 1.04073e-07)
(2.99393e-08 -9.98661e-08 1.18829e-07)
(2.71661e-08 -1.04717e-07 1.31496e-07)
(2.04533e-08 -1.07081e-07 1.38949e-07)
(7.43306e-09 -1.09937e-07 1.35921e-07)
(0 0 0)
(3.79929e-09 -9.08466e-09 6.37499e-09)
(7.21352e-09 -1.7435e-08 1.23761e-08)
(1.03427e-08 -2.54294e-08 1.83935e-08)
(1.32734e-08 -3.33716e-08 2.47619e-08)
(1.60838e-08 -4.15043e-08 3.17825e-08)
(1.88474e-08 -5.00144e-08 3.97335e-08)
(2.16347e-08 -5.90337e-08 4.8873e-08)
(2.45133e-08 -6.86409e-08 5.94361e-08)
(2.75412e-08 -7.88615e-08 7.1621e-08)
(3.07493e-08 -8.96647e-08 8.5554e-08)
(3.40962e-08 -1.00944e-07 1.01217e-07)
(3.73557e-08 -1.1246e-07 1.18298e-07)
(3.98794e-08 -1.23676e-07 1.35881e-07)
(4.02222e-08 -1.33386e-07 1.51862e-07)
(3.6538e-08 -1.39398e-07 1.6247e-07)
(2.15972e-08 -1.37393e-07 1.62171e-07)
(0 0 0)
(4.26754e-09 -9.7853e-09 7.05421e-09)
(8.10068e-09 -1.87928e-08 1.36833e-08)
(1.16106e-08 -2.74427e-08 2.03084e-08)
(1.48946e-08 -3.60764e-08 2.72894e-08)
(1.80429e-08 -4.49737e-08 3.4948e-08)
(2.11437e-08 -5.43604e-08 4.35793e-08)
(2.42882e-08 -6.44141e-08 5.34565e-08)
(2.75761e-08 -7.52714e-08 6.48296e-08)
(3.11195e-08 -8.70379e-08 7.79158e-08)
(3.50461e-08 -9.98001e-08 9.28714e-08)
(3.9497e-08 -1.13635e-07 1.09733e-07)
(4.46021e-08 -1.28605e-07 1.28288e-07)
(5.03998e-08 -1.447e-07 1.47766e-07)
(5.65837e-08 -1.61502e-07 1.66129e-07)
(6.17922e-08 -1.76792e-07 1.78987e-07)
(5.99093e-08 -1.88372e-07 1.78141e-07)
(0 0 0)
(4.66425e-09 -1.01346e-08 7.59064e-09)
(8.85076e-09 -1.94797e-08 1.47104e-08)
(1.26777e-08 -2.84829e-08 2.17983e-08)
(1.62491e-08 -3.75114e-08 2.9227e-08)
(1.9662e-08 -4.68708e-08 3.73261e-08)
(2.30136e-08 -5.68148e-08 4.63939e-08)
(2.64078e-08 -6.75532e-08 5.67021e-08)
(2.99633e-08 -7.92621e-08 6.84954e-08)
(3.3825e-08 -9.20958e-08 8.19821e-08)
(3.8178e-08 -1.06202e-07 9.73083e-08)
(4.32669e-08 -1.2174e-07 1.14506e-07)
(4.94086e-08 -1.38887e-07 1.33379e-07)
(5.69728e-08 -1.57813e-07 1.53232e-07)
(6.61853e-08 -1.78403e-07 1.72266e-07)
(7.56808e-08 -1.97966e-07 1.86097e-07)
(9.17223e-08 -2.21898e-07 1.83162e-07)
(0 0 0)
(0 0 0)
(0 0 0)
(0 0 0)
(0 0 0)
(0 0 0)
(0 0 0)
(0 0 0)
(0 0 0)
(0 0 0)
(0 0 0)
(0 0 0)
(0 0 0)
(0 0 0)
(0 0 0)
(0 0 0)
(-4.21625e-09 1.72526e-09 2.3762e-09)
(0 0 0)
(6.83016e-10 -1.86058e-09 1.09405e-09)
(1.29356e-09 -3.56151e-09 2.12663e-09)
(1.84629e-09 -5.1728e-09 3.16768e-09)
(2.35186e-09 -6.74748e-09 4.2774e-09)
(2.8162e-09 -8.32066e-09 5.50844e-09)
(3.23951e-09 -9.90822e-09 6.90671e-09)
(3.61484e-09 -1.15051e-08 8.51081e-09)
(3.92552e-09 -1.30812e-08 1.03484e-08)
(4.14161e-09 -1.4574e-08 1.24275e-08)
(4.21578e-09 -1.58818e-08 1.47205e-08)
(4.07906e-09 -1.68588e-08 1.71341e-08)
(3.62967e-09 -1.7317e-08 1.94554e-08)
(2.68889e-09 -1.70495e-08 2.1263e-08)
(8.98618e-10 -1.59212e-08 2.18207e-08)
(-2.09568e-09 -1.41794e-08 2.03446e-08)
(-6.62897e-09 -1.10181e-08 1.57052e-08)
(0 0 0)
(1.35596e-09 -3.66404e-09 2.1602e-09)
(2.56859e-09 -7.0159e-09 4.19868e-09)
(3.6674e-09 -1.01946e-08 6.25295e-09)
(4.67412e-09 -1.33057e-08 8.44087e-09)
(5.60166e-09 -1.64211e-08 1.08658e-08)
(6.45235e-09 -1.95777e-08 1.36184e-08)
(7.21474e-09 -2.27729e-08 1.67756e-08)
(7.85792e-09 -2.59584e-08 2.03929e-08)
(8.32264e-09 -2.90291e-08 2.44882e-08)
(8.50983e-09 -3.18169e-08 2.90113e-08)
(8.26762e-09 -3.40979e-08 3.37872e-08)
(7.37513e-09 -3.56405e-08 3.84224e-08)
(5.52646e-09 -3.63519e-08 4.21726e-08)
(2.38764e-09 -3.65677e-08 4.38704e-08)
(-1.80705e-09 -3.71614e-08 4.26086e-08)
(-5.72201e-09 -4.00695e-08 3.99114e-08)
(0 0 0)
(2.00914e-09 -5.35499e-09 3.17326e-09)
(3.80706e-09 -1.02584e-08 6.16668e-09)
(5.43848e-09 -1.49166e-08 9.18071e-09)
(6.93716e-09 -1.94874e-08 1.23867e-08)
(8.32515e-09 -2.40834e-08 1.59353e-08)
(9.61059e-09 -2.87696e-08 1.99602e-08)
(1.0783e-08 -3.35591e-08 2.4576e-08)
(1.1804e-08 -3.8405e-08 2.98682e-08)
(1.25918e-08 -4.31903e-08 3.58717e-08)
(1.2997e-08 -4.77236e-08 4.25306e-08)
(1.277e-08 -5.17568e-08 4.96253e-08)
(1.15214e-08 -5.50634e-08 5.6663e-08)
(8.71782e-09 -5.76504e-08 6.275e-08)
(3.90242e-09 -6.00843e-08 6.65885e-08)
(-2.24405e-09 -6.32214e-08 6.7232e-08)
(-8.25242e-09 -6.77413e-08 6.64296e-08)
(0 0 0)
(2.6322e-09 -6.87766e-09 4.10992e-09)
(4.9892e-09 -1.31824e-08 7.98447e-09)
(7.13114e-09 -1.91848e-08 1.18802e-08)
(9.10496e-09 -2.5095e-08 1.60161e-08)
(1.09446e-08 -3.10688e-08 2.05854e-08)
(1.26689e-08 -3.72072e-08 2.57611e-08)
(1.42764e-08 -4.35523e-08 3.16934e-08)
(1.57338e-08 -5.00798e-08 3.8499e-08)
(1.69549e-08 -5.66904e-08 4.62374e-08)
(1.77634e-08 -6.32034e-08 5.48646e-08)
(1.78333e-08 -6.93629e-08 6.41533e-08)
(1.65995e-08 -7.48852e-08 7.35743e-08)
(1.32067e-08 -7.9604e-08 8.21623e-08)
(6.79424e-09 -8.37106e-08 8.85011e-08)
(-1.85195e-09 -8.76093e-08 9.13442e-08)
(-1.0484e-08 -9.22499e-08 9.2246e-08)
(0 0 0)
(3.2145e-09 -8.17791e-09 4.95037e-09)
(6.0943e-09 -1.56836e-08 9.61247e-09)
(8.7147e-09 -2.28471e-08 1.42906e-08)
(1.11366e-08 -2.99288e-08 1.92439e-08)
(1.34082e-08 -3.71291e-08 2.47019e-08)
(1.55636e-08 -4.45899e-08 3.08707e-08)
(1.76195e-08 -5.23922e-08 3.79318e-08)
(1.95638e-08 -6.0552e-08 4.60307e-08)
(2.13351e-08 -6.90139e-08 5.52542e-08)
(2.27815e-08 -7.76402e-08 6.55825e-08)
(2.35832e-08 -8.61937e-08 7.68057e-08)
(2.31204e-08 -9.43128e-08 8.83964e-08)
(2.03191e-08 -1.01483e-07 9.93517e-08)
(1.37912e-08 -1.07026e-07 1.08126e-07)
(3.71863e-09 -1.10267e-07 1.13116e-07)
(-7.81751e-09 -1.12692e-07 1.15797e-07)
(0 0 0)
(3.74538e-09 -9.20476e-09 5.67897e-09)
(7.10148e-09 -1.76637e-08 1.10197e-08)
(1.01577e-08 -2.57591e-08 1.63645e-08)
(1.29885e-08 -3.37966e-08 2.20042e-08)
(1.56568e-08 -4.20187e-08 2.81959e-08)
(1.82151e-08 -5.06084e-08 3.51707e-08)
(2.07038e-08 -5.969e-08 4.31327e-08)
(2.3146e-08 -6.93297e-08 5.22497e-08)
(2.5533e-08 -7.95333e-08 6.26309e-08)
(2.77955e-08 -9.02384e-08 7.42801e-08)
(2.97417e-08 -1.01289e-07 8.70105e-08)
(3.09357e-08 -1.12372e-07 1.00304e-07)
(3.05093e-08 -1.22856e-07 1.13105e-07)
(2.70702e-08 -1.31488e-07 1.23658e-07)
(1.99106e-08 -1.36255e-07 1.2992e-07)
(6.82375e-09 -1.32223e-07 1.3394e-07)
(0 0 0)
(4.21495e-09 -9.91277e-09 6.28517e-09)
(7.99148e-09 -1.90353e-08 1.21859e-08)
(1.14306e-08 -2.77913e-08 1.80716e-08)
(1.46185e-08 -3.65236e-08 2.42551e-08)
(1.76309e-08 -4.55096e-08 3.10109e-08)
(2.05373e-08 -5.49681e-08 3.85845e-08)
(2.34022e-08 -6.50632e-08 4.71917e-08)
(2.62857e-08 -7.59083e-08 5.70102e-08)
(2.92409e-08 -8.75701e-08 6.81584e-08)
(3.23053e-08 -1.00069e-07 8.06501e-08)
(3.54786e-08 -1.13366e-07 9.43067e-08)
(3.86746e-08 -1.27332e-07 1.08601e-07)
(4.16517e-08 -1.4164e-07 1.22392e-07)
(4.39709e-08 -1.55492e-07 1.33568e-07)
(4.51757e-08 -1.66843e-07 1.39333e-07)
(4.45171e-08 -1.73651e-07 1.40841e-07)
(0 0 0)
(4.61531e-09 -1.02651e-08 6.76444e-09)
(8.74923e-09 -1.97277e-08 1.31032e-08)
(1.25107e-08 -2.8839e-08 1.94016e-08)
(1.59935e-08 -3.79666e-08 2.59833e-08)
(1.92825e-08 -4.74123e-08 3.313e-08)
(2.24586e-08 -5.74207e-08 4.10901e-08)
(2.56029e-08 -6.81843e-08 5.00782e-08)
(2.88016e-08 -7.98491e-08 6.02668e-08)
(3.21501e-08 -9.25195e-08 7.17655e-08)
(3.5758e-08 -1.06259e-07 8.45762e-08)
(3.97486e-08 -1.21082e-07 9.85067e-08)
(4.42461e-08 -1.36928e-07 1.13018e-07)
(4.9348e-08 -1.53582e-07 1.26959e-07)
(5.50622e-08 -1.70461e-07 1.38213e-07)
(6.07159e-08 -1.85206e-07 1.43791e-07)
(7.44336e-08 -2.03536e-07 1.39582e-07)
(0 0 0)
(0 0 0)
(0 0 0)
(0 0 0)
(0 0 0)
(0 0 0)
(0 0 0)
(0 0 0)
(0 0 0)
(0 0 0)
(0 0 0)
(0 0 0)
(0 0 0)
(0 0 0)
(0 0 0)
(0 0 0)
(-5.85847e-09 -4.41637e-10 2.98994e-09)
(0 0 0)
(6.68002e-10 -1.88117e-09 9.21229e-10)
(1.26235e-09 -3.60098e-09 1.78998e-09)
(1.79464e-09 -5.23043e-09 2.66441e-09)
(2.27193e-09 -6.82365e-09 3.59406e-09)
(2.69534e-09 -8.41712e-09 4.62126e-09)
(3.05846e-09 -1.0029e-08 5.78164e-09)
(3.34477e-09 -1.16587e-08 7.10335e-09)
(3.52345e-09 -1.32846e-08 8.60323e-09)
(3.54319e-09 -1.48612e-08 1.02786e-08)
(3.32456e-09 -1.63185e-08 1.20934e-08)
(2.75198e-09 -1.75673e-08 1.39557e-08)
(1.66146e-09 -1.85113e-08 1.56867e-08)
(-1.78908e-10 -1.90605e-08 1.69945e-08)
(-3.05818e-09 -1.9118e-08 1.75132e-08)
(-6.86733e-09 -1.85414e-08 1.70855e-08)
(-1.09374e-08 -1.53347e-08 1.51274e-08)
(0 0 0)
(1.32711e-09 -3.70427e-09 1.81919e-09)
(2.50867e-09 -7.09292e-09 3.53445e-09)
(3.56832e-09 -1.03067e-08 5.2601e-09)
(4.52093e-09 -1.34529e-08 7.09304e-09)
(5.37044e-09 -1.66058e-08 9.11635e-09)
(6.10686e-09 -1.98057e-08 1.14007e-08)
(6.70122e-09 -2.30571e-08 1.40023e-08)
(7.09715e-09 -2.63248e-08 1.69557e-08)
(7.19846e-09 -2.95296e-08 2.02581e-08)
(6.85449e-09 -3.25503e-08 2.3844e-08)
(5.8475e-09 -3.52405e-08 2.75446e-08)
(3.89277e-09 -3.74757e-08 3.10355e-08)
(6.98919e-10 -3.92432e-08 3.38034e-08)
(-3.76198e-09 -4.07281e-08 3.5246e-08)
(-8.44276e-09 -4.21239e-08 3.51995e-08)
(-1.11503e-08 -4.42758e-08 3.49649e-08)
(0 0 0)
(1.96862e-09 -5.41304e-09 2.67273e-09)
(3.72296e-09 -1.03693e-08 5.19192e-09)
(5.29955e-09 -1.5077e-08 7.72408e-09)
(6.72274e-09 -1.96963e-08 1.04099e-08)
(8.00244e-09 -2.43418e-08 1.33708e-08)
(9.1303e-09 -2.90818e-08 1.6711e-08)
(1.00727e-08 -3.39357e-08 2.05151e-08)
(1.07588e-08 -3.88688e-08 2.48371e-08)
(1.10615e-08 -4.37876e-08 2.96813e-08)
(1.07738e-08 -4.85431e-08 3.49689e-08)
(9.58366e-09 -5.29534e-08 4.04876e-08)
(7.07016e-09 -5.68719e-08 4.58374e-08)
(2.81028e-09 -6.03297e-08 5.04187e-08)
(-3.1764e-09 -6.36846e-08 5.35948e-08)
(-9.32706e-09 -6.72224e-08 5.51935e-08)
(-1.34746e-08 -7.11315e-08 5.64788e-08)
(0 0 0)
(2.58286e-09 -6.9509e-09 3.46226e-09)
(4.88687e-09 -1.33218e-08 6.72351e-09)
(6.96235e-09 -1.93853e-08 9.99679e-09)
(8.84511e-09 -2.53533e-08 1.34618e-08)
(1.05549e-08 -3.1383e-08 1.72744e-08)
(1.20917e-08 -3.75766e-08 2.15698e-08)
(1.3428e-08 -4.39782e-08 2.64592e-08)
(1.44946e-08 -5.05691e-08 3.20177e-08)
(1.5158e-08 -5.72616e-08 3.82626e-08)
(1.51863e-08 -6.38972e-08 4.51154e-08)
(1.42026e-08 -7.02537e-08 5.23477e-08)
(1.16464e-08 -7.60829e-08 5.95262e-08)
(6.84629e-09 -8.12077e-08 6.60136e-08)
(-4.83146e-10 -8.56547e-08 7.11366e-08)
(-8.68811e-09 -8.94762e-08 7.45353e-08)
(-1.50139e-08 -9.33321e-08 7.72637e-08)
(0 0 0)
(3.15954e-09 -8.26322e-09 4.17099e-09)
(5.98041e-09 -1.58454e-08 8.09577e-09)
(8.52721e-09 -2.30784e-08 1.20269e-08)
(1.08489e-08 -3.02237e-08 1.61771e-08)
(1.29785e-08 -3.74811e-08 2.07315e-08)
(1.49307e-08 -4.49903e-08 2.58516e-08)
(1.6695e-08 -5.28285e-08 3.16714e-08)
(1.82237e-08 -6.10063e-08 3.82855e-08)
(1.94093e-08 -6.94615e-08 4.57254e-08)
(2.00478e-08 -7.8048e-08 5.39194e-08)
(1.97789e-08 -8.65164e-08 6.2633e-08)
(1.80057e-08 -9.44825e-08 7.14078e-08)
(1.3872e-08 -1.01382e-07 7.95581e-08)
(6.61105e-09 -1.06436e-07 8.63315e-08)
(-2.72094e-09 -1.08871e-07 9.11886e-08)
(-1.16245e-08 -1.10002e-07 9.51662e-08)
(0 0 0)
(3.68799e-09 -9.29872e-09 4.7857e-09)
(6.98272e-09 -1.78414e-08 9.28256e-09)
(9.96261e-09 -2.60117e-08 1.37745e-08)
(1.26901e-08 -3.41154e-08 1.85005e-08)
(1.52134e-08 -4.23922e-08 2.36679e-08)
(1.75654e-08 -5.1019e-08 2.94577e-08)
(1.97611e-08 -6.01094e-08 3.60206e-08)
(2.17894e-08 -6.97122e-08 4.34649e-08)
(2.35988e-08 -7.98061e-08 5.18323e-08)
(2.50713e-08 -9.0287e-08 6.10541e-08)
(2.59763e-08 -1.00935e-07 7.08836e-08)
(2.58977e-08 -1.11342e-07 8.08163e-08)
(2.41705e-08 -1.20766e-07 9.00538e-08)
(2.00111e-08 -1.27881e-07 9.764e-08)
(1.3624e-08 -1.30887e-07 1.0286e-07)
(3.43153e-09 -1.25277e-07 1.07326e-07)
(0 0 0)
(4.15804e-09 -1.00119e-08 5.29747e-09)
(7.87388e-09 -1.92224e-08 1.02667e-08)
(1.12379e-08 -2.80562e-08 1.52143e-08)
(1.43248e-08 -3.68549e-08 2.03969e-08)
(1.71965e-08 -4.58913e-08 2.60364e-08)
(1.99045e-08 -5.53747e-08 3.2325e-08)
(2.249e-08 -6.54521e-08 3.94216e-08)
(2.49823e-08 -7.62096e-08 4.74395e-08)
(2.73955e-08 -8.767e-08 5.64215e-08)
(2.97216e-08 -9.9784e-08 6.62924e-08)
(3.19186e-08 -1.12407e-07 7.67817e-08)
(3.3899e-08 -1.25253e-07 8.73162e-08)
(3.55655e-08 -1.37815e-07 9.69209e-08)
(3.69852e-08 -1.49218e-07 1.04257e-07)
(3.85909e-08 -1.57913e-07 1.08205e-07)
(4.04038e-08 -1.62824e-07 1.10508e-07)
(0 0 0)
(4.56126e-09 -1.03659e-08 5.70246e-09)
(8.6377e-09 -1.9918e-08 1.10417e-08)
(1.23284e-08 -2.91076e-08 1.63372e-08)
(1.57166e-08 -3.83003e-08 2.18551e-08)
(1.88749e-08 -4.7792e-08 2.7823e-08)
(2.18684e-08 -5.7815e-08 3.44356e-08)
(2.47579e-08 -6.85413e-08 4.18507e-08)
(2.76029e-08 -8.00832e-08 5.01766e-08)
(3.0465e-08 -9.24921e-08 5.94466e-08)
(3.34129e-08 -1.05749e-07 6.95709e-08)
(3.65274e-08 -1.19745e-07 8.02547e-08)
(3.99126e-08 -1.34249e-07 9.08807e-08)
(4.37408e-08 -1.48861e-07 1.00386e-07)
(4.83537e-08 -1.62958e-07 1.07262e-07)
(5.37756e-08 -1.74878e-07 1.10144e-07)
(6.92855e-08 -1.91295e-07 1.07647e-07)
(0 0 0)
(0 0 0)
(0 0 0)
(0 0 0)
(0 0 0)
(0 0 0)
(0 0 0)
(0 0 0)
(0 0 0)
(0 0 0)
(0 0 0)
(0 0 0)
(0 0 0)
(0 0 0)
(0 0 0)
(0 0 0)
(-6.2662e-09 -1.00205e-09 2.79922e-09)
(0 0 0)
(6.54207e-10 -1.89625e-09 7.17423e-10)
(1.23378e-09 -3.62975e-09 1.39345e-09)
(1.74766e-09 -5.27259e-09 2.07299e-09)
(2.19979e-09 -6.87959e-09 2.79389e-09)
(2.58736e-09 -8.48768e-09 3.58766e-09)
(2.89892e-09 -1.01165e-08 4.48001e-09)
(3.11135e-09 -1.17684e-08 5.49018e-09)
(3.18535e-09 -1.34271e-08 6.62773e-09)
(3.05952e-09 -1.50564e-08 7.88632e-09)
(2.64468e-09 -1.66017e-08 9.23461e-09)
(1.82019e-09 -1.79944e-08 1.06043e-08)
(4.3337e-10 -1.91578e-08 1.18791e-08)
(-1.69592e-09 -1.99947e-08 1.29009e-08)
(-4.72829e-09 -2.03189e-08 1.35272e-08)
(-8.38796e-09 -1.97883e-08 1.3732e-08)
(-1.18712e-08 -1.61985e-08 1.27474e-08)
(0 0 0)
(1.3006e-09 -3.73397e-09 1.41692e-09)
(2.45381e-09 -7.14975e-09 2.75196e-09)
(3.47809e-09 -1.03894e-08 4.09322e-09)
(4.38243e-09 -1.35611e-08 5.51456e-09)
(5.16346e-09 -1.67402e-08 7.07794e-09)
(5.80176e-09 -1.99693e-08 8.83456e-09)
(6.25632e-09 -2.3257e-08 1.08231e-08)
(6.4557e-09 -2.65761e-08 1.30632e-08)
(6.28711e-09 -2.98609e-08 1.55446e-08)
(5.5867e-09 -3.30109e-08 1.82096e-08)
(4.13851e-09 -3.59046e-08 2.09322e-08)
(1.70138e-09 -3.84285e-08 2.34978e-08)
(-1.88164e-09 -4.05183e-08 2.56134e-08)
(-6.36579e-09 -4.21649e-08 2.70001e-08)
(-1.04693e-08 -4.32914e-08 2.75911e-08)
(-1.20491e-08 -4.46107e-08 2.78788e-08)
(0 0 0)
(1.93132e-09 -5.45624e-09 2.08209e-09)
(3.6458e-09 -1.04516e-08 4.04326e-09)
(5.17272e-09 -1.51956e-08 6.01166e-09)
(6.52833e-09 -1.98492e-08 8.09437e-09)
(7.7126e-09 -2.45279e-08 1.03821e-08)
(8.70465e-09 -2.93019e-08 1.29506e-08)
(9.45502e-09 -3.41935e-08 1.58581e-08)
(9.87384e-09 -3.9174e-08 1.91365e-08)
(9.81533e-09 -4.41604e-08 2.27764e-08)
(9.06205e-09 -4.90189e-08 2.6706e-08)
(7.31949e-09 -5.35812e-08 3.07652e-08)
(4.25143e-09 -5.76905e-08 3.46863e-08)
(-3.53992e-10 -6.12972e-08 3.81257e-08)
(-6.1165e-09 -6.45535e-08 4.07928e-08)
(-1.12817e-08 -6.75647e-08 4.25878e-08)
(-1.39239e-08 -7.06127e-08 4.38655e-08)
(0 0 0)
(2.53728e-09 -7.00561e-09 2.69766e-09)
(4.79264e-09 -1.34255e-08 5.23699e-09)
(6.8076e-09 -1.95331e-08 7.78177e-09)
(8.60841e-09 -2.55408e-08 1.04687e-08)
(1.02033e-08 -3.16058e-08 1.34144e-08)
(1.15776e-08 -3.78301e-08 1.67174e-08)
(1.26861e-08 -4.42573e-08 2.04544e-08)
(1.34393e-08 -5.08684e-08 2.467e-08)
(1.36857e-08 -5.75767e-08 2.93604e-08)
(1.31887e-08 -6.42241e-08 3.44487e-08)
(1.16057e-08 -7.05809e-08 3.9756e-08)
(8.49577e-09 -7.63684e-08 4.49849e-08)
(3.45395e-09 -8.13251e-08 4.97675e-08)
(-3.39795e-09 -8.53212e-08 5.37954e-08)
(-1.02793e-08 -8.83577e-08 5.68304e-08)
(-1.48364e-08 -9.12598e-08 5.90523e-08)
(0 0 0)
(3.10849e-09 -8.32688e-09 3.25045e-09)
(5.87493e-09 -1.59654e-08 6.30693e-09)
(8.35431e-09 -2.32478e-08 9.36344e-09)
(1.05852e-08 -3.04352e-08 1.25819e-08)
(1.25883e-08 -3.7726e-08 1.6101e-08)
(1.4363e-08 -4.52562e-08 2.00382e-08)
(1.58806e-08 -5.30972e-08 2.4486e-08)
(1.70734e-08 -6.12507e-08 2.95006e-08)
(1.78176e-08 -6.96415e-08 3.50836e-08)
(1.79095e-08 -7.81034e-08 4.11554e-08)
(1.70334e-08 -8.63548e-08 4.75192e-08)
(1.47314e-08 -9.39604e-08 5.38425e-08)