/*--------------------------------*- C++ -*----------------------------------*\
| =========                 |                                                 |
| \\      /  F ield         | OpenFOAM: The Open Source CFD Toolbox           |
|  \\    /   O peration     | Version:  v1912                                 |
|   \\  /    A nd           | Website:  www.openfoam.com                      |
|    \\/     M anipulation  |                                                 |
\*---------------------------------------------------------------------------*/
FoamFile
{
    version     2.0;
    format      ascii;
    class       volScalarField;
    location    "0.34/fluid";
    object      T;
}
// * * * * * * * * * * * * * * * * * * * * * * * * * * * * * * * * * * * * * //

dimensions      [0 0 0 1 0 0 0];


internalField   nonuniform List<scalar> 
14592
(
273.149
273.459
273.795
274.169
274.596
275.091
275.667
276.343
277.134
278.061
279.143
280.405
281.876
283.599
285.652
288.23
273.148
273.455
273.787
274.158
274.582
275.072
275.644
276.314
277.099
278.019
279.094
280.35
281.817
283.538
285.592
288.159
273.146
273.448
273.775
274.141
274.557
275.04
275.602
276.262
277.035
277.942
279.004
280.247
281.704
283.423
285.485
288.077
273.143
273.439
273.759
274.116
274.524
274.995
275.545
276.19
276.945
277.833
278.873
280.095
281.535
283.247
285.32
287.958
273.139
273.427
273.739
274.087
274.482
274.94
275.473
276.098
276.831
277.691
278.702
279.892
281.303
282.995
285.076
287.775
273.135
273.414
273.716
274.052
274.434
274.875
275.389
275.989
276.693
277.519
278.489
279.634
280.997
282.647
284.714
287.478
273.13
273.399
273.69
274.013
274.38
274.802
275.293
275.866
276.536
277.319
278.238
279.321
280.61
282.178
284.173
286.954
273.125
273.383
273.662
273.971
274.322
274.724
275.19
275.732
276.363
277.098
277.955
278.959
280.143
281.572
283.378
285.939
273.156
273.478
273.828
274.22
274.667
275.186
275.794
276.508
277.347
278.334
279.491
280.846
282.432
284.296
286.51
289.205
273.154
273.474
273.82
274.208
274.652
275.167
275.769
276.477
277.31
278.29
279.44
280.788
282.371
284.235
286.453
289.149
273.152
273.466
273.808
274.19
274.626
275.133
275.726
276.423
277.243
278.209
279.345
280.681
282.255
284.118
286.349
289.077
273.149
273.457
273.791
274.164
274.591
275.086
275.666
276.347
277.149
278.094
279.209
280.524
282.081
283.94
286.189
288.972
273.145
273.445
273.77
274.133
274.548
275.028
275.59
276.251
277.028
277.946
279.028
280.311
281.839
283.682
285.947
288.805
273.141
273.431
273.745
274.097
274.497
274.96
275.501
276.136
276.883
277.764
278.804
280.039
281.518
283.321
285.581
288.525
273.135
273.415
273.718
274.056
274.44
274.884
275.401
276.006
276.717
277.553
278.538
279.706
281.107
282.826
285.02
288.007
273.13
273.399
273.689
274.012
274.379
274.801
275.292
275.865
276.534
277.317
278.236
279.319
280.607
282.176
284.171
286.953
273.161
273.496
273.859
274.266
274.732
275.274
275.91
276.658
277.539
278.577
279.794
281.22
282.884
284.823
287.079
289.695
273.16
273.491
273.851
274.255
274.717
275.254
275.884
276.626
277.501
278.531
279.741
281.161
282.822
284.761
287.023
289.644
273.158
273.484
273.838
274.235
274.69
275.219
275.839
276.569
277.431
278.447
279.644
281.051
282.703
284.644
286.922
289.577
273.154
273.474
273.821
274.209
274.654
275.17
275.776
276.49
277.333
278.328
279.502
280.888
282.525
284.464
286.763
289.477
273.15
273.461
273.799
274.176
274.608
275.11
275.698
276.39
277.207
278.173
279.314
280.667
282.275
284.201
286.521
289.315
273.146
273.447
273.773
274.138
274.555
275.039
275.604
276.27
277.055
277.983
279.08
280.383
281.943
283.83
286.15
289.039
273.14
273.43
273.745
274.096
274.496
274.959
275.499
276.134
276.881
277.761
278.801
280.036
281.515
283.318
285.578
288.524
273.135
273.413
273.715
274.05
274.432
274.873
275.386
275.986
276.689
277.514
278.484
279.629
280.991
282.642
284.709
287.475
273.167
273.511
273.887
274.308
274.79
275.352
276.011
276.788
277.704
278.782
280.047
281.522
283.233
285.203
287.447
289.96
273.165
273.507
273.879
274.296
274.774
275.331
275.985
276.755
277.665
278.735
279.992
281.461
283.17
285.141
287.393
289.912
273.163
273.499
273.865
274.276
274.746
275.294
275.938
276.697
277.593
278.649
279.892
281.349
283.049
285.024
287.292
289.846
273.159
273.489
273.847
274.248
274.709
275.244
275.873
276.615
277.491
278.526
279.746
281.181
282.867
284.841
287.133
289.747
273.155
273.476
273.824
274.215
274.662
275.182
275.792
276.511
277.361
278.365
279.552
280.954
282.612
284.574
286.89
289.587
273.15
273.461
273.798
274.175
274.607
275.108
275.695
276.387
277.204
278.169
279.31
280.662
282.271
284.197
286.517
289.313
273.145
273.444
273.769
274.131
274.545
275.025
275.586
276.246
277.023
277.939
279.021
280.303
281.832
283.675
285.941
288.802
273.139
273.426
273.737
274.084
274.479
274.936
275.468
276.092
276.823
277.683
278.693
279.883
281.293
282.986
285.068
287.77
273.171
273.525
273.91
274.342
274.839
275.416
276.095
276.895
277.839
278.948
280.245
281.753
283.491
285.469
287.686
290.114
273.169
273.52
273.902
274.33
274.822
275.395
276.068
276.862
277.798
278.9
280.19
281.692
283.427
285.407
287.632
290.067
273.167
273.512
273.888
274.31
274.794
275.357
276.02
276.802
277.725
278.812
280.087
281.577
283.305
285.288
287.531
290.002
273.163
273.501
273.869
274.282
274.755
275.306
275.954
276.718
277.62
278.685
279.938
281.407
283.12
285.104
287.372
289.903
273.159
273.488
273.846
274.247
274.707
275.242
275.87
276.611
277.487
278.521
279.74
281.175
282.861
284.835
287.128
289.744
273.154
273.473
273.819
274.206
274.65
275.166
275.771
276.483
277.325
278.319
279.492
280.877
282.514
284.453
286.754
289.471
273.149
273.455
273.789
274.161
274.587
275.08
275.658
276.338
277.139
278.083
279.196
280.51
282.067
283.927
286.178
288.964
273.143
273.437
273.756
274.113
274.519
274.989
275.537
276.179
276.934
277.819
278.859
280.08
281.52
283.231
285.307
287.949
273.174
273.535
273.928
274.369
274.876
275.466
276.16
276.977
277.941
279.072
280.392
281.92
283.671
285.647
287.838
290.206
273.173
273.53
273.92
274.357
274.859
275.444
276.132
276.943
277.899
279.023
280.336
281.858
283.606
285.585
287.784
290.16
273.17
273.522
273.905
274.336
274.83
275.406
276.083
276.882
277.824
278.933
280.232
281.742
283.483
285.466
287.683
290.095
273.167
273.511
273.886
274.307
274.791
275.354
276.015
276.796
277.718
278.805
280.08
281.569
283.297
285.28
287.523
289.997
273.162
273.498
273.863
274.272
274.741
275.288
275.93
276.687
277.582
278.637
279.878
281.335
283.035
285.009
287.279
289.837
273.157
273.482
273.835
274.23
274.684
275.21
275.829
276.557
277.417
278.431
279.626
281.032
282.685
284.626
286.905
289.565
273.151
273.464
273.804
274.184
274.619
275.123
275.714
276.409
277.227
278.191
279.325
280.66
282.233
284.097
286.33
289.063
273.145
273.446
273.771
274.135
274.549
275.029
275.59
276.247
277.018
277.922
278.982
280.224
281.68
283.399
285.462
288.06
273.176
273.542
273.941
274.388
274.902
275.5
276.204
277.033
278.009
279.154
280.488
282.028
283.784
285.757
287.928
290.259
273.175
273.537
273.932
274.375
274.884
275.478
276.176
276.998
277.967
279.104
280.431
281.965
283.72
285.695
287.874
290.213
273.172
273.529
273.918
274.354
274.855
275.439
276.126
276.936
277.891
279.014
280.326
281.848
283.596
285.575
287.773
290.149
273.169
273.518
273.898
274.325
274.815
275.386
276.057
276.849
277.784
278.884
280.173
281.674
283.408
285.389
287.613
290.05
273.164
273.504
273.874
274.289
274.765
275.319
275.971
276.739
277.646
278.714
279.969
281.437
283.145
285.117
287.368
289.891
273.159
273.488
273.846
274.247
274.706
275.241
275.868
276.607
277.479
278.506
279.715
281.132
282.792
284.732
286.995
289.62
273.153
273.47
273.815
274.2
274.641
275.152
275.752
276.456
277.286
278.263
279.41
280.757
282.339
284.202
286.421
289.12
273.147
273.451
273.781
274.15
274.57
275.057
275.626
276.292
277.074
277.991
279.064
280.317
281.783
283.504
285.557
288.125
273.178
273.546
273.947
274.397
274.914
275.517
276.226
277.06
278.043
279.195
280.535
282.08
283.839
285.809
287.97
290.284
273.176
273.541
273.938
274.384
274.897
275.495
276.197
277.026
278.001
279.145
280.478
282.018
283.774
285.747
287.916
290.237
273.174
273.533
273.924
274.363
274.868
275.456
276.148
276.963
277.925
279.054
280.373
281.9
283.65
285.627
287.815
290.173
273.17
273.521
273.904
274.334
274.827
275.402
276.078
276.876
277.817
278.923
280.219
281.725
283.462
285.44
287.655
290.074
273.165
273.508
273.88
274.298
274.777
275.335
275.991
276.765
277.678
278.753
280.014
281.488
283.198
285.168
287.41
289.915
273.16
273.491
273.852
274.255
274.718
275.256
275.888
276.632
277.51
278.543
279.758
281.182
282.844
284.783
287.037
289.645
273.154
273.474
273.82
274.208
274.652
275.167
275.771
276.48
277.316
278.299
279.453
280.805
282.39
284.252
286.463
289.146
273.148
273.454
273.787
274.158
274.581
275.071
275.644
276.315
277.102
278.025
279.104
280.363
281.833
283.554
285.602
288.156
273.114
273.349
273.6
273.875
274.181
274.523
274.907
275.337
275.813
276.334
276.893
277.478
278.073
278.651
279.183
279.633
273.113
273.346
273.595
273.868
274.171
274.511
274.892
275.318
275.79
276.307
276.861
277.443
278.032
278.607
279.135
279.583
273.111
273.341
273.587
273.856
274.154
274.489
274.864
275.284
275.749
276.257
276.803
277.375
277.956
278.522
279.043
279.486
273.109
273.334
273.575
273.838
274.131
274.458
274.825
275.235
275.69
276.187
276.72
277.279
277.847
278.4
278.91
279.343
273.106
273.326
273.561
273.817
274.102
274.42
274.777
275.175
275.616
276.098
276.614
277.156
277.706
278.243
278.737
279.157
273.103
273.316
273.544
273.792
274.068
274.375
274.72
275.104
275.529
275.992
276.489
277.009
277.538
278.052
278.527
278.93
273.1
273.305
273.525
273.765
274.03
274.326
274.656
275.025
275.431
275.874
276.348
276.843
277.346
277.835
278.285
278.668
273.096
273.294
273.505
273.736
273.99
274.273
274.589
274.94
275.326
275.747
276.195
276.664
277.137
277.597
278.02
278.38
273.115
273.352
273.606
273.884
274.194
274.542
274.933
275.371
275.859
276.394
276.971
277.579
278.2
278.809
279.373
279.853
273.114
273.349
273.601
273.877
274.184
274.529
274.917
275.351
275.835
276.366
276.938
277.541
278.158
278.763
279.323
279.801
273.112
273.344
273.592
273.864
274.167
274.506
274.888
275.316
275.792
276.314
276.878
277.472
278.08
278.676
279.229
279.701
273.11
273.337
273.58
273.847
274.143
274.475
274.848
275.267
275.732
276.242
276.793
277.373
277.967
278.55
279.092
279.555
273.107
273.329
273.566
273.825
274.113
274.436
274.799
275.205
275.656
276.151
276.685
277.247
277.822
278.388
278.913
279.363
273.104
273.319
273.549
273.8
274.079
274.391
274.741
275.133
275.567
276.043
276.556
277.096
277.649
278.191
278.695
279.127
273.101
273.308
273.53
273.772
274.041
274.341
274.677
275.052
275.467
275.922
276.411
276.925
277.45
277.965
278.443
278.853
273.097
273.297
273.51
273.742
274
274.287
274.608
274.965
275.36
275.792
276.254
276.739
277.233
277.716
278.164
278.548
273.117
273.359
273.619
273.904
274.222
274.58
274.985
275.441
275.951
276.515
277.128
277.781
278.456
279.128
279.758
280.302
273.116
273.356
273.613
273.896
274.212
274.567
274.968
275.42
275.926
276.485
277.093
277.741
278.412
279.079
279.706
280.247
273.115
273.351
273.604
273.883
274.193
274.543
274.938
275.383
275.881
276.431
277.03
277.669
278.33
278.988
279.607
280.143
273.112
273.344
273.592
273.865
274.169
274.511
274.897
275.332
275.818
276.356
276.941
277.565
278.212
278.856
279.463
279.99
273.11
273.335
273.577
273.843
274.138
274.471
274.846
275.268
275.74
276.261
276.828
277.433
278.059
278.684
279.274
279.786
273.106
273.325
273.56
273.817
274.103
274.424
274.786
275.193
275.647
276.148
276.693
277.273
277.874
278.474
279.04
279.532
273.103
273.314
273.54
273.788
274.064
274.372
274.72
275.109
275.543
276.021
276.54
277.091
277.662
278.23
278.766
279.232
273.099
273.302
273.52
273.758
274.022
274.317
274.648
275.019
275.431
275.884
276.374
276.893
277.428
277.96
278.46
278.894
273.121
273.37
273.638
273.934
274.264
274.638
275.062
275.543
276.086
276.692
277.359
278.079
278.836
279.605
280.342
280.99
273.12
273.367
273.633
273.925
274.253
274.623
275.044
275.521
276.06
276.66
277.322
278.037
278.789
279.553
280.287
280.933
273.118
273.362
273.623
273.911
274.234
274.599
275.013
275.483
276.012
276.604
277.255
277.96
278.702
279.457
280.183
280.824
273.116
273.354
273.611
273.893
274.208
274.565
274.97
275.429
275.946
276.524
277.161
277.85
278.576
279.316
280.03
280.662
273.113
273.345
273.595
273.869
274.176
274.523
274.916
275.362
275.863
276.423
277.04
277.708
278.412
279.131
279.826
280.442
273.11
273.335
273.577
273.843
274.14
274.474
274.854
275.283
275.765
276.304
276.896
277.536
278.212
278.902
279.569
280.162
273.106
273.323
273.557
273.813
274.099
274.42
274.784
275.194
275.655
276.168
276.731
277.339
277.979
278.631
279.262
279.823
273.102
273.311
273.535
273.781
274.055
274.362
274.709
275.099
275.536
276.021
276.552
277.122
277.721
278.328
278.913
279.432
273.125
273.384
273.663
273.971
274.318
274.711
275.161
275.674
276.259
276.918
277.654
278.462
279.329
280.232
281.124
281.932
273.124
273.381
273.657
273.963
274.306
274.696
275.142
275.651
276.23
276.884
277.615
278.417
279.279
280.178
281.067
281.874
273.123
273.375
273.648
273.948
274.286
274.67
275.109
275.61
276.18
276.824
277.543
278.335
279.187
280.076
280.958
281.761
273.12
273.368
273.634
273.928
274.259
274.635
275.063
275.553
276.11
276.739
277.442
278.217
279.052
279.925
280.795
281.59
273.117
273.358
273.618
273.904
274.226
274.591
275.007
275.482
276.022
276.631
277.313
278.063
278.874
279.724
280.574
281.353
273.114
273.348
273.599
273.876
274.187
274.539
274.94
275.398
275.917
276.503
277.156
277.876
278.654
279.471
280.289
281.042
273.11
273.335
273.578
273.845
274.144
274.482
274.866
275.303
275.799
276.356
276.977
277.659
278.395
279.166
279.938
280.651
273.105
273.323
273.556
273.812
274.098
274.42
274.787
275.202
275.671
276.197
276.78
277.418
278.103
278.817
279.528
280.182
273.131
273.401
273.693
274.016
274.381
274.797
275.276
275.827
276.46
277.182
277.999
278.912
279.916
280.993
282.098
283.145
273.13
273.398
273.687
274.007
274.368
274.781
275.256
275.803
276.43
277.146
277.957
278.865
279.863
280.936
282.04
283.087
273.128
273.392
273.676
273.991
274.347
274.754
275.221
275.759
276.377
277.082
277.881
278.777
279.765
280.829
281.927
282.973
273.125
273.384
273.662
273.971
274.319
274.716
275.173
275.698
276.302
276.991
277.773
278.65
279.62
280.669
281.756
282.798
273.122
273.374
273.645
273.945
274.284
274.67
275.113
275.622
276.207
276.875
277.633
278.484
279.427
280.451
281.519
282.548
273.118
273.362
273.625
273.916
274.243
274.615
275.042
275.532
276.095
276.736
277.463
278.279
279.185
280.17
281.203
282.207
273.114
273.35
273.603
273.883
274.197
274.554
274.963
275.431
275.967
276.577
277.266
278.039
278.894
279.824
280.8
281.753
273.11
273.336
273.579
273.847
274.148
274.489
274.878
275.322
275.829
276.403
277.049
277.769
278.562
279.418
280.31
281.175
273.137
273.42
273.726
274.065
274.45
274.892
275.403
275.995
276.68
277.471
278.377
279.407
280.567
281.852
283.238
284.642
273.136
273.416
273.719
274.056
274.437
274.875
275.382
275.969
276.649
277.433
278.332
279.357
280.511
281.794
283.179
284.584
273.134
273.41
273.708
274.039
274.415
274.846
275.345
275.922
276.592
277.364
278.251
279.263
280.407
281.682
283.065
284.474
273.131
273.401
273.693
274.018
274.385
274.806
275.293
275.858
276.512
277.267
278.135
279.128
280.253
281.514
282.891
284.304
273.128
273.391
273.675
273.991
274.348
274.757
275.229
275.777
276.41
277.142
277.984
278.948
280.046
281.281
282.642
284.055
273.124
273.379
273.654
273.959
274.304
274.699
275.154
275.681
276.289
276.992
277.8
278.725
279.78
280.974
282.3
283.695
273.119
273.365
273.631
273.924
274.256
274.634
275.07
275.572
276.152
276.819
277.585
278.46
279.456
280.583
281.84
283.178
273.115
273.351
273.606
273.887
274.204
274.565
274.979
275.455
276.002
276.629
277.345
278.159
279.078
280.111
281.251
282.458
273.143
273.439
273.76
274.117
274.523
274.991
275.535
276.169
276.909
277.769
278.765
279.916
281.238
282.751
284.473
286.398
273.142
273.435
273.753
274.107
274.509
274.974
275.513
276.142
276.875
277.729
278.719
279.863
281.18
282.691
284.414
286.337
273.14
273.429
273.741
274.09
274.486
274.943
275.474
276.093
276.815
277.656
278.633
279.764
281.071
282.577
284.302
286.238
273.137
273.42
273.726
274.067
274.454
274.901
275.419
276.024
276.73
277.552
278.509
279.62
280.909
282.404
284.131
286.087
273.133
273.409
273.707
274.038
274.415
274.848
275.351
275.938
276.622
277.419
278.348
279.429
280.688
282.16
283.88
285.86
273.129
273.396
273.685
274.005
274.369
274.787
275.271
275.835
276.492
277.257
278.149
279.187
280.401
281.829
283.522
285.512
273.125
273.382
273.66
273.968
274.317
274.718
275.181
275.719
276.345
277.071
277.915
278.897
280.043
281.396
283.013
284.959
273.12
273.367
273.634
273.929
274.263
274.644
275.084
275.594
276.183
276.865
277.653
278.564
279.619
280.853
282.314
284.073
273.12
273.367
273.633
273.929
274.262
274.644
275.084
275.593
276.182
276.864
277.652
278.562
279.618
280.851
282.313
284.071
273.115
273.351
273.605
273.886
274.203
274.563
274.977
275.453
276
276.627
277.343
278.156
279.076
280.108
281.249
282.456
273.11
273.336
273.579
273.846
274.147
274.487
274.876
275.32
275.826
276.4
277.046
277.766
278.559
279.414
280.306
281.172
273.105
273.322
273.555
273.81
274.096
274.419
274.784
275.199
275.668
276.193
276.776
277.414
278.098
278.812
279.524
280.178
273.102
273.311
273.535
273.78
274.053
274.36
274.706
275.096
275.533
276.017
276.547
277.117
277.716
278.323
278.908
279.428
273.099
273.302
273.519
273.756
274.02
274.315
274.646
275.016
275.428
275.88
276.369
276.888
277.423
277.955
278.455
278.89
273.097
273.296
273.509
273.741
273.998
274.285
274.605
274.962
275.357
275.787
276.249
276.734
277.228
277.711
278.16
278.544
273.096
273.293
273.504
273.734
273.988
274.271
274.586
274.936
275.322
275.742
276.191
276.658
277.132
277.592
278.015
278.375
273.125
273.382
273.659
273.967
274.316
274.716
275.179
275.717
276.342
277.068
277.911
278.893
280.039
281.392
283.009
284.956
273.119
273.365
273.63
273.923
274.254
274.632
275.067
275.569
276.148
276.815
277.58
278.455
279.451
280.578
281.836
283.174
273.114
273.349
273.602
273.881
274.195
274.552
274.96
275.428
275.963
276.572
277.261
278.033
278.888
279.818
280.794
281.748
273.109
273.335
273.577
273.843
274.141
274.479
274.863
275.299
275.794
276.351
276.971
277.653
278.388
279.159
279.932
280.645
273.106
273.323
273.556
273.811
274.096
274.417
274.78
275.19
275.65
276.162
276.725
277.332
277.972
278.625
279.256
279.818
273.103
273.313
273.539
273.786
274.061
274.369
274.716
275.105
275.538
276.015
276.534
277.085
277.655
278.223
278.76
279.226
273.101
273.307
273.528
273.77
274.038
274.337
274.673
275.047
275.462
275.916
276.405
276.918
277.443
277.958
278.436
278.847
273.1
273.305
273.524
273.763
274.027
274.323
274.652
275.02
275.426
275.868
276.341
276.837
277.339
277.828
278.279
278.663
273.129
273.396
273.684
274.004
274.366
274.784
275.268
275.831
276.487
277.252
278.142
279.18
280.394
281.822
283.515
285.507
273.123
273.378
273.653
273.957
274.301
274.695
275.15
275.675
276.283
276.985
277.792
278.717
279.772
280.966
282.292
283.688
273.118
273.361
273.624
273.913
274.24
274.611
275.037
275.527
276.088
276.728
277.455
278.271
279.176
280.161
281.195
282.199
273.113
273.347
273.597
273.874
274.184
274.535
274.935
275.392
275.91
276.495
277.148
277.867
278.645
279.461
280.28
281.034
273.109
273.334
273.575
273.84
274.136
274.47
274.849
275.277
275.758
276.296
276.887
277.527
278.203
278.892
279.56
280.154
273.106
273.324
273.558
273.814
274.1
274.42
274.781
275.187
275.64
276.14
276.684
277.264
277.865
278.464
279.031
279.524
273.104
273.318
273.547
273.797
274.075
274.387
274.736
275.126
275.56
276.035
276.547
277.087
277.639
278.182
278.686
279.119
273.103
273.315
273.542
273.79
274.064
274.371
274.714
275.097
275.521
275.984
276.48
277
277.528
278.043
278.518
278.923
273.133
273.408
273.705
274.036
274.411
274.843
275.345
275.931
276.613
277.409
278.337
279.417
280.677
282.149
283.87
285.852
273.127
273.39
273.673
273.988
274.344
274.752
275.223
275.769
276.401
277.132
277.973
278.937
280.033
281.269
282.631
284.044
273.122
273.373
273.643
273.942
274.279
274.664
275.106
275.614
276.198
276.864
277.621
278.472
279.415
280.438
281.506
282.537
273.117
273.357
273.616
273.901
274.221
274.585
275
275.473
276.012
276.62
277.301
278.051
278.861
279.711
280.561
281.342
273.112
273.344
273.593
273.866
274.172
274.518
274.909
275.353
275.854
276.412
277.028
277.695
278.399
279.118
279.813
280.431
273.109
273.334
273.575
273.839
274.134
274.465
274.839
275.26
275.73
276.25
276.816
277.42
278.046
278.671
279.262
279.775
273.107
273.327
273.563
273.822
274.109
274.43
274.792
275.197
275.647
276.14
276.673
277.235
277.81
278.375
278.901
279.352
273.106
273.324
273.558
273.814
274.097
274.414
274.769
275.166
275.606
276.087
276.603
277.144
277.694
278.23
278.725
279.147
273.136
273.418
273.723
274.063
274.449
274.893
275.41
276.013
276.717
277.538
278.493
279.604
280.892
282.387
284.115
286.074
273.13
273.4
273.69
274.013
274.379
274.799
275.284
275.847
276.499
277.252
278.119
279.11
280.236
281.496
282.874
284.288
273.125
273.382
273.659
273.966
274.313
274.708
275.163
275.687
276.288
276.976
277.756
278.633
279.602
280.651
281.739
282.782
273.12
273.366
273.631
273.924
274.253
274.627
275.054
275.542
276.097
276.724
277.426
278.199
279.034
279.908
280.778
281.574
273.115
273.353
273.608
273.888
274.202
274.557
274.96
275.418
275.933
276.509
277.145
277.832
278.559
279.299
280.013
280.647
273.112
273.342
273.589
273.86
274.163
274.503
274.888
275.321
275.805
276.341
276.925
277.548
278.194
278.839
279.447
279.975
273.11
273.335
273.577
273.842
274.137
274.467
274.839
275.256
275.719
276.228
276.777
277.357
277.95
278.534
279.076
279.541
273.109
273.332
273.572
273.834
274.125
274.451
274.816
275.224
275.677
276.172
276.705
277.263
277.83
278.384
278.895
279.33
273.139
273.426
273.737
274.084
274.478
274.932
275.46
276.077
276.796
277.635
278.61
279.74
281.047
282.552
284.278
286.216
273.133
273.407
273.704
274.033
274.407
274.835
275.331
275.906
276.573
277.343
278.228
279.239
280.382
281.657
283.04
284.451
273.127
273.389
273.672
273.985
274.339
274.743
275.208
275.743
276.358
277.061
277.858
278.753
279.74
280.804
281.903
282.95
273.122
273.373
273.643
273.942
274.278
274.659
275.096
275.594
276.162
276.804
277.521
278.311
279.162
280.052
280.935
281.74
273.117
273.359
273.619
273.905
274.226
274.588
275
275.467
275.995
276.584
277.234
277.937
278.679
279.433
280.161
280.804
273.114
273.349
273.6
273.877
274.185
274.533
274.926
275.368
275.864
276.412
277.009
277.646
278.307
278.965
279.586
280.125
273.112
273.342
273.588
273.858
274.159
274.496
274.876
275.301
275.775
276.296
276.858
277.451
278.058
278.654
279.209
279.684
273.111
273.339
273.583
273.85
274.147
274.479
274.852
275.269
275.732
276.239
276.783
277.354
277.935
278.501
279.024
279.468
273.141
273.432
273.747
274.098
274.498
274.958
275.494
276.12
276.85
277.7
278.687
279.83
281.146
282.656
284.379
286.301
273.135
273.413
273.713
274.047
274.425
274.86
275.363
275.947
276.623
277.404
278.301
279.324
280.477
281.759
283.145
284.55
273.129
273.394
273.681
273.998
274.357
274.766
275.238
275.781
276.405
277.118
277.927
278.832
279.83
280.903
282.007
283.056
273.123
273.378
273.652
273.954
274.294
274.682
275.124
275.63
276.206
276.857
277.585
278.385
279.247
280.146
281.036
281.846
273.119
273.364
273.627
273.917
274.242
274.609
275.027
275.501
276.036
276.634
277.294
278.007
278.758
279.523
280.258
280.907
273.115
273.353
273.608
273.888
274.201
274.553
274.951
275.4
275.903
276.46
277.066
277.713
278.382
279.05
279.679
280.223
273.113
273.346
273.595
273.869
274.174
274.516
274.901
275.333
275.813
276.342
276.912
277.514
278.13
278.735
279.297
279.779
273.112
273.343
273.59
273.861
274.161
274.498
274.877
275.3
275.77
276.284
276.837
277.416
278.006
278.581
279.111
279.561
273.142
273.435
273.752
274.105
274.508
274.972
275.512
276.142
276.877
277.733
278.726
279.874
281.194
282.706
284.427
286.342
273.136
273.415
273.718
274.054
274.435
274.873
275.38
275.967
276.649
277.435
278.338
279.365
280.524
281.809
283.195
284.598
273.13
273.397
273.685
274.005
274.366
274.778
275.253
275.8
276.429
277.147
277.961
278.872
279.875
280.951
282.058
283.107
273.124
273.38
273.656
273.96
274.303
274.693
275.139
275.648
276.229
276.884
277.617
278.423
279.29
280.192
281.086
281.898
273.12
273.366
273.631
273.923
274.25
274.62
275.041
275.518
276.057
276.66
277.324
278.042
278.798
279.567
280.306
280.958
273.116
273.355
273.612
273.894
274.209
274.563
274.965
275.417
275.923
276.484
277.095
277.746
278.42
279.092
279.725
280.272
273.114
273.348
273.599
273.875
274.181
274.526
274.913
275.349
275.833
276.365
276.94
277.546
278.166
278.776
279.342
279.826
273.113
273.345
273.594
273.866
274.169
274.508
274.889
275.316
275.789
276.307
276.864
277.448
278.041
278.62
279.154
279.608
273.092
273.282
273.485
273.706
273.949
274.219
274.52
274.853
275.219
275.615
276.037
276.476
276.919
277.348
277.741
278.075
273.089
273.271
273.465
273.676
273.909
274.166
274.451
274.767
275.112
275.485
275.88
276.29
276.701
277.098
277.461
277.769
273.085
273.26
273.447
273.649
273.87
274.116
274.386
274.685
275.01
275.361
275.73
276.112
276.493
276.859
277.193
277.475
273.082
273.251
273.43
273.624
273.836
274.07
274.328
274.611
274.919
275.248
275.594
275.95
276.304
276.642
276.949
277.207
273.079
273.242
273.416
273.603
273.807
274.032
274.279
274.549
274.841
275.152
275.479
275.812
276.142
276.456
276.74
276.979
273.077
273.236
273.405
273.587
273.785
274.002
274.24
274.5
274.78
275.077
275.388
275.704
276.015
276.311
276.577
276.8
273.076
273.232
273.398
273.576
273.77
273.982
274.214
274.467
274.739
275.027
275.326
275.63
275.929
276.211
276.465
276.677
273.075
273.23
273.394
273.571
273.763
273.973
274.202
274.451
274.718
275.002
275.296
275.593
275.885
276.161
276.408
276.615
273.093
273.285
273.489
273.712
273.958
274.232
274.537
274.877
275.25
275.657
276.091
276.545
277.006
277.455
277.87
278.225
273.089
273.273
273.469
273.682
273.917
274.178
274.468
274.789
275.141
275.522
275.929
276.352
276.779
277.193
277.574
277.899
273.086
273.262
273.45
273.654
273.879
274.127
274.402
274.705
275.037
275.395
275.774
276.167
276.561
276.942
277.291
277.586
273.083
273.253
273.433
273.629
273.844
274.081
274.342
274.63
274.943
275.279
275.634
275.999
276.364
276.714
277.033
277.303
273.08
273.244
273.419
273.608
273.814
274.042
274.292
274.566
274.863
275.181
275.514
275.856
276.195
276.519
276.813
277.061
273.078
273.238
273.408
273.591
273.792
274.011
274.253
274.516
274.801
275.104
275.421
275.744
276.063
276.367
276.641
276.871
273.077
273.234
273.401
273.581
273.777
273.991
274.227
274.483
274.759
275.052
275.357
275.667
275.973
276.263
276.523
276.742
273.076
273.232
273.397
273.576
273.77
273.982
274.214
274.467
274.738
275.027
275.326
275.63
275.929
276.211
276.465
276.677
273.095
273.29
273.499
273.727
273.979
274.26
274.575
274.927
275.316
275.742
276.201
276.685
277.183
277.674
278.134
278.532
273.091
273.278
273.478
273.696
273.937
274.204
274.503
274.835
275.201
275.6
276.028
276.478
276.936
277.386
277.805
278.165
273.088
273.267
273.459
273.667
273.897
274.151
274.434
274.748
275.092
275.466
275.864
276.279
276.7
277.11
277.489
277.813
273.084
273.257
273.441
273.641
273.861
274.104
274.373
274.669
274.994
275.344
275.714
276.099
276.485
276.859
277.202
277.494
273.081
273.249
273.427
273.619
273.83
274.063
274.32
274.603
274.91
275.24
275.587
275.945
276.303
276.646
276.959
277.224
273.079
273.242
273.415
273.602
273.807
274.032
274.28
274.551
274.844
275.158
275.488
275.825
276.16
276.48
276.77
277.014
273.078
273.238
273.408
273.591
273.792
274.011
274.253
274.516
274.801
275.104
275.42
275.743
276.063
276.366
276.641
276.871
273.077
273.236
273.405
273.586
273.785
274.002
274.24
274.499
274.78
275.077
275.388
275.703
276.015
276.31
276.576
276.799
273.098
273.299
273.514
273.749
274.01
274.303
274.632
275.001
275.413
275.868
276.364
276.894
277.447
278.003
278.536
279.005
273.094
273.286
273.492
273.717
273.966
274.244
274.556
274.904
275.291
275.716
276.176
276.665
277.17
277.675
278.152
278.57
273.09
273.275
273.472
273.687
273.924
274.188
274.483
274.812
275.174
275.571
275.997
276.445
276.905
277.36
277.785
278.154
273.087
273.264
273.454
273.66
273.886
274.138
274.418
274.728
275.069
275.439
275.834
276.246
276.665
277.075
277.455
277.78
273.084
273.255
273.438
273.637
273.855
274.096
274.363
274.657
274.979
275.327
275.695
276.077
276.461
276.834
277.176
277.467
273.081
273.249
273.426
273.619
273.83
274.063
274.32
274.602
274.91
275.239
275.587
275.945
276.302
276.646
276.959
277.224
273.08
273.244
273.419
273.608
273.814
274.041
274.292
274.566
274.863
275.18
275.514
275.855
276.195
276.519
276.813
277.06
273.079
273.242
273.416
273.603
273.807
274.032
274.278
274.548
274.84
275.152
275.478
275.811
276.141
276.456
276.74
276.979
273.101
273.309
273.533
273.778
274.05
274.357
274.705
275.097
275.538
276.03
276.573
277.163
277.791
278.439
279.076
279.656
273.097
273.297
273.51
273.744
274.004
274.295
274.623
274.993
275.406
275.864
276.366
276.906
277.474
278.054
278.615
279.117
273.093
273.284
273.489
273.712
273.96
274.236
274.546
274.894
275.28
275.705
276.167
276.659
277.171
277.685
278.175
278.607
273.09
273.273
273.47
273.684
273.92
274.183
274.477
274.804
275.166
275.561
275.987
276.436
276.897
277.354
277.783
278.155
273.087
273.264
273.454
273.659
273.886
274.138
274.418
274.728
275.069
275.438
275.833
276.246
276.665
277.074
277.454
277.78
273.084
273.257
273.441
273.641
273.86
274.103
274.372
274.669
274.993
275.343
275.714
276.098
276.484
276.858
277.202
277.494
273.083
273.252
273.433
273.629
273.843
274.08
274.342
274.629
274.942
275.278
275.633
275.998
276.363