/*--------------------------------*- C++ -*----------------------------------*\
| =========                 |                                                 |
| \\      /  F ield         | OpenFOAM: The Open Source CFD Toolbox           |
|  \\    /   O peration     | Version:  v1912                                 |
|   \\  /    A nd           | Website:  www.openfoam.com                      |
|    \\/     M anipulation  |                                                 |
\*---------------------------------------------------------------------------*/
FoamFile
{
    version     2.0;
    format      ascii;
    class       volVectorField;
    location    "0.34/fluid";
    object      U;
}
// * * * * * * * * * * * * * * * * * * * * * * * * * * * * * * * * * * * * * //

dimensions      [0 1 -1 0 0 0 0];


internalField   nonuniform List<vector> 
14592
(
(0.0879803 0.0166176 0.000555091)
(0.0746445 0.0103326 0.000604234)
(0.0628808 0.00586173 0.000154861)
(0.0573415 0.00261871 -0.000503807)
(0.0541586 0.0011836 -0.0013475)
(0.0523986 0.000566847 -0.00238023)
(0.0510936 0.000338467 -0.00365273)
(0.0499525 0.000253817 -0.0052434)
(0.048651 0.00022637 -0.0072627)
(0.0472673 0.000198122 -0.00989814)
(0.045261 0.000157992 -0.0134076)
(0.0432285 5.29588e-06 -0.0182235)
(0.0393399 -0.000213802 -0.0251224)
(0.0357221 -0.000941974 -0.0347964)
(0.0253759 -0.00147515 -0.0482593)
(0.0143997 -0.00447082 -0.0487309)
(0.104086 0.0162559 0.000620273)
(0.104674 0.0139368 0.000580683)
(0.103159 0.00990155 -0.000104081)
(0.101039 0.00596433 -0.0011114)
(0.0989224 0.00366586 -0.0024107)
(0.0971037 0.00247211 -0.0040234)
(0.0953435 0.00197685 -0.00603076)
(0.0935344 0.00185144 -0.00855781)
(0.0913721 0.00193818 -0.0117809)
(0.0889053 0.00213671 -0.0159889)
(0.0854352 0.00240487 -0.0215835)
(0.0814887 0.00262347 -0.0292236)
(0.0746322 0.00280264 -0.0400034)
(0.0669999 0.00246095 -0.054981)
(0.0486049 0.00198502 -0.0746659)
(0.0282809 -0.00177193 -0.0743492)
(0.103807 0.0102677 0.00062576)
(0.107514 0.0122267 0.000560953)
(0.109754 0.010301 -0.000165831)
(0.109878 0.00743562 -0.00122415)
(0.109153 0.00540274 -0.00258787)
(0.107999 0.00421432 -0.00428443)
(0.106563 0.00372107 -0.0064)
(0.104874 0.00369372 -0.00906724)
(0.102712 0.00399638 -0.0124721)
(0.100135 0.00453215 -0.0169228)
(0.0964173 0.0052489 -0.0228441)
(0.0920244 0.00603769 -0.0309523)
(0.0843564 0.00687577 -0.0423942)
(0.0754618 0.0073215 -0.0583973)
(0.0546257 0.00721664 -0.0794227)
(0.0311744 0.00310743 -0.0798925)
(0.101975 0.00680381 0.000645525)
(0.105358 0.00981378 0.000599493)
(0.108428 0.00929076 -0.000113668)
(0.109662 0.00761211 -0.00115546)
(0.109937 0.00618193 -0.00249726)
(0.109495 0.00531326 -0.00416406)
(0.108562 0.00503479 -0.00623856)
(0.107229 0.00524099 -0.00885057)
(0.105332 0.00585511 -0.012181)
(0.102956 0.00682243 -0.0165382)
(0.0993674 0.0081201 -0.0223398)
(0.095015 0.00968602 -0.0303251)
(0.0871905 0.0115076 -0.0416328)
(0.0779182 0.0131502 -0.0576307)
(0.0561858 0.0139434 -0.078812)
(0.0313257 0.00865323 -0.0800392)
(0.101071 0.00464667 0.000680592)
(0.103776 0.00762498 0.000676527)
(0.106765 0.00794462 -1.11275e-06)
(0.108451 0.00719305 -0.00100638)
(0.109323 0.00639774 -0.00230177)
(0.109435 0.00595692 -0.00390455)
(0.108987 0.00599453 -0.00588895)
(0.108074 0.00650148 -0.00837612)
(0.106563 0.00745981 -0.0115336)
(0.104563 0.00886675 -0.0156583)
(0.101339 0.010733 -0.0211415)
(0.0973361 0.0130553 -0.0287272)
(0.0897304 0.0158369 -0.0395004)
(0.0804715 0.0186416 -0.0549941)
(0.0580315 0.0203878 -0.0756678)
(0.0316725 0.0133936 -0.0778002)
(0.100684 0.00332223 0.000723408)
(0.102922 0.00587813 0.000772882)
(0.105712 0.00658174 0.000141525)
(0.107613 0.00644003 -0.000818067)
(0.10887 0.00617449 -0.0020562)
(0.109413 0.00615759 -0.00357973)
(0.109394 0.00654383 -0.00545206)
(0.108896 0.00738728 -0.00778298)
(0.107803 0.00872483 -0.010723)
(0.106232 0.0106265 -0.0145524)
(0.103455 0.0131751 -0.0196274)
(0.0998998 0.0165192 -0.0266886)
(0.0926334 0.0208065 -0.0367391)
(0.0835302 0.0258593 -0.051505)
(0.0604317 0.0303969 -0.0713579)
(0.0324906 0.0224853 -0.0747034)
(0.10054 0.00229468 0.000773697)
(0.102553 0.00432572 0.00088542)
(0.105239 0.00520014 0.000308482)
(0.107287 0.0054809 -0.000597729)
(0.108824 0.00565499 -0.00176862)
(0.10972 0.00602329 -0.00319775)
(0.110102 0.00673709 -0.00493396)
(0.110052 0.00788562 -0.00706937)
(0.109485 0.00954253 -0.00972717)
(0.108556 0.0118377 -0.0131516)
(0.106607 0.0149036 -0.0176291)
(0.104122 0.0190283 -0.023838)
(0.0982009 0.0244565 -0.0325795)
(0.0907145 0.0313126 -0.0456975)
(0.0681075 0.0381985 -0.0631588)
(0.0392579 0.0289575 -0.0677937)
(0.100494 0.0014091 0.000828304)
(0.102448 0.00287796 0.00100721)
(0.105148 0.00378501 0.000488992)
(0.107344 0.00435456 -0.000360123)
(0.109113 0.00488222 -0.0014596)
(0.110303 0.00557977 -0.0027888)
(0.111032 0.00657732 -0.00438141)
(0.111388 0.00798309 -0.00631105)
(0.111318 0.00990102 -0.00867372)
(0.110996 0.0125329 -0.0116756)
(0.109843 0.0160953 -0.0155352)
(0.108373 0.021188 -0.0208599)
(0.103788 0.028424 -0.0282513)
(0.0981436 0.0397513 -0.0396675)
(0.0767527 0.0548991 -0.0547915)
(0.0505726 0.062317 -0.0621408)
(0.087947 0.0166198 0.000318356)
(0.0744639 0.0103435 0.000233725)
(0.0624873 0.00587107 -0.000197603)
(0.0567619 0.00262555 -0.000777674)
(0.0533898 0.0011914 -0.00152097)
(0.05143 0.000577429 -0.00244954)
(0.0498834 0.000353418 -0.00361414)
(0.0484362 0.000274426 -0.00507908)
(0.0467338 0.000255564 -0.0069362)
(0.044818 0.00023984 -0.00931138)
(0.0421293 0.000222862 -0.0123939)
(0.0391554 0.000112822 -0.0163348)
(0.0342631 -1.99536e-05 -0.0215881)
(0.0289879 -0.000542396 -0.0275053)
(0.0184464 -0.000848328 -0.0339373)
(0.00609148 -0.0029399 -0.0246866)
(0.10404 0.0162691 0.000310879)
(0.104424 0.0139702 7.72905e-05)
(0.102602 0.00994302 -0.000606771)
(0.100176 0.00601078 -0.00151741)
(0.0977389 0.00372353 -0.00267634)
(0.095576 0.002548 -0.00413466)
(0.0934052 0.0020792 -0.00597834)
(0.0910792 0.00198933 -0.00831564)
(0.0882406 0.0021246 -0.0112957)
(0.0848759 0.00238697 -0.0151251)
(0.0802324 0.00274472 -0.0201017)
(0.0746922 0.00308143 -0.0265126)
(0.0660122 0.00343456 -0.0349882)
(0.0556933 0.00333657 -0.0447909)
(0.0365414 0.0030663 -0.0548885)
(0.0142852 -0.000340233 -0.0401395)
(0.103762 0.010293 0.000303746)
(0.107257 0.0122843 3.26643e-05)
(0.109178 0.0103802 -0.000696566)
(0.108979 0.0075322 -0.00165557)
(0.107915 0.00552366 -0.00287299)
(0.106396 0.00437129 -0.00440747)
(0.104525 0.00392997 -0.00635081)
(0.10229 0.00397338 -0.00881881)
(0.0994121 0.00437213 -0.0119688)
(0.0958844 0.00503278 -0.0160236)
(0.0909152 0.005917 -0.0212966)
(0.0848243 0.00690961 -0.028113)
(0.0751808 0.0080164 -0.0371221)
(0.0634089 0.00872894 -0.0476192)
(0.0416787 0.00878754 -0.0584)
(0.0161304 0.00421133 -0.0427217)
(0.101931 0.0068367 0.000322362)
(0.105105 0.00988901 6.65591e-05)
(0.10786 0.00939937 -0.000649479)
(0.108778 0.00775011 -0.00159182)
(0.108724 0.00635764 -0.00278764)
(0.107927 0.00554289 -0.00429328)
(0.106574 0.00534153 -0.00619708)
(0.104713 0.00565407 -0.0086122)
(0.102122 0.00641417 -0.0116911)
(0.0988229 0.00757455 -0.0156563)
(0.0940093 0.0091333 -0.0208132)
(0.0879909 0.0110212 -0.0275035)
(0.0782024 0.0132676 -0.0363592)
(0.0660527 0.0153117 -0.0467545)
(0.0433758 0.0163927 -0.0574778)
(0.0162951 0.0100756 -0.0420315)
(0.101029 0.00468753 0.000357697)
(0.103528 0.00771797 0.000142108)
(0.106212 0.00808114 -0.000539234)
(0.107596 0.00736945 -0.00144596)
(0.108156 0.0066239 -0.00259723)
(0.107935 0.00625322 -0.00404188)
(0.107095 0.0063909 -0.00586007)
(0.10569 0.00703697 -0.00815708)
(0.103533 0.00818787 -0.011073)
(0.100674 0.00985278 -0.0148215)
(0.0962999 0.0120716 -0.0196842)
(0.0907284 0.0148355 -0.0260119)
(0.0812329 0.0182101 -0.0343886)
(0.0691799 0.021577 -0.0443299)
(0.0457009 0.0237813 -0.0546226)
(0.0169203 0.0152511 -0.0399473)
(0.100643 0.0033696 0.00040053)
(0.102682 0.00598545 0.000236932)
(0.105178 0.00674041 -0.000399527)
(0.106793 0.00664687 -0.00126203)
(0.107758 0.00644116 -0.00235846)
(0.107995 0.00650844 -0.00372757)
(0.107618 0.00701528 -0.00543922)
(0.106675 0.00802872 -0.00758845)
(0.104993 0.00960549 -0.0102997)
(0.102642 0.0118364 -0.0137742)
(0.0988073 0.0148483 -0.0182625)
(0.0938095 0.0188017 -0.0241227)
(0.0847524 0.0239518 -0.0318694)
(0.0729918 0.0299054 -0.0412056)
(0.0487535 0.0353857 -0.0508931)
(0.0181497 0.0254495 -0.0373584)
(0.1005 0.00234743 0.000450217)
(0.102321 0.00444427 0.000347084)
(0.104727 0.0053756 -0.000236845)
(0.106508 0.00571038 -0.00104788)
(0.107778 0.00595153 -0.00208008)
(0.108401 0.00641408 -0.00335946)
(0.108468 0.00726327 -0.00494238)
(0.108033 0.0086042 -0.00690852)
(0.106962 0.0105343 -0.00935863)
(0.105374 0.0132115 -0.0124672)
(0.102529 0.0168232 -0.0164297)
(0.0988449 0.0216865 -0.0215796)
(0.091384 0.0281891 -0.0282915)
(0.0816451 0.0362246 -0.0364785)
(0.0578293 0.0444832 -0.0447707)
(0.0261792 0.0326849 -0.0328852)
(0.100455 0.00146512 0.000503618)
(0.102225 0.00300289 0.000465606)
(0.10466 0.00396973 -6.16685e-05)
(0.106609 0.00459645 -0.000817737)
(0.108137 0.00519518 -0.00178166)
(0.109088 0.00599269 -0.00296586)
(0.109547 0.0071343 -0.00441265)
(0.109581 0.00874682 -0.00618557)
(0.109092 0.0109615 -0.00836151)
(0.108234 0.0140185 -0.0110866)
(0.106348 0.0182031 -0.0145018)
(0.103925 0.0241869 -0.0189114)
(0.0980623 0.0327845 -0.0245471)
(0.0906443 0.045833 -0.0315536)
(0.0680959 0.0633536 -0.0384719)
(0.0392944 0.0680852 -0.0291509)
(0.0879212 0.0166217 0.000154712)
(0.0743182 0.0103526 -1.00792e-05)
(0.0621599 0.00587912 -0.0004113)
(0.0562621 0.00263157 -0.000914243)
(0.0527064 0.00119803 -0.00155476)
(0.0505455 0.00058596 -0.00236453)
(0.0487538 0.000364731 -0.00339125)
(0.0469927 0.000288701 -0.00468637)
(0.0448773 0.000273484 -0.00632537)
(0.0424005 0.000261704 -0.00839347)
(0.0389877 0.000251246 -0.0110407)
(0.0350003 0.000153227 -0.0143131)
(0.0290469 4.06525e-05 -0.0185541)
(0.0222925 -0.000415047 -0.0230157)
(0.0120837 -0.000742732 -0.0274112)
(0.00116268 -0.00248618 -0.0197769)
(0.104003 0.0162817 0.000102587)
(0.104219 0.0140011 -0.000240639)
(0.102134 0.00998216 -0.000893204)
(0.0994275 0.00605516 -0.00169893)
(0.096685 0.00377823 -0.00270826)
(0.0941832 0.00261914 -0.00398672)
(0.0916051 0.00217402 -0.00561759)
(0.0887634 0.0021155 -0.00769131)
(0.0852516 0.00229262 -0.0103306)
(0.0809859 0.00260822 -0.0136823)
(0.0751758 0.00303689 -0.0179757)
(0.0680575 0.00345988 -0.0233374)
(0.0576687 0.00392418 -0.0302088)
(0.045167 0.00395412 -0.0376489)
(0.0262866 0.00370188 -0.044506)
(0.00601481 0.000295737 -0.0318747)
(0.103726 0.0103176 8.77246e-05)
(0.107047 0.0123393 -0.000298706)
(0.108694 0.0104561 -0.000996301)
(0.1082 0.00762492 -0.00184639)
(0.106812 0.00563922 -0.00290756)
(0.104934 0.00452037 -0.0042533)
(0.102633 0.00412725 -0.00597294)
(0.0998541 0.00423615 -0.00816387)
(0.0962653 0.00472339 -0.0109557)
(0.0917863 0.00549769 -0.0145082)
(0.0855776 0.00653165 -0.0190615)
(0.0778128 0.0077 -0.0247696)
(0.0663241 0.00902664 -0.0320797)
(0.0522083 0.00993174 -0.0400567)
(0.0306494 0.0100647 -0.0473681)
(0.0071304 0.00500007 -0.0338611)
(0.101897 0.00686893 0.00010436)
(0.104898 0.00996148 -0.000269955)
(0.107384 0.00950368 -0.000955446)
(0.108014 0.00788246 -0.00178978)
(0.107645 0.00652551 -0.00283082)
(0.106499 0.00576135 -0.00415005)
(0.104729 0.00563231 -0.00583363)
(0.10234 0.00604447 -0.00797673)
(0.0990574 0.00694116 -0.0107045)
(0.0948306 0.00828091 -0.0141774)
(0.0887974 0.0100802 -0.018628)
(0.081124 0.0122587 -0.0242257)
(0.0694797 0.01488 -0.0314025)
(0.0549551 0.0172608 -0.0392909)
(0.0323667 0.0185781 -0.0465498)
(0.00723944 0.0114214 -0.0332767)
(0.100996 0.00472738 0.00013776)
(0.103327 0.00780746 -0.000199765)
(0.105751 0.00821198 -0.00085298)
(0.106859 0.00753816 -0.00165432)
(0.10712 0.00683965 -0.00265455)
(0.106572 0.00653514 -0.00391832)
(0.10534 0.00676735 -0.00552442)
(0.103443 0.00754491 -0.00756127)
(0.100638 0.00887808 -0.0101435)
(0.0969073 0.0107865 -0.0134252)
(0.0913772 0.0133375 -0.0176198)
(0.0842292 0.0165131 -0.022909)
(0.0729214 0.0204372 -0.0296875)
(0.0585313 0.0243192 -0.0372157)
(0.0350128 0.0269739 -0.0441642)
(0.00798632 0.0172809 -0.0316001)
(0.100611 0.00341546 0.000178188)
(0.102488 0.00608835 -0.000111248)
(0.104734 0.00689196 -0.000722847)
(0.106089 0.00684409 -0.00148345)
(0.106776 0.00669507 -0.0024335)
(0.10671 0.00684201 -0.00362855)
(0.105973 0.00746323 -0.00513809)
(0.10458 0.00863804 -0.00704183)
(0.102307 0.0104425 -0.00944102)
(0.0991595 0.0129862 -0.0124805)
(0.0942538 0.0164387 -0.016348)
(0.0877926 0.0209663 -0.021238)
(0.0769996 0.0269258 -0.0274902)
(0.0629966 0.0337193 -0.034534)
(0.0385762 0.0401167 -0.041041)
(0.00945056 0.0287517 -0.0294844)
(0.100469 0.00239811 0.000224769)
(0.102136 0.00455742 -8.65345e-06)
(0.104305 0.00554261 -0.00057171)
(0.105844 0.0059286 -0.0012851)
(0.106858 0.00623341 -0.00217655)
(0.107209 0.00678546 -0.00329023)
(0.106958 0.0077636 -0.00468372)
(0.106131 0.0092882 -0.006424)
(0.104547 0.0114803 -0.00859251)
(0.102277 0.0145247 -0.0113149)
(0.0985094 0.0186635 -0.0147356)
(0.0935778 0.0242383 -0.0190422)
(0.0845835 0.0317774 -0.0244715)
(0.0729028 0.040962 -0.0306576)
(0.0487394 0.0506186 -0.0362227)
(0.0181733 0.0371642 -0.0260962)
(0.100426 0.00151853 0.000274527)
(0.102049 0.00312159 0.000101405)
(0.104261 0.00414495 -0.000409399)
(0.105986 0.00482591 -0.00107236)
(0.107283 0.0054922 -0.00190146)
(0.107994 0.00638486 -0.00292865)
(0.108181 0.0076641 -0.00419904)
(0.107883 0.0094747 -0.00576608)
(0.106965 0.0119756 -0.00769099)
(0.105547 0.0154437 -0.0100782)
(0.1029 0.0202344 -0.0130279)
(0.0994733 0.0270841 -0.0167158)
(0.0923271 0.0370122 -0.0212705)
(0.0833727 0.0517425 -0.0265451)
(0.0604056 0.0717194 -0.0311523)
(0.0325582 0.0752123 -0.0230789)
(0.0879016 0.0166234 5.10796e-05)
(0.0742023 0.0103604 -0.000147032)
(0.061894 0.0058864 -0.000502424)
(0.0558488 0.00263737 -0.000923896)
(0.0521354 0.00120463 -0.00145511)
(0.0498052 0.000594845 -0.00212923)
(0.0478175 0.000377271 -0.00298593)
(0.0458224 0.000306231 -0.00406043)
(0.0434296 0.000298571 -0.00540374)
(0.0406164 0.000298421 -0.00705502)
(0.03685 0.000307776 -0.00909937)
(0.0324503 0.000246177 -0.0114785)
(0.0262861 0.000195037 -0.0143577)
(0.0193431 -0.000128202 -0.0169732)
(0.00993733 -0.000324292 -0.0189039)
(0.000471444 -0.00179547 -0.0124651)
(0.103975 0.0162933 -2.23062e-05)
(0.104055 0.0140289 -0.000402212)
(0.10175 0.0100177 -0.000989626)
(0.0988038 0.0060958 -0.00167558)
(0.0957972 0.0038283 -0.00252069)
(0.093006 0.00268426 -0.00359137)
(0.0900929 0.00226104 -0.00495941)
(0.0868501 0.00223213 -0.00669144)
(0.0828563 0.00244976 -0.00887336)
(0.0780036 0.00281911 -0.0115847)
(0.0715437 0.00332246 -0.0149581)
(0.0636802 0.00384527 -0.0189647)
(0.052784 0.00444936 -0.0237956)
(0.0399021 0.00467221 -0.0284434)
(0.0221853 0.00459301 -0.0317111)
(0.00425717 0.0012417 -0.0209737)
(0.103698 0.0103402 -4.05032e-05)
(0.106878 0.0123892 -0.000463672)
(0.108297 0.0105251 -0.00109277)
(0.10755 0.00770919 -0.0018176)
(0.105883 0.00574392 -0.00270693)
(0.103698 0.00465489 -0.00383472)
(0.101041 0.00430462 -0.00527836)
(0.097838 0.00447175 -0.00711039)
(0.093737 0.00503785 -0.00942185)
(0.0886345 0.0059141 -0.0123019)
(0.0817283 0.00708364 -0.0158889)
(0.0731661 0.00841685 -0.0201702)
(0.0611126 0.00995761 -0.0253301)
(0.0465796 0.0110859 -0.0303434)
(0.0262207 0.0113944 -0.0338374)
(0.00520625 0.00602817 -0.0222799)
(0.101871 0.0068986 -2.63493e-05)
(0.104732 0.0100275 -0.000440167)
(0.106995 0.00959842 -0.00105879)
(0.107378 0.00800235 -0.00176967)
(0.106737 0.0066769 -0.00264137)
(0.105293 0.00595721 -0.00374619)
(0.103179 0.00589136 -0.00515888)
(0.100379 0.00638986 -0.0069502)
(0.0966013 0.0074038 -0.00920762)
(0.0917719 0.00889558 -0.0120209)
(0.0850612 0.0108962 -0.0155219)
(0.0766141 0.013315 -0.0197101)
(0.0644146 0.0162432 -0.0247547)
(0.0494801 0.0189083 -0.029678)
(0.0280573 0.0204453 -0.0330948)
(0.00540186 0.0127063 -0.0217133)
(0.100971 0.00476392 3.32401e-06)
(0.103166 0.00788883 -0.000378474)
(0.105375 0.00833052 -0.000968755)
(0.106247 0.00769047 -0.00165075)
(0.10625 0.00703345 -0.00248709)
(0.105421 0.00678672 -0.00354426)
(0.103867 0.00710067 -0.00489078)
(0.101588 0.00799038 -0.00659216)
(0.0983227 0.00947652 -0.00872758)
(0.0940346 0.0115844 -0.011383)
(0.0878744 0.0144007 -0.0146758)
(0.0800101 0.0178934 -0.0186183)
(0.0681784 0.0222252 -0.0233526)
(0.0534045 0.026473 -0.0280008)
(0.030966 0.0294248 -0.0311975)
(0.00627656 0.018912 -0.0204012)
(0.100587 0.00345728 3.92425e-05)
(0.102333 0.00618162 -0.000300352)
(0.104374 0.00702886 -0.000854163)
(0.105506 0.00702156 -0.00150064)
(0.105951 0.00692232 -0.00229357)
(0.105627 0.00713838 -0.00329171)
(0.104596 0.00785755 -0.00455583)
(0.102855 0.0091679 -0.00614465)
(0.100164 0.0111592 -0.00812696)
(0.0965141 0.0139507 -0.0105831)
(0.091037 0.0177386 -0.0136119)
(0.083933 0.0226776 -0.0172405)
(0.0726576 0.0291825 -0.0215735)
(0.0583151 0.0364844 -0.0258676)
(0.0348728 0.0433579 -0.0287799)
(0.00789409 0.0309761 -0.018808)
(0.100446 0.00244408 8.04583e-05)
(0.101988 0.00465965 -0.000209951)
(0.103963 0.00569305 -0.000721301)
(0.105295 0.00612443 -0.00132676)
(0.106088 0.00648499 -0.00206919)
(0.106206 0.00711437 -0.00299779)
(0.105694 0.00820216 -0.00416362)
(0.104564 0.00987943 -0.00561584)
(0.10262 0.0122833 -0.00740857)
(0.099925 0.0156119 -0.0096106)
(0.0956759 0.0201397 -0.0122919)
(0.090222 0.026202 -0.0154867)
(0.0808307 0.0344 -0.0192375)
(0.0689199 0.0442238 -0.0229742)
(0.0455925 0.0545365 -0.0253709)
(0.0168893 0.0399161 -0.0165681)
(0.100404 0.00156673 0.000124315)
(0.101909 0.00322851 -0.000113181)
(0.103939 0.00430239 -0.000578834)
(0.105474 0.00503134 -0.00114051)
(0.106571 0.00575666 -0.0018292)
(0.107076 0.00673119 -0.0026838)
(0.107036 0.00812674 -0.00374524)
(0.106482 0.0101003 -0.00505248)
(0.105265 0.0128286 -0.00664463)
(0.103503 0.0166069 -0.00857767)
(0.10047 0.0218278 -0.0108921)
(0.0966513 0.0292353 -0.013627)
(0.0892103 0.0399385 -0.0167614)
(0.0801713 0.0554767 -0.0199139)
(0.0579347 0.076416 -0.0218196)
(0.0317161 0.0787794 -0.0146137)
(0.0878863 0.0166248 -6.72782e-06)
(0.074111 0.0103667 -0.000200467)
(0.061682 0.00589227 -0.000494959)
(0.0555142 0.00264197 -0.000830286)
(0.0516674 0.00120967 -0.00124888)
(0.0491918 0.000601332 -0.00178124)
(0.0470354 0.000385946 -0.00245918)
(0.0448385 0.000317492 -0.00330731)
(0.0422075 0.000313199 -0.0043617)
(0.039106 0.000317573 -0.00564128)
(0.0350392 0.000334166 -0.00720174)
(0.0302995 0.000286918 -0.00897197)
(0.0239709 0.000259515 -0.011052)
(0.0169472 -3.14462e-06 -0.0128563)
(0.00826653 -0.000155702 -0.0140101)
(1.66692e-05 -0.00150012 -0.00924698)
(0.103952 0.016303 -8.29084e-05)
(0.103924 0.0140522 -0.000440437)
(0.101442 0.0100477 -0.000932294)
(0.0982974 0.00613022 -0.00148427)
(0.0950684 0.0038705 -0.00215497)
(0.092031 0.00273871 -0.00300407)
(0.0888327 0.0023331 -0.00409019)
(0.0852494 0.0023276 -0.00546213)
(0.0808501 0.00257649 -0.00718107)
(0.0755089 0.00298601 -0.00929231)
(0.0685201 0.00354305 -0.0118802)
(0.0600729 0.00413422 -0.0148813)
(0.0488208 0.00482927 -0.0183945)
(0.0357839 0.00516894 -0.0216245)
(0.0191531 0.00517629 -0.0235886)
(0.00318528 0.00178944 -0.0155217)
(0.103676 0.0103595 -0.000100848)
(0.106743 0.0124318 -0.000497014)
(0.107979 0.0105838 -0.00102445)
(0.107022 0.007781 -0.00160836)
(0.10512 0.0058329 -0.00231471)
(0.102674 0.00476877 -0.00320961)
(0.0997151 0.00445408 -0.00435648)
(0.0961508 0.00466928 -0.00580885)
(0.0916191 0.00529989 -0.00763172)
(0.0859977 0.00625843 -0.00987737)
(0.0785239 0.00753561 -0.0126334)
(0.0693372 0.00899654 -0.0158464)
(0.0568854 0.0106986 -0.0196065)
(0.0421779 0.0119861 -0.0230994)
(0.0229461 0.0124081 -0.0252006)
(0.00403677 0.00676826 -0.0164989)
(0.10185 0.00692412 -8.95622e-05)
(0.104601 0.0100839 -0.000478812)
(0.106683 0.00967937 -0.000997779)
(0.106862 0.00810467 -0.00157019)
(0.105991 0.00680578 -0.00226214)
(0.104294 0.00612344 -0.00313845)
(0.101886 0.0061105 -0.00426047)
(0.0987378 0.00668097 -0.00568044)
(0.0945422 0.0077921 -0.00746065)
(0.0892098 0.00940878 -0.00965416)
(0.0819455 0.0115729 -0.0123439)
(0.0728893 0.0141837 -0.0154862)
(0.0602934 0.017352 -0.0191602)
(0.0451836 0.0202326 -0.0225879)
(0.0248567 0.0219266 -0.0246353)
(0.00428497 0.0137151 -0.0160796)
(0.100951 0.00479536 -6.50394e-05)
(0.103039 0.00795848 -0.000428185)
(0.105074 0.0084318 -0.000923915)
(0.10575 0.00782042 -0.00147269)
(0.105537 0.00719847 -0.00213594)
(0.104469 0.00700044 -0.00297382)
(0.10264 0.00738314 -0.00404277)
(0.100035 0.00836691 -0.00539109)
(0.0963802 0.00998085 -0.00707494)
(0.0916245 0.0122544 -0.00914516)
(0.0849466 0.0152894 -0.0116745)
(0.0765143 0.0190405 -0.0146309)
(0.0643037 0.0236994 -0.0180753)
(0.0493642 0.0282369 -0.0213055)
(0.0279481 0.0314174 -0.0232083)
(0.00524477 0.0202633 -0.0151099)
(0.100568 0.0034932 -3.53448e-05)
(0.102211 0.00626138 -0.000363865)
(0.104086 0.00714573 -0.000829693)
(0.105035 0.00717285 -0.00134947)
(0.105277 0.00711572 -0.00197751)
(0.104731 0.00739011 -0.00276774)
(0.103448 0.00819177 -0.00377051)
(0.101411 0.00961594 -0.00502899)
(0.0983651 0.0117636 -0.00659152)
(0.094293 0.0147612 -0.00850554)
(0.0883451 0.0188259 -0.0108305)
(0.0807297 0.0241008 -0.0135477)
(0.0691032 0.0310429 -0.0166928)
(0.0546194 0.0387481 -0.0196653)
(0.0321096 0.0459869 -0.0213792)
(0.00697314 0.0328335 -0.0139136)
(0.100428 0.00248345 -1.34282e-06)
(0.101873 0.00474695 -0.000289476)
(0.103691 0.00582133 -0.000720543)
(0.104852 0.00629121 -0.00120694)
(0.105459 0.00669897 -0.00179412)
(0.105378 0.00739367 -0.00252843)
(0.104641 0.00857401 -0.00345265)
(0.103251 0.0103798 -0.00460293)
(0.101 0.0129614 -0.00601691)
(0.0979453 0.0165277 -0.00773484)
(0.0932955 0.0213785 -0.00979629)
(0.0874197 0.0278425 -0.0121925)
(0.0777348 0.0365745 -0.0149192)
(0.0657462 0.0469151 -0.0175055)
(0.0432273 0.0577445 -0.0188982)
(0.0161541 0.0422693 -0.0123059)
(0.100386 0.00160789 3.47575e-05)
(0.101801 0.00331963 -0.00020993)
(0.103685 0.00443644 -0.000603603)
(0.105062 0.00520612 -0.00105436)
(0.105991 0.00598142 -0.00159802)
(0.106319 0.00702519 -0.00227273)
(0.106085 0.00851896 -0.00311332)
(0.10531 0.0106298 -0.00414838)
(0.103836 0.0135494 -0.00540442)
(0.101782 0.0175871 -0.00691333)
(0.0984276 0.0231656 -0.00869411)
(0.0942908 0.0310321 -0.0107456)
(0.0866353 0.0423629 -0.0130229)
(0.0776166 0.0585529 -0.0151951)
(0.056087 0.0802541 -0.0162787)
(0.0313091 0.0818816 -0.0108548)
(0.0878752 0.0166259 -2.91969e-05)
(0.0740439 0.0103716 -0.000188767)
(0.0615248 0.00589685 -0.0004089)
(0.0552646 0.00264574 -0.000652281)
(0.0513178 0.00121394 -0.000953118)
(0.0487353 0.000607064 -0.00133514)
(0.0464597 0.000394019 -0.00182046)
(0.0441274 0.000328791 -0.00242331)
(0.041349 0.00032926 -0.00316434)
(0.0380853 0.000340863 -0.0040463)
(0.0338782 0.00036904 -0.0050956)
(0.0290097 0.000341725 -0.00624102)
(0.0226951 0.000345087 -0.00752608)
(0.0157679 0.000138871 -0.00855038)
(0.00752523 3.66684e-05 -0.00902584)
(-6.2357e-05 -0.00125088 -0.00577239)
(0.103936 0.0163107 -9.37992e-05)
(0.103828 0.0140705 -0.000382382)
(0.101213 0.0100713 -0.000752725)
(0.0979173 0.0061574 -0.00115679)
(0.0945203 0.00390385 -0.0016419)
(0.0912994 0.00278181 -0.00225414)
(0.0878947 0.00239031 -0.00303546)
(0.0840747 0.00240379 -0.0040167)
(0.0794106 0.00267836 -0.00523447)
(0.0737736 0.00312153 -0.00670623)
(0.0665031 0.0037242 -0.00847228)
(0.0577928 0.00437455 -0.0104562)
(0.046477 0.00514868 -0.0126867)
(0.0335606 0.00558651 -0.0146059)
(0.01765 0.00567463 -0.0154956)
(0.00283169 0.00223421 -0.00991513)
(0.10366 0.0103748 -0.000108632)
(0.106644 0.0124652 -0.000427527)
(0.107741 0.01063 -0.000825037)
(0.106626 0.00783745 -0.00125286)
(0.104546 0.00590273 -0.00176414)
(0.101905 0.00485792 -0.00240985)
(0.0987265 0.00457078 -0.00323555)
(0.0949107 0.00482314 -0.00427551)
(0.0900961 0.0055035 -0.00556884)
(0.0841583 0.00652547 -0.0071375)
(0.0763785 0.00788547 -0.00902305)
(0.0669066 0.00944503 -0.0111545)
(0.0543726 0.0112715 -0.0135515)
(0.0397885 0.0126832 -0.0156394)
(0.021316 0.0131986 -0.0165972)
(0.00365164 0.00735034 -0.0105624)
(0.101835 0.00694428 -0.000100446)
(0.104503 0.0101284 -0.000414586)
(0.10645 0.00974299 -0.0008059)
(0.106474 0.00818496 -0.00122516)
(0.105431 0.00690661 -0.00172583)
(0.103544 0.00625298 -0.00235792)
(0.100924 0.00628044 -0.00316556)
(0.0975324 0.00690544 -0.00418212)
(0.0930636 0.00808955 -0.00544488)
(0.0874267 0.00979896 -0.00697645)
(0.0798671 0.012083 -0.00881521)
(0.0705379 0.0148328 -0.0108969)
(0.0578634 0.0181725 -0.0132334)
(0.0428795 0.0212063 -0.0152745)
(0.0232899 0.02301 -0.0161926)
(0.00394301 0.0144577 -0.0102629)
(0.100937 0.00482017 -8.21621e-05)
(0.102946 0.00801331 -0.000377015)
(0.104849 0.00851136 -0.000751107)
(0.105378 0.00792224 -0.00115289)
(0.105001 0.00732729 -0.0016325)
(0.103755 0.00716646 -0.00223654)
(0.101727 0.00760123 -0.00300567)
(0.0988956 0.00865543 -0.00397061)
(0.0949875 0.0103638 -0.00516453)
(0.0899516 0.0127576 -0.006609)
(0.0830021 0.0159482 -0.00833593)
(0.0743231 0.019879 -0.01029)
(0.0620434 0.0247595 -0.0124717)
(0.0472337 0.0294887 -0.0143821)
(0.0265051 0.0328104 -0.015212)
(0.00496095 0.0212047 -0.00960569)
(0.100554 0.00352149 -6.00235e-05)
(0.102122 0.00632409 -0.000329178)
(0.103872 0.00723742 -0.000681103)
(0.104682 0.00729121 -0.00106149)
(0.104771 0.00726638 -0.00151527)
(0.10406 0.00758509 -0.00208456)
(0.102594 0.00844876 -0.00280569)
(0.100352 0.00995726 -0.00370596)
(0.0970773 0.0122187 -0.00481334)
(0.092755 0.0153627 -0.00614771)
(0.0865652 0.0196185 -0.00773262)
(0.0787369 0.0251172 -0.00952333)
(0.0670555 0.0323398 -0.0115052)
(0.0527104 0.0402911 -0.0132476)
(0.030829 0.0477305 -0.0139669)
(0.00676046 0.0340463 -0.00880396)
(0.100415 0.0025144 -3.47042e-05)
(0.101788 0.00481549 -0.000273868)
(0.10349 0.00592185 -0.00060006)
(0.104521 0.00642151 -0.000955874)
(0.104988 0.00686539 -0.00137978)
(0.104757 0.00760958 -0.00190846)
(0.103858 0.00885912 -0.00257297)
(0.102288 0.0107594 -0.00339602)
(0.0998396 0.0134691 -0.00439873)
(0.0965737 0.0172016 -0.00559731)
(0.0917229 0.022271 -0.00700356)
(0.0856829 0.0289953 -0.00858238)
(0.075967 0.0380579 -0.010297)
(0.0641388 0.0486996 -0.0118029)
(0.0421739 0.0597971 -0.0123514)
(0.0160499 0.0437476 -0.00778764)
(0.100374 0.00164017 -7.86542e-06)
(0.101721 0.00339107 -0.000214769)
(0.103497 0.00454137 -0.000513281)
(0.104755 0.0053425 -0.000842872)
(0.105557 0.006156 -0.00123496)
(0.105753 0.00725205 -0.00172033)
(0.105376 0.00881898 -0.00232452)
(0.10445 0.0110301 -0.00306528)
(0.102811 0.014086 -0.00395661)
(0.100588 0.0183026 -0.00501036)
(0.0970779 0.024118 -0.0062262)
(0.0928326 0.0322728 -0.00757752)
(0.0851818 0.0439755 -0.0090059)
(0.0763612 0.0605231 -0.01026)
(0.0553259 0.0825929 -0.0106546)
(0.0313837 0.0837593 -0.00688081)
(0.0878678 0.0166265 -2.69967e-05)
(0.0739992 0.0103749 -0.000131974)
(0.0614196 0.00589988 -0.00026743)
(0.0550966 0.00264822 -0.000415578)
(0.0510814 0.00121664 -0.00059706)
(0.0484252 0.000610586 -0.000827714)
(0.0460671 0.000398781 -0.00112073)
(0.0436408 0.000335107 -0.00148407)
(0.0407601 0.000337648 -0.00192948)
(0.0373839 0.000352158 -0.00245639)
(0.0330791 0.000384816 -0.00307902)
(0.0281237 0.00036556 -0.00375135)
(0.0218196 0.000381421 -0.00449518)
(0.0149715 0.000200675 -0.00507822)
(0.0070394 0.000117759 -0.00532102)
(-0.000112975 -0.00114206 -0.00341652)
(0.103925 0.016316 -7.0322e-05)
(0.103763 0.0140831 -0.000256759)
(0.101059 0.0100874 -0.000486637)
(0.097661 0.00617602 -0.000733413)
(0.0941493 0.00392661 -0.0010273)
(0.0908024 0.00281109 -0.00139782)
(0.0872558 0.00242891 -0.00187053)
(0.0832736 0.00245478 -0.00246323)
(0.0784284 0.0027458 -0.00319676)
(0.0725905 0.00321004 -0.00407831)
(0.0651309 0.00384056 -0.00512883)
(0.0562508 0.00452593 -0.00629649)
(0.0449043 0.00534556 -0.00759097)
(0.032098 0.0058376 -0.0086841)
(0.0166944 0.0059657 -0.00914034)
(0.00262591 0.00248007 -0.0058497)
(0.10365 0.0103853 -7.97186e-05)
(0.106578 0.0124882 -0.000285622)
(0.107582 0.0106618 -0.000532775)
(0.106359 0.00787628 -0.000794062)
(0.104157 0.00595067 -0.00110402)
(0.101382 0.00491902 -0.00149491)
(0.098053 0.00465053 -0.0019947)
(0.0940644 0.00492793 -0.00262321)
(0.0890564 0.00564159 -0.00340277)
(0.0829036 0.00670564 -0.00434314)
(0.0749185 0.00811993 -0.00546585)
(0.0652619 0.00974315 -0.00672182)
(0.0526858 0.0116485 -0.00811496)
(0.0382156 0.0131363 -0.00930617)
(0.0202788 0.0137051 -0.00979844)
(0.00342715 0.00771358 -0.00623582)
(0.101825 0.0069582 -7.49099e-05)
(0.104439 0.010159 -0.00027788)
(0.106294 0.00978683 -0.000521295)
(0.106213 0.00824026 -0.000777254)
(0.105051 0.00697596 -0.00108072)
(0.103035 0.00634193 -0.00146328)
(0.100268 0.00639691 -0.00195209)
(0.0967095 0.00705896 -0.00256643)
(0.0920536 0.00829244 -0.00332759)
(0.0862093 0.0100643 -0.00424576)
(0.0784508 0.0124283 -0.0053407)
(0.0689439 0.0152701 -0.00656737)
(0.0562283 0.0187215 -0.00792541)
(0.0413586 0.0218533 -0.00908985)
(0.0222899 0.0237235 -0.00956052)
(0.00374355 0.0149432 -0.00606198)
(0.100927 0.00483733 -6.3586e-05)
(0.102883 0.00805114 -0.00025474)
(0.104699 0.0085662 -0.0004876)
(0.105128 0.00799238 -0.000732841)
(0.104638 0.00741593 -0.00102346)
(0.103269 0.00728057 -0.00138893)
(0.101104 0.00775093 -0.00185438)
(0.0981176 0.00885319 -0.00243751)
(0.0940355 0.0106258 -0.00315727)
(0.0888081 0.0131013 -0.00402338)
(0.0816748 0.0163968 -0.00505205)
(0.0728343 0.0204483 -0.00620371)
(0.0605182 0.0254759 -0.00747211)
(0.0458227 0.0303313 -0.00856188)
(0.0255815 0.033743 -0.00898558)
(0.00479672 0.0218381 -0.00568069)
(0.100545 0.00354104 -4.99614e-05)
(0.102062 0.00636735 -0.000225306)
(0.103729 0.00730062 -0.000444506)
(0.104444 0.00737272 -0.00067662)
(0.104429 0.00737005 -0.000951445)
(0.103605 0.00771913 -0.00129573)
(0.102013 0.00862522 -0.001732)
(0.0996285 0.0101913 -0.00227593)
(0.0961968 0.0125303 -0.00294343)
(0.0917033 0.0157739 -0.00374335)
(0.0853494 0.020159 -0.00468722)
(0.0773816 0.0258084 -0.00574184)
(0.0656718 0.0332172 -0.00689296)