/*--------------------------------*- C++ -*----------------------------------*\
| =========                 |                                                 |
| \\      /  F ield         | OpenFOAM: The Open Source CFD Toolbox           |
|  \\    /   O peration     | Version:  v1912                                 |
|   \\  /    A nd           | Website:  www.openfoam.com                      |
|    \\/     M anipulation  |                                                 |
\*---------------------------------------------------------------------------*/
FoamFile
{
    version     2.0;
    format      ascii;
    class       pointVectorField;
    location    "0.9/solid";
    object      pointDD;
}
// * * * * * * * * * * * * * * * * * * * * * * * * * * * * * * * * * * * * * //

dimensions      [0 1 0 0 0 0 0];


internalField   nonuniform List<vector> 
405
(
(1.41621e-10 2.46692e-10 1.61484e-10)
(5.826e-11 1.84432e-10 1.28381e-10)
(-6.50704e-12 1.63384e-10 1.2026e-10)
(-6.58352e-11 1.71004e-10 1.09878e-10)
(-1.22149e-10 2.26926e-10 1.3275e-10)
(2.98735e-10 3.27229e-10 4.06925e-10)
(1.70743e-10 3.3337e-10 4.23185e-10)
(-2.13088e-11 2.94333e-10 4.03298e-10)
(-2.00099e-10 3.15193e-10 3.77902e-10)
(-2.79341e-10 3.11124e-10 3.48553e-10)
(4.06203e-10 1.88437e-10 6.94663e-10)
(2.35732e-10 2.13095e-10 7.11219e-10)
(-3.78459e-11 1.8764e-10 6.83295e-10)
(-2.95535e-10 2.12325e-10 6.51892e-10)
(-4.10987e-10 1.99364e-10 6.11187e-10)
(4.23662e-10 -5.82174e-12 9.21363e-10)
(2.39115e-10 3.4509e-11 9.3401e-10)
(-5.60593e-11 2.60429e-11 8.97185e-10)
(-3.3499e-10 4.98832e-11 8.6462e-10)
(-4.61178e-10 3.03262e-11 8.20859e-10)
(4.16168e-10 -2.03524e-10 1.12424e-09)
(2.23861e-10 -1.60236e-10 1.1311e-09)
(-7.8191e-11 -1.60074e-10 1.08549e-09)
(-3.63726e-10 -1.30769e-10 1.05378e-09)
(-4.94848e-10 -1.44709e-10 1.01047e-09)
(4.24132e-10 -4.21754e-10 1.32705e-09)
(2.18976e-10 -3.8331e-10 1.32666e-09)
(-1.04976e-10 -3.78802e-10 1.27344e-09)
(-4.12033e-10 -3.40556e-10 1.24232e-09)
(-5.53254e-10 -3.40996e-10 1.20157e-09)
(4.70599e-10 -7.19056e-10 1.53732e-09)
(2.3999e-10 -6.84468e-10 1.53262e-09)
(-1.37106e-10 -6.7058e-10 1.47666e-09)
(-4.9654e-10 -6.27367e-10 1.44161e-09)
(-6.59888e-10 -6.14616e-10 1.40075e-09)
(5.36051e-10 -1.13481e-09 1.71998e-09)
(2.74094e-10 -1.10074e-09 1.71892e-09)
(-1.75361e-10 -1.07033e-09 1.66956e-09)
(-6.05336e-10 -1.02371e-09 1.62175e-09)
(-7.95176e-10 -9.98816e-10 1.5735e-09)
(5.56299e-10 -1.39109e-09 1.80191e-09)
(2.88601e-10 -1.37272e-09 1.79913e-09)
(-1.97562e-10 -1.32816e-09 1.76041e-09)
(-6.63113e-10 -1.27218e-09 1.70996e-09)
(-8.72953e-10 -1.23174e-09 1.66218e-09)
(9.75607e-11 1.26619e-10 7.57455e-11)
(0 0 0)
(0 0 0)
(0 0 0)
(-6.53077e-11 1.17965e-10 6.44278e-11)
(2.7134e-10 1.9721e-10 2.83916e-10)
(0 0 0)
(0 0 0)
(0 0 0)
(-2.11507e-10 1.93002e-10 2.46119e-10)
(3.66478e-10 4.73572e-11 5.28698e-10)
(0 0 0)
(0 0 0)
(0 0 0)
(-3.2171e-10 6.94642e-11 4.65602e-10)
(3.82101e-10 -1.39687e-10 7.39852e-10)
(0 0 0)
(0 0 0)
(0 0 0)
(-3.62883e-10 -9.21834e-11 6.59051e-10)
(3.75777e-10 -3.25498e-10 9.33366e-10)
(0 0 0)
(0 0 0)
(0 0 0)
(-3.91719e-10 -2.5397e-10 8.38576e-10)
(3.8586e-10 -5.24318e-10 1.12526e-09)
(0 0 0)
(0 0 0)
(0 0 0)
(-4.46829e-10 -4.28883e-10 1.01811e-09)
(4.39752e-10 -7.87596e-10 1.31785e-09)
(0 0 0)
(0 0 0)
(0 0 0)
(-5.55434e-10 -6.66657e-10 1.19925e-09)
(5.20928e-10 -1.16178e-09 1.47823e-09)
(0 0 0)
(0 0 0)
(0 0 0)
(-7.00295e-10 -1.00859e-09 1.35024e-09)
(5.30942e-10 -1.40217e-09 1.5568e-09)
(2.67133e-10 -1.39677e-09 1.56218e-09)
(-1.82084e-10 -1.341e-09 1.53735e-09)
(-6.11937e-10 -1.28699e-09 1.49582e-09)
(-8.00344e-10 -1.2335e-09 1.44111e-09)
(6.20717e-11 6.356e-11 2.92939e-11)
(0 0 0)
(0 0 0)
(0 0 0)
(-2.83089e-11 5.43457e-11 2.33622e-11)
(1.79747e-10 5.95877e-11 1.45017e-10)
(0 0 0)
(0 0 0)
(0 0 0)
(-1.117e-10 5.36787e-11 1.22609e-10)
(2.483e-10 -9.63162e-11 3.2541e-10)
(0 0 0)
(0 0 0)
(0 0 0)
(-1.85819e-10 -7.71868e-11 2.8411e-10)
(2.56648e-10 -2.70063e-10 5.09209e-10)
(0 0 0)
(0 0 0)
(0 0 0)
(-2.11806e-10 -2.26587e-10 4.52832e-10)
(2.49181e-10 -4.37428e-10 6.84061e-10)
(0 0 0)
(0 0 0)
(0 0 0)
(-2.3276e-10 -3.70457e-10 6.15121e-10)
(2.62108e-10 -6.07007e-10 8.49497e-10)
(0 0 0)
(0 0 0)
(0 0 0)
(-2.84731e-10 -5.1656e-10 7.69443e-10)
(3.2741e-10 -8.21911e-10 9.9836e-10)
(0 0 0)
(0 0 0)
(0 0 0)
(-3.99159e-10 -7.06826e-10 9.08541e-10)
(4.32609e-10 -1.13955e-09 1.10275e-09)
(0 0 0)
(0 0 0)
(0 0 0)
(-5.62379e-10 -9.93783e-10 1.00602e-09)
(4.5774e-10 -1.35824e-09 1.14094e-09)
(2.24532e-10 -1.34929e-09 1.14634e-09)
(-1.51906e-10 -1.28611e-09 1.13761e-09)
(-5.10411e-10 -1.24395e-09 1.09887e-09)
(-6.72132e-10 -1.19697e-09 1.05577e-09)
(3.64923e-11 3.14049e-11 1.65606e-11)
(0 0 0)
(0 0 0)
(0 0 0)
(-1.63776e-12 1.99119e-11 1.26155e-11)
(1.11908e-10 -9.98578e-12 9.48834e-11)
(0 0 0)
(0 0 0)
(0 0 0)
(-3.82776e-11 -2.13184e-11 7.97998e-11)
(1.60102e-10 -1.70706e-10 2.32928e-10)
(0 0 0)
(0 0 0)
(0 0 0)
(-8.52114e-11 -1.58287e-10 2.04309e-10)
(1.65563e-10 -3.39462e-10 3.86815e-10)
(0 0 0)
(0 0 0)
(0 0 0)
(-1.01706e-10 -3.03282e-10 3.46264e-10)
(1.60919e-10 -4.92271e-10 5.37097e-10)
(0 0 0)
(0 0 0)
(0 0 0)
(-1.19415e-10 -4.3283e-10 4.85933e-10)
(1.79143e-10 -6.35171e-10 6.7276e-10)
(0 0 0)
(0 0 0)
(0 0 0)
(-1.71168e-10 -5.52434e-10 6.12088e-10)
(2.52779e-10 -8.11114e-10 7.80287e-10)
(0 0 0)
(0 0 0)
(0 0 0)
(-2.88881e-10 -7.04082e-10 7.11551e-10)
(3.69596e-10 -1.08607e-09 8.38007e-10)
(0 0 0)
(0 0 0)
(0 0 0)
(-4.59007e-10 -9.48814e-10 7.64079e-10)
(4.01306e-10 -1.28848e-09 8.45388e-10)
(1.9286e-10 -1.28393e-09 8.47486e-10)
(-1.28538e-10 -1.22213e-09 8.46561e-10)
(-4.32299e-10 -1.18296e-09 8.12108e-10)
(-5.713e-10 -1.13484e-09 7.8106e-10)
(2.40645e-11 1.72238e-11 1.55471e-11)
(0 0 0)
(0 0 0)
(0 0 0)
(1.16195e-11 3.84233e-12 1.27845e-11)
(7.93987e-11 -3.87402e-11 7.99363e-11)
(0 0 0)
(0 0 0)
(0 0 0)
(-1.92391e-12 -5.50053e-11 6.94848e-11)
(1.19203e-10 -1.99309e-10 1.88684e-10)
(0 0 0)
(0 0 0)
(0 0 0)
(-3.58208e-11 -1.93544e-10 1.68748e-10)
(1.26045e-10 -3.64554e-10 3.10783e-10)
(0 0 0)
(0 0 0)
(0 0 0)
(-4.87131e-11 -3.35807e-10 2.81994e-10)
(1.26383e-10 -5.0749e-10 4.30597e-10)
(0 0 0)
(0 0 0)
(0 0 0)
(-6.647e-11 -4.55742e-10 3.93499e-10)
(1.50358e-10 -6.33155e-10 5.34921e-10)
(0 0 0)
(0 0 0)
(0 0 0)
(-1.19319e-10 -5.58149e-10 4.90211e-10)
(2.28987e-10 -7.86775e-10 6.09836e-10)
(0 0 0)
(0 0 0)
(0 0 0)
(-2.37724e-10 -6.87421e-10 5.58729e-10)
(3.48923e-10 -1.03873e-09 6.41217e-10)
(0 0 0)
(0 0 0)
(0 0 0)
(-4.07018e-10 -9.08991e-10 5.86124e-10)
(3.81386e-10 -1.23292e-09 6.35367e-10)
(1.84937e-10 -1.23534e-09 6.31702e-10)
(-1.1087e-10 -1.17862e-09 6.30559e-10)
(-3.88929e-10 -1.13799e-09 6.05582e-10)
(-5.17001e-10 -1.08571e-09 5.87603e-10)
(1.90975e-11 1.21168e-11 1.41144e-11)
(0 0 0)
(0 0 0)
(0 0 0)
(1.71352e-11 -2.54104e-12 1.22447e-11)
(6.69722e-11 -4.7512e-11 6.58352e-11)
(0 0 0)
(0 0 0)
(0 0 0)
(1.29725e-11 -6.73485e-11 5.88057e-11)
(1.05079e-10 -2.05e-10 1.47632e-10)
(0 0 0)
(0 0 0)
(0 0 0)
(-1.61857e-11 -2.04435e-10 1.34203e-10)
(1.14985e-10 -3.66192e-10 2.37517e-10)
(0 0 0)
(0 0 0)
(0 0 0)
(-2.8635e-11 -3.43532e-10 2.17922e-10)
(1.20149e-10 -5.02697e-10 3.25026e-10)
(0 0 0)
(0 0 0)
(0 0 0)
(-4.75245e-11 -4.57384e-10 2.99424e-10)
(1.4869e-10 -6.19359e-10 3.99295e-10)
(0 0 0)
(0 0 0)
(0 0 0)
(-1.0131e-10 -5.5081e-10 3.68062e-10)
(2.29934e-10 -7.62957e-10 4.49507e-10)
(0 0 0)
(0 0 0)
(0 0 0)
(-2.18903e-10 -6.69872e-10 4.13515e-10)
(3.49806e-10 -1.00467e-09 4.67471e-10)
(0 0 0)
(0 0 0)
(0 0 0)
(-3.84985e-10 -8.80853e-10 4.2852e-10)
(3.819e-10 -1.19463e-09 4.59135e-10)
(1.90209e-10 -1.20181e-09 4.52264e-10)
(-9.79744e-11 -1.14955e-09 4.4936e-10)
(-3.68253e-10 -1.10723e-09 4.33853e-10)
(-4.92257e-10 -1.05235e-09 4.25384e-10)
(1.73811e-11 1.06688e-11 1.05242e-11)
(0 0 0)
(0 0 0)
(0 0 0)
(1.91828e-11 -4.78499e-12 9.37143e-12)
(6.31102e-11 -4.85854e-11 4.66524e-11)
(0 0 0)
(0 0 0)
(0 0 0)
(1.83307e-11 -7.07408e-11 4.2326e-11)
(1.01878e-10 -2.0225e-10 1.01269e-10)
(0 0 0)
(0 0 0)
(0 0 0)
(-9.59089e-12 -2.0523e-10 9.29904e-11)
(1.14642e-10 -3.59488e-10 1.5994e-10)
(0 0 0)
(0 0 0)
(0 0 0)
(-2.26046e-11 -3.41135e-10 1.47785e-10)
(1.23376e-10 -4.91929e-10 2.16434e-10)
(0 0 0)
(0 0 0)
(0 0 0)
(-4.25408e-11 -4.5127e-10 2.00413e-10)
(1.54957e-10 -6.04545e-10 2.63601e-10)
(0 0 0)
(0 0 0)
(0 0 0)
(-9.67997e-11 -5.40695e-10 2.43888e-10)
(2.37538e-10 -7.4454e-10 2.94536e-10)
(0 0 0)
(0 0 0)
(0 0 0)
(-2.13263e-10 -6.55982e-10 2.71673e-10)
(3.56692e-10 -9.82128e-10 3.04812e-10)
(0 0 0)
(0 0 0)
(0 0 0)
(-3.76348e-10 -8.62533e-10 2.79982e-10)
(3.88246e-10 -1.16994e-09 2.98314e-10)
(1.98116e-10 -1.17977e-09 2.91915e-10)
(-8.92138e-11 -1.13036e-09 2.88773e-10)
(-3.58518e-10 -1.08712e-09 2.80189e-10)
(-4.81417e-10 -1.03112e-09 2.76792e-10)
(1.68576e-11 1.04006e-11 5.55464e-12)
(0 0 0)
(0 0 0)
(0 0 0)
(1.98826e-11 -5.48732e-12 5.006e-12)
(6.21449e-11 -4.77331e-11 2.40479e-11)
(0 0 0)
(0 0 0)
(0 0 0)
(2.00971e-11 -7.11812e-11 2.19889e-11)
(1.01764e-10 -1.98485e-10 5.13313e-11)
(0 0 0)
(0 0 0)
(0 0 0)
(-7.6362e-12 -2.03494e-10 4.73858e-11)
(1.16356e-10 -3.52918e-10 8.02019e-11)
(0 0 0)
(0 0 0)
(0 0 0)
(-2.11848e-11 -3.37089e-10 7.43882e-11)
(1.27174e-10 -4.83082e-10 1.07771e-10)
(0 0 0)
(0 0 0)
(0 0 0)
(-4.17438e-11 -4.45195e-10 1.0007e-10)
(1.60441e-10 -5.94106e-10 1.30586e-10)
(0 0 0)
(0 0 0)
(0 0 0)
(-9.61709e-11 -5.33074e-10 1.21062e-10)
(2.43676e-10 -7.33092e-10 1.45361e-10)
(0 0 0)
(0 0 0)
(0 0 0)
(-2.11822e-10 -6.47248e-10 1.34269e-10)
(3.62291e-10 -9.69164e-10 1.50134e-10)
(0 0 0)
(0 0 0)
(0 0 0)
(-3.72978e-10 -8.52081e-10 1.38061e-10)
(3.93426e-10 -1.15599e-09 1.46756e-10)
(2.03721e-10 -1.16712e-09 1.43114e-10)
(-8.41419e-11 -1.11918e-09 1.41205e-10)
(-3.53904e-10 -1.07559e-09 1.37415e-10)
(-4.76623e-10 -1.01922e-09 1.36289e-10)
(2.15202e-11 4.92998e-12 0)
(8.96588e-12 -9.53223e-12 0)
(5.82007e-13 -1.6743e-11 0)
(-3.38811e-12 -1.45152e-11 0)
(9.67118e-12 -1.15054e-11 0)
(5.77442e-11 -5.78624e-11 0)
(3.22272e-11 -8.22799e-11 0)
(4.36688e-12 -9.7131e-11 0)
(-1.30635e-11 -8.995e-11 0)
(-1.70038e-12 -7.64206e-11 0)
(9.34028e-11 -2.02197e-10 0)
(5.24846e-11 -2.19339e-10 0)
(9.35887e-12 -2.31013e-10 0)
(-2.19076e-11 -2.20235e-10 0)
(-2.48289e-11 -2.06134e-10 0)
(1.06362e-10 -3.52633e-10 0)
(5.8944e-11 -3.63249e-10 0)
(1.01941e-11 -3.6919e-10 0)
(-2.70262e-11 -3.54492e-10 0)
(-3.65525e-11 -3.38784e-10 0)
(1.15816e-10 -4.84351e-10 0)
(6.16707e-11 -4.97981e-10 0)
(5.20739e-12 -5.02029e-10 0)
(-3.98503e-11 -4.78516e-10 0)
(-5.57492e-11 -4.51426e-10 0)
(1.47242e-10 -6.03207e-10 0)
(7.73197e-11 -6.28119e-10 0)
(-6.12465e-12 -6.32393e-10 0)
(-7.78938e-11 -5.97303e-10 0)
(-1.08567e-10 -5.50182e-10 0)
(2.25634e-10 -7.51056e-10 0)
(1.20856e-10 -7.8245e-10 0)
(-2.43214e-11 -7.81083e-10 0)
(-1.56842e-10 -7.39203e-10 0)
(-2.20142e-10 -6.76258e-10 0)
(3.35537e-10 -9.84885e-10 0)
(1.80655e-10 -1.00001e-09 0)
(-5.00964e-11 -9.80159e-10 0)
(-2.65773e-10 -9.40062e-10 0)
(-3.74437e-10 -8.8181e-10 0)
(3.82924e-10 -1.14896e-09 0)
(2.07993e-10 -1.14584e-09 0)
(-7.37282e-11 -1.10574e-09 0)
(-3.38013e-10 -1.06525e-09 0)
(-4.68359e-10 -1.02316e-09 0)
)
;

boundaryField
{
    interface
    {
        type            calculated;
    }
    symmetry
    {
        type            symmetry;
    }
    bottom
    {
        type            calculated;
    }
}


// ************************************************************************* //
