/*--------------------------------*- C++ -*----------------------------------*\
| =========                 |                                                 |
| \\      /  F ield         | OpenFOAM: The Open Source CFD Toolbox           |
|  \\    /   O peration     | Version:  v1912                                 |
|   \\  /    A nd           | Website:  www.openfoam.com                      |
|    \\/     M anipulation  |                                                 |
\*---------------------------------------------------------------------------*/
FoamFile
{
    version     2.0;
    format      ascii;
    class       pointVectorField;
    location    "0.9/solid";
    object      pointD;
}
// * * * * * * * * * * * * * * * * * * * * * * * * * * * * * * * * * * * * * //

dimensions      [0 1 0 0 0 0 0];


internalField   nonuniform List<vector> 
405
(
(4.04485e-08 4.37941e-08 4.19799e-08)
(8.74094e-09 2.92833e-08 4.48802e-08)
(-7.14318e-11 2.43314e-08 4.22283e-08)
(-8.57683e-09 2.86026e-08 4.36984e-08)
(-3.80624e-08 4.22038e-08 4.05909e-08)
(7.0114e-08 5.4514e-08 7.82877e-08)
(2.42738e-08 4.99326e-08 1.04322e-07)
(3.7479e-11 4.19765e-08 9.88041e-08)
(-2.34749e-08 4.86234e-08 1.01912e-07)
(-6.59218e-08 5.22415e-08 7.60808e-08)
(8.1468e-08 3.19467e-08 1.03528e-07)
(3.22554e-08 3.17629e-08 1.28861e-07)
(4.71923e-10 2.7438e-08 1.22783e-07)
(-3.04783e-08 3.05607e-08 1.26356e-07)
(-7.61245e-08 2.98821e-08 1.01141e-07)
(8.34887e-08 1.17601e-08 1.21606e-07)
(3.31671e-08 1.38249e-08 1.47179e-07)
(9.77343e-10 1.16999e-08 1.40441e-07)
(-3.03798e-08 1.27068e-08 1.44586e-07)
(-7.70722e-08 9.83975e-09 1.19122e-07)
(8.44755e-08 -4.80903e-09 1.37896e-07)
(3.30549e-08 -2.78792e-09 1.6394e-07)
(1.46651e-09 -4.58017e-09 1.56615e-07)
(-2.9284e-08 -3.85559e-09 1.61269e-07)
(-7.70061e-08 -6.63861e-09 1.35322e-07)
(8.85029e-08 -2.09457e-08 1.55212e-07)
(3.48783e-08 -2.00783e-08 1.82006e-07)
(1.92352e-09 -2.23746e-08 1.74202e-07)
(-3.01826e-08 -2.11029e-08 1.7925e-07)
(-8.00355e-08 -2.26837e-08 1.52527e-07)
(9.84655e-08 -4.26941e-08 1.75265e-07)
(4.05639e-08 -4.26984e-08 2.03475e-07)
(2.32602e-09 -4.48903e-08 1.95575e-07)
(-3.50493e-08 -4.36471e-08 2.00618e-07)
(-8.91022e-08 -4.42774e-08 1.72441e-07)
(1.15204e-07 -8.89082e-08 1.97467e-07)
(4.99527e-08 -8.77669e-08 2.29273e-07)
(2.61514e-09 -8.75712e-08 2.22473e-07)
(-4.38144e-08 -8.83162e-08 2.26335e-07)
(-1.05091e-07 -8.98628e-08 1.94509e-07)
(1.1307e-07 -1.48254e-07 1.97398e-07)
(5.54451e-08 -1.579e-07 2.07695e-07)
(2.8574e-09 -1.54179e-07 2.03449e-07)
(-4.87856e-08 -1.57056e-07 2.05767e-07)
(-1.0348e-07 -1.47615e-07 1.94947e-07)
(4.00321e-08 2.41521e-08 8.81436e-09)
(0 0 0)
(0 0 0)
(0 0 0)
(-3.69308e-08 2.29368e-08 8.65008e-09)
(8.72889e-08 3.81246e-08 3.02221e-08)
(2.04226e-08 2.03878e-08 3.4401e-08)
(2.16559e-10 1.36279e-08 3.40572e-08)
(-1.93297e-08 1.93523e-08 3.41458e-08)
(-8.04459e-08 3.57618e-08 2.97781e-08)
(9.62556e-08 1.8001e-08 5.19536e-08)
(2.71349e-08 1.16978e-08 5.75204e-08)
(7.06156e-10 7.84839e-09 5.72233e-08)
(-2.49704e-08 1.0588e-08 5.71866e-08)
(-8.8199e-08 1.57629e-08 5.1362e-08)
(9.83831e-08 1.58068e-10 6.86181e-08)
(2.78545e-08 -1.64599e-09 7.43789e-08)
(1.2321e-09 -3.52111e-09 7.40134e-08)
(-2.46423e-08 -2.73023e-09 7.40225e-08)
(-8.91789e-08 -1.98644e-09 6.79729e-08)
(1.00091e-07 -1.48473e-08 8.3392e-08)
(2.78089e-08 -1.68589e-08 8.90235e-08)
(1.73891e-09 -1.84568e-08 8.84758e-08)
(-2.35776e-08 -1.79021e-08 8.86436e-08)
(-8.97481e-08 -1.69122e-08 8.26912e-08)
(1.05254e-07 -2.93475e-08 9.84573e-08)
(2.97383e-08 -3.40947e-08 1.03893e-07)
(2.21842e-09 -3.62756e-08 1.03129e-07)
(-2.45354e-08 -3.5092e-08 1.03473e-07)
(-9.38148e-08 -3.131e-08 9.76705e-08)
(1.17099e-07 -4.80946e-08 1.14767e-07)
(3.5557e-08 -5.58442e-08 1.20015e-07)
(2.65017e-09 -5.80869e-08 1.1913e-07)
(-2.94734e-08 -5.67656e-08 1.19536e-07)
(-1.04651e-07 -4.98814e-08 1.1386e-07)
(1.37684e-07 -8.88872e-08 1.30146e-07)
(4.50679e-08 -9.45652e-08 1.35321e-07)
(2.9744e-09 -9.43442e-08 1.34582e-07)
(-3.82869e-08 -9.5114e-08 1.34778e-07)
(-1.2435e-07 -9.00312e-08 1.29106e-07)
(1.15627e-07 -1.5635e-07 1.39112e-07)
(5.04908e-08 -1.88595e-07 1.4062e-07)
(3.15685e-09 -1.82322e-07 1.3991e-07)
(-4.32659e-08 -1.86719e-07 1.40071e-07)
(-1.04687e-07 -1.55278e-07 1.38149e-07)
(3.18356e-08 1.37066e-08 1.27721e-09)
(0 0 0)
(0 0 0)
(0 0 0)
(-2.87883e-08 1.26183e-08 1.29638e-09)
(6.8975e-08 1.87217e-08 1.03465e-08)
(1.36745e-08 5.56952e-09 1.59814e-08)
(2.78246e-10 -1.6809e-11 1.73044e-08)
(-1.24946e-08 4.69076e-09 1.59897e-08)
(-6.22384e-08 1.65603e-08 1.0354e-08)
(7.53716e-08 2.02846e-09 2.62816e-08)
(1.82401e-08 -2.74186e-09 3.37476e-08)
(8.03399e-10 -5.98151e-09 3.56091e-08)
(-1.59332e-08 -3.76718e-09 3.37265e-08)
(-6.74089e-08 -1.09908e-10 2.6233e-08)
(7.66082e-08 -1.2656e-08 4.16345e-08)
(1.85136e-08 -1.40617e-08 4.94712e-08)
(1.35348e-09 -1.57363e-08 5.14682e-08)
(-1.51177e-08 -1.5115e-08 4.94297e-08)
(-6.74704e-08 -1.47776e-08 4.15395e-08)
(7.79374e-08 -2.54465e-08 5.55036e-08)
(1.8368e-08 -2.73501e-08 6.33441e-08)
(1.88122e-09 -2.89083e-08 6.53155e-08)
(-1.39129e-08 -2.83904e-08 6.32809e-08)
(-6.76164e-08 -2.75324e-08 5.53565e-08)
(8.29967e-08 -3.74765e-08 6.86222e-08)
(2.02488e-08 -4.2267e-08 7.63843e-08)
(2.38212e-09 -4.44782e-08 7.82754e-08)
(-1.47764e-08 -4.32787e-08 7.62875e-08)
(-7.151e-08 -3.9491e-08 6.84005e-08)
(9.53398e-08 -5.19761e-08 8.07779e-08)
(2.61755e-08 -5.99543e-08 8.83849e-08)
(2.83745e-09 -6.22404e-08 9.01947e-08)
(-1.97684e-08 -6.0909e-08 8.82437e-08)
(-8.27505e-08 -5.38485e-08 8.046e-08)
(1.17654e-07 -8.56018e-08 8.91631e-08)
(3.6053e-08 -9.13603e-08 9.65365e-08)
(3.18842e-09 -9.09968e-08 9.83018e-08)
(-2.88857e-08 -9.19688e-08 9.63594e-08)
(-1.04069e-07 -8.68714e-08 8.87564e-08)
(9.94216e-08 -1.46238e-07 9.28334e-08)
(4.1606e-08 -1.7493e-07 9.55625e-08)
(3.40374e-09 -1.67561e-07 9.72759e-08)
(-3.39249e-08 -1.73112e-07 9.54074e-08)
(-8.8119e-08 -1.45276e-07 9.24911e-08)
(2.68703e-08 9.57995e-09 9.13027e-10)
(0 0 0)
(0 0 0)
(0 0 0)
(-2.39107e-08 8.53387e-09 9.39552e-10)
(5.78495e-08 1.02301e-08 7.42662e-09)
(9.4053e-09 4.355e-11 1.10399e-08)
(2.82064e-10 -4.70798e-09 1.22995e-08)
(-8.2371e-09 -7.89964e-10 1.10631e-08)
(-5.12858e-08 8.13979e-09 7.48143e-09)
(6.28025e-08 -6.46757e-09 1.98424e-08)
(1.25489e-08 -1.022e-08 2.46678e-08)
(8.15475e-10 -1.29986e-08 2.64333e-08)
(-1.02403e-08 -1.12121e-08 2.46817e-08)
(-5.49994e-08 -8.56905e-09 1.98836e-08)
(6.38118e-08 -2.0339e-08 3.31899e-08)
(1.2609e-08 -2.15654e-08 3.82057e-08)
(1.37976e-09 -2.31032e-08 4.01008e-08)
(-9.18409e-09 -2.26084e-08 3.8202e-08)
(-5.48066e-08 -2.24638e-08 3.3195e-08)
(6.52295e-08 -3.15495e-08 4.56432e-08)
(1.2524e-08 -3.35091e-08 5.05733e-08)
(1.9248e-09 -3.50725e-08 5.246e-08)
(-8.00524e-09 -3.45604e-08 5.05477e-08)
(-5.50005e-08 -3.36741e-08 4.55997e-08)
(7.04994e-08 -4.10553e-08 5.67092e-08)
(1.44895e-08 -4.59706e-08 6.15097e-08)
(2.44457e-09 -4.82378e-08 6.33454e-08)
(-8.91317e-09 -4.70114e-08 6.14552e-08)
(-5.90456e-08 -4.31393e-08 5.6602e-08)
(8.32544e-08 -5.20261e-08 6.551e-08)
(2.05278e-08 -6.0164e-08 7.01885e-08)
(2.92002e-09 -6.25317e-08 7.19635e-08)
(-1.39707e-08 -6.11641e-08 7.01016e-08)
(-7.06174e-08 -5.39954e-08 6.53296e-08)
(1.06118e-07 -8.13697e-08 7.00278e-08)
(3.05212e-08 -8.7324e-08 7.46482e-08)
(3.29283e-09 -8.70799e-08 7.63837e-08)
(-2.31525e-08 -8.79895e-08 7.45412e-08)
(-9.2392e-08 -8.27548e-08 6.97887e-08)
(8.97459e-08 -1.38317e-07 7.10471e-08)
(3.62156e-08 -1.65659e-07 7.30566e-08)
(3.53482e-09 -1.58371e-07 7.48903e-08)
(-2.82758e-08 -1.63914e-07 7.29719e-08)
(-7.82204e-08 -1.37469e-07 7.08506e-08)
(2.43235e-08 8.01431e-09 1.2344e-09)
(0 0 0)
(0 0 0)
(0 0 0)
(-2.14327e-08 6.99036e-09 1.25315e-09)
(5.21792e-08 6.958e-09 6.89374e-09)
(7.5854e-09 -1.84771e-09 8.6112e-09)
(2.74131e-10 -6.13517e-09 9.36126e-09)
(-6.44722e-09 -2.6693e-09 8.62863e-09)
(-4.5763e-08 4.90009e-09 6.94181e-09)
(5.65323e-08 -1.002e-08 1.66778e-08)
(1.01421e-08 -1.33313e-08 1.89466e-08)
(8.04499e-10 -1.58594e-08 1.99936e-08)
(-7.87047e-09 -1.43164e-08 1.89629e-08)
(-4.88834e-08 -1.2113e-08 1.67305e-08)
(5.76582e-08 -2.38402e-08 2.73836e-08)
(1.02171e-08 -2.50808e-08 2.96643e-08)
(1.37444e-09 -2.656e-08 3.07735e-08)
(-6.81699e-09 -2.61271e-08 2.96691e-08)
(-4.87926e-08 -2.59809e-08 2.74151e-08)
(5.93689e-08 -3.42304e-08 3.75408e-08)
(1.02992e-08 -3.63287e-08 3.9678e-08)
(1.93128e-09 -3.79188e-08 4.07617e-08)
(-5.78076e-09 -3.73961e-08 3.96649e-08)
(-4.92493e-08 -3.63951e-08 3.7535e-08)
(6.49311e-08 -4.21755e-08 4.62263e-08)
(1.24122e-08 -4.72154e-08 4.82219e-08)
(2.46608e-09 -4.95348e-08 4.92588e-08)
(-6.8042e-09 -4.82848e-08 4.81862e-08)
(-5.35417e-08 -4.4322e-08 4.61716e-08)
(7.79053e-08 -5.12579e-08 5.24844e-08)
(1.8512e-08 -5.94714e-08 5.44129e-08)
(2.95807e-09 -6.19215e-08 5.54094e-08)
(-1.18865e-08 -6.05099e-08 5.43542e-08)
(-6.52723e-08 -5.33072e-08 5.23763e-08)
(1.00767e-07 -7.86001e-08 5.52097e-08)
(2.84514e-08 -8.47297e-08 5.71969e-08)
(3.34844e-09 -8.46808e-08 5.81888e-08)
(-2.0974e-08 -8.54382e-08 5.71259e-08)
(-8.69733e-08 -8.00728e-08 5.50615e-08)
(8.5476e-08 -1.33447e-07 5.53416e-08)
(3.42356e-08 -1.60104e-07 5.62719e-08)
(3.61038e-09 -1.53201e-07 5.74004e-08)
(-2.61443e-08 -1.58411e-07 5.62178e-08)
(-7.38224e-08 -1.32681e-07 5.52188e-08)
(2.30592e-08 7.40343e-09 1.21392e-09)
(0 0 0)
(0 0 0)
(0 0 0)
(-2.02144e-08 6.39529e-09 1.22621e-09)
(4.94574e-08 5.78652e-09 5.81356e-09)
(6.98478e-09 -2.49265e-09 6.51527e-09)
(2.66186e-10 -6.55834e-09 6.87722e-09)
(-5.87225e-09 -3.30892e-09 6.52752e-09)
(-4.31442e-08 3.75048e-09 5.84845e-09)
(5.3685e-08 -1.11774e-08 1.31293e-08)
(9.40603e-09 -1.43753e-08 1.40112e-08)
(7.91029e-10 -1.67978e-08 1.45068e-08)
(-7.172e-09 -1.53605e-08 1.40251e-08)
(-4.61515e-08 -1.32677e-08 1.31736e-08)
(5.50279e-08 -2.4958e-08 2.10145e-08)
(9.59002e-09 -2.62932e-08 2.18301e-08)
(1.36199e-09 -2.7766e-08 2.23386e-08)
(-6.22457e-09 -2.73466e-08 2.18377e-08)
(-4.62723e-08 -2.71144e-08 2.10489e-08)
(5.70314e-08 -3.49812e-08 2.85098e-08)
(9.84014e-09 -3.72164e-08 2.91916e-08)
(1.92573e-09 -3.88399e-08 2.9668e-08)
(-5.3417e-09 -3.82989e-08 2.91869e-08)
(-4.70026e-08 -3.71788e-08 2.85198e-08)
(6.283e-08 -4.22417e-08 3.47917e-08)
(1.20784e-08 -4.73678e-08 3.53651e-08)
(2.47115e-09 -4.97262e-08 3.58044e-08)
(-6.46792e-09 -4.846e-08 3.53445e-08)
(-5.15e-08 -4.44359e-08 3.47677e-08)
(7.58851e-08 -5.05963e-08 3.91167e-08)
(1.81945e-08 -5.88264e-08 3.96658e-08)
(2.97564e-09 -6.13321e-08 4.00833e-08)
(-1.15393e-08 -5.98931e-08 3.96296e-08)
(-6.32697e-08 -5.27038e-08 3.90559e-08)
(9.85752e-08 -7.70946e-08 4.09325e-08)
(2.8036e-08 -8.33182e-08 4.15661e-08)
(3.3793e-09 -8.34144e-08 4.19952e-08)
(-2.04994e-08 -8.40568e-08 4.15219e-08)
(-8.475e-08 -7.8629e-08 4.08446e-08)
(8.39135e-08 -1.30678e-07 4.09033e-08)
(3.38531e-08 -1.56896e-07 4.11796e-08)
(3.6555e-09 -1.50315e-07 4.17099e-08)
(-2.5672e-08 -1.55235e-07 4.11469e-08)
(-7.21865e-08 -1.29968e-07 4.08299e-08)
(2.24164e-08 7.15629e-09 9.17365e-10)
(0 0 0)
(0 0 0)
(0 0 0)
(-1.95996e-08 6.15882e-09 9.24846e-10)
(4.81316e-08 5.40263e-09 4.12749e-09)
(6.81597e-09 -2.69497e-09 4.39827e-09)
(2.60339e-10 -6.66197e-09 4.554e-09)
(-5.72104e-09 -3.50764e-09 4.40623e-09)
(-4.18826e-08 3.38185e-09 4.14973e-09)
(5.2396e-08 -1.13931e-08 8.98834e-09)
(9.25128e-09 -1.45974e-08 9.29654e-09)
(7.80374e-10 -1.69846e-08 9.50187e-09)
(-7.04508e-09 -1.55833e-08 9.30654e-09)
(-4.4937e-08 -1.3481e-08 9.01869e-09)
(5.39269e-08 -2.50615e-08 1.41283e-08)
(9.54226e-09 -2.64913e-08 1.43676e-08)
(1.35057e-09 -2.79772e-08 1.45668e-08)
(-6.20562e-09 -2.75506e-08 1.43745e-08)
(-4.5245e-08 -2.72286e-08 1.41547e-08)
(5.61406e-08 -3.49282e-08 1.89913e-08)
(9.91312e-09 -3.72618e-08 1.91386e-08)
(1.91784e-09 -3.89136e-08 1.93121e-08)
(-5.43583e-09 -3.83554e-08 1.91382e-08)
(-4.61744e-08 -3.71484e-08 1.90039e-08)
(6.20881e-08 -4.1981e-08 2.30299e-08)
(1.22311e-08 -4.71557e-08 2.31117e-08)
(2.46994e-09 -4.95384e-08 2.32615e-08)
(-6.62762e-09 -4.82635e-08 2.31015e-08)
(-5.0801e-08 -4.42076e-08 2.30217e-08)
(7.51588e-08 -5.01589e-08 2.57737e-08)
(1.83434e-08 -5.8379e-08 2.58517e-08)
(2.98287e-09 -6.0913e-08 2.59919e-08)
(-1.1677e-08 -5.94644e-08 2.58317e-08)
(-6.25593e-08 -5.2305e-08 2.57427e-08)
(9.76801e-08 -7.63248e-08 2.69497e-08)
(2.81024e-08 -8.25786e-08 2.70939e-08)
(3.39566e-09 -8.27533e-08 2.72469e-08)
(-2.05346e-08 -8.33366e-08 2.7069e-08)
(-8.38393e-08 -7.78995e-08 2.69019e-08)
(8.3367e-08 -1.2916e-07 2.69446e-08)
(3.39181e-08 -1.55076e-07 2.69737e-08)
(3.68131e-09 -1.48685e-07 2.71833e-08)
(-2.56856e-08 -1.53436e-07 2.69559e-08)
(-7.15985e-08 -1.28486e-07 2.69044e-08)
(2.21022e-08 7.05673e-09 4.84629e-10)
(0 0 0)
(0 0 0)
(0 0 0)
(-1.93004e-08 6.0653e-09 4.88187e-10)
(4.75008e-08 5.29388e-09 2.12406e-09)
(6.76799e-09 -2.74107e-09 2.21907e-09)
(2.56866e-10 -6.66654e-09 2.27596e-09)
(-5.68309e-09 -3.55155e-09 2.22302e-09)
(-4.12865e-08 3.2821e-09 2.13485e-09)
(5.18129e-08 -1.13441e-08 4.5455e-09)
(9.23382e-09 -1.45728e-08 4.64244e-09)
(7.73839e-10 -1.6951e-08 4.71428e-09)
(-7.04406e-09 -1.55589e-08 4.64763e-09)
(-4.43951e-08 -1.343e-08 4.56071e-09)
(5.34583e-08 -2.49061e-08 7.07242e-09)
(9.59207e-09 -2.63967e-08 7.13073e-09)
(1.34309e-09 -2.78954e-08 7.19593e-09)
(-6.27346e-09 -2.74595e-08 7.13469e-09)
(-4.4818e-08 -2.70789e-08 7.08642e-09)
(5.57901e-08 -3.4708e-08 9.45178e-09)
(1.00305e-08 -3.70971e-08 9.46523e-09)
(1.91192e-09 -3.87664e-08 9.51695e-09)
(-5.56777e-09 -3.81971e-08 9.46588e-09)
(-4.586e-08 -3.69409e-08 9.45964e-09)
(6.18144e-08 -4.17308e-08 1.14208e-08)
(1.23896e-08 -4.69282e-08 1.14048e-08)
(2.46757e-09 -4.93233e-08 1.14454e-08)
(-6.79302e-09 -4.8045e-08 1.14008e-08)
(-5.05527e-08 -4.39757e-08 1.1419e-08)
(7.48809e-08 -4.99106e-08 1.27575e-08)
(1.84949e-08 -5.8117e-08 1.27428e-08)
(2.98529e-09 -6.06624e-08 1.27802e-08)
(-1.18253e-08 -5.92129e-08 1.27342e-08)
(-6.22919e-08 -5.20786e-08 1.27448e-08)
(9.72928e-08 -7.59583e-08 1.33452e-08)
(2.82033e-08 -8.22141e-08 1.3365e-08)
(3.40334e-09 -8.24229e-08 1.34097e-08)
(-2.06209e-08 -8.2983e-08 1.3354e-08)
(-8.34451e-08 -7.75556e-08 1.33245e-08)
(8.31535e-08 -1.28402e-07 1.33584e-08)
(3.40079e-08 -1.54135e-07 1.33411e-08)
(3.69432e-09 -1.47833e-07 1.34096e-08)
(-2.57494e-08 -1.52507e-07 1.33334e-08)
(-7.13639e-08 -1.27746e-07 1.3341e-08)
(1.79207e-08 7.18237e-09 0)
(2.33899e-09 1.44206e-09 0)
(1.12533e-11 -9.14289e-10 0)
(-2.07062e-09 1.09942e-09 0)
(-1.57132e-08 6.13836e-09 0)
(3.02262e-08 3.14143e-09 0)
(6.7564e-09 -2.74566e-09 0)
(2.55723e-10 -6.65954e-09 0)
(-5.67474e-09 -3.5554e-09 0)
(-2.62986e-08 1.48576e-09 0)
(3.43468e-08 -1.185e-08 0)
(9.2338e-09 -1.45426e-08 0)
(7.71658e-10 -1.69194e-08 0)
(-7.04945e-09 -1.55288e-08 0)
(-2.92318e-08 -1.36486e-08 0)
(3.54164e-08 -2.49583e-08 0)
(9.61407e-09 -2.63353e-08 0)
(1.34053e-09 -2.78388e-08 0)
(-6.30152e-09 -2.73991e-08 0)
(-2.91309e-08 -2.6849e-08 0)
(3.69079e-08 -3.51104e-08 0)
(1.00737e-08 -3.7015e-08 0)
(1.90978e-09 -3.86901e-08 0)
(-5.61612e-09 -3.81171e-08 0)
(-2.94009e-08 -3.70585e-08 0)
(4.16324e-08 -4.31759e-08 0)
(1.24452e-08 -4.68381e-08 0)
(2.46654e-09 -4.9237e-08 0)
(-6.8514e-09 -4.79578e-08 0)
(-3.28785e-08 -4.51425e-08 0)
(5.26299e-08 -5.27933e-08 0)
(1.85477e-08 -5.80299e-08 0)
(2.9858e-09 -6.05781e-08 0)
(-1.18775e-08 -5.91293e-08 0)
(-4.26528e-08 -5.47046e-08 0)
(7.12066e-08 -7.89626e-08 0)
(2.82394e-08 -8.21027e-08 0)
(3.40556e-09 -8.23206e-08 0)
(-2.06527e-08 -8.28751e-08 0)
(-6.01006e-08 -8.03458e-08 0)
(7.333e-08 -1.1935e-07 0)
(3.38802e-08 -1.26798e-07 0)
(3.639e-09 -1.22737e-07 0)
(-2.57528e-08 -1.26221e-07 0)
(-6.25269e-08 -1.19156e-07 0)
)
;

boundaryField
{
    interface
    {
        type            calculated;
    }
    symmetry
    {
        type            symmetry;
    }
    bottom
    {
        type            calculated;
    }
}


// ************************************************************************* //
