/*--------------------------------*- C++ -*----------------------------------*\
| =========                 |                                                 |
| \\      /  F ield         | OpenFOAM: The Open Source CFD Toolbox           |
|  \\    /   O peration     | Version:  v1912                                 |
|   \\  /    A nd           | Website:  www.openfoam.com                      |
|    \\/     M anipulation  |                                                 |
\*---------------------------------------------------------------------------*/
FoamFile
{
    version     2.0;
    format      ascii;
    class       volSymmTensorField;
    location    "0.9/solid";
    object      sigma;
}
// * * * * * * * * * * * * * * * * * * * * * * * * * * * * * * * * * * * * * //

dimensions      [1 -1 -2 0 0 0 0];


internalField   nonuniform List<symmTensor> 
256
(
(-131167 36028.3 -12636.1 549631 42045.5 -137781)
(104467 -4496.28 -5453.99 360020 41678.3 -185724)
(106842 2076.06 5053.93 355711 41536.4 -179974)
(-98707.9 -35474.1 12338.9 535774 41607.3 -120738)
(-156156 1089.3 -19649.1 227327 7408.45 -155431)
(-8566.16 -5596.46 -9172.51 137349 9123.29 -225629)
(-3859.75 4750.09 8694.35 136815 9190.97 -218980)
(-120705 -1287.24 19227.8 226192 7509.9 -137303)
(-156828 -4902.98 -21360.6 214868 1307.88 -155528)
(-27567.3 -5646.64 -10181.1 92390.5 1533.26 -236332)
(-22827.4 5302.96 9761.29 92345 1579.13 -229475)
(-121173 4734.1 20935.4 213735 1378.4 -137180)
(-152361 -3514.62 -22300.2 233577 2451.59 -154581)
(-19642.8 -4455.95 -10684.4 76387 1827.23 -241746)
(-14947.4 4199.12 10305.2 76360.1 1831.79 -234757)
(-116282 3418.73 21884.3 231984 2427.29 -135969)
(-155827 -327.516 -23274.2 238917 6217.11 -160727)
(-17782.7 -2255.8 -11230.9 61298.1 5336.02 -253374)
(-13034.1 1988.19 10861.8 61246.8 5311.23 -246249)
(-119094 242.428 22863.7 237218 6115.92 -141760)
(-174411 5906.17 -24058.3 209695 13222.3 -177982)
(-38487.7 1788.3 -11713.1 28228.3 12684.3 -278132)
(-33654.5 -2192.72 11330.7 28295.4 12632.5 -270842)
(-136929 -6043.75 23649.2 208389 13048.1 -158540)
(-200087 16362.3 -23586.6 95593 23328.9 -198643)
(-71866.3 7841.7 -11525.9 -63744.9 24427.4 -307787)
(-66859.5 -8563.06 11108.9 -62584.4 24338.3 -300270)
(-161651 -16562.3 23175.8 97313.6 23067.1 -178566)
(-116628 20978.9 -20937.7 -113910 26938.1 -113529)
(63858.1 10296.5 -10283.2 -207085 29600.8 -206559)
(68521.3 -9861.84 9828.61 -200207 29507 -199747)
(-78472.1 -20574.6 20531.9 -95463.1 26692.4 -95292.4)
(-184963 21774.1 -10080.9 270297 8831.22 80721)
(-30907.4 -8476.79 -3465.23 64819 24332.3 -36583.7)
(-28381.6 7686.33 3771.99 61707.8 24653.2 -36703.6)
(-152890 -20622.9 10151 259022 9643.26 80389.6)
(-216293 -1609.74 -15842 98174.2 10125.2 6130.4)
(-138111 -6243.17 -6950.91 -38048.3 18391.2 -138615)
(-133072 6247.2 7344.27 -38252.4 18540.2 -137009)
(-180978 1713.83 15893.9 97442.8 10445.2 9087.51)
(-223449 -5190.82 -16815 76392.6 8459.51 -6906.01)
(-167638 -5385.25 -7666.98 -93445.1 11012.4 -171566)
(-162438 5411.44 8143.78 -92768.9 11080.6 -169707)
(-187703 5151.19 16875.7 76598.8 8569.35 -3862.91)
(-224840 -3687.55 -17154 74652.8 8869.51 -6345.63)
(-171001 -4203.1 -7783.78 -129674 9049.57 -184016)
(-165785 4143.86 8349.25 -128724 9055.89 -182123)
(-188545 3668.68 17240.7 74973.5 8817.49 -3422.2)
(-233596 -599.886 -17673.1 70113.6 13918.2 -9980.08)
(-179110 -2194.94 -8092.15 -157191 13282.2 -198616)
(-173814 2078.11 8703.7 -156186 13231.6 -196705)
(-196536 587.011 17780.2 70479 13708.8 -7074.42)
(-259100 5951.38 -18080.5 45665.3 22252.5 -26243.6)
(-210213 1825.04 -8432.71 -188620 21430.2 -227128)
(-204817 -2095.53 9042.38 -187530 21330.1 -225181)
(-221151 -6011.84 18198.7 46312.5 21901.8 -23234.1)
(-293855 17699.9 -17671.9 -43620 28649.5 -44777.9)
(-251311 8314.99 -8318.75 -253842 28428.2 -254441)
(-245745 -8954.49 8905.58 -251790 28296.7 -252411)
(-254819 -17835.8 17802.5 -40243.2 28218.4 -41466.3)
(-200417 23612.8 -16312.4 -198979 23459.4 95505.5)
(-71675.3 11531.1 -7840.1 -308183 24539.9 -63179.1)
(-66639.6 -11122.3 8491.24 -300559 24453.2 -62043.4)
(-161734 -23196.3 16500.3 -178585 23205.3 97146.8)
(-168682 11737.2 -4295.19 175459 18260.7 122724)
(-36179.6 -12933.3 -692.789 -10975.2 33600 -3900.73)
(-33639.3 12464.3 797.289 -13702.3 33710.5 -4626.5)
(-137560 -10502.6 4294.74 165011 18594.4 120625)
(-182584 -3256.87 -6617.46 67947.4 21767.8 92794.1)
(-105448 -7125.72 -2018.63 -67337 29656.4 -70483.9)
(-100603 7453.52 2121.95 -67627.8 29710.4 -69832.1)
(-148526 3484.94 6605.48 66889.5 21893.4 93101.6)
(-186853 -5036.01 -6653.27 63798.3 20265.4 76493.1)
(-126913 -5178.07 -2155.27 -102477 22746.7 -108290)
(-121926 5434.48 2267.51 -101942 22761.9 -107361)
(-152352 5084.82 6643.07 63608.4 20259.8 76937.4)
(-188471 -3602.65 -6416.75 67776.5 19235.4 71237.9)
(-129929 -4053.84 -1962.7 -129436 19462.6 -127694)
(-124922 4131.59 2114.42 -128589 19436.7 -126717)
(-153390 3638.41 6421.05 67799.2 19109.5 71587.8)
(-197277 -654.715 -6351.83 69140.6 21502.1 65135.1)
(-138110 -2254.69 -1925.11 -149850 20992.6 -146367)
(-133007 2209.4 2107.2 -148915 20922.5 -145375)
(-161352 677.763 6371.05 69262.1 21249.1 65442.9)
(-222761 6070.3 -6312.88 54815.2 24705.7 50413.7)
(-168422 1775.28 -2000.26 -170867 23947.2 -174733)
(-163188 -2025.28 2188.64 -169845 23841.8 -173711)
(-185787 -6106.66 6343.94 55194.5 24347.8 50785.3)
(-259216 18119.8 -6189.83 -23939.3 23143.8 43417.6)
(-209304 8427.33 -2068.37 -225244 22303.9 -190212)
(-203854 -9094.51 2266.11 -223264 22194.6 -189133)
(-220922 -18244.7 6241.72 -20865.8 22772.7 44000.4)
(-174717 24093.8 -6108.09 -178159 13738.9 210457)
(-37145.5 11714.6 -2050.62 -278245 13197.6 29703)
(-32232.8 -11336.3 2353.48 -270785 13145.7 29734.7)
(-136655 -23674.9 6227.58 -158242 13567.9 209018)
(-154573 7556.38 -1145.49 138258 21444.3 117956)
(-31497.4 -14460.6 632.266 -31607.8 30937.2 -3530.35)
(-28997.1 14000.5 -601.649 -34235.8 30973.5 -4228.57)
(-124204 -6358.93 1125.39 128082 21612.1 115880)
(-159019 -3645.59 -1533.28 51519.5 25931 110497)
(-81166.4 -7276.72 701.985 -76938.1 30717 -49580)
(-76433.5 7655.9 -705.136 -77229.7 30725 -49029.6)
(-125834 3894.25 1492.29 50390.7 25969.7 110482)
(-161013 -4585.24 -1181.42 57607.8 25785.1 95714.4)
(-96506.8 -4847.24 908.634 -99703.6 27147 -85146.9)
(-91635 5184.11 -936.366 -99217.7 27132.2 -84324.7)
(-127385 4669.77 1133.72 57270.1 25727.9 95826)
(-162582 -3238.72 -778.177 70319 24342.5 85278.4)
(-98542.6 -3785.76 1186.64 -115176 24233.2 -109171)
(-93644.4 3930.86 -1210.04 -114390 24192.4 -108275)
(-128344 3304.12 734.227 70182.3 24197.7 85361.3)
(-171432 -453.684 -509.914 78926.5 23536.2 75729)
(-106497 -2170 1348.82 -127014 23008.8 -131267)
(-101489 2157.94 -1358.68 -126133 22940.2 -130340)
(-136284 495.273 474.066 78901.3 23305.2 75805.7)
(-196585 6114.16 -378.455 69720.1 21701 63424.3)
(-135872 1682.81 1356.87 -142753 21121.1 -157323)
(-130708 -1937.09 -1355.43 -141770 21033.8 -156363)
(-160269 -6141.9 353.131 69966.2 21409.2 63552.2)
(-232798 17755.2 -483.832 -6628.18 15708.5 67537)
(-175474 8066.66 1184.2 -196006 15015.5 -161730)
(-170058 -8763.44 -1157.07 -194049 14936.7 -160735)
(-194980 -17877.3 479.906 -3673.06 15434.2 67788.1)
(-154662 23378.1 -748.809 -160367 7301.31 243681)
(-12522.1 11246.8 1132.79 -252961 6497.6 64037.5)
(-7634.49 -10884.7 -1007.19 -245582 6465.44 63912)
(-116945 -22955.8 801.63 -140725 7186.79 241705)
(-146993 6318.25 -144.624 121470 19532.3 108302)
(-30093 -14353 770.038 -38403.7 24273 -5895.91)
(-27637.8 13865.4 -758.507 -41005.2 24293.1 -6555.35)
(-117135 -5162.19 128.456 111433 19648.3 106328)
(-148616 -3464.34 67.8249 41464.5 23447.8 107062)
(-72770.3 -6995.47 1229.65 -80981.9 25691.5 -43248.8)
(-68120.8 7353.44 -1249.63 -81281.2 25691.5 -42700.6)
(-116003 3702.74 -103.166 40297 23474 107034)
(-149893 -4141.81 437.088 51083.4 24407.3 94567.1)
(-85581.5 -4522.57 1498.15 -98747.8 24845.7 -74985.7)
(-80793.2 4866.53 -1547.41 -98287.8 24826.5 -74181.6)
(-116838 4231.99 -482.276 50680.5 24354.3 94623.4)
(-151624 -2878.62 772.888 68635.8 23266.9 82657.5)
(-87291.9 -3540.65 1721.68 -107696 22940.1 -99594)
(-82470.8 3705.52 -1781.15 -106945 22901.9 -98710.1)
(-117937 2954.52 -820.241 68423.9 23145.4 82698.9)
(-160653 -244.134 1008.98 81482.2 20953.4 72163.3)
(-95283.7 -2067.55 1859.32 -114386 20490.9 -122174)
(-90343.5 2067.54 -1916.08 -113539 20435.2 -121249)
(-126008 294.147 -1053.15 81386.3 20773.5 72214.3)
(-185563 6071.4 1096.32 74205 16847 62718.5)
(-124092 1572.19 1865.88 -128224 16497.6 -145209)
(-118978 -1831.13 -1912.48 -127263 16433.2 -144250)
(-149670 -6094.73 -1132.72 74398.3 16633.3 62808.8)
(-221163 17246.1 935.985 -1165.02 10190.4 73384.2)
(-162619 7651.79 1706.51 -181890 9843.97 -143439)
(-157231 -8364.05 -1726.36 -179942 9789.96 -142456)
(-183655 -17365.7 -955.09 1753.29 9999.43 73542.3)
(-146696 22579 678.693 -152118 4079.61 249242)
(-6174.55 10757.1 1673.16 -240097 3545.09 78847.9)
(-1303.29 -10401.8 -1615.69 -232752 3524.32 78685.5)
(-109193 -22153.2 -655.971 -132594 4002.47 247079)
(-142755 6072.36 31.0664 113734 15171.7 101762)
(-30173.1 -13879.8 515.006 -40893.4 17314.7 -7357.98)
(-27749.8 13368.7 -509.3 -43483.7 17328.8 -8001.7)
(-113211 -4944.95 -40.8714 103791 15251.7 99849.7)
(-143927 -3193.27 266.364 36586.4 17852.6 101503)
(-70752.3 -6674.95 885.914 -82048.5 18733.7 -41047.4)
(-66160 7005.13 -902.112 -82362.3 18734.8 -40501.1)
(-111666 3418.78 -289.076 35385.8 17877.1 101491)
(-145189 -3825.51 523.334 47129.4 18962.5 90766.4)
(-82859.5 -4291.21 1081.22 -97927.6 18967.7 -69737.8)
(-78129.4 4620.48 -1120.7 -97491.5 18953.9 -68948.2)
(-112485 3911.28 -554.477 46676.1 18929.7 90801.7)
(-147123 -2633.56 737.926 66365.2 18210 79597.6)
(-84613.4 -3383.89 1218.29 -104254 17875.3 -92974.7)
(-79846.8 3546.72 -1270.37 -103530 17847.5 -92108)
(-113773 2710.33 -772.902 66100.2 18126.9 79604.3)
(-156279 -110.671 885.549 80813.2 15844 69987.2)
(-92688 -2006.18 1298.23 -108828 15518.4 -114358)
(-87796.1 2007.24 -1352.52 -108005 15479.5 -113450)
(-121940 163.403 -920.025 80670.1 15721.2 69999.5)
(-180977 6007.78 926.662 74187.4 11831.5 62879.9)
(-121112 1483.49 1295.37 -122078 11665.8 -134995)
(-116037 -1745.28 -1343.08 -121134 11622.7 -134052)
(-145338 -6028.57 -956.288 74347.9 11689.1 62919.4)
(-216050 16867.1 802.447 -122.104 6494.73 76474)
(-158900 7367.64 1193.02 -175626 6394.05 -130641)
(-153537 -8086.24 -1220.19 -173686 6359.11 -129678)
(-178729 -16984.2 -820.13 2775.37 6370.23 76551.5)
(-143697 22033.3 619.93 -148068 2408.65 249602)
(-6430.51 10437.5 1174.61 -233373 2149.87 87085.3)
(-1573.96 -10084.3 -1148.34 -226044 2136.84 86895.3)
(-106318 -21604.4 -609.729 -128604 2359.14 247314)
(-140284 6050.47 20.8705 110383 9528.01 98247.2)
(-30399.6 -13524.8 259.347 -41687.6 10429.5 -8169.46)
(-27994.8 12997.9 -256.312 -44271.2 10438.1 -8807.35)
(-110918 -4940.27 -25.8779 100500 9574.82 96367.7)
(-141531 -3008.67 148.315 34693.9 11014.7 97851.5)
(-70413.3 -6466.77 454.306 -81952.9 11316.6 -40406.7)
(-65854.2 6777.16 -463.595 -82277.6 11318.2 -39864)
(-109468 3225.29 -160.294 33473 11032.2 97852.3)
(-142919 -3642.8 284.382 45395.5 11756.9 88227.6)
(-82423.1 -4160.9 557 -97109 11665.2 -67248.4)
(-77727.1 4475.38 -580.535 -96690.3 11657.8 -66469.9)
(-110414 3723.45 -301.579 44907.8 11741 88255)
(-144999 -2497.85 395.55 64924.1 11322.7 78263.1)
(-84295 -3303.48 624.449 -102654 11098.6 -88961.3)
(-79560.6 3459.01 -657.102 -101948 11082.6 -88109.8)
(-111839 2572.66 -415.739 64623.4 11276.4 78246)
(-154209 -42.3012 469.765 79699 9700.8 69919.3)
(-92416.5 -1979.17 661.173 -106637 9519.15 -108953)
(-87553.3 1977.5 -696.715 -105830 9496.69 -108061)
(-120041 95.2466 -490.347 79525.3 9631.01 69897.7)
(-178748 5960.93 486.265 73270.5 7007.53 64321.8)
(-120590 1430.19 656.948 -119730 6946.61 -128089)
(-115538 -1693.92 -689.184 -118798 6922.05 -127164)
(-143251 -5980.48 -504.351 73410.1 6926.83 64317.2)
(-213479 16647.2 416.164 -127.305 3701.01 79010.4)
(-157930 7215.29 605.875 -172871 3701.15 -122831)
(-152582 -7936.31 -625.828 -170937 3681.54 -121888)
(-176261 -16762.6 -427.431 2757.71 3630.97 79027.7)
(-142293 21730.7 309.736 -145872 1324.12 249815)
(-7635.01 10269.1 595.143 -229744 1225.44 91733.2)
(-2787.14 -9916.14 -584.291 -222424 1218.25 91522)
(-104982 -21299.7 -305.207 -126439 1296.52 247445)
(-139103 6052.54 4.0263 109175 3241.01 96767.1)
(-30492.9 -13359.6 76.1138 -41850.4 3490.85 -8544.95)
(-28096.4 12824.8 -75.1231 -44430.5 3493.78 -9180.77)
(-109818 -4950.39 -5.55747 99321.4 3256.38 94902.6)
(-140429 -2926.36 40.4364 34137.3 3711.1 96207.4)
(-70360.8 -6374.88 133.009 -81697.9 3782.03 -40303.2)
(-65816.6 6675.44 -135.946 -82027.8 3782.76 -39762.7)
(-108456 3138.67 -44.1405 32907.6 3717.4 96215)
(-141898 -3563.46 81.3406 44831.8 3960.49 87124.3)
(-82387.4 -4106.15 163.375 -96607.3 3918.1 -66306.5)
(-77706.8 4412.45 -171.045 -96197.3 3915.86 -65533.7)
(-109482 3641.22 -86.7724 44327.3 3955.96 87149.6)
(-144045 -2439.96 114.929 64307.2 3816.19 77918.4)
(-84331.4 -3271.56 182.978 -101996 3739.77 -87143.4)
(-79611.5 3422.15 -193.888 -101300 3734.62 -86300)
(-110971 2513.23 -121.446 63988.6 3801.51 77890.1)
(-153271 -14.5553 137.01 79055.9 3251.1 70363.2)
(-92468.8 -1969.89 193.215 -105894 3193.98 -106313)
(-87618.5 1965.92 -205.333 -105096 3186.7 -105431)
(-119180 67.1768 -143.767 78866.9 3228.61 70323.5)
(-177727 5938.43 141.4 72673.4 2321.68 65486.1)
(-120519 1406.93 191.592 -118957 2307.93 -124745)
(-115477 -1671.79 -202.745 -118031 2299.98 -123831)
(-142293 -5957.51 -147.404 72802.7 2295.61 65457.5)
(-212295 16550.5 119.415 -226.508 1213.15 80516.2)
(-157649 7152.54 176.682 -171808 1222.77 -119218)
(-152307 -7874.42 -183.809 -169877 1216.45 -118286)
(-175122 -16664.9 -123.217 2652.29 1190.57 80501.9)
(-141630 21600.4 84.4971 -144856 427.779 250121)
(-8301.57 10199.8 172.914 -228109 404.203 93836.8)
(-3457.3 -9846.65 -170.025 -220793 401.903 93614.3)
(-104346 -21168.3 -83.195 -125435 418.921 247710)
)
;

boundaryField
{
    interface
    {
        type            calculated;
        value           nonuniform List<symmTensor> 
192
(
(-38.5896 0.343648 2.62876 963419 42045.5 276007)
(-40.222 0.365463 4.27284 600771 7408.45 218012)
(-41.9359 0.134843 4.91504 591393 1307.88 220997)
(-43.1158 -0.306871 5.12596 617931 2451.59 229773)
(-43.5706 -0.709795 5.11782 638188 6217.11 238544)
(-44.5921 -1.4122 5.01535 634797 13222.3 247121)
(-43.0891 -1.95264 4.65665 545495 23328.9 251260)
(-46.7583 -4.4439 4.38242 259434 26938.1 259815)
(-37.6379 0.247739 1.28807 697481 8831.22 507905)
(-38.3542 0.293664 2.23713 511347 10125.2 419303)
(-39.4005 0.0980191 2.53744 498473 8459.51 415174)
(-40.1952 -0.347048 2.58438 508492 8869.51 427494)
(-40.3579 -0.767733 2.50825 523500 13918.2 443407)
(-41.2385 -1.53735 2.38341 532638 22252.5 460729)
(-39.4356 -2.13275 2.15103 480587 28649.5 479429)
(-43.1698 -4.74164 1.96967 251555 23459.4 546040)
(-40.1461 0.21253 1.00746 562489 18260.7 509753)
(-40.7707 0.25764 1.72508 440913 21767.8 465760)
(-41.7977 0.0708247 1.94645 444746 20265.4 457441)
(-42.6053 -0.390852 1.97509 460411 19235.4 463873)
(-42.6974 -0.845026 1.91027 481482 21502.1 477476)
(-43.5063 -1.69395 1.80879 501621 24705.7 497220)
(-41.2734 -2.37161 1.64322 463753 23143.8 531109)
(-44.7628 -5.14772 1.50741 248227 13738.9 636843)
(-40.3799 0.15929 0.60863 495126 21444.3 474824)
(-40.8243 0.181024 1.10212 392161 25931 451138)
(-41.6376 -0.00817801 1.24697 405051 25785.1 443158)
(-42.3148 -0.470864 1.25211 429197 24342.5 444156)
(-42.2775 -0.938221 1.19274 457435 23536.2 454238)
(-42.9999 -1.81924 1.11185 482668 21701 476372)
(-40.6081 -2.53254 1.00829 448024 15708.5 522190)
(-44.0122 -5.34433 0.92968 240492 7301.31 644540)
(-41.1513 0.133332 0.4421 460157 19532.3 446989)
(-41.547 0.132361 0.800437 363470 23447.8 429067)
(-42.2634 -0.067255 0.906833 379442 24407.3 422926)
(-42.8834 -0.535826 0.910157 408371 23266.9 422393)
(-42.766 -1.01805 0.866163 440858 20953.4 431539)
(-43.4113 -1.92656 0.805991 467881 16847 456395)
(-40.8511 -2.67225 0.734325 434185 10190.4 508734)
(-44.1031 -5.52168 0.678518 233339 4079.61 634698)
(-41.3651 0.112933 0.267136 441577 15171.7 429605)
(-41.7142 0.0926965 0.500787 347977 17852.6 412893)
(-42.3466 -0.116708 0.571011 364798 18962.5 408435)
(-42.9115 -0.58883 0.571588 395434 18210 408667)
(-42.7328 -1.07909 0.540877 429532 15844 418705)
(-43.328 -2.00078 0.500153 457047 11831.5 445739)
(-40.6873 -2.76287 0.456481 424180 6494.73 500776)
(-43.8757 -5.62977 0.424429 228385 2408.65 626055)
(-41.6208 0.102878 0.155907 431981 9528.01 419845)
(-41.9542 0.0693175 0.291995 340113 11014.7 403271)
(-42.542 -0.148079 0.333246 357116 11756.9 399948)
(-43.0766 -0.623843 0.333699 388073 11322.7 401412)
(-42.86 -1.12035 0.315975 422490 9700.8 412710)
(-43.4185 -2.05117 0.291914 450071 7007.53 441123)
(-40.7154 -2.82479 0.267347 417909 3701.01 497047)
(-43.8469 -5.70517 0.248143 225373 1324.12 621060)
(-41.686 0.0967295 0.045779 427887 3241.01 415480)
(-42.008 0.0562463 0.0890622 336816 3711.1 398886)
(-42.5711 -0.164858 0.102381 353832 3960.49 396125)
(-43.0885 -0.641673 0.102338 384752 3816.19 398363)
(-42.8549 -1.14061 0.096529 419132 3251.1 410440)
(-43.3958 -2.07458 0.0886428 446688 2321.68 439501)
(-40.6736 -2.85343 0.0814085 414910 1213.15 495653)
(-43.7762 -5.73919 0.075432 223945 427.779 618922)
(296423 36028.3 -3.63367 977221 -0.888291 -13.3349)
(226689 1089.3 -6.21418 610172 -1.11362 -9.398)
(229258 -4902.98 -7.35666 600954 -0.994338 -5.34554)
(243169 -3514.62 -7.83364 629106 -0.765415 -3.5043)
(255681 -327.516 -8.0271 650425 -0.661461 -2.89513)
(262247 5906.17 -8.1823 646353 -0.700353 -3.34238)
(259103 16362.3 -8.37634 554783 -0.845665 -5.05724)
(263951 20978.9 -9.25568 266670 -1.04957 -6.47674)
(553405 -4496.28 -2.11459 808959 -0.530622 -16.9894)
(426489 -5596.46 -4.07029 572404 -0.86983 -16.128)
(418098 -5646.64 -4.86848 538056 -0.825492 -14.718)
(439523 -4455.95 -5.17146 535553 -0.564837 -14.1466)
(461877 -2255.8 -5.29771 540958 -0.374959 -13.9209)
(473872 1788.3 -5.4617 540589 -0.266719 -14.0967)
(474192 7841.7 -5.81953 482314 -0.284482 -14.6383)
(527932 10296.5 -6.96358 256989 -0.354915 -14.9058)
(544507 2076.06 -2.07211 793376 -0.391033 -14.2186)
(419580 4750.09 -4.0352 560254 -0.728989 -13.5767)
(410822 5302.96 -4.86243 525994 -0.712742 -12.2484)
(431891 4199.12 -5.18237 523198 -0.424734 -11.6624)
(454038 1988.19 -5.30761 528319 -0.174348 -11.4532)
(465845 -2192.72 -5.44795 527795 0.0358295 -11.6242)
(466033 -8563.06 -5.75916 470308 0.146988 -12.2317)
(520249 -9861.84 -6.86812 251521 0.168966 -12.9512)
(295839 -35474.1 -2.21477 930322 -0.320456 -14.4099)
(229559 -1287.24 -4.51027 576456 -0.646101 -14.054)
(231505 4734.1 -5.55142 566413 -0.632802 -12.8781)
(245057 3418.73 -5.97351 593323 -0.319221 -12.4003)
(257519 242.428 -6.13618 613831 -0.0378725 -12.3037)
(264071 -6043.75 -6.31902 609389 0.221885 -12.4882)
(261066 -16562.3 -6.60631 520031 0.407729 -12.9462)
(268086 -20574.6 -7.78606 251095 0.580427 -13.5381)
(-7.14629 0.691246 0.545976 889075 41607.3 232562)
(-4.83976 0.98066 1.11772 537124 7509.9 173628)
(-2.23464 0.806715 1.31282 526902 1378.4 175986)
(-0.776612 0.326029 1.42115 551858 2427.29 183905)
(-0.146728 0.047168 1.51639 570769 6115.92 191791)
(1.40039 -0.346059 1.77349 566503 13048.1 199575)
(1.07954 -0.320765 2.00085 478812 23067.1 202932)
(9.47015 -2.47604 2.60998 209268 26692.4 209439)
(-10.7994 0.274611 -0.324608 626549 9643.26 447916)
(-10.3715 0.454063 -0.360416 449040 10445.2 360684)
(-9.5419 0.387443 -0.456672 436081 8569.35 355620)
(-8.91235 0.114828 -0.476784 444946 8817.49 366550)
(-8.65523 0.0400048 -0.419159 458563 13708.8 381009)
(-7.14094 -0.180264 -0.2003 466424 21901.8 396877)
(-7.11427 0.0628995 0.0861255 415376 28218.4 414153)
(1.11424 -1.89905 0.520629 203090 23205.3 478822)
(-11.0691 0.152174 -0.209877 494240 18594.4 449854)
(-10.7665 0.251304 -0.162192 380341 21893.4 406553)
(-10.1267 0.229654 -0.142578 383988 20259.8 397317)
(-9.48777 0.0671172 -0.0887992 398545 19109.5 402333)
(-9.15584 0.116022 0.00249392 418135 21249.1 414316)
(-7.32513 -0.00111649 0.188179 436679 24347.8 432270)
(-7.01163 0.352896 0.385911 399352 22772.7 464218)
(1.65345 -1.66643 0.641626 200104 13567.9 567364)
(-12.3038 0.0669922 -0.221249 428576 21612.1 416374)
(-12.2049 0.107448 -0.177422 333029 25969.7 393120)
(-11.8735 0.117492 -0.132856 345659 25727.9 384215)
(-11.3335 0.0485427 -0.0713574 368644 24197.7 383823)
(-10.9903 0.20151 0.00815203 395301 23305.2 392206)
(-8.95862 0.177161 0.141315 418742 21409.2 412328)
(-8.34496 0.602037 0.271892 384322 15434.2 455784)
(0.488519 -1.40082 0.426644 192622 7186.79 575052)
(-12.5894 0.0520349 -0.104068 394708 19648.3 389603)
(-12.4834 0.0720556 -0.0263869 305303 23474 372041)
(-12.1916 0.100019 0.0477512 320990 24354.3 364933)
(-11.6107 0.0782514 0.115671 348719 23145.4 362994)
(-11.1987 0.284277 0.181376 379550 20773.5 370378)
(-9.02464 0.301363 0.266878 404659 16633.3 393069)
(-8.28482 0.743588 0.334287 370993 9999.43 442782)
(0.623969 -1.29042 0.40646 185692 4002.47 565365)
(-12.9943 0.0470499 -0.0700492 376814 15251.7 372872)
(-12.892 0.0612282 -0.00764325 290393 17877.1 356497)
(-12.6278 0.102606 0.0549458 306910 18929.7 351035)
(-12.0255 0.109932 0.107178 336320 18126.9 349824)
(-11.5694 0.348991 0.153019 368713 15721.2 358042)
(-9.30636 0.391463 0.205664 394238 11689.1 382809)
(-8.47456 0.839811 0.242995 361289 6370.23 435065)
(0.489729 -1.20928 0.280986 180870 2359.14 556787)
(-13.1149 0.0502452 -0.0259221 367617 9574.82 363485)
(-12.9974 0.0653765 0.0185991 282860 11032.2 347239)
(-12.7228 0.114406 0.0610185 299542 11741 342889)
(-12.0929 0.135035 0.0939897 329257 11276.4 342879)
(-11.6041 0.38908 0.120906 361941 9631.01 352314)
(-9.2915 0.441427 0.148318 387489 6926.83 378396)
(-8.42183 0.888983 0.165371 355182 3630.97 431452)
(0.567928 -1.17488 0.180384 177928 1296.52 551811)
(-13.2157 0.0510187 -0.0117384 363707 3256.38 359288)
(-13.0955 0.067281 0.00215656 279713 3717.4 343020)
(-12.8185 0.12038 0.0162769 296400 3955.96 339222)
(-12.1779 0.14746 0.027144 326067 3801.51 339969)
(-11.673 0.408478 0.0360814 358703 3228.61 350160)
(-9.33772 0.465863 0.0448905 384206 2295.61 376860)
(-8.44014 0.912846 0.0507849 352254 1190.57 430104)
(0.558763 -1.1563 0.0555516 176527 418.921 549673)
(264783 9.36542 -20937.7 -5.82371 -0.884379 267882)
(260012 8.52794 -16312.4 -4.08214 -0.679044 555934)
(263715 8.40609 -6108.09 -1.67885 -0.4683 648889)
(259278 8.36716 -748.809 -0.237006 -0.311932 657621)
(251794 8.41058 678.693 0.885062 -0.221352 647732)
(245357 8.43819 619.93 1.66618 -0.13832 638655)
(241198 8.46718 309.736 2.16122 -0.0821974 633307)
(239249 8.47937 84.4971 2.39833 -0.0252552 631000)
(528738 7.03499 -10283.2 -14.3849 -0.152484 258322)
(475514 5.89667 -7840.1 -13.9754 -0.0727744 484010)
(476759 5.55284 -2050.62 -13.022 0.0314146 543608)
(469269 5.41629 1132.79 -12.3636 0.0582034 545829)
(455980 5.37864 1673.16 -11.7895 0.060085 541002)
(444020 5.35583 1174.61 -11.3764 0.0501749 537536)
(436067 5.35149 595.143 -11.1049 0.0312299 535435)
(432277 5.34828 172.914 -10.9631 0.0116447 534415)
(520943 6.93884 9828.61 -12.4643 0.393358 252675)
(467195 5.81796 8491.24 -11.5999 0.386759 471792)
(468512 5.51086 2353.48 -10.589 0.369296 530480)
(461118 5.40125 -1007.19 -9.93879 0.302365 532665)
(447864 5.37666 -1615.69 -9.3568 0.239693 527853)
(435914 5.36153 -1148.34 -8.97608 0.168691 524384)
(427964 5.36053 -584.291 -8.71263 0.100925 522273)
(424175 5.35814 -170.025 -8.59255 0.0332772 521246)
(268557 7.81805 20531.9 -13.108 0.810779 251737)
(261655 6.62331 16500.3 -12.4175 0.656725 520535)
(265248 6.33217 6227.58 -11.6677 0.559038 610921)
(260826 6.18595 801.63 -11.1476 0.439786 619476)
(253287 6.1514 -655.971 -10.6353 0.343456 609559)
(246802 6.12458 -609.729 -10.3212 0.237697 600434)
(242613 6.11964 -305.207 -10.0907 0.142993 595040)
(240652 6.11509 -83.195 -9.98738 0.0466574 592708)
)
;
    }
    symmetry
    {
        type            symmetry;
    }
    bottom
    {
        type            calculated;
        value           nonuniform List<symmTensor> 
32
(
(-724287 99389.3 -12636.1 246893 95605.6 -730902)
(-522233 65023.8 -10080.9 72184.4 180.088 -256549)
(-436917 41383 -4295.19 11077.6 8020.23 -145511)
(-398028 31162.6 -1145.49 -10122.3 15471.9 -125500)
(-378627 27550.1 -144.624 -19244.7 16414.4 -123332)
(-367941 26303.2 31.0664 -23184.6 13607.4 -123423)
(-361919 25808.3 20.8705 -24570.5 8810.92 -123388)
(-359136 25609 4.0263 -24911.5 3035.25 -123266)
(-256088 -1051.51 -5453.99 161908 87961.2 -546279)
(-142498 -8319.8 -3465.23 -12337.7 18137.3 -148174)
(-95271.5 -15473.3 -692.789 -53404.5 26912.6 -62992.7)
(-77950.8 -17974.4 632.266 -59813.8 27268.2 -49983.8)
(-72686.6 -18024.7 770.038 -61621.5 22340.8 -48489.4)
(-71424.1 -17508.7 515.006 -62817.3 16314.1 -48609)
(-71135 -17106.3 259.347 -63395.5 9963.79 -48904.8)
(-71037 -16918.9 76.1138 -63555 3357.38 -49089.1)
(-248720 -2889.35 5053.93 160245 87295.4 -535536)
(-138527 6227.79 3771.99 -15027 18542 -146849)
(-91679.2 13699.9 797.289 -55859.6 27081.1 -62666.4)
(-74485.6 16204.6 -601.649 -62235 27327.6 -49717)
(-69306.6 16230.7 -758.507 -64046.7 22370.8 -48224.1)
(-68097.3 15695.8 -509.3 -65241.8 16333.2 -48349.2)
(-67838.3 15280.9 -256.312 -65817.3 9975.09 -48650.8)
(-67753.9 15087.3 -75.1231 -65975 3361.15 -48838.2)
(-664254 -97427.9 12338.9 249833 93813.6 -686285)
(-472938 -62339.8 10151 70758.4 1218.97 -239659)
(-390053 -38711.2 4294.74 9706.79 8514.29 -131867)
(-352467 -28616.4 1125.39 -11590.5 15713.6 -112383)
(-333904 -25097.2 128.456 -20773.7 16567.2 -110441)
(-323725 -23907.4 -40.8714 -24717.4 13707.6 -110664)
(-317989 -23444.9 -25.8779 -26092 8868.33 -110703)
(-315335 -23260.5 -5.55747 -26424.6 3053.96 -110614)
)
;
    }
}


// ************************************************************************* //
