/*--------------------------------*- C++ -*----------------------------------*\
| =========                 |                                                 |
| \\      /  F ield         | OpenFOAM: The Open Source CFD Toolbox           |
|  \\    /   O peration     | Version:  v1912                                 |
|   \\  /    A nd           | Website:  www.openfoam.com                      |
|    \\/     M anipulation  |                                                 |
\*---------------------------------------------------------------------------*/
FoamFile
{
    version     2.0;
    format      ascii;
    class       volScalarField;
    location    "0.9/solid";
    object      sigmaHyd;
}
// * * * * * * * * * * * * * * * * * * * * * * * * * * * * * * * * * * * * * //

dimensions      [1 -1 -2 0 0 0 0];


internalField   nonuniform List<scalar> 
256
(
-717347
-389466
-381442
-669807
-1.09838e+06
-688781
-676556
-1.03712e+06
-1.15036e+06
-745371
-732444
-1.08716e+06
-1.17074e+06
-767207
-753986
-1.10633e+06
-1.21228e+06
-800540
-787075
-1.14663e+06
-1.30767e+06
-878814
-865012
-1.24058e+06
-1.54574e+06
-1.09208e+06
-1.07689e+06
-1.47459e+06
-2.11637e+06
-1.63616e+06
-1.61337e+06
-2.024e+06
-386286
-138307
-136329
-356713
-638049
-309125
-304095
-597859
-681523
-360332
-354723
-639832
-699323
-382879
-377056
-656653
-729790
-407819
-401844
-686073
-803283
-463627
-457423
-758256
-1.00915e+06
-633209
-625731
-960101
-1.54676e+06
-1.09242e+06
-1.07709e+06
-1.47498e+06
-302958
-88607.5
-87274.6
-276025
-475849
-188812
-185007
-439802
-507481
-226882
-222566
-470064
-522888
-246324
-241791
-484452
-549280
-267342
-262640
-509683
-614243
-314012
-309053
-573120
-803738
-463328
-457054
-758259
-1.30906e+06
-878708
-864638
-1.24073e+06
-280881
-82350.8
-81092.5
-254787
-425072
-159674
-156091
-390346
-450301
-189851
-185784
-414261
-463986
-206370
-202078
-426882
-488633
-225202
-220723
-450266
-549936
-267944
-263178
-509871
-730274
-407453
-401335
-685594
-1.21269e+06
-799024
-785140
-1.14506e+06
-272231
-81922.9
-80705.4
-246649
-406481
-151681
-148197
-372509
-428882
-177858
-173905
-393633
-441354
-192244
-188064
-405020
-464845
-209472
-205092
-427185
-524025
-250006
-245322
-484556
-698866
-384408
-378347
-654617
-1.1672e+06
-763644
-749814
-1.09988e+06
-267139
-81887.8
-80701.3
-241874
-397457
-148654
-145238
-363950
-418640
-172872
-168995
-383883
-430318
-185931
-181827
-394466
-452968
-202061
-197752
-415752
-510790
-241271
-236646
-471698
-682328
-372870
-366852
-638355
-1.14209e+06
-745072
-731275
-1.07495e+06
-263864
-81758.2
-80590.9
-238779
-392391
-147245
-143869
-359151
-413026
-170533
-166703
-378554
-424228
-182858
-178802
-388656
-446331
-198332
-194068
-409375
-503341
-236791
-232205
-464471
-673002
-366856
-360867
-629193
-1.12773e+06
-734920
-721144
-1.06069e+06
-262214
-81636.5
-80478.1
-237210
-389986
-146637
-143281
-356868
-410396
-169552
-165745
-376054
-421375
-181556
-177523
-385932
-443211
-196728
-192485
-406375
-499844
-234847
-230279
-461076
-668651
-364220
-358244
-624917
-1.12102e+06
-730314
-716548
-1.05402e+06
)
;

boundaryField
{
    interface
    {
        type            zeroGradient;
    }
    symmetry
    {
        type            symmetry;
    }
    bottom
    {
        type            zeroGradient;
    }
}


// ************************************************************************* //
