/*--------------------------------*- C++ -*----------------------------------*\
| =========                 |                                                 |
| \\      /  F ield         | OpenFOAM: The Open Source CFD Toolbox           |
|  \\    /   O peration     | Version:  v1912                                 |
|   \\  /    A nd           | Website:  www.openfoam.com                      |
|    \\/     M anipulation  |                                                 |
\*---------------------------------------------------------------------------*/
FoamFile
{
    version     2.0;
    format      ascii;
    class       volScalarField;
    location    "0.9/solid";
    object      T;
}
// * * * * * * * * * * * * * * * * * * * * * * * * * * * * * * * * * * * * * //

dimensions      [0 0 0 1 0 0 0];


internalField   nonuniform List<scalar> 
256
(
291.378
292.035
292.049
291.449
290.859
291.687
291.704
290.947
290.764
291.624
291.642
290.855
290.707
291.589
291.608
290.801
290.627
291.539
291.558
290.722
290.48
291.435
291.454
290.577
290.111
291.111
291.133
290.213
288.997
289.961
289.994
289.131
292.117
292.725
292.73
292.162
291.799
292.592
292.597
291.854
291.74
292.568
292.574
291.797
291.706
292.557
292.564
291.765
291.656
292.541
292.547
291.717
291.553
292.49
292.497
291.616
291.237
292.24
292.249
291.304
290.109
291.111
291.132
290.212
292.308
292.857
292.86
292.349
292.063
292.785
292.789
292.113
292.016
292.771
292.776
292.068
291.987
292.765
292.77
292.04
291.943
292.755
292.76
291.998
291.85
292.715
292.72
291.907
291.552
292.49
292.497
291.615
290.477
291.433
291.453
290.576
292.37
292.88
292.883
292.411
292.148
292.819
292.823
292.196
292.105
292.808
292.812
292.154
292.077
292.803
292.807
292.128
292.034
292.793
292.797
292.087
291.942
292.755
292.76
291.998
291.654
292.541
292.547
291.716
290.622
291.536
291.556
290.721
292.4
292.886
292.889
292.44
292.187
292.828
292.832
292.234
292.145
292.817
292.821
292.194
292.118
292.812
292.816
292.168
292.075
292.802
292.807
292.127
291.984
292.765
292.77
292.039
291.702
292.556
292.563
291.763
290.699
291.584
291.604
290.797
292.417
292.889
292.891
292.456
292.209
292.832
292.836
292.255
292.168
292.821
292.825
292.216
292.14
292.816
292.82
292.19
292.098
292.806
292.811
292.149
292.008
292.77
292.774
292.062
291.728
292.564
292.571
291.79
290.744
291.612
291.631
290.842
292.427
292.89
292.893
292.465
292.221
292.834
292.838
292.267
292.18
292.823
292.827
292.228
292.153
292.818
292.822
292.202
292.11
292.809
292.813
292.162
292.021
292.772
292.777
292.075
291.744
292.569
292.575
291.805
290.77
291.627
291.647
290.868
292.431
292.891
292.894
292.469
292.227
292.835
292.839
292.272
292.186
292.824
292.828
292.233
292.158
292.819
292.823
292.208
292.116
292.81
292.814
292.167
292.027
292.773
292.778
292.081
291.751
292.571
292.577
291.811
290.782
291.634
291.654
290.88
)
;

boundaryField
{
    interface
    {
        type            fixedValue;
        value           nonuniform List<scalar> 
192
(
290.126
289.782
289.676
289.585
289.457
289.246
288.828
287.858
290.897
290.673
290.592
290.519
290.413
290.231
289.834
288.824
291.205
291.028
290.959
290.891
290.791
290.615
290.227
289.239
291.352
291.191
291.127
291.061
290.962
290.787
290.406
289.445
291.434
291.28
291.218
291.152
291.054
290.88
290.504
289.563
291.483
291.333
291.271
291.206
291.108
290.935
290.562
289.636
291.511
291.362
291.301
291.236
291.138
290.966
290.595
289.678
291.523
291.376
291.314
291.25
291.152
290.98
290.611
289.698
290.088
289.749
289.642
289.55
289.422
289.212
288.794
287.829
290.742
290.499
290.414
290.339
290.235
290.052
289.654
288.639
290.787
290.548
290.464
290.391
290.288
290.107
289.711
288.707
290.251
289.925
289.824
289.737
289.614
289.407
288.996
288.058
290.363
290.039
289.939
289.853
289.731
289.525
289.115
288.18
291.106
290.893
290.818
290.75
290.65
290.473
290.086
289.114
291.404
291.238
291.174
291.111
291.017
290.848
290.472
289.523
291.546
291.395
291.335
291.275
291.183
291.016
290.647
289.726
291.625
291.481
291.422
291.363
291.272
291.106
290.743
289.844
291.672
291.53
291.473
291.414
291.323
291.159
290.8
289.915
291.698
291.559
291.502
291.443
291.352
291.189
290.833
289.957
291.71
291.571
291.515
291.456
291.366
291.203
290.848
289.977
287.826
288.789
289.203
289.408
289.527
289.599
289.641
289.661
288.637
289.65
290.046
290.224
290.322
290.38
290.414
290.43
288.705
289.707
290.101
290.279
290.376
290.435
290.468
290.484
288.057
288.993
289.402
289.606
289.724
289.796
289.838
289.858
)
;
    }
    symmetry
    {
        type            symmetry;
    }
    bottom
    {
        type            fixedValue;
        value           uniform 293;
    }
}


// ************************************************************************* //
