/*--------------------------------*- C++ -*----------------------------------*\
| =========                 |                                                 |
| \\      /  F ield         | OpenFOAM: The Open Source CFD Toolbox           |
|  \\    /   O peration     | Version:  v1912                                 |
|   \\  /    A nd           | Website:  www.openfoam.com                      |
|    \\/     M anipulation  |                                                 |
\*---------------------------------------------------------------------------*/
FoamFile
{
    version     2.0;
    format      ascii;
    class       volVectorField;
    location    "0.9/solid";
    object      U;
}
// * * * * * * * * * * * * * * * * * * * * * * * * * * * * * * * * * * * * * //

dimensions      [0 1 -1 0 0 0 0];


internalField   nonuniform List<vector> 
256
(
(1.84837e-08 2.01148e-08 2.38639e-08)
(4.41782e-09 1.33879e-08 2.33089e-08)
(-6.16914e-09 1.27545e-08 2.2453e-08)
(-1.82217e-08 1.80135e-08 2.1315e-08)
(3.52899e-08 1.85593e-08 5.74745e-08)
(9.09213e-09 1.22237e-08 5.64327e-08)
(-1.32272e-08 1.20306e-08 5.46506e-08)
(-3.65499e-08 1.83395e-08 5.21162e-08)
(3.93632e-08 3.20641e-09 8.20451e-08)
(9.67639e-09 3.42177e-10 8.02964e-08)
(-1.65555e-08 8.60547e-10 7.79665e-08)
(-4.32856e-08 5.22793e-09 7.50227e-08)
(3.85631e-08 -1.52436e-08 1.02514e-07)
(8.11371e-09 -1.62121e-08 9.9849e-08)
(-1.85862e-08 -1.49862e-08 9.71275e-08)
(-4.60333e-08 -1.11833e-08 9.43031e-08)
(3.78871e-08 -3.5592e-08 1.22191e-07)
(6.29439e-09 -3.64263e-08 1.18536e-07)
(-2.12977e-08 -3.45272e-08 1.15483e-07)
(-4.98235e-08 -2.9614e-08 1.12978e-07)
(4.04958e-08 -6.0499e-08 1.42957e-07)
(5.46623e-09 -6.14597e-08 1.38537e-07)
(-2.6005e-08 -5.88816e-08 1.3517e-07)
(-5.78865e-08 -5.25821e-08 1.32799e-07)
(4.74481e-08 -9.59356e-08 1.64175e-07)
(5.9027e-09 -9.53836e-08 1.60031e-07)
(-3.31354e-08 -9.20247e-08 1.56352e-07)
(-7.13267e-08 -8.57756e-08 1.53098e-07)
(5.35934e-08 -1.40371e-07 1.79302e-07)
(5.81248e-09 -1.37114e-07 1.76674e-07)
(-4.11029e-08 -1.32615e-07 1.72738e-07)
(-8.50254e-08 -1.26821e-07 1.67511e-07)
(1.28401e-08 7.55425e-09 1.09712e-08)
(2.99605e-09 1.68126e-09 1.19162e-08)
(-3.7236e-09 1.481e-09 1.15231e-08)
(-1.18326e-08 6.38945e-09 9.81332e-09)
(2.53001e-08 6.21216e-10 3.39223e-08)
(6.47498e-09 -4.80641e-09 3.57745e-08)
(-8.14284e-09 -4.63561e-09 3.46972e-08)
(-2.4529e-08 1.09619e-09 3.07886e-08)
(2.81849e-08 -1.37764e-08 5.51573e-08)
(6.90889e-09 -1.61615e-08 5.71012e-08)
(-1.0262e-08 -1.54225e-08 5.55407e-08)
(-2.90853e-08 -1.13955e-08 5.05987e-08)
(2.71328e-08 -3.05258e-08 7.42154e-08)
(5.54484e-09 -3.13367e-08 7.583e-08)
(-1.1662e-08 -2.99791e-08 7.39149e-08)
(-3.07991e-08 -2.6296e-08 6.85853e-08)
(2.64139e-08 -4.90735e-08 9.2242e-08)
(3.96782e-09 -5.00133e-08 9.33466e-08)
(-1.39282e-08 -4.80312e-08 9.11311e-08)
(-3.38864e-08 -4.30251e-08 8.56983e-08)
(2.93913e-08 -7.08747e-08 1.09894e-07)
(3.46688e-09 -7.21803e-08 1.10456e-07)
(-1.83648e-08 -6.95608e-08 1.07962e-07)
(-4.17266e-08 -6.29766e-08 1.02507e-07)
(3.79094e-08 -1.00599e-07 1.25705e-07)
(4.51394e-09 -1.00116e-07 1.25911e-07)
(-2.55815e-08 -9.67935e-08 1.23179e-07)
(-5.6178e-08 -9.06363e-08 1.17585e-07)
(4.67196e-08 -1.39052e-07 1.34877e-07)
(5.15345e-09 -1.34226e-07 1.34969e-07)
(-3.3848e-08 -1.2991e-07 1.32137e-07)
(-7.20225e-08 -1.26023e-07 1.26411e-07)
(7.4898e-09 2.6126e-09 5.54336e-09)
(1.50038e-09 -1.93046e-09 7.05008e-09)
(-1.74534e-09 -2.08366e-09 6.78342e-09)
(-6.07183e-09 1.40139e-09 4.78315e-09)
(1.53986e-08 -8.4575e-09 2.11433e-08)
(3.55514e-09 -1.2743e-08 2.40723e-08)
(-3.81599e-09 -1.2545e-08 2.33285e-08)
(-1.33566e-08 -8.1472e-09 1.90307e-08)
(1.71348e-08 -2.37764e-08 3.84824e-08)
(3.73388e-09 -2.57289e-08 4.17735e-08)
(-4.83372e-09 -2.50108e-08 4.06489e-08)
(-1.5956e-08 -2.16665e-08 3.5256e-08)
(1.60275e-08 -3.97053e-08 5.53766e-08)
(2.5523e-09 -4.05447e-08 5.85407e-08)
(-5.67666e-09 -3.92513e-08 5.71099e-08)
(-1.69022e-08 -3.58271e-08 5.12272e-08)
(1.54793e-08 -5.60928e-08 7.11679e-08)
(1.22861e-09 -5.73183e-08 7.40137e-08)
(-7.56238e-09 -5.5434e-08 7.23173e-08)
(-1.95393e-08 -5.04561e-08 6.62087e-08)
(1.89004e-08 -7.41702e-08 8.5253e-08)
(1.05163e-09 -7.59103e-08 8.76913e-08)
(-1.17805e-08 -7.34236e-08 8.57589e-08)
(-2.72736e-08 -6.67528e-08 7.9569e-08)
(2.84862e-08 -9.85661e-08 9.57914e-08)
(2.61565e-09 -9.83923e-08 9.77667e-08)
(-1.90446e-08 -9.5251e-08 9.56606e-08)
(-4.22926e-08 -8.9187e-08 8.95443e-08)
(3.88541e-08 -1.31649e-07 9.9467e-08)
(3.82389e-09 -1.26472e-07 1.01047e-07)
(-2.74501e-08 -1.22387e-07 9.89174e-08)
(-5.92195e-08 -1.19313e-07 9.30662e-08)
(4.64565e-09 5.44445e-10 4.11462e-09)
(7.13058e-10 -2.96126e-09 5.25564e-09)
(-7.23018e-10 -3.14738e-09 5.05785e-09)
(-2.97632e-09 -8.4809e-10 3.56435e-09)
(1.00855e-08 -1.21865e-08 1.58079e-08)
(1.98953e-09 -1.56336e-08 1.79951e-08)
(-1.45241e-09 -1.55302e-08 1.74593e-08)
(-7.24126e-09 -1.22662e-08 1.43105e-08)
(1.1352e-08 -2.82194e-08 2.94964e-08)
(2.11508e-09 -2.99204e-08 3.19202e-08)
(-1.80398e-09 -2.93304e-08 3.11021e-08)
(-8.77724e-09 -2.65903e-08 2.71773e-08)
(1.05359e-08 -4.37121e-08 4.34068e-08)
(1.20202e-09 -4.46689e-08 4.56921e-08)
(-2.31868e-09 -4.35257e-08 4.46301e-08)
(-9.43157e-09 -4.03612e-08 4.03537e-08)
(1.04431e-08 -5.84244e-08 5.6294e-08)
(2.01303e-10 -5.99343e-08 5.83043e-08)
(-3.98534e-09 -5.82185e-08 5.70238e-08)
(-1.19861e-08 -5.33472e-08 5.25729e-08)
(1.43324e-08 -7.37709e-08 6.69677e-08)
(3.25123e-10 -7.58795e-08 6.86638e-08)
(-8.02771e-09 -7.35792e-08 6.71935e-08)
(-1.97047e-08 -6.6944e-08 6.26564e-08)
(2.43262e-08 -9.48248e-08 7.37578e-08)
(2.15199e-09 -9.5115e-08 7.51326e-08)
(-1.51336e-08 -9.21748e-08 7.35344e-08)
(-3.46928e-08 -8.60618e-08 6.90146e-08)
(3.50351e-08 -1.24952e-07 7.48186e-08)
(3.59257e-09 -1.20387e-07 7.60065e-08)
(-2.33753e-08 -1.16505e-07 7.44082e-08)
(-5.15481e-08 -1.13231e-07 6.99935e-08)
(3.54903e-09 -2.56075e-10 3.44766e-09)
(4.63209e-10 -3.21712e-09 4.0584e-09)
(-3.48787e-10 -3.43729e-09 3.91599e-09)
(-1.72317e-09 -1.79391e-09 3.05781e-09)
(8.12426e-09 -1.33435e-08 1.23805e-08)
(1.53055e-09 -1.63875e-08 1.35078e-08)
(-5.22797e-10 -1.6386e-08 1.31282e-08)
(-4.77511e-09 -1.37753e-08 1.13332e-08)
(9.42068e-09 -2.94565e-08 2.27052e-08)
(1.77268e-09 -3.11108e-08 2.38832e-08)
(-5.69666e-10 -3.06596e-08 2.33029e-08)
(-5.93177e-09 -2.82846e-08 2.10767e-08)
(9.02597e-09 -4.45448e-08 3.32953e-08)
(1.14614e-09 -4.56738e-08 3.43046e-08)
(-9.24267e-10 -4.46876e-08 3.35434e-08)
(-6.56955e-09 -4.16987e-08 3.11237e-08)
(9.42288e-09 -5.81987e-08 4.30032e-08)
(4.5306e-10 -5.99563e-08 4.37746e-08)
(-2.46719e-09 -5.8408e-08 4.28468e-08)
(-9.18487e-09 -5.36474e-08 4.03213e-08)
(1.36726e-08 -7.20274e-08 5.06548e-08)
(8.1395e-10 -7.44068e-08 5.12005e-08)
(-6.35144e-09 -7.22798e-08 5.01287e-08)
(-1.68646e-08 -6.57326e-08 4.75206e-08)
(2.37349e-08 -9.14794e-08 5.50205e-08)
(2.75549e-09 -9.21562e-08 5.53916e-08)
(-1.32143e-08 -8.9388e-08 5.42259e-08)
(-3.15551e-08 -8.32373e-08 5.15617e-08)
(3.4345e-08 -1.20278e-07 5.52305e-08)
(4.27356e-09 -1.16402e-07 5.55704e-08)
(-2.11997e-08 -1.12682e-07 5.44092e-08)
(-4.79709e-08 -1.09046e-07 5.17176e-08)
(3.21253e-09 -5.25905e-10 2.66205e-09)
(4.37254e-10 -3.25686e-09 2.92777e-09)
(-2.54949e-10 -3.50157e-09 2.83248e-09)
(-1.29186e-09 -2.16222e-09 2.40404e-09)
(7.62884e-09 -1.34555e-08 9.05919e-09)
(1.54252e-09 -1.63714e-08 9.50995e-09)
(-2.55411e-10 -1.64473e-08 9.25737e-09)
(-3.96885e-09 -1.41426e-08 8.36907e-09)
(9.13103e-09 -2.92878e-08 1.62537e-08)
(1.94739e-09 -3.1005e-08 1.66587e-08)
(-1.88781e-10 -3.06641e-08 1.62722e-08)
(-5.06267e-09 -2.84654e-08 1.51781e-08)
(9.11011e-09 -4.39725e-08 2.35856e-08)
(1.5567e-09 -4.52726e-08 2.38371e-08)
(-4.68093e-10 -4.44135e-08 2.33273e-08)
(-5.76907e-09 -4.1523e-08 2.21407e-08)
(9.88555e-09 -5.70283e-08 3.02322e-08)
(1.09881e-09 -5.89764e-08 3.03062e-08)
(-1.92981e-09 -5.75623e-08 2.96805e-08)
(-8.44863e-09 -5.28911e-08 2.84324e-08)
(1.43692e-08 -7.01729e-08 3.53212e-08)
(1.62684e-09 -7.27307e-08 3.52495e-08)
(-5.67984e-09 -7.07386e-08 3.45232e-08)
(-1.60595e-08 -6.42902e-08 3.32036e-08)
(2.44028e-08 -8.90003e-08 3.8064e-08)
(3.62824e-09 -8.99226e-08 3.79071e-08)
(-1.23243e-08 -8.72838e-08 3.71159e-08)
(-3.04396e-08 -8.11509e-08 3.57186e-08)
(3.48563e-08 -1.17205e-07 3.80668e-08)
(5.17963e-09 -1.13794e-07 3.79272e-08)
(-2.00862e-08 -1.10192e-07 3.714e-08)
(-4.64384e-08 -1.06333e-07 3.56838e-08)
(3.12619e-09 -5.92348e-10 1.67969e-09)
(4.61719e-10 -3.23706e-09 1.77863e-09)
(-2.43984e-10 -3.49729e-09 1.72414e-09)
(-1.15198e-09 -2.28907e-09 1.53316e-09)
(7.57544e-09 -1.32602e-08 5.53791e-09)
(1.64601e-09 -1.61594e-08 5.68224e-09)
(-2.0228e-10 -1.62849e-08 5.53797e-09)
(-3.73662e-09 -1.41082e-08 5.14623e-09)
(9.26388e-09 -2.87611e-08 9.7792e-09)
(2.17854e-09 -3.05584e-08 9.86721e-09)
(-9.71136e-11 -3.02904e-08 9.64616e-09)
(-4.85478e-09 -2.81661e-08 9.16758e-09)
(9.49666e-09 -4.31246e-08 1.40595e-08)
(1.94487e-09 -4.45524e-08 1.40453e-08)
(-3.38569e-10 -4.37788e-08 1.37528e-08)
(-5.62364e-09 -4.0939e-08 1.32342e-08)
(1.05108e-08 -5.58695e-08 1.7905e-08)
(1.63766e-09 -5.79429e-08 1.77843e-08)
(-1.74537e-09 -5.66194e-08 1.74238e-08)
(-8.33786e-09 -5.20102e-08 1.68715e-08)
(1.51308e-08 -6.87554e-08 2.08059e-08)
(2.27125e-09 -7.14179e-08 2.06051e-08)
(-5.39933e-09 -6.95161e-08 2.01853e-08)
(-1.58834e-08 -6.31482e-08 1.95843e-08)
(2.51328e-08 -8.73797e-08 2.23319e-08)
(4.31103e-09 -8.84343e-08 2.20929e-08)
(-1.18933e-08 -8.58809e-08 2.16347e-08)
(-3.00416e-08 -7.97901e-08 2.09748e-08)
(3.54751e-08 -1.15311e-07 2.23058e-08)
(5.88346e-09 -1.12152e-07 2.20849e-08)
(-1.95033e-08 -1.08628e-07 2.16293e-08)
(-4.57543e-08 -1.04675e-07 2.09264e-08)
(3.10699e-09 -5.98167e-10 5.73341e-10)
(4.79361e-10 -3.21472e-09 5.97707e-10)
(-2.46559e-10 -3.48248e-09 5.79997e-10)
(-1.10868e-09 -2.32362e-09 5.2588e-10)
(7.59428e-09 -1.30962e-08 1.8633e-09)
(1.71022e-09 -1.60028e-08 1.89346e-09)
(-1.96273e-10 -1.61524e-08 1.84657e-09)
(-3.67386e-09 -1.40215e-08 1.73642e-09)
(9.38129e-09 -2.83954e-08 3.2641e-09)
(2.30804e-09 -3.02411e-08 3.27148e-09)
(-7.84448e-11 -3.00089e-08 3.19958e-09)
(-4.81446e-09 -2.79112e-08 3.06574e-09)
(9.73758e-09 -4.25845e-08 4.66894e-09)
(2.15068e-09 -4.40786e-08 4.64107e-09)
(-3.02637e-10 -4.33474e-08 4.54577e-09)
(-5.61493e-09 -4.05292e-08 4.4007e-09)
(1.08643e-08 -5.51972e-08 5.92491e-09)
(1.91575e-09 -5.73319e-08 5.86186e-09)
(-1.68084e-09 -5.60536e-08 5.7442e-09)
(-8.34171e-09 -5.14763e-08 5.58812e-09)
(1.55473e-08 -6.8004e-08 6.86666e-09)
(2.60057e-09 -7.07144e-08 6.77815e-09)
(-5.28534e-09 -6.88575e-08 6.64087e-09)
(-1.58496e-08 -6.2534e-08 6.46759e-09)
(2.55339e-08 -8.65752e-08 7.358e-09)
(4.66079e-09 -8.76863e-08 7.25852e-09)
(-1.17046e-08 -8.51751e-08 7.10853e-09)
(-2.9897e-08 -7.91144e-08 6.91389e-09)
(3.58226e-08 -1.14397e-07 7.34646e-09)
(6.24469e-09 -1.11344e-07 7.25361e-09)
(-1.92394e-08 -1.07858e-07 7.10449e-09)
(-4.54683e-08 -1.03877e-07 6.89515e-09)
)
;

boundaryField
{
    interface
    {
        type            calculated;
        value           nonuniform List<vector> 
192
(
(2.32473e-08 3.35582e-08 2.20754e-08)
(4.04004e-08 2.37792e-08 5.43186e-08)
(4.48307e-08 4.02463e-09 7.86107e-08)
(4.44117e-08 -1.56127e-08 9.91484e-08)
(4.38952e-08 -3.51089e-08 1.18976e-07)
(4.63039e-08 -5.81088e-08 1.39992e-07)
(5.34061e-08 -9.26612e-08 1.61687e-07)
(5.94946e-08 -1.38865e-07 1.77449e-07)
(1.5777e-08 1.70893e-08 8.22279e-09)
(2.91114e-08 4.45738e-09 2.89495e-08)
(3.22486e-08 -1.33183e-08 4.96003e-08)
(3.13495e-08 -3.09686e-08 6.85816e-08)
(3.06543e-08 -4.85089e-08 8.66401e-08)
(3.34906e-08 -6.80009e-08 1.04495e-07)
(4.27001e-08 -9.62674e-08 1.20965e-07)
(5.27706e-08 -1.36919e-07 1.31192e-07)
(9.05165e-09 8.3347e-09 3.49479e-09)
(1.79586e-08 -6.0463e-09 1.73398e-08)
(2.00015e-08 -2.36192e-08 3.42743e-08)
(1.90596e-08 -4.01192e-08 5.12274e-08)
(1.86089e-08 -5.53746e-08 6.71752e-08)
(2.20894e-08 -7.09185e-08 8.14882e-08)
(3.2684e-08 -9.35777e-08 9.23957e-08)
(4.48891e-08 -1.29056e-07 9.65459e-08)
(5.54528e-09 4.22725e-09 3.12945e-09)
(1.22078e-08 -1.051e-08 1.39894e-08)
(1.38728e-08 -2.81069e-08 2.75679e-08)
(1.32915e-08 -4.39394e-08 4.16564e-08)
(1.34076e-08 -5.74753e-08 5.47799e-08)
(1.75513e-08 -7.03001e-08 6.56608e-08)
(2.8787e-08 -8.96492e-08 7.257e-08)
(4.14785e-08 -1.22144e-07 7.36914e-08)
(4.08053e-09 2.66226e-09 3.0894e-09)
(9.92584e-09 -1.18756e-08 1.17663e-08)
(1.16746e-08 -2.92312e-08 2.215e-08)
(1.1579e-08 -4.45443e-08 3.29389e-08)
(1.22751e-08 -5.70371e-08 4.28638e-08)
(1.69091e-08 -6.84494e-08 5.0664e-08)
(2.83474e-08 -8.63113e-08 5.50396e-08)
(4.09562e-08 -1.17387e-07 5.51858e-08)
(3.55846e-09 2.18445e-09 2.55635e-09)
(9.22406e-09 -1.19759e-08 8.92201e-09)
(1.12071e-08 -2.89175e-08 1.62145e-08)
(1.15334e-08 -4.3784e-08 2.37033e-08)
(1.26722e-08 -5.57136e-08 3.05042e-08)
(1.76196e-08 -6.65436e-08 3.56858e-08)
(2.90976e-08 -8.38785e-08 3.84135e-08)
(4.15211e-08 -1.14289e-07 3.83494e-08)
(3.394e-09 2.08307e-09 1.65331e-09)
(9.06756e-09 -1.17258e-08 5.52928e-09)
(1.12527e-08 -2.82809e-08 9.84178e-09)
(1.18637e-08 -4.28129e-08 1.42164e-08)
(1.32812e-08 -5.4461e-08 1.81497e-08)
(1.84098e-08 -6.51e-08 2.11005e-08)
(2.98882e-08 -8.22937e-08 2.26147e-08)
(4.21698e-08 -1.1239e-07 2.25474e-08)
(3.34906e-09 2.07716e-09 5.68545e-10)
(9.04733e-09 -1.15277e-08 1.86802e-09)
(1.13382e-08 -2.78596e-08 3.29346e-09)
(1.20878e-08 -4.22138e-08 4.72917e-09)
(1.36368e-08 -5.37449e-08 6.01329e-09)
(1.88484e-08 -6.43366e-08 6.97078e-09)
(3.03239e-08 -8.15064e-08 7.45828e-09)
(4.25346e-08 -1.11476e-07 7.43333e-09)
(1.9239e-08 4.04494e-08 2.63699e-08)
(3.66071e-08 3.31046e-08 6.00061e-08)
(4.0643e-08 1.44663e-08 8.49297e-08)
(3.95795e-08 -5.20696e-09 1.05856e-07)
(3.85806e-08 -2.54812e-08 1.25714e-07)
(4.08732e-08 -5.00029e-08 1.46136e-07)
(4.76565e-08 -8.68494e-08 1.67113e-07)
(5.38631e-08 -1.35548e-07 1.81742e-07)
(4.06497e-09 3.33232e-08 2.49823e-08)
(8.38592e-09 2.64706e-08 5.79156e-08)
(8.65654e-09 1.11963e-08 8.16361e-08)
(6.7669e-09 -6.65213e-09 1.01182e-07)
(4.61719e-09 -2.67542e-08 1.1969e-07)
(3.51941e-09 -5.10858e-08 1.39125e-07)
(3.94681e-09 -8.58493e-08 1.60672e-07)
(4.17141e-09 -1.32048e-07 1.78042e-07)
(-6.66778e-09 3.20304e-08 2.31217e-08)
(-1.43066e-08 2.5909e-08 5.52995e-08)
(-1.78742e-08 1.14799e-08 7.84668e-08)
(-1.9973e-08 -5.60691e-09 9.75893e-08)
(-2.26875e-08 -2.50164e-08 1.15734e-07)
(-2.74397e-08 -4.86643e-08 1.34829e-07)
(-3.48689e-08 -8.26327e-08 1.56038e-07)
(-4.33937e-08 -1.27604e-07 1.7307e-07)
(-1.96663e-08 3.63713e-08 2.08296e-08)
(-3.93989e-08 3.17664e-08 5.19099e-08)
(-4.66343e-08 1.57748e-08 7.50806e-08)
(-4.95145e-08 -1.69446e-09 9.47112e-08)
(-5.33154e-08 -1.99899e-08 1.13478e-07)
(-6.13707e-08 -4.2552e-08 1.32888e-07)
(-7.49368e-08 -7.70976e-08 1.5289e-07)
(-8.89351e-08 -1.22149e-07 1.66702e-07)
(-1.69785e-08 3.17064e-08 1.89953e-08)
(-3.56927e-08 2.46054e-08 4.76862e-08)
(-4.26689e-08 7.59886e-09 6.9798e-08)
(-4.56534e-08 -9.54867e-09 8.87536e-08)
(-4.94558e-08 -2.66505e-08 1.07247e-07)
(-5.71598e-08 -4.72061e-08 1.27017e-07)
(-7.0488e-08 -7.89908e-08 1.47505e-07)
(-8.37107e-08 -1.21289e-07 1.62305e-07)
(-9.14461e-09 1.54798e-08 6.77583e-09)
(-2.27872e-08 5.40936e-09 2.49902e-08)
(-2.75351e-08 -9.82795e-09 4.37662e-08)
(-2.92959e-08 -2.50956e-08 6.13024e-08)
(-3.22823e-08 -4.02931e-08 7.81272e-08)
(-3.98336e-08 -5.74035e-08 9.48533e-08)
(-5.46921e-08 -8.30622e-08 1.10327e-07)
(-7.12274e-08 -1.20093e-07 1.19959e-07)
(-2.17894e-09 6.25847e-09 2.56904e-09)
(-1.05694e-08 -5.67616e-09 1.47086e-08)
(-1.3436e-08 -2.078e-08 3.01789e-08)
(-1.44555e-08 -3.49311e-08 4.58852e-08)
(-1.70704e-08 -4.78631e-08 6.07335e-08)
(-2.47058e-08 -6.10643e-08 7.40634e-08)
(-4.04321e-08 -8.12005e-08 8.41729e-08)
(-5.86e-08 -1.13158e-07 8.79474e-08)
(1.52384e-09 1.70629e-09 2.47715e-09)
(-4.08656e-09 -1.0816e-08 1.21651e-08)
(-5.99259e-09 -2.60427e-08 2.46712e-08)
(-6.79816e-09 -3.95589e-08 3.77704e-08)
(-9.44184e-09 -5.07788e-08 4.99842e-08)
(-1.7249e-08 -6.12671e-08 6.0054e-08)
(-3.31655e-08 -7.81009e-08 6.63301e-08)
(-5.14051e-08 -1.07067e-07 6.71813e-08)
(3.12395e-09 -1.69358e-10 2.63666e-09)
(-1.33079e-09 -1.27231e-08 1.0515e-08)
(-2.91836e-09 -2.78359e-08 2.0148e-08)
(-3.77612e-09 -4.08854e-08 3.0208e-08)
(-6.57186e-09 -5.10735e-08 3.94369e-08)
(-1.4465e-08 -6.01399e-08 4.66092e-08)
(-3.02099e-08 -7.54606e-08 5.04983e-08)
(-4.80268e-08 -1.02968e-07 5.044e-08)
(3.73012e-09 -8.47059e-10 2.26122e-09)
(-3.34282e-10 -1.31999e-08 8.10939e-09)
(-1.89083e-09 -2.80153e-08 1.49088e-08)
(-2.86868e-09 -4.06764e-08 2.19041e-08)
(-5.79312e-09 -5.03184e-08 2.82205e-08)
(-1.3694e-08 -5.87923e-08 3.29582e-08)
(-2.91924e-08 -7.35561e-08 3.53401e-08)
(-4.65651e-08 -1.00357e-07 3.51296e-08)
(3.943e-09 -1.06693e-09 1.48735e-09)
(-6.55621e-12 -1.31825e-08 5.07245e-09)
(-1.60469e-09 -2.76943e-08 9.10549e-09)
(-2.67762e-09 -4.00681e-08 1.31956e-08)
(-5.67688e-09 -4.94451e-08 1.68447e-08)
(-1.35559e-08 -5.77221e-08 1.95318e-08)
(-2.8863e-08 -7.23223e-08 2.08391e-08)
(-4.59187e-08 -9.8778e-08 2.06839e-08)
(4.01004e-09 -1.12799e-09 5.1505e-10)
(9.2358e-11 -1.30951e-08 1.72072e-09)
(-1.53559e-09 -2.74259e-08 3.05565e-09)
(-2.65602e-09 -3.96473e-08 4.39852e-09)
(-5.68701e-09 -4.89175e-08 5.58907e-09)
(-1.35486e-08 -5.7145e-08 6.45915e-09)
(-2.87613e-08 -7.17096e-08 6.87773e-09)
(-4.56482e-08 -9.80227e-08 6.82364e-09)
(5.35322e-08 -1.42913e-07 1.81383e-07)
(4.65796e-08 -1.42172e-07 1.32696e-07)
(3.88566e-08 -1.35148e-07 9.59421e-08)
(3.52982e-08 -1.29043e-07 7.19759e-08)
(3.48214e-08 -1.24595e-07 5.32937e-08)
(3.54615e-08 -1.21583e-07 3.6825e-08)
(3.61459e-08 -1.19714e-07 2.16037e-08)
(3.65199e-08 -1.18814e-07 7.11788e-09)
(3.87359e-09 -1.38579e-07 1.78485e-07)
(2.86799e-09 -1.35042e-07 1.32308e-07)
(1.50845e-09 -1.27355e-07 9.75875e-08)
(1.4807e-09 -1.22025e-07 7.34889e-08)
(2.37435e-09 -1.18471e-07 5.39221e-08)
(3.42629e-09 -1.16073e-07 3.68647e-08)
(4.21254e-09 -1.14539e-07 2.14725e-08)
(4.60994e-09 -1.1378e-07 7.05167e-09)
(-4.36762e-08 -1.33033e-07 1.74567e-07)
(-3.58989e-08 -1.29746e-07 1.2958e-07)
(-2.92401e-08 -1.22299e-07 9.55662e-08)
(-2.51644e-08 -1.17173e-07 7.19818e-08)
(-2.30388e-08 -1.13778e-07 5.28309e-08)
(-2.19516e-08 -1.11496e-07 3.61264e-08)
(-2.13728e-08 -1.10037e-07 2.10457e-08)
(-2.11065e-08 -1.09315e-07 6.91208e-09)
(-8.92402e-08 -1.26085e-07 1.69647e-07)
(-7.59594e-08 -1.25933e-07 1.24534e-07)
(-6.30659e-08 -1.19603e-07 8.98683e-08)
(-5.54491e-08 -1.14108e-07 6.74269e-08)
(-5.19192e-08 -1.1014e-07 4.9993e-08)
(-5.03917e-08 -1.07477e-07 3.4591e-08)
(-4.96912e-08 -1.05836e-07 2.03124e-08)
(-4.93911e-08 -1.05049e-07 6.6957e-09)
)
;
    }
    symmetry
    {
        type            symmetry;
    }
    bottom
    {
        type            calculated;
        value           uniform (0 0 0);
    }
}


// ************************************************************************* //
