/*--------------------------------*- C++ -*----------------------------------*\
| =========                 |                                                 |
| \\      /  F ield         | OpenFOAM: The Open Source CFD Toolbox           |
|  \\    /   O peration     | Version:  v1912                                 |
|   \\  /    A nd           | Website:  www.openfoam.com                      |
|    \\/     M anipulation  |                                                 |
\*---------------------------------------------------------------------------*/
FoamFile
{
    version     2.0;
    format      ascii;
    class       volVectorField;
    location    "0.75/solid";
    object      D;
}
// * * * * * * * * * * * * * * * * * * * * * * * * * * * * * * * * * * * * * //

dimensions      [0 1 0 0 0 0 0];


internalField   nonuniform List<vector> 
256
(
(2.7762e-08 3.94913e-08 3.0369e-08)
(3.60992e-09 2.30619e-08 2.76351e-08)
(-3.45357e-09 2.27099e-08 2.75346e-08)
(-2.67378e-08 3.80244e-08 3.01379e-08)
(4.54629e-08 3.08884e-08 5.866e-08)
(9.27044e-09 2.08459e-08 5.50266e-08)
(-7.98172e-09 2.03108e-08 5.49539e-08)
(-4.30099e-08 2.9108e-08 5.85187e-08)
(4.80311e-08 1.54526e-08 7.4304e-08)
(1.07526e-08 1.14495e-08 7.03819e-08)
(-8.07145e-09 1.08183e-08 7.03721e-08)
(-4.41941e-08 1.34941e-08 7.4335e-08)
(4.75387e-08 1.57539e-09 8.65073e-08)
(1.07527e-08 -6.02234e-10 8.21576e-08)
(-6.5801e-09 -1.30451e-09 8.2194e-08)
(-4.22129e-08 -5.68384e-10 8.66677e-08)
(4.83925e-08 -1.1725e-08 9.85977e-08)
(1.12249e-08 -1.46363e-08 9.37431e-08)
(-5.47804e-09 -1.54054e-08 9.38076e-08)
(-4.14778e-08 -1.40521e-08 9.88395e-08)
(5.29233e-08 -2.65825e-08 1.12339e-07)
(1.32177e-08 -3.09119e-08 1.07018e-07)
(-5.82436e-09 -3.17491e-08 1.07098e-07)
(-4.43521e-08 -2.90886e-08 1.12625e-07)
(6.3476e-08 -4.94708e-08 1.28881e-07)
(1.73455e-08 -5.2871e-08 1.23584e-07)
(-8.27923e-09 -5.37569e-08 1.23667e-07)
(-5.32286e-08 -5.21064e-08 1.2918e-07)
(7.84616e-08 -1.04451e-07 1.45518e-07)
(2.18529e-08 -1.00797e-07 1.41271e-07)
(-1.12296e-08 -1.01485e-07 1.41342e-07)
(-6.65883e-08 -1.06585e-07 1.45792e-07)
(1.92905e-08 1.79249e-08 6.11708e-09)
(1.85684e-09 4.44996e-09 7.47545e-09)
(-1.69803e-09 4.21285e-09 7.54043e-09)
(-1.82893e-08 1.67719e-08 6.30373e-09)
(3.19011e-08 1.20647e-08 2.37946e-08)
(5.86143e-09 3.66754e-09 2.64434e-08)
(-4.62191e-09 3.18003e-09 2.65701e-08)
(-2.95701e-08 1.04248e-08 2.4161e-08)
(3.33959e-08 1.56512e-09 3.85414e-08)
(6.92512e-09 -1.89406e-09 4.16179e-08)
(-4.36746e-09 -2.51709e-09 4.17973e-08)
(-2.97773e-08 -3.56243e-10 3.90592e-08)
(3.25992e-08 -9.69826e-09 5.04627e-08)
(6.86017e-09 -1.16972e-08 5.35744e-08)
(-2.87822e-09 -1.24028e-08 5.37966e-08)
(-2.75642e-08 -1.18385e-08 5.11026e-08)
(3.31834e-08 -2.16434e-08 6.15562e-08)
(7.28551e-09 -2.44902e-08 6.45581e-08)
(-1.78057e-09 -2.52645e-08 6.48094e-08)
(-2.66061e-08 -2.39768e-08 6.2279e-08)
(3.75094e-08 -3.48304e-08 7.30223e-08)
(9.23462e-09 -3.91957e-08 7.58844e-08)
(-2.11763e-09 -4.00384e-08 7.61522e-08)
(-2.9299e-08 -3.73483e-08 7.37914e-08)
(4.82534e-08 -5.31743e-08 8.42098e-08)
(1.3393e-08 -5.65367e-08 8.70187e-08)
(-4.62046e-09 -5.74314e-08 8.72917e-08)
(-3.83702e-08 -5.58329e-08 8.49928e-08)
(6.41226e-08 -9.77676e-08 9.05251e-08)
(1.79798e-08 -9.30857e-08 9.33806e-08)
(-7.647e-09 -9.3791e-08 9.36512e-08)
(-5.26023e-08 -9.9942e-08 9.13002e-08)
(1.34816e-08 1.12217e-08 2.94073e-09)
(3.23019e-10 -3.17967e-11 4.77053e-09)
(-2.15854e-10 -2.35424e-10 4.82257e-09)
(-1.25584e-08 1.01831e-08 3.08949e-09)
(2.22841e-08 2.46822e-09 1.47389e-08)
(2.75221e-09 -4.46736e-09 1.81972e-08)
(-1.65988e-09 -4.91692e-09 1.83082e-08)
(-2.01318e-08 9.48534e-10 1.50588e-08)
(2.30648e-08 -7.7399e-09 2.74189e-08)
(3.41001e-09 -1.06869e-08 3.13948e-08)
(-1.07635e-09 -1.1284e-08 3.15465e-08)
(-1.97038e-08 -9.57738e-09 2.78585e-08)
(2.22055e-08 -1.76188e-08 3.88234e-08)
(3.30044e-09 -1.95167e-08 4.29036e-08)
(3.96814e-10 -2.02076e-08 4.30876e-08)
(-1.74896e-08 -1.97085e-08 3.93574e-08)
(2.27504e-08 -2.76165e-08 4.91094e-08)
(3.70365e-09 -3.04908e-08 5.31683e-08)
(1.47044e-09 -3.12577e-08 5.33761e-08)
(-1.65347e-08 -2.99231e-08 4.97124e-08)
(2.71006e-08 -3.79259e-08 5.8447e-08)
(5.63326e-09 -4.23622e-08 6.24467e-08)
(1.12075e-09 -4.32027e-08 6.26695e-08)
(-1.92752e-08 -4.04352e-08 5.90921e-08)
(3.8041e-08 -5.19788e-08 6.56019e-08)
(9.81672e-09 -5.5405e-08 6.95324e-08)
(-1.42634e-09 -5.63021e-08 6.9762e-08)
(-2.85492e-08 -5.46433e-08 6.62648e-08)
(5.41255e-08 -9.11489e-08 6.75966e-08)
(1.4443e-08 -8.64676e-08 7.14898e-08)
(-4.50047e-09 -8.71776e-08 7.17202e-08)
(-4.29917e-08 -9.33322e-08 6.826e-08)
(1.08638e-08 9.11672e-09 2.72654e-09)
(-3.23489e-10 -8.47901e-10 3.90161e-09)
(3.9107e-10 -1.04151e-09 3.9364e-09)
(-1.00119e-08 8.13051e-09 2.82942e-09)
(1.78412e-08 -1.38594e-09 1.15062e-08)
(1.32094e-09 -7.44685e-09 1.37445e-08)
(-3.5663e-10 -7.874e-09 1.3826e-08)
(-1.58525e-08 -2.82719e-09 1.17462e-08)
(1.83804e-08 -1.24307e-08 2.16126e-08)
(1.78421e-09 -1.50701e-08 2.41805e-08)
(3.48058e-10 -1.56435e-08 2.42941e-08)
(-1.52514e-08 -1.41929e-08 2.19477e-08)
(1.76768e-08 -2.19423e-08 3.1375e-08)
(1.70231e-09 -2.38056e-08 3.3986e-08)
(1.73789e-09 -2.44777e-08 3.41239e-08)
(-1.3246e-08 -2.39736e-08 3.17829e-08)
(1.83868e-08 -3.05397e-08 4.0106e-08)
(2.15017e-09 -3.34613e-08 4.26774e-08)
(2.7258e-09 -3.42155e-08 4.28339e-08)
(-1.24945e-08 -3.28071e-08 4.05689e-08)
(2.28712e-08 -3.87286e-08 4.73089e-08)
(4.10008e-09 -4.32309e-08 4.98267e-08)
(2.32685e-09 -4.4064e-08 4.99959e-08)
(-1.53927e-08 -4.12158e-08 4.78086e-08)
(3.38509e-08 -5.04665e-08 5.19787e-08)
(8.264e-09 -5.40405e-08 5.4456e-08)
(-2.20341e-10 -5.4934e-08 5.46319e-08)
(-2.47162e-08 -5.31208e-08 5.24971e-08)
(4.97756e-08 -8.73359e-08 5.28182e-08)
(1.28555e-08 -8.31158e-08 5.53396e-08)
(-3.27281e-09 -8.3824e-08 5.55166e-08)
(-3.90011e-08 -8.95124e-08 5.3339e-08)
(9.87555e-09 8.26532e-09 2.48172e-09)
(-4.78469e-10 -1.05203e-09 3.07202e-09)
(5.20999e-10 -1.23966e-09 3.09563e-09)
(-9.07373e-09 7.31477e-09 2.55253e-09)
(1.62154e-08 -2.78317e-09 9.14819e-09)
(9.17263e-10 -8.42171e-09 1.02662e-08)
(-4.35355e-11 -8.83412e-09 1.03242e-08)
(-1.43486e-08 -4.16963e-09 9.32012e-09)
(1.67784e-08 -1.42933e-08 1.67429e-08)
(1.34127e-09 -1.68052e-08 1.80081e-08)
(6.40063e-10 -1.73608e-08 1.80903e-08)
(-1.38279e-08 -1.59978e-08 1.69876e-08)
(1.62846e-08 -2.37499e-08 2.42862e-08)
(1.31682e-09 -2.56278e-08 2.55423e-08)
(1.92454e-09 -2.62836e-08 2.56428e-08)
(-1.20771e-08 -2.57307e-08 2.45865e-08)
(1.71922e-08 -3.16502e-08 3.10168e-08)
(1.82442e-09 -3.46186e-08 3.22229e-08)
(2.81689e-09 -3.53601e-08 3.23376e-08)
(-1.15567e-08 -3.38792e-08 3.13597e-08)
(2.17876e-08 -3.88046e-08 3.63011e-08)
(3.79531e-09 -4.33504e-08 3.7466e-08)
(2.37114e-09 -4.41746e-08 3.75908e-08)
(-1.45882e-08 -4.12658e-08 3.6674e-08)
(3.27059e-08 -4.96271e-08 3.94866e-08)
(7.91595e-09 -5.33182e-08 4.06439e-08)
(-1.51383e-10 -5.42057e-08 4.07745e-08)
(-2.38631e-08 -5.22648e-08 3.98764e-08)
(4.84031e-08 -8.54383e-08 4.0113e-08)
(1.24529e-08 -8.16281e-08 4.13409e-08)
(-3.16312e-09 -8.23324e-08 4.14723e-08)
(-3.79272e-08 -8.76027e-08 4.05056e-08)
(9.5075e-09 7.86129e-09 1.95372e-09)
(-4.79862e-10 -1.14394e-09 2.22092e-09)
(5.06968e-10 -1.32711e-09 2.23649e-09)
(-8.73758e-09 6.93569e-09 2.00026e-09)
(1.56849e-08 -3.24283e-09 6.70817e-09)
(8.74372e-10 -8.70196e-09 7.20113e-09)
(-6.01944e-11 -9.10396e-09 7.24002e-09)
(-1.38991e-08 -4.59043e-09 6.82324e-09)
(1.63512e-08 -1.48321e-08 1.1978e-08)
(1.31807e-09 -1.7312e-08 1.25181e-08)
(5.59538e-10 -1.78548e-08 1.2574e-08)
(-1.35236e-08 -1.64947e-08 1.2144e-08)
(1.60292e-08 -2.42539e-08 1.72269e-08)
(1.34503e-09 -2.61638e-08 1.77407e-08)
(1.75527e-09 -2.68073e-08 1.78096e-08)
(-1.19797e-08 -2.61962e-08 1.74325e-08)
(1.70831e-08 -3.18988e-08 2.19007e-08)
(1.8965e-09 -3.49028e-08 2.2374e-08)
(2.57474e-09 -3.5634e-08 2.24529e-08)
(-1.16328e-08 -3.40966e-08 2.21371e-08)
(2.17394e-08 -3.87115e-08 2.55046e-08)
(3.87652e-09 -4.32769e-08 2.59544e-08)
(2.09832e-09 -4.40932e-08 2.60407e-08)
(-1.47445e-08 -4.11495e-08 2.57635e-08)
(3.25767e-08 -4.92748e-08 2.76511e-08)
(7.9555e-09 -5.30225e-08 2.81102e-08)
(-3.98489e-10 -5.39042e-08 2.82008e-08)
(-2.39507e-08 -5.18961e-08 2.79232e-08)
(4.80872e-08 -8.45422e-08 2.81837e-08)
(1.24455e-08 -8.09709e-08 2.87007e-08)
(-3.37548e-09 -8.16709e-08 2.87918e-08)
(-3.78361e-08 -8.66942e-08 2.84581e-08)
(9.35315e-09 7.6707e-09 1.23623e-09)
(-4.60499e-10 -1.18414e-09 1.34879e-09)
(4.78733e-10 -1.36437e-09 1.35772e-09)
(-8.60178e-09 6.76071e-09 1.26271e-09)
(1.54987e-08 -3.36188e-09 4.09597e-09)
(8.98613e-10 -8.74928e-09 4.29589e-09)
(-1.201e-10 -9.14447e-09 4.31834e-09)
(-1.37613e-08 -4.68439e-09 4.16199e-09)
(1.62514e-08 -1.48876e-08 7.19506e-09)
(1.36665e-09 -1.73685e-08 7.40457e-09)
(4.46949e-10 -1.79031e-08 7.43704e-09)
(-1.34992e-08 -1.65228e-08 7.29108e-09)
(1.60385e-08 -2.42647e-08 1.02653e-08)
(1.42657e-09 -2.62021e-08 1.04537e-08)
(1.5845e-09 -2.68375e-08 1.04939e-08)
(-1.20882e-08 -2.61814e-08 1.03851e-08)
(1.71776e-08 -3.18466e-08 1.29934e-08)
(2.00232e-09 -3.4872e-08 1.31579e-08)
(2.35929e-09 -3.55961e-08 1.32042e-08)
(-1.18457e-08 -3.40227e-08 1.31319e-08)
(2.18605e-08 -3.86084e-08 1.509e-08)
(3.98372e-09 -4.31787e-08 1.52442e-08)
(1.86594e-09 -4.39893e-08 1.5295e-08)
(-1.49981e-08 -4.10296e-08 1.52424e-08)
(3.2636e-08 -4.91449e-08 1.63505e-08)
(8.03368e-09 -5.29096e-08 1.65158e-08)
(-6.13563e-10 -5.3787e-08 1.65692e-08)
(-2.41522e-08 -5.17537e-08 1.65113e-08)
(4.80232e-08 -8.41346e-08 1.6717e-08)
(1.24916e-08 -8.06734e-08 1.69169e-08)
(-3.5675e-09 -8.13701e-08 1.69706e-08)
(-3.7921e-08 -8.62769e-08 1.68794e-08)
(9.28977e-09 7.59544e-09 4.21838e-10)
(-4.50123e-10 -1.19655e-09 4.53069e-10)
(4.64322e-10 -1.37532e-09 4.55984e-10)
(-8.54693e-09 6.69289e-09 4.30437e-10)
(1.5428e-08 -3.37783e-09 1.37664e-09)
(9.14269e-10 -8.73954e-09 1.43062e-09)
(-1.52383e-10 -9.13136e-09 1.43797e-09)
(-1.37131e-08 -4.68806e-09 1.39815e-09)
(1.62237e-08 -1.48447e-08 2.39918e-09)
(1.39503e-09 -1.73307e-08 2.45392e-09)
(3.88197e-10 -1.78612e-08 2.46457e-09)
(-1.35071e-08 -1.64664e-08 2.43058e-09)
(1.60614e-08 -2.41921e-08 3.40774e-09)
(1.46999e-09 -2.61439e-08 3.45487e-09)
(1.49807e-09 -2.67753e-08 3.4681e-09)
(-1.21586e-08 -2.60959e-08 3.44705e-09)
(1.7238e-08 -3.17679e-08 4.30272e-09)
(2.05581e-09 -3.48027e-08 4.34219e-09)
(2.25231e-09 -3.55233e-08 4.35745e-09)
(-1.19635e-08 -3.39329e-08 4.34833e-09)
(2.193e-08 -3.85467e-08 4.99092e-09)
(4.03648e-09 -4.31166e-08 5.02771e-09)
(1.75153e-09 -4.39243e-08 5.04449e-09)
(-1.51325e-08 -4.09591e-08 5.04124e-09)
(3.26739e-08 -4.91024e-08 5.40834e-09)
(8.07213e-09 -5.28692e-08 5.44966e-09)
(-7.19863e-10 -5.37443e-08 5.46735e-09)
(-2.42603e-08 -5.17045e-08 5.46154e-09)
(4.80009e-08 -8.39759e-08 5.53884e-09)
(1.2514e-08 -8.05541e-08 5.5914e-09)
(-3.66255e-09 -8.1249e-08 5.60917e-09)
(-3.79726e-08 -8.61129e-08 5.59257e-09)
)
;

boundaryField
{
    interface
    {
        type            solidTraction;
        traction        nonuniform List<vector> 
192
(
(40.6122 -0.358718 -2.71688)
(42.3188 -0.341541 -4.40027)
(43.9447 -0.0782105 -5.01846)
(45.0024 0.357099 -5.19456)
(45.35 0.741128 -5.15696)
(46.2895 1.41922 -5.03065)
(44.7412 1.93672 -4.65149)
(48.341 4.38577 -4.35905)
(39.583 -0.262918 -1.33202)
(40.355 -0.266898 -2.31121)
(41.3401 -0.0359981 -2.60407)
(42.0506 0.405932 -2.63625)
(42.1324 0.810393 -2.54764)
(42.9514 1.55678 -2.41197)
(41.1157 2.12907 -2.16739)
(44.8029 4.69753 -1.9739)
(42.1322 -0.228216 -1.04446)
(42.8087 -0.230372 -1.78876)
(43.7785 -0.00601119 -2.00669)
(44.502 0.456274 -2.02521)
(44.5066 0.897013 -1.95179)
(45.2461 1.72394 -1.84226)
(42.9706 2.37819 -1.66632)
(46.4175 5.11565 -1.51977)
(42.3528 -0.175673 -0.633983)
(42.8458 -0.156098 -1.14901)
(43.6123 0.0699001 -1.29299)
(44.2175 0.535753 -1.29231)
(44.1006 0.99206 -1.22824)
(44.7596 1.85307 -1.1426)
(42.325 2.54366 -1.03148)
(45.6975 5.32089 -0.944558)
(43.1308 -0.150512 -0.461789)
(43.5708 -0.109571 -0.837254)
(44.246 0.125731 -0.943271)
(44.7991 0.599506 -0.942648)
(44.6049 1.07246 -0.895548)
(45.1883 1.96266 -0.832083)
(42.5826 2.68636 -0.75481)
(45.8093 5.50444 -0.692729)
(43.3414 -0.130963 -0.280331)
(43.7334 -0.0719539 -0.52627)
(44.3293 0.171874 -0.596448)
(44.8311 0.650495 -0.594708)
(44.5795 1.13266 -0.56223)
(45.1152 2.0374 -0.519582)
(42.4281 2.77823 -0.472268)
(45.5961 5.61632 -0.436033)
(43.5978 -0.121521 -0.163976)
(43.9729 -0.0501881 -0.307595)
(44.5272 0.200982 -0.348987)
(45.0007 0.683915 -0.348232)
(44.7131 1.17309 -0.329601)
(45.2134 2.08788 -0.304551)
(42.4629 2.84075 -0.277974)
(45.5767 5.69396 -0.256433)
(43.6621 -0.11572 -0.0483437)
(44.0252 -0.0380398 -0.0941752)
(44.5563 0.216421 -0.107596)
(45.014 0.700669 -0.107202)
(44.7105 1.19263 -0.10115)
(45.194 2.11105 -0.0929982)
(42.424 2.86941 -0.0851557)
(45.5104 5.72884 -0.0784584)
(3.79529 0.90736 14.5535)
(6.46389 1.10409 10.4574)
(7.56342 0.948146 6.49557)
(7.97255 0.704499 4.86255)
(8.11148 0.597054 4.46881)
(8.2244 0.634568 5.10141)
(8.37708 0.773333 6.95741)
(9.20819 0.982812 8.51733)
(2.24491 0.543115 18.4901)
(4.30904 0.842747 17.5788)
(5.0917 0.751733 16.2258)
(5.34911 0.478418 15.7438)
(5.43773 0.29238 15.6109)
(5.57118 0.191544 15.8701)
(5.89074 0.209767 16.4741)
(6.98463 0.288529 16.8231)
(2.23215 0.398275 15.6756)
(4.33093 0.684615 14.9852)
(5.15706 0.617146 13.7171)
(5.43721 0.321044 13.2235)
(5.52382 0.0822735 13.1102)
(5.62812 -0.112589 13.3617)
(5.89236 -0.216396 14.0343)
(6.94363 -0.229992 14.8262)
(2.44958 0.327676 15.9732)
(4.92756 0.588849 15.5739)
(5.97276 0.519062 14.4703)
(6.34568 0.201282 14.0946)
(6.45741 -0.0611122 14.0831)
(6.58976 -0.299649 14.3191)
(6.8112 -0.473447 14.8169)
(7.91528 -0.635116 15.4514)
(-7.86751 0.773072 0.675597)
(-5.22346 0.995166 1.35321)
(-2.52118 0.722614 1.5779)
(-1.14326 0.195309 1.68393)
(-0.660792 -0.091516 1.76172)
(0.770868 -0.489874 1.99805)
(0.225072 -0.458833 2.19354)
(8.75327 -2.64153 2.78203)
(-12.0171 0.317394 -0.30087)
(-11.4971 0.452734 -0.275152)
(-10.6626 0.321249 -0.348695)
(-10.0701 0.0125891 -0.361635)
(-9.87207 -0.0735295 -0.303313)
(-8.34712 -0.307421 -0.0771345)
(-8.40005 -0.0504778 0.208927)
(0.262398 -2.07732 0.655946)
(-12.2981 0.181324 -0.161793)
(-11.9259 0.242458 -0.0454426)
(-11.2797 0.172375 -0.000750045)
(-10.6494 -0.022457 0.0536137)
(-10.3613 0.011507 0.138441)
(-8.47785 -0.128399 0.322756)
(-8.21441 0.242067 0.516508)
(1.01421 -1.87668 0.770688)
(-13.6492 0.0893945 -0.183178)
(-13.4984 0.0973589 -0.0808481)
(-13.165 0.069755 -0.0183489)
(-12.6096 -0.0310952 0.041502)
(-12.2897 0.104247 0.114255)
(-10.1607 0.0505515 0.247725)
(-9.56588 0.49644 0.37635)
(-0.044501 -1.6337 0.529783)
(-13.936 0.0743185 -0.0659712)
(-13.7792 0.0643002 0.0594568)
(-13.4769 0.056416 0.145532)
(-12.8728 -0.00138579 0.209236)
(-12.4763 0.183866 0.267601)
(-10.1883 0.167377 0.351573)
(-9.45969 0.633257 0.41624)
(0.21378 -1.54593 0.48578)
(-14.365 0.0695099 -0.0444288)
(-14.214 0.0542521 0.0509414)
(-13.9346 0.0596008 0.121064)
(-13.3016 0.0282144 0.169143)
(-12.8561 0.245126 0.209566)
(-10.4619 0.252067 0.261791)
(-9.63213 0.726305 0.298129)
(0.154075 -1.4796 0.335195)
(-14.4862 0.0730666 -0.00982343)
(-14.3195 0.0582753 0.054134)
(-14.0284 0.070505 0.100457)
(-13.3636 0.0504902 0.130576)
(-12.8843 0.281721 0.154215)
(-10.4313 0.297653 0.181508)
(-9.55982 0.772854 0.198228)
(0.286801 -1.45484 0.212865)
(-14.5924 0.073947 -0.00691918)
(-14.4235 0.060017 0.0132768)
(-14.1291 0.0760105 0.0286698)
(-13.4514 0.0616152 0.0386213)
(-12.9545 0.299701 0.0465827)
(-10.473 0.320398 0.0555133)
(-9.57276 0.796157 0.0614965)
(0.300834 -1.44059 0.0662961)
(9.2716 -7.94966 -0.84036)
(8.47479 -6.10664 -0.627706)
(8.3808 -3.6479 -0.429437)
(8.36117 -2.13618 -0.281411)
(8.41645 -0.961636 -0.199747)
(8.45138 -0.139598 -0.123356)
(8.48459 0.381999 -0.073509)
(8.49865 0.632346 -0.022266)
(7.0155 -16.3678 -0.117023)
(5.92479 -15.8851 -0.0299048)
(5.61426 -14.9145 0.0626082)
(5.49616 -14.2221 0.0828688)
(5.46873 -13.6252 0.0772526)
(5.45139 -13.1925 0.0619405)
(5.44997 -12.9083 0.0379428)
(5.44794 -12.7599 0.0139158)
(6.9729 -14.3977 0.41796)
(5.91023 -13.4693 0.416442)
(5.64653 -12.4364 0.390666)
(5.56181 -11.7537 0.319257)
(5.55189 -11.1466 0.251384)
(5.54474 -10.7451 0.176589)
(5.5482 -10.4674 0.105309)
(5.54767 -10.3401 0.0347153)
(7.91048 -15.0723 0.826018)
(6.79225 -14.3403 0.677849)
(6.56524 -13.5819 0.575045)
(6.45836 -13.0499 0.451878)
(6.44971 -12.5282 0.351544)
(6.43815 -12.2064 0.242756)
(6.44231 -11.9697 0.145603)
(6.44176 -11.8628 0.0474437)
)
;
        pressure        uniform 0;
        secondOrder     false;
        setEffectiveTraction false;
        relaxationFactor 1;
        value           nonuniform List<vector> 
192
(
(8.62397e-08 5.77974e-08 2.79998e-08)
(1.0026e-07 3.59556e-08 5.47433e-08)
(1.03971e-07 1.59716e-08 7.00775e-08)
(1.05221e-07 1.66581e-09 8.22504e-08)
(1.08189e-07 -1.03787e-08 9.43351e-08)
(1.15486e-07 -2.28114e-08 1.08085e-07)
(1.29658e-07 -4.30859e-08 1.24687e-07)
(1.51521e-07 -1.00063e-07 1.41444e-07)
(6.78031e-08 3.07227e-08 2.54677e-09)
(7.79267e-08 1.5591e-08 1.79996e-08)
(8.00686e-08 1.73965e-09 3.22994e-08)
(8.05858e-08 -9.75133e-09 4.41289e-08)
(8.3067e-08 -2.04158e-08 5.51453e-08)
(9.02079e-08 -3.10626e-08 6.65662e-08)
(1.05186e-07 -4.65207e-08 7.78507e-08)
(1.30347e-07 -9.32562e-08 8.44408e-08)
(5.58679e-08 2.01631e-08 8.33884e-10)
(6.36055e-08 4.86398e-09 1.12237e-08)
(6.51184e-08 -7.75955e-09 2.36647e-08)
(6.54964e-08 -1.76974e-08 3.50925e-08)
(6.79283e-08 -2.63926e-08 4.541e-08)
(7.52339e-08 -3.41029e-08 5.47871e-08)
(9.07934e-08 -4.52222e-08 6.2001e-08)
(1.16802e-07 -8.65656e-08 6.40096e-08)
(4.95887e-08 1.62929e-08 1.82492e-09)
(5.59953e-08 4.93171e-10 9.98887e-09)
(5.73755e-08 -1.24718e-08 2.00408e-08)
(5.7932e-08 -2.19406e-08 2.98946e-08)
(6.05631e-08 -2.92409e-08 3.87163e-08)
(6.80904e-08 -3.48623e-08 4.59804e-08)
(8.38601e-08 -4.374e-08 5.06447e-08)
(1.09818e-07 -8.2729e-08 5.13874e-08)
(4.64495e-08 1.4788e-08 2.14256e-09)
(5.23522e-08 -1.05747e-09 8.60898e-09)
(5.38171e-08 -1.4276e-08 1.62355e-08)
(5.4625e-08 -2.36464e-08 2.38742e-08)
(5.74955e-08 -3.02742e-08 3.06907e-08)
(6.51849e-08 -3.49259e-08 3.6018e-08)
(8.09518e-08 -4.29728e-08 3.91679e-08)
(1.06618e-07 -8.08388e-08 3.96908e-08)
(4.48275e-08 1.41594e-08 1.82307e-09)
(5.0607e-08 -1.53192e-09 6.52891e-09)
(5.22069e-08 -1.47459e-08 1.18461e-08)
(5.32211e-08 -2.40708e-08 1.71653e-08)
(5.62713e-08 -3.04711e-08 2.18969e-08)
(6.40487e-08 -3.48377e-08 2.55228e-08)
(7.97442e-08 -4.26873e-08 2.76335e-08)
(1.05134e-07 -7.99651e-08 2.80887e-08)
(4.39752e-08 1.38836e-08 1.18177e-09)
(4.97377e-08 -1.63733e-09 4.0317e-09)
(5.14405e-08 -1.47526e-08 7.16313e-09)
(5.25858e-08 -2.40331e-08 1.02733e-08)
(5.57423e-08 -3.0391e-08 1.30321e-08)
(6.35587e-08 -3.47435e-08 1.51376e-08)
(7.9187e-08 -4.26037e-08 1.63748e-08)
(1.04385e-07 -7.95803e-08 1.66954e-08)
(4.35984e-08 1.37749e-08 4.05986e-10)
(4.93595e-08 -1.64435e-09 1.35895e-09)
(5.11124e-08 -1.46864e-08 2.39224e-09)
(5.23188e-08 -2.39385e-08 3.41344e-09)
(5.55224e-08 -3.03005e-08 4.31778e-09)
(6.33526e-08 -3.46873e-08 5.00828e-09)
(7.89438e-08 -4.25842e-08 5.41782e-09)
(1.04046e-07 -7.9435e-08 5.53324e-09)
(2.82637e-08 6.17487e-08 9.03432e-08)
(4.6514e-08 4.18723e-08 1.14649e-07)
(4.9165e-08 2.24146e-08 1.31449e-07)
(4.8581e-08 7.64892e-09 1.45513e-07)
(4.93115e-08 -5.26709e-09 1.59801e-07)
(5.37212e-08 -1.90116e-08 1.76276e-07)
(6.42499e-08 -4.11758e-08 1.96317e-07)
(7.94382e-08 -1.00019e-07 2.19741e-07)
(2.9017e-09 4.37274e-08 8.12619e-08)
(8.34463e-09 3.15328e-08 1.04895e-07)
(9.77039e-09 1.82323e-08 1.20541e-07)
(9.67529e-09 5.23817e-09 1.33603e-07)
(1.00283e-08 -8.42105e-09 1.47051e-07)
(1.19085e-08 -2.34516e-08 1.62925e-07)
(1.60429e-08 -4.43078e-08 1.83391e-07)
(2.081e-08 -9.6187e-08 2.10349e-07)
(-2.82751e-09 4.33322e-08 8.02956e-08)
(-7.10799e-09 3.10203e-08 1.03988e-07)
(-7.08232e-09 1.76284e-08 1.19668e-07)
(-5.45169e-09 4.55443e-09 1.32751e-07)
(-4.20306e-09 -9.17946e-09 1.4621e-07)
(-4.42172e-09 -2.42844e-08 1.62082e-07)
(-6.8793e-09 -4.51958e-08 1.82535e-07)
(-1.00981e-08 -9.68757e-08 2.09497e-07)
(-2.72775e-08 6.01886e-08 8.76454e-08)
(-4.40604e-08 4.01574e-08 1.12151e-07)
(-4.52745e-08 2.05314e-08 1.29033e-07)
(-4.31616e-08 5.55776e-09 1.43155e-07)
(-4.22775e-08 -7.56269e-09 1.57473e-07)
(-4.50168e-08 -2.15035e-08 1.73949e-07)
(-5.38655e-08 -4.38147e-08 1.93969e-07)
(-6.74339e-08 -1.02155e-07 2.17447e-07)
(-8.09757e-08 5.54614e-08 2.7756e-08)
(-9.35101e-08 3.34723e-08 5.46337e-08)
(-9.57488e-08 1.3295e-08 7.01909e-08)
(-9.54158e-08 -1.24744e-09 8.25315e-08)
(-9.67106e-08 -1.35173e-08 9.4722e-08)
(-1.0228e-07 -2.6151e-08 1.0853e-07)
(-1.14726e-07 -4.65474e-08 1.25147e-07)
(-1.34881e-07 -1.02984e-07 1.41874e-07)
(-6.26072e-08 2.87368e-08 2.75884e-09)
(-7.14301e-08 1.32969e-08 1.84415e-08)
(-7.22121e-08 -8.57659e-10 3.29365e-08)
(-7.12164e-08 -1.26313e-08 4.49217e-08)
(-7.20529e-08 -2.35432e-08 5.60432e-08)
(-7.74585e-08 -3.44073e-08 6.75222e-08)
(-9.06782e-08 -5.00071e-08 7.8823e-08)
(-1.14111e-07 -9.62244e-08 8.54012e-08)
(-5.08881e-08 1.83556e-08 1.02011e-09)
(-5.74112e-08 2.73492e-09 1.16294e-08)
(-5.7641e-08 -1.02379e-08 2.4227e-08)
(-5.65643e-08 -2.05008e-08 3.57778e-08)
(-5.7382e-08 -2.94767e-08 4.61845e-08)
(-6.29505e-08 -3.74316e-08 5.56156e-08)
(-7.67207e-08 -4.87141e-08 6.28513e-08)
(-1.0096e-07 -8.95449e-08 6.48598e-08)
(-4.47949e-08 1.45966e-08 1.95822e-09)
(-5.00746e-08 -1.51729e-09 1.03004e-08)
(-5.02375e-08 -1.48446e-08 2.04788e-08)
(-4.93894e-08 -2.46628e-08 3.04298e-08)
(-5.0436e-08 -3.22705e-08 3.93244e-08)
(-5.62329e-08 -3.81604e-08 4.66369e-08)
(-7.0195e-08 -4.72186e-08 5.13257e-08)
(-9.43534e-08 -8.56999e-08 5.2073e-08)
(-4.17851e-08 1.31704e-08 2.23394e-09)
(-4.66312e-08 -2.98107e-09 8.83179e-09)
(-4.69338e-08 -1.65657e-08 1.65557e-08)
(-4.63788e-08 -2.62985e-08 2.42699e-08)
(-4.76921e-08 -3.32514e-08 3.11443e-08)
(-5.36625e-08 -3.81892e-08 3.65121e-08)
(-6.76167e-08 -4.643e-08 3.96851e-08)
(-9.14678e-08 -8.37942e-08 4.02144e-08)
(-4.02443e-08 1.25949e-08 1.88226e-09)
(-4.50158e-08 -3.39392e-09 6.67641e-09)
(-4.5494e-08 -1.69745e-08 1.20618e-08)
(-4.51775e-08 -2.66689e-08 1.74353e-08)
(-4.66933e-08 -3.34054e-08 2.22094e-08)
(-5.27639e-08 -3.807e-08 2.5866e-08)
(-6.66485e-08 -4.6123e-08 2.79955e-08)
(-9.02169e-08 -8.2904e-08 2.84566e-08)
(-3.94393e-08 1.23515e-08 1.21505e-09)
(-4.42231e-08 -3.46003e-09 4.11548e-09)
(-4.48303e-08 -1.69411e-08 7.28697e-09)
(-4.46669e-08 -2.65947e-08 1.04298e-08)
(-4.63053e-08 -3.32952e-08 1.32146e-08)
(-5.24249e-08 -3.79529e-08 1.53394e-08)
(-6.62458e-08 -4.60228e-08 1.65888e-08)
(-8.96213e-08 -8.25062e-08 1.69135e-08)
(-3.90841e-08 1.22579e-08 4.16723e-10)
(-4.38803e-08 -3.44801e-09 1.3861e-09)
(-4.45504e-08 -1.6855e-08 2.43257e-09)
(-4.44589e-08 -2.64818e-08 3.46466e-09)
(-4.61531e-08 -3.31894e-08 4.37778e-09)
(-5.22919e-08 -3.78848e-08 5.07486e-09)
(-6.60782e-08 -4.59943e-08 5.48859e-09)
(-8.93585e-08 -8.23538e-08 5.60548e-09)
(7.97438e-08 -1.78727e-07 1.46063e-07)
(6.52092e-08 -1.65283e-07 8.71994e-08)
(5.52482e-08 -1.55226e-07 6.49887e-08)
(5.10254e-08 -1.48834e-07 5.13905e-08)
(4.97517e-08 -1.45095e-07 3.94145e-08)
(4.94844e-08 -1.42995e-07 2.78578e-08)
(4.94365e-08 -1.41874e-07 1.65755e-08)
(4.94172e-08 -1.41386e-07 5.49915e-09)
(2.11125e-08 -1.69927e-07 1.41648e-07)
(1.69867e-08 -1.52976e-07 8.97981e-08)
(1.34511e-08 -1.42527e-07 6.89974e-08)
(1.19784e-08 -1.36715e-07 5.41297e-08)
(1.16773e-08 -1.33593e-07 4.08047e-08)
(1.17286e-08 -1.31881e-07 2.8462e-08)
(1.18014e-08 -1.30953e-07 1.68127e-08)
(1.18332e-08 -1.3054e-07 5.56159e-09)
(-9.78144e-09 -1.69684e-07 1.41723e-07)
(-5.93196e-09 -1.52732e-07 9.00744e-08)
(-2.7834e-09 -1.42295e-07 6.92285e-08)
(-1.67274e-09 -1.36489e-07 5.43053e-08)
(-1.66856e-09 -1.33366e-07 4.09341e-08)
(-1.94373e-09 -1.31651e-07 2.85513e-08)
(-2.16571e-09 -1.30721e-07 1.68651e-08)
(-2.27196e-09 -1.30305e-07 5.57891e-09)
(-6.71128e-08 -1.78268e-07 1.46347e-07)
(-5.29223e-08 -1.64771e-07 8.79871e-08)
(-4.33456e-08 -1.54737e-07 6.56527e-08)
(-3.94842e-08 -1.48353e-07 5.19067e-08)
(-3.85128e-08 -1.44611e-07 3.98011e-08)
(-3.84743e-08 -1.42502e-07 2.81267e-08)
(-3.85786e-08 -1.41373e-07 1.67341e-08)
(-3.86352e-08 -1.40881e-07 5.55156e-09)
)
;
        gradient        nonuniform List<vector> 
192
(
(4.67822e-06 1.46449e-06 -1.89534e-07)
(4.3838e-06 4.05377e-07 -3.13336e-07)
(4.47523e-06 4.15141e-08 -3.38127e-07)
(4.6146e-06 7.23376e-09 -3.40549e-07)
(4.78375e-06 1.07702e-07 -3.41008e-07)
(5.00503e-06 3.01689e-07 -3.40258e-07)
(5.29456e-06 5.10793e-07 -3.35468e-07)
(5.84471e-06 3.51055e-07 -3.25902e-07)
(3.881e-06 1.02383e-06 -2.85625e-07)
(3.68204e-06 2.82105e-07 -4.63606e-07)
(3.73381e-06 1.39626e-08 -4.99359e-07)
(3.83893e-06 -4.24509e-09 -5.06698e-07)
(3.99069e-06 9.82144e-08 -5.12876e-07)
(4.21588e-06 3.0142e-07 -5.16485e-07)
(4.5546e-06 5.32291e-07 -5.08729e-07)
(5.29799e-06 3.60909e-07 -4.86747e-07)
(3.3909e-06 7.15312e-07 -1.68548e-07)
(3.30571e-06 1.91661e-07 -2.81222e-07)
(3.36428e-06 -1.57203e-09 -3.00338e-07)
(3.46327e-06 -6.28279e-09 -2.98475e-07)
(3.61424e-06 9.79137e-08 -2.95957e-07)
(3.85066e-06 3.05835e-07 -2.92788e-07)
(4.22019e-06 5.4053e-07 -2.88072e-07)
(5.01409e-06 3.66666e-07 -2.8696e-07)
(3.09799e-06 5.74098e-07 -7.21298e-08)
(3.05233e-06 1.50329e-07 -1.2139e-07)
(3.11961e-06 -3.28651e-09 -1.25744e-07)
(3.22042e-06 1.36478e-10 -1.18436e-07)
(3.3741e-06 1.03902e-07 -1.11179e-07)
(3.61753e-06 3.09305e-07 -1.06275e-07)
(4.00074e-06 5.38121e-07 -1.06715e-07)
(4.80341e-06 3.68556e-07 -1.1446e-07)
(2.92592e-06 5.21817e-07 -2.71326e-08)
(2.89094e-06 1.38056e-07 -4.31369e-08)
(2.96309e-06 1.38579e-09 -4.05959e-08)
(3.06723e-06 8.28363e-09 -3.29639e-08)
(3.22426e-06 1.10074e-07 -2.60853e-08)
(3.47179e-06 3.103e-07 -2.26473e-08)
(3.85967e-06 5.32347e-07 -2.54937e-08)
(4.65719e-06 3.67959e-07 -3.3776e-08)
(2.8256e-06 5.03846e-07 -1.04518e-08)
(2.79377e-06 1.36873e-07 -1.43407e-08)
(2.86846e-06 6.88914e-09 -1.0549e-08)
(2.97535e-06 1.4648e-08 -4.9292e-09)
(3.13505e-06 1.14219e-07 -2.98663e-10)
(3.38474e-06 3.09897e-07 1.45116e-09)
(3.77341e-06 5.26993e-07 -1.40524e-09)
(4.5637e-06 3.6617e-07 -7.60389e-09)
(2.76976e-06 4.97035e-07 -4.35688e-09)
(2.73912e-06 1.37964e-07 -5.14144e-09)
(2.81513e-06 1.07992e-08 -2.55458e-09)
(2.92379e-06 1.85346e-08 6.38424e-10)
(3.08517e-06 1.16455e-07 3.09215e-09)
(3.33586e-06 3.09194e-07 3.80738e-09)
(3.72408e-06 5.23293e-07 1.94189e-09)
(4.50892e-06 3.6435e-07 -1.73055e-09)
(2.74469e-06 4.94354e-07 -1.26818e-09)
(2.71452e-06 1.38678e-07 -1.41468e-09)
(2.7911e-06 1.26701e-08 -5.55244e-10)
(2.90059e-06 2.02951e-08 4.55868e-10)
(3.06276e-06 1.17388e-07 1.20511e-09)
(3.31381e-06 3.08747e-07 1.38873e-09)
(3.70159e-06 5.21456e-07 7.58248e-10)
(4.48364e-06 3.63269e-07 -4.47971e-10)
(4.01388e-08 1.78059e-06 4.79794e-06)
(8.40846e-08 8.78716e-07 4.47913e-06)
(9.07178e-08 5.56957e-07 4.57163e-06)
(8.33855e-08 4.85882e-07 4.72048e-06)
(7.35187e-08 5.16633e-07 4.89625e-06)
(6.38322e-08 6.0567e-07 5.11497e-06)
(6.19098e-08 6.63602e-07 5.39493e-06)
(7.81289e-08 3.54557e-07 5.93783e-06)
(-5.66575e-08 1.65324e-06 4.29014e-06)
(-7.40652e-08 8.54946e-07 3.98947e-06)
(-7.85727e-08 5.4263e-07 4.01277e-06)
(-8.61955e-08 4.67232e-07 4.11559e-06)
(-9.57305e-08 4.97218e-07 4.26466e-06)
(-1.04742e-07 5.96822e-07 4.47254e-06)
(-1.04205e-07 6.85058e-07 4.78452e-06)
(-8.34294e-08 3.68833e-07 5.52625e-06)
(5.00851e-08 1.64978e-06 4.22087e-06)
(6.98984e-08 8.56758e-07 3.92273e-06)
(7.91307e-08 5.44809e-07 3.94369e-06)
(9.02728e-08 4.68715e-07 4.04454e-06)
(1.01999e-07 4.98077e-07 4.19216e-06)
(1.12211e-07 5.9718e-07 4.39872e-06)
(1.11994e-07 6.84884e-07 4.70949e-06)
(9.05162e-08 3.68757e-07 5.45241e-06)
(-4.31775e-08 1.77314e-06 4.6006e-06)
(-8.4039e-08 8.8395e-07 4.29061e-06)
(-8.64292e-08 5.62986e-07 4.37585e-06)
(-7.58917e-08 4.90092e-07 4.51896e-06)
(-6.39789e-08 5.19149e-07 4.69071e-06)
(-5.31771e-08 6.06806e-07 4.90591e-06)
(-5.09527e-08 6.63337e-07 5.1831e-06)
(-6.76456e-08 3.54415e-07 5.73237e-06)
(-4.33904e-06 1.39496e-06 -1.9055e-07)
(-4.04002e-06 3.49141e-07 -3.10798e-07)
(-4.12437e-06 -1.59302e-08 -3.31532e-07)
(-4.25623e-06 -5.43247e-08 -3.30898e-07)
(-4.41862e-06 4.27816e-08 -3.29401e-07)
(-4.63424e-06 2.35009e-07 -3.27623e-07)
(-4.91978e-06 4.44717e-07 -3.22614e-07)
(-5.46341e-06 2.88141e-07 -3.13506e-07)
(-3.54544e-06 9.57191e-07 -2.83591e-07)
(-3.3488e-06 2.29766e-07 -4.57566e-07)
(-3.39479e-06 -4.01133e-08 -4.89812e-07)
(-3.49218e-06 -6.34237e-08 -4.94471e-07)
(-3.63575e-06 3.46948e-08 -4.98866e-07)
(-3.85275e-06 2.35279e-07 -5.01538e-07)
(-4.18464e-06 4.66064e-07 -4.93585e-07)
(-4.92066e-06 2.97413e-07 -4.71923e-07)
(-3.06637e-06 6.53806e-07 -1.6555e-07)
(-2.98236e-06 1.42911e-07 -2.74353e-07)
(-3.03498e-06 -5.28406e-08 -2.90517e-07)
(-3.12597e-06 -6.33827e-08 -2.86365e-07)
(-3.26779e-06 3.57118e-08 -2.82231e-07)
(-3.49402e-06 2.40287e-07 -2.78123e-07)
(-3.85372e-06 4.74332e-07 -2.73074e-07)
(-4.63744e-06 3.02983e-07 -2.72014e-07)
(-2.78264e-06 5.17288e-07 -6.96956e-08)
(-2.73777e-06 1.04792e-07 -1.15664e-07)
(-2.79889e-06 -5.213e-08 -1.17517e-07)
(-2.89148e-06 -5.51397e-08 -1.08251e-07)
(-3.03533e-06 4.29356e-08 -9.9559e-08)
(-3.26722e-06 2.44435e-07 -9.37371e-08)
(-3.63831e-06 4.72174e-07 -9.37165e-08)
(-4.42819e-06 3.05e-07 -1.01284e-07)
(-2.61691e-06 4.68448e-07 -2.54867e-08)
(-2.58261e-06 9.50846e-08 -3.90662e-08)
(-2.64847e-06 -4.5431e-08 -3.45538e-08)
(-2.74414e-06 -4.54259e-08 -2.53221e-08)
(-2.89084e-06 5.0225e-08 -1.72297e-08)
(-3.12594e-06 2.4613e-07 -1.29589e-08)
(-3.50029e-06 4.66786e-07 -1.53046e-08)
(-4.28326e-06 3.04686e-07 -2.32933e-08)
(-2.52054e-06 4.52735e-07 -9.43965e-09)
(-2.48933e-06 9.57213e-08 -1.17465e-08)
(-2.55763e-06 -3.8388e-08 -6.57299e-09)
(-2.65582e-06 -3.78164e-08 2.24949e-10)
(-2.80484e-06 5.52987e-08 5.78326e-09)
(-3.04155e-06 2.4636e-07 8.20146e-09)
(-3.41583e-06 4.61841e-07 5.78591e-09)
(-4.19046e-06 3.03218e-07 -1.18169e-10)
(-2.467e-06 4.47262e-07 -3.81315e-09)
(-2.43695e-06 9.7949e-08 -3.72054e-09)
(-2.50649e-06 -3.34609e-08 -3.28651e-10)
(-2.60629e-06 -3.30702e-08 3.57974e-09)
(-2.75677e-06 5.82016e-08 6.61503e-09)