/*--------------------------------*- C++ -*----------------------------------*\
| =========                 |                                                 |
| \\      /  F ield         | OpenFOAM: The Open Source CFD Toolbox           |
|  \\    /   O peration     | Version:  v1912                                 |
|   \\  /    A nd           | Website:  www.openfoam.com                      |
|    \\/     M anipulation  |                                                 |
\*---------------------------------------------------------------------------*/
FoamFile
{
    version     2.0;
    format      ascii;
    class       volVectorField;
    location    "0.75/solid";
    object      D_0_0;
}
// * * * * * * * * * * * * * * * * * * * * * * * * * * * * * * * * * * * * * //

dimensions      [0 1 0 0 0 0 0];


internalField   nonuniform List<vector> 
256
(
(2.73144e-08 3.90234e-08 2.98214e-08)
(3.5047e-09 2.27649e-08 2.71133e-08)
(-3.31952e-09 2.24246e-08 2.70272e-08)
(-2.62989e-08 3.75972e-08 2.96335e-08)
(4.46315e-08 3.04866e-08 5.738e-08)
(9.05516e-09 2.05965e-08 5.37882e-08)
(-7.70244e-09 2.00662e-08 5.37445e-08)
(-4.21672e-08 2.87159e-08 5.73269e-08)
(4.71162e-08 1.5404e-08 7.25033e-08)
(1.05204e-08 1.14697e-08 6.86363e-08)
(-7.73496e-09 1.0832e-08 6.86641e-08)
(-4.32288e-08 1.34184e-08 7.26484e-08)
(4.66427e-08 1.93142e-09 8.42699e-08)
(1.05483e-08 -2.1499e-10 7.9994e-08)
(-6.21721e-09 -9.35236e-10 8.0074e-08)
(-4.12131e-08 -2.72378e-10 8.4563e-08)
(4.75035e-08 -1.09289e-08 9.59325e-08)
(1.10486e-08 -1.3801e-08 9.11739e-08)
(-5.07414e-09 -1.45989e-08 9.12872e-08)
(-4.04167e-08 -1.33467e-08 9.63226e-08)
(5.19526e-08 -2.52502e-08 1.0921e-07)
(1.30391e-08 -2.95244e-08 1.04004e-07)
(-5.33275e-09 -3.04012e-08 1.04138e-07)
(-4.31255e-08 -2.78779e-08 1.0966e-07)
(6.22908e-08 -4.73546e-08 1.25253e-07)
(1.71218e-08 -5.07353e-08 1.20067e-07)
(-7.63847e-09 -5.1673e-08 1.20209e-07)
(-5.1687e-08 -5.01473e-08 1.2573e-07)
(7.70402e-08 -1.01264e-07 1.41503e-07)
(2.15876e-08 -9.76917e-08 1.37329e-07)
(-1.042e-08 -9.84503e-08 1.37463e-07)
(-6.46932e-08 -1.03612e-07 1.41968e-07)
(1.90011e-08 1.77567e-08 5.8844e-09)
(1.79185e-09 4.42399e-09 7.21575e-09)
(-1.6213e-09 4.19091e-09 7.28697e-09)
(-1.80204e-08 1.66275e-08 6.08952e-09)
(3.1347e-08 1.20667e-08 2.30669e-08)
(5.72144e-09 3.79553e-09 2.56616e-08)
(-4.45849e-09 3.30674e-09 2.58055e-08)
(-2.90369e-08 1.04244e-08 2.34833e-08)
(3.27892e-08 1.8891e-09 3.73563e-08)
(6.77489e-09 -1.51391e-09 4.03729e-08)
(-4.17035e-09 -2.14711e-09 4.05771e-08)
(-2.91677e-08 -6.52883e-11 3.79464e-08)
(3.20187e-08 -9.00681e-09 4.88663e-08)
(6.73523e-09 -1.09792e-08 5.1923e-08)
(-2.66539e-09 -1.17049e-08 5.21754e-08)
(-2.69398e-08 -1.12098e-08 4.95952e-08)
(3.26145e-08 -2.05468e-08 5.95656e-08)
(7.1857e-09 -2.33539e-08 6.25219e-08)
(-1.53454e-09 -2.41583e-08 6.28081e-08)
(-2.59356e-08 -2.2972e-08 6.03919e-08)
(3.68585e-08 -3.32629e-08 7.06377e-08)
(9.12855e-09 -3.75674e-08 7.34642e-08)
(-1.78955e-09 -3.84502e-08 7.37714e-08)
(-2.84721e-08 -3.5902e-08 7.15238e-08)
(4.73654e-08 -5.09645e-08 8.14657e-08)
(1.32332e-08 -5.4307e-08 8.42446e-08)
(-4.14297e-09 -5.52529e-08 8.4561e-08)
(-3.72148e-08 -5.37767e-08 8.23776e-08)
(6.29477e-08 -9.46746e-08 8.75808e-08)
(1.77668e-08 -9.01135e-08 9.04073e-08)
(-6.99644e-09 -9.08864e-08 9.0723e-08)
(-5.10514e-08 -9.7054e-08 8.84907e-08)
(1.33264e-08 1.11699e-08 2.82529e-09)
(2.96408e-10 2.23501e-11 4.61352e-09)
(-1.85252e-10 -1.78171e-10 4.6698e-09)
(-1.243e-08 1.01553e-08 2.98609e-09)
(2.19748e-08 2.67359e-09 1.42827e-08)
(2.68791e-09 -4.16605e-09 1.76608e-08)
(-1.59465e-09 -4.61751e-09 1.77836e-08)
(-1.98632e-08 1.1536e-09 1.46361e-08)
(2.27295e-08 -7.19553e-09 2.65828e-08)
(3.34356e-09 -1.0098e-08 3.04676e-08)
(-9.99009e-10 -1.0705e-08 3.06372e-08)
(-1.93984e-08 -9.062e-09 2.70736e-08)
(2.18981e-08 -1.67266e-08 3.76173e-08)
(3.25683e-09 -1.85988e-08 4.16076e-08)
(4.8054e-10 -1.93087e-08 4.18142e-08)
(-1.71824e-08 -1.88735e-08 3.82171e-08)
(2.24528e-08 -2.63684e-08 4.75554e-08)
(3.68153e-09 -2.91987e-08 5.15293e-08)
(1.58091e-09 -2.99941e-08 5.17641e-08)
(-1.61895e-08 -2.87601e-08 4.8237e-08)
(2.67157e-08 -3.62942e-08 5.65802e-08)
(5.60063e-09 -4.06629e-08 6.05015e-08)
(1.30883e-09 -4.15414e-08 6.0755e-08)
(-1.87771e-08 -3.89167e-08 5.73157e-08)
(3.7404e-08 -4.98356e-08 6.35046e-08)
(9.72318e-09 -5.32369e-08 6.73639e-08)
(-1.08932e-09 -5.41822e-08 6.76269e-08)
(-2.77157e-08 -5.26441e-08 6.4267e-08)
(5.31792e-08 -8.82618e-08 6.5436e-08)
(1.42882e-08 -8.37062e-08 6.92643e-08)
(-3.98928e-09 -8.448e-08 6.95286e-08)
(-4.1748e-08 -9.06386e-08 6.62014e-08)
(1.07734e-08 9.11061e-09 2.63728e-09)
(-3.31841e-10 -7.73645e-10 3.78268e-09)
(3.99739e-10 -9.63645e-10 3.82063e-09)
(-9.9521e-09 8.15115e-09 2.74891e-09)
(1.76519e-08 -1.09923e-09 1.1158e-08)
(1.29388e-09 -7.08464e-09 1.33398e-08)
(-3.41182e-10 -7.51226e-09 1.34299e-08)
(-1.57164e-08 -2.53476e-09 1.14218e-08)
(1.81755e-08 -1.17898e-08 2.09616e-08)
(1.75758e-09 -1.43914e-08 2.34663e-08)
(3.63301e-10 -1.49728e-08 2.35929e-08)
(-1.50984e-08 -1.35735e-08 2.13336e-08)
(1.74939e-08 -2.09651e-08 3.0417e-08)
(1.6939e-09 -2.28012e-08 3.29668e-08)
(1.7546e-09 -2.349e-08 3.31216e-08)
(-1.30945e-08 -2.30451e-08 3.08735e-08)
(1.82046e-08 -2.92471e-08 3.88636e-08)
(2.15754e-09 -3.21201e-08 4.13785e-08)
(2.76626e-09 -3.29001e-08 4.15554e-08)
(-1.23046e-08 -3.15907e-08 3.93857e-08)
(2.25934e-08 -3.71175e-08 4.5832e-08)
(4.09217e-09 -4.15464e-08 4.82984e-08)
(2.44203e-09 -4.24145e-08 4.8491e-08)
(-1.50493e-08 -3.97085e-08 4.64003e-08)
(3.33165e-08 -4.84216e-08 5.03581e-08)
(8.19208e-09 -5.19621e-08 5.27888e-08)
(4.0118e-11 -5.29005e-08 5.29903e-08)
(-2.40401e-08 -5.12099e-08 5.09523e-08)
(4.89321e-08 -8.46144e-08 5.11889e-08)
(1.272e-08 -8.05035e-08 5.36656e-08)
(-2.84231e-09 -8.12723e-08 5.38682e-08)
(-3.79217e-08 -8.69747e-08 5.1787e-08)
(9.80787e-09 8.27615e-09 2.4053e-09)
(-4.81932e-10 -9.73526e-10 2.98021e-09)
(5.22846e-10 -1.157e-09 3.0061e-09)
(-9.03912e-09 7.3546e-09 2.48232e-09)
(1.60663e-08 -2.47263e-09 8.87259e-09)
(8.9977e-10 -8.04506e-09 9.96241e-09)
(-4.50152e-11 -8.45633e-09 1.00264e-08)
(-1.42607e-08 -3.84781e-09 9.06118e-09)
(1.6613e-08 -1.36275e-08 1.62379e-08)
(1.32241e-09 -1.61032e-08 1.7473e-08)
(6.33487e-10 -1.66646e-08 1.75645e-08)
(-1.37287e-08 -1.53462e-08 1.65085e-08)
(1.61323e-08 -2.27584e-08 2.35469e-08)
(1.31091e-09 -2.46061e-08 2.47758e-08)
(1.91756e-09 -2.52762e-08 2.48885e-08)
(-1.19776e-08 -2.47799e-08 2.38818e-08)
(1.70306e-08 -3.03693e-08 3.00637e-08)
(1.82859e-09 -3.32849e-08 3.1247e-08)
(2.83241e-09 -3.40495e-08 3.13764e-08)
(-1.14157e-08 -3.26661e-08 3.04493e-08)
(2.15234e-08 -3.72411e-08 3.51815e-08)
(3.78018e-09 -4.17091e-08 3.63275e-08)
(2.45903e-09 -4.25655e-08 3.64694e-08)
(-1.42933e-08 -3.97975e-08 3.56045e-08)
(3.2186e-08 -4.76649e-08 3.82767e-08)
(7.8359e-09 -5.13152e-08 3.94175e-08)
(7.69843e-11 -5.22449e-08 3.95667e-08)
(-2.32422e-08 -5.04284e-08 3.87219e-08)
(4.75804e-08 -8.28283e-08 3.89084e-08)
(1.23093e-08 -7.91108e-08 4.0119e-08)
(-2.77e-09 -7.9873e-08 4.0269e-08)
(-3.69146e-08 -8.5169e-08 3.93573e-08)
(9.44603e-09 7.87763e-09 1.8943e-09)
(-4.83347e-10 -1.06517e-09 2.15477e-09)
(5.07782e-10 -1.2438e-09 2.17187e-09)
(-8.71063e-09 6.98256e-09 1.94495e-09)
(1.55442e-08 -2.93127e-09 6.50567e-09)
(8.55834e-10 -8.32722e-09 6.98723e-09)
(-6.50015e-11 -8.72685e-09 7.03014e-09)
(-1.38244e-08 -4.26357e-09 6.63173e-09)
(1.61895e-08 -1.41723e-08 1.16153e-08)
(1.29505e-09 -1.6615e-08 1.21447e-08)
(5.48359e-10 -1.71619e-08 1.22067e-08)
(-1.34373e-08 -1.58436e-08 1.17984e-08)
(1.5873e-08 -2.32785e-08 1.6702e-08)
(1.33053e-09 -2.51552e-08 1.72079e-08)
(1.74314e-09 -2.58109e-08 1.72849e-08)
(-1.18903e-08 -2.52552e-08 1.69306e-08)
(1.69099e-08 -3.06488e-08 2.12298e-08)
(1.88774e-09 -3.35966e-08 2.16985e-08)
(2.58436e-09 -3.43488e-08 2.17874e-08)
(-1.14992e-08 -3.29077e-08 2.14949e-08)
(2.14592e-08 -3.71946e-08 2.47238e-08)
(3.84562e-09 -4.16794e-08 2.51715e-08)
(2.1783e-09 -4.25257e-08 2.52694e-08)
(-1.44574e-08 -3.97212e-08 2.50165e-08)
(3.20426e-08 -4.73721e-08 2.68143e-08)
(7.85936e-09 -5.10746e-08 2.72723e-08)
(-1.8217e-10 -5.19965e-08 2.73756e-08)
(-2.3344e-08 -5.0113e-08 2.71239e-08)
(4.72561e-08 -8.20049e-08 2.73532e-08)
(1.22862e-08 -7.85154e-08 2.78678e-08)
(-2.99876e-09 -7.92716e-08 2.79716e-08)
(-3.68477e-08 -8.43275e-08 2.76659e-08)
(9.29301e-09 7.68826e-09 1.19864e-09)
(-4.64829e-10 -1.10615e-09 1.3086e-09)
(4.7984e-10 -1.28159e-09 1.3184e-09)
(-8.57699e-09 6.80974e-09 1.22747e-09)
(1.5358e-08 -3.05565e-09 3.97198e-09)
(8.7742e-10 -8.3803e-09 4.168e-09)
(-1.2471e-10 -8.77233e-09 4.19275e-09)
(-1.36893e-08 -4.36032e-09 4.04424e-09)
(1.60855e-08 -1.42411e-08 6.97659e-09)
(1.33847e-09 -1.66833e-08 7.18324e-09)
(4.35832e-10 -1.72208e-08 7.21924e-09)
(-1.34141e-08 -1.58814e-08 7.08236e-09)
(1.58729e-08 -2.33105e-08 9.95218e-09)
(1.40395e-09 -2.52122e-08 1.01396e-08)
(1.57226e-09 -2.58585e-08 1.01845e-08)
(-1.19978e-08 -2.52574e-08 1.00851e-08)
(1.69902e-08 -3.06253e-08 1.2596e-08)
(1.98268e-09 -3.35923e-08 1.27615e-08)
(2.36827e-09 -3.4336e-08 1.28136e-08)
(-1.17096e-08 -3.28581e-08 1.2751e-08)
(2.15636e-08 -3.7126e-08 1.46302e-08)
(3.94019e-09 -4.1614e-08 1.47868e-08)
(1.94379e-09 -4.24533e-08 1.48443e-08)
(-1.47093e-08 -3.96314e-08 1.48021e-08)
(3.20867e-08 -4.72807e-08 1.58598e-08)
(7.9247e-09 -5.09979e-08 1.60278e-08)
(-4.02184e-10 -5.19141e-08 1.60886e-08)
(-2.35483e-08 -5.00049e-08 1.60423e-08)
(4.71807e-08 -8.16421e-08 1.62304e-08)
(1.23196e-08 -7.82569e-08 1.64322e-08)
(-3.19863e-09 -7.90085e-08 1.64933e-08)
(-3.6942e-08 -8.39513e-08 1.64149e-08)
(9.22986e-09 7.613e-09 4.08998e-10)
(-4.54955e-10 -1.11922e-09 4.39555e-10)
(4.65694e-10 -1.2931e-09 4.42754e-10)
(-8.52274e-09 6.74238e-09 4.18356e-10)
(1.52865e-08 -3.07574e-09 1.33489e-09)
(8.91551e-10 -8.37458e-09 1.38799e-09)
(-1.56573e-10 -8.76286e-09 1.39608e-09)
(-1.36415e-08 -4.36691e-09 1.35843e-09)
(1.60549e-08 -1.42072e-08 2.32622e-09)
(1.36404e-09 -1.66535e-08 2.38051e-09)
(3.77542e-10 -1.71863e-08 2.39231e-09)
(-1.34215e-08 -1.58322e-08 2.36079e-09)
(1.58903e-08 -2.32511e-08 3.30372e-09)
(1.44313e-09 -2.51659e-08 3.35108e-09)
(1.48623e-09 -2.58075e-08 3.36583e-09)
(-1.20667e-08 -2.51829e-08 3.34731e-09)
(1.70428e-08 -3.05628e-08 4.17121e-09)
(2.03063e-09 -3.35383e-08 4.21156e-09)
(2.26138e-09 -3.42776e-08 4.2287e-09)
(-1.18252e-08 -3.27823e-08 4.2222e-09)
(2.16242e-08 -3.70823e-08 4.8392e-09)
(3.98657e-09 -4.15693e-08 4.87729e-09)
(1.82869e-09 -4.24049e-08 4.89626e-09)
(-1.4842e-08 -3.95768e-08 4.8959e-09)
(3.21165e-08 -4.72572e-08 5.24669e-09)
(7.95664e-09 -5.09755e-08 5.28939e-09)
(-5.1056e-10 -5.18887e-08 5.30948e-09)
(-2.36571e-08 -4.99727e-08 5.307e-09)
(4.7152e-08 -8.15049e-08 5.37859e-09)
(1.23355e-08 -7.81569e-08 5.43225e-09)
(-3.29718e-09 -7.89061e-08 5.45242e-09)
(-3.69974e-08 -8.3807e-08 5.43958e-09)
)
;

boundaryField
{
    interface
    {
        type            solidTraction;
        traction        uniform (0 0 0);
        pressure        uniform 0;
        secondOrder     false;
        setEffectiveTraction false;
        relaxationFactor 1;
        value           nonuniform List<vector> 
192
(
(8.57077e-08 5.70099e-08 2.75007e-08)
(9.93409e-08 3.5437e-08 5.35488e-08)
(1.02963e-07 1.59068e-08 6.83702e-08)
(1.04224e-07 2.0283e-09 8.01059e-08)
(1.07197e-07 -9.60125e-09 9.17606e-08)
(1.14421e-07 -2.15531e-08 1.05044e-07)
(1.28382e-07 -4.10824e-08 1.2114e-07)
(1.49986e-07 -9.69409e-08 1.37499e-07)
(6.74836e-08 3.03437e-08 2.38718e-09)
(7.73314e-08 1.55137e-08 1.74023e-08)
(7.94191e-08 2.05701e-09 3.12592e-08)
(7.99614e-08 -9.0504e-09 4.26797e-08)
(8.24566e-08 -1.93367e-08 5.33026e-08)
(8.9525e-08 -2.9575e-08 6.43281e-08)
(1.04261e-07 -4.44418e-08 7.52437e-08)
(1.2908e-07 -9.02388e-08 8.16152e-08)
(5.57107e-08 1.99952e-08 7.68195e-10)
(6.32758e-08 5.02433e-09 1.08586e-08)
(6.47591e-08 -7.21469e-09 2.2929e-08)
(6.51635e-08 -1.67957e-08 3.39858e-08)
(6.76058e-08 -2.51638e-08 4.39526e-08)
(7.48281e-08 -3.25561e-08 5.30136e-08)
(9.01226e-08 -4.32193e-08 5.99921e-08)
(1.15756e-07 -8.37606e-08 6.19318e-08)
(4.95083e-08 1.62169e-08 1.75756e-09)
(5.57912e-08 7.51276e-10 9.6807e-09)
(5.715e-08 -1.18293e-08 1.94322e-08)
(5.77254e-08 -2.09577e-08 2.89754e-08)
(6.0355e-08 -2.7972e-08 3.75079e-08)
(6.7786e-08 -3.33393e-08 4.45337e-08)
(8.32802e-08 -4.18365e-08 4.90534e-08)
(1.08863e-07 -8.00923e-08 4.97891e-08)
(4.63986e-08 1.47447e-08 2.07339e-09)
(5.21937e-08 -7.71364e-10 8.34554e-09)
(5.36351e-08 -1.36109e-08 1.57413e-08)
(5.44516e-08 -2.26538e-08 2.31416e-08)
(5.73086e-08 -2.90213e-08 2.97399e-08)
(6.48918e-08 -3.34519e-08 3.48978e-08)
(8.03806e-08 -4.11502e-08 3.79581e-08)
(1.05679e-07 -7.83144e-08 3.84893e-08)
(4.47859e-08 1.41252e-08 1.76554e-09)
(5.04604e-08 -1.24542e-09 6.32851e-09)
(5.20314e-08 -1.409e-08 1.14833e-08)
(5.30454e-08 -2.30983e-08 1.6637e-08)
(5.60729e-08 -2.92521e-08 2.12196e-08)
(6.37379e-08 -3.34111e-08 2.47338e-08)
(7.91556e-08 -4.09224e-08 2.67894e-08)
(1.04184e-07 -7.75132e-08 2.72532e-08)
(4.39361e-08 1.3851e-08 1.14457e-09)
(4.95926e-08 -1.35752e-09 3.90749e-09)
(5.1262e-08 -1.41124e-08 6.94287e-09)
(5.24012e-08 -2.30842e-08 9.95644e-09)
(5.55292e-08 -2.92024e-08 1.26292e-08)
(6.32297e-08 -3.33516e-08 1.46714e-08)
(7.85808e-08 -4.08759e-08 1.58782e-08)
(1.03423e-07 -7.71728e-08 1.62044e-08)
(4.35598e-08 1.37421e-08 3.93202e-10)
(4.92141e-08 -1.36949e-09 1.317e-09)
(5.09313e-08 -1.40562e-08 2.31854e-09)
(5.21286e-08 -2.30039e-08 3.30804e-09)
(5.53012e-08 -2.91291e-08 4.18434e-09)
(6.30138e-08 -3.33135e-08 4.85434e-09)
(7.83282e-08 -4.08748e-08 5.25413e-09)
(1.03078e-07 -7.70489e-08 5.37142e-09)
(2.77984e-08 6.08239e-08 8.97686e-08)
(4.56502e-08 4.11573e-08 1.13346e-07)
(4.82172e-08 2.21266e-08 1.2962e-07)
(4.7657e-08 7.78883e-09 1.43238e-07)
(4.84011e-08 -4.69384e-09 1.57095e-07)
(5.27356e-08 -1.792e-08 1.73118e-07)
(6.30522e-08 -3.92812e-08 1.92675e-07)
(7.8e-08 -9.69453e-08 2.15701e-07)
(2.80652e-09 4.29904e-08 8.07437e-08)
(8.14701e-09 3.09774e-08 1.03674e-07)
(9.56139e-09 1.80213e-08 1.18821e-07)
(9.50018e-09 5.41949e-09 1.31467e-07)
(9.88819e-09 -7.79832e-09 1.44517e-07)
(1.1772e-08 -2.2301e-08 1.59966e-07)
(1.58618e-08 -4.24043e-08 1.79939e-07)
(2.05788e-08 -9.32009e-08 2.06427e-07)
(-2.6891e-09 4.26176e-08 7.98107e-08)
(-6.81704e-09 3.04755e-08 1.02812e-07)
(-6.73107e-09 1.74145e-08 1.18001e-07)
(-5.07409e-09 4.72059e-09 1.30675e-07)
(-3.78605e-09 -8.58296e-09 1.43741e-07)
(-3.91804e-09 -2.31708e-08 1.59194e-07)
(-6.22178e-09 -4.33417e-08 1.79161e-07)
(-9.2591e-09 -9.39596e-08 2.05658e-07)
(-2.68092e-08 5.93374e-08 8.7171e-08)
(-4.31603e-08 3.94697e-08 1.10988e-07)
(-4.42427e-08 2.02275e-08 1.27372e-07)
(-4.2094e-08 5.6462e-09 1.41068e-07)
(-4.11501e-08 -7.07257e-09 1.54973e-07)
(-4.37254e-08 -2.0526e-08 1.71014e-07)
(-5.22568e-08 -4.20703e-08 1.90564e-07)
(-6.54632e-08 -9.92928e-08 2.13659e-07)
(-8.05716e-08 5.47139e-08 2.73089e-08)
(-9.26981e-08 3.29486e-08 5.3548e-08)
(-9.48108e-08 1.318e-08 6.86265e-08)
(-9.44387e-08 -9.75372e-10 8.05544e-08)
(-9.56733e-08 -1.28686e-08 9.23359e-08)
(-1.01089e-07 -2.50604e-08 1.05697e-07)
(-1.1323e-07 -4.47555e-08 1.21828e-07)
(-1.33021e-07 -1.00139e-07 1.38173e-07)
(-6.24187e-08 2.83919e-08 2.62226e-09)
(-7.09645e-08 1.32113e-08 1.79072e-08)
(-7.16698e-08 -5.89521e-10 3.19888e-08)
(-7.06603e-08 -1.20178e-08 4.35875e-08)
(-7.14558e-08 -2.2589e-08 5.4335e-08)
(-7.67174e-08 -3.30823e-08 6.54367e-08)
(-8.96101e-08 -4.81319e-08 7.63848e-08)
(-1.12605e-07 -9.34709e-08 8.27545e-08)
(-5.08641e-08 1.82286e-08 9.68999e-10)
(-5.72263e-08 2.89574e-09 1.1306e-08)
(-5.74167e-08 -9.73217e-09 2.35563e-08)
(-5.63385e-08 -1.96757e-08 3.47558e-08)
(-5.71215e-08 -2.83615e-08 4.48293e-08)
(-6.25445e-08 -3.60352e-08 5.396e-08)
(-7.59726e-08 -4.69013e-08 6.09734e-08)
(-9.975e-08 -8.69888e-08 6.29191e-08)
(-4.48501e-08 1.45683e-08 1.90116e-09)
(-5.0026e-08 -1.24816e-09 1.00211e-08)
(-5.01669e-08 -1.4229e-08 1.99162e-08)
(-4.93191e-08 -2.37436e-08 2.95723e-08)
(-5.03278e-08 -3.1102e-08 3.81923e-08)
(-5.59741e-08 -3.67746e-08 4.52794e-08)
(-6.95912e-08 -4.54918e-08 4.9834e-08)
(-9.32938e-08 -8.3299e-08 5.05787e-08)
(-4.18714e-08 1.31796e-08 2.17194e-09)
(-4.66353e-08 -2.67541e-09 8.58819e-09)
(-4.692e-08 -1.59169e-08 1.60933e-08)
(-4.6362e-08 -2.53582e-08 2.35807e-08)
(-4.76322e-08 -3.20872e-08 3.0248e-08)
(-5.34488e-08 -3.68409e-08 3.54566e-08)
(-6.70614e-08 -4.4773e-08 3.8548e-08)
(-9.04697e-08 -8.14952e-08 3.90889e-08)
(-4.03411e-08 1.26163e-08 1.82942e-09)
(-4.50361e-08 -3.08191e-09 6.4889e-09)
(-4.54953e-08 -1.63271e-08 1.17198e-08)
(-4.51718e-08 -2.57398e-08 1.69357e-08)
(-4.66403e-08 -3.22659e-08 2.15684e-08)
(-5.25558e-08 -3.676e-08 2.51205e-08)
(-6.61038e-08 -4.45153e-08 2.72005e-08)
(-8.92408e-08 -8.067e-08 2.76728e-08)
(-3.95391e-08 1.23763e-08 1.18049e-09)
(-4.42475e-08 -3.15104e-09 3.99853e-09)
(-4.48338e-08 -1.63043e-08 7.07843e-09)
(-4.46603e-08 -2.56835e-08 1.01292e-08)
(-4.62491e-08 -3.21802e-08 1.28325e-08)
(-5.22133e-08 -3.66717e-08 1.48983e-08)
(-6.57014e-08 -4.44466e-08 1.61206e-08)
(-8.86533e-08 -8.03116e-08 1.64524e-08)
(-3.91847e-08 1.22835e-08 4.04792e-10)
(-4.39056e-08 -3.14221e-09 1.34649e-09)
(-4.45535e-08 -1.62259e-08 2.36265e-09)
(-4.44507e-08 -2.5582e-08 3.36454e-09)
(-4.60941e-08 -3.20885e-08 4.25111e-09)
(-5.20776e-08 -3.66187e-08 4.92909e-09)
(-6.5533e-08 -4.44337e-08 5.33419e-09)
(-8.83936e-08 -8.01781e-08 5.45344e-09)
(7.83102e-08 -1.75513e-07 1.42015e-07)
(6.40267e-08 -1.62172e-07 8.43302e-08)
(5.42923e-08 -1.52304e-07 6.29209e-08)
(5.01668e-08 -1.46061e-07 4.98305e-08)
(4.89094e-08 -1.42429e-07 3.8256e-08)
(4.8631e-08 -1.40399e-07 2.70566e-08)
(4.85704e-08 -1.39322e-07 1.61054e-08)
(4.85444e-08 -1.38855e-07 5.34429e-09)
(2.08853e-08 -1.66839e-07 1.37679e-07)
(1.68207e-08 -1.50067e-07 8.6911e-08)
(1.33436e-08 -1.39815e-07 6.68618e-08)
(1.18854e-08 -1.34128e-07 5.25168e-08)
(1.15714e-08 -1.31089e-07 3.9622e-08)
(1.16037e-08 -1.29433e-07 2.76544e-08)
(1.16621e-08 -1.28541e-07 1.63426e-08)
(1.16867e-08 -1.28145e-07 5.40723e-09)
(-8.93876e-09 -1.66687e-07 1.37817e-07)
(-5.26037e-09 -1.49908e-07 8.72305e-08)
(-2.25526e-09 -1.39665e-07 6.71252e-08)
(-1.22361e-09 -1.33981e-07 5.27165e-08)
(-1.25453e-09 -1.30938e-07 3.97688e-08)
(-1.54481e-09 -1.29277e-07 2.77555e-08)
(-1.77412e-09 -1.28381e-07 1.64019e-08)
(-1.88374e-09 -1.27983e-07 5.42681e-09)
(-6.51382e-08 -1.7533e-07 1.42488e-07)
(-5.12999e-08 -1.61926e-07 8.52474e-08)
(-4.20322e-08 -1.5207e-07 6.36817e-08)
(-3.83328e-08 -1.45826e-07 5.04197e-08)
(-3.74264e-08 -1.42181e-07 3.86956e-08)
(-3.74114e-08 -1.40137e-07 2.73615e-08)
(-3.75251e-08 -1.3905e-07 1.62848e-08)
(-3.75856e-08 -1.38577e-07 5.40351e-09)
)
;
        gradient        uniform (0 0 0);
    }
    symmetry
    {
        type            solidSymmetry;
        patchType       symmetry;
        secondOrder     false;
        value           nonuniform List<vector> 
32
(
(9.22986e-09 7.613e-09 0)
(1.52865e-08 -3.07574e-09 0)
(1.60549e-08 -1.42072e-08 0)
(1.58903e-08 -2.32511e-08 0)
(1.70428e-08 -3.05628e-08 0)
(2.16242e-08 -3.70823e-08 0)
(3.21165e-08 -4.72572e-08 0)
(4.7152e-08 -8.15049e-08 0)
(-4.54955e-10 -1.11922e-09 0)
(8.91551e-10 -8.37458e-09 0)
(1.36404e-09 -1.66535e-08 0)
(1.44313e-09 -2.51659e-08 0)
(2.03063e-09 -3.35383e-08 0)
(3.98657e-09 -4.15693e-08 0)
(7.95664e-09 -5.09755e-08 0)
(1.23355e-08 -7.81569e-08 0)
(4.65694e-10 -1.2931e-09 0)
(-1.56573e-10 -8.76286e-09 0)
(3.77542e-10 -1.71863e-08 0)
(1.48623e-09 -2.58075e-08 0)
(2.26138e-09 -3.42776e-08 0)
(1.82869e-09 -4.24049e-08 0)
(-5.1056e-10 -5.18887e-08 0)
(-3.29718e-09 -7.89061e-08 0)
(-8.52274e-09 6.74238e-09 0)
(-1.36415e-08 -4.36691e-09 0)
(-1.34215e-08 -1.58322e-08 0)
(-1.20667e-08 -2.51829e-08 0)
(-1.18252e-08 -3.27823e-08 0)
(-1.4842e-08 -3.95768e-08 0)
(-2.36571e-08 -4.99727e-08 0)
(-3.69974e-08 -8.3807e-08 0)
)
;
    }
    bottom
    {
        type            fixedDisplacement;
        value           uniform (0 0 0);
    }
}


// ************************************************************************* //
