/*--------------------------------*- C++ -*----------------------------------*\
| =========                 |                                                 |
| \\      /  F ield         | OpenFOAM: The Open Source CFD Toolbox           |
|  \\    /   O peration     | Version:  v1912                                 |
|   \\  /    A nd           | Website:  www.openfoam.com                      |
|    \\/     M anipulation  |                                                 |
\*---------------------------------------------------------------------------*/
FoamFile
{
    version     2.0;
    format      ascii;
    class       pointVectorField;
    location    "0.75/solid";
    object      pointD;
}
// * * * * * * * * * * * * * * * * * * * * * * * * * * * * * * * * * * * * * //

dimensions      [0 1 0 0 0 0 0];


internalField   nonuniform List<vector> 
405
(
(3.81678e-08 3.98487e-08 3.94477e-08)
(7.79136e-09 2.6369e-08 4.29013e-08)
(1.85469e-11 2.17649e-08 4.03894e-08)
(-7.52624e-09 2.58802e-08 4.19852e-08)
(-3.60844e-08 3.855e-08 3.84671e-08)
(6.53195e-08 4.93435e-08 7.19339e-08)
(2.1506e-08 4.47203e-08 9.77873e-08)
(3.27706e-10 3.74032e-08 9.26101e-08)
(-2.03183e-08 4.36746e-08 9.60201e-08)
(-6.14559e-08 4.73199e-08 7.05466e-08)
(7.49777e-08 2.90535e-08 9.27298e-08)
(2.84485e-08 2.8513e-08 1.17884e-07)
(9.81178e-10 2.46035e-08 1.12273e-07)
(-2.58813e-08 2.73344e-08 1.1621e-07)
(-6.96484e-08 2.6864e-08 9.15023e-08)
(7.67347e-08 1.19252e-08 1.07323e-07)
(2.92979e-08 1.33835e-08 1.32777e-07)
(1.72792e-09 1.14133e-08 1.26641e-07)
(-2.52425e-08 1.2068e-08 1.31152e-07)
(-6.99002e-08 9.53417e-09 1.06228e-07)
(7.78258e-08 -1.58277e-09 1.20475e-07)
(2.9399e-08 -2.00265e-10 1.46492e-07)
(2.5122e-09 -1.95198e-09 1.39904e-07)
(-2.37735e-08 -1.65749e-09 1.44897e-07)
(-6.93914e-08 -4.19241e-09 1.1947e-07)
(8.1677e-08 -1.43672e-08 1.34624e-07)
(3.12423e-08 -1.40378e-08 1.61513e-07)
(3.32799e-09 -1.63341e-08 1.54567e-07)
(-2.39798e-08 -1.56325e-08 1.59928e-07)
(-7.15713e-08 -1.71836e-08 1.33669e-07)
(9.07788e-08 -3.15212e-08 1.51341e-07)
(3.64806e-08 -3.19867e-08 1.79727e-07)
(4.16258e-09 -3.43099e-08 1.72733e-07)
(-2.75458e-08 -3.36996e-08 1.78134e-07)
(-7.8972e-08 -3.45042e-08 1.50399e-07)
(1.06217e-07 -7.1086e-08 1.70548e-07)
(4.51353e-08 -7.04224e-08 2.0245e-07)
(4.96887e-09 -7.06416e-08 1.96443e-07)
(-3.45692e-08 -7.20103e-08 2.00862e-07)
(-9.27265e-08 -7.38752e-08 1.69609e-07)
(1.03568e-07 -1.2627e-07 1.69083e-07)
(5.02761e-08 -1.36215e-07 1.7945e-07)
(5.51074e-09 -1.33168e-07 1.75805e-07)
(-3.86066e-08 -1.36746e-07 1.78754e-07)
(-8.98092e-08 -1.27802e-07 1.68556e-07)
(3.85107e-08 2.213e-08 7.63665e-09)
(0 0 0)
(0 0 0)
(0 0 0)
(-3.58957e-08 2.10496e-08 7.62872e-09)
(8.30575e-08 3.50167e-08 2.58224e-08)
(1.81269e-08 1.90493e-08 2.94402e-08)
(3.55423e-10 1.28049e-08 2.91475e-08)
(-1.69203e-08 1.80929e-08 2.94651e-08)
(-7.71308e-08 3.27419e-08 2.58975e-08)
(9.05568e-08 1.73145e-08 4.37799e-08)
(2.39501e-08 1.1755e-08 4.85962e-08)
(9.70875e-10 8.23262e-09 4.83954e-08)
(-2.14492e-08 1.05578e-08 4.87209e-08)
(-8.32253e-08 1.48016e-08 4.40507e-08)
(9.24618e-08 2.40643e-09 5.7189e-08)
(2.46069e-08 7.68859e-10 6.21934e-08)
(1.67417e-09 -1.01876e-09 6.19865e-08)
(-2.07057e-08 -5.84391e-10 6.24156e-08)
(-8.36483e-08 -3.60365e-10 5.76451e-08)
(9.42659e-08 -9.72e-09 6.89649e-08)
(2.47296e-08 -1.16146e-08 7.38946e-08)
(2.4258e-09 -1.32254e-08 7.35801e-08)
(-1.93222e-08 -1.31016e-08 7.4187e-08)
(-8.3849e-08 -1.27348e-08 6.95546e-08)
(9.92376e-08 -2.11671e-08 8.1033e-08)
(2.66214e-08 -2.55019e-08 8.58398e-08)
(3.22027e-09 -2.77114e-08 8.53839e-08)
(-1.9617e-08 -2.71154e-08 8.61753e-08)
(-8.71255e-08 -2.44047e-08 8.17043e-08)
(1.10135e-07 -3.58701e-08 9.42974e-08)
(3.19191e-08 -4.29467e-08 9.89946e-08)
(4.04365e-09 -4.53114e-08 9.84642e-08)
(-2.32615e-08 -4.4669e-08 9.93497e-08)
(-9.62856e-08 -3.92782e-08 9.50056e-08)
(1.29178e-07 -7.07315e-08 1.07106e-07)
(4.06106e-08 -7.60193e-08 1.11799e-07)
(4.84937e-09 -7.62194e-08 1.11401e-07)
(-3.03207e-08 -7.76164e-08 1.12152e-07)
(-1.13599e-07 -7.39406e-08 1.07811e-07)
(1.06705e-07 -1.34332e-07 1.14787e-07)
(4.5763e-08 -1.66728e-07 1.16177e-07)
(5.59644e-09 -1.6133e-07 1.15811e-07)
(-3.39371e-08 -1.66364e-07 1.16533e-07)
(-9.22567e-08 -1.35562e-07 1.15402e-07)
(3.09178e-08 1.27215e-08 8.45164e-10)
(0 0 0)
(0 0 0)
(0 0 0)
(-2.83738e-08 1.17731e-08 9.44738e-10)
(6.63008e-08 1.78352e-08 8.15097e-09)
(1.22189e-08 5.91223e-09 1.30597e-08)
(3.24728e-10 7.3236e-10 1.4266e-08)
(-1.10931e-08 5.07112e-09 1.32318e-08)
(-6.05842e-08 1.57811e-08 8.46245e-09)
(7.16798e-08 3.60878e-09 2.12968e-08)
(1.61993e-08 -6.27827e-10 2.77684e-08)
(9.02896e-10 -3.61484e-09 2.94844e-08)
(-1.38636e-08 -1.76227e-09 2.80449e-08)
(-6.46736e-08 1.23407e-09 2.18086e-08)
(7.28173e-08 -8.36715e-09 3.37964e-08)
(1.64702e-08 -9.66084e-09 4.05921e-08)
(1.57131e-09 -1.12758e-08 4.24648e-08)
(-1.28075e-08 -1.09865e-08 4.09507e-08)
(-6.44085e-08 -1.10569e-08 3.44658e-08)
(7.42694e-08 -1.85643e-08 4.49442e-08)
(1.6486e-08 -2.03465e-08 5.17695e-08)
(2.29478e-09 -2.19159e-08 5.36592e-08)
(-1.13733e-08 -2.18224e-08 5.21901e-08)
(-6.43039e-08 -2.1538e-08 4.57318e-08)
(7.91093e-08 -2.79935e-08 5.54771e-08)
(1.83001e-08 -3.23194e-08 6.2274e-08)
(3.06875e-09 -3.45378e-08 6.41331e-08)
(-1.16278e-08 -3.39308e-08 6.27353e-08)
(-6.7461e-08 -3.12147e-08 5.63414e-08)
(9.03553e-08 -3.92271e-08 6.53013e-08)
(2.36228e-08 -4.64261e-08 7.20204e-08)
(3.87924e-09 -4.88093e-08 7.38447e-08)
(-1.53172e-08 -4.81543e-08 7.25021e-08)
(-7.6952e-08 -4.264e-08 6.6203e-08)
(1.10782e-07 -6.78912e-08 7.20755e-08)
(3.25219e-08 -7.31956e-08 7.86694e-08)
(4.67979e-09 -7.32746e-08 8.04808e-08)
(-2.25885e-08 -7.48066e-08 7.91554e-08)
(-9.56173e-08 -7.11226e-08 7.29838e-08)
(9.19017e-08 -1.25083e-07 7.51596e-08)
(3.77238e-08 -1.54003e-07 7.77459e-08)
(5.4306e-09 -1.47633e-07 7.95246e-08)
(-2.62458e-08 -1.53634e-07 7.82357e-08)
(-7.78346e-08 -1.26319e-07 7.59752e-08)
(2.63642e-08 9.11402e-09 6.64701e-10)
(0 0 0)
(0 0 0)
(0 0 0)
(-2.39207e-08 8.23807e-09 7.44583e-10)
(5.62644e-08 1.04533e-08 5.96783e-09)
(8.56793e-09 1.07835e-09 9.06578e-09)
(2.78924e-10 -3.35772e-09 1.01884e-08)
(-7.54948e-09 2.95885e-10 9.20212e-09)
(-5.07922e-08 8.54247e-09 6.22702e-09)
(6.05237e-08 -3.71854e-09 1.62295e-08)
(1.13547e-08 -7.09494e-09 2.03492e-08)
(8.15321e-10 -9.67369e-09 2.19365e-08)
(-9.21053e-09 -8.17092e-09 2.05732e-08)
(-5.38411e-08 -5.9662e-09 1.66589e-08)
(6.14806e-08 -1.49673e-08 2.71731e-08)
(1.14406e-08 -1.61014e-08 3.14619e-08)
(1.45042e-09 -1.75865e-08 3.31896e-08)
(-8.03555e-09 -1.73831e-08 3.17498e-08)
(-5.34581e-08 -1.75615e-08 2.77284e-08)
(6.29799e-08 -2.38179e-08 3.72783e-08)
(1.14845e-08 -2.5624e-08 4.15186e-08)
(2.14844e-09 -2.71791e-08 4.32696e-08)
(-6.67923e-09 -2.70714e-08 4.18554e-08)
(-5.34429e-08 -2.67277e-08 3.79291e-08)
(6.79539e-08 -3.11497e-08 4.62235e-08)
(1.3337e-08 -3.55445e-08 5.03863e-08)
(2.90388e-09 -3.77856e-08 5.21243e-08)
(-7.00665e-09 -3.71401e-08 5.07572e-08)
(-5.67504e-08 -3.43348e-08 4.69403e-08)
(7.94944e-08 -3.94818e-08 5.33533e-08)
(1.87097e-08 -4.67673e-08 5.74498e-08)
(3.70187e-09 -4.91927e-08 5.91651e-08)
(-1.07665e-08 -4.84897e-08 5.78402e-08)
(-6.65248e-08 -4.28812e-08 5.41074e-08)
(1.00318e-07 -6.45642e-08 5.70107e-08)
(2.76465e-08 -6.99949e-08 6.11016e-08)
(4.4949e-09 -7.01583e-08 6.28061e-08)
(-1.80848e-08 -7.16058e-08 6.14989e-08)
(-8.55572e-08 -6.77944e-08 5.77774e-08)
(8.32234e-08 -1.18338e-07 5.7944e-08)
(3.29258e-08 -1.45825e-07 5.98765e-08)
(5.24333e-09 -1.39506e-07 6.16652e-08)
(-2.18215e-08 -1.45468e-07 6.02733e-08)
(-6.95358e-08 -1.19584e-07 5.86231e-08)
(2.40096e-08 7.77024e-09 9.91869e-10)
(0 0 0)
(0 0 0)
(0 0 0)
(-2.1645e-08 6.94175e-09 1.04804e-09)
(5.10964e-08 7.62917e-09 5.64133e-09)
(7.02902e-09 -5.69446e-10 7.10588e-09)
(2.43519e-10 -4.59472e-09 7.77082e-09)
(-6.09685e-09 -1.3176e-09 7.2038e-09)
(-4.58215e-08 5.81716e-09 5.83108e-09)
(5.4885e-08 -6.82801e-09 1.37185e-08)
(9.32238e-09 -9.82961e-09 1.56512e-08)
(7.43955e-10 -1.2182e-08 1.65917e-08)
(-7.33656e-09 -1.08625e-08 1.5817e-08)
(-4.84693e-08 -8.97714e-09 1.40417e-08)
(5.59374e-08 -1.80837e-08 2.25112e-08)
(9.4081e-09 -1.92156e-08 2.44667e-08)
(1.3494e-09 -2.06343e-08 2.54835e-08)
(-6.21898e-09 -2.04576e-08 2.4682e-08)
(-4.82349e-08 -2.05929e-08 2.29336e-08)
(5.76539e-08 -2.62756e-08 3.07939e-08)
(9.56676e-09 -2.81744e-08 3.26516e-08)
(2.02486e-09 -2.97313e-08 3.36708e-08)
(-5.02113e-09 -2.95909e-08 3.29045e-08)
(-4.84741e-08 -2.91208e-08 3.12921e-08)
(6.28334e-08 -3.23258e-08 3.78514e-08)
(1.15135e-08 -3.6798e-08 3.96157e-08)
(2.76383e-09 -3.90594e-08 4.06189e-08)
(-5.47392e-09 -3.83728e-08 3.98962e-08)
(-5.20059e-08 -3.54679e-08 3.84044e-08)
(7.45218e-08 -3.91252e-08 4.29528e-08)
(1.69114e-08 -4.64459e-08 4.46835e-08)
(3.5502e-09 -4.89148e-08 4.56732e-08)
(-9.27924e-09 -4.81557e-08 4.49812e-08)
(-6.19268e-08 -4.24995e-08 4.35399e-08)
(9.5312e-08 -6.25701e-08 4.52227e-08)
(2.5778e-08 -6.81213e-08 4.70221e-08)
(4.33508e-09 -6.84248e-08 4.8022e-08)
(-1.65394e-08 -6.97246e-08 4.73267e-08)
(-8.09082e-08 -6.57856e-08 4.58245e-08)
(7.93033e-08 -1.14374e-07 4.54708e-08)
(3.11082e-08 -1.41059e-07 4.64348e-08)
(5.0786e-09 -1.35041e-07 4.75435e-08)
(-2.03346e-08 -1.40705e-07 4.67368e-08)
(-6.59546e-08 -1.15615e-07 4.59988e-08)
(2.28192e-08 7.23685e-09 9.91406e-10)
(0 0 0)
(0 0 0)
(0 0 0)
(-2.05074e-08 6.44131e-09 1.02905e-09)
(4.8559e-08 6.5895e-09 4.77588e-09)
(6.51458e-09 -1.15238e-09 5.38151e-09)
(2.19693e-10 -4.97806e-09 5.70708e-09)
(-5.64186e-09 -1.87681e-09 5.44906e-09)
(-4.34191e-08 4.84757e-09 4.9061e-09)
(5.22458e-08 -7.90282e-09 1.08049e-08)
(8.68511e-09 -1.0799e-08 1.15714e-08)
(6.93357e-10 -1.30493e-08 1.20278e-08)
(-6.81293e-09 -1.18008e-08 1.16879e-08)
(-4.60187e-08 -9.97879e-09 1.10314e-08)
(5.34675e-08 -1.91848e-08 1.72803e-08)
(8.84557e-09 -2.03797e-08 1.80054e-08)
(1.27508e-09 -2.17769e-08 1.84907e-08)
(-5.81611e-09 -2.15907e-08 1.81584e-08)
(-4.5996e-08 -2.16269e-08 1.75807e-08)
(5.54032e-08 -2.71156e-08 2.34068e-08)
(9.12149e-09 -2.91082e-08 2.40388e-08)
(1.93178e-09 -3.06747e-08 2.45153e-08)
(-4.77185e-09 -3.04985e-08 2.42198e-08)
(-4.64854e-08 -2.9906e-08 2.37647e-08)
(6.07501e-08 -3.26272e-08 2.85321e-08)
(1.11494e-08 -3.71517e-08 2.90926e-08)
(2.65673e-09 -3.94263e-08 2.95549e-08)
(-5.33264e-09 -3.87066e-08 2.92945e-08)
(-5.0203e-08 -3.5729e-08 2.89329e-08)
(7.24824e-08 -3.88559e-08 3.20855e-08)
(1.65441e-08 -4.61732e-08 3.26397e-08)
(3.43286e-09 -4.86682e-08 3.30977e-08)
(-9.15336e-09 -4.78692e-08 3.28555e-08)
(-6.01729e-08 -4.2203e-08 3.25147e-08)
(9.31119e-08 -6.1616e-08 3.36452e-08)
(2.53179e-08 -6.72278e-08 3.42788e-08)
(4.21018e-09 -6.76316e-08 3.47544e-08)
(-1.63332e-08 -6.88214e-08 3.45003e-08)
(-7.89875e-08 -6.48128e-08 3.40879e-08)
(7.77469e-08 -1.12223e-07 3.37629e-08)
(3.06605e-08 -1.38391e-07 3.41348e-08)
(4.94841e-09 -1.32623e-07 3.4688e-08)
(-2.01499e-08 -1.38032e-07 3.43533e-08)
(-6.4668e-08 -1.13453e-07 3.41497e-08)
(2.22007e-08 7.01075e-09 7.51209e-10)
(0 0 0)
(0 0 0)
(0 0 0)
(-1.99209e-08 6.23659e-09 7.74327e-10)
(4.72868e-08 6.21844e-09 3.39136e-09)
(6.3596e-09 -1.35651e-09 3.6326e-09)
(2.04754e-10 -5.0899e-09 3.77741e-09)
(-5.5243e-09 -2.06479e-09 3.6751e-09)
(-4.22306e-08 4.5231e-09 3.4723e-09)
(5.0998e-08 -8.16695e-09 7.39246e-09)
(8.53048e-09 -1.1057e-08 7.67461e-09)
(6.60488e-10 -1.32673e-08 7.87363e-09)
(-6.73213e-09 -1.20373e-08 7.7487e-09)
(-4.48908e-08 -1.01924e-08 7.53517e-09)
(5.23636e-08 -1.94006e-08 1.1612e-08)
(8.76582e-09 -2.06606e-08 1.18478e-08)
(1.22532e-09 -2.20561e-08 1.20539e-08)
(-5.84306e-09 -2.18497e-08 1.19459e-08)
(-4.50422e-08 -2.17948e-08 1.18035e-08)
(5.44551e-08 -2.72415e-08 1.55919e-08)
(9.12486e-09 -2.93006e-08 1.57641e-08)
(1.86803e-09 -3.08769e-08 1.59609e-08)
(-4.90908e-09 -3.06715e-08 1.58809e-08)
(-4.57107e-08 -2.9991e-08 1.58223e-08)
(5.99052e-08 -3.26108e-08 1.88973e-08)
(1.12025e-08 -3.7162e-08 1.90274e-08)
(2.58217e-09 -3.94429e-08 1.92154e-08)
(-5.54035e-09 -3.87014e-08 1.91584e-08)
(-4.95468e-08 -3.56809e-08 1.91573e-08)
(7.16346e-08 -3.87181e-08 2.11672e-08)
(1.65827e-08 -4.60159e-08 2.13026e-08)
(3.3502e-09 -4.85202e-08 2.14913e-08)
(-9.36166e-09 -4.77003e-08 2.14433e-08)
(-5.95208e-08 -4.20422e-08 2.14474e-08)
(9.21124e-08 -6.12091e-08 2.21981e-08)
(2.52812e-08 -6.68341e-08 2.23932e-08)
(4.12141e-09 -6.72886e-08 2.2597e-08)
(-1.64769e-08 -6.84191e-08 2.25381e-08)
(-7.81831e-08 -6.4389e-08 2.24886e-08)
(7.71098e-08 -1.11104e-07 2.23043e-08)
(3.06127e-08 -1.36926e-07 2.2427e-08)
(4.85513e-09 -1.31302e-07 2.26728e-08)
(-2.02906e-08 -1.36562e-07 2.25693e-08)
(-6.42228e-08 -1.12321e-07 2.25577e-08)
(2.18934e-08 6.91463e-09 3.96938e-10)
(0 0 0)
(0 0 0)
(0 0 0)
(-1.96308e-08 6.15235e-09 4.07942e-10)
(4.66677e-08 6.09421e-09 1.7446e-09)
(6.30898e-09 -1.41788e-09 1.83238e-09)
(1.96604e-10 -5.11063e-09 1.8873e-09)
(-5.49406e-09 -2.1168e-09 1.85291e-09)
(-4.16567e-08 4.42534e-09 1.78334e-09)
(5.04125e-08 -8.18016e-09 3.73651e-09)
(8.49704e-09 -1.10825e-08 3.83148e-09)
(6.42153e-10 -1.32785e-08 3.90536e-09)
(-6.73975e-09 -1.20502e-08 3.86746e-09)
(-4.4371e-08 -1.0176e-08 3.80528e-09)
(5.18644e-08 -1.93526e-08 5.81053e-09)
(8.77914e-09 -2.06543e-08 5.8793e-09)
(1.19699e-09 -2.20528e-08 5.95384e-09)
(-5.91693e-09 -2.18304e-08 5.92718e-09)
(-4.46266e-08 -2.17182e-08 5.90351e-09)
(5.40423e-08 -2.71658e-08 7.75915e-09)
(9.18377e-09 -2.92615e-08 7.79723e-09)
(1.83111e-09 -3.08441e-08 7.86653e-09)
(-5.04522e-09 -3.06206e-08 7.8545e-09)
(-4.5396e-08 -2.98903e-08 7.87173e-09)
(5.9544e-08 -3.25306e-08 9.37393e-09)
(1.12855e-08 -3.70925e-08 9.39362e-09)
(2.53843e-09 -3.93754e-08 9.45912e-09)
(-5.71384e-09 -3.86222e-08 9.45812e-09)
(-4.92938e-08 -3.55806e-08 9.50167e-09)
(7.12605e-08 -3.86547e-08 1.04846e-08)
(1.66533e-08 -4.59346e-08 1.05096e-08)
(3.30126e-09 -4.84399e-08 1.05767e-08)
(-9.53239e-09 -4.76115e-08 1.05791e-08)
(-5.92602e-08 -4.19637e-08 1.06229e-08)
(9.16404e-08 -6.10508e-08 1.10053e-08)
(2.53057e-08 -6.66705e-08 1.10611e-08)
(4.06849e-09 -6.71446e-08 1.11363e-08)
(-1.66087e-08 -6.82498e-08 1.11326e-08)
(-7.78259e-08 -6.42193e-08 1.11491e-08)
(7.68212e-08 -1.10569e-07 1.10758e-08)
(3.06221e-08 -1.36188e-07 1.11122e-08)
(4.79922e-09 -1.3063e-07 1.12046e-08)
(-2.04129e-08 -1.3582e-07 1.11824e-08)
(-6.40484e-08 -1.11779e-07 1.12012e-08)
(1.76294e-08 7.12343e-09 0)
(2.20991e-09 1.59972e-09 0)
(3.54973e-12 -6.42967e-10 0)
(-2.02065e-09 1.32939e-09 0)
(-1.5877e-08 6.31693e-09 0)
(2.94189e-08 4.08703e-09 0)
(6.29548e-09 -1.42962e-09 0)
(1.94021e-10 -5.11069e-09 0)
(-5.48702e-09 -2.12546e-09 0)
(-2.63061e-08 2.70368e-09 0)
(3.30309e-08 -8.63832e-09 0)
(8.49025e-09 -1.10732e-08 0)
(6.36278e-10 -1.32657e-08 0)
(-6.7461e-09 -1.20367e-08 0)
(-2.89127e-08 -1.03644e-08 0)
(3.39291e-08 -1.94154e-08 0)
(8.78751e-09 -2.06279e-08 0)
(1.18782e-09 -2.20278e-08 0)
(-5.94487e-09 -2.17997e-08 0)
(-2.86688e-08 -2.14748e-08 0)
(3.52851e-08 -2.75498e-08 0)
(9.20628e-09 -2.92267e-08 0)
(1.81905e-09 -3.08113e-08 0)
(-5.09292e-09 -3.05818e-08 0)
(-2.86835e-08 -2.9925e-08 0)
(3.95107e-08 -3.38256e-08 0)
(1.13151e-08 -3.70585e-08 0)
(2.52403e-09 -3.93417e-08 0)
(-5.77304e-09 -3.85849e-08 0)
(-3.13852e-08 -3.64915e-08 0)
(4.92251e-08 -4.12302e-08 0)
(1.66781e-08 -4.59087e-08 0)
(3.28507e-09 -4.84136e-08 0)
(-9.59031e-09 -4.7583e-08 0)
(-3.94407e-08 -4.41357e-08 0)
(6.59162e-08 -6.37744e-08 0)
(2.53152e-08 -6.66254e-08 0)
(4.05093e-09 -6.71042e-08 0)
(-1.66538e-08 -6.82027e-08 0)
(-5.44174e-08 -6.65414e-08 0)
(6.71548e-08 -1.01599e-07 0)
(3.04413e-08 -1.09114e-07 0)
(4.60317e-09 -1.05662e-07 0)
(-2.06356e-08 -1.09637e-07 0)
(-5.53221e-08 -1.03116e-07 0)
)
;

boundaryField
{
    interface
    {
        type            calculated;
    }
    symmetry
    {
        type            symmetry;
    }
    bottom
    {
        type            calculated;
    }
}


// ************************************************************************* //
