/*--------------------------------*- C++ -*----------------------------------*\
| =========                 |                                                 |
| \\      /  F ield         | OpenFOAM: The Open Source CFD Toolbox           |
|  \\    /   O peration     | Version:  v1912                                 |
|   \\  /    A nd           | Website:  www.openfoam.com                      |
|    \\/     M anipulation  |                                                 |
\*---------------------------------------------------------------------------*/
FoamFile
{
    version     2.0;
    format      ascii;
    class       volSymmTensorField;
    location    "0.75/solid";
    object      sigma;
}
// * * * * * * * * * * * * * * * * * * * * * * * * * * * * * * * * * * * * * //

dimensions      [1 -1 -2 0 0 0 0];


internalField   nonuniform List<symmTensor> 
256
(
(-152842 31051.1 -11493 497888 35304.3 -162358)
(89459.6 -6001.48 -4878.44 320608 34952 -206533)
(91462 5426.44 4624.94 317211 34995.5 -201364)
(-124451 -30091 11334.5 487526 35501.2 -146264)
(-181845 141.894 -17636.8 192767 4836.22 -185095)
(-18733 -5284.49 -8097.63 109982 6453.36 -249118)
(-15032.4 5606.47 7852.99 109241 6596.51 -243253)
(-150617 106.699 17439.4 192455 5254.12 -167830)
(-182912 -4562 -19034 185846 55.0622 -185663)
(-34314.8 -4849.28 -8915.49 72313.9 341.132 -258871)
(-30614 5301.92 8736.76 71944.1 437.561 -252831)
(-151399 4729.95 18849.6 185694 344.631 -168139)
(-179625 -3072.35 -19784.6 204908 1342.98 -185488)
(-26077.1 -3703.93 -9309.12 60178.4 900.851 -264090)
(-22404.5 4041.94 9161.78 59878.3 952.89 -257928)
(-147678 3222.07 19611.2 204607 1510.83 -167679)
(-184461 -337.269 -20579.1 211243 4610.76 -192727)
(-23822.4 -1869.87 -9747.98 48672.6 3963.59 -275918)
(-20105.7 2061.48 9605.91 48380.7 3988.9 -269643)
(-151937 436.532 20412.4 210972 4698.44 -174591)
(-204340 4941.37 -21266.8 186692 10605.3 -211599)
(-42312.9 1467.61 -10162 20803.7 10210.2 -301390)
(-38549.4 -1504.42 10012.8 20584.1 10215.9 -294991)
(-171219 -4946.2 21106.7 186717 10631.7 -193059)
(-235370 14412.8 -21046.7 74248.4 19824.6 -238599)
(-78126.9 6690.86 -10094.4 -72373.8 20708.6 -337891)
(-74254.5 -7139.37 9930.43 -71676 20688.8 -331295)
(-201542 -14565.8 20892.4 76756.2 19780.4 -219453)
(-156231 19119 -19064.3 -158706 23918.4 -158423)
(48553.3 9219.62 -9174.33 -248350 26049.7 -247926)
(52263.2 -8987.75 8986.08 -242151 26020.3 -241768)
(-122508 -18931.5 18907.2 -140661 23852.5 -140531)
(-199551 18647.7 -8894.42 244906 2526.43 68235.3)
(-33281.6 -9221.16 -2867 56275.5 16654.1 -39053.9)
(-31358.8 9233.93 3178.45 53376.5 17177.2 -39254.1)
(-171604 -17493.1 9004.43 235855 4036.13 68946.3)
(-234523 -2068.32 -13753.8 78496 6160.2 -6308.12)
(-134752 -5871.41 -5758.09 -41893.2 13583.2 -135694)
(-130934 6289.04 6214.66 -42621.7 13891 -134670)
(-203555 2309.16 13892.2 78106.7 7070.7 -2914.03)
(-241413 -4784.78 -14470.4 60288.6 5346.87 -17010.3)
(-159743 -4743.8 -6287.06 -90823.8 7684.07 -163508)
(-155833 5048.48 6825.26 -90850.2 7883.33 -162366)
(-210002 4867.5 14626.1 60816.7 5953.95 -13685.3)
(-243247 -3238.95 -14698.5 59841.2 5877.9 -15467.4)
(-161282 -3606.36 -6335.99 -121647 6193.42 -172902)
(-157363 3762.38 6930.97 -121434 6321.54 -171769)
(-211312 3307.47 14873.2 60594.8 6276.43 -12296.6)
(-252586 -602.989 -15105.2 56746.2 10258.6 -18195.6)
(-167234 -1917.87 -6566.23 -144264 9931.59 -184499)
(-163255 1959.92 7183.77 -144006 10005.3 -183378)
(-219975 646.492 15294 57592.5 10488.9 -15076.1)
(-278538 4875.68 -15459.2 35741.2 17400.4 -33060.8)
(-194163 1383.93 -6853.07 -170838 16938.9 -209377)
(-190127 -1526.97 7464.88 -170537 16967.3 -208264)
(-245189 -4910.99 15657.8 36793.6 17488 -29905)
(-318868 15297.7 -15243 -54904.1 23068.9 -55955.4)
(-237677 6904.85 -6841.29 -240804 23018.9 -241301)
(-233533 -7423.88 7426.14 -239654 23005.7 -240122)
(-284674 -15466.4 15447.4 -51529 23033.7 -52518.3)
(-235690 21079.3 -14326.1 -238865 19948 74066.6)
(-78017.8 10118.5 -6590.42 -338205 20810.4 -71899.7)
(-74110.3 -9927.34 7151.94 -331523 20789.8 -71155.8)
(-201610 -20904.1 14534.7 -219441 19898.8 76665.8)
(-178521 10199.1 -3666.48 164929 13648.5 112373)
(-34437.2 -12895.2 -459.207 -6134.69 27184.4 -3287.56)
(-32503.1 12829.5 627.774 -8721.37 27502.1 -3957.32)
(-151305 -9117.73 3700.86 156798 14625.9 111856)
(-196117 -3298.33 -5494.02 59922.8 16965.4 80455.7)
(-99658.8 -6612.53 -1494.26 -58769.8 23861.4 -65058.4)
(-95991.6 7008.3 1733.64 -59574.8 24107.5 -64792)
(-166183 3527.44 5552.96 59264.3 17718.4 81866.1)
(-200440 -4594.31 -5432.69 57020.7 15521 66738.5)
(-117753 -4608.97 -1559 -89778.2 17739.1 -97125.9)
(-114006 4871.08 1814.16 -89934.8 17927.8 -96742.7)
(-170070 4657.98 5499.91 57145.4 16095.3 68055.1)
(-202500 -3161.96 -5200.5 60915.8 14533 63343.3)
(-119197 -3530.98 -1374.85 -113029 14869.3 -112366)
(-115436 3623.03 1645.93 -112924 15007.3 -111998)
(-171579 3205.52 5275.3 61313.7 14952 64470.9)
(-211766 -656.964 -5136.67 62374.4 16503.5 58857)
(-125164 -2012.85 -1336.42 -129981 16264.5 -127012)
(-121326 1987.03 1616.1 -129808 16355.3 -126671)
(-180088 679.575 5218.63 62906.7 16776.1 59880.4)
(-237398 4935.99 -5105.82 49898.7 19375.8 45741.5)
(-151022 1286.48 -1403.03 -147743 18967.5 -151262)
(-147097 -1491.91 1676.8 -147515 19015.7 -150936)
(-204818 -4984.21 5193.66 50647.6 19515.3 46762.3)
(-278638 15516.2 -5031.14 -30927.5 18242.3 33663.1)
(-193363 6902.26 -1490.77 -207634 17752.8 -172118)
(-189287 -7476.23 1742.28 -206546 17766.2 -171730)
(-244970 -15691.3 5123.08 -27835.2 18276.9 34938.3)
(-204666 21299.4 -5045.87 -211708 11092.9 187112)
(-41243.4 10175 -1539.72 -301414 10680.7 22095.2)
(-37406.7 -10007 1760.57 -294870 10679.8 21978.3)
(-170976 -21123.7 5139.5 -192730 11092.7 187382)
(-162905 6750.67 -965.791 133611 17348.3 108412)
(-30011.3 -14093.5 628.256 -23309.7 25578.2 -3013.56)
(-28100.2 13865.9 -515.909 -25722.2 25781.8 -3603.48)
(-136280 -5784.82 977.375 126096 18011.2 108126)
(-171931 -3542.46 -1224.26 47395.7 20976.4 96493.1)
(-78150.1 -6739.03 745.846 -65917.4 25114.7 -46559.7)
(-74565.1 7040.99 -587.642 -66652.9 25293 -46289.8)
(-142729 3733.96 1248.79 46861 21538.7 97891.1)
(-174405 -4187.11 -884.393 53379.2 20485.2 83780.5)
(-91271.8 -4356.05 942.67 -86122.3 21728 -76977.7)
(-87605.9 4571.79 -794.362 -86277 21878.6 -76592.1)
(-144773 4236.67 910.172 53458.4 20948.3 85075.4)
(-176502 -2861.83 -537.023 64655 19018.9 75645.4)
(-92101.2 -3337.56 1177.37 -99646.8 19055.2 -96478.1)
(-88413.5 3399.57 -1038.98 -99563.5 19175.1 -96095.1)
(-146300 2896.27 562.025 64950.9 19383 76776.4)
(-185818 -499.558 -318.901 72036.8 18308 68017.2)
(-98000.2 -1966.2 1305.64 -109583 18019.8 -114260)
(-94223.9 1912.5 -1172.43 -109429 18107.1 -113897)
(-154799 515.42 344.639 72466.2 18568.6 69049.2)
(-211117 4967.85 -212.827 63599 16913.7 56770.8)
(-123095 1197.61 1306.3 -123202 16600.5 -136745)
(-119209 -1432.34 -1181.13 -122981 16655.5 -136397)
(-179076 -5019.47 240.357 64266.3 17073.2 57791)
(-251842 15195.8 -292.183 -14925.3 12093.8 54280.7)
(-163932 6596.7 1157.66 -181820 11691.8 -147985)
(-159864 -7199.79 -1052.12 -180725 11718.6 -147578)
(-218523 -15370.4 320.545 -11885.9 12167.6 55524.1)
(-183503 20662.5 -522.294 -192301 5684.16 215026)
(-19292.4 9768.04 1089.74 -275372 5082.13 51167.5)
(-15454.5 -9613.78 -1020.3 -268878 5088.3 51033.6)
(-150015 -20483.8 545.972 -173525 5702.75 215150)
(-154474 5735.63 -134.941 119323 15960.7 100077)
(-28854.1 -13948 703.914 -29220.9 20065 -5242.25)
(-26975.1 13606.6 -620.914 -31524.4 20206.5 -5758.6)
(-128251 -4856.53 144.647 112250 16427.4 100021)
(-160945 -3364.72 61.812 39095.2 19083.6 93743)
(-71084.3 -6509.55 1122.16 -69528.2 21047.6 -41190.3)
(-67569.5 6724.85 -999.531 -70200.9 21176.5 -40862)
(-132228 3519.09 -42.0737 38718.6 19495.1 95302)
(-162864 -3811.31 385.963 48051.9 19594.9 82920)
(-82201.5 -4104.5 1355.8 -85486.6 20052.5 -68429.3)
(-78603.9 4270 -1244.61 -85620.2 20165.1 -67991.3)
(-133724 3844.32 -367.342 48179.7 19945.5 84355.9)
(-165134 -2570.99 665.432 63455.5 18403.6 73328.7)
(-82861.5 -3154.65 1537.38 -93487.3 18241 -88662.2)
(-79236 3190.62 -1443.68 -93406.6 18334.8 -88222)
(-135406 2597.76 -651.002 63743.1 18691.5 74607.8)
(-174611 -334.273 853.109 74372.5 16393.4 64678.1)
(-88867.5 -1894.54 1641.67 -99167.1 16126.6 -107108)
(-85145.7 1824.56 -1560.43 -99022.4 16199.3 -106684)
(-144023 346.694 -841.509 74775.2 16612.5 65862.4)
(-199695 4939.05 921.995 67412.8 13056.8 55636.4)
(-113553 1110.04 1640.3 -111347 12884.7 -127263)
(-109708 -1359.49 -1569.98 -111130 12935 -126852)
(-168008 -4991.35 -911.648 68061.3 13204.7 56801.2)
(-239747 14793.6 800.824 -10060.9 7697.88 58573.3)
(-153338 6275.43 1506.87 -170016 7527.69 -133302)
(-149290 -6893.66 -1454.86 -168917 7555.83 -132834)
(-206664 -14966.8 -792.595 -7026.76 7778.79 59936.2)
(-174525 20008.5 590.79 -182972 3112.66 218538)
(-13923.9 9371.82 1460.6 -262149 2722.22 62775.7)
(-10094.6 -9226.5 -1443.14 -255673 2729.85 62690.8)
(-141169 -19828.5 -590.9 -164273 3135.84 218722)
(-149656 5524.61 9.36732 112639 12411.2 94595.6)
(-28932 -13529.1 462.692 -31533.2 14292.2 -6540.32)
(-27075.3 13117.5 -404.496 -33762.5 14387.4 -7014.32)
(-123671 -4700.83 -0.417198 105877 12722.2 94692.5)
(-155614 -3134.25 207.359 35036.5 14531.6 89316.9)
(-69351.3 -6251.06 789.525 -70652.6 15337.9 -39275.2)
(-65885.9 6406.3 -699.162 -71283.4 15426.4 -38908.4)
(-127189 3262.33 -189.344 34786 14813.7 91008.3)
(-157529 -3550.44 425.837 44727.4 15268.3 79998.7)
(-79920.5 -3926.31 955.989 -85059.5 15348.1 -63957.1)
(-76372.3 4050.36 -872.68 -85177.5 15426.5 -63484.9)
(-128685 3569.01 -408.623 44909.4 15514.1 81553.2)
(-159982 -2375.56 601.51 61560.4 14473.7 70932.3)
(-80657.6 -3038.49 1065.23 -90863.4 14279.4 -83164.1)
(-77077.6 3050.38 -997.358 -90783.4 14346.2 -82690.3)
(-130534 2394.67 -588.584 61861.9 14680.6 72325)
(-169566 -229.553 717.271 73835 12432.7 62863.2)
(-86771.2 -1851.77 1123.27 -94785.8 12246.6 -100792)
(-83090 1768.03 -1068.51 -94648.7 12300.2 -100333)
(-139230 238.548 -708.1 74232.7 12596.1 64157.5)
(-194466 4893.29 748.348 67396.8 9148.62 55596.3)
(-111189 1041.93 1114.62 -106508 9089.22 -119130)
(-107377 -1301.25 -1071.05 -106297 9128.09 -118684)
(-162983 -4946.39 -741.73 68039.3 9265.09 56863.3)
(-233980 14500.5 652.763 -8977.97 4863.56 60851.8)
(-150298 6060.89 1026.86 -164817 4853.52 -123076)
(-146270 -6688.26 -998.821 -163721 4876.54 -122575)
(-201032 -14673 -649.406 -5944.97 4931.98 62300.1)
(-170504 19572.1 503.318 -178005 1822.2 218230)
(-14046 9119.12 995.08 -254988 1642.88 69149.8)
(-10227.5 -8979.77 -995.339 -248521 1649.56 69095.4)
(-137217 -19391.9 -508.51 -159342 1842.98 218463)
(-146841 5494.01 5.76373 109671 7794.39 91700.1)
(-29113.5 -13226.1 232.665 -32372 8603.2 -7247.12)
(-27268.8 12774.6 -198.038 -34553.6 8658.22 -7697.18)
(-120988 -4702.2 0.479434 103110 7972.16 91890.7)
(-152764 -2981.96 110.127 33450.7 8959.75 86456.2)
(-68998.9 -6085.29 403.479 -70739.2 9258.76 -38696.5)
(-65562 6204.77 -347.834 -71343.1 9310.64 -38307.1)
(-124501 3094.42 -97.3827 33287.5 9124.21 88236.6)
(-154784 -3401.68 224.421 43247.1 9471.82 78090.5)
(-79495.1 -3827.01 490.673 -84566.9 9444.71 -61832.8)
(-75975.5 3923.52 -438.199 -84674.6 9491.11 -61340.3)
(-126102 3410.51 -211.812 43471.4 9617.54 79728.6)
(-157359 -2268.32 314.693 60325.7 9015.54 69986.9)
(-80345 -2980.13 543.889 -89727.9 8881.77 -79827.7)
(-76791.6 2973.9 -501.22 -89647.7 8921.75 -79335.3)
(-128064 2281.4 -304.943 60643.9 9140.25 71457.5)
(-166988 -176.521 372.263 72891.4 7624.01 62878.3)
(-86517.4 -1834.36 569.303 -93158.2 7523.85 -96404.9)
(-82860 1739.56 -535.953 -93025.5 7556.5 -95929)
(-136788 182.373 -365.384 73292.1 7724.56 64244.4)
(-191750 4858.84 383.92 66634 5418.27 56740.3)
(-110760 1000.76 561.425 -104739 5412.62 -113629)
(-106967 -1267.38 -536.248 -104534 5436.9 -113165)
(-160375 -4913.05 -379.261 67276.2 5492 58072.3)
(-230915 14331.8 329.211 -8828.87 2768.3 62812.5)
(-149469 5947.35 515.948 -162531 2809.14 -116887)
(-145452 -6580.69 -501.281 -161437 2823.92 -116368)
(-198036 -14504.4 -327.232 -5794.79 2813.17 64315.1)
(-168379 19332.7 241.1 -175193 999.451 218112)
(-14924.2 8987.67 495.442 -251026 937.642 72711)
(-11112 -8852.14 -499.321 -244563 942.074 72672.6)
(-135122 -19152.9 -245.278 -156544 1013.51 218381)
(-145506 5487.59 -0.680055 108571 2651.1 90491.8)
(-29183.8 -13087.1 68.4943 -32601.1 2878.91 -7572.72)
(-27344.2 12617.5 -56.9899 -34759.2 2896.91 -8011.62)
(-119711 -4710.41 2.88748 102106 2708.87 90727.4)
(-151445 -2915 28.7395 32975.2 3017.53 85183.1)
(-68910.7 -6012.89 118.439 -70614.6 3093.21 -38591.1)
(-65486.5 6115.93 -99.6317 -71205 3110.3 -38191)
(-123254 3020.32 -24.1803 32856.8 3071.5 87008.1)
(-153528 -3337.47 62.9693 42754 3190.72 77277.3)
(-79420.6 -3785.72 144.266 -84248 3172.45 -61029.9)
(-75913.9 3868.84 -126.29 -84350.2 3187.82 -60527.6)
(-124919 3341.56 -58.3684 43001.3 3238.99 78958.7)
(-156161 -2222.86 90.1578 59787 3040.23 69787.3)
(-80335.2 -2957.5 159.666 -89285.2 2994.5 -78320.7)
(-76793.7 2941.74 -144.988 -89204.6 3007.82 -77819.6)
(-126933 2232.71 -86.5321 60115.4 3081.89 71298.1)
(-165802 -155.269 107.174 72340.9 2556.83 63289.8)
(-86529.4 -1829.08 166.494 -92643.4 2526.29 -94266.1)
(-82882.6 1728.11 -155.131 -92512.6 2537.26 -93782.1)
(-135661 159.254 -104.596 72744.8 2590.75 64692.3)
(-190492 4842.09 110.097 66136.5 1795.96 57686)
(-110685 982.599 163.59 -104187 1799.27 -110973)
(-106901 -1253.3 -155.195 -103984 1807.5 -110502)
(-159163 -4897.11 -108.37 66779.7 1821.15 59050.3)
(-229489 14258 92.8059 -8835.72 908.285 63996.2)
(-149207 5900.98 149.928 -161649 929.386 -114043)
(-145196 -6537.43 -145.251 -160557 934.454 -113516)
(-196638 -14430.7 -92.0903 -5800.42 923.838 65525.6)
(-167364 19230.3 63.7084 -173877 322.85 218242)
(-15398.7 8933.98 142.646 -249221 309.8 74309.5)
(-11589.1 -8800.38 -144.425 -242760 311.34 74278.2)
(-134118 -19050.8 -65.2101 -155234 327.789 218528)
)
;

boundaryField
{
    interface
    {
        type            calculated;
        value           nonuniform List<symmTensor> 
192
(
(-40.7887 0.351791 2.72298 936238 35304.3 275992)
(-42.5001 0.328359 4.4076 600423 4836.22 222562)
(-44.1179 0.0586422 5.0225 598258 55.0622 226749)
(-45.1663 -0.37947 5.1952 626270 1342.98 235874)
(-45.5057 -0.76452 5.15497 649277 4610.76 245308)
(-46.4392 -1.44232 5.02662 653817 10605.3 255525)
(-44.887 -1.9587 4.64567 574907 19824.6 262060)
(-48.4815 -4.40478 4.35163 272888 23918.4 273172)
(-39.7533 0.253657 1.33494 689313 2526.43 512643)
(-40.5287 0.251956 2.31501 516090 6160.2 431286)
(-41.508 0.0150583 2.60595 507428 5346.87 430129)
(-42.2118 -0.429596 2.63611 519151 5877.9 443842)
(-42.2874 -0.835098 2.54593 536580 10258.6 461638)
(-43.102 -1.58119 2.40898 551535 17400.4 482733)
(-41.2633 -2.1523 2.16304 507014 23068.9 505963)
(-44.9472 -4.718 1.9682 262341 19948 575272)
(-42.3065 0.217442 1.04716 563758 13648.5 511203)
(-42.986 0.214107 1.79247 450185 16965.4 470717)
(-43.9502 -0.0161829 2.00889 455732 15521 465450)
(-44.667 -0.481275 2.02564 471607 14533 474035)
(-44.6648 -0.923111 1.95076 493509 16503.5 489991)
(-45.3991 -1.74975 1.83997 517403 19375.8 513246)
(-43.1199 -2.40276 1.6626 485454 18242.3 550044)
(-46.5639 -5.13763 1.51459 256512 11092.9 655331)
(-42.5264 0.163874 0.635848 500358 17348.3 475159)
(-43.022 0.138979 1.15175 403247 20976.4 452344)
(-43.7836 -0.0928417 1.29458 416645 20485.2 447047)
(-44.3831 -0.561634 1.29246 439684 19018.9 450675)
(-44.2598 -1.01911 1.22716 467398 18308 463378)
(-44.9141 -1.8799 1.14036 495185 16913.7 488357)
(-42.4756 -2.56926 1.0279 465895 12093.8 535101)
(-45.8461 -5.3442 0.939587 247049 5684.16 654375)
(-43.3052 0.137983 0.463243 466966 15960.7 447720)
(-43.7475 0.0917704 0.839418 375306 19083.6 429953)
(-44.4183 -0.14932 0.944483 391303 19594.9 426171)
(-44.9657 -0.626215 0.942657 418431 18403.6 428304)
(-44.7654 -1.10044 0.894448 449673 16393.4 439979)
(-45.344 -1.99049 0.829903 478762 13056.8 466986)
(-42.7343 -2.71297 0.751389 450264 7697.88 518898)
(-45.9595 -5.52899 0.688018 239137 3112.66 640647)
(-43.5157 0.11785 0.28127 448874 12411.2 430831)
(-43.9097 0.0536291 0.527645 359941 14531.6 414221)
(-44.5016 -0.196009 0.597088 376607 15268.3 411879)
(-44.998 -0.677885 0.5944 405188 14473.7 414560)
(-44.7404 -1.1614 0.561008 437786 12432.7 426814)
(-45.2716 -2.06608 0.517447 467220 9148.62 455420)
(-42.5804 -2.80572 0.469086 439464 4863.56 509294)
(-45.7473 -5.64195 0.431752 233840 1822.2 630075)
(-43.7724 0.10796 0.164522 439332 7794.39 421360)
(-44.1494 0.0314391 0.308349 351949 8959.75 404954)
(-44.6998 -0.22558 0.349224 368735 9471.82 403579)
(-45.168 -0.711876 0.347807 397586 9015.54 407248)
(-44.8745 -1.20248 0.328513 430462 7624.01 420449)
(-45.3703 -2.11728 0.302786 459938 5418.27 450044)
(-42.6155 -2.86901 0.275443 432812 2768.3 504453)
(-45.7285 -5.7205 0.253091 230652 999.451 623957)
(-43.8367 0.101869 0.0485027 435194 2651.1 417115)
(-44.2016 0.0190081 0.0943824 348527 3017.53 400735)
(-44.7289 -0.24133 0.107607 365311 3190.72 399834)
(-45.1813 -0.729006 0.106961 394129 3040.23 404129)
(-44.872 -1.22245 0.100653 426981 2556.83 417930)
(-45.351 -2.14092 0.0922367 456434 1795.96 447984)
(-42.5768 -2.89818 0.0840972 429650 908.285 502482)
(-45.6624 -5.75595 0.077084 229146 322.85 621265)
(303953 31051.1 -3.80744 954683 -0.914151 -14.6605)
(240510 141.894 -6.48106 615122 -1.10519 -10.5501)
(244370 -4562 -7.57568 613128 -0.944801 -6.59672)
(258065 -3072.35 -7.97901 642599 -0.699753 -4.98025)
(270922 -337.269 -8.11365 666626 -0.592068 -4.60302)
(279740 4941.37 -8.22331 670772 -0.629503 -5.24952)
(280768 14412.8 -8.3727 590386 -0.767602 -7.11643)
(289730 19119 -9.19986 287255 -0.977331 -8.68749)
(563955 -6001.48 -2.25418 795104 -0.545751 -18.6199)
(449301 -5284.49 -4.32512 578016 -0.840844 -17.7043)
(444709 -4849.28 -5.10521 551338 -0.745694 -16.3568)
(466633 -3703.93 -5.35864 552888 -0.471693 -15.8818)
(490330 -1869.87 -5.4444 562825 -0.286201 -15.7562)
(507306 1467.61 -5.57564 570422 -0.186052 -16.0215)
(515278 6690.86 -5.89224 521031 -0.204237 -16.6301)
(574203 9219.62 -6.98215 277300 -0.283491 -16.9853)
(555972 5426.44 -2.24418 781721 -0.3967 -15.7996)
(442620 5606.47 -4.35203 566893 -0.67971 -15.1057)
(437641 5301.92 -5.17669 540199 -0.608966 -13.8436)
(459252 4041.94 -5.45318 541535 -0.313093 -13.3576)
(482773 2061.48 -5.53675 551259 -0.0756591 -13.2519)
(499574 -1504.42 -5.63834 558707 0.117813 -13.5094)
(507372 -7139.37 -5.89889 509950 0.221021 -14.1871)
(566691 -8987.75 -6.9455 272276 0.234073 -14.9842)
(302353 -30091 -2.46842 914330 -0.322546 -16.1035)
(241529 106.699 -4.95911 584601 -0.581455 -15.7018)
(244788 4729.95 -6.00276 581882 -0.509079 -14.6054)
(258168 3222.07 -6.37098 610453 -0.192312 -14.2381)
(270970 436.532 -6.47852 633878 0.0679993 -14.2332)
(279714 -4946.2 -6.6069 637650 0.304716 -14.4728)
(280635 -14565.8 -6.82304 558933 0.477475 -14.9737)
(291291 -18931.5 -7.92087 273138 0.638321 -15.611)
(-7.9229 0.771411 0.685497 874098 35501.2 240308)
(-5.25184 0.984424 1.36993 546058 5254.12 185773)
(-2.54447 0.700128 1.59567 543204 344.631 189371)
(-1.17416 0.166359 1.70065 570046 1510.83 197760)
(-0.703831 -0.123256 1.77645 592033 4698.44 206470)
(0.718037 -0.52363 2.01074 595870 10631.7 216094)
(0.153269 -0.492729 2.20325 518438 19780.4 222229)
(8.69284 -2.67776 2.78976 231784 23852.5 231914)
(-12.1148 0.31026 -0.299256 629122 4036.13 462214)
(-11.5883 0.439397 -0.269634 462487 7070.7 381466)
(-10.755 0.299424 -0.342372 453762 5953.95 379260)
(-10.1661 -0.0148355 -0.355646 464569 6276.43 391678)
(-9.97333 -0.104078 -0.298006 480844 10488.9 408176)
(-8.44768 -0.340618 -0.0720937 494704 17488 428006)
(-8.50798 -0.0831382 0.213113 451186 23033.7 450197)
(0.190755 -2.11517 0.660448 222357 19898.8 518464)
(-12.3954 0.171593 -0.157664 505988 14625.9 461047)
(-12.0186 0.227457 -0.0365729 398011 17718.4 420613)
(-11.3734 0.150372 0.00901709 403348 16095.3 414258)
(-10.7442 -0.0497574 0.0623122 418306 14952 421463)
(-10.4599 -0.0193033 0.145581 438952 16776.1 435926)
(-8.57292 -0.16247 0.328886 461471 19515.3 457586)
(-8.31558 0.208577 0.521353 430111 18276.9 492885)
(0.960494 -1.91784 0.774528 216538 11092.7 596650)
(-13.7554 0.0780931 -0.179927 444403 18011.2 426433)
(-13.6015 0.0813963 -0.073547 352494 21538.7 403524)
(-13.269 0.0476363 -0.0106489 365519 20948.3 397136)
(-12.7131 -0.0585715 0.0479375 387555 19383 399381)
(-12.3957 0.0730035 0.119102 413908 18568.6 410491)
(-10.2599 0.0154398 0.251589 440135 17073.2 433660)
(-9.66784 0.462407 0.379145 411125 12167.6 478535)
(-0.0898621 -1.67751 0.531482 207187 5702.75 595861)
(-14.0415 0.0622054 -0.0628121 412265 16427.4 400036)
(-13.8818 0.0476789 0.0658241 325579 19495.1 382163)
(-13.5797 0.0336653 0.151933 341101 19945.5 377277)
(-12.9745 -0.0299067 0.214268 367142 18691.5 378007)
(-12.5802 0.151329 0.271057 396932 16612.5 388019)
(-10.2844 0.13063 0.353947 424333 13204.7 413073)
(-9.55811 0.59788 0.417504 395921 7778.79 462884)
(0.178127 -1.59238 0.485882 199411 3135.84 582406)
(-14.4722 0.0567596 -0.0423786 394977 12722.2 383792)
(-14.3185 0.0369578 0.0551287 310866 14813.7 367088)
(-14.0389 0.0360745 0.125055 326988 15514.1 363632)
(-13.4042 -0.00140821 0.171965 354415 14680.6 364878)
(-12.9608 0.211358 0.21111 385491 12596.1 375416)
(-10.5575 0.213922 0.262446 413153 9265.09 401977)
(-9.72934 0.689786 0.297893 385365 4931.98 453610)
(0.124144 -1.52804 0.334016 194185 1842.98 571991)
(-14.5932 0.0598314 -0.00857916 385912 7972.16 374693)
(-14.4241 0.0404088 0.0565437 303259 9124.21 358208)
(-14.1327 0.0462632 0.102606 319455 9617.54 355712)
(-13.4658 0.0198898 0.131907 347109 9140.25 357923)
(-12.9885 0.246906 0.15465 378418 7724.56 369370)
(-10.5259 0.25837 0.181281 406069 5492 396865)
(-9.65562 0.735364 0.197336 378843 2813.17 448953)
(0.261039 -1.50478 0.211247 191030 1013.51 565956)
(-14.6997 0.0604018 -0.00656114 381996 2708.87 370618)
(-14.5284 0.0417783 0.0139861 300015 3071.5 354166)
(-14.2339 0.0513089 0.02926 316186 3238.99 352144)
(-13.5539 0.0304251 0.0389084 343786 3081.89 354968)
(-13.0588 0.264266 0.0465384 375049 2590.75 366997)
(-10.5674 0.280451 0.0552158 402654 1821.15 394924)
(-9.66813 0.758068 0.0609443 375736 923.838 447062)
(0.276826 -1.49139 0.0654559 189535 327.789 563298)
(290376 9.28852 -19064.3 -8.12603 -0.837393 288184)
(281438 8.49542 -14326.1 -6.27446 -0.624438 591195)
(280832 8.40419 -5045.87 -3.81083 -0.427456 672610)
(273798 8.3867 -522.294 -2.29347 -0.280281 672327)
(265378 8.44362 590.79 -1.11472 -0.199409 658441)
(258693 8.47987 503.318 -0.289421 -0.123479 647427)
(254475 8.51411 241.1 0.234348 -0.0738625 640966)
(252506 8.52881 63.7084 0.485812 -0.02245 638112)
(574831 7.03779 -9174.33 -16.5348 -0.114602 278352)
(516272 5.95144 -6590.42 -16.0465 -0.0271019 522390)
(509560 5.64412 -1539.72 -15.0746 0.0643788 572898)
(496446 5.52806 1089.74 -14.3796 0.0840802 566906)
(480887 5.50211 1460.6 -13.7811 0.0779001 557586)
(468228 5.48593 995.08 -13.3469 0.0622525 551423)
(460078 5.48545 495.442 -13.0618 0.0380171 547713)
(456228 5.48401 142.646 -12.9129 0.0139189 545936)
(567229 6.9995 8986.08 -14.5601 0.419668 273198)
(508235 5.94211 7151.94 -13.6271 0.418429 511190)
(501634 5.68245 1760.57 -12.5926 0.392077 561019)
(488609 5.6003 -1020.3 -11.9076 0.320423 555097)
(473073 5.59222 -1443.14 -11.2988 0.252277 545858)
(460417 5.58643 -995.339 -10.8959 0.17729 539740)
(452266 5.59095 -499.321 -10.6172 0.105782 536050)
(448416 5.59107 -144.425 -10.4895 0.0348942 534283)
(291632 7.94208 18907.2 -15.2358 0.827148 273610)
(281044 6.83052 14534.7 -14.5013 0.679461 559319)
(280571 6.60919 5139.5 -13.7425 0.576529 638928)
(273622 6.50601 545.972 -13.2101 0.453308 638787)
(265179 6.50009 -590.9 -12.6879 0.352888 625070)
(258471 6.49047 -508.51 -12.3659 0.243977 614151)
(254240 6.49606 -245.278 -12.129 0.146558 607743)
(252267 6.49633 -65.2101 -12.022 0.0478306 604913)
)
;
    }
    symmetry
    {
        type            symmetry;
    }
    bottom
    {
        type            calculated;
        value           nonuniform List<symmTensor> 
32
(
(-728045 89240.3 -11493 192178 85222.7 -737562)
(-514152 58602.3 -8894.42 58642.6 -5848.05 -246366)
(-431561 38138.8 -3666.48 7879.13 4545.8 -140667)
(-394182 29443.5 -965.791 -9246.22 12230.4 -122864)
(-375114 26368.4 -134.941 -16458.1 13340.7 -120563)
(-364455 25274.8 9.36732 -19617.1 11108.1 -120204)
(-358424 24818.2 5.76373 -20761 7198.56 -119883)
(-355638 24628.1 -0.680055 -21056.6 2480.14 -119641)
(-249235 -3602.55 -4878.44 130651 77842.3 -545228)
(-124703 -9668.74 -2867 -5354.38 10474 -130476)
(-82296.5 -15638.6 -459.207 -40541.8 21206.6 -51146.9)
(-68138.2 -17618.8 628.256 -46350 22440.3 -41140.5)
(-63960.3 -17567.5 703.914 -48125.1 18449.3 -40348.4)
(-63000.6 -17089 462.692 -49385.9 13463.9 -40608.9)
(-62795.5 -16733.9 232.665 -50063.7 8219.32 -40929.1)
(-62724.8 -16571.2 68.4943 -50296.3 2769.04 -41113.8)
(-243433 1766.45 4624.94 129452 77534 -536258)
(-122004 8507.5 3178.45 -8165.08 11102 -129899)
(-79851.6 14386.9 627.774 -43114 21593.7 -51305.8)
(-65767.4 16219.5 -515.909 -48775.6 22679 -41270.6)
(-61648 16078.1 -620.914 -50458.4 18610.7 -40431.5)
(-60725.4 15550 -404.496 -51650.8 13571.2 -40664.5)
(-60540.7 15168.9 -198.038 -52282.8 8281.04 -40969.1)
(-60478.9 14995 -56.9899 -52492.8 2789.2 -41146.3)
(-678905 -87326.9 11334.5 194503 84570.4 -700717)
(-474209 -56412.6 9004.43 55990.5 -4040.58 -233659)
(-393261 -36107.6 3700.86 5921.28 5717.7 -130099)
(-356791 -27605 977.375 -10664.4 12999 -112384)
(-338333 -24660.5 144.647 -17481.9 13869.7 -110061)
(-328037 -23644.8 -0.417198 -20341.9 11456.9 -109673)
(-322207 -23231.5 0.479434 -21289.3 7396.99 -109328)
(-319511 -23060.7 2.88748 -21488.6 2544.51 -109072)
)
;
    }
}


// ************************************************************************* //
