/*--------------------------------*- C++ -*----------------------------------*\
| =========                 |                                                 |
| \\      /  F ield         | OpenFOAM: The Open Source CFD Toolbox           |
|  \\    /   O peration     | Version:  v1912                                 |
|   \\  /    A nd           | Website:  www.openfoam.com                      |
|    \\/     M anipulation  |                                                 |
\*---------------------------------------------------------------------------*/
FoamFile
{
    version     2.0;
    format      ascii;
    class       volScalarField;
    location    "0.75/solid";
    object      sigmaHyd;
}
// * * * * * * * * * * * * * * * * * * * * * * * * * * * * * * * * * * * * * //

dimensions      [1 -1 -2 0 0 0 0];


internalField   nonuniform List<scalar> 
256
(
-716428
-382403
-376143
-678256
-1.05557e+06
-644590
-635414
-1.00727e+06
-1.09509e+06
-688779
-679097
-1.04527e+06
-1.11128e+06
-705592
-695668
-1.06041e+06
-1.14789e+06
-733273
-723165
-1.09605e+06
-1.23256e+06
-799766
-789449
-1.17973e+06
-1.45303e+06
-992731
-981407
-1.39735e+06
-2.03232e+06
-1.53974e+06
-1.52189e+06
-1.95863e+06
-372991
-119119
-118218
-350263
-594572
-265655
-262691
-564188
-628214
-307051
-303703
-596732
-642016
-324425
-320927
-609738
-667618
-343458
-339862
-634521
-730314
-387484
-383763
-696298
-916472
-536052
-531402
-879582
-1.45379e+06
-992938
-981484
-1.39757e+06
-292106
-72568.3
-72126
-271149
-444749
-157660
-155589
-417354
-469259
-188760
-186359
-440901
-481503
-204003
-201455
-452337
-503866
-220020
-217363
-473789
-559365
-256506
-253697
-528165
-730611
-387118
-383335
-696195
-1.23355e+06
-799495
-788932
-1.17962e+06
-271218
-68220.1
-67769.5
-250676
-399889
-134503
-132531
-373341
-419396
-159259
-156985
-391963
-430437
-172305
-169884
-402186
-451560
-186773
-184232
-422328
-504274
-220348
-217633
-473772
-667760
-342815
-339092
-633795
-1.14785e+06
-731572
-721078
-1.0942e+06
-262642
-68363.3
-67896.5
-242338
-383094
-128518
-126577
-357019
-400386
-150023
-147796
-373482
-410512
-161396
-159025
-382790
-430781
-174671
-172177
-402038
-481894
-206628
-203948
-451795
-640810
-324936
-321226
-607099
-1.10713e+06
-701482
-690993
-1.0536e+06
-257514
-68565.5
-68089
-237342
-374668
-126278
-124357
-348869
-391012
-146190
-143995
-364421
-400519
-156511
-154176
-373113
-420146
-168955
-166495
-391699
-470228
-199942
-197290
-440376
-626410
-315991
-312297
-592859
-1.08434e+06
-685519
-675034
-1.03087e+06
-254269
-68585.6
-68102.1
-234163
-369893
-125246
-123336
-344245
-385815
-144405
-142228
-359396
-394949
-154144
-151831
-367718
-414154
-166089
-163651
-385870
-463617
-196530
-193896
-433902
-618244
-311349
-307667
-584782
-1.07123e+06
-676746
-666265
-1.01779e+06
-252659
-68544.6
-68057.3
-232580
-367632
-124803
-122898
-342049
-383382
-143661
-141492
-357038
-392341
-153146
-150842
-365187
-411339
-164861
-162433
-383128
-460514
-195056
-192432
-430860
-614432
-309323
-305646
-581009
-1.06509e+06
-672758
-662279
-1.01166e+06
)
;

boundaryField
{
    interface
    {
        type            zeroGradient;
    }
    symmetry
    {
        type            symmetry;
    }
    bottom
    {
        type            zeroGradient;
    }
}


// ************************************************************************* //
