/*--------------------------------*- C++ -*----------------------------------*\
| =========                 |                                                 |
| \\      /  F ield         | OpenFOAM: The Open Source CFD Toolbox           |
|  \\    /   O peration     | Version:  v1912                                 |
|   \\  /    A nd           | Website:  www.openfoam.com                      |
|    \\/     M anipulation  |                                                 |
\*---------------------------------------------------------------------------*/
FoamFile
{
    version     2.0;
    format      ascii;
    class       volVectorField;
    location    "0.75/solid";
    object      U;
}
// * * * * * * * * * * * * * * * * * * * * * * * * * * * * * * * * * * * * * //

dimensions      [0 1 -1 0 0 0 0];


internalField   nonuniform List<vector> 
256
(
(2.22307e-08 2.32657e-08 2.72409e-08)
(5.23124e-09 1.47927e-08 2.5984e-08)
(-6.68253e-09 1.4211e-08 2.52632e-08)
(-2.18001e-08 2.12281e-08 2.50696e-08)
(4.1337e-08 2.00333e-08 6.37524e-08)
(1.07067e-08 1.24653e-08 6.17181e-08)
(-1.3934e-08 1.22236e-08 6.02547e-08)
(-4.19192e-08 1.9558e-08 5.93114e-08)
(4.55113e-08 2.46538e-09 8.97292e-08)
(1.15452e-08 -9.59253e-10 8.70161e-08)
(-1.68091e-08 -6.25529e-10 8.5125e-08)
(-4.80744e-08 3.8367e-09 8.39824e-08)
(4.45766e-08 -1.76989e-08 1.11509e-07)
(1.01563e-08 -1.92409e-08 1.07863e-07)
(-1.81524e-08 -1.83328e-08 1.05666e-07)
(-4.98366e-08 -1.46673e-08 1.04829e-07)
(4.42208e-08 -3.96395e-08 1.32833e-07)
(8.73457e-09 -4.15602e-08 1.28086e-07)
(-2.02236e-08 -4.01084e-08 1.25627e-07)
(-5.29187e-08 -3.5058e-08 1.25361e-07)
(4.82524e-08 -6.63728e-08 1.5593e-07)
(8.82292e-09 -6.90685e-08 1.50235e-07)
(-2.46164e-08 -6.70738e-08 1.47525e-07)
(-6.1185e-08 -6.02397e-08 1.47704e-07)
(5.88444e-08 -1.05427e-07 1.8074e-07)
(1.10101e-08 -1.06351e-07 1.75241e-07)
(-3.2056e-08 -1.03735e-07 1.72274e-07)
(-7.68399e-08 -9.75042e-08 1.71758e-07)
(7.04395e-08 -1.58633e-07 1.99939e-07)
(1.30191e-08 -1.54598e-07 1.9635e-07)
(-4.04713e-08 -1.51026e-07 1.93157e-07)
(-9.43533e-08 -1.47837e-07 1.90333e-07)
(1.4414e-08 8.37922e-09 1.16087e-08)
(3.24133e-09 1.31449e-09 1.29445e-08)
(-3.83275e-09 1.11319e-09 1.26298e-08)
(-1.33857e-08 7.1903e-09 1.06782e-08)
(2.76196e-08 -6.78387e-11 3.62917e-08)
(6.98313e-09 -6.33813e-09 3.89623e-08)
(-8.16899e-09 -6.27102e-09 3.80981e-08)
(-2.65812e-08 6.23379e-11 3.37742e-08)
(3.02663e-08 -1.61031e-08 5.90936e-08)
(7.49438e-09 -1.88987e-08 6.20508e-08)
(-9.86721e-09 -1.8384e-08 6.08046e-08)
(-3.04238e-08 -1.44311e-08 5.54487e-08)
(2.89685e-08 -3.44138e-08 7.96008e-08)
(6.22896e-09 -3.57245e-08 8.231e-08)
(-1.06727e-08 -3.47116e-08 8.07856e-08)
(-3.12024e-08 -3.12476e-08 7.51124e-08)
(2.83831e-08 -5.46036e-08 9.92442e-08)
(4.96395e-09 -5.65533e-08 1.01485e-07)
(-1.23518e-08 -5.50369e-08 9.97226e-08)
(-3.35278e-08 -4.99713e-08 9.40312e-08)
(3.24446e-08 -7.80783e-08 1.18865e-07)
(5.25115e-09 -8.10594e-08 1.20605e-07)
(-1.64625e-08 -7.90333e-08 1.18619e-07)
(-4.13472e-08 -7.19663e-08 1.12972e-07)
(4.4184e-08 -1.10108e-07 1.3676e-07)
(7.88402e-09 -1.1105e-07 1.38212e-07)
(-2.39186e-08 -1.08469e-07 1.36029e-07)
(-5.76955e-08 -1.02356e-07 1.30264e-07)
(5.8323e-08 -1.54049e-07 1.46738e-07)
(1.0476e-08 -1.48065e-07 1.48137e-07)
(-3.25524e-08 -1.44659e-07 1.45869e-07)
(-7.73155e-08 -1.4372e-07 1.3995e-07)
(7.7544e-09 2.59176e-09 5.76211e-09)
(1.33817e-09 -2.67729e-09 7.81861e-09)
(-1.539e-09 -2.83276e-09 7.60522e-09)
(-6.40883e-09 1.39149e-09 5.15532e-09)
(1.54694e-08 -1.01973e-08 2.27458e-08)
(3.22994e-09 -1.49774e-08 2.67129e-08)
(-3.28193e-09 -1.48794e-08 2.61157e-08)
(-1.34295e-08 -1.01743e-08 2.10532e-08)
(1.67857e-08 -2.70846e-08 4.16755e-08)
(3.34142e-09 -2.93009e-08 4.61803e-08)
(-3.90118e-09 -2.87979e-08 4.5279e-08)
(-1.52953e-08 -2.56168e-08 3.90937e-08)
(1.54017e-08 -4.44209e-08 6.01095e-08)
(2.19968e-09 -4.56909e-08 6.45624e-08)
(-4.23694e-09 -4.47282e-08 6.3418e-08)
(-1.5417e-08 -4.15338e-08 5.67935e-08)
(1.49114e-08 -6.21595e-08 7.74459e-08)
(1.1193e-09 -6.43234e-08 8.16425e-08)
(-5.59114e-09 -6.28867e-08 8.02863e-08)
(-1.73373e-08 -5.78618e-08 7.34824e-08)
(1.92451e-08 -8.12933e-08 9.30229e-08)
(1.62264e-09 -8.4618e-08 9.68937e-08)
(-9.47971e-09 -8.27016e-08 9.53471e-08)
(-2.49831e-08 -7.55774e-08 8.84731e-08)
(3.17434e-08 -1.06827e-07 1.0451e-07)
(4.61812e-09 -1.0802e-07 1.08016e-07)
(-1.69163e-08 -1.05589e-07 1.06327e-07)
(-4.16809e-08 -9.95591e-08 9.94977e-08)
(4.70248e-08 -1.43866e-07 1.07698e-07)
(7.62112e-09 -1.37629e-07 1.1088e-07)
(-2.56085e-08 -1.34415e-07 1.09169e-07)
(-6.20528e-08 -1.34108e-07 1.02555e-07)
(4.52796e-09 3.15113e-10 4.44864e-09)
(4.29617e-10 -3.68392e-09 5.91929e-09)
(-4.45218e-10 -3.86478e-09 5.76035e-09)
(-2.98905e-09 -1.0247e-09 4.00795e-09)
(9.49133e-09 -1.42515e-08 1.73481e-08)
(1.37821e-09 -1.80162e-08 2.01449e-08)
(-7.98213e-10 -1.79911e-08 1.97142e-08)
(-6.82153e-09 -1.45329e-08 1.61476e-08)
(1.02873e-08 -3.18954e-08 3.24324e-08)
(1.36312e-09 -3.37787e-08 3.55626e-08)
(-7.99895e-10 -3.33756e-08 3.49056e-08)
(-7.69102e-09 -3.08064e-08 3.05733e-08)
(9.20191e-09 -4.86628e-08 4.77246e-08)
(4.53671e-10 -5.00062e-08 5.07591e-08)
(-8.87405e-10 -4.91628e-08 4.99071e-08)
(-7.64172e-09 -4.61967e-08 4.52777e-08)
(9.16571e-09 -6.43891e-08 6.18937e-08)
(-3.40785e-10 -6.67853e-08 6.46921e-08)
(-2.08949e-09 -6.54843e-08 6.36647e-08)
(-9.58112e-09 -6.05433e-08 5.89099e-08)
(1.39192e-08 -8.02863e-08 7.35793e-08)
(4.03732e-10 -8.39038e-08 7.61184e-08)
(-5.83308e-09 -8.21387e-08 7.49379e-08)
(-1.7253e-08 -7.50508e-08 7.01176e-08)
(2.66474e-08 -1.01955e-07 8.07452e-08)
(3.5576e-09 -1.0358e-07 8.30408e-08)
(-1.3087e-08 -1.01313e-07 8.17554e-08)
(-3.38227e-08 -9.51874e-08 7.69297e-08)
(4.19283e-08 -1.35642e-07 8.12011e-08)
(6.67502e-09 -1.30221e-07 8.33991e-08)
(-2.15747e-08 -1.27169e-07 8.2111e-08)
(-5.38595e-08 -1.26375e-07 7.73115e-08)
(3.391e-09 -5.30689e-10 3.80601e-09)
(1.84749e-10 -3.89804e-09 4.56965e-09)
(-1.02931e-10 -4.10596e-09 4.45509e-09)
(-1.73143e-09 -1.9842e-09 3.49334e-09)
(7.48095e-09 -1.54423e-08 1.37257e-08)
(9.00168e-10 -1.87394e-08 1.51272e-08)
(5.09285e-11 -1.87952e-08 1.48221e-08)
(-4.41534e-09 -1.6003e-08 1.2886e-08)
(8.31771e-09 -3.31426e-08 2.51517e-08)
(9.75756e-10 -3.4946e-08 2.66445e-08)
(2.95711e-10 -3.46533e-08 2.61782e-08)
(-4.99787e-09 -3.24182e-08 2.38457e-08)
(7.6681e-09 -4.93832e-08 3.68238e-08)
(3.30788e-10 -5.08747e-08 3.81681e-08)
(3.03951e-10 -5.01568e-08 3.75566e-08)
(-5.03108e-09 -4.7322e-08 3.5081e-08)
(8.13379e-09 -6.3815e-08 4.74758e-08)
(-1.78594e-10 -6.64246e-08 4.86033e-08)
(-8.33801e-10 -6.52581e-08 4.78578e-08)
(-7.12474e-09 -6.0393e-08 4.53218e-08)
(1.32324e-08 -7.79328e-08 5.57721e-08)
(7.67707e-10 -8.17694e-08 5.67069e-08)
(-4.45872e-09 -8.01439e-08 5.5845e-08)
(-1.48173e-08 -7.31272e-08 5.32517e-08)
(2.59255e-08 -9.78488e-08 6.02788e-08)
(3.97018e-09 -9.984e-08 6.10922e-08)
(-1.14725e-08 -9.77099e-08 6.01533e-08)
(-3.10543e-08 -9.15003e-08 5.74925e-08)
(4.0899e-08 -1.30099e-07 6.00316e-08)
(7.09041e-09 -1.25507e-07 6.08827e-08)
(-1.96964e-08 -1.22583e-07 5.99448e-08)
(-5.05092e-08 -1.21218e-07 5.71943e-08)
(3.07917e-09 -8.06008e-10 2.95894e-09)
(1.84797e-10 -3.91231e-09 3.29264e-09)
(-4.97568e-11 -4.13972e-09 3.21594e-09)
(-1.34627e-09 -2.3366e-09 2.75175e-09)
(7.05758e-09 -1.54956e-08 1.00837e-08)
(9.50715e-10 -1.86464e-08 1.06498e-08)
(2.20813e-10 -1.87639e-08 1.04467e-08)
(-3.74805e-09 -1.62596e-08 9.53011e-09)
(8.12564e-09 -3.28467e-08 1.80599e-08)
(1.18202e-09 -3.47022e-08 1.85943e-08)
(5.30952e-10 -3.44978e-08 1.82836e-08)
(-4.3469e-09 -3.24025e-08 1.71969e-08)
(7.86165e-09 -4.85831e-08 2.61429e-08)
(7.58764e-10 -5.02324e-08 2.65329e-08)
(5.68541e-10 -4.96165e-08 2.6123e-08)
(-4.51943e-09 -4.68409e-08 2.49823e-08)
(8.71199e-09 -6.22866e-08 3.34159e-08)
(4.67575e-10 -6.50639e-08 3.36406e-08)
(-5.31045e-10 -6.40053e-08 3.31375e-08)
(-6.743e-09 -5.91982e-08 3.19689e-08)
(1.40326e-08 -7.56193e-08 3.88961e-08)
(1.55605e-09 -7.9599e-08 3.89959e-08)
(-4.05394e-09 -7.80818e-08 3.84114e-08)
(-1.44117e-08 -7.11455e-08 3.71916e-08)
(2.6632e-08 -9.48886e-08 4.16919e-08)
(4.77561e-09 -9.71051e-08 4.17411e-08)
(-1.08606e-08 -9.50782e-08 4.11032e-08)
(-3.0327e-08 -8.88541e-08 3.98008e-08)
(4.13228e-08 -1.26486e-07 4.13901e-08)
(7.88224e-09 -1.2243e-07 4.15002e-08)
(-1.88667e-08 -1.196e-07 4.08634e-08)
(-4.92903e-08 -1.17887e-07 3.94631e-08)
(3.01176e-09 -8.66889e-10 1.87153e-09)
(2.26334e-10 -3.87419e-09 2.0008e-09)
(-6.34338e-11 -4.11393e-09 1.95689e-09)
(-1.2373e-09 -2.44492e-09 1.75362e-09)
(7.0573e-09 -1.52317e-08 6.17412e-09)
(1.08227e-09 -1.83615e-08 6.36708e-09)
(2.13151e-10 -1.85187e-08 6.251e-09)
(-3.60715e-09 -1.61241e-08 5.8595e-09)
(8.33046e-09 -3.21859e-08 1.08793e-08)
(1.43882e-09 -3.41184e-08 1.10205e-08)
(5.31085e-10 -3.39724e-08 1.08427e-08)
(-4.28144e-09 -3.19241e-08 1.03881e-08)
(8.32721e-09 -4.75328e-08 1.55959e-08)
(1.16354e-09 -4.93025e-08 1.5639e-08)
(5.7784e-10 -4.87552e-08 1.54038e-08)
(-4.56037e-09 -4.60029e-08 1.49329e-08)
(9.41689e-09 -6.08632e-08 1.97948e-08)
(1.01071e-09 -6.37511e-08 1.97383e-08)
(-4.93624e-10 -6.27652e-08 1.94484e-08)
(-6.85804e-09 -5.79986e-08 1.89635e-08)
(1.48629e-08 -7.39063e-08 2.29061e-08)
(2.18735e-09 -7.79675e-08 2.27817e-08)
(-3.9415e-09 -7.65226e-08 2.24437e-08)
(-1.44886e-08 -6.96538e-08 2.19224e-08)
(2.73899e-08 -9.29784e-08 2.44514e-08)
(5.41831e-09 -9.531e-08 2.43087e-08)
(-1.06075e-08 -9.33511e-08 2.39391e-08)
(-3.01779e-08 -8.71512e-08 2.33567e-08)
(4.18935e-08 -1.24264e-07 2.4251e-08)
(8.51684e-09 -1.20492e-07 2.41502e-08)
(-1.84683e-08 -1.17722e-07 2.37811e-08)
(-4.8814e-08 -1.1585e-07 2.31345e-08)
(3.00005e-09 -8.67441e-10 6.39381e-10)
(2.51099e-10 -3.84123e-09 6.72707e-10)
(-7.63049e-11 -4.08695e-09 6.58426e-10)
(-1.20681e-09 -2.46807e-09 6.01135e-10)
(7.09794e-09 -1.50262e-08 2.07862e-09)
(1.15802e-09 -1.81623e-08 2.12276e-09)
(1.93089e-10 -1.83386e-08 2.08501e-09)
(-3.58347e-09 -1.59803e-08 1.97661e-09)
(8.47815e-09 -3.17415e-08 3.63292e-09)
(1.57855e-09 -3.37214e-08 3.65537e-09)
(5.09432e-10 -3.36041e-08 3.59755e-09)
(-4.30384e-09 -3.15684e-08 3.47356e-09)
(8.60132e-09 -4.68804e-08 5.18038e-09)
(1.37499e-09 -4.87128e-08 5.16883e-09)
(5.5983e-10 -4.81996e-08 5.0922e-09)
(-4.63505e-09 -4.54553e-08 4.96494e-09)
(9.80275e-09 -6.00543e-08 6.55023e-09)
(1.28791e-09 -6.2996e-08 6.50583e-09)
(-4.95753e-10 -6.20464e-08 6.41116e-09)
(-6.9635e-09 -5.73011e-08 6.27932e-09)
(1.5305e-08 -7.30107e-08 7.5584e-09)
(2.5067e-09 -7.71081e-08 7.49265e-09)
(-3.90437e-09 -7.56992e-08 7.38209e-09)
(-1.4569e-08 -6.88683e-08 7.23703e-09)
(2.77964e-08 -9.20357e-08 8.05454e-09)
(5.74473e-09 -9.44139e-08 7.98437e-09)
(-1.0501e-08 -9.24885e-08 7.86335e-09)
(-3.01457e-08 -8.63114e-08 7.69634e-09)
(4.22095e-08 -1.23193e-07 7.98616e-09)
(8.84034e-09 -1.19538e-07 7.93015e-09)
(-1.829e-08 -1.16798e-07 7.80931e-09)
(-4.86211e-08 -1.1487e-07 7.62063e-09)
)
;

boundaryField
{
    interface
    {
        type            calculated;
        value           nonuniform List<vector> 
192
(
(2.64761e-08 3.91576e-08 2.48452e-08)
(4.57763e-08 2.58534e-08 5.95195e-08)
(5.02364e-08 3.27519e-09 8.51001e-08)
(4.96806e-08 -1.80216e-08 1.06914e-07)
(4.94302e-08 -3.87207e-08 1.28345e-07)
(5.30441e-08 -6.27169e-08 1.5161e-07)
(6.34537e-08 -9.98805e-08 1.7677e-07)
(7.60944e-08 -1.55441e-07 1.96498e-07)
(1.59774e-08 1.88876e-08 7.98968e-09)
(2.97507e-08 3.89516e-09 2.98249e-08)
(3.2484e-08 -1.5766e-08 5.19123e-08)
(3.12473e-08 -3.48847e-08 7.23072e-08)
(3.05457e-08 -5.37347e-08 9.19169e-08)
(3.41487e-08 -7.41282e-08 1.11613e-07)
(4.61359e-08 -1.03639e-07 1.29985e-07)
(6.30186e-08 -1.50334e-07 1.40884e-07)
(7.91307e-09 8.39771e-09 3.29065e-09)
(1.65525e-08 -7.9395e-09 1.82138e-08)
(1.80509e-08 -2.71016e-08 3.66808e-08)
(1.67458e-08 -4.48895e-08 5.5168e-08)
(1.6237e-08 -6.11988e-08 7.26416e-08)
(2.03766e-08 -7.70854e-08 8.83916e-08)
(3.35393e-08 -9.9882e-08 1.00126e-07)
(5.20292e-08 -1.39812e-07 1.036e-07)
(4.08564e-09 3.81994e-09 3.35783e-09)
(1.02896e-08 -1.28118e-08 1.53511e-08)
(1.13818e-08 -3.19679e-08 3.03155e-08)
(1.04543e-08 -4.89433e-08 4.57912e-08)
(1.05292e-08 -6.32099e-08 6.01994e-08)
(1.53221e-08 -7.59159e-08 7.20762e-08)
(2.90138e-08 -9.49523e-08 7.92907e-08)
(4.75506e-08 -1.31452e-07 7.96696e-08)
(2.61054e-09 2.1873e-09 3.44384e-09)
(8.00576e-09 -1.42107e-08 1.31173e-08)
(9.20442e-09 -3.30959e-08 2.46114e-08)
(8.7859e-09 -4.94293e-08 3.64888e-08)
(9.46531e-09 -6.2424e-08 4.73624e-08)
(1.47531e-08 -7.34849e-08 5.58005e-08)
(2.85745e-08 -9.09322e-08 6.02749e-08)
(4.67469e-08 -1.25874e-07 5.98802e-08)
(2.1391e-09 1.72818e-09 2.86415e-09)
(7.40721e-09 -1.4234e-08 9.97783e-09)
(8.87285e-09 -3.26458e-08 1.80631e-08)
(8.89564e-09 -4.84366e-08 2.63077e-08)
(1.00325e-08 -6.0744e-08 3.37367e-08)
(1.56331e-08 -7.11394e-08 3.93037e-08)
(2.94444e-08 -8.80661e-08 4.2058e-08)
(4.72545e-08 -1.22265e-07 4.16388e-08)
(2.01432e-09 1.65038e-09 1.85177e-09)
(7.32781e-09 -1.3902e-08 6.18424e-09)
(9.01856e-09 -3.18685e-08 1.09675e-08)
(9.33816e-09 -4.72613e-08 1.57809e-08)
(1.07598e-08 -5.92294e-08 2.00675e-08)
(1.65366e-08 -6.94132e-08 2.32242e-08)
(3.03155e-08 -8.62208e-08 2.47425e-08)
(4.78766e-08 -1.20058e-07 2.44727e-08)
(1.9881e-09 1.65706e-09 6.36457e-10)
(7.34224e-09 -1.36568e-08 2.08879e-09)
(9.14933e-09 -3.13657e-08 3.66985e-09)
(9.61281e-09 -4.65494e-08 5.24892e-09)
(1.11677e-08 -5.83785e-08 6.6467e-09)
(1.70235e-08 -6.85124e-08 7.66894e-09)
(3.07828e-08 -8.53096e-08 8.15618e-09)
(4.82215e-08 -1.18997e-07 8.06516e-09)
(2.31142e-08 4.6014e-08 2.86401e-08)
(4.29445e-08 3.56554e-08 6.49491e-08)
(4.71473e-08 1.44045e-08 9.12039e-08)
(4.59625e-08 -6.92302e-09 1.13453e-07)
(4.52781e-08 -2.85342e-08 1.34909e-07)
(4.89886e-08 -5.43959e-08 1.57417e-07)
(5.94547e-08 -9.44248e-08 1.8157e-07)
(7.12627e-08 -1.52997e-07 2.01218e-07)
(4.73661e-09 3.67182e-08 2.58801e-08)
(9.83195e-09 2.77233e-08 6.09287e-08)
(1.03939e-08 1.05771e-08 8.58561e-08)
(8.69543e-09 -8.97334e-09 1.06591e-07)
(6.93308e-09 -3.09672e-08 1.26464e-07)
(6.72163e-09 -5.72797e-08 1.47641e-07)
(8.89337e-09 -9.48218e-08 1.72124e-07)
(1.13234e-08 -1.4865e-07 1.95449e-07)
(-6.91138e-09 3.55905e-08 2.42077e-08)
(-1.45361e-08 2.71891e-08 5.86773e-08)
(-1.7568e-08 1.07274e-08 8.3168e-08)
(-1.89112e-08 -8.20705e-09 1.03563e-07)
(-2.09052e-08 -2.96435e-08 1.23142e-07)
(-2.52494e-08 -5.54122e-08 1.44042e-07)
(-3.29268e-08 -9.23273e-08 1.6824e-07)
(-4.19757e-08 -1.45126e-07 1.91259e-07)
(-2.32676e-08 4.23234e-08 2.361e-08)
(-4.47911e-08 3.42863e-08 5.79237e-08)
(-5.13981e-08 1.52164e-08 8.27868e-08)
(-5.32221e-08 -4.32249e-09 1.03997e-07)
(-5.62402e-08 -2.43392e-08 1.24572e-07)
(-6.44325e-08 -4.86402e-08 1.46258e-07)
(-8.02028e-08 -8.68468e-08 1.69601e-07)
(-9.81345e-08 -1.42332e-07 1.88521e-07)
(-2.00796e-08 3.71579e-08 2.2232e-08)
(-4.04129e-08 2.61265e-08 5.40406e-08)
(-4.67374e-08 5.81618e-09 7.79076e-08)
(-4.87287e-08 -1.3456e-08 9.84778e-08)
(-5.17626e-08 -3.22207e-08 1.18852e-07)
(-5.94396e-08 -5.42591e-08 1.4112e-07)
(-7.46177e-08 -8.92119e-08 1.65291e-07)
(-9.26259e-08 -1.41467e-07 1.84183e-07)
(-9.41895e-09 1.7182e-08 6.83033e-09)
(-2.32706e-08 4.3219e-09 2.66516e-08)
(-2.7139e-08 -1.32757e-08 4.72538e-08)
(-2.78656e-08 -3.04715e-08 6.65073e-08)
(-2.99465e-08 -4.74349e-08 8.51357e-08)
(-3.71504e-08 -6.59242e-08 1.03922e-07)
(-5.34479e-08 -9.33639e-08 1.21474e-07)
(-7.51288e-08 -1.37023e-07 1.31875e-07)
(-1.23562e-09 6.35107e-09 2.55608e-09)
(-9.30154e-09 -7.95262e-09 1.61131e-08)
(-1.13042e-08 -2.51198e-08 3.34103e-08)
(-1.14058e-08 -4.10231e-08 5.09031e-08)
(-1.31763e-08 -5.54701e-08 6.74955e-08)
(-2.04605e-08 -6.94913e-08 8.24493e-08)
(-3.7511e-08 -9.02915e-08 9.35293e-08)
(-6.03982e-08 -1.27266e-07 9.66906e-08)
(2.71004e-09 1.42793e-09 2.83854e-09)
(-2.49605e-09 -1.33574e-08 1.38939e-08)
(-3.62716e-09 -3.06013e-08 2.79988e-08)
(-3.64057e-09 -4.57241e-08 4.26811e-08)
(-5.56138e-09 -5.81403e-08 5.63566e-08)
(-1.30951e-08 -6.89902e-08 6.7576e-08)
(-3.0297e-08 -8.60356e-08 7.42729e-08)
(-5.29032e-08 -1.19563e-07 7.44255e-08)
(4.26923e-09 -4.47515e-10 3.08259e-09)
(1.40011e-10 -1.51864e-08 1.21175e-08)
(-7.764e-10 -3.22642e-08 2.30096e-08)
(-9.51549e-10 -4.67901e-08 3.43003e-08)
(-3.12788e-09 -5.79463e-08 4.46121e-08)
(-1.0825e-08 -6.71446e-08 5.25412e-08)
(-2.78485e-08 -8.25771e-08 5.66185e-08)
(-4.98189e-08 -1.14504e-07 5.6052e-08)
(4.79493e-09 -1.06303e-09 2.62818e-09)
(9.62224e-10 -1.55094e-08 9.32798e-09)
(-9.53098e-12 -3.22095e-08 1.70177e-08)
(-3.8675e-10 -4.62417e-08 2.48646e-08)
(-2.76549e-09 -5.6725e-08 3.19021e-08)
(-1.05253e-08 -6.52492e-08 3.71094e-08)
(-2.73054e-08 -8.01343e-08 3.95816e-08)
(-4.87068e-08 -1.1128e-07 3.90392e-08)
(4.9502e-09 -1.23381e-09 1.71873e-09)
(1.16928e-09 -1.5363e-08 5.8183e-09)
(1.00738e-10 -3.16857e-08 1.03773e-08)
(-4.19243e-10 -4.53586e-08 1.49617e-08)
(-2.91763e-09 -5.55164e-08 1.90186e-08)
(-1.06881e-08 -6.38236e-08 2.19616e-08)
(-2.72799e-08 -7.85697e-08 2.33113e-08)
(-4.82939e-08 -1.09325e-07 2.29672e-08)
(4.99006e-09 -1.27051e-09 5.93505e-10)
(1.21323e-09 -1.5206e-08 1.97067e-09)
(8.9325e-11 -3.13054e-08 3.47915e-09)
(-4.96835e-10 -4.47903e-08 4.98359e-09)
(-3.05062e-09 -5.48174e-08 6.30568e-09)
(-1.08182e-08 -6.30725e-08 7.25712e-09)
(-2.73126e-08 -7.77981e-08 7.68827e-09)
(-4.81352e-08 -1.08389e-07 7.57239e-09)
(7.10269e-08 -1.60012e-07 2.01611e-07)
(5.86848e-08 -1.55051e-07 1.43046e-07)
(4.74926e-08 -1.45653e-07 1.03096e-07)
(4.26679e-08 -1.38259e-07 7.77593e-08)
(4.18636e-08 -1.33003e-07 5.77426e-08)
(4.24193e-08 -1.29474e-07 3.99312e-08)
(4.30534e-08 -1.27295e-07 2.34276e-08)
(4.33935e-08 -1.26248e-07 7.71836e-09)
(1.11172e-08 -1.53791e-07 1.97691e-07)
(8.12841e-09 -1.45117e-07 1.43894e-07)
(5.2582e-09 -1.35317e-07 1.06419e-07)
(4.5567e-09 -1.29071e-07 8.03686e-08)
(5.21114e-09 -1.24963e-07 5.89351e-08)
(6.16045e-09 -1.22188e-07 4.02464e-08)
(6.88116e-09 -1.20409e-07 2.34271e-08)
(7.24154e-09 -1.19528e-07 7.69175e-09)
(-4.21616e-08 -1.49211e-07 1.94515e-07)
(-3.3639e-08 -1.40769e-07 1.41717e-07)
(-2.64889e-08 -1.31175e-07 1.04797e-07)
(-2.25364e-08 -1.25094e-07 7.9153e-08)
(-2.0769e-08 -1.21114e-07 5.80523e-08)
(-2.00029e-08 -1.18431e-07 3.9648e-08)
(-1.96292e-08 -1.16711e-07 2.30807e-08)
(-1.94575e-08 -1.1586e-07 7.5784e-09)
(-9.83355e-08 -1.46092e-07 1.92057e-07)
(-8.08993e-08 -1.41667e-07 1.36518e-07)
(-6.55511e-08 -1.32845e-07 9.82185e-08)
(-5.74646e-08 -1.25942e-07 7.40889e-08)
(-5.42076e-08 -1.21066e-07 5.50724e-08)
(-5.30226e-08 -1.17813e-07 3.8121e-08)
(-5.2545e-08 -1.15811e-07 2.23801e-08)
(-5.23441e-08 -1.14852e-07 7.37564e-09)
)
;
    }
    symmetry
    {
        type            symmetry;
    }
    bottom
    {
        type            calculated;
        value           uniform (0 0 0);
    }
}


// ************************************************************************* //
