/*--------------------------------*- C++ -*----------------------------------*\
| =========                 |                                                 |
| \\      /  F ield         | OpenFOAM: The Open Source CFD Toolbox           |
|  \\    /   O peration     | Version:  v1912                                 |
|   \\  /    A nd           | Website:  www.openfoam.com                      |
|    \\/     M anipulation  |                                                 |
\*---------------------------------------------------------------------------*/
FoamFile
{
    version     2.0;
    format      ascii;
    class       surfaceScalarField;
    location    "0.48/fluid";
    object      meshPhi;
}
// * * * * * * * * * * * * * * * * * * * * * * * * * * * * * * * * * * * * * //

dimensions      [0 3 -1 0 0 0 0];
oriented        oriented;


internalField   nonuniform List<scalar> 
41600
(
1.98657e-13
-5.03886e-13
1.87647e-13
-1.93787e-13
3.78684e-13
-1.46811e-12
5.52969e-13
-5.71343e-13
5.46681e-13
-2.36372e-12
9.10864e-13
-9.42021e-13
7.08575e-13
-3.22287e-12
1.28488e-12
-1.33059e-12
8.70024e-13
-4.0676e-12
1.69623e-12
-1.75949e-12
1.03693e-12
-4.90845e-12
2.16473e-12
-2.24997e-12
1.21618e-12
-5.74194e-12
2.70928e-12
-2.82276e-12
1.4169e-12
-6.54542e-12
3.34771e-12
-3.49828e-12
1.65301e-12
-7.26745e-12
4.09621e-12
-4.29659e-12
1.94907e-12
-7.81078e-12
4.96815e-12
-5.23765e-12
2.35317e-12
-8.00108e-12
5.97339e-12
-6.34358e-12
2.96579e-12
-7.52508e-12
7.12036e-12
-7.64845e-12
3.99608e-12
-5.80466e-12
8.42659e-12
-9.2288e-12
5.82738e-12
-1.78886e-12
9.93632e-12
-1.12729e-11
8.65975e-12
5.66287e-12
1.16391e-11
-1.39983e-11
1.84656e-11
1.46631e-11
-2.16466e-11
5.91708e-13
-9.92805e-13
5.58119e-13
-5.76416e-13
1.12781e-12
-2.89326e-12
1.64459e-12
-1.69934e-12
1.62784e-12
-4.66025e-12
2.70864e-12
-2.8014e-12
2.10932e-12
-6.35815e-12
3.82002e-12
-3.95595e-12
2.58896e-12
-8.03219e-12
5.04157e-12
-5.22948e-12
3.08408e-12
-9.70652e-12
6.43207e-12
-6.68498e-12
3.61447e-12
-1.13798e-11
8.04746e-12
-8.38381e-12
4.2054e-12
-1.30166e-11
9.94046e-12
-1.03861e-11
4.89359e-12
-1.45328e-11
1.21584e-11
-1.27502e-11
5.73985e-12
-1.57711e-11
1.47386e-11
-1.55315e-11
6.85586e-12
-1.64638e-11
1.77025e-11
-1.87834e-11
8.46037e-12
-1.61823e-11
2.10506e-11
-2.25696e-11
1.0971e-11
-1.4295e-11
2.47645e-11
-2.70038e-11
1.50549e-11
-1.00635e-11
2.88028e-11
-3.23272e-11
2.07837e-11
-3.5163e-12
3.29176e-11
-3.86186e-11
4.14125e-12
3.61548e-11
-4.70395e-11
9.72263e-13
-1.45197e-12
9.14523e-13
-9.44551e-13
1.8528e-12
-4.23279e-12
2.69444e-12
-2.78426e-12
2.67335e-12
-6.82244e-12
4.43649e-12
-4.58851e-12
3.46233e-12
-9.31786e-12
6.25423e-12
-6.47664e-12
4.24687e-12
-1.17896e-11
8.2499e-12
-8.55682e-12
5.05474e-12
-1.42803e-11
1.05192e-11
-1.09317e-11
5.91669e-12
-1.67999e-11
1.31534e-11
-1.37009e-11
6.86987e-12
-1.93163e-11
1.62384e-11
-1.69623e-11
7.9635e-12
-2.17408e-11
1.98514e-11
-2.08094e-11
9.26946e-12
-2.39034e-11
2.40511e-11
-2.53268e-11
1.09033e-11
-2.55234e-11
2.88623e-11
-3.05824e-11
1.30633e-11
-2.61832e-11
3.42523e-11
-3.66198e-11
1.60753e-11
-2.53539e-11
4.00958e-11
-4.34559e-11
2.03484e-11
-2.26046e-11
4.61138e-11
-5.10651e-11
2.5563e-11
-1.83279e-11
5.16859e-11
-5.89701e-11
-1.36e-11
5.60584e-11
-6.88719e-11
1.33258e-12
-1.86633e-12
1.24834e-12
-1.28933e-12
2.5387e-12
-5.44301e-12
3.67717e-12
-3.79971e-12
3.66119e-12
-8.78055e-12
6.05199e-12
-6.25915e-12
4.7384e-12
-1.20084e-11
8.52628e-12
-8.82886e-12
5.80691e-12
-1.52243e-11
1.12381e-11
-1.16549e-11
6.9038e-12
-1.84943e-11
1.4317e-11
-1.4876e-11
8.06912e-12
-2.18491e-11
1.78865e-11
-1.86271e-11
9.34866e-12
-2.52768e-11
2.20642e-11
-2.30407e-11
1.07971e-11
-2.8711e-11
2.6957e-11
-2.82444e-11
1.24818e-11
-3.20109e-11
3.26479e-11
-3.43517e-11
1.44882e-11
-3.49363e-11
3.91727e-11
-4.14458e-11
1.69274e-11
-3.71236e-11
4.64788e-11
-4.95513e-11
1.99298e-11
-3.80912e-11
5.43565e-11
-5.85887e-11
2.35862e-11
-3.73594e-11
6.2327e-11
-6.82921e-11
2.74825e-11
-3.4951e-11
6.94352e-11
-7.77678e-11
-3.12615e-11
7.45029e-11
-8.82111e-11
1.66556e-12
-2.22116e-12
1.55204e-12
-1.60293e-12
3.17178e-12
-6.48087e-12
4.5704e-12
-4.72241e-12
4.5711e-12
-1.0465e-11
7.51753e-12
-7.77418e-12
5.91051e-12
-1.43342e-11
1.05816e-11
-1.09559e-11
7.23485e-12
-1.82141e-11
1.39317e-11
-1.44464e-11
8.58942e-12
-2.21972e-11
1.77263e-11
-1.84152e-11
1.00226e-11
-2.63423e-11
2.21174e-11
-2.30278e-11
1.15883e-11
-3.06707e-11
2.72512e-11
-2.84482e-11
1.3347e-11
-3.51595e-11
3.32642e-11
-3.48362e-11
1.53641e-11
-3.97291e-11
4.02695e-11
-4.23391e-11
1.77039e-11
-4.42229e-11
4.83316e-11
-5.10707e-11
2.04121e-11
-4.83736e-11
5.74171e-11
-6.10746e-11
2.34679e-11
-5.17451e-11
6.73012e-11
-7.22474e-11
2.67039e-11
-5.36608e-11
7.73899e-11
-8.41869e-11
2.9571e-11
-5.33902e-11
8.63845e-11
-9.5608e-11
-5.01047e-11
9.25912e-11
-1.07139e-10
1.96513e-12
-2.50246e-12
1.81958e-12
-1.87904e-12
3.7403e-12
-7.30533e-12
5.35608e-12
-5.5336e-12
5.38572e-12
-1.18087e-11
8.80278e-12
-9.10215e-12
6.95536e-12
-1.62014e-11
1.23762e-11
-1.2812e-11
8.50081e-12
-2.06354e-11
1.62701e-11
-1.68683e-11
1.00743e-11
-2.523e-11
2.06661e-11
-2.14649e-11
1.17319e-11
-3.00746e-11
2.57384e-11
-2.67913e-11
1.35366e-11
-3.52297e-11
3.16568e-11
-3.30367e-11
1.55597e-11
-4.07267e-11
3.85842e-11
-4.039e-11
1.78803e-11
-4.65667e-11
4.66668e-11
-4.90339e-11
2.05805e-11
-5.27134e-11
5.60144e-11
-5.91312e-11
2.37276e-11
-5.90728e-11
6.66586e-11
-7.07952e-11
2.7319e-11
-6.54264e-11
7.84615e-11
-8.40169e-11
3.11627e-11
-7.12458e-11
9.08939e-11
-9.84745e-11
3.45157e-11
-7.5382e-11
1.02476e-10
-1.12686e-10
-7.4495e-11
1.11039e-10
-1.26898e-10
2.22648e-12
-2.69763e-12
2.04659e-12
-2.11318e-12
4.23501e-12
-7.87942e-12
6.02134e-12
-6.22e-12
6.0914e-12
-1.27508e-11
9.88627e-12
-1.02209e-11
7.85454e-12
-1.75238e-11
1.38789e-11
-1.43651e-11
9.58073e-12
-2.23721e-11
1.82106e-11
-1.88765e-11
1.13272e-11
-2.74389e-11
2.30785e-11
-2.39652e-11
1.31562e-11
-3.28412e-11
2.86713e-11
-2.98364e-11
1.51391e-11
-3.86755e-11
3.51737e-11
-3.6695e-11
1.73608e-11
-4.50241e-11
4.27662e-11
-4.47492e-11
1.99258e-11
-5.19638e-11
5.16211e-11
-5.42097e-11
2.29658e-11
-5.95793e-11
6.18924e-11
-6.52877e-11
2.66498e-11
-6.79815e-11
7.36955e-11
-7.81896e-11
3.11785e-11
-7.7321e-11
8.70494e-11
-9.30854e-11
3.67042e-11
-8.77306e-11
1.01683e-10
-1.09969e-10
4.25892e-11
-9.86729e-11
1.16267e-10
-1.27559e-10
-1.09696e-10
1.28441e-10
-1.46963e-10
2.44635e-12
2.23068e-12
-2.30287e-12
-2.79631e-12
4.64984e-12
6.55929e-12
-6.77451e-12
-8.1727e-12
6.67936e-12
1.07569e-11
-1.11189e-11
-1.32412e-11
8.59626e-12
1.50741e-11
-1.55991e-11
-1.82294e-11
1.0459e-11
1.97322e-11
-2.04491e-11
-2.33264e-11
1.23271e-11
2.49353e-11
-2.58869e-11
-2.86926e-11
1.42652e-11
3.08772e-11
-3.21226e-11
-3.44649e-11
1.63492e-11
3.77458e-11
-3.93646e-11
-4.07651e-11
1.8672e-11
4.57245e-11
-4.78239e-11
-4.7708e-11
2.13553e-11
5.49912e-11
-5.77171e-11
-5.54143e-11
2.45682e-11
6.57151e-11
-6.92721e-11
-6.40285e-11
2.85583e-11
7.80518e-11
-8.27391e-11
-7.37496e-11
3.36887e-11
9.2118e-11
-9.83983e-11
-8.48702e-11
4.0413e-11
1.07861e-10
-1.16502e-10
-9.77795e-11
4.8189e-11
1.24139e-10
-1.36019e-10
-1.12035e-10
1.39995e-10
-1.61254e-10
-1.3195e-10
1.98042e-13
-5.14046e-13
1.74639e-13
3.7708e-13
-1.49779e-12
5.14434e-13
5.43298e-13
-2.41183e-12
8.46701e-13
7.021e-13
-3.28938e-12
1.19289e-12
8.58392e-13
-4.15364e-12
1.57215e-12
1.01688e-12
-5.01652e-12
2.002e-12
1.18249e-12
-5.87642e-12
2.49853e-12
1.36113e-12
-6.71396e-12
3.07583e-12
1.56127e-12
-7.48419e-12
3.74448e-12
1.79786e-12
-8.10364e-12
4.50861e-12
2.1013e-12
-8.4283e-12
5.36048e-12
2.53685e-12
-8.21377e-12
6.27103e-12
3.23734e-12
-7.04319e-12
7.17142e-12
4.41866e-12
-4.24368e-12
7.91302e-12
6.1147e-12
7.55484e-13
8.21594e-12
7.56201e-12
7.44598e-12
5.89995e-13
-1.01267e-12
5.1942e-13
1.1233e-12
-2.95125e-12
1.52994e-12
1.61825e-12
-4.7543e-12
2.51776e-12
2.09089e-12
-6.4883e-12
3.54651e-12
2.55576e-12
-8.20066e-12
4.6729e-12
3.02674e-12
-9.91787e-12
5.94889e-12
3.51804e-12
-1.16418e-11
7.42216e-12
4.04583e-12
-1.33425e-11
9.13451e-12
4.63149e-12
-1.49465e-11
1.11174e-11
5.3094e-12
-1.63184e-11
1.33826e-11
6.14448e-12
-1.72373e-11
1.59055e-11
7.26777e-12
-1.73726e-11
1.85944e-11
8.92647e-12
-1.62931e-11
2.12351e-11
1.14673e-11
-1.36269e-11
2.33879e-11
1.47806e-11
-9.70247e-12
2.43302e-11
-6.84914e-12
2.21648e-11
9.69864e-13
-1.48079e-12
8.51102e-13
1.84629e-12
-4.31696e-12
2.50656e-12
2.65923e-12
-6.95899e-12
4.12386e-12
3.43485e-12
-9.50692e-12
5.80663e-12
4.19694e-12
-1.20342e-11
7.64716e-12
4.96803e-12
-1.45864e-11
9.73012e-12
5.77051e-12
-1.7177e-11
1.21334e-11
6.62788e-12
-1.97803e-11
1.49258e-11
7.56671e-12
-2.23187e-11
1.81599e-11
8.62084e-12
-2.46455e-11
2.18572e-11
9.84136e-12
-2.65277e-11
2.59798e-11
1.13146e-11
-2.76442e-11
3.03817e-11
1.31766e-11
-2.76514e-11
3.47226e-11
1.55542e-11
-2.64243e-11
3.83421e-11
1.81522e-11
-2.4549e-11
4.02716e-11
-2.37542e-11
3.88623e-11
1.33016e-12
-1.90314e-12
1.16182e-12
2.53166e-12
-5.55051e-12
3.42093e-12
3.64514e-12
-8.95499e-12
5.62588e-12
4.7062e-12
-1.22499e-11
7.91679e-12
5.74734e-12
-1.55363e-11
1.04184e-11
6.7993e-12
-1.88833e-11
1.32451e-11
7.89203e-12
-2.2325e-11
1.65031e-11
9.055e-12
-2.58547e-11
2.02871e-11
1.03161e-11
-2.94149e-11
2.46726e-11
1.16982e-11
-3.28827e-11
2.96964e-11
1.32136e-11
-3.60546e-11
3.53221e-11
1.48505e-11
-3.86405e-11
4.13773e-11
1.65455e-11
-4.03017e-11
4.74488e-11
1.81384e-11
-4.0805e-11
5.27377e-11
1.9316e-11
-4.03712e-11
5.60711e-11
-4.02567e-11
5.56193e-11
1.66392e-12
-2.26475e-12
1.44461e-12
3.16595e-12
-6.60818e-12
4.25237e-12
4.55617e-12
-1.06715e-11
6.98907e-12
5.87864e-12
-1.462e-11
9.82658e-12
7.17383e-12
-1.85826e-11
1.29176e-11
8.48035e-12
-2.26551e-11
1.64025e-11
9.83603e-12
-2.68985e-11
2.04119e-11
1.12777e-11
-3.13372e-11
2.50648e-11
1.2838e-11
-3.59529e-11
3.046e-11
1.45369e-11
-4.06746e-11
3.66566e-11
1.63631e-11
-4.53638e-11
4.36364e-11
1.82348e-11
-4.97899e-11
5.12353e-11
1.99293e-11
-5.35934e-11
5.90211e-11
2.1019e-11
-5.6252e-11
6.61076e-11
2.10567e-11
-5.72351e-11
7.10827e-11
-5.70636e-11
7.17757e-11
1.96508e-12
-2.55138e-12
1.69387e-12
3.7374e-12
-7.44824e-12
4.98412e-12
5.37491e-12
-1.20405e-11
8.18529e-12
6.92875e-12
-1.6522e-11
1.14951e-11
8.4463e-12
-2.10482e-11
1.50888e-11
9.97344e-12
-2.57411e-11
1.91271e-11
1.15563e-11
-3.06916e-11
2.37604e-11
1.3242e-11
-3.59606e-11
2.91272e-11
1.5076e-11
-4.15791e-11
3.53476e-11
1.70955e-11
-4.7547e-11
4.25053e-11
1.93117e-11
-5.3826e-11
5.06126e-11
2.16684e-11
-6.03188e-11
5.95432e-11
2.39569e-11
-6.68036e-11
6.89002e-11
2.56928e-11
-7.27614e-11
7.77825e-11
2.61699e-11
-7.71267e-11
8.4568e-11
-7.7778e-11
8.6753e-11
2.2287e-12
-2.75024e-12
1.90553e-12
4.23652e-12
-8.03311e-12
5.6042e-12
6.08726e-12
-1.30002e-11
9.19456e-12
7.8373e-12
-1.78685e-11
1.28935e-11
9.53927e-12
-2.28155e-11
1.68923e-11
1.1245e-11
-2.79866e-11
2.13656e-11
1.30081e-11
-3.34993e-11
2.64764e-11
1.48865e-11
-3.94484e-11
3.23759e-11
1.69439e-11
-4.59115e-11
3.9198e-11
1.92499e-11
-5.29565e-11
4.7045e-11
2.18767e-11
-6.06503e-11
5.59581e-11
2.48869e-11
-6.90701e-11
6.5857e-11
2.82935e-11
-7.83e-11
7.64098e-11
3.19505e-11
-8.8342e-11
8.67614e-11
3.51948e-11
-9.85643e-11
9.51327e-11
-1.07689e-10
9.84805e-11
2.45129e-12
2.07735e-12
-2.85078e-12
4.65676e-12
6.10615e-12
-8.33184e-12
6.68362e-12
1.00064e-11
-1.34995e-11
8.59121e-12
1.40072e-11
-1.85865e-11
1.0435e-11
1.83085e-11
-2.37859e-11
1.22702e-11
2.30918e-11
-2.92595e-11
1.41549e-11
2.85244e-11
-3.51443e-11
1.61545e-11
3.47602e-11
-4.15588e-11
1.8346e-11
4.19353e-11
-4.86107e-11
2.08252e-11
5.01555e-11
-5.64065e-11
2.37165e-11
5.94709e-11
-6.5065e-11
2.71872e-11
6.98241e-11
-7.47363e-11
3.14554e-11
8.09311e-11
-8.56187e-11
3.67277e-11
9.20176e-11
-9.79132e-11
4.24513e-11
1.01281e-10
-1.11013e-10
1.04893e-10
-1.26721e-10
1.96594e-13
-5.2274e-13
1.55422e-13
3.73806e-13
-1.52321e-12
4.57655e-13
5.3726e-13
-2.45312e-12
7.52682e-13
6.91661e-13
-3.34655e-12
1.05921e-12
8.40911e-13
-4.22767e-12
1.3937e-12
9.88162e-13
-5.10985e-12
1.77082e-12
1.13585e-12
-5.99383e-12
2.20338e-12
1.28575e-12
-6.86465e-12
2.7015e-12
1.43924e-12
-7.68651e-12
3.27053e-12
1.59859e-12
-8.3953e-12
3.90717e-12
1.77022e-12
-8.88867e-12
4.59242e-12
1.97115e-12
-9.01319e-12
5.2793e-12
2.23426e-12
-8.55129e-12
5.87214e-12
2.58755e-12
-7.23788e-12
6.19878e-12
2.93763e-12
-5.00417e-12
6.03866e-12
-2.13606e-12
5.42229e-12
5.85831e-13
-1.02965e-12
4.62271e-13
1.11387e-12
-3.00091e-12
1.3611e-12
1.60085e-12
-4.83488e-12
2.23825e-12
2.06079e-12
-6.59976e-12
3.1492e-12
2.50534e-12
-8.34476e-12
4.14271e-12
2.94394e-12
-1.00988e-11
5.26228e-12
3.3837e-12
-1.18675e-11
6.54597e-12
3.82915e-12
-1.36282e-11
8.02395e-12
4.28206e-12
-1.5322e-11
9.71261e-12
4.74254e-12
-1.68436e-11
1.16031e-11
5.21361e-12
-1.80335e-11
1.36411e-11
5.70951e-12
-1.86839e-11
1.56924e-11
6.25824e-12
-1.85899e-11
1.74892e-11
6.85201e-12
-1.77165e-11
1.85728e-11
7.27464e-12
-1.6523e-11
1.84169e-11
-1.65113e-11
1.67715e-11
9.63512e-13
-1.50539e-12
7.57499e-13
1.83186e-12
-4.38885e-12
2.23008e-12
2.63251e-12
-7.07556e-12
3.6663e-12
3.38852e-12
-9.66788e-12
5.15655e-12
4.11926e-12
-1.22416e-11
6.78019e-12
4.84048e-12
-1.48448e-11
8.60814e-12
5.56387e-12
-1.74954e-11
1.07028e-11
6.29573e-12
-2.01748e-11
1.31143e-11
7.03417e-12
-2.28204e-11
1.58717e-11
7.76537e-12
-2.53159e-11
1.89652e-11
8.45895e-12
-2.74884e-11
2.2316e-11
9.06086e-12
-2.91304e-11
2.57277e-11
9.47768e-12
-3.00905e-11
2.88174e-11
9.54505e-12
-3.04853e-11
3.09678e-11
9.07462e-12
-3.08974e-11
3.15409e-11
-3.23447e-11
3.06691e-11
1.32244e-12
-1.93447e-12
1.03415e-12
2.514e-12
-5.642e-12
3.04392e-12
3.61221e-12
-9.10313e-12
5.00226e-12
4.64881e-12
-1.24539e-11
7.0314e-12
5.6508e-12
-1.57979e-11
9.23855e-12
6.64061e-12
-1.92065e-11
1.17198e-11
7.63531e-12
-2.27168e-11
1.45603e-11
8.64384e-12
-2.63274e-11
1.78301e-11
9.66089e-12
-2.99913e-11
2.15732e-11
1.06557e-11
-3.36072e-11
2.57863e-11
1.15526e-11
-3.70149e-11
3.03831e-11
1.21981e-11
-4.00074e-11
3.51374e-11
1.23188e-11
-4.23899e-11
3.96114e-11
1.15317e-11
-4.41273e-11
4.31147e-11
9.72373e-12
-4.54974e-11
4.49216e-11
-4.73007e-11
4.51305e-11
1.65583e-12
-2.30169e-12
1.28605e-12
3.14719e-12
-6.716e-12
3.7843e-12
4.52073e-12
-1.08459e-11
6.21534e-12
5.81624e-12
-1.48594e-11
8.72907e-12
7.06819e-12
-1.88881e-11
1.14568e-11
8.30624e-12
-2.30288e-11
1.45165e-11
9.55447e-12
-2.73439e-11
1.80135e-11
1.08281e-11
-3.18591e-11
2.20361e-11
1.21256e-11
-3.6559e-11
2.66445e-11
1.34121e-11
-4.13798e-11
3.18481e-11
1.45889e-11
-4.61993e-11
3.75668e-11
1.54357e-11
-5.08231e-11
4.35699e-11
1.55316e-11
-5.4967e-11
4.93973e-11
1.42534e-11
-5.82515e-11
5.43047e-11
1.13797e-11
-6.03e-11
5.74335e-11
-6.15095e-11
5.87481e-11
1.95763e-12
-2.59266e-12
1.50821e-12
3.71972e-12
-7.56864e-12
4.4363e-12
5.3407e-12
-1.2235e-11
7.2805e-12
6.86743e-12
-1.67884e-11
1.02133e-11
8.34128e-12
-2.13863e-11
1.33853e-11
9.79935e-12
-2.61511e-11
1.6932e-11
1.12744e-11
-3.11726e-11
2.09745e-11
1.27927e-11
-3.65083e-11
2.56163e-11
1.4367e-11
-4.2184e-11
3.0932e-11
1.59828e-11
-4.81902e-11
3.69451e-11
1.75673e-11
-5.44742e-11
4.3588e-11
1.89285e-11
-6.09172e-11
5.0638e-11
1.96559e-11
-6.72712e-11
5.76237e-11
1.90479e-11
-7.30142e-11
6.37398e-11
1.65948e-11
-7.71846e-11
6.79636e-11
-7.79003e-11
7.01935e-11
2.22279e-12
-2.79444e-12
1.69701e-12
4.22185e-12
-8.16196e-12
4.98923e-12
6.0576e-12
-1.32081e-11
8.1799e-12
7.7824e-12
-1.81527e-11
1.14583e-11
9.44334e-12
-2.31749e-11
1.49889e-11
1.10841e-11
-2.84194e-11
1.8919e-11
1.27463e-11
-3.40003e-11
2.33802e-11
1.44694e-11
-4.00056e-11
2.84852e-11
1.62877e-11
-4.65001e-11
3.43177e-11
1.82245e-11
-5.35288e-11
4.09105e-11
2.0275e-11
-6.11185e-11
4.82058e-11
2.23712e-11
-6.92732e-11
5.59865e-11
2.43146e-11
-7.7946e-11
6.37645e-11
2.56854e-11
-8.69275e-11
7.06402e-11
2.59091e-11
-9.54284e-11
7.53501e-11
-1.02109e-10
7.75663e-11
2.44765e-12
1.85041e-12
-2.89636e-12
4.64661e-12
5.43724e-12
-8.46472e-12
6.66107e-12
8.90414e-12
-1.37138e-11
8.54681e-12
1.24509e-11
-1.88792e-11
1.03545e-11
1.625e-11
-2.4155e-11
1.21323e-11
2.04544e-11
-2.97019e-11
1.39282e-11
2.51995e-11
-3.56521e-11
1.57919e-11
3.05998e-11
-4.21147e-11
1.77761e-11
3.67395e-11
-4.91802e-11
1.99377e-11
4.36512e-11
-5.69251e-11
2.23354e-11
5.12769e-11
-6.54152e-11
2.50207e-11
5.93979e-11
-7.4706e-11
2.80133e-11
6.75134e-11
-8.48281e-11
3.12293e-11
7.46688e-11
-9.57055e-11
3.41404e-11
7.94295e-11
-1.06532e-10
8.04822e-11
-1.18316e-10
1.94627e-13
-5.2986e-13
1.30835e-13
3.69506e-13
-1.54403e-12
3.85131e-13
5.29646e-13
-2.48691e-12
6.32985e-13
6.78994e-13
-3.39331e-12
8.8986e-13
8.20376e-13
-4.28828e-12
1.16914e-12
9.55334e-13
-5.18636e-12
1.48239e-12
1.08384e-12
-6.09046e-12
1.83921e-12
1.20375e-12
-6.98982e-12
2.24628e-12
1.31015e-12
-7.85711e-12
2.70538e-12
1.39486e-12
-8.64517e-12
3.20986e-12
1.44657e-12
-9.28485e-12
3.73896e-12
1.45179e-12
-9.68587e-12
4.24992e-12
1.39391e-12
-9.74266e-12
4.66952e-12
1.24408e-12
-9.34984e-12
4.89595e-12
9.66898e-13
-8.47616e-12
4.84985e-12
-6.77904e-12
4.83085e-12
5.80136e-13
-1.04358e-12
3.89168e-13
1.10142e-12
-3.04161e-12
1.14548e-12
1.5788e-12
-4.90086e-12
1.88244e-12
2.02409e-12
-6.69086e-12
2.64588e-12
2.44585e-12
-8.46225e-12
3.47544e-12
2.84892e-12
-1.02459e-11
4.40547e-12
3.23338e-12
-1.2051e-11
5.46451e-12
3.59285e-12
-1.38614e-11
6.67263e-12
3.91174e-12
-1.56315e-11
8.03575e-12
4.16239e-12
-1.72818e-11
9.53543e-12
4.30302e-12
-1.87009e-11
1.1113e-11
4.27735e-12
-1.97634e-11
1.26478e-11
4.01575e-12
-2.03822e-11
1.3937e-11
3.44298e-12
-2.06122e-11
1.47074e-11
2.57772e-12
-2.07328e-11
1.47669e-11
-2.14021e-11
1.41924e-11
9.54682e-13
-1.52557e-12
6.37774e-13
1.81255e-12
-4.44777e-12
1.87701e-12
2.59825e-12
-7.17087e-12
3.08385e-12
3.33145e-12
-9.79891e-12
4.33294e-12
4.02675e-12
-1.24093e-11
5.68878e-12
4.69289e-12
-1.50524e-11
7.20744e-12
5.33108e-12
-1.77492e-11
8.93584e-12
5.93148e-12
-2.04878e-11
1.09078e-11
6.46748e-12
-2.32183e-11
1.31352e-11
6.88754e-12
-2.5849e-11
1.55931e-11
7.10521e-12
-2.82518e-11
1.81962e-11
6.98951e-12
-3.02908e-11
2.07698e-11
6.36919e-12
-3.19035e-11
2.30287e-11
5.10311e-12
-3.32397e-11
2.46116e-11
3.39687e-12
-3.46701e-11
2.52887e-11
-3.66229e-11
2.54138e-11
1.31137e-12
-1.96011e-12
8.7082e-13
2.48973e-12
-5.71679e-12
2.5624e-12
3.56905e-12
-9.22378e-12
4.20825e-12
4.57678e-12
-1.2619e-11
5.90926e-12
5.53399e-12
-1.60073e-11
7.75262e-12
6.45455e-12
-1.94617e-11
9.81437e-12
7.34278e-12
-2.30212e-11
1.21588e-11
8.18857e-12
-2.66881e-11
1.48335e-11
8.95828e-12
-3.04228e-11
1.78592e-11
9.58005e-12
-3.41394e-11
2.12107e-11
9.92154e-12
-3.77057e-11
2.47907e-11
9.76191e-12
-4.09598e-11
2.83974e-11
8.78462e-12
-4.37626e-11
3.1709e-11
6.70162e-12
-4.60989e-11
3.4334e-11
3.8419e-12
-4.81116e-11
3.60078e-11
-5.0188e-11
3.70383e-11
1.64359e-12
-2.33184e-12
1.08313e-12
3.12025e-12
-6.80382e-12
3.18623e-12
4.4726e-12
-1.09871e-11
5.22973e-12
5.73565e-12
-1.50516e-11
7.33735e-12
6.93733e-12
-1.91296e-11
9.61587e-12
8.09798e-12
-2.33184e-11
1.21588e-11
9.22805e-12
-2.76798e-11
1.50456e-11
1.03228e-11
-3.22386e-11
1.83372e-11
1.13515e-11
-3.69784e-11
2.20634e-11
1.22389e-11
-4.1836e-11
2.62042e-11
1.2833e-11
-4.66922e-11
3.0659e-11
1.28564e-11
-5.13593e-11
3.52138e-11
1.18685e-11
-5.5564e-11
3.9525e-11
9.37702e-12
-5.89322e-11
4.31708e-11
5.61217e-12
-6.10534e-11
4.58182e-11
-6.20687e-11
4.76973e-11
1.94533e-12
-2.62622e-12
1.27048e-12
3.69247e-12
-7.66627e-12
3.73592e-12
5.29165e-12
-1.23916e-11
6.12719e-12
6.7848e-12
-1.70004e-11
8.58661e-12
8.2067e-12
-2.16504e-11
1.12368e-11
9.58513e-12
-2.64629e-11
1.41852e-11
1.09394e-11
-3.15242e-11
1.75234e-11
1.22763e-11
-3.68859e-11
2.13226e-11
1.35809e-11
-4.25635e-11
2.5621e-11
1.48004e-11
-4.85315e-11
3.04032e-11
1.5812e-11
-5.47117e-11
3.55681e-11
1.63711e-11
-6.09462e-11
4.08896e-11
1.60503e-11
-6.69325e-11
4.59907e-11
1.42798e-11
-7.20956e-11
5.03851e-11
1.10028e-11
-7.54995e-11
5.36461e-11
-7.53013e-11
5.60276e-11
2.21145e-12
-2.83022e-12
1.42981e-12
4.19644e-12
-8.26597e-12
4.20239e-12
6.01129e-12
-1.33745e-11
6.88551e-12
7.70364e-12
-1.83771e-11
9.63535e-12
9.31428e-12
-2.34525e-11
1.25859e-11
1.08782e-11
-2.87427e-11
1.58542e-11
1.24246e-11
-3.43562e-11
1.95397e-11
1.39749e-11
-4.03704e-11
2.37196e-11
1.55385e-11
-4.68321e-11
2.84366e-11
1.71033e-11
-5.37566e-11
3.36766e-11
1.86178e-11
-6.11217e-11
3.93338e-11
1.99592e-11
-6.88521e-11
4.51622e-11
2.08975e-11
-7.67811e-11
5.07291e-11
2.11058e-11
-8.45576e-11
5.54238e-11
2.04316e-11
-9.14022e-11
5.86508e-11
-9.61731e-11
6.0669e-11
2.43809e-12
1.55935e-12
-2.93313e-12
4.62479e-12
4.58063e-12
-8.57154e-12
6.62048e-12
7.49665e-12
-1.38845e-11
8.47662e-12
1.04724e-11
-1.91087e-11
1.02383e-11
1.36485e-11
-2.44374e-11
1.19458e-11
1.71466e-11
-3.00277e-11
1.36363e-11
2.10691e-11
-3.60046e-11
1.5344e-11
2.5494e-11
-4.24638e-11
1.70996e-11
3.04629e-11
-4.94733e-11
1.89293e-11
3.5958e-11
-5.70729e-11
2.08488e-11
4.18649e-11
-6.5269e-11
2.28552e-11
4.79173e-11
-7.40236e-11
2.49202e-11
5.36318e-11
-8.32307e-11
2.69972e-11
5.82854e-11
-9.26587e-11
2.89069e-11
6.11119e-11
-1.01554e-10
6.1825e-11
-1.11117e-10
1.9249e-13
-5.35387e-13
1.01884e-13
3.64908e-13
-1.56017e-12
2.99816e-13
5.21675e-13
-2.5131e-12
4.92488e-13
6.66022e-13
-3.42958e-12
6.91768e-13
7.99782e-13
-4.33523e-12
9.07759e-13
9.23102e-13
-5.24544e-12
1.14894e-12
1.03395e-12
-6.1647e-12
1.42201e-12
1.12728e-12
-7.08534e-12
1.73107e-12
1.19407e-12
-7.98591e-12
2.07612e-12
1.22042e-12
-8.82993e-12
2.4505e-12
1.18755e-12
-9.56636e-12
2.83756e-12
1.0735e-12
-1.01323e-11
3.20736e-12
8.57049e-13
-1.04545e-11
3.51645e-12
5.2576e-13
-1.04384e-11
3.71783e-12
1.16464e-13
-9.96691e-12
3.78874e-12
-8.42429e-12
4.00786e-12
5.73935e-13
-1.05443e-12
3.03069e-13
1.08808e-12
-3.0733e-12
8.91807e-13
1.55566e-12
-4.95218e-12
1.46476e-12
1.9864e-12
-6.76155e-12
2.05707e-12
2.38604e-12
-8.55299e-12
2.69867e-12
2.7554e-12
-1.03588e-11
3.41475e-12
3.0889e-12
-1.21904e-11
4.22523e-12
3.37207e-12
-1.40367e-11
5.1426e-12
3.57814e-12
-1.58607e-11
6.16733e-12
3.66472e-12
-1.75986e-11
7.28076e-12
3.57257e-12
-1.91641e-11
8.43564e-12
3.23062e-12
-2.04639e-11
9.54709e-12
2.57639e-12
-2.14327e-11
1.04923e-11
1.61331e-12
-2.20809e-11
1.11377e-11
5.6196e-13
-2.25018e-11
1.14175e-11
-2.30317e-11
1.1316e-11
9.45008e-13
-1.54133e-12
4.96732e-13
1.79172e-12
-4.49374e-12
1.46154e-12
2.56209e-12
-7.24501e-12
2.39997e-12
3.27252e-12
-9.90029e-12
3.3692e-12
3.93324e-12
-1.2538e-11
4.41789e-12
4.54696e-12
-1.52096e-11
5.58723e-12
5.10635e-12
-1.79385e-11
6.91012e-12
5.58981e-12
-2.07167e-11
8.40774e-12
5.95515e-12
-2.3502e-11
1.00828e-11
6.13202e-12
-2.62165e-11
1.19086e-11
6.0157e-12
-2.87522e-11
1.38158e-11
5.47071e-12
-3.09955e-11
1.56803e-11
4.36975e-12
-3.28862e-11
1.73274e-11
2.72933e-12
-3.45052e-11
1.85758e-11
1.02276e-12
-3.60508e-11
1.93359e-11
-3.77715e-11
1.97538e-11
1.29909e-12
-1.98015e-12
6.78352e-13
2.46328e-12
-5.7751e-12
1.99556e-12
3.52303e-12
-9.31741e-12
3.27561e-12
4.5017e-12
-1.27459e-11
4.59569e-12
5.41494e-12
-1.61663e-11
6.02157e-12
6.26915e-12
-1.96519e-11
7.60921e-12
7.05841e-12
-2.32425e-11
9.40379e-12
7.75883e-12
-2.69415e-11
1.14355e-11
8.31948e-12
-3.07123e-11
1.37111e-11
8.64967e-12
-3.44743e-11
1.62012e-11
8.60379e-12
-3.8103e-11
1.88237e-11
7.97287e-12
-4.14413e-11
2.14331e-11
6.52082e-12
-4.43369e-11
2.38312e-11
4.16936e-12
-4.6713e-11
2.58223e-11
1.51637e-12
-4.86045e-11
2.72936e-11
-5.03147e-11
2.83341e-11
1.62975e-12
-2.35535e-12
8.43898e-13
3.09035e-12
-6.87209e-12
2.48187e-12
4.42046e-12
-1.10962e-11
4.07148e-12
5.65047e-12
-1.51983e-11
5.70734e-12
6.80231e-12
-1.93108e-11
7.47004e-12
7.88818e-12
-2.35302e-11
9.42842e-12
8.90756e-12
-2.79165e-11
1.16386e-11
9.8413e-12
-3.24913e-11
1.41389e-11
1.06416e-11
-3.72339e-11
1.69412e-11
1.12163e-11
-4.20745e-11
2.00157e-11
1.14058e-11
-4.68836e-11
2.32733e-11
1.09578e-11
-5.14566e-11
2.65539e-11
9.53598e-12
-5.54903e-11
2.96396e-11
6.88567e-12
-5.85648e-11
3.23148e-11
3.49496e-12
-6.02442e-11
3.44271e-11
-6.06795e-11
3.6013e-11
1.93098e-12
-2.6523e-12
9.9006e-13
3.66138e-12
-7.74187e-12
2.9106e-12
5.23726e-12
-1.25118e-11
4.77106e-12
6.69575e-12
-1.71609e-11
6.68028e-12
8.0655e-12
-2.18461e-11
8.73086e-12
9.36608e-12
-2.66863e-11
1.10019e-11
1.06059e-11
-3.17634e-11
1.35581e-11
1.17779e-11
-3.71212e-11
1.64444e-11
1.2851e-11
-4.27627e-11
1.96759e-11
1.37573e-11
-4.86429e-11
2.32226e-11
1.43699e-11
-5.46545e-11
2.69878e-11
1.4474e-11
-6.05975e-11
3.07917e-11
1.37526e-11
-6.61173e-11
3.43801e-11
1.18804e-11
-7.06004e-11
3.74867e-11
9.05681e-12
-7.31738e-11
3.99137e-11
-7.22122e-11
4.17432e-11
2.1976e-12
-2.85793e-12
1.11441e-12
4.16629e-12
-8.34616e-12
3.2746e-12
5.95826e-12
-1.35017e-11
5.36248e-12
7.61645e-12
-1.85457e-11
7.49754e-12
9.17578e-12
-2.36557e-11
9.78109e-12
1.06635e-11
-2.897e-11
1.22993e-11
1.20984e-11
-3.45901e-11
1.51224e-11
1.34893e-11
-4.05817e-11
1.82986e-11
1.48306e-11
-4.69725e-11
2.18444e-11
1.60967e-11
-5.37482e-11
2.57264e-11
1.72315e-11
-6.0842e-11
2.98367e-11
1.81382e-11
-6.81164e-11
3.39672e-11
1.86845e-11
-7.53318e-11
3.78042e-11
1.87686e-11
-8.20952e-11
4.0981e-11
1.84942e-11
-8.77556e-11
4.32121e-11
-9.1528e-11
4.46695e-11
2.42558e-12
1.21558e-12
-2.96151e-12
4.59734e-12
3.5699e-12
-8.65357e-12
6.57177e-12
5.8394e-12
-1.40143e-11
8.396e-12
8.15041e-12
-1.928e-11
1.01097e-11
1.06093e-11
-2.46421e-11
1.17462e-11
1.33059e-11
-3.02532e-11
1.33334e-11
1.63121e-11
-3.62296e-11
1.48941e-11
1.96765e-11
-4.2653e-11
1.64459e-11
2.34133e-11
-4.95688e-11
1.8002e-11
2.74836e-11
-5.6982e-11
1.95722e-11
3.17675e-11
-6.48487e-11
2.11698e-11
3.603e-11
-7.3064e-11
2.28387e-11
3.99014e-11
-8.14491e-11
2.47103e-11
4.29141e-11
-8.97439e-11
2.68353e-11
4.46785e-11
-9.73694e-11
4.51111e-11
-1.05879e-10
1.90524e-13
-5.39356e-13
6.96525e-14
3.60721e-13
-1.57178e-12
2.04922e-13
5.14516e-13
-2.532e-12
3.36483e-13
6.54537e-13
-3.4558e-12
4.72364e-13
7.81838e-13
-4.36912e-12
6.19304e-13
8.95516e-13
-5.28779e-12
7.82826e-13
9.92173e-13
-6.21724e-12
9.67111e-13
1.06507e-12
-7.15162e-12
1.17449e-12
1.10328e-12
-8.0726e-12
1.40444e-12
1.09137e-12
-8.94858e-12
1.65209e-12
1.01054e-12
-9.73486e-12
1.90678e-12
8.42729e-13
-1.03736e-11
2.15109e-12
5.78613e-13
-1.07876e-11
2.36242e-12
2.284e-13
-1.08556e-11
2.5197e-12
-1.52516e-13
-1.04051e-11
2.61179e-12
-8.76837e-12
2.8323e-12
5.6823e-13
-1.0623e-12
2.07208e-13
1.07593e-12
-3.09631e-12
6.09616e-13
1.53485e-12
-4.98946e-12
1.0009e-12
1.953e-12
-6.81281e-12
1.40483e-12
2.33385e-12
-8.61842e-12
1.84133e-12
2.67524e-12
-1.04393e-11
2.32683e-12
2.96774e-12
-1.22883e-11
2.87383e-12
3.19217e-12
-1.41567e-11
3.48941e-12
3.31678e-12
-1.60121e-11
4.17234e-12
3.29577e-12
-1.77972e-11
4.90895e-12
3.07194e-12
-1.94327e-11
5.66866e-12
2.58962e-12
-2.0827e-11
6.40138e-12
1.82711e-12
-2.18953e-11
7.04124e-12
8.59347e-13
-2.25854e-11
7.52275e-12
-4.85957e-14
-2.28992e-11
7.80541e-12
-2.31211e-11
7.82446e-12
9.36086e-13
-1.55284e-12
3.39666e-13
1.7727e-12
-4.52728e-12
9.99243e-13
2.52947e-12
-7.29901e-12
1.64026e-12
3.22011e-12
-9.97372e-12
2.30131e-12
3.85138e-12
-1.26302e-11
3.01481e-12
4.42147e-12
-1.53206e-11
3.80764e-12
4.91732e-12
-1.80691e-11
4.70049e-12
5.31056e-12
-2.08695e-11
5.7055e-12
5.55251e-12
-2.36826e-11
6.82189e-12
5.56996e-12
-2.64345e-11
8.0297e-12
5.26598e-12
-2.90196e-11
9.2833e-12
4.5369e-12
-3.1318e-11
1.05083e-11
3.32899e-12
-3.3238e-11
1.16087e-11
1.7731e-12
-3.47877e-11
1.24898e-11
3.83517e-13
-3.60901e-11
1.3087e-11
-3.74077e-11
1.34259e-11
1.28771e-12
-1.99482e-12
4.63939e-13
2.43896e-12
-5.81773e-12
1.36461e-12
3.48128e-12
-9.38553e-12
2.23915e-12
4.43457e-12
-1.28375e-11
3.13958e-12
5.31017e-12
-1.62793e-11
4.10976e-12
6.10896e-12
-1.97842e-11
5.18624e-12
6.81811e-12
-2.33916e-11
6.39751e-12
7.40599e-12
-2.7104e-11
7.76096e-12
7.81514e-12
-3.08841e-11
9.27746e-12
7.9543e-12
-3.46494e-11
1.09238e-11
7.69304e-12
-3.82697e-11
1.26449e-11
6.87056e-12
-4.1573e-11
1.43519e-11
5.35151e-12
-4.43724e-11
1.59332e-11
3.19728e-12
-4.65311e-11
1.72838e-11
1.02156e-12
-4.80477e-11
1.83189e-11
-4.92831e-11
1.90202e-11
1.61677e-12
-2.37256e-12
5.77267e-13
3.06261e-12
-6.92193e-12
1.69748e-12
4.37274e-12
-1.11753e-11
2.78369e-12
5.5737e-12
-1.53034e-11
3.89964e-12
6.68264e-12
-1.94382e-11
5.09907e-12
7.70569e-12
-2.36749e-11
6.42704e-12
8.63496e-12
-2.80709e-11
7.91888e-12
9.44345e-12
-3.26439e-11
9.5968e-12
1.00776e-11
-3.73667e-11
1.14636e-11
1.04471e-11
-4.21597e-11
1.34944e-11
1.04137e-11
-4.68782e-11
1.56272e-11
9.78513e-12
-5.12944e-11
1.77605e-11
8.3429e-12
-5.50726e-11
1.97677e-11
5.98548e-12
-5.77597e-11
2.1529e-11
3.19471e-12
-5.89361e-11
2.29341e-11
-5.88515e-11
2.39359e-11
1.91734e-12
-2.67135e-12
6.77369e-13
3.63215e-12
-7.79689e-12
1.99104e-12
5.18688e-12
-1.25987e-11
3.2625e-12
6.61463e-12
-1.72751e-11
4.56509e-12
7.93912e-12
-2.1982e-11
5.96059e-12
9.17381e-12
-2.68359e-11
7.5008e-12
1.03198e-11
-3.19137e-11
9.22644e-12
1.13624e-11
-3.72516e-11
1.11633e-11
1.22657e-11
-4.28405e-11
1.33153e-11
1.29652e-11
-4.86175e-11
1.56551e-11
1.3358e-11
-5.44502e-11
1.81126e-11
1.32933e-11
-6.01077e-11
2.05684e-11
1.25775e-11
-6.5206e-11
2.28677e-11
1.10426e-11
-6.91286e-11
2.4857e-11
8.876e-12
-7.10825e-11
2.64057e-11
-6.96474e-11
2.75091e-11
2.18416e-12
-2.87812e-12
7.62562e-13
4.1374e-12
-8.40433e-12
2.24037e-12
5.90831e-12
-1.3593e-11
3.66743e-12
7.53588e-12
-1.86648e-11
5.1243e-12
9.05025e-12
-2.37953e-11
6.67863e-12
1.04727e-11
-2.91191e-11
8.38689e-12
1.18154e-11
-3.47313e-11
1.02931e-11
1.30798e-11
-4.06864e-11
1.24248e-11
1.42561e-11
-4.69958e-11
1.47856e-11
1.5322e-11
-5.36209e-11
1.7344e-11
1.62442e-11
-6.04625e-11
2.00187e-11
1.69852e-11
-6.73464e-11
2.26663e-11
1.75286e-11
-7.40058e-11
2.50873e-11
1.79243e-11
-8.00672e-11
2.70644e-11
1.82762e-11
-8.50103e-11
2.84259e-11
-8.83037e-11
2.92552e-11
2.41307e-12
8.31881e-13
-2.98211e-12
4.57033e-12
2.44268e-12
-8.71288e-12
6.52487e-12
3.99409e-12
-1.41071e-11
8.32009e-12
5.5713e-12
-1.94002e-11
9.99124e-12
7.24544e-12
-2.47813e-11
1.15663e-11
9.0753e-12
-3.03986e-11
1.30669e-11
1.11061e-11
-3.63605e-11
1.45092e-11
1.3365e-11
-4.27361e-11
1.59069e-11
1.58535e-11
-4.95517e-11
1.72753e-11
1.85353e-11
-5.67853e-11
1.86424e-11
2.1318e-11
-6.43586e-11
2.00703e-11
2.40361e-11
-7.21301e-11
2.16991e-11