/*--------------------------------*- C++ -*----------------------------------*\
| =========                 |                                                 |
| \\      /  F ield         | OpenFOAM: The Open Source CFD Toolbox           |
|  \\    /   O peration     | Version:  v1912                                 |
|   \\  /    A nd           | Website:  www.openfoam.com                      |
|    \\/     M anipulation  |                                                 |
\*---------------------------------------------------------------------------*/
FoamFile
{
    version     2.0;
    format      ascii;
    class       pointVectorField;
    location    "0.48/fluid";
    object      pointMotionU;
}
// * * * * * * * * * * * * * * * * * * * * * * * * * * * * * * * * * * * * * //

dimensions      [0 1 -1 0 0 0 0];


internalField   nonuniform List<vector> 
16859
(
(0 0 0)
(0 0 0)
(0 0 0)
(0 0 0)
(0 0 0)
(0 0 0)
(0 0 0)
(0 0 0)
(0 0 0)
(0 0 0)
(0 0 0)
(0 0 0)
(0 0 0)
(0 0 0)
(0 0 0)
(0 0 0)
(2.35154e-08 3.97378e-08 2.30321e-08)
(0 0 0)
(6.35908e-10 -1.41784e-09 1.10242e-09)
(1.21279e-09 -2.7131e-09 2.14789e-09)
(1.75229e-09 -3.9375e-09 3.21115e-09)
(2.274e-09 -5.1291e-09 4.3584e-09)
(2.79699e-09 -6.31079e-09 5.65112e-09)
(3.34165e-09 -7.48786e-09 7.14871e-09)
(3.93249e-09 -8.643e-09 8.90967e-09)
(4.60262e-09 -9.72584e-09 1.09917e-08)
(5.40299e-09 -1.06344e-08 1.34512e-08)
(6.42264e-09 -1.11818e-08 1.63452e-08)
(7.83211e-09 -1.10332e-08 1.97427e-08)
(9.9811e-09 -9.57638e-09 2.37685e-08)
(1.35914e-08 -5.65447e-09 2.87331e-08)
(2.00125e-08 2.86797e-09 3.5397e-08)
(2.99824e-08 1.75313e-08 4.42377e-08)
(4.75774e-08 4.79341e-08 5.58751e-08)
(0 0 0)
(1.25801e-09 -2.79378e-09 2.17674e-09)
(2.39882e-09 -5.34786e-09 4.24032e-09)
(3.46476e-09 -7.76528e-09 6.33748e-09)
(4.49409e-09 -1.01226e-08 8.59791e-09)
(5.524e-09 -1.24688e-08 1.11425e-08)
(6.59388e-09 -1.48203e-08 1.40878e-08)
(7.74949e-09 -1.7153e-08 1.75483e-08)
(9.04989e-09 -1.9385e-08 2.16357e-08)
(1.05798e-08 -2.13485e-08 2.64559e-08)
(1.24741e-08 -2.27433e-08 3.21046e-08)
(1.49656e-08 -2.30661e-08 3.86644e-08)
(1.84778e-08 -2.1512e-08 4.62203e-08)
(2.37423e-08 -1.69066e-08 5.48995e-08)
(3.17508e-08 -7.95944e-09 6.48763e-08)
(4.19453e-08 4.26658e-09 7.51862e-08)
(6.17356e-08 2.12919e-08 9.23039e-08)
(0 0 0)
(1.85337e-09 -4.08617e-09 3.19671e-09)
(3.53312e-09 -7.82572e-09 6.22555e-09)
(5.10061e-09 -1.13726e-08 9.30018e-09)
(6.61129e-09 -1.48437e-08 1.26093e-08)
(8.11894e-09 -1.83184e-08 1.63291e-08)
(9.67963e-09 -2.18341e-08 2.06296e-08)
(1.13565e-08 -2.53769e-08 2.56773e-08)
(1.32265e-08 -2.88636e-08 3.16351e-08)
(1.53897e-08 -3.21126e-08 3.86554e-08)
(1.79851e-08 -3.48003e-08 4.68656e-08)
(2.12173e-08 -3.64058e-08 5.63452e-08)
(2.54e-08 -3.61677e-08 6.70962e-08)
(3.09834e-08 -3.31546e-08 7.89996e-08)
(3.84354e-08 -2.6719e-08 9.17283e-08)
(4.69375e-08 -1.83438e-08 1.03684e-07)
(6.26097e-08 -6.94316e-09 1.20631e-07)
(0 0 0)
(2.4098e-09 -5.25256e-09 4.13815e-09)
(4.59204e-09 -1.00659e-08 8.05572e-09)
(6.62493e-09 -1.46438e-08 1.20262e-08)
(8.57908e-09 -1.91444e-08 1.62907e-08)
(1.05228e-08 -2.36823e-08 2.10745e-08)
(1.25265e-08 -2.83256e-08 2.65949e-08)
(1.46679e-08 -3.30886e-08 3.30658e-08)
(1.7037e-08 -3.79175e-08 4.06979e-08)
(1.97419e-08 -4.26666e-08 4.96907e-08)
(2.29112e-08 -4.7063e-08 6.02115e-08)
(2.66965e-08 -5.06604e-08 7.23579e-08)
(3.1265e-08 -5.27974e-08 8.60922e-08)
(3.67505e-08 -5.26225e-08 1.01117e-07)
(4.3124e-08 -4.93559e-08 1.16662e-07)
(4.94576e-08 -4.36054e-08 1.30339e-07)
(6.138e-08 -3.30415e-08 1.4717e-07)
(0 0 0)
(2.9166e-09 -6.25138e-09 4.98073e-09)
(5.55492e-09 -1.19885e-08 9.69065e-09)
(8.0072e-09 -1.74624e-08 1.44539e-08)
(1.03566e-08 -2.28718e-08 1.9556e-08)
(1.26836e-08 -2.8369e-08 2.52625e-08)
(1.50707e-08 -3.40599e-08 3.18299e-08)
(1.76083e-08 -4.00008e-08 3.95122e-08)
(2.03996e-08 -4.61913e-08 4.85625e-08)
(2.35646e-08 -5.25599e-08 5.92284e-08)
(2.72378e-08 -5.89408e-08 7.17317e-08)
(3.15611e-08 -6.50351e-08 8.62342e-08)
(3.66522e-08 -7.03445e-08 1.02762e-07)
(4.25099e-08 -7.40629e-08 1.21037e-07)
(4.88296e-08 -7.49586e-08 1.40115e-07)
(5.44129e-08 -7.20683e-08 1.56788e-07)
(6.42375e-08 -6.04332e-08 1.75207e-07)
(0 0 0)
(3.36504e-09 -7.04316e-09 5.70893e-09)
(6.40491e-09 -1.35175e-08 1.10997e-08)
(9.2225e-09 -1.97158e-08 1.65368e-08)
(1.19105e-08 -2.58744e-08 2.23395e-08)
(1.45582e-08 -3.21821e-08 2.88038e-08)
(1.72577e-08 -3.87846e-08 3.6215e-08)
(2.011e-08 -4.57862e-08 4.48557e-08)
(2.32318e-08 -5.32511e-08 5.50118e-08)
(2.67622e-08 -6.12019e-08 6.69714e-08)
(3.08679e-08 -6.9615e-08 8.10168e-08)
(3.57481e-08 -7.84061e-08 9.74078e-08)
(4.16299e-08 -8.73871e-08 1.16342e-07)
(4.87049e-08 -9.61256e-08 1.37822e-07)
(5.69118e-08 -1.03585e-07 1.61237e-07)
(6.48156e-08 -1.07563e-07 1.8292e-07)
(7.67465e-08 -9.81418e-08 2.06996e-07)
(0 0 0)
(3.74867e-09 -7.5925e-09 6.31271e-09)
(7.12975e-09 -1.4584e-08 1.22635e-08)
(1.02529e-08 -2.13013e-08 1.82452e-08)
(1.32165e-08 -2.80113e-08 2.46001e-08)
(1.61151e-08 -3.49346e-08 3.16427e-08)
(1.9046e-08 -4.22523e-08 3.96741e-08)
(2.21165e-08 -5.01127e-08 4.89912e-08)
(2.54529e-08 -5.86399e-08 5.98952e-08)
(2.92114e-08 -6.79436e-08 7.26947e-08)
(3.35947e-08 -7.81343e-08 8.77098e-08)
(3.88818e-08 -8.93462e-08 1.0528e-07)
(4.54771e-08 -1.01768e-07 1.25782e-07)
(5.39636e-08 -1.15656e-07 1.49607e-07)
(6.50553e-08 -1.31182e-07 1.76934e-07)
(7.78316e-08 -1.46574e-07 2.04578e-07)
(1.01455e-07 -1.64481e-07 2.41562e-07)
(0 0 0)
(4.06383e-09 -7.8702e-09 6.78807e-09)
(7.72297e-09 -1.51317e-08 1.31751e-08)
(1.10895e-08 -2.21338e-08 1.957e-08)
(1.42632e-08 -2.9165e-08 2.6326e-08)
(1.73393e-08 -3.64681e-08 3.3764e-08)
(2.04151e-08 -4.42503e-08 4.2187e-08)
(2.3597e-08 -5.26916e-08 5.18895e-08)
(2.70107e-08 -6.19569e-08 6.31648e-08)
(3.08129e-08 -7.22102e-08 7.63101e-08)
(3.52115e-08 -8.36356e-08 9.16317e-08)
(4.04997e-08 -9.64708e-08 1.09459e-07)
(4.71094e-08 -1.11061e-07 1.30172e-07)
(5.56673e-08 -1.27924e-07 1.54217e-07)
(6.6936e-08 -1.4773e-07 1.8201e-07)
(7.96754e-08 -1.68518e-07 2.10279e-07)
(1.16262e-07 -2.09456e-07 2.60939e-07)
(0 0 0)
(0 0 0)
(0 0 0)
(0 0 0)
(0 0 0)
(0 0 0)
(0 0 0)
(0 0 0)
(0 0 0)
(0 0 0)
(0 0 0)
(0 0 0)
(0 0 0)
(0 0 0)
(0 0 0)
(0 0 0)
(1.24833e-08 1.9813e-08 1.02536e-08)
(0 0 0)
(6.35496e-10 -1.44871e-09 1.0675e-09)
(1.21078e-09 -2.77226e-09 2.07828e-09)
(1.74646e-09 -4.02405e-09 3.10352e-09)
(2.26087e-09 -5.24387e-09 4.20601e-09)
(2.77116e-09 -6.45636e-09 5.44362e-09)
(3.2947e-09 -7.66863e-09 6.87128e-09)
(3.85108e-09 -8.86578e-09 8.54148e-09)
(4.46552e-09 -1.00016e-08 1.05033e-08)
(5.17623e-09 -1.09819e-08 1.27996e-08)
(6.05142e-09 -1.16365e-08 1.54637e-08)
(7.22814e-09 -1.16657e-08 1.85182e-08)
(8.99995e-09 -1.05341e-08 2.19887e-08)
(1.19835e-08 -7.25717e-09 2.59492e-08)
(1.72827e-08 -1.32932e-10 3.05773e-08)
(2.544e-08 1.19492e-08 3.56364e-08)
(3.42946e-08 2.76345e-08 3.75268e-08)
(0 0 0)
(1.25752e-09 -2.85417e-09 2.10758e-09)
(2.3956e-09 -5.46361e-09 4.10255e-09)
(3.45467e-09 -7.93489e-09 6.12479e-09)
(4.47065e-09 -1.0348e-08 8.29736e-09)
(5.47716e-09 -1.27548e-08 1.0734e-08)
(6.50789e-09 -1.51754e-08 1.35425e-08)
(7.59952e-09 -1.75895e-08 1.68258e-08)
(8.79648e-09 -1.99224e-08 2.06795e-08)
(1.01599e-08 -2.20196e-08 2.51852e-08)
(1.17869e-08 -2.36084e-08 3.03977e-08)
(1.38516e-08 -2.42428e-08 3.63277e-08)
(1.66875e-08 -2.32383e-08 4.29199e-08)
(2.08973e-08 -1.96655e-08 5.00244e-08)
(2.73053e-08 -1.27187e-08 5.73048e-08)
(3.56481e-08 -3.59224e-09 6.3746e-08)
(4.48537e-08 1.59282e-09 6.87712e-08)
(0 0 0)
(1.85358e-09 -4.17391e-09 3.09503e-09)
(3.53039e-09 -7.99405e-09 6.02317e-09)
(5.08938e-09 -1.16197e-08 8.9882e-09)
(6.58285e-09 -1.51723e-08 1.21693e-08)
(8.05985e-09 -1.87355e-08 1.57322e-08)
(9.56892e-09 -2.23512e-08 1.98341e-08)
(1.11612e-08 -2.60102e-08 2.46257e-08)
(1.28942e-08 -2.96377e-08 3.02476e-08)
(1.48369e-08 -3.30668e-08 3.68202e-08)
(1.70784e-08 -3.60038e-08 4.44209e-08)
(1.97464e-08 -3.79897e-08 5.30481e-08)
(2.30398e-08 -3.83899e-08 6.25619e-08)
(2.7259e-08 -3.65233e-08 7.25942e-08)
(3.27385e-08 -3.2198e-08 8.24127e-08)
(3.90723e-08 -2.70048e-08 9.05716e-08)
(4.50213e-08 -2.50774e-08 9.58212e-08)
(0 0 0)
(2.41175e-09 -5.3648e-09 4.00662e-09)
(4.59213e-09 -1.02814e-08 7.79417e-09)
(6.61667e-09 -1.49604e-08 1.16236e-08)
(8.5525e-09 -1.95658e-08 1.5724e-08)
(1.04626e-08 -2.42171e-08 2.03071e-08)
(1.24093e-08 -2.89872e-08 2.55743e-08)
(1.44567e-08 -3.38955e-08 3.17199e-08)
(1.66737e-08 -3.88955e-08 3.89277e-08)
(1.91332e-08 -4.38541e-08 4.73599e-08)
(2.19087e-08 -4.85224e-08 5.71295e-08)
(2.50639e-08 -5.25028e-08 6.82506e-08)
(2.86303e-08 -5.52313e-08 8.05519e-08)
(3.25574e-08 -5.60452e-08 9.35199e-08)
(3.66541e-08 -5.45099e-08 1.06044e-07)
(4.04206e-08 -5.13615e-08 1.1598e-07)
(4.35375e-08 -4.98348e-08 1.21466e-07)
(0 0 0)
(2.92144e-09 -6.38458e-09 4.82279e-09)
(5.56031e-09 -1.22445e-08 9.37691e-09)
(8.00623e-09 -1.78386e-08 1.39717e-08)
(1.03391e-08 -2.33726e-08 1.88783e-08)
(1.2634e-08 -2.90043e-08 2.43466e-08)
(1.49658e-08 -3.48443e-08 3.06149e-08)
(1.74118e-08 -4.09536e-08 3.79141e-08)
(2.00548e-08 -4.73368e-08 4.64675e-08)
(2.29811e-08 -5.39306e-08 5.64809e-08)
(2.62724e-08 -6.05829e-08 6.81184e-08)
(2.99833e-08 -6.70205e-08 8.14545e-08)
(3.40896e-08 -7.2792e-08 9.63822e-08)
(3.83768e-08 -7.71729e-08 1.12415e-07)
(4.22971e-08 -7.90759e-08 1.28283e-07)
(4.49637e-08 -7.76281e-08 1.41124e-07)
(4.57888e-08 -7.4911e-08 1.48171e-07)
(0 0 0)
(3.37377e-09 -7.19302e-09 5.52858e-09)
(6.41777e-09 -1.38055e-08 1.07418e-08)
(9.23264e-09 -2.01395e-08 1.59875e-08)
(1.19082e-08 -2.64384e-08 2.1569e-08)
(1.45293e-08 -3.28973e-08 2.7765e-08)
(1.71813e-08 -3.96665e-08 3.48404e-08)
(1.99543e-08 -4.68538e-08 4.30534e-08)
(2.29479e-08 -5.45265e-08 5.26571e-08)
(2.62738e-08 -6.27103e-08 6.38954e-08)
(3.00556e-08 -7.13857e-08 7.69875e-08)
(3.44226e-08 -8.04741e-08 9.20989e-08)
(3.94851e-08 -8.97917e-08 1.09278e-07)
(4.52502e-08 -9.88991e-08 1.28284e-07)
(5.1403e-08 -1.067e-07 1.48103e-07)
(5.67088e-08 -1.10992e-07 1.65465e-07)
(5.74069e-08 -1.07097e-07 1.76928e-07)
(0 0 0)
(3.76201e-09 -7.75401e-09 6.11424e-09)
(7.15163e-09 -1.48946e-08 1.18701e-08)
(1.02769e-08 -2.17582e-08 1.76424e-08)
(1.32339e-08 -2.86199e-08 2.37563e-08)
(1.6114e-08 -3.57064e-08 3.0508e-08)
(1.90092e-08 -4.32033e-08 3.81776e-08)
(2.20191e-08 -5.12616e-08 4.70366e-08)
(2.52574e-08 -6.00064e-08 5.73521e-08)
(2.88618e-08 -6.9547e-08 6.93874e-08)
(3.30067e-08 -7.99914e-08 8.33963e-08)
(3.79284e-08 -9.14682e-08 9.96163e-08)
(4.39667e-08 -1.04156e-07 1.18252e-07)
(5.16236e-08 -1.1829e-07 1.39401e-07)
(6.15369e-08 -1.33961e-07 1.62678e-07)
(7.32158e-08 -1.49621e-07 1.85183e-07)
(8.38616e-08 -1.63371e-07 2.03114e-07)
(0 0 0)
(4.08211e-09 -8.0377e-09 6.57586e-09)
(7.7546e-09 -1.5454e-08 1.27549e-08)
(1.11286e-08 -2.26084e-08 1.89273e-08)
(1.43024e-08 -2.97976e-08 2.54286e-08)
(1.73692e-08 -3.72709e-08 3.25612e-08)
(2.04229e-08 -4.52395e-08 4.06072e-08)
(2.3565e-08 -5.38857e-08 4.98357e-08)
(2.69135e-08 -6.33738e-08 6.05072e-08)
(3.06145e-08 -7.38647e-08 7.28747e-08)
(3.48611e-08 -8.55351e-08 8.71802e-08)
(3.99268e-08 -9.86096e-08 1.03653e-07)
(4.62197e-08 -1.13412e-07 1.22506e-07)
(5.43534e-08 -1.3042e-07 1.4389e-07)
(6.51154e-08 -1.50183e-07 1.67642e-07)
(7.76877e-08 -1.70924e-07 1.90712e-07)
(1.0124e-07 -2.01752e-07 2.17407e-07)
(0 0 0)
(0 0 0)
(0 0 0)
(0 0 0)
(0 0 0)
(0 0 0)
(0 0 0)
(0 0 0)
(0 0 0)
(0 0 0)
(0 0 0)
(0 0 0)
(0 0 0)
(0 0 0)
(0 0 0)
(0 0 0)
(4.23689e-09 7.83008e-09 2.58375e-09)
(0 0 0)
(6.31972e-10 -1.47564e-09 9.93509e-10)
(1.20253e-09 -2.82412e-09 1.93306e-09)
(1.73063e-09 -4.10017e-09 2.88373e-09)
(2.23256e-09 -5.34485e-09 3.9025e-09)
(2.72254e-09 -6.58455e-09 5.04126e-09)
(3.2133e-09 -7.82889e-09 6.3479e-09)
(3.71686e-09 -9.06701e-09 7.86597e-09)
(4.24571e-09 -1.02606e-08 9.63207e-09)
(4.8159e-09 -1.13326e-08 1.16699e-08)
(5.45487e-09 -1.21496e-08 1.39791e-08)
(6.2202e-09 -1.24957e-08 1.65161e-08)
(7.23588e-09 -1.20317e-08 1.91591e-08)
(8.73545e-09 -1.0245e-08 2.16383e-08)
(1.09968e-08 -6.50673e-09 2.3378e-08)
(1.36941e-08 -1.01167e-09 2.33615e-08)
(1.37172e-08 4.44735e-09 1.64141e-08)
(0 0 0)
(1.25098e-09 -2.90677e-09 1.96142e-09)
(2.38019e-09 -5.56481e-09 3.81568e-09)
(3.42505e-09 -8.08336e-09 5.6908e-09)
(4.41762e-09 -1.0545e-08 7.69868e-09)
(5.38603e-09 -1.30048e-08 9.94115e-09)
(6.35525e-09 -1.54867e-08 1.25123e-08)
(7.34801e-09 -1.79773e-08 1.54977e-08)
(8.38557e-09 -2.04149e-08 1.89695e-08)
(9.48945e-09 -2.26721e-08 2.29741e-08)
(1.06869e-08 -2.45337e-08 2.7509e-08)
(1.20247e-08 -2.56762e-08 3.24802e-08)
(1.35904e-08 -2.56738e-08 3.76263e-08)
(1.55132e-08 -2.41122e-08 4.23803e-08)
(1.78062e-08 -2.10255e-08 4.56547e-08)
(1.98136e-08 -1.78599e-08 4.60174e-08)
(1.92202e-08 -1.91047e-08 4.02999e-08)
(0 0 0)
(1.84504e-09 -4.25014e-09 2.88041e-09)
(3.51009e-09 -8.1406e-09 5.60205e-09)
(5.04998e-09 -1.18346e-08 8.35163e-09)
(6.5119e-09 -1.54573e-08 1.12921e-08)
(7.93736e-09 -1.90961e-08 1.45719e-08)
(9.36332e-09 -2.27973e-08 1.83283e-08)
(1.08225e-08 -2.65593e-08 2.26872e-08)
(1.23421e-08 -3.03207e-08 2.77566e-08)
(1.39405e-08 -3.39432e-08 3.36094e-08)
(1.56211e-08 -3.71917e-08 4.02504e-08)
(1.7362e-08 -3.97278e-08 4.75567e-08)
(1.90959e-08 -4.11575e-08 5.51747e-08)
(2.06608e-08 -4.12349e-08 6.23514e-08)
(2.1697e-08 -4.03687e-08 6.77375e-08)
(2.16403e-08 -4.00849e-08 6.96913e-08)
(1.81722e-08 -4.29682e-08 6.50749e-08)
(0 0 0)
(2.40263e-09 -5.46196e-09 3.72904e-09)
(4.56998e-09 -1.04681e-08 7.24981e-09)
(6.57284e-09 -1.5234e-08 1.08015e-08)
(8.47242e-09 -1.99279e-08 1.45925e-08)
(1.03231e-08 -2.46734e-08 1.88124e-08)
(1.2174e-08 -2.95472e-08 2.36375e-08)
(1.40685e-08 -3.45745e-08 2.9231e-08)
(1.6042e-08 -3.97192e-08 3.57361e-08)
(1.8112e-08 -4.48694e-08 4.32573e-08)
(2.02602e-08 -4.98203e-08 5.18226e-08)
(2.23944e-08 -5.4265e-08 6.13139e-08)
(2.42771e-08 -5.78225e-08 7.13455e-08)
(2.5414e-08 -6.01731e-08 8.10595e-08)
(2.49959e-08 -6.14069e-08 8.88705e-08)
(2.2489e-08 -6.23891e-08 9.26829e-08)
(1.62302e-08 -6.54305e-08 8.89627e-08)
(0 0 0)
(2.91327e-09 -6.49933e-09 4.48921e-09)
(5.53963e-09 -1.24648e-08 8.72318e-09)
(7.96373e-09 -1.81613e-08 1.29855e-08)
(1.02593e-08 -2.37988e-08 1.75228e-08)
(1.24927e-08 -2.95388e-08 2.2559e-08)
(1.47252e-08 -3.54947e-08 2.83029e-08)
(1.70135e-08 -4.173e-08 3.49495e-08)
(1.94068e-08 -4.82537e-08 4.26742e-08)
(2.19368e-08 -5.50109e-08 5.16159e-08)
(2.45949e-08 -6.1869e-08 6.18394e-08)
(2.72822e-08 -6.85971e-08 7.32666e-08)
(2.97056e-08 -7.48394e-08 8.5546e-08)
(3.11989e-08 -8.00826e-08 9.78135e-08)
(3.05744e-08 -8.36799e-08 1.08335e-07)
(2.68898e-08 -8.52203e-08 1.14493e-07)
(1.80823e-08 -8.68695e-08 1.12185e-07)
(0 0 0)
(3.36802e-09 -7.32148e-09 5.14701e-09)
(6.40167e-09 -1.40521e-08 9.99467e-09)
(9.19684e-09 -2.05001e-08 1.48618e-08)
(1.18375e-08 -2.69139e-08 2.00243e-08)
(1.44002e-08 -3.34912e-08 2.57322e-08)
(1.69577e-08 -4.03834e-08 3.22179e-08)
(1.9581e-08 -4.76975e-08 3.96997e-08)
(2.23392e-08 -5.54977e-08 4.83779e-08)
(2.52945e-08 -6.38044e-08 5.84205e-08)
(2.84883e-08 -7.25894e-08 6.99318e-08)
(3.19066e-08 -8.1761e-08 8.28915e-08)
(3.53975e-08 -9.11201e-08 9.70308e-08)
(3.84984e-08 -1.00228e-07 1.11575e-07)
(4.01592e-08 -1.08105e-07 1.24772e-07)
(3.89254e-08 -1.12969e-07 1.33498e-07)
(2.96454e-08 -1.11413e-07 1.33352e-07)
(0 0 0)
(3.75985e-09 -7.8918e-09 5.69334e-09)
(7.14265e-09 -1.5159e-08 1.10467e-08)
(1.02521e-08 -2.21447e-08 1.64037e-08)
(1.31792e-08 -2.91287e-08 2.20601e-08)
(1.60078e-08 -3.63399e-08 2.82818e-08)
(1.88195e-08 -4.39633e-08 3.53148e-08)
(2.16971e-08 -5.21459e-08 4.3389e-08)
(2.4729e-08 -6.10037e-08 5.27161e-08)
(2.80111e-08 -7.06286e-08 6.34783e-08)
(3.16487e-08 -8.10967e-08 7.58032e-08)
(3.57534e-08 -9.24769e-08 8.97131e-08)
(4.04267e-08 -1.04831e-07 1.05018e-07)
(4.57061e-08 -1.18163e-07 1.21063e-07)
(5.1384e-08 -1.32153e-07 1.36165e-07)
(5.63968e-08 -1.44986e-07 1.46764e-07)
(5.70804e-08 -1.54655e-07 1.46631e-07)
(0 0 0)
(4.08432e-09 -8.18004e-09 6.12449e-09)
(7.7544e-09 -1.57272e-08 1.18727e-08)
(1.11177e-08 -2.30077e-08 1.76025e-08)
(1.42682e-08 -3.03229e-08 2.3619e-08)
(1.72932e-08 -3.79237e-08 3.0194e-08)
(2.02777e-08 -4.60197e-08 3.75758e-08)
(2.33103e-08 -5.4787e-08 4.59923e-08)
(2.64888e-08 -6.43768e-08 5.56496e-08)
(2.99271e-08 -7.49255e-08 6.67214e-08)
(3.37644e-08 -8.65652e-08 7.9326e-08)
(3.8177e-08 -9.94378e-08 9.34813e-08)
(4.33849e-08 -1.13707e-07 1.09009e-07)
(4.96318e-08 -1.29536e-07 1.25318e-07)
(5.70213e-08 -1.46878e-07 1.40931e-07)
(6.43887e-08 -1.63558e-07 1.52313e-07)
(7.61654e-08 -1.84669e-07 1.5102e-07)
(0 0 0)
(0 0 0)
(0 0 0)
(0 0 0)
(0 0 0)
(0 0 0)
(0 0 0)
(0 0 0)
(0 0 0)
(0 0 0)
(0 0 0)
(0 0 0)
(0 0 0)
(0 0 0)
(0 0 0)
(0 0 0)
(2.47373e-10 2.57491e-09 1.8786e-09)
(0 0 0)
(6.26232e-10 -1.49817e-09 8.84181e-10)
(1.18983e-09 -2.86747e-09 1.71937e-09)
(1.70783e-09 -4.16378e-09 2.56256e-09)
(2.19406e-09 -5.42933e-09 3.46319e-09)
(2.65928e-09 -6.69203e-09 4.46541e-09)
(3.11093e-09 -7.9639e-09 5.60858e-09)
(3.55259e-09 -9.23844e-09 6.92621e-09)
(3.98307e-09 -1.04862e-08 8.44229e-09)
(4.39524e-09 -1.16483e-08 1.01634e-08)
(4.77606e-09 -1.26294e-08 1.20641e-08)
(5.10922e-09 -1.32919e-08 1.40617e-08)
(5.37945e-09 -1.34558e-08 1.59717e-08)
(5.5638e-09 -1.29149e-08 1.74342e-08)
(5.56352e-09 -1.15089e-08 1.78299e-08)
(5.10676e-09 -9.44085e-09 1.65234e-08)
(3.34044e-09 -6.14662e-09 1.24448e-08)
(0 0 0)
(1.24014e-09 -2.9508e-09 1.74562e-09)
(2.35621e-09 -5.64947e-09 3.39399e-09)
(3.38191e-09 -8.20746e-09 5.05723e-09)
(4.34477e-09 -1.07095e-08 6.83247e-09)
(5.26634e-09 -1.32131e-08 8.80633e-09)
(6.16173e-09 -1.57463e-08 1.10562e-08)
(7.03821e-09 -1.83027e-08 1.36483e-08)
(7.89221e-09 -2.08346e-08 1.66306e-08)
(8.70453e-09 -2.32435e-08 2.00177e-08)
(9.43438e-09 -2.5372e-08 2.37636e-08)
(1.0013e-08 -2.70089e-08 2.77133e-08)
(1.03351e-08 -2.79319e-08 3.15257e-08)
(1.02403e-08 -2.8038e-08 3.45627e-08)
(9.48637e-09 -2.76117e-08 3.58316e-08)
(7.94323e-09 -2.75007e-08 3.45871e-08)
(5.97258e-09 -2.94655e-08 3.18557e-08)
(0 0 0)
(1.83031e-09 -4.31388e-09 2.5637e-09)
(3.47743e-09 -8.26308e-09 4.98337e-09)
(4.9911e-09 -1.20138e-08 7.42257e-09)
(6.41225e-09 -1.56938e-08 1.00228e-08)
(7.77355e-09 -1.93937e-08 1.29102e-08)
(9.09873e-09 -2.31636e-08 1.61981e-08)
(1.04001e-08 -2.70091e-08 1.99844e-08)
(1.16728e-08 -3.08831e-08 2.43425e-08)
(1.28841e-08 -3.46758e-08 2.93013e-08)
(1.39559e-08 -3.82088e-08 3.4808e-08)
(1.47376e-08 -4.12499e-08 4.06685e-08)
(1.4968e-08 -4.35845e-08 4.64544e-08)
(1.42429e-08 -4.52047e-08 5.1396e-08)
(1.20986e-08 -4.6619e-08 5.43819e-08)
(8.68038e-09 -4.86991e-08 5.46319e-08)
(4.57939e-09 -5.2253e-08 5.33986e-08)
(0 0 0)
(2.38562e-09 -5.54302e-09 3.31943e-09)
(4.5321e-09 -1.06236e-08 6.45004e-09)
(6.5042e-09 -1.54609e-08 9.60133e-09)
(8.3558e-09 -2.02261e-08 1.29542e-08)
(1.01311e-08 -2.50451e-08 1.667e-08)
(1.18639e-08 -2.99978e-08 2.08945e-08)
(1.35749e-08 -3.51139e-08 2.57552e-08)
(1.52636e-08 -4.03663e-08 3.13515e-08)
(1.68929e-08 -4.56624e-08 3.77321e-08)
(1.83592e-08 -5.08358e-08 4.48541e-08)
(1.94427e-08 -5.56529e-08 5.25152e-08)
(1.97266e-08 -5.98572e-08 6.02546e-08)
(1.85224e-08 -6.32986e-08 6.72396e-08)
(1.50112e-08 -6.6157e-08 7.22572e-08)
(9.42211e-09 -6.88765e-08 7.42826e-08)
(2.98937e-09 -7.23922e-08 7.44295e-08)
(0 0 0)
(2.89578e-09 -6.59474e-09 3.99677e-09)
(5.50033e-09 -1.26476e-08 7.7622e-09)
(7.89188e-09 -1.84272e-08 1.15448e-08)
(1.01364e-08 -2.41464e-08 1.55584e-08)
(1.22895e-08 -2.99681e-08 1.99941e-08)
(1.43968e-08 -3.60065e-08 2.50245e-08)
(1.64917e-08 -4.23253e-08 3.08025e-08)
(1.85875e-08 -4.89341e-08 3.74515e-08)
(2.06617e-08 -5.57814e-08 4.50423e-08)
(2.2623e-08 -6.27438e-08 5.35518e-08)
(2.42496e-08 -6.9613e-08 6.2792e-08)
(2.50788e-08 -7.60775e-08 7.23026e-08)
(2.4267e-08 -8.17015e-08 8.12188e-08)
(2.06403e-08 -8.59221e-08 8.82176e-08)
(1.40288e-08 -8.82181e-08 9.19755e-08)
(5.33206e-09 -8.96133e-08 9.35237e-08)
(0 0 0)
(3.35174e-09 -7.42786e-09 4.58327e-09)
(6.3646e-09 -1.42557e-08 8.89536e-09)
(9.12805e-09 -2.07954e-08 1.32156e-08)
(1.17184e-08 -2.72979e-08 1.77834e-08)
(1.42018e-08 -3.39613e-08 2.28119e-08)
(1.66361e-08 -4.09351e-08 2.84939e-08)
(1.90701e-08 -4.83213e-08 3.50008e-08)
(2.15395e-08 -5.61752e-08 4.24736e-08)
(2.4056e-08 -6.45026e-08 5.10014e-08)
(2.65838e-08 -7.32522e-08 6.05807e-08)
(2.89921e-08 -8.22952e-08 7.10428e-08)
(3.09606e-08 -9.13749e-08 8.19363e-08)
(3.18335e-08 -9.99757e-08 9.23571e-08)
(3.05324e-08 -1.07062e-07 1.00815e-07)
(2.63624e-08 -1.1096e-07 1.05629e-07)
(1.74321e-08 -1.07825e-07 1.08195e-07)
(0 0 0)
(3.74626e-09 -8.00544e-09 5.0708e-09)
(7.11093e-09 -1.53762e-08 9.83372e-09)
(1.01917e-08 -2.24592e-08 1.45899e-08)
(1.30724e-08 -2.9536e-08 1.9596e-08)
(1.58275e-08 -3.68349e-08 2.50791e-08)
(1.85251e-08 -4.45365e-08 3.12433e-08)
(2.12284e-08 -5.27784e-08 3.82693e-08)
(2.39961e-08 -6.16595e-08 4.63057e-08)
(2.68798e-08 -7.12422e-08 5.5449e-08)
(2.99159e-08 -8.15522e-08 6.57038e-08)
(3.31082e-08 -9.2571e-08 7.69098e-08)
(3.63906e-08 -1.04209e-07 8.86122e-08)
(3.95755e-08 -1.16223e-07 9.98435e-08)
(4.23111e-08 -1.27981e-07 1.08849e-07)
(4.41337e-08 -1.37762e-07 1.13365e-07)
(4.48236e-08 -1.43485e-07 1.14077e-07)
(0 0 0)
(4.07451e-09 -8.297e-09 5.45596e-09)
(7.73031e-09 -1.59506e-08 1.05713e-08)
(1.10694e-08 -2.33307e-08 1.56597e-08)
(1.41798e-08 -3.07402e-08 2.09863e-08)
(1.71403e-08 -3.84283e-08 2.67834e-08)
(2.00247e-08 -4.65988e-08 3.32573e-08)
(2.29049e-08 -5.54152e-08 4.05871e-08)
(2.58541e-08 -6.50068e-08 4.89168e-08)
(2.89492e-08 -7.54718e-08 5.83355e-08)
(3.22722e-08 -8.68783e-08 6.88384e-08)
(3.59079e-08 -9.92584e-08 8.02565e-08)
(3.993e-08 -1.12591e-07 9.21295e-08)
(4.43718e-08 -1.26744e-07 1.03491e-07)
(4.91515e-08 -1.413e-07 1.12599e-07)
(5.35795e-08 -1.5431e-07 1.17052e-07)
(6.29511e-08 -1.70551e-07 1.13361e-07)
(0 0 0)
(0 0 0)
(0 0 0)
(0 0 0)
(0 0 0)
(0 0 0)
(0 0 0)
(0 0 0)
(0 0 0)
(0 0 0)
(0 0 0)
(0 0 0)
(0 0 0)
(0 0 0)
(0 0 0)
(0 0 0)
(-1.24111e-09 6.95536e-10 2.25939e-09)
(0 0 0)
(6.19379e-10 -1.51615e-09 7.44315e-10)
(1.175e-09 -2.90202e-09 1.44666e-09)
(1.68191e-09 -4.21446e-09 2.15433e-09)
(2.1515e-09 -5.49661e-09 2.90799e-09)
(2.59112e-09 -6.77756e-09 3.74309e-09)
(3.0032e-09 -8.07114e-09 4.69007e-09)
(3.38395e-09 -9.37447e-09 5.773e-09)
(3.7209e-09 -1.06652e-08 7.00583e-09)
(3.98973e-09 -1.18985e-08 8.3848e-09)
(4.15102e-09 -1.30052e-08 9.87575e-09)
(4.14883e-09 -1.3894e-08 1.13948e-08)
(3.912e-09 -1.44602e-08 1.27825e-08)
(3.35719e-09 -1.4594e-08 1.37819e-08)
(2.39853e-09 -1.41724e-08 1.40706e-08)
(1.08135e-09 -1.30978e-08 1.35196e-08)
(-5.44502e-10 -9.87995e-09 1.17031e-08)
(0 0 0)
(1.22712e-09 -2.986e-09 1.46961e-09)
(2.32804e-09 -5.71712e-09 2.85594e-09)
(3.33265e-09 -8.30642e-09 4.25205e-09)
(4.26382e-09 -1.08402e-08 5.73773e-09)
(5.13671e-09 -1.3378e-08 7.38257e-09)
(5.95718e-09 -1.59506e-08 9.24652e-09)
(6.71888e-09 -1.85573e-08 1.13774e-08)
(7.39804e-09 -2.11617e-08 1.38036e-08)
(7.9456e-09 -2.36863e-08 1.65202e-08)
(8.27781e-09 -2.60127e-08 1.94652e-08)
(8.26831e-09 -2.79941e-08 2.24847e-08)
(7.7484e-09 -2.94968e-08 2.52901e-08)
(6.53947e-09 -3.04853e-08 2.74315e-08)
(4.58656e-09 -3.11252e-08 2.83846e-08)
(2.36601e-09 -3.1709e-08 2.80324e-08)
(1.10833e-09 -3.3079e-08 2.74838e-08)
(0 0 0)
(1.81239e-09 -4.36492e-09 2.15861e-09)
(3.43861e-09 -8.36098e-09 4.19395e-09)
(4.92312e-09 -1.21564e-08 6.24173e-09)
(6.30044e-09 -1.58809e-08 8.41807e-09)
(7.59457e-09 -1.96268e-08 1.08244e-08)
(8.81686e-09 -2.34473e-08 1.35488e-08)
(9.96171e-09 -2.73532e-08 1.66623e-08)
(1.09984e-08 -3.13073e-08 2.02098e-08)
(1.18576e-08 -3.52199e-08 2.41911e-08)
(1.24121e-08 -3.89478e-08 2.85309e-08)
(1.24544e-08 -4.23146e-08 3.30352e-08)
(1.16812e-08 -4.5172e-08 3.73469e-08)
(9.7401e-09 -4.75344e-08 4.09393e-08)
(6.48825e-09 -4.97387e-08 4.32572e-08)
(2.75029e-09 -5.21777e-08 4.41903e-08)
(-8.59641e-11 -5.5214e-08 4.48698e-08)
(0 0 0)
(2.36445e-09 -5.60785e-09 2.79539e-09)
(4.48614e-09 -1.07477e-08 5.42925e-09)
(6.4235e-09 -1.56408e-08 8.07532e-09)
(8.22289e-09 -2.046e-08 1.0882e-08)
(9.91835e-09 -2.53326e-08 1.39792e-08)
(1.15296e-08 -3.03399e-08 1.74804e-08)
(1.30571e-08 -3.55136e-08 2.14785e-08)
(1.4472e-08 -4.08316e-08 2.60357e-08)
(1.56984e-08 -4.62114e-08 3.11621e-08)
(1.6585e-08 -5.15056e-08 3.67814e-08)
(1.68631e-08 -5.65093e-08 4.2684e-08)
(1.61003e-08 -6.09964e-08 4.84833e-08)
(1.37162e-08 -6.48084e-08 5.36193e-08)
(9.29227e-09 -6.79875e-08 5.75064e-08)
(3.73532e-09 -7.06808e-08 5.98903e-08)
(-1.05573e-09 -7.35645e-08 6.17563e-08)
(0 0 0)
(2.87315e-09 -6.67085e-09 3.36643e-09)
(5.45106e-09 -1.27929e-08 6.53502e-09)
(7.80507e-09 -1.86368e-08 9.71178e-09)
(9.99304e-09 -2.44165e-08 1.30722e-08)
(1.206e-08 -3.02953e-08 1.67701e-08)
(1.40367e-08 -3.6386e-08 2.09401e-08)
(1.59359e-08 -4.27498e-08 2.56941e-08)
(1.77425e-08 -4.93926e-08 3.11097e-08)
(1.93964e-08 -5.62581e-08 3.72088e-08)
(2.07618e-08 -6.32173e-08 4.39203e-08)
(2.15758e-08 -7.00526e-08 5.10297e-08)
(2.13753e-08 -7.64344e-08 5.81302e-08)
(1.94526e-08 -8.18842e-08 6.46205e-08)
(1.50691e-08 -8.57511e-08 6.98477e-08)
(8.7315e-09 -8.74348e-08 7.34101e-08)
(1.94763e-09 -8.78358e-08 7.62878e-08)
(0 0 0)
(3.32944e-09 -7.51241e-09 3.86121e-09)
(6.3158e-09 -1.44166e-08 7.49056e-09)
(9.04154e-09 -2.10265e-08 1.11195e-08)
(1.15749e-08 -2.75934e-08 1.49447e-08)
(1.39716e-08 -3.43142e-08 1.9138e-08)
(1.62752e-08 -4.13341e-08 2.38496e-08)
(1.85145e-08 -4.87473e-08 2.92049e-08)
(2.06985e-08 -5.65961e-08 3.52929e-08)
(2.28039e-08 -6.48652e-08 4.21433e-08)
(2.47538e-08 -7.34703e-08 4.96882e-08)
(2.63795e-08 -8.22313e-08 5.7705e-08)
(2.73604e-08 -9.08147e-08 6.57512e-08)
(2.71685e-08 -9.86066e-08 7.3134e-08)
(2.51488e-08 -1.045e-07 7.9033e-08)
(2.12952e-08 -1.06987e-07 8.2896e-08)
(1.44559e-08 -1.02609e-07 8.61408e-08)
(0 0 0)
(3.72585e-09 -8.09539e-09 4.27279e-09)
(7.06587e-09 -1.55471e-08 8.28238e-09)
(1.0111e-08 -2.27037e-08 1.22784e-08)
(1.29376e-08 -2.98465e-08 1.64717e-08)
(1.56104e-08 -3.72011e-08 2.10456e-08)
(1.81842e-08 -4.49414e-08 2.61595e-08)
(2.07043e-08 -5.31925e-08 3.19451e-08)
(2.32052e-08 -6.20322e-08 3.84953e-08)
(2.57068e-08 -7.14886e-08 4.58409e-08)
(2.82079e-08 -8.15324e-08 5.39098e-08)
(3.0674e-08 -9.20593e-08 6.24625e-08)
(3.3027e-08 -1.02853e-07 7.10042e-08)
(3.51663e-08 -1.13514e-07 7.87026e-08)
(3.70851e-08 -1.2332e-07 8.44301e-08)
(3.89707e-08 -1.30914e-07 8.7299e-08)
(4.14132e-08 -1.34957e-07 8.88035e-08)
(0 0 0)
(4.05718e-09 -8.38925e-09 4.5982e-09)
(7.69153e-09 -1.61256e-08 8.90534e-09)
(1.0999e-08 -2.35804e-08 1.31815e-08)
(1.40605e-08 -3.10558e-08 1.76447e-08)
(1.69466e-08 -3.87973e-08 2.24829e-08)
(1.97193e-08 -4.7e-08 2.78571e-08)
(2.2435e-08 -5.58123e-08 3.3898e-08)
(2.51459e-08 -6.53374e-08 4.06943e-08)
(2.79018e-08 -7.56322e-08 4.82696e-08)
(3.07513e-08 -8.66993e-08 5.65408e-08)
(3.37425e-08 -9.84722e-08 6.52519e-08)
(3.69257e-08 -1.10791e-07 7.38774e-08)
(4.03759e-08 -1.23365e-07 8.15212e-08)
(4.42345e-08 -1.35716e-07 8.69253e-08)
(4.83205e-08 -1.46404e-07 8.90046e-08)
(5.878e-08 -1.60867e-07 8.66088e-08)
(0 0 0)
(0 0 0)
(0 0 0)
(0 0 0)
(0 0 0)
(0 0 0)
(0 0 0)
(0 0 0)
(0 0 0)
(0 0 0)
(0 0 0)
(0 0 0)
(0 0 0)
(0 0 0)
(0 0 0)
(0 0 0)
(-1.6719e-09 1.5468e-10 2.13628e-09)
(0 0 0)
(6.12555e-10 -1.52961e-09 5.79607e-10)
(1.1604e-09 -2.92785e-09 1.12601e-09)
(1.65681e-09 -4.25239e-09 1.67569e-09)
(2.11103e-09 -5.54705e-09 2.2597e-09)
(2.52748e-09 -6.84143e-09 2.90444e-09)
(2.90465e-09 -8.15061e-09 3.63177e-09)
(3.2333e-09 -9.47406e-09 4.45786e-09)
(3.49369e-09 -1.07939e-08 5.38999e-09)
(3.65233e-09 -1.20733e-08 6.42082e-09)
(3.65967e-09 -1.32556e-08 7.5198e-09)
(3.45149e-09 -1.42672e-08 8.62273e-09)
(2.95836e-09 -1.50201e-08 9.62359e-09)
(2.12788e-09 -1.54002e-08 1.03811e-08)
(9.66297e-10 -1.52161e-08 1.07692e-08)
(-3.36016e-10 -1.42144e-08 1.07845e-08)
(-1.57554e-09 -1.07327e-08 9.87948e-09)
(0 0 0)
(1.21413e-09 -3.01252e-09 1.14452e-09)
(2.30026e-09 -5.76804e-09 2.22325e-09)
(3.28484e-09 -8.38084e-09 3.30787e-09)
(4.18663e-09 -1.09382e-08 4.45919e-09)
(5.01535e-09 -1.35006e-08 5.72911e-09)
(5.7695e-09 -1.61007e-08 7.1608e-09)
(6.43282e-09 -1.87415e-08 8.78646e-09)
(6.9686e-09 -2.13928e-08 1.06214e-08)
(7.3124e-09 -2.39888e-08 1.26531e-08)
(7.36567e-09 -2.64287e-08 1.48257e-08)
(6.99576e-09 -2.85868e-08 1.70212e-08)
(6.05719e-09 -3.03389e-08 1.90448e-08)
(4.46433e-09 -3.16073e-08 2.06398e-08)
(2.37372e-09 -3.23982e-08 2.15712e-08)
(4.85158e-10 -3.27777e-08 2.1828e-08)
(4.29592e-11 -3.3459e-08 2.18834e-08)
(0 0 0)
(1.79441e-09 -4.40354e-09 1.68134e-09)
(3.40012e-09 -8.43493e-09 3.26542e-09)
(4.85677e-09 -1.22637e-08 4.85661e-09)
(6.19322e-09 -1.60206e-08 6.54331e-09)
(7.42611e-09 -1.97988e-08 8.40126e-09)
(8.55696e-09 -2.3653e-08 1.0494e-08)
(9.56718e-09 -2.75966e-08 1.28697e-08)
(1.04097e-08 -3.15978e-08 1.55532e-08)
(1.09974e-08 -3.55755e-08 1.85321e-08)
(1.11893e-08 -3.93997e-08 2.17361e-08)
(1.0782e-08 -4.29057e-08 2.50138e-08)
(9.52566e-09 -4.59376e-08 2.81234e-08)
(7.22246e-09 -4.84417e-08 3.07656e-08)
(4.01913e-09 -5.05813e-08 3.26991e-08)
(9.44176e-10 -5.25913e-08 3.39016e-08)
(-7.39432e-10 -5.48949e-08 3.4764e-08)
(0 0 0)
(2.34296e-09 -5.65697e-09 2.17773e-09)
(4.44009e-09 -1.08414e-08 4.22805e-09)
(6.344e-09 -1.57758e-08 6.28449e-09)
(8.09433e-09 -2.06335e-08 8.45997e-09)
(9.71656e-09 -2.55422e-08 1.08515e-08)
(1.12191e-08 -3.0583e-08 1.35412e-08)
(1.25878e-08 -3.57877e-08 1.65923e-08)
(1.37764e-08 -4.11344e-08 2.00401e-08)
(1.46913e-08 -4.65414e-08 2.38758e-08)
(1.51714e-08 -5.18622e-08 2.8023e-08)
(1.49647e-08 -5.68865e-08 3.23133e-08)
(1.37191e-08 -6.13625e-08 3.64801e-08)
(1.10544e-08 -6.50602e-08 4.02037e-08)
(6.88417e-09 -6.78891e-08 4.32314e-08)
(2.27498e-09 -6.99481e-08 4.54383e-08)
(-1.12562e-09 -7.2041e-08 4.70858e-08)
(0 0 0)
(2.84982e-09 -6.72845e-09 2.62311e-09)
(5.40094e-09 -1.29023e-08 5.0902e-09)
(7.71837e-09 -1.87932e-08 7.55947e-09)
(9.85271e-09 -2.46151e-08 1.01645e-08)
(1.18399e-08 -3.05303e-08 1.30202e-08)
(1.36989e-08 -3.66493e-08 1.62243e-08)
(1.54275e-08 -4.3029e-08 1.98526e-08)
(1.69934e-08 -4.96683e-08 2.39498e-08)
(1.83202e-08 -5.65008e-08 2.85111e-08)
(1.92662e-08 -6.33809e-08 3.34571e-08)
(1.95935e-08 -7.00647e-08 3.86059e-08)
(1.89354e-08 -7.61791e-08 4.3663e-08)
(1.68069e-08 -8.11803e-08 4.82694e-08)
(1.28227e-08 -8.4353e-08 5.2131e-08)