/*--------------------------------*- C++ -*----------------------------------*\
| =========                 |                                                 |
| \\      /  F ield         | OpenFOAM: The Open Source CFD Toolbox           |
|  \\    /   O peration     | Version:  v1912                                 |
|   \\  /    A nd           | Website:  www.openfoam.com                      |
|    \\/     M anipulation  |                                                 |
\*---------------------------------------------------------------------------*/
FoamFile
{
    version     2.0;
    format      ascii;
    class       surfaceScalarField;
    location    "0.77/fluid";
    object      meshPhi;
}
// * * * * * * * * * * * * * * * * * * * * * * * * * * * * * * * * * * * * * //

dimensions      [0 3 -1 0 0 0 0];
oriented        oriented;


internalField   nonuniform List<scalar> 
41600
(
1.50466e-13
-3.91168e-13
1.47201e-13
-1.52064e-13
2.87585e-13
-1.13944e-12
4.339e-13
-4.48454e-13
4.17083e-13
-1.8336e-12
7.1511e-13
-7.39791e-13
5.44235e-13
-2.49793e-12
1.00952e-12
-1.04574e-12
6.74206e-13
-3.14859e-12
1.33396e-12
-1.38414e-12
8.12552e-13
-3.79259e-12
1.70421e-12
-1.77198e-12
9.65963e-13
-4.42557e-12
2.13546e-12
-2.22607e-12
1.14341e-12
-5.02774e-12
2.64253e-12
-2.76348e-12
1.35822e-12
-5.5563e-12
3.23961e-12
-3.40172e-12
1.63237e-12
-5.93181e-12
3.93948e-12
-4.15914e-12
2.00568e-12
-6.01363e-12
4.75304e-12
-5.05671e-12
2.55582e-12
-5.55323e-12
5.69082e-12
-6.12551e-12
3.43533e-12
-4.10391e-12
6.77023e-12
-7.42889e-12
4.90737e-12
-8.8347e-13
8.0246e-12
-9.11031e-12
7.06115e-12
4.89409e-12
9.42808e-12
-1.13168e-11
1.43893e-11
1.18135e-11
-1.70873e-11
4.47577e-13
-7.70795e-13
4.37764e-13
-4.52224e-13
8.55305e-13
-2.24575e-12
1.29027e-12
-1.33356e-12
1.24004e-12
-3.61552e-12
2.12616e-12
-2.19953e-12
1.61724e-12
-4.92885e-12
3.00077e-12
-3.10835e-12
2.00202e-12
-6.21921e-12
3.96391e-12
-4.11283e-12
2.41053e-12
-7.50312e-12
5.06228e-12
-5.26326e-12
2.86184e-12
-8.77655e-12
6.34087e-12
-6.60931e-12
3.38078e-12
-1.00082e-11
7.84338e-12
-8.20112e-12
4.00278e-12
-1.11276e-11
9.61112e-12
-1.00895e-11
4.78315e-12
-1.20056e-11
1.168e-11
-1.23256e-11
5.81571e-12
-1.24244e-11
1.40758e-11
-1.4962e-11
7.2697e-12
-1.20381e-11
1.68107e-11
-1.80618e-11
9.4443e-12
-1.03437e-11
1.98813e-11
-2.17258e-11
1.27731e-11
-6.76555e-12
2.32548e-11
-2.61388e-11
1.71623e-11
-1.3554e-12
2.66968e-11
-3.13107e-11
5.09275e-12
2.93472e-11
-3.78108e-11
7.33504e-13
-1.12754e-12
7.17117e-13
-7.40802e-13
1.40123e-12
-3.2863e-12
2.11332e-12
-2.18418e-12
2.03025e-12
-5.29452e-12
3.48133e-12
-3.60135e-12
2.64527e-12
-7.22598e-12
4.91113e-12
-5.08689e-12
3.27037e-12
-9.13333e-12
6.48361e-12
-6.7266e-12
3.9309e-12
-1.10468e-11
8.27467e-12
-8.60213e-12
4.65593e-12
-1.29702e-11
1.03575e-11
-1.0794e-11
5.48151e-12
-1.48743e-11
1.2803e-11
-1.33832e-11
6.45552e-12
-1.66838e-11
1.56779e-11
-1.64506e-11
7.64545e-12
-1.82587e-11
1.9038e-11
-2.00743e-11
9.15188e-12
-1.93693e-11
2.29171e-11
-2.43242e-11
1.11303e-11
-1.96754e-11
2.73076e-11
-2.92563e-11
1.38056e-11
-1.8747e-11
3.21309e-11
-3.49064e-11
1.73976e-11
-1.62316e-11
3.71765e-11
-4.12631e-11
2.14848e-11
-1.24491e-11
4.19165e-11
-4.79011e-11
-8.26506e-12
4.56604e-11
-5.59005e-11
1.00148e-12
-1.44982e-12
9.78507e-13
-1.01079e-12
1.91216e-12
-4.22747e-12
2.88296e-12
-2.97948e-12
2.76801e-12
-6.81708e-12
4.74693e-12
-4.91022e-12
3.60164e-12
-9.31758e-12
6.69183e-12
-6.93063e-12
4.44467e-12
-1.18026e-11
8.82672e-12
-9.15632e-12
5.32987e-12
-1.43203e-11
1.12539e-11
-1.16972e-11
6.29365e-12
-1.68906e-11
1.40723e-11
-1.46618e-11
7.37891e-12
-1.94998e-11
1.73781e-11
-1.81589e-11
8.63807e-12
-2.20905e-11
2.12621e-11
-2.22971e-11
1.01358e-11
-2.4546e-11
2.58011e-11
-2.71794e-11
1.19513e-11
-2.66706e-11
3.10401e-11
-3.28913e-11
1.4177e-11
-2.81708e-11
3.69606e-11
-3.94796e-11
1.68967e-11
-2.86629e-11
4.34251e-11
-4.69148e-11
2.01012e-11
-2.77725e-11
5.00785e-11
-5.50147e-11
2.32936e-11
-2.55447e-11
5.61397e-11
-6.30414e-11
-2.23308e-11
6.05774e-11
-7.17088e-11
1.24559e-12
-1.72621e-12
1.21599e-12
-1.25601e-12
2.37662e-12
-5.03591e-12
3.58148e-12
-3.70108e-12
3.43622e-12
-8.12925e-12
5.8932e-12
-6.09527e-12
4.46335e-12
-1.11296e-11
8.29971e-12
-8.59475e-12
5.49549e-12
-1.41323e-11
1.09342e-11
-1.13406e-11
6.57096e-12
-1.72063e-11
1.39217e-11
-1.44669e-11
7.73132e-12
-2.03937e-11
1.73829e-11
-1.81057e-11
9.0237e-12
-2.37071e-11
2.14363e-11
-2.23901e-11
1.05022e-11
-2.7124e-11
2.61957e-11
-2.74539e-11
1.22266e-11
-3.05775e-11
3.17611e-11
-3.34256e-11
1.42565e-11
-3.39405e-11
3.81997e-11
-4.04146e-11
1.66344e-11
-3.70028e-11
4.55076e-11
-4.84819e-11
1.93426e-11
-3.94337e-11
5.35372e-11
-5.75814e-11
2.22147e-11
-4.07407e-11
6.18514e-11
-6.74357e-11
2.47004e-11
-4.04228e-11
6.94155e-11
-7.70243e-11
-3.78325e-11
7.48085e-11
-8.66672e-11
1.46116e-12
-1.9458e-12
1.42481e-12
-1.47155e-12
2.78552e-12
-5.67961e-12
4.19472e-12
-4.33429e-12
4.02152e-12
-9.17868e-12
6.89632e-12
-7.13183e-12
5.21263e-12
-1.25886e-11
9.70021e-12
-1.00434e-11
6.40038e-12
-1.60254e-11
1.27588e-11
-1.32304e-11
7.62678e-12
-1.95794e-11
1.62145e-11
-1.68454e-11
8.93675e-12
-2.3317e-11
2.02052e-11
-2.10387e-11
1.03805e-11
-2.72821e-11
2.48669e-11
-2.59621e-11
1.20146e-11
-3.14957e-11
3.03325e-11
-3.17701e-11
1.3901e-11
-3.59545e-11
3.67258e-11
-3.86162e-11
1.6101e-11
-4.0627e-11
4.41453e-11
-4.66426e-11
1.86607e-11
-4.54398e-11
5.26319e-11
-5.5956e-11
2.157e-11
-5.02341e-11
6.20972e-11
-6.65705e-11
2.46697e-11
-5.46413e-11
7.21476e-11
-7.82584e-11
2.73642e-11
-5.78597e-11
8.16184e-11
-8.98597e-11
-5.78191e-11
8.877e-11
-1.01541e-10
1.64487e-12
-2.09871e-12
1.60159e-12
-1.65391e-12
3.13262e-12
-6.12952e-12
4.7127e-12
-4.86882e-12
4.51488e-12
-9.91747e-12
7.73971e-12
-8.00275e-12
5.83772e-12
-1.36264e-11
1.08694e-11
-1.12519e-11
7.14474e-12
-1.73899e-11
1.42676e-11
-1.47917e-11
8.47964e-12
-2.13172e-11
1.80883e-11
-1.87871e-11
9.88878e-12
-2.54968e-11
2.24801e-11
-2.33995e-11
1.1424e-11
-3.00015e-11
2.7589e-11
-2.87915e-11
1.3145e-11
-3.48921e-11
3.35601e-11
-3.51301e-11
1.51207e-11
-4.02246e-11
4.05338e-11
-4.25861e-11
1.74319e-11
-4.60589e-11
4.86369e-11
-5.13309e-11
2.01716e-11
-5.24723e-11
5.79652e-11
-6.15282e-11
2.34359e-11
-5.95669e-11
6.8534e-11
-7.33024e-11
2.7262e-11
-6.74174e-11
8.01217e-11
-8.66195e-11
3.11513e-11
-7.5575e-11
9.16563e-11
-1.00426e-10
-8.36429e-11
1.01298e-10
-1.15342e-10
1.79498e-12
1.74452e-12
-1.80124e-12
-2.17674e-12
3.41478e-12
5.13025e-12
-5.29935e-12
-6.36152e-12
4.91213e-12
8.41505e-12
-8.69949e-12
-1.03057e-11
6.33362e-12
1.17956e-11
-1.22083e-11
-1.41857e-11
7.72285e-12
1.54452e-11
-1.60088e-11
-1.81475e-11
9.12297e-12
1.95228e-11
-2.02711e-11
-2.23141e-11
1.05793e-11
2.41798e-11
-2.51596e-11
-2.67904e-11
1.21425e-11
2.95637e-11
-3.08381e-11
-3.16691e-11
1.38716e-11
3.58195e-11
-3.74733e-11
-3.70369e-11
1.58384e-11
4.30886e-11
-4.52359e-11
-4.29826e-11
1.81349e-11
5.15043e-11
-5.43023e-11
-4.96102e-11
2.08853e-11
6.11838e-11
-6.48562e-11
-5.70575e-11
2.42579e-11
7.22021e-11
-7.70822e-11
-6.55176e-11
2.84267e-11
8.4478e-11
-9.10968e-11
-7.522e-11
3.29364e-11
9.70572e-11
-1.05982e-10
-8.57341e-11
1.09121e-10
-1.24052e-10
-9.93892e-11
1.52125e-13
-3.99962e-13
1.36986e-13
2.90585e-13
-1.16517e-12
4.03617e-13
4.21015e-13
-1.8755e-12
6.64643e-13
5.48525e-13
-2.55617e-12
9.37075e-13
6.77986e-13
-3.22433e-12
1.23606e-12
8.14419e-13
-3.88802e-12
1.57545e-12
9.63557e-13
-4.54421e-12
1.96811e-12
1.13273e-12
-5.17536e-12
2.42559e-12
1.33243e-12
-5.74312e-12
2.95719e-12
1.57967e-12
-6.17757e-12
3.56767e-12
1.9052e-12
-6.35925e-12
4.25307e-12
2.36883e-12
-6.08811e-12
4.99342e-12
3.08529e-12
-5.03152e-12
5.73898e-12
4.23491e-12
-2.67327e-12
6.38107e-12
5.83099e-12
1.38111e-12
6.71229e-12
6.75507e-12
6.4787e-12
4.52551e-13
-7.88068e-13
4.07384e-13
8.64321e-13
-2.2963e-12
1.20023e-12
1.25192e-12
-3.6978e-12
1.97612e-12
1.63034e-12
-5.04327e-12
2.78548e-12
2.01387e-12
-6.368e-12
3.67312e-12
2.41711e-12
-7.69038e-12
4.68013e-12
2.85642e-12
-9.00875e-12
5.84456e-12
3.35196e-12
-1.02956e-11
7.20069e-12
3.93116e-12
-1.1488e-11
8.77596e-12
4.63546e-12
-1.24721e-11
1.05839e-11
5.53413e-12
-1.30629e-11
1.26111e-11
6.75076e-12
-1.29854e-11
1.47931e-11
8.49798e-12
-1.18837e-11
1.69714e-11
1.10499e-11
-9.4579e-12
1.88147e-11
1.42472e-11
-5.99538e-12
1.97696e-11
-3.28125e-12
1.85258e-11
7.41805e-13
-1.15272e-12
6.6737e-13
1.41634e-12
-3.35999e-12
1.9659e-12
2.05036e-12
-5.41452e-12
3.23579e-12
2.66789e-12
-7.39287e-12
4.55905e-12
3.29175e-12
-9.35022e-12
6.0085e-12
3.94498e-12
-1.13193e-11
7.65102e-12
4.65255e-12
-1.33069e-11
9.54866e-12
5.44358e-12
-1.52881e-11
1.17576e-11
6.35402e-12
-1.71959e-11
1.43232e-11
7.43097e-12
-1.89066e-11
1.72686e-11
8.74009e-12
-2.02246e-11
2.05728e-11
1.03761e-11
-2.08801e-11
2.41313e-11
1.24628e-11
-2.05823e-11
2.76884e-11
1.5075e-11
-1.92176e-11
3.07359e-11
1.784e-11
-1.72758e-11
3.25097e-11
-1.6233e-11
3.18513e-11
1.01314e-12
-1.4821e-12
9.10684e-13
1.93353e-12
-4.32195e-12
2.68203e-12
2.79679e-12
-6.97095e-12
4.41249e-12
3.63479e-12
-9.53158e-12
6.21275e-12
4.47766e-12
-1.20806e-11
8.18107e-12
5.35539e-12
-1.46688e-11
1.04077e-11
6.29959e-12
-1.73195e-11
1.29769e-11
7.34488e-12
-2.00228e-11
1.59657e-11
8.52953e-12
-2.27281e-11
1.94377e-11
9.89426e-12
-2.5332e-11
2.34293e-11
1.14776e-11
-2.76649e-11
2.79218e-11
1.33035e-11
-2.94872e-11
3.27915e-11
1.53484e-11
-3.05203e-11
3.77261e-11
1.7468e-11
-3.05747e-11
4.21063e-11
1.92513e-11
-2.98472e-11
4.49995e-11
-2.93754e-11
4.50841e-11
1.26064e-12
-1.76455e-12
1.13182e-12
2.40438e-12
-5.14814e-12
3.33222e-12
3.47409e-12
-8.31206e-12
5.47866e-12
4.50805e-12
-1.13838e-11
7.70666e-12
5.54225e-12
-1.44623e-11
1.01363e-11
6.61218e-12
-1.76194e-11
1.2878e-11
7.75449e-12
-2.09001e-11
1.60351e-11
9.00786e-12
-2.43199e-11
1.97032e-11
1.04119e-11
-2.78607e-11
2.39644e-11
1.2002e-11
-3.14626e-11
2.88722e-11
1.37961e-11
-3.50124e-11
3.44218e-11
1.57667e-11
-3.83272e-11
4.04956e-11
1.77852e-11
-4.11306e-11
4.6766e-11
1.95466e-11
-4.30344e-11
5.25451e-11
2.05825e-11
-4.36608e-11
5.67106e-11
-4.32793e-11
5.76658e-11
1.47955e-12
-1.98893e-12
1.32635e-12
2.81967e-12
-5.80591e-12
3.90331e-12
4.06869e-12
-9.38447e-12
6.41222e-12
5.26959e-12
-1.28749e-11
9.00872e-12
6.4626e-12
-1.63969e-11
1.18303e-11
7.68722e-12
-2.00439e-11
1.50031e-11
8.98396e-12
-2.38846e-11
1.86455e-11
1.03954e-11
-2.79649e-11
2.28679e-11
1.19652e-11
-3.23069e-11
2.77681e-11
1.37332e-11
-3.69087e-11
3.34176e-11
1.57236e-11
-4.17397e-11
3.98337e-11
1.79185e-11
-4.67279e-11
4.69265e-11
2.02031e-11
-5.1716e-11
5.43951e-11
2.22769e-11
-5.63388e-11
6.15436e-11
2.35987e-11
-5.98296e-11
6.70939e-11
-6.077e-11
6.91726e-11
1.66648e-12
-2.14519e-12
1.49115e-12
3.17294e-12
-6.26565e-12
4.38603e-12
4.5712e-12
-1.01394e-11
7.19772e-12
5.90706e-12
-1.39352e-11
1.00967e-11
7.22318e-12
-1.77907e-11
1.32327e-11
8.56128e-12
-2.1818e-11
1.67424e-11
9.96423e-12
-2.61078e-11
2.07534e-11
1.14778e-11
-3.07334e-11
2.53851e-11
1.31513e-11
-3.57547e-11
3.07451e-11
1.50366e-11
-4.12242e-11
3.69175e-11
1.71853e-11
-4.7194e-11
4.39399e-11
1.964e-11
-5.37257e-11
5.17557e-11
2.24123e-11
-6.08883e-11
6.01154e-11
2.54144e-11
-6.86871e-11
6.83703e-11
2.81839e-11
-7.66288e-11
7.51562e-11
-8.37692e-11
7.82922e-11
1.81953e-12
1.6245e-12
-2.22494e-12
3.46083e-12
4.77551e-12
-6.50274e-12
4.97703e-12
7.82736e-12
-1.05361e-11
6.41474e-12
1.09597e-11
-1.45065e-11
7.81706e-12
1.4329e-11
-1.85643e-11
9.22581e-12
1.80767e-11
-2.2835e-11
1.06839e-11
2.23331e-11
-2.74255e-11
1.22374e-11
2.7219e-11
-3.24283e-11
1.39384e-11
3.28421e-11
-3.79275e-11
1.58466e-11
3.92876e-11
-4.40058e-11
1.80339e-11
4.65981e-11
-5.07545e-11
2.05897e-11
5.47329e-11
-5.82874e-11
2.36223e-11
6.34799e-11
-6.67506e-11
2.72102e-11
7.22624e-11
-7.6279e-11
3.09294e-11
7.97288e-11
-8.63724e-11
8.34001e-11
-9.82297e-11
1.53104e-13
-4.07644e-13
1.21929e-13
2.92226e-13
-1.18769e-12
3.59116e-13
4.22784e-13
-1.91223e-12
5.9089e-13
5.49573e-13
-2.60732e-12
8.32053e-13
6.76969e-13
-3.29101e-12
1.09558e-12
8.0915e-13
-3.97247e-12
1.39301e-12
9.50424e-13
-4.65048e-12
1.73445e-12
1.10564e-12
-5.31073e-12
2.12804e-12
1.28097e-12
-5.92149e-12
2.5784e-12
1.48554e-12
-6.42683e-12
3.08347e-12
1.73506e-12
-6.73739e-12
3.62887e-12
2.05908e-12
-6.71891e-12
4.17797e-12
2.50998e-12
-6.18156e-12
4.65584e-12
3.15236e-12
-4.89486e-12
4.92877e-12
3.92339e-12
-2.79854e-12
4.8277e-12
-9.72628e-14
4.37323e-12
4.55525e-13
-8.03143e-13
3.62616e-13
8.69334e-13
-2.34047e-12
1.06792e-12
1.25742e-12
-3.7698e-12
1.75689e-12
1.6339e-12
-5.14345e-12
2.47339e-12
2.01162e-12
-6.49838e-12
3.25583e-12
2.40278e-12
-7.85497e-12
4.13843e-12
2.81968e-12
-9.21459e-12
5.15123e-12
3.27555e-12
-1.05551e-11
6.31847e-12
3.78576e-12
-1.18242e-11
7.65414e-12
4.37034e-12
-1.293e-11
9.15279e-12
5.0593e-12
-1.37325e-11
1.0773e-11
5.90172e-12
-1.40472e-11
1.24094e-11
6.97042e-12
-1.36869e-11
1.38497e-11
8.31476e-12
-1.26048e-11
1.473e-11
9.70772e-12
-1.11933e-11
1.46345e-11
-1.06781e-11
1.32648e-11
7.46886e-13
-1.17466e-12
5.9406e-13
1.42501e-12
-3.42424e-12
1.74928e-12
2.0602e-12
-5.51916e-12
2.87701e-12
2.67515e-12
-7.53827e-12
4.04858e-12
3.29051e-12
-9.53894e-12
5.32645e-12
3.92568e-12
-1.15563e-11
6.76639e-12
4.59958e-12
-1.36007e-11
8.41761e-12
5.33106e-12
-1.56528e-11
1.03203e-11
6.13861e-12
-1.76568e-11
1.24989e-11
7.03927e-12
-1.95113e-11
1.49476e-11
8.04624e-12
-2.10653e-11
1.76062e-11
9.16241e-12
-2.21339e-11
2.03188e-11
1.03591e-11
-2.25728e-11
2.27777e-11
1.15133e-11
-2.24595e-11
2.44818e-11
1.2307e-11
-2.22995e-11
2.49094e-11
-2.30418e-11
2.40299e-11
1.0205e-12
-1.51014e-12
8.10718e-13
1.94628e-12
-4.40405e-12
2.38673e-12
2.81186e-12
-7.10454e-12
3.92364e-12
3.64751e-12
-9.7169e-12
5.5178e-12
4.4807e-12
-1.23203e-11
7.25351e-12
5.33705e-12
-1.49682e-11
9.2062e-12
6.24091e-12
-1.76865e-11
1.1443e-11
7.21479e-12
-2.04701e-11
1.40197e-11
8.27672e-12
-2.32766e-11
1.69725e-11
9.43345e-12
-2.6019e-11
2.03012e-11
1.06666e-11
-2.856e-11
2.3939e-11
1.19057e-11
-3.07219e-11
2.77057e-11
1.29826e-11
-3.2334e-11
3.12454e-11
1.35894e-11
-3.3355e-11
3.39897e-11
1.34213e-11
-3.40229e-11
3.53365e-11
-3.50229e-11
3.52291e-11
1.27047e-12
-1.79774e-12
1.0077e-12
2.42168e-12
-5.24528e-12
2.96571e-12
3.49539e-12
-8.47e-12
4.87237e-12
4.52817e-12
-1.16026e-11
6.8457e-12
5.55319e-12
-1.47444e-11
8.98882e-12
6.60135e-12
-1.79695e-11
1.13941e-11
7.70169e-12
-2.13246e-11
1.41444e-11
8.88036e-12
-2.48276e-11
1.73097e-11
1.01563e-11
-2.84634e-11
2.09389e-11
1.15309e-11
-3.21787e-11
2.50414e-11
1.2966e-11
-3.58736e-11
2.9555e-11
1.43431e-11
-3.93922e-11
3.42951e-11
1.53977e-11
-4.25114e-11
3.88865e-11
1.56755e-11
-4.49359e-11
4.27134e-11
1.48204e-11
-4.63727e-11
4.50609e-11
-4.69665e-11
4.5755e-11
1.49199e-12
-2.02614e-12
1.18107e-12
2.84192e-12
-5.91479e-12
3.47452e-12
4.09708e-12
-9.56139e-12
5.70358e-12
5.29884e-12
-1.31195e-11
8.00388e-12
6.48475e-12
-1.67115e-11
1.04936e-11
7.6899e-12
-2.04322e-11
1.32785e-11
8.94758e-12
-2.43511e-11
1.64535e-11
1.02886e-11
-2.85131e-11
2.01003e-11
1.17374e-11
-3.29383e-11
2.42788e-11
1.33026e-11
-3.76203e-11
2.9009e-11
1.49567e-11
-4.25207e-11
3.42387e-11
1.6597e-11
-4.75552e-11
3.97904e-11
1.79788e-11
-5.25482e-11
4.52839e-11
1.86496e-11
-5.71227e-11
5.00611e-11
1.81553e-11
-6.0549e-11
5.32794e-11
-6.14569e-11
5.46617e-11
1.68158e-12
-2.18515e-12
1.32804e-12
3.20035e-12
-6.38256e-12
3.9049e-12
4.60722e-12
-1.03293e-11
6.40352e-12
5.94664e-12
-1.41976e-11
8.97251e-12
7.2589e-12
-1.81275e-11
1.17407e-11
8.58188e-12
-2.2232e-11
1.4823e-11
9.95213e-12
-2.66014e-11
1.83219e-11
1.14052e-11
-3.13057e-11
2.23262e-11
1.29738e-11
-3.63981e-11
2.69022e-11
1.46831e-11
-4.19177e-11
3.20771e-11
1.65399e-11
-4.78924e-11
3.78071e-11
1.85112e-11
-5.43385e-11
4.39228e-11
2.04857e-11
-6.12429e-11
5.00407e-11
2.2213e-11
-6.84753e-11
5.54541e-11
2.32692e-11
-7.54353e-11
5.91648e-11
-8.10591e-11
6.07209e-11
1.83724e-12
1.44708e-12
-2.26625e-12
3.49333e-12
4.25246e-12
-6.62363e-12
5.02076e-12
6.96516e-12
-1.07325e-11
6.46508e-12
9.74188e-12
-1.47778e-11
7.86748e-12
1.27174e-11
-1.89121e-11
9.26665e-12
1.60108e-11
-2.32617e-11
1.07003e-11
1.97271e-11
-2.79319e-11
1.22064e-11
2.3956e-11
-3.30107e-11
1.38235e-11
2.8764e-11
-3.85724e-11
1.55898e-11
3.41779e-11
-4.46818e-11
1.75412e-11
4.01548e-11
-5.1398e-11
1.9704e-11
4.65278e-11
-5.87772e-11
2.20798e-11
5.29147e-11
-6.68636e-11
2.45934e-11
5.85913e-11
-7.56271e-11
2.68361e-11
6.24645e-11
-8.44548e-11
6.34659e-11
-9.41399e-11
1.53525e-13
-4.14097e-13
1.02684e-13
2.92757e-13
-1.20661e-12
3.02327e-13
4.22835e-13
-1.94308e-12
4.97092e-13
5.48165e-13
-2.65031e-12
6.9917e-13
6.72522e-13
-3.3471e-12
9.19065e-13
7.99134e-13
-4.04369e-12
1.16583e-12
9.30745e-13
-4.74056e-12
1.44694e-12
1.06965e-12
-5.42661e-12
1.76756e-12
1.2177e-12
-6.07637e-12
2.129e-12
1.37666e-12
-6.64637e-12
2.52575e-12
1.54944e-12
-7.07166e-12
2.94063e-12
1.74291e-12
-7.26442e-12
3.33803e-12
1.97112e-12
-7.11655e-12
3.65664e-12
2.24897e-12
-6.51178e-12
3.81046e-12
2.53536e-12
-5.41204e-12
3.73183e-12
-3.60047e-12
3.63639e-12
4.56854e-13
-8.15801e-13
3.05392e-13
8.71081e-13
-2.37756e-12
8.99084e-13
1.25787e-12
-3.83024e-12
1.47807e-12
1.63021e-12
-5.22749e-12
2.07848e-12
1.99925e-12
-6.60766e-12
2.73143e-12
2.37445e-12
-7.99294e-12
3.46377e-12
2.76372e-12
-9.38752e-12
4.29775e-12
3.17307e-12
-1.07745e-11
5.24894e-12
3.60603e-12
-1.21112e-11
6.32166e-12
4.06293e-12
-1.3325e-11
7.50052e-12
4.5409e-12
-1.43117e-11
8.73681e-12
5.03513e-12
-1.49483e-11
9.92975e-12
5.53847e-12
-1.51363e-11
1.09081e-11
6.02499e-12
-1.48978e-11
1.1439e-11
6.38951e-12
-1.44935e-11
1.1357e-11
-1.45412e-11
1.07138e-11
7.49313e-13
-1.19306e-12
5.00351e-13
1.42841e-12
-3.47811e-12
1.47284e-12
2.06188e-12
-5.6068e-12
2.42062e-12
2.67071e-12
-7.65976e-12
3.40247e-12
3.27293e-12
-9.69616e-12
4.46901e-12
3.88385e-12
-1.17532e-11
5.66408e-12
4.51581e-12
-1.3844e-11
7.02425e-12
5.17708e-12
-1.59548e-11
8.57573e-12
5.86921e-12
-1.80393e-11
1.03273e-11
6.58225e-12
-2.00147e-11
1.22578e-11
7.28728e-12
-2.17632e-11
1.42959e-11
7.92529e-12
-2.31545e-11
1.62947e-11
8.39358e-12
-2.41124e-11
1.80108e-11
8.54441e-12
-2.47427e-11
1.91299e-11
8.28883e-12
-2.53934e-11
1.94518e-11
-2.65543e-11
1.92537e-11
1.0243e-12
-1.53361e-12
6.829e-13
1.95197e-12
-4.47271e-12
2.00976e-12
2.81599e-12
-7.21602e-12
3.30161e-12
3.64452e-12
-9.87093e-12
4.63782e-12
4.46186e-12
-1.25185e-11
6.08677e-12
5.28865e-12
-1.52138e-11
7.7079e-12
6.14135e-12
-1.79851e-11
9.55127e-12
7.03009e-12
-2.08307e-11
1.16538e-11
7.95353e-12
-2.37144e-11
1.40309e-11
8.88888e-12
-2.65608e-11
1.66607e-11
9.7744e-12
-2.92543e-11
1.94613e-11
1.04821e-11
-3.16509e-11
2.22618e-11
1.07889e-11
-3.36218e-11
2.47843e-11
1.04037e-11
-3.51393e-11
2.66822e-11
9.28528e-12
-3.63359e-11
2.77247e-11
-3.75829e-11
2.8173e-11
1.27595e-12
-1.82544e-12
8.48937e-13
2.43036e-12
-5.32625e-12
2.49764e-12
3.50333e-12
-8.60123e-12
4.10054e-12
4.52914e-12
-1.17833e-11
5.7549e-12
5.53756e-12
-1.49754e-11
7.54443e-12
6.55415e-12
-1.82529e-11
9.54207e-12
7.59965e-12
-2.16631e-11
1.18098e-11
8.6874e-12
-2.52241e-11
1.43946e-11
9.8168e-12
-2.89217e-11
1.73192e-11
1.09603e-11
-3.27035e-11
2.05652e-11
1.20393e-11
-3.64728e-11
2.40482e-11
1.2885e-11
-4.00791e-11
2.75868e-11
1.31925e-11
-4.3305e-11
3.08839e-11
1.25445e-11
-4.58516e-11
3.35645e-11
1.08463e-11
-4.73886e-11
3.53393e-11
-4.78944e-11
3.641e-11
1.49942e-12
-2.0571e-12
9.95149e-13
2.85424e-12
-6.00523e-12
2.92661e-12
4.11012e-12
-9.70772e-12
4.80091e-12
5.30617e-12
-1.33204e-11
6.72984e-12
6.47657e-12
-1.69669e-11
8.80944e-12
7.65123e-12
-2.07425e-11
1.11233e-11
8.85545e-12
-2.47155e-11
1.37429e-11
1.01079e-11
-2.89277e-11
1.67231e-11
1.14147e-11
-3.33935e-11
2.00933e-11
1.27581e-11
-3.80963e-11
2.38393e-11
1.40743e-11
-4.29808e-11
2.78767e-11
1.52164e-11
-4.79349e-11
3.20167e-11
1.59051e-11
-5.27411e-11
3.59406e-11
1.57252e-11
-5.69724e-11
3.92267e-11
1.44676e-11
-5.9896e-11
4.15077e-11
-6.01689e-11
4.29718e-11
1.69115e-12
-2.21829e-12
1.11917e-12
3.2168e-12
-6.47931e-12
3.28971e-12
4.62636e-12
-1.04856e-11
5.3911e-12
5.9622e-12
-1.44117e-11
7.54596e-12
7.26157e-12
-1.83986e-11
9.85912e-12
8.5576e-12
-2.25589e-11
1.24215e-11
9.87968e-12
-2.698e-11
1.53103e-11
1.12525e-11
-3.17261e-11
1.85855e-11
1.26929e-11
-3.68394e-11
2.22798e-11
1.42029e-11
-4.23395e-11
2.6381e-11
1.57574e-11
-4.82215e-11
3.08033e-11
1.72833e-11
-5.44469e-11
3.53474e-11
1.86338e-11
-6.09168e-11
3.96619e-11
1.95808e-11
-6.73914e-11
4.32458e-11
1.99155e-11
-7.32499e-11
4.5609e-11
-7.75026e-11
4.69179e-11
1.84904e-12
1.2197e-12
-2.30042e-12
3.51416e-12
3.58317e-12
-6.72336e-12
5.04656e-12
5.86513e-12
-1.08935e-11
6.49004e-12
8.195e-12
-1.49981e-11
7.88316e-12
1.06826e-11
-1.91903e-11
9.26057e-12
1.34222e-11
-2.35954e-11
1.06539e-11
1.64933e-11
-2.8315e-11
1.2092e-11
1.99564e-11
-3.34292e-11
1.36e-11
2.38434e-11
-3.89985e-11
1.51971e-11
2.81403e-11
-4.50636e-11
1.6892e-11
3.2757e-11
-5.16439e-11
1.86755e-11
3.74846e-11
-5.87322e-11
2.05127e-11
4.19444e-11
-6.62779e-11
2.2331e-11
4.55682e-11
-7.41371e-11
2.38994e-11
4.77502e-11
-8.17081e-11
4.82581e-11
-8.97606e-11
1.53553e-13
-4.19252e-13
8.00159e-14
2.92531e-13
-1.22171e-12
2.35515e-13
4.21787e-13
-1.96771e-12
3.86999e-13
5.45328e-13
-2.68461e-12
5.43789e-13
6.66338e-13
-3.39181e-12
7.13784e-13
7.87155e-13
-4.10035e-12
9.03585e-13
9.09154e-13
-4.81206e-12
1.11832e-12
1.03253e-12
-5.51826e-12
1.36101e-12
1.15594e-12
-6.1979e-12
1.63127e-12
1.27639e-12
-6.81546e-12
1.92312e-12
1.38986e-12
-7.31952e-12
2.22203e-12
1.49399e-12
-7.64303e-12
2.50182e-12
1.59341e-12
-7.70293e-12
2.72424e-12
1.70386e-12
-7.39367e-12
2.84762e-12
1.82811e-12
-6.62028e-12
2.85432e-12
-4.98e-12
2.95822e-12
4.57022e-13
-8.25918e-13
2.37983e-13
8.70596e-13
-2.40719e-12
7.00424e-13
1.25507e-12
-3.87848e-12
1.15078e-12
1.62228e-12
-5.29447e-12
1.61666e-12
1.98169e-12
-6.69452e-12
2.12146e-12
2.34023e-12
-8.10219e-12
2.68479e-12
2.70195e-12
-9.5238e-12
3.32196e-12
3.06698e-12
-1.09462e-11
4.04214e-12
3.43014e-12
-1.23335e-11
4.84457e-12
3.77921e-12
-1.36247e-11
5.71244e-12
4.09442e-12
-1.47345e-11
6.6044e-12
4.35162e-12
-1.55645e-11
7.44625e-12
4.53283e-12
-1.60338e-11
8.12994e-12
4.64389e-12
-1.61326e-11
8.538e-12
4.7149e-12
-1.59824e-11
8.62198e-12
-1.59531e-11
8.4078e-12
7.49851e-13
-1.20776e-12
3.89936e-13
1.42818e-12
-3.52112e-12
1.1475e-12
2.05824e-12
-5.67665e-12
1.88479e-12
2.65928e-12
-7.75629e-12
2.64672e-12
3.24677e-12
-9.82045e-12
3.47137e-12
3.83218e-12
-1.19077e-11
4.39079e-12
4.42209e-12
-1.40335e-11
5.43026e-12
5.01626e-12
-1.61872e-11
6.60544e-12
5.60396e-12
-1.83287e-11
7.91663e-12
6.15872e-12
-2.03855e-11
9.33952e-12
6.63191e-12
-2.22551e-11
1.08131e-11
6.94863e-12
-2.38245e-11
1.22286e-11
7.01608e-12
-2.50199e-11
1.34314e-11
6.77171e-12
-2.58951e-11
1.42606e-11
6.32109e-12
-2.66632e-11
1.46543e-11
-2.76622e-11
1.47806e-11
1.02553e-12
-1.55234e-12
5.32257e-13
1.95271e-12
-4.52743e-12
1.56599e-12
2.81284e-12
-7.30463e-12
2.57106e-12
3.63192e-12
-9.99274e-12
3.60813e-12
4.43111e-12
-1.2674e-11
4.72865e-12
5.22641e-12
-1.54046e-11
5.97616e-12
6.0274e-12
-1.82139e-11
7.3854e-12
6.83427e-12
-2.11016e-11
8.97881e-12
7.63201e-12
-2.40344e-11
1.07595e-11
8.38071e-12
-2.69411e-11
1.26999e-11
9.00123e-12
-2.97118e-11
1.4728e-11
9.35916e-12
-3.22066e-11
1.67157e-11
9.26429e-12
-3.42862e-11
1.84857e-11
8.54724e-12
-3.5875e-11
1.98619e-11
7.36999e-12
-3.70202e-11
2.07676e-11
-3.80231e-11
2.13441e-11
1.27823e-12
-1.8475e-12
6.61755e-13
2.43286e-12
-5.39062e-12
1.9464e-12
3.50216e-12
-8.70513e-12
3.19366e-12
4.51803e-12
-1.19254e-11
4.47787e-12
5.50682e-12
-1.51553e-11
5.86209e-12
6.48913e-12
-1.84704e-11
7.39981e-12
7.47845e-12
-2.19175e-11
9.13417e-12
8.47789e-12
-2.55135e-11
1.1094e-11
9.47338e-12
-2.92414e-11
1.32861e-11
1.04216e-11
-3.30447e-11
1.56827e-11
1.12307e-11
-3.68192e-11
1.82056e-11
1.17343e-11
-4.04011e-11
2.07149e-11
1.16755e-11
-4.35485e-11
2.30168e-11
1.07758e-11
-4.59246e-11
2.4918e-11
9.13424e-12
-4.71773e-11
2.63094e-11
-4.73032e-11
2.72957e-11
1.50308e-12
-2.08169e-12
7.75844e-13
2.85928e-12
-6.07688e-12
2.28105e-12
4.11238e-12
-9.82308e-12
3.73974e-12
5.29912e-12
-1.34774e-11
5.2374e-12
6.45029e-12
-1.71641e-11
6.84643e-12
7.59089e-12
-2.09777e-11
8.62827e-12
8.73921e-12
-2.49841e-11
1.06327e-11
9.90418e-12
-2.92207e-11
1.28936e-11
1.10797e-11
-3.36936e-11
1.5421e-11
1.22342e-11
-3.83727e-11
1.8187e-11
1.32941e-11
-4.31815e-11
2.11085e-11
1.41194e-11
-4.79754e-11
2.40321e-11
1.44837e-11
-5.2494e-11
2.67395e-11
1.41105e-11
-5.62726e-11
2.89999e-11
1.2971e-11
-5.86152e-11
3.06643e-11
-5.83428e-11
3.18552e-11
1.69646e-12
-2.24453e-12
8.7267e-13
3.225e-12
-6.55573e-12
2.56446e-12
4.63327e-12
-1.06084e-11
4.20019e-12
5.9614e-12
-1.45783e-11
5.87368e-12
7.24348e-12
-1.86064e-11
7.66404e-12
8.50814e-12
-2.28038e-11
9.63815e-12
9.77836e-12
-2.72541e-11
1.185e-11
1.10702e-11
-3.20142e-11
1.43364e-11
1.23895e-11
-3.71134e-11
1.71087e-11
1.37269e-11
-4.25508e-11
2.01374e-11
1.50491e-11
-4.82891e-11
2.3333e-11
1.629e-11
-5.42429e-11
2.65246e-11
1.73504e-11
-6.02532e-11
2.94551e-11
1.81253e-11
-6.60341e-11
3.18245e-11
1.85703e-11
-7.10341e-11
3.34144e-11
-7.45003e-11
3.43968e-11
1.85615e-12
9.51197e-13
-2.3274e-12
3.52592e-12
2.79366e-12
-6.8019e-12
5.05892e-12
4.57031e-12
-1.10196e-11
6.49698e-12
6.38022e-12
-1.51687e-11
7.87588e-12
8.30642e-12
-1.94021e-11
9.22633e-12
1.04184e-11
-2.38431e-11
1.05744e-11
1.27717e-11
-2.85883e-11
1.19416e-11
1.54034e-11
-3.37089e-11
1.33438e-11
1.83235e-11
-3.92503e-11
1.47903e-11
2.14998e-11
-4.5229e-11
1.62826e-11
2.48355e-11
-5.16282e-11
1.78157e-11
2.81444e-11
-5.83903e-11
1.939e-11
3.11343e-11
-6.54053e-11
2.10282e-11
3.34366e-11
-7.24911e-11
2.26379e-11
3.47527e-11
-7.91433e-11
3.50579e-11
-8.63316e-11
1.53364e-13
-4.23079e-13
5.47575e-14
2.91931e-13
-1.23293e-12
1.61135e-13
4.20294e-13
-1.98601e-12
2.64658e-13
5.42115e-13
-2.7101e-12
3.71613e-13
6.60078e-13
-3.42496e-12
4.87252e-13
7.75808e-13
-4.14216e-12
6.15858e-13
8.89685e-13
-4.86438e-12
7.60599e-13
1.00049e-12
-5.58443e-12
9.23072e-13
1.10505e-12
-6.28365e-12
1.10244e-12
1.19823e-12
-6.93018e-12
1.29415e-12
1.27415e-12
-7.47753e-12
1.48846e-12
1.33019e-12
-7.86304e-12
1.66959e-12
1.37541e-12
-8.00219e-12
1.8172e-12
1.43927e-12
-7.77178e-12
1.91306e-12
1.5468e-12
-7.03724e-12
1.95193e-12
-5.35599e-12
2.08498e-12
4.56548e-13
-8.33453e-13
1.62867e-13
8.68992e-13
-2.42926e-12
4.79243e-13
1.25092e-12
-3.9144e-12
7.87037e-13
1.61317e-12
-5.34424e-12
1.10486e-12
1.96379e-12
-6.75882e-12
1.44827e-12
2.30769e-12
-8.18252e-12
1.83e-12
2.64607e-12
-9.623e-12
2.25953e-12
2.97519e-12
-1.10692e-11
2.74174e-12
3.28491e-12
-1.24887e-11
3.27444e-12
3.55767e-12
-1.38255e-11
3.84469e-12
3.77004e-12
-1.49996e-11
4.42467e-12
3.90092e-12
-1.59147e-11
4.96923e-12
3.95199e-12
-1.64762e-11
5.4196e-12
3.97797e-12
-1.66274e-11
5.72042e-12
4.0696e-12
-1.64166e-11
5.85129e-12
-1.61653e-11
5.79402e-12
7.49329e-13
-1.21872e-12
2.66878e-13
1.42607e-12
-3.55319e-12
7.85211e-13
2.05231e-12
-5.72862e-12
1.28917e-12
2.64573e-12
-7.82788e-12
1.80901e-12
3.21967e-12
-9.91208e-12
2.37006e-12
3.78256e-12
-1.20207e-11
2.99318e-12
4.33677e-12
-1.41701e-11
3.69403e-12
4.87642e-12
-1.63514e-11
4.48111e-12
5.38408e-12
-1.8527e-11
5.35186e-12
5.82692e-12
-2.06272e-11
6.28718e-12
6.15458e-12
-2.25519e-11
7.24561e-12
6.30403e-12
-2.41833e-11
8.16022e-12
6.22415e-12
-2.54243e-11
8.9453e-12
5.93729e-12
-2.62716e-11
9.52144e-12
5.62402e-12
-2.6875e-11
9.85665e-12
-2.75732e-11
1.00131e-11
1.02527e-12
-1.56631e-12
3.64323e-13
1.95078e-12
-4.5682e-12
1.0717e-12
2.80633e-12
-7.37043e-12
1.75877e-12
3.616e-12
-1.00827e-11
2.4664e-12
4.39833e-12
-1.2788e-11
3.22886e-12
5.16564e-12
-1.55428e-11
4.07447e-12
5.92249e-12
-1.83766e-11
5.02487e-12
6.6626e-12
-2.12892e-11
6.09238e-12
7.36381e-12
-2.42468e-11
7.27528e-12
7.98074e-12
-2.7177e-11
8.55114e-12
8.4366e-12
-2.99657e-11
9.87001e-12
8.61919e-12
-3.24614e-11
1.11519e-11
8.39906e-12
-3.44977e-11
1.22971e-11
7.71401e-12
-3.59518e-11
1.32174e-11
6.79188e-12
-3.68397e-11
1.38688e-11
-3.75009e-11
1.42901e-11
1.27856e-12
-1.86392e-12
4.53018e-13
2.43186e-12
-5.43847e-12
1.3322e-12
3.49645e-12
-8.78206e-12
2.18494e-12
4.50213e-12
-1.20299e-11
3.06133e-12
5.47242e-12
-1.52862e-11
4.00337e-12
6.42396e-12
-1.86262e-11
5.04594e-12
7.36493e-12
-2.20955e-11
6.21593e-12
8.29194e-12
-2.57086e-11
7.52936e-12
9.18418e-12
-2.94442e-11
8.98595e-12
9.99464e-12
-3.32385e-11
1.05616e-11
1.06378e-11
-3.69756e-11
1.22006e-11
1.09773e-11
-4.04729e-11
1.38133e-11
1.08287e-11
-4.34616e-11
1.52879e-11
1.00304e-11
-4.55772e-11
1.65244e-11
8.73423e-12
-4.64788e-11
1.74597e-11
-4.62411e-11
1.81119e-11
1.50433e-12
-2.09996e-12
5.3119e-13
2.85992e-12
-6.13001e-12
1.56145e-12
4.10882e-12
-9.90822e-12
2.55888e-12
5.28561e-12
-1.35924e-11
3.5811e-12
6.41826e-12
-1.73066e-11
4.67638e-12
7.52784e-12
-2.11443e-11
5.8848e-12
8.6275e-12
-2.51687e-11
7.23744e-12
9.72007e-12
-2.94121e-11
8.7532e-12
1.07936e-11
-3.38724e-11
1.04329e-11
1.18143e-11
-3.85061e-11
1.22509e-11
1.27173e-11
-4.32172e-11
1.41456e-11
1.33958e-11
-4.78353e-11
1.60154e-11
1.36987e-11
-5.20729e-11
1.77288e-11
1.34656e-11
-5.54565e-11
1.9161e-11
1.27119e-11
-5.73473e-11
2.02294e-11
-5.67211e-11
2.09755e-11
1.69889e-12
-2.26399e-12
5.97558e-13
3.2279e-12
-6.61225e-12
1.75568e-12
4.633e-12
-1.06987e-11
2.87433e-12
5.9523e-12
-1.46996e-11
4.01678e-12
7.2172e-12
-1.87554e-11
5.23582e-12
8.45271e-12
-2.29755e-11
6.57513e-12
9.67709e-12
-2.74392e-11
8.06844e-12
1.09009e-11
-3.21965e-11
9.7362e-12
1.21251e-11
-3.72649e-11
1.15793e-11
1.33389e-11
-4.26257e-11
1.35697e-11
1.45179e-11
-4.82164e-11
1.56389e-11
1.56274e-11
-5.39204e-11
1.76694e-11
1.66376e-11
-5.95506e-11
1.95e-11
1.75507e-11
-6.48238e-11
2.09596e-11
1.83641e-11
-6.92784e-11
2.1931e-11
-7.23487e-11
2.25129e-11
1.85996e-12
6.51404e-13
-2.34736e-12
3.53152e-12
1.91282e-12
-6.85985e-12
5.0628e-12
3.12803e-12
-1.1112e-11
6.49378e-12
4.36389e-12
-1.52924e-11
7.85787e-12
5.67587e-12
-1.95532e-11
9.18257e-12
7.10945e-12
-2.40152e-11
1.04898e-11
8.69926e-12
-2.87703e-11
1.17963e-11
1.04658e-11
-3.38813e-11
1.31138e-11
1.24088e-11
-3.938e-11
1.44503e-11
1.44972e-11
-4.52633e-11
1.58148e-11
1.66561e-11
-5.14876e-11
1.72281e-11
1.87543e-11