/*--------------------------------*- C++ -*----------------------------------*\
| =========                 |                                                 |
| \\      /  F ield         | OpenFOAM: The Open Source CFD Toolbox           |
|  \\    /   O peration     | Version:  v1912                                 |
|   \\  /    A nd           | Website:  www.openfoam.com                      |
|    \\/     M anipulation  |                                                 |
\*---------------------------------------------------------------------------*/
FoamFile
{
    version     2.0;
    format      ascii;
    class       volScalarField;
    location    "0.77/fluid";
    object      p;
}
// * * * * * * * * * * * * * * * * * * * * * * * * * * * * * * * * * * * * * //

dimensions      [0 2 -2 0 0 0 0];


internalField   nonuniform List<scalar> 
14592
(
0.0514592
0.0458393
0.0439376
0.0423418
0.0414371
0.0407502
0.0402297
0.0397908
0.0393829
0.0390565
0.0386805
0.0385092
0.0380506
0.0382935
0.0375147
0.0393569
0.0472967
0.045548
0.0438676
0.0425036
0.0415879
0.0408779
0.0403281
0.039873
0.0394592
0.0391386
0.0387756
0.0386387
0.0382156
0.0385978
0.0377747
0.0405739
0.0453071
0.0446961
0.0434617
0.0424587
0.0416177
0.0409329
0.0403709
0.0399053
0.039487
0.0391746
0.0388349
0.0387533
0.0383946
0.0389664
0.0382126
0.0418135
0.0441281
0.0439849
0.0431254
0.0423708
0.041621
0.0409669
0.0403929
0.0399079
0.039472
0.0391538
0.0388225
0.0387828
0.0384842
0.039223
0.0385865
0.0426553
0.0434274
0.0434082
0.0427815
0.0421896
0.0415242
0.0409063
0.04033
0.0398261
0.0393621
0.0390141
0.0386516
0.0385935
0.0382721
0.0390675
0.03845
0.0428518
0.0429724
0.0429898
0.042509
0.042014
0.0414079
0.040814
0.040233
0.0397087
0.0392154
0.0388372
0.0384484
0.0383888
0.0380888
0.0390303
0.038584
0.0435306
0.0426748
0.0426979
0.0422925
0.0418469
0.0412715
0.0406839
0.040086
0.039525
0.0389757
0.0385176
0.0380177
0.0378005
0.0372629
0.0379126
0.0369191
0.0419481
0.0424962
0.0425203
0.0421461
0.0417184
0.0411499
0.040554
0.0399332
0.0393358
0.0387392
0.0382212
0.037659
0.0373824
0.0368248
0.0376437
0.0369171
0.0443541
0.0513751
0.0457572
0.0438929
0.0423383
0.0414871
0.0408594
0.0404056
0.0400416
0.0397203
0.0394903
0.03923
0.0391568
0.0388381
0.0389927
0.0383394
0.0389541
0.0472127
0.0454642
0.043822
0.0424999
0.0416381
0.040988
0.0405056
0.040126
0.0397995
0.039576
0.0393279
0.0392843
0.0389863
0.0392271
0.0385016
0.0395173
0.0452191
0.0446065
0.0434091
0.0424476
0.0416609
0.041037
0.040543
0.0401537
0.0398229
0.039608
0.0393816
0.0393906
0.039147
0.0395376
0.0388299
0.0402902
0.0440376
0.0438923
0.0430685
0.0423543
0.0416579
0.041064
0.0405574
0.0401481
0.0397988
0.0395778
0.0393582
0.0394085
0.0392167
0.0397551
0.0391276
0.0408712
0.0433338
0.0433123
0.04272
0.0421672
0.0415537
0.0409942
0.0404832
0.0400525
0.0396714
0.0394166
0.0391581
0.0391841
0.0389506
0.0395299
0.038864
0.0408456
0.0428759
0.0428911
0.0424438
0.0419867
0.0414305
0.0408928
0.0403745
0.0399204
0.0395059
0.0392175
0.0389272
0.038952
0.0387297
0.0394673
0.0389349
0.041421
0.0425749
0.0425957
0.0422229
0.041814
0.0412866
0.0407521
0.0402128
0.0397167
0.0392382
0.0388597
0.0384403
0.0382899
0.0377828
0.0382108
0.0369832
0.03955
0.0423924
0.0424142
0.0420721
0.0416799
0.0411576
0.040612
0.0400463
0.0395091
0.038977
0.0385326
0.0380422
0.0378344
0.0372991
0.037957
0.0369549
0.0420029
0.0513259
0.0457097
0.0438739
0.0423529
0.0415475
0.0409731
0.0405835
0.0402961
0.0400721
0.0399632
0.0398755
0.0400105
0.0400521
0.0405484
0.0406963
0.0414346
0.0471635
0.0454154
0.0438025
0.0425145
0.0416993
0.0411032
0.0406857
0.0403838
0.0401562
0.0400557
0.0399831
0.0401499
0.0402175
0.0407915
0.0409195
0.0419547
0.045166
0.0445524
0.0433831
0.0424553
0.0417154
0.0411464
0.040718
0.0404071
0.0401755
0.0400847
0.0400342
0.040257
0.0403846
0.0411182
0.041308
0.0427371
0.0439816
0.0438349
0.043038
0.0423565
0.0417061
0.0411664
0.0407248
0.0403935
0.0401429
0.0400464
0.0400026
0.0402708
0.0404541
0.0413476
0.0416414
0.0433387
0.0432744
0.0432513
0.0426847
0.0421633
0.0415941
0.0410874
0.0406393
0.0402842
0.0399982
0.0398644
0.0397752
0.0400159
0.0401454
0.0410813
0.0413147
0.0432414
0.0428133
0.0428268
0.0424043
0.0419774
0.0414638
0.0409767
0.0405186
0.040137
0.0398132
0.0396415
0.0395127
0.0397493
0.0398747
0.0409752
0.0413024
0.0437368
0.0425085
0.0425277
0.0421789
0.0417989
0.0413119
0.0408253
0.0403423
0.0399131
0.0395166
0.0392432
0.038964
0.0390006
0.0387795
0.0395226
0.0389676
0.041446
0.0423222
0.0423424
0.0420236
0.0416591
0.0411753
0.0406749
0.0401615
0.039686
0.0392279
0.0388785
0.038511
0.0384737
0.0381795
0.0391404
0.0386699
0.0436484
0.0512991
0.045684
0.0438695
0.0423744
0.0416044
0.0410712
0.0407298
0.0404965
0.0403359
0.0402921
0.0402836
0.0404722
0.0406
0.0410543
0.0412695
0.0417741
0.0471367
0.0453888
0.0437977
0.0425361
0.0417569
0.0412024
0.0408336
0.0405864
0.0404226
0.0403878
0.0403943
0.040612
0.0407614
0.0412688
0.0414551
0.0421596
0.0451356
0.0445211
0.0433726
0.0424707
0.0417672
0.0412403
0.0408611
0.0406053
0.0404372
0.0404115
0.0404373
0.040706
0.0409043
0.0415474
0.0417687
0.0427805
0.0439484
0.0438005
0.0430233
0.0423669
0.0417521
0.041254
0.040861
0.0405844
0.0403963
0.040364
0.0403938
0.0407053
0.0409503
0.0417392
0.04204
0.0432814
0.0432377
0.0432133
0.0426654
0.0421678
0.0416331
0.0411666
0.0407655
0.0404632
0.0402368
0.0401643
0.0401428
0.0404216
0.0405985
0.0414185
0.041623
0.0430722
0.0427734
0.0427856
0.0423811
0.0419769
0.0414962
0.0410478
0.0406346
0.0403034
0.0400361
0.039923
0.0398566
0.0401297
0.0402911
0.0412757
0.0415421
0.0434904
0.0424652
0.042483
0.0421515
0.0417932
0.0413373
0.0408872
0.0404462
0.0400637
0.0397183
0.0394974
0.0392697
0.0393346
0.0391243
0.0397446
0.0390618
0.041045
0.0422752
0.0422942
0.0419922
0.0416484
0.0411941
0.0407282
0.040254
0.0398218
0.0394101
0.0391088
0.0387857
0.0387757
0.0384803
0.0393333
0.0386968
0.0431742
0.0512873
0.0456732
0.0438751
0.0424005
0.0416593
0.0411604
0.0408609
0.0406764
0.040576
0.0405999
0.0406807
0.0409539
0.0412155
0.0417392
0.0421331
0.0425798
0.047125
0.0453774
0.0438032
0.0425626
0.0418127
0.041293
0.0409666
0.040769
0.0406665
0.0407006
0.0407982
0.0411017
0.0413869
0.0419579
0.0423252
0.0429326
0.0451208
0.0445058
0.0433733
0.0424922
0.0418181
0.0413265
0.0409902
0.0407844
0.0406775
0.0407204
0.0408357
0.0411878
0.0415161
0.042211
0.0426052
0.0434808
0.0439311
0.0437825
0.0430204
0.0423839
0.041798
0.0413348
0.0409842
0.0407572
0.0406295
0.0406655
0.040783
0.0411769
0.0415472
0.0423824
0.0428451
0.0439361
0.0432173
0.0431921
0.0426584
0.0421799
0.0416728
0.0412402
0.0408801
0.0406258
0.0404574
0.0404506
0.0405119
0.0408695
0.0411612
0.0420209
0.0423643
0.0436538
0.0427502
0.0427616
0.0423706
0.0419845
0.0415302
0.0411141
0.04074
0.0404548
0.0402424
0.0401921
0.0402032
0.0405519
0.0408167
0.0418377
0.0422154
0.0439988
0.0424388
0.0424558
0.0421373
0.0417959
0.0413652
0.0409455
0.0405409
0.0402011
0.0399055
0.0397417
0.0395812
0.0397121
0.0395813
0.0402239
0.0395924
0.0413921
0.0422457
0.0422639
0.0419743
0.0416468
0.0412161
0.0407787
0.0403384
0.0399454
0.0395787
0.0393289
0.0390637
0.0391121
0.038876
0.0397442
0.039107
0.0433833
0.0512834
0.04567
0.0438832
0.0424232
0.0417022
0.0412271
0.0409558
0.0408024
0.0407377
0.0407961
0.0409171
0.0412132
0.0415098
0.0420132
0.0424234
0.0428172
0.0471211
0.0453736
0.0438113
0.0425855
0.0418562
0.0413606
0.0410627
0.0408965
0.0408301
0.0408991
0.0410371
0.0413628
0.0416819
0.0422264
0.0426059
0.0431351
0.0451145
0.044499
0.0433778
0.0425112
0.0418579
0.0413908
0.0410831
0.040909
0.0408378
0.040915
0.0410685
0.0414392
0.0417943
0.0424501
0.042843
0.0436155
0.0439228
0.0437736
0.0430221
0.0423996
0.0418339
0.0413949
0.0410726
0.0408769
0.0407843
0.0408538
0.0410076
0.0414178
0.0418089
0.0425977
0.0430456
0.0440238
0.0432066
0.0431806
0.0426568
0.0421916
0.041704
0.0412946
0.0409619
0.0407378
0.0406028
0.0406278
0.040722
0.0410929
0.0413973
0.0422043
0.0425149
0.0436863
0.0427371
0.0427477
0.0423662
0.0419927
0.0415569
0.041163
0.0408151
0.0405587
0.0403778
0.0403576
0.0403983
0.0407586
0.0410289
0.0419945
0.0423217
0.0439846
0.0424232
0.0424395
0.0421299
0.0418005
0.0413872
0.0409885
0.0406083
0.0402953
0.0400284
0.0398917
0.0397558
0.0398951
0.0397593
0.0403424
0.0396327
0.0413017
0.0422277
0.0422452
0.0419642
0.0416479
0.0412338
0.0408161
0.0403985
0.0400303
0.0396896
0.0394646
0.0392199
0.0392754
0.0390273
0.039837
0.039102
0.0432382
0.0512835
0.0456705
0.0438914
0.0424412
0.041734
0.0412754
0.0410242
0.0408937
0.0408563
0.0409431
0.0410991
0.0414228
0.041759
0.0422716
0.0427145
0.0430852
0.0471212
0.0453739
0.0438194
0.0426037
0.0418885
0.0414098
0.0411323
0.0409894
0.0409508
0.0410489
0.0412227
0.0415767
0.0419362
0.0424884
0.0429007
0.0433931
0.0451129
0.0444972
0.0433835
0.0425268
0.0418877
0.0414376
0.0411506
0.0409999
0.0409565
0.0410625
0.0412507
0.0416478
0.0420394
0.0426963
0.043115
0.0438379
0.0439198
0.0437703
0.0430258
0.0424128
0.041861
0.0414388
0.041137
0.0409645
0.0408992
0.0409972
0.0411845
0.04162
0.0420441
0.0428303
0.0432964
0.04422
0.0432019
0.0431755
0.0426583
0.0422021
0.0417278
0.0413347
0.0410217
0.0408201
0.0407112
0.0407635
0.0408888
0.041283
0.0416153
0.0424157
0.0427337
0.0438477
0.0427308
0.042741
0.0423658
0.0420007
0.0415776
0.0411993
0.0408701
0.0406351
0.040479
0.0404846
0.0405538
0.0409357
0.0412285
0.0421847
0.042507
0.044111
0.0424151
0.042431
0.0421273
0.0418059
0.0414046
0.0410204
0.0406578
0.0403647
0.0401204
0.0400073
0.0398961
0.0400538
0.0399326
0.0405017
0.0397675
0.0413691
0.0422178
0.042235
0.0419596
0.0416509
0.041248
0.040844
0.0404427
0.0400929
0.0397725
0.0395687
0.0393451
0.0394162
0.0391756
0.0399683
0.039192
0.0432543
0.0512838
0.0456717
0.0438956
0.0424504
0.0417495
0.0412986
0.0410562
0.0409353
0.0409084
0.0410047
0.0411712
0.0414991
0.0418422
0.0423474
0.0427927
0.0431542
0.047122
0.0453745
0.0438238
0.0426129
0.0419042
0.0414332
0.0411646
0.0410312
0.0410031
0.0411104
0.0412943
0.0416517
0.0420171
0.0425601
0.0429744
0.0434527
0.0451127
0.0444969
0.0433868
0.0425347
0.0419022
0.0414599
0.0411818
0.0410405
0.0410072
0.0411219
0.0413189
0.0417177
0.0421121
0.0427556
0.0431726
0.0438765
0.043919
0.0437691
0.0430281
0.0424195
0.0418742
0.0414596
0.0411665
0.0410033
0.0409479
0.0410542
0.0412494
0.0416857
0.0421106
0.0428807
0.0433412
0.0442437
0.0432001
0.0431734
0.0426595
0.0422074
0.0417393
0.0413535
0.041049
0.0408564
0.0407569
0.040817
0.0409494
0.0413436
0.0416745
0.0424572
0.0427646
0.043856
0.0427282
0.0427381
0.0423659
0.0420048
0.0415875
0.0412162
0.0408951
0.0406688
0.0405215
0.0405345
0.04061
0.0409913
0.0412807
0.0422176
0.0425233
0.0441032
0.0424116
0.0424273
0.0421264
0.0418087
0.041413
0.0410354
0.0406804
0.0403954
0.0401592
0.040053
0.0399471
0.0401039
0.0399774
0.0405267
0.0397695
0.0413436
0.0422134
0.0422304
0.0419577
0.0416525
0.0412549
0.0408571
0.0404629
0.0401206
0.0398077
0.0396102
0.0393909
0.0394606
0.0392126
0.0399838
0.0391769
0.0432046
0.0607555
0.0500044
0.04635
0.0433566
0.0416372
0.0403077
0.0392784
0.0383487
0.0374477
0.0365236
0.0354984
0.0343888
0.0330591
0.0316258
0.0298357
0.0280156
0.0564914
0.0492579
0.0459818
0.0432708
0.0416049
0.0403025
0.0392825
0.0383592
0.0374654
0.036551
0.0355361
0.0344399
0.0331245
0.0317095
0.0299343
0.0281249
0.0544816
0.0482114
0.0453395
0.0429643
0.0414272
0.0402083
0.0392255
0.038324
0.0374446
0.0365437
0.0355438
0.0344651
0.0331753
0.0317901
0.0300507
0.0282701
0.0532343
0.047405
0.0448696
0.0427265
0.0413046
0.0401518
0.0391944
0.0383029
0.0374261
0.0365261
0.0355296
0.0344576
0.033182
0.0318146
0.0301005
0.0283433
0.0524894
0.0467906
0.0444614
0.0424724
0.041149
0.0400577
0.039129
0.0382496
0.0373755
0.0364736
0.0354764
0.034405
0.0331378
0.0317817
0.0300913
0.0283585
0.0520069
0.0463574
0.044163
0.0422708
0.0410173
0.0399688
0.0390602
0.0381871
0.0373111
0.0364035
0.0354022
0.034328
0.0330671
0.0317204
0.0300568
0.0283518
0.0517022
0.046067
0.0439448
0.0421061
0.0408947
0.0398717
0.0389749
0.0381027
0.0372204
0.0363029
0.0352925
0.0342088
0.032948
0.031603
0.0299665
0.0282908
0.0515321
0.0459016
0.0438112
0.0419948
0.0408009
0.039786
0.0388907
0.0380133
0.0371218
0.0361935
0.0351752
0.0340839
0.032828
0.03149
0.0298893
0.0282495
0.0564927
0.0492571
0.0459784
0.0432635
0.0415924
0.0402831
0.0392561
0.0383268
0.0374211
0.0364896
0.0354533
0.0343352
0.0329886
0.03155
0.0297327
0.0279283
0.0523032
0.0488727
0.0457927
0.0433021
0.041642
0.0403299
0.0392886
0.0383506
0.0374407
0.036508
0.0354731
0.0343594
0.0330199
0.0315959
0.0297959
0.0280045
0.0502917
0.0479205
0.045228
0.043067
0.0415117
0.0402641
0.0392462
0.0383216
0.0374192
0.0364934
0.0354683
0.0343672
0.0330489
0.0316477
0.029877
0.0281128
0.0490593
0.0471351
0.0447909
0.0428637
0.0414174
0.0402288
0.0392297
0.0383094
0.0374045
0.0364765
0.0354527
0.0343566
0.0330514
0.031667
0.0299206
0.0281787
0.0483204
0.0465168
0.0443892
0.0426186
0.0412699
0.0401412
0.0391697
0.0382599
0.037356
0.0364258
0.0354014
0.0343063
0.0330099
0.0316367
0.0299141
0.0281958
0.0478412
0.0460778
0.0440913
0.0424194
0.0411412
0.0400554
0.039104
0.0382005
0.037295
0.03636
0.0353331
0.0342369
0.0329493
0.0315876
0.0298942
0.0282039
0.047538
0.0457834
0.0438722
0.0422548
0.0410194
0.0399596
0.0390203
0.0381181
0.0372075
0.0362638
0.0352295
0.0341253
0.03284
0.0314814
0.0298181
0.0281564
0.0473686
0.0456165
0.0437386
0.0421443
0.0409269
0.0398759
0.0389383
0.0380317
0.0371135
0.0361608
0.0351209
0.0340119
0.0327353
0.031387
0.0297644
0.0281387
0.0545056
0.0482346
0.0453693
0.0430006
0.041472
0.0402613
0.0392917
0.0384063
0.0375287
0.0366228
0.0355999
0.0344977
0.0331247
0.0316703
0.0297037
0.0278146
0.0503159
0.0479461
0.0452646
0.0431157
0.0415758
0.0403455
0.0393507
0.0384508
0.037565
0.0366554
0.0356329
0.0345351
0.03317
0.0317304
0.0297814
0.0279079
0.048302
0.0470625
0.0447916
0.0429825
0.0415232
0.0403322
0.0393419
0.0384449
0.0375603
0.0366528
0.0356382
0.0345518
0.0332074
0.0317882
0.0298598
0.0280004
0.0470855
0.0463108
0.0444055
0.0428383
0.041479
0.0403345
0.0393509
0.0384493
0.0375564
0.0366425
0.0356274
0.0345451
0.0332141
0.0318116
0.0299058
0.028067
0.0463572
0.0457061
0.0440294
0.0426244
0.0413594
0.0402681
0.0393043
0.038407
0.0375104
0.0365905
0.0355721
0.0344884
0.0331648
0.0317718
0.0298896
0.0280746
0.0458851
0.0452718
0.0437421
0.0424387
0.0412432
0.0401919
0.0392438
0.0383487
0.0374474
0.0365203
0.0354979
0.0344124
0.033099
0.0317202
0.0298754
0.0280958
0.0455849
0.0449784
0.0435267
0.0422791
0.041126
0.0400988
0.039159
0.0382617
0.0373525
0.0364131
0.0353797
0.0342817
0.0329687
0.0315903
0.0297854
0.0280421
0.0454161
0.044811
0.0433937
0.0421697
0.0410341
0.0400144
0.0390734
0.0381691
0.0372508
0.0362998
0.0352592
0.0341548
0.0328533
0.0314885
0.0297429
0.0280495
0.0532835
0.0474542
0.0449395
0.0428202
0.0414294
0.0403103
0.0393939
0.0385477
0.0377
0.0368263
0.0358227
0.034747
0.0333388
0.0318681
0.0296687
0.0276543
0.0491093
0.0471869
0.044869
0.0429728
0.0415659
0.040421
0.0394739
0.038608
0.0377478
0.036869
0.0358656
0.0347954
0.033397
0.031945
0.0297616
0.0277649
0.0471107
0.046336
0.0444466
0.0428992
0.0415652
0.0404485
0.0394951
0.0386231
0.037758
0.0368783
0.0358819
0.0348231
0.033445
0.0320102
0.0298306
0.0278211
0.045911
0.0456068
0.0440904
0.0427901
0.0415523
0.0404751
0.0395206
0.0386378
0.0377601
0.0368716
0.0358738
0.0348194
0.0334553
0.0320372
0.0298738
0.027878
0.0451949
0.0450156
0.043732
0.0425966
0.0414508
0.040422
0.0394815
0.0385979
0.0377125
0.0368145
0.0358106
0.0347519
0.0333929
0.0319814
0.0298398
0.0278667
0.0447306
0.0445886
0.0434532
0.04242
0.0413422
0.0403502
0.0394216
0.0385368
0.037644
0.0367361
0.0357268
0.0346656
0.0333195
0.0319266
0.0298353
0.0279104
0.0444341
0.0442981
0.0432411
0.0422635
0.0412268
0.0402564
0.0393327
0.0384422
0.0375375
0.0366122
0.0355866
0.0345059
0.0331562
0.0317582
0.0297229
0.0278473
0.0442658
0.0441309
0.0431081
0.0421537
0.0411334
0.0401687
0.0392413
0.0383411
0.0374244
0.0364842
0.035449
0.0343597
0.0330264
0.0316487
0.0297046
0.0279074
0.0525664
0.0468691
0.0445811
0.0426422
0.0413853
0.0403698
0.0395289
0.0387487
0.0379614
0.0371563
0.0362113
0.035214
0.0338092
0.0323779
0.0298819
0.0277138
0.0483984
0.0465973
0.0445172
0.042805
0.0415327
0.0404914
0.0396185
0.0388174
0.0380181
0.0372094
0.0362667
0.0352791
0.0338888
0.0324858
0.0300037
0.0278471
0.0464092
0.0457579
0.0441183
0.0427616
0.0415607
0.0405432
0.0396588
0.0388467
0.03804
0.0372301
0.0362958
0.0353221
0.0339532
0.0325647
0.0300585
0.0278452
0.0452215
0.0450419
0.0437793
0.0426726
0.0415661
0.0405841
0.0396939
0.0388669
0.038045
0.0372251
0.03629
0.0353227
0.0339702
0.0326016
0.0301024
0.0278925
0.0445149
0.0444608
0.0434334
0.0424931
0.0414769
0.0405395
0.0396586
0.038826
0.0379919
0.0371584
0.0362136
0.0352384
0.0338877
0.0325233
0.0300432
0.0278569
0.0440571
0.0440401
0.0431615
0.0423232
0.0413734
0.0404696
0.039597
0.0387592
0.0379135
0.0370663
0.0361132
0.0351341
0.0337994
0.0324615
0.0300521
0.0279389
0.0437635
0.0437522
0.042952
0.0421687
0.0412581
0.0403728
0.0395013
0.0386527
0.0377884
0.0369153
0.0359361
0.0349243
0.0335753
0.0322191
0.0298853
0.0278432
0.043595
0.0435847
0.0428183
0.0420573
0.0411616
0.0402792
0.0394009
0.0385385
0.0376568
0.0367623
0.0357678
0.0347409
0.0334111
0.0320825
0.0298866
0.0279796
0.0521008
0.0464543
0.0443255
0.0425146
0.0413702
0.040447
0.0396818
0.038973
0.0382539
0.0375274
0.0366498
0.0357408
0.034329
0.0329271
0.0299871
0.0275906
0.0479361
0.0461752
0.0442612
0.0426791
0.0415206
0.0405726
0.0397753
0.039046
0.038316
0.0375877
0.0367148
0.0358208
0.0344283
0.0330661
0.0301181
0.0276765
0.0459518
0.0453373
0.0438689
0.0426457
0.0415592
0.0406346
0.0398238
0.0390818
0.038344
0.0376156
0.0367534
0.0358771
0.0345055
0.0331509
0.0301149
0.0275082
0.0447712
0.0446274
0.0435368
0.0425643
0.0415712
0.0406801
0.0398609
0.0391016
0.0383474
0.0376089
0.0367469
0.0358801
0.0345265
0.0331941
0.0301389
0.0274972
0.0440705
0.0440519
0.0431967
0.0423904
0.0414862
0.0406371
0.0398238
0.0390551
0.0382848
0.0375286
0.0366524
0.0357734
0.0344159
0.0330834
0.0300376
0.0274142
0.0436167
0.0436349
0.0429282
0.0422229
0.0413833
0.0405653
0.039757
0.0389793
0.0381935
0.03742
0.0365329
0.0356495
0.0343127
0.0330208
0.030076
0.0275668
0.0433243
0.0433482
0.0427193
0.0420678
0.0412655
0.040463
0.0396521
0.0388579
0.0380463
0.0372372
0.0363116
0.0353783
0.0340114
0.032682
0.0298427
0.027443
0.0431546
0.0431795
0.0425838
0.0419537
0.0411645
0.0403623
0.0395416
0.0387288
0.0378942
0.037057
0.0361107
0.0351578
0.0338189
0.0325406
0.0299245
0.0277897
0.0517955
0.0461653
0.0441405
0.042422
0.0413734
0.0405383
0.0398579
0.039239
0.0386186
0.0380174
0.0372824
0.0365814
0.0353503
0.0342674
0.0311711
0.028875
0.0476323
0.0458805
0.0440738
0.0425855
0.0415242
0.0406648
0.0399531
0.0393155
0.0386861
0.0380861
0.0373593
0.0366807
0.0354753
0.0344511
0.03132
0.0289087
0.0456484
0.0450394
0.04368
0.0425522
0.0415641
0.0407286
0.0400028
0.0393529
0.0387166
0.0381189
0.0374067
0.0367544
0.0355762
0.0345746
0.0313123
0.0286595
0.0444708
0.0443314
0.0433493
0.0424718
0.0415764
0.0407732
0.0400374
0.039369
0.0387157
0.0381089
0.0373993
0.0367643
0.0356123
0.0346534
0.0313592
0.0286466
0.0437725
0.0437578
0.0430107
0.0422986
0.0414904
0.0407274
0.0399945
0.039313
0.0386395
0.0380109
0.037282
0.0366313
0.0354701
0.0345154
0.031223
0.0285303
0.0433201
0.0433422
0.0427427
0.0421304
0.0413849
0.0406508
0.0399197
0.039225
0.0385314
0.0378809
0.0371366
0.0364808
0.0353435
0.0344507
0.0312905
0.0287711
0.0430273
0.043055
0.0425326
0.0419728
0.0412622
0.0405407
0.0398023
0.0390843
0.0383554
0.0376553
0.0368526
0.0361171
0.0349093
0.0339274
0.0308544
0.0284735
0.0428554
0.042884
0.0423942
0.0418546
0.041155
0.0404309
0.0396786
0.038936
0.0381762
0.0374376
0.0366017
0.0358325
0.0346454
0.0337283
0.0309466
0.0290528
0.0515918
0.0459684
0.0440157
0.0423661
0.0413952
0.0406364
0.0400346
0.0394997
0.038971
0.0384797
0.0378626
0.0373107
0.0361784
0.0352207
0.0317138
0.0289613
0.047429
0.0456797
0.043947
0.0425285
0.0415458
0.0407633
0.040131
0.0395785
0.0390422
0.038554
0.0379467
0.0374207
0.0363091
0.0353954
0.0316873
0.0283426
0.045443
0.0448335
0.0435478
0.0424902
0.0415819
0.0408238
0.0401782
0.0396142
0.0390719
0.0385882
0.0379977
0.0375038
0.0364145
0.0355136
0.0315293
0.0275038
0.0442655
0.0441246
0.0432152
0.042407
0.0415907
0.040864
0.0402073
0.0396241
0.0390643
0.0385724
0.0379857
0.0375145
0.0364525
0.0356001
0.0315277
0.0272607
0.0435669
0.0435504
0.0428748
0.0422308
0.0415004
0.0408119
0.0401553
0.0395562
0.0389723
0.0384543
0.0378421
0.0373506
0.0362686
0.035419
0.0313277
0.0270409
0.0431139
0.043134
0.0426054
0.0420598
0.0413902
0.0407284
0.0400703
0.0394546
0.0388464
0.0383028
0.0376714
0.0371768
0.0361236
0.035367
0.0314591
0.0274025
0.0428192
0.042845
0.0423926
0.0418981
0.0412614
0.0406092
0.0399391
0.0392939
0.0386413
0.0380354
0.0373255
0.0367234
0.0355555
0.0346588
0.0308186
0.026882
0.0426443
0.042671
0.0422506
0.0417751
0.0411474
0.0404901
0.039802
0.0391269
0.0384367
0.0377844
0.0370337
0.036396
0.0352609
0.0345003
0.0311051
0.0279859
0.0424224
0.0424475
0.0420678
0.0416279
0.0410398
0.0404162
0.0397561
0.0391023
0.0384271
0.0377847
0.0370376
0.0363982
0.0352487
0.0344652
0.031005
0.027792
0.0424554
0.0424812
0.0420599
0.0415838
0.040955
0.0402908
0.03959
0.038888
0.0381573
0.0374387
0.0366124
0.0358444
0.0346412
0.0336988
0.0308492
0.0288847
0.04261
0.0426304
0.0421202
0.041574
0.0408826
0.0401644
0.039414
0.0386579
0.0378643
0.0370554
0.0361231
0.0351727
0.0338161
0.0325091
0.0298266
0.027628
0.0429367
0.0429216
0.0422525
0.0415894
0.0408105
0.0400344
0.0392447
0.0384515
0.0376208
0.0367621
0.0357865
0.0347649
0.03342
0.0320647
0.0298113
0.027848
0.043518
0.0433782
0.042461
0.0416162
0.0407275
0.0398839
0.0390623
0.0382423
0.037384
0.0364854
0.0354732
0.0343915
0.0330458
0.0316433
0.0296495
0.0278015
0.0446065
0.0439979
0.0426933
0.0415884
0.040596
0.0397071
0.0388835
0.0380691
0.037214
0.0363081
0.0352927
0.0341971
0.0328851
0.031497
0.0297074
0.0279667
0.0465198
0.0447681
0.0430108
0.0415423
0.0404733
0.0395572
0.0387364
0.0379247
0.0370788
0.0361739
0.0351612
0.0340619
0.0327764
0.031406
0.0297437
0.028073
0.0506838
0.0450638
0.0430983
0.0414097
0.040364
0.0394833
0.038701
0.0379178
0.0370998
0.0362171
0.0352243
0.0341411
0.0328751
0.0315138
0.0298726
0.0281865
0.0423141
0.0423371
0.0419885
0.0415829
0.0410393
0.0404627
0.0398532
0.0392527
0.0386318
0.0380483
0.0373494
0.0367508
0.0355625
0.0346349
0.0306842
0.0266029
0.0423426
0.0423663
0.0419758
0.0415329
0.0409467
0.040327
0.0396729
0.0390192
0.038336
0.0376683
0.036882
0.0361519
0.0349213
0.0339043
0.0307201
0.0282273
0.0424922
0.0425106
0.0420308
0.0415173
0.0408669
0.0401901
0.0394821
0.0387685
0.0380147
0.0372458
0.0363406
0.0354127
0.0340211
0.0326522
0.0297109
0.0272169
0.042814
0.0427971
0.042158
0.0415267
0.0407882
0.0400518
0.0393011
0.0385461
0.03775
0.0369247
0.0359712
0.0349677
0.0335985
0.0322066
0.0297885
0.0276659
0.0433912
0.0432497
0.0423621
0.0415485
0.0406984
0.0398932
0.0391078
0.038322
0.0374933
0.0366221
0.0356267
0.0345572
0.0331918
0.031762
0.0296577
0.0277128
0.0444765
0.0438667
0.0425918
0.0415176
0.040563
0.0397103
0.0389224
0.0381405
0.0373119
0.0364301
0.0354296
0.0343445
0.0330194
0.0316123
0.0297492
0.0279434
0.0463888
0.0446371
0.0429097
0.0414715
0.0404389
0.0395575
0.0387695
0.0379882
0.0371681
0.0362852
0.0352863
0.0341964
0.0329018
0.0315173
0.0298034
0.028084
0.0505529
0.0449347
0.0429991
0.0413411
0.040332
0.0394866
0.0387369
0.0379848
0.0371947
0.0363356
0.035359
0.0342878
0.0330165
0.0316441
0.0299563
0.0282211
0.0422396
0.0422611
0.0419349
0.041556
0.041049
0.0405141
0.0399521
0.0394058
0.0388466
0.0383391
0.0377273
0.0372426
0.03616
0.0353567
0.031257
0.0269417
0.0422638
0.0422861
0.0419176
0.0415004
0.0409487
0.0403681
0.0397573
0.0391516
0.038521
0.0379159
0.0371962
0.036551
0.0353816
0.0344379
0.0310953
0.0283855
0.042409
0.0424261
0.0419679
0.0414794
0.0408619
0.0402206
0.0395519
0.0388798
0.0381688
0.0374481
0.0365886
0.035714
0.0343431
0.0329957
0.0298929
0.0272355
0.0427268
0.0427086
0.0420906
0.0414835
0.0407772
0.0400743
0.0393589
0.0386405
0.0378805
0.0370938
0.0361739
0.0352071
0.0338457
0.0324601
0.0299275
0.0276965
0.0433005
0.0431578
0.0422911
0.041501
0.0406813
0.0399082
0.0391551
0.0384012
0.0376029
0.0367621
0.0357911
0.0347455
0.0333802
0.0319472
0.0297609
0.0277411
0.0443833
0.0437726
0.0425186
0.0414674
0.0405423
0.03972
0.038963
0.0382105
0.0374088
0.0365529
0.0355721
0.0345046
0.0331781
0.0317654
0.0298451
0.0279842
0.0462948
0.0445431
0.0428368
0.0414211
0.040417
0.0395636
0.0388046
0.0380516
0.037256
0.036396
0.0354139
0.034338
0.0330418
0.0316512
0.0298957
0.0281333
0.050459
0.0448421
0.0429276
0.0412925
0.0403122
0.0394958
0.0387745
0.0380508
0.0372871
0.0364521
0.035494
0.0344384
0.0331679
0.0317908
0.0300647
0.0282853
0.0421889
0.0422091
0.041899
0.0415399
0.0410609
0.0405582
0.040032
0.0395245
0.0390051
0.0385377
0.0379573
0.0374895
0.0363748
0.0354685
0.0310777
0.0263669
0.0422094
0.0422307
0.0418779
0.0414796
0.0409542
0.0404039
0.0398261
0.0392555
0.0386598
0.0380896
0.0373955
0.0367656
0.0355672
0.0345507
0.0309877
0.0280039
0.042351
0.042367
0.0419243
0.0414544
0.0408618
0.0402481
0.0396097
0.0389686
0.0382874
0.0375953
0.0367548
0.0358907
0.0344915
0.0330889
0.0298166
0.0269773
0.0426654
0.0426462
0.0420434
0.0414541
0.0407723
0.0400956
0.0394077
0.0387172
0.0379833
0.0372212
0.0363172
0.0353597
0.0339777
0.0325554
0.0299075
0.0275609
0.0432363
0.0430929
0.0422409
0.0414682
0.0406717
0.0399236
0.0391961
0.038467
0.0376915
0.0368716
0.0359138
0.034876
0.0334957
0.0320376
0.0297729
0.0276775
0.0443172
0.0437059
0.0424666
0.0414325
0.0405299
0.0397316
0.0389989
0.0382698
0.0374889
0.036652
0.0356836
0.0346239
0.0332876
0.0318577
0.029883
0.0279684
0.0462282
0.0444765
0.0427851
0.0413862
0.0404038
0.0395721
0.0388364
0.0381064
0.0373302
0.036488
0.0355177
0.0344495
0.0331471
0.0317444
0.0299497
0.0281461
0.0503924
0.0447764
0.0428771
0.0412591
0.0403008
0.0395071
0.0388087
0.0381081
0.0373659
0.03655
0.0356055
0.0345598
0.0332859
0.0318989
0.0301366
0.0283157
0.0421561
0.0421755
0.0418773
0.0415335
0.0410768
0.0406006
0.0401052
0.0396326
0.0391518
0.0387273
0.0381905
0.0377647
0.0366705
0.0357477
0.0312022
0.0262137
0.0421736
0.0421941
0.0418529
0.0414691
0.0409644
0.0404389
0.0398891
0.0393497
0.0387873
0.0382533
0.0375932
0.0369957
0.0358046
0.0347706
0.0310744
0.0279037
0.0423121
0.0423275
0.041896
0.0414403
0.0408671
0.0402759
0.0396628
0.039049
0.0383958
0.0377331
0.0369177
0.0360762
0.0346751
0.0332537
0.0298714
0.0268997
0.0426238
0.042604
0.042012
0.0414362
0.0407735
0.0401178
0.0394528
0.0387865
0.0380765
0.0373387
0.0364543
0.0355136
0.0341279
0.0326903
0.0299636
0.0275286
0.0431925
0.0430485
0.0422072
0.0414475
0.0406687
0.0399408
0.0392342
0.0385263
0.0377714
0.0369716
0.0360294
0.0350041
0.03362
0.0321502
0.0298301
0.0276746
0.0442718
0.0436601
0.0424314
0.04141
0.0405246
0.0397452
0.0390325
0.0383229
0.0375606
0.0367415
0.0357864
0.0347371
0.0333982
0.0319592
0.0299449
0.0279863
0.0461823
0.0444306
0.04275
0.0413636
0.0403976
0.0395832
0.0388663
0.0381552
0.0373962
0.0365702
0.0356119
0.0345531
0.0332492
0.0318395
0.0300154
0.0281777
0.0503465
0.0447313
0.0428429
0.0412376
0.040296
0.0395198
0.0388403
0.0381594
0.0374354
0.0366366
0.0357054
0.0346702
0.0333963
0.0320036
0.0302136
0.0283582
0.0421355
0.0421543
0.0418642
0.0415311
0.04109
0.0406322
0.0401575
0.0397074
0.0392492
0.0388461
0.0383245
0.0379024
0.0367854
0.035801
0.0311071
0.0259082
0.0421506
0.0421706
0.0418372
0.0414636
0.0409734
0.0404652
0.0399346
0.0394155
0.0388731
0.0383578
0.0377101
0.0371159
0.0359035
0.0348217
0.0310084
0.027698
0.0422869
0.0423017
0.041878
0.0414322
0.0408726
0.0402972
0.0397017
0.039106
0.0384701
0.0378235
0.0370179
0.0361793
0.0347599
0.0333024
0.0298296
0.0267578
0.0425965
0.0425762
0.0419917
0.0414254
0.040776
0.0401352
0.0394862
0.0388362
0.0381417
0.0374179
0.0365421
0.0356046
0.0342051
0.0327422
0.0299515
0.0274487
0.0431636
0.0430192
0.0421852
0.0414346
0.0406683
0.0399547
0.0392629
0.0385697
0.0378285
0.0370411
0.0361066
0.0350848
0.0336913
0.0322043
0.0298395
0.0276373
0.0442417
0.0436297
0.0424083
0.0413958
0.0405225
0.0397568
0.0390582
0.0383623
0.0376129
0.0368053
0.0358578
0.0348126
0.0334676
0.0320166
0.0299701
0.0279771
0.0461519
0.0444002
0.0427269
0.0413493
0.040395
0.039593
0.0388896
0.038192
0.0374452
0.0366302
0.0356794
0.0346252
0.0333176
0.0318993
0.0300513
0.0281865
0.0503161
0.0447015
0.0428205
0.0412242
0.0402945
0.0395308
0.0388651
0.0381984
0.0374873
0.0367004
0.0357778
0.0347485
0.0334725
0.0320724
0.03026
0.0283771
0.0421239
0.0421423
0.0418576
0.0415316
0.0411011
0.0406559
0.0401961
0.0397625
0.0393221
0.0389372
0.038432
0.0380213
0.0369017
0.0358917
0.031115
0.0257759
0.0421374
0.0421571
0.0418289
0.041462
0.0409815
0.0404852
0.0399681
0.0394638
0.0389369
0.0384372
0.0378025
0.0372172
0.0359998
0.0348967
0.0310155
0.0276142
0.0422721
0.0422867
0.0418679
0.0414286
0.0408782
0.0403136
0.0397303
0.0391477
0.0385252
0.0378917
0.0370964
0.0362646
0.0348395
0.0333653
0.0298389
0.026701
0.0425803
0.0425598
0.0419801
0.0414199
0.0407795
0.0401487
0.0395108
0.0388726
0.0381896
0.037477
0.0366096
0.0356776
0.0342734
0.0327981
0.0299686
0.0274207
0.0431463
0.0430017
0.0421724
0.0414277
0.0406697
0.0399657
0.0392841
0.0386012
0.0378701
0.0370925
0.036165
0.035148
0.0337512
0.0322555
0.0298633
0.0276298
0.0442236
0.0436115
0.0423947
0.041388
0.0405227
0.0397662
0.0390772
0.0383909
0.0376508
0.0368519
0.0359108
0.03487
0.0335229
0.0320656
0.0299992
0.0279827
0.0461335
0.0443819
0.0427133
0.0413414
0.0403947
0.039601
0.0389067
0.0382185
0.0374804
0.0366736
0.0357288
0.0346789
0.0333702
0.0319474
0.0300842
0.0282009
0.0502978
0.0446835
0.0428073
0.0412168
0.0402949
0.0395396
0.0388832
0.0382264
0.0375244
0.0367462
0.0358302
0.0348058
0.0335294
0.0321254
0.0302986
0.0283969
0.0421186
0.0421368
0.0418547
0.041532