/*--------------------------------*- C++ -*----------------------------------*\
| =========                 |                                                 |
| \\      /  F ield         | OpenFOAM: The Open Source CFD Toolbox           |
|  \\    /   O peration     | Version:  v1912                                 |
|   \\  /    A nd           | Website:  www.openfoam.com                      |
|    \\/     M anipulation  |                                                 |
\*---------------------------------------------------------------------------*/
FoamFile
{
    version     2.0;
    format      ascii;
    class       pointVectorField;
    location    "0.77/fluid";
    object      pointMotionU;
}
// * * * * * * * * * * * * * * * * * * * * * * * * * * * * * * * * * * * * * //

dimensions      [0 1 -1 0 0 0 0];


internalField   nonuniform List<vector> 
16859
(
(0 0 0)
(0 0 0)
(0 0 0)
(0 0 0)
(0 0 0)
(0 0 0)
(0 0 0)
(0 0 0)
(0 0 0)
(0 0 0)
(0 0 0)
(0 0 0)
(0 0 0)
(0 0 0)
(0 0 0)
(0 0 0)
(1.61686e-08 2.78187e-08 1.75671e-08)
(0 0 0)
(4.78259e-10 -1.09941e-09 8.65073e-10)
(9.14312e-10 -2.10293e-09 1.68613e-09)
(1.32652e-09 -3.04972e-09 2.52246e-09)
(1.73186e-09 -3.9681e-09 3.42662e-09)
(2.14713e-09 -4.87439e-09 4.44757e-09)
(2.59067e-09 -5.77084e-09 5.633e-09)
(3.0849e-09 -6.64145e-09 7.03086e-09)
(3.6602e-09 -7.44387e-09 8.69025e-09)
(4.36192e-09 -8.09484e-09 1.06618e-08)
(5.26452e-09 -8.44379e-09 1.29991e-08)
(6.50129e-09 -8.22436e-09 1.57679e-08)
(8.32889e-09 -6.95832e-09 1.90794e-08)
(1.12468e-08 -3.76722e-09 2.31826e-08)
(1.61308e-08 2.91141e-09 2.86449e-08)
(2.32796e-08 1.40629e-08 3.57353e-08)
(3.38735e-08 3.60742e-08 4.39054e-08)
(0 0 0)
(9.44324e-10 -2.16645e-09 1.70758e-09)
(1.80482e-09 -4.14535e-09 3.32766e-09)
(2.61713e-09 -6.01502e-09 4.97661e-09)
(3.41399e-09 -7.8328e-09 6.75734e-09)
(4.22778e-09 -9.63387e-09 8.7659e-09)
(5.09342e-09 -1.14276e-08 1.10957e-08)
(6.05239e-09 -1.31905e-08 1.38401e-08)
(7.15861e-09 -1.48534e-08 1.7094e-08)
(8.48794e-09 -1.62785e-08 2.0952e-08)
(1.01551e-08 -1.72227e-08 2.5506e-08)
(1.23446e-08 -1.72815e-08 3.0844e-08)
(1.53652e-08 -1.58142e-08 3.706e-08)
(1.97021e-08 -1.1899e-08 4.42738e-08)
(2.59107e-08 -4.54545e-09 5.25993e-08)
(3.32702e-08 5.35487e-09 6.11436e-08)
(4.56603e-08 1.96697e-08 7.43172e-08)
(0 0 0)
(1.38686e-09 -3.16923e-09 2.50676e-09)
(2.64941e-09 -6.06734e-09 4.88358e-09)
(3.83867e-09 -8.8118e-09 7.2998e-09)
(5.00127e-09 -1.14906e-08 9.90497e-09)
(6.18305e-09 -1.41617e-08 1.28386e-08)
(7.4326e-09 -1.68495e-08 1.62364e-08)
(8.80575e-09 -1.95375e-08 2.02338e-08)
(1.03713e-08 -2.21538e-08 2.49676e-08)
(1.22189e-08 -2.45486e-08 3.05722e-08)
(1.44688e-08 -2.64587e-08 3.71705e-08)
(1.72874e-08 -2.74627e-08 4.4857e-08)
(2.09037e-08 -2.69482e-08 5.36745e-08)
(2.55935e-08 -2.41665e-08 6.35704e-08)
(3.15234e-08 -1.85903e-08 7.42977e-08)
(3.77667e-08 -1.14199e-08 8.44634e-08)
(4.74074e-08 -1.6095e-09 9.80878e-08)
(0 0 0)
(1.79553e-09 -4.07517e-09 3.2435e-09)
(3.42795e-09 -7.80694e-09 6.3161e-09)
(4.96111e-09 -1.13514e-08 9.43421e-09)
(6.45309e-09 -1.48284e-08 1.27886e-08)
(7.96052e-09 -1.83227e-08 1.65571e-08)
(9.5424e-09 -2.18821e-08 2.09122e-08)
(1.12645e-08 -2.55116e-08 2.60269e-08)
(1.32039e-08 -2.91622e-08 3.20756e-08)
(1.54539e-08 -3.27124e-08 3.92304e-08)
(1.8125e-08 -3.59394e-08 4.76476e-08)
(2.13422e-08 -3.84837e-08 5.74396e-08)
(2.52276e-08 -3.98192e-08 6.8624e-08)
(2.98378e-08 -3.92779e-08 8.10243e-08)
(3.50065e-08 -3.62628e-08 9.40802e-08)
(3.97456e-08 -3.13167e-08 1.05794e-07)
(4.67399e-08 -2.26141e-08 1.19598e-07)
(0 0 0)
(2.16183e-09 -4.85208e-09 3.90183e-09)
(4.1239e-09 -9.30244e-09 7.5936e-09)
(5.95994e-09 -1.35439e-08 1.13314e-08)
(7.73668e-09 -1.7728e-08 1.53404e-08)
(9.51857e-09 -2.19686e-08 1.98296e-08)
(1.13718e-08 -2.63431e-08 2.50019e-08)
(1.33686e-08 -3.08895e-08 3.10605e-08)
(1.55914e-08 -3.5601e-08 3.8212e-08)
(1.81353e-08 -4.04149e-08 4.6664e-08)
(2.1106e-08 -4.51944e-08 5.66125e-08)
(2.46097e-08 -4.97004e-08 6.82142e-08)
(2.87234e-08 -5.35477e-08 8.15303e-08)
(3.34145e-08 -5.61362e-08 9.63959e-08)
(3.83739e-08 -5.65879e-08 1.12134e-07)
(4.25351e-08 -5.4285e-08 1.26175e-07)
(4.82335e-08 -4.54613e-08 1.41473e-07)
(0 0 0)
(2.47937e-09 -5.46929e-09 4.46965e-09)
(4.72501e-09 -1.04945e-08 8.69222e-09)
(6.81733e-09 -1.53014e-08 1.2955e-08)
(8.82858e-09 -2.00707e-08 1.75092e-08)
(1.08279e-08 -2.49454e-08 2.25872e-08)
(1.28855e-08 -3.00339e-08 2.84132e-08)
(1.5077e-08 -3.54123e-08 3.52114e-08)
(1.7488e-08 -4.11249e-08 4.32115e-08)
(2.02176e-08 -4.71829e-08 5.26488e-08)
(2.33786e-08 -5.35608e-08 6.37581e-08)
(2.70959e-08 -6.01874e-08 7.67596e-08)
(3.14931e-08 -6.69171e-08 9.18235e-08)
(3.66397e-08 -7.34389e-08 1.08963e-07)
(4.2392e-08 -7.90359e-08 1.27711e-07)
(4.76534e-08 -8.21742e-08 1.45182e-07)
(5.49425e-08 -7.69167e-08 1.64829e-07)
(0 0 0)
(2.74415e-09 -5.89906e-09 4.93925e-09)
(5.22387e-09 -1.13292e-08 9.59707e-09)
(7.52284e-09 -1.65429e-08 1.42825e-08)
(9.71556e-09 -2.17456e-08 1.92641e-08)
(1.18725e-08 -2.71049e-08 2.4788e-08)
(1.40646e-08 -3.27576e-08 3.10896e-08)
(1.63671e-08 -3.88147e-08 3.84027e-08)
(1.88654e-08 -4.53678e-08 4.69657e-08)
(2.16602e-08 -5.24957e-08 5.7025e-08)
(2.4873e-08 -6.02751e-08 6.88355e-08)
(2.86577e-08 -6.87967e-08 8.26626e-08)
(3.32169e-08 -7.81854e-08 9.87812e-08)
(3.88124e-08 -8.86006e-08 1.17442e-07)
(4.56982e-08 -1.00106e-07 1.38653e-07)
(5.30731e-08 -1.11292e-07 1.59764e-07)
(6.55547e-08 -1.23792e-07 1.86393e-07)
(0 0 0)
(2.95473e-09 -6.1183e-09 5.30779e-09)
(5.61832e-09 -1.17618e-08 1.03033e-08)
(8.07423e-09 -1.72011e-08 1.53076e-08)
(1.03959e-08 -2.26587e-08 2.05973e-08)
(1.26519e-08 -2.83203e-08 2.64226e-08)
(1.49099e-08 -3.43436e-08 3.30196e-08)
(1.72405e-08 -4.0865e-08 4.06181e-08)
(1.9723e-08 -4.80082e-08 4.94481e-08)
(2.24504e-08 -5.58937e-08 5.97425e-08)
(2.55368e-08 -6.46528e-08 7.17389e-08)
(2.91298e-08 -7.44492e-08 8.56825e-08)
(3.34287e-08 -8.55111e-08 1.01834e-07)
(3.86949e-08 -9.8159e-08 1.20456e-07)
(4.51672e-08 -1.12747e-07 1.4169e-07)
(5.18875e-08 -1.27643e-07 1.62811e-07)
(7.02932e-08 -1.53512e-07 1.96749e-07)
(0 0 0)
(0 0 0)
(0 0 0)
(0 0 0)
(0 0 0)
(0 0 0)
(0 0 0)
(0 0 0)
(0 0 0)
(0 0 0)
(0 0 0)
(0 0 0)
(0 0 0)
(0 0 0)
(0 0 0)
(0 0 0)
(1.04895e-08 1.42318e-08 8.11006e-09)
(0 0 0)
(4.84725e-10 -1.1259e-09 8.37419e-10)
(9.26229e-10 -2.15388e-09 1.63099e-09)
(1.34281e-09 -3.12464e-09 2.4372e-09)
(1.75124e-09 -4.06797e-09 3.30587e-09)
(2.16778e-09 -5.00153e-09 4.28291e-09)
(2.60966e-09 -5.92884e-09 5.41213e-09)
(3.09726e-09 -6.83543e-09 6.73624e-09)
(3.65761e-09 -7.68153e-09 8.29684e-09)
(4.33068e-09 -8.38895e-09 1.01329e-08)
(5.18265e-09 -8.81782e-09 1.22783e-08)
(6.33505e-09 -8.72492e-09 1.47611e-08)
(8.02834e-09 -7.6841e-09 1.76133e-08)
(1.07393e-08 -4.93705e-09 2.09018e-08)
(1.52764e-08 7.66915e-10 2.47493e-08)
(2.19118e-08 1.01007e-08 2.8886e-08)
(2.9162e-08 2.16216e-08 3.02096e-08)
(0 0 0)
(9.57186e-10 -2.21852e-09 1.65297e-09)
(1.82859e-09 -4.2455e-09 3.21882e-09)
(2.64979e-09 -6.1624e-09 4.80847e-09)
(3.45321e-09 -8.02944e-09 6.51951e-09)
(4.27021e-09 -9.88427e-09 8.44197e-09)
(5.13363e-09 -1.17387e-08 1.06617e-08)
(6.08121e-09 -1.3572e-08 1.32624e-08)
(7.16054e-09 -1.53196e-08 1.63246e-08)
(8.43723e-09 -1.68523e-08 1.99222e-08)
(1.00099e-08 -1.7945e-08 2.41126e-08)
(1.20396e-08 -1.82318e-08 2.89237e-08)
(1.48036e-08 -1.71561e-08 3.43359e-08)
(1.87552e-08 -1.3975e-08 4.02514e-08)
(2.443e-08 -8.06899e-09 4.63913e-08)
(3.13771e-08 -4.51178e-10 5.18485e-08)
(3.91632e-08 4.39863e-09 5.60087e-08)
(0 0 0)
(1.40606e-09 -3.24523e-09 2.42662e-09)
(2.68504e-09 -6.21358e-09 4.72402e-09)
(3.88802e-09 -9.02723e-09 7.05361e-09)
(5.06126e-09 -1.17782e-08 9.55724e-09)
(6.24933e-09 -1.4528e-08 1.23658e-08)
(7.49812e-09 -1.73045e-08 1.56042e-08)
(8.85856e-09 -2.00947e-08 1.93943e-08)
(1.03911e-08 -2.28323e-08 2.38536e-08)
(1.21713e-08 -2.53774e-08 2.90892e-08)
(1.4297e-08 -2.74868e-08 3.51813e-08)
(1.69003e-08 -2.87815e-08 4.21551e-08)
(2.01615e-08 -2.87387e-08 4.9935e-08)
(2.4305e-08 -2.67963e-08 5.82671e-08)
(2.94807e-08 -2.27866e-08 6.65832e-08)
(3.5089e-08 -1.80248e-08 7.36354e-08)
(4.05563e-08 -1.59649e-08 7.82644e-08)
(0 0 0)
(1.821e-09 -4.17271e-09 3.13999e-09)
(3.47544e-09 -7.9948e-09 6.11018e-09)
(5.02745e-09 -1.16284e-08 9.11695e-09)
(6.53485e-09 -1.51984e-08 1.23413e-08)
(8.05298e-09 -1.87942e-08 1.59499e-08)
(9.63806e-09 -2.24676e-08 2.01025e-08)
(1.13506e-08 -2.62276e-08 2.4955e-08)
(1.32586e-08 -3.00309e-08 3.06592e-08)
(1.54396e-08 -3.37647e-08 3.73555e-08)
(1.79783e-08 -3.72231e-08 4.51535e-08)
(2.09585e-08 -4.00799e-08 5.40938e-08)
(2.44398e-08 -4.18777e-08 6.40807e-08)
(2.84023e-08 -4.20856e-08 7.47577e-08)
(3.26372e-08 -4.03686e-08 8.52831e-08)
(3.64781e-08 -3.73729e-08 9.38709e-08)
(3.98899e-08 -3.57338e-08 9.88475e-08)
(0 0 0)
(2.19342e-09 -4.96814e-09 3.77766e-09)
(4.18306e-09 -9.52609e-09 7.34683e-09)
(6.04328e-09 -1.38739e-08 1.09518e-08)
(7.84077e-09 -1.81692e-08 1.48061e-08)
(9.63904e-09 -2.25312e-08 1.91063e-08)
(1.15019e-08 -2.70416e-08 2.40401e-08)
(1.34968e-08 -3.1743e-08 2.97918e-08)
(1.56977e-08 -3.66332e-08 3.65429e-08)
(1.81853e-08 -4.16564e-08 4.44666e-08)
(2.10409e-08 -4.66863e-08 5.37098e-08)
(2.43309e-08 -5.15027e-08 6.43566e-08)
(2.80693e-08 -5.57539e-08 7.63566e-08)
(3.21378e-08 -5.88963e-08 8.93726e-08)
(3.61562e-08 -6.0149e-08 1.02452e-07)
(3.93244e-08 -5.89392e-08 1.13291e-07)
(4.13881e-08 -5.65397e-08 1.19568e-07)
(0 0 0)
(2.51678e-09 -5.60011e-09 4.32793e-09)
(4.79536e-09 -1.07467e-08 8.41088e-09)
(6.91713e-09 -1.56739e-08 1.25229e-08)
(8.95475e-09 -2.05692e-08 1.69026e-08)
(1.09769e-08 -2.55815e-08 2.17682e-08)
(1.30522e-08 -3.08241e-08 2.73279e-08)
(1.52528e-08 -3.63775e-08 3.37856e-08)
(1.76579e-08 -4.22901e-08 4.13445e-08)
(2.03555e-08 -4.85775e-08 5.02041e-08)
(2.34407e-08 -5.52201e-08 6.05485e-08)
(2.70097e-08 -6.21542e-08 7.25228e-08)
(3.11429e-08 -6.92432e-08 8.61812e-08)
(3.5856e-08 -7.61769e-08 1.01353e-07)
(4.09642e-08 -8.21969e-08 1.17261e-07)
(4.56183e-08 -8.57504e-08 1.31314e-07)
(4.85124e-08 -8.40858e-08 1.4083e-07)
(0 0 0)
(2.78688e-09 -6.04026e-09 4.78333e-09)
(5.30449e-09 -1.16016e-08 9.2879e-09)
(7.6379e-09 -1.69456e-08 1.38086e-08)
(9.86248e-09 -2.2285e-08 1.86005e-08)
(1.2049e-08 -2.7794e-08 2.38952e-08)
(1.42674e-08 -3.36145e-08 2.99112e-08)
(1.65913e-08 -3.98617e-08 3.68618e-08)
(1.91023e-08 -4.66307e-08 4.49588e-08)
(2.18945e-08 -5.40034e-08 5.44124e-08)
(2.50802e-08 -6.20593e-08 6.5427e-08)
(2.88005e-08 -7.08928e-08 7.81918e-08)
(3.32453e-08 -8.06342e-08 9.28615e-08)
(3.86819e-08 -9.14497e-08 1.09486e-07)
(4.54229e-08 -1.03374e-07 1.27702e-07)
(5.30238e-08 -1.15166e-07 1.45145e-07)
(6.07648e-08 -1.25586e-07 1.58986e-07)
(0 0 0)
(3.00208e-09 -6.26494e-09 5.14105e-09)
(5.7079e-09 -1.2045e-08 9.97311e-09)
(8.20267e-09 -1.76201e-08 1.48026e-08)
(1.05612e-08 -2.32208e-08 1.98923e-08)
(1.28527e-08 -2.90395e-08 2.54778e-08)
(1.51451e-08 -3.5239e-08 3.17786e-08)
(1.75087e-08 -4.19599e-08 3.90043e-08)
(2.00211e-08 -4.93288e-08 4.73594e-08)
(2.2773e-08 -5.74679e-08 5.70428e-08)
(2.58756e-08 -6.6509e-08 6.82443e-08)
(2.9475e-08 -7.6616e-08 8.11391e-08)
(3.37749e-08 -8.80179e-08 9.58757e-08)
(3.90611e-08 -1.01035e-07 1.12527e-07)
(4.56432e-08 -1.15978e-07 1.30871e-07)
(5.28094e-08 -1.31364e-07 1.4843e-07)
(6.51766e-08 -1.52895e-07 1.68215e-07)
(0 0 0)
(0 0 0)
(0 0 0)
(0 0 0)
(0 0 0)
(0 0 0)
(0 0 0)
(0 0 0)
(0 0 0)
(0 0 0)
(0 0 0)
(0 0 0)
(0 0 0)
(0 0 0)
(0 0 0)
(0 0 0)
(6.01996e-09 6.75541e-09 2.83599e-09)
(0 0 0)
(4.88875e-10 -1.14944e-09 7.79303e-10)
(9.33517e-10 -2.19932e-09 1.51684e-09)
(1.35168e-09 -3.19167e-09 2.26424e-09)
(1.75931e-09 -4.15749e-09 3.06667e-09)
(2.17132e-09 -5.11589e-09 3.96511e-09)
(2.60261e-09 -6.07224e-09 4.99749e-09)
(3.06949e-09 -7.015e-09 6.19888e-09)
(3.59183e-09 -7.91011e-09 7.60003e-09)
(4.19687e-09 -8.69137e-09 9.2231e-09)
(4.92722e-09 -9.24539e-09 1.1073e-08)
(5.85824e-09 -9.38891e-09 1.31223e-08)
(7.13218e-09 -8.83664e-09 1.52847e-08)
(9.00658e-09 -7.16596e-09 1.73636e-08)
(1.1827e-08 -3.87183e-09 1.89375e-08)
(1.54065e-08 8.61166e-10 1.92479e-08)
(1.76445e-08 5.84527e-09 1.47727e-08)
(0 0 0)
(9.65539e-10 -2.26471e-09 1.53826e-09)
(1.84332e-09 -4.33464e-09 2.99356e-09)
(2.66797e-09 -6.29384e-09 4.46731e-09)
(3.47039e-09 -8.20494e-09 6.04805e-09)
(4.27945e-09 -1.01082e-08 7.81613e-09)
(5.12361e-09 -1.20186e-08 9.84603e-09)
(6.03311e-09 -1.39205e-08 1.22067e-08)
(7.04254e-09 -1.57587e-08 1.49583e-08)
(8.19466e-09 -1.74235e-08 1.8144e-08)
(9.54717e-09 -1.87313e-08 2.17708e-08)
(1.11855e-08 -1.94052e-08 2.57771e-08)
(1.32407e-08 -1.90793e-08 2.99723e-08)
(1.58859e-08 -1.73948e-08 3.39275e-08)
(1.91859e-08 -1.43663e-08 3.68062e-08)
(2.24865e-08 -1.12207e-08 3.74754e-08)
(2.43457e-08 -1.13936e-08 3.38949e-08)
(0 0 0)
(1.41877e-09 -3.31248e-09 2.25833e-09)
(2.70765e-09 -6.34333e-09 4.39362e-09)
(3.9165e-09 -9.21846e-09 6.55359e-09)
(5.08962e-09 -1.20333e-08 8.86696e-09)
(6.26822e-09 -1.48528e-08 1.14506e-08)
(7.49246e-09 -1.77087e-08 1.44131e-08)
(8.80343e-09 -2.05936e-08 1.78555e-08)
(1.02447e-08 -2.34518e-08 2.18672e-08)
(1.18625e-08 -2.61639e-08 2.65137e-08)
(1.37041e-08 -2.85293e-08 3.18108e-08)
(1.58111e-08 -3.02578e-08 3.76774e-08)
(1.82014e-08 -3.10068e-08 4.38532e-08)
(2.08159e-08 -3.05483e-08 4.97633e-08)
(2.33834e-08 -2.91959e-08 5.43561e-08)
(2.52232e-08 -2.8273e-08 5.63064e-08)
(2.48366e-08 -3.00854e-08 5.35217e-08)
(0 0 0)
(1.83827e-09 -4.25879e-09 2.92245e-09)
(3.50648e-09 -8.1608e-09 5.68335e-09)
(5.06747e-09 -1.18729e-08 8.47161e-09)
(6.57692e-09 -1.55243e-08 1.14515e-08)
(8.08646e-09 -1.9208e-08 1.47722e-08)
(9.64587e-09 -2.29797e-08 1.85726e-08)
(1.13048e-08 -2.68537e-08 2.29832e-08)
(1.31128e-08 -3.0795e-08 2.8121e-08)
(1.51156e-08 -3.47069e-08 3.40768e-08)
(1.73437e-08 -3.8416e-08 4.08854e-08)
(1.97867e-08 -4.16636e-08 4.84702e-08)
(2.23394e-08 -4.4128e-08 5.65463e-08)
(2.47064e-08 -4.55354e-08 6.44566e-08)
(2.62939e-08 -4.59467e-08 7.09623e-08)
(2.64182e-08 -4.61091e-08 7.43723e-08)
(2.39362e-08 -4.7898e-08 7.22781e-08)
(0 0 0)
(2.21541e-09 -5.07017e-09 3.51634e-09)
(4.22301e-09 -9.7228e-09 6.83448e-09)
(6.09598e-09 -1.41636e-08 1.01781e-08)
(7.89899e-09 -1.85547e-08 1.37411e-08)
(9.69188e-09 -2.30194e-08 1.76994e-08)
(1.15321e-08 -2.76428e-08 2.22171e-08)
(1.34766e-08 -3.24709e-08 2.74488e-08)
(1.55812e-08 -3.75062e-08 3.35365e-08)
(1.78958e-08 -4.27007e-08 4.05967e-08)
(2.04498e-08 -4.7944e-08 4.86918e-08)
(2.3219e-08 -5.30488e-08 5.77744e-08)
(2.60581e-08 -5.77337e-08 6.75842e-08)
(2.85785e-08 -6.16036e-08 7.74593e-08)
(3.00105e-08 -6.4169e-08 8.60453e-08)
(2.95072e-08 -6.51245e-08 9.12402e-08)
(2.5532e-08 -6.56077e-08 9.01637e-08)
(0 0 0)
(2.54353e-09 -5.71468e-09 4.02912e-09)
(4.84444e-09 -1.09676e-08 7.82556e-09)
(6.98323e-09 -1.5999e-08 1.16403e-08)
(9.03085e-09 -2.10015e-08 1.56901e-08)
(1.10528e-08 -2.61278e-08 2.01707e-08)
(1.3112e-08 -3.14939e-08 2.5264e-08)
(1.52712e-08 -3.71816e-08 3.11423e-08)
(1.75936e-08 -4.32398e-08 3.79654e-08)
(2.01404e-08 -4.9683e-08 4.5871e-08)
(2.2961e-08 -5.64888e-08 5.49492e-08)
(2.60717e-08 -6.35895e-08 6.51942e-08)
(2.94079e-08 -7.08434e-08 7.6407e-08)
(3.27272e-08 -7.79431e-08 8.79974e-08)
(3.54412e-08 -8.41882e-08 9.86127e-08)
(3.65817e-08 -8.82289e-08 1.05792e-07)
(3.3525e-08 -8.76494e-08 1.0632e-07)
(0 0 0)
(2.81826e-09 -6.16347e-09 4.45383e-09)
(5.36256e-09 -1.18392e-08 8.64311e-09)
(7.71745e-09 -1.72953e-08 1.2838e-08)
(9.95708e-09 -2.27498e-08 1.72705e-08)
(1.21496e-08 -2.83806e-08 2.21481e-08)
(1.43605e-08 -3.43313e-08 2.76628e-08)
(1.66558e-08 -4.0717e-08 3.39946e-08)
(1.91039e-08 -4.76293e-08 4.1311e-08)
(2.17775e-08 -5.51414e-08 4.97582e-08)
(2.47522e-08 -6.33159e-08 5.94414e-08)
(2.81038e-08 -7.22137e-08 7.03844e-08)
(3.18997e-08 -8.18988e-08 8.24469e-08)
(3.61739e-08 -9.24044e-08 9.51385e-08)
(4.08238e-08 -1.03526e-07 1.07202e-07)
(4.51534e-08 -1.13868e-07 1.15949e-07)
(4.7974e-08 -1.21934e-07 1.17336e-07)
(0 0 0)
(3.03775e-09 -6.39249e-09 4.78779e-09)
(5.77437e-09 -1.2291e-08 9.28259e-09)
(8.29496e-09 -1.79825e-08 1.37652e-08)
(1.06736e-08 -2.37025e-08 1.84748e-08)
(1.29778e-08 -2.96471e-08 2.36229e-08)
(1.52721e-08 -3.59804e-08 2.94024e-08)
(1.76209e-08 -4.28414e-08 3.59907e-08)
(2.00922e-08 -5.03509e-08 4.35495e-08)
(2.27606e-08 -5.86179e-08 5.22164e-08)
(2.57099e-08 -6.77494e-08 6.20868e-08)
(2.90375e-08 -7.78622e-08 7.31786e-08)
(3.28543e-08 -8.90946e-08 8.53592e-08)
(3.72658e-08 -1.0159e-07 9.81853e-08)
(4.22559e-08 -1.1534e-07 1.10567e-07)
(4.69619e-08 -1.28681e-07 1.1985e-07)
(5.39711e-08 -1.45879e-07 1.21319e-07)
(0 0 0)
(0 0 0)
(0 0 0)
(0 0 0)
(0 0 0)
(0 0 0)
(0 0 0)
(0 0 0)
(0 0 0)
(0 0 0)
(0 0 0)
(0 0 0)
(0 0 0)
(0 0 0)
(0 0 0)
(0 0 0)
(3.10727e-09 3.07025e-09 1.65874e-09)
(0 0 0)
(4.90993e-10 -1.16961e-09 6.93645e-10)
(9.36728e-10 -2.23828e-09 1.34932e-09)
(1.35413e-09 -3.24917e-09 2.01218e-09)
(1.75795e-09 -4.2344e-09 2.72128e-09)
(2.16127e-09 -5.21439e-09 3.51134e-09)
(2.57595e-09 -6.19644e-09 4.41332e-09)
(3.01321e-09 -7.17239e-09 5.4538e-09)
(3.48428e-09 -8.11468e-09 6.65241e-09)
(4.00137e-09 -8.97053e-09 8.01578e-09)
(4.5802e-09 -9.65421e-09 9.52573e-09)
(5.24616e-09 -1.00397e-08 1.11185e-08)
(6.04591e-09 -9.95784e-09 1.26495e-08)
(7.05727e-09 -9.20578e-09 1.3837e-08)
(8.34803e-09 -7.60276e-09 1.42022e-08)
(9.70316e-09 -5.30715e-09 1.3262e-08)
(9.95799e-09 -1.95262e-09 9.95805e-09)
(0 0 0)
(9.69951e-10 -2.30428e-09 1.36923e-09)
(1.85016e-09 -4.41102e-09 2.66307e-09)
(2.67371e-09 -6.40646e-09 3.97019e-09)
(3.46928e-09 -8.35529e-09 5.36721e-09)
(4.26229e-09 -1.03001e-08 6.92224e-09)
(5.07561e-09 -1.22592e-08 8.69616e-09)
(5.93014e-09 -1.42225e-08 1.07415e-08)
(6.84484e-09 -1.61453e-08 1.30974e-08)
(7.83595e-09 -1.79392e-08 1.5778e-08)
(8.91557e-09 -1.94631e-08 1.87497e-08)
(1.00896e-08 -2.05232e-08 2.18924e-08)
(1.13522e-08 -2.09055e-08 2.49353e-08)
(1.26609e-08 -2.04839e-08 2.73673e-08)
(1.38534e-08 -1.94626e-08 2.83905e-08)
(1.45332e-08 -1.86278e-08 2.73993e-08)
(1.43929e-08 -1.95044e-08 2.48427e-08)
(0 0 0)
(1.42581e-09 -3.37001e-09 2.01031e-09)
(2.71892e-09 -6.45429e-09 3.90887e-09)
(3.92708e-09 -9.3818e-09 5.82484e-09)
(5.09168e-09 -1.22508e-08 7.86966e-09)
(6.2493e-09 -1.51291e-08 1.01425e-08)
(7.43266e-09 -1.8052e-08 1.27323e-08)
(8.67064e-09 -2.10184e-08 1.57168e-08)
(9.9867e-09 -2.39833e-08 1.91554e-08)
(1.13939e-08 -2.68486e-08 2.30738e-08)
(1.28844e-08 -2.94561e-08 2.74339e-08)
(1.44097e-08 -3.15949e-08 3.20837e-08)
(1.5845e-08 -3.30581e-08 3.66802e-08)
(1.69352e-08 -3.38011e-08 4.0597e-08)
(1.72625e-08 -3.42242e-08 4.29195e-08)
(1.65221e-08 -3.51661e-08 4.29973e-08)
(1.45553e-08 -3.75578e-08 4.14642e-08)
(0 0 0)
(1.84837e-09 -4.33223e-09 2.60177e-09)
(3.52316e-09 -8.30232e-09 5.05688e-09)
(5.08488e-09 -1.20809e-08 7.53055e-09)
(6.58584e-09 -1.58002e-08 1.01651e-08)
(8.07246e-09 -1.95564e-08 1.30872e-08)
(9.58613e-09 -2.34084e-08 1.64111e-08)
(1.11629e-08 -2.73748e-08 2.02376e-08)
(1.28305e-08 -3.14286e-08 2.46465e-08)
(1.45989e-08 -3.54878e-08 2.96791e-08)
(1.64418e-08 -3.94084e-08 3.53047e-08)
(1.82587e-08 -4.29867e-08 4.13643e-08)
(1.98103e-08 -4.5995e-08 4.74865e-08)
(2.06313e-08 -4.82859e-08 5.29878e-08)
(2.00323e-08 -4.99848e-08 5.6859e-08)
(1.77329e-08 -5.1512e-08 5.82497e-08)
(1.3926e-08 -5.37226e-08 5.7703e-08)
(0 0 0)
(2.22896e-09 -5.15695e-09 3.13092e-09)
(4.2461e-09 -9.88988e-09 6.082e-09)
(6.1222e-09 -1.44086e-08 9.04893e-09)
(7.91854e-09 -1.88788e-08 1.21999e-08)
(9.68963e-09 -2.34262e-08 1.56843e-08)
(1.14845e-08 -2.81379e-08 1.96375e-08)
(1.33465e-08 -3.30617e-08 2.41797e-08)
(1.53098e-08 -3.82024e-08 2.94092e-08)
(1.739e-08 -4.35159e-08 3.53844e-08)
(1.95621e-08 -4.89006e-08 4.20895e-08)
(2.17178e-08 -5.41874e-08 4.93763e-08)
(2.3588e-08 -5.91279e-08 5.68739e-08)
(2.46289e-08 -6.33773e-08 6.3873e-08)
(2.39862e-08 -6.64855e-08 6.92719e-08)
(2.11921e-08 -6.80304e-08 7.19659e-08)
(1.60173e-08 -6.84249e-08 7.23763e-08)
(0 0 0)
(2.56085e-09 -5.81181e-09 3.58807e-09)
(4.87473e-09 -1.11545e-08 6.96516e-09)
(7.01992e-09 -1.62726e-08 1.03509e-08)
(9.0642e-09 -2.13623e-08 1.39334e-08)
(1.10681e-08 -2.65782e-08 1.78792e-08)
(1.30867e-08 -3.20367e-08 2.23387e-08)
(1.51703e-08 -3.78184e-08 2.74462e-08)
(1.73625e-08 -4.39678e-08 3.33134e-08)
(1.96933e-08 -5.04917e-08 4.00124e-08)
(2.21636e-08 -5.7354e-08 4.75424e-08)
(2.47142e-08 -6.44635e-08 5.57717e-08)
(2.71668e-08 -7.16397e-08 6.43414e-08)
(2.91298e-08 -7.85147e-08 7.25267e-08)
(2.99193e-08 -8.43187e-08 7.91202e-08)
(2.89128e-08 -8.77208e-08 8.27424e-08)
(2.47487e-08 -8.60224e-08 8.388e-08)
(0 0 0)
(2.8395e-09 -6.26758e-09 3.967e-09)
(5.40048e-09 -1.20394e-08 7.6943e-09)
(7.76562e-09 -1.75882e-08 1.14185e-08)
(1.00063e-08 -2.31352e-08 1.53408e-08)
(1.21865e-08 -2.88596e-08 1.96384e-08)
(1.43648e-08 -3.49042e-08 2.447e-08)
(1.65963e-08 -4.13798e-08 2.99765e-08)
(1.89331e-08 -4.83685e-08 3.6275e-08)
(2.14212e-08 -5.59258e-08 4.34427e-08)
(2.40951e-08 -6.40824e-08 5.14855e-08)
(2.69655e-08 -7.28426e-08 6.02809e-08)
(2.99971e-08 -8.21706e-08 6.94777e-08)
(3.30775e-08 -9.19304e-08 7.83306e-08)
(3.59792e-08 -1.01688e-07 8.5495e-08)
(3.82752e-08 -1.10061e-07 8.92247e-08)
(4.00866e-08 -1.15273e-07 8.95878e-08)
(0 0 0)
(3.06285e-09 -6.49996e-09 4.26525e-09)
(5.81991e-09 -1.24976e-08 8.26525e-09)
(8.35482e-09 -1.82846e-08 1.2246e-08)
(1.07395e-08 -2.40996e-08 1.64152e-08)
(1.3038e-08 -3.01395e-08 2.09538e-08)
(1.53092e-08 -3.65664e-08 2.60214e-08)
(1.76089e-08 -4.35134e-08 3.17574e-08)
(1.99917e-08 -5.10883e-08 3.82743e-08)
(2.25109e-08 -5.93771e-08 4.56432e-08)
(2.52176e-08 -6.84457e-08 5.38629e-08)
(2.81566e-08 -7.83405e-08 6.28067e-08)
(3.13544e-08 -8.908e-08 7.21259e-08)
(3.47938e-08 -1.00615e-07 8.10916e-08)
(3.83389e-08 -1.12689e-07 8.84022e-08)
(4.13611e-08 -1.23744e-07 9.22317e-08)
(4.6421e-08 -1.37249e-07 9.00064e-08)
(0 0 0)
(0 0 0)
(0 0 0)
(0 0 0)
(0 0 0)
(0 0 0)
(0 0 0)
(0 0 0)
(0 0 0)
(0 0 0)
(0 0 0)
(0 0 0)
(0 0 0)
(0 0 0)
(0 0 0)
(0 0 0)
(1.79281e-09 1.53689e-09 1.67664e-09)
(0 0 0)
(4.91568e-10 -1.18615e-09 5.8416e-10)
(9.36914e-10 -2.27022e-09 1.13575e-09)
(1.35201e-09 -3.2963e-09 1.69215e-09)
(1.7503e-09 -4.29742e-09 2.28535e-09)
(2.14287e-09 -5.29507e-09 2.94311e-09)
(2.5385e-09 -6.29818e-09 3.68919e-09)
(2.94356e-09 -7.30148e-09 4.54229e-09)
(3.36145e-09 -8.28284e-09 5.51316e-09)
(3.79188e-09 -9.19978e-09 6.5985e-09)
(4.23041e-09 -9.98597e-09 7.77019e-09)
(4.67027e-09 -1.055e-08 8.95871e-09)
(5.10866e-09 -1.07789e-08 1.0031e-08)
(5.55792e-09 -1.05427e-08 1.07712e-08)
(6.04537e-09 -9.6935e-09 1.0906e-08)
(6.52314e-09 -8.1851e-09 1.03239e-08)
(6.5241e-09 -5.03783e-09 8.68643e-09)
(0 0 0)
(9.71353e-10 -2.33673e-09 1.15318e-09)
(1.85111e-09 -4.47364e-09 2.2417e-09)
(2.67052e-09 -6.49868e-09 3.33898e-09)
(3.45582e-09 -8.47819e-09 4.50776e-09)
(4.22874e-09 -1.04566e-08 5.80256e-09)
(5.00643e-09 -1.2455e-08 7.27017e-09)
(5.8009e-09 -1.44679e-08 8.94779e-09)
(6.61709e-09 -1.6459e-08 1.08574e-08)
(7.4494e-09 -1.83559e-08 1.29942e-08)
(8.27653e-09 -2.00464e-08 1.53068e-08)
(9.0557e-09 -2.13851e-08 1.76671e-08)
(9.71803e-09 -2.22253e-08 1.98325e-08)
(1.01701e-08 -2.24941e-08 2.14204e-08)
(1.03131e-08 -2.23113e-08 2.19773e-08)
(1.01333e-08 -2.20505e-08 2.14015e-08)
(1.0079e-08 -2.25408e-08 2.05375e-08)
(0 0 0)
(1.42849e-09 -3.41715e-09 1.69325e-09)
(2.72163e-09 -6.54513e-09 3.29069e-09)
(3.9247e-09 -9.51522e-09 4.89928e-09)
(5.07575e-09 -1.24278e-08 6.61027e-09)
(6.20644e-09 -1.53528e-08 8.50311e-09)
(7.34194e-09 -1.83285e-08 1.06465e-08)
(8.49949e-09 -2.13582e-08 1.30957e-08)
(9.68465e-09 -2.44052e-08 1.58854e-08)
(1.08836e-08 -2.73864e-08 1.90141e-08)
(1.20498e-08 -3.01701e-08 2.24184e-08)
(1.30835e-08 -3.25874e-08 2.59358e-08)
(1.38065e-08 -3.44828e-08 2.92636e-08)
(1.39527e-08 -3.58306e-08 3.19449e-08)
(1.32552e-08 -3.69028e-08 3.34851e-08)
(1.18599e-08 -3.8167e-08 3.37948e-08)
(1.03861e-08 -4.01735e-08 3.37981e-08)
(0 0 0)
(1.85287e-09 -4.39231e-09 2.19169e-09)
(3.52889e-09 -8.41788e-09 4.25769e-09)
(5.08564e-09 -1.22501e-08 6.33483e-09)
(6.57165e-09 -1.60234e-08 8.53969e-09)
(8.02768e-09 -1.9836e-08 1.09739e-08)
(9.48662e-09 -2.37488e-08 1.37259e-08)
(1.09716e-08 -2.77833e-08 1.6868e-08)
(1.24907e-08 -3.19166e-08 2.04482e-08)
(1.40261e-08 -3.60754e-08 2.44725e-08)
(1.55127e-08 -4.01301e-08 2.88761e-08)
(1.68042e-08 -4.38991e-08 3.34828e-08)
(1.76236e-08 -4.71777e-08 3.79626e-08)
(1.75295e-08 -4.9812e-08 4.1824e-08)
(1.60338e-08 -5.18209e-08 4.45377e-08)
(1.33109e-08 -5.33933e-08 4.59052e-08)
(1.02715e-08 -5.51773e-08 4.67746e-08)
(0 0 0)
(2.23586e-09 -5.22777e-09 2.63782e-09)
(4.25612e-09 -1.00259e-08 5.12158e-09)
(6.12856e-09 -1.46071e-08 7.6134e-09)
(7.91049e-09 -1.91391e-08 1.02511e-08)
(9.65062e-09 -2.37493e-08 1.31547e-08)
(1.13893e-08 -2.85251e-08 1.64292e-08)
(1.31568e-08 -3.35139e-08 2.01614e-08)
(1.49683e-08 -3.87192e-08 2.44115e-08)
(1.68125e-08 -4.40947e-08 2.91946e-08)
(1.86291e-08 -4.95354e-08 3.44502e-08)
(2.02705e-08 -5.48663e-08 3.99985e-08)
(2.14422e-08 -5.98241e-08 4.54943e-08)
(2.16422e-08 -6.4028e-08 5.04141e-08)
(2.02325e-08 -6.69541e-08 5.41691e-08)
(1.71805e-08 -6.81187e-08 5.64294e-08)
(1.29446e-08 -6.78919e-08 5.80233e-08)
(0 0 0)
(2.5706e-09 -5.89082e-09 3.02347e-09)
(4.89017e-09 -1.1306e-08 5.86631e-09)
(7.03405e-09 -1.64931e-08 8.71053e-09)
(9.06622e-09 -2.16502e-08 1.17103e-08)
(1.10417e-08 -2.69323e-08 1.49998e-08)
(1.30073e-08 -3.24546e-08 1.86957e-08)
(1.50013e-08 -3.82938e-08 2.28954e-08)
(1.70497e-08 -4.44865e-08 2.76677e-08)
(1.91582e-08 -5.10261e-08 3.30347e-08)
(2.12971e-08 -5.78539e-08 3.89395e-08)
(2.33731e-08 -6.48419e-08 4.5199e-08)
(2.51878e-08 -7.17513e-08 5.14478e-08)
(2.63914e-08 -7.81326e-08 5.71059e-08)
(2.6503e-08 -8.3144e-08 6.14675e-08)
(2.5307e-08 -8.55583e-08 6.40664e-08)
(2.21333e-08 -8.29925e-08 6.59427e-08)
(0 0 0)
(2.85243e-09 -6.35201e-09 3.34336e-09)
(5.42212e-09 -1.22011e-08 6.48162e-09)
(7.78909e-09 -1.7823e-08 9.61089e-09)
(1.00213e-08 -2.34405e-08 1.28964e-08)
(1.21778e-08 -2.92325e-08 1.64809e-08)
(1.43098e-08 -3.53389e-08 2.04879e-08)
(1.6462e-08 -4.18634e-08 2.50197e-08)
(1.86708e-08 -4.88749e-08 3.01481e-08)
(2.09617e-08 -5.64063e-08 3.58968e-08)
(2.33426e-08 -6.44506e-08 4.22078e-08)
(2.57944e-08 -7.29511e-08 4.889e-08)
(2.82613e-08 -8.17781e-08 5.55508e-08)
(3.06577e-08 -9.06701e-08 6.1528e-08)
(3.29154e-08 -9.90933e-08 6.59192e-08)
(3.49641e-08 -1.05868e-07 6.80113e-08)
(3.75891e-08 -1.09701e-07 6.88904e-08)
(0 0 0)
(3.07908e-09 -6.58686e-09 3.59535e-09)
(5.8481e-09 -1.2664e-08 6.9639e-09)
(8.38844e-09 -1.85259e-08 1.03097e-08)
(1.07691e-08 -2.44126e-08 1.38034e-08)
(1.305e-08 -3.05199e-08 1.75912e-08)
(1.52839e-08 -3.7006e-08 2.17976e-08)
(1.75176e-08 -4.3995e-08 2.65236e-08)
(1.9793e-08 -5.15784e-08 3.18381e-08)
(2.21462e-08 -5.98145e-08 3.77593e-08)
(2.46064e-08 -6.87246e-08 4.4223e-08)
(2.71926e-08 -7.82857e-08 5.10302e-08)
(2.99105e-08 -8.84151e-08 5.77747e-08)
(3.27525e-08 -9.89379e-08 6.37634e-08)
(3.56853e-08 -1.09516e-07 6.8022e-08)
(3.83563e-08 -1.1888e-07 6.96935e-08)
(4.37934e-08 -1.30765e-07 6.79401e-08)
(0 0 0)
(0 0 0)
(0 0 0)
(0 0 0)
(0 0 0)
(0 0 0)
(0 0 0)
(0 0 0)
(0 0 0)
(0 0 0)
(0 0 0)
(0 0 0)
(0 0 0)
(0 0 0)
(0 0 0)
(0 0 0)
(1.3041e-09 1.01546e-09 1.55101e-09)
(0 0 0)
(4.91171e-10 -1.19893e-09 4.55201e-10)
(9.35285e-10 -2.29487e-09 8.84619e-10)
(1.34742e-09 -3.33268e-09 1.31698e-09)
(1.7398e-09 -4.34603e-09 1.77658e-09)
(2.1217e-09 -5.35713e-09 2.28405e-09)
(2.49928e-09 -6.37606e-09 2.85634e-09)
(2.87503e-09 -7.39953e-09 3.50567e-09)
(3.24673e-09 -8.40891e-09 4.23698e-09)
(3.60615e-09 -9.36765e-09 5.04311e-09)
(3.93846e-09 -1.0219e-08 5.8973e-09)
(4.22484e-09 -1.0885e-08 6.74356e-09)
(4.4529e-09 -1.12664e-08 7.48902e-09)
(4.63991e-09 -1.1233e-08 8.00888e-09)
(4.85933e-09 -1.05925e-08 8.19091e-09)
(5.1767e-09 -9.19093e-09 8.04697e-09)
(5.31001e-09 -5.9168e-09 7.23099e-09)
(0 0 0)
(9.70845e-10 -2.36183e-09 8.98659e-10)
(1.8485e-09 -4.52205e-09 1.74615e-09)
(2.66247e-09 -6.56989e-09 2.59889e-09)
(3.43668e-09 -8.57286e-09 3.50453e-09)
(4.1895e-09 -1.05767e-08 4.50357e-09)
(4.93328e-09 -1.26041e-08 5.62951e-09)
(5.67295e-09 -1.46528e-08 6.90677e-09)
(6.40339e-09 -1.66918e-08 8.34585e-09)
(7.10547e-09 -1.86572e-08 9.93427e-09)
(7.74151e-09 -2.045e-08 1.16227e-08)
(8.25342e-09 -2.19413e-08 1.33081e-08)
(8.57078e-09 -2.29929e-08 1.48202e-08)
(8.64214e-09 -2.35021e-08 1.59322e-08)
(8.5031e-09 -2.34693e-08 1.64397e-08)
(8.34216e-09 -2.30912e-08 1.63718e-08)
(8.71936e-09 -2.30732e-08 1.61813e-08)
(0 0 0)
(1.42836e-09 -3.45365e-09 1.31964e-09)
(2.71909e-09 -6.61536e-09 2.56352e-09)
(3.91507e-09 -9.6181e-09 3.81377e-09)
(5.05117e-09 -1.25636e-08 5.1397e-09)
(6.15465e-09 -1.55233e-08 6.60043e-09)
(7.24426e-09 -1.85372e-08 8.2452e-09)
(8.32804e-09 -2.16111e-08 1.01107e-08)
(9.39889e-09 -2.47127e-08 1.22143e-08)
(1.04268e-08 -2.77658e-08 1.45424e-08)
(1.13479e-08 -3.06484e-08 1.70321e-08)
(1.20515e-08 -3.32011e-08 1.95515e-08)
(1.23758e-08 -3.52635e-08 2.18873e-08)
(1.21379e-08 -3.67585e-08 2.37699e-08)
(1.12675e-08 -3.78227e-08 2.49848e-08)
(1.01196e-08 -3.87914e-08 2.557e-08)
(9.35334e-09 -4.02353e-08 2.59619e-08)
(0 0 0)
(1.8537e-09 -4.43878e-09 1.70831e-09)
(3.5277e-09 -8.50709e-09 3.31726e-09)
(5.07675e-09 -1.23802e-08 4.93192e-09)
(6.54571e-09 -1.61939e-08 6.64085e-09)
(7.97031e-09 -2.00475e-08 8.5198e-09)
(9.37618e-09 -2.40028e-08 1.06323e-08)
(1.07762e-08 -2.80819e-08 1.30266e-08)
(1.2165e-08 -3.2263e-08 1.57279e-08)
(1.35083e-08 -3.64739e-08 1.87248e-08)
(1.4726e-08 -4.05855e-08 2.19489e-08)
(1.56686e-08 -4.44125e-08 2.52532e-08)
(1.60927e-08 -4.77307e-08 2.84018e-08)
(1.56713e-08 -5.03301e-08 3.11042e-08)
(1.41458e-08 -5.21262e-08 3.31333e-08)
(1.18776e-08 -5.32636e-08 3.44566e-08)
(9.7382e-09 -5.44749e-08 3.54356e-08)
(0 0 0)
(2.23822e-09 -5.28244e-09 2.05634e-09)
(4.2576e-09 -1.01306e-08 3.99094e-09)
(6.12286e-09 -1.4759e-08 5.92827e-09)
(7.88751e-09 -1.93368e-08 7.97308e-09)
(9.59503e-09 -2.39914e-08 1.0215e-08)
(1.12783e-08 -2.88099e-08 1.27296e-08)
(1.29574e-08 -3.38373e-08 1.55749e-08)
(1.46344e-08 -3.90732e-08 1.87834e-08)
(1.62827e-08 -4.44642e-08 2.23473e-08)
(1.78304e-08 -4.98934e-08 2.61959e-08)
(1.91332e-08 -5.51653e-08 3.01716e-08)
(1.99407e-08 -5.99818e-08 3.40181e-08)
(1.98802e-08 -6.39087e-08 3.7416e-08)
(1.85526e-08 -6.63694e-08 4.0102e-08)