/*--------------------------------*- C++ -*----------------------------------*\
| =========                 |                                                 |
| \\      /  F ield         | OpenFOAM: The Open Source CFD Toolbox           |
|  \\    /   O peration     | Version:  v1912                                 |
|   \\  /    A nd           | Website:  www.openfoam.com                      |
|    \\/     M anipulation  |                                                 |
\*---------------------------------------------------------------------------*/
FoamFile
{
    version     2.0;
    format      ascii;
    class       volScalarField;
    location    "0.77/fluid";
    object      T;
}
// * * * * * * * * * * * * * * * * * * * * * * * * * * * * * * * * * * * * * //

dimensions      [0 0 0 1 0 0 0];


internalField   nonuniform List<scalar> 
14592
(
273.286
273.869
274.476
275.113
275.785
276.501
277.267
278.092
278.986
279.958
281.023
282.195
283.496
284.956
286.635
288.679
273.284
273.863
274.466
275.1
275.769
276.481
277.243
278.063
278.952
279.919
280.978
282.145
283.441
284.896
286.563
288.549
273.282
273.856
274.453
275.08
275.743
276.447
277.202
278.014
278.893
279.849
280.897
282.054
283.34
284.789
286.453
288.44
273.279
273.846
274.437
275.056
275.71
276.405
277.149
277.948
278.813
279.755
280.786
281.925
283.195
284.634
286.3
288.314
273.275
273.836
274.418
275.028
275.672
276.355
277.085
277.869
278.716
279.637
280.644
281.758
283.003
284.422
286.085
288.135
273.271
273.823
274.397
274.997
275.629
276.299
277.013
277.779
278.603
279.498
280.474
281.552
282.758
284.138
285.777
287.853
273.267
273.81
274.374
274.963
275.583
276.238
276.935
277.679
278.478
279.34
280.278
281.308
282.457
283.769
285.336
287.374
273.263
273.797
274.35
274.928
275.534
276.174
276.851
277.572
278.342
279.169
280.062
281.033
282.104
283.31
284.723
286.533
273.291
273.884
274.503
275.153
275.841
276.576
277.365
278.219
279.148
280.165
281.286
282.529
283.92
285.496
287.319
289.51
273.289
273.879
274.493
275.139
275.824
276.555
277.34
278.188
279.112
280.124
281.239
282.477
283.864
285.436
287.251
289.405
273.287
273.871
274.48
275.119
275.797
276.52
277.297
278.137
279.051
280.052
281.156
282.383
283.761
285.328
287.144
289.31
273.284
273.861
274.463
275.095
275.763
276.476
277.242
278.069
278.968
279.953
281.039
282.248
283.611
285.17
286.993
289.197
273.28
273.85
274.443
275.066
275.724
276.425
277.176
277.986
278.866
279.829
280.89
282.073
283.41
284.951
286.777
289.031
273.276
273.837
274.421
275.033
275.679
276.366
277.101
277.891
278.748
279.682
280.711
281.856
283.151
284.654
286.462
288.761
273.271
273.824
274.398
274.998
275.631
276.302
277.018
277.786
278.615
279.516
280.503
281.597
282.83
284.26
285.996
288.273
273.267
273.809
274.373
274.962
275.581
276.235
276.931
277.674
278.472
279.335
280.272
281.302
282.45
283.763
285.33
287.369
273.295
273.899
274.528
275.19
275.893
276.645
277.455
278.335
279.295
280.351
281.518
282.817
284.272
285.915
287.789
289.954
273.294
273.893
274.518
275.177
275.876
276.623
277.429
278.303
279.259
280.309
281.47
282.764
284.215
285.855
287.725
289.866
273.291
273.885
274.504
275.156
275.848
276.588
277.385
278.25
279.195
280.234
281.384
282.666
284.109
285.746
287.62
289.779
273.288
273.875
274.487
275.13
275.813
276.543
277.328
278.18
279.109
280.131
281.263
282.527
283.955
285.585
287.471
289.672
273.284
273.863
274.467
275.101
275.772
276.489
277.26
278.094
279.003
280.002
281.108
282.346
283.748
285.362
287.254
289.512
273.28
273.85
274.444
275.067
275.726
276.428
277.182
277.995
278.88
279.849
280.921
282.119
283.479
285.055
286.934
289.244
273.276
273.836
274.42
275.031
275.676
276.362
277.096
277.886
278.741
279.675
280.703
281.847
283.143
284.646
286.455
288.756
273.271
273.822
274.394
274.993
275.624
276.292
277.005
277.768
278.592
279.485
280.46
281.537
282.743
284.124
285.764
287.844
273.3
273.911
274.55
275.224
275.94
276.707
277.535
278.436
279.423
280.51
281.713
283.052
284.547
286.221
288.099
290.198
273.298
273.906
274.541
275.21
275.922
276.684
277.508
278.404
279.385
280.466
281.664
282.998
284.489
286.162
288.037
290.117
273.295
273.898
274.526
275.189
275.893
276.648
277.463
278.35
279.32
280.39
281.575
282.898
284.382
286.053
287.935
290.034
273.292
273.887
274.508
275.163
275.857
276.601
277.404
278.277
279.232
280.284
281.451
282.756
284.225
285.891
287.786
289.929
273.288
273.876
274.488
275.132
275.815
276.546
277.334
278.189
279.123
280.151
281.292
282.569
284.013
285.663
287.568
289.771
273.284
273.862
274.465
275.097
275.768
276.484
277.253
278.086
278.995
279.993
281.098
282.335
283.736
285.351
287.245
289.505
273.279
273.848
274.439
275.06
275.716
276.415
277.164
277.973
278.851
279.812
280.872
282.054
283.39
284.931
286.76
289.02
273.274
273.833
274.413
275.021
275.662
276.343
277.07
277.852
278.696
279.614
280.62
281.732
282.977
284.396
286.061
288.118
273.303
273.922
274.57
275.252
275.978
276.758
277.601
278.52
279.528
280.638
281.868
283.234
284.752
286.438
288.301
290.34
273.302
273.917
274.56
275.238
275.96
276.735
277.574
278.488
279.49
280.594
281.818
283.179
284.694
286.379
288.24
290.262
273.299
273.908
274.545
275.216
275.931
276.698
277.528
278.432
279.423
280.516
281.728
283.078
284.586
286.269
288.139
290.181
273.296
273.898
274.527
275.19
275.895
276.651
277.468
278.358
279.332
280.408
281.601
282.933
284.427
286.106
287.99
290.078
273.292
273.886
274.506
275.158
275.852
276.594
277.396
278.267
279.221
280.272
281.438
282.742
284.211
285.876
287.772
289.92
273.287
273.872
274.482
275.123
275.803
276.53
277.313
278.162
279.089
280.109
281.239
282.503
283.93
285.56
287.447
289.655
273.282
273.857
274.456
275.085
275.75
276.46
277.222
278.046
278.942
279.924
281.008
282.215
283.577
285.135
286.961
289.174
273.277
273.842
274.429
275.044
275.694
276.385
277.125
277.921
278.782
279.72
280.749
281.886
283.155
284.594
286.262
288.285
273.306
273.931
274.584
275.274
276.009
276.798
277.653
278.585
279.607
280.735
281.983
283.366
284.896
286.584
288.43
290.424
273.304
273.925
274.574
275.26
275.99
276.775
277.625
278.552
279.569
280.691
281.933
283.31
284.838
286.525
288.37
290.348
273.302
273.917
274.559
275.238
275.961
276.737
277.578
278.495
279.501
280.611
281.841
283.208
284.729
286.415
288.269
290.268
273.298
273.906
274.541
275.211
275.924
276.689
277.517
278.419
279.409
280.501
281.712
283.061
284.568
286.251
288.121
290.165
273.294
273.894
274.519
275.179
275.88
276.631
277.443
278.327
279.295
280.363
281.547
282.868
284.35
286.02
287.902
290.008
273.29
273.88
274.495
275.143
275.83
276.566
277.359
278.22
279.162
280.197
281.345
282.625
284.066
285.702
287.577
289.744
273.285
273.865
274.469
275.104
275.776
276.494
277.266
278.101
279.011
280.008
281.109
282.334
283.709
285.275
287.091
289.267
273.28
273.849
274.441
275.063
275.72
276.419
277.167
277.974
278.848
279.801
280.845
281.999
283.283
284.73
286.394
288.388
273.308
273.937
274.595
275.289
276.029
276.825
277.687
278.628
279.661
280.8
282.058
283.451
284.988
286.674
288.507
290.473
273.306
273.931
274.584
275.275
276.011
276.802
277.659
278.595
279.622
280.755
282.008
283.395
284.929
286.616
288.448
290.397
273.304
273.922
274.569
275.253
275.981
276.764
277.612
278.538
279.554
280.674
281.916
283.293
284.82
286.505
288.347
290.318
273.3
273.912
274.551
275.225
275.943
276.715
277.55
278.461
279.461
280.563
281.786
283.145
284.658
286.341
288.198
290.215
273.296
273.899
274.529
275.193
275.899
276.657
277.476
278.368
279.346
280.423
281.618
282.95
284.439
286.109
287.979
290.058
273.291
273.885
274.505
275.157
275.849
276.591
277.391
278.26
279.21
280.256
281.414
282.705
284.153
285.789
287.654
289.795
273.286
273.87
274.478
275.117
275.794
276.518
277.296
278.139
279.058
280.065
281.176
282.41
283.794
285.361
287.169
289.321
273.281
273.854
274.45
275.076
275.737
276.441
277.196
278.01
278.893
279.855
280.91
282.072
283.364
284.815
286.474
288.449
273.309
273.94
274.6
275.297
276.04
276.839
277.705
278.65
279.688
280.832
282.096
283.493
285.032
286.717
288.543
290.495
273.307
273.934
274.59
275.282
276.021
276.816
277.677
278.617
279.649
280.787
282.045
283.437
284.974
286.658
288.484
290.42
273.304
273.925
274.574
275.26
275.991
276.777
277.63
278.559
279.58
280.706
281.952
283.334
284.864
286.548
288.383
290.341
273.301
273.915
274.556
275.232
275.953
276.728
277.567
278.482
279.487
280.594
281.822
283.186
284.702
286.383
288.234
290.238
273.297
273.902
274.534
275.2
275.909
276.67
277.492
278.389
279.371
280.454
281.654
282.99
284.482
286.151
288.015
290.081
273.292
273.888
274.509
275.163
275.859
276.603
277.407
278.28
279.235
280.286
281.449
282.744
284.195
285.831
287.69
289.819
273.287
273.873
274.482
275.124
275.804
276.53
277.312
278.159
279.081
280.093
281.209
282.448
283.835
285.402
287.206
289.346
273.282
273.856
274.454
275.082
275.746
276.453
277.211
278.029
278.915
279.882
280.941
282.109
283.404
284.856
286.512
288.478
273.259
273.785
274.329
274.892
275.476
276.082
276.709
277.357
278.024
278.704
279.392
280.075
280.739
281.365
281.93
282.408
273.257
273.781
274.323
274.884
275.465
276.068
276.693
277.338
278.002
278.68
279.364
280.044
280.705
281.328
281.891
282.367
273.256
273.776
274.313
274.87
275.447
276.045
276.664
277.305
277.963
278.634
279.312
279.986
280.641
281.258
281.816
282.289
273.253
273.768
274.301
274.852
275.423
276.014
276.627
277.259
277.909
278.572
279.241
279.905
280.55
281.159
281.709
282.176
273.251
273.76
274.286
274.831
275.394
275.978
276.582
277.205
277.844
278.496
279.152
279.804
280.437
281.033
281.572
282.031
273.247
273.751
274.27
274.807
275.362
275.937
276.531
277.143
277.77
278.408
279.05
279.686
280.303
280.884
281.41
281.857
273.244
273.74
274.252
274.781
275.328
275.893
276.475
277.075
277.688
278.31
278.936
279.554
280.153
280.717
281.226
281.659
273.241
273.73
274.234
274.755
275.292
275.846
276.417
277.003
277.602
278.208
278.815
279.414
279.993
280.536
281.026
281.444
273.259
273.787
274.332
274.897
275.484
276.093
276.725
277.379
278.054
278.745
279.445
280.144
280.827
281.475
282.062
282.562
273.258
273.782
274.325
274.887
275.471
276.078
276.707
277.359
278.03
278.718
279.415
280.111
280.791
281.435
282.02
282.518
273.256
273.776
274.315
274.873
275.452
276.053
276.678
277.324
277.989
278.671
279.361
280.05
280.724
281.363
281.943
282.437
273.254
273.769
274.302
274.854
275.427
276.022
276.639
277.277
277.935
278.607
279.288
279.967
280.631
281.26
281.832
282.32
273.251
273.761
274.287
274.833
275.399
275.985
276.593
277.222
277.868
278.529
279.197
279.863
280.514
281.13
281.691
282.17
273.248
273.751
274.271
274.809
275.366
275.944
276.541
277.158
277.792
278.439
279.092
279.742
280.376
280.976
281.522
281.989
273.244
273.741
274.253
274.783
275.332
275.899
276.485
277.089
277.709
278.34
278.975
279.607
280.221
280.802
281.33
281.782
273.241
273.73
274.235
274.756
275.295
275.852
276.426
277.017
277.621
278.235
278.851
279.462
280.055
280.614
281.122
281.555
273.261
273.791
274.34
274.91
275.502
276.118
276.76
277.427
278.117
278.828
279.554
280.285
281.006
281.697
282.332
282.875
273.259
273.787
274.333
274.899
275.489
276.102
276.741
277.404
278.092
278.8
279.522
280.249
280.967
281.655
282.287
282.83
273.258
273.781
274.322
274.884
275.468
276.076
276.71
277.367
278.049
278.75
279.465
280.185
280.896
281.578
282.205
282.744
273.255
273.773
274.309
274.865
275.443
276.044
276.67
277.319
277.991
278.683
279.388
280.097
280.798
281.47
282.088
282.62
273.252
273.764
274.294
274.843
275.413
276.006
276.622
277.261
277.922
278.601
279.293
279.988
280.674
281.332
281.938
282.46
273.249
273.755
274.277
274.818
275.38
275.963
276.569
277.196
277.843
278.507
279.183
279.86
280.528
281.168
281.757
282.265
273.246
273.744
274.259
274.792
275.344
275.917
276.511
277.125
277.757
278.404
279.06
279.717
280.363
280.981
281.548
282.038
273.242
273.733
274.24
274.765
275.307
275.869
276.45
277.05
277.666
278.294
278.93
279.564
280.185
280.777
281.32
281.787
273.263
273.799
274.354
274.931
275.531
276.159
276.814
277.499
278.212
278.953
279.717
280.495
281.274
282.034
282.743
283.361
273.262
273.794
274.346
274.92
275.517
276.141
276.794
277.475
278.185
278.923
279.682
280.456
281.232
281.989
282.696
283.312
273.26
273.788
274.335
274.903
275.496
276.114
276.761
277.436
278.14
278.87
279.622
280.388
281.156
281.906
282.608
283.221
273.257
273.78
274.321
274.883
275.469
276.081
276.719
277.386
278.079
278.799
279.54
280.295
281.051
281.79
282.483
283.088
273.254
273.771
274.306
274.861
275.439
276.041
276.67
277.325
278.007
278.713
279.439
280.178
280.919
281.642
282.32
282.914
273.251
273.761
274.289
274.836
275.404
275.997
276.614
277.257
277.924
278.614
279.322
280.041
280.76
281.462
282.12
282.698
273.248
273.751
274.27
274.808
275.368
275.949
276.554
277.182
277.833
278.504
279.191
279.887
280.58
281.255
281.887
282.441
273.244
273.739
274.251
274.78
275.329
275.899
276.491
277.104
277.737
278.387
279.051
279.72
280.384
281.027
281.627
282.151
273.267
273.81
274.373
274.959
275.571
276.212
276.885
277.593
278.336
279.115
279.927
280.768
281.625
282.48
283.3
284.031
273.265
273.805
274.365
274.947
275.556
276.194
276.864
277.568
278.308
279.082
279.891
280.727
281.58
282.432
283.249
283.979
273.263
273.798
274.353
274.93
275.534
276.166
276.83
277.527
278.259
279.026
279.826
280.654
281.5
282.344
283.156
283.882
273.261
273.79
274.339
274.91
275.506
276.13
276.786
277.474
278.196
278.951
279.739
280.554
281.386
282.219
283.021
283.74
273.258
273.781
274.323
274.886
275.474
276.089
276.734
277.41
278.119
278.86
279.631
280.428
281.242
282.057
282.842
283.55
273.254
273.771
274.305
274.86
275.438
276.043
276.676
277.338
278.031
278.754
279.504
280.279
281.069
281.858
282.62
283.307
273.251
273.76
274.286
274.832
275.4
275.993
276.612
277.259
277.934
278.636
279.363
280.11
280.869
281.625
282.352
283.009
273.247
273.748
274.266
274.802
275.36
275.941
276.546
277.176
277.831
278.51
279.21
279.926
280.648
281.364
282.048
282.662
273.271
273.823
274.395
274.993
275.618
276.276
276.971
277.705
278.483
279.306
280.177
281.093
282.048
283.027
284
284.903
273.27
273.818
274.387
274.981
275.603
276.258
276.949
277.679
278.453
279.272
280.138
281.049
282
282.976
283.946
284.847
273.267
273.811
274.375
274.963
275.58
276.228
276.912
277.636
278.402
279.213
280.069
280.972
281.914
282.882
283.847
284.745
273.265
273.803
274.36
274.942
275.551
276.191
276.866
277.58
278.334
279.133
279.976
280.864
281.792
282.748
283.702
284.594
273.261
273.793
274.344
274.917
275.517
276.148
276.812
277.513
278.253
279.035
279.86
280.728
281.635
282.571
283.508
284.389
273.258
273.782
274.325
274.89
275.48
276.099
276.75
277.436
278.159
278.921
279.723
280.565
281.444
282.35
283.259
284.117
273.254
273.771
274.305
274.86
275.44
276.047
276.683
277.352
278.055
278.794
279.568
280.378
281.22
282.084
282.949
283.766
273.25
273.758
274.284
274.83
275.398
275.992
276.613
277.264
277.945
278.658
279.401
280.173
280.97
281.781
282.585
283.338
273.276
273.837
274.421
275.031
275.671
276.348
277.066
277.83
278.645
279.518
280.453
281.453
282.521
283.653
284.828
285.991
273.274
273.832
274.412
275.018
275.656
276.329
277.043
277.803
278.614
279.482
280.412
281.407
282.471
283.599
284.771
285.927
273.272
273.825
274.4
275
275.631
276.298
277.005
277.757
278.56
279.419
280.339
281.325
282.379
283.499
284.666
285.82
273.269
273.816
274.385
274.978
275.601
276.259
276.957
277.698
278.489
279.334
280.239
281.21
282.249
283.356
284.514
285.667
273.266
273.806
274.367
274.952
275.566
276.214
276.899
277.627
278.402
279.229
280.114
281.063
282.079
283.165
284.307
285.453
273.262
273.795
274.348
274.924
275.527
276.163
276.834
277.546
278.302
279.107
279.966
280.885
281.869
282.92
284.031
285.157
273.258
273.783
274.327
274.893
275.485
276.108
276.763
277.457
278.191
278.97
279.798
280.679
281.619
282.619
283.674
284.748
273.254
273.77
274.305
274.861
275.441
276.049
276.689
277.362
278.072
278.822
279.614
280.451
281.335
282.266
283.235
284.207
273.281
273.853
274.448
275.071
275.728
276.424
277.166
277.961
278.816
279.739
280.74
281.829
283.017
284.317
285.742
287.288
273.279
273.848
274.439
275.059
275.712
276.404
277.142
277.933
278.783
279.701
280.697
281.781
282.964
284.26
285.678
287.203
273.277
273.84
274.426
275.04
275.687
276.372
277.103
277.885
278.726
279.635
280.62
281.693
282.867
284.156
285.569
287.092
273.274
273.831
274.41
275.017
275.655
276.332
277.052
277.823
278.651
279.545
280.514
281.571
282.729
284.005
285.414
286.946
273.27
273.821
274.392
274.99
275.619
276.284
276.992
277.748
278.559
279.434
280.381
281.414
282.547
283.802
285.2
286.741
273.267
273.809
274.372
274.96
275.578
276.231
276.923
277.662
278.452
279.303
280.222
281.221
282.318
283.536
284.903
286.437
273.263
273.797
274.35
274.928
275.534
276.172
276.848
277.567
278.334
279.155
280.039
280.996
282.042
283.198
284.499
285.976
273.258
273.783
274.327
274.894
275.487
276.111
276.77
277.467
278.207
278.996
279.839
280.744
281.722
282.791
283.972
285.29
273.258
273.783
274.326
274.893
275.485
276.109
276.767
277.463
278.203
278.991
279.834
280.739
281.717
282.786
283.967
285.286
273.254
273.769
274.303
274.858
275.438
276.045
276.684
277.356
278.065
278.814
279.606
280.442
281.326
282.257
283.226
284.199
273.25
273.757
274.282
274.826
275.393
275.986
276.606
277.256
277.936
278.647
279.39
280.162
280.958
281.769
282.573
283.327
273.246
273.746
274.263
274.798
275.354
275.934
276.538
277.166
277.82
278.498
279.197
279.912
280.634
281.35
282.034
282.648
273.243
273.737
274.247
274.775
275.323
275.891
276.481
277.093
277.724
278.374
279.036
279.704
280.368
281.012
281.611
282.137
273.241
273.731
274.237
274.759
275.301
275.861
276.44
277.038
277.653
278.28
278.914
279.547
280.168
280.76
281.303
281.772
273.24
273.728
274.231
274.751
275.288
275.843
276.416
277.004
277.607
278.219
278.835
279.445
280.037
280.597
281.105
281.539
273.24
273.727
274.23
274.749
275.285
275.837
276.406
276.991
277.587
278.192
278.798
279.396
279.975
280.519
281.009
281.428
273.262
273.795
274.348
274.925
275.529
276.167
276.842
277.559
278.325
279.145
280.028
280.985
282.03
283.187
284.488
285.966
273.258
273.781
274.324
274.888
275.479
276.1
276.754
277.446
278.179
278.957
279.784
280.664
281.603
282.604
283.66
284.734
273.253
273.768
274.301
274.855
275.433
276.038
276.673
277.34
278.041
278.778
279.551
280.36
281.201
282.066
282.932
283.75
273.25
273.757
274.281
274.826
275.392
275.983
276.6
277.245
277.918
278.618
279.344
280.09
280.848
281.604
282.333
282.99
273.247
273.748
274.265
274.802
275.359
275.938
276.541
277.167
277.816
278.485
279.171
279.865
280.558
281.233
281.866
282.421
273.245
273.741
274.254
274.785
275.335
275.906
276.497
277.109
277.739
278.384
279.039
279.695
280.34
280.958
281.527
282.018
273.243
273.738
274.248
274.776
275.322
275.887
276.471
277.073
277.69
278.319
278.953
279.584
280.198
280.779
281.308
281.761
273.243
273.737
274.247
274.774
275.318
275.881
276.461
277.058
277.669
278.29
278.914
279.531
280.13
280.694
281.203
281.638
273.266
273.807
274.368
274.954
275.57
276.221
276.912
277.648
278.437
279.285
280.203
281.202
282.298
283.516
284.885
286.421
273.261
273.792
274.343
274.917
275.518
276.151
276.82
277.53
278.283
279.087
279.944
280.862
281.845
282.897
284.009
285.136
273.257
273.779
274.32
274.882
275.47
276.087
276.735
277.418
278.138
278.898
279.698
280.539
281.417
282.323
283.233
284.093
273.253
273.767
274.299
274.852
275.428
276.029
276.659
277.319
278.009
278.729
279.478
280.252
281.041
281.83
282.592
283.281
273.25
273.758
274.283
274.827
275.393
275.983
276.597
277.237
277.901
278.588
279.295
280.012
280.731
281.433
282.092
282.671
273.248
273.751
274.271
274.809
275.368
275.949
276.551
277.175
277.82
278.482
279.155
279.831
280.498
281.138
281.728
282.238
273.247
273.747
274.265
274.8
275.354
275.929
276.523
277.137
277.768
278.412
279.064
279.712
280.346
280.947
281.494
281.963
273.246
273.747
274.263
274.797
275.35
275.922
276.512
277.121
277.745
278.381
279.021
279.656
280.273
280.855
281.381
281.831
273.269
273.817
274.386
274.981
275.607
276.269
276.974
277.727
278.535
279.407
280.353
281.384
282.516
283.771
285.17
286.715
273.264
273.802
274.36
274.942
275.553
276.197
276.879
277.604
278.375
279.2
280.083
281.03
282.045
283.13
284.274
285.423
273.26
273.789
274.336
274.907
275.503
276.13
276.79
277.488
278.224
279.003
279.826
280.692
281.599
282.534
283.472
284.355
273.256
273.776
274.315
274.875
275.459
276.071
276.712
277.384
278.089
278.827
279.596
280.391
281.205
282.019
282.806
283.515
273.253
273.767
274.298
274.849
275.423
276.022
276.647
277.299
277.977
278.68
279.403
280.141
280.88
281.604
282.283
282.88
273.251
273.76
274.286
274.831
275.398
275.987
276.599
277.234
277.892
278.568
279.257
279.951
280.636
281.294
281.901
282.426
273.249
273.756
274.279
274.821
275.383
275.966
276.57
277.194
277.838
278.495
279.161
279.826
280.475
281.093
281.655
282.137
273.249
273.755
274.278
274.819
275.378
275.958
276.558
277.177
277.813
278.462
279.116
279.766
280.399
280.996
281.537
281.998
273.272
273.826
274.402
275.004
275.638
276.31
277.026
277.792
278.617
279.507
280.474
281.528
282.685
283.96
285.37
286.907
273.267
273.811
274.375
274.964
275.583
276.236
276.928
277.665
278.452
279.294
280.196
281.164
282.202
283.308
284.467
285.622
273.263
273.797
274.35
274.927
275.531
276.167
276.837
277.546
278.296
279.091
279.931
280.817
281.743
282.699
283.654
284.548
273.259
273.784
274.328
274.895
275.486
276.106
276.756
277.439
278.157
278.909
279.693
280.506
281.337
282.17
282.972
283.694
273.255
273.774
274.311
274.868
275.449
276.055
276.689
277.351
278.04
278.756
279.494
280.247
281.002
281.741
282.435
283.044
273.253
273.767
274.298
274.849
275.422
276.019
276.639
277.284
277.952
278.64
279.342
280.05
280.749
281.422
282.042
282.578
273.252
273.763
274.292
274.839
275.407
275.997
276.609
277.243
277.896
278.565
279.243
279.92
280.583
281.213
281.787
282.279
273.251
273.762
274.29
274.836
275.403
275.989
276.597
277.225
277.871
278.53
279.196
279.859
280.503
281.113
281.665
282.136
273.274
273.833
274.414
275.021
275.662
276.342
277.066
277.843
278.679
279.583
280.565
281.635
282.806
284.093
285.505
287.03
273.269
273.817
274.386
274.981
275.606
276.266
276.967
277.713
278.511
279.365
280.281
281.264
282.316
283.435
284.601
285.756
273.265
273.803
274.361
274.943
275.553
276.195
276.873
277.591
278.352
279.158
280.011
280.91
281.85
282.818
283.783
284.683
273.261
273.79
274.339
274.91
275.507
276.133
276.79
277.482
278.209
278.971
279.767
280.593
281.437
282.281
283.094
283.824
273.257
273.78
274.321
274.883
275.469
276.081
276.722
277.391
278.089
278.815
279.564
280.328
281.095
281.845
282.549
283.166
273.255
273.773
274.308
274.864
275.442
276.044
276.671
277.323
277.999
278.696
279.408
280.126
280.836
281.519
282.148
282.692
273.253
273.769
274.301
274.853
275.426
276.022
276.64
277.281
277.941
278.619
279.306
279.993
280.666
281.306
281.888
282.388
273.253
273.768
274.3
274.851
275.421
276.014
276.627
277.262
277.916
278.583
279.258
279.93
280.584
281.203
281.763
282.241
273.276
273.838
274.422
275.034
275.679
276.363
277.094
277.877
278.721
279.634
280.625
281.705
282.885
284.177
285.588
287.104
273.271
273.822
274.394
274.993
275.622
276.287
276.993
277.746
278.551
279.413
280.338
281.331
282.391
283.517
284.686
285.838
273.266
273.807
274.369
274.954
275.568
276.215
276.898
277.622
278.389
279.203
280.064
280.972
281.921
282.896
283.866
284.768
273.262
273.795
274.346
274.921
275.521
276.152
276.814
277.511
278.244
279.014
279.818
280.651
281.503
282.355
283.174
283.907
273.259
273.784
274.328
274.893
275.483
276.099
276.744
277.419
278.123
278.855
279.611
280.382
281.157
281.914
282.624
283.245
273.256
273.777
274.315
274.874
275.455
276.061
276.693
277.35
278.031
278.734
279.453
280.178
280.895
281.584
282.219
282.767
273.255
273.773
274.308
274.863
275.44
276.039
276.661
277.306
277.973
278.656
279.349
280.043
280.722
281.368
281.956
282.46
273.254
273.772
274.306
274.86
275.434
276.03
276.648
277.288
277.946
278.62
279.3
279.978
280.639
281.264
281.83
282.312
273.277
273.84
274.426
275.04
275.687
276.374
277.108
277.895
278.743
279.66
280.656
281.74
282.923
284.217
285.628
287.139
273.272
273.824
274.398
274.998
275.63
276.297
277.006
277.762
278.571
279.438
280.367
281.364
282.428
283.556
284.727
285.878
273.267
273.81
274.373
274.96
275.576
276.225
276.911
277.637
278.408
279.226
280.091
281.003
281.956
282.935
283.906
284.809
273.263
273.797
274.35
274.926
275.529
276.161
276.826
277.526
278.262
279.035
279.843
280.68
281.536
282.391
283.213
283.948
273.259
273.786
274.332
274.899
275.49
276.109
276.756
277.433
278.14
278.875
279.635
280.41
281.188
281.949
282.661
283.285
273.257
273.779
274.318
274.879
275.462
276.07
276.704
277.363
278.048
278.754
279.475
280.204
280.924
281.617
282.255
282.805
273.255
273.774
274.311
274.868
275.446
276.047
276.672
277.32
277.988
278.675
279.371
280.068
280.75
281.399
281.991
282.497
273.255
273.774
274.31
274.865
275.441
276.039
276.659
277.301
277.962
278.638
279.322
280.003
280.667
281.294
281.863
282.348
273.237
273.719
274.216
274.728
275.256
275.8
276.359
276.931
277.514
278.103
278.692
279.27
279.828
280.35
280.82
281.22
273.234
273.709
274.198
274.702
275.221
275.755
276.302
276.861
277.429
278.001
278.571
279.129
279.665
280.165
280.615
280.997
273.231
273.699
274.182
274.678
275.189
275.713
276.249
276.796
277.35
277.906
278.457
278.996
279.511
279.99
280.42
280.785
273.228
273.691
274.168
274.657
275.161
275.676
276.203
276.738
277.279
277.821
278.356
278.877
279.373
279.833
280.245
280.594
273.226
273.684
274.156
274.641
275.138
275.646
276.165
276.691
277.221
277.75
278.271
278.777
279.257
279.701
280.097
280.432
273.224
273.68
274.148
274.628
275.121
275.624
276.137
276.655
277.177
277.696
278.206
278.7
279.167
279.598
279.982
280.307
273.223
273.677
274.143
274.622
275.111
275.611
276.119
276.633
277.149
277.661
278.163
278.649
279.107
279.53
279.905
280.222
273.223
273.676
274.142
274.62
275.108
275.606
276.112
276.623
277.136
277.644
278.143
278.624
279.078
279.496
279.866
280.18
273.237
273.719
274.216
274.729
275.259
275.805
276.367
276.944
277.532
278.128
278.725
279.314
279.884
280.42
280.904
281.318
273.234
273.709
274.199
274.703
275.224
275.759
276.309
276.872
277.445
278.023
278.6
279.168
279.714
280.226
280.688
281.082
273.231
273.7
274.182
274.679
275.191
275.717
276.256
276.806
277.364
277.925
278.483
279.03
279.554
280.043
280.483
280.858
273.228
273.691
274.168
274.658
275.162
275.68
276.209
276.748
277.292
277.838
278.379
278.907
279.411
279.879
280.299
280.656
273.226
273.684
274.156
274.641
275.139
275.65
276.17
276.699
277.233
277.766
278.292
278.803
279.29
279.741
280.144
280.486
273.224
273.68
274.148
274.629
275.123
275.628
276.142
276.664
277.188
277.711
278.226
278.724
279.197
279.634
280.024
280.354
273.224
273.677
274.144
274.623
275.114
275.615
276.126
276.642
277.16
277.676
278.183
278.672
279.136
279.563
279.943
280.265
273.223
273.677
274.143
274.621
275.111
275.611
276.119
276.633
277.148
277.66
278.163
278.648
279.107
279.529
279.904
280.222
273.238
273.722
274.221
274.737
275.27
275.821
276.389
276.974
277.573
278.183
278.796
279.406
280.001
280.565
281.08
281.523
273.235
273.712
274.203
274.71
275.234
275.774
276.33
276.9
277.483
278.073
278.665
279.25
279.818
280.354
280.841
281.259
273.232
273.702
274.186
274.686
275.2
275.73
276.275
276.832
277.398
277.97
278.541
279.103
279.645
280.154
280.615
281.008
273.229
273.694
274.172
274.664
275.171
275.692
276.226
276.771
277.324
277.879
278.431
278.972
279.491
279.976
280.412
280.784
273.227
273.687
274.16
274.647
275.148
275.662
276.187
276.722
277.262
277.803
278.339
278.862
279.361
279.825
280.241
280.595
273.225
273.682
274.152
274.635
275.131
275.64
276.158
276.685
277.216
277.746
278.27
278.778
279.262
279.71
280.11
280.45
273.224
273.679
274.148
274.629
275.123
275.627
276.142
276.663
277.188
277.71
278.225
278.724
279.197
279.634
280.023
280.353
273.224
273.679
274.147
274.628
275.121
275.624
276.136
276.655
277.176
277.695
278.205
278.698
279.166
279.597
279.981
280.306
273.24
273.728
274.231
274.752
275.291
275.849
276.427
277.024
277.639
278.268
278.907
279.548
280.18
280.788
281.351
281.842
273.237
273.717
274.213
274.724
275.253
275.8
276.365
276.947
277.543
278.151
278.765
279.377
279.977
280.549
281.076
281.531
273.234
273.707
274.195
274.699
275.219
275.755
276.308
276.875
277.454
278.041
278.631
279.216
279.785
280.324
280.815
281.238
273.231
273.698
274.18
274.677
275.188
275.716
276.257
276.811
277.375
277.944
278.512
279.072
279.613
280.122
280.582
280.977
273.228
273.691
274.168
274.659
275.164
275.684
276.216
276.759
277.309
277.863
278.413
278.952
279.469
279.953
280.388
280.76
273.227
273.687
274.16
274.647
275.147
275.661
276.186
276.721
277.261
277.802
278.338
278.861
279.36
279.824
280.24
280.594
273.226
273.684
274.156
274.64
275.138
275.648
276.169
276.698
277.231
277.764
278.29
278.801
279.288
279.739
280.142
280.484
273.226
273.684
274.155
274.64
275.137
275.645
276.163
276.689
277.219
277.747
278.268
278.774
279.254
279.698
280.094
280.43
273.243
273.736
274.245
274.773
275.32
275.888
276.479
277.092
277.727
278.381
279.053
279.734
280.417
281.087
281.72
282.283
273.239
273.725
274.226
274.744
275.281
275.837
276.413
277.01
277.624
278.255
278.897
279.544
280.186
280.809
281.391
281.902
273.236
273.715
274.208
274.718
275.245
275.79
276.353
276.933
277.528
278.136
278.75
279.365
279.968
280.547
281.081
281.546
273.233
273.706
274.192
274.695
275.213
275.748
276.299
276.865
277.443
278.03
278.619
279.204
279.774
280.314
280.807
281.233
273.231
273.698
274.18
274.676
275.188
275.715
276.256
276.81
277.373
277.942
278.511
279.07
279.611
280.12
280.581
280.976
273.229
273.693
274.171
274.663
275.17
275.691
276.225
276.769
277.321
277.876
278.428
278.969
279.488
279.972
280.409
280.781
273.228
273.691
274.167
274.657
275.161
275.678
276.206
276.745
277.289
277.835
278.375
278.903
279.407
279.875