/*--------------------------------*- C++ -*----------------------------------*\
| =========                 |                                                 |
| \\      /  F ield         | OpenFOAM: The Open Source CFD Toolbox           |
|  \\    /   O peration     | Version:  v1912                                 |
|   \\  /    A nd           | Website:  www.openfoam.com                      |
|    \\/     M anipulation  |                                                 |
\*---------------------------------------------------------------------------*/
FoamFile
{
    version     2.0;
    format      ascii;
    class       volVectorField;
    location    "0.77/fluid";
    object      U;
}
// * * * * * * * * * * * * * * * * * * * * * * * * * * * * * * * * * * * * * //

dimensions      [0 1 -1 0 0 0 0];


internalField   nonuniform List<vector> 
14592
(
(0.0877158 0.017327 0.00060407)
(0.0719913 0.0118678 0.00104406)
(0.0563632 0.00754718 0.000926283)
(0.0473144 0.00379458 0.000384636)
(0.0415881 0.00177714 -0.000486823)
(0.0383911 0.000754009 -0.00158606)
(0.036396 0.000312473 -0.00289983)
(0.0350404 0.000127169 -0.00447153)
(0.0338065 4.48052e-05 -0.0063995)
(0.0326439 -2.97229e-05 -0.00883636)
(0.0310881 -0.000139025 -0.0120295)
(0.0296302 -0.000386572 -0.0162868)
(0.0268498 -0.000757364 -0.0222866)
(0.0246244 -0.00165606 -0.030101)
(0.01743 -0.00213839 -0.0402384)
(0.00994027 -0.00503416 -0.0379997)
(0.103966 0.0181464 0.000842885)
(0.103433 0.0180961 0.00154481)
(0.0999329 0.0150054 0.00151182)
(0.0956322 0.0104508 0.000789287)
(0.0915082 0.00682828 -0.000564509)
(0.0882127 0.00432797 -0.0024235)
(0.0854833 0.00287456 -0.00474221)
(0.0831175 0.00213472 -0.00756628)
(0.0806906 0.00183239 -0.0110428)
(0.0781018 0.00174688 -0.015425)
(0.0747153 0.00173268 -0.0211158)
(0.0708565 0.00160726 -0.0286468)
(0.0645156 0.00131504 -0.0389648)
(0.0573676 0.000271155 -0.0521375)
(0.041183 -0.000834884 -0.0673247)
(0.0238801 -0.00488512 -0.0615891)
(0.104003 0.0121412 0.000923781)
(0.108486 0.0167276 0.00172238)
(0.111524 0.0161858 0.00173663)
(0.112102 0.01304 0.00100043)
(0.111373 0.00978468 -0.00043642)
(0.109939 0.00716478 -0.00245773)
(0.108092 0.00547051 -0.0050197)
(0.105975 0.00457775 -0.0081695)
(0.10342 0.00428898 -0.0120616)
(0.100406 0.00439384 -0.0169744)
(0.0962954 0.00472698 -0.0233461)
(0.0912904 0.00508711 -0.0317922)
(0.0831455 0.00537507 -0.0433285)
(0.0733428 0.00492446 -0.0582436)
(0.0524764 0.00371984 -0.0754574)
(0.0293797 -0.00125671 -0.0703446)
(0.102145 0.00779639 0.000956786)
(0.106877 0.0130155 0.00180541)
(0.111863 0.014066 0.00184978)
(0.114839 0.01267 0.00112953)
(0.116293 0.0105578 -0.000295907)
(0.11647 0.00861007 -0.00230975)
(0.115716 0.00728831 -0.00486968)
(0.114274 0.00666806 -0.00802468)
(0.112106 0.00668981 -0.0119284)
(0.109264 0.00723586 -0.0168656)
(0.105131 0.00820578 -0.0232775)
(0.0998698 0.0094505 -0.0318227)
(0.0910838 0.0108856 -0.0435381)
(0.0801593 0.0117868 -0.0589138)
(0.0571121 0.0113221 -0.0769106)
(0.030965 0.00487477 -0.0729)
(0.101098 0.00505606 0.000983413)
(0.104902 0.00959687 0.00187415)
(0.109779 0.0113349 0.0019541)
(0.1135 0.01118 0.00126635)
(0.116038 0.0101734 -0.000117329)
(0.117293 0.00906984 -0.00207237)
(0.117479 0.00834672 -0.00455096)
(0.116797 0.00819484 -0.00759793)
(0.11524 0.00866747 -0.0113581)
(0.112902 0.00974774 -0.0161116)
(0.10918 0.0114163 -0.0222827)
(0.104246 0.0136028 -0.0305538)
(0.0955622 0.0162636 -0.0419414)
(0.0844345 0.018602 -0.0571618)
(0.0602007 0.0190627 -0.0752135)
(0.0317756 0.010309 -0.0724356)
(0.100626 0.00336666 0.00101093)
(0.103626 0.00686153 0.00194557)
(0.107977 0.00867304 0.00207121)
(0.111821 0.00922213 0.00143118)
(0.11487 0.00906679 0.000107356)
(0.116816 0.00875553 -0.00176593)
(0.117728 0.00869325 -0.00413073)
(0.117734 0.00911189 -0.00702258)
(0.116817 0.0101415 -0.0105714)
(0.115086 0.0118701 -0.0150452)
(0.111946 0.014391 -0.020839)
(0.107579 0.0178061 -0.0286479)
(0.0993154 0.0222449 -0.039436)
(0.0884075 0.0270971 -0.054185)
(0.0633878 0.0303546 -0.0718955)
(0.0329857 0.0198887 -0.0707103)
(0.100449 0.00217188 0.0010441)
(0.102997 0.00463765 0.00202852)
(0.106961 0.00624167 0.00221022)
(0.110799 0.00713156 0.00163199)
(0.11413 0.00757594 0.00038394)
(0.11655 0.00792162 -0.00138871)
(0.11804 0.00846743 -0.00361306)
(0.118683 0.00943511 -0.00630761)
(0.118466 0.0109895 -0.00957568)
(0.117532 0.0132958 -0.0136534)
(0.115356 0.0165312 -0.0188716)
(0.112208 0.0209621 -0.0258822)
(0.105427 0.0268525 -0.0354801)
(0.0963354 0.0338541 -0.0488676)
(0.0718932 0.0396468 -0.0647527)
(0.0405124 0.0272105 -0.0654239)
(0.100392 0.0011867 0.00108222)
(0.102767 0.00266404 0.00212166)
(0.10659 0.00391103 0.00236614)
(0.110479 0.00492785 0.00185865)
(0.11403 0.00579665 0.0006958)
(0.116803 0.00667978 -0.000966419)
(0.118747 0.0077599 -0.003039)
(0.119924 0.00922202 -0.00552063)
(0.120342 0.0112439 -0.00848488)
(0.120173 0.0140668 -0.0121305)
(0.11897 0.0179727 -0.0167199)
(0.117074 0.023552 -0.0228477)
(0.111914 0.0314568 -0.0311367)
(0.105049 0.0431273 -0.0430341)
(0.0820175 0.0572983 -0.0571403)
(0.0531405 0.0617336 -0.0613526)
(0.0876844 0.01733 0.000374746)
(0.0718097 0.0118812 0.000627337)
(0.055949 0.00755928 0.00047146)
(0.0466934 0.00380097 -1.24806e-05)
(0.0407737 0.0017812 -0.00077038)
(0.0373927 0.000758482 -0.00173721)
(0.0351898 0.000320135 -0.00291398)
(0.0335734 0.000138671 -0.00433736)
(0.0319988 6.12622e-05 -0.00608935)
(0.0303734 -6.40263e-06 -0.00826481)
(0.0282324 -0.000100565 -0.0110493)
(0.0259387 -0.000314534 -0.0145042)
(0.0223097 -0.000610294 -0.0190462)
(0.0185781 -0.00134628 -0.023652)
(0.0113831 -0.00176888 -0.0279912)
(0.00298777 -0.0036928 -0.0186264)
(0.103923 0.018161 0.000519614)
(0.103178 0.0181347 0.00091326)
(0.0993318 0.0150548 0.000754311)
(0.0946618 0.0104994 5.62324e-05)
(0.0901567 0.00687749 -0.0011569)
(0.0864755 0.00438546 -0.00281143)
(0.083321 0.00295186 -0.00489481)
(0.0804432 0.00224107 -0.00745722)
(0.0773612 0.00197733 -0.0106274)
(0.0738991 0.00193914 -0.0145817)
(0.0693821 0.00198891 -0.019623)
(0.0639694 0.00194373 -0.0259463)
(0.0558891 0.00176486 -0.0340955)
(0.0461794 0.000861763 -0.0426665)
(0.029468 -0.000275968 -0.0496223)
(0.0107408 -0.00384613 -0.0323316)
(0.103962 0.0121657 0.000574274)
(0.108225 0.0167872 0.00102207)
(0.110899 0.0162729 0.000877328)
(0.111073 0.0131421 0.000147051)
(0.109913 0.00990123 -0.0011521)
(0.108031 0.00730519 -0.00295705)
(0.10569 0.00565254 -0.00525984)
(0.102984 0.00482057 -0.00811693)
(0.0996807 0.0046146 -0.0116661)
(0.0956763 0.00482304 -0.016107)
(0.0902749 0.0052898 -0.0217672)
(0.0835064 0.00580031 -0.0289008)
(0.0733348 0.00626573 -0.0380695)
(0.0606007 0.00593337 -0.0478706)
(0.0389584 0.00461103 -0.0558039)
(0.0142766 -0.000677988 -0.0364733)
(0.102108 0.00782291 0.000602968)
(0.10662 0.0130823 0.00108568)
(0.111246 0.014173 0.000960565)
(0.113822 0.0128099 0.000241336)
(0.114847 0.0107317 -0.00104826)
(0.114576 0.00883004 -0.00284535)
(0.113327 0.00757727 -0.00514388)
(0.111296 0.00705507 -0.00800282)
(0.108379 0.00721184 -0.0115593)
(0.104547 0.00793271 -0.0160194)
(0.0991098 0.00913296 -0.0217094)
(0.0920624 0.0106477 -0.0289148)
(0.0811832 0.0124135 -0.0381928)
(0.0672193 0.0135436 -0.0482295)
(0.043266 0.0130173 -0.056445)
(0.0153529 0.00554022 -0.0369616)
(0.101063 0.00508562 0.000631568)
(0.10465 0.00967183 0.00115227)
(0.109173 0.0114603 0.00106005)
(0.112507 0.0113542 0.000373008)
(0.114634 0.0104003 -0.000875454)
(0.115464 0.00936427 -0.00261582)
(0.115182 0.00873628 -0.00483721)
(0.113944 0.00871785 -0.00759449)
(0.11168 0.0093759 -0.0110162)
(0.108404 0.010702 -0.0153047)
(0.103435 0.0127018 -0.0207695)
(0.0967838 0.0152906 -0.0277174)
(0.0860389 0.0184649 -0.036677)
(0.0718904 0.0211919 -0.0464963)
(0.0466168 0.0217185 -0.0546012)
(0.0161685 0.0112566 -0.0357444)
(0.100592 0.00339958 0.000661948)
(0.103379 0.00694478 0.00122605)
(0.107383 0.00881483 0.00117877)
(0.110856 0.00942531 0.000539241)
(0.113516 0.00933874 -0.000650698)
(0.115067 0.00911431 -0.00231255)
(0.115549 0.00917162 -0.00442657)
(0.115046 0.00975803 -0.00703861)
(0.113481 0.0110242 -0.010263)
(0.110888 0.0130765 -0.0142927)
(0.106589 0.0160497 -0.0194106)
(0.100619 0.0200472 -0.0259404)
(0.0903734 0.0252844 -0.0343614)
(0.076547 0.0308603 -0.0437467)
(0.050358 0.0346308 -0.0515476)
(0.0176437 0.0217944 -0.033861)
(0.100416 0.00220914 0.000697004)
(0.102756 0.00473016 0.00131087)
(0.106383 0.00639874 0.00131885)
(0.109866 0.00735905 0.000739825)
(0.112834 0.00788407 -0.000377076)
(0.114895 0.00833098 -0.00194284)
(0.116002 0.009015 -0.00392498)
(0.116198 0.0101768 -0.00635385)
(0.115417 0.0120074 -0.00932028)
(0.113741 0.0146994 -0.0129939)
(0.110561 0.0184846 -0.0176063)
(0.106041 0.023649 -0.0234697)
(0.097505 0.0305795 -0.0309469)
(0.0858686 0.038605 -0.0393919)
(0.0601512 0.0453391 -0.0462202)
(0.0262944 0.0298871 -0.0304498)
(0.10036 0.00122781 0.000735443)
(0.102531 0.00276408 0.00140356)
(0.106029 0.00407959 0.0014729)
(0.109582 0.00517242 0.000962395)
(0.112796 0.00612893 -7.26129e-05)
(0.115248 0.00712245 -0.00153326)
(0.116857 0.00835283 -0.00337258)
(0.117656 0.0100271 -0.005603)
(0.1176 0.0123538 -0.00828932)
(0.116819 0.0156131 -0.0115731)
(0.11478 0.0201566 -0.0156309)
(0.111767 0.0266353 -0.0207546)
(0.105112 0.0358779 -0.0271847)
(0.0961756 0.0490883 -0.0345994)
(0.071869 0.0651259 -0.0404865)
(0.0406154 0.0660845 -0.0277571)
(0.0876604 0.0173327 0.000216217)
(0.0716697 0.0118924 0.00033986)
(0.0556204 0.00756991 0.000163651)
(0.0461811 0.00380696 -0.000264173)
(0.0400761 0.00178439 -0.000912975)
(0.0365088 0.000761641 -0.00174216)
(0.0340924 0.000325346 -0.00276125)
(0.0322091 0.000146024 -0.00400002)
(0.0302906 7.07263e-05 -0.00552534)
(0.0281945 5.10648e-06 -0.00739425)
(0.0254639 -8.43948e-05 -0.00975163)
(0.0223226 -0.000284547 -0.012568)
(0.0178629 -0.000557466 -0.0161544)
(0.0128917 -0.00121045 -0.0194753)
(0.0061562 -0.00171118 -0.0221446)
(-0.000852669 -0.0032072 -0.0145986)
(0.103889 0.0181754 0.000296317)
(0.10298 0.0181706 0.000479696)
(0.0988535 0.0151023 0.000245109)
(0.0938622 0.0105482 -0.000408635)
(0.0890038 0.00692765 -0.00147445)
(0.0849479 0.0044433 -0.0029101)
(0.0813717 0.00302725 -0.00472267)
(0.077986 0.0023423 -0.00696002)
(0.074265 0.0021131 -0.00973023)
(0.0699581 0.00211705 -0.0131526)
(0.0643758 0.00222222 -0.0174557)
(0.0575191 0.00224378 -0.0226838)
(0.0479453 0.00214561 -0.0291956)
(0.0362916 0.00133342 -0.0354981)
(0.0200468 8.68655e-05 -0.0396218)
(0.00329967 -0.00333693 -0.0250071)
(0.103932 0.0121908 0.000331535)
(0.108024 0.0168456 0.000539864)
(0.110403 0.0163587 0.00029772)
(0.110227 0.0132447 -0.000399031)
(0.108671 0.010019 -0.0015493)
(0.106359 0.00744569 -0.00312074)
(0.103532 0.00583131 -0.00512661)
(0.100244 0.00505513 -0.0076231)
(0.0962144 0.00492581 -0.0107274)
(0.0912579 0.00523034 -0.0145798)
(0.0846475 0.00582072 -0.0194254)
(0.0762548 0.0064683 -0.0253523)
(0.0643469 0.00708916 -0.032712)
(0.0493869 0.00684702 -0.039969)
(0.0280539 0.00538584 -0.0446686)
(0.00547904 -0.000265516 -0.0280853)
(0.102079 0.00785113 0.000355474)
(0.106424 0.0131501 0.000587122)
(0.110759 0.0142802 0.000356467)
(0.112988 0.0129505 -0.000333576)
(0.113621 0.0109057 -0.0014763)
(0.11292 0.00904737 -0.00304053)
(0.111185 0.00785846 -0.0050416)
(0.108571 0.00742664 -0.00753867)
(0.104927 0.00770818 -0.0106488)
(0.100139 0.00859003 -0.0145185)
(0.0934772 0.0100013 -0.019391)
(0.0847771 0.0117588 -0.0253812)
(0.0720861 0.0138161 -0.0328303)
(0.0557818 0.0151376 -0.0402664)
(0.0319998 0.014558 -0.04513)
(0.00613418 0.00623109 -0.0283714)
(0.101036 0.00511692 0.000383249)
(0.104459 0.00974807 0.000647831)
(0.108698 0.0115856 0.000446017)
(0.111697 0.0115273 -0.000214438)
(0.113449 0.0106242 -0.00131871)
(0.11387 0.00965164 -0.00283099)
(0.113126 0.00911228 -0.00476226)
(0.111336 0.00921766 -0.00716827)
(0.108381 0.0100478 -0.0101584)
(0.104196 0.011601 -0.0138775)
(0.0980478 0.0139059 -0.0185543)
(0.0897942 0.0168592 -0.0243251)
(0.0772427 0.0204955 -0.0315071)
(0.0607383 0.0235682 -0.0387677)
(0.0354837 0.024202 -0.0435516)
(0.00689283 0.012452 -0.0273598)
(0.100566 0.00343357 0.00041345)
(0.103192 0.0070282 0.000718455)
(0.106921 0.00895465 0.000558218)
(0.110072 0.00962432 -5.77697e-05)
(0.112378 0.00960325 -0.00110761)
(0.113547 0.00946045 -0.00254828)
(0.113602 0.00962964 -0.00438265)
(0.112592 0.0103723 -0.00665876)
(0.110389 0.0118586 -0.00947357)
(0.106958 0.0142103 -0.0129651)
(0.101554 0.0176003 -0.01734)
(0.0940794 0.0221261 -0.0227542)
(0.0820785 0.0280833 -0.0294862)
(0.0659578 0.0343074 -0.0364029)
(0.0396267 0.0386103 -0.0409903)
(0.00849579 0.0241198 -0.0258388)
(0.100391 0.00224631 0.000447619)
(0.102574 0.0048208 0.000799504)
(0.105936 0.0065511 0.000690684)
(0.109114 0.00757856 0.000131018)
(0.11175 0.00817998 -0.000851599)
(0.113463 0.00872238 -0.00220528)
(0.114185 0.00953627 -0.00392138)
(0.113933 0.01088 -0.00603506)
(0.112591 0.0129692 -0.00862366)
(0.110185 0.0160207 -0.0118084)
(0.106035 0.0203178 -0.0157563)
(0.100205 0.0261581 -0.0206268)
(0.0900853 0.0340467 -0.0266163)
(0.0764223 0.0430279 -0.0328549)
(0.0503779 0.050758 -0.0368719)
(0.0177269 0.0333658 -0.0233894)
(0.100336 0.00126749 0.000484105)
(0.102356 0.00285992 0.000886708)
(0.105599 0.00424035 0.000834866)
(0.108864 0.00540498 0.000338591)
(0.111772 0.0064445 -0.000569105)
(0.11391 0.00754244 -0.00182754)
(0.115182 0.00891451 -0.00341531)
(0.115595 0.0107883 -0.00535245)
(0.115064 0.013402 -0.00769436)
(0.113672 0.0170703 -0.0105416)
(0.110821 0.022212 -0.0140174)
(0.106731 0.0295271 -0.0182774)
(0.0987211 0.0400219 -0.0234305)
(0.0881368 0.0546904 -0.0289043)
(0.0633943 0.072718 -0.0323699)
(0.0332017 0.0719353 -0.0213544)
(0.0876423 0.0173352 0.000111679)
(0.0715625 0.0119018 0.000153446)
(0.0553637 0.00757918 -2.30344e-05)
(0.0457719 0.0038125 -0.000388311)
(0.0395094 0.00178779 -0.000924901)
(0.0357839 0.000765531 -0.00160754)
(0.0331948 0.000331976 -0.00244731)
(0.0311106 0.000156411 -0.00346385)
(0.0289609 8.64348e-05 -0.00470247)
(0.0265835 2.92217e-05 -0.00618157)
(0.0235732 -4.42443e-05 -0.00798453)
(0.020096 -0.000208876 -0.010004)
(0.0155113 -0.000417747 -0.0123871)
(0.0104102 -0.000914906 -0.0141911)
(0.00443011 -0.00129319 -0.0149276)
(-0.00124841 -0.00246921 -0.00885398)
(0.103864 0.0181886 0.000149542)
(0.102828 0.0182025 0.000200964)
(0.0984774 0.0151452 -6.12272e-05)
(0.0932207 0.0105935 -0.000642934)
(0.0880623 0.00697495 -0.00154406)
(0.0836856 0.00449814 -0.00274021)
(0.0797569 0.00309849 -0.00424508)
(0.0759667 0.00243819 -0.00609592)
(0.0717759 0.00224347 -0.00837013)
(0.0669031 0.00229301 -0.011128)
(0.0607094 0.00246386 -0.0145031)
(0.0531471 0.00257989 -0.0184111)
(0.0431273 0.00262322 -0.0229774)
(0.0311447 0.00203203 -0.0267986)
(0.0161286 0.000965259 -0.0280419)
(0.00170648 -0.00228997 -0.0160494)
(0.103908 0.0122144 0.000170947)
(0.107868 0.0168991 0.000228898)
(0.110013 0.0164374 -5.28313e-05)
(0.109549 0.0133396 -0.000680781)
(0.107657 0.0101284 -0.00165973)
(0.104976 0.0075759 -0.0029737)
(0.10174 0.00599578 -0.00464277)
(0.0979833 0.00526979 -0.00671271)
(0.0934087 0.00521073 -0.00926925)
(0.0877985 0.0056065 -0.0123897)
(0.080468 0.00632048 -0.0162171)
(0.0712505 0.00712257 -0.0206947)
(0.0587677 0.00794997 -0.0259226)
(0.0433913 0.00793517 -0.0304183)
(0.0233525 0.00662193 -0.0318698)
(0.00346677 0.000806032 -0.0180811)
(0.102058 0.00787816 0.000190115)
(0.106273 0.0132135 0.00026286)
(0.110378 0.0143796 -1.30959e-05)
(0.112322 0.0130806 -0.000637521)
(0.112622 0.0110663 -0.00161106)
(0.111553 0.00924663 -0.00291915)
(0.109408 0.00811376 -0.00458406)
(0.106325 0.00776091 -0.00665458)
(0.102134 0.00815175 -0.00921658)
(0.0966919 0.00917548 -0.012353)
(0.089303 0.0107751 -0.0162042)
(0.0797703 0.0127574 -0.020733)
(0.066479 0.0150993 -0.026023)
(0.0497357 0.0166711 -0.0306249)
(0.0272181 0.0162188 -0.0321057)
(0.00409004 0.00734693 -0.0180877)
(0.101016 0.0051469 0.00021505)
(0.104313 0.00981953 0.000315113)
(0.108328 0.0117017 6.32801e-05)
(0.111052 0.0116867 -0.000535492)
(0.112485 0.0108291 -0.00147545)
(0.112556 0.00991247 -0.00273856)
(0.111424 0.00945003 -0.00434376)
(0.109191 0.00966173 -0.00633724)
(0.10572 0.0106385 -0.00879869)
(0.100919 0.0123833 -0.0118103)
(0.0940825 0.0149426 -0.0155011)
(0.0850424 0.0181976 -0.0198516)
(0.0719103 0.0222135 -0.0249254)
(0.0549829 0.0255917 -0.0293768)
(0.0309133 0.0263812 -0.0307749)
(0.00496616 0.013782 -0.0171994)
(0.100547 0.0034657 0.000242674)
(0.103051 0.00710575 0.000378202)
(0.106563 0.00908316 0.000162699)
(0.109451 0.00980591 -0.000397046)
(0.111456 0.00984302 -0.00128935)
(0.112299 0.00977145 -0.00249058)
(0.111994 0.0100367 -0.00401304)
(0.110577 0.0109114 -0.00589674)
(0.107902 0.0125805 -0.00821136)
(0.10391 0.0151744 -0.0110349)
(0.0978754 0.0188913 -0.0144796)
(0.0896857 0.0238127 -0.018545)
(0.0771431 0.0302806 -0.0232679)
(0.060642 0.036927 -0.027459)
(0.035394 0.0415172 -0.0287433)
(0.00673277 0.025925 -0.0160075)
(0.100373 0.00228072 0.000273623)
(0.102438 0.00490388 0.000450686)
(0.105591 0.00668959 0.000280314)
(0.10852 0.00777699 -0.000230236)
(0.110876 0.00844579 -0.00106405)
(0.112289 0.00907099 -0.00219068)
(0.112688 0.00999567 -0.00361296)
(0.112076 0.0114913 -0.00536098)
(0.110319 0.0137916 -0.0074895)
(0.107428 0.0171262 -0.0100663)
(0.102734 0.0218098 -0.013177)
(0.0963036 0.028128 -0.0168343)
(0.0857174 0.0366454 -0.0210297)
(0.0717733 0.0461731 -0.0247915)
(0.0466598 0.0543471 -0.0258508)
(0.016194 0.0356809 -0.0144638)
(0.100319 0.00130344 0.000306154)
(0.102225 0.00294645 0.000527976)
(0.105269 0.00438485 0.000407581)
(0.1083 0.00561329 -4.77007e-05)
(0.110949 0.00672558 -0.000816571)
(0.112816 0.00791357 -0.00186166)
(0.113802 0.00940579 -0.00317526)
(0.113905 0.0114447 -0.00477578)
(0.113022 0.0142884 -0.00670145)
(0.11123 0.01827 -0.00900713)
(0.107932 0.0238447 -0.0117493)
(0.103372 0.0317117 -0.0149506)
(0.0949935 0.0429487 -0.0185572)
(0.0842637 0.0583057 -0.0218454)
(0.0603256 0.0770125 -0.0227476)
(0.0320516 0.0748009 -0.013262)
(0.0876282 0.0173372 4.74138e-05)
(0.07148 0.0119092 4.35375e-05)
(0.055164 0.00758639 -0.000114868)
(0.045448 0.00381655 -0.000410157)
(0.0390538 0.0017899 -0.000832493)
(0.0351931 0.00076763 -0.00136693)
(0.0324557 0.000335633 -0.00202422)
(0.0302003 0.000162057 -0.00281777)
(0.0278567 9.45719e-05 -0.003779)
(0.0252477 4.10178e-05 -0.00491087)
(0.0220133 -2.51521e-05 -0.00626585)
(0.0182811 -0.000171571 -0.00773865)
(0.0136192 -0.000347289 -0.00941098)
(0.00849845 -0.000761547 -0.0105832)
(0.00317205 -0.00107649 -0.0108336)
(-0.00145139 -0.00211505 -0.00644637)
(0.103844 0.0181998 6.0049e-05)
(0.10271 0.0182291 3.9821e-05)
(0.098184 0.0151809 -0.000208872)
(0.0927125 0.0106316 -0.000692841)
(0.0873059 0.00701508 -0.00141418)
(0.0826589 0.00454445 -0.00235956)
(0.0784317 0.003158 -0.00354423)
(0.0743009 0.00251751 -0.00499682)
(0.0697218 0.00235036 -0.00677277)
(0.0643917 0.00243593 -0.0089026)
(0.0577224 0.00265796 -0.0114678)
(0.0496432 0.00284594 -0.0143632)
(0.0393507 0.00299473 -0.0176266)
(0.0272995 0.002557 -0.0201798)
(0.0133811 0.00160456 -0.0205563)
(0.000887418 -0.00163327 -0.0116887)
(0.10389 0.0122347 7.2112e-05)
(0.107748 0.0169446 4.84354e-05)
(0.10971 0.0165043 -0.000223813)
(0.109012 0.0134207 -0.000750812)
(0.106843 0.0102224 -0.00153843)
(0.103852 0.00768749 -0.00258002)
(0.10027 0.00613595 -0.00389653)
(0.0961187 0.00545166 -0.00552421)
(0.0910928 0.00545095 -0.00752543)
(0.0849533 0.0059223 -0.0099439)
(0.0770605 0.00673821 -0.0128664)
(0.0672353 0.00766677 -0.0162057)
(0.0543898 0.00866174 -0.019971)
(0.0389007 0.008826 -0.0230086)
(0.0200548 0.00762244 -0.0234618)
(0.00240865 0.00159593 -0.0131848)
(0.102041 0.00790191 8.6652e-05)
(0.106157 0.0132684 7.17978e-05)
(0.110081 0.0144653 -0.000198323)
(0.111796 0.0131927 -0.000723906)
(0.111821 0.0112046 -0.00150789)
(0.110443 0.00941766 -0.00254508)
(0.107951 0.00833168 -0.00385847)
(0.104472 0.00804458 -0.00548705)
(0.0998276 0.00852615 -0.0074936)
(0.0938543 0.00966707 -0.00992676)
(0.0858951 0.0114212 -0.0128712)
(0.0757459 0.0135863 -0.0162545)
(0.0620686 0.0161572 -0.0200718)
(0.0451953 0.0179274 -0.0231904)
(0.023853 0.0175759 -0.0236491)
(0.00301873 0.00824315 -0.0131874)
(0.101001 0.00517335 0.000107307)
(0.104201 0.00988176 0.000113846)
(0.108041 0.0118021 -0.000137337)
(0.110544 0.0118242 -0.00064214)
(0.111714 0.0110054 -0.00139871)
(0.11149 0.010136 -0.00239946)
(0.110029 0.00973803 -0.00366495)
(0.107422 0.0100384 -0.00523231)
(0.103522 0.011137 -0.00715975)
(0.0982195 0.0130399 -0.00949589)
(0.0908413 0.0158078 -0.0123174)
(0.0812171 0.0193076 -0.0155667)
(0.067708 0.0236275 -0.0192251)
(0.0506551 0.0272503 -0.022238)
(0.0276947 0.0281682 -0.0226483)
(0.00397863 0.0149087 -0.0125343)
(0.100532 0.00349393 0.000130532)
(0.102943 0.00717316 0.000166078)
(0.106286 0.00919417 -5.5517e-05)
(0.108963 0.00996213 -0.000528308)
(0.11072 0.0100486 -0.00124593)
(0.111288 0.0100371 -0.00219655)
(0.110678 0.0103829 -0.00339563)
(0.108917 0.0113676 -0.00487558)
(0.105848 0.0131882 -0.00668701)
(0.101399 0.0159811 -0.00887602)
(0.0948672 0.0199638 -0.0115074)
(0.0861464 0.0252029 -0.0145396)
(0.0732518 0.0320729 -0.0179375)
(0.0566479 0.0390502 -0.0207643)
(0.0324217 0.0438622 -0.0211181)
(0.00586215 0.0274589 -0.0116512)
(0.100359 0.00231065 0.000156434)
(0.102334 0.00497561 0.000226223)
(0.105326 0.00680863 4.16317e-05)
(0.108055 0.00794695 -0.000390917)
(0.11018 0.00867282 -0.00106101)
(0.111341 0.00936784 -0.00195153)
(0.111464 0.0103855 -0.00307065)
(0.110545 0.012008 -0.0044434)
(0.108441 0.0144832 -0.0061094)
(0.105153 0.0180507 -0.00810842)
(0.100027 0.0230487 -0.0104873)
(0.093148 0.0297513 -0.0132182)
(0.0822581 0.0387641 -0.0162407)
(0.0682641 0.0487231 -0.01878)
(0.0440454 0.057242 -0.0190424)
(0.0154686 0.0376788 -0.0105792)
(0.100305 0.00133436 0.000183415)
(0.102125 0.00302056 0.00029005)
(0.105016 0.00450823 0.00014647)
(0.10786 0.00579075 -0.000240939)
(0.110296 0.00696465 -0.000858356)
(0.111936 0.00822859 -0.00168323)
(0.112677 0.00982169 -0.00271555)
(0.112514 0.0119984 -0.0039716)
(0.111336 0.0150331 -0.00547874)
(0.109214 0.0192721 -0.00726831)
(0.10556 0.0251985 -0.00936753)
(0.10065 0.033508 -0.0117597)
(0.0920386 0.0453276 -0.0143601)
(0.0813405 0.0612282 -0.0165777)
(0.0581825 0.0804651 -0.0168029)
(0.0315774 0.0773665 -0.00972229)
(0.0876181 0.0173387 1.34746e-05)
(0.0714206 0.0119149 -8.28321e-06)
(0.0550193 0.00759189 -0.000132676)
(0.0452114 0.00381985 -0.000349454)
(0.0387196 0.00179189 -0.000652911)
(0.0347598 0.000769932 -0.00103425)
(0.0319179 0.000339704 -0.00150128)
(0.0295482 0.000168719 -0.00206116)
(0.0270864 0.000104979 -0.00273178)
(0.0243501 5.72875e-05 -0.00350595)
(0.0210191 1.55823e-06 -0.00440827)
(0.0172027 -0.000124094 -0.00534819)
(0.0125938 -0.000264642 -0.00635606)
(0.00759002 -0.00061054 -0.00696491)
(0.00264887 -0.000864728 -0.00685268)
(-0.00141378 -0.00184002 -0.00391034)
(0.103829 0.0182085 1.37326e-05)
(0.102624 0.0182497 -3.21924e-05)
(0.0979703 0.0152087 -0.000233676)
(0.0923393 0.0106616 -0.000596152)
(0.0867473 0.00704704 -0.00112151)
(0.0818993 0.0045816 -0.00180223)
(0.0774546 0.00320593 -0.00265027)
(0.073085 0.00258178 -0.00368397)
(0.0682489 0.00243781 -0.00493709)
(0.0626385 0.00255452 -0.00641822)
(0.0557132 0.00282155 -0.00816557)
(0.0474018 0.00307367 -0.0100775)
(0.0370825 0.00331689 -0.0121363)
(0.0251963 0.00300994 -0.0135969)
(0.0120149 0.00216619 -0.013403)
(0.000673875 -0.00110113 -0.00734246)
(0.103877 0.0122507 1.99345e-05)
(0.107661 0.0169804 -3.29758e-05)
(0.109488 0.0165567 -0.00025579)
(0.108617 0.0134846 -0.000652835)
(0.106241 0.0102965 -0.00122877)
(0.103019 0.0077756 -0.00198087)
(0.0991827 0.00624644 -0.00292551)
(0.0947516 0.00559484 -0.00408693)
(0.0894213 0.00564013 -0.00550404)
(0.0829489 0.00617169 -0.00719459)
(0.0747399 0.00706973 -0.00919931)
(0.064625 0.00810238 -0.0114262)
(0.051705 0.00923757 -0.0138323)
(0.0363787 0.00955598 -0.0156097)
(0.0183653 0.00846304 -0.0154148)
(0.00209029 0.00224939 -0.00833242)
(0.10203 0.00792087 3.00855e-05)
(0.106073 0.0133118 -1.79552e-05)
(0.109866 0.0145329 -0.00024055)
(0.111409 0.0132811 -0.000637343)
(0.111229 0.0113136 -0.00121108)
(0.10962 0.00955198 -0.00196026)
(0.106874 0.00850201 -0.00290293)
(0.103114 0.00826522 -0.00406549)
(0.098163 0.00881602 -0.00548735)
(0.091855 0.0100463 -0.00718995)
(0.0835747 0.0119181 -0.00921241)
(0.0731319 0.0142233 -0.0114727)
(0.0593693 0.0169705 -0.0139165)
(0.0426571 0.0188998 -0.0157465)
(0.0221431 0.0186409 -0.01554)
(0.00271699 0.00896203 -0.00831537)
(0.10099 0.00519452 4.54679e-05)
(0.10412 0.00993117 1.27546e-05)
(0.107833 0.0118815 -0.000196253)
(0.110172 0.0119324 -0.00057783)
(0.111145 0.0111439 -0.00113137)
(0.110702 0.0103107 -0.00185385)
(0.108999 0.00996174 -0.00276173)
(0.106127 0.010329 -0.0038802)
(0.101938 0.0115187 -0.00524556)
(0.0963222 0.0135387 -0.00687963)
(0.0886431 0.0164594 -0.00881631)
(0.078748 0.0201369 -0.0109842)
(0.0651609 0.0246748 -0.0133203)
(0.0482736 0.0284749 -0.0150797)
(0.0260966 0.0294861 -0.0148448)
(0.00374319 0.0157545 -0.00786466)
(0.100522 0.00351643 6.29467e-05)
(0.102865 0.00722657 5.16873e-05)
(0.106086 0.00928168 -0.000135496)
(0.108607 0.0100848 -0.000493408)
(0.110178 0.0102093 -0.0010182)
(0.110541 0.0102437 -0.00170396)
(0.109708 0.0106502 -0.00256357)
(0.107703 0.0117168 -0.00361901)
(0.104371 0.0136484 -0.0049014)
(0.0996386 0.0165848 -0.00643124)
(0.0928363 0.020755 -0.00823492)
(0.083879 0.0262122 -0.010253)
(0.0709215 0.033349 -0.0124134)
(0.0544937 0.0405374 -0.0140514)
(0.0309908 0.0454693 -0.0137964)
(0.00570721 0.0285065 -0.00727114)
(0.100349 0.00233433 8.23918e-05)
(0.102259 0.00503214 9.65975e-05)
(0.105134 0.0069021 -6.32008e-05)
(0.107716 0.00807989 -0.00039139)
(0.109668 0.00884962 -0.000881259)
(0.110641 0.00959764 -0.0015232)
(0.110563 0.0106849 -0.00232506)
(0.109426 0.0124009 -0.00330386)
(0.10709 0.0150029 -0.00448348)
(0.103559 0.0187352 -0.00588104)
(0.0982015 0.0239493 -0.00751234)
(0.0911322 0.0309064 -0.00932966)
(0.0802001 0.0402318 -0.0112496)
(0.0663973 0.0504457 -0.0127164)
(0.0428209 0.059129 -0.0124516)
(0.015395 0.0389659 -0.00661585)
(0.100295 0.00135861 0.000102538)
(0.102054 0.00307862 0.000144125)
(0.104834 0.00460466 1.47005e-05)
(0.10754 0.00592897 -0.000280171)
(0.109817 0.00715007 -0.000731401)
(0.111286 0.00847145 -0.00132557)
(0.111849 0.0101397 -0.0020648)
(0.111497 0.0124173 -0.00296024)
(0.110121 0.0155887 -0.00402773)
(0.107799 0.0200068 -0.00527977)
(0.10396 0.026169 -0.00672075)
(0.0989139 0.0347608 -0.0083134)
(0.0902913 0.0469288 -0.00996521)
(0.0798097 0.0631244 -0.0112438)
(0.0572207 0.0825834 -0.0110188)
(0.0316265 0.0789299 -0.00611765)
(0.0876112 0.0173397 1.39101e-07)
(0.0713814 0.0119186 -2.12589e-05)
(0.0549234 0.00759544 -9.99277e-05)
(0.0450536 0.00382189 -0.000233099)
(0.0384953 0.00179292 -0.000416306)
(0.0344672 0.000770983 -0.00064582)
(0.0315531 0.00034165 -0.000926339)
(0.0291048 0.00017195 -0.00126183)
(0.0265621 0.000109983 -0.00166209)
(0.0237401 6.50156e-05 -0.00212076)
(0.0203451 1.42981e-05 -0.0026501)
(0.0164774 -0.000100857 -0.00319388)
(0.0119077 -0.000223369 -0.00376474)
(0.00699583 -0.000534089 -0.00409697)
(0.00231427 -0.000760477 -0.003991)
(-0.0013971 -0.00170706 -0.00228657)
(0.10382 0.0182145 -3.64764e-06)
(0.102568 0.0182637 -4.37127e-05)
(0.0978285 0.0152276 -0.000174275)
(0.0920903 0.0106821 -0.000399165)
(0.0863725 0.00706881 -0.00071918)
(0.081387 0.00460682 -0.00113104)
(0.0767932 0.00323832 -0.00164249)
(0.0722602 0.00262504 -0.00226441)
(0.0672501 0.00249642 -0.00301593)
(0.0614527 0.00263361 -0.00389907)
(0.0543611 0.00292998 -0.00493228)
(0.0459087 0.00322328 -0.00604947)
(0.0355896 0.00352618 -0.00722985)
(0.0238472 0.00329805 -0.00803915)
(0.0111683 0.00251402 -0.00784143)
(0.000554366 -0.000792875 -0.00429014)
(0.103868 0.0122618 -6.67151e-07)
(0.107604 0.0170049 -4.6916e-05)
(0.109341 0.0165926 -0.000192339)
(0.108353 0.0135285 -0.000439359)
(0.105837 0.0103476 -0.000791112)
(0.102457 0.00783623 -0.00124686)
(0.0984467 0.00632233 -0.00181731)
(0.0938239 0.00569299 -0.00251702)
(0.0882871 0.00576957 -0.00336831)
(0.081592 0.00634201 -0.0043787)
(0.0731764 0.00729551 -0.00556783)
(0.0628831 0.00839796 -0.00687458)
(0.0499345 0.0096261 -0.00826185)
(0.0347561 0.0100435 -0.00925483)
(0.0173138 0.00901677 -0.00904337)
(0.00190878 0.0026618 -0.00487391)
(0.102022 0.00793404 5.24105e-06)
(0.106018 0.0133419 -3.84964e-05)
(0.109723 0.0145795 -0.000184371)
(0.111152 0.0133421 -0.000431514)
(0.110832 0.0113888 -0.000782137)
(0.109065 0.00964463 -0.00123621)
(0.106144 0.00861928 -0.00180557)
(0.102192 0.00841678 -0.00250612)
(0.0970328 0.0090147 -0.00336062)
(0.0905005 0.0103055 -0.00437885)
(0.0820095 0.0122568 -0.00557965)
(0.0713847 0.014656 -0.00690774)
(0.0575854 0.0175204 -0.00831927)
(0.0410198 0.0195536 -0.00934457)
(0.0210758 0.0193514 -0.00912514)
(0.00254462 0.00943343 -0.00486764)
(0.100983 0.00520927 1.47249e-05)
(0.104067 0.00996546 -1.98343e-05)
(0.107695 0.0119364 -0.000157559)
(0.109924 0.0120073 -0.000395414)
(0.110764 0.0112395 -0.000733673)
(0.110171 0.0104312 -0.00117142)
(0.108302 0.0101158 -0.00171963)
(0.105247 0.0105287 -0.00239351)
(0.100862 0.0117804 -0.00321404)
(0.095036 0.0138799 -0.00419135)
(0.0871589 0.0169038 -0.00534146)
(0.0770955 0.0207008 -0.00661549)
(0.063475 0.0253837 -0.0079653)
(0.046735 0.029301 -0.00895144)
(0.0250981 0.030371 -0.00872029)
(0.00361091 0.0163228 -0.00460922)
(0.100515 0.00353212 2.55587e-05)
(0.102814 0.00726365 4.16095e-06)
(0.105953 0.00934226 -0.000120163)
(0.108369 0.0101696 -0.00034349)
(0.109815 0.0103204 -0.00066411)
(0.110038 0.0103861 -0.00107942)
(0.109051 0.0108342 -0.00159826)
(0.106879 0.0119566 -0.00223395)
(0.103368 0.0139638 -0.00300443)
(0.0984451 0.0169974 -0.00391913)
(0.0914646 0.0212936 -0.00498991)
(0.0823609 0.0268967 -0.00617495)
(0.0693785 0.0342095 -0.00742205)
(0.0531025 0.0415366 -0.00833798)
(0.0300984 0.0465436 -0.00810063)
(0.00562599 0.0292142 -0.00426068)
(0.100342 0.0023508 3.76042e-05)