/*--------------------------------*- C++ -*----------------------------------*\
| =========                 |                                                 |
| \\      /  F ield         | OpenFOAM: The Open Source CFD Toolbox           |
|  \\    /   O peration     | Version:  v1912                                 |
|   \\  /    A nd           | Website:  www.openfoam.com                      |
|    \\/     M anipulation  |                                                 |
\*---------------------------------------------------------------------------*/
FoamFile
{
    version     2.0;
    format      ascii;
    class       volScalarField;
    location    "0.25/solid";
    object      epsilonEq;
}
// * * * * * * * * * * * * * * * * * * * * * * * * * * * * * * * * * * * * * //

dimensions      [0 0 0 0 0 0 0];


internalField   nonuniform List<scalar> 
256
(
2.31885e-06
1.88511e-06
1.86888e-06
2.25697e-06
1.63481e-06
1.5994e-06
1.58122e-06
1.57631e-06
1.69401e-06
1.60488e-06
1.58637e-06
1.6372e-06
1.78065e-06
1.65201e-06
1.63369e-06
1.72536e-06
1.87187e-06
1.72882e-06
1.71066e-06
1.81747e-06
1.97582e-06
1.83737e-06
1.81929e-06
1.92204e-06
1.87698e-06
1.87137e-06
1.85437e-06
1.82808e-06
1.47354e-07
2.03688e-06
2.02176e-06
1.3831e-07
1.6778e-06
3.59839e-07
3.52553e-07
1.61029e-06
1.41726e-06
3.20584e-07
3.12284e-07
1.35251e-06
1.43232e-06
2.70822e-07
2.63551e-07
1.36817e-06
1.47563e-06
2.39935e-07
2.33384e-07
1.41128e-06
1.54212e-06
2.36264e-07
2.30053e-07
1.47715e-06
1.63739e-06
2.26862e-07
2.21075e-07
1.57216e-06
1.65767e-06
5.24254e-08
5.17349e-08
1.597e-06
1.87644e-06
1.87175e-06
1.85522e-06
1.82898e-06
1.5153e-06
2.30083e-07
2.234e-07
1.45183e-06
1.36938e-06
2.74168e-07
2.64902e-07
1.30513e-06
1.39257e-06
2.56812e-07
2.47869e-07
1.32723e-06
1.43197e-06
2.3304e-07
2.24289e-07
1.36557e-06
1.49391e-06
2.25776e-07
2.17002e-07
1.42627e-06
1.58781e-06
2.18163e-07
2.09589e-07
1.51936e-06
1.63694e-06
2.21787e-07
2.17539e-07
1.57266e-06
1.97513e-06
1.83821e-06
1.82101e-06
1.92467e-06
1.39876e-06
2.05271e-07
1.9922e-07
1.34028e-06
1.27646e-06
2.58187e-07
2.49971e-07
1.21581e-06
1.3056e-06
2.51433e-07
2.43147e-07
1.24288e-06
1.34465e-06
2.32117e-07
2.2383e-07
1.28027e-06
1.40329e-06
2.24294e-07
2.15927e-07
1.33731e-06
1.49261e-06
2.16159e-07
2.08028e-07
1.42555e-06
1.54116e-06
2.2174e-07
2.18046e-07
1.47804e-06
1.87482e-06
1.73186e-06
1.7151e-06
1.82622e-06
1.33006e-06
1.92332e-07
1.86696e-07
1.27542e-06
1.21423e-06
2.42057e-07
2.34845e-07
1.15675e-06
1.2457e-06
2.37751e-07
2.3034e-07
1.18565e-06
1.28481e-06
2.2003e-07
2.12489e-07
1.22267e-06
1.34169e-06
2.11389e-07
2.03681e-07
1.27765e-06
1.42809e-06
2.01882e-07
1.94357e-07
1.36273e-06
1.47431e-06
2.02226e-07
1.99407e-07
1.41273e-06
1.79815e-06
1.65938e-06
1.64303e-06
1.75155e-06
1.28864e-06
1.83731e-07
1.78438e-07
1.23664e-06
1.17571e-06
2.29951e-07
2.23473e-07
1.12051e-06
1.20777e-06
2.25629e-07
2.18927e-07
1.14975e-06
1.24672e-06
2.08127e-07
2.01234e-07
1.18634e-06
1.30259e-06
1.98804e-07
1.91654e-07
1.24006e-06
1.38728e-06
1.8861e-07
1.81543e-07
1.32323e-06
1.43165e-06
1.85507e-07
1.83417e-07
1.37127e-06
1.74878e-06
1.61462e-06
1.59857e-06
1.70376e-06
1.2645e-06
1.7819e-07
1.73148e-07
1.21416e-06
1.15321e-06
2.22249e-07
2.16258e-07
1.09948e-06
1.1853e-06
2.17534e-07
2.11315e-07
1.12862e-06
1.22402e-06
1.99886e-07
1.93449e-07
1.16483e-06
1.27929e-06
1.90087e-07
1.83324e-07
1.21779e-06
1.36302e-06
1.79657e-07
1.72886e-07
1.29984e-06
1.4062e-06
1.74983e-07
1.73393e-07
1.34662e-06
1.71929e-06
1.58879e-06
1.57293e-06
1.67535e-06
1.25329e-06
1.75451e-07
1.70542e-07
1.20375e-06
1.14279e-06
2.1856e-07
2.12815e-07
1.08977e-06
1.17481e-06
2.1362e-07
2.07645e-07
1.11879e-06
1.21339e-06
1.95852e-07
1.89651e-07
1.15478e-06
1.26836e-06
1.85816e-07
1.79253e-07
1.20738e-06
1.35166e-06
1.75328e-07
1.68704e-07
1.28892e-06
1.39428e-06
1.7013e-07
1.68792e-07
1.33509e-06
1.70547e-06
1.57694e-06
1.56118e-06
1.66208e-06
)
;

boundaryField
{
    interface
    {
        type            calculated;
        value           nonuniform List<scalar> 
192
(
3.21901e-06
2.48673e-06
2.56627e-06
2.68039e-06
2.80822e-06
2.97191e-06
2.98117e-06
1.58146e-06
2.89331e-06
2.55394e-06
2.59245e-06
2.67594e-06
2.79797e-06
2.98396e-06
3.1482e-06
2.98094e-06
2.60537e-06
2.38612e-06
2.42983e-06
2.50694e-06
2.62239e-06
2.80398e-06
2.98453e-06
2.97224e-06
2.40315e-06
2.212e-06
2.26088e-06
2.33653e-06
2.44776e-06
2.62325e-06
2.80038e-06
2.81349e-06
2.28524e-06
2.10322e-06
2.15435e-06
2.2297e-06
2.33886e-06
2.51062e-06
2.6838e-06
2.70321e-06
2.21494e-06
2.03751e-06
2.08941e-06
2.16457e-06
2.27259e-06
2.44209e-06
2.6122e-06
2.63372e-06
2.17441e-06
1.99957e-06
2.05167e-06
2.12664e-06
2.23401e-06
2.40217e-06
2.57026e-06
2.59254e-06
2.15571e-06
1.98206e-06
2.0342e-06
2.10905e-06
2.21611e-06
2.38365e-06
2.55074e-06
2.57329e-06
3.3734e-06
2.65869e-06
2.73753e-06
2.85098e-06
2.97863e-06
3.14417e-06
3.16976e-06
1.90803e-06
3.26386e-06
2.8908e-06
2.92169e-06
3.00923e-06
3.14096e-06
3.33989e-06
3.51924e-06
3.31565e-06
3.2344e-06
2.85844e-06
2.88832e-06
2.97574e-06
3.1075e-06
3.3064e-06
3.48648e-06
3.28978e-06
3.28831e-06
2.5756e-06
2.65429e-06
2.76835e-06
2.89643e-06
3.0619e-06
3.08987e-06
1.86214e-06
3.13289e-06
2.40172e-06
2.48211e-06
2.5971e-06
2.72556e-06
2.89045e-06
2.90751e-06
1.56353e-06
2.78548e-06
2.44709e-06
2.48478e-06
2.5669e-06
2.68736e-06
2.87251e-06
3.04227e-06
2.90828e-06
2.50097e-06
2.27931e-06
2.32077e-06
2.39568e-06
2.50882e-06
2.68867e-06
2.8735e-06
2.89321e-06
2.30462e-06
2.1095e-06
2.1552e-06
2.22805e-06
2.33655e-06
2.50984e-06
2.69055e-06
2.7351e-06
2.1913e-06
2.00448e-06
2.05192e-06
2.12405e-06
2.23016e-06
2.3994e-06
2.57572e-06
2.62628e-06
2.12414e-06
1.94146e-06
1.98939e-06
2.06105e-06
2.16578e-06
2.33252e-06
2.50548e-06
2.55803e-06
2.08557e-06
1.90523e-06
1.95323e-06
2.02455e-06
2.12846e-06
2.29371e-06
2.46447e-06
2.51774e-06
2.06781e-06
1.88856e-06
1.93654e-06
2.00768e-06
2.11121e-06
2.27575e-06
2.44541e-06
2.49894e-06
1.90846e-06
3.16965e-06
3.14437e-06
2.98367e-06
2.87377e-06
2.8049e-06
2.76417e-06
2.74512e-06
3.31601e-06
3.51999e-06
3.34194e-06
3.14715e-06
3.02458e-06
2.95011e-06
2.90708e-06
2.88725e-06
3.29014e-06
3.48754e-06
3.30904e-06
3.11465e-06
2.9924e-06
2.91818e-06
2.87531e-06
2.85556e-06
1.86251e-06
3.09077e-06
3.06471e-06
2.90613e-06
2.79808e-06
2.73065e-06
2.6909e-06
2.67236e-06
)
;
    }
    symmetry
    {
        type            symmetry;
    }
    bottom
    {
        type            calculated;
        value           nonuniform List<scalar> 
32
(
2.99097e-06
1.93983e-06
1.70579e-06
1.58081e-06
1.50874e-06
1.46459e-06
1.43865e-06
1.42658e-06
2.15718e-06
4.3322e-07
2.52077e-07
2.24669e-07
2.13569e-07
2.05872e-07
2.00747e-07
1.98189e-07
2.14174e-06
4.24521e-07
2.43783e-07
2.17286e-07
2.06749e-07
1.99461e-07
1.94625e-07
1.9222e-07
2.9272e-06
1.86927e-06
1.64109e-06
1.5227e-06
1.45548e-06
1.4146e-06
1.39067e-06
1.37956e-06
)
;
    }
}


// ************************************************************************* //
