/*--------------------------------*- C++ -*----------------------------------*\
| =========                 |                                                 |
| \\      /  F ield         | OpenFOAM: The Open Source CFD Toolbox           |
|  \\    /   O peration     | Version:  v1912                                 |
|   \\  /    A nd           | Website:  www.openfoam.com                      |
|    \\/     M anipulation  |                                                 |
\*---------------------------------------------------------------------------*/
FoamFile
{
    version     2.0;
    format      ascii;
    class       volVectorField;
    location    "0.25/solid";
    object      heatFlux;
}
// * * * * * * * * * * * * * * * * * * * * * * * * * * * * * * * * * * * * * //

dimensions      [1 0 -3 0 0 0 0];


internalField   nonuniform List<vector> 
256
(
(-85582.4 44494.4 -91749.4)
(-10284.1 22876.9 -85028.6)
(10193.8 22801 -84294.4)
(83251.1 44384.7 -89338.4)
(-85313.6 2683.68 -91563.7)
(-11409.3 1439.9 -85695.7)
(11314.1 1433.02 -84906.8)
(82861.8 2674.57 -88980.7)
(-86602.4 515.627 -92880.8)
(-11534.7 252.437 -86930.4)
(11428.4 249.31 -86109.9)
(84088.1 499.158 -90206.5)
(-88656.2 722.771 -94936.3)
(-11675.6 352.171 -88856.6)
(11560.8 350.493 -88020.8)
(86094.9 709.958 -92215.9)
(-91893.2 1298 -98164.8)
(-11907 671.686 -91969)
(11786.2 671.053 -91126.2)
(89309.6 1291.58 -95423.9)
(-97156 3137.99 -103446)
(-12302.6 2039.55 -97284.9)
(12180.7 2038.37 -96440)
(94602 3143.75 -100700)
(-105774 17817.4 -112259)
(-13006.6 15927.1 -106743)
(12890.4 15874.9 -105896)
(103383 17701.5 -109511)
(-112260 119650 -119638)
(-14245.1 116624 -116614)
(13955.1 115791 -115784)
(110231 116962 -116959)
(-75106.9 20936.1 -12495.8)
(-8685.12 2504.38 -10222.6)
(8765.31 2527.6 -10174.6)
(72586.5 21095.6 -12367)
(-75777.1 1347.47 -13862.2)
(-9723.37 196.645 -11447.9)
(9825.88 198.571 -11392.6)
(73168.7 1363.5 -13712.4)
(-77006.8 257.625 -13996.9)
(-9834.02 23.1732 -11565.4)
(9932.17 22.6877 -11508.1)
(74330.6 247.354 -13842.2)
(-78947.3 367.057 -14138.7)
(-9958.31 28.4194 -11688.3)
(10050.1 27.7467 -11630.2)
(76207.3 354.382 -13982.8)
(-82090.9 691.719 -14370.8)
(-10173.3 81.9115 -11902)
(10258.1 81.1651 -11843.7)
(79295.6 679.9 -14216.8)
(-87423.5 2036.31 -14771.9)
(-10568.9 862.075 -12303.5)
(10648.1 859.522 -12245.7)
(84602 2030.19 -14623.4)
(-96712.5 15545.5 -15543.8)
(-11350.1 13163.8 -13163.3)
(11426.2 13107 -13106.6)
(93980.4 15405.6 -15405.9)
(-105787 112282 -17815.2)
(-13007.4 106759 -15926.2)
(12889.9 105907 -15874.4)
(103379 109516 -17701.7)
(-66016.1 18136.4 -1727.44)
(-7962.88 1206.34 -641.286)
(8049.38 1233.88 -638.92)
(63470.6 18305.3 -1717.6)
(-66710.2 1182.53 -1917.9)
(-8939.67 97.1665 -740.167)
(9049.62 99.5145 -737.388)
(64075.7 1199.37 -1906.67)
(-67883 239.176 -1930.37)
(-9045.89 12.0165 -747.028)
(9151.58 11.6163 -744.181)
(65178.9 228.739 -1919.12)
(-69757.1 348.874 -1937.94)
(-9167.23 15.5379 -751.749)
(9266.35 14.8706 -748.885)
(66984.8 335.428 -1926.93)
(-72832 664.723 -1947.93)
(-9379.9 56.46 -760.186)
(9471.47 55.6352 -757.341)
(69993.2 651.002 -1937.63)
(-78116.6 1965.01 -1963.54)
(-9776.32 778.283 -778.224)
(9860.89 775.461 -775.459)
(75228.6 1954.65 -1954.98)
(-87440.1 14774.1 -2034.78)
(-10569.4 12304.4 -861.997)
(10647.8 12246.2 -859.511)
(84598.4 14623.2 -2030.53)
(-97186.4 103484 -3134.93)
(-12304.3 97312.8 -2038.46)
(12179.6 96458 -2037.76)
(94595.1 100707 -3143.94)
(-60840.9 17290.8 -611.402)
(-7596.6 1122.93 -47.8025)
(7689 1151.3 -47.1235)
(58333.1 17471.3 -600.745)
(-61517.1 1144.54 -664.443)
(-8542.86 90.9024 -54.8438)
(8659.37 93.3092 -54.0635)
(58920.4 1161.97 -652.524)
(-62670.6 237.592 -666.22)
(-8647.83 11.5913 -55.1893)
(8760.07 11.1909 -54.4059)
(60004.4 227.096 -654.267)
(-64528.3 349.493 -665.496)
(-8769.26 15.2612 -55.2512)
(8874.88 14.587 -54.4706)
(61792.7 335.871 -653.581)
(-67588.8 666.114 -663.703)
(-8982.74 55.4367 -55.367)
(9080.68 54.5911 -54.5932)
(64783 651.852 -651.939)
(-72856.2 1949.46 -662.273)
(-9380.78 760.264 -56.3883)
(9471.29 757.353 -55.6363)
(69991.5 1937.3 -651.072)
(-82132.9 14374.1 -689.074)
(-10174.8 11903.6 -81.7805)
(10257.7 11844.7 -81.1307)
(79290.3 14216.7 -679.958)
(-91951 98229.2 -1292.54)
(-11910.2 92015.7 -669.593)
(11784.4 91157 -669.734)
(89300.3 95436.8 -1291.16)
(-57832.7 16860.6 -321.896)
(-7398.6 1103.69 -13.566)
(7496.43 1132.69 -13.0698)
(55359.4 17052.1 -313.062)
(-58501.1 1127.71 -347.231)
(-8329.29 89.7797 -15.1666)
(8451.94 92.2321 -14.5947)
(55940.5 1145.85 -337.237)
(-59650.3 238.124 -347.333)
(-8434.08 11.6091 -15.1873)
(8552.5 11.2093 -14.6121)
(57020.9 227.683 -337.239)
(-61507.5 351.392 -345.921)
(-8556.21 15.3603 -15.1131)
(8668.02 14.6833 -14.5396)
(58808.7 337.756 -335.808)
(-64567.6 667.946 -343.948)
(-8770.79 55.3229 -15.0109)
(8874.9 54.4695 -14.4408)
(61797.5 653.511 -333.862)
(-69821.7 1939.64 -343.135)
(-9169.68 751.87 -15.2721)
(9266.2 748.923 -14.7109)
(66988.3 1926.63 -333.279)
(-79032 14143.9 -360.701)
(-9961.5 11691.2 -27.8993)
(10049.7 11632.1 -27.3783)
(76207.4 13983.1 -351.925)
(-88760 95045.9 -709.659)
(-11681.5 88938.2 -346.339)
(11558 88077.1 -346.052)
(86089.9 92243.3 -704.885)
(-56043.9 16621.6 -177.674)
(-7287.78 1094.19 -6.84717)
(7389.5 1123.63 -6.5148)
(53592.3 16821 -171.625)
(-56709.4 1119.1 -190.924)
(-8210.22 89.2811 -7.59919)
(8337.3 91.7668 -7.21506)
(54172.1 1137.8 -184.038)
(-57859 238.901 -190.681)
(-8315.11 11.6448 -7.59328)
(8438.02 11.2459 -7.20619)
(55253.7 228.525 -183.7)
(-59719.1 352.879 -189.57)
(-8437.88 15.4376 -7.53759)
(8554.18 14.7584 -7.15193)
(57044.7 339.248 -182.568)
(-62780.3 668.901 -188.291)
(-8653.23 55.2777 -7.47015)
(8761.83 54.4198 -7.08703)
(60034.2 654.381 -181.301)
(-68021.6 1932.7 -188.242)
(-9052.36 747.376 -7.60863)
(9153.29 744.415 -7.23037)
(65209.7 1919.24 -181.374)
(-77171.6 14007.6 -199.685)
(-9841.52 11572.5 -14.3519)
(9933.69 11513.3 -13.9881)
(74360.8 13845.1 -193.395)
(-86790.6 93079.3 -401.856)
(-11546.6 87085 -191.322)
(11425.9 86222.8 -190.962)
(84110.6 90271.1 -397.532)
(-55023.5 16492 -90.2736)
(-7227.44 1089.24 -3.36588)
(7331.66 1118.96 -3.17612)
(52584.9 16696.4 -86.7698)
(-55688 1114.7 -96.7667)
(-8145.59 89.0336 -3.72427)
(8275.5 91.5407 -3.50473)
(53164.8 1133.77 -92.7667)
(-56838.8 239.478 -96.5536)
(-8250.6 11.6707 -3.71722)
(8376.39 11.2724 -3.49571)
(54248.3 229.153 -92.4872)
(-58701.4 353.782 -95.9011)
(-8373.79 15.4834 -3.6856)
(8492.99 14.8024 -3.46506)
(56042.1 340.155 -91.8222)
(-61763 669.273 -95.2375)
(-8589.58 55.2519 -3.6507)
(8701.06 54.3911 -3.43192)
(59032 654.705 -91.1685)
(-66993.9 1928.24 -95.4206)
(-8988.67 744.988 -3.72401)
(9092.44 742.022 -3.50787)
(64195.9 1914.54 -91.4168)
(-76100.7 13930.3 -101.871)
(-9775.81 11507.5 -7.08351)
(9870.61 11448.4 -6.87171)
(73299.2 13766.9 -98.1532)
(-85636.7 91924.7 -207.888)
(-11470.6 86012.6 -97.677)
(11351.8 85150 -97.4185)
(82952.3 89113.4 -205.059)
(-54557.3 16434.6 -27.72)
(-7200.68 1087.1 -1.01679)
(7306.1 1116.95 -0.955108)
(52124.7 16641.5 -26.5735)
(-55221.5 1112.82 -29.6774)
(-8116.96 88.9297 -1.12338)
(8248.26 91.4472 -1.052)
(52705 1132.08 -28.3668)
(-56372.9 239.767 -29.5999)
(-8222.05 11.6835 -1.12069)
(8349.25 11.2856 -1.0486)
(53789.5 229.47 -28.2652)
(-58236.8 354.195 -29.3887)
(-8345.44 15.5042 -1.11059)
(8466.05 14.8222 -1.03884)
(55584.8 340.567 -28.0499)
(-61298.6 669.381 -29.1872)
(-8561.43 55.2393 -1.09997)
(8674.31 54.377 -1.02886)
(58574.7 654.787 -27.8529)
(-66523.8 1926.07 -29.2808)
(-8960.45 743.943 -1.12316)
(9065.59 740.975 -1.05291)
(63732.4 1912.25 -27.9679)
(-75608.3 13895.1 -31.3618)
(-9746.52 11478.6 -2.14506)
(9842.62 11419.4 -2.07568)
(72811.4 13731.4 -30.1365)
(-85101 91387.6 -64.4373)
(-11436.1 85517.5 -30.0992)
(11318.5 84654.7 -30.0075)
(82414.7 88575 -63.467)
)
;

boundaryField
{
    interface
    {
        type            calculated;
        value           nonuniform List<vector> 
192
(
(-150668 44494.4 -91749.4)
(-147889 2683.68 -91563.7)
(-150220 515.627 -92880.8)
(-154048 722.771 -94936.3)
(-160060 1298 -98164.8)
(-169795 3137.99 -103446)
(-185625 17817.4 -112259)
(-196223 119650 -119638)
(-132822 20936.1 -12495.8)
(-132082 1347.47 -13862.2)
(-134321 257.625 -13996.9)
(-137954 367.057 -14138.7)
(-143812 691.719 -14370.8)
(-153686 2036.31 -14771.9)
(-170706 15545.5 -15543.8)
(-185650 112282 -17815.2)
(-116081 18136.4 -1727.44)
(-115511 1182.53 -1917.9)
(-117644 239.176 -1930.37)
(-121151 348.874 -1937.94)
(-126876 664.723 -1947.93)
(-136653 1965.01 -1963.54)
(-153719 14774.1 -2034.78)
(-169853 103484 -3134.93)
(-106463 17290.8 -611.402)
(-105918 1144.54 -664.443)
(-108015 237.592 -666.22)
(-111488 349.493 -665.496)
(-117183 666.114 -663.703)
(-126923 1949.46 -662.273)
(-143893 14374.1 -689.074)
(-160171 98229.2 -1292.54)
(-100842 16860.6 -321.896)
(-100312 1127.71 -347.231)
(-102401 238.124 -347.333)
(-105872 351.392 -345.921)
(-111564 667.946 -343.948)
(-121275 1939.64 -343.135)
(-138117 14143.9 -360.701)
(-154246 95045.9 -709.659)
(-97485.3 16621.6 -177.674)
(-96966.3 1119.1 -190.924)
(-99055.9 238.901 -190.681)
(-102531 352.879 -189.57)
(-108224 668.901 -188.291)
(-117909 1932.7 -188.242)
(-134636 14007.6 -199.685)
(-150577 93079.3 -401.856)
(-95565 16492 -90.2736)
(-95052.5 1114.7 -96.7667)
(-97144.2 239.478 -96.5536)
(-100624 353.782 -95.9011)
(-106316 669.273 -95.2375)
(-115981 1928.24 -95.4206)
(-132625 13930.3 -101.871)
(-148421 91924.7 -207.888)
(-94686 16434.6 -27.72)
(-94176.6 1112.82 -29.6774)
(-96269.5 239.767 -29.5999)
(-99751.1 354.195 -29.3887)
(-105443 669.381 -29.1872)
(-115097 1926.07 -29.2808)
(-131699 13895.1 -31.3618)
(-147418 91387.6 -64.4373)
(-85582.4 44494.4 -161153)
(-85313.6 2683.68 -158357)
(-86602.4 515.627 -160743)
(-88656.2 722.771 -164586)
(-91893.2 1298 -170600)
(-97156 3137.99 -180392)
(-105774 17817.4 -196585)
(-112260 119650 -208233)
(-10284.1 22876.9 -150817)
(-11409.3 1439.9 -149887)
(-11534.7 252.437 -152134)
(-11675.6 352.171 -155750)
(-11907 671.686 -161564)
(-12302.6 2039.55 -171427)
(-13006.6 15927.1 -188756)
(-14245.1 116624 -204559)
(10193.8 22801 -149441)
(11314.1 1433.02 -148415)
(11428.4 249.31 -150603)
(11560.8 350.493 -154189)
(11786.2 671.053 -159990)
(12180.7 2038.37 -169848)
(12890.4 15874.9 -187172)
(13955.1 115791 -202999)
(83251.1 44384.7 -156580)
(82861.8 2674.57 -153480)
(84088.1 499.158 -155694)
(86094.9 709.958 -159447)
(89309.6 1291.58 -165417)
(94602 3143.75 -175192)
(103383 17701.5 -191364)
(110231 116962 -203118)
(146044 44384.7 -89338.4)
(143015 2674.57 -88980.7)
(145235 499.158 -90206.5)
(148981 709.958 -92215.9)
(154959 1291.58 -95423.9)
(164754 3143.75 -100700)
(180894 17701.5 -109511)
(192359 116962 -116959)
(127663 21095.6 -12367)
(126711 1363.5 -13712.4)
(128822 247.354 -13842.2)
(132339 354.382 -13982.8)
(138099 679.9 -14216.8)
(147931 2030.19 -14623.4)
(165127 15405.6 -15405.9)
(180888 109516 -17701.7)
(110867 18305.3 -1717.6)
(110082 1199.37 -1906.67)
(112084 228.739 -1919.12)
(115466 335.428 -1926.93)
(121072 651.002 -1937.63)
(130763 1954.65 -1954.98)
(147924 14623.2 -2030.53)
(164742 100707 -3143.94)
(101314 17471.3 -600.745)
(100553 1161.97 -652.524)
(102519 227.096 -654.267)
(105866 335.871 -653.581)
(111434 651.852 -651.939)
(121069 1937.3 -651.072)
(138089 14216.7 -679.958)
(154942 95436.8 -1291.16)
(95752.5 17052.1 -313.062)
(95008.7 1145.85 -337.237)
(96968.1 227.683 -337.239)
(100312 337.756 -335.808)
(105875 653.511 -333.862)
(115473 1926.63 -333.279)
(132340 13983.1 -351.925)
(148974 92243.3 -704.885)
(92432.5 16821 -171.625)
(91701.6 1137.8 -184.038)
(93663.2 228.525 -183.7)
(97012.3 339.248 -182.568)
(102575 654.381 -181.301)
(112142 1919.24 -181.374)
(128879 13845.1 -193.395)
(145281 90271.1 -397.532)
(90533.6 16696.4 -86.7698)
(89811 1133.77 -92.7667)
(91775.9 229.153 -92.4872)
(95129.8 340.155 -91.8222)
(100693 654.705 -91.1685)
(110237 1914.54 -91.4168)
(126882 13766.9 -98.1532)
(143112 89113.4 -205.059)
(89664.5 16641.5 -26.5735)
(88945.9 1132.08 -28.3668)
(90912.8 229.47 -28.2652)
(94269.3 340.567 -28.0499)
(99831.8 654.787 -27.8529)
(109364 1912.25 -27.9679)
(125963 13731.4 -30.1365)
(142104 88575 -63.467)
(-112260 208255 -119638)
(-105787 196629 -17815.2)
(-97186.4 180466 -3134.93)
(-91951 170723 -1292.54)
(-88760 164796 -709.659)
(-86790.6 161121 -401.856)
(-85636.7 158958 -207.888)
(-85101 157950 -64.4373)
(-14245.1 204577 -116614)
(-13007.4 188788 -15926.2)
(-12304.3 171481 -2038.46)
(-11910.2 161654 -669.593)
(-11681.5 155908 -346.339)
(-11546.6 152430 -191.322)
(-11470.6 150410 -97.677)
(-11436.1 149476 -30.0992)
(13955.1 203013 -115784)
(12889.9 187194 -15874.4)
(12179.6 169883 -2037.76)
(11784.4 160050 -669.734)
(11558 154299 -346.052)
(11425.9 150819 -190.962)
(11351.8 148798 -97.4185)
(11318.5 147864 -30.0075)
(110231 203125 -116959)
(103379 191374 -17701.7)
(94595.1 175206 -3143.94)
(89300.3 165443 -1291.16)
(86089.9 159501 -704.885)
(84110.6 155818 -397.532)
(82952.3 153649 -205.059)
(82414.7 152639 -63.467)
)
;
    }
    symmetry
    {
        type            symmetry;
    }
    bottom
    {
        type            calculated;
        value           nonuniform List<vector> 
32
(
(-85582.4 84116.8 -91749.4)
(-75106.9 39424.9 -12495.8)
(-66016.1 34133.6 -1727.44)
(-60840.9 32515.1 -611.402)
(-57832.7 31688 -321.896)
(-56043.9 31227.5 -177.674)
(-55023.5 30977.3 -90.2736)
(-54557.3 30866.4 -27.72)
(-10284.1 43122.4 -85028.6)
(-8685.12 4642.12 -10222.6)
(-7962.88 2231.92 -641.286)
(-7596.6 2076.98 -47.8025)
(-7398.6 2040.71 -13.566)
(-7287.78 2022.72 -6.84717)
(-7227.44 2013.32 -3.36588)
(-7200.68 2009.25 -1.01679)
(10193.8 42980.5 -84294.4)
(8765.31 4684.38 -10174.6)
(8049.38 2282.09 -638.92)
(7689 2128.7 -47.1235)
(7496.43 2093.6 -13.0698)
(7389.5 2076.42 -6.5148)
(7331.66 2067.54 -3.17612)
(7306.1 2063.72 -0.955108)
(83251.1 83897.5 -89338.4)
(72586.5 39703.4 -12367)
(63470.6 34429.4 -1717.6)
(58333.1 32833 -600.745)
(55359.4 32026.4 -313.062)
(53592.3 31580.7 -171.625)
(52584.9 31339.9 -86.7698)
(52124.7 31233.7 -26.5735)
)
;
    }
}


// ************************************************************************* //
