/*--------------------------------*- C++ -*----------------------------------*\
| =========                 |                                                 |
| \\      /  F ield         | OpenFOAM: The Open Source CFD Toolbox           |
|  \\    /   O peration     | Version:  v1912                                 |
|   \\  /    A nd           | Website:  www.openfoam.com                      |
|    \\/     M anipulation  |                                                 |
\*---------------------------------------------------------------------------*/
FoamFile
{
    version     2.0;
    format      ascii;
    class       pointVectorField;
    location    "0.25/solid";
    object      pointD;
}
// * * * * * * * * * * * * * * * * * * * * * * * * * * * * * * * * * * * * * //

dimensions      [0 1 0 0 0 0 0];


internalField   nonuniform List<vector> 
405
(
(2.64105e-08 1.9723e-08 2.79071e-08)
(2.64118e-09 1.25185e-08 3.54561e-08)
(2.18925e-10 1.02094e-08 3.43289e-08)
(-2.1983e-09 1.25107e-08 3.51872e-08)
(-2.54226e-08 1.92629e-08 2.79004e-08)
(4.15563e-08 2.52517e-08 4.38392e-08)
(7.13408e-09 2.17724e-08 7.23018e-08)
(9.15557e-10 1.82196e-08 7.02483e-08)
(-5.29689e-09 2.14114e-08 7.20127e-08)
(-3.91794e-08 2.40378e-08 4.42847e-08)
(4.41775e-08 1.86714e-08 4.61628e-08)
(9.45554e-09 1.68663e-08 7.42039e-08)
(1.93309e-09 1.50131e-08 7.22921e-08)
(-5.59297e-09 1.5845e-08 7.43363e-08)
(-3.98766e-08 1.64507e-08 4.73779e-08)
(4.55302e-08 1.59227e-08 4.63259e-08)
(1.02935e-08 1.48457e-08 7.49184e-08)
(3.08439e-09 1.37875e-08 7.29681e-08)
(-4.13708e-09 1.32333e-08 7.53518e-08)
(-3.90122e-08 1.27836e-08 4.80846e-08)
(4.72645e-08 1.57395e-08 4.59591e-08)
(1.12232e-08 1.47713e-08 7.55514e-08)
(4.38348e-09 1.38541e-08 7.37255e-08)
(-2.47246e-09 1.26338e-08 7.62136e-08)
(-3.82088e-08 1.17642e-08 4.81263e-08)
(4.9712e-08 1.6929e-08 4.58525e-08)
(1.23949e-08 1.59481e-08 7.70246e-08)
(5.83782e-09 1.49244e-08 7.54695e-08)
(-7.39438e-10 1.3326e-08 7.78712e-08)
(-3.7806e-08 1.21722e-08 4.8347e-08)
(5.25966e-08 1.88224e-08 4.64582e-08)
(1.3488e-08 1.78344e-08 7.99647e-08)
(7.45297e-09 1.65635e-08 7.88112e-08)
(1.37576e-09 1.47449e-08 8.09727e-08)
(-3.75793e-08 1.33157e-08 4.92343e-08)
(5.55517e-08 1.26877e-08 4.80215e-08)
(1.45333e-08 1.18013e-08 8.41967e-08)
(9.21914e-09 1.03444e-08 8.35944e-08)
(3.80165e-09 8.31366e-09 8.53974e-08)
(-3.72944e-08 6.54042e-09 5.10767e-08)
(4.52851e-08 -1.99064e-08 3.65414e-08)
(1.52817e-08 -3.29073e-08 4.91307e-08)
(1.03195e-08 -3.38708e-08 4.93697e-08)
(5.21698e-09 -3.61221e-08 5.08949e-08)
(-2.5116e-08 -2.55973e-08 3.97891e-08)
(3.25702e-08 1.21694e-08 2.40372e-09)
(0 0 0)
(0 0 0)
(0 0 0)
(-3.15063e-08 1.15499e-08 2.7327e-09)
(6.65606e-08 2.12859e-08 6.68274e-09)
(6.97948e-09 1.4001e-08 6.82354e-09)
(6.18666e-10 1.05725e-08 6.90586e-09)
(-5.69444e-09 1.33381e-08 7.42873e-09)
(-6.36991e-08 1.95121e-08 7.8247e-09)
(6.88268e-08 1.69163e-08 8.71666e-09)
(9.22927e-09 1.44152e-08 8.86565e-09)
(1.42191e-09 1.25463e-08 9.06208e-09)
(-6.337e-09 1.3166e-08 9.90134e-09)
(-6.43243e-08 1.41061e-08 1.06903e-08)
(7.06435e-08 1.55882e-08 8.34247e-09)
(9.97469e-09 1.45439e-08 8.55128e-09)
(2.41599e-09 1.34224e-08 8.8487e-09)
(-5.09972e-09 1.27693e-08 9.89356e-09)
(-6.41358e-08 1.1813e-08 1.09222e-08)
(7.31794e-08 1.61019e-08 7.06436e-09)
(1.0794e-08 1.51771e-08 7.38555e-09)
(3.59477e-09 1.4167e-08 7.8072e-09)
(-3.56317e-09 1.29209e-08 8.95823e-09)
(-6.42938e-08 1.14295e-08 1.01058e-08)
(7.70062e-08 1.74587e-08 5.55969e-09)
(1.18804e-08 1.64731e-08 5.98517e-09)
(4.95242e-09 1.53474e-08 6.54847e-09)
(-1.93603e-09 1.37584e-08 7.74366e-09)
(-6.5399e-08 1.19398e-08 8.97359e-09)
(8.21066e-08 1.9041e-08 4.2243e-09)
(1.29502e-08 1.79728e-08 4.68566e-09)
(6.48579e-09 1.66263e-08 5.37403e-09)
(4.1155e-11 1.48125e-08 6.60176e-09)
(-6.75211e-08 1.27219e-08 7.9523e-09)
(8.77507e-08 1.25158e-08 3.69878e-09)
(1.40396e-08 1.13504e-08 4.10165e-09)
(8.18305e-09 9.86566e-09 4.85435e-09)
(2.28475e-09 7.84216e-09 6.13893e-09)
(-7.01575e-08 5.5478e-09 7.67514e-09)
(5.61441e-08 -3.19991e-08 4.09579e-09)
(1.53073e-08 -6.87493e-08 4.68e-09)
(9.98031e-09 -6.88905e-08 5.42783e-09)
(4.55711e-09 -7.14304e-08 6.73615e-09)
(-3.67281e-08 -3.76648e-08 7.68172e-09)
(2.92512e-08 8.87682e-09 -4.95477e-10)
(0 0 0)
(0 0 0)
(0 0 0)
(-2.8203e-08 8.36476e-09 -2.37032e-10)
(6.03863e-08 1.58749e-08 -3.10724e-10)
(6.70342e-09 8.96731e-09 -4.53239e-11)
(3.93771e-10 5.78652e-09 9.85823e-11)
(-5.82842e-09 8.31039e-09 4.52434e-10)
(-5.77387e-08 1.4306e-08 5.94766e-10)
(6.30411e-08 1.36546e-08 5.99536e-10)
(8.9154e-09 1.12408e-08 8.76364e-10)
(1.01818e-09 9.44249e-09 1.14703e-09)
(-6.7821e-09 9.99938e-09 1.73295e-09)
(-5.90866e-08 1.1032e-08 2.18971e-09)
(6.4674e-08 1.38401e-08 4.59001e-10)
(9.5778e-09 1.28452e-08 7.92661e-10)
(1.86748e-09 1.17342e-08 1.17361e-09)
(-5.74809e-09 1.10902e-08 1.9157e-09)
(-5.89864e-08 1.02388e-08 2.57792e-09)
(6.70618e-08 1.51198e-08 -5.62447e-10)
(1.03099e-08 1.42118e-08 -1.40181e-10)
(2.92856e-09 1.32033e-08 3.41725e-10)
(-4.35636e-09 1.19856e-08 1.19164e-09)
(-5.92096e-08 1.06088e-08 1.97872e-09)
(7.09283e-08 1.66559e-08 -1.85792e-09)
(1.13761e-08 1.5623e-08 -1.38158e-09)
(4.19017e-09 1.44972e-08 -8.13298e-10)
(-2.89794e-09 1.29474e-08 1.21808e-10)
(-6.05178e-08 1.129e-08 1.03099e-09)
(7.63734e-08 1.78767e-08 -2.83738e-09)
(1.2521e-08 1.67062e-08 -2.38801e-09)
(5.64474e-09 1.53661e-08 -1.76046e-09)
(-1.15183e-09 1.3599e-08 -7.46047e-10)
(-6.31076e-08 1.17154e-08 3.35049e-10)
(8.29133e-08 1.09795e-08 -2.88873e-09)
(1.37445e-08 9.739e-09 -2.54527e-09)
(7.27777e-09 8.29532e-09 -1.8965e-09)
(8.26376e-10 6.3122e-09 -8.19814e-10)
(-6.6749e-08 4.19698e-09 4.75387e-10)
(5.40021e-08 -3.1428e-08 -2.07557e-09)
(1.50746e-08 -6.55337e-08 -1.37599e-09)
(9.02119e-09 -6.51543e-08 -7.78869e-10)
(2.9244e-09 -6.80684e-08 3.22025e-10)
(-3.6235e-08 -3.68864e-08 9.10479e-10)
(2.66974e-08 7.91916e-09 -3.37925e-10)
(0 0 0)
(0 0 0)
(0 0 0)
(-2.57428e-08 7.52834e-09 -1.51518e-10)
(5.55643e-08 1.38385e-08 -5.07464e-10)
(6.43585e-09 7.20019e-09 -2.62697e-10)
(2.52021e-10 4.19708e-09 -1.7182e-10)
(-5.84689e-09 6.61816e-09 1.00959e-10)
(-5.32324e-08 1.25337e-08 1.55333e-10)
(5.85548e-08 1.15623e-08 -1.90581e-10)
(8.64035e-09 9.19465e-09 8.5525e-11)
(7.38987e-10 7.47861e-09 2.82231e-10)
(-7.06275e-09 8.05091e-09 7.24391e-10)
(-5.51678e-08 9.22475e-09 9.95474e-10)
(6.0181e-08 1.19355e-08 -2.333e-10)
(9.26574e-09 1.09842e-08 8.22614e-11)
(1.46486e-09 9.9193e-09 3.72935e-10)
(-6.23447e-09 9.33175e-09 9.36118e-10)
(-5.52927e-08 8.6094e-09 1.38077e-09)
(6.24342e-08 1.33896e-08 -8.39947e-10)
(9.91567e-09 1.25339e-08 -4.49051e-10)
(2.42003e-09 1.15657e-08 -7.61815e-11)
(-4.96956e-09 1.04093e-08 5.81298e-10)
(-5.55809e-08 9.1334e-09 1.13406e-09)
(6.61816e-08 1.48942e-08 -1.62965e-09)
(1.09223e-08 1.38737e-08 -1.17355e-09)
(3.59304e-09 1.27826e-08 -7.34267e-10)
(-3.62677e-09 1.12985e-08 4.51978e-12)
(-5.69339e-08 9.76332e-09 6.47874e-10)
(7.16364e-08 1.58274e-08 -2.02324e-09)
(1.20884e-08 1.46105e-08 -1.56465e-09)
(4.97442e-09 1.33092e-08 -1.08361e-09)
(-2.04717e-09 1.16049e-08 -2.70994e-10)
(-5.96616e-08 9.88771e-09 4.97349e-10)
(7.85629e-08 8.72366e-09 -1.48009e-09)
(1.34172e-08 7.48035e-09 -1.10213e-09)
(6.54659e-09 6.12918e-09 -6.14396e-10)
(-2.95973e-10 4.15606e-09 2.5299e-10)
(-6.37813e-08 2.15281e-09 1.19364e-09)
(5.18908e-08 -3.17342e-08 -2.66085e-10)
(1.47646e-08 -6.35527e-08 4.65908e-10)
(8.23668e-09 -6.2812e-08 8.77703e-10)
(1.67725e-09 -6.59911e-08 1.78657e-09)
(-3.56059e-08 -3.70191e-08 2.08431e-09)
(2.50955e-08 7.52065e-09 -1.9165e-10)
(0 0 0)
(0 0 0)
(0 0 0)
(-2.42236e-08 7.22345e-09 -6.02297e-11)
(5.23645e-08 1.29005e-08 -4.17509e-10)
(6.13089e-09 6.51028e-09 -1.73384e-10)
(1.65467e-10 3.62875e-09 -9.42188e-11)
(-5.73217e-09 6.00262e-09 8.65738e-11)
(-5.02915e-08 1.1816e-08 5.35473e-11)
(5.53885e-08 1.0292e-08 -4.20603e-10)
(8.26697e-09 7.99007e-09 -9.90896e-11)
(5.53973e-10 6.34904e-09 6.87658e-11)
(-7.07517e-09 6.954e-09 3.63059e-10)
(-5.24472e-08 8.21813e-09 4.32677e-10)
(5.70188e-08 1.03367e-08 -4.94072e-10)
(8.85549e-09 9.43276e-09 -1.26802e-10)
(1.18257e-09 8.4233e-09 1.17672e-10)
(-6.40086e-09 7.89761e-09 4.99296e-10)
(-5.27586e-08 7.28153e-09 6.85607e-10)
(5.91824e-08 1.15515e-08 -8.14672e-10)
(9.43244e-09 1.07585e-08 -3.82904e-10)
(2.04938e-09 9.84168e-09 -7.17237e-11)
(-5.23733e-09 8.75004e-09 3.82835e-10)
(-5.31252e-08 7.55377e-09 6.51345e-10)
(6.28064e-08 1.28512e-08 -1.17518e-09)
(1.03622e-08 1.1874e-08 -6.77564e-10)
(3.14587e-09 1.08291e-08 -3.10801e-10)
(-3.96925e-09 9.40996e-09 2.07224e-10)
(-5.45002e-08 7.95883e-09 5.38276e-10)
(6.81984e-08 1.35837e-08 -1.15137e-09)
(1.15068e-08 1.23675e-08 -6.30611e-10)
(4.46266e-09 1.11164e-08 -2.27954e-10)
(-2.49638e-09 9.4666e-09 3.46516e-10)
(-5.72834e-08 7.8609e-09 7.6053e-10)
(7.52816e-08 6.46641e-09 -3.57589e-10)
(1.28886e-08 5.26338e-09 1.16673e-10)
(5.98041e-09 4.01022e-09 5.22294e-10)
(-9.06291e-10 2.03376e-09 1.14069e-09)
(-6.16465e-08 8.85102e-11 1.67735e-09)
(5.00321e-08 -3.26153e-08 9.20029e-10)
(1.42187e-08 -6.29275e-08 1.66026e-09)
(7.62348e-09 -6.1951e-08 1.99628e-09)
(9.89717e-10 -6.5284e-08 2.65318e-09)
(-3.49581e-08 -3.77496e-08 2.70153e-09)
(2.41282e-08 7.25944e-09 -1.17529e-10)
(0 0 0)
(0 0 0)
(0 0 0)
(-2.33133e-08 7.02694e-09 -2.88449e-11)
(5.03591e-08 1.22959e-08 -3.2069e-10)
(5.87015e-09 6.11162e-09 -1.23585e-10)
(1.12074e-10 3.31554e-09 -5.44716e-11)
(-5.59361e-09 5.66166e-09 5.49963e-11)
(-4.84639e-08 1.13711e-08 -1.03555e-12)
(5.33033e-08 9.42543e-09 -4.37256e-10)
(7.90847e-09 7.20366e-09 -1.51771e-10)
(4.33417e-10 5.62582e-09 -1.11236e-11)
(-6.9733e-09 6.25597e-09 1.67909e-10)
(-5.06705e-08 7.55601e-09 1.46885e-10)
(5.49034e-08 9.10056e-09 -5.33477e-10)
(8.4477e-09 8.24847e-09 -1.97227e-10)
(9.90741e-10 7.29041e-09 3.2599e-12)
(-6.38962e-09 6.81367e-09 2.39788e-10)
(-5.1086e-08 6.26613e-09 2.83628e-10)
(5.69999e-08 9.97508e-09 -6.89647e-10)
(8.96286e-09 9.23891e-09 -3.00441e-10)
(1.78932e-09 8.37e-09 -4.86603e-11)
(-5.29885e-09 7.33176e-09 2.39175e-10)
(-5.15155e-08 6.1945e-09 3.38383e-10)
(6.05287e-08 1.10254e-08 -7.86863e-10)
(9.82585e-09 1.00934e-08 -3.4492e-10)
(2.82452e-09 9.0922e-09 -4.98481e-11)
(-4.08545e-09 7.726e-09 2.83662e-10)
(-5.29127e-08 6.3354e-09 4.27534e-10)
(6.5853e-08 1.16138e-08 -5.61542e-10)
(1.09389e-08 1.04157e-08 -9.49554e-11)
(4.08832e-09 9.2109e-09 2.28767e-10)
(-2.68614e-09 7.60375e-09 6.02886e-10)
(-5.57273e-08 6.07339e-09 8.03904e-10)
(7.29904e-08 4.53275e-09 2.23917e-10)
(1.23404e-08 3.37547e-09 6.66272e-10)
(5.56097e-09 2.20089e-09 9.92443e-10)
(-1.20533e-09 2.2384e-10 1.39878e-09)
(-6.02205e-08 -1.68604e-09 1.68326e-09)
(4.85867e-08 -3.36739e-08 1.32577e-09)
(1.36433e-08 -6.30619e-08 1.97285e-09)
(7.16542e-09 -6.19381e-08 2.24807e-09)
(6.39994e-10 -6.53521e-08 2.68045e-09)
(-3.44281e-08 -3.86854e-08 2.60137e-09)
(2.35543e-08 7.08256e-09 -7.19392e-11)
(0 0 0)
(0 0 0)
(0 0 0)
(-2.27749e-08 6.8914e-09 -1.73155e-11)
(4.91472e-08 1.18779e-08 -2.1806e-10)
(5.691e-09 5.83786e-09 -8.8878e-11)
(8.00676e-11 3.09883e-09 -3.93438e-11)
(-5.48896e-09 5.42738e-09 2.28343e-11)
(-4.73634e-08 1.10583e-08 -2.04455e-11)
(5.20047e-08 8.81622e-09 -3.33083e-10)
(7.64578e-09 6.66385e-09 -1.35994e-10)
(3.58451e-10 5.13314e-09 -3.66783e-11)
(-6.87138e-09 5.77851e-09 6.48427e-11)
(-4.95682e-08 7.08734e-09 3.0213e-11)
(5.35622e-08 8.21347e-09 -4.13649e-10)
(8.13766e-09 7.40733e-09 -1.74717e-10)
(8.67853e-10 6.4893e-09 -3.41365e-11)
(-6.33453e-09 6.04534e-09 1.01466e-10)
(-5.00318e-08 5.53619e-09 9.86916e-11)
(5.56072e-08 8.80919e-09 -4.81686e-10)
(8.6052e-09 8.11673e-09 -2.047e-10)
(1.61864e-09 7.28485e-09 -2.92235e-11)
(-5.2904e-09 6.28448e-09 1.38551e-10)
(-5.05011e-08 5.18704e-09 1.68599e-10)
(5.90712e-08 9.65291e-09 -4.65523e-10)
(9.4204e-09 8.75551e-09 -1.53242e-10)
(2.60953e-09 7.78804e-09 5.15194e-11)
(-4.11697e-09 6.46005e-09 2.48947e-10)
(-5.19186e-08 5.11251e-09 3.0878e-10)
(6.43439e-08 1.01358e-08 -2.18382e-10)
(1.05077e-08 8.95518e-09 1.11566e-10)
(3.83418e-09 7.78496e-09 3.35829e-10)
(-2.76948e-09 6.20911e-09 5.59944e-10)
(-5.47552e-08 4.73051e-09 6.57564e-10)
(7.1498e-08 3.07757e-09 3.90748e-10)
(1.19152e-08 1.95444e-09 7.08099e-10)
(5.2732e-09 8.33691e-10 9.34292e-10)
(-1.36154e-09 -1.1396e-09 1.1795e-09)
(-5.93236e-08 -3.02334e-09 1.33025e-09)
(4.7594e-08 -3.4601e-08 1.18126e-09)
(1.31957e-08 -6.34349e-08 1.64665e-09)
(6.84899e-09 -6.2223e-08 1.84094e-09)
(4.4813e-10 -6.56764e-08 2.10074e-09)
(-3.40686e-08 -3.95219e-08 2.00202e-09)
(2.32487e-08 6.98084e-09 -3.50881e-11)
(0 0 0)
(0 0 0)
(0 0 0)
(-2.24887e-08 6.81254e-09 -9.07506e-12)
(4.84975e-08 1.16286e-08 -1.10652e-10)
(5.5911e-09 5.67085e-09 -4.84277e-11)
(6.30803e-11 2.96435e-09 -2.31771e-11)
(-5.42898e-09 5.28315e-09 5.29209e-12)
(-4.67747e-08 1.08683e-08 -1.63516e-11)
(5.12988e-08 8.44523e-09 -1.75873e-10)
(7.49453e-09 6.33704e-09 -7.85388e-11)
(3.17653e-10 4.83494e-09 -2.80418e-11)
(-6.80794e-09 5.48822e-09 1.82778e-11)
(-4.89705e-08 6.79761e-09 -1.91167e-12)
(5.28241e-08 7.6759e-09 -2.1925e-10)
(7.95444e-09 6.90027e-09 -9.90652e-11)
(7.9963e-10 6.0072e-09 -2.75847e-11)
(-6.29307e-09 5.58166e-09 3.45353e-11)
(-4.94542e-08 5.09146e-09 2.72605e-11)
(5.48362e-08 8.1014e-09 -2.42909e-10)
(8.39205e-09 7.43611e-09 -1.0287e-10)
(1.5223e-09 6.62719e-09 -1.37482e-11)
(-5.27449e-09 5.64907e-09 6.3817e-11)
(-4.99445e-08 4.57441e-09 7.16293e-11)
(5.82626e-08 8.81606e-09 -2.11619e-10)
(9.17904e-09 7.93953e-09 -5.40642e-11)
(2.48653e-09 6.99278e-09 4.9745e-11)
(-4.12565e-09 5.68779e-09 1.41946e-10)
(-5.13755e-08 4.3665e-09 1.64751e-10)
(6.35046e-08 9.23218e-09 -6.00039e-11)
(1.02506e-08 8.06247e-09 1.06364e-10)
(3.68724e-09 6.91302e-09 2.19929e-10)
(-2.80988e-09 5.35658e-09 3.25469e-10)
(-5.42267e-08 3.90946e-09 3.67431e-10)
(7.06638e-08 2.18071e-09 2.69405e-10)
(1.16599e-08 1.07694e-09 4.30091e-10)
(5.10556e-09 -1.3121e-11 5.44684e-10)
(-1.44496e-09 -1.98189e-09 6.60691e-10)
(-5.88366e-08 -3.84796e-09 7.28904e-10)
(4.70274e-08 -3.52157e-08 6.7898e-10)
(1.29273e-08 -6.37526e-08 9.18718e-10)
(6.66372e-09 -6.24943e-08 1.01813e-09)
(3.42168e-10 -6.59643e-08 1.14047e-09)
(-3.38727e-08 -4.0081e-08 1.08032e-09)
(1.8136e-08 7.50821e-09 0)
(1.99792e-09 2.62762e-09 0)
(-6.0004e-12 9.1977e-10 0)
(-1.99769e-09 2.54913e-09 0)
(-1.76252e-08 7.32415e-09 0)
(2.9413e-08 9.87895e-09 0)
(5.5594e-09 5.61445e-09 0)
(5.77702e-11 2.91848e-09 0)
(-5.40984e-09 5.23417e-09 0)
(-2.84695e-08 9.22634e-09 0)
(3.22047e-08 7.91333e-09 0)
(7.44595e-09 6.22685e-09 0)
(3.04729e-10 4.73429e-09 0)
(-6.78724e-09 5.39003e-09 0)
(-3.07039e-08 6.4789e-09 0)
(3.31884e-08 7.39047e-09 0)
(7.89484e-09 6.73043e-09 0)
(7.77795e-10 5.84579e-09 0)
(-6.27888e-09 5.42617e-09 0)
(-3.0691e-08 5.13894e-09 0)
(3.43819e-08 7.71399e-09 0)
(8.32228e-09 7.20853e-09 0)
(1.4912e-09 6.40734e-09 0)
(-5.26841e-09 5.43653e-09 0)
(-3.04081e-08 4.64069e-09 0)
(3.64979e-08 8.28948e-09 0)
(9.09996e-09 7.66639e-09 0)
(2.44654e-09 6.72658e-09 0)
(-4.12785e-09 5.42927e-09 0)
(-3.0572e-08 4.406e-09 0)
(3.96902e-08 8.57877e-09 0)
(1.01663e-08 7.76302e-09 0)
(3.63921e-09 6.62044e-09 0)
(-2.82283e-09 5.07061e-09 0)
(-3.13978e-08 3.91607e-09 0)
(4.40946e-08 1.49206e-09 0)
(1.15761e-08 7.80792e-10 0)
(5.05054e-09 -2.99361e-10 0)
(-1.47227e-09 -2.26621e-09 0)
(-3.31847e-08 -3.80185e-09 0)
(3.74974e-08 -2.55971e-08 0)
(1.26175e-08 -3.49702e-08 0)
(6.20489e-09 -3.47902e-08 0)
(-2.59153e-10 -3.766e-08 0)
(-2.49667e-08 -3.04283e-08 0)
)
;

boundaryField
{
    interface
    {
        type            calculated;
    }
    symmetry
    {
        type            symmetry;
    }
    bottom
    {
        type            calculated;
    }
}


// ************************************************************************* //
