/*--------------------------------*- C++ -*----------------------------------*\
| =========                 |                                                 |
| \\      /  F ield         | OpenFOAM: The Open Source CFD Toolbox           |
|  \\    /   O peration     | Version:  v1912                                 |
|   \\  /    A nd           | Website:  www.openfoam.com                      |
|    \\/     M anipulation  |                                                 |
\*---------------------------------------------------------------------------*/
FoamFile
{
    version     2.0;
    format      ascii;
    class       volScalarField;
    location    "0.25/solid";
    object      sigmaHyd;
}
// * * * * * * * * * * * * * * * * * * * * * * * * * * * * * * * * * * * * * //

dimensions      [1 -1 -2 0 0 0 0];


internalField   nonuniform List<scalar> 
256
(
-734558
-364134
-362453
-723660
-880577
-471270
-469599
-868533
-884296
-477341
-475574
-871562
-890817
-479619
-477735
-877546
-910466
-487556
-485600
-896881
-949880
-507205
-505250
-936347
-1.06405e+06
-591653
-589599
-1.05088e+06
-1.62843e+06
-1.123e+06
-1.11796e+06
-1.60884e+06
-326158
-21961.3
-23648.2
-322397
-425027
-79615.8
-81381.1
-420650
-430366
-89894.9
-91631.7
-425555
-433538
-89896.7
-91592.1
-428351
-443317
-87378
-89047.7
-437821
-465235
-86678.5
-88351.1
-459615
-550150
-134383
-135881
-544530
-1.06419e+06
-591657
-589529
-1.0508e+06
-265006
2002.78
301.919
-260592
-340771
-32475.7
-34343.8
-336246
-345062
-41456.9
-43323.6
-340253
-348851
-42390.5
-44235.1
-343729
-359059
-40637.9
-42468.1
-353633
-381369
-40390.5
-42221.4
-375742
-465141
-86331.4
-87957.6
-459311
-949983
-506946
-504843
-935950
-247355
-1605.71
-3152.34
-242342
-316892
-31115
-32863.6
-312080
-320312
-38776.4
-40555.4
-315350
-324393
-39996.6
-41774.8
-319194
-335304
-39165.2
-40941.6
-329837
-358713
-40237.7
-42018.6
-353029
-442705
-86391.1
-87958.5
-436720
-909875
-486429
-484224
-895393
-237530
-3950.47
-5375.21
-232108
-304649
-32098.9
-33749.8
-299634
-307692
-39113.3
-40819
-302620
-311913
-40399
-42122.2
-306669
-323229
-40086.1
-41819.7
-317757
-347253
-41957.6
-43701.8
-341572
-431221
-88232.4
-89761.8
-425196
-887512
-476373
-474109
-872818
-231732
-5264.39
-6601.46
-226019
-297548
-32797.3
-34377.6
-292367
-300438
-39528
-41178.8
-295258
-304748
-40845.1
-42526.7
-299441
-316296
-40815.5
-42516.9
-310793
-340644
-43133.4
-44851.2
-334947
-424507
-89463.4
-90968.2
-418450
-873977
-470465
-468168
-859155
-228519
-6048.42
-7328.64
-222618
-293610
-33231.3
-34765.1
-288314
-296442
-39835.7
-41449.3
-291178
-300810
-41176.3
-42828.7
-295446
-312485
-41298.7
-42977.3
-306948
-337000
-43856
-45555.4
-331282
-420770
-90213.2
-91701.7
-414685
-866199
-467102
-464785
-851298
-227090
-6430.04
-7682.32
-221098
-291854
-33445.7
-34956.5
-286500
-294669
-40000.2
-41594.8
-289361
-299066
-41353.9
-42991.1
-293670
-310798
-41543.6
-43210.2
-305240
-335385
-44206.3
-45895.9
-329651
-419102
-90575.1
-92055.2
-413001
-862641
-465568
-463241
-847702
)
;

boundaryField
{
    interface
    {
        type            zeroGradient;
    }
    symmetry
    {
        type            symmetry;
    }
    bottom
    {
        type            zeroGradient;
    }
}


// ************************************************************************* //
