/*--------------------------------*- C++ -*----------------------------------*\
| =========                 |                                                 |
| \\      /  F ield         | OpenFOAM: The Open Source CFD Toolbox           |
|  \\    /   O peration     | Version:  v1912                                 |
|   \\  /    A nd           | Website:  www.openfoam.com                      |
|    \\/     M anipulation  |                                                 |
\*---------------------------------------------------------------------------*/
FoamFile
{
    version     2.0;
    format      ascii;
    class       volScalarField;
    location    "0.25/solid";
    object      sigmaEq;
}
// * * * * * * * * * * * * * * * * * * * * * * * * * * * * * * * * * * * * * //

dimensions      [1 -1 -2 0 0 0 0];


internalField   nonuniform List<scalar> 
256
(
535118
435026
431279
520839
377263
369091
364898
363765
390924
370358
366086
377815
410920
381234
377006
398160
431970
398960
394767
419416
455958
424009
419835
443547
433149
431854
427931
421864
34004.7
470049
466561
31917.6
387185
83039.7
81358.3
371607
327060
73980.9
72065.6
312118
330536
62497.3
60819.5
315732
340530
55369.5
53857.8
325679
355874
54522.5
53089
340880
377859
52352.8
51017.3
362807
382538
12098.2
11938.8
368538
433024
431943
428128
422072
349684
53096.2
51553.8
335037
316011
63269.6
61131.2
301183
321363
59264.4
57200.6
306285
330456
53778.4
51759.1
315133
344748
52102.3
50077.3
329139
366417
50345.3
48366.8
350623
377755
51181.7
50201.3
362921
455799
424201
420232
444154
322790
47370.2
45973.9
309295
294568
59581.6
57685.7
280572
301293
58023
56110.8
286819
310303
53565.4
51653.1
295447
323836
51760.2
49829.2
308610
344448
49882.8
48006.5
328973
355653
51170.8
50318.4
341086
432650
399661
395792
421436
306937
44384.3
43083.7
294327
280207
55859.2
54195
266941
287469
54865.5
53155.5
273611
296494
50776.2
49036
282155
309621
48782.1
47003.2
294842
329558
46588.3
44851.6
314475
340224
46667.5
46017.1
326015
414957
382935
379161
404204
297377
42399.6
41178
285379
271318
53065.5
51570.8
258578
278716
52068.1
50521.7
265326
287705
48029.3
46438.7
273771
300597
45878
44227.9
286169
320141
43525.5
41894.5
305360
330380
42809.3
42327.1
316446
403564
372605
368901
393175
291807
41120.7
39957.1
280191
266126
51288.2
49905.7
253725
273531
50200.3
48764.9
260450
282467
46127.5
44642.2
268807
295220
43866.3
42305.6
281029
314542
41459.3
39896.7
299964
324509
40380.7
40013.7
310758
396759
366644
362985
386620
289220
40488.6
39355.9
277788
263720
50437
49111.2
251485
271110
49296.9
47918.1
258183
280012
45196.7
43765.7
266489
292699
42880.7
41366.1
278627
311921
40460.3
38931.7
297444
321756
39260.9
38952.1
308098
393569
363910
360273
383556
)
;

boundaryField
{
    interface
    {
        type            calculated;
        value           nonuniform List<scalar> 
192
(
742849
573861
592216
618551
648052
685825
687962
364953
667686
589370
598257
617525
645685
688606
726508
687909
601240
550644
560729
578524
605167
647073
688738
685902
554574
510461
521742
539199
564868
605366
646242
649267
527362
485357
497157
514547
539738
579375
619338
623818
511140
470195
482172
499515
524444
563559
602815
607783
501787
461438
473463
490763
515540
554347
593136
598279
497472
457399
469431
486705
511411
550073
588633
593836
778477
613544
631738
657919
687376
725577
731484
440314
753198
667108
674237
694437
724837
770744
812131
765149
746400
659640
666536
686710
717115
763015
804573
759180
758842
594370
612529
638851
668406
706593
713047
429724
722975
554243
572795
599331
628975
667026
670963
360814
642802
564714
573410
592361
620161
662888
702061
671142
577147
525995
535562
552849
578959
620462
663116
667664
531836
486807
497354
514166
539204
579193
620897
631178
505684
462573
473519
490166
514651
553708
594398
606064
490187
448028
459089
475628
499795
538275
578189
590314
481285
439667
450744
467204
491184
529318
568723
581016
477186
435822
446893
463311
487202
525172
564326
576679
440414
731457
725623
688539
663179
647284
637885
633490
765232
812305
771216
726265
697980
680795
670864
666287
759262
804816
763624
718765
690555
673427
663533
658976
429810
713254
707240
670645
645710
630149
620977
616699
)
;
    }
    symmetry
    {
        type            symmetry;
    }
    bottom
    {
        type            calculated;
        value           nonuniform List<scalar> 
32
(
690224
447652
393644
364803
348171
337982
331996
329210
497810
99973.8
58171.5
51846.7
49285.2
47508.8
46326.2
45736
494248
97966.4
56257.6
50142.8
47711.3
46029.5
44913.5
44358.4
675508
431371
378712
351392
335879
326445
320925
318361
)
;
    }
}


// ************************************************************************* //
