/*--------------------------------*- C++ -*----------------------------------*\
| =========                 |                                                 |
| \\      /  F ield         | OpenFOAM: The Open Source CFD Toolbox           |
|  \\    /   O peration     | Version:  v1912                                 |
|   \\  /    A nd           | Website:  www.openfoam.com                      |
|    \\/     M anipulation  |                                                 |
\*---------------------------------------------------------------------------*/
FoamFile
{
    version     2.0;
    format      ascii;
    class       volScalarField;
    location    "0.25/solid";
    object      T;
}
// * * * * * * * * * * * * * * * * * * * * * * * * * * * * * * * * * * * * * //

dimensions      [0 0 0 1 0 0 0];


internalField   nonuniform List<scalar> 
256
(
291.949
292.461
292.463
291.951
291.827
292.395
292.397
291.829
291.814
292.389
292.391
291.818
291.801
292.383
292.385
291.805
291.778
292.371
292.374
291.782
291.736
292.349
292.351
291.74
291.621
292.269
292.272
291.625
290.845
291.553
291.557
290.855
292.507
292.942
292.941
292.504
292.446
292.933
292.932
292.442
292.44
292.932
292.932
292.436
292.433
292.932
292.931
292.429
292.421
292.931
292.93
292.418
292.399
292.928
292.927
292.395
292.32
292.888
292.887
292.316
291.621
292.269
292.272
291.625
292.573
292.972
292.971
292.57
292.52
292.968
292.967
292.515
292.514
292.967
292.966
292.51
292.508
292.967
292.966
292.504
292.497
292.966
292.966
292.493
292.475
292.964
292.963
292.471
292.399
292.928
292.927
292.395
291.736
292.349
292.351
291.74
292.594
292.974
292.973
292.59
292.542
292.97
292.969
292.537
292.536
292.969
292.969
292.531
292.53
292.969
292.968
292.525
292.519
292.969
292.968
292.515
292.497
292.966
292.966
292.493
292.421
292.931
292.93
292.418
291.778
292.371
292.374
291.782
292.604
292.974
292.974
292.6
292.553
292.97
292.97
292.548
292.548
292.97
292.969
292.542
292.541
292.97
292.969
292.536
292.53
292.969
292.968
292.525
292.508
292.967
292.966
292.504
292.433
292.932
292.931
292.429
291.801
292.382
292.385
291.805
292.61
292.975
292.974
292.605
292.559
292.971
292.97
292.554
292.554
292.97
292.969
292.548
292.547
292.97
292.969
292.542
292.536
292.969
292.969
292.531
292.514
292.967
292.966
292.51
292.439
292.932
292.931
292.435
291.813
292.389
292.391
291.817
292.613
292.975
292.974
292.608
292.563
292.971
292.97
292.557
292.557
292.97
292.97
292.552
292.551
292.97
292.969
292.545
292.539
292.97
292.969
292.535
292.517
292.967
292.967
292.513
292.443
292.932
292.932
292.439
291.821
292.392
292.394
291.824
292.614
292.975
292.974
292.61
292.564
292.971
292.97
292.558
292.559
292.97
292.97
292.553
292.552
292.97
292.969
292.547
292.541
292.97
292.969
292.536
292.519
292.967
292.967
292.514
292.445
292.932
292.932
292.44
291.824
292.393
292.396
291.828
)
;

boundaryField
{
    interface
    {
        type            fixedValue;
        value           nonuniform List<scalar> 
192
(
290.074
289.982
289.94
289.878
289.779
289.615
289.3
288.385
290.857
290.802
290.768
290.715
290.63
290.483
290.19
289.3
291.132
291.084
291.051
291.001
290.918
290.773
290.483
289.614
291.273
291.226
291.194
291.144
291.061
290.917
290.629
289.778
291.353
291.307
291.275
291.225
291.143
290.999
290.713
289.875
291.401
291.355
291.323
291.273
291.191
291.047
290.763
289.934
291.428
291.383
291.351
291.3
291.218
291.075
290.792
289.969
291.44
291.395
291.363
291.313
291.23
291.087
290.805
289.985
289.945
289.854
289.811
289.749
289.65
289.485
289.166
288.238
290.589
290.532
290.497
290.445
290.36
290.214
289.916
288.997
290.608
290.552
290.518
290.467
290.383
290.236
289.939
289.021
290.007
289.919
289.879
289.818
289.72
289.555
289.236
288.314
290.137
290.049
290.009
289.948
289.85
289.685
289.366
288.448
290.92
290.867
290.834
290.784
290.7
290.554
290.259
289.366
291.196
291.149
291.118
291.07
290.989
290.846
290.554
289.685
291.335
291.29
291.26
291.212
291.131
290.989
290.7
289.85
291.414
291.37
291.34
291.292
291.211
291.07
290.784
289.948
291.462
291.417
291.387
291.339
291.259
291.117
290.833
290.008
291.488
291.444
291.414
291.366
291.285
291.144
290.862
290.042
291.501
291.457
291.426
291.378
291.298
291.157
290.875
290.058
288.238
289.165
289.484
289.649
289.746
289.805
289.84
289.856
288.996
289.916
290.213
290.359
290.442
290.492
290.521
290.535
289.021
289.939
290.236
290.382
290.465
290.515
290.544
290.557
288.314
289.236
289.555
289.72
289.818
289.877
289.912
289.927
)
;
    }
    symmetry
    {
        type            symmetry;
    }
    bottom
    {
        type            fixedValue;
        value           uniform 293;
    }
}


// ************************************************************************* //
