/*--------------------------------*- C++ -*----------------------------------*\
| =========                 |                                                 |
| \\      /  F ield         | OpenFOAM: The Open Source CFD Toolbox           |
|  \\    /   O peration     | Version:  v1912                                 |
|   \\  /    A nd           | Website:  www.openfoam.com                      |
|    \\/     M anipulation  |                                                 |
\*---------------------------------------------------------------------------*/
FoamFile
{
    version     2.0;
    format      ascii;
    class       volVectorField;
    location    "0.25/solid";
    object      U;
}
// * * * * * * * * * * * * * * * * * * * * * * * * * * * * * * * * * * * * * //

dimensions      [0 1 -1 0 0 0 0];


internalField   nonuniform List<vector> 
256
(
(5.73528e-08 5.05913e-08 6.31636e-08)
(1.03929e-08 2.41486e-08 4.98951e-08)
(-1.08718e-08 2.37764e-08 4.97046e-08)
(-5.62352e-08 4.88385e-08 6.24917e-08)
(9.12964e-08 2.47199e-08 1.28026e-07)
(2.11928e-08 8.74716e-09 1.11409e-07)
(-2.1344e-08 8.3637e-09 1.11154e-07)
(-8.93998e-08 2.34634e-08 1.2716e-07)
(9.30776e-08 -1.44993e-08 1.70195e-07)
(2.22946e-08 -2.00377e-08 1.53878e-07)
(-2.20363e-08 -2.03255e-08 1.53624e-07)
(-9.08095e-08 -1.53195e-08 1.69321e-07)
(8.85978e-08 -5.35059e-08 2.07378e-07)
(2.0221e-08 -5.69748e-08 1.90088e-07)
(-1.97046e-08 -5.71552e-08 1.89834e-07)
(-8.60897e-08 -5.39995e-08 2.06488e-07)
(8.77712e-08 -9.43118e-08 2.45927e-07)
(1.94664e-08 -1.01607e-07 2.26632e-07)
(-1.88199e-08 -1.01695e-07 2.26374e-07)
(-8.51289e-08 -9.45384e-08 2.45021e-07)
(9.86289e-08 -1.41453e-07 2.9042e-07)
(2.37118e-08 -1.54454e-07 2.68709e-07)
(-2.30355e-08 -1.54475e-07 2.6845e-07)
(-9.59512e-08 -1.41474e-07 2.89522e-07)
(1.32517e-07 -2.09944e-07 3.45949e-07)
(3.60611e-08 -2.19289e-07 3.22691e-07)
(-3.54872e-08 -2.19278e-07 3.22419e-07)
(-1.29857e-07 -2.09855e-07 3.45062e-07)
(1.88092e-07 -3.38492e-07 4.06071e-07)
(4.97324e-08 -3.1686e-07 3.8437e-07)
(-4.95573e-08 -3.16652e-07 3.84027e-07)
(-1.85421e-07 -3.3791e-07 4.05083e-07)
(2.52897e-08 1.14274e-08 1.99407e-08)
(4.049e-09 -5.11481e-09 2.48255e-08)
(-4.22136e-09 -5.31356e-09 2.47855e-08)
(-2.42148e-08 1.01689e-08 1.97809e-08)
(4.19629e-08 -1.43931e-08 6.65526e-08)
(9.42491e-09 -2.50638e-08 7.57033e-08)
(-9.06693e-09 -2.5358e-08 7.55974e-08)
(-4.00777e-08 -1.54207e-08 6.62094e-08)
(4.16922e-08 -4.73943e-08 1.07816e-07)
(9.60518e-09 -5.13969e-08 1.18389e-07)
(-8.76878e-09 -5.16555e-08 1.18268e-07)
(-3.93916e-08 -4.81525e-08 1.07428e-07)
(3.73453e-08 -8.33179e-08 1.44745e-07)
(7.73703e-09 -8.63088e-08 1.55312e-07)
(-6.60596e-09 -8.64854e-08 1.55192e-07)
(-3.47668e-08 -8.38148e-08 1.44348e-07)
(3.6059e-08 -1.22357e-07 1.81498e-07)
(7.06956e-09 -1.29253e-07 1.91496e-07)
(-5.78727e-09 -1.2935e-07 1.91377e-07)
(-3.33116e-08 -1.22621e-07 1.8109e-07)
(4.56749e-08 -1.65187e-07 2.20637e-07)
(1.11096e-08 -1.77843e-07 2.30009e-07)
(-9.78953e-09 -1.77882e-07 2.29888e-07)
(-4.28564e-08 -1.6527e-07 2.20215e-07)
(7.78911e-08 -2.17506e-07 2.58863e-07)
(2.30187e-08 -2.26601e-07 2.67972e-07)
(-2.17962e-08 -2.26622e-07 2.67838e-07)
(-7.50415e-08 -2.17504e-07 2.58405e-07)
(1.32661e-07 -3.04415e-07 2.77473e-07)
(3.61985e-08 -2.81265e-07 2.86852e-07)
(-3.5353e-08 -2.81138e-07 2.86695e-07)
(-1.29725e-07 -3.03962e-07 2.76951e-07)
(7.34503e-09 -6.70299e-10 1.14437e-08)
(-1.38993e-09 -1.12786e-08 1.81917e-08)
(1.28473e-09 -1.14403e-08 1.81565e-08)
(-6.29314e-09 -1.83566e-09 1.13313e-08)
(1.14523e-08 -3.31625e-08 4.6326e-08)
(-1.15552e-09 -3.96945e-08 5.82699e-08)
(1.67299e-09 -3.99497e-08 5.81818e-08)
(-9.55174e-09 -3.41016e-08 4.60715e-08)
(9.24871e-09 -6.70363e-08 8.31432e-08)
(-2.00579e-09 -6.9648e-08 9.64746e-08)
(3.06579e-09 -6.98871e-08 9.63635e-08)
(-6.87928e-09 -6.77599e-08 8.28228e-08)
(5.39334e-09 -1.008e-07 1.18171e-07)
(-3.69251e-09 -1.03641e-07 1.31591e-07)
(5.09368e-09 -1.03815e-07 1.31473e-07)
(-2.69998e-09 -1.01303e-07 1.17825e-07)
(4.44604e-09 -1.34934e-07 1.51712e-07)
(-4.23379e-09 -1.41947e-07 1.64882e-07)
(5.82136e-09 -1.42051e-07 1.64762e-07)
(-1.54322e-09 -1.35227e-07 1.5135e-07)
(1.39814e-08 -1.68437e-07 1.83005e-07)
(-3.44209e-10 -1.81167e-07 1.95939e-07)
(1.99907e-09 -1.81219e-07 1.95816e-07)
(-1.09648e-08 -1.68565e-07 1.82624e-07)
(4.55875e-08 -2.05445e-07 2.06098e-07)
(1.11442e-08 -2.14804e-07 2.1899e-07)
(-9.5616e-09 -2.14845e-07 2.18858e-07)
(-4.24892e-08 -2.05496e-07 2.05686e-07)
(9.87028e-08 -2.74976e-07 2.08885e-07)
(2.38832e-08 -2.53392e-07 2.22152e-07)
(-2.26675e-08 -2.53285e-07 2.22008e-07)
(-9.5467e-08 -2.7453e-07 2.08425e-07)
(1.2876e-09 -4.30813e-09 1.00791e-08)
(-3.25907e-09 -1.20311e-08 1.40544e-08)
(3.16487e-09 -1.21899e-08 1.40303e-08)
(-2.37627e-10 -5.46966e-09 1.00087e-08)
(3.06293e-10 -4.00454e-08 3.76456e-08)
(-5.26419e-09 -4.44491e-08 4.47309e-08)
(5.82862e-09 -4.46967e-08 4.46721e-08)
(1.61863e-09 -4.0974e-08 3.74837e-08)
(-2.81811e-09 -7.54234e-08 6.80028e-08)
(-6.64049e-09 -7.73001e-08 7.58837e-08)
(7.79119e-09 -7.75337e-08 7.58056e-08)
(5.25225e-09 -7.61439e-08 6.77866e-08)
(-6.10163e-09 -1.07695e-07 9.79119e-08)
(-8.13081e-09 -1.10569e-07 1.05758e-07)
(9.66502e-09 -1.10743e-07 1.05671e-07)
(8.90078e-09 -1.08208e-07 9.76656e-08)
(-6.28965e-09 -1.37181e-07 1.2563e-07)
(-8.41226e-09 -1.44431e-07 1.33219e-07)
(1.01708e-08 -1.44541e-07 1.33128e-07)
(9.33737e-09 -1.37495e-07 1.25364e-07)
(3.76278e-09 -1.63414e-07 1.48733e-07)
(-4.43954e-09 -1.76358e-07 1.56084e-07)
(6.29975e-09 -1.76419e-07 1.55989e-07)
(-5.61609e-10 -1.6357e-07 1.48449e-07)
(3.51695e-08 -1.92697e-07 1.62563e-07)
(6.82689e-09 -2.02624e-07 1.69853e-07)
(-5.01098e-09 -2.02675e-07 1.69751e-07)
(-3.18455e-08 -1.9278e-07 1.62253e-07)
(8.69678e-08 -2.56915e-07 1.61767e-07)
(1.92975e-08 -2.37663e-07 1.69508e-07)
(-1.78377e-08 -2.3756e-07 1.69399e-07)
(-8.34701e-08 -2.56471e-07 1.61428e-07)
(-4.06878e-11 -5.51855e-09 8.76119e-09)
(-3.3956e-09 -1.20453e-08 1.05673e-08)
(3.30238e-09 -1.2205e-08 1.0554e-08)
(1.09052e-09 -6.68358e-09 8.72552e-09)
(-2.01219e-09 -4.17467e-08 3.02534e-08)
(-5.79369e-09 -4.53443e-08 3.33715e-08)
(6.37277e-09 -4.55937e-08 3.33381e-08)
(3.94935e-09 -4.26842e-08 3.01663e-08)
(-5.11389e-09 -7.72688e-08 5.3647e-08)
(-7.21512e-09 -7.89391e-08 5.70213e-08)
(8.40579e-09 -7.91744e-08 5.69748e-08)
(7.58437e-09 -7.79999e-08 5.3524e-08)
(-7.85029e-09 -1.08215e-07 7.68058e-08)
(-8.50589e-09 -1.11231e-07 8.00468e-08)
(1.01109e-08 -1.11408e-07 7.99924e-08)
(1.07157e-08 -1.08742e-07 7.66579e-08)
(-7.35261e-09 -1.34644e-07 9.7695e-08)
(-8.5418e-09 -1.42124e-07 1.00694e-07)
(1.04025e-08 -1.42238e-07 1.00635e-07)
(1.04982e-08 -1.34976e-07 9.7528e-08)
(3.18444e-09 -1.57059e-07 1.139e-07)
(-4.44154e-09 -1.70209e-07 1.16692e-07)
(6.43315e-09 -1.70276e-07 1.16627e-07)
(1.46665e-10 -1.5724e-07 1.13715e-07)
(3.44449e-08 -1.83532e-07 1.22548e-07)
(6.70524e-09 -1.93951e-07 1.25294e-07)
(-4.73327e-09 -1.9401e-07 1.25225e-07)
(-3.09587e-08 -1.83648e-07 1.22344e-07)
(8.53733e-08 -2.45903e-07 1.21535e-07)
(1.90369e-08 -2.2846e-07 1.24642e-07)
(-1.74037e-08 -2.28366e-07 1.24573e-07)
(-8.16824e-08 -2.4549e-07 1.21319e-07)
(-1.11148e-10 -5.8717e-09 6.7614e-09)
(-3.15196e-09 -1.19443e-08 7.49793e-09)
(3.05636e-09 -1.21049e-08 7.49191e-09)
(1.15914e-09 -7.03902e-09 6.74731e-09)
(-1.80333e-09 -4.15229e-08 2.22631e-08)
(-5.36766e-09 -4.49233e-08 2.34173e-08)
(5.94774e-09 -4.51756e-08 2.3401e-08)
(3.74213e-09 -4.24693e-08 2.2224e-08)
(-4.50918e-09 -7.63561e-08 3.87444e-08)
(-6.63918e-09 -7.80735e-08 3.98875e-08)
(7.84347e-09 -7.8312e-08 3.98634e-08)
(6.99361e-09 -7.70988e-08 3.86844e-08)
(-6.78457e-09 -1.06159e-07 5.49016e-08)
(-7.75592e-09 -1.09342e-07 5.5892e-08)
(9.39368e-09 -1.09523e-07 5.58621e-08)
(9.6827e-09 -1.067e-07 5.48243e-08)
(-5.82105e-09 -1.30939e-07 6.91803e-08)
(-7.62315e-09 -1.38595e-07 6.99894e-08)
(9.53818e-09 -1.38713e-07 6.99549e-08)
(9.02133e-09 -1.31288e-07 6.90877e-08)
(5.00653e-09 -1.51806e-07 7.98482e-08)
(-3.43935e-09 -1.65092e-07 8.05202e-08)
(5.50665e-09 -1.65166e-07 8.04815e-08)
(-1.59739e-09 -1.5201e-07 7.97406e-08)
(3.61273e-08 -1.77517e-07 8.52906e-08)
(7.63152e-09 -1.88225e-07 8.59475e-08)
(-5.56364e-09 -1.88295e-07 8.59059e-08)
(-3.25382e-08 -1.77668e-07 8.51695e-08)
(8.65009e-08 -2.39034e-07 8.4644e-08)
(1.98873e-08 -2.22651e-07 8.55398e-08)
(-1.81376e-08 -2.2257e-07 8.55006e-08)
(-8.26799e-08 -2.38665e-07 8.45217e-08)
(-1.47523e-11 -5.90953e-09 4.24761e-09)
(-2.9617e-09 -1.18089e-08 4.53178e-09)
(2.86279e-09 -1.19702e-08 4.52968e-09)
(1.06021e-09 -7.0781e-09 4.24396e-09)
(-1.34599e-09 -4.08423e-08 1.36182e-08)
(-4.97888e-09 -4.42412e-08 1.40005e-08)
(5.55457e-09 -4.44956e-08 1.39939e-08)
(3.28163e-09 -4.17943e-08 1.36044e-08)
(-3.69488e-09 -7.48964e-08 2.3387e-08)
(-6.10548e-09 -7.67159e-08 2.37007e-08)
(7.31057e-09 -7.69571e-08 2.36902e-08)
(6.18141e-09 -7.56474e-08 2.33628e-08)
(-5.65136e-09 -1.03884e-07 3.2853e-08)
(-7.10053e-09 -1.07199e-07 3.30565e-08)
(8.74924e-09 -1.07382e-07 3.30425e-08)
(8.56175e-09 -1.04434e-07 3.28189e-08)
(-4.41813e-09 -1.27878e-07 4.11077e-08)
(-6.8706e-09 -1.35645e-07 4.12041e-08)
(8.80937e-09 -1.35768e-07 4.11871e-08)
(7.64386e-09 -1.2824e-07 4.10639e-08)
(6.55047e-09 -1.4824e-07 4.71721e-08)
(-2.64649e-09 -1.61598e-07 4.71972e-08)
(4.7512e-09 -1.61678e-07 4.71773e-08)
(-3.10082e-09 -1.48465e-07 4.71185e-08)
(3.75625e-08 -1.73845e-07 5.02298e-08)
(8.37626e-09 -1.84684e-07 5.02574e-08)
(-6.2563e-09 -1.84764e-07 5.0236e-08)
(-3.39156e-08 -1.74027e-07 5.01684e-08)
(8.75996e-08 -2.3494e-07 4.99092e-08)
(2.05866e-08 -2.19071e-07 5.00682e-08)
(-1.87667e-08 -2.19002e-07 5.00496e-08)
(-8.36997e-08 -2.34611e-07 4.98501e-08)
(3.6127e-11 -5.87844e-09 1.44634e-09)
(-2.87683e-09 -1.17147e-08 1.52156e-09)
(2.77567e-09 -1.18764e-08 1.52112e-09)
(1.00762e-09 -7.04758e-09 1.44594e-09)
(-1.11719e-09 -4.03714e-08 4.5812e-09)
(-4.79828e-09 -4.37941e-08 4.67053e-09)
(5.37016e-09 -4.40496e-08 4.6689e-09)
(3.04988e-09 -4.1326e-08 4.57824e-09)
(-3.28356e-09 -7.39617e-08 7.81471e-09)
(-5.85016e-09 -7.58462e-08 7.87339e-09)
(7.053e-09 -7.60889e-08 7.87055e-09)
(5.76887e-09 -7.47168e-08 7.80867e-09)
(-5.08261e-09 -1.02533e-07 1.09262e-08)
(-6.7851e-09 -1.05919e-07 1.09458e-08)
(8.43578e-09 -1.06104e-07 1.09418e-08)
(7.99608e-09 -1.03089e-07 1.0917e-08)
(-3.72797e-09 -1.2622e-07 1.3622e-08)
(-6.51175e-09 -1.3404e-07 1.36067e-08)
(8.45829e-09 -1.34165e-07 1.36017e-08)
(6.96285e-09 -1.2659e-07 1.36095e-08)
(7.29537e-09 -1.46454e-07 1.55905e-08)
(-2.27245e-09 -1.5984e-07 1.55537e-08)
(4.39157e-09 -1.59924e-07 1.55477e-08)
(-3.8292e-09 -1.4669e-07 1.55746e-08)
(3.82493e-08 -1.72088e-07 1.65817e-08)
(8.72676e-09 -1.8297e-07 1.6548e-08)
(-6.58459e-09 -1.83056e-07 1.65416e-08)
(-3.45768e-08 -1.72287e-07 1.65633e-08)
(8.8125e-08 -2.33013e-07 1.64877e-08)
(2.09142e-08 -2.17339e-07 1.64956e-08)
(-1.90617e-08 -2.17278e-07 1.64902e-08)
(-8.4188e-08 -2.32706e-07 1.64705e-08)
)
;

boundaryField
{
    interface
    {
        type            calculated;
        value           nonuniform List<vector> 
192
(
(4.35117e-08 8.77534e-08 5.46904e-08)
(7.17081e-08 3.3651e-08 1.14354e-07)
(7.38947e-08 -1.51741e-08 1.55788e-07)
(7.04496e-08 -5.48327e-08 1.93177e-07)
(7.01176e-08 -9.18042e-08 2.31907e-07)
(7.9871e-08 -1.30267e-07 2.76389e-07)
(1.09096e-07 -1.87579e-07 3.31618e-07)
(1.82142e-07 -3.23574e-07 3.91212e-07)
(-5.80277e-09 2.82404e-08 7.43944e-09)
(7.17754e-09 -1.02926e-08 4.65922e-08)
(6.55054e-09 -4.85489e-08 8.68596e-08)
(2.24121e-09 -8.47265e-08 1.23945e-07)
(5.42144e-10 -1.20274e-07 1.60667e-07)
(8.23069e-09 -1.54729e-07 1.99476e-07)
(3.51295e-08 -1.9576e-07 2.3713e-07)
(1.09293e-07 -2.90017e-07 2.55126e-07)
(-2.28777e-08 4.02891e-09 5.4438e-09)
(-1.97965e-08 -3.26868e-08 3.59124e-08)
(-2.22286e-08 -6.85513e-08 7.20161e-08)
(-2.61356e-08 -1.02e-07 1.0731e-07)
(-2.73886e-08 -1.32787e-07 1.41125e-07)
(-1.9276e-08 -1.58152e-07 1.72527e-07)
(8.18715e-09 -1.84265e-07 1.95418e-07)
(8.00809e-08 -2.6087e-07 1.97461e-07)
(-2.9028e-08 -3.90978e-09 8.2331e-09)
(-3.01048e-08 -4.1072e-08 3.42799e-08)
(-3.33221e-08 -7.70256e-08 6.44124e-08)
(-3.66161e-08 -1.08563e-07 9.46013e-08)
(-3.69977e-08 -1.34715e-07 1.2268e-07)
(-2.80962e-08 -1.5305e-07 1.46034e-07)
(-2.77452e-10 -1.71896e-07 1.59777e-07)
(6.95902e-08 -2.42859e-07 1.58435e-07)
(-3.07687e-08 -6.03188e-09 8.41183e-09)
(-3.25896e-08 -4.30152e-08 2.97263e-08)
(-3.56957e-08 -7.87286e-08 5.32245e-08)
(-3.83636e-08 -1.08775e-07 7.66353e-08)
(-3.79567e-08 -1.31886e-07 9.78123e-08)
(-2.84268e-08 -1.4661e-07 1.14211e-07)
(-5.34331e-10 -1.62985e-07 1.22788e-07)
(6.78137e-08 -2.31836e-07 1.21418e-07)
(-3.11519e-08 -6.35043e-09 6.7681e-09)
(-3.26269e-08 -4.26226e-08 2.24299e-08)
(-3.52841e-08 -7.76017e-08 3.90993e-08)
(-3.7422e-08 -1.06487e-07 5.54515e-08)
(-3.64746e-08 -1.27992e-07 6.9914e-08)
(-2.65848e-08 -1.41319e-07 8.06898e-08)
(1.23714e-09 -1.57144e-07 8.60701e-08)
(6.85661e-08 -2.24975e-07 8.52006e-08)
(-3.12474e-08 -6.24982e-09 4.28455e-09)
(-3.23384e-08 -4.17625e-08 1.37898e-08)
(-3.4608e-08 -7.5973e-08 2.36934e-08)
(-3.63817e-08 -1.04065e-07 3.32786e-08)
(-3.512e-08 -1.24828e-07 4.16311e-08)
(-2.50607e-08 -1.37745e-07 4.77444e-08)
(2.66382e-09 -1.53583e-07 5.07604e-08)
(6.93704e-08 -2.20908e-07 5.03152e-08)
(-3.12877e-08 -6.14881e-09 1.45911e-09)
(-3.21913e-08 -4.12015e-08 4.63844e-09)
(-3.4264e-08 -7.49533e-08 7.91758e-09)
(-3.58587e-08 -1.02645e-07 1.10684e-08)
(-3.44555e-08 -1.23126e-07 1.37946e-08)
(-2.43325e-08 -1.3596e-07 1.57767e-08)
(3.33111e-09 -1.51881e-07 1.67535e-08)
(6.97412e-08 -2.19002e-07 1.66191e-08)
(5.827e-08 9.8389e-08 4.02965e-08)
(9.3976e-08 5.14781e-08 9.85391e-08)
(9.62e-08 5.33883e-09 1.4133e-07)
(9.13742e-08 -3.45727e-08 1.8015e-07)
(8.99558e-08 -7.35511e-08 2.19751e-07)
(1.00215e-07 -1.16447e-07 2.63322e-07)
(1.33867e-07 -1.81031e-07 3.13843e-07)
(1.90095e-07 -3.24131e-07 3.90167e-07)
(7.02583e-09 6.44749e-08 1.38493e-08)
(1.69724e-08 3.47431e-08 6.83134e-08)
(1.81499e-08 -3.67607e-10 1.09767e-07)
(1.58331e-08 -3.87862e-08 1.46231e-07)
(1.45761e-08 -8.1952e-08 1.82519e-07)
(1.82176e-08 -1.30439e-07 2.22239e-07)
(3.01769e-08 -1.90373e-07 2.69938e-07)
(4.42201e-08 -3.02232e-07 3.51397e-07)
(-7.72501e-09 6.39913e-08 1.3182e-08)
(-1.74086e-08 3.43438e-08 6.76859e-08)
(-1.81775e-08 -6.55327e-10 1.09104e-07)
(-1.56067e-08 -3.89677e-08 1.45533e-07)
(-1.42245e-08 -8.20412e-08 1.81791e-07)
(-1.7834e-08 -1.30463e-07 2.21472e-07)
(-2.98959e-08 -1.90384e-07 2.69102e-07)
(-4.43804e-08 -3.02035e-07 3.50363e-07)
(-5.73145e-08 9.62516e-08 3.81883e-08)
(-9.22897e-08 5.01709e-08 9.66056e-08)
(-9.41512e-08 4.51253e-09 1.39254e-07)
(-8.90963e-08 -3.50744e-08 1.77954e-07)
(-8.75532e-08 -7.37798e-08 2.17466e-07)
(-9.77799e-08 -1.16463e-07 2.60972e-07)
(-1.31448e-07 -1.80965e-07 3.11431e-07)
(-1.87687e-07 -3.23562e-07 3.87557e-07)
(-3.55648e-08 8.52475e-08 5.39451e-08)
(-6.29201e-08 3.21075e-08 1.13383e-07)
(-6.46246e-08 -1.61466e-08 1.54793e-07)
(-6.08561e-08 -5.54193e-08 1.92152e-07)
(-6.03212e-08 -9.20727e-08 2.30853e-07)
(-6.99282e-08 -1.30291e-07 2.75333e-07)
(-9.88442e-08 -1.87487e-07 3.30562e-07)
(-1.70094e-07 -3.2293e-07 3.90025e-07)
(1.22662e-08 2.62422e-08 7.29429e-09)
(-5.27098e-11 -1.16262e-08 4.62459e-08)
(1.06432e-09 -4.94799e-08 8.6444e-08)
(5.72617e-09 -8.53345e-08 1.23499e-07)
(7.67049e-09 -1.20598e-07 1.60192e-07)
(1.81517e-10 -1.54837e-07 1.98967e-07)
(-2.63625e-08 -1.95786e-07 2.36562e-07)
(-9.87061e-08 -2.89535e-07 2.54462e-07)
(2.89498e-08 2.12569e-09 5.336e-09)
(2.65452e-08 -3.39548e-08 3.56461e-08)
(2.95129e-08 -6.94725e-08 7.16606e-08)
(3.38257e-08 -1.02636e-07 1.06907e-07)
(3.5393e-08 -1.3316e-07 1.40687e-07)
(2.75757e-08 -1.58327e-07 1.7205e-07)
(5.85402e-10 -1.8437e-07 1.94886e-07)
(-6.94414e-08 -2.60409e-07 1.96861e-07)
(3.49514e-08 -5.81482e-09 8.16208e-09)
(3.67165e-08 -4.23463e-08 3.41076e-08)
(4.05061e-08 -7.79641e-08 6.41699e-08)
(4.42555e-08 -1.09229e-07 9.4311e-08)
(4.50147e-08 -1.35129e-07 1.22353e-07)
(3.6491e-08 -1.53274e-07 1.4567e-07)
(9.24335e-09 -1.72052e-07 1.5937e-07)
(-5.87017e-08 -2.42411e-07 1.57982e-07)
(3.66458e-08 -7.94346e-09 8.37582e-09)
(3.91617e-08 -4.43074e-08 2.96349e-08)
(4.28654e-08 -7.96911e-08 5.30882e-08)
(4.60264e-08 -1.0947e-07 7.6462e-08)
(4.60463e-08 -1.32333e-07 9.76066e-08)
(3.69551e-08 -1.46875e-07 1.13973e-07)
(9.70385e-09 -1.63189e-07 1.22517e-07)
(-5.66751e-08 -2.31432e-07 1.21121e-07)
(3.7028e-08 -8.26425e-09 6.75455e-09)
(3.9201e-08 -4.39277e-08 2.23905e-08)
(4.24705e-08 -7.85836e-08 3.90348e-08)
(4.51266e-08 -1.07206e-07 5.53625e-08)
(4.46396e-08 -1.28467e-07 6.9801e-08)
(3.52304e-08 -1.41619e-07 8.05523e-08)
(8.0985e-09 -1.57396e-07 8.59086e-08)
(-5.7224e-08 -2.24629e-07 8.50259e-08)
(3.71369e-08 -8.16348e-09 4.28165e-09)
(3.89256e-08 -4.30744e-08 1.37772e-08)
(4.18149e-08 -7.6967e-08 2.36688e-08)
(4.4121e-08 -1.04799e-07 3.32404e-08)
(4.33397e-08 -1.25324e-07 4.15784e-08)
(3.37871e-08 -1.38073e-07 4.76764e-08)
(6.78385e-09 -1.53876e-07 5.0678e-08)
(-5.78894e-08 -2.20613e-07 5.02271e-08)
(3.71874e-08 -8.06187e-09 1.45902e-09)
(3.87878e-08 -4.25161e-08 4.6361e-09)
(4.14833e-08 -7.5953e-08 7.91174e-09)
(4.36166e-08 -1.03387e-07 1.10583e-08)
(4.27033e-08 -1.23632e-07 1.37797e-08)
(3.30994e-08 -1.36304e-07 1.57566e-08)
(6.17278e-09 -1.52196e-07 1.67285e-08)
(-5.81896e-08 -2.18736e-07 1.65925e-08)
(1.90142e-07 -3.22653e-07 4.04732e-07)
(1.34071e-07 -2.72398e-07 2.61594e-07)
(1.00358e-07 -2.48043e-07 1.9701e-07)
(8.91815e-08 -2.31114e-07 1.54499e-07)
(8.80445e-08 -2.19542e-07 1.17065e-07)
(8.9433e-08 -2.11906e-07 8.19032e-08)
(9.06468e-08 -2.07246e-07 4.84038e-08)
(9.12106e-08 -2.05032e-07 1.60058e-08)
(4.42712e-08 -2.83948e-07 3.82785e-07)
(3.03779e-08 -2.28617e-07 2.70985e-07)
(1.84585e-08 -2.07128e-07 2.11251e-07)
(1.4457e-08 -1.93956e-07 1.63275e-07)
(1.46506e-08 -1.85293e-07 1.20889e-07)
(1.57694e-08 -1.79356e-07 8.31925e-08)
(1.66001e-08 -1.75518e-07 4.87403e-08)
(1.69785e-08 -1.73619e-07 1.60626e-08)
(-4.42958e-08 -2.83036e-07 3.82457e-07)
(-2.96804e-08 -2.279e-07 2.70853e-07)
(-1.73846e-08 -2.0647e-07 2.11114e-07)
(-1.31375e-08 -1.9332e-07 1.6317e-07)
(-1.31481e-08 -1.84668e-07 1.20825e-07)
(-1.41362e-08 -1.7874e-07 8.31597e-08)
(-1.48837e-08 -1.74908e-07 4.87265e-08)
(-1.52219e-08 -1.73012e-07 1.60591e-08)
(-1.87598e-07 -3.20399e-07 4.0377e-07)
(-1.31234e-07 -2.70343e-07 2.61106e-07)
(-9.72182e-08 -2.46027e-07 1.96553e-07)
(-8.57743e-08 -2.29119e-07 1.54168e-07)
(-8.44323e-08 -2.1757e-07 1.16867e-07)
(-8.56762e-08 -2.09963e-07 8.18019e-08)
(-8.67985e-08 -2.0533e-07 4.83605e-08)
(-8.7318e-08 -2.03133e-07 1.59944e-08)
)
;
    }
    symmetry
    {
        type            symmetry;
    }
    bottom
    {
        type            calculated;
        value           uniform (0 0 0);
    }
}


// ************************************************************************* //
