/*--------------------------------*- C++ -*----------------------------------*\
| =========                 |                                                 |
| \\      /  F ield         | OpenFOAM: The Open Source CFD Toolbox           |
|  \\    /   O peration     | Version:  v1912                                 |
|   \\  /    A nd           | Website:  www.openfoam.com                      |
|    \\/     M anipulation  |                                                 |
\*---------------------------------------------------------------------------*/
FoamFile
{
    version     2.0;
    format      ascii;
    class       volVectorField;
    location    "0.29/fluid";
    object      cellMotionU;
}
// * * * * * * * * * * * * * * * * * * * * * * * * * * * * * * * * * * * * * //

dimensions      [0 1 -1 0 0 0 0];


internalField   nonuniform List<vector> 
14592
(
(1.99243e-10 -5.24739e-10 3.93958e-10)
(5.54125e-10 -1.4687e-09 1.11453e-09)
(8.77522e-10 -2.34884e-09 1.82243e-09)
(1.17761e-09 -3.1982e-09 2.56152e-09)
(1.46421e-09 -4.04293e-09 3.37789e-09)
(1.74481e-09 -4.89051e-09 4.30682e-09)
(2.02818e-09 -5.73782e-09 5.3844e-09)
(2.3247e-09 -6.56617e-09 6.64539e-09)
(2.65116e-09 -7.32828e-09 8.12113e-09)
(3.03966e-09 -7.93394e-09 9.8434e-09)
(3.5648e-09 -8.20781e-09 1.18489e-08)
(4.40232e-09 -7.80156e-09 1.42073e-08)
(6.01618e-09 -5.90855e-09 1.71298e-08)
(9.62345e-09 -4.29912e-10 2.13026e-08)
(1.82374e-08 1.41547e-08 2.87268e-08)
(3.49783e-08 4.48792e-08 4.12129e-08)
(5.93879e-10 -1.55895e-09 1.17153e-09)
(1.65269e-09 -4.36348e-09 3.31533e-09)
(2.6152e-09 -6.98054e-09 5.41741e-09)
(3.51116e-09 -9.51282e-09 7.61952e-09)
(4.3652e-09 -1.20241e-08 1.00398e-08)
(5.20187e-09 -1.45499e-08 1.27926e-08)
(6.04625e-09 -1.70879e-08 1.59846e-08)
(6.92812e-09 -1.95872e-08 1.97151e-08)
(7.89065e-09 -2.19267e-08 2.40753e-08)
(9.0127e-09 -2.38686e-08 2.91441e-08)
(1.04614e-08 -2.499e-08 3.49929e-08)
(1.25947e-08 -2.454e-08 4.16926e-08)
(1.6247e-08 -2.11627e-08 4.93928e-08)
(2.31185e-08 -1.25228e-08 5.85145e-08)
(3.60748e-08 4.534e-09 6.98741e-08)
(5.48954e-08 2.77248e-08 8.23738e-08)
(9.78963e-10 -2.54687e-09 1.92049e-09)
(2.72415e-09 -7.13041e-09 5.43337e-09)
(4.31158e-09 -1.14166e-08 8.88032e-09)
(5.78903e-09 -1.5564e-08 1.24815e-08)
(7.19943e-09 -1.96917e-08 1.64383e-08)
(8.58319e-09 -2.38648e-08 2.09345e-08)
(9.98168e-09 -2.80954e-08 2.61447e-08)
(1.14414e-08 -3.23277e-08 3.22329e-08)
(1.30229e-08 -3.64062e-08 3.93459e-08)
(1.48245e-08 -4.00323e-08 4.76098e-08)
(1.7021e-08 -4.26942e-08 5.71057e-08)
(1.99528e-08 -4.3579e-08 6.7849e-08)
(2.43757e-08 -4.14598e-08 7.97941e-08)
(3.16704e-08 -3.49377e-08 9.29278e-08)
(4.40656e-08 -2.35322e-08 1.07413e-07)
(6.11725e-08 -1.16831e-08 1.22e-07)
(1.34841e-09 -3.45589e-09 2.62259e-09)
(3.75129e-09 -9.6812e-09 7.41837e-09)
(5.93813e-09 -1.55098e-08 1.21204e-08)
(7.97505e-09 -2.11681e-08 1.70289e-08)
(9.92171e-09 -2.68195e-08 2.24102e-08)
(1.1836e-08 -3.25742e-08 2.85174e-08)
(1.37764e-08 -3.84769e-08 3.55893e-08)
(1.58063e-08 -4.44934e-08 4.38503e-08)
(1.80013e-08 -5.04873e-08 5.35076e-08)
(2.04635e-08 -5.61766e-08 6.47362e-08)
(2.33159e-08 -6.10909e-08 7.76361e-08)
(2.68152e-08 -6.44731e-08 9.21942e-08)
(3.13509e-08 -6.52955e-08 1.0817e-07)
(3.76678e-08 -6.24604e-08 1.25092e-07)
(4.70763e-08 -5.56397e-08 1.42199e-07)
(5.95516e-08 -4.76107e-08 1.5716e-07)
(1.69532e-09 -4.25554e-09 3.26185e-09)
(4.71734e-09 -1.19263e-08 9.22613e-09)
(7.46774e-09 -1.91226e-08 1.50666e-08)
(1.00302e-08 -2.61269e-08 2.11481e-08)
(1.24827e-08 -3.31612e-08 2.7803e-08)
(1.49002e-08 -4.03826e-08 3.53405e-08)
(1.73602e-08 -4.78823e-08 4.40561e-08)
(1.99477e-08 -5.56762e-08 5.42326e-08)
(2.27602e-08 -6.36878e-08 6.61371e-08)
(2.59088e-08 -7.1724e-08 8.00079e-08)
(2.95205e-08 -7.94258e-08 9.60145e-08)
(3.37317e-08 -8.61867e-08 1.14172e-07)
(3.86893e-08 -9.10591e-08 1.34237e-07)
(4.45197e-08 -9.2668e-08 1.55466e-07)
(5.16238e-08 -8.93929e-08 1.76276e-07)
(6.0207e-08 -8.17674e-08 1.92785e-07)
(2.01459e-09 -4.91593e-09 3.82733e-09)
(5.60505e-09 -1.37821e-08 1.08204e-08)
(8.8721e-09 -2.21149e-08 1.76549e-08)
(1.19164e-08 -3.02566e-08 2.47545e-08)
(1.48308e-08 -3.8477e-08 3.24974e-08)
(1.77083e-08 -4.6987e-08 4.1242e-08)
(2.06472e-08 -5.59326e-08 5.133e-08)
(2.37582e-08 -6.5395e-08 6.30922e-08)
(2.71744e-08 -7.53891e-08 7.68539e-08)
(3.10501e-08 -8.58538e-08 9.29252e-08)
(3.55723e-08 -9.66229e-08 1.1158e-07)
(4.09494e-08 -1.07359e-07 1.33003e-07)
(4.73719e-08 -1.17369e-07 1.57185e-07)
(5.48536e-08 -1.25158e-07 1.83634e-07)
(6.31142e-08 -1.27479e-07 2.10583e-07)
(7.082e-08 -1.20504e-07 2.32053e-07)
(2.2999e-09 -5.40818e-09 4.30764e-09)
(6.39859e-09 -1.51686e-08 1.21731e-08)
(1.01259e-08 -2.4362e-08 1.98426e-08)
(1.3595e-08 -3.33763e-08 2.77793e-08)
(1.69136e-08 -4.25304e-08 3.64012e-08)
(2.01889e-08 -5.20816e-08 4.6098e-08)
(2.35383e-08 -6.22296e-08 5.7242e-08)
(2.70992e-08 -7.31244e-08 7.01969e-08)
(3.10445e-08 -8.4878e-08 8.53294e-08)
(3.55968e-08 -9.75784e-08 1.03012e-07)
(4.10655e-08 -1.11301e-07 1.23633e-07)
(4.78959e-08 -1.26112e-07 1.47596e-07)
(5.67586e-08 -1.42038e-07 1.75362e-07)
(6.85669e-08 -1.58793e-07 2.07331e-07)
(8.42855e-08 -1.74684e-07 2.4309e-07)
(1.01318e-07 -1.83875e-07 2.75775e-07)
(2.5471e-09 -5.70882e-09 4.69837e-09)
(7.08474e-09 -1.60202e-08 1.32691e-08)
(1.12063e-08 -2.57545e-08 2.16024e-08)
(1.50352e-08 -3.53368e-08 3.01903e-08)
(1.86867e-08 -4.51203e-08 3.9469e-08)
(2.22786e-08 -5.53995e-08 4.98453e-08)
(2.59406e-08 -6.64175e-08 6.17036e-08)
(2.98276e-08 -7.83796e-08 7.54165e-08)
(3.41415e-08 -9.14737e-08 9.13621e-08)
(3.91547e-08 -1.05901e-07 1.09933e-07)
(4.52738e-08 -1.21917e-07 1.31562e-07)
(5.31557e-08 -1.39929e-07 1.56789e-07)
(6.39542e-08 -1.60677e-07 1.86421e-07)
(7.98171e-08 -1.85606e-07 2.21807e-07)
(1.04766e-07 -2.1725e-07 2.65068e-07)
(1.39439e-07 -2.54054e-07 3.12334e-07)
(1.94789e-10 -5.34974e-10 3.74511e-10)
(5.41296e-10 -1.49733e-09 1.05973e-09)
(8.54019e-10 -2.39526e-09 1.73028e-09)
(1.14126e-09 -3.26298e-09 2.43101e-09)
(1.40893e-09 -4.12529e-09 3.20002e-09)
(1.6621e-09 -4.99347e-09 4.07245e-09)
(1.90453e-09 -5.86636e-09 5.08014e-09)
(2.13876e-09 -6.72828e-09 6.25231e-09)
(2.36826e-09 -7.53959e-09 7.61283e-09)
(2.60114e-09 -8.22566e-09 9.17945e-09)
(2.86098e-09 -8.64959e-09 1.0959e-08)
(3.228e-09 -8.55314e-09 1.29514e-08)
(3.87535e-09 -7.4174e-09 1.51507e-08)
(5.19697e-09 -4.07356e-09 1.75959e-08)
(7.67276e-09 3.8258e-09 2.02728e-08)
(1.03563e-08 1.71828e-08 2.19086e-08)
(5.81137e-10 -1.58892e-09 1.11403e-09)
(1.61437e-09 -4.44741e-09 3.14986e-09)
(2.54785e-09 -7.11627e-09 5.14463e-09)
(3.40486e-09 -9.69807e-09 7.22607e-09)
(4.2046e-09 -1.22637e-08 9.50822e-09)
(4.96232e-09 -1.4851e-08 1.20945e-08)
(5.68921e-09 -1.74628e-08 1.50796e-08)
(6.3931e-09 -2.00578e-08 1.8548e-08)
(7.08037e-09 -2.25339e-08 2.25693e-08)
(7.76526e-09 -2.46928e-08 2.71856e-08)
(8.4939e-09 -2.61992e-08 3.23949e-08)
(9.39567e-09 -2.65004e-08 3.81113e-08)
(1.07821e-08 -2.47231e-08 4.40977e-08)
(1.31678e-08 -1.96783e-08 4.98005e-08)
(1.68269e-08 -1.06847e-08 5.38753e-08)
(1.98087e-08 -1.38722e-09 5.37912e-08)
(9.58816e-10 -2.59503e-09 1.82566e-09)
(2.66395e-09 -7.2658e-09 5.16192e-09)
(4.20533e-09 -1.16331e-08 8.43008e-09)
(5.62246e-09 -1.58639e-08 1.1837e-08)
(6.9485e-09 -2.00791e-08 1.55686e-08)
(8.21023e-09 -2.43501e-08 1.97933e-08)
(9.42829e-09 -2.86962e-08 2.46671e-08)
(1.06165e-08 -3.30732e-08 3.03298e-08)
(1.17827e-08 -3.73494e-08 3.68958e-08)
(1.29309e-08 -4.12766e-08 4.44362e-08)
(1.40767e-08 -4.44455e-08 5.29383e-08)
(1.52919e-08 -4.62575e-08 6.22397e-08)
(1.67276e-08 -4.59736e-08 7.18704e-08)
(1.86528e-08 -4.3113e-08 8.08894e-08)
(2.10652e-08 -3.86801e-08 8.74996e-08)
(2.24458e-08 -3.67752e-08 8.9275e-08)
(1.32211e-09 -3.52086e-09 2.49233e-09)
(3.67439e-09 -9.8621e-09 7.04825e-09)
(5.80204e-09 -1.58008e-08 1.15062e-08)
(7.76212e-09 -2.15685e-08 1.61488e-08)
(9.60253e-09 -2.73368e-08 2.12247e-08)
(1.13641e-08 -3.32199e-08 2.69639e-08)
(1.30806e-08 -3.92689e-08 3.35799e-08)
(1.4777e-08 -4.54612e-08 4.12664e-08)
(1.64661e-08 -5.16822e-08 5.01876e-08)
(1.8139e-08 -5.7695e-08 6.04505e-08)
(1.97697e-08 -6.31128e-08 7.2068e-08)
(2.12653e-08 -6.73824e-08 8.4805e-08)
(2.24819e-08 -6.98639e-08 9.80796e-08)
(2.31086e-08 -7.0224e-08 1.10589e-07)
(2.25743e-08 -6.93516e-08 1.19946e-07)
(2.01798e-08 -6.99023e-08 1.22988e-07)
(1.66553e-09 -4.33474e-09 3.10081e-09)
(4.62909e-09 -1.21469e-08 8.7656e-09)
(7.31208e-09 -1.94763e-08 1.43032e-08)
(9.78808e-09 -2.66153e-08 2.00575e-08)
(1.21215e-08 -3.37899e-08 2.63348e-08)
(1.43697e-08 -4.11625e-08 3.34186e-08)
(1.65844e-08 -4.88291e-08 4.15737e-08)
(1.88105e-08 -5.68131e-08 5.1045e-08)
(2.10796e-08 -6.50514e-08 6.20474e-08)
(2.33992e-08 -7.33781e-08 7.47467e-08)
(2.57162e-08 -8.14913e-08 8.91916e-08)
(2.78586e-08 -8.89142e-08 1.05206e-07)
(2.93833e-08 -9.49816e-08 1.22164e-07)
(2.93793e-08 -9.89501e-08 1.3858e-07)
(2.64332e-08 -1.00531e-07 1.51458e-07)
(2.03132e-08 -1.01145e-07 1.56424e-07)
(1.98283e-09 -5.00632e-09 3.63803e-09)
(5.5116e-09 -1.40342e-08 1.02807e-08)
(8.70792e-09 -2.25199e-08 1.67621e-08)
(1.16618e-08 -3.08135e-08 2.3479e-08)
(1.44538e-08 -3.91923e-08 3.07835e-08)
(1.71593e-08 -4.78693e-08 3.90023e-08)
(1.98522e-08 -5.69927e-08 4.84423e-08)
(2.2606e-08 -6.66457e-08 5.93908e-08)
(2.54921e-08 -7.68461e-08 7.21128e-08)
(2.85703e-08 -8.75368e-08 8.68345e-08)
(3.18583e-08 -9.8568e-08 1.03689e-07)
(3.52579e-08 -1.09638e-07 1.2262e-07)
(3.83525e-08 -1.20167e-07 1.4316e-07)
(4.00029e-08 -1.29014e-07 1.63937e-07)
(3.78171e-08 -1.34115e-07 1.81689e-07)
(2.98118e-08 -1.33687e-07 1.90573e-07)
(2.26849e-09 -5.50683e-09 4.09544e-09)
(6.30557e-09 -1.54439e-08 1.15668e-08)
(9.96281e-09 -2.48035e-08 1.88403e-08)
(1.3344e-08 -3.39839e-08 2.63511e-08)
(1.65445e-08 -4.33085e-08 3.44855e-08)
(1.96566e-08 -5.30363e-08 4.36001e-08)
(2.27764e-08 -6.33664e-08 5.40293e-08)
(2.60095e-08 -7.44451e-08 6.60896e-08)
(2.94769e-08 -8.63757e-08 8.00799e-08)
(3.33228e-08 -9.92296e-08 9.62784e-08)
(3.77109e-08 -1.13053e-07 1.14901e-07)
(4.28146e-08 -1.2786e-07 1.36051e-07)
(4.87152e-08 -1.4357e-07 1.59539e-07)
(5.50952e-08 -1.59732e-07 1.84416e-07)
(6.0283e-08 -1.7463e-07 2.07657e-07)
(6.00258e-08 -1.83551e-07 2.21775e-07)
(2.51725e-09 -5.81224e-09 4.46682e-09)
(6.99678e-09 -1.63088e-08 1.26092e-08)
(1.10529e-08 -2.62179e-08 2.05138e-08)
(1.47999e-08 -3.59739e-08 2.8641e-08)
(1.83436e-08 -4.59342e-08 3.73963e-08)
(2.17891e-08 -5.6394e-08 4.7151e-08)
(2.52489e-08 -6.75937e-08 5.82502e-08)
(2.88534e-08 -7.97298e-08 7.10182e-08)
(3.27641e-08 -9.29735e-08 8.57625e-08)
(3.71947e-08 -1.07493e-07 1.02775e-07)
(4.24427e-08 -1.23488e-07 1.22309e-07)
(4.89482e-08 -1.4124e-07 1.44548e-07)
(5.73795e-08 -1.61216e-07 1.69515e-07)
(6.87631e-08 -1.84186e-07 1.96716e-07)
(8.42184e-08 -2.10869e-07 2.23792e-07)
(1.01257e-07 -2.37338e-07 2.42528e-07)
(1.89568e-10 -5.43673e-10 3.41514e-10)
(5.25672e-10 -1.52163e-09 9.6532e-10)
(8.26859e-10 -2.43433e-09 1.57624e-09)
(1.09839e-09 -3.31677e-09 2.21153e-09)
(1.34425e-09 -4.19478e-09 2.90729e-09)
(1.56562e-09 -5.08089e-09 3.69305e-09)
(1.76035e-09 -5.97735e-09 4.59595e-09)
(1.92245e-09 -6.87077e-09 5.63741e-09)
(2.03941e-09 -7.73472e-09 6.83444e-09)
(2.09231e-09 -8.51168e-09 8.18796e-09)
(2.05469e-09 -9.11338e-09 9.68052e-09)
(1.88306e-09 -9.39759e-09 1.1246e-08)
(1.50274e-09 -9.12687e-09 1.2743e-08)
(6.45736e-10 -7.90749e-09 1.38398e-08)
(-1.55446e-09 -5.18242e-09 1.37751e-08)
(-6.47071e-09 -1.23657e-09 1.11609e-08)
(5.65735e-10 -1.61436e-09 1.01528e-09)
(1.56934e-09 -4.51846e-09 2.87047e-09)
(2.46822e-09 -7.2305e-09 4.68449e-09)
(3.28028e-09 -9.85515e-09 6.57365e-09)
(4.01692e-09 -1.24664e-08 8.63828e-09)
(4.68267e-09 -1.51066e-08 1.09682e-08)
(5.27293e-09 -1.77831e-08 1.3642e-08)
(5.77002e-09 -2.0469e-08 1.67268e-08)
(6.13865e-09 -2.30828e-08 2.02644e-08)
(6.32086e-09 -2.5482e-08 2.42607e-08)
(6.23034e-09 -2.74383e-08 2.86455e-08)
(5.7461e-09 -2.86343e-08 3.32036e-08)
(4.67808e-09 -2.86862e-08 3.74338e-08)
(2.64741e-09 -2.73194e-08 4.02892e-08)
(-1.10862e-09 -2.49378e-08 3.98093e-08)
(-6.75409e-09 -2.35703e-08 3.44315e-08)
(9.34487e-10 -2.63604e-09 1.66389e-09)
(2.59288e-09 -7.3803e-09 4.70438e-09)
(4.07987e-09 -1.18167e-08 7.67671e-09)
(5.42651e-09 -1.61164e-08 1.07692e-08)
(6.65401e-09 -2.04041e-08 1.41452e-08)
(7.77301e-09 -2.47561e-08 1.79512e-08)
(8.7802e-09 -2.92e-08 2.23182e-08)
(9.65197e-09 -3.37042e-08 2.73548e-08)
(1.03356e-08 -3.81705e-08 3.31375e-08)
(1.07359e-08 -4.24083e-08 3.96803e-08)
(1.0698e-08 -4.61376e-08 4.68831e-08)
(9.97649e-09 -4.90088e-08 5.44135e-08)
(8.2246e-09 -5.07341e-08 6.15726e-08)
(4.91403e-09 -5.14872e-08 6.69855e-08)
(-5.09201e-10 -5.25516e-08 6.85271e-08)
(-7.17999e-09 -5.57319e-08 6.50718e-08)
(1.29094e-09 -3.57574e-09 2.27285e-09)
(3.58225e-09 -1.00154e-08 6.42284e-09)
(5.6403e-09 -1.60462e-08 1.04794e-08)
(7.51003e-09 -2.19046e-08 1.46933e-08)
(9.22511e-09 -2.7767e-08 1.92857e-08)
(1.08066e-08 -3.37519e-08 2.44564e-08)
(1.2259e-08 -3.99162e-08 3.03845e-08)
(1.35633e-08 -4.62515e-08 3.72242e-08)
(1.46613e-08 -5.26653e-08 4.50859e-08)
(1.54366e-08 -5.89753e-08 5.4012e-08)
(1.56586e-08 -6.49018e-08 6.38832e-08)
(1.49587e-08 -7.00923e-08 7.43559e-08)
(1.26856e-08 -7.42714e-08 8.45799e-08)
(7.91439e-09 -7.76027e-08 9.30256e-08)
(-1.76873e-10 -8.11657e-08 9.73462e-08)
(-9.84141e-09 -8.58822e-08 9.6001e-08)
(1.6292e-09 -4.4015e-09 2.82717e-09)
(4.52263e-09 -1.2333e-08 7.98955e-09)
(7.12531e-09 -1.97735e-08 1.30283e-08)
(9.49807e-09 -2.70211e-08 1.82519e-08)
(1.16894e-08 -3.43054e-08 2.39316e-08)
(1.37352e-08 -4.17916e-08 3.03136e-08)
(1.56565e-08 -4.95794e-08 3.76219e-08)
(1.74508e-08 -5.76962e-08 4.60502e-08)
(1.90792e-08 -6.60932e-08 5.57517e-08)
(2.04308e-08 -7.46303e-08 6.67979e-08)
(2.12694e-08 -8.3067e-08 7.91142e-08)
(2.11202e-08 -9.10511e-08 9.23405e-08)
(1.90863e-08 -9.81583e-08 1.05629e-07)
(1.36894e-08 -1.04055e-07 1.17322e-07)
(3.36577e-09 -1.08847e-07 1.24771e-07)
(-9.71e-09 -1.13041e-07 1.25671e-07)
(1.94387e-09 -5.08226e-09 3.31765e-09)
(5.39728e-09 -1.42459e-08 9.37148e-09)
(8.50798e-09 -2.28576e-08 1.52697e-08)
(1.13526e-08 -3.12726e-08 2.13676e-08)
(1.39958e-08 -3.97713e-08 2.79771e-08)
(1.64918e-08 -4.85669e-08 3.53823e-08)
(1.88839e-08 -5.78057e-08 4.38421e-08)
(2.12014e-08 -6.75679e-08 5.35864e-08)
(2.34464e-08 -7.78649e-08 6.48034e-08)
(2.55675e-08 -8.86358e-08 7.76061e-08)
(2.7404e-08 -9.97285e-08 9.19673e-08)
(2.85607e-08 -1.10854e-07 1.07582e-07)
(2.8153e-08 -1.21489e-07 1.23646e-07)
(2.4424e-08 -1.30685e-07 1.38461e-07)
(1.4758e-08 -1.3682e-07 1.49109e-07)
(-3.09303e-10 -1.3828e-07 1.52529e-07)
(2.22882e-09 -5.58934e-09 3.73466e-09)
(6.18971e-09 -1.56736e-08 1.05451e-08)
(9.76075e-09 -2.51695e-08 1.71648e-08)
(1.30331e-08 -3.448e-08 2.39844e-08)
(1.6087e-08 -4.39297e-08 3.13457e-08)
(1.8995e-08 -5.37758e-08 3.95589e-08)
(2.18261e-08 -6.42106e-08 4.89067e-08)
(2.4645e-08 -7.53674e-08 5.96408e-08)
(2.75128e-08 -8.73268e-08 7.19755e-08)
(3.0471e-08 -1.00123e-07 8.60534e-08)
(3.35209e-08 -1.13737e-07 1.01891e-07)
(3.65458e-08 -1.28067e-07 1.19241e-07)
(3.91336e-08 -1.42839e-07 1.37358e-07)
(4.02151e-08 -1.57311e-07 1.54485e-07)
(3.75914e-08 -1.69574e-07 1.67224e-07)
(2.95098e-08 -1.7571e-07 1.71356e-07)
(2.47887e-09 -5.89835e-09 4.07409e-09)
(6.88466e-09 -1.65487e-08 1.14967e-08)
(1.0858e-08 -2.65999e-08 1.8692e-08)
(1.45017e-08 -3.649e-08 2.60725e-08)
(1.79078e-08 -4.6577e-08 3.3997e-08)
(2.11645e-08 -5.71518e-08 4.2789e-08)
(2.43607e-08 -6.84441e-08 5.27397e-08)
(2.75932e-08 -8.06302e-08 6.41071e-08)
(3.09719e-08 -9.38464e-08 7.71097e-08)
(3.46261e-08 -1.08199e-07 9.18958e-08)
(3.87106e-08 -1.23778e-07 1.08489e-07)
(4.34062e-08 -1.4066e-07 1.26669e-07)
(4.88988e-08 -1.58913e-07 1.45712e-07)
(5.53578e-08 -1.78544e-07 1.63794e-07)
(6.28562e-08 -1.99092e-07 1.76887e-07)
(7.04402e-08 -2.16941e-07 1.78889e-07)
(1.84042e-10 -5.50672e-10 2.96239e-10)
(5.09629e-10 -1.54119e-09 8.37559e-10)
(7.9828e-10 -2.46567e-09 1.36554e-09)
(1.05415e-09 -3.35979e-09 1.91552e-09)
(1.27772e-09 -4.25052e-09 2.51485e-09)
(1.46684e-09 -5.15159e-09 3.18907e-09)
(1.61424e-09 -6.06654e-09 3.95881e-09)
(1.70574e-09 -6.98783e-09 4.84027e-09)
(1.7164e-09 -7.89525e-09 5.84172e-09)
(1.60618e-09 -8.75108e-09 6.95645e-09)
(1.30973e-09 -9.50328e-09 8.15306e-09)
(7.25969e-10 -1.00804e-08 9.36177e-09)
(-3.4377e-10 -1.03998e-08 1.04334e-08)
(-2.34349e-09 -1.03495e-08 1.11403e-08)
(-6.2854e-09 -9.75594e-09 1.11836e-08)
(-1.28222e-08 -8.38507e-09 1.04263e-08)
(5.49723e-10 -1.63491e-09 8.8103e-10)
(1.52209e-09 -4.57601e-09 2.48926e-09)
(2.38544e-09 -7.32261e-09 4.06109e-09)
(3.15101e-09 -9.98192e-09 5.69342e-09)
(3.82303e-09 -1.26296e-08 7.47233e-09)
(4.39555e-09 -1.53113e-08 9.47083e-09)
(4.84919e-09 -1.80405e-08 1.17511e-08)
(5.14389e-09 -2.07994e-08 1.4361e-08)
(5.21e-09 -2.35299e-08 1.73228e-08)
(4.93343e-09 -2.61316e-08 2.06167e-08)
(4.1391e-09 -2.84604e-08 2.41452e-08)
(2.57031e-09 -3.03511e-08 2.76802e-08)
(-1.43443e-10 -3.16621e-08 3.0773e-08)
(-4.49357e-09 -3.23739e-08 3.26629e-08)
(-1.07709e-08 -3.26861e-08 3.23942e-08)
(-1.71835e-08 -3.28444e-08 3.00714e-08)
(9.0916e-10 -2.66932e-09 1.44428e-09)
(2.51809e-09 -7.47338e-09 4.0803e-09)
(3.9488e-09 -1.19655e-08 6.65549e-09)
(5.22241e-09 -1.63196e-08 9.32837e-09)
(6.3486e-09 -2.06638e-08 1.22369e-08)
(7.32224e-09 -2.50781e-08 1.55014e-08)
(8.1177e-09 -2.95958e-08 1.92252e-08)
(8.67859e-09 -3.41999e-08 2.34881e-08)
(8.90255e-09 -3.88154e-08 2.83322e-08)
(8.61716e-09 -4.33044e-08 3.37312e-08)
(7.55493e-09 -4.74792e-08 3.95469e-08)
(5.33668e-09 -5.11428e-08 4.54624e-08)
(1.45552e-09 -5.42165e-08 5.08389e-08)
(-4.52822e-09 -5.69747e-08 5.47513e-08)
(-1.22977e-08 -6.02179e-08 5.62584e-08)
(-1.89029e-08 -6.41772e-08 5.58133e-08)
(1.25775e-09 -3.62048e-09 1.97197e-09)
(3.48545e-09 -1.01399e-08 5.57338e-09)
(5.4704e-09 -1.62447e-08 9.08705e-09)
(7.24606e-09 -2.2174e-08 1.27293e-08)
(8.83149e-09 -2.81072e-08 1.66855e-08)
(1.02283e-08 -3.41658e-08 2.11201e-08)
(1.1414e-08 -4.04125e-08 2.61755e-08)
(1.23303e-08 -4.68465e-08 3.19647e-08)
(1.28619e-08 -5.33966e-08 3.85523e-08)
(1.28041e-08 -5.99194e-08 4.59201e-08)
(1.183e-08 -6.62039e-08 5.39336e-08)
(9.41852e-09 -7.20176e-08 6.21896e-08)
(4.86725e-09 -7.72209e-08 7.00257e-08)
(-2.52135e-09 -8.20177e-08 7.64248e-08)
(-1.24799e-08 -8.70848e-08 8.04191e-08)
(-2.13024e-08 -9.22728e-08 8.21106e-08)
(1.59075e-09 -4.45562e-09 2.45448e-09)
(4.40981e-09 -1.24838e-08 6.93349e-09)
(6.92779e-09 -2.00127e-08 1.12991e-08)
(9.19223e-09 -2.73433e-08 1.58143e-08)
(1.12353e-08 -3.47073e-08 2.07071e-08)
(1.30719e-08 -4.2271e-08 2.61806e-08)
(1.46935e-08 -5.01343e-08 3.24126e-08)
(1.60571e-08 -5.83269e-08 3.95466e-08)
(1.70626e-08 -6.68047e-08 4.76733e-08)
(1.75179e-08 -7.54418e-08 5.67986e-08)
(1.708e-08 -8.40268e-08 6.67789e-08)
(1.51655e-08 -9.22555e-08 7.72309e-08)
(1.08507e-08 -9.97653e-08 8.74327e-08)
(2.98004e-09 -1.06231e-07 9.63311e-08)
(-8.82526e-09 -1.11519e-07 1.02838e-07)
(-2.05322e-08 -1.1549e-07 1.06567e-07)
(1.90212e-09 -5.14374e-09 2.88033e-09)
(5.27513e-09 -1.44166e-08 8.13388e-09)
(8.29472e-09 -2.31276e-08 1.32449e-08)
(1.10236e-08 -3.16338e-08 1.85162e-08)
(1.35099e-08 -4.0216e-08 2.42101e-08)
(1.57863e-08 -4.90858e-08 3.05612e-08)
(1.78678e-08 -5.83843e-08 3.77755e-08)
(1.97426e-08 -6.81829e-08 4.60222e-08)
(2.13551e-08 -7.84799e-08 5.54143e-08)
(2.25766e-08 -8.91958e-08 6.59804e-08)
(2.31453e-08 -1.00152e-07 7.75893e-08)
(2.25634e-08 -1.1102e-07 8.98573e-08)
(1.99234e-08 -1.21225e-07 1.02029e-07)
(1.37978e-08 -1.29744e-07 1.12955e-07)
(2.80087e-09 -1.34851e-07 1.21364e-07)
(-1.05714e-08 -1.34875e-07 1.2659e-07)
(2.1861e-09 -5.65568e-09 3.24336e-09)
(6.06461e-09 -1.58581e-08 9.15363e-09)
(9.54291e-09 -2.54603e-08 1.48906e-08)
(1.26986e-08 -3.48664e-08 2.07865e-08)
(1.55956e-08 -4.43999e-08 2.71289e-08)
(1.82868e-08 -5.43129e-08 3.41737e-08)
(2.08139e-08 -6.47872e-08 4.2146e-08)
(2.32051e-08 -7.59366e-08 5.12304e-08)
(2.54673e-08 -8.78112e-08 6.15544e-08)
(2.75719e-08 -1.00393e-07 7.31584e-08)
(2.94238e-08 -1.13584e-07 8.59158e-08)
(3.07977e-08 -1.27149e-07 9.9427e-08)
(3.12245e-08 -1.40612e-07 1.12856e-07)
(2.9877e-08 -1.52996e-07 1.24812e-07)
(2.56941e-08 -1.62279e-07 1.33518e-07)
(1.90851e-08 -1.65296e-07 1.38029e-07)
(2.43691e-09 -5.96735e-09 3.53821e-09)
(6.76204e-09 -1.67404e-08 9.98106e-09)
(1.06453e-08 -2.69015e-08 1.62178e-08)
(1.41763e-08 -3.68888e-08 2.25997e-08)
(1.7433e-08 -4.70573e-08 2.94286e-08)
(2.04852e-08 -5.76907e-08 3.69717e-08)
(2.33985e-08 -6.90034e-08 4.54607e-08)
(2.62369e-08 -8.11454e-08 5.50841e-08)
(2.9064e-08 -9.42077e-08 6.59686e-08)
(3.19463e-08 -1.08225e-07 7.81505e-08)
(3.49508e-08 -1.23167e-07 9.14924e-08)
(3.81452e-08 -1.38918e-07 1.0556e-07)
(4.16106e-08 -1.55245e-07 1.19419e-07)
(4.55991e-08 -1.71777e-07 1.31379e-07)
(5.09749e-08 -1.87894e-07 1.38843e-07)
(5.8815e-08 -2.01477e-07 1.39932e-07)
(1.7883e-10 -5.56031e-10 2.40744e-10)
(4.94174e-10 -1.55605e-09 6.79728e-10)
(7.71591e-10 -2.48894e-09 1.10932e-09)
(1.01227e-09 -3.39289e-09 1.5538e-09)
(1.21546e-09 -4.2925e-09 2.03817e-09)
(1.37531e-09 -5.20479e-09 2.58075e-09)
(1.48084e-09 -6.13323e-09 3.19649e-09)
(1.51184e-09 -7.07487e-09 3.89707e-09)
(1.4361e-09 -8.01283e-09 4.68506e-09)
(1.20208e-09 -8.92328e-09 5.55263e-09)
(7.33028e-10 -9.76954e-09 6.47304e-09)
(-9.27201e-11 -1.05154e-08 7.38574e-09)
(-1.48337e-09 -1.11195e-08 8.20871e-09)
(-3.87356e-09 -1.15131e-08 8.84305e-09)
(-8.17948e-09 -1.14945e-08 9.30202e-09)
(-1.47863e-08 -1.05082e-08 9.68008e-09)
(5.34381e-10 -1.65071e-09 7.15646e-10)
(1.47739e-09 -4.61983e-09 2.02282e-09)
(2.30679e-09 -7.39356e-09 3.29735e-09)
(3.02917e-09 -1.00782e-08 4.62027e-09)
(3.64132e-09 -1.27547e-08 6.0576e-09)
(4.12909e-09 -1.54671e-08 7.66546e-09)
(4.4614e-09 -1.82343e-08 9.49032e-09)
(4.5826e-09 -2.10446e-08 1.15637e-08)
(4.40176e-09 -2.38568e-08 1.38965e-08)
(3.77791e-09 -2.65934e-08 1.64607e-08)
(2.50631e-09 -2.9156e-08 1.91721e-08)
(3.06757e-10 -3.14371e-08 2.18539e-08)
(-3.16863e-09 -3.33453e-08 2.4204e-08)
(-8.24235e-09 -3.48136e-08 2.58156e-08)
(-1.47244e-08 -3.56693e-08 2.63191e-08)
(-2.03028e-08 -3.54904e-08 2.58288e-08)
(8.84787e-10 -2.6951e-09 1.1735e-09)
(2.44702e-09 -7.5453e-09 3.31649e-09)
(3.82431e-09 -1.20799e-08 5.40627e-09)
(5.02943e-09 -1.64758e-08 7.57201e-09)
(6.06182e-09 -2.08605e-08 9.92152e-09)
(6.90318e-09 -2.53182e-08 1.25477e-08)
(7.51025e-09 -2.98861e-08 1.5527e-08)
(7.80399e-09 -3.45563e-08 1.89149e-08)
(7.65137e-09 -3.92681e-08 2.27294e-08)
(6.84697e-09 -4.39138e-08 2.69368e-08)
(5.09378e-09 -4.83477e-08 3.14151e-08)
(2.00022e-09 -5.24265e-08 3.5895e-08)
(-2.83333e-09 -5.60884e-08 3.99885e-08)
(-9.52644e-09 -5.94726e-08 4.31723e-08)
(-1.70756e-08 -6.29292e-08 4.51294e-08)
(-2.21633e-08 -6.62362e-08 4.61243e-08)
(1.22618e-09 -3.65513e-09 1.60406e-09)
(3.39272e-09 -1.02369e-08 4.53016e-09)
(5.30839e-09 -1.63983e-08 7.38355e-09)
(6.99563e-09 -2.23795e-08 1.03347e-08)
(8.46057e-09 -2.83628e-08 1.35304e-08)
(9.6884e-09 -3.44704e-08 1.70973e-08)
(1.06358e-08 -4.07676e-08 2.11422e-08)
(1.12166e-08 -4.72578e-08 2.5742e-08)
(1.12827e-08 -5.3881e-08 3.09306e-08)
(1.0597e-08 -6.05098e-08 3.66776e-08)
(8.80069e-09 -6.69617e-08 4.28239e-08)
(5.41528e-09 -7.30252e-08 4.91063e-08)
(-1.09824e-10 -7.85433e-08 5.50376e-08)
(-8.02351e-09 -8.3576e-08 6.01015e-08)
(-1.72935e-08 -8.84444e-08 6.3971e-08)
(-2.40708e-08 -9.28264e-08 6.6573e-08)
(1.55363e-09 -4.49794e-09 1.996e-09)
(4.30132e-09 -1.26008e-08 5.63767e-09)
(6.73867e-09 -2.01968e-08 9.1829e-09)
(8.90069e-09 -2.75878e-08 1.28417e-08)
(1.08053e-08 -3.50046e-08 1.67934e-08)
(1.24491e-08 -4.26146e-08 2.11958e-08)
(1.38011e-08 -5.05152e-08 2.61813e-08)
(1.47895e-08 -5.87345e-08 3.18492e-08)
(1.52809e-08 -6.72247e-08 3.82489e-08)
(1.50512e-08 -7.58589e-08 4.53515e-08)
(1.3745e-08 -8.442e-08 5.30104e-08)
(1.08302e-08 -9.25902e-08 6.09088e-08)
(5.5938e-09 -9.99552e-08 6.85541e-08)
(-2.60978e-09 -1.06065e-07 7.53854e-08)
(-1.33585e-08 -1.10569e-07 8.10249e-08)
(-2.26347e-08 -1.1338e-07 8.50538e-08)
(1.8617e-09 -5.19147e-09 2.34315e-09)
(5.15714e-09 -1.45492e-08 6.61498e-09)
(8.08935e-09 -2.33347e-08 1.07661e-08)
(1.07081e-08 -3.19049e-08 1.50376e-08)
(1.30466e-08 -4.05404e-08 1.96367e-08)
(1.51193e-08 -4.94486e-08 2.47448e-08)
(1.69184e-08 -5.87642e-08 3.05162e-08)
(1.84038e-08 -6.85459e-08 3.70664e-08)
(1.94893e-08 -7.8775e-08 4.44587e-08)
(2.00159e-08 -8.93444e-08 5.26682e-08)
(1.97155e-08 -1.00034e-07 6.15424e-08)
(1.81492e-08 -1.10454e-07 7.0734e-08)
(1.46332e-08 -1.19943e-07 7.96852e-08)
(8.27133e-09 -1.27379e-07 8.77349e-08)
(-1.48928e-09 -1.31001e-07 9.44059e-08)
(-1.21769e-08 -1.2953e-07 9.92057e-08)
(2.14434e-09 -5.70726e-09 2.63826e-09)
(5.94287e-09 -1.60004e-08 7.44552e-09)
(9.3317e-09 -2.56816e-08 1.21056e-08)
(1.23754e-08 -3.51538e-08 1.68839e-08)
(1.51233e-08 -4.47371e-08 2.20071e-08)
(1.7611e-08 -5.46778e-08 2.76739e-08)
(1.98584e-08 -6.5145e-08 3.40518e-08)
(2.18681e-08 -7.62322e-08 4.12669e-08)
(2.36178e-08 -8.79563e-08 4.9388e-08)
(2.50518e-08 -1.00249e-07 5.83885e-08)
(2.60668e-08 -1.12935e-07 6.80985e-08)
(2.64887e-08 -1.25674e-07 7.8119e-08)
(2.60468e-08 -1.37863e-07 8.77689e-08)
(2.44044e-08 -1.48438e-07 9.61454e-08)
(2.13249e-08 -1.55549e-07 1.0246e-07)
(1.72866e-08 -1.56906e-07 1.06374e-07)
(2.3956e-09 -6.02063e-09 2.87892e-09)
(6.64191e-09 -1.68878e-08 8.11983e-09)
(1.04372e-08 -2.71297e-08 1.31868e-08)
(1.38592e-08 -3.71825e-08 1.83597e-08)
(1.69724e-08 -4.73968e-08 2.3877e-08)
(1.98303e-08 -5.80476e-08 2.99459e-08)
(2.24796e-08 -6.93325e-08 3.67392e-08)
(2.49605e-08 -8.13745e-08 4.43838e-08)
(2.73116e-08 -9.42211e-08 5.29461e-08)
(2.95726e-08 -1.07841e-07 6.23877e-08)
(3.17989e-08 -1.22106e-07 7.25132e-08)
(3.40888e-08 -1.36766e-07 8.28658e-08)
(3.66726e-08 -1.51442e-07 9.26314e-08)
(4.01955e-08 -1.65688e-07 1.006e-07)
(4.62707e-08 -1.79196e-07 1.05409e-07)
(5.62806e-08 -1.91042e-07 1.06488e-07)
(1.74407e-10 -5.59638e-10 1.77144e-10)
(4.81422e-10 -1.56603e-09 5.01026e-10)
(7.48936e-10 -2.50557e-09 8.15509e-10)
(9.77776e-10 -3.41351e-09 1.1429e-09)
(1.16379e-09 -4.32272e-09 1.49812e-09)
(1.30018e-09 -5.24278e-09 1.89463e-09)
(1.37287e-09 -6.18075e-09 2.34272e-09)
(1.35876e-09 -7.13419e-09 2.84927e-09)
(1.22199e-09 -8.09144e-09 3.41576e-09)
(9.09373e-10 -9.03098e-09 4.03486e-09)
(3.44578e-10 -9.92548e-09 4.68585e-09)
(-5.85023e-10 -1.07451e-08 5.33852e-09)
(-2.0576e-09 -1.14367e-08 5.94361e-09)
(-4.47411e-09 -1.19205e-08 6.48193e-09)
(-8.7028e-09 -1.19275e-08 7.03072e-09)
(-1.51478e-08 -1.08314e-08 7.623e-09)
(5.21539e-10 -1.66177e-09 5.27439e-10)
(1.43957e-09 -4.65097e-09 1.48908e-09)
(2.24106e-09 -7.44147e-09 2.42737e-09)
(2.92676e-09 -1.01496e-08 3.39938e-09)
(3.49001e-09 -1.2843e-08 4.45301e-09)
(3.90964e-09 -1.55756e-08 5.62785e-09)
(4.14696e-09 -1.83663e-08 6.95502e-09)
(4.13794e-09 -2.12083e-08 8.45505e-09)
(3.78267e-09 -2.40659e-08 1.01312e-08)
(2.93618e-09 -2.68749e-08 1.19606e-08)
(1.40244e-09 -2.95479e-08 1.38817e-08)
(-1.05842e-09 -3.19776e-08 1.57844e-08)
(-4.71601e-09 -3.40608e-08 1.75004e-08)
(-9.73988e-09 -3.561e-08 1.88147e-08)
(-1.57809e-08 -3.62508e-08 1.95347e-08)
(-2.0674e-08 -3.55016e-08 1.95531e-08)
(8.64291e-10 -2.71351e-09 8.65022e-10)
(2.3869e-09 -7.59662e-09 2.44228e-09)
(3.71918e-09 -1.21639e-08 3.98086e-09)
(4.86737e-09 -1.65856e-08 5.572e-09)
(5.82239e-09 -2.10008e-08 7.29445e-09)
(6.55687e-09 -2.54864e-08 9.21281e-09)
(7.01613e-09 -3.00846e-08 1.13797e-08)
(7.10816e-09 -3.47904e-08 1.38299e-08)
(6.68921e-09 -3.9552e-08 1.65716e-08)
(5.5508e-09 -4.42702e-08 1.95707e-08)
(3.41587e-09 -4.8808e-08 2.2736e-08)
(-3.21937e-11 -5.30183e-08 2.59236e-08)
(-5.04967e-09 -5.677e-08 2.88634e-08)
(-1.152e-08 -6.00677e-08 3.13024e-08)
(-1.82333e-08 -6.30245e-08 3.30535e-08)
(-2.22129e-08 -6.5494e-08 3.40572e-08)
(1.19922e-09 -3.68068e-09 1.18146e-09)
(3.31405e-09 -1.03074e-08 3.3382e-09)
(5.17124e-09 -1.65083e-08 5.43801e-09)
(6.7843e-09 -2.25293e-08 7.60688e-09)
(8.14979e-09 -2.85426e-08 9.94888e-09)
(9.24072e-09 -3.46787e-08 1.2554e-08)
(1e-08 -4.1001e-08 1.54952e-08)
(1.0327e-08 -4.75146e-08 1.8822e-08)
(1.00617e-08 -5.41604e-08 2.25493e-08)
(8.96754e-09 -6.08129e-08 2.66369e-08)
(6.72727e-09 -6.72862e-08 3.09994e-08)
(2.95419e-09 -7.33416e-08 3.5421e-08)
(-2.69555e-09 -7.87567e-08 3.96384e-08)
(-1.01805e-08 -8.34428e-08 4.33609e-08)
(-1.8265e-08 -8.75523e-08 4.63844e-08)
(-2.36321e-08 -9.0966e-08 4.83922e-08)
(1.52201e-09 -4.52855e-09 1.47143e-09)
(4.209e-09 -1.26868e-08 4.15487e-09)
(6.57789e-09 -2.0332e-08 6.76487e-09)
(8.65376e-09 -2.77609e-08 9.45322e-09)
(1.04436e-08 -3.52121e-08 1.23494e-08)
(1.19307e-08 -4.28456e-08 1.55643e-08)
(1.30689e-08 -5.07579e-08 1.91893e-08)
(1.37712e-08 -5.89713e-08 2.32872e-08)
(1.3894e-08 -6.74317e-08 2.788e-08)
(1.32199e-08 -7.6e-08 3.29342e-08)
(1.144e-08 -8.44396e-08 3.83394e-08)
(8.14261e-09 -9.23858e-08 4.38764e-08)
(2.85172e-09 -9.93611e-08 4.92268e-08)
(-4.7507e-09 -1.0481e-07 5.40868e-08)
(-1.40506e-08 -1.08301e-07 5.8208e-08)
(-2.1694e-08 -1.1004e-07 6.10535e-08)
(1.82714e-09 -5.22693e-09 1.72728e-09)
(5.05612e-09 -1.46463e-08 4.87604e-09)
(7.91389e-09 -2.34839e-08 7.93225e-09)
(1.044e-08 -3.20987e-08 1.10714e-08)
(1.26551e-08 -4.07631e-08 1.44416e-08)
(1.45609e-08 -4.96856e-08 1.81719e-08)
(1.61341e-08 -5.89921e-08 2.23678e-08)
(1.73206e-08 -6.87298e-08 2.71025e-08)
(1.80241e-08 -7.88616e-08 3.24028e-08)
(1.80951e-08 -8.92522e-08 3.82353e-08)
(1.7316e-08 -9.96403e-08 4.44747e-08)
(1.53784e-08 -1.09588e-07 5.08629e-08)
(1.18454e-08 -1.18369e-07 5.70168e-08)
(6.16311e-09 -1.24823e-07 6.25595e-08)
(-2.01398e-09 -1.2725e-07 6.71886e-08)
(-1.09219e-08 -1.24787e-07 7.03825e-08)
(2.10842e-09 -5.74502e-09 1.94563e-09)
(5.83837e-09 -1.61046e-08 5.48899e-09)
(9.1507e-09 -2.58419e-08 8.92059e-09)
(1.20989e-08 -3.53554e-08 1.24321e-08)
(1.47221e-08 -4.49654e-08 1.61868e-08)
(1.70417e-08 -5.49094e-08 2.03253e-08)
(1.90639e-08 -6.53458e-08 2.49623e-08)
(2.07771e-08 -7.63496e-08 3.01766e-08)
(2.21507e-08 -8.79089e-08 3.59955e-08)
(2.31381e-08 -9.9914e-08 4.23792e-08)
(2.36838e-08 -1.12133e-07 4.918e-08)
(2.37312e-08 -1.24161e-07 5.60818e-08)
(2.32468e-08 -1.35349e-07 6.2594e-08)
(2.22276e-08 -1.44659e-07 6.81697e-08)
(2.06594e-08 -1.50465e-07 7.23422e-08)
(1.83417e-08 -1.51047e-07 7.48444e-08)