/*--------------------------------*- C++ -*----------------------------------*\
| =========                 |                                                 |
| \\      /  F ield         | OpenFOAM: The Open Source CFD Toolbox           |
|  \\    /   O peration     | Version:  v1912                                 |
|   \\  /    A nd           | Website:  www.openfoam.com                      |
|    \\/     M anipulation  |                                                 |
\*---------------------------------------------------------------------------*/
FoamFile
{
    version     2.0;
    format      ascii;
    class       volVectorField;
    location    "0.29/fluid";
    object      U;
}
// * * * * * * * * * * * * * * * * * * * * * * * * * * * * * * * * * * * * * //

dimensions      [0 1 -1 0 0 0 0];


internalField   nonuniform List<vector> 
14592
(
(0.0881829 0.0161794 0.000480617)
(0.0757412 0.00970825 0.000409234)
(0.0650521 0.00535315 -8.27683e-05)
(0.0601992 0.00235385 -0.000736679)
(0.0574011 0.00108213 -0.00156851)
(0.0557932 0.000548417 -0.00259644)
(0.0545436 0.000355145 -0.00387554)
(0.0533978 0.000287435 -0.00548639)
(0.0520649 0.000272494 -0.00754311)
(0.050631 0.000258044 -0.0102402)
(0.0485309 0.000239268 -0.0138403)
(0.0463998 0.000114525 -0.0188039)
(0.0422766 -5.80745e-05 -0.02592)
(0.0384255 -0.000723343 -0.0360443)
(0.0273814 -0.00120945 -0.0503929)
(0.0156346 -0.0041118 -0.0519872)
(0.104082 0.0155296 0.000486967)
(0.104807 0.012749 0.000267727)
(0.103562 0.00878225 -0.000477033)
(0.101697 0.0052113 -0.00146057)
(0.0998084 0.00324846 -0.0027089)
(0.0981281 0.00227396 -0.00426782)
(0.0964609 0.00189784 -0.00622523)
(0.0947042 0.00183668 -0.00870687)
(0.0925779 0.00196338 -0.0118899)
(0.0901448 0.00219464 -0.0160663)
(0.0866847 0.00250132 -0.0216363)
(0.0827902 0.00276904 -0.0292821)
(0.0758939 0.00302166 -0.0401053)
(0.0683424 0.00279204 -0.0553729)
(0.0496643 0.0024485 -0.075995)
(0.0290569 -0.00109104 -0.0775692)
(0.103699 0.00971151 0.00048255)
(0.107049 0.0111636 0.000233542)
(0.108993 0.00919372 -0.000547922)
(0.108971 0.00659365 -0.00157148)
(0.108238 0.00485848 -0.00286908)
(0.107122 0.00389771 -0.00449205)
(0.105748 0.00354795 -0.00653225)
(0.10412 0.00360739 -0.00912149)
(0.102023 0.00396523 -0.0124445)
(0.0995299 0.00454213 -0.0168096)
(0.0958925 0.00529913 -0.0226355)
(0.0916579 0.00613512 -0.0306559)
(0.0841017 0.00703647 -0.0420165)
(0.0755122 0.0075901 -0.0581477)
(0.0547589 0.00765846 -0.0799372)
(0.0314577 0.00382953 -0.0822979)
(0.101909 0.00653149 0.000504303)
(0.104909 0.00908454 0.000275784)
(0.107572 0.00840237 -0.000489316)
(0.108521 0.00683675 -0.00149396)
(0.108661 0.0056108 -0.0027669)
(0.108164 0.00492955 -0.00435604)
(0.107235 0.00478408 -0.00634914)
(0.105931 0.00507512 -0.00887457)
(0.104085 0.00574031 -0.0121113)
(0.101793 0.00673834 -0.0163664)
(0.0982943 0.0080559 -0.0220493)
(0.094124 0.00963946 -0.0299135)
(0.0864531 0.0114813 -0.0410902)
(0.0775542 0.013187 -0.0571427)
(0.0560293 0.0141744 -0.0789758)
(0.0314997 0.00926856 -0.0820497)
(0.10106 0.0045261 0.00054314)
(0.103476 0.0071604 0.000357791)
(0.106098 0.00729524 -0.000372206)
(0.107463 0.00656205 -0.00134113)
(0.108133 0.00588741 -0.00256808)
(0.108125 0.00558026 -0.00409292)
(0.107629 0.00572211 -0.00599505)
(0.106708 0.00629766 -0.00839408)
(0.105224 0.00729433 -0.0114553)
(0.10329 0.00871725 -0.0154733)
(0.100148 0.0105813 -0.0208301)
(0.0963228 0.0128905 -0.0282809)
(0.0888757 0.0156455 -0.0388967)
(0.0800044 0.0184652 -0.0543963)
(0.0578045 0.0204075 -0.0756215)
(0.0318583 0.0139618 -0.0795301)
(0.100696 0.00329227 0.000590265)
(0.102718 0.00561528 0.000459243)
(0.105196 0.00614529 -0.000226487)
(0.106781 0.00596752 -0.00115174)
(0.107808 0.00575812 -0.00232263)
(0.108193 0.00582283 -0.00376867)
(0.108089 0.00627742 -0.00555892)
(0.107553 0.00716386 -0.00780171)
(0.106462 0.00851853 -0.0106453)
(0.104938 0.0104149 -0.0143674)
(0.102226 0.0129352 -0.0193142)
(0.0988285 0.0162354 -0.0262358)
(0.0917049 0.020454 -0.0361168)
(0.0829725 0.0254892 -0.050856)
(0.0601241 0.0302465 -0.0711753)
(0.0326578 0.0231373 -0.0761998)
(0.10056 0.00231841 0.000645108)
(0.102399 0.00421802 0.000576858)
(0.104811 0.00495386 -5.73962e-05)
(0.106553 0.00517426 -0.0009321)
(0.107847 0.00535766 -0.00203748)
(0.108563 0.0057614 -0.0033901)
(0.108834 0.00650665 -0.00504515)
(0.108721 0.00766923 -0.00709356)
(0.108135 0.0093187 -0.00965634)
(0.107232 0.0115841 -0.0129743)
(0.105331 0.0145915 -0.0173232)
(0.102984 0.0186332 -0.0233866)
(0.0971934 0.0239319 -0.0319418)
(0.090057 0.0307013 -0.0449804)
(0.0676992 0.0377577 -0.0627785)
(0.0393367 0.0295309 -0.0689081)
(0.100517 0.00147058 0.000704335)
(0.102317 0.00289863 0.000703613)
(0.104764 0.0037104 0.000124694)
(0.106658 0.00421079 -0.000696191)
(0.108179 0.0047125 -0.00173204)
(0.109174 0.00540526 -0.00298577)
(0.109776 0.0063992 -0.00449829)
(0.110052 0.0077904 -0.00634258)
(0.109942 0.0096773 -0.00861299)
(0.109622 0.0122581 -0.0115124)
(0.108486 0.0157398 -0.0152498)
(0.107106 0.0207263 -0.0204359)
(0.102593 0.0278039 -0.0276479)
(0.0972002 0.0390378 -0.0389597)
(0.0759998 0.0544075 -0.0543141)
(0.0503143 0.0630259 -0.0628798)
(0.088148 0.0161815 0.000248233)
(0.0755584 0.00971869 6.10664e-05)
(0.0646594 0.00536221 -0.000403761)
(0.059622 0.0023614 -0.000980119)
(0.0566326 0.00109123 -0.00171702)
(0.0548187 0.000560682 -0.00264663)
(0.0533184 0.000372237 -0.00382241)
(0.0518549 0.000311001 -0.00531069)
(0.0501062 0.000305956 -0.00720653)
(0.0481237 0.000306 -0.00964199)
(0.0453189 0.000313228 -0.0128091)
(0.0422261 0.000234467 -0.0168779)
(0.0370698 0.000152832 -0.0223018)
(0.0315419 -0.000303629 -0.0285183)
(0.0202757 -0.000539705 -0.0354922)
(0.00707305 -0.002557 -0.0266046)
(0.104033 0.0155434 0.000189999)
(0.104556 0.0127823 -0.000191883)
(0.103012 0.0088234 -0.000917737)
(0.100853 0.00525868 -0.00180341)
(0.0986538 0.00330811 -0.00292075)
(0.0966342 0.00235253 -0.004338)
(0.0945579 0.00200348 -0.00614395)
(0.0922838 0.00197892 -0.0084467)
(0.0894802 0.00215586 -0.0113959)
(0.086151 0.00245367 -0.0152011)
(0.0815198 0.00285383 -0.0201581)
(0.0760445 0.00324483 -0.0265685)
(0.0673362 0.00367924 -0.0350591)
(0.0571287 0.00370309 -0.0450168)
(0.0376957 0.00360346 -0.0557131)
(0.0150881 0.000400972 -0.0420753)
(0.103651 0.00973821 0.000175684)
(0.106792 0.0112221 -0.000244366)
(0.108427 0.00927285 -0.00100814)
(0.108099 0.00669044 -0.00193103)
(0.107042 0.00498047 -0.00309292)
(0.105571 0.00405664 -0.00456855)
(0.10377 0.00375965 -0.00645113)
(0.101603 0.003891 -0.0088546)
(0.0987991 0.00434663 -0.011935)
(0.0953696 0.00505108 -0.0159153)
(0.0905002 0.00597945 -0.0211038)
(0.0846031 0.00702468 -0.0278357)
(0.0751115 0.00820391 -0.0367533)
(0.0637102 0.00903855 -0.0472821)
(0.0420827 0.00931925 -0.0585674)
(0.0166328 0.00503302 -0.044221)
(0.101863 0.00656696 0.000196494)
(0.104656 0.00916225 -0.00020568)
(0.107016 0.00851158 -0.000953301)
(0.107666 0.00697448 -0.00185742)
(0.107491 0.00578639 -0.00299529)
(0.106652 0.0051595 -0.0044383)
(0.105312 0.00509151 -0.00627569)
(0.103489 0.00548935 -0.00861814)
(0.10096 0.00630124 -0.0116161)
(0.0977622 0.0074937 -0.0154915)
(0.0930633 0.00907468 -0.0205425)
(0.0872695 0.0109842 -0.0271196)
(0.0776838 0.0132591 -0.0358439)
(0.0659877 0.0153833 -0.0462208)
(0.0435467 0.0167175 -0.0573873)
(0.0167539 0.0108387 -0.0433281)
(0.101016 0.00457052 0.000235186)
(0.103229 0.00725711 -0.000125527)
(0.105558 0.00743288 -0.00083884)
(0.106638 0.00673775 -0.00170836)
(0.10701 0.00611246 -0.00280214)
(0.106682 0.0058756 -0.00418381)
(0.105802 0.00611763 -0.0059346)
(0.104399 0.00683236 -0.00815726)
(0.10228 0.00802154 -0.0109897)
(0.0995054 0.00970254 -0.0146442)
(0.0952388 0.0119194 -0.0193944)
(0.0898909 0.0146713 -0.0255981)
(0.0806076 0.0180239 -0.0338247)
(0.0690314 0.0214214 -0.0437179)
(0.0458246 0.0238877 -0.0543953)
(0.0174227 0.0159974 -0.0410942)
(0.100652 0.00334378 0.00028186)
(0.102479 0.00572697 -2.62201e-05)
(0.104676 0.00630515 -0.000696572)
(0.105992 0.00617296 -0.00152402)
(0.106742 0.00602243 -0.00256407)
(0.106832 0.00617104 -0.00387052)
(0.106378 0.00674594 -0.00551478)
(0.105406 0.00780181 -0.0075895)
(0.103738 0.00939475 -0.0102171)
(0.101451 0.0116192 -0.0135968)
(0.0977062 0.0146013 -0.0179713)
(0.0929121 0.0185101 -0.0237044)
(0.0840515 0.0235935 -0.0312939)
(0.0727541 0.029548 -0.0405638)
(0.0488025 0.0353258 -0.0505827)
(0.0186494 0.0263299 -0.0383751)
(0.100518 0.00237557 0.000335706)
(0.102169 0.00434115 8.84773e-05)
(0.104314 0.00513029 -0.000532164)
(0.105806 0.00540162 -0.00131102)
(0.106847 0.0056507 -0.00228841)
(0.1073 0.00614809 -0.00350594)
(0.107265 0.00702802 -0.00502216)
(0.106775 0.00838179 -0.00691461)
(0.105696 0.0103023 -0.0092821)
(0.104152 0.0129466 -0.0122965)
(0.10138 0.0164947 -0.0161448)
(0.0978805 0.0212688 -0.0211635)
(0.0906081 0.0276347 -0.0277072)
(0.081317 0.0355934 -0.0357946)
(0.0577958 0.0440955 -0.0443289)
(0.0266093 0.0334821 -0.033652)
(0.100476 0.00153097 0.000393439)
(0.102097 0.00302795 0.000211614)
(0.104292 0.00389566 -0.000355714)
(0.105956 0.00444982 -0.0010828)
(0.107249 0.0050209 -0.00199364)
(0.108015 0.00581273 -0.00311686)
(0.108355 0.0069497 -0.00449781)
(0.108315 0.00854593 -0.00619838)
(0.107797 0.0107266 -0.00829399)
(0.106955 0.0137282 -0.0109283)
(0.105108 0.0178249 -0.0142347)
(0.102815 0.0236944 -0.0185197)
(0.0970744 0.0321249 -0.0239948)
(0.089996 0.0451015 -0.0308922)
(0.0676878 0.0629445 -0.0379799)
(0.0393649 0.0691508 -0.0296952)
(0.0881209 0.0161834 9.08386e-05)
(0.0754095 0.00972759 -0.000159836)
(0.0643295 0.00537028 -0.000586787)
(0.0591206 0.00236821 -0.0010864)
(0.0559458 0.00109919 -0.00172403)
(0.0539262 0.000570949 -0.00253849)
(0.052173 0.000385724 -0.00357904)
(0.0503842 0.000328108 -0.0048991)
(0.0482058 0.000327525 -0.00657726)
(0.0456389 0.00033236 -0.00870481)
(0.0420743 0.000346597 -0.0114355)
(0.0379211 0.000278946 -0.0148309)
(0.0316369 0.000215035 -0.0192379)
(0.0245589 -0.000182685 -0.0239688)
(0.0135924 -0.000438756 -0.0288304)
(0.00185809 -0.0021397 -0.0214409)
(0.103995 0.0155564 -4.36135e-06)
(0.104349 0.0128132 -0.000468612)
(0.102546 0.00886237 -0.00114882)
(0.100116 0.00530381 -0.00192949)
(0.0976197 0.00336452 -0.00290478)
(0.0952671 0.00242609 -0.00415228)
(0.0927861 0.00210136 -0.00575566)
(0.089996 0.00210909 -0.00780482)
(0.0865151 0.00232918 -0.0104235)
(0.0822766 0.00268192 -0.013762)
(0.076461 0.00315485 -0.0180509)
(0.0693803 0.00363356 -0.0234299)
(0.0589145 0.00418072 -0.0303461)
(0.0464678 0.00433217 -0.0379547)
(0.027268 0.00426989 -0.0453662)
(0.00666221 0.00104814 -0.0336163)
(0.103614 0.00976402 -2.42859e-05)
(0.10658 0.0112779 -0.000530005)
(0.107948 0.00934845 -0.00124704)
(0.107337 0.00678296 -0.0020614)
(0.10597 0.0050966 -0.00307602)
(0.104152 0.00420718 -0.00437522)
(0.101929 0.00395925 -0.00604713)
(0.0992247 0.00415724 -0.00818694)
(0.0957145 0.00470292 -0.0109236)
(0.0913366 0.00552335 -0.0144185)
(0.0852239 0.00660469 -0.0189105)
(0.0776429 0.00783005 -0.0245639)
(0.0662779 0.00923664 -0.0318307)
(0.0524993 0.0102751 -0.0398802)
(0.0310123 0.0106706 -0.0476903)
(0.0076021 0.00590887 -0.0352779)
(0.101827 0.0066014 -5.39503e-06)
(0.104448 0.00923672 -0.000495914)
(0.106545 0.00861602 -0.00119792)
(0.106921 0.00710603 -0.00199466)
(0.106445 0.00595357 -0.00298708)
(0.10527 0.00537774 -0.00425639)
(0.103522 0.00538252 -0.00588714)
(0.10118 0.0058806 -0.00797173)
(0.0979668 0.00683003 -0.0106342)
(0.0938471 0.00820366 -0.0140355)
(0.0879291 0.0100285 -0.0184059)
(0.0804772 0.012234 -0.0239241)
(0.0690155 0.0148949 -0.0310244)
(0.0549226 0.0173752 -0.0389461)
(0.0325433 0.0190007 -0.0466614)
(0.00770823 0.0123271 -0.0345348)
(0.100981 0.00461346 3.0968e-05)
(0.103027 0.00734967 -0.000421447)
(0.105103 0.00756428 -0.00109162)
(0.105921 0.00690523 -0.0018564)
(0.106009 0.00632654 -0.00280845)
(0.105364 0.00615602 -0.00402193)
(0.104103 0.0064928 -0.00557418)
(0.102216 0.0073393 -0.00755085)
(0.0994565 0.00871123 -0.0100653)
(0.0958192 0.0106369 -0.0132715)
(0.0903993 0.0131887 -0.0173798)
(0.0834762 0.0163578 -0.0225802)
(0.0723663 0.0202712 -0.0292666)
(0.05844 0.0242078 -0.0368045)
(0.0351677 0.0271906 -0.0441642)
(0.00851837 0.0182082 -0.0327329)
(0.100619 0.0033933 7.47609e-05)
(0.102284 0.00583357 -0.000328972)
(0.10424 0.00645738 -0.000959399)
(0.105309 0.00636838 -0.00168546)
(0.105794 0.00627356 -0.00258836)
(0.105592 0.00650159 -0.00373332)
(0.10479 0.00719067 -0.0051889)
(0.103376 0.00840766 -0.00703211)
(0.101124 0.0102281 -0.009363)
(0.0980501 0.012766 -0.012326)
(0.0932384 0.0161908 -0.0161054)
(0.0869851 0.0206798 -0.020903)
(0.0763783 0.0265862 -0.0270557)
(0.0628314 0.0334128 -0.0340927)
(0.0386738 0.0401894 -0.0409649)
(0.00999292 0.0298631 -0.0304965)
(0.100485 0.00243024 0.00012504)
(0.101983 0.00445832 -0.000222387)
(0.103901 0.00529792 -0.000806923)
(0.105162 0.00561748 -0.0014884)
(0.105962 0.00592883 -0.00233411)
(0.106154 0.00651512 -0.00339833)
(0.10581 0.00752338 -0.00473831)
(0.104938 0.00905995 -0.00641851)
(0.103354 0.0112413 -0.00851921)
(0.101137 0.0142519 -0.0111649)
(0.0974502 0.0183272 -0.014496)
(0.0927134 0.0238165 -0.0187053)
(0.0839067 0.0312291 -0.0240233)
(0.0726766 0.0403696 -0.0301728)
(0.0487881 0.0503578 -0.0360247)
(0.0186657 0.0382083 -0.026887)
(0.100445 0.00158843 0.00017872)
(0.101921 0.00315066 -0.000108233)
(0.103903 0.00407128 -0.000643562)
(0.105355 0.00467637 -0.00127756)
(0.10643 0.00531331 -0.00206245)
(0.106967 0.00619935 -0.00304088)
(0.107043 0.00747296 -0.00425837)
(0.106681 0.00926587 -0.00576624)
(0.105741 0.0117308 -0.00762482)
(0.104349 0.0151416 -0.00993737)
(0.101748 0.0198435 -0.0128003)
(0.0984623 0.0265823 -0.0163933)
(0.0914417 0.036356 -0.0208374)
(0.0828348 0.0510607 -0.0260594)
(0.0600975 0.0714783 -0.0308787)
(0.032708 0.0766225 -0.0236499)
(0.0881 0.0161852 -4.71441e-06)
(0.0752897 0.00973534 -0.000272973)
(0.0640591 0.00537757 -0.000647568)
(0.0587025 0.00237463 -0.00106597)
(0.0553679 0.00110687 -0.00159636)
(0.0531743 0.000581213 -0.00227682)
(0.051218 0.000399974 -0.00314769)
(0.0491853 0.000347895 -0.00424562)
(0.0467164 0.00035565 -0.00562389)
(0.0437978 0.000373211 -0.00732597)
(0.0398604 0.000408531 -0.00943909)
(0.0352756 0.000378204 -0.0119133)
(0.0287604 0.000375736 -0.0149151)
(0.0214798 0.000105767 -0.0177116)
(0.0113273 -2.18219e-05 -0.0199543)
(0.00108197 -0.00146988 -0.0136196)
(0.103965 0.0155683 -0.000113641)
(0.10418 0.0128411 -0.00059023)
(0.102161 0.0088977 -0.00119496)
(0.0994974 0.00534494 -0.00185736)
(0.0967429 0.00341589 -0.00267503)
(0.0941052 0.00249311 -0.00372279)
(0.0912909 0.00219079 -0.00507129)
(0.0880991 0.0022289 -0.00678617)
(0.0841335 0.00249052 -0.00895377)
(0.0793048 0.00289836 -0.0116562)
(0.0728345 0.00344733 -0.0150265)
(0.0650049 0.00402651 -0.0190431)
(0.0540265 0.00471267 -0.0239015)
(0.0411925 0.00505099 -0.0286549)
(0.0231483 0.00516134 -0.0323189)
(0.00486605 0.00197342 -0.0221713)
(0.103584 0.0097876 -0.000135306)
(0.106408 0.0113284 -0.000652169)
(0.107551 0.009417 -0.00129046)
(0.106697 0.00686683 -0.00198207)
(0.105061 0.00520155 -0.00283319)
(0.102945 0.00434276 -0.00392489)
(0.100374 0.00413842 -0.0053319)
(0.0972504 0.00439559 -0.00712424)
(0.093233 0.00502125 -0.00939214)
(0.0882374 0.00594506 -0.0122257)
(0.0814333 0.00716346 -0.0157622)
(0.0730635 0.00855456 -0.0199946)
(0.06114 0.0101755 -0.0251127)
(0.0469452 0.0114346 -0.030161)
(0.0266406 0.0120152 -0.0340254)
(0.00568515 0.00695138 -0.0232534)
(0.101798 0.0066329 -0.000119016)
(0.104279 0.00930435 -0.000623397)
(0.106157 0.00871069 -0.00124849)
(0.106296 0.00722497 -0.00192456)
(0.105559 0.0061041 -0.00275632)
(0.104095 0.00557323 -0.00382217)
(0.102012 0.00564167 -0.00519384)
(0.0992668 0.00622664 -0.00693912)
(0.0955647 0.00729395 -0.00914429)
(0.0908506 0.00882054 -0.0118992)
(0.0842641 0.0108478 -0.0153344)
(0.0760503 0.013295 -0.0194537)
(0.0640426 0.0162649 -0.0244317)
(0.049543 0.0190333 -0.0293628)
(0.0283083 0.0208997 -0.0331264)
(0.00588235 0.013665 -0.0225785)
(0.100953 0.00465264 -8.68085e-05)
(0.102864 0.00743363 -0.000557923)
(0.104728 0.00768314 -0.00115506)
(0.10532 0.00705626 -0.00180322)
(0.105161 0.00651872 -0.00260004)
(0.104246 0.00640626 -0.00361788)
(0.102671 0.00682511 -0.00492247)
(0.10041 0.00778413 -0.00657634)
(0.0971966 0.00930932 -0.00865745)
(0.0930102 0.011435 -0.0112514)
(0.0869698 0.0142526 -0.0144739)
(0.0793435 0.0177397 -0.0183413)
(0.0677195 0.0220631 -0.0229992)
(0.0534136 0.0263722 -0.0276415)
(0.031198 0.0296815 -0.031157)
(0.00681704 0.0199157 -0.0211843)
(0.100592 0.00343833 -4.80449e-05)
(0.102128 0.00593006 -0.000476437)
(0.103882 0.0065948 -0.00103876)
(0.104738 0.00654417 -0.0016532)
(0.104993 0.00649835 -0.00240751)
(0.104542 0.00679547 -0.00336647)
(0.103453 0.00758254 -0.00458851)
(0.101699 0.0089351 -0.0061295)
(0.0990359 0.0109423 -0.00805711)
(0.0954681 0.0137279 -0.0104512)
(0.0900946 0.0174884 -0.0134086)
(0.0832113 0.0223901 -0.0169605)
(0.0721315 0.0288455 -0.0212133)
(0.0582489 0.0361922 -0.0254923)
(0.0350459 0.0434847 -0.0286919)
(0.00844025 0.0321907 -0.0195082)
(0.10046 0.00247975 -3.66891e-06)
(0.101835 0.00456412 -0.000382624)
(0.103563 0.00544891 -0.000904821)
(0.104627 0.00581126 -0.00148056)
(0.105216 0.00617725 -0.00218558)
(0.105183 0.00684055 -0.00307548)
(0.104586 0.00795825 -0.00419954)
(0.103418 0.0096471 -0.00560424)
(0.101481 0.0120394 -0.00734269)
(0.0988488 0.0153334 -0.00948276)
(0.0946904 0.0197963 -0.012092)
(0.0894458 0.0257725 -0.0152076)
(0.0802539 0.0338453 -0.0188715)
(0.0688009 0.0436361 -0.0225752)
(0.0457263 0.054324 -0.0252024)
(0.0173915 0.0410635 -0.0171134)
(0.100421 0.00164028 4.35855e-05)
(0.101781 0.00326121 -0.000282287)
(0.103585 0.00422917 -0.000761492)
(0.104857 0.00487939 -0.00129602)
(0.105742 0.00557399 -0.00194859)
(0.106082 0.00654137 -0.00276505)
(0.105939 0.0079308 -0.00378517)
(0.105327 0.00988592 -0.00504555)
(0.104094 0.0125771 -0.00658459)
(0.102366 0.0162965 -0.00845728)
(0.0993885 0.0214266 -0.010702)
(0.0957235 0.0287219 -0.0133602)
(0.0884191 0.0392732 -0.0164087)
(0.0797355 0.0548037 -0.0195186)
(0.0577117 0.0762449 -0.0215969)
(0.0318843 0.0803476 -0.0150009)
(0.0880838 0.0161866 -5.23677e-05)
(0.075195 0.00974164 -0.000300711)
(0.0638426 0.00538354 -0.000608927)
(0.0583632 0.00237984 -0.000941486)
(0.0548936 0.00111293 -0.00136022)
(0.0525513 0.000589056 -0.00189889)
(0.0504211 0.000410356 -0.0025895)
(0.0481791 0.000361381 -0.00345776)
(0.0454615 0.00037313 -0.0045416)
(0.0422406 0.000395901 -0.00586339)
(0.0379839 0.000438808 -0.00748115)
(0.0330362 0.000422206 -0.00932905)
(0.0263327 0.000440877 -0.0115106)
(0.0189494 0.00022484 -0.0134556)
(0.00954011 0.000133772 -0.0148493)
(0.000546171 -0.00120093 -0.0101412)
(0.103941 0.0155784 -0.000156456)
(0.104046 0.0128645 -0.000587901)
(0.10185 0.00892762 -0.00108984)
(0.0989931 0.00537981 -0.00162132)
(0.0960218 0.00345923 -0.00227064)
(0.0931423 0.00254927 -0.00310311)
(0.0900454 0.00226507 -0.00417564)
(0.0865136 0.00232727 -0.00553598)
(0.0821411 0.00262095 -0.00724576)
(0.0768198 0.00306988 -0.0093526)
(0.0698125 0.00367301 -0.0119424)
(0.0613866 0.00431985 -0.0149568)
(0.0500354 0.00509392 -0.0185026)
(0.0370214 0.00554158 -0.0218233)
(0.0200596 0.00573387 -0.0241045)
(0.00372712 0.00250141 -0.0164571)
(0.103561 0.00980778 -0.000176669)
(0.10627 0.0113715 -0.000643455)
(0.107232 0.00947539 -0.00117375)
(0.106176 0.00693824 -0.00172906)
(0.104313 0.00529067 -0.00240529)
(0.101944 0.00445746 -0.00327304)
(0.0990779 0.00428935 -0.00439268)
(0.0955997 0.00459537 -0.00581544)
(0.0911562 0.00528641 -0.00760582)
(0.0856448 0.00629357 -0.00981718)
(0.0782736 0.00762048 -0.0125379)
(0.0692753 0.00913943 -0.0157187)
(0.0569442 0.0109207 -0.0194592)
(0.0425526 0.0123358 -0.0229919)
(0.0233613 0.013035 -0.0253983)
(0.00447198 0.00770243 -0.0172698)
(0.101776 0.00665993 -0.000163527)
(0.104144 0.00936214 -0.000620572)
(0.105845 0.00879147 -0.00114008)
(0.105787 0.00732632 -0.0016826)
(0.104831 0.00623208 -0.00234305)
(0.103122 0.00573896 -0.00318991)
(0.100754 0.00586068 -0.00428116)
(0.0976664 0.00651805 -0.00566637)
(0.0935528 0.00768301 -0.00740711)
(0.0883408 0.00933524 -0.00955689)
(0.0812034 0.0115269 -0.0121991)
(0.0723792 0.0141672 -0.0152937)
(0.0599678 0.0173791 -0.0189292)
(0.0452716 0.020366 -0.0223768)
(0.0251156 0.0224055 -0.0247137)
(0.00472396 0.0147164 -0.016768)
(0.100932 0.00468624 -0.000136945)
(0.102734 0.00750539 -0.000566799)
(0.104428 0.00778457 -0.00106339)
(0.104832 0.00718493 -0.00158312)
(0.104465 0.00668212 -0.00221523)
(0.10332 0.00661854 -0.00302335)
(0.101479 0.00710636 -0.00406077)
(0.0988981 0.00815965 -0.00537312)
(0.095302 0.00981284 -0.00701581)
(0.0906537 0.0121047 -0.00903982)
(0.084099 0.0151417 -0.0115181)
(0.0759046 0.0188886 -0.014422)
(0.0638953 0.0235423 -0.0178207)
(0.0494034 0.0281481 -0.0210607)
(0.028191 0.0317103 -0.0232325)
(0.00574139 0.0213306 -0.0157355)
(0.100572 0.00347688 -0.000104962)
(0.102004 0.00601244 -0.000499762)
(0.103595 0.00671196 -0.000967814)
(0.104276 0.00669384 -0.00146005)
(0.104337 0.0066894 -0.00205769)
(0.103674 0.00704472 -0.00281827)
(0.10234 0.00791421 -0.00378936)
(0.100296 0.00938048 -0.00501157)
(0.0972853 0.0115438 -0.00653257)
(0.0933009 0.0145357 -0.00839976)
(0.0874603 0.0185737 -0.0106726)
(0.0800661 0.0238134 -0.0133358)
(0.0686295 0.0307113 -0.0164318)
(0.0545858 0.0384734 -0.0194066)
(0.0322948 0.0461651 -0.0213643)
(0.00747316 0.0341337 -0.0144723)
(0.10044 0.00252206 -6.84049e-05)
(0.101717 0.00465436 -0.000422621)
(0.103293 0.00557753 -0.000857843)
(0.104194 0.00597612 -0.00131859)
(0.104606 0.00638828 -0.00187637)
(0.104382 0.00711654 -0.00258139)
(0.103568 0.00832642 -0.00347413)
(0.102147 0.0101433 -0.00458832)
(0.0999091 0.0127127 -0.00596099)
(0.0969232 0.0162436 -0.00763201)
(0.0923691 0.0210293 -0.00964067)
(0.0867056 0.0274083 -0.0119806)
(0.0772173 0.0360201 -0.0146524)
(0.0656704 0.0463412 -0.0172273)
(0.0433832 0.0575854 -0.0188195)
(0.0166161 0.0435069 -0.0127461)
(0.100403 0.0016845 -2.95449e-05)
(0.101671 0.00335536 -0.000340186)
(0.103333 0.00436353 -0.000740233)
(0.104456 0.00505197 -0.00116745)
(0.105181 0.00579531 -0.00168276)
(0.105352 0.0068313 -0.0023286)
(0.105021 0.00831835 -0.00313803)
(0.104195 0.0104099 -0.00413743)
(0.102712 0.013291 -0.00535289)
(0.100698 0.0172687 -0.00681584)
(0.0974037 0.0227555 -0.0085449)
(0.0934246 0.0305109 -0.010541)
(0.0859046 0.041696 -0.0127618)
(0.0772293 0.057897 -0.0149131)
(0.0558942 0.0801552 -0.0161479)
(0.0314515 0.0835737 -0.0111673)
(0.088072 0.0161876 -6.31254e-05)
(0.0751248 0.00974655 -0.00026184)
(0.0636811 0.00538818 -0.000491173)
(0.0581086 0.00238405 -0.000732418)
(0.0545373 0.00111792 -0.00103388)
(0.052085 0.000595706 -0.00142136)
(0.0498308 0.000419528 -0.00191691)
(0.0474469 0.000374057 -0.0025355)
(0.0445735 0.000390908 -0.00329901)
(0.0411801 0.000421343 -0.00421229)
(0.0367715 0.000476149 -0.00530318)
(0.0316828 0.000479478 -0.00650246)
(0.0249849 0.000527981 -0.00785616)
(0.0176929 0.000365668 -0.00896991)
(0.00873851 0.000322344 -0.00959855)
(0.000431549 -0.000960732 -0.00636514)
(0.103924 0.0155863 -0.000147849)
(0.103946 0.012883 -0.00048871)
(0.101617 0.00895111 -0.000864493)
(0.0986127 0.00540729 -0.0012528)
(0.095477 0.00349338 -0.00172272)
(0.0924165 0.00259357 -0.00232398)
(0.089114 0.00232378 -0.00309687)
(0.0853449 0.00240536 -0.00407132)
(0.0807053 0.00272515 -0.00528421)
(0.0750844 0.00320821 -0.00675442)
(0.0677906 0.00385708 -0.00852338)
(0.0590955 0.00456243 -0.0105169)
(0.0476761 0.00541326 -0.0127698)
(0.0347735 0.00595409 -0.0147469)
(0.0185326 0.00622413 -0.0158486)
(0.00334438 0.00293601 -0.0105384)
(0.103543 0.0098237 -0.000164084)
(0.106168 0.0114053 -0.000532383)
(0.106993 0.00952127 -0.000929694)
(0.105782 0.00699433 -0.00133562)
(0.103748 0.00536053 -0.00182528)
(0.101189 0.00454718 -0.00245232)
(0.0981082 0.00440709 -0.00325968)
(0.0943817 0.00475081 -0.00427973)
(0.0896575 0.00549214 -0.0055512)
(0.0838312 0.00656329 -0.00709666)
(0.0761551 0.00797324 -0.00895843)
(0.066871 0.00959025 -0.0110672)
(0.0544572 0.0114942 -0.0134505)
(0.0401794 0.0130298 -0.0155623)
(0.0217383 0.0138236 -0.0167281)
(0.00406765 0.00828794 -0.0110743)
(0.10176 0.00668124 -0.000154466)
(0.104044 0.00940761 -0.00051578)
(0.105611 0.00885494 -0.000905117)
(0.105404 0.00740584 -0.00130154)
(0.104281 0.00633219 -0.00177958)
(0.102389 0.00586811 -0.00239132)
(0.0998132 0.00603055 -0.00317801)
(0.0964865 0.00674283 -0.00417089)
(0.0921032 0.0079811 -0.00540669)
(0.0865894 0.00972648 -0.00690822)
(0.0791593 0.0120384 -0.00871444)
(0.0700628 0.0148177 -0.0107625)
(0.057573 0.0182008 -0.0130725)
(0.0429929 0.021341 -0.0151243)
(0.0235622 0.0234984 -0.0162411)
(0.00436253 0.0154818 -0.0107187)
(0.100916 0.00471273 -0.000134658)
(0.102637 0.00756184 -0.000475841)
(0.104203 0.00786422 -0.000848188)
(0.104465 0.00728575 -0.00122778)
(0.10394 0.00680972 -0.00168502)
(0.102623 0.00678356 -0.00226849)
(0.100587 0.00732372 -0.0030161)
(0.0977847 0.00844775 -0.00395645)
(0.0939389 0.0101956 -0.00512221)
(0.0890133 0.0126081 -0.00653492)
(0.0821898 0.015801 -0.00822701)
(0.0737497 0.019728 -0.0101444)
(0.0616715 0.0246041 -0.0122952)
(0.047299 0.029404 -0.0142105)
(0.0267611 0.0331209 -0.015226)
(0.00543532 0.022308 -0.0100206)
(0.100557 0.00350723 -0.000110841)
(0.101911 0.0060772 -0.000426)
(0.103381 0.00680388 -0.000777195)
(0.103928 0.00681096 -0.00113651)
(0.103842 0.00683833 -0.00156847)
(0.10302 0.00723801 -0.00211725)
(0.101508 0.00816964 -0.00281673)
(0.0992632 0.00972039 -0.00369218)
(0.0960271 0.0119976 -0.00477113)
(0.0917955 0.0151362 -0.00607335)
(0.0857156 0.0193659 -0.00762284)
(0.0781097 0.0248303 -0.0093762)
(0.0666177 0.0320111 -0.0113253)
(0.0527021 0.0400249 -0.0130683)
(0.031026 0.0479369 -0.0139564)
(0.00723583 0.0353962 -0.00917438)
(0.100426 0.00255533 -8.36382e-05)
(0.10163 0.00472522 -0.000368659)
(0.103091 0.00567836 -0.000695553)
(0.103868 0.006105 -0.0010317)
(0.104146 0.00655259 -0.00143451)
(0.103779 0.00733019 -0.00194291)
(0.102807 0.00860927 -0.00258587)
(0.10121 0.0105206 -0.00338419)
(0.0987781 0.0132179 -0.00435861)
(0.0955847 0.016915 -0.00552503)
(0.0908326 0.0219196 -0.00689549)
(0.0850069 0.0285594 -0.00843594)
(0.0754882 0.0375044 -0.0101145)
(0.0640929 0.0481331 -0.011613)
(0.0423463 0.0596692 -0.0123007)
(0.0164902 0.0450378 -0.00808048)
(0.10039 0.0017192 -5.47547e-05)
(0.101589 0.00342922 -0.000307418)
(0.103146 0.00446877 -0.000608279)
(0.104154 0.00518677 -0.00091976)
(0.104759 0.00596744 -0.00129151)
(0.104803 0.00705545 -0.00175687)
(0.104335 0.00861548 -0.00233968)
(0.10336 0.0108071 -0.00305597)
(0.101716 0.0138242 -0.00391945)
(0.0995362 0.0179804 -0.00494164)
(0.0960893 0.023704 -0.00612238)
(0.0920039 0.0317484 -0.00743606)
(0.0844893 0.0433091 -0.00882735)
(0.076006 0.0598776 -0.0100679)
(0.0551538 0.0825372 -0.0105685)
(0.0315137 0.085524 -0.00708772)
(0.0880641 0.0161883 -4.78578e-05)
(0.0750781 0.00974989 -0.000176376)
(0.0635729 0.00539128 -0.000317063)
(0.0579372 0.00238686 -0.000463769)
(0.0542965 0.00112118 -0.000645694)
(0.0517688 0.000599961 -0.000879761)
(0.0494295 0.000425209 -0.00117904)
(0.0469481 0.000381558 -0.00155187)
(0.0439675 0.000400801 -0.00201072)
(0.0404551 0.000434506 -0.00255625)
(0.0359412 0.000493982 -0.00320372)
(0.0307566 0.000505172 -0.00390802)
(0.0240623 0.000565045 -0.00469313)
(0.0168437 0.000425772 -0.00532896)
(0.00821194 0.000399095 -0.00566244)
(0.000358129 -0.000859118 -0.00376874)
(0.103912 0.0155918 -0.000103348)
(0.103879 0.0128956 -0.000320953)
(0.101461 0.0089672 -0.000553318)
(0.0983561 0.00542614 -0.000790051)
(0.0951083 0.00351672 -0.00107467)
(0.091924 0.00262373 -0.00143864)
(0.0884811 0.00236351 -0.00190634)
(0.0845502 0.00245781 -0.00249486)
(0.0797291 0.00279439 -0.00322518)
(0.0739058 0.00329888 -0.0041053)
(0.0664203 0.00397562 -0.00515715)
(0.0575503 0.00471534 -0.00632998)
(0.046095 0.00560967 -0.00763828)
(0.0332928 0.00620097 -0.008766)
(0.0175593 0.00650835 -0.00934952)
(0.00311899 0.00317468 -0.00621904)
(0.103532 0.00983466 -0.000113473)
(0.106099 0.0114286 -0.000348618)
(0.106832 0.00955281 -0.000594684)
(0.105517 0.00703291 -0.00084213)
(0.103366 0.00540849 -0.00113887)
(0.100677 0.00460865 -0.00151854)
(0.097449 0.00448754 -0.00200728)
(0.0935529 0.00485666 -0.00262363)
(0.0886381 0.00563163 -0.00338967)
(0.0825987 0.00674519 -0.00431549)
(0.0747183 0.00820946 -0.00542343)
(0.0652481 0.00988959 -0.00666527)
(0.0527893 0.0118709 -0.00805085)
(0.0386147 0.01348 -0.00925697)
(0.0207026 0.0143278 -0.00987534)
(0.00382923 0.00865334 -0.00653968)
(0.101749 0.00669595 -0.000107782)
(0.103977 0.00943896 -0.000338566)
(0.105454 0.00889865 -0.000579768)
(0.105145 0.00746056 -0.000821303)
(0.103908 0.00640098 -0.00111093)
(0.101891 0.00595672 -0.00148125)
(0.0991734 0.00614687 -0.00195743)
(0.0956834 0.00689637 -0.00255732)
(0.0911165 0.00818415 -0.00330187)
(0.0853982 0.00999211 -0.00420136)
(0.0777711 0.0123841 -0.00527626)
(0.0684965 0.0152553 -0.00648229)
(0.0559631 0.0187498 -0.00782513)
(0.0414862 0.0219878 -0.00899672)
(0.0225678 0.0242171 -0.00958818)
(0.00414901 0.0159821 -0.00633236)
(0.100906 0.00473102 -9.55125e-05)
(0.102573 0.00760076 -0.000313946)
(0.104051 0.00791908 -0.000544744)
(0.104217 0.00735514 -0.000775968)
(0.103585 0.00689743 -0.00105293)
(0.102149 0.00689683 -0.00140603)
(0.099981 0.00747269 -0.00185851)
(0.0970267 0.00864488 -0.00242667)
(0.0930105 0.0104571 -0.00312912)
(0.0878964 0.0129512 -0.00397554)
(0.0808913 0.0162491 -0.00498286)
(0.0722894 0.0202968 -0.00611217)
(0.0601723 0.0253205 -0.00736293)
(0.0459028 0.0302482 -0.00845646)
(0.0258429 0.0340641 -0.00899333)
(0.00525529 0.022965 -0.00592701)
(0.100547 0.00352817 -8.08687e-05)
(0.10185 0.00612183 -0.00028329)
(0.103237 0.0068672 -0.000501055)
(0.103693 0.00689155 -0.000719846)
(0.103507 0.0069407 -0.000981361)
(0.102576 0.00737068 -0.00131333)
(0.100943 0.00834472 -0.00173656)
(0.0985601 0.00995301 -0.00226538)
(0.0951702 0.0123076 -0.00291545)
(0.0907702 0.0155456 -0.00369548)
(0.0845284 0.0199047 -0.00461767)