/*--------------------------------*- C++ -*----------------------------------*\
| =========                 |                                                 |
| \\      /  F ield         | OpenFOAM: The Open Source CFD Toolbox           |
|  \\    /   O peration     | Version:  v1912                                 |
|   \\  /    A nd           | Website:  www.openfoam.com                      |
|    \\/     M anipulation  |                                                 |
\*---------------------------------------------------------------------------*/
FoamFile
{
    version     2.0;
    format      ascii;
    class       surfaceScalarField;
    location    "0.76/fluid";
    object      meshPhi;
}
// * * * * * * * * * * * * * * * * * * * * * * * * * * * * * * * * * * * * * //

dimensions      [0 3 -1 0 0 0 0];
oriented        oriented;


internalField   nonuniform List<scalar> 
41600
(
1.51844e-13
-3.93672e-13
1.48126e-13
-1.53016e-13
2.90212e-13
-1.14674e-12
4.36618e-13
-4.5126e-13
4.20876e-13
-1.8454e-12
7.19586e-13
-7.44416e-13
5.49143e-13
-2.51406e-12
1.01583e-12
-1.05226e-12
6.80196e-13
-3.16906e-12
1.34226e-12
-1.39274e-12
8.19604e-13
-3.81745e-12
1.71476e-12
-1.78294e-12
9.74055e-13
-4.45487e-12
2.1486e-12
-2.23976e-12
1.15253e-12
-5.06145e-12
2.65868e-12
-2.78033e-12
1.36837e-12
-5.59417e-12
3.25919e-12
-3.42224e-12
1.64362e-12
-5.97318e-12
3.96297e-12
-4.18387e-12
2.01833e-12
-6.05704e-12
4.78087e-12
-5.08625e-12
2.57075e-12
-5.59562e-12
5.72342e-12
-6.16056e-12
3.45489e-12
-4.13901e-12
6.808e-12
-7.4705e-12
4.93696e-12
-8.98435e-13
8.06821e-12
-9.16072e-12
7.10872e-12
4.92062e-12
9.47855e-12
-1.13801e-11
1.44965e-11
1.18783e-11
-1.71961e-11
4.51704e-13
-7.75731e-13
4.40511e-13
-4.55063e-13
8.63179e-13
-2.26015e-12
1.29836e-12
-1.34192e-12
1.25141e-12
-3.63878e-12
2.13948e-12
-2.21329e-12
1.63195e-12
-4.9607e-12
3.01952e-12
-3.12776e-12
2.01998e-12
-6.25964e-12
3.98861e-12
-4.13844e-12
2.43168e-12
-7.55226e-12
5.09369e-12
-5.29589e-12
2.88614e-12
-8.83457e-12
6.37999e-12
-6.65004e-12
3.40819e-12
-1.00751e-11
7.8914e-12
-8.25126e-12
4.0333e-12
-1.12031e-11
9.66937e-12
-1.01505e-11
4.81695e-12
-1.20888e-11
1.17498e-11
-1.23991e-11
5.85339e-12
-1.2513e-11
1.41586e-11
-1.50497e-11
7.31315e-12
-1.21281e-11
1.69074e-11
-1.81655e-11
9.49841e-12
-1.04276e-11
1.99926e-11
-2.18478e-11
1.28485e-11
-6.83221e-12
2.33812e-11
-2.62827e-11
1.72733e-11
-1.39315e-12
2.68385e-11
-3.14823e-11
5.08638e-12
2.95012e-11
-3.80311e-11
7.40356e-13
-1.13477e-12
7.21625e-13
-7.45458e-13
1.41431e-12
-3.30738e-12
2.1266e-12
-2.19791e-12
2.04914e-12
-5.32858e-12
3.50319e-12
-3.62394e-12
2.66972e-12
-7.27266e-12
4.94189e-12
-5.11873e-12
3.30024e-12
-9.19265e-12
6.52411e-12
-6.76859e-12
3.96612e-12
-1.1119e-11
8.32617e-12
-8.65563e-12
4.69646e-12
-1.30558e-11
1.04216e-11
-1.08608e-11
5.52734e-12
-1.49734e-11
1.28817e-11
-1.34654e-11
6.5067e-12
-1.67963e-11
1.57734e-11
-1.65507e-11
7.70211e-12
-1.83839e-11
1.91527e-11
-2.0195e-11
9.21454e-12
-1.95051e-11
2.30529e-11
-2.4468e-11
1.12005e-11
-1.9818e-11
2.74661e-11
-2.94258e-11
1.38874e-11
-1.88901e-11
3.23126e-11
-3.51038e-11
1.74993e-11
-1.63671e-11
3.738e-11
-4.14903e-11
2.16167e-11
-1.25711e-11
4.21383e-11
-4.81594e-11
-8.37335e-12
4.58945e-11
-5.62074e-11
1.01099e-12
-1.45911e-12
9.84675e-13
-1.01716e-12
1.93034e-12
-4.25459e-12
2.90112e-12
-2.99825e-12
2.79428e-12
-6.86092e-12
4.77681e-12
-4.94112e-12
3.63566e-12
-9.37773e-12
6.73388e-12
-6.97417e-12
4.48627e-12
-1.18792e-11
8.88206e-12
-9.2137e-12
5.379e-12
-1.44138e-11
1.13243e-11
-1.17703e-11
6.35036e-12
-1.70017e-11
1.41599e-11
-1.4753e-11
7.44332e-12
-1.96291e-11
1.74856e-11
-1.82711e-11
8.71034e-12
-2.22384e-11
2.13926e-11
-2.24338e-11
1.02162e-11
-2.47125e-11
2.59579e-11
-2.73443e-11
1.20402e-11
-2.68543e-11
3.12261e-11
-3.3088e-11
1.4275e-11
-2.83687e-11
3.71781e-11
-3.97116e-11
1.70056e-11
-2.88698e-11
4.36746e-11
-4.71842e-11
2.02248e-11
-2.79805e-11
5.03574e-11
-5.53218e-11
2.34367e-11
-2.57459e-11
5.64413e-11
-6.33834e-11
-2.25191e-11
6.08903e-11
-7.20951e-11
1.25768e-12
-1.73727e-12
1.22368e-12
-1.26395e-12
2.39971e-12
-5.06821e-12
3.60412e-12
-3.72447e-12
3.4696e-12
-8.18149e-12
5.93042e-12
-6.13376e-12
4.5066e-12
-1.12014e-11
8.35207e-12
-8.64895e-12
5.54844e-12
-1.42238e-11
1.10031e-11
-1.1412e-11
6.63364e-12
-1.73183e-11
1.40091e-11
-1.45578e-11
7.80391e-12
-2.05273e-11
1.74917e-11
-1.8219e-11
9.10658e-12
-2.38635e-11
2.15699e-11
-2.25296e-11
1.05959e-11
-2.73044e-11
2.63579e-11
-2.76238e-11
1.23318e-11
-3.07827e-11
3.19562e-11
-3.36308e-11
1.43738e-11
-3.41706e-11
3.84318e-11
-4.066e-11
1.67647e-11
-3.72565e-11
4.57802e-11
-4.87722e-11
1.94862e-11
-3.9707e-11
5.3852e-11
-5.792e-11
2.23716e-11
-4.10251e-11
6.22058e-11
-6.78231e-11
2.48696e-11
-4.07046e-11
6.98012e-11
-7.74553e-11
-3.80933e-11
7.52094e-11
-8.71445e-11
1.47567e-12
-1.95825e-12
1.43385e-12
-1.48088e-12
2.81325e-12
-5.716e-12
4.22133e-12
-4.36178e-12
4.06161e-12
-9.23762e-12
6.94005e-12
-7.17704e-12
5.2646e-12
-1.26697e-11
9.76166e-12
-1.0107e-11
6.46408e-12
-1.6129e-11
1.28395e-11
-1.33141e-11
7.70231e-12
-1.97066e-11
1.63169e-11
-1.69518e-11
9.02453e-12
-2.34693e-11
2.03325e-11
-2.11713e-11
1.04812e-11
-2.74613e-11
2.5023e-11
-2.61251e-11
1.21295e-11
-3.17039e-11
3.05221e-11
-3.19687e-11
1.40314e-11
-3.61939e-11
3.69541e-11
-3.88563e-11
1.6249e-11
-4.08994e-11
4.44177e-11
-4.69306e-11
1.88288e-11
-4.57467e-11
5.29536e-11
-5.62986e-11
2.17607e-11
-5.05754e-11
6.24721e-11
-6.69737e-11
2.48846e-11
-5.50129e-11
7.25764e-11
-7.87265e-11
2.76001e-11
-5.82494e-11
8.20945e-11
-9.03898e-11
-5.81847e-11
8.92759e-11
-1.02134e-10
1.66162e-12
-2.11213e-12
1.61179e-12
-1.66444e-12
3.16461e-12
-6.16877e-12
4.74271e-12
-4.89982e-12
4.56114e-12
-9.98109e-12
7.78898e-12
-8.05369e-12
5.8977e-12
-1.37141e-11
1.09385e-11
-1.13235e-11
7.21828e-12
-1.75022e-11
1.43583e-11
-1.48858e-11
8.56695e-12
-2.14553e-11
1.82032e-11
-1.89065e-11
9.99049e-12
-2.56628e-11
2.26226e-11
-2.35479e-11
1.15412e-11
-3.01978e-11
2.77636e-11
-2.89738e-11
1.32794e-11
-3.51217e-11
3.3772e-11
-3.5352e-11
1.5275e-11
-4.04909e-11
4.07888e-11
-4.28543e-11
1.76098e-11
-4.63658e-11
4.89417e-11
-5.16532e-11
2.03791e-11
-5.28246e-11
5.83266e-11
-6.19133e-11
2.36813e-11
-5.99706e-11
6.89591e-11
-7.37602e-11
2.75563e-11
-6.78796e-11
8.06163e-11
-8.71609e-11
3.15012e-11
-7.61014e-11
9.22203e-11
-1.01057e-10
-8.42377e-11
1.01919e-10
-1.16082e-10
1.81372e-12
1.75567e-12
-1.81275e-12
-2.19065e-12
3.45059e-12
5.16304e-12
-5.33322e-12
-6.40222e-12
4.96389e-12
8.46884e-12
-8.7551e-12
-1.03717e-11
6.40069e-12
1.1871e-11
-1.22863e-11
-1.42768e-11
7.80506e-12
1.55439e-11
-1.61111e-11
-1.82645e-11
9.22059e-12
1.96475e-11
-2.04006e-11
-2.24584e-11
1.06931e-11
2.43341e-11
-2.53203e-11
-2.69644e-11
1.22738e-11
2.97522e-11
-3.1035e-11
-3.18757e-11
1.40226e-11
3.60477e-11
-3.77123e-11
-3.72797e-11
1.60127e-11
4.33627e-11
-4.55242e-11
-4.3266e-11
1.83377e-11
5.18314e-11
-5.46483e-11
-4.99395e-11
2.1125e-11
6.1572e-11
-6.527e-11
-5.74396e-11
2.45478e-11
7.26602e-11
-7.75761e-11
-6.59617e-11
2.87868e-11
8.50156e-11
-9.16865e-11
-7.57397e-11
3.33833e-11
9.76797e-11
-1.06681e-10
-8.6343e-11
1.0983e-10
-1.2492e-10
-1.00147e-10
1.53456e-13
-4.02492e-13
1.37846e-13
2.93117e-13
-1.17255e-12
4.06148e-13
4.24651e-13
-1.8874e-12
6.68805e-13
5.53194e-13
-2.57246e-12
9.42928e-13
6.83631e-13
-3.245e-12
1.24375e-12
8.2097e-13
-3.91311e-12
1.58523e-12
9.70926e-13
-4.57381e-12
1.98026e-12
1.14079e-12
-5.20947e-12
2.44045e-12
1.34103e-12
-5.78157e-12
2.97514e-12
1.58859e-12
-6.21992e-12
3.58907e-12
1.91426e-12
-6.40442e-12
4.27819e-12
2.37804e-12
-6.13398e-12
5.0223e-12
3.09524e-12
-5.07385e-12
5.77117e-12
4.24735e-12
-2.70396e-12
6.41513e-12
5.84832e-12
1.37456e-12
6.74497e-12
6.78516e-12
6.49768e-12
4.5654e-13
-7.93053e-13
4.09944e-13
8.71912e-13
-2.31084e-12
1.20776e-12
1.26283e-12
-3.72128e-12
1.98851e-12
1.64436e-12
-5.07541e-12
2.8029e-12
2.03082e-12
-6.40879e-12
3.69603e-12
2.43681e-12
-7.73996e-12
4.70921e-12
2.87862e-12
-9.06731e-12
5.88069e-12
3.37631e-12
-1.03633e-11
7.2449e-12
3.9572e-12
-1.15646e-11
8.82936e-12
4.66255e-12
-1.25568e-11
1.06476e-11
5.56158e-12
-1.31544e-11
1.26859e-11
6.77817e-12
-1.30807e-11
1.48791e-11
8.52601e-12
-1.19782e-11
1.70673e-11
1.10814e-11
-9.54519e-12
1.89166e-11
1.42862e-11
-6.07016e-12
1.98693e-11
-3.35122e-12
1.86014e-11
7.48433e-13
-1.16001e-12
6.71567e-13
1.42897e-12
-3.38127e-12
1.97826e-12
2.06851e-12
-5.44889e-12
3.25611e-12
2.69124e-12
-7.43995e-12
4.58762e-12
3.32003e-12
-9.41005e-12
6.04607e-12
3.9779e-12
-1.13921e-11
7.6987e-12
4.68978e-12
-1.33932e-11
9.60789e-12
5.48464e-12
-1.53881e-11
1.18301e-11
6.39822e-12
-1.73096e-11
1.44108e-11
7.47731e-12
-1.90336e-11
1.73731e-11
8.7872e-12
-2.03634e-11
2.06956e-11
1.04225e-11
-2.10282e-11
2.42729e-11
1.25072e-11
-2.07357e-11
2.7847e-11
1.51175e-11
-1.93726e-11
3.0906e-11
1.78821e-11
-1.7431e-11
3.26807e-11
-1.6394e-11
3.2001e-11
1.02236e-12
-1.49147e-12
9.16424e-13
1.95111e-12
-4.34932e-12
2.69893e-12
2.82209e-12
-7.01517e-12
4.44028e-12
3.66737e-12
-9.59223e-12
6.25182e-12
4.51718e-12
-1.21577e-11
8.2324e-12
5.40156e-12
-1.4763e-11
1.04728e-11
6.35207e-12
-1.74313e-11
1.30578e-11
7.40321e-12
-2.01529e-11
1.60646e-11
8.59299e-12
-2.28771e-11
1.95573e-11
9.9617e-12
-2.54998e-11
2.35723e-11
1.15472e-11
-2.78508e-11
2.80902e-11
1.33724e-11
-2.9689e-11
3.29864e-11
1.54127e-11
-3.07346e-11
3.79458e-11
1.7523e-11
-3.07971e-11
4.23449e-11
1.92942e-11
-3.00743e-11
4.5245e-11
-2.96099e-11
4.53129e-11
1.27237e-12
-1.7757e-12
1.13897e-12
2.42675e-12
-5.18071e-12
3.35329e-12
3.50633e-12
-8.36474e-12
5.51328e-12
4.54962e-12
-1.14562e-11
7.75529e-12
5.59279e-12
-1.45545e-11
1.02002e-11
6.67143e-12
-1.77322e-11
1.29589e-11
7.82224e-12
-2.10345e-11
1.61355e-11
9.08385e-12
-2.44771e-11
1.98261e-11
1.04957e-11
-2.80418e-11
2.41131e-11
1.20928e-11
-3.16685e-11
2.90501e-11
1.38922e-11
-3.52432e-11
3.46319e-11
1.58651e-11
-3.85819e-11
4.07399e-11
1.78803e-11
-4.1406e-11
4.70436e-11
1.96293e-11
-4.33241e-11
5.28505e-11
2.06436e-11
-4.39552e-11
5.70312e-11
-4.35747e-11
5.79759e-11
1.49367e-12
-2.00149e-12
1.33477e-12
2.84661e-12
-5.84261e-12
3.92807e-12
4.10754e-12
-9.44389e-12
6.45288e-12
5.31973e-12
-1.29565e-11
9.06581e-12
6.52369e-12
-1.65012e-11
1.19052e-11
7.75909e-12
-2.01718e-11
1.50979e-11
9.0666e-12
-2.40376e-11
1.8763e-11
1.04889e-11
-2.81446e-11
2.30116e-11
1.20697e-11
-3.25154e-11
2.79418e-11
1.38488e-11
-3.71478e-11
3.36255e-11
1.585e-11
-4.2011e-11
4.00799e-11
1.80544e-11
-4.70325e-11
4.7214e-11
2.03447e-11
-5.2053e-11
5.47245e-11
2.24159e-11
-5.67037e-11
6.19104e-11
2.37219e-11
-6.0211e-11
6.74857e-11
-6.11395e-11
6.95621e-11
1.68281e-12
-2.15873e-12
1.50064e-12
3.20412e-12
-6.30522e-12
4.41396e-12
4.61617e-12
-1.02035e-11
7.24354e-12
5.96515e-12
-1.40235e-11
1.01609e-11
7.29405e-12
-1.79037e-11
1.33169e-11
8.64488e-12
-2.19569e-11
1.68487e-11
1.00608e-11
-2.62744e-11
2.0885e-11
1.15878e-11
-3.093e-11
2.55458e-11
1.32757e-11
-3.59841e-11
3.09392e-11
1.51767e-11
-4.14893e-11
3.71497e-11
1.73428e-11
-4.74982e-11
4.42149e-11
1.98173e-11
-5.40726e-11
5.20776e-11
2.26118e-11
-6.12819e-11
6.04862e-11
2.5637e-11
-6.91313e-11
6.87868e-11
2.84252e-11
-7.71246e-11
7.56057e-11
-8.43091e-11
7.87414e-11
1.83786e-12
1.63489e-12
-2.23897e-12
3.49581e-12
4.80604e-12
-6.54377e-12
5.02749e-12
7.8774e-12
-1.06026e-11
6.47995e-12
1.10298e-11
-1.45983e-11
7.89666e-12
1.44206e-11
-1.86819e-11
9.31983e-12
1.81921e-11
-2.298e-11
1.07927e-11
2.24756e-11
-2.76e-11
1.2362e-11
2.73925e-11
-3.2635e-11
1.40802e-11
3.30511e-11
-3.81698e-11
1.60079e-11
3.9537e-11
-4.42875e-11
1.82184e-11
4.68931e-11
-5.108e-11
2.0803e-11
5.5078e-11
-5.86622e-11
2.38727e-11
6.38779e-11
-6.71815e-11
2.75093e-11
7.27111e-11
-7.67747e-11
3.12845e-11
8.02155e-11
-8.69397e-11
8.38803e-11
-9.8892e-11
1.54385e-13
-4.10192e-13
1.22695e-13
2.94654e-13
-1.19512e-12
3.61367e-13
4.26253e-13
-1.92421e-12
5.94589e-13
5.53992e-13
-2.62371e-12
8.37254e-13
6.82241e-13
-3.3118e-12
1.10241e-12
8.15161e-13
-3.99772e-12
1.40166e-12
9.57006e-13
-4.68027e-12
1.74519e-12
1.11256e-12
-5.34512e-12
2.14113e-12
1.28787e-12
-5.96042e-12
2.59414e-12
1.4919e-12
-6.47008e-12
3.10214e-12
1.7402e-12
-6.78442e-12
3.65063e-12
2.06203e-12
-6.76873e-12
4.20271e-12
2.50949e-12
-6.23249e-12
4.68294e-12
3.1466e-12
-4.94432e-12
4.95665e-12
3.91002e-12
-2.84362e-12
4.85349e-12
-1.36975e-13
4.39367e-12
4.59365e-13
-8.08163e-13
3.64893e-13
8.7662e-13
-2.35511e-12
1.07462e-12
1.26784e-12
-3.79343e-12
1.7679e-12
1.64717e-12
-5.17579e-12
2.48887e-12
2.02748e-12
-6.5394e-12
3.27616e-12
2.42089e-12
-7.90483e-12
4.16419e-12
2.83958e-12
-9.27349e-12
5.18315e-12
3.29655e-12
-1.06232e-11
6.35742e-12
3.80687e-12
-1.19015e-11
7.701e-12
4.39009e-12
-1.30161e-11
9.20837e-12
5.07561e-12
-1.38268e-11
1.08378e-11
5.91174e-12
-1.41484e-11
1.24832e-11
6.97043e-12
-1.37932e-11
1.39309e-11
8.3001e-12
-1.27151e-11
1.48147e-11
9.67403e-12
-1.1308e-11
1.47162e-11
-1.08049e-11
1.33379e-11
7.53275e-13
-1.182e-12
5.97799e-13
1.43714e-12
-3.44566e-12
1.76028e-12
2.07756e-12
-5.55374e-12
2.89508e-12
2.69732e-12
-7.58562e-12
4.07397e-12
3.31705e-12
-9.59908e-12
5.35979e-12
3.95609e-12
-1.16295e-11
6.80861e-12
4.63319e-12
-1.36873e-11
8.46993e-12
5.36687e-12
-1.57532e-11
1.03842e-11
6.17514e-12
-1.77712e-11
1.25757e-11
7.07429e-12
-1.96396e-11
1.50389e-11
8.07644e-12
-2.12066e-11
1.77128e-11
9.18305e-12
-2.22872e-11
2.04407e-11
1.03638e-11
-2.27368e-11
2.2913e-11
1.14948e-11
-2.26342e-11
2.46258e-11
1.22606e-11
-2.24872e-11
2.50546e-11
-2.32472e-11
2.4173e-11
1.02941e-12
-1.51957e-12
8.15831e-13
1.96321e-12
-4.43158e-12
2.40177e-12
2.83612e-12
-7.14902e-12
3.94835e-12
3.67853e-12
-9.77786e-12
5.55251e-12
4.51795e-12
-1.23978e-11
7.29905e-12
5.37996e-12
-1.50627e-11
9.26386e-12
6.28871e-12
-1.77986e-11
1.15144e-11
7.26638e-12
-2.06005e-11
1.41068e-11
8.33042e-12
-2.34259e-11
1.70775e-11
9.48665e-12
-2.61872e-11
2.0426e-11
1.07152e-11
-2.87469e-11
2.40851e-11
1.19433e-11
-3.09263e-11
2.78735e-11
1.30002e-11
-3.25543e-11
3.14334e-11
1.35755e-11
-3.359e-11
3.41933e-11
1.33687e-11
-3.4273e-11
3.55485e-11
-3.52921e-11
3.54463e-11
1.28183e-12
-1.80896e-12
1.01407e-12
2.44329e-12
-5.27804e-12
2.98445e-12
3.5264e-12
-8.52296e-12
4.90316e-12
4.56791e-12
-1.16752e-11
6.88891e-12
5.60108e-12
-1.48369e-11
9.04548e-12
6.6568e-12
-1.80825e-11
1.14658e-11
7.76402e-12
-2.14591e-11
1.42331e-11
8.9486e-12
-2.49846e-11
1.74179e-11
1.0229e-11
-2.86441e-11
2.10692e-11
1.16055e-11
-3.23837e-11
2.51965e-11
1.30386e-11
-3.6103e-11
2.97369e-11
1.4407e-11
-3.96452e-11
3.4505e-11
1.54419e-11
-4.27856e-11
3.91233e-11
1.56844e-11
-4.52271e-11
4.29729e-11
1.4781e-11
-4.66749e-11
4.53361e-11
-4.72804e-11
4.60426e-11
1.5057e-12
-2.03878e-12
1.18857e-12
2.86801e-12
-5.95169e-12
3.49656e-12
4.13457e-12
-9.62109e-12
5.73975e-12
5.34697e-12
-1.32015e-11
8.0546e-12
6.54294e-12
-1.68161e-11
1.056e-11
7.75765e-12
-2.05603e-11
1.33624e-11
9.02441e-12
-2.4504e-11
1.65573e-11
1.03739e-11
-2.86923e-11
2.02268e-11
1.18302e-11
-3.31455e-11
2.4431e-11
1.34014e-11
-3.78569e-11
2.919e-11
1.50587e-11
-4.2788e-11
3.44514e-11
1.66971e-11
-4.78531e-11
4.00363e-11
1.80676e-11
-5.28751e-11
4.55623e-11
1.87112e-11
-5.74733e-11
5.03679e-11
1.81719e-11
-6.09126e-11
5.36065e-11
-6.18108e-11
5.50062e-11
1.69748e-12
-2.19876e-12
1.3365e-12
3.23063e-12
-6.42233e-12
3.92976e-12
4.65077e-12
-1.03937e-11
6.44428e-12
6.00263e-12
-1.42862e-11
9.02961e-12
7.32678e-12
-1.82407e-11
1.18154e-11
8.66127e-12
-2.2371e-11
1.49171e-11
1.00428e-11
-2.67677e-11
1.84381e-11
1.15069e-11
-3.15014e-11
2.24675e-11
1.30865e-11
-3.66255e-11
2.7072e-11
1.48065e-11
-4.21791e-11
3.2279e-11
1.66734e-11
-4.819e-11
3.80441e-11
1.86533e-11
-5.46743e-11
4.41967e-11
2.06327e-11
-6.16179e-11
5.03508e-11
2.2357e-11
-6.88887e-11
5.5795e-11
2.33979e-11
-7.58821e-11
5.9525e-11
-8.15269e-11
6.10926e-11
1.85513e-12
1.45632e-12
-2.28035e-12
3.52741e-12
4.27964e-12
-6.66485e-12
5.06979e-12
7.00968e-12
-1.07993e-11
6.52819e-12
9.80414e-12
-1.48698e-11
7.94412e-12
1.27987e-11
-1.90299e-11
9.35654e-12
1.6113e-11
-2.34067e-11
1.08034e-11
1.98529e-11
-2.81059e-11
1.2323e-11
2.41086e-11
-3.32162e-11
1.39541e-11
2.89469e-11
-3.88122e-11
1.57355e-11
3.43947e-11
-4.49588e-11
1.77033e-11
4.04086e-11
-5.17154e-11
1.98846e-11
4.68205e-11
-5.91382e-11
2.22815e-11
5.32451e-11
-6.72711e-11
2.48182e-11
5.89527e-11
-7.60836e-11
2.70828e-11
6.28422e-11
-8.49584e-11
6.38392e-11
-9.46963e-11
1.54755e-13
-4.16657e-13
1.03329e-13
2.95081e-13
-1.21407e-12
3.04223e-13
4.26136e-13
-1.95512e-12
5.00206e-13
5.52329e-13
-2.66676e-12
7.0354e-13
6.77424e-13
-3.36796e-12
9.24799e-13
8.04607e-13
-4.06901e-12
1.17309e-12
9.36551e-13
-4.77044e-12
1.45591e-12
1.07544e-12
-5.46115e-12
1.77848e-12
1.22298e-12
-6.11561e-12
2.1421e-12
1.38068e-12
-6.69028e-12
2.54123e-12
1.55114e-12
-7.12012e-12
2.95861e-12
1.74076e-12
-7.31728e-12
3.35847e-12
1.96302e-12
-7.17374e-12
3.6792e-12
2.23199e-12
-6.57351e-12
3.8344e-12
2.50686e-12
-5.47864e-12
3.75617e-12
-3.66941e-12
3.66194e-12
4.60544e-13
-8.20844e-13
3.0731e-13
8.7806e-13
-2.39226e-12
9.04727e-13
1.26779e-12
-3.85396e-12
1.48734e-12
1.64274e-12
-5.25994e-12
2.09149e-12
2.01402e-12
-6.6488e-12
2.74849e-12
2.39099e-12
-8.04292e-12
3.48536e-12
2.78135e-12
-9.44655e-12
4.32445e-12
3.19082e-12
-1.08427e-11
5.28142e-12
3.62245e-12
-1.21889e-11
6.36062e-12
4.07591e-12
-1.34121e-11
7.54659e-12
4.54739e-12
-1.4408e-11
8.79038e-12
5.03089e-12
-1.50536e-11
9.99076e-12
5.51789e-12
-1.52509e-11
1.09757e-11
5.98158e-12
-1.50229e-11
1.15114e-11
6.31968e-12
-1.46311e-11
1.1432e-11
-1.46942e-11
1.07899e-11
7.55461e-13
-1.20043e-12
5.03497e-13
1.44005e-12
-3.49961e-12
1.4821e-12
2.07845e-12
-5.6415e-12
2.43583e-12
2.69168e-12
-7.70726e-12
3.42382e-12
3.29773e-12
-9.75642e-12
4.49699e-12
3.91176e-12
-1.18264e-11
5.69946e-12
4.54583e-12
-1.39307e-11
7.068e-12
5.20776e-12
-1.60552e-11
8.62895e-12
5.8984e-12
-1.81538e-11
1.03912e-11
6.60678e-12
-2.01433e-11
1.23334e-11
7.30251e-12
-2.19058e-11
1.4384e-11
7.92476e-12
-2.33109e-11
1.63954e-11
8.36904e-12
-2.42829e-11
1.81231e-11
8.48761e-12
-2.49291e-11
1.92521e-11
8.1982e-12
-2.55982e-11
1.95814e-11
-2.67791e-11
1.93907e-11
1.03289e-12
-1.54308e-12
6.87204e-13
1.96825e-12
-4.50034e-12
2.02243e-12
2.8392e-12
-7.26064e-12
3.3224e-12
3.67397e-12
-9.93203e-12
4.667e-12
4.49684e-12
-1.25961e-11
6.12501e-12
5.32829e-12
-1.53083e-11
7.75621e-12
6.18449e-12
-1.80971e-11
9.61098e-12
7.07506e-12
-2.09608e-11
1.17265e-11
7.99783e-12
-2.38631e-11
1.41181e-11
8.92877e-12
-2.67285e-11
1.6764e-11
9.80427e-12
-2.94406e-11
1.95818e-11
1.04939e-11
-3.18555e-11
2.24e-11
1.07718e-11
-3.38438e-11
2.49397e-11
1.03465e-11
-3.53788e-11
2.68534e-11
9.18533e-12
-3.65935e-11
2.79099e-11
-3.78605e-11
2.8372e-11
1.28692e-12
-1.8367e-12
8.54303e-13
2.45119e-12
-5.35912e-12
2.51342e-12
3.53309e-12
-8.65433e-12
4.12644e-12
4.56703e-12
-1.1856e-11
5.79122e-12
5.58277e-12
-1.5068e-11
7.59199e-12
6.60578e-12
-1.83658e-11
9.60212e-12
7.65657e-12
-2.17972e-11
1.18839e-11
8.74798e-12
-2.53804e-11
1.44847e-11
9.87867e-12
-2.91009e-11
1.74274e-11
1.10198e-11
-3.29063e-11
2.06934e-11
1.20908e-11
-3.66991e-11
2.41979e-11
1.292e-11
-4.03279e-11
2.77589e-11
1.31986e-11
-4.35739e-11
3.10782e-11
1.25069e-11
-4.61366e-11
3.37799e-11
1.07576e-11
-4.76842e-11
3.55741e-11
-4.81995e-11
3.66641e-11
1.5127e-12
-2.06978e-12
1.00146e-12
2.87947e-12
-6.04223e-12
2.94517e-12
4.14622e-12
-9.76755e-12
4.83134e-12
5.35225e-12
-1.34025e-11
6.77248e-12
6.53182e-12
-1.70715e-11
8.86521e-12
7.71481e-12
-2.08703e-11
1.11937e-11
8.9264e-12
-2.48677e-11
1.38296e-11
1.01849e-11
-2.91056e-11
1.68284e-11
1.14959e-11
-3.35984e-11
2.02195e-11
1.28407e-11
-3.83291e-11
2.39887e-11
1.41539e-11
-4.3242e-11
2.80511e-11
1.52859e-11
-4.82235e-11
3.22172e-11
1.59535e-11
-5.30542e-11
3.61667e-11
1.57373e-11
-5.73035e-11
3.94768e-11
1.44312e-11
-6.02337e-11
4.17791e-11
-6.04904e-11
4.32647e-11
1.70661e-12
-2.23194e-12
1.12629e-12
3.24617e-12
-6.51918e-12
3.31064e-12
4.66845e-12
-1.05502e-11
5.4254e-12
6.01606e-12
-1.45004e-11
7.59397e-12
7.32639e-12
-1.85117e-11
9.92179e-12
8.63268e-12
-2.26974e-11
1.25003e-11
9.9643e-12
-2.71453e-11
1.54074e-11
1.13458e-11
-3.192e-11
1.87032e-11
1.27939e-11
-3.70636e-11
2.24206e-11
1.431e-11
-4.25955e-11
2.65474e-11
1.58683e-11
-4.85104e-11
3.09971e-11
1.73944e-11
-5.47689e-11
3.55694e-11
1.87393e-11
-6.12703e-11
3.9911e-11
1.96722e-11
-6.77722e-11
4.35182e-11
1.99852e-11
-7.36505e-11
4.5899e-11
-7.79104e-11
4.72232e-11
1.86648e-12
1.22749e-12
-2.31455e-12
3.54732e-12
3.60606e-12
-6.76467e-12
5.09413e-12
5.9026e-12
-1.09605e-11
6.55101e-12
8.24734e-12
-1.50902e-11
7.95675e-12
1.07508e-11
-1.9308e-11
9.34619e-12
1.35079e-11
-2.37399e-11
1.07511e-11
1.65985e-11
-2.84879e-11
1.22004e-11
2.00834e-11
-3.36325e-11
1.37193e-11
2.39949e-11
-3.92345e-11
1.53271e-11
2.83188e-11
-4.53342e-11
1.70325e-11
3.29642e-11
-5.19509e-11
1.88262e-11
3.77209e-11
-5.90768e-11
2.06737e-11
4.22076e-11
-6.66598e-11
2.25027e-11
4.58525e-11
-7.45543e-11
2.40828e-11
4.80464e-11
-8.21558e-11
4.85562e-11
-9.02452e-11
1.54734e-13
-4.21818e-13
8.05175e-14
2.94757e-13
-1.22919e-12
2.36991e-13
4.24931e-13
-1.97977e-12
3.89421e-13
5.49261e-13
-2.70109e-12
5.47188e-13
6.70905e-13
-3.41269e-12
7.18237e-13
7.92142e-13
-4.12569e-12
9.09213e-13
9.14272e-13
-4.84196e-12
1.12527e-12
1.03736e-12
-5.55283e-12
1.36945e-12
1.15987e-12
-6.23726e-12
1.64137e-12
1.27853e-12
-6.85968e-12
1.93504e-12
1.38902e-12
-7.36875e-12
2.23588e-12
1.4885e-12
-7.69751e-12
2.51765e-12
1.58111e-12
-7.76322e-12
2.74195e-12
1.68217e-12
-7.46062e-12
2.86702e-12
1.79541e-12
-6.69418e-12
2.87512e-12
-5.05607e-12
2.98158e-12
4.60571e-13
-8.30972e-13
2.39477e-13
8.77289e-13
-2.42193e-12
7.04815e-13
1.26453e-12
-3.90225e-12
1.15799e-12
1.63413e-12
-5.32695e-12
1.62677e-12
1.99547e-12
-6.73569e-12
2.13471e-12
2.35535e-12
-8.15217e-12
2.70153e-12
2.71756e-12
-9.5828e-12
3.34263e-12
3.08189e-12
-1.10144e-11
4.06723e-12
3.44261e-12
-1.24112e-11
4.87461e-12
3.78677e-12
-1.37121e-11
5.74791e-12
4.09363e-12
-1.48316e-11
6.64565e-12
4.33794e-12
-1.56718e-11
7.49341e-12
4.50077e-12
-1.61521e-11
8.18283e-12
4.58824e-12
-1.62637e-11
8.59613e-12
4.63502e-12
-1.61272e-11
8.68453e-12
-1.61118e-11
8.47312e-12
7.55776e-13
-1.21515e-12
3.92387e-13
1.43936e-12
-3.54267e-12
1.1547e-12
2.07409e-12
-5.7114e-12
1.89662e-12
2.67917e-12
-7.80383e-12
2.66331e-12
3.26999e-12
-9.88072e-12
3.4931e-12
3.85783e-12
-1.19809e-11
4.41823e-12
4.44892e-12
-1.412e-11
5.46413e-12
5.04245e-12
-1.62874e-11
6.64656e-12
5.62695e-12
-1.84429e-11
7.96586e-12
6.1748e-12
-2.05139e-11
9.39768e-12
6.63595e-12
-2.23978e-11
1.08808e-11
6.9339e-12
-2.39816e-11
1.23062e-11
6.97494e-12
-2.51922e-11
1.35188e-11
6.69831e-12
-2.60843e-11
1.43574e-11
6.21826e-12
-2.68709e-11
1.47596e-11
-2.78882e-11
1.48931e-11
1.03383e-12
-1.56183e-12
5.3561e-13
1.96839e-12
-4.55511e-12
1.57585e-12
2.83509e-12
-7.34929e-12
2.58724e-12
3.65994e-12
-1.00539e-11
3.63081e-12
4.46402e-12
-1.27516e-11
4.75835e-12
5.2631e-12
-1.54989e-11
6.01363e-12
6.06638e-12
-1.83255e-11
7.43162e-12
6.87343e-12
-2.12311e-11
9.03491e-12
7.66832e-12
-2.41821e-11
1.08266e-11
8.4098e-12
-2.71073e-11
1.27792e-11
9.01697e-12
-2.98964e-11
1.48204e-11
9.35334e-12
-3.24091e-11
1.68219e-11
9.22725e-12
-3.45058e-11
1.86059e-11
8.47112e-12
-3.61115e-11
1.9996e-11
7.2573e-12
-3.72733e-11
2.09149e-11
-3.82931e-11
2.15029e-11
1.28886e-12
-1.85878e-12
6.65934e-13
2.45299e-12
-5.42353e-12
1.95869e-12
3.53079e-12
-8.75827e-12
3.21382e-12
4.55421e-12
-1.19981e-11
4.50612e-12
5.54958e-12
-1.52477e-11
5.89903e-12
6.53728e-12
-1.85829e-11
7.44637e-12
7.53048e-12
-2.2051e-11
9.19155e-12
8.5317e-12
-2.56686e-11
1.11636e-11
9.52597e-12
-2.94188e-11
1.33694e-11
1.04687e-11
-3.32446e-11
1.5781e-11
1.1266e-11
-3.70413e-11
1.83202e-11
1.17493e-11
-4.0644e-11
2.08465e-11
1.16594e-11
-4.38093e-11
2.31658e-11
1.07176e-11
-4.61987e-11
2.50843e-11
9.03237e-12
-4.74583e-11
2.64925e-11
-4.75889e-11
2.74936e-11
1.51597e-12
-2.09438e-12
7.80761e-13
2.88372e-12
-6.11392e-12
2.2955e-12
4.14723e-12
-9.88294e-12
3.76343e-12
5.34333e-12
-1.35595e-11
5.27056e-12
6.50285e-12
-1.72685e-11
6.88975e-12
7.65067e-12
-2.1105e-11
8.6828e-12
8.80483e-12
-2.51353e-11
1.06998e-11
9.97384e-12
-2.93968e-11
1.29749e-11
1.11509e-11
-3.38956e-11
1.55181e-11
1.23034e-11
-3.86011e-11
1.83015e-11
1.33562e-11
-4.34359e-11
2.12416e-11
1.41674e-11
-4.8254e-11
2.41846e-11
1.4508e-11
-5.27927e-11
2.69113e-11
1.40999e-11
-5.65838e-11
2.91903e-11
1.29198e-11
-5.8927e-11
3.0872e-11
-5.86334e-11
3.20782e-11
1.7115e-12
-2.25819e-12
8.78218e-13
3.25353e-12
-6.59563e-12
2.58076e-12
4.67403e-12
-1.0673e-11
4.2269e-12
6.01328e-12
-1.46668e-11
5.91101e-12
7.30548e-12
-1.87191e-11
7.71273e-12
8.57925e-12
-2.29416e-11
9.69932e-12
9.85746e-12
-2.74181e-11
1.19251e-11
1.11559e-11
-3.22058e-11
1.44272e-11
1.24802e-11
-3.73339e-11
1.72169e-11
1.38202e-11
-4.2801e-11
2.02647e-11
1.51421e-11
-4.8569e-11
2.34804e-11
1.63788e-11
-5.45513e-11
2.66925e-11
1.74301e-11
-6.05868e-11
2.96426e-11
1.81911e-11
-6.63872e-11
3.20292e-11
1.86208e-11
-7.13989e-11
3.36328e-11
-7.48673e-11
3.46257e-11
1.87317e-12
9.57267e-13
-2.34155e-12
3.55823e-12
2.81148e-12
-6.84323e-12
5.10514e-12
4.59948e-12
-1.10865e-11
6.55595e-12
6.42093e-12
-1.52606e-11
7.94663e-12
8.3594e-12
-1.95194e-11
9.30798e-12
1.04848e-11
-2.39867e-11
1.06661e-11
1.2853e-11
-2.87596e-11
1.20424e-11
1.55014e-11
-3.39097e-11
1.34529e-11
1.84399e-11
-3.9482e-11
1.49067e-11
2.16362e-11
-4.54928e-11
1.64052e-11
2.49929e-11
-5.19248e-11
1.7944e-11
2.83225e-11
-5.87191e-11
1.95243e-11
3.13312e-11
-6.57642e-11
2.11715e-11
3.3648e-11
-7.28765e-11
2.27961e-11
3.49726e-11
-7.95504e-11
3.52792e-11
-8.67709e-11
1.54506e-13
-4.25647e-13
5.51e-14
2.94076e-13
-1.24041e-12
1.62142e-13
4.2331e-13
-1.99808e-12
2.66311e-13
5.45856e-13
-2.72658e-12
3.73932e-13
6.64368e-13
-3.44584e-12
4.9029e-13
7.80409e-13
-4.16749e-12
6.19693e-13
8.94258e-13
-4.89426e-12
7.65328e-13
1.00456e-12
-5.61897e-12
9.28807e-13
1.10796e-12
-6.32299e-12
1.1093e-12
1.19907e-12
-6.97446e-12
1.30224e-12
1.27169e-12
-7.52698e-12
1.49788e-12
1.32287e-12
-7.91803e-12
1.6804e-12
1.36136e-12
-8.06334e-12
1.82943e-12
1.41644e-12
-7.83978e-12
1.92668e-12
1.51409e-12
-7.11184e-12
1.96679e-12
-5.43148e-12
2.10187e-12
4.5998e-13
-8.38513e-13
1.63887e-13
8.75448e-13
-2.44401e-12
4.82243e-13
1.26001e-12
-3.93818e-12
7.91959e-13
1.62447e-12
-5.37673e-12
1.11176e-12
1.97677e-12
-6.79997e-12
1.45731e-12
2.32167e-12
-8.23244e-12
1.84141e-12
2.66009e-12
-9.68189e-12
2.2736e-12
2.9879e-12
-1.11373e-11
2.7588e-12
3.29443e-12
-1.25663e-11
3.29484e-12
3.56142e-12
-1.39127e-11
3.86876e-12
3.76459e-12
-1.50967e-11
4.4527e-12
3.88204e-12
-1.60222e-11
5.00142e-12
3.91506e-12
-1.65951e-11
5.45603e-12
3.91925e-12
-1.67587e-11
5.76098e-12
3.98975e-12
-1.65606e-11
5.89544e-12
-1.6321e-11
5.8401e-12
7.55068e-13
-1.22612e-12
2.68553e-13
1.43689e-12
-3.57475e-12
7.90134e-13
2.06756e-12
-5.76339e-12
1.29725e-12
2.66473e-12
-7.8754e-12
1.82033e-12
3.24161e-12
-9.97228e-12
2.38489e-12
3.80639e-12
-1.20937e-11
3.01188e-12
4.36105e-12
-1.42563e-11
3.71708e-12
4.89913e-12
-1.64512e-11
4.50906e-12
5.40241e-12
-1.86406e-11
5.38527e-12
5.83703e-12
-2.07549e-11
6.32662e-12
6.15137e-12
-2.26937e-11
7.29156e-12
6.28136e-12
-2.43394e-11
8.21305e-12
6.17576e-12
-2.55953e-11
9.00522e-12
5.8596e-12
-2.64585e-11
9.58838e-12
5.52152e-12
-2.70786e-11
9.92986e-12
-2.77925e-11
1.00908e-11
1.03333e-12
-1.5758e-12
3.66614e-13
1.96597e-12
-4.59589e-12
1.07843e-12
2.8278e-12
-7.4151e-12
1.76982e-12
3.64286e-12
-1.01438e-11
2.48189e-12
4.42955e-12
-1.28654e-11
3.24912e-12
5.19994e-12
-1.56368e-11
4.1e-12
5.95814e-12
-1.84877e-11
5.05632e-12
6.69722e-12
-2.14179e-11
6.13049e-12
7.39407e-12
-2.43934e-11
7.32083e-12
8.00212e-12
-2.73416e-11
8.60489e-12
8.44307e-12
-3.0148e-11
9.93265e-12
8.60333e-12
-3.26607e-11
1.1224e-11
8.35306e-12
-3.4713e-11
1.2379e-11
7.63283e-12
-3.61819e-11
1.33091e-11
6.67991e-12
-3.70836e-11
1.39698e-11
-3.77584e-11
1.4398e-11
1.28891e-12
-1.87521e-12
4.55874e-13
2.4514e-12
-5.47139e-12
1.3406e-12
3.52414e-12
-8.83519e-12
2.19872e-12
4.53693e-12
-1.21026e-11
3.08062e-12
5.51318e-12
-1.53784e-11
4.02857e-12
6.46929e-12
-1.87383e-11
5.07766e-12
7.41305e-12
-2.22282e-11
6.25498e-12
8.34042e-12
-2.58625e-11
7.57663e-12
9.22971e-12
-2.96197e-11
9.04239e-12
1.00327e-11
-3.34356e-11
1.06281e-11
1.06624e-11
-3.71935e-11
1.22781e-11
1.09807e-11
-4.07099e-11
1.39022e-11
1.08022e-11
-4.37142e-11
1.53887e-11
9.96641e-12
-4.58399e-11
1.66372e-11
8.63318e-12
-4.67449e-11
1.75836e-11
-4.65081e-11
1.82444e-11
1.51691e-12
-2.11265e-12
5.3455e-13
2.88372e-12
-6.16706e-12
1.57133e-12
4.14262e-12
-9.96804e-12
2.57507e-12
5.32828e-12
-1.36743e-11
3.60374e-12
6.4686e-12
-1.74107e-11
4.70592e-12
7.5845e-12
-2.1271e-11
5.92195e-12
8.68883e-12
-2.53188e-11
7.28308e-12
9.7839e-12
-2.95866e-11
8.80835e-12
1.0857e-11
-3.40717e-11
1.04986e-11
1.18737e-11
-3.87303e-11
1.23282e-11
1.27677e-11
-4.34654e-11
1.42354e-11
1.3431e-11
-4.81051e-11
1.6118e-11
1.37112e-11
-5.23594e-11
1.78443e-11
1.34478e-11
-5.57514e-11
1.92889e-11
1.26605e-11
-5.7639e-11
2.03684e-11
-5.69889e-11
2.1123e-11
1.7136e-12
-2.27765e-12
6.01352e-13
3.25576e-12
-6.65214e-12
1.76682e-12
4.67267e-12
-1.07632e-11
2.89258e-12
6.00256e-12
-1.4788e-11
4.04227e-12
7.27688e-12
-1.88678e-11
5.26903e-12
8.52056e-12
-2.31125e-11
6.61681e-12
9.75171e-12
-2.7602e-11
8.11953e-12
1.09806e-11
-3.2386e-11
9.7978e-12
1.22078e-11
-3.7482e-11
1.16525e-11
1.3422e-11
-4.28706e-11
1.36555e-11
1.45984e-11
-4.84884e-11
1.57381e-11
1.57023e-11
-5.42174e-11
1.7782e-11
1.6704e-11
-5.98687e-11
1.96254e-11
1.7607e-11
-6.51566e-11
2.1096e-11
1.84116e-11
-6.96188e-11
2.20759e-11
-7.26894e-11
2.26631e-11
1.87663e-12
6.55554e-13
-2.36151e-12
3.56314e-12
1.92501e-12
-6.90116e-12
5.10789e-12
3.14796e-12
-1.11788e-11
6.5511e-12
4.3917e-12
-1.53841e-11
7.92628e-12
5.71202e-12
-1.967e-11
9.26095e-12
7.1547e-12
-2.41579e-11
1.0577e-11
8.75459e-12
-2.89401e-11
1.18911e-11
1.05323e-11
-3.40795e-11
1.32149e-11
1.24875e-11
-3.96078e-11
1.45564e-11
1.45892e-11
-4.55211e-11
1.59249e-11
1.67618e-11
-5.17752e-11
1.7342e-11
1.88734e-11
-5.82798e-11
1.88672e-11
2.07346e-11