/*--------------------------------*- C++ -*----------------------------------*\
| =========                 |                                                 |
| \\      /  F ield         | OpenFOAM: The Open Source CFD Toolbox           |
|  \\    /   O peration     | Version:  v1912                                 |
|   \\  /    A nd           | Website:  www.openfoam.com                      |
|    \\/     M anipulation  |                                                 |
\*---------------------------------------------------------------------------*/
FoamFile
{
    version     2.0;
    format      ascii;
    class       surfaceScalarField;
    location    "0.76/fluid";
    object      phi;
}
// * * * * * * * * * * * * * * * * * * * * * * * * * * * * * * * * * * * * * //

dimensions      [0 3 -1 0 0 0 0];
oriented        oriented;


internalField   nonuniform List<scalar> 
41600
(
5.00946e-05
1.26007e-05
3.44391e-07
-5.39736e-07
3.99615e-05
1.04855e-05
5.86617e-07
-9.39045e-07
3.24585e-05
7.88472e-06
4.8782e-07
-8.69569e-07
2.7824e-05
4.96908e-06
1.25291e-07
-4.59795e-07
2.5078e-05
2.99501e-06
-4.47778e-07
1.98732e-07
2.3469e-05
1.76611e-06
-1.17305e-06
1.0159e-06
2.24324e-05
1.10788e-06
-2.04684e-06
1.97562e-06
2.16319e-05
7.88399e-07
-3.09763e-06
3.10968e-06
2.08743e-05
6.56984e-07
-4.38839e-06
4.48901e-06
2.00417e-05
6.03527e-07
-6.00483e-06
6.23389e-06
1.90585e-05
5.63076e-07
-8.09666e-06
8.51687e-06
1.77998e-05
4.35849e-07
-1.07871e-05
1.16099e-05
1.60894e-05
2.08065e-07
-1.44526e-05
1.59549e-05
1.33912e-05
-4.67684e-07
-1.87242e-05
2.18901e-05
8.4658e-06
-1.01773e-06
-2.36287e-05
2.95719e-05
-3.47403e-06
-1.91111e-05
3.10509e-05
6.4821e-05
1.0555e-05
4.78799e-07
-7.54073e-07
6.35834e-05
1.22579e-05
8.60326e-07
-1.39515e-06
6.11614e-05
1.09445e-05
7.8663e-07
-1.4244e-06
5.85351e-05
8.21439e-06
2.81615e-07
-9.00679e-07
5.625e-05
5.79593e-06
-6.23078e-07
1.07259e-07
5.43855e-05
4.00478e-06
-1.857e-06
1.48291e-06
5.28072e-05
2.91072e-06
-3.40073e-06
3.17618e-06
5.13226e-05
2.34767e-06
-5.28914e-06
5.21443e-06
4.97496e-05
2.14793e-06
-7.61944e-06
7.70152e-06
4.79028e-05
2.16039e-06
-1.05416e-05
1.08315e-05
4.55978e-05
2.2766e-06
-1.43012e-05
1.48927e-05
4.24841e-05
2.36294e-06
-1.91469e-05
2.03336e-05
3.81064e-05
2.36678e-06
-2.55945e-05
2.78134e-05
3.11321e-05
1.84789e-06
-3.31372e-05
3.77959e-05
2.02174e-05
1.0416e-06
-4.07353e-05
4.95907e-05
-2.14298e-06
-3.20522e-05
5.09385e-05
6.63719e-05
6.97975e-06
5.25862e-07
-8.22511e-07
6.87949e-05
1.04265e-05
9.58873e-07
-1.55046e-06
6.98809e-05
1.05801e-05
9.04972e-07
-1.62654e-06
6.98395e-05
8.97374e-06
3.82212e-07
-1.10014e-06
6.91664e-05
7.08653e-06
-5.83013e-07
-3.45389e-08
6.8147e-05
5.49125e-06
-1.92715e-06
1.46009e-06
6.6913e-05
4.44567e-06
-3.63279e-06
3.33184e-06
6.54637e-05
3.9279e-06
-5.73769e-06
5.60678e-06
6.37184e-05
3.84521e-06
-8.34501e-06
8.39302e-06
6.15164e-05
4.08199e-06
-1.16218e-05
1.19022e-05
5.86312e-05
4.54569e-06
-1.58347e-05
1.64509e-05
5.46098e-05
5.1142e-06
-2.12814e-05
2.25515e-05
4.88339e-05
5.72378e-06
-2.85076e-05
3.09266e-05
3.96352e-05
5.89034e-06
-3.70744e-05
4.22306e-05
2.53969e-05
5.30943e-06
-4.56959e-05
5.56663e-05
1.31006e-06
-3.63886e-05
5.83325e-05
6.52804e-05
4.49868e-06
5.4729e-07
-8.46608e-07
6.83835e-05
7.92947e-06
1.00945e-06
-1.61551e-06
7.08131e-05
8.89435e-06
9.72309e-07
-1.71615e-06
7.21927e-05
8.33762e-06
4.58533e-07
-1.20208e-06
7.26858e-05
7.23742e-06
-4.99612e-07
-1.4438e-07
7.24999e-05
6.16971e-06
-1.83845e-06
1.34592e-06
7.18089e-05
5.46079e-06
-3.54169e-06
3.21761e-06
7.06869e-05
5.20074e-06
-5.64856e-06
5.4977e-06
6.91149e-05
5.38523e-06
-8.26162e-06
8.29364e-06
6.69613e-05
5.96653e-06
-1.15523e-05
1.18212e-05
6.39905e-05
6.90343e-06
-1.57876e-05
1.64007e-05
5.96992e-05
8.1206e-06
-2.12907e-05
2.25756e-05
5.33702e-05
9.57547e-06
-2.86122e-05
3.10895e-05
4.31791e-05
1.07386e-05
-3.74093e-05
4.27522e-05
2.72926e-05
1.07685e-05
-4.63819e-05
5.68093e-05
5.45319e-06
-3.73415e-05
6.04909e-05
6.43416e-05
2.95376e-06
5.66686e-07
-8.63358e-07
6.71049e-05
5.77194e-06
1.05682e-06
-1.66259e-06
6.97374e-05
7.00642e-06
1.04357e-06
-1.78813e-06
7.16845e-05
7.13404e-06
5.52469e-07
-1.29601e-06
7.28453e-05
6.71994e-06
-3.76494e-07
-2.66799e-07
7.32836e-05
6.22379e-06
-1.67466e-06
1.18226e-06
7.31169e-05
5.95329e-06
-3.32214e-06
2.99633e-06
7.24189e-05
6.05414e-06
-5.35515e-06
5.19975e-06
7.1192e-05
6.58827e-06
-7.87003e-06
7.89393e-06
6.93238e-05
7.57892e-06
-1.10351e-05
1.12909e-05
6.65826e-05
9.05086e-06
-1.51056e-05
1.56994e-05
6.24318e-05
1.10134e-05
-2.04197e-05
2.16777e-05
5.60656e-05
1.34948e-05
-2.75104e-05
2.99572e-05
4.54683e-05
1.59991e-05
-3.61679e-05
4.15048e-05
2.84798e-05
1.72676e-05
-4.51088e-05
5.55982e-05
1.04797e-05
-3.66892e-05
6.01425e-05
6.38023e-05
1.9449e-06
5.87126e-07
-8.80552e-07
6.61391e-05
4.03698e-06
1.108e-06
-1.70984e-06
6.86554e-05
5.23016e-06
1.12662e-06
-1.86663e-06
7.08e-05
5.72736e-06
6.69043e-07
-1.40702e-06
7.23343e-05
5.82294e-06
-2.18246e-07
-4.19001e-07
7.3212e-05
5.83363e-06
-1.46004e-06
9.72489e-07
7.34831e-05
6.00622e-06
-3.02981e-06
2.70581e-06
7.31967e-05
6.49878e-06
-4.95726e-06
4.79904e-06
7.23564e-05
7.41373e-06
-7.32846e-06
7.34326e-06
7.08582e-05
8.84001e-06
-1.03041e-05
1.05412e-05
6.84737e-05
1.08739e-05
-1.41197e-05
1.46811e-05
6.46354e-05
1.36487e-05
-1.91235e-05
2.03265e-05
5.84598e-05
1.73095e-05
-2.58126e-05
2.81736e-05
4.77074e-05
2.15356e-05
-3.41472e-05
3.93631e-05
2.98271e-05
2.48225e-05
-4.28563e-05
5.31816e-05
1.69571e-05
-3.53842e-05
5.87338e-05
6.35551e-05
1.18086e-06
6.11225e-07
-9.02262e-07
6.5624e-05
2.5664e-06
1.16723e-06
-1.7656e-06
6.80251e-05
3.56499e-06
1.22506e-06
-1.96096e-06
7.02567e-05
4.2293e-06
8.10482e-07
-1.54401e-06
7.20275e-05
4.68516e-06
-2.4508e-08
-6.08526e-07
7.32329e-05
5.1134e-06
-1.19718e-06
7.12032e-07
7.38813e-05
5.68335e-06
-2.67132e-06
2.34574e-06
7.40096e-05
6.53691e-06
-4.46515e-06
4.2988e-06
7.36345e-05
7.79271e-06
-6.64715e-06
6.64323e-06
7.26844e-05
9.59126e-06
-9.35877e-06
9.55763e-06
7.09791e-05
1.20905e-05
-1.27949e-05
1.32836e-05
6.79859e-05
1.55831e-05
-1.72855e-05
1.83443e-05
6.2829e-05
2.03819e-05
-2.32286e-05
2.53132e-05
5.28736e-05
2.6811e-05
-3.07617e-05
3.54417e-05
3.4798e-05
3.36062e-05
-3.85148e-05
4.78066e-05
2.98704e-05
-3.23756e-05
5.42602e-05
6.34674e-05
6.38244e-07
-9.28218e-07
5.0346e-07
6.54359e-05
1.23281e-06
-1.82963e-06
1.19467e-06
6.7813e-05
1.33435e-06
-2.06858e-06
1.92213e-06
7.01302e-05
9.68686e-07
-1.70081e-06
2.64424e-06
7.20808e-05
1.92314e-07
-8.24735e-07
3.36698e-06
7.35377e-05
-9.04728e-07
4.18101e-07
4.14315e-06
7.44937e-05
-2.2755e-06
1.94468e-06
5.05814e-06
7.49857e-05
-3.92493e-06
3.74698e-06
6.22291e-06
7.50468e-05
-5.90199e-06
5.87595e-06
7.75765e-06
7.46374e-05
-8.32528e-06
8.48206e-06
9.84379e-06
7.3627e-05
-1.13466e-05
1.1758e-05
1.26896e-05
7.15346e-05
-1.52691e-05
1.61761e-05
1.67685e-05
6.75661e-05
-2.03879e-05
2.21881e-05
2.25501e-05
5.88454e-05
-2.70391e-05
3.11669e-05
3.14039e-05
4.17961e-05
-3.38471e-05
4.21076e-05
4.23951e-05
-2.99399e-05
5.05955e-05
5.10109e-05
5.00299e-05
1.26066e-05
2.07905e-07
3.9774e-05
1.05035e-05
3.3902e-07
3.2136e-05
7.90587e-06
2.19932e-07
2.73759e-05
4.98789e-06
-1.025e-07
2.45125e-05
3.01329e-06
-5.97705e-07
2.27809e-05
1.78757e-06
-1.22905e-06
2.15977e-05
1.13751e-06
-2.00114e-06
2.06086e-05
8.29642e-07
-2.93815e-06
1.95999e-05
7.13561e-07
-4.09324e-06
1.84369e-05
6.79243e-07
-5.52102e-06
1.70134e-05
6.66722e-07
-7.33989e-06
1.52109e-05
5.79953e-07
-9.5646e-06
1.27981e-05
4.1916e-07
-1.24588e-05
9.52839e-06
-1.4758e-07
-1.53069e-05
4.46033e-06
-6.87427e-07
-1.78733e-05
-2.62242e-06
-1.20283e-05
6.47299e-05
1.0569e-05
2.86553e-07
6.33146e-05
1.22928e-05
4.8627e-07
6.06717e-05
1.09929e-05
3.42601e-07
5.78108e-05
8.26774e-06
-1.37416e-07
5.52872e-05
5.85469e-06
-9.40801e-07
5.31696e-05
4.07493e-06
-2.02681e-06
5.12987e-05
3.00256e-06
-3.39486e-06
4.9449e-05
2.47118e-06
-5.08094e-06
4.73985e-05
2.31425e-06
-7.16962e-06
4.49225e-05
2.37998e-06
-9.76632e-06
4.17822e-05
2.56612e-06
-1.30604e-05
3.76208e-05
2.73425e-06
-1.71398e-05
3.19359e-05
2.84128e-06
-2.23317e-05
2.38655e-05
2.41577e-06
-2.76302e-05
1.25319e-05
1.56174e-06
-3.16509e-05
-1.56909e-06
-2.05736e-05
6.62797e-05
6.99753e-06
3.17635e-07
6.85167e-05
1.04707e-05
5.43917e-07
6.93654e-05
1.0648e-05
4.01168e-07
6.90633e-05
9.05853e-06
-1.06501e-07
6.81171e-05
7.1885e-06
-9.7059e-07
6.68041e-05
5.61804e-06
-2.15729e-06
6.52321e-05
4.61157e-06
-3.66975e-06
6.33649e-05
4.14979e-06
-5.54916e-06
6.1077e-05
4.14379e-06
-7.88663e-06
5.81599e-05
4.47859e-06
-1.08033e-05
5.43239e-05
5.07044e-06
-1.45031e-05
4.90999e-05
5.78717e-06
-1.91103e-05
4.1814e-05
6.57616e-06
-2.49567e-05
3.13132e-05
6.86608e-06
-3.10239e-05
1.65557e-05
6.22296e-06
-3.55996e-05
1.74305e-06
-2.31451e-05
6.51904e-05
4.51847e-06
3.35906e-07
6.81091e-05
7.97942e-06
5.82107e-07
7.03035e-05
8.97614e-06
4.49761e-07
7.14244e-05
8.44811e-06
-5.19898e-08
7.16451e-05
7.37844e-06
-9.10237e-07
7.11656e-05
6.35081e-06
-2.09168e-06
7.01364e-05
5.69982e-06
-3.60078e-06
6.85968e-05
5.52144e-06
-5.4806e-06
6.6482e-05
5.81897e-06
-7.82196e-06
6.36099e-05
6.54877e-06
-1.07504e-05
5.96774e-05
7.68413e-06
-1.44688e-05
5.41567e-05
9.13928e-06
-1.91221e-05
4.62639e-05
1.08938e-05
-2.5037e-05
3.4692e-05
1.22783e-05
-3.12497e-05
1.82019e-05
1.23163e-05
-3.59851e-05
6.03437e-06
-2.34309e-05
6.42537e-05
2.97574e-06
3.55693e-07
6.68356e-05
5.82765e-06
6.26691e-07
6.9239e-05
7.10044e-06
5.15926e-07
7.0937e-05
7.2667e-06
3.58932e-08
7.1838e-05
6.89525e-06
-7.94314e-07
7.19983e-05
6.45337e-06
-1.93752e-06
7.15124e-05
6.2584e-06
-3.39489e-06
7.04203e-05
6.46517e-06
-5.20679e-06
6.86799e-05
7.1476e-06
-7.45825e-06
6.61281e-05
8.33829e-06
-1.02728e-05
6.24638e-05
1.00853e-05
-1.38424e-05
5.71171e-05
1.23932e-05
-1.8327e-05
4.92006e-05
1.53344e-05
-2.40345e-05
3.71902e-05
1.82285e-05
-3.01077e-05
1.94772e-05
1.96961e-05
-3.47757e-05
1.14717e-05
-2.26493e-05
6.37161e-05
1.96967e-06
3.77051e-07
6.58752e-05
4.099e-06
6.77559e-07
6.81696e-05
5.33549e-06
5.97239e-07
7.00768e-05
5.87893e-06
1.49589e-07
7.13677e-05
6.02692e-06
-6.40842e-07
7.19886e-05
6.10373e-06
-1.73126e-06
7.19669e-05
6.36706e-06
-3.11678e-06
7.13195e-05
6.98712e-06
-4.83187e-06
7.00079e-05
8.08285e-06
-6.95208e-06
6.78779e-05
9.75939e-06
-9.5953e-06
6.46323e-05
1.21473e-05
-1.2936e-05
5.96614e-05
1.53875e-05
-1.7147e-05
5.19874e-05
1.97006e-05
-2.25048e-05
3.98201e-05
2.45506e-05
-2.8302e-05
2.1082e-05
2.83675e-05
-3.27896e-05
1.86141e-05
-2.14446e-05
6.34709e-05
1.20848e-06
4.01484e-07
6.53668e-05
2.6343e-06
7.36085e-07
6.75543e-05
3.67968e-06
6.93335e-07
6.95617e-05
4.3953e-06
2.86769e-07
7.11083e-05
4.91015e-06
-4.54345e-07
7.20826e-05
5.41261e-06
-1.48042e-06
7.24725e-05
6.08382e-06
-2.77798e-06
7.22859e-05
7.08003e-06
-4.37144e-06
7.15029e-05
8.53981e-06
-6.32113e-06
7.00075e-05
1.06267e-05
-8.73068e-06
6.756e-05
1.35421e-05
-1.17423e-05
6.35817e-05
1.7606e-05
-1.55257e-05
5.71038e-05
2.3236e-05
-2.02861e-05
4.58391e-05
3.05608e-05
-2.55072e-05
2.68006e-05
3.8329e-05
-2.94377e-05
3.23869e-05
-1.93478e-05
6.33854e-05
4.27924e-07
5.33419e-07
6.51861e-05
7.99554e-07
1.26688e-06
6.73589e-05
7.98486e-07
2.04268e-06
6.94659e-05
4.38257e-07
2.8187e-06
7.12124e-05
-2.47812e-07
3.60387e-06
7.24652e-05
-1.20353e-06
4.45851e-06
7.31991e-05
-2.40576e-06
5.4802e-06
7.34257e-05
-3.86727e-06
6.79578e-06
7.31474e-05
-5.63144e-06
8.54763e-06
7.22867e-05
-7.78461e-06
1.09467e-05
7.06647e-05
-1.04339e-05
1.42514e-05
6.77531e-05
-1.37402e-05
1.89886e-05
6.26814e-05
-1.78331e-05
2.57529e-05
5.28189e-05
-2.24144e-05
3.57986e-05
3.48212e-05
-2.58025e-05
4.8282e-05
-1.76429e-05
5.49112e-05
4.998e-05
1.26124e-05
1.15532e-07
3.96266e-05
1.05197e-05
1.72711e-07
3.18738e-05
7.92582e-06
4.6854e-08
2.6998e-05
5.00666e-06
-2.33322e-07
2.40189e-05
3.03155e-06
-6.50212e-07
2.21623e-05
1.80862e-06
-1.18101e-06
2.0829e-05
1.16551e-06
-1.83342e-06
1.96484e-05
8.67503e-07
-2.625e-06
1.83858e-05
7.64285e-07
-3.59496e-06
1.68885e-05
7.45511e-07
-4.76921e-06
1.50214e-05
7.54074e-07
-6.22689e-06
1.26791e-05
6.95852e-07
-7.91814e-06
9.64981e-06
5.71624e-07
-1.00012e-05
6.05506e-06
6.77527e-08
-1.17799e-05
1.65263e-06
-5.36807e-07
-1.2934e-05
-2.26806e-06
-8.10765e-06
6.46592e-05
1.05831e-05
1.56616e-07
6.31024e-05
1.23262e-05
2.36534e-07
6.02731e-05
1.10401e-05
5.76224e-08
5.72014e-05
8.32133e-06
-3.80305e-07
5.44511e-05
5.91409e-06
-1.07304e-06
5.20849e-05
4.14511e-06
-1.99718e-06
4.9924e-05
3.09247e-06
-3.16087e-06
4.77154e-05
2.58988e-06
-4.59475e-06
4.5202e-05
2.4722e-06
-6.36415e-06
4.21262e-05
2.58676e-06
-8.53176e-06
3.82074e-05
2.83626e-06
-1.12238e-05
3.31114e-05
3.07652e-06
-1.44245e-05
2.63861e-05
3.26722e-06
-1.83019e-05
1.77577e-05
2.90545e-06
-2.18395e-05
7.29502e-06
1.96512e-06
-2.36901e-05
-1.24551e-06
-1.43011e-05
6.62086e-05
7.01612e-06
1.76093e-07
6.82978e-05
1.05149e-05
2.66085e-07
6.89469e-05
1.07156e-05
7.65587e-08
6.84117e-05
9.14366e-06
-3.93634e-07
6.72083e-05
7.29078e-06
-1.14394e-06
6.56096e-05
5.74375e-06
-2.1572e-06
6.37049e-05
4.77338e-06
-3.44593e-06
6.14292e-05
4.36315e-06
-5.04674e-06
5.86179e-05
4.42806e-06
-7.0312e-06
5.50233e-05
4.85332e-06
-9.47531e-06
5.0308e-05
5.56288e-06
-1.25144e-05
4.40183e-05
6.41334e-06
-1.61575e-05
3.55303e-05
7.35968e-06
-2.05612e-05
2.43283e-05
7.74948e-06
-2.46658e-05
1.04414e-05
7.03936e-06
-2.67869e-05
2.12883e-06
-1.60781e-05
6.51215e-05
4.53944e-06
1.91054e-07
6.78944e-05
8.03011e-06
2.94022e-07
6.98916e-05
9.05789e-06
1.10186e-07
7.07816e-05
8.55832e-06
-3.56613e-07
7.07463e-05
7.51827e-06
-1.10246e-06
6.99812e-05
6.52833e-06
-2.11111e-06
6.86191e-05
5.93117e-06
-3.39652e-06
6.66706e-05
5.82836e-06
-4.99734e-06
6.40312e-05
6.23061e-06
-6.98507e-06
6.04766e-05
7.09737e-06
-9.43983e-06
5.56509e-05
8.41496e-06
-1.24952e-05
4.90334e-05
1.00849e-05
-1.61762e-05
3.98796e-05
1.21065e-05
-2.063e-05
2.75265e-05
1.3683e-05
-2.48301e-05
1.18493e-05
1.3745e-05
-2.70136e-05
6.71023e-06
-1.6163e-05
6.41869e-05
2.99868e-06
2.09549e-07
6.66263e-05
5.88382e-06
3.33602e-07
6.88382e-05
7.19363e-06
1.68314e-07
7.0314e-05
7.39741e-06
-2.79046e-07
7.09707e-05
7.06675e-06
-9.99532e-07
7.08598e-05
6.67588e-06
-1.97407e-06
7.00585e-05
6.55146e-06
-3.21393e-06
6.85789e-05
6.85675e-06
-4.75555e-06
6.63397e-05
7.67705e-06
-6.66553e-06
6.31345e-05
9.05271e-06
-9.02298e-06
5.86063e-05
1.10531e-05
-1.19524e-05
5.21824e-05
1.36743e-05
-1.54924e-05
4.29992e-05
1.70296e-05
-1.97744e-05
3.01599e-05
2.02715e-05
-2.38569e-05
1.31501e-05
2.19589e-05
-2.59799e-05
1.2696e-05
-1.54849e-05
6.36511e-05
1.99477e-06
2.29914e-07
6.56714e-05
4.16038e-06
3.80684e-07
6.7781e-05
5.4384e-06
2.42805e-07
6.9477e-05
6.02615e-06
-1.75169e-07
7.05388e-05
6.22392e-06
-8.59744e-07
7.09078e-05
6.36296e-06
-1.78738e-06
7.05952e-05
6.71139e-06
-2.96412e-06
6.9591e-05
7.45059e-06
-4.4215e-06
6.7819e-05
8.71509e-06
-6.21817e-06
6.50818e-05
1.06241e-05
-8.42941e-06
6.1025e-05
1.33399e-05
-1.1166e-05
5.50261e-05
1.70061e-05
-1.44799e-05
4.61161e-05
2.19144e-05
-1.84796e-05
3.30972e-05
2.73364e-05
-2.23479e-05
1.49196e-05
3.17071e-05
-2.43602e-05
2.06974e-05
-1.45264e-05
6.34078e-05
1.23556e-06
2.52872e-07
6.51694e-05
2.70004e-06
4.34817e-07
6.71803e-05
3.78992e-06
3.30922e-07
6.89889e-05
4.55426e-06
-4.99637e-08
7.03239e-05
5.12497e-06
-6.9039e-07
7.10702e-05
5.69753e-06
-1.56129e-06
7.12009e-05
6.46409e-06
-2.66132e-06
7.06997e-05
7.59431e-06
-4.01398e-06
6.95138e-05
9.24566e-06
-5.6658e-06
6.74876e-05
1.16022e-05
-7.68263e-06
6.43304e-05
1.49068e-05
-1.0152e-05
5.94429e-05
1.94999e-05
-1.31319e-05
5.18563e-05
2.59013e-05
-1.66864e-05
3.97882e-05
3.4064e-05
-2.01667e-05
2.11126e-05
4.28486e-05
-2.19036e-05
3.55954e-05
-1.31333e-05
6.33244e-05
2.77207e-07
5.61895e-07
6.49959e-05
4.92826e-07
1.33528e-06
6.7001e-05
4.26577e-07
2.15673e-06
6.89226e-05
8.73582e-08
2.98354e-06
7.0476e-05
-5.04011e-07
3.82779e-06
7.15262e-05
-1.31291e-06
4.75671e-06
7.20351e-05
-2.32975e-06
5.8792e-06
7.19937e-05
-3.56866e-06
7.33708e-06
7.13767e-05
-5.06264e-06
9.29386e-06
7.00728e-05
-6.86582e-06
1.19873e-05
6.78613e-05
-9.04028e-06
1.57247e-05
6.41892e-05
-1.16464e-05
2.10782e-05
5.81881e-05
-1.47016e-05
2.87709e-05
4.76289e-05
-1.7748e-05
3.99567e-05
2.98927e-05
-1.92399e-05
5.40223e-05
-1.20043e-05
5.98493e-05
4.99419e-05
1.26177e-05
5.60107e-08
3.95121e-05
1.0534e-05
6.84829e-08
3.16661e-05
7.94373e-06
-5.0852e-08
2.6693e-05
5.02402e-06
-2.84289e-07
2.36157e-05
3.04893e-06
-6.21796e-07
2.16554e-05
1.8289e-06
-1.04965e-06
2.02055e-05
1.19259e-06
-1.57607e-06
1.8889e-05
9.046e-07
-2.21313e-06
1.74669e-05
8.15353e-07
-2.98815e-06
1.57912e-05
8.15542e-07
-3.90912e-06
1.37361e-05
8.52709e-07
-5.02445e-06
1.12383e-05
8.40077e-07
-6.26044e-06
8.14854e-06
7.87674e-07
-7.69909e-06
4.71712e-06
4.15976e-07
-8.7645e-06
1.00242e-06
-8.29683e-08
-9.13636e-06
-1.64242e-06
-5.46281e-06
6.46046e-05
1.05963e-05
7.34257e-08
6.29364e-05
1.23565e-05
8.22089e-08
5.99556e-05
1.10831e-05
-1.00888e-07
5.67069e-05
8.37082e-06
-4.78453e-07
5.37633e-05
5.96948e-06
-1.04999e-06
5.1187e-05
4.21052e-06
-1.80247e-06
4.87899e-05
3.17578e-06
-2.74694e-06
4.63076e-05
2.69958e-06
-3.90745e-06
4.34713e-05
2.61884e-06
-5.33133e-06
4.00245e-05
2.78169e-06
-7.05116e-06
3.56986e-05
3.09807e-06
-9.14322e-06
3.02303e-05
3.42629e-06
-1.15423e-05
2.32842e-05
3.74002e-06
-1.43083e-05
1.48972e-05
3.53636e-06
-1.65728e-05
5.58962e-06
2.71234e-06
-1.71779e-05
-4.96454e-07
-9.85747e-06
6.61538e-05
7.03376e-06
8.48418e-08
6.81267e-05
1.05557e-05
9.39375e-08
6.86136e-05
1.07779e-05
-1.05124e-07
6.78831e-05
9.2224e-06
-5.14711e-07
6.64604e-05
7.38543e-06
-1.13723e-06
6.46191e-05
5.85944e-06
-1.96485e-06
6.24408e-05
4.92099e-06
-3.01284e-06
5.98483e-05
4.5563e-06
-4.31096e-06
5.66636e-05
4.68442e-06
-5.91198e-06
5.26373e-05
5.1917e-06
-7.85909e-06
4.7444e-05
6.01093e-06
-1.02338e-05
4.0705e-05
6.99473e-06
-1.2987e-05
3.193e-05
8.11357e-06
-1.61597e-05
2.09598e-05
8.67108e-06
-1.88303e-05
8.36648e-06
8.05697e-06
-1.95383e-05
2.89277e-06
-1.11008e-05
6.50688e-05
4.55952e-06
9.65364e-08
6.77273e-05
8.07753e-06
1.1362e-07
6.95647e-05
9.13363e-06
-8.29222e-08
7.02614e-05
8.65999e-06
-4.90889e-07
7.00079e-05
7.64668e-06
-1.11026e-06
6.90004e-05
6.69008e-06
-1.93422e-06
6.73645e-05
6.13983e-06
-2.97949e-06
6.50989e-05
6.10238e-06
-4.27781e-06
6.20855e-05
6.59488e-06
-5.88209e-06
5.80973e-05
7.57921e-06
-7.83919e-06
5.2789e-05
9.05302e-06
-1.02289e-05
4.57128e-05
1.09088e-05
-1.30141e-05
3.62569e-05
1.31649e-05
-1.62254e-05
2.412e-05
1.49381e-05
-1.89603e-05
9.74236e-06
1.51015e-05
-1.96804e-05
7.57469e-06
-1.11026e-05
6.4136e-05
3.0205e-06
1.12532e-07
6.64643e-05
5.93621e-06
1.46675e-07
6.85214e-05
7.27958e-06
-3.47583e-08
6.98116e-05
7.51713e-06
-4.26363e-07
7.02601e-05
7.22285e-06
-1.02424e-06
6.9919e-05
6.87665e-06
-1.81954e-06
6.88588e-05
6.8131e-06
-2.82694e-06
6.70799e-05
7.20224e-06
-4.07654e-06
6.44883e-05
8.13838e-06
-5.61742e-06
6.08742e-05
9.66648e-06
-7.49612e-06
5.58893e-05
1.18712e-05
-9.78566e-06
4.90287e-05
1.47371e-05
-1.24602e-05
3.95527e-05
1.84049e-05
-1.55384e-05
2.69133e-05
2.19024e-05
-1.81818e-05
1.11458e-05
2.37441e-05
-1.8855e-05
1.37935e-05
-1.0558e-05
6.36018e-05
2.01822e-06
1.30436e-07
6.55144e-05
4.21699e-06
1.87278e-07
6.74753e-05
5.53241e-06
2.90534e-08
6.8995e-05
6.15979e-06
-3.37537e-07
6.98615e-05
6.40158e-06
-9.04943e-07
7.00169e-05
6.59473e-06
-1.66087e-06
6.94657e-05
7.01596e-06
-2.61583e-06
6.81874e-05
7.85518e-06
-3.79604e-06
6.60935e-05
9.25843e-06
-5.24438e-06
6.2983e-05
1.13525e-05
-7.00496e-06
5.85089e-05
1.432e-05
-9.14071e-06
5.21095e-05
1.82946e-05
-1.1638e-05
4.2929e-05
2.36058e-05
-1.45e-05
3.00967e-05
2.93717e-05
-1.69849e-05
1.30709e-05
3.40058e-05
-1.75961e-05
2.21609e-05
-9.82292e-06
6.33603e-05
1.26035e-06
1.50478e-07
6.50182e-05
2.75982e-06
2.34037e-07
6.68873e-05
3.88955e-06
1.04733e-07
6.85302e-05
4.69726e-06
-2.30408e-07
6.96849e-05
5.31707e-06
-7.60579e-07
7.02373e-05
5.95024e-06
-1.46918e-06
7.01549e-05
6.79789e-06
-2.36081e-06
6.94121e-05
8.0395e-06
-3.45557e-06
6.79461e-05
9.84585e-06
-4.78719e-06
6.55981e-05
1.24118e-05
-6.39394e-06
6.20851e-05
1.6004e-05
-8.32293e-06
5.68592e-05
2.09584e-05
-1.05699e-05
4.90513e-05
2.78404e-05
-1.3113e-05
3.71633e-05
3.64362e-05
-1.53431e-05
1.94941e-05
4.56101e-05
-1.58386e-05
3.74128e-05
-8.89118e-06
6.32787e-05
1.71466e-07
5.87427e-07
6.4851e-05
2.83805e-07
1.39655e-06
6.67219e-05
1.86537e-07
2.25869e-06
6.84893e-05
-1.13332e-07
3.13051e-06
6.98781e-05
-6.02235e-07
4.02646e-06
7.07553e-05
-1.25916e-06
5.01936e-06
7.10783e-05
-2.08209e-06
6.22717e-06
7.08307e-05
-3.08392e-06
7.80241e-06
6.99792e-05
-4.2882e-06
9.92284e-06
6.84108e-05
-5.72566e-06
1.28402e-05
6.59134e-05
-7.42621e-06
1.68873e-05
6.19771e-05
-9.39274e-06
2.26411e-05
5.58219e-05
-1.15785e-05
3.08724e-05
4.54541e-05
-1.35255e-05
4.25815e-05
2.85954e-05
-1.39463e-05
5.71752e-05
-8.15104e-06
6.2155e-05
4.99124e-05
1.26221e-05
2.15384e-08
3.94233e-05
1.05457e-05
1.18779e-08
3.15027e-05
7.95849e-06
-8.86768e-08
2.64494e-05
5.03845e-06
-2.69463e-07
2.32889e-05
3.06339e-06
-5.24669e-07
2.12398e-05
1.84559e-06
-8.46216e-07
1.96902e-05
1.21451e-06
-1.24091e-06
1.8259e-05
9.34187e-07
-1.71611e-06
1.67044e-05
8.55456e-07
-2.28907e-06
1.48839e-05
8.69526e-07
-2.95814e-06
1.26825e-05
9.27047e-07
-3.75005e-06
1.00721e-05
9.45863e-07
-4.59589e-06
6.96582e-06
9.41607e-07
-5.53446e-06
3.70675e-06
6.52317e-07
-6.15775e-06
5.55767e-07
2.14967e-07
-6.20034e-06
-1.28996e-06
-3.61709e-06
6.45622e-05
1.06075e-05
2.58017e-08
6.28071e-05
1.2382e-05
8.91842e-10
5.97053e-05
1.11194e-05
-1.5991e-07
5.63118e-05
8.41296e-06
-4.59467e-07
5.32066e-05
6.01684e-06
-8.98294e-07
5.04527e-05
4.26632e-06
-1.4692e-06
4.78562e-05
3.24633e-06
-2.18231e-06
4.51457e-05
2.79184e-06
-3.05458e-06
4.20458e-05
2.74141e-06
-4.11745e-06
3.83052e-05
2.94366e-06
-5.3846e-06
3.36726e-05
3.31414e-06
-6.89775e-06
2.7948e-05
3.71246e-06
-8.58434e-06
2.091e-05
4.12265e-06
-1.04513e-05
1.28147e-05
4.03639e-06
-1.18617e-05
4.48673e-06
3.29118e-06
-1.19261e-05
1.49983e-08
-6.6757e-06
6.61113e-05
7.04913e-06
3.1963e-08
6.79936e-05
1.05908e-05
2.81722e-09
6.83509e-05
1.08312e-05
-1.74351e-07
6.74607e-05
9.29003e-06
-5.01618e-07
6.58553e-05
7.46682e-06
-9.81718e-07
6.38095e-05
5.95865e-06
-1.61141e-06
6.14005e-05
5.04686e-06
-2.40437e-06
5.85437e-05
4.72006e-06
-3.38233e-06
5.50535e-05
4.90064e-06
-4.58101e-06
5.06842e-05
5.47571e-06
-6.02193e-06
4.51291e-05
6.38503e-06
-7.74956e-06
3.8078e-05
7.47739e-06
-9.70086e-06
2.91699e-05
8.73526e-06
-1.18642e-05
1.85055e-05
9.42495e-06
-1.35545e-05
7.0204e-06
8.88412e-06
-1.36461e-05
3.48122e-06
-7.54663e-06
6.50279e-05
4.5772e-06
4.05269e-08
6.75977e-05
8.11872e-06
1.59745e-08
6.93076e-05
9.19902e-06
-1.60539e-07
6.98463e-05
8.74763e-06
-4.87278e-07
6.94111e-05
7.75718e-06
-9.65326e-07
6.81991e-05
6.82875e-06
-1.59241e-06
6.63321e-05
6.31779e-06
-2.38345e-06
6.38014e-05
6.33482e-06
-3.36185e-06
6.04814e-05
6.90225e-06
-4.56365e-06
5.61476e-05
7.98363e-06
-6.01329e-06
5.04722e-05
9.58542e-06
-7.75392e-06
4.30746e-05
1.15919e-05
-9.73116e-06
3.34729e-05
1.4036e-05
-1.19243e-05
2.16316e-05
1.59657e-05
-1.36597e-05
8.37293e-06
1.62106e-05
-1.37483e-05
8.28853e-06
-7.537e-06
6.40969e-05
3.0397e-06
5.31704e-08
6.6339e-05
5.98179e-06
4.14866e-08
6.8273e-05
7.35386e-06
-1.23603e-07
6.94117e-05
7.62022e-06
-4.37652e-07
6.96867e-05
7.35687e-06
-8.98924e-07
6.91513e-05
7.04838e-06
-1.50379e-06
6.7872e-05
7.03586e-06
-2.26574e-06
6.58425e-05
7.49492e-06
-3.20707e-06
6.29612e-05
8.52716e-06
-4.36104e-06
5.90201e-05
1.01808e-05
-5.75222e-06
5.36867e-05
1.25522e-05
-7.41906e-06
4.65188e-05
1.56157e-05
-9.31604e-06
3.68997e-05
1.95313e-05
-1.14146e-05
2.45395e-05
2.32308e-05
-1.30868e-05
9.8481e-06
2.51945e-05
-1.31475e-05
1.47249e-05
-7.14626e-06
6.35639e-05
2.03872e-06
6.74952e-08
6.53934e-05
4.26602e-06
7.35796e-08
6.72363e-05
5.61339e-06
-7.34069e-08
6.86124e-05
6.27448e-06
-3.6786e-07
6.93161e-05
6.55357e-06
-8.05328e-07
6.92909e-05
6.79235e-06
-1.37968e-06
6.85377e-05
7.27464e-06
-2.10135e-06
6.70291e-05
8.19725e-06
-2.98981e-06
6.46702e-05
9.71551e-06
-4.07381e-06
6.12607e-05
1.19618e-05
-5.37655e-06
5.6468e-05
1.51339e-05
-6.92967e-06
4.97871e-05
1.9356e-05
-8.69738e-06
4.0476e-05
2.49845e-05
-1.06422e-05
2.79067e-05
3.10206e-05
-1.22054e-05
1.18855e-05
3.58581e-05
-1.22384e-05
2.34131e-05
-6.62552e-06
6.33239e-05
1.28178e-06
8.34722e-08
6.49022e-05
2.8112e-06
1.10603e-07
6.66592e-05
3.97488e-06
-1.37165e-08
6.81674e-05
4.8194e-06
-2.83582e-07
6.91717e-05
5.48079e-06
-6.92104e-07
6.95598e-05
6.16508e-06
-1.22998e-06
6.92961e-05
7.08082e-06
-1.9033e-06
6.83495e-05
8.41543e-06
-2.72717e-06
6.66514e-05
1.03504e-05
-3.72397e-06
6.40441e-05
1.30887e-05
-4.91347e-06
6.02576e-05
1.69148e-05
-6.31733e-06
5.4793e-05
2.21594e-05
-7.90867e-06
4.68822e-05
2.94194e-05
-9.63711e-06
3.52416e-05
3.83568e-05
-1.10387e-05
1.84642e-05
4.78327e-05
-1.10358e-05
3.90046e-05
-6.01852e-06
6.32439e-05
1.00084e-07
6.09243e-07
6.47403e-05
1.49863e-07
1.44872e-06
6.65057e-05
5.06698e-08
2.34544e-06
6.81479e-05
-1.9165e-07
3.25543e-06
6.93995e-05
-5.68157e-07
4.19512e-06
7.01298e-05
-1.06626e-06
5.24197e-06
7.02941e-05
-1.68714e-06
6.52149e-06
6.98716e-05
-2.44076e-06
8.1948e-06
6.8825e-05
-3.34238e-06
1.04511e-05
6.70427e-05
-4.40723e-06
1.35526e-05
6.43257e-05
-5.64609e-06
1.78517e-05
6.02055e-05
-7.03966e-06
2.39265e-05
5.3991e-05
-8.52585e-06
3.25813e-05
4.38672e-05
-9.74783e-06
4.4703e-05
2.779e-05
-9.74541e-06
5.9709e-05
-5.54271e-06
6.41862e-05
4.98912e-05
1.26255e-05
4.78961e-09
3.93592e-05
1.05547e-05
-1.07997e-08
3.13836e-05
7.96992e-06
-8.3043e-08
2.62709e-05
5.04987e-06
-2.06626e-07
2.30491e-05
3.07504e-06
-3.77896e-07
2.09363e-05
1.85922e-06
-5.9263e-07
1.93183e-05
1.23258e-06
-8.55503e-07
1.78139e-05
9.58925e-07
-1.17062e-06
1.61831e-05
8.89625e-07
-1.54785e-06
1.42909e-05
9.16648e-07
-1.98257e-06
1.20352e-05
9.93504e-07
-2.48788e-06
9.40985e-06
1.04195e-06
-3.01252e-06
6.36443e-06
1.08275e-06
-3.57179e-06
3.25253e-06
8.62825e-07
-3.90868e-06
4.06413e-07
4.84173e-07
-3.8384e-06
-1.00881e-06
-2.20187e-06
6.45316e-05
1.06164e-05
3.38894e-09
6.27132e-05
1.2402e-05
-2.79976e-08
5.9522e-05
1.11477e-05
-1.46476e-07
5.60206e-05
8.44612e-06
-3.54337e-07
5.2795e-05
6.05432e-06
-6.52011e-07
4.99103e-05
4.31056e-06
-1.03585e-06
4.71716e-05
3.30229e-06
-1.51325e-06
4.43057e-05
2.86508e-06
-2.0949e-06
4.10385e-05
2.83905e-06
-2.79964e-06
3.71285e-05
3.0735e-06
-3.63142e-06
3.23457e-05
3.48885e-06
-4.61033e-06
2.65347e-05
3.94652e-06
-5.6779e-06
1.95479e-05
4.43946e-06
-6.82119e-06
1.17228e-05
4.45367e-06
-7.62738e-06
3.99635e-06
3.78571e-06
-7.50123e-06
4.33813e-07
-4.12198e-06
6.60806e-05
7.06135e-06
6.42507e-09
6.78968e-05
1.06185e-05
-2.9946e-08
6.81584e-05
1.08732e-05
-1.61516e-07
6.71492e-05
9.34334e-06
-3.89587e-07
6.54071e-05
7.53099e-06
-7.16301e-07
6.32101e-05
6.03672e-06
-1.14056e-06
6.06348e-05
5.14556e-06
-1.67235e-06
5.75952e-05
4.84801e-06
-2.32574e-06
5.39067e-05
5.06914e-06
-3.12253e-06
4.93333e-05
5.69678e-06
-4.07183e-06
4.35913e-05
6.67628e-06
-5.19503e-06
3.64215e-05
7.85431e-06
-6.43878e-06
2.75494e-05
9.22312e-06
-7.77573e-06
1.71835e-05
1.00223e-05
-8.75722e-06
6.39796e-06
9.55227e-06
-8.62719e-06
3.96065e-06
-4.67551e-06
6.49986e-05
4.59132e-06
1.1999e-08
6.75036e-05
8.15138e-06
-2.19295e-08
6.91194e-05
9.25063e-06
-1.53678e-07
6.95405e-05
8.81669e-06
-3.8173e-07
6.89693e-05
7.84406e-06
-7.07259e-07
6.76062e-05
6.93733e-06
-1.12986e-06
6.55724e-05
6.45637e-06
-1.66048e-06
6.28583e-05
6.5147e-06
-2.31439e-06
5.93388e-05
7.13863e-06
-3.11369e-06
5.47991e-05
8.29273e-06
-4.06955e-06
4.89342e-05
9.9898e-06
-5.2025e-06
4.14138e-05
1.21082e-05
-6.46471e-06
3.18439e-05
1.46912e-05
-7.82249e-06
2.03001e-05
1.67393e-05
-8.83295e-06
7.75009e-06
1.705e-05
-8.696e-06
8.83957e-06
-4.66584e-06
6.40687e-05
3.05503e-06
2.07231e-08
6.62483e-05
6.01793e-06
-4.61072e-09
6.80916e-05
7.41247e-06
-1.28716e-07
6.91174e-05
7.70129e-06
-3.48119e-07
6.92629e-05
7.46185e-06
-6.62167e-07
6.85839e-05
7.18221e-06
-1.06963e-06
6.71467e-05
7.20829e-06
-1.58055e-06
6.49442e-05
7.71967e-06
-2.20953e-06
6.18757e-05
8.82304e-06
-2.9769e-06
5.77419e-05
1.05683e-05
-3.89406e-06
5.22321e-05
1.30592e-05
-4.97871e-06
4.49515e-05
1.62618e-05
-6.18897e-06
3.53669e-05
2.03477e-05
-7.48656e-06
2.32936e-05
2.41836e-05
-8.45768e-06
9.28046e-06
2.62218e-05
-8.30621e-06
1.53886e-05
-4.41486e-06
6.35368e-05
2.055e-06
3.06878e-08
6.53061e-05
4.30475e-06
1.75444e-08
6.70622e-05
5.67709e-06
-9.41553e-08
6.83314e-05
6.36434e-06
-3.00108e-07
6.89136e-05
6.67215e-06
-5.97838e-07
6.8755e-05
6.94563e-06
-9.84502e-07
6.78563e-05
7.47376e-06
-1.46814e-06
6.61895e-05
8.45812e-06
-2.0615e-06
6.36607e-05
1.00602e-05
-2.78204e-06
6.00778e-05
1.2415e-05
-3.64041e-06
5.51283e-05
1.57293e-05
-4.6502e-06
4.8351e-05
2.0118e-05
-5.77616e-06
3.9081e-05
2.59509e-05
-6.9754e-06
2.67857e-05
3.21518e-05
-7.87843e-06
1.13945e-05
3.70915e-05
-7.71686e-06
2.4239e-05
-4.08142e-06
6.3298e-05
1.29866e-06
4.17847e-08
6.48187e-05
2.85158e-06
4.31435e-08
6.64933e-05
4.04172e-06
-5.29847e-08
6.79014e-05
4.91473e-06
-2.4208e-07
6.87935e-05
5.60802e-06
-5.20033e-07
6.906e-05
6.33104e-06
-8.81934e-07
6.86658e-05
7.29763e-06
-1.33297e-06
6.75793e-05
8.70055e-06
-1.88312e-06
6.57332e-05
1.07281e-05
-2.54581e-06
6.29774e-05
1.35873e-05
-3.32989e-06
5.90603e-05
1.75722e-05
-4.2432e-06
5.35213e-05
2.30054e-05
-5.25713e-06
4.56607e-05
3.04975e-05
-6.32305e-06
3.42772e-05
3.96281e-05
-7.13146e-06
1.80624e-05
4.92381e-05
-6.96765e-06
4.00002e-05
-3.71731e-06
6.32192e-05
5.32783e-08
6.26282e-07
6.46609e-05
7.02407e-08
1.48947e-06
6.63488e-05
-8.61531e-09
2.41309e-06
6.78982e-05
-1.7883e-07
3.35254e-06
6.90473e-05
-4.34938e-07
4.32568e-06
6.96687e-05
-7.69853e-07
5.4133e-06
6.97185e-05
-1.18553e-06
6.74617e-06
6.91759e-05
-1.68866e-06
8.49109e-06
6.80054e-05
-2.28818e-06
1.08444e-05
6.61026e-05
-2.99042e-06
1.40733e-05
6.32857e-05
-3.797e-06
1.85401e-05
5.91189e-05
-4.68514e-06
2.48176e-05
5.29702e-05
-5.60171e-06
3.37221e-05
4.30917e-05
-6.3048e-06
4.60635e-05
2.75084e-05
-6.16472e-06
6.12407e-05
-3.43324e-06
6.53992e-05
4.98772e-05
1.26279e-05
-2.29309e-10
3.93167e-05