/*--------------------------------*- C++ -*----------------------------------*\
| =========                 |                                                 |
| \\      /  F ield         | OpenFOAM: The Open Source CFD Toolbox           |
|  \\    /   O peration     | Version:  v1912                                 |
|   \\  /    A nd           | Website:  www.openfoam.com                      |
|    \\/     M anipulation  |                                                 |
\*---------------------------------------------------------------------------*/
FoamFile
{
    version     2.0;
    format      ascii;
    class       volVectorField;
    location    "0.07/fluid";
    object      cellMotionU;
}
// * * * * * * * * * * * * * * * * * * * * * * * * * * * * * * * * * * * * * //

dimensions      [0 1 -1 0 0 0 0];


internalField   nonuniform List<vector> 
14592
(
(7.31741e-10 -5.36666e-09 4.00834e-09)
(1.88303e-09 -1.51809e-08 1.14096e-08)
(2.52983e-09 -2.44884e-08 1.87531e-08)
(2.42865e-09 -3.34863e-08 2.64158e-08)
(1.62885e-09 -4.23004e-08 3.46855e-08)
(-4.23633e-10 -5.11862e-08 4.37557e-08)
(-3.56125e-09 -6.04902e-08 5.40199e-08)
(-8.08771e-09 -6.95693e-08 6.51944e-08)
(-1.36147e-08 -7.73391e-08 7.67484e-08)
(-2.15297e-08 -8.41207e-08 8.83947e-08)
(-3.1066e-08 -8.87079e-08 1.00419e-07)
(-4.40202e-08 -8.98904e-08 1.12169e-07)
(-6.30554e-08 -8.60522e-08 1.26029e-07)
(-9.49468e-08 -6.87622e-08 1.43951e-07)
(-1.52009e-07 -1.34866e-08 1.70926e-07)
(-2.23756e-07 1.1958e-07 2.04324e-07)
(2.25098e-09 -1.61099e-08 1.1983e-08)
(5.77502e-09 -4.54647e-08 3.40955e-08)
(7.70756e-09 -7.32803e-08 5.60373e-08)
(7.74755e-09 -1.0038e-07 7.90269e-08)
(5.06041e-09 -1.27246e-07 1.03895e-07)
(-5.30505e-10 -1.55053e-07 1.31641e-07)
(-9.68707e-09 -1.8328e-07 1.62504e-07)
(-2.21347e-08 -2.10291e-07 1.95882e-07)
(-3.93922e-08 -2.35369e-07 2.3063e-07)
(-5.98878e-08 -2.55819e-07 2.65919e-07)
(-8.56077e-08 -2.70543e-07 3.0034e-07)
(-1.18158e-07 -2.78037e-07 3.35309e-07)
(-1.591e-07 -2.73807e-07 3.7196e-07)
(-2.10732e-07 -2.48671e-07 4.1304e-07)
(-2.58659e-07 -1.81751e-07 4.60093e-07)
(-2.48439e-07 -7.10377e-08 5.06001e-07)
(3.91771e-09 -2.65032e-08 1.97534e-08)
(1.00622e-08 -7.4716e-08 5.62036e-08)
(1.37404e-08 -1.20589e-07 9.24273e-08)
(1.41149e-08 -1.65387e-07 1.30438e-07)
(1.05535e-08 -2.10668e-07 1.71859e-07)
(2.23681e-09 -2.56904e-07 2.1785e-07)
(-1.10191e-08 -3.03904e-07 2.69005e-07)
(-2.99139e-08 -3.49891e-07 3.24266e-07)
(-5.39756e-08 -3.92053e-07 3.82054e-07)
(-8.31189e-08 -4.2833e-07 4.40058e-07)
(-1.17858e-07 -4.57295e-07 4.97932e-07)
(-1.59016e-07 -4.76963e-07 5.55483e-07)
(-2.04417e-07 -4.8384e-07 6.13728e-07)
(-2.50426e-07 -4.71562e-07 6.74767e-07)
(-2.68532e-07 -4.31079e-07 7.43079e-07)
(-2.06778e-07 -3.73197e-07 8.15366e-07)
(5.772e-09 -3.60857e-08 2.71365e-08)
(1.4973e-08 -1.01783e-07 7.7214e-08)
(2.09116e-08 -1.64365e-07 1.27002e-07)
(2.25933e-08 -2.26086e-07 1.79367e-07)
(1.91578e-08 -2.88384e-07 2.36456e-07)
(1.01096e-08 -3.52512e-07 3.00027e-07)
(-4.83565e-09 -4.17583e-07 3.70454e-07)
(-2.61882e-08 -4.81565e-07 4.46614e-07)
(-5.18433e-08 -5.40942e-07 5.26034e-07)
(-8.32261e-08 -5.94634e-07 6.06438e-07)
(-1.18602e-07 -6.40621e-07 6.86864e-07)
(-1.57988e-07 -6.77709e-07 7.66591e-07)
(-1.97772e-07 -7.02407e-07 8.44681e-07)
(-2.33475e-07 -7.10654e-07 9.22576e-07)
(-2.39674e-07 -6.95591e-07 1.00243e-06)
(-1.77329e-07 -6.61206e-07 1.07625e-06)
(7.84444e-09 -4.44432e-08 3.39572e-08)
(2.06827e-08 -1.25436e-07 9.66171e-08)
(2.95139e-08 -2.02718e-07 1.58872e-07)
(3.34479e-08 -2.79137e-07 2.24351e-07)
(3.17767e-08 -3.56674e-07 2.95785e-07)
(2.41133e-08 -4.36202e-07 3.75075e-07)
(1.04454e-08 -5.17409e-07 4.62997e-07)
(-7.64153e-09 -5.97255e-07 5.58199e-07)
(-3.14776e-08 -6.73863e-07 6.57415e-07)
(-5.75011e-08 -7.44713e-07 7.58846e-07)
(-8.58971e-08 -8.0913e-07 8.6039e-07)
(-1.15446e-07 -8.66052e-07 9.60863e-07)
(-1.42309e-07 -9.13177e-07 1.0593e-06)
(-1.65795e-07 -9.46345e-07 1.15518e-06)
(-1.67887e-07 -9.57274e-07 1.24724e-06)
(-1.17461e-07 -9.40452e-07 1.32058e-06)
(1.01956e-08 -5.12277e-08 4.00781e-08)
(2.71296e-08 -1.44561e-07 1.13974e-07)
(3.96547e-08 -2.33777e-07 1.87306e-07)
(4.69115e-08 -3.22193e-07 2.64338e-07)
(4.84063e-08 -4.11853e-07 3.4815e-07)
(4.4391e-08 -5.04142e-07 4.41206e-07)
(3.53802e-08 -5.9827e-07 5.44071e-07)
(2.23501e-08 -6.91701e-07 6.55294e-07)
(6.97966e-09 -7.82461e-07 7.72221e-07)
(-9.52405e-09 -8.68814e-07 8.91342e-07)
(-2.52615e-08 -9.50338e-07 1.0109e-06)
(-3.81269e-08 -1.02745e-06 1.13071e-06)
(-4.48473e-08 -1.09911e-06 1.25046e-06)
(-4.70474e-08 -1.16269e-06 1.37108e-06)
(-3.60728e-08 -1.2087e-06 1.48835e-06)
(5.58974e-09 -1.2151e-06 1.57643e-06)
(1.277e-08 -5.61351e-08 4.53976e-08)
(3.43592e-08 -1.58391e-07 1.2903e-07)
(5.1181e-08 -2.56164e-07 2.11837e-07)
(6.26271e-08 -3.53024e-07 2.98538e-07)
(6.86776e-08 -4.51402e-07 3.92648e-07)
(6.97595e-08 -5.52579e-07 4.96618e-07)
(6.72645e-08 -6.55875e-07 6.11465e-07)
(6.25173e-08 -7.59109e-07 7.35581e-07)
(5.67408e-08 -8.6028e-07 8.65807e-07)
(5.31991e-08 -9.57662e-07 9.98383e-07)
(5.24441e-08 -1.05335e-06 1.1316e-06)
(5.9469e-08 -1.14757e-06 1.26658e-06)
(7.97072e-08 -1.24233e-06 1.407e-06)
(1.13454e-07 -1.34063e-06 1.55841e-06)
(1.71798e-07 -1.44447e-06 1.72339e-06)
(2.52143e-07 -1.53472e-06 1.8687e-06)
(1.55247e-08 -5.89104e-08 4.98542e-08)
(4.21033e-08 -1.6621e-07 1.41595e-07)
(6.37217e-08 -2.6872e-07 2.32169e-07)
(8.00651e-08 -3.70263e-07 3.26624e-07)
(9.13517e-08 -4.73328e-07 4.28574e-07)
(9.85136e-08 -5.7938e-07 5.40731e-07)
(1.03244e-07 -6.87522e-07 6.63935e-07)
(1.06753e-07 -7.95921e-07 7.96741e-07)
(1.12321e-07 -9.01773e-07 9.35652e-07)
(1.18683e-07 -1.00725e-06 1.07598e-06)
(1.32685e-07 -1.11041e-06 1.21647e-06)
(1.56557e-07 -1.21553e-06 1.35926e-06)
(2.0031e-07 -1.3241e-06 1.51169e-06)
(2.73533e-07 -1.44225e-06 1.68648e-06)
(4.08984e-07 -1.58369e-06 1.90322e-06)
(6.17491e-07 -1.74119e-06 2.14634e-06)
(3.73488e-10 -5.56069e-09 3.8475e-09)
(8.46979e-10 -1.57288e-08 1.09554e-08)
(7.79063e-10 -2.54131e-08 1.80248e-08)
(-5.03761e-11 -3.48369e-08 2.54297e-08)
(-1.96581e-09 -4.41876e-08 3.34111e-08)
(-5.13277e-09 -5.37089e-08 4.22922e-08)
(-9.98283e-09 -6.35782e-08 5.22048e-08)
(-1.66545e-08 -7.32487e-08 6.30436e-08)
(-2.60265e-08 -8.22326e-08 7.42318e-08)
(-3.71093e-08 -8.96375e-08 8.60223e-08)
(-5.33545e-08 -9.5941e-08 9.76557e-08)
(-7.60662e-08 -1.00209e-07 1.10223e-07)
(-1.13571e-07 -1.02845e-07 1.25653e-07)
(-1.82114e-07 -1.00189e-07 1.45882e-07)
(-3.23069e-07 -8.72488e-08 1.7769e-07)
(-5.80598e-07 -6.49136e-08 2.25371e-07)
(1.18576e-09 -1.66693e-08 1.15002e-08)
(2.71069e-09 -4.70535e-08 3.27341e-08)
(2.61633e-09 -7.597e-08 5.38383e-08)
(1.82136e-10 -1.04232e-07 7.59546e-08)
(-5.20938e-09 -1.3255e-07 1.00018e-07)
(-1.44797e-08 -1.61744e-07 1.26745e-07)
(-2.82696e-08 -1.91592e-07 1.56546e-07)
(-4.77505e-08 -2.2094e-07 1.88675e-07)
(-7.20308e-08 -2.47594e-07 2.22809e-07)
(-1.04749e-07 -2.7118e-07 2.56709e-07)
(-1.46121e-07 -2.9037e-07 2.91633e-07)
(-2.03075e-07 -3.05096e-07 3.28066e-07)
(-2.84666e-07 -3.13575e-07 3.67507e-07)
(-4.01884e-07 -3.11694e-07 4.12569e-07)
(-5.6818e-07 -2.93408e-07 4.6353e-07)
(-7.59894e-07 -2.70152e-07 5.15395e-07)
(2.19794e-09 -2.7384e-08 1.89521e-08)
(5.13641e-09 -7.7269e-08 5.3937e-08)
(5.45856e-09 -1.2474e-07 8.8712e-08)
(2.13696e-09 -1.71443e-07 1.25279e-07)
(-5.96333e-09 -2.1874e-07 1.6515e-07)
(-1.98591e-08 -2.67433e-07 2.09526e-07)
(-4.07379e-08 -3.17307e-07 2.58744e-07)
(-6.84886e-08 -3.66006e-07 3.12338e-07)
(-1.05099e-07 -4.11589e-07 3.67791e-07)
(-1.49999e-07 -4.5215e-07 4.24769e-07)
(-2.0686e-07 -4.8671e-07 4.82176e-07)
(-2.80171e-07 -5.14866e-07 5.40832e-07)
(-3.74565e-07 -5.35659e-07 6.02319e-07)
(-4.90977e-07 -5.44746e-07 6.6729e-07)
(-6.21981e-07 -5.42364e-07 7.3789e-07)
(-7.39846e-07 -5.41315e-07 8.09744e-07)
(3.47767e-09 -3.72576e-08 2.60242e-08)
(8.43936e-09 -1.05083e-07 7.40509e-08)
(9.94775e-09 -1.69778e-07 1.21803e-07)
(6.71566e-09 -2.33819e-07 1.72072e-07)
(-2.48219e-09 -2.98886e-07 2.26986e-07)
(-1.87557e-08 -3.66116e-07 2.88081e-07)
(-4.27591e-08 -4.34766e-07 3.55902e-07)
(-7.50178e-08 -5.0232e-07 4.29241e-07)
(-1.15603e-07 -5.66475e-07 5.05944e-07)
(-1.6482e-07 -6.24403e-07 5.84111e-07)
(-2.24952e-07 -6.76165e-07 6.63221e-07)
(-2.98814e-07 -7.21035e-07 7.4308e-07)
(-3.88834e-07 -7.57287e-07 8.2341e-07)
(-4.92103e-07 -7.82652e-07 9.05488e-07)
(-6.02994e-07 -7.96951e-07 9.88622e-07)
(-7.07491e-07 -8.06995e-07 1.06647e-06)
(5.11198e-09 -4.58426e-08 3.25495e-08)
(1.28071e-08 -1.29309e-07 9.25916e-08)
(1.64404e-08 -2.0911e-07 1.52241e-07)
(1.46144e-08 -2.88305e-07 2.15045e-07)
(6.23853e-09 -3.69063e-07 2.8362e-07)
(-9.48793e-09 -4.52434e-07 3.59847e-07)
(-3.27631e-08 -5.37537e-07 4.44336e-07)
(-6.39156e-08 -6.22321e-07 5.35635e-07)
(-1.01468e-07 -7.02777e-07 6.3165e-07)
(-1.46313e-07 -7.78253e-07 7.29467e-07)
(-1.99231e-07 -8.47253e-07 8.28108e-07)
(-2.62074e-07 -9.09716e-07 9.26964e-07)
(-3.36329e-07 -9.6481e-07 1.02622e-06)
(-4.23583e-07 -1.00931e-06 1.12488e-06)
(-5.25744e-07 -1.04212e-06 1.22064e-06)
(-6.3689e-07 -1.06258e-06 1.30258e-06)
(7.11423e-09 -5.27789e-08 3.83932e-08)
(1.83481e-08 -1.48911e-07 1.09162e-07)
(2.50696e-08 -2.40903e-07 1.79375e-07)
(2.60306e-08 -3.32386e-07 2.5317e-07)
(2.0452e-08 -4.25683e-07 3.33605e-07)
(7.97747e-09 -5.22033e-07 4.22798e-07)
(-1.11281e-08 -6.20588e-07 5.21477e-07)
(-3.59971e-08 -7.18568e-07 6.2823e-07)
(-6.54843e-08 -8.13511e-07 7.40387e-07)
(-9.90482e-08 -9.03392e-07 8.54799e-07)
(-1.36666e-07 -9.87951e-07 9.69885e-07)
(-1.78767e-07 -1.06776e-06 1.08595e-06)
(-2.27783e-07 -1.14238e-06 1.20337e-06)
(-2.8813e-07 -1.21018e-06 1.32302e-06)
(-3.74299e-07 -1.26787e-06 1.44005e-06)
(-4.94387e-07 -1.30017e-06 1.53665e-06)
(9.48449e-09 -5.7783e-08 4.34709e-08)
(2.49872e-08 -1.63025e-07 1.23519e-07)
(3.57212e-08 -2.63739e-07 2.02763e-07)
(4.07051e-08 -3.63888e-07 2.85788e-07)
(3.95432e-08 -4.66061e-07 3.75962e-07)
(3.24066e-08 -5.71446e-07 4.75598e-07)
(2.00829e-08 -6.792e-07 5.85363e-07)
(4.27936e-09 -7.8664e-07 7.04172e-07)
(-1.36193e-08 -8.91214e-07 8.28755e-07)
(-3.25522e-08 -9.91974e-07 9.55087e-07)
(-5.04853e-08 -1.08833e-06 1.08239e-06)
(-6.67219e-08 -1.18198e-06 1.21126e-06)
(-8.02192e-08 -1.27417e-06 1.34531e-06)
(-9.42262e-08 -1.36781e-06 1.48833e-06)
(-1.23805e-07 -1.46737e-06 1.63824e-06)
(-2.02176e-07 -1.55649e-06 1.76697e-06)
(1.2146e-08 -6.06122e-08 4.77185e-08)
(3.25101e-08 -1.70943e-07 1.35499e-07)
(4.7964e-08 -2.76481e-07 2.22133e-07)
(5.78676e-08 -3.81364e-07 3.12514e-07)
(6.21666e-08 -4.88257e-07 4.10136e-07)
(6.15045e-08 -5.98377e-07 5.17366e-07)
(5.71949e-08 -7.1079e-07 6.34961e-07)
(5.13456e-08 -8.22756e-07 7.61901e-07)
(4.49666e-08 -9.327e-07 8.93569e-07)
(4.13026e-08 -1.0388e-06 1.0279e-06)
(4.09734e-08 -1.14229e-06 1.16031e-06)
(4.93657e-08 -1.24337e-06 1.29547e-06)
(7.01922e-08 -1.34408e-06 1.43789e-06)
(1.12342e-07 -1.44798e-06 1.59692e-06)
(1.85798e-07 -1.56007e-06 1.77604e-06)
(2.83249e-07 -1.66025e-06 1.94596e-06)
(9.12109e-12 -5.7524e-09 3.5402e-09)
(-2.036e-10 -1.62709e-08 1.00866e-08)
(-9.96525e-10 -2.63122e-08 1.66027e-08)
(-2.70088e-09 -3.61403e-08 2.34157e-08)
(-5.51077e-09 -4.59468e-08 3.08554e-08)
(-9.99101e-09 -5.59879e-08 3.89874e-08)
(-1.64174e-08 -6.64513e-08 4.81848e-08)
(-2.52335e-08 -7.67203e-08 5.81016e-08)
(-3.65368e-08 -8.62344e-08 6.87968e-08)
(-5.23816e-08 -9.51589e-08 7.91015e-08)
(-7.29627e-08 -1.02925e-07 9.03871e-08)
(-1.0391e-07 -1.10498e-07 1.02132e-07)
(-1.54439e-07 -1.18762e-07 1.15776e-07)
(-2.47442e-07 -1.29588e-07 1.32026e-07)
(-4.38092e-07 -1.48546e-07 1.51067e-07)
(-7.68914e-07 -1.83906e-07 1.66456e-07)
(1.06672e-10 -1.7222e-08 1.05823e-08)
(-4.07488e-10 -4.86295e-08 3.01287e-08)
(-2.66666e-09 -7.85601e-08 4.95523e-08)
(-7.4022e-09 -1.07928e-07 6.99869e-08)
(-1.57396e-08 -1.37557e-07 9.21112e-08)
(-2.85303e-08 -1.68179e-07 1.16797e-07)
(-4.69093e-08 -1.9955e-07 1.44129e-07)
(-7.14062e-08 -2.30407e-07 1.74118e-07)
(-1.04517e-07 -2.5985e-07 2.0473e-07)
(-1.46085e-07 -2.86146e-07 2.36888e-07)
(-2.01752e-07 -3.09977e-07 2.6908e-07)
(-2.7889e-07 -3.31926e-07 3.02847e-07)
(-3.90071e-07 -3.52999e-07 3.38638e-07)
(-5.53784e-07 -3.73535e-07 3.74248e-07)
(-7.8893e-07 -3.94621e-07 4.0262e-07)
(-1.04304e-06 -4.17583e-07 4.08032e-07)
(4.44387e-10 -2.82706e-08 1.74359e-08)
(9.44979e-11 -7.97457e-08 4.96216e-08)
(-2.95018e-09 -1.28807e-07 8.16375e-08)
(-1.01229e-08 -1.77292e-07 1.15275e-07)
(-2.26749e-08 -2.26536e-07 1.52006e-07)
(-4.21042e-08 -2.77419e-07 1.92784e-07)
(-6.95164e-08 -3.29591e-07 2.38232e-07)
(-1.06686e-07 -3.81345e-07 2.87039e-07)
(-1.53735e-07 -4.30114e-07 3.38683e-07)
(-2.13486e-07 -4.74895e-07 3.90814e-07)
(-2.89899e-07 -5.15471e-07 4.44001e-07)
(-3.89845e-07 -5.52527e-07 4.98331e-07)
(-5.20706e-07 -5.86499e-07 5.53567e-07)
(-6.87556e-07 -6.17579e-07 6.06556e-07)
(-8.82433e-07 -6.46857e-07 6.50929e-07)
(-1.04573e-06 -6.75178e-07 6.73411e-07)
(1.14623e-09 -3.8415e-08 2.39354e-08)
(1.74943e-09 -1.0832e-07 6.81029e-08)
(-1.2208e-09 -1.7513e-07 1.11991e-07)
(-9.39884e-09 -2.41389e-07 1.58218e-07)
(-2.43748e-08 -3.09012e-07 2.08676e-07)
(-4.7531e-08 -3.79062e-07 2.64856e-07)
(-8.0171e-08 -4.50769e-07 3.27026e-07)
(-1.23221e-07 -5.22037e-07 3.94274e-07)
(-1.76687e-07 -5.89597e-07 4.65e-07)
(-2.43108e-07 -6.52552e-07 5.36692e-07)
(-3.25287e-07 -7.10083e-07 6.09347e-07)
(-4.27924e-07 -7.62663e-07 6.82429e-07)
(-5.54741e-07 -8.10477e-07 7.55005e-07)
(-7.06409e-07 -8.53615e-07 8.23156e-07)
(-8.7348e-07 -8.93078e-07 8.80853e-07)
(-1.01358e-06 -9.27491e-07 9.13531e-07)
(2.3065e-09 -4.72112e-08 2.99271e-08)
(4.81111e-09 -1.33185e-07 8.50998e-08)
(3.11736e-09 -2.15426e-07 1.39907e-07)
(-4.51081e-09 -2.97309e-07 1.97572e-07)
(-1.95077e-08 -3.81059e-07 2.60565e-07)
(-4.30587e-08 -4.67676e-07 3.30501e-07)
(-7.61129e-08 -5.56593e-07 4.07798e-07)
(-1.18195e-07 -6.44565e-07 4.91866e-07)
(-1.70449e-07 -7.29524e-07 5.79179e-07)
(-2.3248e-07 -8.08819e-07 6.68841e-07)
(-3.07181e-07 -8.82265e-07 7.588e-07)
(-3.97538e-07 -9.50281e-07 8.48639e-07)
(-5.06825e-07 -1.01271e-06 9.37199e-07)
(-6.38717e-07 -1.06939e-06 1.01998e-06)
(-7.9269e-07 -1.12038e-06 1.09034e-06)
(-9.36432e-07 -1.1609e-06 1.13119e-06)
(3.97618e-09 -5.43181e-08 3.52866e-08)
(9.39867e-09 -1.53224e-07 1.00297e-07)
(1.0241e-08 -2.47969e-07 1.64758e-07)
(4.89774e-09 -3.42403e-07 2.32493e-07)
(-7.79234e-09 -4.39008e-07 3.06277e-07)
(-2.84857e-08 -5.38945e-07 3.88062e-07)
(-5.73908e-08 -6.41192e-07 4.78278e-07)
(-9.38184e-08 -7.42949e-07 5.7578e-07)
(-1.36953e-07 -8.41201e-07 6.78086e-07)
(-1.86749e-07 -9.34166e-07 7.82007e-07)
(-2.4402e-07 -1.02116e-06 8.86214e-07)
(-3.10703e-07 -1.10296e-06 9.9034e-07)
(-3.90407e-07 -1.1798e-06 1.09381e-06)
(-4.91721e-07 -1.25193e-06 1.1924e-06)
(-6.27117e-07 -1.31729e-06 1.279e-06)
(-7.80304e-07 -1.35986e-06 1.33226e-06)
(6.13349e-09 -5.94218e-08 3.99395e-08)
(1.54614e-08 -1.67609e-07 1.13462e-07)
(2.00207e-08 -2.71249e-07 1.86183e-07)
(1.84817e-08 -3.74543e-07 2.62352e-07)
(1.01371e-08 -4.80147e-07 3.45037e-07)
(-5.25535e-09 -5.89206e-07 4.36178e-07)
(-2.69105e-08 -7.00552e-07 5.36479e-07)
(-5.37154e-08 -8.11389e-07 6.44619e-07)
(-8.42639e-08 -9.18935e-07 7.57345e-07)
(-1.16702e-07 -1.02099e-06 8.7244e-07)
(-1.5142e-07 -1.11778e-06 9.86272e-07)
(-1.87223e-07 -1.20975e-06 1.1007e-06)
(-2.26047e-07 -1.29832e-06 1.21634e-06)
(-2.74878e-07 -1.3867e-06 1.33033e-06)
(-3.49234e-07 -1.47894e-06 1.43634e-06)
(-4.60699e-07 -1.56089e-06 1.50535e-06)
(8.70186e-09 -6.22732e-08 4.3839e-08)
(2.27297e-08 -1.7563e-07 1.2443e-07)
(3.19273e-08 -2.84155e-07 2.03917e-07)
(3.53283e-08 -3.92222e-07 2.86803e-07)
(3.25807e-08 -5.02561e-07 3.762e-07)
(2.40999e-08 -6.16207e-07 4.74147e-07)
(1.10623e-08 -7.32015e-07 5.81512e-07)
(-5.07545e-09 -8.47256e-07 6.96055e-07)
(-2.13984e-08 -9.5876e-07 8.16513e-07)
(-3.77609e-08 -1.06601e-06 9.35525e-07)
(-4.95916e-08 -1.16724e-06 1.05556e-06)
(-5.60339e-08 -1.26374e-06 1.17381e-06)
(-5.3308e-08 -1.35563e-06 1.295e-06)
(-3.75973e-08 -1.44527e-06 1.41814e-06)
(1.41049e-09 -1.53371e-06 1.53946e-06)
(7.10073e-08 -1.60275e-06 1.62216e-06)
(-3.44634e-10 -5.93146e-09 3.09793e-09)
(-1.22152e-09 -1.67752e-08 8.82535e-09)
(-2.70949e-09 -2.71437e-08 1.45247e-08)
(-5.11032e-09 -3.72899e-08 2.05227e-08)
(-8.91336e-09 -4.75023e-08 2.69455e-08)
(-1.43888e-08 -5.79653e-08 3.41273e-08)
(-2.22337e-08 -6.89064e-08 4.20459e-08)
(-3.27568e-08 -7.9784e-08 5.07382e-08)
(-4.69743e-08 -9.0395e-08 5.95267e-08)
(-6.4894e-08 -1.00047e-07 6.93211e-08)
(-8.99362e-08 -1.09589e-07 7.84382e-08)
(-1.2625e-07 -1.19634e-07 8.86098e-08)
(-1.8443e-07 -1.32061e-07 9.99295e-08)
(-2.88814e-07 -1.50122e-07 1.13095e-07)
(-4.96666e-07 -1.81568e-07 1.29437e-07)
(-8.44432e-07 -2.31791e-07 1.47587e-07)
(-9.39618e-10 -1.77412e-08 9.2587e-09)
(-3.41259e-09 -5.00981e-08 2.6357e-08)
(-7.62007e-09 -8.09325e-08 4.337e-08)
(-1.46863e-08 -1.11325e-07 6.11727e-08)
(-2.55102e-08 -1.42011e-07 8.05502e-08)
(-4.15028e-08 -1.73863e-07 1.0197e-07)
(-6.38105e-08 -2.06677e-07 1.25792e-07)
(-9.40469e-08 -2.3964e-07 1.51297e-07)
(-1.3247e-07 -2.70838e-07 1.79109e-07)
(-1.82902e-07 -3.00379e-07 2.05903e-07)
(-2.48799e-07 -3.28138e-07 2.33974e-07)
(-3.39386e-07 -3.55986e-07 2.62782e-07)
(-4.6777e-07 -3.85982e-07 2.92408e-07)
(-6.52243e-07 -4.1926e-07 3.21033e-07)
(-9.0745e-07 -4.56064e-07 3.43854e-07)
(-1.16352e-06 -4.87919e-07 3.53551e-07)
(-1.24353e-09 -2.90959e-08 1.52524e-08)
(-4.70383e-09 -8.20629e-08 4.3408e-08)
(-1.1004e-08 -1.32626e-07 7.1374e-08)
(-2.16509e-08 -1.82621e-07 1.00754e-07)
(-3.82998e-08 -2.33555e-07 1.32731e-07)
(-6.26496e-08 -2.86375e-07 1.68226e-07)
(-9.65483e-08 -3.40923e-07 2.0741e-07)
(-1.40885e-07 -3.95093e-07 2.50482e-07)
(-1.97931e-07 -4.4732e-07 2.9472e-07)
(-2.69358e-07 -4.96084e-07 3.39989e-07)
(-3.6024e-07 -5.41785e-07 3.85704e-07)
(-4.77842e-07 -5.85911e-07 4.31909e-07)
(-6.29448e-07 -6.29841e-07 4.77665e-07)
(-8.17683e-07 -6.73687e-07 5.20612e-07)
(-1.02721e-06 -7.16644e-07 5.56072e-07)
(-1.18211e-06 -7.51389e-07 5.791e-07)
(-1.08768e-09 -3.94985e-08 2.09341e-08)
(-4.62909e-09 -1.11399e-07 5.95395e-08)
(-1.18372e-08 -1.80119e-07 9.78774e-08)
(-2.46097e-08 -2.48405e-07 1.38168e-07)
(-4.48381e-08 -3.18228e-07 1.82097e-07)
(-7.43421e-08 -3.90712e-07 2.30819e-07)
(-1.14721e-07 -4.65231e-07 2.84769e-07)
(-1.66965e-07 -5.39447e-07 3.43342e-07)
(-2.32498e-07 -6.11067e-07 4.0403e-07)
(-3.12282e-07 -6.78003e-07 4.66239e-07)
(-4.10649e-07 -7.40503e-07 5.28493e-07)
(-5.32046e-07 -7.99498e-07 5.90374e-07)
(-6.79503e-07 -8.55846e-07 6.50425e-07)
(-8.50031e-07 -9.09346e-07 7.06225e-07)
(-1.02621e-06 -9.60045e-07 7.53188e-07)
(-1.15211e-06 -1.00073e-06 7.85424e-07)
(-3.60992e-10 -4.85146e-08 2.61634e-08)
(-2.82795e-09 -1.36836e-07 7.43881e-08)
(-9.50549e-09 -2.21384e-07 1.22205e-07)
(-2.25209e-08 -3.05657e-07 1.72457e-07)
(-4.35764e-08 -3.91927e-07 2.27224e-07)
(-7.43299e-08 -4.81395e-07 2.87882e-07)
(-1.15772e-07 -5.7321e-07 3.55029e-07)
(-1.6887e-07 -6.64903e-07 4.26956e-07)
(-2.32616e-07 -7.52854e-07 5.03271e-07)
(-3.08924e-07 -8.35895e-07 5.79973e-07)
(-3.99622e-07 -9.13159e-07 6.56707e-07)
(-5.07828e-07 -9.85527e-07 7.32324e-07)
(-6.35972e-07 -1.05338e-06 8.05126e-07)
(-7.83934e-07 -1.11648e-06 8.72746e-07)
(-9.43983e-07 -1.17477e-06 9.30216e-07)
(-1.07164e-06 -1.21905e-06 9.69811e-07)
(9.88518e-10 -5.57637e-08 3.08477e-08)
(8.91665e-10 -1.57301e-07 8.76459e-08)
(-3.79217e-09 -2.54619e-07 1.43885e-07)
(-1.49916e-08 -3.51683e-07 2.02874e-07)
(-3.4157e-08 -4.51061e-07 2.6703e-07)
(-6.2422e-08 -5.53985e-07 3.37849e-07)
(-1.00244e-07 -6.59366e-07 4.15783e-07)
(-1.47048e-07 -7.6419e-07 4.99856e-07)
(-2.0208e-07 -8.65339e-07 5.87704e-07)
(-2.64998e-07 -9.60707e-07 6.76954e-07)
(-3.36811e-07 -1.04968e-06 7.65263e-07)
(-4.19149e-07 -1.133e-06 8.52096e-07)
(-5.15007e-07 -1.21113e-06 9.35984e-07)
(-6.30006e-07 -1.28442e-06 1.01499e-06)
(-7.70277e-07 -1.35106e-06 1.08348e-06)
(-9.0789e-07 -1.39176e-06 1.1306e-06)
(2.9502e-09 -6.09522e-08 3.49171e-08)
(6.41538e-09 -1.71936e-07 9.91347e-08)
(5.16454e-09 -2.78301e-07 1.62578e-07)
(-2.43742e-09 -3.84372e-07 2.28902e-07)
(-1.74019e-08 -4.92841e-07 3.00703e-07)
(-4.02506e-08 -6.04842e-07 3.79612e-07)
(-7.06898e-08 -7.19274e-07 4.65938e-07)
(-1.07352e-07 -8.3283e-07 5.58821e-07)
(-1.4849e-07 -9.42303e-07 6.55899e-07)
(-1.93196e-07 -1.04589e-06 7.52855e-07)
(-2.39568e-07 -1.14236e-06 8.49804e-07)
(-2.87973e-07 -1.2328e-06 9.44393e-07)
(-3.39632e-07 -1.31829e-06 1.03658e-06)
(-3.99458e-07 -1.40229e-06 1.12551e-06)
(-4.77649e-07 -1.48938e-06 1.20456e-06)
(-5.74619e-07 -1.56538e-06 1.25875e-06)
(5.42041e-09 -6.38325e-08 3.83157e-08)
(1.34316e-08 -1.80027e-07 1.08716e-07)
(1.67247e-08 -2.91339e-07 1.78038e-07)
(1.40363e-08 -4.02218e-07 2.50161e-07)
(4.80625e-09 -5.15373e-07 3.27718e-07)
(-1.08592e-08 -6.31889e-07 4.12413e-07)
(-3.21613e-08 -7.50531e-07 5.04434e-07)
(-5.69473e-08 -8.67894e-07 6.03195e-07)
(-8.37457e-08 -9.81284e-07 7.04097e-07)
(-1.08743e-07 -1.088e-06 8.07614e-07)
(-1.30761e-07 -1.18781e-06 9.06574e-07)
(-1.45848e-07 -1.27999e-06 1.00514e-06)
(-1.52383e-07 -1.36528e-06 1.10085e-06)
(-1.44778e-07 -1.446e-06 1.19473e-06)
(-1.0773e-07 -1.52444e-06 1.27986e-06)
(-2.26512e-08 -1.58653e-06 1.33972e-06)
(-6.65431e-10 -6.09529e-09 2.53594e-09)
(-2.14083e-09 -1.72395e-08 7.22332e-09)
(-4.23413e-09 -2.78793e-08 1.18814e-08)
(-7.36494e-09 -3.83205e-08 1.67287e-08)
(-1.18338e-08 -4.87547e-08 2.20007e-08)
(-1.83496e-08 -5.97394e-08 2.77274e-08)
(-2.72704e-08 -7.10316e-08 3.41384e-08)
(-3.92117e-08 -8.25339e-08 4.11137e-08)
(-5.44495e-08 -9.35776e-08 4.90296e-08)
(-7.46475e-08 -1.04234e-07 5.58858e-08)
(-1.01388e-07 -1.14784e-07 6.39348e-08)
(-1.4005e-07 -1.26259e-07 7.19784e-08)
(-2.00987e-07 -1.40672e-07 8.10149e-08)
(-3.09277e-07 -1.61584e-07 9.14833e-08)
(-5.23353e-07 -1.96894e-07 1.05032e-07)
(-8.76853e-07 -2.49601e-07 1.21855e-07)
(-1.8875e-09 -1.82199e-08 7.57928e-09)
(-6.11202e-09 -5.14301e-08 2.15704e-08)
(-1.21668e-08 -8.30917e-08 3.54414e-08)
(-2.11099e-08 -1.14225e-07 4.99614e-08)
(-3.42608e-08 -1.45924e-07 6.56086e-08)
(-5.29052e-08 -1.78771e-07 8.29225e-08)
(-7.8585e-08 -2.13163e-07 1.02153e-07)
(-1.1214e-07 -2.47515e-07 1.23792e-07)
(-1.5572e-07 -2.80969e-07 1.45038e-07)
(-2.10413e-07 -3.12552e-07 1.67773e-07)
(-2.81389e-07 -3.4258e-07 1.90069e-07)
(-3.77596e-07 -3.73847e-07 2.13102e-07)
(-5.11915e-07 -4.08312e-07 2.36601e-07)
(-7.02681e-07 -4.46908e-07 2.58832e-07)
(-9.62713e-07 -4.88349e-07 2.77252e-07)
(-1.2142e-06 -5.19352e-07 2.87402e-07)
(-2.76432e-09 -2.98529e-08 1.24843e-08)
(-9.06947e-09 -8.4193e-08 3.55118e-08)
(-1.82268e-08 -1.36028e-07 5.83318e-08)
(-3.20092e-08 -1.87372e-07 8.22024e-08)
(-5.21989e-08 -2.39709e-07 1.08081e-07)
(-8.07357e-08 -2.94305e-07 1.36763e-07)
(-1.19331e-07 -3.50582e-07 1.68897e-07)
(-1.6984e-07 -4.07204e-07 2.03249e-07)
(-2.33094e-07 -4.62057e-07 2.39729e-07)
(-3.11449e-07 -5.13655e-07 2.76204e-07)
(-4.09467e-07 -5.62707e-07 3.12942e-07)
(-5.34288e-07 -6.11036e-07 3.49785e-07)
(-6.92483e-07 -6.60127e-07 3.85947e-07)
(-8.86012e-07 -7.09762e-07 4.18868e-07)
(-1.09617e-06 -7.57181e-07 4.46723e-07)
(-1.23993e-06 -7.91388e-07 4.66586e-07)
(-3.10767e-09 -4.04985e-08 1.71321e-08)
(-1.04099e-08 -1.14206e-07 4.86996e-08)
(-2.13663e-08 -1.84645e-07 7.99569e-08)
(-3.82388e-08 -2.54684e-07 1.12671e-07)
(-6.29699e-08 -3.26375e-07 1.48233e-07)
(-9.77252e-08 -4.0081e-07 1.87651e-07)
(-1.44292e-07 -4.77728e-07 2.31281e-07)
(-2.03854e-07 -5.54674e-07 2.7843e-07)
(-2.76595e-07 -6.2859e-07 3.2842e-07)
(-3.64703e-07 -6.98757e-07 3.78238e-07)
(-4.71037e-07 -7.64544e-07 4.28209e-07)
(-5.9981e-07 -8.27505e-07 4.77371e-07)
(-7.53085e-07 -8.88421e-07 5.24607e-07)
(-9.26898e-07 -9.46893e-07 5.67052e-07)
(-1.10033e-06 -1.00148e-06 6.03566e-07)
(-1.21215e-06 -1.04239e-06 6.30011e-07)
(-2.78417e-09 -4.97067e-08 2.14118e-08)
(-9.67868e-09 -1.40166e-07 6.08262e-08)
(-2.08779e-08 -2.26837e-07 9.98074e-08)
(-3.85797e-08 -3.13152e-07 1.40613e-07)
(-6.48818e-08 -4.01508e-07 1.84925e-07)
(-1.01572e-07 -4.93294e-07 2.33933e-07)
(-1.50152e-07 -5.87558e-07 2.87732e-07)
(-2.10394e-07 -6.81304e-07 3.46701e-07)
(-2.82891e-07 -7.72155e-07 4.07332e-07)
(-3.67347e-07 -8.57591e-07 4.69769e-07)
(-4.65793e-07 -9.37495e-07 5.31188e-07)
(-5.80681e-07 -1.01265e-06 5.90943e-07)
(-7.13392e-07 -1.08344e-06 6.47814e-07)
(-8.62843e-07 -1.14975e-06 6.9869e-07)
(-1.01824e-06 -1.21034e-06 7.42747e-07)
(-1.13097e-06 -1.2542e-06 7.74179e-07)
(-1.70572e-09 -5.70827e-08 2.52413e-08)
(-6.77082e-09 -1.61045e-07 7.16672e-08)
(-1.63795e-08 -2.60665e-07 1.17509e-07)
(-3.27303e-08 -3.60006e-07 1.65402e-07)
(-5.74886e-08 -4.61696e-07 2.17272e-07)
(-9.20995e-08 -5.669e-07 2.74374e-07)
(-1.37003e-07 -6.74718e-07 3.37016e-07)
(-1.91665e-07 -7.81787e-07 4.04482e-07)
(-2.54834e-07 -8.84741e-07 4.75207e-07)
(-3.25648e-07 -9.81903e-07 5.46913e-07)
(-4.04367e-07 -1.0722e-06 6.1756e-07)
(-4.92097e-07 -1.15654e-06 6.85936e-07)
(-5.91065e-07 -1.23543e-06 7.50862e-07)
(-7.06214e-07 -1.30957e-06 8.09203e-07)
(-8.41134e-07 -1.37638e-06 8.60167e-07)
(-9.64224e-07 -1.41552e-06 8.95766e-07)
(8.0581e-11 -6.23493e-08 2.85687e-08)
(-1.73282e-09 -1.7589e-07 8.1067e-08)
(-8.17108e-09 -2.84722e-07 1.32765e-07)
(-2.10996e-08 -3.93171e-07 1.86612e-07)
(-4.18271e-08 -5.03949e-07 2.44615e-07)
(-7.09905e-08 -6.18327e-07 3.08042e-07)
(-1.08411e-07 -7.3494e-07 3.77408e-07)
(-1.52622e-07 -8.50398e-07 4.51415e-07)
(-2.01586e-07 -9.61402e-07 5.28437e-07)
(-2.52918e-07 -1.06542e-06 6.07559e-07)
(-3.05235e-07 -1.16197e-06 6.83882e-07)
(-3.57451e-07 -1.2515e-06 7.58245e-07)
(-4.10693e-07 -1.33552e-06 8.29043e-07)
(-4.69646e-07 -1.41821e-06 8.93206e-07)
(-5.41927e-07 -1.50419e-06 9.50388e-07)
(-6.25207e-07 -1.58022e-06 9.89852e-07)
(2.45765e-09 -6.52431e-08 3.13565e-08)
(5.04512e-09 -1.84042e-07 8.88855e-08)
(3.04295e-09 -2.97856e-07 1.45379e-07)
(-5.03924e-09 -4.11126e-07 2.03854e-07)
(-1.98887e-08 -5.26572e-07 2.66459e-07)
(-4.17622e-08 -6.45343e-07 3.34402e-07)
(-6.95647e-08 -7.65964e-07 4.07969e-07)
(-1.01633e-07 -8.85092e-07 4.85706e-07)
(-1.34895e-07 -9.99046e-07 5.67444e-07)
(-1.66524e-07 -1.10591e-06 6.47394e-07)
(-1.9225e-07 -1.20416e-06 7.28669e-07)
(-2.09945e-07 -1.29399e-06 8.04956e-07)
(-2.16691e-07 -1.37599e-06 8.78261e-07)
(-2.07416e-07 -1.45369e-06 9.4524e-07)
(-1.63234e-07 -1.53038e-06 1.00624e-06)
(-6.23378e-08 -1.59457e-06 1.04878e-06)
(-9.3669e-10 -6.24095e-09 1.87913e-09)
(-2.91444e-09 -1.76409e-08 5.34681e-09)
(-5.5084e-09 -2.84788e-08 8.7787e-09)
(-9.11713e-09 -3.90597e-08 1.23638e-08)
(-1.4259e-08 -4.98044e-08 1.61253e-08)
(-2.13265e-08 -6.07728e-08 2.03229e-08)
(-3.1191e-08 -7.28515e-08 2.49618e-08)
(-4.40728e-08 -8.49847e-08 3.01722e-08)
(-6.04973e-08 -9.66917e-08 3.51547e-08)
(-8.15048e-08 -1.08393e-07 4.10863e-08)
(-1.0841e-07 -1.18849e-07 4.63855e-08)
(-1.47071e-07 -1.30945e-07 5.23118e-08)
(-2.07663e-07 -1.46176e-07 5.87923e-08)
(-3.16261e-07 -1.67796e-07 6.63974e-08)
(-5.32122e-07 -2.03665e-07 7.66434e-08)
(-8.90225e-07 -2.55925e-07 8.8941e-08)
(-2.68608e-09 -1.86382e-08 5.6151e-09)
(-8.37927e-09 -5.25658e-08 1.5968e-08)
(-1.58623e-08 -8.48249e-08 2.62099e-08)
(-2.64231e-08 -1.16628e-07 3.67893e-08)
(-4.12202e-08 -1.48731e-07 4.82102e-08)
(-6.21014e-08 -1.83172e-07 6.07906e-08)
(-9.01232e-08 -2.18489e-07 7.487e-08)
(-1.2665e-07 -2.54326e-07 8.98099e-08)
(-1.72607e-07 -2.89768e-07 1.06277e-07)
(-2.29051e-07 -3.22119e-07 1.22084e-07)
(-3.01085e-07 -3.53706e-07 1.3856e-07)
(-3.97013e-07 -3.86422e-07 1.55285e-07)
(-5.29939e-07 -4.22556e-07 1.72041e-07)
(-7.2014e-07 -4.6269e-07 1.88169e-07)
(-9.79655e-07 -5.04193e-07 2.01897e-07)
(-1.2335e-06 -5.32936e-07 2.08817e-07)
(-4.04586e-09 -3.05089e-08 9.24949e-09)
(-1.26906e-08 -8.59982e-08 2.62876e-08)
(-2.42054e-08 -1.38911e-07 4.30883e-08)
(-4.04517e-08 -1.91126e-07 6.05622e-08)
(-6.33927e-08 -2.44897e-07 7.94133e-08)
(-9.50359e-08 -3.00453e-07 1.00244e-07)
(-1.37552e-07 -3.5882e-07 1.23184e-07)
(-1.91954e-07 -4.17699e-07 1.48564e-07)
(-2.58941e-07 -4.74175e-07 1.7492e-07)
(-3.39975e-07 -5.27686e-07 2.01615e-07)
(-4.39121e-07 -5.78215e-07 2.28441e-07)
(-5.6328e-07 -6.28547e-07 2.54998e-07)
(-7.18932e-07 -6.79986e-07 2.80571e-07)
(-9.10395e-07 -7.314e-07 3.04401e-07)
(-1.11748e-06 -7.79058e-07 3.24573e-07)
(-1.26123e-06 -8.11321e-07 3.37872e-07)
(-4.80074e-09 -4.13667e-08 1.26906e-08)
(-1.51819e-08 -1.16612e-07 3.60407e-08)
(-2.92722e-08 -1.88493e-07 5.90561e-08)
(-4.92924e-08 -2.60011e-07 8.30082e-08)
(-7.75622e-08 -3.32912e-07 1.08887e-07)
(-1.16446e-07 -4.09466e-07 1.374e-07)
(-1.67514e-07 -4.87919e-07 1.68901e-07)
(-2.31487e-07 -5.66144e-07 2.03466e-07)
(-3.08953e-07 -6.42594e-07 2.39009e-07)
(-4.00008e-07 -7.14336e-07 2.76196e-07)
(-5.07596e-07 -7.82002e-07 3.12548e-07)
(-6.35238e-07 -8.47134e-07 3.47785e-07)
(-7.85047e-07 -9.10296e-07 3.8102e-07)
(-9.55338e-07 -9.70621e-07 4.11629e-07)
(-1.12399e-06 -1.02571e-06 4.37602e-07)
(-1.23482e-06 -1.06522e-06 4.55042e-07)
(-4.78439e-09 -5.07326e-08 1.58596e-08)
(-1.5411e-08 -1.43116e-07 4.50146e-08)
(-3.01832e-08 -2.31492e-07 7.37189e-08)
(-5.16596e-08 -3.1939e-07 1.03587e-07)
(-8.19948e-08 -4.09627e-07 1.35839e-07)
(-1.23268e-07 -5.02775e-07 1.71205e-07)
(-1.76694e-07 -5.98846e-07 2.10309e-07)
(-2.42388e-07 -6.94646e-07 2.51895e-07)
(-3.19148e-07 -7.86218e-07 2.96976e-07)
(-4.06846e-07 -8.7347e-07 3.42548e-07)
(-5.0651e-07 -9.5495e-07 3.87242e-07)
(-6.19821e-07 -1.03182e-06 4.30006e-07)
(-7.48173e-07 -1.10447e-06 4.69786e-07)
(-8.93101e-07 -1.17229e-06 5.06242e-07)
(-1.04272e-06 -1.23341e-06 5.37074e-07)
(-1.15412e-06 -1.27608e-06 5.57474e-07)
(-3.94896e-09 -5.82473e-08 1.86989e-08)
(-1.31194e-08 -1.64296e-07 5.30376e-08)
(-2.67254e-08 -2.65899e-07 8.67946e-08)
(-4.71184e-08 -3.67124e-07 1.21859e-07)
(-7.6267e-08 -4.70372e-07 1.59588e-07)
(-1.15645e-07 -5.77591e-07 2.00797e-07)
(-1.65764e-07 -6.86831e-07 2.45658e-07)
(-2.25653e-07 -7.94804e-07 2.94011e-07)
(-2.93168e-07 -8.99258e-07 3.45367e-07)
(-3.67244e-07 -9.97143e-07 3.9819e-07)
(-4.46864e-07 -1.08835e-06 4.49515e-07)
(-5.32578e-07 -1.17364e-06 4.98285e-07)
(-6.26707e-07 -1.25366e-06 5.43459e-07)
(-7.36758e-07 -1.32894e-06 5.84903e-07)
(-8.65226e-07 -1.39637e-06 6.19963e-07)
(-9.86965e-07 -1.43483e-06 6.42581e-07)
(-2.31167e-09 -6.35794e-08 2.11671e-08)
(-8.47915e-09 -1.79371e-07 5.99892e-08)