/*--------------------------------*- C++ -*----------------------------------*\
| =========                 |                                                 |
| \\      /  F ield         | OpenFOAM: The Open Source CFD Toolbox           |
|  \\    /   O peration     | Version:  v1912                                 |
|   \\  /    A nd           | Website:  www.openfoam.com                      |
|    \\/     M anipulation  |                                                 |
\*---------------------------------------------------------------------------*/
FoamFile
{
    version     2.0;
    format      ascii;
    class       surfaceScalarField;
    location    "0.07/fluid";
    object      meshPhi;
}
// * * * * * * * * * * * * * * * * * * * * * * * * * * * * * * * * * * * * * //

dimensions      [0 3 -1 0 0 0 0];
oriented        oriented;


internalField   nonuniform List<scalar> 
41600
(
8.19526e-13
-7.22769e-12
2.64844e-12
-2.70965e-12
1.3752e-12
-2.11669e-11
7.83065e-12
-8.00778e-12
1.55808e-12
-3.43173e-11
1.29491e-11
-1.32309e-11
1.26364e-12
-4.70811e-11
1.82882e-11
-1.86682e-11
3.78158e-13
-5.97907e-11
2.40662e-11
-2.45433e-11
-1.19824e-12
-7.27075e-11
3.04574e-11
-3.10298e-11
-3.52962e-12
-8.57235e-11
3.75244e-11
-3.81862e-11
-6.68561e-12
-9.82919e-11
4.516e-11
-4.5893e-11
-1.07492e-11
-1.09694e-10
5.31448e-11
-5.39066e-11
-1.58705e-11
-1.19196e-10
6.1272e-11
-6.19626e-11
-2.24606e-11
-1.2606e-10
6.94975e-11
-6.98962e-11
-3.12774e-11
-1.29279e-10
7.8063e-11
-7.77614e-11
-4.35995e-11
-1.26458e-10
8.75283e-11
-8.57469e-11
-6.11255e-11
-1.11601e-10
9.87511e-11
-9.38351e-11
-8.1878e-11
-7.59352e-11
1.12303e-10
-1.00742e-10
3.95321e-12
1.56786e-10
-9.85219e-11
2.51442e-12
-1.43235e-11
7.9034e-12
-8.08747e-12
4.24042e-12
-4.19485e-11
2.33685e-11
-2.39031e-11
4.86662e-12
-6.80529e-11
3.86505e-11
-3.95059e-11
4.08902e-12
-9.35324e-11
5.46164e-11
-5.57743e-11
1.60033e-12
-1.1907e-10
7.19294e-11
-7.3382e-11
-2.85543e-12
-1.45047e-10
9.10854e-11
-9.28228e-11
-9.44617e-12
-1.71189e-10
1.12243e-10
-1.14239e-10
-1.83307e-11
-1.96535e-10
1.35081e-10
-1.37278e-10
-2.9618e-11
-2.19796e-10
1.58947e-10
-1.61226e-10
-4.3587e-11
-2.39716e-10
1.83226e-10
-1.85312e-10
-6.10904e-11
-2.5524e-10
2.07734e-10
-2.09059e-10
-8.33022e-11
-2.65049e-10
2.32904e-10
-2.3244e-10
-1.11615e-10
-2.66474e-10
2.59758e-10
-2.55593e-10
-1.45762e-10
-2.54593e-10
2.89813e-10
-2.78114e-10
-1.75704e-10
-2.25991e-10
3.23753e-10
-2.96743e-10
-1.835e-10
3.80738e-10
-2.9806e-10
4.37218e-12
-2.10325e-11
1.30173e-11
-1.33258e-11
7.45653e-12
-6.16154e-11
3.84909e-11
-3.93909e-11
8.77481e-12
-1.00062e-10
6.368e-11
-6.51279e-11
7.86907e-12
-1.37776e-10
9.00449e-11
-9.20112e-11
4.32296e-12
-1.75737e-10
1.18693e-10
-1.21156e-10
-2.17062e-12
-2.14403e-10
1.50398e-10
-1.5333e-10
-1.18135e-11
-2.53382e-10
1.85376e-10
-1.88718e-10
-2.4656e-11
-2.91399e-10
2.23094e-10
-2.26747e-10
-4.06551e-11
-3.26835e-10
2.625e-10
-2.66299e-10
-5.99691e-11
-3.58326e-10
3.0263e-10
-3.0621e-10
-8.31668e-11
-3.8481e-10
3.4306e-10
-3.45702e-10
-1.10529e-10
-4.05016e-10
3.83934e-10
-3.84327e-10
-1.4132e-10
-4.16787e-10
4.25891e-10
-4.21643e-10
-1.70189e-10
-4.17006e-10
4.70036e-10
-4.5668e-10
-1.81169e-10
-4.04679e-10
5.16475e-10
-4.85428e-10
-3.80401e-10
5.8734e-10
-5.04732e-10
6.48102e-12
-2.70686e-11
1.78728e-11
-1.83073e-11
1.12259e-11
-7.93277e-11
5.28476e-11
-5.41183e-11
1.3648e-11
-1.28944e-10
8.74423e-11
-8.94938e-11
1.32204e-11
-1.77782e-10
1.23687e-10
-1.26478e-10
9.52739e-12
-2.27075e-10
1.63105e-10
-1.66598e-10
2.32965e-12
-2.77365e-10
2.06721e-10
-2.10868e-10
-8.4366e-12
-3.28181e-10
2.54801e-10
-2.59512e-10
-2.2598e-11
-3.78116e-10
3.06628e-10
-3.11773e-10
-3.98769e-11
-4.25518e-10
3.60838e-10
-3.66243e-10
-6.01075e-11
-4.69098e-10
4.16165e-10
-4.21495e-10
-8.33073e-11
-5.07946e-10
4.71869e-10
-4.76425e-10
-1.08917e-10
-5.41062e-10
5.2764e-10
-5.30063e-10
-1.35288e-10
-5.66725e-10
5.83533e-10
-5.81327e-10
-1.56572e-10
-5.82343e-10
6.39958e-10
-6.28593e-10
-1.5913e-10
-5.85805e-10
6.95959e-10
-6.66864e-10
-5.74461e-10
7.70337e-10
-6.89557e-10
8.89626e-12
-3.21613e-11
2.23564e-11
-2.29151e-11
1.56703e-11
-9.42805e-11
6.60936e-11
-6.77306e-11
1.97091e-11
-1.53341e-10
1.09336e-10
-1.11984e-10
2.05163e-11
-2.1159e-10
1.54626e-10
-1.58233e-10
1.77913e-11
-2.70475e-10
2.03856e-10
-2.08377e-10
1.1477e-11
-3.30622e-10
2.58277e-10
-2.63651e-10
1.80187e-12
-3.91555e-10
3.18211e-10
-3.24339e-10
-1.08475e-11
-4.51898e-10
3.82838e-10
-3.89583e-10
-2.58966e-11
-5.10131e-10
4.50567e-10
-4.57774e-10
-4.2758e-11
-5.65142e-10
5.19812e-10
-5.27251e-10
-6.09944e-11
-6.16366e-10
5.89549e-10
-5.96665e-10
-7.96224e-11
-6.63357e-10
6.59285e-10
-6.64853e-10
-9.75215e-11
-7.05037e-10
7.28838e-10
-7.3051e-10
-1.11446e-10
-7.39085e-10
7.97888e-10
-7.91366e-10
-1.12659e-10
-7.60933e-10
8.63412e-10
-8.40273e-10
-7.62989e-10
9.40458e-10
-8.65546e-10
1.1635e-11
-3.60865e-11
2.63748e-11
-2.70512e-11
2.08254e-11
-1.05798e-10
7.79469e-11
-7.99303e-11
2.70165e-11
-1.72113e-10
1.28868e-10
-1.32081e-10
2.98298e-11
-2.37568e-10
1.82111e-10
-1.86496e-10
2.91662e-11
-3.03786e-10
2.39874e-10
-2.45386e-10
2.52396e-11
-3.71477e-10
3.03598e-10
-3.10186e-10
1.85673e-11
-4.40197e-10
3.73674e-10
-3.81251e-10
9.80684e-12
-5.08651e-10
4.49239e-10
-4.5768e-10
-1.74667e-13
-5.75476e-10
5.28495e-10
-5.37693e-10
-1.04628e-11
-6.39906e-10
6.09544e-10
-6.19397e-10
-2.0068e-11
-7.01945e-10
6.91286e-10
-7.01451e-10
-2.75012e-11
-7.61931e-10
7.73603e-10
-7.83155e-10
-3.20247e-11
-8.20143e-10
8.57043e-10
-8.64034e-10
-3.26797e-11
-8.76435e-10
9.41789e-10
-9.42544e-10
-2.65065e-11
-9.26709e-10
1.02332e-09
-1.01001e-09
-9.50095e-10
1.11115e-09
-1.04795e-09
1.46693e-11
-3.86625e-11
2.98632e-11
-3.06451e-11
2.66255e-11
-1.13341e-10
8.82118e-11
-9.05056e-11
3.54434e-11
-1.84367e-10
1.45701e-10
-1.4942e-10
4.09175e-11
-2.54465e-10
2.0563e-10
-2.10717e-10
4.31747e-11
-3.25385e-10
2.70422e-10
-2.76842e-10
4.27183e-11
-3.97883e-10
3.4165e-10
-3.49382e-10
4.03146e-11
-4.71546e-10
4.19775e-10
-4.28758e-10
3.68761e-11
-5.45144e-10
5.03886e-10
-5.14018e-10
3.34157e-11
-6.17561e-10
5.91955e-10
-6.03186e-10
3.11525e-11
-6.88446e-10
6.81821e-10
-6.94172e-10
3.17844e-11
-7.58207e-10
7.72452e-10
-7.8584e-10
3.77606e-11
-8.27823e-10
8.64574e-10
-8.78475e-10
5.11815e-11
-8.98892e-10
9.60515e-10
-9.7362e-10
7.48827e-11
-9.74229e-10
1.06306e-09
-1.07289e-09
1.09709e-10
-1.05345e-09
1.16916e-09
-1.16968e-09
-1.15043e-09
1.28301e-09
-1.24976e-09
1.79191e-11
3.27795e-11
-3.36517e-11
-3.97538e-11
3.28953e-11
9.67648e-11
-9.93237e-11
-1.16521e-10
4.46767e-11
1.59629e-10
-1.63781e-10
-1.89492e-10
5.32398e-11
2.24884e-10
-2.30573e-10
-2.61472e-10
5.8914e-11
2.95068e-10
-3.02279e-10
-3.34262e-10
6.24328e-11
3.71823e-10
-3.80567e-10
-4.08625e-10
6.47509e-11
4.5564e-10
-4.65889e-10
-4.84153e-10
6.68829e-11
5.45524e-10
-5.57213e-10
-5.5974e-10
6.98152e-11
6.39197e-10
-6.52326e-10
-6.34541e-10
7.49426e-11
7.34211e-10
-7.48886e-10
-7.08487e-10
8.45316e-11
8.29498e-10
-8.45873e-10
-7.82047e-10
1.01921e-10
9.26478e-10
-9.4447e-10
-8.56008e-10
1.31268e-10
1.02915e-09
-1.04817e-09
-9.31558e-10
1.79291e-10
1.14288e-09
-1.16193e-09
-1.01039e-09
2.47591e-10
1.26619e-09
-1.28222e-09
-1.08949e-09
1.41332e-09
-1.43164e-09
-1.18463e-09
3.98034e-13
-7.47118e-12
2.49115e-12
5.37644e-13
-2.18966e-11
7.36739e-12
2.67614e-13
-3.55517e-11
1.21888e-11
-5.58095e-13
-4.88689e-11
1.72263e-11
-2.10179e-12
-6.21922e-11
2.26846e-11
-4.52695e-12
-7.57894e-11
2.87205e-11
-7.98342e-12
-8.95803e-11
3.53955e-11
-1.26142e-11
-1.03036e-10
4.26161e-11
-1.86284e-11
-1.15469e-10
5.0181e-11
-2.64441e-11
-1.2632e-10
5.79367e-11
-3.69843e-11
-1.35206e-10
6.5907e-11
-5.20781e-11
-1.41749e-10
7.43306e-11
-7.49617e-11
-1.44892e-10
8.35651e-11
-1.11232e-10
-1.41786e-10
9.38657e-11
-1.63776e-10
-1.2891e-10
1.04805e-10
-1.06601e-10
1.16672e-10
1.27119e-12
-1.47967e-11
7.43263e-12
1.77201e-12
-4.3358e-11
2.19804e-11
1.06755e-12
-7.0419e-11
3.63675e-11
-1.26454e-12
-9.69415e-11
5.14161e-11
-5.67114e-12
-1.23649e-10
6.77486e-11
-1.25885e-11
-1.50964e-10
8.58195e-11
-2.23929e-11
-1.78637e-10
1.05781e-10
-3.54364e-11
-2.05698e-10
1.27343e-10
-5.21821e-11
-2.30915e-10
1.49923e-10
-7.3576e-11
-2.53277e-10
1.73057e-10
-1.01701e-10
-2.72156e-10
1.96711e-10
-1.40069e-10
-2.87003e-10
2.21307e-10
-1.93731e-10
-2.96517e-10
2.47367e-10
-2.68793e-10
-2.98167e-10
2.74884e-10
-3.61478e-10
-2.90827e-10
3.02058e-10
-2.85687e-10
3.10056e-10
2.37047e-12
-2.17052e-11
1.22377e-11
3.4868e-12
-6.36113e-11
3.61883e-11
2.67857e-12
-1.03399e-10
5.98808e-11
-6.93491e-13
-1.42583e-10
8.46973e-11
-7.25581e-12
-1.82228e-10
1.11679e-10
-1.75743e-11
-2.22843e-10
1.41545e-10
-3.20961e-11
-2.64034e-10
1.74491e-10
-5.11554e-11
-3.04493e-10
2.10039e-10
-7.51595e-11
-3.42612e-10
2.47269e-10
-1.05098e-10
-3.77163e-10
2.85385e-10
-1.42998e-10
-4.07453e-10
3.24132e-10
-1.91452e-10
-4.32898e-10
3.6368e-10
-2.52528e-10
-4.52375e-10
4.0409e-10
-3.24711e-10
-4.64299e-10
4.44637e-10
-3.94034e-10
-4.68729e-10
4.82507e-10
-4.72081e-10
5.02192e-10
3.8207e-12
-2.79023e-11
1.67946e-11
5.95962e-12
-8.17996e-11
4.96579e-11
5.58743e-12
-1.33078e-10
8.21663e-11
1.95352e-12
-1.83752e-10
1.16241e-10
-5.60614e-12
-2.35168e-10
1.53317e-10
-1.76098e-11
-2.8791e-10
1.94342e-10
-3.43825e-11
-3.41481e-10
2.39554e-10
-5.60229e-11
-3.94383e-10
2.88325e-10
-8.26835e-11
-4.4485e-10
3.39429e-10
-1.15073e-10
-4.91604e-10
3.91737e-10
-1.54571e-10
-5.33982e-10
4.44677e-10
-2.02536e-10
-5.71472e-10
4.98031e-10
-2.59301e-10
-6.03107e-10
5.51383e-10
-3.21584e-10
-6.27435e-10
6.0352e-10
-3.77284e-10
-6.43404e-10
6.51059e-10
-6.54599e-10
6.77823e-10
5.7044e-12
-3.31192e-11
2.09968e-11
9.3689e-12
-9.71203e-11
6.20685e-11
1.01069e-11
-1.58095e-10
1.0267e-10
7.18083e-12
-2.18471e-10
1.45207e-10
3.74264e-14
-2.79811e-10
1.91459e-10
-1.16424e-11
-3.42765e-10
2.42575e-10
-2.78792e-11
-4.06793e-10
2.98849e-10
-4.845e-11
-4.70343e-10
3.5954e-10
-7.31632e-11
-5.31679e-10
4.23169e-10
-1.02247e-10
-5.89582e-10
4.88277e-10
-1.364e-10
-6.43537e-10
5.53979e-10
-1.76343e-10
-6.93366e-10
6.19869e-10
-2.22794e-10
-7.38487e-10
6.85364e-10
-2.75343e-10
-7.77425e-10
7.48839e-10
-3.27731e-10
-8.068e-10
8.05763e-10
-8.26394e-10
8.38595e-10
8.05468e-12
-3.71312e-11
2.47596e-11
1.37808e-11
-1.08896e-10
7.31643e-11
1.63409e-11
-1.77303e-10
1.20946e-10
1.51193e-11
-2.45078e-10
1.70914e-10
9.78129e-12
-3.13953e-10
2.25128e-10
3.10797e-13
-3.84632e-10
2.849e-10
-1.29382e-11
-4.56555e-10
3.50577e-10
-2.93894e-11
-5.28199e-10
4.21348e-10
-4.84659e-11
-5.97933e-10
4.95517e-10
-6.98567e-11
-6.64722e-10
5.71301e-10
-9.35112e-11
-7.28392e-10
6.47647e-10
-1.19556e-10
-7.89307e-10
7.24383e-10
-1.49255e-10
-8.47935e-10
8.01417e-10
-1.85397e-10
-9.04579e-10
8.77409e-10
-2.29068e-10
-9.56285e-10
9.46705e-10
-9.8711e-10
9.89694e-10
1.08463e-11
-3.97553e-11
2.80241e-11
1.91322e-11
-1.16583e-10
8.27673e-11
2.41589e-11
-1.89795e-10
1.36687e-10
2.55005e-11
-2.62308e-10
1.92894e-10
2.30802e-11
-3.35956e-10
2.53644e-10
1.72186e-11
-4.11461e-10
3.20361e-10
8.61524e-12
-4.88263e-10
3.93427e-10
-1.83549e-12
-5.64883e-10
4.71968e-10
-1.32356e-11
-6.39867e-10
5.5407e-10
-2.47172e-11
-7.12453e-10
6.3766e-10
-3.52924e-11
-7.82684e-10
7.21657e-10
-4.38771e-11
-8.51254e-10
8.06433e-10
-5.02182e-11
-9.195e-10
8.93057e-10
-5.53534e-11
-9.89767e-10
9.81578e-10
-6.27787e-11
-1.06152e-09
1.06605e-09
-1.146e-09
1.12335e-09
1.39886e-11
3.07508e-11
-4.08535e-11
2.52213e-11
9.07619e-11
-1.19785e-10
3.31932e-11
1.49698e-10
-1.94958e-10
3.76854e-11
2.10859e-10
-2.6935e-10
3.88666e-11
2.76597e-10
-3.44825e-10
3.7338e-11
3.48385e-10
-4.22095e-10
3.4048e-11
4.26609e-10
-5.00595e-10
3.00704e-11
5.103e-10
-5.78954e-10
2.64695e-11
5.97312e-10
-6.55942e-10
2.45385e-11
6.8529e-10
-7.30986e-10
2.61007e-11
7.73096e-10
-8.04054e-10
3.3562e-11
8.6155e-10
-8.75396e-10
4.98044e-11
9.52836e-10
-9.45434e-10
7.91137e-11
1.04852e-09
-1.0144e-09
1.21573e-10
1.14259e-09
-1.07757e-09
1.21334e-09
-1.12325e-09
-3.49998e-14
-7.71917e-12
2.23851e-12
-3.23419e-13
-2.26311e-11
6.6209e-12
-1.05725e-12
-3.67753e-11
1.09555e-11
-2.42129e-12
-5.06273e-11
1.54843e-11
-4.62198e-12
-6.45546e-11
2.03885e-11
-7.88079e-12
-7.88213e-11
2.58042e-11
-1.24109e-11
-9.33617e-11
3.17821e-11
-1.84394e-11
-1.07704e-10
3.82505e-11
-2.62929e-11
-1.21249e-10
4.50394e-11
-3.6606e-11
-1.33611e-10
5.19976e-11
-5.07425e-11
-1.44785e-10
5.9136e-11
-7.12858e-11
-1.55113e-10
6.66073e-11
-1.0287e-10
-1.64998e-10
7.44934e-11
-1.53846e-10
-1.7485e-10
8.24971e-11
-2.28941e-10
-1.85768e-10
8.94285e-11
-1.97245e-10
1.01723e-10
-7.51109e-15
-1.52734e-11
6.67796e-12
-7.66349e-13
-4.47659e-11
1.97494e-11
-2.83168e-12
-7.2758e-11
3.2677e-11
-6.73534e-12
-1.00287e-10
4.61957e-11
-1.30511e-11
-1.28117e-10
6.08569e-11
-2.23725e-11
-1.56688e-10
7.70557e-11
-3.52541e-11
-1.85787e-10
9.49279e-11
-5.22555e-11
-2.14506e-10
1.14247e-10
-7.4148e-11
-2.41734e-10
1.3449e-10
-1.02455e-10
-2.66724e-10
1.55207e-10
-1.40259e-10
-2.89346e-10
1.7636e-10
-1.92691e-10
-3.09891e-10
1.98153e-10
-2.67391e-10
-3.28502e-10
2.20455e-10
-3.74803e-10
-3.44943e-10
2.42033e-10
-5.11958e-10
-3.5927e-10
2.59574e-10
-3.75204e-10
2.67802e-10
3.09841e-13
-2.23803e-11
1.09924e-11
-5.96172e-13
-6.56023e-11
3.25036e-11
-3.57576e-12
-1.06696e-10
5.37763e-11
-9.43384e-12
-1.47281e-10
7.60458e-11
-1.89869e-11
-1.88487e-10
1.00237e-10
-3.30272e-11
-2.30859e-10
1.26976e-10
-5.22437e-11
-2.74024e-10
1.56457e-10
-7.72368e-11
-3.16716e-10
1.8828e-10
-1.08824e-10
-3.57427e-10
2.21589e-10
-1.48715e-10
-3.95139e-10
2.55644e-10
-2.00015e-10
-4.2956e-10
2.9019e-10
-2.66867e-10
-4.60816e-10
3.25131e-10
-3.53231e-10
-4.88885e-10
3.5982e-10
-4.59804e-10
-5.13591e-10
3.92244e-10
-5.69939e-10
-5.35042e-10
4.18219e-10
-5.55011e-10
4.3587e-10
1.08229e-12
-2.87403e-11
1.50803e-11
5.44989e-13
-8.42683e-11
4.45822e-11
-2.67595e-12
-1.37158e-10
7.3748e-11
-9.53468e-12
-1.89556e-10
1.04295e-10
-2.09194e-11
-2.4289e-10
1.37499e-10
-3.76112e-11
-2.97773e-10
1.74191e-10
-6.01853e-11
-3.537e-10
2.14595e-10
-8.90077e-11
-4.09159e-10
2.58159e-10
-1.2464e-10
-4.624e-10
3.03769e-10
-1.68469e-10
-5.12222e-10
3.50371e-10
-2.22823e-10
-5.58205e-10
3.97355e-10
-2.90295e-10
-6.00355e-10
4.44264e-10
-3.72376e-10
-6.38544e-10
4.90085e-10
-4.66799e-10
-6.72498e-10
5.32559e-10
-5.58396e-10
-7.01621e-10
5.67364e-10
-7.27057e-10
5.92102e-10
2.42216e-12
-3.40825e-11
1.8847e-11
2.89682e-12
-9.99562e-11
5.57017e-11
2.74518e-13
-1.62779e-10
9.2106e-11
-6.40191e-12
-2.25123e-10
1.3021e-10
-1.79201e-11
-2.88639e-10
1.71595e-10
-3.48621e-11
-3.53987e-10
2.17263e-10
-5.74795e-11
-4.20571e-10
2.67457e-10
-8.57493e-11
-4.86743e-10
3.21526e-10
-1.19808e-10
-5.50659e-10
3.78146e-10
-1.60457e-10
-6.11043e-10
4.35918e-10
-2.09182e-10
-6.67452e-10
4.93887e-10
-2.6776e-10
-7.19968e-10
5.51394e-10
-3.37886e-10
-7.6858e-10
6.07305e-10
-4.20149e-10
-8.12856e-10
6.59222e-10
-5.05814e-10
-8.50352e-10
7.02274e-10
-8.8007e-10
7.33031e-10
4.37845e-12
-3.81796e-11
2.22185e-11
6.55502e-12
-1.11982e-10
6.56393e-11
5.42165e-12
-1.82396e-10
1.08464e-10
1.45636e-13
-2.52299e-10
1.53201e-10
-9.83664e-12
-3.23498e-10
2.01672e-10
-2.47776e-11
-3.96674e-10
2.55004e-10
-4.45026e-11
-4.71167e-10
3.13468e-10
-6.85468e-11
-5.45281e-10
3.76341e-10
-9.65428e-11
-6.17178e-10
4.42092e-10
-1.28586e-10
-6.85622e-10
5.09016e-10
-1.65272e-10
-7.5027e-10
5.75948e-10
-2.07771e-10
-8.11457e-10
6.42288e-10
-2.58529e-10
-8.69839e-10
7.07166e-10
-3.21958e-10
-9.26241e-10
7.68338e-10
-3.97618e-10
-9.7852e-10
8.20173e-10
-1.01101e-09
8.57701e-10
6.92417e-12
-4.08467e-11
2.5143e-11
1.14501e-11
-1.19796e-10
7.42387e-11
1.26175e-11
-1.95098e-10
1.22549e-10
9.79559e-12
-2.6981e-10
1.72848e-10
2.70309e-12
-3.4582e-10
2.27116e-10
-8.53765e-12
-4.23801e-10
2.8656e-10
-2.33455e-11
-5.03056e-10
3.51464e-10
-4.08546e-11
-5.81894e-10
4.21024e-10
-6.02173e-11
-6.58561e-10
4.93511e-10
-8.07634e-11
-7.31933e-10
5.66983e-10
-1.02001e-10
-8.01683e-10
6.40191e-10
-1.23876e-10
-8.68157e-10
7.12802e-10
-1.47508e-10
-9.32356e-10
7.84566e-10
-1.76053e-10
-9.96071e-10
8.53834e-10
-2.12392e-10
-1.05814e-09
9.14328e-10
-1.13208e-09
9.58634e-10
9.95183e-12
2.75844e-11
-4.19462e-11
1.73424e-11
8.13934e-11
-1.23006e-10
2.14225e-11
1.34181e-10
-2.00275e-10
2.17918e-11
1.88878e-10
-2.76857e-10
1.84495e-11
2.47542e-10
-3.54644e-10
1.18364e-11
3.11404e-10
-4.3428e-10
2.82861e-12
3.80728e-10
-5.15061e-10
-7.44833e-12
4.54601e-10
-5.95374e-10
-1.7803e-11
5.31113e-10
-6.73615e-10
-2.69232e-11
6.08148e-10
-7.48741e-10
-3.33134e-11
6.84386e-10
-8.20215e-10
-3.54787e-11
7.59731e-10
-8.87743e-10
-3.18676e-11
8.34579e-10
-9.51051e-10
-1.99846e-11
9.08035e-10
-1.00918e-09
1.14053e-12
9.73472e-10
-1.05611e-09
1.02246e-09
-1.07669e-09
-4.51909e-13
-7.95303e-12
1.89949e-12
-1.14952e-12
-2.33188e-11
5.61713e-12
-2.32215e-12
-3.79061e-11
9.28997e-12
-4.18677e-12
-5.22266e-11
1.31197e-11
-6.98732e-12
-6.66781e-11
1.72561e-11
-1.09928e-11
-8.15458e-11
2.18129e-11
-1.64623e-11
-9.67914e-11
2.68494e-11
-2.36662e-11
-1.11984e-10
3.23155e-11
-3.29928e-11
-1.26588e-10
3.80397e-11
-4.51969e-11
-1.40333e-10
4.38769e-11
-6.18492e-11
-1.5346e-10
4.98381e-11
-8.58111e-11
-1.66774e-10
5.60152e-11
-1.22209e-10
-1.81446e-10
6.24205e-11
-1.80012e-10
-1.991e-10
6.88715e-11
-2.62505e-10
-2.21212e-10
7.48387e-11
-2.41255e-10
8.70527e-11
-1.23695e-12
-1.57227e-11
5.66609e-12
-3.20002e-12
-4.60873e-11
1.67526e-11
-6.55217e-12
-7.49319e-11
2.77024e-11
-1.19175e-11
-1.03357e-10
3.91281e-11
-1.9977e-11
-1.32178e-10
5.14875e-11
-3.14545e-11
-1.61878e-10
6.51206e-11
-4.70286e-11
-1.92288e-10
8.01815e-11
-6.73732e-11
-2.22567e-10
9.64863e-11
-9.34189e-11
-2.51691e-10
1.13535e-10
-1.26965e-10
-2.79058e-10
1.30911e-10
-1.7153e-10
-3.04859e-10
1.48557e-10
-2.32778e-10
-3.29951e-10
1.66548e-10
-3.19074e-10
-3.55209e-10
1.84636e-10
-4.41134e-10
-3.80992e-10
2.01921e-10
-5.91289e-10
-4.06069e-10
2.16646e-10
-4.27626e-10
2.25711e-10
-1.66874e-12
-2.30189e-11
9.32484e-12
-4.50651e-12
-6.74803e-11
2.75636e-11
-9.53738e-12
-1.09784e-10
4.55714e-11
-1.7707e-11
-1.51631e-10
6.43786e-11
-2.99931e-11
-1.94215e-10
8.47584e-11
-4.73743e-11
-2.38133e-10
1.07257e-10
-7.07059e-11
-2.83053e-10
1.32075e-10
-1.00743e-10
-3.27762e-10
1.58879e-10
-1.38492e-10
-3.70825e-10
1.86896e-10
-1.85938e-10
-4.11341e-10
2.15433e-10
-2.46577e-10
-4.49283e-10
2.44196e-10
-3.24907e-10
-4.85231e-10
2.72974e-10
-4.25014e-10
-5.19703e-10
3.01062e-10
-5.46309e-10
-5.5276e-10
3.26929e-10
-6.65486e-10
-5.83123e-10
3.48196e-10
-6.08421e-10
3.64428e-10
-1.54343e-12
-2.95358e-11
1.27893e-11
-4.63326e-12
-8.66074e-11
3.77942e-11
-1.05422e-11
-1.41001e-10
6.24703e-11
-2.03972e-11
-1.94955e-10
8.82513e-11
-3.52806e-11
-2.49966e-10
1.16207e-10
-5.61888e-11
-3.06692e-10
1.47047e-10
-8.38709e-11
-3.64645e-10
1.80989e-10
-1.18837e-10
-4.2231e-10
2.17595e-10
-1.61795e-10
-4.77954e-10
2.55888e-10
-2.14324e-10
-5.3043e-10
2.94866e-10
-2.78997e-10
-5.79465e-10
3.3388e-10
-3.58501e-10
-6.25375e-10
3.72381e-10
-4.53965e-10
-6.6844e-10
4.09376e-10
-5.61123e-10
-7.08641e-10
4.43207e-10
-6.58299e-10
-7.44559e-10
4.71457e-10
-7.74442e-10
4.93137e-10
-7.19587e-13
-3.49974e-11
1.59804e-11
-3.28284e-12
-1.02647e-10
4.72087e-11
-9.07156e-12
-1.67195e-10
7.79972e-11
-1.92312e-11
-2.31312e-10
1.10142e-10
-3.47588e-11
-2.9671e-10
1.44963e-10
-5.64521e-11
-3.64078e-10
1.83295e-10
-8.47195e-11
-4.32791e-10
2.25362e-10
-1.19621e-10
-5.01126e-10
2.70655e-10
-1.61357e-10
-5.67169e-10
3.18041e-10
-2.10824e-10
-6.29608e-10
3.6623e-10
-2.69624e-10
-6.88025e-10
4.14202e-10
-3.39518e-10
-7.42635e-10
4.61155e-10
-4.21735e-10
-7.93712e-10
5.0599e-10
-5.14903e-10
-8.41143e-10
5.47004e-10
-6.04385e-10
-8.82129e-10
5.81457e-10
-9.13439e-10
6.07553e-10
8.64612e-13
-3.91739e-11
1.88368e-11
-3.35543e-13
-1.14907e-10
5.5623e-11
-4.94715e-12
-1.87193e-10
9.18339e-11
-1.39938e-11
-2.59003e-10
1.29561e-10
-2.82445e-11
-3.32193e-10
1.70314e-10
-4.81477e-11
-4.07447e-10
2.15016e-10
-7.36484e-11
-4.84035e-10
2.63889e-10
-1.04293e-10
-5.60113e-10
3.16354e-10
-1.39683e-10
-6.33678e-10
3.71162e-10
-1.79893e-10
-7.03348e-10
4.26792e-10
-2.25561e-10
-7.68656e-10
4.81955e-10
-2.77887e-10
-8.29902e-10
5.35769e-10
-3.39061e-10
-8.8787e-10
5.8722e-10
-4.11948e-10
-9.43621e-10
6.3467e-10
-4.90809e-10
-9.95053e-10
6.74874e-10
-1.02483e-09
7.04924e-10
3.17666e-12
-4.18789e-11
2.13146e-11
4.12544e-12
-1.22834e-10
6.29048e-11
1.65265e-12
-2.0008e-10
1.03747e-10
-5.05304e-12
-2.76755e-10
1.46146e-10
-1.64566e-11
-3.54773e-10
1.91731e-10
-3.26057e-11
-4.34791e-10
2.41473e-10
-5.29955e-11
-5.16012e-10
2.95573e-10
-7.6712e-11
-5.96548e-10
3.53374e-10
-1.02765e-10
-6.74392e-10
4.13518e-10
-1.30335e-10
-7.48148e-10
4.74345e-10
-1.58925e-10
-8.17243e-10
5.34463e-10
-1.88638e-10
-8.81832e-10
5.9303e-10
-2.20658e-10
-9.42851e-10
6.49279e-10
-2.57001e-10
-1.00214e-09
7.01807e-10
-2.95826e-10
-1.05892e-09
7.46915e-10
-1.12844e-09
7.8046e-10
6.08935e-12
2.33823e-11
-4.29778e-11
9.81656e-12
6.89579e-11
-1.26045e-10
1.02133e-11
1.13568e-10
-2.0526e-10
6.71954e-12
1.59643e-10
-2.83789e-10
-8.20768e-13
2.08861e-10
-3.63531e-10
-1.21081e-11
2.62191e-10
-4.45099e-10
-2.63107e-11
3.19785e-10
-5.2768e-10
-4.22002e-11
3.80892e-10
-6.09429e-10
-5.83266e-11
4.44052e-10
-6.88424e-10
-7.31089e-11
5.07564e-10
-7.63271e-10
-8.50181e-11
5.70054e-10
-8.33101e-10
-9.28476e-11
6.30739e-10
-8.97345e-10
-9.53998e-11
6.89058e-10
-9.5558e-10
-8.93816e-11
7.43871e-10
-1.00679e-09
-6.99037e-11
7.91143e-10
-1.04558e-09
8.2697e-10
-1.06056e-09
-8.2903e-13
-8.16506e-12
1.48794e-12
-1.89327e-12
-2.39357e-11
4.39756e-12
-3.4529e-12
-3.89016e-11
7.2636e-12
-5.74957e-12
-5.36026e-11
1.0238e-11
-9.06095e-12
-6.84888e-11
1.34362e-11
-1.36894e-11
-8.38984e-11
1.6954e-11
-1.99082e-11
-9.98054e-11
2.08498e-11
-2.79906e-11
-1.15791e-10
2.50795e-11
-3.83078e-11
-1.31329e-10
2.9503e-11
-5.16065e-11
-1.46136e-10
3.4016e-11
-6.95077e-11
-1.6057e-10
3.86148e-11
-9.49339e-11
-1.75697e-10
4.33466e-11
-1.33144e-10
-1.9291e-10
4.8218e-11
-1.93152e-10
-2.13891e-10
5.31527e-11
-2.77379e-10
-2.39398e-10
5.7866e-11
-2.60201e-10
6.74846e-11
-2.34793e-12
-1.61301e-11
4.43812e-12
-5.38991e-12
-4.72765e-11
1.31136e-11
-9.87728e-12
-7.68589e-11
2.16556e-11
-1.65072e-11
-1.06035e-10
3.05279e-11
-2.60514e-11
-1.35699e-10
4.0086e-11
-3.93229e-11
-1.66397e-10
5.06129e-11
-5.70441e-11
-1.97996e-10
6.22538e-11
-7.98865e-11
-2.29679e-10
7.48673e-11
-1.0871e-10
-2.60402e-10
8.80605e-11
-1.45278e-10
-2.89554e-10
1.01501e-10
-1.93184e-10
-3.17508e-10
1.15099e-10
-2.5814e-10
-3.45431e-10
1.28853e-10
-3.48627e-10
-3.74359e-10
1.42563e-10
-4.74938e-10
-4.04363e-10
1.5568e-10
-6.26954e-10
-4.3285e-10
1.6711e-10
-4.54653e-10
1.74023e-10
-3.45417e-12
-2.35996e-11
7.30288e-12
-8.02142e-12
-6.91789e-11
2.15715e-11
-1.4862e-11
-1.12547e-10
3.56143e-11
-2.50336e-11
-1.55474e-10
5.02152e-11
-3.96433e-11
-1.99227e-10
6.59749e-11
-5.97932e-11
-2.44462e-10
8.3339e-11
-8.63988e-11
-2.90883e-10
1.02494e-10
-1.20185e-10
-3.37286e-10
1.23215e-10
-1.62035e-10
-3.82236e-10
1.44913e-10
-2.13838e-10
-4.24848e-10
1.66993e-10
-2.79052e-10
-4.6523e-10
1.89126e-10
-3.62048e-10
-5.04194e-10
2.11062e-10
-4.6672e-10
-5.42344e-10
2.3225e-10
-5.913e-10
-5.79388e-10
2.51689e-10
-7.09386e-10
-6.12865e-10
2.67808e-10
-6.38959e-10
2.79702e-10
-3.9088e-12
-3.02614e-11
1.00145e-11
-9.28091e-12
-8.87342e-11
2.95722e-11
-1.75588e-11
-1.44465e-10
4.88098e-11
-3.00063e-11
-1.99757e-10
6.88209e-11
-4.78609e-11
-2.56171e-10
9.043e-11
-7.22567e-11
-3.14414e-10
1.14203e-10
-1.03985e-10
-3.74001e-10
1.40349e-10
-1.43492e-10
-4.33393e-10
1.6859e-10
-1.91328e-10
-4.90868e-10
1.98212e-10
-2.48882e-10
-5.45311e-10
2.28365e-10
-3.18538e-10
-5.96515e-10
2.58348e-10
-4.027e-10
-6.44919e-10
2.87595e-10
-5.02087e-10
-6.90858e-10
3.15359e-10
-6.10998e-10
-7.34093e-10
3.40575e-10
-7.04987e-10
-7.72372e-10
3.61641e-10
-8.02959e-10
3.77197e-10
-3.54484e-12
-3.58332e-11
1.25119e-11
-8.82031e-12
-1.05099e-10
3.69345e-11
-1.73953e-11
-1.71188e-10
6.09347e-11
-3.05672e-11
-2.36824e-10
8.58814e-11
-4.95e-11
-3.03774e-10
1.12782e-10
-7.51242e-11
-3.72754e-10
1.42283e-10
-1.07864e-10
-4.43111e-10
1.74594e-10
-1.47674e-10
-5.13055e-10
2.09415e-10
-1.94547e-10
-5.80646e-10
2.45984e-10
-2.49108e-10
-6.44577e-10
2.8322e-10
-3.12676e-10
-7.04435e-10
3.20028e-10
-3.86665e-10
-7.60487e-10
3.5557e-10
-4.71879e-10
-8.13073e-10
3.89009e-10
-5.65602e-10
-8.62009e-10
4.19269e-10
-6.50878e-10
-9.03957e-10
4.44534e-10
-9.35001e-10
4.629e-10
-2.29145e-12
-4.00821e-11
1.47479e-11
-6.50328e-12
-1.17572e-10
4.3516e-11
-1.41749e-11
-1.91527e-10
7.17409e-11
-2.64863e-11
-2.64965e-10
1.01013e-10
-4.43686e-11
-3.39778e-10
1.32474e-10
-6.83855e-11
-4.16665e-10
1.66814e-10
-9.84792e-11
-4.94831e-10
2.04218e-10
-1.34054e-10
-5.72319e-10
2.44378e-10
-1.74441e-10
-6.47036e-10
2.86518e-10
-2.19375e-10
-7.17534e-10
3.29393e-10
-2.69176e-10
-7.83311e-10
3.71645e-10
-3.24748e-10
-8.4469e-10
4.12259e-10
-3.87988e-10
-9.02566e-10
4.50366e-10
-4.6063e-10
-9.58106e-10
4.84918e-10
-5.34971e-10
-1.0091e-09
5.13808e-10
-1.03789e-09
5.34439e-10
-1.89025e-13
-4.28205e-11
1.66875e-11
-2.43255e-12
-1.25598e-10
4.92099e-11
-8.11393e-12
-2.04572e-10
8.10376e-11
-1.81928e-11
-2.82913e-10
1.13917e-10
-3.32778e-11
-3.62558e-10
1.49071e-10
-5.35152e-11
-4.44161e-10
1.87201e-10
-7.83848e-11
-5.2685e-10
2.28448e-10
-1.06807e-10
-6.08581e-10
2.72457e-10
-1.37461e-10
-6.87172e-10
3.18436e-10
-1.69113e-10
-7.61097e-10
3.6513e-10
-2.00961e-10
-8.2971e-10
4.1113e-10
-2.32943e-10
-8.93183e-10
4.55309e-10
-2.66141e-10
-9.52632e-10
4.96771e-10
-3.01562e-10
-1.01023e-09
5.34556e-10
-3.35545e-10
-1.06569e-09
5.66393e-10
-1.13584e-09
5.89185e-10
2.6152e-12
1.8304e-11
-4.39174e-11
3.06555e-12
5.39345e-11
-1.28805e-10
2.04221e-13
8.86809e-11
-2.09744e-10
-6.65965e-12
1.24378e-10
-2.8992e-10
-1.78032e-11
1.62273e-10
-3.71238e-10
-3.30105e-11
2.03046e-10
-4.54303e-10
-5.14314e-11
2.46769e-10
-5.38211e-10
-7.16506e-11
2.92993e-10
-6.20945e-10
-9.18346e-11
3.40915e-10
-7.00365e-10
-1.09951e-10
3.89419e-10
-7.74881e-10
-1.24195e-10
4.3724e-10
-8.43513e-10
-1.33366e-10
4.83197e-10
-9.05717e-10
-1.36372e-10
5.26255e-10
-9.61333e-10
-1.29055e-10
5.65463e-10
-1.0098e-09
-1.04825e-10
5.9849e-10
-1.04644e-09
6.22995e-10
-1.06198e-09
-1.14444e-12
-8.34729e-12
1.02127e-12
-2.51166e-12
-2.44578e-11
3.01476e-12
-4.38345e-12
-3.97145e-11
4.96699e-12
-7.02436e-12
-5.46967e-11
6.97658e-12
-1.07388e-11
-6.99395e-11
9.12271e-12
-1.58431e-11
-8.58293e-11
1.14758e-11
-2.26066e-11
-1.02346e-10
1.40747e-11
-3.126e-11
-1.19062e-10
1.69055e-11
-4.2067e-11
-1.35347e-10
1.99073e-11
-5.56986e-11
-1.50806e-10
2.30021e-11
-7.37484e-11
-1.65888e-10
2.61572e-11
-9.90977e-11
-1.81826e-10
2.93836e-11
-1.37052e-10
-2.00036e-10
3.26728e-11
-1.96999e-10
-2.22017e-10
3.59842e-11
-2.82509e-10
-2.48071e-10
3.91194e-11
-2.68015e-10
4.54071e-11
-3.2767e-12
-1.64802e-11
3.04578e-12
-7.20961e-12
-4.82829e-11
8.98876e-12
-1.26152e-11
-7.84547e-11
1.4808e-11
-2.02525e-11
-1.08224e-10
2.08069e-11
-3.0963e-11
-1.38582e-10
2.72279e-11
-4.56003e-11
-1.7014e-10
3.42724e-11
-6.48655e-11
-2.02778e-10
4.20499e-11
-8.92861e-11
-2.35621e-10
5.05221e-11
-1.19454e-10
-2.67491e-10
5.94907e-11
-1.56941e-10
-2.97706e-10
6.87017e-11
-2.05226e-10
-3.26777e-10
7.80113e-11
-2.69878e-10
-3.56061e-10
8.73513e-11
-3.59453e-10
-3.86561e-10
9.65673e-11
-4.85056e-10
-4.17968e-10
1.05326e-10
-6.39105e-10
-4.46968e-10
1.12859e-10
-4.67788e-10
1.17002e-10
-4.94527e-12
-2.40997e-11
5.01097e-12
-1.09394e-11
-7.06289e-11
1.47841e-11
-1.92447e-11
-1.14874e-10
2.43525e-11
-3.10075e-11
-1.58672e-10
3.42319e-11
-4.74313e-11
-2.03373e-10
4.48278e-11
-6.96688e-11
-2.49679e-10
5.64501e-11
-9.85758e-11
-2.97275e-10
6.92683e-11
-1.34659e-10
-3.44915e-10
8.3219e-11
-1.78467e-10
-3.91112e-10
9.79804e-11
-2.31601e-10
-4.34965e-10
1.13111e-10
-2.97277e-10
-4.76692e-10
1.28224e-10
-3.79629e-10
-5.17245e-10
1.43038e-10
-4.82595e-10
-5.57159e-10
1.57202e-10
-6.05322e-10
-5.95755e-10
1.70096e-10
-7.24342e-10
-6.29886e-10
1.80599e-10
-6.55371e-10
1.87795e-10
-5.88146e-12
-3.08904e-11
6.87099e-12
-1.31334e-11
-9.05655e-11
2.02663e-11
-2.33246e-11
-1.47412e-10
3.33768e-11
-3.78284e-11
-2.03792e-10
4.69221e-11
-5.79901e-11
-2.61319e-10
6.14522e-11
-8.49797e-11
-3.20712e-10
7.73603e-11
-1.19493e-10
-3.81438e-10
9.48448e-11
-1.61734e-10
-4.41935e-10
1.13842e-10
-2.11896e-10
-5.00518e-10
1.33994e-10
-2.70999e-10
-5.56122e-10
1.54647e-10
-3.41063e-10
-6.08606e-10
1.75068e-10
-4.24191e-10
-6.58467e-10
1.94743e-10
-5.21146e-10
-7.05995e-10
2.13219e-10
-6.27236e-10
-7.50659e-10
2.29846e-10
-7.21246e-10
-7.89574e-10
2.43468e-10
-8.19722e-10
2.52862e-10
-5.89743e-12
-3.65616e-11
8.58447e-12
-1.34019e-11
-1.07222e-10
2.53123e-11
-2.42237e-11
-1.74603e-10
4.16707e-11
-3.97823e-11
-2.4147e-10
5.8559e-11
-6.13498e-11
-3.09621e-10
7.66402e-11
-8.98779e-11
-3.7977e-10
9.63561e-11
-1.25669e-10
-4.5119e-10
1.17904e-10
-1.68424e-10
-5.22064e-10
1.41264e-10
-2.1777e-10
-5.90509e-10
1.66104e-10
-2.73911e-10
-6.55281e-10
1.91564e-10
-3.37725e-10
-7.16026e-10
2.16596e-10
-4.10303e-10
-7.73079e-10
2.40464e-10
-4.92526e-10
-8.2681e-10
2.62633e-10
-5.82763e-10
-8.76852e-10
2.82465e-10
-6.67504e-10
-9.19249e-10
2.98669e-10
-9.49856e-10
3.09694e-10
-4.91622e-12
-4.08751e-11
1.01186e-11
-1.1601e-11
-1.19884e-10
2.98229e-11
-2.17413e-11
-1.95239e-10
4.90605e-11
-3.66413e-11
-2.69988e-10
6.88731e-11
-5.73323e-11
-3.46045e-10
9.00028e-11
-8.43886e-11
-4.24082e-10
1.12901e-10
-1.17629e-10
-5.03237e-10
1.37756e-10
-1.56204e-10
-5.81499e-10
1.64583e-10
-1.9906e-10
-6.56772e-10
1.93072e-10
-2.45464e-10
-7.27659e-10
2.223e-10
-2.95282e-10
-7.93752e-10
2.51036e-10
-3.49144e-10
-8.5551e-10
2.78329e-10
-4.09056e-10
-9.13986e-10
3.03547e-10
-4.77814e-10
-9.70327e-10
3.26068e-10
-5.51201e-10
-1.02182e-09
3.44456e-10
-1.05062e-09
3.56775e-10
-2.98766e-12
-4.36432e-11
1.14481e-11
-7.85488e-12
-1.27995e-10
3.37204e-11
-1.6131e-11
-2.08415e-10
5.54066e-11
-2.88915e-11
-2.88092e-10
7.76473e-11
-4.68317e-11
-3.68973e-10
1.01228e-10
-7.01052e-11
-4.51697e-10
1.26587e-10
-9.80888e-11
-5.35311e-10
1.53873e-10
-1.2946e-10
-6.17677e-10
1.8307e-10
-1.6248e-10
-6.96562e-10
2.13916e-10
-1.95422e-10
-7.70453e-10
2.45605e-10
-2.27065e-10
-8.38818e-10
2.76914e-10
-2.57178e-10
-9.0205e-10