/*--------------------------------*- C++ -*----------------------------------*\
| =========                 |                                                 |
| \\      /  F ield         | OpenFOAM: The Open Source CFD Toolbox           |
|  \\    /   O peration     | Version:  v1912                                 |
|   \\  /    A nd           | Website:  www.openfoam.com                      |
|    \\/     M anipulation  |                                                 |
\*---------------------------------------------------------------------------*/
FoamFile
{
    version     2.0;
    format      ascii;
    class       volScalarField;
    location    "0.07/fluid";
    object      p;
}
// * * * * * * * * * * * * * * * * * * * * * * * * * * * * * * * * * * * * * //

dimensions      [0 2 -2 0 0 0 0];


internalField   nonuniform List<scalar> 
14592
(
0.100352
0.0953308
0.0929546
0.0911628
0.089539
0.088147
0.0868525
0.0856523
0.0845495
0.083561
0.0827213
0.0822497
0.0815147
0.0832689
0.0823583
0.0885582
0.0960321
0.0944614
0.0925061
0.0910367
0.0895053
0.0881602
0.086893
0.0857143
0.0846337
0.0836715
0.0828642
0.082454
0.0817602
0.0837194
0.0828862
0.0897997
0.0941303
0.0933714
0.0917736
0.0905964
0.0892108
0.0879501
0.0867264
0.0855662
0.0844891
0.0835228
0.0827088
0.0823066
0.0816145
0.0836657
0.0828856
0.0900316
0.0927069
0.0924099
0.0911478
0.0902009
0.0889485
0.0877675
0.0865894
0.0854529
0.0843857
0.0834208
0.0826042
0.0822074
0.0815138
0.0836332
0.0829001
0.0902424
0.0917779
0.0916375
0.0905708
0.0897738
0.0886211
0.0874994
0.0863487
0.0852146
0.0841305
0.0831334
0.0822719
0.0818273
0.0810681
0.0831525
0.0823348
0.0897772
0.0911174
0.0910531
0.0901105
0.0894105
0.088324
0.0872394
0.0860999
0.084954
0.0838375
0.0827895
0.0818617
0.0813516
0.0805551
0.0827132
0.0821109
0.0902406
0.0906673
0.0906383
0.0897604
0.0891133
0.0880595
0.0869867
0.0858372
0.084659
0.0834848
0.0823462
0.0812756
0.0805259
0.0793406
0.0807835
0.079077
0.0864028
0.090395
0.090383
0.0895271
0.0888979
0.0878466
0.0867617
0.085583
0.0843572
0.0831163
0.0818945
0.08074
0.079922
0.0788615
0.0806733
0.0799024
0.0902507
0.100158
0.0951361
0.0928082
0.0910673
0.0895147
0.0882057
0.0870084
0.0859221
0.0849504
0.0841042
0.0833919
0.0829629
0.0820631
0.0829675
0.0808865
0.083386
0.0958387
0.0942669
0.0923612
0.0909434
0.089484
0.088223
0.0870543
0.0859913
0.0850437
0.0842255
0.0835444
0.0831682
0.0822829
0.0833186
0.081192
0.0839914
0.0939342
0.0931739
0.0916254
0.0904994
0.0891852
0.0880074
0.0868808
0.0858341
0.0848875
0.0840616
0.0833692
0.0829958
0.0820988
0.0832189
0.0811077
0.0840919
0.092509
0.0922108
0.0909978
0.090102
0.0889205
0.087822
0.0867402
0.0857162
0.0847784
0.0839531
0.0832573
0.0828925
0.0819909
0.0832031
0.0811292
0.0843337
0.0915758
0.0914346
0.090416
0.0896693
0.088586
0.0875445
0.0864872
0.0854617
0.0845021
0.0836392
0.0828938
0.0824828
0.0815101
0.0827268
0.0805541
0.0839173
0.0909103
0.0908459
0.0899504
0.0892998
0.0882807
0.0872738
0.0862239
0.0851817
0.0841836
0.0832635
0.082448
0.0819839
0.0809971
0.0824169
0.0805702
0.0848551
0.0904546
0.090426
0.089594
0.0889951
0.0880064
0.0870079
0.0859433
0.084862
0.0837972
0.0827744
0.0817999
0.0810803
0.0796614
0.0803841
0.0773173
0.0809682
0.090176
0.0901651
0.0893537
0.0887714
0.0877825
0.0867681
0.0856691
0.0845334
0.0833946
0.0822848
0.0812374
0.0805056
0.0793329
0.0807838
0.079079
0.0864041
0.100021
0.094997
0.0927072
0.0910068
0.0895136
0.0882757
0.0871639
0.0861809
0.0853369
0.0846554
0.0841728
0.0840764
0.083779
0.0854679
0.0850872
0.0882996
0.0957029
0.094128
0.0922615
0.0908848
0.0894857
0.0882969
0.0872152
0.0862574
0.0854403
0.084791
0.0843465
0.0843136
0.0840524
0.0859015
0.085544
0.0890458
0.0937958
0.0930322
0.0915227
0.0904373
0.0891828
0.0880763
0.0870353
0.0860922
0.085274
0.0846147
0.0841568
0.0841263
0.0838517
0.0857954
0.0854513
0.0891457
0.0923687
0.0920677
0.0908933
0.0900382
0.088916
0.0878883
0.0868915
0.0859703
0.08516
0.0845002
0.0840377
0.0840158
0.0837287
0.0857736
0.0854396
0.0893625
0.0914314
0.0912877
0.090307
0.0896002
0.0885748
0.0876022
0.0866271
0.0857008
0.0848641
0.0841606
0.08364
0.0835629
0.0831783
0.0852205
0.084707
0.0887826
0.0907614
0.0906949
0.0898363
0.0892248
0.088262
0.0873215
0.0863505
0.0854029
0.0845212
0.0837517
0.0831488
0.083006
0.0825742
0.0848251
0.084551
0.0895909
0.0903002
0.0902701
0.0894739
0.0889131
0.0879784
0.0870434
0.0860532
0.0850602
0.0841024
0.0832153
0.0824268
0.0819842
0.0810132
0.0824446
0.080601
0.0848853
0.0900156
0.0900038
0.089227
0.0886816
0.0877444
0.0867899
0.0857604
0.0847061
0.0836649
0.0826785
0.0818005
0.0813293
0.0805608
0.0827383
0.0821406
0.0902696
0.0999266
0.0949001
0.0926401
0.0909715
0.0895268
0.0883476
0.0873066
0.0864081
0.0856638
0.0850978
0.0847429
0.0847486
0.0845543
0.0860222
0.0855042
0.0877626
0.09561
0.0940313
0.0921958
0.0908513
0.0895014
0.0883723
0.0873626
0.0864911
0.0857759
0.0852444
0.0849301
0.0849991
0.0848371
0.0864407
0.0859151
0.0883696
0.0937005
0.092933
0.0914541
0.0904008
0.0891949
0.0881472
0.0871771
0.0863188
0.0856006
0.0850568
0.0847262
0.0847936
0.08461
0.0863019
0.0857668
0.0883994
0.0922717
0.0919671
0.0908232
0.09
0.0889262
0.087957
0.0870307
0.0861937
0.0854828
0.0849379
0.084602
0.0846787
0.0844783
0.0862804
0.0857398
0.0886075
0.0913308
0.0911838
0.0902327
0.0895573
0.0885791
0.0876633
0.0867564
0.0859114
0.0851703
0.0845773
0.0841784
0.0841973
0.0838899
0.0857045
0.0849618
0.088005
0.0906565
0.0905873
0.0897575
0.0891767
0.0882596
0.0873739
0.0864683
0.0855981
0.0848073
0.0841424
0.0836549
0.0836068
0.0832461
0.0853111
0.0848098
0.0888914
0.0901904
0.0901581
0.0893897
0.0888587
0.0879678
0.087085
0.0861567
0.0852361
0.0843623
0.0835704
0.0828841
0.0825225
0.0815876
0.082836
0.0806742
0.0840397
0.0899004
0.0898869
0.0891368
0.0886203
0.0877248
0.0868196
0.0858478
0.0848604
0.0838963
0.0829979
0.0822174
0.0818384
0.0811281
0.0832513
0.082445
0.0898911
0.0998642
0.0948348
0.0925977
0.0909533
0.0895464
0.0884133
0.0874279
0.0865949
0.0859261
0.0854448
0.0851833
0.0852716
0.0852109
0.0866744
0.0863973
0.0885019
0.0955486
0.0939662
0.0921544
0.0908346
0.0895233
0.0884411
0.0874881
0.0866834
0.0860455
0.0856011
0.0853832
0.0855374
0.0855146
0.0871139
0.0868405
0.089122
0.093637
0.0928658
0.0914104
0.0903814
0.0892137
0.0882123
0.087298
0.0865054
0.0858631
0.0854048
0.0851688
0.0853197
0.0852722
0.0869607
0.0866712
0.0891307
0.0922069
0.0918988
0.0907782
0.0899793
0.0889435
0.0880203
0.0871495
0.0863779
0.0857426
0.085283
0.0850419
0.0852032
0.085137
0.0869429
0.0866376
0.0893366
0.0912628
0.0911126
0.0901842
0.0895327
0.0885913
0.0877203
0.0868671
0.0860853
0.085417
0.0849062
0.0845988
0.0847006
0.0845198
0.0863465
0.085818
0.0887008
0.0905849
0.0905128
0.0897052
0.0891477
0.0882662
0.0874237
0.0865697
0.0857598
0.0850382
0.0844514
0.0840507
0.0840835
0.0838406
0.0859348
0.0856268
0.0895733
0.0901146
0.0900799
0.0893327
0.0888243
0.0879677
0.087126
0.0862464
0.0853823
0.0845729
0.0838526
0.0832442
0.0829533
0.0821074
0.083374
0.0813169
0.0845355
0.08982
0.0898046
0.0890748
0.0885801
0.0877171
0.0868508
0.0859244
0.0849893
0.0840845
0.083252
0.0825442
0.0822378
0.0816119
0.0837961
0.0830833
0.0904486
0.0998247
0.0947928
0.0925722
0.0909453
0.0895663
0.0884671
0.0875225
0.0867371
0.0861223
0.0857005
0.0855019
0.0856406
0.0856563
0.0870706
0.0868617
0.0887715
0.09551
0.0939244
0.0921299
0.0908278
0.0895448
0.0884972
0.0875859
0.08683
0.0862475
0.0858644
0.0857117
0.0859179
0.0859741
0.0875208
0.0873151
0.0893817
0.0935968
0.0928223
0.0913841
0.0903726
0.0892329
0.0882656
0.0873923
0.0866476
0.0860598
0.0856615
0.0854896
0.085691
0.0857198
0.0873544
0.0871251
0.089367
0.0921655
0.0918544
0.0907507
0.0899694
0.0889615
0.0880723
0.0872423
0.0865185
0.0859375
0.085538
0.0853611
0.0855738
0.0855824
0.0873386
0.0870856
0.0895692
0.0912189
0.0910659
0.0901541
0.0895198
0.0886056
0.0877676
0.0869539
0.0862181
0.0856024
0.0851495
0.0849041
0.085056
0.0849452
0.0867278
0.0862385
0.0889125
0.0905383
0.0904637
0.089672
0.0891313
0.0882762
0.0874655
0.0866494
0.0858836
0.085212
0.0846802
0.0843384
0.0844196
0.0842402
0.0863013
0.0860188
0.0897739
0.0900646
0.0900278
0.089296
0.0888039
0.0879725
0.0871611
0.0863173
0.0854947
0.0847318
0.0840622
0.083507
0.0832589
0.08246
0.0836923
0.081614
0.0846411
0.0897665
0.0897493
0.0890342
0.0885551
0.0877161
0.0868783
0.0859855
0.0850887
0.0842268
0.0834409
0.0827823
0.0825193
0.0819372
0.084118
0.0833866
0.0906179
0.0998018
0.094768
0.0925582
0.0909426
0.0895819
0.088505
0.0875871
0.0868326
0.0862524
0.0858677
0.0857066
0.085872
0.0859275
0.0873012
0.0871257
0.088932
0.0954875
0.0938998
0.0921165
0.090826
0.0895617
0.0885368
0.0876527
0.0869285
0.0863816
0.0860367
0.085923
0.086157
0.086255
0.0877596
0.0875887
0.0895426
0.0935732
0.0927965
0.0913694
0.0903694
0.0892482
0.0883032
0.0874567
0.0867432
0.0861903
0.0858296
0.0856959
0.085924
0.085993
0.087585
0.0873863
0.0895151
0.0921412
0.091828
0.0907354
0.0899655
0.088976
0.088109
0.0873058
0.0866131
0.086067
0.0857051
0.0855667
0.0858069
0.0858549
0.0875712
0.0873443
0.0897163
0.0911929
0.091038
0.0901369
0.0895138
0.0886175
0.0878011
0.0870133
0.0863076
0.0857256
0.085309
0.0851008
0.0852796
0.0852055
0.0869524
0.0864822
0.0890492
0.0905103
0.090434
0.0896527
0.089123
0.0882851
0.0874953
0.0867041
0.085967
0.0853276
0.0848304
0.0845237
0.0846309
0.0844843
0.0865162
0.0862441
0.0899025
0.0900344
0.0899961
0.0892742
0.0887927
0.0879779
0.0871864
0.0863662
0.0855706
0.0848378
0.0842002
0.083677
0.083452
0.0826773
0.0838814
0.0817872
0.0847157
0.0897338
0.0897154
0.0890098
0.0885409
0.0877176
0.0868985
0.0860278
0.0851561
0.0843218
0.0835653
0.0829364
0.0826968
0.082137
0.0843077
0.0835602
0.0907248
0.099791
0.094757
0.0925517
0.090942
0.0895901
0.088524
0.087619
0.0868792
0.0863149
0.0859467
0.0858014
0.0859756
0.0860467
0.0873959
0.0872327
0.0889954
0.0954776
0.0938886
0.0921105
0.0908256
0.0895705
0.0885565
0.0876856
0.0869764
0.0864459
0.086118
0.0860207
0.0862636
0.0863779
0.0878571
0.0876988
0.0896052
0.0935623
0.0927846
0.0913629
0.0903684
0.0892562
0.088322
0.0874885
0.0867897
0.0862529
0.0859088
0.0857911
0.0860278
0.0861125
0.0876788
0.087491
0.0895723
0.0921301
0.0918157
0.0907285
0.0899641
0.0889836
0.0881274
0.0873371
0.0866591
0.0861292
0.0857841
0.0856621
0.0859112
0.0859749
0.0876669
0.0874486
0.0897735
0.0911809
0.091025
0.0901291
0.0895113
0.0886239
0.087818
0.0870428
0.0863514
0.085785
0.0853848
0.0851927
0.0853806
0.0853219
0.0870476
0.0865843
0.0891068
0.0904973
0.0904201
0.0896439
0.0891193
0.0882901
0.0875103
0.0867312
0.0860079
0.0853835
0.0849018
0.0846106
0.0847263
0.0845931
0.0866053
0.0863345
0.0899513
0.0900202
0.0899812
0.0892642
0.0887877
0.0879811
0.0871992
0.0863906
0.085608
0.0848893
0.0842664
0.0837578
0.0835412
0.082778
0.0839653
0.0818641
0.0847502
0.0897184
0.0896994
0.0889983
0.0885343
0.0877188
0.0869089
0.0860489
0.0851893
0.0843681
0.0836251
0.0830095
0.082778
0.0822278
0.0843878
0.0836302
0.0907637
0.110878
0.100996
0.0967563
0.0935249
0.0908929
0.0886723
0.0866229
0.0846611
0.0827182
0.0807374
0.0786652
0.0764476
0.0740338
0.0713757
0.0683767
0.0652748
0.10657
0.100037
0.0962789
0.0933708
0.0908345
0.0886594
0.0866326
0.0846843
0.0827515
0.0807792
0.0787149
0.0765045
0.0740965
0.0714434
0.0684422
0.0653393
0.104658
0.0989321
0.0955518
0.092941
0.0905594
0.0884762
0.0865019
0.0845828
0.082666
0.0807027
0.0786445
0.0764403
0.074041
0.0714012
0.0684175
0.0653363
0.103239
0.0979668
0.0949241
0.0925443
0.0903001
0.0883011
0.0863774
0.084488
0.0825884
0.080635
0.0785833
0.0763851
0.0739939
0.0713669
0.0684023
0.0653409
0.102323
0.0972075
0.0943654
0.0921404
0.0900051
0.0880774
0.0861974
0.0843323
0.0824443
0.0804952
0.0784449
0.0762495
0.0738662
0.071256
0.0683233
0.0652968
0.101682
0.0966403
0.0939265
0.091803
0.0897441
0.0878674
0.0860185
0.0841694
0.0822872
0.0803376
0.078285
0.0760894
0.0737126
0.0711199
0.0682251
0.0652383
0.101257
0.0962479
0.0936043
0.0915395
0.0895254
0.0876781
0.0858449
0.0840006
0.0821154
0.0801587
0.0780983
0.0758988
0.0735262
0.0709505
0.0680994
0.0651565
0.101013
0.0960178
0.0934026
0.0913621
0.0893643
0.0875245
0.0856908
0.0838395
0.0819427
0.0799722
0.077899
0.0756922
0.0733224
0.0707643
0.0679629
0.0650671
0.106517
0.0999756
0.0962129
0.0933006
0.0907594
0.0885751
0.0865368
0.0845747
0.0826256
0.0806348
0.0785502
0.0763176
0.0738861
0.0712294
0.0681758
0.0651314
0.102177
0.0990896
0.0957481
0.0931564
0.0907062
0.0885644
0.0865465
0.0845959
0.0826552
0.0806711
0.0785924
0.076365
0.0739373
0.071285
0.0682275
0.065186
0.100276
0.0980002
0.0950243
0.0927286
0.090431
0.0883806
0.0864149
0.0844934
0.0825686
0.0805936
0.0785211
0.0763003
0.0738816
0.0712436
0.0682044
0.0651853
0.0988546
0.0970369
0.0944005
0.0923362
0.0901754
0.0882089
0.0862941
0.0844028
0.0824959
0.0805317
0.0784668
0.0762533
0.073844
0.0712193
0.0682008
0.0651995
0.0979409
0.0962781
0.0938431
0.0919335
0.0898816
0.0879868
0.0861161
0.0842498
0.0823554
0.0803965
0.0783342
0.0761249
0.0737251
0.0711181
0.0681346
0.0651653
0.0973009
0.0957113
0.093406
0.0915982
0.0896229
0.0877798
0.0859409
0.0840914
0.0822038
0.0802458
0.0781828
0.0759752
0.073584
0.0709951
0.0680546
0.0651204
0.0968771
0.0953197
0.0930854
0.0913364
0.0894064
0.0875933
0.0857708
0.0839271
0.0820377
0.080074
0.0780048
0.0757949
0.07341
0.0708375
0.0679463
0.065049
0.0966345
0.0950909
0.0928853
0.0911608
0.0892474
0.0874427
0.0856205
0.0837707
0.0818709
0.0798949
0.0778148
0.0755998
0.073221
0.0706665
0.0678351
0.0649783
0.104607
0.0988706
0.0954971
0.0928944
0.0905297
0.0884659
0.086515
0.0846233
0.0827375
0.0808073
0.0787809
0.0765979
0.0741899
0.07157
0.0683254
0.0653302
0.100281
0.0980024
0.0950386
0.0927553
0.09048
0.0884589
0.0865292
0.0846503
0.0827742
0.0808522
0.0788336
0.076658
0.074255
0.0716437
0.0683914
0.065407
0.0983862
0.0969204
0.0943171
0.0923287
0.0902042
0.0882734
0.0863952
0.0845445
0.0826836
0.0807699
0.0787568
0.0765875
0.0741936
0.0715988
0.0683669
0.0654083
0.0969671
0.0959602
0.0936951
0.0919378
0.0899493
0.0881018
0.0862738
0.0844528
0.0826091
0.0807056
0.0786997
0.0765376
0.0741536
0.0715731
0.0683675
0.0654266
0.0960538
0.0952016
0.093137
0.0915338
0.0896532
0.0878763
0.0860911
0.0842934
0.0824603
0.0805599
0.0785544
0.0763946
0.0740196
0.0714561
0.068296
0.0653856
0.0954126
0.0946337
0.0926985
0.0911968
0.0893919
0.0876654
0.0859105
0.0841277
0.082299
0.0803967
0.0783872
0.0762264
0.0738591
0.0713117
0.0682107
0.0653317
0.0949869
0.0942404
0.0923757
0.0909324
0.0891718
0.087474
0.0857336
0.0839541
0.0821206
0.0802087
0.0781885
0.0760207
0.0736567
0.0711187
0.0680842
0.0652308
0.0947421
0.0940095
0.0921731
0.0907539
0.0890088
0.0873177
0.0855757
0.0837874
0.0819399
0.0800114
0.0779755
0.0757985
0.0734407
0.0709168
0.0679725
0.0651514
0.103138
0.0978467
0.0948235
0.0924638
0.0902592
0.0883079
0.0864426
0.0846226
0.0828031
0.0809389
0.0789806
0.0768635
0.0744831
0.0719699
0.068399
0.0655956
0.0988077
0.0969784
0.0943673
0.0923272
0.0902114
0.0883024
0.0864581
0.084651
0.0828416
0.0809863
0.0790369
0.0769293
0.0745546
0.0720587
0.0684729
0.0657001
0.096914
0.0958983
0.0936464
0.0919007
0.0899346
0.0881151
0.0863214
0.0845415
0.0827463
0.0808983
0.0789538
0.0768526
0.0744871
0.0720108
0.068448
0.065705
0.0954957
0.0949401
0.0930259
0.0915113
0.0896808
0.0879442
0.0862004
0.08445
0.0826718
0.0808339
0.0788966
0.0768032
0.0744488
0.0719878
0.0684598
0.0657317
0.0945823
0.0941819
0.0924674
0.0911067
0.0893834
0.0877164
0.0860144
0.0842859
0.0825166
0.0806799
0.0787407
0.0766478
0.0743021
0.0718552
0.0683888
0.0656835
0.0939405
0.0936138
0.0920284
0.0907689
0.0891206
0.0875032
0.0858303
0.0841152
0.0823481
0.0805067
0.0785604
0.0764632
0.0741252
0.0716892
0.0683096
0.0656242
0.0935136
0.0932197
0.0917045
0.0905031
0.0888984
0.0873085
0.0856485
0.0839345
0.0821597
0.0803046
0.0783422
0.0762311
0.0738916
0.0714468
0.0681605
0.065469
0.0932671
0.0929877
0.0915003
0.0903228
0.0887327
0.0871484
0.0854849
0.0837596
0.0819673
0.0800914
0.0781082
0.075983
0.0736533
0.0712144
0.0680772
0.065403
0.102196
0.0970591
0.0942629
0.0920855
0.0900345
0.0882101
0.0864567
0.0847432
0.0830322
0.081283
0.079449
0.0774648
0.0751467
0.0728985
0.0688586
0.0665358
0.0978694
0.0961913
0.0938088
0.0919516
0.0899897
0.0882083
0.0864771
0.0847778
0.0830786
0.0813409
0.0795188
0.0775495
0.0752397
0.0730281
0.0689666
0.0667188
0.0959761
0.0951111
0.0930871
0.0915236
0.0897108
0.0880179
0.0863361
0.0846628
0.0829764
0.0812444
0.0794259
0.0774632
0.0751629
0.0729774
0.0689447
0.0667346
0.094558
0.0941535
0.0924666
0.091134
0.0894561
0.0878456
0.086213
0.0845682
0.0828977
0.0811747
0.0793625
0.0774075
0.07512
0.0729515
0.0689682
0.0667704
0.0936429
0.0933938
0.0919058
0.0907263
0.0891544
0.0876118
0.0860187
0.084393
0.0827277
0.0810015
0.0791828
0.0772238
0.074944
0.0727837
0.068887
0.0666992
0.0929987
0.0928237
0.0914638
0.0903848
0.0888865
0.0873916
0.0858249
0.0842089
0.0825412
0.0808046
0.0789719
0.077002
0.0747297
0.0725709
0.0688076
0.0666236
0.0925685
0.0924267
0.0911361
0.0901144
0.0886579
0.0871881
0.085631
0.0840115
0.0823298
0.0805712
0.0787114
0.0767124
0.0744268
0.0722181
0.0685782
0.0663183
0.0923182
0.0921912
0.0909276
0.0899288
0.0884851
0.0870182
0.0854538
0.0838177
0.0821118
0.0803239
0.0784339
0.076411
0.0741422
0.0719197
0.0685164
0.0662475
0.101501
0.0964337
0.0937991
0.0917583
0.0898388
0.0881337
0.086495
0.0848991
0.0833157
0.0817097
0.0800354
0.0782293
0.0759253
0.0739577
0.0688925
0.0668847
0.0971759
0.0955649
0.0933463
0.0916261
0.0897963
0.088135
0.0865194
0.084939
0.0833694
0.0817772
0.0801175
0.0783317
0.0760328
0.0741202
0.0690022
0.0671083
0.0952812
0.094483
0.0926226
0.0911959
0.0895143
0.0879405
0.0863731
0.0848171
0.0832582
0.0816696
0.0800112
0.078231
0.075939
0.0740569
0.0689673
0.0671137
0.0938625
0.0935251
0.0920015
0.0908054
0.0892584
0.0877663
0.0862473
0.0847187
0.0831745
0.0815934
0.0799398
0.0781667
0.0758883
0.0740256
0.0690043
0.0671664
0.0929449
0.0927631
0.0914376
0.090394
0.0889515
0.0875255
0.0860434
0.0845305
0.0829872
0.0813973
0.0797307
0.0779471
0.0756748
0.0738134
0.0689158
0.0670847
0.0922976
0.0921904
0.0909921
0.0900482
0.0886778
0.0872972
0.0858384
0.0843309
0.0827792
0.0811715
0.0794823
0.0776792
0.0754188
0.0735577
0.0688815
0.0670756
0.0918636
0.09179
0.09066
0.0897725
0.0884419
0.0870837
0.0856305
0.0841137
0.08254
0.0808991
0.0791673
0.0773124
0.0750231
0.0730568
0.06856
0.0665994
0.0916088
0.0915505
0.0904465
0.0895808
0.0882609
0.0869024
0.0854374
0.0838978
0.0822914
0.080611
0.0788393
0.076954
0.0747175
0.072763
0.0687168
0.0668702
0.100995
0.0959571
0.0934359
0.0914991
0.0896934
0.0881014
0.0865806
0.0851143
0.0836829
0.0822667
0.0808456
0.079436
0.0775196
0.0766784
0.0715721
0.0712298
0.0966715
0.0950879
0.0929845
0.091369
0.0896537
0.0881065
0.0866101
0.0851612
0.0837462
0.082348
0.0809479
0.0795739
0.0776757
0.0769439
0.0717929
0.0715973
0.0947748
0.0940036
0.0922582
0.0909357
0.0893679
0.0879073
0.0864575
0.0850312
0.0836248
0.0822281
0.0808276
0.0794609
0.0775708
0.0768848
0.0717706
0.0716342
0.0933549
0.0930448
0.0916359
0.0905439
0.0891102
0.0877306
0.0863283
0.0849282
0.083535
0.082144
0.0807461
0.0793854
0.0775081
0.0768465
0.0718148
0.0717213
0.092434
0.0922798
0.0910681
0.0901277
0.088797
0.0874813
0.086113
0.0847245
0.0833266
0.0819196
0.0804993
0.0791158
0.0772312
0.07655
0.0716479
0.0715785
0.0917827
0.0917036
0.0906181
0.0897766
0.0885161
0.0872433
0.0858945
0.084506
0.0830924
0.0816572
0.0802004
0.0787792
0.0768945
0.0761934
0.0715655
0.0716014
0.0913438
0.0912988
0.0902805
0.0894943
0.0882714
0.0870177
0.0856696
0.0842648
0.0828184
0.0813334
0.0798062
0.0782819
0.0762961
0.0753331
0.0707867
0.0705128
0.0910837
0.0910546
0.090061
0.0892953
0.0880806
0.0868228
0.0854576
0.0840221
0.082532
0.0809922
0.0794056
0.0778198
0.0758825
0.0748929
0.0709091
0.0709718
0.100623
0.0955977
0.0931591
0.0913032
0.0895952
0.0881076
0.0867012
0.0853641
0.0840811
0.0828327
0.0815822
0.0803531
0.0783027
0.0773865
0.0709334
0.0665097
0.0963016
0.0947283
0.0927092
0.0911751
0.0895585
0.0881167
0.086736
0.085418
0.0841536
0.0829256
0.0816971
0.0805066
0.0784617
0.0776488
0.0710984
0.0660943
0.0944024
0.0936412
0.0919798
0.0907384
0.0892685
0.0879121
0.0865765
0.085279
0.0840206
0.0827909
0.081558
0.0803729
0.0783288
0.0775664
0.0710446
0.0660458
0.0929809
0.0926812
0.0913559
0.0903449
0.0890085
0.0877325
0.0864435
0.085171
0.0839243
0.0826986
0.0814667
0.080289
0.0782576
0.0775425
0.0711287
0.0663267
0.0920561
0.0919126
0.0907836
0.0899233
0.0886884
0.087474
0.0862158
0.0849505
0.0836936
0.0824454
0.0811839
0.0799789
0.0779353
0.0772198
0.0709637
0.0664606
0.0914003
0.0913324
0.0903286
0.0895663
0.0883996
0.0872253
0.0859825
0.0847118
0.083432
0.0821474
0.0808421
0.0796004
0.0775804
0.0769335
0.0711196
0.0672952
0.090956
0.0909228
0.089985
0.0892767
0.0881452
0.0869864
0.0857394
0.0844451
0.0831221
0.0817729
0.080376
0.0789973
0.0768292
0.0758511
0.0700651
0.0663698
0.0906899
0.0906732
0.0897587
0.0890697
0.0879435
0.0867768
0.0855069
0.0841745
0.0827988
0.0813873
0.079935
0.0785238
0.0765231
0.0757868
0.0709527
0.0690683
0.0902902
0.0902841
0.0894149
0.0887731
0.0876966
0.0865765
0.0853482
0.0840518
0.0827065
0.08132
0.0798874
0.078491
0.0764998
0.0757674
0.070929
0.0690326
0.0903585
0.0903466
0.0894298
0.0887459
0.0876185
0.086444
0.0851541
0.0837845
0.0823503
0.0808567
0.0793069
0.0777488
0.0758303
0.0748503
0.0708656
0.0709198
0.0906205
0.090584
0.0895789
0.0888202
0.087616
0.0863694
0.0850065
0.0835569
0.0820273
0.0804107
0.0786902
0.0768438
0.0746342
0.072695
0.0686519
0.0667998
0.0911213
0.0910191
0.08987
0.0889966
0.0876899
0.0863565
0.084915
0.083388
0.0817756
0.0800658
0.0782387
0.076264
0.0740293
0.0718277
0.0684324
0.0661618
0.0919097
0.0916572
0.0902953
0.0892563
0.0878187
0.0863839
0.084859
0.0832572
0.0815715
0.0797846
0.0778735
0.0758041
0.0735146
0.0711015
0.0679768
0.0653046
0.0932709
0.0925673
0.0908639
0.0895922
0.0880101
0.0864795
0.0848868
0.0832321
0.0815001
0.0796686
0.0777114
0.0755956
0.0732825
0.0707882
0.0678599
0.0650439
0.0950834
0.0935699
0.091502
0.0899314
0.088188
0.0865512
0.0848858
0.0831767
0.0813988
0.0795253
0.0775286
0.0753788
0.0730481
0.070526
0.0677132
0.0648639
0.099443
0.0944809
0.0920036
0.0901179
0.0882917
0.086622
0.0849468
0.0832377
0.0814641
0.0795973
0.0776086
0.0754677
0.0731467
0.0706216
0.0678394
0.0649516
0.0900647
0.0900602
0.0892343
0.088638
0.087621
0.0865671
0.085412
0.0841961
0.0829387
0.081643
0.0802887
0.0789419
0.0767946
0.0758259
0.0700321
0.066315
0.0901266
0.090117
0.0892421
0.0886023
0.0875316
0.0864193
0.0851967
0.0839
0.0825443
0.0811337
0.0796657
0.0781858
0.0762295
0.0752814
0.0707309
0.070441
0.0903828
0.090349
0.0893845
0.0886687
0.0875187
0.0863303
0.0850292
0.0836444
0.082182
0.0806328
0.078974
0.0771742
0.0749224
0.0729765
0.0684807
0.0665085
0.0908786
0.0907796
0.08967
0.0888385
0.0875837
0.0863053
0.0849209
0.0834521
0.0818982
0.0802452
0.0784697
0.0765349
0.0742939
0.0721114
0.0684788
0.0662128
0.0916625
0.0914137
0.0900903
0.0890923
0.0877046
0.0863221
0.0848504
0.0833014
0.081667
0.0799283
0.0780592
0.0760196
0.0737309
0.0713176
0.0680444
0.0653521
0.0930215
0.0923222
0.0906569
0.0894259
0.0878928
0.0864132
0.0848717
0.0832672
0.081583
0.0797951
0.0778747
0.0757838
0.0734751
0.0709726
0.0679557
0.0651056
0.0948312
0.0933224
0.0912921
0.0897617
0.0880662
0.0864788
0.0848625
0.0832007
0.081467
0.0796327
0.0776679
0.0755387
0.0732126
0.0706787
0.0678084
0.0649176
0.0991916
0.0942353
0.0917953
0.08995
0.088172
0.0865524
0.0849271
0.0832663
0.0815381
0.079712
0.0777569
0.0756389
0.0733259
0.0707895
0.06796
0.0650243
0.0898982
0.0898934
0.0891007
0.0885401
0.0875721
0.0865743
0.0854828
0.0843392
0.0831644
0.0819653
0.080728
0.0795377
0.0775512
0.07692
0.0710905
0.0672273
0.0899541
0.0899447
0.0891018
0.0884965
0.0874722
0.0864122
0.0852479
0.0840157
0.0827318
0.0814023
0.0800293
0.078671
0.0768277
0.0761471
0.0715081
0.0715161
0.0902047
0.0901717
0.089238
0.0885555
0.0874495
0.08631
0.085062
0.0837342
0.0823324
0.0808469
0.0792545
0.0775241
0.0753123
0.0734765
0.068796
0.0669691
0.0906957
0.090598
0.0895182
0.0887191
0.0875062
0.0862738
0.0849382
0.0835203
0.0820185
0.0804174
0.0786924
0.0768035
0.0745868
0.0724592
0.0687002
0.0665034
0.0914755
0.0912284
0.0899339
0.0889673
0.0876198
0.0862808
0.0848543
0.0833513
0.0817623
0.0800669
0.0782366
0.0762276
0.0739512
0.071552
0.0681844
0.0654935
0.0928325
0.0921353
0.0904986
0.0892988
0.0878051
0.0863678
0.0848699
0.0833089
0.0816669
0.0799179
0.0780306
0.075963
0.073662
0.0711559
0.0680726
0.0651937
0.0946396
0.0931333
0.091131
0.0896314
0.0879743
0.0864276
0.084853
0.0832322
0.0815373
0.0797379
0.0778015
0.0756909
0.0733694
0.0708251
0.0679067
0.0649767
0.0990008
0.0940479
0.0916357
0.0898214
0.0880822
0.086504
0.0849211
0.0833022
0.081614
0.0798241
0.077899
0.0758013
0.0734949
0.0709476
0.0680759
0.0650942
0.0897775
0.0897715
0.0890044
0.0884715
0.087543
0.0865912
0.0855526
0.0844687
0.0833606
0.0822336
0.0810691
0.0799387
0.0779438
0.0772534
0.0709673
0.0663981
0.089828
0.0898179
0.0889995
0.0884208
0.0874338
0.0864167
0.0853007
0.084122
0.0828966
0.0816297
0.0803206
0.0790215
0.0771919
0.0765391
0.0716133
0.0714996
0.0900735
0.0900403
0.0891301
0.0884733
0.0874025
0.0863028
0.0850989
0.0838186
0.0824669
0.0810324
0.0794886
0.0777971
0.0755854
0.073755
0.0688427
0.0669778
0.0905603
0.0904628
0.0894056
0.0886313
0.0874519
0.0862568
0.0849617
0.0835863
0.0821279
0.0805694
0.078883
0.0770233
0.0748105
0.0726866
0.0687877
0.0665778
0.0913364
0.0910898
0.0898171
0.0888746
0.087559
0.0862551
0.084866
0.0834015
0.0818506
0.0801911
0.0783919
0.0764045
0.0741315
0.0717265
0.0682686
0.0655508
0.0926915
0.0919954
0.0903802
0.0892042
0.0877417
0.0863386
0.0848767
0.0833522
0.0817457
0.0800294
0.0781694
0.0761198
0.0738219
0.0713049
0.068161
0.0652454
0.0944963
0.0929913
0.0910102
0.089534
0.0879072
0.0863934
0.0848531
0.0832667
0.0816046
0.0798346
0.077922
0.0758262
0.0735069
0.07095
0.0679883
0.0650191
0.0988582
0.0939074
0.0915162
0.0897255
0.0880169
0.0864723
0.0849244
0.0833407
0.0816863
0.0799272
0.0780273
0.0759462
0.0736442
0.0710849
0.0681754
0.0651503
0.0896924
0.0896849
0.0889372
0.0884253
0.0875275
0.0866119
0.085615
0.0845781
0.0835217
0.0824497
0.0813406
0.080258
0.0782861
0.0776052
0.0711328
0.0662231
0.0897382
0.0897272
0.0889272
0.0883686
0.0874105
0.086427
0.0853492
0.0842128
0.083033
0.0818137
0.0805519
0.0792949
0.0774839
0.0768604
0.071784
0.0716321
0.0899795
0.0899457
0.0890531
0.0884156
0.087372
0.0863036
0.0851345
0.0838919
0.0825796
0.0811846
0.0796772
0.0780137
0.0758057
0.0739802
0.068927
0.0670452
0.0904626
0.090365
0.0893247
0.0885689
0.0874153
0.0862495
0.0849864
0.0836449
0.0822208
0.0806955
0.0790383
0.0771992
0.0749886
0.0728624
0.0688673
0.0666414
0.0912357
0.090989
0.0897326
0.0888081
0.0875171
0.0862407
0.0848812
0.0834472
0.0819266
0.0802955
0.0785202
0.0765482
0.0742765
0.0718628
0.0683384
0.0655934
0.0925892
0.0918935
0.0902943
0.0891362
0.0876977
0.0863212
0.0848878
0.0833926
0.0818144
0.0801242
0.0782856
0.0762493
0.0739526
0.0714238
0.0682325
0.0652829
0.0943921
0.0928878
0.0909222
0.0894636
0.0878601
0.086372
0.0848588
0.0832998
0.081664
0.0799177
0.0780238
0.0759393
0.0736206
0.0710514
0.0680545
0.0650505
0.0987545
0.0938051
0.0914294
0.0896563
0.0879713
0.0864529
0.0849328
0.0833773
0.0817502
0.0800158
0.078136
0.0760678
0.0737681
0.0711973
0.0682562
0.0651933
0.0896351
0.0896263
0.0888925
0.0883956
0.0875203
0.0866314
0.0856654
0.0846632
0.0836445
0.0826118
0.0815411
0.0804881
0.0785263
0.0778235
0.0711873
0.0659784
0.0896774
0.0896653
0.0888785
0.0883343
0.0873974
0.0864387
0.0853892
0.0842839
0.0831375
0.0819523
0.0807232
0.0794922
0.0776892
0.0770662
0.0718689
0.0716541
0.0899153
0.0898808
0.0890008
0.088377
0.0873534
0.086308
0.0851648
0.08395
0.0826667
0.0813003
0.0798187
0.0781734
0.0759664
0.0741349
0.06898
0.0670672
0.0903956
0.0902974
0.0892692
0.0885268
0.087392
0.0862477
0.0850084
0.083692
0.0822933
0.0807923
0.0791559
0.0773303
0.0751199
0.0729858
0.068921
0.0666724
0.0911662
0.0909193
0.0896744
0.0887628
0.0874896
0.0862334
0.0848959
0.0834847
0.0819867
0.0803764
0.0786183
0.0766568
0.074385
0.0719616
0.068389
0.0656181
0.0925185
0.0918229
0.090235
0.0890897
0.0876686
0.0863118
0.0848996
0.0834261
0.0818692
0.0801983
0.0783753
0.0763483
0.0740516
0.0715122
0.0682858
0.0653075
0.0943199
0.0928158
0.0908613
0.0894153
0.0878286
0.0863594
0.0848664
0.0833279
0.0817118
0.0799831
0.0781031
0.0760266
0.0737077
0.0711281
0.0681044
0.0650724
0.0986828
0.0937341
0.0913693
0.089609
0.0879411
0.086442
0.0849426
0.0834081
0.0818015
0.0800857
0.0782208
0.0761617
0.0738632
0.0712827
0.0683173
0.0652244
0.0895999
0.0895901
0.0888653
0.0883782
0.0875177
0.0866463
0.0857006
0.0847211
0.0837269
0.0827193
0.0816724
0.0806356
0.0786777
0.0779549
0.0712167
0.0658192
0.0896397
0.0896268
0.0888486
0.0883138
0.0873908
0.0864483
0.0854174
0.0843327
0.0832079
0.0820445
0.0808356
0.079619
0.077819
0.0771899
0.0719157
0.0716572
0.0898753
0.0898403
0.0889684
0.0883536
0.087343
0.0863128
0.0851865
0.0839902
0.0827258
0.081378
0.0799126
0.0782778
0.0760705
0.0742312
0.0690118
0.0670746
0.0903536
0.0902552
0.0892347
0.0885009
0.0873785
0.0862482
0.0850246
0.0837248
0.0823429
0.0808576
0.0792345
0.0774169
0.0752056
0.0730635
0.0689537
0.0666865
0.0911226
0.0908755
0.089638
0.0887347
0.0874733
0.0862303
0.0849073
0.0835112
0.0820281
0.0804315
0.0786844
0.0767293
0.0744569
0.0720254
0.0684215
0.0656313
0.092474
0.0917786
0.0901978
0.0890608
0.0876512
0.0863073
0.084909
0.08345
0.0819072
0.0802491
0.0784362
0.076415
0.0741179
0.0715705
0.0683208
0.0653221
0.0942744
0.0927705
0.0908231
0.0893851
0.0878095
0.0863526
0.084873
0.0833481
0.0817452
0.0800282
0.0781573
0.0760858
0.0737664
0.0711792
0.0681375
0.065086
0.0986376
0.0936895
0.0913317
0.0895796
0.0879229
0.0864364
0.0849507
0.0834303
0.0818373
0.0801338
0.0782787
0.0762255
0.0739274
0.0713398
0.068358
0.0652442
0.0895832
0.0895729
0.0888525
0.08837
0.087517
0.086654