/*--------------------------------*- C++ -*----------------------------------*\
| =========                 |                                                 |
| \\      /  F ield         | OpenFOAM: The Open Source CFD Toolbox           |
|  \\    /   O peration     | Version:  v1912                                 |
|   \\  /    A nd           | Website:  www.openfoam.com                      |
|    \\/     M anipulation  |                                                 |
\*---------------------------------------------------------------------------*/
FoamFile
{
    version     2.0;
    format      ascii;
    class       surfaceScalarField;
    location    "0.07/fluid";
    object      phi;
}
// * * * * * * * * * * * * * * * * * * * * * * * * * * * * * * * * * * * * * //

dimensions      [0 3 -1 0 0 0 0];
oriented        oriented;


internalField   nonuniform List<scalar> 
41600
(
5.70216e-05
5.57678e-06
-7.85685e-07
6.87349e-07
5.44093e-05
2.71875e-06
-1.17428e-06
1.06775e-06
5.29618e-05
1.53102e-06
-1.47256e-06
1.38907e-06
5.20895e-05
9.28689e-07
-1.85397e-06
1.79761e-06
5.14071e-05
7.11797e-07
-2.38672e-06
2.35731e-06
5.07517e-05
6.5924e-07
-3.10084e-06
3.09699e-06
5.00366e-05
6.93565e-07
-4.04243e-06
4.06399e-06
4.92007e-05
7.84939e-07
-5.27979e-06
5.33077e-06
4.81852e-05
9.21196e-07
-6.91133e-06
7.00558e-06
4.69137e-05
1.09641e-06
-9.07818e-06
9.25333e-06
4.52582e-05
1.30435e-06
-1.19843e-05
1.23354e-05
4.29611e-05
1.52485e-06
-1.59311e-05
1.67034e-05
3.95027e-05
1.75975e-06
-2.13745e-05
2.30732e-05
3.35144e-05
1.83338e-06
-2.89745e-05
3.31294e-05
2.25954e-05
1.96998e-06
-4.00216e-05
4.89706e-05
1.03555e-06
-4.64144e-05
6.79744e-05
6.41575e-05
4.02685e-06
-9.65752e-07
8.5823e-07
6.40069e-05
2.98658e-06
-1.43888e-06
1.32165e-06
6.35109e-05
2.11871e-06
-1.79386e-06
1.70208e-06
6.29032e-05
1.59773e-06
-2.24323e-06
2.18198e-06
6.2255e-05
1.39076e-06
-2.87033e-06
2.83956e-06
6.15429e-05
1.37303e-06
-3.71266e-06
3.71089e-06
6.07235e-05
1.48596e-06
-4.82508e-06
4.85213e-06
5.97451e-05
1.70309e-06
-6.28862e-06
6.34883e-06
5.85446e-05
2.01314e-06
-8.22008e-06
8.32865e-06
5.70316e-05
2.41101e-06
-1.07874e-05
1.09858e-05
5.50524e-05
2.89011e-06
-1.42338e-05
1.46273e-05
5.22855e-05
3.42992e-06
-1.89202e-05
1.97821e-05
4.81367e-05
4.01118e-06
-2.5392e-05
2.72894e-05
4.08221e-05
4.4842e-06
-3.44463e-05
3.911e-05
2.77797e-05
4.91281e-06
-4.75443e-05
5.76438e-05
4.04859e-06
-5.5098e-05
7.98648e-05
6.37e-05
2.93504e-06
-9.51729e-07
8.43518e-07
6.39305e-05
2.87426e-06
-1.41968e-06
1.30153e-06
6.37697e-05
2.37219e-06
-1.76986e-06
1.67721e-06
6.34e-05
2.02949e-06
-2.21224e-06
2.15018e-06
6.29103e-05
1.91202e-06
-2.82879e-06
2.79723e-06
6.2309e-05
1.97685e-06
-3.65586e-06
3.65327e-06
6.15748e-05
2.19403e-06
-4.74681e-06
4.77295e-06
6.06685e-05
2.55022e-06
-6.18081e-06
6.24001e-06
5.95313e-05
3.04288e-06
-8.07248e-06
8.17996e-06
5.807e-05
3.67472e-06
-1.05874e-05
1.07849e-05
5.61201e-05
4.44663e-06
-1.3967e-05
1.43604e-05
5.33399e-05
5.34519e-06
-1.85722e-05
1.94372e-05
4.90985e-05
6.34611e-06
-2.49488e-05
2.68553e-05
4.1578e-05
7.30863e-06
-3.39176e-05
3.86137e-05
2.81498e-05
8.17981e-06
-4.69239e-05
5.70852e-05
7.25843e-06
-5.45692e-05
7.95092e-05
6.31771e-05
2.36658e-06
-9.15104e-07
8.06443e-07
6.34978e-05
2.67238e-06
-1.3684e-06
1.24959e-06
6.35194e-05
2.44399e-06
-1.70744e-06
1.61405e-06
6.33281e-05
2.28375e-06
-2.13471e-06
2.07174e-06
6.29849e-05
2.2879e-06
-2.72862e-06
2.69595e-06
6.25068e-05
2.45891e-06
-3.52324e-06
3.51924e-06
6.18839e-05
2.79262e-06
-4.56881e-06
4.59318e-06
6.10851e-05
3.29216e-06
-5.94038e-06
5.99727e-06
6.0055e-05
3.96858e-06
-7.74714e-06
7.85155e-06
5.86978e-05
4.83872e-06
-1.01479e-05
1.03411e-05
5.68377e-05
5.92023e-06
-1.33763e-05
1.37628e-05
5.41104e-05
7.21947e-06
-1.77858e-05
1.86388e-05
4.98431e-05
8.72995e-06
-2.39104e-05
2.57938e-05
4.21716e-05
1.03269e-05
-3.2597e-05
3.72502e-05
2.84069e-05
1.1887e-05
-4.52343e-05
5.52918e-05
1.09379e-05
-5.29346e-05
7.76622e-05
6.2957e-05
2.01886e-06
-8.65915e-07
7.56661e-07
6.32836e-05
2.46538e-06
-1.29951e-06
1.17984e-06
6.33984e-05
2.42361e-06
-1.62366e-06
1.52925e-06
6.33342e-05
2.41217e-06
-2.03059e-06
1.9664e-06
6.31222e-05
2.53412e-06
-2.59394e-06
2.55974e-06
6.27747e-05
2.81237e-06
-3.34454e-06
3.3386e-06
6.22851e-05
3.26035e-06
-4.32821e-06
4.35002e-06
6.16276e-05
3.89631e-06
-5.61384e-06
5.66724e-06
6.07497e-05
4.74713e-06
-7.30235e-06
7.40166e-06
5.95541e-05
5.84943e-06
-9.54169e-06
9.72658e-06
5.78542e-05
7.24859e-06
-1.25518e-05
1.29234e-05
5.52588e-05
8.99125e-06
-1.66717e-05
1.74953e-05
5.10451e-05
1.11217e-05
-2.2412e-05
2.42339e-05
4.32409e-05
1.36042e-05
-3.06507e-05
3.51777e-05
2.90498e-05
1.63039e-05
-4.26752e-05
5.24493e-05
1.57902e-05
-5.04295e-05
7.46272e-05
6.28712e-05
1.75764e-06
-8.0766e-07
6.97678e-07
6.32074e-05
2.24989e-06
-1.21788e-06
1.09718e-06
6.33945e-05
2.33217e-06
-1.52436e-06
1.42872e-06
6.34367e-05
2.43563e-06
-1.90704e-06
1.84137e-06
6.33477e-05
2.6592e-06
-2.43378e-06
2.39772e-06
6.31357e-05
3.0327e-06
-3.13136e-06
3.12302e-06
6.27971e-05
3.58032e-06
-4.03987e-06
4.05845e-06
6.23119e-05
4.33279e-06
-5.22002e-06
5.26879e-06
6.16339e-05
5.3331e-06
-6.76117e-06
6.85319e-06
6.06693e-05
6.64196e-06
-8.79518e-06
8.96723e-06
5.92264e-05
8.34498e-06
-1.15204e-05
1.18668e-05
5.68847e-05
1.05618e-05
-1.52502e-05
1.60214e-05
5.28549e-05
1.34403e-05
-2.04544e-05
2.21656e-05
4.4958e-05
1.72022e-05
-2.80451e-05
3.2344e-05
3.02259e-05
2.17484e-05
-3.91543e-05
4.8442e-05
2.26419e-05
-4.69841e-05
7.03582e-05
6.28557e-05
1.51278e-06
-7.42583e-07
6.31768e-07
6.32222e-05
2.00529e-06
-1.1267e-06
1.00483e-06
6.34801e-05
2.1713e-06
-1.41339e-06
1.31635e-06
6.36211e-05
2.36201e-06
-1.76883e-06
1.70147e-06
6.36515e-05
2.6669e-06
-2.2543e-06
2.21611e-06
6.35796e-05
3.11582e-06
-2.89184e-06
2.88069e-06
6.34068e-05
3.73836e-06
-3.7146e-06
3.7293e-06
6.3123e-05
4.57368e-06
-4.77308e-06
4.81601e-06
6.26967e-05
5.67721e-06
-6.14144e-06
6.22361e-06
6.20556e-05
7.12994e-06
-7.92876e-06
8.08192e-06
6.104e-05
9.05446e-06
-1.02986e-05
1.06047e-05
5.92683e-05
1.16552e-05
-1.35131e-05
1.41915e-05
5.5994e-05
1.52182e-05
-1.79486e-05
1.94449e-05
4.8818e-05
2.05809e-05
-2.44731e-05
2.82704e-05
3.42111e-05
2.82164e-05
-3.38845e-05
4.20234e-05
3.55886e-05
-4.1277e-05
6.25412e-05
6.28801e-05
-6.73403e-07
5.61684e-07
1.24444e-06
6.32986e-05
-1.02978e-06
9.06635e-07
1.70986e-06
6.36325e-05
-1.29544e-06
1.19689e-06
1.93597e-06
6.38696e-05
-1.62188e-06
1.55267e-06
2.19408e-06
6.40166e-05
-2.06329e-06
2.02278e-06
2.56041e-06
6.40856e-05
-2.63652e-06
2.62229e-06
3.06114e-06
6.40863e-05
-3.367e-06
3.37732e-06
3.72728e-06
6.40214e-05
-4.29358e-06
4.32971e-06
4.60244e-06
6.38779e-05
-5.47295e-06
5.54317e-06
5.7505e-06
6.36079e-05
-6.98777e-06
7.11727e-06
7.27049e-06
6.30799e-05
-8.96223e-06
9.21753e-06
9.32714e-06
6.19319e-05
-1.16019e-05
1.21646e-05
1.22405e-05
5.94113e-05
-1.51934e-05
1.64403e-05
1.64919e-05
5.28966e-05
-2.05747e-05
2.38168e-05
2.38536e-05
3.88671e-05
-2.82175e-05
3.52155e-05
3.52479e-05
-3.55884e-05
5.5004e-05
5.50398e-05
5.69396e-05
5.5878e-06
-8.13094e-07
5.422e-05
2.73573e-06
-1.19044e-06
5.26585e-05
1.55067e-06
-1.4617e-06
5.166e-05
9.52964e-07
-1.80842e-06
5.08281e-05
7.43088e-07
-2.29793e-06
4.99856e-05
7.00564e-07
-2.95885e-06
4.90272e-05
7.4886e-07
-3.83289e-06
4.78678e-05
8.59376e-07
-4.97982e-06
4.64177e-05
1.02165e-06
-6.48285e-06
4.45632e-05
1.2322e-06
-8.45592e-06
4.21428e-05
1.48858e-06
-1.10524e-05
3.89006e-05
1.77713e-06
-1.4466e-05
3.43782e-05
2.11261e-06
-1.89647e-05
2.76393e-05
2.34372e-06
-2.45794e-05
1.66023e-05
2.71662e-06
-3.17012e-05
2.0854e-06
-3.18972e-05
6.4061e-05
4.052e-06
-9.90916e-07
6.37855e-05
3.02236e-06
-1.45004e-06
6.31547e-05
2.16163e-06
-1.77405e-06
6.23971e-05
1.65086e-06
-2.18347e-06
6.15711e-05
1.45928e-06
-2.76054e-06
6.06364e-05
1.46357e-06
-3.54102e-06
5.95277e-05
1.60719e-06
-4.57464e-06
5.81645e-05
1.8664e-06
-5.93246e-06
5.6446e-05
2.23342e-06
-7.71341e-06
5.42363e-05
2.70766e-06
-1.00531e-05
5.13375e-05
3.288e-06
-1.31344e-05
4.7423e-05
3.95992e-06
-1.71886e-05
4.19616e-05
4.71419e-06
-2.25322e-05
3.36835e-05
5.39425e-06
-2.92187e-05
2.04163e-05
6.08987e-06
-3.76503e-05
5.25204e-06
-3.78479e-05
6.36053e-05
2.97293e-06
-9.77979e-07
6.37127e-05
2.92762e-06
-1.43233e-06
6.34195e-05
2.43673e-06
-1.75174e-06
6.29031e-05
2.10953e-06
-2.15448e-06
6.22397e-05
2.01541e-06
-2.72152e-06
6.14212e-05
2.11377e-06
-3.48757e-06
6.04046e-05
2.3779e-06
-4.50094e-06
5.91224e-05
2.79887e-06
-5.83103e-06
5.74782e-05
3.37993e-06
-7.57481e-06
5.53332e-05
4.13115e-06
-9.86589e-06
5.24777e-05
5.06213e-06
-1.28857e-05
4.85634e-05
6.16766e-06
-1.68657e-05
4.30177e-05
7.43531e-06
-2.21241e-05
3.45309e-05
8.6943e-06
-2.87308e-05
2.08493e-05
9.92899e-06
-3.70815e-05
8.86128e-06
-3.73286e-05
6.30855e-05
2.41568e-06
-9.43313e-07
6.32872e-05
2.74131e-06
-1.38381e-06
6.31815e-05
2.52762e-06
-1.69268e-06
6.28498e-05
2.38765e-06
-2.08113e-06
6.23411e-05
2.42236e-06
-2.6268e-06
6.16564e-05
2.63746e-06
-3.36224e-06
6.07651e-05
3.03331e-06
-4.33294e-06
5.96088e-05
3.6193e-06
-5.60451e-06
5.80956e-05
4.41505e-06
-7.26912e-06
5.60848e-05
5.44866e-06
-9.45462e-06
5.3355e-05
6.75175e-06
-1.23361e-05
4.95321e-05
8.34477e-06
-1.614e-05
4.39937e-05
1.02417e-05
-2.11785e-05
3.53656e-05
1.22734e-05
-2.7548e-05
2.13003e-05
1.43799e-05
-3.56199e-05
1.31953e-05
-3.59678e-05
6.28694e-05
2.07714e-06
-8.96745e-07
6.30826e-05
2.54714e-06
-1.31861e-06
6.3077e-05
2.52296e-06
-1.61339e-06
6.2881e-05
2.53576e-06
-1.98264e-06
6.25145e-05
2.6944e-06
-2.49947e-06
6.1975e-05
3.02581e-06
-3.19346e-06
6.12369e-05
3.54924e-06
-4.10602e-06
6.02484e-05
4.29124e-06
-5.29722e-06
5.89226e-05
5.29045e-06
-6.85197e-06
5.71187e-05
6.59967e-06
-8.88881e-06
5.46048e-05
8.28581e-06
-1.15719e-05
5.09757e-05
1.04197e-05
-1.51176e-05
4.55472e-05
1.30822e-05
-1.9824e-05
3.6805e-05
1.61893e-05
-2.58244e-05
2.22355e-05
1.97162e-05
-3.3442e-05
1.89266e-05
-3.39249e-05
6.27884e-05
1.82272e-06
-8.41607e-07
6.30178e-05
2.34113e-06
-1.24136e-06
6.30928e-05
2.44314e-06
-1.51945e-06
6.30134e-05
2.57383e-06
-1.8658e-06
6.27835e-05
2.83869e-06
-2.34811e-06
6.23979e-05
3.27229e-06
-2.99222e-06
6.18357e-05
3.9058e-06
-3.83433e-06
6.1054e-05
4.78018e-06
-4.92719e-06
5.99753e-05
5.95347e-06
-6.34557e-06
5.84659e-05
7.50839e-06
-8.19449e-06
5.62902e-05
9.56195e-06
-1.06207e-05
5.30075e-05
1.22743e-05
-1.38221e-05
4.78497e-05
1.58556e-05
-1.807e-05
3.90411e-05
2.04958e-05
-2.3543e-05
2.38168e-05
2.62717e-05
-3.04854e-05
2.68977e-05
-3.1138e-05
6.27782e-05
1.58196e-06
-7.80025e-07
6.30455e-05
2.10223e-06
-1.15509e-06
6.32005e-05
2.28923e-06
-1.41448e-06
6.32317e-05
2.50893e-06
-1.73513e-06
6.31368e-05
2.85785e-06
-2.17856e-06
6.29125e-05
3.37105e-06
-2.76626e-06
6.25459e-05
4.08586e-06
-3.52815e-06
6.20079e-05
5.05304e-06
-4.50791e-06
6.12417e-05
6.34553e-06
-5.76723e-06
6.01428e-05
8.07071e-06
-7.39224e-06
5.85183e-05
1.03905e-05
-9.50268e-06
5.59738e-05
1.35661e-05
-1.22605e-05
5.17844e-05
1.7973e-05
-1.58766e-05
4.38698e-05
2.44791e-05
-2.05418e-05
2.87032e-05
3.38837e-05
-2.63299e-05
4.12786e-05
-2.69545e-05
6.28083e-05
-7.14576e-07
1.31483e-06
6.31357e-05
-1.06341e-06
1.80846e-06
6.33766e-05
-1.30294e-06
2.05588e-06
6.35165e-05
-1.59623e-06
2.34337e-06
6.35549e-05
-1.99818e-06
2.75434e-06
6.34947e-05
-2.52553e-06
3.32027e-06
6.33346e-05
-3.20122e-06
4.08019e-06
6.30627e-05
-4.05866e-06
5.08992e-06
6.26473e-05
-5.14445e-06
6.43245e-06
6.20159e-05
-6.52272e-06
8.23706e-06
6.10092e-05
-8.28175e-06
1.07168e-05
5.92458e-05
-1.0543e-05
1.42705e-05
5.59796e-05
-1.3455e-05
1.95008e-05
4.88116e-05
-1.72408e-05
2.83132e-05
3.42104e-05
-2.17977e-05
4.2065e-05
-2.26899e-05
6.25904e-05
5.68667e-05
5.59824e-06
-7.78078e-07
5.40498e-05
2.75175e-06
-1.12525e-06
5.23824e-05
1.56926e-06
-1.3636e-06
5.12653e-05
9.75937e-07
-1.66723e-06
5.02929e-05
7.72685e-07
-2.0982e-06
4.92761e-05
7.39622e-07
-2.68169e-06
4.80948e-05
8.01051e-07
-3.45263e-06
4.66446e-05
9.29435e-07
-4.45904e-06
4.48103e-05
1.11564e-06
-5.76423e-06
4.24452e-05
1.35765e-06
-7.44842e-06
3.93454e-05
1.65425e-06
-9.60689e-06
3.52201e-05
1.99255e-06
-1.23333e-05
2.9612e-05
2.38346e-06
-1.57401e-05
2.19774e-05
2.67388e-06
-1.96186e-05
1.13294e-05
3.07624e-06
-2.41295e-05
2.41704e-06
-2.29843e-05
6.39749e-05
4.07582e-06
-9.4334e-07
6.35859e-05
3.05622e-06
-1.36552e-06
6.28298e-05
2.20224e-06
-1.65095e-06
6.19312e-05
1.70113e-06
-2.0101e-06
6.09381e-05
1.52408e-06
-2.51879e-06
5.97961e-05
1.54913e-06
-3.20853e-06
5.8422e-05
1.7216e-06
-4.12108e-06
5.67124e-05
2.02018e-06
-5.31366e-06
5.45364e-05
2.44013e-06
-6.86188e-06
5.17182e-05
2.98442e-06
-8.86171e-06
4.80104e-05
3.6555e-06
-1.14278e-05
4.3047e-05
4.44144e-06
-1.46741e-05
3.62993e-05
5.33384e-06
-1.87349e-05
2.69752e-05
6.16121e-06
-2.33819e-05
1.41446e-05
7.00988e-06
-2.87534e-05
6.09563e-06
-2.73812e-05
6.35209e-05
3.0088e-06
-9.31878e-07
6.35165e-05
2.97813e-06
-1.34983e-06
6.31003e-05
2.49782e-06
-1.6311e-06
6.24459e-05
2.18525e-06
-1.98422e-06
6.16192e-05
2.11315e-06
-2.48388e-06
6.05983e-05
2.24309e-06
-3.16068e-06
5.93228e-05
2.55132e-06
-4.05516e-06
5.77023e-05
3.03284e-06
-5.22313e-06
5.56102e-05
3.69599e-06
-6.73855e-06
5.28674e-05
4.55707e-06
-8.69576e-06
4.92129e-05
5.63257e-06
-1.12083e-05
4.42558e-05
6.92313e-06
-1.43902e-05
3.74203e-05
8.42309e-06
-1.83779e-05
2.78698e-05
9.93516e-06
-2.29543e-05
1.4589e-05
1.14656e-05
-2.82564e-05
1.02796e-05
-2.6923e-05
6.30039e-05
2.46215e-06
-9.00589e-07
6.30977e-05
2.80654e-06
-1.30605e-06
6.28739e-05
2.60676e-06
-1.57782e-06
6.24103e-05
2.48591e-06
-1.91809e-06
6.17458e-05
2.54944e-06
-2.39858e-06
6.08686e-05
2.80602e-06
-3.04801e-06
5.97313e-05
3.26011e-06
-3.90447e-06
5.82535e-05
3.92674e-06
-5.0206e-06
5.63138e-05
4.83302e-06
-6.46643e-06
5.37314e-05
6.01668e-06
-8.33182e-06
5.02327e-05
7.52104e-06
-1.07258e-05
4.53974e-05
9.37812e-06
-1.37596e-05
3.85914e-05
1.16184e-05
-1.75679e-05
2.88969e-05
1.40384e-05
-2.19567e-05
1.51685e-05
1.66276e-05
-2.70534e-05
1.53038e-05
-2.58229e-05
6.27917e-05
2.1323e-06
-8.58546e-07
6.29023e-05
2.6245e-06
-1.24719e-06
6.2785e-05
2.61695e-06
-1.5063e-06
6.2465e-05
2.65262e-06
-1.82933e-06
6.19531e-05
2.8458e-06
-2.28397e-06
6.12349e-05
3.22716e-06
-2.89637e-06
6.02689e-05
3.82118e-06
-3.70114e-06
5.89829e-05
4.66183e-06
-4.74629e-06
5.7262e-05
5.79797e-06
-6.09598e-06
5.49264e-05
7.29637e-06
-7.83295e-06
5.16919e-05
9.24225e-06
-1.00586e-05
4.71034e-05
1.17275e-05
-1.28785e-05
4.04529e-05
1.48658e-05
-1.64209e-05
3.06539e-05
1.85398e-05
-2.05268e-05
1.63207e-05
2.28184e-05
-2.52997e-05
2.19153e-05
-2.42151e-05
6.27152e-05
1.88429e-06
-8.08775e-07
6.28483e-05
2.42745e-06
-1.17749e-06
6.28193e-05
2.5481e-06
-1.42157e-06
6.26257e-05
2.70445e-06
-1.72405e-06
6.2263e-05
3.00817e-06
-2.14778e-06
6.17155e-05
3.49818e-06
-2.7157e-06
6.09484e-05
4.21188e-06
-3.45798e-06
5.99003e-05
5.19933e-06
-4.41657e-06
5.84686e-05
6.53165e-06
-5.64756e-06
5.64835e-05
8.31043e-06
-7.22345e-06
5.36588e-05
1.06798e-05
-9.23356e-06
4.9501e-05
1.38356e-05
-1.17724e-05
4.32027e-05
1.80487e-05
-1.49546e-05
3.33683e-05
2.34964e-05
-1.86652e-05
1.82399e-05
3.04264e-05
-2.29651e-05
3.10804e-05
-2.20628e-05
6.27101e-05
1.6474e-06
-7.53198e-07
6.28881e-05
2.19393e-06
-1.09964e-06
6.29479e-05
2.40075e-06
-1.32692e-06
6.28758e-05
2.64777e-06
-1.60635e-06
6.26627e-05
3.0381e-06
-1.99531e-06
6.2296e-05
3.61155e-06
-2.51298e-06
6.17516e-05
4.41238e-06
-3.18427e-06
6.09851e-05
5.50159e-06
-4.0437e-06
5.99193e-05
6.96734e-06
-5.13709e-06
5.84206e-05
8.93981e-06
-6.52295e-06
5.62542e-05
1.16158e-05
-8.27225e-06
5.29802e-05
1.53076e-05
-1.04584e-05
4.78308e-05
2.04845e-05
-1.31629e-05
3.90312e-05
2.80586e-05
-1.63044e-05
2.38131e-05
3.91638e-05
-1.98492e-05
4.69984e-05
-1.90591e-05
6.27456e-05
-6.94139e-07
1.3814e-06
6.29913e-05
-1.01693e-06
1.90171e-06
6.31462e-05
-1.22636e-06
2.16924e-06
6.31946e-05
-1.48126e-06
2.48443e-06
6.31303e-05
-1.83316e-06
2.93735e-06
6.29491e-05
-2.29715e-06
3.56436e-06
6.2641e-05
-2.8923e-06
4.41158e-06
6.21832e-05
-3.64478e-06
5.54557e-06
6.15289e-05
-4.58862e-06
7.06573e-06
6.0585e-05
-5.76608e-06
9.12715e-06
5.91604e-05
-7.2266e-06
1.19851e-05
5.68359e-05
-9.01944e-06
1.61086e-05
5.28227e-05
-1.11896e-05
2.22324e-05
4.49429e-05
-1.37043e-05
3.24018e-05
3.02228e-05
-1.64194e-05
4.85056e-05
-1.59067e-05
7.04379e-05
5.68037e-05
5.60767e-06
-6.89445e-07
5.39016e-05
2.7662e-06
-9.89366e-07
5.21406e-05
1.58602e-06
-1.18859e-06
5.0918e-05
9.96647e-07
-1.44127e-06
4.98212e-05
7.99337e-07
-1.80072e-06
4.86522e-05
7.74745e-07
-2.28745e-06
4.72804e-05
8.47893e-07
-2.92874e-06
4.55897e-05
9.92163e-07
-3.76047e-06
4.34532e-05
1.19958e-06
-4.82737e-06
4.07169e-05
1.46951e-06
-6.18164e-06
3.71848e-05
1.80216e-06
-7.87691e-06
3.2614e-05
2.187e-06
-9.94941e-06
2.66682e-05
2.63461e-06
-1.2429e-05
1.91105e-05
3.00025e-06
-1.50611e-05
9.38978e-06
3.47629e-06
-1.78851e-05
2.85288e-06
-1.64468e-05
6.39002e-05
4.09732e-06
-8.33139e-07
6.34118e-05
3.08678e-06
-1.19769e-06
6.25447e-05
2.23888e-06
-1.43673e-06
6.15208e-05
1.74645e-06
-1.736e-06
6.03796e-05
1.58242e-06
-2.16068e-06
5.90563e-05
1.62603e-06
-2.73655e-06
5.74552e-05
1.8242e-06
-3.49626e-06
5.54587e-05
2.15766e-06
-4.48272e-06
5.29218e-05
2.6242e-06
-5.74956e-06
4.96595e-05
3.22962e-06
-7.3595e-06
4.54324e-05
3.97917e-06
-9.37764e-06
3.99314e-05
4.86308e-06
-1.18492e-05
3.27672e-05
5.87322e-06
-1.48093e-05
2.35262e-05
6.82913e-06
-1.79698e-05
1.17721e-05
7.81178e-06
-2.13348e-05
6.85141e-06
-1.9607e-05
6.34478e-05
3.04118e-06
-8.23501e-07
6.33455e-05
3.02371e-06
-1.18452e-06
6.28204e-05
2.55292e-06
-1.42002e-06
6.20433e-05
2.2535e-06
-1.71416e-06
6.10719e-05
2.20113e-06
-2.13121e-06
5.98742e-05
2.35927e-06
-2.69618e-06
5.83773e-05
2.7067e-06
-3.44075e-06
5.64768e-05
3.24172e-06
-4.40671e-06
5.40321e-05
3.97677e-06
-5.64641e-06
5.08544e-05
4.93293e-06
-7.22141e-06
4.669e-05
6.13151e-06
-9.19615e-06
4.12025e-05
7.57638e-06
-1.16161e-05
3.39525e-05
9.26389e-06
-1.45186e-05
2.44779e-05
1.0973e-05
-1.76235e-05
1.22513e-05
1.27176e-05
-2.09357e-05
1.14201e-05
-1.92396e-05
6.29333e-05
2.50411e-06
-7.96855e-07
6.29328e-05
2.86541e-06
-1.14723e-06
6.26045e-05
2.67813e-06
-1.37467e-06
6.20234e-05
2.57444e-06
-1.65793e-06
6.12209e-05
2.66377e-06
-2.05879e-06
6.01756e-05
2.95734e-06
-2.60071e-06
5.88281e-05
3.4631e-06
-3.31344e-06
5.70848e-05
4.20075e-06
-4.23624e-06
5.48103e-05
5.20335e-06
-5.41851e-06
5.18141e-05
6.51589e-06
-6.91859e-06
4.78283e-05
8.18953e-06
-8.79803e-06
4.24838e-05
1.02624e-05
-1.11011e-05
3.52747e-05
1.2771e-05
-1.38659e-05
2.56455e-05
1.54763e-05
-1.68308e-05
1.29184e-05
1.83891e-05
-1.99978e-05
1.69092e-05
-1.83929e-05
6.27245e-05
2.18208e-06
-7.61037e-07
6.27455e-05
2.6943e-06
-1.0971e-06
6.25295e-05
2.70169e-06
-1.31381e-06
6.20992e-05
2.75788e-06
-1.58248e-06
6.14586e-05
2.98196e-06
-1.96153e-06
6.05841e-05
3.40779e-06
-2.47233e-06
5.94236e-05
4.06429e-06
-3.14183e-06
5.78923e-05
4.9915e-06
-4.00572e-06
5.58623e-05
6.24631e-06
-5.10897e-06
5.31443e-05
7.90578e-06
-6.50485e-06
4.94581e-05
1.00672e-05
-8.25003e-06
4.43945e-05
1.28334e-05
-1.0386e-05
3.73617e-05
1.63321e-05
-1.29492e-05
2.76161e-05
2.04017e-05
-1.57066e-05
1.42009e-05
2.51538e-05
-1.86492e-05
2.4069e-05
-1.71733e-05
6.26521e-05
1.93986e-06
-7.18641e-07
6.27013e-05
2.50533e-06
-1.03774e-06
6.25804e-05
2.64272e-06
-1.24171e-06
6.22852e-05
2.82207e-06
-1.49301e-06
6.18049e-05
3.16051e-06
-1.84601e-06
6.11158e-05
3.70066e-06
-2.31946e-06
6.01737e-05
4.48518e-06
-2.93683e-06
5.89063e-05
5.57147e-06
-3.72911e-06
5.71995e-05
7.04078e-06
-4.73527e-06
5.48749e-05
9.00829e-06
-6.00136e-06
5.16493e-05
1.16355e-05
-7.5762e-06
4.70687e-05
1.51369e-05
-9.49537e-06
4.04254e-05
1.98101e-05
-1.17893e-05
3.0636e-05
2.57873e-05
-1.42615e-05
1.63097e-05
3.33955e-05
-1.68805e-05
3.38809e-05
-1.55644e-05
6.26515e-05
1.70644e-06
-6.71307e-07
6.2752e-05
2.27664e-06
-9.71454e-07
6.27277e-05
2.50127e-06
-1.16118e-06
6.25637e-05
2.77275e-06
-1.39301e-06
6.22456e-05
3.20005e-06
-1.71673e-06
6.17544e-05
3.82701e-06
-2.14808e-06
6.1058e-05
4.70365e-06
-2.70636e-06
6.01034e-05
5.89922e-06
-3.41689e-06
5.88048e-05
7.51347e-06
-4.3111e-06
5.70227e-05
9.6927e-06
-5.42534e-06
5.45272e-05
1.26554e-05
-6.79668e-06
5.09151e-05
1.67396e-05
-8.44903e-06
4.55027e-05
2.24556e-05
-1.0396e-05
3.67797e-05
3.06815e-05
-1.24757e-05
2.22229e-05
4.27081e-05
-1.46049e-05
5.04714e-05
-1.34263e-05
6.26919e-05
-6.21013e-07
1.44146e-06
6.28668e-05
-9.01032e-07
1.98582e-06
6.29459e-05
-1.07564e-06
2.27141e-06
6.29128e-05
-1.28677e-06
2.61139e-06
6.27572e-05
-1.5793e-06
3.10175e-06
6.24699e-05
-1.96572e-06
3.78295e-06
6.20349e-05
-2.46074e-06
4.70701e-06
6.14237e-05
-3.08333e-06
5.94902e-06
6.05842e-05
-3.85631e-06
7.62069e-06
5.94205e-05
-4.80472e-06
9.89496e-06
5.77483e-05
-5.9517e-06
1.30527e-05
5.51786e-05
-7.30732e-06
1.75972e-05
5.09893e-05
-8.86535e-06
2.43205e-05
4.32125e-05
-1.05096e-05
3.52636e-05
2.90398e-05
-1.20933e-05
5.25547e-05
-1.11597e-05
7.47642e-05
5.67516e-05
5.6157e-06
-5.56728e-07
5.37787e-05
2.77849e-06
-7.95005e-07
5.19394e-05
1.60027e-06
-9.49524e-07
5.06286e-05
1.01425e-06
-1.1447e-06
4.94284e-05
8.21961e-07
-1.42252e-06
4.81348e-05
8.04503e-07
-1.79832e-06
4.66103e-05
8.87479e-07
-2.29179e-06
4.47327e-05
1.04499e-06
-2.92779e-06
4.2371e-05
1.26994e-06
-3.73565e-06
3.93734e-05
1.56264e-06
-4.74663e-06
3.55597e-05
1.92409e-06
-5.98731e-06
3.07295e-05
2.3447e-06
-7.46391e-06
2.46356e-05
2.83258e-06
-9.16771e-06
1.7212e-05
3.2459e-06
-1.08834e-05
8.1826e-06
3.75614e-06
-1.26118e-05
3.12528e-06
-1.1389e-05
6.38383e-05
4.11563e-06
-6.71372e-07
6.32672e-05
3.1128e-06
-9.60863e-07
6.23072e-05
2.27006e-06
-1.14654e-06
6.11784e-05
1.78497e-06
-1.37792e-06
5.99141e-05
1.63194e-06
-1.7064e-06
5.84423e-05
1.69116e-06
-2.15133e-06
5.6659e-05
1.91086e-06
-2.73634e-06
5.44391e-05
2.27335e-06
-3.49124e-06
5.16325e-05
2.77832e-06
-4.45128e-06
4.80563e-05
3.43357e-06
-5.65426e-06
4.34895e-05
4.24604e-06
-7.13283e-06
3.76742e-05
5.20673e-06
-8.89586e-06
3.03245e-05
6.30572e-06
-1.09327e-05
2.12439e-05
7.35388e-06
-1.29972e-05
1.03012e-05
8.42376e-06
-1.50596e-05
7.40999e-06
-1.35897e-05
6.33872e-05
3.06877e-06
-6.63839e-07
6.32036e-05
3.06253e-06
-9.50603e-07
6.25873e-05
2.59981e-06
-1.13355e-06
6.17075e-05
2.31151e-06
-1.3609e-06
6.06159e-05
2.27578e-06
-1.68344e-06
5.92732e-05
2.45763e-06
-2.1199e-06
5.75987e-05
2.83783e-06
-2.69321e-06
5.54804e-05
3.41726e-06
-3.43234e-06
5.27726e-05
4.21143e-06
-4.37167e-06
4.92882e-05
5.24476e-06
-5.54819e-06
4.47907e-05
6.54158e-06
-6.99419e-06
3.89932e-05
8.10702e-06
-8.71889e-06
3.15572e-05
9.93669e-06
-1.07136e-05
2.22346e-05
1.17903e-05
-1.27374e-05
1.08016e-05
1.36832e-05
-1.47622e-05
1.22898e-05
-1.3317e-05
6.2875e-05
2.53984e-06
-6.42904e-07
6.2796e-05
2.91554e-06
-9.21286e-07
6.23802e-05
2.73886e-06
-1.09792e-06
6.17009e-05
2.64967e-06
-1.31676e-06
6.07838e-05
2.76074e-06
-1.62668e-06
5.96006e-05
3.08535e-06
-2.04524e-06
5.80847e-05
3.63423e-06
-2.59392e-06
5.61349e-05
4.43065e-06
-3.29988e-06
5.36111e-05
5.51212e-06
-4.19541e-06
5.0324e-05
6.92866e-06
-5.31535e-06
4.60215e-05
8.73638e-06
-6.69033e-06
4.03805e-05
1.09762e-05
-8.32928e-06
3.29901e-05
1.36863e-05
-1.0225e-05
2.35008e-05
1.65993e-05
-1.21505e-05
1.1527e-05
1.97368e-05
-1.40775e-05
1.81282e-05
-1.27036e-05
6.26691e-05
2.22448e-06
-6.14736e-07
6.26156e-05
2.75373e-06
-8.8188e-07
6.2317e-05
2.77379e-06
-1.05011e-06
6.17945e-05
2.8473e-06
-1.25757e-06
6.10468e-05
3.09739e-06
-1.55051e-06
6.00443e-05
3.56048e-06
-1.94493e-06
5.87279e-05
4.269e-06
-2.46024e-06
5.70063e-05
5.2676e-06
-3.12103e-06
5.47468e-05
6.6191e-06
-3.9565e-06
5.17612e-05
8.40765e-06
-4.99816e-06
4.7783e-05
1.07382e-05
-6.27371e-06
4.2445e-05
1.37193e-05
-7.79106e-06
3.5241e-05
1.74848e-05
-9.5437e-06
2.56212e-05
2.18379e-05
-1.13254e-05
1.28973e-05
2.69151e-05
-1.31036e-05
2.56831e-05
-1.18303e-05
6.26001e-05
1.98718e-06
-5.81404e-07
6.25796e-05
2.57162e-06
-8.35214e-07
6.2382e-05
2.7232e-06
-9.93482e-07
6.20017e-05
2.92196e-06
-1.18739e-06
6.14236e-05
3.28961e-06
-1.46006e-06
6.06184e-05
3.87171e-06
-1.82555e-06
5.95362e-05
4.71505e-06
-2.30069e-06
5.80989e-05
5.88258e-06
-2.90672e-06
5.61885e-05
7.46292e-06
-3.6687e-06
5.36276e-05
9.58054e-06
-4.61337e-06
5.01454e-05
1.24079e-05
-5.76371e-06
4.53244e-05
1.61698e-05
-7.12486e-06
3.85304e-05
2.1178e-05
-8.68848e-06
2.88546e-05
2.75275e-05
-1.02753e-05
1.51352e-05
3.55952e-05
-1.18413e-05
3.59459e-05
-1.06913e-05
6.26034e-05
1.75671e-06
-5.44191e-07
6.26396e-05
2.34705e-06
-7.83115e-07
6.25451e-05
2.58676e-06
-9.30249e-07
6.23041e-05
2.87887e-06
-1.10897e-06
6.18987e-05
3.33724e-06
-1.35889e-06
6.13052e-05
4.00892e-06
-1.69179e-06
6.0487e-05
4.94841e-06
-2.1215e-06
5.93867e-05
6.23116e-06
-2.66521e-06
5.7916e-05
7.96528e-06
-3.34281e-06
5.5938e-05
1.0308e-05
-4.17477e-06
5.32347e-05
1.34916e-05
-5.17705e-06
4.94357e-05
1.78686e-05
-6.34888e-06
4.39191e-05
2.3973e-05
-7.67436e-06
3.53206e-05
3.26521e-05
-9.0018e-06
2.12695e-05
4.53005e-05
-1.02589e-05
5.30155e-05
-9.22612e-06
6.26478e-05
-5.04655e-07
1.4926e-06
6.27641e-05
-7.27769e-07
2.05741e-06
6.278e-05
-8.63083e-07
2.35829e-06
6.26787e-05
-1.02567e-06
2.71917e-06
6.2447e-05
-1.25137e-06
3.24099e-06
6.20723e-05
-1.54954e-06
3.96745e-06
6.15355e-05
-1.93068e-06
4.95514e-06
6.08053e-05
-2.40749e-06
6.28552e-06
5.98292e-05
-2.99399e-06
8.07905e-06
5.85152e-05
-3.7033e-06
1.05206e-05
5.6691e-05
-4.54295e-06
1.3907e-05
5.39961e-05
-5.50485e-06
1.8761e-05
4.97583e-05
-6.5633e-06
2.59088e-05
4.21239e-05
-7.6014e-06
3.73783e-05
2.83778e-05
-8.51059e-06
5.54639e-05
-7.66165e-06
7.78953e-05
5.67115e-05
5.62199e-06
-3.9019e-07
5.3684e-05
2.78817e-06
-5.55719e-07
5.17841e-05
1.61146e-06
-6.61041e-07
5.04051e-05
1.02808e-06
-7.93837e-07
4.91257e-05
8.39697e-07
-9.82801e-07
4.77377e-05
8.27785e-07
-1.23807e-06
4.60998e-05
9.18368e-07
-1.57229e-06
4.40868e-05
1.08607e-06
-2.00084e-06
4.15678e-05
1.3244e-06
-2.54102e-06
3.83965e-05
1.63431e-06
-3.20968e-06
3.44101e-05
2.01724e-06
-4.01815e-06
2.94435e-05
2.46413e-06
-4.96147e-06
2.33165e-05
2.98113e-06
-6.02186e-06
1.6056e-05
3.42864e-06
-7.05152e-06
7.52284e-06
3.9642e-06
-8.04281e-06
3.3268e-06
-7.19238e-06
6.37907e-05
4.13003e-06
-4.701e-07
6.31556e-05
3.13327e-06
-6.70917e-07
6.21237e-05
2.29453e-06
-7.97718e-07
6.09139e-05
1.8152e-06
-9.55164e-07
5.95552e-05
1.67072e-06
-1.17873e-06
5.79707e-05
1.74207e-06
-1.48111e-06
5.60518e-05
1.9784e-06
-1.87754e-06
5.367e-05
2.36319e-06
-2.3865e-06
5.06745e-05
2.89745e-06
-3.02886e-06
4.68894e-05
3.5903e-06
-3.82511e-06
4.21135e-05
4.44965e-06
-4.78941e-06
3.61319e-05
5.46667e-06
-5.91681e-06
2.87367e-05
6.62957e-06
-7.18589e-06
1.98517e-05
7.74304e-06
-8.42662e-06
9.49371e-06
8.87299e-06
-9.61042e-06
7.81811e-06
-8.58655e-06
6.33406e-05
3.09045e-06
-4.64828e-07
6.30941e-05
3.09305e-06
-6.63871e-07
6.24073e-05
2.63663e-06
-7.88886e-07
6.14481e-05
2.35701e-06
-9.43565e-07
6.02642e-05
2.33425e-06
-1.16307e-06
5.88116e-05
2.53447e-06
-1.45968e-06
5.7005e-05
2.93997e-06
-1.84818e-06
5.47289e-05
3.55345e-06
-2.34649e-06
5.18371e-05
4.39256e-06
-2.97493e-06
4.81488e-05
5.48393e-06
-3.75352e-06
4.34469e-05
6.85361e-06
-4.69626e-06
3.74861e-05
8.50702e-06
-5.79845e-06
3.0004e-05
1.04382e-05
-7.04014e-06
2.08712e-05
1.23931e-05
-8.25453e-06
1.00104e-05
1.43861e-05
-9.41453e-06
1.29198e-05
-8.40753e-06
6.28301e-05
2.56793e-06
-4.50459e-07
6.26906e-05
2.95495e-06
-6.43662e-07
6.22071e-05
2.78655e-06
-7.64337e-07
6.14518e-05
2.70867e-06
-9.13171e-07
6.04468e-05
2.83664e-06
-1.12404e-06
5.91591e-05
3.18531e-06
-1.40845e-06
5.7518e-05
3.76741e-06
-1.78019e-06
5.54188e-05
4.60878e-06
-2.25607e-06
5.2721e-05
5.75e-06
-2.85506e-06
4.92411e-05
7.24439e-06
-3.59591e-06
4.47452e-05
9.15094e-06
-4.49173e-06
3.89493e-05
1.15116e-05
-5.53794e-06
3.15145e-05
1.43641e-05
-6.71611e-06
2.22048e-05
1.74204e-05
-7.8682e-06
1.07745e-05
2.07071e-05
-8.96812e-06
1.9001e-05
-8.00942e-06
6.26264e-05
2.25781e-06
-4.31041e-07
6.25156e-05
2.80044e-06
-6.16518e-07
6.21531e-05
2.83039e-06
-7.31441e-07
6.15592e-05
2.9174e-06
-8.72481e-07
6.07294e-05
3.18771e-06
-1.07176e-06
5.96299e-05
3.67964e-06
-1.33971e-06
5.81977e-05
4.42815e-06
-1.68883e-06
5.63385e-05
5.48121e-06
-2.13422e-06
5.39193e-05
6.90567e-06
-2.69297e-06
5.0757e-05
8.79032e-06
-3.38182e-06
4.6602e-05
1.12446e-05
-4.21233e-06
4.11225e-05
1.43797e-05
-5.17971e-06
3.38783e-05
1.83314e-05
-6.26683e-06
2.44254e-05
2.28769e-05
-7.32897e-06
1.22018e-05
2.81659e-05
-8.3388e-06
2.68213e-05
-7.44804e-06
6.25601e-05
2.02438e-06
-4.08082e-07
6.2486e-05
2.62372e-06
-5.84373e-07
6.2229e-05
2.78638e-06
-6.92457e-07
6.1783e-05
3.00026e-06
-8.24221e-07
6.11297e-05
3.39058e-06
-1.00966e-06
6.02366e-05
4.0051e-06
-1.25792e-06
5.90503e-05
4.89359e-06
-1.57982e-06
5.74902e-05
6.12292e-06
-1.98834e-06
5.54384e-05
7.7867e-06
-2.49797e-06
5.27226e-05
1.00154e-05
-3.12263e-06
4.90868e-05
1.2988e-05
-3.87132e-06
4.41453e-05
1.69344e-05
-4.73804e-06
3.73213e-05
2.21726e-05
-5.70567e-06
2.78e-05
2.87694e-05
-6.64644e-06
1.4523e-05
3.71296e-05
-7.52797e-06
3.73725e-05
-6.71903e-06
6.25664e-05
1.79623e-06
-3.82447e-07
6.25531e-05
2.40237e-06
-5.48491e-07
6.24043e-05
2.65385e-06
-6.48939e-07
6.21039e-05
2.96204e-06
-7.70319e-07
6.16313e-05
3.44452e-06
-9.40227e-07
6.09603e-05
4.15071e-06
-1.16634e-06
6.00515e-05
5.13837e-06
-1.4575e-06
5.8846e-05
6.4873e-06
-1.82414e-06
5.72562e-05
8.31123e-06
-2.27757e-06
5.51505e-05
1.07744e-05
-2.82804e-06
5.23249e-05
1.41173e-05
-3.48074e-06
4.84376e-05
1.86998e-05
-4.22698e-06
4.29148e-05
2.50679e-05
-5.04683e-06
3.44704e-05
3.40427e-05
-5.83076e-06
2.07932e-05
4.70799e-05
-6.53203e-06
5.47449e-05
-5.80481e-06
6.2614e-05
-3.55214e-07
1.53278e-06
6.26853e-05
-5.10373e-07
2.11365e-06
6.26523e-05
-6.0272e-07
2.42648e-06
6.24981e-05
-7.13065e-07
2.80364e-06
6.22079e-05
-8.66458e-07
3.34985e-06
6.17668e-05
-1.06897e-06
4.11122e-06
6.11542e-05
-1.32731e-06
5.14764e-06
6.03381e-05
-1.64906e-06
6.54498e-06
5.92677e-05
-2.04194e-06
8.42958e-06
5.78568e-05
-2.51183e-06
1.09938e-05
5.59465e-05
-3.05924e-06
1.45439e-05
5.32008e-05
-3.67183e-06
1.96126e-05
4.89868e-05
-4.32513e-06
2.70436e-05
4.15106e-05
-4.93146e-06
3.8849e-05
2.80834e-05
-5.42503e-06
5.74216e-05