/*--------------------------------*- C++ -*----------------------------------*\
| =========                 |                                                 |
| \\      /  F ield         | OpenFOAM: The Open Source CFD Toolbox           |
|  \\    /   O peration     | Version:  v1912                                 |
|   \\  /    A nd           | Website:  www.openfoam.com                      |
|    \\/     M anipulation  |                                                 |
\*---------------------------------------------------------------------------*/
FoamFile
{
    version     2.0;
    format      ascii;
    class       pointVectorField;
    location    "0.07/fluid";
    object      pointMotionU;
}
// * * * * * * * * * * * * * * * * * * * * * * * * * * * * * * * * * * * * * //

dimensions      [0 1 -1 0 0 0 0];


internalField   nonuniform List<vector> 
16859
(
(0 0 0)
(0 0 0)
(0 0 0)
(0 0 0)
(0 0 0)
(0 0 0)
(0 0 0)
(0 0 0)
(0 0 0)
(0 0 0)
(0 0 0)
(0 0 0)
(0 0 0)
(0 0 0)
(0 0 0)
(0 0 0)
(-2.91046e-08 2.45239e-07 2.59301e-08)
(0 0 0)
(3.27525e-09 -2.02257e-08 1.54149e-08)
(5.69522e-09 -3.89759e-08 3.01405e-08)
(6.9791e-09 -5.69182e-08 4.51287e-08)
(6.85952e-09 -7.45074e-08 6.10726e-08)
(5.05172e-09 -9.22359e-08 7.85514e-08)
(1.33962e-09 -1.10313e-07 9.79738e-08)
(-4.32365e-09 -1.28156e-07 1.19263e-07)
(-1.20766e-08 -1.44819e-07 1.41817e-07)
(-2.20025e-08 -1.59232e-07 1.64851e-07)
(-3.41432e-08 -1.70156e-07 1.87647e-07)
(-4.90644e-08 -1.76346e-07 2.09984e-07)
(-6.74614e-08 -1.75571e-07 2.32391e-07)
(-9.02785e-08 -1.61948e-07 2.55413e-07)
(-1.17254e-07 -1.21588e-07 2.78404e-07)
(-1.34694e-07 -3.94455e-08 2.94704e-07)
(2.35959e-08 1.9443e-07 2.39846e-07)
(0 0 0)
(6.69272e-09 -4.00886e-08 3.05939e-08)
(1.16865e-08 -7.72704e-08 5.9833e-08)
(1.44616e-08 -1.12987e-07 8.96425e-08)
(1.45045e-08 -1.48275e-07 1.2145e-07)
(1.13457e-08 -1.83977e-07 1.56388e-07)
(4.68707e-09 -2.20236e-07 1.95145e-07)
(-5.61593e-09 -2.56085e-07 2.3751e-07)
(-1.96807e-08 -2.89862e-07 2.82367e-07)
(-3.72291e-08 -3.19556e-07 3.28158e-07)
(-5.8111e-08 -3.43352e-07 3.73563e-07)
(-8.26229e-08 -3.59647e-07 4.18121e-07)
(-1.10064e-07 -3.65472e-07 4.6183e-07)
(-1.38202e-07 -3.54792e-07 5.04407e-07)
(-1.57749e-07 -3.17456e-07 5.43933e-07)
(-1.41447e-07 -2.51987e-07 5.71099e-07)
(1.03722e-07 -1.36306e-07 5.89984e-07)
(0 0 0)
(1.03876e-08 -5.88912e-08 4.52153e-08)
(1.83007e-08 -1.13582e-07 8.8448e-08)
(2.30317e-08 -1.66342e-07 1.32582e-07)
(2.39262e-08 -2.18745e-07 1.79767e-07)
(2.04703e-08 -2.7187e-07 2.31638e-07)
(1.24163e-08 -3.25823e-07 2.89109e-07)
(-3.71004e-10 -3.79404e-07 3.51832e-07)
(-1.7504e-08 -4.30312e-07 4.18229e-07)
(-3.84724e-08 -4.76337e-07 4.86189e-07)
(-6.27372e-08 -5.15777e-07 5.54084e-07)
(-8.95044e-08 -5.46903e-07 6.20889e-07)
(-1.16727e-07 -5.67048e-07 6.8555e-07)
(-1.40077e-07 -5.71685e-07 7.46891e-07)
(-1.47518e-07 -5.55067e-07 8.02771e-07)
(-1.13417e-07 -5.19072e-07 8.43745e-07)
(1.25716e-07 -4.4233e-07 8.66538e-07)
(0 0 0)
(1.44553e-08 -7.58352e-08 5.89325e-08)
(2.57465e-08 -1.46348e-07 1.15277e-07)
(3.30897e-08 -2.14587e-07 1.72813e-07)
(3.58232e-08 -2.82587e-07 2.34356e-07)
(3.35463e-08 -3.51639e-07 3.01999e-07)
(2.61871e-08 -4.21904e-07 3.76862e-07)
(1.40807e-08 -4.91918e-07 4.5853e-07)
(-2.2136e-09 -5.59355e-07 5.45051e-07)
(-2.17487e-08 -6.22173e-07 6.34043e-07)
(-4.32044e-08 -6.78817e-07 7.23524e-07)
(-6.52548e-08 -7.27977e-07 8.11832e-07)
(-8.51972e-08 -7.67583e-07 8.97198e-07)
(-9.91715e-08 -7.94099e-07 9.77463e-07)
(-9.8112e-08 -8.02847e-07 1.04887e-06)
(-6.2502e-08 -7.91729e-07 1.09832e-06)
(1.58057e-07 -7.36656e-07 1.11421e-06)
(0 0 0)
(1.8938e-08 -9.01484e-08 7.14286e-08)
(3.41229e-08 -1.74048e-07 1.39673e-07)
(4.48151e-08 -2.55387e-07 2.09301e-07)
(5.04883e-08 -3.36598e-07 2.83703e-07)
(5.10006e-08 -4.1918e-07 3.65376e-07)
(4.66411e-08 -5.03352e-07 4.55647e-07)
(3.81938e-08 -5.87626e-07 5.5409e-07)
(2.65152e-08 -6.69906e-07 6.5862e-07)
(1.30209e-08 -7.4839e-07 7.6651e-07)
(-4.49922e-10 -8.21936e-07 8.75396e-07)
(-1.20505e-08 -8.90066e-07 9.83606e-07)
(-1.873e-08 -9.51685e-07 1.08964e-06)
(-1.79627e-08 -1.00439e-06 1.19149e-06)
(-5.16203e-09 -1.04363e-06 1.28417e-06)
(3.18159e-08 -1.06039e-06 1.34885e-06)
(2.3214e-07 -1.02371e-06 1.36262e-06)
(0 0 0)
(2.38234e-08 -1.01191e-07 8.24624e-08)
(4.33978e-08 -1.95394e-07 1.6115e-07)
(5.81426e-08 -2.86794e-07 2.41269e-07)
(6.77682e-08 -3.78132e-07 3.26682e-07)
(7.24775e-08 -4.71111e-07 4.20211e-07)
(7.30091e-08 -5.66012e-07 5.23381e-07)
(7.04511e-08 -6.6146e-07 6.35778e-07)
(6.61089e-08 -7.55517e-07 7.55201e-07)
(6.17536e-08 -8.46704e-07 8.78545e-07)
(5.94041e-08 -9.34758e-07 1.00323e-06)
(6.18132e-08 -1.02021e-06 1.12825e-06)
(7.30941e-08 -1.1034e-06 1.25379e-06)
(9.61207e-08 -1.18455e-06 1.38048e-06)
(1.34377e-07 -1.26277e-06 1.50589e-06)
(1.92094e-07 -1.3261e-06 1.6069e-06)
(3.82072e-07 -1.31783e-06 1.64332e-06)
(0 0 0)
(2.90263e-08 -1.08445e-07 9.18742e-08)
(5.33808e-08 -2.0938e-07 1.7939e-07)
(7.27259e-08 -3.07297e-07 2.68225e-07)
(8.7059e-08 -4.05171e-07 3.62571e-07)
(9.68979e-08 -5.04857e-07 4.6546e-07)
(1.03374e-07 -6.06654e-07 5.78546e-07)
(1.07883e-07 -7.09296e-07 7.01451e-07)
(1.12014e-07 -8.10942e-07 8.31761e-07)
(1.1739e-07 -9.10789e-07 9.65948e-07)
(1.26427e-07 -1.00924e-06 1.10134e-06)
(1.42835e-07 -1.1075e-06 1.23774e-06)
(1.72154e-07 -1.20739e-06 1.37777e-06)
(2.20694e-07 -1.31175e-06 1.52678e-06)
(2.98684e-07 -1.42583e-06 1.69043e-06)
(4.11016e-07 -1.54181e-06 1.85098e-06)
(6.70015e-07 -1.71885e-06 2.00854e-06)
(0 0 0)
(3.4386e-08 -1.11533e-07 9.95663e-08)
(6.37319e-08 -2.15288e-07 1.94211e-07)
(8.79775e-08 -3.1589e-07 2.89907e-07)
(1.07371e-07 -4.16431e-07 3.91003e-07)
(1.2269e-07 -5.18816e-07 5.00597e-07)
(1.35313e-07 -6.2335e-07 6.20399e-07)
(1.4682e-07 -7.28795e-07 7.49993e-07)
(1.58728e-07 -8.33646e-07 8.86719e-07)
(1.72447e-07 -9.3757e-07 1.02658e-06)
(1.90187e-07 -1.04138e-06 1.16646e-06)
(2.16054e-07 -1.14624e-06 1.30654e-06)
(2.56148e-07 -1.2538e-06 1.45093e-06)
(3.18584e-07 -1.3666e-06 1.60742e-06)
(4.16234e-07 -1.48844e-06 1.78546e-06)
(5.49514e-07 -1.60788e-06 1.96757e-06)
(9.39324e-07 -1.84331e-06 2.31736e-06)
(0 0 0)
(0 0 0)
(0 0 0)
(0 0 0)
(0 0 0)
(0 0 0)
(0 0 0)
(0 0 0)
(0 0 0)
(0 0 0)
(0 0 0)
(0 0 0)
(0 0 0)
(0 0 0)
(0 0 0)
(0 0 0)
(-3.07588e-07 6.33434e-08 1.21903e-07)
(0 0 0)
(1.96971e-09 -2.08918e-08 1.50667e-08)
(3.10606e-09 -4.03225e-08 2.9481e-08)
(2.99259e-09 -5.90109e-08 4.41851e-08)
(1.22775e-09 -7.74024e-08 5.98546e-08)
(-2.63157e-09 -9.5997e-08 7.70554e-08)
(-9.00842e-09 -1.15079e-07 9.62136e-08)
(-1.8266e-08 -1.34124e-07 1.17259e-07)
(-3.07115e-08 -1.52073e-07 1.39652e-07)
(-4.67925e-08 -1.67911e-07 1.62683e-07)
(-6.74281e-08 -1.8079e-07 1.85886e-07)
(-9.46836e-08 -1.89849e-07 2.09477e-07)
(-1.32714e-07 -1.93689e-07 2.34615e-07)
(-1.88759e-07 -1.88199e-07 2.63324e-07)
(-2.73949e-07 -1.63151e-07 2.9846e-07)
(-3.89326e-07 -1.07802e-07 3.40416e-07)
(-5.81928e-07 -2.46924e-08 4.29618e-07)
(0 0 0)
(4.15459e-09 -4.13962e-08 2.98949e-08)
(6.6509e-09 -7.98852e-08 5.84981e-08)
(6.71305e-09 -1.17003e-07 8.77142e-08)
(3.57784e-09 -1.53831e-07 1.18953e-07)
(-3.52392e-09 -1.91292e-07 1.53335e-07)
(-1.52933e-08 -2.29652e-07 1.9157e-07)
(-3.22502e-08 -2.67901e-07 2.33495e-07)
(-5.48481e-08 -3.04217e-07 2.78056e-07)
(-8.35315e-08 -3.3676e-07 3.23842e-07)
(-1.19275e-07 -3.64049e-07 3.69942e-07)
(-1.64608e-07 -3.84985e-07 4.16471e-07)
(-2.22896e-07 -3.97731e-07 4.644e-07)
(-2.97096e-07 -3.97944e-07 5.15398e-07)
(-3.83921e-07 -3.78159e-07 5.71532e-07)
(-4.59039e-07 -3.38038e-07 6.31387e-07)
(-5.39148e-07 -3.17582e-07 7.64555e-07)
(0 0 0)
(6.74704e-09 -6.07602e-08 4.41589e-08)
(1.10837e-08 -1.1729e-07 8.64187e-08)
(1.19524e-08 -1.72026e-07 1.29638e-07)
(8.35332e-09 -2.26677e-07 1.75951e-07)
(-6.25329e-10 -2.82456e-07 2.26992e-07)
(-1.57025e-08 -3.39566e-07 2.83699e-07)
(-3.737e-08 -3.96668e-07 3.4582e-07)
(-6.57662e-08 -4.51355e-07 4.11785e-07)
(-1.00961e-07 -5.01322e-07 4.7965e-07)
(-1.4368e-07 -5.45038e-07 5.48196e-07)
(-1.95533e-07 -5.8142e-07 6.17022e-07)
(-2.57697e-07 -6.08721e-07 6.86266e-07)
(-3.29071e-07 -6.23601e-07 7.56782e-07)
(-4.0002e-07 -6.2195e-07 8.30268e-07)
(-4.45578e-07 -6.06087e-07 9.04982e-07)
(-5.17403e-07 -5.9657e-07 1.04038e-06)
(0 0 0)
(9.88853e-09 -7.81551e-08 5.75176e-08)
(1.67145e-08 -1.50948e-07 1.12549e-07)
(1.92731e-08 -2.21665e-07 1.68844e-07)
(1.65078e-08 -2.92544e-07 2.2921e-07)
(7.58376e-09 -3.65034e-07 2.95735e-07)
(-7.99165e-09 -4.3932e-07 3.6959e-07)
(-3.03344e-08 -5.13845e-07 4.50422e-07)
(-5.91444e-08 -5.8594e-07 5.36341e-07)
(-9.40315e-08 -6.53258e-07 6.24988e-07)
(-1.35068e-07 -7.14397e-07 7.14681e-07)
(-1.82876e-07 -7.6846e-07 8.0451e-07)
(-2.37446e-07 -8.14024e-07 8.93889e-07)
(-2.97525e-07 -8.4833e-07 9.82717e-07)
(-3.56407e-07 -8.67611e-07 1.07088e-06)
(-3.96934e-07 -8.70396e-07 1.1531e-06)
(-4.75686e-07 -8.69268e-07 1.28389e-06)
(0 0 0)
(1.36542e-08 -9.28137e-08 6.96653e-08)
(2.37058e-08 -1.7934e-07 1.36267e-07)
(2.89604e-08 -2.63566e-07 2.04337e-07)
(2.84847e-08 -3.48162e-07 2.77258e-07)
(2.17334e-08 -4.34761e-07 3.57511e-07)
(8.61602e-09 -5.23577e-07 4.46476e-07)
(-1.04087e-08 -6.12956e-07 5.4378e-07)
(-3.45818e-08 -7.00307e-07 6.47379e-07)
(-6.29796e-08 -7.83473e-07 7.54516e-07)
(-9.49303e-08 -8.61231e-07 8.62967e-07)
(-1.30184e-07 -9.33206e-07 9.71721e-07)
(-1.6821e-07 -9.98806e-07 1.08048e-06)
(-2.09478e-07 -1.056e-06 1.18919e-06)
(-2.5357e-07 -1.10056e-06 1.29631e-06)
(-2.93394e-07 -1.12428e-06 1.39156e-06)
(-3.84356e-07 -1.13217e-06 1.52161e-06)
(0 0 0)
(1.80485e-08 -1.04101e-07 8.0378e-08)
(3.20563e-08 -2.01184e-07 1.57121e-07)
(4.09876e-08 -2.95759e-07 2.35389e-07)
(4.41691e-08 -3.90811e-07 3.19025e-07)
(4.14517e-08 -4.8815e-07 4.10823e-07)
(3.32668e-08 -5.88017e-07 5.12325e-07)
(2.05936e-08 -6.88744e-07 6.23207e-07)
(4.72081e-09 -7.87935e-07 7.41306e-07)
(-1.29136e-08 -8.83663e-07 8.63348e-07)
(-3.09868e-08 -9.75227e-07 9.86799e-07)
(-4.80145e-08 -1.06309e-06 1.11116e-06)
(-6.21612e-08 -1.14784e-06 1.23758e-06)
(-7.36364e-08 -1.22991e-06 1.36837e-06)
(-8.4791e-08 -1.30872e-06 1.50386e-06)
(-1.00151e-07 -1.37436e-06 1.62985e-06)
(-2.07497e-07 -1.3867e-06 1.77818e-06)
(0 0 0)
(2.29856e-08 -1.11501e-07 8.95104e-08)
(4.15685e-08 -2.15459e-07 1.74818e-07)
(5.49816e-08 -3.16705e-07 2.61546e-07)
(6.28755e-08 -4.18449e-07 3.53848e-07)
(6.54904e-08 -5.22604e-07 4.54704e-07)
(6.37463e-08 -6.29396e-07 5.65755e-07)
(5.90852e-08 -7.37227e-07 6.86765e-07)
(5.3163e-08 -8.43799e-07 8.15272e-07)
(4.76302e-08 -9.47706e-07 9.47642e-07)
(4.45312e-08 -1.04876e-06 1.08102e-06)
(4.67859e-08 -1.14786e-06 1.21542e-06)
(5.85826e-08 -1.24664e-06 1.35431e-06)
(8.43867e-08 -1.34792e-06 1.504e-06)
(1.30985e-07 -1.45678e-06 1.67138e-06)
(1.99185e-07 -1.56853e-06 1.84611e-06)
(1.63982e-07 -1.71548e-06 2.04478e-06)
(0 0 0)
(2.82843e-08 -1.14621e-07 9.69685e-08)
(5.18484e-08 -2.21433e-07 1.89187e-07)
(7.02457e-08 -3.25387e-07 2.82562e-07)
(8.34292e-08 -4.29778e-07 3.81383e-07)
(9.1971e-08 -5.36552e-07 4.88673e-07)
(9.71357e-08 -6.45902e-07 6.06126e-07)
(1.00617e-07 -7.56248e-07 7.33441e-07)
(1.04145e-07 -8.65611e-07 8.67947e-07)
(1.09349e-07 -9.73006e-07 1.00546e-06)
(1.18487e-07 -1.07854e-06 1.14272e-06)
(1.35327e-07 -1.18282e-06 1.27977e-06)
(1.6541e-07 -1.28688e-06 1.42114e-06)
(2.16456e-07 -1.39225e-06 1.57525e-06)
(3.01564e-07 -1.50072e-06 1.75107e-06)
(4.2488e-07 -1.60094e-06 1.93465e-06)
(6.96641e-07 -1.68713e-06 2.21471e-06)
(0 0 0)
(0 0 0)
(0 0 0)
(0 0 0)
(0 0 0)
(0 0 0)
(0 0 0)
(0 0 0)
(0 0 0)
(0 0 0)
(0 0 0)
(0 0 0)
(0 0 0)
(0 0 0)
(0 0 0)
(0 0 0)
(-4.7515e-07 -5.69046e-08 6.52023e-08)
(0 0 0)
(5.77703e-10 -2.16109e-08 1.41719e-08)
(3.34848e-10 -4.17423e-08 2.77404e-08)
(-1.27989e-09 -6.11741e-08 4.16006e-08)
(-4.7996e-09 -8.04224e-08 5.63978e-08)
(-1.08199e-08 -9.99826e-08 7.26521e-08)
(-1.99641e-08 -1.20099e-07 9.07357e-08)
(-3.2828e-08 -1.40311e-07 1.10625e-07)
(-5.00194e-08 -1.59653e-07 1.31813e-07)
(-7.24295e-08 -1.77254e-07 1.53661e-07)
(-1.01814e-07 -1.92667e-07 1.75935e-07)
(-1.42016e-07 -2.05868e-07 1.99003e-07)
(-2.00586e-07 -2.16989e-07 2.23855e-07)
(-2.90996e-07 -2.25398e-07 2.51537e-07)
(-4.37937e-07 -2.29854e-07 2.82454e-07)
(-6.5884e-07 -2.32547e-07 3.1377e-07)
(-9.57726e-07 -2.41401e-07 2.84758e-07)
(0 0 0)
(1.43361e-09 -4.27805e-08 2.81115e-08)
(1.24902e-09 -8.25968e-08 5.50202e-08)
(-1.5935e-09 -1.21121e-07 8.25294e-08)
(-8.09915e-09 -1.59535e-07 1.11973e-07)
(-1.93201e-08 -1.9877e-07 1.44392e-07)
(-3.63008e-08 -2.39102e-07 1.80438e-07)
(-5.99706e-08 -2.79592e-07 2.19978e-07)
(-9.1214e-08 -3.18481e-07 2.62023e-07)
(-1.31213e-07 -3.5419e-07 3.05399e-07)
(-1.82369e-07 -3.85862e-07 3.49509e-07)
(-2.49577e-07 -4.13368e-07 3.94621e-07)
(-3.40249e-07 -4.36643e-07 4.41513e-07)
(-4.63026e-07 -4.54536e-07 4.90337e-07)
(-6.24466e-07 -4.65601e-07 5.39454e-07)
(-8.06254e-07 -4.72685e-07 5.82694e-07)
(-9.60773e-07 -4.96933e-07 5.82648e-07)
(0 0 0)
(2.83574e-09 -6.27181e-08 4.15075e-08)
(3.33188e-09 -1.21109e-07 8.12319e-08)
(7.07735e-11 -1.778e-07 1.21873e-07)
(-8.27054e-09 -2.3464e-07 1.65458e-07)
(-2.29681e-08 -2.92901e-07 2.13508e-07)
(-4.51793e-08 -3.52808e-07 2.66894e-07)
(-7.58247e-08 -4.13018e-07 3.2535e-07)
(-1.15567e-07 -4.71185e-07 3.87539e-07)
(-1.65317e-07 -5.25222e-07 4.51725e-07)
(-2.27301e-07 -5.74053e-07 5.16891e-07)
(-3.05469e-07 -6.1744e-07 5.82927e-07)
(-4.0445e-07 -6.55127e-07 6.49872e-07)
(-5.26986e-07 -6.86064e-07 7.17099e-07)
(-6.69742e-07 -7.0973e-07 7.82598e-07)
(-8.10942e-07 -7.28779e-07 8.40181e-07)
(-9.42059e-07 -7.54177e-07 8.51388e-07)
(0 0 0)
(4.98118e-09 -8.0578e-08 5.40352e-08)
(7.01148e-09 -1.55668e-07 1.05723e-07)
(4.46314e-09 -2.28783e-07 1.58606e-07)
(-4.08821e-09 -3.02355e-07 2.15344e-07)
(-1.98699e-08 -3.77914e-07 2.77892e-07)
(-4.38299e-08 -4.55619e-07 3.47293e-07)
(-7.65194e-08 -5.33864e-07 4.2326e-07)
(-1.1807e-07 -6.09952e-07 5.04099e-07)
(-1.68866e-07 -6.8155e-07 5.8761e-07)
(-2.30421e-07 -7.47474e-07 6.72323e-07)
(-3.05375e-07 -8.07433e-07 7.57573e-07)
(-3.96635e-07 -8.61122e-07 8.42868e-07)
(-5.05943e-07 -9.07531e-07 9.26917e-07)
(-6.31965e-07 -9.45937e-07 1.00674e-06)
(-7.61163e-07 -9.76312e-07 1.07428e-06)
(-8.94815e-07 -1.00797e-06 1.09021e-06)
(0 0 0)
(7.98424e-09 -9.55975e-08 6.54134e-08)
(1.25292e-08 -1.84755e-07 1.27929e-07)
(1.19875e-08 -2.71726e-07 1.9182e-07)
(5.05279e-09 -3.59402e-07 2.60293e-07)
(-9.20805e-09 -4.49488e-07 3.35659e-07)
(-3.13062e-08 -5.42125e-07 4.19137e-07)
(-6.11652e-08 -6.35539e-07 5.10425e-07)
(-9.82852e-08 -7.26927e-07 6.07602e-07)
(-1.42368e-07 -8.13955e-07 7.08052e-07)
(-1.93961e-07 -8.95407e-07 8.09765e-07)
(-2.54523e-07 -9.71167e-07 9.11862e-07)
(-3.26303e-07 -1.0413e-06 1.01406e-06)
(-4.12937e-07 -1.10506e-06 1.11511e-06)
(-5.2025e-07 -1.16106e-06 1.21129e-06)
(-6.45983e-07 -1.2039e-06 1.29159e-06)
(-7.92703e-07 -1.24091e-06 1.31459e-06)
(0 0 0)
(1.1863e-08 -1.07134e-07 7.54412e-08)
(1.9906e-08 -2.07078e-07 1.4744e-07)
(2.26459e-08 -3.04635e-07 2.2086e-07)
(1.90569e-08 -4.03015e-07 2.99336e-07)
(8.62287e-09 -5.04066e-07 3.8544e-07)
(-8.58793e-09 -6.07895e-07 4.80529e-07)
(-3.18248e-08 -7.12635e-07 5.843e-07)
(-5.99465e-08 -8.15551e-07 6.94672e-07)
(-9.19215e-08 -9.14423e-07 8.08613e-07)
(-1.27205e-07 -1.00822e-06 9.23637e-07)
(-1.65751e-07 -1.09721e-06 1.03913e-06)
(-2.08484e-07 -1.18214e-06 1.15589e-06)
(-2.59176e-07 -1.26391e-06 1.27411e-06)
(-3.27926e-07 -1.34351e-06 1.39097e-06)
(-4.26503e-07 -1.41361e-06 1.49186e-06)
(-5.92993e-07 -1.44089e-06 1.53222e-06)
(0 0 0)
(1.65193e-08 -1.14662e-07 8.39846e-08)
(2.89152e-08 -2.21604e-07 1.63988e-07)
(3.6002e-08 -3.25955e-07 2.45307e-07)
(3.71013e-08 -4.3113e-07 3.31849e-07)
(3.21479e-08 -5.39033e-07 4.26328e-07)
(2.17732e-08 -6.49724e-07 5.302e-07)
(7.28296e-09 -7.61325e-07 6.43133e-07)
(-9.68513e-09 -8.71206e-07 7.62866e-07)
(-2.75035e-08 -9.77423e-07 8.85892e-07)
(-4.45295e-08 -1.07918e-06 1.00944e-06)
(-5.88921e-08 -1.17681e-06 1.13322e-06)
(-6.87494e-08 -1.27138e-06 1.25947e-06)
(-7.29677e-08 -1.36499e-06 1.39103e-06)
(-7.25237e-08 -1.46098e-06 1.52798e-06)
(-7.4306e-08 -1.55256e-06 1.65382e-06)
(-1.72197e-07 -1.68291e-06 1.71269e-06)
(0 0 0)
(2.17379e-08 -1.17789e-07 9.09532e-08)
(3.90843e-08 -2.276e-07 1.77408e-07)
(5.12069e-08 -3.34671e-07 2.64913e-07)
(5.77806e-08 -4.42464e-07 3.57484e-07)
(5.91363e-08 -5.52876e-07 4.5787e-07)
(5.63076e-08 -6.65922e-07 5.67527e-07)
(5.09214e-08 -7.79758e-07 6.8607e-07)
(4.48269e-08 -8.9199e-07 8.10972e-07)
(3.99283e-08 -1.00097e-06 9.38309e-07)
(3.85575e-08 -1.10598e-06 1.0649e-06)
(4.3824e-08 -1.20684e-06 1.1905e-06)
(5.95552e-08 -1.3035e-06 1.31807e-06)
(9.08761e-08 -1.39584e-06 1.45201e-06)
(1.46308e-07 -1.48201e-06 1.59388e-06)
(2.28315e-07 -1.54652e-06 1.72438e-06)
(4.44569e-07 -1.55548e-06 1.81169e-06)
(0 0 0)
(0 0 0)
(0 0 0)
(0 0 0)
(0 0 0)
(0 0 0)
(0 0 0)
(0 0 0)
(0 0 0)
(0 0 0)
(0 0 0)
(0 0 0)
(0 0 0)
(0 0 0)
(0 0 0)
(0 0 0)
(-5.35413e-07 -1.01909e-07 6.16772e-08)
(0 0 0)
(-8.01706e-10 -2.23026e-08 1.27346e-08)
(-2.40474e-09 -4.30903e-08 2.49309e-08)
(-5.48656e-09 -6.32039e-08 3.73935e-08)
(-1.06967e-08 -8.32125e-08 5.0695e-08)
(-1.87608e-08 -1.03627e-07 6.52929e-08)
(-3.0473e-08 -1.24697e-07 8.1504e-08)
(-4.66018e-08 -1.46017e-07 9.93007e-08)
(-6.79926e-08 -1.66734e-07 1.18302e-07)
(-9.58451e-08 -1.86131e-07 1.37922e-07)
(-1.32464e-07 -2.04045e-07 1.57887e-07)
(-1.82736e-07 -2.21084e-07 1.78531e-07)
(-2.55643e-07 -2.38481e-07 2.0039e-07)
(-3.67374e-07 -2.57788e-07 2.23394e-07)
(-5.46678e-07 -2.81663e-07 2.45923e-07)
(-8.06381e-07 -3.1275e-07 2.62826e-07)
(-1.10737e-06 -3.35408e-07 2.54186e-07)
(0 0 0)
(-1.25769e-09 -4.41082e-08 2.52556e-08)
(-4.0838e-09 -8.51827e-08 4.94312e-08)
(-9.76291e-09 -1.25011e-07 7.41403e-08)
(-1.95108e-08 -1.64853e-07 1.00573e-07)
(-3.46264e-08 -2.05687e-07 1.29647e-07)
(-5.64464e-08 -2.47822e-07 1.61917e-07)
(-8.6226e-08 -2.90403e-07 1.97312e-07)
(-1.25209e-07 -3.31826e-07 2.35022e-07)
(-1.7506e-07 -3.70703e-07 2.73854e-07)
(-2.39065e-07 -4.06609e-07 3.13294e-07)
(-3.23332e-07 -4.40215e-07 3.53579e-07)
(-4.36745e-07 -4.72709e-07 3.94768e-07)
(-5.89908e-07 -5.04923e-07 4.35591e-07)
(-7.89661e-07 -5.37281e-07 4.71991e-07)
(-1.00505e-06 -5.68282e-07 4.95946e-07)
(-1.1463e-06 -5.96592e-07 5.10535e-07)
(0 0 0)
(-1.0287e-09 -6.4601e-08 3.72787e-08)
(-4.31266e-09 -1.24776e-07 7.2944e-08)
(-1.15993e-08 -1.83298e-07 1.09412e-07)
(-2.44962e-08 -2.4213e-07 1.48491e-07)
(-4.46018e-08 -3.02612e-07 1.91524e-07)
(-7.34479e-08 -3.6501e-07 2.39265e-07)
(-1.12339e-07 -4.28054e-07 2.91572e-07)
(-1.62326e-07 -4.89502e-07 3.47196e-07)
(-2.24886e-07 -5.47454e-07 4.04521e-07)
(-3.03039e-07 -6.01172e-07 4.6266e-07)
(-4.01716e-07 -6.51055e-07 5.21323e-07)
(-5.26507e-07 -6.97908e-07 5.79963e-07)
(-6.8076e-07 -7.42111e-07 6.36651e-07)
(-8.58876e-07 -7.83856e-07 6.87199e-07)
(-1.02536e-06 -8.21427e-07 7.24063e-07)
(-1.13378e-06 -8.53009e-07 7.49073e-07)
(0 0 0)
(1.38446e-10 -8.29225e-08 4.85113e-08)
(-2.54283e-09 -1.60225e-07 9.48889e-08)
(-1.00608e-08 -2.35602e-07 1.42299e-07)
(-2.41671e-08 -3.11623e-07 1.93122e-07)
(-4.64448e-08 -3.89884e-07 2.49078e-07)
(-7.82548e-08 -4.70581e-07 3.11085e-07)
(-1.20503e-07 -5.52094e-07 3.78882e-07)
(-1.73688e-07 -6.31749e-07 4.5099e-07)
(-2.38631e-07 -7.07289e-07 5.25403e-07)
(-3.17442e-07 -7.7766e-07 6.00636e-07)
(-4.13509e-07 -8.42997e-07 6.75889e-07)
(-5.30297e-07 -9.03798e-07 7.5019e-07)
(-6.69516e-07 -9.60156e-07 8.21232e-07)
(-8.26932e-07 -1.01214e-06 8.84587e-07)
(-9.76267e-07 -1.05706e-06 9.31819e-07)
(-1.08368e-06 -1.09481e-06 9.63448e-07)
(0 0 0)
(2.39796e-09 -9.82942e-08 5.8707e-08)
(1.54178e-09 -1.89993e-07 1.14773e-07)
(-4.6331e-09 -2.79556e-07 1.72019e-07)
(-1.77699e-08 -3.70013e-07 2.33312e-07)
(-3.91662e-08 -4.63132e-07 3.00674e-07)
(-6.9727e-08 -5.59045e-07 3.75148e-07)
(-1.09681e-07 -6.55871e-07 4.56418e-07)
(-1.58754e-07 -7.50691e-07 5.42837e-07)
(-2.16906e-07 -8.41063e-07 6.32002e-07)
(-2.85098e-07 -9.25731e-07 7.21845e-07)
(-3.65357e-07 -1.00475e-06 8.11298e-07)
(-4.60429e-07 -1.0786e-06 8.9944e-07)
(-5.74074e-07 -1.14741e-06 9.84029e-07)
(-7.09806e-07 -1.21072e-06 1.06039e-06)
(-8.53792e-07 -1.26188e-06 1.11836e-06)
(-9.74532e-07 -1.29992e-06 1.15651e-06)
(0 0 0)
(5.77693e-09 -1.10066e-07 6.76913e-08)
(7.97515e-09 -2.12776e-07 1.32243e-07)
(4.69806e-09 -3.13142e-07 1.98003e-07)
(-5.40796e-09 -4.14507e-07 2.68209e-07)
(-2.32035e-08 -5.18754e-07 3.45094e-07)
(-4.89561e-08 -6.2592e-07 4.29772e-07)
(-8.21461e-08 -7.33968e-07 5.21944e-07)
(-1.21715e-07 -8.39892e-07 6.19764e-07)
(-1.66679e-07 -9.41192e-07 7.20411e-07)
(-2.16683e-07 -1.03659e-06 8.21476e-07)
(-2.72109e-07 -1.12618e-06 9.21886e-07)
(-3.34518e-07 -1.21075e-06 1.02128e-06)
(-4.08395e-07 -1.29161e-06 1.11824e-06)
(-5.02543e-07 -1.37025e-06 1.20833e-06)
(-6.18474e-07 -1.43932e-06 1.27879e-06)
(-7.60987e-07 -1.45771e-06 1.32571e-06)
(0 0 0)
(1.01555e-08 -1.1771e-07 7.53442e-08)
(1.64844e-08 -2.27531e-07 1.47057e-07)
(1.74058e-08 -3.348e-07 2.19867e-07)
(1.19414e-08 -4.43035e-07 2.97235e-07)
(-2.67885e-10 -5.54133e-07 3.81501e-07)
(-1.88706e-08 -6.68065e-07 4.73839e-07)
(-4.27237e-08 -7.82717e-07 5.73882e-07)
(-7.01235e-08 -8.95081e-07 6.79568e-07)
(-9.92875e-08 -1.00277e-06 7.87786e-07)
(-1.28468e-07 -1.10451e-06 8.95831e-07)
(-1.56052e-07 -1.20018e-06 1.00278e-06)
(-1.81056e-07 -1.29047e-06 1.1091e-06)
(-2.0351e-07 -1.37722e-06 1.21468e-06)
(-2.23739e-07 -1.46334e-06 1.31612e-06)
(-2.4002e-07 -1.54275e-06 1.39828e-06)
(-3.16618e-07 -1.66206e-06 1.45079e-06)
(0 0 0)
(1.5279e-08 -1.20838e-07 8.15805e-08)
(2.65075e-08 -2.33539e-07 1.59056e-07)
(3.24895e-08 -3.43531e-07 2.37361e-07)
(3.26442e-08 -4.54344e-07 3.20044e-07)
(2.70603e-08 -5.67843e-07 4.09458e-07)
(1.65422e-08 -6.8393e-07 5.06743e-07)
(2.62203e-09 -8.00517e-07 6.11456e-07)
(-1.2688e-08 -9.14752e-07 7.21272e-07)
(-2.70767e-08 -1.02441e-06 8.32819e-07)
(-3.7869e-08 -1.12815e-06 9.43253e-07)
(-4.20848e-08 -1.22515e-06 1.05153e-06)
(-3.68121e-08 -1.31478e-06 1.15861e-06)
(-1.83481e-08 -1.3963e-06 1.26544e-06)
(2.20586e-08 -1.46693e-06 1.36947e-06)
(9.3318e-08 -1.51262e-06 1.45411e-06)
(3.28275e-07 -1.51054e-06 1.51349e-06)
(0 0 0)
(0 0 0)
(0 0 0)
(0 0 0)
(0 0 0)
(0 0 0)
(0 0 0)
(0 0 0)
(0 0 0)
(0 0 0)
(0 0 0)
(0 0 0)
(0 0 0)
(0 0 0)
(0 0 0)
(0 0 0)
(-5.62286e-07 -1.16978e-07 5.53342e-08)
(0 0 0)
(-2.09052e-09 -2.29413e-08 1.0806e-08)
(-4.95218e-09 -4.43238e-08 2.11492e-08)
(-9.37524e-09 -6.50259e-08 3.17004e-08)
(-1.60987e-08 -8.56691e-08 4.29363e-08)
(-2.59581e-08 -1.06816e-07 5.52315e-08)
(-3.98807e-08 -1.28765e-07 6.88594e-08)
(-5.87569e-08 -1.51156e-07 8.38837e-08)
(-8.34711e-08 -1.73157e-07 9.99555e-08)
(-1.15309e-07 -1.94124e-07 1.16448e-07)
(-1.56796e-07 -2.14038e-07 1.33162e-07)
(-2.13099e-07 -2.33852e-07 1.50361e-07)
(-2.93548e-07 -2.55344e-07 1.68303e-07)
(-4.14765e-07 -2.80613e-07 1.868e-07)
(-6.054e-07 -3.12594e-07 2.05002e-07)
(-8.73649e-07 -3.51442e-07 2.20746e-07)
(-1.17266e-06 -3.7287e-07 2.19152e-07)
(0 0 0)
(-3.76661e-09 -4.53367e-08 2.14277e-08)
(-9.03945e-09 -8.75577e-08 4.19206e-08)
(-1.73092e-08 -1.28528e-07 6.2826e-08)
(-2.99657e-08 -1.69593e-07 8.51326e-08)
(-4.85079e-08 -2.11814e-07 1.09606e-07)
(-7.45085e-08 -2.55582e-07 1.36767e-07)
(-1.09398e-07 -3.001e-07 1.66634e-07)
(-1.54516e-07 -3.4383e-07 1.98427e-07)
(-2.11667e-07 -3.85482e-07 2.31058e-07)
(-2.84252e-07 -4.24735e-07 2.6407e-07)
(-3.78626e-07 -4.62749e-07 2.97533e-07)
(-5.03841e-07 -5.0138e-07 3.31275e-07)
(-6.70029e-07 -5.41735e-07 3.63996e-07)
(-8.8152e-07 -5.83482e-07 3.92906e-07)
(-1.09916e-06 -6.21036e-07 4.13817e-07)
(-1.22777e-06 -6.46808e-07 4.30329e-07)
(0 0 0)
(-4.62694e-09 -6.63509e-08 3.16202e-08)
(-1.14058e-08 -1.2816e-07 6.18374e-08)
(-2.23679e-08 -1.88313e-07 9.26669e-08)
(-3.93519e-08 -2.48869e-07 1.25617e-07)
(-6.42199e-08 -3.11259e-07 1.61825e-07)
(-9.87931e-08 -3.75833e-07 2.01977e-07)
(-1.44554e-07 -4.4136e-07 2.45982e-07)
(-2.02708e-07 -5.05682e-07 2.928e-07)
(-2.74739e-07 -5.66942e-07 3.40946e-07)
(-3.63648e-07 -6.24505e-07 3.89502e-07)
(-4.74422e-07 -6.79186e-07 4.38098e-07)
(-6.12313e-07 -7.32273e-07 4.8601e-07)
(-7.79393e-07 -7.8424e-07 5.31425e-07)
(-9.66319e-07 -8.3438e-07 5.71538e-07)
(-1.12953e-06 -8.77657e-07 6.02584e-07)
(-1.22062e-06 -9.09147e-07 6.26462e-07)
(0 0 0)
(-4.36077e-09 -8.51032e-08 4.11369e-08)
(-1.13916e-08 -1.64449e-07 8.04126e-08)
(-2.3442e-08 -2.4186e-07 1.20469e-07)
(-4.25269e-08 -3.19992e-07 1.63298e-07)
(-7.05295e-08 -4.00531e-07 2.10346e-07)
(-1.09113e-07 -4.83742e-07 2.62387e-07)
(-1.59377e-07 -5.68007e-07 3.1928e-07)
(-2.21835e-07 -6.50624e-07 3.7981e-07)
(-2.97232e-07 -7.29364e-07 4.42159e-07)
(-3.87545e-07 -8.03243e-07 5.04852e-07)
(-4.95933e-07 -8.72609e-07 5.66951e-07)
(-6.2529e-07 -9.38282e-07 6.27373e-07)
(-7.75707e-07 -1.00044e-06 6.84086e-07)
(-9.39059e-07 -1.05864e-06 7.34304e-07)
(-1.08195e-06 -1.10788e-06 7.73643e-07)
(-1.17037e-06 -1.14597e-06 8.02713e-07)
(0 0 0)
(-2.78102e-09 -1.00802e-07 4.9774e-08)
(-8.61761e-09 -1.94856e-07 9.72417e-08)
(-1.99222e-08 -2.8675e-07 1.45594e-07)
(-3.86158e-08 -3.79586e-07 1.97224e-07)
(-6.63159e-08 -4.75221e-07 2.53811e-07)
(-1.04199e-07 -5.73803e-07 3.162e-07)
(-1.52643e-07 -6.73379e-07 3.84194e-07)
(-2.113e-07 -7.70909e-07 4.56439e-07)
(-2.79917e-07 -8.63898e-07 5.3089e-07)
(-3.59189e-07 -9.51079e-07 6.05541e-07)
(-4.50794e-07 -1.03253e-06 6.79002e-07)
(-5.56899e-07 -1.10888e-06 7.50136e-07)
(-6.79804e-07 -1.18045e-06 8.16927e-07)
(-8.19578e-07 -1.2466e-06 8.76529e-07)
(-9.56044e-07 -1.29914e-06 9.2337e-07)
(-1.058e-06 -1.33551e-06 9.56575e-07)
(0 0 0)
(1.39622e-10 -1.1279e-07 5.73862e-08)
(-3.04686e-09 -2.1806e-07 1.12031e-07)
(-1.18046e-08 -3.20942e-07 1.67566e-07)
(-2.77667e-08 -4.24847e-07 2.26676e-07)
(-5.20796e-08 -5.317e-07 2.91187e-07)
(-8.52638e-08 -6.41544e-07 3.62003e-07)
(-1.26879e-07 -7.52188e-07 4.3884e-07)
(-1.7571e-07 -8.60374e-07 5.20228e-07)
(-2.30469e-07 -9.63464e-07 6.03941e-07)
(-2.90343e-07 -1.06002e-06 6.87599e-07)
(-3.55332e-07 -1.15001e-06 7.69647e-07)
(-4.26633e-07 -1.23427e-06 8.49143e-07)
(-5.07715e-07 -1.31436e-06 9.24422e-07)
(-6.04539e-07 -1.39194e-06 9.92687e-07)
(-7.12866e-07 -1.45924e-06 1.04669e-06)
(-8.38036e-07 -1.47388e-06 1.0836e-06)
(0 0 0)
(4.25852e-09 -1.20534e-07 6.38702e-08)
(4.99005e-09 -2.33014e-07 1.2457e-07)
(2.7764e-10 -3.42888e-07 1.86036e-07)
(-1.11064e-08 -4.53703e-07 2.51128e-07)
(-2.97717e-08 -5.67392e-07 3.21746e-07)
(-5.55862e-08 -6.83889e-07 3.98777e-07)
(-8.74227e-08 -8.00865e-07 4.81861e-07)
(-1.23409e-07 -9.15031e-07 5.69377e-07)
(-1.61262e-07 -1.02366e-06 6.58912e-07)
(-1.9865e-07 -1.12519e-06 7.48044e-07)
(-2.33629e-07 -1.21932e-06 8.35208e-07)
(-2.65077e-07 -1.30667e-06 9.19683e-07)
(-2.92587e-07 -1.38941e-06 1.00043e-06)
(-3.1398e-07 -1.47107e-06 1.07497e-06)
(-3.21919e-07 -1.54689e-06 1.13477e-06)
(-3.82834e-07 -1.66785e-06 1.17489e-06)
(0 0 0)
(9.27885e-09 -1.23658e-07 6.91489e-08)
(1.4844e-08 -2.39022e-07 1.34704e-07)
(1.51923e-08 -3.51608e-07 2.00768e-07)
(9.52566e-09 -4.6496e-07 2.70258e-07)
(-2.27391e-09 -5.80938e-07 3.45054e-07)
(-1.95774e-08 -6.99409e-07 4.25997e-07)
(-4.08646e-08 -8.18056e-07 5.12587e-07)
(-6.3861e-08 -9.33649e-07 6.03028e-07)
(-8.56644e-08 -1.04356e-06 6.94843e-07)
(-1.02911e-07 -1.14605e-06 7.85675e-07)
(-1.12349e-07 -1.24007e-06 8.74045e-07)
(-1.11278e-07 -1.32489e-06 9.5927e-07)
(-9.61105e-08 -1.40022e-06 1.0406e-06)
(-5.63772e-08 -1.46409e-06 1.11581e-06)
(2.12448e-08 -1.50457e-06 1.17518e-06)
(2.80572e-07 -1.50566e-06 1.21971e-06)
(0 0 0)
(0 0 0)
(0 0 0)
(0 0 0)
(0 0 0)
(0 0 0)
(0 0 0)
(0 0 0)
(0 0 0)
(0 0 0)
(0 0 0)
(0 0 0)
(0 0 0)
(0 0 0)
(0 0 0)
(0 0 0)
(-5.73972e-07 -1.21479e-07 4.32999e-08)
(0 0 0)
(-3.21528e-09 -2.35088e-08 8.46475e-09)
(-7.16477e-09 -4.53939e-08 1.65525e-08)
(-1.27233e-08 -6.65635e-08 2.47693e-08)
(-2.06986e-08 -8.76809e-08 3.34735e-08)
(-3.20321e-08 -1.09459e-07 4.29635e-08)
(-4.77315e-08 -1.32249e-07 5.34858e-08)
(-6.86554e-08 -1.55612e-07 6.51263e-08)
(-9.56685e-08 -1.78796e-07 7.75483e-08)
(-1.29861e-07 -2.01038e-07 9.02909e-08)
(-1.73486e-07 -2.22152e-07 1.03222e-07)
(-2.3175e-07 -2.43424e-07 1.16453e-07)
(-3.14029e-07 -2.66899e-07 1.30141e-07)
(-4.37358e-07 -2.94587e-07 1.44166e-07)
(-6.30775e-07 -3.2901e-07 1.58213e-07)
(-9.01579e-07 -3.68864e-07 1.7098e-07)
(-1.19849e-06 -3.87075e-07 1.69632e-07)
(0 0 0)
(-5.95438e-09 -4.64259e-08 1.67832e-08)
(-1.33391e-08 -8.96303e-08 3.28011e-08)
(-2.38069e-08 -1.31526e-07 4.90733e-08)
(-3.88833e-08 -1.73577e-07 6.63535e-08)
(-6.02313e-08 -2.16995e-07 8.52541e-08)
(-8.95462e-08 -2.62219e-07 1.06228e-07)
(-1.28272e-07 -3.08475e-07 1.29315e-07)
(-1.77618e-07 -3.54214e-07 1.53922e-07)
(-2.38906e-07 -3.97873e-07 1.79205e-07)
(-3.15244e-07 -4.39152e-07 2.04711e-07)
(-4.12905e-07 -4.79632e-07 2.30398e-07)
(-5.40681e-07 -5.21354e-07 2.56041e-07)
(-7.09062e-07 -5.65218e-07 2.80679e-07)
(-9.21906e-07 -6.09943e-07 3.02589e-07)
(-1.13811e-06 -6.47972e-07 3.1889e-07)
(-1.25789e-06 -6.70654e-07 3.30496e-07)
(0 0 0)
(-7.7588e-09 -6.79045e-08 2.4762e-08)
(-1.75528e-08 -1.31136e-07 4.83716e-08)
(-3.16328e-08 -1.92659e-07 7.23596e-08)
(-5.20145e-08 -2.54636e-07 9.78822e-08)
(-8.07583e-08 -3.18616e-07 1.25834e-07)
(-1.19829e-07 -3.8501e-07 1.5679e-07)
(-1.70728e-07 -4.52596e-07 1.90747e-07)
(-2.3434e-07 -5.19142e-07 2.26973e-07)
(-3.11715e-07 -5.82731e-07 2.64291e-07)
(-4.05419e-07 -6.42738e-07 3.01799e-07)
(-5.1998e-07 -7.00211e-07 3.3901e-07)
(-6.6027e-07 -7.56631e-07 3.75261e-07)
(-8.28524e-07 -8.12188e-07 4.09262e-07)
(-1.01458e-06 -8.65263e-07 4.39302e-07)
(-1.17326e-06 -9.09219e-07 4.62747e-07)
(-1.25345e-06 -9.38942e-07 4.79058e-07)
(0 0 0)
(-8.2698e-09 -8.70506e-08 3.22094e-08)
(-1.90476e-08 -1.68196e-07 6.28901e-08)
(-3.49338e-08 -2.47338e-07 9.40523e-08)
(-5.81474e-08 -3.27208e-07 1.2722e-07)
(-9.08026e-08 -4.09596e-07 1.63509e-07)
(-1.34708e-07 -4.94799e-07 2.03552e-07)
(-1.90847e-07 -5.81102e-07 2.4734e-07)
(-2.59464e-07 -6.65791e-07 2.94028e-07)
(-3.40811e-07 -7.46714e-07 3.42311e-07)
(-4.3623e-07 -8.22893e-07 3.90742e-07)
(-5.48311e-07 -8.94762e-07 4.38162e-07)
(-6.79406e-07 -9.63215e-07 4.83667e-07)
(-8.29735e-07 -1.02827e-06 5.25855e-07)
(-9.90433e-07 -1.08881e-06 5.63075e-07)
(-1.12717e-06 -1.13861e-06 5.92212e-07)
(-1.20417e-06 -1.17549e-06 6.11813e-07)
(0 0 0)
(-7.27539e-09 -1.03049e-07 3.89696e-08)