/*--------------------------------*- C++ -*----------------------------------*\
| =========                 |                                                 |
| \\      /  F ield         | OpenFOAM: The Open Source CFD Toolbox           |
|  \\    /   O peration     | Version:  v1912                                 |
|   \\  /    A nd           | Website:  www.openfoam.com                      |
|    \\/     M anipulation  |                                                 |
\*---------------------------------------------------------------------------*/
FoamFile
{
    version     2.0;
    format      ascii;
    class       volVectorField;
    location    "0.07/fluid";
    object      U;
}
// * * * * * * * * * * * * * * * * * * * * * * * * * * * * * * * * * * * * * //

dimensions      [0 1 -1 0 0 0 0];


internalField   nonuniform List<vector> 
14592
(
(0.0932766 0.0082967 -0.00107241)
(0.0887791 0.00355796 -0.00162632)
(0.0856524 0.00175619 -0.00206822)
(0.0838904 0.000904076 -0.00263264)
(0.082786 0.000606657 -0.00341549)
(0.0817377 0.000516622 -0.00445975)
(0.0806682 0.000520048 -0.00583358)
(0.0794484 0.00057579 -0.00764044)
(0.0779911 0.000667455 -0.0100341)
(0.0761962 0.000786982 -0.0132466)
(0.0738933 0.000926624 -0.0176406)
(0.0710314 0.00106069 -0.0238245)
(0.0660158 0.00120228 -0.0327974)
(0.0611936 0.00110254 -0.0466148)
(0.0445377 0.0011494 -0.0686652)
(0.0288643 -0.000134385 -0.0900203)
(0.102913 0.00714209 -0.0013262)
(0.102452 0.00421464 -0.0020008)
(0.102233 0.00264912 -0.00252556)
(0.101088 0.00179333 -0.00318968)
(0.100163 0.00146427 -0.00411039)
(0.0990704 0.00139817 -0.00534136)
(0.0978653 0.00148948 -0.00696358)
(0.0964484 0.00169416 -0.00909942)
(0.0947327 0.00199333 -0.0119307)
(0.0926043 0.00237758 -0.0157315)
(0.0898587 0.00283625 -0.0209301)
(0.0864159 0.00333872 -0.0282435)
(0.0804372 0.00387212 -0.0388473)
(0.0744523 0.00420096 -0.0551499)
(0.0545347 0.00454665 -0.0810075)
(0.0355635 0.00325558 -0.105982)
(0.102035 0.0046521 -0.00130564)
(0.101937 0.00421861 -0.00197265)
(0.102442 0.00330811 -0.00249052)
(0.10172 0.00268758 -0.00314461)
(0.101107 0.00243973 -0.00405013)
(0.10022 0.00246281 -0.0052591)
(0.0991651 0.00269527 -0.00685031)
(0.0978712 0.00310677 -0.00894347)
(0.0962636 0.00368513 -0.0117172)
(0.0942299 0.00442618 -0.0154424)
(0.0915535 0.00532276 -0.0205447)
(0.088141 0.00634688 -0.0277424)
(0.082072 0.00746064 -0.038212)
(0.0759144 0.00846174 -0.054409)
(0.0554597 0.00933224 -0.0801576)
(0.0358489 0.00808854 -0.105386)
(0.101216 0.00369367 -0.0012527)
(0.101102 0.00394631 -0.0018985)
(0.101889 0.00344978 -0.00240029)
(0.101471 0.0030988 -0.00303252)
(0.101119 0.00301615 -0.00390532)
(0.100443 0.00318029 -0.00506734)
(0.0995725 0.00356918 -0.00659288)
(0.0984515 0.00417552 -0.00859553)
(0.0970154 0.00500434 -0.0112459)
(0.0951532 0.00606749 -0.0148046)
(0.0926371 0.00737461 -0.0196847)
(0.0893559 0.00891525 -0.0265916)
(0.0833108 0.0106591 -0.0366795)
(0.0770717 0.0124096 -0.0524373)
(0.0561773 0.0140388 -0.0775659)
(0.0359764 0.0126712 -0.102801)
(0.100888 0.00307761 -0.00118161)
(0.10072 0.00365536 -0.0017989)
(0.101599 0.00348995 -0.00227917)
(0.101375 0.00338027 -0.002882)
(0.101234 0.00347475 -0.0037106)
(0.100767 0.00379734 -0.00480892)
(0.100105 0.00435733 -0.00624476)
(0.0992021 0.00517066 -0.00812264)
(0.0980003 0.00626388 -0.0106006)
(0.0963912 0.00767318 -0.0139225)
(0.0941379 0.00943873 -0.018479)
(0.0911101 0.0115875 -0.024949)
(0.0852247 0.014124 -0.0344404)
(0.0790158 0.016879 -0.0494714)
(0.0576202 0.0196121 -0.0735177)
(0.036618 0.0181629 -0.0986483)
(0.100756 0.00267512 -0.00109739)
(0.100571 0.00336054 -0.00168089)
(0.101516 0.00340506 -0.0021356)
(0.101445 0.00348062 -0.00270336)
(0.101491 0.00373302 -0.00347898)
(0.10123 0.00420246 -0.00450054)
(0.100796 0.00491759 -0.00582738)
(0.100149 0.00591435 -0.00755182)
(0.0992426 0.00724298 -0.00981435)
(0.0979776 0.00897283 -0.0128334)
(0.0961175 0.0111968 -0.0169636)
(0.0935172 0.0140324 -0.0228366)
(0.0880079 0.0176225 -0.03148)
(0.0820183 0.0220854 -0.0454317)
(0.0600637 0.0273134 -0.0678241)
(0.0380095 0.0276568 -0.0928132)
(0.100716 0.00233022 -0.00100331)
(0.100556 0.00304101 -0.00154904)
(0.101585 0.00322755 -0.00197514)
(0.101652 0.00344464 -0.0025035)
(0.101874 0.00382757 -0.00321939)
(0.10182 0.00442028 -0.00415394)
(0.101627 0.00526251 -0.00535628)
(0.10127 0.00640517 -0.00690335)
(0.100719 0.00791903 -0.00891227)
(0.0999053 0.00990382 -0.011565)
(0.0986331 0.0125002 -0.0151572)
(0.0968133 0.0159094 -0.020225)
(0.0923674 0.0203556 -0.0276145)
(0.0877122 0.0262667 -0.0397028)
(0.0666179 0.0333863 -0.0588802)
(0.044253 0.0346756 -0.0824335)
(0.100724 0.00197464 -0.000903283)
(0.100625 0.00266351 -0.00140889)
(0.101762 0.00294783 -0.00180457)
(0.101965 0.00327241 -0.00229096)
(0.102357 0.00375629 -0.00294308)
(0.102506 0.00444034 -0.0037844)
(0.102561 0.00536912 -0.00485258)
(0.102511 0.00660386 -0.00620703)
(0.102353 0.00823399 -0.00793766)
(0.102049 0.0103971 -0.0101835)
(0.101454 0.0133195 -0.0131725)
(0.100492 0.0174276 -0.0173321)
(0.0972045 0.0233905 -0.0233322)
(0.0937597 0.0334294 -0.0333941)
(0.0733914 0.0492483 -0.0492199)
(0.0526958 0.0721846 -0.0721518)
(0.09321 0.00830427 -0.00115921)
(0.0885759 0.0035709 -0.00171096)
(0.0852571 0.00177042 -0.00211813)
(0.0833125 0.000921572 -0.00263908)
(0.0819909 0.000629187 -0.00337186)
(0.0806797 0.000546343 -0.00435902)
(0.0792742 0.000559785 -0.00566397)
(0.0776122 0.000629295 -0.00737899)
(0.0755632 0.000739809 -0.00963415)
(0.0729721 0.000885593 -0.0126096)
(0.0696068 0.00106306 -0.0165497)
(0.0653678 0.00125552 -0.0217684)
(0.0587589 0.00149592 -0.0286724)
(0.0519985 0.00158195 -0.0373731)
(0.035267 0.00193707 -0.0484157)
(0.0185741 0.00119578 -0.0484599)
(0.102834 0.0071666 -0.00141757)
(0.102214 0.00425054 -0.00208908)
(0.10177 0.00269161 -0.00257469)
(0.100408 0.0018459 -0.00318925)
(0.0992246 0.00153206 -0.00405252)
(0.0978196 0.0014877 -0.00521766)
(0.0962149 0.00160924 -0.0067602)
(0.0942721 0.00185529 -0.00878974)
(0.0918521 0.00221044 -0.0114609)
(0.088774 0.00266985 -0.0149886)
(0.0847558 0.00322913 -0.0196649)
(0.0796522 0.00386624 -0.0258682)
(0.0717191 0.00458467 -0.0340888)
(0.0633572 0.00516424 -0.044496)
(0.0431589 0.00585904 -0.0576618)
(0.0229468 0.00482492 -0.0577825)
(0.101958 0.00469828 -0.00139827)
(0.101703 0.0042837 -0.00206265)
(0.101987 0.0033866 -0.00254148)
(0.101052 0.0027848 -0.00314619)
(0.100186 0.00256516 -0.00399466)
(0.0989938 0.00262867 -0.00513842)
(0.0975494 0.00291753 -0.00665092)
(0.0957422 0.00340645 -0.00863918)
(0.0934461 0.0040898 -0.0112549)
(0.090482 0.00497158 -0.0147095)
(0.086555 0.00605415 -0.0192929)
(0.0815062 0.00731843 -0.0253829)
(0.0734977 0.00873968 -0.0334706)
(0.0649827 0.0100849 -0.0437508)
(0.0442098 0.0113756 -0.0567793)
(0.0233068 0.0100006 -0.056959)
(0.101142 0.00375581 -0.00134706)
(0.100876 0.00403368 -0.00199095)
(0.101449 0.00355566 -0.0024542)
(0.100827 0.0032302 -0.00303777)
(0.100234 0.00318601 -0.00385458)
(0.0992676 0.0034055 -0.00495297)
(0.0980263 0.00387209 -0.00640207)
(0.0964175 0.00458599 -0.00830321)
(0.0943264 0.0055622 -0.0108006)
(0.0915769 0.00682538 -0.0140969)
(0.0878629 0.0084005 -0.0184715)
(0.0830093 0.0102915 -0.0242938)
(0.0750774 0.0124889 -0.0320436)
(0.0665488 0.0147416 -0.0419556)
(0.0452797 0.0169906 -0.0545402)
(0.0237076 0.0153451 -0.05486)
(0.100817 0.00315483 -0.00127827)
(0.100504 0.00376372 -0.00189462)
(0.10118 0.00362155 -0.00233705)
(0.100763 0.00354386 -0.00289219)
(0.100396 0.00368667 -0.00366628)
(0.0996589 0.00407912 -0.00470316)
(0.0986537 0.00473787 -0.00606585)
(0.0972991 0.00568922 -0.00784722)
(0.0954908 0.00697405 -0.0101803)
(0.0930582 0.00864767 -0.0132532)
(0.0896875 0.0107745 -0.017328)
(0.0851883 0.0134064 -0.0227578)
(0.0775029 0.0165829 -0.0299981)
(0.069121 0.020059 -0.0393406)
(0.0472595 0.0237031 -0.0512106)
(0.0247589 0.0218355 -0.0517302)
(0.100688 0.00276372 -0.00119683)
(0.100366 0.00348481 -0.00178049)
(0.101122 0.00355615 -0.00219821)
(0.100872 0.0036687 -0.00271945)
(0.100711 0.00397713 -0.00344237)
(0.100205 0.00452796 -0.00440522)
(0.0994604 0.00535902 -0.0056631)
(0.0984082 0.00651952 -0.00729768)
(0.0969591 0.00807889 -0.00942643)
(0.0949578 0.0101338 -0.0122162)
(0.0920945 0.0128152 -0.0159021)
(0.088171 0.0162875 -0.0208074)
(0.0809948 0.0207678 -0.0273456)
(0.0730106 0.0263223 -0.0358794)
(0.0504547 0.0330562 -0.0467036)
(0.0267144 0.0330805 -0.0475026)
(0.100652 0.00242666 -0.00110585)
(0.100365 0.00317622 -0.00165302)
(0.101217 0.00339204 -0.00204308)
(0.101122 0.00364956 -0.00252625)
(0.101159 0.00409387 -0.00319151)
(0.100888 0.00477612 -0.00407056)
(0.100424 0.00574661 -0.00520897)
(0.0997173 0.007072 -0.00667451)
(0.098704 0.00884633 -0.00856435)
(0.0972683 0.0112035 -0.0110158)
(0.0951563 0.0143324 -0.0142209)
(0.0922516 0.0184968 -0.0184453)
(0.0864208 0.0240111 -0.0240045)
(0.0802137 0.0312481 -0.0312722)
(0.0585357 0.0402219 -0.0402601)
(0.0343589 0.0409634 -0.0410006)
(0.100664 0.00207489 -0.00100915)
(0.100448 0.00280401 -0.00151754)
(0.101424 0.00311875 -0.00187821)
(0.101482 0.00348532 -0.00232084)
(0.101711 0.00403305 -0.00292458)
(0.101674 0.00481044 -0.00371394)
(0.101501 0.00587351 -0.00472386)
(0.101164 0.00730107 -0.00600638)
(0.100632 0.00920975 -0.00763538)
(0.0998344 0.01178 -0.00971404)
(0.098577 0.0153061 -0.0123859)
(0.0967709 0.020323 -0.0158545)
(0.0923379 0.0276764 -0.0203446)
(0.0876959 0.0397436 -0.0262854)
(0.0666131 0.0589174 -0.033418)
(0.0442554 0.0824803 -0.0347061)
(0.093152 0.00831144 -0.00115107)
(0.0883944 0.00358309 -0.00167284)
(0.0848996 0.00178388 -0.00203763)
(0.0827838 0.000938137 -0.00250319)
(0.0812576 0.000650499 -0.0031629)
(0.0796998 0.000574431 -0.00405559)
(0.0779832 0.000597286 -0.00523628)
(0.0759185 0.000679572 -0.00678218)
(0.0733404 0.000807187 -0.00879801)
(0.0700469 0.000975336 -0.0114222)
(0.0657482 0.00118108 -0.0148317)
(0.0602488 0.00140798 -0.0192314)
(0.0521127 0.00168263 -0.0249008)
(0.0432813 0.00180536 -0.0317065)
(0.0261578 0.00214392 -0.0400928)
(0.0106588 0.00139008 -0.0395529)
(0.102765 0.00718981 -0.00139848)
(0.102 0.00428448 -0.00203311)
(0.101351 0.00273183 -0.0024695)
(0.0997849 0.00189565 -0.0030198)
(0.0983582 0.00159617 -0.00379806)
(0.0966599 0.00157231 -0.00485284)
(0.0946848 0.0017223 -0.00624983)
(0.0922627 0.00200706 -0.00808096)
(0.0892127 0.00241406 -0.010471)
(0.0852979 0.00294176 -0.013585)
(0.0801677 0.00358877 -0.0176347)
(0.0735664 0.00433505 -0.0228656)
(0.0638145 0.00518115 -0.0296071)
(0.0530251 0.00589617 -0.037724)
(0.0323357 0.00670402 -0.0476547)
(0.0135363 0.00559964 -0.0469462)
(0.101891 0.00474201 -0.00138101)
(0.101494 0.00434531 -0.00200919)
(0.101574 0.00346088 -0.00243926)
(0.10044 0.00287679 -0.00298042)
(0.0993368 0.00268377 -0.00374499)
(0.0978576 0.00278536 -0.00478007)
(0.0960519 0.00312723 -0.00614953)
(0.0937769 0.0036886 -0.00794303)
(0.090865 0.00446958 -0.0102828)
(0.0870808 0.00548092 -0.0133313)
(0.0820592 0.00673209 -0.0172985)
(0.075528 0.00820937 -0.0224304)
(0.0657023 0.00989263 -0.0290598)
(0.0547533 0.0115181 -0.0370713)
(0.0334313 0.013123 -0.0469008)
(0.0138899 0.0116037 -0.0462623)
(0.101077 0.00381464 -0.00133364)
(0.100674 0.00411637 -0.00194289)
(0.101051 0.00365586 -0.00235856)
(0.100238 0.0033545 -0.00288022)
(0.0994178 0.00334659 -0.00361564)
(0.0981785 0.00361817 -0.00460906)
(0.0965939 0.00415768 -0.00592051)
(0.0945408 0.00497204 -0.00763468)
(0.0918642 0.00608504 -0.00986752)
(0.0883326 0.00753228 -0.0127742)
(0.0835695 0.00935129 -0.0165571)
(0.0772861 0.0115573 -0.0214565)
(0.0675767 0.0141559 -0.0278001)
(0.0566573 0.016851 -0.0355087)
(0.0347672 0.0196327 -0.044996)
(0.0144413 0.0177976 -0.0445076)
(0.100754 0.00322792 -0.00127)
(0.100311 0.00386627 -0.00185378)
(0.100801 0.00374605 -0.00225024)
(0.100204 0.00369856 -0.0027457)
(0.0996251 0.00388691 -0.00344183)
(0.0986336 0.00434504 -0.00437884)
(0.0973099 0.00509629 -0.00561135)
(0.0955442 0.00617623 -0.00721678)
(0.0931942 0.00763827 -0.00930159)
(0.0900364 0.00955422 -0.0120093)
(0.0856872 0.0120091 -0.015529)
(0.0798449 0.015076 -0.0200897)
(0.0704565 0.0188258 -0.026005)
(0.0597753 0.0229585 -0.0332467)
(0.037194 0.0274336 -0.0421804)
(0.0157521 0.0253477 -0.0418941)
(0.100629 0.00284757 -0.00119464)
(0.100184 0.00360239 -0.00174822)
(0.100766 0.00369907 -0.00212189)
(0.10035 0.00384651 -0.00258613)
(0.0999937 0.0042077 -0.00323524)
(0.0992564 0.00483495 -0.00410445)
(0.0982247 0.00577436 -0.00524143)
(0.0968036 0.00708696 -0.006714)
(0.0948701 0.00885887 -0.00861562)
(0.0922209 0.0112102 -0.0110728)
(0.0884802 0.0143043 -0.0142535)
(0.0833455 0.0183459 -0.0183659)
(0.0745917 0.0236185 -0.0236943)
(0.0644729 0.0301547 -0.0302737)
(0.0410774 0.0382429 -0.0383856)
(0.0181208 0.0382029 -0.038344)
(0.100597 0.00251791 -0.0011105)
(0.100196 0.00330412 -0.00163034)
(0.100888 0.0035476 -0.0019785)
(0.100641 0.00384323 -0.00240772)
(0.100503 0.0043453 -0.00300389)
(0.100027 0.00511149 -0.00379646)
(0.0993124 0.00620166 -0.0048248)
(0.0982868 0.00769636 -0.0061449)
(0.0968601 0.00970995 -0.0078335)
(0.0948773 0.0124059 -0.00999361)
(0.0920299 0.0160161 -0.0127609)
(0.0881207 0.0208621 -0.016303)
(0.0809576 0.0273563 -0.0208378)
(0.0729877 0.0358602 -0.0264339)
(0.0504452 0.0466713 -0.033189)
(0.0267115 0.0474714 -0.0332107)
(0.100614 0.00216973 -0.00102108)
(0.100293 0.00293689 -0.00150508)
(0.101122 0.00328035 -0.00182615)
(0.101044 0.00368651 -0.00221808)
(0.10112 0.00429426 -0.00275783)
(0.100907 0.00515907 -0.00346846)
(0.100523 0.00634721 -0.00438018)
(0.0999226 0.00795288 -0.0055356)
(0.099057 0.0101162 -0.00699226)
(0.0978272 0.0130541 -0.00882578)
(0.0959979 0.0171199 -0.0111338)
(0.0934258 0.0229442 -0.0140369)
(0.0879429 0.0315548 -0.017679)
(0.081981 0.0454902 -0.0221808)
(0.0600512 0.0678876 -0.0274267)
(0.0380112 0.0928958 -0.027768)
(0.0931025 0.0083179 -0.00106016)
(0.088237 0.00359406 -0.001526)
(0.0845876 0.00179601 -0.00183939)
(0.0823196 0.000953073 -0.00223768)
(0.0806113 0.000669696 -0.00280393)
(0.0788363 0.000599698 -0.00357094)
(0.07685 0.000630953 -0.00458304)
(0.0744454 0.00072464 -0.00589975)
(0.0714377 0.000867502 -0.00759709)
(0.0676074 0.00105591 -0.00976679)
(0.0626633 0.00128817 -0.0125087)
(0.0564159 0.00155101 -0.0159012)
(0.0476561 0.00187091 -0.0200159)
(0.0382558 0.00206652 -0.024458)
(0.0221472 0.00247452 -0.0292949)
(0.00833684 0.00180811 -0.0270073)
(0.102706 0.00721076 -0.0012828)
(0.101815 0.0043151 -0.00184913)
(0.100984 0.00276809 -0.00222486)
(0.0992368 0.0019405 -0.00269635)
(0.0975939 0.0016539 -0.00336509)
(0.0956367 0.00164839 -0.00427221)
(0.0933405 0.00182374 -0.0054708)
(0.0905132 0.00214286 -0.00703187)
(0.0869504 0.00259567 -0.00904637)
(0.0823939 0.0031834 -0.0116244)
(0.0764901 0.00390747 -0.0148865)
(0.0689906 0.00475085 -0.0189295)
(0.0584735 0.00571386 -0.0238391)
(0.0469991 0.00656686 -0.0291718)
(0.0274722 0.00751355 -0.0349409)
(0.0106714 0.00640952 -0.0322092)
(0.101833 0.00478149 -0.00126769)
(0.101312 0.00440091 -0.00182846)
(0.101214 0.00352789 -0.00219865)
(0.0999022 0.00295971 -0.00266211)
(0.0985873 0.00279055 -0.00331889)
(0.0968555 0.00292619 -0.00420889)
(0.0947364 0.00331523 -0.00538365)
(0.0920663 0.00394073 -0.00691236)
(0.088654 0.00480745 -0.00888388)
(0.0842424 0.00593145 -0.0114063)
(0.0784625 0.00732732 -0.014599)
(0.0710478 0.00898466 -0.0185588)
(0.0604639 0.0108843 -0.0233745)
(0.0488334 0.0127378 -0.0286152)
(0.0286401 0.0145848 -0.0342941)
(0.0110658 0.0129443 -0.0316084)
(0.101021 0.00386775 -0.00122608)
(0.100498 0.004191 -0.00177023)
(0.100704 0.00374623 -0.00212782)
(0.0997204 0.00346651 -0.00257424)
(0.0986983 0.00349109 -0.00320563)
(0.0972184 0.00380918 -0.00405944)
(0.0953361 0.00441345 -0.00518405)
(0.0929081 0.00531646 -0.00664463)
(0.0897568 0.00654903 -0.00852514)
(0.0856292 0.00815507 -0.0109282)
(0.0801437 0.0101807 -0.0139681)
(0.0730155 0.0126471 -0.017739)
(0.0625728 0.0155644 -0.0223295)
(0.0509923 0.0185938 -0.027339)
(0.0301632 0.021745 -0.0327734)
(0.0117141 0.0197151 -0.0302299)
(0.100701 0.00329389 -0.00117016)
(0.100144 0.0039588 -0.00169197)
(0.100472 0.00385833 -0.00203274)
(0.099714 0.00383792 -0.0024563)
(0.0989457 0.00406702 -0.00305348)
(0.0977301 0.00458368 -0.00385838)
(0.0961305 0.00541692 -0.0049149)
(0.0940182 0.00660992 -0.00628236)
(0.09123 0.00822603 -0.0080374)
(0.087522 0.0103493 -0.0102741)
(0.0825045 0.0130786 -0.013098)
(0.0758784 0.0164979 -0.016598)
(0.0657985 0.0206906 -0.0208579)
(0.054496 0.0252968 -0.0255238)
(0.0328748 0.0303169 -0.0305796)
(0.0131644 0.0279746 -0.0282402)
(0.100579 0.00292325 -0.00110397)
(0.100027 0.00370847 -0.00159927)
(0.100457 0.00382793 -0.00192011)
(0.0998922 0.00400663 -0.00231645)
(0.0993624 0.00441498 -0.00287274)
(0.0984212 0.00511024 -0.00361892)
(0.0971404 0.00614545 -0.00459323)
(0.0954085 0.00759127 -0.00584733)
(0.0930843 0.00954684 -0.00744791)
(0.0899461 0.0121493 -0.00947677)
(0.0856124 0.015583 -0.0120258)
(0.0797834 0.020074 -0.0151727)
(0.0704063 0.0259347 -0.0189892)
(0.0597391 0.0331348 -0.0231816)
(0.0371724 0.0420474 -0.0276922)
(0.0157373 0.0417637 -0.0256111)
(0.100551 0.00260025 -0.00103007)
(0.10005 0.0034195 -0.00149576)
(0.100603 0.00368782 -0.00179431)
(0.10022 0.00401759 -0.00216012)
(0.0999255 0.00457123 -0.00267043)
(0.0992688 0.00541203 -0.00335035)
(0.0983367 0.00660776 -0.00423139)
(0.0970427 0.00825026 -0.00535589)
(0.0952828 0.0104695 -0.00677797)
(0.0928887 0.0134501 -0.00856285)
(0.0895496 0.0174514 -0.0107818)
(0.0850784 0.0228242 -0.013491)
(0.0774181 0.0300235 -0.0167307)
(0.0690656 0.0393394 -0.020262)
(0.0472323 0.051201 -0.0239343)
(0.0247444 0.0517224 -0.0220689)
(0.100571 0.0022553 -0.000951542)
(0.100159 0.00305675 -0.00138578)
(0.100861 0.003426 -0.00166066)
(0.100662 0.0038676 -0.001994)
(0.1006 0.00452891 -0.00245533)
(0.100232 0.00547131 -0.00306451)
(0.0996638 0.00676956 -0.00384562)
(0.0988418 0.00853015 -0.00483056)
(0.0977073 0.0109108 -0.00605906)
(0.0961538 0.0141542 -0.00757712)
(0.0939475 0.0186496 -0.00943179)
(0.0909619 0.0250755 -0.0116545)
(0.085115 0.0345402 -0.0142507)
(0.0789495 0.0495647 -0.0170582)
(0.057593 0.0736326 -0.0198168)
(0.0366117 0.0987998 -0.0183745)
(0.0930619 0.00832339 -0.000899422)
(0.0881068 0.00360339 -0.00128675)
(0.0843285 0.00180632 -0.00154014)
(0.081933 0.000965776 -0.00186073)
(0.0800727 0.000685991 -0.002317)
(0.0781179 0.000621105 -0.00293455)
(0.0759125 0.000659414 -0.00374664)
(0.0732387 0.000762606 -0.00479593)
(0.0699022 0.0009181 -0.00613387)
(0.06568 0.00112297 -0.00781719)
(0.0602943 0.00137625 -0.00989806)
(0.053575 0.00166597 -0.0123985)
(0.0444957 0.00201554 -0.0153213)
(0.0348531 0.00225245 -0.0183197)
(0.0195734 0.00268142 -0.0214173)
(0.00698705 0.00202886 -0.0194664)
(0.102657 0.00722861 -0.0010855)
(0.101662 0.00434116 -0.00155617)
(0.100679 0.00279895 -0.00186047)
(0.0987798 0.00197863 -0.00224039)
(0.0969561 0.00170291 -0.00277972)
(0.0947849 0.00171284 -0.00351066)
(0.0922273 0.00190945 -0.00447312)
(0.0890784 0.0022572 -0.00571818)
(0.0851225 0.00274786 -0.00730762)
(0.0800962 0.00338462 -0.00930987)
(0.0736609 0.0041705 -0.0117887)
(0.0655927 0.0050896 -0.0147728)
(0.0546789 0.00613907 -0.0182652)
(0.0429157 0.00708639 -0.0218706)
(0.0243581 0.00811267 -0.0255643)
(0.0090132 0.00697008 -0.0232189)
(0.101785 0.00481513 -0.0010732)
(0.101161 0.00444826 -0.00153938)
(0.100915 0.00358491 -0.00183919)
(0.0994538 0.00303019 -0.00221253)
(0.0979621 0.00288117 -0.00274212)
(0.0960213 0.00304545 -0.00345917)
(0.0936474 0.00347398 -0.0044024)
(0.0906638 0.0041528 -0.00562151)
(0.0868681 0.00509017 -0.00717673)
(0.0819979 0.0063059 -0.00913513)
(0.0756981 0.00781771 -0.0115598)
(0.0677246 0.00961632 -0.01448)
(0.0567469 0.0116805 -0.0179018)
(0.0448256 0.0137009 -0.0214393)
(0.0255724 0.0157138 -0.0250702)
(0.00943009 0.0139627 -0.0227662)
(0.100975 0.00391298 -0.00103903)
(0.100353 0.00425455 -0.00149155)
(0.100416 0.00382314 -0.00178104)
(0.0992893 0.00356171 -0.00214048)
(0.0980983 0.00361369 -0.00264939)
(0.0964194 0.00397084 -0.0033371)
(0.0942951 0.00462922 -0.00423985)
(0.09157 0.00560573 -0.00540433)
(0.0880555 0.00693645 -0.0068872)
(0.0834933 0.00867111 -0.0087518)
(0.0775144 0.0108612 -0.0110581)
(0.0698539 0.0135304 -0.0138347)
(0.0590315 0.0166888 -0.0170894)
(0.0471676 0.0199635 -0.0204598)
(0.0272229 0.0233723 -0.0239223)
(0.01014 0.02118 -0.0217359)
(0.100658 0.00335009 -0.000993093)
(0.100006 0.00403759 -0.00142726)
(0.100198 0.00395385 -0.00170301)
(0.099306 0.00395633 -0.00204381)
(0.0983795 0.00421975 -0.00252492)
(0.0969786 0.00478551 -0.003173)
(0.0951547 0.00568708 -0.00402091)
(0.092768 0.00697352 -0.00511092)
(0.0896452 0.0087155 -0.00649445)
(0.0855374 0.0110057 -0.00822899)
(0.0800658 0.0139514 -0.0103692)
(0.072949 0.0176425 -0.0129414)
(0.0625137 0.0221663 -0.0159535)
(0.0509463 0.0271163 -0.0190784)
(0.0301291 0.0325153 -0.0222826)
(0.0116812 0.029967 -0.0202617)
(0.100538 0.00298769 -0.000938716)
(0.099898 0.00379879 -0.00135113)
(0.100201 0.00393754 -0.00161059)
(0.0995116 0.00414265 -0.0019292)
(0.0988366 0.00459068 -0.00237709)
(0.0977267 0.00534288 -0.00297769)
(0.0962434 0.00645775 -0.00375951)
(0.0942655 0.00801328 -0.00475917)
(0.0916435 0.0101181 -0.00602096)
(0.0881515 0.0129211 -0.00759405)
(0.0834178 0.0166199 -0.00952464)
(0.077159 0.0214519 -0.0118335)
(0.0674678 0.0277439 -0.0145239)
(0.0565753 0.0354138 -0.0173145)
(0.0347105 0.0448855 -0.0201493)
(0.0143912 0.0443994 -0.0183324)
(0.100513 0.00267036 -0.000878012)
(0.0999304 0.00351772 -0.00126612)
(0.100366 0.00380707 -0.00150737)
(0.0998707 0.00416565 -0.00180113)
(0.0994452 0.00476265 -0.00221171)
(0.0986388 0.00566582 -0.00275879)
(0.0975293 0.00694916 -0.00346581)
(0.0960228 0.00871297 -0.00436252)
(0.0940092 0.0110985 -0.00548431)
(0.0913185 0.014305 -0.00686931)
(0.0876507 0.0186091 -0.008551)
(0.0828373 0.0243781 -0.0105387)
(0.0749385 0.0320909 -0.0128203)
(0.0664545 0.0419804 -0.0151599)
(0.0452246 0.0545623 -0.0174475)
(0.0236634 0.0548816 -0.0158182)
(0.100536 0.00232815 -0.000813515)
(0.10005 0.00315877 -0.00117582)
(0.100646 0.00354985 -0.00139774)
(0.100345 0.00402134 -0.00166508)
(0.100169 0.00472766 -0.00203593)
(0.0996706 0.00573486 -0.00252596)
(0.0989526 0.00712432 -0.00315296)
(0.0979548 0.00901169 -0.00393907)
(0.0966155 0.0115674 -0.00490956)
(0.0948297 0.015051 -0.00608969)
(0.0923755 0.0198748 -0.00749778)
(0.0891488 0.0267442 -0.00912937)
(0.0831494 0.0368152 -0.0109532)
(0.076968 0.0525821 -0.0127912)
(0.056121 0.0777611 -0.0144651)
(0.0359395 0.103065 -0.0131392)
(0.0930307 0.00832763 -0.000683045)
(0.0880065 0.00361073 -0.000973536)
(0.0841286 0.00181442 -0.00115975)
(0.0816345 0.00097577 -0.00139445)
(0.0796569 0.000698789 -0.00172849)
(0.077565 0.000637884 -0.00217997)
(0.0751948 0.000681654 -0.00277166)
(0.0723228 0.000792172 -0.00353164)
(0.0687514 0.000957302 -0.00449196)
(0.0642607 0.00117464 -0.00568482)
(0.0585902 0.00144356 -0.00713385)
(0.0515946 0.00175299 -0.008835)
(0.0423844 0.00212402 -0.0107622)
(0.0327063 0.00239061 -0.0126535)
(0.0180795 0.00283669 -0.0144967)
(0.00632914 0.00219277 -0.0129927)
(0.10262 0.00724263 -0.000823034)
(0.101543 0.00436167 -0.00117588)
(0.100444 0.00282316 -0.00139982)
(0.0984266 0.00200854 -0.00167814)
(0.0964635 0.0017413 -0.00207325)
(0.0941286 0.00176323 -0.00260797)
(0.0913744 0.00197629 -0.00330966)
(0.0879885 0.00234606 -0.00421204)
(0.0837512 0.0028656 -0.00535373)
(0.0784022 0.00353941 -0.0067738)
(0.0716233 0.0043714 -0.00850156)
(0.0632208 0.00534616 -0.0105339)
(0.05214 0.00645807 -0.0128392)
(0.0403348 0.0074726 -0.0151167)
(0.0225461 0.00855515 -0.0173166)
(0.00819723 0.00738206 -0.0155067)
(0.101749 0.0048416 -0.000813921)
(0.101045 0.00448549 -0.0011635)
(0.100684 0.00362969 -0.00138415)
(0.0991073 0.00308548 -0.0016576)
(0.0974793 0.00295214 -0.00204554)
(0.0953787 0.00313864 -0.00257006)
(0.092813 0.00359769 -0.0032577)
(0.0895986 0.00431744 -0.0041412)
(0.0855288 0.00530862 -0.00525817)
(0.080344 0.00659349 -0.00664681)
(0.0737087 0.00819157 -0.00833607)
(0.0654078 0.0100937 -0.0103233)
(0.054265 0.0122759 -0.0125795)
(0.0423001 0.0144142 -0.0148096)
(0.0237953 0.0165403 -0.0169662)
(0.00863218 0.0147052 -0.0151858)
(0.10094 0.00394853 -0.000788551)
(0.100241 0.00430451 -0.00112795)
(0.100193 0.00388354 -0.00134095)
(0.0989562 0.00363639 -0.00160412)
(0.097635 0.00370969 -0.00197683)
(0.095804 0.00409712 -0.00247978)
(0.0934977 0.00479724 -0.00313781)
(0.0905539 0.00583005 -0.00398157)
(0.0867802 0.00723528 -0.0050463)
(0.0819206 0.0090665 -0.00636781)
(0.0756246 0.0113783 -0.00797337)
(0.067654 0.014195 -0.00986038)
(0.0566742 0.017525 -0.0120022)
(0.0447686 0.0209705 -0.0141198)
(0.0255314 0.0245521 -0.0161668)
(0.00938242 0.0222366 -0.014472)
(0.100625 0.00339426 -0.000754387)
(0.0998995 0.00409951 -0.00108016)
(0.0999868 0.00402885 -0.00128302)
(0.0989909 0.00404917 -0.00153243)
(0.0979424 0.00433928 -0.00188466)
(0.0963998 0.00494305 -0.00235854)
(0.0944073 0.00589722 -0.00297652)
(0.0918188 0.00725504 -0.00376625)
(0.0884576 0.00909222 -0.00475947)
(0.084077 0.011507 -0.00598833)
(0.0783153 0.0146119 -0.00747712)
(0.0709153 0.0184988 -0.00922262)
(0.0603359 0.0232556 -0.0112)
(0.0487339 0.0284417 -0.0131545)
(0.0285654 0.0340911 -0.0150359)
(0.0109814 0.0313872 -0.0134615)
(0.100507 0.00303835 -0.000713971)
(0.0997984 0.00386976 -0.00102358)
(0.100004 0.00402359 -0.00121438)
(0.099218 0.00424927 -0.00144743)
(0.0984309 0.00472813 -0.00177522)
(0.097192 0.00552436 -0.0022143)
(0.0955563 0.00670043 -0.0027841)
(0.0933977 0.00833952 -0.00350841)
(0.0905637 0.0105567 -0.0044143)
(0.0868313 0.0135086 -0.00552869)
(0.0818442 0.0174006 -0.00687098)
(0.0753413 0.0224754 -0.00843557)
(0.0655295 0.0290656 -0.0101969)
(0.0546212 0.0370504 -0.0119315)
(0.0333313 0.0468809 -0.0135784)
(0.0137783 0.0462356 -0.0121508)
(0.100484 0.00272547 -0.00066885)
(0.0998384 0.00359489 -0.000960413)
(0.100184 0.00390068 -0.00113775)
(0.0996011 0.0042817 -0.00135247)
(0.0990747 0.00491235 -0.00165284)
(0.0981537 0.00586369 -0.00205274)
(0.0969107 0.0072142 -0.0025681)
(0.0952479 0.00907019 -0.00321808)
(0.093054 0.0115806 -0.00402394)
(0.0901626 0.0149539 -0.00500574)
(0.0862886 0.0194771 -0.00617565)
(0.081286 0.0255261 -0.0075226)
(0.0733085 0.0335904 -0.0090146)
(0.0648571 0.0438597 -0.0104612)
(0.0441281 0.0568984 -0.0117724)
(0.0232105 0.0570563 -0.010488)
(0.100509 0.0023854 -0.000620914)
(0.0999655 0.00323892 -0.000893312)
(0.10048 0.00364706 -0.00105636)
(0.100101 0.00414182 -0.00125161)
(0.0998356 0.00488304 -0.0015228)
(0.0992384 0.00594025 -0.00188097)
(0.0984073 0.00739955 -0.00233818)
(0.09728 0.00938303 -0.00290845)
(0.0957953 0.0120696 -0.00360646)
(0.0938532 0.0157296 -0.00444429)
(0.0912466 0.0207888 -0.00542526)
(0.0878944 0.0279669 -0.00653134)
(0.0818657 0.0384443 -0.0077216)
(0.0757789 0.0546884 -0.00884639)
(0.0553616 0.0805529 -0.00977867)
(0.03574 0.105926 -0.00871046)
(0.0930098 0.00833049 -0.00042608)
(0.0879383 0.00361582 -0.000606559)
(0.0839925 0.00181995 -0.000719844)
(0.0814311 0.000982651 -0.000862976)
(0.0793742 0.000707571 -0.00106648)
(0.0771899 0.000649381 -0.00134113)
(0.0747103 0.000696861 -0.00170015)
(0.0717087 0.000812332 -0.00215924)
(0.0679874 0.000983947 -0.00273558)
(0.0633308 0.00120959 -0.00344499)
(0.0574932 0.00148885 -0.00429626)
(0.0503489 0.00181112 -0.00527934)
(0.0410952 0.00219585 -0.0063705)
(0.031444 0.00248073 -0.00740944)
(0.0172409 0.0029367 -0.00838828)
(0.00599552 0.00229474 -0.00746771)
(0.102595 0.0072523 -0.000513491)
(0.101463 0.00437583 -0.000731818)
(0.100283 0.0028398 -0.000868573)
(0.0981859 0.00202912 -0.00103815)
(0.0961282 0.00176766 -0.00127899)
(0.0936832 0.00179778 -0.00160441)
(0.0907981 0.00202201 -0.00203039)
(0.0872572 0.00240668 -0.00257578)
(0.0828399 0.00294564 -0.00326136)
(0.0772913 0.00364417 -0.00410644)
(0.0703101 0.00450666 -0.00512223)
(0.0617269 0.00551781 -0.00629771)
(0.0505872 0.00666986 -0.00760427)
(0.0388146 0.00772673 -0.00885708)
(0.021527 0.00884359 -0.0100264)
(0.00778065 0.0076474 -0.00891735)
(0.101725 0.00485984 -0.00050753)
(0.100966 0.00451114 -0.000724155)
(0.100526 0.00366049 -0.000859152)
(0.0988711 0.00312351 -0.00102571)
(0.0971506 0.00300088 -0.00126219)
(0.0949425 0.00320253 -0.00158139)
(0.0922492 0.0036823 -0.00199884)
(0.0888838 0.00442971 -0.00253282)
(0.0846388 0.00545702 -0.00320355)
(0.0792596 0.00678796 -0.00402984)
(0.0724274 0.00844297 -0.00502277)
(0.0639498 0.0104126 -0.00617162)
(0.052749 0.0126707 -0.00744946)
(0.0408153 0.0148835 -0.00867463)
(0.0227981 0.0170792 -0.0098193)
(0.00822664 0.015187 -0.0087284)
(0.100917 0.00397302 -0.000492082)
(0.100165 0.00433892 -0.000702226)
(0.100041 0.0039251 -0.000832516)
(0.0987293 0.00368773 -0.000992723)
(0.0973196 0.00377559 -0.00121989)
(0.0953863 0.00418365 -0.00152592)
(0.092959 0.00491207 -0.00192533)
(0.0898722 0.00598286 -0.00243522)
(0.085933 0.00743802 -0.00307443)
(0.08089 0.00933338 -0.0038605)
(0.0744084 0.0117252 -0.00480369)
(0.0662714 0.0146376 -0.00589354)
(0.0552374 0.0180769 -0.00710505)
(0.0433625 0.0216296 -0.00826546)
(0.0245864 0.0253164 -0.00934874)
(0.00900097 0.0229185 -0.00830951)
(0.100602 0.0034247 -0.000471014)
(0.0998272 0.00414216 -0.000672808)
(0.099843 0.00408046 -0.000796904)
(0.0987762 0.00411299 -0.000948699)
(0.0976449 0.0044213 -0.00116336)
(0.096007 0.00505093 -0.00145168)
(0.0939022 0.00604072 -0.00182677)
(0.0911819 0.00744659 -0.00230401)
(0.0876688 0.00934737 -0.00290025)
(0.0831204 0.0118446 -0.00363107)
(0.0771898 0.0150535 -0.00450529)
(0.0696391 0.0190667 -0.00551242)
(0.0590121 0.0239709 -0.00662942)
(0.0474426 0.029304 -0.00769719)
(0.0276972 0.0351048 -0.00868954)
(0.0106337 0.0322976 -0.00772331)
(0.100486 0.00307324 -0.000446142)
(0.0997307 0.00391863 -0.000637973)
(0.0998696 0.0040828 -0.000754663)
(0.0990179 0.00432255 -0.000896438)
(0.0981547 0.00482243 -0.00109617)
(0.096829 0.00564858 -0.00136329)
(0.095092 0.00686605 -0.00170915)
(0.0928153 0.00856127 -0.00214689)
(0.0898465 0.0108534 -0.00269076)
(0.0859667 0.0139033 -0.00335347)
(0.0808331 0.0179206 -0.00414142)