/*--------------------------------*- C++ -*----------------------------------*\
| =========                 |                                                 |
| \\      /  F ield         | OpenFOAM: The Open Source CFD Toolbox           |
|  \\    /   O peration     | Version:  v1912                                 |
|   \\  /    A nd           | Website:  www.openfoam.com                      |
|    \\/     M anipulation  |                                                 |
\*---------------------------------------------------------------------------*/
FoamFile
{
    version     2.0;
    format      ascii;
    class       volVectorField;
    location    "0.22/fluid";
    object      cellMotionU;
}
// * * * * * * * * * * * * * * * * * * * * * * * * * * * * * * * * * * * * * //

dimensions      [0 1 -1 0 0 0 0];


internalField   nonuniform List<vector> 
14592
(
(2.02405e-10 -6.73724e-10 5.00658e-10)
(5.61185e-10 -1.88471e-09 1.41475e-09)
(8.84632e-10 -3.01206e-09 2.30981e-09)
(1.17647e-09 -4.10049e-09 3.24114e-09)
(1.44398e-09 -5.18181e-09 4.26308e-09)
(1.69314e-09 -6.27574e-09 5.42631e-09)
(1.92779e-09 -7.36802e-09 6.76232e-09)
(2.15381e-09 -8.43398e-09 8.30801e-09)
(2.38034e-09 -9.42671e-09 1.01047e-08)
(2.62809e-09 -1.0244e-08 1.21867e-08)
(2.95987e-09 -1.06919e-08 1.45991e-08)
(3.5308e-09 -1.03714e-08 1.7413e-08)
(4.80372e-09 -8.33583e-09 2.08732e-08)
(8.01202e-09 -2.09207e-09 2.57656e-08)
(1.62791e-08 1.49829e-08 3.44304e-08)
(3.33593e-08 5.16283e-08 4.8961e-08)
(6.04525e-10 -2.00248e-09 1.48986e-09)
(1.67903e-09 -5.6029e-09 4.21284e-09)
(2.64225e-09 -8.95863e-09 6.87261e-09)
(3.51786e-09 -1.22046e-08 9.6495e-09)
(4.3222e-09 -1.54334e-08 1.26944e-08)
(5.07109e-09 -1.86788e-08 1.61322e-08)
(5.77979e-09 -2.19377e-08 2.00841e-08)
(6.46443e-09 -2.5153e-08 2.4664e-08)
(7.1483e-09 -2.81879e-08 2.99745e-08)
(7.88646e-09 -3.07832e-08 3.61113e-08)
(8.8162e-09 -3.24632e-08 4.31448e-08)
(1.02594e-08 -3.23764e-08 5.11381e-08)
(1.3156e-08 -2.8919e-08 6.02564e-08)
(1.93776e-08 -1.93227e-08 7.09716e-08)
(3.24453e-08 2.6259e-10 8.4253e-08)
(5.32942e-08 2.74382e-08 9.88667e-08)
(1.00143e-09 -3.2739e-09 2.44583e-09)
(2.78117e-09 -9.1628e-09 6.91414e-09)
(4.38035e-09 -1.46668e-08 1.12861e-08)
(5.83648e-09 -1.99886e-08 1.58359e-08)
(7.18088e-09 -2.52784e-08 2.08069e-08)
(8.44316e-09 -3.06268e-08 2.6422e-08)
(9.64968e-09 -3.60432e-08 3.28757e-08)
(1.08283e-08 -4.14638e-08 4.03542e-08)
(1.20173e-08 -4.672e-08 4.90305e-08)
(1.32867e-08 -5.14791e-08 5.90435e-08)
(1.47605e-08 -5.51787e-08 7.04634e-08)
(1.68247e-08 -5.68866e-08 8.33133e-08)
(2.03313e-08 -5.51702e-08 9.74754e-08)
(2.70056e-08 -4.8364e-08 1.12953e-07)
(3.99229e-08 -3.58115e-08 1.29962e-07)
(5.97438e-08 -2.25347e-08 1.47106e-07)
(1.3895e-09 -4.44431e-09 3.34548e-09)
(3.85672e-09 -1.24479e-08 9.45502e-09)
(6.07956e-09 -1.99337e-08 1.54282e-08)
(8.11122e-09 -2.71897e-08 2.16367e-08)
(9.99993e-09 -3.44278e-08 2.84087e-08)
(1.17899e-08 -4.17779e-08 3.60356e-08)
(1.35257e-08 -4.93014e-08 4.47974e-08)
(1.52542e-08 -5.69663e-08 5.49562e-08)
(1.7031e-08 -6.46211e-08 6.67486e-08)
(1.89315e-08 -7.19567e-08 8.03657e-08)
(2.10594e-08 -7.8455e-08 9.59123e-08)
(2.36931e-08 -8.32607e-08 1.13326e-07)
(2.73769e-08 -8.51687e-08 1.3232e-07)
(3.31364e-08 -8.28737e-08 1.52305e-07)
(4.30084e-08 -7.58705e-08 1.72391e-07)
(5.78026e-08 -6.71085e-08 1.89888e-07)
(1.76145e-09 -5.47322e-09 4.16655e-09)
(4.89336e-09 -1.53357e-08 1.17774e-08)
(7.71971e-09 -2.45781e-08 1.921e-08)
(1.03127e-08 -3.35551e-08 2.69149e-08)
(1.27391e-08 -4.25402e-08 3.52917e-08)
(1.50654e-08 -5.17338e-08 4.47115e-08)
(1.73578e-08 -6.12502e-08 5.55187e-08)
(1.96911e-08 -7.11165e-08 6.80438e-08)
(2.21558e-08 -8.1253e-08 8.25984e-08)
(2.48489e-08 -9.14512e-08 9.94447e-08)
(2.78994e-08 -1.0132e-07 1.1876e-07)
(3.14846e-08 -1.10176e-07 1.4053e-07)
(3.58669e-08 -1.16922e-07 1.64445e-07)
(4.1339e-08 -1.19937e-07 1.89578e-07)
(4.8769e-08 -1.1723e-07 2.14005e-07)
(5.90679e-08 -1.09132e-07 2.33166e-07)
(2.11395e-09 -6.32061e-09 4.89601e-09)
(5.8732e-09 -1.77154e-08 1.38324e-08)
(9.27109e-09 -2.84098e-08 2.25424e-08)
(1.24001e-08 -3.88309e-08 3.15497e-08)
(1.53466e-08 -4.93133e-08 4.13125e-08)
(1.81966e-08 -6.01105e-08 5.22495e-08)
(2.10468e-08 -7.14082e-08 6.47678e-08)
(2.40103e-08 -8.33126e-08 7.92609e-08)
(2.72286e-08 -9.5847e-08 9.61088e-08)
(3.08674e-08 -1.0895e-07 1.1566e-07)
(3.51446e-08 -1.22449e-07 1.38209e-07)
(4.03423e-08 -1.35975e-07 1.63955e-07)
(4.67675e-08 -1.48733e-07 1.92875e-07)
(5.45114e-08 -1.58973e-07 2.24325e-07)
(6.34292e-08 -1.62804e-07 2.56071e-07)
(7.23649e-08 -1.55376e-07 2.80918e-07)
(2.43822e-09 -6.94853e-09 5.51681e-09)
(6.77718e-09 -1.94833e-08 1.55822e-08)
(1.07038e-08 -3.1272e-08 2.53727e-08)
(1.43269e-08 -4.27953e-08 3.54587e-08)
(1.77509e-08 -5.44392e-08 4.63404e-08)
(2.10861e-08 -6.65171e-08 5.84808e-08)
(2.44553e-08 -7.9277e-08 7.23226e-08)
(2.80108e-08 -9.29048e-08 8.83029e-08)
(3.1956e-08 -1.07531e-07 1.06858e-07)
(3.65509e-08 -1.23264e-07 1.28405e-07)
(4.21674e-08 -1.40209e-07 1.53369e-07)
(4.94129e-08 -1.58443e-07 1.82246e-07)
(5.91541e-08 -1.78029e-07 2.15591e-07)
(7.25258e-08 -1.98657e-07 2.5386e-07)
(9.07423e-08 -2.18344e-07 2.96453e-07)
(1.10803e-07 -2.30048e-07 3.35026e-07)
(2.72932e-09 -7.32794e-09 6.02452e-09)
(7.58628e-09 -2.05572e-08 1.70059e-08)
(1.1983e-08 -3.30248e-08 2.76583e-08)
(1.60437e-08 -4.52541e-08 3.8588e-08)
(1.98865e-08 -5.76709e-08 5.03171e-08)
(2.36351e-08 -7.06299e-08 6.33216e-08)
(2.74348e-08 -8.44294e-08 7.80634e-08)
(3.14681e-08 -9.93164e-08 9.49978e-08)
(3.59804e-08 -1.15509e-07 1.14575e-07)
(4.12873e-08 -1.33245e-07 1.37223e-07)
(4.79536e-08 -1.52797e-07 1.63479e-07)
(5.67761e-08 -1.74672e-07 1.93929e-07)
(6.92855e-08 -1.9973e-07 2.29644e-07)
(8.81665e-08 -2.29688e-07 2.72268e-07)
(1.18527e-07 -2.676e-07 3.24418e-07)
(1.61453e-07 -3.11722e-07 3.8156e-07)
(1.93068e-10 -6.87875e-10 4.76687e-10)
(5.34882e-10 -1.92432e-09 1.34753e-09)
(8.3739e-10 -3.07697e-09 2.19656e-09)
(1.10559e-09 -4.19051e-09 3.08097e-09)
(1.34102e-09 -5.2991e-09 4.04851e-09)
(1.54392e-09 -6.41888e-09 5.14079e-09)
(1.71247e-09 -7.54417e-09 6.39206e-09)
(1.84041e-09 -8.65707e-09 7.83619e-09)
(1.91792e-09 -9.71444e-09 9.5024e-09)
(1.93059e-09 -1.06385e-08 1.14153e-08)
(1.86201e-09 -1.12797e-08 1.35818e-08)
(1.74242e-09 -1.13469e-08 1.60068e-08)
(1.61519e-09 -1.02533e-08 1.86934e-08)
(1.55203e-09 -6.65895e-09 2.1729e-08)
(1.14297e-09 2.10174e-09 2.52036e-08)
(-1.54349e-09 1.70272e-08 2.77467e-08)
(5.7777e-10 -2.04404e-09 1.41903e-09)
(1.59946e-09 -5.7193e-09 4.00795e-09)
(2.50669e-09 -9.14688e-09 6.53716e-09)
(3.31097e-09 -1.24627e-08 9.16628e-09)
(4.02041e-09 -1.57625e-08 1.20391e-08)
(4.63729e-09 -1.90911e-08 1.52742e-08)
(5.1564e-09 -2.24515e-08 1.89807e-08)
(5.56183e-09 -2.57956e-08 2.3256e-08)
(5.82448e-09 -2.90145e-08 2.81858e-08)
(5.90125e-09 -3.18944e-08 3.38214e-08)
(5.75313e-09 -3.40706e-08 4.01598e-08)
(5.43157e-09 -3.49127e-08 4.71152e-08)
(5.07804e-09 -3.34274e-08 5.44099e-08)
(4.96904e-09 -2.82179e-08 6.14751e-08)
(5.03855e-09 -1.84546e-08 6.68505e-08)
(3.72549e-09 -8.24554e-09 6.76088e-08)
(9.5863e-10 -3.3405e-09 2.32842e-09)
(2.65494e-09 -9.35012e-09 6.57684e-09)
(4.16394e-09 -1.49642e-08 1.07265e-08)
(5.50858e-09 -2.03989e-08 1.50357e-08)
(6.70538e-09 -2.58105e-08 1.97318e-08)
(7.76291e-09 -3.12918e-08 2.50169e-08)
(8.67796e-09 -3.68648e-08 3.10697e-08)
(9.43208e-09 -4.24823e-08 3.80551e-08)
(9.98584e-09 -4.80024e-08 4.61099e-08)
(1.02662e-08 -5.31603e-08 5.53159e-08)
(1.0228e-08 -5.74977e-08 6.56716e-08)
(9.81045e-09 -6.03618e-08 7.69525e-08)
(9.1401e-09 -6.08742e-08 8.86803e-08)
(8.39393e-09 -5.84548e-08 9.97962e-08)
(7.66459e-09 -5.41687e-08 1.08329e-07)
(6.00807e-09 -5.25729e-08 1.11473e-07)
(1.33231e-09 -4.53462e-09 3.18284e-09)
(3.69328e-09 -1.26975e-08 8.99425e-09)
(5.79818e-09 -2.03338e-08 1.46626e-08)
(7.68636e-09 -2.77388e-08 2.05408e-08)
(9.38702e-09 -3.51331e-08 2.69342e-08)
(1.09201e-08 -4.26583e-08 3.41147e-08)
(1.22944e-08 -5.03816e-08 4.23346e-08)
(1.35016e-08 -5.82831e-08 5.18229e-08)
(1.45068e-08 -6.62416e-08 6.27739e-08)
(1.52414e-08 -7.39998e-08 7.5315e-08)
(1.5589e-08 -8.11433e-08 8.9444e-08)
(1.54241e-08 -8.70399e-08 1.04912e-07)
(1.45234e-08 -9.09527e-08 1.21037e-07)
(1.25561e-08 -9.24423e-08 1.36358e-07)
(9.03707e-09 -9.24006e-08 1.48168e-07)
(3.68191e-09 -9.36255e-08 1.52771e-07)
(1.69558e-09 -5.58335e-09 3.96603e-09)
(4.70167e-09 -1.56405e-08 1.12019e-08)
(7.39119e-09 -2.50631e-08 1.8254e-08)
(9.81986e-09 -3.42209e-08 2.55496e-08)
(1.20343e-08 -4.33969e-08 3.34616e-08)
(1.40738e-08 -5.27949e-08 4.23296e-08)
(1.59684e-08 -6.25364e-08 5.24674e-08)
(1.77376e-08 -7.26575e-08 6.41672e-08)
(1.93781e-08 -8.30954e-08 7.76841e-08)
(2.08529e-08 -9.36737e-08 9.32117e-08)
(2.20558e-08 -1.04067e-07 1.10797e-07)
(2.27707e-08 -1.1374e-07 1.3024e-07)
(2.24735e-08 -1.21923e-07 1.50825e-07)
(2.01255e-08 -1.27715e-07 1.70838e-07)
(1.41695e-08 -1.30676e-07 1.86803e-07)
(4.71086e-09 -1.32188e-07 1.93578e-07)
(2.04173e-09 -6.44628e-09 4.65925e-09)
(5.66483e-09 -1.80635e-08 1.3156e-08)
(8.91592e-09 -2.89654e-08 2.14222e-08)
(1.18702e-08 -3.95904e-08 2.99497e-08)
(1.45944e-08 -5.02828e-08 3.91675e-08)
(1.71504e-08 -6.13037e-08 4.9464e-08)
(1.95998e-08 -7.28394e-08 6.1207e-08)
(2.2004e-08 -8.49963e-08 7.47432e-08)
(2.44208e-08 -9.78024e-08 9.03893e-08)
(2.68927e-08 -1.11201e-07 1.08407e-07)
(2.9423e-08 -1.25038e-07 1.28946e-07)
(3.18996e-08 -1.38973e-07 1.51951e-07)
(3.38257e-08 -1.52343e-07 1.76901e-07)
(3.38114e-08 -1.63802e-07 2.02201e-07)
(2.89174e-08 -1.70874e-07 2.2401e-07)
(1.69544e-08 -1.71188e-07 2.35388e-07)
(2.36454e-09 -7.08562e-09 5.25175e-09)
(6.56297e-09 -1.98628e-08 1.48209e-08)
(1.03397e-08 -3.18753e-08 2.41109e-08)
(1.37881e-08 -4.36187e-08 3.36606e-08)
(1.69946e-08 -5.54882e-08 4.39371e-08)
(2.00462e-08 -6.78004e-08 5.53664e-08)
(2.30368e-08 -8.08007e-08 6.83498e-08)
(2.60767e-08 -9.46683e-08 8.32744e-08)
(2.92946e-08 -1.09526e-07 1.00498e-07)
(3.28541e-08 -1.2546e-07 1.20345e-07)
(3.69636e-08 -1.42526e-07 1.43078e-07)
(4.18391e-08 -1.60747e-07 1.68804e-07)
(4.75967e-08 -1.80029e-07 1.97388e-07)
(5.37828e-08 -1.99856e-07 2.27755e-07)
(5.81246e-08 -2.18238e-07 2.56329e-07)
(5.52664e-08 -2.29561e-07 2.74113e-07)
(2.65627e-09 -7.47121e-09 5.7342e-09)
(7.37537e-09 -2.09535e-08 1.61753e-08)
(1.16268e-08 -3.3655e-08 2.6285e-08)
(1.552e-08 -4.61125e-08 3.66333e-08)
(1.91583e-08 -5.87602e-08 4.77094e-08)
(2.26474e-08 -7.19556e-08 5.99527e-08)
(2.61088e-08 -8.59909e-08 7.37804e-08)
(2.96899e-08 -1.01102e-07 8.9592e-08)
(3.35806e-08 -1.17487e-07 1.0776e-07)
(3.80572e-08 -1.3533e-07 1.2865e-07)
(4.34742e-08 -1.54857e-07 1.52477e-07)
(5.04405e-08 -1.76375e-07 1.79583e-07)
(5.97953e-08 -2.00409e-07 2.10025e-07)
(7.28257e-08 -2.27818e-07 2.43327e-07)
(9.09149e-08 -2.59357e-07 2.76754e-07)
(1.11151e-07 -2.90247e-07 3.00378e-07)
(1.83015e-10 -6.99779e-10 4.34929e-10)
(5.04982e-10 -1.95772e-09 1.22773e-09)
(7.87039e-10 -3.13e-09 2.00271e-09)
(1.02826e-09 -4.26407e-09 2.80499e-09)
(1.2274e-09 -5.39555e-09 3.681e-09)
(1.37995e-09 -6.5392e-09 4.66595e-09)
(1.4752e-09 -7.69675e-09 5.78962e-09)
(1.49554e-09 -8.85289e-09 7.0787e-09)
(1.40837e-09 -9.98064e-09 8.55442e-09)
(1.16372e-09 -1.10216e-08 1.0223e-08)
(6.84395e-10 -1.18842e-08 1.20702e-08)
(-1.70616e-10 -1.24196e-08 1.40177e-08)
(-1.67034e-09 -1.23794e-08 1.59203e-08)
(-4.60662e-09 -1.13831e-08 1.74216e-08)
(-1.10717e-08 -8.97886e-09 1.76768e-08)
(-2.33409e-08 -5.67369e-09 1.49628e-08)
(5.47837e-10 -2.07901e-09 1.29361e-09)
(1.51363e-09 -5.81606e-09 3.65479e-09)
(2.35781e-09 -9.3031e-09 5.95498e-09)
(3.08484e-09 -1.26784e-08 8.34416e-09)
(3.69018e-09 -1.604e-08 1.09443e-08)
(4.1612e-09 -1.94424e-08 1.38632e-08)
(4.471e-09 -2.28925e-08 1.7192e-08)
(4.5681e-09 -2.63606e-08 2.10106e-08)
(4.36677e-09 -2.97633e-08 2.53758e-08)
(3.73086e-09 -3.2953e-08 3.03045e-08)
(2.45795e-09 -3.56875e-08 3.57206e-08)
(2.39704e-10 -3.76316e-08 4.13656e-08)
(-3.36774e-09 -3.83595e-08 4.67128e-08)
(-9.23582e-09 -3.75921e-08 5.05593e-08)
(-1.85769e-08 -3.58027e-08 5.0614e-08)
(-3.02852e-08 -3.51305e-08 4.47897e-08)
(9.10974e-10 -3.3969e-09 2.12279e-09)
(2.51807e-09 -9.50687e-09 5.99699e-09)
(3.92763e-09 -1.52156e-08 9.77243e-09)
(5.14995e-09 -2.07443e-08 1.36853e-08)
(6.18399e-09 -2.62574e-08 1.79385e-08)
(7.01518e-09 -3.18509e-08 2.27066e-08)
(7.60764e-09 -3.75591e-08 2.81441e-08)
(7.89165e-09 -4.33513e-08 3.43835e-08)
(7.74671e-09 -4.91255e-08 4.15226e-08)
(6.98179e-09 -5.46816e-08 4.95898e-08)
(5.28766e-09 -5.97306e-08 5.84509e-08)
(2.29456e-09 -6.38797e-08 6.77851e-08)
(-2.5874e-09 -6.68145e-08 7.67435e-08)
(-1.0073e-08 -6.87046e-08 8.38026e-08)
(-2.05502e-08 -7.09107e-08 8.6466e-08)
(-3.15735e-08 -7.52186e-08 8.31574e-08)
(1.2708e-09 -4.61027e-09 2.9046e-09)
(3.51329e-09 -1.29088e-08 8.19916e-09)
(5.48982e-09 -2.06706e-08 1.33591e-08)
(7.22027e-09 -2.82006e-08 1.86972e-08)
(8.71275e-09 -3.57239e-08 2.44855e-08)
(9.96013e-09 -4.3391e-08 3.09648e-08)
(1.09312e-08 -5.12747e-08 3.83493e-08)
(1.1558e-08 -5.93726e-08 4.68259e-08)
(1.1715e-08 -6.7591e-08 5.65351e-08)
(1.11847e-08 -7.57407e-08 6.75268e-08)
(9.62441e-09 -8.3522e-08 7.96854e-08)
(6.51707e-09 -9.05497e-08 9.25938e-08)
(1.06263e-09 -9.64978e-08 1.05318e-07)
(-7.77756e-09 -1.01503e-07 1.16081e-07)
(-2.05692e-08 -1.06651e-07 1.22115e-07)
(-3.42053e-08 -1.12693e-07 1.21335e-07)
(1.62249e-09 -5.6761e-09 3.61772e-09)
(4.49062e-09 -1.58975e-08 1.02142e-08)
(7.02995e-09 -2.54724e-08 1.66326e-08)
(9.27632e-09 -3.47784e-08 2.3257e-08)
(1.12539e-08 -4.4106e-08 3.04218e-08)
(1.29715e-08 -5.36613e-08 3.84232e-08)
(1.44182e-08 -6.35708e-08 4.75305e-08)
(1.55508e-08 -7.38769e-08 5.79818e-08)
(1.62758e-08 -8.45332e-08 6.99669e-08)
(1.64033e-08 -9.53957e-08 8.35741e-08)
(1.56035e-08 -1.06208e-07 9.87262e-08)
(1.32839e-08 -1.16576e-07 1.15015e-07)
(8.37858e-09 -1.26004e-07 1.31476e-07)
(-7.82577e-10 -1.34068e-07 1.46176e-07)
(-1.57222e-08 -1.40772e-07 1.55958e-07)
(-3.30335e-08 -1.46436e-07 1.57824e-07)
(1.96192e-09 -6.55197e-09 4.2513e-09)
(5.43409e-09 -1.83568e-08 1.19974e-08)
(8.52232e-09 -2.94309e-08 1.9521e-08)
(1.12816e-08 -4.02214e-08 2.72648e-08)
(1.37553e-08 -5.1077e-08 3.56109e-08)
(1.5977e-08 -6.22612e-08 4.49017e-08)
(1.79673e-08 -7.39571e-08 5.54503e-08)
(1.97293e-08 -8.62684e-08 6.75401e-08)
(2.12334e-08 -9.92148e-08 8.14061e-08)
(2.23837e-08 -1.12738e-07 9.71885e-08)
(2.29638e-08 -1.26674e-07 1.1486e-07)
(2.24935e-08 -1.40694e-07 1.3408e-07)
(1.99163e-08 -1.54189e-07 1.53948e-07)
(1.31411e-08 -1.66044e-07 1.72474e-07)
(-8.46186e-10 -1.74305e-07 1.86166e-07)
(-2.08045e-08 -1.76828e-07 1.91098e-07)
(2.28135e-09 -7.20062e-09 4.79125e-09)
(6.32386e-09 -2.01807e-08 1.3517e-08)
(9.93354e-09 -3.23788e-08 2.1973e-08)
(1.31844e-08 -4.42976e-08 3.06455e-08)
(1.61421e-08 -5.63363e-08 3.99521e-08)
(1.8866e-08 -6.88094e-08 5.0265e-08)
(2.14145e-08 -8.19547e-08 6.19277e-08)
(2.38443e-08 -9.59349e-08 7.52537e-08)
(2.62126e-08 -1.10848e-07 9.05168e-08)
(2.85574e-08 -1.26732e-07 1.07888e-07)
(3.08719e-08 -1.43566e-07 1.27368e-07)
(3.30477e-08 -1.61219e-07 1.48744e-07)
(3.45797e-08 -1.79363e-07 1.71166e-07)
(3.41391e-08 -1.97142e-07 1.92608e-07)
(2.89677e-08 -2.12352e-07 2.09021e-07)
(1.7061e-08 -2.20385e-07 2.15035e-07)
(2.57365e-09 -7.59069e-09 5.23263e-09)
(7.13783e-09 -2.12841e-08 1.47536e-08)
(1.1225e-08 -3.41775e-08 2.39569e-08)
(1.49275e-08 -4.68139e-08 3.33564e-08)
(1.83285e-08 -5.9631e-08 4.33882e-08)
(2.15118e-08 -7.29805e-08 5.44369e-08)
(2.45668e-08 -8.71426e-08 6.68581e-08)
(2.75994e-08 -1.0233e-07 8.098e-08)
(3.07412e-08 -1.18694e-07 9.70845e-08)
(3.41408e-08 -1.36354e-07 1.15312e-07)
(3.80411e-08 -1.55383e-07 1.35783e-07)
(4.26652e-08 -1.75845e-07 1.5816e-07)
(4.83081e-08 -1.97772e-07 1.81753e-07)
(5.52349e-08 -2.21103e-07 2.04453e-07)
(6.36825e-08 -2.45175e-07 2.21519e-07)
(7.28149e-08 -2.65644e-07 2.25322e-07)
(1.72939e-10 -7.09118e-10 3.77046e-10)
(4.76497e-10 -1.98309e-09 1.06547e-09)
(7.36684e-10 -3.1714e-09 1.73369e-09)
(9.52185e-10 -4.32148e-09 2.42853e-09)
(1.11655e-09 -5.46965e-09 3.18398e-09)
(1.21942e-09 -6.63554e-09 4.0294e-09)
(1.24461e-09 -7.81957e-09 4.98967e-09)
(1.16276e-09 -9.0141e-09 6.08447e-09)
(9.25838e-10 -1.02008e-08 7.32779e-09)
(4.56871e-10 -1.13436e-08 8.71672e-09)
(-3.73764e-10 -1.23964e-08 1.02151e-08)
(-1.77091e-09 -1.32905e-08 1.17518e-08)
(-4.16126e-09 -1.39672e-08 1.31615e-08)
(-8.53612e-09 -1.4381e-08 1.42182e-08)
(-1.71117e-08 -1.45307e-08 1.46308e-08)
(-3.11498e-08 -1.4244e-08 1.4227e-08)
(5.18824e-10 -2.10605e-09 1.12252e-09)
(1.42839e-09 -5.89243e-09 3.16754e-09)
(2.21181e-09 -9.42536e-09 5.16134e-09)
(2.862e-09 -1.28479e-08 7.22433e-09)
(3.36462e-09 -1.62618e-08 9.46507e-09)
(3.69325e-09 -1.97232e-08 1.19713e-08)
(3.80074e-09 -2.3248e-08 1.48163e-08)
(3.60652e-09 -2.68183e-08 1.80606e-08)
(2.98008e-09 -3.03779e-08 2.17397e-08)
(1.71208e-09 -3.38323e-08 2.58381e-08)
(-5.12906e-10 -3.70383e-08 3.02474e-08)
(-4.14049e-09 -3.9832e-08 3.47359e-08)
(-9.8702e-09 -4.2086e-08 3.87521e-08)
(-1.86287e-08 -4.38131e-08 4.14843e-08)
(-3.09258e-08 -4.52299e-08 4.18025e-08)
(-4.31206e-08 -4.63144e-08 3.96496e-08)
(8.64603e-10 -3.4413e-09 1.84239e-09)
(2.38208e-09 -9.63159e-09 5.19892e-09)
(3.69409e-09 -1.54151e-08 8.4688e-09)
(4.79523e-09 -2.10195e-08 1.185e-08)
(5.66822e-09 -2.6612e-08 1.55149e-08)
(6.27753e-09 -3.2295e-08 1.96091e-08)
(6.55755e-09 -3.8109e-08 2.42564e-08)
(6.39554e-09 -4.40409e-08 2.9558e-08)
(5.6063e-09 -5.00203e-08 3.55745e-08)
(3.89552e-09 -5.59109e-08 4.22812e-08)
(8.52144e-10 -6.15212e-08 4.956e-08)
(-4.117e-09 -6.66517e-08 5.69791e-08)
(-1.17112e-08 -7.12172e-08 6.389e-08)
(-2.24914e-08 -7.55047e-08 6.92059e-08)
(-3.56238e-08 -8.02961e-08 7.18112e-08)
(-4.60421e-08 -8.55194e-08 7.20315e-08)
(1.20895e-09 -4.67091e-09 2.51854e-09)
(3.33563e-09 -1.30766e-08 7.11263e-09)
(5.18388e-09 -2.09397e-08 1.15792e-08)
(6.75713e-09 -2.8568e-08 1.61914e-08)
(8.04318e-09 -3.61921e-08 2.11794e-08)
(9.00879e-09 -4.39651e-08 2.67424e-08)
(9.58727e-09 -5.19672e-08 3.30536e-08)
(9.65951e-09 -6.02081e-08 4.02556e-08)
(9.02493e-09 -6.86201e-08 4.84346e-08)
(7.36611e-09 -7.706e-08 5.75895e-08)
(4.20693e-09 -8.53095e-08 6.75553e-08)
(-1.11839e-09 -9.31156e-08 7.79072e-08)
(-9.46713e-09 -1.00311e-07 8.78501e-08)
(-2.15041e-08 -1.07071e-07 9.62306e-08)
(-3.63276e-08 -1.1401e-07 1.01854e-07)
(-4.84138e-08 -1.20633e-07 1.04601e-07)
(1.55014e-09 -5.7497e-09 3.14012e-09)
(4.28066e-09 -1.6103e-08 8.8608e-09)
(6.66976e-09 -2.5799e-08 1.44186e-08)
(8.73397e-09 -3.52207e-08 2.01431e-08)
(1.04746e-08 -4.4661e-08 2.63169e-08)
(1.1873e-08 -5.43282e-08 3.31866e-08)
(1.28797e-08 -6.43492e-08 4.09697e-08)
(1.33988e-08 -7.47708e-08 4.9847e-08)
(1.32589e-08 -8.55557e-08 5.99381e-08)
(1.21748e-08 -9.65757e-08 7.12664e-08)
(9.68967e-09 -1.07606e-07 8.36726e-08)
(5.08837e-09 -1.18303e-07 9.67244e-08)
(-2.69673e-09 -1.28241e-07 1.09588e-07)
(-1.48615e-08 -1.37001e-07 1.21027e-07)
(-3.1363e-08 -1.44311e-07 1.29675e-07)
(-4.6522e-08 -1.49731e-07 1.34811e-07)
(1.88206e-09 -6.6363e-09 3.68978e-09)
(5.20325e-09 -1.85905e-08 1.04092e-08)
(8.12797e-09 -2.9801e-08 1.69253e-08)
(1.06908e-08 -4.07182e-08 2.36174e-08)
(1.29128e-08 -5.1692e-08 3.08095e-08)
(1.47991e-08 -6.29831e-08 3.87861e-08)
(1.63334e-08 -7.47705e-08 4.77997e-08)
(1.74675e-08 -8.71486e-08 5.80661e-08)
(1.80987e-08 -1.00126e-07 6.97339e-08)
(1.80394e-08 -1.13619e-07 8.28493e-08)
(1.69566e-08 -1.27431e-07 9.72724e-08)
(1.42579e-08 -1.41181e-07 1.12575e-07)
(8.88163e-09 -1.54197e-07 1.27888e-07)
(-7.91634e-10 -1.65281e-07 1.41861e-07)
(-1.6175e-08 -1.72362e-07 1.52888e-07)
(-3.36381e-08 -1.73193e-07 1.59863e-07)
(2.19828e-09 -7.29156e-09 4.16043e-09)
(6.08332e-09 -2.04335e-08 1.17293e-08)
(9.52391e-09 -3.27772e-08 1.90539e-08)
(1.25747e-08 -4.48278e-08 2.65499e-08)
(1.52792e-08 -5.69839e-08 3.45709e-08)
(1.76709e-08 -6.95538e-08 4.34254e-08)
(1.97733e-08 -8.27638e-08 5.33905e-08)
(2.15981e-08 -9.67564e-08 6.47055e-08)
(2.31335e-08 -1.11594e-07 7.75349e-08)
(2.43351e-08 -1.27256e-07 9.19412e-08)
(2.51045e-08 -1.43615e-07 1.07814e-07)
(2.51778e-08 -1.60386e-07 1.24655e-07)
(2.40255e-08 -1.77007e-07 1.41567e-07)
(2.06683e-08 -1.92353e-07 1.56933e-07)
(1.38256e-08 -2.04126e-07 1.68567e-07)
(4.12858e-09 -2.08598e-07 1.74976e-07)
(2.49028e-09 -7.68522e-09 4.54338e-09)
(6.89708e-09 -2.15459e-08 1.28039e-08)
(1.08172e-08 -3.45884e-08 2.07775e-08)
(1.43241e-08 -4.73576e-08 2.8904e-08)
(1.74819e-08 -6.02872e-08 3.75514e-08)
(2.03501e-08 -7.37215e-08 4.7039e-08)
(2.29891e-08 -8.79234e-08 5.76541e-08)
(2.54642e-08 -1.03075e-07 6.96425e-08)
(2.78465e-08 -1.19279e-07 8.31711e-08)
(3.02401e-08 -1.3656e-07 9.83376e-08)
(3.27321e-08 -1.54856e-07 1.14878e-07)
(3.54795e-08 -1.73986e-07 1.32445e-07)
(3.8632e-08 -1.93639e-07 1.49925e-07)
(4.26237e-08 -2.13326e-07 1.65415e-07)
(4.87637e-08 -2.32274e-07 1.75833e-07)
(5.87412e-08 -2.47986e-07 1.78632e-07)
(1.63922e-10 -7.15772e-10 3.05984e-10)
(4.49743e-10 -2.00182e-09 8.62542e-10)
(6.91647e-10 -3.2003e-09 1.40628e-09)
(8.83002e-10 -4.36324e-09 1.96693e-09)
(1.01498e-09 -5.52617e-09 2.57553e-09)
(1.07454e-09 -6.70741e-09 3.25655e-09)
(1.0389e-09 -7.91173e-09 4.02545e-09)
(8.71527e-10 -9.13645e-09 4.89879e-09)
(5.15734e-10 -1.03647e-08 5.88225e-09)
(-1.20716e-10 -1.15819e-08 6.97241e-09)
(-1.17402e-09 -1.27528e-08 8.1446e-09)
(-2.87909e-09 -1.38567e-08 9.32671e-09)
(-5.67217e-09 -1.4878e-08 1.04266e-08)
(-1.05323e-08 -1.58228e-08 1.13632e-08)
(-1.9564e-08 -1.66456e-08 1.2197e-08)
(-3.37127e-08 -1.67613e-08 1.30182e-08)
(4.91951e-10 -2.12605e-09 9.09904e-10)
(1.35117e-09 -5.94773e-09 2.57015e-09)
(2.07775e-09 -9.51665e-09 4.18296e-09)
(2.65846e-09 -1.29737e-08 5.85241e-09)
(3.06863e-09 -1.64272e-08 7.66166e-09)
(3.26988e-09 -1.99376e-08 9.6784e-09)
(3.20141e-09 -2.35207e-08 1.19588e-08)
(2.76278e-09 -2.71658e-08 1.45442e-08)
(1.79548e-09 -3.08425e-08 1.74577e-08)
(6.33356e-11 -3.44779e-08 2.06797e-08)
(-2.77763e-09 -3.79848e-08 2.41303e-08)
(-7.21597e-09 -4.12657e-08 2.75601e-08)
(-1.38873e-08 -4.42429e-08 3.06756e-08)
(-2.35285e-08 -4.68823e-08 3.2999e-08)
(-3.60454e-08 -4.895e-08 3.40858e-08)
(-4.71728e-08 -4.96142e-08 3.39051e-08)
(8.21499e-10 -3.47459e-09 1.49398e-09)
(2.25815e-09 -9.72432e-09 4.21942e-09)
(3.48006e-09 -1.55644e-08 6.86739e-09)
(4.47035e-09 -2.12282e-08 9.60358e-09)
(5.19767e-09 -2.68816e-08 1.25621e-08)
(5.60977e-09 -3.26287e-08 1.58565e-08)
(5.61831e-09 -3.85181e-08 1.958e-08)
(5.08093e-09 -4.455e-08 2.38065e-08)
(3.77617e-09 -5.06695e-08 2.85702e-08)
(1.37914e-09 -5.6777e-08 3.38562e-08)
(-2.57199e-09 -6.27312e-08 3.94938e-08)
(-8.63945e-09 -6.83878e-08 4.52322e-08)
(-1.74176e-08 -7.36791e-08 5.05521e-08)
(-2.905e-08 -7.87417e-08 5.48949e-08)
(-4.18593e-08 -8.38295e-08 5.78342e-08)
(-5.03628e-08 -8.83319e-08 5.94961e-08)
(1.15288e-09 -4.71577e-09 2.04614e-09)
(3.1717e-09 -1.32041e-08 5.77107e-09)
(4.90249e-09 -2.11444e-08 9.3932e-09)
(6.33209e-09 -2.88458e-08 1.31254e-08)
(7.43104e-09 -3.65432e-08 1.71521e-08)
(8.14499e-09 -4.43924e-08 2.16281e-08)
(8.38066e-09 -5.24745e-08 2.66853e-08)
(7.98396e-09 -6.08057e-08 3.24241e-08)
(6.71705e-09 -6.93357e-08 3.89021e-08)
(4.2232e-09 -7.79389e-08 4.60917e-08)
(8.66406e-12 -8.64268e-08 5.38403e-08)
(-6.55172e-09 -9.4567e-08 6.17994e-08)
(-1.61044e-08 -1.02178e-07 6.94319e-08)
(-2.87664e-08 -1.0927e-07 7.61031e-08)
(-4.27077e-08 -1.16044e-07 8.13575e-08)
(-5.22771e-08 -1.21797e-07 8.49021e-08)
(1.4831e-09 -5.80569e-09 2.54919e-09)
(4.08673e-09 -1.62584e-08 7.19314e-09)
(6.33761e-09 -2.60463e-08 1.16996e-08)
(8.23459e-09 -3.55549e-08 1.63329e-08)
(9.7597e-09 -4.50754e-08 2.13167e-08)
(1.08716e-08 -5.48135e-08 2.68439e-08)
(1.14916e-08 -6.48982e-08 3.30786e-08)
(1.14889e-08 -7.53765e-08 4.01516e-08)
(1.06538e-08 -8.6208e-08 4.81385e-08)
(8.66735e-09 -9.72636e-08 5.70181e-08)
(5.06632e-09 -1.08307e-07 6.66365e-08)
(-7.94231e-10 -1.18982e-07 7.6623e-08)
(-9.71627e-09 -1.28802e-07 8.63901e-08)
(-2.22773e-08 -1.37207e-07 9.52425e-08)
(-3.74777e-08 -1.43672e-07 1.02633e-07)
(-4.97063e-08 -1.47802e-07 1.07836e-07)
(1.80807e-09 -6.69974e-09 2.9971e-09)
(4.9894e-09 -1.8768e-08 8.45223e-09)
(7.76286e-09 -3.00817e-08 1.37369e-08)
(1.01445e-08 -4.10903e-08 1.91537e-08)
(1.21361e-08 -5.21431e-08 2.49604e-08)
(1.37196e-08 -6.34977e-08 3.1378e-08)
(1.48501e-08 -7.53249e-08 3.85985e-08)
(1.54446e-08 -8.77068e-08 4.67743e-08)
(1.5367e-08 -1.00635e-07 5.59999e-08)
(1.43989e-08 -1.13993e-07 6.62635e-08)
(1.22084e-08 -1.27531e-07 7.74001e-08)
(8.27804e-09 -1.40798e-07 8.90047e-08)
(1.82791e-09 -1.53027e-07 1.00424e-07)
(-8.12408e-09 -1.62914e-07 1.10838e-07)
(-2.20103e-08 -1.68339e-07 1.19563e-07)
(-3.62843e-08 -1.6748e-07 1.25727e-07)
(2.12049e-09 -7.36054e-09 3.37864e-09)
(5.85918e-09 -2.06248e-08 9.52611e-09)
(9.14284e-09 -3.30771e-08 1.54675e-08)
(1.20084e-08 -4.52222e-08 2.15369e-08)
(1.44796e-08 -5.74534e-08 2.80135e-08)
(1.65681e-08 -7.00713e-08 3.51379e-08)
(1.8271e-08 -8.32897e-08 4.31196e-08)
(1.95689e-08 -9.72311e-08 5.21272e-08)
(2.04196e-08 -1.11918e-07 6.22695e-08)
(2.07543e-08 -1.2727e-07 7.35309e-08)
(2.04568e-08 -1.43072e-07 8.56909e-08)
(1.93582e-08 -1.58913e-07 9.8361e-08)
(1.71579e-08 -1.74091e-07 1.10709e-07)
(1.34698e-08 -1.87404e-07 1.21668e-07)
(7.98778e-09 -1.96767e-07 1.30214e-07)
(1.35403e-09 -1.9945e-07 1.35593e-07)
(2.41186e-09 -7.75652e-09 3.69104e-09)
(6.6719e-09 -2.17433e-08 1.04008e-08)
(1.04359e-08 -3.48968e-08 1.68704e-08)
(1.376e-08 -4.77587e-08 2.34517e-08)
(1.66917e-08 -6.07564e-08 3.04353e-08)
(1.92703e-08 -7.42251e-08 3.80706e-08)
(2.15322e-08 -8.84097e-08 4.65737e-08)
(2.35154e-08 -1.03461e-07 5.61217e-08)
(2.52689e-08 -1.19434e-07 6.68244e-08)
(2.68495e-08 -1.36273e-07 7.8599e-08)
(2.83812e-08 -1.53797e-07 9.13439e-08)
(3.00178e-08 -1.71678e-07 1.04403e-07)
(3.21265e-08 -1.89439e-07 1.16943e-07)
(3.56179e-08 -2.06534e-07 1.27538e-07)
(4.27209e-08 -2.2258e-07 1.34565e-07)
(5.54582e-08 -2.36476e-07 1.37016e-07)
(1.56538e-10 -7.19703e-10 2.24441e-10)
(4.2871e-10 -2.01299e-09 6.34663e-10)
(6.54439e-10 -3.22003e-09 1.0304e-09)
(8.27209e-10 -4.38807e-09 1.44189e-09)
(9.3483e-10 -5.55768e-09 1.88814e-09)
(9.58184e-10 -6.75811e-09 2.38531e-09)
(8.7541e-10 -7.97904e-09 2.94535e-09)
(6.45551e-10 -9.22195e-09 3.57778e-09)
(2.06702e-10 -1.04805e-08 4.2882e-09)
(-5.31443e-10 -1.17386e-08 5.07256e-09)
(-1.70474e-09 -1.29757e-08 5.90951e-09)
(-3.53616e-09 -1.41779e-08 6.76128e-09)
(-6.41356e-09 -1.53013e-08 7.57285e-09)
(-1.13034e-08 -1.63539e-08 8.34517e-09)
(-2.02821e-08 -1.72011e-08 9.19506e-09)
(-3.43702e-08 -1.7164e-08 1.01377e-08)
(4.70371e-10 -2.13894e-09 6.69288e-10)
(1.28777e-09 -5.98495e-09 1.88654e-09)
(1.96953e-09 -9.57205e-09 3.0708e-09)
(2.49253e-09 -1.30603e-08 4.2941e-09)
(2.82605e-09 -1.65507e-08 5.61865e-09)
(2.92807e-09 -2.0087e-08 7.0909e-09)
(2.72459e-09 -2.37074e-08 8.74992e-09)
(2.10494e-09 -2.74042e-08 1.06244e-08)
(9.03091e-10 -3.11503e-08 1.27273e-08)
(-1.11845e-09 -3.48912e-08 1.50438e-08)
(-4.28825e-09 -3.85531e-08 1.74988e-08)
(-9.02506e-09 -4.20302e-08 1.99748e-08)
(-1.58904e-08 -4.52275e-08 2.22516e-08)
(-2.54504e-08 -4.79742e-08 2.41099e-08)
(-3.74731e-08 -4.97994e-08 2.52894e-08)
(-4.79269e-08 -4.97942e-08 2.55416e-08)
(7.86779e-10 -3.49651e-09 1.09905e-09)
(2.15634e-09 -9.78683e-09 3.09827e-09)
(3.3039e-09 -1.5673e-08 5.04338e-09)
(4.20394e-09 -2.13733e-08 7.04868e-09)
(4.8143e-09 -2.70649e-08 9.21371e-09)
(5.06864e-09 -3.28645e-08 1.16191e-08)
(4.86744e-09 -3.88049e-08 1.43287e-08)
(4.05199e-09 -4.4897e-08 1.73913e-08)
(2.39077e-09 -5.10992e-08 2.08294e-08)
(-4.40633e-10 -5.73227e-08 2.46099e-08)
(-4.86096e-09 -6.34385e-08 2.86594e-08)
(-1.13428e-08 -6.92677e-08 3.275e-08)
(-2.03017e-08 -7.46979e-08 3.66078e-08)
(-3.16353e-08 -7.96948e-08 3.99141e-08)
(-4.34756e-08 -8.42427e-08 4.23987e-08)
(-5.08034e-08 -8.78116e-08 4.38654e-08)
(1.10629e-09 -4.74773e-09 1.50248e-09)
(3.037e-09 -1.32933e-08 4.24195e-09)
(4.6708e-09 -2.1285e-08 6.89974e-09)
(5.98213e-09 -2.90446e-08 9.6368e-09)
(6.92869e-09 -3.67977e-08 1.25841e-08)
(7.44303e-09 -4.46881e-08 1.5851e-08)
(7.41288e-09 -5.28157e-08 1.95296e-08)
(6.66828e-09 -6.11956e-08 2.36877e-08)
(4.95927e-09 -6.97804e-08 2.83546e-08)
(1.94231e-09 -7.84443e-08 3.35068e-08)
(-2.82106e-09 -8.69872e-08 3.90354e-08)
(-9.83164e-09 -9.51656e-08 4.47068e-08)
(-1.94925e-08 -1.027e-07 5.01709e-08)
(-3.16134e-08 -1.09444e-07 5.50752e-08)
(-4.4187e-08 -1.15402e-07 5.90994e-08)
(-5.22534e-08 -1.20094e-07 6.17366e-08)
(1.42798e-09 -5.84385e-09 1.87455e-09)
(3.92664e-09 -1.63688e-08 5.28749e-09)
(6.06296e-09 -2.62261e-08 8.59705e-09)
(7.82189e-09 -3.57914e-08 1.19946e-08)
(9.17188e-09 -4.53598e-08 1.56419e-08)
(1.00551e-08 -5.51451e-08 1.96763e-08)
(1.03746e-08 -6.52605e-08 2.42114e-08)
(9.98146e-09 -7.57538e-08 2.93334e-08)
(8.65796e-09 -8.65797e-08 3.50811e-08)
(6.10354e-09 -9.75926e-08 4.14355e-08)
(1.92139e-09 -1.08533e-07 4.82817e-08)
(-4.38227e-09 -1.18988e-07 5.53524e-08)
(-1.33309e-08 -1.2841e-07 6.2246e-08)
(-2.51529e-08 -1.36116e-07 6.85682e-08)
(-3.86978e-08 -1.41483e-07 7.39231e-08)
(-4.91965e-08 -1.44434e-07 7.75287e-08)
(1.7469e-09 -6.74518e-09 2.20346e-09)
(4.81193e-09 -1.88944e-08 6.21458e-09)
(7.45943e-09 -3.02792e-08 1.0096e-08)
(9.6922e-09 -4.13534e-08 1.40695e-08)
(1.14961e-08 -5.24584e-08 1.83199e-08)
(1.28356e-08 -6.38406e-08 2.30035e-08)
(1.36493e-08 -7.56726e-08 2.82541e-08)
(1.38378e-08 -8.80251e-08 3.41729e-08)
(1.3257e-08 -1.00867e-07 4.0807e-08)
(1.17093e-08 -1.14048e-07 4.81332e-08)
(8.93234e-09 -1.2727e-07 5.6025e-08)
(4.57711e-09 -1.40035e-07 6.41815e-08)
(-1.85176e-09 -1.51504e-07 7.21138e-08)
(-1.09744e-08 -1.60331e-07 7.93425e-08)
(-2.30569e-08 -1.64461e-07 8.53902e-08)
(-3.54551e-08 -1.62513e-07 8.94469e-08)
(2.05591e-09 -7.40896e-09 2.48562e-09)
(5.67281e-09 -2.07609e-08 7.00539e-09)
(8.82633e-09 -3.32919e-08 1.13709e-08)
(1.15372e-08 -4.54986e-08 1.58235e-08)
(1.38162e-08 -5.77715e-08 2.05642e-08)
(1.56608e-08 -7.04081e-08 2.57642e-08)
(1.70486e-08 -8.36055e-08 3.15682e-08)
(1.79456e-08 -9.74685e-08 3.80888e-08)
(1.83036e-08 -1.11988e-07 4.53706e-08)
(1.80713e-08 -1.27033e-07 5.33818e-08)
(1.7212e-08 -1.42324e-07 6.20112e-08)
(1.56826e-08 -1.57382e-07 7.08171e-08)
(1.3478e-08 -1.71466e-07 7.92556e-08)
(1.05673e-08 -1.83409e-07 8.66558e-08)