/*--------------------------------*- C++ -*----------------------------------*\
| =========                 |                                                 |
| \\      /  F ield         | OpenFOAM: The Open Source CFD Toolbox           |
|  \\    /   O peration     | Version:  v1912                                 |
|   \\  /    A nd           | Website:  www.openfoam.com                      |
|    \\/     M anipulation  |                                                 |
\*---------------------------------------------------------------------------*/
FoamFile
{
    version     2.0;
    format      ascii;
    class       surfaceScalarField;
    location    "0.22/fluid";
    object      meshPhi;
}
// * * * * * * * * * * * * * * * * * * * * * * * * * * * * * * * * * * * * * //

dimensions      [0 3 -1 0 0 0 0];
oriented        oriented;


internalField   nonuniform List<scalar> 
41600
(
2.37589e-13
-8.92779e-13
3.26718e-13
-3.36511e-13
4.49573e-13
-2.6022e-12
9.61711e-13
-9.91047e-13
6.407e-13
-4.19367e-12
1.581e-12
-1.63075e-12
8.1486e-13
-5.72785e-12
2.22445e-12
-2.29721e-12
9.75402e-13
-7.24657e-12
2.92679e-12
-3.02665e-12
1.12526e-12
-8.7689e-12
3.71802e-12
-3.85065e-12
1.26722e-12
-1.02903e-11
4.62472e-12
-4.79779e-12
1.40472e-12
-1.17802e-11
5.67147e-12
-5.89532e-12
1.54446e-12
-1.31698e-11
6.88038e-12
-7.16928e-12
1.70342e-12
-1.43266e-11
8.26881e-12
-8.64397e-12
1.92582e-12
-1.5006e-11
9.84769e-12
-1.03432e-11
2.32929e-12
-1.47474e-11
1.1625e-11
-1.23023e-11
3.18218e-12
-1.26604e-11
1.36248e-11
-1.46122e-11
5.01432e-12
-7.05663e-12
1.5927e-11
-1.75196e-11
8.26962e-12
4.05769e-12
1.85581e-11
-2.13098e-11
2.45764e-11
2.39959e-11
-3.21299e-11
7.10558e-13
-1.76051e-12
9.72601e-13
-1.002e-12
1.34473e-12
-5.13301e-12
2.86299e-12
-2.95105e-12
1.91708e-12
-8.27593e-12
4.70648e-12
-4.85562e-12
2.43969e-12
-1.13075e-11
6.6205e-12
-6.83807e-12
2.92296e-12
-1.43105e-11
8.70729e-12
-9.00509e-12
3.37611e-12
-1.73291e-11
1.10563e-11
-1.1451e-11
3.80782e-12
-2.03658e-11
1.37476e-11
-1.4262e-11
4.22834e-12
-2.33752e-11
1.68549e-11
-1.75194e-11
4.65557e-12
-2.6245e-11
2.04424e-11
-2.12989e-11
5.13065e-12
-2.8762e-11
2.45577e-11
-2.56666e-11
5.75918e-12
-3.05544e-11
2.92208e-11
-3.06753e-11
6.81314e-12
-3.10007e-11
3.44172e-11
-3.63765e-11
8.87786e-12
-2.91447e-11
4.01098e-11
-4.28772e-11
1.30162e-11
-2.38133e-11
4.62626e-11
-5.04558e-11
1.98697e-11
-1.48864e-11
5.25946e-11
-5.916e-11
-4.49845e-12
5.85847e-11
-7.06782e-11
1.17697e-12
-2.57623e-12
1.59604e-12
-1.64473e-12
2.22815e-12
-7.51379e-12
4.6981e-12
-4.84385e-12
3.17875e-12
-1.21207e-11
7.72208e-12
-7.96846e-12
4.05002e-12
-1.65709e-11
1.08578e-11
-1.12162e-11
4.86053e-12
-2.09902e-11
1.42708e-11
-1.47598e-11
5.62727e-12
-2.54554e-11
1.81079e-11
-1.87546e-11
6.3665e-12
-2.9991e-11
2.25028e-11
-2.3344e-11
7.09622e-12
-3.45601e-11
2.75776e-11
-2.86627e-11
7.84222e-12
-3.9046e-11
3.34375e-11
-3.48333e-11
8.65164e-12
-4.32209e-11
4.01563e-11
-4.19555e-11
9.63886e-12
-4.66993e-11
4.77514e-11
-5.00889e-11
1.10779e-11
-4.88827e-11
5.6147e-11
-5.92341e-11
1.35113e-11
-4.89822e-11
6.51336e-11
-6.93265e-11
1.78425e-11
-4.63104e-11
7.43071e-11
-8.02196e-11
2.43867e-11
-4.12997e-11
8.28235e-11
-9.1137e-11
-3.53597e-11
9.04821e-11
-1.04553e-10
1.63203e-12
-3.31156e-12
2.18259e-12
-2.24956e-12
3.09114e-12
-9.66157e-12
6.42391e-12
-6.6242e-12
4.41413e-12
-1.55946e-11
1.05551e-11
-1.08931e-11
5.63251e-12
-2.13389e-11
1.48319e-11
-1.53223e-11
6.77496e-12
-2.70648e-11
1.94772e-11
-2.01449e-11
7.8687e-12
-3.28886e-11
2.46914e-11
-2.55729e-11
8.94107e-12
-3.88698e-11
3.06596e-11
-3.18046e-11
1.00219e-11
-4.5004e-11
3.75517e-11
-3.90265e-11
1.11466e-11
-5.12075e-11
4.55162e-11
-4.7409e-11
1.23629e-11
-5.72949e-11
5.46598e-11
-5.70893e-11
1.37614e-11
-6.29388e-11
6.50105e-11
-6.81411e-11
1.55219e-11
-6.76194e-11
7.64554e-11
-8.05252e-11
1.79473e-11
-7.06173e-11
8.8644e-11
-9.40153e-11
2.15225e-11
-7.11609e-11
1.0084e-10
-1.08073e-10
2.63776e-11
-6.90896e-11
1.11655e-10
-1.21268e-10
-6.47426e-11
1.20175e-10
-1.35278e-10
2.06988e-12
-3.9389e-12
2.71901e-12
-2.80268e-12
3.92253e-12
-1.14957e-11
8.00079e-12
-8.2508e-12
5.60691e-12
-1.85675e-11
1.3139e-11
-1.35601e-11
7.16598e-12
-2.54336e-11
1.84466e-11
-1.90566e-11
8.64012e-12
-3.23089e-11
2.41965e-11
-2.50258e-11
1.00697e-11
-3.93525e-11
3.06365e-11
-3.17296e-11
1.14979e-11
-4.66681e-11
3.79975e-11
-3.94153e-11
1.29735e-11
-5.43007e-11
4.64958e-11
-4.83191e-11
1.45522e-11
-6.22289e-11
5.63255e-11
-5.86611e-11
1.62985e-11
-7.03529e-11
6.76392e-11
-7.0628e-11
1.82972e-11
-7.8463e-11
8.05077e-11
-8.43406e-11
2.06506e-11
-8.6178e-11
9.48487e-11
-9.97911e-11
2.34245e-11
-9.28386e-11
1.10282e-10
-1.16715e-10
2.66184e-11
-9.73555e-11
1.25859e-10
-1.34334e-10
2.99669e-11
-9.83914e-11
1.39592e-10
-1.50547e-10
-9.46528e-11
1.49677e-10
-1.66059e-10
2.48349e-12
-4.43259e-12
3.19418e-12
-3.29256e-12
4.70855e-12
-1.29412e-11
9.39566e-12
-9.68938e-12
6.73629e-12
-2.09181e-11
1.54181e-11
-1.59122e-11
8.62134e-12
-2.86876e-11
2.16218e-11
-2.23364e-11
1.04167e-11
-3.65054e-11
2.83201e-11
-2.92899e-11
1.21777e-11
-4.45717e-11
3.57985e-11
-3.70746e-11
1.39671e-11
-5.30369e-11
4.43261e-11
-4.59784e-11
1.58602e-11
-6.20026e-11
5.4159e-11
-5.62805e-11
1.79475e-11
-7.15238e-11
6.55358e-11
-6.82486e-11
2.03412e-11
-8.16131e-11
7.86628e-11
-8.21283e-11
2.31856e-11
-9.22322e-11
9.3687e-11
-9.81248e-11
2.66411e-11
-1.03256e-10
1.10641e-10
-1.16361e-10
3.07846e-11
-1.14359e-10
1.29294e-10
-1.36744e-10
3.54466e-11
-1.24695e-10
1.48793e-10
-1.58631e-10
3.97511e-11
-1.32306e-10
1.66796e-10
-1.79546e-10
-1.31079e-10
1.80527e-10
-1.99129e-10
2.86502e-12
-4.77051e-12
3.59971e-12
-3.71053e-12
5.4337e-12
-1.39336e-11
1.05837e-11
-1.09144e-11
7.77824e-12
-2.25413e-11
1.73515e-11
-1.7907e-11
9.96399e-12
-3.09532e-11
2.42986e-11
-2.51006e-11
1.20557e-11
-3.94583e-11
3.17673e-11
-3.28536e-11
1.41232e-11
-4.8292e-11
4.00691e-11
-4.14955e-11
1.6249e-11
-5.7645e-11
4.94991e-11
-5.1342e-11
1.85363e-11
-6.76696e-11
6.03414e-11
-6.27027e-11
2.11176e-11
-7.84913e-11
7.28675e-11
-7.58803e-11
2.41742e-11
-9.0227e-11
8.73288e-11
-9.11714e-11
2.79674e-11
-1.0301e-10
1.03952e-10
-1.08874e-10
3.28638e-11
-1.17022e-10
1.22925e-10
-1.2929e-10
3.93134e-11
-1.32524e-10
1.44309e-10
-1.52675e-10
4.77293e-11
-1.49767e-10
1.67716e-10
-1.78984e-10
5.72674e-11
-1.67937e-10
1.91063e-10
-2.0614e-10
-1.86731e-10
2.11019e-10
-2.35418e-10
3.20664e-12
3.93044e-12
-4.05132e-12
-4.93529e-12
6.08253e-12
1.15502e-11
-1.19105e-11
-1.44221e-11
8.70885e-12
1.89151e-11
-1.95197e-11
-2.33539e-11
1.11593e-11
2.64433e-11
-2.73142e-11
-3.21135e-11
1.35074e-11
3.4493e-11
-3.56698e-11
-4.10116e-11
1.58341e-11
4.33879e-11
-4.4929e-11
-5.03075e-11
1.82359e-11
5.34338e-11
-5.54193e-11
-6.02201e-11
2.08362e-11
6.49248e-11
-6.74609e-11
-7.0936e-11
2.3799e-11
7.8142e-11
-8.13672e-11
-8.26234e-11
2.7359e-11
9.33507e-11
-9.7452e-11
-9.5455e-11
3.18698e-11
1.1081e-10
-1.16054e-10
-1.09643e-10
3.78727e-11
1.30793e-10
-1.3758e-10
-1.25495e-10
4.61665e-11
1.53559e-10
-1.62525e-10
-1.43481e-10
5.78098e-11
1.79135e-10
-1.91375e-10
-1.64252e-10
7.2165e-11
2.05794e-10
-2.22596e-10
-1.87164e-10
2.32485e-10
-2.64472e-10
-2.2041e-10
2.26699e-13
-9.11151e-13
3.04591e-13
4.27489e-13
-2.65578e-12
8.96301e-13
6.05479e-13
-4.2804e-12
1.47255e-12
7.62642e-13
-5.84765e-12
2.06976e-12
8.99893e-13
-7.40166e-12
2.71947e-12
1.01679e-12
-8.96424e-12
3.44873e-12
1.1109e-12
-1.05345e-11
4.28103e-12
1.17725e-12
-1.20875e-11
5.23687e-12
1.20823e-12
-1.35661e-11
6.33213e-12
1.19574e-12
-1.48618e-11
7.57352e-12
1.13977e-12
-1.57817e-11
8.95022e-12
1.06476e-12
-1.59833e-11
1.04212e-11
1.03316e-12
-1.48573e-11
1.18908e-11
1.13337e-12
-1.13793e-11
1.31496e-11
1.34434e-12
-4.58793e-12
1.37765e-11
5.05995e-12
1.24187e-11
6.78618e-13
-1.79624e-12
9.06652e-13
1.28003e-12
-5.23702e-12
2.66792e-12
1.81403e-12
-8.44407e-12
4.38283e-12
2.2872e-12
-1.154e-11
6.15903e-12
2.70302e-12
-1.46121e-11
8.08958e-12
3.06108e-12
-1.77089e-11
1.0255e-11
3.35538e-12
-2.08384e-11
1.2726e-11
3.57257e-12
-2.39648e-11
1.55638e-11
3.69106e-12
-2.69945e-11
1.88154e-11
3.68608e-12
-2.97518e-11
2.24987e-11
3.54968e-12
-3.19422e-11
2.65779e-11
3.33178e-12
-3.31064e-11
3.09214e-11
3.17709e-12
-3.26159e-11
3.52246e-11
3.32962e-12
-2.98835e-11
3.88592e-11
3.86961e-12
-2.5256e-11
4.07409e-11
-2.23055e-11
3.7361e-11
1.12614e-12
-2.62787e-12
1.48769e-12
2.12534e-12
-7.6641e-12
4.37743e-12
3.01537e-12
-1.23637e-11
7.18984e-12
3.80913e-12
-1.6907e-11
1.00994e-11
4.51478e-12
-2.14254e-11
1.3257e-11
5.13479e-12
-2.60011e-11
1.67949e-11
5.6636e-12
-3.06645e-11
2.08306e-11
6.08468e-12
-3.53889e-11
2.54664e-11
6.36751e-12
-4.00771e-11
3.07802e-11
6.47016e-12
-4.45401e-11
3.68031e-11
6.35845e-12
-4.84694e-11
4.34784e-11
6.0426e-12
-5.14211e-11
5.05922e-11
5.61468e-12
-5.28932e-11
5.76516e-11
5.30967e-12
-5.26501e-11
6.36989e-11
5.38392e-12
-5.13711e-11
6.72827e-11
-5.12866e-11
6.5409e-11
1.56571e-12
-3.37732e-12
2.03437e-12
2.95721e-12
-9.85298e-12
5.98518e-12
4.20196e-12
-1.5904e-11
9.82701e-12
5.32132e-12
-2.1766e-11
1.37951e-11
6.33125e-12
-2.76159e-11
1.80928e-11
7.24154e-12
-3.35749e-11
2.29009e-11
8.05371e-12
-3.97079e-11
2.83816e-11
8.75734e-12
-4.60181e-11
3.46784e-11
9.32423e-12
-5.24366e-11
4.19033e-11
9.70313e-12
-5.88072e-11
5.01099e-11
9.82442e-12
-6.48603e-11
5.92425e-11
9.59683e-12
-7.0192e-11
6.90458e-11
8.89963e-12
-7.43007e-11
7.8912e-11
7.66768e-12
-7.67816e-11
8.76608e-11
6.14608e-12
-7.77622e-11
9.35151e-11
-7.88359e-11
9.32206e-11
1.99224e-12
-4.01649e-12
2.53443e-12
3.76608e-12
-1.17215e-11
7.45448e-12
5.36013e-12
-1.8932e-11
1.22326e-11
6.80634e-12
-2.59357e-11
1.7157e-11
8.13153e-12
-3.29538e-11
2.24769e-11
9.35779e-12
-4.01498e-11
2.84151e-11
1.05016e-11
-4.76306e-11
3.5175e-11
1.1571e-11
-5.54446e-11
4.2939e-11
1.25584e-11
-6.35769e-11
5.18566e-11
1.34296e-11
-7.19401e-11
6.20158e-11
1.41086e-11
-8.03508e-11
7.33891e-11
1.44242e-11
-8.84824e-11
8.57348e-11
1.4015e-11
-9.57933e-11
9.84113e-11
1.23255e-11
-1.01441e-10
1.10085e-10
9.2001e-12
-1.04436e-10
1.18575e-10
-1.05656e-10
1.20116e-10
2.39903e-12
-4.51922e-12
2.97749e-12
4.53882e-12
-1.31932e-11
8.75449e-12
6.46992e-12
-2.13244e-11
1.43551e-11
8.23605e-12
-2.92458e-11
2.01109e-11
9.87702e-12
-3.72192e-11
2.63082e-11
1.14309e-11
-4.54482e-11
3.3204e-11
1.29356e-11
-5.40837e-11
4.10348e-11
1.44292e-11
-6.32258e-11
5.00171e-11
1.59453e-11
-7.29262e-11
6.03362e-11
1.75066e-11
-8.31915e-11
7.21199e-11
1.91057e-11
-9.39733e-11
8.5391e-11
2.0635e-11
-1.05131e-10
9.99726e-11
2.17262e-11
-1.16324e-10
1.15284e-10
2.1558e-11
-1.26724e-10
1.29957e-10
1.91987e-11
-1.34568e-10
1.41442e-10
-1.36064e-10
1.45473e-10
2.77808e-12
-4.86298e-12
3.3557e-12
5.2595e-12
-1.42025e-11
9.86204e-12
7.50643e-12
-2.29744e-11
1.61561e-11
9.57412e-12
-3.15469e-11
2.2602e-11
1.15155e-11
-4.02148e-11
2.95124e-11
1.33853e-11
-4.92157e-11
3.71677e-11
1.52448e-11
-5.87384e-11
4.58269e-11
1.71663e-11
-6.89293e-11
5.57302e-11
1.92366e-11
-7.99017e-11
6.70886e-11
2.15634e-11
-9.17508e-11
8.00613e-11
2.42786e-11
-1.04569e-10
9.472e-11
2.75119e-11
-1.18462e-10
1.10971e-10
3.12922e-11
-1.33548e-10
1.28354e-10
3.53352e-11
-1.49816e-10
1.45574e-10
3.85782e-11
-1.6626e-10
1.59784e-10
-1.8127e-10
1.65693e-10
3.12097e-12
3.66423e-12
-5.03017e-12
5.91145e-12
1.07633e-11
-1.4698e-11
8.44355e-12
1.76133e-11
-2.3798e-11
1.07822e-11
2.45992e-11
-3.27213e-11
1.2991e-11
3.2048e-11
-4.17842e-11
1.51383e-11
4.02509e-11
-5.12473e-11
1.73044e-11
4.94761e-11
-6.13258e-11
1.95892e-11
5.99724e-11
-7.2197e-11
2.21237e-11
7.19571e-11
-8.40114e-11
2.50884e-11
8.55967e-11
-9.69097e-11
2.87408e-11
1.00979e-10
-1.11045e-10
3.34413e-11
1.18055e-10
-1.26615e-10
3.96614e-11
1.3645e-10
-1.43883e-10
4.78915e-11
1.55006e-10
-1.63093e-10
5.73775e-11
1.70786e-10
-1.83205e-10
1.76943e-10
-2.06558e-10
2.14859e-13
-9.26617e-13
2.71224e-13
4.03491e-13
-2.70099e-12
7.97868e-13
5.67174e-13
-4.35383e-12
1.31007e-12
7.05757e-13
-5.94945e-12
1.83979e-12
8.17461e-13
-7.53371e-12
2.41437e-12
8.98102e-13
-9.13118e-12
3.05687e-12
9.3956e-13
-1.07452e-11
3.78676e-12
9.27686e-13
-1.23588e-11
4.61984e-12
8.39623e-13
-1.39298e-11
5.56594e-12
6.4069e-13
-1.53817e-11
6.6229e-12
2.81528e-13
-1.65893e-11
7.76646e-12
-3.1276e-13
-1.73608e-11
8.93281e-12
-1.28404e-12
-1.74228e-11
9.98982e-12
-2.91956e-12
-1.6456e-11
1.06927e-11
-5.47839e-12
-1.44088e-11
1.06954e-11
-1.16837e-11
1.02706e-11
6.43877e-13
-1.82643e-12
8.07346e-13
1.20966e-12
-5.3251e-12
2.37496e-12
1.70182e-12
-8.58672e-12
3.89927e-12
2.12086e-12
-1.17373e-11
5.47468e-12
2.4626e-12
-1.48677e-11
7.18198e-12
2.71595e-12
-1.80306e-11
9.08995e-12
2.85881e-12
-2.1241e-11
1.1257e-11
2.85228e-12
-2.44751e-11
1.37307e-11
2.63307e-12
-2.76639e-11
1.65402e-11
2.10577e-12
-3.06802e-11
1.96795e-11
1.13827e-12
-3.33276e-11
2.30778e-11
-4.53775e-13
-3.53426e-11
2.65507e-11
-2.95685e-12
-3.64586e-11
2.97238e-11
-6.79603e-12
-3.66218e-11
3.1938e-11
-1.20262e-11
-3.63667e-11
3.2362e-11
-3.77144e-11
3.06815e-11
1.07075e-12
-2.67163e-12
1.32485e-12
2.01327e-12
-7.79153e-12
3.89704e-12
2.83704e-12
-1.25695e-11
6.39685e-12
3.54568e-12
-1.71907e-11
8.97744e-12
4.13571e-12
-2.17909e-11
1.17699e-11
4.59353e-12
-2.6457e-11
1.48873e-11
4.88962e-12
-3.12261e-11
1.8427e-11
4.97022e-12
-3.60842e-11
2.24684e-11
4.74559e-12
-4.09586e-11
2.70614e-11
4.07842e-12
-4.57085e-11
3.22012e-11
2.77712e-12
-5.01187e-11
3.7784e-11
5.82786e-13
-5.39212e-11
4.35365e-11
-2.83121e-12
-5.69064e-11
4.89178e-11
-7.70917e-12
-5.9189e-11
5.30329e-11
-1.34582e-11
-6.13929e-11
5.48658e-11
-6.45923e-11
5.47338e-11
1.49315e-12
-3.43304e-12
1.81195e-12
2.81065e-12
-1.0015e-11
5.32897e-12
3.96945e-12
-1.61649e-11
8.74391e-12
4.97946e-12
-2.21238e-11
1.22633e-11
5.84236e-12
-2.80732e-11
1.60641e-11
6.5485e-12
-3.41383e-11
2.03007e-11
7.07085e-12
-4.03884e-11
2.51079e-11
7.3555e-12
-4.68352e-11
3.05973e-11
7.30687e-12
-5.3427e-11
3.68429e-11
6.76976e-12
-6.00405e-11
4.38513e-11
5.50953e-12
-6.64717e-11
5.1509e-11
3.17464e-12
-7.2442e-11
5.95006e-11
-7.10903e-13
-7.76664e-11
6.72014e-11
-6.52549e-12
-8.20332e-11
7.35985e-11
-1.35136e-11
-8.57438e-11
7.75245e-11
-8.96785e-11
7.91903e-11
1.90685e-12
-4.08204e-12
2.25766e-12
3.59396e-12
-1.19118e-11
6.63802e-12
5.08815e-12
-1.92376e-11
1.08855e-11
6.40876e-12
-2.63525e-11
1.52532e-11
7.56718e-12
-3.3482e-11
1.9958e-11
8.56473e-12
-4.07914e-11
2.51904e-11
9.38799e-12
-4.83886e-11
3.11191e-11
1.00002e-11
-5.63237e-11
3.78867e-11
1.03256e-11
-6.45854e-11
4.55937e-11
1.02266e-11
-7.30955e-11
5.42672e-11
9.46478e-12
-8.16918e-11
6.38045e-11
7.61971e-12
-9.00982e-11
7.38847e-11
4.00366e-12
-9.78868e-11
8.38467e-11
-2.19642e-12
-1.04447e-10
9.25824e-11
-1.05829e-11
-1.09064e-10
9.86967e-11
-1.12423e-10
1.02164e-10
2.3055e-12
-4.59208e-12
2.65268e-12
4.35076e-12
-1.34045e-11
7.79659e-12
6.17412e-12
-2.16627e-11
1.27757e-11
7.80658e-12
-2.97048e-11
1.78812e-11
9.27259e-12
-3.77957e-11
2.33622e-11
1.059e-11
-4.6139e-11
2.94384e-11
1.1768e-11
-5.48823e-11
3.63057e-11
1.28023e-11
-6.41189e-11
4.41333e-11
1.36631e-11
-7.38897e-11
5.30468e-11
1.42757e-11
-8.4182e-11
6.30961e-11
1.44767e-11
-9.49168e-11
7.41992e-11
1.39106e-11
-1.05908e-10
8.60496e-11
1.18638e-11
-1.16766e-10
9.79717e-11
7.19494e-12
-1.26671e-10
1.08756e-10
-5.39009e-13
-1.34087e-10
1.16733e-10
-1.35771e-10
1.2178e-10
2.68095e-12
-4.94037e-12
2.98998e-12
5.06477e-12
-1.44267e-11
8.78398e-12
7.20177e-12
-2.33324e-11
1.43802e-11
9.13511e-12
-3.20305e-11
2.00986e-11
1.09034e-11
-4.08177e-11
2.6211e-11
1.2543e-11
-4.99296e-11
3.29567e-11
1.40896e-11
-5.95478e-11
4.05503e-11
1.55784e-11
-6.9805e-11
4.9179e-11
1.70408e-11
-8.07901e-11
5.89854e-11
1.84982e-11
-9.25549e-11
7.00346e-11
1.99383e-11
-1.05115e-10
8.22595e-11
2.12454e-11
-1.1844e-10
9.53669e-11
2.20669e-11
-1.32411e-10
1.08661e-10
2.16513e-11
-1.46647e-10
1.20787e-10
1.91822e-11
-1.59882e-10
1.29669e-10
-1.70653e-10
1.34832e-10
3.02426e-12
3.26524e-12
-5.10919e-12
5.71817e-12
9.5878e-12
-1.49268e-11
8.14289e-12
1.56794e-11
-2.41627e-11
1.03524e-11
2.18779e-11
-3.32122e-11
1.23978e-11
2.84676e-11
-4.23928e-11
1.43315e-11
3.5697e-11
-5.19617e-11
1.62125e-11
4.37881e-11
-6.21242e-11
1.81103e-11
5.29344e-11
-7.3039e-11
2.01111e-11
6.32817e-11
-8.48238e-11
2.2324e-11
7.48935e-11
-9.75624e-11
2.48833e-11
8.76994e-11
-1.11308e-10
2.79295e-11
1.01404e-10
-1.26079e-10
3.15663e-11
1.15294e-10
-1.41825e-10
3.57622e-11
1.27922e-10
-1.58275e-10
3.98569e-11
1.36921e-10
-1.74e-10
1.40298e-10
-1.8982e-10
2.03116e-13
-9.38789e-13
2.28102e-13
3.79698e-13
-2.73655e-12
6.7085e-13
5.29183e-13
-4.41166e-12
1.10097e-12
6.49346e-13
-6.02999e-12
1.54501e-12
7.35832e-13
-7.63914e-12
2.02545e-12
7.81019e-13
-9.2658e-12
2.56086e-12
7.71754e-13
-1.09169e-11
3.16635e-12
6.86227e-13
-1.25821e-11
3.85343e-12
4.89718e-13
-1.42335e-11
4.62766e-12
1.28762e-13
-1.58216e-11
5.48347e-12
-4.77174e-13
-1.72741e-11
6.39528e-12
-1.45525e-12
-1.85006e-11
7.30596e-12
-3.02525e-12
-1.94111e-11
8.11826e-12
-5.53839e-12
-1.99512e-11
8.69813e-12
-9.07001e-12
-2.01305e-11
8.92743e-12
-1.9184e-11
9.44183e-12
6.09387e-13
-1.85041e-12
6.79087e-13
1.1398e-12
-5.39512e-12
1.99715e-12
1.59038e-12
-8.70037e-12
3.2773e-12
1.95568e-12
-1.1895e-11
4.59799e-12
2.22419e-12
-1.50724e-11
6.02564e-12
2.37502e-12
-1.82889e-11
7.61559e-12
2.37181e-12
-2.15651e-11
9.41335e-12
2.15431e-12
-2.48883e-11
1.14536e-11
1.62699e-12
-2.82111e-11
1.37531e-11
6.4527e-13
-3.14473e-11
1.62959e-11
-9.99852e-13
-3.44754e-11
1.90082e-11
-3.60874e-12
-3.71606e-11
2.1727e-11
-7.60631e-12
-3.9421e-11
2.41766e-11
-1.34341e-11
-4.13385e-11
2.59812e-11
-2.05515e-11
-4.31457e-11
2.68293e-11
-4.54764e-11
2.67022e-11
1.01564e-12
-2.70665e-12
1.11463e-12
1.90175e-12
-7.89362e-12
3.27777e-12
2.6595e-12
-1.27346e-11
5.37752e-12
3.2834e-12
-1.74179e-11
7.54108e-12
3.75889e-12
-2.20826e-11
9.8762e-12
4.05748e-12
-2.68189e-11
1.24739e-11
4.12842e-12
-3.16696e-11
1.54103e-11
3.88688e-12
-3.66314e-11
1.87435e-11
3.19801e-12
-4.16527e-11
2.2503e-11
1.85946e-12
-4.66311e-11
2.66672e-11
-4.12968e-13
-5.14192e-11
3.11278e-11
-3.99436e-12
-5.58575e-11
3.56468e-11
-9.28927e-12
-5.98698e-11
3.98283e-11
-1.63575e-11
-6.36112e-11
4.31548e-11
-2.3726e-11
-6.7364e-11
4.52178e-11
-7.13198e-11
4.64108e-11
1.42075e-12
-3.47777e-12
1.52479e-12
2.66435e-12
-1.01451e-11
4.48316e-12
3.73723e-12
-1.63742e-11
7.35208e-12
4.63798e-12
-2.24095e-11
1.0303e-11
5.35461e-12
-2.84351e-11
1.34813e-11
5.85934e-12
-3.45783e-11
1.70115e-11
6.09974e-12
-4.09117e-11
2.09989e-11
5.98575e-12
-4.74532e-11
2.55257e-11
5.37109e-12
-5.41634e-11
3.06364e-11
4.03157e-12
-6.09419e-11
3.63124e-11
1.64275e-12
-6.76255e-11
4.24306e-11
-2.23759e-12
-7.40018e-11
4.87152e-11
-8.08794e-12
-7.98679e-11
5.47114e-11
-1.59656e-11
-8.51386e-11
5.98411e-11
-2.41772e-11
-8.98069e-11
6.36102e-11
-9.41318e-11
6.62762e-11
1.82131e-12
-4.13467e-12
1.90027e-12
3.42147e-12
-1.20646e-11
5.58561e-12
4.81538e-12
-1.94821e-11
9.15458e-12
6.00986e-12
-2.66833e-11
1.28171e-11
7.00135e-12
-3.38949e-11
1.67514e-11
7.7716e-12
-4.12825e-11
2.11112e-11
8.28036e-12
-4.8953e-11
2.60284e-11
8.45352e-12
-5.69548e-11
3.16075e-11
8.16441e-12
-6.52754e-11
3.791e-11
7.20847e-12
-7.38349e-11
4.49261e-11
5.26525e-12
-8.24718e-11
5.25304e-11
1.84413e-12
-9.09168e-11
6.04292e-11
-3.70339e-12
-9.87585e-11
6.81296e-11
-1.181e-11
-1.05401e-10
7.49921e-11
-2.11373e-11
-1.10084e-10
8.03873e-11
-1.13058e-10
8.44076e-11
2.21134e-12
-4.65045e-12
2.23318e-12
4.16137e-12
-1.35736e-11
6.56171e-12
5.87597e-12
-2.19321e-11
1.07461e-11
7.37331e-12
-3.00659e-11
1.50278e-11
8.66274e-12
-3.82403e-11
1.96115e-11
9.74268e-12
-4.66564e-11
2.46743e-11
1.05964e-11
-5.54558e-11
3.03694e-11
1.11837e-11
-6.47216e-11
3.68202e-11
1.14271e-11
-7.44773e-11
4.41033e-11
1.11891e-11
-8.46817e-11
5.22174e-11
1.02297e-11
-9.52099e-11
6.10362e-11
8.12649e-12
-1.0581e-10
7.02484e-11
4.20124e-12
-1.16009e-10
7.93113e-11
-2.31838e-12
-1.24922e-10
8.74821e-11
-1.09291e-11
-1.31088e-10
9.39693e-11
-1.31266e-10
9.88672e-11
2.58262e-12
-5.00216e-12
2.51755e-12
4.86754e-12
-1.46054e-11
7.39394e-12
6.89282e-12
-2.36157e-11
1.20978e-11
8.68924e-12
-3.24076e-11
1.68943e-11
1.02811e-11
-4.12765e-11
2.20068e-11
1.16866e-11
-5.04528e-11
2.76278e-11
1.29179e-11
-6.01084e-11
3.3925e-11
1.3978e-11
-7.03575e-11
4.10345e-11
1.48554e-11
-8.12584e-11
4.90417e-11
1.55145e-11
-9.28107e-11
5.79469e-11
1.58691e-11
-1.04945e-10
6.76156e-11
1.57273e-11
-1.17499e-10
7.77075e-11
1.47306e-11
-1.30163e-10
8.76001e-11
1.24094e-11
-1.42355e-10
9.63688e-11
8.84125e-12
-1.52886e-10
1.02965e-10
-1.60804e-10
1.07494e-10
2.9257e-12
2.74972e-12
-5.17204e-12
5.52109e-12
8.07184e-12
-1.51083e-11
7.83583e-12
1.31931e-11
-2.44496e-11
9.9125e-12
1.83935e-11
-3.35919e-11
1.17892e-11
2.39063e-11
-4.28504e-11
1.35027e-11
2.99314e-11
-5.24756e-11
1.50912e-11
3.66423e-11
-6.26597e-11
1.65972e-11
4.41793e-11
-7.35383e-11
1.80702e-11
5.26271e-11
-8.51901e-11
1.957e-11
6.19782e-11
-9.7634e-11
2.1162e-11
7.20804e-11
-1.1082e-10
2.29038e-11
8.25596e-11
-1.24608e-10
2.48504e-11
9.27182e-11
-1.38725e-10
2.71275e-11
1.01467e-10
-1.52662e-10
2.98144e-11
1.07499e-10
-1.65141e-10
1.10218e-10
-1.77718e-10
1.92453e-13
-9.47681e-13
1.77177e-13
3.58095e-13
-2.76252e-12
5.20925e-13
4.9469e-13
-4.45407e-12
8.54518e-13
5.98166e-13
-6.08978e-12
1.1985e-12
6.62053e-13
-7.71853e-12
1.57004e-12
6.76051e-13
-9.36812e-12
1.98294e-12
6.23329e-13
-1.10477e-11
2.44809e-12
4.77083e-13
-1.27522e-11
2.97345e-12
1.96144e-13
-1.44632e-11
3.56231e-12
-2.80831e-13
-1.6148e-11
4.20943e-12
-1.04386e-12
-1.77622e-11
4.89458e-12
-2.22885e-12
-1.92571e-11
5.57788e-12
-4.05262e-12
-2.05918e-11
6.20274e-12
-6.81741e-12
-2.17231e-11
6.70889e-12
-1.0456e-11
-2.25023e-11
7.05223e-12
-2.16812e-11
7.77309e-12
5.78014e-13
-1.8682e-12
5.27566e-13
1.07622e-12
-5.44728e-12
1.55112e-12
1.48895e-12
-8.78555e-12
2.54426e-12
1.80553e-12
-1.20139e-11
3.56755e-12
2.00839e-12
-1.52275e-11
4.67162e-12
2.06896e-12
-1.84847e-11
5.89767e-12
1.94045e-12
-2.18098e-11
7.27869e-12
1.54876e-12
-2.51983e-11
8.83872e-12
7.81246e-13
-2.86172e-11
1.05875e-11
-5.26444e-13
-3.20051e-11
1.25095e-11
-2.60333e-12
-3.52776e-11
1.45465e-11
-5.75851e-12
-3.83474e-11
1.65841e-11
-1.03758e-11
-4.11651e-11
1.84549e-11
-1.67133e-11
-4.37403e-11
1.99701e-11
-2.38598e-11
-4.60068e-11
2.09816e-11
-4.81112e-11
2.13055e-11
9.65368e-13
-2.73301e-12
8.66139e-13
1.79994e-12
-7.97076e-12
2.54646e-12
2.49741e-12
-1.28597e-11
4.17601e-12
3.04438e-12
-1.75903e-11
5.8527e-12
3.41703e-12
-2.23031e-11
7.65856e-12
3.57515e-12
-2.70903e-11
9.66157e-12
3.45244e-12
-3.19982e-11
1.1917e-11
2.9442e-12
-3.70309e-11
1.44653e-11
1.89245e-12
-4.21498e-11
1.73235e-11
7.11586e-14
-4.72729e-11
2.04689e-11
-2.82004e-12
-5.22823e-11
2.38158e-11
-7.13921e-12
-5.70505e-11
2.71949e-11
-1.31765e-11
-6.15043e-11
3.03577e-11
-2.06698e-11
-6.56941e-11
3.3024e-11
-2.76916e-11
-6.96412e-11
3.49653e-11
-7.32897e-11
3.6239e-11
1.35446e-12
-3.51171e-12
1.18517e-12
2.53033e-12
-1.02441e-11
3.4839e-12
3.52456e-12
-1.65334e-11
5.71103e-12
4.32585e-12
-2.26259e-11
7.99824e-12
4.91079e-12
-2.87064e-11
1.04562e-11
5.23717e-12
-3.49027e-11
1.3178e-11
5.23401e-12
-4.1289e-11
1.62404e-11
4.78848e-12
-4.7886e-11
1.97001e-11
3.72943e-12
-5.46595e-11
2.3583e-11
1.81121e-12
-6.15165e-11
2.78655e-11
-1.2955e-12
-6.83032e-11
3.24477e-11
-5.98383e-12
-7.4814e-11
3.71286e-11
-1.25535e-11
-8.08264e-11
4.16151e-11
-2.066e-11
-8.61642e-11
4.55857e-11
-2.81805e-11
-9.06581e-11
4.87438e-11
-9.44545e-11
5.10166e-11
1.7427e-12
-4.17471e-12
1.47739e-12
3.2629e-12
-1.21809e-11
4.34175e-12
4.56473e-12
-1.96679e-11
7.11299e-12
5.64399e-12
-2.69323e-11
9.95217e-12
6.48448e-12
-3.42007e-11
1.29948e-11
7.05231e-12
-4.1637e-11
1.63561e-11
7.28762e-12
-4.93458e-11
2.01319e-11
7.09305e-12
-5.73715e-11
2.43942e-11
6.31807e-12
-6.56947e-11
2.91783e-11
4.74072e-12
-7.42242e-11
3.44629e-11
2.0463e-12
-8.27808e-11
4.01401e-11
-2.18416e-12
-9.10692e-11
4.59852e-11
-8.3829e-12
-9.86365e-11
5.16676e-11
-1.65433e-11
-1.04823e-10
5.6819e-11
-2.49289e-11
-1.08824e-10
6.10525e-11
-1.1089e-10
6.41819e-11
2.12447e-12
-4.69485e-12
1.73661e-12
3.98659e-12
-1.37021e-11
5.10165e-12
5.60093e-12
-2.21357e-11
8.35141e-12
6.97423e-12
-3.03357e-11
1.16711e-11
8.10293e-12
-3.85652e-11
1.52164e-11
8.96982e-12
-4.70212e-11
1.91195e-11
9.539e-12
-5.58387e-11
2.3492e-11
9.74823e-12
-6.5089e-11
2.84183e-11
9.49809e-12
-7.47756e-11
3.39412e-11
8.63686e-12
-8.48252e-11
4.004e-11
6.93482e-12
-9.50664e-11
4.65958e-11
4.04703e-12
-1.05185e-10
5.3354e-11
-4.82249e-13
-1.14637e-10
5.99277e-11
-6.97868e-12
-1.22497e-10
6.58675e-11
-1.45405e-11
-1.2741e-10
7.07009e-11
-1.26424e-10
7.42732e-11
2.49148e-12
-5.04905e-12
1.95812e-12
4.68472e-12
-1.47408e-11
5.74983e-12
6.60651e-12
-2.3829e-11
9.40384e-12
8.27645e-12
-3.2687e-11
1.31234e-11
9.70641e-12
-4.16069e-11
1.70781e-11
1.09e-11
-5.0813e-11
2.14118e-11
1.18515e-11
-6.04661e-11
2.62464e-11
1.25439e-11
-7.06621e-11
3.16742e-11
1.29464e-11
-8.14279e-11
3.77413e-11
1.30102e-11
-9.27148e-11
4.44221e-11
1.26571e-11
-1.04383e-10
5.15795e-11
1.17621e-11
-1.16177e-10
5.89159e-11
1.01654e-11
-1.2769e-10
6.59609e-11
7.81729e-12
-1.38312e-10
7.21258e-11
5.2163e-12
-1.47099e-10
7.68128e-11
-1.53727e-10
7.9998e-11
2.83388e-12
2.13906e-12
-5.21964e-12
5.33749e-12
6.27813e-12
-1.52454e-11
7.54975e-12
1.02572e-11
-2.46646e-11
9.50282e-12
1.42908e-11
-3.38712e-11
1.12235e-11
1.85559e-11
-4.3176e-11
1.27352e-11
2.3202e-11
-5.28217e-11
1.40607e-11
2.8355e-11
-6.29871e-11
1.52251e-11
3.41096e-11
-7.37846e-11
1.62606e-11
4.05093e-11
-8.52554e-11
1.72142e-11
4.75182e-11
-9.73615e-11
1.81537e-11
5.49763e-11
-1.09973e-10
1.91839e-11
6.25434e-11
-1.22849e-10
2.0512e-11
6.96698e-11
-1.35619e-10
2.26099e-11
7.56309e-11
-1.47767e-10
2.59571e-11
7.96907e-11
-1.5834e-10
8.15382e-11
-1.69524e-10
1.83724e-13
-9.53477e-13
1.20589e-13
3.40382e-13
-2.77959e-12
3.5445e-13
4.66349e-13
-4.48259e-12
5.81257e-13
5.5615e-13
-6.13108e-12
8.15022e-13
6.01808e-13
-7.77437e-12
1.06727e-12
5.91224e-13
-9.44058e-12
1.34703e-12
5.05365e-13
-1.11402e-11
1.66131e-12
3.15092e-13
-1.2871e-11
2.01516e-12
-2.228e-14
-1.46198e-11
2.41061e-12
-5.67483e-13
-1.63619e-11
2.84406e-12
-1.4053e-12
-1.80613e-11
3.30328e-12
-2.65863e-12
-1.96736e-11
3.76552e-12
-4.51998e-12
-2.11498e-11
4.19997e-12
-7.26463e-12
-2.24016e-11
4.57672e-12
-1.08529e-11
-2.3186e-11
4.86617e-12
-2.21609e-11
5.43714e-12
5.52238e-13
-1.88034e-12
3.59141e-13
1.0239e-12
-5.4832e-12
1.05575e-12
1.40537e-12
-8.84508e-12
1.73132e-12
1.68203e-12
-1.2098e-11
2.42696e-12
1.83193e-12
-1.5338e-11
3.1766e-12
1.8213e-12
-1.86237e-11
4.00734e-12
1.59715e-12
-2.19818e-11
4.94049e-12
1.07908e-12
-2.54124e-11
5.99126e-12
1.50776e-13
-2.88901e-11
7.16544e-12
-1.34876e-12
-3.23633e-11
8.45259e-12
-3.63082e-12
-3.57558e-11
9.81726e-12
-6.96256e-12
-3.89798e-11
1.11919e-11
-1.16499e-11
-4.19559e-11
1.24812e-11
-1.78644e-11
-4.45991e-11
1.358e-11
-2.47649e-11
-4.67051e-11
1.43791e-11
-4.83515e-11
1.46723e-11
9.23862e-13
-2.75151e-12
5.89808e-13
1.71576e-12
-8.02528e-12
1.73391e-12
2.3634e-12
-1.29489e-11
2.843e-12
2.8473e-12
-1.77136e-11
3.98321e-12
3.13693e-12
-2.24602e-11
5.20949e-12
3.18411e-12
-2.72813e-11
6.56667e-12
2.91332e-12
-3.22251e-11
8.09064e-12
2.21119e-12
-3.72997e-11
9.80691e-12
9.15959e-13
-4.24715e-11
1.17253e-11
-1.18983e-12
-4.76642e-11
1.38309e-11
-4.37393e-12
-5.27617e-11
1.60706e-11
-8.92056e-12
-5.76252e-11
1.83405e-11
-1.49886e-11
-6.21363e-11
2.04926e-11
-2.21785e-11
-6.62403e-11
2.23587e-11
-2.86781e-11
-6.98496e-11
2.37592e-11
-7.29389e-11
2.46298e-11
1.29951e-12
-3.53589e-12
8.07318e-13
2.41915e-12
-1.03149e-11
2.3731e-12
3.34823e-12
-1.66478e-11
3.88949e-12
4.06792e-12
-2.27807e-11
5.44525e-12
4.54638e-12
-2.8898e-11
7.11442e-12
4.73158e-12
-3.51272e-11
8.95855e-12
4.5416e-12
-4.15424e-11
1.10275e-11
3.85416e-12
-4.81648e-11
1.33571e-11
2.49599e-12
-5.49591e-11
1.5962e-11
2.35908e-13
-6.18284e-11
1.88265e-11
-3.20869e-12
-6.86099e-11
2.18866e-11
-8.12888e-12
-7.50763e-11
2.5014e-11
-1.46523e-11
-8.09573e-11
2.80276e-11
-2.22719e-11
-8.59908e-11
3.07261e-11
-2.90396e-11
-8.99521e-11
3.28762e-11
-9.30768e-11
3.43248e-11
1.67731e-12
-4.20344e-12
1.00666e-12
3.13095e-12
-1.22645e-11
2.95833e-12
4.35641e-12
-1.9801e-11
4.84576e-12
5.34094e-12
-2.71092e-11
6.77731e-12
6.05899e-12
-3.4414e-11
8.84369e-12
6.46594e-12
-4.18771e-11
1.1121e-11
6.49047e-12
-4.96002e-11
1.36717e-11
6.02605e-12
-5.76226e-11
1.65406e-11
4.922e-12
-6.59153e-11
1.97479e-11
2.97564e-12
-7.43713e-11
2.32779e-11
-7.09578e-14
-8.27888e-11
2.70579e-11
-4.51603e-12
-9.08416e-11
3.09379e-11
-1.05948e-11
-9.80356e-11
3.47051e-11
-1.81266e-11
-1.03664e-10
3.81231e-11
-2.55943e-11
-1.06938e-10
4.08993e-11
-1.08243e-10
4.28166e-11
2.05196e-12
-4.72673e-12
1.18358e-12
3.84075e-12
-1.37944e-11
3.47697e-12
5.37175e-12
-2.22813e-11
5.69087e-12
6.64273e-12
-3.0526e-11
7.94975e-12
7.64053e-12
-3.87886e-11
1.03576e-11
8.33713e-12
-4.72623e-11
1.30021e-11
8.68546e-12
-5.60753e-11
1.59555e-11
8.61493e-12
-6.5288e-11
1.92701e-11
8.02713e-12
-7.48852e-11
2.29696e-11
6.7917e-12
-8.47659e-11
2.70366e-11
4.73896e-12
-9.47226e-11
3.13864e-11
1.65063e-12
-1.04402e-10
3.58401e-11
-2.72382e-12
-1.1323e-10
4.01407e-11
-8.52797e-12
-1.20289e-10
4.39985e-11
-1.50903e-11
-1.24332e-10
4.70772e-11
-1.22684e-10
4.91963e-11
2.41515e-12
-5.08279e-12
1.33484e-12
4.5317e-12
-1.4838e-11
3.91961e-12
6.36719e-12
-2.39809e-11
6.40943e-12
7.93236e-12
-3.28826e-11
8.94082e-12
9.22973e-12
-4.18313e-11
1.16271e-11
1.02526e-11
-5.10452e-11
1.45634e-11
1.09851e-11
-6.06755e-11
1.78288e-11
1.14025e-11
-7.08019e-11
2.14799e-11
1.14752e-11
-8.14251e-11
2.55413e-11
1.11742e-11
-9.24592e-11
2.99897e-11
1.04773e-11
-1.03719e-10
3.47223e-11
9.37826e-12
-1.14905e-10
3.95244e-11
7.91368e-12
-1.2559e-10
4.40781e-11
6.22259e-12
-1.35214e-10
4.80075e-11
4.61579e-12
-1.4303e-10
5.09199e-11
-1.49128e-10
5.27583e-11
2.75671e-12
1.45846e-12
-5.25384e-12
5.18326e-12
4.28055e-12
-1.53436e-11
7.30973e-12
6.99236e-12
-2.48171e-11
9.15988e-12
9.73788e-12
-3.40654e-11
1.07518e-11
1.26354e-11
-4.33945e-11
1.20998e-11
1.57839e-11
-5.30397e-11
1.32172e-11
1.92648e-11
-6.31679e-11
1.41222e-11
2.31359e-11
-7.38722e-11
1.48476e-11
2.7419e-11
-8.51634e-11