/*--------------------------------*- C++ -*----------------------------------*\
| =========                 |                                                 |
| \\      /  F ield         | OpenFOAM: The Open Source CFD Toolbox           |
|  \\    /   O peration     | Version:  v1912                                 |
|   \\  /    A nd           | Website:  www.openfoam.com                      |
|    \\/     M anipulation  |                                                 |
\*---------------------------------------------------------------------------*/
FoamFile
{
    version     2.0;
    format      ascii;
    class       volScalarField;
    location    "0.22/fluid";
    object      p;
}
// * * * * * * * * * * * * * * * * * * * * * * * * * * * * * * * * * * * * * //

dimensions      [0 2 -2 0 0 0 0];


internalField   nonuniform List<scalar> 
14592
(
0.0766386
0.0712268
0.0693482
0.0676889
0.0665166
0.0654814
0.0645399
0.063687
0.062863
0.0621884
0.06145
0.0611014
0.0603834
0.0608288
0.0599669
0.0630658
0.0723327
0.0706554
0.0690333
0.0676611
0.0665338
0.0655235
0.0645901
0.0637474
0.0629358
0.0622836
0.0615715
0.0612789
0.0606163
0.0612427
0.0604421
0.0645337
0.070464
0.0697845
0.0685174
0.0674342
0.0663902
0.0654329
0.064519
0.063687
0.0628801
0.0622347
0.0615316
0.0612695
0.0606436
0.0613916
0.06067
0.0651602
0.06917
0.0689348
0.0680068
0.0671489
0.0662083
0.0653113
0.0644228
0.0636023
0.0627986
0.0621575
0.0614628
0.0612322
0.0606523
0.0615218
0.060923
0.0656604
0.0683963
0.0682939
0.0675579
0.0668364
0.0659737
0.0651222
0.0642494
0.0634255
0.0626019
0.0619271
0.0611849
0.0608999
0.0602521
0.0610981
0.0604641
0.0654047
0.067841
0.0677923
0.0671872
0.0665575
0.0657542
0.0649351
0.0640713
0.0632399
0.0623981
0.0616979
0.0609335
0.060641
0.0600147
0.0609795
0.0605124
0.0658959
0.0674802
0.0674499
0.0669089
0.066323
0.0655464
0.0647343
0.0638569
0.06299
0.0620896
0.0612956
0.0603992
0.0599045
0.0589932
0.0595783
0.0585038
0.0638153
0.067261
0.0672386
0.0667242
0.0661541
0.0653823
0.0645618
0.063663
0.0627605
0.0618149
0.0609596
0.0600059
0.0594481
0.0585273
0.0592662
0.0584752
0.0660222
0.0764916
0.0710814
0.0692418
0.0676264
0.0665127
0.0655438
0.0646787
0.063913
0.0631869
0.0626221
0.0620024
0.0617525
0.0611431
0.0614189
0.0605523
0.0618354
0.0721861
0.0705086
0.0689267
0.0675992
0.0665313
0.0655881
0.0647319
0.0639774
0.0632646
0.062723
0.0621291
0.0619309
0.061365
0.0617669
0.0608984
0.0626235
0.0703148
0.0696343
0.0684071
0.0673685
0.0663841
0.0654936
0.0646563
0.0639117
0.0632019
0.0626654
0.0620764
0.061904
0.0613615
0.0618606
0.0610316
0.0629881
0.0690188
0.0687824
0.0678938
0.06708
0.0661984
0.0653677
0.0645549
0.0638207
0.0631129
0.0625801
0.0619975
0.0618575
0.0613555
0.0619719
0.0612405
0.0633831
0.0682418
0.0681382
0.0674408
0.0667625
0.0659574
0.0651705
0.0643708
0.0636299
0.0628971
0.0623247
0.0616846
0.0614819
0.060891
0.061477
0.0606631
0.0630021
0.067683
0.0676332
0.067066
0.0664786
0.0657313
0.0649749
0.0641817
0.0634305
0.062676
0.0620761
0.0614106
0.0612055
0.0606348
0.0613705
0.0607147
0.0635373
0.0673178
0.0672866
0.0667825
0.0662376
0.065515
0.0647626
0.0639514
0.0631588
0.0623367
0.0616313
0.0608144
0.0603881
0.059487
0.0598324
0.0584432
0.0612546
0.0670939
0.0670708
0.0665926
0.0660623
0.0653425
0.0645791
0.0637429
0.0629103
0.0620379
0.0612672
0.0603889
0.059909
0.0590061
0.0595977
0.0585203
0.0638329
0.0763913
0.0709819
0.0691724
0.0675929
0.0665298
0.0656218
0.064832
0.0641598
0.0635537
0.0631449
0.062743
0.0627713
0.0626102
0.0633413
0.0634563
0.0649121
0.0720863
0.0704082
0.0688573
0.0675665
0.0665501
0.0656686
0.0648889
0.0642296
0.0636393
0.0632572
0.0628857
0.0629714
0.0628624
0.0637183
0.0638698
0.0656692
0.0702125
0.0695307
0.0683343
0.0673323
0.0663993
0.0655706
0.0648094
0.0641595
0.0635713
0.0631939
0.0628257
0.0629379
0.0628509
0.0638075
0.064011
0.0660337
0.0689143
0.0686765
0.0678183
0.0670406
0.06621
0.0654404
0.0647028
0.0640625
0.0634747
0.0631006
0.0627373
0.0628843
0.0628369
0.0639194
0.0642201
0.0664281
0.0681341
0.0680291
0.0673612
0.0667182
0.0659628
0.0652352
0.0645081
0.0638575
0.0632393
0.062819
0.0623868
0.0624609
0.062301
0.0633428
0.0635116
0.0659077
0.0675717
0.0675206
0.0669823
0.0664292
0.0657301
0.065031
0.0643076
0.0636431
0.062998
0.0625447
0.0620776
0.0621443
0.0619856
0.0631799
0.0634562
0.0663378
0.0672022
0.0671698
0.0666938
0.0661819
0.0655054
0.0648072
0.0640611
0.0633481
0.0626243
0.0620499
0.0614038
0.0612154
0.0606529
0.0613948
0.060732
0.0635489
0.0669737
0.0669497
0.0664987
0.0660002
0.0653244
0.0646123
0.0638368
0.063078
0.0622949
0.0616437
0.0609173
0.0606568
0.0600482
0.0610281
0.0605535
0.0659378
0.0763243
0.0709151
0.0691284
0.0675766
0.0665531
0.0656919
0.0649579
0.0643489
0.0638145
0.0634789
0.0631568
0.0632332
0.0631359
0.0637782
0.0639065
0.0650257
0.0720196
0.0703407
0.0688133
0.0675509
0.0665747
0.0657407
0.0650175
0.0644222
0.0639042
0.0635957
0.0633037
0.0634341
0.0633826
0.0641269
0.0642723
0.0656384
0.0701436
0.0694602
0.0682872
0.0673135
0.0664207
0.0656393
0.0649342
0.0643477
0.0638304
0.063525
0.0632327
0.063385
0.0633451
0.0641744
0.064349
0.0659022
0.0688434
0.068604
0.0677687
0.067019
0.0662281
0.0655054
0.0648232
0.0642455
0.0637275
0.0634247
0.0631351
0.0633218
0.0633159
0.0642667
0.0645214
0.0662461
0.0680601
0.0679534
0.0673079
0.0666921
0.0659754
0.0652933
0.0646196
0.0640292
0.0634772
0.0631244
0.0627591
0.062868
0.0627359
0.0636409
0.0637352
0.0656439
0.0674943
0.0674418
0.0669253
0.0663985
0.065737
0.0650819
0.0644099
0.0638036
0.0632219
0.0628346
0.0624311
0.0625352
0.0623994
0.0634681
0.063653
0.0660539
0.0671209
0.0670872
0.0666322
0.0661457
0.0655051
0.0648487
0.0641507
0.0634918
0.0628252
0.06231
0.0617161
0.0615568
0.0609932
0.0616059
0.0607889
0.0631205
0.0668882
0.0668631
0.0664324
0.0659583
0.0653169
0.0646445
0.0639144
0.0632063
0.0624766
0.0618816
0.0612033
0.0609764
0.0603645
0.0612471
0.0606093
0.0655579
0.0762815
0.0708723
0.069103
0.0675731
0.0665814
0.0657593
0.0650742
0.0645239
0.0640627
0.0638128
0.0636032
0.0637949
0.0638685
0.0646098
0.0649591
0.0659778
0.0719772
0.0702973
0.068788
0.0675479
0.0666043
0.0658101
0.0651365
0.0646012
0.0641579
0.0639374
0.0637606
0.064009
0.0641317
0.0649707
0.0653408
0.0665638
0.0700992
0.0694144
0.0682594
0.0673079
0.0664477
0.0657061
0.0650503
0.0645234
0.0640802
0.0638622
0.0636834
0.0639523
0.0640822
0.0649998
0.0653901
0.0667837
0.0687972
0.0685564
0.0677386
0.0670109
0.0662522
0.0655689
0.0649355
0.0644167
0.0639718
0.0637558
0.0635782
0.0638814
0.0640417
0.0650798
0.0655409
0.0671005
0.0680113
0.0679032
0.0672747
0.0666802
0.0659948
0.0653509
0.0647243
0.0641906
0.0637083
0.0634386
0.0631785
0.0633985
0.06342
0.0644064
0.0646836
0.0664233
0.0674426
0.0673888
0.0668888
0.0663826
0.0657514
0.0651332
0.0645063
0.0639544
0.063439
0.0631315
0.0628274
0.0630394
0.063046
0.0641954
0.064539
0.0667711
0.0670658
0.0670309
0.0665918
0.066125
0.0655133
0.0648917
0.0642359
0.0636272
0.0630206
0.0625773
0.0620692
0.0620045
0.0615539
0.0622294
0.0615045
0.063649
0.0668295
0.0668034
0.066388
0.0659328
0.0653188
0.0646792
0.0639885
0.0633269
0.0626516
0.0621223
0.0615194
0.0613789
0.0608595
0.0618027
0.0612131
0.0659898
0.0762554
0.0708461
0.0690891
0.0675748
0.0666059
0.0658113
0.0651593
0.064646
0.0642264
0.0640164
0.0638496
0.0640616
0.0641621
0.0648612
0.0652066
0.0661368
0.0719514
0.0702707
0.0687743
0.0675502
0.0666297
0.0658634
0.0652234
0.0647255
0.0643245
0.0641442
0.0640102
0.0642775
0.0644247
0.0652134
0.0655734
0.066682
0.0700719
0.0693859
0.0682436
0.067308
0.0664711
0.0657572
0.0651348
0.064645
0.0642433
0.0640646
0.0639265
0.0642118
0.0643605
0.0652205
0.0655897
0.0668583
0.0687685
0.0685264
0.0677211
0.0670091
0.0662734
0.0656176
0.0650171
0.064535
0.0641309
0.0639537
0.0638154
0.0641344
0.0643099
0.0652879
0.0657191
0.0671499
0.0679804
0.0678711
0.0672547
0.0666754
0.0660124
0.0653951
0.0648003
0.064302
0.0638584
0.0636256
0.0634012
0.0636349
0.0636648
0.0645884
0.0648221
0.0664313
0.0674095
0.0673546
0.0668662
0.0663748
0.0657652
0.0651727
0.0645764
0.0640586
0.0635802
0.0633085
0.0630379
0.0632642
0.0632754
0.0643648
0.0646541
0.0667567
0.0670299
0.066994
0.0665661
0.0661135
0.0655223
0.0649252
0.0642981
0.0637211
0.0631482
0.0627376
0.0622576
0.0622043
0.061748
0.0623616
0.0615549
0.0635594
0.0667908
0.0667638
0.0663593
0.0659176
0.0653232
0.0647067
0.0640429
0.0634111
0.0627671
0.0622685
0.0616909
0.061563
0.0610348
0.0619253
0.0612441
0.0658919
0.0762409
0.0708315
0.0690826
0.0675786
0.066625
0.0658491
0.0652203
0.0647341
0.0643471
0.0641723
0.0640489
0.0642983
0.0644507
0.0651658
0.0655548
0.0664427
0.0719371
0.0702558
0.0687678
0.0675543
0.0666495
0.0659023
0.0652859
0.0648157
0.064448
0.0643038
0.0642145
0.0645203
0.0647205
0.0655239
0.0659278
0.0669806
0.0700565
0.0693697
0.0682357
0.0673108
0.0664894
0.0657947
0.0651958
0.0647335
0.0643648
0.0642219
0.0641277
0.0644506
0.06465
0.0655215
0.0659297
0.0671367
0.0687522
0.0685092
0.0677121
0.0670105
0.0662903
0.0656534
0.0650761
0.0646212
0.0642496
0.0641079
0.0640126
0.0643689
0.064593
0.0655813
0.0660464
0.0674139
0.0679626
0.0678524
0.0672439
0.0666747
0.0660267
0.0654278
0.0648555
0.0643833
0.0639708
0.0637719
0.0635878
0.0638566
0.06393
0.0648614
0.0651199
0.0666645
0.0673901
0.0673344
0.0668537
0.066372
0.0657769
0.0652021
0.0646274
0.0641347
0.0636857
0.0634466
0.0632136
0.0634738
0.0635235
0.0646198
0.064924
0.0669622
0.0670086
0.0669721
0.0665515
0.0661081
0.0655308
0.0649503
0.0643434
0.0637898
0.0632438
0.0628626
0.0624152
0.0623915
0.061964
0.0625789
0.0617651
0.0636967
0.0667676
0.06674
0.0663425
0.0659097
0.0653284
0.0647276
0.0640826
0.0634725
0.0628529
0.0623814
0.0618321
0.0617309
0.0612242
0.0621151
0.0614127
0.0659935
0.0762342
0.0708253
0.0690796
0.067581
0.0666346
0.0658675
0.0652493
0.0647746
0.0644004
0.0642369
0.0641254
0.0643785
0.0645358
0.0652367
0.0656218
0.0664917
0.0719309
0.0702491
0.0687651
0.0675568
0.0666593
0.0659211
0.0653153
0.0648567
0.0645017
0.0643687
0.0642908
0.0645993
0.064803
0.0655894
0.0659874
0.0670175
0.0700495
0.0693623
0.0682324
0.0673125
0.0664986
0.0658127
0.0652244
0.0647735
0.0644173
0.0642852
0.0642017
0.0645262
0.0647274
0.0655796
0.0659789
0.0671609
0.0687448
0.0685013
0.0677082
0.0670115
0.0662987
0.0656705
0.0651037
0.0646601
0.0643008
0.0641697
0.0640847
0.0644424
0.0646672
0.0656353
0.0660889
0.0674303
0.0679544
0.0678437
0.0672391
0.0666747
0.0660339
0.0654435
0.0648812
0.06442
0.0640193
0.0638307
0.063656
0.063926
0.0639987
0.0649096
0.0651532
0.0666708
0.0673812
0.067325
0.066848
0.0663709
0.0657828
0.0652162
0.0646512
0.064169
0.0637314
0.0635022
0.0632781
0.0635397
0.0635876
0.0646636
0.0649492
0.0669595
0.0669987
0.0669618
0.0665448
0.0661058
0.0655351
0.0649624
0.0643647
0.063821
0.0632855
0.0629137
0.062474
0.0624516
0.0620205
0.0626153
0.061777
0.0636772
0.0667567
0.0667288
0.0663346
0.0659061
0.0653311
0.0647377
0.0641014
0.0635006
0.0628907
0.062428
0.0618857
0.0617859
0.0612744
0.062146
0.0614141
0.0659615
0.0865116
0.0760281
0.072433
0.0693891
0.0673794
0.0656509
0.0641145
0.0626524
0.0611932
0.0597086
0.0581148
0.0564438
0.0545149
0.0525139
0.0500686
0.0476801
0.0821717
0.0751731
0.0719875
0.0692662
0.0673363
0.0656477
0.064126
0.0626745
0.0612232
0.0597471
0.0581618
0.0565021
0.0545833
0.0525961
0.0501572
0.0477755
0.0802716
0.0741953
0.0713861
0.068969
0.0671566
0.0655429
0.0640569
0.0626272
0.0611886
0.0597218
0.0581455
0.0564959
0.0545903
0.052618
0.0501972
0.0478303
0.0789514
0.073315
0.0708404
0.0686539
0.0669607
0.0654203
0.0639716
0.0625627
0.0611351
0.0596746
0.0581039
0.0564601
0.0545656
0.0526055
0.0502056
0.0478565
0.078164
0.0726666
0.0703827
0.0683393
0.0667381
0.0652587
0.0638441
0.062454
0.0610351
0.0595773
0.0580084
0.0563654
0.0544794
0.0525286
0.0501565
0.0478322
0.0776106
0.0721719
0.0700176
0.0680705
0.0665389
0.0651053
0.0637163
0.0623385
0.0609239
0.0594651
0.0578961
0.0562521
0.0543773
0.0524376
0.0501026
0.0478084
0.0772613
0.0718433
0.0697555
0.067859
0.0663668
0.064959
0.0635827
0.0622079
0.0607901
0.0593231
0.0577472
0.056094
0.0542242
0.0522878
0.0499928
0.0477307
0.0770611
0.0716508
0.0695923
0.0677176
0.0662412
0.0648415
0.0634658
0.0620852
0.0606589
0.0591807
0.0575978
0.055937
0.0540781
0.0521512
0.0499062
0.0476816
0.0821554
0.0751507
0.0719581
0.0692312
0.067296
0.0656059
0.0640799
0.0626172
0.0611516
0.05966
0.0580526
0.056373
0.0544198
0.0524134
0.0499241
0.0475495
0.0778237
0.0745277
0.0715829
0.0691463
0.0672713
0.0656139
0.0640981
0.0626405
0.0611783
0.059691
0.058088
0.0564153
0.054468
0.052471
0.0499861
0.0476186
0.0759302
0.0736087
0.071021
0.0688799
0.0671076
0.0655172
0.0640325
0.0625935
0.0611422
0.0596628
0.0580677
0.0564039
0.0544692
0.0524863
0.050019
0.0476663
0.0746156
0.072733
0.0704877
0.0685767
0.0669194
0.0653998
0.0639507
0.0625317
0.0610909
0.0596178
0.0580287
0.0563713
0.0544485
0.0524784
0.0500329
0.0476977
0.0738339
0.0720832
0.0700348
0.068267
0.0667
0.0652402
0.0638249
0.0624247
0.0609929
0.0595229
0.0579363
0.0562802
0.054367
0.0524064
0.0499901
0.0476792
0.0732819
0.0715848
0.0696709
0.0680006
0.0665034
0.0650889
0.0636992
0.0623122
0.0608855
0.0594156
0.0578306
0.0561753
0.054276
0.0523287
0.049953
0.047672
0.072934
0.0712552
0.0694099
0.0677908
0.0663332
0.0649439
0.063567
0.0621838
0.0607548
0.0592773
0.0576864
0.0560224
0.0541298
0.0521858
0.0498536
0.0476035
0.0727344
0.0710624
0.0692478
0.0676511
0.0662097
0.0648279
0.0634518
0.0620643
0.060628
0.0591405
0.0575448
0.0558755
0.0539977
0.052066
0.0497901
0.0475774
0.0802542
0.0741712
0.07136
0.0689446
0.0671405
0.0655419
0.0640711
0.0626549
0.0612271
0.0597772
0.0581973
0.0565613
0.0545944
0.0526147
0.0499721
0.0475715
0.0759323
0.0736103
0.0710284
0.0688951
0.0671371
0.0655631
0.064098
0.0626856
0.0612613
0.0598165
0.0582422
0.0566153
0.0546558
0.0526889
0.0500499
0.0476595
0.0740518
0.0727294
0.0704999
0.0686574
0.0669906
0.0654762
0.0640375
0.0626411
0.0612263
0.0597889
0.0582225
0.056605
0.0546593
0.0527078
0.0500864
0.0477105
0.072747
0.0718681
0.0699816
0.0683677
0.0668111
0.0653641
0.0639585
0.0625804
0.0611751
0.0597435
0.0581833
0.0565729
0.0546409
0.0527045
0.0501082
0.0477519
0.0719715
0.0712248
0.0695357
0.0680642
0.0665953
0.0652058
0.0638318
0.0624705
0.0610724
0.0596419
0.0580825
0.0564708
0.0545479
0.0526193
0.0500569
0.0477268
0.0714217
0.0707278
0.0691741
0.0678
0.0663995
0.0650542
0.0637045
0.0623547
0.0609603
0.0595283
0.0579699
0.0563582
0.054452
0.0525385
0.0500282
0.0477328
0.0710744
0.0703981
0.0689134
0.0675901
0.066228
0.0649067
0.0635683
0.0622199
0.0608204
0.0593767
0.0578084
0.0561816
0.054279
0.0523616
0.0499052
0.0476411
0.0708739
0.0702044
0.0687505
0.0674491
0.0661023
0.0647879
0.0634492
0.0620943
0.0606855
0.0592292
0.0576547
0.0560197
0.0541354
0.0522307
0.0498495
0.0476292
0.0789229
0.0732785
0.070812
0.0686405
0.0669759
0.0654753
0.0640719
0.0627128
0.0613322
0.0599352
0.0583874
0.0568054
0.0548088
0.052859
0.0499694
0.0475365
0.0746072
0.0727222
0.0704933
0.0686036
0.0669813
0.0655027
0.0641033
0.0627476
0.0613704
0.0599792
0.0584378
0.0568672
0.0548803
0.0529504
0.0500666
0.047654
0.0727357
0.0718545
0.0699786
0.0683783
0.0668426
0.0654202
0.0640446
0.0627032
0.0613344
0.0599499
0.0584163
0.0568558
0.0548839
0.0529714
0.0501042
0.0477051
0.0714376
0.0710015
0.0694677
0.0680955
0.0666676
0.0653106
0.0639664
0.062642
0.0612818
0.0599027
0.0583756
0.0568232
0.0548678
0.0529741
0.0501359
0.0477594
0.0706667
0.0703631
0.069026
0.0677953
0.0664532
0.065152
0.0638373
0.0625276
0.0611725
0.0597917
0.0582629
0.0567058
0.0547578
0.0528689
0.0500704
0.0477227
0.0701188
0.069868
0.068666
0.0675321
0.0662574
0.0649991
0.0637071
0.0624072
0.0610543
0.0596703
0.0581423
0.056585
0.0546585
0.0527889
0.0500602
0.0477558
0.0697719
0.0695386
0.0684051
0.0673214
0.066084
0.0648481
0.0635653
0.0622638
0.0609023
0.0595015
0.0579582
0.0563766
0.054449
0.0525642
0.0499045
0.047631
0.0695704
0.069344
0.068241
0.0671788
0.0659558
0.0647256
0.0634407
0.0621306
0.0607578
0.0593414
0.0577912
0.0561994
0.0542972
0.0524292
0.0498767
0.0476605
0.0781252
0.0726201
0.0703636
0.0683596
0.0668221
0.0654263
0.0641111
0.0628384
0.0615418
0.0602468
0.0587887
0.0573413
0.0553853
0.0535675
0.0503886
0.0479386
0.0738156
0.0720617
0.0700496
0.0683282
0.0668321
0.0654578
0.0641469
0.0628785
0.0615867
0.0603003
0.0588518
0.057422
0.0554821
0.0536979
0.0505313
0.0481131
0.0719499
0.0711994
0.0695412
0.0681087
0.0666969
0.065377
0.0640883
0.0628333
0.0615491
0.0602694
0.0588293
0.0574118
0.0554894
0.0537272
0.0505745
0.0481666
0.0706566
0.0703515
0.0690346
0.0678294
0.0665239
0.0652679
0.064009
0.0627696
0.0614932
0.0602184
0.0587853
0.057378
0.0554761
0.0537397
0.0506219
0.048244
0.0698885
0.0697162
0.0685948
0.0675302
0.0663087
0.0651062
0.0638743
0.0626467
0.0613719
0.0600909
0.0586511
0.0572328
0.0553336
0.0535975
0.0505261
0.0481864
0.0693414
0.0692221
0.0682349
0.0672663
0.0661107
0.0649492
0.0637376
0.0625169
0.0612412
0.0599533
0.0585119
0.0570909
0.0552171
0.0535066
0.0505299
0.0482562
0.0689935
0.0688919
0.0679724
0.0670528
0.0659329
0.0647914
0.0635855
0.0623581
0.0610672
0.0597525
0.0582837
0.0568198
0.0549293
0.0531795
0.0502862
0.0480465
0.0687899
0.0686952
0.0678057
0.0669066
0.0657996
0.0646616
0.0634505
0.0622103
0.0609033
0.0595662
0.0580848
0.0566027
0.0547398
0.0530083
0.0502644
0.0481187
0.0775411
0.0720942
0.069992
0.0681147
0.0666905
0.0653938
0.064168
0.0629851
0.0617756
0.0605851
0.0592128
0.0578918
0.0559455
0.0542206
0.0505744
0.0479979
0.0732326
0.0715302
0.0696781
0.0680849
0.0667026
0.065428
0.0642069
0.0630292
0.0618256
0.060646
0.059286
0.0579894
0.0560665
0.0543929
0.0507552
0.0481855
0.0713681
0.0706676
0.0691702
0.0678659
0.0665674
0.0653464
0.0641465
0.0629813
0.0617846
0.0606114
0.0592598
0.0579773
0.0560731
0.0544245
0.050784
0.0481975
0.0700766
0.0698212
0.0686645
0.0675871
0.0663939
0.0652358
0.0640646
0.0629139
0.061724
0.0605553
0.0592112
0.0579417
0.0560622
0.0544487
0.0508473
0.0482984
0.069309
0.0691865
0.0682243
0.0672867
0.066176
0.0650694
0.0639228
0.0627807
0.0615884
0.0604084
0.0590512
0.0577631
0.0558788
0.0542603
0.0507144
0.0482261
0.0687614
0.068692
0.0678633
0.0670208
0.0659745
0.0649071
0.0637784
0.0626403
0.0614442
0.0602543
0.0588939
0.0576033
0.0557517
0.0541746
0.0507649
0.0483934
0.0684116
0.0683601
0.0675982
0.0668037
0.0657912
0.064741
0.0636143
0.0624642
0.0612456
0.0600177
0.0586159
0.0572609
0.0553718
0.0537265
0.050424
0.0481098
0.0682052
0.0681608
0.0674281
0.0666532
0.0656521
0.064603
0.063468
0.062301
0.0610618
0.0598058
0.0583883
0.0570118
0.0551613
0.0535563
0.050481
0.0483708
0.0771403
0.0717152
0.069713
0.067927
0.0666004
0.0653996
0.064273
0.0632021
0.0621191
0.0610975
0.0599158
0.0588853
0.0571956
0.0559198
0.0521138
0.049611
0.0728334
0.0711483
0.069399
0.0678981
0.0666144
0.0654366
0.0643159
0.063252
0.0621774
0.0611709
0.0600071
0.0590124
0.0573589
0.056161
0.0523535
0.0497161
0.0709687
0.070284
0.0688897
0.0676776
0.0664774
0.0653529
0.0642527
0.0632007
0.0621325
0.0611328
0.0599782
0.059002
0.0573711
0.0562092
0.0523823
0.0496778
0.0696774
0.0694375
0.0683834
0.0673977
0.066302
0.0652394
0.0641667
0.0631282
0.0620657
0.0610703
0.0599238
0.0589655
0.0573658
0.0562574
0.0524804
0.0498321
0.0689089
0.0688017
0.0679414
0.0670942
0.0660793
0.0650663
0.0640152
0.0629814
0.061911
0.0608971
0.0597276
0.0587395
0.0571211
0.0560029
0.0522905
0.0497652
0.0683595
0.0683056
0.0675779
0.0668248
0.0658726
0.0648964
0.0638602
0.0628265
0.0617475
0.0607181
0.0595396
0.058546
0.0569618
0.0559063
0.0523812
0.0500957
0.0680067
0.0679708
0.067309
0.0666026
0.0656818
0.0647195
0.0636802
0.0626267
0.0615138
0.0604287
0.059183
0.0580854
0.0564116
0.055224
0.0517907
0.0496531
0.0677964
0.0677679
0.0671345
0.0664465
0.0655348
0.0645705
0.0635186
0.0624418
0.0613001
0.0601753
0.0589006
0.0577657
0.0561217
0.0549887
0.0518605
0.0502121
0.0768458
0.0714298
0.0694994
0.0677841
0.0665399
0.0654237
0.0643869
0.063416
0.0624415
0.0615531
0.0605089
0.0596585
0.0580955
0.056932
0.0526213
0.0487184
0.0725393
0.0708602
0.0691847
0.0677556
0.0665553
0.065463
0.064433
0.0634703
0.0625055
0.0616349
0.0606117
0.0598048
0.0582836
0.0572026
0.0527723
0.0479872
0.0706728
0.0699927
0.0686722
0.0675321
0.0664153
0.065376
0.0643659
0.0634144
0.062455
0.0615907
0.0605755
0.0597886
0.0582864
0.0572339
0.0527123
0.047544
0.0693805
0.0691449
0.0681641
0.0672498
0.0662369
0.0652588
0.0642752
0.0633361
0.0623812
0.061521
0.0605139
0.0597493
0.0582819
0.0572968
0.0528277
0.0476902
0.0686097
0.0685069
0.067719
0.0669422
0.0660087
0.0650782
0.0641134
0.0631753
0.0622071
0.0613217
0.0602813
0.0594762
0.0579731
0.0569756
0.0525844
0.0476855
0.0680577
0.0680083
0.0673523
0.0666684
0.065796
0.0649003
0.0639477
0.0630065
0.0620261
0.0611219
0.0600696
0.0592624
0.0578016
0.0569098
0.052792
0.0483496
0.0677012
0.06767
0.067079
0.0664404
0.0655972
0.0647122
0.0637518
0.062784
0.0617595
0.0607846
0.0596415
0.0586973
0.0570945
0.0560215
0.0519906
0.047898
0.0674866
0.0674631
0.0668997
0.0662783
0.0654422
0.0645523
0.0635755
0.0625795
0.0615205
0.0604995
0.0593222
0.0583429
0.0567855
0.0558599
0.052315
0.0493361
0.0671778
0.0671572
0.0666343
0.0660512
0.0652576
0.0644059
0.0634628
0.0624953
0.0614597
0.0604572
0.0592933
0.0583228
0.0567666
0.0558369
0.0522709
0.0492619
0.0672384
0.067215
0.0666498
0.0660278
0.0651913
0.0642955
0.063305
0.0622807
0.0611824
0.0600925
0.0588435
0.0577264
0.0560888
0.0549544
0.0518055
0.0501336
0.0674464
0.0674083
0.0667638
0.0660748
0.065173
0.064216
0.0631644
0.0620692
0.0608897
0.0596817
0.0582999
0.0569483
0.0551085
0.0535043
0.0504104
0.0482787
0.0678739
0.0677861
0.0669991
0.0662018
0.065212
0.0641839
0.0630732
0.0619199
0.0606854
0.059407
0.05797
0.0565191
0.0546719
0.0529448
0.0501873
0.0480236
0.0685322
0.068313
0.067322
0.0663733
0.0652818
0.0641747
0.0630031
0.0617914
0.0605013
0.059152
0.0576527
0.0560974
0.0542152
0.0523549
0.0497934
0.0475624
0.0697535
0.0690927
0.0677583
0.0665781
0.0653725
0.0641903
0.062973
0.061724
0.0604045
0.0590207
0.0575016
0.0559064
0.0540454
0.0521508
0.0497643
0.0475317
0.0715531
0.069892
0.0682028
0.0667331
0.0654387
0.0641963
0.0629481
0.0616712
0.0603287
0.0589176
0.0573805
0.0557535
0.0539014
0.0519818
0.0497033
0.0474804
0.075874
0.0704812
0.068548
0.0668001
0.0654702
0.0642083
0.0629615
0.0616935
0.0603615
0.0589596
0.0574352
0.0558167
0.0539834
0.0520685
0.0498212
0.0475862
0.0670056
0.0669846
0.0664969
0.0659522
0.0652083
0.06441
0.0635244
0.0626192
0.0616456
0.0607119
0.059599
0.0586764
0.0570797
0.0560029
0.051934
0.0477895
0.0670612
0.0670376
0.0665067
0.065922
0.0651332
0.064288
0.0633511
0.062384
0.0613418
0.0603138
0.0591103
0.0580429
0.0563797
0.0551907
0.0517205
0.0495426
0.0672643
0.0672263
0.0666153
0.0659623
0.0651061
0.0641966
0.0631941
0.0621494
0.0610175
0.0598593
0.0585092
0.0571905
0.055316
0.0536711
0.0503364
0.0479877
0.0676875
0.0676
0.0668462
0.0660839
0.065138
0.0641551
0.0630904
0.0619834
0.060792
0.0595574
0.0581486
0.0567272
0.0548568
0.0531118
0.0501948
0.0479266
0.0683419
0.0681233
0.0671649
0.0662505
0.0652015
0.0641374
0.0630087
0.061839
0.060587
0.0592743
0.0577976
0.0562634
0.0543608
0.0524847
0.049809
0.0475124
0.0695606
0.0689008
0.0675989
0.0664525
0.0652887
0.0641482
0.0629721
0.061763
0.0604795
0.0591294
0.0576322
0.0560562
0.0541824
0.0522768
0.0498102
0.0475274
0.0713584
0.0696989
0.0680418
0.0666056
0.0653522
0.0641504
0.0629421
0.0617032
0.0603948
0.0590145
0.057498
0.0558874
0.0540264
0.0520967
0.0497587
0.047493
0.0756797
0.0702901
0.0683888
0.0666744
0.0653849
0.0641637
0.0629577
0.0617285
0.0604318
0.0590621
0.0575605
0.0559606
0.0541226
0.0522003
0.0499001
0.0476226
0.0668804
0.0668587
0.0663973
0.0658831
0.0651808
0.06443
0.0635992
0.0627584
0.0618592
0.0610208
0.0600171
0.0592458
0.057795
0.0568981
0.052713
0.0481785
0.0669313
0.0669072
0.0664017
0.0658464
0.0650971
0.0642962
0.0634093
0.0624996
0.0615213
0.0605732
0.0594549
0.0585051
0.0569354
0.0558775
0.0522892
0.0499367
0.0671298
0.0670915
0.0665053
0.0658802
0.0650613
0.0641928
0.0632351
0.0622399
0.0611601
0.0600634
0.0587717
0.05753
0.0556962
0.0541182
0.0506555
0.0482307
0.067549
0.0674615
0.0667319
0.0659967
0.0650864
0.0641419
0.0631184
0.0620553
0.0609085
0.059724
0.0583594
0.0569933
0.0551438
0.053438
0.0504229
0.0481067
0.0681999
0.0679814
0.0670467
0.0661588
0.0651439
0.0641158
0.0630249
0.0618941
0.0606799
0.059407
0.0579622
0.0564644
0.0545678
0.0527077
0.0499529
0.0476155
0.0694164
0.068757
0.0674786
0.0663582
0.0652277
0.0641219
0.0629816
0.0618086
0.0605595
0.0592438
0.0577732
0.0562245
0.0543528
0.0524529
0.049926
0.0476041
0.0712125
0.0695538
0.0679201
0.0665094
0.0652886
0.0641204
0.0629463
0.0617414
0.0604647
0.0591148
0.0576209
0.0560311
0.0541698
0.0522391
0.0498535
0.0475509
0.0755342
0.0701467
0.0682686
0.0665798
0.0653222
0.0641349
0.062964
0.0617693
0.060505
0.0591663
0.0576885
0.0561099
0.0542733
0.0523504
0.0500067
0.0476912
0.0667905
0.0667679
0.0663261
0.0658352
0.0651654
0.0644516
0.0636624
0.0628671
0.0620138
0.061223
0.0602537
0.0595045
0.0580186
0.0570169
0.0525138
0.047455
0.0668371
0.0668123
0.0663258
0.0657928
0.0650744
0.0643083
0.06346
0.0625919
0.0616551
0.0607501
0.0596619
0.0587357
0.0571375
0.056018
0.0522039
0.0495711
0.0670316
0.0669928
0.0664248
0.0658211
0.0650315
0.0641952
0.0632727
0.0623146
0.0612704
0.0602096
0.0589405
0.0577166
0.0558541
0.0542341
0.0506048
0.0480362
0.0674474
0.0673595
0.0666479
0.0659333
0.0650508
0.0641368
0.063146
0.0621168
0.0610022
0.0598496
0.0585052
0.057156
0.0552858
0.0535549
0.0504241
0.0480229
0.0680953
0.0678765
0.0669593
0.0660915
0.0651032
0.0641039
0.0630432
0.0619433
0.0607577
0.0595122
0.0580844
0.0566002
0.0546871
0.0528088
0.0499699
0.0475754
0.0693099
0.0686504
0.0673893
0.0662887
0.0651843
0.0641062
0.0629949
0.0618511
0.0606291
0.0593387
0.0578847
0.0563491
0.0544666
0.0525535
0.0499651
0.0475982
0.0711045
0.0694462
0.0678297
0.0664384
0.065243
0.0641018
0.0629556
0.0617784
0.0605274
0.0592011
0.0577231
0.0561452
0.0542765
0.0523351
0.0499027
0.047562
0.0754265
0.0700404
0.0681794
0.0665101
0.0652777
0.0641174
0.0629753
0.061809
0.0605713
0.0592574
0.0577972
0.0562324
0.0543915
0.0524601
0.0500738
0.0477204
0.066728
0.0667045
0.0662774
0.0658045
0.0651604
0.064477
0.0637234
0.0629694
0.0621625
0.0614261
0.0605136
0.0598282
0.0583862
0.0573983
0.0527475
0.0473317
0.066771
0.0667455
0.066273
0.0657572
0.0650631
0.0643252
0.0635094
0.0626784
0.0617817
0.0609231
0.0598799
0.0590048
0.0574325
0.0563266
0.0523941
0.0495793
0.0669621
0.0669227
0.0663682
0.0657808
0.065014
0.0642037
0.0633105
0.0623847
0.0613741
0.0603505
0.0591141
0.0579264
0.0560735
0.0544597
0.0507345
0.0480706
0.067375
0.0672868
0.0665883
0.0658893
0.0650284
0.0641386
0.0631746
0.0621743
0.0610888
0.0599673
0.0586485
0.0573265
0.0554593
0.053731
0.0505284
0.0480678
0.0680203
0.0678013
0.0668968
0.0660442
0.0650765
0.0640998
0.0630637
0.0619896
0.0608292
0.0596092
0.0582011
0.0567361
0.0548217
0.0529418
0.0500473
0.0476102
0.0692333
0.0685738
0.0673253
0.0662395
0.0651551
0.0640988
0.0630108
0.061891
0.0606922
0.0594244
0.0579874
0.0564671
0.0545825
0.0526656
0.0500339
0.0476314
0.0710266
0.0693686
0.0677646
0.0663879
0.065212
0.0640919
0.0629679
0.0618134
0.060584
0.0592782
0.0578152
0.0562498
0.0543789
0.0524324
0.0499653
0.0475935
0.075349
0.0699639
0.0681154
0.0664607
0.0652475
0.0641084
0.0629893
0.0618461
0.0606306
0.0593377
0.0578935
0.0563419
0.0545002
0.0525643
0.0501457
0.0477608
0.0666864
0.0666622
0.0662454
0.0657853
0.0651597
0.0644978
0.0637689
0.0630419
0.0622623
0.0615527
0.0606594
0.0599827
0.0585189
0.0574707
0.0526549
0.0469687
0.0667266
0.0667004
0.0662379
0.0657343
0.0650576
0.0643399
0.0635469
0.0627406
0.0618685
0.0610342
0.0600075
0.0591418
0.0575504
0.0564035
0.0523482
0.0493855
0.066915
0.0668752
0.0663301
0.0657543
0.0650039
0.0642124
0.0633399
0.0624362
0.0614471
0.0604443
0.0592211
0.0580416
0.0561714
0.0545293
0.0507131
0.0479652
0.0673257
0.0672371
0.0665479
0.06586
0.0650146
0.0641424
0.0631977
0.0622176
0.0611515
0.0600486
0.0587415
0.0574276
0.0555473
0.0538002
0.0505322
0.0480178
0.067969
0.0677497
0.0668543
0.0660124
0.0650595
0.0640993
0.0630811
0.0620254
0.0608824
0.0596788
0.0582809
0.0568231
0.0548987
0.0530053
0.0500624
0.0475873
0.0691807
0.0685212
0.0672815
0.0662063
0.0651364
0.0640959
0.063025
0.0619227
0.0607403
0.0594879
0.0580609
0.0565476
0.0546562
0.0527292
0.0500608
0.0476277
0.0709732
0.0693152
0.06772
0.0663536
0.0651919
0.0640872
0.0629796
0.0618418
0.0606281
0.0593366
0.0578835
0.0563249
0.0544493
0.0524946
0.0499988
0.0476011
0.0752957
0.0699113
0.0680716
0.0664274
0.065228
0.0641044
0.0630023
0.0618762
0.0606771
0.0593993
0.057966
0.0564223
0.0545775
0.0526348
0.0501897
0.0477789
0.0666611
0.0666364
0.0662263
0.0657746
0.0651613
0.064514
0.0638023
0.0630947
0.0623362
0.0616497
0.0607783
0.0601219
0.058665
0.0576031
0.0527052
0.0468455
0.0666994
0.0666728
0.0662166
0.0657211
0.065056
0.0643518
0.0635745
0.0627857
0.0619322
0.0611177
0.0601087
0.0592595
0.0576705
0.0565146
0.0523956
0.0493412
0.066886
0.0668458
0.0663069
0.0657386
0.064999
0.06422
0.0633618
0.0624735
0.0615002
0.060514
0.0593042
0.0581372
0.0562658
0.054617
0.0507518
0.0479515
0.0672951
0.0672064
0.066523
0.0658424
0.0650072
0.0641467
0.063215
0.0622489
0.0611967
0.0601079
0.0588116
0.0575074
0.0556249
0.0538724
0.0505678
0.0480194
0.0679371
0.0677177
0.066828
0.0659931
0.0650498
0.0641005
0.0630944
0.0620512
0.0609205
0.0597289
0.0583398
0.0568894
0.0549622
0.053064
0.0500929
0.0475934
0.069148
0.0684884
0.0672544
0.066186
0.0651255
0.0640955
0.063036
0.0619455
0.0607745
0.059533
0.0581138
0.0566067
0.0547129
0.0527813
0.0500907
0.0476374
0.0709398
0.0692819
0.0676923
0.0663326
0.0651801
0.0640855
0.0629889
0.0618623
0.0606593
0.0593779
0.0579319
0.0563787
0.0545012
0.0525423
0.0500284
0.0476133
0.0752625
0.0698785
0.0680445
0.066407
0.0652166
0.0641033
0.0630125
0.0618979
0.0607098
0.0594425
0.0580169
0.056479
0.0546331
0.0526864
0.0502243
0.0477961