/*--------------------------------*- C++ -*----------------------------------*\
| =========                 |                                                 |
| \\      /  F ield         | OpenFOAM: The Open Source CFD Toolbox           |
|  \\    /   O peration     | Version:  v1912                                 |
|   \\  /    A nd           | Website:  www.openfoam.com                      |
|    \\/     M anipulation  |                                                 |
\*---------------------------------------------------------------------------*/
FoamFile
{
    version     2.0;
    format      ascii;
    class       surfaceScalarField;
    location    "0.22/fluid";
    object      phi;
}
// * * * * * * * * * * * * * * * * * * * * * * * * * * * * * * * * * * * * * //

dimensions      [0 3 -1 0 0 0 0];
oriented        oriented;


internalField   nonuniform List<scalar> 
41600
(
5.22975e-05
1.03905e-05
1.22528e-07
-3.10535e-07
4.58705e-05
6.69231e-06
-9.81811e-08
-1.67034e-07
4.20941e-05
4.01487e-06
-4.58184e-07
2.19669e-07
4.0164e-05
2.11482e-06
-8.7908e-07
6.94395e-07
3.90333e-05
1.25736e-06
-1.42173e-06
1.29501e-06
3.82245e-05
8.81671e-07
-2.11116e-06
2.0383e-06
3.74897e-05
7.56714e-07
-2.98776e-06
2.96588e-06
3.67038e-05
7.51936e-07
-4.10515e-06
4.13909e-06
3.57812e-05
8.18159e-07
-5.54126e-06
5.64572e-06
3.46376e-05
9.19518e-07
-7.4153e-06
7.63935e-06
3.3163e-05
1.05246e-06
-9.89115e-06
1.03133e-05
3.11495e-05
1.14414e-06
-1.32068e-05
1.40762e-05
2.82324e-05
1.23831e-06
-1.77941e-05
1.94729e-05
2.34652e-05
1.0201e-06
-2.38538e-05
2.76009e-05
1.51136e-05
8.43146e-07
-3.19845e-05
3.94929e-05
-1.20925e-06
-3.00404e-05
4.63633e-05
6.52604e-05
7.86386e-06
3.78728e-08
-2.71718e-07
6.52324e-05
7.05963e-06
-3.41203e-07
1.90972e-09
6.4454e-05
5.1081e-06
-8.72736e-07
5.57894e-07
6.34692e-05
3.34816e-06
-1.48266e-06
1.23419e-06
6.25107e-05
2.38835e-06
-2.25947e-06
2.08695e-06
6.15656e-05
1.92686e-06
-3.25313e-06
3.15305e-06
6.05587e-05
1.79484e-06
-4.52566e-06
4.49439e-06
5.94022e-05
1.86558e-06
-6.1577e-06
6.20057e-06
5.80035e-05
2.08184e-06
-8.26462e-06
8.39968e-06
5.62322e-05
2.4031e-06
-1.10212e-05
1.13089e-05
5.39258e-05
2.81635e-06
-1.46682e-05
1.52108e-05
5.07034e-05
3.25328e-06
-1.95587e-05
2.06719e-05
4.60444e-05
3.7281e-06
-2.62847e-05
2.8454e-05
3.82419e-05
3.9557e-06
-3.52005e-05
4.00675e-05
2.52249e-05
4.02747e-06
-4.67648e-05
5.65974e-05
1.81121e-06
-4.38813e-05
6.60857e-05
6.5448e-05
5.15525e-06
2.7002e-08
-2.66424e-07
6.67918e-05
6.06476e-06
-3.71402e-07
2.24793e-08
6.71243e-05
5.10009e-06
-9.18822e-07
5.94309e-07
6.6833e-05
3.8961e-06
-1.54346e-06
1.28683e-06
6.62722e-05
3.12787e-06
-2.33823e-06
2.1595e-06
6.55466e-05
2.75687e-06
-3.35551e-06
3.25118e-06
6.46622e-05
2.71294e-06
-4.65868e-06
4.62496e-06
6.35706e-05
2.915e-06
-6.33068e-06
6.37282e-06
6.21943e-05
3.3217e-06
-8.48961e-06
8.62604e-06
6.03998e-05
3.90501e-06
-1.13172e-05
1.16099e-05
5.80049e-05
4.65623e-06
-1.50608e-05
1.56158e-05
5.45851e-05
5.52843e-06
-2.00962e-05
2.12409e-05
4.95506e-05
6.51963e-06
-2.70278e-05
2.92709e-05
4.10613e-05
7.38117e-06
-3.62736e-05
4.13374e-05
2.6892e-05
7.9292e-06
-4.82669e-05
5.85344e-05
5.31445e-06
-4.54512e-05
6.88399e-05
6.42976e-05
3.59719e-06
4.59696e-08
-2.85536e-07
6.57306e-05
4.98182e-06
-3.36094e-07
-1.3921e-08
6.64907e-05
4.6654e-06
-8.70062e-07
5.44639e-07
6.66619e-05
3.98242e-06
-1.48016e-06
1.22267e-06
6.64659e-05
3.50368e-06
-2.25569e-06
2.07588e-06
6.60074e-05
3.32114e-06
-3.246e-06
3.14018e-06
6.53227e-05
3.43345e-06
-4.51137e-06
4.47557e-06
6.43897e-05
3.80875e-06
-6.13177e-06
6.17102e-06
6.31462e-05
4.43274e-06
-8.22073e-06
8.35321e-06
6.14607e-05
5.30323e-06
-1.09575e-05
1.12448e-05
5.91403e-05
6.42817e-06
-1.45811e-05
1.51296e-05
5.57322e-05
7.79824e-06
-1.94765e-05
2.06148e-05
5.05996e-05
9.41183e-06
-2.62298e-05
2.84702e-05
4.18522e-05
1.10442e-05
-3.53282e-05
4.04125e-05
2.71642e-05
1.229e-05
-4.719e-05
5.75173e-05
8.94185e-06
-4.46912e-05
6.82279e-05
6.37042e-05
2.63223e-06
7.7962e-08
-3.17237e-07
6.50004e-05
4.03588e-06
-2.73972e-07
-7.62059e-08
6.58822e-05
4.10922e-06
-7.85153e-07
4.59459e-07
6.63014e-05
3.82127e-06
-1.37205e-06
1.11399e-06
6.63637e-05
3.62234e-06
-2.11638e-06
1.93542e-06
6.61428e-05
3.65e-06
-3.0623e-06
2.95443e-06
6.5674e-05
3.94136e-06
-4.26476e-06
4.22561e-06
6.49461e-05
4.50279e-06
-5.79775e-06
5.83161e-06
6.39077e-05
5.34721e-06
-7.76567e-06
7.88959e-06
6.24321e-05
6.50586e-06
-1.03391e-05
1.06121e-05
6.03211e-05
8.01439e-06
-1.37382e-05
1.42629e-05
5.70913e-05
9.93178e-06
-1.83482e-05
1.94445e-05
5.20393e-05
1.22966e-05
-2.47118e-05
2.68789e-05
4.31249e-05
1.49997e-05
-3.34101e-05
3.8369e-05
2.78171e-05
1.75009e-05
-4.48038e-05
5.49008e-05
1.35932e-05
-4.27927e-05
6.59584e-05
6.34197e-05
1.95167e-06
1.16224e-07
-3.55354e-07
6.45984e-05
3.20761e-06
-1.98592e-07
-1.51856e-07
6.55333e-05
3.50058e-06
-6.8217e-07
3.55918e-07
6.61176e-05
3.49597e-06
-1.24128e-06
9.82244e-07
6.63825e-05
3.54015e-06
-1.94796e-06
1.76532e-06
6.63732e-05
3.76996e-06
-2.84e-06
2.72937e-06
6.61182e-05
4.23983e-06
-3.96586e-06
3.92232e-06
6.56108e-05
4.98344e-06
-5.39199e-06
5.41877e-06
6.48058e-05
6.03961e-06
-7.21156e-06
7.32411e-06
6.35779e-05
7.48024e-06
-9.58394e-06
9.83754e-06
6.17206e-05
9.37952e-06
-1.27059e-05
1.3198e-05
5.87138e-05
1.19018e-05
-1.69613e-05
1.79981e-05
5.37871e-05
1.51612e-05
-2.2835e-05
2.48972e-05
4.47222e-05
1.92949e-05
-3.1024e-05
3.57937e-05
2.87493e-05
2.37275e-05
-4.17972e-05
5.15435e-05
1.97298e-05
-4.04639e-05
6.30766e-05
6.33094e-05
1.38145e-06
1.60075e-07
-3.993e-07
6.44412e-05
2.42686e-06
-1.12264e-07
-2.38754e-07
6.5426e-05
2.84301e-06
-5.6429e-07
2.37042e-07
6.61373e-05
3.04531e-06
-1.09157e-06
8.31005e-07
6.65711e-05
3.29129e-06
-1.75466e-06
1.56965e-06
6.67593e-05
3.69617e-06
-2.5836e-06
2.46925e-06
6.67304e-05
4.31822e-06
-3.61831e-06
3.56875e-06
6.64902e-05
5.20712e-06
-4.91409e-06
4.93064e-06
6.60158e-05
6.41939e-06
-6.54655e-06
6.64122e-06
6.52134e-05
8.063e-06
-8.65193e-06
8.87151e-06
6.39186e-05
1.02472e-05
-1.13828e-05
1.18098e-05
6.16414e-05
1.32774e-05
-1.50865e-05
1.59881e-05
5.7614e-05
1.74e-05
-2.01221e-05
2.19106e-05
4.92458e-05
2.34627e-05
-2.72668e-05
3.14672e-05
3.3107e-05
3.12884e-05
-3.65392e-05
4.51171e-05
3.20675e-05
-3.59447e-05
5.67139e-05
6.32857e-05
2.07046e-07
-4.46593e-07
8.35269e-07
6.4432e-05
-1.97893e-08
-3.32095e-07
1.63249e-06
6.5486e-05
-4.38117e-07
1.09511e-07
2.11756e-06
6.63124e-05
-9.31528e-07
6.6904e-07
2.48144e-06
6.68939e-05
-1.54824e-06
1.36047e-06
2.89753e-06
6.72588e-05
-2.31017e-06
2.19164e-06
3.44982e-06
6.74395e-05
-3.24843e-06
3.19237e-06
4.19363e-06
6.74522e-05
-4.40697e-06
4.41275e-06
5.18861e-06
6.72902e-05
-5.84448e-06
5.9209e-06
6.50496e-06
6.68828e-05
-7.67425e-06
7.86002e-06
8.28467e-06
6.60947e-05
-1.00086e-05
1.03735e-05
1.06703e-05
6.44675e-05
-1.31583e-05
1.39324e-05
1.41304e-05
6.12926e-05
-1.73652e-05
1.89043e-05
1.90358e-05
5.38264e-05
-2.34846e-05
2.716e-05
2.72534e-05
3.86561e-05
-3.13199e-05
3.88406e-05
3.89379e-05
-3.20784e-05
5.13423e-05
5.14596e-05
5.22287e-05
1.03965e-05
-2.61859e-09
4.56876e-05
6.70753e-06
-2.64647e-07
4.1792e-05
4.03245e-06
-5.95012e-07
3.97425e-05
2.13503e-06
-9.64628e-07
3.84829e-05
1.28308e-06
-1.44519e-06
3.75222e-05
9.15643e-07
-2.06607e-06
3.65969e-05
8.02452e-07
-2.86496e-06
3.55653e-05
8.13795e-07
-3.88733e-06
3.43213e-05
9.02611e-07
-5.19984e-06
3.27607e-05
1.03486e-06
-6.88964e-06
3.07434e-05
1.21319e-06
-9.08703e-06
2.80648e-05
1.36916e-06
-1.18974e-05
2.43168e-05
1.56591e-06
-1.5612e-05
1.88286e-05
1.51735e-06
-1.9883e-05
1.01003e-05
1.54548e-06
-2.48017e-05
-7.85184e-08
-1.98616e-05
6.5167e-05
7.87992e-06
-1.12609e-07
6.49847e-05
7.09289e-06
-5.44194e-07
6.40343e-05
5.15073e-06
-1.04066e-06
6.28702e-05
3.39987e-06
-1.5834e-06
6.17157e-05
2.45402e-06
-2.27591e-06
6.05394e-05
2.01292e-06
-3.17407e-06
5.9243e-05
1.90976e-06
-4.33661e-06
5.77121e-05
2.01994e-06
-5.83298e-06
5.58216e-05
2.29007e-06
-7.76159e-06
5.3406e-05
2.68251e-06
-1.02532e-05
5.02542e-05
3.19292e-06
-1.3496e-05
4.59763e-05
3.75234e-06
-1.7664e-05
4.00002e-05
4.39716e-06
-2.31399e-05
3.10347e-05
4.82179e-06
-2.95395e-05
1.73805e-05
5.09646e-06
-3.66616e-05
2.82589e-06
-2.94052e-05
6.53536e-05
5.17994e-06
-1.2666e-07
6.654e-05
6.11452e-06
-5.7937e-07
6.66968e-05
5.16631e-06
-1.09118e-06
6.62221e-05
3.97821e-06
-1.64711e-06
6.54609e-05
3.23255e-06
-2.35559e-06
6.44992e-05
2.89419e-06
-3.27506e-06
6.33194e-05
2.89648e-06
-4.46567e-06
6.18456e-05
3.16204e-06
-5.99895e-06
5.99662e-05
3.6555e-06
-7.97564e-06
5.75102e-05
4.35355e-06
-1.05323e-05
5.4244e-05
5.25965e-06
-1.38613e-05
4.97296e-05
6.32335e-06
-1.81529e-05
4.33221e-05
7.57055e-06
-2.37937e-05
3.3606e-05
8.68955e-06
-3.04252e-05
1.87457e-05
9.48678e-06
-3.77969e-05
6.41957e-06
-3.02992e-05
6.42052e-05
3.6295e-06
-1.08755e-07
6.54837e-05
5.04639e-06
-5.46524e-07
6.60728e-05
4.75258e-06
-1.04543e-06
6.60667e-05
4.0917e-06
-1.5875e-06
6.56778e-05
3.64357e-06
-2.27783e-06
6.49928e-05
3.50517e-06
-3.17197e-06
6.40249e-05
3.68017e-06
-4.32722e-06
6.27253e-05
4.14234e-06
-5.81239e-06
6.09981e-05
4.88602e-06
-7.72412e-06
5.86743e-05
5.91676e-06
-1.01969e-05
5.55088e-05
7.26002e-06
-1.3416e-05
5.10319e-05
8.90367e-06
-1.75799e-05
4.45453e-05
1.08864e-05
-2.3059e-05
3.45715e-05
1.2885e-05
-2.95498e-05
1.9152e-05
1.45056e-05
-3.67894e-05
1.04125e-05
-2.95321e-05
6.36146e-05
2.67098e-06
-7.81114e-08
6.47614e-05
4.11305e-06
-4.87447e-07
6.54795e-05
4.21402e-06
-9.64723e-07
6.57307e-05
3.95334e-06
-1.4849e-06
6.5612e-05
3.7919e-06
-2.14595e-06
6.51798e-05
3.87363e-06
-2.99853e-06
6.44481e-05
4.24217e-06
-4.09505e-06
6.33802e-05
4.9115e-06
-5.49903e-06
6.18934e-05
5.90618e-06
-7.29901e-06
5.98243e-05
7.26946e-06
-9.62277e-06
5.69238e-05
9.06181e-06
-1.26395e-05
5.26855e-05
1.1346e-05
-1.65523e-05
4.63343e-05
1.42223e-05
-2.16964e-05
3.62058e-05
1.74609e-05
-2.78575e-05
2.00781e-05
2.05709e-05
-3.47413e-05
1.56494e-05
-2.79515e-05
6.33333e-05
1.99548e-06
-4.1545e-08
6.4369e-05
3.29448e-06
-4.15747e-07
6.51489e-05
3.61885e-06
-8.66908e-07
6.55764e-05
3.64545e-06
-1.36092e-06
6.56745e-05
3.73252e-06
-1.98661e-06
6.54724e-05
4.02442e-06
-2.78874e-06
6.4979e-05
4.58343e-06
-3.81371e-06
6.41638e-05
5.45307e-06
-5.11836e-06
6.29527e-05
6.68699e-06
-6.78124e-06
6.11847e-05
8.37482e-06
-8.92133e-06
5.86041e-05
1.06243e-05
-1.16878e-05
5.46606e-05
1.36167e-05
-1.52885e-05
4.8504e-05
1.75551e-05
-2.00112e-05
3.82491e-05
2.24489e-05
-2.57571e-05
2.13548e-05
2.7844e-05
-3.2176e-05
2.25718e-05
-2.60316e-05
6.32268e-05
1.42853e-06
2.21784e-10
6.42229e-05
2.51989e-06
-3.33772e-07
6.50629e-05
2.96975e-06
-7.55138e-07
6.56303e-05
3.20566e-06
-1.21921e-06
6.59143e-05
3.49785e-06
-1.80403e-06
6.59327e-05
3.96968e-06
-2.54721e-06
6.5697e-05
4.68817e-06
-3.48739e-06
6.51934e-05
5.71435e-06
-4.67178e-06
6.4376e-05
7.12167e-06
-6.1638e-06
6.31226e-05
9.0411e-06
-8.06477e-06
6.12301e-05
1.16223e-05
-1.04883e-05
5.81785e-05
1.52074e-05
-1.36256e-05
5.31235e-05
2.01604e-05
-1.76723e-05
4.37043e-05
2.72518e-05
-2.26506e-05
2.6564e-05
3.65207e-05
-2.80756e-05
3.59529e-05
-2.27617e-05
6.32071e-05
4.48309e-08
8.83637e-07
6.42256e-05
-2.46111e-07
1.72776e-06
6.51455e-05
-6.35668e-07
2.24733e-06
6.58419e-05
-1.06788e-06
2.64569e-06
6.62915e-05
-1.60918e-06
3.10916e-06
6.65104e-05
-2.28964e-06
3.73021e-06
6.65167e-05
-3.13991e-06
4.57336e-06
6.63107e-05
-4.19727e-06
5.7107e-06
6.58674e-05
-5.51023e-06
7.23069e-06
6.50932e-05
-7.16235e-06
9.30337e-06
6.38243e-05
-9.23378e-06
1.21164e-05
6.15725e-05
-1.18988e-05
1.61998e-05
5.75701e-05
-1.52641e-05
2.20617e-05
4.92282e-05
-1.94806e-05
3.15897e-05
3.31091e-05
-2.39403e-05
4.52602e-05
-1.99072e-05
5.68908e-05
5.2172e-05
1.04021e-05
-7.67043e-08
4.55331e-05
6.72164e-06
-3.47444e-07
4.15296e-05
4.049e-06
-6.40529e-07
3.93672e-05
2.15414e-06
-9.56307e-07
3.79821e-05
1.3072e-06
-1.36729e-06
3.68713e-05
9.47186e-07
-1.90247e-06
3.57556e-05
8.44321e-07
-2.59361e-06
3.44737e-05
8.69303e-07
-3.47469e-06
3.28928e-05
9.76087e-07
-4.59506e-06
3.08796e-05
1.13091e-06
-6.0074e-06
2.82532e-05
1.3384e-06
-7.79898e-06
2.48114e-05
1.52929e-06
-9.98484e-06
2.01738e-05
1.76969e-06
-1.27441e-05
1.41343e-05
1.77926e-06
-1.56228e-05
6.0572e-06
1.81848e-06
-1.85431e-05
2.68176e-07
-1.40725e-05
6.50891e-05
7.89528e-06
-1.94822e-07
6.47733e-05
7.12438e-06
-6.31172e-07
6.36673e-05
5.19125e-06
-1.07695e-06
6.23346e-05
3.44902e-06
-1.54555e-06
6.09911e-05
2.5162e-06
-2.14142e-06
5.95892e-05
2.09404e-06
-2.91898e-06
5.80081e-05
2.01755e-06
-3.92879e-06
5.61052e-05
2.16384e-06
-5.22457e-06
5.37176e-05
2.48254e-06
-6.88045e-06
5.0638e-05
2.93765e-06
-8.98035e-06
4.66007e-05
3.53042e-06
-1.16508e-05
4.12201e-05
4.18763e-06
-1.49417e-05
3.39703e-05
4.95667e-06
-1.90771e-05
2.42132e-05
5.50186e-06
-2.3505e-05
1.13543e-05
5.86071e-06
-2.7845e-05
3.41568e-06
-2.11983e-05
6.52749e-05
5.20362e-06
-2.09928e-07
6.63252e-05
6.16189e-06
-6.6718e-07
6.6323e-05
5.22934e-06
-1.12707e-06
6.56758e-05
4.05627e-06
-1.60717e-06
6.47215e-05
3.33181e-06
-2.21684e-06
6.35293e-05
3.02407e-06
-3.01295e-06
6.2059e-05
3.06966e-06
-4.04741e-06
6.0205e-05
3.39458e-06
-5.37568e-06
5.78167e-05
3.96887e-06
-7.07369e-06
5.46786e-05
4.77305e-06
-9.22962e-06
5.04995e-05
5.82092e-06
-1.19727e-05
4.48413e-05
7.0562e-06
-1.53632e-05
3.71021e-05
8.52664e-06
-1.96246e-05
2.65364e-05
9.85645e-06
-2.42141e-05
1.2455e-05
1.08459e-05
-2.87006e-05
7.38189e-06
-2.18104e-05
6.41283e-05
3.66044e-06
-1.93857e-07
6.52737e-05
5.10789e-06
-6.37981e-07
6.57083e-05
4.83551e-06
-1.08616e-06
6.55353e-05
4.19551e-06
-1.55374e-06
6.49602e-05
3.77621e-06
-2.14716e-06
6.40537e-05
3.67936e-06
-2.92072e-06
6.28065e-05
3.91345e-06
-3.92385e-06
6.11409e-05
4.45752e-06
-5.20974e-06
5.89223e-05
5.31426e-06
-6.8509e-06
5.59363e-05
6.49628e-06
-8.93408e-06
5.18779e-05
8.04583e-06
-1.15826e-05
4.62719e-05
9.94656e-06
-1.48642e-05
3.84542e-05
1.22747e-05
-1.89894e-05
2.76083e-05
1.46123e-05
-2.34598e-05
1.29141e-05
1.65877e-05
-2.78369e-05
1.19199e-05
-2.11561e-05
6.35403e-05
2.708e-06
-1.66016e-07
6.45589e-05
4.18645e-06
-5.84557e-07
6.51293e-05
4.31358e-06
-1.01322e-06
6.52225e-05
4.07865e-06
-1.46118e-06
6.49286e-05
3.95257e-06
-2.0285e-06
6.42893e-05
4.08535e-06
-2.76519e-06
6.32973e-05
4.52689e-06
-3.7165e-06
6.18886e-05
5.29854e-06
-4.93128e-06
5.9943e-05
6.43639e-06
-6.47556e-06
5.72526e-05
7.99529e-06
-8.43137e-06
5.35078e-05
1.00609e-05
-1.09098e-05
4.81888e-05
1.26988e-05
-1.39855e-05
4.05403e-05
1.607e-05
-1.78432e-05
2.95267e-05
1.98293e-05
-2.20609e-05
1.40117e-05
2.35476e-05
-2.61863e-05
1.78958e-05
-1.99157e-05
6.32621e-05
2.03722e-06
-1.32832e-07
6.41755e-05
3.37698e-06
-5.19683e-07
6.4816e-05
3.73103e-06
-9.24841e-07
6.5096e-05
3.78711e-06
-1.34938e-06
6.50324e-05
3.9147e-06
-1.88521e-06
6.46409e-05
4.26529e-06
-2.57718e-06
6.39107e-05
4.90884e-06
-3.4654e-06
6.27858e-05
5.8984e-06
-4.59335e-06
6.11572e-05
7.3027e-06
-6.01895e-06
5.88204e-05
9.22892e-06
-7.81818e-06
5.54601e-05
1.18202e-05
-1.00868e-05
5.05037e-05
1.52742e-05
-1.29075e-05
4.31067e-05
1.98861e-05
-1.64302e-05
3.19675e-05
2.55437e-05
-2.03324e-05
1.55444e-05
3.19281e-05
-2.41333e-05
2.58245e-05
-1.84159e-05
6.31592e-05
1.47325e-06
-9.50081e-08
6.40399e-05
2.60808e-06
-4.45585e-07
6.475e-05
3.08979e-06
-8.23969e-07
6.51822e-05
3.35748e-06
-1.22177e-06
6.53208e-05
3.69336e-06
-1.72128e-06
6.51714e-05
4.2286e-06
-2.36118e-06
6.47292e-05
5.03877e-06
-3.17511e-06
6.39587e-05
6.1961e-06
-4.19893e-06
6.27848e-05
7.79161e-06
-5.47882e-06
6.10482e-05
9.97955e-06
-7.0788e-06
5.84951e-05
1.29539e-05
-9.06895e-06
5.4579e-05
1.70933e-05
-1.15286e-05
4.84498e-05
2.28884e-05
-1.45455e-05
3.82262e-05
3.10298e-05
-1.7913e-05
2.13524e-05
4.18112e-05
-2.10849e-05
4.05118e-05
-1.60966e-05
6.31433e-05
-5.4685e-08
9.29474e-07
6.40538e-05
-3.66432e-07
1.81791e-06
6.48541e-05
-7.16243e-07
2.37008e-06
6.54282e-05
-1.08558e-06
2.80105e-06
6.57494e-05
-1.54641e-06
3.30935e-06
6.58237e-05
-2.13088e-06
3.99556e-06
6.56553e-05
-2.86592e-06
4.93325e-06
6.52268e-05
-3.77952e-06
6.2068e-06
6.44904e-05
-4.90611e-06
7.9239e-06
6.3322e-05
-6.29754e-06
1.02831e-05
6.15182e-05
-7.99916e-06
1.3523e-05
5.85637e-05
-1.00864e-05
1.82354e-05
5.36891e-05
-1.25856e-05
2.50845e-05
4.46818e-05
-1.54124e-05
3.5969e-05
2.87499e-05
-1.79671e-05
5.17699e-05
-1.40083e-05
6.33626e-05
5.21257e-05
1.04073e-05
-1.09691e-07
4.54051e-05
6.73425e-06
-3.61108e-07
4.1309e-05
4.06396e-06
-6.08381e-07
3.90482e-05
2.17148e-06
-8.66983e-07
3.75548e-05
1.32911e-06
-1.20295e-06
3.63187e-05
9.75948e-07
-1.64232e-06
3.50528e-05
8.82799e-07
-2.21053e-06
3.3589e-05
9.2108e-07
-2.93204e-06
3.17897e-05
1.04619e-06
-3.84193e-06
2.95256e-05
1.22602e-06
-4.96928e-06
2.66269e-05
1.46861e-06
-6.36887e-06
2.2943e-05
1.70861e-06
-8.00961e-06
1.81704e-05
2.01849e-06
-9.98995e-06
1.22882e-05
2.13294e-06
-1.18735e-05
4.99655e-06
2.27617e-06
-1.35276e-05
8.07617e-07
-9.8836e-06
6.50248e-05
7.90922e-06
-2.21599e-07
6.45968e-05
7.1528e-06
-6.21672e-07
6.33567e-05
5.2279e-06
-1.00083e-06
6.18768e-05
3.49346e-06
-1.38759e-06
6.03691e-05
2.57232e-06
-1.87698e-06
5.87763e-05
2.16713e-06
-2.51735e-06
5.69656e-05
2.11454e-06
-3.34979e-06
5.47827e-05
2.29333e-06
-4.41393e-06
5.20553e-05
2.65592e-06
-5.76278e-06
4.85784e-05
3.16842e-06
-7.44589e-06
4.41003e-05
3.83769e-06
-9.54181e-06
3.83087e-05
4.58971e-06
-1.20311e-05
3.07933e-05
5.4831e-06
-1.50263e-05
2.12312e-05
6.16712e-06
-1.79771e-05
9.49167e-06
6.65773e-06
-2.0487e-05
4.11249e-06
-1.50115e-05
6.52101e-05
5.22515e-06
-2.35937e-07
6.61459e-05
6.20477e-06
-6.5494e-07
6.60067e-05
5.28633e-06
-1.04633e-06
6.52089e-05
4.12676e-06
-1.44268e-06
6.40867e-05
3.42117e-06
-1.94348e-06
6.26996e-05
3.14058e-06
-2.59927e-06
6.09946e-05
3.22437e-06
-3.4523e-06
5.88546e-05
3.60132e-06
-4.54359e-06
5.61185e-05
4.24583e-06
-5.9275e-06
5.25727e-05
5.14122e-06
-7.65665e-06
4.79393e-05
6.30935e-06
-9.81101e-06
4.18548e-05
7.68874e-06
-1.23777e-05
3.38352e-05
9.34381e-06
-1.54657e-05
2.34623e-05
1.08523e-05
-1.85263e-05
1.05292e-05
1.20082e-05
-2.1118e-05
8.26377e-06
-1.54325e-05
6.40651e-05
3.68855e-06
-2.2234e-07
6.50987e-05
5.16354e-06
-6.30384e-07
6.54002e-05
4.91043e-06
-1.01179e-06
6.50817e-05
4.28909e-06
-1.39749e-06
6.43449e-05
3.89537e-06
-1.8846e-06
6.32511e-05
3.83516e-06
-2.52147e-06
6.17791e-05
4.12087e-06
-3.34837e-06
5.98395e-05
4.73564e-06
-4.40452e-06
5.72878e-05
5.68832e-06
-5.74169e-06
5.39108e-05
6.99571e-06
-7.41155e-06
4.94159e-05
8.71144e-06
-9.48974e-06
4.33988e-05
1.08113e-05
-1.19697e-05
3.53082e-05
1.3396e-05
-1.49509e-05
2.46465e-05
1.59725e-05
-1.79183e-05
1.10658e-05
1.81782e-05
-2.04262e-05
1.30844e-05
-1.49109e-05
6.34795e-05
2.74156e-06
-1.98539e-07
6.43905e-05
4.25282e-06
-5.84853e-07
6.4834e-05
4.40343e-06
-9.49675e-07
6.47892e-05
4.19145e-06
-1.31878e-06
6.43434e-05
4.09667e-06
-1.78395e-06
6.35291e-05
4.27425e-06
-2.38996e-06
6.2328e-05
4.77912e-06
-3.17372e-06
6.06655e-05
5.63803e-06
-4.17111e-06
5.8412e-05
6.89521e-06
-5.42899e-06
5.53606e-05
8.61171e-06
-6.99598e-06
5.12125e-05
1.08888e-05
-8.93908e-06
4.55129e-05
1.37844e-05
-1.1259e-05
3.76084e-05
1.74948e-05
-1.40376e-05
2.67639e-05
2.15759e-05
-1.68198e-05
1.22836e-05
2.56273e-05
-1.9155e-05
1.94236e-05
-1.39712e-05
6.32039e-05
2.07498e-06
-1.70191e-07
6.40151e-05
3.45148e-06
-5.29537e-07
6.4536e-05
3.83215e-06
-8.74399e-07
6.46873e-05
3.91447e-06
-1.22373e-06
6.44834e-05
4.07783e-06
-1.66243e-06
6.39317e-05
4.47971e-06
-2.231e-06
6.30116e-05
5.19609e-06
-2.96224e-06
6.16574e-05
6.2868e-06
-3.88786e-06
5.97514e-05
7.83077e-06
-5.04856e-06
5.70898e-05
9.94421e-06
-6.48902e-06
5.33663e-05
1.27907e-05
-8.26521e-06
4.80665e-05
1.65635e-05
-1.03868e-05
4.04362e-05
2.16066e-05
-1.29117e-05
2.94521e-05
2.76913e-05
-1.54637e-05
1.39657e-05
3.45589e-05
-1.75785e-05
2.78081e-05
-1.28347e-05
6.31042e-05
1.51365e-06
-1.37915e-07
6.38889e-05
2.68762e-06
-4.66388e-07
6.44877e-05
3.19788e-06
-7.88548e-07
6.4802e-05
3.49383e-06
-1.11534e-06
6.48139e-05
3.86821e-06
-1.52358e-06
6.45224e-05
4.4587e-06
-2.04871e-06
6.39143e-05
5.34751e-06
-2.71841e-06
6.29463e-05
6.61457e-06
-3.55868e-06
6.15374e-05
8.36239e-06
-4.60155e-06
5.95299e-05
1.07569e-05
-5.88407e-06
5.66806e-05
1.40158e-05
-7.44473e-06
5.24918e-05
1.85203e-05
-9.29663e-06
4.61904e-05
2.48205e-05
-1.1458e-05
3.61259e-05
3.34919e-05
-1.36491e-05
2.00445e-05
4.49297e-05
-1.53744e-05
4.29644e-05
-1.12084e-05
6.30917e-05
-1.03549e-07
9.708e-07
6.39127e-05
-3.98975e-07
1.89913e-06
6.46108e-05
-6.96913e-07
2.48052e-06
6.50783e-05
-9.9972e-07
2.94045e-06
6.52874e-05
-1.37548e-06
3.4882e-06
6.52385e-05
-1.85433e-06
4.23108e-06
6.49291e-05
-2.45857e-06
5.24954e-06
6.4336e-05
-3.20825e-06
6.63633e-06
6.34077e-05
-4.1266e-06
8.51126e-06
6.20227e-05
-5.24277e-06
1.10871e-05
5.99898e-05
-6.57808e-06
1.46277e-05
5.68354e-05
-8.14876e-06
1.9737e-05
5.18592e-05
-9.93368e-06
2.71448e-05
4.30356e-05
-1.17561e-05
3.8659e-05
2.7794e-05
-1.31017e-05
5.5306e-05
-9.72132e-06
6.64715e-05
5.20889e-05
1.04116e-05
-1.10253e-07
4.53023e-05
6.74488e-06
-3.19383e-07
4.11299e-05
4.07661e-06
-5.12612e-07
3.87869e-05
2.18616e-06
-7.10161e-07
3.72023e-05
1.34757e-06
-9.65876e-07
3.58606e-05
9.99989e-07
-1.30064e-06
3.44685e-05
9.1461e-07
-1.73298e-06
3.2852e-05
9.63216e-07
-2.27882e-06
3.08689e-05
1.10189e-06
-2.96065e-06
2.83921e-05
1.29912e-06
-3.79163e-06
2.52623e-05
1.56405e-06
-4.80309e-06
2.13721e-05
1.83241e-06
-5.95185e-06
1.64966e-05
2.17754e-06
-7.29199e-06
1.07762e-05
2.34167e-06
-8.49481e-06
4.16689e-06
2.51893e-06
-9.43724e-06
1.06354e-06
-6.78023e-06
6.49734e-05
7.92111e-06
-2.0442e-07
6.44542e-05
7.17698e-06
-5.34582e-07
6.31035e-05
5.25907e-06
-8.3259e-07
6.15006e-05
3.53124e-06
-1.12978e-06
5.98551e-05
2.61988e-06
-1.50377e-06
5.81021e-05
2.22883e-06
-1.99322e-06
5.60995e-05
2.19602e-06
-2.62864e-06
5.36842e-05
2.40141e-06
-3.43677e-06
5.06761e-05
2.79937e-06
-4.45222e-06
4.6873e-05
3.35712e-06
-5.7007e-06
4.20374e-05
4.08479e-06
-7.22696e-06
3.5921e-05
4.90623e-06
-8.98861e-06
2.82267e-05
5.88583e-06
-1.10402e-05
1.88914e-05
6.65848e-06
-1.29586e-05
8.12261e-06
7.22136e-06
-1.44206e-05
4.56729e-06
-1.03926e-05
6.51581e-05
5.24354e-06
-2.16484e-07
6.6001e-05
6.24132e-06
-5.62164e-07
6.57488e-05
5.33489e-06
-8.69955e-07
6.48252e-05
4.18672e-06
-1.17457e-06
6.3562e-05
3.49701e-06
-1.55736e-06
6.20111e-05
3.23916e-06
-2.05872e-06
6.01101e-05
3.35482e-06
-2.71008e-06
5.77322e-05
3.77492e-06
-3.5392e-06
5.47085e-05
4.4772e-06
-4.58165e-06
5.08273e-05
5.44684e-06
-5.86516e-06
4.58249e-05
6.7114e-06
-7.4352e-06
3.94025e-05
8.20416e-06
-9.25329e-06
3.11924e-05
1.00006e-05
-1.13704e-05
2.10466e-05
1.16405e-05
-1.33625e-05
9.11103e-06
1.2911e-05
-1.48721e-05
8.93346e-06
-1.06876e-05
6.40145e-05
3.71257e-06
-2.05872e-07
6.49575e-05
5.21102e-06
-5.43053e-07
6.51493e-05
4.97427e-06
-8.43e-07
6.47091e-05
4.36869e-06
-1.13927e-06
6.38364e-05
3.9965e-06
-1.51141e-06
6.25852e-05
3.96703e-06
-1.99811e-06
6.0925e-05
4.29593e-06
-2.62934e-06
5.87574e-05
4.96958e-06
-3.43155e-06
5.59296e-05
6.00176e-06
-4.43845e-06
5.22298e-05
7.41235e-06
-5.67725e-06
4.73782e-05
9.26374e-06
-7.19045e-06
4.10326e-05
1.15245e-05
-8.94452e-06
3.2753e-05
1.43133e-05
-1.0984e-05
2.23077e-05
1.70769e-05
-1.29093e-05
9.69658e-06
1.9457e-05
-1.43611e-05
1.40257e-05
-1.03065e-05
6.34309e-05
2.77023e-06
-1.87118e-07
6.42549e-05
4.30941e-06
-5.07254e-07
6.45938e-05
4.47994e-06
-7.94205e-07
6.44339e-05
4.28736e-06
-1.07753e-06
6.38601e-05
4.21893e-06
-1.43265e-06
6.28986e-05
4.43413e-06
-1.8955e-06
6.15224e-05
4.99202e-06
-2.49358e-06
5.9648e-05
5.92374e-06
-3.25094e-06
5.71386e-05
7.28011e-06
-4.1979e-06
5.37878e-05
9.12703e-06
-5.35983e-06
4.93078e-05
1.15782e-05
-6.77358e-06
4.33008e-05
1.46844e-05
-8.41188e-06
3.52158e-05
1.86689e-05
-1.03081e-05
2.45703e-05
2.30083e-05
-1.21059e-05
1.09978e-05
2.73202e-05
-1.34456e-05
2.06911e-05
-9.6388e-06
6.31576e-05
2.1072e-06
-1.64803e-07
6.38863e-05
3.51495e-06
-4.63756e-07
6.43087e-05
3.91821e-06
-7.35067e-07
6.43526e-05
4.02269e-06
-1.00298e-06
6.40305e-05
4.21615e-06
-1.33756e-06
6.33441e-05
4.66109e-06
-1.7715e-06
6.22646e-05
5.43845e-06
-2.32924e-06
6.07188e-05
6.61358e-06
-3.03187e-06
5.8582e-05
8.27373e-06
-3.90538e-06
5.56505e-05
1.05423e-05
-4.97281e-06
5.16277e-05
1.35994e-05
-6.26362e-06
4.60494e-05
1.76343e-05
-7.75837e-06
3.82536e-05
2.30279e-05
-9.47486e-06
2.7452e-05
2.94597e-05
-1.11134e-05
1.27929e-05
3.67106e-05
-1.23099e-05
2.94768e-05
-8.82751e-06
6.30606e-05
1.54808e-06
-1.39409e-07
6.37679e-05
2.75535e-06
-4.1411e-07
6.42754e-05
3.28983e-06
-6.67656e-07
6.44912e-05
3.60963e-06
-9.18039e-07
6.43964e-05
4.01643e-06
-1.22904e-06
6.3985e-05
4.65331e-06
-1.62955e-06
6.32373e-05
5.60799e-06
-2.14024e-06
6.21037e-05
6.96669e-06
-2.77826e-06
6.04982e-05
8.84147e-06
-3.56371e-06
5.82639e-05
1.14076e-05
-4.5151e-06
5.51669e-05
1.49024e-05
-5.65075e-06
5.07525e-05
1.97086e-05
-6.9565e-06
4.43256e-05
2.64224e-05
-8.42568e-06
3.44365e-05
3.55276e-05
-9.82794e-06
1.90663e-05
4.74931e-05
-1.07867e-05
4.50586e-05
-7.72388e-06
6.30509e-05
-1.12393e-07
1.00598e-06
6.38002e-05
-3.61136e-07
1.96824e-06
6.44145e-05
-5.95728e-07
2.57439e-06
6.47931e-05
-8.27448e-07
3.05877e-06
6.49076e-05
-1.11331e-06
3.63975e-06
6.47545e-05
-1.47816e-06
4.43018e-06
6.43264e-05
-1.93876e-06
5.51627e-06
6.35954e-05
-2.50809e-06
6.99758e-06
6.25064e-05
-3.20018e-06
9.004e-06
6.09405e-05
-4.02879e-06
1.17596e-05
5.87163e-05
-5.00103e-06
1.55496e-05
5.53972e-05
-6.10774e-06
2.09867e-05
5.0351e-05
-7.31776e-06
2.88527e-05
4.17154e-05
-8.4747e-06
4.08819e-05
2.70943e-05
-9.20085e-06
5.82134e-05
-6.69696e-06
6.91285e-05
5.20614e-05
1.0415e-05
-8.67116e-08
4.5225e-05
6.75323e-06
-2.36226e-07
4.09946e-05
4.08652e-06
-3.68668e-07
3.85889e-05
2.19771e-06
-5.02241e-07
3.69354e-05
1.36208e-06
-6.74435e-07
3.55158e-05
1.01894e-06
-8.99957e-07
3.40339e-05
9.39782e-07
-1.19084e-06
3.23148e-05
9.96799e-07
-1.55656e-06
3.02177e-05
1.14679e-06
-2.01035e-06
2.7624e-05
1.3591e-06
-2.55702e-06
2.43896e-05
1.64422e-06
-3.21296e-06
2.04388e-05
1.93958e-06
-3.94062e-06
1.55936e-05
2.31985e-06
-4.76663e-06
1.00407e-05
2.53128e-06
-5.47319e-06
3.82537e-06
2.74897e-06
-5.97083e-06
1.28997e-06
-4.24481e-06
6.49347e-05
7.93047e-06
-1.54541e-07
6.43465e-05
7.19599e-06
-3.89133e-07
6.29113e-05
5.28354e-06
-5.94416e-07
6.12144e-05
3.56091e-06
-7.9605e-07
5.94641e-05
2.65716e-06
-1.04863e-06
5.75918e-05
2.27711e-06
-1.37907e-06
5.54508e-05
2.25967e-06
-1.8075e-06
5.28754e-05
2.48571e-06
-2.35025e-06
4.96867e-05
2.91112e-06
-3.02791e-06
4.56932e-05
3.50409e-06
-3.85212e-06
4.0679e-05
4.27734e-06
-4.84591e-06
3.44448e-05
5.15356e-06
-5.96837e-06
2.67646e-05
6.20146e-06
-7.24165e-06
1.76737e-05
7.0452e-06
-8.38171e-06
7.49991e-06
7.6689e-06
-9.1667e-06
4.92866e-06
-6.53137e-06
6.51191e-05
5.25803e-06
-1.63103e-07
6.58916e-05
6.27007e-06
-4.08737e-07
6.55531e-05
5.37302e-06
-6.20931e-07
6.45332e-05
4.23376e-06
-8.27607e-07
6.31629e-05
3.55636e-06
-1.0862e-06
6.14899e-05
3.3161e-06
-1.42475e-06
5.94473e-05
3.45628e-06
-1.86406e-06
5.69056e-05
3.90937e-06
-2.42112e-06
5.36967e-05
4.65544e-06
-3.11714e-06
4.96198e-05
5.68087e-06
-3.96498e-06
4.44328e-05
7.01705e-06
-4.98797e-06
3.78873e-05
8.59308e-06
-6.1473e-06
2.96888e-05
1.04919e-05
-7.46233e-06
1.97926e-05
1.22263e-05
-8.64738e-06
8.46964e-06
1.35777e-05
-9.45793e-06
9.42961e-06
-6.71885e-06
6.39766e-05
3.73148e-06
-1.55893e-07
6.48509e-05
5.24835e-06
-3.95676e-07
6.4959e-05
5.0244e-06
-6.02476e-07
6.44258e-05
4.43109e-06
-8.03392e-07
6.34499e-05
4.07557e-06
-1.05471e-06
6.20814e-05
4.06976e-06
-1.38328e-06
6.02856e-05
4.43168e-06
-1.80894e-06
5.79613e-05
5.14992e-06
-2.34783e-06
5.49568e-05
6.24154e-06
-3.02e-06
5.10703e-05
7.72807e-06
-3.83801e-06
4.60431e-05
9.67728e-06
-4.82344e-06
3.95811e-05
1.20513e-05
-5.94077e-06
3.13145e-05
1.49799e-05
-7.20549e-06
2.11111e-05
1.78679e-05
-8.34756e-06
9.09164e-06
2.0358e-05
-9.12197e-06
1.46848e-05
-6.47006e-06
6.33945e-05
2.79278e-06
-1.42937e-07
6.41527e-05
4.3539e-06
-3.71001e-07
6.44118e-05
4.54e-06
-5.68887e-07
6.41638e-05
4.36249e-06
-7.60949e-07
6.3493e-05
4.31441e-06
-1.00067e-06
6.24218e-05
4.55849e-06
-1.31303e-06
6.09194e-05
5.15674e-06
-1.71625e-06
5.89002e-05
6.14319e-06
-2.22496e-06
5.62279e-05
7.57297e-06
-2.85705e-06
5.2706e-05
9.51429e-06
-3.62415e-06
4.8066e-05
1.20881e-05
-4.54446e-06
4.19547e-05
1.53377e-05
-5.58699e-06
3.38854e-05
1.95019e-05
-6.76076e-06
2.34685e-05
2.40024e-05
-7.82338e-06
1.04468e-05
2.84654e-05
-8.53128e-06
2.1536e-05
-6.04312e-06
6.3123e-05
2.13253e-06
-1.27568e-07
6.37894e-05
3.56482e-06
-3.41048e-07
6.41368e-05
3.98573e-06
-5.28177e-07
6.40986e-05
4.1074e-06
-7.09689e-07
6.36867e-05
4.32409e-06
-9.35405e-07
6.28998e-05
4.80199e-06
-1.22811e-06
6.17058e-05
5.62555e-06
-1.60403e-06
6.00293e-05
6.86371e-06
-2.07587e-06
5.77467e-05
8.60897e-06
-2.65883e-06
5.46632e-05
1.09882e-05
-3.36321e-06
5.04999e-05
1.41907e-05
-4.20283e-06
4.4833e-05
1.83986e-05
-5.15227e-06
3.70581e-05
2.40134e-05
-6.21149e-06
2.64709e-05
3.06504e-05
-7.17417e-06
1.23119e-05
3.81108e-05
-7.7963e-06
3.05409e-05
-5.52053e-06
6.30281e-05
1.57513e-06
-1.10066e-07
6.36771e-05
2.80853e-06
-3.06851e-07
6.4115e-05
3.36193e-06
-4.81788e-07
6.42555e-05
3.70024e-06
-6.51326e-07
6.40795e-05
4.13201e-06
-8.60996e-07
6.35787e-05
4.80434e-06
-1.13103e-06
6.27304e-05
5.80878e-06
-1.47522e-06
6.1484e-05
7.23563e-06
-1.90381e-06
5.97549e-05
9.20275e-06
-2.42835e-06
5.73948e-05
1.18899e-05
-3.05674e-06
5.4186e-05
1.5545e-05
-3.7963e-06
4.97089e-05
2.05455e-05
-4.62632e-06
4.33177e-05
2.7512e-05
-5.53307e-06
3.3632e-05
3.68625e-05
-6.35428e-06
1.86962e-05
4.91021e-05
-6.84222e-06
4.63508e-05
-4.83754e-06
6.30206e-05
-9.14619e-08
1.03359e-06
6.37159e-05
-2.70376e-07
2.02248e-06
6.42664e-05
-4.32299e-07
2.64797e-06
6.4577e-05
-5.89083e-07
3.15132e-06
6.46194e-05
-7.81631e-07
3.75785e-06
6.43885e-05
-1.02748e-06
4.58458e-06
6.38747e-05
-1.33784e-06
5.72166e-06
6.30496e-05
-1.72033e-06
7.27297e-06
6.18605e-05
-2.18274e-06
9.37447e-06
6.01963e-05
-2.7303e-06
1.22556e-05
5.78914e-05
-3.36377e-06
1.62127e-05
5.45396e-05
-4.06682e-06
2.18564e-05
4.95516e-05
-4.81199e-06
2.99942e-05
4.11192e-05
-5.48402e-06
4.23042e-05
2.68807e-05
-5.83977e-06
5.99795e-05