/*--------------------------------*- C++ -*----------------------------------*\
| =========                 |                                                 |
| \\      /  F ield         | OpenFOAM: The Open Source CFD Toolbox           |
|  \\    /   O peration     | Version:  v1912                                 |
|   \\  /    A nd           | Website:  www.openfoam.com                      |
|    \\/     M anipulation  |                                                 |
\*---------------------------------------------------------------------------*/
FoamFile
{
    version     2.0;
    format      ascii;
    class       volScalarField;
    location    "0.22/fluid";
    object      T;
}
// * * * * * * * * * * * * * * * * * * * * * * * * * * * * * * * * * * * * * //

dimensions      [0 0 0 1 0 0 0];


internalField   nonuniform List<scalar> 
14592
(
273.077
273.238
273.423
273.645
273.92
274.266
274.703
275.255
275.947
276.806
277.863
279.151
280.71
282.592
284.889
287.835
273.076
273.236
273.419
273.638
273.91
274.252
274.685
275.232
275.917
276.769
277.818
279.099
280.653
282.533
284.835
287.783
273.074
273.231
273.411
273.626
273.892
274.228
274.653
275.189
275.862
276.7
277.734
279.001
280.543
282.42
284.732
287.709
273.073
273.225
273.4
273.609
273.868
274.194
274.606
275.127
275.782
276.599
277.61
278.853
280.376
282.244
284.567
287.595
273.07
273.217
273.386
273.587
273.837
274.15
274.547
275.049
275.679
276.467
277.444
278.651
280.14
281.985
284.316
287.412
273.067
273.208
273.369
273.562
273.8
274.099
274.476
274.953
275.553
276.303
277.235
278.39
279.823
281.62
283.936
287.108
273.064
273.198
273.351
273.533
273.758
274.04
274.396
274.844
275.407
276.11
276.984
278.067
279.414
281.117
283.355
286.564
273.06
273.187
273.331
273.502
273.713
273.976
274.307
274.724
275.245
275.894
276.697
277.688
278.914
280.455
282.48
285.473
273.081
273.253
273.449
273.685
273.978
274.349
274.818
275.411
276.157
277.085
278.229
279.627
281.321
283.367
285.846
288.895
273.08
273.25
273.444
273.678
273.968
274.334
274.799
275.386
276.125
277.045
278.182
279.573
281.262
283.308
285.793
288.852
273.079
273.245
273.436
273.665
273.949
274.308
274.764
275.341
276.066
276.972
278.093
279.469
281.149
283.193
285.692
288.787
273.077
273.239
273.424
273.647
273.923
274.272
274.715
275.275
275.982
276.865
277.962
279.314
280.974
283.013
285.531
288.685
273.074
273.23
273.409
273.624
273.89
274.226
274.652
275.191
275.872
276.724
277.785
279.1
280.726
282.746
285.281
288.517
273.071
273.221
273.391
273.596
273.85
274.17
274.576
275.089
275.737
276.549
277.562
278.821
280.39
282.364
284.894
288.229
273.068
273.21
273.372
273.566
273.806
274.108
274.489
274.972
275.58
276.342
277.292
278.475
279.954
281.83
284.29
287.69
273.064
273.198
273.351
273.533
273.758
274.04
274.395
274.843
275.406
276.109
276.983
278.066
279.413
281.116
283.355
286.563
273.085
273.266
273.473
273.722
274.032
274.424
274.922
275.552
276.344
277.33
278.545
280.026
281.812
283.945
286.468
289.415
273.085
273.263
273.468
273.714
274.021
274.409
274.902
275.526
276.311
277.289
278.496
279.97
281.752
283.885
286.416
289.376
273.083
273.258
273.459
273.701
274.002
274.382
274.865
275.478
276.249
277.212
278.403
279.862
281.635
283.769
286.316
289.314
273.081
273.251
273.446
273.681
273.974
274.344
274.813
275.409
276.16
277.1
278.265
279.7
281.454
283.584
286.155
289.215
273.078
273.242
273.431
273.657
273.939
274.295
274.747
275.32
276.044
276.951
278.08
279.476
281.196
283.31
285.903
289.051
273.075
273.232
273.412
273.629
273.897
274.236
274.667
275.212
275.902
276.766
277.845
279.184
280.846
282.916
285.511
288.767
273.071
273.221
273.391
273.596
273.85
274.17
274.575
275.088
275.736
276.548
277.56
278.82
280.389
282.362
284.893
288.229
273.067
273.208
273.369
273.561
273.799
274.098
274.475
274.952
275.551
276.301
277.233
278.387
279.82
281.617
283.933
287.107
273.089
273.278
273.494
273.755
274.08
274.491
275.013
275.674
276.504
277.537
278.806
280.345
282.187
284.356
286.866
289.695
273.088
273.275
273.488
273.746
274.068
274.475
274.992
275.646
276.469
277.494
278.754
280.287
282.124
284.296
286.814
289.656
273.087
273.269
273.479
273.732
274.047
274.446
274.953
275.596
276.405
277.414
278.658
280.176
282.005
284.178
286.714
289.595
273.084
273.262
273.466
273.712
274.019
274.406
274.899
275.524
276.312
277.297
278.515
280.008
281.819
283.99
286.552
289.497
273.081
273.253
273.45
273.687
273.982
274.355
274.829
275.431
276.191
277.142
278.323
279.777
281.555
283.711
286.298
289.334
273.078
273.242
273.43
273.657
273.938
274.294
274.746
275.319
276.042
276.949
278.078
279.474
281.194
283.308
285.901
289.05
273.074
273.23
273.409
273.623
273.889
274.224
274.65
275.189
275.869
276.721
277.781
279.096
280.722
282.742
285.278
288.515
273.07
273.217
273.385
273.586
273.835
274.149
274.545
275.046
275.676
276.463
277.44
278.646
280.135
281.98
284.312
287.409
273.092
273.287
273.511
273.782
274.119
274.546
275.087
275.773
276.633
277.701
279.008
280.586
282.46
284.64
287.12
289.856
273.091
273.284
273.506
273.773
274.107
274.529
275.065
275.744
276.597
277.656
278.956
280.527
282.397
284.579
287.068
289.818
273.09
273.279
273.496
273.758
274.086
274.5
275.026
275.693
276.531
277.574
278.857
280.414
282.275
284.46
286.968
289.757
273.087
273.271
273.483
273.738
274.056
274.458
274.97
275.618
276.435
277.454
278.71
280.242
282.086
284.27
286.805
289.659
273.084
273.262
273.466
273.711
274.018
274.405
274.897
275.522
276.31
277.294
278.512
280.005
281.816
283.986
286.549
289.495
273.081
273.251
273.446
273.68
273.972
274.342
274.811
275.406
276.156
277.095
278.26
279.694
281.448
283.578
286.15
289.212
273.077
273.238
273.423
273.645
273.921
274.269
274.711
275.271
275.977
276.859
277.955
279.306
280.966
283.005
285.525
288.681
273.072
273.225
273.399
273.607
273.866
274.191
274.603
275.123
275.777
276.593
277.603
278.845
280.367
282.235
284.56
287.59
273.095
273.295
273.525
273.803
274.149
274.588
275.144
275.848
276.73
277.822
279.156
280.759
282.648
284.829
287.28
289.951
273.094
273.292
273.519
273.794
274.137
274.571
275.122
275.819
276.693
277.777
279.103
280.698
282.584
284.767
287.228
289.913
273.092
273.286
273.509
273.779
274.115
274.541
275.081
275.766
276.625
277.693
279.002
280.583
282.461
284.647
287.128
289.853
273.09
273.279
273.495
273.758
274.084
274.498
275.024
275.69
276.527
277.57
278.852
280.409
282.269
284.455
286.964
289.754
273.086
273.269
273.478
273.731
274.045
274.443
274.949
275.591
276.399
277.407
278.65
280.167
281.996
284.169
286.706
289.59
273.083
273.257
273.457
273.699
273.999
274.378
274.86
275.472
276.242
277.203
278.393
279.852
281.623
283.758
286.307
289.308
273.079
273.244
273.434
273.663
273.946
274.304
274.758
275.334
276.058
276.962
278.082
279.457
281.136
283.181
285.681
288.78
273.074
273.231
273.409
273.624
273.889
274.224
274.647
275.181
275.853
276.689
277.722
278.988
280.53
282.407
284.719
287.7
273.096
273.3
273.534
273.817
274.17
274.616
275.183
275.898
276.794
277.902
279.252
280.869
282.766
284.943
287.375
290.006
273.095
273.297
273.528
273.808
274.157
274.599
275.16
275.869
276.757
277.857
279.198
280.808
282.702
284.881
287.323
289.968
273.094
273.291
273.518
273.793
274.135
274.568
275.119
275.815
276.688
277.772
279.096
280.691
282.577
284.76
287.222
289.907
273.091
273.283
273.504
273.771
274.104
274.525
275.06
275.737
276.589
277.647
278.945
280.515
282.384
284.567
287.057
289.808
273.088
273.274
273.486
273.744
274.064
274.469
274.985
275.637
276.458
277.481
278.74
280.271
282.109
284.28
286.799
289.644
273.084
273.262
273.465
273.711
274.017
274.403
274.894
275.516
276.299
277.275
278.48
279.952
281.733
283.867
286.399
289.362
273.08
273.249
273.442
273.674
273.963
274.328
274.79
275.376
276.112
277.03
278.165
279.554
281.243
283.288
285.774
288.836
273.076
273.235
273.416
273.635
273.905
274.246
274.677
275.221
275.904
276.753
277.801
279.08
280.633
282.513
284.815
287.765
273.097
273.303
273.539
273.824
274.18
274.63
275.202
275.923
276.827
277.942
279.299
280.922
282.823
284.997
287.418
290.03
273.096
273.299
273.533
273.815
274.167
274.613
275.179
275.894
276.789
277.896
279.245
280.861
282.758
284.936
287.367
289.993
273.094
273.294
273.523
273.8
274.145
274.582
275.137
275.839
276.72
277.81
279.143
280.744
282.633
284.814
287.265
289.932
273.092
273.286
273.509
273.778
274.113
274.538
275.078
275.761
276.619
277.685
278.99
280.567
282.439
284.62
287.1
289.833
273.089
273.276
273.491
273.75
274.073
274.482
275.002
275.66
276.488
277.518
278.784
280.322
282.163
284.332
286.842
289.669
273.085
273.264
273.47
273.717
274.026
274.416
274.911
275.538
276.327
277.31
278.523
280.001
281.786
283.919
286.442
289.387
273.081
273.251
273.446
273.68
273.972
274.34
274.806
275.397
276.139
277.064
278.205
279.601
281.294
283.339
285.817
288.862
273.076
273.237
273.42
273.64
273.913
274.257
274.692
275.241
275.929
276.785
277.839
279.125
280.682
282.563
284.859
287.794
273.05
273.154
273.27
273.405
273.566
273.76
273.996
274.278
274.612
275.001
275.44
275.922
276.431
276.942
277.422
277.835
273.049
273.152
273.267
273.401
273.56
273.753
273.985
274.265
274.596
274.98
275.415
275.893
276.397
276.903
277.38
277.789
273.048
273.149
273.262
273.393
273.55
273.738
273.967
274.241
274.565
274.942
275.368
275.837
276.332
276.829
277.298
277.701
273.047
273.146
273.255
273.383
273.535
273.719
273.94
274.206
274.521
274.887
275.301
275.756
276.237
276.721
277.177
277.57
273.046
273.141
273.247
273.37
273.517
273.693
273.907
274.162
274.465
274.816
275.214
275.651
276.113
276.579
277.018
277.397
273.044
273.135
273.237
273.355
273.495
273.664
273.867
274.11
274.398
274.732
275.11
275.525
275.964
276.406
276.824
277.184
273.042
273.129
273.226
273.338
273.471
273.63
273.822
274.051
274.322
274.636
274.991
275.38
275.792
276.206
276.597
276.934
273.04
273.122
273.214
273.32
273.445
273.594
273.774
273.988
274.24
274.532
274.861
275.222
275.602
275.985
276.345
276.656
273.051
273.156
273.275
273.413
273.578
273.778
274.02
274.313
274.66
275.065
275.526
276.035
276.576
277.124
277.643
278.092
273.05
273.155
273.272
273.409
273.572
273.77
274.01
274.299
274.643
275.043
275.5
276.004
276.54
277.084
277.599
278.045
273.049
273.152
273.267
273.401
273.561
273.755
273.99
274.274
274.611
275.004
275.451
275.946
276.473
277.007
277.514
277.954
273.048
273.148
273.26
273.391
273.546
273.735
273.963
274.238
274.565
274.947
275.381
275.862
276.374
276.894
277.389
277.818
273.046
273.143
273.252
273.377
273.527
273.709
273.929
274.193
274.507
274.874
275.291
275.754
276.246
276.747
277.223
277.637
273.045
273.138
273.241
273.362
273.505
273.678
273.888
274.139
274.438
274.786
275.183
275.622
276.09
276.565
277.019
277.413
273.043
273.131
273.23
273.345
273.48
273.644
273.842
274.079
274.36
274.687
275.059
275.471
275.909
276.354
276.779
277.148
273.04
273.124
273.218
273.326
273.454
273.607
273.792
274.013
274.275
274.579
274.924
275.305
275.71
276.12
276.511
276.85
273.052
273.162
273.285
273.43
273.603
273.813
274.07
274.382
274.755
275.193
275.697
276.26
276.867
277.49
278.09
278.616
273.052
273.161
273.282
273.425
273.596
273.805
274.059
274.367
274.736
275.17
275.669
276.227
276.828
277.447
278.043
278.566
273.051
273.158
273.277
273.417
273.585
273.789
274.039
274.341
274.703
275.128
275.618
276.165
276.757
277.365
277.953
278.47
273.05
273.154
273.27
273.406
273.569
273.768
274.01
274.303
274.654
275.068
275.543
276.076
276.651
277.245
277.82
278.325
273.048
273.149
273.261
273.392
273.55
273.741
273.974
274.255
274.593
274.99
275.447
275.959
276.513
277.086
277.641
278.13
273.046
273.143
273.25
273.376
273.526
273.709
273.93
274.199
274.519
274.897
275.331
275.818
276.344
276.888
277.417
277.883
273.044
273.136
273.239
273.358
273.5
273.673
273.882
274.134
274.436
274.79
275.198
275.654
276.146
276.656
277.15
277.587
273.042
273.129
273.226
273.338
273.472
273.634
273.829
274.065
274.345
274.674
275.051
275.473
275.927
276.395
276.848
277.249
273.055
273.171
273.301
273.454
273.639
273.865
274.143
274.483
274.893
275.381
275.948
276.591
277.297
278.037
278.767
279.419
273.055
273.169
273.298
273.449
273.632
273.856
274.131
274.467
274.873
275.356
275.918
276.555
277.255
277.991
278.717
279.366
273.054
273.166
273.292
273.441
273.62
273.84
274.109
274.439
274.837
275.31
275.862
276.488
277.178
277.903
278.62
279.264
273.052
273.162
273.285
273.429
273.603
273.817
274.078
274.398
274.785
275.245
275.781
276.391
277.063
277.772
278.475
279.107
273.051
273.156
273.275
273.414
273.582
273.788
274.039
274.347
274.718
275.16
275.676
276.263
276.911
277.596
278.277
278.893
273.049
273.15
273.264
273.397
273.557
273.753
273.993
274.285
274.638
275.058
275.548
276.106
276.723
277.375
278.025
278.614
273.046
273.143
273.251
273.378
273.53
273.714
273.941
274.216
274.548
274.942
275.401
275.924
276.5
277.11
277.719
278.27
273.044
273.135
273.238
273.357
273.5
273.673
273.884
274.14
274.449
274.814
275.238
275.72
276.25
276.809
277.364
277.867
273.059
273.182
273.321
273.485
273.685
273.931
274.236
274.611
275.068
275.618
276.267
277.015
277.854
278.756
279.673
280.518
273.058
273.18
273.318
273.48
273.678
273.921
274.223
274.594
275.047
275.591
276.234
276.976
277.809
278.707
279.62
280.463
273.057
273.177
273.312
273.471
273.665
273.903
274.199
274.563
275.007
275.541
276.173
276.903
277.724
278.612
279.517
280.355
273.056
273.172
273.303
273.458
273.647
273.879
274.165
274.519
274.95
275.47
276.084
276.796
277.598
278.469
279.359
280.188
273.054
273.166
273.293
273.443
273.624
273.847
274.123
274.463
274.877
275.377
275.968
276.655
277.43
278.273
279.141
279.952
273.052
273.16
273.281
273.424
273.597
273.81
274.072
274.396
274.79
275.264
275.826
276.479
277.217
278.023
278.854
279.636
273.049
273.152
273.267
273.403
273.567
273.768
274.015
274.319
274.689
275.135
275.661
276.272
276.962
277.716
278.495
279.229
273.047
273.144
273.253
273.381
273.534
273.722
273.953
274.236
274.58
274.992
275.478
276.039
276.672
277.359
278.066
278.732
273.063
273.195
273.344
273.522
273.739
274.008
274.343
274.76
275.272
275.895
276.639
277.514
278.516
279.627
280.8
281.932
273.062
273.193
273.34
273.516
273.731
273.997
274.329
274.741
275.248
275.865
276.603
277.471
278.467
279.575
280.745
281.877
273.061
273.189
273.334
273.506
273.717
273.978
274.303
274.707
275.205
275.811
276.537
277.392
278.375
279.473
280.637
281.767
273.059
273.184
273.325
273.493
273.697
273.951
274.267
274.659
275.143
275.732
276.439
277.274
278.238
279.317
280.47
281.594
273.057
273.178
273.314
273.475
273.672
273.916
274.22
274.598
275.063
275.629
276.311
277.117
278.051
279.102
280.231
281.342
273.055
273.171
273.301
273.455
273.643
273.876
274.165
274.524
274.966
275.505
276.153
276.92
277.811
278.818
279.908
280.989
273.052
273.162
273.286
273.433
273.61
273.83
274.102
274.44
274.855
275.36
275.967
276.685
277.518
278.462
279.485
280.508
273.05
273.154
273.271
273.408
273.575
273.78
274.034
274.348
274.733
275.2
275.759
276.417
277.179
278.036
278.961
279.883
273.067
273.209
273.37
273.562
273.797
274.092
274.461
274.922
275.494
276.196
277.045
278.059
279.248
280.61
282.118
283.676
273.067
273.207
273.366
273.555
273.789
274.08
274.445
274.902
275.468
276.163
277.006
278.013
279.196
280.555
282.062
283.622
273.065
273.203
273.359
273.545
273.774
274.059
274.417
274.865
275.421
276.104
276.934
277.927
279.097
280.447
281.953
283.517
273.064
273.197
273.349
273.53
273.752
274.03
274.377
274.812
275.353
276.018
276.827
277.799
278.948
280.282
281.78
283.349
273.061
273.191
273.337
273.512
273.726
273.992
274.327
274.745
275.265
275.905
276.686
277.626
278.743
280.048
281.527
283.095
273.059
273.183
273.323
273.49
273.694
273.948
274.266
274.664
275.158
275.767
276.51
277.406
278.475
279.732
281.171
282.72
273.056
273.174
273.307
273.465
273.658
273.898
274.198
274.572
275.036
275.606
276.302
277.141
278.142
279.322
280.683
282.168
273.053
273.164
273.29
273.439
273.62
273.844
274.123
274.471
274.9
275.428
276.067
276.836
277.748
278.816
280.042
281.377
273.072
273.224
273.396
273.603
273.859
274.179
274.582
275.09
275.722
276.505
277.461
278.618
280
281.634
283.543
285.718
273.071
273.221
273.392
273.597
273.849
274.166
274.566
275.068
275.694
276.47
277.419
278.569
279.945
281.577
283.487
285.667
273.07
273.217
273.385
273.585
273.833
274.144
274.535
275.028
275.643
276.406
277.341
278.476
279.841
281.466
283.379
285.574
273.068
273.211
273.374
273.569
273.81
274.112
274.492
274.971
275.569
276.312
277.225
278.337
279.681
281.293
283.209
285.426
273.066
273.204
273.361
273.549
273.781
274.072
274.437
274.898
275.474
276.189
277.071
278.149
279.459
281.045
282.952
285.196
273.063
273.196
273.346
273.526
273.747
274.023
274.372
274.81
275.357
276.038
276.878
277.908
279.165
280.701
282.577
284.834
273.06
273.186
273.329
273.499
273.708
273.969
274.297
274.709
275.223
275.861
276.648
277.612
278.792
280.24
282.031
284.246
273.057
273.176
273.31
273.47
273.666
273.91
274.215
274.598
275.074
275.663
276.386
277.269
278.342
279.651
281.263
283.271
273.057
273.176
273.31
273.47
273.666
273.91
274.215
274.597
275.074
275.662
276.386
277.268
278.342
279.651
281.263
283.27
273.053
273.164
273.29
273.438
273.619
273.843
274.123
274.47
274.9
275.427
276.066
276.835
277.747
278.815
280.041
281.376
273.05
273.153
273.27
273.408
273.575
273.78
274.034
274.347
274.732
275.199
275.758
276.416
277.177
278.034
278.96
279.882
273.046
273.144
273.253
273.38
273.534
273.722
273.953
274.235
274.579
274.991
275.476
276.038
276.67
277.357
278.065
278.73
273.044
273.135
273.238
273.357
273.499
273.672
273.883
274.139
274.448
274.813
275.237
275.718
276.248
276.807
277.363
277.866
273.042
273.129
273.226
273.338
273.472
273.633
273.829
274.064
274.344
274.673
275.05
275.471
275.925
276.393
276.847
277.247
273.04
273.124
273.218
273.326
273.453
273.607
273.791
274.012
274.274
274.578
274.923
275.303
275.708
276.118
276.509
276.849
273.04
273.122
273.214
273.32
273.444
273.594
273.773
273.987
274.239
274.53
274.859
275.22
275.6
275.983
276.344
276.655
273.06
273.186
273.329
273.499
273.708
273.968
274.296
274.708
275.222
275.86
276.646
277.611
278.79
280.238
282.03
284.245
273.056
273.174
273.307
273.465
273.658
273.897
274.197
274.57
275.034
275.605
276.3
277.139
278.14
279.32
280.681
282.166
273.052
273.162
273.286
273.432
273.61
273.829
274.101
274.438
274.853
275.358
275.965
276.682
277.516
278.459
279.483
280.506
273.049
273.152
273.267
273.403
273.566
273.767
274.014
274.318
274.688
275.133
275.659
276.27
276.96
277.713
278.492
279.227
273.046
273.143
273.251
273.377
273.529
273.714
273.939
274.214
274.546
274.94
275.399
275.921
276.498
277.108
277.716
278.268
273.044
273.136
273.238
273.357
273.5
273.672
273.881
274.133
274.434
274.788
275.195
275.651
276.144
276.653
277.148
277.585
273.042
273.131
273.23
273.344
273.48
273.643
273.841
274.077
274.358
274.685
275.057
275.468
275.907
276.352
276.776
277.146
273.042
273.129
273.226
273.338
273.47
273.629
273.821
274.05
274.32
274.634
274.988
275.378
275.789
276.203
276.595
276.932
273.063
273.195
273.346
273.525
273.746
274.022
274.37
274.808
275.355
276.036
276.875
277.904
279.162
280.698
282.574
284.832
273.059
273.183
273.323
273.489
273.693
273.947
274.265
274.662
275.156
275.764
276.507
277.403
278.472
279.728
281.168
282.717
273.055
273.17
273.301
273.455
273.642
273.874
274.163
274.522
274.963
275.502
276.149
276.916
277.807
278.814
279.904
280.986
273.051
273.159
273.281
273.423
273.596
273.808
274.071
274.393
274.787
275.261
275.823
276.475
277.213
278.019
278.85
279.632
273.048
273.15
273.263
273.396
273.557
273.752
273.991
274.283
274.636
275.055
275.545
276.103
276.719
277.371
278.022
278.611
273.046
273.142
273.25
273.375
273.525
273.707
273.929
274.197
274.517
274.894
275.328
275.814
276.34
276.884
277.413
277.88
273.044
273.137
273.241
273.361
273.504
273.677
273.886
274.137
274.436
274.784
275.18
275.618
276.086
276.562
277.015
277.41
273.044
273.135
273.237
273.354
273.494
273.662
273.865
274.108
274.395
274.729
275.106
275.521
275.96
276.402
276.82
277.18
273.066
273.204
273.361
273.548
273.78
274.07
274.435
274.895
275.47
276.185
277.066
278.144
279.454
281.039
282.947
285.192
273.061
273.19
273.337
273.511
273.724
273.99
274.324
274.742
275.261
275.901
276.681
277.62
278.737
280.042
281.522
283.09
273.057
273.178
273.313
273.474
273.671
273.914
274.218
274.594
275.059
275.625
276.306
277.111
278.045
279.096
280.225
281.337
273.054
273.166
273.292
273.442
273.622
273.845
274.12
274.46
274.873
275.372
275.963
276.649
277.424
278.267
279.135
279.947
273.05
273.156
273.275
273.413
273.581
273.786
274.037
274.344
274.714
275.156
275.671
276.258
276.906
277.591
278.272
278.888
273.048
273.148
273.26
273.391
273.548
273.739
273.971
274.252
274.589
274.986
275.442
275.954
276.508
277.08
277.635
278.125
273.046
273.143
273.251
273.376
273.526
273.707
273.926
274.19
274.504
274.87
275.287
275.748
276.241
276.741
277.218
277.633
273.045
273.14
273.246
273.369
273.515
273.692
273.904
274.159
274.461
274.812
275.209
275.646
276.108
276.574
277.013
277.393
273.068
273.211
273.373
273.568
273.808
274.109
274.488
274.966
275.564
276.305
277.217
278.329
279.673
281.285
283.2
285.419
273.063
273.197
273.348
273.529
273.75
274.027
274.373
274.807
275.347
276.011
276.819
277.79
278.939
280.273
281.771
283.341
273.059
273.184
273.324
273.491
273.695
273.948
274.263
274.654
275.137
275.725
276.432
277.266
278.229
279.309
280.461
281.586
273.055
273.172
273.302
273.457
273.645
273.876
274.162
274.514
274.945
275.463
276.077
276.788
277.59
278.46
279.351
280.18
273.052
273.161
273.284
273.428
273.601
273.814
274.075
274.394
274.779
275.238
275.774
276.383
277.055
277.764
278.467
279.1
273.05
273.153
273.269
273.405
273.567
273.765
274.007
274.299
274.649
275.062
275.537
276.069
276.644
277.237
277.812
278.318
273.048
273.148
273.259
273.389
273.544
273.732
273.96
274.234
274.56
274.941
275.375
275.855
276.367
276.887
277.382
277.812
273.047
273.145
273.255
273.382
273.533
273.716
273.937
274.202
274.516
274.881
275.294
275.749
276.229
276.713
277.17
277.564
273.07
273.216
273.383
273.583
273.83
274.139
274.529
275.02
275.634
276.395
277.329
278.463
279.827
281.452
283.366
285.562
273.065
273.202
273.357
273.543
273.77
274.055
274.411
274.858
275.412
276.094
276.922
277.914
279.084
280.434
281.94
283.505
273.061
273.188
273.333
273.504
273.714
273.974
274.298
274.7
275.197
275.801
276.526
277.379
278.363
279.46
280.625
281.755
273.057
273.176
273.31
273.469
273.662
273.899
274.194
274.556
274.999
275.532
276.162
276.892
277.712
278.599
279.505
280.344
273.053
273.165
273.291
273.439
273.617
273.836
274.104
274.432
274.829
275.301
275.852
276.477
277.166
277.891
278.609
279.253
273.051
273.157
273.276
273.415
273.582
273.786
274.034
274.335
274.695
275.12
275.608
276.155
276.746
277.354
277.943
278.46
273.049
273.151
273.266
273.399
273.559
273.752
273.986
274.268
274.604
274.996
275.442
275.936
276.462
276.996
277.504
277.945
273.048
273.149
273.261
273.391
273.547
273.735
273.962
274.235
274.558
274.934
275.36
275.827
276.322
276.819
277.289
277.693
273.071
273.22
273.39
273.593
273.845
274.16
274.557
275.057
275.682
276.455
277.402
278.55
279.925
281.556
283.467
285.647
273.066
273.205
273.364
273.552
273.784
274.074
274.437
274.891
275.456
276.149
276.99
277.995
279.177
280.535
282.043
283.604
273.062
273.191
273.338
273.513
273.726
273.991
274.321
274.731
275.237
275.851
276.588
277.454
278.449
279.556
280.727
281.86
273.058
273.179
273.316
273.477
273.673
273.916
274.215
274.585
275.036
275.578
276.219
276.96
277.792
278.69
279.603
280.448
273.054
273.168
273.296
273.446
273.628
273.851
274.124
274.459
274.863
275.344
275.904
276.54
277.239
277.975
278.701
279.352
273.052
273.16
273.281
273.422
273.593
273.8
274.053
274.359
274.727
275.159
275.657
276.213
276.814
277.432
278.029
278.554
273.05
273.154
273.27
273.406
273.568
273.765
274.004
274.291
274.633
275.033
275.488
275.991
276.526
277.069
277.586
278.033
273.049
273.151
273.265
273.398
273.557
273.748
273.98
274.258
274.587
274.97
275.404
275.88
276.384
276.89
277.367
277.778
273.071
273.222
273.393
273.599
273.852
274.17
274.571
275.075
275.705
276.485
277.438
278.592
279.973
281.606
283.515
285.687
273.067
273.207
273.367
273.557
273.791
274.083
274.45
274.908
275.477
276.176
277.023
278.035
279.222
280.584
282.093
283.651
273.062
273.193
273.341
273.517
273.733
274
274.333
274.747
275.257
275.877
276.619
277.491
278.492
279.603
280.777
281.91
273.058
273.18
273.318
273.481
273.679
273.924
274.226
274.599
275.054
275.601
276.248
276.994
277.831
278.734
279.651
280.498
273.055
273.169
273.298
273.45
273.634
273.858
274.134
274.472
274.88
275.365
275.93
276.571
277.276
278.016
278.746
279.401
273.052
273.161
273.283
273.426
273.598
273.807
274.062
274.372
274.742
275.179
275.681
276.242
276.847
277.471
278.072
278.6
273.05
273.155
273.273
273.409
273.573
273.772
274.013
274.303
274.648
275.052
275.511
276.018
276.558
277.106
277.626
278.077
273.049
273.152
273.268
273.402
273.561
273.755
273.988
274.269
274.602
274.988
275.426
275.907
276.415
276.925
277.407
277.821
273.037
273.116
273.202
273.301
273.418
273.557
273.724
273.922
274.155
274.423
274.725
275.056
275.403
275.751
276.079
276.361
273.035
273.109
273.19
273.283
273.391
273.521
273.674
273.857
274.07
274.315
274.59
274.889
275.202
275.515
275.809
276.061
273.033
273.102
273.178
273.265
273.366
273.486
273.627
273.794
273.989
274.211
274.459
274.729
275.009
275.288
275.549
275.772
273.031
273.097
273.168
273.249
273.343
273.454
273.584
273.737
273.915
274.117
274.341
274.582
274.833
275.081
275.312
275.509
273.03
273.092
273.159
273.236
273.324
273.427
273.548
273.689
273.851
274.036
274.239
274.457
274.682
274.904
275.109
275.283
273.029
273.088
273.152
273.225
273.308
273.406
273.519
273.651
273.802
273.972
274.159
274.359
274.563
274.764
274.949
275.106
273.028
273.085
273.148
273.218
273.298
273.391
273.499
273.624
273.768
273.928
274.104
274.291
274.482
274.668
274.839
274.984
273.027
273.084
273.145
273.214
273.293
273.384
273.49
273.611
273.75
273.906
274.076
274.257
274.441
274.62
274.784
274.922
273.038
273.117
273.205
273.307
273.426
273.569
273.741
273.945
274.187
274.466
274.783
275.131
275.499
275.872
276.225
276.532
273.036
273.111
273.193
273.288
273.399
273.531
273.69
273.878
274.099
274.353
274.641
274.955
275.287
275.621
275.936
276.208
273.034
273.104
273.181
273.27
273.373
273.496
273.641
273.813
274.014
274.245
274.504
274.787
275.082
275.379
275.657
275.896
273.032
273.098
273.171
273.253
273.35
273.463
273.597
273.754
273.938
274.147
274.38
274.633
274.896
275.158
275.403
275.612
273.03
273.093
273.162
273.239
273.33
273.435
273.559
273.704
273.872
274.063
274.274
274.501
274.737
274.969
275.186
275.37
273.029
273.089
273.155
273.229
273.314
273.413
273.529
273.665
273.82
273.996
274.19
274.397
274.611
274.821
275.015
275.18
273.028
273.086
273.15
273.221
273.303
273.398
273.509
273.638
273.785
273.951
274.133
274.326
274.525
274.719
274.898
275.05
273.028
273.085
273.148
273.218
273.298
273.391
273.499
273.624
273.768
273.928
274.104
274.291
274.482
274.668
274.839
274.984
273.039
273.122
273.213
273.318
273.443
273.594
273.775
273.993
274.251
274.553
274.898
275.281
275.693
276.116
276.524
276.882
273.037
273.114
273.2
273.298
273.415
273.554
273.721
273.921
274.157
274.431
274.743
275.088
275.457
275.833
276.193
276.508
273.035
273.107
273.188
273.28
273.387
273.516
273.669
273.852
274.066
274.314
274.595
274.903
275.229
275.56
275.874
276.147
273.033
273.101
273.177
273.262
273.363
273.481
273.622
273.789
273.984
274.208
274.459
274.734
275.022
275.312
275.585
275.821
273.031
273.096
273.167
273.248
273.342
273.452
273.582
273.736
273.914
274.117
274.344
274.589
274.845
275.1
275.339
275.543
273.03
273.092
273.16
273.236
273.325
273.429
273.551
273.693
273.858
274.045
274.252
274.475
274.706
274.934
275.146
275.327
273.029
273.089
273.155
273.229
273.314
273.413
273.529
273.665
273.82
273.996
274.19
274.397
274.611
274.821
275.015
275.18
273.029
273.088
273.152
273.225
273.308
273.406
273.519
273.651
273.802
273.972
274.159
274.358
274.563
274.764
274.949
275.106
273.041
273.128
273.224
273.335
273.469
273.63
273.825
274.062
274.345
274.68
275.067
275.504
275.982
276.483
276.977
277.422
273.039
273.12
273.21
273.314
273.438
273.587
273.767
273.983
274.242
274.545
274.894
275.285
275.709
276.15
276.58
276.964
273.037
273.113
273.197
273.294
273.409
273.546
273.711
273.908
274.142
274.415
274.727
275.074
275.446
275.829
276.199
276.525
273.034
273.106
273.185
273.276
273.382
273.509
273.66
273.84
274.052
274.297
274.575
274.882
275.208
275.539
275.855
276.131
273.033
273.1
273.175
273.26
273.359
273.477
273.616
273.781
273.974
274.196
274.446
274.718
275.004
275.292
275.564
275.799
273.031
273.096
273.167
273.248
273.341
273.452
273.582
273.735
273.914
274.117
274.343
274.589
274.845
275.1
275.339
275.543
273.03
273.093
273.162
273.239
273.329
273.435
273.559
273.704
273.872
274.062
274.274
274.501
274.736
274.969
275.185
275.37
273.03
273.092
273.159
273.236
273.324
273.427
273.548
273.689
273.851
274.035
274.239
274.457
274.682
274.904
275.109
275.283
273.044
273.135
273.238
273.357
273.501
273.675
273.889
274.15
274.465
274.841
275.283
275.79
276.357
276.967
277.589
278.167
273.041
273.127
273.223
273.334
273.467
273.629
273.825
274.063
274.35
274.69
275.086
275.537
276.036
276.566
277.097
277.583
273.039
273.119
273.209
273.312
273.435
273.584
273.763
273.98
274.239
274.544
274.896
275.293
275.726
276.18
276.627
277.028
273.036
273.112
273.196
273.293
273.407
273.543
273.708
273.905
274.138
274.411
274.723
275.071
275.446
275.832
276.206
276.537
273.034
273.106
273.185
273.276
273.382
273.509
273.66
273.84
274.052
274.297
274.575
274.882
275.208
275.539
275.855
276.131
273.033
273.101
273.176
273.262
273.363
273.481
273.622
273.789
273.984
274.208
274.459
274.734
275.022
275.312
275.585
275.82
273.032
273.098
273.171
273.253
273.349
273.463
273.597
273.754
273.937
274.147
274.38
274.633
274.896
275.158
275.403