/*--------------------------------*- C++ -*----------------------------------*\
| =========                 |                                                 |
| \\      /  F ield         | OpenFOAM: The Open Source CFD Toolbox           |
|  \\    /   O peration     | Version:  v1912                                 |
|   \\  /    A nd           | Website:  www.openfoam.com                      |
|    \\/     M anipulation  |                                                 |
\*---------------------------------------------------------------------------*/
FoamFile
{
    version     2.0;
    format      ascii;
    class       volVectorField;
    location    "0.22/fluid";
    object      U;
}
// * * * * * * * * * * * * * * * * * * * * * * * * * * * * * * * * * * * * * //

dimensions      [0 1 -1 0 0 0 0];


internalField   nonuniform List<vector> 
14592
(
(0.0887384 0.0151026 0.000284193)
(0.0780604 0.00844658 1.17152e-05)
(0.0692439 0.00445117 -0.000519629)
(0.065415 0.00193238 -0.00115503)
(0.0631647 0.000932698 -0.00196975)
(0.0617487 0.000527149 -0.00299538)
(0.0605706 0.000387231 -0.00429161)
(0.0594058 0.000348044 -0.00594256)
(0.0580274 0.000355766 -0.00807112)
(0.056506 0.000368304 -0.0108815)
(0.0542631 0.000388416 -0.0146506)
(0.0519777 0.000315893 -0.0198837)
(0.0474601 0.000228683 -0.0273939)
(0.0432708 -0.0003172 -0.038319)
(0.030994 -0.000693677 -0.0542973)
(0.0179884 -0.00334096 -0.0585003)
(0.104015 0.0140262 0.000188387)
(0.10481 0.0106424 -0.000295633)
(0.103903 0.00700453 -0.00107192)
(0.10235 0.00411843 -0.001986)
(0.100771 0.00267231 -0.00314793)
(0.0992694 0.00200426 -0.0046226)
(0.0977382 0.0017867 -0.0065004)
(0.0960591 0.00181222 -0.00890579)
(0.0940078 0.00199424 -0.0120188)
(0.0916379 0.00227273 -0.016132)
(0.0882298 0.0026338 -0.0216475)
(0.0844567 0.00297155 -0.0292784)
(0.0775341 0.0033299 -0.0401334)
(0.0702333 0.00326549 -0.055813)
(0.0511533 0.00313543 -0.0779585)
(0.0303301 4.87845e-05 -0.0834435)
(0.103445 0.00866776 0.000175931)
(0.106082 0.00938164 -0.000333535)
(0.107531 0.00748865 -0.00113258)
(0.10729 0.00538023 -0.00206863)
(0.106569 0.0040995 -0.00325747)
(0.105509 0.00345852 -0.00476726)
(0.104234 0.00330154 -0.00669024)
(0.102694 0.00347721 -0.00915428)
(0.10071 0.00390921 -0.0123438)
(0.0983462 0.00454226 -0.0165623)
(0.0948549 0.00535369 -0.0222234)
(0.090887 0.00625415 -0.0300807)
(0.0835137 0.00724149 -0.0412713)
(0.0754919 0.00794294 -0.0575448)
(0.0548639 0.00827261 -0.0805429)
(0.0320011 0.00497779 -0.0867863)
(0.101773 0.00600546 0.000203327)
(0.104089 0.00783601 -0.000282067)
(0.106129 0.00700829 -0.00106182)
(0.106665 0.00569649 -0.00197695)
(0.106633 0.00480006 -0.00313795)
(0.106063 0.00438972 -0.0046086)
(0.105151 0.00442451 -0.0064767)
(0.10389 0.00482633 -0.00886572)
(0.102134 0.00555497 -0.0119534)
(0.0999674 0.00658738 -0.0160395)
(0.0966257 0.00792246 -0.0215259)
(0.0927505 0.00951812 -0.0291806)
(0.0853117 0.0113718 -0.0401162)
(0.0770617 0.0131461 -0.0562032)
(0.055808 0.0144104 -0.0790633)
(0.0319459 0.0102487 -0.0859243)
(0.101032 0.00427949 0.000249206)
(0.102922 0.00634681 -0.000192568)
(0.104977 0.00625925 -0.000939428)
(0.10587 0.00562051 -0.00182097)
(0.10627 0.00515398 -0.00293667)
(0.106099 0.00504477 -0.00434277)
(0.105547 0.00532892 -0.00611926)
(0.104618 0.00599272 -0.00838068)
(0.103187 0.00703466 -0.011291)
(0.101352 0.00847015 -0.0151365)
(0.0983486 0.0103206 -0.0202897)
(0.0948073 0.0125988 -0.0275158)
(0.0875955 0.0152993 -0.0378584)
(0.0793932 0.0181181 -0.053326)
(0.057512 0.0203348 -0.07542)
(0.032367 0.0149238 -0.0829656)
(0.10071 0.00321192 0.000304181)
(0.102321 0.00512947 -8.39329e-05)
(0.10431 0.0054267 -0.000790875)
(0.10542 0.00524699 -0.00163214)
(0.106132 0.00515016 -0.00269316)
(0.106297 0.00534021 -0.00402089)
(0.106085 0.00588762 -0.00568577)
(0.1055 0.006825 -0.007791)
(0.104431 0.00819237 -0.0104837)
(0.10298 0.0100661 -0.0140318)
(0.100385 0.0125303 -0.0187722)
(0.0972468 0.0157484 -0.0254613)
(0.0903378 0.0198436 -0.0350504)
(0.0822505 0.0248251 -0.0497086)
(0.0597328 0.0298922 -0.0707545)
(0.0331704 0.0243191 -0.0792252)
(0.10059 0.00234883 0.00036733)
(0.102081 0.00399939 4.0635e-05)
(0.104057 0.00453025 -0.000620644)
(0.105329 0.00469329 -0.00141573)
(0.106286 0.00491392 -0.00241338)
(0.106746 0.00537577 -0.00364921)
(0.106871 0.00616229 -0.00518092)
(0.106673 0.00733514 -0.00709467)
(0.106074 0.00896255 -0.00951057)
(0.105209 0.0111689 -0.0126586)
(0.103395 0.0140746 -0.0168043)
(0.101273 0.0179727 -0.0226301)
(0.0956823 0.0230471 -0.030871)
(0.0891719 0.0296446 -0.0437456)
(0.0671719 0.0368971 -0.0620393)
(0.0397563 0.0306098 -0.071225)
(0.100554 0.00158161 0.000435098)
(0.102038 0.00290387 0.000174225)
(0.104076 0.00355638 -0.000438283)
(0.105503 0.00396887 -0.0011842)
(0.106673 0.0044487 -0.00211448)
(0.107392 0.00513986 -0.00325272)
(0.107824 0.00612535 -0.00464357)
(0.107988 0.00748612 -0.00635585)
(0.107838 0.00931722 -0.00848372)
(0.10752 0.0118069 -0.0112194)
(0.106427 0.015154 -0.014764)
(0.105194 0.0199605 -0.0197246)
(0.100788 0.0267695 -0.0266385)
(0.0958428 0.0378252 -0.0377567)
(0.0748824 0.053514 -0.053441)
(0.0501001 0.064617 -0.0645111)
(0.0886995 0.0151051 6.66699e-05)
(0.077873 0.00845666 -0.000288894)
(0.0688512 0.00446045 -0.00078229)
(0.0648394 0.00194158 -0.00134483)
(0.0623928 0.000944269 -0.00207457)
(0.0607589 0.000542583 -0.00301161)
(0.0593127 0.000408388 -0.004212)
(0.0578068 0.000377192 -0.00574598)
(0.055983 0.000397061 -0.00771556)
(0.0538791 0.000427618 -0.0102624)
(0.0508884 0.000478827 -0.0135862)
(0.0476053 0.000458835 -0.0178874)
(0.0420063 0.00047152 -0.0236153)
(0.0361262 0.000138642 -0.0303498)
(0.0236077 4.48847e-05 -0.0382797)
(0.00905125 -0.00176503 -0.0304282)
(0.103962 0.0140414 -7.83451e-05)
(0.104558 0.010676 -0.000672815)
(0.103368 0.00704585 -0.0014092)
(0.101541 0.00416751 -0.00223074)
(0.0996651 0.00273482 -0.00327938)
(0.0978311 0.00208655 -0.00463282)
(0.0958925 0.00189699 -0.00637799)
(0.0936946 0.00196069 -0.00862177)
(0.0909639 0.00219528 -0.0115156)
(0.0877006 0.00254408 -0.015271)
(0.0831281 0.00300382 -0.0201818)
(0.0778055 0.00347204 -0.0265693)
(0.0691083 0.00402252 -0.0350439)
(0.0592446 0.00422239 -0.0451844)
(0.0394581 0.00438887 -0.0567744)
(0.0165678 0.00161672 -0.0454858)
(0.103392 0.0086977 -9.68741e-05)
(0.105826 0.00944207 -0.000720872)
(0.106986 0.00756783 -0.0014797)
(0.106464 0.00547739 -0.00232113)
(0.10544 0.00422288 -0.00339394)
(0.104041 0.00362001 -0.00477947)
(0.10235 0.00351694 -0.00656667)
(0.100281 0.00376628 -0.00886555)
(0.0976028 0.00429847 -0.0118311)
(0.0943246 0.005063 -0.0156839)
(0.0896342 0.00605109 -0.0207248)
(0.0840701 0.00716841 -0.0273015)
(0.0748433 0.00844552 -0.0360321)
(0.0641592 0.00944485 -0.046541)
(0.0427347 0.0100567 -0.0585414)
(0.0176885 0.00634102 -0.0468773)
(0.101722 0.00604607 -7.03685e-05)
(0.103838 0.00791753 -0.000671961)
(0.105596 0.00711786 -0.00141181)
(0.10586 0.00583331 -0.0022328)
(0.105535 0.00497489 -0.00327873)
(0.104639 0.00461942 -0.00462664)
(0.103328 0.004732 -0.0063612)
(0.10156 0.00524116 -0.00858832)
(0.0991375 0.00611712 -0.0114567)
(0.0960918 0.00734555 -0.0151836)
(0.0915888 0.00894638 -0.0200585)
(0.0861657 0.0108725 -0.0264408)
(0.0769047 0.0131688 -0.0349227)
(0.0660262 0.0153819 -0.0452104)
(0.0439416 0.0170798 -0.0569942)
(0.0177948 0.0120613 -0.0456695)
(0.100982 0.00433063 -2.52975e-05)
(0.102678 0.00644879 -0.000584812)
(0.104462 0.00639744 -0.00129272)
(0.105096 0.00579425 -0.0020813)
(0.10522 0.00537664 -0.00308376)
(0.104743 0.00533792 -0.00436989)
(0.103821 0.00572229 -0.006017)
(0.102421 0.0065253 -0.00812289)
(0.100371 0.00775945 -0.0108239)
(0.0977232 0.00945315 -0.0143263)
(0.0936355 0.0116562 -0.0188946)
(0.0886501 0.014378 -0.0248924)
(0.079699 0.0176796 -0.032856)
(0.0689732 0.0210939 -0.0426228)
(0.0461744 0.0239316 -0.0538278)
(0.018568 0.0172582 -0.043198)
(0.100662 0.00327111 2.85235e-05)
(0.102086 0.00524714 -0.000479071)
(0.103816 0.00558679 -0.00114837)
(0.104682 0.00544913 -0.00189818)
(0.105138 0.00541008 -0.00284817)
(0.105024 0.00568364 -0.00405931)
(0.104475 0.00635069 -0.00559993)
(0.103465 0.00745648 -0.00755765)
(0.101835 0.00906032 -0.0100536)
(0.0996485 0.0112602 -0.01328)
(0.0960602 0.0141832 -0.0174706)
(0.0916022 0.0180078 -0.0229929)
(0.083051 0.022968 -0.0303095)
(0.0725824 0.0288917 -0.0394282)
(0.0490559 0.035099 -0.0498897)
(0.0198211 0.0279122 -0.0402428)
(0.100543 0.00241417 9.00762e-05)
(0.101857 0.00412874 -0.000358112)
(0.103588 0.00470642 -0.00098332)
(0.104634 0.00491612 -0.00168873)
(0.105359 0.00520086 -0.00257802)
(0.105571 0.00575553 -0.00370146)
(0.105401 0.0066755 -0.00511565)
(0.104837 0.00803753 -0.00689339)
(0.103759 0.00993241 -0.00913251)
(0.10228 0.0125127 -0.0119968)
(0.0996339 0.0159503 -0.0156642)
(0.0964377 0.0205695 -0.0204697)
(0.0894656 0.0266934 -0.0267284)
(0.0809929 0.0344845 -0.0346172)
(0.0579399 0.0432847 -0.0434465)
(0.0277165 0.0349464 -0.0350733)
(0.10051 0.0016502 0.000155891)
(0.101825 0.00303919 -0.000228684)
(0.103633 0.00374075 -0.000806807)
(0.104854 0.00420227 -0.00146498)
(0.105817 0.00474951 -0.00228967)
(0.10632 0.0055385 -0.00331987)
(0.106501 0.0066653 -0.00460018)
(0.106359 0.00822826 -0.00618819)
(0.105813 0.0103484 -0.00815914)
(0.104996 0.0132521 -0.0106486)
(0.103223 0.0172028 -0.0137832)
(0.101143 0.0228785 -0.0178665)
(0.095591 0.0310212 -0.0230749)
(0.0891239 0.0438447 -0.0297697)
(0.0671615 0.0621638 -0.0370505)
(0.0397739 0.0714009 -0.0307319)
(0.088669 0.0151073 -7.17906e-05)
(0.0777175 0.00846564 -0.000461545)
(0.068516 0.004469 -0.000908122)
(0.0643336 0.00195011 -0.0013969)
(0.0616982 0.000954796 -0.00203355)
(0.0598502 0.000556231 -0.00286104)
(0.058138 0.000426295 -0.00392979)
(0.056288 0.000400296 -0.00529741)
(0.0540071 0.000426579 -0.00704868)
(0.0512799 0.000464235 -0.0092855)
(0.0474682 0.000524082 -0.0121701)
(0.0430397 0.000514556 -0.0157901)
(0.036186 0.000540078 -0.0205)
(0.028608 0.000248912 -0.0257067)
(0.0163125 0.000130647 -0.0314206)
(0.00328235 -0.00143602 -0.0247837)
(0.103919 0.0140558 -0.000239599)
(0.104346 0.0107075 -0.000872726)
(0.102907 0.00708501 -0.00154881)
(0.100826 0.00421409 -0.002271)
(0.098667 0.00279382 -0.00319158)
(0.0965098 0.00216372 -0.00439131)
(0.0941726 0.00199956 -0.00594948)
(0.0914616 0.00209725 -0.00795524)
(0.088053 0.00237712 -0.0105342)
(0.0838745 0.00278377 -0.0138422)
(0.0780964 0.00331895 -0.0181115)
(0.0711289 0.00387694 -0.0235033)
(0.0605921 0.00454059 -0.0304699)
(0.048377 0.00486335 -0.0383115)
(0.0287323 0.00509054 -0.0466032)
(0.00786292 0.00226886 -0.0367286)
(0.103349 0.00872638 -0.000261051)
(0.105611 0.00949951 -0.000924738)
(0.106518 0.00764319 -0.00162201)
(0.105735 0.00556977 -0.00236184)
(0.104422 0.00433986 -0.00330367)
(0.102693 0.00377261 -0.0045319)
(0.100594 0.00371981 -0.00612786)
(0.0980022 0.00403757 -0.00818345)
(0.0946302 0.00466209 -0.0108273)
(0.0904149 0.00554633 -0.0142223)
(0.0844825 0.00669213 -0.0186061)
(0.077223 0.00799657 -0.024159)
(0.0660735 0.00951196 -0.0313355)
(0.0529365 0.0107311 -0.0394609)
(0.0315736 0.0115192 -0.0480376)
(0.00857002 0.00737154 -0.0378195)
(0.101681 0.00608502 -0.000236654)
(0.103628 0.0079952 -0.000880242)
(0.105138 0.00722214 -0.0015598)
(0.10515 0.00596334 -0.00228066)
(0.104545 0.00514069 -0.00319776)
(0.103332 0.00483678 -0.00439159)
(0.10163 0.00502249 -0.00593961)
(0.0993583 0.00563247 -0.00793015)
(0.0962674 0.00664667 -0.0104864)
(0.0923159 0.00805836 -0.0137689)
(0.0866017 0.00990652 -0.0180059)
(0.0795186 0.0121363 -0.0233892)
(0.0683436 0.0148335 -0.0303531)
(0.0550104 0.0174309 -0.0382958)
(0.0329122 0.0195063 -0.0467068)
(0.00871347 0.0137936 -0.0368205)
(0.100943 0.00437955 -0.000194601)
(0.102475 0.00654587 -0.00079939)
(0.104021 0.00652881 -0.00144937)
(0.104415 0.00595919 -0.0021404)
(0.104275 0.00558771 -0.00301771)
(0.103501 0.00561546 -0.00415518)
(0.102213 0.0060945 -0.00562373)
(0.100345 0.00702922 -0.00750478)
(0.0976721 0.00844592 -0.00991098)
(0.0941784 0.0103854 -0.0129947)
(0.0889485 0.0129257 -0.0169638)
(0.0823928 0.0160719 -0.0220188)
(0.0715864 0.0199501 -0.0285507)
(0.058468 0.0239383 -0.0360785)
(0.0355304 0.0273979 -0.0440619)
(0.00965725 0.019781 -0.0348118)
(0.100624 0.00332757 -0.000144457)
(0.101892 0.00535897 -0.000701232)
(0.103395 0.00573876 -0.00131556)
(0.104036 0.00564081 -0.00197095)
(0.104248 0.00565629 -0.00280022)
(0.10386 0.00600875 -0.00386927)
(0.102978 0.00678908 -0.00524101)
(0.101542 0.00805478 -0.00698813)
(0.0993451 0.00988439 -0.00921017)
(0.0963903 0.012397 -0.0120488)
(0.0917493 0.0157636 -0.015686)
(0.085842 0.0201759 -0.020332)
(0.075523 0.0259782 -0.0263182)
(0.0627737 0.0328235 -0.0333203)
(0.0389705 0.0401679 -0.0407395)
(0.0111795 0.0318601 -0.032351)
(0.100507 0.00247634 -8.72573e-05)
(0.101672 0.00425145 -0.000589077)
(0.103191 0.0048734 -0.00116276)
(0.104029 0.0051272 -0.00177743)
(0.104531 0.00547253 -0.00255123)
(0.104499 0.00611504 -0.00354047)
(0.104037 0.00716176 -0.00479781)
(0.103104 0.00870423 -0.00638348)
(0.101539 0.0108565 -0.0083776)
(0.0994073 0.0137996 -0.0109005)
(0.0958641 0.0177611 -0.0140898)
(0.0914505 0.0230977 -0.0181419)
(0.0829403 0.0302799 -0.023277)
(0.0725215 0.0393002 -0.0293459)
(0.0490415 0.049733 -0.0356119)
(0.0198282 0.0401175 -0.0283433)
(0.100475 0.00171528 -2.62343e-05)
(0.101651 0.00316735 -0.000469219)
(0.103261 0.00391527 -0.000999518)
(0.104292 0.00442313 -0.00157084)
(0.105056 0.00503414 -0.00228555)
(0.105347 0.00591581 -0.00318984)
(0.105277 0.00717703 -0.00432573)
(0.104826 0.00893331 -0.00574057)
(0.103875 0.0113329 -0.00749509)
(0.102527 0.0146405 -0.00968778)
(0.100019 0.0191912 -0.0124136)
(0.0969664 0.0257381 -0.0158535)
(0.0901361 0.0352412 -0.0201175)
(0.082142 0.0498675 -0.025239)
(0.0597073 0.0709769 -0.0303567)
(0.033199 0.0795312 -0.0247159)
(0.0886449 0.0151093 -0.000144821)
(0.07759 0.00847353 -0.000525228)
(0.0682367 0.00447669 -0.000912638)
(0.0639059 0.00195793 -0.00132246)
(0.0611059 0.000964542 -0.00185542)
(0.0590748 0.000569143 -0.00255136)
(0.0571453 0.000443859 -0.00345074)
(0.0550316 0.000424416 -0.00459387)
(0.0524338 0.000460338 -0.00603828)
(0.0493225 0.000512533 -0.00783571)
(0.0450986 0.000595357 -0.0100774)
(0.0401977 0.000624712 -0.0127278)
(0.0330756 0.000711643 -0.0159538)
(0.0252679 0.000540572 -0.0190655)
(0.0138157 0.000546558 -0.0218683)
(0.00233039 -0.000807429 -0.0159182)
(0.103885 0.0140689 -0.000312978)
(0.104171 0.0107359 -0.000921088)
(0.102521 0.00712041 -0.00151333)
(0.100217 0.00425628 -0.00212444)
(0.0978111 0.00284722 -0.00289941)
(0.0953751 0.00223357 -0.00391258)
(0.0927064 0.0020926 -0.0052291)
(0.0895915 0.00222182 -0.00691392)
(0.0856922 0.00254456 -0.00905436)
(0.0809152 0.00300816 -0.0117373)
(0.0744715 0.00362081 -0.0150957)
(0.0667453 0.00427989 -0.0191201)
(0.0556876 0.00508054 -0.0240085)
(0.0430723 0.00558031 -0.0288996)
(0.0245776 0.00597974 -0.0331784)
(0.00599038 0.00316712 -0.024289)
(0.103316 0.00875244 -0.000334519)
(0.105434 0.00955147 -0.000971524)
(0.106125 0.00771134 -0.00158272)
(0.105115 0.00565326 -0.00220891)
(0.103549 0.0044453 -0.00300188)
(0.101534 0.00390977 -0.00403934)
(0.0990975 0.00390163 -0.00538824)
(0.0960931 0.00428004 -0.00711572)
(0.0922191 0.00498617 -0.00931129)
(0.0873914 0.00597614 -0.0120669)
(0.0807732 0.00726118 -0.015518)
(0.0727333 0.00873321 -0.0196662)
(0.0610343 0.0104637 -0.024705)
(0.0474794 0.0118999 -0.0297768)
(0.027277 0.0128888 -0.0341953)
(0.00663528 0.00845385 -0.0249654)
(0.101648 0.00612042 -0.000313224)
(0.103454 0.00806553 -0.000932985)
(0.104755 0.00731643 -0.00152859)
(0.104546 0.00608067 -0.00213813)
(0.103698 0.0052898 -0.00290962)
(0.10221 0.00503148 -0.00391733)
(0.100183 0.00528137 -0.00522503)
(0.0975169 0.005979 -0.00689698)
(0.0939451 0.00711178 -0.00901839)
(0.0894077 0.0086779 -0.0116795)
(0.083034 0.0107301 -0.0150087)
(0.0752021 0.0132037 -0.0190171)
(0.063493 0.0162134 -0.023882)
(0.049754 0.0191044 -0.0288002)
(0.028772 0.0214559 -0.0330771)
(0.00687133 0.015235 -0.0241148)
(0.100911 0.00442395 -0.000276114)
(0.102308 0.0066337 -0.000861902)
(0.103652 0.00664744 -0.00143157)
(0.103837 0.00610779 -0.00201512)
(0.103467 0.00577719 -0.00275215)
(0.102436 0.00586341 -0.00371131)
(0.100845 0.00642491 -0.00495098)
(0.0986115 0.00747272 -0.00653003)
(0.0954928 0.00904312 -0.00852563)
(0.091459 0.0111838 -0.0110228)
(0.0856185 0.0139913 -0.0141352)
(0.078374 0.0174578 -0.017885)
(0.0670663 0.02175 -0.0224194)
(0.0535714 0.0261207 -0.027032)
(0.031659 0.0299551 -0.0310166)
(0.00793494 0.0216342 -0.0225846)
(0.100594 0.00337871 -0.000231899)
(0.101732 0.00546004 -0.000775555)
(0.103045 0.00587583 -0.00131401)
(0.10349 0.00581324 -0.00186657)
(0.103487 0.00587692 -0.00256203)
(0.102863 0.00629845 -0.00346231)
(0.101705 0.00717668 -0.00461922)
(0.0999383 0.00857793 -0.00608489)
(0.0973386 0.010594 -0.00792653)
(0.093899 0.013355 -0.0102224)
(0.0887061 0.0170582 -0.0130682)
(0.0821835 0.0218864 -0.0164991)
(0.0714028 0.0282449 -0.0206227)
(0.0583208 0.0356291 -0.0248593)
(0.035439 0.0435575 -0.0284768)
(0.00959965 0.0343877 -0.0207545)
(0.100478 0.00253253 -0.00018154)
(0.101522 0.0043622 -0.000676967)
(0.102861 0.00502385 -0.0011799)
(0.103519 0.00531685 -0.00169711)
(0.103826 0.00571563 -0.0023447)
(0.103583 0.0064348 -0.00317657)
(0.102877 0.00759047 -0.00423633)
(0.101657 0.00928459 -0.00556678)
(0.0997467 0.0116467 -0.00722092)
(0.0972091 0.0148723 -0.00926398)
(0.0932063 0.0192201 -0.0117623)
(0.0883029 0.0250436 -0.0147546)
(0.0794238 0.0328885 -0.0182804)
(0.0687924 0.0425751 -0.0219159)
(0.0460955 0.0537796 -0.0248699)
(0.0185387 0.0431726 -0.0180895)
(0.100448 0.00177401 -0.000127894)
(0.10151 0.00328288 -0.000571696)
(0.102954 0.00407234 -0.00103673)
(0.10382 0.00462138 -0.00151631)
(0.104409 0.00528853 -0.00211289)
(0.104515 0.00625085 -0.00287192)
(0.104236 0.00762702 -0.00382845)
(0.103544 0.00954433 -0.00501561)
(0.102307 0.0121683 -0.00647219)
(0.100632 0.0157827 -0.00825011)
(0.0977572 0.0207596 -0.0103875)
(0.0943409 0.0278632 -0.0129263)
(0.0872396 0.0381496 -0.01584)
(0.0791789 0.0536313 -0.0188711)
(0.0574328 0.0758728 -0.0211895)
(0.0323738 0.0835616 -0.0157036)
(0.0886261 0.015111 -0.000165882)
(0.0774883 0.00848008 -0.000500607)
(0.0680115 0.00448312 -0.000816607)
(0.0635571 0.00196446 -0.00114232)
(0.0606191 0.000972572 -0.00156473)
(0.0584334 0.000579582 -0.00211784)
(0.0563209 0.000457637 -0.00283315)
(0.0539854 0.000442493 -0.00373927)
(0.0511218 0.000483913 -0.00487711)
(0.0476856 0.000543193 -0.00627593)
(0.043112 0.000635084 -0.00799709)
(0.0378094 0.000678418 -0.0099848)
(0.0304567 0.000783246 -0.012347)
(0.0225004 0.000655611 -0.0145341)
(0.0118147 0.000685875 -0.0163586)
(0.00162578 -0.000580205 -0.0119052)
(0.103858 0.01408 -0.000316027)
(0.10403 0.0107599 -0.000845885)
(0.102207 0.00715048 -0.0013322)
(0.0997194 0.0042921 -0.00182114)
(0.0971056 0.00289238 -0.00243791)
(0.0944351 0.00229236 -0.00324549)
(0.0914888 0.00217034 -0.00429515)
(0.088037 0.00232491 -0.00563395)
(0.0837316 0.00268115 -0.00732402)
(0.0784604 0.00318767 -0.00941752)
(0.0714726 0.00385561 -0.0120015)
(0.0631344 0.00458214 -0.0150271)
(0.051679 0.0054666 -0.0186103)
(0.0388352 0.00606468 -0.0220494)
(0.0214059 0.00653898 -0.0248255)
(0.00472289 0.00367115 -0.018094)
(0.103289 0.0087747 -0.000335277)
(0.105291 0.00959572 -0.000890086)
(0.105806 0.00776938 -0.00139225)
(0.104608 0.00572427 -0.00189337)
(0.102829 0.00453475 -0.0025246)
(0.100575 0.00402577 -0.00335173)
(0.0978541 0.00405479 -0.00442756)
(0.0945053 0.00448331 -0.00580088)
(0.0902154 0.00525617 -0.00753544)
(0.0848812 0.00633142 -0.00968703)
(0.0777016 0.00772649 -0.0123442)
(0.0690308 0.00932751 -0.0154654)
(0.0569105 0.0112177 -0.0191614)
(0.043114 0.0128063 -0.0227304)
(0.0239911 0.0139236 -0.0255969)
(0.00532423 0.00923709 -0.0186058)
(0.101622 0.00615068 -0.000317912)
(0.103315 0.00812551 -0.000858793)
(0.104444 0.00739677 -0.00134815)
(0.104053 0.00618048 -0.00183564)
(0.103 0.00541637 -0.00244941)
(0.101281 0.00519629 -0.00325248)
(0.0989815 0.0054998 -0.00429519)
(0.0959851 0.00627029 -0.00562412)
(0.0920142 0.00750104 -0.00729989)
(0.0869906 0.00919366 -0.00937731)
(0.080075 0.011411 -0.0119398)
(0.0716336 0.0140794 -0.014954)
(0.0595094 0.0173335 -0.0185198)
(0.0455305 0.0204479 -0.0219767)
(0.0255879 0.0229996 -0.0247455)
(0.00561577 0.0163687 -0.0179697)
(0.100887 0.0044619 -0.000287345)
(0.102174 0.00670861 -0.000800389)
(0.103354 0.0067485 -0.00126851)
(0.103366 0.00623416 -0.00173481)
(0.102802 0.00593798 -0.00232064)
(0.101554 0.00607332 -0.00308452)
(0.0997093 0.00670385 -0.00407259)
(0.0971688 0.00784601 -0.00532741)
(0.0936796 0.00954414 -0.00690368)
(0.0891959 0.0118512 -0.00885284)
(0.0828509 0.0148783 -0.0112483)
(0.0750411 0.0186064 -0.0140666)
(0.0633382 0.0232327 -0.0173877)
(0.0496164 0.0279099 -0.0206247)
(0.028665 0.0320371 -0.0231955)
(0.00675945 0.0231662 -0.0168327)
(0.10057 0.00342237 -0.000250953)
(0.101605 0.00554618 -0.00072942)
(0.102762 0.00599252 -0.00117198)
(0.103045 0.0059598 -0.00161304)
(0.102862 0.00606405 -0.00216518)
(0.102039 0.00654356 -0.00288151)
(0.100649 0.00750376 -0.00380308)
(0.098604 0.00901807 -0.00496735)
(0.0956692 0.0111891 -0.00642158)
(0.0918254 0.0141557 -0.0082128)
(0.0861758 0.0181358 -0.0104014)
(0.0791464 0.0233041 -0.0129761)
(0.068 0.0301115 -0.0159891)
(0.0547178 0.0379286 -0.0189501)
(0.032704 0.0463133 -0.0212657)
(0.00853077 0.0364874 -0.0154457)
(0.100456 0.00258045 -0.000209537)
(0.101402 0.00445654 -0.000648417)
(0.102596 0.00515185 -0.00106194)
(0.103103 0.00547797 -0.00147426)
(0.103247 0.00592174 -0.00198767)
(0.102825 0.00670528 -0.00264893)
(0.101914 0.00795222 -0.00349276)
(0.100452 0.00977298 -0.00454979)
(0.0982543 0.0123099 -0.00585694)
(0.0953757 0.0157701 -0.00745277)
(0.0909892 0.0204381 -0.00937752)
(0.0856749 0.0266641 -0.0116267)
(0.0764963 0.0350521 -0.014208)
(0.065741 0.0452864 -0.0167493)
(0.0437878 0.0571123 -0.0186288)
(0.0176734 0.0457782 -0.0135147)
(0.100427 0.00182402 -0.00016546)
(0.101398 0.00338121 -0.000561969)
(0.102708 0.00420589 -0.000944503)
(0.103437 0.00478971 -0.00132624)
(0.10388 0.00550412 -0.00179835)
(0.103828 0.00653412 -0.00240089)
(0.103373 0.00800656 -0.00316198)
(0.102478 0.0100583 -0.004105)
(0.101002 0.0128692 -0.00525631)
(0.0990528 0.0167383 -0.00664553)
(0.0958728 0.0220681 -0.00829269)
(0.092151 0.0296307 -0.0101995)
(0.0848326 0.0405576 -0.0123284)
(0.0767572 0.0567368 -0.0144337)
(0.0556606 0.0798898 -0.015882)
(0.0318738 0.0870131 -0.0117144)
(0.0886123 0.0151122 -0.000146843)
(0.0774122 0.00848519 -0.000406977)
(0.0678418 0.00448811 -0.000640751)
(0.0632931 0.00196963 -0.000877115)
(0.0602499 0.000978968 -0.00118237)
(0.0579483 0.00058801 -0.001582)
(0.0557027 0.000468983 -0.00209751)
(0.0532127 0.000457893 -0.0027461)
(0.0501763 0.000505008 -0.00355164)
(0.0465467 0.00057265 -0.00452383)
(0.041797 0.000676735 -0.00569223)
(0.0363275 0.00073977 -0.00699208)
(0.0289641 0.000872328 -0.00847201)
(0.0210868 0.000793582 -0.00974202)
(0.010894 0.000866504 -0.0106473)
(0.00144029 -0.000356959 -0.00754806)
(0.103837 0.0140888 -0.000264531)
(0.103925 0.0107788 -0.000673823)
(0.10197 0.00717407 -0.00103532)
(0.0993409 0.00432026 -0.00139189)
(0.0965686 0.00292782 -0.0018392)
(0.093721 0.00233848 -0.00242441)
(0.0905703 0.00223135 -0.00318327)
(0.0868795 0.00240596 -0.00414535)
(0.082302 0.00278892 -0.00534791)
(0.0767231 0.00333024 -0.00681342)
(0.0694386 0.00404379 -0.00858408)
(0.0608171 0.00482768 -0.0105906)
(0.0492847 0.00578498 -0.0128752)
(0.036533 0.00646861 -0.0149307)
(0.0198341 0.00701611 -0.0163659)
(0.00428587 0.00409261 -0.0116447)
(0.103269 0.00879224 -0.000279615)
(0.105184 0.00963053 -0.000708095)
(0.105565 0.00781495 -0.00108155)
(0.104222 0.00578 -0.00144707)
(0.102281 0.00460481 -0.00190497)
(0.0998455 0.00411641 -0.00250449)
(0.0969158 0.00417414 -0.00328255)
(0.0933226 0.00464124 -0.00426988)
(0.0887539 0.0054652 -0.0055048)
(0.0831045 0.00660554 -0.00701202)
(0.0756182 0.00808411 -0.00883429)
(0.0666556 0.00978298 -0.0109062)
(0.0544492 0.0117937 -0.0132649)
(0.0407462 0.0134981 -0.015401)
(0.0223678 0.0147139 -0.0168823)
(0.00487899 0.00983955 -0.0119757)
(0.101603 0.0061745 -0.000266801)
(0.10321 0.00817269 -0.000685039)
(0.104209 0.00745987 -0.00104899)
(0.103678 0.00625877 -0.0014044)
(0.102468 0.00551537 -0.00184946)
(0.100575 0.00532479 -0.00243135)
(0.0980752 0.00566942 -0.00318526)
(0.0948451 0.00649534 -0.00414041)
(0.0906076 0.0077998 -0.00533299)
(0.0852837 0.00958639 -0.0067872)
(0.0780753 0.0119245 -0.00854248)
(0.0693576 0.0147326 -0.0105393)
(0.0571521 0.0181583 -0.0128076)
(0.0432683 0.0214268 -0.0148661)
(0.0240409 0.0241115 -0.0162812)
(0.00521172 0.0171841 -0.011529)
(0.100869 0.00449177 -0.00024404)
(0.102074 0.00676751 -0.000641632)
(0.103129 0.00682785 -0.000989853)
(0.103008 0.0063332 -0.00132963)
(0.102296 0.00606364 -0.00175419)
(0.100885 0.00623672 -0.00230743)
(0.098853 0.00691994 -0.00302162)
(0.0960957 0.00813331 -0.00392325)
(0.0923602 0.00992653 -0.00504467)
(0.0876009 0.0123551 -0.00640824)
(0.0809874 0.0155391 -0.00804722)
(0.0729283 0.0194487 -0.00991009)
(0.0611535 0.0242999 -0.0120146)
(0.0475303 0.0291757 -0.0139296)
(0.0272412 0.0334813 -0.0152225)
(0.00640703 0.0242186 -0.0107621)
(0.100553 0.00345671 -0.000216974)
(0.101509 0.00561387 -0.000588885)
(0.102549 0.00608409 -0.000918173)
(0.102707 0.00607457 -0.00123934)
(0.102387 0.00621014 -0.00163918)
(0.101414 0.00673409 -0.00215769)
(0.0998529 0.0077565 -0.00282356)
(0.0976119 0.00935549 -0.00365991)
(0.0944555 0.0116406 -0.0046942)
(0.0903664 0.0147546 -0.00594642)
(0.084478 0.0189278 -0.00744184)
(0.0772337 0.0243236 -0.0091389)
(0.0660282 0.0314192 -0.0110387)
(0.0528535 0.0394981 -0.0127751)
(0.0314407 0.0481384 -0.0139133)
(0.00824394 0.0378522 -0.00983268)
(0.10044 0.00261812 -0.000186176)
(0.101312 0.00453064 -0.000528687)
(0.102397 0.00525225 -0.000836485)
(0.102789 0.00560406 -0.00113652)
(0.102808 0.00608251 -0.00150799)
(0.102251 0.00691527 -0.0019864)
(0.101188 0.00823127 -0.00259609)
(0.0995561 0.0101464 -0.00335569)
(0.0971679 0.012811 -0.00428612)
(0.0940842 0.0164377 -0.00540286)
(0.0895013 0.0213253 -0.00671936)
(0.0840241 0.0278142 -0.00820215)
(0.0748136 0.0365406 -0.0098268)
(0.0641934 0.0470937 -0.0113072)
(0.0427658 0.0592527 -0.0121988)
(0.0175026 0.047417 -0.00860452)
(0.100411 0.0018633 -0.000153424)
(0.101314 0.0034584 -0.000464467)
(0.102523 0.0043106 -0.000749335)
(0.103148 0.00492138 -0.00102686)
(0.103478 0.00567217 -0.0013681)
(0.103308 0.00675385 -0.00180374)
(0.102723 0.00829891 -0.00235356)
(0.101683 0.0104503 -0.00303151)
(0.100051 0.0133966 -0.00385172)
(0.0979382 0.0174441 -0.0048249)
(0.094607 0.0230114 -0.00595261)
(0.0907786 0.0308655 -0.00720924)
(0.0834639 0.0421759 -0.00854511)
(0.0755676 0.0587399 -0.00975963)
(0.054941 0.0823546 -0.0104134)
(0.0319054 0.0891102 -0.00746192)
(0.0886031 0.015113 -9.91396e-05)
(0.0773612 0.00848869 -0.000264406)
(0.0677278 0.00449148 -0.000407248)
(0.0631151 0.00197316 -0.000550871)
(0.0600006 0.000983286 -0.000735308)
(0.0576205 0.000593648 -0.00097694)
(0.055285 0.000476452 -0.00128833)
(0.0526912 0.000467783 -0.001679)
(0.0495394 0.000518041 -0.00216235)
(0.0457806 0.000589919 -0.00274172)
(0.0409137 0.000699476 -0.00343333)
(0.0353341 0.000770818 -0.0041942)
(0.0279632 0.000913706 -0.00505095)
(0.0201478 0.000854773 -0.00577474)
(0.0102956 0.000940274 -0.00626783)
(0.00132002 -0.000264662 -0.00445403)
(0.103824 0.0140948 -0.00017447)
(0.103854 0.0107918 -0.000432415)
(0.101811 0.00719025 -0.000654834)
(0.0990852 0.0043396 -0.000871784)
(0.0962053 0.00295211 -0.0011428)
(0.0932376 0.00237001 -0.00149727)
(0.0899489 0.00227288 -0.0019565)
(0.0860979 0.0024608 -0.00253712)
(0.0813396 0.00286121 -0.00326005)
(0.0755577 0.00342477 -0.00413523)
(0.0680796 0.00416654 -0.00518503)
(0.0592775 0.00498452 -0.00636132)
(0.0477029 0.00598299 -0.00768443)
(0.0350335 0.00671227 -0.00885418)
(0.0188379 0.00729393 -0.00963281)
(0.00402275 0.00432541 -0.00685374)
(0.103256 0.00880432 -0.000183683)
(0.105112 0.00965448 -0.000453901)
(0.105403 0.00784629 -0.000684039)
(0.103961 0.00581833 -0.000906366)
(0.10191 0.00465289 -0.00118391)
(0.0993516 0.0041785 -0.0015471)
(0.0962807 0.00425569 -0.00201808)
(0.0925236 0.00474879 -0.00261414)
(0.0877694 0.00560696 -0.00335684)
(0.0819116 0.00679045 -0.0042574)
(0.0742249 0.00832364 -0.00533849)
(0.0650755 0.0100855 -0.00655399)
(0.052821 0.012172 -0.00792123)
(0.0392015 0.013947 -0.00913791)
(0.0213373 0.0152192 -0.00994246)
(0.00461039 0.0102171 -0.00705338)
(0.101591 0.00619092 -0.00017603)
(0.10314 0.00820519 -0.000439813)
(0.104051 0.0075033 -0.000664115)
(0.103425 0.0063126 -0.000880161)
(0.102109 0.00558335 -0.00114986)
(0.100097 0.00541285 -0.00150228)
(0.0974618 0.00578538 -0.00195858)
(0.0940747 0.00664877 -0.00253515)
(0.0896598 0.00800281 -0.00325235)
(0.0841371 0.00985221 -0.00412112)
(0.0767369 0.0122703 -0.00516236)
(0.0678416 0.0151702 -0.00633347)
(0.0555898 0.0187069 -0.007648)
(0.0417889 0.0220736 -0.00881988)
(0.0230562 0.0248397 -0.00958764)
(0.00496705 0.0177156 -0.00679185)
(0.100857 0.00451236 -0.000161935)
(0.102006 0.00680809 -0.000413039)
(0.102978 0.00688247 -0.000627729)
(0.102766 0.00640129 -0.000834222)
(0.101954 0.0061499 -0.00109144)
(0.100432 0.0063487 -0.00142643)
(0.0982735 0.00706768 -0.00185865)
(0.0953705 0.00832927 -0.00240292)
(0.0914708 0.0101866 -0.0030774)
(0.0865288 0.0126968 -0.00389211)
(0.0797388 0.0159855 -0.00486464)
(0.0715188 0.0200158 -0.0059573)
(0.0597023 0.0250148 -0.00717733)
(0.046162 0.0300209 -0.00826728)
(0.0263323 0.0344402 -0.00896843)
(0.00619358 0.0249207 -0.0063465)
(0.100541 0.00348037 -0.000145307)
(0.101445 0.0056605 -0.000380604)
(0.102406 0.00614712 -0.000583629)
(0.102479 0.00615347 -0.000778725)
(0.102066 0.0063104 -0.00102084)
(0.10099 0.00686459 -0.00133469)
(0.0993142 0.00792922 -0.00173759)
(0.0969414 0.00958549 -0.00224236)
(0.0936374 0.0119474 -0.00286437)
(0.0893856 0.0151604 -0.00361233)
(0.0833406 0.0194623 -0.00449934)
(0.0759575 0.0250093 -0.00549367)