/*--------------------------------*- C++ -*----------------------------------*\
| =========                 |                                                 |
| \\      /  F ield         | OpenFOAM: The Open Source CFD Toolbox           |
|  \\    /   O peration     | Version:  v1912                                 |
|   \\  /    A nd           | Website:  www.openfoam.com                      |
|    \\/     M anipulation  |                                                 |
\*---------------------------------------------------------------------------*/
FoamFile
{
    version     2.0;
    format      ascii;
    class       volVectorField;
    location    "0.83/fluid";
    object      cellMotionU;
}
// * * * * * * * * * * * * * * * * * * * * * * * * * * * * * * * * * * * * * //

dimensions      [0 1 -1 0 0 0 0];


internalField   nonuniform List<vector> 
14592
(
(1.19897e-10 -2.84789e-10 2.1773e-10)
(3.35068e-10 -7.96166e-10 6.16446e-10)
(5.35185e-10 -1.27113e-09 1.00917e-09)
(7.28568e-10 -1.72616e-09 1.42201e-09)
(9.2405e-10 -2.17293e-09 1.87979e-09)
(1.12987e-09 -2.61585e-09 2.40532e-09)
(1.3559e-09 -3.05162e-09 3.02137e-09)
(1.61508e-09 -3.466e-09 3.75103e-09)
(1.92618e-09 -3.82786e-09 4.61796e-09)
(2.31988e-09 -4.0786e-09 5.64729e-09)
(2.85282e-09 -4.11013e-09 6.86957e-09)
(3.64258e-09 -3.71425e-09 8.33722e-09)
(4.95467e-09 -2.44844e-09 1.01816e-08)
(7.44719e-09 7.65119e-10 1.27986e-08)
(1.25917e-08 8.54935e-09 1.72165e-08)
(2.13543e-08 2.37078e-08 2.40761e-08)
(3.5643e-10 -8.45641e-10 6.4721e-10)
(9.96121e-10 -2.36444e-09 1.8324e-09)
(1.59026e-09 -3.77587e-09 2.9987e-09)
(2.16451e-09 -5.13038e-09 4.22495e-09)
(2.74254e-09 -6.46157e-09 5.58215e-09)
(3.34935e-09 -7.78543e-09 7.13855e-09)
(4.01316e-09 -9.0953e-09 8.96103e-09)
(4.76964e-09 -1.03539e-08 1.11164e-08)
(5.66871e-09 -1.14789e-08 1.36718e-08)
(6.78706e-09 -1.23175e-08 1.66933e-08)
(8.25483e-09 -1.26017e-08 2.02475e-08)
(1.03059e-08 -1.1873e-08 2.44101e-08)
(1.33931e-08 -9.34291e-09 2.93086e-08)
(1.83068e-08 -3.73249e-09 3.51777e-08)
(2.60446e-08 6.52421e-09 4.22927e-08)
(3.53265e-08 1.97505e-08 4.94875e-08)
(5.83901e-10 -1.38159e-09 1.06028e-09)
(1.63135e-09 -3.86411e-09 3.00122e-09)
(2.60342e-09 -6.1749e-09 4.91033e-09)
(3.53994e-09 -8.39743e-09 6.91448e-09)
(4.47955e-09 -1.05911e-08 9.13e-09)
(5.46124e-09 -1.27876e-08 1.16672e-08)
(6.52836e-09 -1.49855e-08 1.46346e-08)
(7.73365e-09 -1.71406e-08 1.81402e-08)
(9.14619e-09 -1.91473e-08 2.22913e-08)
(1.08633e-08 -2.08099e-08 2.71896e-08)
(1.30307e-08 -2.17992e-08 3.29235e-08)
(1.5879e-08 -2.15981e-08 3.95593e-08)
(1.97825e-08 -1.94635e-08 4.71408e-08)
(2.52962e-08 -1.45342e-08 5.56977e-08)
(3.29505e-08 -6.49868e-09 6.51957e-08)
(4.14143e-08 1.9651e-09 7.43968e-08)
(7.96671e-10 -1.87578e-09 1.44674e-09)
(2.22501e-09 -5.2486e-09 4.09412e-09)
(3.54802e-09 -8.39431e-09 6.69512e-09)
(4.81861e-09 -1.14312e-08 9.42127e-09)
(6.08667e-09 -1.44455e-08 1.24284e-08)
(7.40297e-09 -1.7491e-08 1.58655e-08)
(8.82231e-09 -2.05831e-08 1.98783e-08)
(1.04083e-08 -2.36896e-08 2.46129e-08)
(1.22387e-08 -2.67147e-08 3.02138e-08)
(1.44121e-08 -2.94729e-08 3.68171e-08)
(1.70532e-08 -3.16536e-08 4.45333e-08)
(2.03216e-08 -3.27846e-08 5.34211e-08)
(2.44147e-08 -3.22281e-08 6.34467e-08)
(2.95348e-08 -2.93162e-08 7.442e-08)
(3.57417e-08 -2.38871e-08 8.58544e-08)
(4.1899e-08 -1.7899e-08 9.58366e-08)
(9.89887e-10 -2.31143e-09 1.79773e-09)
(2.7635e-09 -6.471e-09 5.08586e-09)
(4.40228e-09 -1.03599e-08 8.31138e-09)
(5.96884e-09 -1.41299e-08 1.16837e-08)
(7.52272e-09 -1.78974e-08 1.53935e-08)
(9.12297e-09 -2.17426e-08 1.96218e-08)
(1.08322e-08 -2.57075e-08 2.45464e-08)
(1.27208e-08 -2.979e-08 3.03461e-08)
(1.48703e-08 -3.39321e-08 3.72e-08)
(1.73751e-08 -3.80019e-08 4.52802e-08)
(2.03381e-08 -4.17659e-08 5.47329e-08)
(2.38587e-08 -4.48519e-08 6.56435e-08)
(2.8001e-08 -4.67058e-08 7.79702e-08)
(3.27213e-08 -4.65689e-08 9.14121e-08)
(3.77666e-08 -4.36334e-08 1.05107e-07)
(4.21827e-08 -3.8453e-08 1.16311e-07)
(1.16003e-09 -2.67244e-09 2.10641e-09)
(3.23632e-09 -7.48569e-09 5.95639e-09)
(5.1488e-09 -1.19976e-08 9.72525e-09)
(6.96748e-09 -1.63922e-08 1.36537e-08)
(8.75761e-09 -2.08146e-08 1.79589e-08)
(1.0584e-08 -2.53747e-08 2.28472e-08)
(1.25139e-08 -3.01471e-08 2.8521e-08)
(1.46218e-08 -3.51705e-08 3.51844e-08)
(1.69921e-08 -4.04436e-08 4.3045e-08)
(1.97209e-08 -4.59173e-08 5.23105e-08)
(2.29107e-08 -5.14799e-08 6.31754e-08)
(2.66602e-08 -5.69274e-08 7.57947e-08)
(3.10423e-08 -6.18905e-08 9.02365e-08)
(3.60218e-08 -6.56355e-08 1.06321e-07)
(4.13216e-08 -6.66986e-08 1.23167e-07)
(4.58041e-08 -6.3505e-08 1.3719e-07)
(1.3043e-09 -2.9435e-09 2.36763e-09)
(3.63629e-09 -8.24983e-09 6.69155e-09)
(5.77654e-09 -1.32379e-08 1.09137e-08)
(7.79879e-09 -1.81192e-08 1.5297e-08)
(9.77182e-09 -2.30657e-08 2.00782e-08)
(1.17625e-08 -2.82151e-08 2.54796e-08)
(1.38399e-08 -3.36748e-08 3.17186e-08)
(1.60795e-08 -3.95262e-08 3.9014e-08)
(1.85678e-08 -4.58282e-08 4.75908e-08)
(2.14066e-08 -5.26219e-08 5.76815e-08)
(2.47148e-08 -5.99361e-08 6.95212e-08)
(2.86486e-08 -6.77977e-08 8.33594e-08)
(3.34056e-08 -7.62095e-08 9.9438e-08)
(3.92482e-08 -8.50355e-08 1.17938e-07)
(4.6379e-08 -9.3497e-08 1.38491e-07)
(5.35205e-08 -9.88239e-08 1.57062e-07)
(1.42152e-09 -3.11142e-09 2.5788e-09)
(3.95984e-09 -8.72622e-09 7.28387e-09)
(6.28006e-09 -1.40194e-08 1.18644e-08)
(8.45687e-09 -1.9224e-08 1.65976e-08)
(1.05586e-08 -2.45325e-08 2.17295e-08)
(1.26514e-08 -3.01053e-08 2.74899e-08)
(1.48022e-08 -3.60769e-08 3.40998e-08)
(1.70837e-08 -4.25633e-08 4.17794e-08)
(1.95795e-08 -4.96704e-08 5.07533e-08)
(2.23901e-08 -5.7506e-08 6.12533e-08)
(2.56464e-08 -6.62028e-08 7.35266e-08)
(2.95334e-08 -7.59563e-08 8.78527e-08)
(3.43548e-08 -8.7102e-08 1.04594e-07)
(4.06462e-08 -1.00225e-07 1.24263e-07)
(4.92991e-08 -1.16126e-07 1.47375e-07)
(5.97563e-08 -1.33102e-07 1.7077e-07)
(1.21579e-10 -2.91393e-10 2.06785e-10)
(3.39713e-10 -8.14731e-10 5.85261e-10)
(5.42155e-10 -1.30114e-09 9.57107e-10)
(7.37403e-10 -1.76791e-09 1.34711e-09)
(9.3348e-10 -2.22694e-09 1.77754e-09)
(1.13839e-09 -2.68368e-09 2.26937e-09)
(1.36096e-09 -3.13578e-09 2.84253e-09)
(1.61225e-09 -3.57063e-09 3.51611e-09)
(1.90775e-09 -3.96031e-09 4.30773e-09)
(2.27214e-09 -4.2534e-09 5.23214e-09)
(2.75031e-09 -4.35874e-09 6.29945e-09)
(3.43322e-09 -4.11284e-09 7.51542e-09)
(4.52495e-09 -3.19945e-09 8.89231e-09)
(6.47866e-09 -9.58521e-10 1.04693e-08)
(1.01543e-08 3.87788e-09 1.22836e-08)
(1.55788e-08 1.16602e-08 1.36626e-08)
(3.61477e-10 -8.65199e-10 6.14732e-10)
(1.0098e-09 -2.41934e-09 1.73941e-09)
(1.61122e-09 -3.86473e-09 2.84421e-09)
(2.19048e-09 -5.25338e-09 4.00191e-09)
(2.77086e-09 -6.6212e-09 5.2784e-09)
(3.37559e-09 -7.98603e-09 6.73529e-09)
(4.02996e-09 -9.34391e-09 8.43122e-09)
(4.7644e-09 -1.06619e-08 1.04217e-08)
(5.61953e-09 -1.18663e-08 1.27567e-08)
(6.65535e-09 -1.28224e-08 1.54743e-08)
(7.9702e-09 -1.33041e-08 1.85889e-08)
(9.74162e-09 -1.29486e-08 2.20729e-08)
(1.22846e-08 -1.12089e-08 2.58132e-08)
(1.61033e-08 -7.38071e-09 2.9513e-08)
(2.15775e-08 -1.13331e-09 3.23893e-08)
(2.717e-08 5.17809e-09 3.28905e-08)
(5.92228e-10 -1.41343e-09 1.00702e-09)
(1.65406e-09 -3.95351e-09 2.84901e-09)
(2.63805e-09 -6.31934e-09 4.65722e-09)
(3.58369e-09 -8.59792e-09 6.54991e-09)
(4.52808e-09 -1.08513e-08 8.63409e-09)
(5.50792e-09 -1.31143e-08 1.10098e-08)
(6.56215e-09 -1.53894e-08 1.37723e-08)
(7.73564e-09 -1.76382e-08 1.70121e-08)
(9.0836e-09 -1.97663e-08 2.08105e-08)
(1.06786e-08 -2.16013e-08 2.52282e-08)
(1.26225e-08 -2.28646e-08 3.02831e-08)
(1.50652e-08 -2.31522e-08 3.59095e-08)
(1.82239e-08 -2.19739e-08 4.1884e-08)
(2.2345e-08 -1.90047e-08 4.76833e-08)
(2.73875e-08 -1.48704e-08 5.22472e-08)
(3.18556e-08 -1.23467e-08 5.39874e-08)
(8.08198e-10 -1.91886e-09 1.37407e-09)
(2.25665e-09 -5.36955e-09 3.88676e-09)
(3.59663e-09 -8.58991e-09 6.35053e-09)
(4.88047e-09 -1.17024e-08 8.9253e-09)
(6.15685e-09 -1.47976e-08 1.1755e-08)
(7.47354e-09 -1.79327e-08 1.49743e-08)
(8.8801e-09 -2.11273e-08 1.87121e-08)
(1.04308e-08 -2.43555e-08 2.30916e-08)
(1.21871e-08 -2.75322e-08 2.82249e-08)
(1.42181e-08 -3.04935e-08 3.41981e-08)
(1.65983e-08 -3.29747e-08 4.1042e-08)
(1.93956e-08 -3.4603e-08 4.86744e-08)
(2.26389e-08 -3.4956e-08 5.67976e-08)
(2.62293e-08 -3.38103e-08 6.47107e-08)
(2.97336e-08 -3.17652e-08 7.1026e-08)
(3.20349e-08 -3.085e-08 7.36781e-08)
(1.00465e-09 -2.36442e-09 1.70768e-09)
(2.80393e-09 -6.61968e-09 4.8287e-09)
(4.46471e-09 -1.06003e-08 7.88446e-09)
(6.04949e-09 -1.44637e-08 1.10703e-08)
(7.61623e-09 -1.83304e-08 1.45621e-08)
(9.22118e-09 -2.2285e-08 1.85241e-08)
(1.09217e-08 -2.63737e-08 2.3114e-08)
(1.27786e-08 -3.05993e-08 2.84837e-08)
(1.48567e-08 -3.49122e-08 3.47751e-08)
(1.72207e-08 -3.91955e-08 4.21042e-08)
(1.9922e-08 -4.32462e-08 5.05299e-08)
(2.29668e-08 -4.67584e-08 5.99903e-08)
(2.62485e-08 -4.93255e-08 7.01794e-08)
(2.94199e-08 -5.05166e-08 8.03008e-08)
(3.17513e-08 -5.02017e-08 8.86556e-08)
(3.23607e-08 -4.93724e-08 9.24916e-08)
(1.17778e-09 -2.73353e-09 2.00109e-09)
(3.28521e-09 -7.65721e-09 5.65594e-09)
(5.22487e-09 -1.22751e-08 9.22714e-09)
(7.06671e-09 -1.67774e-08 1.29391e-08)
(8.87514e-09 -2.13145e-08 1.69925e-08)
(1.07123e-08 -2.60003e-08 2.15749e-08)
(1.26409e-08 -3.09132e-08 2.68662e-08)
(1.47268e-08 -3.60956e-08 3.3041e-08)
(1.70397e-08 -4.15506e-08 4.02663e-08)
(1.96486e-08 -4.72353e-08 4.86884e-08)
(2.26106e-08 -5.30505e-08 5.84066e-08)
(2.59427e-08 -5.88184e-08 6.94185e-08)
(2.9552e-08 -6.42262e-08 8.14916e-08)
(3.31047e-08 -6.8698e-08 9.38952e-08)
(3.58017e-08 -7.12284e-08 1.04816e-07)
(3.64515e-08 -7.09614e-08 1.10732e-07)
(1.32493e-09 -3.01071e-09 2.24966e-09)
(3.69311e-09 -8.43857e-09 6.35502e-09)
(5.86539e-09 -1.35433e-08 1.03565e-08)
(7.91609e-09 -1.85435e-08 1.44995e-08)
(9.91317e-09 -2.36164e-08 1.90025e-08)
(1.19218e-08 -2.89039e-08 2.40681e-08)
(1.40073e-08 -3.45168e-08 2.989e-08)
(1.62387e-08 -4.05384e-08 3.66562e-08)
(1.86906e-08 -4.70284e-08 4.4549e-08)
(2.14436e-08 -5.40268e-08 5.37358e-08)
(2.45849e-08 -6.156e-08 6.43552e-08)
(2.81982e-08 -6.96425e-08 7.64681e-08)
(3.23556e-08 -7.82567e-08 8.99797e-08)
(3.70482e-08 -8.72192e-08 1.04368e-07)
(4.19395e-08 -9.5721e-08 1.17986e-07)
(4.55445e-08 -1.01268e-07 1.26639e-07)
(1.44464e-09 -3.18242e-09 2.45065e-09)
(4.02376e-09 -8.92564e-09 6.91874e-09)
(6.38058e-09 -1.43424e-08 1.12609e-08)
(8.59051e-09 -1.9673e-08 1.57357e-08)
(1.0722e-08 -2.51156e-08 2.05709e-08)
(1.28398e-08 -3.08348e-08 2.59756e-08)
(1.50088e-08 -3.69679e-08 3.21474e-08)
(1.72969e-08 -4.36315e-08 3.9276e-08)
(1.97794e-08 -5.09297e-08 4.75432e-08)
(2.25433e-08 -5.89645e-08 5.7119e-08)
(2.56943e-08 -6.78545e-08 6.81478e-08)
(2.93732e-08 -7.77664e-08 8.07279e-08)
(3.37836e-08 -8.89659e-08 9.48503e-08)
(3.92336e-08 -1.01864e-07 1.10217e-07)
(4.60158e-08 -1.16797e-07 1.25584e-07)
(5.29797e-08 -1.31561e-07 1.36712e-07)
(1.22709e-10 -2.97182e-10 1.8843e-10)
(3.4267e-10 -8.31012e-10 5.33007e-10)
(5.46381e-10 -1.32753e-09 8.71062e-10)
(7.41829e-10 -1.80457e-09 1.22434e-09)
(9.36554e-10 -2.27465e-09 1.61267e-09)
(1.13753e-09 -2.74397e-09 2.05387e-09)
(1.35198e-09 -3.21158e-09 2.56431e-09)
(1.58798e-09 -3.66706e-09 3.15821e-09)
(1.85583e-09 -4.08754e-09 3.84612e-09)
(2.17034e-09 -4.43179e-09 4.6313e-09)
(2.55713e-09 -4.63247e-09 5.50366e-09)
(3.06693e-09 -4.5806e-09 6.42848e-09)
(3.8037e-09 -4.09671e-09 7.32444e-09)
(4.98635e-09 -2.86113e-09 8.02755e-09)
(6.9611e-09 -3.35348e-10 8.19064e-09)
(9.49267e-09 3.53095e-09 7.21884e-09)
(3.64841e-10 -8.82323e-10 5.60109e-10)
(1.01876e-09 -2.46752e-09 1.58428e-09)
(1.62389e-09 -3.94273e-09 2.58833e-09)
(2.20404e-09 -5.36168e-09 3.6373e-09)
(2.78077e-09 -6.762e-09 4.78899e-09)
(3.37459e-09 -8.16381e-09 6.09621e-09)
(4.00599e-09 -9.5664e-09 7.60692e-09)
(4.6973e-09 -1.09433e-08 9.36278e-09)
(5.47446e-09 -1.22329e-08 1.13936e-08)
(6.37133e-09 -1.3327e-08 1.37067e-08)
(7.43767e-09 -1.40552e-08 1.62648e-08)
(8.75156e-09 -1.41753e-08 1.89441e-08)
(1.04395e-08 -1.33861e-08 2.146e-08)
(1.26351e-08 -1.14372e-08 2.32138e-08)
(1.5222e-08 -8.50697e-09 2.31269e-08)
(1.70835e-08 -6.0834e-09 2.03981e-08)
(5.97876e-10 -1.44128e-09 9.17575e-10)
(1.66915e-09 -4.03182e-09 2.59505e-09)
(2.65966e-09 -6.44608e-09 4.23849e-09)
(3.60743e-09 -8.77373e-09 5.95365e-09)
(4.54709e-09 -1.10796e-08 7.83446e-09)
(5.51108e-09 -1.34014e-08 9.96667e-09)
(6.53135e-09 -1.57463e-08 1.24287e-08)
(7.64048e-09 -1.8084e-08 1.52889e-08)
(8.8727e-09 -2.03357e-08 1.85977e-08)
(1.02635e-08 -2.2361e-08 2.237e-08)
(1.1848e-08 -2.39479e-08 2.6551e-08)
(1.36547e-08 -2.48246e-08 3.09559e-08)
(1.56801e-08 -2.4748e-08 3.51648e-08)
(1.78055e-08 -2.37672e-08 3.83695e-08)
(1.95959e-08 -2.27313e-08 3.93177e-08)
(2.01969e-08 -2.32667e-08 3.73769e-08)
(8.16233e-10 -1.95646e-09 1.25224e-09)
(2.27816e-09 -5.47532e-09 3.54044e-09)
(3.62786e-09 -8.76089e-09 5.78017e-09)
(4.91595e-09 -1.19394e-08 8.1138e-09)
(6.18808e-09 -1.51044e-08 1.0668e-08)
(7.48702e-09 -1.83168e-08 1.35585e-08)
(8.85376e-09 -2.16006e-08 1.68917e-08)
(1.03283e-08 -2.49374e-08 2.07618e-08)
(1.19474e-08 -2.8256e-08 2.52411e-08)
(1.37384e-08 -3.14209e-08 3.03588e-08)
(1.57021e-08 -3.42244e-08 3.6059e-08)
(1.77799e-08 -3.64051e-08 4.21297e-08)
(1.97831e-08 -3.77406e-08 4.8082e-08)
(2.12803e-08 -3.82962e-08 5.29888e-08)
(2.15308e-08 -3.8817e-08 5.54418e-08)
(2.01159e-08 -4.03868e-08 5.45659e-08)
(1.01512e-09 -2.41054e-09 1.55635e-09)
(2.83211e-09 -6.74924e-09 4.39907e-09)
(4.50631e-09 -1.08096e-08 7.17732e-09)
(6.09836e-09 -1.47533e-08 1.00655e-08)
(7.66315e-09 -1.87045e-08 1.32183e-08)
(9.2516e-09 -2.27509e-08 1.67771e-08)
(1.09122e-08 -2.69422e-08 2.08728e-08)
(1.26909e-08 -3.12861e-08 2.56227e-08)
(1.46275e-08 -3.57418e-08 3.11214e-08)
(1.67444e-08 -4.02091e-08 3.74179e-08)
(1.9021e-08 -4.45199e-08 4.44722e-08)
(2.13404e-08 -4.84367e-08 5.20775e-08)
(2.33884e-08 -5.16806e-08 5.9727e-08)
(2.45045e-08 -5.40256e-08 6.64241e-08)
(2.36663e-08 -5.55103e-08 7.0569e-08)
(2.06393e-08 -5.65814e-08 7.08375e-08)
(1.19069e-09 -2.78656e-09 1.82405e-09)
(3.32026e-09 -7.80622e-09 5.15348e-09)
(5.2773e-09 -1.25157e-08 8.401e-09)
(7.13028e-09 -1.71099e-08 1.17669e-08)
(8.9406e-09 -2.17428e-08 1.54281e-08)
(1.07655e-08 -2.6531e-08 1.95462e-08)
(1.26591e-08 -3.15548e-08 2.42709e-08)
(1.46736e-08 -3.68579e-08 2.97382e-08)
(1.68552e-08 -4.24446e-08 3.60617e-08)
(1.92346e-08 -4.82746e-08 4.33122e-08)
(2.18033e-08 -5.42543e-08 5.14745e-08)
(2.4463e-08 -6.02179e-08 6.03689e-08)
(2.69299e-08 -6.5884e-08 6.95192e-08)
(2.85616e-08 -7.07406e-08 7.79121e-08)
(2.8244e-08 -7.38865e-08 8.37909e-08)
(2.53509e-08 -7.43677e-08 8.53329e-08)
(1.34026e-09 -3.06886e-09 2.05092e-09)
(3.73487e-09 -8.60193e-09 5.79146e-09)
(5.9288e-09 -1.38069e-08 9.43103e-09)
(7.99499e-09 -1.89075e-08 1.31889e-08)
(9.999e-09 -2.40844e-08 1.72578e-08)
(1.20016e-08 -2.94815e-08 2.18126e-08)
(1.40609e-08 -3.52097e-08 2.70149e-08)
(1.62338e-08 -4.13502e-08 3.30117e-08)
(1.85752e-08 -4.79569e-08 3.99285e-08)
(2.11336e-08 -5.50584e-08 4.78511e-08)
(2.39372e-08 -6.26583e-08 5.67832e-08)
(2.69768e-08 -7.07317e-08 6.65868e-08)
(3.01443e-08 -7.91807e-08 7.68208e-08)
(3.31429e-08 -8.76844e-08 8.64956e-08)
(3.53189e-08 -9.52649e-08 9.37114e-08)
(3.57242e-08 -9.95611e-08 9.61113e-08)
(1.4622e-09 -3.24367e-09 2.23458e-09)
(4.07195e-09 -9.09771e-09 6.30637e-09)
(6.45449e-09 -1.46202e-08 1.02569e-08)
(8.68448e-09 -2.00564e-08 1.43169e-08)
(1.08284e-08 -2.5608e-08 1.86878e-08)
(1.29476e-08 -3.14408e-08 2.35506e-08)
(1.5101e-08 -3.76911e-08 2.90702e-08)
(1.73469e-08 -4.44705e-08 3.53952e-08)
(1.97449e-08 -5.18722e-08 4.26512e-08)
(2.23557e-08 -5.99771e-08 5.09236e-08)
(2.52407e-08 -6.88645e-08 6.02246e-08)
(2.84597e-08 -7.86259e-08 7.04255e-08)
(3.20656e-08 -8.93789e-08 8.11223e-08)
(3.60959e-08 -1.01252e-07 9.13514e-08)
(4.05037e-08 -1.1415e-07 9.91015e-08)
(4.45065e-08 -1.25938e-07 1.0135e-07)
(1.23355e-10 -3.02063e-10 1.63485e-10)
(3.44301e-10 -8.44759e-10 4.62317e-10)
(5.48266e-10 -1.34979e-09 7.54818e-10)
(7.42909e-10 -1.83553e-09 1.05982e-09)
(9.34917e-10 -2.315e-09 1.39349e-09)
(1.13016e-09 -2.79514e-09 1.77042e-09)
(1.33395e-09 -3.27618e-09 2.20309e-09)
(1.55124e-09 -3.75006e-09 2.70111e-09)
(1.78692e-09 -4.19844e-09 3.2691e-09)
(2.04644e-09 -4.58924e-09 3.90253e-09)
(2.33819e-09 -4.87372e-09 4.58047e-09)
(2.67948e-09 -4.98089e-09 5.25356e-09)
(3.11342e-09 -4.80596e-09 5.83002e-09)
(3.73206e-09 -4.17173e-09 6.15388e-09)
(4.68709e-09 -2.74262e-09 6.02275e-09)
(5.83642e-09 -2.95889e-10 5.32878e-09)
(3.66827e-10 -8.96768e-10 4.85996e-10)
(1.0237e-09 -2.50816e-09 1.37404e-09)
(1.62989e-09 -4.00856e-09 2.24327e-09)
(2.20775e-09 -5.45309e-09 3.14856e-09)
(2.77684e-09 -6.88091e-09 4.13833e-09)
(3.35432e-09 -8.31405e-09 5.25523e-09)
(3.95539e-09 -9.75506e-09 6.53606e-09)
(4.59353e-09 -1.11834e-08 8.00905e-09)
(5.27995e-09 -1.25491e-08 9.68726e-09)
(6.02333e-09 -1.37667e-08 1.15563e-08)
(6.82954e-09 -1.47097e-08 1.35513e-08)
(7.70568e-09 -1.52153e-08 1.55229e-08)
(8.65641e-09 -1.51115e-08 1.71766e-08)
(9.66799e-09 -1.42857e-08 1.80212e-08)
(1.06023e-08 -1.28309e-08 1.74249e-08)
(1.10272e-08 -1.13606e-08 1.5449e-08)
(6.01301e-10 -1.46474e-09 7.96236e-10)
(1.67783e-09 -4.09786e-09 2.25084e-09)
(2.67049e-09 -6.55285e-09 3.67364e-09)
(3.6153e-09 -8.92172e-09 5.15413e-09)
(4.54369e-09 -1.12713e-08 6.77075e-09)
(5.48318e-09 -1.36422e-08 8.59304e-09)
(6.4577e-09 -1.60457e-08 1.06813e-08)
(7.48687e-09 -1.84585e-08 1.30826e-08)
(8.58364e-09 -2.08164e-08 1.58206e-08)
(9.74842e-09 -2.30058e-08 1.8877e-08)
(1.09603e-08 -2.48645e-08 2.21589e-08)
(1.21602e-08 -2.62052e-08 2.54478e-08)
(1.32251e-08 -2.69002e-08 2.83346e-08)
(1.39333e-08 -2.70676e-08 3.01839e-08)
(1.39803e-08 -2.7315e-08 3.03269e-08)
(1.33425e-08 -2.83949e-08 2.90595e-08)
(8.21257e-10 -1.98813e-09 1.08661e-09)
(2.29109e-09 -5.56429e-09 3.0713e-09)
(3.6447e-09 -8.90458e-09 5.01044e-09)
(4.93014e-09 -1.21379e-08 7.02509e-09)
(6.18932e-09 -1.53604e-08 9.22101e-09)
(7.45897e-09 -1.86357e-08 1.16923e-08)
(8.77055e-09 -2.19914e-08 1.45211e-08)
(1.01487e-08 -2.54155e-08 1.7773e-08)
(1.16057e-08 -2.88482e-08 2.14852e-08)
(1.31301e-08 -3.21759e-08 2.56434e-08)
(1.46637e-08 -3.52303e-08 3.01439e-08)
(1.60631e-08 -3.78143e-08 3.47364e-08)
(1.70393e-08 -3.97858e-08 3.8958e-08)
(1.71127e-08 -4.12382e-08 4.21141e-08)
(1.57644e-08 -4.26983e-08 4.35007e-08)
(1.34131e-08 -4.46184e-08 4.32729e-08)
(1.02192e-09 -2.44923e-09 1.35078e-09)
(2.84989e-09 -6.85798e-09 3.8166e-09)
(4.53032e-09 -1.09849e-08 6.22244e-09)
(6.1213e-09 -1.49947e-08 8.71637e-09)
(7.67361e-09 -1.90142e-08 1.14277e-08)
(9.2318e-09 -2.31331e-08 1.44717e-08)
(1.08343e-08 -2.74033e-08 1.79497e-08)
(1.2511e-08 -3.18355e-08 2.19444e-08)
(1.42771e-08 -3.63936e-08 2.65076e-08)
(1.61166e-08 -4.09874e-08 3.16349e-08)
(1.79529e-08 -4.54664e-08 3.72257e-08)
(1.95934e-08 -4.96218e-08 4.30226e-08)
(2.0642e-08 -5.32073e-08 4.85416e-08)
(2.04208e-08 -5.59959e-08 5.30469e-08)
(1.81571e-08 -5.7888e-08 5.57503e-08)
(1.44029e-08 -5.89814e-08 5.6541e-08)
(1.19942e-09 -2.83097e-09 1.58333e-09)
(3.34328e-09 -7.93084e-09 4.47184e-09)
(5.30959e-09 -1.27162e-08 7.28461e-09)
(7.16416e-09 -1.73853e-08 1.01918e-08)
(8.96451e-09 -2.20944e-08 1.33415e-08)
(1.07616e-08 -2.6961e-08 1.68655e-08)
(1.26e-08 -3.20655e-08 2.08803e-08)
(1.45166e-08 -3.745e-08 2.54825e-08)
(1.65346e-08 -4.31152e-08 3.07363e-08)
(1.86497e-08 -4.90153e-08 3.66486e-08)
(2.08029e-08 -5.50466e-08 4.31277e-08)
(2.28315e-08 -6.10278e-08 4.99221e-08)
(2.43779e-08 -6.66434e-08 5.65303e-08)
(2.47922e-08 -7.13249e-08 6.21718e-08)
(2.31981e-08 -7.40821e-08 6.59371e-08)
(1.97006e-08 -7.39578e-08 6.74876e-08)
(1.35094e-09 -3.1174e-09 1.78062e-09)
(3.76344e-09 -8.73809e-09 5.02633e-09)
(5.97002e-09 -1.40258e-08 8.17937e-09)
(8.04139e-09 -1.92075e-08 1.14261e-08)
(1.00395e-08 -2.44656e-08 1.49279e-08)
(1.20195e-08 -2.99442e-08 1.88278e-08)
(1.40309e-08 -3.57517e-08 2.32518e-08)
(1.61172e-08 -4.19633e-08 2.83047e-08)
(1.8313e-08 -4.86216e-08 3.40579e-08)
(2.0636e-08 -5.57344e-08 4.0525e-08)
(2.30744e-08 -6.32713e-08 4.76243e-08)
(2.55556e-08 -7.11435e-08 5.50959e-08)
(2.7911e-08 -7.9151e-08 6.24272e-08)
(2.98247e-08 -8.68199e-08 6.87426e-08)
(3.08445e-08 -9.30358e-08 7.29134e-08)
(3.06975e-08 -9.57444e-08 7.43872e-08)
(1.47483e-09 -3.29464e-09 1.94038e-09)
(4.10602e-09 -9.2407e-09 5.47425e-09)
(6.50487e-09 -1.48498e-08 8.89743e-09)
(8.74409e-09 -2.03706e-08 1.24064e-08)
(1.08872e-08 -2.60062e-08 1.61699e-08)
(1.29908e-08 -3.19215e-08 2.03363e-08)
(1.51064e-08 -3.82484e-08 2.50345e-08)
(1.72812e-08 -4.50895e-08 3.03703e-08)
(1.95578e-08 -5.25209e-08 3.64146e-08)
(2.19724e-08 -6.05935e-08 4.31808e-08)
(2.45507e-08 -6.93349e-08 5.05812e-08)
(2.7302e-08 -7.87483e-08 5.83576e-08)
(3.02172e-08 -8.8805e-08 6.59663e-08)
(3.32955e-08 -9.94168e-08 7.24331e-08)
(3.65965e-08 -1.10274e-07 7.62984e-08)
(3.99066e-08 -1.19681e-07 7.65323e-08)
(1.23644e-10 -3.05979e-10 1.32989e-10)
(3.44874e-10 -8.55765e-10 3.75874e-10)
(5.48517e-10 -1.3676e-09 6.13462e-10)
(7.41719e-10 -1.86036e-09 8.60276e-10)
(9.30395e-10 -2.34729e-09 1.12938e-09)
(1.11935e-09 -2.83608e-09 1.43168e-09)
(1.31209e-09 -3.32766e-09 1.77607e-09)
(1.51101e-09 -3.81609e-09 2.16858e-09)
(1.71664e-09 -4.28571e-09 2.60998e-09)
(1.92802e-09 -4.71086e-09 3.09272e-09)
(2.14328e-09 -5.05243e-09 3.59507e-09)
(2.36516e-09 -5.25661e-09 4.07523e-09)
(2.61204e-09 -5.244e-09 4.46454e-09)
(2.94805e-09 -4.86915e-09 4.68548e-09)
(3.50302e-09 -3.81557e-09 4.70195e-09)
(4.24788e-09 -1.76056e-09 4.58406e-09)
(3.67727e-10 -9.08348e-10 3.95311e-10)
(1.02566e-09 -2.54074e-09 1.11745e-09)
(1.63103e-09 -4.06134e-09 1.82297e-09)
(2.20479e-09 -5.52628e-09 2.55604e-09)
(2.76452e-09 -6.97612e-09 3.3543e-09)
(3.32398e-09 -8.434e-09 4.25014e-09)
(3.89365e-09 -9.90523e-09 5.26998e-09)
(4.47932e-09 -1.13732e-08 6.43118e-09)
(5.08103e-09 -1.27966e-08 7.73629e-09)
(5.68991e-09 -1.41034e-08 9.16212e-09)
(6.28815e-09 -1.51908e-08 1.06444e-08)
(6.84942e-09 -1.59289e-08 1.20534e-08)
(7.35155e-09 -1.61769e-08 1.318e-08)
(7.79175e-09 -1.5803e-08 1.37345e-08)
(8.18801e-09 -1.47231e-08 1.34697e-08)
(8.48252e-09 -1.32023e-08 1.26025e-08)
(6.02981e-10 -1.48356e-09 6.4772e-10)
(1.68165e-09 -4.15081e-09 1.83061e-09)
(2.67348e-09 -6.63838e-09 2.98575e-09)
(3.61238e-09 -9.04006e-09 4.18462e-09)
(4.52646e-09 -1.14241e-08 5.4886e-09)
(5.43856e-09 -1.38332e-08 6.95059e-09)
(6.36521e-09 -1.62813e-08 8.6139e-09)
(7.31531e-09 -1.87508e-08 1.05081e-08)
(8.2851e-09 -2.1186e-08 1.26394e-08)
(9.25237e-09 -2.34894e-08 1.49758e-08)
(1.01656e-08 -2.55228e-08 1.74225e-08)
(1.09349e-08 -2.71289e-08 1.97944e-08)
(1.14279e-08 -2.8192e-08 2.17975e-08)
(1.1501e-08 -2.87595e-08 2.30674e-08)
(1.11232e-08 -2.91867e-08 2.33789e-08)
(1.06569e-08 -2.99402e-08 2.31147e-08)
(8.23951e-10 -2.0135e-09 8.84153e-10)
(2.29746e-09 -5.63559e-09 2.49806e-09)
(3.65091e-09 -9.01948e-09 4.07274e-09)
(4.92957e-09 -1.2296e-08 5.70441e-09)
(6.17163e-09 -1.55633e-08 7.47605e-09)
(7.40784e-09 -1.88863e-08 9.45927e-09)
(8.66111e-09 -2.22954e-08 1.17135e-08)
(9.94294e-09 -2.57816e-08 1.42805e-08)
(1.12475e-08 -2.9292e-08 1.71733e-08)
(1.25384e-08 -3.27228e-08 2.03577e-08)
(1.37291e-08 -3.59213e-08 2.37243e-08)
(1.4654e-08 -3.87043e-08 2.70591e-08)
(1.50424e-08 -4.09211e-08 3.00311e-08)
(1.45462e-08 -4.25822e-08 3.22519e-08)
(1.2981e-08 -4.40063e-08 3.35018e-08)
(1.10906e-08 -4.55125e-08 3.40432e-08)
(1.02584e-09 -2.48022e-09 1.09915e-09)
(2.85949e-09 -6.94489e-09 3.10476e-09)
(4.54112e-09 -1.11245e-08 5.05868e-09)
(6.1259e-09 -1.51861e-08 7.07894e-09)
(7.66025e-09 -1.92577e-08 9.26695e-09)
(9.18274e-09 -2.34302e-08 1.17107e-08)
(1.07224e-08 -2.77559e-08 1.44836e-08)
(1.22961e-08 -3.22459e-08 1.76392e-08)
(1.39001e-08 -3.68642e-08 2.11985e-08)
(1.54958e-08 -4.1521e-08 2.51301e-08)
(1.69822e-08 -4.60645e-08 2.93199e-08)
(1.81555e-08 -5.02778e-08 3.35408e-08)
(1.86577e-08 -5.38854e-08 3.74391e-08)
(1.79722e-08 -5.65855e-08 4.06056e-08)
(1.56781e-08 -5.81577e-08 4.27873e-08)
(1.25884e-08 -5.87236e-08 4.40763e-08)
(1.20476e-09 -2.86643e-09 1.28863e-09)
(3.35678e-09 -8.03022e-09 3.63839e-09)
(5.3264e-09 -1.28755e-08 5.92324e-09)
(7.17637e-09 -1.76025e-08 8.27876e-09)
(8.9603e-09 -2.23687e-08 1.08213e-08)
(1.07228e-08 -2.72915e-08 1.36517e-08)
(1.24998e-08 -3.24494e-08 1.68546e-08)
(1.43153e-08 -3.78803e-08 2.04925e-08)
(1.61756e-08 -4.3578e-08 2.45938e-08)
(1.80561e-08 -4.94841e-08 2.91308e-08)
(1.9879e-08 -5.54748e-08 3.39886e-08)
(2.14752e-08 -6.13327e-08 3.89229e-08)
(2.25366e-08 -6.66897e-08 4.35574e-08)
(2.25777e-08 -7.09062e-08 4.74268e-08)
(2.10647e-08 -7.29649e-08 5.02094e-08)
(1.83257e-08 -7.21396e-08 5.19214e-08)
(1.3578e-09 -3.15606e-09 1.44937e-09)
(3.78125e-09 -8.84633e-09 4.09024e-09)
(5.99374e-09 -1.41989e-08 6.65202e-09)
(8.06336e-09 -1.94427e-08 9.28333e-09)
(1.00481e-08 -2.47608e-08 1.21112e-08)
(1.19976e-08 -3.02957e-08 1.52452e-08)
(1.39533e-08 -3.61519e-08 1.87769e-08)
(1.59473e-08 -4.23964e-08 2.27745e-08)
(1.79994e-08 -4.90575e-08 2.72698e-08)
(2.01107e-08 -5.61195e-08 3.22371e-08)
(2.22513e-08 -6.35122e-08 3.7552e-08)
(2.43505e-08 -7.1089e-08 4.2961e-08)
(2.62798e-08 -7.85655e-08 4.80282e-08)
(2.78729e-08 -8.53859e-08 5.21824e-08)
(2.89832e-08 -9.04679e-08 5.49349e-08)
(2.95379e-08 -9.22021e-08 5.63175e-08)
(1.48328e-09 -3.33513e-09 1.57971e-09)
(4.12835e-09 -9.35404e-09 4.45552e-09)
(6.53615e-09 -1.50309e-08 7.23734e-09)
(8.77694e-09 -2.0616e-08 1.00821e-08)
(1.0911e-08 -2.63125e-08 1.31227e-08)
(1.29901e-08 -3.22832e-08 1.6473e-08)
(1.50588e-08 -3.8654e-08 2.0227e-08)
(1.71544e-08 -4.55164e-08 2.44532e-08)
(1.93074e-08 -5.29273e-08 2.91826e-08)
(2.15393e-08 -6.09064e-08 3.43846e-08)
(2.38626e-08 -6.94319e-08 3.99315e-08)
(2.62835e-08 -7.84338e-08 4.55441e-08)
(2.88242e-08 -8.77861e-08 5.07391e-08)
(3.15964e-08 -9.73089e-08 5.48056e-08)
(3.49105e-08 -1.06745e-07 5.69694e-08)
(3.87508e-08 -1.14939e-07 5.70675e-08)
(1.23687e-10 -3.08882e-10 9.80965e-11)
(3.44845e-10 -8.63947e-10 2.77299e-10)
(5.47866e-10 -1.38088e-09 4.5211e-10)
(7.39386e-10 -1.87861e-09 6.33608e-10)
(9.25104e-10 -2.37141e-09 8.3076e-10)
(1.10842e-09 -2.8665e-09 1.05119e-09)
(1.29169e-09 -3.3658e-09 1.30078e-09)
(1.47532e-09 -3.86412e-09 1.5829e-09)
(1.65735e-09 -4.34792e-09 1.89678e-09)
(1.83328e-09 -4.79386e-09 2.23525e-09)
(1.99756e-09 -5.16694e-09 2.5815e-09)
(2.14924e-09 -5.41714e-09 2.90638e-09)
(2.30775e-09 -5.46715e-09 3.17378e-09)
(2.54245e-09 -5.16494e-09 3.35333e-09)
(3.00091e-09 -4.17991e-09 3.47444e-09)
(3.68666e-09 -2.16623e-09 3.59808e-09)
(3.6796e-10 -9.1699e-10 2.91696e-10)
(1.02579e-09 -2.56507e-09 8.24154e-10)
(1.62939e-09 -4.1005e-09 1.3439e-09)
(2.19904e-09 -5.58118e-09 1.8827e-09)
(2.74955e-09 -7.0469e-09 2.4675e-09)
(3.29276e-09 -8.52281e-09 3.12082e-09)
(3.83512e-09 -1.00153e-08 3.85999e-09)
(4.37731e-09 -1.15105e-08 4.69484e-09)
(4.91206e-09 -1.29711e-08 5.62316e-09)
(5.42206e-09 -1.43313e-08 6.62338e-09)
(5.88069e-09 -1.54957e-08 7.64498e-09)
(6.26013e-09 -1.63394e-08 8.60161e-09)
(6.5535e-09 -1.67092e-08 9.36511e-09)
(6.8156e-09 -1.64217e-08 9.79388e-09)
(7.18186e-09 -1.52809e-08 9.79593e-09)
(7.66873e-09 -1.35013e-08 9.47486e-09)
(6.03563e-10 -1.49764e-09 4.77952e-10)
(1.68245e-09 -4.19035e-09 1.35026e-09)
(2.6722e-09 -6.70243e-09 2.20126e-09)
(3.60418e-09 -9.12801e-09 3.08249e-09)
(4.50466e-09 -1.15376e-08 4.03794e-09)
(5.39182e-09 -1.39739e-08 5.10429e-09)
(6.27691e-09 -1.64532e-08 6.3102e-09)
(7.16097e-09 -1.89602e-08 7.67256e-09)
(8.03054e-09 -2.14435e-08 9.18949e-09)
(8.85207e-09 -2.38112e-08 1.08298e-08)
(9.56648e-09 -2.59306e-08 1.25196e-08)
(1.00896e-08 -2.7642e-08 1.41317e-08)
(1.03308e-08 -2.87992e-08 1.54885e-08)
(1.02559e-08 -2.93646e-08 1.64083e-08)
(1.00115e-08 -2.95512e-08 1.68235e-08)
(9.97657e-09 -2.98396e-08 1.69251e-08)
(8.25111e-10 -2.0325e-09 6.52343e-10)
(2.29966e-09 -5.6889e-09 1.8429e-09)
(3.65077e-09 -9.10506e-09 3.00297e-09)
(4.92183e-09 -1.24138e-08 4.20257e-09)
(6.14672e-09 -1.57131e-08 5.50082e-09)
(7.35218e-09 -1.90696e-08 6.94768e-09)
(8.55417e-09 -2.25143e-08 8.58253e-09)
(9.75544e-09 -2.60396e-08 1.04296e-08)
(1.0939e-08 -2.95938e-08 1.24898e-08)
(1.20578e-08 -3.30746e-08 1.47273e-08)
(1.30213e-08 -3.63274e-08 1.70552e-08)
(1.36813e-08 -3.91561e-08 1.93243e-08)
(1.3834e-08 -4.13711e-08 2.13331e-08)
(1.32778e-08 -4.28948e-08 2.28899e-08)
(1.2031e-08 -4.39369e-08 2.39316e-08)
(1.0776e-08 -4.49093e-08 2.45514e-08)
(1.02776e-09 -2.50336e-09 8.11174e-10)
(2.86377e-09 -7.00983e-09 2.29074e-09)
(4.54398e-09 -1.12287e-08 3.73049e-09)
(6.12043e-09 -1.53277e-08 5.21592e-09)
(7.63682e-09 -1.94365e-08 6.81965e-09)
(9.12589e-09 -2.36456e-08 8.60299e-09)
(1.06099e-08 -2.80067e-08 1.06148e-08)
(1.20966e-08 -3.25293e-08 1.28865e-08)
(1.35716e-08 -3.71742e-08 1.54227e-08)
(1.49872e-08 -4.18456e-08 1.81865e-08)
(1.62433e-08 -4.63798e-08 2.10841e-08)
(1.71632e-08 -5.05371e-08 2.39516e-08)
(1.74711e-08 -5.39982e-08 2.657e-08)
(1.68183e-08 -5.63967e-08 2.87343e-08)
(1.49899e-08 -5.74648e-08 3.03636e-08)
(1.26779e-08 -5.74822e-08 3.14449e-08)
(1.20772e-09 -2.89293e-09 9.51107e-10)
(3.36372e-09 -8.10429e-09 2.68486e-09)
(5.33307e-09 -1.29937e-08 4.36869e-09)
(7.17628e-09 -1.77628e-08 6.10099e-09)
(8.94249e-09 -2.25688e-08 7.96501e-09)
(1.0672e-08 -2.75286e-08 1.00312e-08)
(1.23937e-08 -3.2718e-08 1.2356e-08)
(1.41228e-08 -3.81699e-08 1.49764e-08)
(1.58564e-08 -4.38692e-08 1.79001e-08)
(1.75627e-08 -4.9743e-08 2.10901e-08)
(1.91677e-08 -5.56445e-08 2.44448e-08)
(2.05354e-08 -6.13232e-08 2.77852e-08)
(2.14438e-08 -6.63665e-08 3.08618e-08)
(2.15773e-08 -7.00989e-08 3.34292e-08)
(2.06015e-08 -7.15357e-08 3.53709e-08)
(1.86985e-08 -7.01931e-08 3.6664e-08)
(1.36184e-09 -3.18486e-09 1.06996e-09)
(3.79137e-09 -8.92682e-09 3.01873e-09)
(6.00571e-09 -1.43271e-08 4.90696e-09)
(8.06998e-09 -1.96154e-08 6.84247e-09)
(1.00396e-08 -2.49747e-08 8.91633e-09)
(1.1959e-08 -3.05456e-08 1.12052e-08)
(1.38634e-08 -3.64279e-08 1.37701e-08)
(1.57774e-08 -4.26803e-08 1.66514e-08)
(1.77124e-08 -4.93171e-08 1.9858e-08)
(1.96639e-08 -5.63006e-08 2.33497e-08)
(2.16089e-08 -6.35288e-08 2.70186e-08)
(2.35047e-08 -7.08102e-08 3.0659e-08)
(2.53068e-08 -7.78161e-08 3.39749e-08)
(2.70025e-08 -8.39759e-08 3.66323e-08)
(2.86259e-08 -8.83065e-08 3.84185e-08)
(2.99567e-08 -8.95317e-08 3.94066e-08)
(1.48858e-09 -3.36527e-09 1.16631e-09)