/*--------------------------------*- C++ -*----------------------------------*\
| =========                 |                                                 |
| \\      /  F ield         | OpenFOAM: The Open Source CFD Toolbox           |
|  \\    /   O peration     | Version:  v1912                                 |
|   \\  /    A nd           | Website:  www.openfoam.com                      |
|    \\/     M anipulation  |                                                 |
\*---------------------------------------------------------------------------*/
FoamFile
{
    version     2.0;
    format      ascii;
    class       surfaceScalarField;
    location    "0.83/fluid";
    object      meshPhi;
}
// * * * * * * * * * * * * * * * * * * * * * * * * * * * * * * * * * * * * * //

dimensions      [0 3 -1 0 0 0 0];
oriented        oriented;


internalField   nonuniform List<scalar> 
41600
(
1.41042e-13
-3.76917e-13
1.41944e-13
-1.46628e-13
2.69713e-13
-1.09789e-12
4.18417e-13
-4.32449e-13
3.91535e-13
-1.76662e-12
6.89677e-13
-7.13476e-13
5.11634e-13
-2.40645e-12
9.73808e-13
-1.00876e-12
6.35081e-13
-3.03298e-12
1.28716e-12
-1.33563e-12
7.6734e-13
-3.65298e-12
1.64512e-12
-1.71064e-12
9.15013e-13
-4.2622e-12
2.06249e-12
-2.15016e-12
1.08692e-12
-4.84124e-12
2.55368e-12
-2.67075e-12
1.29612e-12
-5.34822e-12
3.13244e-12
-3.28943e-12
1.56405e-12
-5.70572e-12
3.81124e-12
-4.02402e-12
1.92926e-12
-5.7774e-12
4.60093e-12
-4.89514e-12
2.46606e-12
-5.32353e-12
5.51233e-12
-5.93332e-12
3.31884e-12
-3.91558e-12
6.56292e-12
-7.1999e-12
4.73386e-12
-8.08081e-13
7.78481e-12
-8.83203e-12
6.78618e-12
4.7373e-12
9.15029e-12
-1.09667e-11
1.37826e-11
1.14571e-11
-1.64849e-11
4.19442e-13
-7.42733e-13
4.22123e-13
-4.36058e-13
8.01954e-13
-2.16393e-12
1.24423e-12
-1.28595e-12
1.16376e-12
-3.48358e-12
2.05054e-12
-2.12128e-12
1.51987e-12
-4.74861e-12
2.8946e-12
-2.9984e-12
1.88508e-12
-5.99129e-12
3.82482e-12
-3.96862e-12
2.27526e-12
-7.22756e-12
4.88664e-12
-5.08089e-12
2.70917e-12
-8.45338e-12
6.1239e-12
-6.38353e-12
3.21122e-12
-9.63802e-12
7.57906e-12
-7.92523e-12
3.81618e-12
-1.07125e-11
9.29218e-12
-9.7553e-12
4.57814e-12
-1.15508e-11
1.12983e-11
-1.19236e-11
5.58811e-12
-1.19414e-11
1.36234e-11
-1.44819e-11
7.00824e-12
-1.15497e-11
1.6281e-11
-1.74928e-11
9.12106e-12
-9.89014e-12
1.92701e-11
-2.1055e-11
1.23282e-11
-6.40927e-12
2.25595e-11
-2.53445e-11
1.65162e-11
-1.16155e-12
2.59173e-11
-3.03608e-11
5.10905e-12
2.84997e-11
-3.65882e-11
6.87053e-13
-1.08654e-12
6.91491e-13
-7.1431e-13
1.31314e-12
-3.16671e-12
2.03791e-12
-2.10619e-12
1.90427e-12
-5.10161e-12
3.35748e-12
-3.47316e-12
2.48435e-12
-6.96228e-12
4.73731e-12
-4.90684e-12
3.07686e-12
-8.79949e-12
6.25593e-12
-6.49048e-12
3.7066e-12
-1.06423e-11
7.98714e-12
-8.30346e-12
4.40206e-12
-1.24944e-11
1.00021e-11
-1.04241e-11
5.19863e-12
-1.43266e-11
1.23698e-11
-1.29309e-11
6.1433e-12
-1.60652e-11
1.51547e-11
-1.59024e-11
7.3023e-12
-1.75735e-11
1.84116e-11
-1.94148e-11
8.77382e-12
-1.86282e-11
2.21745e-11
-2.35372e-11
1.07076e-11
-1.88993e-11
2.64391e-11
-2.83266e-11
1.33151e-11
-1.79702e-11
3.11337e-11
-3.38209e-11
1.67922e-11
-1.54985e-11
3.60578e-11
-4.00096e-11
2.07079e-11
-1.17923e-11
4.06964e-11
-4.64728e-11
-7.6848e-12
4.43739e-11
-5.4199e-11
9.37346e-13
-1.39716e-12
9.43526e-13
-9.74613e-13
1.79052e-12
-4.07384e-12
2.78003e-12
-2.873e-12
2.59397e-12
-6.56912e-12
4.57795e-12
-4.7353e-12
3.37912e-12
-8.97832e-12
6.45479e-12
-6.68503e-12
4.17665e-12
-1.13724e-11
8.51632e-12
-8.83431e-12
5.01839e-12
-1.37978e-11
1.0862e-11
-1.12899e-11
5.9398e-12
-1.62735e-11
1.35877e-11
-1.41571e-11
6.98275e-12
-1.87854e-11
1.67868e-11
-1.75414e-11
8.19847e-12
-2.12772e-11
2.05474e-11
-2.15482e-11
9.65051e-12
-2.36347e-11
2.49442e-11
-2.62776e-11
1.14169e-11
-2.56675e-11
3.00227e-11
-3.18143e-11
1.35878e-11
-2.70915e-11
3.57686e-11
-3.82073e-11
1.62424e-11
-2.75365e-11
4.20551e-11
-4.54334e-11
1.93612e-11
-2.66417e-11
4.85451e-11
-5.33211e-11
2.24416e-11
-2.44532e-11
5.44813e-11
-6.11522e-11
-2.13123e-11
5.88589e-11
-6.95705e-11
1.16468e-12
-1.66359e-12
1.17249e-12
-1.21103e-12
2.22311e-12
-4.85316e-12
3.45352e-12
-3.56869e-12
3.21647e-12
-7.83408e-12
5.68321e-12
-5.87787e-12
4.18211e-12
-1.07253e-11
8.00531e-12
-8.28966e-12
5.15612e-12
-1.36186e-11
1.05489e-11
-1.09408e-11
6.17544e-12
-1.65806e-11
1.34352e-11
-1.39613e-11
7.28016e-12
-1.96515e-11
1.67814e-11
-1.74792e-11
8.51571e-12
-2.28429e-11
2.07022e-11
-2.16233e-11
9.93432e-12
-2.61322e-11
2.53075e-11
-2.65231e-11
1.15941e-11
-2.94531e-11
3.06947e-11
-3.23034e-11
1.35533e-11
-3.26824e-11
3.693e-11
-3.90713e-11
1.58548e-11
-3.56173e-11
4.40136e-11
-4.68895e-11
1.84827e-11
-3.7942e-11
5.18092e-11
-5.57193e-11
2.1275e-11
-3.91895e-11
5.99019e-11
-6.52997e-11
2.36882e-11
-3.88884e-11
6.72932e-11
-7.46441e-11
-3.64189e-11
7.26053e-11
-8.40267e-11
1.36464e-12
-1.87529e-12
1.37381e-12
-1.41879e-12
2.60237e-12
-5.47378e-12
4.04473e-12
-4.17909e-12
3.75919e-12
-8.84597e-12
6.65032e-12
-6.87711e-12
4.87657e-12
-1.21322e-11
9.35557e-12
-9.68622e-12
5.99419e-12
-1.54444e-11
1.2308e-11
-1.27626e-11
7.15217e-12
-1.88696e-11
1.56458e-11
-1.62542e-11
8.39328e-12
-2.24715e-11
1.95024e-11
-2.03064e-11
9.76513e-12
-2.6292e-11
2.40091e-11
-2.5066e-11
1.13212e-11
-3.03504e-11
2.92945e-11
-3.06821e-11
1.31198e-11
-3.46421e-11
3.54779e-11
-3.7303e-11
1.52186e-11
-3.91356e-11
4.26554e-11
-4.50662e-11
1.76609e-11
-4.37603e-11
5.08689e-11
-5.40771e-11
2.04362e-11
-4.8366e-11
6.00377e-11
-6.43524e-11
2.33929e-11
-5.2607e-11
6.97879e-11
-7.56769e-11
2.59626e-11
-5.5727e-11
7.89962e-11
-8.69307e-11
-5.58231e-11
8.5985e-11
-9.82586e-11
1.53421e-12
-2.02276e-12
1.54423e-12
-1.59458e-12
2.92258e-12
-5.90768e-12
4.54407e-12
-4.69433e-12
4.21391e-12
-9.55851e-12
7.46331e-12
-7.71654e-12
5.45186e-12
-1.31333e-11
1.04825e-11
-1.08509e-11
6.6778e-12
-1.67608e-11
1.37621e-11
-1.42671e-11
7.93303e-12
-2.05462e-11
1.74514e-11
-1.81249e-11
9.26111e-12
-2.4575e-11
2.16938e-11
-2.25801e-11
1.07103e-11
-2.89165e-11
2.66305e-11
-2.779e-11
1.23355e-11
-3.36286e-11
3.24009e-11
-3.39149e-11
1.41996e-11
-3.87635e-11
3.91401e-11
-4.11191e-11
1.63751e-11
-4.43769e-11
4.69704e-11
-4.9567e-11
1.89442e-11
-5.05413e-11
5.59844e-11
-5.94157e-11
2.19885e-11
-5.73526e-11
6.61986e-11
-7.07838e-11
2.55311e-11
-6.48781e-11
7.7399e-11
-8.36332e-11
2.90998e-11
-7.26802e-11
8.85476e-11
-9.69381e-11
-8.03704e-11
9.78749e-11
-1.11242e-10
1.67187e-12
1.68202e-12
-1.73659e-12
-2.09805e-12
3.18107e-12
4.94656e-12
-5.10928e-12
-6.13152e-12
4.57715e-12
8.11419e-12
-8.38795e-12
-9.93312e-12
5.90399e-12
1.1375e-11
-1.17722e-11
-1.3673e-11
7.20267e-12
1.48964e-11
-1.54392e-11
-1.7492e-11
8.5136e-12
1.88325e-11
-1.95533e-11
-2.15086e-11
9.87877e-12
2.33294e-11
-2.42735e-11
-2.5824e-11
1.13444e-11
2.85293e-11
-2.97574e-11
-3.05268e-11
1.29638e-11
3.45714e-11
-3.61649e-11
-3.56996e-11
1.48004e-11
4.15909e-11
-4.36593e-11
-4.14262e-11
1.69344e-11
4.97153e-11
-5.24085e-11
-4.78036e-11
1.94724e-11
5.90566e-11
-6.25867e-11
-5.49607e-11
2.25559e-11
6.96851e-11
-7.43656e-11
-6.30764e-11
2.63226e-11
8.15176e-11
-8.78445e-11
-7.23583e-11
3.0338e-11
9.36247e-11
-1.02119e-10
-8.23754e-11
1.05205e-10
-1.19249e-10
-9.52028e-11
1.43001e-13
-3.85629e-13
1.32099e-13
2.73322e-13
-1.12339e-12
3.89238e-13
3.96429e-13
-1.80814e-12
6.41033e-13
5.17331e-13
-2.46417e-12
9.03949e-13
6.40857e-13
-3.108e-12
1.19269e-12
7.72034e-13
-3.74741e-12
1.52077e-12
9.16645e-13
-4.37942e-12
1.90071e-12
1.08209e-12
-4.98681e-12
2.34375e-12
1.27897e-12
-5.53189e-12
2.8589e-12
1.52436e-12
-5.94621e-12
3.45081e-12
1.84883e-12
-6.1133e-12
4.11589e-12
2.31107e-12
-5.83919e-12
4.83549e-12
3.02245e-12
-4.80304e-12
5.5627e-12
4.15669e-12
-2.51057e-12
6.19471e-12
5.72339e-12
1.40799e-12
6.53411e-12
6.57525e-12
6.37727e-12
4.25297e-13
-7.59852e-13
3.92853e-13
8.12753e-13
-2.21403e-12
1.15747e-12
1.17846e-12
-3.56517e-12
1.90593e-12
1.5371e-12
-4.86208e-12
2.68702e-12
1.90279e-12
-6.13879e-12
3.54426e-12
2.29013e-12
-7.41307e-12
4.51765e-12
2.71556e-12
-8.68318e-12
5.64423e-12
3.19947e-12
-9.92206e-12
6.95733e-12
3.76963e-12
-1.10677e-11
8.48351e-12
4.46791e-12
-1.20086e-11
1.02361e-11
5.36371e-12
-1.25644e-11
1.22026e-11
6.57898e-12
-1.24671e-11
1.43227e-11
8.32035e-12
-1.13714e-11
1.64459e-11
1.08497e-11
-8.98703e-12
1.82569e-11
1.4001e-11
-5.59542e-12
1.92254e-11
-2.90998e-12
1.8117e-11
6.96761e-13
-1.1115e-12
6.43565e-13
1.3311e-12
-3.23979e-12
1.89587e-12
1.92888e-12
-5.22065e-12
3.12086e-12
2.51355e-12
-7.12789e-12
4.39789e-12
3.10757e-12
-9.01472e-12
5.79765e-12
3.73383e-12
-1.09127e-11
7.38513e-12
4.41735e-12
-1.28282e-11
9.22071e-12
5.1875e-12
-1.47366e-11
1.13589e-11
6.08084e-12
-1.65717e-11
1.38437e-11
7.14563e-12
-1.82123e-11
1.66976e-11
8.4491e-12
-1.94674e-11
1.99013e-11
1.00871e-11
-2.0074e-11
2.33564e-11
1.21817e-11
-1.97478e-11
2.68195e-11
1.4801e-11
-1.83764e-11
2.98043e-11
1.75641e-11
-1.64341e-11
3.15752e-11
-1.53596e-11
3.1038e-11
9.50862e-13
-1.42918e-12
8.78194e-13
1.81563e-12
-4.16758e-12
2.58646e-12
2.62866e-12
-6.72185e-12
4.2557e-12
3.4209e-12
-9.19083e-12
5.99302e-12
4.22182e-12
-1.16486e-11
7.89368e-12
5.06101e-12
-1.41442e-11
1.00454e-11
5.96983e-12
-1.66997e-11
1.25299e-11
6.98299e-12
-1.9305e-11
1.54218e-11
8.13939e-12
-2.19103e-11
1.87827e-11
9.48143e-12
-2.44139e-11
2.26482e-11
1.1051e-11
-2.66505e-11
2.70011e-11
1.28776e-11
-2.8387e-11
3.17249e-11
1.49444e-11
-2.93532e-11
3.65218e-11
1.71121e-11
-2.93647e-11
4.07987e-11
1.89604e-11
-2.86125e-11
4.36555e-11
-2.81007e-11
4.38366e-11
1.18193e-12
-1.70162e-12
1.09142e-12
2.2553e-12
-4.96455e-12
3.21342e-12
3.26133e-12
-8.01563e-12
5.28385e-12
4.23697e-12
-1.09779e-11
7.43379e-12
5.21716e-12
-1.39468e-11
9.77962e-12
6.23656e-12
-1.69918e-11
1.24284e-11
7.3311e-12
-2.01558e-11
1.54804e-11
8.53896e-12
-2.34536e-11
1.90282e-11
9.89982e-12
-2.68667e-11
2.31509e-11
1.14503e-11
-3.03361e-11
2.79004e-11
1.32121e-11
-3.37517e-11
3.32732e-11
1.51659e-11
-3.69372e-11
3.91584e-11
1.71977e-11
-3.9628e-11
4.52437e-11
1.9023e-11
-4.14547e-11
5.08698e-11
2.0176e-11
-4.2059e-11
5.4953e-11
-4.16761e-11
5.5971e-11
1.38547e-12
-1.91811e-12
1.27899e-12
2.64142e-12
-5.59919e-12
3.76406e-12
3.81407e-12
-9.05043e-12
6.18399e-12
4.94467e-12
-1.24169e-11
8.6893e-12
6.07197e-12
-1.58141e-11
1.14131e-11
7.23409e-12
-1.93324e-11
1.44777e-11
8.47013e-12
-2.30378e-11
1.79976e-11
9.82122e-12
-2.69741e-11
2.20795e-11
1.13297e-11
-3.11623e-11
2.68177e-11
1.30349e-11
-3.55995e-11
3.22812e-11
1.49623e-11
-4.02559e-11
3.84876e-11
1.70991e-11
-4.50631e-11
4.53521e-11
1.93445e-11
-4.98732e-11
5.25884e-11
2.14256e-11
-5.43435e-11
5.95298e-11
2.2829e-11
-5.77471e-11
6.49442e-11
-5.87584e-11
6.70397e-11
1.55838e-12
-2.0689e-12
1.43787e-12
2.96806e-12
-6.04287e-12
4.22946e-12
4.27831e-12
-9.77905e-12
6.94126e-12
5.5328e-12
-1.34405e-11
9.7381e-12
6.7723e-12
-1.716e-11
1.27649e-11
8.03661e-12
-2.10458e-11
1.61539e-11
9.36643e-12
-2.51854e-11
2.00286e-11
1.08049e-11
-2.96491e-11
2.45042e-11
1.23984e-11
-3.44945e-11
2.96841e-11
1.41952e-11
-3.97711e-11
3.56494e-11
1.62431e-11
-4.55286e-11
4.24364e-11
1.85816e-11
-5.18261e-11
4.99925e-11
2.12219e-11
-5.87312e-11
5.80808e-11
2.40846e-11
-6.62501e-11
6.60822e-11
2.67403e-11
-7.3907e-11
7.26877e-11
-8.08054e-11
7.58287e-11
1.69902e-12
1.56644e-12
-2.1459e-12
3.23234e-12
4.60493e-12
-6.2718e-12
4.65018e-12
7.54817e-12
-1.01621e-11
5.99672e-12
1.05698e-11
-1.39923e-11
7.31281e-12
1.38211e-11
-1.79073e-11
8.63792e-12
1.74389e-11
-2.20285e-11
1.00121e-11
2.15493e-11
-2.6459e-11
1.14781e-11
2.62684e-11
-3.12878e-11
1.30832e-11
3.16998e-11
-3.65954e-11
1.48812e-11
3.79251e-11
-4.24606e-11
1.69358e-11
4.49853e-11
-4.89701e-11
1.93249e-11
5.28424e-11
-5.62319e-11
2.21416e-11
6.12955e-11
-6.43844e-11
2.54477e-11
6.97964e-11
-7.35522e-11
2.88438e-11
7.7053e-11
-8.32459e-11
8.07627e-11
-9.45722e-11
1.44311e-13
-3.93277e-13
1.17591e-13
2.75634e-13
-1.14581e-12
3.4635e-13
3.99264e-13
-1.84473e-12
5.6994e-13
5.19943e-13
-2.51514e-12
8.02683e-13
6.42059e-13
-3.17442e-12
1.05716e-12
7.69901e-13
-3.83144e-12
1.34462e-12
9.07974e-13
-4.48495e-12
1.67492e-12
1.06146e-12
-5.12084e-12
2.05595e-12
1.23702e-12
-5.70775e-12
2.49214e-12
1.4445e-12
-6.19047e-12
2.98147e-12
1.70068e-12
-6.4811e-12
3.51005e-12
2.03638e-12
-6.44791e-12
4.04274e-12
2.50568e-12
-5.90505e-12
4.50764e-12
3.17602e-12
-4.62725e-12
4.77662e-12
3.98735e-12
-2.55638e-12
4.68769e-12
1.13471e-13
4.26462e-12
4.29242e-13
-7.74864e-13
3.49712e-13
8.19735e-13
-2.25803e-12
1.02997e-12
1.18709e-12
-3.63693e-12
1.69462e-12
1.54524e-12
-4.96197e-12
2.38611e-12
1.90705e-12
-6.26879e-12
3.14171e-12
2.28499e-12
-7.57708e-12
3.9947e-12
2.69188e-12
-8.88799e-12
4.97435e-12
3.14187e-12
-1.01797e-11
6.10417e-12
3.65179e-12
-1.14003e-11
7.39758e-12
4.2439e-12
-1.24591e-11
8.84916e-12
4.95145e-12
-1.32186e-11
1.0419e-11
5.82768e-12
-1.34968e-11
1.20057e-11
6.95021e-12
-1.31087e-11
1.34051e-11
8.37357e-12
-1.20055e-11
1.42668e-11
9.86898e-12
-1.05694e-11
1.41901e-11
-9.98701e-12
1.28705e-11
7.03397e-13
-1.13335e-12
5.72925e-13
1.34291e-12
-3.30382e-12
1.68712e-12
1.94371e-12
-5.32501e-12
2.77504e-12
2.52813e-12
-7.27298e-12
3.90572e-12
3.11671e-12
-9.20313e-12
5.13974e-12
3.72916e-12
-1.11493e-11
6.53128e-12
4.38509e-12
-1.31213e-11
8.12819e-12
5.10463e-12
-1.50999e-11
9.96941e-12
5.90851e-12
-1.70298e-11
1.20783e-11
6.81745e-12
-1.88109e-11
1.44492e-11
7.85034e-12
-2.02946e-11
1.70239e-11
9.018e-12
-2.1299e-11
1.96522e-11
1.03009e-11
-2.16797e-11
2.20372e-11
1.15825e-11
-2.15076e-11
2.36942e-11
1.25299e-11
-2.12751e-11
2.41165e-11
-2.19183e-11
2.32515e-11
9.60279e-13
-1.45712e-12
7.81869e-13
1.83254e-12
-4.24944e-12
2.3019e-12
2.65031e-12
-6.85516e-12
3.78454e-12
3.44323e-12
-9.37594e-12
5.32303e-12
4.23847e-12
-1.18882e-11
6.99907e-12
5.06176e-12
-1.44436e-11
8.88589e-12
5.93802e-12
-1.7067e-11
1.10486e-11
6.8911e-12
-1.97527e-11
1.35412e-11
7.94154e-12
-2.24589e-11
1.63985e-11
9.10075e-12
-2.50996e-11
1.96199e-11
1.03582e-11
-2.75406e-11
2.31409e-11
1.16558e-11
-2.96078e-11
2.67876e-11
1.2842e-11
-3.11335e-11
3.0216e-11
1.36224e-11
-3.20742e-11
3.28746e-11
1.36702e-11
-3.26597e-11
3.41767e-11
-3.3554e-11
3.40424e-11
1.19421e-12
-1.73472e-12
9.71827e-13
2.27755e-12
-5.06146e-12
2.86025e-12
3.29044e-12
-8.17335e-12
4.69954e-12
4.26845e-12
-1.11966e-11
6.60386e-12
5.24413e-12
-1.42292e-11
8.6731e-12
6.24809e-12
-1.73427e-11
1.09969e-11
7.30953e-12
-2.0582e-11
1.36553e-11
8.45546e-12
-2.39641e-11
1.67162e-11
9.70693e-12
-2.74737e-11
2.02263e-11
1.10696e-11
-3.10584e-11
2.41945e-11
1.25141e-11
-3.46213e-11
2.85607e-11
1.39369e-11
-3.80118e-11
3.31467e-11
1.50975e-11
-4.10156e-11
3.75895e-11
1.55694e-11
-4.3349e-11
4.12909e-11
1.49834e-11
-4.47281e-11
4.35534e-11
-4.52605e-11
4.41807e-11
1.40064e-12
-1.95523e-12
1.13901e-12
2.66916e-12
-5.70786e-12
3.3509e-12
3.85111e-12
-9.22722e-12
5.5011e-12
4.98645e-12
-1.26617e-11
7.72076e-12
6.1117e-12
-1.61295e-11
1.01243e-11
7.26111e-12
-1.97224e-11
1.28142e-11
8.46748e-12
-2.35075e-11
1.58823e-11
9.76149e-12
-2.75278e-11
1.94074e-11
1.11684e-11
-3.18027e-11
2.3447e-11
1.26992e-11
-3.63258e-11
2.802e-11
1.43328e-11
-4.10606e-11
3.30762e-11
1.59795e-11
-4.59277e-11
3.84446e-11
1.7419e-11
-5.07624e-11
4.37579e-11
1.82361e-11
-5.52085e-11
4.83787e-11
1.79898e-11
-5.85668e-11
5.14862e-11
-5.95334e-11
5.27753e-11
1.57638e-12
-2.10877e-12
1.28072e-12
3.00127e-12
-6.15961e-12
3.76588e-12
4.32343e-12
-9.9689e-12
6.17596e-12
5.58551e-12
-1.37032e-11
8.65466e-12
6.82632e-12
-1.74979e-11
1.13267e-11
8.08235e-12
-2.14623e-11
1.4303e-11
9.38879e-12
-2.56835e-11
1.76831e-11
1.07799e-11
-3.02294e-11
2.15522e-11
1.22873e-11
-3.51512e-11
2.59741e-11
1.39356e-11
-4.04869e-11
3.09747e-11
1.57329e-11
-4.62643e-11
3.6512e-11
1.76512e-11
-5.25013e-11
4.24234e-11
1.95916e-11
-5.919e-11
4.8341e-11
2.13283e-11
-6.6211e-11
5.35847e-11
2.24626e-11
-7.29878e-11
5.71904e-11
-7.84993e-11
5.86868e-11
1.71968e-12
1.39549e-12
-2.18713e-12
3.27073e-12
4.10097e-12
-6.39254e-12
4.70312e-12
6.71738e-12
-1.03585e-11
6.06029e-12
9.3962e-12
-1.42641e-11
7.38153e-12
1.22678e-11
-1.82566e-11
8.70365e-12
1.54473e-11
-2.24583e-11
1.00623e-11
1.90362e-11
-2.69711e-11
1.1493e-11
2.31208e-11
-3.18798e-11
1.30315e-11
2.77649e-11
-3.72566e-11
1.47129e-11
3.29942e-11
-4.31639e-11
1.65691e-11
3.87675e-11
-4.96595e-11
1.86232e-11
4.49254e-11
-5.6799e-11
2.08745e-11
5.1103e-11
-6.46275e-11
2.325e-11
5.66084e-11
-7.31195e-11
2.53635e-11
6.03929e-11
-8.16835e-11
6.14232e-11
-9.10727e-11
1.45064e-13
-3.99734e-13
9.90409e-14
2.76838e-13
-1.16475e-12
2.91614e-13
4.00387e-13
-1.87565e-12
4.79519e-13
5.20107e-13
-2.55823e-12
6.74548e-13
6.39848e-13
-3.23064e-12
8.86886e-13
7.63024e-13
-3.90273e-12
1.12534e-12
8.92726e-13
-4.57492e-12
1.39719e-12
1.03178e-12
-5.23618e-12
1.70744e-12
1.18283e-12
-5.86114e-12
2.05727e-12
1.34885e-12
-6.40647e-12
2.44119e-12
1.53448e-12
-6.80744e-12
2.84241e-12
1.74902e-12
-6.9764e-12
3.22631e-12
2.00992e-12
-6.80485e-12
3.53326e-12
2.33622e-12
-6.17513e-12
3.67955e-12
2.68529e-12
-5.04865e-12
3.59908e-12
-3.22429e-12
3.49756e-12
4.31547e-13
-7.87532e-13
2.94558e-13
8.23461e-13
-2.29517e-12
8.67226e-13
1.19069e-12
-3.69749e-12
1.42583e-12
1.54617e-12
-5.04625e-12
2.00531e-12
1.90124e-12
-6.37842e-12
2.63583e-12
2.26587e-12
-7.7154e-12
3.34351e-12
2.64889e-12
-9.06111e-12
4.14998e-12
3.05783e-12
-1.03986e-11
5.07029e-12
3.49848e-12
-1.16856e-11
6.10836e-12
3.97462e-12
-1.28496e-11
7.24888e-12
4.48841e-12
-1.37868e-11
8.44421e-12
5.04169e-12
-1.43743e-11
9.59625e-12
5.63488e-12
-1.45113e-11
1.05382e-11
6.24696e-12
-1.42144e-11
1.10427e-11
6.75665e-12
-1.37408e-11
1.09475e-11
-1.37021e-11
1.02979e-11
7.0739e-13
-1.15177e-12
4.82602e-13
1.34949e-12
-3.35777e-12
1.42066e-12
1.95043e-12
-5.41287e-12
2.33507e-12
2.53106e-12
-7.39493e-12
3.28271e-12
3.1096e-12
-9.36105e-12
4.31263e-12
3.702e-12
-1.13471e-11
5.46741e-12
4.32191e-12
-1.33658e-11
6.78255e-12
4.97976e-12
-1.54028e-11
8.28333e-12
5.68051e-12
-1.74124e-11
9.97788e-12
6.41957e-12
-1.93122e-11
1.1845e-11
7.17587e-12
-2.09854e-11
1.3815e-11
7.90072e-12
-2.23019e-11
1.57445e-11
8.50167e-12
-2.31826e-11
1.73958e-11
8.83155e-12
-2.37255e-11
1.84607e-11
8.76456e-12
-2.42729e-11
1.87418e-11
-2.5321e-11
1.85025e-11
9.66154e-13
-1.48063e-12
6.58673e-13
1.84242e-12
-4.31824e-12
1.93855e-12
2.66108e-12
-6.96701e-12
3.1849e-12
3.44995e-12
-9.5307e-12
4.47454e-12
4.23336e-12
-1.20876e-11
5.8737e-12
5.03255e-12
-1.46911e-11
7.44003e-12
5.8653e-12
-1.73681e-11
9.22205e-12
6.74406e-12
-2.01166e-11
1.12553e-11
7.67148e-12
-2.29005e-11
1.35542e-11
8.63126e-12
-2.56456e-11
1.60969e-11
9.57175e-12
-2.8238e-11
1.8803e-11
1.03791e-11
-3.0536e-11
2.15057e-11
1.08455e-11
-3.24114e-11
2.39329e-11
1.06839e-11
-3.38333e-11
2.57434e-11
9.80581e-12
-3.49297e-11
2.6709e-11
-3.60652e-11
2.708e-11
1.20216e-12
-1.76248e-12
8.18809e-13
2.29124e-12
-5.14266e-12
2.40909e-12
3.30628e-12
-8.30512e-12
3.95551e-12
4.28094e-12
-1.13784e-11
5.55214e-12
5.24472e-12
-1.44621e-11
7.28004e-12
6.22347e-12
-1.7629e-11
9.20989e-12
7.23887e-12
-2.09248e-11
1.14016e-11
8.30623e-12
-2.4367e-11
1.39005e-11
9.42859e-12
-2.7941e-11
1.6728e-11
1.05847e-11
-3.15961e-11
1.98654e-11
1.17069e-11
-3.52384e-11
2.32301e-11
1.26428e-11
-3.87226e-11
2.66451e-11
1.31094e-11
-4.18391e-11
2.98194e-11
1.27046e-11
-4.4299e-11
3.23833e-11
1.12938e-11
-4.57802e-11
3.40505e-11
-4.6236e-11
3.50136e-11
1.41084e-12
-1.98627e-12
9.59815e-13
2.68707e-12
-5.79861e-12
2.8228e-12
3.87294e-12
-9.37426e-12
4.63097e-12
5.00654e-12
-1.2864e-11
6.49246e-12
6.12141e-12
-1.63875e-11
8.50021e-12
7.2472e-12
-2.00368e-11
1.07352e-11
8.40949e-12
-2.38782e-11
1.32663e-11
9.62796e-12
-2.79521e-11
1.61466e-11
1.09112e-11
-3.22727e-11
1.94038e-11
1.2246e-11
-3.68244e-11
2.30234e-11
1.35771e-11
-4.15551e-11
2.69232e-11
1.47724e-11
-4.63595e-11
3.09196e-11
1.55752e-11
-5.10323e-11
3.47016e-11
1.55955e-11
-5.51676e-11
3.78554e-11
1.46075e-11
-5.80588e-11
4.00182e-11
-5.84261e-11
4.1363e-11
1.58889e-12
-2.14201e-12
1.07941e-12
3.02364e-12
-6.25674e-12
3.17293e-12
4.35186e-12
-1.01262e-11
5.20009e-12
5.61451e-12
-1.39191e-11
7.27942e-12
6.84772e-12
-1.77721e-11
9.51235e-12
8.08381e-12
-2.17943e-11
1.19868e-11
9.35157e-12
-2.60702e-11
1.47774e-11
1.06755e-11
-3.06625e-11
1.79418e-11
1.20729e-11
-3.56123e-11
2.1511e-11
1.35475e-11
-4.09397e-11
2.5473e-11
1.5078e-11
-4.66422e-11
2.97442e-11
1.65989e-11
-5.26867e-11
3.41325e-11
1.79761e-11
-5.89837e-11
3.82973e-11
1.89967e-11
-6.53088e-11
4.17522e-11
1.94484e-11
-7.10615e-11
4.40184e-11
-7.52786e-11
4.52437e-11
1.73448e-12
1.17634e-12
-2.22142e-12
3.2976e-12
3.45589e-12
-6.49271e-12
4.73838e-12
5.65711e-12
-1.05206e-11
6.09885e-12
7.90508e-12
-1.44864e-11
7.41606e-12
1.0306e-11
-1.85383e-11
8.72326e-12
1.29511e-11
-2.27979e-11
1.00507e-11
1.5917e-11
-2.73634e-11
1.14259e-11
1.92618e-11
-3.2313e-11
1.28727e-11
2.30161e-11
-3.77058e-11
1.4409e-11
2.7166e-11
-4.35822e-11
1.60427e-11
3.16247e-11
-4.99634e-11
1.77642e-11
3.61914e-11
-5.68457e-11
1.95387e-11
4.05021e-11
-6.41854e-11
2.12915e-11
4.40095e-11
-7.18484e-11
2.27896e-11
4.61272e-11
-7.925e-11
4.66261e-11
-8.70967e-11
1.45396e-13
-4.04918e-13
7.71874e-14
2.7723e-13
-1.17995e-12
2.27199e-13
4.00324e-13
-1.90046e-12
3.73366e-13
5.18718e-13
-2.59282e-12
5.247e-13
6.35715e-13
-3.27574e-12
6.88849e-13
7.53906e-13
-3.95983e-12
8.72236e-13
8.75113e-13
-4.64681e-12
1.07985e-12
1.00019e-12
-5.32799e-12
1.31458e-12
1.12876e-12
-5.98225e-12
1.57595e-12
1.25918e-12
-6.57384e-12
1.85799e-12
1.38931e-12
-7.05099e-12
2.14633e-12
1.51918e-12
-7.3458e-12
2.41529e-12
1.65617e-12
-7.37366e-12
2.62729e-12
1.8182e-12
-7.02738e-12
2.7413e-12
2.00262e-12
-6.21521e-12
2.74023e-12
-4.56276e-12
2.83003e-12
4.32612e-13
-7.97707e-13
2.29571e-13
8.24797e-13
-2.32499e-12
6.75694e-13
1.19079e-12
-3.74609e-12
1.11024e-12
1.54249e-12
-5.11379e-12
1.55992e-12
1.8897e-12
-6.46608e-12
2.04738e-12
2.24004e-12
-7.82565e-12
2.59169e-12
2.59876e-12
-9.19847e-12
3.20769e-12
2.96789e-12
-1.05712e-11
3.90419e-12
3.34495e-12
-1.19081e-11
4.68013e-12
3.72158e-12
-1.31479e-11
5.51868e-12
4.08323e-12
-1.42047e-11
6.37904e-12
4.41193e-12
-1.49792e-11
7.1883e-12
4.69491e-12
-1.53874e-11
7.84024e-12
4.9365e-12
-1.54157e-11
8.21925e-12
5.14114e-12
-1.51884e-11
8.27859e-12
-1.50811e-11
8.04876e-12
7.09371e-13
-1.16656e-12
3.76154e-13
1.35218e-12
-3.40106e-12
1.10698e-12
1.95144e-12
-5.48325e-12
1.8184e-12
2.52643e-12
-7.49234e-12
2.55384e-12
3.09304e-12
-9.48665e-12
3.3502e-12
3.66369e-12
-1.15035e-11
4.23855e-12
4.24671e-12
-1.35575e-11
5.24341e-12
4.84452e-12
-1.56378e-11
6.37975e-12
5.45045e-12
-1.77044e-11
7.64736e-12
6.04387e-12
-1.96849e-11
9.02191e-12
6.58402e-12
-2.14773e-11
1.04431e-11
7.0049e-12
-2.29678e-11
1.18041e-11
7.21927e-12
-2.40798e-11
1.29523e-11
7.15482e-12
-2.48613e-11
1.37291e-11
6.86897e-12
-2.55254e-11
1.40753e-11
-2.64213e-11
1.4161e-11
9.69302e-13
-1.49947e-12
5.13441e-13
1.84704e-12
-4.37335e-12
1.51069e-12
2.66408e-12
-7.05636e-12
2.48048e-12
3.44631e-12
-9.65377e-12
3.48149e-12
4.21523e-12
-1.22451e-11
4.56355e-12
4.98783e-12
-1.48847e-11
5.76884e-12
5.77551e-12
-1.76007e-11
7.13097e-12
6.58147e-12
-2.03926e-11
8.67138e-12
7.39537e-12
-2.32271e-11
1.03924e-11
8.18427e-12
-2.60341e-11
1.22666e-11
8.87885e-12
-2.87054e-11
1.42226e-11
9.35642e-12
-3.11031e-11
1.61345e-11
9.43548e-12
-3.30887e-11
1.78271e-11
8.93744e-12
-3.45852e-11
1.91259e-11
7.96655e-12
-3.56387e-11
1.99575e-11
-3.65465e-11
2.04694e-11
1.20674e-12
-1.78468e-12
6.38352e-13
2.29839e-12
-5.20751e-12
1.87764e-12
3.31245e-12
-8.40999e-12
3.08109e-12
4.28047e-12
-1.15221e-11
4.3206e-12
5.22893e-12
-1.46446e-11
5.65722e-12
6.17912e-12
-1.78505e-11
7.14275e-12
7.14606e-12
-2.11851e-11
8.81883e-12
8.13554e-12
-2.46646e-11
1.07131e-11
9.1379e-12
-2.82725e-11
1.28313e-11
1.01167e-11
-3.19538e-11
1.51457e-11
1.09902e-11
-3.56081e-11
1.75794e-11
1.16058e-11
-3.90771e-11
1.99946e-11
1.17204e-11
-4.21273e-11
2.22002e-11
1.1056e-11
-4.44327e-11
2.40045e-11
9.66073e-12
-4.56498e-11
2.53022e-11
-4.57519e-11
2.62058e-11
1.41707e-12
-2.01103e-12
7.48391e-13
2.6973e-12
-5.87086e-12
2.20041e-12
3.88337e-12
-9.49083e-12
3.6078e-12
5.01132e-12
-1.30231e-11
5.05325e-12
6.11166e-12
-1.6588e-11
6.60682e-12
7.20961e-12
-2.02772e-11
8.32793e-12
8.32433e-12
-2.41546e-11
1.02646e-11
9.46654e-12
-2.82567e-11
1.24493e-11
1.06333e-11
-3.25899e-11
1.48911e-11
1.17982e-11
-3.71263e-11
1.75621e-11
1.28959e-11
-4.17937e-11
2.03809e-11
1.3798e-11
-4.64556e-11
2.31976e-11
1.4293e-11
-5.08651e-11
2.5798e-11
1.41134e-11
-5.45783e-11
2.79547e-11
1.32009e-11
-5.69216e-11
2.95227e-11
-5.67716e-11
3.06278e-11
1.59694e-12
-2.16846e-12
8.4177e-13
3.03735e-12
-6.33385e-12
2.47373e-12
4.36743e-12
-1.02503e-11
4.05187e-12
5.62619e-12
-1.40881e-11
5.66689e-12
6.84702e-12
-1.79839e-11
7.39532e-12
8.05814e-12
-2.20454e-11
9.3018e-12
9.28255e-12
-2.63539e-11
1.14384e-11
1.05368e-11
-3.0965e-11
1.38405e-11
1.18283e-11
-3.59082e-11
1.65182e-11
1.31497e-11
-4.11843e-11
1.94429e-11
1.44716e-11
-4.67604e-11
2.25272e-11
1.57334e-11
-5.25583e-11
2.56053e-11
1.68412e-11
-5.84306e-11
2.84275e-11
1.76905e-11
-6.4106e-11
3.07016e-11
1.82182e-11
-6.9045e-11
3.22158e-11
-7.25044e-11
3.31397e-11
1.7444e-12
9.17495e-13
-2.24862e-12
3.31499e-12
2.69474e-12
-6.572e-12
4.75957e-12
4.40875e-12
-1.06482e-11
6.11847e-12
6.15527e-12
-1.46597e-11
7.42634e-12
8.01458e-12
-1.87545e-11
8.71291e-12
1.00539e-11
-2.30525e-11
1.00034e-11
1.23265e-11
-2.76475e-11
1.13188e-11
1.48683e-11
-3.26092e-11
1.26743e-11
1.76883e-11
-3.79827e-11
1.40791e-11
2.07552e-11
-4.3786e-11
1.55339e-11
2.39756e-11
-5.00061e-11
1.70322e-11
2.71696e-11
-5.65915e-11
1.85692e-11
3.00555e-11
-6.34407e-11
2.01537e-11
3.22775e-11
-7.03804e-11
2.16765e-11
3.35466e-11
-7.69122e-11
3.38442e-11
-8.39214e-11
1.45459e-13
-4.08787e-13
5.28297e-14
2.77142e-13
-1.1913e-12
1.55469e-13
3.99648e-13
-1.91899e-12
2.55372e-13
5.16703e-13
-2.61865e-12
3.58616e-13
6.31147e-13
-3.30937e-12
4.70285e-13
7.44906e-13
-4.00224e-12
5.94537e-13
8.58847e-13
-4.6998e-12
7.34448e-13
9.72486e-13
-5.39477e-12
8.91539e-13
1.08365e-12
-6.06835e-12
1.0649e-12
1.1885e-12
-6.68835e-12
1.24994e-12
1.28283e-12
-7.20773e-12
1.43698e-12
1.36586e-12
-7.56288e-12
1.61041e-12
1.44834e-12
-7.66794e-12
1.75013e-12
1.56052e-12
-7.39929e-12
1.83822e-12
1.72203e-12
-6.62787e-12
1.87014e-12
-4.94142e-12
1.99198e-12
4.32881e-13
-8.05318e-13
1.57133e-13
8.24701e-13
-2.3473e-12
4.62391e-13
1.18904e-12
-3.78244e-12
7.59424e-13
1.53691e-12
-5.16423e-12
1.06622e-12
1.87677e-12
-6.53132e-12
1.39786e-12
2.21437e-12
-7.90722e-12
1.76668e-12
2.55227e-12
-9.29913e-12
2.18187e-12
2.88877e-12
-1.06958e-11
2.64806e-12
3.21655e-12
-1.20648e-11
3.16286e-12
3.52176e-12
-1.33495e-11
3.71322e-12
3.78548e-12
-1.44697e-11
4.2715e-12
3.99112e-12
-1.53277e-11
4.79306e-12
4.14252e-12
-1.58267e-11
5.21985e-12
4.28918e-12
-1.59081e-11
5.49759e-12
4.4971e-12
-1.56262e-11
5.60831e-12
-1.53088e-11
5.54002e-12
7.10045e-13
-1.17763e-12
2.57484e-13
1.3525e-12
-3.43347e-12
7.57598e-13
1.94937e-12
-5.53586e-12
1.24393e-12
2.51852e-12
-7.56493e-12
1.74575e-12
3.07386e-12
-9.57975e-12
2.28759e-12
3.62501e-12
-1.16184e-11
2.88963e-12
4.17629e-12
-1.36966e-11
3.56705e-12
4.72477e-12
-1.58052e-11
4.32788e-12
5.25715e-12
-1.79063e-11
5.16921e-12
5.74615e-12
-1.99308e-11
6.07182e-12
6.14807e-12
-2.17787e-11
6.9945e-12
6.40604e-12
-2.33319e-11
7.87102e-12
6.46974e-12
-2.44911e-11
8.61666e-12
6.34663e-12
-2.52498e-11
9.15354e-12
6.17213e-12
-2.57598e-11
9.45357e-12
-2.63692e-11
9.58425e-12
9.70636e-13
-1.51358e-12
3.51494e-13
1.84834e-12
-4.41455e-12
1.034e-12
2.66268e-12
-7.123e-12
1.69704e-12
3.43783e-12
-9.74514e-12
2.38014e-12
4.19288e-12
-1.23611e-11
3.11647e-12
4.94141e-12
-1.50258e-11
3.93347e-12
5.69011e-12
-1.77675e-11
4.85199e-12
6.43599e-12
-2.05856e-11
5.88373e-12
7.16165e-12
-2.34468e-11
7.02647e-12
7.82826e-12
-2.62796e-11
8.25764e-12
8.36716e-12
-2.89721e-11
9.52766e-12
8.67425e-12
-3.13752e-11
1.07573e-11
8.62275e-12
-3.33242e-11
1.1848e-11
8.1353e-12
-3.46967e-11
1.27129e-11
7.38699e-12
-3.55085e-11
1.33129e-11
-3.60931e-11
1.3695e-11
1.209e-12
-1.80129e-12
4.37057e-13
2.30125e-12
-5.25592e-12
1.28531e-12
3.31284e-12
-8.48798e-12
2.10821e-12
4.27343e-12
-1.16284e-11
2.95419e-12
5.2069e-12
-1.47782e-11
3.86391e-12
6.13091e-12
-1.80103e-11
4.87111e-12
7.05552e-12
-2.13689e-11
6.00171e-12
7.98032e-12
-2.48679e-11
7.2709e-12
8.88902e-12
-2.84868e-11
8.67785e-12
9.74091e-12
-3.21641e-11
1.01984e-11
1.04588e-11
-3.57878e-11
1.17774e-11
1.09157e-11
-3.91817e-11
1.33262e-11
1.09343e-11
-4.2086e-11
1.47347e-11
1.03465e-11
-4.41473e-11
1.59045e-11
9.25931e-12
-4.50334e-11
1.67776e-11
-4.4793e-11
1.73815e-11
1.42048e-12
-2.02951e-12
5.12463e-13
2.70228e-12
-5.92465e-12
1.50645e-12
3.88662e-12
-9.57723e-12
2.46893e-12
5.00766e-12
-1.31402e-11
3.45563e-12
6.09333e-12
-1.67339e-11
4.51325e-12
7.16528e-12
-2.04488e-11
5.68054e-12
8.23789e-12
-2.43467e-11
6.98742e-12
9.31611e-12
-2.84592e-11
8.45186e-12
1.03913e-11
-3.27849e-11
1.00742e-11
1.14343e-11
-3.72833e-11
1.18287e-11
1.23866e-11
-4.18638e-11
1.36551e-11
1.31487e-11
-4.63646e-11
1.54536e-11
1.35769e-11
-5.05118e-11
1.70953e-11
1.35125e-11
-5.3852e-11
1.84582e-11
1.29468e-11
-5.57655e-11
1.94652e-11
-5.52768e-11
2.01634e-11
1.60167e-12
-2.18815e-12
5.76476e-13
3.04488e-12
-6.39111e-12
1.69378e-12
4.3744e-12
-1.03421e-11
2.77319e-12
5.62752e-12
-1.42119e-11
3.87586e-12
6.83519e-12
-1.81369e-11
5.05285e-12
8.02235e-12
-2.22231e-11
6.34638e-12
9.20768e-12
-2.6548e-11
7.7889e-12
1.04026e-11
-3.11607e-11
9.39991e-12
1.16097e-11
-3.60797e-11
1.11799e-11
1.282e-11
-4.1289e-11
1.31011e-11
1.40115e-11
-4.67315e-11
1.50968e-11
1.51507e-11
-5.22987e-11
1.70529e-11
1.62064e-11
-5.78148e-11
1.88128e-11
1.71734e-11
-6.30086e-11
2.02106e-11
1.80339e-11
-6.7425e-11
2.11353e-11
-7.04987e-11
2.16872e-11
1.75055e-12
6.28406e-13
-2.26883e-12
3.32532e-12
1.84533e-12
-6.63075e-12
4.77083e-12
3.01785e-12
-1.07422e-11
6.12588e-12
4.21058e-12
-1.47861e-11
7.42298e-12
5.47715e-12
-1.89099e-11
8.68895e-12
6.86147e-12
-2.32313e-11
9.94533e-12
8.39689e-12
-2.78395e-11
1.12085e-11
1.0103e-11
-3.27967e-11
1.24901e-11
1.19791e-11
-3.81351e-11
1.37976e-11
1.39952e-11
-4.38542e-11
1.51382e-11
1.60785e-11
-4.99154e-11