/*--------------------------------*- C++ -*----------------------------------*\
| =========                 |                                                 |
| \\      /  F ield         | OpenFOAM: The Open Source CFD Toolbox           |
|  \\    /   O peration     | Version:  v1912                                 |
|   \\  /    A nd           | Website:  www.openfoam.com                      |
|    \\/     M anipulation  |                                                 |
\*---------------------------------------------------------------------------*/
FoamFile
{
    version     2.0;
    format      ascii;
    class       pointVectorField;
    location    "0.83/fluid";
    object      pointMotionU;
}
// * * * * * * * * * * * * * * * * * * * * * * * * * * * * * * * * * * * * * //

dimensions      [0 1 -1 0 0 0 0];


internalField   nonuniform List<vector> 
16859
(
(0 0 0)
(0 0 0)
(0 0 0)
(0 0 0)
(0 0 0)
(0 0 0)
(0 0 0)
(0 0 0)
(0 0 0)
(0 0 0)
(0 0 0)
(0 0 0)
(0 0 0)
(0 0 0)
(0 0 0)
(0 0 0)
(1.51739e-08 2.62519e-08 1.68565e-08)
(0 0 0)
(4.47656e-10 -1.05902e-09 8.34149e-10)
(8.56226e-10 -2.02558e-09 1.626e-09)
(1.24335e-09 -2.93727e-09 2.43289e-09)
(1.62547e-09 -3.82136e-09 3.30581e-09)
(2.01899e-09 -4.69366e-09 4.29243e-09)
(2.44183e-09 -5.55635e-09 5.4392e-09)
(2.91592e-09 -6.39374e-09 6.79279e-09)
(3.47083e-09 -7.16442e-09 8.40082e-09)
(4.15057e-09 -7.78711e-09 1.03124e-08)
(5.02711e-09 -8.11561e-09 1.25799e-08)
(6.22833e-09 -7.89262e-09 1.52681e-08)
(7.99773e-09 -6.65838e-09 1.84859e-08)
(1.08039e-08 -3.5726e-09 2.24735e-08)
(1.54587e-08 2.84987e-09 2.77709e-08)
(2.22069e-08 1.35218e-08 3.46176e-08)
(3.19109e-08 3.44226e-08 4.23068e-08)
(0 0 0)
(8.83592e-10 -2.08692e-09 1.64653e-09)
(1.68955e-09 -3.99298e-09 3.20897e-09)
(2.45205e-09 -5.79346e-09 4.79985e-09)
(3.20273e-09 -7.54359e-09 6.51901e-09)
(3.9731e-09 -9.27734e-09 8.45982e-09)
(4.7972e-09 -1.10037e-08 1.07132e-08)
(5.71547e-09 -1.26996e-08 1.337e-08)
(6.78037e-09 -1.42972e-08 1.65221e-08)
(8.06561e-09 -1.56621e-08 2.02615e-08)
(9.68229e-09 -1.65578e-08 2.46782e-08)
(1.18078e-08 -1.65929e-08 2.98598e-08)
(1.47354e-08 -1.51492e-08 3.59008e-08)
(1.89172e-08 -1.13394e-08 4.29191e-08)
(2.48523e-08 -4.21324e-09 5.10186e-08)
(3.18067e-08 5.363e-09 5.93124e-08)
(4.32146e-08 1.92864e-08 7.19098e-08)
(0 0 0)
(1.29687e-09 -3.053e-09 2.41709e-09)
(2.47859e-09 -5.84457e-09 4.70928e-09)
(3.59397e-09 -8.48772e-09 7.04034e-09)
(4.68789e-09 -1.10672e-08 9.55525e-09)
(5.80476e-09 -1.36389e-08 1.23895e-08)
(6.99172e-09 -1.62263e-08 1.5675e-08)
(8.30293e-09 -1.88128e-08 1.95433e-08)
(9.80516e-09 -2.13278e-08 2.4127e-08)
(1.15852e-08 -2.36249e-08 2.95566e-08)
(1.376e-08 -2.54478e-08 3.59525e-08)
(1.649e-08 -2.63883e-08 4.341e-08)
(1.99933e-08 -2.58539e-08 5.19762e-08)
(2.45245e-08 -2.31209e-08 6.16072e-08)
(3.02143e-08 -1.76766e-08 7.20655e-08)
(3.61312e-08 -1.06788e-08 8.19821e-08)
(4.4982e-08 -1.0744e-09 9.5128e-08)
(0 0 0)
(1.67757e-09 -3.92588e-09 3.12738e-09)
(3.20401e-09 -7.52068e-09 6.09045e-09)
(4.64019e-09 -1.09347e-08 9.09849e-09)
(6.04177e-09 -1.42833e-08 1.23363e-08)
(7.46325e-09 -1.76482e-08 1.59763e-08)
(8.96148e-09 -2.10754e-08 2.01862e-08)
(1.05998e-08 -2.45689e-08 2.51335e-08)
(1.24524e-08 -2.80804e-08 3.09873e-08)
(1.46091e-08 -3.14905e-08 3.79143e-08)
(1.71764e-08 -3.45822e-08 4.60671e-08)
(2.02752e-08 -3.7007e-08 5.55583e-08)
(2.40224e-08 -3.82571e-08 6.64125e-08)
(2.84674e-08 -3.76897e-08 7.84694e-08)
(3.34328e-08 -3.47313e-08 9.11961e-08)
(3.79342e-08 -2.99102e-08 1.02645e-07)
(4.42938e-08 -2.14594e-08 1.16024e-07)
(0 0 0)
(2.01764e-09 -4.67454e-09 3.76201e-09)
(3.85011e-09 -8.96183e-09 7.32201e-09)
(5.56743e-09 -1.30476e-08 1.09276e-08)
(7.23319e-09 -1.70777e-08 1.47966e-08)
(8.90898e-09 -2.11622e-08 1.91318e-08)
(1.06581e-08 -2.53751e-08 2.41299e-08)
(1.25492e-08 -2.97526e-08 2.99874e-08)
(1.46608e-08 -3.42869e-08 3.69043e-08)
(1.70827e-08 -3.89157e-08 4.50811e-08)
(1.9915e-08 -4.35048e-08 5.47079e-08)
(2.32578e-08 -4.78228e-08 6.59389e-08)
(2.71832e-08 -5.14998e-08 7.88393e-08)
(3.1657e-08 -5.39644e-08 9.32597e-08)
(3.63764e-08 -5.4387e-08 1.08557e-07)
(4.03068e-08 -5.21909e-08 1.22244e-07)
(4.54689e-08 -4.37867e-08 1.37106e-07)
(0 0 0)
(2.31115e-09 -5.26941e-09 4.30935e-09)
(4.40555e-09 -1.01108e-08 8.38101e-09)
(6.35916e-09 -1.47416e-08 1.24925e-08)
(8.24045e-09 -1.93361e-08 1.68871e-08)
(1.0115e-08 -2.40319e-08 2.17896e-08)
(1.20493e-08 -2.89335e-08 2.74171e-08)
(1.41145e-08 -3.41135e-08 3.39866e-08)
(1.63905e-08 -3.96134e-08 4.17195e-08)
(1.89689e-08 -4.54423e-08 5.08423e-08)
(2.19531e-08 -5.1573e-08 6.15811e-08)
(2.54561e-08 -5.79352e-08 7.41489e-08)
(2.95866e-08 -6.43894e-08 8.87114e-08)
(3.43988e-08 -7.0642e-08 1.05283e-07)
(3.97417e-08 -7.60206e-08 1.23417e-07)
(4.45789e-08 -7.9075e-08 1.40321e-07)
(5.1193e-08 -7.43922e-08 1.59312e-07)
(0 0 0)
(2.55452e-09 -5.68371e-09 4.76201e-09)
(4.8637e-09 -1.09155e-08 9.25313e-09)
(7.00616e-09 -1.59386e-08 1.37718e-08)
(9.05209e-09 -2.0951e-08 1.85779e-08)
(1.10679e-08 -2.61144e-08 2.39094e-08)
(1.312e-08 -3.15603e-08 2.99942e-08)
(1.52783e-08 -3.73952e-08 3.70579e-08)
(1.76212e-08 -4.37061e-08 4.53299e-08)
(2.02395e-08 -5.05668e-08 5.50466e-08)
(2.32414e-08 -5.80482e-08 6.6452e-08)
(2.67616e-08 -6.62336e-08 7.97994e-08)
(3.09737e-08 -7.5239e-08 9.53499e-08)
(3.60962e-08 -8.52119e-08 1.13336e-07)
(4.23231e-08 -9.62023e-08 1.33744e-07)
(4.88858e-08 -1.06845e-07 1.53989e-07)
(5.98056e-08 -1.18639e-07 1.79225e-07)
(0 0 0)
(2.74663e-09 -5.89516e-09 5.11724e-09)
(5.22302e-09 -1.13327e-08 9.93371e-09)
(7.50715e-09 -1.65735e-08 1.47594e-08)
(9.66779e-09 -2.18318e-08 1.98617e-08)
(1.17691e-08 -2.7287e-08 2.54827e-08)
(1.38738e-08 -3.30907e-08 3.18504e-08)
(1.60468e-08 -3.93739e-08 3.91866e-08)
(1.83595e-08 -4.62544e-08 4.7712e-08)
(2.0894e-08 -5.38459e-08 5.76494e-08)
(2.37495e-08 -6.22709e-08 6.92247e-08)
(2.70515e-08 -7.16814e-08 8.26701e-08)
(3.09666e-08 -8.22887e-08 9.82294e-08)
(3.57065e-08 -9.43863e-08 1.16143e-07)
(4.14427e-08 -1.08285e-07 1.36515e-07)
(4.72732e-08 -1.22395e-07 1.56695e-07)
(6.31974e-08 -1.46322e-07 1.88488e-07)
(0 0 0)
(0 0 0)
(0 0 0)
(0 0 0)
(0 0 0)
(0 0 0)
(0 0 0)
(0 0 0)
(0 0 0)
(0 0 0)
(0 0 0)
(0 0 0)
(0 0 0)
(0 0 0)
(0 0 0)
(0 0 0)
(1.01359e-08 1.34578e-08 7.84192e-09)
(0 0 0)
(4.55011e-10 -1.08521e-09 8.07497e-10)
(8.69939e-10 -2.07594e-09 1.57284e-09)
(1.26247e-09 -3.01134e-09 2.35065e-09)
(1.64899e-09 -3.92006e-09 3.18923e-09)
(2.04551e-09 -4.8192e-09 4.1333e-09)
(2.46915e-09 -5.7122e-09 5.22558e-09)
(2.94017e-09 -6.58488e-09 6.50768e-09)
(3.48544e-09 -7.39823e-09 8.01993e-09)
(4.14457e-09 -8.07566e-09 9.80016e-09)
(4.98282e-09 -8.48082e-09 1.18816e-08)
(6.11894e-09 -8.37793e-09 1.42926e-08)
(7.78508e-09 -7.35605e-09 1.70664e-08)
(1.04367e-08 -4.68829e-09 2.02693e-08)
(1.4838e-08 8.13943e-10 2.40176e-08)
(2.12247e-08 9.76434e-09 2.80373e-08)
(2.81963e-08 2.06987e-08 2.9299e-08)
(0 0 0)
(8.98171e-10 -2.13841e-09 1.59391e-09)
(1.71678e-09 -4.09203e-09 3.10406e-09)
(2.49019e-09 -5.93924e-09 4.63771e-09)
(3.24996e-09 -7.73804e-09 6.28949e-09)
(4.02689e-09 -9.52482e-09 8.14694e-09)
(4.85346e-09 -1.13109e-08 1.02937e-08)
(5.76712e-09 -1.30761e-08 1.28112e-08)
(6.81517e-09 -1.47567e-08 1.57776e-08)
(8.0628e-09 -1.62262e-08 1.92645e-08)
(9.60782e-09 -1.72651e-08 2.33285e-08)
(1.16087e-08 -1.75177e-08 2.79993e-08)
(1.43345e-08 -1.64451e-08 3.32623e-08)
(1.82169e-08 -1.33302e-08 3.90273e-08)
(2.37514e-08 -7.57879e-09 4.50246e-08)
(3.04658e-08 -1.78898e-10 5.03609e-08)
(3.7984e-08 4.59427e-09 5.44345e-08)
(0 0 0)
(1.31851e-09 -3.12818e-09 2.3399e-09)
(2.51915e-09 -5.98928e-09 4.55554e-09)
(3.6511e-09 -8.70093e-09 6.80302e-09)
(4.75923e-09 -1.13518e-08 9.21981e-09)
(5.8871e-09 -1.40014e-08 1.1933e-08)
(7.07982e-09 -1.66764e-08 1.50643e-08)
(8.38766e-09 -1.93636e-08 1.87318e-08)
(9.8705e-09 -2.1998e-08 2.30497e-08)
(1.16035e-08 -2.44422e-08 2.81217e-08)
(1.36846e-08 -2.64587e-08 3.40269e-08)
(1.62458e-08 -2.76787e-08 4.07933e-08)
(1.94652e-08 -2.75949e-08 4.83542e-08)
(2.35582e-08 -2.56609e-08 5.64726e-08)
(2.86523e-08 -2.17109e-08 6.46044e-08)
(3.41272e-08 -1.7019e-08 7.15278e-08)
(3.94764e-08 -1.49459e-08 7.61151e-08)
(0 0 0)
(1.70606e-09 -4.02241e-09 3.02771e-09)
(3.25759e-09 -7.70665e-09 5.89212e-09)
(4.71613e-09 -1.1209e-08 8.79276e-09)
(6.13748e-09 -1.46498e-08 1.1905e-08)
(7.57539e-09 -1.81153e-08 1.53906e-08)
(9.08462e-09 -2.16554e-08 1.94046e-08)
(1.07244e-08 -2.52782e-08 2.40982e-08)
(1.25614e-08 -2.89407e-08 2.96185e-08)
(1.46724e-08 -3.25319e-08 3.61017e-08)
(1.71422e-08 -3.58505e-08 4.36547e-08)
(2.00568e-08 -3.85798e-08 5.23209e-08)
(2.34807e-08 -4.02767e-08 6.20154e-08)
(2.7401e-08 -4.04284e-08 7.24047e-08)
(3.16123e-08 -3.87124e-08 8.26858e-08)
(3.54338e-08 -3.57577e-08 9.11201e-08)
(3.88438e-08 -3.41164e-08 9.6079e-08)
(0 0 0)
(2.05266e-09 -4.78942e-09 3.64248e-09)
(3.9162e-09 -9.1833e-09 7.08439e-09)
(5.66165e-09 -1.33745e-08 1.05619e-08)
(7.35303e-09 -1.7515e-08 1.42817e-08)
(9.05151e-09 -2.17199e-08 1.84344e-08)
(1.08186e-08 -2.6068e-08 2.3202e-08)
(1.27196e-08 -3.05996e-08 2.87629e-08)
(1.48259e-08 -3.53117e-08 3.52927e-08)
(1.72155e-08 -4.01486e-08 4.29587e-08)
(1.99683e-08 -4.49866e-08 5.19035e-08)
(2.31512e-08 -4.96123e-08 6.22115e-08)
(2.6784e-08 -5.3688e-08 7.38406e-08)
(3.07639e-08 -5.66959e-08 8.64758e-08)
(3.47386e-08 -5.78976e-08 9.92092e-08)
(3.793e-08 -5.67567e-08 1.09809e-07)
(4.01243e-08 -5.44494e-08 1.16036e-07)
(0 0 0)
(2.35225e-09 -5.39893e-09 4.17296e-09)
(4.48332e-09 -1.03606e-08 8.11018e-09)
(6.47058e-09 -1.51107e-08 1.20765e-08)
(8.38335e-09 -1.98304e-08 1.63027e-08)
(1.02873e-08 -2.46631e-08 2.10003e-08)
(1.22478e-08 -2.97182e-08 2.63707e-08)
(1.43336e-08 -3.50728e-08 3.26114e-08)
(1.66196e-08 -4.07727e-08 3.99183e-08)
(1.91887e-08 -4.68315e-08 4.84834e-08)
(2.21301e-08 -5.32285e-08 5.84843e-08)
(2.55338e-08 -5.99016e-08 7.00624e-08)
(2.94756e-08 -6.67211e-08 8.32733e-08)
(3.39723e-08 -7.33964e-08 9.79584e-08)
(3.88581e-08 -7.92167e-08 1.13373e-07)
(4.33453e-08 -8.2713e-08 1.2701e-07)
(4.643e-08 -8.13917e-08 1.36305e-07)
(0 0 0)
(2.60105e-09 -5.82354e-09 4.61199e-09)
(4.95195e-09 -1.11854e-08 8.95559e-09)
(7.1331e-09 -1.63378e-08 1.33157e-08)
(9.21598e-09 -2.14862e-08 1.79389e-08)
(1.12676e-08 -2.67987e-08 2.30493e-08)
(1.33542e-08 -3.24119e-08 2.88586e-08)
(1.55446e-08 -3.8437e-08 3.55727e-08)
(1.79145e-08 -4.49645e-08 4.33952e-08)
(2.05501e-08 -5.2072e-08 5.25282e-08)
(2.3553e-08 -5.98341e-08 6.31676e-08)
(2.70492e-08 -6.83395e-08 7.54949e-08)
(3.12066e-08 -7.77121e-08 8.96588e-08)
(3.62595e-08 -8.81099e-08 1.05706e-07)
(4.24762e-08 -9.95607e-08 1.23278e-07)
(4.94293e-08 -1.10862e-07 1.40077e-07)
(5.66533e-08 -1.20873e-07 1.53408e-07)
(0 0 0)
(2.79777e-09 -6.04039e-09 4.95684e-09)
(5.32018e-09 -1.16133e-08 9.61601e-09)
(7.64732e-09 -1.6989e-08 1.42734e-08)
(9.84964e-09 -2.23897e-08 1.91831e-08)
(1.19924e-08 -2.80014e-08 2.45729e-08)
(1.4139e-08 -3.39811e-08 3.06551e-08)
(1.63543e-08 -4.04641e-08 3.7632e-08)
(1.87092e-08 -4.75715e-08 4.57e-08)
(2.12846e-08 -5.54195e-08 5.50492e-08)
(2.41787e-08 -6.41326e-08 6.58609e-08)
(2.75179e-08 -7.38647e-08 7.83016e-08)
(3.14767e-08 -8.48309e-08 9.25114e-08)
(3.6296e-08 -9.73292e-08 1.08555e-07)
(4.2223e-08 -1.11638e-07 1.26206e-07)
(4.85756e-08 -1.26307e-07 1.4306e-07)
(5.93689e-08 -1.46575e-07 1.61957e-07)
(0 0 0)
(0 0 0)
(0 0 0)
(0 0 0)
(0 0 0)
(0 0 0)
(0 0 0)
(0 0 0)
(0 0 0)
(0 0 0)
(0 0 0)
(0 0 0)
(0 0 0)
(0 0 0)
(0 0 0)
(0 0 0)
(6.12942e-09 6.56485e-09 2.88121e-09)
(0 0 0)
(4.60193e-10 -1.10859e-09 7.51501e-10)
(8.79323e-10 -2.12109e-09 1.46283e-09)
(1.27467e-09 -3.07796e-09 2.18392e-09)
(1.66193e-09 -4.00904e-09 2.95853e-09)
(2.05597e-09 -4.93278e-09 3.82654e-09)
(2.47187e-09 -5.85439e-09 4.82496e-09)
(2.92635e-09 -6.76257e-09 5.98797e-09)
(3.43994e-09 -7.62374e-09 7.34538e-09)
(4.04084e-09 -8.3727e-09 8.91859e-09)
(4.77306e-09 -8.89814e-09 1.07127e-08)
(5.71358e-09 -9.02099e-09 1.27022e-08)
(7.00576e-09 -8.46356e-09 1.48063e-08)
(8.90701e-09 -6.81608e-09 1.68392e-08)
(1.17648e-08 -3.59191e-09 1.84018e-08)
(1.5405e-08 1.02351e-09 1.87701e-08)
(1.78533e-08 5.91931e-09 1.46283e-08)
(0 0 0)
(9.08524e-10 -2.1843e-09 1.4834e-09)
(1.73557e-09 -4.18063e-09 2.887e-09)
(2.51481e-09 -6.06995e-09 4.30888e-09)
(3.27655e-09 -7.9126e-09 5.83484e-09)
(4.0495e-09 -9.74745e-09 7.54299e-09)
(4.86233e-09 -1.15889e-08 9.50588e-09)
(5.74591e-09 -1.34217e-08 1.17906e-08)
(6.73601e-09 -1.51911e-08 1.44555e-08)
(7.87738e-09 -1.67891e-08 1.75422e-08)
(9.23089e-09 -1.80354e-08 2.10584e-08)
(1.08864e-08 -1.86591e-08 2.49462e-08)
(1.29801e-08 -1.83022e-08 2.90255e-08)
(1.56896e-08 -1.66133e-08 3.28877e-08)
(1.9084e-08 -1.3604e-08 3.57326e-08)
(2.25111e-08 -1.04701e-08 3.64667e-08)
(2.46463e-08 -1.04999e-08 3.32003e-08)
(0 0 0)
(1.33407e-09 -3.19503e-09 2.17777e-09)
(2.54753e-09 -6.1183e-09 4.23721e-09)
(3.68872e-09 -8.89121e-09 6.32113e-09)
(4.80095e-09 -1.16058e-08 8.55426e-09)
(5.92496e-09 -1.43248e-08 1.10501e-08)
(7.10086e-09 -1.70786e-08 1.39142e-08)
(8.37033e-09 -1.98598e-08 1.72449e-08)
(9.77826e-09 -2.26131e-08 2.11286e-08)
(1.13737e-08 -2.52209e-08 2.56287e-08)
(1.32087e-08 -2.7486e-08 3.07613e-08)
(1.53333e-08 -2.91246e-08 3.64506e-08)
(1.77777e-08 -2.98004e-08 4.24498e-08)
(2.04983e-08 -2.92871e-08 4.82101e-08)
(2.32385e-08 -2.78828e-08 5.27231e-08)
(2.53064e-08 -2.68793e-08 5.47051e-08)
(2.53157e-08 -2.85353e-08 5.21996e-08)
(0 0 0)
(1.72688e-09 -4.10801e-09 2.81817e-09)
(3.29579e-09 -7.87181e-09 5.48093e-09)
(4.76747e-09 -1.14524e-08 8.17093e-09)
(6.19607e-09 -1.49745e-08 1.10473e-08)
(7.63221e-09 -1.85278e-08 1.42546e-08)
(9.12514e-09 -2.21661e-08 1.79281e-08)
(1.07246e-08 -2.59027e-08 2.21938e-08)
(1.24809e-08 -2.97026e-08 2.71653e-08)
(1.44425e-08 -3.34701e-08 3.29302e-08)
(1.66456e-08 -3.70355e-08 3.95228e-08)
(1.90908e-08 -4.0146e-08 4.68719e-08)
(2.16927e-08 -4.24882e-08 5.47073e-08)
(2.41866e-08 -4.37939e-08 6.24013e-08)
(2.60145e-08 -4.41179e-08 6.87646e-08)
(2.64791e-08 -4.41856e-08 7.21582e-08)
(2.45037e-08 -4.58025e-08 7.03186e-08)
(0 0 0)
(2.07872e-09 -4.89093e-09 3.3908e-09)
(3.96434e-09 -9.37913e-09 6.59089e-09)
(5.72725e-09 -1.36631e-08 9.81646e-09)
(7.43e-09 -1.78995e-08 1.32553e-08)
(9.1307e-09 -2.22074e-08 1.70779e-08)
(1.08856e-08 -2.66689e-08 2.14433e-08)
(1.27505e-08 -3.13279e-08 2.65012e-08)
(1.47811e-08 -3.6186e-08 3.23888e-08)
(1.70284e-08 -4.11955e-08 3.92184e-08)
(1.95257e-08 -4.62482e-08 4.70507e-08)
(2.22587e-08 -5.11628e-08 5.58423e-08)
(2.5104e-08 -5.56685e-08 6.53466e-08)
(2.77137e-08 -5.93871e-08 7.49312e-08)
(2.93818e-08 -6.18509e-08 8.32954e-08)
(2.92832e-08 -6.27637e-08 8.84032e-08)
(2.5971e-08 -6.31215e-08 8.7533e-08)
(0 0 0)
(2.38339e-09 -5.51295e-09 3.8852e-09)
(4.54123e-09 -1.05806e-08 7.54644e-09)
(6.55055e-09 -1.54349e-08 1.12262e-08)
(8.4795e-09 -2.0262e-08 1.51344e-08)
(1.03911e-08 -2.52093e-08 1.94604e-08)
(1.23462e-08 -3.03889e-08 2.43805e-08)
(1.44051e-08 -3.58796e-08 3.00611e-08)
(1.66292e-08 -4.17278e-08 3.66566e-08)
(1.90776e-08 -4.79469e-08 4.42991e-08)
(2.17996e-08 -5.45148e-08 5.30759e-08)
(2.48146e-08 -6.13667e-08 6.29827e-08)
(2.80703e-08 -6.83698e-08 7.38317e-08)
(3.13549e-08 -7.52362e-08 8.50602e-08)
(3.41452e-08 -8.13054e-08 9.53718e-08)
(3.55469e-08 -8.52824e-08 1.0239e-07)
(3.32808e-08 -8.48832e-08 1.03055e-07)
(0 0 0)
(2.63697e-09 -5.94619e-09 4.29468e-09)
(5.01912e-09 -1.14221e-08 8.33461e-09)
(7.22692e-09 -1.66866e-08 1.23808e-08)
(9.33107e-09 -2.19506e-08 1.66575e-08)
(1.13967e-08 -2.73857e-08 2.13657e-08)
(1.34861e-08 -3.31308e-08 2.66912e-08)
(1.56618e-08 -3.9297e-08 3.28077e-08)
(1.79883e-08 -4.59722e-08 3.98764e-08)
(2.05333e-08 -5.32267e-08 4.80377e-08)
(2.33667e-08 -6.11205e-08 5.73925e-08)
(2.65581e-08 -6.9713e-08 6.79649e-08)
(3.01696e-08 -7.90686e-08 7.96227e-08)
(3.42337e-08 -8.92252e-08 9.19005e-08)
(3.86623e-08 -9.9994e-08 1.03602e-07)
(4.28166e-08 -1.10033e-07 1.12149e-07)
(4.5814e-08 -1.17926e-07 1.13786e-07)
(0 0 0)
(2.83797e-09 -6.16739e-09 4.61664e-09)
(5.39572e-09 -1.18585e-08 8.95101e-09)
(7.75378e-09 -1.73505e-08 1.32743e-08)
(9.9823e-09 -2.28712e-08 1.78177e-08)
(1.21453e-08 -2.861e-08 2.27859e-08)
(1.43034e-08 -3.47254e-08 2.83653e-08)
(1.65168e-08 -4.13518e-08 3.47271e-08)
(1.8848e-08 -4.86054e-08 4.20267e-08)
(2.13646e-08 -5.65909e-08 5.03958e-08)
(2.41414e-08 -6.54108e-08 5.99256e-08)
(2.72636e-08 -7.51774e-08 7.06334e-08)
(3.08264e-08 -8.60245e-08 8.23939e-08)
(3.49169e-08 -9.80917e-08 9.47863e-08)
(3.95043e-08 -1.11372e-07 1.06775e-07)
(4.37793e-08 -1.2426e-07 1.1582e-07)
(5.00826e-08 -1.40869e-07 1.17695e-07)
(0 0 0)
(0 0 0)
(0 0 0)
(0 0 0)
(0 0 0)
(0 0 0)
(0 0 0)
(0 0 0)
(0 0 0)
(0 0 0)
(0 0 0)
(0 0 0)
(0 0 0)
(0 0 0)
(0 0 0)
(0 0 0)
(3.38785e-09 3.10887e-09 1.65386e-09)
(0 0 0)
(4.63395e-10 -1.12872e-09 6.68958e-10)
(8.84732e-10 -2.16001e-09 1.30139e-09)
(1.28062e-09 -3.13544e-09 1.94094e-09)
(1.6657e-09 -4.08593e-09 2.62544e-09)
(2.05321e-09 -5.03119e-09 3.38865e-09)
(2.45549e-09 -5.97827e-09 4.26076e-09)
(2.88467e-09 -6.91913e-09 5.26769e-09)
(3.3534e-09 -7.82647e-09 6.42841e-09)
(3.87608e-09 -8.64783e-09 7.74911e-09)
(4.47175e-09 -9.29823e-09 9.21213e-09)
(5.17077e-09 -9.65289e-09 1.07562e-08)
(6.02708e-09 -9.54403e-09 1.22425e-08)
(7.1293e-09 -8.7695e-09 1.34009e-08)
(8.56174e-09 -7.14645e-09 1.37727e-08)
(1.0114e-08 -4.82809e-09 1.2895e-08)
(1.06001e-08 -1.46921e-09 9.71205e-09)
(0 0 0)
(9.15035e-10 -2.22381e-09 1.32052e-09)
(1.74667e-09 -4.25695e-09 2.56849e-09)
(2.52731e-09 -6.18255e-09 3.82967e-09)
(3.28536e-09 -8.063e-09 5.17827e-09)
(4.04645e-09 -9.93941e-09 6.68046e-09)
(4.8342e-09 -1.18294e-08 8.39552e-09)
(5.67108e-09 -1.37228e-08 1.03745e-08)
(6.57862e-09 -1.55754e-08 1.26553e-08)
(7.57716e-09 -1.72993e-08 1.52511e-08)
(8.68525e-09 -1.87547e-08 1.81295e-08)
(9.91844e-09 -1.97497e-08 2.11746e-08)
(1.12841e-08 -2.00708e-08 2.41258e-08)
(1.27554e-08 -1.95879e-08 2.64906e-08)
(1.41803e-08 -1.84927e-08 2.74981e-08)
(1.51313e-08 -1.75612e-08 2.656e-08)
(1.52342e-08 -1.82838e-08 2.40517e-08)
(0 0 0)
(1.34411e-09 -3.25249e-09 1.93879e-09)
(2.56487e-09 -6.22921e-09 3.77005e-09)
(3.70894e-09 -9.05464e-09 5.61868e-09)
(4.81713e-09 -1.18236e-08 7.59261e-09)
(5.92605e-09 -1.46015e-08 9.78807e-09)
(7.0692e-09 -1.74225e-08 1.22916e-08)
(8.27722e-09 -2.02849e-08 1.51786e-08)
(9.57673e-09 -2.3144e-08 1.85064e-08)
(1.09862e-08 -2.59025e-08 2.22992e-08)
(1.25068e-08 -2.84038e-08 2.65202e-08)
(1.4104e-08 -3.04395e-08 3.10228e-08)
(1.56732e-08 -3.1803e-08 3.54762e-08)
(1.69824e-08 -3.2443e-08 3.92745e-08)
(1.76254e-08 -3.27414e-08 4.15304e-08)
(1.72425e-08 -3.35286e-08 4.16078e-08)
(1.55912e-08 -3.57479e-08 4.0056e-08)
(0 0 0)
(1.74072e-09 -4.1814e-09 2.50917e-09)
(3.32005e-09 -8.01335e-09 4.87722e-09)
(4.79687e-09 -1.16607e-08 7.26389e-09)
(6.22249e-09 -1.52511e-08 9.80696e-09)
(7.64294e-09 -1.88775e-08 1.26293e-08)
(9.10003e-09 -2.25967e-08 1.58418e-08)
(1.06312e-08 -2.64265e-08 1.95421e-08)
(1.22671e-08 -3.03393e-08 2.38072e-08)
(1.40234e-08 -3.42541e-08 2.86763e-08)
(1.58836e-08 -3.80293e-08 3.41195e-08)
(1.77646e-08 -4.14649e-08 3.99834e-08)
(1.94537e-08 -4.43365e-08 4.59094e-08)
(2.05214e-08 -4.64963e-08 5.12353e-08)
(2.03046e-08 -4.80587e-08 5.49795e-08)
(1.84612e-08 -4.94352e-08 5.63099e-08)
(1.50528e-08 -5.14616e-08 5.56895e-08)
(0 0 0)
(2.09659e-09 -4.9777e-09 3.01944e-09)
(3.99613e-09 -9.54634e-09 5.8658e-09)
(5.7672e-09 -1.39087e-08 8.72823e-09)
(7.4695e-09 -1.82249e-08 1.17695e-08)
(9.15654e-09 -2.26165e-08 1.51345e-08)
(1.0877e-08 -2.71677e-08 1.89543e-08)
(1.26747e-08 -3.19244e-08 2.33452e-08)
(1.45858e-08 -3.68906e-08 2.84019e-08)
(1.66299e-08 -4.20227e-08 3.41801e-08)
(1.87907e-08 -4.72217e-08 4.06642e-08)
(2.09761e-08 -5.23239e-08 4.77114e-08)
(2.29458e-08 -5.70899e-08 5.49637e-08)
(2.42022e-08 -6.11878e-08 6.17341e-08)
(2.39431e-08 -6.41817e-08 6.69503e-08)
(2.16699e-08 -6.56569e-08 6.95308e-08)
(1.70297e-08 -6.59402e-08 6.98088e-08)
(0 0 0)
(2.4054e-09 -5.61011e-09 3.46026e-09)
(4.58095e-09 -1.07677e-08 6.71739e-09)
(6.60207e-09 -1.57094e-08 9.9837e-09)
(8.53431e-09 -2.06247e-08 1.34411e-08)
(1.04365e-08 -2.56631e-08 1.72509e-08)
(1.23624e-08 -3.09374e-08 2.15588e-08)
(1.43615e-08 -3.65254e-08 2.64944e-08)
(1.64774e-08 -4.24699e-08 3.21652e-08)
(1.87415e-08 -4.87776e-08 3.86402e-08)
(2.1159e-08 -5.54142e-08 4.59183e-08)
(2.36806e-08 -6.22939e-08 5.38729e-08)
(2.61487e-08 -6.92475e-08 6.21589e-08)
(2.82106e-08 -7.59286e-08 7.00774e-08)
(2.92409e-08 -8.16049e-08 7.64594e-08)
(2.86348e-08 -8.49875e-08 7.9959e-08)
(2.5122e-08 -8.35261e-08 8.09343e-08)
(0 0 0)
(2.66307e-09 -6.05038e-09 3.82561e-09)
(5.06681e-09 -1.16227e-08 7.42039e-09)
(7.29039e-09 -1.69806e-08 1.10129e-08)
(9.40238e-09 -2.23383e-08 1.47977e-08)
(1.14642e-08 -2.7869e-08 1.89463e-08)
(1.35323e-08 -3.37111e-08 2.36123e-08)
(1.56598e-08 -3.99718e-08 2.89316e-08)
(1.78962e-08 -4.67306e-08 3.50168e-08)
(2.02861e-08 -5.40419e-08 4.19416e-08)
(2.28626e-08 -6.19366e-08 4.97117e-08)
(2.56371e-08 -7.04223e-08 5.82099e-08)
(2.8579e-08 -7.94706e-08 6.71003e-08)
(3.15871e-08 -8.8961e-08 7.56699e-08)
(3.44528e-08 -9.84871e-08 8.26309e-08)
(3.67623e-08 -1.06706e-07 8.63007e-08)
(3.86799e-08 -1.11909e-07 8.66691e-08)
(0 0 0)
(2.86793e-09 -6.27496e-09 4.11317e-09)
(5.45103e-09 -1.20656e-08 7.97077e-09)
(7.8289e-09 -1.7654e-08 1.18104e-08)
(1.00701e-08 -2.32711e-08 1.58329e-08)
(1.22357e-08 -2.91075e-08 2.02133e-08)
(1.43815e-08 -3.53201e-08 2.51059e-08)
(1.65603e-08 -4.20379e-08 3.06449e-08)
(1.88227e-08 -4.93656e-08 3.69386e-08)
(2.12178e-08 -5.73867e-08 4.40547e-08)
(2.37917e-08 -6.61666e-08 5.19923e-08)
(2.65835e-08 -7.57529e-08 6.063e-08)
(2.96137e-08 -8.61685e-08 6.96354e-08)
(3.28594e-08 -9.73742e-08 7.83138e-08)
(3.61807e-08 -1.09131e-07 8.54246e-08)
(3.89683e-08 -1.19926e-07 8.92126e-08)
(4.34494e-08 -1.33047e-07 8.72479e-08)
(0 0 0)
(0 0 0)
(0 0 0)
(0 0 0)
(0 0 0)
(0 0 0)
(0 0 0)
(0 0 0)
(0 0 0)
(0 0 0)
(0 0 0)
(0 0 0)
(0 0 0)
(0 0 0)
(0 0 0)
(0 0 0)
(2.1067e-09 1.63065e-09 1.61396e-09)
(0 0 0)
(4.65011e-10 -1.14532e-09 5.63433e-10)
(8.8703e-10 -2.19209e-09 1.09553e-09)
(1.28186e-09 -3.18282e-09 1.6324e-09)
(1.66298e-09 -4.14932e-09 2.20502e-09)
(2.04181e-09 -5.11232e-09 2.84037e-09)
(2.42786e-09 -6.08042e-09 3.56158e-09)
(2.82877e-09 -7.04837e-09 4.38689e-09)
(3.24996e-09 -7.99408e-09 5.32657e-09)
(3.69403e-09 -8.87501e-09 6.37703e-09)
(4.16086e-09 -9.6246e-09 7.51061e-09)
(4.64986e-09 -1.0151e-08 8.65955e-09)
(5.16664e-09 -1.034e-08 9.69454e-09)
(5.73416e-09 -1.00585e-08 1.04058e-08)
(6.39003e-09 -9.15521e-09 1.05268e-08)
(7.07181e-09 -7.59143e-09 9.94796e-09)
(7.25105e-09 -4.45386e-09 8.33527e-09)
(0 0 0)
(9.1846e-10 -2.25637e-09 1.11228e-09)
(1.75172e-09 -4.31984e-09 2.16232e-09)
(2.53064e-09 -6.27528e-09 3.22112e-09)
(3.28147e-09 -8.1867e-09 4.34942e-09)
(4.02644e-09 -1.0097e-08 5.60012e-09)
(4.784e-09 -1.20263e-08 7.01879e-09)
(5.56837e-09 -1.39692e-08 8.64152e-09)
(6.38809e-09 -1.58893e-08 1.04893e-08)
(7.24297e-09 -1.77142e-08 1.25568e-08)
(8.1197e-09 -1.93316e-08 1.47935e-08)
(8.98672e-09 -2.05958e-08 1.70745e-08)
(9.78889e-09 -2.13573e-08 1.91634e-08)
(1.04444e-08 -2.1537e-08 2.0687e-08)
(1.08485e-08 -2.12464e-08 2.12009e-08)
(1.09254e-08 -2.08692e-08 2.06033e-08)
(1.10236e-08 -2.12354e-08 1.96971e-08)
(0 0 0)
(1.34969e-09 -3.29981e-09 1.63319e-09)
(2.57345e-09 -6.32048e-09 3.17417e-09)
(3.71587e-09 -9.18886e-09 4.72635e-09)
(4.81481e-09 -1.20018e-08 6.37808e-09)
(5.90246e-09 -1.48271e-08 8.20644e-09)
(7.00539e-09 -1.77014e-08 1.02781e-08)
(8.14355e-09 -2.06275e-08 1.26467e-08)
(9.32698e-09 -2.35686e-08 1.53453e-08)
(1.05489e-08 -2.64421e-08 1.83716e-08)
(1.17735e-08 -2.91166e-08 2.16629e-08)
(1.29163e-08 -3.14239e-08 2.50609e-08)
(1.38184e-08 -3.32065e-08 2.82699e-08)
(1.42285e-08 -3.44308e-08 3.08423e-08)
(1.38678e-08 -3.53567e-08 3.22907e-08)
(1.2794e-08 -3.6459e-08 3.25248e-08)
(1.15208e-08 -3.83127e-08 3.24332e-08)
(0 0 0)
(1.74886e-09 -4.24173e-09 2.11393e-09)
(3.33312e-09 -8.12953e-09 4.10688e-09)
(4.80924e-09 -1.1831e-08 6.11114e-09)
(6.22522e-09 -1.54763e-08 8.23957e-09)
(7.62202e-09 -1.91601e-08 1.05907e-08)
(9.03371e-09 -2.29414e-08 1.32502e-08)
(1.04859e-08 -2.68406e-08 1.62881e-08)
(1.19912e-08 -3.08345e-08 1.97502e-08)
(1.35389e-08 -3.48506e-08 2.36413e-08)
(1.50761e-08 -3.87612e-08 2.78975e-08)
(1.64742e-08 -4.23876e-08 3.23466e-08)
(1.74809e-08 -4.55272e-08 3.66661e-08)
(1.76791e-08 -4.80252e-08 4.03735e-08)
(1.65791e-08 -4.9894e-08 4.29448e-08)
(1.42595e-08 -5.13233e-08 4.41842e-08)
(1.14877e-08 -5.29512e-08 4.49129e-08)
(0 0 0)
(2.10767e-09 -5.04885e-09 2.54419e-09)
(4.01461e-09 -9.68314e-09 4.94007e-09)
(5.78689e-09 -1.41087e-08 7.34435e-09)
(7.4808e-09 -1.8488e-08 9.89041e-09)
(9.1447e-09 -2.29439e-08 1.26946e-08)
(1.08194e-08 -2.75613e-08 1.58585e-08)
(1.25369e-08 -3.23857e-08 1.94659e-08)
(1.43158e-08 -3.74203e-08 2.35744e-08)
(1.61507e-08 -4.26198e-08 2.81976e-08)
(1.79919e-08 -4.78825e-08 3.32758e-08)
(1.97091e-08 -5.3039e-08 3.86338e-08)
(2.10337e-08 -5.78357e-08 4.39346e-08)
(2.14971e-08 -6.19048e-08 4.86649e-08)
(2.04826e-08 -6.47381e-08 5.22419e-08)
(1.78895e-08 -6.58619e-08 5.43388e-08)
(1.40414e-08 -6.55728e-08 5.57528e-08)
(0 0 0)
(2.41971e-09 -5.68954e-09 2.91609e-09)
(4.60556e-09 -1.09202e-08 5.65825e-09)
(6.63063e-09 -1.59318e-08 8.4024e-09)
(8.55721e-09 -2.09159e-08 1.12977e-08)
(1.04393e-08 -2.60227e-08 1.4474e-08)
(1.23232e-08 -3.13639e-08 1.80442e-08)
(1.42476e-08 -3.70136e-08 2.21022e-08)
(1.62399e-08 -4.30078e-08 2.6714e-08)
(1.83094e-08 -4.93407e-08 3.18999e-08)
(2.04325e-08 -5.59573e-08 3.76043e-08)
(2.25276e-08 -6.27372e-08 4.36493e-08)
(2.44148e-08 -6.94553e-08 4.96806e-08)
(2.57716e-08 -7.56858e-08 5.51333e-08)
(2.61448e-08 -8.06234e-08 5.93148e-08)
(2.5294e-08 -8.30743e-08 6.17636e-08)
(2.26094e-08 -8.0792e-08 6.34546e-08)
(0 0 0)
(2.68074e-09 -6.1353e-09 3.22455e-09)
(5.09798e-09 -1.17856e-08 6.25156e-09)
(7.32882e-09 -1.72178e-08 9.2705e-09)
(9.43895e-09 -2.26477e-08 1.24412e-08)
(1.14855e-08 -2.82487e-08 1.59018e-08)
(1.35184e-08 -3.41563e-08 1.97716e-08)
(1.55812e-08 -4.04715e-08 2.41491e-08)
(1.77097e-08 -4.72616e-08 2.91035e-08)
(1.99295e-08 -5.45601e-08 3.46566e-08)
(2.22497e-08 -6.2363e-08 4.07521e-08)
(2.46538e-08 -7.06206e-08 4.72059e-08)
(2.70905e-08 -7.92153e-08 5.36399e-08)
(2.94777e-08 -8.79049e-08 5.94156e-08)
(3.17405e-08 -9.61817e-08 6.366e-08)
(3.37784e-08 -1.02886e-07 6.56776e-08)
(3.63786e-08 -1.0675e-07 6.64908e-08)
(0 0 0)
(2.88893e-09 -6.36241e-09 3.46752e-09)
(5.48879e-09 -1.22333e-08 6.71651e-09)
(7.8775e-09 -1.78979e-08 9.94409e-09)
(1.01212e-08 -2.35886e-08 1.33153e-08)
(1.22774e-08 -2.94954e-08 1.69714e-08)
(1.43966e-08 -3.57716e-08 2.10328e-08)
(1.65233e-08 -4.25379e-08 2.55966e-08)
(1.86972e-08 -4.98839e-08 3.07289e-08)
(2.09518e-08 -5.78678e-08 3.6447e-08)
(2.33137e-08 -6.65134e-08 4.26886e-08)
(2.57987e-08 -7.58034e-08 4.92629e-08)
(2.84075e-08 -8.56646e-08 5.57803e-08)
(3.11232e-08 -9.59366e-08 6.15761e-08)
(3.38915e-08 -1.06296e-07 6.57138e-08)
(3.63449e-08 -1.15492e-07 6.73612e-08)
(4.11186e-08 -1.27019e-07 6.57215e-08)
(0 0 0)
(0 0 0)
(0 0 0)
(0 0 0)
(0 0 0)
(0 0 0)
(0 0 0)
(0 0 0)
(0 0 0)
(0 0 0)
(0 0 0)
(0 0 0)
(0 0 0)
(0 0 0)
(0 0 0)
(0 0 0)
(1.61321e-09 1.11399e-09 1.48079e-09)
(0 0 0)
(4.65523e-10 -1.15821e-09 4.39108e-10)
(8.87245e-10 -2.21698e-09 8.53402e-10)
(1.28022e-09 -3.21959e-09 1.27063e-09)
(1.65681e-09 -4.19852e-09 1.71432e-09)
(2.02676e-09 -5.17514e-09 2.20447e-09)
(2.39713e-09 -6.15917e-09 2.75758e-09)
(2.77194e-09 -7.14725e-09 3.38554e-09)
(3.15126e-09 -8.12067e-09 4.09296e-09)
(3.53004e-09 -9.04259e-09 4.87246e-09)
(3.89787e-09 -9.85566e-09 5.69743e-09)
(4.2417e-09 -1.0481e-08 6.51282e-09)
(4.5561e-09 -1.08174e-08 7.22751e-09)
(4.86534e-09 -1.0732e-08 7.71883e-09)
(5.24646e-09 -1.00323e-08 7.87615e-09)
(5.74495e-09 -8.57872e-09 7.71269e-09)
(6.02057e-09 -5.33301e-09 6.90621e-09)
(0 0 0)
(9.19722e-10 -2.28169e-09 8.66894e-10)
(1.7527e-09 -4.3687e-09 1.68454e-09)
(2.52831e-09 -6.34727e-09 2.50747e-09)
(3.2707e-09 -8.28253e-09 3.38177e-09)
(3.99904e-09 -1.02186e-08 4.34677e-09)
(4.72725e-09 -1.21774e-08 5.43499e-09)
(5.46298e-09 -1.41562e-08 6.67009e-09)
(6.2052e-09 -1.6124e-08 8.06188e-09)
(6.94064e-09 -1.80166e-08 9.59743e-09)
(7.63967e-09 -1.97344e-08 1.12278e-08)
(8.25437e-09 -2.11474e-08 1.28516e-08)
(8.72473e-09 -2.21146e-08 1.43015e-08)
(9.0035e-09 -2.25283e-08 1.53544e-08)
(9.1086e-09 -2.23863e-08 1.5809e-08)
(9.16116e-09 -2.19031e-08 1.56981e-08)
(9.63487e-09 -2.17868e-08 1.54715e-08)
(0 0 0)
(1.3521e-09 -3.33661e-09 1.273e-09)
(2.57607e-09 -6.39137e-09 2.47307e-09)
(3.71441e-09 -9.2929e-09 3.6796e-09)
(4.80218e-09 -1.21395e-08 4.95969e-09)
(5.86748e-09 -1.50001e-08 6.37066e-09)
(6.93097e-09 -1.79134e-08 7.96025e-09)
(8.00401e-09 -2.08845e-08 9.76386e-09)
(9.08461e-09 -2.38809e-08 1.17978e-08)
(1.01504e-08 -2.68267e-08 1.40478e-08)
(1.11479e-08 -2.96e-08 1.64515e-08)
(1.19803e-08 -3.20417e-08 1.88789e-08)
(1.24994e-08 -3.39893e-08 2.112e-08)
(1.2527e-08 -3.53606e-08 2.29085e-08)
(1.19659e-08 -3.62853e-08 2.40317e-08)
(1.10809e-08 -3.71103e-08 2.45338e-08)
(1.04484e-08 -3.84259e-08 2.48569e-08)
(0 0 0)
(1.75288e-09 -4.2886e-09 1.64791e-09)
(3.33839e-09 -8.21962e-09 3.20017e-09)
(4.81056e-09 -1.19627e-08 4.75834e-09)
(6.21414e-09 -1.56493e-08 6.40816e-09)
(7.58551e-09 -1.93753e-08 8.22301e-09)
(8.95203e-09 -2.32005e-08 1.02644e-08)
(1.03298e-08 -2.71461e-08 1.25788e-08)
(1.17187e-08 -3.11901e-08 1.519e-08)
(1.30922e-08 -3.5261e-08 1.80857e-08)
(1.43819e-08 -3.92321e-08 2.11981e-08)
(1.54537e-08 -4.2921e-08 2.43824e-08)
(1.60824e-08 -4.61064e-08 2.74061e-08)
(1.59524e-08 -4.85794e-08 2.99819e-08)
(1.47868e-08 -5.02531e-08 3.18832e-08)
(1.28516e-08 -5.12742e-08 3.30875e-08)
(1.09055e-08 -5.23602e-08 3.39697e-08)
(0 0 0)
(2.11373e-09 -5.10402e-09 1.9836e-09)
(4.02354e-09 -9.78895e-09 3.84998e-09)
(5.79294e-09 -1.42627e-08 5.71946e-09)
(7.47486e-09 -1.86888e-08 7.69344e-09)
(9.11292e-09 -2.31909e-08 9.85869e-09)
(1.07412e-08 -2.78532e-08 1.22882e-08)
(1.23821e-08 -3.27194e-08 1.5038e-08)
(1.40418e-08 -3.77889e-08 1.81387e-08)
(1.57007e-08 -4.30099e-08 2.15816e-08)
(1.72968e-08 -4.82697e-08 2.52969e-08)
(1.87002e-08 -5.33793e-08 2.91297e-08)
(1.96798e-08 -5.80513e-08 3.28286e-08)
(1.98818e-08 -6.18659e-08 3.6078e-08)
(1.891e-08 -6.42638e-08 3.86159e-08)