/*--------------------------------*- C++ -*----------------------------------*\
| =========                 |                                                 |
| \\      /  F ield         | OpenFOAM: The Open Source CFD Toolbox           |
|  \\    /   O peration     | Version:  v1912                                 |
|   \\  /    A nd           | Website:  www.openfoam.com                      |
|    \\/     M anipulation  |                                                 |
\*---------------------------------------------------------------------------*/
FoamFile
{
    version     2.0;
    format      ascii;
    class       volVectorField;
    location    "0.48/solid";
    object      DD_0_0;
}
// * * * * * * * * * * * * * * * * * * * * * * * * * * * * * * * * * * * * * //

dimensions      [0 1 0 0 0 0 0];


internalField   nonuniform List<vector> 
256
(
(3.50105e-10 3.39631e-10 3.93797e-10)
(7.2916e-11 1.89994e-10 3.45975e-10)
(-8.32408e-11 1.85517e-10 3.41068e-10)
(-3.44186e-10 3.21991e-10 3.78068e-10)
(6.01946e-10 2.35582e-10 8.53877e-10)
(1.47104e-10 1.24842e-10 7.87691e-10)
(-1.67098e-10 1.22542e-10 7.78337e-10)
(-6.00121e-10 2.29681e-10 8.24354e-10)
(6.36613e-10 -1.41655e-11 1.16341e-09)
(1.56542e-10 -5.91744e-11 1.09224e-09)
(-1.8764e-10 -5.76935e-11 1.08055e-09)
(-6.45806e-10 -7.47825e-12 1.12673e-09)
(6.14955e-10 -2.76002e-10 1.43002e-09)
(1.40238e-10 -3.01696e-10 1.34851e-09)
(-1.8706e-10 -2.96476e-10 1.3352e-09)
(-6.39715e-10 -2.58457e-10 1.38836e-09)
(6.11805e-10 -5.54939e-10 1.70164e-09)
(1.29179e-10 -5.9907e-10 1.60491e-09)
(-1.96519e-10 -5.90419e-10 1.59023e-09)
(-6.56745e-10 -5.27593e-10 1.65582e-09)
(6.83386e-10 -8.8891e-10 2.00971e-09)
(1.47628e-10 -9.61091e-10 1.89687e-09)
(-2.40399e-10 -9.49195e-10 1.88088e-09)
(-7.53365e-10 -8.52248e-10 1.95999e-09)
(8.8917e-10 -1.39132e-09 2.37393e-09)
(2.11816e-10 -1.43742e-09 2.25661e-09)
(-3.35833e-10 -1.42209e-09 2.23914e-09)
(-9.88931e-10 -1.34465e-09 2.3201e-09)
(1.18058e-09 -2.21978e-09 2.71487e-09)
(2.82591e-10 -2.12219e-09 2.62018e-09)
(-4.45641e-10 -2.10091e-09 2.60107e-09)
(-1.31463e-09 -2.15484e-09 2.65675e-09)
(1.90183e-10 1.05113e-10 1.38097e-10)
(3.65488e-11 -3.85907e-12 1.65042e-10)
(-4.06059e-11 -5.46532e-12 1.63023e-10)
(-1.80902e-10 9.44359e-11 1.31992e-10)
(3.37643e-10 -3.51609e-11 4.50427e-10)
(7.92027e-11 -1.18239e-10 5.02785e-10)
(-8.52818e-11 -1.18432e-10 4.97344e-10)
(-3.26477e-10 -3.66626e-11 4.34454e-10)
(3.51861e-10 -2.51008e-10 7.3598e-10)
(8.23447e-11 -2.85337e-10 7.95824e-10)
(-9.44704e-11 -2.82759e-10 7.8819e-10)
(-3.47151e-10 -2.42458e-10 7.13527e-10)
(3.26097e-10 -4.90323e-10 9.93674e-10)
(6.68014e-11 -5.11695e-10 1.05235e-09)
(-9.08673e-11 -5.05935e-10 1.04321e-09)
(-3.33393e-10 -4.72184e-10 9.66594e-10)
(3.17051e-10 -7.53232e-10 1.24734e-09)
(5.61475e-11 -7.949e-10 1.30159e-09)
(-9.76719e-11 -7.85988e-10 1.29118e-09)
(-3.41523e-10 -7.25905e-10 1.21631e-09)
(3.80189e-10 -1.05108e-09 1.5112e-09)
(7.38173e-11 -1.12288e-09 1.56089e-09)
(-1.3813e-10 -1.11093e-09 1.54925e-09)
(-4.26975e-10 -1.01489e-09 1.4764e-09)
(5.82418e-10 -1.44434e-09 1.76077e-09)
(1.37589e-10 -1.48892e-09 1.80893e-09)
(-2.30722e-10 -1.47393e-09 1.79614e-09)
(-6.56318e-10 -1.39904e-09 1.72242e-09)
(8.86126e-10 -2.0566e-09 1.88632e-09)
(2.08748e-10 -1.93636e-09 1.9359e-09)
(-3.38633e-10 -1.91642e-09 1.92252e-09)
(-9.91544e-10 -1.99519e-09 1.84602e-09)
(8.19943e-11 2.17946e-11 6.95072e-11)
(5.08521e-12 -5.34598e-11 1.08198e-10)
(-6.63812e-12 -5.46692e-11 1.06784e-10)
(-7.09685e-11 1.14068e-11 6.54741e-11)
(1.4817e-10 -1.68505e-10 2.92857e-10)
(1.7251e-11 -2.26257e-10 3.64055e-10)
(-1.61995e-11 -2.26127e-10 3.6019e-10)
(-1.31154e-10 -1.70283e-10 2.8193e-10)
(1.4614e-10 -3.91742e-10 5.39385e-10)
(1.36418e-11 -4.1662e-10 6.19671e-10)
(-1.45061e-11 -4.14046e-10 6.13982e-10)
(-1.31676e-10 -3.84241e-10 5.23126e-10)
(1.20603e-10 -6.16671e-10 7.78191e-10)
(-9.92061e-13 -6.36366e-10 8.59003e-10)
(-8.27158e-12 -6.30901e-10 8.51935e-10)
(-1.14738e-10 -6.00187e-10 7.57719e-10)
(1.11968e-10 -8.45771e-10 1.00587e-09)
(-1.06978e-11 -8.88031e-10 1.08493e-09)
(-1.30244e-11 -8.79621e-10 1.07669e-09)
(-1.20313e-10 -8.20513e-10 9.81741e-10)
(1.74228e-10 -1.08071e-09 1.21431e-09)
(6.75669e-12 -1.15346e-09 1.29165e-09)
(-5.0699e-11 -1.1422e-09 1.28233e-09)
(-2.02224e-10 -1.04699e-09 1.18682e-09)
(3.75221e-10 -1.37312e-09 1.36456e-09)
(6.97764e-11 -1.41904e-09 1.44094e-09)
(-1.40305e-10 -1.40499e-09 1.43077e-09)
(-4.2786e-10 -1.33078e-09 1.33428e-09)
(6.75379e-10 -1.87038e-09 1.38376e-09)
(1.40311e-10 -1.75441e-09 1.46042e-09)
(-2.45575e-10 -1.73562e-09 1.45003e-09)
(-7.57206e-10 -1.81215e-09 1.35245e-09)
(3.90459e-11 -6.48573e-12 5.8786e-11)
(-7.27785e-12 -6.23882e-11 8.36326e-11)
(6.81896e-12 -6.37423e-11 8.25726e-11)
(-2.68984e-11 -1.76899e-11 5.5835e-11)
(6.98717e-11 -2.18789e-10 2.32523e-10)
(-8.99458e-12 -2.61884e-10 2.77912e-10)
(1.38582e-11 -2.62148e-10 2.75105e-10)
(-4.90856e-11 -2.22293e-10 2.24708e-10)
(6.16689e-11 -4.51468e-10 4.32721e-10)
(-1.52867e-11 -4.71293e-10 4.83337e-10)
(2.12527e-11 -4.69269e-10 4.79146e-10)
(-4.05172e-11 -4.46129e-10 4.20881e-10)
(4.01523e-11 -6.66535e-10 6.33957e-10)
(-2.7829e-11 -6.86385e-10 6.84064e-10)
(2.83394e-11 -6.81598e-10 6.78734e-10)
(-2.47317e-11 -6.52493e-10 6.18652e-10)
(3.69197e-11 -8.64766e-10 8.20643e-10)
(-3.49954e-11 -9.08588e-10 8.68758e-10)
(2.37155e-11 -9.00961e-10 8.62427e-10)
(-3.30618e-11 -8.42154e-10 8.02231e-10)
(1.02917e-10 -1.05118e-09 9.74055e-10)
(-1.62043e-11 -1.1254e-09 1.02045e-09)
(-1.29586e-11 -1.11501e-09 1.01324e-09)
(-1.16317e-10 -1.02027e-09 9.52862e-10)
(3.02302e-10 -1.28915e-09 1.06238e-09)
(4.59816e-11 -1.33903e-09 1.10819e-09)
(-9.9719e-11 -1.32589e-09 1.10034e-09)
(-3.38185e-10 -1.24966e-09 1.03903e-09)
(5.93483e-10 -1.74285e-09 1.05155e-09)
(1.1499e-10 -1.64194e-09 1.09959e-09)
(-2.01723e-10 -1.62399e-09 1.09163e-09)
(-6.56618e-10 -1.68708e-09 1.0275e-09)
(2.69834e-11 -1.61847e-11 5.17584e-11)
(-9.19462e-12 -6.34009e-11 6.3922e-11)
(9.31208e-12 -6.49191e-11 6.31596e-11)
(-1.41153e-11 -2.80776e-11 4.96646e-11)
(4.91862e-11 -2.31586e-10 1.86669e-10)
(-1.35815e-11 -2.68636e-10 2.08083e-10)
(2.06918e-11 -2.69374e-10 2.06092e-10)
(-2.60011e-11 -2.36751e-10 1.81186e-10)
(4.18708e-11 -4.6427e-10 3.39636e-10)
(-1.93027e-11 -4.82798e-10 3.62575e-10)
(2.96037e-11 -4.81409e-10 3.59589e-10)
(-1.62969e-11 -4.61067e-10 3.31276e-10)
(2.54688e-11 -6.70209e-10 4.94157e-10)
(-2.93516e-11 -6.91349e-10 5.15702e-10)
(3.64331e-11 -6.87279e-10 5.11855e-10)
(-3.44152e-12 -6.58522e-10 4.8319e-10)
(2.80999e-11 -8.47972e-10 6.34056e-10)
(-3.38095e-11 -8.93546e-10 6.53534e-10)
(3.1261e-11 -8.86685e-10 6.48909e-10)
(-1.54926e-11 -8.27813e-10 6.20674e-10)
(9.78003e-11 -1.0082e-09 7.41029e-10)
(-1.34803e-11 -1.08379e-09 7.58986e-10)
(-4.99447e-12 -1.07418e-09 7.53683e-10)
(-1.00467e-10 -9.79751e-10 7.25491e-10)
(2.95007e-10 -1.22416e-09 7.9434e-10)
(4.79394e-11 -1.27759e-09 8.12179e-10)
(-8.92902e-11 -1.2652e-09 8.06399e-10)
(-3.18377e-10 -1.18699e-09 7.77167e-10)
(5.78272e-10 -1.66069e-09 7.80267e-10)
(1.15609e-10 -1.57267e-09 8.0062e-10)
(-1.88515e-10 -1.55537e-09 7.9477e-10)
(-6.27326e-10 -1.60686e-09 7.62584e-10)
(2.48198e-11 -1.90675e-11 4.04857e-11)
(-8.19558e-12 -6.28307e-11 4.57914e-11)
(8.63603e-12 -6.44672e-11 4.52814e-11)
(-1.15033e-11 -3.14342e-11 3.90961e-11)
(4.7629e-11 -2.3015e-10 1.3776e-10)
(-1.14376e-11 -2.65522e-10 1.46314e-10)
(1.99058e-11 -2.66628e-10 1.44987e-10)
(-2.29446e-11 -2.36543e-10 1.34135e-10)
(4.35666e-11 -4.5727e-10 2.44964e-10)
(-1.55054e-11 -4.76324e-10 2.5325e-10)
(2.85431e-11 -4.75452e-10 2.51256e-10)
(-1.51584e-11 -4.55728e-10 2.39421e-10)
(3.15961e-11 -6.54998e-10 3.52136e-10)
(-2.34165e-11 -6.77694e-10 3.58926e-10)
(3.48018e-11 -6.74212e-10 3.56339e-10)
(-5.20268e-12 -6.45177e-10 3.44804e-10)
(3.85782e-11 -8.21318e-10 4.47251e-10)
(-2.58269e-11 -8.68349e-10 4.5241e-10)
(2.91734e-11 -8.62102e-10 4.49276e-10)
(-2.00283e-11 -8.03088e-10 4.38224e-10)
(1.10644e-10 -9.70365e-10 5.17066e-10)
(-4.39538e-12 -1.04687e-09 5.21198e-10)
(-6.69441e-12 -1.03787e-09 5.17585e-10)
(-1.05868e-10 -9.43809e-10 5.06513e-10)
(3.05837e-10 -1.17917e-09 5.49371e-10)
(5.6449e-11 -1.23469e-09 5.53657e-10)
(-8.91006e-11 -1.22286e-09 5.4971e-10)
(-3.20408e-10 -1.14374e-09 5.37665e-10)
(5.83418e-10 -1.60748e-09 5.38592e-10)
(1.23198e-10 -1.52739e-09 5.44784e-10)
(-1.86296e-10 -1.51057e-09 5.40791e-10)
(-6.2248e-10 -1.55509e-09 5.26531e-10)
(2.48046e-11 -1.94636e-11 2.56432e-11)
(-7.16145e-12 -6.18897e-11 2.78015e-11)
(7.77516e-12 -6.36009e-11 2.75093e-11)
(-1.12277e-11 -3.21235e-11 2.48491e-11)
(4.95126e-11 -2.25256e-10 8.44746e-11)
(-9.01603e-12 -2.6048e-10 8.75384e-11)
(1.82598e-11 -2.61824e-10 8.67797e-11)
(-2.395e-11 -2.32426e-10 8.24103e-11)
(4.82311e-11 -4.46383e-10 1.47819e-10)
(-1.16962e-11 -4.66322e-10 1.50285e-10)
(2.6344e-11 -4.65794e-10 1.49143e-10)
(-1.81352e-11 -4.45929e-10 1.44658e-10)
(3.92565e-11 -6.38067e-10 2.10355e-10)
(-1.8166e-11 -6.61985e-10 2.11776e-10)
(3.2145e-11 -6.58901e-10 2.10288e-10)
(-1.02134e-11 -6.29493e-10 2.06155e-10)
(4.88752e-11 -7.98647e-10 2.65092e-10)
(-1.93124e-11 -8.46643e-10 2.65526e-10)
(2.62851e-11 -8.40812e-10 2.63716e-10)
(-2.66531e-11 -7.81714e-10 2.59893e-10)
(1.22186e-10 -9.43704e-10 3.0446e-10)
(2.75975e-12 -1.02068e-09 3.04347e-10)
(-9.23085e-12 -1.01209e-09 3.02252e-10)
(-1.12742e-10 -9.18413e-10 2.98353e-10)
(3.15946e-10 -1.15068e-09 3.22098e-10)
(6.32429e-11 -1.20716e-09 3.2218e-10)
(-9.03866e-11 -1.1957e-09 3.19886e-10)
(-3.24939e-10 -1.11642e-09 3.15304e-10)
(5.89909e-10 -1.57478e-09 3.15645e-10)
(1.29419e-10 -1.49878e-09 3.16847e-10)
(-1.86258e-10 -1.48227e-09 3.14528e-10)
(-6.22591e-10 -1.52336e-09 3.08642e-10)
(2.49489e-11 -1.92802e-11 8.76415e-12)
(-6.65595e-12 -6.12268e-11 9.35131e-12)
(7.34499e-12 -6.29742e-11 9.25621e-12)
(-1.1252e-11 -3.20807e-11 8.50599e-12)
(5.07077e-11 -2.21838e-10 2.84535e-11)
(-7.79523e-12 -2.57184e-10 2.92082e-11)
(1.73914e-11 -2.58643e-10 2.89614e-11)
(-2.47384e-11 -2.29381e-10 2.77834e-11)
(5.08455e-11 -4.39423e-10 4.93905e-11)
(-9.76941e-12 -4.5991e-10 4.98896e-11)
(2.51627e-11 -4.59552e-10 4.95178e-11)
(-1.99608e-11 -4.395e-10 4.83635e-11)
(4.33242e-11 -6.27966e-10 6.99024e-11)
(-1.55399e-11 -6.52525e-10 7.00364e-11)
(3.07367e-11 -6.4964e-10 6.95512e-11)
(-1.30298e-11 -6.20011e-10 6.85353e-11)
(5.41533e-11 -7.86185e-10 8.77314e-11)
(-1.60982e-11 -8.34645e-10 8.75406e-11)
(2.47941e-11 -8.29022e-10 8.69488e-11)
(-3.01795e-11 -7.69899e-10 8.60346e-11)
(1.27983e-10 -9.30077e-10 1.0045e-10)
(6.2616e-12 -1.00724e-09 1.00092e-10)
(-1.05158e-11 -9.98847e-10 9.94055e-11)
(-1.16294e-10 -9.05418e-10 9.84521e-11)
(3.21017e-10 -1.13676e-09 1.06082e-10)
(6.65742e-11 -1.19356e-09 1.05806e-10)
(-9.10541e-11 -1.18229e-09 1.05054e-10)
(-3.27308e-10 -1.10308e-09 1.03857e-10)
(5.93215e-10 -1.55907e-09 1.03948e-10)
(1.32471e-10 -1.48472e-09 1.04037e-10)
(-1.86268e-10 -1.46837e-09 1.03276e-10)
(-6.22793e-10 -1.50812e-09 1.01653e-10)
)
;

boundaryField
{
    interface
    {
        type            calculated;
        value           nonuniform List<vector> 
192
(
(3.66554e-10 5.77644e-10 3.48471e-10)
(6.04631e-10 3.07208e-10 7.76819e-10)
(6.40428e-10 -1.09145e-11 1.08036e-09)
(6.22868e-10 -2.82205e-10 1.34733e-09)
(6.1942e-10 -5.37832e-10 1.61952e-09)
(6.80434e-10 -8.1957e-10 1.92745e-09)
(8.67343e-10 -1.26702e-09 2.29124e-09)
(1.22226e-09 -2.13891e-09 2.6325e-09)
(1.37599e-10 2.37069e-10 7.1072e-11)
(2.75491e-10 5.25738e-12 3.36986e-10)
(2.8631e-10 -2.53896e-10 6.13364e-10)
(2.58516e-10 -4.99027e-10 8.70088e-10)
(2.44012e-10 -7.3971e-10 1.12238e-09)
(2.92831e-10 -9.84738e-10 1.38391e-09)
(4.75831e-10 -1.31786e-09 1.63228e-09)
(8.65021e-10 -1.97541e-09 1.76002e-09)
(2.00999e-11 7.93354e-11 3.17248e-11)
(8.95366e-11 -1.52469e-10 2.25917e-10)
(8.5852e-11 -3.98635e-10 4.66839e-10)
(5.85176e-11 -6.25215e-10 7.06707e-10)
(4.61079e-11 -8.32366e-10 9.35842e-10)
(9.86426e-11 -1.01489e-09 1.145e-09)
(2.88619e-10 -1.24783e-09 1.29453e-09)
(6.74234e-10 -1.78966e-09 1.3106e-09)
(-2.586e-11 2.07434e-11 4.50347e-11)
(1.4096e-11 -2.13134e-10 2.07778e-10)
(5.75126e-12 -4.58899e-10 4.06655e-10)
(-1.6627e-11 -6.72724e-10 6.10174e-10)
(-2.19702e-11 -8.49077e-10 7.99677e-10)
(3.74913e-11 -9.84836e-10 9.54949e-10)
(2.30858e-10 -1.16651e-09 1.04232e-09)
(6.04687e-10 -1.66261e-09 1.02728e-09)
(-4.004e-11 2.85745e-12 4.82029e-11)
(-7.35454e-12 -2.27866e-10 1.8111e-10)
(-1.39258e-11 -4.70201e-10 3.35111e-10)
(-3.02537e-11 -6.73653e-10 4.92019e-10)
(-2.84377e-11 -8.29891e-10 6.34471e-10)
(3.66421e-11 -9.41473e-10 7.42961e-10)
(2.30379e-10 -1.10404e-09 7.95224e-10)
(5.93137e-10 -1.58095e-09 7.77751e-10)
(-4.2861e-11 -9.55548e-13 3.99417e-11)
(-9.40545e-12 -2.25465e-10 1.37843e-10)
(-1.22052e-11 -4.6128e-10 2.46555e-10)
(-2.33718e-11 -6.56247e-10 3.55583e-10)
(-1.62852e-11 -8.01558e-10 4.52445e-10)
(5.22878e-11 -9.03552e-10 5.23163e-10)
(2.45282e-10 -1.06097e-09 5.54607e-10)
(5.99792e-10 -1.5283e-09 5.41501e-10)
(-4.27856e-11 -8.84493e-13 2.56759e-11)
(-7.46449e-12 -2.194e-10 8.52448e-11)
(-7.18341e-12 -4.48949e-10 1.4964e-10)
(-1.48809e-11 -6.37907e-10 2.13287e-10)
(-4.58982e-12 -7.77916e-10 2.68986e-10)
(6.58457e-11 -8.76938e-10 3.08795e-10)
(2.58024e-10 -1.03376e-09 3.25894e-10)
(6.0723e-10 -1.49614e-09 3.18094e-10)
(-4.24467e-11 -3.66309e-13 8.80035e-12)
(-6.10215e-12 -2.15364e-10 2.87524e-11)
(-4.26264e-12 -4.41271e-10 5.00442e-11)
(-1.02792e-11 -6.27141e-10 7.09195e-11)
(1.48854e-12 -7.65022e-10 8.90511e-11)
(7.27141e-11 -8.63363e-10 1.01899e-10)
(2.64417e-10 -1.02045e-09 1.0735e-10)
(6.11038e-10 -1.48073e-09 1.04774e-10)
(3.60806e-10 6.5155e-10 3.58924e-10)
(6.2392e-10 4.27987e-10 7.98889e-10)
(6.60337e-10 1.29872e-10 1.10959e-09)
(6.3592e-10 -1.41442e-10 1.38212e-09)
(6.28678e-10 -4.10017e-10 1.65444e-09)
(6.96301e-10 -7.20838e-10 1.94996e-09)
(9.01184e-10 -1.21503e-09 2.2889e-09)
(1.19809e-09 -2.13333e-09 2.68263e-09)
(5.9727e-11 4.73411e-10 2.61935e-10)
(1.2821e-10 3.1141e-10 6.74225e-10)
(1.35819e-10 8.10334e-11 9.69199e-10)
(1.16527e-10 -1.73528e-10 1.22191e-09)
(1.01318e-10 -4.6198e-10 1.47029e-09)
(1.15414e-10 -7.98164e-10 1.74087e-09)
(1.78114e-10 -1.25659e-09 2.07017e-09)
(2.54138e-10 -2.03197e-09 2.51561e-09)
(-7.52253e-11 4.65369e-10 2.49968e-10)
(-1.57943e-10 3.07414e-10 6.59232e-10)
(-1.79029e-10 8.15252e-11 9.51632e-10)
(-1.77107e-10 -1.69056e-10 1.20234e-09)
(-1.83797e-10 -4.54001e-10 1.44903e-09)
(-2.24626e-10 -7.86966e-10 1.71798e-09)
(-3.19969e-10 -1.24204e-09 2.04546e-09)
(-4.36502e-10 -2.01101e-09 2.48832e-09)
(-3.59083e-10 6.22597e-10 3.20891e-10)
(-6.30412e-10 4.16847e-10 7.50306e-10)
(-6.80211e-10 1.33525e-10 1.05284e-09)
(-6.73068e-10 -1.26182e-10 1.31931e-09)
(-6.87434e-10 -3.84684e-10 1.58666e-09)
(-7.81406e-10 -6.8618e-10 1.87759e-09)
(-1.0174e-09 -1.17046e-09 2.21192e-09)
(-1.34992e-09 -2.06924e-09 2.60023e-09)
(-3.05356e-10 5.58067e-10 3.29793e-10)
(-5.47216e-10 3.05087e-10 7.40789e-10)
(-5.9269e-10 2.423e-12 1.03485e-09)
(-5.89052e-10 -2.5572e-10 1.29509e-09)
(-6.04128e-10 -4.99178e-10 1.56167e-09)
(-6.88237e-10 -7.69198e-10 1.86437e-09)
(-9.01407e-10 -1.20433e-09 2.22271e-09)
(-1.28016e-09 -2.05526e-09 2.55833e-09)
(-8.02597e-11 2.21281e-10 6.36849e-11)
(-2.17443e-10 4.90078e-12 3.17207e-10)
(-2.33895e-10 -2.40727e-10 5.84989e-10)
(-2.16801e-10 -4.73588e-10 8.35344e-10)
(-2.18005e-10 -7.02507e-10 1.0822e-09)
(-2.8738e-10 -9.36187e-10 1.33861e-09)
(-4.94304e-10 -1.25789e-09 1.58215e-09)
(-9.04152e-10 -1.89656e-09 1.70666e-09)
(3.64884e-11 6.19376e-11 2.69699e-11)
(-2.8266e-11 -1.55105e-10 2.12577e-10)
(-2.64431e-11 -3.88343e-10 4.46462e-10)
(-6.47753e-12 -6.03025e-10 6.80549e-10)
(-6.75852e-12 -7.98638e-10 9.04621e-10)
(-7.70131e-11 -9.70095e-10 1.10915e-09)
(-2.88278e-10 -1.19203e-09 1.25474e-09)
(-6.92516e-10 -1.71511e-09 1.26871e-09)
(8.24609e-11 1.30617e-12 4.16194e-11)
(4.97211e-11 -2.18888e-10 1.98416e-10)
(5.90271e-11 -4.52215e-10 3.92033e-10)
(7.68711e-11 -6.54355e-10 5.90825e-10)
(7.22454e-11 -8.19254e-10 7.76023e-10)
(-2.35745e-12 -9.43985e-10 9.27419e-10)
(-2.14634e-10 -1.11458e-09 1.01165e-09)
(-6.05251e-10 -1.59144e-09 9.95028e-10)
(9.67364e-11 -1.80484e-11 4.5814e-11)
(7.28404e-11 -2.36205e-10 1.74648e-10)
(8.23389e-11 -4.66705e-10 3.24933e-10)
(9.63099e-11 -6.58721e-10 4.78305e-10)
(8.67318e-11 -8.03552e-10 6.17414e-10)
(8.62887e-12 -9.04024e-10 7.22877e-10)
(-2.02078e-10 -1.05527e-09 7.72722e-10)
(-5.80087e-10 -1.51244e-09 7.54048e-10)
(9.97026e-11 -2.28221e-11 3.8373e-11)
(7.59756e-11 -2.35629e-10 1.33621e-10)
(8.30086e-11 -4.60161e-10 2.39879e-10)
(9.33576e-11 -6.43957e-10 3.46496e-10)
(8.01337e-11 -7.77917e-10 4.41012e-10)
(1.23887e-13 -8.68708e-10 5.09581e-10)
(-2.08389e-10 -1.01458e-09 5.39304e-10)
(-5.76982e-10 -1.4618e-09 5.25347e-10)
(9.96927e-11 -2.3329e-11 2.47856e-11)
(7.46931e-11 -2.30698e-10 8.28576e-11)
(7.94484e-11 -4.49361e-10 1.45858e-10)
(8.73013e-11 -6.27361e-10 2.08111e-10)
(7.1927e-11 -7.56078e-10 2.6243e-10)
(-8.90015e-12 -8.43835e-10 3.00959e-10)
(-2.15634e-10 -9.88952e-10 3.17029e-10)
(-5.7814e-10 -1.43097e-09 3.0872e-10)
(9.93849e-11 -2.3083e-11 8.51185e-12)
(7.36445e-11 -2.27203e-10 2.79801e-11)
(7.72225e-11 -4.42425e-10 4.88195e-11)
(8.38635e-11 -6.17453e-10 6.92391e-11)
(6.75287e-11 -7.44079e-10 8.6916e-11)
(-1.35716e-11 -8.3113e-10 9.93398e-11)
(-2.19352e-10 -9.76445e-10 1.04449e-10)
(-5.78881e-10 -1.41623e-09 1.01703e-10)
(1.19661e-09 -2.18844e-09 2.7173e-09)
(8.96658e-10 -1.97298e-09 1.79897e-09)
(6.86742e-10 -1.8131e-09 1.30532e-09)
(6.08371e-10 -1.70037e-09 9.9913e-10)
(5.96136e-10 -1.62203e-09 7.46423e-10)
(6.02981e-10 -1.56974e-09 5.17114e-10)
(6.10228e-10 -1.53751e-09 3.03543e-10)
(6.13791e-10 -1.52207e-09 1.00019e-10)
(2.5287e-10 -2.01847e-09 2.61883e-09)
(1.73699e-10 -1.75134e-09 1.84396e-09)
(1.06614e-10 -1.60091e-09 1.38682e-09)
(8.52687e-11 -1.51174e-09 1.05415e-09)
(8.92702e-11 -1.45318e-09 7.71983e-10)
(9.89634e-11 -1.41317e-09 5.26311e-10)
(1.06284e-10 -1.38728e-09 3.06179e-10)
(1.09789e-10 -1.37442e-09 1.00521e-10)
(-4.37481e-10 -1.98885e-09 2.59989e-09)
(-3.23932e-10 -1.7239e-09 1.8312e-09)
(-2.31147e-10 -1.5748e-09 1.37693e-09)
(-1.90445e-10 -1.48659e-09 1.04657e-09)
(-1.79976e-10 -1.42872e-09 7.66414e-10)
(-1.79381e-10 -1.38919e-09 5.22518e-10)
(-1.80123e-10 -1.36361e-09 3.03979e-10)
(-1.80427e-10 -1.35091e-09 9.98006e-11)
(-1.35094e-09 -2.09877e-09 2.65964e-09)
(-1.02117e-09 -1.88765e-09 1.76035e-09)
(-7.86603e-10 -1.73097e-09 1.27542e-09)
(-6.88677e-10 -1.62078e-09 9.76178e-10)
(-6.61671e-10 -1.54434e-09 7.29584e-10)
(-6.58004e-10 -1.49341e-09 5.05655e-10)
(-6.58524e-10 -1.46207e-09 2.96901e-10)
(-6.5881e-10 -1.44707e-09 9.78439e-11)
)
;
    }
    symmetry
    {
        type            symmetry;
    }
    bottom
    {
        type            calculated;
        value           uniform (0 0 0);
    }
}


// ************************************************************************* //
