/*--------------------------------*- C++ -*----------------------------------*\
| =========                 |                                                 |
| \\      /  F ield         | OpenFOAM: The Open Source CFD Toolbox           |
|  \\    /   O peration     | Version:  v1912                                 |
|   \\  /    A nd           | Website:  www.openfoam.com                      |
|    \\/     M anipulation  |                                                 |
\*---------------------------------------------------------------------------*/
FoamFile
{
    version     2.0;
    format      ascii;
    class       volSymmTensorField;
    location    "0.48/solid";
    object      epsilon;
}
// * * * * * * * * * * * * * * * * * * * * * * * * * * * * * * * * * * * * * //

dimensions      [0 0 0 0 0 0 0];


internalField   nonuniform List<symmTensor> 
256
(
(-2.67188e-06 1.29005e-07 -5.07415e-08 1.14357e-06 1.38296e-07 -2.7822e-06)
(-4.38584e-07 -5.79355e-08 -2.04017e-08 7.21355e-07 1.37997e-07 -2.49867e-06)
(-4.30733e-07 7.12464e-08 2.01164e-08 7.0778e-07 1.39843e-07 -2.47189e-06)
(-2.55678e-06 -1.19424e-07 5.11413e-08 1.09208e-06 1.45084e-07 -2.70947e-06)
(-2.68596e-06 -9.36596e-09 -7.46748e-08 -3.3934e-07 1.21109e-09 -2.77298e-06)
(-7.25407e-07 -2.89081e-08 -3.26799e-08 -1.28512e-07 9.18804e-09 -2.47866e-06)
(-7.15254e-07 4.11624e-08 3.3109e-08 -1.38183e-07 1.06757e-08 -2.45162e-06)
(-2.56628e-06 1.48716e-08 7.55931e-08 -3.64963e-07 6.39557e-09 -2.70267e-06)
(-2.73469e-06 -2.26747e-08 -7.94178e-08 -3.55133e-07 -1.36002e-08 -2.8194e-06)
(-7.43489e-07 -2.02882e-08 -3.54346e-08 -2.35407e-07 -1.17626e-08 -2.49096e-06)
(-7.33692e-07 2.99927e-08 3.62785e-08 -2.43923e-07 -1.07577e-08 -2.46328e-06)
(-2.61314e-06 2.66578e-08 8.0537e-08 -3.78328e-07 -1.00084e-08 -2.74754e-06)
(-2.79001e-06 -1.23785e-08 -8.18062e-08 -2.92179e-07 -4.83704e-09 -2.88803e-06)
(-7.07083e-07 -1.34275e-08 -3.65958e-08 -2.75363e-07 -5.5503e-09 -2.5394e-06)
(-6.97485e-07 2.06283e-08 3.75239e-08 -2.83128e-07 -4.83262e-09 -2.51131e-06)
(-2.66659e-06 1.54148e-08 8.29883e-08 -3.13944e-07 -2.19083e-09 -2.81496e-06)
(-2.87654e-06 -1.0619e-09 -8.39855e-08 -2.75108e-07 8.52595e-09 -2.98561e-06)
(-6.9505e-07 -6.28123e-09 -3.77291e-08 -3.04471e-07 7.43276e-09 -2.62697e-06)
(-6.85406e-07 1.13517e-08 3.86248e-08 -3.11972e-07 8.01272e-09 -2.59858e-06)
(-2.75142e-06 3.22884e-09 8.52007e-08 -2.96076e-07 1.06589e-08 -2.91167e-06)
(-3.02098e-06 1.73936e-08 -8.56799e-08 -3.62739e-07 3.04986e-08 -3.12905e-06)
(-7.40288e-07 4.50931e-09 -3.8737e-08 -3.75428e-07 3.00401e-08 -2.7687e-06)
(-7.30751e-07 -1.61921e-09 3.96171e-08 -3.8281e-07 3.05708e-08 -2.74e-06)
(-2.89511e-06 -1.63389e-08 8.69566e-08 -3.83443e-07 3.23732e-08 -3.05432e-06)
(-3.24499e-06 5.5704e-08 -8.52256e-08 -9.74283e-07 6.89885e-08 -3.34348e-06)
(-8.77328e-07 2.26443e-08 -3.86572e-08 -8.71319e-07 7.17378e-08 -3.00077e-06)
(-8.68651e-07 -2.28581e-08 3.96061e-08 -8.753e-07 7.22511e-08 -2.972e-06)
(-3.12145e-06 -5.63279e-08 8.65909e-08 -9.87614e-07 7.06702e-08 -3.2685e-06)
(-3.62122e-06 8.04636e-08 -8.00193e-08 -3.72468e-06 9.4634e-08 -3.72387e-06)
(-1.08635e-06 3.68553e-08 -3.63124e-08 -3.46606e-06 1.00716e-07 -3.46451e-06)
(-1.0789e-06 -3.70039e-08 3.72801e-08 -3.43932e-06 1.01158e-07 -3.43775e-06)
(-3.50357e-06 -8.13039e-08 8.13227e-08 -3.65498e-06 9.59364e-08 -3.65449e-06)
(-2.22785e-06 8.17184e-08 -3.70132e-08 5.56458e-07 -5.66517e-08 -4.10196e-07)
(-3.10833e-07 -6.55917e-08 -9.34613e-09 2.03646e-07 7.52176e-09 -3.47173e-07)
(-3.02052e-07 7.30262e-08 1.12733e-08 1.90073e-07 1.25149e-08 -3.46483e-07)
(-2.10792e-06 -7.44672e-08 3.8132e-08 5.06996e-07 -4.12723e-08 -4.10076e-07)
(-2.24667e-06 -1.59115e-08 -5.4279e-08 -1.72492e-07 -8.13182e-09 -6.2556e-07)
(-5.23128e-07 -3.09314e-08 -1.93209e-08 -1.60511e-09 2.38071e-08 -5.31628e-07)
(-5.12121e-07 3.71364e-08 2.26147e-08 -1.23922e-08 2.70522e-08 -5.31861e-07)
(-2.12456e-06 1.86819e-08 5.60193e-08 -2.00802e-07 2.49396e-09 -6.29008e-07)
(-2.27285e-06 -2.3332e-08 -5.5839e-08 -2.27183e-07 -4.88423e-09 -6.48292e-07)
(-5.28746e-07 -2.11557e-08 -2.05557e-08 -1.28523e-07 5.36667e-09 -5.45378e-07)
(-5.18215e-07 2.55256e-08 2.42859e-08 -1.37076e-07 7.69602e-09 -5.46543e-07)
(-2.14903e-06 2.49643e-08 5.77429e-08 -2.50801e-07 3.05651e-09 -6.54467e-07)
(-2.31362e-06 -1.322e-08 -5.61761e-08 -2.3278e-07 -1.50113e-09 -6.4748e-07)
(-4.90923e-07 -1.43646e-08 -2.02788e-08 -2.21626e-07 1.13869e-09 -5.39173e-07)
(-4.80516e-07 1.72666e-08 2.40382e-08 -2.29113e-07 2.95927e-09 -5.40858e-07)
(-2.18737e-06 1.4431e-08 5.81167e-08 -2.54224e-07 4.78511e-09 -6.55126e-07)
(-2.39328e-06 -2.00823e-09 -5.71476e-08 -2.42082e-07 1.56043e-08 -6.61224e-07)
(-4.77576e-07 -7.40391e-09 -2.06913e-08 -2.73117e-07 1.61414e-08 -5.48909e-07)
(-4.66948e-07 9.07179e-09 2.43565e-08 -2.8033e-07 1.76608e-08 -5.50873e-07)
(-2.26419e-06 2.77224e-09 5.91062e-08 -2.62644e-07 2.07964e-08 -6.69672e-07)
(-2.54053e-06 1.71216e-08 -5.78625e-08 -3.03109e-07 4.23587e-08 -7.03433e-07)
(-5.22026e-07 3.48737e-09 -2.13081e-08 -3.16157e-07 4.23437e-08 -5.88111e-07)
(-5.11287e-07 -3.24079e-09 2.48922e-08 -3.23176e-07 4.36368e-08 -5.90315e-07)
(-2.40901e-06 -1.71472e-08 5.98629e-08 -3.23156e-07 4.67049e-08 -7.12571e-07)
(-2.7879e-06 5.77084e-08 -5.71465e-08 -7.9689e-07 6.50134e-08 -8.02047e-07)
(-6.61344e-07 2.232e-08 -2.13597e-08 -6.85282e-07 6.56363e-08 -6.87338e-07)
(-6.51311e-07 -2.4254e-08 2.47574e-08 -6.8857e-07 6.66115e-08 -6.89969e-07)
(-2.65698e-06 -5.91036e-08 5.91285e-08 -8.0869e-07 6.82912e-08 -8.12311e-07)
(-3.24605e-06 8.5485e-08 -5.48645e-08 -3.34368e-06 6.96515e-08 -9.75352e-07)
(-8.77763e-07 3.89667e-08 -2.11928e-08 -3.0022e-06 7.22385e-08 -8.69723e-07)
(-8.69117e-07 -3.9435e-08 2.37067e-08 -2.97343e-06 7.27214e-08 -8.73074e-07)
(-3.12184e-06 -8.65857e-08 5.64197e-08 -3.26834e-06 7.1194e-08 -9.87404e-07)
(-1.94301e-06 5.14742e-08 -1.51709e-08 3.28582e-07 2.94321e-08 -2.7462e-08)
(-2.24278e-07 -7.69104e-08 -6.89956e-10 2.62186e-08 8.53225e-08 -3.12391e-08)
(-2.15625e-07 8.02965e-08 2.35028e-09 1.36673e-08 8.9139e-08 -3.25297e-08)
(-1.82638e-06 -4.60302e-08 1.57339e-08 2.84128e-07 4.11984e-08 -3.13276e-08)
(-1.98922e-06 -1.82302e-08 -2.07083e-08 -1.95447e-07 4.49741e-08 -1.3775e-07)
(-3.81961e-07 -3.32831e-08 -3.87911e-09 -4.97437e-08 7.29287e-08 -1.45028e-07)
(-3.70884e-07 3.63006e-08 6.6444e-09 -6.04134e-08 7.61192e-08 -1.47839e-07)
(-1.86941e-06 1.97364e-08 2.17646e-08 -2.23465e-07 5.50736e-08 -1.46111e-07)
(-2.0163e-06 -2.19999e-08 -1.94557e-08 -1.95603e-07 3.58127e-08 -1.87356e-07)
(-3.80454e-07 -2.10905e-08 -3.60043e-09 -1.14435e-07 4.52715e-08 -1.96258e-07)
(-3.69745e-07 2.28247e-08 6.50386e-09 -1.23059e-07 4.79212e-08 -2.00137e-07)
(-1.89445e-06 2.25797e-08 2.0613e-08 -2.1976e-07 4.43328e-08 -1.98815e-07)
(-2.05427e-06 -1.29786e-08 -1.83118e-08 -1.87551e-07 2.885e-08 -2.0161e-07)
(-3.44124e-07 -1.46708e-08 -2.72556e-09 -1.82466e-07 3.14546e-08 -2.10978e-07)
(-3.33454e-07 1.54597e-08 5.48675e-09 -1.89999e-07 3.37029e-08 -2.15558e-07)
(-1.92964e-06 1.33545e-08 1.94412e-08 -2.09491e-07 3.61041e-08 -2.15091e-07)
(-2.13225e-06 -2.19288e-09 -1.80434e-08 -1.88274e-07 3.54022e-08 -2.16837e-07)
(-3.31665e-07 -8.13012e-09 -2.53489e-09 -2.2092e-07 3.60184e-08 -2.26067e-07)
(-3.20664e-07 8.20474e-09 5.12785e-09 -2.2811e-07 3.79557e-08 -2.3111e-07)
(-2.00418e-06 2.34841e-09 1.91363e-08 -2.09121e-07 4.1601e-08 -2.3164e-07)
(-2.28229e-06 1.74748e-08 -1.7835e-08 -2.29936e-07 4.76712e-08 -2.52783e-07)
(-3.77571e-07 2.94343e-09 -2.69107e-09 -2.4343e-07 4.76298e-08 -2.61678e-07)
(-3.66327e-07 -3.76771e-09 5.12623e-09 -2.50326e-07 4.92531e-08 -2.67094e-07)
(-2.15076e-06 -1.78889e-08 1.89052e-08 -2.49962e-07 5.28346e-08 -2.68625e-07)
(-2.54119e-06 5.83665e-08 -1.72822e-08 -6.92414e-07 4.71156e-08 -3.13881e-07)
(-5.20251e-07 2.20794e-08 -2.91165e-09 -5.80797e-07 4.67789e-08 -3.22859e-07)
(-5.09593e-07 -2.45618e-08 4.95576e-09 -5.83862e-07 4.79336e-08 -3.28646e-07)
(-2.40881e-06 -5.99445e-08 1.82388e-08 -7.03843e-07 5.08626e-08 -3.30716e-07)
(-3.02315e-06 8.58691e-08 -1.70939e-08 -3.12907e-06 3.31992e-08 -3.63124e-07)
(-7.39262e-07 3.89267e-08 -3.23112e-09 -2.77068e-06 3.24867e-08 -3.72177e-07)
(-7.29912e-07 -3.94804e-08 3.98625e-09 -2.74193e-06 3.29242e-08 -3.78257e-07)
(-2.89591e-06 -8.69943e-08 1.75221e-08 -3.054e-06 3.46566e-08 -3.80713e-07)
(-1.77657e-06 3.89037e-08 -4.81017e-09 2.46839e-07 5.58968e-08 8.13402e-10)
(-1.85918e-07 -8.01574e-08 2.81954e-09 -2.70225e-08 8.88212e-08 -1.42071e-08)
(-1.77924e-07 8.1062e-08 -1.35206e-09 -3.8508e-08 9.1582e-08 -1.52169e-08)
(-1.66423e-06 -3.48584e-08 5.18314e-09 2.06911e-07 6.44334e-08 -2.05528e-09)
(-1.82763e-06 -1.81696e-08 -5.56595e-09 -2.3228e-07 6.66257e-08 -6.02806e-08)
(-3.17698e-07 -3.36593e-08 3.50461e-09 -1.00109e-07 8.33598e-08 -8.8178e-08)
(-3.07314e-07 3.48108e-08 -1.01789e-09 -1.10187e-07 8.59556e-08 -9.05389e-08)
(-1.71183e-06 1.8927e-08 6.33056e-09 -2.58804e-07 7.46915e-08 -6.70267e-08)
(-1.8587e-06 -2.01448e-08 -3.8063e-09 -2.04497e-07 5.88388e-08 -1.17782e-07)
(-3.15147e-07 -2.04071e-08 4.46546e-09 -1.33418e-07 6.46051e-08 -1.4997e-07)
(-3.04964e-07 2.07254e-08 -1.92131e-09 -1.41906e-07 6.69619e-08 -1.5328e-07)
(-1.74049e-06 2.01939e-08 4.64474e-09 -2.28523e-07 6.62024e-08 -1.27304e-07)
(-1.89857e-06 -1.20082e-08 -2.43353e-09 -1.69271e-07 4.84005e-08 -1.55142e-07)
(-2.82762e-07 -1.4341e-08 5.33635e-09 -1.68044e-07 4.98854e-08 -1.88837e-07)
(-2.72513e-07 1.40795e-08 -3.00655e-09 -1.7563e-07 5.20037e-08 -1.92842e-07)
(-1.77729e-06 1.19846e-08 3.21703e-09 -1.91584e-07 5.50296e-08 -1.66713e-07)
(-1.97758e-06 -1.82448e-09 -1.80454e-09 -1.51839e-07 4.39008e-08 -1.85889e-07)
(-2.73231e-07 -8.24643e-09 5.66562e-09 -1.8552e-07 4.42245e-08 -2.20184e-07)
(-2.62582e-07 7.60493e-09 -3.56156e-09 -1.92789e-07 4.60971e-08 -2.24713e-07)
(-1.85246e-06 1.71371e-09 2.51666e-09 -1.73136e-07 4.97346e-08 -1.98994e-07)
(-2.12937e-06 1.76823e-08 -1.53107e-09 -1.86308e-07 4.0626e-08 -2.21744e-07)
(-3.21367e-07 2.63728e-09 5.58923e-09 -2.00642e-07 4.06957e-08 -2.5613e-07)
(-3.10404e-07 -3.86749e-09 -3.71958e-09 -2.076e-07 4.22567e-08 -2.61075e-07)
(-2.00019e-06 -1.82264e-08 2.17142e-09 -2.06713e-07 4.5495e-08 -2.36045e-07)
(-2.39215e-06 5.78249e-08 -1.52077e-09 -6.44679e-07 2.77449e-08 -2.57862e-07)
(-4.65733e-07 2.14141e-08 5.16961e-09 -5.36318e-07 2.75611e-08 -2.91986e-07)
(-4.55256e-07 -2.40744e-08 -3.79044e-09 -5.39468e-07 2.86377e-08 -2.97239e-07)
(-2.26111e-06 -5.94253e-08 1.99561e-09 -6.56457e-07 3.12044e-08 -2.73047e-07)
(-2.87888e-06 8.4362e-08 -1.87929e-09 -2.98826e-06 1.50585e-08 -2.66947e-07)
(-6.84542e-07 3.79238e-08 4.84104e-09 -2.63145e-06 1.3898e-08 -3.00646e-07)
(-6.75243e-07 -3.85634e-08 -4.74654e-09 -2.60298e-06 1.42615e-08 -3.05998e-07)
(-2.75144e-06 -8.54964e-08 1.83394e-09 -2.91396e-06 1.62944e-08 -2.82447e-07)
(-1.68208e-06 3.46716e-08 -1.4713e-09 2.1331e-07 5.33146e-08 -6.84946e-09)
(-1.71512e-07 -7.92187e-08 2.80101e-09 -4.59278e-08 7.00969e-08 -1.71522e-08)
(-1.64118e-07 7.86673e-08 -1.62469e-09 -5.65279e-08 7.20624e-08 -1.79061e-08)
(-1.57298e-06 -3.15643e-08 1.77269e-09 1.76906e-07 5.93548e-08 -9.02222e-09)
(-1.73309e-06 -1.7342e-08 -1.00152e-09 -2.50558e-07 6.21598e-08 -5.24871e-08)
(-2.9412e-07 -3.29427e-08 4.37161e-09 -1.25414e-07 7.07095e-08 -7.22526e-08)
(-2.84467e-07 3.29706e-08 -2.30322e-09 -1.34896e-07 7.26413e-08 -7.41232e-08)
(-1.62053e-06 1.7628e-08 1.6303e-09 -2.75545e-07 6.80995e-08 -5.78681e-08)
(-1.76711e-06 -1.86893e-08 3.37991e-10 -2.16198e-07 5.9417e-08 -1.06415e-07)
(-2.93231e-07 -1.9701e-08 5.29633e-09 -1.50284e-07 6.23014e-08 -1.29438e-07)
(-2.83661e-07 1.91818e-08 -3.15006e-09 -1.58548e-07 6.41398e-08 -1.32131e-07)
(-1.65189e-06 1.84324e-08 3.57937e-10 -2.39762e-07 6.50941e-08 -1.14217e-07)
(-1.80966e-06 -1.10956e-08 1.35786e-09 -1.66463e-07 5.07788e-08 -1.53291e-07)
(-2.64865e-07 -1.39441e-08 5.90345e-09 -1.6713e-07 5.14429e-08 -1.77306e-07)
(-2.55138e-07 1.30937e-08 -3.9512e-09 -1.74711e-07 5.31581e-08 -1.80644e-07)
(-1.69112e-06 1.08554e-08 -7.14219e-10 -1.88901e-07 5.609e-08 -1.63022e-07)
(-1.89047e-06 -1.42138e-09 1.87741e-09 -1.37146e-07 4.15842e-08 -1.92585e-07)
(-2.58393e-07 -8.1938e-09 6.12465e-09 -1.71177e-07 4.18038e-08 -2.16902e-07)
(-2.4821e-07 7.17894e-09 -4.40589e-09 -1.78534e-07 4.33511e-08 -2.20764e-07)
(-1.76783e-06 1.17564e-09 -1.3131e-09 -1.58824e-07 4.63698e-08 -2.03888e-07)
(-2.04336e-06 1.76702e-08 2.01259e-09 -1.69094e-07 3.09915e-08 -2.26668e-07)
(-3.08264e-07 2.39449e-09 6.01035e-09 -1.83949e-07 3.13198e-08 -2.50944e-07)
(-2.97718e-07 -3.82321e-09 -4.55397e-09 -1.91035e-07 3.26117e-08 -2.55225e-07)
(-1.91626e-06 -1.82719e-08 -1.53918e-09 -1.89976e-07 3.50131e-08 -2.39222e-07)
(-2.30653e-06 5.7033e-08 1.77935e-09 -6.24014e-07 1.59271e-08 -2.51106e-07)
(-4.52885e-07 2.07669e-08 5.57796e-09 -5.18497e-07 1.62129e-08 -2.75155e-07)
(-4.42751e-07 -2.35289e-08 -4.6004e-09 -5.21815e-07 1.7093e-08 -2.79712e-07)
(-2.17693e-06 -5.86425e-08 -1.47839e-09 -6.36329e-07 1.87675e-08 -2.64512e-07)
(-2.79138e-06 8.28604e-08 1.33096e-09 -2.89813e-06 7.55319e-09 -2.54903e-07)
(-6.70601e-07 3.70084e-08 5.25191e-09 -2.54687e-06 6.90045e-09 -2.79147e-07)
(-6.61556e-07 -3.77386e-08 -5.36447e-09 -2.5186e-06 7.18899e-09 -2.8374e-07)
(-2.66435e-06 -8.40239e-08 -1.48045e-09 -2.82446e-06 8.54311e-09 -2.68504e-07)
(-1.62759e-06 3.3311e-08 -6.21885e-10 1.97419e-07 4.15786e-08 -1.31549e-08)
(-1.65954e-07 -7.7652e-08 1.79116e-09 -5.44322e-08 4.97394e-08 -1.85065e-08)
(-1.58975e-07 7.62541e-08 -9.48313e-10 -6.43793e-08 5.10578e-08 -1.91186e-08)
(-1.52058e-06 -3.07847e-08 8.51067e-10 1.63521e-07 4.5588e-08 -1.49188e-08)
(-1.67845e-06 -1.6569e-08 -1.64562e-10 -2.57231e-07 4.72791e-08 -5.49827e-08)
(-2.85951e-07 -3.21772e-08 2.96925e-09 -1.35827e-07 5.13735e-08 -6.54661e-08)
(-2.76827e-07 3.15372e-08 -1.44036e-09 -1.44845e-07 5.26923e-08 -6.70229e-08)
(-1.56802e-06 1.65692e-08 6.48271e-10 -2.80992e-07 5.13017e-08 -5.94509e-08)
(-1.71435e-06 -1.77707e-08 6.51939e-10 -2.22812e-07 4.69756e-08 -1.0407e-07)
(-2.87089e-07 -1.9224e-08 3.58872e-09 -1.59446e-07 4.83034e-08 -1.16368e-07)
(-2.77975e-07 1.8193e-08 -1.96734e-09 -1.675e-07 4.95891e-08 -1.1865e-07)
(-1.60111e-06 1.73285e-08 -1.08316e-10 -2.45883e-07 5.09245e-08 -1.10673e-07)
(-1.75898e-06 -1.05036e-08 1.26082e-09 -1.68865e-07 4.12549e-08 -1.51416e-07)
(-2.61686e-07 -1.37027e-08 3.9307e-09 -1.70318e-07 4.15514e-08 -1.64178e-07)
(-2.52348e-07 1.24865e-08 -2.4454e-09 -1.77864e-07 4.27785e-08 -1.67056e-07)
(-1.64222e-06 1.01315e-08 -7.54226e-10 -1.91283e-07 4.50431e-08 -1.59816e-07)
(-1.84124e-06 -1.16879e-09 1.57103e-09 -1.34948e-07 3.25832e-08 -1.92435e-07)
(-2.5743e-07 -8.17185e-09 4.02466e-09 -1.68931e-07 3.28029e-08 -2.05273e-07)
(-2.47593e-07 6.91908e-09 -2.73158e-09 -1.76349e-07 3.39263e-08 -2.08657e-07)
(-1.7202e-06 8.39001e-10 -1.13123e-09 -1.56879e-07 3.60572e-08 -2.02377e-07)
(-1.99462e-06 1.75834e-08 1.60869e-09 -1.65647e-07 2.18649e-08 -2.25035e-07)
(-3.08329e-07 2.20918e-09 3.90336e-09 -1.80604e-07 2.23211e-08 -2.37849e-07)
(-2.98091e-07 -3.77758e-09 -2.83973e-09 -1.87806e-07 2.32638e-08 -2.41644e-07)
(-1.86887e-06 -1.82265e-08 -1.25132e-09 -1.86928e-07 2.48098e-08 -2.3624e-07)
(-2.25698e-06 5.64539e-08 1.38088e-09 -6.15498e-07 9.66517e-09 -2.4644e-07)
(-4.52682e-07 2.03576e-08 3.58243e-09 -5.11562e-07 1.02019e-08 -2.59262e-07)
(-4.42807e-07 -2.32087e-08 -2.90681e-09 -5.1503e-07 1.08431e-08 -2.63322e-07)
(-2.12831e-06 -5.80811e-08 -1.16765e-09 -6.28284e-07 1.175e-08 -2.58506e-07)
(-2.73895e-06 8.19037e-08 1.0101e-09 -2.84184e-06 4.22e-09 -2.53543e-07)
(-6.6933e-07 3.6461e-08 3.29601e-09 -2.49469e-06 4.05214e-09 -2.66797e-07)
(-6.60494e-07 -3.72721e-08 -3.43652e-09 -2.46656e-06 4.26182e-09 -2.70876e-07)
(-2.61221e-06 -8.31036e-08 -1.13961e-09 -2.76864e-06 4.94392e-09 -2.65791e-07)
(-1.5971e-06 3.27672e-08 -3.45945e-10 1.8961e-07 2.60924e-08 -1.64215e-08)
(-1.63432e-07 -7.6604e-08 8.99813e-10 -5.85196e-08 2.98442e-08 -1.91504e-08)
(-1.56707e-07 7.47412e-08 -3.95781e-10 -6.80436e-08 3.06027e-08 -1.96859e-08)
(-1.49132e-06 -3.05725e-08 4.88619e-10 1.57298e-07 2.83786e-08 -1.79457e-08)
(-1.64795e-06 -1.61018e-08 -1.26577e-10 -2.59292e-07 2.90324e-08 -5.75511e-08)
(-2.82653e-07 -3.17077e-08 1.51419e-09 -1.39876e-07 3.08777e-08 -6.29399e-08)
(-2.73854e-07 3.06959e-08 -5.8111e-10 -1.48585e-07 3.16427e-08 -6.43139e-08)
(-1.53878e-06 1.59422e-08 4.30828e-10 -2.82227e-07 3.13515e-08 -6.14524e-08)
(-1.68492e-06 -1.7274e-08 2.83383e-10 -2.25785e-07 2.92245e-08 -1.0336e-07)
(-2.8521e-07 -1.89746e-08 1.83536e-09 -1.6365e-07 2.98079e-08 -1.09699e-07)
(-2.7638e-07 1.76472e-08 -8.28882e-10 -1.71553e-07 3.05629e-08 -1.11734e-07)
(-1.57285e-06 1.67253e-08 6.31781e-11 -2.4848e-07 3.15363e-08 -1.09198e-07)
(-1.73081e-06 -1.01905e-08 5.86425e-10 -1.71709e-07 2.60405e-08 -1.48564e-07)
(-2.61585e-07 -1.35986e-08 1.9951e-09 -1.73449e-07 2.61903e-08 -1.55119e-07)
(-2.52489e-07 1.21593e-08 -1.06458e-09 -1.80959e-07 2.69202e-08 -1.57714e-07)
(-1.61512e-06 9.73881e-09 -2.60271e-10 -1.94064e-07 2.82922e-08 -1.56095e-07)
(-1.81396e-06 -1.04761e-09 7.3478e-10 -1.36899e-07 2.03524e-08 -1.88588e-07)
(-2.58619e-07 -8.18652e-09 2.02011e-09 -1.70726e-07 2.05357e-08 -1.95183e-07)
(-2.48995e-07 6.7776e-09 -1.21206e-09 -1.78179e-07 2.12104e-08 -1.98268e-07)
(-1.69385e-06 6.62863e-10 -4.51602e-10 -1.58972e-07 2.24418e-08 -1.97623e-07)
(-1.96748e-06 1.7511e-08 7.36389e-10 -1.66919e-07 1.31328e-08 -2.20319e-07)
(-3.10039e-07 2.09426e-09 1.93499e-09 -1.8178e-07 1.35064e-08 -2.27001e-07)
(-2.99988e-07 -3.76555e-09 -1.27963e-09 -1.8906e-07 1.40754e-08 -2.30491e-07)
(-1.84251e-06 -1.81864e-08 -5.08855e-10 -1.88462e-07 1.49171e-08 -2.3062e-07)
(-2.22894e-06 5.61377e-08 5.97274e-10 -6.12373e-07 5.54784e-09 -2.41883e-07)
(-4.54108e-07 2.01598e-08 1.75168e-09 -5.09101e-07 6.00946e-09 -2.48774e-07)
(-4.4439e-07 -2.30828e-08 -1.34548e-09 -5.12671e-07 6.39736e-09 -2.52525e-07)
(-2.10081e-06 -5.77844e-08 -4.63636e-10 -6.25484e-07 6.81631e-09 -2.53061e-07)
(-2.70872e-06 8.14193e-08 3.63581e-10 -2.80909e-06 2.28753e-09 -2.52657e-07)
(-6.70015e-07 3.62033e-08 1.55522e-09 -2.46415e-06 2.32504e-09 -2.5999e-07)
(-6.6131e-07 -3.70745e-08 -1.65176e-09 -2.43611e-06 2.45214e-09 -2.63756e-07)
(-2.58214e-06 -8.265e-08 -4.42948e-10 -2.73622e-06 2.72842e-09 -2.64024e-07)
(-1.58329e-06 3.25262e-08 -1.19698e-10 1.86352e-07 8.86852e-09 -1.77462e-08)
(-1.62328e-07 -7.61387e-08 2.66547e-10 -6.01772e-08 9.96966e-09 -1.95007e-08)
(-1.55724e-07 7.40708e-08 -9.89871e-11 -6.94943e-08 1.02172e-08 -2.00012e-08)
(-1.47807e-06 -3.0482e-08 1.67899e-10 1.54806e-07 9.61089e-09 -1.91572e-08)
(-1.63414e-06 -1.59055e-08 -6.39847e-11 -2.59826e-07 9.75499e-09 -5.87859e-08)
(-2.81249e-07 -3.15099e-08 4.47794e-10 -1.41288e-07 1.02909e-08 -6.22514e-08)
(-2.72605e-07 3.03327e-08 -1.34531e-10 -1.49845e-07 1.05414e-08 -6.35396e-08)
(-1.52555e-06 1.56748e-08 1.67427e-10 -2.82348e-07 1.05118e-08 -6.24138e-08)
(-1.67159e-06 -1.7065e-08 5.73892e-11 -2.26899e-07 9.84532e-09 -1.03035e-07)
(-2.84469e-07 -1.88768e-08 5.43689e-10 -1.65273e-07 1.00143e-08 -1.07116e-07)
(-2.75774e-07 1.74136e-08 -2.02781e-10 -1.73098e-07 1.02628e-08 -1.09034e-07)
(-1.56006e-06 1.64678e-08 6.13247e-11 -2.49394e-07 1.06052e-08 -1.08498e-07)
(-1.71804e-06 -1.00617e-08 1.47358e-10 -1.73354e-07 8.82273e-09 -1.46665e-07)
(-2.61646e-07 -1.35661e-08 5.88993e-10 -1.75183e-07 8.87297e-09 -1.50893e-07)
(-2.52666e-07 1.20198e-08 -2.72026e-10 -1.82671e-07 9.11471e-09 -1.53352e-07)
(-1.60284e-06 9.57192e-09 -3.49756e-11 -1.95663e-07 9.56825e-09 -1.53766e-07)
(-1.80159e-06 -1.00245e-09 1.89917e-10 -1.38659e-07 6.88265e-09 -1.85676e-07)
(-2.59249e-07 -8.2036e-09 5.92111e-10 -1.72379e-07 6.95479e-09 -1.8997e-07)
(-2.49727e-07 6.71526e-09 -3.16774e-10 -1.79847e-07 7.17929e-09 -1.9291e-07)
(-1.68192e-06 5.8969e-10 -9.21944e-11 -1.60793e-07 7.57851e-09 -1.94258e-07)
(-1.95512e-06 1.74754e-08 1.87609e-10 -1.68392e-07 4.3957e-09 -2.17008e-07)
(-3.10881e-07 2.04228e-09 5.62391e-10 -1.8316e-07 4.53706e-09 -2.21469e-07)
(-3.00919e-07 -3.76954e-09 -3.40167e-10 -1.90478e-07 4.72698e-09 -2.24811e-07)
(-1.83051e-06 -1.81689e-08 -1.0934e-10 -1.90064e-07 4.99239e-09 -2.26856e-07)
(-2.21606e-06 5.60087e-08 1.42821e-10 -6.11462e-07 1.84901e-09 -2.39117e-07)
(-4.54801e-07 2.00877e-08 5.04071e-10 -5.08399e-07 2.02505e-09 -2.43886e-07)
(-4.45156e-07 -2.3051e-08 -3.67404e-10 -5.12021e-07 2.15474e-09 -2.47489e-07)
(-2.08817e-06 -5.76674e-08 -9.69518e-11 -6.24736e-07 2.27436e-09 -2.49852e-07)
(-2.69472e-06 8.12293e-08 6.38748e-11 -2.79406e-06 7.40308e-10 -2.51893e-07)
(-6.70345e-07 3.61092e-08 4.34388e-10 -2.45001e-06 7.75616e-10 -2.57069e-07)
(-6.61701e-07 -3.70125e-08 -4.67304e-10 -2.42202e-06 8.18153e-10 -2.60686e-07)
(-2.56822e-06 -8.24771e-08 -9.01015e-11 -2.72134e-06 8.88256e-10 -2.62823e-07)
)
;

boundaryField
{
    interface
    {
        type            calculated;
        value           nonuniform List<symmTensor> 
192
(
(-4.60444e-06 2.24832e-12 2.00154e-11 1.14357e-06 1.38296e-07 -2.7822e-06)
(-4.31627e-06 1.39244e-12 3.16082e-11 -3.3934e-07 1.21109e-09 -2.77298e-06)
(-4.40327e-06 -7.69511e-13 3.4884e-11 -3.55133e-07 -1.36002e-08 -2.8194e-06)
(-4.53442e-06 -3.46395e-12 3.53648e-11 -2.92179e-07 -4.83704e-09 -2.88803e-06)
(-4.70267e-06 -5.74984e-12 3.46228e-11 -2.75108e-07 8.52595e-09 -2.98561e-06)
(-4.93868e-06 -9.95215e-12 3.34198e-11 -3.62739e-07 3.04986e-08 -3.12905e-06)
(-5.24508e-06 -1.30501e-11 3.05514e-11 -9.74283e-07 6.89885e-08 -3.34348e-06)
(-5.73242e-06 -2.85152e-11 2.82629e-11 -3.72468e-06 9.4634e-08 -3.72387e-06)
(-3.89666e-06 1.56176e-12 9.9502e-12 5.56458e-07 -5.66517e-08 -4.10196e-07)
(-3.69708e-06 7.94319e-13 1.68549e-11 -1.72492e-07 -8.13182e-09 -6.2556e-07)
(-3.75094e-06 -1.18487e-12 1.84155e-11 -2.27183e-07 -4.88423e-09 -6.48292e-07)
(-3.85715e-06 -3.97965e-12 1.83036e-11 -2.3278e-07 -1.50113e-09 -6.4748e-07)
(-4.01523e-06 -6.43821e-12 1.74895e-11 -2.42082e-07 1.56043e-08 -6.61224e-07)
(-4.25883e-06 -1.11144e-11 1.64143e-11 -3.03109e-07 4.23587e-08 -7.03433e-07)
(-4.6089e-06 -1.45662e-11 1.45618e-11 -7.9689e-07 6.50134e-08 -8.02047e-07)
(-5.24678e-06 -3.08798e-11 1.304e-11 -3.34368e-06 6.96515e-08 -9.75352e-07)
(-3.43445e-06 1.32588e-12 7.88778e-12 3.28582e-07 2.94321e-08 -2.7462e-08)
(-3.33347e-06 5.13357e-13 1.323e-11 -1.95447e-07 4.49741e-08 -1.3775e-07)
(-3.39124e-06 -1.4755e-12 1.44133e-11 -1.95603e-07 3.58127e-08 -1.87356e-07)
(-3.49083e-06 -4.47434e-12 1.42986e-11 -1.87551e-07 2.885e-08 -2.0161e-07)
(-3.64535e-06 -7.21404e-12 1.36416e-11 -1.88274e-07 3.54022e-08 -2.16837e-07)
(-3.89272e-06 -1.24427e-11 1.27702e-11 -2.29936e-07 4.76712e-08 -2.52783e-07)
(-4.2613e-06 -1.64282e-11 1.13931e-11 -6.92414e-07 4.71156e-08 -3.13881e-07)
(-4.94345e-06 -3.38972e-11 1.01937e-11 -3.12907e-06 3.31992e-08 -3.63124e-07)
(-3.1522e-06 9.86319e-13 4.88666e-12 2.46839e-07 5.58968e-08 8.13402e-10)
(-3.08158e-06 5.08928e-14 8.63532e-12 -2.3228e-07 6.66257e-08 -6.02806e-08)
(-3.14519e-06 -1.9518e-12 9.4196e-12 -2.04497e-07 5.88388e-08 -1.17782e-07)
(-3.24472e-06 -5.03033e-12 9.26112e-12 -1.69271e-07 4.84005e-08 -1.55142e-07)
(-3.39877e-06 -7.90679e-12 8.72988e-12 -1.51839e-07 4.39008e-08 -1.85889e-07)
(-3.64726e-06 -1.33873e-11 8.0649e-12 -1.86308e-07 4.0626e-08 -2.21744e-07)
(-4.02127e-06 -1.76151e-11 7.1654e-12 -6.44679e-07 2.77449e-08 -2.57862e-07)
(-4.7139e-06 -3.54124e-11 6.40628e-12 -2.98826e-06 1.50585e-08 -2.66947e-07)
(-2.98639e-06 8.28566e-13 3.59419e-12 2.1331e-07 5.33146e-08 -6.84946e-09)
(-2.9245e-06 -2.2724e-13 6.34982e-12 -2.50558e-07 6.21598e-08 -5.24871e-08)
(-2.99133e-06 -2.29692e-12 6.93073e-12 -2.16198e-07 5.9417e-08 -1.06415e-07)
(-3.09241e-06 -5.46896e-12 6.8136e-12 -1.66463e-07 5.07788e-08 -1.53291e-07)
(-3.24731e-06 -8.48302e-12 6.42133e-12 -1.37146e-07 4.15842e-08 -1.92585e-07)
(-3.49623e-06 -1.41786e-11 5.92445e-12 -1.69094e-07 3.09915e-08 -2.26668e-07)
(-3.87052e-06 -1.86304e-11 5.28458e-12 -6.24014e-07 1.59271e-08 -2.51106e-07)
(-4.56136e-06 -3.67428e-11 4.72772e-12 -2.89813e-06 7.55319e-09 -2.54903e-07)
(-2.8887e-06 7.03381e-13 2.21703e-12 1.97419e-07 4.15786e-08 -1.31549e-08)
(-2.83005e-06 -4.49942e-13 4.03363e-12 -2.57231e-07 4.72791e-08 -5.49827e-08)
(-2.89849e-06 -2.57391e-12 4.41838e-12 -2.22812e-07 4.69756e-08 -1.0407e-07)
(-3.00095e-06 -5.80235e-12 4.3311e-12 -1.68865e-07 4.12549e-08 -1.51416e-07)
(-3.15676e-06 -8.8958e-12 4.0628e-12 -1.34948e-07 3.25832e-08 -1.92435e-07)
(-3.40565e-06 -1.47049e-11 3.72851e-12 -1.65647e-07 2.18649e-08 -2.25035e-07)
(-3.7785e-06 -1.92761e-11 3.32625e-12 -6.15498e-07 9.66517e-09 -2.4644e-07)
(-4.46529e-06 -3.75541e-11 2.98337e-12 -2.84184e-06 4.22e-09 -2.53543e-07)
(-2.8335e-06 6.44151e-13 1.30629e-12 1.8961e-07 2.60924e-08 -1.64215e-08)
(-2.77637e-06 -5.7621e-13 2.37177e-12 -2.59292e-07 2.90324e-08 -5.75511e-08)
(-2.8456e-06 -2.74787e-12 2.59948e-12 -2.25785e-07 2.92245e-08 -1.0336e-07)
(-2.94893e-06 -6.02074e-12 2.54919e-12 -1.71709e-07 2.60405e-08 -1.48564e-07)
(-3.10532e-06 -9.17367e-12 2.39344e-12 -1.36899e-07 2.03524e-08 -1.88588e-07)
(-3.35398e-06 -1.50615e-11 2.19532e-12 -1.66919e-07 1.31328e-08 -2.20319e-07)
(-3.72531e-06 -1.97176e-11 1.96508e-12 -6.12373e-07 5.54784e-09 -2.41883e-07)
(-4.40887e-06 -3.81163e-11 1.75918e-12 -2.80909e-06 2.28753e-09 -2.52657e-07)
(-2.80843e-06 6.05779e-13 3.89668e-13 1.86352e-07 8.86852e-09 -1.77462e-08)
(-2.75196e-06 -6.47803e-13 7.31496e-13 -2.59826e-07 9.75499e-09 -5.87859e-08)
(-2.82151e-06 -2.83925e-12 8.05251e-13 -2.26899e-07 9.84532e-09 -1.03035e-07)
(-2.92525e-06 -6.12821e-12 7.87502e-13 -1.73354e-07 8.82273e-09 -1.46665e-07)
(-3.0819e-06 -9.30611e-12 7.36778e-13 -1.38659e-07 6.88265e-09 -1.85676e-07)
(-3.33038e-06 -1.52242e-11 6.72162e-13 -1.68392e-07 4.3957e-09 -2.17008e-07)
(-3.70082e-06 -1.99196e-11 6.02258e-13 -6.11462e-07 1.84901e-09 -2.39117e-07)
(-4.3827e-06 -3.83696e-11 5.36839e-13 -2.79406e-06 7.40308e-10 -2.51893e-07)
(-2.67188e-06 1.29005e-07 -2.89227e-11 1.14357e-06 -6.19073e-12 -4.80335e-06)
(-2.68596e-06 -9.36596e-09 -4.77723e-11 -3.3934e-07 -6.64904e-12 -4.50138e-06)
(-2.73469e-06 -2.26747e-08 -5.368e-11 -3.55133e-07 -4.96261e-12 -4.58964e-06)
(-2.79001e-06 -1.23785e-08 -5.51709e-11 -2.92179e-07 -3.42928e-12 -4.72772e-06)
(-2.87654e-06 -1.0619e-09 -5.5288e-11 -2.75108e-07 -2.84568e-12 -4.90164e-06)
(-3.02098e-06 1.73936e-08 -5.54139e-11 -3.62739e-07 -3.15413e-12 -5.13929e-06)
(-3.24499e-06 5.5704e-08 -5.56548e-11 -9.74283e-07 -3.8963e-12 -5.44813e-06)
(-3.62122e-06 8.04636e-08 -6.00199e-11 -3.72468e-06 -5.30558e-12 -5.94529e-06)
(-4.38584e-07 -5.79355e-08 -1.83321e-11 7.21355e-07 -3.5401e-12 -4.35324e-06)
(-7.25407e-07 -2.89081e-08 -3.38869e-11 -1.28512e-07 -4.55613e-12 -4.08486e-06)
(-7.43489e-07 -2.02882e-08 -3.82671e-11 -2.35407e-07 -3.30306e-12 -4.12162e-06)
(-7.07083e-07 -1.34275e-08 -3.9113e-11 -2.75363e-07 -1.72234e-12 -4.22935e-06)
(-6.9505e-07 -6.28123e-09 -3.91804e-11 -3.04471e-07 -7.79877e-13 -4.39026e-06)
(-7.40288e-07 4.50931e-09 -3.96312e-11 -3.75428e-07 -3.32724e-13 -4.62963e-06)
(-8.77328e-07 2.26443e-08 -4.09826e-11 -8.71319e-07 -4.20615e-13 -4.97289e-06)
(-1.08635e-06 3.68553e-08 -4.69548e-11 -3.46606e-06 -9.75175e-13 -5.61958e-06)
(-4.30733e-07 7.12464e-08 -1.90842e-11 7.0778e-07 -2.36438e-12 -4.30248e-06)
(-7.15254e-07 4.11624e-08 -3.53759e-11 -1.38183e-07 -3.21755e-12 -4.03328e-06)
(-7.33692e-07 2.99927e-08 -4.021e-11 -2.43923e-07 -2.20019e-12 -4.06802e-06)
(-6.97485e-07 2.06283e-08 -4.12028e-11 -2.83128e-07 -6.05376e-13 -4.17456e-06)
(-6.85406e-07 1.13517e-08 -4.11823e-11 -3.11972e-07 5.55695e-13 -4.33472e-06)
(-7.30751e-07 -1.61921e-09 -4.13273e-11 -3.8281e-07 1.50466e-12 -4.57334e-06)
(-8.68651e-07 -2.28581e-08 -4.21487e-11 -8.753e-07 2.07086e-12 -4.91603e-06)
(-1.0789e-06 -3.70039e-08 -4.76535e-11 -3.43932e-06 2.1269e-12 -5.56571e-06)
(-2.55678e-06 -1.19424e-07 -2.21541e-11 1.09208e-06 -1.81909e-12 -4.66254e-06)
(-2.56628e-06 1.48716e-08 -4.14638e-11 -3.64963e-07 -2.42563e-12 -4.36304e-06)
(-2.61314e-06 2.66578e-08 -4.75238e-11 -3.78328e-07 -1.43285e-12 -4.44598e-06)
(-2.66659e-06 1.54148e-08 -4.88691e-11 -3.13944e-07 2.172e-13 -4.58063e-06)
(-2.75142e-06 3.22884e-09 -4.88002e-11 -2.96076e-07 1.44719e-12 -4.75235e-06)
(-2.89511e-06 -1.63389e-08 -4.88958e-11 -3.83443e-07 2.65049e-12 -4.98796e-06)
(-3.12145e-06 -5.63279e-08 -4.91163e-11 -9.87614e-07 3.59082e-12 -5.29513e-06)
(-3.50357e-06 -8.13039e-08 -5.46712e-11 -3.65498e-06 4.5659e-12 -5.801e-06)
(-4.38995e-06 5.98298e-12 7.92353e-12 1.09208e-06 1.45084e-07 -2.70947e-06)
(-4.09721e-06 5.80714e-12 1.44524e-11 -3.64963e-07 6.39557e-09 -2.70267e-06)
(-4.17976e-06 2.44466e-12 1.61632e-11 -3.78328e-07 -1.00084e-08 -2.74754e-06)
(-4.30678e-06 -1.33631e-12 1.6594e-11 -3.13944e-07 -2.19083e-09 -2.81496e-06)
(-4.47172e-06 -3.3073e-12 1.66545e-11 -2.96076e-07 1.06589e-08 -2.91167e-06)
(-4.70601e-06 -6.21453e-12 1.76606e-11 -3.83443e-07 3.23732e-08 -3.05432e-06)
(-5.01534e-06 -6.07062e-12 1.81002e-11 -9.87614e-07 7.06702e-08 -3.2685e-06)
(-5.51204e-06 -2.08854e-11 2.1327e-11 -3.65498e-06 9.59364e-08 -3.65449e-06)
(-3.67436e-06 2.30456e-12 -6.88059e-13 5.06996e-07 -4.12723e-08 -4.10076e-07)
(-3.47487e-06 2.13163e-12 1.07145e-12 -2.00802e-07 2.49396e-09 -6.29008e-07)
(-3.52437e-06 2.40028e-13 1.01969e-12 -2.50801e-07 3.05651e-09 -6.54467e-07)
(-3.62546e-06 -2.15087e-12 9.34298e-13 -2.54224e-07 4.78511e-09 -6.55126e-07)
(-3.77831e-06 -3.03641e-12 1.16472e-12 -2.62644e-07 2.07964e-08 -6.69672e-07)
(-4.01727e-06 -5.10474e-12 2.45884e-12 -3.23156e-07 4.67049e-08 -7.12571e-07)
(-4.36714e-06 -3.35713e-12 3.92566e-12 -8.0869e-07 6.82912e-08 -8.12311e-07)
(-5.01566e-06 -1.77381e-11 6.7585e-12 -3.26834e-06 7.1194e-08 -9.87404e-07)
(-3.2185e-06 1.22713e-12 7.0788e-13 2.84128e-07 4.11984e-08 -3.13276e-08)
(-3.11599e-06 7.77989e-13 3.04878e-12 -2.23465e-07 5.50736e-08 -1.46111e-07)
(-3.16895e-06 -5.16491e-13 3.66492e-12 -2.1976e-07 4.43328e-08 -1.98815e-07)
(-3.26291e-06 -2.32075e-12 3.88813e-12 -2.09491e-07 3.61041e-08 -2.15091e-07)
(-3.4112e-06 -2.62587e-12 4.16534e-12 -2.09121e-07 4.1601e-08 -2.3164e-07)
(-3.65216e-06 -4.29715e-12 5.08018e-12 -2.49962e-07 5.28346e-08 -2.68625e-07)