/*--------------------------------*- C++ -*----------------------------------*\
| =========                 |                                                 |
| \\      /  F ield         | OpenFOAM: The Open Source CFD Toolbox           |
|  \\    /   O peration     | Version:  v1912                                 |
|   \\  /    A nd           | Website:  www.openfoam.com                      |
|    \\/     M anipulation  |                                                 |
\*---------------------------------------------------------------------------*/
FoamFile
{
    version     2.0;
    format      ascii;
    class       volScalarField;
    location    "0.48/solid";
    object      epsilonEq;
}
// * * * * * * * * * * * * * * * * * * * * * * * * * * * * * * * * * * * * * //

dimensions      [0 0 0 0 0 0 0];


internalField   nonuniform List<scalar> 
256
(
2.59108e-06
1.8912e-06
1.86923e-06
2.49519e-06
1.59658e-06
1.41148e-06
1.39183e-06
1.51768e-06
1.61824e-06
1.36709e-06
1.3475e-06
1.5398e-06
1.70153e-06
1.38876e-06
1.36931e-06
1.62309e-06
1.77445e-06
1.43666e-06
1.41722e-06
1.69575e-06
1.81242e-06
1.48995e-06
1.47041e-06
1.73337e-06
1.55418e-06
1.42099e-06
1.4035e-06
1.48109e-06
1.83932e-07
1.59133e-06
1.57859e-06
2.00147e-07
1.63695e-06
3.63956e-07
3.54574e-07
1.53577e-06
1.26096e-06
3.54138e-07
3.45028e-07
1.16827e-06
1.2493e-06
2.74719e-07
2.67306e-07
1.15699e-06
1.27348e-06
1.99665e-07
1.93987e-07
1.18013e-06
1.31862e-06
1.68269e-07
1.6397e-07
1.22365e-06
1.38033e-06
1.72732e-07
1.68786e-07
1.28381e-06
1.33105e-06
8.54117e-08
9.03256e-08
1.23728e-06
1.55389e-06
1.42235e-06
1.40507e-06
1.48132e-06
1.41254e-06
2.01377e-07
1.96992e-07
1.31659e-06
1.21707e-06
2.18191e-07
2.09083e-07
1.12628e-06
1.21773e-06
1.6762e-07
1.58268e-07
1.12522e-06
1.24054e-06
1.07442e-07
9.8389e-08
1.14599e-06
1.28739e-06
8.38794e-08
7.57196e-08
1.19045e-06
1.3621e-06
1.00515e-07
9.23552e-08
1.26286e-06
1.37902e-06
1.66845e-07
1.63941e-07
1.28268e-06
1.81292e-06
1.49292e-06
1.47383e-06
1.73539e-06
1.2773e-06
1.76906e-07
1.73982e-07
1.18696e-06
1.12813e-06
1.81801e-07
1.7502e-07
1.04236e-06
1.13509e-06
1.40035e-07
1.32688e-07
1.04643e-06
1.15904e-06
9.27968e-08
8.62813e-08
1.06751e-06
1.20704e-06
7.3097e-08
6.749e-08
1.11252e-06
1.28475e-06
8.44267e-08
7.70974e-08
1.18735e-06
1.31514e-06
1.50804e-07
1.48489e-07
1.22032e-06
1.78162e-06
1.44379e-06
1.42508e-06
1.70572e-06
1.19923e-06
1.54638e-07
1.51107e-07
1.11253e-06
1.06318e-06
1.6134e-07
1.55295e-07
9.807e-07
1.07482e-06
1.27787e-07
1.21347e-07
9.89028e-07
1.10152e-06
8.76564e-08
8.18264e-08
1.01237e-06
1.15185e-06
7.07612e-08
6.51377e-08
1.05932e-06
1.23146e-06
8.07804e-08
7.28777e-08
1.13572e-06
1.26629e-06
1.48668e-07
1.46552e-07
1.17301e-06
1.73034e-06
1.40039e-06
1.38203e-06
1.65606e-06
1.15455e-06
1.38653e-07
1.3424e-07
1.07012e-06
1.02323e-06
1.47725e-07
1.41525e-07
9.4266e-07
1.03783e-06
1.18873e-07
1.12289e-07
9.53784e-07
1.06707e-06
8.09281e-08
7.43725e-08
9.79405e-07
1.1195e-06
6.46826e-08
5.74911e-08
1.02823e-06
1.20045e-06
7.84121e-08
6.93282e-08
1.1058e-06
1.23762e-06
1.5472e-07
1.5259e-07
1.14543e-06
1.69492e-06
1.37158e-06
1.35345e-06
1.6218e-06
1.12978e-06
1.28177e-07
1.23029e-07
1.04668e-06
1.00056e-06
1.3852e-07
1.31963e-07
9.21061e-07
1.01679e-06
1.11558e-07
1.04512e-07
9.33725e-07
1.0477e-06
7.40693e-08
6.64687e-08
9.60897e-07
1.10147e-06
5.83181e-08
4.93863e-08
1.01095e-06
1.18324e-06
7.67885e-08
6.68916e-08
1.08926e-06
1.22184e-06
1.60298e-07
1.58187e-07
1.13037e-06
1.67448e-06
1.35427e-06
1.33628e-06
1.60209e-06
1.11863e-06
1.22808e-07
1.17238e-07
1.03614e-06
9.90285e-07
1.33658e-07
1.26854e-07
9.11268e-07
1.00721e-06
1.07275e-07
9.98894e-08
9.24606e-07
1.03892e-06
6.97792e-08
6.14419e-08
9.52522e-07
1.09331e-06
5.44705e-08
4.43779e-08
1.00315e-06
1.17547e-06
7.59025e-08
6.56391e-08
1.08179e-06
1.21477e-06
1.63144e-07
1.61064e-07
1.12364e-06
1.6653e-06
1.34617e-06
1.32825e-06
1.59328e-06
)
;

boundaryField
{
    interface
    {
        type            calculated;
        value           nonuniform List<scalar> 
192
(
3.39564e-06
2.31518e-06
2.3556e-06
2.46963e-06
2.57763e-06
2.66133e-06
2.47195e-06
1.34322e-06
2.70552e-06
2.21423e-06
2.22215e-06
2.29056e-06
2.38808e-06
2.51482e-06
2.54073e-06
2.47229e-06
2.39907e-06
2.11215e-06
2.13358e-06
2.19777e-06
2.29562e-06
2.4349e-06
2.51554e-06
2.66368e-06
2.18958e-06
1.9609e-06
1.99115e-06
2.05579e-06
2.15396e-06
2.29606e-06
2.39067e-06
2.58887e-06
2.06458e-06
1.85357e-06
1.889e-06
1.95591e-06
2.05577e-06
2.19944e-06
2.29882e-06
2.50772e-06
1.99151e-06
1.78728e-06
1.82546e-06
1.8945e-06
1.99601e-06
2.14063e-06
2.24186e-06
2.45284e-06
1.9506e-06
1.7495e-06
1.78907e-06
1.85949e-06
1.96209e-06
2.10719e-06
2.20918e-06
2.42069e-06
1.93211e-06
1.73236e-06
1.77251e-06
1.84358e-06
1.94669e-06
2.09198e-06
2.19425e-06
2.40601e-06
3.48223e-06
2.4095e-06
2.45118e-06
2.56769e-06
2.67803e-06
2.76368e-06
2.58388e-06
1.51892e-06
3.07107e-06
2.46305e-06
2.43926e-06
2.50457e-06
2.60346e-06
2.72268e-06
2.73251e-06
2.61869e-06
3.03387e-06
2.42781e-06
2.40308e-06
2.46791e-06
2.56646e-06
2.68523e-06
2.69617e-06
2.59199e-06
3.36484e-06
2.31229e-06
2.35248e-06
2.46777e-06
2.57729e-06
2.66215e-06
2.48783e-06
1.4867e-06
3.24739e-06
2.17764e-06
2.2169e-06
2.32968e-06
2.43638e-06
2.51893e-06
2.33364e-06
1.24315e-06
2.53818e-06
2.0549e-06
2.06105e-06
2.1265e-06
2.2207e-06
2.34437e-06
2.37241e-06
2.33395e-06
2.23786e-06
1.95568e-06
1.97381e-06
2.03417e-06
2.12779e-06
2.26276e-06
2.34438e-06
2.5215e-06
2.03556e-06
1.81067e-06
1.83668e-06
1.89679e-06
1.99007e-06
2.12702e-06
2.22161e-06
2.44817e-06
1.91552e-06
1.70777e-06
1.73851e-06
1.80044e-06
1.89496e-06
2.03296e-06
2.13172e-06
2.36852e-06
1.84558e-06
1.64419e-06
1.67749e-06
1.74125e-06
1.83713e-06
1.97577e-06
2.07606e-06
2.31465e-06
1.80651e-06
1.60799e-06
1.64256e-06
1.70756e-06
1.80436e-06
1.9433e-06
2.04416e-06
2.28315e-06
1.78888e-06
1.59158e-06
1.62668e-06
1.69228e-06
1.78951e-06
1.92854e-06
2.02961e-06
2.26879e-06
1.52054e-06
2.58488e-06
2.7664e-06
2.68992e-06
2.60758e-06
2.55144e-06
2.51838e-06
2.50325e-06
2.61984e-06
2.73509e-06
2.72845e-06
2.61677e-06
2.53045e-06
2.47371e-06
2.43959e-06
2.42358e-06
2.59299e-06
2.6987e-06
2.69098e-06
2.57981e-06
2.49383e-06
2.43729e-06
2.40329e-06
2.38734e-06
1.48748e-06
2.48871e-06
2.66549e-06
2.59069e-06
2.50984e-06
2.45475e-06
2.42236e-06
2.40757e-06
)
;
    }
    symmetry
    {
        type            symmetry;
    }
    bottom
    {
        type            calculated;
        value           nonuniform List<scalar> 
32
(
3.59423e-06
2.03154e-06
1.66424e-06
1.50278e-06
1.41659e-06
1.3674e-06
1.34002e-06
1.32767e-06
2.34198e-06
4.56979e-07
2.17929e-07
1.97423e-07
1.80794e-07
1.6735e-07
1.58231e-07
1.53576e-07
2.31782e-06
4.44321e-07
2.08066e-07
1.88591e-07
1.71134e-07
1.56802e-07
1.46996e-07
1.41953e-07
3.48298e-06
1.92184e-06
1.56074e-06
1.40597e-06
1.32439e-06
1.27815e-06
1.2525e-06
1.24096e-06
)
;
    }
}


// ************************************************************************* //
