/*--------------------------------*- C++ -*----------------------------------*\
| =========                 |                                                 |
| \\      /  F ield         | OpenFOAM: The Open Source CFD Toolbox           |
|  \\    /   O peration     | Version:  v1912                                 |
|   \\  /    A nd           | Website:  www.openfoam.com                      |
|    \\/     M anipulation  |                                                 |
\*---------------------------------------------------------------------------*/
FoamFile
{
    version     2.0;
    format      ascii;
    class       volVectorField;
    location    "0.48/solid";
    object      heatFlux;
}
// * * * * * * * * * * * * * * * * * * * * * * * * * * * * * * * * * * * * * //

dimensions      [1 0 -3 0 0 0 0];


internalField   nonuniform List<vector> 
256
(
(-72113.1 60114.8 -76736.7)
(-12499.6 33036.2 -73536.1)
(11908.5 32822.9 -72598.5)
(67891.5 59058 -73841.4)
(-70721.2 6274.35 -75527.4)
(-14792.3 3676.8 -74210)
(14113.3 3652.58 -73214.6)
(66273.1 6180.76 -72486.3)
(-72006.3 1342.4 -76880.1)
(-15121.4 735.682 -75646)
(14412.5 726.364 -74606.4)
(67455.9 1301.05 -73719.1)
(-73968.3 1538.44 -78867.6)
(-15408.3 823.527 -77633.5)
(14678.7 818.124 -76567.7)
(69325.5 1509.4 -75632.4)
(-76888.6 2645.12 -81804)
(-15841.7 1523.95 -80662.4)
(15098.4 1520.62 -79580.6)
(72172.5 2628.62 -78522)
(-81382.7 6254.77 -86343.6)
(-16532.8 4516.51 -85591.6)
(15783.4 4506.92 -84496.1)
(76626 6238.73 -83022.6)
(-87557.4 25025.3 -92728)
(-17589.6 23226.6 -93152.2)
(16820.6 23103.5 -92038.1)
(82812.8 24707.9 -89355.3)
(-86750.5 92702.5 -92657.5)
(-18454.6 95549.1 -95514.5)
(17264.7 94455.2 -94428.2)
(81914.7 89413.5 -89396.1)
(-66315.7 30061.3 -16233.3)
(-10815.2 6229.83 -13553.6)
(10578.6 6220.52 -13454.4)
(62222.2 29585.8 -15949.1)
(-66959.5 3394.08 -19324.2)
(-13025.7 870.733 -16415.2)
(12777.3 871.271 -16294.3)
(62717.5 3370.38 -18977.6)
(-68343.6 717.7 -19726.4)
(-13338 139.414 -16788.6)
(13078.3 137.522 -16662.2)
(64001.2 694.668 -19365.5)
(-70308.8 828.432 -20041.3)
(-13605.8 136.732 -17077.6)
(13332.6 134.549 -16948.8)
(65863.1 803.895 -19675.9)
(-73327.8 1526.78 -20512.7)
(-14031.9 369.602 -17535)
(13745.5 367.28 -17405.4)
(68781.8 1505.11 -20149.3)
(-78229.5 4446.56 -21274.7)
(-14765.3 2457.52 -18340.1)
(14468.1 2447.41 -18210.6)
(73596.4 4417.52 -20920.1)
(-85631.8 22594.7 -22584)
(-16031 19895.6 -19891.5)
(15705.5 19766 -19763.3)
(80956.6 22245.7 -22244.6)
(-87594.9 92802 -25011.6)
(-17594 93209.4 -23220.3)
(16818.2 92081.8 -23099.3)
(82812.5 89383.8 -24705.9)
(-58794.8 24557.3 -3240.85)
(-9720.67 3067.41 -1539.64)
(9513.06 3074.19 -1531.52)
(54799.8 24131.4 -3209.16)
(-59639.2 2781.26 -3937.33)
(-11762.4 441.746 -1969.18)
(11550.9 444.715 -1958.73)
(55505.3 2764.32 -3897.74)
(-60955.4 625.235 -4010.59)
(-12057.2 73.2503 -2016.6)
(11835.6 71.8723 -2005.71)
(56721 602.755 -3969.94)
(-62846.5 752.188 -4047.05)
(-12315.8 77.1387 -2041.17)
(12080.4 75.0071 -2030.17)
(58502.8 725.576 -4007.02)
(-65803.7 1411.71 -4095.1)
(-12734.4 261.483 -2079.96)
(12484.1 258.829 -2069.07)
(61342.9 1384.46 -4057.63)
(-70693.1 4183.47 -4175.06)
(-13468.7 2160.04 -2159.31)
(13203.4 2149.01 -2148.81)
(66111.3 4143.48 -4143.36)
(-78276.4 21288.4 -4437.7)
(-14768.9 18346.4 -2456.59)
(14467.5 18214.8 -2447.08)
(73598.4 20922 -4417.31)
(-81469.1 86460.9 -6238.14)
(-16542.2 85683 -4509.79)
(15779 84564.9 -4502.48)
(76627.4 83067.8 -6236.03)
(-54125.5 22883.2 -1151.13)
(-9105.84 2721.01 -188.853)
(8909.12 2730.27 -187.094)
(50225 22478.9 -1133.63)
(-54943 2624.33 -1359.65)
(-11047.1 393.772 -241.766)
(10848.8 397.088 -239.499)
(50909.9 2609.6 -1338.41)
(-56217.2 607.979 -1377.38)
(-11333.1 67.428 -246.806)
(11124.9 66.0755 -244.487)
(52084.6 585.379 -1355.82)
(-58075.2 743.925 -1382.02)
(-11589 73.3683 -248.322)
(11366.7 71.1838 -246.016)
(53829.9 716.206 -1360.85)
(-61004.3 1398.78 -1386.27)
(-12005.8 251.459 -250.692)
(11767.8 248.639 -248.45)
(56631.8 1368.78 -1366.35)
(-65867.1 4103.95 -1398.91)
(-12739.1 2080.9 -260.678)
(12484.1 2069.4 -258.614)
(61353.3 4057.85 -1381.9)
(-73440.9 20531.6 -1512.5)
(-14040.4 17545.1 -368.133)
(13744.7 17412.3 -366.582)
(68794.7 20153 -1502.08)
(-77045.4 81986.6 -2617.31)
(-15858.3 80807 -1511.91)
(15091.9 79691 -1511.81)
(72183.9 78596.3 -2620.17)
(-51357.9 22046.5 -607.145)
(-8756.63 2636.79 -55.9661)
(8568.28 2647.6 -54.8303)
(47523.9 21659.3 -594.36)
(-52153.7 2555.01 -707.15)
(-10642.3 383.793 -69.4505)
(10454.3 387.321 -67.983)
(48191.7 2542.13 -691.48)
(-53409.2 602.864 -713.926)
(-10924.3 66.6936 -70.4077)
(10726.6 65.355 -68.9068)
(49348.5 580.311 -697.952)
(-55254.7 743.294 -714.155)
(-11179.8 73.2529 -70.3794)
(10967.9 71.0446 -68.8844)
(51079.1 715.043 -698.365)
(-58171.8 1394.82 -714.249)
(-11596.6 249.127 -70.4388)
(11368.4 246.232 -68.9737)
(53862.7 1363.42 -699.105)
(-63010.2 4057.24 -720.952)
(-12328.4 2042.6 -73.8948)
(12082.2 2030.88 -72.516)
(58547.7 4007.75 -707.366)
(-70529.5 20070 -791.974)
(-13622.9 17095.2 -130.498)
(13333.6 16961.6 -129.386)
(65912.8 19683.7 -782.16)
(-74238.1 79159.8 -1468.97)
(-15436.7 77872.1 -788.207)
(14670.8 76755.5 -787.935)
(69371.1 75764.5 -1467.6)
(-49698.3 21568.9 -344.903)
(-8553.53 2595.59 -28.5099)
(8370.72 2607.46 -27.7635)
(45903.7 21193.1 -336.777)
(-50483.3 2517.55 -399.524)
(-10407.9 379.33 -34.9368)
(10226.8 383.011 -33.9643)
(46563.5 2506.01 -389.441)
(-51730.6 600.974 -402.629)
(-10688.1 66.4992 -35.3067)
(10497.4 65.174 -34.3086)
(47712.3 578.494 -392.309)
(-53571.1 743.602 -402.182)
(-10943.7 73.3372 -35.203)
(10738.8 71.1169 -34.2071)
(49436.2 715.053 -391.958)
(-56480.9 1391.98 -402.089)
(-11360.6 247.943 -35.1617)
(11139.1 245.007 -34.182)
(52208.7 1359.78 -392.231)
(-61297.5 4026.23 -407.155)
(-12090.7 2020.84 -37.0635)
(11850.6 2008.99 -36.1303)
(56864.5 3974.79 -398.179)
(-68759.7 19783.6 -452.396)
(-13377.8 16830.8 -69.1284)
(13093.1 16696.9 -68.3324)
(64159.2 19392.8 -445.574)
(-72472.7 77375.6 -862.118)
(-15177.3 76072.9 -451.868)
(14412.5 74955.5 -451.502)
(67599.9 73975.1 -860.276)
(-48745.5 21302.1 -179.719)
(-8439.49 2573.35 -14.4768)
(8260.01 2585.87 -14.0555)
(44972.8 20933.1 -175.263)
(-49525.1 2497.28 -207.566)
(-10276.7 376.997 -17.6668)
(10099.8 380.776 -17.1146)
(45628.5 2486.6 -201.982)
(-50768.6 600.205 -208.983)
(-10556 66.4274 -17.8319)
(10369.6 65.1123 -17.2635)
(46773.8 577.794 -203.244)
(-52606.7 743.834 -208.628)
(-10811.8 73.3978 -17.7644)
(10611.1 71.1711 -17.1966)
(48494.3 715.121 -202.934)
(-55511.7 1389.85 -208.664)
(-11228.7 247.266 -17.7439)
(11011.3 244.308 -17.185)
(51259.6 1357.2 -203.164)
(-60311.8 4006.93 -211.914)
(-11957.3 2008.64 -18.7559)
(11721.1 1996.73 -18.2209)
(55894.8 3954.41 -206.877)
(-67730.8 19615 -237.244)
(-13238.9 16680.3 -35.4751)
(12957.1 16546.2 -35.0057)
(63138.8 19221.7 -233.325)
(-71424.9 76311.6 -458.956)
(-15026.1 75017.6 -238.085)
(14262.4 73899.5 -237.817)
(66547.5 72907.3 -457.662)
(-48308.2 21181.6 -55.955)
(-8387.86 2563.45 -4.46123)
(8209.94 2576.29 -4.32518)
(44545.1 20815.8 -54.5381)
(-49085.5 2488.29 -64.5345)
(-10217.4 375.975 -5.43483)
(10042.5 379.803 -5.25596)
(45199.2 2478.03 -62.7482)
(-50327.5 599.913 -64.949)
(-10496.4 66.4017 -5.48287)
(10312 65.092 -5.29843)
(46342.9 577.542 -63.109)
(-52164.5 743.921 -64.8266)
(-10752.3 73.4252 -5.46054)
(10553.6 71.1954 -5.27625)
(48062 715.132 -62.9999)
(-55066.8 1388.69 -64.8619)
(-11169.1 246.952 -5.45552)
(10953.7 243.983 -5.27412)
(50823.6 1355.83 -63.0978)
(-59858.3 3997.65 -65.9805)
(-11897 2003.1 -5.77544)
(11662.5 1991.17 -5.60159)
(55448.1 3944.63 -64.3633)
(-67254.6 19536.5 -74.1442)
(-13175.6 16611.5 -10.9873)
(12895.2 16477.3 -10.8331)
(62665.9 19142 -72.8775)
(-70934.5 75811.7 -144.473)
(-14956.2 74525.9 -74.6291)
(14193 73407.4 -74.5334)
(66054.3 72405.4 -144.029)
)
;

boundaryField
{
    interface
    {
        type            calculated;
        value           nonuniform List<vector> 
192
(
(-119422 60114.8 -76736.7)
(-112090 6274.35 -75527.4)
(-114013 1342.4 -76880.1)
(-117370 1538.44 -78867.6)
(-122348 2645.12 -81804)
(-129957 6254.77 -86343.6)
(-140209 25025.3 -92728)
(-137095 92702.5 -92657.5)
(-111012 30061.3 -16233.3)
(-107876 3394.08 -19324.2)
(-110021 717.7 -19726.4)
(-113418 828.432 -20041.3)
(-118606 1526.78 -20512.7)
(-126945 4446.56 -21274.7)
(-139236 22594.7 -22584)
(-140277 92802 -25011.6)
(-98144.9 24557.3 -3240.85)
(-95743.4 2781.26 -3937.33)
(-97787.1 625.235 -4010.59)
(-101054 752.188 -4047.05)
(-106134 1411.71 -4095.1)
(-114447 4183.47 -4175.06)
(-127032 21288.4 -4437.7)
(-130115 86460.9 -6238.14)
(-90033.8 22883.2 -1151.13)
(-87778.9 2624.33 -1359.65)
(-89755.9 607.979 -1377.38)
(-92962.2 743.925 -1382.02)
(-97989 1398.78 -1386.27)
(-106251 4103.95 -1398.91)
(-118816 20531.6 -1512.5)
(-122635 81986.6 -2617.31)
(-85195.6 22046.5 -607.145)
(-83008.2 2555.01 -707.15)
(-84955.8 602.864 -713.926)
(-88137.9 743.294 -714.155)
(-93140.8 1394.82 -714.249)
(-101358 4057.24 -720.952)
(-113827 20070 -791.974)
(-117864 79159.8 -1468.97)
(-82281.6 21568.9 -344.903)
(-80134.9 2517.55 -399.524)
(-82069.8 600.974 -402.629)
(-85241.5 743.602 -402.182)
(-90229.9 1391.98 -402.089)
(-98406.4 4026.23 -407.155)
(-110777 19783.6 -452.396)
(-114851 77375.6 -862.118)
(-80603.6 21302.1 -179.719)
(-78480.2 2497.28 -207.566)
(-80409.3 600.205 -208.983)
(-83575.9 743.834 -208.628)
(-88554.4 1389.85 -208.664)
(-96700.9 4006.93 -211.914)
(-108996 19615 -237.244)
(-113058 76311.6 -458.956)
(-79831.9 21181.6 -55.955)
(-77719.1 2488.29 -64.5345)
(-79645.8 599.913 -64.949)
(-82810.2 743.921 -64.8266)
(-87783.6 1388.69 -64.8619)
(-95914.2 3997.65 -65.9805)
(-108170 19536.5 -74.1442)
(-112217 75811.7 -144.473)
(-72113.1 60114.8 -125958)
(-70721.2 6274.35 -118463)
(-72006.3 1342.4 -120484)
(-73968.3 1538.44 -123894)
(-76888.6 2645.12 -128912)
(-81382.7 6254.77 -136609)
(-87557.4 25025.3 -147144)
(-86750.5 92702.5 -144376)
(-12499.6 33036.2 -122742)
(-14792.3 3676.8 -119138)
(-15121.4 735.682 -121349)
(-15408.3 823.527 -124792)
(-15841.7 1523.95 -130008)
(-16532.8 4516.51 -138400)
(-17589.6 23226.6 -150870)
(-18454.6 95549.1 -151584)
(11908.5 32822.9 -121051)
(14113.3 3652.58 -117371)
(14412.5 726.364 -119504)
(14678.7 818.124 -122899)
(15098.4 1520.62 -128085)
(15783.4 4506.92 -136449)
(16820.6 23103.5 -148881)
(17264.7 94455.2 -149639)
(67891.5 59058 -120692)
(66273.1 6180.76 -113019)
(67455.9 1301.05 -114827)
(69325.5 1509.4 -118098)
(72172.5 2628.62 -123022)
(76626 6238.73 -130631)
(82812.8 24707.9 -141046)
(81914.7 89413.5 -138454)
(111771 59058 -73841.4)
(104088 6180.76 -72486.3)
(105843 1301.05 -73719.1)
(109043 1509.4 -75632.4)
(113894 2628.62 -78522)
(121428 6238.73 -83022.6)
(131711 24707.9 -89355.3)
(128797 89413.5 -89396.1)
(103276 29585.8 -15949.1)
(99872.3 3370.38 -18977.6)
(101836 694.668 -19365.5)
(105049 803.895 -19675.9)
(110059 1505.11 -20149.3)
(118240 4417.52 -20920.1)
(130468 22245.7 -22244.6)
(131713 89383.8 -24705.9)
(90576.8 24131.4 -3209.16)
(87918.8 2764.32 -3897.74)
(89780 602.755 -3969.94)
(92852.1 725.576 -4007.02)
(97722.8 1384.46 -4057.63)
(105818 4143.48 -4143.36)
(118245 20922 -4417.31)
(121436 83067.8 -6236.03)
(82637.3 22478.9 -1133.63)
(80135.2 2609.6 -1338.41)
(81931.5 585.379 -1355.82)
(84936.6 716.206 -1360.85)
(89736 1368.78 -1366.35)
(97743.1 4057.85 -1381.9)
(110085 20153 -1502.08)
(113923 78596.3 -2620.17)
(77918.2 21659.3 -594.36)
(75489.6 2542.13 -691.48)
(77257.8 580.311 -697.952)
(80234.3 715.043 -698.365)
(84998.2 1363.42 -699.105)
(92937.3 4007.75 -707.366)
(105145 19683.7 -782.16)
(109140 75764.5 -1467.6)
(75073.8 21193.1 -336.777)
(72689.3 2506.01 -389.441)
(74445 578.494 -392.309)
(77408.1 715.053 -391.958)
(82150 1359.78 -392.231)
(90035.3 3974.79 -398.179)
(102119 19392.8 -445.574)
(106114 73975.1 -860.276)
(73434 20933.1 -175.263)
(71074.2 2486.6 -201.982)
(72824.3 577.794 -203.244)
(75780.3 715.121 -202.934)
(80508 1357.2 -203.164)
(88355.5 3954.41 -206.877)
(100351 19221.7 -233.325)
(104310 72907.3 -457.662)
(72679.1 20815.8 -54.5381)
(70330.5 2478.03 -62.7482)
(72078.3 577.542 -63.109)
(75031.1 715.132 -62.9999)
(79751.6 1355.83 -63.0978)
(87579.6 3944.63 -64.3633)
(99529.4 19142 -72.8775)
(103463 72405.4 -144.029)
(-86750.5 144452 -92657.5)
(-87594.9 147278 -25011.6)
(-81469.1 136824 -6238.14)
(-77045.4 129248 -2617.31)
(-74238.1 124432 -1468.97)
(-72472.7 121380 -862.118)
(-71424.9 119555 -458.956)
(-70934.5 118695 -144.473)
(-18454.6 151646 -95514.5)
(-17594 150977 -23220.3)
(-16542.2 138571 -4509.79)
(-15858.3 130279 -1511.91)
(-15436.7 125237 -788.207)
(-15177.3 122126 -451.868)
(-15026.1 120293 -238.085)
(-14956.2 119437 -74.6291)
(17264.7 149687 -94428.2)
(16818.2 148963 -23099.3)
(15779 136579 -4502.48)
(15091.9 128293 -1511.81)
(14670.8 123251 -787.935)
(14412.5 120139 -451.502)
(14262.4 118305 -237.817)
(14193 117448 -74.5334)
(81914.7 138486 -89396.1)
(82812.5 141100 -24705.9)
(76627.4 130718 -6236.03)
(72183.9 123163 -2620.17)
(69371.1 118347 -1467.6)
(67599.9 115291 -860.276)
(66547.5 113462 -457.662)
(66054.3 112601 -144.029)
)
;
    }
    symmetry
    {
        type            symmetry;
    }
    bottom
    {
        type            calculated;
        value           nonuniform List<vector> 
32
(
(-72113.1 109167 -76736.7)
(-66315.7 54136.7 -16233.3)
(-58794.8 44233.8 -3240.85)
(-54125.5 41173.3 -1151.13)
(-51357.9 39629.2 -607.145)
(-49698.3 38744.7 -344.903)
(-48745.5 38249.6 -179.719)
(-48308.2 38025.8 -55.955)
(-12499.6 59558.6 -73536.1)
(-10815.2 10897.3 -13553.6)
(-9720.67 5344.24 -1539.64)
(-9105.84 4738.71 -188.853)
(-8756.63 4588.82 -55.9661)
(-8553.53 4514.85 -28.5099)
(-8439.49 4474.78 -14.4768)
(-8387.86 4456.94 -4.46123)
(11908.5 59168.6 -72598.5)
(10578.6 10876 -13454.4)
(9513.06 5351.08 -1531.52)
(8909.12 4749.89 -187.094)
(8568.28 4602.7 -54.8303)
(8370.72 4530.57 -27.7635)
(8260.01 4491.65 -14.0555)
(8209.94 4474.35 -4.32518)
(67891.5 107193 -73841.4)
(62222.2 53211.8 -15949.1)
(54799.8 43396.5 -3209.16)
(50225 40375.2 -1133.63)
(47523.9 38861.9 -594.36)
(45903.7 37997.7 -336.777)
(44972.8 37514.8 -175.263)
(44545.1 37296.7 -54.5381)
)
;
    }
}


// ************************************************************************* //
