/*--------------------------------*- C++ -*----------------------------------*\
| =========                 |                                                 |
| \\      /  F ield         | OpenFOAM: The Open Source CFD Toolbox           |
|  \\    /   O peration     | Version:  v1912                                 |
|   \\  /    A nd           | Website:  www.openfoam.com                      |
|    \\/     M anipulation  |                                                 |
\*---------------------------------------------------------------------------*/
FoamFile
{
    version     2.0;
    format      ascii;
    class       pointVectorField;
    location    "0.48/solid";
    object      pointDD;
}
// * * * * * * * * * * * * * * * * * * * * * * * * * * * * * * * * * * * * * //

dimensions      [0 1 0 0 0 0 0];


internalField   nonuniform List<vector> 
405
(
(2.35154e-10 3.97378e-10 2.30321e-10)
(1.01729e-10 2.73989e-10 1.54101e-10)
(-3.96889e-12 2.29609e-10 1.28772e-10)
(-1.05319e-10 2.64545e-10 1.41269e-10)
(-2.14227e-10 3.80992e-10 2.10934e-10)
(4.75774e-10 4.79341e-10 5.58751e-10)
(2.84536e-10 4.56545e-10 5.17997e-10)
(-1.16673e-11 3.82826e-10 4.59894e-10)
(-2.9763e-10 4.43224e-10 4.88732e-10)
(-4.47609e-10 4.63725e-10 5.22338e-10)
(6.17356e-10 2.12919e-10 9.23039e-10)
(3.76831e-10 2.36543e-10 8.76675e-10)
(-1.8936e-11 1.95308e-10 8.0655e-10)
(-4.02884e-10 2.33758e-10 8.41e-10)
(-5.98476e-10 2.14051e-10 8.7466e-10)
(6.26097e-10 -6.94316e-11 1.20631e-09)
(3.77597e-10 -2.04768e-11 1.1543e-09)
(-2.70169e-11 -3.90297e-11 1.07423e-09)
(-4.19749e-10 -1.42648e-11 1.1137e-09)
(-6.2144e-10 -5.41123e-11 1.14993e-09)
(6.138e-10 -3.30415e-10 1.4717e-09)
(3.61635e-10 -2.85013e-10 1.41041e-09)
(-3.72772e-11 -3.02022e-10 1.31872e-09)
(-4.24202e-10 -2.7125e-10 1.36594e-09)
(-6.27798e-10 -3.02925e-10 1.40914e-09)
(6.42375e-10 -6.04332e-10 1.75207e-09)
(3.75663e-10 -5.79559e-10 1.676e-09)
(-4.99771e-11 -6.05271e-10 1.57167e-09)
(-4.63449e-10 -5.59001e-10 1.62813e-09)
(-6.79787e-10 -5.65578e-10 1.68409e-09)
(7.67465e-10 -9.81418e-10 2.06996e-09)
(4.5904e-10 -9.72051e-10 1.97702e-09)
(-6.54837e-11 -9.9315e-10 1.86375e-09)
(-5.77341e-10 -9.44705e-10 1.92581e-09)
(-8.3284e-10 -9.31292e-10 1.9967e-09)
(1.01455e-09 -1.64481e-09 2.41562e-09)
(6.1082e-10 -1.61597e-09 2.33917e-09)
(-8.45606e-11 -1.59255e-09 2.23548e-09)
(-7.65656e-10 -1.57833e-09 2.28422e-09)
(-1.11077e-09 -1.57823e-09 2.33681e-09)
(1.16262e-09 -2.09456e-09 2.60939e-09)
(6.9806e-10 -2.0386e-09 2.56981e-09)
(-9.56878e-11 -1.96231e-09 2.49611e-09)
(-8.73992e-10 -1.98543e-09 2.52125e-09)
(-1.29125e-09 -2.01208e-09 2.53483e-09)
(1.24833e-10 1.9813e-10 1.02536e-10)
(0 0 0)
(0 0 0)
(0 0 0)
(-9.50288e-11 1.89236e-10 9.58321e-11)
(3.42946e-10 2.76345e-10 3.75268e-10)
(0 0 0)
(0 0 0)
(0 0 0)
(-2.84213e-10 2.66934e-10 3.54106e-10)
(4.48537e-10 1.59282e-11 6.87712e-10)
(0 0 0)
(0 0 0)
(0 0 0)
(-3.94721e-10 2.23639e-11 6.54043e-10)
(4.50213e-10 -2.50774e-10 9.58212e-10)
(0 0 0)
(0 0 0)
(0 0 0)
(-4.06895e-10 -2.30291e-10 9.16333e-10)
(4.35375e-10 -4.98348e-10 1.21466e-09)
(0 0 0)
(0 0 0)
(0 0 0)
(-4.07467e-10 -4.65073e-10 1.16639e-09)
(4.57888e-10 -7.4911e-10 1.48171e-09)
(0 0 0)
(0 0 0)
(0 0 0)
(-4.50357e-10 -7.03593e-10 1.42776e-09)
(5.74069e-10 -1.07097e-09 1.76928e-09)
(0 0 0)
(0 0 0)
(0 0 0)
(-5.9115e-10 -1.01316e-09 1.70985e-09)
(8.38616e-10 -1.63371e-09 2.03114e-09)
(0 0 0)
(0 0 0)
(0 0 0)
(-8.81018e-10 -1.55921e-09 1.96667e-09)
(1.0124e-09 -2.01752e-09 2.17407e-09)
(6.07813e-10 -1.9394e-09 2.19131e-09)
(-8.72979e-11 -1.83291e-09 2.17045e-09)
(-7.68169e-10 -1.87914e-09 2.1578e-09)
(-1.11272e-09 -1.92962e-09 2.11549e-09)
(4.23689e-11 7.83008e-11 2.58375e-11)
(0 0 0)
(0 0 0)
(0 0 0)
(-1.35412e-11 6.99071e-11 2.27018e-11)
(1.37172e-10 4.44735e-11 1.64141e-10)
(0 0 0)
(0 0 0)
(0 0 0)
(-7.8149e-11 3.53981e-11 1.5242e-10)
(1.92202e-10 -1.91047e-10 4.02999e-10)
(0 0 0)
(0 0 0)
(0 0 0)
(-1.33804e-10 -1.85579e-10 3.8174e-10)
(1.81722e-10 -4.29682e-10 6.50749e-10)
(0 0 0)
(0 0 0)
(0 0 0)
(-1.30052e-10 -4.11121e-10 6.22204e-10)
(1.62302e-10 -6.54305e-10 8.89627e-10)
(0 0 0)
(0 0 0)
(0 0 0)
(-1.22794e-10 -6.2343e-10 8.55115e-10)
(1.80823e-10 -8.68695e-10 1.12185e-09)
(0 0 0)
(0 0 0)
(0 0 0)
(-1.58752e-10 -8.25908e-10 1.082e-09)
(2.96454e-10 -1.11413e-09 1.33352e-09)
(0 0 0)
(0 0 0)
(0 0 0)
(-2.9628e-10 -1.05957e-09 1.28878e-09)
(5.70804e-10 -1.54655e-09 1.46631e-09)
(0 0 0)
(0 0 0)
(0 0 0)
(-5.9325e-10 -1.47624e-09 1.41788e-09)
(7.61654e-10 -1.84669e-09 1.5102e-09)
(4.52015e-10 -1.7524e-09 1.54796e-09)
(-7.16076e-11 -1.63605e-09 1.57173e-09)
(-5.82396e-10 -1.695e-09 1.52414e-09)
(-8.37018e-10 -1.76314e-09 1.46739e-09)
(2.47373e-12 2.57491e-11 1.8786e-11)
(0 0 0)
(0 0 0)
(0 0 0)
(2.62302e-11 1.63938e-11 1.66826e-11)
(3.34044e-11 -6.14662e-11 1.24448e-10)
(0 0 0)
(0 0 0)
(0 0 0)
(2.70695e-11 -7.29228e-11 1.16476e-10)
(5.97258e-11 -2.94655e-10 3.18557e-10)
(0 0 0)
(0 0 0)
(0 0 0)
(3.54337e-12 -2.92307e-10 3.03612e-10)
(4.57939e-11 -5.2253e-10 5.33986e-10)
(0 0 0)
(0 0 0)
(0 0 0)
(1.40772e-11 -5.07522e-10 5.1308e-10)
(2.98937e-11 -7.23922e-10 7.44295e-10)
(0 0 0)
(0 0 0)
(0 0 0)
(2.09221e-11 -6.96835e-10 7.18172e-10)
(5.33206e-11 -8.96133e-10 9.35237e-10)
(0 0 0)
(0 0 0)
(0 0 0)
(-1.70393e-11 -8.57303e-10 9.04412e-10)
(1.74321e-10 -1.07825e-09 1.08195e-09)
(0 0 0)
(0 0 0)
(0 0 0)
(-1.57226e-10 -1.02782e-09 1.04703e-09)
(4.48236e-10 -1.43485e-09 1.14077e-09)
(0 0 0)
(0 0 0)
(0 0 0)
(-4.51431e-10 -1.3687e-09 1.10304e-09)
(6.29511e-10 -1.70551e-09 1.13361e-09)
(3.61732e-10 -1.62842e-09 1.15795e-09)
(-5.98156e-11 -1.5203e-09 1.18583e-09)
(-4.68747e-10 -1.57316e-09 1.13963e-09)
(-6.83164e-10 -1.62554e-09 1.10051e-09)
(-1.24111e-11 6.95536e-12 2.25939e-11)
(0 0 0)
(0 0 0)
(0 0 0)
(4.1173e-11 -3.31303e-12 2.11003e-11)
(-5.44502e-12 -9.87995e-11 1.17031e-10)
(0 0 0)
(0 0 0)
(0 0 0)
(6.71109e-11 -1.12659e-10 1.1145e-10)
(1.10833e-11 -3.3079e-10 2.74838e-10)
(0 0 0)
(0 0 0)
(0 0 0)
(5.57015e-11 -3.31712e-10 2.64326e-10)
(-8.59641e-13 -5.5214e-10 4.48698e-10)
(0 0 0)
(0 0 0)
(0 0 0)
(6.67994e-11 -5.40815e-10 4.33687e-10)
(-1.05573e-11 -7.35645e-10 6.17563e-10)
(0 0 0)
(0 0 0)
(0 0 0)
(7.00292e-11 -7.12402e-10 5.98384e-10)
(1.94763e-11 -8.78358e-10 7.62878e-10)
(0 0 0)
(0 0 0)
(0 0 0)
(2.79628e-11 -8.43404e-10 7.39879e-10)
(1.44559e-10 -1.02609e-09 8.61408e-10)
(0 0 0)
(0 0 0)
(0 0 0)
(-1.13965e-10 -9.79462e-10 8.35139e-10)
(4.14132e-10 -1.34957e-09 8.88035e-10)
(0 0 0)
(0 0 0)
(0 0 0)
(-4.01818e-10 -1.28691e-09 8.59591e-10)
(5.878e-10 -1.60867e-09 8.66088e-10)
(3.35704e-10 -1.54631e-09 8.70953e-10)
(-5.09627e-11 -1.44899e-09 8.86789e-10)
(-4.24891e-10 -1.49267e-09 8.57186e-10)
(-6.24277e-10 -1.53151e-09 8.41161e-10)
(-1.6719e-11 1.5468e-12 2.13628e-11)
(0 0 0)
(0 0 0)
(0 0 0)
(4.55572e-11 -9.35284e-12 2.0344e-11)
(-1.57554e-11 -1.07327e-10 9.87948e-11)
(0 0 0)
(0 0 0)
(0 0 0)
(7.82322e-11 -1.22968e-10 9.50162e-11)
(4.29592e-13 -3.3459e-10 2.18834e-10)
(0 0 0)
(0 0 0)
(0 0 0)
(6.86761e-11 -3.38117e-10 2.11709e-10)
(-7.39432e-12 -5.48949e-10 3.4764e-10)
(0 0 0)
(0 0 0)
(0 0 0)
(7.74728e-11 -5.40672e-10 3.37356e-10)
(-1.12562e-11 -7.2041e-10 4.70858e-10)
(0 0 0)
(0 0 0)
(0 0 0)
(7.68285e-11 -7.00384e-10 4.57529e-10)
(2.40974e-11 -8.4745e-10 5.72991e-10)
(0 0 0)
(0 0 0)
(0 0 0)
(3.14002e-11 -8.15702e-10 5.56813e-10)
(1.51355e-10 -9.81022e-10 6.37253e-10)
(0 0 0)
(0 0 0)
(0 0 0)
(-1.10858e-10 -9.37436e-10 6.18634e-10)
(4.16258e-10 -1.29144e-09 6.50508e-10)
(0 0 0)
(0 0 0)
(0 0 0)
(-3.92445e-10 -1.23148e-09 6.30274e-10)
(5.85187e-10 -1.54443e-09 6.29748e-10)
(3.37742e-10 -1.49076e-09 6.2455e-10)
(-4.4487e-11 -1.40148e-09 6.30421e-10)
(-4.13846e-10 -1.43831e-09 6.14762e-10)
(-6.08952e-10 -1.46939e-09 6.12011e-10)
(-1.74744e-11 5.72256e-13 1.59166e-11)
(0 0 0)
(0 0 0)
(0 0 0)
(4.63752e-11 -1.0727e-11 1.52834e-11)
(-1.66922e-11 -1.06307e-10 7.00889e-11)
(0 0 0)
(0 0 0)
(0 0 0)
(7.96932e-11 -1.23119e-10 6.77483e-11)
(1.73762e-12 -3.27482e-10 1.50486e-10)
(0 0 0)
(0 0 0)
(0 0 0)
(6.88393e-11 -3.32801e-10 1.4607e-10)
(-2.28381e-12 -5.35214e-10 2.34721e-10)
(0 0 0)
(0 0 0)
(0 0 0)
(7.50336e-11 -5.29108e-10 2.2831e-10)
(-1.91739e-12 -6.9925e-10 3.14038e-10)
(0 0 0)
(0 0 0)
(0 0 0)
(7.15091e-11 -6.81554e-10 3.05658e-10)
(3.68603e-11 -8.19326e-10 3.78256e-10)
(0 0 0)
(0 0 0)
(0 0 0)
(2.40367e-11 -7.89904e-10 3.68002e-10)
(1.6507e-10 -9.48404e-10 4.17151e-10)
(0 0 0)
(0 0 0)
(0 0 0)
(-1.17859e-10 -9.07009e-10 4.05278e-10)
(4.26353e-10 -1.25381e-09 4.24062e-10)
(0 0 0)
(0 0 0)
(0 0 0)
(-3.94685e-10 -1.19579e-09 4.11117e-10)
(5.92017e-10 -1.50337e-09 4.09618e-10)
(3.45351e-10 -1.45432e-09 4.02966e-10)
(-4.00775e-11 -1.36974e-09 4.04212e-10)
(-4.12542e-10 -1.40269e-09 3.96704e-10)
(-6.07095e-10 -1.42982e-09 3.98264e-10)
(-1.74097e-11 6.88533e-13 8.36695e-12)
(0 0 0)
(0 0 0)
(0 0 0)
(4.63398e-11 -1.08314e-11 8.06346e-12)
(-1.58909e-11 -1.03765e-10 3.60547e-11)
(0 0 0)
(0 0 0)
(0 0 0)
(7.9177e-11 -1.21234e-10 3.49349e-11)
(4.34304e-12 -3.20218e-10 7.62333e-11)
(0 0 0)
(0 0 0)
(0 0 0)
(6.70529e-11 -3.26567e-10 7.41202e-11)
(2.72532e-12 -5.2333e-10 1.17694e-10)
(0 0 0)
(0 0 0)
(0 0 0)
(7.15256e-11 -5.18499e-10 1.14617e-10)
(5.52306e-12 -6.83364e-10 1.56312e-10)
(0 0 0)
(0 0 0)
(0 0 0)
(6.63518e-11 -6.67058e-10 1.52272e-10)
(4.61212e-11 -8.00758e-10 1.87191e-10)
(0 0 0)
(0 0 0)
(0 0 0)
(1.78731e-11 -7.7273e-10 1.82224e-10)
(1.7468e-10 -9.28847e-10 2.05583e-10)
(0 0 0)
(0 0 0)
(0 0 0)
(-1.2359e-10 -8.88766e-10 1.99812e-10)
(4.33759e-10 -1.23242e-09 2.08631e-10)
(0 0 0)
(0 0 0)
(0 0 0)
(-3.97528e-10 -1.17556e-09 2.02325e-10)
(5.97412e-10 -1.48027e-09 2.01455e-10)
(3.5067e-10 -1.43339e-09 1.97489e-10)
(-3.75213e-11 -1.35109e-09 1.97458e-10)
(-4.12693e-10 -1.38224e-09 1.94438e-10)
(-6.07441e-10 -1.40761e-09 1.95922e-10)
(-3.02183e-12 -5.47423e-12 0)
(4.98821e-12 -1.92117e-11 0)
(1.92693e-13 -2.98555e-11 0)
(-1.2989e-12 -2.29191e-11 0)
(2.6977e-11 -1.75436e-11 0)
(1.19001e-11 -1.09389e-10 0)
(1.67818e-11 -1.3508e-10 0)
(2.66861e-12 -1.54881e-10 0)
(-3.95866e-12 -1.41099e-10 0)
(2.99432e-11 -1.23423e-10 0)
(2.95377e-11 -3.1886e-10 0)
(2.36007e-11 -3.3425e-10 0)
(6.44397e-12 -3.48447e-10 0)
(-2.56776e-12 -3.36485e-10 0)
(2.08808e-11 -3.24156e-10 0)
(2.78158e-11 -5.18802e-10 0)
(2.05964e-11 -5.29896e-10 0)
(7.88739e-12 -5.40209e-10 0)
(3.0032e-12 -5.27016e-10 0)
(2.5264e-11 -5.14557e-10 0)
(3.06795e-11 -6.83096e-10 0)
(2.02008e-11 -7.06285e-10 0)
(6.15888e-12 -7.21807e-10 0)
(-1.14601e-13 -6.97814e-10 0)
(1.95553e-11 -6.68904e-10 0)
(7.20479e-11 -8.15725e-10 0)
(4.62467e-11 -8.67288e-10 0)
(1.12298e-12 -8.93839e-10 0)
(-3.60177e-11 -8.53049e-10 0)
(-3.04404e-11 -7.91336e-10 0)
(2.01103e-10 -9.66423e-10 0)
(1.30827e-10 -1.04244e-09 0)
(-7.48219e-12 -1.06926e-09 0)
(-1.37069e-10 -1.02217e-09 0)
(-1.73684e-10 -9.31441e-10 0)
(4.41919e-10 -1.27209e-09 0)
(2.72662e-10 -1.31466e-09 0)
(-2.03272e-11 -1.30339e-09 0)
(-3.02516e-10 -1.28545e-09 0)
(-4.32581e-10 -1.22184e-09 0)
(5.91976e-10 -1.49003e-09 0)
(3.52878e-10 -1.458e-09 0)
(-3.23038e-11 -1.3954e-09 0)
(-4.04811e-10 -1.41499e-09 0)
(-6.07967e-10 -1.42412e-09 0)
)
;

boundaryField
{
    interface
    {
        type            calculated;
    }
    symmetry
    {
        type            symmetry;
    }
    bottom
    {
        type            calculated;
    }
}


// ************************************************************************* //
