/*--------------------------------*- C++ -*----------------------------------*\
| =========                 |                                                 |
| \\      /  F ield         | OpenFOAM: The Open Source CFD Toolbox           |
|  \\    /   O peration     | Version:  v1912                                 |
|   \\  /    A nd           | Website:  www.openfoam.com                      |
|    \\/     M anipulation  |                                                 |
\*---------------------------------------------------------------------------*/
FoamFile
{
    version     2.0;
    format      ascii;
    class       pointVectorField;
    location    "0.48/solid";
    object      pointD;
}
// * * * * * * * * * * * * * * * * * * * * * * * * * * * * * * * * * * * * * //

dimensions      [0 1 0 0 0 0 0];


internalField   nonuniform List<vector> 
405
(
(3.28991e-08 3.08891e-08 3.40377e-08)
(5.53996e-09 2.00157e-08 3.89926e-08)
(1.44821e-10 1.63165e-08 3.69277e-08)
(-5.14926e-09 1.98183e-08 3.848e-08)
(-3.13827e-08 3.00713e-08 3.36664e-08)
(5.44639e-08 3.81371e-08 5.86127e-08)
(1.50945e-08 3.38007e-08 8.4785e-08)
(7.14625e-10 2.8057e-08 8.06606e-08)
(-1.34362e-08 3.31659e-08 8.39604e-08)
(-5.13184e-08 3.65614e-08 5.84026e-08)
(6.06116e-08 2.34984e-08 7.04652e-08)
(1.98063e-08 2.23458e-08 9.60104e-08)
(1.63192e-09 1.93894e-08 9.17328e-08)
(-1.6293e-08 2.12432e-08 9.55148e-08)
(-5.56454e-08 2.12292e-08 7.08458e-08)
(6.19835e-08 1.29589e-08 7.81022e-08)
(2.05581e-08 1.32364e-08 1.04081e-07)
(2.67027e-09 1.16839e-08 9.95325e-08)
(-1.49775e-08 1.1699e-08 1.03809e-07)
(-5.49955e-08 1.00197e-08 7.89057e-08)
(6.33033e-08 5.72481e-09 8.48506e-08)
(2.10319e-08 5.95153e-09 1.11602e-07)
(3.81889e-09 4.50378e-09 1.06878e-07)
(-1.3157e-08 4.01761e-09 1.115e-07)
(-5.40478e-08 2.15637e-09 8.59716e-08)
(6.65546e-08 -3.61867e-10 9.23523e-08)
(2.26497e-08 -8.09024e-10 1.20289e-07)
(5.08315e-09 -2.70809e-09 1.15487e-07)
(-1.22478e-08 -3.11515e-09 1.2032e-07)
(-5.47949e-08 -4.52626e-09 9.37239e-08)
(7.30859e-08 -8.25825e-09 1.0173e-07)
(2.62715e-08 -9.21963e-09 1.31461e-07)
(6.46353e-09 -1.13224e-08 1.26772e-07)
(-1.3122e-08 -1.18897e-08 1.31603e-07)
(-5.86265e-08 -1.29985e-08 1.03311e-07)
(8.39066e-08 -3.27772e-08 1.13548e-07)
(3.21072e-08 -3.28759e-08 1.46489e-07)
(7.93397e-09 -3.37192e-08 1.42532e-07)
(-1.60436e-08 -3.57847e-08 1.46761e-07)
(-6.66226e-08 -3.79027e-08 1.15324e-07)
(7.87488e-08 -7.80656e-08 1.08215e-07)
(3.5695e-08 -8.89606e-08 1.19118e-07)
(8.86034e-09 -8.74616e-08 1.16935e-07)
(-1.77896e-08 -9.13126e-08 1.20086e-07)
(-6.01212e-08 -8.2445e-08 1.10264e-07)
(3.54054e-08 1.75983e-08 5.19094e-09)
(0 0 0)
(0 0 0)
(0 0 0)
(-3.36361e-08 1.67666e-08 5.40022e-09)
(7.4472e-08 2.84123e-08 1.67937e-08)
(1.30198e-08 1.64064e-08 1.89568e-08)
(5.32613e-10 1.13928e-08 1.87803e-08)
(-1.17184e-08 1.56058e-08 1.93626e-08)
(-7.01905e-08 2.63756e-08 1.75725e-08)
(7.91715e-08 1.64196e-08 2.71408e-08)
(1.70455e-08 1.23943e-08 2.9998e-08)
(1.29067e-09 9.63851e-09 2.99545e-08)
(-1.42048e-08 1.11287e-08 3.07328e-08)
(-7.32862e-08 1.36396e-08 2.85565e-08)
(8.08386e-08 7.77189e-09 3.39752e-08)
(1.76438e-08 6.48023e-09 3.69699e-08)
(2.20484e-09 4.98271e-09 3.70015e-08)
(-1.29821e-08 4.81541e-09 3.79521e-08)
(-7.30829e-08 4.27089e-09 3.58761e-08)
(8.29082e-08 1.57191e-09 3.95925e-08)
(1.80741e-08 9.30464e-11 4.26023e-08)
(3.25769e-09 -1.32498e-09 4.26518e-08)
(-1.1307e-08 -1.93714e-09 4.37713e-08)
(-7.29918e-08 -2.61059e-09 4.18636e-08)
(8.73597e-08 -3.76389e-09 4.53465e-08)
(1.96639e-08 -6.74931e-09 4.83493e-08)
(4.44554e-09 -8.63679e-09 4.83976e-08)
(-1.05194e-08 -9.13102e-09 4.96661e-08)
(-7.50177e-08 -8.59316e-09 4.79111e-08)
(9.5734e-08 -1.04699e-08 5.19595e-08)
(2.3269e-08 -1.52333e-08 5.49485e-08)
(5.76284e-09 -1.73716e-08 5.50125e-08)
(-1.14997e-08 -1.79597e-08 5.63859e-08)
(-8.07656e-08 -1.59116e-08 5.47625e-08)
(1.09703e-07 -3.23072e-08 5.88923e-08)
(2.90767e-08 -3.60319e-08 6.19098e-08)
(7.18431e-09 -3.68746e-08 6.20631e-08)
(-1.44905e-08 -3.89608e-08 6.34312e-08)
(-9.20145e-08 -3.81384e-08 6.18689e-08)
(8.44697e-08 -8.71421e-08 6.34637e-08)
(3.28382e-08 -1.20636e-07 6.44738e-08)
(8.6572e-09 -1.17381e-07 6.465e-08)
(-1.53217e-08 -1.22311e-07 6.60086e-08)
(-6.60824e-08 -9.13998e-08 6.61386e-08)
(2.94683e-08 1.07532e-08 1.14387e-10)
(0 0 0)
(0 0 0)
(0 0 0)
(-2.77689e-08 1.00484e-08 3.19317e-10)
(6.19194e-08 1.63959e-08 3.9854e-09)
(9.37713e-09 6.96815e-09 6.99081e-09)
(3.75886e-10 2.71003e-09 7.79817e-09)
(-8.37838e-09 6.21791e-09 7.37867e-09)
(-5.79301e-08 1.45863e-08 4.69452e-09)
(6.56216e-08 7.58652e-09 1.14119e-08)
(1.23401e-08 4.3476e-09 1.53051e-08)
(1.00078e-09 1.93406e-09 1.64832e-08)
(-1.00677e-08 3.1112e-09 1.59711e-08)
(-6.03018e-08 4.98574e-09 1.2653e-08)
(6.68119e-08 1.27717e-09 1.80016e-08)
(1.27054e-08 1.86704e-10 2.20929e-08)
(1.80387e-09 -1.21026e-09 2.34268e-08)
(-8.83319e-09 -1.45565e-09 2.29709e-08)
(-5.98362e-08 -2.07862e-09 1.96605e-08)
(6.86263e-08 -3.5642e-09 2.34732e-08)
(1.30424e-08 -4.96594e-09 2.76224e-08)
(2.76557e-09 -6.35528e-09 2.9028e-08)
(-7.24431e-09 -6.97331e-09 2.8668e-08)
(-5.96529e-08 -7.62361e-09 2.54668e-08)
(7.29866e-08 -7.78552e-09 2.85385e-08)
(1.45594e-08 -1.07434e-08 3.27138e-08)
(3.87915e-09 -1.26208e-08 3.41588e-08)
(-6.52851e-09 -1.30996e-08 3.38947e-08)
(-6.17044e-08 -1.25062e-08 3.08026e-08)
(8.15932e-08 -1.2779e-08 3.34011e-08)
(1.81438e-08 -1.75723e-08 3.75677e-08)
(5.13632e-09 -1.97026e-08 3.90392e-08)
(-7.60442e-09 -2.0266e-08 3.88536e-08)
(-6.77642e-08 -1.81157e-08 3.58775e-08)
(9.6491e-08 -3.10805e-08 3.6934e-08)
(2.40017e-08 -3.47935e-08 4.10694e-08)
(6.51034e-09 -3.55683e-08 4.25625e-08)
(-1.07392e-08 -3.7672e-08 4.2414e-08)
(-8.00114e-08 -3.67915e-08 3.95448e-08)
(7.44055e-08 -8.1011e-08 3.88913e-08)
(2.77531e-08 -1.11329e-07 4.08082e-08)
(7.94684e-09 -1.0737e-07 4.22865e-08)
(-1.16357e-08 -1.12908e-07 4.21328e-08)
(-5.73297e-08 -8.51297e-08 4.12079e-08)
(2.58397e-08 8.33704e-09 1.9732e-10)
(0 0 0)
(0 0 0)
(0 0 0)
(-2.42473e-08 7.74043e-09 3.47105e-10)
(5.43046e-08 1.14689e-08 3.00096e-09)
(7.20194e-09 3.59136e-09 4.85657e-09)
(2.65342e-10 -1.60279e-10 5.5692e-09)
(-6.43308e-09 2.91374e-09 5.14236e-09)
(-5.06321e-08 9.89009e-09 3.52784e-09)
(5.75778e-08 2.72909e-09 8.70877e-09)
(9.50374e-09 -1.85188e-11 1.11402e-08)
(7.83363e-10 -2.16311e-09 1.21753e-08)
(-7.67231e-09 -1.1667e-09 1.16404e-08)
(-5.27735e-08 3.67977e-10 9.64534e-09)
(5.86808e-08 -3.08093e-09 1.45761e-08)
(9.75684e-09 -4.06822e-09 1.71166e-08)
(1.49129e-09 -5.36822e-09 1.82835e-08)
(-6.51294e-09 -5.6245e-09 1.77859e-08)
(-5.23996e-08 -6.21481e-09 1.58479e-08)
(6.04622e-08 -7.10391e-09 1.97227e-08)
(1.00705e-08 -8.48905e-09 2.22756e-08)
(2.37189e-09 -9.84409e-09 2.35048e-08)
(-5.06069e-09 -1.04164e-08 2.30842e-08)
(-5.2333e-08 -1.09659e-08 2.12759e-08)
(6.48264e-08 -1.01888e-08 2.41776e-08)
(1.15671e-08 -1.3155e-08 2.67303e-08)
(3.41815e-09 -1.5015e-08 2.79966e-08)
(-4.45671e-09 -1.54361e-08 2.76543e-08)
(-5.45042e-08 -1.47345e-08 2.59649e-08)
(7.35572e-08 -1.37151e-08 2.78292e-08)
(1.5151e-08 -1.8532e-08 3.03727e-08)
(4.62024e-09 -2.06524e-08 3.16624e-08)
(-5.63964e-09 -2.11524e-08 3.13843e-08)
(-6.07701e-08 -1.88922e-08 2.97985e-08)
(8.87308e-08 -3.01146e-08 2.9942e-08)
(2.10098e-08 -3.38708e-08 3.24941e-08)
(5.94858e-09 -3.46552e-08 3.38003e-08)
(-8.86394e-09 -3.66751e-08 3.35494e-08)
(-7.33469e-08 -3.56726e-08 3.20201e-08)
(6.8498e-08 -7.72876e-08 3.09068e-08)
(2.47762e-08 -1.05867e-07 3.24126e-08)
(7.34532e-09 -1.01824e-07 3.37477e-08)
(-9.85402e-09 -1.0738e-07 3.34401e-08)
(-5.25744e-08 -8.12807e-08 3.27308e-08)
(2.38633e-08 7.45143e-09 4.72665e-10)
(0 0 0)
(0 0 0)
(0 0 0)
(-2.23574e-08 6.93417e-09 5.78188e-10)
(5.01237e-08 9.55951e-09 2.94357e-09)
(6.25264e-09 2.41999e-09 3.84499e-09)
(1.94837e-10 -1.04991e-09 4.26832e-09)
(-5.64156e-09 1.80488e-09 4.04963e-09)
(-4.67014e-08 8.16389e-09 3.31971e-09)
(5.31763e-08 5.10764e-10 7.35246e-09)
(8.26049e-09 -2.00727e-09 8.53886e-09)
(6.34268e-10 -3.99121e-09 9.163e-09)
(-6.74327e-09 -3.06658e-09 8.902e-09)
(-4.8773e-08 -1.63654e-09 8.03036e-09)
(5.43291e-08 -5.4489e-09 1.20699e-08)
(8.49141e-09 -6.40974e-09 1.32933e-08)
(1.26637e-09 -7.64218e-09 1.40027e-08)
(-5.71035e-09 -7.87119e-09 1.3785e-08)
(-4.85903e-08 -8.36765e-09 1.30035e-08)
(5.61764e-08 -9.20406e-09 1.63798e-08)
(8.82463e-09 -1.06029e-08 1.75878e-08)
(2.07931e-09 -1.19266e-08 1.83387e-08)
(-4.41096e-09 -1.24389e-08 1.81888e-08)
(-4.87153e-08 -1.28654e-08 1.75362e-08)
(6.05804e-08 -1.16623e-08 2.00088e-08)
(1.03256e-08 -1.46384e-08 2.12057e-08)
(3.06772e-09 -1.64768e-08 2.19835e-08)
(-3.9255e-09 -1.68344e-08 2.18991e-08)
(-5.10302e-08 -1.60272e-08 2.13553e-08)
(6.93441e-08 -1.44458e-08 2.27488e-08)
(1.38979e-08 -1.92634e-08 2.39495e-08)
(4.22131e-09 -2.13719e-08 2.47472e-08)
(-5.192e-09 -2.18052e-08 2.47131e-08)
(-5.74076e-08 -1.94616e-08 2.42445e-08)
(8.45254e-08 -2.99923e-08 2.42745e-08)
(1.97195e-08 -3.37853e-08 2.55101e-08)
(5.50846e-09 -3.45976e-08 2.63262e-08)
(-8.45908e-09 -3.65181e-08 2.63074e-08)
(-7.00455e-08 -3.54059e-08 2.58588e-08)
(6.54969e-08 -7.54724e-08 2.49379e-08)
(2.34931e-08 -1.0294e-07 2.58472e-08)
(6.86918e-09 -9.8972e-08 2.66973e-08)
(-9.52736e-09 -1.04393e-07 2.66191e-08)
(-5.0516e-08 -7.93521e-08 2.63219e-08)
(2.27983e-08 7.06158e-09 5.03825e-10)
(0 0 0)
(0 0 0)
(0 0 0)
(-2.13504e-08 6.59907e-09 5.7509e-10)
(4.78929e-08 8.7543e-09 2.50976e-09)
(5.88529e-09 1.9398e-09 2.91536e-09)
(1.50691e-10 -1.38292e-09 3.13436e-09)
(-5.37673e-09 1.372e-09 3.05638e-09)
(-4.46399e-08 7.49057e-09 2.76588e-09)
(5.08695e-08 -4.3944e-10 5.75698e-09)
(7.78823e-09 -2.86664e-09 6.28515e-09)
(5.3579e-10 -4.76406e-09 6.61334e-09)
(-6.48252e-09 -3.85474e-09 6.53738e-09)
(-4.67422e-08 -2.42254e-09 6.22329e-09)
(5.20928e-08 -6.58103e-09 9.21956e-09)
(8.02971e-09 -7.54626e-09 9.75301e-09)
(1.11177e-09 -8.73768e-09 1.01307e-08)
(-5.57025e-09 -8.92783e-09 1.00974e-08)
(-4.67349e-08 -9.3255e-09 9.86911e-09)
(5.40142e-08 -1.03359e-08 1.24469e-08)
(8.38699e-09 -1.17511e-08 1.29622e-08)
(1.87215e-09 -1.30503e-08 1.33661e-08)
(-4.39841e-09 -1.35076e-08 1.33868e-08)
(-4.7032e-08 -1.38285e-08 1.32606e-08)
(5.84522e-08 -1.26011e-08 1.51533e-08)
(9.89166e-09 -1.55774e-08 1.56613e-08)
(2.81405e-09 -1.7394e-08 1.60845e-08)
(-4.00852e-09 -1.76987e-08 1.61547e-08)
(-4.94658e-08 -1.68114e-08 1.61102e-08)
(6.72005e-08 -1.51478e-08 1.71543e-08)
(1.34412e-08 -1.9948e-08 1.76753e-08)
(3.92769e-09 -2.20402e-08 1.81158e-08)
(-5.33085e-09 -2.24221e-08 1.82214e-08)
(-5.58957e-08 -2.00263e-08 1.82251e-08)
(8.23015e-08 -3.03313e-08 1.83237e-08)
(1.9215e-08 -3.41328e-08 1.88832e-08)
(5.1806e-09 -3.49584e-08 1.93402e-08)
(-8.61696e-09 -3.68063e-08 1.94544e-08)
(-6.85032e-08 -3.5625e-08 1.9463e-08)
(6.4001e-08 -7.47583e-08 1.88648e-08)
(2.29788e-08 -1.01517e-07 1.93814e-08)
(6.51173e-09 -9.76254e-08 1.98592e-08)
(-9.73425e-09 -1.0292e-07 1.99328e-08)
(-4.97348e-08 -7.85446e-08 1.98586e-08)
(2.22114e-08 6.86756e-09 3.86932e-10)
(0 0 0)
(0 0 0)
(0 0 0)
(-2.07989e-08 6.44011e-09 4.309e-10)
(4.66808e-08 8.38033e-09 1.78209e-09)
(5.73646e-09 1.71298e-09 1.96467e-09)
(1.2402e-10 -1.53359e-09 2.07114e-09)
(-5.29075e-09 1.17747e-09 2.05319e-09)
(-4.35326e-08 7.20356e-09 1.94085e-09)
(4.96403e-08 -8.45284e-10 3.92156e-09)
(7.60475e-09 -3.23843e-09 4.15461e-09)
(4.74103e-10 -5.09067e-09 4.31643e-09)
(-6.43237e-09 -4.17658e-09 4.31365e-09)
(-4.56871e-08 -2.71553e-09 4.21256e-09)
(5.0916e-08 -7.08728e-09 6.17239e-09)
(7.85936e-09 -8.06152e-09 6.40281e-09)
(1.01204e-09 -9.22911e-09 6.59163e-09)
(-5.60791e-09 -9.38543e-09 6.6212e-09)
(-4.58035e-08 -9.70779e-09 6.58107e-09)
(5.28873e-08 -1.0914e-08 8.28495e-09)
(8.2311e-09 -1.23387e-08 8.50411e-09)
(1.73534e-09 -1.36203e-08 8.70881e-09)
(-4.52357e-09 -1.40365e-08 8.77493e-09)
(-4.62198e-08 -1.42835e-08 8.80121e-09)
(5.73417e-08 -1.31907e-08 1.00652e-08)
(9.73353e-09 -1.61606e-08 1.02826e-08)
(2.64342e-09 -1.79589e-08 1.05007e-08)
(-4.19826e-09 -1.82264e-08 1.0599e-08)
(-4.87322e-08 -1.72864e-08 1.06768e-08)
(6.60598e-08 -1.57261e-08 1.13905e-08)
(1.32596e-08 -2.0504e-08 1.16216e-08)
(3.72738e-09 -2.25793e-08 1.18528e-08)
(-5.5556e-09 -2.2928e-08 1.19732e-08)
(-5.51837e-08 -2.05024e-08 1.20791e-08)
(8.1078e-08 -3.07661e-08 1.22101e-08)
(1.89931e-08 -3.45573e-08 1.24704e-08)
(4.95472e-09 -3.53815e-08 1.27136e-08)
(-8.85154e-09 -3.71871e-08 1.28389e-08)
(-6.77482e-08 -3.5971e-08 1.29455e-08)
(6.32012e-08 -7.45577e-08 1.26185e-08)
(2.27388e-08 -1.00868e-07 1.29087e-08)
(6.264e-09 -9.70159e-08 1.31603e-08)
(-9.99435e-09 -1.02234e-07 1.32636e-08)
(-4.943e-08 -7.82751e-08 1.32598e-08)
(2.19091e-08 6.77289e-09 2.0502e-10)
(0 0 0)
(0 0 0)
(0 0 0)
(-2.05157e-08 6.36484e-09 2.2599e-10)
(4.60607e-08 8.20723e-09 9.15764e-10)
(5.67018e-09 1.60791e-09 9.89276e-10)
(1.09785e-10 -1.60147e-09 1.03308e-09)
(-5.25828e-09 1.09104e-09 1.03195e-09)
(-4.2969e-08 7.07953e-09 9.91666e-10)
(4.90165e-08 -1.01429e-09 1.97739e-09)
(7.52526e-09 -3.39386e-09 2.06993e-09)
(4.40375e-10 -5.22393e-09 2.13713e-09)
(-6.42596e-09 -4.30274e-09 2.14679e-09)
(-4.51587e-08 -2.8192e-09 2.11702e-09)
(5.03206e-08 -7.29927e-09 3.08267e-09)
(7.78712e-09 -8.2789e-09 3.17318e-09)
(9.56426e-10 -9.43377e-09 3.25247e-09)
(-5.65176e-09 -9.56852e-09 3.27907e-09)
(-4.53447e-08 -9.84648e-09 3.27973e-09)
(5.23172e-08 -1.11865e-08 4.12165e-09)
(8.16467e-09 -1.26145e-08 4.20752e-09)
(1.65779e-09 -1.38854e-08 4.29453e-09)
(-4.61645e-09 -1.4277e-08 4.3393e-09)
(-4.58273e-08 -1.44819e-08 4.37187e-09)
(5.67762e-08 -1.35181e-08 5.00185e-09)
(9.66283e-09 -1.64811e-08 5.08827e-09)
(2.5454e-09 -1.82675e-08 5.18226e-09)
(-4.32729e-09 -1.85132e-08 5.24273e-09)
(-4.83822e-08 -1.7544e-08 5.29971e-09)
(6.54701e-08 -1.60966e-08 5.66462e-09)
(1.31726e-08 -2.08577e-08 5.75925e-09)
(3.61115e-09 -2.29204e-08 5.86035e-09)
(-5.70418e-09 -2.32511e-08 5.9313e-09)
(-5.48417e-08 -2.08104e-08 6.00119e-09)
(8.04334e-08 -3.10877e-08 6.09001e-09)
(1.88807e-08 -3.4866e-08 6.19978e-09)
(4.82273e-09 -3.56841e-08 6.30706e-09)
(-9.00575e-09 -3.74693e-08 6.38031e-09)
(-6.73766e-08 -3.62384e-08 6.4503e-09)
(6.27787e-08 -7.45407e-08 6.31227e-09)
(2.26109e-08 -1.00599e-07 6.44765e-09)
(6.11864e-09 -9.67609e-08 6.55719e-09)
(-1.01599e-08 -1.01942e-07 6.62135e-09)
(-4.92975e-08 -7.82161e-08 6.62651e-09)
(1.7385e-08 7.13954e-09 0)
(2.024e-09 1.99951e-09 0)
(-5.10358e-12 3.72507e-12 0)
(-1.95165e-09 1.84249e-09 0)
(-1.63567e-08 6.70237e-09 0)
(2.84917e-08 6.40738e-09 0)
(5.65004e-09 1.57719e-09 0)
(1.05321e-10 -1.62089e-09 0)
(-5.24878e-09 1.0664e-09 0)
(-2.66588e-08 5.45712e-09 0)
(3.14056e-08 -1.44899e-09 0)
(7.50115e-09 -3.43674e-09 0)
(4.29666e-10 -5.26005e-09 0)
(-6.42507e-09 -4.33602e-09 0)
(-2.88455e-08 -3.01663e-09 0)
(3.21768e-08 -7.43351e-09 0)
(7.76503e-09 -8.33889e-09 0)
(9.38588e-10 -9.48969e-09 0)
(-5.66692e-09 -9.61716e-09 0)
(-2.85512e-08 -9.65206e-09 0)
(3.33669e-08 -1.15551e-08 0)
(8.1439e-09 -1.26956e-08 0)
(1.6327e-09 -1.39629e-08 0)
(-4.64721e-09 -1.43463e-08 0)
(-2.82867e-08 -1.44264e-08 0)
(3.65606e-08 -1.44664e-08 0)
(9.6401e-09 -1.65836e-08 0)
(2.51347e-09 -1.83657e-08 0)
(-4.3696e-09 -1.86043e-08 0)
(-2.96415e-08 -1.79804e-08 0)
(4.33114e-08 -1.78712e-08 0)
(1.31441e-08 -2.0978e-08 0)
(3.57309e-09 -2.30362e-08 0)
(-5.75284e-09 -2.33611e-08 0)
(-3.42194e-08 -2.20011e-08 0)
(5.49675e-08 -3.30047e-08 0)
(1.88437e-08 -3.49762e-08 0)
(4.77936e-09 -3.57914e-08 0)
(-9.05635e-09 -3.75706e-08 0)
(-4.34759e-08 -3.75203e-08 0)
(5.33473e-08 -6.55214e-08 0)
(2.23697e-08 -7.34743e-08 0)
(5.74176e-09 -7.13582e-08 0)
(-1.06717e-08 -7.5456e-08 0)
(-4.06709e-08 -6.92838e-08 0)
)
;

boundaryField
{
    interface
    {
        type            calculated;
    }
    symmetry
    {
        type            symmetry;
    }
    bottom
    {
        type            calculated;
    }
}


// ************************************************************************* //
