/*--------------------------------*- C++ -*----------------------------------*\
| =========                 |                                                 |
| \\      /  F ield         | OpenFOAM: The Open Source CFD Toolbox           |
|  \\    /   O peration     | Version:  v1912                                 |
|   \\  /    A nd           | Website:  www.openfoam.com                      |
|    \\/     M anipulation  |                                                 |
\*---------------------------------------------------------------------------*/
FoamFile
{
    version     2.0;
    format      ascii;
    class       volSymmTensorField;
    location    "0.48/solid";
    object      sigma;
}
// * * * * * * * * * * * * * * * * * * * * * * * * * * * * * * * * * * * * * //

dimensions      [1 -1 -2 0 0 0 0];


internalField   nonuniform List<symmTensor> 
256
(
(-226130 19847 -7806.39 360862 21276.4 -243104)
(49086.3 -8913.15 -3138.72 227538 21230.4 -267850)
(50285.8 10961 3094.83 225442 21514.4 -263739)
(-205032 -18372.9 7867.89 356332 22320.7 -228522)
(-261681 -1440.92 -11488.4 99337.5 186.322 -275068)
(-42465.8 -4447.41 -5027.67 49364.3 1413.54 -312197)
(-40622.8 6332.68 5093.69 48157.3 1642.42 -307756)
(-238382 2287.93 11629.7 100282 983.933 -259365)
(-263401 -3488.41 -12218.1 102684 -2092.34 -276434)
(-50590.1 -3121.27 -5451.48 27576.3 -1809.63 -319432)
(-48784.3 4614.26 5581.31 26564.9 -1655.03 -314875)
(-239741 4101.21 12390.3 104076 -1539.76 -260419)
(-263968 -1904.39 -12585.6 120313 -744.16 -279048)
(-43093.9 -2065.77 -5630.12 23324.7 -853.893 -324990)
(-41291.5 3173.59 5772.9 22455.7 -743.479 -320342)
(-239933 2371.51 12767.4 122013 -337.05 -262760)
(-273078 -163.37 -12920.8 127143 1311.68 -289857)
(-40623.3 -966.342 -5804.47 19465.9 1143.5 -337842)
(-38793.5 1746.42 5942.27 18657.9 1232.73 -333127)
(-248684 496.745 13107.8 129062 1639.83 -273337)
(-295977 2675.93 -13181.5 112983 4692.1 -312603)
(-51937.5 693.74 -5959.54 4194.81 4621.55 -364000)
(-50121 -249.108 6094.93 3408.44 4703.2 -359236)
(-271378 -2513.68 13377.9 115032 4980.49 -295871)
(-337873 8569.85 -13111.6 11467.6 10613.6 -353024)
(-85320.9 3483.75 -5947.26 -84396.5 11036.6 -412004)
(-83543.1 -3516.64 6093.25 -84565.9 11115.5 -407136)
(-313303 -8665.84 13321.7 14979.1 10872.3 -335926)
(-288498 12379 -12310.7 -304414 14559.1 -304290)
(-1341.26 5670.05 -5586.52 -367450 15494.8 -367211)
(551.056 -5692.91 5735.39 -362591 15562.8 -362349)
(-264234 -12508.3 12511.2 -287527 14759.4 -287452)
(-244576 12572.1 -5694.34 183780 -8715.65 35063.6)
(-32138.7 -10091 -1437.87 47011.8 1157.19 -37729.6)
(-31394.2 11234.8 1734.36 44317.4 1925.38 -38229.6)
(-223761 -11456.5 5866.46 178535 -6349.59 37446.6)
(-283776 -2447.93 -8350.61 35328.3 -1251.05 -34374.5)
(-114731 -4758.68 -2972.45 -34496.8 3662.63 -116039)
(-113139 5713.3 3479.19 -36257.7 4161.88 -116176)
(-260672 2874.14 8618.35 35290.3 383.686 -30587.6)
(-289731 -3589.53 -8590.61 24986.9 -751.42 -39799.1)
(-130236 -3254.73 -3162.41 -68663.5 825.641 -132795)
(-128642 3927.01 3736.29 -70005 1184 -133000)
(-266207 3840.67 8883.52 25829.2 470.232 -36273.3)
(-293344 -2033.85 -8642.47 26785.2 -230.944 -37014.8)
(-128833 -2209.93 -3119.81 -87402.7 175.184 -136256)
(-127236 2656.39 3698.19 -88558.9 455.272 -136520)
(-269393 2220.15 8941.03 28013.5 736.171 -33663.8)
(-304655 -308.959 -8791.95 26298.5 2400.66 -38185)
(-130133 -1139.06 -3183.27 -98677.5 2483.29 -141107)
(-128504 1395.66 3747.15 -99793.9 2717.05 -141416)
(-280234 426.499 9093.25 27696.5 3199.45 -34923.1)
(-330837 2634.09 -8901.93 13381.9 6516.72 -48206.5)
(-144521 536.518 -3278.17 -112849 6514.42 -154688)
(-142899 -498.583 3829.58 -113959 6713.36 -155057)
(-306022 -2638.03 9209.67 14879.5 7185.37 -45030.5)
(-379999 8878.22 -8791.77 -73690.6 10002.1 -74484)
(-181701 3433.84 -3286.11 -185384 10097.9 -185700)
(-180110 -3731.39 3808.83 -185842 10247.9 -186057)
(-355011 -9092.86 9096.7 -70658.6 10506.3 -71215.5)
(-338127 13151.5 -8440.7 -353147 10715.6 11210.7)
(-85327.2 5994.88 -3260.43 -412163 11113.6 -84090.2)
(-83512 -6066.92 3647.18 -407252 11187.9 -84120.8)
(-313335 -13320.9 8679.95 -335872 10952.9 15040.4)
(-211912 7919.11 -2333.98 137563 4528.01 82787.5)
(-27560.4 -11832.4 -106.147 10977.5 13126.5 2137.9)
(-26785.2 12353.3 361.581 8490.61 13713.7 1383.39)
(-191320 -7081.57 2420.6 133373 6338.22 84841.8)
(-236535 -2804.64 -3185.89 39430.6 6919.09 48307.1)
(-82025.5 -5120.48 -596.786 -30915.1 11219.8 -45574.2)
(-80472.1 5584.7 1022.22 -32707.4 11710.6 -46157.5)
(-213890 3036.37 3348.4 39332.7 8472.86 51233.3)
(-241045 -3384.6 -2993.18 39062.2 5509.64 40331.1)
(-93834 -3244.69 -553.912 -52907.9 6964.85 -65496.2)
(-92276.5 3511.49 1000.59 -54324.8 7372.49 -66183)
(-218005 3473.8 3171.23 39639.3 6820.43 42861.6)
(-244874 -1996.7 -2817.21 42313.5 4438.46 40150.7)
(-92931.1 -2257.04 -419.316 -68060.6 4839.16 -72447)
(-91363.7 2378.41 844.116 -69293.7 5185.06 -73225.9)
(-221384 2054.54 2990.95 43254.9 5554.48 42393.3)
(-256015 -337.365 -2775.91 43059 5446.5 38664.7)
(-94496.3 -1250.79 -389.983 -77458.6 5541.29 -78250.5)
(-92882.2 1262.27 788.9 -78643.1 5839.33 -79104.7)
(-231968 361.293 2944.04 44194.4 6400.15 40729.8)
(-281765 2688.43 -2743.85 33981 7334.03 30466.1)
(-108283 452.836 -414.011 -87646.1 7327.67 -90453.5)
(-106651 -579.648 788.651 -88804.5 7577.41 -91384.3)
(-257151 -2752.14 2908.49 35279.5 8128.4 32408.3)
(-330893 8979.46 -2658.81 -46466.3 7248.56 11769.5)
(-143961 3396.82 -447.947 -153276 7196.75 -113593)
(-142325 -3778.74 762.424 -153751 7374.41 -114487)
(-305836 -9222.23 2805.97 -43533.2 7825.02 13870.9)
(-296268 13210.6 -2629.84 -312563 5107.57 112968)
(-51357.4 5988.72 -497.096 -363883 4997.95 5117.3)
(-49487.6 -6073.91 613.27 -359029 5065.26 4613.03)
(-271193 -13383.7 2695.71 -295514 5331.79 115760)
(-192398 5985.19 -740.026 118895 8599.51 81045)
(-25195.2 -12331.9 433.775 -749.722 13664.8 1221.87)
(-24414.8 12471.1 -208.009 -2966.19 14089.5 617.055)
(-172079 -5362.83 797.406 115789 9912.83 83639.9)
(-211066 -2795.33 -856.3 34373.1 10250.1 60834.5)
(-68851.3 -5178.36 539.17 -35376 12824.6 -33540.5)
(-67329.1 5355.51 -156.599 -37001.9 13223.9 -33979.1)
(-188846 2911.84 973.933 34697.2 11491 64201.4)
(-214663 -3099.19 -585.585 39829.3 9052.12 53170.1)
(-78084.7 -3139.56 686.994 -50126.3 9939.24 -52672.8)
(-76551.6 3188.52 -295.586 -51465.8 10301.8 -53215.6)
(-192067 3106.76 714.576 40544.3 10185 56116.4)
(-218640 -1847.41 -374.39 47406.1 7446.23 49579.8)
(-77212.9 -2206.31 820.976 -59564 7674.68 -62762.9)
(-75663.2 2166.07 -462.546 -60758 8000.57 -63406.1)
(-195580 1843.78 494.928 48374.6 8466.09 52201)
(-229853 -280.69 -277.622 51029.1 6753.97 45790.6)
(-79078.7 -1268.68 871.634 -65584.7 6803.77 -70917.6)
(-77475 1169.99 -547.932 -66737.6 7091.87 -71648.9)
(-206188 263.647 387.179 52170.1 7651.48 48191.9)
(-255459 2720.35 -235.549 43473 6250.15 38021.5)
(-92845.8 405.735 859.881 -74272.7 6260.87 -82809.3)
(-91210.5 -594.999 -572.243 -75394.5 6501.03 -83621.4)
(-231119 -2804.06 334.065 44801 6999.24 40288.4)
(-304041 8896.13 -233.965 -35199.6 4268.45 24310.8)
(-127646 3294.47 795.325 -138505 4240.18 -100915)
(-125984 -3703.76 -583.145 -138939 4405.81 -101673)
(-279073 -9142.35 307.017 -32204.4 4800.68 26781.7)
(-272480 12978.8 -289.122 -289306 2316.69 129357)
(-37609.9 5834.43 744.776 -337134 2138.15 21451.1)
(-35701 -5932.83 -730.237 -332275 2194.08 21105.8)
(-247282 -13153.3 282.144 -272283 2506.83 132564)
(-181362 5334.1 -226.354 110236 8202.24 76365.4)
(-24774.6 -12187.5 430.925 -5453.95 10784.1 -1026.94)
(-24007.3 12102.7 -249.952 -7454.95 11086.5 -1513.13)
(-161237 -4856.05 272.721 107977 9131.51 79372.4)
(-198088 -2667.99 -154.08 29993.9 9563.04 60466.4)
(-64754.1 -5068.1 672.555 -38799.4 10878.4 -30620.7)
(-63281.9 5072.39 -354.342 -40271 11175.6 -30921.3)
(-176171 2711.99 250.816 30749.9 10476.8 64238.7)
(-201426 -2875.27 51.9986 37175.5 9141.08 54065.1)
(-72947.4 -3030.92 814.82 -50955.5 9584.83 -47748.5)
(-71460.2 2951.05 -484.625 -52212.1 9867.66 -48147.9)
(-179144 2835.75 55.0672 38107.1 10014.5 57421.7)
(-205560 -1707.02 208.901 47239.8 7812.12 49266.2)
(-72145.5 -2145.24 908.223 -57109.2 7914.29 -58674.8)
(-70636.5 2014.42 -607.876 -58263.2 8178.17 -59175.9)
(-182805 1670.05 -109.88 48306.3 8629.24 52287.6)
(-216878 -218.673 288.832 52863.7 6397.57 44334.6)
(-74239.4 -1260.58 942.254 -60821.6 6431.35 -67856.1)
(-72672.6 1104.45 -677.829 -61953.1 6669.4 -68450.1)
(-193488 180.868 -202.015 54050.7 7133.81 47117.7)
(-242377 2718.49 309.629 45970.8 4767.92 37113.3)
(-88039 368.383 924.67 -68913.7 4818.43 -79220.5)
(-86433.6 -588.186 -700.61 -70021 5017.18 -79896.4)
(-218251 -2811.06 -236.796 47332.2 5386.63 39755.9)
(-290393 8774.31 273.746 -31544.4 2450.33 25826)
(-122335 3194.91 858.147 -132429 2494.29 -94991.4)
(-120688 -3619.84 -707.754 -132852 2629.69 -95605.1)
(-265529 -9021.92 -227.444 -28513.5 2887.31 28689.1)
(-260167 12747.8 204.763 -276590 1162.03 130061)
(-34111.6 5693.6 807.986 -322769 1061.61 26112.1)
(-32205.6 -5805.93 -825.303 -317905 1106 25920)
(-234923 -12926.7 -227.761 -259554 1314.33 133669)
(-174782 5124.76 -95.6746 105989 6396.71 73592.5)
(-24878.1 -11946.5 275.562 -7720.9 7652.22 -2193.87)
(-24119.4 11731.4 -145.894 -9566.16 7855.05 -2602.97)
(-154755 -4736.1 130.933 104338 7013.53 76885.3)
(-190848 -2549.07 -25.3172 27801.2 7273.71 58916.3)
(-63541 -4950.35 456.807 -40445 7903.61 -29620.2)
(-62106.2 4851.88 -221.594 -41801.2 8106.51 -29828.7)
(-169100 2549.1 99.734 28904.4 7892.57 62987.7)
(-194180 -2733.95 100.298 35287.5 7227.01 53555.5)
(-71416.9 -2957.54 552.111 -51779.5 7431.3 -45152)
(-69965.5 2798.92 -302.668 -52969.4 7629.09 -45453.9)
(-172072 2665.92 -16.664 36423.6 7834.54 57225.3)
(-198434 -1615.93 193.973 46198.2 6346.91 48882.7)
(-70715.2 -2108.1 604.724 -56658.5 6392.52 -55714)
(-69238.6 1921 -376.216 -57779.6 6581.3 -56116.7)
(-175845 1558.7 -116.035 47376.4 6929.71 52217.5)
(-209811 -179.813 241.697 52695.6 5012.8 43851.5)
(-72951 -1257.21 619.179 -59335.7 5046.6 -64926.7)
(-71414.2 1064.47 -420.242 -60453.5 5219.43 -65423.9)
(-186570 129.077 -174.035 53940.4 5547.26 46940.7)
(-235201 2705.13 247.491 46179.8 3363.84 37043.3)
(-86761.7 339.874 600.516 -67111.7 3434.01 -75918.5)
(-85182.4 -581.166 -436.882 -68215.4 3579.04 -76498.2)
(-211187 -2804.08 -192.511 47573.8 3816.89 39987.2)
(-282765 8685.21 212.444 -30228.5 1486.95 26549.7)
(-120762 3131.94 551.143 -129820 1569.52 -91004.9)
(-119133 -3570.57 -447.201 -130244 1668.17 -91520)
(-257946 -8935.56 -179.638 -27173.2 1807.69 29715.8)
(-253088 12600.6 155.4 -268917 649.231 129282)
(-33533.3 5609.39 507.079 -314357 623.406 28394.8)
(-31635.9 -5734.17 -528.696 -309492 655.665 28305.3)
(-227796 -12785.2 -175.324 -251863 760.603 133191)
(-170945 5041.11 -53.2223 103933 4014.22 72236.2)
(-24995.4 -11785.2 138.433 -8855.05 4591.41 -2798.26)
(-24240.2 11498.6 -60.8895 -10599.7 4708.11 -3160.01)
(-150962 -4703.47 75.1721 102671 4365.93 75710.7)
(-186747 -2477.2 -19.4734 26893.2 4466.53 57930.3)
(-63134.6 -4878.11 232.952 -41168.9 4750.42 -29332.5)
(-61721.3 4722.44 -89.4015 -42449.2 4868.11 -29484.4)
(-165082 2452.65 66.2812 28234 4823.31 62199.3)
(-190119 -2657.54 43.5974 34363.5 4496.07 53198.1)
(-70935.4 -2919.17 282.364 -52233.9 4585.83 -43933.6)
(-69504.7 2714.96 -127.52 -53377.5 4701.99 -44174.7)
(-168098 2573.13 9.71971 35651.6 4851.74 57079.6)
(-194444 -1567.77 90.2192 45416.9 4006.23 48977.7)
(-70311.6 -2092.1 306.938 -56752.1 4029.27 -53932.1)
(-68853.8 1870.66 -163.781 -57849.1 4141.57 -54273)
(-171937 1498.28 -40.0417 46686.6 4352.65 52528)
(-205842 -161.17 113.043 52167.4 3131.14 44215.3)
(-72621.3 -1259.46 310.785 -59099.2 3159.33 -62861.9)
(-71102 1042.71 -186.471 -60207.1 3263.13 -63297.8)
(-182672 101.979 -69.4772 53463.5 3452.58 47517.1)
(-231144 2693.99 113.291 45865.4 2020.44 37649.9)
(-86430.5 322.194 297.69 -66698.2 2077.9 -73655.3)
(-84866.3 -579.316 -196.866 -67800.4 2165.45 -74174.4)
(-207181 -2797.9 -78.2853 47288.1 2294.93 40802.3)
(-278406 8636.57 91.8882 -29703.2 853.513 27295.2)
(-120264 3101.51 269.489 -128724 924.532 -88673.9)
(-118646 -3551.19 -206.998 -129150 984.209 -89128.1)
(-253602 -8889.91 -71.3287 -26629 1048.66 30666.9)
(-248931 12526 55.9355 -264374 351.928 128925)
(-33494.9 5569.74 239.265 -309515 357.699 29585.9)
(-31602.5 -5703.78 -254.116 -304649 377.252 29559.6)
(-223597 -12715.4 -68.1459 -247301 419.757 133036)
(-169153 5004.03 -18.4151 103099 1364.39 71698.8)
(-25041.5 -11713.6 41.0073 -9325.95 1533.79 -3068.03)
(-24287.3 11395.5 -15.2288 -11021.3 1571.87 -3406.95)
(-149186 -4689.54 25.8306 102026 1478.6 75262)
(-184846 -2447 -9.84381 26587.4 1500.77 57516.7)
(-62975.9 -4847.67 68.8914 -41443.4 1583.21 -29283.9)
(-61572.4 4666.57 -20.6971 -42686.2 1621.75 -29408.5)
(-163214 2411.51 25.758 28047.9 1617.2 61884)
(-188243 -2625.39 8.82911 34016.5 1514.66 53072.5)
(-70762.1 -2904.12 83.6444 -52424.2 1540.65 -43477.1)
(-69340.8 2679.01 -31.1971 -53544.4 1578.9 -43688.5)
(-166256 2533.51 9.43457 35384.5 1631.57 57060.8)
(-192599 -1547.96 22.6704 45045.6 1357.34 49151.4)
(-70177 -2087.1 90.6144 -56874.8 1365.07 -53137.9)
(-68727.6 1849.19 -41.8501 -57959.1 1402.26 -53448.5)
(-170124 1472.6 -5.38085 46365.7 1472.04 52811.3)
(-204000 -154.224 29.2179 51835.5 1058.87 44602.2)
(-72516.5 -1262.09 91.094 -59151.9 1069.97 -61858.2)
(-71005 1033.12 -48.7344 -60254.3 1104.51 -62264.1)
(-180858 90.7216 -14.1838 53161.2 1165.92 48012.7)
(-229254 2688.53 28.863 45627 676.262 38147.6)
(-86322.5 314.196 86.5216 -66673 698.009 -72566.8)
(-84765.1 -579.929 -52.3333 -67774.3 727.228 -73056.4)
(-205310 -2795.22 -16.8215 47066.7 768.06 41406.3)
(-276368 8616.73 21.9725 -29506.3 284.463 27777.4)
(-120080 3090.42 77.5494 -128326 311.546 -87631.5)
(-118467 -3546.31 -56.5237 -128753 331.498 -88056.2)
(-251566 -8871.91 -14.9157 -26421.3 349.901 31253.2)
(-246953 12496.8 9.8269 -262235 113.894 128868)
(-33481.2 5555.26 66.8289 -307276 119.326 30099.7)
(-31590.9 -5694.23 -71.8929 -302409 125.87 30103.8)
(-221594 -12688.8 -13.8618 -245152 136.655 133082)
)
;

boundaryField
{
    interface
    {
        type            calculated;
        value           nonuniform List<symmTensor> 
192
(
(-47.9761 0.345896 3.07929 884261 21276.4 280296)
(-49.8574 0.214221 4.86281 611785 186.322 237379)
(-51.1822 -0.118386 5.36678 622739 -2092.34 243621)
(-51.9894 -0.532916 5.44074 652600 -744.16 253239)
(-52.1157 -0.884591 5.32659 681111 1311.68 264111)
(-52.9017 -1.5311 5.14151 703939 4692.1 278352)
(-51.2098 -2.00771 4.70021 656995 10613.6 292503)
(-54.6529 -4.38695 4.34814 308829 14559.1 308953)
(-46.6707 0.24027 1.5308 685048 -8715.65 536332)
(-47.5813 0.122203 2.59305 542197 -1251.05 472494)
(-48.3627 -0.182288 2.83316 542068 -751.42 477282)
(-48.9138 -0.612253 2.81594 557546 -230.944 493746)
(-48.834 -0.990494 2.6907 580436 2400.66 515952)
(-49.5554 -1.70991 2.52528 608522 6516.72 546934)
(-47.6119 -2.24096 2.24027 586416 10002.1 585623)
(-51.2419 -4.75074 2.00615 292733 10715.6 657091)
(-49.3811 0.203982 1.2135 578879 4528.01 524103)
(-50.1919 0.078978 2.03539 482722 6919.09 491599)
(-50.9694 -0.227 2.21743 491585 5509.64 492854)
(-51.5279 -0.688359 2.19978 508145 4438.46 505982)
(-51.3491 -1.10985 2.09871 531806 5446.5 527412)
(-51.9722 -1.91426 1.96464 563454 7334.03 559939)
(-49.5596 -2.52742 1.75279 549010 7248.56 607246)
(-52.9687 -5.21495 1.56826 279082 5107.57 704613)
(-49.5583 0.151741 0.751794 522879 8599.51 485029)
(-50.1752 0.00782966 1.32851 438304 10250.1 464766)
(-50.7863 -0.300277 1.44917 452363 9052.12 465704)
(-51.2499 -0.773897 1.42479 473095 7446.23 475269)
(-50.9675 -1.21643 1.34306 499477 6753.97 494238)
(-51.5258 -2.05958 1.24075 532403 6250.15 526951)
(-48.9538 -2.71002 1.10237 519426 4268.45 578937)
(-52.3259 -5.44806 0.985582 265431 2316.69 684094)
(-50.3632 0.127472 0.552952 492211 8202.24 458341)
(-50.9202 -0.03496 0.976895 411325 9563.04 441797)
(-51.4583 -0.353372 1.06627 426892 9141.08 443782)
(-51.8775 -0.841378 1.04825 450093 7812.12 452120)
(-51.5214 -1.30508 0.987897 478435 6397.57 469906)
(-52.0067 -2.18132 0.911453 511816 4767.92 502958)
(-49.2557 -2.86621 0.813013 499414 2450.33 556784)
(-52.4996 -5.65273 0.727341 255829 1162.03 662480)
(-50.5611 0.108212 0.341081 474737 6396.71 442341)
(-51.0655 -0.0692218 0.620559 395768 7273.71 426883)
(-51.5387 -0.395986 0.679751 411592 7227.01 429860)
(-51.9156 -0.892669 0.666324 435653 6346.91 438338)
(-51.509 -1.36859 0.625046 464842 5012.8 455998)
(-51.9529 -2.26229 0.573617 498409 3363.84 489273)
(-49.1182 -2.96556 0.511731 486566 1486.95 543344)
(-52.3176 -5.77756 0.45898 249710 649.231 647909)
(-50.824 0.0991002 0.200968 465044 4014.22 433346)
(-51.309 -0.0886477 0.364888 387192 4466.53 418229)
(-51.7483 -0.42275 0.399921 402997 4496.07 421832)
(-52.1018 -0.926268 0.392182 427213 4006.23 430774)
(-51.662 -1.41133 0.368221 456629 3131.14 448677)
(-52.0727 -2.31715 0.337742 490265 2020.44 482050)
(-49.1714 -3.03348 0.30232 478865 853.513 535863)
(-52.3236 -5.86405 0.270643 246067 351.928 639365)
(-50.8844 0.0931967 0.0599489 460685 1364.39 429285)
(-51.3557 -0.099662 0.112538 383353 1500.77 414283)
(-51.776 -0.436808 0.123885 399119 1514.66 418175)
(-52.1166 -0.942802 0.121154 423316 1357.34 427422)
(-51.6632 -1.43171 0.11335 452755 1058.87 445522)
(-52.059 -2.34218 0.10341 486407 676.262 478928)
(-49.1379 -3.06455 0.0926551 475237 284.463 532521)
(-52.2662 -5.90301 0.0825906 244353 113.894 635456)
(327900 19847 -4.44964 914892 -0.95242 -18.8762)
(279282 -1440.92 -7.34959 640300 -1.02293 -14.2716)
(285367 -3488.41 -8.25847 651452 -0.763478 -10.7995)
(298099 -1904.39 -8.48782 682380 -0.527581 -9.77225)
(311544 -163.37 -8.50585 711765 -0.437798 -9.94373)
(325882 2675.93 -8.52522 734843 -0.485252 -11.0384)
(338931 8569.85 -8.56227 688271 -0.599431 -13.2923)
(357534 12379 -9.23383 341618 -0.816243 -15.2759)
(602231 -8913.15 -2.82032 780684 -0.544631 -23.978)
(516815 -4447.41 -5.21337 608646 -0.700944 -22.9328)
(519690 -3121.27 -5.88725 597857 -0.508162 -21.8684)
(541865 -2065.77 -6.01739 608284 -0.264976 -21.6304)
(568473 -966.342 -6.02775 628562 -0.119981 -21.7359)
(598338 693.74 -6.09711 654471 -0.0511883 -22.1765)
(630064 3483.75 -6.30502 630988 -0.06471 -22.9257)
(697395 5670.05 -7.22382 331287 -0.150027 -23.4605)
(595632 10961 -2.93603 770788 -0.363751 -20.9491)
(510445 6332.68 -5.44244 599225 -0.495008 -20.1511)
(512954 4614.26 -6.18616 588303 -0.338492 -19.1863)
(534916 3173.59 -6.33889 598663 -0.0931347 -18.9377)
(561414 1746.42 -6.33573 618866 0.0854915 -19.0623)
(591148 -249.108 -6.35805 644677 0.231487 -19.4788)
(622653 -3516.64 -6.48441 621631 0.318593 -20.3012)
(690258 -5692.91 -7.33131 327115 0.327215 -21.226)
(323941 -18372.9 -3.40832 885305 -0.27986 -21.5068)
(276404 2287.93 -6.37904 615067 -0.373174 -21.0201)
(281955 4101.21 -7.31136 625772 -0.220439 -20.2374)
(294448 2371.51 -7.51833 656394 0.0334153 -20.0889)
(307815 496.745 -7.50773 685561 0.222644 -20.246)
(321956 -2513.68 -7.52242 708366 0.407767 -20.5492)
(334393 -8665.84 -7.55636 662674 0.552433 -21.1159)
(353429 -12508.3 -8.41095 330136 0.702447 -21.7845)
(-10.0188 0.920458 1.219 843381 22320.7 258526)
(-6.32852 0.893407 2.22345 574186 983.933 214539)
(-3.63615 0.376101 2.48665 584832 -1539.76 220338)
(-2.5443 -0.205586 2.55293 614281 -337.05 229508)
(-2.48394 -0.508815 2.56224 642404 1639.83 240005)
(-1.40369 -0.956081 2.71702 665009 4980.49 254105)
(-2.68441 -0.933942 2.78465 619647 10872.3 268742)
(6.28822 -3.21315 3.28107 285708 14759.4 285783)
(-16.0196 0.354547 -0.105855 643269 -6349.59 502181)
(-15.2458 0.327943 0.164838 503687 383.686 437809)
(-14.5201 0.0369273 0.156876 503612 470.232 441510)
(-14.0067 -0.330903 0.143738 518637 736.171 456960)
(-13.9737 -0.46714 0.179187 540858 3199.45 478238)
(-12.3854 -0.785345 0.378283 568313 7185.37 508403)
(-12.7426 -0.516482 0.603947 547442 10506.3 546885)
(-2.62621 -2.72894 1.03977 268816 10952.9 619729)
(-16.1876 0.18879 0.108905 538849 6338.22 490318)
(-15.6055 0.119691 0.469044 444989 8472.86 456889)
(-15.0055 -0.0794601 0.563833 453707 6820.43 456929)
(-14.3842 -0.357039 0.598174 469742 5554.48 468881)
(-14.2243 -0.403981 0.640821 492613 6400.15 489149)
(-12.2209 -0.661101 0.781566 523403 8128.4 520532)
(-12.2591 -0.283071 0.91042 509837 7825.02 567241)
(-1.15641 -2.65848 1.11924 254410 5331.79 665684)
(-17.8669 0.0852208 0.0156622 484662 9912.83 452513)
(-17.5648 -0.0144653 0.312458 401820 11491 431325)
(-17.2368 -0.155608 0.404922 415464 10185 431036)
(-16.6261 -0.359594 0.438894 435532 8466.09 439359)
(-16.3754 -0.325601 0.473426 461015 7651.48 457037)
(-14.0184 -0.521967 0.57404 492928 6999.24 488416)
(-13.664 -0.063311 0.658958 480553 4800.68 539539)
(-1.89966 -2.50316 0.780879 240561 2506.83 645409)
(-18.1124 0.0680693 0.10317 455350 9131.51 426745)
(-17.8126 -0.0447967 0.372452 375850 10476.8 409339)
(-17.4907 -0.168753 0.469363 390796 10014.5 410111)
(-16.8082 -0.348274 0.504979 413195 8629.24 417176)
(-16.4797 -0.279724 0.528694 440532 7133.81 433599)
(-13.9256 -0.455001 0.585836 472781 5386.63 465205)
(-13.423 0.0322225 0.619109 460795 2887.31 517998)
(-1.2907 -2.48978 0.662741 230912 1314.33 624135)
(-18.6016 0.0610548 0.0656423 438774 7013.53 411322)
(-18.317 -0.0567488 0.2559 360972 7892.57 395056)
(-18.0075 -0.171442 0.328318 376036 7834.54 396838)
(-17.2819 -0.336592 0.354749 399189 6929.71 404030)
(-16.894 -0.244677 0.370869 427284 5547.26 420285)
(-14.1887 -0.405167 0.406324 459631 3816.89 452044)
(-13.5525 0.100801 0.424159 448082 1807.69 504971)
(-1.15092 -2.46972 0.446183 224743 760.603 609797)
(-18.713 0.062932 0.0565233 429625 4365.93 402665)
(-18.4168 -0.0563674 0.174413 352812 4823.31 386777)
(-18.0936 -0.168144 0.219871 367773 4851.74 389201)
(-17.3326 -0.32868 0.236174 391010 4352.65 396852)
(-16.9086 -0.226689 0.245159 419273 3452.58 413326)
(-14.1219 -0.382046 0.262548 451629 2294.93 445143)
(-13.4265 0.131031 0.269037 440448 1048.66 497744)
(-0.869425 -2.47466 0.27479 221062 419.757 601399)
(-18.8311 0.0626214 0.0134549 425523 1478.6 398759)
(-18.5348 -0.0569017 0.0511584 349169 1617.2 383005)
(-18.2073 -0.166627 0.0661302 364052 1631.57 385728)
(-17.4306 -0.324303 0.0714924 387237 1472.04 393682)
(-16.9857 -0.21712 0.0747474 415492 1165.92 410343)
(-14.1577 -0.369114 0.0805877 447835 768.06 442174)
(-13.4216 0.147371 0.0835711 436849 349.901 494523)
(-0.792824 -2.47392 0.0855646 219326 136.655 597560)
(357859 9.29003 -12310.7 -14.8995 -0.729427 342067)
(339209 8.63942 -8440.7 -12.7146 -0.510047 688546)
(326342 8.63657 -2629.84 -10.0491 -0.357372 735577)
(313105 8.66942 -289.122 -8.33723 -0.231662 714941)
(302767 8.75589 204.763 -7.02017 -0.171065 692995)
(295659 8.80946 155.4 -6.09275 -0.105689 678029)
(291350 8.85444 55.9355 -5.50535 -0.0650364 669206)
(289344 8.87413 9.8269 -5.22207 -0.0194101 665164)
(697719 7.25924 -5586.52 -23.1484 -0.0472306 331849)
(630508 6.34339 -3260.43 -22.5011 0.0414559 631745)
(599480 6.14006 -497.096 -21.4908 0.0978443 655955)
(572148 6.07192 744.776 -20.7327 0.103942 631209)
(551483 6.07219 807.986 -20.0949 0.0860484 611707)
(537347 6.06992 507.079 -19.6266 0.0663065 599275)
(528765 6.07803 239.265 -19.3206 0.0391804 591846)
(524761 6.08044 66.8289 -19.1598 0.0144174 588342)
(690536 7.36478 5735.39 -20.9257 0.439603 327637)
(623028 6.51267 3647.18 -19.8825 0.435278 622419)
(592156 6.38632 613.27 -18.8006 0.391275 646257)
(564883 6.36899 -730.237 -18.0632 0.314662 621689)
(544212 6.39871 -825.303 -17.4118 0.2438 602338)
(530063 6.41395 -528.696 -16.9752 0.170311 590004)
(521471 6.4316 -254.116 -16.6736 0.100882 582633)
(517463 6.43773 -71.8929 -16.5345 0.033336 579158)
(353577 8.42389 12511.2 -21.5128 0.816398 330359)
(334532 7.562 8679.95 -20.7483 0.670853 662907)
(322296 7.52569 2695.71 -19.9845 0.563437 709249)
(309270 7.52228 282.144 -19.4612 0.437887 689116)
(298975 7.58064 -227.761 -18.9388 0.338673 667567)
(291893 7.6091 -175.324 -18.6179 0.232945 652879)
(287603 7.63868 -68.1459 -18.3778 0.139668 644236)
(285608 7.64996 -13.8618 -18.2687 0.0455778 640284)
)
;
    }
    symmetry
    {
        type            symmetry;
    }
    bottom
    {
        type            calculated;
        value           nonuniform List<symmTensor> 
32
(
(-744002 64504.9 -7806.39 62220.3 61467.1 -760975)
(-504783 44796.2 -5694.34 27769.4 -16163.9 -225143)
(-428884 32280.4 -2333.98 -89.5929 -1821.89 -134184)
(-394009 26862.7 -740.026 -8420.95 5410.06 -120566)
(-375083 24760.7 -226.354 -11536.1 6677.02 -117356)
(-364172 23879.2 -95.6746 -13048.7 5664.09 -115797)
(-357968 23452 -53.2223 -13705.8 3682.69 -114786)
(-355113 23262.6 -18.4151 -13924.8 1269.2 -114260)
(-234539 -8958.74 -3138.72 62068.7 55959.5 -551475)
(-84466.3 -11746.7 -1437.87 15724.5 -4876.11 -90057.2)
(-55132 -14767.5 -106.147 -8820.88 8633.15 -25433.7)
(-47967.9 -15651 433.775 -14396.7 11578.4 -21550.8)
(-45895.3 -15515.5 430.925 -16495.4 9795.1 -22147.6)
(-45440.2 -15215.4 275.562 -18075.6 7165.55 -22756)
(-45357.2 -15011.2 138.433 -19076 4367.49 -23160)
(-45329.9 -14920.2 41.0073 -19524.4 1469.32 -23356.4)
(-231277 10207.9 3094.83 61534.2 56151.4 -545301)
(-83744.9 11969 1734.36 12798.9 -3974.45 -90580.4)
(-54472.6 14339.7 361.581 -11521.1 9305.57 -26304.1)
(-47310.7 14882.7 -208.009 -16807.5 12055.1 -22278.8)
(-45260.1 14574.2 -249.952 -18689 10131.3 -22766)
(-44820 14185.1 -145.894 -20112.9 7390.26 -23303.6)
(-44744.2 13937.1 -60.8895 -21012 4496.56 -23664)
(-44719.8 13828.3 -15.2288 -21410.9 1511.4 -23839.4)
(-713362 -62798.8 7867.89 63500.2 62460.1 -736852)
(-480258 -43422.6 5866.46 23471.4 -13398.5 -219051)
(-404677 -31246.9 2420.6 -2822.28 229.962 -128515)
(-370081 -26101.7 797.406 -9757.93 6873.84 -114363)
(-351390 -24175.4 272.721 -11865.2 7704.86 -110781)
(-340608 -23397.3 130.933 -12670.4 6343.89 -108967)
(-334466 -23026.9 75.1721 -12881 4069.62 -107793)
(-331636 -22862.7 25.8306 -12884.5 1394.75 -107188)
)
;
    }
}


// ************************************************************************* //
