/*--------------------------------*- C++ -*----------------------------------*\
| =========                 |                                                 |
| \\      /  F ield         | OpenFOAM: The Open Source CFD Toolbox           |
|  \\    /   O peration     | Version:  v1912                                 |
|   \\  /    A nd           | Website:  www.openfoam.com                      |
|    \\/     M anipulation  |                                                 |
\*---------------------------------------------------------------------------*/
FoamFile
{
    version     2.0;
    format      ascii;
    class       volScalarField;
    location    "0.48/solid";
    object      sigmaHyd;
}
// * * * * * * * * * * * * * * * * * * * * * * * * * * * * * * * * * * * * * //

dimensions      [1 -1 -2 0 0 0 0];


internalField   nonuniform List<scalar> 
256
(
-718418
-369316
-365807
-695695
-966379
-555429
-550843
-938985
-984870
-578310
-573483
-956502
-995036
-586975
-581987
-965917
-1.02288e+06
-604416
-599326
-993195
-1.08546e+06
-647402
-642260
-1.05548e+06
-1.26046e+06
-791569
-785993
-1.22959e+06
-1.84496e+06
-1.33615e+06
-1.32599e+06
-1.80217e+06
-346932
-75726.7
-76410.4
-335167
-507454
-176060
-176062
-492395
-524720
-200441
-200306
-509050
-532313
-208620
-208415
-516119
-549431
-216600
-216358
-532751
-591179
-237716
-237463
-574124
-731139
-338994
-338308
-712997
-1.26085e+06
-791614
-785936
-1.2296e+06
-273648
-38216.5
-39081.3
-262263
-387070
-96122.1
-96522.8
-373164
-399876
-115191
-115490
-385504
-407239
-122928
-123168
-392371
-422894
-129775
-129981
-407490
-460834
-147113
-147291
-444892
-591247
-237318
-237017
-573895
-1.08589e+06
-647019
-641683
-1.0551e+06
-254819
-37858
-38608.1
-243228
-353366
-84330.9
-84673.3
-339611
-363496
-99755.8
-100025
-349387
-370497
-106607
-106831
-355931
-385884
-113156
-113347
-370765
-422903
-129690
-129847
-407159
-549115
-215673
-215327
-531768
-1.02235e+06
-602773
-597369
-991308
-245936
-39098.6
-39758.7
-234183
-339356
-81964.4
-82247.8
-325657
-348286
-95492.1
-95723.3
-334312
-354903
-101550
-101749
-340508
-370034
-107745
-107918
-355090
-406520
-123860
-123996
-390910
-530275
-207756
-207380
-512961
-990736
-582770
-577317
-959553
-240555
-39815.4
-40412.2
-228663
-331778
-81207.4
-81449.1
-318077
-340205
-93817.2
-94020.9
-326277
-346543
-99363.7
-99544.7
-332221
-361438
-105272
-105433
-346575
-397551
-121130
-121257
-382006
-519820
-203918
-203527
-502517
-972388
-571802
-566322
-941106
-237319
-40183.6
-40739.4
-225328
-327466
-80911.6
-81125.5
-313743
-335678
-93093.3
-93277.8
-321755
-341847
-98358.9
-98527
-327546
-356575
-104088
-104240
-341741
-392453
-119803
-119923
-376932
-513866
-201997
-201598
-496559
-961745
-565692
-560196
-930397
-235780
-40334.4
-40869.9
-223737
-325459
-80798.1
-80998.2
-311719
-333587
-92809.7
-92984.3
-319659
-339677
-97953.6
-98114.9
-325379
-354321
-103600
-103747
-339494
-390087
-119252
-119368
-374572
-511107
-201181
-200778
-493794
-956780
-562904
-557401
-925397
)
;

boundaryField
{
    interface
    {
        type            zeroGradient;
    }
    symmetry
    {
        type            symmetry;
    }
    bottom
    {
        type            zeroGradient;
    }
}


// ************************************************************************* //
