/*--------------------------------*- C++ -*----------------------------------*\
| =========                 |                                                 |
| \\      /  F ield         | OpenFOAM: The Open Source CFD Toolbox           |
|  \\    /   O peration     | Version:  v1912                                 |
|   \\  /    A nd           | Website:  www.openfoam.com                      |
|    \\/     M anipulation  |                                                 |
\*---------------------------------------------------------------------------*/
FoamFile
{
    version     2.0;
    format      ascii;
    class       volScalarField;
    location    "0.48/solid";
    object      T;
}
// * * * * * * * * * * * * * * * * * * * * * * * * * * * * * * * * * * * * * //

dimensions      [0 0 0 1 0 0 0];


internalField   nonuniform List<scalar> 
256
(
291.635
292.256
292.26
291.66
291.359
292.093
292.098
291.387
291.322
292.072
292.078
291.351
291.292
292.056
292.062
291.322
291.245
292.031
292.037
291.276
291.159
291.98
291.986
291.191
290.932
291.805
291.812
290.964
289.908
290.818
290.831
289.955
292.323
292.864
292.864
292.335
292.174
292.825
292.825
292.186
292.154
292.82
292.82
292.166
292.138
292.818
292.818
292.151
292.112
292.813
292.814
292.126
292.061
292.799
292.8
292.076
291.89
292.691
292.691
291.905
290.932
291.804
291.811
290.964
292.447
292.933
292.933
292.458
292.325
292.913
292.913
292.336
292.308
292.911
292.911
292.319
292.294
292.91
292.91
292.306
292.27
292.907
292.907
292.283
292.223
292.897
292.897
292.237
292.061
292.799
292.8
292.076
291.159
291.979
291.986
291.19
292.485
292.941
292.941
292.495
292.371
292.923
292.923
292.381
292.354
292.921
292.921
292.365
292.34
292.92
292.92
292.351
292.317
292.917
292.917
292.329
292.27
292.907
292.907
292.283
292.112
292.813
292.814
292.126
291.244
292.03
292.037
291.275
292.505
292.943
292.942
292.514
292.393
292.926
292.925
292.403
292.377
292.923
292.923
292.387
292.363
292.922
292.922
292.374
292.34
292.92
292.92
292.351
292.293
292.91
292.91
292.306
292.137
292.818
292.818
292.151
291.29
292.055
292.061
291.321
292.516
292.944
292.943
292.525
292.406
292.927
292.926
292.415
292.39
292.925
292.924
292.4
292.376
292.923
292.923
292.386
292.353
292.921
292.921
292.364
292.306
292.911
292.911
292.318
292.151
292.82
292.82
292.165
291.317
292.069
292.076
291.349
292.522
292.944
292.944
292.531
292.413
292.927
292.927
292.422
292.397
292.925
292.925
292.407
292.383
292.924
292.924
292.393
292.36
292.922
292.921
292.371
292.314
292.912
292.911
292.326
292.159
292.821
292.821
292.173
291.333
292.078
292.084
291.364
292.525
292.944
292.944
292.534
292.416
292.928
292.927
292.425
292.4
292.925
292.925
292.41
292.386
292.924
292.924
292.397
292.363
292.922
292.922
292.374
292.317
292.912
292.912
292.329
292.163
292.822
292.822
292.177
291.34
292.081
292.088
291.372
)
;

boundaryField
{
    interface
    {
        type            fixedValue;
        value           nonuniform List<scalar> 
192
(
290.143
289.954
289.892
289.82
289.71
289.529
289.172
288.186
290.936
290.823
290.776
290.717
290.626
290.471
290.144
289.171
291.221
291.127
291.084
291.029
290.942
290.79
290.47
289.526
291.361
291.273
291.231
291.177
291.091
290.94
290.623
289.705
291.441
291.355
291.314
291.26
291.174
291.025
290.711
289.811
291.488
291.404
291.363
291.309
291.224
291.075
290.764
289.877
291.516
291.432
291.391
291.337
291.252
291.103
290.794
289.915
291.528
291.444
291.404
291.35
291.265
291.116
290.808
289.933
290.063
289.876
289.813
289.74
289.63
289.448
289.087
288.097
290.724
290.603
290.554
290.495
290.404
290.248
289.915
288.918
290.75
290.631
290.583
290.525
290.435
290.279
289.947
288.956
290.155
289.974
289.915
289.844
289.736
289.555
289.197
288.22
290.266
290.085
290.027
289.957
289.85
289.67
289.313
288.34
291.047
290.938
290.893
290.837
290.75
290.597
290.272
289.313
291.328
291.238
291.198
291.146
291.062
290.914
290.597
289.67
291.466
291.381
291.342
291.291
291.208
291.062
290.749
289.849
291.543
291.461
291.423
291.372
291.29
291.144
290.836
289.955
291.59
291.508
291.47
291.42
291.338
291.194
290.888
290.021
291.616
291.535
291.498
291.447
291.366
291.222
290.918
290.059
291.628
291.548
291.51
291.46
291.378
291.235
290.932
290.077
288.096
289.085
289.444
289.624
289.731
289.797
289.835
289.853
288.917
289.914
290.245
290.4
290.488
290.541
290.572
290.587
288.955
289.946
290.277
290.432
290.52
290.573
290.604
290.619
288.22
289.196
289.554
289.734
289.841
289.906
289.945
289.963
)
;
    }
    symmetry
    {
        type            symmetry;
    }
    bottom
    {
        type            fixedValue;
        value           uniform 293;
    }
}


// ************************************************************************* //
