/*--------------------------------*- C++ -*----------------------------------*\
| =========                 |                                                 |
| \\      /  F ield         | OpenFOAM: The Open Source CFD Toolbox           |
|  \\    /   O peration     | Version:  v1912                                 |
|   \\  /    A nd           | Website:  www.openfoam.com                      |
|    \\/     M anipulation  |                                                 |
\*---------------------------------------------------------------------------*/
FoamFile
{
    version     2.0;
    format      ascii;
    class       volVectorField;
    location    "0.5/fluid";
    object      cellMotionU;
}
// * * * * * * * * * * * * * * * * * * * * * * * * * * * * * * * * * * * * * //

dimensions      [0 1 -1 0 0 0 0];


internalField   nonuniform List<vector> 
14592
(
(1.65544e-10 -3.71275e-10 2.8119e-10)
(4.61744e-10 -1.03824e-09 7.95875e-10)
(7.34736e-10 -1.65864e-09 1.30244e-09)
(9.9399e-10 -2.25444e-09 1.8335e-09)
(1.24967e-09 -2.8424e-09 2.4214e-09)
(1.51061e-09 -3.42857e-09 3.09426e-09)
(1.78737e-09 -4.01034e-09 3.88081e-09)
(2.09337e-09 -4.57082e-09 4.80877e-09)
(2.4487e-09 -5.07309e-09 5.90643e-09)
(2.88736e-09 -5.44365e-09 7.2008e-09)
(3.47804e-09 -5.54685e-09 8.72579e-09)
(4.37355e-09 -5.11275e-09 1.05402e-08)
(5.9385e-09 -3.54834e-09 1.28077e-08)
(9.12077e-09 6.50236e-10 1.60578e-08)
(1.61411e-08 1.13108e-08 2.17367e-08)
(2.88636e-08 3.29494e-08 3.10161e-08)
(4.92818e-10 -1.10242e-09 8.35955e-10)
(1.37482e-09 -3.08341e-09 2.36644e-09)
(2.18649e-09 -4.92684e-09 3.87055e-09)
(2.95817e-09 -6.70116e-09 5.44952e-09)
(3.71657e-09 -8.45169e-09 7.19261e-09)
(4.48938e-09 -1.02024e-08 9.18658e-09)
(5.3068e-09 -1.19482e-08 1.15148e-08)
(6.20632e-09 -1.3647e-08 1.42591e-08)
(7.24014e-09 -1.51987e-08 1.74972e-08)
(8.49283e-09 -1.64153e-08 2.13021e-08)
(1.01186e-08 -1.69609e-08 2.57403e-08)
(1.24182e-08 -1.62537e-08 3.08846e-08)
(1.60258e-08 -1.32723e-08 3.6878e-08)
(2.21507e-08 -6.30352e-09 4.40406e-08)
(3.25855e-08 6.86488e-09 5.29087e-08)
(4.62742e-08 2.42751e-08 6.23879e-08)
(8.09698e-10 -1.80082e-09 1.3699e-09)
(2.25835e-09 -5.03818e-09 3.87691e-09)
(3.59118e-09 -8.05602e-09 6.34038e-09)
(4.85564e-09 -1.09653e-08 8.92156e-09)
(6.09663e-09 -1.38474e-08 1.1769e-08)
(7.35812e-09 -1.67475e-08 1.50226e-08)
(8.68768e-09 -1.96699e-08 1.88184e-08)
(1.01412e-08 -2.25646e-08 2.32886e-08)
(1.17915e-08 -2.53058e-08 2.85598e-08)
(1.37427e-08 -2.76526e-08 3.47429e-08)
(1.61602e-08 -2.91971e-08 4.1922e-08)
(1.93328e-08 -2.92947e-08 5.01412e-08)
(2.37882e-08 -2.70118e-08 5.94076e-08)
(3.04326e-08 -2.12743e-08 6.9741e-08)
(4.0454e-08 -1.17278e-08 8.12107e-08)
(5.27286e-08 -1.81417e-09 9.26179e-08)
(1.10954e-09 -2.44421e-09 1.86989e-09)
(3.09391e-09 -6.84137e-09 5.29066e-09)
(4.91771e-09 -1.09476e-08 8.64839e-09)
(6.64534e-09 -1.49202e-08 1.21622e-08)
(8.33623e-09 -1.88754e-08 1.60307e-08)
(1.00498e-08 -2.28884e-08 2.04438e-08)
(1.18482e-08 -2.69859e-08 2.55856e-08)
(1.3802e-08 -3.11352e-08 3.16364e-08)
(1.59948e-08 -3.52226e-08 3.87685e-08)
(1.85316e-08 -3.90217e-08 4.71345e-08)
(2.15465e-08 -4.21479e-08 5.68399e-08)
(2.52231e-08 -4.40124e-08 6.79039e-08)
(2.98391e-08 -4.38179e-08 8.02182e-08)
(3.5787e-08 -4.07303e-08 9.34698e-08)
(4.35772e-08 -3.45566e-08 1.07076e-07)
(5.24146e-08 -2.76645e-08 1.19005e-07)
(1.38625e-09 -3.01073e-09 2.32446e-09)
(3.86471e-09 -8.4314e-09 6.57519e-09)
(6.13947e-09 -1.3505e-08 1.07417e-08)
(8.2887e-09 -1.84317e-08 1.50917e-08)
(1.03859e-08 -2.33678e-08 1.98696e-08)
(1.2503e-08 -2.84231e-08 2.53072e-08)
(1.47155e-08 -3.36588e-08 3.16301e-08)
(1.71063e-08 -3.90801e-08 3.90614e-08)
(1.97701e-08 -4.4622e-08 4.78193e-08)
(2.28142e-08 -5.01244e-08 5.81042e-08)
(2.63489e-08 -5.52969e-08 7.00655e-08)
(3.04872e-08 -5.96677e-08 8.37655e-08)
(3.53018e-08 -6.25124e-08 9.90691e-08)
(4.07874e-08 -6.28136e-08 1.15501e-07)
(4.68864e-08 -5.94358e-08 1.31919e-07)
(5.30243e-08 -5.29971e-08 1.45172e-07)
(1.63504e-09 -3.47951e-09 2.72482e-09)
(4.55647e-09 -9.74894e-09 7.70453e-09)
(7.23282e-09 -1.56311e-08 1.25761e-08)
(9.75422e-09 -2.13686e-08 1.76485e-08)
(1.22041e-08 -2.71539e-08 2.32007e-08)
(1.46654e-08 -3.31355e-08 2.9498e-08)
(1.72248e-08 -3.94163e-08 3.6799e-08)
(1.99785e-08 -4.60533e-08 4.53616e-08)
(2.30363e-08 -5.30529e-08 5.54444e-08)
(2.65242e-08 -6.03602e-08 6.72985e-08)
(3.05793e-08 -6.78386e-08 8.11483e-08)
(3.53432e-08 -7.5222e-08 9.71597e-08)
(4.09232e-08 -8.19958e-08 1.15368e-07)
(4.72913e-08 -8.70881e-08 1.35476e-07)
(5.41231e-08 -8.8269e-08 1.5628e-07)
(6.00898e-08 -8.30841e-08 1.73304e-07)
(1.85168e-09 -3.8305e-09 3.06425e-09)
(5.15795e-09 -1.07383e-08 8.65998e-09)
(8.18016e-09 -1.72367e-08 1.41217e-08)
(1.10161e-08 -2.36029e-08 1.97872e-08)
(1.37572e-08 -3.00644e-08 2.59619e-08)
(1.64935e-08 -3.68048e-08 3.29328e-08)
(1.93202e-08 -4.3969e-08 4.09796e-08)
(2.23444e-08 -5.16679e-08 5.0382e-08)
(2.56938e-08 -5.99852e-08 6.14259e-08)
(2.95248e-08 -6.89831e-08 7.4402e-08)
(3.40402e-08 -7.87113e-08 8.96088e-08)
(3.95149e-08 -8.92106e-08 1.07354e-07)
(4.63502e-08 -1.00488e-07 1.27974e-07)
(5.50983e-08 -1.12329e-07 1.51751e-07)
(6.62979e-08 -1.23548e-07 1.78357e-07)
(7.80445e-08 -1.30133e-07 2.02723e-07)
(2.03357e-09 -4.04684e-09 3.33918e-09)
(5.66167e-09 -1.1352e-08 9.43163e-09)
(8.9693e-09 -1.82429e-08 1.53615e-08)
(1.20587e-08 -2.50242e-08 2.14861e-08)
(1.50241e-08 -3.19493e-08 2.81233e-08)
(1.79589e-08 -3.92309e-08 3.5571e-08)
(2.09617e-08 -4.70478e-08 4.41153e-08)
(2.41447e-08 -5.55549e-08 5.40408e-08)
(2.76448e-08 -6.48966e-08 6.56372e-08)
(3.16388e-08 -7.52246e-08 7.9204e-08)
(3.63764e-08 -8.67295e-08 9.50651e-08)
(4.22447e-08 -9.97019e-08 1.13606e-07)
(4.99114e-08 -1.14654e-07 1.35368e-07)
(6.06129e-08 -1.32541e-07 1.61216e-07)
(7.65748e-08 -1.54918e-07 1.92359e-07)
(9.76606e-08 -1.80205e-07 2.25456e-07)
(1.65249e-10 -3.78907e-10 2.6709e-10)
(4.60698e-10 -1.0597e-09 7.55883e-10)
(7.3176e-10 -1.69319e-09 1.23547e-09)
(9.87864e-10 -2.30246e-09 1.73761e-09)
(1.23735e-09 -2.90387e-09 2.29046e-09)
(1.48806e-09 -3.50543e-09 2.9206e-09)
(1.74806e-09 -4.10573e-09 3.65319e-09)
(2.0267e-09 -4.69051e-09 4.51153e-09)
(2.33687e-09 -5.22718e-09 5.5162e-09)
(2.70024e-09 -5.65375e-09 6.68279e-09)
(3.16025e-09 -5.85867e-09 8.01862e-09)
(3.81243e-09 -5.6394e-09 9.52262e-09)
(4.88993e-09 -4.5878e-09 1.11987e-08)
(6.8973e-09 -1.82868e-09 1.30689e-08)
(1.07581e-08 4.39377e-09 1.5123e-08)
(1.6271e-08 1.46968e-08 1.64064e-08)
(4.92089e-10 -1.12493e-09 7.9416e-10)
(1.37158e-09 -3.14644e-09 2.24659e-09)
(2.1784e-09 -5.02869e-09 3.6719e-09)
(2.94006e-09 -6.84101e-09 5.16271e-09)
(3.68118e-09 -8.63224e-09 6.80285e-09)
(4.42493e-09 -1.04285e-08 8.67068e-09)
(5.1945e-09 -1.22287e-08 1.08398e-08)
(6.01574e-09 -1.39968e-08 1.33786e-08)
(6.92137e-09 -1.56458e-08 1.63451e-08)
(7.96112e-09 -1.70139e-08 1.97782e-08)
(9.22367e-09 -1.78278e-08 2.36811e-08)
(1.08917e-08 -1.76426e-08 2.7997e-08)
(1.33146e-08 -1.5779e-08 3.25488e-08)
(1.70891e-08 -1.13301e-08 3.69193e-08)
(2.26521e-08 -3.81889e-09 4.00601e-08)
(2.81669e-08 3.85356e-09 4.00103e-08)
(8.08745e-10 -1.83726e-09 1.3012e-09)
(2.25399e-09 -5.14035e-09 3.68052e-09)
(3.57926e-09 -8.22023e-09 6.01397e-09)
(4.82918e-09 -1.11923e-08 8.45221e-09)
(6.04407e-09 -1.41404e-08 1.1132e-08)
(7.26147e-09 -1.7114e-08 1.41807e-08)
(8.51831e-09 -2.01223e-08 1.77184e-08)
(9.85319e-09 -2.3124e-08 2.18566e-08)
(1.13096e-08 -2.60089e-08 2.6691e-08)
(1.29414e-08 -2.85708e-08 3.22848e-08)
(1.4826e-08 -3.04746e-08 3.86374e-08)
(1.70915e-08 -3.12344e-08 4.5631e-08)
(1.99525e-08 -3.02635e-08 5.29346e-08)
(2.3687e-08 -2.71884e-08 5.98239e-08)
(2.82721e-08 -2.28208e-08 6.48975e-08)
(3.20624e-08 -2.05139e-08 6.62244e-08)
(1.10879e-09 -2.49334e-09 1.77596e-09)
(3.08996e-09 -6.97886e-09 5.02286e-09)
(4.90523e-09 -1.11691e-08 8.20354e-09)
(6.61534e-09 -1.52256e-08 1.15227e-08)
(8.27485e-09 -1.92697e-08 1.51644e-08)
(9.9348e-09 -2.33804e-08 1.93008e-08)
(1.16447e-08 -2.75897e-08 2.4095e-08)
(1.34542e-08 -3.18728e-08 2.97001e-08)
(1.54123e-08 -3.61313e-08 3.62501e-08)
(1.75641e-08 -4.01695e-08 4.38381e-08)
(1.99436e-08 -4.36681e-08 5.24752e-08)
(2.25632e-08 -4.61779e-08 6.20192e-08)
(2.53652e-08 -4.71942e-08 7.2027e-08)
(2.81526e-08 -4.64673e-08 8.15339e-08)
(3.03998e-08 -4.47598e-08 8.87046e-08)
(3.11051e-08 -4.44137e-08 9.10459e-08)
(1.38649e-09 -3.07099e-09 2.20805e-09)
(3.86298e-09 -8.5998e-09 6.24273e-09)
(6.12976e-09 -1.37758e-08 1.019e-08)
(8.26151e-09 -1.88059e-08 1.43003e-08)
(1.03258e-08 -2.38502e-08 1.87991e-08)
(1.23861e-08 -2.9023e-08 2.38971e-08)
(1.45043e-08 -3.439e-08 2.9795e-08)
(1.67418e-08 -3.9962e-08 3.66835e-08)
(1.9157e-08 -4.56841e-08 4.47354e-08)
(2.17941e-08 -5.14166e-08 5.40823e-08)
(2.46676e-08 -5.69113e-08 6.47776e-08)
(2.76977e-08 -6.17884e-08 7.66937e-08)
(3.06297e-08 -6.55323e-08 8.93892e-08)
(3.28464e-08 -6.75881e-08 1.01758e-07)
(3.32892e-08 -6.77864e-08 1.11544e-07)
(3.13125e-08 -6.73785e-08 1.15366e-07)
(1.63676e-09 -3.54875e-09 2.58871e-09)
(4.5588e-09 -9.94256e-09 7.31587e-09)
(7.22959e-09 -1.59429e-08 1.19321e-08)
(9.73539e-09 -2.17985e-08 1.67256e-08)
(1.21546e-08 -2.77077e-08 2.19546e-08)
(1.45618e-08 -3.38221e-08 2.78603e-08)
(1.70309e-08 -4.02476e-08 3.46731e-08)
(1.96378e-08 -4.7044e-08 4.26145e-08)
(2.24582e-08 -5.42207e-08 5.18918e-08)
(2.55619e-08 -6.17286e-08 6.26814e-08)
(2.89899e-08 -6.94441e-08 7.50899e-08)
(3.27091e-08 -7.7132e-08 8.90838e-08)
(3.64821e-08 -8.436e-08 1.04321e-07)
(3.96221e-08 -9.03001e-08 1.19789e-07)
(4.06412e-08 -9.34965e-08 1.33067e-07)
(3.79609e-08 -9.27884e-08 1.39734e-07)
(1.85544e-09 -3.90652e-09 2.91163e-09)
(5.16594e-09 -1.09509e-08 8.22458e-09)
(8.18609e-09 -1.75788e-08 1.34009e-08)
(1.10108e-08 -2.40749e-08 1.87565e-08)
(1.37263e-08 -3.06716e-08 2.45731e-08)
(1.64159e-08 -3.75557e-08 3.11124e-08)
(1.91638e-08 -4.48735e-08 3.86239e-08)
(2.20598e-08 -5.27353e-08 4.73485e-08)
(2.52029e-08 -6.12211e-08 5.75167e-08)
(2.87035e-08 -7.03857e-08 6.93386e-08)
(3.26827e-08 -8.02641e-08 8.29776e-08)
(3.72644e-08 -9.08686e-08 9.85044e-08)
(4.2527e-08 -1.02148e-07 1.15767e-07)
(4.8349e-08 -1.13788e-07 1.34048e-07)
(5.38733e-08 -1.24572e-07 1.51122e-07)
(5.64405e-08 -1.31106e-07 1.61513e-07)
(2.03963e-09 -4.12698e-09 3.17344e-09)
(5.67631e-09 -1.15761e-08 8.95919e-09)
(8.98654e-09 -1.86037e-08 1.45807e-08)
(1.20698e-08 -2.55221e-08 2.03713e-08)
(1.50169e-08 -3.25896e-08 2.66253e-08)
(1.79153e-08 -4.00216e-08 3.3614e-08)
(2.08552e-08 -4.7997e-08 4.15933e-08)
(2.39353e-08 -5.66674e-08 5.08083e-08)
(2.72707e-08 -6.6169e-08 6.14925e-08)
(3.1004e-08 -7.66364e-08 7.38637e-08)
(3.53236e-08 -8.82276e-08 8.81055e-08)
(4.04981e-08 -1.01165e-07 1.04342e-07)
(4.6932e-08 -1.15804e-07 1.22559e-07)
(5.52504e-08 -1.3272e-07 1.42347e-07)
(6.61191e-08 -1.52451e-07 1.61986e-07)
(7.77568e-08 -1.72154e-07 1.75659e-07)
(1.64267e-10 -3.85445e-10 2.4338e-10)
(4.57469e-10 -1.07803e-09 6.88314e-10)
(7.25362e-10 -1.72278e-09 1.12443e-09)
(9.76155e-10 -2.34328e-09 1.57933e-09)
(1.21702e-09 -2.95655e-09 2.0783e-09)
(1.4538e-09 -3.57188e-09 2.64426e-09)
(1.69126e-09 -4.18908e-09 3.29758e-09)
(1.93358e-09 -4.798e-09 4.05646e-09)
(2.18422e-09 -5.372e-09 4.93279e-09)
(2.44821e-09 -5.86426e-09 5.92923e-09)
(2.73627e-09 -6.19722e-09 7.02969e-09)
(3.07777e-09 -6.24562e-09 8.18506e-09)
(3.53316e-09 -5.80506e-09 9.27844e-09)
(4.22086e-09 -4.50943e-09 1.00709e-08)
(5.19226e-09 -1.77894e-09 1.00166e-08)
(5.87574e-09 2.3329e-09 8.20314e-09)
(4.89211e-10 -1.14417e-09 7.2349e-10)
(1.36241e-09 -3.20044e-09 2.04605e-09)
(2.15983e-09 -5.11564e-09 3.34133e-09)
(2.90631e-09 -6.9609e-09 4.69233e-09)
(3.62269e-09 -8.78713e-09 6.173e-09)
(4.32634e-09 -1.0623e-08 7.85049e-09)
(5.03144e-09 -1.24726e-08 9.78602e-09)
(5.7486e-09 -1.43071e-08 1.20308e-08)
(6.48541e-09 -1.6058e-08 1.46206e-08)
(7.24664e-09 -1.76004e-08 1.75589e-08)
(8.04076e-09 -1.87389e-08 2.07906e-08)
(8.88641e-09 -1.91994e-08 2.41447e-08)
(9.82839e-09 -1.86468e-08 2.72409e-08)
(1.08657e-08 -1.68242e-08 2.92766e-08)
(1.16826e-08 -1.401e-08 2.88023e-08)
(1.1322e-08 -1.19452e-08 2.4765e-08)
(8.04387e-10 -1.86842e-09 1.18542e-09)
(2.24006e-09 -5.22764e-09 3.35212e-09)
(3.55093e-09 -8.36083e-09 5.4727e-09)
(4.77756e-09 -1.13859e-08 7.68273e-09)
(5.95436e-09 -1.439e-08 1.01023e-08)
(7.11012e-09 -1.7426e-08 1.28412e-08)
(8.26785e-09 -2.05087e-08 1.59986e-08)
(9.44415e-09 -2.36079e-08 1.96604e-08)
(1.06452e-08 -2.66346e-08 2.38863e-08)
(1.18622e-08 -2.94276e-08 2.86878e-08)
(1.30637e-08 -3.1744e-08 3.39841e-08)
(1.41831e-08 -3.32803e-08 3.95241e-08)
(1.50893e-08 -3.37845e-08 4.47532e-08)
(1.55098e-08 -3.33783e-08 4.86223e-08)
(1.49066e-08 -3.31299e-08 4.95139e-08)
(1.28981e-08 -3.47732e-08 4.66677e-08)
(1.10365e-09 -2.53521e-09 1.61837e-09)
(3.07317e-09 -7.0963e-09 4.57461e-09)
(4.87082e-09 -1.13578e-08 7.46607e-09)
(6.55206e-09 -1.54851e-08 1.04749e-08)
(8.16416e-09 -1.96028e-08 1.37636e-08)
(9.74735e-09 -2.37935e-08 1.74805e-08)
(1.13346e-08 -2.80946e-08 2.17614e-08)
(1.29485e-08 -3.24901e-08 2.67243e-08)
(1.45949e-08 -3.69006e-08 3.2457e-08)
(1.62478e-08 -4.11688e-08 3.89889e-08)
(1.78225e-08 -4.50542e-08 4.62364e-08)
(1.91249e-08 -4.82591e-08 5.39089e-08)
(1.9775e-08 -5.05496e-08 6.13754e-08)
(1.90979e-08 -5.20587e-08 6.74421e-08)
(1.62329e-08 -5.37232e-08 7.03252e-08)
(1.15278e-08 -5.66076e-08 6.89683e-08)
(1.38129e-09 -3.12217e-09 2.01217e-09)
(3.8457e-09 -8.74298e-09 5.68661e-09)
(6.09367e-09 -1.40058e-08 9.27532e-09)
(8.19388e-09 -1.91214e-08 1.30021e-08)
(1.02061e-08 -2.42532e-08 1.70657e-08)
(1.21821e-08 -2.95185e-08 2.16481e-08)
(1.41657e-08 -3.49856e-08 2.69163e-08)
(1.61904e-08 -4.06709e-08 3.30193e-08)
(1.8269e-08 -4.65288e-08 4.00738e-08)
(2.03749e-08 -5.24416e-08 4.81361e-08)
(2.23957e-08 -5.82071e-08 5.71373e-08)
(2.40646e-08 -6.35389e-08 6.68098e-08)
(2.47982e-08 -6.81008e-08 7.64851e-08)
(2.35468e-08 -7.16365e-08 8.48975e-08)
(1.89679e-08 -7.42567e-08 9.00354e-08)
(1.17397e-08 -7.65196e-08 9.02788e-08)
(1.63223e-09 -3.60736e-09 2.35932e-09)
(4.54348e-09 -1.01066e-08 6.6653e-09)
(7.19612e-09 -1.6206e-08 1.0863e-08)
(9.67078e-09 -2.21585e-08 1.52101e-08)
(1.20378e-08 -2.81654e-08 1.99344e-08)
(1.43601e-08 -3.43796e-08 2.52443e-08)
(1.66945e-08 -4.09075e-08 3.13323e-08)
(1.90891e-08 -4.78073e-08 3.83717e-08)
(2.15772e-08 -5.5087e-08 4.65057e-08)
(2.41581e-08 -6.26968e-08 5.58177e-08)
(2.67596e-08 -7.05153e-08 6.62791e-08)
(2.91535e-08 -7.83211e-08 7.76502e-08)
(3.07857e-08 -8.57259e-08 8.93054e-08)
(3.05121e-08 -9.2025e-08 9.99469e-08)
(2.65187e-08 -9.60271e-08 1.07366e-07)
(1.85625e-08 -9.66054e-08 1.0936e-07)
(1.85237e-09 -3.9706e-09 2.65425e-09)
(5.15456e-09 -1.11301e-08 7.49467e-09)
(8.15926e-09 -1.78659e-08 1.22027e-08)
(1.09556e-08 -2.4467e-08 1.70608e-08)
(1.36227e-08 -3.1168e-08 2.23174e-08)
(1.62331e-08 -3.8156e-08 2.81991e-08)
(1.88551e-08 -4.55739e-08 3.49143e-08)
(2.15542e-08 -5.35251e-08 4.26523e-08)
(2.4391e-08 -6.20767e-08 5.15728e-08)
(2.74134e-08 -7.12605e-08 6.17799e-08)
(3.06385e-08 -8.1071e-08 7.32757e-08)
(3.4007e-08 -9.14483e-08 8.58623e-08)
(3.72779e-08 -1.02213e-07 9.89573e-08)
(3.98231e-08 -1.12847e-07 1.11236e-07)
(4.03311e-08 -1.21955e-07 1.20188e-07)
(3.74715e-08 -1.26563e-07 1.22826e-07)
(2.03848e-09 -4.1943e-09 2.8935e-09)
(5.67062e-09 -1.17643e-08 8.16586e-09)
(8.9692e-09 -1.89051e-08 1.32802e-08)
(1.2029e-08 -2.5933e-08 1.85341e-08)
(1.49342e-08 -3.31085e-08 2.4188e-08)
(1.77632e-08 -4.06455e-08 3.04765e-08)
(2.05927e-08 -4.87172e-08 3.76141e-08)
(2.35007e-08 -5.74643e-08 4.57928e-08)
(2.65705e-08 -6.70011e-08 5.51745e-08)
(2.98919e-08 -7.74243e-08 6.58659e-08)
(3.35645e-08 -8.88217e-08 7.78755e-08)
(3.76952e-08 -1.01284e-07 9.10232e-08)
(4.23865e-08 -1.14915e-07 1.0475e-07)
(4.7721e-08 -1.29797e-07 1.17704e-07)
(5.3667e-08 -1.45708e-07 1.27005e-07)
(5.92887e-08 -1.5997e-07 1.28474e-07)
(1.62817e-10 -3.90804e-10 2.11096e-10)
(4.53022e-10 -1.09306e-09 5.96876e-10)
(7.16731e-10 -1.74695e-09 9.74021e-10)
(9.61345e-10 -2.3766e-09 1.36686e-09)
(1.19244e-09 -2.99979e-09 1.79592e-09)
(1.41377e-09 -3.62634e-09 2.27995e-09)
(1.62691e-09 -4.25812e-09 2.83492e-09)
(1.83079e-09 -4.88742e-09 3.4732e-09)
(2.02061e-09 -5.49437e-09 4.20046e-09)
(2.18721e-09 -6.04463e-09 5.01082e-09)
(2.31655e-09 -6.48681e-09 5.87748e-09)
(2.3907e-09 -6.74938e-09 6.73765e-09)
(2.39188e-09 -6.73204e-09 7.47774e-09)
(2.27644e-09 -6.27589e-09 7.89678e-09)
(1.91044e-09 -5.0831e-09 7.74207e-09)
(1.03512e-09 -2.9092e-09 6.8946e-09)
(4.85048e-10 -1.15999e-09 6.27588e-10)
(1.34945e-09 -3.24472e-09 1.77395e-09)
(2.13503e-09 -5.18691e-09 2.89511e-09)
(2.86347e-09 -7.05917e-09 4.06115e-09)
(3.55157e-09 -8.91384e-09 5.33437e-09)
(4.21064e-09 -1.07823e-08 6.7694e-09)
(4.84556e-09 -1.26721e-08 8.41342e-09)
(5.45269e-09 -1.45628e-08 1.03023e-08)
(6.0165e-09 -1.64013e-08 1.24526e-08)
(6.50451e-09 -1.80946e-08 1.48456e-08)
(6.86256e-09 -1.95082e-08 1.73985e-08)
(7.01451e-09 -2.04777e-08 1.99257e-08)
(6.85266e-09 -2.0846e-08 2.20594e-08)
(6.23584e-09 -2.05455e-08 2.31991e-08)
(5.00149e-09 -1.97249e-08 2.25854e-08)
(3.37966e-09 -1.88744e-08 2.03504e-08)
(7.97959e-10 -1.89397e-09 1.02843e-09)
(2.22005e-09 -5.2994e-09 2.90652e-09)
(3.51254e-09 -8.47606e-09 4.74216e-09)
(4.71117e-09 -1.15442e-08 6.65002e-09)
(5.84403e-09 -1.45931e-08 8.73087e-09)
(6.93059e-09 -1.76786e-08 1.1074e-08)
(7.98015e-09 -2.08204e-08 1.37568e-08)
(8.98774e-09 -2.39977e-08 1.68394e-08)
(9.92665e-09 -2.71405e-08 2.03518e-08)
(1.07364e-08 -3.01247e-08 2.42708e-08)
(1.13066e-08 -3.27759e-08 2.84787e-08)
(1.14586e-08 -3.49053e-08 3.2705e-08)
(1.09299e-08 -3.64155e-08 3.64523e-08)
(9.40591e-09 -3.75135e-08 3.89638e-08)
(6.76339e-09 -3.89251e-08 3.94834e-08)
(3.97087e-09 -4.12099e-08 3.84344e-08)
(1.09561e-09 -2.56961e-09 1.40383e-09)
(3.04828e-09 -7.19254e-09 3.96747e-09)
(4.82284e-09 -1.15122e-08 6.47039e-09)
(6.46873e-09 -1.56962e-08 9.06823e-09)
(8.02534e-09 -1.98715e-08 1.1897e-08)
(9.52156e-09 -2.41233e-08 1.50776e-08)
(1.09733e-08 -2.84928e-08 1.87159e-08)
(1.2378e-08 -3.29714e-08 2.28959e-08)
(1.3703e-08 -3.74944e-08 2.76657e-08)
(1.48644e-08 -4.1934e-08 3.30063e-08)
(1.56959e-08 -4.61028e-08 3.87881e-08)
(1.59032e-08 -4.97912e-08 4.47092e-08)
(1.50068e-08 -5.28705e-08 5.02034e-08)
(1.23951e-08 -5.55098e-08 5.44703e-08)
(7.77251e-09 -5.83492e-08 5.67337e-08)
(2.80011e-09 -6.163e-08 5.71983e-08)
(1.37252e-09 -3.16401e-09 1.74591e-09)
(3.81846e-09 -8.86015e-09 4.93253e-09)
(6.0407e-09 -1.41932e-08 8.03978e-09)
(8.10142e-09 -1.93762e-08 1.12581e-08)
(1.00514e-08 -2.45748e-08 1.4754e-08)
(1.19302e-08 -2.99072e-08 1.8676e-08)
(1.37634e-08 -3.54431e-08 2.31549e-08)
(1.55575e-08 -4.12007e-08 2.82976e-08)
(1.72857e-08 -4.71397e-08 3.41702e-08)
(1.88625e-08 -5.31535e-08 4.07667e-08)
(2.01031e-08 -5.90638e-08 4.79696e-08)
(2.06394e-08 -6.46208e-08 5.54507e-08)
(1.98325e-08 -6.95364e-08 6.26428e-08)
(1.67454e-08 -7.35598e-08 6.86939e-08)
(1.06692e-08 -7.66232e-08 7.27486e-08)
(3.53432e-09 -7.88045e-08 7.46691e-08)
(1.62365e-09 -3.65518e-09 2.04767e-09)
(4.51639e-09 -1.02403e-08 5.78253e-09)
(7.14303e-09 -1.64191e-08 9.41794e-09)
(9.5771e-09 -2.2447e-08 1.31727e-08)
(1.18801e-08 -2.85262e-08 1.72379e-08)
(1.41025e-08 -3.48093e-08 2.17838e-08)
(1.62829e-08 -4.13996e-08 2.69614e-08)
(1.84434e-08 -4.83507e-08 3.28953e-08)
(2.05787e-08 -5.56628e-08 3.9668e-08)
(2.26342e-08 -6.32746e-08 4.72901e-08)
(2.44645e-08 -7.10484e-08 5.56474e-08)
(2.57559e-08 -7.87372e-08 6.44262e-08)
(2.58989e-08 -8.5912e-08 7.30224e-08)
(2.38743e-08 -9.18086e-08 8.05188e-08)
(1.85227e-08 -9.51439e-08 8.59211e-08)
(1.08815e-08 -9.47739e-08 8.88745e-08)
(1.84467e-09 -4.02267e-09 2.304e-09)
(5.13011e-09 -1.12755e-08 6.50342e-09)
(8.11034e-09 -1.80971e-08 1.05817e-08)
(1.08679e-08 -2.47787e-08 1.47788e-08)
(1.34734e-08 -3.15549e-08 1.93032e-08)
(1.59875e-08 -3.86103e-08 2.43404e-08)
(1.84619e-08 -4.60813e-08 3.00541e-08)
(2.0938e-08 -5.40598e-08 3.65799e-08)
(2.3441e-08 -6.25923e-08 4.40096e-08)
(2.59699e-08 -7.16776e-08 5.23629e-08)
(2.84737e-08 -8.12547e-08 6.15293e-08)
(3.08086e-08 -9.11718e-08 7.11865e-08)
(3.26652e-08 -1.01104e-07 8.06764e-08)
(3.34963e-08 -1.10342e-07 8.89124e-08)
(3.25842e-08 -1.17365e-07 9.45412e-08)
(2.99412e-08 -1.19706e-07 9.69909e-08)
(2.03237e-09 -4.24878e-09 2.5122e-09)
(5.65064e-09 -1.19164e-08 7.08739e-09)
(8.92801e-09 -1.91466e-08 1.15185e-08)
(1.1953e-08 -2.62575e-08 1.60588e-08)
(1.48021e-08 -3.35089e-08 2.09268e-08)
(1.75435e-08 -4.11105e-08 2.63152e-08)
(2.02389e-08 -4.92265e-08 3.2392e-08)
(2.29453e-08 -5.79802e-08 3.92949e-08)
(2.57151e-08 -6.74572e-08 4.71151e-08)
(2.85956e-08 -7.77058e-08 5.58692e-08)
(3.16251e-08 -8.87331e-08 6.54408e-08)
(3.48277e-08 -1.00496e-07 7.54876e-08)
(3.82166e-08 -1.12882e-07 8.52886e-08)
(4.18701e-08 -1.25685e-07 9.35531e-08)
(4.61376e-08 -1.38481e-07 9.83584e-08)
(5.12826e-08 -1.49464e-07 9.84343e-08)
(1.61205e-10 -3.94983e-10 1.7162e-10)
(4.48035e-10 -1.10471e-09 4.84876e-10)
(7.07456e-10 -1.76555e-09 7.91215e-10)
(9.45748e-10 -2.40252e-09 1.10887e-09)
(1.16722e-09 -3.03314e-09 1.45511e-09)
(1.37371e-09 -3.66833e-09 1.8437e-09)
(1.56414e-09 -4.31112e-09 2.28642e-09)
(1.73329e-09 -4.95564e-09 2.79098e-09)
(1.8708e-09 -5.58662e-09 3.35924e-09)
(1.95896e-09 -6.1779e-09 3.98254e-09)
(1.97229e-09 -6.69136e-09 4.63528e-09)
(1.87852e-09 -7.07883e-09 5.26928e-09)
(1.63788e-09 -7.27349e-09 5.80252e-09)
(1.19902e-09 -7.15281e-09 6.15369e-09)
(4.55637e-10 -6.41981e-09 6.29494e-09)
(-6.66736e-10 -4.63842e-09 6.31388e-09)
(4.80337e-10 -1.1723e-09 5.10131e-10)
(1.33512e-09 -3.27913e-09 1.44187e-09)
(2.10818e-09 -5.24244e-09 2.35122e-09)
(2.81834e-09 -7.13529e-09 3.29542e-09)
(3.47862e-09 -9.01216e-09 4.32269e-09)
(4.0948e-09 -1.09053e-08 5.47501e-09)
(4.66401e-09 -1.28249e-08 6.78631e-09)
(5.1717e-09 -1.47569e-08 8.28008e-09)
(5.58644e-09 -1.66583e-08 9.96104e-09)
(5.85439e-09 -1.84552e-08 1.18029e-08)
(5.89534e-09 -2.00456e-08 1.37304e-08)
(5.60314e-09 -2.13088e-08 1.55891e-08)
(4.86667e-09 -2.21276e-08 1.71373e-08)
(3.62216e-09 -2.24012e-08 1.80382e-08)
(2.00205e-09 -2.20212e-08 1.80105e-08)
(6.78053e-10 -2.09942e-08 1.72617e-08)
(7.90629e-10 -1.91396e-09 8.36057e-10)
(2.19781e-09 -5.35543e-09 2.36261e-09)
(3.47077e-09 -8.5658e-09 3.85222e-09)
(4.64092e-09 -1.16672e-08 5.397e-09)
(5.73015e-09 -1.47496e-08 7.07609e-09)
(6.74986e-09 -1.78712e-08 8.95761e-09)
(7.69775e-09 -2.10554e-08 1.1098e-08)
(8.55247e-09 -2.42868e-08 1.35363e-08)
(9.26512e-09 -2.7508e-08 1.62838e-08)
(9.74699e-09 -3.06161e-08 1.93043e-08)
(9.85733e-09 -3.34694e-08 2.24874e-08)
(9.39826e-09 -3.59186e-08 2.56173e-08)
(8.14193e-09 -3.78802e-08 2.83528e-08)
(5.96079e-09 -3.94626e-08 3.02899e-08)
(3.18402e-09 -4.1054e-08 3.11891e-08)
(1.16565e-09 -4.28573e-08 3.1415e-08)
(1.08641e-09 -2.59649e-09 1.14174e-09)
(3.02016e-09 -7.26785e-09 3.22526e-09)
(4.77005e-09 -1.16325e-08 5.25709e-09)
(6.37954e-09 -1.58594e-08 7.36095e-09)
(7.88076e-09 -2.0077e-08 9.64375e-09)
(9.29235e-09 -2.43719e-08 1.21981e-08)
(1.06161e-08 -2.87868e-08 1.51013e-08)
(1.18303e-08 -3.33176e-08 1.84089e-08)
(1.28767e-08 -3.79068e-08 2.21412e-08)
(1.36427e-08 -4.24404e-08 2.62617e-08)
(1.39361e-08 -4.67517e-08 3.06456e-08)
(1.34579e-08 -5.06479e-08 3.50354e-08)
(1.18152e-08 -5.39897e-08 3.90661e-08)
(8.66257e-09 -5.6834e-08 4.23117e-08)
(4.23255e-09 -5.9549e-08 4.45486e-08)
(4.41205e-10 -6.22266e-08 4.59316e-08)
(1.36222e-09 -3.19675e-09 1.42007e-09)
(3.78692e-09 -8.95158e-09 4.01074e-09)
(5.98126e-09 -1.43385e-08 6.53359e-09)
(8.00082e-09 -1.95721e-08 9.14038e-09)
(9.88799e-09 -2.4818e-08 1.19619e-08)
(1.16711e-08 -3.01948e-08 1.51121e-08)
(1.33611e-08 -3.57716e-08 1.86869e-08)
(1.49435e-08 -4.15647e-08 2.2757e-08)
(1.63664e-08 -4.75333e-08 2.73534e-08)
(1.75177e-08 -5.35701e-08 3.24454e-08)
(1.81887e-08 -5.94931e-08 3.78933e-08)
(1.80324e-08 -6.50441e-08 4.34421e-08)
(1.65183e-08 -6.98949e-08 4.8684e-08)
(1.30305e-08 -7.36983e-08 5.31831e-08)
(7.41925e-09 -7.62233e-08 5.66838e-08)
(1.76636e-09 -7.7584e-08 5.91081e-08)
(1.61307e-09 -3.69249e-09 1.66567e-09)
(4.48401e-09 -1.03443e-08 4.70292e-09)
(7.08168e-09 -1.65838e-08 7.65516e-09)
(9.4726e-09 -2.2667e-08 1.0697e-08)
(1.171e-08 -2.87961e-08 1.39785e-08)
(1.38331e-08 -3.51215e-08 1.76308e-08)
(1.58651e-08 -4.17421e-08 2.17642e-08)
(1.78085e-08 -4.87038e-08 2.64616e-08)
(1.96336e-08 -5.59946e-08 3.17628e-08)
(2.12608e-08 -6.35348e-08 3.7638e-08)
(2.25292e-08 -7.11567e-08 4.39511e-08)
(2.31465e-08 -7.85672e-08 5.04147e-08)
(2.26281e-08 -8.52699e-08 5.65854e-08)
(2.02881e-08 -9.04173e-08 6.19478e-08)
(1.5543e-08 -9.26994e-08 6.61728e-08)
(9.56439e-09 -9.12762e-08 6.91366e-08)
(1.83463e-09 -4.06315e-09 1.87466e-09)
(5.09918e-09 -1.13882e-08 5.29029e-09)
(8.05123e-09 -1.82748e-08 8.60282e-09)
(1.07667e-08 -2.50146e-08 1.20036e-08)
(1.33077e-08 -3.18409e-08 1.56569e-08)
(1.57245e-08 -3.89341e-08 1.97052e-08)
(1.80544e-08 -4.64228e-08 2.42684e-08)
(2.03202e-08 -5.43847e-08 2.9436e-08)
(2.25254e-08 -6.28442e-08 3.5252e-08)
(2.46454e-08 -7.17643e-08 4.16851e-08)
(2.66149e-08 -8.10286e-08 4.85879e-08)
(2.8309e-08 -9.04056e-08 5.56393e-08)
(2.95282e-08 -9.94674e-08 6.23071e-08)
(3.00302e-08 -1.07422e-07 6.78969e-08)
(2.96492e-08 -1.1284e-07 7.18409e-08)
(2.85724e-08 -1.13892e-07 7.41171e-08)
(2.02352e-09 -4.291e-09 2.04446e-09)
(5.62314e-09 -1.20337e-08 5.76643e-09)
(8.87483e-09 -1.93312e-08 9.36612e-09)
(1.18607e-08 -2.65014e-08 1.30461e-08)
(1.465e-08 -3.38018e-08 1.69781e-08)
(1.73009e-08 -4.14365e-08 2.13107e-08)
(1.98623e-08 -4.9559e-08 2.61669e-08)
(2.23749e-08 -5.8274e-08 3.16368e-08)
(2.48715e-08 -6.76377e-08 3.77623e-08)
(2.73779e-08 -7.76513e-08 4.45046e-08)
(2.99171e-08 -8.82512e-08 5.17005e-08)
(3.25216e-08 -9.92944e-08 5.89914e-08)
(3.52846e-08 -1.1055e-07 6.5751e-08)
(3.85204e-08 -1.21725e-07 7.10609e-08)
(4.30513e-08 -1.32558e-07 7.39168e-08)
(4.94147e-08 -1.42085e-07 7.40924e-08)
(1.59677e-10 -3.97946e-10 1.26467e-10)
(4.4346e-10 -1.113e-09 3.57497e-10)
(6.98973e-10 -1.77903e-09 5.82463e-10)
(9.31679e-10 -2.42046e-09 8.16087e-10)
(1.14512e-09 -3.0573e-09 1.06978e-09)
(1.33929e-09 -3.69881e-09 1.35346e-09)
(1.51119e-09 -4.34891e-09 1.67479e-09)
(1.65327e-09 -5.00349e-09 2.03855e-09)
(1.75198e-09 -5.64936e-09 2.44462e-09)
(1.78669e-09 -6.26373e-09 2.88537e-09)
(1.73022e-09 -6.81409e-09 3.34213e-09)
(1.55188e-09 -7.25628e-09 3.7818e-09)
(1.22357e-09 -7.52488e-09 4.16817e-09)
(7.18157e-10 -7.481e-09 4.46919e-09)
(-3.44352e-11 -6.79621e-09 4.73318e-09)
(-1.08769e-09 -4.99072e-09 5.01054e-09)
(4.7596e-10 -1.18117e-09 3.7617e-10)
(1.32186e-09 -3.30411e-09 1.06247e-09)
(2.08359e-09 -5.28195e-09 1.73197e-09)
(2.77809e-09 -7.19125e-09 2.42567e-09)
(3.41432e-09 -9.08312e-09 3.17841e-09)
(3.99456e-09 -1.09931e-08 4.01939e-09)
(4.51027e-09 -1.29327e-08 4.97134e-09)
(4.93995e-09 -1.48905e-08 6.04812e-09)
(5.24412e-09 -1.68293e-08 7.2494e-09)
(5.36186e-09 -1.86835e-08 8.55218e-09)
(5.21086e-09 -2.03605e-08 9.89906e-09)
(4.69987e-09 -2.1745e-08 1.11948e-08)
(3.7644e-09 -2.27e-08 1.2292e-08)
(2.4422e-09 -2.30515e-08 1.30317e-08)
(1.01429e-09 -2.2538e-08 1.32883e-08)
(1.37585e-10 -2.11146e-08 1.30918e-08)
(7.83821e-10 -1.92852e-09 6.16527e-10)
(2.17713e-09 -5.39611e-09 1.74126e-09)
(3.43278e-09 -8.63162e-09 2.83805e-09)
(4.57757e-09 -1.17558e-08 3.97315e-09)
(5.62958e-09 -1.48626e-08 5.20363e-09)
(6.59315e-09 -1.80087e-08 6.57689e-09)
(7.45791e-09 -2.12195e-08 8.13062e-09)
(8.19251e-09 -2.44832e-08 9.88859e-09)
(8.73698e-09 -2.77475e-08 1.18525e-08)
(8.99465e-09 -3.09167e-08 1.39891e-08)
(8.82824e-09 -3.38564e-08 1.62168e-08)
(8.07209e-09 -3.64133e-08 1.83912e-08)
(6.58933e-09 -3.84592e-08 2.0315e-08)
(4.42391e-09 -3.99913e-08 2.17866e-08)
(2.1084e-09 -4.12171e-08 2.27069e-08)
(8.6169e-10 -4.23832e-08 2.31698e-08)
(1.07776e-09 -2.61624e-09 8.41732e-10)
(2.99398e-09 -7.32298e-09 2.3778e-09)
(4.72138e-09 -1.17199e-08 3.87376e-09)
(6.2991e-09 -1.59783e-08 5.42007e-09)
(7.75218e-09 -2.02241e-08 7.09292e-09)
(9.09219e-09 -2.45464e-08 8.95724e-09)
(1.0311e-08 -2.89879e-08 1.10649e-08)
(1.13747e-08 -3.35449e-08 1.34498e-08)
(1.22137e-08 -3.81617e-08 1.6118e-08)
(1.27087e-08 -4.27255e-08 1.90329e-08)
(1.26787e-08 -4.70666e-08 2.2096e-08)
(1.18798e-08 -5.09758e-08 2.51425e-08)
(1.00433e-08 -5.42595e-08 2.79475e-08)
(7.04749e-09 -5.68613e-08 3.03059e-08)
(3.34316e-09 -5.90132e-08 3.21181e-08)
(5.8033e-10 -6.09514e-08 3.33117e-08)
(1.3524e-09 -3.22069e-09 1.04725e-09)
(3.75729e-09 -9.01859e-09 2.95735e-09)
(5.92627e-09 -1.44448e-08 4.81538e-09)
(7.90877e-09 -1.97128e-08 6.7314e-09)
(9.74151e-09 -2.49906e-08 8.79928e-09)
(1.14436e-08 -3.03941e-08 1.10987e-08)
(1.30151e-08 -3.59906e-08 1.36942e-08)
(1.44297e-08 -4.17935e-08 1.66291e-08)
(1.5624e-08 -4.77563e-08 1.99145e-08)
(1.64817e-08 -5.37629e-08 2.35109e-08)
(1.68157e-08 -5.96172e-08 2.73173e-08)
(1.63419e-08 -6.50273e-08 3.11424e-08)
(1.46866e-08 -6.9613e-08 3.47467e-08)
(1.14838e-08 -7.2943e-08 3.79077e-08)
(6.80434e-09 -7.47245e-08 4.05062e-08)
(2.37012e-09 -7.52905e-08 4.23222e-08)
(1.60291e-09 -3.7199e-09 1.22876e-09)
(4.45302e-09 -1.04203e-08 3.46838e-09)
(7.02373e-09 -1.6703e-08 5.64296e-09)
(9.37628e-09 -2.2825e-08 7.87914e-09)
(1.15558e-08 -2.89855e-08 1.02844e-08)
(1.35936e-08 -3.53336e-08 1.29508e-08)
(1.55022e-08 -4.1963e-08 1.59524e-08)
(1.72719e-08 -4.89111e-08 1.93397e-08)
(1.88627e-08 -5.61527e-08 2.31267e-08)
(2.01935e-08 -6.35874e-08 2.72746e-08)
(2.11255e-08 -7.1017e-08 3.16672e-08)
(2.14409e-08 -7.81082e-08 3.60938e-08)
(2.08156e-08 -8.43114e-08 4.02658e-08)
(1.88249e-08 -8.87419e-08 4.39037e-08)
(1.5113e-08 -9.01367e-08 4.68525e-08)
(1.04623e-08 -8.79783e-08 4.89137e-08)
(1.82469e-09 -4.09275e-09 1.38309e-09)
(5.06893e-09 -1.14703e-08 3.90221e-09)
(7.99463e-09 -1.84034e-08 6.34255e-09)
(1.06713e-08 -2.51823e-08 8.84295e-09)
(1.31554e-08 -3.20394e-08 1.15213e-08)
(1.5488e-08 -3.91502e-08 1.44776e-08)
(1.76964e-08 -4.66354e-08 1.77924e-08)
(1.97923e-08 -5.45596e-08 2.15195e-08)
(2.17695e-08 -6.29265e-08 2.56734e-08)
(2.36028e-08 -7.16681e-08 3.02101e-08)
(2.52485e-08 -8.06257e-08 3.49987e-08)
(2.66488e-08 -8.95141e-08 3.97892e-08)
(2.77569e-08 -9.78589e-08 4.42119e-08)
(2.85775e-08 -1.04871e-07 4.78568e-08)
(2.91687e-08 -1.09279e-07 5.04397e-08)
(2.93514e-08 -1.09692e-07 5.19463e-08)
(2.01445e-09 -4.32185e-09 1.50858e-09)