/*--------------------------------*- C++ -*----------------------------------*\
| =========                 |                                                 |
| \\      /  F ield         | OpenFOAM: The Open Source CFD Toolbox           |
|  \\    /   O peration     | Version:  v1912                                 |
|   \\  /    A nd           | Website:  www.openfoam.com                      |
|    \\/     M anipulation  |                                                 |
\*---------------------------------------------------------------------------*/
FoamFile
{
    version     2.0;
    format      ascii;
    class       surfaceScalarField;
    location    "0.5/fluid";
    object      meshPhi;
}
// * * * * * * * * * * * * * * * * * * * * * * * * * * * * * * * * * * * * * //

dimensions      [0 3 -1 0 0 0 0];
oriented        oriented;


internalField   nonuniform List<scalar> 
41600
(
1.94658e-13
-4.91476e-13
1.83323e-13
-1.89326e-13
3.71185e-13
-1.432e-12
5.40272e-13
-5.58247e-13
5.36152e-13
-2.30571e-12
8.90088e-13
-9.20569e-13
6.95468e-13
-3.14396e-12
1.25583e-12
-1.30056e-12
8.5477e-13
-3.96819e-12
1.65828e-12
-1.72021e-12
1.01996e-12
-4.78859e-12
2.11685e-12
-2.20035e-12
1.19792e-12
-5.60153e-12
2.65006e-12
-2.7613e-12
1.3978e-12
-6.38459e-12
3.27545e-12
-3.42316e-12
1.6335e-12
-7.08702e-12
4.00895e-12
-4.20569e-12
1.92934e-12
-7.61312e-12
4.86383e-12
-5.12868e-12
2.33267e-12
-7.79162e-12
5.85e-12
-6.21414e-12
2.94194e-12
-7.31539e-12
6.97605e-12
-7.49587e-12
3.9612e-12
-5.61889e-12
8.25947e-12
-9.04931e-12
5.76298e-12
-1.67703e-12
9.74345e-12
-1.10588e-11
8.53664e-12
5.61648e-12
1.14162e-11
-1.3736e-11
1.81026e-11
1.43739e-11
-2.12098e-11
5.7975e-13
-9.68377e-13
5.45248e-13
-5.6314e-13
1.10539e-12
-2.82217e-12
1.6068e-12
-1.66034e-12
1.59635e-12
-4.54602e-12
2.6468e-12
-2.73754e-12
2.07006e-12
-6.20272e-12
3.73359e-12
-3.86659e-12
2.54318e-12
-7.83632e-12
4.92868e-12
-5.11262e-12
3.03301e-12
-9.47015e-12
6.28965e-12
-6.53737e-12
3.55932e-12
-1.11025e-11
7.87134e-12
-8.20101e-12
4.14743e-12
-1.26983e-11
9.72553e-12
-1.01627e-11
4.83399e-12
-1.41743e-11
1.18988e-11
-1.24799e-11
5.6793e-12
-1.53758e-11
1.44283e-11
-1.52075e-11
6.79342e-12
-1.60395e-11
1.73356e-11
-1.83988e-11
8.39049e-12
-1.57446e-11
2.06223e-11
-2.21176e-11
1.08773e-11
-1.3872e-11
2.42713e-11
-2.64766e-11
1.48994e-11
-9.69934e-12
2.82421e-11
-3.17127e-11
2.05116e-11
-3.25771e-12
3.22885e-11
-3.78998e-11
4.28879e-12
3.54613e-11
-4.61478e-11
9.52442e-13
-1.4163e-12
8.93399e-13
-9.22752e-13
1.81563e-12
-4.12896e-12
2.63241e-12
-2.72023e-12
2.62108e-12
-6.65555e-12
4.33504e-12
-4.4837e-12
3.39704e-12
-9.09066e-12
6.11247e-12
-6.33004e-12
4.17049e-12
-1.15031e-11
8.06481e-12
-8.36521e-12
4.9691e-12
-1.3934e-11
1.02858e-11
-1.06897e-11
5.82355e-12
-1.63927e-11
1.28648e-11
-1.34014e-11
6.77099e-12
-1.88473e-11
1.58862e-11
-1.65961e-11
7.86055e-12
-2.12096e-11
1.9426e-11
-2.03662e-11
9.16365e-12
-2.33125e-11
2.35423e-11
-2.47956e-11
1.07943e-11
-2.48797e-11
2.82605e-11
-2.99519e-11
1.29467e-11
-2.55007e-11
3.35503e-11
-3.58804e-11
1.59368e-11
-2.46564e-11
3.92905e-11
-4.25999e-11
2.01553e-11
-2.19241e-11
4.52089e-11
-5.00876e-11
2.52709e-11
-1.76906e-11
5.06944e-11
-5.78728e-11
-1.30138e-11
5.49946e-11
-6.76028e-11
1.30505e-12
-1.82057e-12
1.21943e-12
-1.25949e-12
2.48704e-12
-5.30979e-12
3.59231e-12
-3.71208e-12
3.58844e-12
-8.56631e-12
5.91324e-12
-6.11577e-12
4.64728e-12
-1.17165e-11
8.3325e-12
-8.62844e-12
5.69984e-12
-1.48558e-11
1.09853e-11
-1.13932e-11
6.78296e-12
-1.80482e-11
1.39983e-11
-1.45457e-11
7.93645e-12
-2.1323e-11
1.74926e-11
-1.82183e-11
9.20591e-12
-2.46682e-11
2.15836e-11
-2.2541e-11
1.06458e-11
-2.80176e-11
2.63762e-11
-2.76394e-11
1.23231e-11
-3.12322e-11
3.19525e-11
-3.36257e-11
1.43224e-11
-3.40757e-11
3.83489e-11
-4.05832e-11
1.67527e-11
-3.61909e-11
4.55159e-11
-4.85387e-11
1.97391e-11
-3.71055e-11
5.32505e-11
-5.74179e-11
2.3362e-11
-3.63506e-11
6.10858e-11
-6.69639e-11
2.7197e-11
-3.39524e-11
6.8084e-11
-7.62998e-11
-3.03041e-11
7.30764e-11
-8.65794e-11
1.63055e-12
-2.16683e-12
1.51598e-12
-1.5657e-12
3.10603e-12
-6.32264e-12
4.46457e-12
-4.6131e-12
4.47836e-12
-1.02104e-11
7.34459e-12
-7.59545e-12
5.79399e-12
-1.39871e-11
1.03403e-11
-1.07063e-11
7.09728e-12
-1.77752e-11
1.36171e-11
-1.41207e-11
8.43303e-12
-2.16648e-11
1.73301e-11
-1.80045e-11
9.84911e-12
-2.57127e-11
2.16281e-11
-2.252e-11
1.13988e-11
-2.99391e-11
2.66544e-11
-2.78276e-11
1.31419e-11
-3.43205e-11
3.25428e-11
-3.40847e-11
1.51432e-11
-3.87781e-11
3.94048e-11
-4.14362e-11
1.74662e-11
-4.31576e-11
4.73047e-11
-4.99953e-11
2.01559e-11
-4.71967e-11
5.62118e-11
-5.98074e-11
2.31909e-11
-5.04692e-11
6.59086e-11
-7.0775e-11
2.64027e-11
-5.23159e-11
7.58161e-11
-8.2509e-11
2.92396e-11
-5.20295e-11
8.46619e-11
-9.37516e-11
-4.87976e-11
9.07744e-11
-1.05106e-10
1.92298e-12
-2.44137e-12
1.77712e-12
-1.8352e-12
3.66107e-12
-7.12742e-12
5.23153e-12
-5.40497e-12
5.27376e-12
-1.15223e-11
8.59941e-12
-8.89199e-12
6.81429e-12
-1.58106e-11
1.20927e-11
-1.25189e-11
8.33349e-12
-2.01404e-11
1.59011e-11
-1.64863e-11
9.8828e-12
-2.46283e-11
2.02021e-11
-2.09839e-11
1.15174e-11
-2.9361e-11
2.51661e-11
-2.61973e-11
1.32988e-11
-3.43968e-11
3.09594e-11
-3.23115e-11
1.52972e-11
-3.97659e-11
3.77414e-11
-3.95118e-11
1.75897e-11
-4.54683e-11
4.56559e-11
-4.79778e-11
2.02562e-11
-5.14676e-11
5.48109e-11
-5.787e-11
2.33618e-11
-5.76714e-11
6.52389e-11
-6.93012e-11
2.69027e-11
-6.38665e-11
7.68064e-11
-8.22649e-11
3.06896e-11
-6.95397e-11
8.89977e-11
-9.64498e-11
3.39911e-11
-7.35757e-11
1.00365e-10
-1.10408e-10
-7.27567e-11
1.08777e-10
-1.24384e-10
2.17765e-12
-2.63193e-12
1.99859e-12
-2.06363e-12
4.14315e-12
-7.688e-12
5.88063e-12
-6.07469e-12
5.9614e-12
-1.24425e-11
9.65677e-12
-9.98371e-12
7.69034e-12
-1.71025e-11
1.35595e-11
-1.40348e-11
9.38524e-12
-2.18379e-11
1.77957e-11
-1.84469e-11
1.11023e-11
-2.67881e-11
2.25578e-11
-2.34255e-11
1.29021e-11
-3.20672e-11
2.80304e-11
-2.9171e-11
1.48543e-11
-3.77688e-11
3.43941e-11
-3.58841e-11
1.70414e-11
-4.39727e-11
4.18253e-11
-4.37684e-11
1.95641e-11
-5.07533e-11
5.0493e-11
-5.30305e-11
2.25494e-11
-5.81925e-11
6.05479e-11
-6.38775e-11
2.6159e-11
-6.63976e-11
7.21032e-11
-7.65115e-11
3.05836e-11
-7.55148e-11
8.51777e-11
-9.10987e-11
3.59649e-11
-8.56712e-11
9.95053e-11
-1.07631e-10
4.16765e-11
-9.63389e-11
1.13782e-10
-1.24853e-10
-1.0707e-10
1.25699e-10
-1.43832e-10
2.39143e-12
2.17808e-12
-2.24858e-12
-2.72833e-12
4.54648e-12
6.40517e-12
-6.61539e-12
-7.97458e-12
6.53292e-12
1.05059e-11
-1.08595e-11
-1.29219e-11
8.41097e-12
1.47254e-11
-1.52385e-11
-1.77926e-11
1.02379e-11
1.92802e-11
-1.99813e-11
-2.27718e-11
1.20716e-11
2.43697e-11
-2.53007e-11
-2.80155e-11
1.39753e-11
3.01832e-11
-3.1402e-11
-3.36576e-11
1.6022e-11
3.6904e-11
-3.84889e-11
-3.98164e-11
1.83016e-11
4.47115e-11
-4.67676e-11
-4.66037e-11
2.09307e-11
5.37794e-11
-5.645e-11
-5.41366e-11
2.4071e-11
6.42732e-11
-6.77586e-11
-6.25557e-11
2.79584e-11
7.63444e-11
-8.09373e-11
-7.20541e-11
3.2938e-11
9.01053e-11
-9.62573e-11
-8.29152e-11
3.94367e-11
1.05501e-10
-1.13959e-10
-9.55139e-11
4.69183e-11
1.2141e-10
-1.33024e-10
-1.0941e-10
1.36886e-10
-1.57564e-10
-1.28726e-10
1.94288e-13
-5.0149e-13
1.70616e-13
3.70073e-13
-1.46126e-12
5.02625e-13
5.3354e-13
-2.35315e-12
8.27383e-13
6.90107e-13
-3.20957e-12
1.16591e-12
8.4471e-13
-4.05309e-12
1.53693e-12
1.00211e-12
-4.89521e-12
1.95762e-12
1.16736e-12
-5.7342e-12
2.44373e-12
1.34652e-12
-6.55076e-12
3.00907e-12
1.5483e-12
-7.30046e-12
3.66407e-12
1.78788e-12
-7.90098e-12
4.41283e-12
2.09582e-12
-8.21048e-12
5.24792e-12
2.53709e-12
-7.98868e-12
6.14105e-12
3.24347e-12
-6.82673e-12
7.02508e-12
4.42877e-12
-4.06667e-12
7.75504e-12
6.12565e-12
8.45543e-13
8.05791e-12
7.52005e-12
7.33602e-12
5.78752e-13
-9.87967e-13
5.07448e-13
1.10231e-12
-2.87938e-12
1.49479e-12
1.58901e-12
-4.63881e-12
2.46028e-12
2.05489e-12
-6.33117e-12
3.46623e-12
2.51458e-12
-8.00259e-12
4.56813e-12
2.98212e-12
-9.67875e-12
5.81687e-12
3.472e-12
-1.13611e-11
7.25914e-12
4.00086e-12
-1.30198e-11
8.93594e-12
4.59076e-12
-1.45821e-11
1.08782e-11
5.27679e-12
-1.59144e-11
1.30976e-11
6.12453e-12
-1.67989e-11
1.55705e-11
7.26469e-12
-1.69104e-11
1.82077e-11
8.94225e-12
-1.58247e-11
2.07996e-11
1.14988e-11
-1.31774e-11
2.2917e-11
1.48201e-11
-9.29354e-12
2.38531e-11
-6.4499e-12
2.17693e-11
9.51178e-13
-1.44474e-12
8.3146e-13
1.8114e-12
-4.21204e-12
2.4489e-12
2.61053e-12
-6.79034e-12
4.02957e-12
3.37472e-12
-9.27732e-12
5.67496e-12
4.12783e-12
-1.17446e-11
7.47541e-12
4.89255e-12
-1.42362e-11
9.51375e-12
5.69166e-12
-1.67652e-11
1.18663e-11
6.54929e-12
-1.93054e-11
1.46004e-11
7.49297e-12
-2.178e-11
1.77678e-11
8.55782e-12
-2.40441e-11
2.13898e-11
9.7964e-12
-2.5868e-11
2.54299e-11
1.1296e-11
-2.69352e-11
2.97456e-11
1.31916e-11
-2.69073e-11
3.40044e-11
1.56056e-11
-2.56615e-11
3.75603e-11
1.82339e-11
-2.37758e-11
3.94644e-11
-2.29565e-11
3.81161e-11
1.30411e-12
-1.85692e-12
1.13494e-12
2.48297e-12
-5.41595e-12
3.34205e-12
3.57704e-12
-8.73859e-12
5.49694e-12
4.6218e-12
-1.19551e-11
7.73683e-12
5.6497e-12
-1.5164e-11
1.01837e-11
6.69157e-12
-1.84325e-11
1.29497e-11
7.77768e-12
-2.17935e-11
1.61385e-11
8.93805e-12
-2.52396e-11
1.98431e-11
1.02015e-11
-2.87135e-11
2.41373e-11
1.15928e-11
-3.20939e-11
2.90578e-11
1.31263e-11
-3.51797e-11
3.45691e-11
1.47935e-11
-3.76857e-11
4.05034e-11
1.65343e-11
-3.92789e-11
4.64568e-11
1.81891e-11
-3.97309e-11
5.16473e-11
1.94336e-11
-3.92619e-11
5.49255e-11
-3.91094e-11
5.45123e-11
1.63066e-12
-2.20988e-12
1.41109e-12
3.10371e-12
-6.4484e-12
4.154e-12
4.4689e-12
-1.04145e-11
6.82837e-12
5.76999e-12
-1.42695e-11
9.60246e-12
7.04724e-12
-1.81395e-11
1.26257e-11
8.33913e-12
-2.21175e-11
1.60353e-11
9.68352e-12
-2.6263e-11
1.99591e-11
1.11174e-11
-3.05989e-11
2.45136e-11
1.26742e-11
-3.51065e-11
2.97955e-11
1.43751e-11
-3.97155e-11
3.58629e-11
1.62113e-11
-4.4289e-11
4.26984e-11
1.81059e-11
-4.86006e-11
5.01422e-11
1.98443e-11
-5.22986e-11
5.77715e-11
2.10096e-11
-5.48734e-11
6.47192e-11
2.11505e-11
-5.58102e-11
6.9602e-11
-5.56068e-11
7.0306e-11
1.92486e-12
-2.48971e-12
1.65439e-12
3.66204e-12
-7.26864e-12
4.86834e-12
5.26896e-12
-1.17514e-11
7.99631e-12
6.79627e-12
-1.61275e-11
1.12319e-11
8.29087e-12
-2.05487e-11
1.47464e-11
9.79823e-12
-2.51341e-11
1.86971e-11
1.13641e-11
-2.99721e-11
2.32309e-11
1.30349e-11
-3.51215e-11
2.84833e-11
1.48562e-11
-4.06123e-11
3.45718e-11
1.68652e-11
-4.64435e-11
4.15782e-11
1.9074e-11
-5.2577e-11
4.95151e-11
2.143e-11
-5.89174e-11
5.82591e-11
2.3733e-11
-6.52488e-11
6.74221e-11
2.55156e-11
-7.10663e-11
7.61227e-11
2.60858e-11
-7.53335e-11
8.2773e-11
-7.59969e-11
8.49319e-11
2.1819e-12
-2.68392e-12
1.8609e-12
4.14871e-12
-7.8399e-12
5.47338e-12
5.96353e-12
-1.2689e-11
8.98126e-12
7.682e-12
-1.74434e-11
1.25969e-11
9.35601e-12
-2.22767e-11
1.65072e-11
1.10365e-11
-2.73306e-11
2.0883e-11
1.27763e-11
-3.27196e-11
2.58835e-11
1.46321e-11
-3.85362e-11
3.16562e-11
1.66661e-11
-4.48557e-11
3.83322e-11
1.89459e-11
-5.17441e-11
4.60115e-11
2.1542e-11
-5.92664e-11
5.47342e-11
2.45147e-11
-6.74981e-11
6.44218e-11
2.78773e-11
-7.65217e-11
7.47501e-11
3.14898e-11
-8.63396e-11
8.48835e-11
3.47067e-11
-9.63341e-11
9.30838e-11
-1.05257e-10
9.63927e-11
2.39844e-12
2.02842e-12
-2.78216e-12
4.55749e-12
5.96284e-12
-8.13189e-12
6.54347e-12
9.7731e-12
-1.31773e-11
8.41478e-12
1.36833e-11
-1.8146e-11
1.02259e-11
1.7889e-11
-2.32266e-11
1.20309e-11
2.25676e-11
-2.85772e-11
1.38865e-11
2.78823e-11
-3.43316e-11
1.5856e-11
3.39833e-11
-4.06053e-11
1.80141e-11
4.10035e-11
-4.75033e-11
2.04529e-11
4.9046e-11
-5.51294e-11
2.32918e-11
5.81598e-11
-6.35996e-11
2.66906e-11
6.82884e-11
-7.30605e-11
3.08575e-11
7.91545e-11
-8.3706e-11
3.59869e-11
9.00025e-11
-9.57318e-11
4.15365e-11
9.90738e-11
-1.08543e-10
1.02672e-10
-1.23892e-10
1.93099e-13
-5.10089e-13
1.51847e-13
3.67321e-13
-1.48641e-12
4.47162e-13
5.2832e-13
-2.394e-12
7.35526e-13
6.80852e-13
-3.26612e-12
1.03526e-12
8.289e-13
-4.12634e-12
1.36246e-12
9.75744e-13
-4.98757e-12
1.73148e-12
1.12404e-12
-5.85035e-12
2.15487e-12
1.27588e-12
-6.69973e-12
2.64252e-12
1.43315e-12
-7.50017e-12
3.19966e-12
1.59883e-12
-8.18821e-12
3.82306e-12
1.78037e-12
-8.66256e-12
4.49408e-12
1.99629e-12
-8.77149e-12
5.16664e-12
2.28211e-12
-8.30003e-12
5.74694e-12
2.67078e-12
-6.9863e-12
6.06643e-12
3.07266e-12
-4.76207e-12
5.90953e-12
-1.90562e-12
5.30369e-12
5.75347e-13
-1.00477e-12
4.51633e-13
1.09441e-12
-2.92852e-12
1.32988e-12
1.57399e-12
-4.71856e-12
2.1872e-12
2.02825e-12
-6.44149e-12
3.07793e-12
2.46905e-12
-8.14525e-12
4.04977e-12
2.90617e-12
-9.85788e-12
5.14528e-12
3.34732e-12
-1.15845e-11
6.4017e-12
3.79795e-12
-1.33025e-11
7.84854e-12
4.26121e-12
-1.49532e-11
9.50183e-12
4.73924e-12
-1.64323e-11
1.13529e-11
5.23786e-12
-1.75822e-11
1.33483e-11
5.77521e-12
-1.81968e-11
1.53566e-11
6.38473e-12
-1.80733e-11
1.7115e-11
7.06602e-12
-1.7176e-11
1.81737e-11
7.60171e-12
-1.59588e-11
1.80176e-11
-1.58981e-11
1.63922e-11
9.46035e-13
-1.4691e-12
7.40046e-13
1.79939e-12
-4.28322e-12
2.17886e-12
2.58761e-12
-6.90576e-12
3.58257e-12
3.3339e-12
-9.43673e-12
5.03967e-12
4.0579e-12
-1.195e-11
6.62781e-12
4.77583e-12
-1.44923e-11
8.41638e-12
5.50024e-12
-1.70807e-11
1.04664e-11
6.23868e-12
-1.96963e-11
1.28269e-11
6.99131e-12
-2.22769e-11
1.55262e-11
7.74728e-12
-2.47071e-11
1.85547e-11
8.4805e-12
-2.68158e-11
2.18352e-11
9.14251e-12
-2.83976e-11
2.51746e-11
9.64636e-12
-2.9302e-11
2.81972e-11
9.83163e-12
-2.96428e-11
3.0297e-11
9.49541e-12
-2.99972e-11
3.08481e-11
-3.13779e-11
2.9968e-11
1.29798e-12
-1.88795e-12
1.01026e-12
2.4685e-12
-5.50657e-12
2.97385e-12
3.54909e-12
-8.88535e-12
4.88775e-12
4.5716e-12
-1.21572e-11
6.87163e-12
5.56324e-12
-1.54233e-11
9.03039e-12
6.54693e-12
-1.8753e-11
1.1458e-11
7.54055e-12
-2.21822e-11
1.42377e-11
8.55441e-12
-2.57089e-11
1.7438e-11
9.58545e-12
-2.9286e-11
2.11017e-11
1.06064e-11
-3.28132e-11
2.52257e-11
1.1547e-11
-3.6132e-11
2.9725e-11
1.22613e-11
-3.90377e-11
3.43776e-11
1.24853e-11
-4.13384e-11
3.87534e-11
1.18419e-11
-4.29992e-11
4.21742e-11
1.01972e-11
-4.42958e-11
4.39274e-11
-4.60206e-11
4.40984e-11
1.62446e-12
-2.24648e-12
1.25626e-12
3.08872e-12
-6.55525e-12
3.69689e-12
4.43933e-12
-1.05873e-11
6.07258e-12
5.71604e-12
-1.45069e-11
8.53007e-12
6.9534e-12
-1.84425e-11
1.11978e-11
8.18134e-12
-2.24885e-11
1.41911e-11
9.42456e-12
-2.67057e-11
1.76129e-11
1.06994e-11
-3.11184e-11
2.15495e-11
1.2006e-11
-3.57109e-11
2.60595e-11
1.33131e-11
-4.04198e-11
3.11521e-11
1.45274e-11
-4.51246e-11
3.67483e-11
1.54378e-11
-4.96341e-11
4.26216e-11
1.56373e-11
-5.36696e-11
4.83201e-11
1.45169e-11
-5.68602e-11
5.31123e-11
1.184e-11
-5.88386e-11
5.61552e-11
-5.99798e-11
5.74024e-11
1.9195e-12
-2.53063e-12
1.47312e-12
3.64853e-12
-7.38801e-12
4.3334e-12
5.24124e-12
-1.19443e-11
7.11258e-12
6.74422e-12
-1.63918e-11
9.97949e-12
8.19872e-12
-2.08844e-11
1.30815e-11
9.6418e-12
-2.55417e-11
1.65509e-11
1.11064e-11
-3.04509e-11
2.05061e-11
1.2619e-11
-3.56682e-11
2.50481e-11
1.41938e-11
-4.12181e-11
3.02496e-11
1.58179e-11
-4.70911e-11
3.61332e-11
1.74227e-11
-5.32353e-11
4.26325e-11
1.88244e-11
-5.95345e-11
4.95287e-11
1.96275e-11
-6.57473e-11
5.63592e-11
1.9153e-11
-7.13652e-11
6.23331e-11
1.68946e-11
-7.54492e-11
6.64471e-11
-7.6168e-11
6.85861e-11
2.17821e-12
-2.72774e-12
1.65732e-12
4.13845e-12
-7.96769e-12
4.87293e-12
5.94067e-12
-1.28953e-11
7.99035e-12
7.63678e-12
-1.77256e-11
1.11948e-11
9.27339e-12
-2.26338e-11
1.46472e-11
1.08938e-11
-2.77611e-11
1.84914e-11
1.25392e-11
-3.32192e-11
2.28558e-11
1.42485e-11
-3.90937e-11
2.78504e-11
1.6056e-11
-4.5448e-11
3.35567e-11
1.79847e-11
-5.23259e-11
4.00065e-11
2.00309e-11
-5.9754e-11
4.71428e-11
2.21295e-11
-6.77371e-11
5.47527e-11
2.40905e-11
-7.62314e-11
6.23578e-11
2.55097e-11
-8.5035e-11
6.90773e-11
2.58255e-11
-9.33775e-11
7.36747e-11
-9.9942e-11
7.58129e-11
2.39705e-12
1.80689e-12
-2.82737e-12
4.5518e-12
5.30981e-12
-8.26371e-12
6.52779e-12
8.69674e-12
-1.339e-11
8.38009e-12
1.21632e-11
-1.84367e-11
1.01587e-11
1.58779e-11
-2.35936e-11
1.19109e-11
1.999e-11
-2.90179e-11
1.36837e-11
2.46317e-11
-3.48387e-11
1.55256e-11
2.99146e-11
-4.11627e-11
1.74879e-11
3.59207e-11
-4.80785e-11
1.96254e-11
4.26815e-11
-5.56611e-11
2.19944e-11
5.01399e-11
-6.39753e-11
2.4644e-11
5.80817e-11
-7.30769e-11
2.75921e-11
6.60173e-11
-8.29982e-11
3.07552e-11
7.30139e-11
-9.36685e-11
3.36143e-11
7.76711e-11
-1.04302e-10
7.86989e-11
-1.15894e-10
1.91382e-13
-5.17156e-13
1.27838e-13
3.63522e-13
-1.50707e-12
3.76329e-13
5.21495e-13
-2.42753e-12
6.18596e-13
6.69331e-13
-3.31254e-12
8.69772e-13
8.09982e-13
-4.18649e-12
1.14294e-12
9.45181e-13
-5.06351e-12
1.44943e-12
1.0752e-12
-5.94624e-12
1.79861e-12
1.19835e-12
-6.82384e-12
2.19699e-12
1.31041e-12
-7.66905e-12
2.64628e-12
1.40419e-12
-8.4349e-12
3.13987e-12
1.46991e-12
-9.05249e-12
3.65728e-12
1.49632e-12
-9.43167e-12
4.1564e-12
1.47046e-12
-9.4666e-12
4.56512e-12
1.36892e-12
-9.05089e-12
4.78313e-12
1.15616e-12
-8.15262e-12
4.73235e-12
-6.44217e-12
4.70355e-12
5.70385e-13
-1.0186e-12
3.8024e-13
1.08343e-12
-2.96893e-12
1.11929e-12
1.55425e-12
-4.78407e-12
1.83962e-12
1.99491e-12
-6.53194e-12
2.5861e-12
2.41429e-12
-8.26192e-12
3.39751e-12
2.81776e-12
-1.0004e-11
4.30743e-12
3.20626e-12
-1.17668e-11
5.34375e-12
3.57464e-12
-1.3534e-11
6.52605e-12
3.90925e-12
-1.52601e-11
7.85996e-12
4.1852e-12
-1.68659e-11
9.32718e-12
4.36469e-12
-1.82405e-11
1.08698e-11
4.39688e-12
-1.92585e-11
1.23691e-11
4.21916e-12
-1.98321e-11
1.36251e-11
3.76242e-12
-2.00137e-11
1.43688e-11
3.03252e-12
-2.0082e-11
1.44111e-11
-2.06917e-11
1.38281e-11
9.3838e-13
-1.48914e-12
6.23124e-13
1.78243e-12
-4.34173e-12
1.83402e-12
2.55704e-12
-7.00041e-12
3.01359e-12
3.28218e-12
-9.56688e-12
4.23487e-12
3.97291e-12
-1.21166e-11
5.56099e-12
4.63874e-12
-1.46987e-11
7.04674e-12
5.28204e-12
-1.73331e-11
8.73798e-12
5.89482e-12
-2.00077e-11
1.06676e-11
6.45319e-12
-2.26725e-11
1.28472e-11
6.90965e-12
-2.52364e-11
1.52517e-11
7.18332e-12
-2.75718e-11
1.7797e-11
7.15023e-12
-2.95434e-11
2.03111e-11
6.64574e-12
-3.10876e-11
2.25128e-11
5.5275e-12
-3.23512e-11
2.40459e-11
3.97017e-12
-3.37046e-11
2.46844e-11
-3.55828e-11
2.47767e-11
1.28846e-12
-1.91342e-12
8.5077e-13
2.44734e-12
-5.58087e-12
2.50357e-12
3.5108e-12
-9.00522e-12
4.11212e-12
4.50659e-12
-1.23213e-11
5.77518e-12
5.45627e-12
-1.56316e-11
7.57801e-12
6.37451e-12
-1.90071e-11
9.59497e-12
7.2669e-12
-2.24857e-11
1.18888e-11
8.12532e-12
-2.60689e-11
1.4506e-11
8.91923e-12
-2.97171e-11
1.74663e-11
9.58134e-12
-3.3345e-11
2.07447e-11
9.98593e-12
-3.68215e-11
2.42451e-11
9.92058e-12
-3.99862e-11
2.77685e-11
9.07681e-12
-4.27012e-11
3.09977e-11
7.16438e-12
-4.49512e-11
3.35463e-11
4.47428e-12
-4.68801e-11
3.51545e-11
-4.88759e-11
3.61278e-11
1.61407e-12
-2.27644e-12
1.05811e-12
3.06548e-12
-6.64252e-12
3.11282e-12
4.39697e-12
-1.07277e-11
5.10986e-12
5.64374e-12
-1.4698e-11
7.1703e-12
6.83409e-12
-1.8683e-11
9.39859e-12
7.98903e-12
-2.27773e-11
1.18861e-11
9.12006e-12
-2.70413e-11
1.47105e-11
1.02242e-11
-3.14987e-11
1.79309e-11
1.12735e-11
-3.61328e-11
2.15763e-11
1.21971e-11
-4.08811e-11
2.56264e-11
1.28497e-11
-4.56258e-11
2.99819e-11
1.29635e-11
-5.01824e-11
3.44318e-11
1.21097e-11
-5.42829e-11
3.86375e-11
9.80088e-12
-5.75608e-11
4.21826e-11
6.23394e-12
-5.96148e-11
4.47403e-11
-6.05728e-11
4.65405e-11
1.90926e-12
-2.56399e-12
1.241e-12
3.62538e-12
-7.48507e-12
3.64946e-12
5.19856e-12
-1.21e-11
5.98615e-12
6.67072e-12
-1.66028e-11
8.39034e-12
8.07681e-12
-2.11477e-11
1.0982e-11
9.44493e-12
-2.58531e-11
1.38659e-11
1.0795e-11
-3.08032e-11
1.71316e-11
1.2135e-11
-3.60484e-11
2.08483e-11
1.34518e-11
-4.16036e-11
2.50531e-11
1.46957e-11
-4.74436e-11
2.97303e-11
1.57492e-11
-5.34919e-11
3.47799e-11
1.63765e-11
-5.95943e-11
3.99793e-11
1.61632e-11
-6.54562e-11
4.49576e-11
1.45528e-11
-7.05163e-11
4.92356e-11
1.14721e-11
-7.38587e-11
5.23945e-11
-7.36908e-11
5.46853e-11
2.16905e-12
-2.76333e-12
1.39645e-12
4.11737e-12
-8.07115e-12
4.10466e-12
5.90109e-12
-1.30609e-11
6.72626e-12
7.56759e-12
-1.79492e-11
9.41412e-12
9.15753e-12
-2.29108e-11
1.22993e-11
1.07059e-11
-2.80846e-11
1.54959e-11
1.22417e-11
-3.35768e-11
1.91011e-11
1.37869e-11
-3.9463e-11
2.319e-11
1.53512e-11
-4.57891e-11
2.78038e-11
1.69238e-11
-5.25705e-11
3.29283e-11
1.84551e-11
-5.97861e-11
3.84591e-11
1.98269e-11
-6.73638e-11
4.41547e-11
2.08166e-11
-7.51431e-11
4.95901e-11
2.11059e-11
-8.27833e-11
5.41658e-11
2.05353e-11
-8.95211e-11
5.72985e-11
-9.4225e-11
5.92416e-11
2.38973e-12
1.52277e-12
-2.86395e-12
4.53441e-12
4.47353e-12
-8.37001e-12
6.49404e-12
7.3224e-12
-1.356e-11
8.31957e-12
1.02308e-11
-1.86655e-11
1.00556e-11
1.33363e-11
-2.38757e-11
1.17422e-11
1.67575e-11
-2.93444e-11
1.34157e-11
2.05942e-11
-3.51938e-11
1.51097e-11
2.49225e-11
-4.15177e-11
1.68543e-11
2.97823e-11
-4.83831e-11
1.86746e-11
3.5156e-11
-5.58296e-11
2.05855e-11
4.0931e-11
-6.38644e-11
2.2583e-11
4.68461e-11
-7.24528e-11
2.46378e-11
5.24282e-11
-8.1494e-11
2.66998e-11
5.69693e-11
-9.0766e-11
2.8583e-11
5.97202e-11
-9.95315e-11
6.04018e-11
-1.08953e-10
1.89467e-13
-5.22664e-13
9.95602e-14
3.59369e-13
-1.52315e-12
2.92998e-13
5.14226e-13
-2.45363e-12
4.81344e-13
6.57381e-13
-3.34867e-12
6.76208e-13
7.90829e-13
-4.23326e-12
8.87467e-13
9.14952e-13
-5.12236e-12
1.12342e-12
1.02807e-12
-6.02018e-12
1.39058e-12
1.12567e-12
-6.9189e-12
1.69296e-12
1.19951e-12
-7.79701e-12
2.03048e-12
1.23677e-12
-8.61796e-12
2.3965e-12
1.22023e-12
-9.33054e-12
2.77453e-12
1.13012e-12
-9.87134e-12
3.13499e-12
9.48375e-13
-1.01662e-11
3.43494e-12
6.66457e-13
-1.01196e-11
3.62796e-12
3.18259e-13
-9.61665e-12
3.69195e-12
-8.06268e-12
3.89881e-12
5.64839e-13
-1.02941e-12
2.96152e-13
1.07141e-12
-3.0005e-12
8.71511e-13
1.53319e-12
-4.83519e-12
1.43158e-12
1.96023e-12
-6.60235e-12
2.01076e-12
2.35871e-12
-8.35232e-12
2.63829e-12
2.7301e-12
-1.01165e-11
3.33881e-12
3.06984e-12
-1.19058e-11
4.13177e-12
3.3649e-12
-1.37087e-11
5.02928e-12
3.59067e-12
-1.54882e-11
6.03159e-12
3.70774e-12
-1.71806e-11
7.12012e-12
3.66089e-12
-1.86992e-11
8.2481e-12
3.38406e-12
-1.99503e-11
9.33162e-12
2.82e-12
-2.08674e-11
1.02494e-11
1.97375e-12
-2.14596e-11
1.08698e-11
1.04671e-12
-2.18238e-11
1.11291e-11
-2.22999e-11
1.10164e-11
9.2976e-13
-1.50484e-12
4.85378e-13
1.76373e-12
-4.38752e-12
1.42822e-12
2.52421e-12
-7.07428e-12
2.34551e-12
3.22806e-12
-9.66789e-12
3.29319e-12
3.88614e-12
-1.22449e-11
4.31885e-12
4.5021e-12
-1.48556e-11
5.46275e-12
5.07007e-12
-1.75223e-11
6.75698e-12
5.57053e-12
-2.02366e-11
8.2221e-12
5.96436e-12
-2.29563e-11
9.8604e-12
6.18543e-12
-2.56035e-11
1.16454e-11
6.13446e-12
-2.80705e-11
1.35082e-11
5.68186e-12
-3.02437e-11
1.53263e-11
4.70372e-12
-3.2062e-11
1.69272e-11
3.20847e-12
-3.36048e-11
1.81322e-11
1.63173e-12
-3.50735e-11
1.88552e-11
-3.67259e-11
1.92448e-11
1.27758e-12
-1.93338e-12
6.62804e-13
2.42368e-12
-5.63896e-12
1.94994e-12
3.46917e-12
-9.09852e-12
3.20106e-12
4.43784e-12
-1.24479e-11
4.49172e-12
5.34604e-12
-1.57903e-11
5.88622e-12
6.20124e-12
-1.91973e-11
7.43925e-12
6.99909e-12
-2.27075e-11
9.19487e-12
7.71803e-12
-2.63235e-11
1.11824e-11
8.31052e-12
-3.00088e-11
1.3408e-11
8.69065e-12
-3.36833e-11
1.58423e-11
8.71896e-12
-3.72233e-11
1.84039e-11
8.19319e-12
-4.04733e-11
2.09492e-11
6.8808e-12
-4.32825e-11
2.32823e-11
4.69318e-12
-4.55752e-11
2.52103e-11
2.18439e-12
-4.73894e-11
2.66252e-11
-4.90302e-11
2.76212e-11
1.60189e-12
-2.29986e-12
8.24482e-13
3.03892e-12
-6.71056e-12
2.42491e-12
4.35005e-12
-1.08365e-11
3.97848e-12
5.56606e-12
-1.48445e-11
5.57777e-12
6.70949e-12
-1.88641e-11
7.30159e-12
7.79348e-12
-2.29896e-11
9.21719e-12
8.81889e-12
-2.72794e-11
1.13792e-11
9.76871e-12
-3.17544e-11
1.38251e-11
1.05983e-11
-3.63936e-11
1.65657e-11
1.12198e-11
-4.11282e-11
1.95712e-11
1.14799e-11
-4.58305e-11
2.27535e-11
1.11337e-11
-5.02994e-11
2.59545e-11
9.8513e-12
-5.42374e-11
2.89591e-11
7.37404e-12
-5.72332e-11
3.15549e-11
4.15111e-12
-5.88603e-11
3.35951e-11
-5.92572e-11
3.51235e-11
1.89678e-12
-2.58999e-12
9.67173e-13
3.59803e-12
-7.56045e-12
2.8435e-12
5.14998e-12
-1.222e-11
4.66161e-12
6.58998e-12
-1.67632e-11
6.52801e-12
7.94707e-12
-2.13436e-11
8.53326e-12
9.24148e-12
-2.60775e-11
1.07546e-11
1.04826e-11
-3.1045e-11
1.3255e-11
1.16647e-11
-3.62887e-11
1.60782e-11
1.2759e-11
-4.18115e-11
1.92385e-11
1.37009e-11
-4.75695e-11
2.27057e-11
1.43681e-11
-5.34576e-11
2.63842e-11
1.45523e-11
-5.92807e-11
3.0097e-11
1.39444e-11
-6.46928e-11
3.35936e-11
1.22223e-11
-6.90941e-11
3.66123e-11
9.56303e-12
-7.16295e-11
3.89616e-11
-7.07192e-11
4.07287e-11
2.15719e-12
-2.79096e-12
1.08852e-12
4.0912e-12
-8.15115e-12
3.19873e-12
5.8542e-12
-1.31879e-11
5.23887e-12
7.48915e-12
-1.81179e-11
7.32591e-12
9.03104e-12
-2.31146e-11
9.55885e-12
1.05073e-11
-2.83136e-11
1.20218e-11
1.19373e-11
-3.38143e-11
1.47832e-11
1.33301e-11
-3.9681e-11
1.78898e-11
1.46813e-11
-4.59413e-11
2.13573e-11
1.59663e-11
-5.25817e-11
2.51523e-11
1.7131e-11
-5.95377e-11
2.91686e-11
1.80809e-11
-6.66766e-11
3.32014e-11
1.86864e-11
-7.37659e-11
3.69429e-11
1.8845e-11
-8.04229e-11
4.00337e-11
1.86457e-11
-8.60066e-11
4.2196e-11
-8.97316e-11
4.36036e-11
2.37926e-12
1.18717e-12
-2.89226e-12
4.51104e-12
3.48674e-12
-8.4519e-12
6.4516e-12
5.70415e-12
-1.36896e-11
8.24783e-12
7.963e-12
-1.8837e-11
9.93915e-12
1.03673e-11
-2.40813e-11
1.15588e-11
1.30045e-11
-2.9572e-11
1.31343e-11
1.59449e-11
-3.54232e-11
1.46882e-11
1.92355e-11
-4.1715e-11
1.62377e-11
2.28897e-11
-4.84927e-11
1.77953e-11
2.68689e-11
-5.57618e-11
1.93697e-11
3.10552e-11
-6.34811e-11
2.09718e-11
3.52182e-11
-7.15499e-11
2.26411e-11
3.89958e-11
-7.97964e-11
2.44975e-11
4.19304e-11
-8.79686e-11
2.65772e-11
4.36426e-11
-9.54966e-11
4.40556e-11
-1.03883e-10
1.87679e-13
-5.2664e-13
6.8076e-14
3.55542e-13
-1.53478e-12
2.00298e-13
5.07635e-13
-2.47254e-12
3.28923e-13
6.46728e-13
-3.3749e-12
4.61803e-13
7.74052e-13
-4.26714e-12
6.05525e-13
8.88972e-13
-5.1647e-12
7.65489e-13
9.88463e-13
-6.07271e-12
9.45774e-13
1.06635e-12
-6.98514e-12
1.14863e-12
1.11249e-12
-7.88353e-12
1.37347e-12
1.11247e-12
-8.73609e-12
1.61545e-12
1.04885e-12
-9.49782e-12
1.86396e-12
9.05389e-13
-1.01103e-11
2.10175e-12
6.752e-13
-1.04958e-11
2.30644e-12
3.71624e-13
-1.05329e-11
2.45734e-12
4.77292e-14
-1.00526e-11
2.54396e-12
-8.40961e-12
2.75542e-12
5.59663e-13
-1.03729e-12
2.02515e-13
1.06032e-12
-3.02352e-12
5.95844e-13
1.51406e-12
-4.87247e-12
9.78387e-13
1.92928e-12
-6.65359e-12
1.37337e-12
2.30994e-12
-8.41775e-12
1.80031e-12
2.65464e-12
-1.0197e-11
2.27524e-12
2.95503e-12
-1.20038e-11
2.81035e-12
3.19344e-12
-1.3829e-11
3.41249e-12
3.34028e-12
-1.56398e-11
4.08025e-12
3.35253e-12
-1.73791e-11
4.79997e-12
3.17646e-12
-1.89671e-11
5.54129e-12
2.76021e-12
-2.03116e-11
6.25459e-12
2.08539e-12
-2.13274e-11
6.87482e-12
1.22665e-12
-2.19624e-11
7.33774e-12
4.31982e-13
-2.22239e-11
7.60506e-12
-2.23999e-11
7.61664e-12
9.21696e-13
-1.51634e-12
3.31958e-13
1.74643e-12
-4.42105e-12
9.76619e-13
2.49431e-12
-7.12825e-12
1.60327e-12
3.17958e-12
-9.74131e-12
2.24966e-12
3.80976e-12
-1.23373e-11
2.9475e-12
4.3841e-12
-1.49669e-11
3.72304e-12
4.8911e-12
-1.76535e-11
4.59647e-12
5.30461e-12
-2.03904e-11
5.57949e-12
5.57895e-12
-2.31383e-11
6.67105e-12
5.64479e-12
-2.58233e-11
7.85117e-12
5.40972e-12
-2.83401e-11
9.07456e-12
4.77408e-12
-3.05689e-11
1.02676e-11
3.68463e-12
-3.24179e-11
1.13355e-11
2.26175e-12
-3.38952e-11
1.21855e-11
9.85996e-13
-3.51278e-11
1.27567e-11
-3.63864e-11
1.3078e-11
1.26734e-12
-1.94804e-12
4.53378e-13
2.40168e-12
-5.68156e-12
1.33361e-12
3.43102e-12
-9.16661e-12
2.18848e-12
4.3759e-12
-1.25395e-11
3.0689e-12
5.24848e-12
-1.59035e-11
4.01775e-12
6.05084e-12
-1.93302e-11
5.07073e-12
6.7719e-12
-2.28577e-11
6.2556e-12
7.38247e-12
-2.64882e-11
7.58917e-12
7.82839e-12
-3.01841e-11
9.07191e-12
8.02268e-12
-3.38635e-11
1.06805e-11
7.83985e-12
-3.73975e-11
1.23605e-11
7.12336e-12
-4.06158e-11
1.40236e-11
5.73785e-12
-4.33335e-11
1.55601e-11
3.73182e-12
-4.54165e-11
1.68671e-11
1.68064e-12
-4.68666e-11
1.78643e-11
-4.80448e-11
1.85387e-11
1.5903e-12
-2.31706e-12
5.64071e-13
3.01395e-12
-6.76037e-12
1.65875e-12
4.30665e-12
-1.09156e-11
2.72045e-12
5.49546e-12
-1.49498e-11
3.81152e-12
6.59833e-12
-1.8992e-11
4.98454e-12
7.6225e-12
-2.31354e-11
6.28347e-12
8.56166e-12
-2.7436e-11
7.74276e-12
9.39102e-12
-3.19107e-11
9.38385e-12
1.006e-11
-3.65326e-11
1.12091e-11
1.04822e-11
-4.1223e-11
1.31935e-11
1.05241e-11
-4.58395e-11
1.52756e-11
9.998e-12
-5.01582e-11
1.73552e-11
8.68796e-12
-5.38497e-11
1.93074e-11
6.4855e-12
-5.64699e-11
2.10152e-11
3.84008e-12
-5.76082e-11
2.23737e-11
-5.74997e-11
2.33419e-11
1.8847e-12
-2.60903e-12
6.61806e-13
3.57191e-12
-7.61547e-12
1.94541e-12
5.10442e-12
-1.23069e-11
3.18805e-12
6.51571e-12
-1.68777e-11
4.46152e-12
7.83011e-12
-2.14804e-11
5.82622e-12
9.06187e-12
-2.62288e-11
7.33272e-12
1.02133e-11
-3.11984e-11
9.02064e-12
1.12711e-11
-3.64245e-11
1.09149e-11
1.22017e-11
-4.18983e-11
1.3019e-11
1.2943e-11
-4.75583e-11
1.53056e-11
1.33956e-11
-5.3275e-11
1.77051e-11
1.3412e-11
-5.88227e-11
2.01001e-11
1.28023e-11
-6.38263e-11
2.23384e-11
1.13988e-11
-6.76826e-11
2.42701e-11
9.37248e-12
-6.96144e-11
2.57699e-11
-6.82421e-11
2.68382e-11
2.14541e-12
-2.81114e-12
7.44948e-13
4.06562e-12
-8.20936e-12
2.18875e-12
5.80938e-12
-1.32794e-11
3.58334e-12
7.41583e-12
-1.82375e-11
5.00756e-12
8.9154e-12
-2.32553e-11
6.52753e-12
1.03298e-11
-2.8465e-11
8.19832e-12
1.16717e-11
-3.39596e-11
1.00628e-11
1.29434e-11
-3.97928e-11
1.21477e-11
1.41356e-11
-4.59763e-11
1.44559e-11
1.5227e-11
-5.24727e-11
1.69562e-11
1.61846e-11
-5.91862e-11
1.95684e-11
1.6971e-11
-6.59475e-11
2.21515e-11
1.75679e-11
-7.24973e-11
2.45103e-11
1.80209e-11
-7.84704e-11
2.64321e-11
1.84245e-11
-8.33529e-11
2.77518e-11
-8.66067e-11
2.85545e-11
2.36847e-12
8.12558e-13
-2.91288e-12
4.48744e-12
2.38611e-12
-8.5113e-12
6.40995e-12
3.90208e-12
-1.37827e-11
8.1793e-12
5.44385e-12
-1.89579e-11
9.83072e-12
7.08089e-12
-2.4222e-11
1.13922e-11
8.87056e-12
-2.97201e-11
1.28852e-11
1.08568e-11
-3.55589e-11
1.43259e-11
1.3066e-11
-4.18063e-11
1.57273e-11
1.54992e-11
-4.8489e-11
1.71039e-11
1.81203e-11
-5.55863e-11
1.84813e-11
2.08384e-11
-6.3023e-11
1.99171e-11
2.34915e-11
-7.06628e-11