/*--------------------------------*- C++ -*----------------------------------*\
| =========                 |                                                 |
| \\      /  F ield         | OpenFOAM: The Open Source CFD Toolbox           |
|  \\    /   O peration     | Version:  v1912                                 |
|   \\  /    A nd           | Website:  www.openfoam.com                      |
|    \\/     M anipulation  |                                                 |
\*---------------------------------------------------------------------------*/
FoamFile
{
    version     2.0;
    format      ascii;
    class       volScalarField;
    location    "0.5/fluid";
    object      p;
}
// * * * * * * * * * * * * * * * * * * * * * * * * * * * * * * * * * * * * * //

dimensions      [0 2 -2 0 0 0 0];


internalField   nonuniform List<scalar> 
14592
(
0.0583239
0.0527402
0.0508742
0.0493023
0.048376
0.047623
0.046999
0.0464438
0.0459127
0.0454748
0.04499
0.044743
0.0442101
0.0444669
0.0436419
0.045777
0.0541233
0.0523881
0.0507284
0.0493939
0.0484702
0.0477116
0.0470739
0.0465145
0.0459861
0.0455611
0.0450956
0.0448911
0.0444
0.0448164
0.0439912
0.0471347
0.0521642
0.0515481
0.050321
0.0493259
0.048467
0.0477328
0.0470863
0.0465198
0.0459883
0.0455707
0.0451251
0.0449699
0.04454
0.0451261
0.044364
0.0481714
0.0509705
0.0508099
0.0499439
0.0491808
0.048406
0.0477059
0.0470584
0.0464841
0.0459438
0.0455246
0.0450869
0.0449672
0.0445887
0.0453168
0.0446726
0.0488297
0.0502607
0.0502244
0.0495803
0.0489679
0.048269
0.0476035
0.0469574
0.0463693
0.0458048
0.0453563
0.0448839
0.0447363
0.0443227
0.0450795
0.0444394
0.0488528
0.0497847
0.0497881
0.0492833
0.0487623
0.0481185
0.0474772
0.0468306
0.0462276
0.0456389
0.0451626
0.0446641
0.0445097
0.0441105
0.0449931
0.0445133
0.0494119
0.0494753
0.0494877
0.0490543
0.0485791
0.0479627
0.047326
0.0466632
0.0460248
0.0453814
0.0448247
0.0442133
0.0438957
0.043254
0.0438308
0.042802
0.0477283
0.0492889
0.0493041
0.0489003
0.048441
0.04783
0.0471845
0.0464997
0.0458261
0.0451367
0.0445206
0.0438469
0.0434675
0.0428028
0.043538
0.0427704
0.0500257
0.0582209
0.0526392
0.0508101
0.049279
0.0484062
0.0477128
0.0471568
0.0466792
0.0462379
0.0459013
0.0455364
0.0453924
0.0449983
0.0451572
0.0444426
0.0452023
0.0540204
0.0522853
0.0506633
0.0493703
0.0485011
0.0478028
0.0472339
0.0467529
0.0463153
0.0459924
0.0456467
0.0455409
0.0451781
0.0454362
0.0446788
0.0458775
0.0520578
0.0514403
0.0502501
0.0492962
0.0484923
0.0478191
0.0472416
0.0467535
0.0463124
0.0459965
0.0456684
0.0456084
0.0452949
0.0456902
0.044954
0.0465094
0.0508619
0.0506995
0.0498693
0.0491467
0.0484261
0.0477864
0.0472071
0.0467104
0.0462592
0.0459408
0.0456182
0.0455925
0.0453219
0.0458436
0.0451905
0.046966
0.0501492
0.0501108
0.0495015
0.0489285
0.0482824
0.0476755
0.0470954
0.0465821
0.0461025
0.0457502
0.0453845
0.0453238
0.0449986
0.0455361
0.0448332
0.0468053
0.0496703
0.0496716
0.0492009
0.048718
0.0481253
0.0475407
0.0469575
0.0464263
0.0459184
0.0455348
0.045137
0.0450699
0.0447495
0.0454283
0.0448529
0.0472981
0.0493573
0.0493678
0.0489676
0.0485291
0.0479616
0.0473789
0.0467755
0.0462035
0.0456326
0.0451581
0.0446293
0.0443813
0.0437718
0.0441291
0.0428604
0.0453497
0.049167
0.0491804
0.048809
0.0483854
0.0478214
0.0472273
0.0465982
0.0459863
0.0453634
0.0448234
0.044224
0.0439169
0.0432785
0.0438607
0.0428238
0.0477587
0.0581565
0.0525763
0.0507755
0.0492781
0.0484515
0.0478124
0.0473224
0.0469249
0.0465857
0.0463774
0.0461941
0.0462719
0.0462558
0.0467792
0.0469173
0.0478171
0.053956
0.0522212
0.0506281
0.0493696
0.0485473
0.0479042
0.0474022
0.0470026
0.0466688
0.0464766
0.0463156
0.0464347
0.0464563
0.0470739
0.0472106
0.0484451
0.0519901
0.0513716
0.0502095
0.0492899
0.0485333
0.0479157
0.0474055
0.046999
0.0466616
0.0464767
0.046333
0.0464998
0.0465738
0.0473349
0.0475336
0.0490888
0.0507917
0.050628
0.049825
0.0491359
0.048462
0.0478774
0.0473645
0.0469488
0.0466002
0.0464125
0.0462733
0.046477
0.0465951
0.0474922
0.047787
0.049557
0.0500758
0.0500359
0.0494528
0.0489121
0.0483113
0.047758
0.0472422
0.0468072
0.0464261
0.0462001
0.0460099
0.0461733
0.0462212
0.0471314
0.0473443
0.049304
0.0495938
0.0495936
0.0491483
0.0486964
0.0481475
0.0476145
0.047093
0.0466368
0.0462227
0.0459606
0.0457298
0.0458824
0.0459174
0.046972
0.0472649
0.0496996
0.049277
0.049286
0.0489105
0.0485017
0.047976
0.0474421
0.0468962
0.0463935
0.0459075
0.0455423
0.0451583
0.0451038
0.0447859
0.0454679
0.0448732
0.0473082
0.0490828
0.0490948
0.0487474
0.0483523
0.047828
0.04728
0.0467045
0.0461565
0.0456102
0.0451692
0.0446971
0.0445666
0.0441752
0.0450705
0.0445682
0.0494783
0.058117
0.0525377
0.050758
0.0492865
0.0484954
0.047898
0.0474574
0.0471159
0.0468421
0.0467021
0.0466004
0.0467342
0.0468047
0.0472802
0.0474829
0.0481288
0.0539166
0.0521816
0.0506103
0.0493781
0.0485921
0.0479912
0.0475391
0.0471962
0.0469285
0.0468051
0.0467258
0.0468984
0.0470022
0.0475501
0.0477364
0.0486148
0.0519475
0.0513279
0.0501868
0.0492935
0.0485733
0.0479984
0.0475381
0.0471884
0.0469163
0.0467992
0.046734
0.0469494
0.0470947
0.0477638
0.0479892
0.049121
0.0507467
0.0505816
0.0497988
0.0491352
0.0484973
0.0479548
0.0474914
0.0471316
0.0468471
0.0467261
0.0466625
0.0469122
0.0470932
0.0478871
0.0481854
0.0495049
0.0500276
0.0499863
0.0494225
0.0489063
0.0483404
0.0478279
0.0473599
0.0469788
0.0466587
0.046496
0.0463751
0.0465793
0.046676
0.0474737
0.047657
0.049153
0.0495426
0.049541
0.0491143
0.0486861
0.0481706
0.047677
0.0472012
0.0467967
0.0464403
0.0462387
0.0460721
0.0462641
0.0463371
0.0472812
0.047515
0.0494831
0.0492223
0.04923
0.0488723
0.0484862
0.0479923
0.0474956
0.0469925
0.0465377
0.0461039
0.045793
0.0454622
0.0454386
0.0451335
0.0456981
0.0449762
0.0469362
0.0490245
0.0490353
0.0487052
0.0483317
0.0478378
0.047325
0.0467895
0.046286
0.0457873
0.0453963
0.0449704
0.0448703
0.044481
0.0452771
0.0446147
0.049059
0.0580955
0.0525171
0.0507537
0.0493029
0.0485408
0.0479786
0.0475811
0.0472909
0.0470803
0.0470122
0.0470045
0.0472291
0.0474397
0.0479893
0.0483782
0.0489606
0.0538951
0.0521603
0.0506058
0.0493947
0.0486384
0.0480733
0.0476651
0.0473743
0.047171
0.0471209
0.0471375
0.0474021
0.047648
0.0482642
0.0486398
0.0494099
0.0519234
0.0513032
0.0501783
0.049306
0.0486157
0.0480768
0.0476607
0.0473631
0.047155
0.0471108
0.0471397
0.0474446
0.0477263
0.0484534
0.0488594
0.0498549
0.0507205
0.0505545
0.0497873
0.0491442
0.0485356
0.0480288
0.047609
0.0473009
0.0470794
0.0470306
0.0470591
0.0473972
0.0477099
0.0485574
0.0490251
0.0501984
0.0499986
0.0499563
0.0494074
0.0489108
0.0483733
0.0478955
0.0474695
0.0471383
0.0468786
0.0467851
0.0467512
0.0470397
0.0472573
0.0481026
0.0484321
0.0497758
0.0495108
0.0495083
0.0490959
0.0486864
0.0481982
0.0477378
0.0473023
0.0469455
0.0466464
0.0465109
0.0464256
0.0466984
0.0468808
0.0478695
0.0482221
0.0500343
0.0491875
0.0491942
0.0488502
0.0484819
0.0480139
0.0475486
0.0470831
0.0466725
0.0462908
0.0460398
0.0457796
0.0458268
0.0456062
0.0462002
0.0455344
0.0473192
0.0489865
0.0489965
0.0486795
0.0483229
0.0478536
0.0473702
0.0468697
0.046407
0.0459554
0.0456185
0.0452538
0.0452168
0.0448922
0.0457118
0.0450554
0.0493157
0.0580843
0.0525064
0.0507544
0.0493181
0.0485763
0.0480383
0.0476696
0.0474115
0.0472379
0.0472059
0.0472396
0.0474884
0.0477346
0.0482626
0.0486671
0.0491905
0.053884
0.0521491
0.0506064
0.0494102
0.0486745
0.0481339
0.0477549
0.0474967
0.0473307
0.0473172
0.0473755
0.0476634
0.0479433
0.0485312
0.0489177
0.0496014
0.0519102
0.0512893
0.0501758
0.0493182
0.0486488
0.0481347
0.0477478
0.0474827
0.0473114
0.0473029
0.0473712
0.0476962
0.0480053
0.0486933
0.0490979
0.0499888
0.0507056
0.0505388
0.0497824
0.0491536
0.0485655
0.0480832
0.0476922
0.0474162
0.0472307
0.0472168
0.0472828
0.047639
0.0479738
0.0487764
0.0492305
0.0502923
0.0499814
0.0499383
0.0493997
0.0489167
0.048399
0.0479449
0.0475468
0.0472465
0.047021
0.0469605
0.0469607
0.0472644
0.0474966
0.0482918
0.0485914
0.0498202
0.0494915
0.0494881
0.0490856
0.0486891
0.0482199
0.0477823
0.0473734
0.0470462
0.0467794
0.0466752
0.0466208
0.0469074
0.0470976
0.0480345
0.0483407
0.050037
0.0491656
0.0491716
0.048837
0.0484811
0.0480311
0.0475873
0.0471467
0.0467637
0.0464114
0.0461888
0.0459543
0.0460118
0.0457884
0.0463265
0.0455854
0.0472437
0.0489622
0.0489715
0.0486635
0.0483187
0.0478664
0.0474034
0.0469262
0.046489
0.0460642
0.0457533
0.0454104
0.0453826
0.0450485
0.0458148
0.0450648
0.0491953
0.0580796
0.0525022
0.0507577
0.0493313
0.0486035
0.0480824
0.0477346
0.0475006
0.0473556
0.047354
0.0474247
0.0477035
0.0479914
0.0485299
0.0489688
0.0494654
0.0538794
0.0521445
0.0506097
0.0494236
0.0487023
0.048179
0.0478211
0.0475874
0.0474508
0.0474684
0.0475644
0.0478829
0.0482053
0.0488016
0.0492222
0.0498645
0.0519042
0.051283
0.0501771
0.0493294
0.0486744
0.0481778
0.0478122
0.0475717
0.0474294
0.0474516
0.0475567
0.0479106
0.0482585
0.0489495
0.0493817
0.0502217
0.0506983
0.0505311
0.049782
0.0491629
0.048589
0.048124
0.047754
0.0475022
0.0473453
0.0473617
0.0474633
0.0478473
0.0482179
0.0490204
0.0494954
0.050503
0.0499727
0.049929
0.0493973
0.0489236
0.0484196
0.0479822
0.0476044
0.0473276
0.0471294
0.0470978
0.0471311
0.0474608
0.0477237
0.0485156
0.0488257
0.0499984
0.0494812
0.0494773
0.0490813
0.0486937
0.0482377
0.047816
0.0474266
0.0471217
0.0468808
0.0468041
0.0467802
0.0470909
0.0473067
0.0482379
0.0485429
0.0501822
0.0491536
0.0491591
0.0488308
0.0484832
0.0480456
0.0476169
0.0471945
0.0468323
0.0465035
0.046306
0.0460981
0.0461764
0.0459703
0.0464978
0.0457347
0.0473272
0.0489485
0.0489573
0.0486552
0.0483184
0.0478779
0.047429
0.0469686
0.0465507
0.0461472
0.045859
0.0455389
0.0455291
0.0452053
0.0459584
0.0451704
0.049232
0.0580776
0.0525009
0.0507595
0.049338
0.0486166
0.0481032
0.0477645
0.0475403
0.0474063
0.0474146
0.0474961
0.0477795
0.0480744
0.0486049
0.0490458
0.0495318
0.0538779
0.0521427
0.0506116
0.0494303
0.0487155
0.0482
0.0478513
0.0476274
0.0475017
0.047529
0.0476354
0.0479576
0.0482857
0.0488718
0.0492935
0.0499201
0.0519017
0.0512803
0.050178
0.049335
0.0486867
0.0481978
0.0478413
0.0476105
0.0474788
0.0475101
0.0476244
0.0479804
0.0483315
0.0490087
0.0494386
0.0502595
0.0506953
0.0505277
0.0497821
0.0491674
0.0486001
0.0481428
0.0477817
0.0475395
0.0473929
0.047418
0.0475282
0.0479136
0.0482855
0.0490724
0.0495412
0.0505282
0.0499688
0.0499248
0.0493964
0.048927
0.0484293
0.0479993
0.0476302
0.0473626
0.0471741
0.047151
0.047192
0.0475223
0.0477848
0.0485597
0.0488593
0.0500104
0.0494765
0.0494724
0.0490796
0.048696
0.048246
0.0478315
0.0474503
0.0471543
0.0469226
0.0468539
0.0468369
0.0471479
0.0473613
0.0482744
0.0485634
0.0501796
0.0491481
0.0491533
0.048828
0.0484843
0.0480524
0.0476305
0.0472159
0.046862
0.0465418
0.0463516
0.0461496
0.046228
0.0460175
0.0465263
0.0457407
0.0473066
0.0489421
0.0489506
0.0486515
0.0483183
0.0478832
0.0474407
0.0469877
0.0465776
0.0461819
0.0459005
0.0455852
0.045575
0.045245
0.0459782
0.0451603
0.0491899
0.0677558
0.0570439
0.0534411
0.0504854
0.048761
0.0473746
0.0462396
0.0451771
0.0441239
0.0430402
0.0418496
0.0405767
0.0390768
0.0374804
0.0355159
0.0335404
0.0634702
0.0562707
0.0530414
0.0503763
0.0487164
0.0473661
0.0462437
0.0451901
0.0441458
0.0430711
0.0418901
0.0406301
0.0391446
0.0375658
0.0356158
0.0336508
0.0614861
0.0552513
0.0524306
0.0501004
0.0485655
0.047293
0.0462012
0.0451653
0.0441323
0.0430667
0.041897
0.0406508
0.0391855
0.0376295
0.035707
0.0337631
0.0602325
0.0544366
0.0519519
0.0498513
0.0484286
0.0472206
0.0461551
0.0451316
0.0441037
0.0430408
0.0418755
0.0406358
0.0391834
0.0376429
0.0357427
0.0338183
0.0594866
0.0538227
0.0515425
0.0495927
0.0482635
0.0471131
0.0460752
0.0450641
0.0440396
0.0429759
0.0418106
0.0405715
0.0391268
0.0375962
0.0357193
0.0338186
0.0589918
0.0533785
0.0512308
0.0493755
0.0481133
0.0470043
0.0459871
0.0449839
0.0439597
0.0428927
0.0417254
0.0404848
0.0390479
0.0375279
0.0356801
0.0338083
0.0586808
0.0530833
0.0510059
0.0492019
0.0479794
0.0468941
0.0458879
0.0448856
0.0438559
0.0427796
0.0416042
0.0403545
0.0389191
0.0374021
0.0355848
0.0337447
0.0585056
0.0529133
0.0508665
0.049084
0.0478774
0.0467996
0.0457945
0.044787
0.0437487
0.0426621
0.0414794
0.0402229
0.0387941
0.037286
0.0355082
0.0337059
0.0634684
0.0562663
0.0530327
0.0503624
0.0486968
0.0473393
0.0462138
0.0451548
0.0440958
0.043005
0.0418027
0.0405209
0.0390028
0.0374004
0.0354042
0.0334394
0.0592437
0.0558316
0.0527825
0.0503438
0.0487045
0.0473604
0.0462342
0.0451756
0.0441164
0.043027
0.0418277
0.0405513
0.0390412
0.0374503
0.0354692
0.0335186
0.0572573
0.0548989
0.0522414
0.0501307
0.0485929
0.0473089
0.0462032
0.0451557
0.0441016
0.043017
0.0418257
0.0405599
0.0390675
0.0374961
0.0355384
0.0336054
0.0560168
0.0541001
0.0517898
0.0499097
0.0484773
0.047251
0.0461664
0.0451275
0.0440755
0.042992
0.0418043
0.0405445
0.0390648
0.0375085
0.0355729
0.0336595
0.0552766
0.0534821
0.0513865
0.0496595
0.0483194
0.0471491
0.0460903
0.0450625
0.0440134
0.0429292
0.0417419
0.0404831
0.0390119
0.0374659
0.0355541
0.0336637
0.0547846
0.0530324
0.0510756
0.049445
0.0481725
0.0470436
0.0460048
0.0449847
0.0439369
0.0428504
0.0416625
0.040404
0.0389429
0.0374093
0.035529
0.0336677
0.054475
0.052734
0.0508507
0.0492727
0.0480404
0.0469359
0.0459073
0.0448879
0.0438362
0.0427414
0.0415466
0.0402803
0.0388224
0.0372929
0.0354461
0.0336158
0.0543005
0.0525628
0.0507118
0.049156
0.0479403
0.0468439
0.0458159
0.0447916
0.0437333
0.0426296
0.0414297
0.0401588
0.0387111
0.0371932
0.0353908
0.0335985
0.061499
0.0552625
0.0524454
0.0501188
0.0485903
0.0473263
0.0462511
0.0452292
0.0441966
0.0431328
0.0419469
0.0406859
0.0391449
0.0375325
0.0353873
0.0333449
0.0572739
0.0549171
0.0522693
0.050169
0.0486447
0.0473787
0.0462937
0.0452668
0.044231
0.0431677
0.0419851
0.0407303
0.0391983
0.037599
0.0354665
0.0334387
0.0552912
0.0540503
0.0518109
0.0500415
0.048594
0.0473666
0.0462872
0.0452623
0.0442264
0.0431653
0.0419899
0.0407457
0.039232
0.0376512
0.0355375
0.0335196
0.0540664
0.0532801
0.0513998
0.0498635
0.0485113
0.0473313
0.0462645
0.0452423
0.044205
0.043143
0.0419706
0.0407326
0.0392327
0.0376682
0.0355768
0.0335785
0.0533361
0.0526739
0.0510163
0.0496351
0.0483708
0.0472408
0.0461943
0.0451791
0.0441415
0.0430762
0.0419022
0.0406633
0.0391711
0.037616
0.0355504
0.0335772
0.0528499
0.0522279
0.0507132
0.0494294
0.048231
0.0471393
0.0461098
0.0451
0.0440615
0.0429919
0.0418163
0.0405771
0.0390969
0.0375569
0.035532
0.0335952
0.0525427
0.0519303
0.0504908
0.04926
0.0481007
0.0470309
0.0460093
0.0449981
0.0439525
0.0428711
0.041685
0.0404333
0.0389543
0.0374152
0.0354341
0.0335353
0.0523683
0.0517586
0.050352
0.0491435
0.0480001
0.0469366
0.0459137
0.044896
0.0438417
0.0427489
0.0415559
0.0402978
0.0388316
0.0373069
0.0353885
0.0335403
0.0602601
0.0544629
0.0519941
0.0499121
0.0485157
0.0473397
0.0463169
0.0453373
0.0443398
0.0433146
0.042154
0.0409274
0.0393579
0.0377413
0.0353673
0.0332231
0.0560489
0.0541338
0.0518471
0.0499933
0.0485952
0.0474115
0.0463731
0.0453845
0.0443824
0.0433574
0.0422007
0.0409825
0.0394245
0.0378271
0.0354668
0.0333392
0.0540813
0.0532947
0.0514284
0.0499085
0.0485778
0.0474231
0.0463816
0.0453892
0.044384
0.0433599
0.0422106
0.0410038
0.0394652
0.0378857
0.035534
0.0334003
0.0528713
0.0525427
0.0510386
0.049753
0.0485126
0.0473998
0.0463659
0.0453725
0.0443637
0.0433376
0.0421912
0.0409914
0.0394682
0.0379071
0.0355763
0.0334606
0.0521512
0.0519473
0.0506677
0.0495375
0.048382
0.0473152
0.0462977
0.0453078
0.0442957
0.0432634
0.0421129
0.0409097
0.0393924
0.0378387
0.0355353
0.0334469
0.051671
0.0515069
0.0503702
0.0493371
0.0482457
0.0472149
0.0462119
0.0452249
0.0442096
0.0431709
0.0420177
0.0408135
0.0393109
0.0377765
0.0355276
0.0334881
0.0513664
0.0512114
0.0501499
0.0491691
0.0481154
0.0471043
0.0461068
0.0451152
0.0440889
0.0430335
0.0418645
0.0406405
0.0391351
0.0375948
0.0354051
0.0334133
0.0511921
0.0510396
0.0500107
0.0490516
0.0480128
0.0470064
0.0460058
0.0450054
0.0439676
0.0428975
0.0417195
0.0404867
0.0389984
0.0374775
0.0353804
0.0334627
0.0595284
0.0538647
0.0516198
0.049713
0.0484439
0.0473656
0.0464164
0.0455055
0.0445731
0.0436235
0.0425294
0.0413924
0.039836
0.0382761
0.0356078
0.0333324
0.0553233
0.0535308
0.0514789
0.0498036
0.0485328
0.0474459
0.0464798
0.0455597
0.0446235
0.0436761
0.0425885
0.0414645
0.0399252
0.0383956
0.0357427
0.0334797
0.0533647
0.0527018
0.0510784
0.0497399
0.0485332
0.047471
0.0464974
0.0455704
0.04463
0.0436834
0.0426048
0.0414952
0.0399777
0.0384667
0.0358041
0.0335065
0.0521649
0.0519605
0.050701
0.0495971
0.0484782
0.0474545
0.0464851
0.0455546
0.044609
0.0436597
0.0425845
0.041484
0.0399849
0.0384977
0.035854
0.0335733
0.0514525
0.0513733
0.0503389
0.0493903
0.0483537
0.047373
0.0464162
0.0454853
0.0445326
0.0435733
0.0424902
0.0413823
0.0398862
0.0384049
0.0357913
0.0335456
0.050977
0.0509375
0.0500459
0.0491935
0.048219
0.0472718
0.0463266
0.0453951
0.0444357
0.0434666
0.0423781
0.0412677
0.0397894
0.0383347
0.0357983
0.0336281
0.0506741
0.0506436
0.0498267
0.0490256
0.0480869
0.0471568
0.0462134
0.0452723
0.0442958
0.0433016
0.0421875
0.0410436
0.0395513
0.0380763
0.0356185
0.0335156
0.050499
0.050471
0.0496863
0.048906
0.0479805
0.0470527
0.0461034
0.0451493
0.0441563
0.0431413
0.0420125
0.0408531
0.0393802
0.0379299
0.0356091
0.0336321
0.0590347
0.0534226
0.0513338
0.0495513
0.0483905
0.0474017
0.0465292
0.0456933
0.0448347
0.0439711
0.0429524
0.041915
0.0403613
0.0388479
0.0357288
0.0332359
0.0548322
0.0530817
0.0511925
0.0496439
0.0484826
0.0474854
0.046596
0.0457517
0.0448905
0.0440312
0.0430218
0.0420036
0.0404734
0.0390045
0.0358832
0.0333427
0.0528777
0.0522536
0.0507965
0.0495861
0.0484885
0.0475146
0.0466161
0.045764
0.0448984
0.0440408
0.0430422
0.0420421
0.0405346
0.0390809
0.0358997
0.0332365
0.0516834
0.0515169
0.0504236
0.0494476
0.0484364
0.0474993
0.0466029
0.0457458
0.0448738
0.0440132
0.0430187
0.0420304
0.0405436
0.0391187
0.0359426
0.0332777
0.0509752
0.0509338
0.0500651
0.0492434
0.0483128
0.0474163
0.0465295
0.0456686
0.0447857
0.043911
0.0429037
0.041903
0.0404136
0.0389912
0.0358456
0.0332264
0.0505022
0.0505004
0.0497737
0.0490471
0.0481769
0.0473118
0.0464336
0.0455688
0.0446758
0.0437876
0.0427722
0.041768
0.0403012
0.0389196
0.0358874
0.033394
0.0501995
0.0502068
0.0495541
0.0488775
0.0480411
0.0471905
0.0463102
0.0454305
0.0445134
0.0435904
0.0425369
0.0414815
0.0399845
0.038562
0.0356407
0.033256
0.0500228
0.0500325
0.0494115
0.0487547
0.0479296
0.0470793
0.0461899
0.0452927
0.0443539
0.0434035
0.04233
0.0412542
0.0397847
0.0384087
0.0357083
0.0335774
0.0587059
0.0531114
0.0511243
0.0494322
0.0483637
0.0474616
0.0466749
0.0459325
0.0451782
0.0444487
0.043583
0.0427695
0.0414114
0.0402389
0.0369444
0.0345088
0.0545047
0.0527654
0.0509814
0.0495247
0.048457
0.0475472
0.0467448
0.0459954
0.0452405
0.0445184
0.0436662
0.0428805
0.0415547
0.0404498
0.0371299
0.0345483
0.0525506
0.0519347
0.050584
0.0494664
0.0484626
0.047576
0.0467643
0.046007
0.0452481
0.0445295
0.0436911
0.0429309
0.0416337
0.0405563
0.0371359
0.0343435
0.0513585
0.0511994
0.0502118
0.0493278
0.0484096
0.0475587
0.0467478
0.0459843
0.0452182
0.0444969
0.0436639
0.0429214
0.0416519
0.0406213
0.0372004
0.0343883
0.0506517
0.0506174
0.0498537
0.0491229
0.0482838
0.0474713
0.0466669
0.0458962
0.0451149
0.0443745
0.0435225
0.042762
0.0414826
0.040456
0.0370656
0.0343194
0.0501792
0.0501845
0.049562
0.0489249
0.0481445
0.0473609
0.046562
0.0457836
0.0449876
0.044229
0.0433637
0.0425977
0.0413429
0.0403771
0.0371401
0.034602
0.0498753
0.0498897
0.0493403
0.0487518
0.048003
0.0472308
0.0464251
0.0456251
0.0447954
0.0439878
0.0430638
0.0422158
0.0408894
0.039831
0.0366949
0.0343217
0.049696
0.0497129
0.0491946
0.0486245
0.0478851
0.0471103
0.0462911
0.0454677
0.0446086
0.043763
0.0428065
0.0419235
0.0406168
0.0396189
0.0367791
0.0349095
0.0584771
0.0528897
0.0509733
0.0493486
0.0483563
0.0475307
0.0468236
0.0461684
0.0455104
0.0448976
0.0441577
0.043504
0.0422538
0.04121
0.0374628
0.0344186
0.0542762
0.05254
0.0508286
0.0494406
0.0484499
0.0476176
0.0468957
0.0462347
0.0455775
0.0449745
0.0442502
0.0436298
0.0424098
0.0414274
0.0374948
0.033736
0.0523201
0.0517049
0.0504267
0.0493781
0.0484518
0.0476432
0.0469121
0.0462435
0.0455826
0.0449844
0.0442754
0.0436848
0.0424889
0.0415216
0.0373572
0.0329617
0.0511278
0.0509688
0.0500526
0.0492369
0.0483954
0.0476216
0.0468904
0.0462147
0.0455457
0.0449448
0.0442413
0.0436724
0.0425049
0.0415902
0.0373884
0.0328418
0.0504202
0.0503856
0.0496925
0.0490287
0.0482648
0.0475274
0.0468002
0.046114
0.0454256
0.0448005
0.0440705
0.0434772
0.0422876
0.0413746
0.0371967
0.0327265
0.0499465
0.0499516
0.0493987
0.0488275
0.0481206
0.0474098
0.0466852
0.045988
0.0452806
0.0446334
0.0438859
0.0432879
0.0421275
0.0413071
0.0373458
0.0331848
0.0496403
0.0496544
0.0491739
0.0486497
0.0479726
0.0472699
0.0465341
0.0458089
0.0450587
0.0443493
0.0435228
0.0428144
0.0415382
0.0405763
0.0367069
0.032742
0.0494578
0.0494745
0.0490243
0.0485174
0.0478478
0.0471397
0.0463864
0.0456327
0.0448465
0.0440914
0.0432247
0.0424793
0.0412352
0.0404075
0.0369981
0.0339202
0.0492151
0.0492316
0.0488206
0.0483487
0.0477182
0.0470439
0.0463192
0.0455881
0.044819
0.0440765
0.0432166
0.0424734
0.0412211
0.0403783
0.0369234
0.0337814
0.0492585
0.0492748
0.0488232
0.0483146
0.0476433
0.0469292
0.0461626
0.0453815
0.044555
0.0437337
0.042792
0.0419158
0.0406015
0.0395876
0.0367001
0.0347813
0.0494279
0.049436
0.0489
0.0483252
0.0475928
0.0468234
0.046006
0.0451671
0.0442737
0.043357
0.0423043
0.0412385
0.0397619
0.0383686
0.035622
0.0334461
0.0497811
0.0497513
0.0490639
0.0483793
0.0475669
0.0467389
0.045876
0.0449931
0.0440559
0.0430825
0.0419803
0.0408347
0.0393578
0.0378924
0.0355319
0.0335148
0.050378
0.0502236
0.049301
0.0484492
0.0475367
0.0466456
0.0457442
0.0448243
0.0438504
0.0428281
0.0416813
0.0404654
0.0389761
0.0374423
0.0353116
0.0333578
0.0514885
0.0508783
0.0495858
0.048494
0.0474872
0.046549
0.0456345
0.0447034
0.0437179
0.0426766
0.0415176
0.0402783
0.0388133
0.0372773
0.0353298
0.0334482
0.0533752
0.0516403
0.0499102
0.0484775
0.0474042
0.0464354
0.0455221
0.0445919
0.0436056
0.042556
0.0413919
0.0401411
0.0386962
0.0371685
0.0353404
0.0335169
0.0575804
0.052
0.0500771
0.0484178
0.0473529
0.0464005
0.0455076
0.0445946
0.0436292
0.0425958
0.041448
0.0402105
0.0387839
0.0372652
0.0354614
0.0336273
0.0490887
0.0491034
0.0487241
0.0482869
0.0477011
0.047075
0.0464013
0.0457249
0.0450119
0.0443308
0.0435217
0.0428227
0.0415358
0.040553
0.036604
0.0325373
0.0491275
0.0491422
0.0487218
0.0482467
0.0476184
0.0469497
0.0462304
0.0454989
0.0447218
0.0439539
0.0430547
0.0422202
0.040883
0.039802
0.0365857
0.0341326
0.0492922
0.0492989
0.0487936
0.0482515
0.04756
0.0468331
0.0460589
0.0452637
0.0444118
0.0435375
0.0425144
0.0414747
0.0399672
0.0385204
0.0355261
0.0330734
0.049641
0.0496099
0.0489526
0.0483004
0.0475279
0.0467399
0.0459173
0.0450738
0.044173
0.0432354
0.0421577
0.0410333
0.0395351
0.038039
0.0355212
0.0333594
0.0502338
0.0500783
0.0491858
0.0483653
0.0474916
0.0466388
0.0457746
0.0448902
0.043948
0.0429554
0.0418276
0.0406264
0.0391194
0.0375618
0.0353237
0.0332813
0.0513414
0.0507305
0.0494679
0.0484073
0.0474383
0.0465374
0.0456587
0.0447606
0.0438043
0.0427896
0.0416477
0.040421
0.0389439
0.0373904
0.0353693
0.0334251
0.0532269
0.0514922
0.049792
0.0483898
0.0473532
0.0464198
0.0455407
0.0446422
0.0436833
0.0426579
0.0415095
0.0402699
0.0388164
0.0372751
0.0353943
0.0335228
0.0574323
0.0518539
0.0499609
0.0483322
0.0473041
0.0463867
0.0455284
0.0446485
0.0437116
0.0427039
0.0415738
0.0403499
0.0389183
0.0373887
0.0355374
0.0336553
0.0490001
0.0490135
0.0486574
0.0482475
0.0476992
0.0471159
0.0464908
0.0458706
0.0452217
0.04462
0.0439018
0.0433221
0.0421461
0.0412935
0.0371922
0.0328482
0.0490347
0.0490483
0.0486504
0.0482014
0.0476087
0.0469801
0.046305
0.0456233
0.0449009
0.0441989
0.0433699
0.0426253
0.0413549
0.0403554
0.0369849
0.03431
0.0491951
0.0492007
0.0487176
0.0482007
0.0475426
0.0468527
0.0461183
0.0453662
0.0445592
0.0437359
0.0427615
0.0417796
0.0402975
0.0388807
0.035734
0.0331338
0.0495399
0.0495079
0.0488723
0.0482449
0.0475044
0.0467507
0.0459646
0.0451591
0.0442964
0.0434
0.0423586
0.0412744
0.0397876
0.0383041
0.0356781
0.0334209
0.0501294
0.0499731
0.0491018
0.0483052
0.0474625
0.0466421
0.0458111
0.0449601
0.0440501
0.0430904
0.0419893
0.0408149
0.0393101
0.0377531
0.0354358
0.0333257
0.0512346
0.0506231
0.0493817
0.0483446
0.0474055
0.046536
0.0456887
0.0448212
0.0438937
0.0429071
0.0417871
0.0405803
0.039103
0.0375455
0.0354668
0.0334695
0.053119
0.0513844
0.0497055
0.0483262
0.0473185
0.0464145
0.0455651
0.0446955
0.043763
0.0427626
0.0416328
0.0404089
0.0389545
0.0374076
0.035484
0.0335698
0.0573245
0.0517476
0.0498759
0.0482703
0.0472713
0.0463828
0.0455546
0.0447049
0.0437951
0.0428134
0.0417032
0.0404963
0.0390658
0.0375318
0.0356412
0.0337156
0.048938
0.0489501
0.0486107
0.0482215
0.047702
0.0471515
0.0465629
0.0459826
0.0453746
0.0448147
0.0441296
0.0435691
0.0423632
0.04141
0.0370095
0.0322343
0.0489689
0.0489814
0.0485998
0.0481703
0.0476051
0.0470072
0.0463659
0.0457202
0.0450339
0.0443684
0.0435667
0.04284
0.0415431
0.0404751
0.0368825
0.0339232
0.0491257
0.0491303
0.0486632
0.048165
0.0475326
0.0468715
0.0461678
0.0454476
0.0446715
0.0438784
0.0429244
0.0419552
0.040447
0.0389798
0.0356669
0.0328911
0.0494672
0.0494343
0.0488143
0.0482054
0.0474895
0.0467627
0.046005
0.0452283
0.0443929
0.0435226
0.0424983
0.0414253
0.0399192
0.0384024
0.0356641
0.0332981
0.050054
0.0498969
0.0490409
0.0482621
0.0474432
0.0466482
0.0458433
0.0450183
0.0441324
0.043195
0.0421082
0.0409429
0.0394238
0.0378434
0.0354486
0.033267
0.0511572
0.0505452
0.049319
0.0482994
0.0473832
0.0465386
0.0457163
0.0448729
0.0439677
0.0430015
0.0418948
0.0406967
0.0392096
0.0376351
0.035501
0.0334508
0.0530407
0.0513061
0.0496424
0.0482804
0.0472949
0.0464141
0.0455886
0.0447423
0.0438307
0.0428493
0.0417321
0.0405166
0.0390558
0.0374963
0.0355319
0.0335763
0.0572465
0.0516706
0.0498142
0.048226
0.0472494
0.0463839
0.0455799
0.0447547
0.0438668
0.0429053
0.0418094
0.0406128
0.0391785
0.037634
0.0357057
0.0337389
0.0488966
0.048908
0.0485811
0.0482079
0.0477115
0.0471883
0.0466315
0.0460875
0.0455199
0.0450054
0.0443665
0.0438519
0.04267
0.041704
0.037143
0.0320635
0.0489245
0.0489362
0.0485666
0.0481523
0.0476089
0.0470364
0.046424
0.0458108
0.0451594
0.0445323
0.043767
0.0430761
0.04179
0.0407092
0.0369821
0.0338271
0.0490782
0.0490823
0.0486269
0.048143
0.0475308
0.0468932
0.0462155
0.0455238
0.0447771
0.0440153
0.0430885
0.0421446
0.0406374
0.0391559
0.0357357
0.0328315
0.049417
0.0493836
0.0487749
0.0481801
0.0474834
0.0467783
0.0460444
0.045293
0.0444828
0.0436385
0.0426355
0.0415815
0.0400736
0.0385448
0.03573
0.0332805
0.0500015
0.0498439
0.0489991
0.0482337
0.0474333
0.0466586
0.0458753
0.0450727
0.0442086
0.0432929
0.042223
0.0410718
0.0395499
0.0379595
0.0355101
0.0332714
0.0511031
0.0504908
0.0492756
0.0482692
0.0473706
0.0465458
0.045744
0.0449211
0.0440356
0.0430886
0.0419963
0.0408097
0.0393203
0.0377371
0.0355624
0.0334689
0.0529859
0.0512513
0.0495987
0.0482496
0.047281
0.0464186
0.0456124
0.0447856
0.0438923
0.0429284
0.0418242
0.0406187
0.0391563
0.0375896
0.0355945
0.0336046
0.0571918
0.0516167
0.0497715
0.0481963
0.0472369
0.0463894
0.0456052
0.0448004
0.0439314
0.0429881
0.0419062
0.0407206
0.0392861
0.0377355
0.0357784
0.0337771
0.0488698
0.0488804
0.0485621
0.0482002
0.0477198
0.0472156
0.0466801
0.0461592
0.045615
0.0451229
0.0445003
0.043991
0.0427876
0.0417616
0.0370468
0.0317391
0.0488952
0.0489064
0.0485451
0.0481413
0.0476132
0.0470583
0.0464655
0.0458733
0.0452427
0.0446353
0.0438834
0.0431973
0.0418914
0.040765
0.0369181
0.0336161
0.0490466
0.0490502
0.0486029
0.0481291
0.0475311
0.0469099
0.0462502
0.0455772
0.0448486
0.0441037
0.0431876
0.0422478
0.0407234
0.0392081
0.0356978
0.0326949
0.0493834
0.0493495
0.0487486
0.0481638
0.0474806
0.0467908
0.0460735
0.0453391
0.0445451
0.0437156
0.0427219
0.0416719
0.040151
0.0385985
0.0357202
0.0332054
0.0499662
0.0498083
0.048971
0.0482151
0.0474279
0.0466675
0.0458994
0.0451123
0.0442626
0.0433602
0.0422984
0.0411514
0.0396202
0.0380132
0.035519
0.0332353
0.0510666
0.050454
0.0492464
0.0482493
0.0473632
0.0465525
0.0457655
0.0449568
0.0440849
0.0431501
0.0420658
0.0408837
0.0393878
0.0377923
0.0355845
0.0334566
0.0529489
0.0512143
0.0495692
0.0482292
0.0472728
0.0464235
0.0456313
0.0448185
0.043938
0.0429857
0.0418893
0.0406886
0.039222
0.0376463
0.035626
0.0336087
0.0571549
0.0515804
0.0497429
0.0481769
0.0472297
0.0463953
0.0456253
0.0448352
0.0439797
0.0430489
0.0419758
0.0407962
0.0393589
0.0378004
0.0358197
0.0337909
0.0488542
0.0488645
0.0485518
0.0481975
0.047728
0.0472369
0.0467168
0.0462132
0.0456876
0.0452149
0.0446102
0.0441141
0.04291
0.04186
0.0370591
0.0315991
0.048878
0.0488888
0.0485329
0.0481362
0.0476184
0.0470757
0.0464969
0.0459203
0.0453059
0.0447152
0.0439776
0.0433021
0.0419928
0.0408471
0.0369308
0.0335328
0.0490278
0.0490311
0.048589
0.0481219
0.0475334
0.0469236
0.0462765
0.0456173
0.0449026
0.0441718
0.043267
0.0423354
0.0408066
0.0392765
0.035713
0.0326446
0.0493632
0.049329
0.0487332
0.0481549
0.0474808
0.0468013
0.0460956
0.0453735
0.0445917
0.0437743
0.0427897
0.0417463
0.0402214
0.0386578
0.0357415
0.0331829
0.0499449
0.0497867
0.0489543
0.0482046
0.0474261
0.0466754
0.0459178
0.0451417
0.0443028
0.0434107
0.0423567
0.0412151
0.0396809
0.0380659
0.0355444
0.0332303
0.0510444
0.0504317
0.0492289
0.0482378
0.04736
0.0465588
0.0457818
0.0449833
0.0441212
0.0431957
0.0421183
0.040941
0.039443
0.0378412
0.0356129
0.0334615
0.0529263
0.0511917
0.0495515
0.0482174
0.0472689
0.0464285
0.0456457
0.0448426
0.0439714
0.0430277
0.0419377
0.0407416
0.0392736
0.0376931
0.0356569
0.0336209
0.0571323
0.0515582
0.0497256
0.0481657
0.0472265
0.0464008
0.0456405
0.0448606
0.0440146
0.0430929
0.0420267
0.0408523
0.0394144
0.0378516
0.0358558
0.0338082
0.0488469