/*--------------------------------*- C++ -*----------------------------------*\
| =========                 |                                                 |
| \\      /  F ield         | OpenFOAM: The Open Source CFD Toolbox           |
|  \\    /   O peration     | Version:  v1912                                 |
|   \\  /    A nd           | Website:  www.openfoam.com                      |
|    \\/     M anipulation  |                                                 |
\*---------------------------------------------------------------------------*/
FoamFile
{
    version     2.0;
    format      ascii;
    class       surfaceScalarField;
    location    "0.5/fluid";
    object      phi;
}
// * * * * * * * * * * * * * * * * * * * * * * * * * * * * * * * * * * * * * //

dimensions      [0 3 -1 0 0 0 0];
oriented        oriented;


internalField   nonuniform List<scalar> 
41600
(
5.03643e-05
1.23362e-05
3.59832e-07
-5.60357e-07
4.09608e-05
9.74653e-06
5.10951e-07
-8.53972e-07
3.44618e-05
6.85017e-06
2.99011e-07
-6.50176e-07
3.07776e-05
3.97766e-06
-1.21514e-07
-1.71994e-07
2.87295e-05
2.26015e-06
-6.9506e-07
4.83063e-07
2.7535e-05
1.32614e-06
-1.3967e-06
1.26505e-06
2.66948e-05
8.99065e-07
-2.24926e-06
2.19035e-06
2.59498e-05
7.31464e-07
-3.29672e-06
3.31025e-06
2.51599e-05
6.95342e-07
-4.6064e-06
4.70099e-06
2.42312e-05
7.095e-07
-6.27465e-06
6.49383e-06
2.30844e-05
7.34918e-07
-8.45335e-06
8.86525e-06
2.15694e-05
6.87728e-07
-1.12997e-05
1.2127e-05
1.94507e-05
5.70702e-07
-1.52197e-05
1.67678e-05
1.60803e-05
4.30173e-08
-1.99907e-05
2.3318e-05
1.01418e-05
-4.35644e-07
-2.56984e-05
3.20726e-05
-2.96179e-06
-2.13966e-05
3.45002e-05
6.50459e-05
1.00656e-05
4.5609e-07
-7.31305e-07
6.43227e-05
1.09686e-05
6.391e-07
-1.13809e-06
6.26241e-05
9.10015e-06
3.28635e-07
-8.79996e-07
6.07662e-05
6.3317e-06
-3.23102e-07
-1.72992e-07
5.91476e-05
4.26401e-06
-1.24799e-06
8.62673e-07
5.77719e-05
2.96268e-06
-2.41385e-06
2.15301e-06
5.65038e-05
2.3083e-06
-3.85231e-06
3.71123e-06
5.51884e-05
2.06927e-06
-5.63546e-06
5.61308e-06
5.36862e-05
2.09057e-06
-7.87564e-06
7.98262e-06
5.18405e-05
2.26258e-06
-1.07368e-05
1.10294e-05
4.9477e-05
2.52093e-06
-1.44661e-05
1.50436e-05
4.62306e-05
2.7679e-06
-1.935e-05
2.05163e-05
4.16091e-05
2.97849e-06
-2.59626e-05
2.81763e-05
3.41258e-05
2.78077e-06
-3.40743e-05
3.88199e-05
2.22088e-05
2.29511e-06
-4.29533e-05
5.21396e-05
-7.72935e-07
-3.51587e-05
5.51786e-05
6.62869e-05
6.57047e-06
4.78057e-07
-7.69876e-07
6.85863e-05
9.20713e-06
6.6349e-07
-1.20133e-06
6.95705e-05
8.71815e-06
3.28397e-07
-9.30597e-07
6.95077e-05
6.94386e-06
-3.68682e-07
-1.80687e-07
6.8903e-05
5.30273e-06
-1.36e-06
9.26003e-07
6.80117e-05
4.15448e-06
-2.61704e-06
2.31654e-06
6.69264e-05
3.56357e-06
-4.17493e-06
4.00495e-06
6.56217e-05
3.4143e-06
-6.11237e-06
6.07204e-06
6.40115e-05
3.60011e-06
-8.55062e-06
8.65128e-06
6.19404e-05
4.03327e-06
-1.16702e-05
1.19706e-05
5.91928e-05
4.66006e-06
-1.57375e-05
1.6346e-05
5.53196e-05
5.39843e-06
-2.10806e-05
2.23232e-05
4.96941e-05
6.21843e-06
-2.83033e-05
3.06889e-05
4.05734e-05
6.73833e-06
-3.7238e-05
4.24011e-05
2.61578e-05
6.60817e-06
-4.69963e-05
5.70988e-05
2.87085e-06
-3.8824e-05
6.1338e-05
6.50788e-05
4.28479e-06
4.92139e-07
-7.85278e-07
6.77417e-05
7.08939e-06
6.90849e-07
-1.23603e-06
6.96182e-05
7.45311e-06
3.61365e-07
-9.72761e-07
7.05034e-05
6.61676e-06
-3.29763e-07
-2.28388e-07
7.06574e-05
5.59074e-06
-1.31216e-06
8.70202e-07
7.03016e-05
4.81788e-06
-2.55737e-06
2.2497e-06
6.95749e-05
4.46672e-06
-4.09978e-06
3.92335e-06
6.85076e-05
4.52781e-06
-6.01761e-06
5.9714e-06
6.70522e-05
4.96001e-06
-8.43018e-06
8.52565e-06
6.50671e-05
5.72211e-06
-1.15202e-05
1.18165e-05
6.23251e-05
6.79411e-06
-1.5552e-05
1.61599e-05
5.83369e-05
8.13374e-06
-2.08723e-05
2.21252e-05
5.24016e-05
9.72942e-06
-2.80836e-05
3.05079e-05
4.26729e-05
1.11769e-05
-3.70991e-05
4.23893e-05
2.71775e-05
1.16928e-05
-4.7034e-05
5.74447e-05
6.76052e-06
-3.91353e-05
6.24231e-05
6.41873e-05
2.8887e-06
5.12377e-07
-8.03613e-07
6.65165e-05
5.30457e-06
7.37448e-07
-1.2818e-06
6.8522e-05
6.05792e-06
4.31155e-07
-1.04149e-06
6.98263e-05
5.86892e-06
-2.35166e-07
-3.21275e-07
7.04621e-05
5.39533e-06
-1.18579e-06
7.45396e-07
7.05479e-05
5.03938e-06
-2.38808e-06
2.08076e-06
7.0194e-05
4.99869e-06
-3.87136e-06
3.69332e-06
6.94414e-05
5.33102e-06
-5.70871e-06
5.65811e-06
6.82633e-05
6.05079e-06
-8.01124e-06
8.0986e-06
6.65316e-05
7.17141e-06
-1.09562e-05
1.12385e-05
6.4019e-05
8.72063e-06
-1.47926e-05
1.53787e-05
6.02043e-05
1.07301e-05
-1.98768e-05
2.10952e-05
5.43083e-05
1.32512e-05
-2.67841e-05
2.91582e-05
4.432e-05
1.59335e-05
-3.55463e-05
4.07781e-05
2.79872e-05
1.76763e-05
-4.52919e-05
5.56411e-05
1.14653e-05
-3.80009e-05
6.12833e-05
6.3718e-05
1.95991e-06
5.36579e-07
-8.2584e-07
6.57198e-05
3.84505e-06
7.95717e-07
-1.33793e-06
6.76766e-05
4.70904e-06
5.22549e-07
-1.13054e-06
6.91771e-05
4.92235e-06
-1.09524e-07
-4.44392e-07
7.01226e-05
4.88832e-06
-1.0185e-06
5.80044e-07
7.05489e-05
4.92018e-06
-2.16514e-06
1.85808e-06
7.05267e-05
5.20115e-06
-3.57124e-06
3.39094e-06
7.00911e-05
5.82327e-06
-5.30219e-06
5.24557e-06
6.92234e-05
6.84248e-06
-7.45767e-06
7.53371e-06
6.78034e-05
8.3293e-06
-1.02055e-05
1.04676e-05
6.56033e-05
1.03686e-05
-1.37728e-05
1.43249e-05
6.20692e-05
1.31051e-05
-1.85208e-05
1.968e-05
5.63468e-05
1.66968e-05
-2.49792e-05
2.7256e-05
4.6221e-05
2.09822e-05
-3.33315e-05
3.84086e-05
2.91007e-05
2.46925e-05
-4.27046e-05
5.28087e-05
1.7592e-05
-3.63184e-05
5.92923e-05
6.35154e-05
1.23248e-06
5.6532e-07
-8.53252e-07
6.53344e-05
2.56663e-06
8.64506e-07
-1.40516e-06
6.72561e-05
3.39389e-06
6.3162e-07
-1.23815e-06
6.888e-05
3.85121e-06
4.10242e-08
-5.93804e-07
7.00488e-05
4.15788e-06
-8.18206e-07
3.79876e-07
7.07535e-05
4.52444e-06
-1.89812e-06
1.58911e-06
7.10428e-05
5.09744e-06
-3.21008e-06
3.02452e-06
7.09542e-05
5.9793e-06
-4.80748e-06
4.74e-06
7.04898e-05
7.25114e-06
-6.77203e-06
6.82779e-06
6.95627e-05
9.03303e-06
-9.2509e-06
9.47432e-06
6.79896e-05
1.14622e-05
-1.24289e-05
1.29085e-05
6.52465e-05
1.48336e-05
-1.66431e-05
1.76577e-05
6.04819e-05
1.9465e-05
-2.23133e-05
2.43096e-05
5.10979e-05
2.58424e-05
-2.97737e-05
3.42974e-05
3.37867e-05
3.29784e-05
-3.80265e-05
4.70518e-05
3.00063e-05
-3.28778e-05
5.42502e-05
6.34493e-05
5.96841e-07
-8.84267e-07
5.70617e-07
6.52143e-05
9.3956e-07
-1.47977e-06
1.34187e-06
6.71599e-05
7.50886e-07
-1.35735e-06
2.05471e-06
6.88957e-05
2.05582e-07
-7.58878e-07
2.6687e-06
7.02422e-05
-6.00132e-07
1.6009e-07
3.25146e-06
7.11729e-05
-1.60878e-06
1.2961e-06
3.90642e-06
7.17296e-05
-2.8205e-06
2.62816e-06
4.73304e-06
7.19576e-05
-4.27549e-06
4.19576e-06
5.83099e-06
7.18783e-05
-6.0366e-06
6.07086e-06
7.29619e-06
7.14361e-05
-8.22789e-06
8.41141e-06
9.29172e-06
7.04925e-05
-1.09905e-05
1.1397e-05
1.19993e-05
6.857e-05
-1.46304e-05
1.54994e-05
1.5887e-05
6.48975e-05
-1.94533e-05
2.11721e-05
2.14187e-05
5.66646e-05
-2.59572e-05
2.99296e-05
3.01029e-05
4.03875e-05
-3.3092e-05
4.10691e-05
4.12784e-05
-3.00243e-05
5.00673e-05
5.03507e-05
5.03005e-05
1.23416e-05
2.17751e-07
4.07788e-05
9.76278e-06
2.69882e-07
3.41524e-05
6.86898e-06
5.63905e-08
3.03486e-05
3.99552e-06
-3.13242e-07
2.81834e-05
2.28004e-06
-8.09871e-07
2.68603e-05
1.35203e-06
-1.42559e-06
2.58624e-05
9.3481e-07
-2.18619e-06
2.49136e-05
7.80177e-07
-3.12807e-06
2.38534e-05
7.61491e-07
-4.3077e-06
2.25697e-05
7.98452e-07
-5.78944e-06
2.09516e-05
8.57515e-07
-7.69273e-06
1.88523e-05
8.59511e-07
-1.006e-05
1.59838e-05
8.21763e-07
-1.3173e-05
1.19765e-05
4.38518e-07
-1.64219e-05
5.7981e-06
4.74189e-08
-1.95674e-05
-1.99772e-06
-1.36008e-05
6.49562e-05
1.00788e-05
2.62687e-07
6.40634e-05
1.10012e-05
2.93563e-07
6.21605e-05
9.14442e-06
-4.39107e-08
6.00888e-05
6.38227e-06
-6.3815e-07
5.82498e-05
4.32423e-06
-1.45319e-06
5.66316e-05
3.03964e-06
-2.48331e-06
5.50726e-05
2.41108e-06
-3.7696e-06
5.33866e-05
2.20725e-06
-5.37652e-06
5.1396e-05
2.27592e-06
-7.39951e-06
4.89048e-05
2.50877e-06
-9.95592e-06
4.56829e-05
2.84917e-06
-1.32358e-05
4.13546e-05
3.19736e-06
-1.73595e-05
3.53678e-05
3.54372e-06
-2.26978e-05
2.66999e-05
3.49255e-06
-2.84605e-05
1.42416e-05
3.05043e-06
-3.34981e-05
-4.06909e-08
-2.28741e-05
6.61955e-05
6.58856e-06
2.7282e-07
6.83171e-05
9.25135e-06
2.91682e-07
6.90834e-05
8.78393e-06
-7.74606e-08
6.87878e-05
7.02636e-06
-7.17134e-07
6.79397e-05
5.40547e-06
-1.59318e-06
6.67803e-05
4.28689e-06
-2.70484e-06
6.53749e-05
3.73965e-06
-4.09809e-06
6.36637e-05
3.65062e-06
-5.84457e-06
6.15182e-05
3.91843e-06
-8.04766e-06
5.87374e-05
4.45823e-06
-1.08389e-05
5.50435e-05
5.22734e-06
-1.44217e-05
4.99688e-05
6.13757e-06
-1.89461e-05
4.28238e-05
7.17777e-06
-2.47924e-05
3.23592e-05
7.88993e-06
-3.11708e-05
1.73102e-05
7.81082e-06
-3.67077e-05
3.52745e-06
-2.50819e-05
6.4989e-05
4.30667e-06
2.8508e-07
6.74754e-05
7.14319e-06
3.12522e-07
6.91366e-05
7.53693e-06
-5.27437e-08
6.97925e-05
6.72735e-06
-6.86695e-07
6.97073e-05
5.73233e-06
-1.55383e-06
6.90884e-05
5.0022e-06
-2.65383e-06
6.8048e-05
4.71239e-06
-4.03208e-06
6.65822e-05
4.85881e-06
-5.75995e-06
6.46007e-05
5.40866e-06
-7.93895e-06
6.19147e-05
6.32674e-06
-1.07027e-05
5.82321e-05
7.60981e-06
-1.42518e-05
5.30393e-05
9.20938e-06
-1.87513e-05
4.55633e-05
1.11446e-05
-2.45744e-05
3.44478e-05
1.28884e-05
-3.09821e-05
1.82531e-05
1.35471e-05
-3.65756e-05
7.6346e-06
-2.49893e-05
6.40995e-05
2.91422e-06
3.05348e-07
6.62558e-05
5.36732e-06
3.57027e-07
6.80524e-05
6.1576e-06
1.38089e-08
6.91371e-05
6.00373e-06
-5.96222e-07
6.95464e-05
5.57052e-06
-1.43322e-06
6.93848e-05
5.2689e-06
-2.49319e-06
6.8737e-05
5.30548e-06
-3.81672e-06
6.76114e-05
5.74617e-06
-5.47048e-06
6.594e-05
6.61743e-06
-7.54857e-06
6.35479e-05
7.94337e-06
-1.01806e-05
6.01421e-05
9.77685e-06
-1.35539e-05
5.51697e-05
1.2149e-05
-1.78441e-05
4.77655e-05
1.51647e-05
-2.33999e-05
3.63788e-05
1.83117e-05
-2.95828e-05
1.92412e-05
2.04014e-05
-3.50086e-05
1.27956e-05
-2.39208e-05
6.36322e-05
1.98897e-06
3.29581e-07
6.54658e-05
3.91579e-06
4.13725e-07
6.72218e-05
4.82196e-06
1.02121e-07
6.85146e-05
5.07675e-06
-4.75296e-07
6.92491e-05
5.09057e-06
-1.27307e-06
6.94478e-05
5.18636e-06
-2.28123e-06
6.91572e-05
5.55806e-06
-3.53327e-06
6.83815e-05
6.3087e-06
-5.08898e-06
6.70633e-05
7.51016e-06
-7.03221e-06
6.50367e-05
9.24991e-06
-9.48554e-06
6.20096e-05
1.16482e-05
-1.26171e-05
5.73881e-05
1.48617e-05
-1.66119e-05
5.02201e-05
1.91333e-05
-2.17798e-05
3.87065e-05
2.41142e-05
-2.76204e-05
2.06591e-05
2.85091e-05
-3.2765e-05
1.96088e-05
-2.24726e-05
6.34321e-05
1.26441e-06
3.57809e-07
6.50887e-05
2.64339e-06
4.80233e-07
6.68191e-05
3.51626e-06
2.06907e-07
6.82492e-05
4.0191e-06
-3.31356e-07
6.92256e-05
4.37849e-06
-1.08253e-06
6.97273e-05
4.81528e-06
-2.02875e-06
6.97814e-05
5.48785e-06
-3.19397e-06
6.93984e-05
6.51184e-06
-4.62763e-06
6.85475e-05
7.98718e-06
-6.39809e-06
6.71021e-05
1.00571e-05
-8.6127e-06
6.48244e-05
1.29028e-05
-1.14058e-05
6.11475e-05
1.68507e-05
-1.49553e-05
5.5124e-05
2.23341e-05
-1.94905e-05
4.4469e-05
2.96765e-05
-2.4681e-05
2.61362e-05
3.79474e-05
-2.91319e-05
3.29096e-05
-2.00424e-05
6.33686e-05
3.8821e-07
6.04409e-07
6.49776e-05
5.52088e-07
1.42189e-06
6.67423e-05
3.20638e-07
2.18178e-06
6.82989e-05
-1.7496e-07
2.84309e-06
6.94725e-05
-8.76028e-07
3.48082e-06
7.0226e-05
-1.75599e-06
4.2089e-06
7.05827e-05
-2.82845e-06
5.13912e-06
7.05646e-05
-4.13144e-06
6.38597e-06
7.01661e-05
-5.71696e-06
8.06598e-06
6.92989e-05
-7.67488e-06
1.03713e-05
6.77816e-05
-1.0104e-05
1.35336e-05
6.50936e-05
-1.31699e-05
1.80782e-05
6.03862e-05
-1.70169e-05
2.46052e-05
5.10637e-05
-2.15037e-05
3.45454e-05
3.38019e-05
-2.52611e-05
4.73783e-05
-1.79941e-05
5.46813e-05
5.02503e-05
1.23467e-05
1.20768e-07
4.06323e-05
9.7774e-06
1.10493e-07
3.38948e-05
6.88642e-06
-9.25556e-08
2.99788e-05
4.01247e-06
-4.09679e-07
2.76976e-05
2.29895e-06
-8.27552e-07
2.62437e-05
1.37613e-06
-1.34784e-06
2.5085e-05
9.6733e-07
-1.99487e-06
2.39288e-05
8.23631e-07
-2.79548e-06
2.2593e-05
8.19249e-07
-3.79112e-06
2.09452e-05
8.74099e-07
-5.01575e-06
1.88435e-05
9.57725e-07
-6.54872e-06
1.61525e-05
9.92524e-07
-8.36148e-06
1.26059e-05
9.98142e-07
-1.06246e-05
8.2188e-06
6.83929e-07
-1.27187e-05
2.69093e-06
2.67238e-07
-1.43068e-05
-1.61266e-06
-9.29724e-06
6.4885e-05
1.00918e-05
1.32581e-07
6.3853e-05
1.10321e-05
7.08797e-08
6.17726e-05
9.18696e-06
-2.64025e-07
5.9504e-05
6.43144e-06
-7.88567e-07
5.74524e-05
4.38272e-06
-1.48539e-06
5.55948e-05
3.11351e-06
-2.36308e-06
5.37474e-05
2.50852e-06
-3.4634e-06
5.16962e-05
2.33679e-06
-4.8384e-06
4.9228e-05
2.44857e-06
-6.56071e-06
4.61124e-05
2.73612e-06
-8.70232e-06
4.20754e-05
3.14863e-06
-1.13897e-05
3.67597e-05
3.58193e-06
-1.46332e-05
2.9663e-05
4.03288e-06
-1.86358e-05
2.03627e-05
4.07677e-06
-2.25531e-05
8.73723e-06
3.60697e-06
-2.52123e-05
3.68729e-07
-1.61183e-05
6.61229e-05
6.6068e-06
1.34896e-07
6.80989e-05
9.29446e-06
5.32926e-08
6.86761e-05
8.84793e-06
-3.15671e-07
6.81668e-05
7.10677e-06
-8.83106e-07
6.70853e-05
5.50517e-06
-1.6341e-06
6.56622e-05
4.41424e-06
-2.5825e-06
6.39405e-05
3.90753e-06
-3.77538e-06
6.183e-05
3.87438e-06
-5.2717e-06
5.91634e-05
4.21821e-06
-7.15069e-06
5.57002e-05
4.8561e-06
-9.49563e-06
5.11138e-05
5.75466e-06
-1.24413e-05
4.49501e-05
6.81713e-06
-1.60177e-05
3.65693e-05
8.04555e-06
-2.04242e-05
2.536e-05
8.90863e-06
-2.47933e-05
1.11343e-05
8.84964e-06
-2.77247e-05
4.08338e-06
-1.76623e-05
6.4918e-05
4.32879e-06
1.45107e-07
6.72604e-05
7.196e-06
6.86127e-08
6.87349e-05
7.61859e-06
-2.97924e-07
6.91805e-05
6.83474e-06
-8.60261e-07
6.88657e-05
5.86911e-06
-1.60304e-06
6.79879e-05
5.17904e-06
-2.54079e-06
6.66369e-05
4.94662e-06
-3.7202e-06
6.47787e-05
5.17273e-06
-5.20011e-06
6.22837e-05
5.83244e-06
-7.05813e-06
5.89213e-05
6.89522e-06
-9.37948e-06
5.43472e-05
8.37279e-06
-1.22959e-05
4.80547e-05
1.02074e-05
-1.5849e-05
3.93101e-05
1.2445e-05
-2.02293e-05
2.73976e-05
1.44439e-05
-2.46049e-05
1.19761e-05
1.52374e-05
-2.75419e-05
8.56204e-06
-1.74919e-05
6.40305e-05
2.93972e-06
1.63933e-07
6.60461e-05
5.42862e-06
1.0873e-07
6.76623e-05
6.25422e-06
-2.3802e-07
6.85456e-05
6.13383e-06
-7.78608e-07
6.8737e-05
5.73884e-06
-1.49431e-06
6.8331e-05
5.48841e-06
-2.3966e-06
6.73912e-05
5.59765e-06
-3.52792e-06
6.58966e-05
6.14012e-06
-4.94322e-06
6.37407e-05
7.15364e-06
-6.71393e-06
6.07066e-05
8.67137e-06
-8.92266e-06
5.64467e-05
1.07693e-05
-1.16905e-05
5.04058e-05
1.34741e-05
-1.50699e-05
4.17434e-05
1.69395e-05
-1.9232e-05
2.95277e-05
2.05039e-05
-2.34272e-05
1.30579e-05
2.29389e-05
-2.62401e-05
1.43203e-05
-1.66211e-05
6.35652e-05
2.01754e-06
1.86525e-07
6.52627e-05
3.98426e-06
1.60661e-07
6.68459e-05
4.93062e-06
-1.57532e-07
6.79484e-05
5.22478e-06
-6.68677e-07
6.84795e-05
5.28392e-06
-1.34933e-06
6.84524e-05
5.44013e-06
-2.2058e-06
6.78936e-05
5.89751e-06
-3.27436e-06
6.67796e-05
6.7694e-06
-4.60423e-06
6.50165e-05
8.14287e-06
-6.25837e-06
6.23967e-05
1.01204e-05
-8.31469e-06
5.85727e-05
1.28556e-05
-1.08794e-05
5.29389e-05
1.65118e-05
-1.40159e-05
4.45533e-05
2.14123e-05
-1.7867e-05
3.21982e-05
2.70372e-05
-2.17985e-05
1.468e-05
3.21189e-05
-2.44269e-05
2.20142e-05
-1.54866e-05
6.33675e-05
1.29529e-06
2.12564e-07
6.48936e-05
2.71696e-06
2.21398e-07
6.64603e-05
3.6331e-06
-6.22757e-08
6.7713e-05
4.17909e-06
-5.38295e-07
6.85034e-05
4.5885e-06
-1.17756e-06
6.88025e-05
5.09187e-06
-1.97954e-06
6.86195e-05
5.85888e-06
-2.97237e-06
6.79406e-05
7.01763e-06
-4.19699e-06
6.67034e-05
8.68624e-06
-5.7042e-06
6.47438e-05
1.10291e-05
-7.56184e-06
6.17754e-05
1.42699e-05
-9.85182e-06
5.72121e-05
1.87605e-05
-1.26406e-05
5.01072e-05
2.50458e-05
-1.60191e-05
3.86672e-05
3.32996e-05
-1.95034e-05
2.06703e-05
4.27262e-05
-2.17422e-05
3.64659e-05
-1.38238e-05
6.33066e-05
2.40301e-07
6.36569e-07
6.47912e-05
2.86639e-07
1.49783e-06
6.64021e-05
4.06808e-08
2.3022e-06
6.7795e-05
-3.97159e-07
3.00837e-06
6.88011e-05
-9.91939e-07
3.69831e-06
6.93767e-05
-1.73557e-06
4.49587e-06
6.95298e-05
-2.64736e-06
5.52469e-06
6.92618e-05
-3.75911e-06
6.91325e-06
6.85415e-05
-5.10867e-06
8.79826e-06
6.72489e-05
-6.75207e-06
1.13989e-05
6.51638e-05
-8.74544e-06
1.49964e-05
6.17431e-05
-1.11549e-05
2.01661e-05
5.61413e-05
-1.40165e-05
2.76472e-05
4.61505e-05
-1.70126e-05
3.87992e-05
2.91321e-05
-1.88746e-05
5.33581e-05
-1.24047e-05
6.00085e-05
5.02115e-05
1.23513e-05
5.79398e-08
4.05168e-05
9.79033e-06
1.49148e-08
3.36874e-05
6.90212e-06
-1.65345e-07
2.96761e-05
4.02824e-06
-4.26625e-07
2.72964e-05
2.31677e-06
-7.64575e-07
2.57351e-05
1.39893e-06
-1.18554e-06
2.44525e-05
9.98284e-07
-1.71054e-06
2.31499e-05
8.65655e-07
-2.35849e-06
2.16405e-05
8.76519e-07
-3.15821e-06
1.97964e-05
9.52133e-07
-4.12388e-06
1.74852e-05
1.06642e-06
-5.30387e-06
1.46157e-05
1.14779e-06
-6.63979e-06
1.09887e-05
1.22458e-06
-8.22226e-06
6.76404e-06
1.03339e-06
-9.52739e-06
1.949e-06
7.25363e-07
-1.02171e-05
-1.0048e-06
-6.34344e-06
6.48291e-05
1.01038e-05
5.09735e-08
6.36853e-05
1.106e-05
-5.49927e-08
6.14575e-05
9.22561e-06
-3.59754e-07
5.90215e-05
6.47661e-06
-8.00908e-07
5.6788e-05
4.4365e-06
-1.37156e-06
5.47291e-05
3.18114e-06
-2.08644e-06
5.26498e-05
2.59738e-06
-2.98317e-06
5.03237e-05
2.45487e-06
-4.10154e-06
4.75266e-05
2.60652e-06
-5.49359e-06
4.4029e-05
2.94609e-06
-7.19874e-06
3.95695e-05
3.42974e-06
-9.29353e-06
3.38617e-05
3.95468e-06
-1.17323e-05
2.6523e-05
4.53077e-06
-1.46032e-05
1.74408e-05
4.72863e-06
-1.71661e-05
6.96951e-06
4.37516e-06
-1.83908e-05
1.08278e-06
-1.12364e-05
6.60661e-05
6.62384e-06
4.88116e-08
6.79249e-05
9.33398e-06
-7.95308e-08
6.83451e-05
8.90641e-06
-4.16689e-07
6.76539e-05
7.18032e-06
-8.95627e-07
6.63723e-05
5.59604e-06
-1.51203e-06
6.47269e-05
4.52957e-06
-2.28549e-06
6.2749e-05
4.05851e-06
-3.25865e-06
6.03351e-05
4.07445e-06
-4.47734e-06
5.73046e-05
4.48514e-06
-5.99886e-06
5.34166e-05
5.20959e-06
-7.8711e-06
4.83571e-05
6.22331e-06
-1.01753e-05
4.17469e-05
7.42529e-06
-1.28781e-05
3.30778e-05
8.83335e-06
-1.60577e-05
2.20843e-05
9.87176e-06
-1.8943e-05
9.11054e-06
9.92604e-06
-2.03018e-05
4.85361e-06
-1.23226e-05
6.48626e-05
4.34947e-06
5.69024e-08
6.70893e-05
7.24457e-06
-6.87153e-08
6.84091e-05
7.69319e-06
-4.0452e-07
6.86759e-05
6.93252e-06
-8.79219e-07
6.81645e-05
5.99299e-06
-1.48859e-06
6.70683e-05
5.338e-06
-2.25303e-06
6.54662e-05
5.1554e-06
-3.21495e-06
6.33106e-05
5.45014e-06
-4.42019e-06
6.04588e-05
6.20359e-06
-5.9248e-06
5.6679e-05
7.38834e-06
-7.77844e-06
5.16383e-05
9.02783e-06
-1.00596e-05
4.49027e-05
1.10558e-05
-1.27441e-05
3.58679e-05
1.35397e-05
-1.59008e-05
2.41629e-05
1.57554e-05
-1.87834e-05
9.98542e-06
1.66882e-05
-2.01266e-05
9.49617e-06
-1.2149e-05
6.39768e-05
2.9634e-06
7.31683e-08
6.58801e-05
5.4848e-06
-3.47298e-08
6.73469e-05
6.34214e-06
-3.53804e-07
6.80591e-05
6.25164e-06
-8.09953e-07
6.80639e-05
5.89037e-06
-1.39642e-06
6.7452e-05
5.68446e-06
-2.13119e-06
6.62765e-05
5.85617e-06
-3.05319e-06
6.45037e-05
6.48493e-06
-4.20525e-06
6.20148e-05
7.61711e-06
-5.63858e-06
5.85909e-05
9.29092e-06
-7.40134e-06
5.38944e-05
1.15981e-05
-9.56427e-06
4.74372e-05
1.45555e-05
-1.21124e-05
3.84983e-05
1.83478e-05
-1.51012e-05
2.6476e-05
2.21975e-05
-1.7847e-05
1.11849e-05
2.48421e-05
-1.9103e-05
1.55325e-05
-1.14726e-05
6.35134e-05
2.04378e-06
9.27839e-08
6.51024e-05
4.04658e-06
9.8457e-09
6.6543e-05
5.02896e-06
-2.84936e-07
6.74839e-05
5.35811e-06
-7.16072e-07
6.78409e-05
5.45703e-06
-1.27299e-06
6.76235e-05
5.6655e-06
-1.96945e-06
6.68488e-05
6.19591e-06
-2.83936e-06
6.54813e-05
7.16922e-06
-3.92101e-06
6.34158e-05
8.68329e-06
-5.25909e-06
6.04424e-05
1.08485e-05
-6.89881e-06
5.62222e-05
1.3839e-05
-8.90006e-06
5.02097e-05
1.78107e-05
-1.12585e-05
4.15712e-05
2.31296e-05
-1.40103e-05
2.93969e-05
2.91348e-05
-1.65614e-05
1.29646e-05
3.45486e-05
-1.77011e-05
2.36211e-05
-1.06106e-05
6.33177e-05
1.32333e-06
1.15265e-07
6.47404e-05
2.78345e-06
6.19294e-08
6.61723e-05
3.7383e-06
-2.03528e-07
6.72745e-05
4.3225e-06
-6.0495e-07
6.79055e-05
4.77565e-06
-1.12713e-06
6.80333e-05
5.33637e-06
-1.77826e-06
6.76591e-05
6.1834e-06
-2.58567e-06
6.6759e-05
7.45373e-06
-3.58139e-06
6.52612e-05
9.2779e-06
-4.80102e-06
6.30003e-05
1.18312e-05
-6.28357e-06
5.96985e-05
1.53614e-05
-8.07244e-06
5.48209e-05
2.02185e-05
-1.01708e-05
4.75151e-05
2.69995e-05
-1.25831e-05
3.62529e-05
3.57277e-05
-1.48342e-05
1.91995e-05
4.56261e-05
-1.57664e-05
3.84682e-05
-9.47143e-06
6.32591e-05
1.39056e-07
6.65443e-07
6.46455e-05
1.17694e-07
1.56599e-06
6.61302e-05
-1.15745e-07
2.41007e-06
6.73846e-05
-4.84909e-07
3.15586e-06
6.82467e-05
-9.69761e-07
3.89134e-06
6.86712e-05
-1.5723e-06
4.74857e-06
6.86595e-05
-2.31274e-06
5.8605e-06
6.82048e-05
-3.21611e-06
7.36545e-06
6.7269e-05
-4.30835e-06
9.41333e-06
6.57321e-05
-5.62099e-06
1.2237e-05
6.3384e-05
-7.17986e-06
1.61439e-05
5.97244e-05
-8.99341e-06
2.17167e-05
5.39916e-05
-1.10342e-05
2.975e-05
4.41949e-05
-1.29585e-05
4.14703e-05
2.79984e-05
-1.37068e-05
5.66549e-05
-8.50166e-06
6.25636e-05
5.01812e-05
1.23552e-05
2.15711e-08
4.04259e-05
9.80094e-06
-3.08046e-08
3.35221e-05
6.91512e-06
-1.76631e-07
2.94313e-05
4.04139e-06
-3.77205e-07
2.69675e-05
2.33154e-06
-6.32353e-07
2.53138e-05
1.41754e-06
-9.49401e-07
2.39246e-05
1.02318e-06
-1.34451e-06
2.24971e-05
8.98895e-07
-1.82981e-06
2.08414e-05
9.20922e-07
-2.42347e-06
1.88346e-05
1.01117e-06
-3.12826e-06
1.63554e-05
1.14626e-06
-3.9709e-06
1.33505e-05
1.25801e-06
-4.89291e-06
9.68841e-06
1.37937e-06
-5.93956e-06
5.63676e-06
1.26138e-06
-6.73712e-06
1.41724e-06
1.00676e-06
-7.00434e-06
-6.75646e-07
-4.25055e-06
6.47852e-05
1.01141e-05
6.89653e-09
6.35528e-05
1.10836e-05
-1.05292e-07
6.12056e-05
9.25836e-06
-3.55757e-07
5.86306e-05
6.51506e-06
-6.9961e-07
5.62435e-05
4.4822e-06
-1.13505e-06
5.40134e-05
3.23831e-06
-1.67713e-06
5.17373e-05
2.67198e-06
-2.35585e-06
4.91805e-05
2.55332e-06
-3.19916e-06
4.6112e-05
2.73723e-06
-4.24141e-06
4.23071e-05
3.11833e-06
-5.50098e-06
3.7522e-05
3.65781e-06
-7.02001e-06
3.15349e-05
4.25283e-06
-8.73998e-06
2.40793e-05
4.92206e-06
-1.06904e-05
1.52727e-05
5.22735e-06
-1.23255e-05
5.78926e-06
4.94592e-06
-1.28465e-05
1.55785e-06
-7.68063e-06
6.60214e-05
6.63858e-06
2.9452e-09
6.77874e-05
9.3678e-06
-1.29802e-07
6.80803e-05
8.95642e-06
-4.07647e-07
6.72384e-05
7.24327e-06
-7.81928e-07
6.57881e-05
5.67368e-06
-1.25319e-06
6.39537e-05
4.6277e-06
-1.84046e-06
6.17586e-05
4.18637e-06
-2.57794e-06
5.90899e-05
4.24308e-06
-3.49837e-06
5.57592e-05
4.70897e-06
-4.63996e-06
5.15293e-05
5.50427e-06
-6.0271e-06
4.61049e-05
6.61117e-06
-7.70432e-06
3.91757e-05
7.92415e-06
-9.6203e-06
3.03613e-05
9.47243e-06
-1.17936e-05
1.9654e-05
1.06424e-05
-1.36508e-05
7.75806e-06
1.0776e-05
-1.42359e-05
5.43805e-06
-8.4447e-06
6.48191e-05
4.36746e-06
8.93014e-09
6.69544e-05
7.28638e-06
-1.22575e-07
6.81489e-05
7.7572e-06
-3.99785e-07
6.82674e-05
7.01631e-06
-7.7082e-07
6.75902e-05
6.0989e-06
-1.23659e-06
6.63083e-05
5.47344e-06
-1.81686e-06
6.44928e-05
5.33261e-06
-2.54572e-06
6.20871e-05
5.68464e-06
-3.45601e-06
5.89403e-05
6.51599e-06
-4.58507e-06
5.48236e-05
7.80127e-06
-5.9587e-06
4.94216e-05
9.57289e-06
-7.61939e-06
4.23675e-05
1.17566e-05
-9.52243e-06
3.31831e-05
1.44353e-05
-1.16793e-05
2.17565e-05
1.6819e-05
-1.35334e-05
8.65228e-06
1.78562e-05
-1.41025e-05
1.02545e-05
-8.31321e-06
6.39349e-05
2.98397e-06
2.18023e-08
6.57494e-05
5.53317e-06
-9.60313e-08
6.70954e-05
6.41756e-06
-3.60198e-07
6.76659e-05
6.3525e-06
-7.16673e-07
6.75132e-05
6.01982e-06
-1.16459e-06
6.67259e-05
5.85147e-06
-1.72193e-06
6.53498e-05
6.07569e-06
-2.42018e-06
6.33425e-05
6.77668e-06
-3.28997e-06
6.05773e-05
8.00771e-06
-4.36519e-06
5.68376e-05
9.81055e-06
-5.6709e-06
5.18015e-05
1.22891e-05
-7.2443e-06
4.50432e-05
1.54506e-05
-9.04823e-06
3.59604e-05
1.95022e-05
-1.10852e-05
2.42007e-05
2.35757e-05
-1.28441e-05
9.93276e-06
2.63804e-05
-1.33593e-05
1.65455e-05
-7.83076e-06
6.34729e-05
2.06647e-06
3.7386e-08
6.49767e-05
4.10013e-06
-6.08715e-08
6.63021e-05
5.11317e-06
-3.05988e-07
6.71094e-05
5.47205e-06
-6.42881e-07
6.73193e-05
5.6047e-06
-1.06781e-06
6.69396e-05
5.85729e-06
-1.59559e-06
6.59806e-05
6.44919e-06
-2.25387e-06
6.43989e-05
7.50749e-06
-3.07003e-06
6.2082e-05
9.13881e-06
-4.07327e-06
5.88214e-05
1.14593e-05
-5.28695e-06
5.42924e-05
1.4659e-05
-6.74101e-06
4.80057e-05
1.88858e-05
-8.40702e-06
3.92366e-05
2.45365e-05
-1.02756e-05
2.73092e-05
3.08414e-05
-1.18997e-05
1.18266e-05
3.65096e-05
-1.23477e-05
2.49807e-05
-7.21925e-06
6.32791e-05
1.34743e-06
5.51878e-08
6.46206e-05
2.84037e-06
-1.97991e-08
6.5944e-05
3.82813e-06
-2.41937e-07
6.6922e-05
4.44481e-06
-5.5565e-07
6.74182e-05
4.93506e-06
-9.53676e-07
6.73995e-05
5.54428e-06
-1.44661e-06
6.68615e-05
6.45876e-06
-2.05724e-06
6.57733e-05
7.82279e-06
-2.80848e-06
6.40574e-05
9.77697e-06
-3.72324e-06
6.15497e-05
1.25048e-05
-4.82136e-06
5.79858e-05
1.62727e-05
-6.12227e-06
5.28788e-05
2.14273e-05
-7.60518e-06
4.54726e-05
2.86025e-05
-9.24289e-06
3.44444e-05
3.77075e-05
-1.06721e-05
1.82304e-05
4.79719e-05
-1.10147e-05
4.02007e-05
-6.46106e-06
6.32224e-05
7.39508e-08
6.90108e-07
6.45323e-05
2.40933e-08
1.6241e-06
6.59157e-05
-1.7296e-07
2.50193e-06
6.70558e-05
-4.61533e-07
3.28138e-06
6.77962e-05
-8.30659e-07
4.05549e-06
6.80912e-05
-1.28624e-06
4.96321e-06
6.79377e-05
-1.84575e-06
6.14531e-06
6.73235e-05
-2.52716e-06
7.74811e-06
6.62065e-05
-3.34666e-06
9.93226e-06
6.44687e-05
-4.31963e-06
1.29412e-05
6.19135e-05
-5.45435e-06
1.71023e-05
5.80815e-05
-6.73631e-06
2.30022e-05
5.22953e-05
-8.12087e-06
3.14753e-05
4.27338e-05
-9.33713e-06
4.36476e-05
2.72728e-05
-9.59619e-06
5.93223e-05
-5.81488e-06
6.47867e-05
5.01592e-05
1.23582e-05
4.10326e-09
4.03597e-05
9.80921e-06
-4.05457e-08
3.34006e-05
6.92531e-06
-1.42809e-07
2.92506e-05
4.05189e-06
-2.79066e-07
2.67249e-05
2.34344e-06
-4.50103e-07
2.5005e-05
1.43268e-06
-6.62176e-07
2.3543e-05
1.04361e-06
-9.26134e-07
2.20357e-05
9.26561e-07
-1.24907e-06
2.02951e-05
9.58539e-07
-1.6414e-06
1.82058e-05
1.06229e-06
-2.10128e-06
1.56599e-05
1.21688e-06
-2.64183e-06
1.2628e-05
1.35702e-06
-3.218e-06
9.01806e-06
1.51976e-06
-3.84942e-06
5.11696e-06
1.46313e-06
-4.29915e-06
1.22378e-06
1.26019e-06
-4.37134e-06
-4.13651e-07
-2.61312e-06
6.47532e-05
1.01222e-05
-1.02643e-08
6.34556e-05
1.11021e-05
-1.00544e-07
6.10192e-05
9.28407e-06
-2.7814e-07
5.834e-05
6.54539e-06
-5.13931e-07
5.58381e-05
4.51829e-06
-8.08011e-07
5.34826e-05
3.28343e-06
-1.17229e-06
5.1067e-05
2.73082e-06
-1.62747e-06
4.83546e-05
2.63101e-06
-2.19119e-06
4.51151e-05
2.84054e-06
-2.88395e-06
4.1134e-05
3.25493e-06
-3.71256e-06
3.6189e-05
3.83945e-06
-4.6975e-06
3.01034e-05
4.49173e-06
-5.78911e-06
2.26854e-05
5.23749e-06
-6.99011e-06
1.41382e-05
5.63069e-06
-7.94583e-06
5.25554e-06
5.4153e-06
-8.11901e-06
1.93933e-06
-4.77808e-06
6.59888e-05
6.65026e-06
-1.39324e-08
6.76864e-05
9.39445e-06
-1.19768e-07
6.78843e-05
8.99576e-06
-3.17187e-07
6.69292e-05
7.29281e-06
-5.74243e-07
6.53526e-05
5.73466e-06
-8.92979e-07
6.3379e-05
4.70452e-06
-1.28802e-06
6.1029e-05
4.28606e-06
-1.7831e-06
5.81868e-05
4.37402e-06
-2.39917e-06
5.46645e-05
4.88209e-06
-3.15925e-06
5.02349e-05
5.73136e-06
-4.07396e-06
4.46259e-05
6.90903e-06
-5.16487e-06
3.7577e-05
8.30645e-06
-6.3861e-06
2.87911e-05
9.96139e-06
-7.73162e-06
1.83639e-05
1.12332e-05
-8.82614e-06
7.13618e-06
1.14332e-05
-9.02606e-06
5.8959e-06
-5.26509e-06
6.47875e-05
4.38174e-06
-1.00235e-08
6.68553e-05
7.31938e-06
-1.15371e-07
6.79563e-05
7.80757e-06
-3.12575e-07
6.79636e-05
7.08212e-06
-5.67429e-07
6.71623e-05
6.1818e-06
-8.82421e-07
6.57437e-05
5.57895e-06
-1.27268e-06
6.37761e-05
5.46985e-06
-1.76196e-06
6.12004e-05
5.86507e-06
-2.37128e-06
5.78659e-05
6.75461e-06
-3.12315e-06
5.35536e-05
8.11419e-06
-4.02916e-06
4.79705e-05
9.98226e-06
-5.10957e-06
4.0799e-05
1.22783e-05
-6.32274e-06
3.16433e-05
1.50956e-05
-7.65784e-06
2.04943e-05
1.75988e-05
-8.74997e-06
8.05362e-06
1.87091e-05
-8.93771e-06
1.08141e-05
-5.17776e-06
6.39044e-05
3.00027e-06
-1.12222e-09
6.56536e-05
5.57131e-06
-9.71813e-08
6.69096e-05
6.47683e-06
-2.85464e-07
6.73738e-05
6.43154e-06
-5.30306e-07
6.71033e-05
6.12084e-06
-8.33082e-07
6.6187e-05
5.98105e-06
-1.20775e-06
6.46682e-05
6.24484e-06
-1.67632e-06
6.25021e-05
6.99963e-06
-2.25841e-06
5.95625e-05
8.30329e-06
-2.97429e-06
5.56418e-05
1.01993e-05
-3.83529e-06
5.04392e-05
1.27989e-05
-4.85841e-06
4.35751e-05
1.61014e-05
-6.00724e-06
3.45245e-05
2.03268e-05
-7.26571e-06
2.30312e-05
2.4546e-05
-8.29794e-06
9.39206e-06
2.74442e-05
-8.45528e-06
1.72439e-05
-4.86854e-06
6.34436e-05
2.08437e-06
9.6728e-09
6.48847e-05
4.14225e-06
-7.29271e-08
6.61245e-05
5.1792e-06
-2.48105e-07
6.68315e-05
5.56111e-06
-4.795e-07
6.69315e-05
5.71959e-06
-7.66567e-07
6.64325e-05
6.00558e-06
-1.12113e-06
6.53427e-05
6.64347e-06
-1.56267e-06
6.36165e-05
7.76443e-06
-2.10865e-06
6.11422e-05
9.48068e-06
-2.77638e-06
5.77198e-05
1.1911e-05
-3.57627e-06
5.30441e-05
1.52546e-05
-4.52096e-06
4.66677e-05
1.96508e-05
-5.58008e-06
3.79371e-05
2.55127e-05
-6.73098e-06
2.62635e-05
3.19983e-05
-7.67842e-06
1.13611e-05
3.77986e-05
-7.79968e-06
2.58621e-05
-4.47643e-06
6.32512e-05
1.36637e-06
2.19899e-08
6.45332e-05
2.88501e-06
-4.45896e-08
6.57761e-05
3.89842e-06
-2.03973e-07
6.66608e-05
4.54019e-06
-4.19493e-07
6.70562e-05
5.05878e-06
-6.88224e-07
6.69298e-05
5.70459e-06
-1.01919e-06
6.62753e-05
6.66929e-06
-1.42863e-06
6.50606e-05
8.10188e-06
-1.93119e-06
6.3209e-05
1.01492e-05
-2.54026e-06
6.05645e-05
1.29986e-05
-3.26442e-06
5.68804e-05
1.69267e-05
-4.11027e-06
5.17065e-05
2.22729e-05
-5.05331e-06
4.43493e-05
2.96888e-05
-6.06173e-06
3.35606e-05
3.90077e-05
-6.89285e-06
1.78627e-05
4.94472e-05
-6.96535e-06
4.12775e-05
-4.01381e-06
6.3196e-05
3.49424e-08
7.0939e-07
6.44499e-05
-1.43363e-08
1.66955e-06
6.57582e-05
-1.56479e-07
2.57362e-06
6.68126e-05
-3.54786e-07
3.37904e-06
6.74619e-05
-6.03824e-07
4.18262e-06
6.76614e-05
-9.09474e-07
5.12834e-06
6.74069e-05
-1.28444e-06
6.36246e-06
6.66854e-05
-1.74024e-06
8.03643e-06
6.54567e-05
-2.28607e-06
1.03174e-05
6.36099e-05
-2.92807e-06
1.34538e-05
6.09655e-05
-3.66642e-06
1.77832e-05
5.70954e-05
-4.48168e-06
2.38883e-05
5.13765e-05
-5.33352e-06
3.26204e-05
4.20469e-05
-6.03705e-06
4.50372e-05
2.70393e-05
-6.07653e-06
6.09351e-05
-3.61718e-06
6.61191e-05
5.01446e-05
1.23603e-05