/*--------------------------------*- C++ -*----------------------------------*\
| =========                 |                                                 |
| \\      /  F ield         | OpenFOAM: The Open Source CFD Toolbox           |
|  \\    /   O peration     | Version:  v1912                                 |
|   \\  /    A nd           | Website:  www.openfoam.com                      |
|    \\/     M anipulation  |                                                 |
\*---------------------------------------------------------------------------*/
FoamFile
{
    version     2.0;
    format      ascii;
    class       volScalarField;
    location    "0.5/fluid";
    object      T;
}
// * * * * * * * * * * * * * * * * * * * * * * * * * * * * * * * * * * * * * //

dimensions      [0 0 0 1 0 0 0];


internalField   nonuniform List<scalar> 
14592
(
273.22
273.671
274.147
274.659
275.215
275.827
276.505
277.262
278.111
279.066
280.143
281.362
282.747
284.335
286.192
288.489
273.218
273.666
274.139
274.646
275.199
275.806
276.48
277.232
278.075
279.024
280.095
281.308
282.689
284.274
286.128
288.395
273.216
273.658
274.125
274.627
275.172
275.772
276.437
277.179
278.012
278.949
280.008
281.209
282.581
284.163
286.021
288.304
273.213
273.648
274.108
274.601
275.137
275.727
276.38
277.108
277.925
278.844
279.884
281.067
282.423
283.996
285.863
288.184
273.209
273.636
274.087
274.571
275.095
275.672
276.309
277.02
277.816
278.711
279.725
280.879
282.209
283.763
285.633
288.004
273.204
273.623
274.063
274.535
275.047
275.608
276.227
276.916
277.686
278.552
279.53
280.644
281.93
283.445
285.297
287.716
273.199
273.607
274.037
274.496
274.993
275.537
276.136
276.8
277.54
278.368
279.301
280.361
281.582
283.023
284.804
287.215
273.194
273.591
274.009
274.455
274.937
275.462
276.038
276.675
277.381
278.167
279.047
280.038
281.168
282.487
284.097
286.28
273.226
273.689
274.18
274.707
275.282
275.916
276.621
277.412
278.303
279.31
280.452
281.752
283.239
284.954
286.963
289.392
273.224
273.684
274.171
274.694
275.265
275.894
276.595
277.381
278.265
279.266
280.402
281.696
283.18
284.893
286.902
289.318
273.222
273.676
274.157
274.674
275.237
275.859
276.551
277.326
278.199
279.188
280.311
281.594
283.069
284.781
286.798
289.239
273.219
273.666
274.139
274.647
275.201
275.812
276.491
277.252
278.109
279.079
280.183
281.447
282.906
284.612
286.644
289.132
273.215
273.654
274.117
274.615
275.157
275.754
276.417
277.159
277.994
278.939
280.015
281.25
282.683
284.373
286.416
288.968
273.21
273.639
274.093
274.579
275.107
275.688
276.332
277.051
277.859
278.771
279.81
281.002
282.391
284.043
286.075
288.695
273.205
273.624
274.065
274.538
275.051
275.614
276.236
276.929
277.704
278.578
279.569
280.703
282.022
283.596
285.561
288.196
273.199
273.607
274.036
274.495
274.992
275.535
276.134
276.797
277.537
278.365
279.298
280.357
281.578
283.019
284.801
287.213
273.232
273.707
274.21
274.752
275.344
275.998
276.728
277.549
278.476
279.528
280.723
282.085
283.642
285.427
287.481
289.857
273.23
273.701
274.201
274.738
275.326
275.976
276.701
277.517
278.438
279.483
280.672
282.029
283.582
285.366
287.423
289.792
273.227
273.693
274.186
274.717
275.298
275.939
276.656
277.46
278.37
279.402
280.578
281.924
283.469
285.253
287.322
289.719
273.224
273.683
274.168
274.69
275.26
275.891
276.594
277.383
278.275
279.289
280.445
281.771
283.302
285.083
287.169
289.617
273.22
273.67
274.145
274.657
275.215
275.831
276.517
277.287
278.157
279.144
280.271
281.568
283.073
284.839
286.94
289.459
273.215
273.655
274.12
274.619
275.163
275.762
276.428
277.174
278.015
278.969
280.057
281.31
282.77
284.5
286.596
289.191
273.21
273.639
274.092
274.577
275.105
275.685
276.329
277.047
277.854
278.767
279.805
280.997
282.385
284.038
286.071
288.693
273.204
273.622
274.062
274.533
275.044
275.603
276.222
276.91
277.679
278.544
279.521
280.635
281.921
283.437
285.289
287.711
273.237
273.722
274.237
274.791
275.398
276.071
276.822
277.669
278.626
279.713
280.949
282.356
283.955
285.771
287.82
290.109
273.235
273.717
274.227
274.778
275.381
276.048
276.795
277.635
278.587
279.667
280.897
282.298
283.895
285.71
287.763
290.049
273.232
273.708
274.212
274.756
275.351
276.011
276.748
277.577
278.517
279.584
280.801
282.191
283.78
285.597
287.663
289.978
273.229
273.697
274.193
274.728
275.313
275.96
276.684
277.498
278.42
279.468
280.664
282.035
283.61
285.425
287.51
289.879
273.224
273.684
274.171
274.694
275.266
275.899
276.605
277.399
278.297
279.318
280.485
281.826
283.376
285.178
287.281
289.722
273.219
273.669
274.144
274.655
275.212
275.828
276.513
277.282
278.151
279.138
280.265
281.561
283.066
284.833
286.935
289.455
273.214
273.652
274.115
274.612
275.153
275.748
276.41
277.151
277.985
278.929
280.004
281.238
282.671
284.361
286.405
288.961
273.208
273.635
274.084
274.566
275.089
275.664
276.3
277.009
277.803
278.697
279.71
280.864
282.192
283.748
285.619
287.994
273.241
273.735
274.259
274.825
275.444
276.132
276.901
277.768
278.749
279.863
281.129
282.565
284.188
286.012
288.04
290.256
273.239
273.729
274.25
274.811
275.426
276.109
276.873
277.734
278.709
279.816
281.076
282.506
284.127
285.952
287.984
290.198
273.236
273.721
274.235
274.789
275.396
276.07
276.824
277.674
278.637
279.732
280.978
282.397
284.011
285.838
287.884
290.128
273.233
273.71
274.215
274.76
275.357
276.019
276.759
277.593
278.538
279.613
280.838
282.239
283.839
285.665
287.732
290.029
273.228
273.696
274.192
274.725
275.309
275.956
276.678
277.492
278.412
279.46
280.656
282.026
283.601
285.416
287.502
289.873
273.223
273.681
274.165
274.685
275.254
275.883
276.584
277.372
278.263
279.274
280.43
281.755
283.286
285.067
287.155
289.608
273.218
273.664
274.135
274.641
275.193
275.801
276.478
277.237
278.092
279.06
280.163
281.425
282.885
284.591
286.625
289.119
273.212
273.645
274.103
274.594
275.128
275.715
276.365
277.091
277.905
278.823
279.861
281.043
282.398
283.972
285.84
288.167
273.244
273.745
274.277
274.851
275.48
276.179
276.961
277.843
278.843
279.976
281.262
282.716
284.351
286.175
288.18
290.344
273.242
273.74
274.267
274.837
275.462
276.155
276.932
277.809
278.802
279.928
281.208
282.657
284.29
286.115
288.125
290.287
273.24
273.731
274.252
274.814
275.431
276.116
276.883
277.749
278.729
279.842
281.109
282.547
284.174
286.001
288.025
290.218
273.236
273.719
274.232
274.785
275.391
276.064
276.817
277.666
278.628
279.721
280.967
282.386
284
285.826
287.873
290.119
273.231
273.706
274.208
274.75
275.343
276
276.735
277.562
278.5
279.566
280.781
282.17
283.759
285.576
287.643
289.963
273.226
273.69
274.181
274.709
275.287
275.925
276.639
277.441
278.347
279.378
280.552
281.896
283.441
285.225
287.295
289.699
273.221
273.673
274.15
274.664
275.224
275.842
276.531
277.303
278.173
279.159
280.281
281.562
283.036
284.747
286.766
289.214
273.215
273.654
274.118
274.616
275.158
275.754
276.415
277.154
277.983
278.917
279.974
281.174
282.544
284.125
285.985
288.274
273.246
273.752
274.289
274.869
275.505
276.211
277.002
277.895
278.905
280.051
281.349
282.813
284.455
286.275
288.264
290.395
273.245
273.746
274.279
274.855
275.486
276.187
276.973
277.86
278.864
280.003
281.294
282.754
284.393
286.215
288.208
290.338
273.242
273.738
274.264
274.832
275.455
276.148
276.923
277.799
278.79
279.916
281.195
282.643
284.276
286.101
288.109
290.269
273.238
273.726
274.244
274.802
275.415
276.095
276.856
277.715
278.688
279.794
281.052
282.481
284.101
285.926
287.956
290.17
273.234
273.712
274.219
274.766
275.366
276.03
276.773
277.61
278.559
279.637
280.864
282.264
283.859
285.674
287.726
290.015
273.228
273.696
274.192
274.725
275.309
275.954
276.676
277.487
278.405
279.446
280.633
281.988
283.539
285.323
287.379
289.752
273.223
273.679
274.161
274.68
275.246
275.871
276.567
277.348
278.228
279.226
280.358
281.651
283.132
284.844
286.851
289.27
273.217
273.66
274.128
274.631
275.178
275.781
276.45
277.197
278.036
278.981
280.049
281.259
282.638
284.222
286.073
288.338
273.247
273.756
274.295
274.878
275.517
276.227
277.023
277.92
278.937
280.088
281.392
282.861
284.505
286.323
288.303
290.418
273.246
273.75
274.285
274.863
275.498
276.203
276.994
277.885
278.895
280.04
281.337
282.801
284.443
286.263
288.247
290.361
273.243
273.741
274.27
274.841
275.467
276.163
276.944
277.824
278.821
279.953
281.237
282.69
284.326
286.148
288.148
290.292
273.239
273.73
274.249
274.811
275.427
276.11
276.876
277.74
278.718
279.83
281.094
282.528
284.15
285.973
287.995
290.194
273.235
273.716
274.225
274.775
275.377
276.045
276.792
277.635
278.588
279.672
280.905
282.31
283.908
285.721
287.765
290.038
273.229
273.699
274.197
274.733
275.32
275.969
276.694
277.51
278.433
279.481
280.673
282.032
283.587
285.369
287.418
289.776
273.224
273.682
274.166
274.687
275.256
275.885
276.585
277.37
278.256
279.259
280.397
281.694
283.179
284.89
286.891
289.295
273.218
273.663
274.133
274.639
275.189
275.794
276.467
277.219
278.062
279.012
280.086
281.301
282.684
284.268
286.115
288.367
273.186
273.567
273.965
274.386
274.833
275.31
275.821
276.365
276.943
277.551
278.182
278.822
279.457
280.063
280.613
281.077
273.185
273.563
273.959
274.377
274.822
275.296
275.804
276.345
276.92
277.524
278.15
278.787
279.418
280.021
280.568
281.03
273.183
273.557
273.949
274.363
274.802
275.272
275.774
276.309
276.877
277.474
278.092
278.721
279.345
279.94
280.482
280.939
273.181
273.55
273.936
274.344
274.777
275.239
275.733
276.259
276.817
277.403
278.011
278.628
279.24
279.825
280.357
280.807
273.178
273.541
273.92
274.32
274.745
275.198
275.682
276.197
276.743
277.316
277.909
278.511
279.107
279.677
280.196
280.635
273.174
273.53
273.902
274.293
274.709
275.152
275.624
276.125
276.656
277.213
277.788
278.372
278.95
279.501
280.003
280.428
273.17
273.518
273.882
274.264
274.669
275.1
275.559
276.046
276.56
277.098
277.654
278.216
278.771
279.301
279.782
280.19
273.166
273.506
273.86
274.233
274.627
275.046
275.491
275.962
276.458
276.976
277.509
278.048
278.578
279.083
279.542
279.929
273.187
273.569
273.97
274.393
274.844
275.326
275.842
276.395
276.982
277.602
278.248
278.908
279.565
280.197
280.774
281.264
273.186
273.566
273.963
274.384
274.832
275.311
275.824
276.373
276.957
277.573
278.215
278.871
279.524
280.152
280.727
281.215
273.184
273.56
273.953
274.369
274.812
275.286
275.793
276.336
276.913
277.521
278.155
278.803
279.448
280.069
280.638
281.121
273.182
273.552
273.94
274.35
274.786
275.252
275.751
276.285
276.852
277.45
278.072
278.707
279.341
279.951
280.51
280.985
273.178
273.543
273.924
274.326
274.754
275.211
275.7
276.222
276.776
277.36
277.967
278.587
279.205
279.799
280.344
280.808
273.175
273.532
273.905
274.299
274.717
275.164
275.641
276.149
276.688
277.255
277.844
278.444
279.042
279.617
280.144
280.593
273.171
273.52
273.885
274.269
274.677
275.112
275.575
276.068
276.59
277.138
277.706
278.284
278.858
279.409
279.914
280.344
273.167
273.508
273.863
274.238
274.635
275.057
275.506
275.983
276.486
277.013
277.558
278.111
278.658
279.183
279.662
280.07
273.189
273.576
273.981
274.411
274.869
275.36
275.888
276.455
277.062
277.706
278.382
279.08
279.783
280.468
281.101
281.645
273.188
273.572
273.974
274.401
274.856
275.344
275.869
276.432
277.035
277.675
278.347
279.041
279.74
280.421
281.052
281.593
273.186
273.566
273.964
274.385
274.835
275.318
275.836
276.393
276.989
277.621
278.285
278.97
279.66
280.334
280.958
281.495
273.183
273.558
273.95
274.365
274.808
275.283
275.793
276.34
276.925
277.546
278.198
278.87
279.548
280.21
280.824
281.353
273.18
273.548
273.934
274.341
274.775
275.241
275.74
276.275
276.847
277.453
278.088
278.744
279.405
280.049
280.649
281.165
273.177
273.537
273.915
274.313
274.738
275.192
275.679
276.2
276.756
277.344
277.96
278.594
279.233
279.856
280.435
280.935
273.173
273.525
273.894
274.283
274.697
275.139
275.612
276.117
276.655
277.222
277.815
278.425
279.037
279.633
280.187
280.664
273.169
273.513
273.872
274.251
274.654
275.083
275.541
276.029
276.547
277.092
277.66
278.241
278.824
279.388
279.911
280.362
273.193
273.586
273.999
274.437
274.906
275.411
275.956
276.545
277.18
277.86
278.581
279.336
280.108
280.875
281.599
282.231
273.191
273.582
273.992
274.427
274.893
275.394
275.936
276.521
277.152
277.827
278.544
279.294
280.062
280.825
281.547
282.177
273.189
273.576
273.981
274.411
274.871
275.367
275.902
276.48
277.103
277.77
278.478
279.219
279.978
280.733
281.448
282.074
273.187
273.567
273.967
274.39
274.843
275.331
275.857
276.425
277.036
277.691
278.386
279.113
279.859
280.601
281.305
281.923
273.183
273.558
273.95
274.365
274.809
275.287
275.802
276.357
276.954
277.593
278.271
278.979
279.706
280.429
281.117
281.722
273.18
273.546
273.93
274.337
274.771
275.237
275.738
276.279
276.859
277.478
278.134
278.819
279.521
280.219
280.883
281.468
273.176
273.534
273.909
274.306
274.728
275.181
275.668
276.192
276.752
277.349
277.98
278.636
279.307
279.974
280.606
281.163
273.171
273.521
273.886
274.273
274.683
275.123
275.594
276.099
276.638
277.211
277.813
278.437
279.073
279.701
280.294
280.815
273.197
273.6
274.023
274.472
274.955
275.477
276.044
276.661
277.331
278.057
278.837
279.666
280.532
281.413
282.268
283.036
273.196
273.595
274.015
274.462
274.941
275.46
276.023
276.636
277.302
278.022
278.797
279.621
280.483
281.36
282.213
282.98
273.193
273.589
274.004
274.445
274.919
275.431
275.988
276.593
277.25
277.962
278.727
279.542
280.394
281.263
282.11
282.873
273.191
273.58
273.989
274.423
274.89
275.394
275.94
276.535
277.18
277.879
278.63
279.429
280.267
281.122
281.958
282.714
273.187
273.57
273.971
274.397
274.854
275.348
275.883
276.463
277.093
277.774
278.506
279.285
280.101
280.936
281.754
282.496
273.184
273.558
273.951
274.368
274.814
275.295
275.816
276.381
276.992
277.652
278.359
279.111
279.899
280.704
281.495
282.214
273.179
273.545
273.929
274.335
274.77
275.238
275.743
276.289
276.879
277.514
278.193
278.912
279.663
280.429
281.18
281.864
273.175
273.532
273.906
274.301
274.723
275.176
275.665
276.191
276.757
277.365
278.011
278.692
279.4
280.117
280.816
281.449
273.202
273.615
274.05
274.514
275.013
275.556
276.148
276.797
277.509
278.288
279.137
280.056
281.038
282.067
283.104
284.076
273.201
273.611
274.043
274.503
274.999
275.538
276.126
276.771
277.478
278.252
279.096
280.009
280.987
282.012
283.048
284.019
273.198
273.604
274.031
274.485
274.975
275.508
276.089
276.726
277.424
278.188
279.021
279.924
280.892
281.91
282.94
283.91
273.196
273.595
274.015
274.463
274.945
275.468
276.039
276.665
277.35
278.099
278.917
279.804
280.756
281.76
282.78
283.745
273.192
273.585
273.997
274.436
274.908
275.42
275.979
276.589
277.257
277.988
278.785
279.649
280.577
281.559
282.561
283.515
273.188
273.573
273.976
274.405
274.866
275.365
275.909
276.502
277.149
277.856
278.626
279.46
280.356
281.303
282.274
283.204
273.184
273.559
273.953
274.371
274.82
275.304
275.831
276.404
277.028
277.708
278.445
279.24
280.093
280.992
281.913
282.797
273.179
273.545
273.929
274.335
274.771
275.24
275.748
276.3
276.898
277.546
278.246
278.997
279.795
280.631
281.48
282.288
273.208
273.633
274.081
274.56
275.078
275.643
276.263
276.948
277.705
278.542
279.467
280.486
281.602
282.81
284.087
285.365
273.206
273.628
274.073
274.549
275.063
275.624
276.24
276.92
277.672
278.504
279.423
280.437
281.548
282.753
284.029
285.305
273.204
273.621
274.061
274.531
275.039
275.593
276.201
276.872
277.615
278.436
279.345
280.347
281.448
282.646
283.919
285.196
273.201
273.612
274.045
274.507
275.007
275.551
276.149
276.808
277.536
278.342
279.234
280.219
281.304
282.488
283.754
285.034
273.197
273.601
274.026
274.479
274.968
275.501
276.085
276.728
277.438
278.224
279.092
280.052
281.112
282.273
283.524
284.802
273.193
273.588
274.004
274.447
274.924
275.443
276.011
276.635
277.323
278.083
278.921
279.847
280.87
281.994
283.212
284.471
273.189
273.575
273.98
274.411
274.875
275.379
275.929
276.532
277.194
277.922
278.724
279.606
280.577
281.643
282.8
284.004
273.184
273.56
273.954
274.374
274.824
275.311
275.841
276.42
277.054
277.748
278.506
279.336
280.241
281.224
282.28
283.369
273.214
273.652
274.114
274.609
275.146
275.734
276.384
277.105
277.909
278.806
279.809
280.931
282.187
283.591
285.159
286.885
273.212
273.647
274.106
274.597
275.131
275.715
276.36
277.076
277.874
278.766
279.763
280.88
282.131
283.532
285.098
286.816
273.21
273.64
274.093
274.578
275.105
275.682
276.319
277.026
277.814
278.694
279.68
280.785
282.027
283.422
284.988
286.713
273.207
273.63
274.076
274.554
275.072
275.639
276.264
276.958
277.731
278.595
279.563
280.65
281.874
283.259
284.825
286.565
273.203
273.619
274.056
274.524
275.031
275.586
276.197
276.874
277.628
278.469
279.412
280.472
281.67
283.034
284.591
286.349
273.199
273.605
274.033
274.491
274.985
275.525
276.119
276.776
277.505
278.318
279.228
280.251
281.409
282.732
284.262
286.022
273.194
273.591
274.008
274.453
274.934
275.458
276.032
276.666
277.367
278.146
279.015
279.988
281.087
282.343
283.802
285.513
273.189
273.576
273.982
274.414
274.88
275.386
275.939
276.547
277.217
277.958
278.778
279.69
280.71
281.863
283.185
284.722
273.189
273.575
273.981
274.413
274.879
275.384
275.938
276.545
277.215
277.955
278.775
279.687
280.707
281.86
283.182
284.719
273.184
273.559
273.953
274.372
274.822
275.308
275.838
276.417
277.05
277.743
278.502
279.331
280.236
281.219
282.275
283.364
273.179
273.544
273.927
274.333
274.768
275.237
275.744
276.295
276.893
277.54
278.24
278.99
279.788
280.624
281.473
282.282
273.175
273.531
273.904
274.299
274.72
275.172
275.66
276.185
276.751
277.357
278.003
278.684
279.392
280.109
280.808
281.442
273.171
273.52
273.885
274.27
274.68
275.119
275.589
276.093
276.631
277.203
277.804
278.428
279.064
279.692
280.286
280.807
273.168
273.511
273.87
274.248
274.65
275.078
275.535
276.022
276.539
277.084
277.651
278.232
278.814
279.379
279.902
280.353
273.167
273.506
273.861
274.235
274.631
275.052
275.5
275.976
276.478
277.005
277.549
278.101
278.648
279.173
279.653
280.062
273.166
273.505
273.858
274.23
274.623
275.041
275.485
275.955
276.45
276.967
277.5
278.038
278.568
279.073
279.532
279.921
273.194
273.59
274.007
274.451
274.931
275.454
276.028
276.661
277.362
278.14
279.008
279.981
281.08
282.336
283.796
285.508
273.188
273.573
273.978
274.408
274.872
275.375
275.923
276.525
277.187
277.914
278.715
279.597
280.568
281.634
282.791
283.996
273.183
273.558
273.951
274.368
274.816
275.299
275.825
276.397
277.02
277.698
278.435
279.23
280.082
280.981
281.903
282.788
273.179
273.544
273.927
274.332
274.765
275.232
275.736
276.281
276.869
277.503
278.181
278.9
279.651
280.417
281.169
281.853
273.175
273.532
273.906
274.302
274.723
275.175
275.661
276.183
276.742
277.338
277.968
278.624
279.295
279.961
280.594
281.152
273.172
273.524
273.891
274.279
274.692
275.132
275.604
276.108
276.644
277.211
277.803
278.412
279.024
279.62
280.174
280.653
273.171
273.518
273.882
274.265
274.672
275.105
275.567
276.059
276.58
277.127
277.693
278.271
278.845
279.396
279.902
280.333
273.17
273.517
273.879
274.26
274.664
275.094
275.551
276.037
276.55
277.086
277.641
278.203
278.758
279.288
279.77
280.179
273.198
273.604
274.031
274.487
274.981
275.519
276.112
276.767
277.496
278.308
279.217
280.239
281.396
282.72
284.251
286.013
273.193
273.587
274.001
274.443
274.919
275.436
276.003
276.626
277.312
278.07
278.908
279.833
280.855
281.98
283.199
284.459
273.188
273.571
273.973
274.401
274.86
275.358
275.899
276.491
277.137
277.843
278.612
279.445
280.34
281.287
282.26
283.191
273.183
273.556
273.948
274.363
274.808
275.287
275.806
276.369
276.979
277.637
278.344
279.095
279.882
280.688
281.479
282.2
273.179
273.544
273.927
274.332
274.764
275.228
275.728
276.267
276.845
277.463
278.118
278.802
279.503
280.202
280.867
281.453
273.176
273.535
273.911
274.308
274.731
275.184
275.669
276.188
276.742
277.329
277.943
278.577
279.215
279.839
280.418
280.92
273.174
273.53
273.901
274.294
274.71
275.155
275.63
276.136
276.674
277.24
277.827
278.427
279.025
279.6
280.128
280.578
273.173
273.528
273.898
274.288
274.702
275.143
275.613
276.113
276.642
277.197
277.771
278.355
278.932
279.484
279.987
280.413
273.202
273.616
274.053
274.519
275.024
275.577
276.186
276.861
277.613
278.453
279.394
280.453
281.651
283.015
284.574
286.335
273.197
273.599
274.022
274.473
274.96
275.491
276.073
276.714
277.422
278.206
279.073
280.032
281.091
282.253
283.505
284.784
273.191
273.582
273.993
274.43
274.9
275.41
275.966
276.574
277.24
277.969
278.764
279.627
280.555
281.537
282.54
283.495
273.186
273.567
273.967
274.391
274.846
275.337
275.869
276.448
277.076
277.755
278.485
279.263
280.078
280.913
281.733
282.476
273.182
273.555
273.945
274.359
274.8
275.276
275.788
276.341
276.936
277.573
278.249
278.957
279.683
280.407
281.095
281.702
273.179
273.545
273.929
274.334
274.766
275.229
275.726
276.259
276.829
277.433
278.067
278.721
279.382
280.027
280.627
281.146
273.178
273.54
273.919
274.319
274.745
275.2
275.686
276.206
276.758
277.34
277.945
278.564
279.182
279.777
280.323
280.789
273.177
273.538
273.915
274.313
274.736
275.187
275.668
276.181
276.724
277.295
277.887
278.488
279.085
279.655
280.175
280.617
273.206
273.627
274.071
274.546
275.061
275.625
276.248
276.939
277.709
278.571
279.537
280.622
281.847
283.232
284.799
286.543
273.2
273.609
274.039
274.499
274.995
275.537
276.132
276.788
277.513
278.317
279.207
280.19
281.274
282.459
283.726
285.008
273.194
273.592
274.009
274.454
274.933
275.454
276.021
276.644
277.326
278.073
278.889
279.775
280.726
281.73
282.751
283.718
273.19
273.577
273.983
274.414
274.878
275.379
275.922
276.514
277.156
277.852
278.601
279.399
280.236
281.092
281.929
282.687
273.185
273.564
273.961
274.381
274.831
275.316
275.839
276.404
277.012
277.665
278.358
279.084
279.829
280.571
281.277
281.897
273.182
273.554
273.944
274.356
274.796
275.268
275.775
276.319
276.902
277.52
278.17
278.841
279.518
280.18
280.796
281.328
273.18
273.548
273.934
274.341
274.774
275.237
275.733
276.264
276.828
277.424
278.044
278.679
279.312
279.922
280.483
280.961
273.179
273.546
273.93
274.335
274.765
275.224
275.715
276.238
276.794
277.378
277.983
278.6
279.211
279.797
280.331
280.783
273.209
273.635
274.085
274.567
275.09
275.663
276.296
276.999
277.784
278.661
279.644
280.747
281.987
283.383
284.95
286.676
273.203
273.617
274.053
274.519
275.023
275.573
276.177
276.845
277.583
278.402
279.308
280.308
281.408
282.606
283.879
285.158
273.197
273.599
274.023
274.474
274.959
275.488
276.065
276.698
277.392
278.153
278.984
279.885
280.852
281.869
282.901
283.872
273.192
273.584
273.995
274.433
274.903
275.411
275.963
276.565
277.218
277.927
278.69
279.503
280.354
281.224
282.072
282.838
273.188
273.571
273.973
274.399
274.855
275.347
275.878
276.452
277.072
277.736
278.441
279.18
279.939
280.695
281.412
282.041
273.185
273.561
273.956
274.373
274.819
275.298
275.813
276.366
276.958
277.587
278.249
278.932
279.622
280.297
280.923
281.464
273.183
273.555
273.945
274.358
274.797
275.267
275.77
276.309
276.883
277.489
278.12
278.766
279.412
280.034
280.604
281.091
273.182
273.553
273.941
274.351
274.787
275.253
275.751
276.283
276.848
277.442
278.058
278.686
279.309
279.905
280.449
280.91
273.21
273.641
274.095
274.581
275.109
275.689
276.329
277.04
277.834
278.721
279.715
280.829
282.078
283.478
285.043
286.757
273.204
273.622
274.062
274.533
275.042
275.597
276.208
276.883
277.631
278.459
279.375
280.386
281.496
282.7
283.975
285.251
273.199
273.605
274.031
274.487
274.977
275.511
276.094
276.734
277.437
278.207
279.047
279.958
280.935
281.96
282.997
283.97
273.194
273.589
274.004
274.445
274.92
275.433
275.992
276.599
277.261
277.978
278.75
279.572
280.433
281.31
282.165
282.935
273.189
273.576
273.981
274.411
274.872
275.368
275.905
276.485
277.112
277.784
278.497
279.246
280.013
280.777
281.501
282.135
273.186
273.566
273.964
274.385
274.835
275.319
275.839
276.398
276.997
277.633
278.302
278.994
279.693
280.375
281.008
281.554
273.184
273.56
273.953
274.369
274.812
275.287
275.795
276.34
276.92
277.533
278.172
278.826
279.479
280.108
280.686
281.178
273.183
273.557
273.949
274.363
274.803
275.273
275.776
276.313
276.884
277.485
278.109
278.744
279.375
279.979
280.529
280.996
273.211
273.644
274.1
274.589
275.119
275.702
276.345
277.061
277.859
278.751
279.751
280.87
282.123
283.525
285.087
286.795
273.205
273.625
274.067
274.54
275.051
275.61
276.224
276.903
277.655
278.487
279.409
280.425
281.539
282.745
284.021
285.295
273.199
273.607
274.036
274.493
274.986
275.523
276.109
276.753
277.459
278.234
279.079
279.995
280.976
282.005
283.044
284.017
273.194
273.591
274.008
274.452
274.929
275.445
276.006
276.617
277.282
278.003
278.78
279.606
280.472
281.353
282.211
282.983
273.19
273.578
273.985
274.417
274.88
275.379
275.919
276.502
277.132
277.808
278.526
279.278
280.05
280.818
281.545
282.182
273.187
273.568
273.968
274.391
274.843
275.329
275.852
276.414
277.016
277.656
278.329
279.025
279.728
280.414
281.051
281.599
273.185
273.562
273.957
274.375
274.82
275.297
275.808
276.356
276.939
277.555
278.198
278.856
279.513
280.146
280.727
281.222
273.184
273.56
273.953
274.369
274.811
275.283
275.789
276.329
276.903
277.507
278.135
278.774
279.408
280.016
280.569
281.038
273.162
273.493
273.839
274.202
274.585
274.991
275.421
275.876
276.354
276.851
277.361
277.874
278.378
278.857
279.29
279.656
273.158
273.481
273.818
274.171
274.543
274.937
275.353
275.792
276.251
276.727
277.214
277.702
278.18
278.631
279.039
279.383
273.155
273.47
273.798
274.142
274.504
274.886
275.289
275.712
276.154
276.61
277.075
277.539
277.991
278.416
278.799
279.122
273.151
273.46
273.781
274.117
274.47
274.841
275.232
275.641
276.067
276.505
276.949
277.391
277.82
278.221
278.582
278.885
273.149
273.451
273.766
274.095
274.441
274.803
275.184
275.581
275.993
276.416
276.843
277.266
277.674
278.056
278.397
278.683
273.146
273.445
273.755
274.079
274.419
274.775
275.147
275.535
275.937
276.347
276.76
277.168
277.561
277.927
278.252
278.526
273.145
273.441
273.748
274.069
274.405
274.756
275.123
275.505
275.899
276.301
276.705
277.103
277.484
277.839
278.154
278.418
273.145
273.439
273.746
274.065
274.398
274.748
275.112
275.491
275.881
276.279
276.678
277.07
277.447
277.795
278.105
278.364
273.163
273.495
273.842
274.206
274.592
275.001
275.435
275.895
276.38
276.885
277.405
277.932
278.451
278.947
279.398
279.782
273.159
273.483
273.821
274.175
274.55
274.946
275.366
275.81
276.275
276.758
277.254
277.754
278.244
278.71
279.133
279.492
273.155
273.471
273.801
274.146
274.51
274.895
275.301
275.729
276.176
276.639
277.111
277.585
278.048
278.485
278.881
279.215
273.152
273.461
273.783
274.12
274.475
274.849
275.243
275.656
276.087
276.531
276.982
277.432
277.87
278.282
278.652
278.965
273.149
273.453
273.768
274.099
274.446
274.811
275.195
275.596
276.012
276.44
276.873
277.303
277.719
278.109
278.458
278.752
273.147
273.446
273.757
274.083
274.424
274.782
275.157
275.549
275.955
276.37
276.788
277.202
277.602
277.974
278.307
278.587
273.146
273.442
273.751
274.073
274.41
274.764
275.134
275.519
275.917
276.323
276.732
277.135
277.523
277.883
278.205
278.474
273.145
273.441
273.748
274.069
274.404
274.756
275.123
275.505
275.899
276.301
276.705
277.103
277.484
277.839
278.154
278.418
273.165
273.5
273.85
274.219
274.61
275.025
275.468
275.938
276.436
276.958
277.499
278.051
278.6
279.131
279.62
280.04
273.16
273.487
273.828
274.187
274.566
274.969
275.397
275.849
276.327
276.825
277.339
277.861
278.378
278.874
279.328
279.716
273.157
273.476
273.808
274.157
274.526
274.916
275.33
275.766
276.224
276.7
277.188
277.681
278.166
278.628
279.049
279.407
273.153
273.465
273.79
274.131
274.49
274.869
275.27
275.691
276.131
276.587
277.052
277.518
277.974
278.406
278.797
279.128
273.15
273.456
273.775
274.109
274.46
274.83
275.22
275.628
276.053
276.491
276.936
277.38
277.812
278.218
278.584
278.892
273.148
273.45
273.764
274.092
274.438
274.8
275.181
275.58
275.993
276.418
276.847
277.273
277.686
278.072
278.418
278.71
273.147
273.446
273.757
274.082
274.424
274.782
275.157
275.549
275.954
276.369
276.788
277.202
277.601
277.974
278.307
278.586
273.146
273.445
273.755
274.079
274.418
274.774
275.147
275.535
275.936
276.347
276.76
277.168
277.56
277.926
278.252
278.525
273.167
273.508
273.864
274.239
274.638
275.063
275.518
276.004
276.521
277.068
277.639
278.229
278.826
279.411
279.96
280.439
273.163
273.495
273.841
274.206
274.593
275.005
275.444
275.911
276.406
276.926
277.467
278.022
278.578
279.12
279.623
280.059
273.159
273.483
273.82
274.176
274.551
274.95
275.374
275.823
276.296
276.792
277.304
277.825
278.342
278.842
279.301
279.696
273.155
273.472
273.802
274.148
274.514
274.901
275.311
275.744
276.198
276.671
277.156
277.646
278.13
278.592
279.013
279.372
273.153
273.463
273.786
274.125
274.483
274.86
275.259
275.678
276.116
276.569
277.032
277.496
277.95
278.381
278.77
279.101
273.15
273.456
273.775
274.109
274.46
274.83
275.219
275.627
276.052
276.491
276.936
277.379
277.811
278.217
278.583
278.892
273.149
273.452
273.768
274.098
274.445
274.81
275.194
275.595
276.011
276.439
276.872
277.302
277.718
278.108
278.457
278.751
273.148
273.451
273.766
274.095
274.44
274.803
275.183
275.58
275.992
276.415
276.842
277.265
277.673
278.055
278.396
278.682
273.17
273.518
273.882
274.266
274.675
275.114
275.585
276.09
276.632
277.21
277.822
278.462
279.121
279.782
280.419
280.989
273.166
273.505
273.859
274.232
274.629
275.053
275.506
275.991
276.508
277.057
277.633
278.231
278.84
279.444
280.017
280.522
273.162
273.492
273.837
274.2
274.585
274.995
275.432
275.898
276.391
276.912
277.454
278.011
278.573
279.122
279.635
280.082
273.158
273.481
273.818
274.172
274.546
274.944
275.366
275.814
276.286
276.781
277.292
277.813
278.332
278.833
279.295
279.693
273.155
273.472
273.802
274.148
274.514
274.901
275.311
275.743
276.198
276.67
277.155
277.646
278.129
278.591
279.012
279.372
273.153
273.465
273.79
274.13
274.489
274.868
275.269
275.69
276.13
276.585
277.05
277.516
277.972
278.404
278.795
279.127
273.152
273.461
273.782
274.12
274.474
274.848
275.242
275.655
276.085