/*--------------------------------*- C++ -*----------------------------------*\
| =========                 |                                                 |
| \\      /  F ield         | OpenFOAM: The Open Source CFD Toolbox           |
|  \\    /   O peration     | Version:  v1912                                 |
|   \\  /    A nd           | Website:  www.openfoam.com                      |
|    \\/     M anipulation  |                                                 |
\*---------------------------------------------------------------------------*/
FoamFile
{
    version     2.0;
    format      ascii;
    class       volVectorField;
    location    "0.58/fluid";
    object      cellMotionU;
}
// * * * * * * * * * * * * * * * * * * * * * * * * * * * * * * * * * * * * * //

dimensions      [0 1 -1 0 0 0 0];


internalField   nonuniform List<vector> 
14592
(
(1.54716e-10 -3.41721e-10 2.59509e-10)
(4.31669e-10 -9.55467e-10 7.34532e-10)
(6.87307e-10 -1.52601e-09 1.202e-09)
(9.30975e-10 -2.07353e-09 1.69249e-09)
(1.17267e-09 -2.6131e-09 2.2359e-09)
(1.42116e-09 -3.15025e-09 2.85871e-09)
(1.68692e-09 -3.6821e-09 3.58768e-09)
(1.98332e-09 -4.19261e-09 4.44901e-09)
(2.33028e-09 -4.64674e-09 5.4695e-09)
(2.76096e-09 -4.97572e-09 6.67565e-09)
(3.34048e-09 -5.05219e-09 8.09988e-09)
(4.21161e-09 -4.62586e-09 9.79953e-09)
(5.70833e-09 -3.1529e-09 1.19283e-08)
(8.69106e-09 7.3668e-10 1.49739e-08)
(1.51453e-08 1.04792e-08 2.02475e-08)
(2.66311e-08 3.00288e-08 2.87436e-08)
(4.60425e-10 -1.01471e-09 7.71509e-10)
(1.28479e-09 -2.83769e-09 2.18392e-09)
(2.04471e-09 -4.53325e-09 3.57231e-09)
(2.76968e-09 -6.16373e-09 5.0304e-09)
(3.48602e-09 -7.77068e-09 6.64177e-09)
(4.22105e-09 -9.37537e-09 8.48715e-09)
(5.00464e-09 -1.09721e-08 1.06444e-08)
(5.87423e-09 -1.25203e-08 1.31906e-08)
(6.88176e-09 -1.39256e-08 1.62001e-08)
(8.10982e-09 -1.50106e-08 1.97435e-08)
(9.70596e-09 -1.54609e-08 2.38876e-08)
(1.19498e-08 -1.47351e-08 2.87068e-08)
(1.54237e-08 -1.18835e-08 3.43429e-08)
(2.12027e-08 -5.33464e-09 4.10894e-08)
(3.08225e-08 6.91596e-09 4.93969e-08)
(4.31319e-08 2.29988e-08 5.81511e-08)
(7.5596e-10 -1.65774e-09 1.26429e-09)
(2.10905e-09 -4.63736e-09 3.57805e-09)
(3.3559e-09 -7.41345e-09 5.85192e-09)
(4.54249e-09 -1.00877e-08 8.23578e-09)
(5.71265e-09 -1.27343e-08 1.08677e-08)
(6.90948e-09 -1.53938e-08 1.38779e-08)
(8.17988e-09 -1.80686e-08 1.73935e-08)
(9.57939e-09 -2.07104e-08 2.15388e-08)
(1.11804e-08 -2.31996e-08 2.6434e-08)
(1.30856e-08 -2.53093e-08 3.21876e-08)
(1.54551e-08 -2.66565e-08 3.88855e-08)
(1.85603e-08 -2.66379e-08 4.65816e-08)
(2.28808e-08 -2.4381e-08 5.52966e-08)
(2.92109e-08 -1.88803e-08 6.5054e-08)
(3.85205e-08 -9.79858e-09 7.58866e-08)
(4.96038e-08 -3.34748e-10 8.65882e-08)
(1.03489e-09 -2.25046e-09 1.72582e-09)
(2.88648e-09 -6.2983e-09 4.88309e-09)
(4.59055e-09 -1.00766e-08 7.98259e-09)
(6.20903e-09 -1.37294e-08 1.12275e-08)
(7.79946e-09 -1.73629e-08 1.48024e-08)
(9.41949e-09 -2.10454e-08 1.8884e-08)
(1.11299e-08 -2.47996e-08 2.36436e-08)
(1.29998e-08 -2.85929e-08 2.92505e-08)
(1.5112e-08 -3.23169e-08 3.5868e-08)
(1.75702e-08 -3.57577e-08 4.36439e-08)
(2.05068e-08 -3.85546e-08 5.26878e-08)
(2.40996e-08 -4.0156e-08 6.30345e-08)
(2.85962e-08 -3.98161e-08 7.45975e-08)
(3.43269e-08 -3.67549e-08 8.71033e-08)
(4.16471e-08 -3.07958e-08 9.99957e-08)
(4.9638e-08 -2.41863e-08 1.11286e-07)
(1.29139e-09 -2.7727e-09 2.14555e-09)
(3.60095e-09 -7.76384e-09 6.06907e-09)
(5.72296e-09 -1.24334e-08 9.9152e-09)
(7.732e-09 -1.69652e-08 1.39319e-08)
(9.69851e-09 -2.15022e-08 1.83461e-08)
(1.16915e-08 -2.61446e-08 2.33728e-08)
(1.37835e-08 -3.09475e-08 2.92223e-08)
(1.60546e-08 -3.59131e-08 3.61031e-08)
(1.85962e-08 -4.09784e-08 4.42209e-08)
(2.15129e-08 -4.5992e-08 5.37684e-08)
(2.4916e-08 -5.06814e-08 6.48983e-08)
(2.8909e-08 -5.46062e-08 7.76758e-08)
(3.35664e-08 -5.70952e-08 9.20029e-08)
(3.88622e-08 -5.72132e-08 1.07452e-07)
(4.4666e-08 -5.39319e-08 1.22971e-07)
(5.02622e-08 -4.7859e-08 1.35544e-07)
(1.52096e-09 -3.20515e-09 2.51533e-09)
(4.23907e-09 -8.97917e-09 7.11203e-09)
(6.73098e-09 -1.43945e-08 1.1609e-08)
(9.08198e-09 -1.96739e-08 1.62921e-08)
(1.13712e-08 -2.49944e-08 2.14199e-08)
(1.36772e-08 -3.0492e-08 2.72387e-08)
(1.60819e-08 -3.62604e-08 3.39889e-08)
(1.86756e-08 -4.23506e-08 4.19111e-08)
(2.15616e-08 -4.87659e-08 5.12477e-08)
(2.48587e-08 -5.54529e-08 6.22381e-08)
(2.86919e-08 -6.22827e-08 7.50959e-08)
(3.31959e-08 -6.90078e-08 8.99917e-08)
(3.84599e-08 -7.51573e-08 1.06961e-07)
(4.44577e-08 -7.97661e-08 1.25747e-07)
(5.08745e-08 -8.08486e-08 1.45254e-07)
(5.64208e-08 -7.62464e-08 1.61306e-07)
(1.71976e-09 -3.52934e-09 2.82904e-09)
(4.79072e-09 -9.89293e-09 7.99485e-09)
(7.59885e-09 -1.58772e-08 1.30365e-08)
(1.0236e-08 -2.17374e-08 1.82664e-08)
(1.27879e-08 -2.7683e-08 2.39673e-08)
(1.53389e-08 -3.38829e-08 3.04055e-08)
(1.79773e-08 -4.047e-08 3.78408e-08)
(2.08016e-08 -4.75456e-08 4.65335e-08)
(2.39277e-08 -5.5185e-08 5.67502e-08)
(2.74966e-08 -6.34433e-08 6.87641e-08)
(3.16872e-08 -7.23633e-08 8.28555e-08)
(3.67361e-08 -8.19791e-08 9.93118e-08)
(4.29841e-08 -9.2296e-08 1.18438e-07)
(5.08952e-08 -1.03121e-07 1.40484e-07)
(6.09032e-08 -1.134e-07 1.65111e-07)
(7.12826e-08 -1.19533e-07 1.87604e-07)
(1.8856e-09 -3.72963e-09 3.08336e-09)
(5.24954e-09 -1.04609e-08 8.70839e-09)
(8.31634e-09 -1.68084e-08 1.41822e-08)
(1.11812e-08 -2.3053e-08 1.98348e-08)
(1.39318e-08 -2.94285e-08 2.59608e-08)
(1.66547e-08 -3.6131e-08 3.28362e-08)
(1.94399e-08 -4.33251e-08 4.07269e-08)
(2.23884e-08 -5.11533e-08 4.98967e-08)
(2.56215e-08 -5.97475e-08 6.06149e-08)
(2.92938e-08 -6.92449e-08 7.31602e-08)
(3.36187e-08 -7.98173e-08 8.78325e-08)
(3.89213e-08 -9.17247e-08 1.04983e-07)
(4.57559e-08 -1.05422e-07 1.25093e-07)
(5.51398e-08 -1.21747e-07 1.48912e-07)
(6.8869e-08 -1.42009e-07 1.77421e-07)
(8.66408e-08 -1.64594e-07 2.07346e-07)
(1.55089e-10 -3.48891e-10 2.4645e-10)
(4.32535e-10 -9.7563e-10 6.97418e-10)
(6.87689e-10 -1.55856e-09 1.13997e-09)
(9.29905e-10 -2.11885e-09 1.60358e-09)
(1.16765e-09 -2.67141e-09 2.11454e-09)
(1.40897e-09 -3.22335e-09 2.69763e-09)
(1.66231e-09 -3.77291e-09 3.37623e-09)
(1.93773e-09 -4.30635e-09 4.17228e-09)
(2.24922e-09 -4.79269e-09 5.10546e-09)
(2.61975e-09 -5.17293e-09 6.19087e-09)
(3.09375e-09 -5.34194e-09 7.43658e-09)
(3.76719e-09 -5.10881e-09 8.84367e-09)
(4.86514e-09 -4.09603e-09 1.04183e-08)
(6.8881e-09 -1.49312e-09 1.21887e-08)
(1.07543e-08 4.29905e-09 1.41545e-08)
(1.6359e-08 1.3823e-08 1.54528e-08)
(4.61637e-10 -1.03589e-09 7.32775e-10)
(1.28725e-09 -2.89709e-09 2.07297e-09)
(2.04641e-09 -4.62937e-09 3.38832e-09)
(2.76638e-09 -6.29626e-09 4.76489e-09)
(3.47196e-09 -7.94229e-09 6.28078e-09)
(4.18674e-09 -9.59073e-09 8.00879e-09)
(4.93503e-09 -1.12394e-08 1.00175e-08)
(5.74471e-09 -1.28533e-08 1.23712e-08)
(6.65162e-09 -1.43495e-08 1.51252e-08)
(7.70953e-09 -1.55746e-08 1.83181e-08)
(9.01152e-09 -1.62696e-08 2.19562e-08)
(1.07409e-08 -1.60158e-08 2.59929e-08)
(1.32405e-08 -1.41763e-08 3.02718e-08)
(1.7084e-08 -9.91013e-09 3.44122e-08)
(2.27044e-08 -2.78484e-09 3.74456e-08)
(2.8355e-08 4.47533e-09 3.75433e-08)
(7.58127e-10 -1.69211e-09 1.2007e-09)
(2.11378e-09 -4.7338e-09 3.39632e-09)
(3.35961e-09 -7.56889e-09 5.54994e-09)
(4.53958e-09 -1.03032e-08 7.80147e-09)
(5.69383e-09 -1.30132e-08 1.02779e-08)
(6.86038e-09 -1.57433e-08 1.30975e-08)
(8.07754e-09 -1.85004e-08 1.63722e-08)
(9.38671e-09 -2.1244e-08 2.02066e-08)
(1.0836e-08 -2.38688e-08 2.46917e-08)
(1.24862e-08 -2.61789e-08 2.98897e-08)
(1.4424e-08 -2.78568e-08 3.58071e-08)
(1.67858e-08 -2.84433e-08 4.23433e-08)
(1.97883e-08 -2.73832e-08 4.92009e-08)
(2.37022e-08 -2.43214e-08 5.57165e-08)
(2.85033e-08 -2.0012e-08 6.059e-08)
(3.25869e-08 -1.76262e-08 6.20008e-08)
(1.03826e-09 -2.29685e-09 1.63895e-09)
(2.89444e-09 -6.42831e-09 4.63537e-09)
(4.5985e-09 -1.02865e-08 7.57116e-09)
(6.20968e-09 -1.40196e-08 1.0636e-08)
(7.78179e-09 -1.77387e-08 1.40006e-08)
(9.36584e-09 -2.15154e-08 1.78248e-08)
(1.10123e-08 -2.53774e-08 2.22603e-08)
(1.27734e-08 -2.92994e-08 2.74505e-08)
(1.47031e-08 -3.31868e-08 3.35221e-08)
(1.68554e-08 -3.68537e-08 4.05669e-08)
(1.92789e-08 -3.99985e-08 4.8604e-08)
(2.20013e-08 -4.21963e-08 5.75086e-08)
(2.49948e-08 -4.29694e-08 6.68866e-08)
(2.80896e-08 -4.20792e-08 7.5849e-08)
(3.07884e-08 -4.02416e-08 8.26969e-08)
(3.20491e-08 -3.9707e-08 8.50786e-08)
(1.29647e-09 -2.82962e-09 2.03786e-09)
(3.61323e-09 -7.92321e-09 5.76159e-09)
(5.73721e-09 -1.26904e-08 9.405e-09)
(7.74059e-09 -1.73212e-08 1.31999e-08)
(9.68917e-09 -2.19625e-08 1.73553e-08)
(1.16454e-08 -2.67188e-08 2.20666e-08)
(1.36709e-08 -3.16492e-08 2.75205e-08)
(1.58281e-08 -3.67617e-08 3.38948e-08)
(1.81787e-08 -4.20025e-08 4.13524e-08)
(2.07756e-08 -4.7239e-08 5.00217e-08)
(2.3643e-08 -5.22374e-08 5.99563e-08)
(2.67342e-08 -5.66411e-08 7.1058e-08)
(2.98321e-08 -5.99675e-08 8.29144e-08)
(3.2408e-08 -6.17021e-08 9.45201e-08)
(3.35015e-08 -6.16907e-08 1.0379e-07)
(3.23831e-08 -6.11126e-08 1.0755e-07)
(1.52797e-09 -3.27059e-09 2.38939e-09)
(4.25676e-09 -9.16253e-09 6.75254e-09)
(6.7539e-09 -1.46904e-08 1.10134e-08)
(9.10203e-09 -2.00833e-08 1.54385e-08)
(1.13766e-08 -2.55235e-08 2.0267e-08)
(1.36495e-08 -3.11505e-08 2.57225e-08)
(1.59926e-08 -3.70609e-08 3.20191e-08)
(1.84799e-08 -4.33087e-08 3.9363e-08)
(2.11869e-08 -4.99008e-08 4.79487e-08)
(2.41839e-08 -5.67899e-08 5.79432e-08)
(2.75214e-08 -6.38599e-08 6.94568e-08)
(3.11759e-08 -7.08915e-08 8.24552e-08)
(3.49626e-08 -7.74894e-08 9.66382e-08)
(3.8306e-08 -8.2903e-08 1.11073e-07)
(3.99377e-08 -8.58191e-08 1.2353e-07)
(3.83894e-08 -8.51876e-08 1.29888e-07)
(1.72904e-09 -3.6012e-09 2.68778e-09)
(4.81467e-09 -1.00943e-08 7.59198e-09)
(7.6319e-09 -1.62021e-08 1.23697e-08)
(1.02707e-08 -2.21872e-08 1.73129e-08)
(1.28132e-08 -2.82639e-08 2.26825e-08)
(1.53383e-08 -3.46044e-08 2.8721e-08)
(1.79259e-08 -4.13436e-08 3.56599e-08)
(2.06604e-08 -4.85827e-08 4.3723e-08)
(2.36349e-08 -5.63952e-08 5.31255e-08)
(2.69522e-08 -6.48306e-08 6.4065e-08)
(3.07232e-08 -7.39203e-08 7.66968e-08)
(3.50612e-08 -8.36762e-08 9.10881e-08)
(4.00452e-08 -9.40557e-08 1.07101e-07)
(4.55969e-08 -1.04784e-07 1.24075e-07)
(5.10336e-08 -1.14771e-07 1.39969e-07)
(5.40617e-08 -1.20923e-07 1.49731e-07)
(1.89718e-09 -3.80541e-09 2.92987e-09)
(5.28013e-09 -1.06733e-08 8.27103e-09)
(8.36054e-09 -1.71514e-08 1.34596e-08)
(1.1232e-08 -2.35279e-08 1.88036e-08)
(1.39797e-08 -3.00418e-08 2.45754e-08)
(1.66859e-08 -3.6892e-08 3.10265e-08)
(1.94341e-08 -4.42442e-08 3.8394e-08)
(2.23146e-08 -5.22388e-08 4.69051e-08)
(2.54314e-08 -6.10011e-08 5.67772e-08)
(2.8911e-08 -7.06555e-08 6.82132e-08)
(3.2917e-08 -8.13467e-08 8.13843e-08)
(3.76791e-08 -9.32788e-08 9.64047e-08)
(4.35412e-08 -1.06779e-07 1.13257e-07)
(5.10331e-08 -1.22371e-07 1.31565e-07)
(6.07072e-08 -1.40535e-07 1.4976e-07)
(7.09615e-08 -1.58648e-07 1.62545e-07)
(1.54811e-10 -3.55078e-10 2.24553e-10)
(4.31371e-10 -9.93001e-10 6.35042e-10)
(6.84854e-10 -1.58668e-09 1.03747e-09)
(9.2359e-10 -2.1578e-09 1.4574e-09)
(1.1551e-09 -2.72189e-09 1.91851e-09)
(1.38575e-09 -3.28715e-09 2.44194e-09)
(1.62119e-09 -3.85302e-09 3.04672e-09)
(1.86711e-09 -4.40942e-09 3.74982e-09)
(2.1294e-09 -4.93077e-09 4.56267e-09)
(2.41655e-09 -5.37201e-09 5.48794e-09)
(2.74474e-09 -5.6582e-09 6.51116e-09)
(3.15131e-09 -5.66938e-09 7.58764e-09)
(3.71453e-09 -5.20847e-09 8.61191e-09)
(4.59207e-09 -3.92484e-09 9.36728e-09)
(5.95483e-09 -1.24482e-09 9.37017e-09)
(7.35326e-09 2.81614e-09 7.81035e-09)
(4.60839e-10 -1.05413e-09 6.67544e-10)
(1.28414e-09 -2.94837e-09 1.88787e-09)
(2.03828e-09 -4.71218e-09 3.08316e-09)
(2.74841e-09 -6.41088e-09 4.3306e-09)
(3.43615e-09 -8.09087e-09 5.69873e-09)
(4.12028e-09 -9.77779e-09 7.24995e-09)
(4.81755e-09 -1.1474e-08 9.04109e-09)
(5.5428e-09 -1.31515e-08 1.11202e-08)
(6.31024e-09 -1.47439e-08 1.35212e-08)
(7.13466e-09 -1.6131e-08 1.62483e-08)
(8.03907e-09 -1.71251e-08 1.92521e-08)
(9.06285e-09 -1.74623e-08 2.23764e-08)
(1.02807e-08 -1.68193e-08 2.52717e-08)
(1.17419e-08 -1.4943e-08 2.71985e-08)
(1.32056e-08 -1.20793e-08 2.68232e-08)
(1.36462e-08 -9.88948e-09 2.31791e-08)
(7.57103e-10 -1.7217e-09 1.09386e-09)
(2.10951e-09 -4.81685e-09 3.09319e-09)
(3.34793e-09 -7.703e-09 5.05038e-09)
(4.51299e-09 -1.04885e-08 7.09093e-09)
(5.64003e-09 -1.32529e-08 9.3263e-09)
(6.75979e-09 -1.60439e-08 1.18583e-08)
(7.89881e-09 -1.88734e-08 1.4779e-08)
(9.07979e-09 -2.17112e-08 1.81688e-08)
(1.03186e-08 -2.44711e-08 2.20841e-08)
(1.16218e-08 -2.69984e-08 2.65375e-08)
(1.29798e-08 -2.90598e-08 3.14567e-08)
(1.43573e-08 -3.03624e-08 3.66124e-08)
(1.56644e-08 -3.06592e-08 4.14928e-08)
(1.66783e-08 -3.00523e-08 4.51216e-08)
(1.68922e-08 -2.95446e-08 4.59945e-08)
(1.57551e-08 -3.08393e-08 4.33995e-08)
(1.03748e-09 -2.33665e-09 1.49345e-09)
(2.89034e-09 -6.54012e-09 4.22166e-09)
(4.58583e-09 -1.04666e-08 6.89036e-09)
(6.17901e-09 -1.42683e-08 9.66831e-09)
(7.71776e-09 -1.80591e-08 1.27061e-08)
(9.24409e-09 -2.19143e-08 1.61411e-08)
(1.07946e-08 -2.58666e-08 2.00993e-08)
(1.23985e-08 -2.98989e-08 2.4691e-08)
(1.40724e-08 -3.39342e-08 2.99988e-08)
(1.58084e-08 -3.78217e-08 3.60519e-08)
(1.75493e-08 -4.13318e-08 4.27772e-08)
(1.91447e-08 -4.41787e-08 4.99122e-08)
(2.027e-08 -4.61333e-08 5.68637e-08)
(2.03257e-08 -4.73114e-08 6.25235e-08)
(1.84804e-08 -4.85957e-08 6.52242e-08)
(1.48267e-08 -5.10647e-08 6.39792e-08)
(1.29642e-09 -2.87829e-09 1.85701e-09)
(3.61093e-09 -8.05964e-09 5.24816e-09)
(5.72667e-09 -1.29102e-08 8.56042e-09)
(7.71119e-09 -1.76238e-08 1.20008e-08)
(9.62394e-09 -2.23509e-08 1.57535e-08)
(1.15177e-08 -2.71987e-08 1.99869e-08)
(1.3439e-08 -3.22292e-08 2.48561e-08)
(1.54265e-08 -3.74555e-08 3.04995e-08)
(1.75028e-08 -4.28333e-08 3.70265e-08)
(1.96577e-08 -4.82503e-08 4.44919e-08)
(2.18103e-08 -5.35154e-08 5.28412e-08)
(2.37343e-08 -5.83559e-08 6.18149e-08)
(2.49349e-08 -6.24555e-08 7.08074e-08)
(2.44771e-08 -6.55678e-08 7.86267e-08)
(2.11085e-08 -6.77859e-08 8.33942e-08)
(1.52039e-08 -6.96453e-08 8.35998e-08)
(1.52914e-09 -3.32637e-09 2.17757e-09)
(4.25789e-09 -9.31895e-09 6.15174e-09)
(6.74848e-09 -1.49421e-08 1.00261e-08)
(9.07918e-09 -2.04292e-08 1.40387e-08)
(1.1319e-08 -2.59656e-08 1.84004e-08)
(1.35303e-08 -3.16923e-08 2.33044e-08)
(1.57707e-08 -3.77069e-08 2.89288e-08)
(1.80905e-08 -4.40625e-08 3.54348e-08)
(2.05287e-08 -5.07657e-08 4.29561e-08)
(2.30967e-08 -5.77697e-08 5.15745e-08)
(2.57397e-08 -6.49603e-08 6.12607e-08)
(2.82745e-08 -7.21341e-08 7.18036e-08)
(3.02276e-08 -7.89332e-08 8.26113e-08)
(3.06145e-08 -8.47135e-08 9.24792e-08)
(2.7835e-08 -8.83766e-08 9.93423e-08)
(2.15051e-08 -8.88666e-08 1.01136e-07)
(1.73192e-09 -3.66221e-09 2.45e-09)
(4.82048e-09 -1.02653e-08 6.91772e-09)
(7.63426e-09 -1.64769e-08 1.12629e-08)
(1.02589e-08 -2.25644e-08 1.57467e-08)
(1.27707e-08 -2.87443e-08 2.05988e-08)
(1.524e-08 -3.51895e-08 2.60291e-08)
(1.77333e-08 -4.20327e-08 3.22307e-08)
(2.03149e-08 -4.93697e-08 3.93788e-08)
(2.30448e-08 -5.72631e-08 4.76226e-08)
(2.59722e-08 -6.57433e-08 5.70609e-08)
(2.91191e-08 -7.4807e-08 6.7697e-08)
(3.2441e-08 -8.44036e-08 7.93481e-08)
(3.57421e-08 -9.43778e-08 9.14762e-08)
(3.85027e-08 -1.04273e-07 1.02859e-07)
(3.9622e-08 -1.12822e-07 1.11178e-07)
(3.78777e-08 -1.17258e-07 1.13669e-07)
(1.90201e-09 -3.86952e-09 2.67115e-09)
(5.29168e-09 -1.0853e-08 7.53792e-09)
(8.37242e-09 -1.74402e-08 1.2258e-08)
(1.12343e-08 -2.39237e-08 1.71065e-08)
(1.39575e-08 -3.05448e-08 2.23242e-08)
(1.66168e-08 -3.75018e-08 2.81285e-08)
(1.92845e-08 -4.49561e-08 3.47176e-08)
(2.20338e-08 -5.30388e-08 4.22694e-08)
(2.49416e-08 -6.18572e-08 5.09343e-08)
(2.80898e-08 -7.15029e-08 6.08128e-08)
(3.15666e-08 -8.20602e-08 7.19139e-08)
(3.54645e-08 -9.36199e-08 8.40719e-08)
(3.9873e-08 -1.0629e-07 9.67742e-08)
(4.48629e-08 -1.2017e-07 1.08789e-07)
(5.03941e-08 -1.35081e-07 1.1751e-07)
(5.55629e-08 -1.48539e-07 1.19149e-07)
(1.54056e-10 -3.60195e-10 1.94781e-10)
(4.28951e-10 -1.0074e-09 5.50749e-10)
(6.7972e-10 -1.60991e-09 8.98797e-10)
(9.14066e-10 -2.18998e-09 1.26147e-09)
(1.13811e-09 -2.76375e-09 1.65785e-09)
(1.35642e-09 -3.34003e-09 2.10528e-09)
(1.57193e-09 -3.92006e-09 2.6186e-09)
(1.78572e-09 -4.49607e-09 3.20931e-09)
(1.99635e-09 -5.04863e-09 3.88275e-09)
(2.19968e-09 -5.54404e-09 4.63331e-09)
(2.38936e-09 -5.93114e-09 5.4357e-09)
(2.55985e-09 -6.13876e-09 6.23144e-09)
(2.71529e-09 -6.06555e-09 6.91352e-09)
(2.86377e-09 -5.54614e-09 7.29558e-09)
(2.98082e-09 -4.26819e-09 7.13717e-09)
(2.85346e-09 -1.9917e-09 6.32235e-09)
(4.58718e-10 -1.06925e-09 5.79116e-10)
(1.27711e-09 -2.99082e-09 1.63698e-09)
(2.02371e-09 -4.78076e-09 2.67173e-09)
(2.72099e-09 -6.50574e-09 3.74835e-09)
(3.38714e-09 -8.2137e-09 4.92449e-09)
(4.03579e-09 -9.93261e-09 6.25081e-09)
(4.67561e-09 -1.16682e-08 7.77105e-09)
(5.30902e-09 -1.34001e-08 9.51861e-09)
(5.92972e-09 -1.50761e-08 1.1509e-08)
(6.51901e-09 -1.66049e-08 1.37241e-08)
(7.04288e-09 -1.78545e-08 1.60873e-08)
(7.45321e-09 -1.86611e-08 1.84244e-08)
(7.68032e-09 -1.88651e-08 2.03913e-08)
(7.6295e-09 -1.83867e-08 2.14218e-08)
(7.1522e-09 -1.73575e-08 2.07963e-08)
(6.24578e-09 -1.63079e-08 1.8628e-08)
(7.53924e-10 -1.74616e-09 9.49048e-10)
(2.09899e-09 -4.88566e-09 2.6823e-09)
(3.3258e-09 -7.81386e-09 4.37657e-09)
(4.47107e-09 -1.06415e-08 6.13805e-09)
(5.56474e-09 -1.345e-08 8.06e-09)
(6.62963e-09 -1.62899e-08 1.02251e-08)
(7.68047e-09 -1.91781e-08 1.27051e-08)
(8.72105e-09 -2.20925e-08 1.55558e-08)
(9.73804e-09 -2.4965e-08 1.8805e-08)
(1.06912e-08 -2.76743e-08 2.24308e-08)
(1.14992e-08 -3.00499e-08 2.63244e-08)
(1.20214e-08 -3.19045e-08 3.02324e-08)
(1.20384e-08 -3.31337e-08 3.36853e-08)
(1.12643e-08 -3.39207e-08 3.59642e-08)
(9.51277e-09 -3.49579e-08 3.63411e-08)
(7.41863e-09 -3.68668e-08 3.52047e-08)
(1.03373e-09 -2.36958e-09 1.29558e-09)
(2.87787e-09 -6.63244e-09 3.66156e-09)
(4.55913e-09 -1.06152e-08 5.97175e-09)
(6.12761e-09 -1.44724e-08 8.37007e-09)
(7.62459e-09 -1.83203e-08 1.09823e-08)
(9.08244e-09 -2.22368e-08 1.39206e-08)
(1.05231e-08 -2.62582e-08 1.72827e-08)
(1.19536e-08 -3.03744e-08 2.11465e-08)
(1.33566e-08 -3.45222e-08 2.55562e-08)
(1.4672e-08 -3.85779e-08 3.04953e-08)
(1.57677e-08 -4.23606e-08 3.58437e-08)
(1.63941e-08 -4.56647e-08 4.1313e-08)
(1.61309e-08 -4.83607e-08 4.63777e-08)
(1.44004e-08 -5.05974e-08 5.02635e-08)
(1.08259e-08 -5.29858e-08 5.22209e-08)
(6.6657e-09 -5.58394e-08 5.24486e-08)
(1.29273e-09 -2.91837e-09 1.61134e-09)
(3.59836e-09 -8.17208e-09 4.55234e-09)
(5.6988e-09 -1.30905e-08 7.42023e-09)
(7.65626e-09 -1.78706e-08 1.03911e-08)
(9.52282e-09 -2.26643e-08 1.36189e-08)
(1.13407e-08 -2.75804e-08 1.72411e-08)
(1.3141e-08 -3.26825e-08 2.13787e-08)
(1.49387e-08 -3.79857e-08 2.61304e-08)
(1.67212e-08 -4.34509e-08 3.15577e-08)
(1.84262e-08 -4.89766e-08 3.76564e-08)
(1.99005e-08 -5.43925e-08 4.43103e-08)
(2.08333e-08 -5.94632e-08 5.12277e-08)
(2.06537e-08 -6.39125e-08 5.78526e-08)
(1.85022e-08 -6.75007e-08 6.33767e-08)
(1.36352e-08 -7.0155e-08 6.69686e-08)
(7.53711e-09 -7.19707e-08 6.8512e-08)
(1.52616e-09 -3.37219e-09 1.8899e-09)
(4.24702e-09 -9.44729e-09 5.33697e-09)
(6.72301e-09 -1.51476e-08 8.6922e-09)
(9.02671e-09 -2.0709e-08 1.21579e-08)
(1.12198e-08 -2.63183e-08 1.59106e-08)
(1.33542e-08 -3.21164e-08 2.01081e-08)
(1.54718e-08 -3.81988e-08 2.48897e-08)
(1.76006e-08 -4.46148e-08 3.03706e-08)
(1.97454e-08 -5.13646e-08 3.66279e-08)
(2.18675e-08 -5.83913e-08 4.36698e-08)
(2.38503e-08 -6.55681e-08 5.13958e-08)
(2.54227e-08 -7.26659e-08 5.95007e-08)
(2.6056e-08 -7.92925e-08 6.74248e-08)
(2.48428e-08 -8.47436e-08 7.42859e-08)
(2.07037e-08 -8.78316e-08 7.91235e-08)
(1.43681e-08 -8.74889e-08 8.16049e-08)
(1.73012e-09 -3.71214e-09 2.12662e-09)
(4.81305e-09 -1.0405e-08 6.0026e-09)
(7.61427e-09 -1.67003e-08 9.76646e-09)
(1.02141e-08 -2.28674e-08 1.364e-08)
(1.26821e-08 -2.91237e-08 1.78161e-08)
(1.50785e-08 -3.56403e-08 2.24661e-08)
(1.74557e-08 -4.25444e-08 2.77413e-08)
(1.98569e-08 -4.9922e-08 3.37669e-08)
(2.23114e-08 -5.78183e-08 4.06287e-08)
(2.48248e-08 -6.62345e-08 4.83446e-08)
(2.73578e-08 -7.51181e-08 5.68123e-08)
(2.97894e-08 -8.43363e-08 6.57309e-08)
(3.18544e-08 -9.36017e-08 7.4485e-08)
(3.30799e-08 -1.02278e-07 8.20538e-08)
(3.28309e-08 -1.0897e-07 8.71589e-08)
(3.10221e-08 -1.11354e-07 8.92523e-08)
(1.90184e-09 -3.92181e-09 2.319e-09)
(5.28885e-09 -1.09993e-08 6.54202e-09)
(8.36032e-09 -1.76737e-08 1.06315e-08)
(1.12014e-08 -2.42398e-08 1.48214e-08)
(1.38861e-08 -3.09386e-08 1.93139e-08)
(1.64803e-08 -3.79653e-08 2.4287e-08)
(1.90441e-08 -4.54736e-08 2.98959e-08)
(2.16323e-08 -5.35799e-08 3.62677e-08)
(2.42952e-08 -6.23666e-08 4.34872e-08)
(2.70772e-08 -7.18824e-08 5.15703e-08)
(3.00124e-08 -8.21403e-08 6.0409e-08)
(3.31202e-08 -9.31115e-08 6.9687e-08)
(3.64073e-08 -1.04711e-07 7.87374e-08)
(3.9926e-08 -1.16769e-07 8.63677e-08)
(4.39268e-08 -1.28901e-07 9.08046e-08)
(4.85033e-08 -1.39347e-07 9.08657e-08)
(1.5307e-10 -3.64221e-10 1.58393e-10)
(4.25796e-10 -1.01867e-09 4.47536e-10)
(6.73591e-10 -1.62805e-09 7.30292e-10)
(9.03217e-10 -2.21525e-09 1.02363e-09)
(1.11967e-09 -2.79646e-09 1.34342e-09)
(1.32586e-09 -3.38129e-09 1.70245e-09)
(1.52239e-09 -3.97218e-09 2.11163e-09)
(1.7066e-09 -4.56299e-09 2.57805e-09)
(1.87197e-09 -5.13872e-09 3.10341e-09)
(2.00635e-09 -5.67261e-09 3.67897e-09)
(2.09232e-09 -6.12655e-09 4.28049e-09)
(2.10968e-09 -6.4501e-09 4.86151e-09)
(2.03958e-09 -6.57334e-09 5.34503e-09)
(1.87536e-09 -6.36654e-09 5.64999e-09)
(1.60439e-09 -5.52361e-09 5.74613e-09)
(1.17653e-09 -3.64282e-09 5.71457e-09)
(4.55851e-10 -1.08113e-09 4.70847e-10)
(1.26815e-09 -3.02416e-09 1.33084e-09)
(2.00608e-09 -4.83465e-09 2.17036e-09)
(2.6897e-09 -6.58006e-09 3.04216e-09)
(3.33398e-09 -8.30998e-09 3.99093e-09)
(3.94772e-09 -1.00535e-08 5.05544e-09)
(4.5327e-09 -1.18188e-08 6.26714e-09)
(5.08158e-09 -1.35913e-08 7.6477e-09)
(5.5734e-09 -1.53281e-08 9.20085e-09)
(5.96942e-09 -1.69557e-08 1.09013e-08)
(6.20989e-09 -1.83713e-08 1.2677e-08)
(6.21504e-09 -1.94523e-08 1.43821e-08)
(5.90426e-09 -2.00763e-08 1.57863e-08)
(5.2389e-09 -2.01349e-08 1.65682e-08)
(4.32251e-09 -1.95279e-08 1.64582e-08)
(3.57731e-09 -1.83431e-08 1.56703e-08)
(7.49547e-10 -1.76545e-09 7.71705e-10)
(2.08528e-09 -4.93981e-09 2.18078e-09)
(3.29869e-09 -7.90096e-09 3.55591e-09)
(4.4228e-09 -1.07613e-08 4.9822e-09)
(5.48228e-09 -1.36035e-08 6.53276e-09)
(6.49287e-09 -1.648e-08 8.27062e-09)
(7.45918e-09 -1.9411e-08 1.0248e-08)
(8.37011e-09 -2.23801e-08 1.25006e-08)
(9.19205e-09 -2.53303e-08 1.50381e-08)
(9.85783e-09 -2.816e-08 1.78254e-08)
(1.02552e-08 -3.07287e-08 2.07576e-08)
(1.02199e-08 -3.28856e-08 2.36297e-08)
(9.55386e-09 -3.45408e-08 2.61189e-08)
(8.12346e-09 -3.57871e-08 2.78318e-08)
(6.14121e-09 -3.70055e-08 2.85358e-08)
(4.63335e-09 -3.84813e-08 2.86054e-08)
(1.0284e-09 -2.39549e-09 1.05386e-09)
(2.86099e-09 -6.70519e-09 2.97706e-09)
(4.52554e-09 -1.07319e-08 4.85262e-09)
(6.06719e-09 -1.46316e-08 6.79485e-09)
(7.52104e-09 -1.85223e-08 8.90263e-09)
(8.9106e-09 -2.24832e-08 1.12616e-08)
(1.02453e-08 -2.65522e-08 1.39429e-08)
(1.1515e-08 -3.07236e-08 1.69977e-08)
(1.26789e-08 -3.49409e-08 2.04435e-08)
(1.36485e-08 -3.90932e-08 2.42444e-08)
(1.42644e-08 -4.30182e-08 2.82804e-08)
(1.42689e-08 -4.65279e-08 3.23163e-08)
(1.33023e-08 -4.94814e-08 3.59917e-08)
(1.10148e-08 -5.19258e-08 3.88961e-08)
(7.49964e-09 -5.4219e-08 4.08094e-08)
(4.29853e-09 -5.65287e-08 4.19261e-08)
(1.28703e-09 -2.94993e-09 1.31076e-09)
(3.58014e-09 -8.26039e-09 3.70201e-09)
(5.66207e-09 -1.32316e-08 6.03063e-09)
(7.58961e-09 -1.80619e-08 8.43692e-09)
(9.40766e-09 -2.29042e-08 1.10418e-08)
(1.1149e-08 -2.78674e-08 1.39506e-08)
(1.28314e-08 -3.30148e-08 1.72516e-08)
(1.44515e-08 -3.83605e-08 2.10095e-08)
(1.59732e-08 -4.38648e-08 2.5252e-08)
(1.73074e-08 -4.94257e-08 2.99473e-08)
(1.82797e-08 -5.48713e-08 3.49708e-08)
(1.85827e-08 -5.99547e-08 4.00671e-08)
(1.77402e-08 -6.43683e-08 4.48612e-08)
(1.51598e-08 -6.77796e-08 4.89155e-08)
(1.05975e-08 -6.99665e-08 5.1983e-08)
(5.73087e-09 -7.10551e-08 5.40476e-08)
(1.52069e-09 -3.40818e-09 1.53748e-09)
(4.22938e-09 -9.54789e-09 4.34086e-09)
(6.68677e-09 -1.53076e-08 7.06568e-09)
(8.95965e-09 -2.09246e-08 9.87328e-09)
(1.11028e-08 -2.65857e-08 1.29026e-08)
(1.31584e-08 -3.24302e-08 1.62744e-08)
(1.51549e-08 -3.855e-08 2.00905e-08)
(1.71027e-08 -4.49878e-08 2.44268e-08)
(1.89841e-08 -5.17333e-08 2.93192e-08)
(2.07372e-08 -5.87132e-08 3.47408e-08)
(2.22248e-08 -6.57722e-08 4.05559e-08)
(2.31944e-08 -7.26419e-08 4.65057e-08)
(2.32123e-08 -7.8864e-08 5.21569e-08)
(2.16556e-08 -8.36572e-08 5.70151e-08)
(1.79518e-08 -8.58069e-08 6.07592e-08)
(1.30011e-08 -8.45255e-08 6.33206e-08)
(1.72545e-09 -3.75124e-09 1.73044e-09)
(4.79765e-09 -1.05142e-08 4.88311e-09)
(7.58156e-09 -1.68734e-08 7.94038e-09)
(1.01522e-08 -2.30993e-08 1.10791e-08)
(1.25718e-08 -2.94083e-08 1.44512e-08)
(1.48919e-08 -3.59683e-08 1.81881e-08)
(1.71523e-08 -4.28997e-08 2.24002e-08)
(1.93797e-08 -5.02764e-08 2.71698e-08)
(2.15835e-08 -5.81236e-08 3.25371e-08)
(2.3747e-08 -6.64106e-08 3.84724e-08)
(2.58157e-08 -7.5035e-08 4.48371e-08)
(2.76803e-08 -8.37904e-08 5.13301e-08)
(2.91642e-08 -9.22932e-08 5.74518e-08)
(3.0051e-08 -9.98238e-08 6.2546e-08)
(3.01843e-08 -1.05062e-07 6.60753e-08)
(2.96712e-08 -1.06258e-07 6.80476e-08)
(1.89845e-09 -3.96266e-09 1.88729e-09)
(5.27708e-09 -1.11132e-08 5.32286e-09)
(8.33382e-09 -1.7854e-08 8.64514e-09)
(1.11486e-08 -2.44802e-08 1.20413e-08)
(1.37894e-08 -3.12314e-08 1.56702e-08)
(1.63138e-08 -3.82979e-08 1.9669e-08)
(1.87706e-08 -4.58243e-08 2.41508e-08)
(2.12002e-08 -5.39108e-08 2.91985e-08)
(2.36352e-08 -6.26134e-08 3.48505e-08)
(2.61002e-08 -7.19389e-08 4.10707e-08)
(2.8614e-08 -8.18364e-08 4.77071e-08)
(3.12004e-08 -9.21857e-08 5.44262e-08)
(3.393e-08 -1.02789e-07 6.06468e-08)
(3.70521e-08 -1.1339e-07 6.55164e-08)
(4.12213e-08 -1.23729e-07 6.81055e-08)
(4.67913e-08 -1.32796e-07 6.82233e-08)
(1.52052e-10 -3.67122e-10 1.16763e-10)
(4.22702e-10 -1.02683e-09 3.30066e-10)
(6.67668e-10 -1.6413e-09 5.37854e-10)
(8.92946e-10 -2.23315e-09 7.53608e-10)
(1.10302e-09 -2.82039e-09 9.87897e-10)
(1.29904e-09 -3.41152e-09 1.24987e-09)
(1.47988e-09 -4.00974e-09 1.54666e-09)
(1.64074e-09 -4.61056e-09 1.88261e-09)
(1.772e-09 -5.20068e-09 2.2574e-09)
(1.85846e-09 -5.75692e-09 2.66343e-09)
(1.88018e-09 -6.24578e-09 3.08248e-09)
(1.8168e-09 -6.62137e-09 3.4829e-09)
(1.65821e-09 -6.81519e-09 3.8287e-09)
(1.41474e-09 -6.68445e-09 4.08897e-09)
(1.10635e-09 -5.89703e-09 4.3048e-09)
(7.0781e-10 -4.01361e-09 4.53044e-09)
(4.52972e-10 -1.0898e-09 3.473e-10)
(1.25925e-09 -3.04857e-09 9.81003e-10)
(1.98894e-09 -4.87358e-09 1.59925e-09)
(2.6607e-09 -6.63507e-09 2.23987e-09)
(3.28566e-09 -8.38016e-09 2.93497e-09)
(3.86967e-09 -1.01408e-08 3.71157e-09)
(4.40947e-09 -1.19264e-08 4.5907e-09)
(4.89109e-09 -1.3725e-08 5.58497e-09)
(5.28588e-09 -1.54988e-08 6.6933e-09)
(5.54725e-09 -1.71822e-08 7.89298e-09)
(5.61102e-09 -1.86811e-08 9.12891e-09)
(5.40709e-09 -1.98785e-08 1.03094e-08)
(4.89159e-09 -2.06347e-08 1.12946e-08)
(4.11426e-09 -2.0775e-08 1.19311e-08)
(3.31921e-09 -2.00583e-08 1.2105e-08)
(2.94425e-09 -1.85208e-08 1.18705e-08)
(7.4513e-10 -1.77961e-09 5.69215e-10)
(2.07157e-09 -4.9795e-09 1.60772e-09)
(3.27262e-09 -7.96528e-09 2.62044e-09)
(4.37727e-09 -1.08486e-08 3.66855e-09)
(5.40711e-09 -1.37153e-08 4.80468e-09)
(6.3715e-09 -1.66171e-08 6.0727e-09)
(7.26774e-09 -1.9576e-08 7.50739e-09)
(8.07549e-09 -2.2579e-08 9.13018e-09)
(8.75016e-09 -2.55736e-08 1.09414e-08)
(9.21531e-09 -2.84651e-08 1.29084e-08)
(9.35835e-09 -3.11198e-08 1.49523e-08)
(9.03902e-09 -3.33837e-08 1.6937e-08)
(8.13442e-09 -3.5127e-08 1.86724e-08)
(6.66492e-09 -3.63393e-08 1.99629e-08)
(5.04101e-09 -3.72319e-08 2.07207e-08)
(4.20316e-09 -3.81242e-08 2.10709e-08)
(1.02292e-09 -2.41464e-09 7.77141e-10)
(2.84397e-09 -6.75878e-09 2.19529e-09)
(4.49251e-09 -1.08173e-08 3.57642e-09)
(6.0102e-09 -1.47484e-08 5.004e-09)
(7.42575e-09 -1.86684e-08 6.54848e-09)
(8.75667e-09 -2.26584e-08 8.26981e-09)
(1.00033e-08 -2.6757e-08 1.02157e-08)
(1.11443e-08 -3.09586e-08 1.24167e-08)
(1.21271e-08 -3.52086e-08 1.48768e-08)
(1.28553e-08 -3.93972e-08 1.75595e-08)
(1.31755e-08 -4.33596e-08 2.03721e-08)
(1.28714e-08 -4.68918e-08 2.31559e-08)
(1.16936e-08 -4.98063e-08 2.56984e-08)
(9.49127e-09 -5.20424e-08 2.77944e-08)
(6.57509e-09 -5.383e-08 2.9359e-08)
(4.28619e-09 -5.54643e-08 3.03733e-08)
(1.28097e-09 -2.97315e-09 9.66823e-10)
(3.56139e-09 -8.32551e-09 2.73016e-09)
(5.62567e-09 -1.33354e-08 4.44535e-09)
(7.52529e-09 -1.82008e-08 6.2141e-09)
(9.30053e-09 -2.30764e-08 8.12316e-09)
(1.09759e-08 -2.80694e-08 1.02461e-08)
(1.25595e-08 -3.32415e-08 1.26421e-08)
(1.40368e-08 -3.86042e-08 1.53503e-08)
(1.53601e-08 -4.41131e-08 1.83794e-08)
(1.64346e-08 -4.96581e-08 2.16916e-08)
(1.70981e-08 -5.50524e-08 2.51852e-08)
(1.71008e-08 -6.00238e-08 2.86913e-08)
(1.60937e-08 -6.42094e-08 3.19672e-08)
(1.37148e-08 -6.72028e-08 3.47998e-08)
(9.9398e-09 -6.87226e-08 3.70848e-08)
(6.16194e-09 -6.90939e-08 3.867e-08)
(1.51472e-09 -3.43475e-09 1.13434e-09)
(4.2105e-09 -9.62188e-09 3.20179e-09)
(6.64944e-09 -1.54245e-08 5.20908e-09)
(8.89402e-09 -2.10808e-08 7.27323e-09)
(1.0992e-08 -2.67758e-08 9.49368e-09)
(1.29787e-08 -3.26475e-08 1.19552e-08)
(1.48731e-08 -3.87832e-08 1.47258e-08)
(1.6674e-08 -4.52185e-08 1.78515e-08)
(1.83536e-08 -5.1931e-08 2.13442e-08)
(1.98456e-08 -5.88283e-08 2.51635e-08)
(2.10312e-08 -6.57289e-08 2.9205e-08)
(2.17147e-08 -7.23227e-08 3.32627e-08)
(2.16048e-08 -7.81048e-08 3.70675e-08)
(2.03111e-08 -8.22558e-08 4.03474e-08)
(1.74857e-08 -8.36037e-08 4.29644e-08)
(1.37174e-08 -8.16572e-08 4.47802e-08)
(1.71995e-09 -3.78e-09 1.27683e-09)
(4.7802e-09 -1.05942e-08 3.60229e-09)
(7.5467e-09 -1.69997e-08 5.85483e-09)
(1.00891e-08 -2.32659e-08 8.1628e-09)
(1.2465e-08 -2.96089e-08 1.06352e-08)
(1.47177e-08 -3.61921e-08 1.33641e-08)
(1.68784e-08 -4.31294e-08 1.64235e-08)
(1.89634e-08 -5.04829e-08 1.98626e-08)
(2.09724e-08 -5.82592e-08 2.3694e-08)
(2.28862e-08 -6.63995e-08 2.78751e-08)
(2.46665e-08 -7.47623e-08 3.22818e-08)
(2.62594e-08 -8.30906e-08 3.66816e-08)
(2.76191e-08 -9.09545e-08 4.07272e-08)
(2.87493e-08 -9.7633e-08 4.40329e-08)
(2.97085e-08 -1.01943e-07 4.63414e-08)
(3.03094e-08 -1.02544e-07 4.76722e-08)
(1.89388e-09 -3.99268e-09 1.39275e-09)