/*--------------------------------*- C++ -*----------------------------------*\
| =========                 |                                                 |
| \\      /  F ield         | OpenFOAM: The Open Source CFD Toolbox           |
|  \\    /   O peration     | Version:  v1912                                 |
|   \\  /    A nd           | Website:  www.openfoam.com                      |
|    \\/     M anipulation  |                                                 |
\*---------------------------------------------------------------------------*/
FoamFile
{
    version     2.0;
    format      ascii;
    class       surfaceScalarField;
    location    "0.58/fluid";
    object      meshPhi;
}
// * * * * * * * * * * * * * * * * * * * * * * * * * * * * * * * * * * * * * //

dimensions      [0 3 -1 0 0 0 0];
oriented        oriented;


internalField   nonuniform List<scalar> 
41600
(
1.81923e-13
-4.52327e-13
1.69168e-13
-1.74754e-13
3.47076e-13
-1.31779e-12
4.98571e-13
-5.15294e-13
5.01817e-13
-2.12133e-12
8.21456e-13
-8.49809e-13
6.51935e-13
-2.89162e-12
1.15924e-12
-1.20084e-12
8.02998e-13
-3.64817e-12
1.53127e-12
-1.58886e-12
9.60853e-13
-4.40001e-12
1.95564e-12
-2.03335e-12
1.13238e-12
-5.14329e-12
2.44967e-12
-2.55333e-12
1.32672e-12
-5.85652e-12
3.02986e-12
-3.16777e-12
1.55762e-12
-6.49175e-12
3.71144e-12
-3.89556e-12
1.84865e-12
-6.95895e-12
4.5074e-12
-4.75589e-12
2.24457e-12
-7.09791e-12
5.42794e-12
-5.77041e-12
2.83676e-12
-6.62297e-12
6.48254e-12
-6.97232e-12
3.81124e-12
-5.01228e-12
7.68889e-12
-8.43324e-12
5.50123e-12
-1.33048e-12
9.08645e-12
-1.03231e-11
8.05836e-12
5.40954e-12
1.06577e-11
-1.28301e-11
1.67936e-11
1.33943e-11
-1.96815e-11
5.41639e-13
-8.91325e-13
5.03165e-13
-5.19795e-13
1.03323e-12
-2.59733e-12
1.48282e-12
-1.53259e-12
1.49354e-12
-4.18296e-12
2.44279e-12
-2.52713e-12
1.9396e-12
-5.70565e-12
3.4465e-12
-3.57011e-12
2.38779e-12
-7.2055e-12
4.55119e-12
-4.72219e-12
2.8552e-12
-8.70338e-12
5.81049e-12
-6.04097e-12
3.36154e-12
-1.01967e-11
7.27561e-12
-7.58277e-12
3.93213e-12
-1.16518e-11
8.99529e-12
-9.40336e-12
4.60333e-12
-1.29899e-11
1.1014e-11
-1.15577e-11
5.43385e-12
-1.4065e-11
1.33682e-11
-1.40991e-11
6.52822e-12
-1.46305e-11
1.60811e-11
-1.70809e-11
8.0852e-12
-1.4293e-11
1.91585e-11
-2.05676e-11
1.04734e-11
-1.24765e-11
2.2589e-11
-2.46692e-11
1.42612e-11
-8.51324e-12
2.63345e-11
-2.96045e-11
1.94454e-11
-2.44337e-12
3.01517e-11
-3.54249e-11
4.71097e-12
3.31168e-11
-4.30494e-11
8.8924e-13
-1.30381e-12
8.24485e-13
-8.51744e-13
1.69593e-12
-3.80065e-12
2.42942e-12
-2.51096e-12
2.45038e-12
-6.12513e-12
4.00108e-12
-4.13913e-12
3.18002e-12
-8.36389e-12
5.64261e-12
-5.84467e-12
3.91121e-12
-1.05797e-11
7.44702e-12
-7.72612e-12
4.67113e-12
-1.28097e-11
9.50153e-12
-9.87714e-12
5.4902e-12
-1.50612e-11
1.18895e-11
-1.23892e-11
6.40542e-12
-1.7303e-11
1.46903e-11
-1.53527e-11
7.4657e-12
-1.94515e-11
1.79761e-11
-1.88555e-11
8.74134e-12
-2.1349e-11
2.18044e-11
-2.29793e-11
1.03419e-11
-2.2736e-11
2.62037e-11
-2.77934e-11
1.2448e-11
-2.3228e-11
3.11528e-11
-3.33483e-11
1.53424e-11
-2.23392e-11
3.65466e-11
-3.96706e-11
1.93518e-11
-1.96736e-11
4.21342e-11
-4.67425e-11
2.41068e-11
-1.55963e-11
4.73337e-11
-5.41114e-11
-1.10985e-11
5.14056e-11
-6.32253e-11
1.21726e-12
-1.67632e-12
1.12544e-12
-1.16261e-12
2.32066e-12
-4.8886e-12
3.31549e-12
-3.42663e-12
3.35084e-12
-7.8854e-12
5.45794e-12
-5.64588e-12
4.34443e-12
-1.07826e-11
7.69207e-12
-7.96673e-12
5.33661e-12
-1.36674e-11
1.01433e-11
-1.05221e-11
6.36318e-12
-1.6598e-11
1.29295e-11
-1.34382e-11
7.46314e-12
-1.96004e-11
1.61633e-11
-1.68387e-11
8.68146e-12
-2.26616e-11
1.99531e-11
-2.08457e-11
1.00722e-11
-2.57182e-11
2.43983e-11
-2.55784e-11
1.17018e-11
-2.86391e-11
2.95793e-11
-3.11459e-11
1.36534e-11
-3.12025e-11
3.55363e-11
-3.76332e-11
1.60296e-11
-3.30744e-11
4.22315e-11
-4.50758e-11
1.89398e-11
-3.38152e-11
4.94859e-11
-5.34169e-11
2.24287e-11
-3.29915e-11
5.68718e-11
-6.24273e-11
2.604e-11
-3.06395e-11
6.35077e-11
-7.12826e-11
-2.71415e-11
6.82659e-11
-8.09815e-11
1.51896e-12
-1.99559e-12
1.39923e-12
-1.44534e-12
2.89438e-12
-5.82246e-12
4.12079e-12
-4.25855e-12
4.17559e-12
-9.40114e-12
6.77934e-12
-7.01201e-12
5.40701e-12
-1.28758e-11
9.54546e-12
-9.88497e-12
6.63113e-12
-1.63587e-11
1.25726e-11
-1.30399e-11
7.891e-12
-1.99323e-11
1.60046e-11
-1.66309e-11
9.23268e-12
-2.3648e-11
1.99801e-11
-2.08093e-11
1.07076e-11
-2.75229e-11
2.46329e-11
-2.57254e-11
1.2374e-11
-3.15337e-11
3.00896e-11
-3.15279e-11
1.42953e-11
-3.56052e-11
3.64577e-11
-3.8356e-11
1.65339e-11
-3.95928e-11
4.38033e-11
-4.63227e-11
1.91335e-11
-4.32525e-11
5.21057e-11
-5.548e-11
2.20732e-11
-4.61926e-11
6.11721e-11
-6.57498e-11
2.51827e-11
-4.78151e-11
7.0474e-11
-7.67842e-11
2.79054e-11
-4.74908e-11
7.8826e-11
-8.74151e-11
-4.44654e-11
8.46401e-11
-9.81473e-11
1.78877e-12
-2.24898e-12
1.6404e-12
-1.69427e-12
3.40627e-12
-6.56518e-12
4.82902e-12
-4.98985e-12
4.90866e-12
-1.06118e-11
7.93787e-12
-8.20915e-12
6.34637e-12
-1.45587e-11
1.1163e-11
-1.15581e-11
7.7676e-12
-1.8542e-11
1.46802e-11
-1.52228e-11
9.22101e-12
-2.26686e-11
1.86539e-11
-1.93794e-11
1.07586e-11
-2.7018e-11
2.32429e-11
-2.42006e-11
1.24384e-11
-3.1643e-11
2.8602e-11
-2.98592e-11
1.43259e-11
-3.65699e-11
3.48809e-11
-3.65293e-11
1.64935e-11
-4.17972e-11
4.22165e-11
-4.43813e-11
1.90146e-11
-4.72895e-11
5.07136e-11
-5.35697e-11
2.19475e-11
-5.29604e-11
6.04077e-11
-6.42057e-11
2.52862e-11
-5.86158e-11
7.11805e-11
-7.62905e-11
2.88518e-11
-6.37952e-11
8.25601e-11
-8.95442e-11
3.19578e-11
-6.75005e-11
9.32038e-11
-1.02629e-10
-6.69405e-11
1.01119e-10
-1.15774e-10
2.02242e-12
-2.42512e-12
1.84503e-12
-1.90535e-12
3.84821e-12
-7.08333e-12
5.42864e-12
-5.6086e-12
5.53817e-12
-1.14624e-11
8.91427e-12
-9.21737e-12
7.14671e-12
-1.57531e-11
1.25168e-11
-1.29574e-11
8.72568e-12
-2.01118e-11
1.64279e-11
-1.70315e-11
1.03274e-11
-2.4667e-11
2.08258e-11
-2.16303e-11
1.20081e-11
-2.95236e-11
2.58822e-11
-2.69403e-11
1.38313e-11
-3.47675e-11
3.17647e-11
-3.31482e-11
1.58718e-11
-4.04711e-11
3.86385e-11
-4.04443e-11
1.82193e-11
-4.67015e-11
4.6662e-11
-4.90222e-11
2.09844e-11
-5.35319e-11
5.59774e-11
-5.90764e-11
2.43044e-11
-6.1058e-11
6.66907e-11
-7.07949e-11
2.83367e-11
-6.94093e-11
7.88181e-11
-8.43284e-11
3.3186e-11
-7.86935e-11
9.21089e-11
-9.96601e-11
3.82679e-11
-8.84136e-11
1.05346e-10
-1.15612e-10
-9.81394e-11
1.16392e-10
-1.33103e-10
2.21726e-12
2.01098e-12
-2.07637e-12
-2.5146e-12
4.2153e-12
5.91347e-12
-6.10843e-12
-7.34928e-12
6.05718e-12
9.69862e-12
-1.00265e-11
-1.19072e-11
7.79898e-12
1.3593e-11
-1.40686e-11
-1.63935e-11
9.49388e-12
1.77971e-11
-1.84465e-11
-2.09789e-11
1.11953e-11
2.24955e-11
-2.33579e-11
-2.58075e-11
1.29605e-11
2.78639e-11
-2.89934e-11
-3.10027e-11
1.48548e-11
3.40725e-11
-3.5542e-11
-3.66735e-11
1.69574e-11
4.12881e-11
-4.31957e-11
-4.2922e-11
1.93691e-11
4.96726e-11
-5.21512e-11
-4.98548e-11
2.22267e-11
5.93791e-11
-6.26142e-11
-5.75983e-11
2.5726e-11
7.05459e-11
-7.48062e-11
-6.63255e-11
3.01491e-11
8.32702e-11
-8.89662e-11
-7.62867e-11
3.58311e-11
9.74864e-11
-1.05289e-10
-8.78049e-11
4.22597e-11
1.12136e-10
-1.22796e-10
-1.00446e-10
1.2632e-10
-1.44926e-10
-1.17663e-10
1.82339e-13
-4.61759e-13
1.57426e-13
3.47557e-13
-1.34537e-12
4.63776e-13
5.0173e-13
-2.16615e-12
7.63498e-13
6.50281e-13
-2.95379e-12
1.0761e-12
7.98219e-13
-3.72882e-12
1.41899e-12
9.50484e-13
-4.50148e-12
1.80815e-12
1.11245e-12
-5.26956e-12
2.25824e-12
1.29074e-12
-6.01443e-12
2.78225e-12
1.49481e-12
-6.69376e-12
3.39011e-12
1.74065e-12
-7.22944e-12
4.08606e-12
2.05923e-12
-7.48751e-12
4.86382e-12
2.51426e-12
-7.24244e-12
5.69819e-12
3.23263e-12
-6.11349e-12
6.5284e-12
4.41831e-12
-3.49484e-12
7.22243e-12
6.09836e-12
1.10913e-12
7.5309e-12
7.31638e-12
6.98326e-12
5.42953e-13
-9.09807e-13
4.68234e-13
1.03483e-12
-2.65137e-12
1.37932e-12
1.49361e-12
-4.27079e-12
2.27042e-12
1.93528e-12
-5.82753e-12
3.19934e-12
2.37461e-12
-7.36365e-12
4.21764e-12
2.82609e-12
-8.90211e-12
5.37261e-12
3.30513e-12
-1.04432e-11
6.70773e-12
3.82991e-12
-1.1958e-11
8.26148e-12
4.42468e-12
-1.33769e-11
1.00633e-11
5.12726e-12
-1.45732e-11
1.21254e-11
6.00522e-12
-1.53409e-11
1.44277e-11
7.18792e-12
-1.53731e-11
1.68902e-11
8.91063e-12
-1.42715e-11
1.93219e-11
1.14937e-11
-1.16962e-11
2.13286e-11
1.48069e-11
-7.95938e-12
2.22587e-11
-5.15438e-12
2.04719e-11
8.91669e-13
-1.33069e-12
7.67256e-13
1.69915e-12
-3.87924e-12
2.25987e-12
2.45162e-12
-6.25291e-12
3.71884e-12
3.17491e-12
-8.54126e-12
5.23822e-12
3.89293e-12
-1.08097e-11
6.90182e-12
4.62889e-12
-1.3098e-11
8.78659e-12
5.40676e-12
-1.54169e-11
1.09635e-11
6.25284e-12
-1.77407e-11
1.34958e-11
7.19806e-12
-1.99955e-11
1.64325e-11
8.28243e-12
-2.20441e-11
1.97955e-11
9.56383e-12
-2.36688e-11
2.35542e-11
1.11329e-11
-2.45706e-11
2.75801e-11
1.31214e-11
-2.44293e-11
3.15686e-11
1.5635e-11
-2.3127e-11
3.49224e-11
1.83417e-11
-2.12118e-11
3.67593e-11
-2.03084e-11
3.56433e-11
1.22117e-12
-1.7107e-12
1.04738e-12
2.32636e-12
-4.98914e-12
3.08429e-12
3.35484e-12
-8.04889e-12
5.07332e-12
4.34134e-12
-1.10095e-11
7.14152e-12
5.31804e-12
-1.39613e-11
9.40199e-12
6.31596e-12
-1.69654e-11
1.19587e-11
7.36635e-12
-2.00511e-11
1.49082e-11
8.50136e-12
-2.32098e-11
1.83373e-11
9.7537e-12
-2.63864e-11
2.2316e-11
1.11544e-11
-2.94656e-11
2.68809e-11
1.27269e-11
-3.22578e-11
3.20031e-11
1.44745e-11
-3.44942e-11
3.75311e-11
1.63499e-11
-3.58622e-11
4.30935e-11
1.81976e-11
-3.61487e-11
4.7966e-11
1.96581e-11
-3.55683e-11
5.1078e-11
-3.52896e-11
5.08221e-11
1.52479e-12
-2.03634e-12
1.30232e-12
2.90355e-12
-5.94165e-12
3.83384e-12
4.18418e-12
-9.59497e-12
6.30236e-12
5.40912e-12
-1.31447e-11
8.86353e-12
6.61773e-12
-1.67066e-11
1.16557e-11
7.848e-12
-2.0366e-11
1.48063e-11
9.13793e-12
-2.41769e-11
1.84339e-11
1.05257e-11
-2.81593e-11
2.26472e-11
1.20473e-11
-3.22942e-11
2.75374e-11
1.37299e-11
-3.65148e-11
3.31612e-11
1.55743e-11
-4.06925e-11
3.95063e-11
1.75213e-11
-4.46161e-11
4.6428e-11
1.93873e-11
-4.79608e-11
5.3537e-11
2.07944e-11
-5.02615e-11
6.00302e-11
2.12808e-11
-5.10559e-11
6.46199e-11
-5.07586e-11
6.53871e-11
1.79692e-12
-2.29475e-12
1.52698e-12
3.41983e-12
-6.69907e-12
4.4934e-12
4.92357e-12
-1.08296e-11
7.38054e-12
6.35671e-12
-1.48608e-11
1.03674e-11
7.76447e-12
-1.89324e-11
1.36125e-11
9.19084e-12
-2.31542e-11
1.72618e-11
1.06803e-11
-2.76072e-11
2.14514e-11
1.22784e-11
-3.23454e-11
2.63075e-11
1.40306e-11
-3.73954e-11
3.19403e-11
1.59757e-11
-4.27554e-11
3.84283e-11
1.81303e-11
-4.83894e-11
4.57856e-11
2.04544e-11
-5.42098e-11
5.39006e-11
2.27798e-11
-6.00208e-11
6.24156e-11
2.47003e-11
-6.53681e-11
7.05155e-11
2.55755e-11
-6.93155e-11
7.67271e-11
-7.00456e-11
7.88224e-11
2.03321e-12
-2.47437e-12
1.71774e-12
3.86687e-12
-7.22742e-12
5.0522e-12
5.5607e-12
-1.16968e-11
8.28993e-12
7.16756e-12
-1.60782e-11
1.16272e-11
8.73678e-12
-2.05319e-11
1.52369e-11
1.03167e-11
-2.51887e-11
1.92774e-11
1.19572e-11
-3.01546e-11
2.38961e-11
1.37115e-11
-3.55145e-11
2.92303e-11
1.56377e-11
-4.13382e-11
3.54023e-11
1.77983e-11
-4.76859e-11
4.25063e-11
2.02571e-11
-5.46176e-11
5.05813e-11
2.30688e-11
-6.22026e-11
5.95559e-11
2.62479e-11
-7.05183e-11
6.91314e-11
2.96755e-11
-7.95678e-11
7.85394e-11
3.27704e-11
-8.87812e-11
8.61804e-11
-9.70182e-11
8.93866e-11
2.23082e-12
1.87258e-12
-2.56561e-12
4.23941e-12
5.50445e-12
-7.49857e-12
6.08803e-12
9.02121e-12
-1.21502e-11
7.83163e-12
1.26299e-11
-1.67308e-11
9.52143e-12
1.65114e-11
-2.14148e-11
1.12078e-11
2.083e-11
-2.63486e-11
1.2943e-11
2.57369e-11
-3.1656e-11
1.47849e-11
3.13714e-11
-3.74441e-11
1.68001e-11
3.7857e-11
-4.38099e-11
1.90695e-11
4.52903e-11
-5.08493e-11
2.16957e-11
5.37174e-11
-5.86687e-11
2.48137e-11
6.30865e-11
-6.74027e-11
2.85968e-11
7.31427e-11
-7.72282e-11
3.31988e-11
8.31945e-11
-8.83207e-11
3.81163e-11
9.16354e-11
-1.00125e-10
9.52217e-11
-1.14202e-10
1.81986e-13
-4.69915e-13
1.40111e-13
3.46498e-13
-1.36926e-12
4.12611e-13
4.99202e-13
-2.20506e-12
6.78753e-13
6.44975e-13
-3.00782e-12
9.55512e-13
7.88035e-13
-3.79903e-12
1.25782e-12
9.32078e-13
-4.59019e-12
1.59902e-12
1.08046e-12
-5.38118e-12
1.99074e-12
1.23639e-12
-6.15731e-12
2.44224e-12
1.40345e-12
-6.88431e-12
2.95846e-12
1.58702e-12
-7.50114e-12
3.53648e-12
1.79794e-12
-7.91055e-12
4.15912e-12
2.0594e-12
-7.96723e-12
4.78377e-12
2.41455e-12
-7.46579e-12
5.32354e-12
2.91106e-12
-6.1559e-12
5.6224e-12
3.47119e-12
-3.97132e-12
5.48167e-12
-1.16272e-12
4.92103e-12
5.42e-13
-9.25772e-13
4.16745e-13
1.0319e-12
-2.69811e-12
1.22718e-12
1.48648e-12
-4.34685e-12
2.01847e-12
1.92019e-12
-5.93307e-12
2.84092e-12
2.34551e-12
-7.50055e-12
3.73878e-12
2.77337e-12
-9.07442e-12
4.75153e-12
3.21343e-12
-1.06584e-11
5.91375e-12
3.67428e-12
-1.223e-11
7.25299e-12
4.16384e-12
-1.37326e-11
8.78435e-12
4.69121e-12
-1.50661e-11
1.05001e-11
5.27171e-12
-1.60789e-11
1.23511e-11
5.93595e-12
-1.65732e-11
1.42156e-11
6.73405e-12
-1.63528e-11
1.58492e-11
7.68818e-12
-1.53794e-11
1.6833e-11
8.57817e-12
-1.40852e-11
1.66883e-11
-1.38559e-11
1.5144e-11
8.90444e-13
-1.35386e-12
6.82922e-13
1.69507e-12
-3.94702e-12
2.01073e-12
2.44124e-12
-6.3631e-12
3.30636e-12
3.15241e-12
-8.69393e-12
4.65174e-12
3.84901e-12
-1.10071e-11
6.11879e-12
4.54884e-12
-1.33449e-11
7.77184e-12
5.26719e-12
-1.57219e-11
9.66753e-12
6.01616e-12
-1.81188e-11
1.18515e-11
6.80299e-12
-2.04755e-11
1.43505e-11
7.62749e-12
-2.26813e-11
1.71562e-11
8.47836e-12
-2.45723e-11
2.01976e-11
9.32632e-12
-2.59511e-11
2.32957e-11
1.01063e-11
-2.66704e-11
2.60995e-11
1.06724e-11
-2.68331e-11
2.80405e-11
1.07761e-11
-2.69923e-11
2.85314e-11
-2.8141e-11
2.76358e-11
1.22018e-12
-1.74023e-12
9.32339e-13
2.32227e-12
-5.0755e-12
2.74452e-12
3.34328e-12
-8.18912e-12
4.51107e-12
4.31502e-12
-1.12034e-11
6.34268e-12
5.26536e-12
-1.4211e-11
8.3365e-12
6.21873e-12
-1.72753e-11
1.05796e-11
7.1959e-12
-2.04285e-11
1.31491e-11
8.21214e-12
-2.36671e-11
1.61087e-11
9.27251e-12
-2.69454e-11
1.94987e-11
1.03626e-11
-3.01677e-11
2.3317e-11
1.1431e-11
-3.31829e-11
2.74856e-11
1.23588e-11
-3.57965e-11
3.17982e-11
1.29163e-11
-3.78248e-11
3.58515e-11
1.27495e-11
-3.92322e-11
3.90067e-11
1.16579e-11
-4.02838e-11
4.05926e-11
-4.17382e-11
4.0645e-11
1.52467e-12
-2.0712e-12
1.15941e-12
2.90081e-12
-6.04354e-12
3.41193e-12
4.17388e-12
-9.76024e-12
5.60467e-12
5.38314e-12
-1.33727e-11
7.87331e-12
6.56328e-12
-1.6999e-11
1.03368e-11
7.7452e-12
-2.07259e-11
1.31017e-11
8.95578e-12
-2.4609e-11
1.62636e-11
1.02154e-11
-2.86698e-11
1.99025e-11
1.15318e-11
-3.28926e-11
2.40734e-11
1.28857e-11
-3.72173e-11
2.87856e-11
1.42037e-11
-4.15305e-11
3.39667e-11
1.53077e-11
-4.56533e-11
3.94059e-11
1.58418e-11
-4.93271e-11
4.46785e-11
1.52508e-11
-5.22089e-11
4.90947e-11
1.32497e-11
-5.39613e-11
5.18604e-11
-5.48786e-11
5.28867e-11
1.79826e-12
-2.33373e-12
1.35963e-12
3.41979e-12
-6.81299e-12
3.99953e-12
4.91695e-12
-1.10142e-11
6.56462e-12
6.33518e-12
-1.51149e-11
9.21092e-12
7.71508e-12
-1.9257e-11
1.20748e-11
9.09369e-12
-2.35509e-11
1.52787e-11
1.05047e-11
-2.80771e-11
1.89321e-11
1.19768e-11
-3.28875e-11
2.31289e-11
1.35283e-11
-3.80047e-11
2.79368e-11
1.51546e-11
-4.34198e-11
3.33778e-11
1.68018e-11
-4.90851e-11
3.93908e-11
1.83155e-11
-5.48954e-11
4.57719e-11
1.93553e-11
-6.06324e-11
5.20876e-11
1.9324e-11
-6.58347e-11
5.75951e-11
1.77302e-11
-6.96415e-11
6.13526e-11
-7.03946e-11
6.31911e-11
2.03654e-12
-2.51614e-12
1.52974e-12
3.87067e-12
-7.34947e-12
4.49772e-12
5.55983e-12
-1.18945e-11
7.37491e-12
7.15396e-12
-1.635e-11
1.03324e-11
8.69817e-12
-2.08779e-11
1.35192e-11
1.02345e-11
-2.56091e-11
1.70682e-11
1.18031e-11
-3.06473e-11
2.10982e-11
1.34422e-11
-3.60722e-11
2.57114e-11
1.51861e-11
-4.19431e-11
3.09834e-11
1.70587e-11
-4.83019e-11
3.69445e-11
1.90604e-11
-5.51747e-11
4.35422e-11
2.11382e-11
-6.25702e-11
5.05791e-11
2.31321e-11
-7.04553e-11
5.76103e-11
2.46949e-11
-7.86542e-11
6.38178e-11
2.53122e-11
-8.64606e-11
6.80549e-11
-9.26443e-11
6.99463e-11
2.23649e-12
1.66794e-12
-2.60872e-12
4.24784e-12
4.90127e-12
-7.62455e-12
6.09433e-12
8.02716e-12
-1.23542e-11
7.82839e-12
1.12262e-11
-1.7011e-11
9.49762e-12
1.46544e-11
-2.1771e-11
1.1147e-11
1.84498e-11
-2.67798e-11
1.28207e-11
2.27345e-11
-3.2158e-11
1.45638e-11
2.76119e-11
-3.80053e-11
1.64236e-11
3.31582e-11
-4.44047e-11
1.84489e-11
3.94031e-11
-5.14271e-11
2.0689e-11
4.62943e-11
-5.91352e-11
2.31852e-11
5.36341e-11
-6.75848e-11
2.59509e-11
6.0971e-11
-7.68133e-11
2.89056e-11
6.74479e-11
-8.67674e-11
3.15667e-11
7.17795e-11
-9.67292e-11
7.27554e-11
-1.07634e-10
1.81088e-13
-4.76677e-13
1.17976e-13
3.44361e-13
-1.38906e-12
3.47311e-13
4.95015e-13
-2.2373e-12
5.7094e-13
6.37314e-13
-3.05261e-12
8.02862e-13
7.74599e-13
-3.85727e-12
1.05519e-12
9.09238e-13
-4.66389e-12
1.33842e-12
1.04251e-12
-5.4743e-12
1.66123e-12
1.17431e-12
-6.2776e-12
2.02965e-12
1.30276e-12
-7.04704e-12
2.44519e-12
1.42412e-12
-7.73661e-12
2.90153e-12
1.53351e-12
-8.27859e-12
3.37935e-12
1.62686e-12
-8.58381e-12
3.83896e-12
1.70244e-12
-8.54618e-12
4.21232e-12
1.75368e-12
-8.05596e-12
4.40431e-12
1.74425e-12
-7.07844e-12
4.34062e-12
-5.32683e-12
4.28233e-12
5.39446e-13
-9.39011e-13
3.50923e-13
1.02579e-12
-2.73686e-12
1.03301e-12
1.47447e-12
-4.40986e-12
1.69793e-12
1.89814e-12
-6.0204e-12
2.38718e-12
2.30678e-12
-7.61362e-12
3.13664e-12
2.70752e-12
-9.21653e-12
3.97742e-12
3.10413e-12
-1.0836e-11
4.93532e-12
3.49588e-12
-1.24555e-11
6.02845e-12
3.8757e-12
-1.40303e-11
7.26182e-12
4.22827e-12
-1.54832e-11
8.61799e-12
4.52906e-12
-1.67055e-11
1.00424e-11
4.74493e-12
-1.75732e-11
1.14232e-11
4.83547e-12
-1.79959e-11
1.25711e-11
4.75098e-12
-1.80164e-11
1.32304e-11
4.45582e-12
-1.7908e-11
1.3221e-11
-1.8312e-11
1.26128e-11
8.86633e-13
-1.37305e-12
5.75102e-13
1.68588e-12
-4.00315e-12
1.69272e-12
2.42295e-12
-6.45418e-12
2.78155e-12
3.11862e-12
-8.8197e-12
3.90914e-12
3.78943e-12
-1.11689e-11
5.13386e-12
4.44743e-12
-1.35462e-11
6.50645e-12
5.09908e-12
-1.59691e-11
8.06931e-12
5.74274e-12
-1.84245e-11
9.85282e-12
6.36422e-12
-2.08636e-11
1.18673e-11
6.93003e-12
-2.3198e-11
1.40889e-11
7.37846e-12
-2.53035e-11
1.64387e-11
7.6093e-12
-2.70472e-11
1.87543e-11
7.4807e-12
-2.83626e-11
2.07688e-11
6.84813e-12
-2.93836e-11
2.21414e-11
5.78527e-12
-3.04748e-11
2.26563e-11
-3.20934e-11
2.2639e-11
1.21572e-12
-1.76464e-12
7.85225e-13
2.3113e-12
-5.14681e-12
2.31071e-12
3.32105e-12
-8.30456e-12
3.79549e-12
4.27342e-12
-1.13621e-11
5.33082e-12
5.19149e-12
-1.44137e-11
6.99558e-12
6.09264e-12
-1.75242e-11
8.85853e-12
6.98697e-12
-2.07278e-11
1.09777e-11
7.8735e-12
-2.40245e-11
1.33958e-11
8.73273e-12
-2.73757e-11
1.61308e-11
9.51375e-12
-3.06994e-11
1.91589e-11
1.01139e-11
-3.38699e-11
2.23896e-11
1.03507e-11
-3.67333e-11
2.56355e-11
9.94533e-12
-3.91558e-11
2.85938e-11
8.60457e-12
-4.11195e-11
3.08927e-11
6.49311e-12
-4.27674e-11
3.22845e-11
-4.44857e-11
3.30628e-11
1.52026e-12
-2.09992e-12
9.766e-13
2.8896e-12
-6.12736e-12
2.87304e-12
4.15047e-12
-9.8956e-12
4.71632e-12
5.33836e-12
-1.35579e-11
6.61833e-12
6.48275e-12
-1.72337e-11
8.67566e-12
7.60691e-12
-2.10102e-11
1.09727e-11
8.72629e-12
-2.49428e-11
1.35813e-11
9.84435e-12
-2.90528e-11
1.65559e-11
1.09436e-11
-3.33241e-11
1.99229e-11
1.19688e-11
-3.76976e-11
2.36628e-11
1.27984e-11
-4.20627e-11
2.76825e-11
1.31999e-11
-4.62472e-11
3.17827e-11
1.27877e-11
-5.00013e-11
3.56403e-11
1.10969e-11
-5.29838e-11
3.88539e-11
8.21282e-12
-5.48226e-11
4.1113e-11
-5.55942e-11
4.26427e-11
1.79464e-12
-2.36574e-12
1.14543e-12
3.40992e-12
-6.90632e-12
3.36838e-12
4.89513e-12
-1.11646e-11
5.52507e-12
6.29187e-12
-1.53199e-11
7.74419e-12
7.63551e-12
-1.95148e-11
1.01366e-11
8.95546e-12
-2.3859e-11
1.27993e-11
1.02742e-11
-2.84307e-11
1.58147e-11
1.16041e-11
-3.32769e-11
1.92468e-11
1.29395e-11
-3.84117e-11
2.31296e-11
1.42421e-11
-4.38129e-11
2.7448e-11
1.54138e-11
-4.94111e-11
3.21082e-11
1.62503e-11
-5.50668e-11
3.69006e-11
1.63861e-11
-6.05126e-11
4.14732e-11
1.53145e-11
-6.52357e-11
4.53681e-11
1.29086e-11
-6.83887e-11
4.81884e-11
-6.83498e-11
5.01695e-11
2.03433e-12
-2.55032e-12
1.28896e-12
3.86354e-12
-7.44906e-12
3.78862e-12
5.54206e-12
-1.20547e-11
6.20821e-12
7.11622e-12
-1.65676e-11
8.68896e-12
8.62617e-12
-2.11499e-11
1.1352e-11
1.01069e-11
-2.59308e-11
1.43028e-11
1.15882e-11
-3.10092e-11
1.76309e-11
1.30934e-11
-3.64565e-11
2.14058e-11
1.46352e-11
-4.23168e-11
2.56653e-11
1.62075e-11
-4.86066e-11
3.0396e-11
1.77694e-11
-5.53103e-11
3.55004e-11
1.92191e-11
-6.23676e-11
4.07525e-11
2.03623e-11
-6.964e-11
4.57538e-11
2.09131e-11
-7.68232e-11
4.9941e-11
2.06912e-11
-8.32077e-11
5.27678e-11
-8.77062e-11
5.44629e-11
2.23619e-12
1.40564e-12
-2.64389e-12
4.24451e-12
4.12928e-12
-7.72698e-12
6.08251e-12
6.75859e-12
-1.25188e-11
7.79934e-12
9.44273e-12
-1.72342e-11
9.4382e-12
1.23088e-11
-2.20488e-11
1.10378e-11
1.54663e-11
-2.71059e-11
1.26334e-11
1.90073e-11
-3.252e-11
1.42573e-11
2.30021e-11
-3.83797e-11
1.59379e-11
2.74876e-11
-4.47495e-11
1.76984e-11
3.24472e-11
-5.1669e-11
1.95513e-11
3.77766e-11
-5.91498e-11
2.1491e-11
4.32335e-11
-6.71672e-11
2.34866e-11
4.83787e-11
-7.56398e-11
2.54786e-11
5.25554e-11
-8.43757e-11
2.72604e-11
5.50696e-11
-9.26917e-11
5.56636e-11
-1.01613e-10
1.79913e-13
-4.82e-13
9.19061e-14
3.41705e-13
-1.40464e-12
2.70482e-13
4.90116e-13
-2.26265e-12
4.4438e-13
6.28824e-13
-3.08784e-12
6.2432e-13
7.60338e-13
-3.90302e-12
8.19428e-13
8.85843e-13
-4.72162e-12
1.03737e-12
1.00488e-12
-5.54695e-12
1.28419e-12
1.1148e-12
-6.37086e-12
1.56352e-12
1.20997e-12
-7.17188e-12
1.87514e-12
1.28132e-12
-7.91357e-12
2.21258e-12
1.31669e-12
-8.54441e-12
2.56004e-12
1.30312e-12
-8.99994e-12
2.8893e-12
1.23211e-12
-9.20346e-12
3.1593e-12
1.10671e-12
-9.05613e-12
3.32546e-12
9.50618e-13
-8.45001e-12
3.36737e-12
-6.86168e-12
3.53421e-12
5.36072e-13
-9.49449e-13
2.73388e-13
1.01816e-12
-2.76741e-12
8.04543e-13
1.46034e-12
-4.45947e-12
1.32164e-12
1.87359e-12
-6.08902e-12
1.85643e-12
2.26551e-12
-7.70214e-12
2.43595e-12
2.63984e-12
-9.32715e-12
3.08297e-12
2.99545e-12
-1.09732e-11
3.81545e-12
3.32446e-12
-1.26281e-11
4.6444e-12
3.60962e-12
-1.42549e-11
5.5696e-12
3.82174e-12
-1.57907e-11
6.57296e-12
3.91888e-12
-1.7149e-11
7.60975e-12
3.851e-12
-1.82353e-11
8.60009e-12
3.57701e-12
-1.89791e-11
9.42803e-12
3.10574e-12
-1.93843e-11
9.96736e-12
2.57534e-12
-1.95574e-11
1.01602e-11
-1.98485e-11
1.00103e-11
8.81482e-13
-1.38819e-12
4.48071e-13
1.67418e-12
-4.04741e-12
1.31846e-12
2.40118e-12
-6.52583e-12
2.16532e-12
3.08061e-12
-8.91818e-12
3.04031e-12
3.72541e-12
-1.12947e-11
3.9874e-12
4.34249e-12
-1.37012e-11
5.04381e-12
4.93097e-12
-1.61572e-11
6.2391e-12
5.47878e-12
-1.86533e-11
7.59195e-12
5.95747e-12
-2.11477e-11
9.10374e-12
6.31553e-12
-2.35643e-11
1.07487e-11
6.47218e-12
-2.57972e-11
1.24611e-11
6.31768e-12
-2.77339e-11
1.41246e-11
5.73957e-12
-2.93102e-11
1.55739e-11
4.7204e-12
-3.05986e-11
1.66367e-11
3.57148e-12
-3.18065e-11
1.72367e-11
-3.32223e-11
1.75301e-11
1.20941e-12
-1.78388e-12
6.11848e-13
2.29685e-12
-5.20295e-12
1.80004e-12
3.29393e-12
-8.3951e-12
2.95501e-12
4.22576e-12
-1.14857e-11
4.14655e-12
5.11098e-12
-1.45699e-11
5.43409e-12
5.96067e-12
-1.77132e-11
6.86814e-12
6.77608e-12
-2.09506e-11
8.48924e-12
7.54403e-12
-2.42833e-11
1.0324e-11
8.22909e-12
-2.76757e-11
1.23773e-11
8.76204e-12
-3.10506e-11
1.46202e-11
9.02493e-12
-3.42893e-11
1.69759e-11
8.83932e-12
-3.72425e-11
1.93076e-11
7.98677e-12
-3.97648e-11
2.14269e-11
6.34693e-12
-4.17823e-11
2.31469e-11
4.32723e-12
-4.33393e-11
2.43722e-11
-4.4743e-11
2.52152e-11
1.5135e-12
-2.12251e-12
7.61075e-13
2.87395e-12
-6.19317e-12
2.23841e-12
4.1207e-12
-1.00013e-11
3.67247e-12
5.28556e-12
-1.37013e-11
5.14881e-12
6.39309e-12
-1.74127e-11
6.74025e-12
7.45973e-12
-2.12227e-11
8.50887e-12
8.49148e-12
-2.51851e-11
1.05049e-11
9.47908e-12
-2.93188e-11
1.27624e-11
1.03892e-11
-3.36042e-11
1.52906e-11
1.115e-11
-3.79764e-11
1.80603e-11
1.16298e-11
-4.23162e-11
2.09882e-11
1.16113e-11
-4.64359e-11
2.39241e-11
1.07897e-11
-5.00584e-11
2.66613e-11
8.89636e-12
-5.28002e-11
2.89944e-11
6.24985e-12
-5.42652e-11
3.07919e-11
-5.45425e-11
3.21219e-11
1.78817e-12
-2.39086e-12
8.92779e-13
3.39465e-12
-6.97933e-12
2.62474e-12
4.86549e-12
-1.12815e-11
4.30291e-12
6.23852e-12
-1.54773e-11
6.0257e-12
7.5441e-12
-1.97093e-11
7.87679e-12
8.8048e-12
-2.40855e-11
9.92746e-12
1.00338e-11
-2.86802e-11
1.22356e-11
1.12311e-11
-3.35341e-11
1.48411e-11
1.23763e-11
-3.86508e-11
1.77566e-11
1.34166e-11
-4.3991e-11
2.09526e-11
1.42468e-11
-4.94597e-11
2.4339e-11
1.46828e-11
-5.48793e-11
2.77485e-11
1.44453e-11
-5.99345e-11
3.09427e-11
1.32278e-11
-6.40744e-11
3.36715e-11
1.11304e-11
-6.65037e-11
3.5761e-11
-6.57961e-11
3.73145e-11
2.02882e-12
-2.57705e-12
1.00481e-12
3.85008e-12
-7.52669e-12
2.95266e-12
5.51507e-12
-1.21786e-11
4.83573e-12
7.06645e-12
-1.67337e-11
6.76207e-12
8.53961e-12
-2.13532e-11
8.82316e-12
9.96304e-12
-2.61635e-11
1.10966e-11
1.13579e-11
-3.12579e-11
1.36453e-11
1.27362e-11
-3.66977e-11
1.65122e-11
1.40974e-11
-4.25108e-11
1.97112e-11
1.54221e-11
-4.8688e-11
2.32103e-11
1.66635e-11
-5.51743e-11
2.69098e-11
1.77374e-11
-6.18536e-11
3.0618e-11
1.85256e-11
-6.852e-11
3.40457e-11
1.89248e-11
-7.48255e-11
3.68554e-11
1.89745e-11
-8.01634e-11
3.87938e-11
-8.3753e-11
4.00369e-11
2.23215e-12
1.09592e-12
-2.67132e-12
4.23401e-12
3.21863e-12
-7.80658e-12
6.06017e-12
5.26529e-12
-1.26457e-11
7.75643e-12
7.3501e-12
-1.74036e-11
9.36166e-12
9.56915e-12
-2.22547e-11
1.09088e-11
1.20032e-11
-2.73387e-11
1.24253e-11
1.47167e-11
-3.27632e-11
1.39335e-11
1.7753e-11
-3.86048e-11
1.54503e-11
2.1124e-11
-4.49083e-11
1.6987e-11
2.47935e-11
-5.16835e-11
1.85493e-11
2.86514e-11
-5.88975e-11
2.01424e-11
3.24836e-11
-6.64659e-11
2.17917e-11
3.59536e-11
-7.424e-11
2.35806e-11
3.8637e-11
-8.1995e-11
2.54956e-11
4.01861e-11
-8.91888e-11
4.05455e-11
-9.71371e-11
1.78727e-13
-4.85887e-13
6.28652e-14
3.39095e-13
-1.41603e-12
1.84974e-13
4.85452e-13
-2.28122e-12
3.03769e-13
6.20977e-13
-3.11366e-12
4.26491e-13
7.47509e-13
-3.93649e-12
5.59212e-13
8.65321e-13
-4.76361e-12
7.06925e-13
9.7274e-13
-5.59919e-12
8.73394e-13
1.06552e-12
-6.43674e-12
1.06064e-12
1.13616e-12
-7.2576e-12
1.26795e-12
1.17375e-12
-8.02972e-12
1.49054e-12
1.16527e-12
-8.70742e-12
1.71812e-12
1.09991e-12
-9.23109e-12
1.93409e-12
9.77845e-13
-9.52129e-12
2.11698e-12
8.21192e-13
-9.45633e-12
2.24707e-12
6.74591e-13
-8.87928e-12
2.3158e-12
-7.21981e-12
2.49734e-12
5.32665e-13
-9.57122e-13
1.87012e-13
1.01065e-12
-2.78987e-12
5.50243e-13
1.44687e-12
-4.49596e-12
9.03527e-13
1.85087e-12
-6.13939e-12
1.26829e-12
2.22831e-12
-7.7668e-12
1.66252e-12
2.58037e-12
-9.40723e-12
2.10106e-12
2.90245e-12
-1.10712e-11
2.59513e-12
3.18228e-12
-1.27487e-11
3.15085e-12
3.3976e-12
-1.4407e-11
3.76644e-12
3.51488e-12
-1.59888e-11
4.4284e-12
3.49171e-12
-1.74145e-11
5.10741e-12
3.28814e-12
-1.85911e-11
5.75592e-12
2.89495e-12
-1.94315e-11
6.3116e-12
2.38363e-12
-1.98834e-11
6.71361e-12
1.94556e-12
-1.99696e-11
6.93029e-12
-1.99889e-11
6.91701e-12
8.76251e-13
-1.39937e-12
3.06535e-13
1.6626e-12
-4.08005e-12
9.01826e-13
2.38029e-12
-6.57857e-12
1.48049e-12
3.04524e-12
-8.99035e-12
2.07734e-12
3.66744e-12
-1.13862e-11
2.72168e-12
4.24989e-12
-1.38125e-11
3.43776e-12
4.78658e-12
-1.62896e-11
4.24409e-12
5.2591e-12
-1.881e-11
5.15115e-12
5.63231e-12
-2.13346e-11
6.15718e-12
5.85018e-12
-2.37907e-11
7.24247e-12
5.83558e-12
-2.6075e-11
8.36353e-12
5.50213e-12
-2.80696e-11
9.45004e-12
4.79771e-12
-2.96824e-11
1.0411e-11
3.80794e-12
-3.09194e-11
1.11587e-11
2.90192e-12
-3.19173e-11
1.16429e-11
-3.29729e-11
1.19043e-11
1.2029e-12
-1.7981e-12
4.18628e-13
2.28237e-12
-5.24437e-12
1.23138e-12
3.26764e-12
-8.46164e-12
2.02068e-12
4.18102e-12
-1.15759e-11
2.83355e-12
5.03753e-12
-1.46825e-11
3.7096e-12
5.84346e-12
-1.78472e-11
4.68177e-12
6.59391e-12
-2.11045e-11
5.7755e-12
7.26839e-12
-2.44554e-11
7.00584e-12
7.82454e-12
-2.78634e-11
8.37224e-12
8.19026e-12
-3.12497e-11
9.85175e-12
8.25729e-12
-3.44909e-11
1.13922e-11
7.88443e-12
-3.74243e-11
1.29098e-11
6.93754e-12
-3.98729e-11
1.42986e-11
5.42382e-12
-4.17083e-11
1.54611e-11
3.79028e-12
-4.29403e-11
1.63306e-11
-4.39251e-11
1.69129e-11
1.50636e-12
-2.1392e-12
5.208e-13
2.85792e-12
-6.24165e-12
1.53148e-12
4.09135e-12
-1.00787e-11
2.51164e-12
5.23532e-12
-1.38053e-11
3.51892e-12
6.31039e-12
-1.75407e-11
4.60188e-12
7.32778e-12
-2.13711e-11
5.80105e-12
8.28695e-12
-2.53484e-11
7.14799e-12
9.17121e-12
-2.94882e-11
8.66198e-12
9.94082e-12
-3.37652e-11
1.03442e-11
1.05234e-11
-3.8106e-11
1.217e-11
1.0802e-11
-4.23775e-11
1.4081e-11
1.06068e-11
-4.63709e-11
1.5982e-11
9.73224e-12
-4.97791e-11
1.77533e-11
8.04958e-12
-5.21876e-11
1.9284e-11
5.89877e-12
-5.32144e-11
2.04852e-11
-5.30381e-11
2.13377e-11
1.78103e-12
-2.40936e-12
6.11011e-13
3.37846e-12
-7.03298e-12
1.79605e-12
4.8355e-12
-1.13667e-11
2.94321e-12
6.18675e-12
-1.55909e-11
4.11881e-12
7.45846e-12
-1.9847e-11
5.37867e-12
8.66798e-12
-2.42412e-11
6.76938e-12
9.82199e-12
-2.88439e-11
8.32728e-12
1.09134e-11
-3.36891e-11
1.00749e-11
1.19164e-11
-3.87699e-11
1.20145e-11
1.27789e-11
-4.40312e-11
1.41195e-11
1.34131e-11
-4.93553e-11
1.63241e-11
1.36861e-11
-5.45358e-11
1.85174e-11
1.34219e-11
-5.92291e-11
2.05551e-11
1.24563e-11
-6.2879e-11
2.22966e-11
1.09044e-11
-6.47605e-11
2.36336e-11
-6.36313e-11
2.45822e-11
2.02227e-12
-2.59671e-12
6.87771e-13
3.83499e-12
-7.58357e-12
2.0207e-12
5.48666e-12
-1.22687e-11
3.30809e-12
7.01675e-12
-1.68528e-11
4.62281e-12
8.45673e-12
-2.14958e-11
6.02594e-12
9.83011e-12
-2.63211e-11
7.56822e-12
1.11519e-11
-3.14165e-11
9.28902e-12
1.24278e-11
-3.6834e-11
1.12125e-11
1.36521e-11
-4.25869e-11
1.33408e-11
1.48069e-11
-4.86447e-11
1.56438e-11
1.5862e-11
-5.49229e-11
1.80461e-11
1.67807e-11
-6.12713e-11
2.04158e-11
1.75414e-11
-6.74562e-11
2.25703e-11
1.81755e-11
-7.31421e-11
2.43125e-11
1.87438e-11
-7.78361e-11
2.54963e-11
-8.09824e-11
2.62125e-11
2.22668e-12
7.50217e-13
-2.69144e-12
4.22107e-12
2.20295e-12
-7.86476e-12
6.03514e-12
3.60238e-12
-1.27376e-11
7.71174e-12
5.02556e-12
-1.75244e-11
9.28614e-12
6.53669e-12
-2.2398e-11
1.07867e-11
8.18861e-12
-2.74944e-11
1.22354e-11
1.00217e-11
-3.29145e-11
1.36489e-11
1.20598e-11
-3.87243e-11
1.50394e-11
1.43036e-11
-4.49519e-11
1.6419e-11
1.67188e-11
-5.15829e-11
1.78069e-11
1.92205e-11