/*--------------------------------*- C++ -*----------------------------------*\
| =========                 |                                                 |
| \\      /  F ield         | OpenFOAM: The Open Source CFD Toolbox           |
|  \\    /   O peration     | Version:  v1912                                 |
|   \\  /    A nd           | Website:  www.openfoam.com                      |
|    \\/     M anipulation  |                                                 |
\*---------------------------------------------------------------------------*/
FoamFile
{
    version     2.0;
    format      ascii;
    class       volScalarField;
    location    "0.58/fluid";
    object      p;
}
// * * * * * * * * * * * * * * * * * * * * * * * * * * * * * * * * * * * * * //

dimensions      [0 2 -2 0 0 0 0];


internalField   nonuniform List<scalar> 
14592
(
0.0556828
0.0500829
0.048204
0.0466271
0.0457165
0.0449953
0.0444151
0.0439056
0.0434213
0.0430244
0.0425799
0.0423593
0.041854
0.0421022
0.041292
0.0433142
0.0514979
0.0497568
0.0480875
0.0467436
0.0458293
0.045096
0.0444969
0.0439793
0.0434952
0.0431089
0.0426816
0.042501
0.0420347
0.0424368
0.0416114
0.044627
0.0495258
0.0489128
0.0476834
0.0466883
0.0458417
0.0451321
0.0445219
0.0439953
0.0435072
0.0431286
0.0427227
0.0425937
0.0421905
0.0427694
0.0420065
0.0457377
0.0483399
0.0481871
0.0473243
0.0465669
0.0458054
0.045127
0.0445108
0.0439719
0.0434718
0.04309
0.042692
0.0426004
0.0422512
0.0429797
0.0423343
0.0464496
0.0476349
0.0476058
0.0469694
0.0463671
0.045684
0.0450399
0.0444232
0.0438686
0.043343
0.0429319
0.0425006
0.0423844
0.0420042
0.0427702
0.042133
0.0465259
0.0471682
0.0471774
0.0466828
0.0461734
0.0455462
0.0449255
0.0443065
0.0437349
0.0431834
0.0427437
0.0422861
0.0421647
0.0418007
0.0426984
0.0422244
0.0471193
0.0468641
0.0468811
0.0464593
0.0459968
0.0453981
0.0447823
0.0441467
0.0435394
0.0429329
0.0424135
0.041844
0.041562
0.0409578
0.0415554
0.0405339
0.0454748
0.0466814
0.0467004
0.0463088
0.0458628
0.0452699
0.0446452
0.0439872
0.0433443
0.0426914
0.0421125
0.0414809
0.0411381
0.040512
0.0412715
0.0405125
0.047807
0.0555869
0.049989
0.0481471
0.046611
0.0457537
0.0450917
0.0445788
0.0441456
0.04375
0.0434524
0.0431263
0.043007
0.042641
0.0427961
0.0421019
0.0428056
0.0514021
0.0496611
0.0480296
0.0467271
0.045867
0.0451937
0.0446625
0.0442221
0.0438275
0.0435413
0.0432322
0.0431482
0.0428097
0.043059
0.0423146
0.0434445
0.0494263
0.0488119
0.0476193
0.0466654
0.0458735
0.0452245
0.0446827
0.0442336
0.0438347
0.0435561
0.0432662
0.0432308
0.0429439
0.0433359
0.0426082
0.0441273
0.0482381
0.0480834
0.0472564
0.0465392
0.0458316
0.0452132
0.0446646
0.0442024
0.0437904
0.0435079
0.0432237
0.0432246
0.0429832
0.0435078
0.0428623
0.0446184
0.0475302
0.0474989
0.0468972
0.0463339
0.0457031
0.0451174
0.0445662
0.0440856
0.043644
0.0433278
0.0430021
0.0429718
0.0426799
0.0432281
0.0425357
0.0444985
0.0470607
0.0470677
0.0466069
0.0461353
0.0455586
0.0449944
0.0444382
0.0439376
0.043466
0.0431177
0.0427599
0.0427245
0.042439
0.043133
0.0425687
0.0450122
0.046753
0.0467678
0.046379
0.0459531
0.0454027
0.0448406
0.0442639
0.0437221
0.0431875
0.0427491
0.0422613
0.0420477
0.0414752
0.0418525
0.0405948
0.0430944
0.0465664
0.0465834
0.046224
0.0458135
0.045267
0.0446934
0.0440906
0.0435087
0.0429214
0.0424175
0.0418591
0.0415871
0.0409857
0.0415891
0.0405589
0.0455113
0.0555281
0.0499319
0.0481182
0.0466157
0.0458042
0.0451961
0.0447482
0.0443935
0.044098
0.0439257
0.0437777
0.0438748
0.0438798
0.0443908
0.0445315
0.0453679
0.0513434
0.0496027
0.0480002
0.0467318
0.0459184
0.0452997
0.0448345
0.0444738
0.0441809
0.0440223
0.0438942
0.0440294
0.0440682
0.0446667
0.0448002
0.0459602
0.049364
0.0487486
0.047584
0.046664
0.0459192
0.0453254
0.04485
0.044481
0.0441839
0.0440334
0.0439245
0.0441106
0.044205
0.0449538
0.0451479
0.0466541
0.0481733
0.0480172
0.0472171
0.046533
0.0458718
0.045308
0.0448251
0.0444425
0.0441313
0.0439768
0.0438728
0.0440984
0.0442403
0.0451322
0.0454249
0.0471608
0.047462
0.0474292
0.0468535
0.0463219
0.0457362
0.0452035
0.0447159
0.0443123
0.0439677
0.0437753
0.0436224
0.0438119
0.0438891
0.0448032
0.0450204
0.0469556
0.0469893
0.0469949
0.0465592
0.0461182
0.0455849
0.0450717
0.0445764
0.0441496
0.0437703
0.0435413
0.043348
0.0435286
0.0435949
0.0446589
0.044959
0.0473774
0.046678
0.0466913
0.0463269
0.0459302
0.0454211
0.0449073
0.0443874
0.0439139
0.0434626
0.0431315
0.0427865
0.0427632
0.0424794
0.0431767
0.0425914
0.0450247
0.0464875
0.046503
0.0461674
0.045785
0.0452777
0.0447497
0.0441999
0.0436807
0.0431688
0.0427621
0.0423288
0.0422305
0.041873
0.0427846
0.0422863
0.0471978
0.0554932
0.049898
0.0481054
0.0466287
0.0458527
0.0452859
0.0448868
0.0445874
0.0443564
0.0442513
0.0441841
0.0443363
0.0444281
0.0448931
0.0451011
0.0456914
0.0513085
0.0495678
0.047987
0.046745
0.0459677
0.0453908
0.0449749
0.0446701
0.0444424
0.0443515
0.0443043
0.0444921
0.0446134
0.045144
0.0453299
0.0461434
0.0493259
0.0487094
0.0475657
0.0466718
0.0459633
0.0454118
0.044986
0.0446731
0.0444406
0.0443569
0.0443258
0.0445595
0.0447254
0.0453829
0.0456061
0.0466909
0.0481326
0.0479752
0.0471951
0.0465363
0.0459108
0.0453889
0.044955
0.0446277
0.04438
0.0442912
0.0442622
0.0445327
0.0447374
0.0455259
0.0458241
0.0471083
0.0474181
0.0473839
0.0468271
0.04632
0.0457687
0.0452766
0.0448364
0.0444862
0.0442019
0.0440721
0.043988
0.0442173
0.0443429
0.0451437
0.0453324
0.0468004
0.0469424
0.0469465
0.0465291
0.0461114
0.0456113
0.0451371
0.0446872
0.0443115
0.0439894
0.04382
0.0436902
0.0439091
0.0440129
0.0449648
0.0452058
0.0471523
0.0466275
0.0466395
0.0462927
0.0459182
0.0454407
0.0449637
0.0444863
0.0440601
0.0436606
0.043383
0.0430905
0.0430971
0.0428255
0.0434038
0.0426913
0.0446443
0.0464334
0.0464478
0.0461292
0.045768
0.0452908
0.0447976
0.0442874
0.0438122
0.0433474
0.0429897
0.0426021
0.0425329
0.0421764
0.0429858
0.0423253
0.0467601
0.0554753
0.049881
0.0481047
0.0466486
0.0459014
0.0453693
0.0450128
0.0447635
0.0445945
0.0445594
0.0445844
0.0448249
0.0450543
0.0455915
0.0459825
0.0465123
0.0512907
0.0495501
0.0479861
0.0467652
0.0460173
0.0454756
0.045103
0.0448492
0.0446846
0.0446651
0.0447119
0.0449892
0.04525
0.0458473
0.0462197
0.0469288
0.0493052
0.0486882
0.0475606
0.0466875
0.0460087
0.0454929
0.0451105
0.0448488
0.0446791
0.0446664
0.0447275
0.0450483
0.0453479
0.046061
0.0464622
0.0474112
0.0481097
0.0479514
0.0471867
0.0465481
0.0459518
0.0454651
0.0450742
0.0447977
0.0446118
0.0445935
0.0446548
0.0450111
0.0453449
0.0461843
0.0466493
0.0477864
0.0473923
0.0473572
0.046815
0.0463271
0.0458041
0.0453462
0.0449475
0.0446462
0.0444213
0.0443591
0.0443602
0.0446714
0.0449155
0.0457608
0.0460933
0.0474075
0.0469138
0.046917
0.0465136
0.0461143
0.0456412
0.0451998
0.0447896
0.0444607
0.0441948
0.0440901
0.0440399
0.0443373
0.044548
0.0455413
0.0458984
0.0476872
0.0465959
0.046607
0.0462735
0.0459166
0.0454646
0.0450185
0.0445781
0.0441954
0.043847
0.043628
0.0434046
0.0434799
0.0432906
0.0438955
0.0432372
0.0450134
0.0463987
0.0464122
0.0461064
0.0457618
0.0453088
0.0448447
0.0443689
0.0439338
0.0435151
0.0432104
0.0428825
0.0428744
0.0425802
0.0434099
0.0427525
0.0469987
0.0554667
0.049873
0.0481081
0.0466664
0.0459395
0.0454313
0.0451033
0.0448858
0.0447532
0.0447537
0.0448197
0.0450841
0.045349
0.0458652
0.0462723
0.0467456
0.0512821
0.0495416
0.0479894
0.0467832
0.0460559
0.0455386
0.0451948
0.0449731
0.0448454
0.0448619
0.04495
0.0452503
0.0455454
0.0461151
0.0464991
0.0471248
0.0492945
0.0486769
0.0475606
0.0467021
0.046044
0.0455528
0.0451995
0.0449699
0.0448366
0.0448591
0.0449593
0.0452996
0.0456267
0.0463008
0.046701
0.0475462
0.0480971
0.0479382
0.0471841
0.0465597
0.0459838
0.0455214
0.0451591
0.0449143
0.044764
0.0447801
0.0448785
0.0452524
0.045608
0.0464022
0.0468533
0.0478791
0.0473774
0.0473415
0.0468095
0.0463351
0.0458317
0.0453973
0.0450262
0.0447556
0.0445645
0.0445349
0.0445696
0.0448955
0.0451536
0.0459482
0.04625
0.0474489
0.0468968
0.0468992
0.0465054
0.046119
0.0456647
0.0452458
0.044862
0.0445624
0.0443284
0.0442545
0.0442348
0.0445452
0.0447631
0.0457035
0.046013
0.0476851
0.0465763
0.0465867
0.0462624
0.0459177
0.0454835
0.0450587
0.044643
0.0442875
0.0439682
0.0437771
0.043579
0.043664
0.0434712
0.0440191
0.0432846
0.0449336
0.0463767
0.0463895
0.0460926
0.0457596
0.0453234
0.0448793
0.0444266
0.0440167
0.0436245
0.0433453
0.0430388
0.0430391
0.0427346
0.0435091
0.0427568
0.0468705
0.0554638
0.0498705
0.0481131
0.0466813
0.0459683
0.0454768
0.0451693
0.0449753
0.0448709
0.0449009
0.0450031
0.0452964
0.0456022
0.0461284
0.0465693
0.0470173
0.0512792
0.0495388
0.0479944
0.0467983
0.0460852
0.045585
0.045262
0.0450643
0.0449652
0.045012
0.0451371
0.045467
0.0458037
0.0463816
0.0467993
0.0473853
0.0492901
0.0486722
0.0475634
0.0467149
0.0460711
0.0455972
0.0452648
0.0450592
0.0449545
0.0450069
0.0451429
0.0455111
0.045876
0.0465524
0.0469796
0.0477746
0.0480914
0.0479321
0.0471852
0.0465704
0.0460085
0.0455632
0.0452216
0.0450006
0.0448784
0.0449239
0.0450569
0.0454577
0.0458479
0.0466411
0.0471122
0.0480839
0.0473702
0.0473338
0.0468085
0.0463433
0.0458534
0.0454355
0.0450844
0.0448368
0.0446725
0.0446711
0.0447381
0.0450888
0.0453765
0.0461666
0.0464778
0.0476206
0.0468879
0.0468899
0.0465026
0.0461249
0.0456834
0.0452803
0.0449156
0.044638
0.0444294
0.0443822
0.0443921
0.0447257
0.0449678
0.0459013
0.0462083
0.0478232
0.0465658
0.0465757
0.0462575
0.0459211
0.045499
0.0450891
0.0446913
0.0443562
0.04406
0.0438933
0.0437209
0.0438257
0.043649
0.0441851
0.0434277
0.045011
0.0463644
0.0463768
0.0460857
0.0457605
0.0453358
0.0449057
0.0444696
0.0440786
0.0437072
0.0434501
0.0431655
0.0431828
0.0428875
0.0436475
0.0428558
0.0468995
0.0554626
0.0498702
0.0481158
0.046689
0.0459822
0.0454984
0.0451999
0.0450156
0.044922
0.0449618
0.0450747
0.0453725
0.0456853
0.0462039
0.0466469
0.047085
0.0512785
0.0495379
0.0479972
0.0468059
0.0460993
0.0456068
0.0452928
0.0451048
0.0450165
0.0450729
0.0452082
0.0455418
0.0458843
0.0464525
0.0468716
0.0474425
0.0492883
0.0486704
0.0475652
0.0467213
0.0460841
0.0456179
0.0452945
0.0450985
0.0450042
0.0450656
0.0452107
0.0455809
0.0459489
0.0466117
0.0470369
0.0478129
0.0480892
0.0479295
0.0471861
0.0465758
0.0460203
0.0455826
0.0452499
0.0450383
0.0449262
0.0449803
0.0451218
0.0455236
0.0459151
0.0466925
0.0471579
0.0481089
0.0473671
0.0473303
0.0468084
0.0463474
0.0458637
0.0454532
0.0451107
0.0448722
0.0447175
0.0447242
0.0447987
0.0451499
0.0454369
0.0462098
0.0465107
0.0476317
0.046884
0.0468857
0.0465015
0.0461278
0.0456923
0.0452963
0.0449398
0.0446709
0.0444713
0.044432
0.0444486
0.0447821
0.0450215
0.0459366
0.0462275
0.0478192
0.046561
0.0465706
0.0462554
0.0459227
0.0455064
0.0451032
0.0447131
0.0443862
0.0440984
0.0439389
0.0437722
0.0438767
0.0436954
0.0442124
0.0434324
0.044989
0.0463588
0.0463709
0.0460826
0.045761
0.0453417
0.0449179
0.044489
0.0441056
0.043742
0.0434915
0.0432116
0.0432281
0.0429262
0.0436658
0.042844
0.0468551
0.06506
0.05433
0.0507078
0.0477424
0.0460294
0.0446746
0.0435877
0.0425806
0.0415877
0.0405647
0.0394365
0.0382243
0.0367885
0.035253
0.0333554
0.0314391
0.0607834
0.053568
0.0503197
0.0476404
0.0459875
0.044666
0.043591
0.0425921
0.0416079
0.0405941
0.0394758
0.0382767
0.0368554
0.0353378
0.033455
0.0315497
0.0587881
0.0525376
0.0496974
0.0473548
0.0458293
0.0445882
0.0435459
0.042566
0.041594
0.0405904
0.0394843
0.0383001
0.0369007
0.0354082
0.0335557
0.0316739
0.0575386
0.0517278
0.0492243
0.0471125
0.0457
0.0445235
0.0435063
0.0425376
0.0415697
0.0405678
0.0394658
0.0382881
0.036902
0.0354257
0.0335963
0.031735
0.0567941
0.0511147
0.0488168
0.0468574
0.0455403
0.0444225
0.0434329
0.0424761
0.0415111
0.040508
0.0394056
0.0382284
0.0368502
0.0353843
0.0335781
0.0317404
0.0563052
0.0506758
0.0485113
0.0466472
0.0453979
0.0443214
0.0433519
0.0424023
0.0414366
0.0404294
0.0393243
0.0381453
0.0367743
0.0353184
0.0335404
0.0317313
0.0559974
0.0503831
0.0482897
0.0464777
0.0452688
0.0442165
0.0432581
0.0423092
0.0413376
0.040321
0.0392075
0.0380193
0.0366493
0.0351961
0.0334473
0.031669
0.0558248
0.0502154
0.0481531
0.0463627
0.0451702
0.0441254
0.0431683
0.0422142
0.0412336
0.0402066
0.0390855
0.0378903
0.0365263
0.0350813
0.0333706
0.0316296
0.0607829
0.0535652
0.0503134
0.0476293
0.0459709
0.0446423
0.0435628
0.0425583
0.0415603
0.0405302
0.0393907
0.0381697
0.0367162
0.035175
0.0332472
0.0313437
0.0565733
0.0531524
0.050088
0.0476299
0.0459911
0.0446705
0.0435857
0.0425787
0.04158
0.0405506
0.0394135
0.0381977
0.036752
0.0352233
0.0333118
0.0314223
0.0545756
0.0522119
0.0495385
0.0474105
0.0458751
0.0446168
0.0435532
0.0425578
0.0415649
0.0405406
0.0394119
0.0382072
0.0367804
0.0352723
0.033386
0.0315166
0.0533399
0.05142
0.0490947
0.0471989
0.04577
0.044569
0.0435249
0.0425359
0.0415432
0.0405188
0.0393929
0.0381939
0.0367798
0.0352874
0.0334239
0.031575
0.0526012
0.0508026
0.0486934
0.0469525
0.0456179
0.044474
0.0434557
0.0424774
0.0414867
0.0404609
0.039335
0.038137
0.0367315
0.0352497
0.0334097
0.0315837
0.0521154
0.050358
0.0483886
0.0467449
0.0454787
0.0443762
0.0433776
0.0424063
0.0414156
0.0403867
0.0392596
0.0380614
0.0366655
0.0351957
0.0333863
0.0315889
0.051809
0.0500618
0.0481667
0.0465763
0.0453511
0.0442731
0.0432855
0.0423152
0.0413199
0.0402825
0.0391483
0.0379424
0.0365494
0.0350833
0.033306
0.0315388
0.051637
0.0498929
0.0480303
0.0464625
0.0452543
0.0441843
0.0431977
0.0422228
0.0412203
0.040174
0.0390345
0.0378239
0.0364404
0.0349856
0.0332513
0.0315215
0.0588052
0.0525534
0.049718
0.0473801
0.0458616
0.0446284
0.0436021
0.0426369
0.0416648
0.0406606
0.039536
0.0383336
0.0368558
0.035302
0.0332246
0.0312391
0.0545949
0.0522327
0.0495696
0.0474526
0.0459313
0.0446894
0.043649
0.0426765
0.0416994
0.0406945
0.0395721
0.0383754
0.0369063
0.0353659
0.0333036
0.0313338
0.0525985
0.0513597
0.0491077
0.0473267
0.0458839
0.0446805
0.0436451
0.0426744
0.0416968
0.0406937
0.0395787
0.0383928
0.0369428
0.0354217
0.0333784
0.0314191
0.0513787
0.0505986
0.0487089
0.0471645
0.045818
0.0446604
0.0436345
0.0426634
0.0416816
0.0406757
0.0395625
0.0383823
0.0369459
0.0354413
0.0334203
0.0314809
0.0506503
0.0499937
0.0483296
0.0469434
0.045687
0.0445801
0.0435736
0.042608
0.0416247
0.0406145
0.0394992
0.038318
0.0368893
0.0353941
0.033398
0.031483
0.0501707
0.0495533
0.0480337
0.0467463
0.0455567
0.0444883
0.0434977
0.0425358
0.0415504
0.040535
0.0394173
0.0382354
0.036818
0.0353375
0.0333808
0.0315019
0.049867
0.049258
0.0478147
0.0465814
0.045432
0.0443862
0.043403
0.0424391
0.0414465
0.0404192
0.0392909
0.0380966
0.0366801
0.0352005
0.0332861
0.0314448
0.0496953
0.0490885
0.0476787
0.0464681
0.0453349
0.0442959
0.043311
0.0423401
0.0413389
0.0403003
0.0391649
0.0379642
0.0365599
0.0350945
0.0332414
0.0314506
0.0575743
0.0517628
0.0492771
0.0471856
0.0458008
0.0446563
0.0436814
0.0427563
0.0418172
0.0408492
0.0397477
0.038577
0.0370683
0.0355056
0.0331985
0.0311022
0.0533785
0.0514603
0.0491598
0.047292
0.0458989
0.0447399
0.0437444
0.0428071
0.041861
0.0408917
0.039793
0.0386297
0.037132
0.0355883
0.0332956
0.0312164
0.0513974
0.0506172
0.0487422
0.0472156
0.0458918
0.0447607
0.0437604
0.0428176
0.0418671
0.0408979
0.0398065
0.0386547
0.0371769
0.0356509
0.033365
0.0312766
0.0501935
0.049876
0.0483679
0.0470802
0.0458478
0.0447562
0.0437593
0.0428116
0.0418543
0.0408807
0.0397909
0.0386454
0.0371826
0.0356746
0.033408
0.0313363
0.0494761
0.049283
0.0480031
0.0468745
0.0457291
0.0446838
0.0437019
0.0427559
0.0417936
0.0408128
0.0397183
0.0385693
0.0371122
0.0356115
0.0333703
0.0313243
0.0490033
0.0488487
0.0477138
0.0466839
0.0456035
0.0445938
0.0436251
0.0426804
0.0417133
0.0407251
0.0396269
0.0384764
0.0370334
0.0355517
0.0333636
0.0313665
0.0487025
0.0485558
0.0474973
0.0465209
0.0454792
0.0444897
0.043526
0.0425763
0.0415979
0.0405927
0.0394787
0.0383087
0.0368625
0.0353754
0.0332453
0.0312968
0.0485311
0.0483863
0.047361
0.0464068
0.0453803
0.0443956
0.0434286
0.0424697
0.0414796
0.0404597
0.0393364
0.0381575
0.0367282
0.0352607
0.0332226
0.03135
0.0568489
0.0511703
0.0489099
0.0469958
0.0457405
0.0446951
0.0437936
0.0429355
0.0420592
0.0411639
0.0401258
0.0390402
0.0375409
0.036028
0.0334252
0.0311881
0.0526592
0.0508629
0.0487988
0.0471119
0.0458485
0.0447882
0.0438647
0.0429937
0.0421112
0.0412163
0.0401834
0.0391099
0.0376268
0.0361435
0.0335556
0.0313298
0.0506875
0.0500304
0.0484016
0.04706
0.0458628
0.044826
0.0438927
0.0430126
0.0421243
0.0412294
0.0402053
0.0391461
0.0376849
0.0362189
0.0336158
0.0313468
0.0494944
0.0493008
0.0480414
0.0469399
0.0458315
0.0448306
0.0438968
0.0430087
0.0421115
0.0412116
0.0401896
0.0391388
0.0376955
0.0362522
0.0336641
0.0314079
0.0487855
0.0487168
0.0476867
0.0467446
0.045721
0.0447628
0.0438398
0.0429493
0.0420434
0.0411323
0.0401019
0.0390438
0.0376032
0.0361654
0.0336039
0.0313791
0.048318
0.0482878
0.0474027
0.0465586
0.0455981
0.0446727
0.0437598
0.0428669
0.0419525
0.0410304
0.0399937
0.0389326
0.0375091
0.0360981
0.0336117
0.0314623
0.0480194
0.0479969
0.047188
0.0463964
0.0454727
0.0445646
0.043653
0.04275
0.0418181
0.0408708
0.0398085
0.0387144
0.0372769
0.0358464
0.033438
0.0313578
0.0478474
0.0478268
0.0470506
0.0462803
0.0453703
0.0444644
0.0435466
0.0426302
0.0416816
0.0407132
0.039636
0.0385265
0.0371083
0.0357036
0.0334324
0.0314821
0.0563667
0.0507392
0.0486362
0.0468475
0.0457015
0.0447457
0.0439197
0.0431349
0.0423301
0.0415179
0.0405523
0.039562
0.0380617
0.0365884
0.0335366
0.0310757
0.05218
0.0504247
0.0485247
0.0469656
0.0458129
0.0448424
0.0439943
0.0431973
0.0423875
0.0415777
0.04062
0.0396476
0.0381694
0.0367392
0.0336828
0.0311734
0.0502126
0.0495934
0.0481328
0.0469211
0.0458345
0.0448863
0.0440263
0.0432191
0.0424033
0.0415945
0.0406477
0.0396935
0.0382376
0.0368198
0.0336924
0.0310429
0.0490257
0.0488691
0.0477779
0.0468062
0.0458071
0.0448929
0.0440302
0.0432132
0.0423874
0.0415734
0.0406293
0.0396863
0.0382503
0.0368592
0.033729
0.0310666
0.0483217
0.0482896
0.0474276
0.0466146
0.0456984
0.0448247
0.0439696
0.0431467
0.0423083
0.041479
0.0405219
0.0395667
0.0381279
0.0367387
0.0336321
0.0310068
0.0478572
0.0478636
0.0471459
0.0464297
0.0455747
0.0447317
0.0438837
0.0430549
0.0422044
0.0413605
0.0403943
0.0394354
0.0380185
0.0366701
0.0336733
0.0311713
0.0475592
0.0475733
0.046931
0.0462661
0.0454459
0.0446175
0.0437672
0.0429228
0.0420477
0.0411689
0.0401648
0.0391554
0.0377085
0.036321
0.0334339
0.0310426
0.0473858
0.0474017
0.0467916
0.046147
0.0453385
0.0445103
0.0436506
0.0427882
0.041891
0.0409846
0.0399602
0.0389307
0.0375115
0.0361722
0.0335072
0.031375
0.0560472
0.0504368
0.0484362
0.0467385
0.0456858
0.0448166
0.0440756
0.0433822
0.0426793
0.0419975
0.0411807
0.040408
0.0390973
0.037956
0.0347349
0.0323469
0.0518618
0.0501169
0.0483228
0.0468561
0.0457981
0.0449149
0.0441529
0.0434489
0.0427428
0.0420665
0.0412615
0.0405148
0.0392343
0.0381578
0.0349077
0.0323836
0.0498948
0.0492828
0.0479295
0.0468112
0.0458199
0.044959
0.0441849
0.0434707
0.0427592
0.042086
0.0412951
0.0405745
0.0393223
0.0382711
0.0349078
0.0321579
0.0487105
0.04856
0.0475755
0.0466966
0.045792
0.0449639
0.0441856
0.0434605
0.0427383
0.0420602
0.0412739
0.0405708
0.0393458
0.03834
0.0349653
0.0321809
0.0480082
0.0479821
0.0472261
0.0465048
0.0456815
0.0448916
0.044118
0.0433835
0.0426445
0.0419465
0.0411412
0.0404212
0.0391866
0.038185
0.034831
0.0320963
0.0475446
0.0475568
0.0469443
0.0463186
0.0455548
0.0447932
0.0440232
0.043279
0.0425234
0.041806
0.0409868
0.0402614
0.039051
0.0381106
0.0349031
0.0323654
0.0472458
0.0472656
0.0467278
0.0461519
0.0454207
0.0446707
0.0438934
0.0431271
0.0423374
0.0415712
0.0406936
0.0398874
0.0386062
0.0375752
0.0344647
0.0320839
0.0470699
0.0470917
0.0465854
0.0460286
0.045307
0.0445543
0.0437633
0.0429732
0.0421535
0.0413492
0.040439
0.0395983
0.0383372
0.0373683
0.034553
0.0326711
0.0558281
0.0502247
0.0482952
0.0466653
0.0456889
0.0448957
0.0442334
0.0436257
0.0430173
0.0424495
0.0417554
0.0411384
0.0399321
0.0389181
0.0352602
0.0323294
0.051643
0.049901
0.0481799
0.0467823
0.0458014
0.0449949
0.0443127
0.0436955
0.0430852
0.0425252
0.0418449
0.0412587
0.0400791
0.0391213
0.0352708
0.0316697
0.049674
0.0490623
0.0477818
0.046733
0.0458194
0.0450356
0.0443418
0.0437149
0.0430998
0.0425443
0.04188
0.0413246
0.0401688
0.0392243
0.0351233
0.0308629
0.0484897
0.0483387
0.047426
0.0466157
0.045788
0.0450362
0.0443371
0.0436985
0.0430719
0.0425119
0.0418524
0.041319
0.040191
0.0392974
0.035141
0.0306968
0.0477868
0.0477598
0.0470746
0.0464206
0.0456729
0.0449574
0.0442604
0.0436092
0.0429616
0.0423769
0.0416915
0.0411352
0.0399858
0.0390942
0.0349469
0.030546
0.0473223
0.0473335
0.046791
0.0462312
0.0455413
0.0448518
0.0441555
0.0434912
0.0428228
0.0422149
0.0415113
0.0409509
0.0398303
0.0390311
0.0350894
0.0309709
0.0470212
0.0470402
0.0465715
0.04606
0.0454008
0.0447197
0.0440117
0.043319
0.0426075
0.0419377
0.0411556
0.0404863
0.0392509
0.0383115
0.0344542
0.0305049
0.0468422
0.0468631
0.0464254
0.0459317
0.0452802
0.0445937
0.043868
0.0431463
0.0423982
0.0416825
0.0408602
0.0401545
0.0389514
0.0381467
0.0347445
0.0316547
0.046608
0.0466283
0.0462301
0.0457715
0.0451592
0.0445062
0.0438086
0.0431088
0.0423769
0.0416729
0.0408562
0.0401513
0.038938
0.0381157
0.0346617
0.0314985
0.0466478
0.0466681
0.0462292
0.0457341
0.045081
0.0443884
0.0436494
0.0429004
0.0421119
0.0413302
0.0404328
0.039597
0.0383253
0.0373373
0.0344678
0.0325298
0.0468117
0.0468249
0.0462999
0.0457377
0.0450233
0.0442759
0.043487
0.0426819
0.0418282
0.0409533
0.0399471
0.038925
0.0374949
0.0361345
0.0334167
0.0312335
0.0471543
0.0471308
0.0464518
0.0457777
0.0449818
0.044177
0.0433449
0.0424984
0.0416033
0.0406741
0.0396205
0.0385218
0.0370957
0.0356718
0.033355
0.0313593
0.0477447
0.0475969
0.0466777
0.0458313
0.0449323
0.0440646
0.0431972
0.0423174
0.0413888
0.040414
0.0393187
0.0381533
0.0367189
0.0352344
0.0331573
0.0312438
0.0488449
0.0482364
0.0469403
0.0458471
0.0448525
0.0439396
0.043065
0.0421807
0.0412451
0.040255
0.0391501
0.0379645
0.0365573
0.0350763
0.0331892
0.0313604
0.0507435
0.0490012
0.0472594
0.0458154
0.0447514
0.04381
0.0429384
0.0420571
0.0411249
0.0401297
0.0390225
0.0378281
0.0364432
0.0349742
0.0332095
0.0314439
0.0549316
0.0493337
0.0473956
0.0457299
0.0446808
0.0437637
0.0429175
0.042056
0.0411477
0.0401705
0.0390806
0.0379004
0.0365341
0.0350741
0.0333326
0.0315549
0.0464885
0.0465069
0.0461401
0.0457159
0.045148
0.0445427
0.0438958
0.04325
0.0425735
0.0419298
0.0411628
0.0405007
0.0392513
0.0382875
0.0343407
0.030276
0.0465238
0.0465424
0.0461343
0.0456727
0.045062
0.0444144
0.0437224
0.0430223
0.0422824
0.041553
0.0406972
0.0399015
0.0386054
0.0375473
0.0343466
0.0318757
0.0466829
0.0466945
0.0462
0.0456705
0.0449969
0.0442912
0.0435452
0.0427831
0.0419702
0.0411367
0.0401593
0.0391619
0.0376996
0.0362825
0.033313
0.0308452
0.0470209
0.0469959
0.046347
0.0457048
0.0449489
0.0441838
0.0433914
0.0425837
0.0417242
0.0408299
0.0397999
0.0387213
0.0372729
0.0358163
0.0333397
0.0311935
0.0476073
0.0474582
0.0465687
0.0457536
0.0448932
0.0440635
0.0432329
0.0423878
0.0414902
0.0405441
0.039467
0.0383155
0.0368628
0.0353533
0.0331679
0.0311625
0.0487045
0.0480951
0.0468287
0.0457665
0.0448095
0.0439338
0.0430943
0.0422423
0.0413351
0.0403706
0.0392821
0.0381084
0.0366887
0.0351897
0.0332291
0.0313366
0.0506019
0.0488597
0.0471478
0.0457341
0.0447065
0.0438001
0.0429621
0.042112
0.0412062
0.0402344
0.0391421
0.0379582
0.0365647
0.0350818
0.0332649
0.031451
0.0547902
0.0491942
0.0472859
0.0456507
0.0446383
0.0437558
0.0429436
0.0421145
0.0412339
0.0402816
0.0392088
0.0380416
0.0366703
0.0351994
0.0334107
0.0315846
0.0464053
0.0464223
0.0460783
0.0456812
0.0451503
0.0445874
0.0439884
0.0433979
0.0427843
0.0422185
0.0415406
0.0409954
0.0398542
0.0390176
0.0349187
0.0305934
0.0464364
0.0464537
0.046068
0.0456322
0.0450566
0.0444486
0.0438003
0.0431491
0.042463
0.041798
0.0410108
0.0403028
0.039071
0.0380907
0.0347335
0.0320417
0.0465912
0.0466016
0.0461291
0.0456248
0.0449841
0.0443148
0.0436082
0.0428884
0.0421195
0.0413358
0.0404057
0.0394642
0.0380254
0.0366348
0.0335091
0.0308869
0.0469252
0.0468991
0.0462717
0.0456539
0.0449301
0.0441989
0.0434425
0.042672
0.0418498
0.0409955
0.0400008
0.0389608
0.0375224
0.0360758
0.0334887
0.0312419
0.0475082
0.0473581
0.0464898
0.0456983
0.0448686
0.0440711
0.0432732
0.0424609
0.0415947
0.0406805
0.0396292
0.0385032
0.0370519
0.0355414
0.0332759
0.0311999
0.0486029
0.0479929
0.0467475
0.0457086
0.0447813
0.0439366
0.0431281
0.0423059
0.0414269
0.0404896
0.0394221
0.0382673
0.036847
0.0353432
0.0333252
0.0313786
0.0504994
0.0487573
0.0470664
0.0456755
0.0446766
0.043799
0.0429903
0.0421686
0.0412885
0.0403408
0.0392664
0.0380975
0.0367028
0.0352141
0.0333548
0.0314979
0.0546879
0.0490932
0.0472061
0.0455938
0.0446103
0.0437564
0.0429739
0.0421744
0.0413203
0.0403931
0.0393396
0.0381887
0.0368184
0.0353428
0.0335152
0.0316452
0.0463475
0.0463632
0.0460357
0.0456588
0.0451564
0.044626
0.0440632
0.043512
0.0429389
0.0424141
0.0417688
0.0412418
0.04007
0.0391317
0.0347362
0.0299927
0.0463749
0.0463911
0.0460214
0.0456049
0.0450563
0.0444789
0.0438639
0.0432483
0.0425978
0.0419686
0.0412081
0.040517
0.0392577
0.0382072
0.0346282
0.031655
0.0465261
0.0465356
0.0460788
0.0455931
0.0449777
0.0443368
0.0436606
0.0429723
0.0422338
0.0414797
0.0405695
0.0396399
0.0381742
0.0367313
0.0334379
0.030637
0.0468569
0.0468298
0.0462177
0.0456182
0.0449189
0.0442142
0.0434858
0.0427437
0.0419483
0.0411195
0.0401415
0.039112
0.0376539
0.0361728
0.0334722
0.0311138
0.0474371
0.0472862
0.0464329
0.045659
0.0448528
0.0440806
0.0433085
0.0425216
0.0416789
0.0407865
0.0397492
0.0386319
0.037166
0.0356315
0.0332882
0.031139
0.0485298
0.0479192
0.0466888
0.0456673
0.0447628
0.0439426
0.0431587
0.0423602
0.0415028
0.0405854
0.0395309
0.0383844
0.0369544
0.0354334
0.0333604
0.0313604
0.0504256
0.0486835
0.0470077
0.0456338
0.0446568
0.0438019
0.0430167
0.0422178
0.0413582
0.040429
0.0393669
0.0382061
0.036805
0.0353038
0.0334043
0.0315061
0.0546142
0.0490205
0.0471487
0.0455536
0.0445923
0.0437609
0.0430023
0.0422269
0.0413941
0.0404867
0.0394473
0.0383065
0.0369325
0.0354465
0.0335817
0.0316703
0.0463094
0.0463243
0.0460091
0.045648
0.0451683
0.0446649
0.0441334
0.0436178
0.0430843
0.0426038
0.0420035
0.0415206
0.0403712
0.0394183
0.0348639
0.0298257
0.0463337
0.0463493
0.0459914
0.0455897
0.0450625
0.0445102
0.0439237
0.04334
0.0427236
0.0421319
0.0414067
0.0407499
0.0395
0.0384345
0.0347209
0.0315546
0.0464819
0.0464907
0.0460455
0.0455739
0.0449785
0.0443608
0.0437102
0.0430498
0.0423401
0.0416164
0.0407326
0.0398271
0.0383612
0.0369021
0.0335
0.0305685
0.04681
0.0467824
0.0461814
0.0455959
0.0449155
0.0442322
0.0435272
0.0428099
0.0420392
0.0412356
0.0402782
0.0392668
0.0378061
0.0363116
0.0335335
0.0310895
0.0473879
0.0472366
0.0463942
0.0456336
0.0448455
0.0440935
0.0433427
0.0425776
0.0417563
0.0408849
0.0398639
0.03876
0.037291
0.0357457
0.0333474
0.0311399
0.0484791
0.0478681
0.0466486
0.0456401
0.0447529
0.0439522
0.0431885
0.04241
0.0415719
0.040673
0.0396325
0.0384971
0.0370645
0.0355346
0.0334213
0.0313777
0.0503742
0.0486321
0.0469672
0.0456061
0.0446458
0.0438089
0.0430427
0.042263
0.0414212
0.0405089
0.0394593
0.0383082
0.0369056
0.0353972
0.0334675
0.0315349
0.0545629
0.04897
0.0471092
0.045527
0.0445827
0.043769
0.0430298
0.0422745
0.0414603
0.0405706
0.0395447
0.0384147
0.0370406
0.0355485
0.0336554
0.0317093
0.0462849
0.0462991
0.0459923
0.0456423
0.0451784
0.0446936
0.0441832
0.0436905
0.0431801
0.0427215
0.0421372
0.041659
0.0404876
0.0394741
0.0347676
0.0295072
0.0463068
0.0463218
0.045972
0.0455807
0.0450686
0.0445336
0.0439666
0.0434036
0.0428076
0.0422352
0.0415231
0.0408706
0.0396002
0.0384883
0.0346555
0.0313444
0.0464527
0.0464611
0.0460238
0.0455621
0.0449806
0.0443791
0.0437463
0.0431044
0.0424125
0.0417053
0.0408319
0.0399301
0.0384466
0.0369528
0.0334602
0.0304289
0.0467788
0.0467507
0.0461574
0.0455816
0.0449146
0.0442464
0.0435578
0.0428572
0.0421023
0.0413134
0.040365
0.0393573
0.0378833
0.0363644
0.0335226
0.031012
0.0473551
0.0472033
0.0463684
0.0456171
0.044842
0.0441042
0.0433684
0.0426185
0.0418113
0.0409528
0.0399398
0.0388399
0.0373615
0.0357994
0.0333563
0.0311031
0.0484451
0.0478338
0.0466217
0.0456223
0.0447475
0.0439608
0.0432114
0.042447
0.0416221
0.0407352
0.0397025
0.0385713
0.0371325
0.0355904
0.0334443
0.0313661
0.0503397
0.0485976
0.0469402
0.045588
0.0446396
0.0438155
0.0430631
0.0422971
0.0414678
0.0405669
0.0395251
0.0383787
0.036972
0.0354546
0.0335003
0.0315402
0.0545285
0.0489361
0.0470829
0.0455099
0.0445775
0.0437767
0.0430515
0.0423107
0.0415096
0.0406322
0.0396151
0.0384909
0.0371142
0.0356144
0.033698
0.0317244
0.0462708
0.0462846
0.0459833
0.0456407
0.0451876
0.0447158
0.0442205
0.0437448
0.0432526
0.0428129
0.0422457
0.04178
0.040607
0.0395688
0.0347771
0.0293686
0.0462911
0.0463057
0.0459612
0.0455768
0.0450749
0.044552
0.0439987
0.0434509
0.0428709
0.0423147
0.0416163
0.0409737
0.0396992
0.0385671
0.0346651
0.0312595
0.0464354
0.0464435
0.0460114
0.0455562
0.0449841
0.0443938
0.0437734
0.043145
0.0424668
0.0417733
0.0409107
0.0400165
0.0385281
0.0370186
0.0334724
0.0303751
0.0467601
0.0467318
0.0461434
0.0455741
0.044916
0.044258
0.0435808
0.0428922
0.0421493
0.041372
0.0404324
0.0394308
0.0379526
0.0364221
0.0335418
0.0309867
0.0473353
0.0471833
0.0463532
0.0456079
0.0448414
0.0441133
0.0433878
0.0426487
0.041852
0.0410035
0.0399979
0.0389032
0.0374217
0.0358512
0.0333808
0.0310967
0.0484244
0.047813
0.0466056
0.0456122
0.0447456
0.0439682
0.0432287
0.0424742
0.0416589
0.0407811
0.039755
0.0386285
0.0371875
0.035639
0.0334726
0.0313709
0.0503188
0.0485766
0.046924
0.0455776
0.0446371
0.0438216
0.0430785
0.042322
0.0415017
0.0406093
0.0395737
0.0384317
0.0370237
0.0355016
0.0335316
0.0315529
0.0545076
0.0489156
0.0470672
0.0455001
0.0445757
0.0437834
0.0430677
0.042337
0.0415452
0.0406767
0.0396663
0.0385472
0.03717
0.0356659
0.0337347
0.0317422
0.0462643
0.0462778
0.0459792