/*--------------------------------*- C++ -*----------------------------------*\
| =========                 |                                                 |
| \\      /  F ield         | OpenFOAM: The Open Source CFD Toolbox           |
|  \\    /   O peration     | Version:  v1912                                 |
|   \\  /    A nd           | Website:  www.openfoam.com                      |
|    \\/     M anipulation  |                                                 |
\*---------------------------------------------------------------------------*/
FoamFile
{
    version     2.0;
    format      ascii;
    class       surfaceScalarField;
    location    "0.58/fluid";
    object      phi;
}
// * * * * * * * * * * * * * * * * * * * * * * * * * * * * * * * * * * * * * //

dimensions      [0 3 -1 0 0 0 0];
oriented        oriented;


internalField   nonuniform List<scalar> 
41600
(
5.02307e-05
1.24682e-05
3.60223e-07
-5.59089e-07
4.04991e-05
1.00798e-05
5.55107e-07
-9.03284e-07
3.35836e-05
7.27991e-06
3.86003e-07
-7.50489e-07
2.95392e-05
4.3542e-06
-1.83682e-08
-2.91395e-07
2.72506e-05
2.51454e-06
-5.95264e-07
3.69332e-07
2.59279e-05
1.46372e-06
-1.30502e-06
1.16396e-06
2.50356e-05
9.56135e-07
-2.16209e-06
2.09831e-06
2.42828e-05
7.40614e-07
-3.20643e-06
3.21857e-06
2.35114e-05
6.7591e-07
-4.50453e-06
4.60006e-06
2.26209e-05
6.69318e-07
-6.14861e-06
6.3698e-06
2.1535e-05
6.72724e-07
-8.29001e-06
8.7032e-06
2.01138e-05
5.97565e-07
-1.10726e-05
1.18963e-05
1.81429e-05
4.41695e-07
-1.4893e-05
1.64223e-05
1.50215e-05
-1.42245e-07
-1.94671e-05
2.27307e-05
9.47004e-06
-6.55174e-07
-2.48487e-05
3.10553e-05
-3.17587e-06
-2.04365e-05
3.30824e-05
6.49591e-05
1.02852e-05
4.75457e-07
-7.51573e-07
6.40439e-05
1.15104e-05
7.46196e-07
-1.26168e-06
6.20892e-05
9.82154e-06
5.21351e-07
-1.10826e-06
5.99743e-05
7.0121e-06
-9.10803e-08
-4.51883e-07
5.81458e-05
4.77493e-06
-1.02248e-06
5.90524e-07
5.66256e-05
3.28345e-06
-2.2191e-06
1.91961e-06
5.5271e-05
2.47943e-06
-3.69467e-06
3.52593e-06
5.39108e-05
2.14038e-06
-5.51156e-06
5.47202e-06
5.23906e-05
2.09741e-06
-7.77954e-06
7.87828e-06
5.05451e-05
2.22327e-06
-1.06585e-05
1.09501e-05
4.81974e-05
2.43841e-06
-1.43963e-05
1.49783e-05
4.49876e-05
2.63442e-06
-1.92655e-05
2.04384e-05
4.04369e-05
2.77786e-06
-2.58232e-05
2.80377e-05
3.31088e-05
2.4738e-06
-3.37349e-05
3.84471e-05
2.15195e-05
1.87534e-06
-4.21263e-05
5.1185e-05
-1.26176e-06
-3.39175e-05
5.35228e-05
6.63379e-05
6.74197e-06
5.07101e-07
-8.01769e-07
6.87142e-05
9.69526e-06
7.96513e-07
-1.35761e-06
6.97665e-05
9.41866e-06
5.58625e-07
-1.20807e-06
6.97327e-05
7.65731e-06
-9.51555e-08
-5.16293e-07
6.91158e-05
5.88903e-06
-1.09675e-06
5.99566e-07
6.81868e-05
4.56734e-06
-2.39588e-06
2.04106e-06
6.70547e-05
3.82229e-06
-4.00864e-06
3.79782e-06
6.57031e-05
3.55952e-06
-6.00322e-06
5.93571e-06
6.40467e-05
3.66811e-06
-8.49825e-06
8.58396e-06
6.19275e-05
4.04663e-06
-1.16713e-05
1.19671e-05
5.91248e-05
4.62782e-06
-1.57906e-05
1.64038e-05
5.51872e-05
5.31745e-06
-2.11736e-05
2.24281e-05
4.9489e-05
6.07592e-06
-2.84075e-05
3.08077e-05
4.03121e-05
6.48738e-06
-3.72198e-05
4.23831e-05
2.59285e-05
6.20386e-06
-4.65481e-05
5.66031e-05
2.34722e-06
-3.78696e-05
6.01891e-05
6.51686e-05
4.3698e-06
5.23134e-07
-8.19586e-07
6.80173e-05
7.41735e-06
8.2964e-07
-1.40043e-06
7.01112e-05
7.98736e-06
5.98634e-07
-1.26126e-06
7.11748e-05
7.21863e-06
-5.04166e-08
-5.74491e-07
7.14391e-05
6.13462e-06
-1.04541e-06
5.35527e-07
7.1131e-05
5.24191e-06
-2.33628e-06
1.96989e-06
7.04078e-05
4.7665e-06
-3.93905e-06
3.71802e-06
6.93167e-05
4.72699e-06
-5.92211e-06
5.84577e-06
6.78185e-05
5.08784e-06
-8.4028e-06
8.48125e-06
6.57731e-05
5.80135e-06
-1.15617e-05
1.18523e-05
6.29483e-05
6.83954e-06
-1.56662e-05
1.62793e-05
5.88485e-05
8.14967e-06
-2.10549e-05
2.23224e-05
5.27653e-05
9.71204e-06
-2.83158e-05
3.07629e-05
4.28611e-05
1.10789e-05
-3.72616e-05
4.25743e-05
2.72201e-05
1.14277e-05
-4.68273e-05
5.72445e-05
6.3239e-06
-3.84102e-05
6.16536e-05
6.42505e-05
2.9135e-06
5.4251e-07
-8.36761e-07
6.67506e-05
5.48734e-06
8.75085e-07
-1.44509e-06
6.8988e-05
6.41177e-06
6.66625e-07
-1.32847e-06
7.05139e-05
6.31593e-06
4.13308e-08
-6.64548e-07
7.13177e-05
5.83886e-06
-9.22701e-07
4.14663e-07
7.15078e-05
5.41747e-06
-2.17137e-06
1.80576e-06
7.12034e-05
5.29308e-06
-3.71629e-06
3.49406e-06
7.04595e-05
5.55131e-06
-5.62135e-06
5.54092e-06
6.92586e-05
6.21806e-06
-7.99616e-06
8.06681e-06
6.74766e-05
7.30619e-06
-1.10166e-05
1.12938e-05
6.48824e-05
8.84143e-06
-1.49361e-05
1.55284e-05
6.09485e-05
1.08478e-05
-2.01044e-05
2.13402e-05
5.48853e-05
1.33714e-05
-2.70861e-05
2.94899e-05
4.4683e-05
1.60089e-05
-3.58171e-05
4.10894e-05
2.81304e-05
1.75828e-05
-4.52485e-05
5.56459e-05
1.11155e-05
-3.74411e-05
6.07799e-05
6.37524e-05
1.95297e-06
5.64994e-07
-8.5682e-07
6.58848e-05
3.9221e-06
9.30214e-07
-1.49745e-06
6.80471e-05
4.90817e-06
7.54487e-07
-1.41317e-06
6.97694e-05
5.21323e-06
1.63581e-07
-7.83139e-07
7.0905e-05
5.20805e-06
-7.58327e-07
2.53532e-07
7.14683e-05
5.21817e-06
-1.95081e-06
1.58682e-06
7.15293e-05
5.45542e-06
-3.41832e-06
3.19498e-06
7.11314e-05
6.03482e-06
-5.21727e-06
5.13168e-06
7.0264e-05
7.02553e-06
-7.44605e-06
7.5059e-06
6.88118e-05
8.5012e-06
-1.02716e-05
1.05289e-05
6.65448e-05
1.05498e-05
-1.39261e-05
1.44846e-05
6.29036e-05
1.33114e-05
-1.87657e-05
1.99433e-05
5.70226e-05
1.69427e-05
-2.5313e-05
2.76227e-05
4.66817e-05
2.12219e-05
-3.36623e-05
3.87903e-05
2.93123e-05
2.47738e-05
-4.27704e-05
5.29487e-05
1.73329e-05
-3.58862e-05
5.89811e-05
6.35329e-05
1.21021e-06
5.91773e-07
-8.81902e-07
6.54518e-05
2.56823e-06
9.95294e-07
-1.56033e-06
6.75521e-05
3.46422e-06
8.59884e-07
-1.51624e-06
6.93878e-05
3.99482e-06
3.11527e-07
-9.28864e-07
7.07539e-05
4.34553e-06
-5.5938e-07
5.58123e-08
7.16136e-05
4.72334e-06
-1.68411e-06
1.31929e-06
7.20077e-05
5.28897e-06
-3.05699e-06
2.8293e-06
7.1978e-05
6.16041e-06
-4.72239e-06
4.62651e-06
7.15329e-05
7.43089e-06
-6.76072e-06
6.80049e-06
7.05903e-05
9.22538e-06
-9.31873e-06
9.53713e-06
6.89667e-05
1.16879e-05
-1.25867e-05
1.30723e-05
6.6134e-05
1.51115e-05
-1.6899e-05
1.79317e-05
6.12312e-05
1.98153e-05
-2.26717e-05
2.47018e-05
5.16517e-05
2.62211e-05
-3.01608e-05
3.47411e-05
3.40922e-05
3.32178e-05
-3.82101e-05
4.73257e-05
2.98853e-05
-3.26071e-05
5.41467e-05
6.3459e-05
6.21369e-07
-9.108e-07
5.40619e-07
6.53077e-05
1.06669e-06
-1.63093e-06
1.28377e-06
6.74168e-05
9.7585e-07
-1.6316e-06
2.01087e-06
6.93578e-05
4.74594e-07
-1.09184e-06
2.67108e-06
7.09046e-05
-3.4081e-07
-1.63881e-07
3.30344e-06
7.20002e-05
-1.39276e-06
1.0248e-06
3.99569e-06
7.26757e-05
-2.66442e-06
2.43025e-06
4.84761e-06
7.29783e-05
-4.18667e-06
4.07855e-06
5.96597e-06
7.29353e-05
-6.02073e-06
6.03855e-06
7.45605e-06
7.24968e-05
-8.29026e-06
8.46775e-06
9.48638e-06
7.1526e-05
-1.11419e-05
1.15526e-05
1.22481e-05
6.95435e-05
-1.48805e-05
1.57648e-05
1.62097e-05
6.57696e-05
-1.98113e-05
2.15606e-05
2.184e-05
5.73736e-05
-2.63687e-05
3.03962e-05
3.05896e-05
4.08448e-05
-3.3364e-05
4.14369e-05
4.16737e-05
-2.99118e-05
5.01568e-05
5.04851e-05
5.01668e-05
1.24737e-05
2.19722e-07
4.03156e-05
1.00966e-05
3.09685e-07
3.32705e-05
7.29939e-06
1.31773e-07
2.91048e-05
4.37221e-06
-2.24936e-07
2.66997e-05
2.53357e-06
-7.23753e-07
2.52511e-05
1.48795e-06
-1.34438e-06
2.42055e-05
9.8977e-07
-2.10617e-06
2.32546e-05
7.86754e-07
-3.04236e-06
2.22202e-05
7.38658e-07
-4.20874e-06
2.0984e-05
7.53485e-07
-5.66587e-06
1.94385e-05
7.88399e-07
-7.53296e-06
1.7448e-05
7.59548e-07
-9.84165e-06
1.47456e-05
6.77946e-07
-1.28687e-05
1.10092e-05
2.30239e-07
-1.59609e-05
5.2522e-06
-2.24833e-07
-1.88669e-05
-2.25434e-06
-1.29299e-05
6.48693e-05
1.02986e-05
2.81342e-07
6.37819e-05
1.15435e-05
3.86655e-07
6.16171e-05
9.86688e-06
1.18621e-07
5.92813e-05
7.06322e-06
-4.46277e-07
5.72266e-05
4.83422e-06
-1.2684e-06
5.54607e-05
3.35797e-06
-2.32322e-06
5.38148e-05
2.57872e-06
-3.6378e-06
5.20857e-05
2.27384e-06
-5.26952e-06
5.00803e-05
2.27674e-06
-7.31217e-06
4.75938e-05
2.4609e-06
-9.8795e-06
4.4394e-05
2.75412e-06
-1.31621e-05
4.01116e-05
3.04524e-06
-1.72688e-05
3.42104e-05
3.31411e-06
-2.25581e-05
2.57251e-05
3.13965e-06
-2.81591e-05
1.3637e-05
2.55083e-06
-3.28138e-05
-5.88907e-07
-2.19459e-05
6.62465e-05
6.75971e-06
2.99469e-07
6.84422e-05
9.73909e-06
4.05223e-07
6.92696e-05
9.48475e-06
1.13361e-07
6.8993e-05
7.74023e-06
-4.95564e-07
6.81226e-05
5.99121e-06
-1.38337e-06
6.6917e-05
4.69788e-06
-2.53016e-06
6.54589e-05
3.99538e-06
-3.96719e-06
6.36966e-05
3.79175e-06
-5.7588e-06
6.15013e-05
3.98079e-06
-8.00704e-06
5.86686e-05
4.46332e-06
-1.08409e-05
5.4915e-05
5.18254e-06
-1.44654e-05
4.97714e-05
6.03697e-06
-1.90216e-05
4.25508e-05
7.00329e-06
-2.48761e-05
3.20388e-05
7.58475e-06
-3.11529e-05
1.70601e-05
7.3101e-06
-3.63287e-05
2.92071e-06
-2.43191e-05
6.5079e-05
4.39064e-06
3.13247e-07
6.77483e-05
7.46939e-06
4.29974e-07
6.96195e-05
8.07016e-06
1.42071e-07
7.04431e-05
7.32908e-06
-4.62863e-07
7.0457e-05
6.27601e-06
-1.34408e-06
6.98757e-05
5.42532e-06
-2.48242e-06
6.88308e-05
5.01045e-06
-3.90931e-06
6.73346e-05
5.0554e-06
-5.68954e-06
6.53038e-05
5.53272e-06
-7.9239e-06
6.25497e-05
6.40017e-06
-1.07444e-05
5.8774e-05
7.64591e-06
-1.4354e-05
5.3457e-05
9.20975e-06
-1.89106e-05
4.58192e-05
1.10999e-05
-2.47746e-05
3.45245e-05
1.27393e-05
-3.11215e-05
1.82152e-05
1.31814e-05
-3.63893e-05
7.08957e-06
-2.43638e-05
6.41629e-05
2.93745e-06
3.32831e-07
6.64868e-05
5.54725e-06
4.7324e-07
6.85077e-05
6.5094e-06
2.06541e-07
6.98033e-05
6.45023e-06
-3.75429e-07
7.03693e-05
6.01435e-06
-1.22708e-06
7.0302e-05
5.6473e-06
-2.32597e-06
6.96956e-05
5.59981e-06
-3.69931e-06
6.85715e-05
5.96591e-06
-5.40778e-06
6.68697e-05
6.78352e-06
-7.54515e-06
6.44176e-05
8.07577e-06
-1.02401e-05
6.09172e-05
9.89307e-06
-1.36829e-05
5.58087e-05
1.22576e-05
-1.80437e-05
4.82172e-05
1.52659e-05
-2.36606e-05
3.66063e-05
1.83443e-05
-2.98112e-05
1.92752e-05
2.02107e-05
-3.49468e-05
1.232e-05
-2.33963e-05
6.36666e-05
1.98019e-06
3.5568e-07
6.56273e-05
3.98945e-06
5.27286e-07
6.75808e-05
5.01857e-06
2.91859e-07
6.90847e-05
5.3671e-06
-2.57195e-07
6.99984e-05
5.41131e-06
-1.06901e-06
7.03244e-05
5.48601e-06
-2.11556e-06
7.01091e-05
5.81407e-06
-3.41731e-06
6.9364e-05
6.52193e-06
-5.02819e-06
6.80385e-05
7.69486e-06
-7.03182e-06
6.59695e-05
9.42323e-06
-9.55017e-06
6.28614e-05
1.18302e-05
-1.2755e-05
5.81137e-05
1.50663e-05
-1.68268e-05
5.07638e-05
1.93702e-05
-2.20673e-05
3.90209e-05
2.43218e-05
-2.78969e-05
2.07473e-05
2.85011e-05
-3.27872e-05
1.92139e-05
-2.20329e-05
6.34494e-05
1.24029e-06
3.82251e-07
6.5202e-05
2.64157e-06
5.90631e-07
6.71027e-05
3.5841e-06
3.93582e-07
6.8734e-05
4.16254e-06
-1.15123e-07
6.98969e-05
4.56808e-06
-8.79048e-07
7.05442e-05
5.01734e-06
-1.86278e-06
7.06956e-05
5.68307e-06
-3.07738e-06
7.03645e-05
6.69704e-06
-4.56639e-06
6.95249e-05
8.17169e-06
-6.39793e-06
6.80533e-05
1.02551e-05
-8.67905e-06
6.57098e-05
1.31352e-05
-1.15482e-05
6.19222e-05
1.71351e-05
-1.51802e-05
5.57339e-05
2.26861e-05
-1.97993e-05
4.48654e-05
3.00339e-05
-2.50045e-05
2.63039e-05
3.81045e-05
-2.92519e-05
3.26394e-05
-1.97287e-05
6.3378e-05
4.1093e-07
5.72721e-07
6.50664e-05
6.59205e-07
1.36067e-06
6.69861e-05
5.0443e-07
2.13581e-06
6.87371e-05
4.02053e-08
2.8459e-06
7.01003e-05
-6.71709e-07
3.53577e-06
7.101e-05
-1.58785e-06
4.30278e-06
7.14784e-05
-2.70892e-06
5.25918e-06
7.15283e-05
-4.06679e-06
6.52724e-06
7.11588e-05
-5.71292e-06
8.23341e-06
7.02851e-05
-7.73695e-06
1.05754e-05
6.87257e-05
-1.02418e-05
1.37945e-05
6.59564e-05
-1.33912e-05
1.84152e-05
6.11197e-05
-1.73273e-05
2.50387e-05
5.16118e-05
-2.18495e-05
3.50226e-05
3.41106e-05
-2.54592e-05
4.77008e-05
-1.78105e-05
5.46487e-05
5.01169e-05
1.2479e-05
1.23796e-07
4.01693e-05
1.01117e-05
1.45641e-07
3.3012e-05
7.31761e-06
-2.85196e-08
2.87333e-05
4.38953e-06
-3.35763e-07
2.62129e-05
2.55194e-06
-7.55276e-07
2.46362e-05
1.5108e-06
-1.27848e-06
2.34341e-05
1.02066e-06
-1.92479e-06
2.22823e-05
8.28242e-07
-2.71875e-06
2.0981e-05
7.93927e-07
-3.70135e-06
1.93927e-05
8.25826e-07
-4.90339e-06
1.73798e-05
8.84148e-07
-6.40423e-06
1.48184e-05
8.86836e-07
-8.16715e-06
1.14628e-05
8.46506e-07
-1.03595e-05
7.36667e-06
4.66035e-07
-1.23308e-05
2.26455e-06
-2.48281e-08
-1.37399e-05
-1.87762e-06
-8.78777e-06
6.47985e-05
1.03118e-05
1.4998e-07
6.35713e-05
1.15751e-05
1.50443e-07
6.1226e-05
9.91074e-06
-1.29194e-07
5.86884e-05
7.11343e-06
-6.32576e-07
5.64164e-05
4.89249e-06
-1.33694e-06
5.44083e-05
3.43029e-06
-2.23459e-06
5.24739e-05
2.6736e-06
-3.35638e-06
5.03822e-05
2.39988e-06
-4.7494e-06
4.79047e-05
2.44466e-06
-6.48539e-06
4.48029e-05
2.68162e-06
-8.6335e-06
4.08013e-05
3.04416e-06
-1.13206e-05
3.55508e-05
3.41645e-06
-1.45479e-05
2.85641e-05
3.78344e-06
-1.85084e-05
1.94714e-05
3.69411e-06
-2.22945e-05
8.22575e-06
3.05529e-06
-2.46482e-05
-2.11623e-07
-1.53862e-05
6.61747e-05
6.77783e-06
1.58779e-07
6.8224e-05
9.78218e-06
1.48763e-07
6.88584e-05
9.5496e-06
-1.59848e-07
6.83609e-05
7.82178e-06
-7.06403e-07
6.72486e-05
6.09132e-06
-1.46996e-06
6.5772e-05
4.82444e-06
-2.44768e-06
6.39924e-05
4.16132e-06
-3.67527e-06
6.18279e-05
4.0124e-06
-5.20686e-06
5.91109e-05
4.27595e-06
-7.12131e-06
5.55975e-05
4.85425e-06
-9.50014e-06
5.0956e-05
5.69928e-06
-1.24792e-05
4.47317e-05
6.70029e-06
-1.60811e-05
3.62869e-05
7.84516e-06
-2.0493e-05
2.50437e-05
8.56099e-06
-2.47765e-05
1.09015e-05
8.27293e-06
-2.74042e-05
3.41138e-06
-1.70407e-05
6.50089e-05
4.41206e-06
1.70119e-07
6.75334e-05
7.52104e-06
1.66584e-07
6.92138e-05
8.15154e-06
-1.40261e-07
6.98193e-05
7.43714e-06
-6.83683e-07
6.95942e-05
6.41356e-06
-1.44124e-06
6.87451e-05
5.60227e-06
-2.41115e-06
6.73827e-05
5.24386e-06
-3.62945e-06
6.5489e-05
5.36742e-06
-5.15088e-06
6.29412e-05
5.95315e-06
-7.05325e-06
5.95088e-05
6.96301e-06
-9.4208e-06
5.48414e-05
8.39952e-06
-1.23868e-05
4.84261e-05
1.01922e-05
-1.59872e-05
3.95228e-05
1.23736e-05
-2.03998e-05
2.74359e-05
1.42471e-05
-2.47207e-05
1.19103e-05
1.47826e-05
-2.73734e-05
7.92183e-06
-1.69639e-05
6.40948e-05
2.96174e-06
1.88375e-07
6.62773e-05
5.60638e-06
2.05413e-07
6.81132e-05
6.60466e-06
-8.25748e-08
6.91996e-05
6.5805e-06
-6.051e-07
6.95383e-05
6.18375e-06
-1.33601e-06
6.92176e-05
5.86785e-06
-2.27087e-06
6.83118e-05
5.89245e-06
-3.44212e-06
6.6813e-05
6.35948e-06
-4.90103e-06
6.46223e-05
7.31819e-06
-6.7195e-06
6.15246e-05
8.80028e-06
-8.97964e-06
5.71672e-05
1.08788e-05
-1.18047e-05
5.09879e-05
1.35698e-05
-1.5242e-05
4.2136e-05
1.70165e-05
-1.94517e-05
2.96962e-05
2.04887e-05
-2.3613e-05
1.30429e-05
2.26535e-05
-2.61644e-05
1.3731e-05
-1.61626e-05
6.36004e-05
2.00722e-06
2.09848e-07
6.54238e-05
4.0551e-06
2.55095e-07
6.71998e-05
5.12519e-06
-4.62484e-09
6.85054e-05
5.51508e-06
-4.97368e-07
6.92065e-05
5.60614e-06
-1.19258e-06
6.92982e-05
5.74178e-06
-2.08112e-06
6.88075e-05
6.15535e-06
-3.18953e-06
6.77183e-05
6.98392e-06
-4.56346e-06
6.5943e-05
8.32806e-06
-6.2664e-06
6.32764e-05
1.02927e-05
-8.37594e-06
5.93669e-05
1.3034e-05
-1.10008e-05
5.36025e-05
1.67076e-05
-1.42001e-05
4.50296e-05
2.16294e-05
-1.81073e-05
3.24422e-05
2.71998e-05
-2.20206e-05
1.47068e-05
3.20157e-05
-2.4414e-05
2.14955e-05
-1.50905e-05
6.33854e-05
1.26952e-06
2.34509e-07
6.50059e-05
2.71208e-06
3.13172e-07
6.67379e-05
3.69871e-06
8.81122e-08
6.81836e-05
4.32259e-06
-3.68398e-07
6.91516e-05
4.78013e-06
-1.02098e-06
6.95878e-05
5.29696e-06
-1.85422e-06
6.94951e-05
6.05737e-06
-2.88665e-06
6.88622e-05
7.20597e-06
-4.15557e-06
6.76309e-05
8.87361e-06
-5.7122e-06
6.56398e-05
1.12292e-05
-7.62433e-06
6.25993e-05
1.45028e-05
-9.97665e-06
5.79179e-05
1.90412e-05
-1.28325e-05
5.06397e-05
2.5384e-05
-1.62757e-05
3.89804e-05
3.36166e-05
-1.97619e-05
2.07632e-05
4.27889e-05
-2.1808e-05
3.60595e-05
-1.35295e-05
6.33164e-05
2.60755e-07
6.03275e-07
6.48785e-05
3.75574e-07
1.43363e-06
6.66389e-05
1.88623e-07
2.25415e-06
6.82182e-05
-2.28072e-07
3.01155e-06
6.94051e-05
-8.34419e-07
3.75592e-06
7.01286e-05
-1.60813e-06
4.59375e-06
7.03866e-05
-2.5589e-06
5.64935e-06
7.0181e-05
-3.71463e-06
7.05939e-06
6.94842e-05
-5.11334e-06
8.97081e-06
6.81794e-05
-6.81103e-06
1.16081e-05
6.6045e-05
-8.86666e-06
1.52621e-05
6.25338e-05
-1.13441e-05
2.05053e-05
5.67913e-05
-1.42751e-05
2.80743e-05
4.66057e-05
-1.72907e-05
3.92433e-05
2.93537e-05
-1.90085e-05
5.35902e-05
-1.222e-05
5.98227e-05
5.00786e-05
1.24839e-05
6.13702e-08
4.00546e-05
1.0125e-05
4.46047e-08
3.28051e-05
7.33399e-06
-1.13011e-07
2.84308e-05
4.4056e-06
-3.67026e-07
2.58124e-05
2.56934e-06
-7.0624e-07
2.41301e-05
1.53255e-06
-1.12878e-06
2.28072e-05
1.05019e-06
-1.65201e-06
2.15131e-05
8.68491e-07
-2.29319e-06
2.00437e-05
8.48917e-07
-3.08085e-06
1.82662e-05
9.00867e-07
-4.02675e-06
1.60522e-05
9.89048e-07
-5.17927e-06
1.33215e-05
1.03793e-06
-6.47436e-06
9.89335e-06
1.069e-06
-8.00037e-06
5.96145e-06
8.14297e-07
-9.21323e-06
1.56209e-06
4.32614e-07
-9.77318e-06
-1.26031e-06
-5.96537e-06
6.47434e-05
1.03241e-05
6.62771e-08
6.34048e-05
1.16036e-05
1.04387e-08
6.09107e-05
9.9506e-06
-2.51635e-07
5.82022e-05
7.15962e-06
-6.78112e-07
5.57443e-05
4.94633e-06
-1.25605e-06
5.3532e-05
3.49686e-06
-1.98664e-06
5.13645e-05
2.7605e-06
-2.89918e-06
4.89985e-05
2.5152e-06
-4.03005e-06
4.6194e-05
2.59889e-06
-5.43092e-06
4.27139e-05
2.88664e-06
-7.13911e-06
3.82947e-05
3.31894e-06
-9.23133e-06
3.26582e-05
3.78188e-06
-1.16553e-05
2.5436e-05
4.27367e-06
-1.44909e-05
1.6567e-05
4.34041e-06
-1.69517e-05
6.47649e-06
3.81629e-06
-1.79414e-05
5.13743e-07
-1.06837e-05
6.61188e-05
6.79486e-06
6.91977e-08
6.80515e-05
9.8218e-06
-2.06239e-09
6.85266e-05
9.609e-06
-2.93379e-07
6.78421e-05
7.89662e-06
-7.58835e-07
6.65228e-05
6.183e-06
-1.38733e-06
6.48168e-05
4.93959e-06
-2.1845e-06
6.27753e-05
4.31113e-06
-3.18435e-06
6.03029e-05
4.21038e-06
-4.42962e-06
5.72185e-05
4.53975e-06
-5.97777e-06
5.32773e-05
5.20326e-06
-7.8756e-06
4.81602e-05
6.16184e-06
-1.02049e-05
4.14873e-05
7.30072e-06
-1.29271e-05
3.27538e-05
8.62336e-06
-1.61092e-05
2.17311e-05
9.51249e-06
-1.89259e-05
8.85542e-06
9.32961e-06
-2.00418e-05
4.17425e-06
-1.18457e-05
6.49546e-05
4.43225e-06
7.80939e-08
6.7364e-05
7.56878e-06
1.02485e-08
6.88873e-05
8.22617e-06
-2.8074e-07
6.93082e-05
7.53593e-06
-7.43888e-07
6.88786e-05
6.53865e-06
-1.36734e-06
6.7803e-05
5.76194e-06
-2.15787e-06
6.6182e-05
5.45258e-06
-3.14993e-06
6.39845e-05
5.64394e-06
-4.38694e-06
6.10741e-05
6.32253e-06
-5.92559e-06
5.72184e-05
7.45317e-06
-7.81506e-06
5.20783e-05
9.05005e-06
-1.01349e-05
4.52141e-05
1.10341e-05
-1.28563e-05
3.60162e-05
1.34584e-05
-1.6037e-05
2.41399e-05
1.55423e-05
-1.88741e-05
9.87855e-06
1.62016e-05
-1.99841e-05
8.82651e-06
-1.17377e-05
6.40423e-05
2.98447e-06
9.38889e-08
6.61126e-05
5.66083e-06
4.30073e-08
6.77967e-05
6.69169e-06
-2.3219e-07
6.87062e-05
6.69889e-06
-6.77519e-07
6.88504e-05
6.33674e-06
-1.27836e-06
6.83157e-05
6.06539e-06
-2.03953e-06
6.71666e-05
6.15203e-06
-2.99253e-06
6.53828e-05
6.70477e-06
-4.17808e-06
6.28526e-05
7.78149e-06
-5.64825e-06
5.93585e-05
9.4188e-06
-7.45109e-06
5.45571e-05
1.17053e-05
-9.6586e-06
4.79542e-05
1.4647e-05
-1.22521e-05
3.88204e-05
1.84164e-05
-1.5276e-05
2.65767e-05
2.21641e-05
-1.79911e-05
1.11253e-05
2.45171e-05
-1.90285e-05
1.48985e-05
-1.11093e-05
6.35495e-05
2.03218e-06
1.12621e-07
6.52646e-05
4.11508e-06
8.57348e-08
6.68951e-05
5.222e-06
-1.65449e-07
6.80334e-05
5.64869e-06
-5.85431e-07
6.85528e-05
5.78092e-06
-1.15611e-06
6.84462e-05
5.96933e-06
-1.87852e-06
6.77322e-05
6.45586e-06
-2.77937e-06
6.63829e-05
7.38555e-06
-3.89492e-06
6.42987e-05
8.86999e-06
-5.27072e-06
6.12716e-05
1.10219e-05
-6.95195e-06
5.69585e-05
1.40177e-05
-9.00004e-06
5.08077e-05
1.8005e-05
-1.14073e-05
4.19762e-05
2.33409e-05
-1.42003e-05
2.95724e-05
2.92793e-05
-1.6732e-05
1.29471e-05
3.44012e-05
-1.76728e-05
2.30481e-05
-1.0293e-05
6.33366e-05
1.29611e-06
1.33994e-07
6.48533e-05
2.77591e-06
1.35651e-07
6.64474e-05
3.80205e-06
-8.60724e-08
6.77369e-05
4.46619e-06
-4.75367e-07
6.85378e-05
4.96926e-06
-1.01022e-06
6.87951e-05
5.54438e-06
-1.68661e-06
6.8504e-05
6.38509e-06
-2.52477e-06
6.76433e-05
7.64533e-06
-3.55461e-06
6.61449e-05
9.46865e-06
-4.81249e-06
6.38452e-05
1.20348e-05
-6.33755e-06
6.04634e-05
1.55979e-05
-8.17491e-06
5.54592e-05
2.05017e-05
-1.0325e-05
4.79734e-05
2.7336e-05
-1.2785e-05
3.64935e-05
3.60289e-05
-1.50315e-05
1.92434e-05
4.56419e-05
-1.57986e-05
3.79937e-05
-9.23176e-06
6.32696e-05
1.56551e-07
6.30693e-07
6.4733e-05
1.8905e-07
1.49908e-06
6.63639e-05
-2.89977e-10
2.36007e-06
6.77986e-05
-3.55913e-07
3.15928e-06
6.88342e-05
-8.51974e-07
3.95126e-06
6.93992e-05
-1.47879e-06
4.85e-06
6.94856e-05
-2.2495e-06
5.98932e-06
6.90869e-05
-3.1868e-06
7.51614e-06
6.81684e-05
-4.31717e-06
9.59099e-06
6.66122e-05
-5.67222e-06
1.24522e-05
6.42068e-05
-7.27963e-06
1.64162e-05
6.04479e-05
-9.14579e-06
2.20623e-05
5.45668e-05
-1.1238e-05
3.01799e-05
4.4575e-05
-1.31718e-05
4.19018e-05
2.81658e-05
-1.37951e-05
5.68377e-05
-8.34833e-06
6.22878e-05
5.00487e-05
1.24879e-05
2.47782e-08
3.99649e-05
1.01359e-05
-7.50338e-09
3.2641e-05
7.34748e-06
-1.36597e-07
2.81871e-05
4.41899e-06
-3.32134e-07
2.54854e-05
2.58376e-06
-5.88275e-07
2.37124e-05
1.55034e-06
-9.06148e-07
2.22857e-05
1.07397e-06
-1.2993e-06
2.08709e-05
9.00405e-07
-1.77878e-06
1.92609e-05
8.91748e-07
-2.36258e-06
1.73278e-05
9.58049e-07
-3.05176e-06
1.49547e-05
1.06689e-06
-3.87299e-06
1.20978e-05
1.14662e-06
-4.76408e-06
8.64216e-06
1.22371e-06
-5.76848e-06
4.88289e-06
1.04561e-06
-6.49956e-06
1.06533e-06
7.19702e-07
-6.67533e-06
-9.21286e-07
-3.97876e-06
6.47003e-05
1.03346e-05
1.92631e-08
6.32739e-05
1.16277e-05
-5.4968e-08
6.06597e-05
9.98432e-06
-2.74242e-07
5.78101e-05
7.19895e-06
-6.08437e-07
5.51958e-05
4.99218e-06
-1.05019e-06
5.28103e-05
3.55327e-06
-1.60404e-06
5.04453e-05
2.83362e-06
-2.29392e-06
4.78497e-05
2.61157e-06
-3.14559e-06
4.47769e-05
2.72691e-06
-4.1933e-06
4.09944e-05
3.0555e-06
-5.454e-06
3.62566e-05
3.54311e-06
-6.96978e-06
3.03491e-05
4.07632e-06
-8.67752e-06
2.30191e-05
4.66266e-06
-1.05998e-05
1.44309e-05
4.84051e-06
-1.21584e-05
5.32581e-06
4.38985e-06
-1.25064e-05
1.00016e-06
-7.27939e-06
6.60751e-05
6.80964e-06
1.90694e-08
6.79158e-05
9.85577e-06
-7.08258e-08
6.82626e-05
9.65983e-06
-3.15643e-07
6.74236e-05
7.96078e-06
-6.81735e-07
6.59304e-05
6.26149e-06
-1.1634e-06
6.40301e-05
5.03779e-06
-1.76877e-06
6.17669e-05
4.43823e-06
-2.52578e-06
5.90367e-05
4.37748e-06
-3.46532e-06
5.56506e-05
4.76127e-06
-4.626e-06
5.13673e-05
5.49472e-06
-6.03156e-06
4.58867e-05
6.54556e-06
-7.72673e-06
3.88975e-05
7.7948e-06
-9.65642e-06
3.00233e-05
9.25746e-06
-1.18298e-05
1.92935e-05
1.02783e-05
-1.3634e-05
7.50593e-06
1.01711e-05
-1.40355e-05
4.75588e-06
-8.09554e-06
6.49122e-05
4.4499e-06
2.55975e-08
6.7231e-05
7.61002e-06
-6.27775e-08
6.86278e-05
8.29035e-06
-3.08022e-07
6.88964e-05
7.62075e-06
-6.72533e-07
6.82951e-05
6.64582e-06
-1.15033e-06
6.70273e-05
5.89823e-06
-1.75056e-06
6.51873e-05
5.62995e-06
-2.50162e-06
6.2735e-05
5.87786e-06
-3.43504e-06
5.95261e-05
6.63353e-06
-4.58891e-06
5.5331e-05
7.86371e-06
-5.9889e-06
4.98281e-05
9.59148e-06
-7.67797e-06
4.26451e-05
1.17297e-05
-9.60819e-06
3.33e-05
1.43467e-05
-1.17811e-05
2.17085e-05
1.65944e-05
-1.35987e-05
8.5362e-06
1.73482e-05
-1.39889e-05
9.56451e-06
-8.01009e-06
6.40014e-05
3.00431e-06
3.80979e-08
6.59838e-05
5.70789e-06
-3.72865e-08
6.75457e-05
6.76653e-06
-2.70307e-07
6.83094e-05
6.80043e-06
-6.20845e-07
6.82902e-05
6.46763e-06
-1.08098e-06
6.75736e-05
6.23386e-06
-1.6585e-06
6.6218e-05
6.37258e-06
-2.3796e-06
6.41947e-05
6.99693e-06
-3.27383e-06
6.13842e-05
8.17178e-06
-4.37601e-06
5.75709e-05
9.93715e-06
-5.71127e-06
5.24277e-05
1.23936e-05
-7.31746e-06
4.55225e-05
1.55374e-05
-9.1546e-06
3.62464e-05
1.95624e-05
-1.12156e-05
2.42719e-05
2.35261e-05
-1.29482e-05
9.86191e-06
2.60239e-05
-1.32942e-05
1.58783e-05
-7.56122e-06
6.35101e-05
2.05385e-06
5.30182e-08
6.51405e-05
4.16675e-06
-3.55389e-09
6.66543e-05
5.30504e-06
-2.1776e-07
6.76547e-05
5.763e-06
-5.4844e-07
6.80212e-05
5.93015e-06
-9.85079e-07
6.77461e-05
6.16308e-06
-1.53265e-06
6.68421e-05
6.71094e-06
-2.21374e-06
6.52736e-05
7.7252e-06
-3.05466e-06
6.29338e-05
9.32632e-06
-4.0855e-06
5.96161e-05
1.16327e-05
-5.32978e-06
5.49915e-05
1.48363e-05
-6.81823e-06
4.8565e-05
1.90764e-05
-8.51983e-06
3.96045e-05
2.47393e-05
-1.04167e-05
2.74543e-05
3.09669e-05
-1.20225e-05
1.17978e-05
3.63232e-05
-1.23156e-05
2.43657e-05
-6.98258e-06
6.32988e-05
1.31903e-06
6.99804e-08
6.47347e-05
2.83064e-06
3.58633e-08
6.62186e-05
3.89038e-06
-1.55256e-07
6.73795e-05
4.58872e-06
-4.61978e-07
6.80398e-05
5.13039e-06
-8.70837e-07
6.81446e-05
5.75474e-06
-1.38301e-06
6.7684e-05
6.66305e-06
-2.01629e-06
6.66302e-05
8.01682e-06
-2.79245e-06
6.49094e-05
9.96986e-06
-3.73522e-06
6.23592e-05
1.271e-05
-4.86462e-06
5.87119e-05
1.65097e-05
-6.20104e-06
5.34761e-05
2.17088e-05
-7.72154e-06
4.58904e-05
2.89319e-05
-9.39194e-06
3.46504e-05
3.7989e-05
-1.08137e-05
1.82585e-05
4.79433e-05
-1.10268e-05
3.96733e-05
-6.28092e-06
6.32337e-05
8.77914e-08
6.54124e-07
6.46205e-05
7.79267e-08
1.55489e-06
6.61482e-05
-8.78245e-08
2.4503e-06
6.74643e-05
-3.68283e-07
3.28498e-06
6.83725e-05
-7.47084e-07
4.11729e-06
6.8802e-05
-1.22115e-06
5.06753e-06
6.87411e-05
-1.80295e-06
6.27741e-06
6.81781e-05
-2.50915e-06
7.90218e-06
6.70741e-05
-3.35659e-06
1.01133e-05
6.5313e-05
-4.3608e-06
1.31596e-05
6.26968e-05
-5.53112e-06
1.73774e-05
5.87623e-05
-6.85131e-06
2.33488e-05
5.2827e-05
-8.27159e-06
3.19007e-05
4.30747e-05
-9.49101e-06
4.40606e-05
2.74174e-05
-9.65127e-06
5.94567e-05
-5.69862e-06
6.4441e-05
5.00272e-05
1.24911e-05
6.54995e-09
3.98997e-05
1.01444e-05
-2.44867e-08
3.25208e-05
7.35802e-06
-1.15702e-07
2.80078e-05
4.42966e-06
-2.488e-07
2.52446e-05
2.59541e-06
-4.20522e-07
2.34066e-05
1.56484e-06
-6.32962e-07
2.19091e-05
1.09352e-06
-8.95271e-07
2.04172e-05
9.27013e-07
-1.2139e-06
1.87257e-05
9.28093e-07
-1.59916e-06
1.67144e-05
1.00765e-06
-2.04813e-06
1.42794e-05
1.13588e-06
-2.57387e-06
1.14001e-05
1.2444e-06
-3.12921e-06
7.99999e-06
1.36415e-06
-3.73252e-06
4.38972e-06
1.25023e-06
-4.13952e-06
8.89812e-07
9.78444e-07
-4.15387e-06
-6.52234e-07
-2.43671e-06
6.4669e-05
1.03429e-05
-1.57805e-09
6.31782e-05
1.16465e-05
-6.63269e-08
6.04748e-05
1.00108e-05
-2.23493e-07
5.75195e-05
7.22998e-06
-4.53493e-07
5.47885e-05
5.02844e-06
-7.52205e-07
5.22757e-05
3.59787e-06
-1.12433e-06
4.97705e-05
2.8914e-06
-1.5866e-06
4.70196e-05
2.68776e-06
-2.15536e-06
4.37771e-05
2.82834e-06
-2.85112e-06
3.98208e-05
3.18984e-06
-3.67983e-06
3.49263e-05
3.72242e-06
-4.66187e-06
2.89244e-05
4.31362e-06
-5.7448e-06
2.16365e-05
4.97865e-06
-6.92642e-06
1.33114e-05
5.24863e-06
-7.83164e-06
4.80793e-06
4.86712e-06
-7.89166e-06
1.39316e-06
-4.51685e-06
6.60434e-05
6.82136e-06
-2.7696e-09
6.78165e-05
9.88254e-06
-7.99588e-08
6.80678e-05
9.69983e-06
-2.5597e-07
6.71132e-05
8.0113e-06
-5.08488e-07
6.54898e-05
6.32323e-06
-8.34826e-07
6.34462e-05
5.11479e-06
-1.2421e-06
6.10243e-05
4.5375e-06
-1.74997e-06
5.81176e-05
4.50747e-06
-2.37834e-06
5.45376e-05
4.933e-06
-3.15066e-06
5.00531e-05
5.72002e-06
-4.07722e-06
4.43869e-05
6.84148e-06
-5.17962e-06
3.72782e-05
8.17566e-06
-6.40966e-06
2.84352e-05
9.74642e-06
-7.75458e-06
1.79919e-05
1.08715e-05
-8.81355e-06
6.88389e-06
1.08308e-05
-8.89118e-06
5.2181e-06
-5.03659e-06
6.48816e-05
4.46393e-06
1.47474e-09
6.71339e-05
7.64261e-06
-7.51531e-08
6.84366e-05
8.3409e-06
-2.518e-07
6.85912e-05
7.68745e-06
-5.03335e-07
6.78614e-05
6.72982e-06
-8.27071e-07
6.64519e-05
6.00456e-06
-1.23086e-06
6.4455e-05
5.76754e-06
-1.73475e-06
6.18284e-05
6.05815e-06
-2.35913e-06
5.84281e-05
6.87159e-06
-3.12713e-06
5.40339e-05
8.17566e-06
-4.05042e-06
4.83472e-05
9.9996e-06
-5.14942e-06
4.10451e-05
1.22501e-05
-6.38053e-06
3.17303e-05
1.50059e-05
-7.72572e-06
2.04236e-05
1.73725e-05
-8.793e-06
7.93079e-06
1.81953e-05
-8.86056e-06
1.01176e-05
-4.97877e-06
6.39719e-05
3.02006e-06
1.01153e-08
6.58899e-05
5.74505e-06
-5.77372e-08
6.73611e-05
6.8254e-06
-2.26067e-07
6.80157e-05
6.88008e-06
-4.68e-07
6.78743e-05
6.56988e-06
-7.79643e-07
6.70236e-05
6.36472e-06
-1.16797e-06
6.55204e-05
6.54272e-06
-1.65158e-06
6.33338e-05
7.22051e-06
-2.24961e-06
6.03448e-05
8.46764e-06
-2.98307e-06
5.63469e-05
1.03258e-05
-3.86346e-06
5.1034e-05
1.2903e-05
-4.90809e-06
4.40211e-05
1.61873e-05
-6.07876e-06
3.47787e-05
2.03851e-05
-7.35246e-06
2.30782e-05
2.44911e-05
-8.36633e-06
9.31431e-06
2.70744e-05
-8.40944e-06
1.65615e-05
-4.69089e-06
6.34816e-05
2.07097e-06
2.04682e-08
6.50501e-05
4.20744e-06
-3.44593e-08
6.64775e-05
5.3702e-06
-1.89857e-07
6.73748e-05
5.85241e-06
-4.18147e-07
6.7627e-05
6.04633e-06
-7.1371e-07
6.72277e-05
6.31301e-06
-1.08166e-06
6.61881e-05
6.90678e-06
-1.5382e-06
6.44708e-05
7.98348e-06
-2.10034e-06
6.19698e-05
9.66929e-06
-2.78608e-06
5.84866e-05
1.20853e-05
-3.60604e-06
5.37122e-05
1.54324e-05
-4.57323e-06
4.71941e-05
1.98411e-05
-5.65566e-06
3.82738e-05
2.57131e-05
-6.82437e-06
2.6385e-05
3.2116e-05
-7.75853e-06
1.13262e-05
3.75926e-05
-7.77503e-06
2.52253e-05
-4.32011e-06
6.32717e-05
1.33705e-06
3.222e-08
6.46487e-05
2.87358e-06
-7.24642e-09
6.60509e-05
3.9595e-06
-1.46775e-07
6.71157e-05
4.68428e-06
-3.58648e-07
6.7671e-05
5.25547e-06
-6.35265e-07
6.76632e-05
5.91701e-06
-9.79228e-07
6.70816e-05
6.87567e-06
-1.40356e-06
6.5897e-05
8.29797e-06
-1.92238e-06
6.40367e-05
1.03441e-05
-2.54973e-06
6.13459e-05
1.32058e-05
-3.29437e-06
5.75752e-05
1.71655e-05
-4.1634e-06
5.22702e-05
2.25554e-05
-5.13091e-06
4.47347e-05
3.00166e-05
-6.15991e-06
3.37412e-05
3.92805e-05
-6.98469e-06
1.7882e-05
4.93943e-05
-6.96932e-06
4.07205e-05
-3.8942e-06
6.32079e-05
4.45229e-08
6.72428e-07
6.45391e-05
2.17584e-08
1.59851e-06
6.59905e-05
-1.00333e-07
2.52067e-06
6.72179e-05
-2.94218e-07
3.38274e-06
6.80308e-05
-5.50344e-07
4.24585e-06
6.83603e-05
-8.6847e-07
5.23487e-06
6.8194e-05
-1.25811e-06
6.49711e-06
6.75197e-05
-1.7301e-06
8.19321e-06
6.63e-05
-2.29416e-06
1.05014e-05
6.44264e-05
-2.95663e-06
1.36753e-05
6.17175e-05
-3.71823e-06
1.80615e-05
5.77424e-05
-4.55836e-06
2.42376e-05
5.18745e-05
-5.4328e-06
3.30457e-05
4.23595e-05
-6.13705e-06
4.54417e-05
2.71701e-05
-6.10928e-06
6.10417e-05
-3.53969e-06
6.57317e-05
5.00128e-05
1.24932e-05
5.34628e-10
3.98564e-05