/*--------------------------------*- C++ -*----------------------------------*\
| =========                 |                                                 |
| \\      /  F ield         | OpenFOAM: The Open Source CFD Toolbox           |
|  \\    /   O peration     | Version:  v1912                                 |
|   \\  /    A nd           | Website:  www.openfoam.com                      |
|    \\/     M anipulation  |                                                 |
\*---------------------------------------------------------------------------*/
FoamFile
{
    version     2.0;
    format      ascii;
    class       pointVectorField;
    location    "0.58/fluid";
    object      pointMotionU;
}
// * * * * * * * * * * * * * * * * * * * * * * * * * * * * * * * * * * * * * //

dimensions      [0 1 -1 0 0 0 0];


internalField   nonuniform List<vector> 
16859
(
(0 0 0)
(0 0 0)
(0 0 0)
(0 0 0)
(0 0 0)
(0 0 0)
(0 0 0)
(0 0 0)
(0 0 0)
(0 0 0)
(0 0 0)
(0 0 0)
(0 0 0)
(0 0 0)
(0 0 0)
(0 0 0)
(2.03784e-08 3.45602e-08 2.06763e-08)
(0 0 0)
(5.80794e-10 -1.27235e-09 9.94164e-10)
(1.10849e-09 -2.43436e-09 1.93728e-09)
(1.60374e-09 -3.53208e-09 2.8972e-09)
(2.08548e-09 -4.59936e-09 3.93424e-09)
(2.57216e-09 -5.65631e-09 5.10464e-09)
(3.0836e-09 -6.70695e-09 6.46285e-09)
(3.64363e-09 -7.73449e-09 8.06278e-09)
(4.2844e-09 -8.69183e-09 9.95831e-09)
(5.05465e-09 -9.48456e-09 1.22031e-08)
(6.03736e-09 -9.94077e-09 1.48526e-08)
(7.38758e-09 -9.75486e-09 1.79746e-08)
(9.41683e-09 -8.37191e-09 2.16901e-08)
(1.2754e-08 -4.75437e-09 2.62856e-08)
(1.85463e-08 2.98566e-09 3.24411e-08)
(2.73356e-08 1.61457e-08 4.05477e-08)
(4.18482e-08 4.29085e-08 5.07417e-08)
(0 0 0)
(1.14831e-09 -2.50735e-09 1.9629e-09)
(2.19121e-09 -4.79892e-09 3.8244e-09)
(3.16895e-09 -6.96665e-09 5.71768e-09)
(4.11822e-09 -9.07874e-09 7.76086e-09)
(5.07487e-09 -1.11782e-08 1.00643e-08)
(6.07694e-09 -1.32785e-08 1.27346e-08)
(7.16882e-09 -1.53556e-08 1.58773e-08)
(8.40775e-09 -1.73328e-08 1.95963e-08)
(9.8749e-09 -1.90542e-08 2.39926e-08)
(1.16968e-08 -2.02432e-08 2.91599e-08)
(1.40862e-08 -2.04388e-08 3.51844e-08)
(1.74187e-08 -1.89063e-08 4.21577e-08)
(2.23213e-08 -1.45802e-08 5.02069e-08)
(2.95948e-08 -6.30109e-09 5.94829e-08)
(3.85987e-08 4.93755e-09 6.90566e-08)
(5.51716e-08 2.08267e-08 8.45574e-08)
(0 0 0)
(1.69008e-09 -3.66789e-09 2.88258e-09)
(3.22398e-09 -7.0238e-09 5.61471e-09)
(4.6597e-09 -1.02053e-08 8.39025e-09)
(6.04997e-09 -1.33166e-08 1.13809e-08)
(7.4462e-09 -1.64279e-08 1.4747e-08)
(8.90207e-09 -1.95711e-08 1.8644e-08)
(1.04783e-08 -2.27306e-08 2.3225e-08)
(1.22487e-08 -2.58278e-08 2.86411e-08)
(1.43093e-08 -2.86934e-08 3.50367e-08)
(1.67915e-08 -3.10288e-08 4.25376e-08)
(1.9884e-08 -3.23555e-08 5.12318e-08)
(2.38639e-08 -3.19759e-08 6.11408e-08)
(2.91047e-08 -2.9038e-08 7.21761e-08)
(3.59391e-08 -2.29492e-08 8.40469e-08)
(4.34897e-08 -1.50781e-08 9.52472e-08)
(5.65171e-08 -4.3734e-09 1.10821e-07)
(0 0 0)
(2.19448e-09 -4.716e-09 3.73139e-09)
(4.18416e-09 -9.03673e-09 7.26501e-09)
(6.04242e-09 -1.31446e-08 1.08488e-08)
(7.83579e-09 -1.71809e-08 1.47019e-08)
(9.62879e-09 -2.12474e-08 1.90291e-08)
(1.1488e-08 -2.54034e-08 2.40284e-08)
(1.34868e-08 -2.96588e-08 2.98961e-08)
(1.57105e-08 -3.39613e-08 3.68267e-08)
(1.82609e-08 -3.81743e-08 4.5008e-08)
(2.12598e-08 -4.20452e-08 5.46033e-08)
(2.48475e-08 -4.51643e-08 6.57182e-08)
(2.91707e-08 -4.69276e-08 7.83405e-08)
(3.43266e-08 -4.65627e-08 9.22252e-08)
(4.02196e-08 -4.33712e-08 1.06694e-07)
(4.58827e-08 -3.79416e-08 1.19531e-07)
(5.56262e-08 -2.81735e-08 1.35096e-07)
(0 0 0)
(2.65153e-09 -5.61432e-09 4.49101e-09)
(5.05245e-09 -1.0766e-08 8.73902e-09)
(7.28857e-09 -1.56799e-08 1.30377e-08)
(9.43749e-09 -2.05341e-08 1.7646e-08)
(1.15742e-08 -2.54644e-08 2.28052e-08)
(1.37754e-08 -3.05644e-08 2.87488e-08)
(1.61248e-08 -3.58821e-08 3.57087e-08)
(1.87173e-08 -4.14136e-08 4.39177e-08)
(2.1663e-08 -4.70901e-08 5.36061e-08)
(2.50849e-08 -5.27569e-08 6.49857e-08)
(2.911e-08 -5.81394e-08 7.82174e-08)
(3.38376e-08 -6.27865e-08 9.33434e-08)
(3.92507e-08 -6.59796e-08 1.10134e-07)
(4.5037e-08 -6.66394e-08 1.27764e-07)
(5.00405e-08 -6.39592e-08 1.43307e-07)
(5.8041e-08 -5.34713e-08 1.60416e-07)
(0 0 0)
(3.05336e-09 -6.32727e-09 5.14748e-09)
(5.81367e-09 -1.21428e-08 1.00092e-08)
(8.37584e-09 -1.77094e-08 1.4915e-08)
(1.08254e-08 -2.32392e-08 2.01542e-08)
(1.32445e-08 -2.89014e-08 2.59955e-08)
(1.57173e-08 -3.48255e-08 3.26979e-08)
(1.83349e-08 -4.11035e-08 4.05191e-08)
(2.12018e-08 -4.77902e-08 4.97202e-08)
(2.44406e-08 -5.49023e-08 6.05669e-08)
(2.81959e-08 -6.2414e-08 7.33213e-08)
(3.26361e-08 -7.02451e-08 8.82274e-08)
(3.79443e-08 -7.8224e-08 1.05471e-07)
(4.42605e-08 -8.59694e-08 1.25059e-07)
(5.14875e-08 -9.25816e-08 1.4645e-07)
(5.83222e-08 -9.6154e-08 1.66323e-07)
(6.82979e-08 -8.84843e-08 1.88581e-07)
(0 0 0)
(3.39446e-09 -6.82284e-09 5.69181e-09)
(6.45745e-09 -1.3105e-08 1.10581e-08)
(9.28923e-09 -1.91402e-08 1.64542e-08)
(1.19796e-08 -2.51688e-08 2.21899e-08)
(1.46145e-08 -3.13886e-08 2.85504e-08)
(1.72813e-08 -3.79617e-08 3.58087e-08)
(2.0075e-08 -4.50203e-08 4.42348e-08)
(2.31051e-08 -5.26738e-08 5.41025e-08)
(2.65048e-08 -6.10176e-08 6.56935e-08)
(3.04433e-08 -7.01464e-08 7.93002e-08)
(3.51469e-08 -8.01746e-08 9.52302e-08)
(4.09354e-08 -9.1263e-08 1.13816e-07)
(4.82572e-08 -1.03626e-07 1.35389e-07)
(5.76306e-08 -1.17389e-07 1.60057e-07)
(6.81725e-08 -1.30943e-07 1.84876e-07)
(8.70771e-08 -1.46495e-07 2.17428e-07)
(0 0 0)
(3.67204e-09 -7.07453e-09 6.12045e-09)
(6.979e-09 -1.36014e-08 1.18797e-08)
(1.00225e-08 -1.98951e-08 1.76474e-08)
(1.28927e-08 -2.62156e-08 2.37429e-08)
(1.56753e-08 -3.27815e-08 3.04571e-08)
(1.84562e-08 -3.97787e-08 3.80645e-08)
(2.1328e-08 -4.73685e-08 4.6832e-08)
(2.43971e-08 -5.56974e-08 5.70255e-08)
(2.77936e-08 -6.491e-08 6.89141e-08)
(3.16861e-08 -7.51666e-08 8.27746e-08)
(3.63066e-08 -8.66729e-08 9.89002e-08)
(4.19893e-08 -9.97245e-08 1.17618e-07)
(4.92062e-08 -1.14755e-07 1.39296e-07)
(5.84966e-08 -1.32302e-07 1.64235e-07)
(6.87264e-08 -1.50554e-07 1.89404e-07)
(9.75374e-08 -1.84936e-07 2.32762e-07)
(0 0 0)
(0 0 0)
(0 0 0)
(0 0 0)
(0 0 0)
(0 0 0)
(0 0 0)
(0 0 0)
(0 0 0)
(0 0 0)
(0 0 0)
(0 0 0)
(0 0 0)
(0 0 0)
(0 0 0)
(0 0 0)
(1.17794e-08 1.74434e-08 9.29875e-09)
(0 0 0)
(5.83513e-10 -1.30089e-09 9.62385e-10)
(1.11279e-09 -2.48913e-09 1.87393e-09)
(1.60788e-09 -3.61245e-09 2.79924e-09)
(2.0869e-09 -4.70623e-09 3.79554e-09)
(2.56703e-09 -5.79215e-09 4.91566e-09)
(3.06585e-09 -6.87577e-09 6.20977e-09)
(3.60361e-09 -7.94238e-09 7.72612e-09)
(4.20661e-09 -8.94839e-09 9.51042e-09)
(4.91412e-09 -9.80605e-09 1.16035e-08)
(5.79397e-09 -1.03573e-08 1.40385e-08)
(6.97765e-09 -1.03263e-08 1.68404e-08)
(8.73839e-09 -9.22428e-09 2.0038e-08)
(1.16379e-08 -6.16374e-09 2.37032e-08)
(1.66615e-08 3.63514e-10 2.79886e-08)
(2.42379e-08 1.12794e-08 3.26419e-08)
(3.25185e-08 2.52033e-08 3.42578e-08)
(0 0 0)
(1.15388e-09 -2.5633e-09 1.90007e-09)
(2.20019e-09 -4.90636e-09 3.69922e-09)
(3.1781e-09 -7.12448e-09 5.52438e-09)
(4.12282e-09 -9.28892e-09 7.48759e-09)
(5.06776e-09 -1.14455e-08 9.69244e-09)
(6.04684e-09 -1.36105e-08 1.22374e-08)
(7.09777e-09 -1.57636e-08 1.52169e-08)
(8.26686e-09 -1.78339e-08 1.87198e-08)
(9.61762e-09 -1.96771e-08 2.28237e-08)
(1.12485e-08 -2.10396e-08 2.75844e-08)
(1.33292e-08 -2.15095e-08 3.30201e-08)
(1.61713e-08 -2.0457e-08 3.90921e-08)
(2.03166e-08 -1.70338e-08 4.5673e-08)
(2.64688e-08 -1.05157e-08 5.24489e-08)
(3.42785e-08 -2.02079e-09 5.84503e-08)
(4.29892e-08 3.05673e-09 6.30477e-08)
(0 0 0)
(1.69887e-09 -3.74937e-09 2.79033e-09)
(3.23854e-09 -7.18039e-09 5.43106e-09)
(4.67567e-09 -1.04357e-08 8.10704e-09)
(6.06106e-09 -1.36236e-08 1.09812e-08)
(7.44286e-09 -1.68184e-08 1.42041e-08)
(8.86935e-09 -2.00555e-08 1.79192e-08)
(1.03924e-08 -2.33241e-08 2.22645e-08)
(1.20714e-08 -2.65524e-08 2.73703e-08)
(1.39786e-08 -2.9584e-08 3.33505e-08)
(1.62078e-08 -3.21457e-08 4.02841e-08)
(1.8889e-08 -3.38125e-08 4.81816e-08)
(2.22134e-08 -3.39979e-08 5.69312e-08)
(2.64487e-08 -3.20732e-08 6.62131e-08)
(3.18486e-08 -2.78605e-08 7.53615e-08)
(3.79171e-08 -2.28378e-08 8.30154e-08)
(4.37372e-08 -2.0849e-08 8.79271e-08)
(0 0 0)
(2.20701e-09 -4.82041e-09 3.61216e-09)
(4.20554e-09 -9.23755e-09 7.02788e-09)
(6.06756e-09 -1.34403e-08 1.04837e-08)
(7.85753e-09 -1.75752e-08 1.41875e-08)
(9.6364e-09 -2.17488e-08 1.83316e-08)
(1.14649e-08 -2.60247e-08 2.30993e-08)
(1.34066e-08 -3.04176e-08 2.86682e-08)
(1.55308e-08 -3.48815e-08 3.52078e-08)
(1.7913e-08 -3.92909e-08 4.28705e-08)
(2.06324e-08 -4.34143e-08 5.17684e-08)
(2.37611e-08 -4.68839e-08 6.19279e-08)
(2.73417e-08 -4.9181e-08 7.32098e-08)
(3.13345e-08 -4.96997e-08 8.51657e-08)
(3.55362e-08 -4.80512e-08 9.67972e-08)
(3.93669e-08 -4.49406e-08 1.06114e-07)
(4.26717e-08 -4.33494e-08 1.11301e-07)
(0 0 0)
(2.66835e-09 -5.73835e-09 4.34792e-09)
(5.08188e-09 -1.10047e-08 8.45473e-09)
(7.32521e-09 -1.60315e-08 1.26006e-08)
(9.474e-09 -2.10033e-08 1.70313e-08)
(1.15999e-08 -2.60611e-08 2.19736e-08)
(1.37741e-08 -3.1303e-08 2.76439e-08)
(1.60709e-08 -3.67815e-08 3.42528e-08)
(1.85702e-08 -4.24977e-08 4.20052e-08)
(2.13568e-08 -4.83902e-08 5.10926e-08)
(2.45129e-08 -5.43169e-08 6.16723e-08)
(2.80984e-08 -6.0026e-08 7.38235e-08)
(3.21045e-08 -6.5107e-08 8.74621e-08)
(3.63569e-08 -6.89117e-08 1.02163e-07)
(4.03767e-08 -7.04844e-08 1.16792e-07)
(4.33044e-08 -6.9087e-08 1.28729e-07)
(4.47099e-08 -6.64419e-08 1.35364e-07)
(0 0 0)
(3.07487e-09 -6.4669e-09 4.98412e-09)
(5.85211e-09 -1.24116e-08 9.68499e-09)
(8.42579e-09 -1.81057e-08 1.44173e-08)
(1.08799e-08 -2.37683e-08 1.94558e-08)
(1.32941e-08 -2.95743e-08 2.50531e-08)
(1.57477e-08 -3.56581e-08 3.14496e-08)
(1.83244e-08 -4.21153e-08 3.88799e-08)
(2.11161e-08 -4.90043e-08 4.75753e-08)
(2.42253e-08 -5.63454e-08 5.77603e-08)
(2.77644e-08 -6.41179e-08 6.96394e-08)
(3.18491e-08 -7.22476e-08 8.3369e-08)
(3.65776e-08 -8.05691e-08 9.8998e-08)
(4.19635e-08 -8.86965e-08 1.16314e-07)
(4.77506e-08 -9.56766e-08 1.34405e-07)
(5.28629e-08 -9.95911e-08 1.50299e-07)
(5.46343e-08 -9.65882e-08 1.60862e-07)
(0 0 0)
(3.42083e-09 -6.97338e-09 5.51204e-09)
(6.50534e-09 -1.33951e-08 1.07018e-08)
(9.35343e-09 -1.95681e-08 1.59082e-08)
(1.2054e-08 -2.57403e-08 2.14255e-08)
(1.46913e-08 -3.21159e-08 2.75219e-08)
(1.73494e-08 -3.88617e-08 3.44514e-08)
(2.01178e-08 -4.61129e-08 4.246e-08)
(2.30976e-08 -5.39811e-08 5.17908e-08)
(2.64087e-08 -6.25629e-08 6.26838e-08)
(3.02e-08 -7.19527e-08 7.53715e-08)
(3.4668e-08 -8.22633e-08 9.00695e-08)
(4.00905e-08 -9.36515e-08 1.0696e-07)
(4.68739e-08 -1.06322e-07 1.26116e-07)
(5.55223e-08 -1.20342e-07 1.47162e-07)
(6.55575e-08 -1.34302e-07 1.67436e-07)
(7.5121e-08 -1.46566e-07 1.83546e-07)
(0 0 0)
(3.70314e-09 -7.23071e-09 5.92819e-09)
(7.03615e-09 -1.39025e-08 1.14991e-08)
(1.01008e-08 -2.03398e-08 1.70653e-08)
(1.29871e-08 -2.68103e-08 2.29303e-08)
(1.57798e-08 -3.35391e-08 2.93678e-08)
(1.8563e-08 -4.07167e-08 3.66332e-08)
(2.14261e-08 -4.85072e-08 4.497e-08)
(2.44707e-08 -5.70582e-08 5.46142e-08)
(2.78199e-08 -6.65131e-08 6.57949e-08)
(3.16327e-08 -7.70286e-08 7.87315e-08)
(3.6129e-08 -8.88025e-08 9.36287e-08)
(4.16314e-08 -1.02118e-07 1.1067e-07)
(4.86167e-08 -1.17389e-07 1.2997e-07)
(5.76703e-08 -1.35066e-07 1.51342e-07)
(6.80066e-08 -1.53506e-07 1.7199e-07)
(8.68276e-08 -1.80379e-07 1.9565e-07)
(0 0 0)
(0 0 0)
(0 0 0)
(0 0 0)
(0 0 0)
(0 0 0)
(0 0 0)
(0 0 0)
(0 0 0)
(0 0 0)
(0 0 0)
(0 0 0)
(0 0 0)
(0 0 0)
(0 0 0)
(0 0 0)
(5.22455e-09 7.43299e-09 2.67065e-09)
(0 0 0)
(5.83458e-10 -1.32601e-09 8.95577e-10)
(1.11157e-09 -2.53761e-09 1.74278e-09)
(1.60319e-09 -3.68382e-09 2.60067e-09)
(2.07489e-09 -4.80128e-09 3.52113e-09)
(2.54158e-09 -5.91319e-09 4.55136e-09)
(3.01723e-09 -7.02729e-09 5.73499e-09)
(3.51605e-09 -8.13249e-09 7.11189e-09)
(4.0541e-09 -9.19218e-09 8.71601e-09)
(4.65262e-09 -1.01334e-08 1.057e-08)
(5.3462e-09 -1.08307e-08 1.26752e-08)
(6.20141e-09 -1.10814e-08 1.49946e-08)
(7.35288e-09 -1.05695e-08 1.74218e-08)
(9.05086e-09 -8.82139e-09 1.97175e-08)
(1.16156e-08 -5.26012e-09 2.137e-08)
(1.47916e-08 -7.31091e-11 2.14724e-08)
(1.59138e-08 5.21248e-09 1.55839e-08)
(0 0 0)
(1.15405e-09 -2.61249e-09 1.76815e-09)
(2.19836e-09 -5.0012e-09 3.44027e-09)
(3.16995e-09 -7.26404e-09 5.13246e-09)
(4.10117e-09 -9.47475e-09 6.94645e-09)
(5.02114e-09 -1.16819e-08 8.97477e-09)
(5.95702e-09 -1.39054e-08 1.1303e-08)
(6.93537e-09 -1.61309e-08 1.40096e-08)
(7.98381e-09 -1.82992e-08 1.71611e-08)
(9.13358e-09 -2.02895e-08 2.0802e-08)
(1.04258e-08 -2.18993e-08 2.49332e-08)
(1.19251e-08 -2.28244e-08 2.94746e-08)
(1.37401e-08 -2.26652e-08 3.41953e-08)
(1.60225e-08 -2.10331e-08 3.85857e-08)
(1.8814e-08 -1.79559e-08 4.16628e-08)
(2.14561e-08 -1.47876e-08 4.2122e-08)
(2.19985e-08 -1.55712e-08 3.7284e-08)
(0 0 0)
(1.69988e-09 -3.8208e-09 2.59669e-09)
(3.23749e-09 -7.31801e-09 5.05105e-09)
(4.66664e-09 -1.06381e-08 7.53232e-09)
(6.03433e-09 -1.38929e-08 1.01884e-08)
(7.38294e-09 -1.71601e-08 1.3154e-08)
(8.75168e-09 -2.04793e-08 1.65541e-08)
(1.01777e-08 -2.38464e-08 2.05035e-08)
(1.16961e-08 -2.72018e-08 2.51017e-08)
(1.33377e-08 -3.04142e-08 3.04178e-08)
(1.51255e-08 -3.32624e-08 3.64614e-08)
(1.70651e-08 -3.54284e-08 4.31277e-08)
(1.91258e-08 -3.65407e-08 5.01026e-08)
(2.11892e-08 -3.63637e-08 5.67068e-08)
(2.29325e-08 -3.52698e-08 6.17145e-08)
(2.37353e-08 -3.47039e-08 6.36205e-08)
(2.16228e-08 -3.71415e-08 5.97446e-08)
(0 0 0)
(2.2097e-09 -4.91159e-09 3.36176e-09)
(4.20714e-09 -9.41311e-09 6.53671e-09)
(6.06109e-09 -1.36983e-08 9.7415e-09)
(7.83164e-09 -1.7918e-08 1.31651e-08)
(9.57321e-09 -2.21823e-08 1.69793e-08)
(1.13362e-08 -2.65587e-08 2.13444e-08)
(1.31679e-08 -3.10672e-08 2.6409e-08)
(1.51104e-08 -3.56715e-08 3.23044e-08)
(1.71943e-08 -4.02652e-08 3.9129e-08)
(1.94223e-08 -4.4656e-08 4.69139e-08)
(2.1737e-08 -4.85569e-08 5.55591e-08)
(2.39558e-08 -5.16122e-08 6.47207e-08)
(2.56665e-08 -5.35233e-08 7.36239e-08)
(2.61474e-08 -5.43718e-08 8.0828e-08)
(2.47927e-08 -5.49805e-08 8.44141e-08)
(2.01648e-08 -5.74882e-08 8.13424e-08)
(0 0 0)
(2.6736e-09 -5.84615e-09 4.04698e-09)
(5.08813e-09 -1.12122e-08 7.86486e-09)
(7.32491e-09 -1.63363e-08 1.17103e-08)
(9.4552e-09 -2.14075e-08 1.58068e-08)
(1.15439e-08 -2.65703e-08 2.03571e-08)
(1.3652e-08 -3.19258e-08 2.55506e-08)
(1.58373e-08 -3.75293e-08 3.15646e-08)
(1.81528e-08 -4.33864e-08 3.85595e-08)
(2.06389e-08 -4.94439e-08 4.66644e-08)
(2.33035e-08 -5.55777e-08 5.59433e-08)
(2.60792e-08 -6.15744e-08 6.63308e-08)
(2.87345e-08 -6.71085e-08 7.75129e-08)
(3.07204e-08 -7.17165e-08 8.87087e-08)
(3.10235e-08 -7.48199e-08 9.83444e-08)
(2.8733e-08 -7.60606e-08 1.04029e-07)
(2.19861e-08 -7.7171e-08 1.02194e-07)
(0 0 0)
(3.08348e-09 -6.58767e-09 4.63984e-09)
(5.86479e-09 -1.26441e-08 9.01076e-09)
(8.43491e-09 -1.84469e-08 1.34011e-08)
(1.08738e-08 -2.42202e-08 1.80607e-08)
(1.32547e-08 -3.01417e-08 2.32157e-08)
(1.56476e-08 -3.63476e-08 2.90769e-08)
(1.8121e-08 -4.29335e-08 3.58423e-08)
(2.07426e-08 -4.99561e-08 4.36941e-08)
(2.3575e-08 -5.74323e-08 5.2787e-08)
(2.66635e-08 -6.53351e-08 6.32194e-08)
(3.0007e-08 -7.35816e-08 7.49758e-08)
(3.34913e-08 -8.19952e-08 8.78152e-08)
(3.67497e-08 -9.01911e-08 1.01039e-07)
(3.89311e-08 -9.73077e-08 1.13063e-07)
(3.87828e-08 -1.01753e-07 1.21056e-07)
(3.22273e-08 -1.00549e-07 1.21133e-07)
(0 0 0)
(3.43339e-09 -7.10301e-09 5.13218e-09)
(6.52576e-09 -1.36445e-08 9.95862e-09)
(9.37437e-09 -1.99342e-08 1.479e-08)
(1.20646e-08 -2.62247e-08 1.98938e-08)
(1.46753e-08 -3.27228e-08 2.55108e-08)
(1.72824e-08 -3.95955e-08 3.18634e-08)
(1.99627e-08 -4.69758e-08 3.91598e-08)
(2.2797e-08 -5.49683e-08 4.7592e-08)
(2.58722e-08 -6.36561e-08 5.73264e-08)
(2.92814e-08 -7.31083e-08 6.84805e-08)
(3.31214e-08 -8.33891e-08 8.10756e-08)
(3.74809e-08 -9.45601e-08 9.49402e-08)
(4.23996e-08 -1.06637e-07 1.09487e-07)
(4.77191e-08 -1.19351e-07 1.23213e-07)
(5.25276e-08 -1.31072e-07 1.32939e-07)
(5.42644e-08 -1.39987e-07 1.33383e-07)
(0 0 0)
(3.71992e-09 -7.36471e-09 5.5207e-09)
(7.06497e-09 -1.41605e-08 1.07027e-08)
(1.01348e-08 -2.07184e-08 1.58693e-08)
(1.30166e-08 -2.73111e-08 2.12967e-08)
(1.57908e-08 -3.41658e-08 2.72304e-08)
(1.85351e-08 -4.14725e-08 3.38949e-08)
(2.13289e-08 -4.9391e-08 4.14961e-08)
(2.42579e-08 -5.80588e-08 5.02204e-08)
(2.74199e-08 -6.75998e-08 6.02254e-08)
(3.0931e-08 -7.81346e-08 7.1619e-08)
(3.49342e-08 -8.9794e-08 8.44173e-08)
(3.96046e-08 -1.02731e-07 9.84593e-08)
(4.51293e-08 -1.17104e-07 1.13214e-07)
(5.15612e-08 -1.32888e-07 1.2737e-07)
(5.78532e-08 -1.48139e-07 1.37781e-07)
(6.76329e-08 -1.67661e-07 1.37602e-07)
(0 0 0)
(0 0 0)
(0 0 0)
(0 0 0)
(0 0 0)
(0 0 0)
(0 0 0)
(0 0 0)
(0 0 0)
(0 0 0)
(0 0 0)
(0 0 0)
(0 0 0)
(0 0 0)
(0 0 0)
(0 0 0)
(1.66449e-09 2.83272e-09 1.74598e-09)
(0 0 0)
(5.8125e-10 -1.34728e-09 7.97079e-10)
(1.10602e-09 -2.57864e-09 1.55022e-09)
(1.5917e-09 -3.74424e-09 2.31112e-09)
(2.05294e-09 -4.88182e-09 3.12468e-09)
(2.50184e-09 -6.01597e-09 4.03095e-09)
(2.94806e-09 -7.15661e-09 5.06568e-09)
(3.39886e-09 -8.29655e-09 6.25943e-09)
(3.85879e-09 -9.40706e-09 7.63419e-09)
(4.32945e-09 -1.04314e-08 9.19616e-09)
(4.81075e-09 -1.12776e-08 1.09225e-08)
(5.30541e-09 -1.18126e-08 1.27383e-08)
(5.82725e-09 -1.18612e-08 1.4476e-08)
(6.40226e-09 -1.12199e-08 1.58089e-08)
(7.01509e-09 -9.71882e-09 1.61763e-08)
(7.42402e-09 -7.54035e-09 1.50083e-08)
(6.61022e-09 -4.21361e-09 1.12409e-08)
(0 0 0)
(1.15004e-09 -2.65412e-09 1.57374e-09)
(2.18818e-09 -5.08144e-09 3.06027e-09)
(3.14865e-09 -7.38205e-09 4.56122e-09)
(4.06019e-09 -9.63176e-09 6.16468e-09)
(4.94669e-09 -1.18814e-08 7.94921e-09)
(5.82724e-09 -1.41547e-08 9.98506e-09)
(6.71564e-09 -1.64436e-08 1.23325e-08)
(7.61866e-09 -1.87014e-08 1.50353e-08)
(8.5329e-09 -2.08331e-08 1.81075e-08)
(9.44094e-09 -2.26872e-08 2.15077e-08)
(1.0307e-08 -2.40599e-08 2.50958e-08)
(1.10698e-08 -2.47334e-08 2.85608e-08)
(1.16222e-08 -2.45975e-08 3.13184e-08)
(1.17596e-08 -2.39053e-08 3.24576e-08)
(1.12286e-08 -2.34804e-08 3.12958e-08)
(1.00624e-08 -2.49856e-08 2.86075e-08)
(0 0 0)
(1.69487e-09 -3.88114e-09 2.31133e-09)
(3.22443e-09 -7.43422e-09 4.49347e-09)
(4.63867e-09 -1.08087e-08 6.69455e-09)
(5.97973e-09 -1.41191e-08 9.04276e-09)
(7.28288e-09 -1.74459e-08 1.16525e-08)
(8.57662e-09 -2.08326e-08 1.46264e-08)
(9.88124e-09 -2.42816e-08 1.80535e-08)
(1.12048e-08 -2.77462e-08 2.20008e-08)
(1.25349e-08 -3.11206e-08 2.6495e-08)
(1.38237e-08 -3.42343e-08 3.14897e-08)
(1.49642e-08 -3.68641e-08 3.6809e-08)
(1.57526e-08 -3.87997e-08 4.20612e-08)
(1.58465e-08 -4.00211e-08 4.65365e-08)
(1.47975e-08 -4.09957e-08 4.92067e-08)
(1.25472e-08 -4.25868e-08 4.93516e-08)
(9.33673e-09 -4.5659e-08 4.79618e-08)
(0 0 0)
(2.20473e-09 -4.9884e-09 2.99264e-09)
(4.19349e-09 -9.56086e-09 5.81581e-09)
(6.03056e-09 -1.39147e-08 8.65913e-09)
(7.7704e-09 -1.82037e-08 1.16864e-08)
(9.45926e-09 -2.25406e-08 1.50438e-08)
(1.11353e-08 -2.69958e-08 1.88633e-08)
(1.28269e-08 -3.15939e-08 2.32605e-08)
(1.45463e-08 -3.63069e-08 2.83258e-08)
(1.62772e-08 -4.10459e-08 3.41043e-08)
(1.7949e-08 -4.56534e-08 4.05585e-08)
(1.93918e-08 -4.99079e-08 4.7505e-08)
(2.0262e-08 -5.35656e-08 5.45211e-08)
(1.99619e-08 -5.64799e-08 6.08365e-08)
(1.77194e-08 -5.88125e-08 6.53248e-08)
(1.35354e-08 -6.10053e-08 6.70434e-08)
(8.18247e-09 -6.39701e-08 6.68678e-08)
(0 0 0)
(2.66983e-09 -5.93665e-09 3.60313e-09)
(5.07639e-09 -1.1386e-08 6.99851e-09)
(7.29629e-09 -1.65904e-08 1.04109e-08)
(9.39485e-09 -2.17415e-08 1.4034e-08)
(1.14286e-08 -2.69859e-08 1.80405e-08)
(1.34457e-08 -3.24256e-08 2.25867e-08)
(1.54848e-08 -3.8117e-08 2.78111e-08)
(1.75693e-08 -4.40666e-08 3.38254e-08)
(1.96933e-08 -5.02253e-08 4.06951e-08)
(2.17936e-08 -5.6478e-08 4.84001e-08)
(2.36957e-08 -6.26319e-08 5.67694e-08)
(2.50171e-08 -6.84016e-08 6.53804e-08)
(2.50386e-08 -7.33899e-08 7.34331e-08)
(2.27149e-08 -7.70843e-08 7.96996e-08)
(1.77371e-08 -7.90151e-08 8.29602e-08)
(1.04821e-08 -7.99518e-08 8.39949e-08)
(0 0 0)
(3.08197e-09 -6.68868e-09 4.13164e-09)
(5.85731e-09 -1.28379e-08 8.01959e-09)
(8.41237e-09 -1.87296e-08 1.19164e-08)
(1.08213e-08 -2.45902e-08 1.60386e-08)
(1.31493e-08 -3.05988e-08 2.05792e-08)
(1.54543e-08 -3.68901e-08 2.57123e-08)
(1.77868e-08 -4.35565e-08 3.15927e-08)
(2.01866e-08 -5.06476e-08 3.83483e-08)
(2.26739e-08 -5.81688e-08 4.60606e-08)
(2.52285e-08 -6.60741e-08 5.4727e-08)
(2.77493e-08 -7.42492e-08 6.41936e-08)
(2.9976e-08 -8.24681e-08 7.40476e-08)
(3.1365e-08 -9.02766e-08 8.34593e-08)
(3.10039e-08 -9.6751e-08 9.10601e-08)
(2.82206e-08 -1.00371e-07 9.53082e-08)
(2.13248e-08 -9.7794e-08 9.72237e-08)
(0 0 0)
(3.435e-09 -7.21103e-09 4.57088e-09)
(6.52442e-09 -1.38517e-08 8.86489e-09)
(9.36125e-09 -2.02358e-08 1.31542e-08)
(1.20256e-08 -2.66183e-08 1.7671e-08)
(1.4589e-08 -3.3206e-08 2.26205e-08)
(1.71167e-08 -4.0163e-08 2.8187e-08)
(1.96694e-08 -4.76146e-08 3.45335e-08)
(2.23038e-08 -5.5652e-08 4.17945e-08)
(2.50696e-08 -6.43335e-08 5.00577e-08)
(2.80025e-08 -7.36861e-08 5.93276e-08)
(3.11089e-08 -8.36996e-08 6.94588e-08)
(3.43365e-08 -9.43064e-08 8.00388e-08)
(3.7531e-08 -1.05309e-07 9.01927e-08)
(4.03932e-08 -1.16158e-07 9.83401e-08)
(4.24675e-08 -1.25284e-07 1.02449e-07)
(4.36943e-08 -1.307e-07 1.02936e-07)
(0 0 0)
(3.7252e-09 -7.476e-09 4.91783e-09)
(7.07101e-09 -1.43739e-08 9.52918e-09)
(1.01333e-08 -2.10288e-08 1.41173e-08)
(1.29948e-08 -2.77154e-08 1.89222e-08)
(1.57296e-08 -3.46602e-08 2.41537e-08)
(1.84064e-08 -4.20488e-08 2.99977e-08)
(2.10912e-08 -5.00312e-08 3.66156e-08)
(2.38497e-08 -5.87268e-08 4.41373e-08)
(2.67491e-08 -6.8228e-08 5.26437e-08)
(2.98583e-08 -7.8601e-08 6.21308e-08)
(3.32451e-08 -8.98839e-08 7.2446e-08)
(3.69635e-08 -1.02073e-07 8.3175e-08)
(4.10256e-08 -1.15074e-07 9.3451e-08)
(4.53225e-08 -1.28544e-07 1.0172e-07)
(4.91787e-08 -1.40711e-07 1.05837e-07)
(5.66601e-08 -1.55807e-07 1.02676e-07)
(0 0 0)
(0 0 0)
(0 0 0)
(0 0 0)
(0 0 0)
(0 0 0)
(0 0 0)
(0 0 0)
(0 0 0)
(0 0 0)
(0 0 0)
(0 0 0)
(0 0 0)
(0 0 0)
(0 0 0)
(0 0 0)
(2.41222e-10 1.09352e-09 1.98385e-09)
(0 0 0)
(5.77713e-10 -1.36448e-09 6.71155e-10)
(1.09789e-09 -2.6118e-09 1.30466e-09)
(1.57639e-09 -3.79305e-09 1.94335e-09)
(2.02586e-09 -4.94687e-09 2.62404e-09)
(2.45559e-09 -6.09891e-09 3.37883e-09)
(2.87105e-09 -7.26083e-09 4.2353e-09)
(3.27319e-09 -8.42872e-09 5.21526e-09)
(3.65679e-09 -9.58025e-09 6.33121e-09)
(4.00824e-09 -1.06711e-08 7.57921e-09)
(4.30361e-09 -1.16326e-08 8.92727e-09)
(4.50903e-09 -1.23732e-08 1.02975e-08)
(4.58465e-09 -1.27853e-08 1.15419e-08)
(4.49337e-09 -1.27518e-08 1.24215e-08)
(4.20843e-09 -1.21389e-08 1.26342e-08)
(3.73912e-09 -1.08704e-08 1.20591e-08)
(2.8979e-09 -7.67944e-09 1.03187e-08)
(0 0 0)
(1.14345e-09 -2.68781e-09 1.3252e-09)
(2.17298e-09 -5.14633e-09 2.57568e-09)
(3.11986e-09 -7.47735e-09 3.83567e-09)
(4.00909e-09 -9.75822e-09 5.17737e-09)
(4.85927e-09 -1.20416e-08 6.66378e-09)
(5.68174e-09 -1.4354e-08 8.34917e-09)
(6.47871e-09 -1.66925e-08 1.02768e-08)
(7.23937e-09 -1.90204e-08 1.2472e-08)
(7.93383e-09 -2.12618e-08 1.49293e-08)
(8.50557e-09 -2.32999e-08 1.7591e-08)
(8.86459e-09 -2.49885e-08 2.03144e-08)
(8.8858e-09 -2.61899e-08 2.28313e-08)
(8.42912e-09 -2.68557e-08 2.4721e-08)
(7.42311e-09 -2.71348e-08 2.54897e-08)
(6.12547e-09 -2.7356e-08 2.503e-08)
(5.41262e-09 -2.83531e-08 2.43447e-08)
(0 0 0)
(1.68609e-09 -3.92997e-09 1.94649e-09)
(3.20404e-09 -7.52813e-09 3.78232e-09)
(4.59973e-09 -1.09461e-08 5.63025e-09)
(5.91017e-09 -1.43004e-08 7.59536e-09)
(7.16352e-09 -1.76732e-08 9.76946e-09)
(8.37795e-09 -2.11112e-08 1.22321e-08)
(9.55848e-09 -2.46213e-08 1.50474e-08)
(1.06907e-08 -2.81661e-08 1.82554e-08)
(1.17294e-08 -3.1658e-08 2.18549e-08)
(1.2582e-08 -3.49579e-08 2.57753e-08)
(1.30863e-08 -3.78925e-08 2.98372e-08)
(1.29912e-08 -4.03124e-08 3.37081e-08)
(1.19786e-08 -4.22185e-08 3.68912e-08)
(9.84781e-09 -4.39249e-08 3.88579e-08)
(7.12446e-09 -4.58605e-08 3.95115e-08)
(4.86279e-09 -4.84695e-08 3.99045e-08)
(0 0 0)
(2.19491e-09 -5.05043e-09 2.52056e-09)
(4.17036e-09 -9.67992e-09 4.89602e-09)
(5.98578e-09 -1.40882e-08 7.28352e-09)
(7.6896e-09 -1.8431e-08 9.81732e-09)
(9.31986e-09 -2.28224e-08 1.26149e-08)
(1.0903e-08 -2.73344e-08 1.57787e-08)
(1.245e-08 -3.1994e-08 1.93925e-08)
(1.39486e-08 -3.67779e-08 2.35117e-08)
(1.5348e-08 -4.16065e-08 2.81441e-08)
(1.65333e-08 -4.63395e-08 3.32186e-08)
(1.72864e-08 -5.07816e-08 3.85412e-08)
(1.72383e-08 -5.47167e-08 4.37509e-08)
(1.5863e-08 -5.79908e-08 4.83169e-08)
(1.27044e-08 -6.06412e-08 5.16792e-08)
(8.3488e-09 -6.284e-08 5.36145e-08)
(4.28083e-09 -6.52589e-08 5.50601e-08)
(0 0 0)
(2.66019e-09 -6.00954e-09 3.03521e-09)
(5.0532e-09 -1.15256e-08 5.89261e-09)
(7.25036e-09 -1.67929e-08 8.75848e-09)
(9.31065e-09 -2.20048e-08 1.17916e-08)
(1.12819e-08 -2.73084e-08 1.5131e-08)
(1.32002e-08 -3.28051e-08 1.88981e-08)
(1.50866e-08 -3.85494e-08 2.31935e-08)
(1.69397e-08 -4.45453e-08 2.80868e-08)
(1.87203e-08 -5.07401e-08 3.35964e-08)
(2.03242e-08 -5.70139e-08 3.96559e-08)
(2.1536e-08 -6.31662e-08 4.60668e-08)
(2.19619e-08 -6.88954e-08 5.24496e-08)
(2.09778e-08 -7.37648e-08 5.82361e-08)
(1.78811e-08 -7.71802e-08 6.28035e-08)
(1.29407e-08 -7.86e-08 6.57899e-08)
(7.20309e-09 -7.87022e-08 6.81252e-08)
(0 0 0)
(3.07369e-09 -6.76976e-09 3.481e-09)
(5.83659e-09 -1.29929e-08 6.75353e-09)
(8.36979e-09 -1.89536e-08 1.00269e-08)
(1.07411e-08 -2.48795e-08 1.34788e-08)
(1.30074e-08 -3.09489e-08 1.72646e-08)
(1.52147e-08 -3.72935e-08 2.15198e-08)
(1.73968e-08 -4.39992e-08 2.6357e-08)
(1.95705e-08 -5.11051e-08 3.18559e-08)
(2.17251e-08 -5.85987e-08 3.80426e-08)
(2.38031e-08 -6.64054e-08 4.48536e-08)
(2.56669e-08 -7.4366e-08 5.20836e-08)
(2.70467e-08 -8.21857e-08 5.93233e-08)
(2.74895e-08 -8.93193e-08 6.59274e-08)
(2.64125e-08 -9.47716e-08 7.11272e-08)
(2.37166e-08 -9.71621e-08 7.44178e-08)
(1.84625e-08 -9.35077e-08 7.70757e-08)
(0 0 0)
(3.42906e-09 -7.29745e-09 3.85174e-09)
(6.50833e-09 -1.40166e-08 7.46675e-09)
(9.32578e-09 -2.04735e-08 1.10707e-08)
(1.19557e-08 -2.69236e-08 1.48542e-08)
(1.44617e-08 -3.35717e-08 1.89827e-08)
(1.68984e-08 -4.05767e-08 2.35998e-08)
(1.93115e-08 -4.80539e-08 2.88239e-08)
(2.17368e-08 -5.60764e-08 3.47383e-08)
(2.41968e-08 -6.46736e-08 4.13702e-08)
(2.66936e-08 -7.38245e-08 4.86529e-08)
(2.91988e-08 -8.34442e-08 5.63675e-08)
(3.16433e-08 -9.33523e-08 6.40619e-08)
(3.39331e-08 -1.03207e-07 7.09756e-08)
(3.60341e-08 -1.12365e-07 7.60785e-08)
(3.80189e-08 -1.19552e-07 7.85667e-08)
(4.06067e-08 -1.23414e-07 7.97732e-08)
(0 0 0)
(3.72233e-09 -7.56477e-09 4.1448e-09)
(7.0611e-09 -1.45432e-08 8.02772e-09)
(1.01077e-08 -2.12723e-08 1.18837e-08)
(1.29396e-08 -2.80269e-08 1.59101e-08)
(1.56241e-08 -3.50307e-08 2.02762e-08)
(1.82205e-08 -4.24626e-08 2.51271e-08)
(2.07818e-08 -5.04598e-08 3.05799e-08)
(2.3356e-08 -5.91202e-08 3.67143e-08)
(2.59873e-08 -6.85002e-08 4.3551e-08)
(2.87154e-08 -7.86101e-08 5.10144e-08)
(3.15757e-08 -8.94016e-08 5.88722e-08)
(3.45993e-08 -1.00748e-07 6.66489e-08)
(3.78247e-08 -1.12411e-07 7.35344e-08)
(4.13134e-08 -1.23975e-07 7.83931e-08)
(4.48018e-08 -1.34083e-07 8.02466e-08)
(5.30523e-08 -1.47465e-07 7.80777e-08)
(0 0 0)
(0 0 0)
(0 0 0)
(0 0 0)
(0 0 0)
(0 0 0)
(0 0 0)
(0 0 0)
(0 0 0)
(0 0 0)
(0 0 0)
(0 0 0)
(0 0 0)
(0 0 0)
(0 0 0)
(0 0 0)
(-2.1622e-10 5.59296e-10 1.86976e-09)
(0 0 0)
(5.7373e-10 -1.37756e-09 5.22844e-10)
(1.08902e-09 -2.63698e-09 1.0159e-09)
(1.56036e-09 -3.83014e-09 1.51213e-09)
(1.99861e-09 -4.99631e-09 2.03956e-09)
(2.41058e-09 -6.16176e-09 2.62207e-09)
(2.79834e-09 -7.33928e-09 3.27943e-09)
(3.15805e-09 -8.52713e-09 4.02618e-09)
(3.47791e-09 -9.70701e-09 4.86854e-09)
(3.73559e-09 -1.08417e-08 5.79895e-09)
(3.89686e-09 -1.1874e-08 6.78819e-09)
(3.91775e-09 -1.27284e-08 7.77559e-09)
(3.75528e-09 -1.33127e-08 8.66131e-09)
(3.39211e-09 -1.35076e-08 9.3116e-09)
(2.87447e-09 -1.3121e-08 9.60656e-09)
(2.34479e-09 -1.19409e-08 9.55e-09)
(1.78321e-09 -8.54464e-09 8.68596e-09)
(0 0 0)
(1.13597e-09 -2.7135e-09 1.03243e-09)
(2.15632e-09 -5.19581e-09 2.00579e-09)
(3.0896e-09 -7.54994e-09 2.98484e-09)
(3.95744e-09 -9.85424e-09 4.02451e-09)
(4.77385e-09 -1.21625e-08 5.17171e-09)
(5.54386e-09 -1.45029e-08 6.46544e-09)
(6.26092e-09 -1.6876e-08 7.93459e-09)
(6.90247e-09 -1.92508e-08 9.59214e-09)
(7.42391e-09 -2.15617e-08 1.14252e-08)
(7.75303e-09 -2.3708e-08 1.33805e-08)
(7.78944e-09 -2.55626e-08 1.53467e-08)
(7.42065e-09 -2.69974e-08 1.71413e-08)
(6.57821e-09 -2.79269e-08 1.85208e-08)
(5.37069e-09 -2.83575e-08 1.92642e-08)
(4.27275e-09 -2.84116e-08 1.93796e-08)
(4.21551e-09 -2.87953e-08 1.93318e-08)
(0 0 0)
(1.67597e-09 -3.96731e-09 1.5166e-09)
(3.1814e-09 -7.59984e-09 2.94578e-09)
(4.55835e-09 -1.10507e-08 4.38187e-09)
(5.83921e-09 -1.44374e-08 5.90477e-09)
(7.04598e-09 -1.78435e-08 7.58291e-09)
(8.18839e-09 -2.13169e-08 9.47359e-09)
(9.26006e-09 -2.48672e-08 1.16199e-08)
(1.02316e-08 -2.84618e-08 1.40431e-08)
(1.10406e-08 -3.20211e-08 1.67297e-08)
(1.15788e-08 -3.54177e-08 1.96125e-08)
(1.16816e-08 -3.84894e-08 2.25502e-08)
(1.11354e-08 -4.10806e-08 2.53151e-08)
(9.74734e-09 -4.31313e-08 2.76208e-08)
(7.56893e-09 -4.47976e-08 2.92387e-08)
(5.33477e-09 -4.63606e-08 3.01751e-08)
(4.04251e-09 -4.83074e-08 3.08405e-08)
(0 0 0)
(2.18323e-09 -5.09789e-09 1.96414e-09)
(4.14404e-09 -9.77076e-09 3.81369e-09)
(5.93726e-09 -1.42199e-08 5.66936e-09)
(7.60591e-09 -1.86018e-08 7.63324e-09)
(9.18089e-09 -2.30312e-08 9.79302e-09)
(1.0679e-08 -2.75805e-08 1.22225e-08)
(1.20984e-08 -3.22766e-08 1.49783e-08)
(1.34108e-08 -3.70968e-08 1.80907e-08)
(1.45481e-08 -4.19627e-08 2.15493e-08)
(1.53829e-08 -4.67345e-08 2.52814e-08)
(1.57052e-08 -5.12125e-08 2.91299e-08)
(1.52067e-08 -5.51579e-08 3.28436e-08)
(1.35263e-08 -5.8352e-08 3.61155e-08)
(1.04991e-08 -6.07111e-08 3.87052e-08)
(6.8862e-09 -6.236e-08 4.05316e-08)
(4.00798e-09 -6.40791e-08 4.18991e-08)
(0 0 0)
(2.6481e-09 -6.06521e-09 2.36553e-09)
(5.02567e-09 -1.16319e-08 4.59069e-09)
(7.19907e-09 -1.69459e-08 6.81853e-09)
(9.22144e-09 -2.22013e-08 9.16984e-09)
(1.11331e-08 -2.75446e-08 1.17484e-08)
(1.29601e-08 -3.30755e-08 1.4642e-08)
(1.47105e-08 -3.88451e-08 1.79185e-08)
(1.6367e-08 -4.48516e-08 2.16166e-08)
(1.78745e-08 -5.10334e-08 2.57298e-08)
(1.91198e-08 -5.72563e-08 3.01825e-08)
(1.99033e-08 -6.3296e-08 3.48055e-08)
(1.99054e-08 -6.88112e-08 3.93225e-08)
(1.86865e-08 -7.33052e-08 4.33913e-08)
(1.5852e-08 -7.61244e-08 4.67337e-08)