/*--------------------------------*- C++ -*----------------------------------*\
| =========                 |                                                 |
| \\      /  F ield         | OpenFOAM: The Open Source CFD Toolbox           |
|  \\    /   O peration     | Version:  v1912                                 |
|   \\  /    A nd           | Website:  www.openfoam.com                      |
|    \\/     M anipulation  |                                                 |
\*---------------------------------------------------------------------------*/
FoamFile
{
    version     2.0;
    format      ascii;
    class       volScalarField;
    location    "0.58/fluid";
    object      T;
}
// * * * * * * * * * * * * * * * * * * * * * * * * * * * * * * * * * * * * * //

dimensions      [0 0 0 1 0 0 0];


internalField   nonuniform List<scalar> 
14592
(
273.245
273.746
274.272
274.831
275.432
276.083
276.795
277.578
278.445
279.407
280.48
281.682
283.036
284.576
286.366
288.567
273.243
273.741
274.263
274.818
275.415
276.062
276.77
277.548
278.409
279.366
280.433
281.629
282.979
284.516
286.3
288.462
273.241
273.733
274.25
274.799
275.389
276.028
276.728
277.497
278.347
279.293
280.348
281.533
282.874
284.406
286.193
288.366
273.238
273.723
274.232
274.773
275.354
275.984
276.672
277.428
278.263
279.191
280.229
281.396
282.721
284.244
286.037
288.245
273.234
273.712
274.212
274.744
275.314
275.931
276.603
277.342
278.158
279.064
280.076
281.216
282.514
284.019
285.812
288.066
273.23
273.698
274.189
274.71
275.267
275.869
276.525
277.243
278.034
278.911
279.889
280.991
282.247
283.714
285.487
287.781
273.225
273.684
274.164
274.672
275.216
275.801
276.437
277.132
277.895
278.737
279.672
280.722
281.916
283.31
285.013
287.288
273.22
273.668
274.137
274.633
275.161
275.73
276.344
277.013
277.744
278.546
279.431
280.415
281.524
282.802
284.34
286.386
273.251
273.763
274.303
274.877
275.495
276.167
276.905
277.72
278.626
279.638
280.772
282.052
283.503
285.166
287.105
289.444
273.249
273.758
274.293
274.864
275.478
276.146
276.879
277.689
278.589
279.595
280.724
281.998
283.445
285.106
287.042
289.361
273.247
273.75
274.279
274.843
275.45
276.111
276.835
277.636
278.525
279.519
280.636
281.898
283.337
284.995
286.938
289.277
273.243
273.74
274.262
274.817
275.415
276.065
276.777
277.563
278.437
279.413
280.511
281.755
283.179
284.831
286.786
289.169
273.239
273.728
274.241
274.786
275.372
276.009
276.706
277.474
278.327
279.279
280.35
281.566
282.964
284.599
286.563
289.006
273.235
273.714
274.217
274.751
275.324
275.945
276.623
277.37
278.197
279.119
280.154
281.329
282.684
284.281
286.232
288.735
273.23
273.699
274.191
274.712
275.27
275.874
276.532
277.254
278.05
278.935
279.924
281.044
282.332
283.854
285.736
288.241
273.225
273.683
274.163
274.671
275.214
275.799
276.435
277.129
277.891
278.732
279.668
280.717
281.912
283.306
285.009
287.285
273.256
273.78
274.331
274.919
275.553
276.245
277.007
277.85
278.791
279.844
281.03
282.369
283.888
285.619
287.605
289.901
273.254
273.774
274.322
274.906
275.536
276.223
276.98
277.818
278.753
279.8
280.98
282.313
283.829
285.559
287.546
289.829
273.252
273.766
274.307
274.885
275.508
276.187
276.934
277.763
278.686
279.722
280.889
282.211
283.719
285.448
287.444
289.752
273.248
273.756
274.289
274.858
275.471
276.139
276.874
277.688
278.595
279.612
280.76
282.064
283.556
285.281
287.293
289.65
273.244
273.743
274.267
274.826
275.427
276.082
276.8
277.595
278.48
279.473
280.593
281.868
283.335
285.045
287.07
289.492
273.24
273.729
274.243
274.789
275.377
276.015
276.715
277.487
278.345
279.305
280.388
281.621
283.045
284.718
286.735
289.225
273.235
273.713
274.216
274.749
275.321
275.942
276.62
277.366
278.192
279.113
280.148
281.323
282.678
284.275
286.227
288.732
273.229
273.697
274.187
274.706
275.263
275.864
276.518
277.235
278.026
278.901
279.879
280.98
282.237
283.703
285.478
287.775
273.261
273.794
274.357
274.957
275.606
276.314
277.096
277.964
278.933
280.021
281.245
282.627
284.187
285.949
287.933
290.15
273.259
273.789
274.347
274.943
275.588
276.292
277.068
277.931
278.894
279.975
281.194
282.57
284.127
285.889
287.875
290.083
273.256
273.78
274.332
274.922
275.559
276.255
277.022
277.874
278.826
279.895
281.101
282.466
284.016
285.778
287.775
290.009
273.253
273.77
274.314
274.894
275.521
276.205
276.96
277.797
278.732
279.782
280.968
282.315
283.851
285.61
287.624
289.909
273.249
273.757
274.291
274.861
275.476
276.146
276.884
277.701
278.614
279.638
280.796
282.114
283.624
285.37
287.4
289.752
273.244
273.742
274.266
274.823
275.424
276.078
276.795
277.589
278.474
279.466
280.585
281.86
283.327
285.037
287.063
289.487
273.239
273.726
274.238
274.782
275.367
276.002
276.697
277.464
278.315
279.267
280.337
281.552
282.95
284.585
286.55
288.998
273.233
273.709
274.208
274.738
275.306
275.921
276.592
277.329
278.143
279.047
280.058
281.197
282.495
284
285.796
288.054
273.265
273.807
274.378
274.989
275.649
276.372
277.17
278.057
279.05
280.163
281.416
282.826
284.41
286.182
288.146
290.294
273.263
273.801
274.368
274.975
275.631
276.349
277.142
278.024
279.01
280.117
281.364
282.768
284.35
286.122
288.089
290.23
273.26
273.793
274.353
274.953
275.601
276.311
277.094
277.966
278.94
280.035
281.269
282.663
284.237
286.01
287.99
290.158
273.257
273.782
274.334
274.924
275.563
276.261
277.031
277.887
278.844
279.919
281.134
282.509
284.07
285.841
287.839
290.058
273.252
273.769
274.311
274.891
275.517
276.2
276.953
277.789
278.723
279.773
280.958
282.304
283.84
285.599
287.615
289.902
273.248
273.754
274.285
274.852
275.463
276.13
276.863
277.674
278.58
279.595
280.742
282.045
283.537
285.263
287.276
289.638
273.242
273.737
274.257
274.81
275.405
276.052
276.762
277.546
278.417
279.391
280.488
281.731
283.154
284.806
286.763
289.153
273.237
273.72
274.227
274.765
275.343
275.969
276.654
277.407
278.24
279.166
280.201
281.367
282.691
284.215
286.009
288.224
273.268
273.816
274.395
275.013
275.683
276.417
277.227
278.129
279.138
280.27
281.542
282.97
284.566
286.338
288.283
290.381
273.266
273.811
274.385
274.999
275.665
276.394
277.199
278.095
279.098
280.224
281.489
282.912
284.506
286.279
288.226
290.318
273.263
273.802
274.37
274.977
275.635
276.355
277.151
278.036
279.027
280.14
281.393
282.805
284.392
286.166
288.127
290.246
273.26
273.791
274.35
274.948
275.595
276.304
277.086
277.956
278.929
280.023
281.256
282.649
284.223
285.996
287.976
290.146
273.255
273.778
274.327
274.914
275.548
276.242
277.007
277.856
278.806
279.874
281.078
282.442
283.991
285.753
287.751
289.991
273.25
273.762
274.301
274.875
275.494
276.17
276.914
277.74
278.66
279.693
280.858
282.179
283.686
285.415
287.412
289.728
273.245
273.746
274.272
274.831
275.435
276.091
276.812
277.608
278.494
279.485
280.6
281.861
283.298
284.956
286.9
289.248
273.239
273.728
274.241
274.786
275.371
276.007
276.702
277.467
278.314
279.256
280.309
281.492
282.83
284.362
286.15
288.33
273.27
273.823
274.406
275.03
275.706
276.447
277.266
278.178
279.198
280.342
281.625
283.063
284.665
286.435
288.364
290.431
273.268
273.817
274.396
275.016
275.688
276.424
277.238
278.144
279.157
280.295
281.572
283.005
284.605
286.375
288.307
290.368
273.265
273.808
274.381
274.993
275.657
276.385
277.189
278.084
279.085
280.21
281.475
282.897
284.49
286.263
288.208
290.296
273.262
273.797
274.361
274.964
275.618
276.333
277.123
278.003
278.986
280.092
281.337
282.74
284.321
286.092
288.057
290.197
273.257
273.784
274.338
274.93
275.57
276.27
277.043
277.902
278.862
279.941
281.157
282.531
284.087
285.848
287.832
290.042
273.252
273.768
274.311
274.89
275.515
276.198
276.95
277.784
278.715
279.759
280.935
282.267
283.78
285.509
287.494
289.78
273.247
273.751
274.282
274.846
275.455
276.118
276.846
277.651
278.547
279.548
280.674
281.945
283.39
285.049
286.983
289.302
273.241
273.734
274.251
274.8
275.391
276.032
276.734
277.508
278.364
279.316
280.38
281.573
282.92
284.455
286.235
288.393
273.271
273.826
274.412
275.039
275.718
276.463
277.286
278.202
279.228
280.377
281.666
283.109
284.713
286.481
288.401
290.453
273.269
273.821
274.402
275.024
275.699
276.439
277.257
278.168
279.187
280.33
281.613
283.05
284.652
286.421
288.345
290.391
273.267
273.812
274.387
275.002
275.669
276.4
277.208
278.108
279.115
280.245
281.516
282.942
284.538
286.309
288.246
290.319
273.263
273.8
274.367
274.973
275.629
276.348
277.142
278.026
279.015
280.126
281.377
282.785
284.368
286.138
288.095
290.22
273.258
273.787
274.343
274.938
275.581
276.285
277.061
277.925
278.89
279.975
281.196
282.575
284.134
285.893
287.87
290.065
273.253
273.771
274.316
274.898
275.526
276.212
276.968
277.806
278.742
279.791
280.973
282.309
283.826
285.554
287.532
289.804
273.248
273.754
274.287
274.854
275.465
276.131
276.863
277.672
278.573
279.58
280.711
281.987
283.435
285.093
287.021
289.328
273.242
273.736
274.255
274.807
275.401
276.045
276.751
277.528
278.389
279.346
280.415
281.613
282.964
284.499
286.275
288.422
273.213
273.648
274.101
274.575
275.074
275.599
276.154
276.737
277.349
277.985
278.637
279.294
279.94
280.553
281.108
281.576
273.212
273.645
274.095
274.567
275.062
275.585
276.137
276.717
277.326
277.958
278.606
279.26
279.902
280.512
281.065
281.531
273.21
273.639
274.085
274.552
275.043
275.561
276.107
276.682
277.284
277.909
278.55
279.197
279.832
280.435
280.982
281.444
273.208
273.631
274.072
274.533
275.018
275.528
276.067
276.633
277.226
277.841
278.472
279.107
279.732
280.325
280.863
281.318
273.205
273.622
274.056
274.51
274.987
275.489
276.018
276.574
277.155
277.757
278.374
278.995
279.605
280.185
280.711
281.156
273.201
273.612
274.038
274.484
274.952
275.444
275.961
276.505
277.072
277.659
278.259
278.863
279.455
280.018
280.528
280.96
273.198
273.601
274.019
274.456
274.914
275.394
275.899
276.429
276.98
277.55
278.131
278.715
279.286
279.828
280.319
280.735
273.194
273.589
273.998
274.426
274.873
275.342
275.834
276.348
276.883
277.434
277.995
278.556
279.104
279.623
280.093
280.49
273.214
273.651
274.105
274.582
275.084
275.613
276.173
276.764
277.385
278.032
278.699
279.373
280.04
280.678
281.258
281.75
273.213
273.647
274.099
274.572
275.071
275.598
276.155
276.743
277.36
278.004
278.666
279.337
280.001
280.635
281.213
281.703
273.211
273.641
274.088
274.557
275.051
275.573
276.124
276.706
277.317
277.953
278.608
279.272
279.928
280.555
281.128
281.614
273.208
273.633
274.075
274.538
275.025
275.54
276.083
276.656
277.257
277.884
278.528
279.18
279.825
280.442
281.005
281.484
273.205
273.624
274.059
274.515
274.994
275.5
276.033
276.595
277.185
277.797
278.428
279.065
279.695
280.298
280.848
281.316
273.202
273.613
274.041
274.489
274.959
275.454
275.976
276.525
277.1
277.697
278.31
278.93
279.541
280.125
280.658
281.113
273.198
273.602
274.021
274.46
274.92
275.404
275.913
276.448
277.007
277.586
278.179
278.777
279.366
279.929
280.441
280.878
273.194
273.59
274.001
274.43
274.879
275.351
275.847
276.367
276.908
277.467
278.039
278.614
279.178
279.715
280.204
280.62
273.216
273.657
274.116
274.598
275.106
275.644
276.215
276.82
277.459
278.129
278.824
279.534
280.244
280.931
281.564
282.107
273.215
273.652
274.108
274.587
275.093
275.628
276.196
276.797
277.432
278.098
278.789
279.496
280.202
280.886
281.516
282.057
273.213
273.646
274.098
274.572
275.072
275.602
276.163
276.759
277.387
278.045
278.729
279.427
280.125
280.802
281.427
281.964
273.21
273.638
274.084
274.552
275.045
275.567
276.121
276.707
277.325
277.973
278.645
279.331
280.018
280.683
281.298
281.827
273.207
273.629
274.068
274.528
275.013
275.526
276.07
276.644
277.25
277.883
278.54
279.211
279.881
280.531
281.132
281.649
273.204
273.618
274.049
274.501
274.977
275.48
276.011
276.572
277.162
277.779
278.417
279.068
279.718
280.347
280.929
281.431
273.2
273.607
274.029
274.472
274.937
275.428
275.946
276.492
277.066
277.663
278.28
278.907
279.532
280.136
280.694
281.175
273.196
273.594
274.008
274.441
274.896
275.374
275.878
276.408
276.963
277.539
278.133
278.734
279.331
279.905
280.435
280.891
273.219
273.666
274.132
274.622
275.141
275.692
276.279
276.904
277.569
278.272
279.01
279.773
280.549
281.312
282.03
282.656
273.218
273.662
274.125
274.612
275.127
275.675
276.258
276.88
277.541
278.24
278.973
279.733
280.504
281.264
281.98
282.604
273.216
273.655
274.113
274.595
275.105
275.647
276.224
276.839
277.493
278.184
278.909
279.66
280.423
281.176
281.885
282.505
273.213
273.647
274.099
274.575
275.078
275.612
276.18
276.785
277.428
278.108
278.82
279.558
280.308
281.049
281.748
282.361
273.21
273.637
274.083
274.55
275.045
275.569
276.127
276.72
277.349
278.014
278.71
279.43
280.162
280.885
281.569
282.169
273.206
273.626
274.064
274.523
275.007
275.52
276.066
276.644
277.257
277.904
278.579
279.277
279.986
280.685
281.347
281.928
273.202
273.614
274.043
274.493
274.966
275.467
275.998
276.561
277.156
277.781
278.433
279.104
279.784
280.453
281.085
281.64
273.198
273.602
274.021
274.461
274.923
275.411
275.928
276.473
277.047
277.649
278.274
278.916
279.562
280.196
280.791
281.312
273.223
273.678
274.154
274.655
275.187
275.754
276.361
277.012
277.71
278.456
279.249
280.083
280.946
281.817
282.659
283.412
273.222
273.674
274.146
274.644
275.172
275.736
276.34
276.987
277.681
278.423
279.211
280.04
280.899
281.766
282.605
283.357
273.22
273.667
274.135
274.627
275.15
275.707
276.304
276.945
277.631
278.363
279.142
279.962
280.812
281.672
282.506
283.254
273.217
273.659
274.12
274.606
275.121
275.67
276.258
276.888
277.562
278.283
279.048
279.854
280.69
281.537
282.359
283.101
273.214
273.649
274.103
274.58
275.086
275.626
276.202
276.819
277.479
278.183
278.93
279.716
280.531
281.359
282.164
282.893
273.21
273.637
274.083
274.552
275.047
275.575
276.138
276.739
277.382
278.065
278.79
279.55
280.339
281.139
281.918
282.625
273.206
273.625
274.062
274.52
275.005
275.519
276.068
276.652
277.274
277.934
278.631
279.361
280.115
280.878
281.62
282.293
273.202
273.612
274.039
274.487
274.96
275.461
275.993
276.558
277.158
277.793
278.459
279.154
279.867
280.584
281.276
281.901
273.228
273.693
274.18
274.694
275.241
275.827
276.459
277.14
277.877
278.674
279.531
280.449
281.422
282.432
283.445
284.39
273.227
273.689
274.172
274.683
275.226
275.809
276.436
277.114
277.847
278.638
279.491
280.404
281.372
282.379
283.389
284.334
273.224
273.682
274.16
274.665
275.203
275.779
276.399
277.069
277.793
278.575
279.418
280.321
281.28
282.279
283.285
284.227
273.222
273.673
274.145
274.643
275.173
275.74
276.351
277.01
277.721
278.49
279.318
280.205
281.149
282.135
283.131
284.068
273.218
273.663
274.127
274.616
275.137
275.694
276.292
276.937
277.632
278.383
279.191
280.057
280.978
281.942
282.92
283.847
273.214
273.651
274.107
274.587
275.096
275.64
276.224
276.853
277.529
278.257
279.039
279.877
280.766
281.699
282.647
283.55
273.21
273.638
274.084
274.554
275.051
275.582
276.15
276.759
277.414
278.115
278.867
279.668
280.517
281.403
282.304
283.163
273.206
273.625
274.061
274.519
275.004
275.52
276.071
276.66
277.29
277.963
278.679
279.438
280.236
281.063
281.895
282.682
273.233
273.71
274.209
274.738
275.302
275.909
276.567
277.282
278.061
278.913
279.842
280.855
281.953
283.132
284.371
285.605
273.232
273.705
274.201
274.726
275.287
275.89
276.544
277.254
278.029
278.875
279.799
280.807
281.9
283.076
284.313
285.544
273.23
273.698
274.189
274.708
275.262
275.859
276.505
277.207
277.973
278.809
279.722
280.719
281.803
282.972
284.205
285.437
273.227
273.689
274.173
274.684
275.231
275.818
276.454
277.144
277.897
278.718
279.615
280.596
281.664
282.82
284.046
285.278
273.223
273.678
274.154
274.657
275.193
275.769
276.392
277.067
277.802
278.604
279.479
280.436
281.48
282.613
283.824
285.053
273.219
273.666
274.133
274.626
275.151
275.714
276.321
276.978
277.692
278.469
279.316
280.24
281.249
282.346
283.525
284.734
273.215
273.653
274.11
274.591
275.104
275.652
276.242
276.879
277.569
278.317
279.129
280.011
280.971
282.013
283.132
284.288
273.21
273.638
274.085
274.555
275.054
275.587
276.159
276.773
277.436
278.151
278.923
279.756
280.653
281.617
282.641
283.687
273.239
273.728
274.24
274.784
275.367
275.996
276.681
277.43
278.254
279.161
280.164
281.275
282.505
283.871
285.385
287.043
273.238
273.723
274.232
274.772
275.351
275.976
276.657
277.401
278.22
279.122
280.119
281.224
282.45
283.812
285.323
286.969
273.235
273.715
274.219
274.753
275.325
275.943
276.616
277.352
278.161
279.052
280.038
281.132
282.349
283.705
285.214
286.864
273.232
273.706
274.202
274.729
275.292
275.901
276.562
277.286
278.08
278.956
279.925
281.001
282.202
283.546
285.054
286.718
273.229
273.695
274.183
274.7
275.253
275.85
276.497
277.205
277.98
278.835
279.78
280.831
282.005
283.329
284.828
286.506
273.224
273.682
274.161
274.667
275.208
275.791
276.422
277.11
277.863
278.691
279.605
280.62
281.755
283.04
284.51
286.188
273.22
273.668
274.137
274.632
275.159
275.726
276.339
277.005
277.732
278.527
279.402
280.37
281.45
282.669
284.071
285.696
273.215
273.653
274.111
274.594
275.107
275.658
276.251
276.893
277.59
278.349
279.178
280.088
281.093
282.215
283.486
284.942
273.215
273.653
274.11
274.593
275.106
275.656
276.249
276.89
277.587
278.346
279.175
280.085
281.09
282.212
283.482
284.939
273.21
273.638
274.084
274.554
275.052
275.584
276.155
276.769
277.431
278.146
278.917
279.749
280.647
281.611
282.635
283.681
273.205
273.623
274.059
274.517
275.001
275.516
276.066
276.654
277.283
277.955
278.671
279.43
280.228
281.054
281.887
282.675
273.201
273.611
274.037
274.484
274.956
275.456
275.987
276.551
277.15
277.784
278.45
279.144
279.857
280.574
281.267
281.892
273.198
273.6
274.019
274.457
274.919
275.406
275.921
276.465
277.039
277.64
278.264
278.905
279.551
280.185
280.78
281.302
273.195
273.593
274.006
274.438
274.891
275.368
275.871
276.4
276.953
277.529
278.122
278.722
279.319
279.894
280.424
280.88
273.194
273.588
273.998
274.426
274.874
275.345
275.84
276.358
276.898
277.456
278.027
278.601
279.166
279.703
280.192
280.61
273.193
273.587
273.996
274.422
274.868
275.336
275.826
276.339
276.873
277.423
277.983
278.544
279.092
279.611
280.081
280.479
273.219
273.667
274.135
274.629
275.156
275.722
276.334
277
277.725
278.52
279.394
280.362
281.441
282.661
284.063
285.69
273.214
273.651
274.107
274.588
275.1
275.647
276.236
276.872
277.56
278.307
279.118
280
280.96
282.002
283.122
284.279
273.21
273.636
274.082
274.55
275.046
275.576
276.142
276.75
277.403
278.104
278.855
279.656
280.504
281.39
282.291
283.151
273.205
273.623
274.059
274.516
274.999
275.512
276.059
276.642
277.262
277.921
278.618
279.347
280.101
280.863
281.606
282.28
273.202
273.612
274.04
274.488
274.96
275.46
275.989
276.55
277.144
277.767
278.418
279.089
279.768
280.438
281.07
281.626
273.199
273.604
274.026
274.467
274.931
275.42
275.937
276.481
277.053
277.649
278.265
278.892
279.516
280.12
280.679
281.161
273.198
273.6
274.018
274.455
274.913
275.396
275.903
276.437
276.994
277.571
278.164
278.761
279.35
279.913
280.426
280.864
273.197
273.598
274.015
274.451
274.907
275.386
275.889
276.417
276.967
277.535
278.116
278.698
279.27
279.812
280.304
280.721
273.224
273.68
274.158
274.663
275.203
275.784
276.414
277.1
277.852
278.678
279.591
280.605
281.741
283.026
284.497
286.177
273.218
273.664
274.129
274.621
275.144
275.705
276.311
276.966
277.679
278.454
279.3
280.223
281.231
282.329
283.509
284.72
273.213
273.649
274.103
274.581
275.089
275.631
276.213
276.84
277.514
278.241
279.022
279.858
280.747
281.68
282.629
283.533
273.209
273.635
274.079
274.546
275.04
275.565
276.126
276.726
277.366
278.048
278.771
279.531
280.319
281.118
281.899
282.607
273.205
273.624
274.059
274.516
274.999
275.51
276.053
276.63
277.241
277.885
278.56
279.257
279.965
280.665
281.327
281.909
273.203
273.615
274.045
274.495
274.969
275.469
275.998
276.557
277.145
277.761
278.397
279.047
279.696
280.326
280.909
281.412
273.201
273.611
274.036
274.482
274.95
275.443
275.963
276.51
277.083
277.678
278.29
278.908
279.519
280.104
280.638
281.095
273.2
273.609
274.034
274.477
274.943
275.433
275.948
276.489
277.054
277.64
278.239
278.842
279.434
279.997
280.508
280.942
273.228
273.692
274.178
274.693
275.244
275.839
276.484
277.189
277.963
278.815
279.759
280.808
281.983
283.307
284.807
286.488
273.222
273.675
274.149
274.65
275.184
275.757
276.377
277.05
277.783
278.583
279.456
280.411
281.455
282.588
283.8
285.031
273.217
273.66
274.122
274.609
275.127
275.681
276.276
276.918
277.612
278.36
279.166
280.031
280.951
281.916
282.895
283.823
273.213
273.646
274.097
274.572
275.076
275.612
276.186
276.8
277.457
278.159
278.904
279.689
280.504
281.332
282.138
282.869
273.209
273.634
274.077
274.542
275.034
275.555
276.11
276.7
277.327
277.989
278.684
279.403
280.134
280.858
281.542
282.144
273.206
273.625
274.062
274.52
275.002
275.512
276.053
276.625
277.227
277.859
278.514
279.183
279.853
280.503
281.106
281.626
273.204
273.62
274.053
274.506
274.983
275.486
276.016
276.576
277.162
277.773
278.402
279.038
279.667
280.271
280.822
281.293
273.204
273.619
274.05
274.502
274.976
275.475
276.001
276.554
277.132
277.733
278.348
278.968
279.578
280.158
280.685
281.133
273.231
273.702
274.196
274.719
275.279
275.885
276.543
277.263
278.054
278.928
279.894
280.969
282.169
283.514
285.023
286.69
273.225
273.685
274.166
274.674
275.217
275.801
276.433
277.12
277.869
278.688
279.583
280.562
281.629
282.785
284.012
285.247
273.22
273.669
274.138
274.632
275.159
275.722
276.329
276.984
277.693
278.458
279.284
280.17
281.113
282.099
283.096
284.035
273.215
273.654
274.112
274.595
275.106
275.652
276.236
276.862
277.534
278.251
279.014
279.818
280.653
281.5
282.325
283.068
273.212
273.643
274.092
274.564
275.063
275.593
276.158
276.76
277.399
278.076
278.786
279.523
280.272
281.013
281.714
282.329
273.209
273.634
274.076
274.541
275.031
275.549
276.099
276.682
277.296
277.941
278.611
279.296
279.982
280.648
281.265
281.797
273.207
273.628
274.067
274.527
275.011
275.522
276.061
276.631
277.229
277.852
278.495
279.146
279.79
280.408
280.973
281.455
273.206
273.627
274.064
274.522
275.003
275.51
276.045
276.608
277.198
277.811
278.439
279.073
279.697
280.292
280.831
281.29
273.233
273.71
274.209
274.739
275.307
275.92
276.589
277.32
278.125
279.013
279.996
281.088
282.303
283.658
285.168
286.82
273.228
273.692
274.179
274.693
275.243
275.835
276.476
277.174
277.936
278.768
279.679
280.673
281.756
282.924
284.158
285.391
273.222
273.676
274.15
274.651
275.183
275.755
276.37
277.036
277.755
278.534
279.374
280.275
281.233
282.232
283.238
284.183
273.218
273.661
274.124
274.612
275.13
275.683
276.275
276.911
277.593
278.322
279.098
279.916
280.765
281.625
282.46
283.212
273.214
273.649
274.103
274.581
275.086
275.623
276.195
276.806
277.455
278.143
278.865
279.614
280.377
281.13
281.842
282.465
273.211
273.64
274.088
274.557
275.053
275.578
276.135
276.726
277.35
278.005
278.686
279.383
280.081
280.758
281.385
281.926
273.209
273.635
274.078
274.543
275.033
275.55
276.096
276.674
277.281
277.914
278.567
279.229
279.884
280.513
281.088
281.578
273.208
273.633
274.075
274.538
275.025
275.538
276.08
276.651
277.249
277.871
278.51
279.155
279.789
280.394
280.943
281.41
273.235
273.715
274.219
274.753
275.325
275.945
276.62
277.359
278.172
279.07
280.064
281.166
282.389
283.75
285.257
286.898
273.229
273.698
274.188
274.707
275.261
275.858
276.506
277.211
277.981
278.822
279.743
280.747
281.839
283.014
284.25
285.48
273.224
273.681
274.159
274.663
275.201
275.777
276.398
277.07
277.798
278.585
279.434
280.345
281.311
282.318
283.33
284.276
273.219
273.666
274.133
274.624
275.146
275.704
276.302
276.944
277.633
278.37
279.155
279.981
280.839
281.707
282.549
283.304
273.215
273.654
274.111
274.592
275.102
275.643
276.221
276.837
277.494
278.189
278.919
279.676
280.447
281.208
281.926
282.555
273.212
273.645
274.095
274.568
275.068
275.598
276.16
276.756
277.387
278.049
278.737
279.441
280.147
280.832
281.465
282.011
273.21
273.639
274.086
274.554
275.047
275.569
276.121
276.703
277.316
277.956
278.616
279.285
279.948
280.584
281.165
281.66
273.21
273.638
274.083
274.549
275.039
275.557
276.104
276.68
277.284
277.912
278.558
279.21
279.852
280.463
281.019
281.49
273.236
273.718
274.224
274.76
275.335
275.957
276.635
277.378
278.196
279.099
280.098
281.204
282.432
283.794
285.3
286.935
273.23
273.7
274.192
274.713
275.27
275.87
276.521
277.23
278.003
278.85
279.775
280.784
281.88
283.058
284.295
285.523
273.225
273.684
274.163
274.67
275.209
275.788
276.413
277.088
277.819
278.611
279.464
280.379
281.35
282.361
283.374
284.321
273.22
273.669
274.137
274.631
275.155
275.715
276.316
276.961
277.653
278.394
279.183
280.014
280.876
281.748
282.592
283.35
273.216
273.656
274.115
274.598
275.11
275.654
276.234
276.853
277.513
278.212
278.946
279.707
280.482
281.247
281.968
282.599
273.213
273.647
274.099
274.574
275.076
275.608
276.172
276.771
277.405
278.071
278.762
279.471
280.18
280.869
281.505
282.054
273.211
273.642
274.09
274.56
275.055
275.579
276.133
276.718
277.334
277.977
278.641
279.314
279.98
280.619
281.203
281.701
273.211
273.64
274.087
274.555
275.047
275.567
276.116
276.694
277.302
277.933
278.583
279.238
279.883
280.498
281.057
281.531
273.19
273.577
273.978
274.396
274.832
275.29
275.768
276.266
276.784
277.315
277.854
278.392
278.916
279.41
279.856
280.234
273.186
273.565
273.958
274.366
274.793
275.238
275.703
276.186
276.686
277.198
277.716
278.23
278.729
279.198
279.621
279.977
273.182
273.554
273.939
274.339
274.756
275.19
275.642
276.111
276.595
277.088
277.585
278.077
278.552
278.997
279.396
279.733
273.179
273.544
273.922
274.315
274.723
275.147
275.588
276.044
276.513
276.989
277.467
277.938
278.392
278.815
279.193
279.512
273.177
273.536
273.908
274.294
274.695
275.112
275.543
275.988
276.444
276.906
277.368
277.821
278.256
278.66
279.021
279.324
273.175
273.53
273.898
274.28
274.675
275.085
275.509
275.946
276.391
276.842
277.291
277.731
278.151
278.54
278.887
279.177
273.174
273.527
273.892
274.27
274.662
275.068
275.487
275.918
276.357
276.799
277.24
277.67
278.08
278.459
278.795
279.078
273.173
273.526
273.89
274.267
274.657
275.061
275.477
275.905
276.34
276.779
277.215
277.64
278.045
278.419
278.75
279.028
273.19
273.578
273.98
274.399
274.838
275.298
275.78
276.283
276.807
277.346
277.895
278.445
278.983
279.493
279.956
280.35
273.187
273.566
273.96
274.37
274.798
275.246
275.714
276.202
276.707
277.226
277.752
278.277
278.788
279.271
279.708
280.078
273.183
273.555
273.941
274.342
274.76
275.197
275.653
276.126
276.614
277.113
277.618
278.118
278.604
279.06
279.471
279.819
273.18
273.545
273.924
274.317
274.727
275.154
275.598
276.057
276.53
277.012
277.497
277.976
278.438
278.87
279.258
279.586
273.177
273.537
273.91
274.297
274.7
275.118
275.552
276.001
276.46
276.927
277.395
277.855
278.297
278.709
279.077
279.388
273.175
273.531
273.9
274.282
274.679
275.091
275.518
275.957
276.407
276.862
277.316
277.762
278.188
278.584
278.937
279.234
273.174
273.528
273.894
274.273
274.667
275.075
275.496
275.93
276.372
276.819
277.264
277.699
278.115
278.5
278.842
279.129
273.174
273.527
273.892
274.27
274.662
275.068
275.487
275.917
276.356
276.799
277.24
277.67
278.08
278.459
278.795
279.077
273.192
273.582
273.987
274.41
274.854
275.32
275.809
276.322
276.858
277.412
277.981
278.554
279.121
279.664
280.162
280.589
273.188
273.57
273.966
274.38
274.812
275.266
275.741
276.238
276.754
277.287
277.83
278.376
278.911
279.422
279.887
280.285
273.184
273.559
273.947
274.351
274.774
275.216
275.678
276.159
276.657
277.169
277.688
278.207
278.713
279.192
279.626
279.996
273.181
273.549
273.93
274.326
274.74
275.172
275.621
276.088
276.57
277.063
277.56
278.054
278.534
278.985
279.391
279.737
273.178
273.541
273.916
274.306
274.712
275.135
275.574
276.03
276.497
276.974
277.453
277.926
278.382
278.81
279.193
279.517
273.176
273.535
273.906
274.291
274.691
275.108
275.539
275.985
276.442
276.906
277.37
277.827
278.265
278.674
279.039
279.348
273.175
273.531
273.9
274.282
274.679
275.091
275.518
275.957
276.406
276.861
277.316
277.761
278.187
278.583
278.936
279.233
273.175
273.53
273.898
274.279
274.675
275.085
275.509
275.945
276.391
276.841
277.29
277.73
278.15
278.539
278.886
279.177
273.194
273.589
274
274.429
274.879
275.354
275.855
276.383
276.936
277.514
278.111
278.72
279.33
279.923
280.477
280.959
273.19
273.577
273.978
274.397
274.837
275.299
275.785
276.294
276.827
277.38
277.949
278.525
279.097
279.65
280.161
280.603
273.186
273.565
273.958
274.368
274.797
275.247
275.718
276.211
276.724
277.254
277.795
278.34
278.877
279.39
279.861
280.265
273.183
273.555
273.941
274.342
274.762
275.201
275.659
276.137
276.632
277.141
277.657
278.173
278.678
279.157
279.592
279.963
273.18
273.547
273.926
274.321
274.733
275.163
275.611
276.075
276.555
277.046
277.541
278.033
278.51
278.96
279.366
279.711
273.178
273.541
273.916
274.305
274.712
275.134
275.574
276.029
276.497
276.973
277.452
277.925
278.381
278.809
279.192
279.517
273.177
273.537
273.91
274.297
274.699
275.117
275.551
275.999
276.459
276.926
277.393
277.853
278.296
278.708
279.076
279.387
273.177
273.536
273.908
274.294
274.695
275.111
275.542
275.987
276.443
276.904
277.366
277.82
278.254
278.659
279.019
279.323
273.197
273.599
274.017
274.454
274.914
275.401
275.917
276.463
277.04
277.647
278.281
278.937
279.605
280.269
280.904
281.471
273.193
273.586
273.994
274.421
274.87
275.343
275.842
276.369
276.923
277.502
278.103
278.72
279.341
279.952
280.527
281.034
273.189
273.574
273.974
274.391
274.828
275.289
275.773
276.281
276.813
277.365
277.935
278.513
279.09
279.65
280.171
280.623
273.186
273.564
273.955
274.364
274.792
275.24
275.71
276.202
276.714
277.243
277.783
278.328
278.866
279.381
279.854
280.261
273.183
273.555
273.94
274.342
274.761
275.2
275.659
276.136
276.631
277.14
277.656
278.172
278.677
279.155
279.591
279.962
273.181
273.549
273.929
274.326
274.739
275.17
275.62
276.087
276.569
277.061
277.558
278.052
278.531
278.983
279.389
279.735
273.18
273.545
273.923
274.316
274.726
275.153
275.596
276.056
276.528
277.01
277.494
277.973
278.435
278.868
279.256
279.584
273.179
273.544