/*--------------------------------*- C++ -*----------------------------------*\
| =========                 |                                                 |
| \\      /  F ield         | OpenFOAM: The Open Source CFD Toolbox           |
|  \\    /   O peration     | Version:  v1912                                 |
|   \\  /    A nd           | Website:  www.openfoam.com                      |
|    \\/     M anipulation  |                                                 |
\*---------------------------------------------------------------------------*/
FoamFile
{
    version     2.0;
    format      ascii;
    class       volVectorField;
    location    "0.58/fluid";
    object      U;
}
// * * * * * * * * * * * * * * * * * * * * * * * * * * * * * * * * * * * * * //

dimensions      [0 1 -1 0 0 0 0];


internalField   nonuniform List<vector> 
14592
(
(0.0877259 0.0172753 0.000630839)
(0.0724291 0.0116303 0.000996691)
(0.0577035 0.00719129 0.000765785)
(0.0497063 0.00347532 0.00015567)
(0.0448944 0.0015787 -0.000721776)
(0.0423152 0.000671954 -0.00179391)
(0.0406653 0.000305112 -0.00307693)
(0.0394557 0.000158568 -0.00463371)
(0.0382395 9.52826e-05 -0.00656876)
(0.0370183 3.33471e-05 -0.00904512)
(0.0353255 -5.98964e-05 -0.0123141)
(0.0336669 -0.000284918 -0.0167191)
(0.0305331 -0.000617698 -0.0229798)
(0.0278101 -0.00149567 -0.0313191)
(0.0196454 -0.00205626 -0.0423515)
(0.0111049 -0.00506639 -0.0406565)
(0.104011 0.0178033 0.000840006)
(0.103847 0.0171325 0.00136611)
(0.101054 0.0135669 0.00108749)
(0.0976149 0.00894046 0.000185808)
(0.094342 0.0055916 -0.00121575)
(0.0917321 0.00350302 -0.00301559)
(0.0894781 0.00242467 -0.00522089)
(0.0873969 0.00195834 -0.00792405)
(0.0851076 0.0018383 -0.0112943)
(0.0825642 0.00188201 -0.0156016)
(0.0791347 0.00198421 -0.0212533)
(0.0751808 0.00199333 -0.0288222)
(0.0685979 0.00187847 -0.0393274)
(0.0611299 0.00109144 -0.0531447)
(0.0440223 0.00017931 -0.0697113)
(0.0254431 -0.00393155 -0.0651542)
(0.103984 0.0117014 0.000896155)
(0.108394 0.0154961 0.00146463)
(0.111358 0.0143111 0.00117723)
(0.111908 0.0109862 0.000219895)
(0.111239 0.0079812 -0.00128406)
(0.109938 0.00583235 -0.00323678)
(0.108262 0.00462421 -0.00564706)
(0.10632 0.00412654 -0.00861435)
(0.103919 0.00412508 -0.0123208)
(0.101052 0.00444073 -0.0170632)
(0.0970681 0.00495358 -0.0232839)
(0.0922175 0.0055066 -0.0316321)
(0.0841855 0.00603536 -0.0431945)
(0.0745419 0.00596627 -0.0585371)
(0.0535466 0.00518018 -0.0769421)
(0.0301256 0.000377082 -0.0730829)
(0.102114 0.00752902 0.000920391)
(0.106537 0.0120769 0.00151813)
(0.11099 0.0124869 0.00124284)
(0.113383 0.0107967 0.0002927)
(0.114363 0.00877618 -0.00120213)
(0.114245 0.00716637 -0.00314352)
(0.113371 0.00625518 -0.00554009)
(0.11194 0.0060054 -0.00849144)
(0.109861 0.00631669 -0.0121779)
(0.107179 0.00708041 -0.0169011)
(0.103245 0.00822561 -0.0231038)
(0.098278 0.00964256 -0.0314714)
(0.0898293 0.0112844 -0.0431025)
(0.0794009 0.0125387 -0.0587366)
(0.0568013 0.0125471 -0.0777004)
(0.0310431 0.00634084 -0.0747683)
(0.101091 0.00494306 0.000947126)
(0.104606 0.00901979 0.00158334)
(0.108895 0.0102214 0.00134068)
(0.111885 0.00972136 0.000424409)
(0.113741 0.00866127 -0.00102602)
(0.114478 0.00773425 -0.00290597)
(0.114342 0.00729448 -0.00521797)
(0.113514 0.00743153 -0.00805498)
(0.111943 0.00814438 -0.0115862)
(0.109706 0.00940549 -0.0161055)
(0.106167 0.0112049 -0.0220357)
(0.101547 0.0135003 -0.0300784)
(0.0932687 0.0162795 -0.0413007)
(0.0827597 0.0188772 -0.0566445)
(0.0592288 0.0198148 -0.0754608)
(0.0315682 0.0114452 -0.0736283)
(0.100641 0.00335752 0.000978135)
(0.103446 0.00659229 0.00166121)
(0.107308 0.00801744 0.00146555)
(0.110458 0.00824197 0.000598627)
(0.112784 0.00794595 -0.000790964)
(0.114113 0.00767573 -0.00258892)
(0.114579 0.00776383 -0.00478766)
(0.114319 0.00836438 -0.00746897)
(0.113287 0.00955307 -0.0107855)
(0.111579 0.0113962 -0.0150169)
(0.108564 0.0139799 -0.0205536)
(0.10447 0.017422 -0.0281037)
(0.0965889 0.0218739 -0.0386701)
(0.0862914 0.0268697 -0.0534372)
(0.0620482 0.0305595 -0.0717388)
(0.0325812 0.0206535 -0.071379)
(0.100474 0.00220482 0.0010157)
(0.102901 0.00456678 0.00175365)
(0.106482 0.00594183 0.00161604)
(0.109699 0.00658228 0.000810467)
(0.112323 0.00686268 -0.0005051)
(0.11409 0.00716083 -0.00220397)
(0.115066 0.00774609 -0.0042639)
(0.115363 0.00879032 -0.00674834)
(0.114953 0.0104131 -0.00978257)
(0.113974 0.0127549 -0.0136127)
(0.111863 0.0159748 -0.0185627)
(0.108925 0.0203435 -0.0252912)
(0.102468 0.026138 -0.0346197)
(0.0939079 0.0331595 -0.0479252)
(0.0702101 0.0393094 -0.0642258)
(0.0398031 0.0275665 -0.0655844)
(0.100421 0.00123966 0.00105788)
(0.102713 0.00273964 0.00185595)
(0.106216 0.00391214 0.00178266)
(0.109533 0.00478068 0.00104517)
(0.112394 0.00549833 -0.000189681)
(0.114501 0.00627586 -0.00178222)
(0.115892 0.00730149 -0.00369388)
(0.116674 0.00873977 -0.00596759)
(0.116843 0.010738 -0.00869942)
(0.116569 0.0135156 -0.0120976)
(0.115367 0.0173303 -0.0164167)
(0.113605 0.0227697 -0.022253)
(0.108677 0.0304907 -0.0302431)
(0.102233 0.0420708 -0.0419744)
(0.0798944 0.0564713 -0.0563153)
(0.0520438 0.0613488 -0.0610373)
(0.0876947 0.0172781 0.000395942)
(0.0722503 0.0116429 0.000584254)
(0.0573003 0.00720237 0.000333276)
(0.049106 0.00348157 -0.000207668)
(0.0441058 0.00158331 -0.000972072)
(0.0413407 0.000677982 -0.00192013)
(0.0394739 0.000314594 -0.00307722)
(0.0379902 0.000172031 -0.00449532)
(0.036415 0.000114218 -0.00626105)
(0.0347096 6.01867e-05 -0.00847852)
(0.0324018 -1.65551e-05 -0.0113346)
(0.0298733 -0.000205822 -0.0149176)
(0.0258386 -0.000464585 -0.0196648)
(0.0215645 -0.00114822 -0.0246564)
(0.0133092 -0.00159219 -0.0295434)
(0.00371921 -0.00365704 -0.0200395)
(0.103968 0.0178169 0.000514534)
(0.103596 0.0171683 0.000758405)
(0.100471 0.0136122 0.000396569)
(0.0966855 0.0089865 -0.000444667)
(0.0930548 0.00564229 -0.0016933)
(0.0900772 0.00356708 -0.0032986)
(0.0874051 0.00251208 -0.00529278)
(0.0848095 0.00207743 -0.00776213)
(0.0818549 0.00199936 -0.0108517)
(0.0784228 0.00209625 -0.0147515)
(0.0738383 0.0022719 -0.0197667)
(0.0682982 0.00237673 -0.0261244)
(0.0599259 0.00239909 -0.0344202)
(0.0497972 0.00180067 -0.0434636)
(0.0320694 0.00093829 -0.0514278)
(0.0118658 -0.00276314 -0.0344742)
(0.103943 0.011725 0.000548304)
(0.108136 0.0155532 0.000802934)
(0.110751 0.0143934 0.000412749)
(0.110924 0.0110842 -0.000490481)
(0.109857 0.00809791 -0.00183638)
(0.108141 0.00597925 -0.00358038)
(0.105996 0.00481837 -0.00575982)
(0.10348 0.00438632 -0.00847052)
(0.100338 0.00447331 -0.0118699)
(0.0964864 0.00490158 -0.0161715)
(0.0912114 0.00556278 -0.0217045)
(0.0845962 0.00629054 -0.0287489)
(0.0745264 0.00703838 -0.0379214)
(0.0619184 0.00715091 -0.0480407)
(0.0400765 0.00633884 -0.0569067)
(0.0148694 0.00112995 -0.0382667)
(0.102076 0.00755627 0.000569589)
(0.106283 0.0121449 0.000843577)
(0.110389 0.0125931 0.000460849)
(0.112409 0.010935 -0.000436132)
(0.112997 0.00895048 -0.00177239)
(0.112469 0.00739105 -0.00350418)
(0.111131 0.00655367 -0.00566892)
(0.109134 0.00640666 -0.00836287)
(0.106325 0.00685866 -0.0117416)
(0.102668 0.00780622 -0.0160227)
(0.0974461 0.00919669 -0.0215327)
(0.0907134 0.0109091 -0.0285771)
(0.0801915 0.0129256 -0.037765)
(0.0667326 0.0144844 -0.0479962)
(0.0431865 0.0145498 -0.0570216)
(0.0154788 0.00725213 -0.0383459)
(0.101054 0.00497496 0.000597884)
(0.104357 0.00909967 0.000907551)
(0.108306 0.0103505 0.000556325)
(0.110936 0.00989701 -0.000306965)
(0.112417 0.00888881 -0.00159958)
(0.112766 0.00803082 -0.0032727)
(0.112194 0.00768929 -0.00535743)
(0.110837 0.00796351 -0.00794376)
(0.108579 0.00886644 -0.0111765)
(0.105426 0.0103807 -0.0152676)
(0.100663 0.0125238 -0.0205241)
(0.0943589 0.0152432 -0.0272676)
(0.0840572 0.0185764 -0.0360724)
(0.070562 0.0216401 -0.0459921)
(0.04597 0.0227783 -0.054795)
(0.0161257 0.0126934 -0.0368155)
(0.100605 0.00339388 0.000630768)
(0.103202 0.00668302 0.000986433)
(0.106734 0.00816619 0.000681296)
(0.109539 0.00844854 -0.000133495)
(0.111513 0.00821783 -0.00136713)
(0.112482 0.00803322 -0.00296232)
(0.112548 0.00824198 -0.00494005)
(0.111805 0.00901257 -0.00738007)
(0.110145 0.010441 -0.0104118)
(0.107599 0.0126129 -0.0142361)
(0.103452 0.0156578 -0.0191311)
(0.0977939 0.0196991 -0.0254315)
(0.087979 0.024984 -0.033654)
(0.0748131 0.0307788 -0.0430663)
(0.0493903 0.035125 -0.0514584)
(0.0174696 0.0228914 -0.0346743)
(0.100439 0.00224583 0.000669323)
(0.102663 0.00466756 0.00107907)
(0.105926 0.00610699 0.000830551)
(0.108817 0.00681325 7.54787e-05)
(0.111114 0.00716873 -0.0010871)
(0.112556 0.00756481 -0.00258855)
(0.113177 0.0082874 -0.00443573)
(0.113053 0.00952642 -0.00669237)
(0.1121 0.0114267 -0.00946396)
(0.110403 0.0141566 -0.0129266)
(0.107318 0.0179305 -0.0173059)
(0.103053 0.023043 -0.0229204)
(0.0948956 0.0299042 -0.0301605)
(0.0838534 0.0380189 -0.0385555)
(0.0588811 0.0452557 -0.0458408)
(0.0258735 0.0305714 -0.0309396)
(0.100387 0.00128427 0.000711302)
(0.102482 0.00284752 0.00117982)
(0.105679 0.0040881 0.000993763)
(0.10869 0.00502693 0.000304644)
(0.111252 0.00582547 -0.000780746)
(0.11307 0.00670846 -0.00218138)
(0.114154 0.00788174 -0.00388867)
(0.11458 0.0095312 -0.00594837)
(0.114296 0.0118338 -0.00844033)
(0.113433 0.0150473 -0.0115124)
(0.111426 0.0195 -0.0153343)
(0.108592 0.0258439 -0.0202009)
(0.102231 0.0349245 -0.0263699)
(0.0937901 0.0481147 -0.0336675)
(0.0701949 0.0645389 -0.0398647)
(0.0398803 0.0661006 -0.0279207)
(0.0876706 0.0172804 0.000231329)
(0.0721105 0.0116533 0.000298991)
(0.0569752 0.00721195 4.36558e-05)
(0.0486029 0.00348689 -0.000429945)
(0.0434207 0.00158692 -0.00108386)
(0.0404673 0.000682336 -0.0018999)
(0.0383791 0.000321136 -0.00290716)
(0.0366156 0.000180665 -0.00414743)
(0.0346776 0.000125109 -0.00569103)
(0.0324772 7.35173e-05 -0.00760327)
(0.0295442 2.04243e-06 -0.01003)
(0.0261245 -0.000173504 -0.0129647)
(0.0211995 -0.000409569 -0.0167355)
(0.0156205 -0.00101403 -0.0203877)
(0.0077833 -0.00149801 -0.0235008)
(-0.000426085 -0.00315579 -0.0157973)
(0.103935 0.0178301 0.000288052)
(0.103399 0.0172016 0.000343839)
(0.0999986 0.0136554 -5.70067e-05)
(0.0959055 0.00903155 -0.000822482)
(0.0919385 0.0056921 -0.00191174)
(0.0886006 0.00362891 -0.00330553)
(0.0855138 0.00259468 -0.00504802)
(0.0824087 0.00218824 -0.00721528)
(0.0788037 0.0021474 -0.00992719)
(0.0745076 0.00229072 -0.0133144)
(0.0688247 0.00252824 -0.0176075)
(0.0617966 0.00270914 -0.0228795)
(0.051862 0.00282662 -0.0295319)
(0.0397059 0.00233765 -0.036256)
(0.0223652 0.00141323 -0.0412407)
(0.00412094 -0.00220323 -0.0268727)
(0.103912 0.0117487 0.000305814)
(0.107933 0.0156087 0.000352101)
(0.110259 0.0144737 -8.82031e-05)
(0.110099 0.0111807 -0.000916925)
(0.10866 0.00821265 -0.00209577)
(0.106541 0.00612209 -0.00361245)
(0.103932 0.00500472 -0.00551793)
(0.10085 0.00463316 -0.0078986)
(0.0969881 0.00480193 -0.0108854)
(0.0921833 0.00533378 -0.0146289)
(0.0856887 0.00612986 -0.0193759)
(0.0774315 0.00701227 -0.0252379)
(0.0655924 0.00794396 -0.0326166)
(0.0507163 0.00819135 -0.0401752)
(0.0291279 0.00730415 -0.0457139)
(0.00596496 0.001653 -0.0297271)
(0.102046 0.00758437 0.000323671)
(0.106084 0.0122124 0.000381818)
(0.109904 0.0126977 -5.46916e-05)
(0.111595 0.0110709 -0.000878332)
(0.111815 0.00912079 -0.00204806)
(0.110889 0.00760848 -0.00355292)
(0.109093 0.00683965 -0.00544429)
(0.106537 0.00678795 -0.00780932)
(0.103015 0.00737048 -0.0107773)
(0.0984136 0.00848743 -0.014503)
(0.0919708 0.010102 -0.0192299)
(0.0835864 0.0120782 -0.0250915)
(0.0712463 0.0144214 -0.0324786)
(0.0554387 0.0162304 -0.0401169)
(0.0320339 0.0163363 -0.0457423)
(0.00630718 0.0081441 -0.0297169)
(0.101026 0.00500763 0.000351018)
(0.104162 0.00917894 0.000440843)
(0.107832 0.0104772 3.31349e-05)
(0.110145 0.0100683 -0.000758908)
(0.111276 0.00910941 -0.00188819)
(0.111247 0.00831628 -0.00333954)
(0.110243 0.00806662 -0.00515868)
(0.108359 0.0084689 -0.00742732)
(0.105428 0.00954928 -0.0102655)
(0.101381 0.0112986 -0.013824)
(0.0954503 0.0137592 -0.0183304)
(0.0875559 0.016864 -0.0239357)
(0.0754569 0.0206962 -0.0310023)
(0.0596187 0.0241725 -0.0383909)
(0.0350299 0.02553 -0.0438583)
(0.00697801 0.0141504 -0.0284754)
(0.100578 0.00343043 0.000383062)
(0.103013 0.0067721 0.000515624)
(0.106275 0.00831066 0.000150784)
(0.108778 0.00864806 -0.000596173)
(0.110422 0.00847933 -0.00167115)
(0.11104 0.00837539 -0.00305164)
(0.110707 0.00869748 -0.00477426)
(0.109481 0.00962742 -0.00691181)
(0.107202 0.0112804 -0.00957094)
(0.103834 0.0137584 -0.0128946)
(0.0985979 0.017231 -0.0170865)
(0.0914527 0.0218198 -0.0223142)
(0.0799018 0.0278606 -0.0288951)
(0.0644679 0.034374 -0.03588)
(0.0388959 0.039374 -0.0410666)
(0.00849792 0.0255109 -0.026748)
(0.100413 0.00228611 0.000420024)
(0.10248 0.00476515 0.0006031)
(0.105484 0.00626571 0.00029081)
(0.108089 0.0070345 -0.000401143)
(0.110081 0.00746121 -0.00141105)
(0.111204 0.00794979 -0.00270671)
(0.111469 0.008802 -0.00431218)
(0.110919 0.0102246 -0.00628682)
(0.109425 0.0123864 -0.00871732)
(0.107015 0.0154806 -0.0117291)
(0.10298 0.0197746 -0.0154847)
(0.0974291 0.0255786 -0.0201519)
(0.0877154 0.0334299 -0.0259576)
(0.0746835 0.0425691 -0.0321979)
(0.0493848 0.0509251 -0.0366951)
(0.0175277 0.0343409 -0.0240132)
(0.100361 0.00132715 0.000459567)
(0.102306 0.00295057 0.000697343)
(0.105257 0.0042555 0.000442827)
(0.108 0.00526107 -0.000188598)
(0.110282 0.00613632 -0.00112785)
(0.111815 0.00711911 -0.00233218)
(0.112589 0.00843231 -0.00381177)
(0.112652 0.0102816 -0.00561084)
(0.111912 0.0128724 -0.00779452)
(0.110458 0.0164977 -0.0104674)
(0.107659 0.021554 -0.0137476)
(0.103777 0.0287466 -0.0177961)
(0.0960945 0.0391088 -0.0227429)
(0.0860524 0.0538286 -0.0281572)
(0.0620325 0.0723742 -0.0319681)
(0.0327351 0.0723035 -0.0216771)
(0.0876526 0.0172827 0.00012201)
(0.0720026 0.0116621 0.000116424)
(0.0567186 0.00722036 -0.000124041)
(0.0481967 0.00349196 -0.000524821)
(0.0428594 0.0015909 -0.00106487)
(0.0397468 0.000687524 -0.0017381)
(0.0374805 0.000329268 -0.00257104)
(0.0355074 0.000192635 -0.00359238)
(0.0333255 0.000142676 -0.00484961)
(0.0308284 9.99881e-05 -0.00636744)
(0.0275947 4.51139e-05 -0.00822913)
(0.0238169 -9.54182e-05 -0.0103437)
(0.0187429 -0.000268968 -0.0128688)
(0.0130162 -0.000727591 -0.014917)
(0.00595854 -0.00107521 -0.0159705)
(-0.000898891 -0.00241872 -0.00968551)
(0.103909 0.0178422 0.000139763)
(0.103245 0.0172313 8.52361e-05)
(0.0996226 0.0136944 -0.000309749)
(0.0952716 0.00907318 -0.000976557)
(0.091017 0.00573867 -0.00189153)
(0.0873709 0.00368667 -0.00305215)
(0.0839396 0.00267166 -0.0045024)
(0.0804323 0.00229197 -0.0063009)
(0.0763533 0.00228769 -0.00853305)
(0.0714823 0.0024794 -0.0112673)
(0.0651717 0.00278582 -0.0146378)
(0.0574192 0.00306355 -0.0185819)
(0.0470112 0.00332279 -0.0232578)
(0.0345042 0.00304599 -0.0274021)
(0.0183546 0.00229719 -0.0292858)
(0.00247071 -0.00118336 -0.0174189)
(0.103888 0.0117709 0.000146993)
(0.107775 0.0156594 7.21613e-05)
(0.109868 0.014547 -0.000365788)
(0.109428 0.0112693 -0.00109215)
(0.107671 0.00831817 -0.00208593)
(0.105206 0.00625279 -0.00335142)
(0.10221 0.00517413 -0.00493962)
(0.0986764 0.00485668 -0.00691892)
(0.0942821 0.00509948 -0.00938388)
(0.0888322 0.00572716 -0.0124185)
(0.0816218 0.00665218 -0.0161659)
(0.0725434 0.00769474 -0.0205873)
(0.0601277 0.00883811 -0.0258242)
(0.044831 0.00931499 -0.0305559)
(0.0245024 0.00857706 -0.0326785)
(0.00397226 0.00268521 -0.0193123)
(0.102024 0.00761093 0.000161355)
(0.105929 0.0122748 9.31021e-05)
(0.109519 0.0127937 -0.000343625)
(0.110934 0.0111954 -0.00106615)
(0.110841 0.00927631 -0.00205198)
(0.109573 0.00780556 -0.00330705)
(0.107394 0.00709664 -0.00488296)
(0.104393 0.00712793 -0.00684904)
(0.100345 0.00782388 -0.00929852)
(0.0951076 0.00908776 -0.012319)
(0.0879538 0.010897 -0.01605)
(0.0787542 0.0131061 -0.0204685)
(0.0658286 0.0157448 -0.0257012)
(0.0495927 0.017819 -0.0304645)
(0.027421 0.0180768 -0.0325804)
(0.00434693 0.00929479 -0.0191302)
(0.101005 0.00503838 0.000185895)
(0.104012 0.00925218 0.000144489)
(0.107458 0.0105933 -0.000267408)
(0.109506 0.0102244 -0.000962085)
(0.110338 0.00930939 -0.00191254)
(0.109985 0.00857299 -0.00312144)
(0.108619 0.00840282 -0.0046357)
(0.106318 0.00891478 -0.00652024)
(0.102894 0.0101455 -0.00886086)
(0.098252 0.012091 -0.0117429)
(0.0916532 0.0148123 -0.0152934)
(0.0829951 0.0182274 -0.0195045)
(0.0703364 0.0224534 -0.0244809)
(0.0540913 0.0262608 -0.0290414)
(0.0306557 0.0278161 -0.0310296)
(0.00514748 0.0155639 -0.0180996)
(0.100558 0.00346442 0.000214896)
(0.102867 0.00685386 0.000211)
(0.105914 0.0084423 -0.00016336)
(0.108164 0.00882883 -0.00081841)
(0.109526 0.00871469 -0.0017216)
(0.109843 0.00868079 -0.00286954)
(0.109177 0.00909998 -0.00430151)
(0.107569 0.0101642 -0.00607529)
(0.104841 0.0120029 -0.00826607)
(0.100933 0.014727 -0.0109542)
(0.0950879 0.0185319 -0.0142491)
(0.087252 0.023525 -0.0181599)
(0.075182 0.0300933 -0.0227602)
(0.0593859 0.0370633 -0.0270183)
(0.0348661 0.042409 -0.0288344)
(0.00683284 0.0274411 -0.0167712)
(0.100393 0.00232304 0.000248054)
(0.10234 0.00485391 0.000288697)
(0.105138 0.00640934 -3.96165e-05)
(0.107505 0.00723366 -0.00064661)
(0.109236 0.00772282 -0.00149355)
(0.110085 0.00829135 -0.00256897)
(0.110051 0.00925383 -0.00390181)
(0.109165 0.0108294 -0.00553951)
(0.107278 0.0132041 -0.00754225)
(0.104407 0.0165839 -0.00997973)
(0.099849 0.0212681 -0.0129339)
(0.0937241 0.0275571 -0.0164248)
(0.0835698 0.0360535 -0.0204738)
(0.0702785 0.0457765 -0.0242518)
(0.0458837 0.0546434 -0.0257472)
(0.0161114 0.0367914 -0.0150109)
(0.100343 0.00136591 0.000283151)
(0.102172 0.00304344 0.000371938)
(0.104927 0.00440589 9.42627e-05)
(0.107449 0.00547046 -0.000460001)
(0.109491 0.00641282 -0.00124602)
(0.110778 0.00748151 -0.00224334)
(0.111291 0.00891299 -0.00346961)
(0.111067 0.0109271 -0.00496057)
(0.109996 0.0137485 -0.00676025)
(0.108164 0.0176881 -0.00892549)
(0.104941 0.0231792 -0.0115088)
(0.100615 0.0309295 -0.014538)
(0.0925923 0.042051 -0.0179812)
(0.0824302 0.0575043 -0.0212368)
(0.0591937 0.0768178 -0.0224616)
(0.0317258 0.0753972 -0.013571)
(0.0876385 0.0172844 5.38713e-05)
(0.0719187 0.011669 1.18326e-05)
(0.0565171 0.00722684 -0.00019601)
(0.0478724 0.0034957 -0.000517608)
(0.0424044 0.0015935 -0.000942065)
(0.039155 0.000690668 -0.00146998)
(0.0367355 0.000334084 -0.00212394)
(0.0345831 0.000199379 -0.00292401)
(0.0321953 0.000151897 -0.00390314)
(0.0294513 0.000112898 -0.00506917)
(0.025973 6.52304e-05 -0.00647459)
(0.021918 -5.81332e-05 -0.00802634)
(0.016744 -0.000200692 -0.00981447)
(0.0109833 -0.000582183 -0.0111781)
(0.00459636 -0.000871506 -0.0116664)
(-0.00116513 -0.00207166 -0.00708924)
(0.103889 0.0178524 5.0099e-05)
(0.103124 0.0172559 -5.41333e-05)
(0.0993261 0.013727 -0.000404573)
(0.0947643 0.00910835 -0.000950693)
(0.0902699 0.005778 -0.00167924)
(0.0863625 0.00373506 -0.00259595)
(0.0826383 0.00273549 -0.00373989)
(0.0787915 0.00237714 -0.00515557)
(0.0743187 0.00240169 -0.00690385)
(0.06898 0.00263087 -0.00902134)
(0.0621758 0.00298951 -0.0115903)
(0.0538847 0.00333849 -0.0145226)
(0.0431762 0.00369905 -0.017883)
(0.0305747 0.00356396 -0.0206969)
(0.0155141 0.00291768 -0.0215721)
(0.00158269 -0.000560793 -0.0127558)
(0.103869 0.0117899 5.11689e-05)
(0.107652 0.0157025 -7.6626e-05)
(0.109559 0.0146094 -0.000467286)
(0.108891 0.0113451 -0.00106473)
(0.10687 0.00840837 -0.00185828)
(0.104112 0.00636407 -0.00285949)
(0.100786 0.00531758 -0.00411382)
(0.0968723 0.00504492 -0.00567408)
(0.092035 0.00534876 -0.0076084)
(0.0860601 0.00605486 -0.00996493)
(0.0782861 0.00708434 -0.0128311)
(0.0685957 0.00825464 -0.0161338)
(0.0558075 0.00956407 -0.0199179)
(0.0403824 0.0102132 -0.023155)
(0.0212196 0.00957997 -0.0241468)
(0.00288701 0.00343689 -0.0141542)
(0.102006 0.00763411 6.20886e-05)
(0.105808 0.0123286 -6.25696e-05)
(0.109216 0.0128762 -0.000453523)
(0.110406 0.0113024 -0.00104824)
(0.110052 0.00940959 -0.0018354)
(0.108494 0.00797378 -0.00282814)
(0.10599 0.00731495 -0.00407263)
(0.102613 0.00741531 -0.00562262)
(0.0981271 0.00820523 -0.00754536)
(0.0923703 0.00958994 -0.00989217)
(0.0846549 0.0115577 -0.0127476)
(0.0748453 0.0139538 -0.0160507)
(0.0615358 0.016826 -0.0198343)
(0.0451635 0.0191043 -0.0230964)
(0.0241372 0.0194744 -0.0240757)
(0.00328576 0.010207 -0.014021)
(0.100989 0.00506527 8.24422e-05)
(0.103895 0.00931554 -2.08118e-05)
(0.107165 0.0106932 -0.000391692)
(0.108996 0.0103585 -0.000963576)
(0.109578 0.00948067 -0.00172182)
(0.108951 0.00879209 -0.00267724)
(0.107278 0.00868861 -0.00387232)
(0.104623 0.00929219 -0.0053575)
(0.100787 0.010648 -0.00719445)
(0.0956584 0.0127555 -0.00943338)
(0.0885299 0.01569 -0.01215)
(0.0792981 0.0193561 -0.0152965)
(0.0662689 0.0238956 -0.0188906)
(0.0498953 0.0279639 -0.0220079)
(0.0275381 0.029674 -0.0229083)
(0.00417578 0.0167454 -0.0132629)
(0.100542 0.00349405 0.000106684)
(0.102754 0.00692447 3.41718e-05)
(0.105631 0.00855541 -0.000305956)
(0.107675 0.00898371 -0.000845378)
(0.108803 0.00891587 -0.00156511)
(0.108865 0.00894105 -0.00247129)
(0.107915 0.00944176 -0.00360039)
(0.105983 0.0106182 -0.00499737)
(0.102877 0.0126112 -0.00671589)
(0.0985275 0.0155381 -0.00880312)
(0.0921982 0.019614 -0.0113223)
(0.083843 0.0249324 -0.0142403)
(0.071429 0.0319165 -0.0175548)
(0.0555282 0.0392431 -0.020454)
(0.0319997 0.0448518 -0.0212534)
(0.00597916 0.0290641 -0.0122757)
(0.100378 0.002355 0.000134278)
(0.102232 0.00493022 9.84158e-05)
(0.104868 0.00653235 -0.000203982)
(0.107042 0.00740384 -0.000704184)
(0.108556 0.00794595 -0.00137831)
(0.109172 0.00858198 -0.00222617)
(0.108883 0.00963722 -0.00327619)
(0.10771 0.0113409 -0.00456563)
(0.105492 0.0138927 -0.00613713)
(0.102239 0.0175085 -0.0080313)
(0.0972633 0.0225117 -0.0102928)
(0.0907031 0.0291927 -0.0129007)
(0.0802551 0.0381999 -0.0158215)
(0.0669154 0.0483849 -0.0183936)
(0.0433879 0.0576465 -0.019025)
(0.0154203 0.0388914 -0.0110364)
(0.100328 0.00139918 0.000163303)
(0.10207 0.00312284 0.000167025)
(0.104672 0.00453421 -9.39158e-05)
(0.107013 0.00564886 -0.000551098)
(0.108857 0.00664809 -0.00117585)
(0.109935 0.00778939 -0.00196088)
(0.110223 0.00932047 -0.00292576)
(0.109752 0.0114727 -0.00409898)
(0.108403 0.0144862 -0.00551128)
(0.106256 0.0186854 -0.00719493)
(0.102692 0.0245319 -0.00917465)
(0.0980321 0.0327321 -0.0114389)
(0.0897881 0.0444534 -0.0139236)
(0.0796638 0.0604882 -0.0161341)
(0.0571843 0.0804003 -0.0166364)
(0.0313119 0.0781332 -0.00999299)
(0.0876284 0.0172858 1.72546e-05)
(0.0718582 0.0116744 -3.25464e-05)
(0.0563703 0.00723188 -0.000192109)
(0.0476342 0.00349886 -0.00042695)
(0.0420691 0.00159597 -0.000731485)
(0.0387198 0.000693908 -0.00110839)
(0.0361925 0.000339249 -0.00157381)
(0.0339206 0.00020718 -0.00213942)
(0.0314068 0.000163551 -0.00282393)
(0.0285261 0.000130596 -0.00362334)
(0.0249387 9.34872e-05 -0.00456212)
(0.0207867 -9.64467e-06 -0.00555752)
(0.0156536 -0.000118445 -0.00664559)
(0.0100039 -0.000434978 -0.00738392)
(0.00401515 -0.00066556 -0.00742893)
(-0.00115716 -0.00180062 -0.00433979)
(0.103874 0.0178605 5.34914e-06)
(0.103037 0.0172752 -0.000101599)
(0.0991087 0.0137525 -0.00037507)
(0.0943895 0.00913621 -0.000779806)
(0.0897153 0.00580936 -0.00130823)
(0.0856135 0.00377377 -0.00196759)
(0.081677 0.00278671 -0.00278708)
(0.0775932 0.00244585 -0.00379584)
(0.0728614 0.00249441 -0.00503094)
(0.067237 0.00275547 -0.00650481)
(0.0601671 0.00315915 -0.00825609)
(0.0516319 0.00357026 -0.0101945)
(0.0408813 0.00401941 -0.0123222)
(0.0284293 0.0040028 -0.0139652)
(0.0140982 0.00345321 -0.014116)
(0.00132612 -6.22603e-05 -0.00806798)
(0.103855 0.011805 3.7074e-06)
(0.107562 0.0157363 -0.00012423)
(0.109332 0.0146584 -0.000430128)
(0.108493 0.0114047 -0.000874275)
(0.106274 0.00847947 -0.00145123)
(0.103298 0.00645165 -0.00217264)
(0.0997323 0.00543019 -0.00307271)
(0.0955499 0.00519242 -0.00418686)
(0.0904172 0.0055439 -0.00555731)
(0.0841156 0.00631154 -0.00720427)
(0.0760287 0.00742344 -0.00916877)
(0.0660497 0.00869584 -0.0113685)
(0.0531831 0.0101393 -0.0137874)
(0.0379085 0.0109302 -0.0157066)
(0.0195504 0.0103955 -0.0158946)
(0.00254951 0.0040486 -0.00899532)
(0.101994 0.00765255 1.13421e-05)
(0.10572 0.0123712 -0.000115411)
(0.108994 0.0129412 -0.00042223)
(0.110016 0.0113866 -0.000864604)
(0.109466 0.00951427 -0.00143694)
(0.107693 0.00810536 -0.0021522)
(0.104951 0.00748485 -0.00304522)
(0.101309 0.00763779 -0.00415222)
(0.0965309 0.00849889 -0.0055149)
(0.0904521 0.00997463 -0.00715581)
(0.0824261 0.0120612 -0.00911383)
(0.0723316 0.0145972 -0.0113149)
(0.0589405 0.0176436 -0.0137334)
(0.0427205 0.0200775 -0.0156667)
(0.0224887 0.0205392 -0.0158362)
(0.00298168 0.0109153 -0.00888856)
(0.100977 0.00508666 2.65257e-05)
(0.103811 0.00936562 -8.46803e-05)
(0.10695 0.0107719 -0.000376797)
(0.10862 0.0104638 -0.00080226)
(0.109015 0.00961472 -0.00135327)
(0.108183 0.00896269 -0.00204122)
(0.106286 0.00890973 -0.00289838)
(0.103382 0.00958211 -0.0039587)
(0.0992731 0.0110309 -0.00526007)
(0.0938457 0.0132573 -0.00682466)
(0.0864287 0.0163462 -0.00868561)
(0.0769369 0.0201915 -0.0107784)
(0.0638354 0.0249508 -0.0130681)
(0.0476193 0.0292012 -0.0149044)
(0.0260105 0.0310148 -0.015027)
(0.00393805 0.017607 -0.00836925)
(0.100531 0.00351753 4.47084e-05)
(0.102673 0.00698017 -4.37269e-05)
(0.105424 0.00864429 -0.000313075)
(0.107315 0.00910503 -0.000714509)
(0.108268 0.00907276 -0.00123717)
(0.108139 0.00914282 -0.00188915)
(0.106982 0.00970477 -0.00269844)
(0.104823 0.0109645 -0.00369523)
(0.101469 0.0130702 -0.00491199)
(0.0968507 0.0161424 -0.00636928)
(0.0902631 0.0204079 -0.00809241)
(0.0816824 0.0259473 -0.0100279)
(0.0692109 0.0332041 -0.0121294)
(0.0534782 0.0407547 -0.0138227)
(0.030639 0.0465057 -0.0138946)
(0.00582046 0.0301543 -0.00770662)
(0.100368 0.00238019 6.53502e-05)
(0.102154 0.00499021 4.13888e-06)
(0.104672 0.00662874 -0.000237264)
(0.106702 0.00753675 -0.000609758)
(0.108053 0.00811942 -0.00109898)
(0.108494 0.00880651 -0.00170857)
(0.10802 0.00993102 -0.00246084)
(0.106645 0.0117289 -0.00338083)
(0.104211 0.0144086 -0.00449381)
(0.100728 0.0181906 -0.00581692)
(0.0955338 0.0234119 -0.00736449)
(0.0887947 0.0303508 -0.0090938)
(0.0783109 0.0396785 -0.0109428)
(0.0651567 0.050136 -0.0124374)
(0.0422411 0.0595928 -0.0124447)
(0.0153551 0.0402336 -0.00693661)
(0.100318 0.00142524 8.69785e-05)
(0.101996 0.00318502 5.5171e-05)
(0.104486 0.00463446 -0.000155527)
(0.106694 0.0057878 -0.000496316)
(0.108388 0.00683049 -0.000949387)
(0.10931 0.00802651 -0.00151332)
(0.109435 0.00963161 -0.00220422)
(0.10879 0.0118847 -0.00304124)
(0.107258 0.0150354 -0.00404194)
(0.104924 0.0194145 -0.00521893)
(0.101188 0.0254983 -0.00657494)
(0.0964036 0.0339845 -0.00807664)
(0.0881567 0.0460642 -0.00964788)
(0.078247 0.062418 -0.010926)
(0.0563106 0.0825982 -0.0109064)
(0.0313895 0.0798027 -0.00630813)
(0.0876216 0.0172866 2.04244e-06)
(0.071818 0.0116779 -3.65271e-05)
(0.0562726 0.00723512 -0.000136261)
(0.0474745 0.0035008 -0.000279981)
(0.0418431 0.00159732 -0.000463683)
(0.0384245 0.000695573 -0.000690704)
(0.0358225 0.000341877 -0.000970783)
(0.0334679 0.000211044 -0.00131051)
(0.0308672 0.000169121 -0.00172022)
(0.0278935 0.000138791 -0.00219541)
(0.0242327 0.000106454 -0.00274838)
(0.0200198 1.30797e-05 -0.00332729)
(0.0149179 -7.90507e-05 -0.00394823)
(0.00935716 -0.000362651 -0.00435881)
(0.00364094 -0.00056682 -0.00434562)
(-0.00115709 -0.00167131 -0.00254797)
(0.103865 0.0178659 -9.24283e-06)
(0.102979 0.0172883 -8.63938e-05)
(0.0989638 0.0137699 -0.000259923)
(0.0941381 0.0091552 -0.000509322)
(0.0893414 0.00583069 -0.000830348)
(0.0851061 0.00379999 -0.0012291)
(0.0810234 0.0028212 -0.00172382)
(0.0767771 0.00249185 -0.00233177)
(0.0718689 0.00255607 -0.00307396)
(0.0660528 0.00283767 -0.00395463)
(0.0588085 0.00327 -0.00499267)
(0.0501226 0.00371995 -0.00612868)
(0.0393611 0.0042236 -0.00735421)
(0.0270428 0.00427678 -0.00827628)
(0.0132137 0.00377898 -0.00828617)
(0.00117915 0.000222662 -0.00473154)
(0.103846 0.0118154 -1.09472e-05)
(0.107502 0.0157595 -0.000102546)
(0.109181 0.014692 -0.000297275)
(0.108227 0.0114458 -0.000571282)
(0.105872 0.00852835 -0.00092236)
(0.102746 0.00651178 -0.00135902)
(0.0990154 0.00550732 -0.00190284)
(0.094649 0.00529318 -0.00257495)
(0.089315 0.00567683 -0.00339948)
(0.0827939 0.00648579 -0.00438527)
(0.0745011 0.0076526 -0.00555229)
(0.0643424 0.00899233 -0.0068452)
(0.0514431 0.010523 -0.00824374)
(0.0363071 0.0114032 -0.00932633)
(0.0185052 0.0109263 -0.00934858)
(0.00235519 0.00443251 -0.00527983)
(0.101986 0.00766533 -6.53601e-06)
(0.105662 0.0124005 -9.76906e-05)
(0.108846 0.012986 -0.000293316)
(0.109754 0.0114448 -0.000566297)
(0.109071 0.00958644 -0.000914603)
(0.107149 0.00819597 -0.0013475)
(0.104244 0.00760161 -0.00188707)
(0.10042 0.00779033 -0.00255493)
(0.0954428 0.00869973 -0.00337497)
(0.0891471 0.010237 -0.00435747)
(0.080916 0.0124032 -0.00552124)
(0.0706434 0.0150323 -0.00681576)
(0.0572163 0.0181933 -0.0082153)
(0.0411357 0.0207273 -0.00930719)
(0.0214538 0.0212443 -0.00931889)
(0.00280643 0.011378 -0.00522073)
(0.100969 0.00510153 2.84694e-06)
(0.103755 0.0094003 -7.89011e-05)
(0.106807 0.0108262 -0.000265578)
(0.108367 0.0105366 -0.000528162)
(0.108636 0.00970722 -0.000863402)
(0.107663 0.00908026 -0.00127962)
(0.105612 0.00906188 -0.00179741)
(0.102537 0.00978126 -0.00243702)
(0.0982407 0.0112934 -0.00322019)
(0.0926113 0.0136005 -0.00415705)
(0.0850034 0.0167935 -0.00526331)
(0.0753485 0.0207587 -0.00649426)
(0.0622155 0.0256636 -0.00781939)
(0.0461398 0.0300335 -0.00885636)
(0.0250502 0.031912 -0.00884549)
(0.00380316 0.0181849 -0.0049215)
(0.100523 0.00353385 1.40923e-05)
(0.102619 0.00701874 -5.36631e-05)
(0.105287 0.00870574 -0.000226321)
(0.107075 0.00918882 -0.000474142)
(0.107907 0.00918102 -0.000792008)
(0.107647 0.00928188 -0.00118627)
(0.106348 0.00988578 -0.00167496)
(0.104032 0.0112024 -0.00227608)
(0.100509 0.0133849 -0.00300819)
(0.0957084 0.0165557 -0.00388061)
(0.0889496 0.0209488 -0.00490467)
(0.0802277 0.0266362 -0.00604223)
(0.0677333 0.0340727 -0.00725722)
(0.0521452 0.0417704 -0.00821088)