/*--------------------------------*- C++ -*----------------------------------*\
| =========                 |                                                 |
| \\      /  F ield         | OpenFOAM: The Open Source CFD Toolbox           |
|  \\    /   O peration     | Version:  v1912                                 |
|   \\  /    A nd           | Website:  www.openfoam.com                      |
|    \\/     M anipulation  |                                                 |
\*---------------------------------------------------------------------------*/
FoamFile
{
    version     2.0;
    format      ascii;
    class       volVectorField;
    location    "0.17/solid";
    object      D_0;
}
// * * * * * * * * * * * * * * * * * * * * * * * * * * * * * * * * * * * * * //

dimensions      [0 1 0 0 0 0 0];


internalField   nonuniform List<vector> 
256
(
(4.56997e-09 1.78084e-08 4.06983e-09)
(-1.02902e-09 1.14939e-08 5.36875e-09)
(1.72108e-09 1.14135e-08 5.52434e-09)
(-4.00543e-09 1.74372e-08 4.64777e-09)
(6.54189e-09 1.73926e-08 2.66449e-09)
(-1.61842e-10 1.43401e-08 4.30697e-09)
(2.35721e-09 1.3988e-08 4.71e-09)
(-4.51786e-09 1.61312e-08 4.00883e-09)
(7.26062e-09 1.85318e-08 -1.58652e-09)
(7.11713e-10 1.72486e-08 -7.86212e-11)
(3.29138e-09 1.66165e-08 5.00459e-10)
(-3.43908e-09 1.64593e-08 2.7979e-10)
(8.28806e-09 2.18819e-08 -6.5729e-09)
(1.68335e-09 2.12692e-08 -4.92209e-09)
(4.46033e-09 2.0379e-08 -4.21559e-09)
(-2.33287e-09 1.90782e-08 -4.32551e-09)
(9.39265e-09 2.68363e-08 -1.1972e-08)
(2.73534e-09 2.67554e-08 -9.90599e-09)
(5.87526e-09 2.56248e-08 -9.1005e-09)
(-9.7215e-10 2.33532e-08 -9.42674e-09)
(9.37931e-09 3.35301e-08 -1.80414e-08)
(3.36811e-09 3.39528e-08 -1.54429e-08)
(8.03088e-09 3.25889e-08 -1.45539e-08)
(1.81924e-09 2.93921e-08 -1.52483e-08)
(6.59384e-09 4.2351e-08 -2.51119e-08)
(3.1037e-09 4.20719e-08 -2.2126e-08)
(1.14089e-08 4.04839e-08 -2.11574e-08)
(7.64157e-09 3.75709e-08 -2.20958e-08)
(1.78076e-09 4.08391e-08 -3.15516e-08)
(2.82567e-09 3.72939e-08 -2.8691e-08)
(1.50963e-08 3.55827e-08 -2.76463e-08)
(1.5665e-08 3.56056e-08 -2.83429e-08)
(7.53483e-09 1.19435e-08 -3.06506e-09)
(-3.27463e-10 5.42487e-09 -3.50303e-09)
(6.93524e-10 5.30177e-09 -3.34089e-09)
(-7.1446e-09 1.14987e-08 -2.58056e-09)
(1.12782e-08 1.59725e-08 -6.08345e-09)
(9.99531e-10 1.26485e-08 -6.889e-09)
(4.34308e-10 1.22323e-08 -6.49703e-09)
(-9.81322e-09 1.4614e-08 -4.93575e-09)
(1.20611e-08 1.9764e-08 -9.99059e-09)
(1.84641e-09 1.8369e-08 -1.08821e-08)
(1.07059e-09 1.76875e-08 -1.03305e-08)
(-9.11852e-09 1.76289e-08 -8.37549e-09)
(1.29101e-08 2.42794e-08 -1.48088e-08)
(2.67893e-09 2.3616e-08 -1.56042e-08)
(2.12233e-09 2.26939e-08 -1.49357e-08)
(-8.08444e-09 2.14461e-08 -1.28426e-08)
(1.40078e-08 2.95753e-08 -2.01698e-08)
(3.63493e-09 2.94326e-08 -2.07876e-08)
(3.427e-09 2.82831e-08 -2.00258e-08)
(-6.91657e-09 2.60859e-08 -1.79211e-08)
(1.42228e-08 3.57088e-08 -2.58664e-08)
(4.2519e-09 3.6073e-08 -2.63149e-08)
(5.42937e-09 3.47012e-08 -2.5474e-08)
(-4.51827e-09 3.15853e-08 -2.33786e-08)
(1.18402e-08 4.21649e-08 -3.10591e-08)
(4.04058e-09 4.18458e-08 -3.14273e-08)
(8.61432e-09 4.02686e-08 -3.05219e-08)
(7.57144e-10 3.74375e-08 -2.83758e-08)
(7.32981e-09 3.62309e-08 -3.3064e-08)
(3.83098e-09 3.25412e-08 -3.34599e-08)
(1.21224e-08 3.0886e-08 -3.25258e-08)
(8.34157e-09 3.11392e-08 -3.0286e-08)
(8.93463e-09 1.05336e-08 -1.97796e-09)
(2.8216e-10 3.97427e-09 -2.72263e-09)
(-9.32021e-11 3.86071e-09 -2.60283e-09)
(-8.69992e-09 1.01757e-08 -1.63482e-09)
(1.4187e-08 1.4886e-08 -5.20518e-09)
(2.08571e-09 1.13608e-08 -6.43149e-09)
(-1.15268e-09 1.09619e-08 -6.13336e-09)
(-1.31743e-08 1.36485e-08 -4.35574e-09)
(1.52411e-08 1.94614e-08 -8.75672e-09)
(2.96167e-09 1.79839e-08 -1.00486e-08)
(-8.25465e-10 1.73258e-08 -9.62063e-09)
(-1.30208e-08 1.74552e-08 -7.52728e-09)
(1.59382e-08 2.44416e-08 -1.29411e-08)
(3.67599e-09 2.38028e-08 -1.41552e-08)
(1.0851e-10 2.29091e-08 -1.3627e-08)
(-1.20651e-08 2.17387e-08 -1.14098e-08)
(1.69032e-08 2.95251e-08 -1.74956e-08)
(4.53492e-09 2.94274e-08 -1.86021e-08)
(1.31418e-09 2.83103e-08 -1.79913e-08)
(-1.0956e-08 2.61662e-08 -1.57128e-08)
(1.71317e-08 3.45102e-08 -2.18144e-08)
(5.13244e-09 3.4898e-08 -2.28415e-08)
(3.17403e-09 3.35639e-08 -2.21616e-08)
(-8.73062e-09 3.05219e-08 -1.98201e-08)
(1.49636e-08 3.88038e-08 -2.46712e-08)
(4.98543e-09 3.85453e-08 -2.5676e-08)
(6.16111e-09 3.70148e-08 -2.49464e-08)
(-3.80519e-09 3.42254e-08 -2.25183e-08)
(1.08767e-08 3.10392e-08 -2.42602e-08)
(4.84756e-09 2.77034e-08 -2.53229e-08)
(9.48593e-09 2.61041e-08 -2.45824e-08)
(3.23633e-09 2.61046e-08 -2.20545e-08)
(9.05689e-09 1.01828e-08 -1.44235e-09)
(4.50936e-10 3.67907e-09 -1.87237e-09)
(-3.53851e-10 3.58168e-09 -1.78754e-09)
(-8.94393e-09 9.91371e-09 -1.20068e-09)
(1.47802e-08 1.42465e-08 -4.39622e-09)
(2.40172e-09 1.06612e-08 -5.08146e-09)
(-1.77954e-09 1.03024e-08 -4.86598e-09)
(-1.41071e-08 1.3167e-08 -3.78466e-09)
(1.60106e-08 1.86396e-08 -7.52254e-09)
(3.27732e-09 1.71479e-08 -8.21827e-09)
(-1.67174e-09 1.65392e-08 -7.90346e-09)
(-1.43397e-08 1.68114e-08 -6.62034e-09)
(1.66107e-08 2.33768e-08 -1.09408e-08)
(3.89826e-09 2.27922e-08 -1.15634e-08)
(-8.44261e-10 2.19503e-08 -1.11682e-08)
(-1.34809e-08 2.08519e-08 -9.79582e-09)
(1.73921e-08 2.78953e-08 -1.44207e-08)
(4.64766e-09 2.78702e-08 -1.495e-08)
(2.97762e-10 2.68051e-08 -1.44865e-08)
(-1.23581e-08 2.47081e-08 -1.30666e-08)
(1.74965e-08 3.1902e-08 -1.73292e-08)
(5.18003e-09 3.23476e-08 -1.7784e-08)
(2.07644e-09 3.10658e-08 -1.72637e-08)
(-1.01532e-08 2.80798e-08 -1.5799e-08)
(1.54039e-08 3.50818e-08 -1.86807e-08)
(5.05065e-09 3.49495e-08 -1.91104e-08)
(4.92311e-09 3.34711e-08 -1.85518e-08)
(-5.42563e-09 3.06636e-08 -1.70237e-08)
(1.16214e-08 2.70119e-08 -1.75661e-08)
(4.94789e-09 2.41536e-08 -1.80723e-08)
(8.10811e-09 2.26021e-08 -1.75088e-08)
(1.20588e-09 2.22194e-08 -1.58744e-08)
(8.79959e-09 9.93748e-09 -1.14139e-09)
(4.09979e-10 3.53782e-09 -1.31288e-09)
(-3.64174e-10 3.45417e-09 -1.2541e-09)
(-8.76876e-09 9.73585e-09 -9.75074e-10)
(1.44292e-08 1.36927e-08 -3.58939e-09)
(2.29468e-09 1.01498e-08 -3.81545e-09)
(-1.86719e-09 9.82839e-09 -3.66445e-09)
(-1.39881e-08 1.2747e-08 -3.16304e-09)
(1.56564e-08 1.76695e-08 -6.13245e-09)
(3.11663e-09 1.62179e-08 -6.31681e-09)
(-1.86565e-09 1.56578e-08 -6.09357e-09)
(-1.43708e-08 1.60023e-08 -5.49512e-09)
(1.6172e-08 2.19092e-08 -8.74108e-09)
(3.65856e-09 2.13896e-08 -8.855e-09)
(-1.11539e-09 2.05993e-08 -8.57122e-09)
(-1.35783e-08 1.95507e-08 -7.92076e-09)
(1.67999e-08 2.58365e-08 -1.11953e-08)
(4.31288e-09 2.58836e-08 -1.12304e-08)
(-2.0213e-11 2.48699e-08 -1.08939e-08)
(-1.24412e-08 2.28109e-08 -1.02128e-08)
(1.67781e-08 2.92249e-08 -1.30121e-08)
(4.77431e-09 2.97339e-08 -1.29821e-08)
(1.70581e-09 2.85018e-08 -1.26016e-08)
(-1.02322e-08 2.55557e-08 -1.18917e-08)
(1.47085e-08 3.19703e-08 -1.35643e-08)
(4.63582e-09 3.19589e-08 -1.35105e-08)
(4.45567e-09 3.0527e-08 -1.31008e-08)
(-5.63245e-09 2.76937e-08 -1.23456e-08)
(1.1101e-08 2.3969e-08 -1.24239e-08)
(4.53726e-09 2.14872e-08 -1.24331e-08)
(7.54499e-09 1.99765e-08 -1.20214e-08)
(7.32675e-10 1.93001e-08 -1.11815e-08)
(8.54642e-09 9.71777e-09 -8.55062e-10)
(3.37789e-10 3.41733e-09 -9.07755e-10)
(-3.21235e-10 3.34375e-09 -8.6924e-10)
(-8.5667e-09 9.56273e-09 -7.47122e-10)
(1.39635e-08 1.31751e-08 -2.66865e-09)
(2.11196e-09 9.70793e-09 -2.69268e-09)
(-1.80454e-09 9.41473e-09 -2.59308e-09)
(-1.36702e-08 1.23267e-08 -2.38948e-09)
(1.5105e-08 1.67584e-08 -4.5177e-09)
(2.86304e-09 1.53667e-08 -4.4836e-09)
(-1.84083e-09 1.48445e-08 -4.33517e-09)
(-1.40718e-08 1.52136e-08 -4.09639e-09)
(1.55387e-08 2.05403e-08 -6.32931e-09)
(3.33927e-09 2.00815e-08 -6.23548e-09)
(-1.13727e-09 1.93327e-08 -6.04512e-09)
(-1.33062e-08 1.83123e-08 -5.7814e-09)
(1.60597e-08 2.40168e-08 -7.92371e-09)
(3.92369e-09 2.41226e-08 -7.77165e-09)
(-7.88132e-11 2.31503e-08 -7.54406e-09)
(-1.21667e-08 2.11198e-08 -7.26109e-09)
(1.59517e-08 2.70572e-08 -8.98796e-09)
(4.33076e-09 2.7617e-08 -8.78945e-09)
(1.60577e-09 2.64246e-08 -8.53051e-09)
(-9.966e-09 2.35098e-08 -8.22656e-09)
(1.38902e-08 2.96443e-08 -9.16505e-09)
(4.17684e-09 2.97173e-08 -8.95002e-09)
(4.28725e-09 2.83223e-08 -8.67054e-09)
(-5.45715e-09 2.548e-08 -8.33321e-09)
(1.03809e-08 2.1727e-08 -8.24775e-09)
(4.07039e-09 1.94826e-08 -8.0747e-09)
(7.31119e-09 1.80045e-08 -7.79459e-09)
(7.36721e-10 1.71572e-08 -7.40033e-09)
(8.38435e-09 9.55563e-09 -5.33901e-10)
(2.89085e-10 3.32412e-09 -5.46287e-10)
(-2.88272e-10 3.25706e-09 -5.24501e-10)
(-8.43388e-09 9.42954e-09 -4.73336e-10)
(1.36436e-08 1.27721e-08 -1.64418e-09)
(1.98293e-09 9.36852e-09 -1.62029e-09)
(-1.74438e-09 9.09366e-09 -1.56371e-09)
(-1.34365e-08 1.19858e-08 -1.48658e-09)
(1.47043e-08 1.60662e-08 -2.757e-09)
(2.67871e-09 1.47253e-08 -2.68904e-09)
(-1.79212e-09 1.42283e-08 -2.60427e-09)
(-1.38218e-08 1.46015e-08 -2.51763e-09)
(1.50739e-08 1.95323e-08 -3.81544e-09)
(3.10822e-09 1.91188e-08 -3.708e-09)
(-1.11373e-09 1.83979e-08 -3.59865e-09)
(-1.30618e-08 1.73916e-08 -3.50195e-09)
(1.55286e-08 2.27265e-08 -4.70579e-09)
(3.64767e-09 2.28721e-08 -4.56316e-09)
(-8.07925e-11 2.19281e-08 -4.43171e-09)
(-1.1925e-08 1.9917e-08 -4.32411e-09)
(1.53712e-08 2.55819e-08 -5.25683e-09)
(4.02017e-09 2.61743e-08 -5.08753e-09)
(1.57337e-09 2.50093e-08 -4.93731e-09)
(-9.73894e-09 2.2118e-08 -4.81584e-09)
(1.33141e-08 2.81045e-08 -5.28842e-09)
(3.85372e-09 2.82257e-08 -5.11039e-09)
(4.20951e-09 2.68561e-08 -4.94792e-09)
(-5.29171e-09 2.40176e-08 -4.80503e-09)
(9.86044e-09 2.0237e-08 -4.70331e-09)
(3.73904e-09 1.81211e-08 -4.54861e-09)
(7.19059e-09 1.66657e-08 -4.38609e-09)
(7.95581e-10 1.57363e-08 -4.2111e-09)
(8.30964e-09 9.471e-09 -1.81792e-10)
(2.67131e-10 3.27328e-09 -1.83645e-10)
(-2.73134e-10 3.20941e-09 -1.766e-10)
(-8.37247e-09 9.35874e-09 -1.6229e-10)
(1.34938e-08 1.25538e-08 -5.55228e-10)
(1.92288e-09 9.18403e-09 -5.42811e-10)
(-1.7156e-09 8.91815e-09 -5.24473e-10)
(-1.33263e-08 1.17975e-08 -5.04327e-10)
(1.45115e-08 1.56965e-08 -9.25748e-10)
(2.59055e-09 1.43832e-08 -8.97488e-10)
(-1.76686e-09 1.38986e-08 -8.69941e-10)
(-1.36993e-08 1.42711e-08 -8.4818e-10)
(1.48472e-08 1.90057e-08 -1.27302e-09)
(2.99623e-09 1.8616e-08 -1.23108e-09)
(-1.09954e-09 1.7909e-08 -1.19544e-09)
(-1.29392e-08 1.69085e-08 -1.17107e-09)
(1.52701e-08 2.20672e-08 -1.55869e-09)
(3.5137e-09 2.22327e-08 -1.50503e-09)
(-7.95867e-11 2.13029e-08 -1.46206e-09)
(-1.18048e-08 1.93016e-08 -1.43413e-09)
(1.50903e-08 2.48414e-08 -1.72855e-09)
(3.86957e-09 2.54493e-08 -1.66629e-09)
(1.55845e-09 2.42981e-08 -1.61708e-09)
(-9.62878e-09 2.14198e-08 -1.58421e-09)
(1.30357e-08 2.73378e-08 -1.72767e-09)
(3.69645e-09 2.74801e-08 -1.66279e-09)
(4.17173e-09 2.61235e-08 -1.60951e-09)
(-5.21315e-09 2.32904e-08 -1.56918e-09)
(9.60825e-09 1.94925e-08 -1.52725e-09)
(3.57728e-09 1.74313e-08 -1.46983e-09)
(7.13107e-09 1.59876e-08 -1.41658e-09)
(8.21796e-10 1.50273e-08 -1.36591e-09)
)
;

boundaryField
{
    interface
    {
        type            solidTraction;
        traction        uniform (0 0 0);
        pressure        uniform 0;
        secondOrder     false;
        setEffectiveTraction false;
        relaxationFactor 1;
        value           nonuniform List<vector> 
192
(
(6.52934e-08 2.05863e-08 4.83972e-09)
(6.5014e-08 1.80653e-08 3.96694e-09)
(6.67164e-08 1.89684e-08 -2.40296e-10)
(6.91078e-08 2.2415e-08 -5.30994e-09)
(7.21955e-08 2.71093e-08 -1.07804e-08)
(7.54562e-08 3.28307e-08 -1.68624e-08)
(7.76505e-08 4.04518e-08 -2.38631e-08)
(7.45519e-08 3.98278e-08 -3.01809e-08)
(6.38599e-08 1.66468e-08 -1.97432e-09)
(6.5975e-08 1.71041e-08 -4.17276e-09)
(6.75323e-08 2.01721e-08 -7.99605e-09)
(6.97056e-08 2.47662e-08 -1.28969e-08)
(7.29013e-08 2.99037e-08 -1.82927e-08)
(7.66931e-08 3.51672e-08 -2.39288e-08)
(7.99711e-08 4.04421e-08 -2.89671e-08)
(7.83885e-08 3.53447e-08 -3.07904e-08)
(5.94349e-08 1.6314e-08 -1.59779e-09)
(6.35961e-08 1.64627e-08 -4.33016e-09)
(6.54264e-08 1.98993e-08 -7.76984e-09)
(6.73808e-08 2.48573e-08 -1.20164e-08)
(7.03583e-08 2.98238e-08 -1.665e-08)
(7.40559e-08 3.40256e-08 -2.09964e-08)
(7.74476e-08 3.72405e-08 -2.37806e-08)
(7.69649e-08 3.02353e-08 -2.31876e-08)
(5.61141e-08 1.61421e-08 -1.47634e-09)
(6.08664e-08 1.5985e-08 -4.33597e-09)
(6.28999e-08 1.90974e-08 -7.41902e-09)
(6.47367e-08 2.37224e-08 -1.08827e-08)
(6.7482e-08 2.8117e-08 -1.44468e-08)
(7.09766e-08 3.14054e-08 -1.74178e-08)
(7.43416e-08 3.36136e-08 -1.87447e-08)
(7.44677e-08 2.62299e-08 -1.75102e-08)
(5.39229e-08 1.57447e-08 -1.26917e-09)
(5.86244e-08 1.5407e-08 -3.79378e-09)
(6.06662e-08 1.81053e-08 -6.35907e-09)
(6.24098e-08 2.21953e-08 -9.00932e-09)
(6.49756e-08 2.59883e-08 -1.15286e-08)
(6.82972e-08 2.87025e-08 -1.33984e-08)
(7.16147e-08 3.05516e-08 -1.39429e-08)
(7.20589e-08 2.31827e-08 -1.27342e-08)
(5.25444e-08 1.53453e-08 -9.58981e-10)
(5.70584e-08 1.48148e-08 -2.86521e-09)
(5.90172e-08 1.71524e-08 -4.7559e-09)
(6.0673e-08 2.07792e-08 -6.60398e-09)
(6.31166e-08 2.41203e-08 -8.24167e-09)
(6.63238e-08 2.65152e-08 -9.33982e-09)
(6.96027e-08 2.82522e-08 -9.51376e-09)
(7.0216e-08 2.09339e-08 -8.55799e-09)
(5.17474e-08 1.50626e-08 -5.9316e-10)
(5.61181e-08 1.43521e-08 -1.7617e-09)
(5.79957e-08 1.64239e-08 -2.90546e-09)
(5.95833e-08 1.97386e-08 -3.98839e-09)
(6.19516e-08 2.28011e-08 -4.90329e-09)
(6.50931e-08 2.50288e-08 -5.47225e-09)
(6.83481e-08 2.67274e-08 -5.50211e-09)
(6.90521e-08 1.94411e-08 -4.89653e-09)
(5.13841e-08 1.49219e-08 -2.00489e-10)
(5.56862e-08 1.41044e-08 -5.92713e-10)
(5.75203e-08 1.6035e-08 -9.73957e-10)
(5.90717e-08 1.91956e-08 -1.32972e-09)
(6.1404e-08 2.21283e-08 -1.62335e-09)
(6.45157e-08 2.42833e-08 -1.79878e-09)
(6.77599e-08 2.59679e-08 -1.79729e-09)
(6.8505e-08 1.86962e-08 -1.59032e-09)
(4.51103e-09 1.9492e-08 6.96113e-08)
(6.30301e-09 1.59786e-08 6.60318e-08)
(6.96625e-09 1.62225e-08 6.2736e-08)
(8.07105e-09 1.92855e-08 5.90578e-08)
(9.31512e-09 2.39692e-08 5.55905e-08)
(9.44115e-09 3.02452e-08 5.28053e-08)
(6.71755e-09 3.89735e-08 5.08944e-08)
(1.81224e-09 3.94607e-08 4.66804e-08)
(-6.64385e-10 1.39128e-08 6.86185e-08)
(3.50962e-10 1.29783e-08 6.59941e-08)
(1.23492e-09 1.49413e-08 6.23798e-08)
(2.27413e-09 1.88124e-08 5.88566e-08)
(3.45465e-09 2.41252e-08 5.60071e-08)
(4.24142e-09 3.08978e-08 5.41683e-08)
(4.09375e-09 3.87599e-08 5.3391e-08)
(3.80346e-09 3.58978e-08 4.98373e-08)
(1.5419e-09 1.39721e-08 6.83178e-08)
(2.28417e-09 1.2732e-08 6.58939e-08)
(3.38253e-09 1.43851e-08 6.24409e-08)
(4.61101e-09 1.79788e-08 5.90415e-08)
(5.99658e-09 2.30403e-08 5.62908e-08)
(8.08101e-09 2.95746e-08 5.45374e-08)
(1.14179e-08 3.72107e-08 5.38476e-08)
(1.51848e-08 3.42025e-08 5.0444e-08)
(-3.77234e-09 1.96013e-08 6.89724e-08)
(-3.86612e-09 1.50392e-08 6.60779e-08)
(-2.56308e-09 1.43757e-08 6.32766e-08)
(-1.40796e-09 1.66515e-08 5.99707e-08)
(-8.72574e-11 2.06225e-08 5.67982e-08)
(2.64684e-09 2.62248e-08 5.42586e-08)
(8.47889e-09 3.42971e-08 5.25708e-08)
(1.66561e-08 3.42675e-08 4.8692e-08)
(-6.41283e-08 1.95681e-08 5.54977e-09)
(-6.23476e-08 1.59897e-08 5.65945e-09)
(-6.22331e-08 1.5913e-08 2.13858e-09)
(-6.24729e-08 1.84613e-08 -2.42425e-09)
(-6.30841e-08 2.2315e-08 -7.4973e-09)
(-6.35864e-08 2.72384e-08 -1.32493e-08)
(-6.28837e-08 3.41091e-08 -1.99552e-08)
(-5.71746e-08 3.29328e-08 -2.60157e-08)
(-6.2396e-08 1.57382e-08 -1.40668e-09)
(-6.33924e-08 1.51075e-08 -2.77125e-09)
(-6.34408e-08 1.71966e-08 -5.97968e-09)
(-6.3695e-08 2.08955e-08 -1.04092e-08)
(-6.45893e-08 2.51942e-08 -1.54247e-08)
(-6.57523e-08 2.96666e-08 -2.07408e-08)
(-6.62337e-08 3.42222e-08 -2.55138e-08)
(-6.21872e-08 2.86512e-08 -2.71785e-08)
(-5.81054e-08 1.56442e-08 -1.18472e-09)
(-6.14197e-08 1.47287e-08 -3.28188e-09)
(-6.20024e-08 1.71778e-08 -6.22158e-09)
(-6.22621e-08 2.12224e-08 -1.00603e-08)
(-6.31234e-08 2.53323e-08 -1.43521e-08)
(-6.43417e-08 2.87338e-08 -1.8411e-08)
(-6.50542e-08 3.12334e-08 -2.09723e-08)
(-6.21853e-08 2.37552e-08 -2.02703e-08)
(-5.49602e-08 1.56765e-08 -1.1833e-09)
(-5.90707e-08 1.45159e-08 -3.58094e-09)
(-6.00598e-08 1.66547e-08 -6.28257e-09)
(-6.03919e-08 2.03563e-08 -9.41725e-09)
(-6.11884e-08 2.3876e-08 -1.2695e-08)
(-6.23453e-08 2.63464e-08 -1.54233e-08)
(-6.31442e-08 2.78235e-08 -1.65667e-08)
(-6.09573e-08 1.99429e-08 -1.52483e-08)
(-5.29048e-08 1.54251e-08 -1.06924e-09)
(-5.71084e-08 1.41474e-08 -3.27207e-09)
(-5.82551e-08 1.58997e-08 -5.56189e-09)
(-5.86426e-08 1.90681e-08 -7.96423e-09)
(-5.93973e-08 2.19742e-08 -1.02604e-08)
(-6.0502e-08 2.38532e-08 -1.19383e-08)
(-6.13531e-08 2.49521e-08 -1.23375e-08)
(-5.95547e-08 1.70633e-08 -1.1064e-08)
(-5.1618e-08 1.51219e-08 -8.30746e-10)
(-5.57282e-08 1.37029e-08 -2.52725e-09)
(-5.68946e-08 1.51225e-08 -4.23351e-09)
(-5.73014e-08 1.78358e-08 -5.9104e-09)
(-5.80374e-08 2.02845e-08 -7.39001e-09)
(-5.91212e-08 2.1832e-08 -8.34976e-09)
(-6.00133e-08 2.28039e-08 -8.41828e-09)
(-5.84437e-08 1.49489e-08 -7.41595e-09)
(-5.08772e-08 1.48971e-08 -5.21837e-10)
(-5.49e-08 1.33327e-08 -1.57247e-09)
(-5.6049e-08 1.45077e-08 -2.61067e-09)
(-5.64563e-08 1.69172e-08 -3.5936e-09)
(-5.71853e-08 1.9086e-08 -4.41449e-09)
(-5.82668e-08 2.04593e-08 -4.90007e-09)
(-5.91902e-08 2.13836e-08 -4.86596e-09)
(-5.77545e-08 1.35499e-08 -4.2323e-09)
(-5.05407e-08 1.47834e-08 -1.77625e-10)
(-5.45209e-08 1.31292e-08 -5.31852e-10)
(-5.56567e-08 1.41743e-08 -8.78769e-10)
(-5.60613e-08 1.64347e-08 -1.20168e-09)
(-5.67882e-08 1.84738e-08 -1.46414e-09)
(-5.78719e-08 1.97715e-08 -1.61173e-09)
(-5.88126e-08 2.06774e-08 -1.5888e-09)
(-5.74404e-08 1.28532e-08 -1.37244e-09)
(2.16305e-09 -3.73957e-08 -3.10889e-08)
(7.81077e-09 -3.9777e-08 -3.0614e-08)
(1.13104e-08 -3.98102e-08 -2.19555e-08)
(1.19467e-08 -4.05761e-08 -1.57986e-08)
(1.13301e-08 -4.17754e-08 -1.11027e-08)
(1.05473e-08 -4.29461e-08 -7.31478e-09)
(9.99325e-09 -4.38291e-08 -4.1447e-09)
(9.7272e-09 -4.42961e-08 -1.34114e-09)
(4.14122e-09 -4.12379e-08 -2.82009e-08)
(5.1686e-09 -4.29797e-08 -3.10623e-08)
(6.08273e-09 -4.19169e-08 -2.3226e-08)
(6.05175e-09 -4.17929e-08 -1.65183e-08)
(5.53682e-09 -4.23938e-08 -1.12654e-08)
(5.00246e-09 -4.32169e-08 -7.23318e-09)
(4.63331e-09 -4.39232e-08 -4.03581e-09)
(4.45496e-09 -4.43182e-08 -1.29739e-09)
(1.55199e-08 -4.25123e-08 -2.71622e-08)
(1.24743e-08 -4.41256e-08 -3.01561e-08)
(9.8871e-09 -4.30007e-08 -2.25114e-08)
(8.59314e-09 -4.28293e-08 -1.59769e-08)
(8.09328e-09 -4.33914e-08 -1.0872e-08)
(7.89407e-09 -4.41843e-08 -6.9669e-09)
(7.78833e-09 -4.48698e-08 -3.88186e-09)
(7.73362e-09 -4.52542e-08 -1.24704e-09)
(1.69973e-08 -4.14331e-08 -2.78952e-08)
(9.52393e-09 -4.35336e-08 -2.79106e-08)
(4.41257e-09 -4.34158e-08 -1.98245e-08)
(2.44155e-09 -4.40491e-08 -1.41732e-08)
(2.02192e-09 -4.51344e-08 -9.91585e-09)
(2.05443e-09 -4.6215e-08 -6.50936e-09)
(2.12293e-09 -4.70356e-08 -3.67861e-09)
(2.15073e-09 -4.74706e-08 -1.18866e-09)
)
;
        gradient        uniform (0 0 0);
    }
    symmetry
    {
        type            solidSymmetry;
        patchType       symmetry;
        secondOrder     false;
        value           nonuniform List<vector> 
32
(
(8.30964e-09 9.471e-09 0)
(1.34938e-08 1.25538e-08 0)
(1.45115e-08 1.56965e-08 0)
(1.48472e-08 1.90057e-08 0)
(1.52701e-08 2.20672e-08 0)
(1.50903e-08 2.48414e-08 0)
(1.30357e-08 2.73378e-08 0)
(9.60825e-09 1.94925e-08 0)
(2.67131e-10 3.27328e-09 0)
(1.92288e-09 9.18403e-09 0)
(2.59055e-09 1.43832e-08 0)
(2.99623e-09 1.8616e-08 0)
(3.5137e-09 2.22327e-08 0)
(3.86957e-09 2.54493e-08 0)
(3.69645e-09 2.74801e-08 0)
(3.57728e-09 1.74313e-08 0)
(-2.73134e-10 3.20941e-09 0)
(-1.7156e-09 8.91815e-09 0)
(-1.76686e-09 1.38986e-08 0)
(-1.09954e-09 1.7909e-08 0)
(-7.95867e-11 2.13029e-08 0)
(1.55845e-09 2.42981e-08 0)
(4.17173e-09 2.61235e-08 0)
(7.13107e-09 1.59876e-08 0)
(-8.37247e-09 9.35874e-09 0)
(-1.33263e-08 1.17975e-08 0)
(-1.36993e-08 1.42711e-08 0)
(-1.29392e-08 1.69085e-08 0)
(-1.18048e-08 1.93016e-08 0)
(-9.62878e-09 2.14198e-08 0)
(-5.21315e-09 2.32904e-08 0)
(8.21796e-10 1.50273e-08 0)
)
;
    }
    bottom
    {
        type            fixedDisplacement;
        value           uniform (0 0 0);
    }
}


// ************************************************************************* //
