/*--------------------------------*- C++ -*----------------------------------*\
| =========                 |                                                 |
| \\      /  F ield         | OpenFOAM: The Open Source CFD Toolbox           |
|  \\    /   O peration     | Version:  v1912                                 |
|   \\  /    A nd           | Website:  www.openfoam.com                      |
|    \\/     M anipulation  |                                                 |
\*---------------------------------------------------------------------------*/
FoamFile
{
    version     2.0;
    format      ascii;
    class       volSymmTensorField;
    location    "0.17/solid";
    object      epsilon;
}
// * * * * * * * * * * * * * * * * * * * * * * * * * * * * * * * * * * * * * //

dimensions      [0 0 0 0 0 0 0];


internalField   nonuniform List<symmTensor> 
256
(
(-2.53275e-06 -1.26434e-09 2.35172e-08 7.20505e-07 -1.66723e-08 -2.75235e-06)
(-7.53243e-08 -7.52562e-08 1.21253e-08 5.21848e-07 -5.11725e-09 -2.68015e-06)
(-7.74867e-08 9.98111e-08 -1.17255e-08 5.12892e-07 -2.69393e-09 -2.66161e-06)
(-2.50661e-06 1.15654e-08 -2.18762e-08 6.86594e-07 -7.58878e-09 -2.70532e-06)
(-2.46621e-06 -1.69223e-08 3.56626e-08 -5.7606e-09 -4.02569e-08 -2.69762e-06)
(-1.12821e-07 -1.70288e-08 1.86364e-08 1.00834e-07 -4.13423e-08 -2.66215e-06)
(-1.15749e-07 3.42662e-08 -1.75003e-08 8.95723e-08 -3.98265e-08 -2.64213e-06)
(-2.43916e-06 2.42402e-08 -3.31164e-08 -4.03049e-08 -3.46473e-08 -2.64963e-06)
(-2.50267e-06 -5.00528e-09 3.51772e-08 6.69125e-08 -3.2779e-08 -2.72956e-06)
(-1.08336e-07 -1.41323e-09 1.85434e-08 1.18828e-07 -3.3618e-08 -2.68481e-06)
(-1.11488e-07 1.40481e-08 -1.71548e-08 1.0788e-07 -3.25722e-08 -2.66453e-06)
(-2.47508e-06 1.03295e-08 -3.24533e-08 3.55857e-08 -2.8812e-08 -2.68152e-06)
(-2.55844e-06 3.77622e-09 3.49825e-08 1.42979e-07 -2.67626e-08 -2.77979e-06)
(-1.03207e-07 4.5301e-09 1.85287e-08 1.66347e-07 -2.45735e-08 -2.73573e-06)
(-1.06515e-07 4.73671e-09 -1.71644e-08 1.56222e-07 -2.37478e-08 -2.7155e-06)
(-2.53033e-06 1.27812e-10 -3.224e-08 1.14334e-07 -2.36183e-08 -2.73197e-06)
(-2.63944e-06 4.38093e-09 3.75898e-08 2.08193e-07 -2.80928e-08 -2.85785e-06)
(-9.61373e-08 4.38295e-09 2.00714e-08 2.26226e-07 -2.41853e-08 -2.82583e-06)
(-9.94877e-08 2.12084e-09 -1.87917e-08 2.16614e-07 -2.3454e-08 -2.80569e-06)
(-2.611e-06 -1.66381e-09 -3.48566e-08 1.81117e-07 -2.53971e-08 -2.81017e-06)
(-2.75906e-06 -8.52465e-09 4.24497e-08 2.79438e-07 -4.03749e-08 -2.98326e-06)
(-5.62516e-08 -5.10322e-09 2.28635e-08 2.74859e-07 -3.65671e-08 -2.97411e-06)
(-5.98173e-08 9.1596e-09 -2.16216e-08 2.65574e-07 -3.58252e-08 -2.95412e-06)
(-2.73171e-06 9.87005e-09 -3.97207e-08 2.53112e-07 -3.78511e-08 -2.93564e-06)
(-2.91099e-06 -3.59401e-08 4.75208e-08 9.50131e-08 -6.25358e-08 -3.15417e-06)
(5.52737e-08 -2.17699e-08 2.56123e-08 2.56633e-08 -6.16419e-08 -3.18018e-06)
(5.01772e-08 2.33126e-08 -2.42573e-08 1.8612e-08 -6.07551e-08 -3.16079e-06)
(-2.89073e-06 3.5255e-08 -4.47922e-08 7.27389e-08 -5.99145e-08 -3.10706e-06)
(-2.91189e-06 -4.8402e-08 4.87578e-08 -3.17712e-06 -6.49093e-08 -3.17703e-06)
(2.06945e-07 -2.55457e-08 2.60781e-08 -3.23484e-06 -6.65329e-08 -3.23449e-06)
(1.97931e-07 2.49339e-08 -2.44965e-08 -3.2196e-06 -6.56542e-08 -3.21896e-06)
(-2.9187e-06 4.63303e-08 -4.61569e-08 -3.13813e-06 -6.2668e-08 -3.13755e-06)
(-2.38169e-06 3.06832e-08 1.43018e-08 5.53108e-07 -1.57912e-07 -1.35319e-07)
(-1.43535e-07 -6.01743e-08 9.21121e-09 3.49672e-07 -1.68645e-07 -1.69521e-07)
(-1.42739e-07 7.25609e-08 -7.7208e-09 3.38559e-07 -1.63327e-07 -1.70249e-07)
(-2.33444e-06 -2.4462e-08 -1.27149e-08 5.15799e-07 -1.41108e-07 -1.40088e-07)
(-2.36491e-06 -1.0974e-08 2.54975e-08 1.38305e-07 -8.92151e-08 -1.79334e-07)
(-2.28144e-07 -1.62154e-08 1.62343e-08 2.43914e-07 -9.6359e-08 -2.27573e-07)
(-2.27134e-07 2.408e-08 -1.33653e-08 2.32505e-07 -9.28574e-08 -2.29731e-07)
(-2.31577e-06 1.43579e-08 -2.29716e-08 1.0393e-07 -7.74167e-08 -1.89464e-07)
(-2.39439e-06 -6.55541e-09 2.6327e-08 1.45877e-07 -7.39281e-08 -1.66433e-07)
(-2.30411e-07 -4.60928e-09 1.69668e-08 2.00707e-07 -7.51657e-08 -2.13207e-07)
(-2.29532e-07 1.01881e-08 -1.38644e-08 1.90411e-07 -7.26095e-08 -2.16315e-07)
(-2.34415e-06 8.83884e-09 -2.36679e-08 1.15905e-07 -6.4906e-08 -1.79475e-07)
(-2.44748e-06 2.42646e-09 2.57617e-08 1.74514e-07 -7.23128e-08 -1.5075e-07)
(-2.24418e-07 1.42536e-09 1.66262e-08 1.9855e-07 -6.98598e-08 -1.98714e-07)
(-2.23575e-07 2.5134e-09 -1.3772e-08 1.89042e-07 -6.77593e-08 -2.02373e-07)
(-2.39587e-06 -7.87654e-10 -2.31674e-08 1.47008e-07 -6.48498e-08 -1.65392e-07)
(-2.53445e-06 4.86297e-09 2.68275e-08 2.05425e-07 -7.87145e-08 -1.34937e-07)
(-2.19571e-07 2.4824e-09 1.73968e-08 2.23283e-07 -7.5601e-08 -1.88741e-07)
(-2.18634e-07 -4.5337e-11 -1.48177e-08 2.14153e-07 -7.37194e-08 -1.92729e-07)
(-2.48139e-06 -3.86608e-09 -2.43001e-08 1.79233e-07 -7.21756e-08 -1.505e-07)
(-2.67059e-06 -6.02932e-09 2.9635e-08 2.26147e-07 -9.20912e-08 -1.03056e-07)
(-1.87228e-07 -5.42245e-09 1.94407e-08 2.21992e-07 -9.01225e-08 -1.65509e-07)
(-1.86413e-07 6.40643e-09 -1.69982e-08 2.13301e-07 -8.83727e-08 -1.69785e-07)
(-2.61708e-06 6.03832e-09 -2.71309e-08 2.00997e-07 -8.6194e-08 -1.19342e-07)
(-2.85623e-06 -3.28887e-08 3.34153e-08 -2.51509e-08 -9.89928e-08 -2.698e-08)
(-8.73717e-08 -2.09125e-08 2.19572e-08 -9.59946e-08 -9.83631e-08 -9.6445e-08)
(-8.81563e-08 2.0543e-08 -1.96563e-08 -1.01769e-07 -9.68502e-08 -1.01321e-07)
(-2.80812e-06 3.12114e-08 -3.09995e-08 -4.48739e-08 -9.40454e-08 -4.45696e-08)
(-2.91126e-06 -4.72992e-08 3.66994e-08 -3.15392e-06 -6.2157e-08 9.45841e-08)
(5.4814e-08 -2.52829e-08 2.33151e-08 -3.18041e-06 -6.1408e-08 2.62347e-08)
(4.96206e-08 2.45348e-08 -2.20191e-08 -3.16143e-06 -6.05606e-08 2.00613e-08)
(-2.89115e-06 4.48889e-08 -3.49028e-08 -3.10762e-06 -5.97034e-08 7.41855e-08)
(-2.16164e-06 4.91878e-08 -6.26573e-10 4.94997e-07 -8.19511e-08 2.9595e-08)
(-1.8054e-07 -4.51134e-08 1.34907e-09 2.89515e-07 -9.78229e-08 2.95785e-08)
(-1.7934e-07 5.15988e-08 6.3022e-10 2.7896e-07 -9.32994e-08 2.80082e-08)
(-2.11326e-06 -4.52855e-08 1.49364e-09 4.61962e-07 -6.79947e-08 2.46716e-08)
(-2.18641e-06 -4.5216e-09 3.90686e-09 1.58192e-07 -7.77599e-08 2.54778e-08)
(-3.06372e-07 -1.33362e-08 4.18109e-09 2.61682e-07 -8.40881e-08 2.74352e-08)
(-3.04431e-07 1.64711e-08 -7.52618e-10 2.50552e-07 -8.03586e-08 2.38436e-08)
(-2.13462e-06 6.07364e-09 -2.31922e-09 1.24657e-07 -6.58691e-08 1.45724e-08)
(-2.22065e-06 -6.6691e-09 5.49008e-09 1.71053e-07 -8.2149e-08 3.81078e-08)
(-3.19567e-07 -6.03014e-09 5.08621e-09 2.29257e-07 -8.2492e-08 4.13726e-08)
(-3.17555e-07 7.90675e-09 -1.55434e-09 2.19177e-07 -7.94058e-08 3.65497e-08)
(-2.1672e-06 7.47954e-09 -3.7983e-09 1.41248e-07 -7.20726e-08 2.35895e-08)
(-2.27044e-06 1.34821e-09 5.12696e-09 1.8136e-07 -9.02144e-08 6.42406e-08)
(-3.13243e-07 -1.41583e-10 4.82261e-09 2.07496e-07 -8.75977e-08 6.70137e-08)
(-3.11149e-07 1.29669e-09 -1.63734e-09 1.98165e-07 -8.49252e-08 6.14456e-08)
(-2.21528e-06 -8.18011e-10 -3.54157e-09 1.53864e-07 -8.14527e-08 4.75188e-08)
(-2.3534e-06 4.74347e-09 4.67607e-09 1.81892e-07 -9.86876e-08 9.95167e-08)
(-3.08015e-07 2.07438e-09 4.6821e-09 1.9964e-07 -9.58174e-08 1.00676e-07)
(-3.05732e-07 -1.62537e-09 -1.85882e-09 1.90695e-07 -9.34238e-08 9.46025e-08)
(-2.2964e-06 -4.53507e-09 -3.21233e-09 1.55776e-07 -9.09277e-08 8.13125e-08)
(-2.48612e-06 -4.66643e-09 4.9348e-09 1.66295e-07 -1.0214e-07 1.51117e-07)
(-2.78935e-07 -4.42757e-09 5.29194e-09 1.62417e-07 -1.00491e-07 1.50472e-07)
(-2.76718e-07 4.16167e-09 -2.75233e-09 1.54009e-07 -9.83792e-08 1.43949e-07)
(-2.4282e-06 4.16622e-09 -3.56877e-09 1.41503e-07 -9.53513e-08 1.31646e-07)
(-2.67125e-06 -2.9202e-08 6.59376e-09 -9.67684e-08 -8.82704e-08 2.21556e-07)
(-1.87331e-07 -1.85888e-08 6.76746e-09 -1.61298e-07 -8.6925e-08 2.19858e-07)
(-1.86746e-07 1.77111e-08 -4.71316e-09 -1.66711e-07 -8.53172e-08 2.1281e-07)
(-2.61799e-06 2.72694e-08 -5.42968e-09 -1.16059e-07 -8.30242e-08 2.00706e-07)
(-2.75988e-06 -4.23146e-08 9.58542e-09 -2.98212e-06 -3.84199e-08 2.78994e-07)
(-5.70337e-08 -2.26366e-08 7.35192e-09 -2.9739e-06 -3.50442e-08 2.7635e-07)
(-6.1007e-08 2.18343e-08 -6.83276e-09 -2.95451e-06 -3.44122e-08 2.68828e-07)
(-2.73308e-06 3.97826e-08 -9.13161e-09 -2.93593e-06 -3.63824e-08 2.56946e-07)
(-2.02134e-06 5.25124e-08 -4.95962e-09 4.72361e-07 -5.71195e-08 1.56041e-08)
(-1.86039e-07 -4.00729e-08 -1.95738e-09 2.68111e-07 -6.47324e-08 2.56876e-08)
(-1.85449e-07 4.35209e-08 3.82991e-09 2.58704e-07 -6.13612e-08 2.4451e-08)
(-1.97572e-06 -5.02243e-08 5.52947e-09 4.44365e-07 -4.68116e-08 1.20222e-08)
(-2.0571e-06 -2.03952e-09 -5.64474e-09 1.47234e-07 -6.52179e-08 2.71015e-08)
(-3.26562e-07 -1.22108e-08 -2.36288e-09 2.48787e-07 -6.71188e-08 4.46654e-08)
(-3.25213e-07 1.28929e-08 5.64566e-09 2.38334e-07 -6.39836e-08 4.16786e-08)
(-2.00753e-06 2.61364e-09 6.78345e-09 1.15514e-07 -5.55034e-08 1.85119e-08)
(-2.09589e-06 -6.35546e-09 -4.85366e-09 1.62314e-07 -7.62025e-08 4.34296e-08)
(-3.47259e-07 -6.58849e-09 -1.99973e-09 2.22219e-07 -7.50499e-08 6.28388e-08)
(-3.45638e-07 6.50552e-09 5.38558e-09 2.12375e-07 -7.22218e-08 5.86779e-08)
(-2.04418e-06 6.41911e-09 6.09133e-09 1.32902e-07 -6.73152e-08 3.13952e-08)
(-2.14489e-06 5.63579e-10 -4.97091e-09 1.66652e-07 -8.74058e-08 7.16558e-08)
(-3.41351e-07 -1.07204e-09 -2.15367e-09 1.94231e-07 -8.45938e-08 9.08729e-08)
(-3.39523e-07 7.65132e-10 5.20024e-09 1.84947e-07 -8.20306e-08 8.59045e-08)
(-2.09118e-06 -6.01109e-10 6.10526e-09 1.39011e-07 -7.9309e-08 5.72009e-08)
(-2.22458e-06 3.98006e-09 -5.67085e-09 1.54026e-07 -9.38837e-08 1.10235e-07)
(-3.34034e-07 1.57702e-09 -2.56306e-09 1.71754e-07 -9.09069e-08 1.28905e-07)
(-3.31948e-07 -2.1058e-09 5.22226e-09 1.62813e-07 -8.85901e-08 1.23331e-07)
(-2.16887e-06 -4.15485e-09 6.6643e-09 1.27646e-07 -8.65932e-08 9.39673e-08)
(-2.35318e-06 -4.32157e-09 -6.14568e-09 1.28223e-07 -8.89246e-08 1.56221e-07)
(-3.04339e-07 -3.84185e-09 -2.62013e-09 1.2533e-07 -8.6881e-08 1.74642e-07)
(-3.02282e-07 3.05518e-09 4.90094e-09 1.16916e-07 -8.48867e-08 1.68561e-07)
(-2.29637e-06 3.61887e-09 6.99571e-09 1.03168e-07 -8.26316e-08 1.38463e-07)
(-2.53562e-06 -2.61421e-08 -5.4059e-09 -1.221e-07 -6.58707e-08 1.98409e-07)
(-2.1714e-07 -1.63782e-08 -1.93823e-09 -1.7864e-07 -6.40765e-08 2.16892e-07)
(-2.16702e-07 1.53385e-08 3.57993e-09 -1.84154e-07 -6.26456e-08 2.10395e-07)
(-2.48307e-06 2.41464e-08 6.00275e-09 -1.41897e-07 -6.11994e-08 1.79436e-07)
(-2.64139e-06 -3.73153e-08 -3.79726e-09 -2.85635e-06 -2.23439e-08 2.11913e-07)
(-9.55948e-08 -1.97938e-08 -2.24124e-09 -2.82558e-06 -1.90335e-08 2.30296e-07)
(-9.9729e-08 1.88883e-08 2.31332e-09 -2.8063e-06 -1.85395e-08 2.23623e-07)
(-2.61398e-06 3.47054e-08 3.70709e-09 -2.81094e-06 -2.066e-08 1.92366e-07)
(-1.93857e-06 5.04253e-08 -4.14026e-09 4.55482e-07 -4.58381e-08 1.04522e-08)
(-1.80751e-07 -4.03421e-08 -2.03201e-09 2.54679e-07 -4.69967e-08 1.71327e-08)
(-1.80787e-07 4.21018e-08 3.51316e-09 2.46314e-07 -4.46073e-08 1.6191e-08)
(-1.89565e-06 -4.91927e-08 4.56877e-09 4.31588e-07 -3.86072e-08 7.73367e-09)
(-1.97547e-06 -2.07674e-09 -6.10304e-09 1.32321e-07 -5.41321e-08 2.94906e-08)
(-3.20575e-07 -1.25937e-08 -3.28939e-09 2.32371e-07 -5.27242e-08 4.11162e-08)
(-3.19981e-07 1.19244e-08 5.97713e-09 2.22626e-07 -5.03766e-08 3.87589e-08)
(-1.9285e-06 2.08714e-09 6.99123e-09 1.02505e-07 -4.69675e-08 2.27285e-08)
(-2.01577e-06 -6.34857e-09 -6.08064e-09 1.44117e-07 -6.38848e-08 5.09969e-08)
(-3.43284e-07 -7.00671e-09 -3.35806e-09 2.04229e-07 -6.16808e-08 6.37703e-08)
(-3.42281e-07 5.83361e-09 6.19277e-09 1.94673e-07 -5.94477e-08 6.03848e-08)
(-1.96637e-06 6.00609e-09 7.06814e-09 1.15359e-07 -5.69857e-08 4.12102e-08)
(-2.06442e-06 6.73765e-11 -6.17396e-09 1.45839e-07 -7.2787e-08 7.92564e-08)
(-3.37384e-07 -1.62878e-09 -3.47883e-09 1.73922e-07 -7.00917e-08 9.17334e-08)
(-3.36067e-07 5.01445e-10 6.05385e-09 1.64691e-07 -6.79943e-08 8.75651e-08)
(-2.01281e-06 -4.16749e-10 7.08402e-09 1.18196e-07 -6.62603e-08 6.71048e-08)
(-2.14204e-06 3.33869e-09 -6.6577e-09 1.31479e-07 -7.57012e-08 1.13243e-07)
(-3.28157e-07 1.1558e-09 -3.80625e-09 1.49124e-07 -7.30618e-08 1.2505e-07)
(-3.26525e-07 -2.22544e-09 6.03488e-09 1.40135e-07 -7.11394e-08 1.20251e-07)
(-2.08831e-06 -3.72327e-09 7.43993e-09 1.04808e-07 -6.97131e-08 9.91726e-08)
(-2.2678e-06 -4.19965e-09 -7.052e-09 1.08735e-07 -6.72461e-08 1.46676e-07)
(-2.9718e-07 -3.53676e-09 -3.97622e-09 1.06741e-07 -6.53301e-08 1.5797e-07)
(-2.95544e-07 2.47031e-09 5.8226e-09 9.82195e-08 -6.36861e-08 1.52655e-07)
(-2.21287e-06 3.39154e-09 7.68673e-09 8.32474e-08 -6.20763e-08 1.31037e-07)
(-2.44815e-06 -2.40167e-08 -6.66563e-09 -1.28468e-07 -4.53337e-08 1.67733e-07)
(-2.12438e-07 -1.48223e-08 -3.71543e-09 -1.79046e-07 -4.37831e-08 1.78896e-07)
(-2.12398e-07 1.36805e-08 4.93527e-09 -1.84747e-07 -4.26282e-08 1.7322e-07)
(-2.39722e-06 2.19873e-08 7.05255e-09 -1.48894e-07 -4.15435e-08 1.50954e-07)
(-2.56272e-06 -3.37838e-08 -5.93216e-09 -2.77987e-06 -1.39317e-08 1.63535e-07)
(-9.62583e-08 -1.77581e-08 -4.33561e-09 -2.73582e-06 -1.16161e-08 1.7536e-07)
(-1.00786e-07 1.67527e-08 4.17008e-09 -2.71673e-06 -1.12266e-08 1.696e-07)
(-2.53609e-06 3.11119e-08 5.71606e-09 -2.73523e-06 -1.25764e-08 1.46375e-07)
(-1.88919e-06 4.78921e-08 -2.52532e-09 4.40564e-07 -3.44568e-08 1.05609e-08)
(-1.74903e-07 -4.16679e-08 -1.21809e-09 2.43425e-07 -3.32813e-08 1.33709e-08)
(-1.75383e-07 4.24737e-08 2.26042e-09 2.3584e-07 -3.16959e-08 1.2615e-08)
(-1.84827e-06 -4.7304e-08 2.83251e-09 4.19602e-07 -2.97134e-08 8.3992e-09)
(-1.92512e-06 -2.75021e-09 -4.00217e-09 1.18617e-07 -4.09595e-08 3.35302e-08)
(-3.10218e-07 -1.33167e-08 -2.13133e-09 2.17776e-07 -3.86097e-08 3.78363e-08)
(-3.10185e-07 1.1886e-08 4.07816e-09 2.08598e-07 -3.70123e-08 3.59086e-08)
(-1.88016e-06 2.43598e-09 4.6535e-09 9.03419e-08 -3.61325e-08 2.80418e-08)
(-1.96532e-06 -6.55253e-09 -4.21142e-09 1.2737e-07 -4.77251e-08 5.81214e-08)
(-3.32088e-07 -7.37639e-09 -2.29118e-09 1.87101e-07 -4.54446e-08 6.23728e-08)
(-3.31562e-07 5.57857e-09 4.39455e-09 1.77811e-07 -4.38779e-08 5.95473e-08)
(-1.91776e-06 5.98053e-09 4.9511e-09 9.92819e-08 -4.29249e-08 4.99994e-08)
(-2.0135e-06 -2.44111e-10 -4.32169e-09 1.28224e-07 -5.31162e-08 8.5208e-08)
(-3.25609e-07 -1.95703e-09 -2.38993e-09 1.56238e-07 -5.0925e-08 8.88341e-08)
(-3.24695e-07 3.43855e-10 4.32934e-09 1.47074e-07 -4.94162e-08 8.52766e-08)
(-1.96359e-06 -2.86536e-10 5.0139e-09 1.00696e-07 -4.84494e-08 7.487e-08)
(-2.08986e-06 2.9759e-09 -4.59136e-09 1.16191e-07 -5.34622e-08 1.12903e-07)
(-3.15114e-07 9.11045e-10 -2.58465e-09 1.33615e-07 -5.1498e-08 1.15689e-07)
(-3.1384e-07 -2.31579e-09 4.26411e-09 1.24586e-07 -5.00959e-08 1.11509e-07)
(-2.03774e-06 -3.4884e-09 5.1875e-09 8.93272e-08 -4.91063e-08 1.00655e-07)
(-2.21392e-06 -4.08549e-09 -4.79967e-09 9.90732e-08 -4.55092e-08 1.35287e-07)
(-2.83347e-07 -3.34715e-09 -2.70397e-09 9.7558e-08 -4.41123e-08 1.37349e-07)
(-2.82042e-07 2.09088e-09 4.07064e-09 8.8936e-08 -4.29098e-08 1.32656e-07)
(-2.16053e-06 3.207e-09 5.27472e-09 7.323e-08 -4.17226e-08 1.21444e-07)
(-2.39287e-06 -2.26821e-08 -4.57862e-09 -1.2972e-07 -2.92442e-08 1.43897e-07)
(-2.00166e-07 -1.38799e-08 -2.62623e-09 -1.76716e-07 -2.82301e-08 1.4569e-07)
(-2.00436e-07 1.26506e-08 3.48385e-09 -1.82571e-07 -2.73884e-08 1.40656e-07)
(-2.34333e-06 2.06231e-08 4.85167e-09 -1.50636e-07 -2.64661e-08 1.28921e-07)
(-2.5122e-06 -3.16213e-08 -4.22675e-09 -2.73422e-06 -8.81493e-09 1.32552e-07)
(-8.72448e-08 -1.65344e-08 -3.18162e-09 -2.68307e-06 -7.46388e-09 1.35111e-07)
(-9.2078e-08 1.54484e-08 2.96468e-09 -2.66417e-06 -7.17966e-09 1.30035e-07)
(-2.48641e-06 2.89003e-08 4.03179e-09 -2.69023e-06 -7.8164e-09 1.17271e-07)
(-1.86103e-06 4.62276e-08 -1.27649e-09 4.29321e-07 -2.14078e-08 1.16808e-08)
(-1.71087e-07 -4.26045e-08 -5.54075e-10 2.34878e-07 -2.01907e-08 1.2567e-08)
(-1.71841e-07 4.29016e-08 1.16942e-09 2.27797e-07 -1.92869e-08 1.1921e-08)
(-1.8214e-06 -4.60021e-08 1.4608e-09 4.10213e-07 -1.8728e-08 9.86308e-09)
(-1.89606e-06 -3.26527e-09 -2.03672e-09 1.08257e-07 -2.5452e-08 3.66385e-08)
(-3.02857e-07 -1.38182e-08 -9.80808e-10 2.07001e-07 -2.36685e-08 3.71396e-08)
(-3.03175e-07 1.19792e-08 2.15206e-09 1.98202e-07 -2.27463e-08 3.54744e-08)
(-1.85243e-06 2.77538e-09 2.43372e-09 8.10228e-08 -2.2684e-08 3.19585e-08)
(-1.9358e-06 -6.74478e-09 -2.19065e-09 1.15541e-07 -2.93048e-08 6.22727e-08)
(-3.23458e-07 -7.625e-09 -1.07444e-09 1.74878e-07 -2.77073e-08 6.19067e-08)
(-3.23238e-07 5.4829e-09 2.36253e-09 1.65783e-07 -2.67873e-08 5.9433e-08)
(-1.88949e-06 6.04761e-09 2.64868e-09 8.79626e-08 -2.64993e-08 5.52365e-08)
(-1.98353e-06 -4.30349e-10 -2.27351e-09 1.16552e-07 -3.19453e-08 8.77737e-08)
(-3.16293e-07 -2.1405e-09 -1.13503e-09 1.44335e-07 -3.05418e-08 8.64984e-08)
(-3.15639e-07 2.47298e-10 2.33839e-09 1.35233e-07 -2.96418e-08 8.33362e-08)
(-1.93479e-06 -2.03597e-10 2.70796e-09 8.91648e-08 -2.91693e-08 7.86563e-08)
(-2.05916e-06 2.80029e-09 -2.40687e-09 1.07075e-07 -3.1377e-08 1.10593e-07)
(-3.05055e-07 7.91491e-10 -1.2336e-09 1.24242e-07 -3.01974e-08 1.08414e-07)
(-3.04011e-07 -2.40212e-09 2.28029e-09 1.15196e-07 -2.93522e-08 1.04645e-07)
(-2.00814e-06 -3.39056e-09 2.78342e-09 8.01195e-08 -2.87527e-08 9.96039e-08)
(-2.1823e-06 -3.9882e-09 -2.49795e-09 9.41439e-08 -2.60499e-08 1.25866e-07)
(-2.72957e-07 -3.23047e-09 -1.29685e-09 9.27871e-08 -2.52465e-08 1.22962e-07)
(-2.71862e-07 1.84562e-09 2.14283e-09 8.4101e-08 -2.4518e-08 1.18683e-07)
(-2.12996e-06 3.06217e-09 2.79672e-09 6.80798e-08 -2.37514e-08 1.13275e-07)
(-2.36043e-06 -2.19172e-08 -2.37981e-09 -1.29999e-07 -1.6392e-08 1.27849e-07)
(-1.90787e-07 -1.33674e-08 -1.28497e-09 -1.75134e-07 -1.58687e-08 1.24689e-07)
(-1.91252e-07 1.20707e-08 1.80258e-09 -1.81088e-07 -1.53579e-08 1.20076e-07)
(-2.31184e-06 1.98346e-08 2.548e-09 -1.51229e-07 -1.46992e-08 1.14116e-07)
(-2.48233e-06 -3.04232e-08 -2.20175e-09 -2.7082e-06 -4.94509e-09 1.13152e-07)
(-7.98345e-08 -1.5879e-08 -1.63443e-09 -2.65366e-06 -4.28318e-09 1.10664e-07)
(-8.48603e-08 1.47365e-08 1.47357e-09 -2.63489e-06 -4.11012e-09 1.06033e-07)
(-2.45717e-06 2.7668e-08 2.0743e-09 -2.66465e-06 -4.33345e-09 9.91533e-08)
(-1.84818e-06 4.54665e-08 -3.84635e-10 4.23336e-07 -7.25707e-09 1.24375e-08)
(-1.69326e-07 -4.30187e-08 -1.51966e-10 2.30254e-07 -6.7982e-09 1.26747e-08)
(-1.70213e-07 4.30971e-08 3.55186e-10 2.23421e-07 -6.50479e-09 1.20811e-08)
(-1.8092e-06 -4.54037e-08 4.45865e-10 4.05123e-07 -6.39122e-09 1.07861e-08)
(-1.88276e-06 -3.4995e-09 -6.06405e-10 1.02712e-07 -8.61592e-09 3.82338e-08)
(-2.99395e-07 -1.40383e-08 -2.64551e-10 2.01309e-07 -7.98053e-09 3.7442e-08)
(-2.99882e-07 1.20221e-08 6.54921e-10 1.92698e-07 -7.67938e-09 3.59033e-08)
(-1.83979e-06 2.93296e-09 7.39412e-10 7.59971e-08 -7.71523e-09 3.39483e-08)
(-1.92221e-06 -6.84191e-09 -6.55181e-10 1.09529e-07 -9.8575e-09 6.40191e-08)
(-3.19272e-07 -7.73898e-09 -2.89854e-10 1.68657e-07 -9.29601e-09 6.20394e-08)
(-3.192e-07 5.44378e-09 7.23044e-10 1.59663e-07 -8.99331e-09 5.9737e-08)
(-1.87654e-06 6.08944e-09 8.09902e-10 8.22212e-08 -8.93644e-09 5.7519e-08)
(-1.96969e-06 -5.1719e-10 -6.84357e-10 1.10883e-07 -1.06267e-08 8.8451e-08)
(-3.11695e-07 -2.22235e-09 -3.09233e-10 1.38509e-07 -1.01472e-08 8.54285e-08)
(-3.11168e-07 1.99931e-10 7.16854e-10 1.29442e-07 -9.84882e-09 8.24611e-08)
(-1.92154e-06 -1.64173e-10 8.32171e-10 8.35841e-08 -9.70744e-09 7.99451e-08)
(-2.04497e-06 2.72935e-09 -7.2491e-10 1.02852e-07 -1.03073e-08 1.08755e-07)
(-3.00112e-07 7.4283e-10 -3.39392e-10 1.19857e-07 -9.91671e-09 1.04819e-07)
(-2.9918e-07 -2.4531e-09 6.95097e-10 1.10805e-07 -9.63492e-09 1.01253e-07)
(-1.99452e-06 -3.3571e-09 8.53542e-10 7.58654e-08 -9.43234e-09 9.84049e-08)
(-2.16771e-06 -3.93466e-09 -7.50322e-10 9.19721e-08 -8.46076e-09 1.20702e-07)
(-2.67911e-07 -3.17575e-09 -3.59263e-10 9.06393e-08 -8.20282e-09 1.16082e-07)
(-2.66918e-07 1.72481e-09 6.46174e-10 8.19238e-08 -7.9591e-09 1.1201e-07)
(-2.11591e-06 2.98423e-09 8.52281e-10 6.58074e-08 -7.691e-09 1.08747e-07)
(-2.34547e-06 -2.15694e-08 -7.12883e-10 -1.30103e-07 -5.28317e-09 1.19808e-07)
(-1.86253e-07 -1.31444e-08 -3.60474e-10 -1.74467e-07 -5.12677e-09 1.14975e-07)
(-1.86813e-07 1.18109e-08 5.34207e-10 -1.80468e-07 -4.95562e-09 1.10571e-07)
(-2.29737e-06 1.94737e-08 7.69803e-10 -1.51482e-07 -4.71471e-09 1.06706e-07)
(-2.46854e-06 -2.98926e-08 -6.55653e-10 -2.69629e-06 -1.59618e-09 1.03662e-07)
(-7.62594e-08 -1.55976e-08 -4.77063e-10 -2.64043e-06 -1.40173e-09 9.94319e-08)
(-8.13787e-08 1.44257e-08 4.18998e-10 -2.62172e-06 -1.34364e-09 9.50218e-08)
(-2.44372e-06 2.71199e-08 6.11566e-10 -2.65297e-06 -1.39024e-09 9.03126e-08)
)
;

boundaryField
{
    interface
    {
        type            calculated;
        value           nonuniform List<symmTensor> 
192
(
(-4.81572e-06 1.21787e-12 3.10165e-11 7.20505e-07 -1.66723e-08 -2.75235e-06)
(-4.62753e-06 -3.75165e-13 4.1811e-11 -5.7606e-09 -4.02569e-08 -2.69762e-06)
(-4.7072e-06 -2.57446e-12 4.2712e-11 6.69125e-08 -3.2779e-08 -2.72956e-06)
(-4.8183e-06 -4.86301e-12 4.20436e-11 1.42979e-07 -2.67626e-08 -2.77979e-06)
(-4.97871e-06 -7.02442e-12 4.04843e-11 2.08193e-07 -2.80928e-08 -2.85785e-06)
(-5.24094e-06 -1.14688e-11 3.85238e-11 2.79438e-07 -4.03749e-08 -2.98326e-06)
(-5.63495e-06 -1.43429e-11 3.44421e-11 9.50131e-08 -6.25358e-08 -3.15417e-06)
(-5.79532e-06 -3.04978e-11 3.09534e-11 -3.17712e-06 -6.49093e-08 -3.17703e-06)
(-4.43897e-06 5.35962e-13 1.63599e-11 5.53108e-07 -1.57912e-07 -1.35319e-07)
(-4.30422e-06 -1.09444e-12 2.28265e-11 1.38305e-07 -8.92151e-08 -1.79334e-07)
(-4.3665e-06 -3.26686e-12 2.31228e-11 1.45877e-07 -7.39281e-08 -1.66433e-07)
(-4.47354e-06 -5.81066e-12 2.24339e-11 1.74514e-07 -7.23128e-08 -1.5075e-07)
(-4.64234e-06 -8.25346e-12 2.11947e-11 2.05425e-07 -7.87145e-08 -1.34937e-07)
(-4.92804e-06 -1.33432e-11 1.96955e-11 2.26147e-07 -9.20912e-08 -1.03056e-07)
(-5.37581e-06 -1.65518e-11 1.70858e-11 -2.51509e-08 -9.89928e-08 -2.698e-08)
(-5.63514e-06 -3.40052e-11 1.48763e-11 -3.15392e-06 -6.2157e-08 9.45841e-08)
(-3.97424e-06 4.58364e-13 1.34574e-11 4.94997e-07 -8.19511e-08 2.9595e-08)
(-3.88533e-06 -1.37622e-12 1.86256e-11 1.58192e-07 -7.77599e-08 2.54778e-08)
(-3.9478e-06 -3.80778e-12 1.88605e-11 1.71053e-07 -8.2149e-08 3.81078e-08)
(-4.04928e-06 -6.71719e-12 1.82926e-11 1.8136e-07 -9.02144e-08 6.42406e-08)
(-4.2112e-06 -9.56484e-12 1.72798e-11 1.81892e-07 -9.86876e-08 9.95167e-08)
(-4.48855e-06 -1.53708e-11 1.60193e-11 1.66295e-07 -1.0214e-07 1.51117e-07)
(-4.92914e-06 -1.91611e-11 1.39733e-11 -9.67684e-08 -8.82704e-08 2.21556e-07)
(-5.24192e-06 -3.81234e-11 1.20904e-11 -2.98212e-06 -3.84199e-08 2.78994e-07)
(-3.69765e-06 2.08773e-13 8.74502e-12 4.72361e-07 -5.71195e-08 1.56041e-08)
(-3.61931e-06 -1.76283e-12 1.23589e-11 1.47234e-07 -6.52179e-08 2.71015e-08)
(-3.68404e-06 -4.32086e-12 1.24806e-11 1.62314e-07 -7.62025e-08 4.34296e-08)
(-3.78387e-06 -7.42915e-12 1.20198e-11 1.66652e-07 -8.74058e-08 7.16558e-08)
(-3.94193e-06 -1.04971e-11 1.12612e-11 1.54026e-07 -9.38837e-08 1.10235e-07)
(-4.2131e-06 -1.66511e-11 1.03358e-11 1.28223e-07 -8.89246e-08 1.56221e-07)
(-4.64582e-06 -2.06886e-11 8.97977e-12 -1.221e-07 -6.58707e-08 1.98409e-07)
(-4.98232e-06 -4.01694e-11 7.74028e-12 -2.85635e-06 -2.23439e-08 2.11913e-07)
(-3.54132e-06 1.32314e-13 6.53285e-12 4.55482e-07 -4.58381e-08 1.04522e-08)
(-3.46667e-06 -1.97789e-12 9.19934e-12 1.32321e-07 -5.41321e-08 2.94906e-08)
(-3.53239e-06 -4.69358e-12 9.29457e-12 1.44117e-07 -6.38848e-08 5.09969e-08)
(-3.63159e-06 -7.98356e-12 8.95194e-12 1.45839e-07 -7.2787e-08 7.92564e-08)
(-3.78764e-06 -1.12534e-11 8.39044e-12 1.31479e-07 -7.57012e-08 1.13243e-07)
(-4.05513e-06 -1.76892e-11 7.692e-12 1.08735e-07 -6.72461e-08 1.46676e-07)
(-4.48227e-06 -2.19617e-11 6.71314e-12 -1.28468e-07 -4.53337e-08 1.67733e-07)
(-4.82968e-06 -4.18706e-11 5.77759e-12 -2.77987e-06 -1.39317e-08 1.63535e-07)
(-3.44993e-06 5.0587e-14 4.20275e-12 4.40564e-07 -3.44568e-08 1.05609e-08)
(-3.37735e-06 -2.15595e-12 5.97492e-12 1.18617e-07 -4.09595e-08 3.35302e-08)
(-3.44334e-06 -4.97393e-12 6.03361e-12 1.2737e-07 -4.77251e-08 5.81214e-08)
(-3.54213e-06 -8.37794e-12 5.79686e-12 1.28224e-07 -5.31162e-08 8.5208e-08)
(-3.697e-06 -1.17734e-11 5.42062e-12 1.16191e-07 -5.34622e-08 1.12903e-07)
(-3.96225e-06 -1.83706e-11 4.95477e-12 9.90732e-08 -4.55092e-08 1.35287e-07)
(-4.38562e-06 -2.27743e-11 4.33184e-12 -1.2972e-07 -2.92442e-08 1.43897e-07)
(-4.73835e-06 -4.29208e-11 3.73536e-12 -2.73422e-06 -8.81493e-09 1.32552e-07)
(-3.39817e-06 1.7875e-14 2.45771e-12 4.29321e-07 -2.14078e-08 1.16808e-08)
(-3.32679e-06 -2.25583e-12 3.49228e-12 1.08257e-07 -2.5452e-08 3.66385e-08)
(-3.39279e-06 -5.14927e-12 3.53006e-12 1.15541e-07 -2.93048e-08 6.22727e-08)
(-3.49129e-06 -8.63093e-12 3.39323e-12 1.16552e-07 -3.19453e-08 8.77737e-08)
(-3.64547e-06 -1.21118e-11 3.17761e-12 1.07075e-07 -3.1377e-08 1.10593e-07)
(-3.90942e-06 -1.88127e-11 2.90447e-12 9.41439e-08 -2.60499e-08 1.25866e-07)
(-4.33046e-06 -2.33056e-11 2.55157e-12 -1.29999e-07 -1.6392e-08 1.27849e-07)
(-4.68581e-06 -4.36081e-11 2.19835e-12 -2.7082e-06 -4.94509e-09 1.13152e-07)
(-3.3746e-06 -3.75197e-15 7.90696e-13 4.23336e-07 -7.25707e-09 1.24375e-08)
(-3.30376e-06 -2.30832e-12 1.13142e-12 1.02712e-07 -8.61592e-09 3.82338e-08)
(-3.36972e-06 -5.23555e-12 1.14374e-12 1.09529e-07 -9.8575e-09 6.40191e-08)
(-3.46806e-06 -8.75139e-12 1.0979e-12 1.10883e-07 -1.06267e-08 8.8451e-08)
(-3.62193e-06 -1.22728e-11 1.028e-12 1.02852e-07 -1.03073e-08 1.08755e-07)
(-3.88527e-06 -1.9018e-11 9.37608e-13 9.19721e-08 -8.46076e-09 1.20702e-07)
(-4.3052e-06 -2.35554e-11 8.26625e-13 -1.30103e-07 -5.28317e-09 1.19808e-07)
(-4.66166e-06 -4.39282e-11 7.09788e-13 -2.69629e-06 -1.59618e-09 1.03662e-07)
(-2.53275e-06 -1.26434e-09 -4.92903e-11 7.20505e-07 -3.99695e-12 -5.19517e-06)
(-2.46621e-06 -1.69223e-08 -6.77464e-11 -5.7606e-09 -3.49871e-12 -5.01245e-06)
(-2.50267e-06 -5.00528e-09 -6.97764e-11 6.69125e-08 -2.12479e-12 -5.09022e-06)
(-2.55844e-06 3.77622e-09 -6.95096e-11 1.42979e-07 -1.78753e-12 -5.19763e-06)
(-2.63944e-06 4.38093e-09 -6.856e-11 2.08193e-07 -1.73561e-12 -5.35469e-06)
(-2.75906e-06 -8.52465e-09 -6.75915e-11 2.79438e-07 -2.21073e-12 -5.61815e-06)
(-2.91099e-06 -3.59401e-08 -6.58939e-11 9.50131e-08 -2.42782e-12 -6.02653e-06)
(-2.91189e-06 -4.8402e-08 -6.67395e-11 -3.17712e-06 -3.50807e-12 -6.2268e-06)
(-7.53243e-08 -7.52562e-08 -3.88103e-11 5.21848e-07 -1.64014e-12 -4.99341e-06)
(-1.12821e-07 -1.70288e-08 -5.57534e-11 1.00834e-07 -1.55603e-12 -4.86006e-06)
(-1.08336e-07 -1.41323e-09 -5.73164e-11 1.18828e-07 -8.01387e-13 -4.92149e-06)
(-1.03207e-07 4.5301e-09 -5.6986e-11 1.66347e-07 -4.47654e-13 -5.02862e-06)
(-9.61373e-08 4.38295e-09 -5.63949e-11 2.26226e-07 -1.94375e-13 -5.20077e-06)
(-5.62516e-08 -5.10322e-09 -5.59693e-11 2.74859e-07 -1.58664e-13 -5.49611e-06)
(5.52737e-08 -2.17699e-08 -5.54308e-11 2.56633e-08 -1.24119e-13 -5.96304e-06)
(2.06945e-07 -2.55457e-08 -5.73261e-11 -3.23484e-06 -4.08514e-13 -6.22962e-06)
(-7.74867e-08 9.98111e-08 -4.1015e-11 5.12892e-07 -8.01457e-13 -4.9566e-06)
(-1.15749e-07 3.42662e-08 -5.8701e-11 8.95723e-08 -6.04613e-13 -4.81953e-06)
(-1.11488e-07 1.40481e-08 -6.04768e-11 1.0788e-07 2.29251e-14 -4.87974e-06)
(-1.06515e-07 4.73671e-09 -6.01199e-11 1.56222e-07 5.45247e-13 -4.98657e-06)
(-9.94877e-08 2.12084e-09 -5.93601e-11 2.16614e-07 1.03662e-12 -5.15869e-06)
(-5.98173e-08 9.1596e-09 -5.85945e-11 2.65574e-07 1.50711e-12 -5.45415e-06)
(5.01772e-08 2.33126e-08 -5.75401e-11 1.8612e-08 1.87655e-12 -5.92166e-06)
(1.97931e-07 2.49339e-08 -5.87655e-11 -3.2196e-06 2.01621e-12 -6.19406e-06)
(-2.50661e-06 1.15654e-08 -4.76359e-11 6.86594e-07 -4.11382e-13 -5.09731e-06)
(-2.43916e-06 2.42402e-08 -6.7576e-11 -4.03049e-08 -2.68447e-14 -4.90836e-06)
(-2.47508e-06 1.03295e-08 -6.96669e-11 3.55857e-08 6.38251e-13 -4.98381e-06)
(-2.53033e-06 1.27812e-10 -6.92611e-11 1.14334e-07 1.31313e-12 -5.09044e-06)
(-2.611e-06 -1.66381e-09 -6.8172e-11 1.81117e-07 1.94763e-12 -5.2472e-06)
(-2.73171e-06 9.87005e-09 -6.69995e-11 2.53112e-07 2.7171e-12 -5.51042e-06)
(-2.89073e-06 3.5255e-08 -6.4882e-11 7.27389e-08 3.30605e-12 -5.9187e-06)
(-2.9187e-06 4.63303e-08 -6.57003e-11 -3.13813e-06 4.17094e-12 -6.1303e-06)
(-4.75912e-06 4.24811e-12 2.51195e-11 6.86594e-07 -7.58878e-09 -2.70532e-06)
(-4.56756e-06 1.88045e-12 3.50426e-11 -4.03049e-08 -3.46473e-08 -2.64963e-06)
(-4.64571e-06 -1.94297e-12 3.57498e-11 3.55857e-08 -2.8812e-08 -2.68152e-06)
(-4.75547e-06 -4.85805e-12 3.52258e-11 1.14334e-07 -2.36183e-08 -2.73197e-06)
(-4.91515e-06 -7.22527e-12 3.41494e-11 1.81117e-07 -2.53971e-08 -2.81017e-06)
(-5.1791e-06 -1.14196e-11 3.32901e-11 2.53112e-07 -3.78511e-08 -2.93564e-06)
(-5.58424e-06 -1.26526e-11 3.06838e-11 7.27389e-08 -5.99145e-08 -3.10706e-06)
(-5.79091e-06 -3.00283e-11 3.07121e-11 -3.13813e-06 -6.2668e-08 -3.13755e-06)
(-4.34606e-06 1.07921e-12 9.25194e-12 5.15799e-07 -1.41108e-07 -1.40088e-07)
(-4.20797e-06 -5.9505e-13 1.45968e-11 1.0393e-07 -7.74167e-08 -1.89464e-07)
(-4.26778e-06 -3.05614e-12 1.46238e-11 1.15905e-07 -6.4906e-08 -1.79475e-07)
(-4.37202e-06 -5.54495e-12 1.41202e-11 1.47008e-07 -6.48498e-08 -1.65392e-07)
(-4.53808e-06 -7.54543e-12 1.35365e-11 1.79233e-07 -7.21756e-08 -1.505e-07)
(-4.82265e-06 -1.1765e-11 1.33297e-11 2.00997e-07 -8.6194e-08 -1.19342e-07)
(-5.27802e-06 -1.16714e-11 1.24263e-11 -4.48739e-08 -9.40454e-08 -4.45696e-08)
(-5.58451e-06 -3.00177e-11 1.34268e-11 -3.10762e-06 -5.97034e-08 7.41855e-08)
(-3.87988e-06 4.45976e-13 1.00155e-11 4.61962e-07 -6.79947e-08 2.46716e-08)
(-3.78564e-06 -1.32061e-12 1.49252e-11 1.24657e-07 -6.58691e-08 1.45724e-08)
(-3.84493e-06 -3.62696e-12 1.51826e-11 1.41248e-07 -7.20726e-08 2.35895e-08)
(-3.94314e-06 -6.2102e-12 1.4796e-11 1.53864e-07 -8.14527e-08 4.75188e-08)
(-4.10178e-06 -8.28864e-12 1.42072e-11 1.55776e-07 -9.09277e-08 8.13125e-08)
(-4.37715e-06 -1.28535e-11 1.371e-11 1.41503e-07 -9.53513e-08 1.31646e-07)
(-4.8238e-06 -1.25592e-11 1.26204e-11 -1.16059e-07 -8.30242e-08 2.00706e-07)
(-5.18037e-06 -3.26291e-11 1.23244e-11 -2.93593e-06 -3.63824e-08 2.56946e-07)
(-3.60758e-06 6.49199e-14 6.58167e-12 4.44365e-07 -4.68116e-08 1.20222e-08)