/*--------------------------------*- C++ -*----------------------------------*\
| =========                 |                                                 |
| \\      /  F ield         | OpenFOAM: The Open Source CFD Toolbox           |
|  \\    /   O peration     | Version:  v1912                                 |
|   \\  /    A nd           | Website:  www.openfoam.com                      |
|    \\/     M anipulation  |                                                 |
\*---------------------------------------------------------------------------*/
FoamFile
{
    version     2.0;
    format      ascii;
    class       volScalarField;
    location    "0.17/solid";
    object      epsilonEq;
}
// * * * * * * * * * * * * * * * * * * * * * * * * * * * * * * * * * * * * * //

dimensions      [0 0 0 0 0 0 0];


internalField   nonuniform List<scalar> 
256
(
2.24587e-06
1.96805e-06
1.95302e-06
2.19824e-06
1.72385e-06
1.77594e-06
1.75786e-06
1.67496e-06
1.79434e-06
1.79871e-06
1.78024e-06
1.74742e-06
1.87977e-06
1.85177e-06
1.83351e-06
1.8346e-06
1.976e-06
1.93656e-06
1.91852e-06
1.93187e-06
2.1055e-06
2.06509e-06
2.04724e-06
2.06223e-06
2.09216e-06
2.1487e-06
2.13171e-06
2.05378e-06
2.07762e-07
2.29608e-06
2.27976e-06
1.79673e-07
1.78199e-06
3.96196e-07
3.8967e-07
1.73162e-06
1.57735e-06
3.34667e-07
3.27014e-07
1.52771e-06
1.60219e-06
2.95611e-07
2.88814e-07
1.55307e-06
1.65267e-06
2.86098e-07
2.79934e-07
1.60328e-06
1.72704e-06
2.99251e-07
2.93429e-07
1.67701e-06
1.83473e-06
2.86459e-07
2.81125e-07
1.78463e-06
1.89101e-06
1.19001e-07
1.16894e-07
1.84616e-06
2.09186e-06
2.14889e-06
2.1324e-06
2.05506e-06
1.64186e-06
2.99001e-07
2.92201e-07
1.594e-06
1.52343e-06
3.44022e-07
3.35838e-07
1.47285e-06
1.55498e-06
3.35986e-07
3.28311e-07
1.50362e-06
1.60033e-06
3.27169e-07
3.19799e-07
1.54806e-06
1.66733e-06
3.29908e-07
3.22609e-07
1.61397e-06
1.7672e-06
3.12766e-07
3.05799e-07
1.71341e-06
1.83483e-06
2.82624e-07
2.78796e-07
1.78581e-06
2.10498e-06
2.06528e-06
2.04837e-06
2.06526e-06
1.53569e-06
2.76746e-07
2.70903e-07
1.49245e-06
1.43319e-06
3.45916e-07
3.38828e-07
1.38567e-06
1.47011e-06
3.50228e-07
3.43251e-07
1.42093e-06
1.51374e-06
3.42318e-07
3.35462e-07
1.46318e-06
1.5751e-06
3.4046e-07
3.33635e-07
1.52322e-06
1.66687e-06
3.20379e-07
3.13943e-07
1.61443e-06
1.72775e-06
2.87742e-07
2.84478e-07
1.67991e-06
1.97839e-06
1.93804e-06
1.9215e-06
1.94045e-06
1.47243e-06
2.61716e-07
2.56827e-07
1.43311e-06
1.37365e-06
3.30267e-07
3.24283e-07
1.32934e-06
1.41187e-06
3.36116e-07
3.30027e-07
1.3654e-06
1.45427e-06
3.27243e-07
3.21155e-07
1.40606e-06
1.51219e-06
3.21765e-07
3.15661e-07
1.46245e-06
1.59907e-06
2.97664e-07
2.91918e-07
1.54861e-06
1.65513e-06
2.56161e-07
2.53762e-07
1.60912e-06
1.89452e-06
1.85705e-06
1.84088e-06
1.85867e-06
1.43315e-06
2.49641e-07
2.45474e-07
1.39669e-06
1.33589e-06
3.13523e-07
3.08367e-07
1.29409e-06
1.37376e-06
3.17442e-07
3.12078e-07
1.32953e-06
1.41504e-06
3.06993e-07
3.01561e-07
1.36882e-06
1.47092e-06
2.99343e-07
2.93829e-07
1.42298e-06
1.55511e-06
2.73026e-07
2.67783e-07
1.50629e-06
1.60833e-06
2.26123e-07
2.24436e-07
1.56382e-06
1.84204e-06
1.80936e-06
1.79347e-06
1.8079e-06
1.40971e-06
2.40969e-07
2.37284e-07
1.37508e-06
1.31332e-06
3.01448e-07
2.96848e-07
1.2732e-06
1.3506e-06
3.03524e-07
2.98667e-07
1.30791e-06
1.39105e-06
2.91889e-07
2.86924e-07
1.34624e-06
1.44579e-06
2.83231e-07
2.78121e-07
1.39912e-06
1.52862e-06
2.56181e-07
2.51258e-07
1.48092e-06
1.58025e-06
2.06697e-07
2.055e-07
1.53678e-06
1.81067e-06
1.78288e-06
1.76718e-06
1.77772e-06
1.39867e-06
2.36414e-07
2.32972e-07
1.36493e-06
1.30273e-06
2.95364e-07
2.9105e-07
1.26345e-06
1.33965e-06
2.96542e-07
2.91949e-07
1.29774e-06
1.37968e-06
2.84354e-07
2.79632e-07
1.33558e-06
1.43391e-06
2.75343e-07
2.70441e-07
1.38788e-06
1.51616e-06
2.48158e-07
2.43394e-07
1.46903e-06
1.56709e-06
1.97681e-07
1.96733e-07
1.52414e-06
1.79587e-06
1.77101e-06
1.7554e-06
1.76353e-06
)
;

boundaryField
{
    interface
    {
        type            calculated;
        value           nonuniform List<scalar> 
192
(
3.23075e-06
2.68084e-06
2.77007e-06
2.87969e-06
3.01136e-06
3.20509e-06
3.31888e-06
1.74711e-06
3.12928e-06
2.86354e-06
2.91099e-06
2.99733e-06
3.12589e-06
3.33351e-06
3.56833e-06
3.3187e-06
2.83868e-06
2.65407e-06
2.70434e-06
2.78416e-06
2.9039e-06
3.10043e-06
3.33432e-06
3.20523e-06
2.64178e-06
2.47311e-06
2.52707e-06
2.60455e-06
2.71832e-06
2.90541e-06
3.12905e-06
3.01541e-06
2.52983e-06
2.36662e-06
2.42169e-06
2.49781e-06
2.60815e-06
2.78972e-06
3.00659e-06
2.89823e-06
2.46319e-06
2.30329e-06
2.35837e-06
2.43347e-06
2.54178e-06
2.72021e-06
2.93292e-06
2.8269e-06
2.42459e-06
2.26673e-06
2.32158e-06
2.39598e-06
2.50314e-06
2.67985e-06
2.89015e-06
2.78493e-06
2.40672e-06
2.24982e-06
2.3045e-06
2.37855e-06
2.48518e-06
2.66114e-06
2.87034e-06
2.76529e-06
3.42109e-06
2.89082e-06
2.97748e-06
3.08348e-06
3.21204e-06
3.40551e-06
3.53471e-06
2.12779e-06
3.49591e-06
3.23845e-06
3.28711e-06
3.37705e-06
3.51548e-06
3.74183e-06
4.00245e-06
3.71926e-06
3.46825e-06
3.20673e-06
3.25446e-06
3.34439e-06
3.48295e-06
3.70946e-06
3.97084e-06
3.69348e-06
3.3454e-06
2.81081e-06
2.89797e-06
3.00511e-06
3.13447e-06
3.3283e-06
3.45947e-06
2.07249e-06
3.17558e-06
2.62426e-06
2.71458e-06
2.82506e-06
2.95727e-06
3.15238e-06
3.27517e-06
1.7702e-06
3.0506e-06
2.7834e-06
2.83013e-06
2.9151e-06
3.04207e-06
3.24912e-06
3.49056e-06
3.27621e-06
2.76149e-06
2.57208e-06
2.62044e-06
2.69822e-06
2.81583e-06
3.01117e-06
3.25064e-06
3.15539e-06
2.56991e-06
2.39477e-06
2.44596e-06
2.52092e-06
2.63229e-06
2.81796e-06
3.04671e-06
2.96632e-06
2.46264e-06
2.29213e-06
2.34391e-06
2.41716e-06
2.5249e-06
2.70487e-06
2.92654e-06
2.85108e-06
2.39943e-06
2.2318e-06
2.28333e-06
2.35533e-06
2.46086e-06
2.63753e-06
2.85482e-06
2.78153e-06
2.36307e-06
2.19726e-06
2.24844e-06
2.3196e-06
2.42385e-06
2.59869e-06
2.81342e-06
2.74085e-06
2.34629e-06
2.18136e-06
2.23232e-06
2.30308e-06
2.40674e-06
2.58076e-06
2.79431e-06
2.7219e-06
2.12799e-06
3.53456e-06
3.40543e-06
3.21551e-06
3.10101e-06
3.03238e-06
2.99229e-06
2.97358e-06
3.71943e-06
4.00274e-06
3.74271e-06
3.5191e-06
3.38822e-06
3.31264e-06
3.27056e-06
3.25158e-06
3.69369e-06
3.97151e-06
3.71107e-06
3.48775e-06
3.35718e-06
3.28187e-06
3.23998e-06
3.2211e-06
2.07286e-06
3.46057e-06
3.33118e-06
3.14314e-06
3.0304e-06
2.96323e-06
2.92416e-06
2.90596e-06
)
;
    }
    symmetry
    {
        type            symmetry;
    }
    bottom
    {
        type            calculated;
        value           nonuniform List<scalar> 
32
(
2.75168e-06
1.98755e-06
1.80592e-06
1.69735e-06
1.63252e-06
1.59143e-06
1.56672e-06
1.55507e-06
2.1642e-06
4.63088e-07
3.16645e-07
2.8626e-07
2.71269e-07
2.60212e-07
2.52388e-07
2.48272e-07
2.15064e-06
4.55866e-07
3.09336e-07
2.80294e-07
2.66418e-07
2.56142e-07
2.4883e-07
2.44974e-07
2.70605e-06
1.93602e-06
1.75892e-06
1.6565e-06
1.5965e-06
1.5588e-06
1.53622e-06
1.5256e-06
)
;
    }
}


// ************************************************************************* //
