/*--------------------------------*- C++ -*----------------------------------*\
| =========                 |                                                 |
| \\      /  F ield         | OpenFOAM: The Open Source CFD Toolbox           |
|  \\    /   O peration     | Version:  v1912                                 |
|   \\  /    A nd           | Website:  www.openfoam.com                      |
|    \\/     M anipulation  |                                                 |
\*---------------------------------------------------------------------------*/
FoamFile
{
    version     2.0;
    format      ascii;
    class       pointVectorField;
    location    "0.17/solid";
    object      pointD;
}
// * * * * * * * * * * * * * * * * * * * * * * * * * * * * * * * * * * * * * //

dimensions      [0 1 0 0 0 0 0];


internalField   nonuniform List<vector> 
405
(
(2.36161e-08 1.41765e-08 2.51914e-08)
(1.1779e-09 8.88729e-09 3.46e-08)
(2.22029e-10 7.38191e-09 3.41578e-08)
(-7.63637e-10 8.92519e-09 3.43658e-08)
(-2.29268e-08 1.38524e-08 2.52209e-08)
(3.59941e-08 1.93616e-08 3.70878e-08)
(3.2035e-09 1.63595e-08 6.80411e-08)
(8.93482e-10 1.39877e-08 6.74353e-08)
(-1.48966e-09 1.60912e-08 6.7801e-08)
(-3.4139e-08 1.83425e-08 3.756e-08)
(3.71652e-08 1.74029e-08 3.48112e-08)
(4.44931e-09 1.51957e-08 6.54583e-08)
(1.84967e-09 1.38505e-08 6.50914e-08)
(-8.40935e-10 1.42734e-08 6.56136e-08)
(-3.35223e-08 1.53717e-08 3.60126e-08)
(3.86171e-08 1.86851e-08 3.13149e-08)
(5.36518e-09 1.68904e-08 6.25049e-08)
(2.93522e-09 1.60673e-08 6.21636e-08)
(4.07832e-10 1.53877e-08 6.29531e-08)
(-3.28823e-08 1.57467e-08 3.30406e-08)
(4.05532e-08 2.20924e-08 2.7433e-08)
(6.48794e-09 2.05351e-08 5.96661e-08)
(4.16834e-09 1.99249e-08 5.95612e-08)
(1.7487e-09 1.8517e-08 6.03396e-08)
(-3.24081e-08 1.83316e-08 2.95569e-08)
(4.25595e-08 2.6878e-08 2.35557e-08)
(7.37509e-09 2.56809e-08 5.74947e-08)
(5.55441e-09 2.51933e-08 5.78086e-08)
(3.63036e-09 2.31869e-08 5.83509e-08)
(-3.16979e-08 2.23496e-08 2.59999e-08)
(4.3562e-08 3.32912e-08 1.97754e-08)
(7.09893e-09 3.23744e-08 5.63007e-08)
(7.09851e-09 3.16713e-08 5.71597e-08)
(6.97171e-09 2.94251e-08 5.73184e-08)
(-2.97373e-08 2.80322e-08 2.24955e-08)
(4.21037e-08 3.60461e-08 1.57724e-08)
(5.48865e-09 3.4713e-08 5.46075e-08)
(8.79564e-09 3.29901e-08 5.59801e-08)
(1.19058e-08 3.13714e-08 5.58242e-08)
(-2.52388e-08 3.01579e-08 1.87716e-08)
(2.86175e-08 9.48732e-09 6.18035e-10)
(4.61249e-09 -5.0365e-09 1.45524e-08)
(9.85232e-09 -7.41811e-09 1.62486e-08)
(1.48498e-08 -8.14847e-09 1.62977e-08)
(-9.84394e-09 4.0046e-09 3.79962e-09)
(3.22168e-08 9.65829e-09 9.50005e-10)
(0 0 0)
(0 0 0)
(0 0 0)
(-3.14992e-08 9.1544e-09 1.27565e-09)
(6.5005e-08 1.84523e-08 1.49273e-09)
(4.09526e-09 1.34071e-08 5.89363e-10)
(5.96356e-10 1.07686e-08 8.9746e-10)
(-2.92307e-09 1.28365e-08 1.18413e-09)
(-6.28979e-08 1.69021e-08 2.60828e-09)
(6.63955e-08 1.82707e-08 -6.29611e-10)
(5.59431e-09 1.63902e-08 -1.88005e-09)
(1.3461e-09 1.49362e-08 -1.49379e-09)
(-2.92829e-09 1.52472e-08 -8.72645e-10)
(-6.27668e-08 1.56812e-08 1.28221e-09)
(6.83392e-08 2.06897e-08 -4.57534e-09)
(6.44563e-09 1.97172e-08 -5.80694e-09)
(2.28081e-09 1.87976e-08 -5.33995e-09)
(-1.91363e-09 1.80583e-08 -4.50632e-09)
(-6.28226e-08 1.71479e-08 -2.08282e-09)
(7.10423e-08 2.46223e-08 -9.26178e-09)
(7.41858e-09 2.39821e-08 -1.03289e-08)
(3.39774e-09 2.32361e-08 -9.70598e-09)
(-6.53588e-10 2.18496e-08 -8.80624e-09)
(-6.32698e-08 2.01987e-08 -6.3235e-09)
(7.44572e-08 2.93089e-08 -1.43614e-08)
(8.18511e-09 2.93767e-08 -1.52619e-08)
(4.69018e-09 2.87379e-08 -1.44398e-08)
(1.16298e-09 2.67941e-08 -1.35592e-08)
(-6.40944e-08 2.40557e-08 -1.10616e-08)
(7.7858e-08 3.47076e-08 -1.96931e-08)
(7.87747e-09 3.56419e-08 -2.05226e-08)
(6.15511e-09 3.48362e-08 -1.95229e-08)
(4.37881e-09 3.26252e-08 -1.86667e-08)
(-6.4669e-08 2.86772e-08 -1.60876e-08)
(7.8789e-08 3.54432e-08 -2.41337e-08)
(6.34914e-09 3.5639e-08 -2.50542e-08)
(7.78453e-09 3.38769e-08 -2.39851e-08)
(9.09436e-09 3.22796e-08 -2.3078e-08)
(-6.2835e-08 2.87776e-08 -2.02822e-08)
(4.26612e-08 -4.64928e-09 -2.59981e-08)
(6.21833e-09 -4.40253e-08 -2.55543e-08)
(9.5121e-09 -4.60998e-08 -2.45042e-08)
(1.26157e-08 -4.66377e-08 -2.35597e-08)
(-2.47065e-08 -1.01068e-08 -2.25201e-08)
(3.04913e-08 8.29347e-09 -8.29309e-10)
(0 0 0)
(0 0 0)
(0 0 0)
(-2.97411e-08 7.88019e-09 -5.79245e-10)
(6.25801e-08 1.64618e-08 -2.62341e-09)
(5.7386e-09 1.05456e-08 -3.85906e-09)
(3.72405e-10 7.85442e-09 -4.08426e-09)
(-4.96287e-09 9.97051e-09 -3.37545e-09)
(-6.0576e-08 1.509e-08 -1.74847e-09)
(6.50163e-08 1.76975e-08 -5.1253e-09)
(7.72655e-09 1.55587e-08 -6.79597e-09)
(9.48463e-10 1.40335e-08 -7.03645e-09)
(-5.79311e-09 1.44183e-08 -5.9663e-09)
(-6.1804e-08 1.52809e-08 -3.59127e-09)
(6.68722e-08 2.11937e-08 -8.69169e-09)
(8.54122e-09 2.02267e-08 -1.03638e-08)
(1.74347e-09 1.92807e-08 -1.05313e-08)
(-5.01785e-09 1.85854e-08 -9.27853e-09)
(-6.20335e-08 1.7818e-08 -6.64969e-09)
(6.94405e-08 2.5614e-08 -1.29808e-08)
(9.40446e-09 2.49887e-08 -1.4536e-08)
(2.74666e-09 2.42385e-08 -1.4597e-08)
(-3.87266e-09 2.28859e-08 -1.325e-08)
(-6.25535e-08 2.13481e-08 -1.05319e-08)
(7.29355e-08 3.00523e-08 -1.74895e-08)
(1.0157e-08 3.00527e-08 -1.89634e-08)
(3.94606e-09 2.94121e-08 -1.89196e-08)
(-2.2258e-09 2.751e-08 -1.75115e-08)
(-6.362e-08 2.49515e-08 -1.47034e-08)
(7.67411e-08 3.4112e-08 -2.14741e-08)
(9.96486e-09 3.49081e-08 -2.29725e-08)
(5.33445e-09 3.41103e-08 -2.28545e-08)
(7.21741e-10 3.19463e-08 -2.13856e-08)
(-6.47245e-08 2.82415e-08 -1.8411e-08)
(7.86234e-08 3.24482e-08 -2.34281e-08)
(8.63196e-09 3.2538e-08 -2.50705e-08)
(6.90119e-09 3.08243e-08 -2.49318e-08)
(5.11188e-09 2.92625e-08 -2.34008e-08)
(-6.39527e-08 2.59707e-08 -2.01743e-08)
(4.48916e-08 -7.19109e-09 -2.3267e-08)
(8.59972e-09 -4.42767e-08 -2.32422e-08)
(8.57498e-09 -4.58648e-08 -2.31842e-08)
(8.4225e-09 -4.67343e-08 -2.15999e-08)
(-2.84814e-08 -1.24369e-08 -2.03766e-08)
(2.84706e-08 8.05884e-09 -6.9994e-10)
(0 0 0)
(0 0 0)
(0 0 0)
(-2.78002e-08 7.75896e-09 -5.19792e-10)
(5.91473e-08 1.58421e-08 -2.57695e-09)
(6.48179e-09 9.53114e-09 -3.15852e-09)
(2.34838e-10 6.84556e-09 -3.40385e-09)
(-5.98037e-09 9.02494e-09 -2.8061e-09)
(-5.74249e-08 1.47185e-08 -1.9368e-09)
(6.23019e-08 1.69444e-08 -5.14189e-09)
(8.80158e-09 1.46305e-08 -5.96851e-09)
(6.78082e-10 1.30915e-08 -6.22895e-09)
(-7.40214e-09 1.35815e-08 -5.35033e-09)
(-5.96117e-08 1.47984e-08 -3.99723e-09)
(6.4187e-08 2.04794e-08 -8.22373e-09)
(9.61279e-09 1.95358e-08 -9.04675e-09)
(1.35392e-09 1.86105e-08 -9.24137e-09)
(-6.85774e-09 1.79922e-08 -8.22163e-09)
(-6.00943e-08 1.73677e-08 -6.66688e-09)
(6.65669e-08 2.47658e-08 -1.17486e-08)
(1.03587e-08 2.42216e-08 -1.24645e-08)
(2.25468e-09 2.35157e-08 -1.25736e-08)
(-5.79752e-09 2.22171e-08 -1.14695e-08)
(-6.06208e-08 2.07469e-08 -9.84465e-09)
(6.98843e-08 2.8607e-08 -1.5213e-08)
(1.10263e-08 2.86423e-08 -1.58273e-08)
(3.36805e-09 2.80463e-08 -1.5859e-08)
(-4.2362e-09 2.61979e-08 -1.46895e-08)
(-6.16727e-08 2.37364e-08 -1.30151e-08)
(7.36469e-08 3.15302e-08 -1.77334e-08)
(1.08583e-08 3.22815e-08 -1.83287e-08)
(4.68494e-09 3.1538e-08 -1.83102e-08)
(-1.45536e-09 2.94204e-08 -1.70787e-08)
(-6.28656e-08 2.58793e-08 -1.52983e-08)
(7.59748e-08 2.86686e-08 -1.81354e-08)
(9.6739e-09 2.8789e-08 -1.88407e-08)
(6.19202e-09 2.72205e-08 -1.88202e-08)
(2.66588e-09 2.56153e-08 -1.75303e-08)
(-6.26349e-08 2.24012e-08 -1.55489e-08)
(4.46659e-08 -9.40679e-09 -1.69204e-08)
(9.6518e-09 -4.39482e-08 -1.66157e-08)
(7.81332e-09 -4.50312e-08 -1.67212e-08)
(5.85987e-09 -4.63077e-08 -1.53395e-08)
(-2.96889e-08 -1.44798e-08 -1.46465e-08)
(2.70594e-08 7.88335e-09 -6.11744e-10)
(0 0 0)
(0 0 0)
(0 0 0)
(-2.64675e-08 7.67279e-09 -4.85691e-10)
(5.64421e-08 1.53649e-08 -2.38477e-09)
(6.48907e-09 9.06645e-09 -2.4519e-09)
(1.52029e-10 6.4238e-09 -2.55083e-09)
(-6.16941e-09 8.63107e-09 -2.20195e-09)
(-5.49656e-08 1.44517e-08 -1.93256e-09)
(5.97625e-08 1.61539e-08 -4.76085e-09)
(8.86115e-09 1.38209e-08 -4.85579e-09)
(5.00645e-10 1.2312e-08 -4.92982e-09)
(-7.83131e-09 1.28747e-08 -4.41118e-09)
(-5.74974e-08 1.42604e-08 -3.94108e-09)
(6.16467e-08 1.92937e-08 -7.31223e-09)
(9.64071e-09 1.84014e-08 -7.36677e-09)
(1.08272e-09 1.75214e-08 -7.37703e-09)
(-7.43921e-09 1.69704e-08 -6.76427e-09)
(-5.81551e-08 1.64426e-08 -6.17817e-09)
(6.38784e-08 2.31024e-08 -9.99445e-09)
(1.02788e-08 2.26554e-08 -9.95406e-09)
(1.89805e-09 2.20076e-08 -9.89227e-09)
(-6.43984e-09 2.07631e-08 -9.21693e-09)
(-5.86971e-08 1.93336e-08 -8.5841e-09)
(6.70078e-08 2.6336e-08 -1.24054e-08)
(1.08353e-08 2.64453e-08 -1.22648e-08)
(2.9371e-09 2.59065e-08 -1.21375e-08)
(-4.91477e-09 2.41094e-08 -1.14125e-08)
(-5.97049e-08 2.16982e-08 -1.07554e-08)
(7.06649e-08 2.86103e-08 -1.38465e-08)
(1.06352e-08 2.93768e-08 -1.36652e-08)
(4.19083e-09 2.87015e-08 -1.34946e-08)
(-2.22746e-09 2.66191e-08 -1.27233e-08)
(-6.0912e-08 2.31736e-08 -1.20031e-08)
(7.32025e-08 2.5366e-08 -1.35963e-08)
(9.52826e-09 2.55752e-08 -1.34813e-08)
(5.64432e-09 2.41604e-08 -1.33127e-08)
(1.70923e-09 2.2496e-08 -1.24939e-08)
(-6.09805e-08 1.92913e-08 -1.1632e-08)
(4.33597e-08 -1.15018e-08 -1.21531e-08)
(9.46569e-09 -4.44099e-08 -1.15189e-08)
(7.21882e-09 -4.51172e-08 -1.14635e-08)
(4.84922e-09 -4.66864e-08 -1.05635e-08)
(-2.95618e-08 -1.64232e-08 -1.04351e-08)
(2.61536e-08 7.67597e-09 -4.92359e-10)
(0 0 0)
(0 0 0)
(0 0 0)
(-2.56183e-08 7.52722e-09 -4.08204e-10)
(5.4569e-08 1.48564e-08 -1.9488e-09)
(6.26674e-09 8.71344e-09 -1.8382e-09)
(1.01444e-10 6.12662e-09 -1.84334e-09)
(-6.06315e-09 8.3334e-09 -1.66813e-09)
(-5.32668e-08 1.4096e-08 -1.64459e-09)
(5.78099e-08 1.53579e-08 -3.87853e-09)
(8.54939e-09 1.30952e-08 -3.6972e-09)
(3.85864e-10 1.16352e-08 -3.65463e-09)
(-7.76419e-09 1.22338e-08 -3.39192e-09)
(-5.58441e-08 1.36605e-08 -3.32113e-09)
(5.9633e-08 1.80608e-08 -5.82558e-09)
(9.26422e-09 1.72378e-08 -5.58079e-09)
(8.9944e-10 1.6409e-08 -5.48045e-09)
(-7.44184e-09 1.59034e-08 -5.16261e-09)
(-5.65702e-08 1.54222e-08 -5.04417e-09)
(6.17495e-08 2.13763e-08 -7.71822e-09)
(9.81307e-09 2.10142e-08 -7.39604e-09)
(1.64892e-09 2.04211e-08 -7.23853e-09)
(-6.48312e-09 1.922e-08 -6.87885e-09)
(-5.71234e-08 1.78178e-08 -6.73326e-09)
(6.47374e-08 2.41519e-08 -9.27036e-09)
(1.02772e-08 2.43293e-08 -8.87139e-09)
(2.62849e-09 2.38427e-08 -8.66295e-09)
(-4.9837e-09 2.20878e-08 -8.26804e-09)
(-5.81052e-08 1.97119e-08 -8.10476e-09)
(6.83046e-08 2.61091e-08 -1.00295e-08)
(1.00375e-08 2.69049e-08 -9.59473e-09)
(3.8304e-09 2.62893e-08 -9.3525e-09)
(-2.35972e-09 2.42355e-08 -8.92414e-09)
(-5.93219e-08 2.08532e-08 -8.71665e-09)
(7.09395e-08 2.27782e-08 -9.59403e-09)
(8.96489e-09 2.30678e-08 -9.19675e-09)
(5.23923e-09 2.177e-08 -8.95595e-09)
(1.45362e-09 2.00677e-08 -8.49295e-09)
(-5.95654e-08 1.68646e-08 -8.18944e-09)
(4.19395e-08 -1.33237e-08 -8.33926e-09)
(8.85687e-09 -4.52633e-08 -7.64474e-09)
(6.77463e-09 -4.57286e-08 -7.48283e-09)
(4.56015e-09 -4.7472e-08 -6.96765e-09)
(-2.90356e-08 -1.81191e-08 -7.11419e-09)
(2.56027e-08 7.50438e-09 -3.42063e-10)
(0 0 0)
(0 0 0)
(0 0 0)
(-2.51042e-08 7.39497e-09 -2.90754e-10)
(5.33868e-08 1.44223e-08 -1.35539e-09)
(6.06559e-09 8.42618e-09 -1.24259e-09)
(7.14302e-11 5.88713e-09 -1.22002e-09)
(-5.93222e-09 8.08407e-09 -1.1371e-09)
(-5.21963e-08 1.37624e-08 -1.16888e-09)
(5.65082e-08 1.46788e-08 -2.68678e-09)
(8.2439e-09 1.2499e-08 -2.49807e-09)
(3.15018e-10 1.10845e-08 -2.43172e-09)
(-7.61098e-09 1.16976e-08 -2.30756e-09)
(-5.4735e-08 1.31162e-08 -2.34236e-09)
(5.82551e-08 1.70379e-08 -3.98568e-09)
(8.89175e-09 1.62796e-08 -3.73993e-09)
(7.82699e-10 1.54943e-08 -3.63025e-09)
(-7.31188e-09 1.50153e-08 -3.47703e-09)
(-5.54721e-08 1.45507e-08 -3.4982e-09)
(6.02869e-08 1.99875e-08 -5.17988e-09)
(9.37409e-09 1.9688e-08 -4.87958e-09)
(1.48615e-09 1.91373e-08 -4.73035e-09)
(-6.37751e-09 1.79664e-08 -4.55191e-09)
(-5.60292e-08 1.65824e-08 -4.55929e-09)
(6.31835e-08 2.24698e-08 -6.0881e-09)
(9.77573e-09 2.2695e-08 -5.73871e-09)
(2.42277e-09 2.22476e-08 -5.55543e-09)
(-4.9007e-09 2.05241e-08 -5.35389e-09)
(-5.7003e-08 1.81762e-08 -5.34722e-09)
(6.66912e-08 2.42736e-08 -6.45317e-09)
(9.50672e-09 2.50923e-08 -6.08083e-09)
(3.58637e-09 2.45187e-08 -5.8753e-09)
(-2.32358e-09 2.24887e-08 -5.65115e-09)
(-5.82339e-08 1.91525e-08 -5.61317e-09)
(6.93734e-08 2.09289e-08 -6.06532e-09)
(8.44941e-09 2.127e-08 -5.71394e-09)
(4.9617e-09 2.00468e-08 -5.50913e-09)
(1.40779e-09 1.83292e-08 -5.26243e-09)
(-5.85844e-08 1.51362e-08 -5.16342e-09)
(4.08629e-08 -1.47178e-08 -5.178e-09)
(8.31007e-09 -4.60997e-08 -4.63996e-09)
(6.46767e-09 -4.64269e-08 -4.48164e-09)
(4.48617e-09 -4.82579e-08 -4.20754e-09)
(-2.85782e-08 -1.94187e-08 -4.39259e-09)
(2.53086e-08 7.39883e-09 -1.74791e-10)
(0 0 0)
(0 0 0)
(0 0 0)
(-2.48306e-08 7.31111e-09 -1.5053e-10)
(5.27475e-08 1.41419e-08 -6.90758e-10)
(5.94731e-09 8.23618e-09 -6.29925e-10)
(5.56526e-11 5.72719e-09 -6.13132e-10)
(-5.85129e-09 7.91597e-09 -5.79492e-10)
(-5.16189e-08 1.35386e-08 -6.02276e-10)
(5.5788e-08 1.42298e-08 -1.36421e-09)
(8.05785e-09 1.21067e-08 -1.26084e-09)
(2.76721e-10 1.07222e-08 -1.21951e-09)
(-7.50762e-09 1.13405e-08 -1.16942e-09)
(-5.41216e-08 1.27452e-08 -1.20005e-09)
(5.74803e-08 1.63756e-08 -2.0098e-09)
(8.6602e-09 1.56605e-08 -1.87461e-09)
(7.1821e-10 1.49034e-08 -1.81041e-09)
(-7.21456e-09 1.44381e-08 -1.74789e-09)
(-5.48543e-08 1.39779e-08 -1.77609e-09)
(5.94603e-08 1.91114e-08 -2.5848e-09)
(9.10184e-09 1.88497e-08 -2.42158e-09)
(1.39462e-09 1.83254e-08 -2.33726e-09)
(-6.29287e-09 1.7172e-08 -2.2629e-09)
(-5.54116e-08 1.57987e-08 -2.28546e-09)
(6.23065e-08 2.1435e-08 -3.00154e-09)
(9.46813e-09 2.16874e-08 -2.81474e-09)
(2.30541e-09 2.12635e-08 -2.71352e-09)
(-4.83191e-09 1.95595e-08 -2.6276e-09)
(-5.63853e-08 1.72305e-08 -2.64219e-09)
(6.57819e-08 2.31658e-08 -3.1448e-09)
(9.18249e-09 2.3997e-08 -2.94729e-09)
(3.44557e-09 2.34476e-08 -2.83524e-09)
(-2.28472e-09 2.14339e-08 -2.73771e-09)
(-5.7629e-08 1.81275e-08 -2.73562e-09)
(6.84871e-08 1.98196e-08 -2.92446e-09)
(8.13227e-09 2.01864e-08 -2.73673e-09)
(4.80019e-09 1.90028e-08 -2.625e-09)
(1.39829e-09 1.72822e-08 -2.51632e-09)
(-5.80399e-08 1.41015e-08 -2.48411e-09)
(4.02368e-08 -1.55863e-08 -2.47106e-09)
(7.97687e-09 -4.66797e-08 -2.18779e-09)
(6.28788e-09 -4.6939e-08 -2.0971e-09)
(4.45582e-09 -4.88067e-08 -1.9773e-09)
(-2.8315e-08 -2.02287e-08 -2.0879e-09)
(1.95611e-08 8.0173e-09 0)
(2.11421e-09 3.09709e-09 0)
(-2.37098e-12 1.51526e-09 0)
(-2.13003e-09 3.04829e-09 0)
(-1.92647e-08 7.92076e-09 0)
(3.16767e-08 1.23148e-08 0)
(5.90977e-09 8.16988e-09 0)
(5.07496e-11 5.67095e-09 0)
(-5.82543e-09 7.8568e-09 0)
(-3.10887e-08 1.17946e-08 0)
(3.47055e-08 1.36126e-08 0)
(7.99797e-09 1.19701e-08 0)
(2.64637e-10 1.0596e-08 0)
(-7.47388e-09 1.12155e-08 0)
(-3.363e-08 1.23214e-08 0)
(3.58654e-08 1.60186e-08 0)
(8.58471e-09 1.54475e-08 0)
(6.97628e-10 1.47e-08 0)
(-7.18196e-09 1.4239e-08 0)
(-3.38725e-08 1.39315e-08 0)
(3.70398e-08 1.87377e-08 0)
(9.01272e-09 1.85649e-08 0)
(1.36513e-09 1.80494e-08 0)
(-6.26421e-09 1.69019e-08 0)
(-3.36659e-08 1.58526e-08 0)
(3.85661e-08 2.11602e-08 0)
(9.3676e-09 2.13487e-08 0)
(2.26732e-09 2.09327e-08 0)
(-4.80891e-09 1.92352e-08 0)
(-3.33564e-08 1.74914e-08 0)
(3.98962e-08 2.31642e-08 0)
(9.07663e-09 2.36314e-08 0)
(3.39959e-09 2.30897e-08 0)
(-2.27204e-09 2.10819e-08 0)
(-3.24645e-08 1.87504e-08 0)
(4.01823e-08 1.98648e-08 0)
(8.02861e-09 1.98242e-08 0)
(4.74721e-09 1.8653e-08 0)
(1.39481e-09 1.69325e-08 0)
(-3.03387e-08 1.48425e-08 0)
(3.02974e-08 -5.26814e-09 0)
(7.6234e-09 -1.59155e-08 0)
(5.85027e-09 -1.68557e-08 0)
(3.94096e-09 -1.84845e-08 0)
(-1.88665e-08 -9.87198e-09 0)
)
;

boundaryField
{
    interface
    {
        type            calculated;
    }
    symmetry
    {
        type            symmetry;
    }
    bottom
    {
        type            calculated;
    }
}


// ************************************************************************* //
