/*--------------------------------*- C++ -*----------------------------------*\
| =========                 |                                                 |
| \\      /  F ield         | OpenFOAM: The Open Source CFD Toolbox           |
|  \\    /   O peration     | Version:  v1912                                 |
|   \\  /    A nd           | Website:  www.openfoam.com                      |
|    \\/     M anipulation  |                                                 |
\*---------------------------------------------------------------------------*/
FoamFile
{
    version     2.0;
    format      ascii;
    class       volScalarField;
    location    "0.17/solid";
    object      sigmaEq;
}
// * * * * * * * * * * * * * * * * * * * * * * * * * * * * * * * * * * * * * //

dimensions      [1 -1 -2 0 0 0 0];


internalField   nonuniform List<scalar> 
256
(
518277
454166
450698
507286
397813
409833
405661
386528
414079
415087
410825
403251
433794
427331
423117
423370
456001
446899
442736
445817
485884
476558
472440
475899
482807
495854
491934
473950
47945.1
529865
526098
41463
411228
91429.9
89923.9
399604
364003
77230.9
75464.9
352549
369735
68218
66649.4
358400
381386
66022.7
64600.1
369989
398549
69057.9
67714.5
387001
423399
66106
64875
411838
436387
27461.7
26975.5
426038
482737
495898
492092
474244
378890
69000.2
67430.9
367847
351560
79389.8
77501.1
339888
358842
77535.2
75764
346990
369308
75500.6
73799.7
357246
384769
76132.7
74448.3
372455
407815
72176.8
70568.9
395403
423423
65221
64337.6
412111
485764
476602
472702
476598
354391
63864.5
62516.1
344411
330736
79826.7
78191
319770
339256
80821.8
79211.8
327907
349324
78996.5
77414.3
337656
363484
78567.6
76992.7
351512
384662
73933.5
72448.5
372562
398711
66401.9
65648.8
387671
456553
447239
443423
447797
339791
60395.9
59267.9
330719
316995
76215.5
74834.6
306772
325817
77565.2
76160.1
315093
335601
75517.6
74112.6
324475
348968
74253.5
72844.9
337488
369016
68691.6
67365.6
357371
381953
59114
58560.4
371335
437197
428549
424818
428923
330727
57609.5
56647.9
322312
308281
72351.4
71161.5
298636
317021
73255.8
72018.1
306814
326547
70844.4
69591
315882
339443
69079.1
67806.7
328381
358872
63005.9
61796
347605
371153
52182.1
51793
360882
425086
417544
413877
417207
325317
55608.2
54757.8
317325
303075
69564.8
68503.4
293816
311677
70043.9
68923.1
301825
321012
67359.1
66213.2
310670
333644
65360.9
64181.7
322874
352757
59118.7
57982.5
341750
364673
47699.4
47423.1
354642
417846
411434
407810
410242
322770
54557
53762.8
314984
300631
68161
67165.3
291564
309151
68432.8
67372.8
299479
318389
65620.1
64530.4
308211
330902
63540.7
62409.4
320280
349883
57267.2
56167.8
339007
361635
45618.6
45399.9
351725
414432
408694
405092
406968
)
;

boundaryField
{
    interface
    {
        type            calculated;
        value           nonuniform List<scalar> 
192
(
745557
618656
639248
664543
694930
739636
765895
403179
722142
660816
671768
691693
721360
769272
823460
765855
655081
612478
624079
642498
670131
715484
769458
739669
609641
570717
583171
601049
627305
670479
722088
695863
583807
546143
558850
576417
601881
643782
693829
668821
568429
531529
544240
561569
586565
627741
676829
652361
559521
523091
535750
552917
577647
618426
666959
642675
555398
519188
531809
548896
573504
614109
662386
638143
789483
667113
687112
711572
741240
785888
815702
491027
806749
747335
758563
779320
811264
863500
923643
858290
800365
740015
751030
771783
803759
856029
916347
852343
772015
648649
668763
693487
723339
768070
798338
478267
732825
605598
626441
651937
682447
727473
755809
408507
703984
642322
653108
672716
702017
749796
805513
756050
637266
593556
604716
622667
649808
694885
750149
728168
593055
552640
564451
581750
607453
650299
703087
684536
568302
528953
540901
557806
582668
624201
675355
657942
553716
515031
526923
543537
567890
608660
658804
641891
545323
507060
518870
535292
559350
599697
649251
632505
541452
503391
515152
531480
555402
595560
644841
628130
491075
815667
785869
742042
715617
699779
690530
686211
858330
923709
863703
812100
781898
764456
754745
750365
852390
916501
856402
804865
774734
757354
747687
743330
478352
798594
768734
725340
699324
683822
674806
670606
)
;
    }
    symmetry
    {
        type            symmetry;
    }
    bottom
    {
        type            calculated;
        value           nonuniform List<scalar> 
32
(
635003
458666
416752
391697
376735
367254
361551
358861
499431
106866
73072
66060.1
62600.4
60048.9
58243.3
57293.6
496301
105200
71385.3
64683.3
61481
59109.7
57422.4
56532.4
624474
446774
405905
382268
368423
359723
354513
352061
)
;
    }
}


// ************************************************************************* //
