/*--------------------------------*- C++ -*----------------------------------*\
| =========                 |                                                 |
| \\      /  F ield         | OpenFOAM: The Open Source CFD Toolbox           |
|  \\    /   O peration     | Version:  v1912                                 |
|   \\  /    A nd           | Website:  www.openfoam.com                      |
|    \\/     M anipulation  |                                                 |
\*---------------------------------------------------------------------------*/
FoamFile
{
    version     2.0;
    format      ascii;
    class       volScalarField;
    location    "0.17/solid";
    object      sigmaHyd;
}
// * * * * * * * * * * * * * * * * * * * * * * * * * * * * * * * * * * * * * //

dimensions      [1 -1 -2 0 0 0 0];


internalField   nonuniform List<scalar> 
256
(
-760766
-372271
-371035
-754223
-861599
-445690
-444718
-854848
-860886
-445720
-444689
-853503
-865875
-445431
-444298
-857994
-881516
-449290
-448095
-873343
-910481
-459250
-458061
-902373
-995025
-516541
-515334
-987509
-1.54434e+06
-1.04373e+06
-1.0401e+06
-1.5324e+06
-327317
6102.75
4261.89
-326455
-400989
-35300.5
-37393.4
-400218
-402491
-40485.4
-42572.7
-401287
-403952
-37430.3
-39484.3
-402376
-410661
-30838.3
-32868.3
-408776
-424583
-21790.8
-23816.1
-422571
-484727
-46635.2
-48541.1
-482927
-995100
-516560
-515291
-987429
-272841
23092.1
21271.4
-271105
-333790
-2875.71
-5005.85
-332565
-335249
-8156.26
-10304.7
-333728
-337474
-6455.49
-8589.77
-335649
-345332
-1283.23
-3405.79
-343219
-361452
5659.02
3540.03
-359176
-424410
-21461.8
-23441.1
-422224
-910501
-459097
-457781
-902011
-255563
17960
16284.3
-253221
-313793
-5518.17
-7533.42
-312250
-315024
-10366.9
-12430.8
-313314
-317763
-9374.52
-11445.1
-315828
-326720
-5562.41
-7633.95
-324543
-344790
-727.732
-2800.72
-342457
-409885
-29814.7
-31743.3
-407588
-880971
-448479
-447067
-872093
-245440
15176.8
13619.6
-242722
-302276
-7847.85
-9765.88
-300544
-303442
-12547.5
-14537.1
-301633
-306555
-11954.7
-13968.5
-304585
-316220
-8997.19
-11023.3
-314054
-335399
-5411.43
-7444.92
-333097
-401480
-35431.2
-37320.8
-399194
-863176
-442786
-441319
-854158
-239677
13648.9
12178.6
-236711
-295496
-9101.01
-10946.4
-293629
-296637
-13769
-15700.6
-294747
-300012
-13422.9
-15390.8
-298004
-310128
-10968.4
-12957.4
-307960
-329927
-8073.28
-10074.9
-327642
-396449
-38532
-40391.8
-394173
-852311
-439201
-437702
-843227
-236671
12726.3
11312.8
-233555
-291860
-9786.09
-11583.1
-289907
-292997
-14445.5
-16336.9
-291049
-296534
-14243.2
-16178.3
-294494
-306915
-12066.4
-14028.3
-304737
-327047
-9534.7
-11513
-324768
-393763
-40205.4
-42044
-391492
-846230
-437138
-435619
-837113
-235401
12267.1
10881.7
-232215
-290303
-10107.3
-11880.2
-288308
-291444
-14762.6
-16633.4
-289466
-295059
-14626.2
-16544.1
-293001
-305561
-12572.7
-14520.2
-303376
-325839
-10198.2
-12164.1
-323559
-392628
-40957.5
-42785
-390358
-843527
-436209
-434680
-834396
)
;

boundaryField
{
    interface
    {
        type            zeroGradient;
    }
    symmetry
    {
        type            symmetry;
    }
    bottom
    {
        type            zeroGradient;
    }
}


// ************************************************************************* //
