/*--------------------------------*- C++ -*----------------------------------*\
| =========                 |                                                 |
| \\      /  F ield         | OpenFOAM: The Open Source CFD Toolbox           |
|  \\    /   O peration     | Version:  v1912                                 |
|   \\  /    A nd           | Website:  www.openfoam.com                      |
|    \\/     M anipulation  |                                                 |
\*---------------------------------------------------------------------------*/
FoamFile
{
    version     2.0;
    format      ascii;
    class       volScalarField;
    location    "0.64/fluid";
    object      p;
}
// * * * * * * * * * * * * * * * * * * * * * * * * * * * * * * * * * * * * * //

dimensions      [0 2 -2 0 0 0 0];


internalField   nonuniform List<scalar> 
14592
(
0.0540923
0.048484
0.0465966
0.045014
0.0441087
0.0434034
0.0428477
0.0423655
0.04191
0.0415388
0.0411194
0.0409163
0.040428
0.040673
0.0398738
0.0418283
0.0499164
0.0481721
0.0464978
0.0451468
0.0442345
0.0435129
0.0429347
0.0424418
0.0419844
0.0416223
0.0412188
0.0410537
0.0406031
0.0409975
0.040172
0.0431088
0.0479371
0.0473253
0.046094
0.0450969
0.0442548
0.043557
0.0429669
0.0424641
0.0420024
0.0416482
0.0412667
0.0411547
0.0407679
0.0413435
0.0405823
0.0442666
0.0467547
0.0466059
0.0457446
0.0449892
0.0442337
0.0435662
0.0429673
0.0424494
0.0419736
0.0416152
0.0412418
0.0411687
0.0408378
0.0415687
0.0409247
0.0450196
0.0460518
0.0460267
0.0453944
0.0447968
0.0441217
0.0434887
0.0428886
0.0423537
0.0418515
0.0414637
0.0410576
0.0409621
0.0406029
0.0413775
0.040745
0.0451344
0.0455901
0.0456026
0.0451135
0.0446102
0.0439919
0.0433823
0.0427787
0.0422255
0.0416962
0.0412792
0.0408469
0.0407473
0.040406
0.0413167
0.0408496
0.0457542
0.0452888
0.0453082
0.044893
0.0444374
0.0438483
0.0432439
0.0426236
0.0420344
0.0414498
0.0409532
0.0404094
0.0401506
0.0395701
0.040184
0.0391698
0.0441328
0.0451079
0.0451289
0.0447443
0.0443056
0.0437226
0.0431096
0.0424666
0.0418415
0.0412102
0.0406541
0.0400482
0.0397291
0.0391274
0.0399056
0.0391552
0.0464894
0.0540008
0.0483946
0.0465442
0.0450025
0.0441504
0.0435043
0.0430156
0.042609
0.0422413
0.0419684
0.0416665
0.0415634
0.0412149
0.0413685
0.0406887
0.0413593
0.0498249
0.0480808
0.0464445
0.045135
0.0442766
0.0436149
0.0431044
0.0426879
0.0423191
0.042056
0.0417695
0.0416998
0.041376
0.0416217
0.0408844
0.0419724
0.0478419
0.0472286
0.0460342
0.0450783
0.0442905
0.0436535
0.0431315
0.0427057
0.0423325
0.0420773
0.0418109
0.0417914
0.0415206
0.0419115
0.0411901
0.0426878
0.0466571
0.0465064
0.0456808
0.0449656
0.0442636
0.0436562
0.0431248
0.0426831
0.0422948
0.0420349
0.0417744
0.0417928
0.0415695
0.0420979
0.0414579
0.0432065
0.0459512
0.0459239
0.0453261
0.0447676
0.0441444
0.04357
0.0430351
0.0425738
0.0421551
0.0418615
0.0415604
0.04155
0.0412791
0.0418366
0.0411523
0.0431167
0.0454867
0.0454969
0.0450415
0.044576
0.0440079
0.0434547
0.0429138
0.0424312
0.0419813
0.041655
0.0413219
0.0413077
0.0410445
0.0417516
0.0411965
0.0436484
0.0451819
0.0451991
0.0448166
0.0443976
0.0438566
0.0433058
0.0427441
0.0422201
0.0417069
0.0412907
0.0408282
0.040637
0.0400877
0.0404808
0.0392318
0.0417482
0.0449971
0.045016
0.0446635
0.0442603
0.0437235
0.0431613
0.0425734
0.0420088
0.0414427
0.040961
0.0404277
0.0401785
0.0396006
0.0402208
0.0391978
0.0441745
0.0539455
0.0483409
0.0465189
0.0450107
0.0442045
0.0436118
0.0431877
0.0428589
0.0425902
0.0424409
0.0423149
0.0424251
0.0424434
0.0429481
0.0430908
0.0438903
0.0497697
0.0480259
0.0464186
0.0451432
0.0443315
0.0437241
0.043279
0.0429414
0.0426732
0.0425359
0.0424282
0.0425744
0.0426238
0.0432123
0.0433439
0.0444577
0.0477829
0.0471686
0.0460023
0.0450802
0.0443394
0.0437573
0.0433013
0.0429549
0.0426825
0.0425538
0.0424664
0.0426654
0.0427721
0.0435146
0.0437064
0.045184
0.0465955
0.0464434
0.0456447
0.0449623
0.0443067
0.0437536
0.0432876
0.0429248
0.0426363
0.0425029
0.042421
0.0426614
0.0428183
0.0437092
0.0440014
0.0457202
0.0458863
0.0458574
0.0452855
0.0447585
0.0441802
0.0436585
0.0431868
0.0428019
0.0424794
0.0423084
0.0421787
0.042386
0.0424817
0.0434014
0.0436229
0.0455499
0.0454186
0.0454273
0.0449969
0.0445617
0.0440367
0.0435343
0.0430539
0.0426445
0.0422862
0.0420781
0.0419082
0.0421081
0.042195
0.043269
0.0435762
0.0459935
0.0451101
0.0451257
0.0447675
0.0443776
0.0438775
0.0433747
0.0428696
0.0424132
0.0419828
0.041673
0.041352
0.0413496
0.0410878
0.0417987
0.0412216
0.0436638
0.0449214
0.0449389
0.0446099
0.0442347
0.0437368
0.0432199
0.0426846
0.0421824
0.041691
0.0413055
0.0408964
0.0408194
0.040484
0.0414101
0.040918
0.0458436
0.0539136
0.04831
0.0465092
0.0450268
0.044256
0.0437045
0.043329
0.0430549
0.0428502
0.0427674
0.0427216
0.0428865
0.0429914
0.0434514
0.043662
0.04422
0.0497378
0.0479941
0.0464085
0.0451594
0.0443837
0.043818
0.043422
0.0431397
0.0429363
0.0428659
0.0428385
0.0430367
0.0431684
0.0436897
0.0438755
0.0446487
0.0477476
0.0471324
0.0459868
0.0450907
0.0443862
0.0438463
0.0434398
0.043149
0.0429407
0.0428781
0.0428681
0.0431141
0.0432921
0.0439436
0.0441657
0.045223
0.0465575
0.0464042
0.0456253
0.0449682
0.0443482
0.0438368
0.0434196
0.0431118
0.0428865
0.0428182
0.0428108
0.0430955
0.0433148
0.0441021
0.0444006
0.0456666
0.045845
0.0458148
0.0452617
0.0447589
0.044215
0.0437338
0.0433093
0.0429775
0.042715
0.042606
0.0425447
0.0427912
0.0429351
0.0437406
0.0439338
0.0453904
0.0453742
0.0453816
0.0449694
0.0445572
0.0440652
0.0436017
0.0431665
0.0428079
0.0425064
0.0423575
0.0422507
0.0424882
0.042612
0.0435727
0.0438206
0.0457616
0.0450622
0.0450766
0.0447358
0.0443678
0.0438992
0.0434332
0.0429702
0.0425609
0.0421819
0.0419252
0.0416564
0.0416833
0.0414332
0.0420237
0.0413194
0.0432768
0.04487
0.0448862
0.0445742
0.0442199
0.0437519
0.0432697
0.0427739
0.0423153
0.0418707
0.0415339
0.0411699
0.0411214
0.0407861
0.041608
0.0409524
0.0453934
0.0538979
0.0482953
0.0465107
0.0450489
0.0443068
0.0437899
0.0434566
0.0432321
0.0430887
0.043075
0.0431203
0.043372
0.043613
0.0441442
0.0445363
0.0450349
0.0497222
0.0479787
0.0464099
0.0451818
0.0444354
0.0439048
0.0435516
0.0433198
0.0431787
0.0431787
0.0432442
0.0435305
0.0438004
0.0443872
0.0447575
0.0454293
0.0477291
0.0471133
0.0459837
0.0451084
0.0444335
0.0439291
0.0435658
0.0433256
0.0431795
0.043187
0.0432681
0.0435997
0.0439101
0.0446157
0.045014
0.0459355
0.0465367
0.0463825
0.0456189
0.0449819
0.0443909
0.0439147
0.0435401
0.0432825
0.0431185
0.0431198
0.0432015
0.0435707
0.0439177
0.0447542
0.0452177
0.0463358
0.0458212
0.0457901
0.0452514
0.0447678
0.0442519
0.0438047
0.0434215
0.0431382
0.0429345
0.0428923
0.0429153
0.0432424
0.0435033
0.0443517
0.0446869
0.0459881
0.0453476
0.0453541
0.0449557
0.0445618
0.0440966
0.0436656
0.0432698
0.0429577
0.0427119
0.0426268
0.0425988
0.0429136
0.0431429
0.0441432
0.0445054
0.0462867
0.0450325
0.045046
0.0447184
0.0443678
0.0439245
0.0434892
0.043063
0.0426968
0.0423684
0.0421695
0.041969
0.0420635
0.0418945
0.0425101
0.0418589
0.0436377
0.0448372
0.0448526
0.0445532
0.0442154
0.0437714
0.043318
0.0428564
0.0424375
0.0420386
0.041754
0.041449
0.0414605
0.0411863
0.0420265
0.0413726
0.0456211
0.053891
0.048289
0.0465158
0.0450685
0.0443466
0.0438535
0.0435486
0.0433556
0.0432484
0.0432698
0.0433559
0.0436311
0.0439076
0.044418
0.0448263
0.0452698
0.0497153
0.0479719
0.0464149
0.0452016
0.0444758
0.0439693
0.0436449
0.0434449
0.0433404
0.043376
0.0434825
0.0437915
0.0440955
0.0446553
0.0450375
0.0456277
0.0477199
0.0471036
0.0459853
0.0451246
0.0444704
0.0439905
0.0436561
0.0434478
0.0433379
0.0433802
0.0435001
0.043851
0.0441885
0.0448553
0.0452525
0.0460706
0.0465256
0.0463708
0.0456178
0.0449949
0.0444243
0.0439722
0.0436262
0.0434001
0.0432715
0.0433068
0.0434254
0.0438118
0.0441802
0.0449712
0.0454206
0.0464269
0.0458079
0.0457759
0.0452473
0.0447771
0.0442807
0.0438569
0.0435012
0.0432484
0.0430784
0.0430685
0.0431248
0.0434661
0.0437406
0.0445377
0.0448416
0.0460267
0.045332
0.0453377
0.0449488
0.0445678
0.0441212
0.0437126
0.0433431
0.04306
0.042846
0.0427915
0.0427936
0.0431209
0.0433569
0.0443035
0.0446172
0.0462808
0.0450144
0.0450272
0.0447087
0.0443702
0.0439445
0.0435303
0.0431288
0.0427896
0.0424901
0.0423189
0.0421434
0.0422471
0.0420741
0.0426318
0.0419038
0.0435545
0.0448167
0.0448314
0.0445407
0.0442144
0.0437871
0.0433536
0.0429149
0.0425211
0.0421484
0.0418891
0.0416051
0.0416245
0.0413394
0.0421234
0.0413735
0.0454872
0.0538891
0.0482876
0.046522
0.0450845
0.0443764
0.0439
0.0436154
0.0434456
0.0433662
0.0434167
0.0435385
0.0438422
0.044159
0.0446792
0.0451209
0.04554
0.0497134
0.0479702
0.046421
0.0452178
0.0445061
0.0440166
0.0437128
0.0435365
0.0434603
0.0435258
0.0436688
0.0440069
0.0443521
0.0449198
0.0453355
0.045887
0.0477166
0.0471
0.0459892
0.0451384
0.0444984
0.0440358
0.0437221
0.0435376
0.0434559
0.0435277
0.0436829
0.0440611
0.044436
0.0451046
0.0455284
0.0462966
0.046521
0.0463657
0.0456199
0.0450065
0.0444498
0.0440147
0.0436893
0.0434868
0.0433858
0.0434502
0.043603
0.0440156
0.0444181
0.0452074
0.0456762
0.0466285
0.0458015
0.0457691
0.0452472
0.0447861
0.0443032
0.0438958
0.04356
0.0433299
0.0431864
0.0432043
0.0432924
0.0436579
0.0439614
0.0447532
0.0450659
0.0461947
0.0453241
0.0453294
0.0449468
0.0445744
0.0441407
0.0437478
0.0433972
0.0431359
0.0429469
0.0429187
0.0429501
0.0432998
0.0435594
0.0444982
0.0448086
0.0464147
0.0450048
0.0450171
0.0447046
0.0443743
0.0439607
0.0435613
0.0431775
0.0428585
0.0425819
0.0424347
0.0422845
0.0424075
0.04225
0.0427951
0.0420436
0.0436282
0.0448053
0.0448196
0.0445347
0.0442161
0.0438002
0.0433806
0.0429583
0.0425831
0.0422311
0.0419935
0.0417311
0.0417669
0.0414904
0.0422588
0.0414689
0.0455116
0.0538885
0.0482878
0.0465251
0.0450927
0.0443909
0.0439221
0.0436464
0.0434863
0.0434176
0.0434778
0.0436102
0.0439183
0.0442421
0.0447548
0.0451988
0.0456082
0.0497133
0.0479698
0.0464244
0.045226
0.0445208
0.044039
0.0437441
0.0435775
0.0435119
0.0435868
0.0437401
0.0440818
0.0444328
0.044991
0.0454084
0.0459451
0.0477154
0.0470987
0.0459915
0.0451454
0.044512
0.044057
0.0437523
0.0435773
0.0435059
0.0435866
0.0437508
0.0441309
0.0445088
0.0451638
0.0455859
0.046335
0.0465192
0.0463637
0.0456213
0.0450123
0.0444621
0.0440346
0.043718
0.0435249
0.0434339
0.0435068
0.0436679
0.0440814
0.044485
0.0452585
0.0457217
0.0466531
0.0457989
0.0457662
0.0452476
0.0447906
0.0443139
0.0439139
0.0435866
0.0433656
0.0432315
0.0432575
0.043353
0.0437188
0.0440213
0.0447958
0.0450981
0.0462049
0.0453207
0.0453256
0.0449462
0.0445777
0.0441499
0.0437641
0.0434217
0.043169
0.042989
0.0429685
0.0430064
0.0433559
0.0436125
0.0445327
0.0448268
0.0464095
0.0450005
0.0450125
0.044703
0.0443764
0.0439685
0.0435757
0.0431995
0.0428887
0.0426204
0.0424803
0.0423357
0.0424581
0.0422958
0.0428216
0.0420473
0.0436051
0.0448001
0.0448142
0.0445321
0.044217
0.0438064
0.0433931
0.042978
0.0426104
0.042266
0.0420349
0.041777
0.0418119
0.0415285
0.0422762
0.041456
0.0454655
0.0634381
0.052699
0.0490645
0.0460902
0.0443786
0.0430376
0.041976
0.0410003
0.0400431
0.0390572
0.0379674
0.0367928
0.0353963
0.0338984
0.032041
0.0301607
0.0591665
0.0519433
0.0486839
0.0459937
0.0443394
0.0430296
0.0419791
0.0410112
0.0400623
0.0390858
0.038006
0.0368446
0.0354625
0.0339828
0.0321404
0.0302711
0.0571652
0.0509064
0.048054
0.0457007
0.0441748
0.0429469
0.0419308
0.0409829
0.040047
0.0390816
0.0380148
0.0368692
0.0355103
0.0340571
0.032247
0.0304028
0.0559172
0.0500987
0.0475831
0.0454612
0.0440492
0.0428862
0.0418949
0.0409575
0.0400252
0.0390611
0.037998
0.036859
0.0355136
0.0340772
0.0322908
0.0304681
0.055173
0.0494854
0.0471759
0.0452073
0.0438918
0.0427885
0.041825
0.0408995
0.0399697
0.0390042
0.0379406
0.0368021
0.0354648
0.034039
0.0322759
0.0304769
0.054687
0.0490491
0.0468736
0.0450008
0.0437538
0.0426921
0.0417486
0.0408298
0.0398988
0.0389286
0.0378618
0.0367212
0.0353908
0.0339748
0.0322393
0.0304686
0.0543807
0.0487576
0.0466536
0.0448334
0.0436274
0.0425903
0.041658
0.04074
0.0398029
0.0388231
0.0377477
0.0365977
0.035268
0.0338545
0.0321473
0.0304069
0.0542092
0.048591
0.0465183
0.04472
0.0435308
0.0425013
0.0415704
0.040647
0.0397008
0.0387106
0.0376275
0.0364703
0.0351461
0.0337403
0.0320705
0.0303669
0.0591668
0.0519414
0.0486788
0.0459841
0.0443245
0.0430077
0.0419518
0.0409781
0.0400161
0.0390231
0.037922
0.0367388
0.0353248
0.0338214
0.0319349
0.0300684
0.0549654
0.0515403
0.0484686
0.0459981
0.0443541
0.0430414
0.0419773
0.0409991
0.0400354
0.0390426
0.0379435
0.0367653
0.0353589
0.0338688
0.0319992
0.0301464
0.0529618
0.0505951
0.0479134
0.0457733
0.0442337
0.0429844
0.0419421
0.0409763
0.040019
0.0390317
0.0379414
0.0367748
0.035388
0.0339192
0.0320761
0.0302457
0.051728
0.0498064
0.0474731
0.045566
0.0441338
0.0429421
0.0419187
0.0409583
0.0400002
0.0390118
0.0379238
0.0367626
0.0353888
0.033936
0.0321162
0.0303068
0.0509897
0.049189
0.0470721
0.0453208
0.0439843
0.0428505
0.0418534
0.0409034
0.0399468
0.0389568
0.0378686
0.0367083
0.0353432
0.0339011
0.0321048
0.0303185
0.0505069
0.0487469
0.0467704
0.0451169
0.0438495
0.0427574
0.0417801
0.0408366
0.0398793
0.0388856
0.0377957
0.036635
0.035279
0.0338489
0.0320825
0.0303247
0.050202
0.0484517
0.0465499
0.0449501
0.0437244
0.0426573
0.0416912
0.0407488
0.0397866
0.0387844
0.0376873
0.0365187
0.0351655
0.0337389
0.0320039
0.0302756
0.0500312
0.0482837
0.0464148
0.0448377
0.0436293
0.0425705
0.0416056
0.0406587
0.0396891
0.0386779
0.0375754
0.0364021
0.0350581
0.0336423
0.0319495
0.0302581
0.0571848
0.050925
0.0480782
0.0457301
0.0442118
0.0429918
0.0419909
0.041058
0.0401223
0.0391548
0.0380679
0.0369022
0.035463
0.0339459
0.0319095
0.0299594
0.0529828
0.0506176
0.0479465
0.0458178
0.0442929
0.0430599
0.0420412
0.0410989
0.0401571
0.039188
0.0381028
0.0369423
0.0355116
0.0340079
0.0319881
0.0300541
0.0509791
0.0497406
0.047481
0.0456904
0.044245
0.0430511
0.0420371
0.0410966
0.0401547
0.0391875
0.0381096
0.0369602
0.0355492
0.0340653
0.0320647
0.030142
0.0497613
0.0489839
0.0470882
0.0455364
0.0441885
0.0430401
0.0420341
0.0410914
0.0401437
0.0391723
0.0380954
0.0369511
0.0355537
0.0340864
0.0321082
0.0302057
0.0490334
0.0483793
0.0467106
0.0453188
0.0440624
0.0429655
0.0419788
0.0410409
0.0400908
0.0391145
0.0380352
0.0368898
0.0355
0.0340422
0.0320883
0.0302098
0.0485572
0.0479417
0.0464185
0.0451264
0.0439378
0.0428796
0.0419084
0.0409735
0.0400204
0.0390383
0.037956
0.0368095
0.0354306
0.0339873
0.0320721
0.0302294
0.0482551
0.0476474
0.0462012
0.0449638
0.0438161
0.042781
0.0418174
0.0408804
0.0399199
0.0389256
0.0378327
0.0366738
0.0352956
0.033853
0.0319792
0.0301737
0.0480847
0.047479
0.0460665
0.0448522
0.0437211
0.0426929
0.0417277
0.0407837
0.0398144
0.0388087
0.0377086
0.0365433
0.035177
0.0337484
0.0319352
0.0301801
0.0559578
0.050139
0.0476424
0.045542
0.0441588
0.0430281
0.0420787
0.0411852
0.0402811
0.0393484
0.0382832
0.0371473
0.0356757
0.0341467
0.0318796
0.0298134
0.0517707
0.0498508
0.047543
0.045665
0.0442699
0.0431205
0.042147
0.0412388
0.040326
0.0393907
0.0383275
0.0371984
0.0357375
0.0342273
0.0319754
0.0299263
0.0497824
0.0490049
0.0471244
0.0455912
0.0442667
0.0431451
0.0421662
0.041252
0.0403343
0.0393987
0.0383426
0.037225
0.0357842
0.0342915
0.0320451
0.0299854
0.0485809
0.0482691
0.0467581
0.0454669
0.0442353
0.0431525
0.0421749
0.0412534
0.0403266
0.0393851
0.0383296
0.0372177
0.0357916
0.0343165
0.0320885
0.0300444
0.0478644
0.0476771
0.0463962
0.0452664
0.0441235
0.0430875
0.0421242
0.0412035
0.0402706
0.0393211
0.0382605
0.0371449
0.0357243
0.0342564
0.0320524
0.030033
0.0473954
0.047246
0.0461113
0.0450814
0.0440044
0.0430042
0.0420535
0.041133
0.0401944
0.0392366
0.0381717
0.0370543
0.0356474
0.0341983
0.0320465
0.0300758
0.0470965
0.0469543
0.0458968
0.0449211
0.0438836
0.0429039
0.0419582
0.0410323
0.0400822
0.0391073
0.0380265
0.0368897
0.0354794
0.0340251
0.0319305
0.0300088
0.0469265
0.0467859
0.045762
0.0448088
0.0437869
0.0428123
0.0418629
0.0409276
0.0399658
0.0389761
0.0378859
0.0367402
0.0353466
0.0339122
0.0319093
0.0300645
0.0552358
0.0495494
0.0472788
0.0453571
0.0441049
0.0430748
0.0421992
0.041372
0.0405296
0.0396678
0.0386641
0.0376108
0.0361464
0.0346631
0.0321
0.0298875
0.0510549
0.0492565
0.0471858
0.04549
0.0442263
0.0431771
0.0422761
0.0414333
0.0405829
0.0397202
0.0387209
0.0376788
0.0362301
0.034776
0.0322273
0.030026
0.0490759
0.0484215
0.0467888
0.0454428
0.0442472
0.0432214
0.0423095
0.0414567
0.0405996
0.0397365
0.0387458
0.037718
0.0362911
0.0348533
0.032286
0.0300362
0.0478857
0.0476979
0.0464377
0.0453355
0.0442303
0.0432394
0.0423246
0.041461
0.0405928
0.0397229
0.0387334
0.0377134
0.0363038
0.0348879
0.032333
0.0300928
0.0471781
0.0471153
0.0460868
0.0451467
0.0441281
0.0431803
0.0422755
0.0414082
0.04053
0.0396481
0.0386498
0.0376223
0.0362153
0.0348045
0.0322736
0.0300623
0.0467149
0.0466899
0.0458078
0.0449671
0.0440125
0.0430976
0.0422018
0.041331
0.0404433
0.0395495
0.0385443
0.0375135
0.0361232
0.0347391
0.0322819
0.0301455
0.0464184
0.0464004
0.0455954
0.0448079
0.043891
0.0429936
0.0420992
0.041218
0.0403123
0.0393932
0.0383622
0.0372986
0.0358943
0.0344912
0.0321112
0.030045
0.046248
0.0462315
0.0454596
0.0446939
0.0437909
0.042896
0.0419951
0.0411002
0.0401776
0.0392373
0.0381912
0.0371124
0.0357272
0.0343506
0.0321081
0.0301739
0.0547602
0.0491247
0.0470122
0.0452168
0.0440749
0.043135
0.0423345
0.0415796
0.0408074
0.040027
0.0390939
0.0381333
0.0366656
0.0352181
0.0322073
0.0297686
0.0505823
0.0488246
0.0469187
0.0453516
0.0441997
0.0432411
0.042415
0.0416452
0.0408661
0.0400868
0.0391606
0.0382169
0.0367704
0.0353648
0.0323481
0.0298614
0.048608
0.047991
0.0465276
0.0453128
0.044229
0.0432928
0.0424538
0.0416726
0.0408866
0.0401079
0.0391926
0.0382669
0.0368424
0.0354473
0.0323531
0.0297162
0.0474243
0.047273
0.0461824
0.0452115
0.0442168
0.0433137
0.0424694
0.0416754
0.0408771
0.0400914
0.039178
0.0382631
0.0368578
0.035488
0.0323854
0.0297279
0.046722
0.0466953
0.0458364
0.045027
0.0441171
0.0432548
0.0424173
0.0416159
0.0408037
0.040002
0.0390753
0.0381482
0.0367398
0.0353713
0.0322875
0.0296609
0.0462621
0.0462731
0.04556
0.0448489
0.0440011
0.0431694
0.042338
0.0415296
0.0407041
0.0398869
0.0389504
0.0380194
0.0366325
0.0353048
0.0323279
0.0298221
0.0459666
0.0459845
0.0453477
0.0446887
0.0438765
0.0430596
0.0422257
0.0414014
0.040551
0.0396986
0.0387241
0.037743
0.0363262
0.0349601
0.0320918
0.0296968
0.0457948
0.0458142
0.04521
0.0445716
0.0437716
0.0429548
0.0421113
0.0412688
0.0403959
0.0395159
0.0385209
0.0375199
0.0361308
0.0348141
0.0321685
0.0300353
0.0544462
0.0488274
0.0468179
0.0451139
0.0440661
0.0432131
0.0424973
0.0418331
0.0411613
0.0405093
0.0397227
0.0389759
0.0376945
0.0365738
0.0333984
0.0310427
0.0502696
0.0485218
0.0467223
0.045248
0.0441916
0.0433206
0.0425803
0.0419026
0.0412259
0.040578
0.0398019
0.03908
0.0378272
0.0367693
0.0335628
0.0310782
0.0482957
0.0476852
0.0463297
0.045209
0.0442215
0.0433729
0.0426194
0.0419305
0.0412477
0.0406025
0.0398408
0.0391451
0.0379203
0.0368866
0.0335595
0.0308419
0.0471148
0.0469689
0.0459856
0.0451083
0.0442091
0.0433924
0.0426319
0.0419292
0.0412333
0.0405818
0.039824
0.0391458
0.0379478
0.0369584
0.0336128
0.0308514
0.0464145
0.0463929
0.0456407
0.0449239
0.044108
0.0433298
0.042573
0.0418596
0.0411457
0.0404736
0.0396968
0.0390021
0.0377947
0.0368096
0.033478
0.0307556
0.0459557
0.0459717
0.0453646
0.0447447
0.0439891
0.0432392
0.0424851
0.0417607
0.0410289
0.0403367
0.0395454
0.0388455
0.0376621
0.0367384
0.0335485
0.031015
0.0456594
0.0456823
0.0451508
0.0445817
0.0438594
0.0431213
0.0423599
0.0416129
0.0408467
0.0401054
0.0392559
0.0384757
0.0372218
0.0362083
0.0331123
0.0307296
0.0454853
0.0455098
0.0450101
0.0444604
0.0437481
0.0430075
0.0422322
0.041461
0.0406645
0.0398851
0.0390028
0.0381885
0.0369549
0.0360045
0.0332025
0.0313148
0.0542329
0.0486211
0.046683
0.0450472
0.044076
0.0432988
0.0426615
0.0420822
0.0415038
0.0409642
0.0402984
0.0397049
0.0385257
0.0375317
0.0339291
0.0310659
0.0500567
0.0483117
0.0465855
0.0451805
0.0442015
0.0434071
0.0427462
0.0421546
0.0415726
0.0410392
0.0403859
0.0398215
0.0386669
0.0377249
0.0339264
0.0304212
0.0480807
0.0474703
0.0461879
0.0451368
0.0442276
0.0434561
0.0427826
0.0421803
0.0415929
0.041064
0.040427
0.039894
0.0387627
0.0378335
0.0337739
0.0295991
0.0468998
0.0467531
0.0458419
0.0450333
0.0442116
0.0434711
0.0427897
0.0421728
0.0415716
0.0410369
0.0404043
0.0398935
0.0387898
0.0379105
0.0337838
0.0294041
0.0461991
0.0461762
0.0454951
0.0448458
0.044106
0.0434021
0.0427218
0.042091
0.0414677
0.0409079
0.0402496
0.0397168
0.0385921
0.037715
0.0335875
0.0292291
0.0457394
0.0457542
0.0452173
0.0446635
0.0439824
0.0433044
0.0426238
0.0419785
0.0413332
0.0407494
0.0400726
0.039536
0.03844
0.0376553
0.0337257
0.0296319
0.0454411
0.0454628
0.0450006
0.0444961
0.0438463
0.0431771
0.0424846
0.0418106
0.0411218
0.040476
0.0397209
0.0390761
0.0378655
0.036941
0.0330903
0.0291481
0.0452639
0.0452872
0.0448563
0.04437
0.0437283
0.0430537
0.0423433
0.04164
0.0409142
0.0402225
0.0394269
0.0387461
0.037568
0.0367787
0.0333796
0.0302808
0.0450346
0.0450568
0.0446659
0.0442148
0.0436124
0.0429712
0.0422888
0.0416071
0.0408971
0.0402163
0.0394257
0.0387448
0.037555
0.0367463
0.033291
0.030112
0.045072
0.0450945
0.0446626
0.0441751
0.043532
0.042851
0.0421275
0.0413971
0.0406309
0.0398731
0.0390023
0.0381916
0.0369455
0.0359738
0.0331131
0.0311645
0.0452325
0.0452485
0.0447296
0.0441741
0.0434693
0.0427339
0.0419607
0.041175
0.0403446
0.0394948
0.0385164
0.037521
0.0361187
0.0347782
0.0320753
0.0298868
0.0455689
0.0455488
0.0448741
0.044205
0.043417
0.0426246
0.0418098
0.0409843
0.0401141
0.0392115
0.0381872
0.0371172
0.0357216
0.0343231
0.0320311
0.0300478
0.0461557
0.0460113
0.0450933
0.0442486
0.0433554
0.042499
0.0416506
0.0407942
0.0398926
0.0389465
0.0378823
0.036748
0.0353467
0.0338924
0.0318469
0.0299578
0.0472507
0.0466426
0.0453436
0.0442473
0.0432562
0.0423552
0.0415025
0.0406458
0.0397405
0.0387817
0.03771
0.0365575
0.0351856
0.0337387
0.031888
0.0300917
0.0491556
0.0474094
0.0456612
0.0442087
0.0431458
0.0422173
0.0413677
0.0405144
0.039615
0.0386533
0.037581
0.0364215
0.0350734
0.0336407
0.0319142
0.0301839
0.0533341
0.047727
0.0457788
0.0441062
0.0430619
0.0421622
0.0413421
0.0405111
0.0396372
0.0386949
0.0376407
0.0364961
0.0351668
0.0337431
0.032039
0.0302956
0.0449193
0.0449396
0.0445799
0.0441631
0.0436051
0.0430113
0.0423794
0.0417514
0.0410963
0.0404753
0.0397338
0.0390948
0.037868
0.0369167
0.0329695
0.0289023
0.0449522
0.0449729
0.0445718
0.0441176
0.0435169
0.0428807
0.0422039
0.0415221
0.040804
0.040098
0.0392683
0.0384967
0.0372251
0.0361816
0.0329883
0.0305083
0.0451078
0.0451221
0.0446336
0.0441108
0.0434467
0.0427528
0.0420225
0.0412795
0.0404893
0.0396803
0.0387303
0.0377587
0.0363232
0.0349241
0.0319667
0.0294893
0.0454396
0.0454178
0.0447732
0.0441359
0.0433881
0.0426352
0.0418597
0.0410728
0.0402377
0.0393695
0.0383683
0.0373176
0.035899
0.0344664
0.0320128
0.0298757
0.0460223
0.0458765
0.0449882
0.0441747
0.04332
0.0425018
0.0416898
0.0408678
0.0399966
0.0390787
0.0380322
0.0369112
0.0354911
0.0340111
0.0318565
0.0298736
0.0471143
0.0465051
0.0452358
0.0441703
0.043217
0.0423529
0.0415352
0.0407105
0.0398331
0.0388994
0.0378436
0.0367024
0.0353178
0.0338525
0.0319284
0.0300677
0.0490181
0.0472719
0.0455535
0.0441312
0.0431048
0.0422107
0.0413947
0.0405725
0.0396989
0.0387601
0.0377023
0.0365529
0.035196
0.0337493
0.0319709
0.0301921
0.0531967
0.0475914
0.045673
0.0440309
0.0430233
0.0421584
0.0413717
0.0405725
0.0397263
0.0388083
0.037771
0.0366389
0.0353045
0.0338698
0.0321188
0.0303266
0.0448394
0.0448582
0.0445212
0.0441313
0.04361
0.0430585
0.0424742
0.0419009
0.0413083
0.0407642
0.040111
0.0395876
0.0384678
0.0376423
0.0335438
0.0292258
0.044868
0.0448874
0.0445085
0.0440801
0.0435141
0.0429174
0.0422841
0.0416507
0.0409859
0.0403435
0.0395815
0.0388965
0.0376879
0.0367203
0.0333695
0.0306697
0.0450193
0.0450324
0.0445657
0.044068
0.0434369
0.042779
0.0420878
0.0413867
0.0406402
0.0398803
0.0389768
0.0380602
0.036647
0.0352724
0.0321568
0.0295213
0.0453471
0.0453242
0.0447009
0.0440879
0.0433722
0.042653
0.0419132
0.0411631
0.0403649
0.039536
0.0385695
0.0375567
0.0361472
0.0347233
0.0321576
0.0299168
0.0459264
0.0457795
0.0449122
0.0441223
0.0432981
0.0425121
0.0417326
0.040943
0.0401028
0.0392162
0.038195
0.0370988
0.0356796
0.0341978
0.0319624
0.0299073
0.0470159
0.046406
0.0451576
0.0441153
0.0431916
0.0423584
0.0415714
0.0407763
0.0399265
0.0390195
0.0379842
0.0368615
0.035476
0.0340056
0.032024
0.0301089
0.0489189
0.0471727
0.0454754
0.0440758
0.0430778
0.0422123
0.0414254
0.0406314
0.039783
0.0388679
0.0378275
0.0366927
0.0353344
0.0338818
0.0320613
0.0302395
0.0530976
0.0474936
0.0455964
0.0439772
0.0429983
0.0421619
0.0414046
0.0406346
0.0398146
0.0389214
0.037903
0.0367869
0.0354535
0.034014
0.0322243
0.0303881
0.0447842
0.0448017
0.0444811
0.0441112
0.0436182
0.043099
0.0425508
0.0420166
0.0414641
0.0409608
0.0403396
0.039834
0.038683
0.0377552
0.033362
0.0286341
0.0448092
0.0448275
0.0444645
0.0440553
0.0435158
0.0429496
0.0423495
0.0417515
0.041122
0.040515
0.0397793
0.0391106
0.037874
0.0368351
0.0332628
0.0302841
0.0449569
0.044969
0.0445179
0.0440389
0.0434328
0.042803
0.0421421
0.0414723
0.0407559
0.0400253
0.0391413
0.038236
0.0367955
0.0353675
0.0320834
0.0292676
0.0452813
0.0452575
0.0446494
0.0440545
0.0433633
0.0426705
0.0419585
0.0412366
0.0404648
0.0396611
0.038711
0.0377082
0.0362788
0.0348194
0.0321396
0.0297856
0.0458579
0.0457103
0.0448579
0.0440855
0.0432846
0.0425237
0.0417699
0.0410055
0.0401885
0.0393233
0.0383158
0.037228
0.0357942
0.0342879
0.0319745
0.0298452
0.0469455
0.046335
0.0451014
0.0440764
0.0431753
0.0423664
0.041604
0.0408322
0.0400039
0.0391164
0.0380938
0.0369792
0.035584
0.0340963
0.03206
0.0300913
0.0488477
0.0471016
0.0454193
0.0440366
0.0430604
0.0422174
0.0414537
0.0406824
0.0398542
0.0389572
0.037929
0.0368022
0.0354376
0.0339725
0.0321122
0.0302491
0.0530265
0.0474236
0.0455416
0.0439395
0.0429827
0.0421686
0.0414351
0.040689
0.0398901
0.0390164
0.0380118
0.0369057
0.0355687
0.0341189
0.0322925
0.0304148
0.0447481
0.0447648
0.0444563
0.044102
0.0436316
0.0431391
0.042622
0.0421231
0.0416098
0.0411501
0.0405734
0.040111
0.0389816
0.0380384
0.0334875
0.0284709
0.04477
0.0447876
0.0444363
0.0440418
0.0435235
0.0429822
0.0424105
0.0418439
0.0412483
0.0406782
0.0399774
0.0393421
0.038114
0.0370591
0.0333525
0.0301826
0.0449147
0.0449262
0.0444865
0.0440217
0.0434353
0.0428283
0.042193
0.0415508
0.0408628
0.0401622
0.0393041
0.0384224
0.0369809
0.0355356
0.0321421
0.0291949
0.0452364
0.045212
0.0446149
0.0440338
0.0433616
0.04269
0.0420012
0.0413038
0.0405564
0.0397776
0.0388477
0.0378624
0.03643
0.0349565
0.0321986
0.0297578
0.0458107
0.0456626
0.044821
0.0440618
0.0432789
0.0425381
0.0418055
0.0410626
0.0402667
0.0394222
0.0384307
0.0373559
0.0359187
0.0344012
0.0320327
0.0298443
0.0468967
0.0462859
0.0450631
0.044051
0.0431671
0.0423776
0.0416351
0.0408832
0.0400738
0.0392045
0.0381957
0.0370919
0.0356941
0.0341974
0.032121
0.0301085
0.0487984
0.0470523
0.0453808
0.0440107
0.0430512
0.0422259
0.0414811
0.0407288
0.0399182
0.0390378
0.0380219
0.0369046
0.0355385
0.0340663
0.032176
0.0302785
0.0529773
0.0473751
0.0455041
0.0439148
0.0429749
0.0421784
0.0414641
0.0407379
0.0399573
0.0391011
0.0381099
0.0370145
0.0356774
0.0342216
0.0323671
0.0304546
0.044725
0.0447411
0.0444408
0.0440975
0.0436428
0.0431689
0.0426727
0.0421965
0.0417061
0.0412682
0.0407071
0.040249
0.0390973
0.0380931
0.0333913
0.0281567
0.0447446
0.0447616
0.0444183
0.044034
0.0435306
0.0430067
0.0424543
0.0419083
0.0413329
0.0407819
0.0400938
0.0394625
0.0382136
0.0371118
0.0332866
0.0299735
0.044887
0.044898
0.0444661
0.0440112
0.0434387
0.0428477
0.0422301
0.0416062
0.0409359
0.0402516
0.0394037
0.0385253
0.037066
0.0355855
0.0321013
0.0290539
0.0452067
0.0451818
0.0445923
0.0440208
0.043362
0.0427054
0.0420328
0.0413519
0.0406203
0.0398558
0.0389347
0.037953
0.0365071
0.0350089
0.0321871
0.0296791
0.0457794
0.0456308
0.0447966
0.0440466
0.0432765
0.04255
0.0418322
0.0411043
0.0403224
0.0394906
0.038507
0.037436
0.0359894
0.034455
0.0320416
0.0298071
0.0468642
0.046253
0.0450376
0.0440345
0.0431629
0.0423873
0.041659
0.040921
0.0401247
0.0392672
0.0382661
0.0371665
0.0357625
0.0342536
0.0321447
0.0300976
0.0487654
0.0470193
0.0453552
0.043994
0.0430463
0.0422337
0.0415026
0.0407638
0.0399656
0.0390965
0.0380882
0.0369755
0.0356054
0.0341244
0.0322098
0.030285
0.0529444
0.0473427
0.0454792
0.043899
0.0429711
0.0421872
0.0414868
0.0407751
0.0400076
0.0391634
0.0381809
0.0370913
0.0357518
0.0342884
0.0324109
0.0304709
0.0447118
0.0447275
0.0444327
0.0440967
0.0436527
0.0431916
0.0427105
0.0422511
0.0417786
0.0413593
0.0408151
0.040369
0.0392153
0.038186
0.0333997
0.0280197
0.0447298
0.0447464
0.0444084
0.044031
0.0435376
0.0430256
0.0424869
0.041956
0.0413963
0.0408613
0.0401866
0.0395648
0.0383113
0.0371889
0.0332949
0.0298885
0.0448706
0.0448813
0.0444546
0.0440061
0.0434429
0.042863
0.0422577
0.0416472
0.0409904
0.0403195
0.0394822
0.0386111
0.0371466
0.0356499
0.0321121
0.0289985
0.0451889
0.0451638
0.0445792
0.0440141
0.0433642
0.0427177
0.0420564
0.0413874
0.0406675
0.0399146
0.0390021
0.0380263
0.036576
0.0350657
0.0322053
0.0296525
0.0457605
0.0456117
0.0447823
0.0440382
0.0432766
0.0425597
0.0418523
0.041135
0.0403634
0.0395415
0.0385651
0.0374992
0.0360494
0.0345064
0.0320657
0.0298001
0.0468445
0.0462332
0.0450224
0.0440253
0.0431618
0.0423954
0.0416769
0.0409487
0.0401618
0.0393133
0.0383187
0.0372237
0.0358175
0.0343023
0.0321731
0.0301025
0.0487454
0.0469993
0.04534
0.0439845
0.0430446
0.0422405
0.0415186
0.0407893
0.0399999
0.0391391
0.038137
0.0370287
0.0356574
0.0341716
0.0322415
0.0302981
0.0529245
0.0473231
0.0454645
0.0438901
0.0429701
0.0421947
0.0415037
0.040802
0.0400436
0.0392082
0.0382325
0.0371479
0.0358078
0.0343403
0.0324481
0.0304892
0.0447057
0.0447212
0.0444291
0.0440964