/*--------------------------------*- C++ -*----------------------------------*\
| =========                 |                                                 |
| \\      /  F ield         | OpenFOAM: The Open Source CFD Toolbox           |
|  \\    /   O peration     | Version:  v1912                                 |
|   \\  /    A nd           | Website:  www.openfoam.com                      |
|    \\/     M anipulation  |                                                 |
\*---------------------------------------------------------------------------*/
FoamFile
{
    version     2.0;
    format      ascii;
    class       surfaceScalarField;
    location    "0.33/fluid";
    object      meshPhi;
}
// * * * * * * * * * * * * * * * * * * * * * * * * * * * * * * * * * * * * * //

dimensions      [0 3 -1 0 0 0 0];
oriented        oriented;


internalField   nonuniform List<scalar> 
41600
(
2.26668e-13
-6.40492e-13
2.36693e-13
-2.44289e-13
4.31131e-13
-1.86637e-12
6.97214e-13
-7.19926e-13
6.20077e-13
-3.00583e-12
1.14756e-12
-1.18597e-12
7.99383e-13
-4.10031e-12
1.6169e-12
-1.673e-12
9.74427e-13
-5.17823e-12
2.13114e-12
-2.20829e-12
1.15054e-12
-6.25356e-12
2.71395e-12
-2.81714e-12
1.33372e-12
-7.32347e-12
3.38732e-12
-3.52366e-12
1.53195e-12
-8.36268e-12
4.17153e-12
-4.35091e-12
1.75824e-12
-9.3123e-12
5.08455e-12
-5.32102e-12
2.03763e-12
-1.00596e-11
6.14093e-12
-6.45553e-12
2.42273e-12
-1.04e-11
7.35087e-12
-7.77792e-12
3.03028e-12
-9.95905e-12
8.72246e-12
-9.32459e-12
4.11184e-12
-8.03003e-12
1.02747e-11
-1.11814e-11
6.14491e-12
-3.29834e-12
1.20631e-11
-1.35693e-11
9.43751e-12
5.7284e-12
1.40909e-11
-1.67533e-11
2.17459e-11
1.78911e-11
-2.59846e-11
6.7596e-13
-1.26184e-12
7.04057e-13
-7.26713e-13
1.28569e-12
-3.67786e-12
2.07383e-12
-2.14156e-12
1.8491e-12
-5.92574e-12
3.41305e-12
-3.52749e-12
2.3837e-12
-8.08784e-12
4.80807e-12
-4.97496e-12
2.90554e-12
-1.02221e-11
6.33557e-12
-6.56481e-12
3.4305e-12
-1.23604e-11
8.06587e-12
-8.37224e-12
3.97601e-12
-1.45041e-11
1.00643e-11
-1.04688e-11
4.56433e-12
-1.66143e-11
1.23911e-11
-1.29226e-11
5.2296e-12
-1.85949e-11
1.50989e-11
-1.57983e-11
6.03329e-12
-2.02645e-11
1.82283e-11
-1.91555e-11
7.09739e-12
-2.13109e-11
2.18001e-11
-2.30492e-11
8.67875e-12
-2.12269e-11
2.58085e-11
-2.75424e-11
1.12915e-11
-1.92523e-11
3.02239e-11
-3.27539e-11
1.58035e-11
-1.44808e-11
3.49994e-11
-3.89572e-11
2.24819e-11
-6.90057e-12
3.98701e-11
-4.62547e-11
1.8642e-12
4.39205e-11
-5.62139e-11
1.11335e-12
-1.84504e-12
1.15386e-12
-1.19109e-12
2.11758e-12
-5.37949e-12
3.39846e-12
-3.50971e-12
3.04545e-12
-8.67277e-12
5.59194e-12
-5.77964e-12
3.92574e-12
-1.18481e-11
7.87469e-12
-8.14793e-12
4.78506e-12
-1.49952e-11
1.03715e-11
-1.07462e-11
5.64964e-12
-1.81699e-11
1.31972e-11
-1.36974e-11
6.54743e-12
-2.13885e-11
1.6459e-11
-1.71185e-11
7.51179e-12
-2.46174e-11
2.02559e-11
-2.11211e-11
8.58848e-12
-2.7756e-11
2.46743e-11
-2.58094e-11
9.84875e-12
-3.06094e-11
2.97784e-11
-3.12748e-11
1.14181e-11
-3.28523e-11
3.55903e-11
-3.75844e-11
1.35333e-11
-3.39937e-11
4.20595e-11
-4.47697e-11
1.66156e-11
-3.34046e-11
4.90215e-11
-5.2822e-11
2.12666e-11
-3.05642e-11
5.61363e-11
-6.16806e-11
2.73351e-11
-2.59077e-11
6.26894e-11
-7.07767e-11
-2.06759e-11
6.80099e-11
-8.22644e-11
1.53122e-12
-2.37076e-12
1.57547e-12
-1.62637e-12
2.91223e-12
-6.91495e-12
4.63952e-12
-4.79145e-12
4.18797e-12
-1.11567e-11
7.63126e-12
-7.88724e-12
5.39806e-12
-1.52596e-11
1.07404e-11
-1.11124e-11
6.57954e-12
-1.93475e-11
1.41356e-11
-1.46451e-11
7.7689e-12
-2.35056e-11
1.79729e-11
-1.86521e-11
9.0045e-12
-2.77763e-11
2.23987e-11
-2.32928e-11
1.03295e-11
-3.21509e-11
2.75496e-11
-2.87201e-11
1.17961e-11
-3.65555e-11
3.35469e-11
-3.50778e-11
1.34703e-11
-4.08297e-11
4.0483e-11
-4.24899e-11
1.54441e-11
-4.46955e-11
4.83913e-11
-5.10393e-11
1.78522e-11
-4.77251e-11
5.71946e-11
-6.07303e-11
2.08821e-11
-4.93431e-11
6.66212e-11
-7.14302e-11
2.47532e-11
-4.89604e-11
7.6079e-11
-8.27737e-11
2.91973e-11
-4.6549e-11
8.4438e-11
-9.36782e-11
-4.25061e-11
9.05047e-11
-1.05675e-10
1.92213e-12
-2.82015e-12
1.9595e-12
-2.02275e-12
3.65526e-12
-8.22906e-12
5.76886e-12
-5.95749e-12
5.25549e-12
-1.32882e-11
9.48354e-12
-9.80091e-12
6.77264e-12
-1.81998e-11
1.33362e-11
-1.37968e-11
8.25376e-12
-2.31224e-11
1.75339e-11
-1.81639e-11
9.74579e-12
-2.81741e-11
2.22686e-11
-2.31071e-11
1.12982e-11
-3.34318e-11
2.77216e-11
-2.88235e-11
1.2966e-11
-3.89261e-11
3.40644e-11
-3.5504e-11
1.48113e-11
-4.46346e-11
4.14545e-11
-4.33317e-11
1.69026e-11
-5.04681e-11
5.00208e-11
-5.24711e-11
1.93116e-11
-5.62463e-11
5.98322e-11
-6.30434e-11
2.20953e-11
-6.16533e-11
7.08354e-11
-7.50771e-11
2.52477e-11
-6.61603e-11
8.27397e-11
-8.84102e-11
2.86346e-11
-6.89191e-11
9.48036e-11
-1.02501e-10
3.17683e-11
-6.89618e-11
1.05458e-10
-1.15766e-10
-6.52902e-11
1.12856e-10
-1.29009e-10
2.27913e-12
-3.17535e-12
2.29824e-12
-2.3722e-12
4.33316e-12
-9.2695e-12
6.7635e-12
-6.98392e-12
6.22789e-12
-1.4982e-11
1.111e-11
-1.14805e-11
8.0222e-12
-2.05501e-11
1.56058e-11
-1.61428e-11
9.77228e-12
-2.61644e-11
2.04891e-11
-2.12225e-11
1.15351e-11
-3.19764e-11
2.59806e-11
-2.69552e-11
1.33723e-11
-3.80994e-11
3.22901e-11
-3.35681e-11
1.53535e-11
-4.46105e-11
3.96182e-11
-4.1284e-11
1.75602e-11
-5.15511e-11
4.81559e-11
-5.03221e-11
2.00863e-11
-5.89266e-11
5.8074e-11
-6.08928e-11
2.30353e-11
-6.66994e-11
6.94997e-11
-7.31815e-11
2.65009e-11
-7.47621e-11
8.24657e-11
-8.7311e-11
3.04976e-11
-8.28496e-11
9.67951e-11
-1.03247e-10
3.48211e-11
-9.02943e-11
1.11828e-10
-1.20555e-10
3.86354e-11
-9.56093e-11
1.25756e-10
-1.3739e-10
-9.42449e-11
1.3607e-10
-1.53901e-10
2.5961e-12
-3.42048e-12
2.58605e-12
-2.66891e-12
4.93401e-12
-9.98982e-12
7.60669e-12
-7.8535e-12
7.08728e-12
-1.61621e-11
1.24826e-11
-1.2897e-11
9.12198e-12
-2.22028e-11
1.75086e-11
-1.81086e-11
1.11017e-11
-2.83299e-11
2.29455e-11
-2.37634e-11
1.30918e-11
-3.47229e-11
2.90338e-11
-3.01183e-11
1.51648e-11
-4.15284e-11
3.60019e-11
-3.74204e-11
1.74059e-11
-4.88655e-11
4.407e-11
-4.59135e-11
1.99207e-11
-5.68351e-11
5.34523e-11
-5.58425e-11
2.28446e-11
-6.55323e-11
6.43543e-11
-6.7456e-11
2.63586e-11
-7.50645e-11
7.69627e-11
-8.10059e-11
3.07052e-11
-8.55762e-11
9.14223e-11
-9.67436e-11
3.61842e-11
-9.72692e-11
1.07767e-10
-1.14882e-10
4.30582e-11
-1.10335e-10
1.25682e-10
-1.35423e-10
5.05902e-11
-1.24139e-10
1.43557e-10
-1.56813e-10
-1.38219e-10
1.58568e-10
-1.80426e-10
2.86819e-12
2.81971e-12
-2.90958e-12
-3.5427e-12
5.44859e-12
8.2892e-12
-8.55676e-12
-1.03524e-11
7.81989e-12
1.35867e-11
-1.40355e-11
-1.67669e-11
1.00527e-11
1.9024e-11
-1.96726e-11
-2.30706e-11
1.22152e-11
2.48749e-11
-2.57573e-11
-2.95001e-11
1.4378e-11
3.13898e-11
-3.25564e-11
-3.62551e-11
1.662e-11
3.88037e-11
-4.03245e-11
-4.35055e-11
1.90368e-11
4.73421e-11
-4.9311e-11
-5.13997e-11
2.17506e-11
5.72247e-11
-5.97672e-11
-6.00764e-11
2.4928e-11
6.86668e-11
-7.19525e-11
-6.96815e-11
2.88103e-11
8.18781e-11
-8.61461e-11
-8.03939e-11
3.37621e-11
9.70614e-11
-1.02667e-10
-9.2466e-11
4.03301e-11
1.14387e-10
-1.21889e-10
-1.0628e-10
4.92313e-11
1.33837e-10
-1.44185e-10
-1.22364e-10
5.98776e-11
1.54061e-10
-1.6837e-10
-1.40234e-10
1.73997e-10
-2.0061e-10
-1.66045e-10
2.2304e-13
-6.52709e-13
2.204e-13
4.23481e-13
-1.90201e-12
6.48995e-13
6.07219e-13
-3.06352e-12
1.06744e-12
7.79186e-13
-4.17994e-12
1.5024e-12
9.43462e-13
-5.28117e-12
1.97731e-12
1.10342e-12
-6.38294e-12
2.51318e-12
1.262e-12
-7.48483e-12
3.12882e-12
1.4222e-12
-8.56591e-12
3.84041e-12
1.58866e-12
-9.57586e-12
4.65995e-12
1.77159e-12
-1.04198e-11
5.59193e-12
1.99635e-12
-1.09323e-11
6.62699e-12
2.32396e-12
-1.08275e-11
7.73014e-12
2.88404e-12
-9.60765e-12
8.81781e-12
3.8877e-12
-6.45039e-12
9.70829e-12
5.36891e-12
-6.17369e-13
1.00557e-11
7.47201e-12
8.87336e-12
6.65398e-13
-1.28566e-12
6.55568e-13
1.26344e-12
-3.74732e-12
1.93032e-12
1.81175e-12
-6.03816e-12
3.17464e-12
2.32513e-12
-8.24318e-12
4.46748e-12
2.81589e-12
-1.0423e-11
5.87828e-12
3.29431e-12
-1.26124e-11
7.46935e-12
3.76913e-12
-1.48169e-11
9.29668e-12
4.24859e-12
-1.70047e-11
1.14085e-11
4.74344e-12
-1.90939e-11
1.38406e-11
5.27496e-12
-2.0931e-11
1.66059e-11
5.894e-12
-2.22636e-11
1.96744e-11
6.72134e-12
-2.27089e-11
2.29356e-11
8.00323e-12
-2.17586e-11
2.61302e-11
1.01037e-11
-1.89621e-11
2.87253e-11
1.29691e-11
-1.46723e-11
2.98394e-11
-1.17485e-11
2.69568e-11
1.09682e-12
-1.87947e-12
1.07437e-12
2.08279e-12
-5.47989e-12
3.16321e-12
2.98715e-12
-8.83535e-12
5.20121e-12
3.83454e-12
-1.20728e-11
7.3169e-12
4.64586e-12
-1.52855e-11
9.62318e-12
5.43882e-12
-1.85327e-11
1.22219e-11
6.22835e-12
-2.18353e-11
1.5205e-11
7.02704e-12
-2.51677e-11
1.86526e-11
7.84647e-12
-2.84441e-11
2.2625e-11
8.70129e-12
-3.1499e-11
2.71461e-11
9.62086e-12
-3.40675e-11
3.21697e-11
1.06734e-11
-3.57799e-11
3.75193e-11
1.19924e-11
-3.62355e-11
4.27842e-11
1.37488e-11
-3.52809e-11
4.71682e-11
1.5783e-11
-3.35665e-11
4.9504e-11
-3.30386e-11
4.76303e-11
1.51021e-12
-2.41453e-12
1.46699e-12
2.86806e-12
-7.04262e-12
4.31849e-12
4.1141e-12
-1.13635e-11
7.09833e-12
5.28283e-12
-1.55452e-11
9.98019e-12
6.40425e-12
-1.97156e-11
1.31167e-11
7.50457e-12
-2.39632e-11
1.66462e-11
8.60651e-12
-2.83347e-11
2.06947e-11
9.72857e-12
-3.28277e-11
2.53738e-11
1.08829e-11
-3.73796e-11
3.07707e-11
1.20709e-11
-4.18526e-11
3.6928e-11
1.32766e-11
-4.60149e-11
4.38009e-11
1.44546e-11
-4.9531e-11
5.11811e-11
1.55096e-11
-5.20019e-11
5.85695e-11
1.62899e-11
-5.31394e-11
6.50027e-11
1.66365e-11
-5.31549e-11
6.90674e-11
-5.3471e-11
6.83936e-11
1.89848e-12
-2.87174e-12
1.82472e-12
3.60555e-12
-8.37956e-12
5.37016e-12
5.17249e-12
-1.35319e-11
8.82209e-12
6.64353e-12
-1.85361e-11
1.23936e-11
8.05816e-12
-2.35545e-11
1.62718e-11
9.45241e-12
-2.87085e-11
2.06272e-11
1.08594e-11
-3.40775e-11
2.56164e-11
1.23086e-11
-3.96955e-11
3.13801e-11
1.38209e-11
-4.55453e-11
3.80346e-11
1.53989e-11
-5.15482e-11
4.56495e-11
1.70033e-11
-5.75458e-11
5.42029e-11
1.8506e-11
-6.32677e-11
6.34976e-11
1.96087e-11
-6.82812e-11
7.30115e-11
1.97973e-11
-7.19371e-11
8.16734e-11
1.86955e-11
-7.35364e-11
8.77737e-11
-7.38048e-11
8.85314e-11
2.25474e-12
-3.23303e-12
2.14043e-12
4.28188e-12
-9.43775e-12
6.29687e-12
6.14237e-12
-1.52543e-11
1.03365e-11
7.88951e-12
-2.09253e-11
1.45047e-11
9.57215e-12
-2.66454e-11
1.90169e-11
1.12369e-11
-3.25681e-11
2.40694e-11
1.29297e-11
-3.88081e-11
2.98431e-11
1.46968e-11
-4.54419e-11
3.65037e-11
1.65814e-11
-5.25093e-11
4.41939e-11
1.86159e-11
-6.00125e-11
5.30143e-11
2.07995e-11
-6.7909e-11
6.29821e-11
2.30436e-11
-7.60839e-11
7.39481e-11
2.50584e-11
-8.42648e-11
8.54359e-11
2.61995e-11
-9.17994e-11
9.63534e-11
2.56388e-11
-9.7333e-11
1.04722e-10
-9.80547e-11
1.07369e-10
2.57272e-12
-3.48229e-12
2.40886e-12
4.88479e-12
-1.01701e-11
7.08304e-12
7.00519e-12
-1.64538e-11
1.16155e-11
8.99487e-12
-2.26044e-11
1.6276e-11
1.09108e-11
-2.88435e-11
2.13006e-11
1.28093e-11
-3.53523e-11
2.69031e-11
1.47495e-11
-4.22768e-11
3.32809e-11
1.67966e-11
-4.97325e-11
4.06156e-11
1.90243e-11
-5.78128e-11
4.90683e-11
2.15167e-11
-6.65981e-11
5.87637e-11
2.43655e-11
-7.61694e-11
6.97562e-11
2.76525e-11
-8.66201e-11
8.19562e-11
3.13919e-11
-9.80536e-11
9.49699e-11
3.5379e-11
-1.10473e-10
1.07757e-10
3.87778e-11
-1.23103e-10
1.18116e-10
-1.34422e-10
1.22119e-10
2.84722e-12
2.62699e-12
-3.60646e-12
5.40432e-12
7.72001e-12
-1.05385e-11
7.74592e-12
1.26453e-11
-1.70679e-11
9.93828e-12
1.76882e-11
-2.34847e-11
1.2044e-11
2.30966e-11
-3.00292e-11
1.41263e-11
2.9093e-11
-3.69021e-11
1.62537e-11
3.58809e-11
-4.42714e-11
1.85061e-11
4.36461e-11
-5.22798e-11
2.09816e-11
5.25533e-11
-6.10543e-11
2.38083e-11
6.27327e-11
-7.07197e-11
2.71601e-11
7.42513e-11
-8.14157e-11
3.12783e-11
8.70493e-11
-9.3322e-11
3.64848e-11
1.00793e-10
-1.06679e-10
4.31068e-11
1.14537e-10
-1.21735e-10
5.04977e-11
1.26022e-10
-1.3774e-10
1.30122e-10
-1.56899e-10
2.18489e-13
-6.63079e-13
1.96234e-13
4.13983e-13
-1.93231e-12
5.77659e-13
5.91419e-13
-3.11259e-12
9.49519e-13
7.54576e-13
-4.24766e-12
1.33512e-12
9.05966e-13
-5.36864e-12
1.75467e-12
1.04665e-12
-6.4931e-12
2.22578e-12
1.17594e-12
-7.62362e-12
2.76356e-12
1.29101e-12
-8.74494e-12
3.37986e-12
1.38652e-12
-9.81833e-12
4.08106e-12
1.45492e-12
-1.07733e-11
4.8637e-12
1.48809e-12
-1.14968e-11
5.70631e-12
1.47963e-12
-1.18184e-11
6.55446e-12
1.41941e-12
-1.14951e-11
7.29527e-12
1.25682e-12
-1.02329e-11
7.72244e-12
8.49631e-13
-7.96173e-12
7.5643e-12
-5.03737e-12
6.90947e-12
6.52122e-13
-1.30586e-12
5.83703e-13
1.23575e-12
-3.80626e-12
1.71819e-12
1.76573e-12
-6.13352e-12
2.824e-12
2.25353e-12
-8.37462e-12
3.97017e-12
2.70697e-12
-1.05924e-11
5.21651e-12
3.12968e-12
-1.28247e-11
6.61535e-12
3.52016e-12
-1.50818e-11
8.21175e-12
3.87022e-12
-1.73411e-11
1.00412e-11
4.16315e-12
-1.95391e-11
1.21232e-11
4.37251e-12
-2.15601e-11
1.44487e-11
4.46355e-12
-2.32283e-11
1.69561e-11
4.39565e-12
-2.43138e-11
1.94899e-11
4.11372e-12
-2.45904e-11
2.17347e-11
3.49949e-12
-2.40239e-11
2.31433e-11
2.36609e-12
-2.31209e-11
2.30735e-11
-2.3625e-11
2.12971e-11
1.0759e-12
-1.90859e-12
9.56652e-13
2.0392e-12
-5.56479e-12
2.81577e-12
2.9148e-12
-8.97249e-12
4.62704e-12
3.72225e-12
-1.22614e-11
6.50281e-12
4.47549e-12
-1.55275e-11
8.54032e-12
5.18216e-12
-1.88333e-11
1.08252e-11
5.84184e-12
-2.22048e-11
1.34317e-11
6.44283e-12
-2.56256e-11
1.64192e-11
6.95715e-12
-2.90286e-11
1.98225e-11
7.33372e-12
-3.22861e-11
2.36323e-11
7.49078e-12
-3.52072e-11
2.77595e-11
7.30633e-12
-3.75625e-11
3.19764e-11
6.60863e-12
-3.91855e-11
3.58333e-11
5.19358e-12
-4.021e-11
3.85991e-11
3.07954e-12
-4.12615e-11
3.95019e-11
-4.33939e-11
3.87999e-11
1.48332e-12
-2.45139e-12
1.30639e-12
2.81207e-12
-7.14996e-12
3.84457e-12
4.02133e-12
-1.15366e-11
6.31539e-12
5.13923e-12
-1.57825e-11
8.87063e-12
6.18716e-12
-2.00183e-11
1.16418e-11
7.17898e-12
-2.43351e-11
1.47452e-11
8.11891e-12
-2.8783e-11
1.82831e-11
8.99663e-12
-3.3366e-11
2.2339e-11
9.77847e-12
-3.80343e-11
2.69658e-11
1.03923e-11
-4.26765e-11
3.21629e-11
1.07035e-11
-4.7114e-11
3.78332e-11
1.04781e-11
-5.11128e-11
4.37154e-11
9.35011e-12
-5.44503e-11
4.92962e-11
6.89876e-12
-5.70789e-11
5.37607e-11
3.27233e-12
-5.9277e-11
5.62315e-11
-6.19055e-11
5.69098e-11
1.86762e-12
-2.91493e-12
1.62519e-12
3.54137e-12
-8.50523e-12
4.78148e-12
5.06638e-12
-1.37342e-11
7.85007e-12
6.47979e-12
-1.88124e-11
1.10171e-11
7.81166e-12
-2.39046e-11
1.44439e-11
9.08473e-12
-2.91334e-11
1.82739e-11
1.03124e-11
-3.45789e-11
2.26343e-11
1.14939e-11
-4.02761e-11
2.76312e-11
1.26029e-11
-4.62108e-11
3.33378e-11
1.35672e-11
-5.23121e-11
3.9769e-11
1.42298e-11
-5.84407e-11
4.68362e-11
1.42789e-11
-6.43696e-11
5.42735e-11
1.31632e-11
-6.97596e-11
6.15422e-11
1.01387e-11
-7.41468e-11
6.77631e-11
5.17612e-12
-7.70442e-11
7.18967e-11
-7.90316e-11
7.39772e-11
2.22205e-12
-3.28099e-12
1.90669e-12
4.21394e-12
-9.57724e-12
5.6075e-12
6.03027e-12
-1.54785e-11
9.19902e-12
7.71711e-12
-2.12305e-11
1.28957e-11
9.31385e-12
-2.70295e-11
1.68831e-11
1.0854e-11
-3.30288e-11
2.13267e-11
1.23643e-11
-3.93403e-11
2.63734e-11
1.38618e-11
-4.60357e-11
3.21484e-11
1.53448e-11
-5.31464e-11
3.87428e-11
1.67744e-11
-6.06612e-11
4.61893e-11
1.80356e-11
-6.85169e-11
5.44149e-11
1.88573e-11
-7.65677e-11
6.31631e-11
1.86852e-11
-8.45061e-11
7.18812e-11
1.66067e-11
-9.1684e-11
7.9613e-11
1.2103e-11
-9.69095e-11
8.51153e-11
-9.77691e-11
8.83689e-11
2.54016e-12
-3.53336e-12
2.14618e-12
4.8172e-12
-1.03186e-11
6.3087e-12
6.8939e-12
-1.66921e-11
1.03391e-11
8.8243e-12
-2.29279e-11
1.44731e-11
1.06565e-11
-2.92484e-11
1.8914e-11
1.24349e-11
-3.58331e-11
2.38423e-11
1.4201e-11
-4.28222e-11
2.94182e-11
1.5994e-11
-5.03213e-11
3.57788e-11
1.78476e-11
-5.84054e-11
4.30266e-11
1.97814e-11
-6.71238e-11
5.12062e-11
2.17809e-11
-7.65018e-11
6.02561e-11
2.37482e-11
-8.65335e-11
6.99258e-11
2.5409e-11
-9.71453e-11
7.96378e-11
2.61919e-11
-1.08058e-10
8.83095e-11
2.54048e-11
-1.18291e-10
9.4383e-11
-1.26342e-10
9.75685e-11
2.81646e-12
2.34096e-12
-3.65887e-12
5.3405e-12
6.87736e-12
-1.06908e-11
7.64103e-12
1.1258e-11
-1.73122e-11
9.77803e-12
1.57321e-11
-2.38159e-11
1.18063e-11
2.05134e-11
-3.04422e-11
1.37786e-11
2.57899e-11
-3.73889e-11
1.57488e-11
3.17267e-11
-4.48168e-11
1.77747e-11
3.84636e-11
-5.28546e-11
1.99209e-11
4.61042e-11
-6.16054e-11
2.22612e-11
5.46927e-11
-7.11525e-11
2.4878e-11
6.41667e-11
-8.15633e-11
2.78506e-11
7.42707e-11
-9.28878e-11
3.12237e-11
8.44059e-11
-1.05136e-10
3.49194e-11
9.3408e-11
-1.18172e-10
3.83299e-11
9.94842e-11
-1.30962e-10
1.01075e-10
-1.44572e-10
2.13548e-13
-6.71477e-13
1.65243e-13
4.03723e-13
-1.95681e-12
4.86304e-13
5.74456e-13
-3.15221e-12
7.98926e-13
7.2834e-13
-4.30227e-12
1.1224e-12
8.66295e-13
-5.43914e-12
1.47317e-12
9.87121e-13
-6.5819e-12
1.8652e-12
1.08676e-12
-7.73587e-12
2.3099e-12
1.1572e-12
-8.89102e-12
2.81533e-12
1.18478e-12
-1.00192e-11
3.38407e-12
1.14831e-12
-1.10709e-11
4.00928e-12
1.01687e-12
-1.19744e-11
4.66831e-12
7.45516e-13
-1.26385e-11
5.31313e-12
2.64116e-13
-1.29613e-11
5.86011e-12
-5.37795e-13
-1.28515e-11
6.19239e-12
-1.69942e-12
-1.2288e-11
6.21665e-12
-1.07827e-11
6.33898e-12
6.37693e-13
-1.32223e-12
4.91561e-13
1.20579e-12
-3.85399e-12
1.44658e-12
1.71624e-12
-6.21059e-12
2.3763e-12
2.17706e-12
-8.48048e-12
3.33783e-12
2.59149e-12
-1.07283e-11
4.37987e-12
2.95671e-12
-1.29943e-11
5.54387e-12
3.26165e-12
-1.5293e-11
6.86398e-12
3.48359e-12
-1.76102e-11
8.36451e-12
3.58298e-12
-1.98987e-11
1.00538e-11
3.49739e-12
-2.20747e-11
1.1913e-11
3.13506e-12
-2.40218e-11
1.38779e-11
2.368e-12
-2.5612e-11
1.58129e-11
1.02825e-12
-2.67646e-11
1.74854e-11
-1.05232e-12
-2.75538e-11
1.858e-11
-3.69513e-12
-2.82579e-11
1.8866e-11
-2.95538e-11
1.84108e-11
1.0531e-12
-1.93219e-12
8.05745e-13
1.99189e-12
-5.63351e-12
2.37098e-12
2.83674e-12
-9.08311e-12
3.89399e-12
3.60183e-12
-1.24125e-11
5.46768e-12
4.29409e-12
-1.57198e-11
7.17118e-12
4.91133e-12
-1.90697e-11
9.07242e-12
5.43879e-12
-2.24925e-11
1.12279e-11
5.8434e-12
-2.59798e-11
1.36788e-11
6.06477e-12
-2.948e-11
1.64412e-11
6.00339e-12
-3.28957e-11
1.94903e-11
5.50744e-12
-3.60907e-11
2.27327e-11
4.36348e-12
-3.89229e-11
2.59722e-11
2.32164e-12
-4.13337e-11
2.88821e-11
-7.40074e-13
-4.3493e-11
3.10434e-11
-4.23064e-12
-4.5762e-11
3.21737e-11
-4.84861e-11
3.26669e-11
1.45382e-12
-2.48119e-12
1.1005e-12
2.75093e-12
-7.23659e-12
3.23778e-12
3.92058e-12
-1.16755e-11
5.31565e-12
4.9842e-12
-1.59711e-11
7.45953e-12
5.95442e-12
-2.02556e-11
9.77642e-12
6.83303e-12
-2.46216e-11
1.23589e-11
7.60693e-12
-2.91214e-11
1.52848e-11
8.24051e-12
-3.37629e-11
1.86123e-11
8.66311e-12
-3.85056e-11
2.23687e-11
8.7503e-12
-4.32563e-11
2.65302e-11
8.29807e-12
-4.787e-11
3.0991e-11
6.99645e-12
-5.21677e-11
3.55245e-11
4.45195e-12
-5.59937e-11
3.97626e-11
4.24261e-13
-5.93243e-11
4.32514e-11
-4.31012e-12
-6.22739e-11
4.56596e-11
-6.52019e-11
4.73001e-11
1.83346e-12
-2.9497e-12
1.36929e-12
3.47064e-12
-8.60614e-12
4.0275e-12
4.95005e-12
-1.38954e-11
6.60842e-12
6.30131e-12
-1.90298e-11
9.2658e-12
7.54483e-12
-2.4175e-11
1.2131e-11
8.69017e-12
-2.94532e-11
1.53182e-11
9.73224e-12
-3.49433e-11
1.89245e-11
1.06435e-11
-4.06785e-11
2.3024e-11
1.13601e-11
-4.66427e-11
2.76563e-11
1.17583e-11
-5.27647e-11
3.28038e-11
1.16161e-11
-5.89074e-11
3.8358e-11
1.05602e-11
-6.48514e-11
4.40782e-11
8.04292e-12
-7.02714e-11
4.95702e-11
3.5495e-12
-7.47144e-11
5.43437e-11
-2.30819e-12
-7.76583e-11
5.79805e-11
-7.93467e-11
6.06857e-11
2.18536e-12
-3.31941e-12
1.60674e-12
4.13808e-12
-9.68857e-12
4.72406e-12
5.90579e-12
-1.56558e-11
7.74526e-12
7.52678e-12
-2.1468e-11
1.08474e-11
9.03061e-12
-2.73215e-11
1.41818e-11
1.04376e-11
-3.3367e-11
1.78799e-11
1.17562e-11
-3.97116e-11
2.2054e-11
1.29775e-11
-4.6418e-11
2.67916e-11
1.40638e-11
-5.3504e-11
3.21424e-11
1.49272e-11
-6.09368e-11
3.8095e-11
1.53914e-11
-6.86197e-11
4.45395e-11
1.5127e-11
-7.63563e-11
5.12192e-11
1.3584e-11
-8.37727e-11
5.76985e-11
1.00778e-11
-9.01627e-11
6.34076e-11
4.74211e-12
-9.43842e-11
6.7814e-11
-9.40589e-11
7.11582e-11
2.50299e-12
-3.57403e-12
1.80886e-12
4.74044e-12
-1.04363e-11
5.31572e-12
6.76826e-12
-1.68791e-11
8.70667e-12
8.63289e-12
-2.31772e-11
1.21764e-11
1.03731e-11
-2.95518e-11
1.58906e-11
1.20207e-11
-3.61781e-11
1.99929e-11
1.36005e-11
-4.31879e-11
2.46056e-11
1.51279e-11
-5.06723e-11
2.98238e-11
1.66032e-11
-5.86821e-11
3.57028e-11
1.8001e-11
-6.72275e-11
4.22326e-11
1.92477e-11
-7.62699e-11
4.92962e-11
2.01809e-11
-8.5701e-11
5.66103e-11
2.05037e-11
-9.5296e-11
6.36667e-11
1.98131e-11
-1.04606e-10
6.97396e-11
1.80344e-11
-1.12691e-10
7.40879e-11
-1.18373e-10
7.69753e-11
2.78055e-12
1.97338e-12
-3.70039e-12
5.26644e-12
5.79591e-12
-1.08109e-11
7.5201e-12
9.48222e-12
-1.75028e-11
9.5945e-12
1.32382e-11
-2.4069e-11
1.15359e-11
1.72381e-11
-3.07479e-11
1.33861e-11
2.16317e-11
-3.77318e-11
1.5184e-11
2.65449e-11
-4.51705e-11
1.69666e-11
3.20741e-11
-5.31749e-11
1.87698e-11
3.82731e-11
-6.18179e-11
2.06271e-11
4.51267e-11
-7.11343e-11
2.2566e-11
5.25055e-11
-8.11138e-11
2.45975e-11
6.00972e-11
-9.16847e-11
2.67143e-11
6.73264e-11
-1.02682e-10
2.8919e-11
7.33208e-11
-1.13777e-10
3.11153e-11
7.71249e-11
-1.24033e-10
7.83542e-11
-1.34939e-10
2.08772e-13
-6.77885e-13
1.28693e-13
3.93836e-13
-1.97547e-12
3.78644e-13
5.58191e-13
-3.18236e-12
6.21767e-13
7.03347e-13
-4.34384e-12
8.72884e-13
8.28831e-13
-5.49272e-12
1.14441e-12
9.31571e-13
-6.64911e-12
1.44661e-12
1.00494e-12
-7.82028e-12
1.78753e-12
1.03729e-12
-9.00002e-12
2.17235e-12
1.00998e-12
-1.01673e-11
2.6017e-12
8.95224e-13
-1.12859e-11
3.06897e-12
6.53932e-13
-1.23063e-11
3.55653e-12
2.33258e-13
-1.31708e-11
4.03172e-12
-4.36766e-13
-1.38171e-11
4.44583e-12
-1.43445e-12
-1.4164e-11
4.74546e-12
-2.69798e-12
-1.40753e-11
4.90027e-12
-1.27061e-11
5.27111e-12
6.23729e-13
-1.33479e-12
3.82869e-13
1.1769e-12
-3.89057e-12
1.12646e-12
1.66872e-12
-6.26953e-12
1.84958e-12
2.1041e-12
-8.56117e-12
2.59606e-12
2.48226e-12
-1.08312e-11
3.40267e-12
2.79503e-12
-1.31215e-11
4.29991e-12
3.02404e-12
-1.54497e-11
5.31194e-12
3.13648e-12
-1.78073e-11
6.45445e-12
3.07935e-12
-2.01579e-11
7.72984e-12
2.77333e-12
-2.24369e-11
9.11954e-12
2.10853e-12
-2.45583e-11
1.05735e-11
9.46192e-13
-2.64333e-11
1.19986e-11
-8.57194e-13
-2.80075e-11
1.32558e-11
-3.34448e-12
-2.92984e-11
1.41899e-11
-6.06907e-12
-3.03525e-11
1.47075e-11
-3.14591e-11
1.47384e-11
1.03098e-12
-1.95037e-12
6.27678e-13
1.94615e-12
-5.68635e-12
1.84659e-12
2.76158e-12
-9.16779e-12
3.03137e-12
3.4866e-12
-1.25273e-11
4.25317e-12
4.12198e-12
-1.58641e-11
5.57174e-12
4.65738e-12
-1.92445e-11
7.03719e-12
5.0671e-12
-2.27012e-11
8.68964e-12
5.3034e-12
-2.62306e-11
1.05558e-11
5.28727e-12
-2.97907e-11
1.26415e-11
4.89826e-12
-3.33003e-11
1.49207e-11
3.96761e-12
-3.66477e-11
1.73199e-11
2.28802e-12
-3.97177e-11
1.97027e-11
-3.14204e-13
-4.24537e-11
2.187e-11
-3.73382e-12
-4.49417e-11
2.36066e-11
-7.04213e-12
-4.73348e-11
2.47783e-11
-4.97744e-11
2.55018e-11
1.42509e-12
-2.50416e-12
8.57445e-13
2.69156e-12
-7.30316e-12
2.52215e-12
3.82317e-12
-1.17815e-11
4.1388e-12
4.83519e-12
-1.61134e-11
5.80338e-12
5.73256e-12
-2.04315e-11
7.59672e-12
6.50707e-12
-2.4829e-11
9.58717e-12
7.13237e-12
-2.93586e-11
1.18302e-11
7.55572e-12
-3.40294e-11
1.43637e-11
7.686e-12
-3.88042e-11
1.71993e-11
7.37859e-12
-4.35959e-11
2.03088e-11
6.42027e-12
-4.82683e-11
2.36059e-11
4.53029e-12
-5.2648e-11
2.69301e-11
1.43947e-12
-5.6563e-11
3.00541e-11
-2.80125e-12
-5.99156e-11
3.27434e-11
-7.08694e-12
-6.26909e-11
3.48271e-11
-6.51546e-11
3.6334e-11
1.79998e-12
-2.97644e-12
1.06707e-12
3.40154e-12
-8.68343e-12
3.13788e-12
4.83688e-12
-1.40177e-11
5.14618e-12
6.12869e-12
-1.91923e-11
7.20961e-12
7.28883e-12
-2.43723e-11
9.42741e-12
8.3159e-12
-2.96789e-11
1.1884e-11
9.19059e-12
-3.51879e-11
1.46485e-11
9.86759e-12
-4.09284e-11
1.77692e-11
1.02628e-11
-4.68781e-11
2.12644e-11
1.02349e-11
-5.29571e-11
2.51062e-11
9.56066e-12
-5.90154e-11
2.92006e-11
7.91323e-12
-6.48124e-11
3.3369e-11
4.89967e-12
-6.99876e-11
3.73598e-11
3.30812e-13
-7.40343e-11
4.09132e-11
-4.86966e-12
-7.64002e-11
4.38042e-11
-7.73351e-11
4.59882e-11
2.14913e-12
-3.34882e-12
1.25231e-12
4.06338e-12
-9.77336e-12
3.68117e-12
5.78372e-12
-1.57893e-11
6.03238e-12
7.3412e-12
-2.16436e-11
8.4414e-12
8.75659e-12
-2.75311e-11
1.10225e-11
1.00391e-11
-3.35992e-11
1.38731e-11
1.11831e-11
-3.99483e-11
1.7073e-11
1.21624e-11
-4.66309e-11
2.06788e-11
1.29202e-11
-5.36486e-11
2.47133e-11
1.33534e-11
-6.09438e-11
2.91484e-11
1.32879e-11
-6.8383e-11
3.388e-11
1.24461e-11
-7.57189e-11
3.87042e-11
1.04398e-11
-8.25166e-11
4.33244e-11
6.9199e-12
-8.803e-11
4.74188e-11
2.3366e-12
-9.12019e-11
5.07067e-11
-8.99128e-11
5.31984e-11
2.4659e-12
-3.60499e-12
1.41007e-12
4.66408e-12
-1.05254e-11
4.14285e-12
6.64379e-12
-1.70189e-11
6.78219e-12
8.44434e-12
-2.33596e-11
9.47704e-12
1.0096e-11
-2.97662e-11
1.23526e-11
1.162e-11
-3.64084e-11
1.55153e-11
1.30279e-11
-4.34087e-11
1.90518e-11
1.43189e-11
-5.08423e-11
2.30232e-11
1.54761e-11
-5.87356e-11
2.74536e-11
1.64595e-11
-6.7061e-11
3.23107e-11
1.71965e-11
-7.57242e-11
3.74752e-11
1.7569e-11
-8.4541e-11
4.27064e-11
1.7424e-11
-9.32017e-11
4.7633e-11
1.66719e-11
-1.0122e-10
5.18109e-11
1.55678e-11
-1.07838e-10
5.48558e-11
-1.12349e-10
5.68975e-11
2.74425e-12
1.53855e-12
-3.73183e-12
5.19183e-12
4.51778e-12
-1.09014e-11
7.39882e-12
7.38748e-12
-1.76443e-11
9.41149e-12
1.03052e-11
-2.42525e-11
1.12683e-11
1.34028e-11
-3.0961e-11
1.30014e-11
1.6791e-11
-3.79553e-11
1.46377e-11
2.05591e-11
-4.53737e-11
1.62e-11
2.47684e-11
-5.33083e-11
1.77082e-11
2.94402e-11
-6.18027e-11
1.91822e-11
3.45344e-11
-7.08476e-11
2.06463e-11
3.99153e-11
-8.03693e-11
2.21412e-11
4.5306e-11
-9.02144e-11
2.37673e-11
5.02643e-11
-1.00134e-10
2.57794e-11
5.42215e-11
-1.09778e-10
2.83865e-11
5.66706e-11
-1.18455e-10
5.74483e-11
-1.28138e-10
2.04677e-13
-6.82356e-13
8.79619e-14
3.85381e-13
-1.98852e-12
2.58753e-13
5.44332e-13
-3.20357e-12
4.24761e-13
6.82172e-13
-4.37322e-12
5.96013e-13
7.97372e-13
-5.53054e-12
7.80784e-13
8.85525e-13
-6.69616e-12
9.85755e-13
9.38357e-13
-7.87849e-12
1.21603e-12
9.42312e-13
-9.07357e-12
1.47467e-12
8.76908e-13
-1.02642e-11
1.76166e-12
7.13502e-13
-1.14198e-11
2.07232e-12
4.14929e-13
-1.24985e-11
2.39581e-12
-6.38151e-14
-1.34482e-11
2.71353e-12
-7.74156e-13
-1.42011e-11
3.00006e-12
-1.76555e-12
-1.46406e-11
3.23025e-12
-2.96802e-12
-1.45588e-11
3.38584e-12
-1.30458e-11
3.71535e-12
6.11747e-13
-1.3437e-12
2.61719e-13
1.15216e-12
-3.91656e-12
7.69901e-13
1.62819e-12
-6.31146e-12
1.26375e-12
2.04222e-12
-8.6185e-12
1.77287e-12
2.39044e-12
-1.09038e-11
2.32175e-12
2.66085e-12
-1.32101e-11
2.93031e-12
2.83044e-12
-1.55566e-11
3.61391e-12
2.86113e-12
-1.79381e-11
4.38184e-12
2.69518e-12
-2.03234e-11
5.23431e-12
2.25211e-12
-2.26556e-11
6.15818e-12
1.42989e-12
-2.48569e-11
7.12229e-12
1.16713e-13
-2.684e-11
8.0727e-12
-1.77132e-12
-2.85263e-11
8.93379e-12
-4.18998e-12
-2.98565e-11
9.62482e-12
-6.67891e-12
-3.07676e-11
1.00805e-11
-3.14925e-11
1.01858e-11
1.01196e-12
-1.96342e-12
4.29146e-13
1.90691e-12
-5.72425e-12
1.26236e-12
2.69733e-12
-9.22835e-12
2.07167e-12
3.38866e-12
-1.26089e-11
2.90503e-12
3.97696e-12
-1.59653e-11
3.80227e-12
4.44611e-12
-1.93645e-11
4.79621e-12
4.76346e-12
-2.28404e-11
5.91238e-12
4.87375e-12
-2.63915e-11
7.16667e-12
4.69215e-12
-2.99789e-11
8.56061e-12
4.09921e-12
-3.35264e-11
1.00753e-11
2.94358e-12
-3.6925e-11
1.16645e-11
1.0682e-12
-4.00507e-11
1.32468e-11
-1.5991e-12
-4.28095e-11
1.47103e-11
-4.81948e-12
-4.52001e-11
1.59351e-11
-7.67249e-12
-4.72887e-11
1.68165e-11
-4.92416e-11
1.73449e-11
1.40031e-12
-2.52074e-12
5.86352e-13
2.64046e-12
-7.3511e-12
1.72454e-12
3.73964e-12
-1.18574e-11
2.82902e-12
4.70813e-12
-1.62139e-11
3.96446e-12
5.54501e-12
-2.05534e-11
5.18475e-12
6.23493e-12
-2.49687e-11
6.53473e-12
6.74318e-12
-2.95115e-11
8.04974e-12
7.00854e-12
-3.41903e-11
9.75239e-12
6.93448e-12
-3.89662e-11
1.16469e-11
6.38112e-12
-4.37499e-11
1.3712e-11
5.16322e-12
-4.83979e-11
1.58915e-11
3.07204e-12
-5.27184e-11
1.80868e-11
-2.68648e-14
-5.64985e-11
2.01666e-11
-3.92324e-12
-5.95692e-11
2.19957e-11
-7.56109e-12
-6.18744e-11
2.34378e-11
-6.37548e-11
2.44204e-11
1.771e-12
-2.99577e-12
7.29829e-13
3.34182e-12
-8.73904e-12
2.14592e-12
4.73942e-12
-1.41049e-11
3.51815e-12
5.98087e-12
-1.93062e-11
4.92573e-12
7.07145e-12
-2.45072e-11
6.43487e-12
8.00191e-12
-2.9827e-11
8.10103e-12
8.74406e-12
-3.53382e-11
9.96817e-12
9.24396e-12
-4.10644e-11
1.20651e-11
9.41322e-12
-4.69754e-11
1.4399e-11
9.11886e-12
-5.2979e-11
1.69473e-11
8.17369e-12
-5.89066e-11
1.96456e-11
6.33799e-12
-6.44902e-11
2.23795e-11
3.37474e-12
-6.9332e-11
2.49981e-11
-7.32033e-13
-7.28868e-11
2.73472e-11
-5.13915e-12
-7.46218e-11
2.92548e-11
-7.49054e-11
3.06077e-11
2.11759e-12
-3.37e-12
8.56663e-13
3.99848e-12
-9.83414e-12
2.51783e-12
5.67804e-12
-1.58839e-11
4.12454e-12
7.18142e-12
-2.17656e-11
5.768e-12
8.52259e-12
-2.7672e-11
7.52449e-12
9.70274e-12
-3.3747e-11
9.45796e-12
1.07075e-11
-4.00846e-11
1.16192e-11
1.15023e-11
-4.67274e-11
1.40414e-11
1.20271e-11
-5.36617e-11
1.67338e-11
1.21887e-11
-6.08079e-11
1.96709e-11
1.18524e-11
-6.80025e-11
2.27774e-11
1.08327e-11
-7.49624e-11
2.59165e-11
8.90425e-12
-8.12216e-11
2.89021e-11
5.89864e-12
-8.60358e-11
3.15389e-11
2.179e-12
-8.84461e-11
3.36297e-11
-8.65782e-11
3.51113e-11
2.43339e-12
-3.62722e-12
9.6471e-13
4.59729e-12
-1.0589e-11
2.83397e-12
6.53531e-12
-1.71174e-11
4.63779e-12
8.28092e-12
-2.3485e-11
6.47644e-12
9.85769e-12
-2.99079e-11
8.43357e-12
1.12792e-11
-3.65505e-11
1.0579e-11
1.25486e-11
-4.35263e-11
1.29677e-11
1.36575e-11
-5.08969e-11
1.56354e-11
1.45857e-11
-5.86676e-11
1.85904e-11
1.53029e-11
-6.67809e-11
2.1802e-11
1.57731e-11
-7.51041e-11
2.51806e-11
1.5964e-11
-8.34115e-11
2.85584e-11
1.58771e-11
-9.13677e-11
3.16947e-11
1.56018e-11
-9.85205e-11
3.43174e-11
1.53314e-11
-1.04275e-10
3.61821e-11
-1.08247e-10
3.73369e-11
2.71218e-12
1.05274e-12
-3.7543e-12
5.12605e-12
3.09082e-12
-1.09656e-11
7.29228e-12
5.05231e-12
-1.77433e-11
9.25159e-12
7.04333e-12
-2.43776e-11
1.10362e-11
9.15193e-12
-3.10998e-11
1.26712e-11
1.14509e-11
-3.80892e-11
1.41758e-11
1.39968e-11
-4.54736e-11
1.55657e-11
1.68247e-11
-5.33288e-11
1.68576e-11
1.99403e-11
-6.16746e-11
1.80785e-11
2.33062e-11
-7.04682e-11
1.92823e-11
2.68181e-11