/*--------------------------------*- C++ -*----------------------------------*\
| =========                 |                                                 |
| \\      /  F ield         | OpenFOAM: The Open Source CFD Toolbox           |
|  \\    /   O peration     | Version:  v1912                                 |
|   \\  /    A nd           | Website:  www.openfoam.com                      |
|    \\/     M anipulation  |                                                 |
\*---------------------------------------------------------------------------*/
FoamFile
{
    version     2.0;
    format      ascii;
    class       volScalarField;
    location    "0.33/fluid";
    object      p;
}
// * * * * * * * * * * * * * * * * * * * * * * * * * * * * * * * * * * * * * //

dimensions      [0 2 -2 0 0 0 0];


internalField   nonuniform List<scalar> 
14592
(
0.0670492
0.0615356
0.0596911
0.0580989
0.0570768
0.0561943
0.0554172
0.0547163
0.0540377
0.0534797
0.0528685
0.0525547
0.0519331
0.052246
0.0513947
0.0539353
0.0627946
0.0610844
0.0594561
0.0581247
0.0571267
0.0562558
0.0554776
0.0547811
0.0541112
0.0535714
0.0529844
0.0527203
0.05215
0.0526345
0.0518163
0.0553839
0.0608824
0.0602448
0.0590127
0.05799
0.0570583
0.0562224
0.0554478
0.0547524
0.054083
0.05355
0.0529778
0.0527538
0.0522344
0.052866
0.0521226
0.0562054
0.059648
0.0594554
0.0585696
0.0577702
0.056929
0.0561408
0.0553803
0.0546889
0.0540186
0.0534879
0.0529243
0.0527327
0.0522604
0.0530189
0.0523944
0.0567602
0.0589139
0.0588492
0.0581696
0.0575106
0.0567432
0.0559935
0.0552412
0.0545415
0.0538496
0.0532879
0.0526841
0.052453
0.0519322
0.0526961
0.0520631
0.0566496
0.0584017
0.0583824
0.0578368
0.0572676
0.0565564
0.0558351
0.055088
0.0543784
0.0536665
0.053079
0.0524505
0.0522105
0.0517028
0.052582
0.0521054
0.0571456
0.0580705
0.0580648
0.0575862
0.0570605
0.0563751
0.055659
0.0548968
0.054152
0.0533843
0.0527114
0.0519635
0.051547
0.0507839
0.0513325
0.0502925
0.0553112
0.0578697
0.057869
0.0574183
0.0569081
0.0562277
0.0555033
0.0547201
0.0539406
0.0531279
0.0523951
0.0515856
0.0511047
0.0503186
0.0510169
0.050239
0.0575283
0.0669245
0.0614126
0.0596053
0.0580551
0.0570881
0.0562677
0.0555618
0.0549426
0.0543577
0.053906
0.0534175
0.0532097
0.0527223
0.0529133
0.0521367
0.05311
0.0626699
0.0609596
0.0593696
0.058081
0.0571391
0.056331
0.0556248
0.055011
0.0544358
0.0540033
0.053539
0.0533771
0.0529302
0.0532369
0.0524369
0.0538667
0.0607548
0.0601158
0.0589215
0.0579417
0.0570663
0.0562934
0.0555905
0.0549773
0.0544015
0.0539747
0.0535219
0.053396
0.0529878
0.0534125
0.0526493
0.0543575
0.0595184
0.0593241
0.0584753
0.0577181
0.0569327
0.0562069
0.0555173
0.0549072
0.0543291
0.0539037
0.0534571
0.0533628
0.0529938
0.0535342
0.052858
0.0547577
0.0587812
0.0587148
0.0580713
0.0574534
0.0567404
0.0560514
0.0553676
0.0547461
0.0541417
0.05368
0.053184
0.0530425
0.0526052
0.0531412
0.0524061
0.0544948
0.0582659
0.058245
0.0577346
0.0572055
0.0565471
0.0558848
0.0552037
0.0545693
0.0539411
0.0534502
0.0529243
0.0527752
0.0523438
0.053016
0.0524137
0.0549695
0.0579308
0.0579236
0.0574794
0.0569924
0.0563579
0.0556978
0.0549974
0.0543221
0.0536295
0.0530424
0.0523784
0.0520344
0.0513018
0.0516299
0.0503277
0.0528978
0.0577257
0.0577237
0.0573067
0.056834
0.0562026
0.0555316
0.0548067
0.0540922
0.0533488
0.052696
0.0519632
0.0515592
0.0508018
0.0513559
0.0503103
0.0553325
0.0668423
0.0613317
0.0595533
0.0580376
0.0571185
0.0563553
0.0557197
0.055187
0.0547121
0.0544008
0.054108
0.0541439
0.0540598
0.0546501
0.0547789
0.0559122
0.062588
0.0608775
0.0593172
0.0580639
0.0571707
0.0564208
0.055786
0.0552601
0.054797
0.0545077
0.0542427
0.0543284
0.0542917
0.0549934
0.0551407
0.056625
0.06067
0.0600299
0.0588648
0.0579202
0.0570937
0.0563792
0.0557475
0.0552221
0.0547578
0.054474
0.0542195
0.0543422
0.0543449
0.0551694
0.0553794
0.0571254
0.0594314
0.0592357
0.0584155
0.0576929
0.0569559
0.0562879
0.0556687
0.0551456
0.0546777
0.0543947
0.0541451
0.0543013
0.0543429
0.0552908
0.0555928
0.0575277
0.058691
0.0586231
0.0580074
0.0574231
0.0567572
0.0561243
0.0555086
0.0549709
0.054472
0.0541472
0.0538389
0.0539405
0.0538951
0.0548325
0.0550347
0.0571507
0.0581724
0.0581501
0.0576667
0.0571702
0.0565574
0.0559492
0.0553335
0.0547795
0.0542519
0.0538929
0.0535457
0.0536345
0.0535762
0.0546515
0.0549352
0.0575191
0.0578333
0.0578248
0.0574067
0.056951
0.05636
0.0557511
0.0551117
0.0545106
0.0539088
0.05344
0.052931
0.0527963
0.0523705
0.053047
0.0524319
0.0549793
0.057624
0.0576209
0.0572292
0.0567866
0.0561968
0.0555742
0.0549061
0.0542601
0.053599
0.0530538
0.0524577
0.0522454
0.0517505
0.0526426
0.0521511
0.0571947
0.0667889
0.061279
0.0595221
0.0580329
0.0571506
0.056431
0.055847
0.0553733
0.0549662
0.0547258
0.054515
0.054607
0.0546049
0.0551371
0.0553172
0.0561654
0.0625347
0.0608238
0.0592858
0.0580595
0.0572039
0.0564982
0.0559156
0.0554494
0.0550548
0.054837
0.054654
0.0547931
0.0548333
0.0554546
0.0556359
0.0567325
0.0606141
0.0599727
0.0588295
0.0579119
0.0571231
0.0564528
0.0558732
0.055407
0.0550101
0.0547964
0.0546205
0.0547918
0.054861
0.0555865
0.0558081
0.0571178
0.0593733
0.0591761
0.0583772
0.0576812
0.0569814
0.0563572
0.0557894
0.0553248
0.054923
0.0547091
0.0545355
0.0547384
0.0548391
0.0556796
0.0559724
0.0574514
0.0586299
0.0585605
0.0579653
0.0574067
0.0567769
0.0561866
0.0556204
0.055139
0.0547029
0.0544435
0.0542047
0.0543479
0.0543478
0.0551706
0.0553326
0.0569844
0.0581082
0.0580845
0.057621
0.0571493
0.0565715
0.0560044
0.0554363
0.0549364
0.0544685
0.0541724
0.0538901
0.05402
0.053998
0.0549637
0.0551826
0.0573037
0.0577655
0.0577555
0.0573567
0.0569248
0.0563672
0.0557972
0.0552024
0.0546515
0.0541036
0.0536913
0.0532359
0.0531339
0.0527197
0.0532804
0.0525336
0.0546107
0.0575523
0.057548
0.0571749
0.0567552
0.0561973
0.0556116
0.0549854
0.0543862
0.0537747
0.0532819
0.0527334
0.0525543
0.0520629
0.0528621
0.0522153
0.0568159
0.0667566
0.0612472
0.059507
0.0580389
0.0571869
0.0565043
0.0559663
0.0555478
0.0552089
0.0550473
0.0549384
0.0551316
0.0552805
0.0558953
0.0562723
0.0570436
0.0625026
0.0607915
0.0592707
0.058066
0.0572413
0.0565732
0.0560375
0.0556275
0.0553024
0.0551653
0.0550864
0.0553282
0.0555214
0.0562192
0.0566001
0.0575732
0.0605797
0.0599374
0.0588111
0.057915
0.0571572
0.0565248
0.0559919
0.0555818
0.0552539
0.0551201
0.0550466
0.0553185
0.0555355
0.0563289
0.0567409
0.0579066
0.059337
0.0591388
0.0583563
0.0576814
0.0570122
0.0564255
0.0559039
0.0554947
0.0551609
0.0550263
0.0549532
0.0552558
0.0555001
0.0564055
0.0568779
0.0582057
0.058591
0.0585204
0.0579411
0.0574029
0.0568028
0.0562488
0.0557272
0.0552992
0.054928
0.0547446
0.0546006
0.0548389
0.0549711
0.055853
0.0561718
0.0576671
0.0580666
0.0580417
0.0575935
0.0571414
0.0565923
0.0560602
0.0555348
0.0550861
0.0546798
0.0544565
0.0542631
0.0544847
0.0545837
0.0556061
0.0559556
0.057918
0.0577206
0.0577097
0.0573255
0.0569123
0.0563819
0.055845
0.05529
0.0547865
0.0542945
0.0539481
0.0535701
0.0535485
0.0532293
0.053831
0.0531507
0.0550491
0.0575042
0.0574989
0.0571399
0.0567381
0.056206
0.0556514
0.0550623
0.0545069
0.0539461
0.0535131
0.0530321
0.0529256
0.0525094
0.0533454
0.0527182
0.0571415
0.0667378
0.0612287
0.0595001
0.0580469
0.057216
0.0565587
0.056051
0.0556664
0.0553658
0.0552417
0.0551743
0.055391
0.0555729
0.0561608
0.0565483
0.0572503
0.0624839
0.0607724
0.0592637
0.0580742
0.0572711
0.0566288
0.0561237
0.0557481
0.0554617
0.0553624
0.0553251
0.0555894
0.0558137
0.0564773
0.0568637
0.0577401
0.0605593
0.0599161
0.0588016
0.0579207
0.0571846
0.0565779
0.0560756
0.0556996
0.0554097
0.0553128
0.0552787
0.0555701
0.0558122
0.0565625
0.0569683
0.0580236
0.0593151
0.0591159
0.0583449
0.0576847
0.057037
0.0564757
0.0559843
0.0556087
0.0553122
0.0552138
0.0551784
0.0554991
0.0557639
0.0566219
0.0570775
0.05829
0.0585669
0.0584953
0.057927
0.0574031
0.0568238
0.0562945
0.055802
0.0554063
0.0550705
0.0549214
0.0548117
0.0550654
0.0552111
0.0560415
0.0563285
0.057706
0.0580403
0.0580145
0.057577
0.0571386
0.0566095
0.0561012
0.0556037
0.0551861
0.0548135
0.0546229
0.0544611
0.0546972
0.0548039
0.0557746
0.056078
0.0579222
0.0576918
0.05768
0.057306
0.056906
0.0563946
0.0558802
0.0553514
0.0548768
0.0544155
0.0540988
0.0537472
0.0537369
0.0534149
0.0539611
0.0532059
0.0549752
0.0574728
0.0574667
0.0571175
0.0567282
0.0562142
0.055681
0.0551164
0.0545881
0.0540554
0.0536499
0.0531918
0.0530959
0.0526715
0.0534567
0.0527394
0.0570365
0.0667281
0.0612191
0.0594984
0.0580551
0.0572388
0.0565993
0.0561138
0.055755
0.0554854
0.0553947
0.0553678
0.0556185
0.0558464
0.0564469
0.0568716
0.0575401
0.0624743
0.0607626
0.0592619
0.0580828
0.0572945
0.0566704
0.0561878
0.0558386
0.0555839
0.0555189
0.055523
0.0558221
0.0560931
0.0567672
0.0571905
0.0580192
0.0605485
0.0599047
0.0587982
0.0579275
0.0572063
0.0566179
0.0561381
0.0557884
0.0555299
0.0554669
0.0554732
0.0557981
0.0560838
0.0568402
0.0572769
0.058277
0.0593032
0.0591034
0.05834
0.0576899
0.0570569
0.0565138
0.0560446
0.055695
0.0554294
0.0553645
0.0553684
0.0557218
0.0560276
0.0568895
0.05737
0.0585248
0.0585536
0.0584814
0.0579203
0.0574061
0.0568411
0.0563294
0.0558583
0.0554877
0.0551813
0.0550642
0.0549913
0.0552758
0.0554576
0.056289
0.0565913
0.0579093
0.0580254
0.057999
0.0575685
0.0571395
0.0566241
0.0561327
0.0556557
0.0552621
0.0549174
0.0547573
0.0546297
0.0548948
0.0550326
0.0560025
0.0563103
0.0580946
0.0576751
0.0576628
0.0572955
0.0569043
0.0564059
0.0559075
0.0553979
0.0549456
0.0545098
0.0542208
0.053899
0.053914
0.0536144
0.0541547
0.0533827
0.055083
0.0574543
0.0574478
0.057105
0.0567241
0.0562224
0.0557042
0.0551575
0.0546498
0.0541402
0.0537599
0.0533276
0.0532541
0.052845
0.0536226
0.0528733
0.0571022
0.0667237
0.0612154
0.0594977
0.0580595
0.0572498
0.0566185
0.0561425
0.0557941
0.0555359
0.0554556
0.0554394
0.0556943
0.0559281
0.0565188
0.0569434
0.0575989
0.0624704
0.0607583
0.0592614
0.0580872
0.0573057
0.0566898
0.0562169
0.055878
0.0556348
0.0555798
0.0555942
0.0558965
0.0561719
0.0568337
0.0572555
0.0580664
0.0605437
0.0598997
0.0587969
0.0579309
0.0572167
0.0566365
0.0561662
0.0558267
0.0555792
0.0555258
0.0555415
0.0558682
0.0561563
0.0568975
0.0573294
0.0583089
0.059298
0.0590977
0.058338
0.0576926
0.0570664
0.0565313
0.0560715
0.055732
0.0554772
0.0554216
0.0554344
0.0557892
0.0560959
0.056941
0.0574136
0.0585467
0.0585475
0.0584749
0.0579174
0.0574077
0.0568493
0.0563454
0.0558834
0.0555225
0.0552265
0.0551183
0.0550534
0.0553387
0.0555199
0.0563338
0.0566242
0.0579195
0.0580186
0.0579918
0.0575647
0.05714
0.056631
0.0561471
0.0556789
0.0552947
0.0549598
0.0548083
0.054688
0.0549538
0.0550894
0.0560411
0.0563323
0.0580925
0.0576674
0.0576547
0.0572907
0.0569036
0.0564113
0.05592
0.0554187
0.0549753
0.0545485
0.0542676
0.0539521
0.0539675
0.0536639
0.0541856
0.0533906
0.0550632
0.0574457
0.0574388
0.0570992
0.0567222
0.0562263
0.0557149
0.0551759
0.0546766
0.0541753
0.0538025
0.0533756
0.0533023
0.0528876
0.053646
0.0528673
0.0570644
0.0766802
0.066055
0.0624914
0.0595219
0.0576968
0.0561612
0.0548418
0.0535889
0.0523372
0.0510602
0.0496711
0.0482077
0.0465003
0.0447108
0.0425201
0.040351
0.0723645
0.0652418
0.0620627
0.0594022
0.0576519
0.0561557
0.0548503
0.0536075
0.0523638
0.0510955
0.0497156
0.0482642
0.0465693
0.0447962
0.0426175
0.0404567
0.0704224
0.0642539
0.0614731
0.0591333
0.0575
0.0560759
0.0548006
0.0535761
0.0523429
0.0510831
0.0497128
0.0482729
0.0465944
0.0448389
0.0426813
0.0405365
0.0691434
0.063412
0.0609651
0.0588533
0.0573337
0.0559775
0.054734
0.0535265
0.0523016
0.0510466
0.0496818
0.0482483
0.0465817
0.0448398
0.0427034
0.0405768
0.068384
0.0627881
0.0605392
0.0585728
0.0571434
0.0558449
0.0546313
0.0534387
0.0522199
0.0509658
0.0496019
0.0481687
0.0465099
0.0447773
0.0426658
0.0405634
0.0678637
0.0623214
0.0602027
0.0583305
0.0569685
0.0557133
0.0545227
0.0533404
0.0521245
0.0508687
0.0495043
0.0480705
0.0464214
0.0447
0.0426212
0.0405488
0.0675375
0.0620132
0.0599624
0.0581403
0.0568167
0.0555859
0.0544066
0.0532256
0.0520058
0.0507412
0.0493693
0.0479262
0.0462802
0.0445623
0.0425183
0.0404786
0.0673516
0.0618334
0.0598123
0.0580115
0.0567036
0.0554808
0.0543021
0.0531155
0.051888
0.0506128
0.0492344
0.0477844
0.0461474
0.0444394
0.0424396
0.0404382
0.0723569
0.06523
0.0620447
0.0593784
0.0576224
0.056122
0.0548133
0.0535622
0.0523041
0.0510198
0.0496183
0.0481454
0.0464176
0.0446211
0.0423948
0.0402343
0.0680777
0.06471
0.0617239
0.0593183
0.0576084
0.056134
0.0548319
0.0535845
0.0523283
0.0510471
0.0496496
0.048183
0.0464627
0.0446768
0.0424598
0.0403094
0.0661364
0.0637971
0.0611916
0.0590983
0.0574846
0.0560695
0.0547897
0.0535552
0.0523059
0.0510305
0.0496408
0.0481836
0.0464782
0.0447082
0.0425112
0.0403756
0.0648675
0.0629649
0.0607033
0.0588376
0.0573315
0.0559797
0.0547285
0.0535088
0.0522668
0.0509956
0.0496113
0.0481606
0.0464676
0.0447115
0.0425359
0.0404184
0.0641138
0.062338
0.0602832
0.0585641
0.0571467
0.0558507
0.0546281
0.053423
0.052187
0.050917
0.0495341
0.0480844
0.0464
0.0446536
0.0425038
0.0404102
0.0635957
0.0618665
0.0599478
0.0583245
0.0569746
0.0557215
0.0545217
0.0533276
0.0520952
0.0508246
0.0494427
0.047994
0.0463217
0.0445885
0.0424741
0.0404105
0.0632709
0.0615562
0.0597082
0.0581359
0.0568249
0.0555955
0.054407
0.0532151
0.0519795
0.0507007
0.0493124
0.0478553
0.0461877
0.0444587
0.0423822
0.0403507
0.0630855
0.0613756
0.059559
0.0580085
0.0567137
0.055492
0.0543044
0.0531082
0.051866
0.050578
0.0491851
0.0477234
0.0460681
0.0443517
0.0423247
0.0403318
0.0704211
0.0642489
0.061468
0.0591301
0.0575029
0.0560918
0.0548317
0.053619
0.0523918
0.0511409
0.0497613
0.0483183
0.0465728
0.0447794
0.0424037
0.0401843
0.0661455
0.0638071
0.0612093
0.0591244
0.0575237
0.0561266
0.0548658
0.053653
0.0524265
0.0511789
0.0498041
0.048369
0.0466324
0.0448517
0.0424844
0.0402756
0.0642143
0.0629489
0.0607361
0.0589598
0.057436
0.0560841
0.0548365
0.0536311
0.0524087
0.0511656
0.0497984
0.048373
0.0466523
0.044888
0.0425385
0.0403411
0.0629589
0.0621382
0.0602742
0.0587246
0.0573006
0.0560057
0.0547818
0.0535882
0.0523713
0.0511315
0.0497697
0.0483515
0.0466447
0.0448963
0.0425701
0.0403921
0.0622136
0.0615205
0.059867
0.0584637
0.0571246
0.0558817
0.0546829
0.0535012
0.0522879
0.051047
0.0496849
0.0482656
0.0465669
0.0448273
0.0425305
0.0403793
0.0616994
0.0610516
0.0595362
0.0582289
0.0569558
0.0557536
0.0545758
0.0534032
0.052192
0.0509489
0.049587
0.0481683
0.0464838
0.0447601
0.0425087
0.0403942
0.0613761
0.0607418
0.0592981
0.0580415
0.0568061
0.0556258
0.0544573
0.0532846
0.0520673
0.0508124
0.0494403
0.0480079
0.0463257
0.0446018
0.0423987
0.0403212
0.0611904
0.0605604
0.0591485
0.0579136
0.0566936
0.0555196
0.0543506
0.0531719
0.0519459
0.0506794
0.0493011
0.0478621
0.0461951
0.0444857
0.0423502
0.0403212
0.0691445
0.0634091
0.0609729
0.0588764
0.0573824
0.0560625
0.054861
0.0536985
0.0525125
0.0513072
0.0499575
0.0485578
0.0467879
0.0450055
0.042401
0.0401094
0.0648798
0.0629775
0.0607352
0.0588919
0.0574189
0.0561084
0.0549027
0.0537386
0.0525529
0.0513512
0.0500076
0.0486181
0.04686
0.0450971
0.0425039
0.0402291
0.0629614
0.0621396
0.0602873
0.0587517
0.0573484
0.0560768
0.0548795
0.0537197
0.0525365
0.0513385
0.0500025
0.0486238
0.046883
0.045138
0.0425583
0.0402877
0.0617169
0.0613417
0.0598385
0.0585292
0.0572218
0.056004
0.0548275
0.0536776
0.0524986
0.0513033
0.0499729
0.0486024
0.0468779
0.0451519
0.0425968
0.0403473
0.0609791
0.0607319
0.0594391
0.0582754
0.0570503
0.0558819
0.0547279
0.0535871
0.0524092
0.0512102
0.0498769
0.0485024
0.0467841
0.0450651
0.0425431
0.0403239
0.0604687
0.0602666
0.0591116
0.0580434
0.0568828
0.0557536
0.0546187
0.0534849
0.0523073
0.0511043
0.0497706
0.0483961
0.0466954
0.0449961
0.0425342
0.0403624
0.0601468
0.0599579
0.0588743
0.0578561
0.0567318
0.055623
0.0544951
0.0533581
0.0521708
0.0509509
0.0496015
0.0482054
0.0465022
0.0447942
0.0423952
0.0402659
0.0599606
0.059776
0.0587239
0.0577269
0.056617
0.0555133
0.0543833
0.0532379
0.0520396
0.0508051
0.0494478
0.0480426
0.0463593
0.0446698
0.0423673
0.0403049
0.0683861
0.0627871
0.0605677
0.0586405
0.0572705
0.0560492
0.0549269
0.053841
0.0527288
0.0516107
0.0503386
0.0490456
0.0473018
0.045603
0.0427091
0.0403271
0.0641274
0.0623518
0.0603357
0.0586637
0.0573141
0.0561011
0.054974
0.0538871
0.0527763
0.0516642
0.050401
0.0491237
0.0473979
0.0457309
0.0428532
0.0404909
0.0622168
0.0615217
0.0598995
0.0585355
0.0572525
0.0560754
0.054954
0.0538697
0.0527606
0.0516523
0.0503978
0.0491338
0.0474283
0.0457825
0.0429096
0.0405379
0.0609798
0.0607317
0.0594585
0.0583201
0.057131
0.0560053
0.0549026
0.0538264
0.0527204
0.0516143
0.0503661
0.0491125
0.0474267
0.0458066
0.042961
0.0406149
0.0602471
0.0601275
0.0590641
0.0580706
0.0569615
0.0558825
0.0547992
0.0537289
0.0526205
0.0515066
0.0502512
0.0489889
0.0473059
0.0456906
0.0428839
0.0405787
0.0597395
0.0596649
0.0587387
0.0578396
0.0567933
0.0557515
0.0546847
0.0536185
0.0525072
0.0513861
0.0501276
0.0488636
0.0472014
0.0456129
0.0428895
0.0406572
0.0594179
0.0593566
0.058501
0.0576508
0.0566391
0.0556152
0.0545517
0.0534773
0.0523501
0.0512032
0.0499185
0.0486177
0.0469404
0.0453256
0.0426827
0.0405067
0.0592303
0.0591734
0.0583487
0.0575187
0.0565197
0.0554989
0.0544304
0.0533435
0.0522006
0.0510328
0.0497345
0.0484176
0.046762
0.0451691
0.0426648
0.0406005
0.0678505
0.0623055
0.0602399
0.0584369
0.0571755
0.0560471
0.0550069
0.0540031
0.0529711
0.051948
0.0507587
0.0495787
0.0478476
0.0462183
0.0428722
0.0403078
0.0635937
0.0618637
0.0600077
0.0584621
0.0572217
0.0561018
0.0550574
0.0540533
0.0530241
0.0520092
0.0508319
0.0496743
0.0479687
0.0463878
0.0430466
0.0404519
0.0616857
0.0610339
0.0595737
0.0583366
0.057162
0.0560769
0.055037
0.0540348
0.0530068
0.0519959
0.0508286
0.0496873
0.0480035
0.0464446
0.043076
0.0404152
0.0604523
0.0602469
0.0591351
0.0581231
0.0570412
0.0560063
0.0549837
0.0539884
0.0529624
0.0519536
0.0507929
0.0496648
0.048004
0.0464779
0.0431333
0.0404957
0.0597219
0.0596449
0.0587421
0.0578738
0.0568704
0.0558802
0.0548742
0.0538815
0.0528493
0.051828
0.0506545
0.0495114
0.0478474
0.0463228
0.0430238
0.0404478
0.0592151
0.0591832
0.0584169
0.0576418
0.0566998
0.0557448
0.0547527
0.0537612
0.0527231
0.0516911
0.0505121
0.0493665
0.0477282
0.0462443
0.0430675
0.0406166
0.0588927
0.0588741
0.0581776
0.0574502
0.056541
0.0556011
0.0546087
0.0536036
0.0525423
0.0514744
0.0502559
0.0490542
0.0473828
0.0458491
0.0427823
0.0404238
0.0587028
0.0586888
0.0580225
0.0573143
0.0564164
0.0554774
0.0544767
0.0534549
0.0523732
0.051278
0.050041
0.0488184
0.0471764
0.0456845
0.0428359
0.0407084
0.0674888
0.0619634
0.0599979
0.0582842
0.0571158
0.0560776
0.0551286
0.0542266
0.0533088
0.0524344
0.0514139
0.0504827
0.0489706
0.0477198
0.044192
0.0416578
0.0632335
0.0615175
0.059765
0.0583101
0.0571635
0.0561349
0.0551827
0.0542821
0.0533692
0.0525066
0.051503
0.0506042
0.0491288
0.0479519
0.0444108
0.0417174
0.0613256
0.0606857
0.0593296
0.0581834
0.0571025
0.0561086
0.0551604
0.0542612
0.0533495
0.0524919
0.0515001
0.0506235
0.0491752
0.0480318
0.0444331
0.0415942
0.0600935
0.0598993
0.058891
0.0579693
0.0569803
0.0560355
0.0551034
0.0542101
0.0532994
0.052444
0.0514597
0.0506014
0.0491826
0.0480895
0.0445176
0.0417006
0.0593633
0.0592974
0.0584971
0.0577181
0.0568059
0.0559036
0.0549852
0.0540908
0.0531691
0.0522952
0.0512903
0.0504092
0.0489776
0.0478853
0.0443671
0.0416559
0.0588558
0.0588351
0.0581703
0.0574835
0.056631
0.0557615
0.0548541
0.0539571
0.0530249
0.0521353
0.0511195
0.050233
0.0488286
0.0477967
0.0444479
0.0419677
0.0585313
0.058524
0.0579281
0.0572876
0.0564656
0.0556078
0.0546952
0.0537776
0.0528121
0.051871
0.0507934
0.0498175
0.0483356
0.0471993
0.0439542
0.041648
0.0583383
0.0583357
0.0577693
0.0571467
0.0563341
0.0554739
0.0545489
0.0536087
0.0526147
0.0516356
0.0505266
0.0495144
0.0480531
0.0469723
0.0440244
0.0422242
0.0672283
0.0617107
0.0598157
0.0581699
0.0570796
0.0561211
0.0552557
0.0544466
0.053631
0.0528816
0.0519952
0.0512365
0.0498448
0.0487246
0.0447041
0.0412672
0.0629732
0.0612615
0.0595816
0.0581955
0.0571282
0.0561803
0.0553125
0.054506
0.0536968
0.0529621
0.0520954
0.0513762
0.050023
0.0489757
0.0447974
0.040535
0.0610635
0.0604259
0.0591425
0.0580653
0.0570639
0.0561507
0.0552867
0.0544814
0.0536729
0.0529435
0.0520889
0.0513949
0.050065
0.0490403
0.0446994
0.0399047
0.0598307
0.0596384
0.058702
0.0578487
0.0569386
0.0560738
0.0552248
0.0544244
0.053616
0.0528885
0.0520413
0.0513693
0.0500705
0.0491048
0.0447739
0.0399224
0.059099
0.0590348
0.0583056
0.0575939
0.056759
0.0559347
0.0550969
0.0542919
0.0534675
0.0527157
0.0518392
0.0511359
0.0498106
0.0488437
0.0445728
0.0398869
0.0585896
0.0585707
0.0579762
0.0573556
0.0565787
0.0557851
0.0549556
0.0541448
0.0533059
0.0525344
0.0516428
0.0509352
0.0496423
0.0487708
0.0447442
0.04044
0.0582621
0.0582567
0.0577301
0.0571546
0.0564059
0.055621
0.0547817
0.0539438
0.0530619
0.0522251
0.0512501
0.0504228
0.0490062
0.0479822
0.0440579
0.0400292
0.0580654
0.0580649
0.057567
0.0570083
0.056267
0.055477
0.0546215
0.0537558
0.0528393
0.0519568
0.050943
0.0500779
0.0486944
0.0478053
0.0443528
0.0413088
0.0577923
0.057793
0.0573342
0.0568115
0.0561104
0.0553558
0.054531
0.0536906
0.0527941
0.0519273
0.0509237
0.0500643
0.0486779
0.04778
0.0442963
0.0412088
0.0578454
0.0578448
0.057345
0.0567842
0.0560423
0.0552462
0.0543773
0.053484
0.0525278
0.0515783
0.0504897
0.0494901
0.0480288
0.0469402
0.04396
0.0421259
0.0580327
0.0580206
0.0574402
0.0568142
0.0560095
0.0551561
0.054232
0.0532746
0.0522449
0.0511906
0.049982
0.0487772
0.0471377
0.0456385
0.0427593
0.0406007
0.0584219
0.0583671
0.0576408
0.0569087
0.056022
0.0551032
0.0541271
0.0531183
0.052039
0.0509213
0.0496585
0.0483645
0.0467154
0.045118
0.0425885
0.0404967
0.0590445
0.058862
0.0579178
0.057029
0.056046
0.0550581
0.0540323
0.0529754
0.0518497
0.0506724
0.0493562
0.047978
0.0463048
0.0446134
0.0422909
0.0402044
0.0602017
0.0595753
0.0582791
0.0571609
0.0560767
0.0550285
0.0539718
0.0528877
0.0517401
0.0505352
0.0492017
0.0477923
0.046138
0.0444288
0.0422771
0.0402266
0.0620438
0.0603401
0.0586457
0.0572182
0.0560651
0.0549745
0.0539053
0.0528089
0.0516489
0.0504258
0.0490801
0.0476499
0.0460093
0.0442947
0.0422545
0.040242
0.0663078
0.0608038
0.0589061
0.0572276
0.0560608
0.0549658
0.0539055
0.0528215
0.051676
0.0504652
0.0491334
0.0477145
0.0460918
0.0443852
0.0423723
0.0403509
0.0576435
0.0576431
0.0572172
0.0567306
0.0560763
0.0553719
0.0546004
0.0538178
0.05298
0.052178
0.051227
0.0504154
0.0489972
0.0479617
0.0439816
0.0398809
0.0576919
0.0576904
0.0572229
0.056697
0.0560001
0.0552514
0.0544321
0.0535914
0.0526873
0.0517948
0.050751
0.0497971
0.048316
0.0471686
0.0438678
0.041505
0.0578746
0.0578617
0.0573132
0.0567208
0.0559589
0.0551501
0.0542713
0.0533604
0.0523747
0.051366
0.0501887
0.0490136
0.0473451
0.0458005
0.0426838
0.0402769
0.0582594
0.058204
0.0575092
0.0568104
0.0559649
0.0550884
0.0541546
0.0531881
0.0521479
0.0510694
0.0498329
0.0485636
0.0468942
0.0452723
0.0425894
0.0403717
0.0588782
0.0586953
0.0577821
0.0569258
0.0559828
0.0550352
0.0540488
0.0530302
0.0519389
0.0507943
0.0494988
0.0481382
0.0464474
0.0447361
0.0423063
0.0401418
0.0600327
0.0594063
0.058141
0.057055
0.05601
0.0550009
0.0539821
0.0529341
0.0518185
0.0506435
0.0493291
0.0479351
0.0462687
0.0445444
0.0423173
0.0402092
0.0618733
0.0601702
0.0585065
0.0571108
0.0559957
0.054943
0.0539107
0.0528485
0.0517187
0.0505229
0.0491949
0.0477782
0.046129
0.044402
0.0423066
0.0402481
0.0661376
0.060636
0.058769
0.0571221
0.0559935
0.0549357
0.0539126
0.0528643
0.05175
0.050568
0.049256
0.0478528
0.0462251
0.0445089
0.0424463
0.0403794
0.0575373
0.0575358
0.0571344
0.0566766
0.0560615
0.055402
0.0546818
0.0539593
0.0531904
0.0524749
0.0516227
0.0509425
0.0496479
0.0487589
0.0446338
0.0402006
0.0575813
0.0575789
0.0571351
0.0566368
0.0559771
0.0552703
0.0544978
0.0537106
0.0528655
0.0520451
0.051078
0.0502247
0.0488208
0.0477722
0.0443299
0.0417537
0.0577596
0.0577461
0.0572206
0.0566545
0.0559277
0.0551577
0.0543209
0.0534562
0.0525189
0.0515662
0.0504425
0.0493331
0.0476975
0.0461971
0.0429408
0.0404145
0.0581406
0.0580845
0.0574125
0.0567392
0.0559273
0.0550869
0.0541916
0.053266
0.0522671
0.051234
0.0500379
0.048815
0.0471617
0.0455625
0.0427781
0.040484
0.0587559
0.0585726
0.0576816
0.0568501
0.0559394
0.0550256
0.0540745
0.053092
0.0520357
0.0509276
0.0496617
0.0483323
0.0466463
0.0449416
0.0424345
0.0402131
0.0599081
0.0592815
0.0580384
0.0569767
0.0559632
0.0549867
0.054001
0.0529864
0.0519024
0.0507589
0.0494688
0.0480982
0.0464331
0.0447084
0.0424232
0.0402669
0.0617472
0.0600446
0.0584029
0.057031
0.0559459
0.054925
0.0539247
0.0528935
0.0517926
0.0506247
0.0493174
0.047919
0.0462696
0.0445389
0.0423989
0.0402996
0.0660118
0.0605119
0.0586669
0.057044
0.0559457
0.0549188
0.0539278
0.0529118
0.0518272
0.0506739
0.0493837
0.0479998
0.0463736
0.0446546
0.0425511
0.0404429
0.0574615
0.0574589
0.0570755
0.0566395
0.0560546
0.0554295
0.0547476
0.0540672
0.0533409
0.0526694
0.0518514
0.0511926
0.0498688
0.0488806
0.0444498
0.0395444
0.0575016
0.0574983
0.0570718
0.0565944
0.0559635
0.055289
0.054552
0.053803
0.0529959
0.0522145
0.051276
0.050443
0.0490139
0.0479016
0.0442377
0.0413745
0.0576762
0.0576619
0.0571533
0.0566071
0.0559075
0.0551675
0.054363
0.0535323
0.0526276
0.0517073
0.0506051
0.0495105
0.0478495
0.0463036
0.042885
0.0401972
0.0580539
0.0579972
0.0573417
0.0566878
0.0559017
0.0550898
0.0542244
0.0533298
0.0523599
0.0513552
0.0501773
0.0489677
0.0472954
0.0456664
0.0427712
0.0403788
0.0586664
0.0584825
0.0576077
0.056795
0.0559092
0.0550221
0.0540988
0.0531444
0.0521138
0.0510302
0.0497795
0.048461
0.0467602
0.0450342
0.0424487
0.0401621
0.0598166
0.0591897
0.0579627
0.0569195
0.0559304
0.0549797
0.0540204
0.0530323
0.0519725
0.0508515
0.0495759
0.0482156
0.0465402
0.0447995
0.0424568
0.0402505
0.0616545
0.059952
0.0583263
0.0569726
0.0559107
0.054915
0.0539406
0.0529343
0.0518563
0.0507094
0.0494159
0.0480274
0.0463708
0.0446279
0.0424446
0.040305
0.0659194
0.0604207
0.0585918
0.0569871
0.0559124
0.0549101
0.053945
0.0529553
0.0518946
0.0507635
0.0494888
0.0481166
0.0464859
0.0447568
0.0426136
0.0404654
0.0574098
0.0574063
0.0570365
0.0566174
0.0560568
0.0554605
0.0548122
0.0541706
0.0534878
0.0528663
0.0520997
0.0514944
0.0502026
0.0492109
0.0446202
0.039382
0.0574466
0.0574425
0.0570289
0.0565677
0.0559597
0.055312
0.0546055
0.0538913
0.0531218
0.0523828
0.0514851
0.0506946
0.049283
0.0481676
0.0443738
0.0413132
0.057618
0.0576032
0.057107
0.056576
0.0558978
0.0551825
0.0544054
0.0536052
0.0527321
0.0518462
0.0507744
0.0497103
0.0480549
0.0465029
0.0429828
0.0401782
0.0579929
0.0579357
0.0572924
0.0566533
0.0558874
0.0550983
0.054258
0.0533905
0.0524479
0.0514719
0.0503178
0.049131
0.0474597
0.0458246
0.0428562
0.0403893
0.058603
0.0584188
0.0575557
0.0567573
0.0558908
0.055025
0.0541246
0.0531944
0.0521874
0.0511276
0.0498955
0.0485937
0.0468914
0.0451589
0.0425195
0.0401813
0.0597517
0.0591245
0.0579092
0.0568799
0.0559097
0.0549794
0.0540417
0.0530759
0.0520376
0.0509377
0.0496779
0.0483311
0.0466539
0.0449064
0.0425223
0.0402751
0.0615885
0.0598861
0.058272
0.0569319
0.0558879
0.0549121
0.0539586
0.052973
0.0519149
0.0507871
0.0495076
0.0481305
0.0464723
0.0447231
0.0425075
0.0403346
0.0658537
0.0603559
0.0585387
0.0569476
0.055891
0.0549081
0.053964
0.0529961
0.0519558
0.0508445
0.0495847
0.0482248
0.0465938
0.0448593
0.0426859
0.0405044
0.0573757
0.0573715
0.057011
0.0566038
0.0560603
0.0554838
0.054858
0.054241
0.0535828
0.0529851
0.0522356
0.0516369
0.0503242
0.0492733
0.0445245
0.0390397
0.0574099
0.0574052
0.0570006
0.0565508
0.0559588
0.0553297
0.054644
0.0539523
0.0532047
0.052487
0.0516035
0.0508194
0.0493887
0.04823
0.0443157
0.041105
0.0575789
0.0575635
0.057076
0.0565557
0.0558927
0.0551947
0.0544366
0.0536565
0.0528025
0.051935
0.0508745
0.0498159
0.0481436
0.0465605
0.0429516
0.0400541
0.0579516
0.057894
0.0572593
0.0566304
0.0558789
0.0551061
0.0542834
0.0534342
0.0525089
0.0515492
0.050405
0.0492235
0.0475392
0.0458821
0.0428507
0.0403233
0.05856
0.0583754
0.0575205
0.0567322
0.0558794
0.0550289
0.0541448
0.0532313
0.0522398
0.0511944
0.0499712
0.0486744
0.0469625
0.0452144
0.0425295
0.0401492
0.0597074
0.05908
0.0578729
0.0568534
0.0558967
0.0549811
0.0540588
0.0531089
0.0520853
0.0509989
0.0497478
0.0484062
0.0467221
0.0449627
0.0425441
0.0402639
0.0615435
0.0598411
0.0582351
0.0569046
0.0558733
0.0549119
0.0539736
0.053003
0.0519589
0.0508439
0.0495729
0.0482013
0.0465384
0.0447801
0.0425377
0.0403378
0.0658088
0.0603116
0.0585026
0.0569213
0.0558776
0.0549088
0.0539799
0.0530279
0.0520023
0.0509045
0.0496542
0.048301
0.0466667
0.0449245
0.0427261
0.0405177
0.0573553
0.0573507
0.0569964
0.0565971
0.0560651
0.0555025
0.054893
0.0542945
0.0536563
0.0530803
0.052351
0.0517692
0.0504594
0.0493886
0.0445536
0.0389044
0.0573878
0.0573827
0.0569839
0.0565416
0.0559605
0.0553443
0.0546734
0.0539983
0.0532683
0.0525692
0.0517021
0.0509315
0.0495005
0.0483268
0.0443446
0.0410364
0.0575551
0.0575394
0.0570574
0.0565442
0.0558914
0.0552052
0.0544606
0.0536951
0.0528562
0.0520042
0.0509565
0.0499084
0.0482339
0.0466394
0.0429797
0.0400211
0.0579264
0.0578685
0.0572393
0.0566172
0.0558751
0.0551134
0.0543029
0.053467
0.0525547
0.0516083
0.0504744
0.0493011
0.0476143
0.0459485
0.0428804
0.0403128
0.0585335
0.0583487
0.0574991
0.0567173
0.0558736
0.0550333
0.0541605
0.0532588
0.0522788
0.0512448
0.05003
0.0487398
0.0470255
0.0452708
0.0425587
0.0401502
0.0596801
0.0590526
0.0578506
0.0568375
0.0558897
0.0549839
0.0540722
0.0531333
0.0521203
0.0510442
0.0498005
0.0484646
0.0467784
0.0450135
0.0425738
0.0402712
0.0615156
0.0598132
0.0582124
0.0568882
0.0558653
0.0549134
0.0539854
0.0530251
0.0519909
0.0508853
0.0496212
0.0482547
0.0465902
0.0448274
0.0425683
0.04035
0.065781
0.0602843
0.0584804
0.0569055
0.0558703
0.0549108
0.0539923
0.053051
0.0520357
0.0509478
0.0497048
0.0483572
0.0467221
0.0449758
0.0427615
0.0405348
0.0573458
0.0573408
0.0569895