/*--------------------------------*- C++ -*----------------------------------*\
| =========                 |                                                 |
| \\      /  F ield         | OpenFOAM: The Open Source CFD Toolbox           |
|  \\    /   O peration     | Version:  v1912                                 |
|   \\  /    A nd           | Website:  www.openfoam.com                      |
|    \\/     M anipulation  |                                                 |
\*---------------------------------------------------------------------------*/
FoamFile
{
    version     2.0;
    format      ascii;
    class       surfaceScalarField;
    location    "0.33/fluid";
    object      phi;
}
// * * * * * * * * * * * * * * * * * * * * * * * * * * * * * * * * * * * * * //

dimensions      [0 3 -1 0 0 0 0];
oriented        oriented;


internalField   nonuniform List<scalar> 
41600
(
5.10695e-05
1.16308e-05
2.98233e-07
-4.98604e-07
4.29907e-05
8.39265e-06
2.71278e-07
-5.85103e-07
3.78702e-05
5.42094e-06
-4.37866e-08
-2.56634e-07
3.51731e-05
2.93772e-06
-4.78759e-07
2.38171e-07
3.36816e-05
1.66111e-06
-1.03506e-06
8.6546e-07
3.27374e-05
1.047e-06
-1.72361e-06
1.62079e-06
3.19752e-05
8.0378e-07
-2.58039e-06
2.53878e-06
3.12174e-05
7.35447e-07
-3.65538e-06
3.67776e-06
3.036e-05
7.59416e-07
-5.01927e-06
5.11723e-06
2.93179e-05
8.21727e-07
-6.78121e-06
7.00155e-06
2.79972e-05
9.05357e-07
-9.09586e-06
9.51126e-06
2.6218e-05
9.33137e-07
-1.21625e-05
1.30086e-05
2.368e-05
9.27131e-07
-1.64036e-05
1.80145e-05
1.95881e-05
5.61162e-07
-2.18049e-05
2.53357e-05
1.24491e-05
2.20545e-07
-2.86477e-05
3.55662e-05
-2.16679e-06
-2.50787e-05
3.96945e-05
6.52516e-05
9.14222e-06
3.11468e-07
-5.74481e-07
6.49954e-05
9.07833e-06
1.93297e-07
-6.22753e-07
6.38844e-05
6.96525e-06
-2.95996e-07
-1.37333e-07
6.25793e-05
4.60511e-06
-9.67665e-07
6.0543e-07
6.13813e-05
3.12403e-06
-1.82548e-06
1.56055e-06
6.02787e-05
2.31711e-06
-2.89812e-06
2.73058e-06
5.91702e-05
1.98866e-06
-4.24499e-06
4.16864e-06
5.79422e-05
1.94614e-06
-5.94774e-06
5.96503e-06
5.64857e-05
2.09021e-06
-8.11999e-06
8.24571e-06
5.46595e-05
2.35401e-06
-1.09344e-05
1.12283e-05
5.22956e-05
2.70599e-06
-1.46337e-05
1.5197e-05
4.90172e-05
3.06705e-06
-1.95434e-05
2.06878e-05
4.43078e-05
3.43397e-06
-2.6259e-05
2.84616e-05
3.65538e-05
3.48614e-06
-3.48607e-05
3.96897e-05
2.39245e-05
3.30275e-06
-4.51696e-05
5.47168e-05
5.85623e-07
-3.9306e-05
6.04781e-05
6.59777e-05
5.93804e-06
3.09603e-07
-5.83173e-07
6.7868e-05
7.6387e-06
1.68711e-07
-6.19327e-07
6.85355e-05
6.75516e-06
-3.50587e-07
-1.06856e-07
6.83442e-05
5.18104e-06
-1.05577e-06
6.71138e-07
6.77568e-05
3.99474e-06
-1.95481e-06
1.6715e-06
6.6956e-05
3.29907e-06
-3.08112e-06
2.90005e-06
6.59833e-05
3.04637e-06
-4.49774e-06
4.41268e-06
6.47956e-05
3.1206e-06
-6.29143e-06
6.30468e-06
6.33095e-05
3.44939e-06
-8.5818e-06
8.70873e-06
6.13797e-05
3.98124e-06
-1.15536e-05
1.18561e-05
5.88086e-05
4.6912e-06
-1.54623e-05
1.60482e-05
5.51575e-05
5.51981e-06
-2.06659e-05
2.18641e-05
4.98119e-05
6.45538e-06
-2.77835e-05
3.01077e-05
4.09681e-05
7.19568e-06
-3.69601e-05
4.20944e-05
2.66036e-05
7.45244e-06
-4.79438e-05
5.81586e-05
4.20036e-06
-4.19534e-05
6.49422e-05
6.47284e-05
3.98361e-06
3.23335e-07
-5.97322e-07
6.67708e-05
6.04979e-06
1.94654e-07
-6.48103e-07
6.8029e-05
5.95712e-06
-3.14808e-07
-1.45373e-07
6.84853e-05
5.11155e-06
-1.00797e-06
6.21115e-07
6.8415e-05
4.35049e-06
-1.89134e-06
1.60596e-06
6.79851e-05
3.9122e-06
-2.99649e-06
2.81323e-06
6.72746e-05
3.84448e-06
-4.38395e-06
4.29635e-06
6.62781e-05
4.1069e-06
-6.13843e-06
6.14859e-06
6.49367e-05
4.66762e-06
-8.37597e-06
8.49918e-06
6.31114e-05
5.50828e-06
-1.1281e-05
1.15792e-05
6.05943e-05
6.62613e-06
-1.51035e-05
1.56857e-05
5.69147e-05
8.00007e-06
-2.02143e-05
2.14136e-05
5.14024e-05
9.62808e-06
-2.72228e-05
2.95625e-05
4.21847e-05
1.12118e-05
-3.63476e-05
4.15491e-05
2.71044e-05
1.21496e-05
-4.7344e-05
5.77272e-05
7.90811e-06
-4.1672e-05
6.50686e-05
6.39667e-05
2.78986e-06
3.48559e-07
-6.21529e-07
6.57689e-05
4.7006e-06
2.48955e-07
-7.01967e-07
6.71505e-05
5.03518e-06
-2.35828e-07
-2.23798e-07
6.79299e-05
4.7185e-06
-9.03728e-07
5.17389e-07
6.82099e-05
4.35592e-06
-1.75518e-06
1.46969e-06
6.80978e-05
4.20885e-06
-2.81635e-06
2.63183e-06
6.76638e-05
4.36897e-06
-4.14192e-06
4.05143e-06
6.69155e-05
4.85035e-06
-5.81078e-06
5.81562e-06
6.58094e-05
5.65938e-06
-7.92988e-06
8.04428e-06
6.42145e-05
6.8197e-06
-1.06764e-05
1.09599e-05
6.19191e-05
8.36323e-06
-1.42825e-05
1.48408e-05
5.84206e-05
1.03396e-05
-1.91237e-05
2.02826e-05
5.29761e-05
1.27986e-05
-2.57728e-05
2.80469e-05
4.35588e-05
1.55276e-05
-3.45543e-05
3.96558e-05
2.77742e-05
1.77115e-05
-4.52113e-05
5.54339e-05
1.25133e-05
-4.0118e-05
6.3287e-05
6.35904e-05
1.97157e-06
3.7921e-07
-6.51295e-07
6.51813e-05
3.56205e-06
3.16836e-07
-7.69208e-07
6.65787e-05
4.09692e-06
-1.36121e-07
-3.23013e-07
6.75442e-05
4.13917e-06
-7.72693e-07
3.86502e-07
6.80751e-05
4.11125e-06
-1.58493e-06
1.29876e-06
6.82272e-05
4.24324e-06
-2.59177e-06
2.40521e-06
6.80528e-05
4.6379e-06
-3.84055e-06
3.74606e-06
6.75613e-05
5.34406e-06
-5.40262e-06
5.40038e-06
6.67173e-05
6.40071e-06
-7.37346e-06
7.47615e-06
6.53942e-05
7.8794e-06
-9.92007e-06
1.01834e-05
6.33755e-05
9.85709e-06
-1.32513e-05
1.37761e-05
6.01242e-05
1.24917e-05
-1.7744e-05
1.88432e-05
5.48258e-05
1.59251e-05
-2.39177e-05
2.60895e-05
4.52655e-05
2.01621e-05
-3.22286e-05
3.71545e-05
2.87595e-05
2.42997e-05
-4.23814e-05
5.22992e-05
1.85541e-05
-3.81053e-05
6.08239e-05
6.34358e-05
1.30732e-06
4.1493e-07
-6.86537e-07
6.49226e-05
2.52744e-06
3.95801e-07
-8.47982e-07
6.63407e-05
3.13822e-06
-1.99096e-08
-4.39413e-07
6.74391e-05
3.42766e-06
-6.20007e-07
2.33033e-07
6.81661e-05
3.6723e-06
-1.38629e-06
1.09832e-06
6.8551e-05
4.04836e-06
-2.32857e-06
2.13852e-06
6.86385e-05
4.6511e-06
-3.48443e-06
3.38371e-06
6.84483e-05
5.54766e-06
-4.91368e-06
4.90034e-06
6.79669e-05
6.79902e-06
-6.69395e-06
6.77704e-06
6.71e-05
8.51988e-06
-8.97027e-06
9.19666e-06
6.56725e-05
1.08293e-05
-1.19079e-05
1.23632e-05
6.31751e-05
1.40311e-05
-1.58535e-05
1.68115e-05
5.87927e-05
1.84151e-05
-2.1208e-05
2.31004e-05
4.99332e-05
2.46609e-05
-2.85428e-05
3.29035e-05
3.32355e-05
3.22046e-05
-3.73872e-05
4.618e-05
3.07955e-05
-3.41544e-05
5.51484e-05
6.33914e-05
4.53481e-07
-7.25054e-07
6.87449e-07
6.48637e-05
4.80952e-07
-9.33517e-07
1.50774e-06
6.63358e-05
1.05379e-07
-5.65592e-07
2.12637e-06
6.75528e-05
-4.55769e-07
6.72099e-08
2.5992e-06
6.84431e-05
-1.17325e-06
8.82683e-07
3.0726e-06
6.90265e-05
-2.04714e-06
1.85285e-06
3.65926e-06
6.93476e-05
-3.1049e-06
2.99729e-06
4.43754e-06
6.94366e-05
-4.3943e-06
4.3693e-06
5.48372e-06
6.92982e-05
-5.97519e-06
6.03843e-06
6.87411e-06
6.88658e-05
-7.9695e-06
8.15927e-06
8.76252e-06
6.80018e-05
-1.04999e-05
1.08881e-05
1.13051e-05
6.6237e-05
-1.38785e-05
1.47006e-05
1.49739e-05
6.28297e-05
-1.83867e-05
2.00153e-05
2.01938e-05
5.50093e-05
-2.47151e-05
2.85347e-05
2.86617e-05
3.93384e-05
-3.22641e-05
3.99982e-05
4.01414e-05
-3.08086e-05
5.03802e-05
5.05622e-05
5.10043e-05
1.16361e-05
1.57874e-07
4.28097e-05
8.408e-06
5.7812e-08
3.75668e-05
5.43851e-06
-2.39342e-07
3.47517e-05
2.95625e-06
-6.19898e-07
3.31385e-05
1.684e-06
-1.10593e-06
3.20555e-05
1.07731e-06
-1.71785e-06
3.1121e-05
8.44939e-07
-2.49084e-06
3.01407e-05
7.91119e-07
-3.46624e-06
2.89902e-05
8.35238e-07
-4.70395e-06
2.75646e-05
9.24572e-07
-6.28019e-06
2.57376e-05
1.04808e-06
-8.31701e-06
2.33316e-05
1.13292e-06
-1.08894e-05
1.99948e-05
1.21916e-06
-1.4286e-05
1.52093e-05
1.0138e-06
-1.80332e-05
7.74133e-06
8.30742e-07
-2.20105e-05
-1.09706e-06
-1.62403e-05
6.51606e-05
9.15609e-06
1.30831e-07
6.47416e-05
9.11063e-06
-9.03407e-08
6.34424e-05
7.00798e-06
-5.66192e-07
6.19422e-05
4.65582e-06
-1.16702e-06
6.05379e-05
3.18738e-06
-1.92457e-06
5.91998e-05
2.39965e-06
-2.88239e-06
5.78015e-05
2.0989e-06
-4.10065e-06
5.62005e-05
2.09395e-06
-5.64958e-06
5.42521e-05
2.28922e-06
-7.62559e-06
5.1777e-05
2.61989e-06
-1.01546e-05
4.85527e-05
3.06305e-06
-1.34244e-05
4.41899e-05
3.53824e-06
-1.75859e-05
3.81125e-05
4.06239e-06
-2.30248e-05
2.91457e-05
4.29525e-06
-2.91753e-05
1.58895e-05
4.24695e-06
-3.53297e-05
1.47666e-06
-2.59902e-05
6.58849e-05
5.95862e-06
1.22126e-07
6.76064e-05
7.68547e-06
-1.27625e-07
6.80771e-05
6.82108e-06
-6.34303e-07
6.768e-05
5.26337e-06
-1.26629e-06
6.68745e-05
4.09896e-06
-2.06082e-06
6.58248e-05
3.43499e-06
-3.06678e-06
6.45466e-05
3.22769e-06
-4.34834e-06
6.29656e-05
3.36419e-06
-5.98061e-06
6.096e-05
3.77806e-06
-8.06506e-06
5.83422e-05
4.42168e-06
-1.07376e-05
5.48557e-05
5.28228e-06
-1.4195e-05
5.00433e-05
6.29581e-06
-1.8611e-05
4.32268e-05
7.47535e-06
-2.438e-05
3.30622e-05
8.45184e-06
-3.09521e-05
1.7996e-05
8.87298e-06
-3.75035e-05
5.09403e-06
-2.75748e-05
6.46372e-05
4.00998e-06
1.34768e-07
6.65129e-05
6.10941e-06
-1.05003e-07
6.75781e-05
6.0435e-06
-6.02356e-07
6.7834e-05
5.22213e-06
-1.22263e-06
6.75519e-05
4.49184e-06
-2.00215e-06
6.68813e-05
4.09727e-06
-2.98814e-06
6.58754e-05
4.09197e-06
-4.24236e-06
6.44984e-05
4.44088e-06
-5.83812e-06
6.26531e-05
5.12093e-06
-7.87355e-06
6.01576e-05
6.12068e-06
-1.04846e-05
5.67436e-05
7.45513e-06
-1.38623e-05
5.19179e-05
9.09894e-06
-1.81917e-05
4.49388e-05
1.10873e-05
-2.38556e-05
3.43853e-05
1.30142e-05
-3.03565e-05
1.85543e-05
1.42259e-05
-3.68659e-05
9.09181e-06
-2.71155e-05
6.38779e-05
2.82132e-06
1.59347e-07
6.55178e-05
4.77153e-06
-5.31531e-08
6.67134e-05
5.13908e-06
-5.26964e-07
6.7302e-05
4.85303e-06
-1.12323e-06
6.73826e-05
4.52887e-06
-1.87278e-06
6.70453e-05
4.43598e-06
-2.81777e-06
6.63362e-05
4.67358e-06
-4.01446e-06
6.52339e-05
5.26341e-06
-5.53102e-06
6.36586e-05
6.22385e-06
-7.4575e-06
6.14373e-05
7.58993e-06
-9.9244e-06
5.82982e-05
9.41919e-06
-1.31075e-05
5.37095e-05
1.17633e-05
-1.71994e-05
4.68446e-05
1.47314e-05
-2.2552e-05
3.60944e-05
1.7973e-05
-2.87629e-05
1.94633e-05
2.065e-05
-3.50043e-05
1.42119e-05
-2.57749e-05
6.35041e-05
2.00734e-06
1.89096e-07
6.49385e-05
3.64211e-06
1.19031e-08
6.61585e-05
4.21462e-06
-4.31707e-07
6.69448e-05
4.29242e-06
-9.98371e-07
6.72909e-05
4.309e-06
-1.71114e-06
6.72368e-05
4.50372e-06
-2.60542e-06
6.6812e-05
4.98846e-06
-3.73063e-06
6.59989e-05
5.82217e-06
-5.14831e-06
6.47283e-05
7.05921e-06
-6.93825e-06
6.28329e-05
8.78851e-06
-9.22324e-06
6.00377e-05
1.11221e-05
-1.2159e-05
5.57691e-05
1.42329e-05
-1.59449e-05
4.9119e-05
1.83523e-05
-2.08885e-05
3.82451e-05
2.33306e-05
-2.67123e-05
2.07803e-05
2.83086e-05
-3.25752e-05
2.09814e-05
-2.40945e-05
6.33527e-05
1.34611e-06
2.23464e-07
6.46897e-05
2.61363e-06
8.73106e-08
6.59405e-05
3.26497e-06
-3.21086e-07
6.68733e-05
3.59303e-06
-8.5342e-07
6.74332e-05
3.88597e-06
-1.52319e-06
6.76356e-05
4.33013e-06
-2.35736e-06
6.75053e-05
5.03087e-06
-3.39649e-06
6.70386e-05
6.06733e-06
-4.69221e-06
6.61946e-05
7.51824e-06
-6.30897e-06
6.48446e-05
9.5215e-06
-8.35322e-06
6.27656e-05
1.2239e-05
-1.09457e-05
5.94098e-05
1.60094e-05
-1.42742e-05
5.38709e-05
2.12425e-05
-1.85592e-05
4.38256e-05
2.85003e-05
-2.36672e-05
2.60819e-05
3.73497e-05
-2.86846e-05
3.4173e-05
-2.12641e-05
6.33116e-05
2.60278e-07
7.27716e-07
6.46413e-05
1.68296e-07
1.59657e-06
6.5957e-05
-2.022e-07
2.25684e-06
6.70226e-05
-6.97889e-07
2.76955e-06
6.77645e-05
-1.32194e-06
3.29279e-06
6.819e-05
-2.09229e-06
3.94975e-06
6.83269e-05
-3.04026e-06
4.82939e-06
6.81857e-05
-4.20708e-06
6.02129e-06
6.77494e-05
-5.64163e-06
7.62099e-06
6.69233e-05
-7.43285e-06
9.81091e-06
6.55336e-05
-9.66645e-06
1.27952e-05
6.30735e-05
-1.25152e-05
1.71063e-05
5.87287e-05
-1.61098e-05
2.33103e-05
4.99091e-05
-2.04727e-05
3.30776e-05
3.32423e-05
-2.46448e-05
4.63971e-05
-1.88179e-05
5.54246e-05
5.09518e-05
1.1641e-05
6.50506e-08
4.26605e-05
8.42188e-06
-7.27666e-08
3.73084e-05
5.45482e-06
-3.42116e-07
3.43814e-05
2.97376e-06
-6.66675e-07
3.26481e-05
1.70542e-06
-1.07801e-06
3.14249e-05
1.1052e-06
-1.59983e-06
3.03148e-05
8.82126e-07
-2.26288e-06
2.91057e-05
8.4036e-07
-3.09751e-06
2.76493e-05
9.00444e-07
-4.14802e-06
2.58171e-05
1.00984e-06
-5.45785e-06
2.34483e-05
1.16044e-06
-7.10861e-06
2.03741e-05
1.2797e-06
-9.09495e-06
1.62687e-05
1.41172e-06
-1.15923e-05
1.10329e-05
1.27493e-06
-1.40723e-05
4.21494e-06
1.09118e-06
-1.62837e-05
-7.11895e-07
-1.13135e-05
6.50866e-05
9.16949e-06
1.58221e-08
6.45303e-05
9.14115e-06
-2.53299e-07
6.30634e-05
7.04871e-06
-6.93253e-07
6.13806e-05
4.70439e-06
-1.2148e-06
5.97761e-05
3.24773e-06
-1.86239e-06
5.82053e-05
2.47768e-06
-2.68409e-06
5.65188e-05
2.20233e-06
-3.73437e-06
5.4546e-05
2.23164e-06
-5.06801e-06
5.21057e-05
2.47305e-06
-6.75792e-06
4.89812e-05
2.86284e-06
-8.88308e-06
4.49024e-05
3.3842e-06
-1.15694e-05
3.94938e-05
3.95217e-06
-1.48498e-05
3.22305e-05
4.59369e-06
-1.89435e-05
2.25631e-05
4.93969e-06
-2.31727e-05
1.01248e-05
4.92767e-06
-2.67279e-05
1.98042e-06
-1.85577e-05
6.58094e-05
5.97871e-06
3.49827e-09
6.73885e-05
7.73033e-06
-2.95938e-07
6.7684e-05
6.88429e-06
-7.65393e-07
6.70947e-05
5.34229e-06
-1.31485e-06
6.60777e-05
4.19846e-06
-1.9946e-06
6.47826e-05
3.56414e-06
-2.85806e-06
6.32009e-05
3.39925e-06
-3.96357e-06
6.12283e-05
3.59382e-06
-5.37022e-06
5.87044e-05
4.08682e-06
-7.15492e-06
5.54005e-05
4.83346e-06
-9.40436e-06
5.10084e-05
5.83126e-06
-1.22499e-05
4.50803e-05
7.00873e-06
-1.57394e-05
3.6988e-05
8.39759e-06
-2.00916e-05
2.60395e-05
9.56115e-06
-2.46251e-05
1.17784e-05
1.00963e-05
-2.84111e-05
5.8525e-06
-1.96685e-05
6.45632e-05
4.03569e-06
1.4577e-08
6.62987e-05
6.16674e-06
-2.76916e-07
6.71924e-05
6.1263e-06
-7.38016e-07
6.72608e-05
5.32794e-06
-1.27675e-06
6.67734e-05
4.62669e-06
-1.94295e-06
6.58647e-05
4.27327e-06
-2.78857e-06
6.45647e-05
4.32676e-06
-3.86986e-06
6.28077e-05
4.75712e-06
-5.24441e-06
6.04576e-05
5.54961e-06
-6.98628e-06
5.72903e-05
6.69856e-06
-9.18235e-06
5.2983e-05
8.23535e-06
-1.19591e-05
4.70459e-05
1.01276e-05
-1.53736e-05
3.87779e-05
1.24437e-05
-1.96337e-05
2.74066e-05
1.46746e-05
-2.40986e-05
1.23314e-05
1.61382e-05
-2.78326e-05
1.03082e-05
-1.92398e-05
6.38061e-05
2.85185e-06
3.71083e-08
6.53101e-05
4.83958e-06
-2.29997e-07
6.63408e-05
5.23842e-06
-6.69802e-07
6.6751e-05
4.98143e-06
-1.1869e-06
6.66377e-05
4.6936e-06
-1.82638e-06
6.6077e-05
4.65194e-06
-2.63572e-06
6.50927e-05
4.96291e-06
-3.66638e-06
6.36351e-05
5.65555e-06
-4.97177e-06
6.15866e-05
6.75988e-06
-6.61928e-06
5.87318e-05
8.32114e-06
-8.69222e-06
5.47432e-05
1.04215e-05
-1.13051e-05
4.90837e-05
1.31114e-05
-1.45237e-05
4.09527e-05
1.65559e-05
-1.85332e-05
2.93629e-05
2.02735e-05
-2.2772e-05
1.33798e-05
2.34321e-05
-2.6315e-05
1.60891e-05
-1.81761e-05
6.34348e-05
2.04179e-06
6.43535e-08
6.47386e-05
3.71863e-06
-1.70902e-07
6.58019e-05
4.32679e-06
-5.83464e-07
6.64207e-05
4.43829e-06
-1.07401e-06
6.65869e-05
4.49704e-06
-1.68075e-06
6.63274e-05
4.75126e-06
-2.44523e-06
6.5651e-05
5.32162e-06
-3.41301e-06
6.45135e-05
6.27679e-06
-4.63206e-06
6.28103e-05
7.68635e-06
-6.16145e-06
6.03321e-05
9.65539e-06
-8.07929e-06
5.67484e-05
1.23307e-05
-1.04845e-05
5.14711e-05
1.58963e-05
-1.34526e-05
4.36037e-05
2.06708e-05
-1.7136e-05
3.18847e-05
2.63593e-05
-2.1079e-05
1.4929e-05
3.21764e-05
-2.43638e-05
2.37881e-05
-1.68645e-05
6.32864e-05
1.3832e-06
9.56657e-08
6.44992e-05
2.69569e-06
-1.02534e-07
6.56029e-05
3.38537e-06
-4.83414e-07
6.6381e-05
3.75006e-06
-9.43283e-07
6.67779e-05
4.08887e-06
-1.51188e-06
6.67974e-05
4.5978e-06
-2.22342e-06
6.64464e-05
5.39205e-06
-3.11596e-06
6.56983e-05
6.56239e-06
-4.22969e-06
6.44818e-05
8.20548e-06
-5.61162e-06
6.26317e-05
1.04814e-05
-7.32907e-06
5.98765e-05
1.35957e-05
-9.45562e-06
5.56478e-05
1.79179e-05
-1.20671e-05
4.90399e-05
2.39774e-05
-1.52579e-05
3.82146e-05
3.22216e-05
-1.87041e-05
2.07826e-05
4.23998e-05
-2.14761e-05
3.81902e-05
-1.48835e-05
6.32485e-05
1.2905e-07
7.6597e-07
6.4461e-05
-2.92847e-08
1.68078e-06
6.56398e-05
-3.76095e-07
2.38042e-06
6.65643e-05
-8.03237e-07
2.93093e-06
6.71609e-05
-1.33125e-06
3.50158e-06
6.74274e-05
-1.98652e-06
4.22551e-06
6.73763e-05
-2.79924e-06
5.20211e-06
6.69991e-05
-3.80136e-06
6.53391e-06
6.62545e-05
-5.02761e-06
8.33606e-06
6.50176e-05
-6.53345e-06
1.08188e-05
6.30768e-05
-8.36674e-06
1.42368e-05
5.99024e-05
-1.0601e-05
1.91781e-05
5.46835e-05
-1.32707e-05
2.63572e-05
4.52114e-05
-1.61931e-05
3.7414e-05
2.87705e-05
-1.84555e-05
5.26514e-05
-1.3132e-05
6.12748e-05
5.09102e-05
1.16456e-05
9.30241e-09
4.25399e-05
8.43422e-06
-1.36705e-07
3.7096e-05
5.46962e-06
-3.67783e-07
3.4073e-05
2.98988e-06
-6.33634e-07
3.22374e-05
1.72519e-06
-9.67577e-07
3.08993e-05
1.1311e-06
-1.39278e-06
2.9654e-05
9.17009e-07
-1.93459e-06
2.82834e-05
8.8742e-07
-2.61438e-06
2.66343e-05
9.64409e-07
-3.46332e-06
2.45824e-05
1.09683e-06
-4.50276e-06
2.19764e-05
1.28062e-06
-5.78321e-06
1.86945e-05
1.44773e-06
-7.26083e-06
1.44827e-05
1.65009e-06
-9.03056e-06
9.4045e-06
1.6272e-06
-1.06213e-05
3.33327e-06
1.54998e-06
-1.17624e-05
-1.37331e-07
-7.84285e-06
6.5027e-05
9.18177e-06
-4.74166e-08
6.43577e-05
9.16871e-06
-3.18444e-07
6.2749e-05
7.08568e-06
-7.0066e-07
6.09089e-05
4.7486e-06
-1.13341e-06
5.91324e-05
3.30255e-06
-1.6632e-06
5.73667e-05
2.54838e-06
-2.33575e-06
5.54504e-05
2.2959e-06
-3.19696e-06
5.32011e-05
2.35626e-06
-4.28747e-06
5.0427e-05
2.6399e-06
-5.65936e-06
4.69133e-05
3.08476e-06
-7.35729e-06
4.24025e-05
3.68051e-06
-9.45847e-06
3.65906e-05
4.34195e-06
-1.19321e-05
2.90712e-05
5.10839e-06
-1.48824e-05
1.96081e-05
5.60052e-06
-1.76829e-05
8.31135e-06
5.71209e-06
-1.95933e-05
2.67479e-06
-1.30585e-05
6.57487e-05
5.99717e-06
-6.0623e-08
6.72106e-05
7.7711e-06
-3.60208e-07
6.73578e-05
6.94169e-06
-7.68637e-07
6.66028e-05
5.41386e-06
-1.22508e-06
6.5404e-05
4.28834e-06
-1.78161e-06
6.39029e-05
3.68021e-06
-2.48872e-06
6.20783e-05
3.55264e-06
-3.39578e-06
5.98133e-05
3.79806e-06
-4.547e-06
5.69357e-05
4.36001e-06
-5.99745e-06
5.32177e-05
5.1959e-06
-7.79745e-06
4.83634e-05
6.31203e-06
-1.00272e-05
4.19992e-05
7.6317e-06
-1.2665e-05
3.36228e-05
9.20326e-06
-1.581e-05
2.28773e-05
1.05447e-05
-1.88239e-05
9.8192e-06
1.122e-05
-2.08609e-05
6.66536e-06
-1.38398e-05
6.45039e-05
4.05929e-06
-5.14463e-08
6.61241e-05
6.21887e-06
-3.44927e-07
6.68728e-05
6.20137e-06
-7.46319e-07
6.67799e-05
5.42358e-06
-1.19358e-06
6.61159e-05
4.74799e-06
-1.73862e-06
6.50077e-05
4.43062e-06
-2.43075e-06
6.34729e-05
4.53519e-06
-3.31763e-06
6.14334e-05
5.03549e-06
-4.44233e-06
5.87415e-05
5.92321e-06
-5.85767e-06
5.51734e-05
7.19608e-06
-7.61435e-06
5.04176e-05
8.89741e-06
-9.78866e-06
4.40559e-05
1.09862e-05
-1.23664e-05
3.55085e-05
1.35546e-05
-1.54377e-05
2.4333e-05
1.60156e-05
-1.83941e-05
1.04379e-05
1.76655e-05
-2.0383e-05
1.13458e-05
-1.34823e-05
6.37488e-05
2.87974e-06
-3.20955e-08
6.51413e-05
4.90134e-06
-3.04962e-07
6.60328e-05
5.32825e-06
-6.88228e-07
6.62895e-05
5.09712e-06
-1.11713e-06
6.60095e-05
4.84128e-06
-1.63969e-06
6.52617e-05
4.84422e-06
-2.30149e-06
6.40585e-05
5.21832e-06
-3.14632e-06
6.23382e-05
5.99795e-06
-4.21396e-06
5.99728e-05
7.22156e-06
-5.55219e-06
5.67464e-05
8.93977e-06
-7.20953e-06
5.23415e-05
1.12508e-05
-9.25354e-06
4.62865e-05
1.41962e-05
-1.16786e-05
3.78918e-05
1.79748e-05
-1.45586e-05
2.64831e-05
2.19994e-05
-1.7347e-05
1.1607e-05
2.5431e-05
-1.92044e-05
1.74464e-05
-1.26697e-05
6.33797e-05
2.07311e-06
-8.6916e-09
6.45767e-05
3.78787e-06
-2.54457e-07
6.55081e-05
4.42795e-06
-6.14559e-07
6.59828e-05
4.56936e-06
-1.02099e-06
6.59943e-05
4.6651e-06
-1.51602e-06
6.55628e-05
4.97082e-06
-2.14032e-06
6.46867e-05
5.61425e-06
-2.93285e-06
6.33109e-05
6.67088e-06
-3.92923e-06
6.13211e-05
8.22075e-06
-5.17082e-06
5.85073e-05
1.03772e-05
-6.70293e-06
5.45477e-05
1.33078e-05
-8.58184e-06
4.89125e-05
1.71907e-05
-1.08119e-05
4.0805e-05
2.23909e-05
-1.34445e-05
2.9254e-05
2.84873e-05
-1.60159e-05
1.33097e-05
3.47137e-05
-1.77022e-05
2.55673e-05
-1.16757e-05
6.32339e-05
1.41676e-06
1.81287e-08
6.43456e-05
2.7697e-06
-1.96083e-07
6.53257e-05
3.49369e-06
-5.29293e-07
6.59708e-05
3.89082e-06
-9.09842e-07
6.62272e-05
4.26977e-06
-1.3729e-06
6.60932e-05
4.83457e-06
-1.95313e-06
6.55668e-05
5.70814e-06
-2.68345e-06
6.46124e-05
6.98923e-06
-3.59369e-06
6.31515e-05
8.78635e-06
-4.71626e-06
6.10188e-05
1.12706e-05
-6.08981e-06
5.79523e-05
1.46719e-05
-7.75333e-06
5.34329e-05
1.93601e-05
-9.71703e-06
4.66404e-05
2.59214e-05
-1.19959e-05
3.59832e-05
3.46724e-05
-1.42319e-05
1.94202e-05
4.54154e-05
-1.56149e-05
4.0401e-05
-1.0297e-05
6.31988e-05
4.66444e-08
8.0041e-07
6.43163e-05
-1.33634e-07
1.75652e-06
6.53805e-05
-4.37936e-07
2.49134e-06
6.61836e-05
-7.90876e-07
3.0753e-06
6.66547e-05
-1.21989e-06
3.68736e-06
6.6787e-05
-1.75318e-06
4.46889e-06
6.6586e-05
-2.41739e-06
5.52734e-06
6.6036e-05
-3.2361e-06
6.97396e-06
6.50908e-05
-4.23252e-06
8.9364e-06
6.36272e-05
-5.43782e-06
1.16387e-05
6.14443e-05
-6.87327e-06
1.53613e-05
5.80543e-05
-8.55327e-06
2.07024e-05
5.27227e-05
-1.04558e-05
2.84381e-05
4.34401e-05
-1.2337e-05
4.00989e-05
2.77554e-05
-1.34278e-05
5.60725e-05
-9.06868e-06
6.40929e-05
5.08774e-05
1.16493e-05
-1.74815e-08
4.24441e-05
8.4445e-06
-1.47883e-07
3.69249e-05
5.48204e-06
-3.30572e-07
3.38215e-05
3.00342e-06
-5.33691e-07
3.18987e-05
1.74167e-06
-7.86435e-07
3.04618e-05
1.15242e-06
-1.10832e-06
2.91002e-05
9.45291e-07
-1.51824e-06
2.75907e-05
9.24837e-07
-2.02979e-06
2.57764e-05
1.01396e-06
-2.66291e-06
2.35368e-05
1.16203e-06
-3.4252e-06
2.07318e-05
1.36703e-06
-4.34532e-06
1.72814e-05
1.56287e-06
-5.37329e-06
1.30053e-05
1.8047e-06
-6.5591e-06
8.10012e-06
1.84307e-06
-7.55923e-06
2.67155e-06
1.81006e-06
-8.14392e-06
1.55058e-07
-5.32635e-06
6.49798e-05
9.19223e-06
-7.01142e-08
6.42198e-05
9.19209e-06
-3.05975e-07
6.24948e-05
7.1171e-06
-6.10786e-07
6.05233e-05
4.7862e-06
-9.44677e-07
5.86011e-05
3.34901e-06
-1.34838e-06
5.66698e-05
2.60798e-06
-1.85993e-06
5.45583e-05
2.37431e-06
-2.51447e-06
5.20754e-05
2.45995e-06
-3.33969e-06
4.90223e-05
2.77747e-06
-4.36977e-06
4.5188e-05
3.26566e-06
-5.62663e-06
4.03319e-05
3.91847e-06
-7.15384e-06
3.42158e-05
4.64911e-06
-8.90224e-06
2.65504e-05
5.50447e-06
-1.09167e-05
1.73448e-05
6.09342e-06
-1.27276e-05
7.03762e-06
6.27603e-06
-1.37521e-05
3.12871e-06
-8.99451e-06
6.57006e-05
6.01302e-06
-8.19676e-08
6.70683e-05
7.80591e-06
-3.41797e-07
6.7094e-05
6.99067e-06
-6.67864e-07
6.62006e-05
5.47489e-06
-1.02036e-06
6.48479e-05
4.36478e-06
-1.44475e-06
6.31715e-05
3.77861e-06
-1.98292e-06
6.11407e-05
3.68219e-06
-2.67281e-06
5.86286e-05
3.96982e-06
-3.54483e-06
5.54553e-05
4.5886e-06
-4.63526e-06
5.13962e-05
5.4973e-06
-5.96993e-06
4.61727e-05
6.70862e-06
-7.59384e-06
3.94796e-05
8.14044e-06
-9.46323e-06
3.09383e-05
9.85263e-06
-1.16169e-05
2.04563e-05
1.13252e-05
-1.35737e-05
8.44434e-06
1.20962e-05
-1.46691e-05
7.27991e-06
-9.54668e-06
6.44569e-05
4.07958e-06
-7.49299e-08
6.59847e-05
6.26348e-06
-3.30323e-07
6.66145e-05
6.2655e-06
-6.50927e-07
6.63869e-05
5.50516e-06
-9.96188e-07
6.55734e-05
4.85125e-06
-1.41161e-06
6.42952e-05
4.5642e-06
-1.93818e-06
6.25607e-05
4.71164e-06
-2.61255e-06
6.02821e-05
5.27044e-06
-3.46432e-06
5.73037e-05
6.23743e-06
-4.52815e-06
5.34042e-05
7.61273e-06
-5.83029e-06
4.82883e-05
9.44878e-06
-7.41294e-06
4.16039e-05
1.16965e-05
-9.23804e-06
3.28915e-05
1.44651e-05
-1.13378e-05
2.19705e-05
1.71049e-05
-1.32527e-05
9.10335e-06
1.88937e-05
-1.43134e-05
1.2185e-05
-9.28401e-06
6.37034e-05
2.90369e-06
-5.96499e-08
6.50067e-05
4.95416e-06
-2.98938e-07
6.57844e-05
5.40495e-06
-6.05326e-07
6.59129e-05
5.19576e-06
-9.36225e-07
6.54917e-05
4.96696e-06
-1.3342e-06
6.45843e-05
5.0075e-06
-1.83737e-06
6.31943e-05
5.43475e-06
-2.47947e-06
6.12512e-05
6.2874e-06
-3.28777e-06
5.8619e-05
7.61078e-06
-4.29334e-06
5.50839e-05
9.45953e-06
-5.52125e-06
5.03425e-05
1.19445e-05
-7.00786e-06
4.39841e-05
1.50985e-05
-8.72226e-06
3.54314e-05
1.91454e-05
-1.06862e-05
2.42601e-05
2.34138e-05
-1.24846e-05
1.03552e-05
2.70556e-05
-1.34615e-05
1.85766e-05
-8.70608e-06
6.33362e-05
2.09996e-06
-4.11717e-08
6.44481e-05
3.84701e-06
-2.5918e-07
6.52716e-05
4.51424e-06
-5.47403e-07
6.56262e-05
4.681e-06
-8.60764e-07
6.55065e-05
4.80804e-06
-1.23738e-06
6.4928e-05
5.15724e-06
-1.71162e-06
6.38812e-05
5.86226e-06
-2.31358e-06
6.23028e-05
7.00416e-06
-3.06757e-06
6.00712e-05
8.67166e-06
-4.0001e-06
5.69779e-05
1.09844e-05
-5.13444e-06
5.27134e-05
1.41264e-05
-6.49932e-06
4.68028e-05
1.82696e-05
-8.07228e-06
3.8551e-05
2.38134e-05
-9.86074e-06
2.72209e-05
3.02368e-05
-1.15089e-05
1.21708e-05
3.67819e-05
-1.23783e-05
2.70703e-05
-7.99853e-06
6.31927e-05
1.44544e-06
-2.00299e-08
6.4224e-05
2.83282e-06
-2.1325e-07
6.51034e-05
3.58598e-06
-4.80414e-07
6.56376e-05
4.01062e-06
-7.73631e-07
6.57747e-05
4.42355e-06
-1.12552e-06
6.55091e-05
5.03556e-06
-1.56589e-06
6.48322e-05
5.97609e-06
-2.12039e-06
6.37015e-05
7.35047e-06
-2.80928e-06
6.20328e-05
9.27705e-06
-3.65293e-06
5.96625e-05
1.19357e-05
-4.6708e-06
5.63404e-05
1.55757e-05
-5.88052e-06
5.15936e-05
2.05657e-05
-7.26642e-06
4.46909e-05
2.75343e-05
-8.81411e-06
3.42434e-05
3.66952e-05
-1.02428e-05
1.84624e-05
4.78842e-05
-1.09361e-05
4.23044e-05
-7.06872e-06
6.31599e-05
2.40676e-09
8.2977e-07
6.42022e-05
-1.64157e-07
1.82101e-06
6.51733e-05
-4.08689e-07
2.58572e-06
6.58754e-05
-6.80418e-07
3.19804e-06
6.62398e-05
-1.00597e-06
3.84516e-06
6.6257e-05
-1.41024e-06
4.67541e-06
6.5927e-05
-1.91422e-06
5.803e-06
6.52287e-05
-2.53381e-06
7.3464e-06
6.41126e-05
-3.283e-06
9.44371e-06
6.24575e-05
-4.17684e-06
1.23298e-05
6.00752e-05
-5.22148e-06
1.63062e-05
5.65173e-05
-6.40693e-06
2.19773e-05
5.1127e-05
-7.69681e-06
3.01657e-05
4.2061e-05
-8.89124e-06
4.23154e-05
2.70606e-05
-9.41845e-06
5.88752e-05
-6.23189e-06
6.65282e-05
5.08534e-05
1.16523e-05
-2.31547e-08
4.23732e-05
8.45255e-06
-1.20276e-07
3.67974e-05
5.49177e-06
-2.46511e-07
3.36335e-05
3.01417e-06
-3.8398e-07
3.16459e-05
1.75479e-06
-5.53646e-07
3.01378e-05
1.1695e-06
-7.69708e-07
2.86961e-05
9.68153e-07
-1.04465e-06
2.70972e-05
9.55505e-07
-1.38639e-06
2.51855e-05
1.05531e-06
-1.80656e-06
2.28488e-05
1.21773e-06
-2.30627e-06
1.99609e-05
1.44272e-06
-2.90012e-06
1.64687e-05
1.66621e-06
-3.54728e-06
1.22345e-05
1.94617e-06
-4.27104e-06
7.48642e-06
2.03826e-06
-4.84944e-06
2.41377e-06
2.05055e-06
-5.12182e-06
3.9703e-07
-3.3096e-06
6.49449e-05
9.20049e-06
-6.31801e-08
6.4117e-05
9.21046e-06
-2.3599e-07
6.23042e-05
7.14178e-06
-4.4804e-07
6.02333e-05
4.81579e-06
-6.75353e-07
5.82018e-05
3.38554e-06
-9.4764e-07
5.61486e-05
2.6548e-06
-1.29208e-06
5.38988e-05
2.43584e-06
-1.73233e-06
5.12588e-05
2.54131e-06
-2.28546e-06
4.80306e-05
2.88549e-06
-2.9718e-06
4.4014e-05
3.40798e-06
-3.80029e-06
3.89896e-05
4.10614e-06
-4.79281e-06
3.27658e-05
4.8924e-06
-5.90468e-06
2.51261e-05
5.81938e-06
-7.15019e-06
1.61706e-05
6.48628e-06
-8.22015e-06
6.45933e-06
6.73044e-06
-8.72077e-06
3.49083e-06
-5.62897e-06
6.56649e-05
6.02553e-06
-7.19231e-08
6.69623e-05
7.83331e-06
-2.61988e-07
6.68961e-05
7.02917e-06
-4.89073e-07
6.58979e-05
5.52281e-06
-7.29169e-07
6.44296e-05
4.42466e-06
-1.01559e-06
6.26242e-05
3.85542e-06
-1.37811e-06
6.04467e-05
3.78292e-06
-1.84242e-06
5.77677e-05
4.10282e-06
-2.42736e-06
5.44078e-05
4.76474e-06
-3.15462e-06
5.01531e-05
5.7283e-06
-4.03555e-06
4.47473e-05
7.01076e-06
-5.09262e-06
3.79345e-05
8.52591e-06
-6.28399e-06
2.94143e-05
1.03417e-05
-7.61896e-06
1.9195e-05
1.19112e-05
-8.7793e-06
7.81913e-06
1.27538e-05
-9.31659e-06
7.7451e-06
-5.98181e-06
6.44222e-05
4.0956e-06
-6.72087e-08
6.58809e-05
6.2986e-06
-2.5434e-07
6.6421e-05
6.31589e-06
-4.7771e-07
6.60913e-05
5.56912e-06
-7.128e-07
6.51655e-05
4.93193e-06
-9.93085e-07
6.37623e-05
4.66811e-06
-1.3477e-06
6.18861e-05
4.84814e-06
-1.8015e-06
5.94464e-05
5.45097e-06
-2.37281e-06
5.62883e-05
6.47694e-06
-3.08227e-06
5.22006e-05
7.92728e-06
-3.94158e-06
4.69095e-05
9.86037e-06
-4.97144e-06
4.01108e-05
1.22204e-05
-6.13379e-06
3.14209e-05
1.51275e-05
-7.43373e-06
2.07572e-05
1.78889e-05
-8.56676e-06
8.51153e-06
1.97678e-05
-9.08169e-06
1.27823e-05
-5.8097e-06
6.367e-05
2.92258e-06
-5.66433e-08
6.49067e-05
4.9957e-06
-2.32732e-07
6.55984e-05
5.46516e-06
-4.46339e-07
6.56299e-05
5.27299e-06
-6.71576e-07
6.51027e-05
5.06497e-06
-9.39963e-07
6.40779e-05
5.13417e-06
-1.27868e-06
6.25557e-05
5.60152e-06
-1.71065e-06
6.04631e-05
6.50856e-06
-2.25272e-06
5.76648e-05
7.90507e-06
-2.92325e-06
5.39568e-05
9.84747e-06
-3.73338e-06
4.90554e-05
1.24542e-05
-4.70029e-06
4.25947e-05
1.57498e-05
-5.79097e-06
3.40674e-05
1.9973e-05
-7.00436e-06
2.3141e-05
2.43952e-05
-8.06447e-06
9.81943e-06
2.81583e-05
-8.5304e-06
1.93355e-05
-5.43985e-06
6.33042e-05
2.12108e-06
-4.38931e-08
6.43526e-05
3.89347e-06
-2.05338e-07
6.50949e-05
4.58189e-06
-4.06444e-07
6.53585e-05
4.76829e-06
-6.19661e-07
6.51403e-05
4.91931e-06
-8.73478e-07
6.44539e-05
5.30151e-06
-1.19253e-06
6.32864e-05
6.05271e-06
-1.59733e-06
6.15727e-05
7.25756e-06
-2.10282e-06
5.91919e-05
9.01017e-06
-2.72447e-06
5.59445e-05
1.1433e-05
-3.47251e-06
5.15395e-05
1.47194e-05
-4.3595e-06
4.55422e-05
1.90332e-05
-5.3584e-06
3.73215e-05
2.47928e-05
-6.45991e-06
2.62231e-05
3.14103e-05
-7.42563e-06
1.1707e-05
3.81251e-05
-7.82905e-06
2.8029e-05
-4.98505e-06
6.31624e-05
1.46797e-06
-2.93044e-08
6.41339e-05
2.88235e-06
-1.73685e-07
6.49375e-05
3.65826e-06
-3.60325e-07
6.53877e-05
4.10417e-06
-5.59768e-07
6.54352e-05
4.5431e-06
-7.96759e-07
6.50728e-05
5.19084e-06
-1.09287e-06
6.42895e-05
6.18138e-06
-1.46569e-06
6.30412e-05
7.62416e-06
-1.92762e-06
6.12452e-05
9.64356e-06
-2.49034e-06
5.87462e-05
1.24233e-05
-3.16211e-06
5.53108e-05
1.62233e-05
-3.94906e-06
5.05015e-05
2.14058e-05
-4.82966e-06
4.3642e-05
2.86209e-05
-5.78268e-06
3.34136e-05
3.80128e-05
-6.61688e-06
1.8103e-05
4.94249e-05
-6.92534e-06
4.34754e-05
-4.41213e-06
6.31314e-05
-1.3843e-08
8.52782e-07
6.4118e-05
-1.39873e-07
1.87155e-06
6.50189e-05
-3.10963e-07
2.65956e-06
6.56446e-05
-4.95709e-07
3.2938e-06
6.59288e-05
-7.14762e-07
3.96771e-06
6.5861e-05
-9.86394e-07
4.83474e-06
6.54395e-05
-1.32511e-06
6.01379e-06
6.46426e-05
-1.74058e-06
7.62781e-06
6.34226e-05
-2.2405e-06
9.82106e-06
6.16664e-05
-2.83075e-06
1.28334e-05
5.9202e-05
-3.51076e-06
1.6977e-05
5.56111e-05
-4.26382e-06
2.28535e-05
5.02849e-05
-5.05687e-06
3.13071e-05
4.14348e-05
-5.74948e-06
4.37212e-05
2.68482e-05
-5.96987e-06
6.05629e-05
-3.89018e-06
6.79819e-05