/*--------------------------------*- C++ -*----------------------------------*\
| =========                 |                                                 |
| \\      /  F ield         | OpenFOAM: The Open Source CFD Toolbox           |
|  \\    /   O peration     | Version:  v1912                                 |
|   \\  /    A nd           | Website:  www.openfoam.com                      |
|    \\/     M anipulation  |                                                 |
\*---------------------------------------------------------------------------*/
FoamFile
{
    version     2.0;
    format      ascii;
    class       pointVectorField;
    location    "0.33/fluid";
    object      pointMotionU;
}
// * * * * * * * * * * * * * * * * * * * * * * * * * * * * * * * * * * * * * //

dimensions      [0 1 -1 0 0 0 0];


internalField   nonuniform List<vector> 
16859
(
(0 0 0)
(0 0 0)
(0 0 0)
(0 0 0)
(0 0 0)
(0 0 0)
(0 0 0)
(0 0 0)
(0 0 0)
(0 0 0)
(0 0 0)
(0 0 0)
(0 0 0)
(0 0 0)
(0 0 0)
(0 0 0)
(2.9958e-08 5.15563e-08 2.79319e-08)
(0 0 0)
(7.30202e-10 -1.80322e-09 1.38973e-09)
(1.38997e-09 -3.45132e-09 2.70584e-09)
(2.0018e-09 -5.01096e-09 4.04102e-09)
(2.58576e-09 -6.53117e-09 5.47647e-09)
(3.16082e-09 -8.04145e-09 7.08622e-09)
(3.74673e-09 -9.54986e-09 8.9402e-09)
(4.3668e-09 -1.10376e-08 1.11055e-08)
(5.05316e-09 -1.2447e-08 1.36464e-08)
(5.85816e-09 -1.36598e-08 1.66243e-08)
(6.8797e-09 -1.44571e-08 2.01005e-08)
(8.31564e-09 -1.44416e-08 2.41473e-08)
(1.05939e-08 -1.28707e-08 2.88993e-08)
(1.46283e-08 -8.31204e-09 3.47105e-08)
(2.21905e-08 1.93629e-09 4.24837e-08)
(3.44888e-08 1.99806e-08 5.28239e-08)
(5.92532e-08 5.88304e-08 6.70676e-08)
(0 0 0)
(1.447e-09 -3.55291e-09 2.74445e-09)
(2.75426e-09 -6.80271e-09 5.34305e-09)
(3.96617e-09 -9.88148e-09 7.97757e-09)
(5.12227e-09 -1.2887e-08 1.08069e-08)
(6.26005e-09 -1.58823e-08 1.39769e-08)
(7.41823e-09 -1.88912e-08 1.76254e-08)
(8.64105e-09 -2.18887e-08 2.18845e-08)
(9.98616e-09 -2.47817e-08 2.68791e-08)
(1.15406e-08 -2.73761e-08 3.27251e-08)
(1.3452e-08 -2.93221e-08 3.95234e-08)
(1.59917e-08 -3.00265e-08 4.73533e-08)
(1.96892e-08 -2.85234e-08 5.62857e-08)
(2.55122e-08 -2.33829e-08 6.64378e-08)
(3.48915e-08 -1.30025e-08 7.79913e-08)
(4.75592e-08 1.42459e-09 8.98391e-08)
(7.49782e-08 2.10234e-08 1.10064e-07)
(0 0 0)
(2.13772e-09 -5.19551e-09 4.03153e-09)
(4.0687e-09 -9.95273e-09 7.84727e-09)
(5.85814e-09 -1.44679e-08 1.17118e-08)
(7.56417e-09 -1.88889e-08 1.58563e-08)
(9.24224e-09 -2.33181e-08 2.04939e-08)
(1.0949e-08 -2.78067e-08 2.58267e-08)
(1.27474e-08 -3.23437e-08 3.20485e-08)
(1.47141e-08 -3.68362e-08 3.93433e-08)
(1.6953e-08 -4.10752e-08 4.78794e-08)
(1.96149e-08 -4.46858e-08 5.77908e-08)
(2.29411e-08 -4.70572e-08 6.91459e-08)
(2.73371e-08 -4.72826e-08 8.1905e-08)
(3.34423e-08 -4.42436e-08 9.58698e-08)
(4.20724e-08 -3.71498e-08 1.10595e-07)
(5.2642e-08 -2.77045e-08 1.24215e-07)
(7.47728e-08 -1.46661e-08 1.43875e-07)
(0 0 0)
(2.78983e-09 -6.67645e-09 5.22073e-09)
(5.30909e-09 -1.2797e-08 1.01585e-08)
(7.64223e-09 -1.86201e-08 1.5152e-08)
(9.86481e-09 -2.43451e-08 2.04971e-08)
(1.20493e-08 -3.01185e-08 2.64669e-08)
(1.42696e-08 -3.60306e-08 3.33219e-08)
(1.66067e-08 -4.2106e-08 4.13128e-08)
(1.91546e-08 -4.82872e-08 5.06809e-08)
(2.2029e-08 -5.44086e-08 6.16499e-08)
(2.53725e-08 -6.01553e-08 7.44001e-08)
(2.93689e-08 -6.50039e-08 8.90198e-08)
(3.42466e-08 -6.81671e-08 1.05417e-07)
(4.02487e-08 -6.86161e-08 1.23166e-07)
(4.755e-08 -6.53766e-08 1.41259e-07)
(5.53968e-08 -5.90562e-08 1.56856e-07)
(7.27545e-08 -4.67652e-08 1.7623e-07)
(0 0 0)
(3.39156e-09 -7.94246e-09 6.28644e-09)
(6.45263e-09 -1.52331e-08 1.22258e-08)
(9.28465e-09 -2.21886e-08 1.822e-08)
(1.19789e-08 -2.90591e-08 2.46196e-08)
(1.46233e-08 -3.60382e-08 3.17487e-08)
(1.73086e-08 -4.32631e-08 3.99163e-08)
(2.01341e-08 -5.08096e-08 4.94227e-08)
(2.32147e-08 -5.86836e-08 6.0562e-08)
(2.66871e-08 -6.68071e-08 7.36163e-08)
(3.07125e-08 -7.49909e-08 8.88358e-08)
(3.54728e-08 -8.28861e-08 1.06391e-07)
(4.11418e-08 -8.98974e-08 1.26277e-07)
(4.77798e-08 -9.50329e-08 1.48095e-07)
(5.51442e-08 -9.67255e-08 1.70598e-07)
(6.20199e-08 -9.36256e-08 1.89869e-07)
(7.64489e-08 -7.9744e-08 2.10963e-07)
(0 0 0)
(3.93236e-09 -8.94315e-09 7.20873e-09)
(7.47876e-09 -1.71636e-08 1.40098e-08)
(1.07547e-08 -2.50302e-08 2.08555e-08)
(1.38643e-08 -3.28394e-08 2.81395e-08)
(1.6909e-08 -4.08301e-08 3.62244e-08)
(1.99938e-08 -4.91881e-08 4.54557e-08)
(2.32358e-08 -5.80465e-08 5.61705e-08)
(2.67742e-08 -6.74879e-08 6.87046e-08)
(3.07794e-08 -7.75452e-08 8.33936e-08)
(3.54668e-08 -8.81979e-08 1.00567e-07)
(4.11104e-08 -9.9356e-08 1.20528e-07)
(4.80445e-08 -1.10802e-07 1.43506e-07)
(5.65878e-08 -1.22004e-07 1.69481e-07)
(6.67815e-08 -1.31635e-07 1.9765e-07)
(7.69548e-08 -1.36811e-07 2.23478e-07)
(9.34521e-08 -1.23883e-07 2.51215e-07)
(0 0 0)
(4.40345e-09 -9.63376e-09 7.97439e-09)
(8.37052e-09 -1.85024e-08 1.54848e-08)
(1.20269e-08 -2.70165e-08 2.30198e-08)
(1.54859e-08 -3.55108e-08 3.10027e-08)
(1.8858e-08 -4.42628e-08 3.98204e-08)
(2.22586e-08 -5.35006e-08 4.98391e-08)
(2.5818e-08 -6.34097e-08 6.14153e-08)
(2.96947e-08 -7.41432e-08 7.49062e-08)
(3.40918e-08 -8.58371e-08 9.06774e-08)
(3.92853e-08 -9.86314e-08 1.09112e-07)
(4.56731e-08 -1.12702e-07 1.30627e-07)
(5.38532e-08 -1.28305e-07 1.55702e-07)
(6.47112e-08 -1.45793e-07 1.84863e-07)
(7.94015e-08 -1.65446e-07 2.18414e-07)
(9.69592e-08 -1.851e-07 2.52546e-07)
(1.30944e-07 -2.08482e-07 2.99183e-07)
(0 0 0)
(4.79866e-09 -9.97811e-09 8.5779e-09)
(9.11654e-09 -1.91799e-08 1.66414e-08)
(1.30846e-08 -2.80436e-08 2.47002e-08)
(1.68206e-08 -3.69301e-08 3.31925e-08)
(2.04386e-08 -4.61438e-08 4.25145e-08)
(2.40574e-08 -5.59434e-08 5.30358e-08)
(2.78112e-08 -6.65513e-08 6.51114e-08)
(3.18639e-08 -7.81686e-08 7.9092e-08)
(3.64276e-08 -9.09946e-08 9.53331e-08)
(4.17952e-08 -1.05257e-07 1.14207e-07)
(4.83971e-08 -1.21256e-07 1.36129e-07)
(5.68868e-08 -1.39447e-07 1.616e-07)
(6.82401e-08 -1.60525e-07 1.91246e-07)
(8.37248e-08 -1.85441e-07 2.25728e-07)
(1.0191e-07 -2.11871e-07 2.6115e-07)
(1.55675e-07 -2.67288e-07 3.28369e-07)
(0 0 0)
(0 0 0)
(0 0 0)
(0 0 0)
(0 0 0)
(0 0 0)
(0 0 0)
(0 0 0)
(0 0 0)
(0 0 0)
(0 0 0)
(0 0 0)
(0 0 0)
(0 0 0)
(0 0 0)
(0 0 0)
(1.25169e-08 2.49341e-08 1.2701e-08)
(0 0 0)
(7.20471e-10 -1.84047e-09 1.34652e-09)
(1.36926e-09 -3.52256e-09 2.61985e-09)
(1.96669e-09 -5.115e-09 3.90849e-09)
(2.53029e-09 -6.6691e-09 5.28987e-09)
(3.0755e-09 -8.21664e-09 6.83395e-09)
(3.61673e-09 -9.76785e-09 8.60542e-09)
(4.169e-09 -1.13071e-08 1.06646e-08)
(4.7513e-09 -1.27827e-08 1.30667e-08)
(5.39456e-09 -1.40872e-08 1.58587e-08)
(6.16113e-09 -1.50239e-08 1.90763e-08)
(7.18983e-09 -1.52421e-08 2.27419e-08)
(8.79987e-09 -1.41016e-08 2.68791e-08)
(1.16875e-08 -1.03976e-08 3.15723e-08)
(1.71369e-08 -1.99052e-09 3.7053e-08)
(2.59113e-08 1.26619e-08 4.31083e-08)
(3.49187e-08 3.22369e-08 4.59712e-08)
(0 0 0)
(1.42847e-09 -3.62558e-09 2.65878e-09)
(2.71489e-09 -6.94174e-09 5.17265e-09)
(3.89959e-09 -1.0085e-08 7.71549e-09)
(5.01734e-09 -1.31574e-08 1.04387e-08)
(6.09905e-09 -1.62257e-08 1.34798e-08)
(7.17347e-09 -1.93179e-08 1.69666e-08)
(8.26959e-09 -2.24143e-08 2.1018e-08)
(9.42106e-09 -2.5432e-08 2.5742e-08)
(1.06761e-08 -2.81948e-08 3.12285e-08)
(1.21202e-08 -3.03892e-08 3.75352e-08)
(1.3926e-08 -3.14975e-08 4.46649e-08)
(1.64609e-08 -3.071e-08 5.25356e-08)
(2.04373e-08 -2.69076e-08 6.09534e-08)
(2.69234e-08 -1.90867e-08 6.95287e-08)
(3.59251e-08 -8.59197e-09 7.71267e-08)
(4.54892e-08 -3.2508e-09 8.36524e-08)
(0 0 0)
(2.11227e-09 -5.30073e-09 3.90538e-09)
(4.01467e-09 -1.01543e-08 7.59667e-09)
(5.76698e-09 -1.47635e-08 1.13271e-08)
(7.42091e-09 -1.9282e-08 1.53169e-08)
(9.02304e-09 -2.38171e-08 1.97667e-08)
(1.06169e-08 -2.84249e-08 2.48641e-08)
(1.22455e-08 -3.31013e-08 3.07847e-08)
(1.39541e-08 -3.77644e-08 3.76887e-08)
(1.57964e-08 -4.2225e-08 4.57103e-08)
(1.78448e-08 -4.61477e-08 5.4932e-08)
(2.02167e-08 -4.90023e-08 6.53372e-08)
(2.31261e-08 -5.00443e-08 7.67341e-08)
(2.6948e-08 -4.84648e-08 8.86548e-08)
(3.22192e-08 -4.40182e-08 1.00216e-07)
(3.88188e-08 -3.85138e-08 1.09762e-07)
(4.45273e-08 -3.67389e-08 1.1636e-07)
(0 0 0)
(2.76001e-09 -6.81054e-09 5.05731e-09)
(5.24583e-09 -1.30543e-08 9.83435e-09)
(7.53563e-09 -1.89978e-08 1.46552e-08)
(9.69768e-09 -2.48473e-08 1.98015e-08)
(1.17944e-08 -3.0755e-08 2.55306e-08)
(1.38853e-08 -3.68165e-08 3.20842e-08)
(1.60292e-08 -4.3063e-08 3.96907e-08)
(1.82859e-08 -4.94466e-08 4.85625e-08)
(2.07163e-08 -5.58178e-08 5.88832e-08)
(2.33775e-08 -6.18938e-08 7.07776e-08)
(2.63155e-08 -6.72146e-08 8.42461e-08)
(2.95439e-08 -7.1117e-08 9.90564e-08)
(3.30066e-08 -7.28071e-08 1.14555e-07)
(3.6579e-08 -7.17304e-08 1.29379e-07)
(4.00052e-08 -6.86488e-08 1.41002e-07)
(4.22746e-08 -6.73423e-08 1.47747e-07)
(0 0 0)
(3.36024e-09 -8.10105e-09 6.09006e-09)
(6.3861e-09 -1.55376e-08 1.18367e-08)
(9.17258e-09 -2.26358e-08 1.76245e-08)
(1.18035e-08 -2.96533e-08 2.3787e-08)
(1.4357e-08 -3.679e-08 3.06293e-08)
(1.69094e-08 -4.41881e-08 3.84392e-08)
(1.95387e-08 -5.19288e-08 4.74907e-08)
(2.23272e-08 -6.00244e-08 5.80448e-08)
(2.53596e-08 -6.84062e-08 7.03395e-08)
(2.8714e-08 -7.69031e-08 8.45626e-08)
(3.24367e-08 -8.51987e-08 1.00792e-07)
(3.64771e-08 -9.27569e-08 1.1888e-07)
(4.05501e-08 -9.86913e-08 1.38206e-07)
(4.39883e-08 -1.01623e-07 1.57188e-07)
(4.58956e-08 -1.00342e-07 1.72371e-07)
(4.51063e-08 -9.77177e-08 1.80905e-07)
(0 0 0)
(3.9023e-09 -9.12106e-09 6.98438e-09)
(7.41469e-09 -1.75053e-08 1.35656e-08)
(1.06466e-08 -2.55319e-08 2.01765e-08)
(1.36953e-08 -3.35055e-08 2.71915e-08)
(1.66533e-08 -4.16715e-08 3.49521e-08)
(1.96131e-08 -5.02202e-08 4.37802e-08)
(2.26738e-08 -5.92885e-08 5.39844e-08)
(2.59465e-08 -6.89615e-08 6.58637e-08)
(2.95592e-08 -7.92743e-08 7.97053e-08)
(3.36587e-08 -9.02097e-08 9.57689e-08)
(3.84059e-08 -1.01682e-07 1.14252e-07)
(4.39419e-08 -1.13474e-07 1.35214e-07)
(5.02669e-08 -1.25043e-07 1.58357e-07)
(5.6941e-08 -1.34993e-07 1.82429e-07)
(6.23969e-08 -1.40472e-07 2.03422e-07)
(6.02033e-08 -1.34983e-07 2.1739e-07)
(0 0 0)
(4.37694e-09 -9.82498e-09 7.72737e-09)
(8.31366e-09 -1.88698e-08 1.49962e-08)
(1.19305e-08 -2.75557e-08 2.22738e-08)
(1.5335e-08 -3.62264e-08 2.99628e-08)
(1.86304e-08 -4.51657e-08 3.84278e-08)
(2.19222e-08 -5.46058e-08 4.80101e-08)
(2.53268e-08 -6.47342e-08 5.90363e-08)
(2.89824e-08 -7.57032e-08 7.1825e-08)
(3.30618e-08 -8.7645e-08 8.66903e-08)
(3.77947e-08 -1.00692e-07 1.0394e-07)
(4.35053e-08 -1.15007e-07 1.23871e-07)
(5.06735e-08 -1.30819e-07 1.46754e-07)
(6.0013e-08 -1.48437e-07 1.72749e-07)
(7.24489e-08 -1.6801e-07 2.01454e-07)
(8.74672e-08 -1.87659e-07 2.29373e-07)
(9.97359e-08 -2.05073e-07 2.51893e-07)
(0 0 0)
(4.77737e-09 -1.01759e-08 8.31362e-09)
(9.07025e-09 -1.95599e-08 1.61191e-08)
(1.30053e-08 -2.86015e-08 2.39038e-08)
(1.66958e-08 -3.76706e-08 3.20847e-08)
(2.02503e-08 -4.7078e-08 4.10352e-08)
(2.37807e-08 -5.70858e-08 5.10998e-08)
(2.74119e-08 -6.79172e-08 6.26035e-08)
(3.12945e-08 -7.97698e-08 7.58589e-08)
(3.56226e-08 -9.28348e-08 9.11707e-08)
(4.06637e-08 -1.07325e-07 1.08836e-07)
(4.68103e-08 -1.23514e-07 1.29148e-07)
(5.46643e-08 -1.41811e-07 1.52399e-07)
(6.51484e-08 -1.62833e-07 1.78833e-07)
(7.95057e-08 -1.87319e-07 2.08349e-07)
(9.68816e-08 -2.13143e-07 2.37258e-07)
(1.30843e-07 -2.52309e-07 2.71325e-07)
(0 0 0)
(0 0 0)
(0 0 0)
(0 0 0)
(0 0 0)
(0 0 0)
(0 0 0)
(0 0 0)
(0 0 0)
(0 0 0)
(0 0 0)
(0 0 0)
(0 0 0)
(0 0 0)
(0 0 0)
(0 0 0)
(9.7748e-11 8.32161e-09 2.63074e-09)
(0 0 0)
(7.06982e-10 -1.87272e-09 1.25383e-09)
(1.34101e-09 -3.58461e-09 2.43822e-09)
(1.91951e-09 -5.20585e-09 3.63434e-09)
(2.45649e-09 -6.78928e-09 4.91265e-09)
(2.96264e-09 -8.36899e-09 6.33606e-09)
(3.44517e-09 -9.95836e-09 7.96115e-09)
(3.90778e-09 -1.15471e-08 9.83833e-09)
(4.35078e-09 -1.30937e-08 1.20093e-08)
(4.77283e-09 -1.45125e-08 1.45006e-08)
(5.17701e-09 -1.56538e-08 1.73112e-08)
(5.58678e-09 -1.62727e-08 2.0389e-08)
(6.07343e-09 -1.59798e-08 2.35869e-08)
(6.77032e-09 -1.41779e-08 2.65766e-08)
(7.74437e-09 -1.01296e-08 2.86527e-08)
(8.44968e-09 -4.05396e-09 2.85528e-08)
(4.81459e-09 1.66255e-09 1.9296e-08)
(0 0 0)
(1.40263e-09 -3.68841e-09 2.47562e-09)
(2.66083e-09 -7.06235e-09 4.81371e-09)
(3.80943e-09 -1.02614e-08 7.17386e-09)
(4.87668e-09 -1.33909e-08 9.69415e-09)
(5.88448e-09 -1.65214e-08 1.2498e-08)
(6.84822e-09 -1.96858e-08 1.56971e-08)
(7.77603e-09 -2.28735e-08 1.93912e-08)
(8.66777e-09 -2.6018e-08 2.3663e-08)
(9.51447e-09 -2.8978e-08 2.85649e-08)
(1.03013e-08 -3.15123e-08 3.40925e-08)
(1.10189e-08 -3.32563e-08 4.01326e-08)
(1.16822e-08 -3.37247e-08 4.63696e-08)
(1.23254e-08 -3.24402e-08 5.21185e-08)
(1.28587e-08 -2.94385e-08 5.60671e-08)
(1.27163e-08 -2.63519e-08 5.64805e-08)
(9.03012e-09 -2.86412e-08 4.9025e-08)
(0 0 0)
(2.07627e-09 -5.39137e-09 3.63633e-09)
(3.93944e-09 -1.03281e-08 7.06947e-09)
(5.64176e-09 -1.50174e-08 1.05321e-08)
(7.22611e-09 -1.96178e-08 1.4225e-08)
(8.7269e-09 -2.42406e-08 1.83281e-08)
(1.01698e-08 -2.89478e-08 2.30057e-08)
(1.15703e-08 -3.37444e-08 2.84056e-08)
(1.29301e-08 -3.85661e-08 3.46528e-08)
(1.42303e-08 -4.32596e-08 4.18305e-08)
(1.54218e-08 -4.75623e-08 4.9943e-08)
(1.64118e-08 -5.1094e-08 5.88418e-08)
(1.70403e-08 -5.34075e-08 6.80993e-08)
(1.70403e-08 -5.42229e-08 7.68069e-08)
(1.59908e-08 -5.40033e-08 8.33424e-08)
(1.35509e-08 -5.44208e-08 8.57326e-08)
(6.76968e-09 -5.82797e-08 7.97255e-08)
(0 0 0)
(2.71682e-09 -6.92546e-09 4.70918e-09)
(5.15566e-09 -1.32743e-08 9.15241e-09)
(7.38585e-09 -1.9319e-08 1.36276e-08)
(9.46541e-09 -2.52709e-08 1.83915e-08)
(1.14428e-08 -3.12865e-08 2.36748e-08)
(1.33571e-08 -3.74661e-08 2.96895e-08)
(1.52366e-08 -4.38475e-08 3.66291e-08)
(1.70927e-08 -5.03959e-08 4.4661e-08)
(1.89076e-08 -5.69881e-08 5.39069e-08)
(2.06095e-08 -6.33953e-08 6.43988e-08)
(2.20263e-08 -6.92701e-08 7.59946e-08)
(2.27992e-08 -7.41748e-08 8.82279e-08)
(2.22662e-08 -7.77343e-08 1.00061e-07)
(1.94664e-08 -8.00325e-08 1.09582e-07)
(1.40986e-08 -8.19808e-08 1.14259e-07)
(4.04044e-09 -8.62186e-08 1.09366e-07)
(0 0 0)
(3.31319e-09 -8.23597e-09 5.67143e-09)
(6.28794e-09 -1.57957e-08 1.10172e-08)
(9.00986e-09 -2.30122e-08 1.63906e-08)
(1.1552e-08 -3.01483e-08 2.20958e-08)
(1.3978e-08 -3.74073e-08 2.84065e-08)
(1.63435e-08 -4.49341e-08 3.55753e-08)
(1.86958e-08 -5.28121e-08 4.38349e-08)
(2.1069e-08 -6.10582e-08 5.3393e-08)
(2.34705e-08 -6.96136e-08 6.44137e-08)
(2.58514e-08 -7.83293e-08 7.69753e-08)
(2.80423e-08 -8.69404e-08 9.09856e-08)
(2.9618e-08 -9.50272e-08 1.06022e-07)
(2.9673e-08 -1.01969e-07 1.21043e-07)
(2.66692e-08 -1.06959e-07 1.33945e-07)
(1.96516e-08 -1.09417e-07 1.41549e-07)
(6.23084e-09 -1.12391e-07 1.38471e-07)
(0 0 0)
(3.85463e-09 -9.27127e-09 6.50522e-09)
(7.31532e-09 -1.77926e-08 1.26283e-08)
(1.04821e-08 -2.59503e-08 1.87669e-08)
(1.3442e-08 -3.4054e-08 2.52622e-08)
(1.62735e-08 -4.23515e-08 3.24207e-08)
(1.90499e-08 -5.10331e-08 4.05254e-08)
(2.18419e-08 -6.0233e-08 4.98385e-08)
(2.47166e-08 -7.00309e-08 6.0599e-08)
(2.77318e-08 -8.04529e-08 7.30083e-08)
(3.09178e-08 -9.14677e-08 8.71952e-08)
(3.42315e-08 -1.02968e-07 1.03142e-07)
(3.74416e-08 -1.1471e-07 1.20533e-07)
(3.9884e-08 -1.26147e-07 1.38437e-07)
(4.00784e-08 -1.36054e-07 1.54719e-07)
(3.61441e-08 -1.42198e-07 1.65539e-07)
(2.06676e-08 -1.4017e-07 1.6525e-07)
(0 0 0)
(4.33152e-09 -9.98536e-09 7.19851e-09)
(8.21898e-09 -1.91764e-08 1.39626e-08)
(1.1774e-08 -2.80018e-08 2.07215e-08)
(1.50948e-08 -3.68098e-08 2.7842e-08)
(1.82719e-08 -4.58854e-08 3.56517e-08)
(2.13944e-08 -5.54585e-08 4.44506e-08)
(2.45543e-08 -6.57093e-08 5.45165e-08)
(2.78523e-08 -7.67761e-08 6.61036e-08)
(3.14025e-08 -8.8766e-08 7.94328e-08)
(3.53355e-08 -1.01766e-07 9.46637e-08)
(3.97963e-08 -1.15854e-07 1.11834e-07)
(4.49192e-08 -1.31092e-07 1.30731e-07)
(5.07443e-08 -1.47468e-07 1.50572e-07)
(5.69573e-08 -1.64555e-07 1.69287e-07)
(6.21699e-08 -1.80093e-07 1.82403e-07)
(6.00198e-08 -1.91885e-07 1.81531e-07)
(0 0 0)
(4.73637e-09 -1.03409e-08 7.74613e-09)
(8.98474e-09 -1.98754e-08 1.50111e-08)
(1.28641e-08 -2.90602e-08 2.22425e-08)
(1.64794e-08 -3.82696e-08 2.98203e-08)
(1.99289e-08 -4.78147e-08 3.80798e-08)
(2.33109e-08 -5.79534e-08 4.73245e-08)
(2.67307e-08 -6.88985e-08 5.78307e-08)
(3.03095e-08 -8.08282e-08 6.98472e-08)
(3.41954e-08 -9.38984e-08 8.3586e-08)
(3.8579e-08 -1.08259e-07 9.91965e-08)
(4.37127e-08 -1.24068e-07 1.16713e-07)
(4.99243e-08 -1.41505e-07 1.35936e-07)
(5.75974e-08 -1.60738e-07 1.56164e-07)
(6.69718e-08 -1.81644e-07 1.75566e-07)
(7.6667e-08 -2.01479e-07 1.89672e-07)
(9.31399e-08 -2.25648e-07 1.86645e-07)
(0 0 0)
(0 0 0)
(0 0 0)
(0 0 0)
(0 0 0)
(0 0 0)
(0 0 0)
(0 0 0)
(0 0 0)
(0 0 0)
(0 0 0)
(0 0 0)
(0 0 0)
(0 0 0)
(0 0 0)
(0 0 0)
(-4.79483e-09 1.61527e-09 2.44439e-09)
(0 0 0)
(6.91347e-10 -1.89946e-09 1.11636e-09)
(1.30848e-09 -3.63591e-09 2.16987e-09)
(1.86557e-09 -5.28084e-09 3.23183e-09)
(2.37279e-09 -6.88849e-09 4.36353e-09)
(2.83554e-09 -8.49483e-09 5.61856e-09)
(3.25337e-09 -1.01163e-08 7.04363e-09)
(3.61823e-09 -1.17482e-08 8.67797e-09)
(3.91164e-09 -1.33601e-08 1.05497e-08)
(4.10087e-09 -1.48891e-08 1.2667e-08)
(4.13443e-09 -1.62329e-08 1.5002e-08)
(3.937e-09 -1.72449e-08 1.74605e-08)
(3.39618e-09 -1.77363e-08 1.98271e-08)
(2.31386e-09 -1.75007e-08 2.16749e-08)
(2.99257e-10 -1.64059e-08 2.22572e-08)
(-3.01207e-09 -1.4704e-08 2.07753e-08)
(-7.89146e-09 -1.15616e-08 1.60875e-08)
(0 0 0)
(1.37263e-09 -3.74047e-09 2.20426e-09)
(2.59845e-09 -7.16215e-09 4.28408e-09)
(3.70613e-09 -1.0407e-08 6.37962e-09)
(4.71662e-09 -1.3583e-08 8.6109e-09)
(5.64193e-09 -1.67638e-08 1.10831e-08)
(6.48319e-09 -1.99874e-08 1.38886e-08)
(7.22698e-09 -2.32518e-08 1.71055e-08)
(7.83921e-09 -2.65083e-08 2.07901e-08)
(8.25592e-09 -2.96513e-08 2.49609e-08)
(8.37128e-09 -3.25114e-08 2.9567e-08)
(8.02399e-09 -3.48632e-08 3.44318e-08)
(6.98026e-09 -3.64743e-08 3.91566e-08)
(4.91811e-09 -3.72526e-08 4.29875e-08)
(1.49429e-09 -3.75378e-08 4.47402e-08)
(-3.01101e-09 -3.82042e-08 4.34898e-08)
(-7.14206e-09 -4.12027e-08 4.08044e-08)
(0 0 0)
(2.03425e-09 -5.46637e-09 3.23803e-09)
(3.85215e-09 -1.04716e-08 6.29221e-09)
(5.49742e-09 -1.52264e-08 9.36683e-09)
(7.00297e-09 -1.98921e-08 1.26364e-08)
(8.38982e-09 -2.45838e-08 1.62544e-08)
(9.66459e-09 -2.93684e-08 2.03569e-08)
(1.08144e-08 -3.42598e-08 2.50602e-08)
(1.1797e-08 -3.9211e-08 3.04513e-08)
(1.2525e-08 -4.4104e-08 3.65659e-08)
(1.28413e-08 -4.87461e-08 4.33476e-08)
(1.24862e-08 -5.28874e-08 5.05744e-08)
(1.10576e-08 -5.63001e-08 5.77471e-08)
(8.01122e-09 -5.89916e-08 6.39603e-08)
(2.89505e-09 -6.15325e-08 6.78978e-08)
(-3.54726e-09 -6.47754e-08 6.85939e-08)
(-9.7508e-09 -6.93871e-08 6.78402e-08)
(0 0 0)
(2.6659e-09 -7.02021e-09 4.1939e-09)
(5.04999e-09 -1.34553e-08 8.14718e-09)
(7.21146e-09 -1.95815e-08 1.21213e-08)
(9.19658e-09 -2.56135e-08 1.63394e-08)
(1.10383e-08 -3.17106e-08 2.09984e-08)
(1.27539e-08 -3.79763e-08 2.62741e-08)
(1.43397e-08 -4.44535e-08 3.23194e-08)
(1.57586e-08 -5.11183e-08 3.92529e-08)
(1.69192e-08 -5.78705e-08 4.71352e-08)
(1.76378e-08 -6.45281e-08 5.59224e-08)
(1.75783e-08 -7.08327e-08 6.53846e-08)
(1.61628e-08 -7.64978e-08 7.49857e-08)
(1.25228e-08 -8.13546e-08 8.37476e-08)
(5.79969e-09 -8.5594e-08 9.0233e-08)
(-3.15948e-09 -8.9613e-08 9.31699e-08)
(-1.20065e-08 -9.43612e-08 9.41498e-08)
(0 0 0)
(3.25687e-09 -8.34671e-09 5.05164e-09)
(6.1712e-09 -1.60069e-08 9.8086e-09)
(8.81762e-09 -2.33173e-08 1.4581e-08)
(1.12566e-08 -3.05439e-08 1.96331e-08)
(1.35356e-08 -3.78912e-08 2.51986e-08)
(1.56876e-08 -4.55041e-08 3.14872e-08)
(1.77274e-08 -5.34652e-08 3.86833e-08)
(1.96404e-08 -6.1791e-08 4.69352e-08)
(2.13609e-08 -7.04255e-08 5.63314e-08)
(2.27313e-08 -7.92296e-08 6.68525e-08)
(2.34236e-08 -8.79634e-08 7.82865e-08)
(2.28046e-08 -9.62604e-08 9.00992e-08)
(1.9782e-08 -1.03598e-07 1.01274e-07)
(1.2952e-08 -1.09287e-07 1.10242e-07)
(2.53627e-09 -1.12634e-07 1.15368e-07)
(-9.26794e-09 -1.15161e-07 1.18161e-07)
(0 0 0)
(3.7964e-09 -9.39389e-09 5.79529e-09)
(7.19475e-09 -1.8026e-08 1.12449e-08)
(1.02841e-08 -2.62864e-08 1.66977e-08)
(1.31388e-08 -3.44871e-08 2.24502e-08)
(1.58216e-08 -4.28752e-08 2.87642e-08)
(1.83842e-08 -5.16371e-08 3.5875e-08)
(2.08662e-08 -6.08993e-08 4.399e-08)
(2.32894e-08 -7.07288e-08 5.32801e-08)
(2.56432e-08 -8.11312e-08 6.38569e-08)
(2.78556e-08 -9.20432e-08 7.57251e-08)
(2.97303e-08 -1.03306e-07 8.86964e-08)
(3.08225e-08 -1.14601e-07 1.02246e-07)
(3.02465e-08 -1.25288e-07 1.15305e-07)
(2.65833e-08 -1.34091e-07 1.26088e-07)
(1.91269e-08 -1.38964e-07 1.32513e-07)
(5.64641e-09 -1.34865e-07 1.36679e-07)
(0 0 0)
(4.27446e-09 -1.01155e-08 6.41408e-09)
(8.10101e-09 -1.94239e-08 1.24353e-08)
(1.15807e-08 -2.83573e-08 1.84403e-08)
(1.47999e-08 -3.72653e-08 2.47477e-08)
(1.78347e-08 -4.64306e-08 3.16375e-08)
(2.07545e-08 -5.60758e-08 3.93594e-08)
(2.3624e-08 -6.63673e-08 4.81327e-08)
(2.65035e-08 -7.74198e-08 5.81386e-08)
(2.94466e-08 -8.93001e-08 6.94981e-08)
(3.24918e-08 -1.02028e-07 8.22261e-08)
(3.56398e-08 -1.15563e-07 9.61429e-08)
(3.88049e-08 -1.29771e-07 1.10715e-07)
(4.17428e-08 -1.44318e-07 1.24785e-07)
(4.4009e-08 -1.5839e-07 1.36206e-07)
(4.51498e-08 -1.69909e-07 1.42127e-07)
(4.43436e-08 -1.76857e-07 1.43737e-07)
(0 0 0)
(4.68297e-09 -1.0474e-08 6.90338e-09)
(8.87446e-09 -2.01285e-08 1.33718e-08)
(1.26837e-08 -2.94233e-08 1.97981e-08)
(1.62053e-08 -3.8733e-08 2.65122e-08)
(1.95248e-08 -4.83652e-08 3.38012e-08)
(2.27235e-08 -5.85683e-08 4.19176e-08)
(2.58837e-08 -6.95373e-08 5.10799e-08)
(2.90928e-08 -8.14197e-08 6.14637e-08)
(3.24489e-08 -9.43201e-08 7.31813e-08)
(3.60652e-08 -1.08302e-07 8.62355e-08)
(4.00702e-08 -1.23377e-07 1.00433e-07)
(4.45955e-08 -1.39479e-07 1.15227e-07)
(4.97475e-08 -1.56386e-07 1.2945e-07)
(5.55464e-08 -1.73497e-07 1.40948e-07)
(6.13252e-08 -1.8841e-07 1.46674e-07)
(7.5501e-08 -2.06916e-07 1.42464e-07)
(0 0 0)
(0 0 0)
(0 0 0)
(0 0 0)
(0 0 0)
(0 0 0)
(0 0 0)
(0 0 0)
(0 0 0)
(0 0 0)
(0 0 0)
(0 0 0)
(0 0 0)
(0 0 0)
(0 0 0)
(0 0 0)
(-6.45656e-09 -5.79794e-10 3.07515e-09)
(0 0 0)
(6.75361e-10 -1.9205e-09 9.40057e-10)
(1.27534e-09 -3.6762e-09 1.82647e-09)
(1.81094e-09 -5.33965e-09 2.71853e-09)
(2.28858e-09 -6.96616e-09 3.66668e-09)
(2.70875e-09 -8.59316e-09 4.71404e-09)
(3.0642e-09 -1.02394e-08 5.89687e-09)
(3.33706e-09 -1.19046e-08 7.24387e-09)
(3.4944e-09 -1.35672e-08 8.77222e-09)
(3.48169e-09 -1.51815e-08 1.04794e-08)
(3.21475e-09 -1.66774e-08 1.2329e-08)
(2.57096e-09 -1.7966e-08 1.42285e-08)
(1.3751e-09 -1.89517e-08 1.59973e-08)
(-6.23518e-10 -1.95467e-08 1.73403e-08)
(-3.74118e-09 -1.96575e-08 1.78876e-08)
(-7.86427e-09 -1.91375e-08 1.74783e-08)
(-1.22527e-08 -1.59383e-08 1.55083e-08)
(0 0 0)
(1.3419e-09 -3.78155e-09 1.85638e-09)
(2.53479e-09 -7.24077e-09 3.60653e-09)
(3.60127e-09 -1.05214e-08 5.36696e-09)
(4.55517e-09 -1.37331e-08 7.2364e-09)
(5.39932e-09 -1.6952e-08 9.29946e-09)
(6.12215e-09 -2.02196e-08 1.16281e-08)
(6.69229e-09 -2.35411e-08 1.42796e-08)
(7.04965e-09 -2.68813e-08 1.72891e-08)
(7.09259e-09 -3.01606e-08 2.06542e-08)
(6.66282e-09 -3.32575e-08 2.4309e-08)
(5.53239e-09 -3.60255e-08 2.80831e-08)
(3.40363e-09 -3.83409e-08 3.16486e-08)
(-2.77583e-11 -4.01927e-08 3.44862e-08)
(-4.78731e-09 -4.17673e-08 3.59853e-08)
(-9.76158e-09 -4.32467e-08 3.59756e-08)
(-1.26411e-08 -4.54748e-08 3.57746e-08)
(0 0 0)
(1.99105e-09 -5.52566e-09 2.72742e-09)
(3.76273e-09 -1.05848e-08 5.29788e-09)
(5.35029e-09 -1.539e-08 7.88112e-09)
(6.77691e-09 -2.0105e-08 1.06205e-08)
(8.0511e-09 -2.4847e-08 1.36397e-08)
(9.16253e-09 -2.96863e-08 1.70448e-08)
(1.00746e-08 -3.4643e-08 2.09219e-08)
(1.07119e-08 -3.96826e-08 2.53263e-08)
(1.0941e-08 -4.47112e-08 3.02628e-08)
(1.05462e-08 -4.95789e-08 3.56519e-08)
(9.2049e-09 -5.41034e-08 4.12797e-08)
(6.48462e-09 -5.81375e-08 4.67415e-08)
(1.95685e-09 -6.17134e-08 5.14304e-08)
(-4.33858e-09 -6.51891e-08 5.47006e-08)
(-1.07563e-08 -6.88379e-08 5.63711e-08)
(-1.50455e-08 -7.28314e-08 5.77168e-08)
(0 0 0)
(2.61324e-09 -7.095e-09 3.53318e-09)
(4.94107e-09 -1.35976e-08 6.86089e-09)
(7.03255e-09 -1.97861e-08 1.02003e-08)
(8.92242e-09 -2.58768e-08 1.37345e-08)
(1.06291e-08 -3.20306e-08 1.76223e-08)
(1.21503e-08 -3.8352e-08 2.20015e-08)
(1.34557e-08 -4.48864e-08 2.69851e-08)
(1.44717e-08 -5.16151e-08 3.26499e-08)
(1.50587e-08 -5.84501e-08 3.90141e-08)
(1.49765e-08 -6.52314e-08 4.59988e-08)
(1.38381e-08 -7.17352e-08 5.33736e-08)
(1.10721e-08 -7.77108e-08 6.07002e-08)
(6.00145e-09 -8.29787e-08 6.7333e-08)
(-1.641e-09 -8.75619e-08 7.25883e-08)
(-1.01218e-08 -9.15006e-08 7.60925e-08)
(-1.66035e-08 -9.54519e-08 7.89044e-08)
(0 0 0)
(3.19812e-09 -8.43382e-09 4.25655e-09)
(6.04983e-09 -1.6172e-08 8.2614e-09)
(8.61866e-09 -2.35532e-08 1.2272e-08)
(1.09527e-08 -3.08443e-08 1.65053e-08)
(1.3084e-08 -3.82494e-08 2.11499e-08)
(1.50251e-08 -4.59112e-08 2.63701e-08)
(1.67635e-08 -5.39081e-08 3.23025e-08)
(1.82478e-08 -6.22512e-08 3.90436e-08)
(1.93658e-08 -7.08776e-08 4.66261e-08)
(1.99071e-08 -7.96396e-08 5.49784e-08)
(1.95029e-08 -8.82849e-08 6.38638e-08)
(1.75457e-08 -9.64237e-08 7.28184e-08)
(1.31683e-08 -1.03484e-07 8.11475e-08)
(5.60596e-09 -1.08672e-07 8.80862e-08)
(-4.02749e-09 -1.11197e-07 9.30773e-08)
(-1.31366e-08 -1.12404e-07 9.71599e-08)
(0 0 0)
(3.73493e-09 -9.48985e-09 4.88399e-09)
(7.06795e-09 -1.82074e-08 9.47273e-09)
(1.00767e-08 -2.6544e-08 1.40558e-08)
(1.28232e-08 -3.48117e-08 1.88766e-08)
(1.53548e-08 -4.3255e-08 2.41466e-08)
(1.77034e-08 -5.20541e-08 3.005e-08)
(1.98824e-08 -6.13241e-08 3.67404e-08)
(2.18787e-08 -7.11146e-08 4.43282e-08)
(2.36382e-08 -8.14036e-08 5.28566e-08)
(2.50396e-08 -9.2085e-08 6.22571e-08)
(2.5848e-08 -1.02935e-07 7.22809e-08)
(2.56401e-08 -1.1354e-07 8.24174e-08)
(2.37407e-08 -1.23144e-07 9.18571e-08)
(1.93566e-08 -1.30402e-07 9.96282e-08)
(1.27137e-08 -1.33484e-07 1.04994e-07)
(2.19557e-09 -1.27777e-07 1.09579e-07)
(0 0 0)
(4.21335e-09 -1.02167e-08 5.40643e-09)
(7.97512e-09 -1.96148e-08 1.04774e-08)
(1.13754e-08 -2.86273e-08 1.55254e-08)
(1.44886e-08 -3.76025e-08 2.08123e-08)
(1.73766e-08 -4.68186e-08 2.65641e-08)
(2.00904e-08 -5.64881e-08 3.29766e-08)
(2.26708e-08 -6.67602e-08 4.02114e-08)
(2.51467e-08 -7.77216e-08 4.83845e-08)
(2.75321e-08 -8.93946e-08 5.75399e-08)
(2.98193e-08 -1.01728e-07 6.76028e-08)
(3.19673e-08 -1.14573e-07 7.83e-08)
(3.38903e-08 -1.27637e-07 8.90512e-08)
(3.54939e-08 -1.40403e-07 9.88674e-08)
(3.68547e-08 -1.51981e-07 1.06388e-07)
(3.84295e-08 -1.60804e-07 1.10467e-07)
(4.01566e-08 -1.65838e-07 1.12863e-07)
(0 0 0)
(4.62471e-09 -1.0577e-08 5.8199e-09)
(8.75463e-09 -2.03226e-08 1.12686e-08)
(1.24888e-08 -2.96969e-08 1.66719e-08)
(1.5911e-08 -3.90726e-08 2.23011e-08)
(1.90939e-08 -4.87508e-08 2.83882e-08)
(2.21028e-08 -5.89676e-08 3.51314e-08)
(2.49992e-08 -6.98969e-08 4.26914e-08)
(2.78433e-08 -8.16521e-08 5.11787e-08)
(3.06988e-08 -9.42835e-08 6.06282e-08)
(3.36374e-08 -1.0777e-07 7.09498e-08)
(3.6745e-08 -1.21999e-07 8.18455e-08)
(4.01333e-08 -1.3673e-07 9.26897e-08)
(4.39875e-08 -1.51554e-07 1.02404e-07)
(4.86719e-08 -1.6583e-07 1.09454e-07)
(5.42336e-08 -1.77873e-07 1.12445e-07)
(7.02734e-08 -1.94453e-07 1.09973e-07)
(0 0 0)
(0 0 0)
(0 0 0)
(0 0 0)
(0 0 0)
(0 0 0)
(0 0 0)
(0 0 0)
(0 0 0)
(0 0 0)
(0 0 0)
(0 0 0)
(0 0 0)
(0 0 0)
(0 0 0)
(0 0 0)
(-6.86688e-09 -1.14274e-09 2.87372e-09)
(0 0 0)
(6.60779e-10 -1.93591e-09 7.32124e-10)
(1.24521e-09 -3.70559e-09 1.42194e-09)
(1.76148e-09 -5.38266e-09 2.11522e-09)
(2.21283e-09 -7.02317e-09 2.85052e-09)
(2.59576e-09 -8.66502e-09 3.65993e-09)
(2.89785e-09 -1.03285e-08 4.56968e-09)
(3.09452e-09 -1.20162e-08 5.59938e-09)
(3.14421e-09 -1.37121e-08 6.75887e-09)
(2.98221e-09 -1.53801e-08 8.04192e-09)
(2.51466e-09 -1.69655e-08 9.41709e-09)
(1.61418e-09 -1.84004e-08 1.08156e-08)
(1.17732e-10 -1.9609e-08 1.21204e-08)
(-2.17182e-09 -2.04962e-08 1.31714e-08)
(-5.43937e-09 -2.08769e-08 1.38249e-08)
(-9.40285e-09 -2.04008e-08 1.40521e-08)
(-1.3188e-08 -1.6807e-08 1.30609e-08)
(0 0 0)
(1.31383e-09 -3.8119e-09 1.44597e-09)
(2.47681e-09 -7.2988e-09 2.80824e-09)
(3.50614e-09 -1.06057e-08 4.17662e-09)
(4.40964e-09 -1.38433e-08 5.62636e-09)
(5.18265e-09 -1.70889e-08 7.22058e-09)
(5.80399e-09 -2.03861e-08 9.01149e-09)
(6.22996e-09 -2.37445e-08 1.10385e-08)
(6.38519e-09 -2.71368e-08 1.33219e-08)
(6.15132e-09 -3.04974e-08 1.58515e-08)
(5.35707e-09 -3.37257e-08 1.85695e-08)
(3.77705e-09 -3.67006e-08 2.13491e-08)
(1.15909e-09 -3.93093e-08 2.39734e-08)
(-2.66304e-09 -4.14884e-08 2.61457e-08)
(-7.43688e-09 -4.32267e-08 2.75824e-08)
(-1.18134e-08 -4.44315e-08 2.82098e-08)
(-1.3537e-08 -4.5814e-08 2.85223e-08)
(0 0 0)
(1.95148e-09 -5.56979e-09 2.12482e-09)
(3.68102e-09 -1.06688e-08 4.12603e-09)
(5.21641e-09 -1.55109e-08 6.13424e-09)
(6.57249e-09 -2.02606e-08 8.25858e-09)
(7.74759e-09 -2.50364e-08 1.05915e-08)
(8.71854e-09 -2.99101e-08 1.32102e-08)
(9.43255e-09 -3.4905e-08 1.61742e-08)
(9.79499e-09 -3.99926e-08 1.9516e-08)
(9.65359e-09 -4.50897e-08 2.32267e-08)
(8.78268e-09 -5.00619e-08 2.72343e-08)
(6.87833e-09 -5.47405e-08 3.13777e-08)
(3.59588e-09 -5.89682e-08 3.5386e-08)
(-1.27705e-09 -6.26951e-08 3.89111e-08)
(-7.33374e-09 -6.60705e-08 4.16562e-08)
(-1.27384e-08 -6.9185e-08 4.35126e-08)
(-1.54905e-08 -7.23065e-08 4.48319e-08)
(0 0 0)
(2.56479e-09 -7.15087e-09 2.75309e-09)
(4.84113e-09 -1.37034e-08 5.34431e-09)
(6.86903e-09 -1.99367e-08 7.94061e-09)
(8.67338e-09 -2.60677e-08 1.06814e-08)
(1.02606e-08 -3.22573e-08 1.36854e-08)
(1.16138e-08 -3.86096e-08 1.70532e-08)
(1.26843e-08 -4.51696e-08 2.08628e-08)
(1.3378e-08 -5.19185e-08 2.51602e-08)
(1.35371e-08 -5.87689e-08 2.9942e-08)
(1.29175e-08 -6.55616e-08 3.51313e-08)
(1.11683e-08 -7.20651e-08 4.05479e-08)
(7.84113e-09 -7.79975e-08 4.58907e-08)
(2.53123e-09 -8.30939e-08 5.07865e-08)
(-4.61479e-09 -8.72188e-08 5.49196e-08)
(-1.17399e-08 -9.03603e-08 5.80388e-08)
(-1.64193e-08 -9.33445e-08 6.03166e-08)
(0 0 0)
(3.14375e-09 -8.49883e-09 3.31733e-09)
(5.9378e-09 -1.62944e-08 6.43633e-09)
(8.43576e-09 -2.37258e-08 9.55481e-09)
(1.0675e-08 -3.10595e-08 1.28379e-08)
(1.26748e-08 -3.84983e-08 1.64268e-08)
(1.44324e-08 -4.6181e-08 2.04415e-08)
(1.59163e-08 -5.41801e-08 2.4976e-08)
(1.7055e-08 -6.24977e-08 3.00882e-08)
(1.77201e-08 -7.10577e-08 3.57803e-08)
(1.77021e-08 -7.9692e-08 4.19727e-08)
(1.66789e-08 -8.81154e-08 4.84671e-08)
(1.41856e-08 -9.58866e-08 5.49268e-08)