/*--------------------------------*- C++ -*----------------------------------*\
| =========                 |                                                 |
| \\      /  F ield         | OpenFOAM: The Open Source CFD Toolbox           |
|  \\    /   O peration     | Version:  v1912                                 |
|   \\  /    A nd           | Website:  www.openfoam.com                      |
|    \\/     M anipulation  |                                                 |
\*---------------------------------------------------------------------------*/
FoamFile
{
    version     2.0;
    format      ascii;
    class       volScalarField;
    location    "0.33/fluid";
    object      T;
}
// * * * * * * * * * * * * * * * * * * * * * * * * * * * * * * * * * * * * * //

dimensions      [0 0 0 1 0 0 0];


internalField   nonuniform List<scalar> 
14592
(
273.144
273.442
273.767
274.131
274.547
275.032
275.6
276.268
277.054
277.978
279.06
280.325
281.803
283.536
285.605
288.207
273.143
273.438
273.76
274.12
274.533
275.013
275.577
276.239
277.019
277.936
279.011
280.27
281.743
283.475
285.545
288.138
273.141
273.431
273.748
274.103
274.509
274.982
275.536
276.188
276.956
277.859
278.921
280.166
281.63
283.36
285.438
288.056
273.138
273.422
273.732
274.079
274.476
274.938
275.479
276.116
276.866
277.75
278.79
280.015
281.461
283.183
285.274
287.937
273.134
273.411
273.712
274.049
274.435
274.883
275.407
276.025
276.752
277.608
278.618
279.811
281.228
282.93
285.028
287.754
273.13
273.398
273.689
274.015
274.387
274.818
275.323
275.916
276.614
277.436
278.405
279.552
280.92
282.58
284.664
287.456
273.125
273.383
273.663
273.976
274.333
274.746
275.228
275.793
276.456
277.236
278.153
279.237
280.53
282.108
284.12
286.93
273.12
273.368
273.636
273.935
274.275
274.668
275.125
275.659
276.283
277.014
277.868
278.872
280.061
281.497
283.319
285.91
273.15
273.461
273.8
274.181
274.618
275.127
275.726
276.433
277.268
278.252
279.41
280.769
282.363
284.239
286.47
289.188
273.149
273.457
273.793
274.17
274.603
275.108
275.702
276.403
277.231
278.208
279.359
280.711
282.302
284.178
286.413
289.132
273.147
273.45
273.78
274.151
274.578
275.075
275.659
276.349
277.165
278.128
279.264
280.604
282.186
284.061
286.31
289.061
273.144
273.44
273.764
274.126
274.543
275.028
275.599
276.273
277.071
278.013
279.128
280.446
282.011
283.882
286.149
288.956
273.14
273.429
273.743
274.095
274.5
274.971
275.524
276.177
276.95
277.864
278.947
280.232
281.768
283.623
285.906
288.789
273.135
273.415
273.719
274.059
274.449
274.903
275.435
276.063
276.805
277.682
278.722
279.959
281.445
283.26
285.538
288.508
273.13
273.399
273.692
274.019
274.393
274.827
275.335
275.933
276.638
277.47
278.454
279.624
281.032
282.761
284.973
287.989
273.125
273.383
273.663
273.975
274.332
274.745
275.227
275.791
276.455
277.234
278.151
279.235
280.528
282.106
284.118
286.929
273.156
273.479
273.831
274.227
274.683
275.215
275.842
276.584
277.461
278.496
279.715
281.146
282.818
284.77
287.043
289.679
273.155
273.474
273.823
274.216
274.668
275.195
275.817
276.552
277.422
278.451
279.662
281.087
282.756
284.709
286.987
289.63
273.152
273.467
273.81
274.197
274.641
275.16
275.772
276.496
277.353
278.367
279.565
280.976
282.637
284.591
286.886
289.563
273.149
273.457
273.793
274.171
274.605
275.112
275.71
276.417
277.255
278.248
279.423
280.813
282.458
284.41
286.727
289.462
273.145
273.445
273.771
274.138
274.56
275.052
275.631
276.317
277.129
278.092
279.234
280.591
282.208
284.146
286.483
289.301
273.14
273.43
273.746
274.101
274.507
274.981
275.539
276.197
276.977
277.902
278.999
280.306
281.873
283.773
286.111
289.024
273.135
273.414
273.718
274.058
274.448
274.902
275.434
276.061
276.802
277.679
278.719
279.956
281.442
283.257
285.536
288.507
273.13
273.397
273.688
274.013
274.385
274.816
275.32
275.913
276.61
277.431
278.4
279.547
280.915
282.575
284.66
287.453
273.161
273.495
273.859
274.269
274.741
275.293
275.944
276.715
277.627
278.703
279.969
281.45
283.17
285.153
287.414
289.945
273.16
273.49
273.851
274.257
274.725
275.272
275.918
276.682
277.587
278.656
279.915
281.389
283.106
285.091
287.359
289.898
273.157
273.482
273.837
274.237
274.697
275.236
275.871
276.624
277.515
278.57
279.814
281.276
282.986
284.973
287.258
289.833
273.154
273.472
273.819
274.21
274.66
275.186
275.807
276.542
277.414
278.447
279.668
281.108
282.803
284.789
287.099
289.734
273.15
273.459
273.797
274.177
274.613
275.124
275.726
276.438
277.283
278.286
279.473
280.88
282.547
284.521
286.855
289.573
273.145
273.444
273.771
274.137
274.559
275.05
275.629
276.314
277.126
278.088
279.23
280.587
282.203
284.142
286.48
289.298
273.139
273.428
273.742
274.094
274.497
274.968
275.52
276.173
276.944
277.858
278.94
280.225
281.761
283.616
285.9
288.786
273.134
273.41
273.711
274.047
274.432
274.879
275.402
276.018
276.744
277.6
278.609
279.802
281.218
282.921
285.02
287.749
273.165
273.508
273.882
274.303
274.789
275.357
276.028
276.822
277.762
278.869
280.169
281.683
283.429
285.42
287.653
290.1
273.164
273.503
273.874
274.291
274.772
275.336
276.001
276.789
277.721
278.821
280.114
281.621
283.365
285.359
287.599
290.054
273.161
273.495
273.86
274.271
274.744
275.299
275.953
276.729
277.648
278.733
280.011
281.506
283.243
285.24
287.499
289.99
273.158
273.485
273.841
274.243
274.706
275.248
275.887
276.645
277.543
278.607
279.861
281.335
283.057
285.054
287.339
289.891
273.154
273.472
273.818
274.209
274.658
275.183
275.804
276.538
277.409
278.442
279.662
281.102
282.797
284.784
287.094
289.731
273.149
273.456
273.791
274.168
274.602
275.108
275.704
276.41
277.247
278.239
279.413
280.803
282.448
284.4
286.718
289.457
273.143
273.439
273.761
274.123
274.539
275.023
275.592
276.265
277.061
278.002
279.115
280.433
281.998
283.87
286.138
288.949
273.137
273.421
273.729
274.075
274.471
274.931
275.471
276.106
276.855
277.737
278.776
280
281.446
283.168
285.26
287.928
273.168
273.518
273.9
274.33
274.826
275.407
276.093
276.904
277.864
278.994
280.316
281.85
283.61
285.6
287.806
290.193
273.167
273.513
273.891
274.318
274.809
275.385
276.065
276.87
277.822
278.945
280.26
281.788
283.546
285.538
287.752
290.147
273.165
273.505
273.877
274.297
274.781
275.347
276.017
276.809
277.748
278.855
280.156
281.672
283.422
285.418
287.651
290.083
273.161
273.494
273.858
274.269
274.741
275.295
275.949
276.724
277.641
278.726
280.003
281.498
283.235
285.232
287.491
289.984
273.157
273.481
273.835
274.233
274.692
275.23
275.864
276.615
277.505
278.558
279.801
281.262
282.972
284.959
287.246
289.824
273.152
273.465
273.807
274.192
274.635
275.152
275.762
276.484
277.34
278.352
279.548
280.958
282.619
284.573
286.87
289.552
273.146
273.448
273.777
274.146
274.571
275.065
275.648
276.336
277.149
278.11
279.245
280.584
282.165
284.041
286.291
289.048
273.14
273.429
273.744
274.097
274.501
274.972
275.523
276.173
276.939
277.84
278.9
280.144
281.607
283.337
285.417
288.039
273.171
273.525
273.912
274.348
274.852
275.441
276.136
276.959
277.932
279.076
280.413
281.958
283.724
285.71
287.897
290.246
273.169
273.52
273.903
274.336
274.835
275.419
276.108
276.925
277.89
279.027
280.356
281.896
283.66
285.648
287.843
290.2
273.167
273.512
273.889
274.315
274.805
275.38
276.059
276.863
277.815
278.936
280.251
281.778
283.536
285.528
287.742
290.136
273.163
273.501
273.87
274.286
274.766
275.327
275.991
276.777
277.707
278.806
280.097
281.604
283.347
285.34
287.582
290.037
273.159
273.488
273.846
274.25
274.716
275.261
275.904
276.666
277.569
278.636
279.893
281.366
283.082
285.067
287.336
289.878
273.154
273.472
273.818
274.209
274.658
275.183
275.801
276.534
277.401
278.427
279.637
281.059
282.728
284.68
286.96
289.606
273.148
273.454
273.787
274.162
274.592
275.094
275.685
276.383
277.208
278.182
279.331
280.681
282.271
284.146
286.382
289.105
273.142
273.435
273.754
274.112
274.522
274.999
275.559
276.218
276.995
277.909
278.981
280.238
281.71
283.442
285.512
288.105
273.172
273.529
273.918
274.358
274.864
275.458
276.158
276.987
277.966
279.117
280.46
282.011
283.78
285.762
287.939
290.27
273.17
273.524
273.91
274.345
274.847
275.436
276.13
276.953
277.924
279.068
280.403
281.949
283.715
285.7
287.885
290.225
273.168
273.516
273.895
274.324
274.818
275.397
276.081
276.89
277.848
278.976
280.297
281.831
283.59
285.58
287.784
290.161
273.164
273.505
273.876
274.295
274.778
275.344
276.012
276.803
277.74
278.845
280.143
281.655
283.401
285.392
287.624
290.062
273.16
273.491
273.852
274.259
274.728
275.277
275.925
276.692
277.601
278.674
279.938
281.416
283.136
285.118
287.378
289.902
273.155
273.475
273.824
274.217
274.669
275.198
275.821
276.559
277.432
278.464
279.68
281.108
282.78
284.731
287.002
289.631
273.149
273.457
273.793
274.17
274.603
275.109
275.704
276.407
277.238
278.218
279.373
280.729
282.322
284.197
286.425
289.131
273.143
273.438
273.759
274.12
274.533
275.013
275.577
276.241
277.023
277.943
279.022
280.284
281.76
283.492
285.556
288.135
273.109
273.333
273.573
273.837
274.132
274.464
274.838
275.258
275.725
276.238
276.79
277.371
277.961
278.536
279.066
279.514
273.108
273.33
273.568
273.83
274.123
274.452
274.823
275.239
275.703
276.211
276.759
277.335
277.921
278.492
279.018
279.464
273.106
273.325
273.56
273.818
274.106
274.43
274.795
275.205
275.661
276.162
276.701
277.268
277.845
278.408
278.926
279.367
273.104
273.318
273.549
273.801
274.083
274.4
274.757
275.158
275.603
276.092
276.619
277.172
277.735
278.286
278.793
279.224
273.101
273.31
273.535
273.78
274.054
274.362
274.709
275.098
275.53
276.004
276.514
277.049
277.595
278.128
278.619
279.038
273.098
273.301
273.518
273.756
274.021
274.318
274.653
275.027
275.443
275.899
276.389
276.903
277.427
277.938
278.409
278.81
273.095
273.29
273.5
273.729
273.984
274.27
274.59
274.949
275.346
275.781
276.248
276.737
277.235
277.72
278.167
278.548
273.091
273.279
273.48
273.7
273.945
274.218
274.523
274.865
275.242
275.654
276.096
276.558
277.026
277.482
277.901
278.258
273.11
273.336
273.579
273.847
274.146
274.483
274.863
275.292
275.771
276.299
276.869
277.472
278.09
278.696
279.258
279.737
273.109
273.333
273.574
273.839
274.136
274.47
274.848
275.273
275.748
276.271
276.837
277.435
278.048
278.65
279.208
279.685
273.107
273.328
273.565
273.827
274.119
274.448
274.819
275.238
275.705
276.22
276.777
277.366
277.969
278.563
279.114
279.585
273.105
273.321
273.554
273.81
274.095
274.417
274.78
275.189
275.646
276.148
276.692
277.268
277.857
278.437
278.977
279.438
273.102
273.313
273.54
273.788
274.066
274.379
274.731
275.128
275.571
276.058
276.585
277.142
277.713
278.275
278.798
279.246
273.099
273.304
273.523
273.764
274.032
274.334
274.674
275.056
275.482
275.95
276.457
276.991
277.539
278.078
278.58
279.01
273.096
273.293
273.505
273.736
273.995
274.284
274.611
274.976
275.383
275.83
276.312
276.82
277.34
277.851
278.327
278.734
273.092
273.282
273.485
273.707
273.955
274.232
274.543
274.891
275.277
275.7
276.155
276.634
277.123
277.602
278.047
278.428
273.112
273.343
273.592
273.866
274.174
274.521
274.916
275.362
275.864
276.421
277.028
277.676
278.349
279.018
279.648
280.191
273.111
273.34
273.587
273.859
274.163
274.508
274.899
275.342
275.839
276.391
276.994
277.637
278.304
278.969
279.596
280.137
273.109
273.335
273.578
273.846
274.145
274.485
274.87
275.305
275.795
276.338
276.931
277.565
278.222
278.878
279.497
280.033
273.107
273.328
273.566
273.828
274.121
274.453
274.829
275.255
275.733
276.263
276.842
277.461
278.104
278.747
279.353
279.879
273.105
273.32
273.551
273.806
274.091
274.414
274.779
275.192
275.655
276.168
276.729
277.329
277.952
278.574
279.163
279.674
273.101
273.31
273.534
273.781
274.056
274.368
274.72
275.117
275.563
276.056
276.595
277.17
277.767
278.364
278.929
279.42
273.098
273.299
273.515
273.753
274.018
274.316
274.654
275.034
275.459
275.93
276.442
276.988
277.554
278.12
278.654
279.118
273.094
273.287
273.495
273.723
273.976
274.262
274.583
274.945
275.348
275.793
276.276
276.789
277.32
277.848
278.346
278.779
273.116
273.354
273.612
273.896
274.216
274.579
274.993
275.466
276
276.599
277.261
277.977
278.733
279.5
280.238
280.887
273.115
273.351
273.606
273.888
274.205
274.565
274.976
275.444
275.974
276.568
277.224
277.935
278.686
279.449
280.183
280.83
273.113
273.346
273.597
273.874
274.186
274.541
274.945
275.406
275.927
276.512
277.158
277.859
278.599
279.353
280.079
280.721
273.111
273.339
273.584
273.856
274.161
274.507
274.902
275.352
275.862
276.433
277.064
277.749
278.473
279.212
279.926
280.558
273.108
273.33
273.569
273.833
274.129
274.466
274.849
275.286
275.779
276.332
276.943
277.607
278.309
279.026
279.721
280.338
273.104
273.32
273.551
273.807
274.093
274.418
274.787
275.207
275.682
276.213
276.799
277.435
278.108
278.796
279.464
280.057
273.101
273.308
273.531
273.777
274.053
274.364
274.718
275.119
275.572
276.077
276.635
277.238
277.875
278.525
279.155
279.717
273.097
273.296
273.51
273.746
274.009
274.307
274.644
275.025
275.454
275.931
276.455
277.02
277.615
278.22
278.804
279.323
273.12
273.368
273.636
273.934
274.269
274.652
275.092
275.597
276.174
276.827
277.558
278.364
279.231
280.135
281.029
281.84
273.119
273.365
273.631
273.925
274.258
274.638
275.074
275.574
276.146
276.794
277.519
278.319
279.181
280.081
280.972
281.782
273.117
273.359
273.621
273.911
274.238
274.612
275.041
275.534
276.096
276.734
277.449
278.237
279.088
279.979
280.863
281.669
273.115
273.352
273.608
273.891
274.212
274.577
274.996
275.477
276.027
276.649
277.348
278.119
278.953
279.828
280.7
281.497
273.112
273.343
273.592
273.868
274.179
274.533
274.94
275.406
275.939
276.542
277.218
277.966
278.775
279.626
280.478
281.26
273.108
273.332
273.573
273.84
274.14
274.482
274.874
275.323
275.834
276.413
277.062
277.778
278.555
279.372
280.192
280.948
273.105
273.32
273.553
273.809
274.098
274.426
274.801
275.229
275.716
276.267
276.882
277.561
278.294
279.065
279.839
280.554
273.101
273.308
273.531
273.776
274.052
274.365
274.722
275.128
275.589
276.107
276.685
277.319
278.001
278.714
279.426
280.081
273.126
273.385
273.666
273.978
274.332
274.739
275.208
275.751
276.376
277.093
277.907
278.819
279.824
280.903
282.014
283.067
273.124
273.381
273.66
273.969
274.32
274.723
275.188
275.726
276.347
277.058
277.865
278.771
279.771
280.847
281.956
283.009
273.123
273.376
273.649
273.954
274.299
274.696
275.154
275.683
276.294
276.994
277.789
278.684
279.672
280.739
281.843
282.895
273.12
273.368
273.636
273.934
274.271
274.659
275.106
275.623
276.219
276.903
277.681
278.557
279.528
280.579
281.672
282.719
273.117
273.358
273.619
273.908
274.236
274.612
275.046
275.547
276.125
276.787
277.541
278.39
279.334
280.361
281.433
282.469
273.113
273.347
273.599
273.879
274.196
274.558
274.976
275.458
276.013
276.648
277.371
278.185
279.091
280.079
281.116
282.126
273.109
273.334
273.577
273.847
274.151
274.498
274.897
275.357
275.885
276.489
277.174
277.944
278.799
279.731
280.71
281.669
273.105
273.321
273.554
273.812
274.102
274.433
274.813
275.249
275.747
276.315
276.956
277.673
278.465
279.322
280.217
281.087
273.131
273.403
273.698
274.027
274.402
274.833
275.335
275.919
276.598
277.384
278.287
279.318
280.481
281.772
283.166
284.581
273.13
273.4
273.692
274.018
274.389
274.817
275.314
275.893
276.566
277.346
278.243
279.268
280.425
281.714
283.107
284.523
273.128
273.394
273.681
274.002
274.367
274.788
275.277
275.847
276.51
277.278
278.162
279.174
280.321
281.602
282.993
284.413
273.126
273.385
273.667
273.98
274.337
274.749
275.227
275.783
276.43
277.181
278.046
279.039
280.167
281.434
282.819
284.242
273.122
273.375
273.649
273.954
274.3
274.7
275.163
275.702
276.329
277.056
277.895
278.859
279.959
281.2
282.569
283.992
273.119
273.363
273.628
273.923
274.257
274.642
275.088
275.607
276.209
276.906
277.71
278.635
279.692
280.891
282.225
283.631
273.114
273.35
273.605
273.888
274.209
274.578
275.004
275.498
276.071
276.733
277.495
278.368
279.366
280.498
281.763
283.111
273.11
273.336
273.58
273.851
274.158
274.509
274.914
275.381
275.921
276.543
277.255
278.066
278.986
280.022
281.169
282.385
273.138
273.423
273.732
274.079
274.474
274.933
275.468
276.094
276.828
277.684
278.679
279.831
281.158
282.68
284.415
286.356
273.137
273.419
273.726
274.069
274.461
274.915
275.446
276.067
276.794
277.644
278.632
279.778
281.101
282.62
284.356
286.296
273.134
273.412
273.714
274.052
274.438
274.885
275.407
276.018
276.734
277.571
278.547
279.68
280.992
282.506
284.244
286.197
273.132
273.404
273.699
274.029
274.406
274.843
275.353
275.95
276.65
277.468
278.423
279.536
280.829
282.332
284.072
286.046
273.128
273.393
273.68
274.001
274.367
274.791
275.285
275.864
276.542
277.335
278.261
279.343
280.607
282.087
283.821
285.819
273.124
273.38
273.658
273.968
274.322
274.73
275.206
275.762
276.412
277.173
278.062
279.101
280.319
281.755
283.46
285.469
273.12
273.367
273.634
273.932
274.271
274.662
275.116
275.646
276.264
276.986
277.827
278.809
279.959
281.318
282.948
284.913
273.115
273.352
273.608
273.893
274.216
274.588
275.019
275.52
276.103
276.78
277.564
278.474
279.532
280.771
282.244
284.019
273.115
273.352
273.608
273.893
274.216
274.588
275.018
275.519
276.102
276.778
277.563
278.473
279.531
280.77
282.242
284.018
273.11
273.336
273.58
273.851
274.157
274.508
274.912
275.38
275.919
276.54
277.252
278.063
278.984
280.019
281.166
282.383
273.105
273.321
273.554
273.811
274.101
274.432
274.811
275.246
275.745
276.312
276.953
277.67
278.462
279.318
280.213
281.084
273.1
273.307
273.53
273.775
274.051
274.363
274.719
275.125
275.586
276.104
276.681
277.315
277.997
278.71
279.422
280.078
273.097
273.296
273.51
273.745
274.008
274.305
274.641
275.022
275.45
275.927
276.451
277.016
277.611
278.216
278.8
279.319
273.094
273.287
273.494
273.721
273.975
274.26
274.581
274.942
275.344
275.789
276.272
276.785
277.316
277.844
278.342
278.775
273.092
273.281
273.484
273.706
273.953
274.229
274.54
274.887
275.273
275.696
276.151
276.629
277.118
277.598
278.043
278.424
273.091
273.279
273.48
273.699
273.943
274.215
274.521
274.862
275.239
275.65
276.091
276.553
277.021
277.477
277.897
278.254
273.119
273.366
273.633
273.931
274.27
274.66
275.114
275.643
276.262
276.983
277.824
278.805
279.955
281.315
282.945
284.91
273.114
273.35
273.604
273.887
274.208
274.576
275.002
275.495
276.068
276.729
277.49
278.364
279.361
280.493
281.758
283.107
273.109
273.334
273.576
273.845
274.149
274.496
274.894
275.354
275.881
276.484
277.169
277.939
278.794
279.725
280.705
281.664
273.104
273.32
273.551
273.808
274.096
274.423
274.797
275.225
275.712
276.262
276.877
277.555
278.288
279.059
279.833
280.549
273.101
273.308
273.53
273.776
274.05
274.361
274.715
275.115
275.567
276.072
276.629
277.232
277.868
278.519
279.149
279.711
273.098
273.298
273.514
273.751
274.015
274.313
274.65
275.03
275.454
275.924
276.436
276.982
277.548
278.113
278.648
279.113
273.096
273.292
273.503
273.735
273.992
274.281
274.607
274.972
275.378
275.824
276.306
276.813
277.333
277.845
278.321
278.729
273.095
273.29
273.499
273.727
273.982
274.267
274.586
274.944
275.341
275.775
276.242
276.731
277.228
277.713
278.161
278.542
273.124
273.38
273.657
273.967
274.319
274.727
275.202
275.757
276.407
277.167
278.056
279.094
280.312
281.748
283.454
285.464
273.118
273.362
273.627
273.921
274.255
274.639
275.084
275.602
276.203
276.899
277.703
278.627
279.684
280.883
282.218
283.624
273.113
273.346
273.598
273.877
274.193
274.555
274.972
275.453
276.006
276.641
277.363
278.177
279.083
280.07
281.108
282.119
273.108
273.331
273.572
273.838
274.137
274.479
274.87
275.317
275.828
276.406
277.054
277.77
278.546
279.363
280.183
280.94
273.104
273.319
273.55
273.804
274.09
274.414
274.783
275.202
275.675
276.205
276.791
277.426
278.099
278.788
279.455
280.05
273.101
273.309
273.533
273.778
274.053
274.364
274.715
275.111
275.556
276.049
276.586
277.161
277.758
278.355
278.92
279.412
273.099
273.303
273.521
273.761
274.029
274.33
274.669
275.051
275.475
275.943
276.448
276.982
277.53
278.069
278.571
279.002
273.098
273.3
273.516
273.754
274.018
274.314
274.648
275.021
275.436
275.891
276.38
276.894
277.418
277.929
278.401
278.803
273.128
273.392
273.679
273.999
274.364
274.786
275.28
275.857
276.533
277.325
278.251
279.333
280.597
282.077
283.811
285.811
273.122
273.374
273.647
273.951
274.296
274.695
275.157
275.695
276.321
277.046
277.885
278.848
279.947
281.188
282.558
283.983
273.117
273.357
273.617
273.906
274.232
274.607
275.04
275.54
276.116
276.777
277.53
278.379
279.322
280.348
281.422
282.458
273.112
273.342
273.59
273.865
274.175
274.528
274.933
275.398
275.929
276.531
277.207
277.954
278.763
279.614
280.466
281.249
273.107
273.329
273.567
273.83
274.125
274.461
274.843
275.278
275.77
276.322
276.932
277.595
278.297
279.014
279.709
280.327
273.104
273.319
273.549
273.803
274.087
274.408
274.772
275.184
275.646
276.158
276.718
277.317
277.939
278.562
279.151
279.664
273.102
273.312
273.538
273.785
274.062
274.373
274.725
275.12
275.561
276.047
276.573
277.13
277.7
278.263
278.787
279.236
273.101
273.309
273.532
273.777
274.05
274.357
274.702
275.09
275.521
275.993
276.502
277.038
277.583
278.116
278.608
279.028
273.131
273.402
273.697
274.025
274.401
274.836
275.344
275.939
276.637
277.454
278.408
279.52
280.813
282.316
284.057
286.033
273.125
273.384
273.664
273.976
274.332
274.741
275.218
275.772
276.418
277.166
278.031
279.022
280.15
281.417
282.802
284.228
273.12
273.366
273.633
273.929
274.266
274.651
275.097
275.612
276.207
276.889
277.665
278.54
279.51
280.562
281.655
282.704
273.114
273.35
273.605
273.887
274.206
274.57
274.987
275.466
276.014
276.635
277.332
278.102
278.936
279.811
280.684
281.482
273.11
273.337
273.581
273.851
274.155
274.5
274.893
275.342
275.849
276.419
277.048
277.732
278.456
279.195
279.91
280.544
273.107
273.327
273.563
273.824
274.116
274.446
274.82
275.244
275.72
276.249
276.827
277.445
278.088
278.73
279.337
279.865
273.105
273.32
273.551
273.806
274.09
274.41
274.771
275.179
275.633
276.135
276.677
277.252
277.841
278.422
278.962
279.425
273.103
273.317
273.546
273.797
274.078
274.393
274.748
275.147
275.591
276.079
276.604
277.157
277.72
278.27
278.778
279.211
273.134
273.41
273.71
274.046
274.43
274.874
275.394
276.003
276.717
277.551
278.525
279.657
280.968
282.482
284.221
286.176
273.128
273.391
273.677
273.996
274.359
274.778
275.265
275.832
276.492
277.258
278.14
279.151
280.297
281.578
282.97
284.391
273.122
273.373
273.646
273.948
274.291
274.685
275.141
275.668
276.276
276.974
277.768
278.66
279.648
280.715
281.82
282.873
273.117
273.357
273.617
273.905
274.23
274.602
275.029
275.519
276.079
276.714
277.427
278.214
279.065
279.955
280.841
281.648
273.112
273.343
273.593
273.868
274.178
274.531
274.933
275.391
275.91
276.493
277.137
277.837
278.576
279.33
280.058
280.702
273.109
273.333
273.574
273.84
274.138
274.475
274.858
275.291
275.778
276.319
276.911
277.543
278.2
278.857
279.477
280.014
273.107
273.326
273.562
273.821
274.111
274.438
274.808
275.224
275.689
276.202
276.758
277.345
277.948
278.542
279.095
279.568
273.105
273.323
273.556
273.813
274.099
274.421
274.784
275.192
275.646
276.145
276.682
277.248
277.824
278.388
278.908
279.35
273.136
273.416
273.72
274.06
274.45
274.901
275.428
276.046
276.77
277.616
278.602
279.746
281.067
282.586
284.322
286.261
273.129
273.397
273.686
274.009
274.377
274.802
275.297
275.872
276.542
277.319
278.213
279.236
280.393
281.68
283.074
284.49
273.123
273.378
273.654
273.961
274.309
274.709
275.171
275.706
276.323
277.031
277.836
278.74
279.739
280.815
281.925
282.979
273.118
273.362
273.625
273.917
274.247
274.624
275.057
275.554
276.123
276.768
277.491
278.289
279.15
280.05
280.943
281.755
273.114
273.348
273.601
273.88
274.194
274.551
274.959
275.425
275.952
276.543
277.197
277.906
278.656
279.42
280.155
280.805
273.11
273.337
273.582
273.851
274.153
274.495
274.884
275.323
275.818
276.367
276.967
277.609
278.276
278.941
279.569
280.113
273.108
273.33
273.569
273.832
274.126
274.458
274.833
275.255
275.727
276.248
276.812
277.409
278.021
278.623
279.183
279.663
273.107
273.327
273.564
273.823
274.113
274.44
274.808
275.222
275.683
276.19
276.736
277.31
277.895
278.467
278.994
279.443
273.136
273.419
273.725
274.068
274.46
274.914
275.445
276.067
276.797
277.649
278.641
279.79
281.116
282.637
284.37
286.302
273.13
273.399
273.691
274.016
274.387
274.815
275.313
275.893
276.568
277.349
278.25
279.278
280.439
281.73
283.125
284.538
273.124
273.381
273.658
273.967
274.318
274.721
275.186
275.725
276.347
277.06
277.87
278.78
279.784
280.863
281.975
283.031
273.119
273.364
273.629
273.923
274.255
274.635
275.071
275.572
276.145
276.795
277.523
278.326
279.192
280.096
280.993
281.807
273.114
273.35
273.605
273.886
274.202
274.562
274.973
275.442
275.973
276.568
277.227
277.942
278.696
279.464
280.203
280.856
273.111
273.339
273.585
273.857
274.161
274.505
274.897
275.34
275.838
276.391
276.996
277.643
278.314
278.984
279.615
280.162
273.109
273.332
273.573
273.838
274.134
274.467
274.845
275.271
275.746
276.271
276.839
277.441
278.057
278.664
279.228
279.711
273.107
273.329
273.567
273.829
274.121
274.45
274.821
275.238
275.702
276.212
276.763
277.341
277.931
278.506
279.038
279.49
273.088
273.268
273.461
273.671
273.904
274.164
274.455
274.778
275.135
275.523
275.938
276.371
276.808
277.232
277.622
277.953
273.084
273.257
273.441
273.642
273.864
274.112
274.387
274.693
275.029
275.393
275.781
276.184
276.589
276.982
277.341
277.645
273.08
273.246
273.423
273.615
273.827
274.062
274.323
274.612
274.928
275.27
275.631
276.006
276.381
276.742
277.071
277.35
273.077
273.237
273.406
273.59
273.793
274.017
274.265
274.538
274.837
275.157
275.496
275.844
276.191
276.524
276.826
277.081
273.075
273.229
273.392
273.57
273.764
273.979
274.216
274.476
274.759
275.062
275.38
275.706
276.029
276.338
276.617
276.851
273.073
273.222
273.381
273.554
273.742
273.949
274.178
274.428
274.698
274.987
275.289
275.597
275.902
276.191
276.452
276.671
273.071
273.218
273.374
273.543
273.727
273.93
274.152
274.395
274.657
274.936
275.227
275.523
275.815
276.091
276.34
276.547
273.071
273.216
273.371
273.538
273.72
273.92
274.14
274.379
274.637
274.911
275.197
275.487
275.772
276.041
276.283
276.485
273.088
273.27
273.465
273.678
273.914
274.177
274.473
274.802
275.167
275.565
275.992
276.44
276.895
277.34
277.752
278.104
273.085
273.259
273.445
273.648
273.873
274.124
274.404
274.715
275.058
275.431
275.83
276.246
276.668
277.077
277.455
277.777
273.081
273.248
273.426
273.621
273.835
274.073
274.338
274.632
274.955
275.304
275.676
276.061
276.45
276.825
277.17
277.462
273.078
273.239
273.41
273.596
273.801
274.028
274.279
274.557
274.861
275.189
275.535
275.893
276.252
276.596
276.911
277.177
273.075
273.23
273.396
273.575
273.771
273.989
274.229
274.494
274.782
275.09
275.416
275.75
276.082
276.401
276.69
276.934
273.073
273.224
273.385
273.558
273.749
273.959
274.19
274.444
274.719
275.014
275.322
275.637
275.95
276.248
276.517
276.743
273.072
273.22
273.377
273.548
273.734
273.939
274.164
274.411
274.677
274.962
275.258
275.561
275.86
276.143
276.399
276.613
273.071
273.218
273.374
273.543
273.727
273.93
274.152
274.395
274.657
274.936
275.227
275.523
275.815
276.091
276.34
276.547
273.09
273.276
273.474
273.692
273.934
274.205
274.511
274.853
275.233
275.651
276.103
276.582
277.074
277.562
278.019
278.415
273.086
273.264
273.454
273.662
273.892
274.15
274.439
274.761
275.119
275.51
275.931
276.373
276.826
277.272
277.688
278.045
273.083
273.253
273.435
273.633
273.853
274.098
274.371
274.675
275.01
275.375
275.766
276.174
276.589
276.995
277.37
277.691
273.08
273.243
273.418
273.608
273.817
274.05
274.31
274.597
274.912
275.253
275.616
275.994
276.374
276.743
277.082
277.371
273.077
273.235
273.403
273.586
273.787
274.01
274.258
274.53
274.828
275.149
275.489
275.84
276.191
276.529
276.837
277.099
273.075
273.228
273.392
273.569
273.764
273.979
274.217
274.479
274.763
275.068
275.389
275.719
276.047
276.361
276.647
276.887
273.073
273.224
273.385
273.558
273.749
273.959
274.19
274.444
274.719
275.013
275.322
275.637
275.95
276.248
276.517
276.743
273.073
273.222
273.381
273.554
273.742
273.949
274.178
274.427
274.698
274.987
275.289
275.597
275.902
276.191
276.452
276.671
273.093
273.284
273.489
273.714
273.965
274.248
274.567
274.927
275.331
275.778
276.267
276.792
277.34
277.894
278.425
278.893
273.089
273.272
273.468
273.683
273.921
274.19
274.492
274.831
275.209
275.626
276.079
276.562
277.063
277.564
278.039
278.454
273.085
273.26
273.448
273.653
273.88
274.135
274.42
274.739
275.093
275.481
275.899
276.342
276.797
277.247
277.669
278.035
273.082
273.25
273.43
273.626
273.843
274.085
274.355
274.656
274.987
275.349
275.736
276.142
276.555
276.96
277.336
277.659
273.079
273.241
273.415
273.603
273.812
274.043
274.3
274.585
274.898
275.237
275.597
275.972
276.35
276.718
277.055
277.343
273.077
273.235
273.403
273.586
273.787
274.01
274.257
274.53
274.828
275.149
275.489
275.839
276.19
276.529
276.837
277.098
273.075
273.23
273.395
273.575
273.771
273.989
274.229
274.493
274.781
275.09
275.415
275.749
276.082
276.4
276.689
276.933
273.075
273.229
273.392
273.569
273.764
273.979
274.216
274.476
274.759
275.061
275.379
275.705
276.028
276.337
276.616
276.851
273.096
273.295
273.508
273.743
274.005
274.302
274.64
275.023
275.456
275.941
276.478
277.063
277.688
278.334
278.971
279.551
273.092
273.282
273.486
273.709
273.959
274.241
274.559
274.92
275.324
275.775
276.27
276.805
277.369
277.946
278.506
279.008
273.088
273.27
273.465
273.678
273.915
274.182
274.483
274.821
275.198
275.616
276.071
276.557
277.065
277.575
278.063
278.493
273.085
273.259
273.446
273.65
273.876
274.129
274.414
274.731
275.084
275.471
275.89
276.333
276.789
277.241
277.667
278.037
273.082
273.25
273.43
273.626
273.843
274.085
274.355
274.655
274.987
275.349
275.736
276.142
276.555
276.96
277.336
277.659
273.08
273.243
273.418
273.607
273.817
274.05
274.309
274.596
274.911
275.253
275.616
275.993
276.373
276.742
277.081
277.37
273.078
273.238
273.41
273.595
273.8
274.027
274.279
274.557
274.86
275.188
275.534
275.892
276.251
276.595
276.91