/*--------------------------------*- C++ -*----------------------------------*\
| =========                 |                                                 |
| \\      /  F ield         | OpenFOAM: The Open Source CFD Toolbox           |
|  \\    /   O peration     | Version:  v1912                                 |
|   \\  /    A nd           | Website:  www.openfoam.com                      |
|    \\/     M anipulation  |                                                 |
\*---------------------------------------------------------------------------*/
FoamFile
{
    version     2.0;
    format      ascii;
    class       volVectorField;
    location    "0.33/fluid";
    object      U;
}
// * * * * * * * * * * * * * * * * * * * * * * * * * * * * * * * * * * * * * //

dimensions      [0 1 -1 0 0 0 0];


internalField   nonuniform List<vector> 
14592
(
(0.0880125 0.0165454 0.000543229)
(0.0748352 0.0102228 0.000570017)
(0.0632703 0.00576833 0.000111546)
(0.0578642 0.00256827 -0.000546713)
(0.0547575 0.00116374 -0.0013881)
(0.0530288 0.000562991 -0.0024197)
(0.0517353 0.000341448 -0.00369319)
(0.0505938 0.000260006 -0.00528742)
(0.0492863 0.000234849 -0.00731343)
(0.0478931 0.000209069 -0.0099601)
(0.045869 0.000172815 -0.0134861)
(0.0438174 2.51973e-05 -0.018329)
(0.0398847 -0.000185481 -0.0252679)
(0.0362213 -0.000902372 -0.0350254)
(0.0257454 -0.00142782 -0.0486504)
(0.0146236 -0.00440922 -0.0493124)
(0.104087 0.0161285 0.000597641)
(0.104705 0.0137183 0.000523529)
(0.103246 0.00968819 -0.000175043)
(0.101178 0.00581636 -0.00117926)
(0.0991079 0.00358219 -0.00246915)
(0.0973176 0.00243198 -0.00407149)
(0.095576 0.00196088 -0.0060692)
(0.0937773 0.00184852 -0.00858761)
(0.0916214 0.0019433 -0.0118032)
(0.0891607 0.00214833 -0.0160055)
(0.0856915 0.00242411 -0.0215959)
(0.0817533 0.00265244 -0.0292377)
(0.074888 0.00284603 -0.0400272)
(0.0672667 0.00252625 -0.0550618)
(0.0488152 0.00207542 -0.0749245)
(0.0284293 -0.00164385 -0.074941)
(0.103789 0.0101668 0.00060099)
(0.107433 0.012027 0.000500298)
(0.109618 0.0100871 -0.000239606)
(0.109714 0.00726924 -0.00129284)
(0.108987 0.00529372 -0.00264423)
(0.107841 0.00415058 -0.00432655)
(0.106416 0.00368639 -0.0064275)
(0.104739 0.0036767 -0.00907976)
(0.102589 0.00399057 -0.012469)
(0.100029 0.00453465 -0.0169036)
(0.0963258 0.00525951 -0.0228071)
(0.0919624 0.00605782 -0.0308993)
(0.0843158 0.00690864 -0.0423273)
(0.0754765 0.00737606 -0.058357)
(0.0546559 0.00730488 -0.0795286)
(0.0312269 0.00324617 -0.0803321)
(0.101963 0.0067546 0.000621033)
(0.105276 0.00967735 0.000539361)
(0.108267 0.00912001 -0.000186375)
(0.109445 0.00745987 -0.00122256)
(0.109693 0.00606831 -0.00255145)
(0.109239 0.00523652 -0.00420319)
(0.108307 0.00498484 -0.00626184)
(0.106979 0.00520838 -0.00885714)
(0.105092 0.00583307 -0.0121696)
(0.102733 0.00680691 -0.0165074)
(0.0991608 0.00810896 -0.0222865)
(0.0948429 0.00967889 -0.0302491)
(0.0870486 0.0115052 -0.0415331)
(0.0778459 0.0131611 -0.0575432)
(0.0561551 0.0139925 -0.0788492)
(0.0313542 0.00877119 -0.0804023)
(0.101069 0.00462529 0.000656781)
(0.103721 0.00753868 0.000617336)
(0.10664 0.00782043 -7.28913e-05)
(0.108262 0.00706969 -0.00107265)
(0.109094 0.00629658 -0.00235521)
(0.109181 0.00588183 -0.00394286)
(0.108723 0.00594037 -0.00591123)
(0.107808 0.00646138 -0.00838134)
(0.106302 0.00742777 -0.0115202)
(0.104315 0.00883835 -0.0156245)
(0.101107 0.0107047 -0.0210836)
(0.0971377 0.0130249 -0.0286437)
(0.0895633 0.015802 -0.0393878)
(0.0803769 0.0186107 -0.054884)
(0.0579852 0.0203957 -0.0756632)
(0.0317015 0.0135007 -0.0781091)
(0.100687 0.0033175 0.000700389)
(0.102886 0.00583019 0.000714689)
(0.105615 0.00649917 7.04247e-05)
(0.107455 0.00634836 -0.000884036)
(0.108666 0.00609243 -0.00210958)
(0.109177 0.0060912 -0.00361808)
(0.10914 0.00649113 -0.00547442)
(0.108635 0.00734355 -0.00778828)
(0.107541 0.008685 -0.0107097)
(0.10598 0.0105863 -0.0145186)
(0.103215 0.0131298 -0.019569)
(0.0996893 0.016466 -0.0266038)
(0.0924511 0.0207406 -0.0366226)
(0.0834171 0.025791 -0.0513846)
(0.0603689 0.0303718 -0.0713268)
(0.0325149 0.0226049 -0.0749683)
(0.100543 0.00229941 0.000751513)
(0.102526 0.00430671 0.000828232)
(0.10516 0.00515422 0.000237882)
(0.107148 0.00542195 -0.00066374)
(0.108637 0.0055968 -0.0018224)
(0.109497 0.00597169 -0.0032367)
(0.109856 0.00669182 -0.00495707)
(0.109794 0.00784353 -0.0070756)
(0.109223 0.00949945 -0.00971498)
(0.108298 0.0117894 -0.0131189)
(0.106359 0.0148445 -0.0175717)
(0.103899 0.0189536 -0.0237529)
(0.0980037 0.0243579 -0.0324595)
(0.090582 0.0311986 -0.0455635)
(0.0680243 0.0381193 -0.0630901)
(0.0392636 0.029061 -0.0679886)
(0.100499 0.0014204 0.000806964)
(0.102425 0.0028828 0.000951)
(0.105077 0.00377207 0.000418795)
(0.107215 0.00432763 -0.000426386)
(0.108934 0.00484949 -0.00151403)
(0.110086 0.00554577 -0.00282861)
(0.110789 0.00654267 -0.0044056)
(0.111129 0.00794591 -0.00631867)
(0.11105 0.00985815 -0.00866343)
(0.110729 0.0124806 -0.0116456)
(0.109579 0.0160278 -0.0154817)
(0.108126 0.0211005 -0.0207798)
(0.103555 0.0283067 -0.0281374)
(0.0979574 0.0396171 -0.0395344)
(0.0766053 0.0548081 -0.0547033)
(0.050517 0.0624367 -0.0622666)
(0.0879789 0.0165475 0.000307093)
(0.0746542 0.0102336 0.000203377)
(0.062877 0.0057776 -0.000235192)
(0.0572852 0.00257522 -0.000814939)
(0.053989 0.00117178 -0.00155693)
(0.0520594 0.00057388 -0.00248547)
(0.0505225 0.000356787 -0.00365194)
(0.0490729 0.000281148 -0.00512103)
(0.0473618 0.000264816 -0.00698513)
(0.0454336 0.000251917 -0.00937131)
(0.0427229 0.000239329 -0.0124693)
(0.039726 0.000134951 -0.0164337)
(0.034784 1.14296e-05 -0.0217186)
(0.029459 -0.000499104 -0.0276916)
(0.0187821 -0.000792835 -0.0342237)
(0.00626618 -0.00287328 -0.0250287)
(0.10404 0.0161418 0.000290289)
(0.104455 0.0137516 2.80208e-05)
(0.10269 0.00972956 -0.000666066)
(0.100319 0.00586298 -0.0015731)
(0.0979298 0.00364025 -0.00272429)
(0.0957964 0.00250841 -0.00417467)
(0.0936445 0.00206389 -0.00601107)
(0.0913288 0.00198727 -0.00834183)
(0.0884964 0.00213092 -0.0113161)
(0.085138 0.00240033 -0.0151412)
(0.0804956 0.00276647 -0.0201146)
(0.0749657 0.00311393 -0.0265261)
(0.0662783 0.00348305 -0.035006)
(0.0559748 0.00340903 -0.0448406)
(0.0367653 0.00317144 -0.0550541)
(0.014433 -0.000200036 -0.0404982)
(0.103743 0.0101923 0.000281552)
(0.107176 0.0120848 -1.87679e-05)
(0.109044 0.0101663 -0.000756887)
(0.10882 0.00736586 -0.00171022)
(0.107756 0.00541486 -0.00291719)
(0.106247 0.00430795 -0.00444025)
(0.104389 0.00389586 -0.00637184)
(0.102168 0.00395715 -0.0088275)
(0.0993042 0.00436745 -0.0119643)
(0.0957952 0.00503694 -0.0160051)
(0.0908445 0.00593006 -0.0212624)
(0.0847895 0.00693328 -0.0280634)
(0.0751742 0.00805468 -0.0370566)
(0.0634685 0.0087919 -0.0475624)
(0.0417562 0.00889382 -0.0584422)
(0.016219 0.00436919 -0.0429996)
(0.101919 0.00678795 0.000300496)
(0.105023 0.00975306 1.58962e-05)
(0.107701 0.00922874 -0.000708422)
(0.108567 0.00759784 -0.00164462)
(0.108488 0.00624401 -0.00282949)
(0.107682 0.00546625 -0.00432294)
(0.106331 0.00529177 -0.00621385)
(0.104478 0.00562173 -0.00861499)
(0.101898 0.00639257 -0.0116784)
(0.0986189 0.00755975 -0.0156265)
(0.0938271 0.00912339 -0.0207634)
(0.0878509 0.0110162 -0.0274326)
(0.0781014 0.0132689 -0.0362644)
(0.0660352 0.0153299 -0.0466584)
(0.043404 0.0164607 -0.057469)
(0.0163731 0.0102217 -0.0422701)
(0.101027 0.0046668 0.000336433)
(0.103473 0.0076324 9.23232e-05)
(0.106089 0.00795721 -0.000597309)
(0.107413 0.00724599 -0.00149805)
(0.107935 0.00652255 -0.00263845)
(0.107692 0.00617797 -0.00407085)
(0.106843 0.00633661 -0.00587593)
(0.105439 0.00699676 -0.00815858)
(0.103289 0.00815572 -0.0110584)
(0.100446 0.00982431 -0.0147889)
(0.0960927 0.0120433 -0.0196302)
(0.0905634 0.0148054 -0.0259345)
(0.081109 0.0181766 -0.0342834)
(0.0691442 0.0215508 -0.0442174)
(0.0457185 0.0238068 -0.0545862)
(0.0170052 0.015392 -0.0401572)
(0.100645 0.00336562 0.000379966)
(0.102645 0.00593837 0.000188027)
(0.105084 0.00665812 -0.000457039)
(0.106641 0.00655497 -0.00131397)
(0.107563 0.00635868 -0.00239975)
(0.10777 0.00644156 -0.00375668)
(0.107377 0.00696205 -0.00545523)
(0.106428 0.00798436 -0.00759007)
(0.104748 0.00956487 -0.0102852)
(0.102409 0.0117951 -0.0137416)
(0.0985916 0.0148018 -0.0182082)
(0.0936322 0.0187472 -0.0240442)
(0.0846131 0.0238853 -0.0317617)
(0.0729381 0.0298403 -0.0410869)
(0.048756 0.0353788 -0.0508401)
(0.018233 0.0256117 -0.037544)
(0.100503 0.00235297 0.000430411)
(0.102294 0.00442616 0.000299083)
(0.10465 0.00532993 -0.000293949)
(0.106376 0.00565107 -0.00109996)
(0.1076 0.00589269 -0.00212183)
(0.108189 0.0063617 -0.0033892)
(0.108235 0.00721709 -0.00495913)
(0.107789 0.00856098 -0.00691101)
(0.106716 0.0104897 -0.00934514)
(0.105136 0.0131611 -0.0124356)
(0.102305 0.0167611 -0.0163762)
(0.0986553 0.0216077 -0.0215011)
(0.0912306 0.0280853 -0.0281815)
(0.0815739 0.0361078 -0.036351)
(0.057815 0.0444156 -0.0446922)
(0.0262476 0.0328304 -0.0330247)
(0.100459 0.00147721 0.0004846)
(0.102203 0.0030086 0.000418515)
(0.104592 0.00395696 -0.000118469)
(0.106486 0.00456902 -0.000870124)
(0.107967 0.00516159 -0.00182409)
(0.108881 0.00595764 -0.00299646)
(0.109317 0.00709841 -0.00443042)
(0.109335 0.00870808 -0.00618933)
(0.10884 0.0109165 -0.00834971)
(0.107985 0.0139633 -0.0110574)
(0.106106 0.0181313 -0.0144516)
(0.103708 0.0240936 -0.0188374)
(0.097869 0.0326602 -0.0244428)
(0.0905137 0.0456962 -0.0314294)
(0.0680128 0.0632793 -0.0383824)
(0.0392984 0.0682703 -0.0292486)
(0.0879529 0.0165494 0.00014437)
(0.0745079 0.0102426 -3.64675e-05)
(0.0625491 0.00578564 -0.000443331)
(0.0567851 0.00258138 -0.000945923)
(0.053305 0.00117864 -0.00158578)
(0.0511734 0.000582721 -0.00239623)
(0.0493901 0.000368482 -0.00342535)
(0.0476244 0.000295914 -0.00472495)
(0.0454972 0.000283364 -0.00637103)
(0.0430036 0.000274545 -0.00844999)
(0.0395622 0.000268555 -0.0111124)
(0.0355433 0.000176022 -0.0144073)
(0.0295282 7.22901e-05 -0.0186788)
(0.0227115 -0.000372834 -0.0231903)
(0.0123614 -0.000687725 -0.0276712)
(0.00128559 -0.00242551 -0.0200729)
(0.104003 0.0161545 8.43009e-05)
(0.10425 0.0137826 -0.000282462)
(0.102222 0.00976865 -0.000942087)
(0.0995725 0.00590748 -0.00174395)
(0.0968796 0.00369527 -0.00274688)
(0.0944084 0.00258003 -0.00401932)
(0.0918495 0.0021593 -0.0056449)
(0.089018 0.00211421 -0.00771401)
(0.0855116 0.00229996 -0.0103495)
(0.0812503 0.00262292 -0.013699)
(0.0754379 0.00306035 -0.0179919)
(0.0683246 0.0034944 -0.0233572)
(0.0579194 0.00397509 -0.0302379)
(0.045423 0.00402912 -0.0377115)
(0.0264784 0.00381351 -0.0446743)
(0.00613359 0.000438545 -0.032196)
(0.103707 0.0102171 6.82591e-05)
(0.106965 0.0121399 -0.00034174)
(0.108561 0.0102422 -0.00104502)
(0.108044 0.00745852 -0.00188922)
(0.10666 0.00553052 -0.00294155)
(0.104794 0.00445732 -0.00427824)
(0.102507 0.00409361 -0.00598867)
(0.099743 0.00422061 -0.00816986)
(0.0961689 0.0047197 -0.0109512)
(0.091709 0.0055033 -0.014493)
(0.085518 0.00654679 -0.0190349)
(0.0777871 0.00772662 -0.0247329)
(0.0663215 0.00906936 -0.0320355)
(0.0522663 0.0100014 -0.0400279)
(0.0307201 0.0101855 -0.0474354)
(0.00721399 0.00517415 -0.0341226)
(0.101885 0.00682056 8.52468e-05)
(0.104816 0.00982589 -0.000312085)
(0.107227 0.00933309 -0.00100265)
(0.107807 0.00773004 -0.00183067)
(0.107415 0.00641176 -0.00286243)
(0.106263 0.00568468 -0.00417193)
(0.104497 0.00558262 -0.00584528)
(0.102117 0.00601235 -0.00797716)
(0.0988473 0.00691998 -0.0106925)
(0.094641 0.0082669 -0.0141518)
(0.0886295 0.0100718 -0.0185871)
(0.0809978 0.0122562 -0.0241699)
(0.0693889 0.0148861 -0.0313325)
(0.0549444 0.0172877 -0.0392285)
(0.0323974 0.0186652 -0.0465756)
(0.00732075 0.0115942 -0.0335078)
(0.100994 0.0047072 0.000119177)
(0.103272 0.00772248 -0.000241078)
(0.105629 0.00808819 -0.000899384)
(0.10668 0.00741449 -0.00169458)
(0.106906 0.006738 -0.00268561)
(0.106338 0.00645962 -0.00393958)
(0.105099 0.00671285 -0.00553523)
(0.103204 0.00750456 -0.0075605)
(0.100407 0.00884592 -0.0101297)
(0.0966947 0.0107582 -0.013397)
(0.0911855 0.01331 -0.017575)
(0.0840801 0.016485 -0.0228473)
(0.0728109 0.0204079 -0.0296085)
(0.0585072 0.0243019 -0.0371395)
(0.0350378 0.0270209 -0.0441675)
(0.00807846 0.0174556 -0.0318074)
(0.100613 0.00341214 0.000160214)
(0.102451 0.00604199 -0.00015179)
(0.104642 0.00680985 -0.000768788)
(0.105941 0.00675188 -0.00152363)
(0.106586 0.00661207 -0.0024647)
(0.106493 0.00677458 -0.00364999)
(0.105743 0.00740944 -0.00514906)
(0.104346 0.00859309 -0.00704115)
(0.102075 0.0104013 -0.0094272)
(0.0989422 0.0129445 -0.0124521)
(0.0940541 0.0163923 -0.0163027)
(0.0876321 0.020913 -0.021175)
(0.0768755 0.0268631 -0.0274084)
(0.0629575 0.0336642 -0.0344518)
(0.0385895 0.0401352 -0.0410295)
(0.00954368 0.0289565 -0.0296695)
(0.100472 0.00240437 0.000207466)
(0.102109 0.00454011 -4.84163e-05)
(0.10423 0.00549712 -0.000617326)
(0.105715 0.00586888 -0.00132546)
(0.106686 0.00617387 -0.00220822)
(0.107005 0.00673228 -0.00331227)
(0.106736 0.00771651 -0.00469537)
(0.105899 0.00924393 -0.00642404)
(0.104314 0.0114345 -0.00857947)
(0.102055 0.014473 -0.0112871)
(0.098302 0.0186001 -0.0146906)
(0.093407 0.0241592 -0.0189785)
(0.084449 0.0316752 -0.0243867)
(0.0728514 0.0408532 -0.0305666)
(0.0487418 0.0505756 -0.0361878)
(0.0182551 0.0373551 -0.0262404)
(0.10043 0.00153136 0.000257937)
(0.102027 0.00312809 6.24514e-05)
(0.104195 0.00413233 -0.000454747)
(0.105867 0.00479797 -0.00111303)
(0.10712 0.00545775 -0.00193376)
(0.107797 0.00634877 -0.00295147)
(0.10796 0.007627 -0.00421159)
(0.10765 0.00943452 -0.0057672)
(0.106727 0.0119288 -0.00767929)
(0.105314 0.0153864 -0.0100522)
(0.102675 0.0201605 -0.0129851)
(0.0992748 0.0269895 -0.0166548)
(0.0921534 0.036889 -0.0211884)
(0.0832636 0.0516155 -0.0264534)
(0.0603427 0.0716765 -0.0311023)
(0.0325788 0.0754598 -0.0231822)
(0.0879331 0.0165511 4.19881e-05)
(0.0743913 0.0102504 -0.000169268)
(0.0622824 0.0057929 -0.000528941)
(0.056371 0.00258728 -0.000950032)
(0.0527328 0.00118544 -0.00148096)
(0.0504311 0.000591856 -0.00215609)
(0.0484505 0.000381331 -0.00301527)
(0.046449 0.000313851 -0.00409397)
(0.0440421 0.000309003 -0.00544361)
(0.0412094 0.000312017 -0.00710413)
(0.037411 0.000326077 -0.00916099)
(0.0329763 0.000270122 -0.0115576)
(0.0267466 0.000227811 -0.0144592)
(0.0197387 -8.57367e-05 -0.0171086)
(0.0101935 -0.00026962 -0.0190968)
(0.000579143 -0.00173854 -0.0126709)
(0.103975 0.0161661 -3.79722e-05)
(0.104085 0.0138103 -0.000436782)
(0.101838 0.00980412 -0.00102899)
(0.0989496 0.00594819 -0.00171116)
(0.0959937 0.0037456 -0.00255104)
(0.093234 0.00264552 -0.00361724)
(0.0903406 0.0022468 -0.00498151)
(0.0871079 0.00223146 -0.00671031)
(0.0831189 0.00245792 -0.00888959)
(0.0782701 0.0028349 -0.0115994)
(0.071807 0.0033473 -0.0149724)
(0.0639478 0.00388129 -0.0189813)
(0.0530341 0.00450163 -0.023818)
(0.040156 0.00474743 -0.0284872)
(0.0223735 0.00470475 -0.0318311)
(0.00436908 0.00138052 -0.021196)
(0.103679 0.0102399 -5.70159e-05)
(0.106796 0.0121899 -0.000498819)
(0.108164 0.010311 -0.0011313)
(0.107396 0.00754271 -0.00185049)
(0.105734 0.00563527 -0.00273249)
(0.103563 0.00459205 -0.00385323)
(0.100923 0.00427133 -0.00528979)
(0.0977349 0.00445675 -0.00711425)
(0.0936497 0.00503492 -0.00941746)
(0.0885675 0.00592074 -0.0122888)
(0.0816803 0.00710011 -0.0158663)
(0.0731535 0.00844496 -0.0201385)
(0.0611243 0.0100019 -0.025291)
(0.0466521 0.0111566 -0.0303124)
(0.0263025 0.0115181 -0.0338784)
(0.00529198 0.0062044 -0.022461)
(0.101858 0.00685054 -4.25208e-05)
(0.104649 0.00989219 -0.000474397)
(0.106837 0.00942782 -0.00109583)
(0.107172 0.00784975 -0.0018007)
(0.106511 0.00656298 -0.0026647)
(0.105063 0.00588048 -0.0037619)
(0.102954 0.00584171 -0.00516663)
(0.100165 0.00635788 -0.00694911)
(0.0964017 0.0073829 -0.00919652)
(0.0915945 0.00888203 -0.0119986)
(0.0849074 0.0108885 -0.0154871)
(0.0765043 0.0133135 -0.0196622)
(0.064342 0.0162507 -0.0246944)
(0.0494883 0.0189373 -0.0296204)
(0.0281029 0.0205386 -0.0331048)
(0.00548646 0.0128886 -0.0218737)
(0.100968 0.00474421 -1.2396e-05)
(0.103111 0.00780435 -0.000411979)
(0.105253 0.00820681 -0.00100508)
(0.106069 0.00756656 -0.00168123)
(0.10604 0.00693148 -0.00250996)
(0.105193 0.00671094 -0.00355942)
(0.103635 0.00704598 -0.0048978)
(0.101359 0.00794992 -0.00659002)
(0.098103 0.00944431 -0.00871498)
(0.0938346 0.0115562 -0.0113586)
(0.0876972 0.0143734 -0.0146379)
(0.0798781 0.0178656 -0.018566)
(0.0680869 0.0221966 -0.0232858)
(0.0534003 0.0264578 -0.0279338)
(0.0310063 0.0294796 -0.0311928)
(0.00637139 0.0191006 -0.0205461)
(0.100588 0.00345454 2.40356e-05)
(0.102296 0.00613589 -0.000333202)
(0.104281 0.00694689 -0.000890109)
(0.10536 0.00692906 -0.00153108)
(0.105767 0.00683886 -0.00231659)
(0.105417 0.00707048 -0.00330706)
(0.104373 0.00780329 -0.00456301)
(0.10263 0.0091225 -0.00614261)
(0.0999432 0.0111175 -0.00811437)
(0.0963092 0.0139086 -0.0105586)
(0.0908517 0.0176917 -0.0135737)
(0.0837895 0.0226242 -0.0171875)
(0.0725522 0.0291203 -0.0215052)
(0.0582955 0.0364322 -0.0257973)
(0.0349012 0.0433867 -0.0287658)
(0.007989 0.0311997 -0.0189376)
(0.100449 0.00245098 6.58246e-05)
(0.101961 0.00464305 -0.00024213)
(0.103889 0.00564772 -0.000756984)
(0.105168 0.00606436 -0.00135738)
(0.105921 0.00642486 -0.00209265)
(0.106008 0.00706051 -0.00301368)
(0.105479 0.00815437 -0.00417139)
(0.104341 0.00983439 -0.00561442)
(0.102398 0.0122365 -0.00739665)
(0.099715 0.0155591 -0.00958674)
(0.0954831 0.0200749 -0.0122541)
(0.0900686 0.0261214 -0.0154337)
(0.0807158 0.0342966 -0.0191679)
(0.0688896 0.0441161 -0.022899)
(0.0456117 0.0545029 -0.0253411)
(0.016974 0.0401259 -0.0166688)
(0.100407 0.00158022 0.000110298)
(0.101887 0.00323573 -0.000144656)
(0.103874 0.0042899 -0.000614297)
(0.105358 0.00500298 -0.00117142)
(0.106413 0.00572149 -0.00185321)
(0.106884 0.00669428 -0.00270037)
(0.106823 0.00808871 -0.00375377)
(0.106258 0.0100591 -0.00505195)
(0.105037 0.0127806 -0.00663383)
(0.103281 0.016548 -0.00855522)
(0.100259 0.0217519 -0.0108561)
(0.0964693 0.0291383 -0.0135762)
(0.0890552 0.0398135 -0.0166942)
(0.0800824 0.0553515 -0.019839)
(0.0578887 0.0763863 -0.0217788)
(0.0317413 0.0790558 -0.0146847)
(0.0879176 0.0165525 -1.41984e-05)
(0.0742994 0.0102567 -0.000218196)
(0.0620696 0.00579878 -0.000515797)
(0.0560355 0.00259199 -0.000850742)
(0.0522637 0.00119066 -0.00126925)
(0.049816 0.000598587 -0.00180265)
(0.0476658 0.000390308 -0.00248284)
(0.045461 0.0003255 -0.00333461)
(0.0428138 0.000324122 -0.00439437)
(0.0396902 0.000331767 -0.00568168)
(0.0355878 0.000353108 -0.00725264)
(0.030809 0.000311358 -0.00903716)
(0.0244105 0.000292282 -0.0111359)
(0.0173181 3.80749e-05 -0.0129665)
(0.00850155 -0.000103554 -0.0141644)
(0.00011024 -0.00144789 -0.00940681)
(0.103952 0.0161759 -9.55533e-05)
(0.103954 0.0138337 -0.000467599)
(0.10153 0.00983412 -0.000962567)
(0.0984435 0.00598269 -0.00151115)
(0.0952663 0.00378801 -0.00217775)
(0.0922612 0.00270029 -0.00302358)
(0.0890831 0.00231928 -0.0041071)
(0.0855099 0.00232748 -0.00547689)
(0.081115 0.00258535 -0.00719421)
(0.0757768 0.00300266 -0.00930479)
(0.068783 0.00356883 -0.0118933)
(0.0603378 0.00417104 -0.0148973)
(0.0490649 0.00488174 -0.0184171)
(0.0360274 0.00524292 -0.0216654)
(0.0193304 0.00528592 -0.0236902)
(0.00328491 0.00192422 -0.0156953)
(0.103657 0.0102594 -0.000114079)
(0.106661 0.0122325 -0.000524368)
(0.107846 0.0103697 -0.00105363)
(0.10687 0.00761443 -0.00163259)
(0.104974 0.00572427 -0.00233312)
(0.102543 0.00470609 -0.00322271)
(0.099602 0.00442108 -0.00436433)
(0.0960546 0.00465472 -0.00581109)
(0.0915394 0.00529756 -0.00762785)
(0.0859388 0.00626587 -0.00986711)
(0.0784839 0.00755305 -0.0126165)
(0.0693319 0.00902561 -0.0158237)
(0.0569027 0.0107436 -0.0195805)
(0.042252 0.0120569 -0.023082)
(0.0230272 0.0125328 -0.0252423)
(0.00411507 0.00694608 -0.0166425)
(0.101837 0.00687633 -0.00010249)
(0.104517 0.00994889 -0.000505338)
(0.106525 0.00950874 -0.00102564)
(0.106657 0.00795188 -0.00159279)
(0.105769 0.00669169 -0.00227864)
(0.104069 0.00604662 -0.00314917)
(0.101668 0.00606084 -0.00426524)
(0.0985317 0.00664907 -0.00567856)
(0.0943515 0.00777138 -0.00745126)
(0.0890422 0.00939557 -0.00963648)
(0.0818018 0.0115657 -0.0123172)
(0.0727894 0.0141829 -0.0154505)
(0.0602294 0.0173606 -0.0191174)
(0.0451967 0.0202633 -0.0225498)
(0.0249041 0.0220246 -0.0246533)
(0.00436269 0.0139051 -0.0162074)
(0.100948 0.00477603 -7.76004e-05)
(0.102983 0.0078744 -0.000454106)
(0.104952 0.00830814 -0.000951182)
(0.105575 0.00769628 -0.00149484)
(0.10533 0.0070962 -0.00215206)
(0.104246 0.00692439 -0.0029841)
(0.102414 0.00732824 -0.00404694)
(0.0998135 0.00832628 -0.00538836)
(0.0961696 0.00994853 -0.00706432)
(0.0914345 0.0122262 -0.00912571)
(0.08478 0.0152622 -0.0116453)
(0.0763929 0.0190132 -0.0145917)
(0.0642216 0.0236719 -0.0180274)
(0.0493659 0.0282242 -0.0212602)
(0.027991 0.0314792 -0.0232153)
(0.00533226 0.0204635 -0.0152259)
(0.100569 0.00349093 -4.74941e-05)
(0.102174 0.00621617 -0.000389257)
(0.103994 0.00706385 -0.000856657)
(0.10489 0.00708006 -0.00137161)
(0.105096 0.00703181 -0.00199377)
(0.104526 0.00732174 -0.00277819)
(0.103232 0.00813704 -0.00377482)
(0.101193 0.00957007 -0.00502633)
(0.0981538 0.0117215 -0.0065809)
(0.0940982 0.0147187 -0.00848596)
(0.0881706 0.0187788 -0.0108009)
(0.0805969 0.0240476 -0.0135078)
(0.0690077 0.030982 -0.0166436)
(0.0546062 0.0386995 -0.0196172)
(0.0321406 0.0460257 -0.0213786)
(0.00706024 0.0330727 -0.0140173)
(0.10043 0.00249088 -1.30308e-05)
(0.101845 0.00473092 -0.000314327)
(0.103617 0.0057761 -0.000747305)
(0.104727 0.0062308 -0.00122924)
(0.105295 0.00663828 -0.00181075)
(0.105185 0.00733919 -0.00253933)
(0.104433 0.00852553 -0.00345744)
(0.103037 0.010334 -0.00460076)
(0.100787 0.0129138 -0.00600679)
(0.0977455 0.0164739 -0.00771572)
(0.0931137 0.0213128 -0.00976702)
(0.0872779 0.0277612 -0.0121525)
(0.077631 0.0364715 -0.0148687)
(0.0657241 0.0468105 -0.0174534)
(0.043251 0.0577214 -0.0188851)
(0.0162321 0.0424957 -0.0123875)
(0.10039 0.00162193 2.35692e-05)
(0.101778 0.00332744 -0.000234213)
(0.10362 0.00442407 -0.000630191)
(0.104948 0.00517737 -0.0010769)
(0.105836 0.0059456 -0.00161512)
(0.106133 0.0069875 -0.00228419)
(0.105879 0.00848006 -0.00311872)
(0.105094 0.0105876 -0.00414691)
(0.103617 0.0135001 -0.00539513)
(0.101571 0.0175268 -0.00689522)
(0.0982273 0.0230882 -0.00866602)
(0.0941203 0.0309339 -0.0107069)
(0.0864917 0.0422379 -0.0129734)
(0.077537 0.0584313 -0.015142)
(0.0560471 0.0802383 -0.0162553)
(0.0313304 0.0821807 -0.0109125)
(0.0879064 0.0165536 -3.47702e-05)
(0.0742318 0.0102616 -0.000201709)
(0.0619117 0.00580337 -0.000423955)
(0.055785 0.00259583 -0.000667023)
(0.0519129 0.00119506 -0.000967887)
(0.0493578 0.000604485 -0.00135082)
(0.0470874 0.000398579 -0.00183796)
(0.0447462 0.000337047 -0.00244364)
(0.0419501 0.000340494 -0.00318874)
(0.0386625 0.000355451 -0.0040764)
(0.0344177 0.000388441 -0.00513326)
(0.0295079 0.000366626 -0.00628853)
(0.0231219 0.000378148 -0.00758617)
(0.016125 0.000179872 -0.00862721)
(0.00774939 8.81071e-05 -0.00913084)
(2.48334e-05 -0.00120036 -0.00587815)
(0.103935 0.0161836 -0.000103111)
(0.103856 0.013852 -0.000401996)
(0.1013 0.00985768 -0.00077424)
(0.0980632 0.00600992 -0.00117566)
(0.0947188 0.00382151 -0.00165783)
(0.0915306 0.00274363 -0.00226789)
(0.0881462 0.00237678 -0.00304758)
(0.0843363 0.00240404 -0.00402755)
(0.0796763 0.00268767 -0.00524445)
(0.0740416 0.00313873 -0.00671598)
(0.0667652 0.00375056 -0.00848267)
(0.0580558 0.00441182 -0.0104686)
(0.0467183 0.00520116 -0.0127035)
(0.0337997 0.00565952 -0.0146344)
(0.0178228 0.00578268 -0.0155648)
(0.00292589 0.00236688 -0.0100306)
(0.103641 0.0102747 -0.000118323)
(0.106561 0.012266 -0.000447142)
(0.107608 0.0104158 -0.000845542)
(0.106474 0.0076708 -0.00126952)
(0.104402 0.0057941 -0.00177661)
(0.101777 0.00479535 -0.00241863)
(0.098617 0.00453798 -0.0032408)
(0.0948187 0.00480888 -0.00427696)
(0.0900211 0.00550159 -0.00556615)
(0.0841045 0.00653343 -0.00713042)
(0.0763439 0.00790345 -0.00901147)
(0.0669067 0.00947453 -0.0111387)
(0.0543952 0.0113166 -0.0135332)
(0.0398662 0.0127533 -0.0156264)
(0.0213987 0.0133227 -0.0166245)
(0.00372654 0.00752844 -0.0106576)
(0.101822 0.00689668 -0.000109901)
(0.104419 0.00999354 -0.000433547)
(0.106292 0.00957234 -0.00082537)
(0.10627 0.00803202 -0.00124057)
(0.10521 0.00679238 -0.00173683)
(0.103322 0.00617608 -0.0023649)
(0.10071 0.00623077 -0.00316848)
(0.0973312 0.00687361 -0.00418048)
(0.0928786 0.00806896 -0.00543808)
(0.0872654 0.00978597 -0.00696388)
(0.0797304 0.012076 -0.00879637)
(0.0704452 0.0148323 -0.0108716)
(0.0578066 0.0181813 -0.013203)
(0.0428981 0.0212372 -0.0152467)
(0.0233403 0.0231097 -0.0162035)
(0.00401734 0.0146516 -0.0103474)
(0.100933 0.00480114 -9.13458e-05)
(0.102889 0.00792954 -0.00039552)
(0.104727 0.00838773 -0.000770128)
(0.105203 0.00779791 -0.00116796)
(0.104796 0.00722478 -0.00164321)
(0.103535 0.00709022 -0.00224319)
(0.101505 0.00754619 -0.00300814)
(0.0986792 0.00861472 -0.00396834)
(0.0947827 0.0103314 -0.00515683)
(0.0897681 0.0127295 -0.00659516)
(0.0828426 0.0159211 -0.00831532)
(0.0742091 0.0198517 -0.0102623)
(0.0619689 0.0247323 -0.012438)
(0.047241 0.0294768 -0.0143498)
(0.0265509 0.0328755 -0.0152158)
(0.00504451 0.0214113 -0.00968251)
(0.100555 0.0035196 -6.8906e-05)
(0.102084 0.00627928 -0.000347292)
(0.10378 0.00715561 -0.000699901)
(0.104538 0.00719819 -0.00107655)
(0.104592 0.00718215 -0.00152608)
(0.103859 0.0075164 -0.00209134)
(0.102383 0.00839374 -0.00280826)
(0.100139 0.00991112 -0.00370374)
(0.0968717 0.0121763 -0.00480564)
(0.0925667 0.0153199 -0.00613379)
(0.0863977 0.0195713 -0.00771182)
(0.0786116 0.025064 -0.00949527)
(0.0669674 0.0322793 -0.0114708)
(0.0527026 0.040244 -0.0132137)
(0.0308627 0.0477744 -0.0139659)
(0.00684316 0.0342943 -0.00887258)
(0.100417 0.00252225 -4.32467e-05)
(0.10176 0.00479992 -0.000291584)
(0.103416 0.00587671 -0.00061871)
(0.104398 0.00636085 -0.000971058)
(0.104826 0.0068043 -0.00139088)
(0.104568 0.00755467 -0.00191557)
(0.103654 0.00881021 -0.00257588)
(0.102079 0.0107132 -0.00339415)
(0.0996325 0.013421 -0.00439138)
(0.0963805 0.0171473 -0.00558374)
(0.0915483 0.0222049 -0.00698302)
(0.0855488 0.0289137 -0.00855437)
(0.0758711 0.0379551 -0.010262)
(0.064123 0.0485964 -0.0117668)
(0.0422011 0.0597798 -0.0123425)
(0.0161241 0.0439834 -0.00784176)
(0.100377 0.00165466 -1.60377e-05)
(0.101698 0.00339936 -0.000232064)
(0.103432 0.00452909 -0.000531803)
(0.104642 0.00531347 -0.000858233)
(0.105404 0.00611972 -0.00124639)
(0.10557 0.00721385 -0.00172784)
(0.105175 0.00877953 -0.00232786)
(0.104238 0.0109873 -0.0030639)
(0.102598 0.0140361 -0.00394983)
(0.100383 0.0182416 -0.00499747)
(0.0968847 0.0240398 -0.00620646)
(0.0926697 0.032174 -0.00755046)
(0.085046 0.0438506 -0.00897162)
(0.0762883 0.0604034 -0.0102233)
(0.0552904 0.0825851 -0.0106387)
(0.031403 0.0840715 -0.00691883)
(0.087899 0.0165542 -3.04293e-05)
(0.0741867 0.0102649 -0.000139844)
(0.061806 0.0058064 -0.000276515)
(0.0556165 0.00259836 -0.000424442)
(0.0516757 0.00119786 -0.000605949)
(0.0490466 0.00060814 -0.000837176)
(0.0466932 0.000403505 -0.00113131)
(0.0442574 0.00034357 -0.00149638)
(0.0413581 0.000349142 -0.00194424)
(0.0379567 0.000367061 -0.00247458)
(0.0336127 0.000404553 -0.0031018)
(0.0286143 0.000390737 -0.00378005)
(0.0222376 0.000414526 -0.00453155)
(0.0153188 0.000241249 -0.00512456)
(0.00725607 0.000168278 -0.0053841)
(-2.97938e-05 -0.00109296 -0.00347976)
(0.103924 0.0161889 -7.6017e-05)
(0.103791 0.0138645 -0.00026861)
(0.101145 0.00987379 -0.000499488)
(0.0978069 0.00602858 -0.000744556)
(0.0943482 0.00384438 -0.00103664)
(0.0910344 0.00277308 -0.00140586)
(0.0875084 0.00241561 -0.00187761)
(0.0835363 0.00245531 -0.00246954)
(0.0786951 0.00275545 -0.00320253)
(0.0728591 0.00322764 -0.0040839)
(0.0653931 0.00386731 -0.0051348)
(0.0565128 0.00456344 -0.00630363)
(0.0451436 0.00539787 -0.00760098)
(0.0323334 0.00590969 -0.00870121)
(0.0168637 0.0060723 -0.00918195)
(0.00271657 0.00261121 -0.00591862)
(0.10363 0.0102853 -8.56216e-05)
(0.106494 0.0122891 -0.000297416)
(0.107448 0.0104475 -0.000544923)
(0.106207 0.00770958 -0.000803764)
(0.104014 0.00584204 -0.00111115)
(0.101256 0.00485651 -0.00149983)
(0.0979462 0.00461786 -0.00199749)
(0.0939757 0.00491387 -0.00262369)
(0.0889852 0.00563994 -0.00340073)
(0.082854 0.00671392 -0.0043384)
(0.0748881 0.00813823 -0.00545839)
(0.0652659 0.00977285 -0.0067118)
(0.0527117 0.0116934 -0.00810371)
(0.0382948 0.0132058 -0.00929829)
(0.0203617 0.0138287 -0.0098151)
(0.00349966 0.00789179 -0.00629287)
(0.101812 0.00691074 -8.06672e-05)
(0.104354 0.0100243 -0.000289259)
(0.106136 0.00961615 -0.000532787)
(0.10601 0.00808721 -0.000786162)
(0.104832 0.00686162 -0.00108692)
(0.102815 0.00626497 -0.00146706)
(0.100057 0.00634721 -0.00195343)
(0.096512 0.00702714 -0.00256501)
(0.091873 0.0082719 -0.00332302)
(0.0860529 0.0100513 -0.00423765)
(0.0783192 0.0124214 -0.00532881)
(0.0688563 0.0152696 -0.0065516)
(0.0561762 0.0187303 -0.00790686)
(0.0413799 0.0218841 -0.0090731)
(0.0223415 0.0238241 -0.00956736)
(0.00381549 0.0151396 -0.00611265)
(0.100924 0.0048185 -6.91746e-05)
(0.102826 0.00796758 -0.000265833)
(0.104577 0.00844259 -0.000498812)
(0.104953 0.00786791 -0.000741538)
(0.104434 0.00731324 -0.00102948)
(0.103052 0.00720416 -0.00139252)
(0.100886 0.00769575 -0.00185546)
(0.0979049 0.00881237 -0.00243571)
(0.0938352 0.0105934 -0.00315216)
(0.0886296 0.0130731 -0.00401452)
(0.0815207 0.0163697 -0.00503911)
(0.0727256 0.020421 -0.00618652)
(0.0604485 0.0254488 -0.00745162)
(0.0458328 0.0303197 -0.00854248)
(0.0256284 0.03381 -0.00898832)
(0.00487756 0.0220489 -0.0057268)
(0.100546 0.00353939 -5.53673e-05)
(0.102023 0.0063228 -0.000236162)
(0.103637 0.00721885 -0.000455584)
(0.104301 0.00727954 -0.000685315)
(0.104251 0.00728557 -0.000957544)
(0.103405 0.00765017 -0.0012994)
(0.101804 0.00856994 -0.00173314)
(0.09942 0.0101449 -0.00227417)
(0.0959957 0.0124876 -0.00293834)
(0.0915199 0.0157308 -0.00373447)
(0.0851873 0.0201115 -0.00467419)
(0.0772615 0.025755 -0.00572446)
(0.0655885 0.0331569 -0.00687205)