/*--------------------------------*- C++ -*----------------------------------*\
| =========                 |                                                 |
| \\      /  F ield         | OpenFOAM: The Open Source CFD Toolbox           |
|  \\    /   O peration     | Version:  v1912                                 |
|   \\  /    A nd           | Website:  www.openfoam.com                      |
|    \\/     M anipulation  |                                                 |
\*---------------------------------------------------------------------------*/
FoamFile
{
    version     2.0;
    format      ascii;
    class       volVectorField;
    location    "0.84/solid";
    object      D_0_0;
}
// * * * * * * * * * * * * * * * * * * * * * * * * * * * * * * * * * * * * * //

dimensions      [0 1 0 0 0 0 0];


internalField   nonuniform List<vector> 
256
(
(2.92402e-08 4.10541e-08 3.22048e-08)
(3.96014e-09 2.40687e-08 2.9399e-08)
(-3.91075e-09 2.3675e-08 2.92456e-08)
(-2.81886e-08 3.9443e-08 3.18149e-08)
(4.82331e-08 3.22617e-08 6.29919e-08)
(9.98855e-09 2.17143e-08 5.92385e-08)
(-8.94181e-09 2.1163e-08 5.90576e-08)
(-4.58325e-08 3.04521e-08 6.25231e-08)
(5.1093e-08 1.56421e-08 8.0425e-08)
(1.15253e-08 1.14097e-08 7.63347e-08)
(-9.24115e-09 1.0805e-08 7.61846e-08)
(-4.7459e-08 1.37907e-08 8.00305e-08)
(5.05392e-08 3.89058e-10 9.41251e-08)
(1.14259e-08 -1.88588e-09 8.95425e-08)
(-7.85672e-09 -2.51904e-09 8.94155e-08)
(-4.56202e-08 -1.5245e-09 9.37901e-08)
(5.1363e-08 -1.44135e-08 1.07674e-07)
(1.17918e-08 -1.74382e-08 1.02511e-07)
(-6.91138e-09 -1.80979e-08 1.02393e-07)
(-4.51139e-08 -1.63952e-08 1.07361e-07)
(5.61487e-08 -3.11039e-08 1.22983e-07)
(1.37738e-08 -3.55877e-08 1.17293e-07)
(-7.57008e-09 -3.62749e-08 1.17171e-07)
(-4.85614e-08 -3.3149e-08 1.22659e-07)
(6.73702e-08 -5.66521e-08 1.41188e-07)
(1.80206e-08 -6.00882e-08 1.35537e-07)
(-1.05375e-08 -6.07777e-08 1.35399e-07)
(-5.84865e-08 -5.86931e-08 1.4082e-07)
(8.30549e-08 -1.15174e-07 1.59083e-07)
(2.26277e-08 -1.11258e-07 1.54608e-07)
(-1.40658e-08 -1.11679e-07 1.54442e-07)
(-7.29891e-08 -1.16502e-07 1.58645e-07)
(2.02677e-08 1.8495e-08 6.91653e-09)
(2.07922e-09 4.55012e-09 8.36028e-09)
(-1.96425e-09 4.29886e-09 8.40183e-09)
(-1.91945e-08 1.72589e-08 7.03401e-09)
(3.37887e-08 1.20755e-08 2.62853e-08)
(6.34094e-09 3.25587e-09 2.91043e-08)
(-5.19283e-09 2.77479e-09 2.91667e-08)
(-3.13891e-08 1.04505e-08 2.64644e-08)
(3.54745e-08 4.87361e-10 4.25951e-08)
(7.43956e-09 -3.16009e-09 4.58582e-08)
(-5.06505e-09 -3.74321e-09 4.59447e-08)
(-3.18792e-08 -1.30469e-09 4.28414e-08)
(3.45928e-08 -1.2025e-08 5.59215e-08)
(7.28497e-09 -1.41066e-08 5.92009e-08)
(-3.64329e-09 -1.47352e-08 5.93093e-08)
(-2.97386e-08 -1.3925e-08 5.62266e-08)
(3.51344e-08 -2.53487e-08 6.83562e-08)
(7.61659e-09 -2.83127e-08 7.14922e-08)
(-2.6739e-09 -2.89726e-08 7.1612e-08)
(-2.89575e-08 -2.73328e-08 6.86901e-08)
(3.97243e-08 -4.01434e-08 8.11547e-08)
(9.57122e-09 -4.46845e-08 8.41152e-08)
(-3.30392e-09 -4.53748e-08 8.42349e-08)
(-3.21971e-08 -4.22017e-08 8.14843e-08)
(5.12264e-08 -6.06823e-08 9.35517e-08)
(1.38833e-08 -6.40828e-08 9.64375e-08)
(-6.32212e-09 -6.47836e-08 9.65478e-08)
(-4.23726e-08 -6.27586e-08 9.38505e-08)
(6.79766e-08 -1.08239e-07 1.00549e-07)
(1.86139e-08 -1.03165e-07 1.03476e-07)
(-9.94379e-09 -1.03616e-07 1.03578e-07)
(-5.78973e-08 -1.09641e-07 1.00819e-07)
(1.40195e-08 1.14039e-08 3.3391e-09)
(4.20437e-10 -2.03562e-10 5.30148e-09)
(-3.28108e-10 -4.18107e-10 5.33764e-09)
(-1.30005e-08 1.02807e-08 3.44268e-09)
(2.33667e-08 1.7913e-09 1.62967e-08)
(2.98572e-09 -5.46951e-09 2.00115e-08)
(-1.90051e-09 -5.91054e-09 2.00781e-08)
(-2.10709e-08 2.7795e-10 1.64906e-08)
(2.42486e-08 -9.56632e-09 3.02683e-08)
(3.65315e-09 -1.26639e-08 3.45351e-08)
(-1.36779e-09 -1.3222e-08 3.46197e-08)
(-2.07878e-08 -1.129e-08 3.05157e-08)
(2.32986e-08 -2.06291e-08 4.2931e-08)
(3.46356e-09 -2.26081e-08 4.72971e-08)
(7.24563e-11 -2.32258e-08 4.73959e-08)
(-1.85979e-08 -2.24994e-08 4.32179e-08)
(2.38089e-08 -3.18397e-08 5.43983e-08)
(3.78721e-09 -3.48476e-08 5.87239e-08)
(1.0416e-09 -3.5506e-08 5.88307e-08)
(-1.77908e-08 -3.38219e-08 5.47058e-08)
(2.84453e-08 -4.34656e-08 6.4795e-08)
(5.73955e-09 -4.81036e-08 6.90372e-08)
(4.14337e-10 -4.87999e-08 6.91448e-08)
(-2.10672e-08 -4.55445e-08 6.51012e-08)
(4.02033e-08 -5.92826e-08 7.2734e-08)
(1.01052e-08 -6.27656e-08 7.68795e-08)
(-2.64831e-09 -6.34799e-08 7.69832e-08)
(-3.14745e-08 -6.14006e-08 7.30237e-08)
(5.72579e-08 -1.00964e-07 7.49619e-08)
(1.49073e-08 -9.58709e-08 7.90457e-08)
(-6.32348e-09 -9.63402e-08 7.91487e-08)
(-4.72698e-08 -1.02418e-07 7.52425e-08)
(1.11834e-08 9.14366e-09 3.0307e-09)
(-2.87286e-10 -1.0907e-09 4.30199e-09)
(3.53891e-10 -1.29714e-09 4.32496e-09)
(-1.02211e-08 8.0624e-09 3.10078e-09)
(1.85185e-08 -2.34011e-09 1.26879e-08)
(1.43044e-09 -8.65863e-09 1.51097e-08)
(-4.26042e-10 -9.08275e-09 1.51592e-08)
(-1.63391e-08 -3.79787e-09 1.28385e-08)
(1.91233e-08 -1.45864e-08 2.38209e-08)
(1.89583e-09 -1.73546e-08 2.65939e-08)
(2.71913e-10 -1.78966e-08 2.66586e-08)
(-1.5812e-08 -1.62631e-08 2.40177e-08)
(1.83497e-08 -2.52448e-08 3.4625e-08)
(1.75078e-09 -2.71951e-08 3.74336e-08)
(1.6477e-09 -2.78029e-08 3.75081e-08)
(-1.38165e-08 -2.7088e-08 3.48507e-08)
(1.90568e-08 -3.49212e-08 4.4321e-08)
(2.13972e-09 -3.79936e-08 4.70729e-08)
(2.54303e-09 -3.86494e-08 4.71529e-08)
(-1.32122e-08 -3.68977e-08 4.45618e-08)
(2.38577e-08 -4.42104e-08 5.23207e-08)
(4.13035e-09 -4.89364e-08 5.49997e-08)
(1.87719e-09 -4.96365e-08 5.50811e-08)
(-1.66473e-08 -4.63029e-08 5.25627e-08)
(3.56744e-08 -5.74524e-08 5.74839e-08)
(8.48961e-09 -6.11142e-08 6.01039e-08)
(-1.17333e-09 -6.1837e-08 6.01842e-08)
(-2.70972e-08 -5.95974e-08 5.77185e-08)
(5.25761e-08 -9.66063e-08 5.83675e-08)
(1.32672e-08 -9.20271e-08 6.10228e-08)
(-4.81339e-09 -9.25069e-08 6.11041e-08)
(-4.27168e-08 -9.80899e-08 5.85992e-08)
(1.01163e-08 8.23394e-09 2.74055e-09)
(-4.59571e-10 -1.31066e-09 3.38121e-09)
(5.08429e-10 -1.51313e-09 3.39631e-09)
(-9.19507e-09 7.17982e-09 2.7881e-09)
(1.67528e-08 -3.82006e-09 1.00807e-08)
(9.9355e-10 -9.6847e-09 1.12914e-08)
(-5.19755e-11 -1.01001e-08 1.13266e-08)
(-1.46657e-08 -5.24387e-09 1.01901e-08)
(1.73841e-08 -1.65361e-08 1.84523e-08)
(1.42648e-09 -1.91718e-08 1.98157e-08)
(6.43205e-10 -1.97042e-08 1.98633e-08)
(-1.41972e-08 -1.81823e-08 1.85998e-08)
(1.68503e-08 -2.71052e-08 2.679e-08)
(1.35775e-09 -2.90808e-08 2.81337e-08)
(1.92154e-09 -2.96818e-08 2.81887e-08)
(-1.24602e-08 -2.89281e-08 2.69606e-08)
(1.77898e-08 -3.59987e-08 3.42465e-08)
(1.82674e-09 -3.91334e-08 3.55247e-08)
(2.72692e-09 -3.97866e-08 3.55839e-08)
(-1.20959e-08 -3.79684e-08 3.44291e-08)
(2.2726e-08 -4.41343e-08 4.00979e-08)
(3.8531e-09 -4.89201e-08 4.13209e-08)
(2.02332e-09 -4.96216e-08 4.13816e-08)
(-1.56646e-08 -4.62328e-08 4.02834e-08)
(3.4481e-08 -5.63413e-08 4.35956e-08)
(8.17374e-09 -6.01461e-08 4.48015e-08)
(-9.85702e-10 -6.08731e-08 4.48623e-08)
(-2.60434e-08 -5.85009e-08 4.37784e-08)
(5.11377e-08 -9.43385e-08 4.42139e-08)
(1.28984e-08 -9.02244e-08 4.54916e-08)
(-4.56674e-09 -9.07097e-08 4.55533e-08)
(-4.14043e-08 -9.5839e-08 4.43958e-08)
(9.7259e-09 7.81074e-09 2.15461e-09)
(-4.61522e-10 -1.40408e-09 2.4438e-09)
(4.98944e-10 -1.60355e-09 2.45368e-09)
(-8.83104e-09 6.7758e-09 2.18575e-09)
(1.61911e-08 -4.28469e-09 7.39257e-09)
(9.53334e-10 -9.95999e-09 7.92289e-09)
(-5.48292e-11 -1.03696e-08 7.94668e-09)
(-1.41668e-08 -5.68481e-09 7.46646e-09)
(1.69413e-08 -1.70568e-08 1.32044e-08)
(1.41694e-09 -1.96643e-08 1.37794e-08)
(5.81956e-10 -2.01906e-08 1.38122e-08)
(-1.38431e-08 -1.8682e-08 1.33062e-08)
(1.66061e-08 -2.75579e-08 1.90035e-08)
(1.41537e-09 -2.95768e-08 1.9542e-08)
(1.77445e-09 -3.01731e-08 1.95803e-08)
(-1.23214e-08 -2.9366e-08 1.91227e-08)
(1.77186e-08 -3.61478e-08 2.41732e-08)
(1.94379e-09 -3.93302e-08 2.46595e-08)
(2.51043e-09 -3.99811e-08 2.47009e-08)
(-1.21385e-08 -3.8111e-08 2.4302e-08)
(2.27315e-08 -4.38887e-08 2.81525e-08)
(3.98967e-09 -4.87048e-08 2.86061e-08)
(1.78389e-09 -4.94065e-08 2.86489e-08)
(-1.57848e-08 -4.59888e-08 2.82846e-08)
(3.44e-08 -5.57917e-08 3.04934e-08)
(8.27064e-09 -5.96693e-08 3.09521e-08)
(-1.18471e-09 -6.03982e-08 3.09953e-08)
(-2.60725e-08 -5.79584e-08 3.06249e-08)
(5.08527e-08 -9.32006e-08 3.1011e-08)
(1.29483e-08 -8.93615e-08 3.1531e-08)
(-4.71566e-09 -8.98496e-08 3.15748e-08)
(-4.12219e-08 -9.471e-08 3.11423e-08)
(9.56643e-09 7.61577e-09 1.36322e-09)
(-4.39616e-10 -1.44199e-09 1.48422e-09)
(4.70248e-10 -1.63943e-09 1.48989e-09)
(-8.687e-09 6.59289e-09 1.38095e-09)
(1.60038e-08 -4.38669e-09 4.51486e-09)
(9.8617e-10 -9.98886e-09 4.72734e-09)
(-1.1408e-10 -1.03946e-08 4.74116e-09)
(-1.40173e-08 -5.77131e-09 4.55749e-09)
(1.68542e-08 -1.70689e-08 7.93363e-09)
(1.4829e-09 -1.96829e-08 8.15202e-09)
(4.71148e-10 -2.02052e-08 8.17127e-09)
(-1.38113e-08 -1.86803e-08 7.99312e-09)
(1.66462e-08 -2.74994e-08 1.1325e-08)
(1.52478e-09 -2.95543e-08 1.15153e-08)
(1.60664e-09 -3.01476e-08 1.1538e-08)
(-1.24291e-08 -2.92977e-08 1.13954e-08)
(1.78607e-08 -3.60014e-08 1.43396e-08)
(2.08739e-09 -3.92132e-08 1.44989e-08)
(2.3004e-09 -3.98625e-08 1.45236e-08)
(-1.2355e-08 -3.79596e-08 1.44162e-08)
(2.2909e-08 -4.36719e-08 1.66494e-08)
(4.14112e-09 -4.84989e-08 1.67935e-08)
(1.56258e-09 -4.92004e-08 1.68192e-08)
(-1.60389e-08 -4.57716e-08 1.67287e-08)
(3.45115e-08 -5.55342e-08 1.80176e-08)
(8.39437e-09 -5.94371e-08 1.81711e-08)
(-1.37871e-09 -6.01668e-08 1.81971e-08)
(-2.62588e-08 -5.77038e-08 1.80971e-08)
(5.08293e-08 -9.26443e-08 1.83736e-08)
(1.30399e-08 -8.89344e-08 1.85641e-08)
(-4.87632e-09 -8.94237e-08 1.85905e-08)
(-4.12696e-08 -9.41578e-08 1.84531e-08)
(9.50207e-09 7.54035e-09 4.65215e-10)
(-4.2766e-10 -1.4523e-09 4.98598e-10)
(4.55142e-10 -1.64875e-09 5.00453e-10)
(-8.62977e-09 6.52323e-09 4.70977e-10)
(1.59355e-08 -4.38913e-09 1.51764e-09)
(1.00687e-09 -9.96606e-09 1.57445e-09)
(-1.47258e-10 -1.03699e-08 1.57899e-09)
(-1.39666e-08 -5.76607e-09 1.53157e-09)
(1.68362e-08 -1.69966e-08 2.64578e-09)
(1.52081e-09 -1.96189e-08 2.70181e-09)
(4.11661e-10 -2.01392e-08 2.70817e-09)
(-1.38195e-08 -1.8601e-08 2.66533e-09)
(1.66876e-08 -2.73835e-08 3.75968e-09)
(1.58283e-09 -2.94573e-08 3.80571e-09)
(1.51999e-09 -3.0049e-08 3.81324e-09)
(-1.25031e-08 -2.91767e-08 3.78296e-09)
(1.79473e-08 -3.58689e-08 4.74816e-09)
(2.16022e-09 -3.90941e-08 4.78419e-09)
(2.19455e-09 -3.97425e-08 4.79241e-09)
(-1.24782e-08 -3.78243e-08 4.77363e-09)
(2.30089e-08 -4.35505e-08 5.50553e-09)
(4.21635e-09 -4.83799e-08 5.5373e-09)
(1.45222e-09 -4.90811e-08 5.54586e-09)
(-1.61767e-08 -4.56496e-08 5.53195e-09)
(3.45777e-08 -5.54286e-08 5.95754e-09)
(8.45602e-09 -5.9337e-08 5.99341e-09)
(-1.47601e-09 -6.00669e-08 6.0021e-09)
(-2.63626e-08 -5.75992e-08 5.98412e-09)
(5.08296e-08 -9.24139e-08 6.0844e-09)
(1.30855e-08 -8.87515e-08 6.13235e-09)
(-4.95729e-09 -8.92411e-08 6.14115e-09)
(-4.13059e-08 -9.39289e-08 6.11099e-09)
)
;

boundaryField
{
    interface
    {
        type            solidTraction;
        traction        uniform (0 0 0);
        pressure        uniform 0;
        secondOrder     false;
        setEffectiveTraction false;
        relaxationFactor 1;
        value           nonuniform List<vector> 
192
(
(8.80263e-08 6.04224e-08 2.96806e-08)
(1.03357e-07 3.77248e-08 5.8801e-08)
(1.07381e-07 1.62186e-08 7.58987e-08)
(1.08596e-07 4.56609e-10 8.95714e-08)
(1.11543e-07 -1.3011e-08 1.03123e-07)
(1.1907e-07 -2.71019e-08 1.18455e-07)
(1.33905e-07 -4.99252e-08 1.36747e-07)
(1.56515e-07 -1.10596e-07 1.54801e-07)
(6.89201e-08 3.2009e-08 3.11114e-09)
(8.00009e-08 1.58772e-08 2.00683e-08)
(8.23433e-08 6.88386e-10 3.58836e-08)
(8.27817e-08 -1.211e-08 4.91109e-08)
(8.52152e-08 -2.40657e-08 6.14672e-08)
(9.25945e-08 -3.61202e-08 7.42285e-08)
(1.08358e-07 -5.36188e-08 8.67596e-08)
(1.34561e-07 -1.03499e-07 9.40995e-08)
(5.64474e-08 2.07504e-08 1.06787e-09)
(6.47964e-08 4.34853e-09 1.24789e-08)
(6.64257e-08 -9.58336e-09 2.61802e-08)
(6.67203e-08 -2.0739e-08 3.88699e-08)
(6.91189e-08 -3.05529e-08 5.03786e-08)
(7.67023e-08 -3.93667e-08 6.0828e-08)
(9.31339e-08 -5.2079e-08 6.88458e-08)
(1.20307e-07 -9.61259e-08 7.11115e-08)
(4.99064e-08 1.65691e-08 2.05481e-09)
(5.67577e-08 -3.55171e-10 1.10342e-08)
(5.82263e-08 -1.46286e-08 2.21046e-08)
(5.87255e-08 -2.52614e-08 3.30127e-08)
(6.13635e-08 -3.3544e-08 4.28161e-08)
(6.92145e-08 -4.00557e-08 5.08907e-08)
(8.58955e-08 -5.02724e-08 5.60532e-08)
(1.13031e-07 -9.17335e-08 5.68373e-08)
(4.6664e-08 1.49512e-08 2.37609e-09)
(5.29544e-08 -2.00314e-09 9.49871e-09)
(5.45148e-08 -1.65117e-08 1.79066e-08)
(5.53003e-08 -2.70037e-08 2.6354e-08)
(5.82195e-08 -3.45296e-08 3.39118e-08)
(6.62672e-08 -3.99612e-08 3.98162e-08)
(8.29556e-08 -4.92379e-08 4.32769e-08)
(1.09779e-07 -8.94698e-08 4.3783e-08)
(4.50078e-08 1.429e-08 2.01709e-09)
(5.11651e-08 -2.48086e-09 7.20523e-09)
(5.28784e-08 -1.69531e-08 1.30718e-08)
(5.39008e-08 -2.73634e-08 1.89524e-08)
(5.70313e-08 -3.46163e-08 2.41909e-08)
(6.51887e-08 -3.97181e-08 2.81982e-08)
(8.18061e-08 -4.87609e-08 3.05009e-08)
(1.08331e-07 -8.8354e-08 3.09339e-08)
(4.4146e-08 1.40083e-08 1.30724e-09)
(5.02886e-08 -2.56475e-09 4.4509e-09)
(5.212e-08 -1.69083e-08 7.90732e-09)
(5.32941e-08 -2.72477e-08 1.13453e-08)
(5.65506e-08 -3.44356e-08 1.43967e-08)
(6.47594e-08 -3.95089e-08 1.67188e-08)
(8.13078e-08 -4.85536e-08 1.8062e-08)
(1.07626e-07 -8.78212e-08 1.83678e-08)
(4.3767e-08 1.38997e-08 4.49119e-10)
(4.99106e-08 -2.55559e-09 1.50055e-09)
(5.18002e-08 -1.68085e-08 2.64126e-09)
(5.30451e-08 -2.71056e-08 3.77e-09)
(5.63582e-08 -3.42884e-08 4.7698e-09)
(6.45863e-08 -3.93925e-08 5.53047e-09)
(8.10966e-08 -4.84729e-08 5.97407e-09)
(1.07312e-07 -8.76048e-08 6.08445e-09)
(2.98014e-08 6.48535e-08 9.23006e-08)
(4.93913e-08 4.43169e-08 1.19094e-07)
(5.23348e-08 2.34255e-08 1.37705e-07)
(5.16716e-08 7.20134e-09 1.53298e-07)
(5.23493e-08 -7.19888e-09 1.69054e-07)
(5.69917e-08 -2.27252e-08 1.87061e-07)
(6.81795e-08 -4.7627e-08 2.08729e-07)
(8.4079e-08 -1.10365e-07 2.3342e-07)
(3.22069e-09 4.62282e-08 8.30572e-08)
(9.00566e-09 3.34484e-08 1.09101e-07)
(1.0466e-08 1.89858e-08 1.26468e-07)
(1.02494e-08 4.65841e-09 1.40955e-07)
(1.04725e-08 -1.05006e-08 1.55766e-07)
(1.23216e-08 -2.73312e-08 1.73087e-07)
(1.65743e-08 -5.07593e-08 1.95207e-07)
(2.14687e-08 -1.0625e-07 2.23673e-07)
(-3.30643e-09 4.57509e-08 8.19701e-08)
(-8.12e-09 3.28978e-08 1.0803e-07)
(-8.31637e-09 1.83946e-08 1.25397e-07)
(-6.79394e-09 4.03314e-09 1.39881e-07)
(-5.69819e-09 -1.11591e-08 1.5468e-07)
(-6.22771e-09 -2.80234e-08 1.71978e-07)
(-9.21588e-09 -5.14598e-08 1.94066e-07)
(-1.30556e-08 -1.06675e-07 2.22513e-07)
(-2.88306e-08 6.30276e-08 8.92405e-08)
(-4.70834e-08 4.25061e-08 1.16084e-07)
(-4.87723e-08 2.16075e-08 1.34672e-07)
(-4.68074e-08 5.30809e-09 1.50246e-07)
(-4.61492e-08 -9.17804e-09 1.65968e-07)
(-4.94578e-08 -2.47842e-08 1.83915e-07)
(-5.93634e-08 -4.96967e-08 2.055e-07)
(-7.41016e-08 -1.11705e-07 2.30193e-07)
(-8.23154e-08 5.79484e-08 2.92455e-08)
(-9.62412e-08 3.52699e-08 5.8287e-08)
(-9.89356e-08 1.37377e-08 7.54792e-08)
(-9.87613e-08 -2.11073e-09 8.92264e-08)
(-1.00283e-07 -1.56599e-08 1.02804e-07)
(-1.06389e-07 -2.98059e-08 1.1812e-07)
(-1.19858e-07 -5.25863e-08 1.36354e-07)
(-1.41169e-07 -1.12474e-07 1.54316e-07)
(-6.32622e-08 2.99048e-08 3.23692e-09)
(-7.30515e-08 1.36217e-08 2.0274e-08)
(-7.41217e-08 -1.71725e-09 3.61735e-08)
(-7.31968e-08 -1.46554e-08 4.9471e-08)
(-7.41962e-08 -2.67182e-08 6.18592e-08)
(-8.01121e-08 -3.8848e-08 7.46108e-08)
(-9.44431e-08 -5.63336e-08 8.70975e-08)
(-1.19283e-07 -1.05472e-07 9.43888e-08)
(-5.09948e-08 1.87986e-08 1.1993e-09)
(-5.809e-08 2.22483e-09 1.27281e-08)
(-5.84769e-08 -1.19082e-08 2.64989e-08)
(-5.7425e-08 -2.32487e-08 3.92374e-08)
(-5.83828e-08 -3.32046e-08 5.07695e-08)
(-6.44673e-08 -4.21236e-08 6.12138e-08)
(-7.94036e-08 -5.48499e-08 6.92049e-08)
(-1.05144e-07 -9.81666e-08 7.14475e-08)
(-4.46303e-08 1.47025e-08 2.1494e-09)
(-5.02835e-08 -2.40013e-09 1.12372e-08)
(-5.0541e-08 -1.68938e-08 2.23701e-08)
(-4.97091e-08 -2.7738e-08 3.33163e-08)
(-5.09037e-08 -3.619e-08 4.31381e-08)
(-5.72325e-08 -4.28317e-08 5.12121e-08)
(-7.23723e-08 -5.308e-08 5.63608e-08)
(-9.80198e-08 -9.38149e-08 5.71329e-08)
(-4.15106e-08 1.3145e-08 2.44056e-09)
(-4.66532e-08 -3.99333e-09 9.64705e-09)
(-4.70333e-08 -1.87337e-08 1.81075e-08)
(-4.65037e-08 -2.94534e-08 2.65868e-08)
(-4.79811e-08 -3.71673e-08 3.41607e-08)
(-5.44933e-08 -4.27459e-08 4.00678e-08)
(-6.96127e-08 -5.20659e-08 4.35222e-08)
(-9.49128e-08 -9.15746e-08 4.40221e-08)
(-3.99314e-08 1.25253e-08 2.05872e-09)
(-4.49768e-08 -4.4318e-09 7.30435e-09)
(-4.55346e-08 -1.91434e-08 1.32097e-08)
(-4.52562e-08 -2.97922e-08 1.9115e-08)
(-4.69487e-08 -3.72451e-08 2.43668e-08)
(-5.35644e-08 -4.25052e-08 2.83782e-08)
(-6.85973e-08 -5.1599e-08 3.06788e-08)
(-9.35773e-08 -9.04712e-08 3.11087e-08)
(-3.91143e-08 1.2269e-08 1.33063e-09)
(-4.4167e-08 -4.49024e-09 4.50746e-09)
(-4.48597e-08 -1.90773e-08 7.98725e-09)
(-4.47434e-08 -2.96617e-08 1.14408e-08)
(-4.6566e-08 -3.70571e-08 1.45012e-08)
(-5.32309e-08 -4.22956e-08 1.68267e-08)
(-6.81867e-08 -5.1396e-08 1.81696e-08)
(-9.29483e-08 -8.99442e-08 1.84741e-08)
(-3.87557e-08 1.21723e-08 4.56666e-10)
(-4.382e-08 -4.46862e-09 1.51892e-09)
(-4.4579e-08 -1.89669e-08 2.6674e-09)
(-4.45392e-08 -2.9512e-08 3.80147e-09)
(-4.64208e-08 -3.69059e-08 4.80443e-09)
(-5.31043e-08 -4.21784e-08 5.56642e-09)
(-6.80187e-08 -5.13167e-08 6.01006e-09)
(-9.26724e-08 -8.973e-08 6.12009e-09)
(8.43663e-08 -1.8957e-07 1.59754e-07)
(6.90796e-08 -1.75871e-07 9.69964e-08)
(5.8405e-08 -1.65203e-07 7.20538e-08)
(5.3869e-08 -1.58319e-07 5.67111e-08)
(5.25449e-08 -1.5423e-07 4.33625e-08)
(5.23176e-08 -1.51893e-07 3.05875e-08)
(5.23148e-08 -1.50626e-07 1.8177e-08)
(5.23199e-08 -1.50068e-07 6.02678e-09)
(2.17552e-08 -1.8038e-07 1.55089e-07)
(1.74591e-08 -1.62931e-07 9.96296e-08)
(1.37523e-08 -1.51837e-07 7.62611e-08)
(1.22432e-08 -1.45607e-07 5.96112e-08)
(1.19921e-08 -1.42208e-07 4.48252e-08)
(1.21114e-08 -1.4031e-07 3.12085e-08)
(1.22356e-08 -1.39263e-07 1.84116e-08)
(1.22932e-08 -1.38789e-07 6.0866e-09)
(-1.27536e-08 -1.79799e-07 1.54928e-07)
(-8.32385e-09 -1.62365e-07 9.97434e-08)
(-4.68586e-09 -1.51299e-07 7.63716e-08)
(-3.29681e-09 -1.45085e-07 5.96965e-08)
(-3.16221e-09 -1.41696e-07 4.4889e-08)
(-3.37766e-09 -1.39802e-07 3.12533e-08)
(-3.56959e-09 -1.38756e-07 1.84384e-08)
(-3.66204e-09 -1.38284e-07 6.09552e-09)
(-7.37964e-08 -1.88084e-07 1.59328e-07)
(-5.84746e-08 -1.74369e-07 9.72974e-08)
(-4.78749e-08 -1.63767e-07 7.23548e-08)
(-4.34576e-08 -1.56929e-07 5.69546e-08)
(-4.22532e-08 -1.52864e-07 4.35508e-08)
(-4.21252e-08 -1.50539e-07 3.0722e-08)
(-4.21918e-08 -1.49278e-07 1.82578e-08)
(-4.22324e-08 -1.48722e-07 6.05377e-09)
)
;
        gradient        uniform (0 0 0);
    }
    symmetry
    {
        type            solidSymmetry;
        patchType       symmetry;
        secondOrder     false;
        value           nonuniform List<vector> 
32
(
(9.50207e-09 7.54035e-09 0)
(1.59355e-08 -4.38913e-09 0)
(1.68362e-08 -1.69966e-08 0)
(1.66876e-08 -2.73835e-08 0)
(1.79473e-08 -3.58689e-08 0)
(2.30089e-08 -4.35505e-08 0)
(3.45777e-08 -5.54286e-08 0)
(5.08296e-08 -9.24139e-08 0)
(-4.2766e-10 -1.4523e-09 0)
(1.00687e-09 -9.96606e-09 0)
(1.52081e-09 -1.96189e-08 0)
(1.58283e-09 -2.94573e-08 0)
(2.16022e-09 -3.90941e-08 0)
(4.21635e-09 -4.83799e-08 0)
(8.45602e-09 -5.9337e-08 0)
(1.30855e-08 -8.87515e-08 0)
(4.55142e-10 -1.64875e-09 0)
(-1.47258e-10 -1.03699e-08 0)
(4.11661e-10 -2.01392e-08 0)
(1.51999e-09 -3.0049e-08 0)
(2.19455e-09 -3.97425e-08 0)
(1.45222e-09 -4.90811e-08 0)
(-1.47601e-09 -6.00669e-08 0)
(-4.95729e-09 -8.92411e-08 0)
(-8.62977e-09 6.52323e-09 0)
(-1.39666e-08 -5.76607e-09 0)
(-1.38195e-08 -1.8601e-08 0)
(-1.25031e-08 -2.91767e-08 0)
(-1.24782e-08 -3.78243e-08 0)
(-1.61767e-08 -4.56496e-08 0)
(-2.63626e-08 -5.75992e-08 0)
(-4.13059e-08 -9.39289e-08 0)
)
;
    }
    bottom
    {
        type            fixedDisplacement;
        value           uniform (0 0 0);
    }
}


// ************************************************************************* //
