/*--------------------------------*- C++ -*----------------------------------*\
| =========                 |                                                 |
| \\      /  F ield         | OpenFOAM: The Open Source CFD Toolbox           |
|  \\    /   O peration     | Version:  v1912                                 |
|   \\  /    A nd           | Website:  www.openfoam.com                      |
|    \\/     M anipulation  |                                                 |
\*---------------------------------------------------------------------------*/
FoamFile
{
    version     2.0;
    format      ascii;
    class       volSymmTensorField;
    location    "0.84/solid";
    object      epsilon;
}
// * * * * * * * * * * * * * * * * * * * * * * * * * * * * * * * * * * * * * //

dimensions      [0 0 0 0 0 0 0];


internalField   nonuniform List<symmTensor> 
256
(
(-2.86678e-06 2.218e-07 -7.94957e-08 1.48252e-06 2.56209e-07 -2.91684e-06)
(-6.73551e-07 -3.3002e-08 -3.41028e-08 9.26174e-07 2.5381e-07 -2.57273e-06)
(-6.52723e-07 2.23079e-08 3.19002e-08 9.06941e-07 2.53402e-07 -2.53051e-06)
(-2.65477e-06 -2.17064e-07 7.79361e-08 1.41314e-06 2.55113e-07 -2.797e-06)
(-2.98492e-06 4.61405e-09 -1.23037e-07 -5.15604e-07 4.1465e-08 -2.9899e-06)
(-1.16398e-06 -3.56028e-08 -5.70792e-08 -2.58827e-07 5.24026e-08 -2.60632e-06)
(-1.13579e-06 3.33222e-08 5.46131e-08 -2.62627e-07 5.30564e-08 -2.56492e-06)
(-2.76335e-06 -4.66924e-09 1.20904e-07 -5.18889e-07 4.30125e-08 -2.87231e-06)
(-3.0596e-06 -3.10836e-08 -1.33382e-07 -6.51592e-07 5.20256e-09 -3.06102e-06)
(-1.23007e-06 -3.46844e-08 -6.31579e-08 -4.83897e-07 6.8529e-09 -2.62474e-06)
(-1.20194e-06 3.46538e-08 6.10961e-08 -4.85013e-07 7.294e-09 -2.58225e-06)
(-2.83412e-06 3.09162e-08 1.31271e-07 -6.52098e-07 6.2756e-09 -2.93956e-06)
(-3.12182e-06 -2.17794e-08 -1.39014e-07 -6.17146e-07 1.30598e-08 -3.14514e-06)
(-1.19167e-06 -2.70636e-08 -6.61514e-08 -5.92267e-07 9.47736e-09 -2.67348e-06)
(-1.16352e-06 2.70407e-08 6.43304e-08 -5.92861e-07 9.63966e-09 -2.62989e-06)
(-2.89204e-06 2.18361e-08 1.36968e-07 -6.18302e-07 1.34374e-08 -3.02039e-06)
(-3.21645e-06 -2.1912e-09 -1.44913e-07 -6.48491e-07 3.63233e-08 -3.25651e-06)
(-1.19e-06 -1.36967e-08 -6.94426e-08 -6.92851e-07 3.1192e-08 -2.76098e-06)
(-1.16145e-06 1.32279e-08 6.7675e-08 -6.93439e-07 3.11699e-08 -2.71649e-06)
(-2.98234e-06 2.14897e-09 1.42907e-07 -6.49714e-07 3.61893e-08 -3.12926e-06)
(-3.3834e-06 3.60233e-08 -1.4982e-07 -8.69773e-07 7.94282e-08 -3.41559e-06)
(-1.302e-06 1.08531e-08 -7.24331e-08 -8.77508e-07 7.62906e-08 -2.9063e-06)
(-1.27312e-06 -1.24713e-08 7.05967e-08 -8.77573e-07 7.61122e-08 -2.86096e-06)
(-3.14553e-06 -3.65505e-08 1.47839e-07 -8.69434e-07 7.88492e-08 -3.28615e-06)
(-3.67039e-06 1.01825e-07 -1.47466e-07 -1.7153e-06 1.43197e-07 -3.67235e-06)
(-1.59204e-06 4.82676e-08 -7.15578e-08 -1.54525e-06 1.49818e-07 -3.1823e-06)
(-1.56274e-06 -5.22271e-08 6.95504e-08 -1.53922e-06 1.49427e-07 -3.1361e-06)
(-3.42909e-06 -1.02997e-07 1.45493e-07 -1.69888e-06 1.42088e-07 -3.54101e-06)
(-4.17223e-06 1.32251e-07 -1.31945e-07 -4.16712e-06 1.68101e-07 -4.1649e-06)
(-1.98286e-06 6.44811e-08 -6.43059e-08 -3.8065e-06 1.84121e-07 -3.80335e-06)
(-1.9513e-06 -6.22173e-08 6.20874e-08 -3.7598e-06 1.83684e-07 -3.75701e-06)
(-3.92359e-06 -1.3021e-07 1.29982e-07 -4.03641e-06 1.66988e-07 -4.03541e-06)
(-2.31596e-06 1.33538e-07 -6.26774e-08 6.14716e-07 4.09816e-08 -5.85136e-07)
(-4.51537e-07 -5.71084e-08 -2.10583e-08 1.54576e-07 1.38558e-07 -4.88761e-07)
(-4.31697e-07 5.4166e-08 2.30736e-08 1.39897e-07 1.41213e-07 -4.84748e-07)
(-2.10824e-06 -1.26025e-07 6.32423e-08 5.57145e-07 4.8218e-08 -5.74589e-07)
(-2.40783e-06 -1.1759e-08 -9.79251e-08 -3.69177e-07 5.55154e-08 -9.49179e-07)
(-7.93391e-07 -3.97208e-08 -4.22404e-08 -1.61718e-07 1.07293e-07 -7.97916e-07)
(-7.67421e-07 4.08939e-08 4.49854e-08 -1.6802e-07 1.08708e-07 -7.92582e-07)
(-2.19544e-06 1.28129e-08 9.8499e-08 -3.79001e-07 5.92498e-08 -9.34712e-07)
(-2.44691e-06 -3.28e-08 -1.03595e-07 -4.94972e-07 4.69694e-08 -1.02127e-06)
(-8.26448e-07 -3.34173e-08 -4.64133e-08 -3.58311e-07 6.31047e-08 -8.5178e-07)
(-8.01091e-07 3.43584e-08 4.97001e-08 -3.60831e-07 6.39154e-08 -8.46642e-07)
(-2.23203e-06 3.28782e-08 1.04251e-07 -4.99096e-07 4.90731e-08 -1.00703e-06)
(-2.48534e-06 -2.29009e-08 -1.05509e-07 -5.31338e-07 5.00128e-08 -1.04341e-06)
(-7.80383e-07 -2.5845e-08 -4.69921e-08 -5.17188e-07 5.15831e-08 -8.61756e-07)
(-7.55193e-07 2.60529e-08 5.07706e-08 -5.1827e-07 5.19637e-08 -8.56768e-07)
(-2.26636e-06 2.30188e-08 1.06315e-07 -5.33838e-07 5.09284e-08 -1.02947e-06)
(-2.5655e-06 -3.97779e-09 -1.08607e-07 -5.79018e-07 8.12272e-08 -1.08661e-06)
(-7.72373e-07 -1.36127e-08 -4.88025e-08 -6.28597e-07 7.79374e-08 -8.93874e-07)
(-7.46735e-07 1.32901e-08 5.28172e-08 -6.29369e-07 7.7953e-08 -8.88871e-07)
(-2.34152e-06 4.04968e-09 1.09529e-07 -5.80847e-07 8.10833e-08 -1.07263e-06)
(-2.73101e-06 3.59724e-08 -1.11154e-07 -7.27907e-07 1.32518e-07 -1.18767e-06)
(-8.79861e-07 1.07351e-08 -5.09012e-08 -7.36138e-07 1.28157e-07 -9.8586e-07)
(-8.53678e-07 -1.21475e-08 5.48932e-08 -7.36466e-07 1.2786e-07 -9.80737e-07)
(-2.50184e-06 -3.62962e-08 1.12145e-07 -7.28327e-07 1.31446e-07 -1.17341e-06)
(-3.04896e-06 1.09305e-07 -1.0905e-07 -1.39041e-06 1.72439e-07 -1.39768e-06)
(-1.17712e-06 5.06246e-08 -5.04627e-08 -1.19524e-06 1.71488e-07 -1.19887e-06)
(-1.15019e-06 -5.4472e-08 5.42935e-08 -1.18982e-06 1.70957e-07 -1.19345e-06)
(-2.81456e-06 -1.1028e-07 1.10103e-07 -1.37541e-06 1.70722e-07 -1.38275e-06)
(-3.6727e-06 1.47653e-07 -1.01398e-07 -3.67453e-06 1.44029e-07 -1.71631e-06)
(-1.59229e-06 7.16437e-08 -4.79836e-08 -3.18593e-06 1.50523e-07 -1.54308e-06)
(-1.56279e-06 -6.95923e-08 5.19911e-08 -3.13911e-06 1.50138e-07 -1.53703e-06)
(-3.42975e-06 -1.45602e-07 1.02678e-07 -3.54122e-06 1.42936e-07 -1.69994e-06)
(-1.97239e-06 7.2196e-08 -2.63367e-08 2.61297e-07 1.06832e-07 -8.051e-08)
(-2.90661e-07 -8.41795e-08 -3.88305e-09 -1.198e-07 2.02252e-07 -8.38896e-08)
(-2.71481e-07 8.22265e-08 4.74082e-09 -1.32914e-07 2.03547e-07 -8.41901e-08)
(-1.77153e-06 -6.45736e-08 2.64288e-08 2.08151e-07 1.10794e-07 -8.12359e-08)
(-2.07122e-06 -2.14192e-08 -4.0167e-08 -4.30474e-07 1.29281e-07 -2.79325e-07)
(-5.12966e-07 -4.51291e-08 -1.17463e-08 -2.59173e-07 1.78187e-07 -2.87167e-07)
(-4.87866e-07 4.74561e-08 1.2795e-08 -2.65735e-07 1.79074e-07 -2.87229e-07)
(-1.86545e-06 2.29052e-08 4.02831e-08 -4.41273e-07 1.31844e-07 -2.79299e-07)
(-2.10618e-06 -3.16943e-08 -4.01368e-08 -4.61373e-07 1.197e-07 -3.85905e-07)
(-5.20916e-07 -3.22678e-08 -1.24414e-08 -3.5435e-07 1.3523e-07 -3.95562e-07)
(-4.96535e-07 3.39531e-08 1.35681e-08 -3.57486e-07 1.35812e-07 -3.9573e-07)
(-1.89799e-06 3.20509e-08 4.02828e-08 -4.6721e-07 1.21277e-07 -3.86079e-07)
(-2.14084e-06 -2.23672e-08 -3.85995e-08 -4.5882e-07 1.13157e-07 -4.38419e-07)
(-4.72878e-07 -2.50753e-08 -1.12041e-08 -4.56846e-07 1.14963e-07 -4.47621e-07)
(-4.48723e-07 2.56178e-08 1.25242e-08 -4.58427e-07 1.1525e-07 -4.47991e-07)
(-1.92854e-06 2.262e-08 3.88214e-08 -4.62704e-07 1.13852e-07 -4.39071e-07)
(-2.22042e-06 -4.34149e-09 -3.81763e-08 -4.70881e-07 1.27223e-07 -4.953e-07)
(-4.64158e-07 -1.41085e-08 -1.09559e-08 -5.24611e-07 1.24663e-07 -5.02677e-07)
(-4.39501e-07 1.38643e-08 1.24146e-08 -5.25747e-07 1.24652e-07 -5.03134e-07)
(-2.00259e-06 4.48951e-09 3.84744e-08 -4.73765e-07 1.27033e-07 -4.96138e-07)
(-2.39343e-06 3.65666e-08 -3.79493e-08 -5.66188e-07 1.47278e-07 -5.94221e-07)
(-5.72583e-07 1.02613e-08 -1.14293e-08 -5.75201e-07 1.4332e-07 -5.99449e-07)
(-5.47194e-07 -1.17711e-08 1.28952e-08 -5.75861e-07 1.43058e-07 -5.99843e-07)
(-2.16918e-06 -3.68362e-08 3.83081e-08 -5.67545e-07 1.46323e-07 -5.94856e-07)
(-2.73238e-06 1.11459e-07 -3.7301e-08 -1.17377e-06 1.3819e-07 -7.42776e-07)
(-8.76234e-07 5.10169e-08 -1.1946e-08 -9.75969e-07 1.33687e-07 -7.47676e-07)
(-8.49792e-07 -5.51214e-08 1.3384e-08 -9.70845e-07 1.33314e-07 -7.47864e-07)
(-2.50104e-06 -1.1241e-07 3.77488e-08 -1.15945e-06 1.36894e-07 -7.42831e-07)
(-3.38823e-06 1.50043e-07 -3.70748e-08 -3.41933e-06 8.27172e-08 -8.68523e-07)
(-1.29916e-06 7.24745e-08 -1.20404e-08 -2.91199e-06 7.95205e-08 -8.73574e-07)
(-1.26982e-06 -7.06013e-08 1.37854e-08 -2.86565e-06 7.93235e-08 -8.73534e-07)
(-3.14653e-06 -1.47981e-07 3.77796e-08 -3.28684e-06 8.2076e-08 -8.67952e-07)
(-1.78025e-06 4.68732e-08 -6.95788e-09 1.31058e-07 1.2902e-07 -1.27853e-08)
(-2.1868e-07 -9.32813e-08 4.1437e-09 -2.02914e-07 1.87663e-07 -3.96401e-08)
(-2.00114e-07 9.09123e-08 -3.71908e-09 -2.15573e-07 1.88362e-07 -4.00162e-08)
(-1.58484e-06 -3.97107e-08 6.91393e-09 7.96563e-08 1.31485e-07 -1.37715e-08)
(-1.87588e-06 -2.35681e-08 -9.11849e-09 -4.86645e-07 1.56061e-07 -1.27859e-07)
(-3.83313e-07 -4.60541e-08 4.74944e-09 -3.36556e-07 1.85597e-07 -1.78784e-07)
(-3.58927e-07 4.83138e-08 -4.32549e-09 -3.42992e-07 1.86121e-07 -1.79278e-07)
(-1.67551e-06 2.50272e-08 9.0317e-09 -4.97453e-07 1.57767e-07 -1.29161e-07)
(-1.91391e-06 -2.88671e-08 -6.8488e-09 -4.71155e-07 1.54243e-07 -2.42742e-07)
(-3.81965e-07 -3.03202e-08 6.07674e-09 -3.82807e-07 1.62832e-07 -3.01798e-07)
(-3.58227e-07 3.21791e-08 -5.77204e-09 -3.86106e-07 1.63195e-07 -3.0234e-07)
(-1.711e-06 2.93187e-08 6.74046e-09 -4.77614e-07 1.55316e-07 -2.44157e-07)
(-1.95241e-06 -2.01592e-08 -4.36347e-09 -4.19129e-07 1.4483e-07 -3.31832e-07)
(-3.38741e-07 -2.35268e-08 7.77709e-09 -4.25252e-07 1.44525e-07 -3.93299e-07)
(-3.15198e-07 2.42388e-08 -7.48272e-09 -4.2712e-07 1.44706e-07 -3.93928e-07)
(-1.74525e-06 2.0498e-08 4.26739e-09 -4.23869e-07 1.453e-07 -3.3344e-07)
(-2.03648e-06 -3.14349e-09 -2.74231e-09 -3.91567e-07 1.39873e-07 -4.14576e-07)
(-3.35539e-07 -1.36591e-08 8.74702e-09 -4.47726e-07 1.371e-07 -4.76517e-07)
(-3.11443e-07 1.34622e-08 -8.41548e-09 -4.49149e-07 1.37085e-07 -4.77189e-07)
(-1.8234e-06 3.34233e-09 2.67895e-09 -3.9529e-07 1.39731e-07 -4.16247e-07)
(-2.21637e-06 3.68137e-08 -1.94978e-09 -4.65361e-07 1.29066e-07 -5.08189e-07)
(-4.48138e-07 9.6601e-09 8.77952e-09 -4.76735e-07 1.26037e-07 -5.695e-07)
(-4.23188e-07 -1.12674e-08 -8.42774e-09 -4.77629e-07 1.25863e-07 -5.70125e-07)
(-1.99604e-06 -3.70605e-08 1.93092e-09 -4.67392e-07 1.28415e-07 -5.09675e-07)
(-2.5645e-06 1.09163e-07 -2.57848e-09 -1.06905e-06 9.29982e-08 -5.99612e-07)
(-7.52789e-07 4.87887e-08 7.70711e-09 -8.79912e-07 8.92891e-08 -6.5922e-07)
(-7.26568e-07 -5.3085e-08 -7.31486e-09 -8.74925e-07 8.90681e-08 -6.59738e-07)
(-2.33567e-06 -1.10103e-07 2.64164e-09 -1.05506e-06 9.21751e-08 -6.00735e-07)
(-3.22247e-06 1.45532e-07 -4.24344e-09 -3.26705e-06 4.33582e-08 -6.33185e-07)
(-1.17197e-06 6.95566e-08 7.31056e-09 -2.77224e-06 3.86438e-08 -6.89979e-07)
(-1.1426e-06 -6.77813e-08 -6.65327e-09 -2.72623e-06 3.85407e-08 -6.90453e-07)
(-2.98174e-06 -1.43448e-07 4.50462e-09 -3.13524e-06 4.29819e-08 -6.34109e-07)
(-1.67471e-06 3.94126e-08 -8.89371e-10 8.24682e-08 1.17963e-07 -1.81069e-08)
(-1.93656e-07 -9.24695e-08 4.87068e-09 -2.28226e-07 1.47219e-07 -3.81408e-08)
(-1.75546e-07 8.96811e-08 -4.59836e-09 -2.40681e-07 1.47686e-07 -3.83653e-08)
(-1.48304e-06 -3.26458e-08 8.55289e-10 3.2108e-08 1.1969e-07 -1.87795e-08)
(-1.76695e-06 -2.23875e-08 4.7568e-10 -5.07614e-07 1.41434e-07 -1.08683e-07)
(-3.39366e-07 -4.43543e-08 7.77847e-09 -3.68879e-07 1.55335e-07 -1.47287e-07)
(-3.15558e-07 4.62945e-08 -7.51509e-09 -3.7524e-07 1.55692e-07 -1.47697e-07)
(-1.57042e-06 2.37053e-08 -5.54003e-10 -5.18468e-07 1.42673e-07 -1.09923e-07)
(-1.80879e-06 -2.61525e-08 2.7691e-09 -4.78611e-07 1.46538e-07 -2.17801e-07)
(-3.38504e-07 -2.83976e-08 9.44157e-09 -4.00084e-07 1.49457e-07 -2.62662e-07)
(-3.15285e-07 3.01445e-08 -9.3193e-09 -4.03438e-07 1.49698e-07 -2.63142e-07)
(-1.60961e-06 2.65796e-08 -2.88731e-09 -4.85398e-07 1.47313e-07 -2.19248e-07)
(-1.85253e-06 -1.79921e-08 4.81127e-09 -4.01043e-07 1.39005e-07 -3.2063e-07)
(-3.02144e-07 -2.20934e-08 1.07889e-08 -4.11181e-07 1.37322e-07 -3.66946e-07)
(-2.79072e-07 2.28081e-08 -1.07528e-08 -4.13197e-07 1.3744e-07 -3.67468e-07)
(-1.64896e-06 1.83492e-08 -4.94904e-09 -4.06283e-07 1.39349e-07 -3.22175e-07)
(-1.94176e-06 -1.89072e-09 6.22534e-09 -3.51728e-07 1.24743e-07 -4.13756e-07)
(-3.05547e-07 -1.30716e-08 1.15994e-08 -4.08611e-07 1.22266e-07 -4.59947e-07)
(-2.8188e-07 1.28754e-08 -1.1587e-08 -4.10208e-07 1.2226e-07 -4.60479e-07)
(-1.73197e-06 2.11184e-09 -6.35883e-09 -3.55988e-07 1.24678e-07 -4.15295e-07)
(-2.12626e-06 3.65706e-08 6.74848e-09 -4.20275e-07 9.99755e-08 -4.96494e-07)
(-4.21693e-07 8.99809e-09 1.16214e-08 -4.33318e-07 9.81967e-08 -5.4182e-07)
(-3.97094e-07 -1.06634e-08 -1.16012e-08 -4.34353e-07 9.80952e-08 -5.4232e-07)
(-1.90868e-06 -3.68026e-08 -6.85624e-09 -4.22733e-07 9.95861e-08 -4.97893e-07)
(-2.47679e-06 1.06108e-07 5.80244e-09 -1.024e-06 5.99185e-08 -5.5461e-07)
(-7.24191e-07 4.63202e-08 1.06459e-08 -8.43168e-07 5.81541e-08 -5.98565e-07)
(-6.98188e-07 -5.07162e-08 -1.05776e-08 -8.38258e-07 5.80299e-08 -5.99013e-07)
(-2.24983e-06 -1.07034e-07 -5.85177e-09 -1.01022e-06 5.9428e-08 -5.55797e-07)
(-3.12815e-06 1.40674e-07 4.23521e-09 -3.1707e-06 2.40463e-08 -5.62303e-07)
(-1.13711e-06 6.6594e-08 1.03851e-08 -2.69171e-06 2.09402e-08 -6.05665e-07)
(-1.10781e-06 -6.48684e-08 -1.01268e-08 -2.64585e-06 2.08838e-08 -6.06118e-07)
(-2.88826e-06 -1.38573e-07 -4.15252e-09 -3.0392e-06 2.38228e-08 -5.6342e-07)
(-1.61604e-06 3.79189e-08 1.61332e-10 6.4567e-08 9.16702e-08 -2.82791e-08)
(-1.85876e-07 -8.95173e-08 3.23443e-09 -2.35594e-07 1.04959e-07 -3.88969e-08)
(-1.68055e-07 8.64463e-08 -3.05226e-09 -2.47909e-07 1.05275e-07 -3.90533e-08)
(-1.4267e-06 -3.14127e-08 -1.73477e-10 1.49358e-08 9.28313e-08 -2.87868e-08)
(-1.70706e-06 -2.07214e-08 1.6094e-09 -5.09368e-07 1.07694e-07 -1.14163e-07)
(-3.27912e-07 -4.24253e-08 5.54888e-09 -3.76784e-07 1.13242e-07 -1.34558e-07)
(-3.04485e-07 4.40951e-08 -5.3599e-09 -3.83114e-07 1.13491e-07 -1.349e-07)
(-1.51293e-06 2.19183e-08 -1.64485e-09 -5.20277e-07 1.08568e-07 -1.1526e-07)
(-1.75208e-06 -2.42354e-08 3.1861e-09 -4.78071e-07 1.13966e-07 -2.15752e-07)
(-3.30644e-07 -2.703e-08 6.74893e-09 -4.04318e-07 1.14201e-07 -2.39133e-07)
(-3.07775e-07 2.86074e-08 -6.66659e-09 -4.07713e-07 1.14367e-07 -2.39568e-07)
(-1.55522e-06 2.46062e-08 -3.25532e-09 -4.8509e-07 1.14524e-07 -2.17142e-07)
(-1.80008e-06 -1.65243e-08 4.48305e-09 -3.93173e-07 1.08968e-07 -3.17307e-07)
(-3.00102e-07 -2.11788e-08 7.5693e-09 -4.04877e-07 1.07165e-07 -3.40828e-07)
(-2.77343e-07 2.18197e-08 -7.57664e-09 -4.0698e-07 1.07246e-07 -3.41304e-07)
(-1.5987e-06 1.68637e-08 -4.57844e-09 -3.98728e-07 1.0923e-07 -3.18818e-07)
(-1.89322e-06 -1.09444e-09 5.36254e-09 -3.37214e-07 9.4404e-08 -4.08582e-07)
(-3.08481e-07 -1.27198e-08 8.03292e-09 -3.93835e-07 9.26634e-08 -4.31364e-07)
(-2.85094e-07 1.24901e-08 -8.08448e-09 -3.95533e-07 9.26665e-08 -4.31847e-07)
(-1.68542e-06 1.31649e-09 -5.46632e-09 -3.41804e-07 9.4398e-08 -4.10098e-07)
(-2.08029e-06 3.62028e-08 5.6053e-09 -4.05759e-07 7.01387e-08 -4.8138e-07)
(-4.2666e-07 8.47403e-09 7.99883e-09 -4.19327e-07 6.93588e-08 -5.03308e-07)
(-4.02293e-07 -1.01768e-08 -8.05674e-09 -4.20444e-07 6.93053e-08 -5.03771e-07)
(-1.86435e-06 -3.64273e-08 -5.69799e-09 -4.08478e-07 6.99291e-08 -4.82806e-07)
(-2.43052e-06 1.03854e-07 4.869e-09 -1.00566e-06 3.80649e-08 -5.25125e-07)
(-7.26513e-07 4.46464e-08 7.36718e-09 -8.29847e-07 3.76669e-08 -5.46474e-07)
(-7.00664e-07 -4.90913e-08 -7.3923e-09 -8.24981e-07 3.76e-08 -5.4691e-07)
(-2.20468e-06 -1.04769e-07 -4.92641e-09 -9.91997e-07 3.77889e-08 -5.26422e-07)
(-3.07481e-06 1.37388e-07 3.75829e-09 -3.11077e-06 1.41539e-08 -5.30419e-07)
(-1.13418e-06 6.46781e-08 7.20614e-09 -2.64262e-06 1.26771e-08 -5.5245e-07)
(-1.10494e-06 -6.29763e-08 -7.11259e-09 -2.59684e-06 1.26469e-08 -5.52899e-07)
(-2.83541e-06 -1.35274e-07 -3.73615e-09 -2.97942e-06 1.40268e-08 -5.31686e-07)
(-1.58422e-06 3.77626e-08 1.04052e-10 5.86906e-08 5.75716e-08 -3.46593e-08)
(-1.83228e-07 -8.73346e-08 1.6279e-09 -2.36822e-07 6.32075e-08 -3.98815e-08)
(-1.65574e-07 8.40934e-08 -1.52082e-09 -2.49043e-07 6.33922e-08 -4.00136e-08)
(-1.39622e-06 -3.14094e-08 -1.05616e-10 9.5305e-09 5.82392e-08 -3.50901e-08)
(-1.67496e-06 -1.96001e-08 8.79981e-10 -5.05453e-07 6.64311e-08 -1.20503e-07)
(-3.25325e-07 -4.11784e-08 2.84151e-09 -3.76207e-07 6.83912e-08 -1.30159e-07)
(-3.02119e-07 4.26751e-08 -2.72246e-09 -3.8252e-07 6.85412e-08 -1.30468e-07)
(-1.48221e-06 2.07204e-08 -8.89681e-10 -5.16388e-07 6.69525e-08 -1.21497e-07)
(-1.72207e-06 -2.31332e-08 1.71105e-09 -4.7458e-07 7.06737e-08 -2.16592e-07)
(-3.31163e-07 -2.62626e-08 3.47157e-09 -4.03066e-07 7.02482e-08 -2.27151e-07)
(-3.08494e-07 2.77086e-08 -3.41463e-09 -4.06491e-07 7.03493e-08 -2.27565e-07)
(-1.52655e-06 2.34579e-08 -1.7407e-09 -4.81748e-07 7.10181e-08 -2.17918e-07)
(-1.77279e-06 -1.57142e-08 2.38092e-09 -3.89731e-07 6.77927e-08 -3.12762e-07)
(-3.04396e-07 -2.07129e-08 3.87377e-09 -4.0191e-07 6.6575e-08 -3.22744e-07)
(-2.81816e-07 2.12767e-08 -3.87796e-09 -4.04065e-07 6.6626e-08 -3.23209e-07)
(-1.57266e-06 1.60297e-08 -2.42963e-09 -3.9548e-07 6.7965e-08 -3.14252e-07)
(-1.86833e-06 -6.88239e-10 2.82127e-09 -3.33805e-07 5.78246e-08 -3.98624e-07)
(-3.15736e-07 -1.25687e-08 4.08329e-09 -3.89913e-07 5.68634e-08 -4.07706e-07)
(-2.92505e-07 1.22986e-08 -4.12392e-09 -3.91667e-07 5.687e-08 -4.08185e-07)
(-1.66163e-06 9.02554e-10 -2.87932e-09 -3.3859e-07 5.78424e-08 -4.00156e-07)
(-2.05663e-06 3.59301e-08 2.9165e-09 -4.03346e-07 4.15338e-08 -4.64772e-07)
(-4.34868e-07 8.1585e-09 4.04578e-09 -4.16837e-07 4.12937e-08 -4.73241e-07)
(-4.1063e-07 -9.88851e-09 -4.09672e-09 -4.17999e-07 4.12692e-08 -4.73711e-07)
(-1.8416e-06 -3.61528e-08 -2.97138e-09 -4.06219e-07 4.14365e-08 -4.66257e-07)
(-2.40597e-06 1.02551e-07 2.49894e-09 -9.9867e-07 2.16789e-08 -5.03455e-07)
(-7.32776e-07 4.37532e-08 3.72585e-09 -8.25295e-07 2.17982e-08 -5.1192e-07)
(-7.07011e-07 -4.82235e-08 -3.76065e-09 -8.20454e-07 2.17658e-08 -5.12375e-07)
(-2.18075e-06 -1.03459e-07 -2.53598e-09 -9.85086e-07 2.15413e-08 -5.04859e-07)
(-3.04524e-06 1.35572e-07 1.84888e-09 -3.0763e-06 7.77438e-09 -5.11237e-07)
(-1.13696e-06 6.36731e-08 3.62664e-09 -2.61396e-06 7.22935e-09 -5.20694e-07)
(-1.10775e-06 -6.19825e-08 -3.59941e-09 -2.5682e-06 7.21478e-09 -5.21161e-07)
(-2.80609e-06 -1.33451e-07 -1.8446e-09 -2.94502e-06 7.71041e-09 -5.12624e-07)
(-1.57008e-06 3.77574e-08 1.6172e-11 5.72043e-08 1.9583e-08 -3.75103e-08)
(-1.82239e-07 -8.63245e-08 4.7838e-10 -2.36492e-07 2.11547e-08 -4.06536e-08)
(-1.64661e-07 8.30035e-08 -4.42871e-10 -2.48666e-07 2.12155e-08 -4.07778e-08)
(-1.38269e-06 -3.14749e-08 -1.58248e-11 8.27422e-09 1.98006e-08 -3.79094e-08)
(-1.66075e-06 -1.91028e-08 2.36824e-10 -5.02337e-07 2.23792e-08 -1.23744e-07)
(-3.24636e-07 -4.06302e-08 8.32838e-10 -3.74592e-07 2.2854e-08 -1.2921e-07)
(-3.0153e-07 4.20446e-08 -7.91833e-10 -3.80895e-07 2.29041e-08 -1.29507e-07)
(-1.46863e-06 2.01871e-08 -2.38116e-10 -5.1328e-07 2.25523e-08 -1.24686e-07)
(-1.70885e-06 -2.26557e-08 4.86299e-10 -4.7205e-07 2.38075e-08 -2.17035e-07)
(-3.32043e-07 -2.59413e-08 1.01926e-09 -4.01442e-07 2.35954e-08 -2.22574e-07)
(-3.09465e-07 2.73197e-08 -9.98279e-10 -4.04883e-07 2.36296e-08 -2.22979e-07)
(-1.51395e-06 2.29564e-08 -4.93966e-10 -4.79291e-07 2.39243e-08 -2.18321e-07)
(-1.76086e-06 -1.53695e-08 6.8846e-10 -3.88396e-07 2.28524e-08 -3.09505e-07)
(-3.07052e-07 -2.05295e-08 1.13596e-09 -4.0068e-07 2.24368e-08 -3.14228e-07)
(-2.84551e-07 2.10485e-08 -1.13619e-09 -4.0286e-07 2.24545e-08 -3.14691e-07)
(-1.56129e-06 1.56703e-08 -7.02862e-10 -3.94238e-07 2.2913e-08 -3.1098e-07)
(-1.85749e-06 -5.24134e-10 8.19158e-10 -3.33606e-07 1.93826e-08 -3.9168e-07)
(-3.19717e-07 -1.25187e-08 1.19366e-09 -3.89376e-07 1.9083e-08 -3.95528e-07)
(-2.96555e-07 1.2223e-08 -1.20754e-09 -3.91157e-07 1.90861e-08 -3.96012e-07)
(-1.65128e-06 7.32155e-10 -8.37333e-10 -3.38482e-07 1.93925e-08 -3.93222e-07)
(-2.04627e-06 3.57984e-08 8.44008e-10 -4.03832e-07 1.37617e-08 -4.54605e-07)
(-4.3921e-07 8.02027e-09 1.17955e-09 -4.17163e-07 1.37207e-08 -4.58024e-07)
(-4.15026e-07 -9.76562e-09 -1.19806e-09 -4.18346e-07 1.37138e-08 -4.58504e-07)
(-1.83164e-06 -3.60216e-08 -8.61729e-10 -4.06776e-07 1.37341e-08 -4.56126e-07)
(-2.39503e-06 1.01978e-07 7.12667e-10 -9.96422e-07 7.10777e-09 -4.91818e-07)
(-7.36144e-07 4.33863e-08 1.08505e-09 -8.23975e-07 7.20443e-09 -4.95492e-07)
(-7.10415e-07 -4.78683e-08 -1.09903e-09 -8.19145e-07 7.19483e-09 -4.95964e-07)
(-2.17007e-06 -1.02884e-07 -7.25031e-10 -9.82873e-07 7.06642e-09 -4.9328e-07)
(-3.03178e-06 1.34793e-07 4.98868e-10 -3.06067e-06 2.51146e-09 -5.01423e-07)
(-1.13863e-06 6.32602e-08 1.05002e-09 -2.60073e-06 2.38597e-09 -5.06094e-07)
(-1.10943e-06 -6.15743e-08 -1.04506e-09 -2.55498e-06 2.38164e-09 -5.06576e-07)
(-2.79272e-06 -1.32668e-07 -4.98549e-10 -2.92941e-06 2.49209e-09 -5.02874e-07)
)
;

boundaryField
{
    interface
    {
        type            calculated;
        value           nonuniform List<symmTensor> 
192
(
(-4.7102e-06 2.25984e-12 1.73001e-11 1.48252e-06 2.56209e-07 -2.91684e-06)
(-4.41771e-06 2.29233e-12 2.80838e-11 -5.15604e-07 4.1465e-08 -2.9899e-06)
(-4.51138e-06 6.93144e-13 3.21988e-11 -6.51592e-07 5.20256e-09 -3.06102e-06)
(-4.65349e-06 -2.17239e-12 3.34784e-11 -6.17146e-07 1.30598e-08 -3.14514e-06)
(-4.82355e-06 -4.74561e-12 3.33467e-11 -6.48491e-07 3.63233e-08 -3.25651e-06)
(-5.04239e-06 -9.24526e-12 3.26161e-11 -8.69773e-07 7.94282e-08 -3.41559e-06)
(-5.33157e-06 -1.26949e-11 3.02308e-11 -1.7153e-06 1.43197e-07 -3.67235e-06)
(-5.88613e-06 -2.87692e-11 2.84011e-11 -4.16712e-06 1.68101e-07 -4.1649e-06)
(-3.89609e-06 1.63231e-12 8.4759e-12 6.14716e-07 4.09816e-08 -5.85136e-07)
(-3.7021e-06 1.81578e-12 1.47181e-11 -3.69177e-07 5.55154e-08 -9.49179e-07)
(-3.75492e-06 4.38549e-13 1.66518e-11 -4.94972e-07 4.69694e-08 -1.02127e-06)
(-3.86072e-06 -2.45663e-12 1.6918e-11 -5.31338e-07 5.00128e-08 -1.04341e-06)
(-4.01201e-06 -5.15209e-12 1.63895e-11 -5.79018e-07 8.12272e-08 -1.08661e-06)
(-4.23474e-06 -1.00911e-11 1.55484e-11 -7.27907e-07 1.32518e-07 -1.18767e-06)
(-4.57653e-06 -1.38975e-11 1.40057e-11 -1.39041e-06 1.72439e-07 -1.39768e-06)
(-5.33564e-06 -3.07403e-11 1.2795e-11 -3.67453e-06 1.44029e-07 -1.71631e-06)
(-3.39589e-06 1.40135e-12 6.636e-12 2.61297e-07 1.06832e-07 -8.051e-08)
(-3.31759e-06 1.57791e-12 1.13656e-11 -4.30474e-07 1.29281e-07 -2.79325e-07)
(-3.3778e-06 2.52944e-13 1.27961e-11 -4.61373e-07 1.197e-07 -3.85905e-07)
(-3.47758e-06 -2.75941e-12 1.2955e-11 -4.5882e-07 1.13157e-07 -4.38419e-07)
(-3.62872e-06 -5.67961e-12 1.25098e-11 -4.70881e-07 1.27223e-07 -4.953e-07)
(-3.86442e-06 -1.11371e-11 1.18277e-11 -5.66188e-07 1.47278e-07 -5.94221e-07)
(-4.23974e-06 -1.54772e-11 1.07237e-11 -1.17377e-06 1.3819e-07 -7.42776e-07)
(-5.05302e-06 -3.34111e-11 9.81236e-12 -3.41933e-06 8.27172e-08 -8.68523e-07)
(-3.09847e-06 1.05462e-12 4.01579e-12 1.31058e-07 1.2902e-07 -1.27853e-08)
(-3.06175e-06 1.08401e-12 7.27609e-12 -4.86645e-07 1.56061e-07 -1.27859e-07)
(-3.13142e-06 -2.54167e-13 8.21563e-12 -4.71155e-07 1.54243e-07 -2.42742e-07)
(-3.23358e-06 -3.2792e-12 8.23295e-12 -4.19129e-07 1.4483e-07 -3.31832e-07)
(-3.38832e-06 -6.29126e-12 7.83324e-12 -3.91567e-07 1.39873e-07 -4.14576e-07)
(-3.63261e-06 -1.19626e-11 7.29356e-12 -4.65361e-07 1.29066e-07 -5.08189e-07)
(-4.02358e-06 -1.65362e-11 6.59959e-12 -1.06905e-06 9.29982e-08 -5.99612e-07)
(-4.84623e-06 -3.4713e-11 6.06595e-12 -3.26705e-06 4.33582e-08 -6.33185e-07)
(-2.92387e-06 8.85839e-13 2.92019e-12 8.24682e-08 1.17963e-07 -1.81069e-08)
(-2.89825e-06 7.71706e-13 5.29118e-12 -5.07614e-07 1.41434e-07 -1.08683e-07)
(-2.97325e-06 -6.31341e-13 5.98203e-12 -4.78611e-07 1.46538e-07 -2.17801e-07)
(-3.07924e-06 -3.69943e-12 5.99216e-12 -4.01043e-07 1.39005e-07 -3.2063e-07)
(-3.23803e-06 -6.81286e-12 5.69662e-12 -3.51728e-07 1.24743e-07 -4.13756e-07)
(-3.48744e-06 -1.26674e-11 5.29537e-12 -4.20275e-07 9.99755e-08 -4.96494e-07)
(-3.88419e-06 -1.74535e-11 4.81358e-12 -1.024e-06 5.99185e-08 -5.5461e-07)
(-4.70149e-06 -3.58836e-11 4.43325e-12 -3.1707e-06 2.40463e-08 -5.62303e-07)
(-2.82233e-06 7.54277e-13 1.76747e-12 6.4567e-08 9.16702e-08 -2.82791e-08)
(-2.79973e-06 5.17571e-13 3.31642e-12 -5.09368e-07 1.07694e-07 -1.14163e-07)
(-2.87751e-06 -9.45118e-13 3.7725e-12 -4.78071e-07 1.13966e-07 -2.15752e-07)
(-2.98663e-06 -4.03983e-12 3.76916e-12 -3.93173e-07 1.08968e-07 -3.17307e-07)
(-3.1486e-06 -7.20864e-12 3.56362e-12 -3.37214e-07 9.4404e-08 -4.08582e-07)
(-3.4008e-06 -1.31525e-11 3.29245e-12 -4.05759e-07 7.01387e-08 -4.8138e-07)
(-3.79889e-06 -1.80473e-11 2.99773e-12 -1.00566e-06 3.80649e-08 -5.25125e-07)
(-4.60852e-06 -3.65979e-11 2.77718e-12 -3.11077e-06 1.41539e-08 -5.30419e-07)
(-2.76603e-06 6.89443e-13 1.03238e-12 5.86906e-08 5.75716e-08 -3.46593e-08)
(-2.74445e-06 3.68697e-13 1.93532e-12 -5.05453e-07 6.64311e-08 -1.20503e-07)
(-2.82367e-06 -1.14406e-12 2.20351e-12 -4.7458e-07 7.06737e-08 -2.16592e-07)
(-2.93481e-06 -4.26429e-12 2.20248e-12 -3.89731e-07 6.77927e-08 -3.12762e-07)
(-3.09877e-06 -7.47574e-12 2.08385e-12 -3.33805e-07 5.78246e-08 -3.98624e-07)
(-3.35232e-06 -1.34815e-11 1.92375e-12 -4.03346e-07 4.15338e-08 -4.64772e-07)
(-3.75023e-06 -1.84527e-11 1.7577e-12 -9.9867e-07 2.16789e-08 -5.03455e-07)
(-4.55404e-06 -3.70955e-11 1.62567e-12 -3.0763e-06 7.77438e-09 -5.11237e-07)
(-2.74082e-06 6.4975e-13 3.03583e-13 5.72043e-08 1.9583e-08 -3.75103e-08)
(-2.71962e-06 2.8546e-13 5.91115e-13 -5.02337e-07 2.23792e-08 -1.23744e-07)
(-2.79948e-06 -1.25032e-12 6.77789e-13 -4.7205e-07 2.38075e-08 -2.17035e-07)
(-2.91157e-06 -4.37811e-12 6.76253e-13 -3.88396e-07 2.28524e-08 -3.09505e-07)
(-3.07647e-06 -7.60634e-12 6.3743e-13 -3.33606e-07 1.93826e-08 -3.9168e-07)
(-3.33053e-06 -1.36339e-11 5.85012e-13 -4.03832e-07 1.37617e-08 -4.54605e-07)
(-3.72811e-06 -1.86398e-11 5.35934e-13 -9.96422e-07 7.10777e-09 -4.91818e-07)
(-4.52894e-06 -3.732e-11 4.94734e-13 -3.06067e-06 2.51146e-09 -5.01423e-07)
(-2.86678e-06 2.218e-07 -2.40151e-11 1.48252e-06 -5.83582e-12 -4.81099e-06)
(-2.98492e-06 4.61405e-09 -4.10136e-11 -5.15604e-07 -7.22603e-12 -4.49146e-06)
(-3.0596e-06 -3.10836e-08 -4.83342e-11 -6.51592e-07 -6.35422e-12 -4.58616e-06)
(-3.12182e-06 -2.17794e-08 -5.12547e-11 -6.17146e-07 -4.82054e-12 -4.73835e-06)
(-3.21645e-06 -2.1912e-09 -5.23631e-11 -6.48491e-07 -4.13017e-12 -4.9152e-06)
(-3.3834e-06 3.60233e-08 -5.32561e-11 -8.69773e-07 -4.37596e-12 -5.13032e-06)
(-3.67039e-06 1.01825e-07 -5.44077e-11 -1.7153e-06 -5.30287e-12 -5.40673e-06)
(-4.17223e-06 1.32251e-07 -5.99987e-11 -4.16712e-06 -6.64297e-12 -5.95015e-06)
(-6.73551e-07 -3.3002e-08 -1.40586e-11 9.26174e-07 -3.4888e-12 -4.29427e-06)
(-1.16398e-06 -3.56028e-08 -2.70431e-11 -2.58827e-07 -5.59401e-12 -3.99006e-06)
(-1.23007e-06 -3.46844e-08 -3.2197e-11 -4.83897e-07 -5.18136e-12 -4.01128e-06)
(-1.19167e-06 -2.70636e-08 -3.40471e-11 -5.92267e-07 -3.44418e-12 -4.11357e-06)
(-1.19e-06 -1.36967e-08 -3.47646e-11 -6.92851e-07 -2.21387e-12 -4.26057e-06)
(-1.302e-06 1.08531e-08 -3.57464e-11 -8.77508e-07 -1.52685e-12 -4.46252e-06)
(-1.59204e-06 4.82676e-08 -3.79718e-11 -1.54525e-06 -1.6436e-12 -4.77236e-06)
(-1.98286e-06 6.44811e-08 -4.52794e-11 -3.8065e-06 -2.12529e-12 -5.52597e-06)
(-6.52723e-07 2.23079e-08 -1.38534e-11 9.06941e-07 -2.56243e-12 -4.21799e-06)
(-1.13579e-06 3.33222e-08 -2.69553e-11 -2.62627e-07 -4.63115e-12 -3.91751e-06)
(-1.20194e-06 3.46538e-08 -3.23367e-11 -4.85013e-07 -4.38749e-12 -3.93634e-06)
(-1.16352e-06 2.70407e-08 -3.43144e-11 -5.92861e-07 -2.48223e-12 -4.03641e-06)
(-1.16145e-06 1.32279e-08 -3.5025e-11 -6.93439e-07 -8.78827e-13 -4.18173e-06)
(-1.27312e-06 -1.24713e-08 -3.58401e-11 -8.77573e-07 4.49935e-13 -4.38216e-06)
(-1.56274e-06 -5.22271e-08 -3.77402e-11 -1.53922e-06 1.15231e-12 -4.6906e-06)
(-1.9513e-06 -6.22173e-08 -4.48016e-11 -3.7598e-06 1.26994e-12 -5.44483e-06)
(-2.65477e-06 -2.17064e-07 -1.49685e-11 1.41314e-06 -2.09736e-12 -4.59266e-06)
(-2.76335e-06 -4.66924e-09 -3.0358e-11 -5.18889e-07 -4.05492e-12 -4.28387e-06)
(-2.83412e-06 3.09162e-08 -3.71499e-11 -6.52098e-07 -3.81469e-12 -4.37069e-06)
(-2.89204e-06 2.18361e-08 -3.97701e-11 -6.18302e-07 -1.75193e-12 -4.51638e-06)
(-2.98234e-06 2.14897e-09 -4.06919e-11 -6.49714e-07 3.37493e-14 -4.68857e-06)
(-3.14553e-06 -3.65505e-08 -4.17444e-11 -8.69434e-07 1.66679e-12 -4.89968e-06)
(-3.42909e-06 -1.02997e-07 -4.3439e-11 -1.69888e-06 2.84167e-12 -5.17292e-06)
(-3.92359e-06 -1.3021e-07 -5.09128e-11 -4.03641e-06 3.93084e-12 -5.72197e-06)
(-4.32783e-06 4.69478e-12 3.86183e-12 1.41314e-06 2.55113e-07 -2.797e-06)
(-4.03094e-06 6.40305e-12 7.84486e-12 -5.18889e-07 4.30125e-08 -2.87231e-06)
(-4.1167e-06 5.00223e-12 9.19295e-12 -6.52098e-07 6.2756e-09 -2.93956e-06)
(-4.25024e-06 1.73405e-12 9.89562e-12 -6.18302e-07 1.34374e-08 -3.02039e-06)
(-4.41244e-06 -1.10325e-13 1.0473e-11 -6.49714e-07 3.61893e-08 -3.12926e-06)
(-4.62441e-06 -2.67901e-12 1.20928e-11 -8.69434e-07 7.88492e-08 -3.28615e-06)
(-4.90756e-06 -2.49876e-12 1.3492e-11 -1.69888e-06 1.42088e-07 -3.54101e-06)
(-5.45199e-06 -1.65762e-11 1.74011e-11 -4.03641e-06 1.66988e-07 -4.03541e-06)
(-3.52033e-06 1.88038e-12 -2.06472e-12 5.57145e-07 4.8218e-08 -5.74589e-07)
(-3.32926e-06 2.93259e-12 -2.15074e-12 -3.79001e-07 5.92498e-08 -9.34712e-07)
(-3.37587e-06 2.31934e-12 -2.72137e-12 -4.99096e-07 4.90731e-08 -1.00703e-06)
(-3.47314e-06 4.38252e-13 -2.83264e-12 -5.33838e-07 5.09284e-08 -1.02947e-06)
(-3.61532e-06 -8.35419e-14 -2.45373e-12 -5.80847e-07 8.10833e-08 -1.07263e-06)
(-3.82877e-06 -1.54873e-12 -1.00578e-12 -7.28327e-07 1.31446e-07 -1.17341e-06)
(-4.1616e-06 6.86314e-14 8.628e-13 -1.37541e-06 1.70722e-07 -1.38275e-06)
(-4.90872e-06 -1.28538e-11 3.72527e-12 -3.54122e-06 1.42936e-07 -1.69994e-06)
(-3.03252e-06 1.04479e-12 -1.25735e-12 2.08151e-07 1.10794e-07 -8.12359e-08)
(-2.95624e-06 1.58897e-12 -7.78832e-13 -4.41273e-07 1.31844e-07 -2.79299e-07)
(-3.01019e-06 1.31294e-12 -5.88038e-13 -4.6721e-07 1.21277e-07 -3.86079e-07)
(-3.10129e-06 1.61267e-13 -2.34571e-13 -4.62704e-07 1.13852e-07 -4.39071e-07)
(-3.24237e-06 4.39396e-13 3.45285e-13 -4.73765e-07 1.27033e-07 -4.96138e-07)
(-3.46669e-06 -3.79421e-13 1.55302e-12 -5.67545e-07 1.46323e-07 -5.94856e-07)
(-3.82993e-06 1.96934e-12 2.83321e-12 -1.15945e-06 1.36894e-07 -7.42831e-07)