/*--------------------------------*- C++ -*----------------------------------*\
| =========                 |                                                 |
| \\      /  F ield         | OpenFOAM: The Open Source CFD Toolbox           |
|  \\    /   O peration     | Version:  v1912                                 |
|   \\  /    A nd           | Website:  www.openfoam.com                      |
|    \\/     M anipulation  |                                                 |
\*---------------------------------------------------------------------------*/
FoamFile
{
    version     2.0;
    format      ascii;
    class       volScalarField;
    location    "0.84/solid";
    object      epsilonEq;
}
// * * * * * * * * * * * * * * * * * * * * * * * * * * * * * * * * * * * * * //

dimensions      [0 0 0 0 0 0 0];


internalField   nonuniform List<scalar> 
256
(
2.94393e-06
2.04442e-06
2.00937e-06
2.78899e-06
1.65469e-06
1.37064e-06
1.34551e-06
1.54107e-06
1.61359e-06
1.25756e-06
1.23356e-06
1.4992e-06
1.68553e-06
1.23986e-06
1.21611e-06
1.56864e-06
1.73408e-06
1.24973e-06
1.22604e-06
1.61529e-06
1.69842e-06
1.2416e-06
1.21812e-06
1.57885e-06
1.33068e-06
1.09447e-06
1.07553e-06
1.22123e-06
2.90222e-07
1.23765e-06
1.22747e-06
2.96513e-07
1.71042e-06
4.5217e-07
4.37203e-07
1.55424e-06
1.21993e-06
4.45476e-07
4.32839e-07
1.083e-06
1.17413e-06
3.35601e-07
3.2603e-07
1.03793e-06
1.17799e-06
2.25015e-07
2.1948e-07
1.03963e-06
1.20197e-06
1.87174e-07
1.85937e-07
1.06076e-06
1.22864e-06
2.15528e-07
2.14272e-07
1.08477e-06
1.13519e-06
2.14952e-07
2.18226e-07
9.93524e-07
1.33159e-06
1.09764e-06
1.07833e-06
1.22093e-06
1.39756e-06
2.83345e-07
2.77265e-07
1.2439e-06
1.1584e-06
2.66555e-07
2.56887e-07
1.02063e-06
1.13256e-06
1.8977e-07
1.82361e-07
9.93729e-07
1.13692e-06
1.37279e-07
1.37257e-07
9.95281e-07
1.16843e-06
1.4965e-07
1.54421e-07
1.0234e-06
1.22234e-06
1.67315e-07
1.69176e-07
1.07392e-06
1.22665e-06
2.12026e-07
2.1119e-07
1.08131e-06
1.70234e-06
1.24791e-06
1.22393e-06
1.58065e-06
1.23927e-06
2.67739e-07
2.66352e-07
1.09148e-06
1.08159e-06
2.53179e-07
2.5002e-07
9.50816e-07
1.06192e-06
1.98782e-07
1.98397e-07
9.28262e-07
1.06596e-06
1.76692e-07
1.82164e-07
9.28167e-07
1.10094e-06
1.81136e-07
1.89436e-07
9.58848e-07
1.1637e-06
1.63629e-07
1.69539e-07
1.01708e-06
1.19638e-06
1.73906e-07
1.74871e-07
1.05199e-06
1.75006e-06
1.26204e-06
1.23769e-06
1.6279e-06
1.14842e-06
2.32379e-07
2.32495e-07
1.00385e-06
1.01302e-06
2.32766e-07
2.31974e-07
8.85946e-07
1.00018e-06
1.93119e-07
1.94709e-07
8.69518e-07
1.00863e-06
1.73087e-07
1.79535e-07
8.73097e-07
1.04992e-06
1.69065e-07
1.77875e-07
9.097e-07
1.11958e-06
1.37833e-07
1.44038e-07
9.74326e-07
1.16571e-06
1.6574e-07
1.65329e-07
1.02231e-06
1.73278e-06
1.25438e-06
1.22984e-06
1.61079e-06
1.09677e-06
1.98329e-07
1.98902e-07
9.53594e-07
9.66109e-07
2.0351e-07
2.03127e-07
8.40173e-07
9.58437e-07
1.65996e-07
1.67708e-07
8.28631e-07
9.72596e-07
1.4038e-07
1.47137e-07
8.37698e-07
1.02025e-06
1.3053e-07
1.39764e-07
8.80662e-07
1.09584e-06
9.73656e-08
1.02633e-07
9.51168e-07
1.15135e-06
1.79004e-07
1.76187e-07
1.00868e-06
1.71581e-06
1.24802e-06
1.22322e-06
1.59376e-06
1.06848e-06
1.71242e-07
1.71905e-07
9.25814e-07
9.38206e-07
1.76072e-07
1.7551e-07
8.12374e-07
9.33624e-07
1.3396e-07
1.35432e-07
8.03787e-07
9.52139e-07
1.00411e-07
1.08153e-07
8.17207e-07
1.00434e-06
8.78456e-08
9.87731e-08
8.64827e-07
1.08416e-06
5.90812e-08
6.33221e-08
9.39703e-07
1.14613e-06
1.94343e-07
1.90056e-07
1.00398e-06
1.707e-06
1.24435e-06
1.21937e-06
1.58486e-06
1.05584e-06
1.5545e-07
1.56106e-07
9.13316e-07
9.25301e-07
1.59124e-07
1.58356e-07
7.99361e-07
9.22161e-07
1.11732e-07
1.13046e-07
7.92165e-07
9.4291e-07
6.96795e-08
7.9401e-08
8.07853e-07
9.97378e-07
5.53202e-08
6.98503e-08
8.57829e-07
1.07934e-06
2.99388e-08
3.40696e-08
9.34955e-07
1.14462e-06
2.02836e-07
1.97947e-07
1.00272e-06
1.70374e-06
1.2427e-06
1.21763e-06
1.58155e-06
)
;

boundaryField
{
    interface
    {
        type            calculated;
        value           nonuniform List<scalar> 
192
(
3.69126e-06
2.28023e-06
2.25127e-06
2.35509e-06
2.43568e-06
2.43019e-06
2.09674e-06
1.16306e-06
2.69812e-06
2.05707e-06
2.02157e-06
2.07092e-06
2.14169e-06
2.20602e-06
2.13098e-06
2.09857e-06
2.33581e-06
1.98268e-06
1.97477e-06
2.02356e-06
2.10228e-06
2.19613e-06
2.20752e-06
2.43706e-06
2.11197e-06
1.85674e-06
1.86288e-06
1.91339e-06
1.99675e-06
2.10266e-06
2.14606e-06
2.45819e-06
1.97626e-06
1.74967e-06
1.76463e-06
1.81995e-06
1.90931e-06
2.02315e-06
2.08213e-06
2.41676e-06
1.89736e-06
1.67888e-06
1.69895e-06
1.75931e-06
1.85413e-06
1.97363e-06
2.04175e-06
2.38204e-06
1.85401e-06
1.63794e-06
1.66076e-06
1.72472e-06
1.82331e-06
1.94642e-06
2.01994e-06
2.3621e-06
1.83473e-06
1.61941e-06
1.64346e-06
1.70922e-06
1.80966e-06
1.9345e-06
2.01056e-06
2.35355e-06
3.72976e-06
2.31779e-06
2.29082e-06
2.39786e-06
2.48037e-06
2.47342e-06
2.13573e-06
1.19677e-06
3.08863e-06
2.24775e-06
2.14691e-06
2.17566e-06
2.23136e-06
2.26186e-06
2.1367e-06
2.04727e-06
3.03357e-06
2.2043e-06
2.10343e-06
2.13133e-06
2.18634e-06
2.21639e-06
2.094e-06
2.01869e-06
3.54826e-06
2.18707e-06
2.15798e-06
2.26108e-06
2.34117e-06
2.33374e-06
2.00926e-06
1.17281e-06
3.44538e-06
2.06702e-06
2.03425e-06
2.13305e-06
2.2091e-06
2.19943e-06
1.86653e-06
9.63545e-07
2.43118e-06
1.81156e-06
1.77386e-06
1.81795e-06
1.88294e-06
1.94167e-06
1.86546e-06
1.86662e-06
2.07469e-06
1.73984e-06
1.72868e-06
1.77187e-06
1.84417e-06
1.93113e-06
1.94066e-06
2.20259e-06
1.85881e-06
1.622e-06
1.6237e-06
1.66774e-06
1.74391e-06
1.84168e-06
1.88171e-06
2.22541e-06
1.72807e-06
1.51989e-06
1.52994e-06
1.57831e-06
1.66003e-06
1.76506e-06
1.81983e-06
2.18523e-06
1.65192e-06
1.45149e-06
1.46647e-06
1.51969e-06
1.60672e-06
1.71711e-06
1.78074e-06
2.15117e-06
1.60999e-06
1.41163e-06
1.42927e-06
1.48604e-06
1.57679e-06
1.69069e-06
1.75972e-06
2.13158e-06
1.59132e-06
1.39351e-06
1.41234e-06
1.4709e-06
1.5635e-06
1.67911e-06
1.7507e-06
2.12319e-06
1.20072e-06
2.13944e-06
2.48175e-06
2.50493e-06
2.46333e-06
2.42756e-06
2.40676e-06
2.39778e-06
2.04995e-06
2.14267e-06
2.27364e-06
2.2548e-06
2.21408e-06
2.18246e-06
2.16264e-06
2.15327e-06
2.02099e-06
2.09926e-06
2.22713e-06
2.20828e-06
2.16755e-06
2.13583e-06
2.11591e-06
2.10649e-06
1.17487e-06
2.01095e-06
2.33901e-06
2.36104e-06
2.3193e-06
2.2833e-06
2.26227e-06
2.25316e-06
)
;
    }
    symmetry
    {
        type            symmetry;
    }
    bottom
    {
        type            calculated;
        value           nonuniform List<scalar> 
32
(
4.25885e-06
2.2524e-06
1.72186e-06
1.5113e-06
1.4054e-06
1.34772e-06
1.31667e-06
1.30293e-06
2.69619e-06
5.73984e-07
2.73451e-07
2.56283e-07
2.24921e-07
1.93081e-07
1.6739e-07
1.52336e-07
2.65254e-06
5.52981e-07
2.58232e-07
2.45484e-07
2.14362e-07
1.81531e-07
1.5431e-07
1.37961e-07
4.06236e-06
2.07652e-06
1.54892e-06
1.34349e-06
1.24111e-06
1.18541e-06
1.15534e-06
1.14199e-06
)
;
    }
}


// ************************************************************************* //
