/*--------------------------------*- C++ -*----------------------------------*\
| =========                 |                                                 |
| \\      /  F ield         | OpenFOAM: The Open Source CFD Toolbox           |
|  \\    /   O peration     | Version:  v1912                                 |
|   \\  /    A nd           | Website:  www.openfoam.com                      |
|    \\/     M anipulation  |                                                 |
\*---------------------------------------------------------------------------*/
FoamFile
{
    version     2.0;
    format      ascii;
    class       volVectorField;
    location    "0.84/solid";
    object      heatFlux;
}
// * * * * * * * * * * * * * * * * * * * * * * * * * * * * * * * * * * * * * //

dimensions      [1 0 -3 0 0 0 0];


internalField   nonuniform List<vector> 
256
(
(-63935.4 73653.5 -67258.6)
(-13373.3 44072.1 -66223.7)
(11850.4 43526.2 -64880.2)
(56759.5 70809.9 -63323.9)
(-60531.9 11496.3 -64244.7)
(-16754.1 7580.34 -66325.5)
(14887.5 7500.49 -64936)
(53015.8 11153.2 -60284.6)
(-61606.7 2788.19 -65451.3)
(-17369.1 1762.98 -67942)
(15423.3 1737.79 -66497.4)
(53938.4 2683.75 -61357.4)
(-63429.3 2581.23 -67302)
(-17804.5 1566.72 -69977.6)
(15808.2 1551.05 -68493)
(55602.5 2507.21 -63103.9)
(-65958.1 4310.04 -69829.9)
(-18399.2 2862.91 -72840.3)
(16363.8 2849.28 -71325.8)
(57979.1 4247.18 -65552.6)
(-69460.8 9859.26 -73348.8)
(-19265.2 8029.5 -77103.7)
(17192.5 7991.74 -75560.8)
(61336.8 9743.78 -68996.6)
(-72697.5 29357.6 -76715.3)
(-20266.8 28928.2 -81912.4)
(18078 28674 -80339.9)
(64393.4 28666.7 -72290.8)
(-66701.4 71174.4 -71062.6)
(-19948.8 77731 -77641.6)
(16931 76222.1 -76147.5)
(57971.2 66955.8 -66896.5)
(-61317 40291.9 -18420.4)
(-12145 12609.4 -16163.6)
(11269.5 12443.4 -15975.2)
(54535.4 38524.8 -17870.3)
(-61325.2 6948.48 -23629.2)
(-15703.5 2759.48 -21352.6)
(14645.8 2734.6 -21112.5)
(54311.9 6751.89 -22936.6)
(-62837.6 1673.74 -24516.5)
(-16358.9 578.838 -22260.6)
(15261.9 570.546 -22007.5)
(55679.3 1610.57 -23791.1)
(-64855.6 1546.86 -25044.6)
(-16806.7 463.258 -22794.7)
(15677.6 456.188 -22535.5)
(57533.8 1490.38 -24306.1)
(-67743.6 2832.11 -25747.2)
(-17449.6 1178.18 -23545.8)
(16289 1169.57 -23283.6)
(60250.5 2773.78 -25006.9)
(-72047.2 7879.46 -26800.2)
(-18469.2 5500.86 -24777.3)
(17273.2 5465.7 -24513.9)
(64374.2 7758.53 -26067.2)
(-76883.5 28304.7 -28263.6)
(-19863.3 26760.8 -26741.9)
(18546.7 26492.8 -26479.1)
(68989.2 27559.9 -27547.1)
(-72772.4 76882.7 -29306.9)
(-20281.2 82050.8 -28901.3)
(18072.3 80455.3 -28654.1)
(64408.1 72383.1 -28649.1)
(-55302.3 31604 -4869.55)
(-10928.1 6555.92 -2889.44)
(10143.7 6438.52 -2865.63)
(48760.1 30003.1 -4774.43)
(-56012.3 5400.18 -6603.14)
(-14237.4 1483.29 -4181.56)
(13303.5 1468.24 -4148.11)
(49265.2 5232.51 -6476.17)
(-57519 1372.79 -6873.25)
(-14860 320.83 -4393.79)
(13892.9 314.77 -4358.36)
(50626.4 1314.18 -6741.05)
(-59494.7 1350.52 -6979.92)
(-15295.4 281.575 -4480.72)
(14296.8 274.919 -4444.81)
(52433.1 1291.33 -6848.1)
(-62388.9 2554.4 -7104.26)
(-15935.6 880.306 -4598.29)
(14902.6 870.94 -4562.69)
(55137.6 2486.12 -6977.71)
(-66821 7342.9 -7310.67)
(-16978.9 4833.39 -4828.24)
(15902.6 4796.24 -4793.83)
(59352.2 7203.63 -7195.94)
(-72145.6 26851 -7845.09)
(-18482.3 24804.2 -5494.39)
(17272.9 24533.8 -5462.29)
(64399.7 26084.8 -7750.06)
(-69635.2 73604.3 -9799.47)
(-19296 77318.7 -8001.64)
(17183.2 75739.8 -7971.14)
(61375.9 69139.9 -9722.06)
(-51077.5 28819.2 -1766.15)
(-10141.1 5538.42 -517.206)
(9384.52 5429.63 -511.993)
(44702.2 27274.2 -1726.47)
(-51820.3 4944.78 -2331.61)
(-13248.5 1255.13 -761.114)
(12351.2 1241.87 -753.668)
(45250.8 4785.26 -2280.33)
(-53269 1296.96 -2411.65)
(-13844 279.674 -799.027)
(12914.6 273.845 -791.232)
(46555.1 1238.64 -2358.95)
(-55204.1 1315.85 -2434.01)
(-14271.6 258.757 -810.22)
(13310.2 251.859 -802.483)
(48317.1 1253.73 -2382.41)
(-58078.9 2501.36 -2454.89)
(-14908 830.665 -825.077)
(13909.6 820.558 -817.698)
(50988.6 2425.94 -2407.07)
(-62521.2 7138.64 -2506.38)
(-15952.4 4604.75 -874.259)
(14905.5 4566.1 -867.699)
(55186.9 6986.18 -2466.3)
(-67979.8 25815.9 -2776.56)
(-17480.5 23587.4 -1167.42)
(16291 23315.5 -1162.44)
(60325.1 25033.8 -2750.03)
(-66273 70216.6 -4209.87)
(-18452.9 73173.1 -2812.47)
(16351.8 71604.6 -2808.69)
(58064.6 65776.5 -4197.02)
(-48493.9 27506.2 -896.76)
(-9673.94 5277.6 -156.328)
(8934.39 5172.86 -153.613)
(42230.6 25996.3 -871.819)
(-49210 4754.68 -1155.42)
(-12659.4 1201.47 -223.368)
(11784.3 1189 -219.503)
(42758.7 4600.04 -1123.31)
(-50623.7 1270.39 -1188.02)
(-13239.6 271.724 -232.494)
(12333 265.955 -228.471)
(44028.9 1212.1 -1155.06)
(-52538.5 1307.28 -1194.44)
(-13663.9 255.525 -234.091)
(12724.6 248.453 -230.131)
(45767.3 1243.2 -1162.34)
(-55401.5 2482.04 -1200.1)
(-14298.4 816.267 -236.621)
(13320.6 805.723 -232.882)
(48417.6 2402.23 -1170.41)
(-59833.2 7021.24 -1225.75)
(-15340.2 4491.05 -255.791)
(14310.6 4451.5 -252.527)
(52587.9 6860.67 -1200.75)
(-65312.4 25147.5 -1393.59)
(-16868.2 22866 -416.14)
(15690.3 22592.8 -413.829)
(57719.8 24354.1 -1376.88)
(-63964.3 67904.6 -2318.54)
(-17894.8 70515.5 -1410.16)
(15798.7 68950.9 -1408.97)
(55789.2 63472 -2311.96)
(-46939.8 26767 -506.748)
(-9397.93 5158.73 -76.0648)
(8669.03 5056.52 -74.4057)
(40745.4 25279 -491.59)
(-47638.9 4653.52 -646.9)
(-12312.6 1178.97 -106.535)
(11451.3 1167.01 -104.155)
(41260.1 4502.02 -627.261)
(-49035.1 1257.94 -663.231)
(-12884.4 268.95 -110.266)
(11992.1 263.217 -107.785)
(42512.8 1199.6 -643.076)
(-50940 1303.77 -665.726)
(-13307.3 254.63 -110.641)
(12381.9 247.448 -108.2)
(44238.6 1238.38 -646.173)
(-53795.3 2470.05 -668.657)
(-13940.8 808.964 -111.589)
(12975.8 798.162 -109.28)
(46874.8 2387.54 -650.607)
(-58212.2 6945.15 -685.564)
(-14979.2 4425.23 -122.103)
(13960.5 4385.16 -120.067)
(51019.5 6779.71 -670.282)
(-63677.4 24723.2 -791.584)
(-16500.8 22433 -215.031)
(15330.3 22159 -213.547)
(56121.3 23922.6 -781.184)
(-62490.5 66422.8 -1363.05)
(-17543.3 68873 -804.856)
(15450 67309.9 -804.144)
(54333.5 61992.3 -1359.17)
(-46049.2 26352.6 -265.176)
(-9241.6 5095 -38.5824)
(8518.86 4994.3 -37.6818)
(39894.3 24877.4 -257.098)
(-46739.8 4598.19 -337.26)
(-12116.7 1167.27 -53.6962)
(11263.5 1155.62 -52.3945)
(40402.2 4448.55 -326.733)
(-48127.1 1251.57 -345.317)
(-12684.2 267.619 -55.4669)
(11800.1 261.91 -54.107)
(41646.2 1193.19 -334.505)
(-50027 1301.85 -346.417)
(-13106.4 254.202 -55.6013)
(12189.1 246.957 -54.2627)
(43365.1 1235.67 -335.945)
(-52877.1 2462.2 -348.162)
(-13739.1 804.805 -56.0912)
(12781.6 793.856 -54.823)
(45992.2 2378.12 -338.51)
(-57281.4 6898.31 -358.214)
(-14774.7 4387.61 -61.6947)
(13762.4 4347.24 -60.5694)
(50117.8 6730.09 -350.038)
(-62727.7 24470 -417.424)
(-16290.1 22183.3 -111.014)
(15124.1 21908.8 -110.177)
(55191.7 23665.2 -411.84)
(-61613.8 65536.3 -730.255)
(-17335.9 67910.2 -426.711)
(15244.3 66347.7 -426.314)
(53466 61106 -728.277)
(-45641.2 26164.6 -82.8318)
(-9170.44 5066.45 -11.9523)
(8450.51 4966.44 -11.6674)
(39504.1 24695.2 -80.3031)
(-46328 4573.38 -105.188)
(-12027.7 1162.08 -16.6)
(11178.3 1150.59 -16.1863)
(40009.2 4424.61 -101.88)
(-47711.6 1248.79 -107.644)
(-12593.2 267.045 -17.1359)
(11713 261.349 -16.703)
(41249.5 1190.39 -104.244)
(-49609.3 1300.93 -107.97)
(-13015.1 254.006 -17.1733)
(12101.6 246.732 -16.747)
(42965.2 1234.38 -104.679)
(-52456.6 2458.25 -108.569)
(-13647.4 802.871 -17.3318)
(12693.4 791.855 -16.928)
(45587.6 2373.44 -105.541)
(-56853.8 6875.88 -111.92)
(-14681.5 4370.31 -19.1069)
(13672.2 4329.8 -18.748)
(49703.2 6706.38 -109.358)
(-62288.7 24351.1 -130.996)
(-16193.5 22068 -34.629)
(15029.5 21793.3 -34.3603)
(54761.3 23544.3 -129.254)
(-61203.3 65119.4 -230.797)
(-17239.3 67462.1 -134.347)
(15148.5 65899.8 -134.22)
(53059.3 60688.9 -230.21)
)
;

boundaryField
{
    interface
    {
        type            calculated;
        value           nonuniform List<vector> 
192
(
(-101606 73653.5 -67258.6)
(-88165.3 11496.3 -64244.7)
(-89117.1 2788.19 -65451.3)
(-91909.7 2581.23 -67302)
(-95790.7 4310.04 -69829.9)
(-101078 9859.26 -73348.8)
(-105610 29357.6 -76715.3)
(-94700.7 71174.4 -71062.6)
(-98489.8 40291.9 -18420.4)
(-91429.6 6948.48 -23629.2)
(-93153 1673.74 -24516.5)
(-96300.6 1546.86 -25044.6)
(-100798 2832.11 -25747.2)
(-107376 7879.46 -26800.2)
(-114320 28304.7 -28263.6)
(-105739 76882.7 -29306.9)
(-88853.8 31604 -4869.55)
(-83679.3 5400.18 -6603.14)
(-85453.4 1372.79 -6873.25)
(-88540.1 1350.52 -6979.92)
(-93055.3 2554.4 -7104.26)
(-99844.7 7342.9 -7310.67)
(-107550 26851 -7845.09)
(-101379 73604.3 -9799.47)
(-81971.2 28819.2 -1766.15)
(-77263 4944.78 -2331.61)
(-78974.7 1296.96 -2411.65)
(-81996.1 1315.85 -2434.01)
(-86480.4 2501.36 -2454.89)
(-93288.9 7138.64 -2506.38)
(-101214 25815.9 -2776.56)
(-96335.5 70216.6 -4209.87)
(-77734.9 27506.2 -896.76)
(-73215.7 4754.68 -1155.42)
(-74888 1270.39 -1188.02)
(-77875.4 1307.28 -1194.44)
(-82340 2482.04 -1200.1)
(-89133.2 7021.24 -1225.75)
(-97101.4 25147.5 -1393.59)
(-92832.5 67904.6 -2318.54)
(-75176.5 26767 -506.748)
(-70764.4 4653.52 -646.9)
(-72418 1257.94 -663.231)
(-75388.5 1303.77 -665.726)
(-79840.2 2470.05 -668.657)
(-86610.8 6945.15 -685.564)
(-94564.4 24723.2 -791.584)
(-90587.2 66422.8 -1363.05)
(-73706.8 26352.6 -265.176)
(-69356 4598.19 -337.26)
(-71000.7 1251.57 -345.317)
(-73962.6 1301.85 -346.417)
(-78405.4 2462.2 -348.162)
(-85156.5 6898.31 -358.214)
(-93085.3 24470 -417.424)
(-89247.9 65536.3 -730.255)
(-73032.4 26164.6 -82.8318)
(-68709.6 4573.38 -105.188)
(-70350.7 1248.79 -107.644)
(-73308.8 1300.93 -107.97)
(-77746.9 2458.25 -108.569)
(-84487 6875.88 -111.92)
(-92399.9 24351.1 -130.996)
(-88619.9 65119.4 -230.797)
(-63935.4 73653.5 -105028)
(-60531.9 11496.3 -91255.3)
(-61606.7 2788.19 -92317.8)
(-63429.3 2581.23 -95141.1)
(-65958.1 4310.04 -99006.1)
(-69460.8 9859.26 -104279)
(-72697.5 29357.6 -108817)
(-66701.4 71174.4 -97600.5)
(-13373.3 44072.1 -105078)
(-16754.1 7580.34 -97094.6)
(-17369.1 1762.98 -98873.3)
(-17804.5 1566.72 -102031)
(-18399.2 2862.91 -106463)
(-19265.2 8029.5 -112913)
(-20266.8 28928.2 -119550)
(-19948.8 77731 -109654)
(11850.4 43526.2 -102728)
(14887.5 7500.49 -94739)
(15423.3 1737.79 -96430.2)
(15808.2 1551.05 -99518.5)
(16363.8 2849.28 -103897)
(17192.5 7991.74 -110295)
(18078 28674 -116874)
(16931 76222.1 -107106)
(56759.5 70809.9 -98117.2)
(53015.8 11153.2 -84529.5)
(53938.4 2683.75 -85381.4)
(55602.5 2507.21 -88021.7)
(57979.1 4247.18 -91738.1)
(61336.8 9743.78 -96860.3)
(64393.4 28666.7 -101244)
(57971.2 66955.8 -90446.7)
(89336.2 70809.9 -63323.9)
(75646.9 11153.2 -60284.6)
(76388.5 2683.75 -61357.4)
(78928.4 2507.21 -63103.9)
(82557.5 4247.18 -65552.6)
(87601.2 9743.78 -68996.6)
(91882 28666.7 -72290.8)
(80884.8 66955.8 -66896.5)
(86385.9 38524.8 -17870.3)
(79145.9 6751.89 -22936.6)
(80639.2 1610.57 -23791.1)
(83509.6 1490.38 -24306.1)
(87713.1 2773.78 -25006.9)
(93981.9 7758.53 -26067.2)
(100605 27559.9 -27547.1)
(91915.6 72383.1 -28649.1)
(77127.6 30003.1 -4774.43)
(71793.9 5232.51 -6476.17)
(73331.7 1314.18 -6741.05)
(76130.8 1291.33 -6848.1)
(80321.3 2486.12 -6977.71)
(86738.7 7203.63 -7195.94)
(94030.6 26084.8 -7750.06)
(87684.3 69139.9 -9722.06)
(70537.1 27274.2 -1726.47)
(65679.9 4785.26 -2280.33)
(67156.1 1238.64 -2358.95)
(69882.8 1253.73 -2382.41)
(74019.4 2425.94 -2407.07)
(80411.5 6986.18 -2466.3)
(87852.4 25033.8 -2750.03)
(82730.5 65776.5 -4197.02)
(66497.5 25996.3 -871.819)
(61834.3 4600.04 -1123.31)
(63272 1212.1 -1155.06)
(65959.1 1243.2 -1162.34)
(70059.9 2402.23 -1170.41)
(76407.4 6860.67 -1200.75)
(83846.1 24354.1 -1376.88)
(79287.6 63472 -2311.96)
(64060 25279 -491.59)
(59505.9 4502.02 -627.261)
(60924.7 1199.6 -643.076)
(63590.3 1238.38 -646.173)
(67667 2387.54 -650.607)
(73973.3 6779.71 -670.282)
(81370.9 23922.6 -781.184)
(77074.3 61992.3 -1359.17)
(62659.3 24877.4 -257.098)
(58167.5 4448.55 -326.733)
(59577.3 1193.19 -334.505)
(62230.7 1235.67 -335.945)
(66291.7 2378.12 -338.51)
(72567.6 6730.09 -350.038)
(79925.1 23665.2 -411.84)
(75751.2 61106 -728.277)
(62016.1 24695.2 -80.3031)
(57552.9 4424.61 -101.88)
(58959 1190.39 -104.244)
(61606.7 1234.38 -104.679)
(65659.8 2373.44 -105.541)
(71919.6 6706.38 -109.358)
(79254.2 23544.3 -129.254)
(75129.7 60688.9 -230.21)
(-66701.4 97771.4 -71062.6)
(-72772.4 109100 -29306.9)
(-69635.2 104718 -9799.47)
(-66273 99676 -4209.87)
(-63964.3 96185 -2318.54)
(-62490.5 93938.4 -1363.05)
(-61613.8 92591.4 -730.255)
(-61203.3 91957.1 -230.797)
(-19948.8 109802 -77641.6)
(-20281.2 119795 -28901.3)
(-19296 113296 -8001.64)
(-18452.9 107054 -2812.47)
(-17894.8 102980 -1410.16)
(-17543.3 100442 -804.856)
(-17335.9 98948.7 -426.711)
(-17239.3 98251.8 -134.347)
(16931 107231 -76147.5)
(18072.3 117080 -28654.1)
(17183.2 110616 -7971.14)
(16351.8 104397 -2808.69)
(15798.7 100331 -1408.97)
(15450 97797.6 -804.144)
(15244.3 96305.8 -426.314)
(15148.5 95609.6 -134.22)
(57971.2 90545.3 -66896.5)
(64408.1 101409 -28649.1)
(61375.9 97117.5 -9722.06)
(58064.6 92139.6 -4197.02)
(55789.2 88675.8 -2311.96)
(54333.5 86441.3 -1359.17)
(53466 85099.7 -728.277)
(53059.3 84467.5 -230.21)
)
;
    }
    symmetry
    {
        type            symmetry;
    }
    bottom
    {
        type            calculated;
        value           nonuniform List<vector> 
32
(
(-63935.4 127768 -67258.6)
(-61317 68789.4 -18420.4)
(-55302.3 54086.3 -4869.55)
(-51077.5 49311.2 -1766.15)
(-48493.9 47021.8 -896.76)
(-46939.8 45724.1 -506.748)
(-46049.2 44994.8 -265.176)
(-45641.2 44663.4 -82.8318)
(-13373.3 75239 -66223.7)
(-12145 20501.1 -16163.6)
(-10928.1 10584.6 -2889.44)
(-10141.1 8943.3 -517.206)
(-9673.94 8515.73 -156.328)
(-9397.93 8317.99 -76.0648)
(-9241.6 8211.47 -38.5824)
(-9170.44 8163.66 -11.9523)
(11850.4 74274.8 -64880.2)
(11269.5 20209.4 -15975.2)
(10143.7 10374 -2865.63)
(9384.52 8746.87 -511.993)
(8934.39 8325.98 -153.613)
(8669.03 8132.41 -74.4057)
(8518.86 8028.36 -37.6818)
(8450.51 7981.69 -11.6674)
(56759.5 122640 -63323.9)
(54535.4 65579.1 -17870.3)
(48760.1 51159.2 -4774.43)
(44702.2 46481.4 -1726.47)
(42230.6 44253.3 -871.819)
(40745.4 42994.1 -491.59)
(39894.3 42286.9 -257.098)
(39504.1 41965.7 -80.3031)
)
;
    }
}


// ************************************************************************* //
