/*--------------------------------*- C++ -*----------------------------------*\
| =========                 |                                                 |
| \\      /  F ield         | OpenFOAM: The Open Source CFD Toolbox           |
|  \\    /   O peration     | Version:  v1912                                 |
|   \\  /    A nd           | Website:  www.openfoam.com                      |
|    \\/     M anipulation  |                                                 |
\*---------------------------------------------------------------------------*/
FoamFile
{
    version     2.0;
    format      ascii;
    class       pointVectorField;
    location    "0.84/solid";
    object      pointD;
}
// * * * * * * * * * * * * * * * * * * * * * * * * * * * * * * * * * * * * * //

dimensions      [0 1 0 0 0 0 0];


internalField   nonuniform List<vector> 
405
(
(3.95779e-08 4.22813e-08 4.09964e-08)
(8.38115e-09 2.81569e-08 4.41026e-08)
(-3.34961e-11 2.33354e-08 4.15017e-08)
(-8.17344e-09 2.75555e-08 4.30302e-08)
(-3.73103e-08 4.0809e-08 3.97767e-08)
(6.82792e-08 5.25153e-08 7.58128e-08)
(2.32212e-08 4.79039e-08 1.01757e-07)
(1.61045e-10 4.0189e-08 9.63641e-08)
(-2.22538e-08 4.67025e-08 9.96141e-08)
(-6.42092e-08 5.03407e-08 7.39482e-08)
(7.89765e-08 3.08066e-08 9.93092e-08)
(3.08037e-08 3.04769e-08 1.24552e-07)
(6.9045e-10 2.63094e-08 1.18647e-07)
(-2.86835e-08 2.92812e-08 1.22394e-07)
(-7.36172e-08 2.86823e-08 9.74098e-08)
(8.08917e-08 1.18048e-08 1.16016e-07)
(3.16931e-08 1.36278e-08 1.41521e-07)
(1.30047e-09 1.15576e-08 1.35011e-07)
(-2.83556e-08 1.24224e-08 1.39334e-07)
(-7.42717e-08 9.67825e-09 1.14118e-07)
(8.19219e-08 -3.56542e-09 1.31076e-07)
(3.16699e-08 -1.80223e-09 1.57088e-07)
(1.91702e-09 -3.58932e-09 1.50043e-07)
(-2.70956e-08 -3.03895e-09 1.54869e-07)
(-7.40124e-08 -5.73281e-09 1.29166e-07)
(8.58933e-08 -1.83824e-08 1.47159e-07)
(3.35149e-08 -1.77401e-08 1.73967e-07)
(2.52844e-09 -2.0054e-08 1.66489e-07)
(-2.77092e-08 -1.90107e-08 1.71702e-07)
(-7.66953e-08 -2.05854e-08 1.45205e-07)
(9.55544e-08 -3.83288e-08 1.65926e-07)
(3.90561e-08 -3.85326e-08 1.94177e-07)
(3.11645e-09 -4.0797e-08 1.86621e-07)
(-3.20649e-08 -3.98103e-08 1.91852e-07)
(-8.51137e-08 -4.05143e-08 1.63897e-07)
(1.11857e-07 -8.19931e-08 1.86998e-07)
(4.82098e-08 -8.10512e-08 2.18819e-07)
(3.62684e-09 -8.10316e-08 2.12322e-07)
(-4.01632e-08 -8.20457e-08 2.16449e-07)
(-1.00264e-07 -8.37338e-08 1.84893e-07)
(1.09573e-07 -1.39759e-07 1.86415e-07)
(5.35969e-08 -1.49518e-07 1.96732e-07)
(3.99743e-09 -1.46063e-07 1.9272e-07)
(-4.47792e-08 -1.49258e-07 1.95324e-07)
(-9.81688e-08 -1.40045e-07 1.84778e-07)
(3.94388e-08 2.33758e-08 8.35437e-09)
(0 0 0)
(0 0 0)
(0 0 0)
(-3.65316e-08 2.22133e-08 8.25606e-09)
(8.56385e-08 3.69209e-08 2.84999e-08)
(1.95416e-08 1.98624e-08 3.24712e-08)
(2.76259e-10 1.32974e-08 3.21486e-08)
(-1.83964e-08 1.8857e-08 3.23345e-08)
(-7.91577e-08 3.45871e-08 2.82758e-08)
(9.40283e-08 1.77194e-08 4.87492e-08)
(2.5908e-08 1.17041e-08 5.40394e-08)
(8.21118e-10 7.97747e-09 5.37836e-08)
(-2.35929e-08 1.05537e-08 5.39004e-08)
(-8.62487e-08 1.53572e-08 4.8524e-08)
(9.60633e-08 1.01602e-09 6.41352e-08)
(2.66029e-08 -7.25677e-10 6.96191e-08)
(1.42428e-09 -2.57285e-09 6.93213e-08)
(-2.30866e-08 -1.92783e-09 6.95089e-08)
(-8.699e-08 -1.40015e-09 6.39588e-08)
(9.78091e-08 -1.28624e-08 7.77354e-08)
(2.66271e-08 -1.48378e-08 8.31127e-08)
(2.03696e-09 -1.64515e-08 8.26632e-08)
(-2.18811e-08 -1.60733e-08 8.30192e-08)
(-8.73953e-08 -1.53383e-08 7.75844e-08)
(1.02906e-07 -2.61605e-08 9.16336e-08)
(2.85537e-08 -3.07688e-08 9.68454e-08)
(2.65218e-09 -3.29781e-08 9.62096e-08)
(-2.25664e-08 -3.20318e-08 9.67471e-08)
(-9.11366e-08 -2.86726e-08 9.14681e-08)
(1.14407e-07 -4.33153e-08 1.06767e-07)
(3.41961e-08 -5.08396e-08 1.11824e-07)
(3.25224e-09 -5.31511e-08 1.11086e-07)
(-2.6996e-08 -5.21056e-08 1.117e-07)
(-1.01315e-07 -4.57995e-08 1.06548e-07)
(1.34461e-07 -8.182e-08 1.21161e-07)
(4.34346e-08 -8.73783e-08 1.26176e-07)
(3.78273e-09 -8.73357e-08 1.2558e-07)
(-3.51361e-08 -8.83764e-08 1.26015e-07)
(-1.20117e-07 -8.38492e-08 1.20864e-07)
(1.12309e-07 -1.47806e-07 1.29642e-07)
(4.87874e-08 -1.80091e-07 1.31112e-07)
(4.20663e-09 -1.74157e-07 1.30547e-07)
(-3.95774e-08 -1.78855e-07 1.30948e-07)
(-9.98307e-08 -1.47712e-07 1.2935e-07)
(3.14646e-08 1.33209e-08 1.10245e-09)
(0 0 0)
(0 0 0)
(0 0 0)
(-2.86197e-08 1.22882e-08 1.15596e-09)
(6.78985e-08 1.83648e-08 9.47391e-09)
(1.31023e-08 5.69243e-09 1.484e-08)
(2.98824e-10 2.60997e-10 1.61235e-08)
(-1.19416e-08 4.82675e-09 1.49181e-08)
(-6.15707e-08 1.62417e-08 9.61113e-09)
(7.38849e-08 2.62405e-09 2.43157e-08)
(1.7434e-08 -1.93596e-09 3.14134e-08)
(8.48244e-10 -5.08054e-09 3.32278e-08)
(-1.51075e-08 -3.01093e-09 3.15193e-08)
(-6.63006e-08 3.78492e-10 2.45064e-08)
(7.50747e-08 -1.10043e-08 3.85532e-08)
(1.77043e-08 -1.23672e-08 4.60052e-08)
(1.45038e-09 -1.40242e-08 4.79654e-08)
(-1.41843e-08 -1.35398e-08 4.61345e-08)
(-6.6215e-08 -1.33743e-08 3.87846e-08)
(7.64499e-08 -2.27797e-08 5.13601e-08)
(1.76242e-08 -2.46434e-08 5.88273e-08)
(2.06304e-09 -2.62162e-08 6.07803e-08)
(-1.28754e-08 -2.58726e-08 5.89708e-08)
(-6.62442e-08 -2.52503e-08 5.16122e-08)
(8.14277e-08 -3.3785e-08 6.34723e-08)
(1.94879e-08 -3.84129e-08 7.08828e-08)
(2.6818e-09 -4.06432e-08 7.27763e-08)
(-1.34876e-08 -3.96834e-08 7.10243e-08)
(-6.98322e-08 -3.63202e-08 6.37142e-08)
(9.33623e-08 -4.69896e-08 7.47216e-08)
(2.52012e-08 -5.46968e-08 8.20109e-08)
(3.28994e-09 -5.70411e-08 8.38427e-08)
(-1.79654e-08 -5.59846e-08 8.21355e-08)
(-8.03818e-08 -4.95254e-08 7.49242e-08)
(1.15003e-07 -7.8683e-08 8.24744e-08)
(3.47387e-08 -8.4293e-08 8.95768e-08)
(3.83367e-09 -8.41154e-08 9.13775e-08)
(-2.63701e-08 -8.53316e-08 8.96825e-08)
(-1.00694e-07 -8.07944e-08 8.26285e-08)
(9.65837e-08 -1.37984e-07 8.59137e-08)
(4.01863e-08 -1.66742e-07 8.86019e-08)
(4.2782e-09 -1.59757e-07 9.03586e-08)
(-3.08621e-08 -1.65537e-07 8.87219e-08)
(-8.40615e-08 -1.37958e-07 8.60651e-08)
(2.66566e-08 9.39212e-09 8.13747e-10)
(0 0 0)
(0 0 0)
(0 0 0)
(-2.39055e-08 8.41476e-09 8.63092e-10)
(5.71899e-08 1.02996e-08 6.85282e-09)
(9.0666e-09 4.35255e-10 1.02719e-08)
(2.81474e-10 -4.195e-09 1.1483e-08)
(-7.95845e-09 -3.79244e-10 1.03434e-08)
(-5.10667e-08 8.27887e-09 6.99495e-09)
(6.18575e-08 -5.41844e-09 1.84293e-08)
(1.20626e-08 -9.02005e-09 2.29887e-08)
(8.17808e-10 -1.17229e-08 2.46923e-08)
(-9.81691e-09 -1.00508e-08 2.30922e-08)
(-5.4504e-08 -7.58837e-09 1.86363e-08)
(6.28378e-08 -1.82653e-08 3.08408e-08)
(1.21295e-08 -1.94556e-08 3.55833e-08)
(1.41388e-09 -2.09775e-08 3.74222e-08)
(-8.70288e-09 -2.06034e-08 3.5704e-08)
(-5.42202e-08 -2.05962e-08 3.10808e-08)
(6.42848e-08 -2.85501e-08 4.238e-08)
(1.20964e-08 -3.04559e-08 4.70523e-08)
(2.02564e-09 -3.20253e-08 4.88964e-08)
(-7.44227e-09 -3.16792e-08 4.71812e-08)
(-5.43159e-08 -3.10156e-08 4.26329e-08)
(6.94419e-08 -3.71948e-08 5.26206e-08)
(1.4025e-08 -4.19233e-08 5.71851e-08)
(2.64735e-09 -4.41955e-08 5.89944e-08)
(-8.11094e-09 -4.32039e-08 5.7312e-08)
(-5.8056e-08 -3.97546e-08 5.28651e-08)
(8.17395e-08 -4.71102e-08 6.07686e-08)
(1.98226e-08 -5.49451e-08 6.52351e-08)
(3.26174e-09 -5.73544e-08 6.7e-08)
(-1.26554e-08 -5.62565e-08 6.53518e-08)
(-6.89175e-08 -4.9696e-08 6.09867e-08)
(1.03863e-07 -7.47858e-08 6.49409e-08)
(2.94408e-08 -8.05619e-08 6.93734e-08)
(3.81484e-09 -8.04897e-08 7.1111e-08)
(-2.11151e-08 -8.16333e-08 6.94813e-08)
(-8.96463e-08 -7.69632e-08 6.51305e-08)
(8.72674e-08 -1.305e-07 6.59192e-08)
(3.5002e-08 -1.57878e-07 6.79098e-08)
(4.27371e-09 -1.50965e-07 6.97409e-08)
(-2.56886e-08 -1.56721e-07 6.80303e-08)
(-7.47795e-08 -1.30543e-07 6.60957e-08)
(2.41852e-08 7.91284e-09 1.13991e-09)
(0 0 0)
(0 0 0)
(0 0 0)
(-2.15075e-08 6.9685e-09 1.17466e-09)
(5.17167e-08 7.20232e-09 6.40714e-09)
(7.35562e-09 -1.36009e-09 8.02772e-09)
(2.61773e-10 -5.54621e-09 8.74731e-09)
(-6.30163e-09 -2.15306e-09 8.07947e-09)
(-4.57629e-08 5.24249e-09 6.51571e-09)
(5.58352e-08 -8.79734e-09 1.55287e-08)
(9.80067e-09 -1.19832e-08 1.76688e-08)
(7.81e-10 -1.44441e-08 1.86785e-08)
(-7.64398e-09 -1.29915e-08 1.77489e-08)
(-4.86848e-08 -1.09203e-08 1.56968e-08)
(5.69239e-08 -2.16147e-08 2.54911e-08)
(9.87614e-09 -2.28123e-08 2.76478e-08)
(1.36768e-09 -2.42718e-08 2.87262e-08)
(-6.55596e-09 -2.3945e-08 2.77424e-08)
(-4.85235e-08 -2.39185e-08 2.56893e-08)
(5.86338e-08 -3.11403e-08 3.49191e-08)
(9.98893e-09 -3.31661e-08 3.69509e-08)
(1.97661e-09 -3.47515e-08 3.80156e-08)
(-5.44585e-09 -3.43854e-08 3.70512e-08)
(-4.88806e-08 -3.36013e-08 3.51283e-08)
(6.40487e-08 -3.83305e-08 4.29703e-08)
(1.20432e-08 -4.31638e-08 4.48802e-08)
(2.59995e-09 -4.54746e-08 4.59111e-08)
(-6.23508e-09 -4.44519e-08 4.49793e-08)
(-5.28606e-08 -4.09079e-08 4.31747e-08)
(7.6536e-08 -4.64943e-08 4.87745e-08)
(1.78865e-08 -5.43868e-08 5.06319e-08)
(3.21891e-09 -5.68623e-08 5.16338e-08)
(-1.08126e-08 -5.57151e-08 5.07251e-08)
(-6.38764e-08 -4.91154e-08 4.89627e-08)
(9.8641e-08 -7.23089e-08 5.13138e-08)
(2.74415e-08 -7.82376e-08 5.32359e-08)
(3.77862e-09 -7.8339e-08 5.42398e-08)
(-1.91912e-08 -7.93305e-08 5.33249e-08)
(-8.4538e-08 -7.45303e-08 5.1485e-08)
(8.31242e-08 -1.25973e-07 5.14845e-08)
(3.30757e-08 -1.52623e-07 5.24338e-08)
(4.24682e-09 -1.46064e-07 5.35641e-08)
(-2.38163e-08 -1.51496e-07 5.25313e-08)
(-7.07074e-08 -1.26061e-07 5.16389e-08)
(2.29507e-08 7.33272e-09 1.12781e-09)
(0 0 0)
(0 0 0)
(0 0 0)
(-2.0322e-08 6.41157e-09 1.15093e-09)
(4.90693e-08 6.08353e-09 5.41191e-09)
(6.78958e-09 -1.97991e-09 6.07636e-09)
(2.47021e-10 -5.95256e-09 6.42549e-09)
(-5.77575e-09 -2.75966e-09 6.11219e-09)
(-4.32326e-08 4.16621e-09 5.48751e-09)
(5.30723e-08 -9.92095e-09 1.22289e-08)
(9.1043e-09 -1.29964e-08 1.30661e-08)
(7.51641e-10 -1.53527e-08 1.35486e-08)
(-7.01775e-09 -1.39915e-08 1.31238e-08)
(-4.60689e-08 -1.20111e-08 1.2351e-08)
(5.43592e-08 -2.27237e-08 1.95666e-08)
(9.275e-09 -2.40032e-08 2.03476e-08)
(1.32879e-09 -2.54499e-08 2.08499e-08)
(-6.04293e-09 -2.51268e-08 2.04172e-08)
(-4.6121e-08 -2.50079e-08 1.97145e-08)
(5.63329e-08 -3.19222e-08 2.65294e-08)
(9.53542e-09 -3.40674e-08 2.71929e-08)
(1.9337e-09 -3.56763e-08 2.76728e-08)
(-5.08748e-09 -3.52842e-08 2.72674e-08)
(-4.6744e-08 -3.43788e-08 2.66878e-08)
(6.19567e-08 -3.84832e-08 3.236e-08)
(1.16971e-08 -4.33886e-08 3.29301e-08)
(2.55719e-09 -4.57275e-08 3.33825e-08)
(-5.98256e-09 -4.46813e-08 3.30044e-08)
(-5.09226e-08 -4.10709e-08 3.25171e-08)
(7.45097e-08 -4.59802e-08 3.63814e-08)
(1.75481e-08 -5.38803e-08 3.69351e-08)
(3.17897e-09 -5.6399e-08 3.73731e-08)
(-1.056e-08 -5.52188e-08 3.70062e-08)
(-6.19821e-08 -4.86232e-08 3.65293e-08)
(9.64447e-08 -7.10132e-08 3.80913e-08)
(2.70056e-08 -7.7022e-08 3.87288e-08)
(3.74309e-09 -7.72506e-08 3.91813e-08)
(-1.88294e-08 -7.81279e-08 3.87977e-08)
(-8.2443e-08 -7.3262e-08 3.82294e-08)
(8.15607e-08 -1.23439e-07 3.8115e-08)
(3.26637e-08 -1.49621e-07 3.84314e-08)
(4.21719e-09 -1.43357e-07 3.89762e-08)
(-2.34649e-08 -1.48511e-07 3.85056e-08)
(-6.92169e-08 -1.23555e-07 3.82375e-08)
(2.23179e-08 7.09418e-09 8.53119e-10)
(0 0 0)
(0 0 0)
(0 0 0)
(-1.97191e-08 6.1883e-09 8.67276e-10)
(4.77661e-08 5.70565e-09 3.84275e-09)
(6.62691e-09 -2.18224e-09 4.102e-09)
(2.37277e-10 -6.05855e-09 4.25419e-09)
(-5.63918e-09 -2.95304e-09 4.12468e-09)
(-4.20021e-08 3.81701e-09 3.89005e-09)
(5.18015e-08 -1.01541e-08 8.37051e-09)
(8.9505e-09 -1.32311e-08 8.66855e-09)
(7.31482e-10 -1.555e-08 8.87258e-09)
(-6.91148e-09 -1.42174e-08 8.70588e-09)
(-4.48922e-08 -1.22213e-08 8.44881e-09)
(5.32592e-08 -2.2869e-08 1.3153e-08)
(9.2154e-09 -2.42313e-08 1.33912e-08)
(1.301e-09 -2.56849e-08 1.35946e-08)
(-6.04543e-09 -2.53489e-08 1.3437e-08)
(-4.51275e-08 -2.5139e-08 1.32499e-08)
(5.54216e-08 -3.19361e-08 1.76724e-08)
(9.58145e-09 -3.41669e-08 1.78299e-08)
(1.90198e-09 -3.57963e-08 1.80144e-08)
(-5.20276e-09 -3.53818e-08 1.78794e-08)
(-4.59428e-08 -3.43882e-08 1.77778e-08)
(6.11761e-08 -3.83144e-08 2.14246e-08)
(1.18106e-08 -4.32591e-08 2.15261e-08)
(2.52471e-09 -4.56148e-08 2.16932e-08)
(-6.16605e-09 -4.45542e-08 2.15761e-08)
(-5.02473e-08 -4.09072e-08 2.15307e-08)
(7.37368e-08 -4.56565e-08 2.39814e-08)
(1.7653e-08 -5.35421e-08 2.40833e-08)
(3.14789e-09 -5.6081e-08 2.42452e-08)
(-1.07308e-08 -5.48863e-08 2.41317e-08)
(-6.13019e-08 -4.83118e-08 2.4083e-08)
(9.55083e-08 -7.0382e-08 2.50971e-08)
(2.70298e-08 -7.64137e-08 2.52633e-08)
(3.71463e-09 -7.67097e-08 2.54392e-08)
(-1.89127e-08 -7.75271e-08 2.53107e-08)
(-8.15809e-08 -7.26466e-08 2.51933e-08)
(8.09769e-08 -1.22074e-07 2.51328e-08)
(3.26821e-08 -1.47937e-07 2.51999e-08)
(4.1922e-09 -1.41845e-07 2.54268e-08)
(-2.35343e-08 -1.46836e-07 2.52502e-08)
(-6.86912e-08 -1.22204e-07 2.52176e-08)
(2.20068e-08 6.99616e-09 4.50719e-10)
(0 0 0)
(0 0 0)
(0 0 0)
(-1.94239e-08 6.09881e-09 4.57455e-10)
(4.71407e-08 5.59143e-09 1.97728e-09)
(6.57823e-09 -2.23387e-09 2.06948e-09)
(2.31801e-10 -6.0689e-09 2.12593e-09)
(-5.60497e-09 -2.99941e-09 2.0805e-09)
(-4.1416e-08 3.71925e-09 2e-09)
(5.12186e-08 -1.01285e-08 4.23232e-09)
(8.9272e-09 -1.32251e-08 4.32852e-09)
(7.19901e-10 -1.55327e-08 4.40169e-09)
(-6.91515e-09 -1.42062e-08 4.34683e-09)
(-4.43611e-08 -1.21819e-08 4.27038e-09)
(5.27798e-08 -2.27542e-08 6.58338e-09)
(9.25121e-09 -2.41697e-08 6.64589e-09)
(1.28462e-09 -2.5632e-08 6.71545e-09)
(-6.11742e-09 -2.52838e-08 6.66857e-09)
(-4.47077e-08 -2.50152e-08 6.63106e-09)
(5.50476e-08 -3.17706e-08 8.79504e-09)
(9.67597e-09 -3.40491e-08 8.81838e-09)
(1.88283e-09 -3.56915e-08 8.87787e-09)
(-5.33859e-09 -3.52628e-08 8.84316e-09)
(-4.56314e-08 -3.42193e-08 8.84754e-09)
(6.08688e-08 -3.81286e-08 1.06256e-08)
(1.19393e-08 -4.3091e-08 1.0624e-08)
(2.50471e-09 -4.54547e-08 1.06754e-08)
(-6.33727e-09 -4.43871e-08 1.06492e-08)
(-5.00007e-08 -4.07233e-08 1.0679e-08)
(7.34216e-08 -4.54786e-08 1.1873e-08)
(1.77722e-08 -5.33484e-08 1.18746e-08)
(3.12842e-09 -5.58943e-08 1.19249e-08)
(-1.08908e-08 -5.46955e-08 1.18992e-08)
(-6.10412e-08 -4.814e-08 1.19247e-08)
(9.50874e-08 -7.00951e-08 1.24328e-08)
(2.70997e-08 -7.61256e-08 1.24677e-08)
(3.69648e-09 -7.64498e-08 1.25258e-08)
(-1.90199e-08 -7.72427e-08 1.24918e-08)
(-8.1205e-08 -7.23677e-08 1.24821e-08)
(8.07327e-08 -1.21401e-07 1.24672e-08)
(3.27389e-08 -1.47074e-07 1.24715e-08)
(4.17582e-09 -1.41061e-07 1.25508e-08)
(-2.36243e-08 -1.45978e-07 1.24969e-08)
(-6.84836e-08 -1.21539e-07 1.25105e-08)
(1.77957e-08 7.15477e-09 0)
(2.2859e-09 1.5012e-09 0)
(7.90653e-12 -8.11152e-10 0)
(-2.05035e-09 1.18813e-09 0)
(-1.57736e-08 6.20815e-09 0)
(2.98874e-08 3.49888e-09 0)
(6.56598e-09 -2.2411e-09 0)
(2.30041e-10 -6.06448e-09 0)
(-5.59734e-09 -3.0049e-09 0)
(-2.62926e-08 1.95384e-09 0)
(3.37974e-08 -1.06131e-08 0)
(8.92463e-09 -1.32027e-08 0)
(7.1614e-10 -1.55081e-08 0)
(-6.9213e-09 -1.41821e-08 0)
(-2.90897e-08 -1.23859e-08 0)
(3.47923e-08 -2.28089e-08 0)
(9.26792e-09 -2.41214e-08 0)
(1.27924e-09 -2.55871e-08 0)
(-6.14597e-09 -2.52343e-08 0)
(-2.89231e-08 -2.47768e-08 0)
(3.62277e-08 -3.21653e-08 0)
(9.71107e-09 -3.39848e-08 0)
(1.87646e-09 -3.56314e-08 0)
(-5.38736e-09 -3.5198e-08 0)
(-2.90825e-08 -3.4301e-08 0)
(4.07597e-08 -3.95172e-08 0)
(1.19846e-08 -4.30221e-08 0)
(2.49798e-09 -4.5388e-08 0)
(-6.39678e-09 -4.43185e-08 0)
(-3.22458e-08 -4.17877e-08 0)
(5.12717e-08 -4.82483e-08 0)
(1.78137e-08 -5.32845e-08 0)
(3.12181e-09 -5.58319e-08 0)
(-1.09462e-08 -5.46325e-08 0)
(-4.13448e-08 -5.05896e-08 0)
(6.91568e-08 -7.29989e-08 0)
(2.71249e-08 -7.60395e-08 0)
(3.69026e-09 -7.63709e-08 0)
(-1.90578e-08 -7.71577e-08 0)
(-5.78463e-08 -7.49768e-08 0)
(7.09723e-08 -1.12388e-07 0)
(3.25872e-08 -1.19857e-07 0)
(4.06027e-09 -1.16037e-07 0)
(-2.37203e-08 -1.19747e-07 0)
(-5.96944e-08 -1.12923e-07 0)
)
;

boundaryField
{
    interface
    {
        type            calculated;
    }
    symmetry
    {
        type            symmetry;
    }
    bottom
    {
        type            calculated;
    }
}


// ************************************************************************* //
