/*--------------------------------*- C++ -*----------------------------------*\
| =========                 |                                                 |
| \\      /  F ield         | OpenFOAM: The Open Source CFD Toolbox           |
|  \\    /   O peration     | Version:  v1912                                 |
|   \\  /    A nd           | Website:  www.openfoam.com                      |
|    \\/     M anipulation  |                                                 |
\*---------------------------------------------------------------------------*/
FoamFile
{
    version     2.0;
    format      ascii;
    class       volScalarField;
    location    "0.84/solid";
    object      T;
}
// * * * * * * * * * * * * * * * * * * * * * * * * * * * * * * * * * * * * * //

dimensions      [0 0 0 1 0 0 0];


internalField   nonuniform List<scalar> 
256
(
291.403
292.06
292.072
291.467
290.914
291.737
291.752
290.993
290.828
291.68
291.697
290.909
290.775
291.649
291.665
290.858
290.699
291.602
291.619
290.784
290.56
291.506
291.523
290.646
290.206
291.201
291.219
290.297
289.092
290.059
290.089
289.213
292.14
292.744
292.747
292.18
291.845
292.626
292.63
291.894
291.793
292.606
292.611
291.843
291.762
292.597
292.602
291.813
291.715
292.583
292.588
291.768
291.62
292.538
292.543
291.674
291.321
292.308
292.315
291.38
290.205
291.2
291.219
290.296
292.324
292.868
292.87
292.361
292.096
292.805
292.808
292.139
292.054
292.794
292.797
292.099
292.027
292.788
292.792
292.074
291.986
292.779
292.783
292.034
291.9
292.744
292.748
291.949
291.619
292.538
292.543
291.674
290.557
291.504
291.522
290.645
292.384
292.888
292.891
292.419
292.175
292.835
292.838
292.217
292.136
292.825
292.829
292.18
292.111
292.821
292.824
292.155
292.071
292.813
292.816
292.117
291.986
292.779
292.783
292.034
291.714
292.582
292.588
291.768
290.695
291.6
291.617
290.782
292.412
292.894
292.896
292.447
292.212
292.843
292.845
292.253
292.174
292.833
292.836
292.217
292.149
292.829
292.832
292.193
292.109
292.821
292.824
292.155
292.025
292.788
292.792
292.073
291.758
292.596
292.601
291.812
290.767
291.645
291.662
290.855
292.428
292.896
292.898
292.463
292.233
292.846
292.849
292.273
292.196
292.837
292.84
292.237
292.17
292.833
292.836
292.213
292.131
292.824
292.828
292.176
292.047
292.792
292.796
292.094
291.783
292.603
292.608
291.837
290.811
291.67
291.688
290.898
292.438
292.897
292.9
292.471
292.245
292.848
292.851
292.285
292.208
292.839
292.842
292.249
292.182
292.835
292.838
292.225
292.143
292.826
292.83
292.187
292.059
292.794
292.798
292.106
291.798
292.607
292.612
291.851
290.836
291.685
291.702
290.923
292.442
292.898
292.9
292.475
292.25
292.849
292.851
292.29
292.213
292.84
292.843
292.254
292.188
292.835
292.838
292.23
292.148
292.827
292.83
292.192
292.065
292.795
292.799
292.112
291.804
292.609
292.614
291.857
290.847
291.692
291.709
290.934
)
;

boundaryField
{
    interface
    {
        type            fixedValue;
        value           nonuniform List<scalar> 
192
(
290.132
289.808
289.709
289.62
289.495
289.289
288.878
287.901
290.907
290.698
290.623
290.552
290.449
290.271
289.884
288.875
291.212
291.047
290.982
290.916
290.819
290.646
290.268
289.283
291.358
291.207
291.146
291.082
290.986
290.815
290.442
289.484
291.44
291.295
291.235
291.172
291.076
290.906
290.539
289.601
291.488
291.346
291.288
291.225
291.129
290.96
290.596
289.672
291.515
291.376
291.317
291.255
291.159
290.991
290.629
289.714
291.528
291.389
291.331
291.268
291.173
291.005
290.644
289.733
290.09
289.77
289.67
289.581
289.456
289.25
288.838
287.865
290.746
290.52
290.44
290.369
290.266
290.088
289.699
288.681
290.787
290.565
290.487
290.417
290.316
290.139
289.752
288.744
290.242
289.934
289.84
289.755
289.634
289.431
289.026
288.079
290.352
290.046
289.952
289.869
289.749
289.547
289.144
288.198
291.101
290.903
290.832
290.766
290.669
290.496
290.118
289.143
291.398
291.241
291.181
291.121
291.029
290.863
290.495
289.545
291.539
291.396
291.34
291.281
291.191
291.027
290.666
289.745
291.617
291.48
291.425
291.368
291.278
291.116
290.761
289.861
291.663
291.53
291.476
291.418
291.329
291.168
290.817
289.932
291.69
291.558
291.504
291.447
291.358
291.198
290.849
289.973
291.702
291.571
291.517
291.46
291.371
291.211
290.864
289.993
287.863
288.834
289.242
289.443
289.56
289.631
289.673
289.693
288.68
289.695
290.082
290.257
290.353
290.41
290.443
290.459
288.742
289.749
290.134
290.308
290.404
290.461
290.494
290.51
288.077
289.024
289.427
289.627
289.743
289.814
289.856
289.876
)
;
    }
    symmetry
    {
        type            symmetry;
    }
    bottom
    {
        type            fixedValue;
        value           uniform 293;
    }
}


// ************************************************************************* //
