/*--------------------------------*- C++ -*----------------------------------*\
| =========                 |                                                 |
| \\      /  F ield         | OpenFOAM: The Open Source CFD Toolbox           |
|  \\    /   O peration     | Version:  v1912                                 |
|   \\  /    A nd           | Website:  www.openfoam.com                      |
|    \\/     M anipulation  |                                                 |
\*---------------------------------------------------------------------------*/
FoamFile
{
    version     2.0;
    format      ascii;
    class       volVectorField;
    location    "0.66/solid";
    object      D_0;
}
// * * * * * * * * * * * * * * * * * * * * * * * * * * * * * * * * * * * * * //

dimensions      [0 1 0 0 0 0 0];


internalField   nonuniform List<vector> 
256
(
(2.53957e-08 3.70437e-08 2.75126e-08)
(3.05958e-09 2.15313e-08 2.4937e-08)
(-2.76607e-09 2.12357e-08 2.49048e-08)
(-2.44182e-08 3.57773e-08 2.74881e-08)
(4.11076e-08 2.88356e-08 5.20439e-08)
(8.14683e-09 1.95936e-08 4.86587e-08)
(-6.55895e-09 1.90833e-08 4.87234e-08)
(-3.86126e-08 2.71076e-08 5.23212e-08)
(4.32608e-08 1.52405e-08 6.50361e-08)
(9.54006e-09 1.15966e-08 6.14287e-08)
(-6.37419e-09 1.09364e-08 6.15958e-08)
(-3.9201e-08 1.31603e-08 6.56062e-08)
(4.28717e-08 3.44567e-09 7.50093e-08)
(9.67757e-09 1.43895e-09 7.10688e-08)
(-4.7692e-09 6.53779e-10 7.13102e-08)
(-3.70754e-08 1.02455e-09 7.5795e-08)
(4.3755e-08 -7.59739e-09 8.49033e-08)
(1.02829e-08 -1.02817e-08 8.05726e-08)
(-3.47817e-09 -1.11845e-08 8.08663e-08)
(-3.60528e-08 -1.03467e-08 8.58436e-08)
(4.78378e-08 -1.97098e-08 9.62466e-08)
(1.22399e-08 -2.37106e-08 9.15525e-08)
(-3.39065e-09 -2.47321e-08 9.18844e-08)
(-3.80877e-08 -2.27827e-08 9.73015e-08)
(5.72044e-08 -3.85599e-08 1.10173e-07)
(1.60916e-08 -4.1819e-08 1.05488e-07)
(-5.08287e-09 -4.29466e-08 1.05848e-07)
(-4.53097e-08 -4.19284e-08 1.11311e-07)
(7.08262e-08 -8.78824e-08 1.24728e-07)
(2.03292e-08 -8.46798e-08 1.20892e-07)
(-7.16727e-09 -8.56994e-08 1.21261e-07)
(-5.6758e-08 -9.10209e-08 1.25901e-07)
(1.77927e-08 1.70584e-08 4.93217e-09)
(1.5257e-09 4.33464e-09 6.14198e-09)
(-1.31134e-09 4.11737e-09 6.23634e-09)
(-1.68937e-08 1.60237e-08 5.20585e-09)
(2.90601e-08 1.21029e-08 2.00726e-08)
(5.14859e-09 4.36058e-09 2.24243e-08)
(-3.80247e-09 3.86863e-09 2.26317e-08)
(-2.68376e-08 1.04575e-08 2.06741e-08)
(3.03023e-08 3.26892e-09 3.24774e-08)
(6.16116e-09 1.00582e-10 3.52219e-08)
(-3.39044e-09 -5.68459e-10 3.55175e-08)
(-2.66841e-08 1.19767e-09 3.33349e-08)
(2.96477e-08 -6.10252e-09 4.22912e-08)
(6.22288e-09 -7.95632e-09 4.50934e-08)
(-1.83831e-09 -8.75452e-09 4.54574e-08)
(-2.44231e-08 -8.53246e-09 4.33488e-08)
(3.02901e-08 -1.59634e-08 5.13577e-08)
(6.76806e-09 -1.85835e-08 5.4096e-08)
(-5.89275e-10 -1.94974e-08 5.45111e-08)
(-2.32552e-08 -1.87235e-08 5.25653e-08)
(3.4177e-08 -2.67359e-08 6.07862e-08)
(8.66548e-09 -3.07472e-08 6.34337e-08)
(-5.21422e-10 -3.17769e-08 6.38861e-08)
(-2.51621e-08 -2.98183e-08 6.21034e-08)
(4.36373e-08 -4.17919e-08 7.01051e-08)
(1.25095e-08 -4.50131e-08 7.27259e-08)
(-2.26325e-09 -4.61462e-08 7.32019e-08)
(-3.25237e-08 -4.51668e-08 7.14925e-08)
(5.78981e-08 -8.17868e-08 7.5393e-08)
(1.67743e-08 -7.77607e-08 7.80635e-08)
(-4.40614e-09 -7.87818e-08 7.85452e-08)
(-4.46411e-08 -8.49206e-08 7.68003e-08)
(1.26983e-08 1.09647e-08 2.35433e-09)
(1.969e-10 2.64945e-10 3.95771e-09)
(-7.07371e-11 7.66356e-11 4.0297e-09)
(-1.19066e-08 1.00446e-08 2.55976e-09)
(2.07393e-08 3.55749e-09 1.23984e-08)
(2.44417e-09 -2.88486e-09 1.54222e-08)
(-1.35115e-09 -3.34201e-09 1.55889e-08)
(-1.87883e-08 2.04154e-09 1.28763e-08)
(2.14054e-08 -4.90185e-09 2.31232e-08)
(3.09507e-09 -7.62083e-09 2.66055e-08)
(-7.1761e-10 -8.26295e-09 2.68413e-08)
(-1.8198e-08 -6.87057e-09 2.38037e-08)
(2.06968e-08 -1.29918e-08 3.26246e-08)
(3.10107e-09 -1.47508e-08 3.62144e-08)
(7.74247e-10 -1.55296e-08 3.65051e-08)
(-1.59975e-08 -1.53452e-08 3.34677e-08)
(2.12922e-08 -2.11611e-08 4.11173e-08)
(3.60748e-09 -2.37896e-08 4.47096e-08)
(1.96843e-09 -2.46886e-08 4.50438e-08)
(-1.48718e-08 -2.38631e-08 4.20894e-08)
(2.51816e-08 -2.95129e-08 4.88393e-08)
(5.46724e-09 -3.35642e-08 5.24025e-08)
(2.00092e-09 -3.45815e-08 5.27695e-08)
(-1.68462e-08 -3.25495e-08 4.99084e-08)
(3.47738e-08 -4.09704e-08 5.48081e-08)
(9.30563e-09 -4.42322e-08 5.8335e-08)
(2.09818e-10 -4.53536e-08 5.8722e-08)
(-2.43844e-08 -4.43057e-08 5.59382e-08)
(4.91529e-08 -7.62885e-08 5.65017e-08)
(1.35747e-08 -7.22825e-08 6.00202e-08)
(-1.97844e-09 -7.32902e-08 6.04101e-08)
(-3.66517e-08 -7.93777e-08 5.76449e-08)
(1.04164e-08 9.0945e-09 2.26766e-09)
(-3.54647e-10 -4.51659e-10 3.2836e-09)
(4.24058e-10 -6.27609e-10 3.33326e-09)
(-9.71379e-09 8.23969e-09 2.41175e-09)
(1.69171e-08 1.20356e-10 9.70972e-09)
(1.20773e-09 -5.55478e-09 1.16467e-08)
(-3.01447e-10 -5.98282e-09 1.17686e-08)
(-1.51881e-08 -1.28904e-09 1.00618e-08)
(1.73951e-08 -9.09811e-09 1.82536e-08)
(1.67889e-09 -1.15453e-08 2.04841e-08)
(3.9269e-10 -1.21545e-08 2.0659e-08)
(-1.45225e-08 -1.09565e-08 1.87623e-08)
(1.68116e-08 -1.68826e-08 2.64335e-08)
(1.69012e-09 -1.86008e-08 2.87156e-08)
(1.77879e-09 -1.93497e-08 2.89331e-08)
(-1.2544e-08 -1.91384e-08 2.70698e-08)
(1.75263e-08 -2.38654e-08 3.36981e-08)
(2.21343e-09 -2.65195e-08 3.59633e-08)
(2.87407e-09 -2.73932e-08 3.62156e-08)
(-1.16164e-08 -2.6486e-08 3.44393e-08)
(2.1509e-08 -3.04394e-08 3.96929e-08)
(4.07114e-09 -3.45297e-08 4.19288e-08)
(2.84357e-09 -3.55254e-08 4.22082e-08)
(-1.37445e-08 -3.34089e-08 4.05155e-08)
(3.11233e-08 -3.99872e-08 4.36303e-08)
(7.87757e-09 -4.33546e-08 4.58473e-08)
(1.03295e-09 -4.44571e-08 4.61432e-08)
(-2.13486e-08 -4.32657e-08 4.45048e-08)
(4.53547e-08 -7.33533e-08 4.44454e-08)
(1.21042e-08 -6.97188e-08 4.67127e-08)
(-1.15573e-09 -7.07097e-08 4.701e-08)
(-3.35017e-08 -7.63903e-08 4.53296e-08)
(9.54297e-09 8.32922e-09 2.08685e-09)
(-4.85566e-10 -6.35847e-10 2.59528e-09)
(5.20903e-10 -8.03292e-10 2.62963e-09)
(-8.90161e-09 7.5206e-09 2.18694e-09)
(1.54934e-08 -1.15675e-09 7.72282e-09)
(8.52015e-10 -6.45825e-09 8.69129e-09)
(-7.0774e-11 -6.86404e-09 8.77777e-09)
(-1.39231e-08 -2.48539e-09 7.97328e-09)
(1.59907e-08 -1.08358e-08 1.41324e-08)
(1.27549e-09 -1.31643e-08 1.52378e-08)
(5.79265e-10 -1.37455e-08 1.53637e-08)
(-1.33638e-08 -1.26025e-08 1.44992e-08)
(1.55725e-08 -1.86225e-08 2.04669e-08)
(1.31818e-09 -2.0341e-08 2.15776e-08)
(1.85234e-09 -2.1062e-08 2.17352e-08)
(-1.16285e-08 -2.07901e-08 2.09299e-08)
(1.64339e-08 -2.50465e-08 2.60957e-08)
(1.87319e-09 -2.77269e-08 2.71777e-08)
(2.84741e-09 -2.85754e-08 2.7362e-08)
(-1.09136e-08 -2.75892e-08 2.66397e-08)
(2.04932e-08 -3.07737e-08 3.05249e-08)
(3.73262e-09 -3.48872e-08 3.15841e-08)
(2.7594e-09 -3.5861e-08 3.17894e-08)
(-1.31711e-08 -3.36772e-08 3.11332e-08)
(3.00529e-08 -3.95868e-08 3.3253e-08)
(7.49293e-09 -4.30352e-08 3.43151e-08)
(9.49371e-10 -4.4119e-08 3.45333e-08)
(-2.0761e-08 -4.28098e-08 3.39031e-08)
(4.40945e-08 -7.20421e-08 3.39203e-08)
(1.1667e-08 -6.87293e-08 3.50465e-08)
(-1.22525e-09 -6.97045e-08 3.52655e-08)
(-3.27564e-08 -7.50316e-08 3.45781e-08)
(9.20508e-09 7.95288e-09 1.64622e-09)
(-4.88045e-10 -7.27237e-10 1.87762e-09)
(5.03011e-10 -8.88416e-10 1.90039e-09)
(-8.60239e-09 7.17636e-09 1.7122e-09)
(1.50023e-08 -1.6134e-09 5.65995e-09)
(8.0235e-10 -6.75056e-09 6.09246e-09)
(-1.01169e-10 -7.1402e-09 6.15036e-09)
(-1.35357e-08 -2.88426e-09 5.82686e-09)
(1.55786e-08 -1.1409e-08 1.0102e-08)
(1.23e-09 -1.37005e-08 1.05846e-08)
(4.79901e-10 -1.42607e-08 1.06695e-08)
(-1.31174e-08 -1.31078e-08 1.03487e-08)
(1.52932e-08 -1.92151e-08 1.45137e-08)
(1.30221e-09 -2.09501e-08 1.49843e-08)
(1.66266e-09 -2.16494e-08 1.50914e-08)
(-1.15729e-08 -2.13146e-08 1.48277e-08)
(1.6262e-08 -2.54616e-08 1.84358e-08)
(1.87965e-09 -2.81613e-08 1.88822e-08)
(2.58231e-09 -2.89894e-08 1.90081e-08)
(-1.10164e-08 -2.79419e-08 1.88074e-08)
(2.03601e-08 -3.09293e-08 2.14762e-08)
(3.73463e-09 -3.50491e-08 2.1911e-08)
(2.45438e-09 -3.60049e-08 2.20518e-08)
(-1.3355e-08 -3.37787e-08 2.18942e-08)
(2.98499e-08 -3.95487e-08 2.33401e-08)
(7.45281e-09 -4.30317e-08 2.37882e-08)
(6.49636e-10 -4.41001e-08 2.39384e-08)
(-2.09087e-08 -4.27261e-08 2.37888e-08)
(4.37373e-08 -7.15277e-08 2.39137e-08)
(1.15827e-08 -6.83972e-08 2.44119e-08)
(-1.51187e-09 -6.93596e-08 2.45626e-08)
(-3.27774e-08 -7.44788e-08 2.43683e-08)
(9.05672e-09 7.76815e-09 1.04163e-09)
(-4.73524e-10 -7.71929e-10 1.14018e-09)
(4.7702e-10 -9.29019e-10 1.15324e-09)
(-8.47645e-09 7.01164e-09 1.07919e-09)
(1.48141e-08 -1.76147e-09 3.45391e-09)
(8.12238e-10 -6.82906e-09 3.63295e-09)
(-1.58278e-10 -7.20819e-09 3.66628e-09)
(-1.34088e-08 -2.99531e-09 3.54941e-09)
(1.54554e-08 -1.15357e-08 6.06459e-09)
(1.25165e-09 -1.38205e-08 6.25838e-09)
(3.70264e-10 -1.43671e-08 6.30749e-09)
(-1.30948e-08 -1.31901e-08 6.20659e-09)
(1.52527e-08 -1.93387e-08 8.64637e-09)
(1.3422e-09 -2.10892e-08 8.82878e-09)
(1.49477e-09 -2.17739e-08 8.89099e-09)
(-1.16712e-08 -2.13926e-08 8.82813e-09)
(1.62825e-08 -2.55617e-08 1.09408e-08)
(1.93038e-09 -2.82722e-08 1.11091e-08)
(2.36773e-09 -2.90865e-08 1.11825e-08)
(-1.12104e-08 -2.79995e-08 1.1157e-08)
(2.03949e-08 -3.10088e-08 1.27178e-08)
(3.77838e-09 -3.51259e-08 1.28823e-08)
(2.21599e-09 -3.60694e-08 1.29647e-08)
(-1.35926e-08 -3.38208e-08 1.29621e-08)
(2.98314e-08 -3.96209e-08 1.38225e-08)
(7.46719e-09 -4.31099e-08 1.39993e-08)
(4.14739e-10 -4.41677e-08 1.40873e-08)
(-2.11171e-08 -4.27666e-08 1.40856e-08)
(4.36168e-08 -7.13549e-08 1.42153e-08)
(1.15667e-08 -6.83047e-08 1.44216e-08)
(-1.73811e-09 -6.92581e-08 1.45099e-08)
(-3.29035e-08 -7.42792e-08 1.44821e-08)
(8.99422e-09 7.69273e-09 3.55344e-10)
(-4.65913e-10 -7.88027e-10 3.82923e-10)
(4.64261e-10 -9.43115e-10 3.87179e-10)
(-8.42422e-09 6.94577e-09 3.67538e-10)
(1.47384e-08 -1.79956e-09 1.16045e-09)
(8.1982e-10 -6.84083e-09 1.20957e-09)
(-1.87688e-10 -7.2148e-09 1.22045e-09)
(-1.33617e-08 -3.01538e-09 1.19152e-09)
(1.54117e-08 -1.15403e-08 2.02164e-09)
(1.26553e-09 -1.38254e-08 2.07369e-09)
(3.14976e-10 -1.43651e-08 2.08976e-09)
(-1.30984e-08 -1.31728e-08 2.06797e-09)
(1.52467e-08 -1.93355e-08 2.86994e-09)
(1.36404e-09 -2.10943e-08 2.91778e-09)
(1.41185e-09 -2.17718e-08 2.93818e-09)
(-1.17314e-08 -2.13669e-08 2.92942e-09)
(1.63028e-08 -2.5569e-08 3.62349e-09)
(1.95587e-09 -2.82838e-08 3.66691e-09)
(2.26305e-09 -2.90911e-08 3.69102e-09)
(-1.13143e-08 -2.79854e-08 3.69443e-09)
(2.04189e-08 -3.10421e-08 4.2082e-09)
(3.79918e-09 -3.51556e-08 4.25096e-09)
(2.10024e-09 -3.60928e-08 4.27807e-09)
(-1.37153e-08 -3.38351e-08 4.28855e-09)
(2.9828e-08 -3.9678e-08 4.57565e-09)
(7.47336e-09 -4.31647e-08 4.62317e-09)
(3.00294e-10 -4.4217e-08 4.65217e-09)
(-2.12249e-08 -4.28074e-08 4.66233e-09)
(4.35634e-08 -7.13093e-08 4.71501e-09)
(1.15575e-08 -6.82863e-08 4.77208e-09)
(-1.84839e-09 -6.92351e-08 4.80116e-09)
(-3.29716e-08 -7.42198e-08 4.80295e-09)
)
;

boundaryField
{
    interface
    {
        type            solidTraction;
        traction        uniform (0 0 0);
        pressure        uniform 0;
        secondOrder     false;
        setEffectiveTraction false;
        relaxationFactor 1;
        value           nonuniform List<vector> 
192
(
(8.34707e-08 5.36694e-08 2.54065e-08)
(9.54939e-08 3.33018e-08 4.85905e-08)
(9.87639e-08 1.56815e-08 6.13158e-08)
(1.00079e-07 3.5693e-09 7.12561e-08)
(1.03069e-07 -6.35575e-09 8.11348e-08)
(1.09967e-07 -1.63472e-08 9.24733e-08)
(1.22987e-07 -3.28125e-08 1.0643e-07)
(1.43331e-07 -8.38737e-08 1.21057e-07)
(6.62097e-08 2.87715e-08 1.7576e-09)
(7.49478e-08 1.52303e-08 1.49801e-08)
(7.68343e-08 3.41583e-09 2.70132e-08)
(7.74911e-08 -6.10548e-09 3.67471e-08)
(8.00475e-08 -1.4831e-08 4.57416e-08)
(8.68072e-08 -2.33989e-08 5.51218e-08)
(1.00498e-07 -3.58612e-08 6.44971e-08)
(1.23715e-07 -7.77023e-08 6.99744e-08)
(5.5128e-08 1.93241e-08 5.10087e-10)
(6.20163e-08 5.73424e-09 9.36231e-09)
(6.34009e-08 -4.91246e-09 1.98961e-08)
(6.3925e-08 -1.302e-08 2.94153e-08)
(6.64139e-08 -2.00397e-08 3.7926e-08)
(7.32875e-08 -2.61423e-08 4.5672e-08)
(8.7449e-08 -3.49772e-08 5.16794e-08)
(1.11375e-07 -7.21612e-08 5.33656e-08)
(4.92419e-08 1.59279e-08 1.47873e-09)
(5.50491e-08 1.865e-09 8.39806e-09)
(5.63422e-08 -9.12446e-09 1.68997e-08)
(5.70061e-08 -1.68497e-08 2.51522e-08)
(5.96345e-08 -2.26909e-08 3.24833e-08)
(6.66645e-08 -2.70398e-08 3.85206e-08)
(8.09866e-08 -3.40254e-08 4.24498e-08)
(1.04873e-07 -6.92132e-08 4.31807e-08)
(4.625e-08 1.45883e-08 1.78393e-09)
(5.16333e-08 4.55169e-10 7.24399e-09)
(5.29998e-08 -1.0816e-08 1.36782e-08)
(5.38629e-08 -1.85116e-08 2.00871e-08)
(5.66692e-08 -2.38162e-08 2.57795e-08)
(6.38113e-08 -2.73686e-08 3.02376e-08)
(7.81194e-08 -3.36861e-08 3.29346e-08)
(1.01761e-07 -6.79116e-08 3.35158e-08)
(4.46729e-08 1.40047e-08 1.5246e-09)
(4.99436e-08 -2.00132e-11 5.49001e-09)
(5.1417e-08 -1.13362e-08 9.96807e-09)
(5.24415e-08 -1.90442e-08 1.44336e-08)
(5.5381e-08 -2.41946e-08 1.83979e-08)
(6.25795e-08 -2.75319e-08 2.14515e-08)
(7.68186e-08 -3.37039e-08 2.32846e-08)
(1.00225e-07 -6.74182e-08 2.37942e-08)
(4.38316e-08 1.37358e-08 9.88885e-10)
(4.90792e-08 -1.61795e-10 3.38788e-09)
(5.0632e-08 -1.1426e-08 6.02281e-09)
(5.17574e-08 -1.91318e-08 8.63468e-09)
(5.47743e-08 -2.42759e-08 1.09509e-08)
(6.19942e-08 -2.76212e-08 1.27324e-08)
(7.61701e-08 -3.3815e-08 1.3817e-08)
(9.9414e-08 -6.7266e-08 1.41717e-08)
(4.34567e-08 1.36259e-08 3.3971e-10)
(4.86981e-08 -1.95183e-10 1.14153e-09)
(5.0289e-08 -1.14131e-08 2.01069e-09)
(5.14608e-08 -1.91126e-08 2.86843e-09)
(5.45114e-08 -2.42758e-08 3.62854e-09)
(6.17372e-08 -2.76604e-08 4.21418e-09)
(7.58785e-08 -3.38914e-08 4.57478e-09)
(9.90412e-08 -6.72325e-08 4.70165e-09)
(2.58055e-08 5.69329e-08 8.73919e-08)
(4.19891e-08 3.82166e-08 1.07972e-07)
(4.42203e-08 2.0982e-08 1.22096e-07)
(4.37645e-08 8.4126e-09 1.33882e-07)
(4.45579e-08 -2.288e-09 1.45962e-07)
(4.85522e-08 -1.33923e-08 1.60107e-07)
(5.79063e-08 -3.14393e-08 1.77617e-07)
(7.17045e-08 -8.40465e-08 1.9887e-07)
(2.40803e-09 3.99303e-08 7.86501e-08)
(7.31746e-09 2.87167e-08 9.87041e-08)
(8.68086e-09 1.71992e-08 1.11811e-07)
(8.75369e-09 6.22499e-09 1.22751e-07)
(9.27459e-09 -5.16069e-09 1.3416e-07)
(1.11502e-08 -1.74817e-08 1.4785e-07)
(1.50112e-08 -3.44841e-08 1.65764e-07)
(1.94635e-08 -8.06984e-08 1.90156e-07)
(-2.1279e-09 3.96428e-08 7.78445e-08)
(-5.64259e-09 2.82562e-08 9.80111e-08)
(-5.32893e-09 1.65831e-08 1.11192e-07)
(-3.58671e-09 5.47144e-09 1.22185e-07)
(-2.15949e-09 -6.04097e-09 1.33631e-07)
(-1.95245e-09 -1.84868e-08 1.47346e-07)
(-3.62621e-09 -3.56024e-08 1.65275e-07)
(-5.91385e-09 -8.17144e-08 1.897e-07)
(-2.48105e-08 5.57296e-08 8.51798e-08)
(-3.93745e-08 3.66372e-08 1.06144e-07)
(-3.99488e-08 1.90289e-08 1.20478e-07)
(-3.76875e-08 6.08392e-09 1.32419e-07)
(-3.65249e-08 -4.97013e-09 1.44612e-07)
(-3.84346e-08 -1.64159e-08 1.58834e-07)
(-4.56177e-08 -3.47786e-08 1.76399e-07)
(-5.72289e-08 -8.71744e-08 1.97776e-07)
(-7.88447e-08 5.15351e-08 2.5411e-08)
(-8.92915e-08 3.08035e-08 4.89967e-08)
(-9.09202e-08 1.27762e-08 6.21034e-08)
(-9.04203e-08 2.375e-10 7.23262e-08)
(-9.14346e-08 -1.00937e-08 8.24085e-08)
(-9.62323e-08 -2.04685e-08 9.38971e-08)
(-1.07088e-07 -3.72609e-08 1.07961e-07)
(-1.25237e-07 -8.80932e-08 1.22637e-07)
(-6.16614e-08 2.69566e-08 2.0779e-09)
(-6.90957e-08 1.29052e-08 1.5718e-08)
(-6.95205e-08 5.94085e-10 2.80841e-08)
(-6.84857e-08 -9.38972e-09 3.80793e-08)
(-6.91426e-08 -1.85388e-08 4.727e-08)
(-7.38359e-08 -2.75012e-08 5.6793e-08)
(-8.53724e-08 -4.02971e-08 6.62612e-08)
(-1.06427e-07 -8.19059e-08 7.17739e-08)
(-5.08045e-08 1.77184e-08 7.64761e-10)
(-5.6536e-08 3.61443e-09 9.96394e-09)
(-5.65945e-08 -7.56824e-09 2.07633e-08)
(-5.55372e-08 -1.61768e-08 3.04979e-08)
(-5.62035e-08 -2.36509e-08 3.91798e-08)
(-6.10518e-08 -3.01714e-08 4.70541e-08)
(-7.30679e-08 -3.93543e-08 5.31446e-08)
(-9.48279e-08 -7.63044e-08 5.48601e-08)
(-4.51144e-08 1.44652e-08 1.66049e-09)
(-4.98915e-08 -8.68468e-11 8.84555e-09)
(-4.9968e-08 -1.16175e-08 1.75538e-08)
(-4.91435e-08 -1.98649e-08 2.59776e-08)
(-5.002e-08 -2.61859e-08 3.34498e-08)
(-5.50691e-08 -3.09758e-08 3.95968e-08)
(-6.72632e-08 -3.83263e-08 4.3599e-08)
(-8.89841e-08 -7.32873e-08 4.43559e-08)
(-4.22589e-08 1.32268e-08 1.90909e-09)
(-4.67076e-08 -1.36983e-09 7.56019e-09)
(-4.69422e-08 -1.31761e-08 1.41479e-08)
(-4.63911e-08 -2.14027e-08 2.06872e-08)
(-4.75052e-08 -2.72036e-08 2.64898e-08)
(-5.27091e-08 -3.12154e-08 3.10359e-08)
(-6.49132e-08 -3.79134e-08 3.37932e-08)
(-8.63982e-08 -7.19221e-08 3.43972e-08)
(-4.07676e-08 1.27109e-08 1.60591e-09)
(-4.51678e-08 -1.75551e-09 5.6983e-09)
(-4.55696e-08 -1.35984e-08 1.02815e-08)
(-4.5235e-08 -2.18398e-08 1.48384e-08)
(-4.65288e-08 -2.74964e-08 1.88816e-08)
(-5.18248e-08 -3.13056e-08 2.19996e-08)
(-6.39835e-08 -3.78704e-08 2.38779e-08)
(-8.52473e-08 -7.13769e-08 2.44052e-08)
(-3.99759e-08 1.2483e-08 1.03465e-09)
(-4.43915e-08 -1.84072e-09 3.50593e-09)
(-4.49108e-08 -1.36245e-08 6.20185e-09)
(-4.47136e-08 -2.18637e-08 8.86777e-09)
(-4.61166e-08 -2.75191e-08 1.12315e-08)
(-5.14594e-08 -3.13441e-08 1.30522e-08)
(-6.35731e-08 -3.79388e-08 1.41647e-08)
(-8.46856e-08 -7.11884e-08 1.45306e-08)
(-3.96238e-08 1.23923e-08 3.5448e-10)
(-4.40512e-08 -1.84684e-09 1.17974e-09)
(-4.46269e-08 -1.35804e-08 2.06887e-09)
(-4.4494e-08 -2.18129e-08 2.94448e-09)
(-4.59469e-08 -2.74894e-08 3.72041e-09)
(-5.13089e-08 -3.13574e-08 4.31923e-09)
(-6.33976e-08 -3.79933e-08 4.68928e-09)
(-8.44354e-08 -7.11362e-08 4.81997e-09)
(7.20314e-08 -1.62066e-07 1.25122e-07)
(5.89353e-08 -1.49293e-07 7.24945e-08)
(5.02164e-08 -1.40259e-07 5.43932e-08)
(4.65175e-08 -1.34653e-07 4.33838e-08)
(4.53329e-08 -1.3147e-07 3.34638e-08)
(4.50109e-08 -1.29742e-07 2.37419e-08)
(4.49001e-08 -1.28852e-07 1.41607e-08)
(4.48474e-08 -1.28474e-07 4.7036e-09)
(1.97846e-08 -1.53985e-07 1.21153e-07)
(1.6024e-08 -1.38104e-07 7.49642e-08)
(1.2826e-08 -1.28705e-07 5.80098e-08)
(1.14442e-08 -1.2355e-07 4.58244e-08)
(1.10835e-08 -1.20859e-07 3.47161e-08)
(1.10416e-08 -1.19439e-07 2.43058e-08)
(1.10434e-08 -1.18698e-07 1.43938e-08)
(1.10399e-08 -1.18377e-07 4.76748e-09)
(-5.58083e-09 -1.54173e-07 1.21525e-07)
(-2.61517e-09 -1.38267e-07 7.5443e-08)
(-2.03669e-10 -1.28861e-07 5.83922e-08)
(5.13111e-10 -1.23696e-07 4.61136e-08)
(3.51278e-10 -1.20993e-07 3.49281e-08)
(9.47722e-12 -1.19561e-07 2.4451e-08)
(-2.4353e-10 -1.18812e-07 1.44788e-08)
(-3.64049e-10 -1.18487e-07 4.79542e-09)
(-5.68902e-08 -1.62917e-07 1.26299e-07)
(-4.46126e-08 -1.50038e-07 7.38897e-08)
(-3.66654e-08 -1.40974e-07 5.55124e-08)
(-3.36319e-08 -1.35331e-07 4.42432e-08)
(-3.29783e-08 -1.32109e-07 3.41003e-08)
(-3.30475e-08 -1.30346e-07 2.41803e-08)
(-3.31925e-08 -1.29432e-07 1.44174e-08)
(-3.32661e-08 -1.29042e-07 4.78812e-09)
)
;
        gradient        uniform (0 0 0);
    }
    symmetry
    {
        type            solidSymmetry;
        patchType       symmetry;
        secondOrder     false;
        value           nonuniform List<vector> 
32
(
(8.99422e-09 7.69273e-09 0)
(1.47384e-08 -1.79956e-09 0)
(1.54117e-08 -1.15403e-08 0)
(1.52467e-08 -1.93355e-08 0)
(1.63028e-08 -2.5569e-08 0)
(2.04189e-08 -3.10421e-08 0)
(2.9828e-08 -3.9678e-08 0)
(4.35634e-08 -7.13093e-08 0)
(-4.65913e-10 -7.88027e-10 0)
(8.1982e-10 -6.84083e-09 0)
(1.26553e-09 -1.38254e-08 0)
(1.36404e-09 -2.10943e-08 0)
(1.95587e-09 -2.82838e-08 0)
(3.79918e-09 -3.51556e-08 0)
(7.47336e-09 -4.31647e-08 0)
(1.15575e-08 -6.82863e-08 0)
(4.64261e-10 -9.43115e-10 0)
(-1.87688e-10 -7.2148e-09 0)
(3.14976e-10 -1.43651e-08 0)
(1.41185e-09 -2.17718e-08 0)
(2.26305e-09 -2.90911e-08 0)
(2.10024e-09 -3.60928e-08 0)
(3.00294e-10 -4.4217e-08 0)
(-1.84839e-09 -6.92351e-08 0)
(-8.42422e-09 6.94577e-09 0)
(-1.33617e-08 -3.01538e-09 0)
(-1.30984e-08 -1.31728e-08 0)
(-1.17314e-08 -2.13669e-08 0)
(-1.13143e-08 -2.79854e-08 0)
(-1.37153e-08 -3.38351e-08 0)
(-2.12249e-08 -4.28074e-08 0)
(-3.29716e-08 -7.42198e-08 0)
)
;
    }
    bottom
    {
        type            fixedDisplacement;
        value           uniform (0 0 0);
    }
}


// ************************************************************************* //
