/*--------------------------------*- C++ -*----------------------------------*\
| =========                 |                                                 |
| \\      /  F ield         | OpenFOAM: The Open Source CFD Toolbox           |
|  \\    /   O peration     | Version:  v1912                                 |
|   \\  /    A nd           | Website:  www.openfoam.com                      |
|    \\/     M anipulation  |                                                 |
\*---------------------------------------------------------------------------*/
FoamFile
{
    version     2.0;
    format      ascii;
    class       volVectorField;
    location    "0.66/solid";
    object      DD_0_0;
}
// * * * * * * * * * * * * * * * * * * * * * * * * * * * * * * * * * * * * * //

dimensions      [0 1 0 0 0 0 0];


internalField   nonuniform List<vector> 
256
(
(2.59452e-10 2.64047e-10 3.06913e-10)
(5.91411e-11 1.61061e-10 2.85527e-10)
(-7.17856e-11 1.55711e-10 2.79242e-10)
(-2.54322e-10 2.44535e-10 2.87688e-10)
(4.70276e-10 2.12718e-10 7.00045e-10)
(1.20311e-10 1.25933e-10 6.6771e-10)
(-1.47081e-10 1.23404e-10 6.55218e-10)
(-4.72411e-10 2.06958e-10 6.61721e-10)
(5.11049e-10 1.53439e-11 9.73903e-10)
(1.29753e-10 -2.29872e-11 9.35128e-10)
(-1.72692e-10 -2.062e-11 9.19148e-10)
(-5.28976e-10 2.55288e-11 9.249e-10)
(4.98892e-10 -2.03451e-10 1.2053e-09)
(1.15994e-10 -2.22907e-10 1.15692e-09)
(-1.81069e-10 -2.15649e-10 1.13846e-09)
(-5.38676e-10 -1.79097e-10 1.1487e-09)
(4.96578e-10 -4.39417e-10 1.43521e-09)
(1.03763e-10 -4.67301e-10 1.3746e-09)
(-1.97423e-10 -4.55445e-10 1.354e-09)
(-5.64469e-10 -4.01945e-10 1.37213e-09)
(5.4798e-10 -7.25483e-10 1.68889e-09)
(1.11228e-10 -7.67302e-10 1.61685e-09)
(-2.40293e-10 -7.50912e-10 1.59419e-09)
(-6.50684e-10 -6.7504e-10 1.61964e-09)
(6.86063e-10 -1.1501e-09 1.97172e-09)
(1.4738e-10 -1.17157e-09 1.90014e-09)
(-3.19891e-10 -1.15007e-09 1.87531e-09)
(-8.30458e-10 -1.08486e-09 1.89615e-09)
(8.54674e-10 -1.76961e-09 2.20608e-09)
(1.84695e-10 -1.71592e-09 2.15594e-09)
(-4.10734e-10 -1.6862e-09 2.12907e-09)
(-1.04779e-09 -1.67948e-09 2.12494e-09)
(1.58542e-10 9.10034e-11 1.22316e-10)
(3.40954e-11 8.83103e-12 1.39567e-10)
(-3.91693e-11 6.91153e-12 1.36911e-10)
(-1.48453e-10 7.93544e-11 1.14426e-10)
(2.96149e-10 -9.14111e-12 3.8718e-10)
(7.33404e-11 -7.87962e-11 4.21591e-10)
(-8.24408e-11 -7.86245e-11 4.14311e-10)
(-2.84833e-10 -9.48795e-12 3.65938e-10)
(3.19364e-10 -1.85572e-10 6.31304e-10)
(7.82991e-11 -2.1621e-10 6.70149e-10)
(-9.64624e-11 -2.12312e-10 6.59714e-10)
(-3.17339e-10 -1.72814e-10 6.00743e-10)
(3.03031e-10 -3.84548e-10 8.51197e-10)
(6.54041e-11 -4.01012e-10 8.88106e-10)
(-1.00218e-10 -3.929e-10 8.75397e-10)
(-3.17725e-10 -3.5912e-10 8.13718e-10)
(2.96996e-10 -6.03522e-10 1.06396e-09)
(5.41969e-11 -6.30866e-10 1.09639e-09)
(-1.13053e-10 -6.18505e-10 1.08174e-09)
(-3.35423e-10 -5.65718e-10 1.02051e-09)
(3.45701e-10 -8.55822e-10 1.27974e-09)
(6.26329e-11 -8.99656e-10 1.30743e-09)
(-1.52907e-10 -8.83036e-10 1.29092e-09)
(-4.14963e-10 -8.05652e-10 1.23064e-09)
(4.90762e-10 -1.19799e-09 1.47922e-09)
(1.0168e-10 -1.21915e-09 1.50457e-09)
(-2.31793e-10 -1.19798e-09 1.4864e-09)
(-5.97888e-10 -1.13431e-09 1.42502e-09)
(6.81973e-10 -1.68993e-09 1.58658e-09)
(1.43215e-10 -1.61455e-09 1.61199e-09)
(-3.23697e-10 -1.58637e-09 1.59306e-09)
(-8.34044e-10 -1.60408e-09 1.52983e-09)
(7.94598e-11 2.52539e-11 6.03882e-11)
(1.13002e-11 -3.4326e-11 8.63211e-11)
(-1.30621e-11 -3.58061e-11 8.4513e-11)
(-6.67985e-11 1.36854e-11 5.52565e-11)
(1.53869e-10 -1.20207e-10 2.44877e-10)
(2.82976e-11 -1.71738e-10 2.94214e-10)
(-2.78288e-11 -1.71245e-10 2.89163e-10)
(-1.34277e-10 -1.21281e-10 2.30587e-10)
(1.62579e-10 -3.04668e-10 4.50366e-10)
(2.82245e-11 -3.28284e-10 5.06414e-10)
(-3.11194e-11 -3.24453e-10 4.98821e-10)
(-1.46869e-10 -2.93539e-10 4.28646e-10)
(1.4546e-10 -4.92484e-10 6.50236e-10)
(1.62891e-11 -5.08029e-10 7.06238e-10)
(-3.08652e-11 -5.00335e-10 6.96632e-10)
(-1.41694e-10 -4.69394e-10 6.22417e-10)
(1.39968e-10 -6.8417e-10 8.39144e-10)
(6.50257e-12 -7.13068e-10 8.92979e-10)
(-4.08554e-11 -7.01387e-10 8.81619e-10)
(-1.55742e-10 -6.49213e-10 8.05943e-10)
(1.90034e-10 -8.87185e-10 1.00996e-09)
(1.62419e-11 -9.33606e-10 1.06115e-09)
(-7.8338e-11 -9.17928e-10 1.04821e-09)
(-2.32888e-10 -8.404e-10 9.71846e-10)
(3.39782e-10 -1.1534e-09 1.1346e-09)
(5.74933e-11 -1.17659e-09 1.18307e-09)
(-1.56215e-10 -1.15671e-09 1.16891e-09)
(-4.17031e-10 -1.09385e-09 1.09257e-09)
(5.37942e-10 -1.56194e-09 1.16202e-09)
(1.01626e-10 -1.48565e-09 1.20817e-09)
(-2.47746e-10 -1.45912e-09 1.19381e-09)
(-6.5683e-10 -1.48089e-09 1.1188e-09)
(4.38217e-11 6.97087e-13 4.82023e-11)
(1.17767e-12 -4.40811e-11 6.60036e-11)
(-1.40872e-12 -4.57686e-11 6.46515e-11)
(-2.95842e-11 -1.20123e-11 4.44589e-11)
(8.82826e-11 -1.63714e-10 1.89663e-10)
(7.34059e-12 -2.03605e-10 2.23107e-10)
(-1.61635e-12 -2.03704e-10 2.19455e-10)
(-6.34748e-11 -1.67285e-10 1.795e-10)
(9.14568e-11 -3.5623e-10 3.54567e-10)
(5.48359e-12 -3.75901e-10 3.92045e-10)
(1.00023e-12 -3.72889e-10 3.86494e-10)
(-6.65351e-11 -3.48235e-10 3.38878e-10)
(7.75534e-11 -5.3709e-10 5.21331e-10)
(-4.29703e-12 -5.53093e-10 5.58091e-10)
(3.14724e-12 -5.4639e-10 5.50912e-10)
(-6.06234e-11 -5.17513e-10 5.00726e-10)
(7.67588e-11 -7.0541e-10 6.75894e-10)
(-1.14162e-11 -7.36278e-10 7.1051e-10)
(-5.8165e-12 -7.25732e-10 7.01872e-10)
(-7.57012e-11 -6.74246e-10 6.50804e-10)
(1.30745e-10 -8.71193e-10 8.03051e-10)
(3.10952e-13 -9.19955e-10 8.3546e-10)
(-4.20295e-11 -9.05547e-10 8.25541e-10)
(-1.53438e-10 -8.28452e-10 7.73954e-10)
(2.81349e-10 -1.09389e-09 8.78932e-10)
(4.22907e-11 -1.1212e-09 9.09577e-10)
(-1.1777e-10 -1.10268e-09 8.98768e-10)
(-3.35409e-10 -1.03854e-09 8.46833e-10)
(4.76447e-10 -1.46553e-09 8.78119e-10)
(8.66033e-11 -1.39949e-09 9.08749e-10)
(-2.06839e-10 -1.37428e-09 8.97886e-10)
(-5.69342e-10 -1.38849e-09 8.4531e-10)
(3.2182e-11 -8.15093e-12 4.17995e-11)
(-1.14836e-12 -4.58504e-11 5.08417e-11)
(1.72241e-12 -4.7764e-11 4.98645e-11)
(-1.69549e-11 -2.18015e-11 3.91323e-11)
(6.79219e-11 -1.75884e-10 1.51043e-10)
(2.54673e-12 -2.10613e-10 1.67442e-10)
(6.2639e-12 -2.11382e-10 1.6485e-10)
(-3.98327e-11 -1.81779e-10 1.43916e-10)
(7.16546e-11 -3.68756e-10 2.76353e-10)
(1.45e-12 -3.8742e-10 2.9392e-10)
(1.09531e-11 -3.85323e-10 2.89973e-10)
(-4.06968e-11 -3.63795e-10 2.65306e-10)
(6.23161e-11 -5.43168e-10 4.03899e-10)
(-5.78652e-12 -5.60528e-10 4.20069e-10)
(1.35959e-11 -5.54867e-10 4.14908e-10)
(-3.63691e-11 -5.26969e-10 3.89199e-10)
(6.6752e-11 -6.96264e-10 5.19922e-10)
(-1.01577e-11 -7.29059e-10 5.34022e-10)
(4.83856e-12 -7.19635e-10 5.27742e-10)
(-5.37381e-11 -6.68643e-10 5.01776e-10)
(1.24181e-10 -8.41726e-10 6.09534e-10)
(3.36982e-12 -8.92315e-10 6.21917e-10)
(-3.04679e-11 -8.79068e-10 6.14662e-10)
(-1.32173e-10 -8.02576e-10 5.88313e-10)
(2.73678e-10 -1.04551e-09 6.56438e-10)
(4.53494e-11 -1.07636e-09 6.68032e-10)
(-1.03787e-10 -1.05898e-09 6.60121e-10)
(-3.1053e-10 -9.93633e-10 6.32957e-10)
(4.63959e-10 -1.40184e-09 6.49901e-10)
(8.91427e-11 -1.34548e-09 6.62552e-10)
(-1.90141e-10 -1.32131e-09 6.54622e-10)
(-5.37356e-10 -1.32792e-09 6.25917e-10)
(2.93335e-11 -1.09446e-11 3.2618e-11)
(-8.63744e-13 -4.57622e-11 3.65745e-11)
(1.88214e-12 -4.78381e-11 3.59187e-11)
(-1.35009e-11 -2.52347e-11 3.08437e-11)
(6.44601e-11 -1.75816e-10 1.11221e-10)
(3.50905e-12 -2.08977e-10 1.17848e-10)
(7.14573e-12 -2.1026e-10 1.16119e-10)
(-3.43413e-11 -1.83407e-10 1.0651e-10)
(7.07844e-11 -3.64544e-10 1.98817e-10)
(3.96734e-12 -3.83694e-10 2.05183e-10)
(1.21388e-11 -3.82331e-10 2.0255e-10)
(-3.59889e-11 -3.61916e-10 1.91503e-10)
(6.54622e-11 -5.32942e-10 2.87172e-10)
(-1.11365e-12 -5.51829e-10 2.92116e-10)
(1.4744e-11 -5.47016e-10 2.88653e-10)
(-3.35981e-11 -5.19404e-10 2.77371e-10)
(7.38696e-11 -6.77492e-10 3.66235e-10)
(-3.38536e-12 -7.11835e-10 3.69576e-10)
(6.05443e-12 -7.03307e-10 3.65334e-10)
(-5.27839e-11 -6.52658e-10 3.54035e-10)
(1.33503e-10 -8.14108e-10 4.25126e-10)
(1.14149e-11 -8.6589e-10 4.27343e-10)
(-2.84637e-11 -8.53542e-10 4.22418e-10)
(-1.31347e-10 -7.77723e-10 4.10762e-10)
(2.81605e-10 -1.01122e-09 4.53926e-10)
(5.32643e-11 -1.04421e-09 4.55903e-10)
(-9.97752e-11 -1.02767e-09 4.50522e-10)
(-3.0639e-10 -9.61936e-10 4.37972e-10)
(4.68014e-10 -1.36046e-09 4.48176e-10)
(9.65928e-11 -1.31022e-09 4.51183e-10)
(-1.83983e-10 -1.28681e-09 4.45791e-10)
(-5.27605e-10 -1.28883e-09 4.31866e-10)
(2.88524e-11 -1.14911e-11 2.06553e-11)
(-2.6861e-13 -4.5206e-11 2.22235e-11)
(1.52179e-12 -4.73845e-11 2.18475e-11)
(-1.26733e-11 -2.6176e-11 1.96432e-11)
(6.50073e-11 -1.72493e-10 6.81585e-11)
(5.13949e-12 -2.05439e-10 7.04818e-11)
(6.55762e-12 -2.07054e-10 6.94927e-11)
(-3.37117e-11 -1.81155e-10 6.54764e-11)
(7.3592e-11 -3.56624e-10 1.19859e-10)
(6.86925e-12 -3.76555e-10 1.21664e-10)
(1.13993e-11 -3.75677e-10 1.20156e-10)
(-3.65285e-11 -3.55516e-10 1.15691e-10)
(7.09805e-11 -5.20466e-10 1.71404e-10)
(3.2302e-12 -5.40534e-10 1.72231e-10)
(1.38878e-11 -5.36291e-10 1.70242e-10)
(-3.55459e-11 -5.08697e-10 1.65798e-10)
(8.18339e-11 -6.60676e-10 2.16981e-10)
(2.27695e-12 -6.96041e-10 2.1684e-10)
(5.28444e-12 -6.88118e-10 2.14394e-10)
(-5.57814e-11 -6.37707e-10 2.09971e-10)
(1.4268e-10 -7.94074e-10 2.50314e-10)
(1.78515e-11 -8.46514e-10 2.49567e-10)
(-2.86324e-11 -8.34767e-10 2.46718e-10)
(-1.34177e-10 -7.59534e-10 2.42023e-10)
(2.89763e-10 -9.89254e-10 2.66144e-10)
(5.96245e-11 -1.02329e-09 2.65367e-10)
(-9.85952e-11 -1.00732e-09 2.62247e-10)
(-3.06913e-10 -9.41695e-10 2.56904e-10)
(4.73664e-10 -1.33501e-09 2.62567e-10)
(1.02667e-10 -1.28797e-09 2.62437e-10)
(-1.81386e-10 -1.26505e-09 2.5931e-10)
(-5.24452e-10 -1.26489e-09 2.53111e-10)
(2.88119e-11 -1.14409e-11 7.05947e-12)
(5.41645e-14 -4.47735e-11 7.47405e-12)
(1.2998e-12 -4.70018e-11 7.35168e-12)
(-1.24752e-11 -2.63145e-11 6.73085e-12)
(6.56424e-11 -1.70026e-10 2.29538e-11)
(6.0285e-12 -2.03041e-10 2.35065e-11)
(6.13881e-12 -2.04815e-10 2.31847e-11)
(-3.38062e-11 -1.79203e-10 2.20835e-11)
(7.53956e-11 -3.51411e-10 4.00352e-11)
(8.40695e-12 -3.71827e-10 4.03673e-11)
(1.0858e-11 -3.71188e-10 3.98763e-11)
(-3.72778e-11 -3.51045e-10 3.86818e-11)
(7.40963e-11 -5.12848e-10 5.6943e-11)
(5.46603e-12 -5.33531e-10 5.69347e-11)
(1.3284e-11 -5.29571e-10 5.62864e-11)
(-3.69821e-11 -5.01949e-10 5.51195e-11)
(8.60835e-11 -6.5125e-10 7.18003e-11)
(5.134e-12 -6.87111e-10 7.14729e-11)
(4.74649e-12 -6.79489e-10 7.06745e-11)
(-5.76679e-11 -6.29207e-10 6.95159e-11)
(1.4746e-10 -7.83695e-10 8.25866e-11)
(2.10722e-11 -8.36418e-10 8.20707e-11)
(-2.88489e-11 -8.24969e-10 8.11389e-11)
(-1.35908e-10 -7.50075e-10 7.98785e-11)
(2.94038e-10 -9.78455e-10 8.76566e-11)
(6.28207e-11 -1.01289e-09 8.7147e-11)
(-9.81468e-11 -9.97198e-10 8.61252e-11)
(-3.07491e-10 -9.31752e-10 8.46324e-11)
(4.76721e-10 -1.32275e-09 8.6458e-11)
(1.05732e-10 -1.27703e-09 8.61631e-11)
(-1.80238e-10 -1.25435e-09 8.51388e-11)
(-5.2323e-10 -1.25337e-09 8.33612e-11)
)
;

boundaryField
{
    interface
    {
        type            calculated;
        value           nonuniform List<vector> 
192
(
(2.96076e-10 4.46479e-10 2.76846e-10)
(5.05686e-10 2.75616e-10 6.47398e-10)
(5.4864e-10 2.24969e-11 9.16475e-10)
(5.40256e-10 -2.0707e-10 1.14808e-09)
(5.38465e-10 -4.27145e-10 1.37878e-09)
(5.83581e-10 -6.78112e-10 1.63347e-09)
(7.15525e-10 -1.07343e-09 1.91855e-09)
(9.08108e-10 -1.72235e-09 2.15687e-09)
(1.57843e-10 2.04676e-10 7.73186e-11)
(2.97212e-10 3.10637e-11 3.0808e-10)
(3.19797e-10 -1.83852e-10 5.44188e-10)
(3.0318e-10 -3.90141e-10 7.6284e-10)
(2.94588e-10 -5.92856e-10 9.74808e-10)
(3.35604e-10 -8.07382e-10 1.19026e-09)
(4.77506e-10 -1.11393e-09 1.39265e-09)
(7.1225e-10 -1.63876e-09 1.5074e-09)
(6.52693e-11 8.3586e-11 3.17091e-11)
(1.47615e-10 -9.94278e-11 1.92912e-10)
(1.56983e-10 -3.06771e-10 3.9339e-10)
(1.39804e-10 -4.98138e-10 5.93867e-10)
(1.32977e-10 -6.73028e-10 7.84085e-10)
(1.78637e-10 -8.37232e-10 9.56218e-10)
(3.30548e-10 -1.06642e-09 1.08225e-09)
(5.75558e-10 -1.5086e-09 1.11063e-09)
(2.44065e-11 3.37231e-11 3.63834e-11)
(8.08175e-11 -1.51806e-10 1.68178e-10)
(8.5959e-11 -3.58913e-10 3.31837e-10)
(7.28575e-11 -5.40766e-10 5.00546e-10)
(7.21773e-11 -6.92114e-10 6.5759e-10)
(1.24422e-10 -8.20047e-10 7.86589e-10)
(2.80834e-10 -1.00746e-09 8.62406e-10)
(5.2228e-10 -1.41151e-09 8.59623e-10)
(9.74725e-12 1.6875e-11 3.81779e-11)
(5.82792e-11 -1.66017e-10 1.45088e-10)
(6.47217e-11 -3.70159e-10 2.71185e-10)
(5.69991e-11 -5.44395e-10 4.00877e-10)
(6.26828e-11 -6.80799e-10 5.192e-10)
(1.20036e-10 -7.89996e-10 6.10224e-10)
(2.77298e-10 -9.60569e-10 6.56502e-10)
(5.12604e-10 -1.34781e-09 6.47793e-10)
(5.5951e-12 1.25038e-11 3.17859e-11)
(5.34366e-11 -1.65454e-10 1.10493e-10)
(6.28886e-11 -3.64295e-10 1.99301e-10)
(5.98054e-11 -5.32172e-10 2.89338e-10)
(7.0265e-11 -6.60483e-10 3.70006e-10)
(1.30826e-10 -7.62175e-10 4.29751e-10)
(2.87685e-10 -9.27589e-10 4.57948e-10)
(5.17802e-10 -1.3067e-09 4.50602e-10)
(4.75954e-12 1.19737e-11 2.0525e-11)
(5.34577e-11 -1.61309e-10 6.84544e-11)
(6.54087e-11 -3.55132e-10 1.21012e-10)
(6.54398e-11 -5.18407e-10 1.73563e-10)
(7.88461e-11 -6.42752e-10 2.20034e-10)
(1.4118e-10 -7.42092e-10 2.53803e-10)
(2.97503e-10 -9.06509e-10 2.69253e-10)
(5.24177e-10 -1.28155e-09 2.64743e-10)
(4.68978e-12 1.21726e-11 7.0494e-12)
(5.39688e-11 -1.58381e-10 2.31127e-11)
(6.71994e-11 -3.49299e-10 4.04861e-11)
(6.87379e-11 -5.10177e-10 5.7722e-11)
(8.35143e-11 -6.3291e-10 7.28628e-11)
(1.46629e-10 -7.31707e-10 8.37818e-11)
(3.02643e-10 -8.96141e-10 8.87252e-11)
(5.27632e-10 -1.26948e-09 8.72223e-11)
(2.69135e-10 5.15787e-10 3.08974e-10)
(4.88511e-10 3.79465e-10 6.96194e-10)
(5.30065e-10 1.41658e-10 9.7213e-10)
(5.15406e-10 -8.81243e-11 1.20839e-09)
(5.09637e-10 -3.18517e-10 1.43918e-09)
(5.57678e-10 -5.91352e-10 1.68465e-09)
(6.94751e-10 -1.0208e-09 1.95589e-09)
(8.66744e-10 -1.70477e-09 2.20673e-09)
(5.22204e-11 3.99371e-10 2.64203e-10)
(1.091e-10 2.88334e-10 6.33585e-10)
(1.1606e-10 9.93176e-11 8.95235e-10)
(9.92798e-11 -1.13037e-10 1.11495e-09)
(8.34592e-11 -3.52318e-10 1.32751e-09)
(8.75506e-11 -6.35916e-10 1.55616e-09)
(1.23274e-10 -1.0368e-09 1.82735e-09)
(1.65439e-10 -1.64754e-09 2.12165e-09)
(-7.1249e-11 3.89326e-10 2.49122e-10)
(-1.48584e-10 2.83381e-10 6.13862e-10)
(-1.75255e-10 1.00191e-10 8.71892e-10)
(-1.83131e-10 -1.06934e-10 1.08875e-09)
(-1.98045e-10 -3.4151e-10 1.29886e-09)
(-2.396e-10 -6.20584e-10 1.52519e-09)
(-3.20892e-10 -1.01635e-09 1.79392e-09)
(-4.18486e-10 -1.61825e-09 2.08536e-09)
(-2.6916e-10 4.81887e-10 2.62988e-10)
(-5.01519e-10 3.66262e-10 6.3401e-10)
(-5.62345e-10 1.47274e-10 8.98391e-10)
(-5.72099e-10 -6.7287e-11 1.12597e-09)
(-5.9661e-10 -2.84207e-10 1.34945e-09)
(-6.81496e-10 -5.44034e-10 1.58806e-09)
(-8.62279e-10 -9.58538e-10 1.85247e-09)
(-1.0848e-09 -1.61579e-09 2.09667e-09)
(-2.32773e-10 4.26217e-10 2.53799e-10)
(-4.49674e-10 2.75622e-10 6.00268e-10)
(-5.07227e-10 4.20969e-11 8.55302e-10)
(-5.19145e-10 -1.70221e-10 1.07674e-09)
(-5.4388e-10 -3.73941e-10 1.2988e-09)
(-6.21997e-10 -6.0854e-10 1.5453e-09)
(-7.92465e-10 -9.85584e-10 1.8221e-09)
(-1.02687e-09 -1.60591e-09 2.053e-09)
(-9.46047e-11 1.87676e-10 6.75442e-11)
(-2.33759e-10 3.27341e-11 2.81402e-10)
(-2.65004e-10 -1.64589e-10 5.05213e-10)
(-2.63908e-10 -3.54597e-10 7.1447e-10)
(-2.7769e-10 -5.41406e-10 9.1833e-10)
(-3.4791e-10 -7.40033e-10 1.12619e-09)
(-5.24615e-10 -1.02954e-09 1.32166e-09)
(-7.96331e-10 -1.5283e-09 1.43209e-09)
(-1.55948e-12 6.3954e-11 2.55378e-11)
(-7.81996e-11 -1.01263e-10 1.75245e-10)
(-9.09586e-11 -2.91684e-10 3.65942e-10)
(-8.46583e-11 -4.67174e-10 5.58139e-10)
(-9.60689e-11 -6.26412e-10 7.4101e-10)
(-1.67079e-10 -7.75075e-10 9.06462e-10)
(-3.50171e-10 -9.87864e-10 1.02695e-09)
(-6.28898e-10 -1.40458e-09 1.05262e-09)
(4.00219e-11 1.12524e-11 3.1997e-11)
(-7.14501e-12 -1.58047e-10 1.55887e-10)
(-1.17709e-11 -3.48946e-10 3.12332e-10)
(-5.72588e-12 -5.1522e-10 4.74393e-10)
(-1.95572e-11 -6.5104e-10 6.25301e-10)
(-9.37162e-11 -7.63522e-10 7.48773e-10)
(-2.78051e-10 -9.34556e-10 8.20206e-10)
(-5.50509e-10 -1.31287e-09 8.1544e-10)
(5.51932e-11 -7.60462e-12 3.51106e-11)
(1.81203e-11 -1.75843e-10 1.36631e-10)
(1.48895e-11 -3.6466e-10 2.57668e-10)
(1.85074e-11 -5.23707e-10 3.82441e-10)
(1.25671e-12 -6.4469e-10 4.96045e-10)
(-7.51712e-11 -7.38375e-10 5.82789e-10)
(-2.57694e-10 -8.92334e-10 6.25702e-10)
(-5.21781e-10 -1.25341e-09 6.15481e-10)
(5.96607e-11 -1.32742e-11 2.97727e-11)
(2.46595e-11 -1.77784e-10 1.04978e-10)
(2.02062e-11 -3.62101e-10 1.9046e-10)
(2.1312e-11 -5.15203e-10 2.77165e-10)
(1.39901e-12 -6.28219e-10 3.54545e-10)
(-7.60827e-11 -7.14318e-10 4.11263e-10)
(-2.56231e-10 -8.62868e-10 4.37067e-10)
(-5.13427e-10 -1.21542e-09 4.28639e-10)
(6.06829e-11 -1.45797e-11 1.93865e-11)
(2.56324e-11 -1.75191e-10 6.5342e-11)
(1.97635e-11 -3.55057e-10 1.16013e-10)
(1.90695e-11 -5.03881e-10 1.66644e-10)
(-2.34351e-12 -6.13047e-10 2.11191e-10)
(-8.0206e-11 -6.96748e-10 2.43162e-10)
(-2.58518e-10 -8.44122e-10 2.57179e-10)
(-5.11131e-10 -1.19233e-09 2.52016e-10)
(6.08384e-11 -1.47442e-11 6.68121e-12)
(2.55813e-11 -1.73002e-10 2.21069e-11)
(1.89449e-11 -3.50249e-10 3.88689e-11)
(1.73735e-11 -4.9685e-10 5.54784e-11)
(-4.67983e-12 -6.04473e-10 6.99873e-11)
(-8.26171e-11 -6.87616e-10 8.03111e-11)
(-2.60001e-10 -8.34918e-10 8.4777e-11)
(-5.10363e-10 -1.18128e-09 8.30555e-11)
(8.64879e-10 -1.77123e-09 2.21859e-09)
(6.88711e-10 -1.67573e-09 1.53466e-09)
(5.45537e-10 -1.56052e-09 1.10592e-09)
(4.86946e-10 -1.47469e-09 8.38094e-10)
(4.76882e-10 -1.4144e-09 6.23632e-10)
(4.82335e-10 -1.37407e-09 4.31467e-10)
(4.88632e-10 -1.3492e-09 2.53141e-10)
(4.91924e-10 -1.33727e-09 8.33938e-11)
(1.63842e-10 -1.68255e-09 2.16479e-09)
(1.17322e-10 -1.54336e-09 1.55442e-09)
(7.59171e-11 -1.42768e-09 1.15441e-09)
(6.37873e-11 -1.35701e-09 8.73705e-10)
(6.9006e-11 -1.31072e-09 6.40236e-10)
(7.81773e-11 -1.27936e-09 4.36805e-10)
(8.51746e-11 -1.25919e-09 2.54138e-10)
(8.86286e-11 -1.2492e-09 8.3427e-11)
(-4.19844e-10 -1.64329e-09 2.13808e-09)
(-3.26317e-10 -1.50634e-09 1.53629e-09)
(-2.4894e-10 -1.39245e-09 1.14079e-09)
(-2.09593e-10 -1.32317e-09 8.63434e-10)
(-1.94535e-10 -1.27793e-09 6.32754e-10)
(-1.89336e-10 -1.24732e-09 4.31726e-10)
(-1.87162e-10 -1.22764e-09 2.51196e-10)
(-1.86156e-10 -1.21789e-09 8.24638e-11)
(-1.08626e-09 -1.65181e-09 2.13794e-09)
(-8.67508e-10 -1.56132e-09 1.48018e-09)
(-6.89546e-10 -1.45095e-09 1.0649e-09)
(-6.03606e-10 -1.36916e-09 8.07067e-10)
(-5.72967e-10 -1.31195e-09 6.01002e-10)
(-5.63812e-10 -1.27385e-09 4.16106e-10)
(-5.60777e-10 -1.25042e-09 2.44246e-10)
(-5.59525e-10 -1.2392e-09 8.0483e-11)
)
;
    }
    symmetry
    {
        type            symmetry;
    }
    bottom
    {
        type            calculated;
        value           uniform (0 0 0);
    }
}


// ************************************************************************* //
