/*--------------------------------*- C++ -*----------------------------------*\
| =========                 |                                                 |
| \\      /  F ield         | OpenFOAM: The Open Source CFD Toolbox           |
|  \\    /   O peration     | Version:  v1912                                 |
|   \\  /    A nd           | Website:  www.openfoam.com                      |
|    \\/     M anipulation  |                                                 |
\*---------------------------------------------------------------------------*/
FoamFile
{
    version     2.0;
    format      ascii;
    class       volScalarField;
    location    "0.66/solid";
    object      epsilonEq;
}
// * * * * * * * * * * * * * * * * * * * * * * * * * * * * * * * * * * * * * //

dimensions      [0 0 0 0 0 0 0];


internalField   nonuniform List<scalar> 
256
(
2.77887e-06
1.96036e-06
1.93226e-06
2.65439e-06
1.61946e-06
1.37243e-06
1.35036e-06
1.52359e-06
1.60966e-06
1.29202e-06
1.27053e-06
1.51358e-06
1.68791e-06
1.29338e-06
1.27206e-06
1.5906e-06
1.74802e-06
1.321e-06
1.29968e-06
1.6496e-06
1.74531e-06
1.34021e-06
1.31886e-06
1.64618e-06
1.41868e-06
1.22342e-06
1.20526e-06
1.32732e-06
2.46958e-07
1.38269e-06
1.37134e-06
2.5912e-07
1.66577e-06
4.02446e-07
3.90501e-07
1.53773e-06
1.22599e-06
3.98158e-07
3.87596e-07
1.11154e-06
1.19624e-06
3.01582e-07
2.93411e-07
1.08227e-06
1.20914e-06
2.05445e-07
2.00243e-07
1.09351e-06
1.24228e-06
1.6841e-07
1.66203e-07
1.12434e-06
1.28426e-06
1.86705e-07
1.84667e-07
1.16408e-06
1.20645e-06
1.57993e-07
1.62037e-07
1.08844e-06
1.41891e-06
1.22566e-06
1.20747e-06
1.32726e-06
1.39524e-06
2.37708e-07
2.33243e-07
1.2716e-06
1.17516e-06
2.33613e-07
2.2477e-07
1.06184e-06
1.16141e-06
1.65549e-07
1.57471e-07
1.04649e-06
1.17409e-06
1.03249e-07
9.97074e-08
1.05662e-06
1.21229e-06
1.00029e-07
1.01359e-07
1.09181e-06
1.27532e-06
1.20881e-07
1.19661e-07
1.15183e-06
1.28253e-06
1.8208e-07
1.80698e-07
1.16179e-06
1.74735e-06
1.34487e-06
1.32355e-06
1.64804e-06
1.24807e-06
2.18785e-07
2.17318e-07
1.13026e-06
1.09206e-06
2.06694e-07
2.02498e-07
9.84734e-07
1.08448e-06
1.54026e-07
1.51185e-07
9.74092e-07
1.09794e-06
1.19743e-07
1.21967e-07
9.83977e-07
1.13899e-06
1.17024e-07
1.22235e-07
1.02127e-06
1.20865e-06
1.12437e-07
1.14517e-07
1.08711e-06
1.23754e-06
1.53133e-07
1.52908e-07
1.11823e-06
1.75937e-06
1.33088e-06
1.30967e-06
1.66089e-06
1.16345e-06
1.88865e-07
1.87622e-07
1.04909e-06
1.02517e-06
1.85713e-07
1.82956e-07
9.21276e-07
1.02352e-06
1.45586e-07
1.44224e-07
9.16075e-07
1.0409e-06
1.16772e-07
1.19654e-07
9.29289e-07
1.08662e-06
1.09927e-07
1.15019e-07
9.70863e-07
1.16101e-06
9.6747e-08
9.80636e-08
1.04104e-06
1.19901e-06
1.49908e-07
1.4895e-07
1.08106e-06
1.72597e-06
1.30687e-06
1.2858e-06
1.62853e-06
1.11552e-06
1.62798e-07
1.61061e-07
1.00303e-06
9.82168e-07
1.63581e-07
1.60631e-07
8.79817e-07
9.84788e-07
1.26755e-07
1.24948e-07
8.78724e-07
1.00648e-06
9.42719e-08
9.65464e-08
8.96008e-07
1.05655e-06
8.32445e-08
8.76347e-08
9.4179e-07
1.13462e-06
7.28484e-08
7.15531e-08
1.01554e-06
1.17849e-06
1.61735e-07
1.59562e-07
1.06153e-06
1.70036e-06
1.29002e-06
1.26898e-06
1.60356e-06
1.08929e-06
1.43267e-07
1.40904e-07
9.77781e-07
9.57373e-07
1.44556e-07
1.40961e-07
8.55671e-07
9.62505e-07
1.0574e-07
1.02914e-07
8.57013e-07
9.87284e-07
6.59992e-08
6.75482e-08
8.77323e-07
1.04031e-06
5.17427e-08
5.59562e-08
9.2603e-07
1.12087e-06
5.26129e-08
4.76527e-08
1.00226e-06
1.16865e-06
1.73421e-07
1.70549e-07
1.05235e-06
1.68619e-06
1.27984e-06
1.25882e-06
1.58977e-06
1.07758e-06
1.32303e-07
1.29502e-07
9.66486e-07
9.46073e-07
1.33242e-07
1.2914e-07
8.44607e-07
9.52354e-07
9.16181e-08
8.7906e-08
8.47069e-07
9.78671e-07
4.31535e-08
4.42239e-08
8.68905e-07
1.03314e-06
2.30819e-08
2.91199e-08
9.19048e-07
1.1149e-06
4.08092e-08
3.20568e-08
9.96512e-07
1.16467e-06
1.79598e-07
1.76453e-07
1.04869e-06
1.68021e-06
1.27509e-06
1.25407e-06
1.58397e-06
)
;

boundaryField
{
    interface
    {
        type            calculated;
        value           nonuniform List<scalar> 
192
(
3.5478e-06
2.28236e-06
2.28823e-06
2.39812e-06
2.49173e-06
2.52604e-06
2.24802e-06
1.23686e-06
2.68328e-06
2.10835e-06
2.09366e-06
2.15182e-06
2.23441e-06
2.32603e-06
2.28972e-06
2.24904e-06
2.35007e-06
2.0267e-06
2.03258e-06
2.08841e-06
2.1756e-06
2.28949e-06
2.32708e-06
2.5305e-06
2.13387e-06
1.88949e-06
1.90682e-06
1.96394e-06
2.054e-06
2.17599e-06
2.23776e-06
2.50842e-06
2.0036e-06
1.78253e-06
1.80698e-06
1.86785e-06
1.962e-06
2.08906e-06
2.16142e-06
2.44819e-06
1.9279e-06
1.71443e-06
1.74293e-06
1.8075e-06
1.90533e-06
2.03579e-06
2.11381e-06
2.40403e-06
1.88607e-06
1.67552e-06
1.70616e-06
1.77328e-06
1.87358e-06
2.0061e-06
2.08727e-06
2.37847e-06
1.86738e-06
1.65794e-06
1.68953e-06
1.75789e-06
1.85938e-06
1.99285e-06
2.07545e-06
2.36711e-06
3.60585e-06
2.3428e-06
2.35038e-06
2.46333e-06
2.55924e-06
2.59387e-06
2.31823e-06
1.33062e-06
3.05881e-06
2.32086e-06
2.25686e-06
2.30341e-06
2.37905e-06
2.44882e-06
2.37725e-06
2.28441e-06
3.01329e-06
2.28188e-06
2.21731e-06
2.26316e-06
2.33825e-06
2.40749e-06
2.33774e-06
2.25679e-06
3.45787e-06
2.22986e-06
2.23549e-06
2.34585e-06
2.44011e-06
2.47392e-06
2.20738e-06
1.3036e-06
3.35171e-06
2.10694e-06
2.11026e-06
2.21704e-06
2.30769e-06
2.3392e-06
2.06319e-06
1.08469e-06
2.46754e-06
1.90698e-06
1.89018e-06
1.94417e-06
2.02212e-06
2.10925e-06
2.07319e-06
2.06336e-06
2.14082e-06
1.82859e-06
1.83098e-06
1.88195e-06
1.9637e-06
2.07182e-06
2.10873e-06
2.34201e-06
1.93236e-06
1.69862e-06
1.71144e-06
1.76295e-06
1.84684e-06
1.96204e-06
2.02189e-06
2.32172e-06
1.80714e-06
1.59642e-06
1.61593e-06
1.67072e-06
1.75825e-06
1.87791e-06
1.94766e-06
2.263e-06
1.73447e-06
1.53097e-06
1.55435e-06
1.61259e-06
1.70353e-06
1.82628e-06
1.9014e-06
2.21975e-06
1.69434e-06
1.49346e-06
1.5189e-06
1.57957e-06
1.67285e-06
1.7975e-06
1.87566e-06
2.19473e-06
1.67641e-06
1.47649e-06
1.50284e-06
1.56472e-06
1.65913e-06
1.78467e-06
1.86422e-06
2.18364e-06
1.33336e-06
2.32049e-06
2.59921e-06
2.57728e-06
2.51625e-06
2.4708e-06
2.44427e-06
2.43243e-06
2.2863e-06
2.38148e-06
2.45759e-06
2.39757e-06
2.33607e-06
2.29289e-06
2.26641e-06
2.25393e-06
2.25841e-06
2.34161e-06
2.41577e-06
2.35609e-06
2.29481e-06
2.25172e-06
2.22528e-06
2.21282e-06
1.30496e-06
2.20859e-06
2.47814e-06
2.45676e-06
2.39657e-06
2.35163e-06
2.32538e-06
2.31368e-06
)
;
    }
    symmetry
    {
        type            symmetry;
    }
    bottom
    {
        type            calculated;
        value           nonuniform List<scalar> 
32
(
3.95825e-06
2.14117e-06
1.68569e-06
1.49883e-06
1.40261e-06
1.3493e-06
1.32027e-06
1.30735e-06
2.52105e-06
5.10157e-07
2.40323e-07
2.2337e-07
1.98801e-07
1.75829e-07
1.5853e-07
1.48945e-07
2.48782e-06
4.93553e-07
2.28253e-07
2.13791e-07
1.88522e-07
1.64235e-07
1.45553e-07
1.3501e-07
3.80609e-06
1.99945e-06
1.54894e-06
1.36825e-06
1.2762e-06
1.22544e-06
1.19784e-06
1.18555e-06
)
;
    }
}


// ************************************************************************* //
