/*--------------------------------*- C++ -*----------------------------------*\
| =========                 |                                                 |
| \\      /  F ield         | OpenFOAM: The Open Source CFD Toolbox           |
|  \\    /   O peration     | Version:  v1912                                 |
|   \\  /    A nd           | Website:  www.openfoam.com                      |
|    \\/     M anipulation  |                                                 |
\*---------------------------------------------------------------------------*/
FoamFile
{
    version     2.0;
    format      ascii;
    class       volVectorField;
    location    "0.66/solid";
    object      heatFlux;
}
// * * * * * * * * * * * * * * * * * * * * * * * * * * * * * * * * * * * * * //

dimensions      [1 0 -3 0 0 0 0];


internalField   nonuniform List<vector> 
256
(
(-67009.4 67932.4 -70890.7)
(-13131.7 39084.6 -69071)
(12098.7 38722.9 -67939.5)
(61340.2 66030 -67504.9)
(-64618.3 8993.04 -68782)
(-16077.8 5611.41 -69532.4)
(14846.6 5564.18 -68346.4)
(58659.1 8790.6 -65300.5)
(-65816.7 2048.46 -70076)
(-16560.6 1211.53 -71071.2)
(15277.9 1195.3 -69834.1)
(59728.6 1979.01 -66463.9)
(-67694.6 2082.87 -71979.3)
(-16931 1190.83 -73071.2)
(15614.1 1180.97 -71800.3)
(61478.6 2033.72 -68275.5)
(-70389.3 3529.32 -74681.2)
(-17462.5 2193.31 -76000.7)
(16120.8 2185.83 -74706.6)
(64058.5 3493.51 -70913)
(-74345.5 8235.84 -78669)
(-18274.5 6354.18 -80586.7)
(16914.3 6332.71 -79271.2)
(67919.2 8177.64 -74841.2)
(-78908.4 27862.6 -83405.7)
(-19365.6 26693.2 -86707.5)
(17944.3 26507.1 -85365.9)
(72390.7 27362.7 -79509.2)
(-74854.2 79975.5 -79898.8)
(-19630 85224.6 -85164.5)
(17583.8 83921.5 -83872.8)
(68042.2 76216.1 -76180.3)
(-63177.7 35625.4 -17648.2)
(-11660.5 9406.88 -15118.8)
(11126.3 9334.54 -14976.8)
(57785.7 34549.8 -17234.4)
(-63578.8 5156.08 -21908.3)
(-14630.4 1707.86 -19211.5)
(14016.6 1700.03 -19033.7)
(57995.5 5062 -21393.4)
(-65041.6 1162.68 -22551)
(-15116.6 317.428 -19839.2)
(14480.5 313.2 -19652.4)
(59334.9 1122.93 -22012.8)
(-67022.8 1184.27 -22978.9)
(-15479.9 276.458 -20252.1)
(14822.1 272.302 -20061.1)
(61181.2 1145.66 -22432.3)
(-69959.3 2178.99 -23583.3)
(-16028.5 726.433 -20868.3)
(15349.7 721.711 -20675.6)
(63980.4 2142.09 -23037.3)
(-74549.2 6236.82 -24526.2)
(-16937.2 3944.49 -21917.1)
(16237.7 3924 -21724)
(68435.4 6169.22 -23988.7)
(-80602.1 26020.3 -25996.7)
(-18341.4 23778.1 -23768.1)
(17574.4 23582.8 -23575.8)
(74352.8 25480.5 -25475.3)
(-78965.1 83525.2 -27833.2)
(-19374.6 86803.5 -26678.5)
(17940.1 85443.2 -26496.7)
(72396.8 79566.6 -27355.1)
(-56511.5 28376 -4150.03)
(-10460.3 4754.37 -2240.67)
(9983.14 4712.36 -2225.7)
(51292 27402.2 -4089.78)
(-57340.4 4090.29 -5350.57)
(-13203.3 890.925 -3063.42)
(12664.7 888.544 -3043.16)
(51946.8 4012.16 -5272.53)
(-58756 977.784 -5508.27)
(-13662 170.931 -3177.14)
(13104.4 167.9 -3155.84)
(53238.9 940.136 -5427.47)
(-60675.9 1050.54 -5576.48)
(-14013.2 161.766 -3228.16)
(13433.9 157.779 -3206.61)
(55018.3 1009.26 -5496.35)
(-63582.2 1982.09 -5661.51)
(-14554.8 528.297 -3302.68)
(13951.9 523.002 -3281.34)
(57770.3 1937.08 -5585.43)
(-68226.9 5822.4 -5804.11)
(-15472.3 3454.43 -3452.16)
(14842.6 3432.45 -3431.59)
(62244.2 5739.6 -5737.03)
(-74621.5 24555.6 -6217.43)
(-16944.7 21931.8 -3941.63)
(16237.1 21734.4 -3922.71)
(68447.7 23996.3 -6166.32)
(-74476.5 78854.2 -8200.86)
(-18293.5 80737.5 -6338.92)
(16907.2 79391.9 -6321.94)
(67937.1 74931.3 -8167.98)
(-52099.3 26124.8 -1483.52)
(-9736.18 4102.78 -342.077)
(9277.24 4065.68 -338.909)
(47011.9 25187.5 -1456.29)
(-52918.8 3797.84 -1858.38)
(-12323 771.393 -471.748)
(11807.5 769.887 -467.417)
(47666 3724.31 -1824.14)
(-54281.8 936.782 -1901.28)
(-12764.1 152.69 -488.135)
(12230.2 149.751 -483.648)
(48906.6 899.108 -1866.28)
(-56164.3 1031.02 -1913.23)
(-13110 150.925 -493.022)
(12553.9 146.803 -488.569)
(50645.2 987.708 -1879.01)
(-59045.5 1951.36 -1924.79)
(-13648.4 502.436 -500.057)
(13066.9 496.731 -495.786)
(53360 1901.41 -1893.05)
(-63679.1 5680.91 -1954.76)
(-14564.6 3305.54 -525.76)
(13952.8 3282.63 -521.935)
(57798.6 5588.33 -1928.32)
(-70132.8 23623.5 -2147.89)
(-16046.6 20891.3 -721.846)
(15349.7 20692.5 -719.032)
(64020.8 23049.5 -2131.68)
(-70625.7 74964.4 -3471.09)
(-17495.7 76235.7 -2165.97)
(16111.1 74896.6 -2164.67)
(64102.8 71056.6 -3469.21)
(-49447 25034.1 -767.828)
(-9315.69 3940.55 -102.248)
(8868.93 3906.03 -100.442)
(44450 24121.7 -749.664)
(-50239.3 3672.52 -943.406)
(-11812.3 744.866 -136.662)
(11312.3 743.805 -134.19)
(45082.6 3602.17 -920.458)
(-51575.1 922.934 -960.737)
(-12244.4 149.657 -140.278)
(11726.2 146.747 -137.725)
(46297 885.267 -937.258)
(-53441.1 1027.03 -963.493)
(-12588.5 149.844 -140.711)
(12047.9 145.641 -138.184)
(48015.8 982.493 -940.521)
(-56310 1940.56 -966.069)
(-13125.8 495.559 -141.553)
(12558.9 489.636 -139.128)
(50710 1887.77 -944.594)
(-60924.9 5599.3 -981.331)
(-14039.4 3232.64 -151.097)
(13440.1 3209.21 -148.913)
(55114.8 5500.98 -962.906)
(-67359.4 23039.3 -1101.06)
(-15515.9 20291.6 -256.428)
(14827.2 20091.7 -254.82)
(61292.8 22455.5 -1088.73)
(-68098.1 72425.1 -1932.83)
(-16987.1 73453.8 -1107.71)
(15604 72116.4 -1107.21)
(61589.5 68518.9 -1930.41)
(-47855.3 24413.6 -436.252)
(-9068.8 3863.87 -51.0266)
(8629.82 3831.05 -49.885)
(42913.2 23517.3 -425.071)
(-48632.7 3604.93 -532.223)
(-11513.8 733.364 -67.085)
(11023.7 732.605 -65.5078)
(43534.4 3536.72 -517.949)
(-49955.5 916.696 -540.783)
(-11941.1 148.642 -68.5622)
(11433.2 145.757 -66.9286)
(44736.1 879.044 -526.154)
(-51814 1025.69 -541.54)
(-12284.7 149.649 -68.5722)
(11754.1 145.4 -66.9529)
(46444.6 980.373 -527.227)
(-54675.4 1933.52 -542.841)
(-12821.4 492.049 -68.8347)
(12263.9 486.003 -67.2732)
(49125.4 1879.02 -529.431)
(-59271.2 5545.92 -553.372)
(-13732.2 3190.66 -74.0888)
(13141 3166.94 -72.6619)
(53501.8 5444.19 -541.738)
(-65668.9 22672 -629.225)
(-15200.4 19934.7 -134.657)
(14517.4 19734.2 -133.552)
(59628 22082 -621.149)
(-66499 70812.4 -1138.72)
(-16670.1 71743.9 -635.905)
(15288.4 70406.7 -635.475)
(59996.5 66904.6 -1136.8)
(-46942.5 24065.6 -228.232)
(-8929.32 3822.44 -25.9857)
(8494.89 3790.64 -25.3555)
(42031.3 23178.7 -222.236)
(-47712.3 3567.99 -277.537)
(-11345.6 727.331 -33.9892)
(10861.4 726.762 -33.1118)
(42646.9 3501.08 -269.822)
(-49028.8 913.617 -281.692)
(-11770.6 148.169 -34.6845)
(11268.6 145.302 -33.7729)
(43842.3 875.99 -273.766)
(-50883.7 1024.98 -281.933)
(-12113.9 149.572 -34.66)
(11589.2 145.296 -33.7554)
(45545.5 979.216 -274.175)
(-53739.8 1928.72 -282.769)
(-12650.2 490.043 -34.7984)
(12098.3 483.927 -33.9244)
(48217.5 1873.26 -275.491)
(-58320.7 5512.92 -289.192)
(-13558.7 3166.81 -37.6003)
(12972.4 3142.93 -36.7961)
(52573.5 5409.26 -282.853)
(-64686.7 22454 -331.598)
(-15020.2 19729.7 -69.5594)
(14340.7 19528.8 -68.9185)
(58659.5 21860.4 -327.139)
(-65549 69849.2 -609.382)
(-16483.9 70741.3 -336.895)
(15103.1 69404 -336.616)
(59048.6 65939.5 -608.266)
(-46523.9 23907.8 -71.2413)
(-8865.92 3803.9 -8.04189)
(8433.57 3772.58 -7.84074)
(41626.5 23025.3 -69.358)
(-47290.5 3551.47 -86.5057)
(-11269.3 724.665 -10.499)
(10787.8 724.187 -10.2177)
(42239.8 3485.19 -84.0703)
(-48604.3 912.3 -87.7612)
(-11693.2 147.971 -10.7077)
(11194.1 145.113 -10.415)
(43432.5 874.69 -85.2551)
(-50457.5 1024.61 -87.823)
(-12036.5 149.536 -10.6976)
(11514.5 145.248 -10.4069)
(45133.3 978.648 -85.3701)
(-53310.9 1926.26 -88.1242)
(-12572.6 489.109 -10.744)
(12023.2 482.962 -10.4631)
(47800.9 1870.34 -85.8232)
(-57883.8 5497.09 -90.2882)
(-13479.8 3155.9 -11.6311)
(12895.8 3131.94 -11.3722)
(52146.2 5392.54 -88.2845)
(-64232.3 22351.8 -103.954)
(-14937.7 19635.4 -21.6576)
(14259.8 19434.4 -21.4491)
(58210.8 21756.6 -102.543)
(-65104.3 69396.4 -192.406)
(-16397.3 70274.3 -105.956)
(15017 68936.8 -105.861)
(58604.2 65485.6 -192.059)
)
;

boundaryField
{
    interface
    {
        type            calculated;
        value           nonuniform List<vector> 
192
(
(-108080 67932.4 -70890.7)
(-97479.6 8993.04 -68782)
(-98931.4 2048.46 -70076)
(-101958 2082.87 -71979.3)
(-106293 3529.32 -74681.2)
(-112588 8235.84 -78669)
(-119567 27862.6 -83405.7)
(-111267 79975.5 -79898.8)
(-103101 35625.4 -17648.2)
(-97975 5156.08 -21908.3)
(-99932.3 1162.68 -22551)
(-103172 1184.27 -22978.9)
(-107952 2178.99 -23583.3)
(-115320 6236.82 -24526.2)
(-124653 26020.3 -25996.7)
(-119668 83525.2 -27833.2)
(-92143.3 28376 -4150.03)
(-88317.3 4090.29 -5350.57)
(-90233.4 977.784 -5508.27)
(-93374.7 1050.54 -5576.48)
(-98108.3 1982.09 -5661.51)
(-105569 5822.4 -5804.11)
(-115451 24555.6 -6217.43)
(-112821 78854.2 -8200.86)
(-84762.8 26124.8 -1483.52)
(-81229.3 3797.84 -1858.38)
(-83075 936.782 -1901.28)
(-86151.9 1031.02 -1913.23)
(-90842.2 1951.36 -1924.79)
(-98283.8 5680.91 -1954.76)
(-108266 23623.5 -2147.89)
(-106712 74964.4 -3471.09)
(-80297.1 25034.1 -767.828)
(-76888.5 3672.52 -943.406)
(-78697.9 922.934 -960.737)
(-81745.5 1027.03 -963.493)
(-86413.4 1940.56 -966.069)
(-93823.1 5599.3 -981.331)
(-103779 23039.3 -1101.06)
(-102674 72425.1 -1932.83)
(-77606 24413.6 -436.252)
(-74270.4 3604.93 -532.223)
(-76063.3 916.696 -540.783)
(-79097 1025.69 -541.54)
(-83751 1933.52 -542.841)
(-91128.5 5545.92 -553.372)
(-101027 22672 -629.225)
(-100109 70812.4 -1138.72)
(-76058.6 24065.6 -228.232)
(-72764.8 3567.99 -277.537)
(-74549.9 913.617 -281.692)
(-77576.6 1024.98 -281.933)
(-82221 1928.72 -282.769)
(-89573.4 5512.92 -289.192)
(-99422.6 22454 -331.598)
(-98581.5 69849.2 -609.382)
(-75347.8 23907.8 -71.2413)
(-72073.1 3551.47 -86.5057)
(-73854.9 912.3 -87.7612)
(-76878.5 1024.61 -87.823)
(-81518 1926.26 -88.1242)
(-88856.7 5497.09 -90.2882)
(-98678.4 22351.8 -103.954)
(-97864.9 69396.4 -192.406)
(-67009.4 67932.4 -112795)
(-64618.3 8993.04 -101936)
(-65816.7 2048.46 -103492)
(-67694.6 2082.87 -106559)
(-70389.3 3529.32 -110905)
(-74345.5 8235.84 -117238)
(-78908.4 27862.6 -124356)
(-74854.2 79975.5 -116013)
(-13131.7 39084.6 -111840)
(-16077.8 5611.41 -106011)
(-16560.6 1211.53 -108033)
(-16931 1190.83 -111301)
(-17462.5 2193.31 -116064)
(-18274.5 6354.18 -123398)
(-19365.6 26693.2 -132658)
(-19630 85224.6 -126723)
(12098.7 38722.9 -109835)
(14846.6 5564.18 -103960)
(15277.9 1195.3 -105896)
(15614.1 1180.97 -109103)
(16120.8 2185.83 -113824)
(16914.3 6332.71 -121117)
(17944.3 26507.1 -130325)
(17583.8 83921.5 -124472)
(61340.2 66030 -106763)
(58659.1 8790.6 -95887.4)
(59728.6 1979.01 -97223.8)
(61478.6 2033.72 -100125)
(64058.5 3493.51 -104346)
(67919.2 8177.64 -110554)
(72390.7 27362.7 -117521)
(68042.2 76216.1 -109468)
(98158.1 66030 -67504.9)
(87226.2 8790.6 -65300.5)
(88482.1 1979.01 -66463.9)
(91297.9 2033.72 -68275.5)
(95436.3 3493.51 -70913)
(101564 8177.64 -74841.2)
(108411 27362.7 -79509.2)
(100099 76216.1 -76180.3)
(93252.1 34549.8 -17234.4)
(87879.9 5062 -21393.4)
(89626.6 1122.93 -22012.8)
(92631.7 1145.66 -22432.3)
(97170.9 2142.09 -23037.3)
(104299 6169.22 -23988.7)
(113425 25480.5 -25475.3)
(108427 79566.6 -27355.1)
(82576.9 27402.2 -4089.78)
(78521 4012.16 -5272.53)
(80223.6 940.136 -5427.47)
(83119.6 1009.26 -5496.35)
(87583.2 1937.08 -5585.43)
(94743.2 5739.6 -5737.03)
(104324 23996.3 -6166.32)
(101605 74931.3 -8167.98)
(75432.6 25187.5 -1456.29)
(71679.6 3724.31 -1824.14)
(73313.3 899.108 -1866.28)
(76139.2 987.708 -1879.01)
(80538.2 1901.41 -1893.05)
(87636.6 5588.33 -1928.32)
(97248.4 23049.5 -2131.68)
(95531 71056.6 -3469.21)
(71127.7 24121.7 -749.664)
(67506.1 3602.17 -920.458)
(69105 885.267 -937.258)
(71895.4 982.493 -940.521)
(76257.2 1887.77 -944.594)
(83297.2 5500.98 -962.906)
(92839.2 22455.5 -1088.73)
(91518.9 68518.9 -1930.41)
(68533.7 23517.3 -425.071)
(64988.9 3536.72 -517.949)
(66571.3 879.044 -526.154)
(69342.7 980.373 -527.227)
(73679.9 1879.02 -529.431)
(80671 5444.19 -541.738)
(90130.6 22082 -621.149)
(88964.7 66904.6 -1136.8)
(67040.6 23178.7 -222.236)
(63539.7 3501.08 -269.822)
(65114 875.99 -273.766)
(67875.5 979.216 -274.175)
(72196.6 1873.26 -275.491)
(79152.7 5409.26 -282.853)
(88547.9 21860.4 -327.139)
(87439.8 65939.5 -608.266)
(66354.1 23025.3 -69.358)
(62873.1 3485.19 -84.0703)
(64444.1 874.69 -85.2551)
(67201 978.648 -85.3701)
(71514.1 1870.34 -85.8232)
(78452 5392.54 -88.2845)
(87812.7 21756.6 -102.543)
(86723.4 65485.6 -192.059)
(-74854.2 116136 -79898.8)
(-78965.1 124564 -27833.2)
(-74476.5 117566 -8200.86)
(-70625.7 111410 -3471.09)
(-68098.1 107354 -1932.83)
(-66499 104769 -1138.72)
(-65549 103222 -609.382)
(-65104.3 102493 -192.406)
(-19630 126826 -85164.5)
(-19374.6 132833 -26678.5)
(-18293.5 123673 -6338.92)
(-17495.7 116492 -2165.97)
(-16987.1 111994 -1107.71)
(-16670.1 109210 -635.905)
(-16483.9 107571 -336.895)
(-16397.3 106806 -105.956)
(17583.8 124557 -83872.8)
(17940.1 130467 -26496.7)
(16907.2 121339 -6321.94)
(16111.1 114172 -2164.67)
(15604 109679 -1107.21)
(15288.4 106897 -635.475)
(15103.1 105258 -336.616)
(15017 104493 -105.861)
(68042.2 109530 -76180.3)
(72396.8 117627 -27355.1)
(67937.1 110720 -8167.98)
(64102.8 104611 -3469.21)
(61589.5 100571 -1930.41)
(59996.5 97990.1 -1136.8)
(59048.6 96443.2 -608.266)
(58604.2 95714.3 -192.059)
)
;
    }
    symmetry
    {
        type            symmetry;
    }
    bottom
    {
        type            calculated;
        value           nonuniform List<vector> 
32
(
(-67009.4 120307 -70890.7)
(-63177.7 62334.5 -17648.2)
(-56511.5 49714.1 -4150.03)
(-52099.3 45734.3 -1483.52)
(-49447 43780.1 -767.828)
(-47855.3 42663 -436.252)
(-46942.5 42035.1 -228.232)
(-46523.9 41750.1 -71.2413)
(-13131.7 68429.6 -69071)
(-11660.5 15825.6 -15118.8)
(-10460.3 7954.58 -2240.67)
(-9736.18 6862.93 -342.077)
(-9315.69 6586.27 -102.248)
(-9068.8 6453.94 -51.0266)
(-8929.32 6382.16 -25.9857)
(-8865.92 6350 -8.04189)
(12098.7 67780 -67939.5)
(11126.3 15692.4 -14976.8)
(9983.14 7872.97 -2225.7)
(9277.24 6789.62 -338.909)
(8868.93 6517.33 -100.442)
(8629.82 6387.85 -49.885)
(8494.89 6317.79 -25.3555)
(8433.57 6286.43 -7.84074)
(61340.2 116825 -67504.9)
(57785.7 60331 -17234.4)
(51292 47887.1 -4089.78)
(47011.9 43971.9 -1456.29)
(44450 42062 -749.664)
(42913.2 40973.2 -425.071)
(42031.3 40361.7 -222.236)
(41626.5 40084.3 -69.358)
)
;
    }
}


// ************************************************************************* //
