/*--------------------------------*- C++ -*----------------------------------*\
| =========                 |                                                 |
| \\      /  F ield         | OpenFOAM: The Open Source CFD Toolbox           |
|  \\    /   O peration     | Version:  v1912                                 |
|   \\  /    A nd           | Website:  www.openfoam.com                      |
|    \\/     M anipulation  |                                                 |
\*---------------------------------------------------------------------------*/
FoamFile
{
    version     2.0;
    format      ascii;
    class       volSymmTensorField;
    location    "0.66/solid";
    object      sigma;
}
// * * * * * * * * * * * * * * * * * * * * * * * * * * * * * * * * * * * * * //

dimensions      [1 -1 -2 0 0 0 0];


internalField   nonuniform List<symmTensor> 
256
(
(-171028 27685.6 -10558.5 460058 30951 -182632)
(78336 -6970.13 -4423.88 293393 30648.2 -222727)
(80088.7 7360.3 4247.99 290482 30784.3 -217919)
(-145124 -26527.5 10476.7 451700 31469.2 -167117)
(-202509 -415.178 -16030.6 167047 3292.8 -208610)
(-25777 -5061.01 -7271.28 91630.8 4818.43 -266515)
(-22691.4 5975.41 7145.54 90750.9 4996.63 -261133)
(-173921 890.134 15954.2 167183 3862.23 -191906)
(-203794 -4284.17 -17217.2 163533 -672.638 -209446)
(-39054.1 -4327.5 -7963.81 58821.3 -368.987 -275541)
(-35984.4 5179.08 7905.36 58247.9 -248.909 -270004)
(-174886 4621.86 17161.6 163922 -278.125 -192461)
(-201495 -2746.85 -17845.4 182461 668.483 -209962)
(-30835.2 -3209.87 -8287.56 49151.3 335.269 -280756)
(-27784.8 3845.03 8254.62 48674.1 410.359 -275105)
(-172158 3019.19 17801 182867 930.324 -192688)
(-207448 -314.317 -18508.5 189175 3583.1 -218121)
(-28420.6 -1607.77 -8649.33 39987.7 3085.34 -292814)
(-25332.2 2028.43 8618.56 39536.1 3135.52 -287066)
(-177594 505.099 18471 189683 3764.49 -200546)
(-228213 4269.24 -19095.6 167783 8836.05 -238123)
(-45039.7 1237.18 -8999.37 15805.2 8536.63 -318608)
(-41926.4 -1087.57 8964.12 15403.5 8571.39 -312761)
(-197876 -4208.05 19066.8 168530 8963.6 -220195)
(-262769 12862 -18981.2 57473.5 17249.1 -269372)
(-81361.1 5805.06 -8979.57 -77131 17984.4 -359214)
(-78183.9 -6103.19 8939.56 -76719.5 18001.1 -353196)
(-231924 -12991.5 18962 60370 17318.4 -250887)
(-189473 17471.5 -17410.6 -195734 21485.9 -195506)
(35786.1 8317.04 -8256.15 -280275 23244.6 -279912)
(38900.1 -8185.8 8200.59 -274517 23250.1 -274180)
(-158706 -17399.9 17385.4 -178039 21517.1 -177931)
(-211227 16687.5 -8012.88 227148 -1235.64 59019.2)
(-33958 -9603.08 -2447.49 51974.6 11786.5 -39731.2)
(-32411 10034 2756.71 49180.4 12406.1 -40003.2)
(-185751 -15542.3 8144.15 219401 609.727 60306)
(-248089 -2270.12 -12232.7 65319.8 3757.47 -14778.8)
(-130538 -5573.8 -4933.63 -41975.9 10509.2 -131671)
(-127458 6197.35 5414.65 -43028.4 10892.8 -131015)
(-219788 2580.35 12416.8 65088.3 4953.02 -11205)
(-254725 -4462.4 -12789.9 49519.2 3413.6 -23875.8)
(-152535 -4302.93 -5348.45 -86466 5554.89 -156049)
(-149399 4747.28 5907.69 -86917.9 5817.19 -155346)
(-225982 4608.03 12994.9 50189 4262.22 -20448.2)
(-256983 -2902.58 -12953.8 49827.7 3976.01 -21827.7)
(-153028 -3194.96 -5360.48 -113653 4343.26 -163532)
(-149886 3460.43 5958.43 -113885 4530.96 -162858)
(-227741 3015.6 13173.5 50781.3 4596.21 -18566.3)
(-266822 -555.229 -13282.8 47596 7864.18 -24022.7)
(-157549 -1705.18 -5538.46 -132907 7695.65 -173095)
(-154358 1828.32 6146.02 -133100 7831.32 -172448)
(-236963 627.126 13512.9 48669.4 8313.97 -20827.6)
(-292937 4175.59 -13579.1 28998.9 14141.9 -37651.3)
(-181101 1108.63 -5776.48 -155914 13864.8 -194966)
(-177877 -1184.36 6376.18 -156081 13958.3 -194349)
(-262444 -4198.36 13818.3 30237 14451.6 -34461.5)
(-336528 13508 -13440.3 -61605.2 19218.7 -62580.7)
(-224445 5896.42 -5799.52 -227844 19243.1 -228281)
(-221156 -6341.61 6370.93 -227232 19291.2 -227613)
(-305378 -13693.2 13682 -58300.8 19387.2 -59149.1)
(-263075 19017 -12757.6 -269592 17366.7 57252.3)
(-81295.3 9012.95 -5655.69 -359478 18078.7 -76711.7)
(-78081 -8927.93 6159.59 -353385 18093.1 -76218.4)
(-231980 -18969.2 12976.6 -250858 17424.6 60327.5)
(-186799 9350 -3254.37 157317 10771.4 104488)
(-32811.3 -12716.7 -329.178 -1913.78 22945.4 -2256.25)
(-31250.6 12864.5 529.67 -4434.8 23365.8 -2921.73)
(-161906 -8356.4 3307.19 150532 12067 104852)
(-206720 -3226.54 -4770.73 54138.5 13873.7 71464.6)
(-94978.4 -6206.18 -1187.9 -51595.8 20033.7 -60210.6)
(-92017.2 6631.37 1495.91 -52714 20374.3 -60201.3)
(-179287 3456 4866.85 53689.2 14936 73437.7)
(-211082 -4256.99 -4658.44 52047.2 12446.2 59483.9)
(-110983 -4207.92 -1213.5 -79835.2 14452.4 -88502.9)
(-107973 4471.58 1540.05 -80404.1 14726.4 -88460.5)
(-183221 4329.18 4765.87 52335 13306.3 61246.1)
(-213566 -2833.31 -4436.73 55805.7 11455.2 57182.7)
(-111564 -3160.13 -1039.87 -100621 11830.1 -101108)
(-108542 3260.99 1369.31 -100957 12048.9 -101112)
(-185181 2881.48 4547.78 56399 12144.4 58714.1)
(-223276 -603.364 -4376.68 57174.3 13177 53684.4)
(-116125 -1811.97 -1002.42 -115270 13070.5 -113065)
(-113037 1798.08 1328.58 -115547 13241.5 -113115)
(-194197 626.088 4490.56 57921.5 13712.4 55081.7)
(-248954 4218.35 -4347.61 45855.9 15786.3 41882.8)
(-138596 1000.01 -1059.19 -130743 15547.2 -134038)
(-135446 -1178.69 1373.11 -130980 15672.9 -134128)
(-219074 -4272.32 4464.18 46798 16177.1 43237.6)
(-293025 13644.7 -4284.8 -35636.3 14950 27051.5)
(-180375 5852.94 -1143.32 -193322 14638.5 -157011)
(-177120 -6365.64 1419.82 -192759 14714.5 -157043)
(-262233 -13844.9 4397.14 -32575.9 15191.2 28657.6)
(-228539 19126.9 -4320.03 -238185 9302.48 168030)
(-44133.7 9018.41 -1209.4 -318582 8978.31 16981.3)
(-40952.6 -8952.64 1388.25 -312606 9003.51 16751.3)
(-197650 -19079.6 4401.32 -219850 9388.71 169215)
(-170092 6374.99 -873.241 129873 14681 101125)
(-28803.1 -13698.6 594.85 -17139.6 22001.8 -2214.56)
(-27255.4 13600 -440.842 -19449.2 22289.1 -2773.53)
(-145690 -5535.44 901.371 123876 15590.5 101830)
(-182145 -3385.27 -1070.06 44019.3 17719.4 86400.4)
(-75709.6 -6313.6 723.083 -57580.6 21397.7 -43538.1)
(-72812.6 6571.79 -482.249 -58592.8 21660.8 -43471.4)
(-155350 3547.74 1128.57 43798.7 18541.9 88525)
(-184947 -3883.24 -746.193 49892.7 17003.8 75146.3)
(-87496.5 -4002.32 908.027 -76088.6 18147.6 -70510.8)
(-84547.5 4155.08 -669.737 -76627.9 18380.1 -70411)
(-157737 3915.93 809.892 50194.6 17725.4 77047.8)
(-187513 -2577.34 -438.64 60117.6 15506.5 68456.7)
(-87682 -3012.26 1112.79 -88346.2 15614.7 -87085)
(-84713.4 3033.54 -892.208 -88681.7 15814.5 -87025.6)
(-159762 2596.69 499.048 60647.4 16124.1 70130.6)
(-197280 -475.664 -255.937 66505.9 14827.7 62045.5)
(-92287.6 -1787.1 1217.93 -97054.8 14663.7 -101962)
(-89242.7 1714.38 -1012.65 -97332.3 14828.7 -101950)
(-168775 478.789 313.088 67182.2 15334.2 63574.6)
(-222656 4247.15 -168.07 58478.1 13714.6 51704.5)
(-114178 919.497 1214.41 -109173 13531.8 -121584)
(-111051 -1139.92 -1027.17 -109399 13658.3 -121611)
(-193232 -4310.68 222.427 59373.8 14101.1 53183.1)
(-266117 13378.2 -224.994 -20827.8 9716.19 45246.7)
(-154485 5598.6 1087.91 -170412 9462.34 -136136)
(-151224 -6139.83 -942.377 -169828 9542.47 -136100)
(-235593 -13579.2 269.954 -17781.5 9965.77 46973.9)
(-206612 18581.7 -413.085 -217655 4640.5 192404)
(-24363.8 8672.24 1020.83 -292200 4169.55 42325.5)
(-21166.8 -8619.36 -976.692 -286255 4194.95 42148.7)
(-175827 -18532.3 423.294 -199470 4725.67 193650)
(-160982 5488.08 -147.025 117266 13608.8 93788)
(-27845 -13540.9 638.488 -22586.4 17266.4 -4402.75)
(-26322 13286 -519.186 -24746 17468.7 -4870.78)
(-136915 -4757.5 170.116 111863 14250.6 94787.6)
(-170661 -3217.39 23.6179 36893.7 16199.9 84252.4)
(-69545.1 -6119.57 1013.7 -61038.2 17968.8 -38864.9)
(-66710.6 6258.42 -818.431 -61952.2 18162.1 -38709.3)
(-144297 3329.32 24.4573 36931.4 16803.5 86626.5)
(-173005 -3553.39 313.971 45363.7 16420 74663.7)
(-79646.3 -3796.43 1221.09 -75802.5 16878.6 -63051.9)
(-76757.2 3869.75 -1028.21 -76296.7 17056.8 -62864.3)
(-146234 3558.2 -262.6 45774.1 16972 76805.7)
(-175744 -2332.53 555.802 59230.1 15190.3 66564.6)
(-79748.5 -2868.17 1375.22 -83209.5 15118.5 -80421)
(-76833.9 2839.77 -1203.83 -83531 15278.2 -80270.9)
(-148415 2334.83 -509.784 59788.8 15682.5 68481.9)
(-185656 -340.95 710.825 68687.6 13370.4 59087.8)
(-84502.6 -1735.17 1457.75 -88254.3 13209.6 -96077.6)
(-81505.2 1631.4 -1306.93 -88528.6 13346.4 -95973.4)
(-157533 334.413 -670.849 69362.4 13789.3 60857.5)
(-210844 4227.35 766.181 61864.9 10549.4 50478.3)
(-106108 847.451 1451.41 -99215.3 10464.7 -113879)
(-103018 -1087.94 -1322.31 -99437.8 10572.3 -113813)
(-181729 -4294.36 -732.117 62760.2 10878.9 52191.3)
(-253628 13055.8 671.712 -16348.8 6084.37 48613.3)
(-145462 5343.26 1337.65 -160267 6000.96 -123998)
(-142217 -5899.51 -1248.76 -159674 6070.39 -123866)
(-223296 -13256.1 -649.328 -13291.2 6302.08 50566.3)
(-196779 18042.7 500.939 -207439 2500.63 194832)
(-19607 8347.29 1288.9 -278679 2201.37 51819.8)
(-16415.2 -8304.81 -1288.46 -272744 2223.19 51733.9)
(-166071 -17993.6 -511.29 -189304 2573.84 196264)
(-155699 5288.09 -14.6238 111300 10589 89073.9)
(-27925.6 -13167.3 415.634 -24837.2 12286 -5626.46)
(-26419.7 12819.3 -330.833 -26891.2 12421.9 -6038.8)
(-131827 -4625.91 33.239 106319 11015.6 90273.6)
(-164820 -3017.85 150.524 33392.4 12334.3 80649.1)
(-67984.4 -5903.13 704.195 -62267.5 13086.9 -37185.3)
(-65194.9 5965.86 -559.756 -63111.1 13219 -36970.5)
(-138712 3096.81 -111.634 33637.1 12745 83215.3)
(-167164 -3329.24 341.695 42467.6 12828 72412)
(-77622.8 -3651.61 849.823 -75702.7 12949.3 -59122.9)
(-74777.9 3669.83 -704.23 -76161.5 13073.7 -58876.7)
(-140653 3314.49 -299.753 42986.4 13212.9 74743.6)
(-170068 -2169.5 491.866 57590.5 12006.4 64706.7)
(-77815.1 -2777.32 941.191 -81194 11892.6 -75680.6)
(-74941.1 2713.34 -812.681 -81503 12006.5 -75471.8)
(-142984 2159.67 -454.56 58198.2 12358.3 66812.2)
(-180073 -255.896 586.634 68252.3 10180.7 57607.5)
(-82689.9 -1704.54 985.394 -84709.6 10071.3 -90774.6)
(-79728.9 1579.06 -875.736 -84982.9 10171 -90611.4)
(-152167 242.652 -555.325 68945 10487.5 59562)
(-205098 4192.54 610.503 61887.5 7387.67 50377)
(-104110 792.253 973.429 -95275.9 7379.61 -107175)
(-101050 -1046.47 -883.943 -95500.4 7459.51 -107050)
(-176155 -4262.19 -585.505 62791.3 7633.93 52269.1)
(-247352 12823.1 534 -15212.2 3817.78 50396.7)
(-142871 5175.38 896.901 -155821 3848.92 -115582)
(-139645 -5742.31 -840.468 -155229 3901.04 -115389)
(-217123 -13023.8 -519.705 -12145.5 3983.13 52519)
(-191940 17687.7 410.788 -201742 1453.14 194251)
(-19570.5 8143.09 860.391 -271174 1322.8 56961.3)
(-16387.9 -8108.81 -871.536 -265243 1339.34 56934.4)
(-161264 -17640.3 -422.708 -183625 1508.95 195826)
(-152613 5246.18 -8.60839 108600 6649.19 86619.9)
(-28081.9 -12903.2 208.82 -25737.6 7391 -6283.28)
(-26584.7 12503.2 -158.182 -27723.5 7469.32 -6662.66)
(-128843 -4623.25 20.6468 103889 6892.59 87945)
(-161626 -2888.69 76.8632 32012.6 7599.56 78339.9)
(-67618.7 -5765.66 359.226 -62514.8 7894.17 -36672.6)
(-64855 5784.63 -270.667 -63312.6 7971.16 -36422.2)
(-135655 2948.67 -51.4572 32400.2 7837.38 81034.5)
(-164056 -3202.78 175.966 41156.6 7962.02 70953.2)
(-77191 -3571.72 435.308 -75465.9 7972.85 -57258.5)
(-74371.7 3555.87 -344.344 -75900.3 8046.06 -56976.3)
(-137684 3175.88 -148.144 41758.1 8188.33 73415.7)
(-167068 -2080.7 252.633 56494.3 7493.46 64053.2)
(-77488.4 -2732.59 479.448 -80403 7411.97 -72805.9)
(-74638 2644.8 -398.772 -80702.3 7479.88 -72561.6)
(-140115 2062.67 -227.685 57145.4 7703.63 66287.6)
(-177110 -213.23 299.38 67430.5 6257.11 57707.6)
(-82427.9 -1693.26 497.889 -83482.8 6201.67 -87080.5)
(-79488.3 1552.29 -429.877 -83754.7 6261.84 -86882.5)
(-149318 195.04 -278.599 68143.8 6442.96 59787.4)
(-202011 4165.77 307.692 61246.7 4380.03 51344.1)
(-103726 758.695 488.105 -93907.6 4400.23 -102636)
(-100683 -1023.13 -434.031 -94134.1 4448.95 -102476)
(-173156 -4237.84 -291.503 62161.1 4531.17 53356.1)
(-243921 12690.1 263.35 -14951.7 2173.14 51986.5)
(-142139 5087.57 447.436 -153874 2230.34 -110521)
(-138924 -5662.34 -414.918 -153283 2262.38 -110294)
(-213742 -12891.9 -254.477 -11876.9 2275.72 54221.1)
(-189257 17495 189.916 -198453 795.518 193999)
(-20196.2 8038.2 423.13 -266960 755.745 59806.2)
(-17018.9 -8009.69 -432.85 -261032 765.993 59813.8)
(-158588 -17449.4 -197.823 -180340 830.34 195670)
(-151156 5232.18 -5.05254 107575 2261.3 85604.6)
(-28140.8 -12783.2 61.5793 -26026.5 2472.57 -6584.01)
(-26647.1 12360 -44.745 -27978.9 2498.16 -6947.74)
(-127430 -4627.12 9.18563 102995 2340.36 86990.2)
(-160144 -2832.47 18.7327 31590.2 2558.38 77322.1)
(-67508 -5706.09 105.616 -62495.7 2636.29 -36575.8)
(-64755.8 5705.28 -75.7917 -63270.7 2661.56 -36308.3)
(-134233 2883.9 -9.94387 32050.4 2636.17 80080.8)
(-162627 -3148.46 48.333 40709.3 2682.13 70342.2)
(-77088.3 -3538.81 128.184 -75286.6 2678.17 -56554.9)
(-74280.5 3506.87 -97.231 -75708.6 2702.33 -56255.3)
(-136315 3115.85 -38.6163 41354.9 2756.74 72871.5)
(-165688 -2043.26 71.362 56007.3 2528.63 63960.1)
(-77443.8 -2715.66 140.911 -80119 2500.7 -71510.9)
(-74603.8 2615.92 -113.329 -80413 2523.23 -71249.5)
(-138792 2021.09 -62.5927 56683.4 2598.43 66260.4)
(-175740 -196.324 85.105 66944.8 2100.56 58106.1)
(-82408.2 -1690.5 145.666 -83130.8 2084.56 -85281)
(-79477.9 1541.27 -122.49 -83401.6 2104.64 -85066.3)
(-147997 175.437 -77.8041 67671.2 2162.71 60249.7)
(-200576 4152.67 87.0442 60822.7 1453.25 52150.4)
(-103645 743.769 142.12 -93510.1 1464.33 -100448)
(-100609 -1013.86 -123.88 -93737.4 1480.67 -100272)
(-171757 -4226.21 -81.4 61744 1504.11 54223)
(-242319 12632.2 72.9553 -14895.8 714.107 52958.5)
(-141897 5052.09 129.694 -153127 739.36 -108207)
(-138686 -5631.14 -118.922 -152537 750.148 -107964)
(-212158 -12834.8 -69.8876 -11816 748.812 55249.5)
(-187975 17413.3 48.5848 -196908 256.997 194047)
(-20530.8 7995.82 121.031 -265030 250.09 61074.5)
(-17355.6 -7970.34 -124.616 -259102 253.554 61098.3)
(-157305 -17368.8 -51.2735 -178796 268.814 195766)
)
;

boundaryField
{
    interface
    {
        type            calculated;
        value           nonuniform List<symmTensor> 
192
(
(-42.5803 0.354122 2.80517 919338 30951 276648)
(-44.3448 0.298569 4.51968 601959 3292.8 226302)
(-45.8856 0.00575537 5.10925 604180 -672.638 231201)
(-46.8525 -0.427096 5.25374 632933 668.483 240510)
(-47.122 -0.800872 5.19131 657677 3583.1 250381)
(-48.0046 -1.46553 5.04568 667670 8836.05 261763)
(-46.4165 -1.96795 4.64841 597096 17249.1 270250)
(-49.9639 -4.38846 4.33921 282829 21485.9 283057)
(-41.4779 0.253953 1.37815 685874 -1235.64 517746)
(-42.294 0.218175 2.38199 521536 3757.47 441437)
(-43.2204 -0.0433362 2.66261 515570 3413.6 442175)
(-43.87 -0.485045 2.67966 528417 3976.01 456762)
(-43.8935 -0.881076 2.5793 547473 7864.18 475854)
(-44.6722 -1.61499 2.43393 566381 14141.9 499731)
(-42.8073 -2.17201 2.17768 527792 19218.7 526816)
(-46.466 -4.71428 1.97246 270518 17366.7 597363)
(-44.0688 0.217237 1.0838 566438 10771.4 513609)
(-44.7878 0.178778 1.8507 458133 13873.7 475459)
(-45.7016 -0.0780207 2.06071 464753 12446.2 472190)
(-46.3639 -0.543053 2.06798 480795 11455.2 482173)
(-46.3036 -0.977407 1.98569 503231 13177 499741)
(-46.9965 -1.79286 1.86822 529563 15786.3 525590)
(-44.6831 -2.43164 1.68178 502251 14950 564939)
(-48.1064 -5.14494 1.52424 262671 9302.48 668886)
(-44.2793 0.163657 0.661217 505475 14681 476727)
(-44.8103 0.10454 1.1946 412167 17719.4 454548)
(-45.531 -0.153224 1.33358 425832 17003.8 451086)
(-46.0836 -0.62435 1.32549 448146 15506.5 456485)
(-45.908 -1.07596 1.25565 475471 14827.7 471011)
(-46.5249 -1.92693 1.16448 504896 13714.6 498122)
(-44.0522 -2.60243 1.04515 479868 9716.19 545942)
(-47.411 -5.35883 0.949283 251989 4640.5 662048)
(-45.0639 0.138018 0.482848 473014 13608.8 449536)
(-45.5397 0.0584711 0.872838 384616 16199.9 431975)
(-46.1745 -0.208287 0.975195 400553 16420 429853)
(-46.6773 -0.68928 0.969102 426477 15190.3 433812)
(-46.4263 -1.15889 0.917571 456854 13370.4 447254)
(-46.9684 -2.04027 0.849719 487289 10549.4 475903)
(-44.3223 -2.74931 0.765909 462969 6084.37 527931)
(-47.5406 -5.54906 0.696634 243567 2500.63 645839)
(-45.2718 0.118038 0.294381 455174 10589 432947)
(-45.6979 0.02148 0.550422 369262 12334.3 416518)
(-46.258 -0.253495 0.618157 385744 12828 415688)
(-46.7123 -0.740459 0.612673 412946 12006.4 420062)
(-46.4064 -1.22023 0.577124 444517 10180.7 433872)
(-46.9028 -2.11713 0.531381 475225 7387.67 463715)
(-44.1744 -2.84377 0.479395 451589 3817.78 517198)
(-47.3381 -5.66543 0.437943 238031 1453.14 634025)
(-45.5296 0.108283 0.1725 445623 6649.19 423644)
(-45.938 8.96925e-05 0.32221 361136 7599.56 407463)
(-46.4586 -0.282047 0.362132 377696 7962.02 407492)
(-46.8863 -0.774058 0.359075 405134 7493.46 412693)
(-46.5455 -1.26152 0.338507 436961 6257.11 427238)
(-47.0072 -2.16916 0.311475 467708 4380.03 457805)
(-44.2143 -2.90821 0.281969 444648 2173.14 511586)
(-47.326 -5.74622 0.25714 234714 795.518 627166)
(-45.5932 0.102219 0.0510117 441436 2261.3 419465)
(-45.9889 -0.0119274 0.098853 357608 2558.38 403340)
(-46.4877 -0.297198 0.111779 374154 2682.13 403787)
(-46.9004 -0.790873 0.110595 401562 2528.63 409515)
(-46.5445 -1.28147 0.103877 433377 2100.56 424539)
(-46.9899 -2.19309 0.0950406 464109 1453.25 455437)
(-44.1775 -2.93785 0.0861951 441359 714.107 509213)
(-47.2629 -5.78269 0.0783652 233150 256.997 624105)
(310076 27685.6 -3.95647 941163 -0.93101 -15.729)
(250948 -415.178 -6.6975 620505 -1.09147 -11.483)
(255579 -4284.17 -7.74885 622906 -0.900411 -7.63067)
(269055 -2746.85 -8.10048 653011 -0.650059 -6.18098)
(282120 -314.317 -8.19756 678742 -0.544042 -5.9658)
(292544 4269.24 -8.2784 688541 -0.582864 -6.74705)
(296801 12862 -8.39622 617044 -0.715404 -8.72283)
(308643 17471.5 -9.1835 302382 -0.928553 -10.4058)
(573210 -6970.13 -2.37901 788268 -0.552681 -19.9534)
(467047 -5061.01 -4.53875 584455 -0.810854 -18.9978)
(464860 -4327.5 -5.29769 562736 -0.681641 -17.7128)
(486984 -3209.87 -5.51511 566970 -0.407061 -17.3075)
(511576 -1607.77 -5.5756 579985 -0.229698 -17.2522)
(532206 1237.18 -5.68674 593051 -0.13749 -17.5748)
(546358 5805.06 -5.97359 550588 -0.155395 -18.228)
(608324 8317.04 -7.02116 292263 -0.238822 -18.6404)
(565744 7360.3 -2.39884 776137 -0.394857 -17.0884)
(460501 5975.41 -4.61802 573944 -0.634792 -16.3588)
(457926 5179.08 -5.43129 552158 -0.530757 -15.1632)
(479766 3845.03 -5.67389 556225 -0.240252 -14.749)
(504203 2028.43 -5.72976 569072 -0.0171842 -14.7141)
(524669 -1087.57 -5.80624 581999 0.16276 -15.0253)
(538625 -6103.19 -6.02976 540090 0.260872 -15.7495)
(600941 -8185.8 -7.02679 287523 0.270345 -16.5923)
(307787 -26527.5 -2.68901 904610 -0.317418 -17.4711)
(250772 890.134 -5.3224 591876 -0.526775 -17.0393)
(254818 4621.86 -6.35204 593626 -0.420903 -16.0182)
(268006 3019.19 -6.67645 623031 -0.113979 -15.7239)
(281011 505.099 -6.74659 648288 0.126517 -15.7752)
(291321 -4208.05 -6.83925 657727 0.347207 -16.0427)
(295312 -12991.5 -7.00396 587605 0.511412 -16.5675)
(308499 -17399.9 -8.03869 289165 0.66708 -17.2246)
(-8.50057 0.823857 0.808453 864457 31469.2 245640)
(-5.55037 0.973418 1.57952 553240 3862.23 194151)
(-2.80581 0.614067 1.82239 554879 -278.125 198497)
(-1.50933 0.0544177 1.92024 582713 930.324 207158)
(-1.15308 -0.239169 1.97856 606638 3764.49 216410)
(0.172357 -0.648663 2.19341 616062 8963.6 227337)
(-0.580041 -0.616017 2.356 546947 17318.4 235690)
(8.07596 -2.82532 2.92226 247476 21517.1 247584)
(-13.1345 0.330264 -0.265961 632046 609.727 472951)
(-12.5365 0.417776 -0.178345 473135 4953.02 396841)
(-11.7174 0.228681 -0.232388 467128 4262.22 396491)
(-11.1588 -0.108029 -0.242976 479207 4596.21 409860)
(-11.0135 -0.207998 -0.18877 497259 8313.97 427762)
(-9.47375 -0.461412 0.0353958 515207 14451.6 450508)
(-9.60632 -0.195937 0.312006 477662 19387.2 476813)
(-0.538103 -2.27861 0.762751 235801 17424.6 546986)
(-13.4056 0.181203 -0.102669 514832 12067 469152)
(-12.9731 0.202997 0.0794884 410953 14936 430701)
(-12.3315 0.0877956 0.142197 417366 13306.3 426277)
(-11.7088 -0.136363 0.192328 432613 12144.4 434928)
(-11.4581 -0.123008 0.265469 453941 13712.4 451101)
(-9.53641 -0.290432 0.442278 479051 16177.1 475491)
(-9.34239 0.0880749 0.624333 452391 15191.2 513624)
(0.413678 -2.11164 0.870206 227732 9388.71 616797)
(-14.8542 0.0827853 -0.13827 455711 15590.5 433664)
(-14.6597 0.0581806 0.0183151 366370 18541.9 411096)
(-14.3278 -0.00709606 0.0930965 379623 17725.4 406476)
(-13.7606 -0.139932 0.14597 401037 16124.1 410520)
(-13.4624 -0.0299315 0.20825 427145 15334.2 423537)
(-11.259 -0.11863 0.335943 455171 14101.1 448980)
(-10.702 0.339215 0.457406 430498 9965.77 495254)
(-0.553569 -1.89275 0.603698 217066 4725.67 610186)
(-15.1337 0.0664063 -0.0249641 424561 14250.6 407486)
(-14.9337 0.0253727 0.142759 339860 16803.5 389555)
(-14.6255 -0.0197101 0.235285 355243 16972 386275)
(-13.9998 -0.114374 0.29082 380159 15682.5 388852)
(-13.626 0.0418529 0.338977 409218 13789.3 400713)
(-11.2528 -0.0141837 0.417359 438129 10878.9 427560)
(-10.5563 0.466931 0.475977 413971 6302.08 477829)
(-0.190196 -1.82718 0.538694 208723 2573.84 594291)
(-15.5816 0.0605093 -0.0175705 407573 11015.6 391527)
(-15.3901 0.0143795 0.106352 325182 12745 374760)
(-15.1021 -0.0180406 0.179337 341014 13212.9 372771)
(-14.439 -0.0902054 0.221123 367123 12358.3 375737)
(-14.0119 0.0962119 0.253964 397296 10487.5 387913)
(-11.5224 0.0612425 0.302622 426392 7633.93 415870)
(-10.7154 0.553971 0.335342 402798 3983.13 467462)
(-0.188194 -1.77531 0.368231 203219 1508.95 582670)
(-15.7014 0.063282 0.00661858 398531 6892.59 382587)
(-15.4955 0.017102 0.0869654 317459 7837.38 366093)
(-15.1952 -0.00946002 0.134245 333309 8188.33 364967)
(-14.4977 -0.0725604 0.160253 359601 7703.63 368743)
(-14.0339 0.127325 0.17916 389976 6442.96 381620)
(-11.48 0.100265 0.204267 419054 4531.17 410249)
(-10.6269 0.596103 0.218825 395965 2275.72 462063)
(-0.0100047 -1.76014 0.230835 199911 830.34 575921)
(-15.8115 0.0636258 -0.00197461 394581 2340.36 378575)
(-15.6038 0.0179844 0.0234938 314119 2636.17 362149)
(-15.3003 -0.00527797 0.0391304 329926 2756.74 361443)
(-14.5886 -0.0636671 0.0477 356163 2598.43 365740)
(-14.1052 0.142712 0.0541141 386500 2162.71 379078)
(-11.5193 0.120044 0.0623664 415535 1504.11 408014)
(-10.6344 0.617437 0.0677158 392721 748.812 459787)
(0.023408 -1.75037 0.0716588 198347 268.814 572909)
(309179 9.26148 -17410.6 -9.90361 -0.805466 303146)
(297334 8.50373 -12757.6 -7.96597 -0.588786 617661)
(293416 8.43587 -4320.03 -5.45232 -0.403014 689986)
(284559 8.43317 -413.085 -3.88079 -0.262306 683575)
(275531 8.49897 500.939 -2.66243 -0.187819 667142)
(268696 8.54065 410.788 -1.80732 -0.115903 654888)
(264442 8.5782 189.916 -1.26445 -0.0698133 647698)
(262459 8.59448 48.5848 -1.00353 -0.0210764 644481)
(608847 7.06985 -8256.15 -18.2347 -0.0914253 293149)
(547161 6.02518 -5655.69 -17.6953 -0.00103394 551744)
(534084 5.74552 -1209.4 -16.7107 0.080743 595199)
(516899 5.64343 1020.83 -15.9935 0.0957966 583589)
(499799 5.62512 1288.9 -15.3804 0.0850391 571226)
(486678 5.61306 860.391 -14.934 0.0668074 563210)
(478392 5.61503 423.13 -14.641 0.0403863 558395)
(474497 5.6147 121.031 -14.4879 0.0147258 556102)
(601388 7.07357 8200.59 -16.2082 0.431798 288307)
(539317 6.06719 6159.59 -15.2347 0.431663 541180)
(526369 5.84361 1388.25 -14.1849 0.399395 584073)
(509266 5.78052 -976.692 -13.4802 0.325238 572582)
(492181 5.78354 -1288.46 -12.8557 0.254841 560330)
(479058 5.78388 -871.536 -12.4403 0.178805 552380)
(470769 5.79211 -432.85 -12.153 0.106476 547602)
(466871 5.79392 -124.616 -12.021 0.0351329 545325)
(308769 8.05663 17385.4 -16.8833 0.830823 289544)
(295622 7.00977 12976.6 -16.1295 0.685163 587929)
(291995 6.84015 4401.32 -15.3671 0.579587 658860)
(283264 6.76676 423.294 -14.8324 0.454638 652740)
(274233 6.78016 -511.29 -14.3073 0.35315 636569)
(267392 6.78198 -422.708 -13.9832 0.243846 624481)
(263135 6.79468 -197.823 -13.744 0.146376 617392)
(261153 6.7982 -51.2735 -13.6357 0.0477685 614224)
)
;
    }
    symmetry
    {
        type            symmetry;
    }
    bottom
    {
        type            calculated;
        value           nonuniform List<symmTensor> 
32
(
(-731736 82110.5 -10558.5 154299 78191 -743339)
(-510014 54368.8 -8012.88 49433.6 -9381.98 -239767)
(-429368 36178.9 -3254.37 5608.22 2467.97 -138080)
(-392872 28490.3 -873.241 -8826.38 10141.3 -121654)
(-373930 25740 -147.025 -14780.9 11320.5 -119161)
(-363238 24728.2 -14.6238 -17430 9459.13 -118464)
(-357175 24288.2 -8.60839 -18419 6133.65 -117942)
(-354376 24100.9 -5.05254 -18687.7 2113.36 -117616)
(-244695 -5296.86 -4423.88 109900 71165 -545759)
(-112680 -10438.2 -2447.49 170.418 5631.32 -118453)
(-73876.8 -15558.8 -329.178 -31444.9 17431.9 -43321.7)
(-61840.7 -17198.3 594.85 -37036 19200.6 -35252.1)
(-58340.1 -17101.1 638.488 -38856.1 15850.6 -34897.8)
(-57554.9 -16662.8 415.634 -40189.5 11566.6 -35255.8)
(-57395.1 -16346.8 208.82 -40950.5 7058.41 -35596.5)
(-57339.8 -16203.2 61.5793 -41240.8 2377.38 -35783)
(-239783 4581.58 4247.99 108947 71042.8 -537791)
(-110683 9778.09 2756.71 -2684.74 6366.3 -118275)
(-72066.3 14598.6 529.67 -34063.5 17927.3 -43737.5)
(-60076.8 16016 -440.842 -39452.4 19529 -35595)
(-56620.8 15796.5 -519.186 -41132.1 16077.9 -35169.6)
(-55864.4 15293.4 -330.833 -42363.3 11718.1 -35483.5)
(-55719.9 14944.6 -158.182 -43057.3 7145.49 -35797.9)
(-55671.1 14787.4 -44.745 -43314.6 2405.79 -35971.7)
(-688970 -80252.2 10476.7 156264 78139.8 -710963)
(-475463 -52464.1 8144.15 46164.6 -7202.7 -229406)
(-396006 -34504 3307.19 3357.86 3974.63 -129248)
(-360200 -27039.7 901.371 -10215.5 11172.5 -112681)
(-341740 -24437.6 170.116 -15545.8 12037.5 -110037)
(-331329 -23513.7 33.239 -17743 9932.5 -109229)
(-325419 -23122 20.6468 -18441.8 6402.93 -108631)
(-322687 -22956.3 9.18563 -18569.5 2200.71 -108267)
)
;
    }
}


// ************************************************************************* //
