/*--------------------------------*- C++ -*----------------------------------*\
| =========                 |                                                 |
| \\      /  F ield         | OpenFOAM: The Open Source CFD Toolbox           |
|  \\    /   O peration     | Version:  v1912                                 |
|   \\  /    A nd           | Website:  www.openfoam.com                      |
|    \\/     M anipulation  |                                                 |
\*---------------------------------------------------------------------------*/
FoamFile
{
    version     2.0;
    format      ascii;
    class       volScalarField;
    location    "0.66/solid";
    object      sigmaHyd;
}
// * * * * * * * * * * * * * * * * * * * * * * * * * * * * * * * * * * * * * //

dimensions      [1 -1 -2 0 0 0 0];


internalField   nonuniform List<scalar> 
256
(
-716452
-378018
-372741
-683667
-1.02775e+06
-616317
-608804
-986811
-1.05998e+06
-653228
-645310
-1.01773e+06
-1.07394e+06
-667198
-659068
-1.03073e+06
-1.10761e+06
-691490
-683208
-1.06358e+06
-1.18535e+06
-750499
-742069
-1.14059e+06
-1.39293e+06
-929164
-919938
-1.34602e+06
-1.97597e+06
-1.47668e+06
-1.46159e+06
-1.91303e+06
-364610
-106148
-105822
-345750
-566895
-237657
-235786
-541977
-594853
-273290
-271133
-569033
-606441
-287602
-285326
-579924
-629182
-303035
-300688
-601967
-685117
-339685
-337261
-657191
-857591
-473987
-470820
-827434
-1.39357e+06
-929305
-919957
-1.34615e+06
-285711
-62043.2
-62075.1
-268135
-425725
-138071
-136914
-403146
-446154
-165096
-163699
-422812
-456656
-177848
-176337
-432619
-476707
-190853
-189264
-451895
-526421
-221083
-219394
-500703
-685331
-339297
-336816
-657038
-1.18614e+06
-750163
-741504
-1.14036e+06
-265538
-58945.7
-58927.9
-248152
-384523
-118619
-117499
-362538
-400755
-140210
-138878
-378097
-410347
-151198
-149758
-387002
-429471
-163053
-161527
-405298
-476976
-191032
-189390
-451767
-629150
-302267
-299802
-601133
-1.10736e+06
-689750
-681105
-1.06166e+06
-256935
-59442.2
-59379.6
-239642
-368731
-113832
-112708
-347069
-383098
-132619
-131301
-360826
-391949
-142217
-140798
-369003
-410408
-153143
-151639
-386608
-456647
-179881
-178250
-431741
-604885
-287590
-285119
-577035
-1.06959e+06
-662924
-654260
-1.02391e+06
-251752
-59800.2
-59707.3
-234494
-360622
-112072
-110944
-339138
-374195
-129487
-128178
-352142
-382537
-138206
-136801
-359818
-400481
-148470
-146982
-376897
-445896
-174464
-172846
-421167
-591780
-280270
-277802
-564031
-1.04823e+06
-648572
-639899
-1.00254e+06
-248517
-59922.8
-59809.8
-231264
-356012
-111274
-110143
-334614
-369234
-128044
-126738
-347291
-377268
-136276
-134880
-354668
-394867
-146142
-144663
-371397
-439786
-171718
-170108
-415151
-584328
-276493
-274028
-556632
-1.0359e+06
-640655
-631977
-990201
-246930
-59937.9
-59814.8
-229675
-353835
-110936
-109803
-332473
-366917
-127447
-126143
-345019
-374806
-135467
-134074
-352255
-392237
-145149
-143675
-368815
-436923
-170538
-168932
-412328
-580853
-274850
-272387
-553178
-1.03013e+06
-637051
-628372
-984425
)
;

boundaryField
{
    interface
    {
        type            zeroGradient;
    }
    symmetry
    {
        type            symmetry;
    }
    bottom
    {
        type            zeroGradient;
    }
}


// ************************************************************************* //
