/*--------------------------------*- C++ -*----------------------------------*\
| =========                 |                                                 |
| \\      /  F ield         | OpenFOAM: The Open Source CFD Toolbox           |
|  \\    /   O peration     | Version:  v1912                                 |
|   \\  /    A nd           | Website:  www.openfoam.com                      |
|    \\/     M anipulation  |                                                 |
\*---------------------------------------------------------------------------*/
FoamFile
{
    version     2.0;
    format      ascii;
    class       volScalarField;
    location    "0.66/solid";
    object      sigmaEq;
}
// * * * * * * * * * * * * * * * * * * * * * * * * * * * * * * * * * * * * * //

dimensions      [1 -1 -2 0 0 0 0];


internalField   nonuniform List<scalar> 
256
(
641277
452390
445906
612551
373721
316716
311622
351598
371461
298159
293198
349288
389518
298472
293552
367061
403390
304846
299926
380677
402764
309278
304352
379887
327389
282328
278137
306305
56990.4
319081
316464
59796.9
384408
92872.2
90115.7
354861
282920
91882.7
89445.3
256510
276056
69595.9
67710.3
249754
279032
47410.4
46210
252349
286680
38863.8
38354.4
259463
296367
43085.7
42615.4
268634
278411
36459.9
37393.1
251178
327441
282846
278646
306290
321978
54855.6
53825.2
293447
271190
53910.6
51870.1
245040
268017
38203.6
36339.6
241497
270944
23826.6
23009.4
243834
279760
23083.6
23390.5
251955
294305
27895.6
27614.1
265807
295969
42018.5
41699.5
268105
403236
310354
305434
380318
288015
50488.9
50150.4
260830
252015
47698.7
46730.2
227246
250264
35544.5
34888.9
224790
253372
27633
28146.3
227072
262844
27005.6
28208
235678
278920
25947.1
26427
250872
285587
35338.3
35286.4
258053
406009
307126
302231
383283
268489
43584.3
43297.3
242097
236579
42856.9
42220.5
212602
236196
33596.7
33282.6
211402
240208
26947.4
27612.6
214451
250758
25367.8
26543
224045
267925
22326.2
22630.1
240239
276694
34594
34373
249475
398301
301585
296722
375815
257427
37568.8
37167.9
231469
226654
37749.4
37068.7
203035
227259
29251.3
28834.3
202783
232264
21755.1
22279.9
206771
243819
19210.3
20223.4
217336
261836
16811.2
16512.2
234355
271959
37323.4
36822
244968
392391
297697
292842
370052
251374
33061.5
32516.3
225642
220932
33359.2
32529.6
197463
222116
24401.5
23749.4
197772
227835
15230.6
15588.1
202459
240072
11940.6
12913
213699
258661
12141.4
10996.8
231291
269688
40020.2
39357.4
242849
389120
295348
290497
366870
248671
30531.5
29885
223035
218324
30748.1
29801.6
194909
219774
21142.6
20286
195477
225847
9958.49
10205.5
200517
238416
5326.6
6719.98
212088
257285
9417.5
7397.71
229964
268770
41445.6
40719.9
242006
387741
294251
289401
365533
)
;

boundaryField
{
    interface
    {
        type            calculated;
        value           nonuniform List<scalar> 
192
(
818724
526699
528053
553412
575014
582932
518774
285429
619217
486543
483151
496574
515632
536776
528397
519009
542323
467700
469057
481940
502061
528343
537019
583962
492433
436035
440036
453216
473999
502152
516405
578865
462369
411354
416995
431042
452770
482090
498789
564968
444901
395638
402215
417115
439692
469797
487803
554776
435248
386658
393729
409219
432364
462945
481677
548877
430934
382601
389890
405668
429088
459888
478950
546257
832119
540645
542395
568460
590595
598584
534976
307066
705879
535584
520814
531557
549011
565113
548595
527171
695375
526588
511686
522268
539596
555575
539478
520798
797971
514582
515883
541350
563102
570904
509395
300831
773472
486216
486983
511624
532545
539816
476121
250312
569433
440073
436196
448654
466643
486751
478428
476159
494036
421981
422533
434297
453162
478112
486631
540463
445930
391990
394947
406835
426195
452778
466591
535781
417033
368404
372907
385551
405750
433363
449459
522231
400262
353301
358697
372136
393123
421449
438784
512249
391001
344644
350515
364517
386041
414808
432844
506477
386863
340729
346809
361090
382875
411846
430205
503916
307698
535497
599818
594757
580673
570186
564061
561330
527607
549572
567137
553286
539093
529128
523018
520138
521172
540371
557485
543712
529572
519628
513527
510651
301145
509674
571879
566944
553054
542685
536627
533926
)
;
    }
    symmetry
    {
        type            symmetry;
    }
    bottom
    {
        type            calculated;
        value           nonuniform List<scalar> 
32
(
913442
494116
389006
345884
323678
311376
304678
301696
581781
117729
55459.2
51547
45877.1
40575.9
36583.9
34372
574112
113897
52673.7
49336.3
43505.1
37900.3
33589.2
31156.1
878329
461412
357449
315749
294508
282793
276424
273588
)
;
    }
}


// ************************************************************************* //
