/*--------------------------------*- C++ -*----------------------------------*\
| =========                 |                                                 |
| \\      /  F ield         | OpenFOAM: The Open Source CFD Toolbox           |
|  \\    /   O peration     | Version:  v1912                                 |
|   \\  /    A nd           | Website:  www.openfoam.com                      |
|    \\/     M anipulation  |                                                 |
\*---------------------------------------------------------------------------*/
FoamFile
{
    version     2.0;
    format      ascii;
    class       volVectorField;
    location    "0.63/solid";
    object      D_0_0;
}
// * * * * * * * * * * * * * * * * * * * * * * * * * * * * * * * * * * * * * //

dimensions      [0 1 0 0 0 0 0];


internalField   nonuniform List<vector> 
256
(
(2.43498e-08 3.59807e-08 2.62773e-08)
(2.82167e-09 2.08843e-08 2.37895e-08)
(-2.47788e-09 2.061e-08 2.37822e-08)
(-2.3393e-08 3.47921e-08 2.63294e-08)
(3.92145e-08 2.79823e-08 4.92301e-08)
(7.66299e-09 1.90897e-08 4.59771e-08)
(-5.96888e-09 1.85895e-08 4.60914e-08)
(-3.67114e-08 2.62775e-08 4.96597e-08)
(4.1205e-08 1.51814e-08 6.11238e-08)
(9.01836e-09 1.16915e-08 5.76743e-08)
(-5.68222e-09 1.10219e-08 5.79048e-08)
(-3.70746e-08 1.3061e-08 6.18886e-08)
(4.08653e-08 4.26547e-09 7.01685e-08)
(9.21103e-09 2.33727e-09 6.64242e-08)
(-4.04465e-09 1.52334e-09 6.67389e-08)
(-3.49118e-08 1.74781e-09 7.11789e-08)
(4.17578e-08 -5.83006e-09 7.91392e-08)
(9.86508e-09 -8.40113e-09 7.5054e-08)
(-2.68895e-09 -9.35102e-09 7.54294e-08)
(-3.37869e-08 -8.72801e-09 8.03298e-08)
(4.56329e-08 -1.67941e-08 8.94629e-08)
(1.1791e-08 -2.06247e-08 8.50604e-08)
(-2.42998e-09 -2.17112e-08 8.54822e-08)
(-3.5476e-08 -2.0067e-08 9.07926e-08)
(5.44406e-08 -3.39386e-08 1.02251e-07)
(1.54954e-08 -3.71093e-08 9.78561e-08)
(-3.80249e-09 -3.83222e-08 9.83138e-08)
(-4.19739e-08 -3.75657e-08 1.03689e-07)
(6.73768e-08 -8.07642e-08 1.15859e-07)
(1.95803e-08 -7.77797e-08 1.12227e-07)
(-5.52188e-09 -7.89172e-08 1.12703e-07)
(-5.25433e-08 -8.42602e-08 1.17354e-07)
(1.71556e-08 1.66929e-08 4.44156e-09)
(1.38903e-09 4.30033e-09 5.58151e-09)
(-1.15451e-09 4.09071e-09 5.68642e-09)
(-1.62969e-08 1.57047e-08 4.74657e-09)
(2.78715e-08 1.21415e-08 1.85185e-08)
(4.85462e-09 4.67914e-09 2.07309e-08)
(-3.47249e-09 4.18656e-09 2.09672e-08)
(-2.56943e-08 1.04977e-08 1.92044e-08)
(2.90216e-08 4.0167e-09 2.99433e-08)
(5.84746e-09 9.7136e-10 3.25305e-08)
(-3.00489e-09 2.869e-10 3.28674e-08)
(-2.5412e-08 1.89498e-09 3.09221e-08)
(2.84332e-08 -4.55534e-09 3.88743e-08)
(5.96093e-09 -6.34272e-09 4.15268e-08)
(-1.43851e-09 -7.17307e-09 4.19412e-08)
(-2.31508e-08 -7.08607e-09 4.00805e-08)
(2.90999e-08 -1.35366e-08 4.70861e-08)
(6.55079e-09 -1.60458e-08 4.96926e-08)
(-1.38807e-10 -1.70087e-08 5.01658e-08)
(-2.19131e-08 -1.64466e-08 4.8466e-08)
(3.27905e-08 -2.3296e-08 5.56473e-08)
(8.41348e-09 -2.71291e-08 5.81819e-08)
(8.8385e-11 -2.82248e-08 5.86998e-08)
(-2.35014e-08 -2.65773e-08 5.71592e-08)
(4.1665e-08 -3.69786e-08 6.41638e-08)
(1.20989e-08 -4.01129e-08 6.6681e-08)
(-1.33678e-09 -4.133e-08 6.72291e-08)
(-3.01271e-08 -4.0606e-08 6.57662e-08)
(5.51506e-08 -7.49947e-08 6.90207e-08)
(1.61945e-08 -7.12738e-08 7.15872e-08)
(-3.11069e-09 -7.24067e-08 7.2144e-08)
(-4.12911e-08 -7.84691e-08 7.06531e-08)
(1.23801e-08 1.08639e-08 2.1121e-09)
(1.52199e-10 4.03902e-10 3.6106e-09)
(-1.90214e-11 2.21488e-10 3.68977e-09)
(-1.16389e-08 9.98997e-09 2.33792e-09)
(2.01242e-08 4.04238e-09 1.14149e-08)
(2.33191e-09 -2.19316e-09 1.42393e-08)
(-1.24088e-09 -2.65222e-09 1.44262e-08)
(-1.82513e-08 2.53087e-09 1.19496e-08)
(2.07564e-08 -3.67572e-09 2.13143e-08)
(2.98341e-09 -6.30004e-09 2.45701e-08)
(-5.94699e-10 -6.95732e-09 2.4836e-08)
(-1.76118e-08 -5.68846e-09 2.20809e-08)
(2.01171e-08 -1.10112e-08 3.00128e-08)
(3.03735e-09 -1.27075e-08 3.33762e-08)
(8.95503e-10 -1.35168e-08 3.3705e-08)
(-1.54333e-08 -1.34562e-08 3.09662e-08)
(2.07347e-08 -1.84106e-08 3.77464e-08)
(3.58282e-09 -2.09221e-08 4.1121e-08)
(2.12905e-09 -2.18675e-08 4.15002e-08)
(-1.42522e-08 -2.12512e-08 3.88503e-08)
(2.44226e-08 -2.59477e-08 4.47819e-08)
(5.40281e-09 -2.98107e-08 4.81378e-08)
(2.31135e-09 -3.08901e-08 4.85561e-08)
(-1.59177e-08 -2.91697e-08 4.60022e-08)
(3.34108e-08 -3.6338e-08 5.025e-08)
(9.07403e-09 -3.95048e-08 5.35803e-08)
(8.32691e-10 -4.0705e-08 5.40234e-08)
(-2.27156e-08 -3.99094e-08 5.15468e-08)
(4.69878e-08 -7.00138e-08 5.18348e-08)
(1.31639e-08 -6.63162e-08 5.51658e-08)
(-9.88291e-10 -6.74292e-08 5.56127e-08)
(-3.40158e-08 -7.34245e-08 5.31494e-08)
(1.02415e-08 9.09228e-09 2.074e-09)
(-3.58649e-10 -2.73754e-10 3.01808e-09)
(4.29003e-10 -4.42986e-10 3.07312e-09)
(-9.59558e-09 8.28815e-09 2.23296e-09)
(1.65655e-08 7.79902e-10 8.94746e-09)
(1.17979e-09 -4.73528e-09 1.07496e-08)
(-2.96345e-10 -5.1629e-09 1.08859e-08)
(-1.49353e-08 -6.15163e-10 9.33993e-09)
(1.70318e-08 -7.665e-09 1.68286e-08)
(1.65879e-09 -1.00334e-08 1.8908e-08)
(3.86842e-10 -1.06546e-08 1.9105e-08)
(-1.42586e-08 -9.55497e-09 1.73997e-08)
(1.65046e-08 -1.47231e-08 2.43385e-08)
(1.70935e-09 -1.63768e-08 2.64723e-08)
(1.76382e-09 -1.71524e-08 2.67182e-08)
(-1.23047e-08 -1.70565e-08 2.50565e-08)
(1.72227e-08 -2.10302e-08 3.0982e-08)
(2.26108e-09 -2.35595e-08 3.31074e-08)
(2.89445e-09 -2.4475e-08 3.3394e-08)
(-1.13176e-08 -2.37743e-08 3.18228e-08)
(2.09883e-08 -2.69393e-08 3.64659e-08)
(4.07113e-09 -3.08322e-08 3.85708e-08)
(3.00872e-09 -3.1885e-08 3.88895e-08)
(-1.31344e-08 -3.00783e-08 3.7404e-08)
(2.99955e-08 -3.55951e-08 4.00988e-08)
(7.70765e-09 -3.88511e-08 4.21917e-08)
(1.50192e-09 -4.0027e-08 4.25305e-08)
(-2.00071e-08 -3.90931e-08 4.11007e-08)
(4.34377e-08 -6.74672e-08 4.09183e-08)
(1.17546e-08 -6.40997e-08 4.30613e-08)
(-3.29413e-10 -6.51906e-08 4.34017e-08)
(-3.12169e-08 -7.08099e-08 4.19327e-08)
(9.41464e-09 8.36246e-09 1.91881e-09)
(-4.80297e-10 -4.50939e-10 2.39079e-09)
(5.13385e-10 -6.1077e-10 2.42902e-09)
(-8.83392e-09 7.60826e-09 2.02951e-09)
(1.52233e-08 -4.48472e-10 7.11561e-09)
(8.43244e-10 -5.61076e-09 8.018e-09)
(-9.70797e-11 -6.01346e-09 8.11477e-09)
(-1.37649e-08 -1.75357e-09 7.39437e-09)
(1.57066e-08 -9.35255e-09 1.30216e-08)
(1.27153e-09 -1.16064e-08 1.40562e-08)
(5.33785e-10 -1.21959e-08 1.41977e-08)
(-1.32031e-08 -1.11388e-08 1.34322e-08)
(1.53265e-08 -1.6439e-08 1.88435e-08)
(1.34339e-09 -1.80876e-08 1.98889e-08)
(1.79584e-09 -1.8831e-08 2.00671e-08)
(-1.1486e-08 -1.86707e-08 1.93648e-08)
(1.61702e-08 -2.22486e-08 2.40062e-08)
(1.91584e-09 -2.47965e-08 2.50312e-08)
(2.82551e-09 -2.56824e-08 2.52404e-08)
(-1.07022e-08 -2.49008e-08 2.46221e-08)
(1.99986e-08 -2.73928e-08 2.80754e-08)
(3.72045e-09 -3.13015e-08 2.90845e-08)
(2.87869e-09 -3.23279e-08 2.93186e-08)
(-1.26454e-08 -3.04516e-08 2.87679e-08)
(2.89558e-08 -3.53898e-08 3.06155e-08)
(7.31093e-09 -3.87126e-08 3.16305e-08)
(1.3628e-09 -3.98653e-08 3.18801e-08)
(-1.95184e-08 -3.88185e-08 3.13588e-08)
(4.22277e-08 -6.64125e-08 3.13097e-08)
(1.13075e-08 -6.33277e-08 3.23845e-08)
(-4.65352e-10 -6.43988e-08 3.2635e-08)
(-3.05994e-08 -6.96953e-08 3.20627e-08)
(9.08809e-09 7.99731e-09 1.51508e-09)
(-4.83977e-10 -5.4273e-10 1.73053e-09)
(4.94931e-10 -6.95649e-10 1.7559e-09)
(-8.54844e-09 7.27774e-09 1.58811e-09)
(1.47459e-08 -9.0552e-10 5.21279e-09)
(7.89626e-10 -5.90977e-09 5.6186e-09)
(-1.30839e-10 -6.29427e-09 5.68337e-09)
(-1.33991e-08 -2.14611e-09 5.39841e-09)
(1.52978e-08 -9.94288e-09 9.30273e-09)
(1.21585e-09 -1.21577e-08 9.75964e-09)
(4.29904e-10 -1.27234e-08 9.85504e-09)
(-1.29751e-08 -1.1652e-08 9.5785e-09)
(1.50343e-08 -1.70729e-08 1.33594e-08)
(1.30863e-09 -1.8732e-08 1.381e-08)
(1.60185e-09 -1.94503e-08 1.39309e-08)
(-1.1441e-08 -1.9226e-08 1.37123e-08)
(1.59695e-08 -2.27394e-08 1.69639e-08)
(1.89512e-09 -2.53005e-08 1.73967e-08)
(2.55589e-09 -2.61625e-08 1.75394e-08)
(-1.08083e-08 -2.53182e-08 1.73838e-08)
(1.98279e-08 -2.76598e-08 1.97677e-08)
(3.69021e-09 -3.15701e-08 2.01935e-08)
(2.56604e-09 -3.25749e-08 2.03539e-08)
(-1.2832e-08 -3.06535e-08 2.02428e-08)
(2.87209e-08 -3.54899e-08 2.15162e-08)
(7.23913e-09 -3.88387e-08 2.19561e-08)
(1.04741e-09 -3.99727e-08 2.21277e-08)
(-1.96821e-08 -3.88627e-08 2.20283e-08)
(4.18544e-08 -6.60647e-08 2.21134e-08)
(1.11934e-08 -6.31375e-08 2.25992e-08)
(-7.76213e-10 -6.41928e-08 2.27713e-08)
(-3.06589e-08 -6.93e-08 2.26328e-08)
(8.94161e-09 7.81475e-09 9.58582e-10)
(-4.71876e-10 -5.89683e-10 1.05081e-09)
(4.70428e-10 -7.38106e-10 1.06535e-09)
(-8.42576e-09 7.11676e-09 1.00016e-09)
(1.45553e-08 -1.06703e-09 3.17987e-09)
(7.92923e-10 -6.00256e-09 3.34955e-09)
(-1.85493e-10 -6.37525e-09 3.3868e-09)
(-1.32746e-08 -2.26635e-09 3.28603e-09)
(1.51632e-08 -1.01016e-08 5.58274e-09)
(1.22582e-09 -1.23066e-08 5.76923e-09)
(3.23369e-10 -1.28566e-08 5.82433e-09)
(-1.29501e-08 -1.17602e-08 5.74129e-09)
(1.49715e-08 -1.72468e-08 7.95738e-09)
(1.33117e-09 -1.89166e-08 8.13641e-09)
(1.43757e-09 -1.96182e-08 8.20652e-09)
(-1.15311e-08 -1.93474e-08 8.1614e-09)
(1.5958e-08 -2.29074e-08 1.00687e-08)
(1.92313e-09 -2.54751e-08 1.02375e-08)
(2.34461e-09 -2.63209e-08 1.03206e-08)
(-1.09899e-08 -2.54363e-08 1.03127e-08)
(1.98258e-08 -2.78201e-08 1.17119e-08)
(3.70816e-09 -3.17251e-08 1.18793e-08)
(2.32857e-09 -3.27151e-08 1.1973e-08)
(-1.30579e-08 -3.0769e-08 1.19891e-08)
(2.86696e-08 -3.56505e-08 1.27531e-08)
(7.22806e-09 -3.90012e-08 1.2933e-08)
(8.08042e-10 -4.01223e-08 1.30334e-08)
(-1.9888e-08 -3.89847e-08 1.30529e-08)
(4.17112e-08 -6.59944e-08 1.31606e-08)
(1.11531e-08 -6.31347e-08 1.33672e-08)
(-1.01258e-09 -6.4179e-08 1.34679e-08)
(-3.07973e-08 -6.9197e-08 1.34649e-08)
(8.87925e-09 7.73912e-09 3.2696e-10)
(-4.65573e-10 -6.07533e-10 3.52864e-10)
(4.58577e-10 -7.53757e-10 3.57606e-10)
(-8.3743e-09 7.05142e-09 3.4046e-10)
(1.44771e-08 -1.11508e-09 1.06816e-09)
(7.96919e-10 -6.024e-09 1.11505e-09)
(-2.13184e-10 -6.3909e-09 1.12721e-09)
(-1.3227e-08 -2.29433e-09 1.10269e-09)
(1.51122e-08 -1.01271e-08 1.86069e-09)
(1.23352e-09 -1.23305e-08 1.9114e-09)
(2.70309e-10 -1.28727e-08 1.92941e-09)
(-1.29506e-08 -1.1761e-08 1.91239e-09)
(1.4953e-08 -1.72744e-08 2.64105e-09)
(1.34403e-09 -1.895e-08 2.6889e-09)
(1.35715e-09 -1.96432e-08 2.71188e-09)
(-1.15855e-08 -1.93489e-08 2.70777e-09)
(1.59612e-08 -2.29527e-08 3.33491e-09)
(1.93717e-09 -2.55228e-08 3.37962e-09)
(2.24218e-09 -2.63604e-08 3.4069e-09)
(-1.10861e-08 -2.54565e-08 3.41492e-09)
(1.98306e-08 -2.78952e-08 3.87632e-09)
(3.71606e-09 -3.17955e-08 3.92112e-09)
(2.2138e-09 -3.27781e-08 3.95193e-09)
(-1.31735e-08 -3.08215e-08 3.96742e-09)
(2.8649e-08 -3.57511e-08 4.22345e-09)
(7.22145e-09 -3.90979e-08 4.27298e-09)
(6.91918e-10 -4.02125e-08 4.30604e-09)
(-1.99932e-08 -3.90657e-08 4.32214e-09)
(4.16455e-08 -6.59981e-08 4.36771e-09)
(1.11316e-08 -6.31603e-08 4.42591e-09)
(-1.12734e-09 -6.41991e-08 4.45907e-09)
(-3.08701e-08 -6.9184e-08 4.46795e-09)
)
;

boundaryField
{
    interface
    {
        type            solidTraction;
        traction        uniform (0 0 0);
        pressure        uniform 0;
        secondOrder     false;
        setEffectiveTraction false;
        relaxationFactor 1;
        value           nonuniform List<vector> 
192
(
(8.22797e-08 5.18717e-08 2.42928e-08)
(9.34614e-08 3.2196e-08 4.59895e-08)
(9.65602e-08 1.55941e-08 5.76356e-08)
(9.79098e-08 4.40374e-09 6.66465e-08)
(1.00906e-07 -4.63804e-09 7.55988e-08)
(1.07623e-07 -1.36231e-08 8.59138e-08)
(1.2011e-07 -2.85023e-08 9.87227e-08)
(1.39669e-07 -7.69476e-08 1.12387e-07)
(6.55792e-08 2.79497e-08 1.4489e-09)
(7.37598e-08 1.5108e-08 1.37455e-08)
(7.5557e-08 4.15713e-09 2.48307e-08)
(7.62813e-08 -4.53569e-09 3.36868e-08)
(7.88725e-08 -1.24471e-08 4.18299e-08)
(8.54673e-08 -2.01544e-08 5.03443e-08)
(9.8586e-08 -3.13882e-08 5.8906e-08)
(1.20851e-07 -7.11177e-08 6.39231e-08)
(5.48703e-08 1.899e-08 3.83406e-10)
(6.14302e-08 6.13644e-09 8.58809e-09)
(6.27786e-08 -3.67749e-09 1.83165e-08)
(6.33723e-08 -1.10166e-08 2.70303e-08)
(6.58889e-08 -1.7334e-08 3.47768e-08)
(7.25793e-08 -2.27784e-08 4.1831e-08)
(8.61292e-08 -3.06963e-08 4.73323e-08)
(1.09062e-07 -6.61024e-08 4.89063e-08)
(4.91481e-08 1.5794e-08 1.33252e-09)
(5.4731e-08 2.47747e-09 7.72204e-09)
(5.60048e-08 -7.68018e-09 1.5566e-08)
(5.67219e-08 -1.46753e-08 2.31406e-08)
(5.93535e-08 -1.99091e-08 2.98407e-08)
(6.61738e-08 -2.37458e-08 3.53598e-08)
(7.98665e-08 -2.99823e-08 3.89848e-08)
(1.02776e-07 -6.35457e-08 3.97281e-08)
(4.62148e-08 1.45219e-08 1.63038e-09)
(5.14053e-08 1.12452e-09 6.66057e-09)
(5.27472e-08 -9.32671e-09 1.25879e-08)
(5.3642e-08 -1.6323e-08 1.84757e-08)
(5.64258e-08 -2.10803e-08 2.36927e-08)
(6.33377e-08 -2.41961e-08 2.77852e-08)
(7.70131e-08 -2.98321e-08 3.02967e-08)
(9.97018e-08 -6.25005e-08 3.09137e-08)
(4.46542e-08 1.39558e-08 1.39677e-09)
(4.97347e-08 6.46914e-10 5.04569e-09)
(5.11715e-08 -9.87073e-09 9.16677e-09)
(5.2209e-08 -1.69049e-08 1.32705e-08)
(5.51069e-08 -2.15408e-08 1.69107e-08)
(6.20624e-08 -2.44716e-08 1.97244e-08)
(7.56705e-08 -2.99828e-08 2.14446e-08)
(9.81456e-08 -6.21726e-08 2.19842e-08)
(4.38161e-08 1.3689e-08 9.06345e-10)
(4.887e-08 4.88374e-10 3.11262e-09)
(5.03761e-08 -9.99746e-09 5.53628e-09)
(5.15021e-08 -1.7048e-08 7.93698e-09)
(5.44656e-08 -2.16936e-08 1.00666e-08)
(6.14353e-08 -2.46418e-08 1.17125e-08)
(7.49824e-08 -3.01787e-08 1.27351e-08)
(9.73086e-08 -6.21217e-08 1.31083e-08)
(4.34415e-08 1.35782e-08 3.11362e-10)
(4.84868e-08 4.4317e-10 1.04859e-09)
(5.00258e-08 -1.00081e-08 1.84792e-09)
(5.11921e-08 -1.7062e-08 2.6364e-09)
(5.41839e-08 -2.17331e-08 3.33569e-09)
(6.11564e-08 -2.47229e-08 3.87749e-09)
(7.46702e-08 -3.02969e-08 4.2183e-09)
(9.69221e-08 -6.21367e-08 4.35129e-09)
(2.47208e-08 5.48577e-08 8.61512e-08)
(4.00227e-08 3.66941e-08 1.05178e-07)
(4.2088e-08 2.04161e-08 1.18194e-07)
(4.16916e-08 8.76942e-09 1.29033e-07)
(4.2508e-08 -1.00639e-09 1.40186e-07)
(4.63081e-08 -1.10161e-08 1.53345e-07)
(5.51074e-08 -2.73394e-08 1.69764e-07)
(6.82062e-08 -7.71895e-08 1.90001e-07)
(2.19829e-09 3.83261e-08 7.75926e-08)
(6.87908e-09 2.75611e-08 9.61652e-08)
(8.21449e-09 1.68034e-08 1.08222e-07)
(8.35456e-09 6.68226e-09 1.18281e-07)
(8.93854e-09 -3.74205e-09 1.28836e-07)
(1.07967e-08 -1.49241e-08 1.41609e-07)
(1.45121e-08 -3.03177e-08 1.58432e-07)
(1.87924e-08 -7.40738e-08 1.81634e-07)
(-1.84248e-09 3.80785e-08 7.6847e-08)
(-5.04746e-09 2.71203e-08 9.55505e-08)
(-4.62774e-09 1.61839e-08 1.07696e-07)
(-2.85504e-09 5.90452e-09 1.17819e-07)
(-1.36904e-09 -4.6652e-09 1.28422e-07)
(-9.95981e-10 -1.59901e-08 1.41228e-07)
(-2.3434e-09 -3.15171e-08 1.58076e-07)
(-4.23899e-09 -7.5206e-08 1.81322e-07)
(-2.37259e-08 5.37895e-08 8.41222e-08)
(-3.73568e-08 3.51673e-08 1.03597e-07)
(-3.76889e-08 1.84408e-08 1.1687e-07)
(-3.53902e-08 6.35814e-09 1.27897e-07)
(-3.41306e-08 -3.82461e-09 1.39192e-07)
(-3.56999e-08 -1.42274e-08 1.52456e-07)
(-4.21549e-08 -3.09255e-08 1.68956e-07)
(-5.28663e-08 -8.06704e-08 1.89344e-07)
(-7.79067e-08 4.98184e-08 2.43891e-08)
(-8.74833e-08 2.9698e-08 4.6583e-08)
(-8.88829e-08 1.26111e-08 5.86661e-08)
(-8.83369e-08 9.25864e-10 6.79997e-08)
(-8.92532e-08 -8.587e-09 7.71898e-08)
(-9.3738e-08 -1.80204e-08 8.76873e-08)
(-1.03908e-07 -3.3299e-08 1.00637e-07)
(-1.21107e-07 -8.16291e-08 1.1438e-07)
(-6.12833e-08 2.62026e-08 1.80801e-09)
(-6.8161e-08 1.27765e-08 1.45893e-08)
(-6.84623e-08 1.25914e-09 2.60563e-08)
(-6.74335e-08 -7.96082e-09 3.52109e-08)
(-6.80365e-08 -1.6359e-08 4.35824e-08)
(-7.24492e-08 -2.45239e-08 5.22696e-08)
(-8.32761e-08 -3.61587e-08 6.09517e-08)
(-1.03232e-07 -7.57594e-08 6.60214e-08)
(-5.08009e-08 1.74625e-08 6.62583e-10)
(-5.62267e-08 4.02413e-09 9.25986e-09)
(-5.62357e-08 -6.39296e-09 1.92926e-08)
(-5.52049e-08 -1.42961e-08 2.82548e-08)
(-5.58268e-08 -2.11301e-08 3.62015e-08)
(-6.03913e-08 -2.7054e-08 4.34105e-08)
(-7.16724e-08 -3.53849e-08 4.90169e-08)
(-9.23064e-08 -7.06583e-08 5.0631e-08)
(-4.52775e-08 1.44209e-08 1.53171e-09)
(-4.98671e-08 5.50598e-10 8.21833e-09)
(-4.99265e-08 -1.02126e-08 1.62975e-08)
(-4.91273e-08 -1.77918e-08 2.40698e-08)
(-4.99495e-08 -2.35669e-08 3.09354e-08)
(-5.4702e-08 -2.7906e-08 3.6586e-08)
(-6.61562e-08 -3.45724e-08 4.03015e-08)
(-8.67769e-08 -6.8011e-08 4.10787e-08)
(-4.24827e-08 1.3258e-08 1.76772e-09)
(-4.67841e-08 -6.61277e-10 7.01035e-09)
(-4.70069e-08 -1.17085e-08 1.31114e-08)
(-4.64714e-08 -1.9296e-08 1.9149e-08)
(-4.75173e-08 -2.46109e-08 2.44949e-08)
(-5.24154e-08 -2.82475e-08 2.86924e-08)
(-6.38868e-08 -3.43299e-08 3.12776e-08)
(-8.43056e-08 -6.68855e-08 3.19233e-08)
(-4.10091e-08 1.27646e-08 1.48607e-09)
(-4.52701e-08 -1.03944e-09 5.27588e-09)
(-4.56551e-08 -1.21415e-08 9.51529e-09)
(-4.53259e-08 -1.97678e-08 1.37236e-08)
(-4.65408e-08 -2.49705e-08 1.74558e-08)
(-5.15267e-08 -2.84351e-08 2.03459e-08)
(-6.29622e-08 -3.44059e-08 2.21207e-08)
(-8.31875e-08 -6.64935e-08 2.26823e-08)
(-4.02214e-08 1.25419e-08 9.56631e-10)
(-4.44974e-08 -1.13526e-09 3.24302e-09)
(-4.49943e-08 -1.21961e-08 5.73518e-09)
(-4.47951e-08 -1.98375e-08 8.19755e-09)
(-4.61132e-08 -2.50546e-08 1.03822e-08)
(-5.11444e-08 -2.85445e-08 1.20745e-08)
(-6.25422e-08 -3.45498e-08 1.31308e-08)
(-8.26347e-08 -6.6398e-08 1.35177e-08)
(-3.98698e-08 1.24518e-08 3.27596e-10)
(-4.41568e-08 -1.15026e-09 1.0908e-09)
(-4.47069e-08 -1.21714e-08 1.91252e-09)
(-4.45686e-08 -1.98151e-08 2.72136e-09)
(-4.59339e-08 -2.50595e-08 3.43898e-09)
(-5.09839e-08 -2.85947e-08 3.99633e-09)
(-6.23605e-08 -3.46415e-08 4.34847e-09)
(-8.23874e-08 -6.63904e-08 4.48616e-09)
(6.85405e-08 -1.54944e-07 1.16204e-07)
(5.61603e-08 -1.42563e-07 6.6333e-08)
(4.80205e-08 -1.33994e-07 4.99528e-08)
(4.4558e-08 -1.28734e-07 4.00179e-08)
(4.34139e-08 -1.25794e-07 3.0959e-08)
(4.307e-08 -1.24228e-07 2.20088e-08)
(4.2934e-08 -1.23438e-07 1.31439e-08)
(4.28682e-08 -1.23109e-07 4.36864e-09)
(1.91197e-08 -1.47224e-07 1.12453e-07)
(1.55485e-08 -1.31911e-07 6.87214e-08)
(1.25186e-08 -1.22979e-07 5.33722e-08)
(1.11863e-08 -1.18108e-07 4.23142e-08)
(1.0805e-08 -1.15603e-07 3.2144e-08)
(1.07263e-08 -1.14309e-07 2.2551e-08)
(1.07001e-08 -1.1365e-07 1.33729e-08)
(1.06828e-08 -1.13369e-07 4.43233e-09)
(-3.9006e-09 -1.47568e-07 1.12931e-07)
(-1.31088e-09 -1.32222e-07 6.92721e-08)
(7.89758e-10 -1.23275e-07 5.38087e-08)
(1.34909e-09 -1.18389e-07 4.26442e-08)
(1.1275e-09 -1.15867e-07 3.23856e-08)
(7.65371e-10 -1.14559e-07 2.27164e-08)
(5.03961e-10 -1.13889e-07 1.34695e-08)
(3.79553e-10 -1.13603e-07 4.4641e-09)
(-5.25219e-08 -1.56269e-07 1.17701e-07)
(-4.11291e-08 -1.43763e-07 6.79443e-08)
(-3.3899e-08 -1.35144e-07 5.12347e-08)
(-3.12104e-08 -1.29831e-07 4.10005e-08)
(-3.0679e-08 -1.2684e-07 3.16853e-08)
(-3.07843e-08 -1.25231e-07 2.25082e-08)
(-3.09411e-08 -1.24411e-07 1.34359e-08)
(-3.10195e-08 -1.24066e-07 4.46472e-09)
)
;
        gradient        uniform (0 0 0);
    }
    symmetry
    {
        type            solidSymmetry;
        patchType       symmetry;
        secondOrder     false;
        value           nonuniform List<vector> 
32
(
(8.87925e-09 7.73912e-09 0)
(1.44771e-08 -1.11508e-09 0)
(1.51122e-08 -1.01271e-08 0)
(1.4953e-08 -1.72744e-08 0)
(1.59612e-08 -2.29527e-08 0)
(1.98306e-08 -2.78952e-08 0)
(2.8649e-08 -3.57511e-08 0)
(4.16455e-08 -6.59981e-08 0)
(-4.65573e-10 -6.07533e-10 0)
(7.96919e-10 -6.024e-09 0)
(1.23352e-09 -1.23305e-08 0)
(1.34403e-09 -1.895e-08 0)
(1.93717e-09 -2.55228e-08 0)
(3.71606e-09 -3.17955e-08 0)
(7.22145e-09 -3.90979e-08 0)
(1.11316e-08 -6.31603e-08 0)
(4.58577e-10 -7.53757e-10 0)
(-2.13184e-10 -6.3909e-09 0)
(2.70309e-10 -1.28727e-08 0)
(1.35715e-09 -1.96432e-08 0)
(2.24218e-09 -2.63604e-08 0)
(2.2138e-09 -3.27781e-08 0)
(6.91918e-10 -4.02125e-08 0)
(-1.12734e-09 -6.41991e-08 0)
(-8.3743e-09 7.05142e-09 0)
(-1.3227e-08 -2.29433e-09 0)
(-1.29506e-08 -1.1761e-08 0)
(-1.15855e-08 -1.93489e-08 0)
(-1.10861e-08 -2.54565e-08 0)
(-1.31735e-08 -3.08215e-08 0)
(-1.99932e-08 -3.90657e-08 0)
(-3.08701e-08 -6.9184e-08 0)
)
;
    }
    bottom
    {
        type            fixedDisplacement;
        value           uniform (0 0 0);
    }
}


// ************************************************************************* //
