/*--------------------------------*- C++ -*----------------------------------*\
| =========                 |                                                 |
| \\      /  F ield         | OpenFOAM: The Open Source CFD Toolbox           |
|  \\    /   O peration     | Version:  v1912                                 |
|   \\  /    A nd           | Website:  www.openfoam.com                      |
|    \\/     M anipulation  |                                                 |
\*---------------------------------------------------------------------------*/
FoamFile
{
    version     2.0;
    format      ascii;
    class       volVectorField;
    location    "0.63/solid";
    object      DD_0_0;
}
// * * * * * * * * * * * * * * * * * * * * * * * * * * * * * * * * * * * * * //

dimensions      [0 1 0 0 0 0 0];


internalField   nonuniform List<vector> 
256
(
(2.71511e-10 2.74227e-10 3.18281e-10)
(6.11622e-11 1.65168e-10 2.93725e-10)
(-7.33657e-11 1.59956e-10 2.87678e-10)
(-2.66221e-10 2.55003e-10 2.99672e-10)
(4.88273e-10 2.16335e-10 7.20396e-10)
(1.24208e-10 1.26138e-10 6.83853e-10)
(-1.49695e-10 1.23618e-10 6.71904e-10)
(-4.89621e-10 2.10449e-10 6.83602e-10)
(5.28453e-10 1.19633e-11 9.98878e-10)
(1.33789e-10 -2.74692e-11 9.56033e-10)
(-1.74483e-10 -2.52972e-11 9.40796e-10)
(-5.44678e-10 2.14113e-11 9.52011e-10)
(5.15178e-10 -2.12446e-10 1.2348e-09)
(1.19849e-10 -2.32963e-10 1.18225e-09)
(-1.81473e-10 -2.26108e-10 1.16468e-09)
(-5.52074e-10 -1.89425e-10 1.18078e-09)
(5.12986e-10 -4.53929e-10 1.47018e-09)
(1.07984e-10 -4.84302e-10 1.405e-09)
(-1.96699e-10 -4.73057e-10 1.38541e-09)
(-5.76517e-10 -4.18379e-10 1.41007e-09)
(5.67524e-10 -7.462e-10 1.73117e-09)
(1.17217e-10 -7.92464e-10 1.65392e-09)
(-2.39515e-10 -7.76909e-10 1.63239e-09)
(-6.64076e-10 -6.98317e-10 1.66525e-09)
(7.15384e-10 -1.18157e-09 2.0251e-09)
(1.57535e-10 -1.20665e-09 1.94772e-09)
(-3.21083e-10 -1.18626e-09 1.92413e-09)
(-8.51475e-10 -1.1197e-09 1.9532e-09)
(9.008e-10 -1.82938e-09 2.27348e-09)
(1.99868e-10 -1.77054e-09 2.21802e-09)
(-4.14371e-10 -1.74231e-09 2.19245e-09)
(-1.08305e-09 -1.74367e-09 2.1962e-09)
(1.63011e-10 9.31616e-11 1.24343e-10)
(3.45282e-11 7.31258e-12 1.42868e-10)
(-3.9405e-11 5.43519e-12 1.40329e-10)
(-1.53029e-10 8.16416e-11 1.16788e-10)
(3.02158e-10 -1.21791e-11 3.95236e-10)
(7.42711e-11 -8.38636e-11 4.3209e-10)
(-8.27625e-11 -8.37817e-11 4.25142e-10)
(-2.90758e-10 -1.28196e-11 3.7495e-10)
(3.2421e-10 -1.93819e-10 6.44697e-10)
(7.90568e-11 -2.25124e-10 6.86439e-10)
(-9.60008e-11 -2.21493e-10 6.76503e-10)
(-3.21525e-10 -1.81914e-10 6.15585e-10)
(3.06669e-10 -3.98027e-10 8.69487e-10)
(6.59148e-11 -4.15345e-10 9.0943e-10)
(-9.85933e-11 -4.07687e-10 8.97351e-10)
(-3.19789e-10 -3.74008e-10 8.33846e-10)
(3.00367e-10 -6.22678e-10 1.08761e-09)
(5.4943e-11 -6.52237e-10 1.12311e-09)
(-1.10416e-10 -6.40525e-10 1.1092e-09)
(-3.35977e-10 -5.86848e-10 1.04633e-09)
(3.51312e-10 -8.80841e-10 1.30976e-09)
(6.48607e-11 -9.28813e-10 1.34058e-09)
(-1.50147e-10 -9.13054e-10 1.32491e-09)
(-4.16172e-10 -8.33255e-10 1.26313e-09)
(5.04678e-10 -1.22997e-09 1.51589e-09)
(1.07588e-10 -1.25457e-09 1.54452e-09)
(-2.30703e-10 -1.23451e-09 1.52727e-09)
(-6.05438e-10 -1.16961e-09 1.46441e-09)
(7.11526e-10 -1.73857e-09 1.62566e-09)
(1.53612e-10 -1.65758e-09 1.65453e-09)
(-3.24655e-10 -1.63086e-09 1.63656e-09)
(-8.54827e-10 -1.65702e-09 1.57173e-09)
(7.99625e-11 2.49492e-11 6.14059e-11)
(1.05514e-11 -3.68076e-11 8.90637e-11)
(-1.22614e-11 -3.82518e-11 8.73312e-11)
(-6.75547e-11 1.35522e-11 5.64899e-11)
(1.5337e-10 -1.26316e-10 2.50819e-10)
(2.68976e-11 -1.78871e-10 3.03187e-10)
(-2.62555e-11 -1.78467e-10 2.98355e-10)
(-1.34125e-10 -1.27602e-10 2.37156e-10)
(1.60612e-10 -3.15861e-10 4.61641e-10)
(2.6373e-11 -3.3978e-10 5.21092e-10)
(-2.87586e-11 -3.36205e-10 5.13845e-10)
(-1.44937e-10 -3.05483e-10 4.40916e-10)
(1.42365e-10 -5.08464e-10 6.66603e-10)
(1.41442e-11 -5.24726e-10 7.26123e-10)
(-2.75401e-11 -5.17467e-10 7.1697e-10)
(-1.37954e-10 -4.8667e-10 6.401e-10)
(1.36526e-10 -7.04942e-10 8.606e-10)
(4.49278e-12 -7.35889e-10 9.18046e-10)
(-3.66303e-11 -7.24828e-10 9.07235e-10)
(-1.50621e-10 -6.71832e-10 8.28999e-10)
(1.88452e-10 -9.11951e-10 1.03634e-09)
(1.54704e-11 -9.62255e-10 1.09132e-09)
(-7.39297e-11 -9.47396e-10 1.079e-09)
(-2.28223e-10 -8.67602e-10 1.00008e-09)
(3.45613e-10 -1.18165e-09 1.16425e-09)
(5.99666e-11 -1.20817e-09 1.21677e-09)
(-1.53201e-10 -1.18934e-09 1.2033e-09)
(-4.17978e-10 -1.12525e-09 1.12425e-09)
(5.57942e-10 -1.60237e-09 1.19032e-09)
(1.08117e-10 -1.5211e-09 1.24086e-09)
(-2.46458e-10 -1.49594e-09 1.22719e-09)
(-6.69701e-10 -1.52537e-09 1.14916e-09)
(4.3292e-11 -1.46724e-13 4.94851e-11)
(1.1503e-13 -4.64545e-11 6.82614e-11)
(-3.72953e-13 -4.80949e-11 6.69649e-11)
(-2.93932e-11 -1.26239e-11 4.58958e-11)
(8.60076e-11 -1.70751e-10 1.95087e-10)
(5.20189e-12 -2.11225e-10 2.30218e-10)
(4.34824e-13 -2.11376e-10 2.26722e-10)
(-6.18104e-11 -1.74398e-10 1.85364e-10)
(8.7624e-11 -3.6852e-10 3.64601e-10)
(2.75322e-12 -3.88323e-10 4.03956e-10)
(3.78297e-12 -3.8552e-10 3.98652e-10)
(-6.31904e-11 -3.61108e-10 3.49616e-10)
(7.26868e-11 -5.53765e-10 5.35888e-10)
(-7.34963e-12 -5.7042e-10 5.74576e-10)
(6.73105e-12 -5.64098e-10 5.67729e-10)
(-5.57537e-11 -5.35303e-10 5.1624e-10)
(7.16205e-11 -7.25844e-10 6.94663e-10)
(-1.43712e-11 -7.58673e-10 7.31253e-10)
(-1.46936e-12 -7.48691e-10 7.23023e-10)
(-6.9698e-11 -6.96339e-10 6.70757e-10)
(1.27409e-10 -8.94071e-10 8.25219e-10)
(-1.51756e-12 -9.46555e-10 8.597e-10)
(-3.75411e-11 -9.32903e-10 8.50254e-10)
(-1.47989e-10 -8.53568e-10 7.97502e-10)
(2.85015e-10 -1.11873e-09 9.02574e-10)
(4.34608e-11 -1.14931e-09 9.35486e-10)
(-1.14569e-10 -1.13178e-09 9.25191e-10)
(-3.35305e-10 -1.06631e-09 8.71994e-10)
(4.93367e-10 -1.50154e-09 9.00159e-10)
(9.15158e-11 -1.43119e-09 9.33371e-10)
(-2.05234e-10 -1.40728e-09 9.23013e-10)
(-5.80387e-10 -1.4283e-09 8.68873e-10)
(3.15819e-11 -9.11364e-12 4.30517e-11)
(-2.162e-12 -4.81112e-11 5.25322e-11)
(2.66767e-12 -4.99666e-11 5.15953e-11)
(-1.67446e-11 -2.24849e-11 4.04934e-11)
(6.55906e-11 -1.83e-10 1.5561e-10)
(4.24788e-13 -2.18174e-10 1.72732e-10)
(8.14543e-12 -2.18962e-10 1.7025e-10)
(-3.82748e-11 -1.88852e-10 1.48788e-10)
(6.78165e-11 -3.81064e-10 2.84536e-10)
(-1.29725e-12 -3.99808e-10 3.02889e-10)
(1.34662e-11 -3.97871e-10 2.99117e-10)
(-3.76395e-11 -3.76528e-10 2.73981e-10)
(5.75182e-11 -5.59486e-10 4.1562e-10)
(-8.87326e-12 -5.77473e-10 4.32588e-10)
(1.67854e-11 -5.7214e-10 4.27663e-10)
(-3.19998e-11 -5.44229e-10 4.01593e-10)
(6.17625e-11 -7.15615e-10 5.34759e-10)
(-1.31636e-11 -7.50326e-10 5.49673e-10)
(8.67174e-12 -7.41406e-10 5.43687e-10)
(-4.84514e-11 -6.89478e-10 5.17463e-10)
(1.21011e-10 -8.62714e-10 6.26584e-10)
(1.4395e-12 -9.16933e-10 6.39829e-10)
(-2.65681e-11 -9.04382e-10 6.32916e-10)
(-1.27585e-10 -8.2562e-10 6.0636e-10)
(2.77313e-10 -1.06803e-09 6.74177e-10)
(4.62872e-11 -1.10213e-09 6.86751e-10)
(-1.01164e-10 -1.08568e-09 6.79211e-10)
(-3.11209e-10 -1.01889e-09 6.51796e-10)
(4.80341e-10 -1.43524e-09 6.66426e-10)
(9.36774e-11 -1.37502e-09 6.80272e-10)
(-1.89091e-10 -1.35209e-09 6.72706e-10)
(-5.48796e-10 -1.36494e-09 6.43541e-10)
(2.88235e-11 -1.1919e-11 3.36209e-11)
(-1.78281e-12 -4.79521e-11 3.77697e-11)
(2.71082e-12 -4.9962e-11 3.71408e-11)
(-1.34105e-11 -2.58988e-11 3.19182e-11)
(6.2384e-11 -1.82738e-10 1.14643e-10)
(1.54258e-12 -2.1632e-10 1.21556e-10)
(8.78322e-12 -2.17597e-10 1.19901e-10)
(-3.31367e-11 -1.90203e-10 1.10131e-10)
(6.72936e-11 -3.76454e-10 2.04802e-10)
(1.38381e-12 -3.95682e-10 2.11463e-10)
(1.43135e-11 -3.94442e-10 2.08945e-10)
(-3.34617e-11 -3.74134e-10 1.97809e-10)
(6.10684e-11 -5.48553e-10 2.95619e-10)
(-4.04575e-12 -5.68061e-10 3.00854e-10)
(1.75068e-11 -5.63531e-10 2.97548e-10)
(-2.99116e-11 -5.35817e-10 2.86259e-10)
(6.93326e-11 -6.95733e-10 3.76765e-10)
(-6.25182e-12 -7.31964e-10 3.80403e-10)
(9.37483e-12 -7.23894e-10 3.76358e-10)
(-4.83278e-11 -6.72237e-10 3.65129e-10)
(1.30795e-10 -8.33666e-10 4.37029e-10)
(9.58989e-12 -8.89019e-10 4.39569e-10)
(-2.51393e-11 -8.7732e-10 4.34875e-10)
(-1.27697e-10 -7.99196e-10 4.23337e-10)
(2.85582e-10 -1.03224e-09 4.6617e-10)
(5.42289e-11 -1.06845e-09 4.68543e-10)
(-9.7742e-11 -1.0528e-09 4.63412e-10)
(-3.07981e-10 -9.85561e-10 4.50958e-10)
(4.8444e-10 -1.39218e-09 4.59603e-10)
(1.0107e-10 -1.33835e-09 4.63138e-10)
(-1.83531e-10 -1.31612e-09 4.5799e-10)
(-5.39747e-10 -1.32404e-09 4.44035e-10)
(2.84049e-11 -1.24447e-11 2.12948e-11)
(-1.12886e-12 -4.73409e-11 2.29483e-11)
(2.2805e-12 -4.94485e-11 2.25876e-11)
(-1.26617e-11 -2.68005e-11 2.03229e-11)
(6.31108e-11 -1.79196e-10 7.02682e-11)
(3.2782e-12 -2.12568e-10 7.2706e-11)
(8.04158e-12 -2.14159e-10 7.17586e-11)
(-3.27418e-11 -1.8768e-10 6.76987e-11)
(7.03515e-11 -3.68115e-10 1.2349e-10)
(4.4032e-12 -3.88134e-10 1.25403e-10)
(1.33574e-11 -3.87356e-10 1.23961e-10)
(-3.43568e-11 -3.67243e-10 1.19503e-10)
(6.68748e-11 -5.35449e-10 1.7647e-10)
(4.1115e-13 -5.56138e-10 1.774e-10)
(1.63786e-11 -5.52149e-10 1.755e-10)
(-3.23129e-11 -5.24394e-10 1.71112e-10)
(7.76082e-11 -6.78094e-10 2.2323e-10)
(-4.89398e-13 -7.1533e-10 2.23195e-10)
(8.28063e-12 -7.07833e-10 2.2086e-10)
(-5.18669e-11 -6.56364e-10 2.16536e-10)
(1.40279e-10 -8.12703e-10 2.57313e-10)
(1.61006e-11 -8.68676e-10 2.56688e-10)
(-2.56729e-11 -8.57545e-10 2.53971e-10)
(-1.3113e-10 -7.79981e-10 2.49405e-10)
(2.93971e-10 -1.00936e-09 2.73306e-10)
(6.0613e-11 -1.0466e-09 2.72692e-10)
(-9.69407e-11 -1.03148e-09 2.69716e-10)
(-3.09092e-10 -9.64315e-10 2.64493e-10)
(4.90136e-10 -1.36571e-09 2.69258e-10)
(1.07116e-10 -1.31519e-09 2.69363e-10)
(-1.81321e-10 -1.29343e-09 2.66377e-10)
(-5.37058e-10 -1.29898e-09 2.60229e-10)
(2.83892e-11 -1.23762e-11 7.27852e-12)
(-7.81539e-13 -4.68758e-11 7.71826e-12)
(2.02935e-12 -4.90308e-11 7.60086e-12)
(-1.24954e-11 -2.69119e-11 6.96287e-12)
(6.38211e-11 -1.76596e-10 2.36658e-11)
(4.21131e-12 -2.10042e-10 2.42504e-11)
(7.55741e-12 -2.11785e-10 2.39421e-11)
(-3.29359e-11 -1.8557e-10 2.28317e-11)
(7.22637e-11 -3.62657e-10 4.12506e-11)
(5.99101e-12 -3.83167e-10 4.16114e-11)
(1.27212e-11 -3.82616e-10 4.11417e-11)
(-3.52627e-11 -3.6249e-10 3.99555e-11)
(7.01176e-11 -5.27482e-10 5.86284e-11)
(2.69511e-12 -5.48787e-10 5.86467e-11)
(1.56537e-11 -5.45067e-10 5.80271e-11)
(-3.39527e-11 -5.17257e-10 5.68849e-11)
(8.19934e-11 -6.68241e-10 7.38685e-11)
(2.40863e-12 -7.05965e-10 7.35688e-11)
(7.59764e-12 -6.98753e-10 7.28062e-11)
(-5.39977e-11 -6.47391e-10 7.16851e-11)
(1.45189e-10 -8.01869e-10 8.48935e-11)
(1.9348e-11 -8.58104e-10 8.44108e-11)
(-2.60536e-11 -8.47256e-10 8.35216e-11)
(-1.33133e-10 -7.70016e-10 8.23081e-11)
(2.98335e-10 -9.98121e-10 9.00123e-11)
(6.38102e-11 -1.03574e-09 8.95497e-11)
(-9.66641e-11 -1.02089e-09 8.85749e-11)
(-3.09933e-10 -9.53885e-10 8.71267e-11)
(4.93192e-10 -1.35296e-09 8.86597e-11)
(1.10154e-10 -1.3038e-09 8.84346e-11)
(-1.80349e-10 -1.28227e-09 8.74563e-11)
(-5.36038e-10 -1.28693e-09 8.57023e-11)
)
;

boundaryField
{
    interface
    {
        type            calculated;
        value           nonuniform List<vector> 
192
(
(3.06036e-10 4.64173e-10 2.86213e-10)
(5.20268e-10 2.80569e-10 6.64455e-10)
(5.62431e-10 1.86884e-11 9.37943e-10)
(5.52934e-10 -2.16314e-10 1.17406e-09)
(5.51107e-10 -4.40843e-10 1.41017e-09)
(5.98704e-10 -6.95601e-10 1.67198e-09)
(7.38866e-10 -1.09825e-09 1.96777e-09)
(9.53064e-10 -1.77738e-09 2.21963e-09)
(1.56443e-10 2.09454e-10 7.64567e-11)
(2.95952e-10 2.81197e-11 3.11512e-10)
(3.16928e-10 -1.92692e-10 5.52738e-10)
(2.98824e-10 -4.03988e-10 7.76285e-10)
(2.89525e-10 -6.11518e-10 9.93492e-10)
(3.31806e-10 -8.29764e-10 1.21499e-09)
(4.80006e-10 -1.13991e-09 1.42345e-09)
(7.35807e-10 -1.68311e-09 1.53995e-09)
(6.0243e-11 8.32822e-11 3.1477e-11)
(1.41067e-10 -1.06155e-10 1.96783e-10)
(1.4861e-10 -3.18613e-10 4.02495e-10)
(1.30037e-10 -5.14487e-10 6.08108e-10)
(1.225e-10 -6.93421e-10 8.03414e-10)
(1.69245e-10 -8.5968e-10 9.80368e-10)
(3.26954e-10 -1.08928e-09 1.10933e-09)
(5.91104e-10 -1.54513e-09 1.13578e-09)
(1.86269e-11 3.21781e-11 3.73907e-11)
(7.30378e-11 -1.59669e-10 1.73143e-10)
(7.63073e-11 -3.71852e-10 3.41403e-10)
(6.19253e-11 -5.57768e-10 5.14678e-10)
(6.06524e-11 -7.12165e-10 6.75973e-10)
(1.14017e-10 -8.40723e-10 8.08359e-10)
(2.76025e-10 -1.02724e-09 8.85499e-10)
(5.35378e-10 -1.44382e-09 8.80759e-10)
(4.02181e-12 1.51794e-11 3.94351e-11)
(5.06333e-11 -1.73942e-10 1.49705e-10)
(5.52805e-11 -3.83084e-10 2.79454e-10)
(4.63744e-11 -5.61001e-10 4.12716e-10)
(5.15761e-11 -6.99743e-10 5.34188e-10)
(1.10115e-10 -8.08828e-10 6.27431e-10)
(2.72869e-10 -9.78199e-10 6.74319e-10)
(5.25331e-10 -1.3776e-09 6.64195e-10)
(5.66453e-14 1.08828e-11 3.2827e-11)
(4.61722e-11 -1.73122e-10 1.14024e-10)
(5.39388e-11 -3.76784e-10 2.05436e-10)
(4.97478e-11 -5.48044e-10 2.97959e-10)
(5.97957e-11 -6.78303e-10 3.80727e-10)
(1.21579e-10 -7.79604e-10 4.41846e-10)
(2.83859e-10 -9.43825e-10 4.70335e-10)
(5.30662e-10 -1.33487e-09 4.62052e-10)
(-6.45825e-13 1.04341e-11 2.11864e-11)
(4.64607e-11 -1.6871e-10 7.06279e-11)
(5.68078e-11 -3.67176e-10 1.24733e-10)
(5.57815e-11 -5.33637e-10 1.78733e-10)
(6.88124e-11 -6.59744e-10 2.26395e-10)
(1.32379e-10 -7.58613e-10 2.60912e-10)
(2.94071e-10 -9.21896e-10 2.76495e-10)
(5.37145e-10 -1.30874e-09 2.71446e-10)
(-6.53839e-13 1.06763e-11 7.27467e-12)
(4.70918e-11 -1.65628e-10 2.38435e-11)
(5.87572e-11 -3.61084e-10 4.17288e-11)
(5.92626e-11 -5.25051e-10 5.94392e-11)
(7.36785e-11 -6.49475e-10 7.49649e-11)
(1.38026e-10 -7.47784e-10 8.61212e-11)
(2.99379e-10 -9.11121e-10 9.11033e-11)
(5.4063e-10 -1.29621e-09 8.94237e-11)
(2.81402e-10 5.33896e-10 3.16181e-10)
(5.07103e-10 3.86484e-10 7.10834e-10)
(5.48205e-10 1.40565e-10 9.91196e-10)
(5.32409e-10 -9.46204e-11 1.23205e-09)
(5.26692e-10 -3.29835e-10 1.46821e-09)
(5.77805e-10 -6.07467e-10 1.72028e-09)
(7.24706e-10 -1.04599e-09 2.00086e-09)
(9.13857e-10 -1.76173e-09 2.27005e-09)
(5.35081e-11 4.09562e-10 2.65216e-10)
(1.12079e-10 2.91715e-10 6.40459e-10)
(1.19264e-10 9.71323e-11 9.06258e-10)
(1.02314e-10 -1.20721e-10 1.13011e-09)
(8.67892e-11 -3.66385e-10 1.34725e-09)
(9.2519e-11 -6.56782e-10 1.58137e-09)
(1.32289e-10 -1.06563e-09 1.86069e-09)
(1.79609e-10 -1.69926e-09 2.17503e-09)
(-7.1883e-11 3.99852e-10 2.50619e-10)
(-1.49764e-10 2.86899e-10 6.21506e-10)
(-1.75495e-10 9.78974e-11 8.8387e-10)
(-1.81847e-10 -1.14952e-10 1.10502e-09)
(-1.95436e-10 -3.56126e-10 1.31983e-09)
(-2.36685e-10 -6.42228e-10 1.55174e-09)
(-3.19716e-10 -1.04625e-09 1.82871e-09)
(-4.19828e-10 -1.67144e-09 2.14024e-09)
(-2.81098e-10 5.00821e-10 2.7144e-10)
(-5.1888e-10 3.73535e-10 6.50857e-10)
(-5.78146e-10 1.45707e-10 9.20258e-10)
(-5.85434e-10 -7.49091e-11 1.15288e-09)
(-6.084e-10 -2.97259e-10 1.38211e-09)
(-6.9445e-10 -5.62533e-10 1.62769e-09)
(-8.82799e-10 -9.8696e-10 1.90178e-09)
(-1.11985e-09 -1.67711e-09 2.16451e-09)
(-2.43108e-10 4.43962e-10 2.63933e-10)
(-4.63951e-10 2.80064e-10 6.19252e-10)
(-5.19782e-10 3.70266e-11 8.79483e-10)
(-5.29386e-10 -1.81463e-10 1.10602e-09)
(-5.52595e-10 -3.90377e-10 1.33399e-09)
(-6.31378e-10 -6.29575e-10 1.58809e-09)
(-8.07853e-10 -1.01495e-09 1.87602e-09)
(-1.06085e-09 -1.6667e-09 2.12074e-09)
(-9.40962e-11 1.92588e-10 6.71201e-11)
(-2.33225e-10 2.93052e-11 2.86074e-10)
(-2.62266e-10 -1.74655e-10 5.15647e-10)
(-2.58752e-10 -3.70393e-10 7.30313e-10)
(-2.70569e-10 -5.6275e-10 9.39856e-10)
(-3.40452e-10 -7.65887e-10 1.15417e-09)
(-5.21473e-10 -1.05995e-09 1.35603e-09)
(-8.11464e-10 -1.57824e-09 1.46839e-09)
(2.38202e-12 6.3972e-11 2.55794e-11)
(-7.28427e-11 -1.08256e-10 1.79916e-10)
(-8.34405e-11 -3.04525e-10 3.76329e-10)
(-7.50458e-11 -4.85247e-10 5.74088e-10)
(-8.47018e-11 -6.49262e-10 7.62426e-10)
(-1.55367e-10 -8.0076e-10 9.33034e-10)
(-3.42431e-10 -1.01488e-09 1.05671e-09)
(-6.37715e-10 -1.44636e-09 1.08055e-09)
(4.45981e-11 1.01769e-11 3.31921e-11)
(-8.5202e-13 -1.65948e-10 1.61399e-10)
(-3.45757e-12 -3.62621e-10 3.22789e-10)
(4.38868e-12 -5.33675e-10 4.89749e-10)
(-7.97543e-12 -6.73278e-10 6.45212e-10)
(-8.19568e-11 -7.87163e-10 7.72341e-10)
(-2.70244e-10 -9.58203e-10 8.453e-10)
(-5.58156e-10 -1.3501e-09 8.38645e-10)
(5.96357e-11 -8.73006e-12 3.64968e-11)
(2.409e-11 -1.83628e-10 1.41618e-10)
(2.26798e-11 -3.78096e-10 2.66546e-10)
(2.79239e-11 -5.41524e-10 3.95131e-10)
(1.186e-11 -6.65579e-10 5.12118e-10)
(-6.46379e-11 -7.59927e-10 6.01285e-10)
(-2.51061e-10 -9.13587e-10 6.44964e-10)
(-5.29995e-10 -1.28788e-09 6.3338e-10)
(6.38766e-11 -1.42621e-11 3.08968e-11)
(3.0134e-11 -1.8519e-10 1.08747e-10)
(2.73019e-11 -3.74939e-10 1.96987e-10)
(2.98225e-11 -5.32098e-10 2.86336e-10)
(1.1049e-11 -6.47788e-10 3.65982e-10)
(-6.66829e-11 -7.34279e-10 4.24223e-10)
(-2.50762e-10 -8.82545e-10 4.50428e-10)
(-5.22433e-10 -1.24809e-09 4.41099e-10)
(6.47394e-11 -1.54497e-11 2.00938e-11)
(3.07763e-11 -1.82255e-10 6.76478e-11)
(2.63937e-11 -3.67349e-10 1.19952e-10)
(2.69934e-11 -5.20014e-10 1.72122e-10)
(6.59036e-12 -6.31657e-10 2.17953e-10)
(-7.15092e-11 -7.15671e-10 2.50763e-10)
(-2.53795e-10 -8.62829e-10 2.6498e-10)
(-5.20662e-10 -1.2239e-09 2.59302e-10)
(6.48227e-11 -1.55541e-11 6.92119e-12)
(3.05782e-11 -1.79878e-10 2.28801e-11)
(2.53637e-11 -3.62235e-10 4.01818e-11)
(2.50294e-11 -5.12571e-10 5.72946e-11)
(3.90203e-12 -6.22593e-10 7.22176e-11)
(-7.42987e-11 -7.06028e-10 8.28086e-11)
(-2.55623e-10 -8.53155e-10 8.7337e-11)
(-5.20127e-10 -1.21233e-09 8.54472e-11)
(9.12088e-10 -1.82691e-09 2.28461e-09)
(7.19005e-10 -1.71592e-09 1.56891e-09)
(5.6624e-10 -1.59424e-09 1.13106e-09)
(5.04639e-10 -1.50468e-09 8.58378e-10)
(4.94104e-10 -1.44192e-09 6.39088e-10)
(4.99634e-10 -1.39998e-09 4.4222e-10)
(5.05987e-10 -1.37411e-09 2.59452e-10)
(5.09278e-10 -1.36171e-09 8.54724e-11)
(1.78098e-10 -1.72847e-09 2.22541e-09)
(1.26683e-10 -1.57213e-09 1.59217e-09)
(8.15084e-11 -1.45125e-09 1.18427e-09)
(6.79484e-11 -1.37803e-09 8.96851e-10)
(7.28859e-11 -1.33008e-09 6.57062e-10)
(8.2051e-11 -1.29756e-09 4.48179e-10)
(8.90426e-11 -1.27663e-09 2.60727e-10)
(9.24786e-11 -1.26626e-09 8.55872e-11)
(-4.2109e-10 -1.69087e-09 2.20002e-09)
(-3.248e-10 -1.53677e-09 1.57497e-09)
(-2.45395e-10 -1.41759e-09 1.17129e-09)
(-2.0596e-10 -1.34569e-09 8.8705e-10)
(-1.91616e-10 -1.29874e-09 6.49916e-10)
(-1.87112e-10 -1.26693e-09 4.43326e-10)
(-1.85378e-10 -1.24646e-09 2.57914e-10)
(-1.84572e-10 -1.23631e-09 8.46664e-11)
(-1.1212e-09 -1.71256e-09 2.20781e-09)
(-8.87682e-10 -1.60648e-09 1.51715e-09)
(-7.01855e-10 -1.48939e-09 1.09199e-09)
(-6.14239e-10 -1.40363e-09 8.28765e-10)
(-5.84122e-10 -1.34377e-09 6.17475e-10)
(-5.75748e-10 -1.30391e-09 4.27544e-10)
(-5.73216e-10 -1.2794e-09 2.50952e-10)
(-5.72183e-10 -1.26766e-09 8.269e-11)
)
;
    }
    symmetry
    {
        type            symmetry;
    }
    bottom
    {
        type            calculated;
        value           uniform (0 0 0);
    }
}


// ************************************************************************* //
