/*--------------------------------*- C++ -*----------------------------------*\
| =========                 |                                                 |
| \\      /  F ield         | OpenFOAM: The Open Source CFD Toolbox           |
|  \\    /   O peration     | Version:  v1912                                 |
|   \\  /    A nd           | Website:  www.openfoam.com                      |
|    \\/     M anipulation  |                                                 |
\*---------------------------------------------------------------------------*/
FoamFile
{
    version     2.0;
    format      ascii;
    class       volVectorField;
    location    "0.63/solid";
    object      heatFlux;
}
// * * * * * * * * * * * * * * * * * * * * * * * * * * * * * * * * * * * * * //

dimensions      [1 0 -3 0 0 0 0];


internalField   nonuniform List<vector> 
256
(
(-67687 66804.4 -71676.2)
(-13062.4 38160.7 -69676.6)
(12106.3 37826.2 -68579.2)
(62264.7 65049.5 -68377.9)
(-65464.7 8553.48 -69718.8)
(-15915.9 5284.35 -70184.5)
(14782.5 5241.61 -69031.7)
(59762 8371.48 -66315.1)
(-66680.2 1928.08 -71024.7)
(-16374.2 1126.7 -71707.6)
(15193.5 1111.76 -70504.7)
(60852.8 1863.8 -67491.6)
(-68569.9 1996.17 -72939.6)
(-16732.2 1129.29 -73703.8)
(15519.6 1120.27 -72468.2)
(62620 1950.74 -69317.4)
(-71297.5 3390.16 -75676.1)
(-17250.2 2081.7 -76647.4)
(16014.9 2075.04 -75389.8)
(65239.4 3358.16 -71992.2)
(-75336.8 7932.14 -79749.6)
(-18047.3 6058.2 -81288.9)
(16796.1 6039.03 -80011)
(69192.1 7882.17 -76009)
(-80147.5 27502.9 -84740.8)
(-19143.3 26214.9 -87641.1)
(17838.9 26039.7 -86338.2)
(73927.5 27034.2 -80933.4)
(-76527.5 81772.2 -81701.1)
(-19510.5 86711.5 -86655.9)
(17615.5 85443.5 -85398.7)
(70041.2 78091.7 -78059.4)
(-63591 34768.9 -17468.1)
(-11550.7 8872.1 -14900.8)
(11069.1 8812.44 -14766.1)
(58423.6 33799.6 -17076.3)
(-64044.1 4858.35 -21548.4)
(-14405.8 1551.91 -18796.4)
(13858.4 1546.03 -18628.5)
(58692.4 4778.28 -21062.3)
(-65495.4 1083.68 -22150.2)
(-14863 282.042 -19379.5)
(14295.5 278.307 -19203.1)
(60024 1047.17 -21642.4)
(-67472.1 1124.76 -22560.4)
(-15211.2 249.887 -19771.9)
(14623.5 246.12 -19591.8)
(61870.9 1088.77 -22044.8)
(-70419.5 2070.23 -23145.3)
(-15741.6 659.823 -20363.4)
(15134.4 655.595 -20181.7)
(64687 2036.31 -22630.7)
(-75059 5947.84 -24063.5)
(-16625.9 3689.08 -21376)
(16000 3670.62 -21193.9)
(69199.3 5887.78 -23557.5)
(-81327.5 25541.5 -25520.4)
(-18018.8 23199.7 -23190.9)
(17333.1 23015.9 -23009.8)
(75347.4 25034.7 -25030.4)
(-80201.1 84852.5 -27476.5)
(-19151.4 87730.4 -26201.8)
(17835 86409.6 -26030.5)
(73932.4 80985.5 -27027.9)
(-56798.5 27788 -4012.96)
(-10360.4 4463.56 -2126.77)
(9930.79 4431.55 -2113.08)
(51792 26910.9 -3957.97)
(-57637.4 3871.32 -5126.2)
(-12996 805.647 -2877.65)
(12516.6 804.625 -2859.25)
(52462.4 3805.39 -5055.35)
(-59036.6 916.014 -5267.72)
(-13427.1 151.193 -2978.05)
(12930.5 148.518 -2958.74)
(53741.9 881.279 -5194.46)
(-60949.5 1001.05 -5330.16)
(-13763.5 145.298 -3024.01)
(13246.7 141.673 -3004.48)
(55519.2 962.453 -5257.59)
(-63860.9 1887.11 -5408.81)
(-14286.5 477.645 -3091.99)
(13747.7 472.881 -3072.65)
(58282.2 1845.46 -5340.05)
(-68543.2 5557.07 -5540.7)
(-15177.7 3230.77 -3228.84)
(14614.5 3210.91 -3210.21)
(62801.8 5482.43 -5480.43)
(-75127 24089.9 -5930.5)
(-16632.7 21389 -3686.64)
(15999.3 21203.1 -3669.56)
(69209.7 23563.9 -5885.5)
(-75460.5 79923.2 -7900.68)
(-18064.6 81429.4 -6044.64)
(16789.4 80122.6 -6029.54)
(69206.8 76091 -7874.01)
(-52349.3 25629.8 -1432.09)
(-9650.77 3867.68 -314.684)
(9237.94 3840.11 -311.794)
(47468.9 24786.3 -1406.7)
(-53174.2 3603.59 -1777.24)
(-12138.9 700.626 -428.916)
(11680.7 700.367 -424.997)
(48133.6 3541.79 -1745.47)
(-54522.3 879.725 -1815.13)
(-12554 135.681 -442.779)
(12079.1 133.083 -438.727)
(49363.1 844.932 -1782.68)
(-56398.3 983.672 -1825.65)
(-12885.5 135.954 -446.924)
(12389.9 132.21 -442.902)
(51100 943.187 -1793.93)
(-59284 1859.69 -1835.86)
(-13405.5 454.99 -452.972)
(12886.3 449.865 -449.108)
(53825.5 1813.46 -1806.4)
(-63952.1 5426.14 -1862.62)
(-14295.4 3094.42 -475.499)
(13748.4 3073.72 -472.028)
(58307.1 5342.32 -1838.05)
(-70582.8 23181.5 -2042.44)
(-15757.9 20383.9 -655.935)
(15134.2 20196.6 -653.386)
(64722.4 22641.1 -2027.51)
(-71520.7 75942.3 -3337.79)
(-17280.3 76866.7 -2057.43)
(16005.6 75565.8 -2056.41)
(65277.6 72123.3 -3337.17)
(-49681.7 24578.7 -743.691)
(-9240.14 3719.96 -93.924)
(8838.77 3694.76 -92.2449)
(44888 23758.8 -726.536)
(-50479.9 3488.28 -906.031)
(-11643.8 677.553 -124.056)
(11200 677.692 -121.777)
(45531.6 3429.41 -884.442)
(-51802.2 867.602 -921.274)
(-12050.7 133.184 -127.059)
(11590.6 130.613 -124.708)
(46736.1 832.824 -899.198)
(-53662.4 980.32 -923.536)
(-12380.8 135.104 -127.375)
(11899.7 131.291 -125.046)
(48453.9 938.73 -901.905)
(-56535.7 1850.15 -925.662)
(-12899.8 449.07 -128.033)
(12394.3 443.756 -125.789)
(51159 1801.33 -905.376)
(-61183.9 5350.49 -939.365)
(-13787.2 3027.8 -136.318)
(13251.9 3006.63 -134.284)
(55606.2 5261.32 -921.869)
(-67789.1 22614.7 -1050.91)
(-15243.6 19807 -232.957)
(14627.8 19618.7 -231.442)
(61971.3 22064.8 -1039.13)
(-68951.1 73359.6 -1861.83)
(-16783.2 74061.5 -1055.85)
(15509.7 72761.8 -1055.41)
(62719.1 69541 -1859.82)
(-48081.1 23980.1 -422.751)
(-8999.33 3649.7 -47.0592)
(8605.32 3626.09 -45.991)
(43339.7 23175.3 -412.153)
(-48865 3426.01 -511.551)
(-11354.6 667.491 -61.1783)
(10920.3 667.904 -59.7143)
(43972.5 3369.12 -498.069)
(-50175.1 862.22 -519.037)
(-11757.4 132.362 -62.4013)
(11307 129.813 -60.887)
(45165.1 827.469 -505.22)
(-52028.2 979.284 -519.558)
(-12087 134.981 -62.3782)
(11615.4 131.129 -60.8752)
(46873.3 937.009 -506.014)
(-54893.9 1843.86 -520.612)
(-12605.6 446.047 -62.5667)
(12109 440.627 -61.1123)
(49564.9 1793.5 -507.87)
(-59522.5 5300.89 -530.166)
(-13490.3 2989.5 -67.13)
(12962.9 2968.06 -65.7919)
(53983.5 5208.57 -519.041)
(-66087.1 22259 -600.886)
(-14938.4 19464.4 -122.602)
(14328.1 19275.4 -121.55)
(60293.4 21703.2 -593.089)
(-67327.4 71721.2 -1096.81)
(-16473.9 72338.1 -606.406)
(15201.7 71038.5 -605.999)
(61099.4 67900.5 -1095.04)
(-47163.1 23644.4 -221.098)
(-8863.38 3611.72 -23.9683)
(8473.68 3589.06 -23.3766)
(42451.1 22848.6 -215.402)
(-47939.7 3392 -266.688)
(-11191.9 662.211 -31.006)
(10763.2 662.796 -30.1888)
(43078.4 3336.34 -259.381)
(-49243.9 859.596 -270.303)
(-11592.6 131.984 -31.5794)
(11147.8 129.452 -30.7315)
(44265.2 824.879 -262.794)
(-51093.5 978.744 -270.427)
(-11922.1 134.939 -31.541)
(11456.1 131.066 -30.6986)
(45968.5 936.081 -263.063)
(-53954 1839.54 -271.123)
(-12440.3 444.318 -31.6411)
(11949 438.839 -30.8243)
(48651.5 1788.3 -264.183)
(-58567.3 5270.21 -276.984)
(-13322.8 2967.77 -34.0743)
(12800 2946.19 -33.3178)
(53049.4 5176.1 -270.897)
(-65098.2 22048.1 -316.529)
(-14764.3 19267.8 -63.3028)
(14157.3 19078.5 -62.6909)
(59317.2 21488.8 -312.198)
(-66362.9 70742.8 -586.67)
(-16292.4 71327.5 -321.115)
(15021.1 70027.7 -320.843)
(60135.7 66919.9 -585.6)
(-46742 23492.3 -68.9974)
(-8801.61 3594.73 -7.41445)
(8413.89 3572.52 -7.22524)
(42043.1 22700.6 -67.2058)
(-47515.5 3376.8 -83.1041)
(-11118.1 659.88 -9.57375)
(10691.9 660.549 -9.31133)
(42668.2 3321.73 -80.7938)
(-48817.1 858.481 -84.1934)
(-11517.9 131.827 -9.74542)
(11075.7 129.303 -9.47263)
(43852.5 823.786 -81.8153)
(-50665.2 978.463 -84.2192)
(-11847.3 134.919 -9.73122)
(11383.9 131.036 -9.46005)
(45553.5 935.62 -81.8868)
(-53523 1837.3 -84.4741)
(-12365.3 443.514 -9.76531)
(11876.4 438.008 -9.50237)
(48232.4 1785.67 -82.2761)
(-58128.1 5255.49 -86.4536)
(-13246.6 2957.84 -10.5356)
(12726 2936.2 -10.2916)
(52619.5 5160.55 -84.5256)
(-64640.6 21949.4 -99.1972)
(-14684.6 19177.3 -19.6984)
(14079.2 18987.9 -19.4989)
(58864.9 21388.5 -97.8231)
(-65911.3 70282.8 -185.177)
(-16208 70856.7 -100.959)
(14937.2 69556.7 -100.865)
(59683.9 66458.6 -184.839)
)
;

boundaryField
{
    interface
    {
        type            calculated;
        value           nonuniform List<vector> 
192
(
(-109550 66804.4 -71676.2)
(-99465.6 8553.48 -69718.8)
(-100999 1928.08 -71024.7)
(-104073 1996.17 -72939.6)
(-108499 3390.16 -75676.1)
(-114990 7932.14 -79749.6)
(-122452 27502.9 -84740.8)
(-114795 81772.2 -81701.1)
(-104136 34768.9 -17468.1)
(-99340.2 4858.35 -21548.4)
(-101332 1083.68 -22150.2)
(-104593 1124.76 -22560.4)
(-109431 2070.23 -23145.3)
(-116946 5947.84 -24063.5)
(-126729 25541.5 -25520.4)
(-122547 84852.5 -27476.5)
(-92908 27788 -4012.96)
(-89314.7 3871.32 -5126.2)
(-91252.9 916.014 -5267.72)
(-94409.3 1001.05 -5330.16)
(-99190.1 1887.11 -5408.81)
(-106778 5557.07 -5540.7)
(-117070 24089.9 -5930.5)
(-115211 79923.2 -7900.68)
(-85425.2 25629.8 -1432.09)
(-82097.6 3603.59 -1777.24)
(-83965.3 879.725 -1815.13)
(-87057.7 983.672 -1825.65)
(-91793.3 1859.69 -1835.86)
(-99355.9 5426.14 -1862.62)
(-109728 23181.5 -2042.44)
(-108898 75942.3 -3337.79)
(-80909.2 24578.7 -743.691)
(-77696.5 3488.28 -906.031)
(-79528.8 867.602 -921.274)
(-82592.6 980.32 -923.536)
(-87305.4 1850.15 -925.662)
(-94833.5 5350.49 -939.365)
(-105167 22614.7 -1050.91)
(-104753 73359.6 -1861.83)
(-78188.4 23980.1 -422.751)
(-75043.1 3426.01 -511.551)
(-76859.3 862.22 -519.037)
(-79909.7 979.284 -519.558)
(-84608.3 1843.86 -520.612)
(-92102.8 5300.89 -530.166)
(-102372 22259 -600.886)
(-102123 71721.2 -1096.81)
(-76623.5 23644.4 -221.098)
(-73516.8 3392 -266.688)
(-75325.4 859.596 -270.303)
(-78369.1 978.744 -270.427)
(-83058.1 1839.54 -271.123)
(-90526.4 5270.21 -276.984)
(-100742 22048.1 -316.529)
(-100557 70742.8 -586.67)
(-75904.5 23492.3 -68.9974)
(-72815.5 3376.8 -83.1041)
(-74620.9 858.481 -84.1934)
(-77661.6 978.463 -84.2192)
(-82345.6 1837.3 -84.4741)
(-89799.8 5255.49 -86.4536)
(-99985.5 21949.4 -99.1972)
(-99822.1 70282.8 -185.177)
(-67687 66804.4 -114524)
(-65464.7 8553.48 -104195)
(-66680.2 1928.08 -105831)
(-68569.9 1996.17 -108948)
(-71297.5 3390.16 -113391)
(-75336.8 7932.14 -119928)
(-80147.5 27502.9 -127552)
(-76527.5 81772.2 -119908)
(-13062.4 38160.7 -113303)
(-15915.9 5284.35 -107842)
(-16374.2 1126.7 -109900)
(-16732.2 1129.29 -113192)
(-17250.2 2081.7 -118021)
(-18047.3 6058.2 -125518)
(-19143.3 26214.9 -135270)
(-19510.5 86711.5 -130222)
(12106.3 37826.2 -111354)
(14782.5 5241.61 -105841)
(15193.5 1111.76 -107813)
(15519.6 1120.27 -111047)
(16014.9 2075.04 -115835)
(16796.1 6039.03 -123294)
(17838.9 26039.7 -132995)
(17615.5 85443.5 -128021)
(62264.7 65049.5 -108631)
(59762 8371.48 -98255.3)
(60852.8 1863.8 -99671.9)
(62620 1950.74 -102627)
(65239.4 3358.16 -106949)
(69192.1 7882.17 -113366)
(73927.5 27034.2 -120843)
(70041.2 78091.7 -113468)
(100015 65049.5 -68377.9)
(89591.1 8371.48 -66315.1)
(90931.9 1863.8 -67491.6)
(93803.1 1950.74 -69317.4)
(98044.3 3358.16 -71992.2)
(104381 7882.17 -76009)
(111734 27034.2 -80933.4)
(104090 78091.7 -78059.4)
(94653.4 33799.6 -17076.3)
(89604.2 4778.28 -21062.3)
(91389.6 1047.17 -21642.4)
(94423.5 1088.77 -22044.8)
(99030.4 2036.31 -22630.7)
(106319 5887.78 -23557.5)
(115917 25034.7 -25030.4)
(111748 80985.5 -27027.9)
(83690.5 26910.9 -3957.97)
(79859.6 3805.39 -5055.35)
(81588.7 881.279 -5194.46)
(84507.6 962.453 -5257.59)
(89027.8 1845.46 -5340.05)
(96327.7 5482.43 -5480.43)
(106340 23563.9 -5885.5)
(104416 76091 -7874.01)
(76433.8 24786.3 -1406.7)
(72878.9 3541.79 -1745.47)
(74539.3 844.932 -1782.68)
(77387.9 943.187 -1793.93)
(81842.2 1813.46 -1806.4)
(89075 5342.32 -1838.05)
(99098.8 22641.1 -2027.51)
(98127 72123.3 -3337.17)
(72072.2 23758.8 -726.536)
(68638.9 3429.41 -884.442)
(70265.1 832.824 -899.198)
(73079 938.73 -901.905)
(77495.9 1801.33 -905.376)
(84668.5 5261.32 -921.869)
(94611.2 22064.8 -1039.13)
(94002.1 69541 -1859.82)
(69443.9 23175.3 -412.153)
(66081.9 3369.12 -498.069)
(67692.2 827.469 -505.22)
(70488.3 937.009 -506.014)
(74880.1 1793.5 -507.87)
(82002.9 5208.57 -519.041)
(91856.1 21703.2 -593.089)
(91379.2 67900.5 -1095.04)
(67930.7 22848.6 -215.402)
(64609.3 3336.34 -259.381)
(66211.9 824.879 -262.794)
(68998.5 936.081 -263.063)
(73374.5 1788.3 -264.183)
(80461.5 5176.1 -270.897)
(90246 21488.8 -312.198)
(89813.5 66919.9 -585.6)
(67234.8 22700.6 -67.2058)
(63931.8 3321.73 -80.7938)
(65531.2 823.786 -81.8153)
(68313.5 935.62 -81.8868)
(72681.8 1785.67 -82.2761)
(79750.2 5160.55 -84.5256)
(89498.1 21388.5 -97.8231)
(89077.9 66458.6 -184.839)
(-76527.5 120023 -81701.1)
(-80201.1 127748 -27476.5)
(-75460.5 120237 -7900.68)
(-71520.7 113867 -3337.79)
(-68951.1 109700 -1861.83)
(-67327.4 107047 -1096.81)
(-66362.9 105459 -586.67)
(-65911.3 104711 -185.177)
(-19510.5 130318 -86655.9)
(-19151.4 135433 -26201.8)
(-18064.6 125775 -6044.64)
(-17280.3 118422 -2057.43)
(-16783.2 113843 -1055.85)
(-16473.9 111010 -606.406)
(-16292.4 109342 -321.115)
(-16208 108563 -100.959)
(17615.5 128100 -85398.7)
(17835 133127 -26030.5)
(16789.4 123500 -6029.54)
(16005.6 116159 -2056.41)
(15509.7 111584 -1055.41)
(15201.7 108753 -605.999)
(15021.1 107085 -320.843)
(14937.2 106305 -100.865)
(70041.2 113525 -78059.4)
(73932.4 120939 -27027.9)
(69206.8 113518 -7874.01)
(65277.6 107192 -3337.17)
(62719.1 103038 -1859.82)
(61099.4 100388 -1095.04)
(60135.7 98799.4 -585.6)
(59683.9 98051 -184.839)
)
;
    }
    symmetry
    {
        type            symmetry;
    }
    bottom
    {
        type            calculated;
        value           nonuniform List<vector> 
32
(
(-67687 118766 -71676.2)
(-63591 61109.4 -17468.1)
(-56798.5 48893.7 -4012.96)
(-52349.3 45057.5 -1432.09)
(-49681.7 43165.4 -743.691)
(-48081.1 42082.8 -422.751)
(-47163.1 41474.4 -221.098)
(-46742 41198.4 -68.9974)
(-13062.4 67118.9 -69676.6)
(-11550.7 15017.9 -14900.8)
(-10360.4 7515.92 -2126.77)
(-9650.77 6510.86 -314.684)
(-9240.14 6257.19 -93.924)
(-8999.33 6135.17 -47.0592)
(-8863.38 6068.95 -23.9683)
(-8801.61 6039.29 -7.41445)
(12106.3 66516.5 -68579.2)
(11069.1 14906.8 -14766.1)
(9930.79 7452 -2113.08)
(9237.94 6454.44 -311.794)
(8838.77 6204.82 -92.2449)
(8605.32 6085.46 -45.991)
(8473.68 6020.86 -23.3766)
(8413.89 5991.96 -7.22524)
(62264.7 115544 -68377.9)
(58423.6 59294.5 -17076.3)
(51792 47239.1 -3957.97)
(47468.9 43462.6 -1406.7)
(44888 41612.3 -726.536)
(43339.7 40556.5 -412.153)
(42451.1 39963.7 -215.402)
(42043.1 39694.8 -67.2058)
)
;
    }
}


// ************************************************************************* //
