/*--------------------------------*- C++ -*----------------------------------*\
| =========                 |                                                 |
| \\      /  F ield         | OpenFOAM: The Open Source CFD Toolbox           |
|  \\    /   O peration     | Version:  v1912                                 |
|   \\  /    A nd           | Website:  www.openfoam.com                      |
|    \\/     M anipulation  |                                                 |
\*---------------------------------------------------------------------------*/
FoamFile
{
    version     2.0;
    format      ascii;
    class       pointVectorField;
    location    "0.63/solid";
    object      pointD;
}
// * * * * * * * * * * * * * * * * * * * * * * * * * * * * * * * * * * * * * //

dimensions      [0 1 0 0 0 0 0];


internalField   nonuniform List<vector> 
405
(
(3.60509e-08 3.62297e-08 3.72107e-08)
(6.89378e-09 2.37605e-08 4.12246e-08)
(7.96035e-11 1.95006e-08 3.88672e-08)
(-6.56538e-09 2.34098e-08 4.05008e-08)
(-3.42195e-08 3.51534e-08 3.65211e-08)
(6.09145e-08 4.47253e-08 6.63794e-08)
(1.89234e-08 4.01607e-08 9.22305e-08)
(5.18222e-10 3.34585e-08 8.74235e-08)
(-1.74961e-08 3.93092e-08 9.09176e-08)
(-5.7358e-08 4.29052e-08 6.55617e-08)
(6.90856e-08 2.66365e-08 8.33831e-08)
(2.49335e-08 2.58248e-08 1.08551e-07)
(1.30646e-09 2.23034e-08 1.03425e-07)
(-2.18826e-08 2.46784e-08 1.07452e-07)
(-6.38781e-08 2.43962e-08 8.29431e-08)
(7.06448e-08 1.22253e-08 9.50219e-08)
(2.57278e-08 1.31834e-08 1.20545e-07)
(2.20189e-09 1.13783e-08 1.15004e-07)
(-2.08938e-08 1.17537e-08 1.19582e-07)
(-6.36679e-08 9.55366e-09 9.48616e-08)
(7.18205e-08 1.3518e-09 1.0548e-07)
(2.59871e-08 2.23013e-09 1.3165e-07)
(3.17063e-09 5.77095e-10 1.25773e-07)
(-1.92163e-08 5.32605e-10 1.30788e-07)
(-6.29044e-08 -1.74161e-09 1.05526e-07)
(7.54471e-08 -8.59281e-09 1.16862e-07)
(2.77683e-08 -8.63649e-09 1.44025e-07)
(4.21275e-09 -1.0823e-08 1.379e-07)
(-1.89114e-08 -1.05886e-08 1.43235e-07)
(-6.44379e-08 -1.20872e-08 1.17059e-07)
(8.35847e-08 -2.18225e-08 1.30574e-07)
(3.24286e-08 -2.25641e-08 1.59334e-07)
(5.32211e-09 -2.48669e-08 1.53217e-07)
(-2.13578e-08 -2.4759e-08 1.58596e-07)
(-7.03686e-08 -2.56904e-08 1.30884e-07)
(9.74015e-08 -5.52951e-08 1.46892e-07)
(4.01045e-08 -5.4975e-08 1.79061e-07)
(6.46101e-09 -5.54783e-08 1.73823e-07)
(-2.67577e-08 -5.72267e-08 1.78389e-07)
(-8.1918e-08 -5.92582e-08 1.473e-07)
(9.39441e-08 -1.06548e-07 1.43982e-07)
(4.47255e-08 -1.16813e-07 1.54489e-07)
(7.19513e-09 -1.14363e-07 1.51397e-07)
(-2.99043e-08 -1.18248e-07 1.54616e-07)
(-7.76644e-08 -1.09499e-07 1.44734e-07)
(3.71938e-08 2.02865e-08 6.6146e-09)
(0 0 0)
(0 0 0)
(0 0 0)
(-3.49636e-08 1.93178e-08 6.71233e-09)
(7.94039e-08 3.22663e-08 2.20311e-08)
(1.60387e-08 1.79141e-08 2.50858e-08)
(4.43743e-10 1.21594e-08 2.48353e-08)
(-1.47767e-08 1.70271e-08 2.52977e-08)
(-7.42199e-08 3.00908e-08 2.24521e-08)
(8.56763e-08 1.68339e-08 3.67708e-08)
(2.10935e-08 1.19259e-08 4.08289e-08)
(1.13331e-09 8.71499e-09 4.06947e-08)
(-1.8409e-08 1.06886e-08 4.12557e-08)
(-7.89811e-08 1.41757e-08 3.76091e-08)
(8.74379e-08 4.5168e-09 4.74027e-08)
(2.17072e-08 3.03156e-09 5.16321e-08)
(1.94434e-09 1.35398e-09 5.15327e-08)
(-1.74076e-08 1.51833e-09 5.22327e-08)
(-7.90603e-08 1.37481e-09 4.85787e-08)
(8.93348e-08 -5.12644e-09 5.65947e-08)
(2.19578e-08 -6.86643e-09 6.07894e-08)
(2.84828e-09 -8.42453e-09 6.06389e-08)
(-1.5849e-08 -8.62806e-09 6.15199e-08)
(-7.9069e-08 -8.73125e-09 5.80249e-08)
(9.40982e-08 -1.39861e-08 6.60381e-08)
(2.37497e-08 -1.78256e-08 7.0163e-08)
(3.84095e-09 -1.99534e-08 6.99315e-08)
(-1.56506e-08 -1.9826e-08 7.09901e-08)
(-8.17659e-08 -1.80253e-08 6.76579e-08)
(1.04012e-07 -2.52756e-08 7.65743e-08)
(2.84258e-08 -3.15234e-08 8.06394e-08)
(4.91274e-09 -3.38616e-08 8.03713e-08)
(-1.81844e-08 -3.37517e-08 8.15373e-08)
(-8.94898e-08 -2.97086e-08 7.83331e-08)
(1.21234e-07 -5.48e-08 8.70155e-08)
(3.60928e-08 -5.95429e-08 9.11075e-08)
(6.02703e-09 -6.00339e-08 9.09545e-08)
(-2.36234e-08 -6.18098e-08 9.20463e-08)
(-1.04466e-07 -5.93282e-08 8.88591e-08)
(9.79281e-08 -1.14845e-07 9.34686e-08)
(4.07847e-08 -1.47539e-07 9.4713e-08)
(7.13772e-09 -1.42957e-07 9.45901e-08)
(-2.60789e-08 -1.48182e-07 9.56594e-08)
(-8.14115e-08 -1.17582e-07 9.51151e-08)
(3.02224e-08 1.18801e-08 5.12318e-10)
(0 0 0)
(0 0 0)
(0 0 0)
(-2.80681e-08 1.10433e-08 6.64097e-10)
(6.42404e-08 1.71547e-08 6.348e-09)
(1.09924e-08 6.29122e-09 1.05255e-08)
(3.51371e-10 1.48691e-09 1.15895e-08)
(-9.9214e-09 5.48919e-09 1.08044e-08)
(-5.93196e-08 1.52067e-08 6.85701e-09)
(6.88376e-08 5.1441e-09 1.70956e-08)
(1.45098e-08 1.34912e-09 2.25702e-08)
(9.55952e-10 -1.40085e-09 2.40971e-08)
(-1.21911e-08 1.58577e-10 2.30403e-08)
(-6.26015e-08 2.64612e-09 1.79708e-08)
(6.9951e-08 -4.47007e-09 2.71243e-08)
(1.47995e-08 -5.66807e-09 3.28731e-08)
(1.69385e-09 -7.20109e-09 3.45625e-08)
(-1.10135e-08 -7.15625e-09 3.3491e-08)
(-6.21803e-08 -7.50067e-09 2.82884e-08)
(7.15319e-08 -1.24274e-08 3.59048e-08)
(1.49463e-08 -1.40636e-08 4.16978e-08)
(2.53787e-09 -1.55833e-08 4.34315e-08)
(-9.46941e-09 -1.58087e-08 4.24313e-08)
(-6.19785e-08 -1.59505e-08 3.72967e-08)
(7.6166e-08 -1.96543e-08 4.41695e-08)
(1.66533e-08 -2.34628e-08 4.99636e-08)
(3.48289e-09 -2.55873e-08 5.17006e-08)
(-9.27758e-09 -2.54499e-08 5.07858e-08)
(-6.46111e-08 -2.36317e-08 4.57359e-08)
(8.63483e-08 -2.81897e-08 5.19403e-08)
(2.13151e-08 -3.44994e-08 5.76998e-08)
(4.51798e-09 -3.68407e-08 5.94329e-08)
(-1.18654e-08 -3.67148e-08 5.85849e-08)
(-7.26347e-08 -3.25734e-08 5.3632e-08)
(1.04715e-07 -5.25218e-08 5.73417e-08)
(2.90936e-08 -5.72526e-08 6.30376e-08)
(5.60592e-09 -5.76452e-08 6.47774e-08)
(-1.74649e-08 -5.9502e-08 6.3954e-08)
(-8.87749e-08 -5.70022e-08 5.91035e-08)
(8.48068e-08 -1.06674e-07 5.99368e-08)
(3.37921e-08 -1.35997e-07 6.23007e-08)
(6.70056e-09 -1.30558e-07 6.40201e-08)
(-1.99601e-08 -1.36591e-07 6.32087e-08)
(-6.91465e-08 -1.09347e-07 6.15043e-08)
(2.60468e-08 8.7542e-09 4.63212e-10)
(0 0 0)
(0 0 0)
(0 0 0)
(-2.39983e-08 8.00821e-09 5.77642e-10)
(5.51978e-08 1.07785e-08 4.72344e-09)
(7.92946e-09 2.06544e-09 7.32821e-09)
(2.73315e-10 -2.08675e-09 8.29866e-09)
(-7.02724e-09 1.32964e-09 7.53831e-09)
(-5.05616e-08 9.01858e-09 5.11525e-09)
(5.8964e-08 -1.15405e-09 1.3098e-08)
(1.04683e-08 -4.23786e-09 1.65446e-08)
(8.03631e-10 -6.63364e-09 1.7928e-08)
(-8.466e-09 -5.35452e-09 1.69055e-08)
(-5.31513e-08 -3.46786e-09 1.37794e-08)
(5.99378e-08 -1.01289e-08 2.19347e-08)
(1.06027e-08 -1.11895e-08 2.55265e-08)
(1.4773e-09 -1.26041e-08 2.70509e-08)
(-7.2598e-09 -1.26125e-08 2.60041e-08)
(-5.27115e-08 -1.30004e-08 2.28469e-08)
(6.15327e-08 -1.69539e-08 2.99813e-08)
(1.07546e-08 -1.85938e-08 3.3552e-08)
(2.26803e-09 -2.0088e-08 3.51194e-08)
(-5.82579e-09 -2.02845e-08 3.41241e-08)
(-5.26197e-08 -2.03462e-08 3.10826e-08)
(6.62428e-08 -2.24735e-08 3.70648e-08)
(1.24705e-08 -2.63175e-08 4.05944e-08)
(3.17009e-09 -2.84436e-08 4.21738e-08)
(-5.72619e-09 -2.82592e-08 4.12416e-08)
(-5.53942e-08 -2.63455e-08 3.83166e-08)
(7.66376e-08 -2.86873e-08 4.27443e-08)
(1.71494e-08 -3.5043e-08 4.62401e-08)
(4.17133e-09 -3.74004e-08 4.7821e-08)
(-8.39523e-09 -3.7219e-08 4.6941e-08)
(-6.36654e-08 -3.29844e-08 4.41057e-08)
(9.53181e-08 -5.0106e-08 4.5719e-08)
(2.493e-08 -5.49191e-08 4.92305e-08)
(5.23255e-09 -5.53661e-08 5.08171e-08)
(-1.4046e-08 -5.7131e-08 4.99562e-08)
(-8.0132e-08 -5.45085e-08 4.71407e-08)
(7.71859e-08 -1.01104e-07 4.66309e-08)
(2.96689e-08 -1.2889e-07 4.84245e-08)
(6.30583e-09 -1.2346e-07 5.00773e-08)
(-1.66222e-08 -1.29457e-07 4.91354e-08)
(-6.22941e-08 -1.03717e-07 4.78808e-08)
(2.3855e-08 7.60349e-09 7.78558e-10)
(0 0 0)
(0 0 0)
(0 0 0)
(-2.18902e-08 6.921e-09 8.59045e-10)
(5.04549e-08 8.3412e-09 4.53319e-09)
(6.63768e-09 6.22242e-10 5.76711e-09)
(2.20298e-10 -3.17066e-09 6.34052e-09)
(-5.85765e-09 -6.50048e-11 5.91761e-09)
(-4.60446e-08 6.72254e-09 4.81505e-09)
(5.38585e-08 -3.88489e-09 1.1099e-08)
(8.76641e-09 -6.65419e-09 1.27252e-08)
(6.93362e-10 -8.84916e-09 1.3547e-08)
(-7.00051e-09 -7.70461e-09 1.29886e-08)
(-4.83822e-08 -6.04222e-09 1.1598e-08)
(5.49093e-08 -1.2923e-08 1.82055e-08)
(8.89048e-09 -1.39703e-08 1.98613e-08)
(1.31437e-09 -1.5316e-08 2.07656e-08)
(-5.88698e-09 -1.53257e-08 2.02138e-08)
(-4.81164e-08 -1.56441e-08 1.8882e-08)
(5.66574e-08 -1.92437e-08 2.48411e-08)
(9.11573e-09 -2.09414e-08 2.64351e-08)
(2.06006e-09 -2.24209e-08 2.73607e-08)
(-4.61463e-09 -2.25707e-08 2.68612e-08)
(-4.82589e-08 -2.25032e-08 2.56671e-08)
(6.15019e-08 -2.37435e-08 3.04741e-08)
(1.08855e-08 -2.76325e-08 3.20116e-08)
(2.92502e-09 -2.9758e-08 3.2942e-08)
(-4.64146e-09 -2.9521e-08 3.24979e-08)
(-5.12287e-08 -2.75034e-08 3.14228e-08)
(7.19919e-08 -2.87469e-08 3.45841e-08)
(1.55688e-08 -3.51164e-08 3.61079e-08)
(3.8962e-09 -3.74905e-08 3.70421e-08)
(-7.37258e-09 -3.72464e-08 3.66379e-08)
(-5.96334e-08 -3.29505e-08 3.56243e-08)
(9.064e-08 -4.88532e-08 3.65132e-08)
(2.32834e-08 -5.37477e-08 3.80998e-08)
(4.93257e-09 -5.42878e-08 3.90511e-08)
(-1.30035e-08 -5.59194e-08 3.86497e-08)
(-7.60857e-08 -5.3175e-08 3.76047e-08)
(7.36267e-08 -9.79972e-08 3.69072e-08)
(2.80498e-08 -1.24862e-07 3.78651e-08)
(5.985e-09 -1.19647e-07 3.88968e-08)
(-1.56472e-08 -1.254e-07 3.84004e-08)
(-5.93766e-08 -1.0055e-07 3.78609e-08)
(2.27222e-08 7.13331e-09 7.92331e-10)
(0 0 0)
(0 0 0)
(0 0 0)
(-2.08134e-08 6.4947e-09 8.46507e-10)
(4.80594e-08 7.40661e-09 3.84868e-09)
(6.19064e-09 8.66172e-11 4.37008e-09)
(1.86297e-10 -3.52789e-09 4.65543e-09)
(-5.49163e-09 -5.65072e-10 4.4738e-09)
(-4.38028e-08 5.88898e-09 4.04102e-09)
(5.13762e-08 -4.89952e-09 8.7338e-09)
(8.20572e-09 -7.5702e-09 9.39929e-09)
(6.18846e-10 -9.66863e-09 9.80839e-09)
(-6.60237e-09 -8.56934e-09 9.58289e-09)
(-4.61337e-08 -6.93806e-09 9.07902e-09)
(5.25551e-08 -1.4026e-08 1.39641e-08)
(8.37684e-09 -1.5111e-08 1.46083e-08)
(1.2e-09 -1.64255e-08 1.50566e-08)
(-5.6138e-09 -1.64108e-08 1.48562e-08)
(-4.60694e-08 -1.66263e-08 1.44378e-08)
(5.44605e-08 -2.01881e-08 1.88885e-08)
(8.67867e-09 -2.19455e-08 1.94722e-08)
(1.91012e-09 -2.34184e-08 1.9928e-08)
(-4.48779e-09 -2.35218e-08 1.97742e-08)
(-4.64333e-08 -2.33357e-08 1.94731e-08)
(5.94152e-08 -2.42868e-08 2.30063e-08)
(1.04953e-08 -2.82038e-08 2.35469e-08)
(2.74488e-09 -3.03254e-08 2.40045e-08)
(-4.62073e-09 -3.00449e-08 2.3894e-08)
(-4.95645e-08 -2.79489e-08 2.36841e-08)
(6.99222e-08 -2.88579e-08 2.59045e-08)
(1.51646e-08 -3.52145e-08 2.64493e-08)
(3.69096e-09 -3.75943e-08 2.69136e-08)
(-7.38637e-09 -3.73035e-08 2.68295e-08)
(-5.80225e-08 -3.29788e-08 2.66533e-08)
(8.84349e-08 -4.84158e-08 2.72804e-08)
(2.28005e-08 -5.3347e-08 2.78917e-08)
(4.70628e-09 -5.39505e-08 2.83754e-08)
(-1.29785e-08 -5.54836e-08 2.82872e-08)
(-7.43613e-08 -5.26673e-08 2.80699e-08)
(7.20926e-08 -9.64228e-08 2.75564e-08)
(2.75675e-08 -1.22695e-07 2.79951e-08)
(5.74096e-09 -1.17661e-07 2.8534e-08)
(-1.56572e-08 -1.23205e-07 2.83786e-08)
(-5.83349e-08 -9.89215e-08 2.82447e-08)
(2.21201e-08 6.92265e-09 6.02351e-10)
(0 0 0)
(0 0 0)
(0 0 0)
(-2.02454e-08 6.31225e-09 6.35705e-10)
(4.68212e-08 7.0394e-09 2.7328e-09)
(6.0422e-09 -1.23896e-10 2.94876e-09)
(1.65508e-10 -3.65257e-09 3.07969e-09)
(-5.3933e-09 -7.51356e-10 3.0139e-09)
(-4.26596e-08 5.58854e-09 2.85208e-09)
(5.01479e-08 -5.21603e-09 5.96879e-09)
(8.04424e-09 -7.86945e-09 6.22901e-09)
(5.71624e-10 -9.92512e-09 6.41564e-09)
(-6.54437e-09 -8.83286e-09 6.34505e-09)
(-4.50532e-08 -7.17286e-09 6.1848e-09)
(5.14323e-08 -1.43539e-08 9.37504e-09)
(8.26379e-09 -1.54799e-08 9.60757e-09)
(1.12538e-09 -1.67823e-08 9.81063e-09)
(-5.65789e-09 -1.67397e-08 9.76525e-09)
(-4.51451e-08 -1.68681e-08 9.67423e-09)
(5.34483e-08 -2.04899e-08 1.25802e-08)
(8.61869e-09 -2.22887e-08 1.27719e-08)
(1.81002e-09 -2.37584e-08 1.29773e-08)
(-4.63493e-09 -2.38258e-08 1.29652e-08)
(-4.56655e-08 -2.35552e-08 1.29527e-08)
(5.84687e-08 -2.45075e-08 1.52492e-08)
(1.04619e-08 -2.84358e-08 1.54167e-08)
(2.6225e-09 -3.05516e-08 1.56238e-08)
(-4.83816e-09 -3.02411e-08 1.564e-08)
(-4.89009e-08 -2.80962e-08 1.56842e-08)
(6.89601e-08 -2.90039e-08 1.71191e-08)
(1.51114e-08 -3.53376e-08 1.72968e-08)
(3.54969e-09 -3.77139e-08 1.7511e-08)
(-7.6207e-09 -3.73955e-08 1.75424e-08)
(-5.73725e-08 -3.30618e-08 1.76026e-08)
(8.73451e-08 -4.83464e-08 1.80486e-08)
(2.2684e-08 -5.32797e-08 1.82756e-08)
(4.54906e-09 -5.39112e-08 1.85048e-08)
(-1.31802e-08 -5.53898e-08 1.85316e-08)
(-7.36034e-08 -5.25444e-08 1.85604e-08)
(7.1386e-08 -9.5672e-08 1.82699e-08)
(2.74353e-08 -1.21558e-07 1.84655e-08)
(5.57036e-09 -1.16627e-07 1.87233e-08)
(-1.58695e-08 -1.22046e-07 1.87131e-08)
(-5.7972e-08 -9.81297e-08 1.87158e-08)
(2.18165e-08 6.82812e-09 3.18431e-10)
(0 0 0)
(0 0 0)
(0 0 0)
(-1.99601e-08 6.23334e-09 3.34323e-10)
(4.6206e-08 6.89757e-09 1.40523e-09)
(5.9868e-09 -2.0159e-10 1.48679e-09)
(1.54334e-10 -3.69088e-09 1.53802e-09)
(-5.36496e-09 -8.15046e-10 1.51821e-09)
(-4.20956e-08 5.48445e-09 1.46226e-09)
(4.95521e-08 -5.29e-09 3.01481e-09)
(7.99386e-09 -7.94512e-09 3.10826e-09)
(5.45642e-10 -9.9829e-09 3.18077e-09)
(-6.55096e-09 -8.88757e-09 3.16441e-09)
(-4.45383e-08 -7.19939e-09 3.11859e-09)
(5.08986e-08 -1.44086e-08 4.68869e-09)
(8.24325e-09 -1.55607e-08 4.76621e-09)
(1.08349e-09 -1.68589e-08 4.84464e-09)
(-5.7255e-09 -1.67969e-08 4.84281e-09)
(-4.47217e-08 -1.68718e-08 4.83324e-09)
(5.29747e-08 -2.05519e-08 6.25977e-09)
(8.62629e-09 -2.23726e-08 6.31795e-09)
(1.75291e-09 -2.38407e-08 6.39711e-09)
(-4.76056e-09 -2.38862e-08 6.4122e-09)
(-4.53299e-08 -2.35676e-08 6.44068e-09)
(5.80263e-08 -2.45888e-08 7.56769e-09)
(1.04809e-08 -2.85194e-08 7.61594e-09)
(2.55177e-09 -3.06303e-08 7.69641e-09)
(-5.00194e-09 -3.0303e-08 7.72517e-09)
(-4.86203e-08 -2.81324e-08 7.78002e-09)
(6.84992e-08 -2.91137e-08 8.48831e-09)
(1.51152e-08 -3.54286e-08 8.54377e-09)
(3.46724e-09 -3.77992e-08 8.62868e-09)
(-7.7922e-09 -3.74673e-08 8.66425e-09)
(-5.7092e-08 -3.31326e-08 8.72525e-09)
(8.68017e-08 -4.83809e-08 8.96276e-09)
(2.26489e-08 -5.33048e-08 9.04355e-09)
(4.45667e-09 -5.39447e-08 9.13635e-09)
(-1.33319e-08 -5.53985e-08 9.16926e-09)
(-7.32537e-08 -5.25457e-08 9.21421e-09)
(7.10394e-08 -9.53453e-08 9.09151e-09)
(2.7384e-08 -1.21009e-07 9.17069e-09)
(5.46967e-09 -1.16122e-07 9.27466e-09)
(-1.60214e-08 -1.21483e-07 9.29213e-09)
(-5.78275e-08 -9.77775e-08 9.31059e-09)
(1.74607e-08 7.10546e-09 0)
(2.11755e-09 1.75404e-09 0)
(-1.0989e-12 -3.87223e-10 0)
(-1.98435e-09 1.53712e-09 0)
(-1.60478e-08 6.47324e-09 0)
(2.88942e-08 4.99353e-09 0)
(5.97099e-09 -2.20586e-10 0)
(1.50818e-10 -3.6983e-09 0)
(-5.35768e-09 -8.29471e-10 0)
(-2.63845e-08 3.81443e-09 0)
(3.21516e-08 -5.72537e-09 0)
(7.98042e-09 -7.95619e-09 0)
(5.37369e-10 -9.98898e-09 0)
(-6.55567e-09 -8.89176e-09 0)
(-2.87702e-08 -7.38e-09 0)
(3.29574e-08 -1.44927e-08 0)
(8.23935e-09 -1.55682e-08 0)
(1.07002e-09 -1.68653e-08 0)
(-5.74994e-09 -1.67965e-08 0)
(-2.84672e-08 -1.66375e-08 0)
(3.42221e-08 -2.09246e-08 0)
(8.63089e-09 -2.23834e-08 0)
(1.73438e-09 -2.38508e-08 0)
(-4.80344e-09 -2.38891e-08 0)
(-2.83289e-08 -2.35527e-08 0)
(3.80088e-08 -2.57423e-08 0)
(1.04885e-08 -2.85393e-08 0)
(2.52866e-09 -3.06483e-08 0)
(-5.05676e-09 -3.03155e-08 0)
(-3.04291e-08 -2.88371e-08 0)
(4.65196e-08 -3.13784e-08 0)
(1.51173e-08 -3.54608e-08 0)
(3.44016e-09 -3.78289e-08 0)
(-7.84929e-09 -3.7493e-08 0)
(-3.70176e-08 -3.49024e-08 0)
(6.12798e-08 -5.08015e-08 0)
(2.26381e-08 -5.33218e-08 0)
(4.42623e-09 -5.3963e-08 0)
(-1.33826e-08 -5.541e-08 0)
(-4.97084e-08 -5.44469e-08 0)
(6.14916e-08 -8.63941e-08 0)
(2.7174e-08 -9.40262e-08 0)
(5.18313e-09 -9.11042e-08 0)
(-1.63898e-08 -9.52721e-08 0)
(-4.91659e-08 -8.90265e-08 0)
)
;

boundaryField
{
    interface
    {
        type            calculated;
    }
    symmetry
    {
        type            symmetry;
    }
    bottom
    {
        type            calculated;
    }
}


// ************************************************************************* //
