/*--------------------------------*- C++ -*----------------------------------*\
| =========                 |                                                 |
| \\      /  F ield         | OpenFOAM: The Open Source CFD Toolbox           |
|  \\    /   O peration     | Version:  v1912                                 |
|   \\  /    A nd           | Website:  www.openfoam.com                      |
|    \\/     M anipulation  |                                                 |
\*---------------------------------------------------------------------------*/
FoamFile
{
    version     2.0;
    format      ascii;
    class       pointVectorField;
    location    "0.63/solid";
    object      pointDD;
}
// * * * * * * * * * * * * * * * * * * * * * * * * * * * * * * * * * * * * * //

dimensions      [0 1 0 0 0 0 0];


internalField   nonuniform List<vector> 
405
(
(1.90814e-10 3.24631e-10 1.97067e-10)
(8.14429e-11 2.31089e-10 1.43974e-10)
(-4.70161e-12 1.98863e-10 1.28556e-10)
(-8.61225e-11 2.202e-10 1.2885e-10)
(-1.69723e-10 3.06674e-10 1.74281e-10)
(3.9437e-10 4.08227e-10 4.86277e-10)
(2.32608e-10 3.9889e-10 4.78185e-10)
(-1.44199e-11 3.42357e-10 4.41624e-10)
(-2.50153e-10 3.83494e-10 4.42833e-10)
(-3.67668e-10 3.91435e-10 4.42205e-10)
(5.23551e-10 2.05404e-10 8.1392e-10)
(3.14445e-10 2.27784e-10 8.03511e-10)
(-2.42654e-11 1.9301e-10 7.5674e-10)
(-3.49728e-10 2.24849e-10 7.59326e-10)
(-5.10077e-10 2.08235e-10 7.53674e-10)
(5.38643e-10 -3.44157e-11 1.06859e-09)
(3.18599e-10 8.54797e-12 1.0533e-09)
(-3.51435e-11 -6.7489e-12 9.9717e-10)
(-3.75474e-10 1.67305e-11 1.00255e-09)
(-5.44427e-10 -1.41047e-11 9.97437e-10)
(5.3082e-10 -2.63496e-10 1.30253e-09)
(3.05273e-10 -2.21194e-10 1.27964e-09)
(-4.87395e-11 -2.32045e-10 1.21341e-09)
(-3.8917e-10 -2.03498e-10 1.22366e-09)
(-5.61509e-10 -2.27842e-10 1.22284e-09)
(5.52685e-10 -5.08504e-10 1.54493e-09)
(3.13333e-10 -4.79563e-10 1.51079e-09)
(-6.54879e-11 -4.93348e-10 1.43447e-09)
(-4.30464e-10 -4.53084e-10 1.45016e-09)
(-6.14461e-10 -4.58285e-10 1.45764e-09)
(6.4517e-10 -8.47677e-10 1.8118e-09)
(3.71095e-10 -8.28581e-10 1.76734e-09)
(-8.58874e-11 -8.3562e-10 1.68543e-09)
(-5.28412e-10 -7.92873e-10 1.70216e-09)
(-7.44275e-10 -7.82088e-10 1.7171e-09)
(8.08198e-10 -1.39347e-09 2.07738e-09)
(4.70794e-10 -1.36568e-09 2.04376e-09)
(-1.1072e-10 -1.34303e-09 1.97144e-09)
(-6.76091e-10 -1.31629e-09 1.97395e-09)
(-9.50097e-10 -1.30609e-09 1.97549e-09)
(8.95103e-10 -1.75092e-09 2.21484e-09)
(5.25305e-10 -1.7186e-09 2.1977e-09)
(-1.25079e-10 -1.66406e-09 2.14624e-09)
(-7.58184e-10 -1.65042e-09 2.13521e-09)
(-1.07719e-09 -1.64434e-09 2.11814e-09)
(1.14188e-10 1.64618e-10 8.92296e-11)
(0 0 0)
(0 0 0)
(0 0 0)
(-8.26544e-11 1.55316e-10 8.11264e-11)
(3.1602e-10 2.41462e-10 3.29757e-10)
(0 0 0)
(0 0 0)
(0 0 0)
(-2.54649e-10 2.32493e-10 3.0347e-10)
(4.19857e-10 3.54877e-11 6.0812e-10)
(0 0 0)
(0 0 0)
(0 0 0)
(-3.65867e-10 4.53237e-11 5.65289e-10)
(4.2959e-10 -1.92522e-10 8.4851e-10)
(0 0 0)
(0 0 0)
(0 0 0)
(-3.9006e-10 -1.65256e-10 7.94418e-10)
(4.20478e-10 -4.08776e-10 1.07336e-09)
(0 0 0)
(0 0 0)
(0 0 0)
(-4.01716e-10 -3.6531e-10 1.01036e-09)
(4.39671e-10 -6.32198e-10 1.3035e-09)
(0 0 0)
(0 0 0)
(0 0 0)
(-4.48163e-10 -5.72858e-10 1.23252e-09)
(5.31173e-10 -9.25532e-10 1.54533e-09)
(0 0 0)
(0 0 0)
(0 0 0)
(-5.72906e-10 -8.49596e-10 1.46674e-09)
(7.11128e-10 -1.39928e-09 1.75807e-09)
(0 0 0)
(0 0 0)
(0 0 0)
(-7.90051e-10 -1.30121e-09 1.67285e-09)
(8.05458e-10 -1.71786e-09 1.87023e-09)
(4.67004e-10 -1.68209e-09 1.88422e-09)
(-1.14229e-10 -1.60634e-09 1.86455e-09)
(-6.79383e-10 -1.60568e-09 1.83997e-09)
(-9.52677e-10 -1.60448e-09 1.79294e-09)
(5.52738e-11 7.24347e-11 2.71662e-11)
(0 0 0)
(0 0 0)
(0 0 0)
(-2.36973e-11 6.33133e-11 2.32406e-11)
(1.6587e-10 5.45654e-11 1.52998e-10)
(0 0 0)
(0 0 0)
(0 0 0)
(-1.01231e-10 4.53372e-11 1.3816e-10)
(2.28902e-10 -1.42197e-10 3.61648e-10)
(0 0 0)
(0 0 0)
(0 0 0)
(-1.65709e-10 -1.33906e-10 3.34398e-10)
(2.27929e-10 -3.4884e-10 5.77225e-10)
(0 0 0)
(0 0 0)
(0 0 0)
(-1.74131e-10 -3.24127e-10 5.40212e-10)
(2.15279e-10 -5.44138e-10 7.84201e-10)
(0 0 0)
(0 0 0)
(0 0 0)
(-1.779e-10 -5.03742e-10 7.39054e-10)
(2.33177e-10 -7.34397e-10 9.8336e-10)
(0 0 0)
(0 0 0)
(0 0 0)
(-2.19137e-10 -6.78508e-10 9.30913e-10)
(3.29495e-10 -9.63801e-10 1.16397e-09)
(0 0 0)
(0 0 0)
(0 0 0)
(-3.45012e-10 -8.91982e-10 1.10495e-09)
(5.27156e-10 -1.34243e-09 1.28257e-09)
(0 0 0)
(0 0 0)
(0 0 0)
(-5.76071e-10 -1.24971e-09 1.21875e-09)
(6.37932e-10 -1.60846e-09 1.32412e-09)
(3.62313e-10 -1.5621e-09 1.34763e-09)
(-9.38109e-11 -1.47626e-09 1.35756e-09)
(-5.35257e-10 -1.48912e-09 1.31634e-09)
(-7.50133e-10 -1.50057e-09 1.26786e-09)
(2.15552e-11 2.91802e-11 1.70827e-11)
(0 0 0)
(0 0 0)
(0 0 0)
(1.02928e-11 1.87198e-11 1.44829e-11)
(7.75176e-11 -3.48081e-11 1.08065e-10)
(0 0 0)
(0 0 0)
(0 0 0)
(-1.01161e-11 -4.73152e-11 9.80906e-11)
(1.15251e-10 -2.32416e-10 2.73794e-10)
(0 0 0)
(0 0 0)
(0 0 0)
(-4.4821e-11 -2.28347e-10 2.54867e-10)
(1.10789e-10 -4.30852e-10 4.58707e-10)
(0 0 0)
(0 0 0)
(0 0 0)
(-4.54168e-11 -4.1088e-10 4.31933e-10)
(1.01021e-10 -6.0698e-10 6.39361e-10)
(0 0 0)
(0 0 0)
(0 0 0)
(-4.80515e-11 -5.71594e-10 6.05606e-10)
(1.23701e-10 -7.62353e-10 8.02881e-10)
(0 0 0)
(0 0 0)
(0 0 0)
(-9.03347e-11 -7.1168e-10 7.62811e-10)
(2.26382e-10 -9.39707e-10 9.29633e-10)
(0 0 0)
(0 0 0)
(0 0 0)
(-2.19091e-10 -8.73376e-10 8.84118e-10)
(4.29031e-10 -1.25751e-09 9.86517e-10)
(0 0 0)
(0 0 0)
(0 0 0)
(-4.51989e-10 -1.17051e-09 9.37399e-10)
(5.38104e-10 -1.49957e-09 9.85967e-10)
(2.97025e-10 -1.46378e-09 1.00099e-09)
(-7.82737e-11 -1.3826e-09 1.01675e-09)
(-4.39156e-10 -1.39376e-09 9.77381e-10)
(-6.21318e-10 -1.39676e-09 9.43103e-10)
(7.61669e-12 1.23883e-11 1.88222e-11)
(0 0 0)
(0 0 0)
(0 0 0)
(2.45223e-11 7.37217e-13 1.6986e-11)
(4.11543e-11 -6.83452e-11 9.79122e-11)
(0 0 0)
(0 0 0)
(0 0 0)
(2.82432e-11 -8.40062e-11 9.09674e-11)
(6.96723e-11 -2.65096e-10 2.31288e-10)
(0 0 0)
(0 0 0)
(0 0 0)
(5.79208e-12 -2.65347e-10 2.18051e-10)
(6.68629e-11 -4.58373e-10 3.79655e-10)
(0 0 0)
(0 0 0)
(0 0 0)
(6.84338e-12 -4.43282e-10 3.60556e-10)
(6.26215e-11 -6.2039e-10 5.24355e-10)
(0 0 0)
(0 0 0)
(0 0 0)
(1.99298e-12 -5.90114e-10 4.99745e-10)
(9.13777e-11 -7.52075e-10 6.49255e-10)
(0 0 0)
(0 0 0)
(0 0 0)
(-4.31911e-11 -7.06577e-10 6.19565e-10)
(1.98303e-10 -9.00717e-10 7.35392e-10)
(0 0 0)
(0 0 0)
(0 0 0)
(-1.73189e-10 -8.39511e-10 7.01382e-10)
(3.99674e-10 -1.18987e-09 7.62918e-10)
(0 0 0)
(0 0 0)
(0 0 0)
(-4.02137e-10 -1.10777e-09 7.26139e-10)
(5.04678e-10 -1.42179e-09 7.482e-10)
(2.77701e-10 -1.39716e-09 7.50035e-10)
(-6.65977e-11 -1.32403e-09 7.59068e-10)
(-3.96372e-10 -1.32949e-09 7.32458e-10)
(-5.65255e-10 -1.32308e-09 7.16171e-10)
(2.93308e-12 7.07704e-12 1.76765e-11)
(0 0 0)
(0 0 0)
(0 0 0)
(2.94024e-11 -5.38688e-12 1.64246e-11)
(2.96667e-11 -7.70528e-11 8.22308e-11)
(0 0 0)
(0 0 0)
(0 0 0)
(4.10073e-11 -9.50234e-11 7.75378e-11)
(5.71572e-11 -2.69801e-10 1.83342e-10)
(0 0 0)
(0 0 0)
(0 0 0)
(2.15701e-11 -2.73459e-10 1.74396e-10)
(5.7959e-11 -4.57441e-10 2.92998e-10)
(0 0 0)
(0 0 0)
(0 0 0)
(2.13641e-11 -4.46369e-10 2.7996e-10)
(5.90356e-11 -6.1006e-10 3.98593e-10)
(0 0 0)
(0 0 0)
(0 0 0)
(1.36922e-11 -5.84058e-10 3.81559e-10)
(9.26785e-11 -7.29254e-10 4.86748e-10)
(0 0 0)
(0 0 0)
(0 0 0)
(-3.39101e-11 -6.88051e-10 4.65949e-10)
(2.01787e-10 -8.65728e-10 5.4342e-10)
(0 0 0)
(0 0 0)
(0 0 0)
(-1.63714e-10 -8.08663e-10 5.19408e-10)
(4.00323e-10 -1.14308e-09 5.57902e-10)
(0 0 0)
(0 0 0)
(0 0 0)
(-3.87711e-10 -1.06479e-09 5.31832e-10)
(5.02348e-10 -1.36976e-09 5.42738e-10)
(2.80084e-10 -1.35203e-09 5.37432e-10)
(-5.80795e-11 -1.28519e-09 5.3999e-10)
(-3.81584e-10 -1.28611e-09 5.24987e-10)
(-5.46255e-10 -1.27416e-09 5.2003e-10)
(1.71209e-12 5.8643e-12 1.32154e-11)
(0 0 0)
(0 0 0)
(0 0 0)
(3.07431e-11 -7.10955e-12 1.24385e-11)
(2.72929e-11 -7.7046e-11 5.8414e-11)
(0 0 0)
(0 0 0)
(0 0 0)
(4.41584e-11 -9.65238e-11 5.55119e-11)
(5.62441e-11 -2.64754e-10 1.26075e-10)
(0 0 0)
(0 0 0)
(0 0 0)
(2.4503e-11 -2.70742e-10 1.20542e-10)
(6.03871e-11 -4.47004e-10 1.97718e-10)
(0 0 0)
(0 0 0)
(0 0 0)
(2.25013e-11 -4.3878e-10 1.8961e-10)
(6.53514e-11 -5.93781e-10 2.65735e-10)
(0 0 0)
(0 0 0)
(0 0 0)
(1.26719e-11 -5.70866e-10 2.55055e-10)
(1.02182e-10 -7.0742e-10 3.21336e-10)
(0 0 0)
(0 0 0)
(0 0 0)
(-3.63497e-11 -6.69333e-10 3.08189e-10)
(2.12294e-10 -8.39867e-10 3.5583e-10)
(0 0 0)
(0 0 0)
(0 0 0)
(-1.6548e-10 -7.85782e-10 3.40555e-10)
(4.08365e-10 -1.1126e-09 3.63689e-10)
(0 0 0)
(0 0 0)
(0 0 0)
(-3.85519e-10 -1.03702e-09 3.47044e-10)
(5.08204e-10 -1.33648e-09 3.52831e-10)
(2.87069e-10 -1.32248e-09 3.46718e-10)
(-5.22913e-11 -1.25942e-09 3.46401e-10)
(-3.76894e-10 -1.25776e-09 3.38771e-10)
(-5.4076e-10 -1.24304e-09 3.38323e-10)
(1.5016e-12 5.7916e-12 6.96535e-12)
(0 0 0)
(0 0 0)
(0 0 0)
(3.10187e-11 -7.46238e-12 6.59387e-12)
(2.72468e-11 -7.53162e-11 3.00922e-11)
(0 0 0)
(0 0 0)
(0 0 0)
(4.46254e-11 -9.56375e-11 2.87062e-11)
(5.75273e-11 -2.59145e-10 6.39033e-11)
(0 0 0)
(0 0 0)
(0 0 0)
(2.43232e-11 -2.6647e-10 6.12593e-11)
(6.37862e-11 -4.37618e-10 9.91554e-11)
(0 0 0)
(0 0 0)
(0 0 0)
(2.10755e-11 -4.31062e-10 9.52701e-11)
(7.09951e-11 -5.81206e-10 1.32288e-10)
(0 0 0)
(0 0 0)
(0 0 0)
(1.00158e-11 -5.60126e-10 1.27148e-10)
(1.09548e-10 -6.92698e-10 1.5907e-10)
(0 0 0)
(0 0 0)
(0 0 0)
(-3.96731e-11 -6.56476e-10 1.52714e-10)
(2.20081e-10 -8.24176e-10 1.75433e-10)
(0 0 0)
(0 0 0)
(0 0 0)
(-1.68234e-10 -7.71875e-10 1.68018e-10)
(4.14617e-10 -1.09522e-09 1.78982e-10)
(0 0 0)
(0 0 0)
(0 0 0)
(-3.85848e-10 -1.02125e-09 1.70882e-10)
(5.13072e-10 -1.31773e-09 1.73521e-10)
(2.92079e-10 -1.30553e-09 1.69909e-10)
(-4.89398e-11 -1.24433e-09 1.69235e-10)
(-3.7514e-10 -1.24151e-09 1.66041e-10)
(-5.39044e-10 -1.22558e-09 1.66457e-10)
(1.05515e-11 -1.77077e-14 0)
(7.11513e-12 -1.42992e-11 0)
(3.29384e-13 -2.32779e-11 0)
(-2.73882e-12 -1.85403e-11 0)
(1.65383e-11 -1.38335e-11 0)
(3.71184e-11 -8.32327e-11 0)
(2.47379e-11 -1.08665e-10 0)
(3.33733e-12 -1.26374e-10 0)
(-9.47446e-12 -1.15625e-10 0)
(1.08105e-11 -9.94969e-11 0)
(6.39208e-11 -2.60261e-10 0)
(3.81223e-11 -2.77004e-10 0)
(7.77741e-12 -2.90695e-10 0)
(-1.303e-11 -2.79496e-10 0)
(-5.50513e-12 -2.66345e-10 0)
(6.93385e-11 -4.35184e-10 0)
(3.98411e-11 -4.46651e-10 0)
(9.42313e-12 -4.55864e-10 0)
(-1.17831e-11 -4.42788e-10 0)
(-7.95706e-12 -4.29439e-10 0)
(7.58984e-11 -5.81892e-10 0)
(4.15926e-11 -6.01502e-10 0)
(7.13463e-12 -6.13002e-10 0)
(-1.81893e-11 -5.90585e-10 0)
(-1.86448e-11 -5.63579e-10 0)
(1.13926e-10 -7.05359e-10 0)
(6.40633e-11 -7.45735e-10 0)
(6.27761e-13 -7.6364e-10 0)
(-5.34339e-11 -7.27389e-10 0)
(-6.83338e-11 -6.73894e-10 0)
(2.21926e-10 -8.53048e-10 0)
(1.31467e-10 -9.09516e-10 0)
(-1.04751e-11 -9.25191e-10 0)
(-1.42215e-10 -8.83132e-10 0)
(-1.95456e-10 -8.07473e-10 0)
(4.02782e-10 -1.1241e-09 0)
(2.36982e-10 -1.15583e-09 0)
(-2.6883e-11 -1.14357e-09 0)
(-2.78386e-10 -1.11787e-09 0)
(-4.0195e-10 -1.05886e-09 0)
(5.03876e-10 -1.31861e-09 0)
(2.94209e-10 -1.30455e-09 0)
(-4.21828e-11 -1.25694e-09 0)
(-3.64209e-10 -1.25002e-09 0)
(-5.34841e-10 -1.23471e-09 0)
)
;

boundaryField
{
    interface
    {
        type            calculated;
    }
    symmetry
    {
        type            symmetry;
    }
    bottom
    {
        type            calculated;
    }
}


// ************************************************************************* //
