/*--------------------------------*- C++ -*----------------------------------*\
| =========                 |                                                 |
| \\      /  F ield         | OpenFOAM: The Open Source CFD Toolbox           |
|  \\    /   O peration     | Version:  v1912                                 |
|   \\  /    A nd           | Website:  www.openfoam.com                      |
|    \\/     M anipulation  |                                                 |
\*---------------------------------------------------------------------------*/
FoamFile
{
    version     2.0;
    format      ascii;
    class       volScalarField;
    location    "0.63/solid";
    object      sigmaEq;
}
// * * * * * * * * * * * * * * * * * * * * * * * * * * * * * * * * * * * * * //

dimensions      [1 -1 -2 0 0 0 0];


internalField   nonuniform List<scalar> 
256
(
634461
449395
443163
606876
372568
317460
312473
351119
371520
300233
295359
350045
389793
301309
296473
368081
404133
308419
303582
382197
404934
314041
309192
382844
331660
288595
284433
311282
54882.5
325879
323212
57895.7
382961
91155
88506.7
354479
283677
90108.8
87739.1
258124
277472
68408.5
66563.4
252021
280839
46901
45694.2
255029
288894
38445.3
37869.3
262575
299260
42181.1
41653.8
272446
282149
33951
34911.5
255847
331689
289078
284919
311276
322248
53201.4
52203.2
294831
272294
52915.3
50879.8
247053
269634
37703.2
35789.1
244011
272917
23022
21980.8
246719
282028
21378.3
21418.4
255155
296976
26306
25812.5
269432
298875
41061.4
40697.7
271961
405341
315053
310227
383278
288728
48645.2
48277.2
262651
252881
46191
45143.9
228983
251648
34207.3
33397.1
227046
255140
25608.9
25889.5
229735
264862
24453.3
25435.5
238617
281228
24036.9
24263
254132
287843
34818.8
34695.6
261268
406584
310599
305812
384750
269448
41990.5
41631.7
244172
237517
41334.1
40586.3
214404
237611
32112.9
31625.2
213685
241974
24914.3
25345.8
217114
252696
23038.6
23973.8
226905
270056
20889.7
20899.9
243327
278600
34225.8
33965.7
252351
398221
304366
299622
376654
258521
36329.1
35827.9
233695
227728
36543.7
35737.5
204987
228766
28152.5
27549.4
205175
234060
20240.6
20485.2
209481
245704
17482.7
18183.6
220155
263826
16218.5
15570
237311
273588
36835.2
36343
247574
391956
300043
295316
370559
252536
32152.6
31488.7
227950
222108
32530.7
31569.3
199534
223697
23836.7
22984.2
200256
229652
14396.4
14367.4
205206
241916
10871.1
11362.2
216489
260544
12428.5
10924.9
234149
271114
39351
38726.8
245253
388460
297430
292712
367167
249861
29832.5
29058
225381
219552
30173.1
29093
197043
221391
20979.7
19914.8
198009
227672
9762.65
9438.65
203281
240237
4814.95
5249.87
214862
259110
10351.6
8096.55
232770
270087
40670
39995.4
244304
386967
296207
291494
365724
)
;

boundaryField
{
    interface
    {
        type            calculated;
        value           nonuniform List<scalar> 
192
(
813005
527330
530026
555578
577708
587356
525968
288887
619308
489516
486963
500752
520326
542679
536243
526175
543507
470149
472074
485252
505741
532903
542907
588300
493892
437994
442462
455913
476980
505833
521065
581343
464035
413310
419347
433616
455544
485441
502910
566679
446679
397682
404609
419675
442377
472969
491604
556098
437073
388763
396158
411770
434990
465996
485267
549964
432774
384733
392334
408211
431680
462875
482433
547225
827314
542360
545440
571685
594357
604144
543577
313267
705480
539671
526393
537841
556131
573953
560039
538167
695321
530836
517408
528704
546874
564574
551049
531833
794405
516951
519593
545292
567612
577206
518590
306877
769635
488313
490473
515378
536889
545950
485095
255692
571447
444714
441684
454553
473106
494472
488156
485137
497148
426102
427220
439314
458588
484469
494372
546585
449302
395583
399011
411207
430895
458235
473094
540037
420610
371984
376888
389790
410232
438483
455422
525724
403958
356973
362725
376365
397517
426390
444425
515360
394751
348387
354585
368744
390380
419631
438274
509356
390633
344504
350899
365313
387185
416608
435528
506680
313855
544047
605271
598276
583405
572523
566162
563311
538574
560951
575862
560210
545135
534683
528295
525285
532182
551889
566387
550823
535807
525381
519006
516002
307166
518853
578143
571327
556680
545941
539662
536851
)
;
    }
    symmetry
    {
        type            symmetry;
    }
    bottom
    {
        type            calculated;
        value           nonuniform List<scalar> 
32
(
900623
489817
387877
345702
323876
311738
305110
302154
574897
115455
54341.5
50351.1
44971.7
40036.1
36374.1
34368.4
567602
111785
51657.4
48175.5
42614.1
37378.2
33416.3
31209.6
867148
458390
357657
316933
296091
284557
278272
275470
)
;
    }
}


// ************************************************************************* //
