/*--------------------------------*- C++ -*----------------------------------*\
| =========                 |                                                 |
| \\      /  F ield         | OpenFOAM: The Open Source CFD Toolbox           |
|  \\    /   O peration     | Version:  v1912                                 |
|   \\  /    A nd           | Website:  www.openfoam.com                      |
|    \\/     M anipulation  |                                                 |
\*---------------------------------------------------------------------------*/
FoamFile
{
    version     2.0;
    format      ascii;
    class       volScalarField;
    location    "0.63/solid";
    object      T;
}
// * * * * * * * * * * * * * * * * * * * * * * * * * * * * * * * * * * * * * //

dimensions      [0 0 0 1 0 0 0];


internalField   nonuniform List<scalar> 
256
(
291.515
292.161
292.169
291.556
291.144
291.931
291.94
291.192
291.088
291.897
291.906
291.137
291.048
291.875
291.885
291.099
290.988
291.84
291.85
291.04
290.878
291.771
291.781
290.931
290.591
291.537
291.548
290.645
289.503
290.46
290.479
289.579
292.236
292.812
292.814
292.259
292.025
292.744
292.746
292.051
291.993
292.735
292.736
292.02
291.971
292.73
292.732
291.999
291.937
292.722
292.724
291.965
291.868
292.697
292.699
291.897
291.64
292.538
292.541
291.671
290.591
291.537
291.548
290.645
292.389
292.906
292.907
292.41
292.222
292.871
292.872
292.245
292.195
292.866
292.867
292.219
292.176
292.863
292.864
292.201
292.145
292.859
292.86
292.171
292.082
292.839
292.841
292.109
291.867
292.697
292.699
291.897
290.877
291.77
291.78
290.93
292.437
292.919
292.919
292.457
292.282
292.888
292.889
292.304
292.257
292.884
292.884
292.28
292.238
292.881
292.882
292.262
292.207
292.877
292.878
292.232
292.145
292.858
292.86
292.171
291.936
292.722
292.724
291.965
290.986
291.839
291.85
291.039
292.46
292.922
292.922
292.48
292.311
292.892
292.893
292.332
292.286
292.888
292.889
292.308
292.267
292.886
292.886
292.291
292.237
292.881
292.882
292.261
292.175
292.863
292.864
292.201
291.969
292.73
292.732
291.998
291.044
291.873
291.883
291.097
292.474
292.923
292.924
292.493
292.327
292.894
292.895
292.348
292.303
292.89
292.891
292.325
292.284
292.888
292.888
292.307
292.254
292.883
292.884
292.278
292.192
292.865
292.866
292.217
291.989
292.734
292.736
292.017
291.079
291.892
291.902
291.132
292.482
292.924
292.925
292.5
292.336
292.895
292.896
292.357
292.312
292.891
292.892
292.334
292.293
292.889
292.889
292.316
292.263
292.884
292.885
292.287
292.201
292.866
292.867
292.226
292
292.736
292.738
292.028
291.099
291.903
291.913
291.152
292.485
292.925
292.925
292.504
292.34
292.896
292.896
292.361
292.316
292.892
292.892
292.338
292.297
292.889
292.89
292.32
292.267
292.885
292.886
292.291
292.206
292.867
292.868
292.231
292.004
292.737
292.739
292.033
291.108
291.908
291.919
291.161
)
;

boundaryField
{
    interface
    {
        type            fixedValue;
        value           nonuniform List<scalar> 
192
(
290.146
289.897
289.82
289.741
289.626
289.434
289.052
288.06
290.934
290.78
290.722
290.659
290.564
290.4
290.048
289.051
291.227
291.103
291.052
290.993
290.902
290.743
290.398
289.43
291.369
291.254
291.205
291.147
291.057
290.899
290.56
289.618
291.449
291.338
291.29
291.232
291.143
290.986
290.65
289.729
291.497
291.387
291.34
291.283
291.194
291.037
290.704
289.797
291.524
291.416
291.368
291.311
291.222
291.067
290.736
289.836
291.536
291.429
291.381
291.324
291.235
291.08
290.75
289.855
290.085
289.839
289.761
289.682
289.566
289.374
288.99
287.998
290.745
290.581
290.52
290.456
290.361
290.197
289.841
288.825
290.778
290.615
290.556
290.494
290.399
290.236
289.881
288.873
290.2
289.963
289.889
289.813
289.7
289.51
289.13
288.157
290.308
290.071
289.998
289.924
289.811
289.623
289.244
288.274
291.077
290.93
290.876
290.817
290.725
290.565
290.218
289.244
291.365
291.247
291.199
291.144
291.057
290.903
290.565
289.622
291.503
291.393
291.348
291.294
291.209
291.057
290.724
289.81
291.581
291.475
291.43
291.377
291.292
291.141
290.814
289.92
291.627
291.523
291.479
291.426
291.342
291.191
290.867
289.987
291.653
291.55
291.506
291.453
291.369
291.22
290.898
290.027
291.665
291.563
291.519
291.466
291.382
291.233
290.912
290.045
287.996
288.987
289.369
289.557
289.668
289.736
289.776
289.795
288.824
289.838
290.193
290.355
290.446
290.501
290.533
290.548
288.872
289.879
290.233
290.394
290.485
290.54
290.572
290.587
288.156
289.129
289.508
289.696
289.807
289.875
289.915
289.933
)
;
    }
    symmetry
    {
        type            symmetry;
    }
    bottom
    {
        type            fixedValue;
        value           uniform 293;
    }
}


// ************************************************************************* //
