/*--------------------------------*- C++ -*----------------------------------*\
| =========                 |                                                 |
| \\      /  F ield         | OpenFOAM: The Open Source CFD Toolbox           |
|  \\    /   O peration     | Version:  v1912                                 |
|   \\  /    A nd           | Website:  www.openfoam.com                      |
|    \\/     M anipulation  |                                                 |
\*---------------------------------------------------------------------------*/
FoamFile
{
    version     2.0;
    format      ascii;
    class       volVectorField;
    location    "0.63/solid";
    object      U;
}
// * * * * * * * * * * * * * * * * * * * * * * * * * * * * * * * * * * * * * //

dimensions      [0 1 -1 0 0 0 0];


internalField   nonuniform List<vector> 
256
(
(2.63366e-08 2.67353e-08 3.10595e-08)
(5.9806e-09 1.62403e-08 2.88194e-08)
(-7.23003e-09 1.57098e-08 2.8199e-08)
(-2.5818e-08 2.47935e-08 2.91579e-08)
(4.76138e-08 2.13911e-08 7.06647e-08)
(1.21593e-08 1.26011e-08 6.72961e-08)
(-1.47926e-08 1.23483e-08 6.60652e-08)
(-4.78003e-08 2.08105e-08 6.68841e-08)
(5.1673e-08 1.42633e-09 9.82003e-08)
(1.31087e-08 -2.44342e-09 9.4192e-08)
(-1.73263e-08 -2.21341e-09 9.26191e-08)
(-5.34075e-08 2.41956e-09 9.33722e-08)
(5.04217e-08 -2.06352e-08 1.21486e-07)
(1.17277e-08 -2.26162e-08 1.16515e-07)
(-1.8118e-08 -2.19041e-08 1.14698e-07)
(-5.43017e-08 -1.82451e-08 1.15913e-07)
(5.01953e-08 -4.44101e-08 1.44654e-07)
(1.05176e-08 -4.72807e-08 1.38447e-07)
(-1.97157e-08 -4.61158e-08 1.36421e-07)
(-5.68362e-08 -4.07282e-08 1.38447e-07)
(5.54392e-08 -7.32175e-08 1.7026e-07)
(1.13228e-08 -7.75453e-08 1.62889e-07)
(-2.4e-08 -7.59346e-08 1.60661e-07)
(-6.55008e-08 -6.826e-08 1.63448e-07)
(6.95678e-08 -1.1603e-07 1.98905e-07)
(1.50752e-08 -1.18296e-07 1.9156e-07)
(-3.20228e-08 -1.16183e-07 1.89119e-07)
(-8.37258e-08 -1.0962e-07 1.91471e-07)
(8.69758e-08 -1.789e-07 2.22795e-07)
(1.8972e-08 -1.73367e-07 2.17611e-07)
(-4.11857e-08 -1.70446e-07 2.14967e-07)
(-1.0592e-07 -1.70036e-07 2.1481e-07)
(1.60002e-08 9.1713e-09 1.22972e-08)
(3.42408e-09 8.34402e-10 1.40637e-08)
(-3.92478e-09 6.43805e-10 1.38021e-08)
(-1.49948e-08 8.01052e-09 1.15197e-08)
(2.9812e-08 -1.01136e-09 3.89784e-08)
(7.36501e-09 -8.04373e-09 4.24991e-08)
(-8.2543e-09 -8.02968e-09 4.17824e-08)
(-2.86771e-08 -1.05631e-09 3.68868e-08)
(3.2096e-08 -1.88236e-08 6.35635e-08)
(7.85563e-09 -2.19098e-08 6.75426e-08)
(-9.63039e-09 -2.15291e-08 6.6516e-08)
(-3.18705e-08 -1.75769e-08 6.05566e-08)
(3.04238e-08 -3.88906e-08 8.57113e-08)
(6.55865e-09 -4.05657e-08 8.95014e-08)
(-9.96736e-09 -3.97698e-08 8.82519e-08)
(-3.18392e-08 -3.63957e-08 8.20258e-08)
(2.98123e-08 -6.09717e-08 1.07161e-07)
(5.44638e-09 -6.37793e-08 1.10505e-07)
(-1.1217e-08 -6.25652e-08 1.09064e-07)
(-3.35589e-08 -5.72582e-08 1.0289e-07)
(3.4757e-08 -8.63912e-08 1.28946e-07)
(6.33928e-09 -9.09106e-08 1.31818e-07)
(-1.51974e-08 -8.92778e-08 1.30195e-07)
(-4.15334e-08 -8.14617e-08 1.2412e-07)
(4.95356e-08 -1.20835e-07 1.4911e-07)
(1.03652e-08 -1.23064e-07 1.51753e-07)
(-2.31393e-08 -1.20984e-07 1.49966e-07)
(-6.0032e-08 -1.14579e-07 1.43782e-07)
(6.91667e-08 -1.70572e-07 1.59924e-07)
(1.46668e-08 -1.62853e-07 1.62579e-07)
(-3.23955e-08 -1.60085e-07 1.60718e-07)
(-8.40765e-08 -1.62131e-07 1.54344e-07)
(7.96284e-09 2.51593e-09 6.0712e-09)
(1.10602e-09 -3.51299e-09 8.72059e-09)
(-1.28046e-09 -3.65985e-09 8.54238e-09)
(-6.70511e-09 1.36467e-09 5.56546e-09)
(1.53716e-08 -1.22181e-08 2.46791e-08)
(2.78459e-09 -1.74052e-08 2.97117e-08)
(-2.73175e-09 -1.7359e-08 2.92141e-08)
(-1.34237e-08 -1.2333e-08 2.32715e-08)
(1.61948e-08 -3.08291e-08 4.54006e-08)
(2.76272e-09 -3.32012e-08 5.11167e-08)
(-3.03473e-09 -3.28268e-08 5.03692e-08)
(-1.46244e-08 -2.97419e-08 4.32625e-08)
(1.44464e-08 -4.97657e-08 6.55526e-08)
(1.55998e-09 -5.13442e-08 7.12681e-08)
(-2.97727e-09 -5.05896e-08 7.03229e-08)
(-1.40472e-08 -4.75007e-08 6.28155e-08)
(1.38863e-08 -6.90891e-08 8.46084e-08)
(5.86336e-10 -7.20466e-08 9.01103e-08)
(-3.94617e-09 -7.08996e-08 8.8993e-08)
(-1.54061e-08 -6.5656e-08 8.13426e-08)
(1.89545e-08 -8.95192e-08 1.01849e-07)
(1.60151e-09 -9.42891e-08 1.07093e-07)
(-7.6875e-09 -9.2749e-08 1.0582e-07)
(-2.31347e-08 -8.49234e-08 9.81011e-08)
(3.41726e-08 -1.16254e-07 1.1442e-07)
(5.83364e-09 -1.18683e-07 1.19399e-07)
(-1.55196e-08 -1.1673e-07 1.18007e-07)
(-4.17313e-08 -1.10406e-07 1.10285e-07)
(5.44509e-08 -1.57505e-07 1.17116e-07)
(1.03796e-08 -1.49716e-07 1.21876e-07)
(-2.4728e-08 -1.47109e-07 1.20463e-07)
(-6.60977e-08 -1.49536e-07 1.12865e-07)
(4.36523e-09 4.25478e-11 4.86145e-09)
(8.3481e-11 -4.48501e-09 6.67339e-09)
(-1.07519e-10 -4.65223e-09 6.54009e-09)
(-2.95279e-09 -1.22072e-09 4.49242e-09)
(8.75484e-09 -1.65991e-08 1.91415e-08)
(6.6467e-10 -2.06077e-08 2.25411e-08)
(-9.51655e-11 -2.06194e-08 2.21812e-08)
(-6.29436e-09 -1.69591e-08 1.81402e-08)
(9.02149e-09 -3.60211e-08 3.57812e-08)
(4.59722e-10 -3.79929e-08 3.95906e-08)
(1.90603e-10 -3.76989e-08 3.90439e-08)
(-6.54534e-09 -3.52415e-08 3.42363e-08)
(7.59754e-09 -5.42489e-08 5.26043e-08)
(-5.28601e-10 -5.5871e-08 5.63436e-08)
(4.31892e-10 -5.52136e-08 5.5637e-08)
(-5.9038e-09 -5.23291e-08 5.05764e-08)
(7.50958e-09 -7.12021e-08 6.81971e-08)
(-1.23685e-09 -7.43536e-08 7.17236e-08)
(-4.38913e-10 -7.33182e-08 7.08737e-08)
(-7.37378e-09 -6.8142e-08 6.57283e-08)
(1.29677e-08 -8.78586e-08 8.10228e-08)
(-2.66337e-11 -9.28571e-08 8.4332e-08)
(-4.0547e-09 -9.14419e-08 8.33561e-08)
(-1.51647e-08 -8.36605e-08 7.81598e-08)
(2.82578e-08 -1.10192e-07 8.86582e-08)
(4.27019e-09 -1.1303e-07 9.17974e-08)
(-1.16696e-08 -1.11212e-07 9.07339e-08)
(-3.35353e-08 -1.04756e-07 8.54997e-08)
(4.81998e-08 -1.47719e-07 8.85241e-08)
(8.82506e-09 -1.40977e-07 9.16721e-08)
(-2.06276e-08 -1.385e-07 9.06029e-08)
(-5.72898e-08 -1.40143e-07 8.52948e-08)
(3.19889e-09 -8.46152e-10 4.22038e-09)
(-1.47574e-10 -4.65825e-09 5.13892e-09)
(2.02631e-10 -4.8477e-09 5.04258e-09)
(-1.68925e-09 -2.20192e-09 3.9574e-09)
(6.71681e-09 -1.78187e-08 1.5252e-08)
(1.85725e-10 -2.13065e-08 1.69157e-08)
(6.872e-10 -2.13841e-08 1.66602e-08)
(-3.93376e-09 -1.8407e-08 1.45497e-08)
(7.04096e-09 -3.72743e-08 2.79002e-08)
(5.56388e-11 -3.91436e-08 2.96828e-08)
(1.17685e-09 -3.89394e-08 2.9294e-08)
(-3.97118e-09 -3.67927e-08 2.68123e-08)
(6.07587e-09 -5.48451e-08 4.07695e-08)
(-6.78912e-10 -5.66019e-08 4.24128e-08)
(1.46353e-09 -5.6047e-08 4.19048e-08)
(-3.49511e-09 -5.32573e-08 3.93224e-08)
(6.5135e-09 -7.02522e-08 5.24728e-08)
(-1.11297e-09 -7.35949e-08 5.39098e-08)
(6.09403e-10 -7.26696e-08 5.32917e-08)
(-5.20137e-09 -6.75407e-08 5.06869e-08)
(1.23164e-08 -8.48504e-08 6.15055e-08)
(2.7553e-10 -9.00284e-08 6.27724e-08)
(-2.91822e-09 -8.87273e-08 6.20585e-08)
(-1.30668e-08 -8.10052e-08 5.94171e-08)
(2.74891e-08 -1.05279e-07 6.62178e-08)
(4.56796e-09 -1.0847e-07 6.74097e-08)
(-1.02907e-08 -1.06763e-07 6.66312e-08)
(-3.10735e-08 -1.00183e-07 6.39071e-08)
(4.69327e-08 -1.41265e-07 6.55241e-08)
(9.06602e-09 -1.35506e-07 6.68287e-08)
(-1.89764e-08 -1.3313e-07 6.60481e-08)
(-5.41044e-08 -1.33995e-07 6.3163e-08)
(2.91695e-09 -1.12591e-09 3.29423e-09)
(-1.16056e-10 -4.64711e-09 3.69617e-09)
(2.14794e-10 -4.85252e-09 3.63151e-09)
(-1.34778e-09 -2.54458e-09 3.11925e-09)
(6.37889e-09 -1.78056e-08 1.12329e-08)
(2.86962e-10 -2.11358e-08 1.1905e-08)
(7.67348e-10 -2.1264e-08 1.17346e-08)
(-3.39624e-09 -1.85607e-08 1.07686e-08)
(6.96518e-09 -3.68401e-08 2.00755e-08)
(3.12602e-10 -3.8758e-08 2.07219e-08)
(1.28422e-09 -3.86259e-08 2.04625e-08)
(-3.51787e-09 -3.6588e-08 1.93551e-08)
(6.40353e-09 -5.37994e-08 2.89908e-08)
(-2.06743e-10 -5.57088e-08 2.94949e-08)
(1.56421e-09 -5.52371e-08 2.9154e-08)
(-3.24057e-09 -5.24731e-08 2.80257e-08)
(7.23983e-09 -6.83389e-08 3.69646e-08)
(-4.31418e-10 -7.18353e-08 3.73087e-08)
(7.13969e-10 -7.09982e-08 3.68912e-08)
(-5.13341e-09 -6.59011e-08 3.57638e-08)
(1.32634e-08 -8.2042e-08 4.2898e-08)
(1.08317e-09 -8.73373e-08 4.31305e-08)
(-2.73694e-09 -8.61246e-08 4.26459e-08)
(-1.30152e-08 -7.84685e-08 4.14846e-08)
(2.82926e-08 -1.018e-07 4.57887e-08)
(5.35993e-09 -1.05205e-07 4.59997e-08)
(-9.90919e-09 -1.03582e-07 4.54701e-08)
(-3.06896e-08 -9.69603e-08 4.42186e-08)
(4.73391e-08 -1.37072e-07 4.51868e-08)
(9.80867e-09 -1.31934e-07 4.55051e-08)
(-1.83805e-08 -1.29632e-07 4.49742e-08)
(-5.31525e-08 -1.30027e-07 4.35811e-08)
(2.87086e-09 -1.17989e-09 2.08622e-09)
(-5.46377e-11 -4.5897e-09 2.24584e-09)
(1.76472e-10 -4.80521e-09 2.20876e-09)
(-1.26761e-09 -2.63739e-09 1.9864e-09)
(6.43942e-09 -1.74662e-08 6.88416e-09)
(4.53402e-10 -2.0775e-08 7.12028e-09)
(7.03489e-10 -2.09357e-08 7.0228e-09)
(-3.34099e-09 -1.83266e-08 6.61981e-09)
(7.25403e-09 -3.60345e-08 1.21035e-08)
(6.06558e-10 -3.80307e-08 1.22877e-08)
(1.20313e-09 -3.79464e-08 1.21391e-08)
(-3.58353e-09 -3.59319e-08 1.16929e-08)
(6.96465e-09 -5.25314e-08 1.73045e-08)
(2.31215e-10 -5.45588e-08 1.73907e-08)
(1.46957e-09 -5.41432e-08 1.71948e-08)
(-3.45031e-09 -5.13788e-08 1.67524e-08)
(8.04627e-09 -6.66305e-08 2.19005e-08)
(1.37902e-10 -7.02285e-08 2.189e-08)
(6.26163e-10 -6.94507e-08 2.16492e-08)
(-5.45104e-09 -6.43757e-08 2.12104e-08)
(1.41909e-08 -8.00083e-08 2.5258e-08)
(1.72901e-09 -8.53682e-08 2.51875e-08)
(-2.76599e-09 -8.42145e-08 2.49071e-08)
(-1.33181e-08 -7.66162e-08 2.4442e-08)
(2.91156e-08 -9.95741e-08 2.68461e-08)
(5.99646e-09 -1.03082e-07 2.67739e-08)
(-9.80381e-09 -1.01514e-07 2.64668e-08)
(-3.07613e-08 -9.49035e-08 2.59366e-08)
(4.79052e-08 -1.34494e-07 2.64728e-08)
(1.04149e-08 -1.29679e-07 2.64677e-08)
(-1.81337e-08 -1.27426e-07 2.61598e-08)
(-5.28526e-08 -1.27596e-07 2.55418e-08)
(2.86762e-09 -1.17428e-09 7.13037e-10)
(-2.15656e-11 -4.54538e-09 7.5532e-10)
(1.53319e-10 -4.76579e-09 7.43254e-10)
(-1.24885e-09 -2.65035e-09 6.80622e-10)
(6.50537e-09 -1.72151e-08 2.31844e-09)
(5.43725e-10 -2.0531e-08 2.37476e-09)
(6.59456e-10 -2.07075e-08 2.34305e-09)
(-3.35371e-09 -1.81262e-08 2.23265e-09)
(7.43789e-09 -3.55052e-08 4.04289e-09)
(7.61925e-10 -3.75501e-08 4.07707e-09)
(1.14586e-09 -3.74892e-08 4.02869e-09)
(-3.66361e-09 -3.54755e-08 3.90955e-09)
(7.28031e-09 -5.17582e-08 5.7489e-09)
(4.56303e-10 -5.38471e-08 5.74897e-09)
(1.40516e-09 -5.34593e-08 5.68512e-09)
(-3.60065e-09 -5.06913e-08 5.56928e-09)
(8.47556e-09 -6.5674e-08 7.24702e-09)
(4.24851e-10 -6.93213e-08 7.21523e-09)
(5.67535e-10 -6.85731e-08 7.13661e-09)
(-5.64776e-09 -6.35103e-08 7.02198e-09)
(1.46731e-08 -7.89556e-08 8.33334e-09)
(2.05184e-09 -8.43431e-08 8.2829e-09)
(-2.79312e-09 -8.32186e-08 8.19116e-09)
(-1.35002e-08 -7.56538e-08 8.06667e-09)
(2.95458e-08 -9.84799e-08 8.84185e-09)
(6.31597e-09 -1.02028e-07 8.7925e-09)
(-9.76472e-09 -1.00487e-07 8.69192e-09)
(-3.08278e-08 -9.38933e-08 8.54414e-09)
(4.82106e-08 -1.33252e-07 8.71692e-09)
(1.07203e-08 -1.2857e-07 8.68978e-09)
(-1.80248e-08 -1.26341e-07 8.58892e-09)
(-5.2737e-08 -1.26428e-07 8.41199e-09)
)
;

boundaryField
{
    interface
    {
        type            calculated;
        value           nonuniform List<vector> 
192
(
(2.99322e-08 4.52229e-08 2.79879e-08)
(5.10468e-08 2.77251e-08 6.52929e-08)
(5.53174e-08 2.12819e-09 9.23432e-08)
(5.44436e-08 -2.10047e-08 1.15649e-07)
(5.42643e-08 -4.31558e-08 1.38895e-07)
(5.88581e-08 -6.83744e-08 1.64595e-07)
(7.2323e-08 -1.08146e-07 1.93452e-07)
(9.22822e-08 -1.7402e-07 2.17722e-07)
(1.57429e-08 2.06243e-08 7.70392e-09)
(2.9686e-08 3.0125e-09 3.0918e-08)
(3.18923e-08 -1.86707e-08 5.46941e-08)
(3.01826e-08 -3.94616e-08 7.67176e-08)
(2.9301e-08 -5.98885e-08 9.8084e-08)
(3.34449e-08 -8.14605e-08 1.19825e-07)
(4.78433e-08 -1.12232e-07 1.40261e-07)
(7.20028e-08 -1.65315e-07 1.51793e-07)
(6.36661e-09 8.34953e-09 3.16255e-09)
(1.45526e-08 -1.01602e-08 1.94149e-08)
(1.54299e-08 -3.10605e-08 3.96321e-08)
(1.36667e-08 -5.03429e-08 5.98462e-08)
(1.29614e-08 -6.79622e-08 7.90328e-08)
(1.75636e-08 -8.44478e-08 9.64022e-08)
(3.29463e-08 -1.0738e-07 1.091e-07)
(5.80701e-08 -1.52043e-07 1.11875e-07)
(2.25548e-09 3.32256e-09 3.67053e-09)
(7.83235e-09 -1.54351e-08 1.69779e-08)
(8.28547e-09 -3.63105e-08 3.34929e-08)
(6.93366e-09 -5.4627e-08 5.05117e-08)
(6.8467e-09 -6.98597e-08 6.63539e-08)
(1.21085e-08 -8.26717e-08 7.93634e-08)
(2.79345e-08 -1.01384e-07 8.69874e-08)
(5.26614e-08 -1.42196e-07 8.66446e-08)
(7.91199e-10 1.63277e-09 3.85836e-09)
(5.5827e-09 -1.68583e-08 1.46581e-08)
(6.1684e-09 -3.74346e-08 2.73862e-08)
(5.35762e-09 -5.4977e-08 4.04711e-08)
(5.91061e-09 -6.86922e-08 5.24054e-08)
(1.16853e-08 -7.96066e-08 6.15795e-08)
(2.75927e-08 -9.66246e-08 6.62265e-08)
(5.1681e-08 -1.35744e-07 6.53089e-08)
(3.82034e-10 1.19805e-09 3.21226e-09)
(5.11077e-09 -1.67936e-08 1.11636e-08)
(6.001e-09 -3.68341e-08 2.01288e-08)
(5.65659e-09 -5.37309e-08 2.9213e-08)
(6.68942e-09 -6.6624e-08 3.73478e-08)
(1.2786e-08 -7.67789e-08 4.33666e-08)
(2.86507e-08 -9.32812e-08 4.61954e-08)
(5.22047e-08 -1.3158e-07 4.543e-08)
(3.02801e-10 1.14768e-09 2.07391e-09)
(5.12155e-09 -1.63705e-08 6.91582e-09)
(6.26431e-09 -3.59033e-08 1.22217e-08)
(6.23296e-09 -5.23335e-08 1.75238e-08)
(7.5616e-09 -6.4824e-08 2.22094e-08)
(1.38358e-08 -7.47411e-08 2.56104e-08)
(2.96451e-08 -9.11456e-08 2.71594e-08)
(5.28454e-08 -1.29034e-07 2.66907e-08)
(2.97838e-10 1.16896e-09 7.12232e-10)
(5.17655e-09 -1.60726e-08 2.33494e-09)
(6.44852e-09 -3.53115e-08 4.08887e-09)
(6.56868e-09 -5.14989e-08 5.82782e-09)
(8.03481e-09 -6.38259e-08 7.35435e-09)
(1.43871e-08 -7.36882e-08 8.45389e-09)
(3.01645e-08 -9.00956e-08 8.94941e-09)
(5.31917e-08 -1.27812e-07 8.79329e-09)
(2.7312e-08 5.21663e-08 3.11323e-08)
(4.94571e-08 3.81763e-08 7.00975e-08)
(5.3599e-08 1.41318e-08 9.78343e-08)
(5.20971e-08 -9.02159e-09 1.21609e-07)
(5.15229e-08 -3.22165e-08 1.44861e-07)
(5.64288e-08 -5.96548e-08 1.69622e-07)
(7.04582e-08 -1.02896e-07 1.97052e-07)
(8.8216e-08 -1.72325e-07 2.22728e-07)
(5.26517e-09 4.02691e-08 2.64573e-08)
(1.10089e-08 2.89443e-08 6.35868e-08)
(1.1713e-08 9.86137e-09 8.98857e-08)
(1.00303e-08 -1.15524e-08 1.11991e-07)
(8.45891e-09 -3.56871e-08 1.33395e-07)
(8.92268e-09 -6.42669e-08 1.56438e-07)
(1.26284e-08 -1.04615e-07 1.83822e-07)
(1.7015e-08 -1.66436e-07 2.13902e-07)
(-7.14581e-09 3.92759e-08 2.49652e-08)
(-1.48962e-08 2.84535e-08 6.16402e-08)
(-1.75318e-08 9.94493e-09 8.75834e-08)
(-1.82689e-08 -1.09535e-08 1.09408e-07)
(-1.97161e-08 -3.4625e-08 1.30571e-07)
(-2.38606e-08 -6.27601e-08 1.53385e-07)
(-3.20454e-08 -1.02606e-07 1.80528e-07)
(-4.1886e-08 -1.63556e-07 2.10323e-07)
(-2.73032e-08 4.8804e-08 2.6575e-08)
(-5.07159e-08 3.68642e-08 6.39529e-08)
(-5.67473e-08 1.4677e-08 9.05542e-08)
(-5.76416e-08 -6.97627e-09 1.13476e-07)
(-6.00415e-08 -2.88445e-08 1.3601e-07)
(-6.85673e-08 -5.50039e-08 1.60098e-07)
(-8.68914e-08 -9.67792e-08 1.86855e-07)
(-1.09613e-07 -1.63574e-07 2.11873e-07)
(-2.36138e-08 4.3198e-08 2.57092e-08)
(-4.54343e-08 2.77079e-08 6.0645e-08)
(-5.11331e-08 4.04511e-09 8.63175e-08)
(-5.22488e-08 -1.73877e-08 1.08627e-07)
(-5.46716e-08 -3.79282e-08 1.31025e-07)
(-6.25042e-08 -6.15373e-08 1.55922e-07)
(-7.97468e-08 -9.95148e-08 1.83964e-07)
(-1.03787e-07 -1.6257e-07 2.07502e-07)
(-9.448e-09 1.89284e-08 6.74141e-09)
(-2.33636e-08 3.1627e-09 2.82924e-08)
(-2.64157e-08 -1.67862e-08 5.08605e-08)
(-2.62264e-08 -3.59734e-08 7.19619e-08)
(-2.75396e-08 -5.48345e-08 9.25324e-08)
(-3.45497e-08 -7.48432e-08 1.13528e-07)
(-5.23615e-08 -1.03943e-07 1.33283e-07)
(-8.01248e-08 -1.54457e-07 1.44388e-07)
(-3.09341e-11 6.39686e-09 2.55483e-09)
(-7.64974e-09 -1.03531e-08 1.76755e-08)
(-8.85464e-09 -2.95859e-08 3.69309e-08)
(-8.15553e-09 -4.73051e-08 5.63313e-08)
(-9.23833e-09 -6.33839e-08 7.47961e-08)
(-1.6327e-08 -7.83418e-08 9.15087e-08)
(-3.47666e-08 -9.96647e-08 1.03661e-07)
(-6.31753e-08 -1.41818e-07 1.06168e-07)
(4.14806e-09 1.09106e-09 3.23835e-09)
(-5.13807e-10 -1.60609e-08 1.57675e-08)
(-9.10204e-10 -3.5339e-08 3.15728e-08)
(-2.46328e-10 -5.21218e-08 4.79381e-08)
(-1.58042e-09 -6.58265e-08 6.31769e-08)
(-8.98813e-09 -7.71198e-08 7.56427e-08)
(-2.75547e-08 -9.42241e-08 8.28351e-08)
(-5.5299e-08 -1.32498e-07 8.22963e-08)
(5.66087e-09 -7.96175e-10 3.55606e-09)
(2.00214e-09 -1.78365e-08 1.3825e-08)
(1.7387e-09 -3.69023e-08 2.60552e-08)
(2.15518e-09 -5.29496e-08 3.86564e-08)
(4.68758e-10 -6.51475e-08 5.01266e-08)
(-7.17663e-09 -7.45369e-08 5.88796e-08)
(-2.55562e-08 -8.99237e-08 6.31956e-08)
(-5.24449e-08 -1.26462e-07 6.21286e-08)
(6.10011e-09 -1.35858e-09 3.01378e-09)
(2.63981e-09 -1.80181e-08 1.06202e-08)
(2.24737e-09 -3.66268e-08 1.9258e-08)
(2.40437e-09 -5.2069e-08 2.80144e-08)
(4.48559e-10 -6.34571e-08 3.58262e-08)
(-7.30474e-09 -7.20791e-08 4.15474e-08)
(-2.54479e-08 -8.69257e-08 4.41405e-08)
(-5.16356e-08 -1.22604e-07 4.3268e-08)
(6.19714e-09 -1.48524e-09 1.96163e-09)
(2.72629e-09 -1.77476e-08 6.60911e-09)
(2.18772e-09 -3.59044e-08 1.17293e-08)
(2.16104e-09 -5.09117e-08 1.68424e-08)
(5.4785e-11 -6.19085e-08 2.13389e-08)
(-7.7385e-09 -7.02883e-08 2.45632e-08)
(-2.57009e-08 -8.50196e-08 2.59711e-08)
(-5.14234e-08 -1.2026e-07 2.54379e-08)
(6.21033e-09 -1.49971e-09 6.7592e-10)
(2.71642e-09 -1.75225e-08 2.23581e-09)
(2.09886e-09 -3.54136e-08 3.92954e-09)
(1.98258e-09 -5.01951e-08 5.60684e-09)
(-1.92075e-10 -6.10351e-08 7.07114e-09)
(-7.99344e-09 -6.93584e-08 8.11218e-09)
(-2.58608e-08 -8.40838e-08 8.56077e-09)
(-5.13543e-08 -1.19138e-07 8.38309e-09)
(8.80327e-08 -1.7893e-07 2.24e-07)
(6.98657e-08 -1.6888e-07 1.54575e-07)
(5.52342e-08 -1.57147e-07 1.11403e-07)
(4.92757e-08 -1.48443e-07 8.44643e-08)
(4.82531e-08 -1.42333e-07 6.28623e-08)
(4.88003e-08 -1.38248e-07 4.3494e-08)
(4.94314e-08 -1.35728e-07 2.55178e-08)
(4.97604e-08 -1.3452e-07 8.40649e-09)
(1.68582e-08 -1.69751e-07 2.18448e-07)
(1.20449e-08 -1.55275e-07 1.56666e-07)
(7.78038e-09 -1.43536e-07 1.16407e-07)
(6.5199e-09 -1.36386e-07 8.81195e-08)
(7.03193e-09 -1.31703e-07 6.4568e-08)
(7.94836e-09 -1.28529e-07 4.40484e-08)
(8.64758e-09 -1.26488e-07 2.56269e-08)
(8.99222e-09 -1.25476e-07 8.41254e-09)
(-4.20186e-08 -1.6588e-07 2.15822e-07)
(-3.25763e-08 -1.51629e-07 1.54884e-07)
(-2.47733e-08 -1.40065e-07 1.15067e-07)
(-2.08364e-08 -1.33052e-07 8.71083e-08)
(-1.93545e-08 -1.28472e-07 6.38312e-08)
(-1.88576e-08 -1.25372e-07 4.35482e-08)
(-1.86548e-08 -1.23379e-07 2.53371e-08)
(-1.85609e-08 -1.2239e-07 8.31768e-09)
(-1.09756e-07 -1.67158e-07 2.16065e-07)
(-8.74026e-08 -1.57606e-07 1.49219e-07)
(-6.93505e-08 -1.46349e-07 1.07368e-07)
(-6.07022e-08 -1.38039e-07 8.14096e-08)
(-5.76557e-08 -1.32233e-07 6.0634e-08)
(-5.67659e-08 -1.28365e-07 4.19813e-08)
(-5.6479e-08 -1.25987e-07 2.46419e-08)
(-5.63611e-08 -1.24848e-07 8.11979e-09)
)
;
    }
    symmetry
    {
        type            symmetry;
    }
    bottom
    {
        type            calculated;
        value           uniform (0 0 0);
    }
}


// ************************************************************************* //
