/*--------------------------------*- C++ -*----------------------------------*\
| =========                 |                                                 |
| \\      /  F ield         | OpenFOAM: The Open Source CFD Toolbox           |
|  \\    /   O peration     | Version:  v1912                                 |
|   \\  /    A nd           | Website:  www.openfoam.com                      |
|    \\/     M anipulation  |                                                 |
\*---------------------------------------------------------------------------*/
FoamFile
{
    version     2.0;
    format      ascii;
    class       volVectorField;
    location    "0.56/fluid";
    object      cellMotionU;
}
// * * * * * * * * * * * * * * * * * * * * * * * * * * * * * * * * * * * * * //

dimensions      [0 1 -1 0 0 0 0];


internalField   nonuniform List<vector> 
14592
(
(1.58236e-10 -3.4854e-10 2.6449e-10)
(4.41481e-10 -9.74636e-10 7.48682e-10)
(7.028e-10 -1.55683e-09 1.22527e-09)
(9.51629e-10 -2.11575e-09 1.7254e-09)
(1.19778e-09 -2.66669e-09 2.27942e-09)
(1.45009e-09 -3.21524e-09 2.91409e-09)
(1.71902e-09 -3.75853e-09 3.65642e-09)
(2.01792e-09 -4.28032e-09 4.53291e-09)
(2.36674e-09 -4.7451e-09 5.57067e-09)
(2.79898e-09 -5.08306e-09 6.79657e-09)
(3.38082e-09 -5.16475e-09 8.24357e-09)
(4.25724e-09 -4.73563e-09 9.9696e-09)
(5.77025e-09 -3.23972e-09 1.21303e-08)
(8.79932e-09 7.20677e-10 1.52222e-08)
(1.53855e-08 1.06744e-08 2.05872e-08)
(2.71611e-08 3.07047e-08 2.92646e-08)
(4.70924e-10 -1.03494e-09 7.86326e-10)
(1.31399e-09 -2.8945e-09 2.226e-09)
(2.09081e-09 -4.62459e-09 3.64142e-09)
(2.83088e-09 -6.28879e-09 5.12806e-09)
(3.56058e-09 -7.92938e-09 6.77072e-09)
(4.30712e-09 -9.5679e-09 8.65109e-09)
(5.10034e-09 -1.11987e-08 1.08478e-08)
(5.97762e-09 -1.27807e-08 1.34389e-08)
(6.99102e-09 -1.42183e-08 1.64995e-08)
(8.22386e-09 -1.53318e-08 2.01012e-08)
(9.82556e-09 -1.58017e-08 2.43116e-08)
(1.20822e-08 -1.50765e-08 2.92054e-08)
(1.55848e-08 -1.21935e-08 3.49224e-08)
(2.14427e-08 -5.54664e-09 4.17617e-08)
(3.1253e-08 6.9163e-09 5.01969e-08)
(4.38837e-08 2.33057e-08 5.91194e-08)
(7.73281e-10 -1.69069e-09 1.28856e-09)
(2.1572e-09 -4.72988e-09 3.64694e-09)
(3.43179e-09 -7.5622e-09 5.96499e-09)
(4.64342e-09 -1.02914e-08 8.39536e-09)
(5.83582e-09 -1.2993e-08 1.10782e-08)
(7.05204e-09 -1.57079e-08 1.41454e-08)
(8.33898e-09 -1.8439e-08 1.77254e-08)
(9.75219e-09 -2.11375e-08 2.19441e-08)
(1.13642e-08 -2.36823e-08 2.69231e-08)
(1.32783e-08 -2.58435e-08 3.27722e-08)
(1.56564e-08 -2.72327e-08 3.95781e-08)
(1.87748e-08 -2.72372e-08 4.73933e-08)
(2.3124e-08 -2.4971e-08 5.62336e-08)
(2.95239e-08 -1.94139e-08 6.612e-08)
(3.89982e-08 -1.02232e-08 7.70971e-08)
(5.03575e-08 -6.54675e-10 8.79614e-08)
(1.0588e-09 -2.29499e-09 1.75891e-09)
(2.95291e-09 -6.42335e-09 4.97695e-09)
(4.69527e-09 -1.02777e-08 8.13654e-09)
(6.34838e-09 -1.40049e-08 1.14445e-08)
(7.96993e-09 -1.77131e-08 1.50885e-08)
(9.61756e-09 -2.14715e-08 1.92472e-08)
(1.13521e-08 -2.53036e-08 2.40943e-08)
(1.3243e-08 -2.91765e-08 2.98011e-08)
(1.53732e-08 -3.29807e-08 3.65332e-08)
(1.78469e-08 -3.64999e-08 4.44401e-08)
(2.07979e-08 -3.93685e-08 5.36322e-08)
(2.44061e-08 -4.10265e-08 6.41418e-08)
(2.89257e-08 -4.07164e-08 7.58755e-08)
(3.47025e-08 -3.7646e-08 8.85496e-08)
(4.21293e-08 -3.16348e-08 1.01603e-07)
(5.03146e-08 -2.49594e-08 1.1304e-07)
(1.32159e-09 -2.82728e-09 2.18661e-09)
(3.68479e-09 -7.91714e-09 6.18549e-09)
(5.85517e-09 -1.268e-08 1.0106e-08)
(7.90825e-09 -1.73034e-08 1.42006e-08)
(9.91469e-09 -2.19326e-08 1.86999e-08)
(1.19437e-08 -2.66696e-08 2.38217e-08)
(1.40683e-08 -3.15703e-08 2.97792e-08)
(1.63688e-08 -3.66378e-08 3.67838e-08)
(1.89377e-08 -4.18087e-08 4.5044e-08)
(2.18805e-08 -4.69301e-08 5.47554e-08)
(2.53096e-08 -5.1726e-08 6.60722e-08)
(2.93296e-08 -5.57492e-08 7.90579e-08)
(3.40176e-08 -5.8316e-08 9.36075e-08)
(3.93518e-08 -5.8472e-08 1.0928e-07)
(4.52207e-08 -5.51643e-08 1.25002e-07)
(5.09399e-08 -4.9004e-08 1.3773e-07)
(1.557e-09 -3.26789e-09 2.56334e-09)
(4.33923e-09 -9.15544e-09 7.24812e-09)
(6.88907e-09 -1.46782e-08 1.18319e-08)
(9.29297e-09 -2.00633e-08 1.66056e-08)
(1.16307e-08 -2.54908e-08 2.18322e-08)
(1.39812e-08 -3.10989e-08 2.77614e-08)
(1.6427e-08 -3.69831e-08 3.46369e-08)
(1.90598e-08 -4.31956e-08 4.2703e-08)
(2.19844e-08 -4.97409e-08 5.22059e-08)
(2.53218e-08 -5.65656e-08 6.33891e-08)
(2.91999e-08 -6.35399e-08 7.64692e-08)
(3.37572e-08 -7.04121e-08 9.16182e-08)
(3.90864e-08 -7.67011e-08 1.08869e-07)
(4.51637e-08 -8.14166e-08 1.27956e-07)
(5.16735e-08 -8.25167e-08 1.47759e-07)
(5.73169e-08 -7.77755e-08 1.64034e-07)
(1.76119e-09 -3.59804e-09 2.88289e-09)
(4.90586e-09 -1.0086e-08 8.14743e-09)
(7.78072e-09 -1.61882e-08 1.32861e-08)
(1.04791e-08 -2.21647e-08 1.86171e-08)
(1.30875e-08 -2.82287e-08 2.44278e-08)
(1.56909e-08 -3.45517e-08 3.09884e-08)
(1.8379e-08 -4.1269e-08 3.85626e-08)
(2.12518e-08 -4.84843e-08 4.74148e-08)
(2.44283e-08 -5.62751e-08 5.78163e-08)
(2.80533e-08 -6.46986e-08 7.00455e-08)
(3.2312e-08 -7.37999e-08 8.43878e-08)
(3.74506e-08 -8.36148e-08 1.01136e-07)
(4.38253e-08 -9.41492e-08 1.20602e-07)
(5.19228e-08 -1.05204e-07 1.43042e-07)
(6.22036e-08 -1.15695e-07 1.68123e-07)
(7.29013e-08 -1.21929e-07 1.91046e-07)
(1.93182e-09 -3.80184e-09 3.14187e-09)
(5.37809e-09 -1.0664e-08 8.87409e-09)
(8.51952e-09 -1.71358e-08 1.4453e-08)
(1.1453e-08 -2.35033e-08 2.02147e-08)
(1.42673e-08 -3.00046e-08 2.64588e-08)
(1.70497e-08 -3.68387e-08 3.34654e-08)
(1.98919e-08 -4.41733e-08 4.15043e-08)
(2.28972e-08 -5.21539e-08 5.08441e-08)
(2.61908e-08 -6.09155e-08 6.17589e-08)
(2.99324e-08 -7.05994e-08 7.45331e-08)
(3.43449e-08 -8.1382e-08 8.9473e-08)
(3.97683e-08 -9.35309e-08 1.06938e-07)
(4.67848e-08 -1.07514e-07 1.27425e-07)
(5.64642e-08 -1.24197e-07 1.51706e-07)
(7.07041e-08 -1.44944e-07 1.80818e-07)
(8.92404e-08 -1.68151e-07 2.1147e-07)
(1.58435e-10 -3.5581e-10 2.51206e-10)
(4.41826e-10 -9.9505e-10 7.10926e-10)
(7.02295e-10 -1.58976e-09 1.16215e-09)
(9.49186e-10 -2.16153e-09 1.63489e-09)
(1.19087e-09 -2.72552e-09 2.15583e-09)
(1.43532e-09 -3.28897e-09 2.75003e-09)
(1.69086e-09 -3.85013e-09 3.44112e-09)
(1.96736e-09 -4.39515e-09 4.25128e-09)
(2.27857e-09 -4.89271e-09 5.20047e-09)
(2.64723e-09 -5.28308e-09 6.30399e-09)
(3.1177e-09 -5.45963e-09 7.57001e-09)
(3.78555e-09 -5.22907e-09 8.99907e-09)
(4.87977e-09 -4.20586e-09 1.0597e-08)
(6.89946e-09 -1.56741e-09 1.23884e-08)
(1.07716e-08 4.32636e-09 1.4373e-08)
(1.63666e-08 1.40318e-08 1.56658e-08)
(4.71629e-10 -1.0564e-09 7.46922e-10)
(1.31497e-09 -2.95466e-09 2.11311e-09)
(2.08994e-09 -4.72182e-09 3.45418e-09)
(2.82378e-09 -6.42268e-09 4.85775e-09)
(3.54114e-09 -8.10256e-09 6.40311e-09)
(4.26538e-09 -9.78512e-09 8.16391e-09)
(5.02046e-09 -1.14683e-08 1.02095e-08)
(5.83373e-09 -1.31168e-08 1.2605e-08)
(6.74037e-09 -1.46469e-08 1.54064e-08)
(7.79338e-09 -1.59033e-08 1.86528e-08)
(9.08504e-09 -1.66236e-08 2.23504e-08)
(1.07989e-08 -1.63835e-08 2.64504e-08)
(1.32798e-08 -1.45368e-08 3.07905e-08)
(1.71099e-08 -1.02263e-08 3.49808e-08)
(2.27241e-08 -3.00976e-09 3.80351e-08)
(2.83534e-08 4.3472e-09 3.80956e-08)
(7.74658e-10 -1.72552e-09 1.22387e-09)
(2.15962e-09 -4.82755e-09 3.46202e-09)
(3.43154e-09 -7.71944e-09 5.65764e-09)
(4.63452e-09 -1.05091e-08 7.9532e-09)
(5.8085e-09 -1.32743e-08 1.04776e-08)
(6.99121e-09 -1.60604e-08 1.33506e-08)
(8.22048e-09 -1.88745e-08 1.66855e-08)
(9.537e-09 -2.16759e-08 2.05883e-08)
(1.09879e-08 -2.43582e-08 2.5151e-08)
(1.26324e-08 -2.67233e-08 3.04369e-08)
(1.45557e-08 -2.84502e-08 3.64516e-08)
(1.68927e-08 -2.90737e-08 4.30914e-08)
(1.98603e-08 -2.80316e-08 5.00492e-08)
(2.37331e-08 -2.49639e-08 5.66468e-08)
(2.84885e-08 -2.06385e-08 6.15614e-08)
(3.25106e-08 -1.82699e-08 6.29481e-08)
(1.06115e-09 -2.34201e-09 1.67052e-09)
(2.9579e-09 -6.55504e-09 4.72489e-09)
(4.6981e-09 -1.049e-08 7.71778e-09)
(6.34133e-09 -1.42982e-08 1.08423e-08)
(7.94132e-09 -1.80923e-08 1.42719e-08)
(9.54878e-09 -2.19455e-08 1.81685e-08)
(1.12138e-08 -2.5886e-08 2.26859e-08)
(1.29878e-08 -2.98887e-08 2.79691e-08)
(1.49238e-08 -3.38581e-08 3.41468e-08)
(1.70739e-08 -3.76065e-08 4.13121e-08)
(1.94841e-08 -4.08288e-08 4.94835e-08)
(2.21783e-08 -4.30949e-08 5.8532e-08)
(2.51237e-08 -4.39207e-08 6.80523e-08)
(2.81454e-08 -4.30647e-08 7.71356e-08)
(3.07409e-08 -4.12542e-08 8.40524e-08)
(3.18767e-08 -4.07622e-08 8.64194e-08)
(1.32547e-09 -2.88499e-09 2.07704e-09)
(3.69362e-09 -8.07859e-09 5.87261e-09)
(5.86349e-09 -1.294e-08 9.58672e-09)
(7.90785e-09 -1.76631e-08 1.34554e-08)
(9.8926e-09 -2.23972e-08 1.76909e-08)
(1.188e-08 -2.72485e-08 2.24915e-08)
(1.39316e-08 -3.22774e-08 2.80463e-08)
(1.61094e-08 -3.74925e-08 3.45358e-08)
(1.84744e-08 -4.28399e-08 4.21253e-08)
(2.1078e-08 -4.81858e-08 5.09452e-08)
(2.39419e-08 -5.32939e-08 6.10493e-08)
(2.70139e-08 -5.78025e-08 7.23359e-08)
(3.00673e-08 -6.12211e-08 8.43812e-08)
(3.25563e-08 -6.30254e-08 9.61579e-08)
(3.34986e-08 -6.30582e-08 1.05541e-07)
(3.21836e-08 -6.25166e-08 1.0931e-07)
(1.56273e-09 -3.33425e-09 2.43524e-09)
(4.35316e-09 -9.34122e-09 6.88236e-09)
(6.90551e-09 -1.49777e-08 1.12257e-08)
(9.30329e-09 -2.04771e-08 1.57366e-08)
(1.16223e-08 -2.60249e-08 2.06581e-08)
(1.39345e-08 -3.17628e-08 2.62173e-08)
(1.63121e-08 -3.77894e-08 3.26309e-08)
(1.88292e-08 -4.41597e-08 4.01086e-08)
(2.15616e-08 -5.08817e-08 4.88482e-08)
(2.45796e-08 -5.79081e-08 5.90194e-08)
(2.79328e-08 -6.51219e-08 7.07343e-08)
(3.15947e-08 -7.23001e-08 8.39565e-08)
(3.53711e-08 -7.9039e-08 9.83781e-08)
(3.86626e-08 -8.4569e-08 1.13045e-07)
(4.0152e-08 -8.75444e-08 1.25686e-07)
(3.83453e-08 -8.68903e-08 1.3211e-07)
(1.76911e-09 -3.67092e-09 2.73922e-09)
(4.92589e-09 -1.02901e-08 7.73759e-09)
(7.80705e-09 -1.65171e-08 1.26075e-08)
(1.05037e-08 -2.26194e-08 1.76465e-08)
(1.30985e-08 -2.88151e-08 2.31196e-08)
(1.5671e-08 -3.52791e-08 2.92729e-08)
(1.83015e-08 -4.21486e-08 3.63415e-08)
(2.10757e-08 -4.95271e-08 4.45529e-08)
(2.4088e-08 -5.74897e-08 5.41261e-08)
(2.74433e-08 -6.60879e-08 6.52625e-08)
(3.12556e-08 -7.53543e-08 7.81202e-08)
(3.56414e-08 -8.53013e-08 9.27676e-08)
(4.06813e-08 -9.58841e-08 1.09063e-07)
(4.62897e-08 -1.06818e-07 1.26332e-07)
(5.17464e-08 -1.16985e-07 1.42492e-07)
(5.4674e-08 -1.23219e-07 1.52393e-07)
(1.94205e-09 -3.8787e-09 2.9858e-09)
(5.40475e-09 -1.08792e-08 8.42926e-09)
(8.55696e-09 -1.7483e-08 1.37178e-08)
(1.14937e-08 -2.39834e-08 1.91651e-08)
(1.43011e-08 -3.06237e-08 2.50482e-08)
(1.70619e-08 -3.76059e-08 3.16223e-08)
(1.98608e-08 -4.50984e-08 3.91283e-08)
(2.27899e-08 -5.32445e-08 4.77973e-08)
(2.59558e-08 -6.21723e-08 5.78508e-08)
(2.94891e-08 -7.20089e-08 6.94958e-08)
(3.35597e-08 -8.29028e-08 8.29072e-08)
(3.84073e-08 -9.50624e-08 9.8202e-08)
(4.43915e-08 -1.08822e-07 1.15363e-07)
(5.20665e-08 -1.24717e-07 1.34006e-07)
(6.20135e-08 -1.43241e-07 1.52527e-07)
(7.25895e-08 -1.61721e-07 1.65511e-07)
(1.57975e-10 -3.62067e-10 2.28906e-10)
(4.40137e-10 -1.01261e-09 6.47394e-10)
(6.9854e-10 -1.61815e-09 1.05773e-09)
(9.41489e-10 -2.20078e-09 1.48596e-09)
(1.17637e-09 -2.77633e-09 1.95609e-09)
(1.40937e-09 -3.35314e-09 2.48951e-09)
(1.64597e-09 -3.93072e-09 3.10547e-09)
(1.89145e-09 -4.49897e-09 3.82118e-09)
(2.15117e-09 -5.03209e-09 4.64821e-09)
(2.43282e-09 -5.48464e-09 5.58934e-09)
(2.75136e-09 -5.781e-09 6.62987e-09)
(3.14259e-09 -5.80004e-09 7.72421e-09)
(3.68087e-09 -5.34337e-09 8.76375e-09)
(4.51791e-09 -4.05521e-09 9.52681e-09)
(5.79664e-09 -1.36217e-09 9.51419e-09)
(7.04213e-09 2.71289e-09 7.89418e-09)
(4.70309e-10 -1.07485e-09 6.80486e-10)
(1.31033e-09 -3.00649e-09 1.92458e-09)
(2.07916e-09 -4.80541e-09 3.14332e-09)
(2.80183e-09 -6.5382e-09 4.41529e-09)
(3.49966e-09 -8.2521e-09 5.81004e-09)
(4.19103e-09 -9.97326e-09 7.39076e-09)
(4.89202e-09 -1.17043e-08 9.21498e-09)
(5.61651e-09 -1.3417e-08 1.13314e-08)
(6.37711e-09 -1.50447e-08 1.37744e-08)
(7.18637e-09 -1.64661e-08 1.65484e-08)
(8.06402e-09 -1.74918e-08 1.96031e-08)
(9.04527e-09 -1.78556e-08 2.27792e-08)
(1.01992e-08 -1.72318e-08 2.57192e-08)
(1.15659e-08 -1.53654e-08 2.76682e-08)
(1.28878e-08 -1.25107e-08 2.72662e-08)
(1.31523e-08 -1.03484e-08 2.35288e-08)
(7.72807e-10 -1.75545e-09 1.11505e-09)
(2.15295e-09 -4.91147e-09 3.15326e-09)
(3.41568e-09 -7.8548e-09 5.14875e-09)
(4.60163e-09 -1.06959e-08 7.22928e-09)
(5.74575e-09 -1.35156e-08 9.508e-09)
(6.87815e-09 -1.63627e-08 1.2088e-08)
(8.02451e-09 -1.92494e-08 1.50628e-08)
(9.20603e-09 -2.21457e-08 1.85135e-08)
(1.04364e-08 -2.49647e-08 2.24976e-08)
(1.17185e-08 -2.75505e-08 2.70281e-08)
(1.30381e-08 -2.96679e-08 3.20313e-08)
(1.43532e-08 -3.1022e-08 3.72734e-08)
(1.5566e-08 -3.13641e-08 4.22319e-08)
(1.64441e-08 -3.08005e-08 4.59121e-08)
(1.64734e-08 -3.03501e-08 4.67846e-08)
(1.5139e-08 -3.17248e-08 4.41281e-08)
(1.0593e-09 -2.38226e-09 1.52234e-09)
(2.95066e-09 -6.66804e-09 4.30349e-09)
(4.68001e-09 -1.06719e-08 7.02427e-09)
(6.30249e-09 -1.45488e-08 9.85646e-09)
(7.86566e-09 -1.84148e-08 1.2953e-08)
(9.41088e-09 -2.23465e-08 1.64531e-08)
(1.09738e-08 -2.63775e-08 2.04847e-08)
(1.2582e-08 -3.04907e-08 2.51593e-08)
(1.42496e-08 -3.4609e-08 3.05612e-08)
(1.59646e-08 -3.85804e-08 3.672e-08)
(1.76638e-08 -4.21733e-08 4.35615e-08)
(1.91876e-08 -4.50996e-08 5.08179e-08)
(2.01991e-08 -4.71284e-08 5.78846e-08)
(2.00839e-08 -4.83792e-08 6.36339e-08)
(1.80036e-08 -4.97485e-08 6.63718e-08)
(1.41079e-08 -5.23129e-08 6.50973e-08)
(1.32415e-09 -2.93422e-09 1.89287e-09)
(3.68763e-09 -8.21648e-09 5.34968e-09)
(5.84658e-09 -1.31619e-08 8.72639e-09)
(7.86888e-09 -1.79681e-08 1.22338e-08)
(9.81377e-09 -2.2788e-08 1.60589e-08)
(1.17335e-08 -2.77308e-08 2.03727e-08)
(1.36739e-08 -3.28595e-08 2.53322e-08)
(1.56722e-08 -3.81881e-08 3.10783e-08)
(1.77487e-08 -4.36722e-08 3.7722e-08)
(1.98897e-08 -4.91987e-08 4.53193e-08)
(2.2008e-08 -5.45746e-08 5.38149e-08)
(2.38667e-08 -5.95243e-08 6.29443e-08)
(2.49539e-08 -6.37267e-08 7.20911e-08)
(2.4309e-08 -6.69324e-08 8.00425e-08)
(2.06592e-08 -6.92393e-08 8.48903e-08)
(1.44477e-08 -7.11898e-08 8.5101e-08)
(1.5625e-09 -3.39068e-09 2.21953e-09)
(4.35022e-09 -9.49933e-09 6.27048e-09)
(6.89311e-09 -1.52318e-08 1.022e-08)
(9.26996e-09 -2.08257e-08 1.43105e-08)
(1.15498e-08 -2.64697e-08 1.87564e-08)
(1.37949e-08 -3.23071e-08 2.37535e-08)
(1.60622e-08 -3.84371e-08 2.94829e-08)
(1.84016e-08 -4.49141e-08 3.6108e-08)
(2.08506e-08 -5.17452e-08 4.37651e-08)
(2.34184e-08 -5.88835e-08 5.25377e-08)
(2.60459e-08 -6.62139e-08 6.23963e-08)
(2.85412e-08 -7.3529e-08 7.3126e-08)
(3.04129e-08 -8.04634e-08 8.41241e-08)
(3.06423e-08 -8.63585e-08 9.41652e-08)
(2.75805e-08 -9.00945e-08 1.01151e-07)
(2.08748e-08 -9.06006e-08 1.02987e-07)
(1.77054e-09 -3.73265e-09 2.4971e-09)
(4.92747e-09 -1.04629e-08 7.05094e-09)
(7.80211e-09 -1.67946e-08 1.14803e-08)
(1.04809e-08 -2.29996e-08 1.6051e-08)
(1.30406e-08 -2.92984e-08 2.09966e-08)
(1.55516e-08 -3.58667e-08 2.65303e-08)
(1.80803e-08 -4.28391e-08 3.28479e-08)
(2.06913e-08 -5.03132e-08 4.0128e-08)
(2.34448e-08 -5.83531e-08 4.85222e-08)
(2.63899e-08 -6.69901e-08 5.81315e-08)
(2.9548e-08 -7.62209e-08 6.89598e-08)
(3.2872e-08 -8.5993e-08 8.08209e-08)
(3.61578e-08 -9.61453e-08 9.31664e-08)
(3.88627e-08 -1.06206e-07 1.0475e-07)
(3.98395e-08 -1.14879e-07 1.13209e-07)
(3.78404e-08 -1.19349e-07 1.15728e-07)
(1.94541e-09 -3.94358e-09 2.72239e-09)
(5.41199e-09 -1.10609e-08 7.68276e-09)
(8.56148e-09 -1.77746e-08 1.24941e-08)
(1.1485e-08 -2.43825e-08 1.74364e-08)
(1.42635e-08 -3.11298e-08 2.27547e-08)
(1.69718e-08 -3.82181e-08 2.86696e-08)
(1.96831e-08 -4.58113e-08 3.53827e-08)
(2.24713e-08 -5.40426e-08 4.30748e-08)
(2.5415e-08 -6.30215e-08 5.18994e-08)
(2.85981e-08 -7.28411e-08 6.1959e-08)
(3.21122e-08 -8.35871e-08 7.32632e-08)
(3.60541e-08 -9.5351e-08 8.56433e-08)
(4.0518e-08 -1.08239e-07 9.8576e-08)
(4.55796e-08 -1.22348e-07 1.10801e-07)
(5.12025e-08 -1.37488e-07 1.19649e-07)
(5.64755e-08 -1.5113e-07 1.21242e-07)
(1.57049e-10 -3.67232e-10 1.9857e-10)
(4.37211e-10 -1.02712e-09 5.61499e-10)
(6.92536e-10 -1.64154e-09 9.16411e-10)
(9.30641e-10 -2.23313e-09 1.28626e-09)
(1.15747e-09 -2.81834e-09 1.6904e-09)
(1.37741e-09 -3.40615e-09 2.14639e-09)
(1.59307e-09 -3.99794e-09 2.66926e-09)
(1.80501e-09 -4.58595e-09 3.27069e-09)
(2.01101e-09 -5.15073e-09 3.95612e-09)
(2.20573e-09 -5.65839e-09 4.71998e-09)
(2.381e-09 -6.05773e-09 5.5367e-09)
(2.52873e-09 -6.27756e-09 6.34695e-09)
(2.64908e-09 -6.21642e-09 7.04214e-09)
(2.73916e-09 -5.71054e-09 7.43141e-09)
(2.75122e-09 -4.45039e-09 7.27235e-09)
(2.46177e-09 -2.19582e-09 6.44825e-09)
(4.67684e-10 -1.09011e-09 5.90382e-10)
(1.30184e-09 -3.04928e-09 1.66891e-09)
(2.06204e-09 -4.87444e-09 2.72402e-09)
(2.77054e-09 -6.63353e-09 3.82185e-09)
(3.44513e-09 -8.37535e-09 5.02091e-09)
(4.09885e-09 -1.01284e-08 6.37252e-09)
(4.7395e-09 -1.18989e-08 7.921e-09)
(5.36807e-09 -1.36665e-08 9.70027e-09)
(5.97602e-09 -1.53787e-08 1.17262e-08)
(6.54142e-09 -1.6944e-08 1.39806e-08)
(7.0256e-09 -1.82301e-08 1.6386e-08)
(7.37452e-09 -1.9073e-08 1.87659e-08)
(7.51182e-09 -1.93133e-08 2.077e-08)
(7.33387e-09 -1.88733e-08 2.18233e-08)
(6.68867e-09 -1.78897e-08 2.11975e-08)
(5.62414e-09 -1.6885e-08 1.9012e-08)
(7.68832e-10 -1.78013e-09 9.67496e-10)
(2.14008e-09 -4.98085e-09 2.73455e-09)
(3.38949e-09 -7.96639e-09 4.46207e-09)
(4.55358e-09 -1.08496e-08 6.25812e-09)
(5.6617e-09 -1.37133e-08 8.21739e-09)
(6.73584e-09 -1.66092e-08 1.04237e-08)
(7.78944e-09 -1.95546e-08 1.29498e-08)
(8.82421e-09 -2.25278e-08 1.58523e-08)
(9.82364e-09 -2.54602e-08 1.91597e-08)
(1.07427e-08 -2.82303e-08 2.28501e-08)
(1.14934e-08 -3.06672e-08 2.68136e-08)
(1.19271e-08 -3.25832e-08 3.07931e-08)
(1.18163e-08 -3.38748e-08 3.43118e-08)
(1.08703e-08 -3.47303e-08 3.66414e-08)
(8.91652e-09 -3.58512e-08 3.70477e-08)
(6.66348e-09 -3.78464e-08 3.59296e-08)
(1.0545e-09 -2.4155e-09 1.32073e-09)
(2.93512e-09 -6.7611e-09 3.73276e-09)
(4.64799e-09 -1.08214e-08 6.08814e-09)
(6.24307e-09 -1.47539e-08 8.53337e-09)
(7.76107e-09 -1.86768e-08 1.11962e-08)
(9.23341e-09 -2.26695e-08 1.41903e-08)
(1.06806e-08 -2.67691e-08 1.7615e-08)
(1.21073e-08 -3.0966e-08 2.15493e-08)
(1.34926e-08 -3.51969e-08 2.60384e-08)
(1.47709e-08 -3.93374e-08 3.1066e-08)
(1.58023e-08 -4.32058e-08 3.65107e-08)
(1.63271e-08 -4.65955e-08 4.20805e-08)
(1.59139e-08 -4.9377e-08 4.72424e-08)
(1.39783e-08 -5.17029e-08 5.12129e-08)
(1.01616e-08 -5.41924e-08 5.32377e-08)
(5.81321e-09 -5.71442e-08 5.35183e-08)
(1.31922e-09 -2.97466e-09 1.64256e-09)
(3.67142e-09 -8.32983e-09 4.64068e-09)
(5.81243e-09 -1.33435e-08 7.5645e-09)
(7.8045e-09 -1.8216e-08 1.05932e-08)
(9.69924e-09 -2.31023e-08 1.38834e-08)
(1.1538e-08 -2.81128e-08 1.75745e-08)
(1.33505e-08 -3.33122e-08 2.17893e-08)
(1.51497e-08 -3.87165e-08 2.6628e-08)
(1.69197e-08 -4.42865e-08 3.21536e-08)
(1.85929e-08 -4.99202e-08 3.83623e-08)
(2.00082e-08 -5.54457e-08 4.51369e-08)
(2.08438e-08 -6.0625e-08 5.2182e-08)
(2.05134e-08 -6.5178e-08 5.89341e-08)
(1.81419e-08 -6.88623e-08 6.45764e-08)
(1.29932e-08 -7.16071e-08 6.82719e-08)
(6.65335e-09 -7.35053e-08 6.99007e-08)
(1.55814e-09 -3.43692e-09 1.92644e-09)
(4.33533e-09 -9.62874e-09 5.44032e-09)
(6.8607e-09 -1.54386e-08 8.8608e-09)
(9.20709e-09 -2.11069e-08 1.23939e-08)
(1.14359e-08 -2.68233e-08 1.6219e-08)
(1.35985e-08 -3.27311e-08 2.04964e-08)
(1.57358e-08 -3.89275e-08 2.53673e-08)
(1.78742e-08 -4.54626e-08 3.09492e-08)
(2.00163e-08 -5.2337e-08 3.73205e-08)
(2.21196e-08 -5.94933e-08 4.44904e-08)
(2.40616e-08 -6.6803e-08 5.23576e-08)
(2.55615e-08 -7.40328e-08 6.06124e-08)
(2.60744e-08 -8.07816e-08 6.86879e-08)
(2.46686e-08 -8.63306e-08 7.56915e-08)
(2.02468e-08 -8.94705e-08 8.06556e-08)
(1.36082e-08 -8.91176e-08 8.32441e-08)
(1.76727e-09 -3.78305e-09 2.16766e-09)
(4.91577e-09 -1.06039e-08 6.11858e-09)
(7.77481e-09 -1.70194e-08 9.95547e-09)
(1.04253e-08 -2.33041e-08 1.39042e-08)
(1.29367e-08 -2.96787e-08 1.81608e-08)
(1.5369e-08 -3.63171e-08 2.28994e-08)
(1.77741e-08 -4.33484e-08 2.82734e-08)
(2.01948e-08 -5.08599e-08 3.44107e-08)
(2.26595e-08 -5.88976e-08 4.13985e-08)
(2.51721e-08 -6.74626e-08 4.92556e-08)
(2.76913e-08 -7.6501e-08 5.78787e-08)
(3.00919e-08 -8.5876e-08 6.69624e-08)
(3.21002e-08 -9.5291e-08 7.58815e-08)
(3.32285e-08 -1.04093e-07 8.35992e-08)
(3.28238e-08 -1.10855e-07 8.88203e-08)
(3.08235e-08 -1.13224e-07 9.09923e-08)
(1.94375e-09 -3.99636e-09 2.36365e-09)
(5.40484e-09 -1.12085e-08 6.66814e-09)
(8.54196e-09 -1.80097e-08 1.08368e-08)
(1.14411e-08 -2.47e-08 1.51079e-08)
(1.41765e-08 -3.15244e-08 1.9687e-08)
(1.68143e-08 -3.8681e-08 2.47549e-08)
(1.94143e-08 -4.63256e-08 3.04694e-08)
(2.20319e-08 -5.45766e-08 3.69598e-08)
(2.47179e-08 -6.35171e-08 4.43128e-08)
(2.75173e-08 -7.31964e-08 5.25448e-08)
(3.04662e-08 -8.36268e-08 6.15466e-08)
(3.3586e-08 -9.47765e-08 7.09963e-08)
(3.68867e-08 -1.06554e-07 8.02146e-08)
(4.04282e-08 -1.18781e-07 8.79857e-08)
(4.44851e-08 -1.31063e-07 9.25017e-08)
(4.919e-08 -1.41631e-07 9.25608e-08)
(1.55912e-10 -3.71286e-10 1.61482e-10)
(4.3362e-10 -1.03846e-09 4.56294e-10)
(6.85654e-10 -1.65974e-09 7.4464e-10)
(9.18623e-10 -2.25845e-09 1.0438e-09)
(1.13736e-09 -2.85105e-09 1.36986e-09)
(1.34453e-09 -3.44737e-09 1.73577e-09)
(1.54033e-09 -4.05e-09 2.15261e-09)
(1.72154e-09 -4.65289e-09 2.62759e-09)
(1.88067e-09 -5.24106e-09 3.16252e-09)
(2.00423e-09 -5.7878e-09 3.74862e-09)
(2.07286e-09 -6.25517e-09 4.36155e-09)
(2.06384e-09 -6.59319e-09 4.95456e-09)
(1.95473e-09 -6.73235e-09 5.44915e-09)
(1.72982e-09 -6.54401e-09 5.76429e-09)
(1.35639e-09 -5.72468e-09 5.86939e-09)
(7.78836e-10 -3.86507e-09 5.84863e-09)
(4.64378e-10 -1.10207e-09 4.80029e-10)
(1.29159e-09 -3.08281e-09 1.35687e-09)
(2.04216e-09 -4.92854e-09 2.21294e-09)
(2.73584e-09 -6.70799e-09 3.10195e-09)
(3.38704e-09 -8.47164e-09 4.06924e-09)
(4.00392e-09 -1.02492e-08 5.15409e-09)
(4.58722e-09 -1.20493e-08 6.38844e-09)
(5.12788e-09 -1.38576e-08 7.79435e-09)
(5.60238e-09 -1.56311e-08 9.37578e-09)
(5.96831e-09 -1.72965e-08 1.11074e-08)
(6.16102e-09 -1.87514e-08 1.29168e-08)
(6.09556e-09 -1.98735e-08 1.46564e-08)
(5.68637e-09 -2.0541e-08 1.60929e-08)
(4.89101e-09 -2.06464e-08 1.69006e-08)
(3.81932e-09 -2.0089e-08 1.68078e-08)
(2.94781e-09 -1.89395e-08 1.60281e-08)
(7.63746e-10 -1.79954e-09 7.86739e-10)
(2.12429e-09 -5.03529e-09 2.22338e-09)
(3.35877e-09 -8.05383e-09 3.62554e-09)
(4.49981e-09 -1.09697e-08 5.07987e-09)
(5.57141e-09 -1.38668e-08 6.66058e-09)
(6.58825e-09 -1.67989e-08 8.43159e-09)
(7.55336e-09 -1.97868e-08 1.04459e-08)
(8.45323e-09 -2.28145e-08 1.27399e-08)
(9.25052e-09 -2.5825e-08 1.53237e-08)
(9.87283e-09 -2.87165e-08 1.81622e-08)
(1.02012e-08 -3.13488e-08 2.11498e-08)
(1.00647e-08 -3.35715e-08 2.40794e-08)
(9.26057e-09 -3.52952e-08 2.66245e-08)
(7.6584e-09 -3.66156e-08 2.83871e-08)
(5.49652e-09 -3.79171e-08 2.91342e-08)
(3.87363e-09 -3.94679e-08 2.92392e-08)
(1.04822e-09 -2.44158e-09 1.07436e-09)
(2.91546e-09 -6.83425e-09 3.03509e-09)
(4.6096e-09 -1.09386e-08 4.94741e-09)
(6.17543e-09 -1.49133e-08 6.92768e-09)
(7.64725e-09 -1.88787e-08 9.07631e-09)
(9.04738e-09 -2.29152e-08 1.14802e-08)
(1.03835e-08 -2.70618e-08 1.42117e-08)
(1.16427e-08 -3.13132e-08 1.73226e-08)
(1.27799e-08 -3.56128e-08 2.08315e-08)
(1.37009e-08 -3.98495e-08 2.47023e-08)
(1.42384e-08 -4.38605e-08 2.88144e-08)
(1.41268e-08 -4.74569e-08 3.29304e-08)
(1.30001e-08 -5.0497e-08 3.6686e-08)
(1.05116e-08 -5.30299e-08 3.96672e-08)
(6.78553e-09 -5.54173e-08 4.16535e-08)
(3.44817e-09 -5.78112e-08 4.28313e-08)
(1.31238e-09 -3.00643e-09 1.33622e-09)
(3.64988e-09 -8.41864e-09 3.77402e-09)
(5.77e-09 -1.34851e-08 6.14813e-09)
(7.72928e-09 -1.84077e-08 8.60138e-09)
(9.57196e-09 -2.33419e-08 1.12567e-08)
(1.13296e-08 -2.83986e-08 1.42208e-08)
(1.30183e-08 -3.36422e-08 1.75835e-08)
(1.46321e-08 -3.90873e-08 2.14108e-08)
(1.61311e-08 -4.46942e-08 2.57311e-08)
(1.74205e-08 -5.03603e-08 3.0513e-08)
(1.83186e-08 -5.59121e-08 3.56311e-08)
(1.8509e-08 -6.10997e-08 4.08273e-08)
(1.75058e-08 -6.56106e-08 4.57235e-08)
(1.47123e-08 -6.91081e-08 4.98784e-08)
(9.90594e-09 -7.1369e-08 5.30443e-08)
(4.85625e-09 -7.25183e-08 5.51917e-08)
(1.55141e-09 -3.47315e-09 1.56728e-09)
(4.31399e-09 -9.72991e-09 4.4251e-09)
(6.81811e-09 -1.55993e-08 7.203e-09)
(9.13055e-09 -2.13227e-08 1.00652e-08)
(1.13055e-08 -2.70902e-08 1.3153e-08)
(1.33843e-08 -3.30433e-08 1.6589e-08)
(1.5394e-08 -3.92752e-08 2.04766e-08)
(1.73431e-08 -4.58294e-08 2.48932e-08)
(1.9211e-08 -5.26956e-08 2.98757e-08)
(2.09317e-08 -5.97996e-08 3.53975e-08)
(2.23625e-08 -6.69836e-08 4.13217e-08)
(2.32432e-08 -7.39741e-08 4.73871e-08)
(2.31301e-08 -8.03029e-08 5.31552e-08)
(2.13876e-08 -8.5173e-08 5.81271e-08)
(1.74412e-08 -8.73479e-08 6.19801e-08)
(1.22528e-08 -8.60298e-08 6.46338e-08)
(1.76127e-09 -3.82241e-09 1.76391e-09)
(4.89646e-09 -1.07136e-08 4.97767e-09)
(7.73539e-09 -1.71932e-08 8.09434e-09)
(1.03533e-08 -2.35363e-08 1.1294e-08)
(1.28123e-08 -2.99627e-08 1.47311e-08)
(1.51632e-08 -3.6643e-08 1.85391e-08)
(1.7445e-08 -4.36991e-08 2.28304e-08)
(1.96834e-08 -5.1206e-08 2.76887e-08)
(2.18862e-08 -5.9189e-08 3.31552e-08)
(2.40352e-08 -6.76165e-08 3.92004e-08)
(2.60737e-08 -7.63836e-08 4.56842e-08)
(2.78902e-08 -8.52781e-08 5.23015e-08)
(2.93044e-08 -9.39059e-08 5.85456e-08)
(3.00963e-08 -1.0153e-07 6.37506e-08)
(3.01087e-08 -1.06803e-07 6.73725e-08)
(2.94674e-08 -1.07961e-07 6.94132e-08)
(1.93898e-09 -4.03748e-09 1.92372e-09)
(5.38906e-09 -1.1323e-08 5.4257e-09)
(8.50861e-09 -1.81907e-08 8.81238e-09)
(1.13782e-08 -2.49407e-08 1.22744e-08)
(1.40656e-08 -3.18165e-08 1.59732e-08)
(1.66284e-08 -3.90111e-08 2.00482e-08)
(1.9115e-08 -4.6671e-08 2.46144e-08)
(2.15657e-08 -5.48975e-08 2.97563e-08)
(2.40131e-08 -6.37472e-08 3.55131e-08)
(2.64821e-08 -7.32259e-08 4.18488e-08)
(2.89935e-08 -8.32805e-08 4.86092e-08)
(3.15742e-08 -9.37859e-08 5.54554e-08)
(3.43015e-08 -1.04536e-07 6.17961e-08)
(3.74415e-08 -1.15267e-07 6.67632e-08)
(4.16886e-08 -1.25717e-07 6.94099e-08)
(4.7439e-08 -1.34888e-07 6.95379e-08)
(1.54781e-10 -3.74197e-10 1.19044e-10)
(4.30193e-10 -1.04664e-09 3.36536e-10)
(6.7913e-10 -1.67301e-09 5.48447e-10)
(9.07484e-10 -2.27631e-09 7.68488e-10)
(1.11936e-09 -2.8749e-09 1.00738e-09)
(1.31579e-09 -3.47746e-09 1.27439e-09)
(1.49525e-09 -4.08737e-09 1.57676e-09)
(1.65224e-09 -4.70025e-09 1.91894e-09)
(1.77619e-09 -5.3029e-09 2.30068e-09)
(1.8505e-09 -5.87225e-09 2.71437e-09)
(1.85347e-09 -6.37508e-09 3.14181e-09)
(1.76273e-09 -6.76589e-09 3.55113e-09)
(1.56489e-09 -6.97653e-09 3.90621e-09)
(1.26413e-09 -6.86446e-09 4.1752e-09)
(8.59914e-10 -6.09881e-09 4.40149e-09)
(3.21244e-10 -4.23155e-09 4.63843e-09)
(4.61156e-10 -1.11078e-09 3.54084e-10)
(1.28167e-09 -3.10727e-09 1.00023e-09)
(2.02328e-09 -4.96749e-09 1.6307e-09)
(2.704e-09 -6.76293e-09 2.28398e-09)
(3.33473e-09 -8.54158e-09 2.99267e-09)
(3.92037e-09 -1.0336e-08 3.78415e-09)
(4.45653e-09 -1.21563e-08 4.6798e-09)
(4.92745e-09 -1.39905e-08 5.6925e-09)
(5.30181e-09 -1.58012e-08 6.82136e-09)
(5.52937e-09 -1.75228e-08 8.04368e-09)
(5.54164e-09 -1.9062e-08 9.30415e-09)
(5.26452e-09 -2.0302e-08 1.05105e-08)
(4.65178e-09 -2.11028e-08 1.15211e-08)
(3.75256e-09 -2.12889e-08 1.21804e-08)
(2.81923e-09 -2.06161e-08 1.23722e-08)
(2.33629e-09 -1.91036e-08 1.2146e-08)
(7.58762e-10 -1.81376e-09 5.80325e-10)
(2.1089e-09 -5.07509e-09 1.63918e-09)
(3.32972e-09 -8.1182e-09 2.67185e-09)
(4.44987e-09 -1.10568e-08 3.7406e-09)
(5.48984e-09 -1.39782e-08 4.89886e-09)
(6.45806e-09 -1.69353e-08 6.19112e-09)
(7.35004e-09 -1.99507e-08 7.65274e-09)
(8.14281e-09 -2.30118e-08 9.30561e-09)
(8.78801e-09 -2.60663e-08 1.11504e-08)
(9.2041e-09 -2.90197e-08 1.31544e-08)
(9.27269e-09 -3.17384e-08 1.52386e-08)
(8.84882e-09 -3.40686e-08 1.72659e-08)
(7.809e-09 -3.58796e-08 1.90442e-08)
(6.18073e-09 -3.71622e-08 2.03752e-08)
(4.40164e-09 -3.81285e-08 2.11694e-08)
(3.47287e-09 -3.90831e-08 2.15453e-08)
(1.04197e-09 -2.46081e-09 7.92288e-10)
(2.89618e-09 -6.88799e-09 2.23816e-09)
(4.57267e-09 -1.1024e-08 3.64641e-09)
(6.11245e-09 -1.503e-08 5.10198e-09)
(7.54356e-09 -1.90242e-08 6.67643e-09)
(8.88193e-09 -2.30892e-08 8.43062e-09)
(1.0126e-08 -2.72645e-08 1.0413e-08)
(1.12514e-08 -3.1545e-08 1.26548e-08)
(1.22015e-08 -3.58763e-08 1.51605e-08)
(1.28741e-08 -4.01481e-08 1.78937e-08)
(1.31093e-08 -4.41951e-08 2.07613e-08)
(1.26858e-08 -4.78118e-08 2.36036e-08)
(1.13523e-08 -5.08088e-08 2.62062e-08)
(8.96586e-09 -5.31253e-08 2.83617e-08)
(5.86879e-09 -5.49937e-08 2.99825e-08)
(3.47127e-09 -5.66973e-08 3.10381e-08)
(1.3054e-09 -3.02975e-09 9.85633e-10)
(3.6284e-09 -8.48397e-09 2.78336e-09)
(5.72884e-09 -1.3589e-08 4.53211e-09)
(7.65794e-09 -1.85463e-08 6.33541e-09)
(9.45484e-09 -2.35133e-08 8.28142e-09)
(1.11428e-08 -2.85988e-08 1.04448e-08)
(1.27281e-08 -3.38657e-08 1.28858e-08)
(1.41933e-08 -3.93261e-08 1.56443e-08)
(1.54868e-08 -4.49353e-08 1.87295e-08)
(1.65087e-08 -5.05825e-08 2.21038e-08)
(1.70909e-08 -5.60789e-08 2.56652e-08)
(1.69773e-08 -6.11487e-08 2.92435e-08)
(1.58149e-08 -6.54229e-08 3.25939e-08)
(1.32426e-08 -6.84894e-08 3.55011e-08)
(9.25773e-09 -7.00654e-08 3.78576e-08)
(5.32777e-09 -7.04795e-08 3.9496e-08)
(1.54438e-09 -3.49984e-09 1.15637e-09)
(4.29204e-09 -9.80413e-09 3.26403e-09)
(6.77552e-09 -1.57163e-08 5.31046e-09)
(9.05699e-09 -2.14787e-08 7.41481e-09)
(1.11836e-08 -2.72792e-08 9.67814e-09)
(1.31896e-08 -3.32583e-08 1.21865e-08)
(1.50921e-08 -3.95042e-08 1.50092e-08)
(1.6888e-08 -4.60533e-08 1.8193e-08)
(1.85465e-08 -5.28828e-08 2.17505e-08)
(1.99977e-08 -5.98991e-08 2.56413e-08)
(2.11186e-08 -6.69176e-08 2.97606e-08)
(2.17094e-08 -7.3622e-08 3.39001e-08)
(2.14734e-08 -7.94972e-08 3.7788e-08)
(2.00143e-08 -8.37076e-08 4.11488e-08)
(1.69828e-08 -8.50609e-08 4.38413e-08)
(1.30115e-08 -8.30615e-08 4.57134e-08)
(1.75464e-09 -3.8513e-09 1.30157e-09)
(4.87571e-09 -1.07939e-08 3.67215e-09)
(7.69488e-09 -1.73196e-08 5.96848e-09)
(1.02819e-08 -2.37025e-08 8.32128e-09)
(1.26938e-08 -3.0162e-08 1.08413e-08)
(1.49731e-08 -3.68639e-08 1.36222e-08)
(1.71499e-08 -4.39236e-08 1.67391e-08)
(1.92394e-08 -5.14038e-08 2.02424e-08)
(2.12397e-08 -5.9311e-08 2.41449e-08)
(2.31303e-08 -6.75847e-08 2.84041e-08)
(2.48722e-08 -7.60801e-08 3.28948e-08)
(2.64118e-08 -8.45335e-08 3.73814e-08)
(2.7705e-08 -9.25042e-08 4.15115e-08)
(2.87579e-08 -9.9255e-08 4.48932e-08)
(2.96306e-08 -1.03582e-07 4.72631e-08)
(3.01378e-08 -1.04134e-07 4.86334e-08)
(1.93325e-09 -4.06763e-09 1.41967e-09)