/*--------------------------------*- C++ -*----------------------------------*\
| =========                 |                                                 |
| \\      /  F ield         | OpenFOAM: The Open Source CFD Toolbox           |
|  \\    /   O peration     | Version:  v1912                                 |
|   \\  /    A nd           | Website:  www.openfoam.com                      |
|    \\/     M anipulation  |                                                 |
\*---------------------------------------------------------------------------*/
FoamFile
{
    version     2.0;
    format      ascii;
    class       surfaceScalarField;
    location    "0.56/fluid";
    object      meshPhi;
}
// * * * * * * * * * * * * * * * * * * * * * * * * * * * * * * * * * * * * * //

dimensions      [0 3 -1 0 0 0 0];
oriented        oriented;


internalField   nonuniform List<scalar> 
41600
(
1.86058e-13
-4.61376e-13
1.72434e-13
-1.78111e-13
3.54916e-13
-1.34423e-12
5.08214e-13
-5.25211e-13
5.12987e-13
-2.16414e-12
8.37397e-13
-8.66223e-13
6.66063e-13
-2.95035e-12
1.18178e-12
-1.22408e-12
8.19696e-13
-3.72272e-12
1.56101e-12
-1.6196e-12
9.79724e-13
-4.49042e-12
1.99341e-12
-2.07244e-12
1.15301e-12
-5.2496e-12
2.49647e-12
-2.60189e-12
1.3487e-12
-5.97852e-12
3.0869e-12
-3.22709e-12
1.58059e-12
-6.6286e-12
3.78011e-12
-3.96717e-12
1.87252e-12
-7.1085e-12
4.58925e-12
-4.84155e-12
2.26998e-12
-7.25539e-12
5.52459e-12
-5.87214e-12
2.86594e-12
-6.77881e-12
6.59542e-12
-7.09227e-12
3.8506e-12
-5.1473e-12
7.81915e-12
-8.57419e-12
5.56674e-12
-1.40501e-12
9.23596e-12
-1.04912e-11
8.17498e-12
5.46291e-12
1.083e-11
-1.30374e-11
1.71007e-11
1.36161e-11
-2.00336e-11
5.53976e-13
-9.0911e-13
5.12873e-13
-5.29776e-13
1.05661e-12
-2.64932e-12
1.51149e-12
-1.56208e-12
1.52685e-12
-4.26711e-12
2.49016e-12
-2.5759e-12
1.98175e-12
-5.82109e-12
3.51345e-12
-3.63916e-12
2.43766e-12
-7.35208e-12
4.63949e-12
-4.81341e-12
2.91165e-12
-8.88132e-12
5.92256e-12
-6.15699e-12
3.4234e-12
-1.04063e-11
7.41448e-12
-7.72685e-12
3.99821e-12
-1.18929e-11
9.16456e-12
-9.57941e-12
4.6726e-12
-1.32615e-11
1.12178e-11
-1.17702e-11
5.50585e-12
-1.4364e-11
1.36112e-11
-1.43533e-11
6.60409e-12
-1.495e-11
1.63678e-11
-1.73825e-11
8.16957e-12
-1.46202e-11
1.94927e-11
-2.0922e-11
1.05798e-11
-1.2789e-11
2.29724e-11
-2.5082e-11
1.4422e-11
-8.7763e-12
2.67681e-11
-3.00855e-11
1.97069e-11
-2.61988e-12
3.06364e-11
-3.59904e-11
4.62586e-12
3.36472e-11
-4.37612e-11
9.09593e-13
-1.32973e-12
8.40375e-13
-8.68083e-13
1.73448e-12
-3.87639e-12
2.47633e-12
-2.55923e-12
2.50531e-12
-6.24776e-12
4.07854e-12
-4.21892e-12
3.24962e-12
-8.5322e-12
5.75202e-12
-5.95753e-12
3.99375e-12
-1.07936e-11
7.59121e-12
-7.87512e-12
4.76487e-12
-1.30698e-11
9.68447e-12
-1.00666e-11
5.59337e-12
-1.53682e-11
1.21162e-11
-1.26244e-11
6.51628e-12
-1.76577e-11
1.49667e-11
-1.56402e-11
7.58266e-12
-1.98534e-11
1.83092e-11
-1.92028e-11
8.86337e-12
-2.17958e-11
2.22016e-11
-2.33949e-11
1.04694e-11
-2.32217e-11
2.66726e-11
-2.82861e-11
1.25845e-11
-2.37409e-11
3.16987e-11
-3.39258e-11
1.54994e-11
-2.286e-11
3.71706e-11
-4.03382e-11
1.95565e-11
-2.01772e-11
4.28321e-11
-4.75045e-11
2.43955e-11
-1.60625e-11
4.80952e-11
-5.4969e-11
-1.15231e-11
5.22166e-11
-6.42272e-11
1.24535e-12
-1.70947e-12
1.1471e-12
-1.18489e-12
2.37387e-12
-4.98551e-12
3.3794e-12
-3.4924e-12
3.42671e-12
-8.04236e-12
5.56341e-12
-5.75453e-12
4.44073e-12
-1.09982e-11
7.8409e-12
-8.12028e-12
5.45114e-12
-1.39418e-11
1.03393e-11
-1.07246e-11
6.4938e-12
-1.69323e-11
1.3178e-11
-1.36956e-11
7.6078e-12
-1.99964e-11
1.64713e-11
-1.71583e-11
8.8382e-12
-2.3121e-11
2.03288e-11
-2.12365e-11
1.02393e-11
-2.62425e-11
2.48514e-11
-2.60509e-11
1.1878e-11
-2.92281e-11
3.01204e-11
-3.1712e-11
1.38382e-11
-3.1853e-11
3.61759e-11
-3.8305e-11
1.62242e-11
-3.3778e-11
4.29777e-11
-4.58639e-11
1.91494e-11
-3.45561e-11
5.03406e-11
-5.43272e-11
2.26676e-11
-3.37457e-11
5.78274e-11
-6.34595e-11
2.633e-11
-3.1381e-11
6.4544e-11
-7.24248e-11
-2.78472e-11
6.93526e-11
-8.22589e-11
1.55442e-12
-2.03484e-12
1.42611e-12
-1.47299e-12
2.96157e-12
-5.93722e-12
4.20007e-12
-4.34014e-12
4.27148e-12
-9.58711e-12
6.91005e-12
-7.14667e-12
5.52896e-12
-1.31314e-11
9.72976e-12
-1.00751e-11
6.77665e-12
-1.66846e-11
1.2815e-11
-1.32905e-11
8.05777e-12
-2.03304e-11
1.63119e-11
-1.69492e-11
9.41866e-12
-2.41211e-11
2.03607e-11
-2.12044e-11
1.09112e-11
-2.80747e-11
2.50975e-11
-2.62087e-11
1.2594e-11
-3.21678e-11
3.06503e-11
-3.21128e-11
1.45313e-11
-3.63249e-11
3.71285e-11
-3.90579e-11
1.67861e-11
-4.03995e-11
4.45984e-11
-4.71578e-11
1.94027e-11
-4.41435e-11
5.30373e-11
-5.64634e-11
2.2361e-11
-4.71572e-11
6.22464e-11
-6.6892e-11
2.54917e-11
-4.88283e-11
7.1685e-11
-7.80859e-11
2.82396e-11
-4.85098e-11
8.01479e-11
-8.88569e-11
-4.54338e-11
8.60269e-11
-9.97333e-11
1.83112e-12
-2.29296e-12
1.67183e-12
-1.72659e-12
3.48657e-12
-6.69382e-12
4.92171e-12
-5.08522e-12
5.0234e-12
-1.08204e-11
8.09057e-12
-8.36644e-12
6.49259e-12
-1.48458e-11
1.13781e-11
-1.178e-11
7.94261e-12
-1.89086e-11
1.49628e-11
-1.5515e-11
9.42252e-12
-2.31175e-11
1.90118e-11
-1.97501e-11
1.09848e-11
-2.75534e-11
2.36859e-11
-2.46604e-11
1.26884e-11
-3.22704e-11
2.91425e-11
-3.04216e-11
1.46e-11
-3.72961e-11
3.55337e-11
-3.72103e-11
1.67934e-11
-4.26293e-11
4.29985e-11
-4.51998e-11
1.9344e-11
-4.8235e-11
5.16433e-11
-5.45466e-11
2.23122e-11
-5.40255e-11
6.15031e-11
-6.53629e-11
2.56933e-11
-5.98024e-11
7.2456e-11
-7.76478e-11
2.93073e-11
-6.50925e-11
8.40196e-11
-9.11142e-11
3.24576e-11
-6.8871e-11
9.48269e-11
-1.04399e-10
-6.82483e-11
1.02853e-10
-1.17737e-10
2.07112e-12
-2.47227e-12
1.8803e-12
-1.94159e-12
3.94058e-12
-7.22133e-12
5.53258e-12
-5.7155e-12
5.67028e-12
-1.16864e-11
9.08535e-12
-9.39354e-12
7.31533e-12
-1.60617e-11
1.27575e-11
-1.32056e-11
8.92803e-12
-2.05065e-11
1.67437e-11
-1.73578e-11
1.05613e-11
-2.51515e-11
2.12251e-11
-2.20438e-11
1.22722e-11
-3.01035e-11
2.63759e-11
-2.74528e-11
1.41255e-11
-3.54501e-11
3.23665e-11
-3.37744e-11
1.61981e-11
-4.12657e-11
3.93649e-11
-4.12023e-11
1.85825e-11
-4.76195e-11
4.75325e-11
-4.99337e-11
2.13937e-11
-5.45869e-11
5.70141e-11
-6.01666e-11
2.4775e-11
-6.22665e-11
6.79176e-11
-7.20927e-11
2.8893e-11
-7.07918e-11
8.02598e-11
-8.58662e-11
3.38619e-11
-8.02748e-11
9.37861e-11
-1.01472e-10
3.90885e-11
-9.02114e-11
1.0726e-10
-1.17716e-10
-1.00167e-10
1.18503e-10
-1.3555e-10
2.27162e-12
2.04931e-12
-2.11575e-12
-2.56323e-12
4.31847e-12
6.02639e-12
-6.22451e-12
-7.49167e-12
6.20485e-12
9.88429e-12
-1.02176e-11
-1.21385e-11
7.98767e-12
1.38538e-11
-1.43374e-11
-1.67127e-11
9.7207e-12
1.81387e-11
-1.87995e-11
-2.13879e-11
1.14581e-11
2.29266e-11
-2.38043e-11
-2.63107e-11
1.32581e-11
2.83958e-11
-2.95455e-11
-3.16068e-11
1.51881e-11
3.47196e-11
-3.62154e-11
-3.73873e-11
1.73296e-11
4.20677e-11
-4.40094e-11
-4.37568e-11
1.97877e-11
5.06053e-11
-5.31282e-11
-5.08246e-11
2.27051e-11
6.04889e-11
-6.37819e-11
-5.87208e-11
2.62879e-11
7.186e-11
-7.61976e-11
-6.76232e-11
3.08335e-11
8.48195e-11
-9.06219e-11
-7.779e-11
3.66998e-11
9.93041e-11
-1.0726e-10
-8.95561e-11
4.33697e-11
1.1424e-10
-1.25124e-10
-1.02487e-10
1.28718e-10
-1.47808e-10
-1.20188e-10
1.86272e-13
-4.70928e-13
1.60478e-13
3.54987e-13
-1.37215e-12
4.72784e-13
5.12257e-13
-2.20948e-12
7.78375e-13
6.6348e-13
-3.01317e-12
1.0971e-12
8.13623e-13
-3.80415e-12
1.44664e-12
9.6756e-13
-4.59284e-12
1.84317e-12
1.13058e-12
-5.37708e-12
2.30153e-12
1.30917e-12
-6.13807e-12
2.83488e-12
1.51264e-12
-6.83302e-12
3.45327e-12
1.75685e-12
-7.38285e-12
4.161e-12
2.07273e-12
-7.65181e-12
4.95163e-12
2.52443e-12
-7.41106e-12
5.79924e-12
3.24021e-12
-6.27351e-12
6.64141e-12
4.42693e-12
-3.62133e-12
7.34299e-12
6.11315e-12
1.05471e-12
7.64925e-12
7.37083e-12
7.06056e-12
5.54701e-13
-9.2783e-13
4.77307e-13
1.05702e-12
-2.70402e-12
1.4061e-12
1.52505e-12
-4.35594e-12
2.31462e-12
1.97472e-12
-5.94424e-12
3.26171e-12
2.42071e-12
-7.51176e-12
4.29971e-12
2.87731e-12
-9.08188e-12
5.47652e-12
3.35971e-12
-1.06551e-11
6.83619e-12
3.88572e-12
-1.22021e-11
8.41767e-12
4.47913e-12
-1.36528e-11
1.02508e-11
5.17725e-12
-1.48788e-11
1.2348e-11
6.04743e-12
-1.56717e-11
1.46885e-11
7.2196e-12
-1.57203e-11
1.71902e-11
8.93195e-12
-1.46208e-11
1.96577e-11
1.15109e-11
-1.20273e-11
2.16879e-11
1.48299e-11
-8.25518e-12
2.26171e-11
-5.44024e-12
2.076e-11
9.11097e-13
-1.35695e-12
7.82112e-13
1.73584e-12
-3.95595e-12
2.3037e-12
2.5036e-12
-6.377e-12
3.79112e-12
3.24023e-12
-8.71142e-12
5.34013e-12
3.9695e-12
-1.10258e-11
7.03584e-12
4.71438e-12
-1.33607e-11
8.95623e-12
5.49849e-12
-1.57272e-11
1.11732e-11
6.34763e-12
-1.80993e-11
1.37508e-11
7.29203e-12
-2.04028e-11
1.67389e-11
8.37074e-12
-2.24986e-11
2.01594e-11
9.64072e-12
-2.41668e-11
2.3981e-11
1.11922e-11
-2.51044e-11
2.80721e-11
1.31584e-11
-2.4987e-11
3.2121e-11
1.56499e-11
-2.36957e-11
3.55188e-11
1.83409e-11
-2.17858e-11
3.73681e-11
-2.09012e-11
3.61959e-11
1.24806e-12
-1.7443e-12
1.06763e-12
2.37715e-12
-5.0873e-12
3.144e-12
3.42688e-12
-8.20773e-12
5.17172e-12
4.43209e-12
-1.12275e-11
7.28014e-12
5.42482e-12
-1.42385e-11
9.58416e-12
6.43592e-12
-1.7303e-11
1.21892e-11
7.4963e-12
-2.04508e-11
1.51931e-11
8.63761e-12
-2.36737e-11
1.86839e-11
9.89178e-12
-2.69161e-11
2.27327e-11
1.12886e-11
-3.00617e-11
2.73765e-11
1.28497e-11
-3.29186e-11
3.25857e-11
1.45762e-11
-3.52144e-11
3.82051e-11
1.64184e-11
-3.66316e-11
4.38552e-11
1.82211e-11
-3.69536e-11
4.8798e-11
1.96324e-11
-3.63967e-11
5.19449e-11
-3.6146e-11
5.16497e-11
1.55885e-12
-2.07612e-12
1.32744e-12
2.9679e-12
-6.05791e-12
3.9079e-12
4.2756e-12
-9.78319e-12
6.42432e-12
5.5246e-12
-1.34032e-11
9.03519e-12
6.75423e-12
-1.70359e-11
1.18811e-11
8.00242e-12
-2.07678e-11
1.50913e-11
9.307e-12
-2.46541e-11
1.87861e-11
1.07058e-11
-2.87155e-11
2.30758e-11
1.22346e-11
-3.29332e-11
2.8053e-11
1.39191e-11
-3.72399e-11
3.37754e-11
1.57584e-11
-4.15054e-11
4.02302e-11
1.76897e-11
-4.55153e-11
4.72692e-11
1.95231e-11
-4.89384e-11
5.44953e-11
2.08727e-11
-5.12992e-11
6.10899e-11
2.12792e-11
-5.21233e-11
6.57436e-11
-5.18449e-11
6.6493e-11
1.83775e-12
-2.33934e-12
1.55637e-12
3.49704e-12
-6.82942e-12
4.58e-12
5.03342e-12
-1.10408e-11
7.52304e-12
6.49586e-12
-1.51511e-11
1.05677e-11
7.92971e-12
-1.93028e-11
1.38753e-11
9.37904e-12
-2.36072e-11
1.75937e-11
1.08885e-11
-2.81469e-11
2.18612e-11
1.25038e-11
-3.29771e-11
2.68061e-11
1.42706e-11
-3.81253e-11
3.25403e-11
1.62276e-11
-4.35903e-11
3.91437e-11
1.83907e-11
-4.9336e-11
4.66308e-11
2.07176e-11
-5.5273e-11
5.48872e-11
2.30339e-11
-6.12009e-11
6.35482e-11
2.49205e-11
-6.66533e-11
7.17829e-11
2.57254e-11
-7.06711e-11
7.80918e-11
-7.13823e-11
8.01981e-11
2.08031e-12
-2.52219e-12
1.75073e-12
3.95601e-12
-7.36729e-12
5.14935e-12
5.68773e-12
-1.19236e-11
8.44963e-12
7.32887e-12
-1.63904e-11
1.18514e-11
8.92906e-12
-2.09307e-11
1.55306e-11
1.0537e-11
-2.56776e-11
1.96478e-11
1.2203e-11
-3.07388e-11
2.43529e-11
1.39811e-11
-3.62011e-11
2.97854e-11
1.59305e-11
-4.21356e-11
3.60697e-11
1.81152e-11
-4.86044e-11
4.3302e-11
2.06009e-11
-5.56688e-11
5.15221e-11
2.34444e-11
-6.33999e-11
6.06571e-11
2.66612e-11
-7.18761e-11
7.04023e-11
3.01289e-11
-8.11004e-11
7.99734e-11
3.32523e-11
-9.04917e-11
8.77391e-11
-9.88841e-11
9.09648e-11
2.28357e-12
1.90845e-12
-2.61494e-12
4.33932e-12
5.61006e-12
-7.64292e-12
6.2306e-12
9.19462e-12
-1.23845e-11
8.01303e-12
1.2873e-11
-1.70536e-11
9.7383e-12
1.68292e-11
-2.1828e-11
1.14573e-11
2.123e-11
-2.68562e-11
1.32231e-11
2.62291e-11
-3.22644e-11
1.50948e-11
3.19683e-11
-3.81615e-11
1.71411e-11
3.85732e-11
-4.46467e-11
1.94457e-11
4.61426e-11
-5.18179e-11
2.21155e-11
5.47236e-11
-5.97841e-11
2.52922e-11
6.42636e-11
-6.86831e-11
2.91583e-11
7.45024e-11
-7.86958e-11
3.38783e-11
8.47336e-11
-9.00024e-11
3.89407e-11
9.33155e-11
-1.02039e-10
9.69001e-11
-1.16412e-10
1.85706e-13
-4.79173e-13
1.42837e-13
3.53496e-13
-1.39629e-12
4.20657e-13
5.09043e-13
-2.24874e-12
6.92023e-13
6.57177e-13
-3.06762e-12
9.74216e-13
8.02041e-13
-3.87482e-12
1.2824e-12
9.47221e-13
-4.68208e-12
1.63007e-12
1.0959e-12
-5.48939e-12
2.02905e-12
1.25103e-12
-6.282e-12
2.48868e-12
1.4158e-12
-7.02536e-12
3.01403e-12
1.59504e-12
-7.65791e-12
3.60214e-12
1.7989e-12
-8.0815e-12
4.23558e-12
2.04969e-12
-8.1494e-12
4.87097e-12
2.38928e-12
-7.65393e-12
5.41969e-12
2.86239e-12
-6.34196e-12
5.72266e-12
3.38866e-12
-4.1469e-12
5.5774e-12
-1.32607e-12
5.00509e-12
5.53131e-13
-9.43968e-13
4.2485e-13
1.05283e-12
-2.75124e-12
1.2511e-12
1.51592e-12
-4.43268e-12
2.05789e-12
1.95672e-12
-6.0506e-12
2.89646e-12
2.38753e-12
-7.64956e-12
3.81172e-12
2.81895e-12
-9.25521e-12
4.84368e-12
3.26018e-12
-1.08715e-11
6.0274e-12
3.71906e-12
-1.24759e-11
7.39082e-12
4.20241e-12
-1.40114e-11
8.9493e-12
4.71778e-12
-1.53769e-11
1.06951e-11
5.27848e-12
-1.64198e-11
1.25783e-11
5.91276e-12
-1.69404e-11
1.4475e-11
6.66791e-12
-1.67408e-11
1.61363e-11
7.56176e-12
-1.57832e-11
1.71357e-11
8.37448e-12
-1.45052e-11
1.69864e-11
-1.43141e-11
1.54217e-11
9.08895e-13
-1.38037e-12
6.96191e-13
1.72977e-12
-4.02443e-12
2.04985e-12
2.49007e-12
-6.48819e-12
3.37082e-12
3.21314e-12
-8.86527e-12
4.74249e-12
3.91914e-12
-1.12245e-11
6.2379e-12
4.62541e-12
-1.3609e-11
7.92229e-12
5.34657e-12
-1.60337e-11
9.85306e-12
6.09366e-12
-1.84795e-11
1.20766e-11
6.87229e-12
-2.08857e-11
1.462e-11
7.67988e-12
-2.3141e-11
1.74751e-11
8.50197e-12
-2.508e-11
2.05697e-11
9.30548e-12
-2.65035e-11
2.37219e-11
1.00214e-11
-2.72634e-11
2.65744e-11
1.0501e-11
-2.7465e-11
2.85498e-11
1.05057e-11
-2.76676e-11
2.90521e-11
-2.88695e-11
2.81581e-11
1.2458e-12
-1.77415e-12
9.50424e-13
2.37047e-12
-5.17456e-12
2.79782e-12
3.41121e-12
-8.34925e-12
4.59883e-12
4.39978e-12
-1.14229e-11
6.46613e-12
5.36377e-12
-1.44897e-11
8.49841e-12
6.32714e-12
-1.76145e-11
1.0784e-11
7.30992e-12
-2.08299e-11
1.34012e-11
8.32622e-12
-2.41327e-11
1.64145e-11
9.37926e-12
-2.74772e-11
1.98652e-11
1.04518e-11
-3.07668e-11
2.37511e-11
1.14883e-11
-3.38492e-11
2.79932e-11
1.23642e-11
-3.65275e-11
3.23821e-11
1.2843e-11
-3.8616e-11
3.65076e-11
1.25659e-11
-4.00792e-11
3.97215e-11
1.13472e-11
-4.11852e-11
4.13434e-11
-4.27012e-11
4.14212e-11
1.55723e-12
-2.11137e-12
1.18186e-12
2.96212e-12
-6.16087e-12
3.47806e-12
4.26048e-12
-9.94999e-12
5.71346e-12
5.49161e-12
-1.3633e-11
8.02619e-12
6.68999e-12
-1.733e-11
1.05371e-11
7.88616e-12
-2.11294e-11
1.33545e-11
9.10639e-12
-2.50876e-11
1.65751e-11
1.03701e-11
-2.92269e-11
2.02805e-11
1.16834e-11
-3.35317e-11
2.45265e-11
1.30243e-11
-3.79416e-11
2.9323e-11
1.43151e-11
-4.23418e-11
3.45965e-11
1.53708e-11
-4.65507e-11
4.0133e-11
1.58247e-11
-5.0305e-11
4.55012e-11
1.511e-11
-5.32548e-11
5.00013e-11
1.29524e-11
-5.50563e-11
5.28283e-11
-5.6023e-11
5.39036e-11
1.83744e-12
-2.37877e-12
1.3859e-12
3.49365e-12
-6.94455e-12
4.07688e-12
5.02152e-12
-1.12271e-11
6.69175e-12
6.46666e-12
-1.54072e-11
9.38938e-12
7.86964e-12
-1.96293e-11
1.23084e-11
9.26728e-12
-2.40056e-11
1.55731e-11
1.0693e-11
-2.86179e-11
1.92947e-11
1.21749e-11
-3.35192e-11
2.35685e-11
1.37306e-11
-3.87327e-11
2.84638e-11
1.53535e-11
-4.42496e-11
3.4003e-11
1.69869e-11
-5.00219e-11
4.01244e-11
1.84702e-11
-5.59417e-11
4.66209e-11
1.94516e-11
-6.17853e-11
5.30521e-11
1.93158e-11
-6.70802e-11
5.8664e-11
1.75683e-11
-7.09474e-11
6.25006e-11
-7.16892e-11
6.44062e-11
2.0819e-12
-2.56445e-12
1.55923e-12
3.95629e-12
-7.49064e-12
4.58451e-12
5.68132e-12
-1.21231e-11
7.51742e-12
7.30727e-12
-1.66642e-11
1.05322e-11
8.87938e-12
-2.12788e-11
1.37803e-11
1.04397e-11
-2.60997e-11
1.73967e-11
1.20286e-11
-3.12323e-11
2.15023e-11
1.36843e-11
-3.67578e-11
2.62007e-11
1.54411e-11
-4.27366e-11
3.15693e-11
1.73233e-11
-4.92113e-11
3.7639e-11
1.93304e-11
-5.62088e-11
4.43569e-11
2.14077e-11
-6.37367e-11
5.15221e-11
2.33894e-11
-7.17597e-11
5.8682e-11
2.49164e-11
-8.00955e-11
6.50038e-11
2.54639e-11
-8.80231e-11
6.93203e-11
-9.42913e-11
7.12653e-11
2.28748e-12
1.70002e-12
-2.65855e-12
4.3442e-12
4.99565e-12
-7.77026e-12
6.23132e-12
8.18195e-12
-1.25904e-11
8.00177e-12
1.14429e-11
-1.73361e-11
9.70343e-12
1.4937e-11
-2.21864e-11
1.13816e-11
1.88047e-11
-2.72892e-11
1.30808e-11
2.317e-11
-3.2767e-11
1.48471e-11
2.81381e-11
-3.87211e-11
1.67284e-11
3.37868e-11
-4.52361e-11
1.87757e-11
4.01466e-11
-5.23841e-11
2.104e-11
4.71644e-11
-6.02287e-11
2.35656e-11
5.46389e-11
-6.88261e-11
2.63677e-11
6.211e-11
-7.82125e-11
2.93667e-11
6.87027e-11
-8.83305e-11
3.2072e-11
7.31054e-11
-9.84469e-11
7.40888e-11
-1.09512e-10
1.84606e-13
-4.85994e-13
1.20279e-13
3.50947e-13
-1.41625e-12
3.54103e-13
5.04196e-13
-2.28119e-12
5.82132e-13
6.4855e-13
-3.11264e-12
8.18617e-13
7.87246e-13
-3.93328e-12
1.07586e-12
9.22501e-13
-4.756e-12
1.36449e-12
1.05536e-12
-5.5828e-12
1.69331e-12
1.18533e-12
-6.4028e-12
2.06846e-12
1.30999e-12
-7.18917e-12
2.49149e-12
1.42478e-12
-7.89571e-12
2.95609e-12
1.52376e-12
-8.4545e-12
3.44273e-12
1.6015e-12
-8.7761e-12
3.91119e-12
1.65418e-12
-8.75431e-12
4.2924e-12
1.67169e-12
-8.28e-12
4.4899e-12
1.61784e-12
-7.3194e-12
4.42861e-12
-5.57637e-12
4.3764e-12
5.49983e-13
-9.5732e-13
3.57767e-13
1.04551e-12
-2.79029e-12
1.0532e-12
1.50197e-12
-4.4961e-12
1.73119e-12
1.93185e-12
-6.13836e-12
2.43397e-12
2.34483e-12
-7.76304e-12
3.19798e-12
2.74761e-12
-9.39769e-12
4.05475e-12
3.14331e-12
-1.10495e-11
5.03049e-12
3.53014e-12
-1.27021e-11
6.1436e-12
3.89944e-12
-1.43105e-11
7.39926e-12
4.2337e-12
-1.57973e-11
8.77999e-12
4.50549e-12
-1.70535e-11
1.02307e-11
4.67827e-12
-1.79546e-11
1.1638e-11
4.70762e-12
-1.84106e-11
1.281e-11
4.53997e-12
-1.84664e-11
1.34875e-11
4.1486e-12
-1.83972e-11
1.34887e-11
-1.8848e-11
1.28855e-11
9.04136e-13
-1.39973e-12
5.86307e-13
1.71865e-12
-4.081e-12
1.72575e-12
2.46871e-12
-6.57987e-12
2.83592e-12
3.17487e-12
-8.99165e-12
3.98558e-12
3.85327e-12
-1.13868e-11
5.23402e-12
4.51532e-12
-1.38107e-11
6.6327e-12
5.16652e-12
-1.62813e-11
8.22467e-12
5.80371e-12
-1.87856e-11
1.00408e-11
6.41041e-12
-2.12747e-11
1.20918e-11
6.94988e-12
-2.36599e-11
1.43538e-11
7.35622e-12
-2.58164e-11
1.67469e-11
7.52456e-12
-2.76108e-11
1.91069e-11
7.30895e-12
-2.8977e-11
2.11633e-11
6.56574e-12
-3.00518e-11
2.25713e-11
5.39088e-12
-3.12018e-11
2.31132e-11
-3.28799e-11
2.31205e-11
1.24009e-12
-1.79877e-12
8.00498e-13
2.35696e-12
-5.24643e-12
2.35572e-12
3.38496e-12
-8.46544e-12
3.86951e-12
4.35232e-12
-1.15823e-11
5.4348e-12
5.28169e-12
-1.4693e-11
7.13172e-12
6.18974e-12
-1.78637e-11
9.03006e-12
7.08549e-12
-2.11291e-11
1.11887e-11
7.96627e-12
-2.44896e-11
1.36512e-11
8.80997e-12
-2.79065e-11
1.64359e-11
9.56192e-12
-3.12975e-11
1.95191e-11
1.01144e-11
-3.4536e-11
2.28096e-11
1.02788e-11
-3.74664e-11
2.61176e-11
9.77056e-12
-3.99539e-11
2.91368e-11
8.2975e-12
-4.19811e-11
3.14916e-11
6.05264e-12
-4.36917e-11
3.29319e-11
-4.54732e-11
3.37545e-11
1.55134e-12
-2.14034e-12
9.9556e-13
2.94791e-12
-6.24536e-12
2.92888e-12
4.23231e-12
-1.00862e-11
4.80809e-12
5.43992e-12
-1.38191e-11
6.7471e-12
6.59981e-12
-1.75654e-11
8.84411e-12
7.73462e-12
-2.14139e-11
1.11848e-11
8.85885e-12
-2.54208e-11
1.38421e-11
9.97437e-12
-2.96082e-11
1.68714e-11
1.10613e-11
-3.39599e-11
2.02999e-11
1.20608e-11
-3.84164e-11
2.41082e-11
1.28462e-11
-4.28659e-11
2.82023e-11
1.31776e-11
-4.71333e-11
3.23808e-11
1.26606e-11
-5.09644e-11
3.63166e-11
1.08254e-11
-5.40119e-11
3.96049e-11
7.7828e-12
-5.58974e-11
4.19313e-11
-5.67099e-11
4.35229e-11
1.83217e-12
-2.41106e-12
1.16762e-12
3.48046e-12
-7.03863e-12
3.4337e-12
4.99444e-12
-1.13785e-11
5.63232e-12
6.41575e-12
-1.56132e-11
7.89452e-12
7.77947e-12
-1.98877e-11
1.0333e-11
9.11459e-12
-2.43136e-11
1.30463e-11
1.04429e-11
-2.89702e-11
1.61182e-11
1.17756e-11
-3.39053e-11
1.96137e-11
1.31055e-11
-3.91336e-11
2.35677e-11
1.43917e-11
-4.46323e-11
2.79654e-11
1.55319e-11
-5.03308e-11
3.2712e-11
1.63156e-11
-5.60864e-11
3.75953e-11
1.6367e-11
-6.16252e-11
4.2259e-11
1.51686e-11
-6.64226e-11
4.624e-11
1.26061e-11
-6.96158e-11
4.91365e-11
-6.95439e-11
5.11882e-11
2.07795e-12
-2.59893e-12
1.31388e-12
3.94565e-12
-7.59104e-12
3.86192e-12
5.65802e-12
-1.22844e-11
6.32845e-12
7.26156e-12
-1.68829e-11
8.85727e-12
8.79633e-12
-2.15514e-11
1.15716e-11
1.02971e-11
-2.64211e-11
1.45785e-11
1.17935e-11
-3.15924e-11
1.79691e-11
1.33082e-11
-3.71376e-11
2.1814e-11
1.48535e-11
-4.31016e-11
2.61521e-11
1.64223e-11
-4.95011e-11
3.097e-11
1.79722e-11
-5.63194e-11
3.61691e-11
1.93986e-11
-6.34937e-11
4.15201e-11
2.05017e-11
-7.08804e-11
4.66185e-11
2.09891e-11
-7.81664e-11
5.08925e-11
2.06859e-11
-8.46296e-11
5.37873e-11
-8.91717e-11
5.5538e-11
2.28541e-12
1.43276e-12
-2.69403e-12
4.3373e-12
4.209e-12
-7.87353e-12
6.21389e-12
6.8892e-12
-1.27562e-11
7.96467e-12
9.62528e-12
-1.75604e-11
9.63293e-12
1.25464e-11
-2.24648e-11
1.12574e-11
1.57641e-11
-2.76148e-11
1.28736e-11
1.93719e-11
-3.31266e-11
1.45137e-11
2.34411e-11
-3.90902e-11
1.62071e-11
2.80098e-11
-4.55707e-11
1.79772e-11
3.30612e-11
-5.26081e-11
1.9838e-11
3.84896e-11
-6.02134e-11
2.17849e-11
4.40486e-11
-6.83599e-11
2.37885e-11
4.92912e-11
-7.69617e-11
2.57924e-11
5.35487e-11
-8.582e-11
2.75953e-11
5.61145e-11
-9.42391e-11
5.67261e-11
-1.03277e-10
1.83254e-13
-4.9135e-13
9.3704e-14
3.47929e-13
-1.43191e-12
2.75784e-13
4.98715e-13
-2.30664e-12
4.53111e-13
6.39201e-13
-3.14794e-12
6.36599e-13
7.71774e-13
-3.97905e-12
8.35509e-13
8.97436e-13
-4.81371e-12
1.05762e-12
1.01545e-12
-5.6554e-12
1.30907e-12
1.12271e-12
-6.4961e-12
1.59356e-12
1.21296e-12
-7.31438e-12
1.91092e-12
1.2762e-12
-8.07381e-12
2.25467e-12
1.29919e-12
-8.72302e-12
2.60893e-12
1.26776e-12
-9.1977e-12
2.94519e-12
1.1717e-12
-9.42147e-12
3.22189e-12
1.01176e-12
-9.29607e-12
3.39392e-12
8.1382e-13
-8.71233e-12
3.44055e-12
-7.13101e-12
3.6162e-12
5.46085e-13
-9.67823e-13
2.78732e-13
1.03681e-12
-2.821e-12
8.20299e-13
1.48613e-12
-4.54591e-12
1.34758e-12
1.90478e-12
-6.20712e-12
1.89289e-12
2.30001e-12
-7.85158e-12
2.48368e-12
2.67506e-12
-9.5082e-12
3.14305e-12
3.02798e-12
-1.11865e-11
3.88925e-12
3.34967e-12
-1.28745e-11
4.73352e-12
3.62106e-12
-1.45354e-11
5.67577e-12
3.81053e-12
-1.6106e-11
6.69789e-12
3.87328e-12
-1.75003e-11
7.75489e-12
3.7564e-12
-1.86235e-11
8.76611e-12
3.41622e-12
-1.94058e-11
9.6142e-12
2.86125e-12
-1.98523e-11
1.01715e-11
2.24346e-12
-2.00678e-11
1.03788e-11
-2.04008e-11
1.02371e-11
8.98139e-13
-1.41496e-12
4.56819e-13
1.70522e-12
-4.12549e-12
1.34424e-12
2.44418e-12
-6.65179e-12
2.20774e-12
3.13282e-12
-9.09033e-12
3.09988e-12
3.78359e-12
-1.15127e-11
4.06534e-12
4.40263e-12
-1.39654e-11
5.14188e-12
4.98787e-12
-1.64687e-11
6.35955e-12
5.52547e-12
-1.90134e-11
7.73741e-12
5.98439e-12
-2.15579e-11
9.27708e-12
6.30965e-12
-2.40257e-11
1.09527e-11
6.41645e-12
-2.63108e-11
1.26984e-11
6.19147e-12
-2.83004e-11
1.43965e-11
5.52085e-12
-2.99306e-11
1.58799e-11
4.3934e-12
-3.12755e-11
1.69747e-11
3.14794e-12
-3.25417e-11
1.76022e-11
-3.40116e-11
1.79174e-11
1.23265e-12
-1.81814e-12
6.23774e-13
2.34022e-12
-5.30287e-12
1.83516e-12
3.35419e-12
-8.55632e-12
3.01275e-12
4.29937e-12
-1.17061e-11
4.22757e-12
5.19378e-12
-1.48492e-11
5.54002e-12
6.04765e-12
-1.80521e-11
7.00137e-12
6.86089e-12
-2.13506e-11
8.65284e-12
7.61832e-12
-2.47464e-11
1.05215e-11
8.2816e-12
-2.82037e-11
1.26127e-11
8.77755e-12
-3.16449e-11
1.48976e-11
8.98359e-12
-3.49506e-11
1.72987e-11
8.71675e-12
-3.79701e-11
1.96782e-11
7.75647e-12
-4.05561e-11
2.18458e-11
5.99002e-12
-4.26345e-11
2.36129e-11
3.85774e-12
-4.42486e-11
2.48811e-11
-4.57061e-11
2.57591e-11
1.54324e-12
-2.16308e-12
7.7588e-13
2.92952e-12
-6.31152e-12
2.28199e-12
4.19821e-12
-1.01923e-11
3.74405e-12
5.38085e-12
-1.39627e-11
5.24914e-12
6.50142e-12
-1.77442e-11
6.87131e-12
7.57554e-12
-2.16254e-11
8.67359e-12
8.60796e-12
-2.56611e-11
1.07071e-11
9.58756e-12
-2.98707e-11
1.30064e-11
1.04783e-11
-3.42345e-11
1.55813e-11
1.12047e-11
-3.8687e-11
1.84027e-11
1.16303e-11
-4.31074e-11
2.13867e-11
1.15324e-11
-4.73048e-11
2.43819e-11
1.06015e-11
-5.09972e-11
2.71795e-11
8.57193e-12
-5.37945e-11
2.95721e-11
5.79166e-12
-5.52939e-11
3.14248e-11
-5.55967e-11
3.28004e-11
1.8242e-12
-2.43633e-12
9.1011e-13
3.46214e-12
-7.11204e-12
2.67573e-12
4.96e-12
-1.14958e-11
4.38657e-12
6.35546e-12
-1.57708e-11
6.14283e-12
7.67844e-12
-2.00819e-11
8.0296e-12
8.95085e-12
-2.45388e-11
1.01193e-11
1.01849e-11
-2.9217e-11
1.24708e-11
1.13792e-11
-3.41576e-11
1.51247e-11
1.25115e-11
-3.93644e-11
1.80941e-11
1.35261e-11
-4.47973e-11
2.13497e-11
1.43144e-11
-5.03594e-11
2.48007e-11
1.46877e-11
-5.58691e-11
2.82779e-11
1.43608e-11
-6.10036e-11
3.15401e-11
1.30247e-11
-6.52004e-11
3.43343e-11
1.07969e-11
-6.76506e-11
3.64826e-11
-6.6893e-11
3.8085e-11
2.07084e-12
-2.62583e-12
1.02427e-12
3.92896e-12
-7.66909e-12
3.00989e-12
5.62595e-12
-1.24087e-11
4.92953e-12
7.20448e-12
-1.70492e-11
6.89321e-12
8.69967e-12
-2.17543e-11
8.99398e-12
1.01396e-11
-2.66522e-11
1.13107e-11
1.15449e-11
-3.18376e-11
1.39073e-11
1.29268e-11
-3.73725e-11
1.68276e-11
1.42839e-11
-4.32851e-11
2.00859e-11
1.55958e-11
-4.95653e-11
2.36503e-11
1.68146e-11
-5.61566e-11
2.74198e-11
1.78544e-11
-6.2939e-11
3.12003e-11
1.85957e-11
-6.97003e-11
3.46981e-11
1.89365e-11
-7.60841e-11
3.75707e-11
1.89279e-11
-8.14759e-11
3.95592e-11
-8.50927e-11
4.08392e-11
2.27974e-12
1.1171e-12
-2.72164e-12
4.3235e-12
3.28086e-12
-7.95356e-12
6.18638e-12
5.36717e-12
-1.28834e-11
7.91435e-12
7.49233e-12
-1.77299e-11
9.54619e-12
9.75407e-12
-2.26701e-11
1.11147e-11
1.22345e-11
-2.78458e-11
1.26472e-11
1.49991e-11
-3.3366e-11
1.4166e-11
1.80921e-11
-3.9308e-11
1.56881e-11
2.15259e-11
-4.57173e-11
1.72254e-11
2.52638e-11
-5.26027e-11
1.87849e-11
2.91943e-11
-5.99301e-11
2.03739e-11
3.30999e-11
-6.76113e-11
2.20221e-11
3.66384e-11
-7.54925e-11
2.38222e-11
3.93774e-11
-8.33422e-11
2.57728e-11
4.09621e-11
-9.06124e-11
4.13322e-11
-9.86627e-11
1.8193e-13
-4.9525e-13
6.40975e-14
3.45032e-13
-1.44332e-12
1.88607e-13
4.93583e-13
-2.32523e-12
3.0975e-13
6.30658e-13
-3.17373e-12
4.34896e-13
7.57962e-13
-4.01243e-12
5.70209e-13
8.7557e-13
-4.85551e-12
7.20755e-13
9.81496e-13
-5.7074e-12
8.90359e-13
1.07102e-12
-6.56173e-12
1.08109e-12
1.13599e-12
-7.39995e-12
1.29228e-12
1.16463e-12
-8.19015e-12
1.51915e-12
1.14297e-12
-8.88685e-12
1.75137e-12
1.05932e-12
-9.43062e-12
1.97224e-12
9.12813e-13
-9.74207e-12
2.16004e-12
7.23906e-13
-9.69933e-12
2.29473e-12
5.39002e-13
-9.14311e-12
2.36736e-12
-7.48647e-12
2.55553e-12
5.42262e-13
-9.75522e-13
1.90675e-13
1.02844e-12
-2.84351e-12
5.61039e-13
1.47127e-12
-4.58242e-12
9.21295e-13
1.88e-12
-6.25744e-12
1.29324e-12
2.25993e-12
-7.91604e-12
1.69516e-12
2.61164e-12
-9.5879e-12
2.14209e-12
2.92968e-12
-1.12839e-11
2.64546e-12
3.20047e-12
-1.29944e-11
3.21153e-12
3.3999e-12
-1.46867e-11
3.83863e-12
3.49213e-12
-1.63037e-11
4.51327e-12
3.43235e-12
-1.77659e-11
5.20607e-12
3.1788e-12
-1.89804e-11
5.86911e-12
2.72141e-12
-1.986e-11
6.43934e-12
2.13294e-12
-2.03522e-11
6.85492e-12
1.61703e-12
-2.04769e-11
7.08279e-12
-2.05316e-11
7.075e-12
8.92225e-13
-1.42618e-12
3.1253e-13
1.69223e-12
-4.15821e-12
9.19491e-13
2.42104e-12
-6.70457e-12
1.50954e-12
3.09416e-12
-9.1624e-12
2.11811e-12
3.72101e-12
-1.16038e-11
2.77497e-12
4.30375e-12
-1.4076e-11
3.50472e-12
4.83507e-12
-1.66001e-11
4.32622e-12
5.29469e-12
-1.91687e-11
5.25017e-12
5.64486e-12
-2.17429e-11
6.27499e-12
5.82632e-12
-2.42499e-11
7.38102e-12
5.75873e-12
-2.65862e-11
8.52463e-12
5.35378e-12
-2.86334e-11
9.63499e-12
4.56041e-12
-3.02988e-11
1.06202e-11
3.47253e-12
-3.1589e-11
1.13909e-11
2.48378e-12
-3.26391e-11
1.18946e-11
-3.37408e-11
1.21697e-11
1.22523e-12
-1.83241e-12
4.26801e-13
2.32386e-12
-5.34441e-12
1.25545e-12
3.32491e-12
-8.62293e-12
2.06023e-12
4.25027e-12
-1.17962e-11
2.889e-12
5.11427e-12
-1.49613e-11
3.78201e-12
5.92222e-12
-1.81851e-11
4.77273e-12
6.66775e-12
-2.15028e-11
5.88702e-12
7.32826e-12
-2.49159e-11
7.14026e-12
7.85848e-12
-2.83876e-11
8.53216e-12
8.18278e-12
-3.1839e-11
1.00398e-11
8.18928e-12
-3.51454e-11
1.1611e-11
7.73435e-12
-3.81424e-11
1.31611e-11
6.68478e-12
-4.06507e-11
1.45834e-11
5.05755e-12
-4.25406e-11
1.57787e-11
3.32839e-12
-4.38205e-11
1.66773e-11
-4.48489e-11
1.72807e-11
1.53498e-12
-2.17983e-12
5.30945e-13
2.91123e-12
-6.36014e-12
1.56134e-12
4.16528e-12
-1.02699e-11
2.56066e-12
5.32543e-12
-1.40665e-11
3.58758e-12
6.41154e-12
-1.78715e-11
4.69146e-12
7.43388e-12
-2.17724e-11
5.91348e-12
8.39052e-12
-2.5822e-11
7.28573e-12
9.2628e-12
-3.00361e-11
8.82791e-12
1.00083e-11
-3.43895e-11
1.05415e-11
1.05514e-11
-3.88078e-11
1.24019e-11
1.07718e-11
-4.3156e-11
1.43506e-11
1.04965e-11
-4.72218e-11
1.62915e-11
9.51874e-12
-5.06925e-11
1.81037e-11
7.7149e-12
-5.31466e-11
1.96747e-11
5.44975e-12
-5.41961e-11
2.09117e-11
-5.40332e-11
2.17908e-11
1.81581e-12
-2.45491e-12
6.22887e-13
3.44341e-12
-7.16584e-12
1.83098e-12
4.92601e-12
-1.15811e-11
3.00049e-12
6.29793e-12
-1.58842e-11
4.19895e-12
7.58486e-12
-2.02188e-11
5.4831e-12
8.80332e-12
-2.46927e-11
6.90029e-12
9.95891e-12
-2.93774e-11
8.48747e-12
1.10431e-11
-3.43072e-11
1.02676e-11
1.2028e-11
-3.94752e-11
1.22434e-11
1.28594e-11
-4.4825e-11
1.43882e-11
1.34474e-11
-5.02364e-11
1.66357e-11
1.36566e-11
-5.54987e-11
1.88739e-11
1.33089e-11
-6.02605e-11
2.09568e-11
1.22404e-11
-6.39546e-11
2.27413e-11
1.05788e-11
-6.5844e-11
2.41152e-11
-6.46556e-11
2.50911e-11
2.06295e-12
-2.64556e-12
7.01104e-13
3.91117e-12
-7.72613e-12
2.05989e-12
5.59329e-12
-1.24989e-11
3.37231e-12
7.14869e-12
-1.7168e-11
4.71252e-12
8.60842e-12
-2.18959e-11
6.14266e-12
9.99543e-12
-2.68077e-11
7.71431e-12
1.13241e-11
-3.19923e-11
9.46748e-12
1.25992e-11
-3.75023e-11
1.14268e-11
1.38142e-11
-4.33509e-11
1.35948e-11
1.49507e-11
-4.95061e-11
1.59411e-11
1.59782e-11
-5.58815e-11
1.83896e-11
1.6861e-11
-6.23223e-11
2.08067e-11
1.75793e-11
-6.85886e-11
2.30069e-11
1.81689e-11
-7.4338e-11
2.47894e-11
1.86987e-11
-7.90725e-11
2.60034e-11
-8.22396e-11
2.6739e-11
2.27289e-12
7.64723e-13
-2.74184e-12
4.30778e-12
2.24557e-12
-8.01191e-12
6.15701e-12
3.67212e-12
-1.29754e-11
7.86346e-12
5.12285e-12
-1.78504e-11
9.46218e-12
6.66304e-12
-2.28124e-11
1.09812e-11
8.34642e-12
-2.79992e-11
1.24424e-11
1.0214e-11
-3.3513e-11
1.38621e-11
1.22903e-11
-3.94203e-11
1.52528e-11
1.45759e-11
-4.57492e-11
1.66274e-11
1.70364e-11
-5.24842e-11
1.80072e-11
1.95858e-11
-5.95592e-11
1.94404e-11
2.20711e-11
-6.68516e-11
2.10391e-11
2.42712e-11
-7.41851e-11