/*--------------------------------*- C++ -*----------------------------------*\
| =========                 |                                                 |
| \\      /  F ield         | OpenFOAM: The Open Source CFD Toolbox           |
|  \\    /   O peration     | Version:  v1912                                 |
|   \\  /    A nd           | Website:  www.openfoam.com                      |
|    \\/     M anipulation  |                                                 |
\*---------------------------------------------------------------------------*/
FoamFile
{
    version     2.0;
    format      ascii;
    class       volScalarField;
    location    "0.56/fluid";
    object      T;
}
// * * * * * * * * * * * * * * * * * * * * * * * * * * * * * * * * * * * * * //

dimensions      [0 0 0 1 0 0 0];


internalField   nonuniform List<scalar> 
14592
(
273.239
273.729
274.243
274.792
275.382
276.024
276.729
277.506
278.368
279.329
280.403
281.609
282.97
284.521
286.327
288.55
273.238
273.724
274.235
274.779
275.366
276.004
276.704
277.476
278.333
279.288
280.356
281.556
282.913
284.461
286.262
288.448
273.235
273.716
274.221
274.759
275.339
275.97
276.661
277.424
278.271
279.214
280.271
281.46
282.807
284.351
286.154
288.353
273.232
273.706
274.204
274.734
275.305
275.925
276.605
277.355
278.186
279.112
280.15
281.321
282.653
284.188
285.998
288.232
273.228
273.694
274.184
274.704
275.264
275.871
276.536
277.268
278.08
278.983
279.996
281.139
282.444
283.961
285.772
288.053
273.224
273.681
274.16
274.669
275.216
275.809
276.456
277.168
277.954
278.829
279.807
280.911
282.175
283.653
285.445
287.767
273.219
273.666
274.135
274.632
275.164
275.741
276.368
277.056
277.813
278.652
279.587
280.639
281.84
283.245
284.966
287.273
273.214
273.651
274.108
274.592
275.11
275.668
276.274
276.935
277.66
278.459
279.343
280.329
281.443
282.73
284.285
286.362
273.245
273.746
274.274
274.838
275.446
276.11
276.84
277.65
278.552
279.563
280.7
281.984
283.443
285.118
287.073
289.433
273.243
273.741
274.265
274.825
275.429
276.089
276.814
277.619
278.515
279.52
280.65
281.929
283.385
285.058
287.011
289.352
273.241
273.733
274.251
274.804
275.402
276.053
276.77
277.565
278.451
279.443
280.562
281.829
283.276
284.947
286.907
289.269
273.238
273.723
274.234
274.778
275.366
276.007
276.712
277.492
278.362
279.337
280.436
281.685
283.117
284.781
286.754
289.162
273.234
273.711
274.212
274.747
275.323
275.951
276.64
277.402
278.251
279.202
280.274
281.494
282.9
284.548
286.53
288.998
273.229
273.697
274.188
274.711
275.274
275.886
276.557
277.297
278.12
279.039
280.076
281.255
282.617
284.227
286.197
288.727
273.224
273.682
274.162
274.672
275.22
275.814
276.464
277.179
277.971
278.853
279.843
280.966
282.262
283.796
285.696
288.232
273.219
273.666
274.134
274.63
275.163
275.738
276.365
277.053
277.81
278.648
279.583
280.635
281.835
283.241
284.962
287.27
273.25
273.763
274.303
274.881
275.506
276.189
276.943
277.782
278.719
279.772
280.96
282.305
283.832
285.576
287.578
289.891
273.249
273.758
274.294
274.867
275.488
276.167
276.916
277.749
278.681
279.728
280.91
282.249
283.773
285.516
287.518
289.822
273.246
273.749
274.28
274.846
275.46
276.131
276.871
277.694
278.614
279.649
280.818
282.146
283.662
285.404
287.417
289.746
273.243
273.739
274.261
274.819
275.423
276.083
276.81
277.618
278.522
279.538
280.688
281.997
283.499
285.237
287.265
289.643
273.239
273.726
274.24
274.787
275.379
276.024
276.736
277.525
278.407
279.398
280.52
281.8
283.276
284.999
287.041
289.485
273.234
273.712
274.215
274.75
275.328
275.957
276.649
277.416
278.27
279.229
280.313
281.551
282.982
284.669
286.704
289.218
273.229
273.696
274.187
274.709
275.272
275.883
276.553
277.293
278.115
279.034
280.07
281.249
282.611
284.222
286.192
288.724
273.223
273.68
274.158
274.666
275.212
275.804
276.45
277.161
277.946
278.82
279.797
280.901
282.165
283.642
285.436
287.761
273.255
273.778
274.329
274.919
275.558
276.259
277.034
277.897
278.863
279.951
281.178
282.565
284.135
285.909
287.908
290.141
273.254
273.772
274.32
274.905
275.54
276.236
277.006
277.864
278.824
279.905
281.126
282.508
284.075
285.849
287.85
290.076
273.251
273.764
274.305
274.884
275.511
276.199
276.959
277.806
278.755
279.824
281.033
282.404
283.963
285.737
287.75
290.003
273.247
273.753
274.286
274.856
275.473
276.15
276.897
277.729
278.661
279.711
280.899
282.251
283.796
285.568
287.599
289.903
273.243
273.74
274.264
274.823
275.428
276.09
276.82
277.632
278.542
279.566
280.726
282.049
283.568
285.327
287.374
289.746
273.238
273.726
274.238
274.785
275.375
276.02
276.731
277.519
278.4
279.391
280.512
281.792
283.268
284.991
287.034
289.481
273.233
273.709
274.21
274.743
275.318
275.944
276.632
277.392
278.24
279.189
280.261
281.481
282.886
284.535
286.518
288.991
273.227
273.692
274.18
274.699
275.256
275.862
276.525
277.256
278.065
278.967
279.978
281.121
282.426
283.943
285.756
288.041
273.259
273.79
274.351
274.951
275.603
276.317
277.109
277.992
278.981
280.095
281.351
282.767
284.36
286.144
288.123
290.286
273.258
273.785
274.341
274.937
275.584
276.294
277.081
277.958
278.942
280.049
281.298
282.709
284.3
286.084
288.066
290.223
273.255
273.776
274.326
274.915
275.555
276.256
277.033
277.899
278.871
279.966
281.203
282.603
284.186
285.972
287.966
290.152
273.251
273.765
274.307
274.887
275.516
276.206
276.969
277.82
278.774
279.85
281.067
282.448
284.018
285.801
287.815
290.052
273.247
273.752
274.284
274.853
275.469
276.144
276.89
277.721
278.652
279.701
280.889
282.241
283.786
285.558
287.59
289.896
273.242
273.737
274.258
274.814
275.416
276.073
276.799
277.605
278.507
279.522
280.671
281.979
283.481
285.219
287.249
289.632
273.237
273.72
274.229
274.771
275.356
275.995
276.697
277.475
278.343
279.316
280.414
281.661
283.093
284.757
286.732
289.147
273.231
273.703
274.198
274.726
275.294
275.911
276.588
277.335
278.163
279.087
280.124
281.293
282.624
284.16
285.971
288.212
273.262
273.8
274.368
274.976
275.637
276.363
277.167
278.064
279.071
280.204
281.479
282.912
284.518
286.302
288.26
290.373
273.261
273.794
274.358
274.962
275.619
276.339
277.138
278.03
279.031
280.157
281.426
282.854
284.457
286.242
288.204
290.311
273.258
273.786
274.343
274.94
275.588
276.301
277.09
277.971
278.959
280.073
281.329
282.747
284.343
286.129
288.104
290.24
273.254
273.775
274.323
274.911
275.549
276.249
277.025
277.89
278.861
279.955
281.191
282.59
284.173
285.958
287.953
290.141
273.25
273.761
274.3
274.876
275.501
276.187
276.945
277.789
278.737
279.804
281.011
282.381
283.939
285.713
287.727
289.985
273.245
273.746
274.273
274.837
275.447
276.114
276.852
277.671
278.589
279.622
280.789
282.115
283.63
285.372
287.386
289.723
273.239
273.729
274.244
274.793
275.387
276.034
276.748
277.539
278.421
279.411
280.527
281.793
283.239
284.909
286.87
289.241
273.234
273.711
274.213
274.747
275.323
275.949
276.636
277.395
278.238
279.179
280.232
281.419
282.766
284.309
286.113
288.318
273.265
273.807
274.38
274.994
275.661
276.394
277.206
278.114
279.131
280.276
281.563
283.007
284.618
286.399
288.341
290.423
273.263
273.801
274.37
274.979
275.642
276.37
277.178
278.079
279.091
280.229
281.509
282.948
284.557
286.339
288.285
290.361
273.26
273.792
274.354
274.957
275.611
276.331
277.128
278.019
279.018
280.144
281.412
282.84
284.442
286.226
288.186
290.291
273.256
273.781
274.334
274.927
275.571
276.279
277.063
277.937
278.919
280.024
281.272
282.682
284.271
286.055
288.035
290.192
273.252
273.767
274.311
274.892
275.523
276.216
276.982
277.836
278.793
279.872
281.091
282.471
284.036
285.809
287.809
290.036
273.247
273.752
274.284
274.852
275.468
276.142
276.887
277.716
278.644
279.688
280.867
282.203
283.726
285.467
287.468
289.775
273.241
273.735
274.254
274.808
275.407
276.061
276.782
277.582
278.474
279.475
280.602
281.878
283.332
285.003
286.953
289.296
273.236
273.717
274.223
274.761
275.342
275.975
276.669
277.437
278.289
279.24
280.304
281.502
282.856
284.402
286.199
288.381
273.266
273.81
274.385
275.002
275.673
276.409
277.226
278.138
279.162
280.312
281.604
283.053
284.666
286.445
288.38
290.446
273.264
273.804
274.375
274.988
275.654
276.386
277.197
278.104
279.121
280.264
281.551
282.994
284.605
286.386
288.324
290.385
273.261
273.796
274.36
274.965
275.623
276.346
277.148
278.043
279.048
280.179
281.453
282.886
284.49
286.273
288.224
290.314
273.258
273.784
274.34
274.936
275.583
276.294
277.082
277.961
278.948
280.059
281.313
282.727
284.319
286.101
288.073
290.215
273.253
273.771
274.316
274.901
275.535
276.23
277
277.859
278.822
279.906
281.13
282.515
284.083
285.855
287.847
290.06
273.248
273.755
274.289
274.86
275.479
276.157
276.905
277.739
278.672
279.721
280.905
282.247
283.772
285.512
287.507
289.798
273.242
273.738
274.259
274.816
275.418
276.075
276.8
277.604
278.501
279.507
280.64
281.921
283.377
285.048
286.993
289.321
273.236
273.72
274.228
274.769
275.352
275.988
276.686
277.458
278.314
279.27
280.34
281.542
282.9
284.447
286.239
288.41
273.207
273.63
274.07
274.532
275.018
275.533
276.077
276.652
277.256
277.885
278.532
279.186
279.829
280.441
280.995
281.462
273.206
273.626
274.064
274.523
275.007
275.519
276.06
276.632
277.233
277.858
278.502
279.151
279.791
280.399
280.951
281.416
273.204
273.62
274.054
274.508
274.988
275.494
276.03
276.596
277.19
277.809
278.445
279.087
279.72
280.322
280.867
281.328
273.202
273.612
274.041
274.489
274.962
275.462
275.99
276.547
277.132
277.741
278.366
278.997
279.619
280.21
280.747
281.201
273.199
273.603
274.025
274.466
274.931
275.422
275.94
276.487
277.06
277.655
278.267
278.884
279.491
280.068
280.592
281.036
273.195
273.593
274.007
274.44
274.896
275.376
275.883
276.417
276.976
277.556
278.151
278.75
279.339
279.899
280.407
280.837
273.191
273.581
273.987
274.411
274.857
275.326
275.821
276.34
276.883
277.446
278.021
278.6
279.168
279.707
280.195
280.61
273.187
273.569
273.966
274.381
274.816
275.274
275.755
276.259
276.785
277.328
277.883
278.439
278.983
279.499
279.965
280.361
273.208
273.632
274.074
274.538
275.028
275.547
276.097
276.679
277.292
277.933
278.595
279.267
279.931
280.568
281.147
281.639
273.207
273.628
274.067
274.529
275.016
275.532
276.079
276.658
277.267
277.905
278.563
279.23
279.891
280.524
281.101
281.591
273.205
273.622
274.057
274.514
274.996
275.507
276.048
276.621
277.224
277.854
278.504
279.164
279.818
280.444
281.015
281.501
273.202
273.614
274.044
274.494
274.97
275.473
276.007
276.571
277.164
277.784
278.423
279.072
279.714
280.329
280.891
281.369
273.199
273.605
274.028
274.471
274.939
275.433
275.956
276.509
277.09
277.697
278.322
278.955
279.582
280.183
280.732
281.199
273.196
273.594
274.01
274.445
274.903
275.387
275.899
276.438
277.005
277.595
278.203
278.818
279.426
280.008
280.54
280.993
273.192
273.583
273.99
274.416
274.864
275.336
275.835
276.36
276.911
277.483
278.07
278.664
279.249
279.809
280.32
280.755
273.188
273.571
273.969
274.385
274.823
275.283
275.768
276.278
276.81
277.362
277.928
278.497
279.058
279.592
280.079
280.493
273.21
273.638
274.085
274.554
275.051
275.579
276.14
276.736
277.367
278.032
278.722
279.43
280.139
280.825
281.458
282.001
273.209
273.634
274.078
274.544
275.038
275.563
276.12
276.713
277.341
278.001
278.688
279.391
280.096
280.779
281.41
281.951
273.207
273.628
274.067
274.529
275.017
275.536
276.088
276.674
277.295
277.948
278.627
279.322
280.019
280.695
281.319
281.856
273.204
273.62
274.053
274.509
274.99
275.502
276.045
276.623
277.233
277.875
278.542
279.225
279.91
280.574
281.189
281.718
273.201
273.61
274.037
274.485
274.958
275.46
275.994
276.559
277.157
277.784
278.436
279.103
279.771
280.42
281.021
281.538
273.197
273.599
274.018
274.458
274.922
275.413
275.934
276.486
277.069
277.679
278.312
278.959
279.606
280.234
280.815
281.316
273.194
273.588
273.998
274.428
274.882
275.361
275.869
276.406
276.971
277.562
278.173
278.796
279.418
280.02
280.577
281.057
273.19
273.575
273.977
274.397
274.84
275.307
275.8
276.32
276.867
277.436
278.023
278.62
279.214
279.786
280.314
280.768
273.213
273.648
274.102
274.58
275.087
275.627
276.204
276.821
277.479
278.177
278.911
279.673
280.448
281.212
281.932
282.558
273.212
273.643
274.094
274.569
275.073
275.61
276.184
276.797
277.451
278.145
278.875
279.632
280.403
281.164
281.881
282.506
273.21
273.637
274.083
274.553
275.051
275.583
276.15
276.757
277.403
278.089
278.81
279.559
280.321
281.074
281.785
282.406
273.207
273.629
274.069
274.532
275.023
275.547
276.106
276.702
277.338
278.012
278.721
279.456
280.205
280.946
281.647
282.26
273.204
273.619
274.052
274.508
274.99
275.504
276.052
276.636
277.258
277.917
278.609
279.326
280.057
280.78
281.465
282.066
273.2
273.608
274.033
274.48
274.952
275.455
275.99
276.56
277.166
277.806
278.477
279.172
279.879
280.578
281.24
281.822
273.196
273.596
274.012
274.449
274.911
275.401
275.922
276.476
277.063
277.681
278.328
278.996
279.674
280.343
280.975
281.53
273.192
273.583
273.99
274.417
274.868
275.345
275.85
276.386
276.953
277.548
278.168
278.805
279.449
280.081
280.676
281.198
273.217
273.66
274.124
274.613
275.133
275.69
276.288
276.932
277.623
278.365
279.155
279.987
280.851
281.724
282.569
283.326
273.216
273.656
274.116
274.602
275.119
275.673
276.267
276.906
277.594
278.331
279.116
279.944
280.803
281.673
282.516
283.271
273.214
273.649
274.104
274.585
275.097
275.644
276.232
276.864
277.543
278.271
279.047
279.866
280.716
281.578
282.415
283.167
273.211
273.641
274.09
274.564
275.068
275.606
276.185
276.807
277.475
278.19
278.952
279.756
280.593
281.442
282.268
283.012
273.208
273.631
274.072
274.538
275.033
275.562
276.129
276.737
277.39
278.089
278.832
279.617
280.433
281.262
282.07
282.802
273.204
273.619
274.053
274.509
274.994
275.51
276.064
276.657
277.292
277.97
278.691
279.449
280.238
281.039
281.821
282.53
273.2
273.607
274.031
274.478
274.951
275.454
275.993
276.568
277.183
277.837
278.53
279.258
280.011
280.775
281.519
282.194
273.195
273.594
274.008
274.444
274.905
275.395
275.917
276.473
277.066
277.694
278.356
279.047
279.759
280.476
281.17
281.797
273.222
273.675
274.15
274.653
275.189
275.765
276.387
277.062
277.793
278.585
279.441
280.359
281.334
282.349
283.367
284.319
273.221
273.671
274.142
274.641
275.174
275.747
276.365
277.035
277.762
278.549
279.4
280.313
281.284
282.295
283.311
284.262
273.218
273.664
274.13
274.624
275.151
275.717
276.328
276.99
277.708
278.487
279.327
280.23
281.191
282.195
283.206
284.155
273.216
273.655
274.115
274.601
275.12
275.678
276.279
276.93
277.636
278.4
279.226
280.113
281.059
282.049
283.051
283.994
273.212
273.645
274.097
274.575
275.084
275.631
276.22
276.857
277.546
278.292
279.098
279.963
280.886
281.854
282.838
283.771
273.208
273.633
274.076
274.545
275.043
275.577
276.152
276.772
277.442
278.165
278.944
279.781
280.672
281.608
282.561
283.471
273.204
273.62
274.054
274.512
274.998
275.518
276.076
276.677
277.325
278.022
278.77
279.57
280.42
281.309
282.214
283.079
273.2
273.606
274.03
274.477
274.95
275.456
275.997
276.577
277.2
277.867
278.579
279.337
280.135
280.964
281.799
282.592
273.227
273.692
274.18
274.697
275.251
275.848
276.497
277.205
277.98
278.828
279.756
280.771
281.873
283.059
284.306
285.551
273.226
273.688
274.172
274.685
275.235
275.829
276.474
277.178
277.947
278.79
279.713
280.722
281.82
283.002
284.248
285.49
273.224
273.68
274.159
274.667
275.211
275.798
276.435
277.13
277.891
278.724
279.636
280.634
281.722
282.898
284.14
285.382
273.221
273.671
274.143
274.644
275.179
275.757
276.384
277.067
277.814
278.632
279.528
280.51
281.582
282.744
283.979
285.223
273.217
273.66
274.125
274.616
275.141
275.708
276.321
276.99
277.719
278.517
279.391
280.348
281.395
282.536
283.756
284.996
273.213
273.648
274.103
274.584
275.098
275.651
276.249
276.899
277.607
278.381
279.226
280.15
281.162
282.265
283.453
284.674
273.209
273.635
274.08
274.55
275.051
275.589
276.17
276.799
277.483
278.226
279.036
279.918
280.881
281.928
283.056
284.223
273.204
273.62
274.055
274.513
275.001
275.523
276.085
276.692
277.348
278.058
278.827
279.659
280.558
281.527
282.558
283.614
273.233
273.71
274.212
274.744
275.316
275.936
276.613
277.356
278.175
279.08
280.083
281.196
282.433
283.807
285.334
287.007
273.232
273.705
274.203
274.732
275.3
275.916
276.589
277.327
278.141
279.041
280.038
281.146
282.377
283.749
285.272
286.934
273.229
273.698
274.19
274.713
275.275
275.883
276.548
277.277
278.081
278.97
279.957
281.053
282.275
283.641
285.163
286.83
273.226
273.689
274.173
274.689
275.242
275.841
276.494
277.211
278
278.873
279.842
280.921
282.127
283.481
285.002
286.684
273.223
273.677
274.154
274.66
275.202
275.789
276.428
277.129
277.9
278.751
279.696
280.749
281.929
283.262
284.774
286.471
273.218
273.664
274.131
274.627
275.157
275.73
276.353
277.033
277.781
278.606
279.519
280.535
281.676
282.97
284.454
286.151
273.214
273.65
274.107
274.59
275.107
275.664
276.269
276.927
277.648
278.44
279.313
280.283
281.367
282.595
284.01
285.655
273.209
273.635
274.081
274.552
275.055
275.595
276.179
276.813
277.504
278.259
279.086
279.997
281.006
282.135
283.417
284.892
273.209
273.635
274.08
274.551
275.054
275.594
276.177
276.811
277.501
278.256
279.083
279.994
281.002
282.131
283.414
284.889
273.204
273.62
274.054
274.512
274.999
275.52
276.082
276.688
277.343
278.053
278.821
279.653
280.552
281.521
282.552
283.608
273.199
273.605
274.029
274.474
274.947
275.452
275.992
276.571
277.193
277.86
278.572
279.329
280.127
280.955
281.792
282.584
273.195
273.592
274.006
274.441
274.901
275.39
275.911
276.467
277.058
277.685
278.347
279.038
279.75
280.467
281.161
281.789
273.192
273.582
273.988
274.414
274.863
275.339
275.844
276.379
276.945
277.539
278.158
278.795
279.439
280.071
280.666
281.188
273.189
273.574
273.974
274.394
274.835
275.301
275.793
276.312
276.858
277.426
278.013
278.609
279.202
279.775
280.303
280.759
273.187
273.569
273.966
274.382
274.818
275.277
275.761
276.269
276.801
277.352
277.917
278.486
279.046
279.581
280.068
280.483
273.187
273.568
273.964
274.377
274.811
275.268
275.747
276.25
276.775
277.317
277.871
278.427
278.971
279.487
279.954
280.351
273.214
273.649
274.105
274.588
275.104
275.661
276.264
276.922
277.642
278.433
279.306
280.275
281.359
282.587
284.002
285.649
273.208
273.633
274.077
274.547
275.047
275.584
276.164
276.792
277.474
278.217
279.026
279.908
280.87
281.918
283.046
284.214
273.203
273.618
274.051
274.508
274.993
275.512
276.069
276.669
277.315
278.011
278.758
279.558
280.407
281.297
282.202
283.068
273.199
273.605
274.028
274.473
274.945
275.448
275.984
276.558
277.172
277.825
278.517
279.244
279.997
280.761
281.505
282.182
273.196
273.594
274.009
274.445
274.905
275.394
275.913
276.466
277.051
277.668
278.314
278.982
279.659
280.328
280.961
281.517
273.193
273.586
273.995
274.424
274.876
275.354
275.86
276.395
276.959
277.548
278.158
278.781
279.403
280.005
280.563
281.044
273.191
273.581
273.986
274.411
274.857
275.329
275.826
276.349
276.898
277.469
278.055
278.648
279.234
279.794
280.305
280.742
273.191
273.579
273.984
274.406
274.851
275.318
275.811
276.329
276.87
277.432
278.006
278.584
279.152
279.691
280.181
280.596
273.218
273.663
274.129
274.623
275.152
275.723
276.344
277.024
277.77
278.593
279.506
280.522
281.662
282.956
284.441
286.14
273.213
273.646
274.1
274.58
275.092
275.643
276.24
276.888
277.595
278.366
279.21
280.134
281.145
282.249
283.438
284.66
273.208
273.631
274.073
274.539
275.036
275.568
276.141
276.759
277.427
278.149
278.928
279.763
280.654
281.59
282.544
283.454
273.203
273.617
274.049
274.503
274.986
275.501
276.052
276.643
277.277
277.953
278.673
279.431
280.219
281.02
281.802
282.513
273.199
273.605
274.029
274.474
274.945
275.445
275.978
276.546
277.15
277.788
278.458
279.152
279.859
280.558
281.221
281.805
273.197
273.597
274.014
274.452
274.914
275.403
275.922
276.472
277.052
277.661
278.293
278.939
279.586
280.214
280.796
281.299
273.195
273.592
274.005
274.438
274.895
275.377
275.886
276.424
276.989
277.577
278.183
278.798
279.405
279.988
280.521
280.976
273.194
273.59
274.002
274.434
274.887
275.366
275.871
276.402
276.959
277.538
278.131
278.729
279.318
279.879
280.388
280.82
273.222
273.675
274.15
274.653
275.194
275.779
276.416
277.114
277.883
278.732
279.676
280.727
281.907
283.24
284.754
286.454
273.216
273.658
274.12
274.609
275.132
275.696
276.307
276.973
277.7
278.496
279.368
280.325
281.372
282.512
283.733
284.975
273.211
273.642
274.092
274.568
275.074
275.618
276.205
276.839
277.526
278.27
279.074
279.938
280.861
281.829
282.814
283.748
273.206
273.627
274.067
274.53
275.023
275.549
276.113
276.719
277.37
278.066
278.808
279.591
280.407
281.236
282.045
282.779
273.203
273.616
274.046
274.5
274.98
275.491
276.036
276.618
277.237
277.894
278.584
279.3
280.031
280.754
281.44
282.043
273.2
273.607
274.031
274.477
274.948
275.447
275.977
276.54
277.136
277.761
278.411
279.077
279.745
280.394
280.996
281.515
273.198
273.602
274.022
274.463
274.928
275.42
275.94
276.49
277.069
277.673
278.297
278.929
279.556
280.157
280.707
281.177
273.197
273.6
274.019
274.458
274.92
275.408
275.924
276.468
277.038
277.632
278.242
278.858
279.464
280.042
280.568
281.014
273.225
273.685
274.167
274.679
275.229
275.825
276.475
277.189
277.976
278.846
279.813
280.89
282.095
283.449
284.972
286.657
273.219
273.667
274.137
274.634
275.166
275.74
276.364
277.044
277.788
278.603
279.497
280.477
281.548
282.71
283.947
285.193
273.214
273.651
274.108
274.591
275.107
275.661
276.259
276.906
277.609
278.37
279.194
280.08
281.024
282.014
283.017
283.963
273.209
273.636
274.083
274.553
275.054
275.589
276.164
276.782
277.447
278.16
278.919
279.722
280.558
281.407
282.234
282.981
273.206
273.624
274.061
274.522
275.01
275.529
276.085
276.678
277.31
277.982
278.688
279.422
280.171
280.912
281.614
282.23
273.203
273.615
274.046
274.498
274.976
275.484
276.024
276.598
277.206
277.845
278.51
279.192
279.876
280.541
281.157
281.689
273.201
273.61
274.036
274.484
274.956
275.456
275.986
276.546
277.137
277.754
278.391
279.038
279.68
280.296
280.86
281.342
273.2
273.608
274.033
274.479
274.948
275.444
275.969
276.523
277.105
277.711
278.334
278.965
279.586
280.178
280.716
281.174
273.228
273.693
274.181
274.7
275.257
275.861
276.522
277.247
278.047
278.933
279.916
281.01
282.231
283.596
285.119
286.788
273.222
273.675
274.15
274.653
275.193
275.775
276.408
277.099
277.855
278.684
279.594
280.59
281.677
282.852
284.095
285.338
273.217
273.658
274.121
274.61
275.132
275.693
276.3
276.958
277.672
278.447
279.285
280.186
281.146
282.149
283.161
284.112
273.212
273.644
274.095
274.571
275.078
275.62
276.204
276.831
277.507
278.232
279.005
279.821
280.671
281.533
282.372
283.126
273.208
273.631
274.073
274.539
275.033
275.559
276.122
276.725
277.367
278.05
278.768
279.515
280.276
281.031
281.743
282.368
273.205
273.622
274.057
274.515
274.999
275.513
276.061
276.643
277.26
277.909
278.586
279.279
279.976
280.652
281.279
281.82
273.203
273.616
274.048
274.5
274.978
275.484
276.021
276.59
277.189
277.816
278.464
279.123
279.776
280.403
280.977
281.466
273.202
273.615
274.044
274.495
274.97
275.472
276.004
276.566
277.157
277.772
278.406
279.047
279.679
280.282
280.83
281.295
273.23
273.698
274.19
274.714
275.276
275.886
276.553
277.286
278.095
278.991
279.984
281.089
282.319
283.688
285.209
286.867
273.224
273.68
274.159
274.667
275.211
275.799
276.438
277.136
277.901
278.739
279.659
280.665
281.761
282.943
284.188
285.428
273.218
273.663
274.129
274.623
275.149
275.716
276.329
276.993
277.715
278.498
279.346
280.256
281.225
282.236
283.254
284.206
273.213
273.648
274.103
274.583
275.094
275.642
276.231
276.865
277.548
278.28
279.062
279.888
280.746
281.617
282.461
283.22
273.209
273.636
274.081
274.551
275.049
275.58
276.148
276.757
277.406
278.096
278.822
279.577
280.347
281.109
281.829
282.459
273.206
273.627
274.065
274.526
275.014
275.533
276.086
276.674
277.297
277.953
278.637
279.339
280.043
280.727
281.361
281.906
273.204
273.621
274.055
274.511
274.993
275.504
276.046
276.62
277.225
277.859
278.514
279.18
279.841
280.475
281.055
281.55
273.204
273.619
274.052
274.506
274.985
275.492
276.028
276.595
277.192
277.814
278.455
279.103
279.742
280.352
280.906
281.377
273.23
273.701
274.195
274.721
275.286
275.899
276.569
277.306
278.119
279.02
280.018
281.128
282.362
283.733
285.252
286.904
273.225
273.683
274.164
274.673
275.22
275.811
276.453
277.155
277.924
278.767
279.691
280.702
281.802
282.987
284.233
285.471
273.219
273.666
274.134
274.629
275.158
275.727
276.343
277.011
277.737
278.524
279.376
280.292
281.265
282.279
283.299
284.252
273.214
273.651
274.107
274.589
275.103
275.653
276.244
276.882
277.568
278.305
279.091
279.921
280.784
281.658
282.505
283.266
273.21
273.638
274.085
274.557
275.057
275.591
276.162
276.773
277.425
278.119
278.849
279.609
280.383
281.148
281.871
282.503
273.207
273.629
274.069
274.532
275.022
275.543
276.099
276.689
277.316
277.976
278.663
279.369
280.077
280.764
281.401
281.95
273.205
273.623
274.059
274.517
275.001
275.514
276.058
276.635
277.244
277.881
278.539
279.209
279.873
280.511
281.094
281.591
273.204
273.621
274.056
274.512
274.993
275.501
276.04
276.61
277.21
277.836
278.48
279.131
279.774
280.388
280.945
281.418
273.183
273.557
273.945
274.351
274.775
275.22
275.687
276.176
276.684
277.207
277.74
278.272
278.792
279.282
279.725
280.1
273.18
273.545
273.925
274.321
274.735
275.168
275.622
276.095
276.585
277.089
277.599
278.108
278.602
279.067
279.486
279.84
273.176
273.534
273.906
274.293
274.697
275.119
275.56
276.018
276.492
276.977
277.466
277.952
278.422
278.862
279.258
279.591
273.173
273.525
273.889
274.268
274.664
275.076
275.505
275.95
276.409
276.877
277.347
277.811
278.259
278.677
279.051
279.366
273.17
273.516
273.875
274.248
274.636
275.04
275.459
275.893
276.339
276.792
277.246
277.692
278.121
278.52
278.876
279.175
273.168
273.51
273.865
274.233
274.615
275.013
275.425
275.85
276.285
276.727
277.168
277.6
278.014
278.398
278.739
279.026
273.167
273.507
273.858
274.223
274.602
274.995
275.402
275.821
276.25
276.683
277.115
277.538
277.941
278.315
278.646
278.924
273.166
273.505
273.856
274.22
274.597
274.988
275.392
275.808
276.233
276.663
277.09
277.508
277.906
278.274
278.6
278.873
273.184
273.559
273.948
274.354
274.781
275.229
275.7
276.193
276.708
277.239
277.782
278.326
278.86
279.367
279.827
280.218
273.18
273.547
273.927
274.324
274.74
275.176
275.633
276.111
276.607
277.118
277.637
278.156
278.662
279.141
279.575
279.942
273.176
273.535
273.908
274.296
274.702
275.127
275.571
276.033
276.512
277.003
277.5
277.995
278.475
278.927
279.335
279.679
273.173
273.526
273.891
274.271
274.668
275.083
275.515
275.964
276.427
276.9
277.377
277.849
278.306
278.734
279.118
279.442
273.171
273.517
273.877
274.251
274.64
275.046
275.469
275.906
276.356
276.814
277.273
277.727
278.163
278.57
278.934
279.24
273.169
273.511
273.866
274.235
274.62
275.019
275.434
275.862
276.302
276.747
277.193
277.632
278.052
278.442
278.79
279.083
273.167
273.508
273.86
274.226
274.607
275.002
275.412
275.834
276.266
276.704
277.14
277.568
277.977
278.357
278.694
278.977
273.167
273.507
273.858
274.223
274.602
274.995
275.402
275.821
276.25
276.683
277.115
277.538
277.941
278.315
278.646
278.924
273.185
273.563
273.955
274.366
274.797
275.251
275.73
276.233
276.76
277.307
277.869
278.438
279
279.541
280.036
280.462
273.181
273.551
273.934
274.335
274.755
275.197
275.661
276.148
276.655
277.18
277.717
278.257
278.788
279.295
279.758
280.154
273.178
273.539
273.915
274.306
274.716
275.146
275.597
276.068
276.556
277.06
277.572
278.085
278.586
279.061
279.493
279.86
273.174
273.529
273.897
274.281
274.682
275.101
275.539
275.996
276.468
276.952
277.442
277.93
278.404
278.85
279.254
279.595
273.172
273.521
273.883
274.26
274.653
275.064
275.492
275.936
276.394
276.862
277.333
277.799
278.25
278.672
279.052
279.372
273.17
273.515
273.872
274.244
274.632
275.036
275.456
275.891
276.338
276.792
277.248
277.698
278.131
278.534
278.895
279.199
273.169
273.511
273.866
274.235
274.619
275.019
275.433
275.862
276.301
276.747
277.193
277.631
278.051
278.442
278.79
279.083
273.168
273.51
273.865
274.232
274.615
275.012
275.424
275.849
276.285
276.726
277.167
277.599
278.013
278.397
278.738
279.025
273.188
273.57
273.968
274.385
274.823
275.287
275.777
276.295
276.84
277.411
278.002
278.607
279.213
279.805
280.358
280.839
273.184
273.558
273.946
274.353
274.78
275.231
275.706
276.205
276.73
277.275
277.837
278.409
278.977
279.527
280.037
280.477
273.18
273.546
273.926
274.323
274.74
275.178
275.638
276.121
276.625
277.147
277.681
278.22
278.753
279.263
279.731
280.133
273.177
273.536
273.908
274.297
274.704
275.131
275.578
276.046
276.531
277.032
277.541
278.051
278.551
279.026
279.458
279.826
273.174
273.527
273.894
274.275
274.675
275.092
275.529
275.983
276.453
276.935
277.423
277.908
278.38
278.826
279.228
279.569
273.172
273.521
273.883
274.26
274.653
275.063
275.491
275.935
276.393
276.861
277.332
277.798
278.249
278.671
279.051
279.372
273.171
273.517
273.877
274.25
274.64
275.046
275.468
275.905
276.355
276.813
277.272
277.725
278.161
278.568
278.932
279.239
273.17
273.516
273.875
274.247
274.635
275.039
275.458
275.892
276.338
276.79
277.244
277.691
278.119
278.518
278.874
279.174
273.191
273.58
273.985
274.41
274.859
275.335
275.84
276.377
276.945
277.546
278.175
278.827
279.493
280.157
280.792
281.36
273.187
273.567
273.963
274.377
274.814
275.276
275.764
276.282
276.827
277.399
277.994
278.607
279.225
279.834
280.409
280.916
273.183
273.555
273.942
274.347
274.772
275.22
275.694
276.192
276.715
277.26
277.823
278.397
278.971
279.528
280.047
280.498
273.179
273.544
273.923
274.319
274.734
275.171
275.63
276.112
276.615
277.136
277.67
278.209
278.742
279.254
279.725
280.129
273.177
273.536
273.908
274.297
274.704
275.13
275.578
276.045
276.531
277.031
277.54
278.05
278.55
279.024
279.456
279.825
273.174
273.529
273.897
274.28
274.681
275.1
275.538
275.994
276.467
276.951
277.44
277.928
278.402
278.848
279.252
279.594
273.173
273.525
273.89
274.27
274.667
275.082
275.514
275.962
276.425
276.898
277.375
277.847
278.303
278.731