/*--------------------------------*- C++ -*----------------------------------*\
| =========                 |                                                 |
| \\      /  F ield         | OpenFOAM: The Open Source CFD Toolbox           |
|  \\    /   O peration     | Version:  v1912                                 |
|   \\  /    A nd           | Website:  www.openfoam.com                      |
|    \\/     M anipulation  |                                                 |
\*---------------------------------------------------------------------------*/
FoamFile
{
    version     2.0;
    format      ascii;
    class       volVectorField;
    location    "0.12/solid";
    object      DD;
}
// * * * * * * * * * * * * * * * * * * * * * * * * * * * * * * * * * * * * * //

dimensions      [0 1 0 0 0 0 0];


internalField   nonuniform List<vector> 
256
(
(1.13363e-09 7.772e-10 1.48124e-09)
(2.2003e-10 2.67861e-10 1.02715e-09)
(-1.73615e-10 2.59107e-10 1.04356e-09)
(-1.05654e-09 7.24465e-10 1.53975e-09)
(1.71855e-09 2.62117e-11 2.97053e-09)
(4.64495e-10 -2.47652e-10 2.42477e-09)
(-2.85731e-10 -2.8185e-10 2.46589e-09)
(-1.499e-09 -9.77757e-11 3.10505e-09)
(1.74183e-09 -9.11025e-10 3.94125e-09)
(5.36188e-10 -1.01215e-09 3.43897e-09)
(-1.98416e-10 -1.07022e-09 3.49547e-09)
(-1.36553e-09 -1.09925e-09 4.12071e-09)
(1.69566e-09 -1.85586e-09 4.765e-09)
(5.71626e-10 -1.9417e-09 4.27629e-09)
(-5.20262e-11 -2.0203e-09 4.34179e-09)
(-1.1402e-09 -2.10091e-09 4.97089e-09)
(1.73755e-09 -2.81901e-09 5.57143e-09)
(6.48428e-10 -2.98858e-09 5.07157e-09)
(7.57467e-11 -3.08508e-09 5.14242e-09)
(-9.79371e-10 -3.11457e-09 5.79306e-09)
(1.99666e-09 -3.84649e-09 6.46523e-09)
(8.29278e-10 -4.12881e-09 5.94611e-09)
(1.22333e-10 -4.24137e-09 6.02035e-09)
(-1.01266e-09 -4.18763e-09 6.69657e-09)
(2.68074e-09 -5.13919e-09 7.57522e-09)
(1.17098e-09 -5.35443e-09 7.04822e-09)
(3.02487e-11 -5.48196e-09 7.12504e-09)
(-1.44881e-09 -5.52352e-09 7.81371e-09)
(3.81977e-09 -7.37042e-09 8.86108e-09)
(1.53234e-09 -6.9349e-09 8.36563e-09)
(-6.23475e-11 -7.07356e-09 8.44435e-09)
(-2.31977e-09 -7.79631e-09 9.10507e-09)
(3.36194e-10 -4.50201e-11 6.14145e-10)
(6.16152e-11 -2.95619e-10 6.73765e-10)
(-3.84863e-11 -3.09515e-10 6.8735e-10)
(-2.84461e-10 -1.05496e-10 6.55135e-10)
(5.54371e-10 -7.8536e-10 1.8193e-09)
(1.73233e-10 -9.40524e-10 1.95468e-09)
(-5.53766e-11 -9.80963e-10 1.98872e-09)
(-3.99506e-10 -9.18607e-10 1.92005e-09)
(5.5898e-10 -1.60323e-09 2.8097e-09)
(2.20314e-10 -1.68262e-09 2.98631e-09)
(2.8717e-11 -1.74484e-09 3.03394e-09)
(-2.74854e-10 -1.79683e-09 2.95029e-09)
(5.36533e-10 -2.47624e-09 3.65249e-09)
(2.58016e-10 -2.56571e-09 3.83969e-09)
(1.53323e-10 -2.64652e-09 3.89583e-09)
(-9.19559e-11 -2.72333e-09 3.81867e-09)
(5.94179e-10 -3.39115e-09 4.45275e-09)
(3.3801e-10 -3.56751e-09 4.63416e-09)
(2.64626e-10 -3.6651e-09 4.69566e-09)
(4.05447e-11 -3.68714e-09 4.63544e-09)
(8.66183e-10 -4.3361e-09 5.28662e-09)
(5.21969e-10 -4.62641e-09 5.45661e-09)
(2.99182e-10 -4.73959e-09 5.52165e-09)
(-1.38858e-11 -4.67738e-09 5.48021e-09)
(1.57004e-09 -5.34793e-09 6.12552e-09)
(8.68933e-10 -5.567e-09 6.28613e-09)
(1.95857e-10 -5.69489e-09 6.35358e-09)
(-4.74991e-10 -5.73238e-09 6.32635e-09)
(2.74556e-09 -6.79157e-09 6.62679e-09)
(1.23561e-09 -6.32637e-09 6.78485e-09)
(9.42083e-11 -6.4648e-09 6.85344e-09)
(-1.38543e-09 -7.21621e-09 6.83103e-09)
(-6.76984e-11 -2.63303e-10 4.273e-10)
(-7.82958e-11 -3.93143e-10 5.46044e-10)
(8.75949e-11 -4.06354e-10 5.56464e-10)
(1.03109e-10 -3.15679e-10 4.57959e-10)
(-1.34265e-10 -1.17034e-09 1.38137e-09)
(-9.58149e-11 -1.23833e-09 1.6032e-09)
(1.72551e-10 -1.27749e-09 1.62922e-09)
(2.44982e-10 -1.29325e-09 1.45677e-09)
(-1.6864e-10 -2.0288e-09 2.28075e-09)
(-7.75312e-11 -2.0804e-09 2.53756e-09)
(2.61778e-10 -2.14104e-09 2.57443e-09)
(3.85593e-10 -2.21269e-09 2.38796e-09)
(-1.72922e-10 -2.87083e-09 3.08752e-09)
(-3.86355e-11 -2.96141e-09 3.351e-09)
(3.66505e-10 -3.04055e-09 3.39524e-09)
(5.32392e-10 -3.10945e-09 3.21719e-09)
(-9.63739e-11 -3.69871e-09 3.83323e-09)
(4.48628e-11 -3.8851e-09 4.09227e-09)
(4.60434e-10 -3.98117e-09 4.14157e-09)
(6.32767e-10 -3.98783e-09 3.97868e-09)
(1.95701e-10 -4.47622e-09 4.53153e-09)
(2.32564e-10 -4.77865e-09 4.78137e-09)
(4.81527e-10 -4.8906e-09 4.83416e-09)
(5.49081e-10 -4.81243e-09 4.68795e-09)
(9.26934e-10 -5.21892e-09 5.10074e-09)
(5.85704e-10 -5.44848e-09 5.33972e-09)
(3.65757e-10 -5.57549e-09 5.39478e-09)
(5.48083e-11 -5.60008e-09 5.26424e-09)
(2.12396e-09 -6.39001e-09 5.32737e-09)
(9.58888e-10 -5.93471e-09 5.55999e-09)
(2.54089e-10 -6.07254e-09 5.61605e-09)
(-8.80184e-10 -6.81306e-09 5.494e-09)
(-1.94184e-10 -3.28997e-10 3.58091e-10)
(-1.27442e-10 -4.05977e-10 4.21228e-10)
(1.28567e-10 -4.17851e-10 4.29237e-10)
(2.18986e-10 -3.73879e-10 3.81442e-10)
(-3.82235e-10 -1.3279e-09 1.12329e-09)
(-2.0581e-10 -1.3512e-09 1.24815e-09)
(2.55569e-10 -1.38718e-09 1.26791e-09)
(4.63337e-10 -1.43783e-09 1.17995e-09)
(-4.4806e-10 -2.24156e-09 1.87395e-09)
(-2.08751e-10 -2.27483e-09 2.0219e-09)
(3.47528e-10 -2.33188e-09 2.04991e-09)
(6.17686e-10 -2.412e-09 1.95478e-09)
(-4.47346e-10 -3.07501e-09 2.57026e-09)
(-1.73083e-10 -3.16479e-09 2.72322e-09)
(4.39397e-10 -3.24066e-09 2.75717e-09)
(7.44053e-10 -3.30177e-09 2.66925e-09)
(-3.57758e-10 -3.83101e-09 3.20019e-09)
(-8.84785e-11 -4.02432e-09 3.35043e-09)
(5.19394e-10 -4.11771e-09 3.38872e-09)
(8.19038e-10 -4.11064e-09 3.31282e-09)
(-4.95692e-11 -4.48621e-09 3.74215e-09)
(1.01737e-10 -4.79862e-09 3.88573e-09)
(5.28567e-10 -4.9086e-09 3.92713e-09)
(7.10209e-10 -4.81556e-09 3.86468e-09)
(7.00416e-10 -5.10305e-09 4.13434e-09)
(4.587e-10 -5.34498e-09 4.26938e-09)
(4.02831e-10 -5.47082e-09 4.31284e-09)
(1.91357e-10 -5.48025e-09 4.26336e-09)
(1.91146e-09 -6.21527e-09 4.28953e-09)
(8.36492e-10 -5.78082e-09 4.42073e-09)
(2.83364e-10 -5.91832e-09 4.46519e-09)
(-7.60664e-10 -6.63766e-09 4.42171e-09)
(-2.18996e-10 -3.55208e-10 2.91446e-10)
(-1.33995e-10 -4.11695e-10 3.13007e-10)
(1.30166e-10 -4.2251e-10 3.18916e-10)
(2.36873e-10 -3.94723e-10 3.08536e-10)
(-4.35163e-10 -1.38831e-09 8.87113e-10)
(-2.28494e-10 -1.39337e-09 9.3347e-10)
(2.60668e-10 -1.42648e-09 9.47958e-10)
(4.96503e-10 -1.48767e-09 9.28312e-10)
(-5.12801e-10 -2.32931e-09 1.4717e-09)
(-2.41406e-10 -2.35378e-09 1.52935e-09)
(3.49062e-10 -2.40734e-09 1.54988e-09)
(6.4977e-10 -2.48776e-09 1.53052e-09)
(-5.12191e-10 -3.15895e-09 2.01887e-09)
(-2.10013e-10 -3.24768e-09 2.07985e-09)
(4.32523e-10 -3.32023e-09 2.10485e-09)
(7.64089e-10 -3.37455e-09 2.0914e-09)
(-4.16903e-10 -3.87542e-09 2.50587e-09)
(-1.26743e-10 -4.07225e-09 2.56581e-09)
(5.03129e-10 -4.16289e-09 2.59423e-09)
(8.2302e-10 -4.14587e-09 2.58917e-09)
(-1.00314e-10 -4.47426e-09 2.90599e-09)
(6.37184e-11 -4.79287e-09 2.96224e-09)
(5.03856e-10 -4.90086e-09 2.9932e-09)
(6.97878e-10 -4.79698e-09 2.9974e-09)
(6.59354e-10 -5.05438e-09 3.18502e-09)
(4.22048e-10 -5.30509e-09 3.23618e-09)
(3.71276e-10 -5.42983e-09 3.26888e-09)
(1.64096e-10 -5.42793e-09 3.28192e-09)
(1.87999e-09 -6.15919e-09 3.31272e-09)
(8.02633e-10 -5.73927e-09 3.36156e-09)
(2.4626e-10 -5.87658e-09 3.39517e-09)
(-8.00275e-10 -6.58127e-09 3.41249e-09)
(-2.19562e-10 -3.6637e-10 2.14954e-10)
(-1.31128e-10 -4.15822e-10 2.19003e-10)
(1.24311e-10 -4.25893e-10 2.23031e-10)
(2.33002e-10 -4.02234e-10 2.2652e-10)
(-4.34079e-10 -1.40907e-09 6.42197e-10)
(-2.26554e-10 -1.40831e-09 6.53108e-10)
(2.47535e-10 -1.43932e-09 6.62972e-10)
(4.8256e-10 -1.50092e-09 6.70049e-10)
(-5.11911e-10 -2.35768e-09 1.05764e-09)
(-2.42633e-10 -2.37901e-09 1.07272e-09)
(3.29797e-10 -2.42988e-09 1.08671e-09)
(6.27158e-10 -2.50715e-09 1.09746e-09)
(-5.11342e-10 -3.1843e-09 1.44536e-09)
(-2.14336e-10 -3.27239e-09 1.46219e-09)
(4.07184e-10 -3.34228e-09 1.47928e-09)
(7.32735e-10 -3.39117e-09 1.49469e-09)
(-4.14558e-10 -3.88563e-09 1.78668e-09)
(-1.33246e-10 -4.08387e-09 1.80341e-09)
(4.71866e-10 -4.17226e-09 1.82293e-09)
(7.82346e-10 -4.14869e-09 1.84368e-09)
(-9.50237e-11 -4.46839e-09 2.0621e-09)
(5.6123e-11 -4.79006e-09 2.07731e-09)
(4.67275e-10 -4.89642e-09 2.09869e-09)
(6.48072e-10 -4.78571e-09 2.12504e-09)
(6.69151e-10 -5.04601e-09 2.25482e-09)
(4.14589e-10 -5.30098e-09 2.26755e-09)
(3.30186e-10 -5.42483e-09 2.29025e-09)
(1.05576e-10 -5.41657e-09 2.32191e-09)
(1.89647e-09 -6.15331e-09 2.35448e-09)
(7.96735e-10 -5.7387e-09 2.36563e-09)
(2.01407e-10 -5.87585e-09 2.38904e-09)
(-8.67746e-10 -6.5751e-09 2.4238e-09)
(-2.17975e-10 -3.7075e-10 1.31384e-10)
(-1.28757e-10 -4.17844e-10 1.30765e-10)
(1.20253e-10 -4.27442e-10 1.33096e-10)
(2.28777e-10 -4.04338e-10 1.38042e-10)
(-4.27723e-10 -1.41449e-09 3.88401e-10)
(-2.22936e-10 -1.41236e-09 3.88792e-10)
(2.37327e-10 -1.44204e-09 3.94504e-10)
(4.68487e-10 -1.50161e-09 4.04448e-10)
(-5.03052e-10 -2.36324e-09 6.36176e-10)
(-2.39777e-10 -2.3838e-09 6.37755e-10)
(3.14588e-10 -2.43291e-09 6.45867e-10)
(6.05079e-10 -2.50689e-09 6.59162e-10)
(-5.01935e-10 -3.18795e-09 8.66213e-10)
(-2.13219e-10 -3.27576e-09 8.68522e-10)
(3.87845e-10 -3.34388e-09 8.7846e-10)
(7.04484e-10 -3.38901e-09 8.94769e-10)
(-4.05069e-10 -3.88598e-09 1.06745e-09)
(-1.33922e-10 -4.08464e-09 1.06993e-09)
(4.48982e-10 -4.1715e-09 1.08131e-09)
(7.48862e-10 -4.14402e-09 1.10058e-09)
(-8.4944e-11 -4.46835e-09 1.22914e-09)
(5.42258e-11 -4.79124e-09 1.23116e-09)
(4.41292e-10 -4.89646e-09 1.24368e-09)
(6.0983e-10 -4.78196e-09 1.26587e-09)
(6.81333e-10 -5.05172e-09 1.34373e-09)
(4.12511e-10 -5.30806e-09 1.34475e-09)
(3.01389e-10 -5.43128e-09 1.35808e-09)
(6.23459e-11 -5.42017e-09 1.38302e-09)
(1.91294e-09 -6.16293e-09 1.40742e-09)
(7.95445e-10 -5.74834e-09 1.40743e-09)
(1.70297e-10 -5.88537e-09 1.42121e-09)
(-9.16855e-10 -6.58444e-09 1.44811e-09)
(-2.17449e-10 -3.72177e-10 4.41623e-11)
(-1.27849e-10 -4.18482e-10 4.36032e-11)
(1.1859e-10 -4.2785e-10 4.43649e-11)
(2.27027e-10 -4.04676e-10 4.63316e-11)
(-4.24953e-10 -1.41518e-09 1.29923e-10)
(-2.21445e-10 -1.41284e-09 1.29333e-10)
(2.32804e-10 -1.44186e-09 1.31201e-10)
(4.62118e-10 -1.50002e-09 1.35156e-10)
(-4.98728e-10 -2.3629e-09 2.12205e-10)
(-2.38479e-10 -2.38337e-09 2.11838e-10)
(3.07528e-10 -2.43163e-09 2.14493e-10)
(5.94543e-10 -2.50374e-09 2.1971e-10)
(-4.97149e-10 -3.18682e-09 2.88346e-10)
(-2.12673e-10 -3.27456e-09 2.8817e-10)
(3.78708e-10 -3.3418e-09 2.91427e-10)
(6.90776e-10 -3.38504e-09 2.97684e-10)
(-4.0039e-10 -3.88502e-09 3.54775e-10)
(-1.34307e-10 -4.08378e-09 3.54685e-10)
(4.38163e-10 -4.16987e-09 3.58425e-10)
(7.32741e-10 -4.14057e-09 3.65631e-10)
(-8.02617e-11 -4.46963e-09 4.0814e-10)
(5.31427e-11 -4.79289e-09 4.07976e-10)
(4.29034e-10 -4.89755e-09 4.12094e-10)
(5.91645e-10 -4.78138e-09 4.20199e-10)
(6.86905e-10 -5.05737e-09 4.46284e-10)
(4.11307e-10 -5.31395e-09 4.45859e-10)
(2.87766e-10 -5.43685e-09 4.50251e-10)
(4.18368e-11 -5.42476e-09 4.59205e-10)
(1.92062e-09 -6.17119e-09 4.68177e-10)
(7.94572e-10 -5.75553e-09 4.67401e-10)
(1.55591e-10 -5.8925e-09 4.71944e-10)
(-9.40259e-10 -6.59256e-09 4.81576e-10)
)
;

boundaryField
{
    interface
    {
        type            calculated;
        value           nonuniform List<vector> 
192
(
(-3.6006e-10 1.49025e-09 1.2912e-09)
(5.98658e-11 1.78267e-10 2.6735e-09)
(1.08013e-10 -9.16742e-10 3.63074e-09)
(1.14598e-10 -1.85692e-09 4.46013e-09)
(2.17685e-10 -2.74375e-09 5.27367e-09)
(5.23972e-10 -3.61068e-09 6.17497e-09)
(1.17511e-09 -4.68341e-09 7.29287e-09)
(2.81598e-09 -7.06333e-09 8.58561e-09)
(-1.77575e-09 1.77624e-10 3.13832e-10)
(-1.63556e-09 -7.29659e-10 1.35611e-09)
(-1.61127e-09 -1.60769e-09 2.3321e-09)
(-1.59021e-09 -2.46743e-09 3.18536e-09)
(-1.47785e-09 -3.30873e-09 3.99428e-09)
(-1.16312e-09 -4.09213e-09 4.83639e-09)
(-4.96293e-10 -4.87808e-09 5.68708e-09)
(1.23997e-09 -6.47727e-09 6.20285e-09)
(-2.19615e-09 -3.13789e-10 2.9472e-10)
(-2.2932e-09 -1.19557e-09 1.14723e-09)
(-2.30727e-09 -2.03846e-09 2.029e-09)
(-2.27161e-09 -2.85276e-09 2.84156e-09)
(-2.14237e-09 -3.60654e-09 3.59525e-09)
(-1.80593e-09 -4.22038e-09 4.3026e-09)
(-1.10349e-09 -4.73684e-09 4.88334e-09)
(6.51178e-10 -6.0669e-09 5.11885e-09)
(-2.39044e-09 -4.73097e-10 3.20278e-10)
(-2.59341e-09 -1.39136e-09 1.04807e-09)
(-2.63705e-09 -2.25783e-09 1.78792e-09)
(-2.5961e-09 -3.05243e-09 2.48545e-09)
(-2.45312e-09 -3.73156e-09 3.12006e-09)
(-2.09913e-09 -4.22166e-09 3.66816e-09)
(-1.37547e-09 -4.61279e-09 4.06746e-09)
(3.91149e-10 -5.88401e-09 4.22855e-09)
(-2.48433e-09 -5.18742e-10 2.85109e-10)
(-2.71105e-09 -1.46175e-09 8.74157e-10)
(-2.76482e-09 -2.34856e-09 1.45574e-09)
(-2.7224e-09 -3.13497e-09 2.00288e-09)
(-2.57211e-09 -3.77244e-09 2.49168e-09)
(-2.20862e-09 -4.20519e-09 2.89463e-09)
(-1.47565e-09 -4.5593e-09 3.17721e-09)
(2.98703e-10 -5.82232e-09 3.30898e-09)
(-2.53879e-09 -5.29774e-10 2.15214e-10)
(-2.76254e-09 -1.48215e-09 6.44061e-10)
(-2.8153e-09 -2.37699e-09 1.06008e-09)
(-2.7714e-09 -3.15996e-09 1.44793e-09)
(-2.61822e-09 -3.78154e-09 1.78964e-09)
(-2.25125e-09 -4.19745e-09 2.06595e-09)
(-1.51523e-09 -4.54813e-09 2.26032e-09)
(2.65277e-10 -5.81332e-09 2.36272e-09)
(-2.57294e-09 -5.32168e-10 1.31915e-10)
(-2.79135e-09 -1.48576e-09 3.90684e-10)
(-2.84082e-09 -2.38178e-09 6.39474e-10)
(-2.79534e-09 -3.16344e-09 8.69763e-10)
(-2.64117e-09 -3.78172e-09 1.07099e-09)
(-2.27346e-09 -4.19674e-09 1.23283e-09)
(-1.53673e-09 -4.55224e-09 1.34817e-09)
(2.48152e-10 -5.82151e-09 1.41346e-09)
(-2.59007e-09 -5.32772e-10 4.42948e-11)
(-2.80598e-09 -1.48549e-09 1.30616e-10)
(-2.8535e-09 -2.38094e-09 2.13287e-10)
(-2.80706e-09 -3.16223e-09 2.89543e-10)
(-2.65257e-09 -3.78079e-09 3.55946e-10)
(-2.28483e-09 -4.1978e-09 4.09312e-10)
(-1.54803e-09 -4.55714e-09 4.47678e-10)
(2.39126e-10 -5.82924e-09 4.70099e-10)
(1.11507e-09 1.89015e-09 -3.41026e-11)
(1.73058e-09 6.41221e-10 1.282e-09)
(1.77148e-09 -4.62407e-10 2.28434e-09)
(1.72587e-09 -1.44832e-09 3.17335e-09)
(1.76143e-09 -2.39395e-09 4.05265e-09)
(2.01197e-09 -3.34554e-09 5.00047e-09)
(2.69013e-09 -4.54023e-09 6.07869e-09)
(3.83361e-09 -7.03828e-09 7.85385e-09)
(1.10549e-10 1.13085e-09 -9.34263e-10)
(3.38288e-10 3.55306e-10 3.09304e-10)
(4.24699e-10 -5.49269e-10 1.32952e-09)
(4.65783e-10 -1.53356e-09 2.21633e-09)
(5.41133e-10 -2.57113e-09 3.07324e-09)
(7.18018e-10 -3.63464e-09 3.99046e-09)
(1.0584e-09 -4.74955e-09 5.05242e-09)
(1.42813e-09 -6.59718e-09 6.93545e-09)
(-4.55219e-11 1.13647e-09 -9.25613e-10)
(-1.15704e-10 3.31129e-10 3.41925e-10)
(-2.80201e-11 -6.01248e-10 1.37699e-09)
(1.21588e-10 -1.60856e-09 2.27277e-09)
(2.56084e-10 -2.66544e-09 3.1351e-09)
(3.09913e-10 -3.74571e-09 4.0556e-09)
(2.21587e-10 -4.87596e-09 5.11969e-09)
(1.22488e-10 -6.73525e-09 7.00432e-09)
(-1.01994e-09 1.88567e-09 2.46152e-11)
(-1.46929e-09 5.47462e-10 1.4199e-09)
(-1.33899e-09 -6.32785e-10 2.46562e-09)
(-1.10529e-09 -1.68282e-09 3.38012e-09)
(-9.32557e-10 -2.68315e-09 4.27434e-09)
(-9.53796e-10 -3.68247e-09 5.2305e-09)
(-1.38163e-09 -4.92139e-09 6.31362e-09)
(-2.2553e-09 -7.46254e-09 8.09416e-09)
(6.59723e-10 1.36335e-09 1.36498e-09)
(3.82336e-10 -2.05255e-11 2.84498e-09)
(4.88893e-10 -1.18895e-09 3.86126e-09)
(6.56971e-10 -2.19746e-09 4.72624e-09)
(7.49817e-10 -3.14646e-09 5.56145e-09)
(6.60495e-10 -4.07028e-09 6.47627e-09)
(2.50241e-10 -5.19675e-09 7.60381e-09)
(-1.1061e-09 -7.62644e-09 8.9037e-09)
(2.03387e-09 6.54937e-11 3.65191e-10)
(1.99369e-09 -9.21012e-10 1.48402e-09)
(2.09711e-09 -1.87372e-09 2.51248e-09)
(2.23291e-09 -2.80219e-09 3.40049e-09)
(2.30471e-09 -3.70666e-09 4.23238e-09)
(2.19954e-09 -4.5485e-09 5.08975e-09)
(1.76917e-09 -5.38949e-09 5.95042e-09)
(3.13563e-10 -7.03794e-09 6.47112e-09)
(2.4402e-09 -4.02706e-10 3.32074e-10)
(2.61056e-09 -1.36388e-09 1.24104e-09)
(2.72992e-09 -2.28455e-09 2.16481e-09)
(2.83365e-09 -3.17125e-09 3.00817e-09)
(2.8758e-09 -3.99201e-09 3.78404e-09)
(2.74035e-09 -4.66794e-09 4.50691e-09)
(2.26944e-09 -5.24276e-09 5.09764e-09)
(7.92953e-10 -6.62477e-09 5.3378e-09)
(2.62928e-09 -5.44465e-10 3.47984e-10)
(2.88745e-09 -1.53751e-09 1.11706e-09)
(3.01919e-09 -2.48219e-09 1.88873e-09)
(3.1025e-09 -3.35212e-09 2.61131e-09)
(3.11879e-09 -4.10218e-09 3.26525e-09)
(2.95709e-09 -4.65863e-09 3.82747e-09)
(2.45968e-09 -5.11252e-09 4.23603e-09)
(9.68794e-10 -6.44016e-09 4.40172e-09)
(2.72113e-09 -5.78072e-10 3.05021e-10)
(2.99075e-09 -1.5909e-09 9.23498e-10)
(3.12005e-09 -2.55466e-09 1.52814e-09)
(3.18992e-09 -3.41787e-09 2.09423e-09)
(3.18865e-09 -4.12931e-09 2.59834e-09)
(3.00965e-09 -4.63225e-09 3.01292e-09)
(2.498e-09 -5.05337e-09 3.30336e-09)
(9.97043e-10 -6.37722e-09 3.43926e-09)
(2.77469e-09 -5.8113e-10 2.28536e-10)
(3.03324e-09 -1.59947e-09 6.77046e-10)
(3.15283e-09 -2.5697e-09 1.10863e-09)
(3.21254e-09 -3.42997e-09 1.50959e-09)
(3.20059e-09 -4.12752e-09 1.86222e-09)
(3.012e-09 -4.61652e-09 2.14705e-09)
(2.4933e-09 -5.0376e-09 2.34734e-09)
(9.84333e-10 -6.36715e-09 2.45295e-09)
(2.80831e-09 -5.7866e-10 1.39531e-10)
(3.05661e-09 -1.59569e-09 4.09555e-10)
(3.16748e-09 -2.5659e-09 6.67313e-10)
(3.22003e-09 -3.42496e-09 9.05255e-10)
(3.20196e-09 -4.12035e-09 1.11298e-09)
(3.00848e-09 -4.61032e-09 1.27997e-09)
(2.48636e-09 -5.03849e-09 1.39895e-09)
(9.71736e-10 -6.3745e-09 1.46624e-09)
(2.82517e-09 -5.76968e-10 4.67678e-11)
(3.06866e-09 -1.5919e-09 1.36747e-10)
(3.175e-09 -2.56091e-09 2.22343e-10)
(3.22388e-09 -3.41959e-09 3.0111e-10)
(3.20297e-09 -4.11579e-09 3.6966e-10)
(3.00744e-09 -4.60865e-09 4.24744e-10)
(2.48388e-09 -5.04177e-09 4.64331e-10)
(9.6638e-10 -6.38182e-09 4.87426e-10)
(3.86442e-09 -6.36307e-09 8.88243e-09)
(2.78639e-09 -5.29447e-09 6.38169e-09)
(2.17167e-09 -4.92463e-09 5.1833e-09)
(1.96845e-09 -4.6972e-09 4.23183e-09)
(1.94342e-09 -4.57269e-09 3.29723e-09)
(1.96278e-09 -4.51033e-09 2.35541e-09)
(1.97998e-09 -4.48228e-09 1.41188e-09)
(1.98765e-09 -4.47205e-09 4.70242e-10)
(1.45811e-09 -5.50491e-09 8.38235e-09)
(1.1539e-09 -4.33088e-09 6.5348e-09)
(8.79499e-10 -3.98034e-09 5.42361e-09)
(7.6223e-10 -3.78601e-09 4.37187e-09)
(7.31955e-10 -3.68516e-09 3.35103e-09)
(7.27345e-10 -3.63169e-09 2.3679e-09)
(7.2603e-10 -3.6041e-09 1.41164e-09)
(7.24874e-10 -3.59245e-09 4.69198e-10)
(1.52997e-10 -5.6338e-09 8.46131e-09)
(3.16653e-10 -4.45995e-09 6.60319e-09)
(4.73658e-10 -4.10939e-09 5.47943e-09)
(4.97555e-10 -3.91497e-09 4.4162e-09)
(4.56741e-10 -3.81396e-09 3.38455e-09)
(4.10486e-10 -3.76035e-09 2.39124e-09)
(3.79303e-10 -3.73265e-09 1.42537e-09)
(3.64829e-10 -3.72096e-09 4.73727e-10)
(-2.22402e-09 -6.7853e-09 9.12693e-09)
(-1.28673e-09 -5.71583e-09 6.58522e-09)
(-7.8922e-10 -5.34707e-09 5.34936e-09)
(-6.79601e-10 -5.12086e-09 4.36376e-09)
(-7.26154e-10 -4.99726e-09 3.39685e-09)
(-7.96935e-10 -4.93554e-09 2.4246e-09)
(-8.47081e-10 -4.90786e-09 1.45248e-09)
(-8.70637e-10 -4.89784e-09 4.83606e-10)
)
;
    }
    symmetry
    {
        type            symmetry;
    }
    bottom
    {
        type            calculated;
        value           uniform (0 0 0);
    }
}


// ************************************************************************* //
