/*--------------------------------*- C++ -*----------------------------------*\
| =========                 |                                                 |
| \\      /  F ield         | OpenFOAM: The Open Source CFD Toolbox           |
|  \\    /   O peration     | Version:  v1912                                 |
|   \\  /    A nd           | Website:  www.openfoam.com                      |
|    \\/     M anipulation  |                                                 |
\*---------------------------------------------------------------------------*/
FoamFile
{
    version     2.0;
    format      ascii;
    class       volScalarField;
    location    "0.12/solid";
    object      epsilonEq;
}
// * * * * * * * * * * * * * * * * * * * * * * * * * * * * * * * * * * * * * //

dimensions      [0 0 0 0 0 0 0];


internalField   nonuniform List<scalar> 
256
(
2.2586e-06
2.11841e-06
2.10409e-06
2.22639e-06
1.87197e-06
2.00026e-06
1.98248e-06
1.83534e-06
1.95027e-06
2.03392e-06
2.01575e-06
1.91529e-06
2.03329e-06
2.08783e-06
2.06985e-06
1.9997e-06
2.12998e-06
2.17397e-06
2.15621e-06
2.09703e-06
2.27386e-06
2.31169e-06
2.29415e-06
2.24147e-06
2.32414e-06
2.42754e-06
2.41065e-06
2.29647e-06
2.72901e-07
2.5455e-06
2.52809e-06
2.36452e-07
1.96445e-06
4.59398e-07
4.54475e-07
1.93605e-06
1.80268e-06
3.74289e-07
3.68466e-07
1.77336e-06
1.83331e-06
3.39362e-07
3.34148e-07
1.80405e-06
1.88704e-06
3.45308e-07
3.40589e-07
1.85696e-06
1.96392e-06
3.71032e-07
3.66565e-07
1.93256e-06
2.0762e-06
3.5333e-07
3.49236e-07
2.04422e-06
2.15586e-06
1.78341e-07
1.7624e-07
2.12899e-06
2.32433e-06
2.42774e-06
2.41127e-06
2.29802e-06
1.84275e-06
3.92524e-07
3.87324e-07
1.81545e-06
1.74766e-06
4.33337e-07
4.27513e-07
1.71641e-06
1.78374e-06
4.28496e-07
4.2308e-07
1.75169e-06
1.8312e-06
4.2868e-07
4.23476e-07
1.79793e-06
1.8986e-06
4.3733e-07
4.32139e-07
1.86379e-06
1.99842e-06
4.09831e-07
4.04927e-07
1.96279e-06
2.07698e-06
3.50621e-07
3.47762e-07
2.04595e-06
2.27408e-06
2.31159e-06
2.29487e-06
2.24476e-06
1.74881e-06
3.70838e-07
3.66686e-07
1.72582e-06
1.66511e-06
4.51487e-07
4.46644e-07
1.63677e-06
1.70587e-06
4.61758e-07
4.56976e-07
1.67604e-06
1.75022e-06
4.59988e-07
4.55271e-07
1.71885e-06
1.81007e-06
4.60515e-07
4.55792e-07
1.77706e-06
1.89922e-06
4.28145e-07
4.23776e-07
1.86537e-06
1.96662e-06
3.62154e-07
3.59861e-07
1.93726e-06
2.13315e-06
2.17448e-06
2.15803e-06
2.10556e-06
1.69301e-06
3.5136e-07
3.48251e-07
1.67401e-06
1.61127e-06
4.35855e-07
4.32012e-07
1.58632e-06
1.65267e-06
4.48057e-07
4.44075e-07
1.6258e-06
1.6948e-06
4.43695e-07
4.39695e-07
1.66614e-06
1.75003e-06
4.38607e-07
4.34594e-07
1.7196e-06
1.83292e-06
4.00132e-07
3.96478e-07
1.80158e-06
1.89393e-06
3.21814e-07
3.20328e-07
1.86697e-06
2.04833e-06
2.0918e-06
2.07564e-06
2.02285e-06
1.65783e-06
3.34549e-07
3.3221e-07
1.6418e-06
1.57652e-06
4.1458e-07
4.11489e-07
1.55429e-06
1.61697e-06
4.23992e-07
4.20662e-07
1.59261e-06
1.65738e-06
4.17082e-07
4.13691e-07
1.63105e-06
1.70996e-06
4.08967e-07
4.05529e-07
1.68174e-06
1.78959e-06
3.67084e-07
3.63963e-07
1.76034e-06
1.84741e-06
2.81694e-07
2.80845e-07
1.82243e-06
1.99693e-06
2.04567e-06
2.02973e-06
1.97317e-06
1.63655e-06
3.22127e-07
3.20292e-07
1.62245e-06
1.55545e-06
3.98325e-07
3.95741e-07
1.53506e-06
1.59492e-06
4.05109e-07
4.02237e-07
1.57229e-06
1.63418e-06
3.96577e-07
3.93616e-07
1.60947e-06
1.68534e-06
3.8731e-07
3.84265e-07
1.65865e-06
1.76341e-06
3.44293e-07
3.41514e-07
1.73559e-06
1.81968e-06
2.55526e-07
2.55103e-07
1.79606e-06
1.96641e-06
2.02128e-06
2.00548e-06
1.94384e-06
1.62645e-06
3.15484e-07
3.13903e-07
1.61331e-06
1.5455e-06
3.89952e-07
3.87628e-07
1.52602e-06
1.58444e-06
3.95483e-07
3.92852e-07
1.56268e-06
1.62313e-06
3.86275e-07
3.8354e-07
1.59926e-06
1.67368e-06
3.76724e-07
3.7388e-07
1.64777e-06
1.75114e-06
3.33494e-07
3.30886e-07
1.72404e-06
1.80678e-06
2.43369e-07
2.43162e-07
1.78383e-06
1.95202e-06
2.01067e-06
1.99495e-06
1.93004e-06
)
;

boundaryField
{
    interface
    {
        type            calculated;
        value           nonuniform List<scalar> 
192
(
3.3621e-06
2.96582e-06
3.05973e-06
3.16222e-06
3.29084e-06
3.49958e-06
3.69043e-06
1.93848e-06
3.49273e-06
3.28344e-06
3.33391e-06
3.41739e-06
3.54389e-06
3.75941e-06
4.04288e-06
3.69055e-06
3.20077e-06
3.04347e-06
3.09518e-06
3.17239e-06
3.28902e-06
3.48942e-06
3.76071e-06
3.50016e-06
3.01496e-06
2.86493e-06
2.91908e-06
2.9932e-06
3.10267e-06
3.29159e-06
3.5485e-06
3.29515e-06
2.91421e-06
2.76701e-06
2.82141e-06
2.89334e-06
2.99845e-06
3.18078e-06
3.42956e-06
3.1799e-06
2.85565e-06
2.71079e-06
2.76468e-06
2.83499e-06
2.93749e-06
3.11622e-06
3.36066e-06
3.11271e-06
2.82213e-06
2.67885e-06
2.73221e-06
2.80148e-06
2.90252e-06
3.07939e-06
3.32158e-06
3.07384e-06
2.80671e-06
2.66418e-06
2.71724e-06
2.78601e-06
2.88639e-06
3.06248e-06
3.30371e-06
3.05577e-06
3.57075e-06
3.19297e-06
3.28265e-06
3.37894e-06
3.50189e-06
3.70834e-06
3.91236e-06
2.33515e-06
3.82722e-06
3.66304e-06
3.72173e-06
3.80742e-06
3.94262e-06
4.17972e-06
4.49474e-06
4.11255e-06
3.80088e-06
3.63235e-06
3.69022e-06
3.7759e-06
3.91124e-06
4.14854e-06
4.46429e-06
4.08686e-06
3.50211e-06
3.1159e-06
3.20635e-06
3.3039e-06
3.42771e-06
3.63473e-06
3.84066e-06
2.27008e-06
3.34301e-06
2.94371e-06
3.03802e-06
3.14037e-06
3.26837e-06
3.47742e-06
3.67716e-06
2.00107e-06
3.45039e-06
3.23767e-06
3.287e-06
3.36838e-06
3.49231e-06
3.70627e-06
3.99611e-06
3.67837e-06
3.15866e-06
2.99498e-06
3.04468e-06
3.11935e-06
3.23305e-06
3.43151e-06
3.7083e-06
3.48056e-06
2.97825e-06
2.82037e-06
2.87183e-06
2.94305e-06
3.04946e-06
3.23638e-06
3.49847e-06
3.27716e-06
2.88268e-06
2.72693e-06
2.77822e-06
2.847e-06
2.94893e-06
3.12918e-06
3.38293e-06
3.16476e-06
2.82806e-06
2.67435e-06
2.72491e-06
2.7919e-06
2.8911e-06
3.06764e-06
3.3169e-06
3.10009e-06
2.79715e-06
2.64487e-06
2.69481e-06
2.76066e-06
2.8583e-06
3.03291e-06
3.27981e-06
3.06301e-06
2.78302e-06
2.63145e-06
2.68105e-06
2.74635e-06
2.84329e-06
3.01707e-06
3.26296e-06
3.04586e-06
2.33535e-06
3.91252e-06
3.70868e-06
3.50536e-06
3.39469e-06
3.33187e-06
3.29601e-06
3.2794e-06
4.11264e-06
4.49485e-06
4.17997e-06
3.94465e-06
3.81603e-06
3.74631e-06
3.70949e-06
3.69342e-06
4.08699e-06
4.46475e-06
4.14946e-06
3.91434e-06
3.78599e-06
3.71654e-06
3.67992e-06
3.66395e-06
2.27049e-06
3.84196e-06
3.63769e-06
3.43577e-06
3.32658e-06
3.26498e-06
3.22998e-06
3.21379e-06
)
;
    }
    symmetry
    {
        type            symmetry;
    }
    bottom
    {
        type            calculated;
        value           nonuniform List<scalar> 
32
(
2.63288e-06
2.13148e-06
1.98842e-06
1.89568e-06
1.83947e-06
1.80315e-06
1.781e-06
1.77047e-06
2.2609e-06
5.23802e-07
4.07348e-07
3.7293e-07
3.51688e-07
3.35633e-07
3.24141e-07
3.18001e-07
2.24813e-06
5.18732e-07
4.02202e-07
3.69207e-07
3.49185e-07
3.33981e-07
3.2304e-07
3.17177e-07
2.60476e-06
2.10359e-06
1.9634e-06
1.8762e-06
1.82466e-06
1.79171e-06
1.7717e-06
1.76222e-06
)
;
    }
}


// ************************************************************************* //
