/*--------------------------------*- C++ -*----------------------------------*\
| =========                 |                                                 |
| \\      /  F ield         | OpenFOAM: The Open Source CFD Toolbox           |
|  \\    /   O peration     | Version:  v1912                                 |
|   \\  /    A nd           | Website:  www.openfoam.com                      |
|    \\/     M anipulation  |                                                 |
\*---------------------------------------------------------------------------*/
FoamFile
{
    version     2.0;
    format      ascii;
    class       volSymmTensorField;
    location    "0.12/solid";
    object      epsilon;
}
// * * * * * * * * * * * * * * * * * * * * * * * * * * * * * * * * * * * * * //

dimensions      [0 0 0 0 0 0 0];


internalField   nonuniform List<symmTensor> 
256
(
(-2.62262e-06 -3.72113e-08 5.33776e-08 6.3788e-07 -6.69168e-08 -2.85748e-06)
(2.86387e-08 -7.95878e-08 2.53421e-08 5.02752e-07 -4.77915e-08 -2.88088e-06)
(2.4218e-08 1.01136e-07 -2.5273e-08 4.96094e-07 -4.59085e-08 -2.86318e-06)
(-2.62669e-06 4.50949e-08 -5.18996e-08 6.13427e-07 -5.98315e-08 -2.81056e-06)
(-2.55105e-06 -1.78248e-08 7.69737e-08 1.16412e-07 -5.43035e-08 -2.80494e-06)
(4.99415e-08 -1.56857e-08 3.79844e-08 1.89387e-07 -5.88621e-08 -2.87572e-06)
(4.40769e-08 3.01087e-08 -3.75008e-08 1.80327e-07 -5.76778e-08 -2.85632e-06)
(-2.55491e-06 2.38552e-08 -7.47615e-08 8.75457e-08 -4.99059e-08 -2.7556e-06)
(-2.58665e-06 -9.58465e-11 7.62765e-08 2.038e-07 -3.9653e-08 -2.83333e-06)
(5.1761e-08 1.9265e-09 3.79261e-08 2.38975e-07 -4.20728e-08 -2.89963e-06)
(4.58082e-08 8.67723e-09 -3.72553e-08 2.29947e-07 -4.12168e-08 -2.87997e-06)
(-2.58965e-06 4.62691e-09 -7.39227e-08 1.77607e-07 -3.63845e-08 -2.78402e-06)
(-2.6413e-06 7.78169e-09 7.55493e-08 2.8132e-07 -3.38765e-08 -2.8756e-06)
(4.29277e-08 7.73786e-09 3.76159e-08 3.09108e-07 -3.13085e-08 -2.94605e-06)
(3.69594e-08 1.87635e-10 -3.69279e-08 3.0062e-07 -3.05951e-08 -2.92647e-06)
(-2.64315e-06 -4.3905e-09 -7.31565e-08 2.5723e-07 -3.11545e-08 -2.82669e-06)
(-2.71747e-06 5.61592e-09 7.85122e-08 3.54806e-07 -3.88268e-08 -2.9436e-06)
(4.43269e-08 5.77134e-09 3.93952e-08 3.88168e-07 -3.38248e-08 -3.02982e-06)
(3.84079e-08 -1.36058e-10 -3.8726e-08 3.8e-07 -3.31662e-08 -3.01035e-06)
(-2.71819e-06 -3.22593e-09 -7.60951e-08 3.31801e-07 -3.64027e-08 -2.89503e-06)
(-2.82642e-06 -1.57501e-08 8.41999e-08 4.57406e-07 -6.05467e-08 -3.05876e-06)
(1.02887e-07 -9.20159e-09 4.27301e-08 4.56338e-07 -5.56591e-08 -3.17221e-06)
(9.68307e-08 1.27318e-08 -4.2047e-08 4.48405e-07 -5.49686e-08 -3.15294e-06)
(-2.82734e-06 1.68941e-08 -8.17662e-08 4.34922e-07 -5.82154e-08 -3.01049e-06)
(-2.95929e-06 -6.35579e-08 8.99054e-08 3.81488e-07 -1.01696e-07 -3.2165e-06)
(2.79186e-07 -3.53612e-08 4.58892e-08 2.54883e-07 -1.00791e-07 -3.36864e-06)
(2.7163e-07 3.68271e-08 -4.5073e-08 2.48936e-07 -9.99311e-08 -3.35008e-06)
(-2.96699e-06 6.27989e-08 -8.74842e-08 3.62902e-07 -9.92095e-08 -3.16901e-06)
(-2.82532e-06 -9.01267e-08 9.03893e-08 -3.10705e-06 -1.1458e-07 -3.10681e-06)
(5.32735e-07 -4.55741e-08 4.59842e-08 -3.27859e-06 -1.17321e-07 -3.27833e-06)
(5.21044e-07 4.52992e-08 -4.49204e-08 -3.26437e-06 -1.16449e-07 -3.26384e-06)
(-2.86439e-06 8.82913e-08 -8.81229e-08 -3.0677e-06 -1.1243e-07 -3.067e-06)
(-2.59918e-06 2.14468e-08 3.34969e-08 5.96071e-07 -2.00643e-07 -5.27743e-08)
(-1.086e-07 -5.79117e-08 1.65473e-08 4.28041e-07 -2.3472e-07 -1.27864e-07)
(-1.09721e-07 6.91207e-08 -1.55007e-08 4.19622e-07 -2.30401e-07 -1.28373e-07)
(-2.57794e-06 -1.65987e-08 -3.19929e-08 5.68644e-07 -1.87083e-07 -5.64848e-08)
(-2.58395e-06 -8.99743e-09 5.38202e-08 2.48741e-07 -1.22067e-07 -5.40647e-08)
(-1.70131e-07 -1.36815e-08 2.94331e-08 3.37928e-07 -1.41494e-07 -1.57747e-07)
(-1.71537e-07 2.0446e-08 -2.73694e-08 3.28744e-07 -1.38668e-07 -1.59259e-07)
(-2.56081e-06 1.18898e-08 -5.14816e-08 2.20151e-07 -1.12592e-07 -6.16767e-08)
(-2.61419e-06 -2.52601e-09 5.44084e-08 2.67751e-07 -9.88156e-08 -3.52859e-08)
(-1.77196e-07 -1.48867e-09 3.02355e-08 3.14823e-07 -1.03663e-07 -1.37527e-07)
(-1.78605e-07 6.28688e-09 -2.7998e-08 3.06298e-07 -1.01561e-07 -1.39772e-07)
(-2.58965e-06 4.5521e-09 -5.19643e-08 2.42686e-07 -9.13972e-08 -4.5189e-08)
(-2.66716e-06 5.8791e-09 5.29182e-08 3.04363e-07 -9.542e-08 -1.78966e-08)
(-1.82495e-07 4.36279e-09 2.91916e-08 3.3484e-07 -9.28596e-08 -1.21502e-07)
(-1.8384e-07 -9.38826e-10 -2.71211e-08 3.26848e-07 -9.10663e-08 -1.24229e-07)
(-2.64075e-06 -4.41076e-09 -5.05169e-08 2.81232e-07 -8.90597e-08 -2.92422e-08)
(-2.75076e-06 6.0085e-09 5.38522e-08 3.42531e-07 -1.07596e-07 3.49852e-09)
(-1.81796e-07 3.79906e-09 2.98957e-08 3.75907e-07 -1.03291e-07 -1.07246e-07)
(-1.82997e-07 -1.68244e-09 -2.79874e-08 3.68163e-07 -1.01623e-07 -1.10295e-07)
(-2.72222e-06 -5.11915e-09 -5.14834e-08 3.20358e-07 -1.01822e-07 -8.79713e-09)
(-2.87801e-06 -1.30895e-08 5.69318e-08 3.74904e-07 -1.32462e-07 5.2255e-08)
(-1.30383e-07 -9.40938e-09 3.22787e-08 3.7423e-07 -1.29238e-07 -6.89185e-08)
(-1.31677e-07 1.02573e-08 -3.04197e-08 3.66872e-07 -1.27636e-07 -7.226e-08)
(-2.84833e-06 1.30425e-08 -5.45655e-08 3.53607e-07 -1.27087e-07 3.9189e-08)
(-3.04644e-06 -6.05197e-08 6.09288e-08 1.74061e-07 -1.47725e-07 1.735e-07)
(3.41565e-08 -3.43278e-08 3.51381e-08 4.41932e-08 -1.46312e-07 4.43024e-08)
(3.12253e-08 3.41613e-08 -3.33625e-08 3.95168e-08 -1.44878e-07 4.03775e-08)
(-3.02203e-06 5.88565e-08 -5.86503e-08 1.57962e-07 -1.43071e-07 1.59182e-07)
(-2.9595e-06 -8.97396e-08 6.41406e-08 -3.21664e-06 -1.01402e-07 3.81617e-07)
(2.78787e-07 -4.56327e-08 3.65677e-08 -3.36891e-06 -1.00623e-07 2.55318e-07)
(2.71151e-07 4.53185e-08 -3.57069e-08 -3.35072e-06 -9.97959e-08 2.50106e-07)
(-2.96737e-06 8.75829e-08 -6.24708e-08 -3.1699e-06 -9.90506e-08 3.64607e-07)
(-2.39744e-06 5.55688e-08 4.33983e-09 5.84814e-07 -1.30959e-07 4.7226e-08)
(-1.85166e-07 -3.2997e-08 2.86791e-09 3.98673e-07 -1.67578e-07 4.77648e-08)
(-1.85711e-07 3.92633e-08 -1.30019e-09 3.90685e-07 -1.63909e-07 4.6435e-08)
(-2.37457e-06 -5.25253e-08 -3.59414e-09 5.60728e-07 -1.19696e-07 4.30266e-08)
(-2.42754e-06 8.91817e-11 1.22971e-08 2.82711e-07 -1.22994e-07 7.53099e-08)
(-3.16936e-07 -8.59194e-09 8.07181e-09 3.77114e-07 -1.39523e-07 7.91984e-08)
(-3.17178e-07 1.14547e-08 -5.36332e-09 3.68177e-07 -1.36493e-07 7.62261e-08)
(-2.40124e-06 1.3234e-09 -1.0945e-08 2.54913e-07 -1.13362e-07 6.62813e-08)
(-2.46337e-06 -3.31468e-09 1.38729e-08 2.92451e-07 -1.20862e-07 1.0559e-07)
(-3.38597e-07 -3.16618e-09 9.12508e-09 3.49568e-07 -1.24244e-07 1.1203e-07)
(-3.38665e-07 4.93468e-09 -6.32748e-09 3.41259e-07 -1.21692e-07 1.08071e-07)
(-2.43518e-06 4.13495e-09 -1.2431e-08 2.67682e-07 -1.12548e-07 9.36635e-08)
(-2.51255e-06 4.1848e-09 1.28738e-08 3.01313e-07 -1.26375e-07 1.42638e-07)
(-3.41164e-07 2.50902e-09 8.42873e-09 3.36595e-07 -1.23664e-07 1.48863e-07)
(-3.41087e-07 -1.37331e-09 -5.87475e-09 3.28794e-07 -1.2139e-07 1.44277e-07)
(-2.48222e-06 -3.63273e-09 -1.15064e-08 2.78346e-07 -1.18947e-07 1.28844e-07)
(-2.59144e-06 5.65386e-09 1.20564e-08 2.98379e-07 -1.37926e-07 1.91255e-07)
(-3.37959e-07 3.46834e-09 8.12722e-09 3.32281e-07 -1.33958e-07 1.95519e-07)
(-3.37676e-07 -2.99902e-09 -5.81318e-09 3.24747e-07 -1.31858e-07 1.90475e-07)
(-2.55873e-06 -5.42459e-09 -1.07699e-08 2.76444e-07 -1.3115e-07 1.76106e-07)
(-2.71389e-06 -1.18383e-08 1.21263e-08 2.79491e-07 -1.46055e-07 2.66273e-07)
(-2.88333e-07 -8.14714e-09 8.84012e-09 2.79244e-07 -1.43124e-07 2.68255e-07)
(-2.88118e-07 7.96499e-09 -6.71769e-09 2.722e-07 -1.41219e-07 2.62784e-07)
(-2.67974e-06 1.13584e-08 -1.09097e-08 2.58711e-07 -1.39954e-07 2.49913e-07)
(-2.87896e-06 -5.66124e-08 1.36681e-08 5.70858e-08 -1.28671e-07 3.72618e-07)
(-1.30929e-07 -3.16257e-08 1.05374e-08 -6.54307e-08 -1.2613e-07 3.73335e-07)
(-1.32422e-07 3.10862e-08 -8.84211e-09 -6.9718e-08 -1.24641e-07 3.67356e-07)
(-2.84959e-06 5.47302e-08 -1.26418e-08 4.15374e-08 -1.23815e-07 3.54925e-07)
(-2.82729e-06 -8.41156e-08 1.67527e-08 -3.05805e-06 -5.87245e-08 4.57833e-07)
(1.01753e-07 -4.25546e-08 1.10991e-08 -3.17191e-06 -5.42856e-08 4.57526e-07)
(9.5357e-08 4.2239e-08 -1.0868e-08 -3.15319e-06 -5.36849e-08 4.51066e-07)
(-2.82882e-06 8.18504e-08 -1.64199e-08 -3.01109e-06 -5.67855e-08 4.38936e-07)
(-2.26901e-06 6.3733e-08 -4.83306e-09 5.7877e-07 -1.03256e-07 2.35544e-08)
(-2.03261e-07 -2.45565e-08 -2.96867e-09 3.86303e-07 -1.21641e-07 4.14592e-08)
(-2.04301e-07 2.83722e-08 4.44019e-09 3.7925e-07 -1.18946e-07 4.04043e-08)
(-2.24916e-06 -6.19873e-08 5.26272e-09 5.58779e-07 -9.50311e-08 2.05042e-08)
(-2.31199e-06 3.57755e-09 -5.25803e-09 2.81532e-07 -1.11081e-07 6.01302e-08)
(-3.61813e-07 -6.46155e-09 -3.42592e-09 3.76949e-07 -1.18452e-07 9.15987e-08)
(-3.62516e-07 7.33225e-09 6.01146e-09 3.68583e-07 -1.15904e-07 8.9088e-08)
(-2.28823e-06 -2.95473e-09 6.13459e-09 2.55274e-07 -1.03196e-07 5.29405e-08)
(-2.35278e-06 -3.29067e-09 -4.59683e-09 2.85888e-07 -1.1859e-07 9.93831e-08)
(-3.93431e-07 -3.7885e-09 -3.11686e-09 3.48078e-07 -1.19176e-07 1.3445e-07)
(-3.93792e-07 3.97972e-09 5.79955e-09 3.40004e-07 -1.1683e-07 1.30977e-07)
(-2.32673e-06 3.51021e-09 5.55974e-09 2.61572e-07 -1.11239e-07 8.93754e-08)
(-2.40055e-06 2.98458e-09 -5.03423e-09 2.79034e-07 -1.2729e-07 1.46942e-07)
(-3.9508e-07 1.41138e-09 -3.44489e-09 3.17544e-07 -1.24358e-07 1.82057e-07)
(-3.95201e-07 -1.43499e-09 5.89126e-09 3.09835e-07 -1.22179e-07 1.77909e-07)
(-2.37214e-06 -2.88453e-09 5.92785e-09 2.5611e-07 -1.20438e-07 1.3491e-07)
(-2.47523e-06 4.60389e-09 -6.01449e-09 2.54084e-07 -1.33118e-07 2.05332e-07)
(-3.87888e-07 2.97137e-09 -3.94391e-09 2.886e-07 -1.29294e-07 2.39692e-07)
(-3.87757e-07 -3.2597e-09 6.12221e-09 2.81131e-07 -1.27271e-07 2.35017e-07)
(-2.44434e-06 -4.67486e-09 6.80992e-09 2.32117e-07 -1.26787e-07 1.91721e-07)
(-2.59237e-06 -1.16358e-08 -6.68403e-09 2.20674e-07 -1.26036e-07 2.74539e-07)
(-3.35962e-07 -7.38884e-09 -3.95512e-09 2.21881e-07 -1.22926e-07 3.08347e-07)
(-3.35883e-07 6.83091e-09 5.84862e-09 2.14901e-07 -1.21139e-07 3.03213e-07)
(-2.55996e-06 1.10049e-08 7.36835e-09 1.9989e-07 -1.20418e-07 2.59581e-07)
(-2.75332e-06 -5.32428e-08 -6.01231e-09 1.5473e-08 -9.36373e-08 3.39166e-07)
(-1.81836e-07 -2.90096e-08 -3.11356e-09 -9.72733e-08 -9.07539e-08 3.72768e-07)
(-1.83471e-07 2.84014e-08 4.42437e-09 -1.01585e-07 -8.94415e-08 3.67244e-07)
(-2.72545e-06 5.13283e-08 6.46014e-09 -2.99859e-10 -8.93421e-08 3.23074e-07)
(-2.72024e-06 -7.82808e-08 -4.44102e-09 -2.94212e-06 -3.29777e-08 3.59363e-07)
(4.22492e-08 -3.91415e-08 -3.55988e-09 -3.02897e-06 -2.86469e-08 3.92756e-07)
(3.56729e-08 3.87837e-08 3.32802e-09 -3.01027e-06 -2.81791e-08 3.87049e-07)
(-2.7221e-06 7.59729e-08 4.20856e-09 -2.89561e-06 -3.13637e-08 3.42681e-07)
(-2.19467e-06 6.22148e-08 -4.71574e-09 5.67593e-07 -8.44037e-08 1.92284e-08)
(-1.99971e-07 -2.48382e-08 -3.19255e-09 3.75607e-07 -8.97504e-08 3.07563e-08)
(-2.0155e-07 2.73422e-08 4.32854e-09 3.69417e-07 -8.78705e-08 2.99804e-08)
(-2.178e-06 -6.1316e-08 5.01652e-09 5.50981e-07 -7.87258e-08 1.69947e-08)
(-2.23894e-06 3.48424e-09 -7.25068e-09 2.69895e-07 -9.34211e-08 6.15985e-08)
(-3.60068e-07 -6.82845e-09 -5.15956e-09 3.64957e-07 -9.41463e-08 8.2293e-08)
(-3.6143e-07 6.63992e-09 7.23798e-09 3.57188e-07 -9.22434e-08 8.03533e-08)
(-2.21829e-06 -3.30675e-09 7.90024e-09 2.45238e-07 -8.76183e-08 5.60484e-08)
(-2.28105e-06 -3.48293e-09 -7.48193e-09 2.68091e-07 -1.01783e-07 1.07338e-07)
(-3.94114e-07 -4.25369e-09 -5.41978e-09 3.31856e-07 -1.00251e-07 1.30525e-07)
(-3.95028e-07 3.59667e-09 7.63165e-09 3.2405e-07 -9.8396e-08 1.27739e-07)
(-2.25787e-06 3.38688e-09 8.21676e-09 2.44404e-07 -9.607e-08 9.93003e-08)
(-2.32788e-06 2.27377e-09 -7.74562e-09 2.53506e-07 -1.08518e-07 1.58461e-07)
(-3.94974e-07 8.111e-10 -5.60371e-09 2.93374e-07 -1.05672e-07 1.81542e-07)
(-3.95564e-07 -1.45558e-09 7.64115e-09 2.85753e-07 -1.03888e-07 1.78101e-07)
(-2.30218e-06 -2.40997e-09 8.43158e-09 2.30712e-07 -1.02995e-07 1.48449e-07)
(-2.39971e-06 3.78972e-09 -8.37203e-09 2.22846e-07 -1.08627e-07 2.14199e-07)
(-3.84637e-07 2.56974e-09 -5.93736e-09 2.57687e-07 -1.05443e-07 2.3641e-07)
(-3.84936e-07 -3.24316e-09 7.73243e-09 2.50234e-07 -1.03766e-07 2.32427e-07)
(-2.37145e-06 -4.01155e-09 8.96833e-09 2.00806e-07 -1.03435e-07 2.02544e-07)
(-2.51325e-06 -1.15685e-08 -8.85623e-09 1.92871e-07 -9.49853e-08 2.67772e-07)
(-3.30264e-07 -6.95278e-09 -6.04872e-09 1.95394e-07 -9.23697e-08 2.89145e-07)
(-3.30598e-07 6.22896e-09 7.5465e-09 1.8839e-07 -9.09001e-08 2.84707e-07)
(-2.48343e-06 1.08741e-08 9.33573e-09 1.71932e-07 -9.0379e-08 2.54738e-07)
(-2.67163e-06 -5.08735e-08 -8.4757e-09 4.45877e-09 -6.34716e-08 3.03355e-07)
(-1.77877e-07 -2.71574e-08 -5.6778e-09 -1.01029e-07 -6.12026e-08 3.24274e-07)
(-1.79917e-07 2.65307e-08 6.59529e-09 -1.05436e-07 -6.01461e-08 3.19511e-07)
(-2.6462e-06 4.89584e-08 8.72262e-09 -1.16157e-08 -5.9992e-08 2.89292e-07)
(-2.64848e-06 -7.41889e-08 -7.82695e-09 -2.87485e-06 -2.01699e-08 3.01647e-07)
(4.1131e-08 -3.67125e-08 -6.44149e-09 -2.94516e-06 -1.72262e-08 3.2327e-07)
(3.41512e-08 3.63189e-08 5.96504e-09 -2.92663e-06 -1.68566e-08 3.18429e-07)
(-2.65199e-06 7.18634e-08 7.467e-09 -2.82884e-06 -1.88625e-08 2.87226e-07)
(-2.15129e-06 5.93246e-08 -2.85951e-09 5.54211e-07 -6.32149e-08 2.0908e-08)
(-1.93694e-07 -2.68175e-08 -1.88426e-09 3.64926e-07 -6.33156e-08 2.57024e-08)
(-1.95654e-07 2.86089e-08 2.66792e-09 3.59389e-07 -6.20857e-08 2.51057e-08)
(-2.13707e-06 -5.89331e-08 3.06884e-09 5.40024e-07 -5.95481e-08 1.92111e-08)
(-2.19417e-06 2.49681e-09 -4.79445e-09 2.56244e-07 -7.03224e-08 6.73014e-08)
(-3.48528e-07 -7.79252e-09 -3.33461e-09 3.50898e-07 -6.85475e-08 7.54295e-08)
(-3.50381e-07 7.03463e-09 4.81792e-09 3.43609e-07 -6.72575e-08 7.38919e-08)
(-2.176e-06 -2.56611e-09 5.26187e-09 2.32888e-07 -6.64294e-08 6.29333e-08)
(-2.23573e-06 -3.85995e-09 -5.23163e-09 2.50473e-07 -7.65454e-08 1.16083e-07)
(-3.81141e-07 -4.68169e-09 -3.67177e-09 3.1431e-07 -7.43852e-08 1.2481e-07)
(-3.82483e-07 3.56061e-09 5.29363e-09 3.06745e-07 -7.30828e-08 1.22538e-07)
(-2.21491e-06 3.59397e-09 5.77415e-09 2.27401e-07 -7.25699e-08 1.09559e-07)
(-2.28159e-06 1.85745e-09 -5.44778e-09 2.33358e-07 -8.02116e-08 1.66443e-07)
(-3.808e-07 4.93902e-10 -3.79979e-09 2.73462e-07 -7.78717e-08 1.74638e-07)
(-3.81762e-07 -1.48778e-09 5.31758e-09 2.6593e-07 -7.65866e-08 1.71753e-07)
(-2.25814e-06 -2.12365e-09 5.96283e-09 2.1076e-07 -7.62597e-08 1.58071e-07)
(-2.35165e-06 3.36023e-09 -5.7766e-09 2.04178e-07 -7.7449e-08 2.15301e-07)
(-3.68503e-07 2.3744e-09 -3.96714e-09 2.38985e-07 -7.51814e-08 2.22502e-07)
(-3.69142e-07 -3.26984e-09 5.30308e-09 2.31546e-07 -7.39581e-08 2.19084e-07)
(-2.32557e-06 -3.66729e-09 6.22436e-09 1.82116e-07 -7.36708e-08 2.05301e-07)
(-2.46312e-06 -1.14551e-08 -6.00756e-09 1.8102e-07 -6.43945e-08 2.55144e-07)
(-3.12719e-07 -6.66352e-09 -4.02782e-09 1.84237e-07 -6.26204e-08 2.61365e-07)
(-3.13378e-07 5.84001e-09 5.11628e-09 1.77207e-07 -6.15453e-08 2.575e-07)
(-2.43545e-06 1.0724e-08 6.3581e-09 1.59961e-07 -6.10192e-08 2.43756e-07)
(-2.62008e-06 -4.94207e-08 -5.77919e-09 2.40155e-09 -4.07932e-08 2.75017e-07)
(-1.61496e-07 -2.60597e-08 -3.88843e-09 -9.8913e-08 -3.9412e-08 2.80722e-07)
(-1.63849e-07 2.5416e-08 4.49918e-09 -1.03392e-07 -3.86421e-08 2.76558e-07)
(-2.59669e-06 4.75058e-08 5.93827e-09 -1.3878e-08 -3.82417e-08 2.62631e-07)
(-2.60228e-06 -7.1785e-08 -5.50355e-09 -2.83656e-06 -1.26646e-08 2.66408e-07)
(5.45456e-08 -3.53093e-08 -4.54097e-09 -2.89824e-06 -1.10379e-08 2.72936e-07)
(4.72585e-08 3.48905e-08 4.05302e-09 -2.87987e-06 -1.07675e-08 2.68752e-07)
(-2.60734e-06 6.9451e-08 5.18565e-09 -2.79099e-06 -1.16977e-08 2.53782e-07)
(-2.12712e-06 5.73665e-08 -1.38618e-09 5.43036e-07 -3.90913e-08 2.30598e-08)
(-1.89409e-07 -2.81917e-08 -8.32654e-10 3.56182e-07 -3.8174e-08 2.4542e-08)
(-1.91602e-07 2.96188e-08 1.28943e-09 3.5107e-07 -3.74801e-08 2.40504e-08)
(-2.11452e-06 -5.72541e-08 1.50988e-09 5.30383e-07 -3.70447e-08 2.1692e-08)
(-2.16873e-06 1.75799e-09 -2.35787e-09 2.45051e-07 -4.34421e-08 7.17501e-08)
(-3.39821e-07 -8.46531e-09 -1.51482e-09 3.39529e-07 -4.17306e-08 7.33901e-08)
(-3.41979e-07 7.41679e-09 2.39888e-09 3.32561e-07 -4.09882e-08 7.20989e-08)
(-2.15223e-06 -1.95512e-09 2.64031e-09 2.22576e-07 -4.12181e-08 6.81357e-08)
(-2.20944e-06 -4.16914e-09 -2.64366e-09 2.37618e-07 -4.70382e-08 1.21194e-07)
(-3.70519e-07 -4.97016e-09 -1.7094e-09 3.01192e-07 -4.53954e-08 1.22156e-07)
(-3.72134e-07 3.60522e-09 2.69529e-09 2.93802e-07 -4.46304e-08 1.20208e-07)
(-2.19024e-06 3.81512e-09 2.97762e-09 2.15011e-07 -4.47149e-08 1.15667e-07)
(-2.2545e-06 1.61915e-09 -2.78743e-09 2.20498e-07 -4.85441e-08 1.69338e-07)
(-3.69035e-07 3.30937e-10 -1.78509e-09 2.60444e-07 -4.70354e-08 1.69389e-07)
(-3.70235e-07 -1.5175e-09 2.72027e-09 2.52986e-07 -4.62679e-08 1.66866e-07)
(-2.2326e-06 -1.95598e-09 3.10902e-09 1.98085e-07 -4.61908e-08 1.62076e-07)
(-2.32353e-06 3.16704e-09 -2.94348e-09 1.94144e-07 -4.57538e-08 2.12194e-07)
(-3.55629e-07 2.30223e-09 -1.85925e-09 2.28753e-07 -4.44291e-08 2.11236e-07)
(-3.56485e-07 -3.32829e-09 2.68463e-09 2.21331e-07 -4.36906e-08 2.08193e-07)
(-2.29895e-06 -3.52352e-09 3.22439e-09 1.72102e-07 -4.34744e-08 2.03338e-07)
(-2.43394e-06 -1.13481e-08 -3.03541e-09 1.76037e-07 -3.70013e-08 2.43318e-07)
(-2.99224e-07 -6.48524e-09 -1.88413e-09 1.7948e-07 -3.6029e-08 2.41476e-07)
(-3.00089e-07 5.59594e-09 2.54832e-09 1.72437e-07 -3.53768e-08 2.3799e-07)
(-2.40774e-06 1.05931e-08 3.25294e-09 1.54922e-07 -3.49493e-08 2.33072e-07)
(-2.59018e-06 -4.86259e-08 -2.91488e-09 2.37111e-09 -2.29243e-08 2.55483e-07)
(-1.48797e-07 -2.54893e-08 -1.84645e-09 -9.69292e-08 -2.22518e-08 2.53233e-07)
(-1.51348e-07 2.48283e-08 2.19879e-09 -1.01448e-07 -2.17841e-08 2.4946e-07)
(-2.56819e-06 4.67092e-08 3.00729e-09 -1.40186e-08 -2.13672e-08 2.44242e-07)
(-2.57522e-06 -7.05331e-08 -2.78419e-09 -2.81544e-06 -7.10117e-09 2.44378e-07)
(6.54914e-08 -3.46042e-08 -2.24635e-09 -2.87325e-06 -6.35562e-09 2.42824e-07)
(5.80138e-08 3.41683e-08 1.89751e-09 -2.85499e-06 -6.19066e-09 2.39068e-07)
(-2.58139e-06 6.81943e-08 2.57256e-09 -2.77018e-06 -6.50729e-09 2.32966e-07)
(-2.11628e-06 5.64856e-08 -4.03744e-10 5.36851e-07 -1.32171e-08 2.42941e-08)
(-1.87454e-07 -2.87839e-08 -2.22679e-10 3.51294e-07 -1.28037e-08 2.46559e-08)
(-1.89758e-07 3.00596e-08 3.72576e-10 3.46391e-07 -1.25797e-08 2.42141e-08)
(-2.10449e-06 -5.64963e-08 4.44526e-10 5.24939e-07 -1.25601e-08 2.30839e-08)
(-2.15727e-06 1.42916e-09 -6.79532e-10 2.3889e-07 -1.46616e-08 7.39844e-08)
(-3.35752e-07 -8.75394e-09 -4.03732e-10 3.3333e-07 -1.40177e-08 7.34039e-08)
(-3.38056e-07 7.58421e-09 6.9696e-10 3.26522e-07 -1.37758e-08 7.2231e-08)
(-2.14161e-06 -1.68018e-09 7.73728e-10 2.16857e-07 -1.39395e-08 7.07367e-08)
(-2.1975e-06 -4.31979e-09 -7.6856e-10 2.31005e-07 -1.58174e-08 1.23295e-07)
(-3.65383e-07 -5.0998e-09 -4.59304e-10 2.94402e-07 -1.52255e-08 1.21528e-07)
(-3.67129e-07 3.6301e-09 7.895e-10 2.87102e-07 -1.49737e-08 1.19739e-07)
(-2.17911e-06 3.92834e-09 8.80981e-10 2.08644e-07 -1.50545e-08 1.18259e-07)
(-2.24212e-06 1.51024e-09 -8.1753e-10 2.1438e-07 -1.61886e-08 1.69841e-07)
(-3.63249e-07 2.61839e-10 -4.83399e-10 2.54176e-07 -1.56718e-08 1.66983e-07)
(-3.64566e-07 -1.53495e-09 7.98779e-10 2.46759e-07 -1.54171e-08 1.64638e-07)
(-2.221e-06 -1.87856e-09 9.26548e-10 1.92075e-07 -1.54086e-08 1.63135e-07)
(-2.31068e-06 3.09295e-09 -8.64196e-10 1.89794e-07 -1.508e-08 2.09472e-07)
(-3.49336e-07 2.27955e-09 -5.04814e-10 2.24249e-07 -1.4647e-08 2.05619e-07)
(-3.50299e-07 -3.36775e-09 7.83583e-10 2.1684e-07 -1.44005e-08 2.02762e-07)
(-2.28686e-06 -3.47281e-09 9.59618e-10 1.67777e-07 -1.4319e-08 2.01194e-07)
(-2.42064e-06 -1.12895e-08 -8.88537e-10 1.74151e-07 -1.20513e-08 2.36557e-07)
(-2.92714e-07 -6.4033e-09 -5.12065e-10 1.77625e-07 -1.17467e-08 2.31919e-07)
(-2.93679e-07 5.47977e-09 7.34938e-10 1.70579e-07 -1.15283e-08 2.28622e-07)
(-2.39518e-06 1.05221e-08 9.61955e-10 1.53019e-07 -1.1363e-08 2.26887e-07)
(-2.57659e-06 -4.82799e-08 -8.51342e-10 2.5695e-09 -7.4105e-09 2.45555e-07)
(-1.42701e-07 -2.52529e-08 -5.07072e-10 -9.59606e-08 -7.2166e-09 2.40608e-07)
(-1.45347e-07 2.45804e-08 6.21564e-10 -1.00497e-07 -7.05971e-09 2.3703e-07)
(-2.55531e-06 4.63612e-08 8.81244e-10 -1.38654e-08 -6.88687e-09 2.34892e-07)
(-2.56289e-06 -7.00086e-08 -8.09767e-10 -2.80593e-06 -2.2955e-09 2.3352e-07)
(7.07393e-08 -3.43195e-08 -6.38815e-10 -2.86234e-06 -2.08702e-09 2.29173e-07)
(6.31702e-08 3.38744e-08 5.12269e-10 -2.84414e-06 -2.03156e-09 2.25626e-07)
(-2.56963e-06 6.76674e-08 7.35204e-10 -2.76082e-06 -2.09512e-09 2.22716e-07)
)
;

boundaryField
{
    interface
    {
        type            calculated;
        value           nonuniform List<symmTensor> 
192
(
(-5.14177e-06 1.07489e-12 3.60286e-11 6.3788e-07 -6.69168e-08 -2.85748e-06)
(-5.00236e-06 -3.62895e-13 4.55342e-11 1.16412e-07 -5.43035e-08 -2.80494e-06)
(-5.07529e-06 -2.35974e-12 4.58613e-11 2.038e-07 -3.9653e-08 -2.83333e-06)
(-5.17284e-06 -4.36978e-12 4.4949e-11 2.8132e-07 -3.38765e-08 -2.8756e-06)
(-5.31963e-06 -6.54028e-12 4.32231e-11 3.54806e-07 -3.88268e-08 -2.9436e-06)
(-5.57529e-06 -1.09852e-11 4.09586e-11 4.57406e-07 -6.05467e-08 -3.05876e-06)
(-5.98951e-06 -1.38917e-11 3.64808e-11 3.81488e-07 -1.01696e-07 -3.2165e-06)
(-6.00786e-06 -3.06547e-11 3.24917e-11 -3.10705e-06 -1.1458e-07 -3.10681e-06)
(-4.92562e-06 5.37146e-13 1.91987e-11 5.96071e-07 -2.00643e-07 -5.27743e-08)
(-4.81629e-06 -1.01353e-12 2.48482e-11 2.48741e-07 -1.22067e-07 -5.40647e-08)
(-4.8748e-06 -3.09347e-12 2.48436e-11 2.67751e-07 -9.88156e-08 -3.52859e-08)
(-4.97258e-06 -5.4205e-12 2.4052e-11 3.04363e-07 -9.542e-08 -1.78966e-08)
(-5.13143e-06 -7.94626e-12 2.27419e-11 3.42531e-07 -1.07596e-07 3.49852e-09)
(-5.41393e-06 -1.31202e-11 2.10714e-11 3.74904e-07 -1.32462e-07 5.2255e-08)
(-5.88514e-06 -1.63645e-11 1.82618e-11 1.74061e-07 -1.47725e-07 1.735e-07)
(-5.9896e-06 -3.46463e-11 1.57929e-11 -3.21664e-06 -1.01402e-07 3.81617e-07)
(-4.45713e-06 5.63915e-13 1.58569e-11 5.84814e-07 -1.30959e-07 4.7226e-08)
(-4.37768e-06 -1.24913e-12 2.0378e-11 2.82711e-07 -1.22994e-07 7.53099e-08)
(-4.4362e-06 -3.67741e-12 2.0379e-11 2.92451e-07 -1.20862e-07 1.0559e-07)
(-4.52959e-06 -6.40405e-12 1.97344e-11 3.01313e-07 -1.26375e-07 1.42638e-07)
(-4.68205e-06 -9.38537e-12 1.86648e-11 2.98379e-07 -1.37926e-07 1.91255e-07)
(-4.95512e-06 -1.53212e-11 1.72617e-11 2.79491e-07 -1.46055e-07 2.66273e-07)
(-5.41518e-06 -1.91696e-11 1.50531e-11 5.70858e-08 -1.28671e-07 3.72618e-07)
(-5.57604e-06 -3.91313e-11 1.29245e-11 -3.05805e-06 -5.87245e-08 4.57833e-07)
(-4.19208e-06 3.98279e-13 1.04892e-11 5.7877e-07 -1.03256e-07 2.35544e-08)
(-4.11797e-06 -1.57324e-12 1.36546e-11 2.81532e-07 -1.11081e-07 6.01302e-08)
(-4.17818e-06 -4.18504e-12 1.36156e-11 2.85888e-07 -1.1859e-07 9.93831e-08)
(-4.26993e-06 -7.14796e-12 1.3116e-11 2.79034e-07 -1.2729e-07 1.46942e-07)
(-4.41838e-06 -1.04003e-11 1.2329e-11 2.54084e-07 -1.33118e-07 2.05332e-07)
(-4.68472e-06 -1.67323e-11 1.13162e-11 2.20674e-07 -1.26036e-07 2.74539e-07)
(-5.13557e-06 -2.08461e-11 9.85548e-12 1.5473e-08 -9.36373e-08 3.39166e-07)
(-5.32281e-06 -4.14271e-11 8.45816e-12 -2.94212e-06 -3.29777e-08 3.59363e-07)
(-4.04957e-06 3.62478e-13 7.74057e-12 5.67593e-07 -8.44037e-08 1.92284e-08)
(-3.97769e-06 -1.75724e-12 1.00605e-11 2.69895e-07 -9.34211e-08 6.15985e-08)
(-4.03843e-06 -4.553e-12 1.00389e-11 2.68091e-07 -1.01783e-07 1.07338e-07)
(-4.12917e-06 -7.71095e-12 9.67532e-12 2.53506e-07 -1.08518e-07 1.58461e-07)
(-4.27521e-06 -1.11865e-11 9.10302e-12 2.22846e-07 -1.08627e-07 2.14199e-07)
(-4.53757e-06 -1.78156e-11 8.35743e-12 1.92871e-07 -9.49853e-08 2.67772e-07)
(-4.98274e-06 -2.21654e-11 7.32291e-12 4.45877e-09 -6.34716e-08 3.03355e-07)
(-5.1831e-06 -4.32175e-11 6.29005e-12 -2.87485e-06 -2.01699e-08 3.01647e-07)
(-3.96954e-06 3.23264e-13 5.07984e-12 5.54211e-07 -6.32149e-08 2.0908e-08)
(-3.8993e-06 -1.89939e-12 6.63342e-12 2.56244e-07 -7.03224e-08 6.73014e-08)
(-3.95999e-06 -4.81861e-12 6.61865e-12 2.50473e-07 -7.65454e-08 1.16083e-07)
(-4.04993e-06 -8.10466e-12 6.37513e-12 2.33358e-07 -8.02116e-08 1.66443e-07)
(-4.19445e-06 -1.1727e-11 5.99742e-12 2.04178e-07 -7.7449e-08 2.15301e-07)
(-4.45448e-06 -1.85367e-11 5.50628e-12 1.8102e-07 -6.43945e-08 2.55144e-07)
(-4.89626e-06 -2.3027e-11 4.8491e-12 2.40155e-09 -4.07932e-08 2.75017e-07)
(-5.10325e-06 -4.43533e-11 4.19048e-12 -2.83656e-06 -1.26646e-08 2.66408e-07)
(-3.92559e-06 3.12389e-13 2.9378e-12 5.43036e-07 -3.90913e-08 2.30598e-08)
(-3.85637e-06 -1.97898e-12 3.84333e-12 2.45051e-07 -4.34421e-08 7.17501e-08)
(-3.91686e-06 -4.98114e-12 3.84134e-12 2.37618e-07 -4.70382e-08 1.21194e-07)
(-4.00623e-06 -8.34871e-12 3.7061e-12 2.20498e-07 -4.85441e-08 1.69338e-07)
(-4.14986e-06 -1.20644e-11 3.49678e-12 1.94144e-07 -4.57538e-08 2.12194e-07)
(-4.40859e-06 -1.89839e-11 3.21842e-12 1.76037e-07 -3.70013e-08 2.43318e-07)
(-4.84846e-06 -2.35633e-11 2.85796e-12 2.37111e-09 -2.29243e-08 2.55483e-07)
(-5.05875e-06 -4.50598e-11 2.48107e-12 -2.81544e-06 -7.10117e-09 2.44378e-07)
(-3.90596e-06 3.08836e-13 9.61363e-13 5.36851e-07 -1.32171e-08 2.42941e-08)
(-3.8372e-06 -2.01442e-12 1.26186e-12 2.3889e-07 -1.46616e-08 7.39844e-08)
(-3.89756e-06 -5.05502e-12 1.26284e-12 2.31005e-07 -1.58174e-08 1.23295e-07)
(-3.98663e-06 -8.45943e-12 1.21953e-12 2.1438e-07 -1.61886e-08 1.69841e-07)
(-4.12984e-06 -1.22208e-11 1.15343e-12 1.89794e-07 -1.508e-08 2.09472e-07)
(-4.388e-06 -1.91878e-11 1.06266e-12 1.74151e-07 -1.20513e-08 2.36557e-07)
(-4.82702e-06 -2.38138e-11 9.50649e-13 2.5695e-09 -7.4105e-09 2.45555e-07)
(-5.03869e-06 -4.53884e-11 8.25838e-13 -2.80593e-06 -2.2955e-09 2.3352e-07)
(-2.62262e-06 -3.72113e-08 -5.88429e-11 6.3788e-07 -2.57907e-12 -5.54328e-06)
(-2.55105e-06 -1.78248e-08 -7.53125e-11 1.16412e-07 -2.38338e-12 -5.41273e-06)
(-2.58665e-06 -9.58465e-11 -7.63649e-11 2.038e-07 -1.60292e-12 -5.4816e-06)
(-2.6413e-06 7.78169e-09 -7.57559e-11 2.8132e-07 -1.58083e-12 -5.57115e-06)
(-2.71747e-06 5.61592e-09 -7.45492e-11 3.54806e-07 -1.71539e-12 -5.71045e-06)
(-2.82642e-06 -1.57501e-08 -7.31428e-11 4.57406e-07 -2.20984e-12 -5.965e-06)
(-2.95929e-06 -6.35579e-08 -7.08285e-11 3.81488e-07 -2.36284e-12 -6.39351e-06)
(-2.82532e-06 -9.01267e-08 -7.03863e-11 -3.10705e-06 -3.22782e-12 -6.45691e-06)
(2.86387e-08 -7.95878e-08 -4.83931e-11 5.02752e-07 -9.05681e-13 -5.45877e-06)
(4.99415e-08 -1.56857e-08 -6.36381e-11 1.89387e-07 -8.99743e-13 -5.3735e-06)
(5.1761e-08 1.9265e-09 -6.44492e-11 2.38975e-07 -5.26224e-13 -5.43487e-06)
(4.29277e-08 7.73786e-09 -6.39192e-11 3.09108e-07 -3.93643e-13 -5.53044e-06)
(4.43269e-08 5.77134e-09 -6.31329e-11 3.88168e-07 -3.03112e-13 -5.69018e-06)
(1.02887e-07 -9.20159e-09 -6.23361e-11 4.56338e-07 -3.4988e-13 -5.98246e-06)
(2.79186e-07 -3.53612e-08 -6.12673e-11 2.54883e-07 -3.46e-13 -6.47477e-06)
(5.32735e-07 -4.55741e-08 -6.18222e-11 -3.27859e-06 -5.42092e-13 -6.58382e-06)
(2.4218e-08 1.01136e-07 -5.02963e-11 4.96094e-07 -5.08429e-13 -5.4238e-06)
(4.40769e-08 3.01087e-08 -6.59926e-11 1.80327e-07 -2.47755e-13 -5.33479e-06)
(4.58082e-08 8.67723e-09 -6.69204e-11 2.29947e-07 2.26459e-13 -5.39513e-06)
(3.69594e-08 1.87635e-10 -6.63521e-11 3.0062e-07 6.15214e-13 -5.49045e-06)
(3.84079e-08 -1.36058e-10 -6.54339e-11 3.8e-07 1.00613e-12 -5.65019e-06)
(9.68307e-08 1.27318e-08 -6.43752e-11 4.48405e-07 1.39585e-12 -5.9427e-06)
(2.7163e-07 3.68271e-08 -6.29397e-11 2.48936e-07 1.72226e-12 -6.43583e-06)
(5.21044e-07 4.52992e-08 -6.29214e-11 -3.26437e-06 1.86711e-12 -6.55116e-06)
(-2.62669e-06 4.50949e-08 -5.80745e-11 6.13427e-07 -3.0838e-13 -5.44689e-06)
(-2.55491e-06 2.38552e-08 -7.55853e-11 8.75457e-08 2.19465e-13 -5.30876e-06)
(-2.58965e-06 4.62691e-09 -7.66521e-11 1.77607e-07 8.34367e-13 -5.37594e-06)
(-2.64315e-06 -4.3905e-09 -7.59415e-11 2.5723e-07 1.42358e-12 -5.46511e-06)
(-2.71819e-06 -3.22593e-09 -7.4637e-11 3.31801e-07 2.00966e-12 -5.6044e-06)
(-2.82734e-06 1.68941e-08 -7.30519e-11 4.34922e-07 2.7056e-12 -5.85911e-06)
(-2.96699e-06 6.27989e-08 -7.04514e-11 3.62902e-07 3.22544e-12 -6.28812e-06)
(-2.86439e-06 8.82913e-08 -6.9817e-11 -3.0677e-06 3.98081e-12 -6.36316e-06)
(-5.14107e-06 3.18285e-12 3.32993e-11 6.13427e-07 -5.98315e-08 -2.81056e-06)
(-4.99834e-06 1.017e-12 4.2882e-11 8.75457e-08 -4.99059e-08 -2.7556e-06)
(-5.06938e-06 -2.21852e-12 4.31147e-11 1.77607e-07 -3.63845e-08 -2.78402e-06)
(-5.16461e-06 -4.6994e-12 4.22895e-11 2.5723e-07 -3.11545e-08 -2.82669e-06)
(-5.30924e-06 -7.15911e-12 4.08611e-11 3.31801e-07 -3.64027e-08 -2.89503e-06)
(-5.56502e-06 -1.15574e-11 3.92333e-11 4.34922e-07 -5.82154e-08 -3.01049e-06)
(-5.98978e-06 -1.34856e-11 3.56136e-11 3.62902e-07 -9.92095e-08 -3.16901e-06)
(-6.06263e-06 -3.20806e-11 3.40692e-11 -3.0677e-06 -1.1243e-07 -3.067e-06)
(-4.8809e-06 8.7074e-13 1.43198e-11 5.68644e-07 -1.87083e-07 -5.64848e-08)
(-4.76721e-06 -8.00334e-13 1.97033e-11 2.20151e-07 -1.12592e-07 -6.16767e-08)
(-4.8229e-06 -3.15013e-12 1.95629e-11 2.42686e-07 -9.13972e-08 -4.5189e-08)
(-4.91706e-06 -5.50452e-12 1.89073e-11 2.81232e-07 -8.90597e-08 -2.92422e-08)
(-5.07194e-06 -7.88589e-12 1.80437e-11 3.20358e-07 -1.01822e-07 -8.79713e-09)
(-5.35197e-06 -1.25864e-11 1.72085e-11 3.53607e-07 -1.27087e-07 3.9189e-08)
(-5.83046e-06 -1.34892e-11 1.55361e-11 1.57962e-07 -1.43071e-07 1.59182e-07)
(-5.99007e-06 -3.36273e-11 1.55461e-11 -3.1699e-06 -9.90506e-08 3.64607e-07)
(-4.41029e-06 5.19093e-13 1.3897e-11 5.60728e-07 -1.19696e-07 4.30266e-08)
(-4.3246e-06 -1.3161e-12 1.85538e-11 2.54913e-07 -1.13362e-07 6.62813e-08)
(-4.3797e-06 -3.7427e-12 1.85752e-11 2.67682e-07 -1.12548e-07 9.36635e-08)
(-4.46909e-06 -6.32255e-12 1.80369e-11 2.78346e-07 -1.18947e-07 1.28844e-07)
(-4.6172e-06 -8.96391e-12 1.72314e-11 2.76444e-07 -1.3115e-07 1.76106e-07)
(-4.88724e-06 -1.41859e-11 1.62699e-11 2.58711e-07 -1.39954e-07 2.49913e-07)
(-5.35345e-06 -1.51494e-11 1.46731e-11 4.15374e-08 -1.23815e-07 3.54925e-07)
(-5.56633e-06 -3.72392e-11 1.36797e-11 -3.01109e-06 -5.67855e-08 4.38936e-07)
(-4.15029e-06 2.98027e-13 9.39449e-12 5.58779e-07 -9.50311e-08 2.05042e-08)
(-4.06904e-06 -1.68173e-12 1.27754e-11 2.55274e-07 -1.03196e-07 5.29405e-08)