/*--------------------------------*- C++ -*----------------------------------*\
| =========                 |                                                 |
| \\      /  F ield         | OpenFOAM: The Open Source CFD Toolbox           |
|  \\    /   O peration     | Version:  v1912                                 |
|   \\  /    A nd           | Website:  www.openfoam.com                      |
|    \\/     M anipulation  |                                                 |
\*---------------------------------------------------------------------------*/
FoamFile
{
    version     2.0;
    format      ascii;
    class       pointVectorField;
    location    "0.12/solid";
    object      pointD;
}
// * * * * * * * * * * * * * * * * * * * * * * * * * * * * * * * * * * * * * //

dimensions      [0 1 0 0 0 0 0];


internalField   nonuniform List<vector> 
405
(
(2.20014e-08 9.59489e-09 2.32245e-08)
(-4.28286e-11 5.85982e-09 3.47865e-08)
(1.89659e-10 5.08261e-09 3.50952e-08)
(3.64104e-10 5.91212e-09 3.45244e-08)
(-2.16941e-08 9.40747e-09 2.31692e-08)
(3.25141e-08 1.48497e-08 3.16742e-08)
(-6.36967e-11 1.21378e-08 6.60808e-08)
(7.37466e-10 1.08025e-08 6.70317e-08)
(1.40128e-09 1.19603e-08 6.57237e-08)
(-3.14166e-08 1.41154e-08 3.19169e-08)
(3.25645e-08 1.72816e-08 2.51525e-08)
(2.73816e-10 1.46171e-08 5.93404e-08)
(1.50122e-09 1.3698e-08 6.05748e-08)
(2.56782e-09 1.3904e-08 5.92859e-08)
(-3.00527e-08 1.56942e-08 2.59648e-08)
(3.40549e-08 2.23325e-08 1.82893e-08)
(1.1781e-09 1.98778e-08 5.29456e-08)
(2.37624e-09 1.92913e-08 5.42085e-08)
(3.41095e-09 1.86874e-08 5.3134e-08)
(-2.98471e-08 1.99879e-08 1.95356e-08)
(3.60371e-08 2.91296e-08 1.1233e-08)
(2.33939e-09 2.70667e-08 4.68897e-08)
(3.38056e-09 2.67918e-08 4.84375e-08)
(4.25844e-09 2.5447e-08 4.72744e-08)
(-2.98557e-08 2.60953e-08 1.28247e-08)
(3.75233e-08 3.72405e-08 4.00991e-09)
(2.84882e-09 3.58695e-08 4.13872e-08)
(4.51643e-09 3.59355e-08 4.34361e-08)
(6.01931e-09 3.38471e-08 4.19378e-08)
(-2.91074e-08 3.35562e-08 5.88987e-09)
(3.68149e-08 4.75475e-08 -3.62351e-09)
(1.28772e-09 4.66972e-08 3.6467e-08)
(5.78749e-09 4.65959e-08 3.91434e-08)
(1.01008e-08 4.42868e-08 3.71691e-08)
(-2.59689e-08 4.32427e-08 -1.48929e-09)
(3.14395e-08 5.75676e-08 -1.26252e-08)
(-2.69722e-09 5.58189e-08 2.93611e-08)
(7.19161e-09 5.398e-08 3.25013e-08)
(1.68211e-08 5.30783e-08 3.02572e-08)
(-1.81653e-08 5.2738e-08 -1.02272e-08)
(1.4805e-08 3.54977e-08 -3.13429e-08)
(-5.04274e-09 1.93824e-08 -1.59304e-08)
(8.06312e-09 1.5847e-08 -1.29459e-08)
(2.08604e-08 1.68838e-08 -1.45254e-08)
(9.31744e-11 3.10606e-08 -2.8747e-08)
(3.32523e-08 7.79269e-09 -4.73964e-10)
(0 0 0)
(0 0 0)
(0 0 0)
(-3.2947e-08 7.45194e-09 -2.14911e-10)
(6.64756e-08 1.67868e-08 -3.53032e-09)
(1.74566e-09 1.35297e-08 -5.28806e-09)
(4.94716e-10 1.15407e-08 -4.69394e-09)
(-8.36302e-10 1.31112e-08 -4.81171e-09)
(-6.53385e-08 1.56377e-08 -2.64589e-09)
(6.72269e-08 2.05021e-08 -9.5788e-09)
(2.62794e-09 1.91076e-08 -1.19947e-08)
(1.09278e-09 1.80181e-08 -1.13729e-08)
(-5.33823e-10 1.8216e-08 -1.11885e-08)
(-6.48777e-08 1.84666e-08 -8.05914e-09)
(6.91831e-08 2.63885e-08 -1.68258e-08)
(3.49995e-09 2.5516e-08 -1.92707e-08)
(1.84369e-09 2.48309e-08 -1.86172e-08)
(9.57033e-11 2.41943e-08 -1.82231e-08)
(-6.52993e-08 2.35523e-08 -1.48278e-08)
(7.18346e-08 3.35236e-08 -2.45872e-08)
(4.48032e-09 3.32012e-08 -2.68295e-08)
(2.74884e-09 3.27772e-08 -2.60168e-08)
(9.27154e-10 3.14814e-08 -2.55915e-08)
(-6.60998e-08 2.99457e-08 -2.22077e-08)
(7.46624e-08 4.12921e-08 -3.28705e-08)
(4.83328e-09 4.2335e-08 -3.48902e-08)
(3.80225e-09 4.22287e-08 -3.38471e-08)
(2.68077e-09 4.02334e-08 -3.34923e-08)
(-6.67947e-08 3.70133e-08 -3.0171e-08)
(7.6404e-08 5.00108e-08 -4.1732e-08)
(3.21553e-09 5.2728e-08 -4.36336e-08)
(5.00207e-09 5.25152e-08 -4.23808e-08)
(6.67713e-09 5.02572e-08 -4.20967e-08)
(-6.62271e-08 4.50775e-08 -3.87555e-08)
(7.30045e-08 5.66708e-08 -4.97175e-08)
(-6.86369e-10 5.80694e-08 -5.17031e-08)
(6.34403e-09 5.61873e-08 -5.03792e-08)
(1.31881e-08 5.53154e-08 -5.00549e-08)
(-6.06918e-08 5.12162e-08 -4.65135e-08)
(3.18871e-08 1.94206e-08 -5.36824e-08)
(-2.11146e-09 -2.30005e-08 -5.33371e-08)
(7.76494e-09 -2.67039e-08 -5.20409e-08)
(1.73874e-08 -2.50138e-08 -5.16736e-08)
(-1.77409e-08 1.50556e-08 -5.07805e-08)
(3.31268e-08 8.15208e-09 -1.27705e-09)
(0 0 0)
(0 0 0)
(0 0 0)
(-3.27377e-08 7.87606e-09 -1.07573e-09)
(6.77378e-08 1.7826e-08 -5.16934e-09)
(5.18712e-09 1.25475e-08 -7.74087e-09)
(3.06906e-10 1.02314e-08 -8.27671e-09)
(-4.59401e-09 1.2123e-08 -7.34792e-09)
(-6.656e-08 1.68102e-08 -4.46578e-09)
(7.00877e-08 2.22861e-08 -1.09965e-08)
(7.03116e-09 2.03381e-08 -1.43986e-08)
(7.63279e-10 1.90562e-08 -1.50873e-08)
(-5.52412e-09 1.94479e-08 -1.37254e-08)
(-6.79422e-08 2.03891e-08 -9.7609e-09)
(7.2004e-08 2.88747e-08 -1.77669e-08)
(7.89608e-09 2.79918e-08 -2.1222e-08)
(1.39951e-09 2.72558e-08 -2.18862e-08)
(-5.11422e-09 2.66849e-08 -2.03383e-08)
(-6.8538e-08 2.61769e-08 -1.61133e-08)
(7.44925e-08 3.62536e-08 -2.5041e-08)
(8.73055e-09 3.59737e-08 -2.83492e-08)
(2.20921e-09 3.55501e-08 -2.89122e-08)
(-4.32579e-09 3.42801e-08 -2.7295e-08)
(-6.93503e-08 3.28115e-08 -2.3043e-08)
(7.73861e-08 4.34073e-08 -3.24551e-08)
(9.04794e-09 4.44056e-08 -3.56428e-08)
(3.1825e-09 4.43069e-08 -3.60891e-08)
(-2.69543e-09 4.23408e-08 -3.44433e-08)
(-7.02518e-08 3.92651e-08 -3.0163e-08)
(7.95196e-08 4.99833e-08 -3.91986e-08)
(7.53648e-09 5.25798e-08 -4.23765e-08)
(4.31468e-09 5.23853e-08 -4.27339e-08)
(1.05849e-09 5.01619e-08 -4.10561e-08)
(-7.01895e-08 4.52001e-08 -3.66586e-08)
(7.70274e-08 5.2589e-08 -4.30546e-08)
(3.82627e-09 5.38917e-08 -4.6361e-08)
(5.59982e-09 5.20638e-08 -4.66911e-08)
(7.25802e-09 5.12201e-08 -4.49657e-08)
(-6.56658e-08 4.7316e-08 -4.03403e-08)
(3.789e-08 1.43343e-08 -4.36703e-08)
(2.49754e-09 -2.62052e-08 -4.42419e-08)
(6.96963e-09 -2.94657e-08 -4.46659e-08)
(1.12541e-08 -2.80605e-08 -4.28751e-08)
(-2.49752e-08 1.0179e-08 -4.12579e-08)
(3.16267e-08 8.54245e-09 -1.16911e-09)
(0 0 0)
(0 0 0)
(0 0 0)
(-3.13021e-08 8.35595e-09 -1.02496e-09)
(6.56513e-08 1.84482e-08 -4.88266e-09)
(6.86396e-09 1.21785e-08 -6.1815e-09)
(1.94097e-10 9.7182e-09 -6.71656e-09)
(-6.49157e-09 1.1809e-08 -5.89812e-09)
(-6.4699e-08 1.76304e-08 -4.36894e-09)
(6.90825e-08 2.27412e-08 -1.02756e-08)
(9.35954e-09 2.04179e-08 -1.20728e-08)
(5.42183e-10 1.90358e-08 -1.27403e-08)
(-8.28376e-09 1.96024e-08 -1.15739e-08)
(-6.73549e-08 2.10646e-08 -9.35321e-09)
(7.10652e-08 2.92686e-08 -1.62049e-08)
(1.02574e-08 2.83928e-08 -1.804e-08)
(1.08074e-09 2.7654e-08 -1.86784e-08)
(-8.09891e-09 2.71682e-08 -1.73704e-08)
(-6.82006e-08 2.67912e-08 -1.49432e-08)
(7.33168e-08 3.62727e-08 -2.24054e-08)
(1.09433e-08 3.61084e-08 -2.41099e-08)
(1.80523e-09 3.57338e-08 -2.46676e-08)
(-7.33051e-09 3.44999e-08 -2.32968e-08)
(-6.89395e-08 3.30425e-08 -2.08517e-08)
(7.59745e-08 4.23681e-08 -2.83183e-08)
(1.11437e-08 4.34418e-08 -2.98846e-08)
(2.70532e-09 4.34011e-08 -3.03577e-08)
(-5.72864e-09 4.14652e-08 -2.89478e-08)
(-6.9746e-08 3.84301e-08 -2.65111e-08)
(7.79973e-08 4.7113e-08 -3.28611e-08)
(9.63143e-09 4.96998e-08 -3.43735e-08)
(3.77482e-09 4.95775e-08 -3.47856e-08)
(-2.09952e-09 4.73758e-08 -3.33375e-08)
(-6.96916e-08 4.25323e-08 -3.08445e-08)
(7.59342e-08 4.77545e-08 -3.43704e-08)
(6.06048e-09 4.91364e-08 -3.59778e-08)
(5.00572e-09 4.74899e-08 -3.63831e-08)
(3.85032e-09 4.65629e-08 -3.48889e-08)
(-6.5687e-08 4.26823e-08 -3.22181e-08)
(3.92677e-08 1.07421e-08 -3.34024e-08)
(4.71368e-09 -2.71201e-08 -3.34962e-08)
(6.32554e-09 -2.97872e-08 -3.4054e-08)
(7.76297e-09 -2.88756e-08 -3.24432e-08)
(-2.75591e-08 6.75803e-09 -3.1515e-08)
(3.04374e-08 8.55966e-09 -1.09968e-09)
(0 0 0)
(0 0 0)
(0 0 0)
(-3.01871e-08 8.44562e-09 -1.00075e-09)
(6.35009e-08 1.8395e-08 -4.5025e-09)
(7.15965e-09 1.19267e-08 -4.82686e-09)
(1.27686e-10 9.44111e-09 -5.07562e-09)
(-6.93355e-09 1.16152e-08 -4.62976e-09)
(-6.2769e-08 1.77484e-08 -4.14457e-09)
(6.72377e-08 2.24385e-08 -9.20854e-09)
(9.83298e-09 2.001e-08 -9.663e-09)
(3.99063e-10 1.86141e-08 -9.95209e-09)
(-9.05572e-09 1.92794e-08 -9.30899e-09)
(-6.58752e-08 2.09693e-08 -8.55408e-09)
(6.92351e-08 2.85536e-08 -1.40889e-08)
(1.0721e-08 2.7722e-08 -1.45223e-08)
(8.6099e-10 2.7014e-08 -1.47697e-08)
(-9.01141e-09 2.65921e-08 -1.40381e-08)
(-6.68797e-08 2.62937e-08 -1.3176e-08)
(7.13019e-08 3.49102e-08 -1.89491e-08)
(1.12809e-08 3.48686e-08 -1.92723e-08)
(1.51476e-09 3.45547e-08 -1.94509e-08)
(-8.25685e-09 3.33572e-08 -1.86746e-08)
(-6.757e-08 3.18939e-08 -1.78043e-08)
(7.37226e-08 4.00828e-08 -2.32633e-08)
(1.13442e-08 4.12637e-08 -2.34602e-08)
(2.35203e-09 4.129e-08 -2.35685e-08)
(-6.6428e-09 3.9384e-08 -2.27632e-08)
(-6.82627e-08 3.63503e-08 -2.19131e-08)
(7.55945e-08 4.38227e-08 -2.61499e-08)
(9.77856e-09 4.64563e-08 -2.62809e-08)
(3.36644e-09 4.64185e-08 -2.63382e-08)
(-3.07024e-09 4.42284e-08 -2.55055e-08)
(-6.81642e-08 3.9439e-08 -2.46303e-08)
(7.37359e-08 4.38206e-08 -2.66414e-08)
(6.27554e-09 4.53415e-08 -2.68275e-08)
(4.54846e-09 4.38853e-08 -2.68842e-08)
(2.71369e-09 4.28601e-08 -2.60136e-08)
(-6.44472e-08 3.89344e-08 -2.50154e-08)
(3.84725e-08 7.8569e-09 -2.52899e-08)
(4.85634e-09 -2.83529e-08 -2.47887e-08)
(5.82304e-09 -3.05586e-08 -2.49814e-08)
(6.60758e-09 -3.00234e-08 -2.40097e-08)
(-2.77705e-08 4.0255e-09 -2.38754e-08)
(2.96339e-08 8.40184e-09 -9.06635e-10)
(0 0 0)
(0 0 0)
(0 0 0)
(-2.94405e-08 8.3381e-09 -8.42108e-10)
(6.18462e-08 1.79995e-08 -3.66293e-09)
(6.97702e-09 1.16396e-08 -3.61514e-09)
(8.78881e-11 9.18337e-09 -3.67947e-09)
(-6.84346e-09 1.13738e-08 -3.48365e-09)
(-6.12769e-08 1.74778e-08 -3.4264e-09)
(6.55185e-08 2.17797e-08 -7.37306e-09)
(9.58172e-09 1.94021e-08 -7.27703e-09)
(3.07651e-10 1.80375e-08 -7.3214e-09)
(-9.00061e-09 1.87421e-08 -7.03748e-09)
(-6.44198e-08 2.04722e-08 -6.9338e-09)
(6.74468e-08 2.74412e-08 -1.10685e-08)
(1.04077e-08 2.66816e-08 -1.09106e-08)
(7.13817e-10 2.60185e-08 -1.09078e-08)
(-9.00392e-09 2.56333e-08 -1.05782e-08)
(-6.54609e-08 2.53591e-08 -1.04454e-08)
(6.93741e-08 3.32085e-08 -1.45759e-08)
(1.0869e-08 3.32673e-08 -1.4331e-08)
(1.31325e-09 3.30092e-08 -1.42729e-08)
(-8.25803e-09 3.18406e-08 -1.39151e-08)
(-6.61164e-08 3.03718e-08 -1.37823e-08)
(7.16244e-08 3.77718e-08 -1.74995e-08)
(1.08262e-08 3.90404e-08 -1.71631e-08)
(2.10043e-09 3.91245e-08 -1.70517e-08)
(-6.6374e-09 3.72449e-08 -1.66731e-08)
(-6.67368e-08 3.42136e-08 -1.65513e-08)
(7.33849e-08 4.10668e-08 -1.92637e-08)
(9.20944e-09 4.37499e-08 -1.88775e-08)
(3.06972e-09 4.37822e-08 -1.8728e-08)
(-3.10367e-09 4.16043e-08 -1.8329e-08)
(-6.66147e-08 3.68497e-08 -1.81871e-08)
(7.16243e-08 4.09089e-08 -1.9355e-08)
(5.73393e-09 4.25431e-08 -1.89991e-08)
(4.21083e-09 4.12274e-08 -1.88499e-08)
(2.5711e-09 4.01397e-08 -1.84233e-08)
(-6.30677e-08 3.61798e-08 -1.81986e-08)
(3.71242e-08 5.60047e-09 -1.81617e-08)
(4.24707e-09 -2.96745e-08 -1.74682e-08)
(5.44706e-09 -3.15845e-08 -1.74109e-08)
(6.45563e-09 -3.12748e-08 -1.69221e-08)
(-2.7189e-08 1.89786e-09 -1.71608e-08)
(2.91414e-08 8.23889e-09 -6.3357e-10)
(0 0 0)
(0 0 0)
(0 0 0)
(-2.89859e-08 8.20701e-09 -5.95032e-10)
(6.07695e-08 1.75783e-08 -2.53816e-09)
(6.76129e-09 1.13647e-08 -2.43175e-09)
(6.47216e-11 8.9473e-09 -2.42866e-09)
(-6.68287e-09 1.11304e-08 -2.35152e-09)
(-6.03068e-08 1.71386e-08 -2.39548e-09)
(6.43025e-08 2.11036e-08 -5.06432e-09)
(9.25201e-09 1.8813e-08 -4.87938e-09)
(2.51954e-10 1.74885e-08 -4.84222e-09)
(-8.79165e-09 1.82031e-08 -4.73172e-09)
(-6.33753e-08 1.99074e-08 -4.79616e-09)
(6.61382e-08 2.63988e-08 -7.52006e-09)
(1.00053e-08 2.57104e-08 -7.27328e-09)
(6.20924e-10 2.50888e-08 -7.19692e-09)
(-8.79542e-09 2.47216e-08 -7.06618e-09)
(-6.43947e-08 2.44435e-08 -7.1348e-09)
(6.79652e-08 3.17538e-08 -9.77036e-09)
(1.03947e-08 3.1884e-08 -9.46295e-09)
(1.18245e-09 3.1669e-08 -9.34805e-09)
(-8.05271e-09 3.05201e-08 -9.20128e-09)
(-6.50231e-08 2.90485e-08 -9.2736e-09)
(7.01104e-08 3.59708e-08 -1.15621e-08)
(1.0284e-08 3.72968e-08 -1.11987e-08)
(1.93348e-09 3.74228e-08 -1.10489e-08)
(-6.43586e-09 3.55645e-08 -1.08879e-08)
(-6.5609e-08 3.25419e-08 -1.09624e-08)
(7.18041e-08 3.90855e-08 -1.25688e-08)
(8.63336e-09 4.18017e-08 -1.21759e-08)
(2.86939e-09 4.18813e-08 -1.20021e-08)
(-2.93476e-09 3.97178e-08 -1.18262e-08)
(-6.54852e-08 3.4993e-08 -1.18828e-08)
(7.00923e-08 3.89057e-08 -1.2531e-08)
(5.16877e-09 4.06075e-08 -1.21548e-08)
(3.97967e-09 3.93771e-08 -1.19814e-08)
(2.66764e-09 3.82632e-08 -1.17875e-08)
(-6.20424e-08 3.42954e-08 -1.17915e-08)
(3.60183e-08 3.97585e-09 -1.16964e-08)
(3.63916e-09 -3.07893e-08 -1.11281e-08)
(5.18673e-09 -3.25376e-08 -1.10065e-08)
(6.53639e-09 -3.2337e-08 -1.07823e-08)
(-2.66157e-08 3.70866e-10 -1.10585e-08)
(2.88814e-08 8.13335e-09 -3.23838e-10)
(0 0 0)
(0 0 0)
(0 0 0)
(-2.87475e-08 8.1189e-09 -3.05867e-10)
(6.01892e-08 1.72892e-08 -1.2903e-09)
(6.63047e-09 1.1171e-08 -1.22711e-09)
(5.27499e-11 8.78085e-09 -1.21566e-09)
(-6.58096e-09 1.09549e-08 -1.18916e-09)
(-5.97862e-08 1.68955e-08 -1.22335e-09)
(6.36248e-08 2.06286e-08 -2.56141e-09)
(9.04389e-09 1.8401e-08 -2.45132e-09)
(2.22175e-10 1.71055e-08 -2.41813e-09)
(-8.64843e-09 1.78206e-08 -2.38103e-09)
(-6.27933e-08 1.94967e-08 -2.43465e-09)
(6.53935e-08 2.56922e-08 -3.78095e-09)
(9.74615e-09 2.50524e-08 -3.63529e-09)
(5.69985e-10 2.44586e-08 -3.58055e-09)
(-8.64291e-09 2.40991e-08 -3.53607e-09)
(-6.37863e-08 2.3812e-08 -3.59735e-09)
(6.71598e-08 3.08144e-08 -4.87614e-09)
(1.00921e-08 3.09867e-08 -4.69947e-09)
(1.10925e-09 3.07984e-08 -4.62501e-09)
(-7.90065e-09 2.9661e-08 -4.57331e-09)
(-6.4397e-08 2.81882e-08 -4.63756e-09)
(6.92491e-08 3.48601e-08 -5.7252e-09)
(9.94417e-09 3.62176e-08 -5.5223e-09)
(1.83853e-09 3.63682e-08 -5.43076e-09)
(-6.28992e-09 3.45238e-08 -5.37166e-09)
(-6.49695e-08 3.15102e-08 -5.43525e-09)
(7.09089e-08 3.7905e-08 -6.18255e-09)
(8.27542e-09 4.06382e-08 -5.9665e-09)
(2.75395e-09 4.0744e-08 -5.86362e-09)
(-2.81144e-09 3.85923e-08 -5.79644e-09)
(-6.48516e-08 3.38893e-08 -5.84922e-09)
(6.9221e-08 3.773e-08 -6.13864e-09)
(4.81549e-09 3.94635e-08 -5.93035e-09)
(3.84507e-09 3.82762e-08 -5.82773e-09)
(2.74813e-09 3.71559e-08 -5.75165e-09)
(-6.14677e-08 3.31937e-08 -5.77841e-09)
(3.53682e-08 2.99676e-09 -5.71748e-09)
(3.26526e-09 -3.15174e-08 -5.41399e-09)
(5.03389e-09 -3.31907e-08 -5.33393e-09)
(6.60093e-09 -3.30324e-08 -5.2466e-09)
(-2.62782e-08 -5.4733e-10 -5.40739e-09)
(2.21262e-08 8.86159e-09 0)
(2.34731e-09 3.70319e-09 0)
(4.14412e-12 2.20131e-09 0)
(-2.36783e-09 3.68601e-09 0)
(-2.20745e-08 8.84686e-09 0)
(3.58111e-08 1.5305e-08 0)
(6.58913e-09 1.11018e-08 0)
(4.90667e-11 8.72106e-09 0)
(-6.5486e-09 1.08916e-08 0)
(-3.56278e-08 1.49666e-08 0)
(3.92405e-08 1.99269e-08 0)
(8.97702e-09 1.82546e-08 0)
(2.12835e-10 1.69692e-08 0)
(-8.60197e-09 1.76839e-08 0)
(-3.8678e-08 1.89472e-08 0)
(4.05189e-08 2.53069e-08 0)
(9.66169e-09 2.48221e-08 0)
(5.53787e-10 2.4238e-08 0)
(-8.59239e-09 2.38807e-08 0)
(-3.92217e-08 2.36754e-08 0)
(4.15391e-08 3.05104e-08 0)
(9.99305e-09 3.06791e-08 0)
(1.08573e-09 3.04997e-08 0)
(-7.85008e-09 2.93661e-08 0)
(-3.91295e-08 2.82279e-08 0)
(4.23566e-08 3.48801e-08 0)
(9.83337e-09 3.58546e-08 0)
(1.80774e-09 3.60133e-08 0)
(-6.24199e-09 3.41738e-08 0)
(-3.84692e-08 3.19606e-08 0)
(4.18274e-08 3.85701e-08 0)
(8.15893e-09 4.02518e-08 0)
(2.71625e-09 4.03659e-08 0)
(-2.77157e-09 3.82188e-08 0)
(-3.61704e-08 3.50533e-08 0)
(3.81136e-08 3.85165e-08 0)
(4.70038e-09 3.90844e-08 0)
(3.80086e-09 3.79102e-08 0)
(2.77365e-09 3.67893e-08 0)
(-3.06125e-08 3.45335e-08 0)
(2.4675e-08 1.43207e-08 0)
(2.88042e-09 2.08993e-09 0)
(4.68424e-09 1.36001e-10 0)
(6.29205e-09 1.44232e-10 0)
(-1.58867e-08 1.07685e-08 0)
)
;

boundaryField
{
    interface
    {
        type            calculated;
    }
    symmetry
    {
        type            symmetry;
    }
    bottom
    {
        type            calculated;
    }
}


// ************************************************************************* //
