/*--------------------------------*- C++ -*----------------------------------*\
| =========                 |                                                 |
| \\      /  F ield         | OpenFOAM: The Open Source CFD Toolbox           |
|  \\    /   O peration     | Version:  v1912                                 |
|   \\  /    A nd           | Website:  www.openfoam.com                      |
|    \\/     M anipulation  |                                                 |
\*---------------------------------------------------------------------------*/
FoamFile
{
    version     2.0;
    format      ascii;
    class       volScalarField;
    location    "0.12/solid";
    object      sigmaEq;
}
// * * * * * * * * * * * * * * * * * * * * * * * * * * * * * * * * * * * * * //

dimensions      [1 -1 -2 0 0 0 0];


internalField   nonuniform List<scalar> 
256
(
521216
488865
485559
513783
431993
461599
457495
423541
450061
469367
465173
441990
469222
481807
477658
461468
491534
501684
497587
483930
524736
533467
529419
517263
536339
560201
556303
529955
62977.1
587423
583404
54565.9
453335
106015
104879
446781
416003
86374.4
85030.7
409238
423071
78314.4
77111
416320
435470
79686.4
78597.5
428529
453212
85622.8
84592
445975
479124
81537.7
80592.9
471743
497506
41155.7
40670.7
491305
536384
560247
556447
530313
425250
90582.6
89382.5
418949
403306
100001
98656.9
396094
411633
98883.6
97633.9
404236
422586
98926.1
97725.3
414907
438139
100922
99724.5
430106
461175
94576.5
93444.7
452952
479303
80912.6
80252.8
472143
524788
533445
529585
518022
403570
85577.9
84620
398265
384255
104189
103072
377716
393663
106559
105456
386779
403897
106151
105063
396658
417708
106273
105183
410090
438281
98802.6
97794.5
430470
453836
83573.9
83044.7
447061
492265
501803
498006
485898
390694
81083
80365.5
386309
371831
100582
99695.1
366074
381385
103398
102479
375186
391107
102391
101468
384493
403852
101217
100291
396832
422981
92338.1
91494.9
415750
437061
74264.7
73921.8
430839
472691
482723
478993
466811
382576
77203.7
76663.8
378877
363812
95672.2
94959
358682
373147
97844.2
97076
367525
382473
96249.7
95467.1
376396
394606
94376.9
93583.7
388095
412982
84711.8
83991.5
406232
426325
65006.2
64810.3
420560
460829
472077
468398
455347
377665
74336.9
73913.6
374412
358951
91921.1
91324.9
354244
368059
93486.6
92824
362836
377119
91517.8
90834.5
371417
388924
89379.2
88676.6
382765
406941
79452.2
78810.9
400521
419927
58967.5
58869.9
414475
453788
466448
462804
448578
375335
72804.1
72439.2
372301
356654
89988.9
89452.6
352159
365639
91265.3
90658.1
360619
374570
89140.5
88509.2
369059
386233
86936.2
86280
380254
404108
76960.1
76358.2
397856
416948
56162.1
56114.2
411654
450465
464001
460374
445394
)
;

boundaryField
{
    interface
    {
        type            calculated;
        value           nonuniform List<scalar> 
192
(
775870
684420
706092
729742
759424
807595
851638
447341
806014
757717
769363
788628
817820
867555
932973
851666
738640
702339
714272
732091
759004
805251
867855
807730
695759
661137
673634
690738
716000
759597
818884
760419
672510
638540
651094
667693
691950
734026
791437
733824
658996
625568
638003
654229
677883
719128
775538
718319
651262
618197
630510
646496
669811
710627
766519
709349
647702
614811
627056
642926
666091
706726
762395
705177
824019
736840
757535
779755
808127
855770
902851
538880
883204
845316
858861
878634
909836
964550
1.03725e+06
949049
877126
838234
851589
871361
902593
957355
1.03022e+06
943121
808179
719054
739928
762439
791009
838783
886306
523864
771464
679319
701081
724701
754239
802482
848575
461784
796243
747155
758539
777319
805917
855293
922179
848855
728921
691149
702620
719849
746090
791888
855761
803207
687288
650855
662729
679165
703723
746856
807340
756268
665233
629292
641127
656999
680522
722118
780677
730329
652630
617157
628825
644284
667176
707918
765439
715405
645497
610355
621880
637075
659608
699901
756880
706849
642235
607257
618704
633772
656144
696246
752990
702891
538927
902890
855850
808929
783391
768894
760618
756784
949071
1.03727e+06
964608
910305
880621
864534
856037
852328
943152
1.03033e+06
957567
903309
873691
857664
849211
845526
523959
886606
839467
792870
767671
753457
745379
741644
)
;
    }
    symmetry
    {
        type            symmetry;
    }
    bottom
    {
        type            calculated;
        value           nonuniform List<scalar> 
32
(
607587
491879
458867
437465
424494
416112
410999
408570
521747
120877
94003.3
86060.7
81158.8
77453.7
74801.7
73384.7
518800
119707
92815.9
85201.6
80581.2
77072.6
74547.8
73194.6
601098
485444
453092
432968
421077
413471
408855
406667
)
;
    }
}


// ************************************************************************* //
