/*--------------------------------*- C++ -*----------------------------------*\
| =========                 |                                                 |
| \\      /  F ield         | OpenFOAM: The Open Source CFD Toolbox           |
|  \\    /   O peration     | Version:  v1912                                 |
|   \\  /    A nd           | Website:  www.openfoam.com                      |
|    \\/     M anipulation  |                                                 |
\*---------------------------------------------------------------------------*/
FoamFile
{
    version     2.0;
    format      ascii;
    class       volSymmTensorField;
    location    "0.12/solid";
    object      sigma;
}
// * * * * * * * * * * * * * * * * * * * * * * * * * * * * * * * * * * * * * //

dimensions      [1 -1 -2 0 0 0 0];


internalField   nonuniform List<symmTensor> 
256
(
(-598873 -5724.81 8211.93 -97257.8 -10294.9 -635005)
(-85879.6 -12244.3 3898.79 -12939.1 -7352.55 -533497)
(-86065 15559.3 -3888.15 -13468.8 -7062.85 -530281)
(-593458 6937.68 -7984.55 -94978.5 -9204.85 -621746)
(-612988 -2742.27 11842.1 -202609 -8354.39 -652048)
(-104958 -2413.18 5843.75 -83505.2 -9055.71 -555060)
(-105641 4632.1 -5769.35 -84679.2 -8873.51 -551856)
(-607515 3670.03 -11501.8 -200984 -7677.83 -638391)
(-614398 -14.7456 11734.8 -185098 -6100.46 -652348)
(-100873 296.384 5834.79 -72070.4 -6472.74 -554932)
(-101557 1334.96 -5731.58 -73228.3 -6341.05 -551677)
(-608470 711.832 -11372.7 -182739 -5597.61 -638373)
(-623190 1197.18 11623 -173556 -5211.77 -659237)
(-99686.1 1190.44 5787.06 -58735.3 -4816.69 -559530)
(-100327 28.8669 -5681.21 -59764.3 -4706.94 -556239)
(-616842 -675.462 -11254.8 -170630 -4793 -645079)
(-639489 863.987 12078.8 -166831 -5973.35 -674278)
(-98190.1 887.899 6060.79 -45291.5 -5203.81 -571135)
(-98798.2 -20.932 -5957.85 -46245.6 -5102.5 -567837)
(-632843 -496.297 -11706.9 -163614 -5600.42 -660050)
(-662916 -2423.09 12953.8 -157712 -9314.88 -698660)
(-87322.4 -1415.63 6573.86 -32945.3 -8562.94 -591183)
(-87962.4 1958.74 -6468.77 -33874.1 -8456.71 -587928)
(-656372 2599.09 -12579.4 -154485 -8956.21 -684548)
(-704065 -9778.14 13831.6 -190099 -15645.5 -743635)
(-71720.7 -5440.18 7059.87 -75459.6 -15506.3 -632924)
(-72611.1 5665.7 -6934.31 -76102.4 -15374 -629797)
(-698929 9661.37 -13459.1 -186638 -15263 -730010)
(-814760 -13865.6 13906.1 -858102 -17627.7 -858066)
(-177484 -7011.39 7074.49 -763841 -18049.4 -763802)
(-178076 6969.11 -6910.83 -760447 -17915.3 -760366)
(-813223 13583.3 -13557.4 -844501 -17296.9 -844394)
(-468740 3299.51 5153.37 22836.8 -30868.1 -76985.6)
(15340.4 -8909.5 2545.74 97900.7 -36110.7 12376.8)
(14198.8 10634 -2384.73 95636.3 -35446.2 11329.3)
(-461504 -2553.64 -4921.99 22586 -28782.1 -73587.7)
(-494739 -1384.22 8280.03 -58940.6 -18779.5 -105526)
(-14290.8 -2104.85 4528.17 63872.1 -21768.3 -12385.6)
(-15697.3 3145.53 -4210.68 61269 -21333.5 -13808.4)
(-487216 1829.19 -7920.24 -59375.8 -17321.8 -102734)
(-497851 -388.617 8370.53 -54474.7 -15202.4 -101096)
(-16494.9 -229.026 4651.61 59200.3 -15948.1 -10392)
(-17911.5 967.213 -4307.38 56689.1 -15624.8 -11937)
(-489856 700.323 -7994.51 -54112 -14061.1 -98400.4)
(-504958 904.477 8141.26 -47800 -14680 -97378.3)
(-13735.3 671.198 4491.02 65854.7 -14286.1 -4351.79)
(-15130.6 -144.435 -4172.47 63436.9 -14010.2 -5959.58)
(-496480 -678.579 -7771.84 -46944.8 -13701.5 -94710.1)
(-518774 924.384 8284.95 -42882.8 -16553.2 -95041.6)
(-7104.7 584.47 4599.34 78695.8 -15890.9 4364.53)
(-8471.99 -258.837 -4305.76 76321.9 -15634.3 2712.93)
(-509827 -787.561 -7920.52 -41738.3 -15665 -92377.5)
(-539781 -2013.78 8758.74 -39331.8 -20378.8 -88970.1)
(11206.4 -1447.6 4965.95 88839.2 -19882.7 20662.5)
(9821.81 1578.05 -4679.95 86521.6 -19636.2 18962.9)
(-530633 2006.54 -8394.69 -38027.2 -19551.8 -86399.2)
(-580138 -9310.72 9373.66 -84676.8 -22726.9 -84763.1)
(36441.9 -5281.19 5405.86 37986 -22509.5 38002.8)
(34847.8 5255.58 -5132.7 36123.4 -22289 36255.8)
(-572004 9054.85 -9023.13 -82774.9 -22010.9 -82587.2)
(-704119 -13806.1 9867.79 -743680 -15600.2 -190102)
(-71808.6 -7020.42 5625.8 -632993 -15480.5 -75419.2)
(-72678.1 6972.08 -5493.37 -629889 -15353.2 -75915.8)
(-698938 13474.3 -9610.9 -730096 -15238.6 -186326)
(-417463 8549.04 667.666 41345.8 -20147.5 -41360)
(6458.84 -5076.46 441.217 96280.3 -25781.3 42294.4)
(5438.29 6040.51 -200.029 94114.7 -25216.8 41153.1)
(-409373 -8080.82 -552.945 42210.7 -18414.7 -37435.7)
(-447761 13.7203 1891.86 -30799.3 -18922.1 -62707.1)
(-27495.5 -1321.84 1241.82 79281.4 -21465.1 33448.3)
(-28716.7 1762.27 -825.127 76722.4 -20999 31807)
(-439373 203.6 -1683.84 -30733.8 -17440.3 -59754.1)
(-452143 -509.951 2134.3 -28171.7 -18594.2 -56919.5)
(-32701.4 -487.105 1403.86 73170.1 -19114.4 36625.9)
(-33917.9 759.181 -973.459 70685.7 -18721.9 34810.7)
(-443283 636.146 -1912.47 -27457.8 -17315 -54230)
(-459180 643.815 1980.59 -26278.9 -19442.4 -50690.5)
(-30624.6 386.004 1296.73 73646.1 -19025.2 44764.2)
(-31817.4 -211.278 -903.808 71241.1 -18675.3 42854)
(-449831 -558.882 -1770.21 -25128 -18299.6 -48128.3)
(-473348 869.824 1854.83 -28760.1 -21219.3 -45240.7)
(-24843.1 533.59 1250.34 78270.6 -20608.9 57230.4)
(-26004.9 -461.388 -894.336 75906.2 -20285.8 55249.1)
(-463502 -834.552 -1656.91 -27321 -20177 -42757.7)
(-495953 -1821.28 1865.58 -35432.6 -22470 -37466.2)
(-9031.12 -1253.41 1360.02 78288.4 -22019 76597.8)
(-10207.4 1225.38 -1033.49 75995.5 -21725.9 74546.8)
(-485853 1747.45 -1678.42 -33783.2 -21531.4 -35136.9)
(-539740 -8709.6 2102.78 -88040.9 -19795.5 -39497.5)
(11358.7 -4865.5 1621.13 21435.4 -19404.6 88937.8)
(9970.57 4782.49 -1360.32 19617.3 -19175.6 86859.4)
(-530549 8420.03 -1944.89 -85760.8 -19048.5 -37547.2)
(-663015 -12940.9 2577.34 -698516 -9034.55 -157612)
(-87455.3 -6546.86 1707.55 -591096 -8351.63 -32721)
(-88079.4 6498.3 -1672.01 -587855 -8259.21 -33354.8)
(-656379 12592.4 -2526.13 -684420 -8736.23 -153646)
(-390138 9805.08 -743.547 47981.8 -15885.5 -37436)
(-732.462 -3777.93 -456.718 89969.8 -18714 36916.8)
(-1743.54 4364.96 683.106 88033.5 -18299.3 35903.5)
(-382132 -9536.51 809.649 49858.3 -14620.2 -32953.2)
(-422505 550.392 -808.927 -23501.8 -17089.4 -57563.7)
(-38343.4 -994.084 -527.064 75312.3 -18223.3 31412.3)
(-39566 1128.04 924.84 72910.7 -17831.4 29911.5)
(-414280 -454.574 943.784 -22972.5 -15876.2 -54100.7)
(-427808 -506.258 -707.205 -21859.4 -18244.6 -50552.5)
(-45227 -582.846 -479.517 68851.2 -18334.7 35985.3)
(-46435.8 612.264 892.239 66455.9 -17973.9 34297.8)
(-419120 540.033 855.344 -20919.6 -17113.7 -47411.4)
(-435053 459.167 -774.497 -22810.1 -19583.1 -43132)
(-43686.2 217.136 -529.983 65948.4 -19132 45104.1)
(-44867.5 -220.768 906.348 63599.6 -18796.7 43303.3)
(-425884 -443.774 911.977 -21537.6 -18528.9 -40183.7)
(-449473 708.291 -925.306 -29579.6 -20479.7 -37079.9)
(-38406.2 457.134 -606.755 65668.9 -19891.4 58144.6)
(-39555.3 -501.492 941.878 63350.4 -19580.1 56255.9)
(-439816 -719.209 1047.68 -28054.3 -19505.7 -34269)
(-472951 -1790.12 -1028.31 -40175.5 -19390.2 -31888.5)
(-24025.4 -1136.74 -608.48 61796.5 -18911.6 75099)
(-25188.5 1050.91 899.787 59547.6 -18636.8 73133.9)
(-463035 1693.06 1133.59 -38442.5 -18525.8 -29259.2)
(-518465 -8191.2 -924.97 -92497.6 -14405.7 -42698.7)
(-6326.66 -4463.01 -479.01 6682.9 -13962.1 78996.9)
(-7700.67 4369.45 680.672 4897.29 -13760.2 77024.7)
(-509405 7896.65 993.867 -90150.9 -13744.9 -40401.1)
(-639531 -12043.2 -683.233 -673666 -5073.49 -165745)
(-98118.6 -6021.77 -547.674 -570613 -4407.21 -44194.4)
(-98711.1 5966.72 512.003 -567318 -4335.24 -44653.3)
(-632712 11688.1 647.471 -659406 -4825.19 -161207)
(-373712 9571.51 -725.499 51251.3 -12985.2 -33112.5)
(-2347.66 -3821.26 -491.162 86202.8 -13807.8 33148.9)
(-3369.77 4206.49 665.93 84471.4 -13518.5 32250.4)
(-365977 -9433.23 771.773 53865.9 -12111.7 -28285.8)
(-405870 536.037 -1115.49 -19895.6 -14372.5 -51941.3)
(-40364.3 -1050.53 -793.778 71177.9 -14484 27691.2)
(-41627.5 1021.53 1113.54 68929.2 -14191.3 26339.2)
(-398003 -508.731 1215.42 -18998.9 -13479.7 -48105)
(-411486 -535.836 -1151.07 -19310.5 -15659 -44041.8)
(-47769.2 -654.413 -833.812 63918.5 -15423.3 32944.6)
(-49014.2 553.334 1174.1 61613.1 -15137.8 31411.4)
(-403166 521.058 1264.12 -18200.1 -14780 -40523.6)
(-418948 349.811 -1191.63 -21811.8 -16695.1 -36434.1)
(-46539 124.785 -862.11 59360.7 -16257.3 42155.8)
(-47752.8 -223.935 1175.56 57065.3 -15982.8 40503.4)
(-410155 -370.765 1297.17 -20478.5 -15845.4 -33134.4)
(-433546 583.033 -1288.01 -30076 -16711.9 -31406.3)
(-41509.5 395.345 -913.44 57309.6 -16222 54036.3)
(-42690.4 -498.948 1189.6 55028.1 -15964.1 52288.6)
(-424275 -617.161 1379.74 -28544 -15913.1 -28276.5)
(-457437 -1779.77 -1362.5 -41110.6 -14613.1 -29587.5)
(-27796 -1069.66 -930.572 53074.4 -14210.7 67497.6)
(-28990.3 958.302 1161 50854 -13984.6 65671.9)
(-447911 1672.94 1436.27 -39393.5 -13904.5 -26654.2)
(-503688 -7826.69 -1303.95 -91982.6 -9764.86 -45998.6)
(-11348.7 -4178.06 -873.508 474.122 -9415.78 65905.4)
(-12752.5 4081.64 1014.66 -1293.98 -9253.24 64082.4)
(-494986 7532.05 1341.94 -89665.7 -9229.54 -43372.1)
(-622670 -11413.7 -1204.15 -657496 -3103.06 -168805)
(-98425.7 -5648.07 -990.999 -557855 -2650.19 -55019.7)
(-99043.8 5587.52 917.698 -554548 -2593.32 -55308.7)
(-616015 11055.9 1148.77 -643223 -2901.92 -163827)
(-364288 9126.85 -439.924 51943.7 -9725.37 -30102.9)
(-2487.62 -4125.77 -289.886 83454.1 -9740.87 31265.7)
(-3514.78 4401.37 410.449 81876.5 -9551.64 30448.3)
(-356801 -9066.62 472.13 55059.7 -9161.25 -25065.3)
(-395665 384.124 -737.608 -18678.1 -10818.8 -47746.3)
(-39686.6 -1198.85 -513.016 67917.4 -10545.8 25537.6)
(-40978.7 1082.25 741.219 65789 -10347.3 24294.1)
(-388107 -394.786 809.518 -17508.8 -10219.9 -43655.6)
(-401234 -593.839 -804.866 -18742.1 -11776.2 -39417.5)
(-46975.2 -720.26 -564.888 60017.3 -11443.9 30863.4)
(-48247.1 547.787 814.404 57788.1 -11243.5 29448.4)
(-393231 552.919 888.33 -17490.9 -11164.6 -35620.4)
(-408808 285.762 -838.12 -21892.4 -12340.2 -32187)
(-45832.1 75.9849 -584.584 54823.6 -11980.3 39620)
(-47070.1 -228.889 818.089 52574.9 -11782.6 38086.2)
(-400335 -326.716 917.359 -20504.5 -11732.3 -28610.6)
(-423539 516.958 -888.708 -30335.6 -11915.2 -28624.4)
(-40943 365.293 -610.329 52516.7 -11566.4 49980.7)
(-42147.3 -503.053 815.859 50266.2 -11378.2 48349)
(-414597 -564.198 957.594 -28799.2 -11334 -25232.3)
(-447659 -1762.32 -924.24 -40868.4 -9906.85 -29464.7)
(-27579.5 -1025.16 -619.664 48875.3 -9633.91 60741.2)
(-28797 898.464 787.121 46677.6 -9468.5 59030.4)
(-438465 1649.85 978.169 -39170.8 -9387.57 -26279.2)
(-494226 -7603.18 -889.107 -90767.7 -6275.88 -48826.8)
(-11746.3 -4009.18 -598.219 -2118.18 -6063.38 56287.2)
(-13172.3 3910.15 692.181 -3871.2 -5944.93 54582.6)
(-485835 7308.59 913.579 -88479.6 -5883.33 -45939.8)
(-611705 -11043.8 -846.7 -647749 -1948.4 -170369)
(-96024.8 -5432.2 -698.611 -550300 -1698.15 -62426.3)
(-96666.2 5367.78 623.541 -546993 -1656.55 -62590.2)
(-605246 10684.8 797.793 -633501 -1799.64 -165074)
(-359269 8825.62 -213.258 51524 -6014.05 -28472.2)
(-2483.43 -4337.18 -128.101 81453.5 -5872.93 30432)
(-3511.34 4556.74 198.373 79976.6 -5766.17 29665.9)
(-351962 -8808.32 232.289 54946.7 -5699.18 -23313.6)
(-390054 270.459 -362.749 -18703.9 -6683.41 -45365.5)
(-38896.6 -1302.36 -233.049 65618.8 -6420.09 24674.3)
(-40204.4 1141.05 369.058 63571 -6305.88 23499.9)
(-382712 -300.787 406.201 -17357.7 -6341.25 -41117.9)
(-395510 -641.407 -406.717 -19039.2 -7236.65 -36950.6)
(-45942.6 -764.639 -262.985 57397.5 -6983.9 29853.6)
(-47229.1 554.649 414.661 55222.5 -6866.21 28515.8)
(-387727 586.942 458.095 -17688.7 -6879.21 -32972.4)
(-403118 249.101 -428.835 -22348.8 -7468.32 -30219.7)
(-44779.3 50.9133 -274.629 52063.7 -7236.21 38055.3)
(-46030.2 -233.462 418.504 49850 -7118.14 36600.9)
(-394868 -300.921 478.311 -20917 -7106.28 -26456.7)
(-417934 487.237 -452.843 -30598.8 -7039.05 -27822)
(-39964.4 354.189 -286.038 49940.4 -6835.24 47245.5)
(-41181.1 -512.045 413.019 47713.7 -6721.64 45692.6)
(-409217 -542.081 496.059 -29054.1 -6688.36 -24248.6)
(-442184 -1745.86 -466.986 -40649.1 -5692.51 -30298)
(-26797.1 -997.729 -289.866 46849.6 -5542.93 56387.5)
(-28026.7 860.913 392.049 44669.6 -5442.59 54754.7)
(-433216 1629.71 500.453 -38960.8 -5376.81 -26937.8)
(-488888 -7480.91 -448.443 -90033 -3526.81 -51092.8)
(-11282.9 -3921.43 -284.069 -3303.28 -3423.35 50567.8)
(-12720.6 3819.74 338.275 -5043.82 -3351.4 48942.2)
(-480712 7186.02 462.66 -87761.6 -3287.26 -48029.2)
(-605447 -10851.3 -428.337 -642403 -1092.49 -171662)
(-94069.7 -5323.72 -345.592 -546183 -977.787 -66787.7)
(-94725.2 5256.66 291.925 -542880 -952.409 -66870.7)
(-599141 10491.4 395.778 -628185 -1001.12 -166163)
(-357108 8690.1 -62.1145 51065.3 -2033.4 -27789.6)
(-2510.67 -4428.29 -34.2584 80373.6 -1969.81 30121.6)
(-3538.32 4624.56 57.3194 78946 -1935.34 29380.4)
(-349895 -8691.74 68.3886 54632.6 -1932.32 -22575.9)
(-387615 219.871 -104.543 -18974.8 -2255.64 -44344.8)
(-38517.6 -1346.76 -62.1126 64418.1 -2156.57 24429.4)
(-39832.3 1166.8 107.225 62410.5 -2119.35 23288.8)
(-380383 -258.489 119.035 -17542.5 -2144.53 -40022.5)
(-393007 -664.583 -118.24 -19390.1 -2433.44 -35960.8)
(-45418.5 -784.585 -70.6622 56086.8 -2342.38 29490.8)
(-46711.3 558.478 121.462 53939.6 -2303.64 28191.4)
(-385335 604.36 135.536 -17988.7 -2316.08 -31894)
(-400621 232.345 -125.774 -22697.9 -2490.56 -29550)
(-44225.3 40.283 -74.3691 50763.3 -2411.05 37349)
(-45481.7 -236.146 122.889 48568.3 -2371.86 35934.3)
(-392484 -289.01 142.546 -21241.6 -2370.55 -25693.9)
(-415475 475.838 -132.953 -30786.5 -2320 -27759.2)
(-39440.8 350.701 -77.6637 48803.1 -2253.38 45936.9)
(-40662.8 -518.116 120.551 46589.4 -2215.46 44423.6)
(-406872 -534.279 147.634 -29235.3 -2202.93 -24094.2)
(-439784 -1736.84 -136.698 -40585.6 -1854.04 -30984.6)
(-26363.8 -985.123 -78.7793 45996 -1807.19 54349)
(-27598.6 843.041 113.067 43825.8 -1773.58 52755.4)
(-430930 1618.79 147.993 -38900.4 -1748.16 -27536.1)
(-486540 -7427.68 -130.976 -89745.8 -1140.08 -52363.3)
(-10991.6 -3885.05 -78.011 -3800.84 -1110.25 47979)
(-12434.3 3781.6 95.6252 -5534.27 -1086.11 46392.9)
(-478473 7132.5 135.576 -87481.6 -1059.52 -49211.3)
(-602670 -10770.5 -124.58 -640060 -353.154 -172453)
(-93139.7 -5279.93 -98.2792 -544382 -321.079 -68765.4)
(-93801.8 5211.44 78.8106 -541081 -312.547 -68808.5)
(-596445 10410.4 113.108 -625859 -322.327 -166853)
)
;

boundaryField
{
    interface
    {
        type            calculated;
        value           nonuniform List<symmTensor> 
192
(
(-81.1186 0.165367 5.54286 889096 -10294.9 351349)
(-82.8778 -0.05583 7.00527 787420 -8354.39 337982)
(-83.4075 -0.363038 7.05559 812085 -6100.46 344835)
(-83.9023 -0.672273 6.91523 839018 -5211.77 353338)
(-83.4646 -1.0062 6.6497 872907 -5973.35 365460)
(-84.3397 -1.69004 6.30132 928023 -9314.88 387075)
(-81.2423 -2.13718 5.61243 980072 -15645.5 426535)
(-85.1635 -4.71611 4.99873 446194 -17627.7 446230)
(-77.0164 0.0826379 2.95365 849414 -30868.1 749591)
(-77.9064 -0.155928 3.82279 779158 -18779.5 732572)
(-78.2204 -0.475919 3.8221 791084 -15202.4 744463)
(-78.6958 -0.833924 3.70031 811758 -14680 762180)
(-78.2088 -1.2225 3.49876 842069 -16553.2 789911)
(-79.4024 -2.01849 3.24175 890510 -20378.8 840872)
(-76.2584 -2.51761 2.8095 932109 -22726.9 932022)
(-81.2519 -5.3302 2.42967 426528 -15600.2 980106)
(-81.1443 0.0867561 2.43952 775602 -20147.5 692896)
(-82.0615 -0.192173 3.13507 716902 -18922.1 684994)
(-82.3728 -0.565756 3.13523 727403 -18594.2 698655)
(-82.843 -0.985239 3.03606 743133 -19442.4 718722)
(-82.1689 -1.4439 2.87151 766138 -21219.3 749657)
(-83.278 -2.35711 2.65564 805242 -22470 803208)
(-79.4241 -2.94917 2.31586 841807 -19795.5 890350)
(-84.3758 -6.0202 1.98839 387300 -9034.55 928204)
(-80.4572 0.0612736 1.61372 733896 -15885.5 648479)
(-81.1754 -0.242036 2.10071 676765 -17089.4 642703)
(-81.3984 -0.643852 2.09471 686699 -18244.6 658006)
(-81.8463 -1.09969 2.01785 699759 -19583.1 679437)
(-81.1191 -1.60004 1.89677 718760 -20479.7 711260)
(-82.3142 -2.57421 1.74095 754594 -19390.2 762881)
(-78.3459 -3.20709 1.51623 792389 -14405.7 842188)
(-83.613 -6.37339 1.30126 366176 -5073.49 874097)
(-81.431 0.0557659 1.19086 710251 -12985.2 625888)
(-82.1389 -0.270345 1.54777 653392 -14372.5 621346)
(-82.3368 -0.700462 1.54444 662459 -15659 637728)
(-82.7708 -1.1863 1.48851 674175 -16695.1 659553)
(-81.975 -1.721 1.40046 691926 -16711.9 690596)
(-83.1353 -2.74086 1.28576 727677 -14613.1 739200)
(-78.9437 -3.41006 1.1266 767183 -9764.86 813167)
(-84.1853 -6.64884 0.9677 355031 -3103.06 843723)
(-81.4972 0.0497329 0.781514 695880 -9725.37 613833)
(-82.1599 -0.292214 1.02053 639232 -10818.8 610164)
(-82.3247 -0.741325 1.01825 647681 -11776.2 627005)
(-82.7451 -1.24687 0.980789 658884 -12340.2 648589)
(-81.9178 -1.80416 0.922681 676630 -11915.2 678341)
(-83.0798 -2.85181 0.84712 713070 -9906.85 724474)
(-78.806 -3.54262 0.746016 753561 -6275.88 795502)
(-84.1084 -6.82358 0.644689 348637 -1948.4 826017)
(-81.6972 0.0480599 0.451969 687399 -6014.05 607403)
(-82.3528 -0.304459 0.591281 630905 -6683.41 604244)
(-82.5051 -0.766329 0.590975 639068 -7236.65 621157)
(-82.9189 -1.28442 0.570169 650183 -7468.32 642312)
(-82.0706 -1.85607 0.537966 668226 -7039.05 671002)
(-83.2225 -2.9206 0.495142 705244 -5692.51 715595)
(-78.8829 -3.62512 0.439686 746203 -3526.81 785144)
(-84.1896 -6.93227 0.381702 345040 -1092.49 815781)
(-81.7486 0.0475132 0.147902 683428 -2033.4 604573)
(-82.3953 -0.30991 0.194133 627009 -2255.64 601639)
(-82.5406 -0.777696 0.194284 635081 -2433.44 618510)
(-82.9502 -1.30145 0.187619 646227 -2490.56 639375)
(-82.0963 -1.88012 0.177451 664478 -2320 667505)
(-83.2422 -2.95197 0.163485 701787 -1854.04 711388)
(-78.8828 -3.66366 0.146254 742935 -1140.08 780317)
(-84.1865 -6.98283 0.127052 343418 -353.154 811026)
(449299 -5724.81 -9.05276 950914 -0.39678 -33.1042)
(440229 -2742.27 -11.5865 850608 -0.366674 -28.6781)
(445350 -14.7456 -11.7484 874649 -0.246603 -27.8706)
(450718 1197.18 -11.6547 900352 -0.243205 -28.4324)
(460430 863.987 -11.4691 933087 -0.263906 -29.895)
(482826 -2423.09 -11.2527 988029 -0.339975 -32.4396)
(528304 -9778.14 -10.8967 1.04227e+06 -0.363514 -35.9169)
(558666 -13865.6 -10.8287 515324 -0.496587 -39.8571)
(844170 -12244.3 -7.44509 917110 -0.139336 -46.5195)
(834330 -2413.18 -9.79047 855783 -0.138422 -45.8026)
(844052 296.384 -9.91527 872854 -0.0809575 -45.7308)
(857395 1190.44 -9.83372 898346 -0.0605604 -45.9263)
(882185 887.899 -9.71275 935084 -0.0466326 -46.3726)
(936161 -1415.63 -9.59016 990538 -0.0538277 -47.1301)
(1.03902e+06 -5440.18 -9.42574 1.03528e+06 -0.0532308 -47.9986)
(1.09481e+06 -7011.39 -9.51111 508449 -0.0833988 -48.9499)
(838115 15559.3 -7.73789 910712 -0.0782198 -41.7561)
(827477 4632.1 -10.1527 848439 -0.0381162 -41.2895)
(837027 1334.96 -10.2954 865356 0.0348398 -41.2421)
(850329 28.8669 -10.208 890893 0.0946484 -41.4367)
(875127 -20.932 -10.0668 927679 0.154789 -41.9412)
(929116 1958.74 -9.90387 983204 0.214745 -42.6641)
(1.03187e+06 5665.7 -9.68302 1.02838e+06 0.264963 -43.7487)
(1.08799e+06 6969.11 -9.68022 505616 0.287247 -44.8582)
(433833 6937.68 -8.93455 932312 -0.047443 -43.4784)
(423626 3670.03 -11.6285 830157 0.0337639 -43.272)
(428618 711.832 -11.7926 854349 0.128364 -43.2335)
(434104 -675.462 -11.6833 880317 0.219012 -43.2817)
(443989 -496.297 -11.4826 913219 0.309179 -43.5623)
(466382 2599.09 -11.2387 968269 0.416246 -43.7822)
(510900 9661.37 -10.8387 1.02319e+06 0.496221 -44.4021)
(538228 13583.3 -10.7411 506950 0.612432 -44.7992)
(-11.3311 0.489669 5.12296 885296 -9204.85 358528)
(-6.29819 0.156461 6.59724 782438 -7677.83 345031)
(-5.30972 -0.341311 6.63303 807224 -5597.61 351590)
(-5.24867 -0.722985 6.50608 834124 -4793 359675)
(-6.56858 -1.1014 6.28632 867846 -5600.42 371410)
(-6.74222 -1.77807 6.03589 923061 -8956.21 392998)
(-11.1309 -2.07471 5.47901 977325 -15263 433953)
(-0.880169 -4.93548 5.24142 460757 -17296.9 460864)
(-29.2296 0.13396 2.20305 838362 -28782.1 742188)
(-28.2468 -0.123128 3.03128 767258 -17321.8 723900)
(-27.9703 -0.484635 3.00968 779293 -14061.1 735005)
(-27.5259 -0.846849 2.90881 799709 -13701.5 751944)
(-27.8002 -1.21321 2.77596 829557 -15665 778918)
(-25.7175 -1.93637 2.64746 877755 -19551.8 829383)
(-27.603 -2.07526 2.39017 921269 -22010.9 921457)
(-11.0415 -5.17342 2.39171 433862 -15238.6 977632)
(-28.1777 0.0798604 2.13799 764744 -18414.7 685097)
(-27.3196 -0.202477 2.85443 704514 -17440.3 675493)
(-26.9621 -0.5758 2.85772 714955 -17315 688183)
(-26.3588 -0.972699 2.77491 730349 -18299.6 707349)
(-26.4679 -1.37906 2.65098 752843 -20177 737406)
(-23.8373 -2.18244 2.50306 791661 -21531.4 790307)
(-25.5968 -2.33067 2.2574 829973 -19048.5 878186)
(-6.50333 -5.72911 2.10458 393107 -8736.23 923880)
(-31.39 0.0458504 1.44531 724441 -14620.2 641630)
(-30.8006 -0.258728 1.96545 665248 -15876.2 634119)
(-30.469 -0.647866 1.96532 674884 -17113.7 648392)
(-29.7175 -1.06557 1.90085 687508 -18528.9 668862)
(-29.5491 -1.49344 1.80713 705968 -19505.7 699754)
(-26.2472 -2.33005 1.69493 741506 -18525.8 750690)
(-27.468 -2.4552 1.53153 780935 -13744.9 830685)
(-6.05114 -5.97986 1.4323 371958 -4825.19 870157)
(-31.7231 0.0419589 1.10618 702129 -12111.7 619977)
(-31.1314 -0.284197 1.48803 642876 -13479.7 613769)
(-30.7416 -0.695624 1.49128 651455 -14780 629132)
(-29.8765 -1.13434 1.4454 662632 -15845.4 649977)
(-29.5575 -1.58517 1.37638 679801 -15913.1 680068)
(-25.936 -2.45007 1.28892 715236 -13904.5 727976)
(-26.9866 -2.57648 1.16837 756309 -9229.54 802603)
(-4.33897 -6.19899 1.07554 361123 -2901.92 840518)
(-32.3378 0.0410786 0.743503 688767 -9161.25 608642)
(-31.7569 -0.300783 1.00104 629529 -10219.9 603382)
(-31.3329 -0.729246 1.00378 637365 -11164.6 619235)
(-30.3915 -1.18307 0.973049 647948 -11732.3 639842)
(-29.9561 -1.65032 0.926884 665067 -11334 668634)
(-26.1023 -2.53166 0.867448 701171 -9387.57 714063)
(-26.9783 -2.65696 0.790074 743187 -5883.33 785727)
(-3.41336 -6.3394 0.728346 355042 -1799.64 823470)
(-32.5625 0.0425733 0.433833 680950 -5699.18 602690)
(-31.9714 -0.309443 0.583537 621758 -6341.25 597998)
(-31.515 -0.749169 0.586241 629235 -6879.21 613951)
(-30.5205 -1.2127 0.569496 639677 -7106.28 634137)
(-30.0093 -1.69077 0.544249 657060 -6688.36 661866)
(-26.0219 -2.58202 0.510264 693724 -5376.81 705747)
(-26.8035 -2.70767 0.468441 736183 -3287.26 775915)
(-2.70765 -6.42741 0.431329 351682 -1001.12 813704)
(-32.6801 0.0437641 0.143078 677307 -1932.32 600099)
(-32.0862 -0.312949 0.192753 618141 -2144.53 595661)
(-31.614 -0.757945 0.193915 625495 -2316.08 611589)
(-30.5955 -1.22586 0.188597 635943 -2370.55 631490)
(-30.0439 -1.70951 0.180689 653517 -2202.93 658658)
(-25.9992 -2.60441 0.169443 690462 -1748.16 701826)
(-26.7204 -2.73123 0.156777 733096 -1059.52 771367)
(-2.38162 -6.46863 0.143875 350185 -322.327 809191)
(558694 10.5524 13906.1 -39.7476 -0.474401 515388)
(528294 10.6217 9867.79 -35.7365 -0.342648 1.04231e+06)
(482716 10.9802 2577.34 -32.1396 -0.315054 988118)
(460222 11.202 -683.233 -29.4138 -0.226987 934008)
(450684 11.3959 -1204.15 -27.5908 -0.180591 904549)
(446473 11.5251 -846.7 -26.2264 -0.119939 887809)
(444454 11.608 -428.337 -25.3996 -0.0704812 878239)
(443582 11.6472 -124.58 -24.9992 -0.0231754 873799)
(1.09483e+06 9.24124 7074.49 -48.838 -0.0625317 508516)
(1.03898e+06 9.15291 5625.8 -47.821 -0.0339775 1.03537e+06)
(936024 9.31454 1707.55 -46.8521 -0.0308046 990758)
(882097 9.43353 -547.674 -45.9686 -0.0156064 936021)
(858069 9.54556 -990.999 -45.3368 -0.0141747 901475)
(847199 9.62318 -698.611 -44.8287 -0.00725605 880798)
(842025 9.67379 -345.592 -44.5106 -0.00338002 869307)
(839835 9.69777 -98.2792 -44.338 -0.000518985 864210)
(1.08803e+06 9.40927 -6910.83 -44.741 0.3043 505740)
(1.03185e+06 9.40816 -5493.37 -43.5569 0.280785 1.02862e+06)
(928985 9.62554 -1672.01 -42.3631 0.234628 983709)
(875024 9.78479 512.003 -41.4995 0.180962 929082)
(850960 9.91944 917.698 -40.8059 0.133286 894695)
(840077 10.0126 623.541 -40.3069 0.0907239 874153)
(834901 10.0722 291.925 -39.9854 0.0517002 862756)
(832713 10.0998 78.8106 -39.8318 0.016567 857706)
(538277 10.4568 -13557.4 -44.6811 0.626053 507106)
(510928 10.5525 -9610.9 -44.2055 0.508863 1.02354e+06)
(466317 10.9509 -2526.13 -43.4796 0.432414 969049)
(443839 11.1951 647.471 -43.1251 0.329464 915345)
(434136 11.397 1148.77 -42.6927 0.24929 886324)
(429781 11.5332 797.793 -42.4164 0.169376 869953)
(427663 11.6197 395.778 -42.2164 0.0979267 860641)
(426741 11.6604 113.108 -42.1115 0.0319266 856333)
)
;
    }
    symmetry
    {
        type            symmetry;
    }
    bottom
    {
        type            calculated;
        value           nonuniform List<symmTensor> 
32
(
(-897028 -3068.01 8211.93 -308521 -2661.64 -933161)
(-596893 18089.7 5153.37 -51720.7 -35461.3 -205139)
(-537395 27835.6 667.666 -31730.7 -20534.1 -161293)
(-506825 29398.8 -743.547 -22621.8 -15373.5 -154123)
(-488843 28636.2 -725.499 -18119.9 -12561.6 -148243)
(-478718 27759.4 -439.924 -16998.6 -9514.36 -144533)
(-473367 27212.1 -213.258 -17241 -5942.55 -142571)
(-471066 26968.4 -62.1145 -17620.7 -2020.12 -141747)
(-228576 -17689.4 3898.79 -104818 7340.8 -676193)
(13106.9 -12065.6 2545.74 105946 -41841.2 10143.2)
(2435.65 -6400.14 441.217 93291.8 -28460.6 38271.2)
(-5526.93 -4638.22 -456.718 84962 -19514.1 32122.4)
(-7077.37 -4722.66 -491.162 81303.7 -13965.6 28419.2)
(-7024.94 -5112.67 -289.886 78984.7 -9773.58 26728.4)
(-6852.7 -5368.38 -128.101 77367.3 -5901.72 26062.8)
(-6788.35 -5475.08 -34.2584 76497.4 -1984.39 25843.9)
(-228246 20983.4 -3888.15 -104503 7710.28 -672461)
(11899.5 13449.7 -2384.73 103783 -41051.8 9030.05)
(1357.78 6976.14 -200.029 91260.9 -27817.4 37072.6)
(-6582.84 4884.01 683.106 83193.9 -19052.7 31064.2)
(-8139.12 4821.45 665.93 79755.6 -13648 27481)
(-8089.03 5145.04 410.449 77598.6 -9567.47 25874)
(-7915.89 5373.59 198.373 76086.7 -5786.02 25261.3)
(-7850.46 5471.41 57.3194 75268.7 -1947.13 25068.3)
(-894867 3690.83 -7984.55 -308609 -1071.88 -923155)
(-594375 -17834.9 -4921.99 -56165.3 -32967.7 -206459)
(-533858 -27862.7 -552.945 -34561.5 -18572.3 -161921)
(-503290 -29657.4 809.649 -24085.7 -13975.1 -154112)
(-485547 -29043.9 771.773 -18637.7 -11609.9 -147857)
(-475659 -28252.1 472.13 -16893.7 -8905.73 -143924)
(-470483 -27749.2 232.289 -16762.4 -5605.09 -141835)
(-468275 -27524.5 68.3886 -16967.6 -1912.17 -140956)
)
;
    }
}


// ************************************************************************* //
