/*--------------------------------*- C++ -*----------------------------------*\
| =========                 |                                                 |
| \\      /  F ield         | OpenFOAM: The Open Source CFD Toolbox           |
|  \\    /   O peration     | Version:  v1912                                 |
|   \\  /    A nd           | Website:  www.openfoam.com                      |
|    \\/     M anipulation  |                                                 |
\*---------------------------------------------------------------------------*/
FoamFile
{
    version     2.0;
    format      ascii;
    class       volVectorField;
    location    "0.83/solid";
    object      D;
}
// * * * * * * * * * * * * * * * * * * * * * * * * * * * * * * * * * * * * * //

dimensions      [0 1 0 0 0 0 0];


internalField   nonuniform List<vector> 
256
(
(2.9441e-08 4.12687e-08 3.24577e-08)
(4.00797e-09 2.42087e-08 2.96436e-08)
(-3.97465e-09 2.38089e-08 2.94823e-08)
(-2.83859e-08 3.96368e-08 3.2044e-08)
(4.86122e-08 3.24539e-08 6.35933e-08)
(1.00868e-08 2.18377e-08 5.98256e-08)
(-9.07698e-09 2.12842e-08 5.96284e-08)
(-4.62208e-08 3.06408e-08 6.30753e-08)
(5.15135e-08 1.56713e-08 8.12781e-08)
(1.16306e-08 1.14076e-08 7.71665e-08)
(-9.40747e-09 1.08072e-08 7.69952e-08)
(-4.79121e-08 1.38369e-08 8.08195e-08)
(5.09514e-08 2.26459e-10 9.51883e-08)
(1.15166e-08 -2.06085e-09 9.05753e-08)
(-8.04017e-09 -2.6833e-09 9.04236e-08)
(-4.60963e-08 -1.65151e-09 9.47786e-08)
(5.177e-08 -1.47862e-08 1.08941e-07)
(1.18663e-08 -1.78243e-08 1.03738e-07)
(-7.11891e-09 -1.84671e-08 1.03592e-07)
(-4.56246e-08 -1.67149e-08 1.08544e-07)
(5.65884e-08 -3.17334e-08 1.24468e-07)
(1.38443e-08 -3.62345e-08 1.18728e-07)
(-7.82304e-09 -3.68988e-08 1.18576e-07)
(-4.91534e-08 -3.3708e-08 1.24051e-07)
(6.78954e-08 -5.76516e-08 1.429e-07)
(1.81034e-08 -6.10888e-08 1.37203e-07)
(-1.08628e-08 -6.17483e-08 1.37031e-07)
(-5.9222e-08 -5.96018e-08 1.42431e-07)
(8.3665e-08 -1.16655e-07 1.60963e-07)
(2.27191e-08 -1.12704e-07 1.56459e-07)
(-1.44722e-08 -1.13085e-07 1.56257e-07)
(-7.38771e-08 -1.17861e-07 1.60418e-07)
(2.0403e-08 1.85741e-08 7.02898e-09)
(2.11034e-09 4.56547e-09 8.48384e-09)
(-2.00199e-09 4.31218e-09 8.52184e-09)
(-1.93196e-08 1.73262e-08 7.13597e-09)
(3.4052e-08 1.2079e-08 2.66345e-08)
(6.40809e-09 3.20132e-09 2.94755e-08)
(-5.27431e-09 2.72142e-09 2.95282e-08)
(-3.16433e-08 1.0457e-08 2.67853e-08)
(3.57658e-08 3.39896e-10 4.31633e-08)
(7.51153e-09 -3.33337e-09 4.64502e-08)
(-5.16574e-09 -3.9102e-09 4.65227e-08)
(-3.21758e-08 -1.43183e-09 4.33683e-08)
(3.48727e-08 -1.23466e-08 5.66863e-08)
(7.3439e-09 -1.44386e-08 5.99867e-08)
(-3.75522e-09 -1.50554e-08 6.00778e-08)
(-3.00481e-08 -1.42094e-08 5.69406e-08)
(3.54079e-08 -2.58626e-08 6.93081e-08)
(7.66133e-09 -2.88406e-08 7.24602e-08)
(-2.80571e-09 -2.94829e-08 7.256e-08)
(-2.92943e-08 -2.77931e-08 6.95829e-08)
(4.00326e-08 -4.08823e-08 8.22915e-08)
(9.61464e-09 -4.54439e-08 8.52629e-08)
(-3.47841e-09 -4.61109e-08 8.536e-08)
(-3.26119e-08 -4.28703e-08 8.25544e-08)
(5.16342e-08 -6.17284e-08 9.48555e-08)
(1.39444e-08 -6.51305e-08 9.77489e-08)
(-6.5695e-09 -6.58016e-08 9.78345e-08)
(-4.29399e-08 -6.37157e-08 9.50808e-08)
(6.84956e-08 -1.09693e-07 1.01948e-07)
(1.86902e-08 -1.04567e-07 1.04882e-07)
(-1.02751e-08 -1.04979e-07 1.04958e-07)
(-5.86387e-08 -1.10978e-07 1.02141e-07)
(1.40956e-08 1.143e-08 3.39539e-09)
(4.34821e-10 -2.26022e-10 5.37518e-09)
(-3.44729e-10 -4.42124e-10 5.40893e-09)
(-1.30627e-08 1.02947e-08 3.4921e-09)
(2.35212e-08 1.69946e-09 1.65147e-08)
(3.02001e-09 -5.60649e-09 2.02633e-08)
(-1.93636e-09 -6.04604e-09 2.03232e-08)
(-2.12049e-08 1.8775e-10 1.66895e-08)
(2.44187e-08 -9.81803e-09 3.06665e-08)
(3.68902e-09 -1.29364e-08 3.49715e-08)
(-1.41197e-09 -1.34884e-08 3.50459e-08)
(-2.09445e-08 -1.15237e-08 3.08846e-08)
(2.34565e-08 -2.10461e-08 4.35046e-08)
(3.48792e-09 -2.30355e-08 4.7908e-08)
(2.22193e-11 -2.36419e-08 4.79938e-08)
(-1.87603e-08 -2.28824e-08 4.3754e-08)
(2.39618e-08 -3.24261e-08 5.51363e-08)
(3.79959e-09 -3.54505e-08 5.94964e-08)
(9.75029e-10 -3.60923e-08 5.95879e-08)
(-1.79762e-08 -3.43584e-08 5.5399e-08)
(2.86367e-08 -4.42371e-08 6.56802e-08)
(5.75335e-09 -4.88997e-08 6.99531e-08)
(3.0726e-10 -4.95738e-08 7.00433e-08)
(-2.13293e-08 -4.62501e-08 6.5935e-08)
(4.05035e-08 -6.0303e-08 7.37286e-08)
(1.01412e-08 -6.37904e-08 7.79006e-08)
(-2.82849e-09 -6.44767e-08 7.79853e-08)
(-3.18939e-08 -6.23374e-08 7.39617e-08)
(5.76832e-08 -1.02332e-07 7.59911e-08)
(1.49635e-08 -9.71833e-08 8.00977e-08)
(-6.58867e-09 -9.7616e-08 8.01815e-08)
(-4.78728e-08 -1.03675e-07 7.62137e-08)
(1.12294e-08 9.14814e-09 3.07321e-09)
(-2.81318e-10 -1.12338e-09 4.35734e-09)
(3.47797e-10 -1.33167e-09 4.37852e-09)
(-1.0251e-08 8.05316e-09 3.13832e-09)
(1.86169e-08 -2.47067e-09 1.28524e-08)
(1.44779e-09 -8.82514e-09 1.52987e-08)
(-4.37774e-10 -9.24862e-09 1.53434e-08)
(-1.64099e-08 -3.93027e-09 1.29895e-08)
(1.92324e-08 -1.48841e-08 2.41282e-08)
(1.91389e-09 -1.76702e-08 2.69286e-08)
(2.58278e-10 -1.82072e-08 2.69859e-08)
(-1.58951e-08 -1.65473e-08 2.43041e-08)
(1.84495e-08 -2.57029e-08 3.50772e-08)
(1.75983e-09 -2.76645e-08 3.7912e-08)
(1.63091e-09 -2.82624e-08 3.79769e-08)
(-1.39029e-08 -2.75169e-08 3.52754e-08)
(1.91561e-08 -3.55305e-08 4.49076e-08)
(2.13982e-09 -3.8622e-08 4.76831e-08)
(2.51179e-09 -3.92627e-08 4.77515e-08)
(-1.33212e-08 -3.74623e-08 4.51147e-08)
(2.39999e-08 -4.49753e-08 5.30182e-08)
(4.13462e-09 -4.97292e-08 5.5718e-08)
(1.80705e-09 -5.04088e-08 5.57861e-08)
(-1.68331e-08 -4.70073e-08 5.32212e-08)
(3.59288e-08 -5.84305e-08 5.82509e-08)
(8.51821e-09 -6.21012e-08 6.08887e-08)
(-1.3149e-09 -6.27978e-08 6.09546e-08)
(-2.74396e-08 -6.04975e-08 5.84425e-08)
(5.29574e-08 -9.79008e-08 5.91424e-08)
(1.33178e-08 -9.32729e-08 6.18141e-08)
(-5.03816e-09 -9.37178e-08 6.18809e-08)
(-4.3241e-08 -9.9279e-08 5.93304e-08)
(1.01511e-08 8.23022e-09 2.77653e-09)
(-4.56092e-10 -1.34571e-09 3.42396e-09)
(5.05938e-10 -1.55034e-09 3.43777e-09)
(-9.21239e-09 7.16107e-09 2.82055e-09)
(1.68314e-08 -3.96235e-09 1.02102e-08)
(1.0062e-09 -9.85861e-09 1.14334e-08)
(-5.47805e-11 -1.02743e-08 1.14652e-08)
(-1.47121e-08 -5.39117e-09 1.03101e-08)
(1.74736e-08 -1.68463e-08 1.86896e-08)
(1.44087e-09 -1.94993e-08 2.00663e-08)
(6.41267e-10 -2.0028e-08 2.01086e-08)
(-1.42525e-08 -1.8483e-08 1.88224e-08)
(1.69349e-08 -2.75711e-08 2.71379e-08)
(1.36588e-09 -2.95597e-08 2.84931e-08)
(1.91775e-09 -3.01521e-08 2.85413e-08)
(-1.25191e-08 -2.93693e-08 2.72888e-08)
(1.78788e-08 -3.66042e-08 3.46955e-08)
(1.8289e-09 -3.97605e-08 3.5983e-08)
(2.70964e-09 -4.04e-08 3.60338e-08)
(-1.21785e-08 -3.85339e-08 3.48538e-08)
(2.28614e-08 -4.48792e-08 4.06261e-08)
(3.86162e-09 -4.96953e-08 4.18563e-08)
(1.96853e-09 -5.0378e-08 4.19073e-08)
(-1.58239e-08 -4.6922e-08 4.07832e-08)
(3.47287e-08 -5.72827e-08 4.4168e-08)
(8.20743e-09 -6.11001e-08 4.53796e-08)
(-1.10951e-09 -6.18026e-08 4.54298e-08)
(-2.63561e-08 -5.9369e-08 4.43194e-08)
(5.15105e-08 -9.55825e-08 4.47864e-08)
(1.29546e-08 -9.14273e-08 4.60698e-08)
(-4.77115e-09 -9.18792e-08 4.61209e-08)
(-4.18937e-08 -9.69821e-08 4.49363e-08)
(9.75747e-09 7.80429e-09 2.18248e-09)
(-4.58196e-10 -1.43942e-09 2.47462e-09)
(4.97214e-10 -1.64127e-09 2.48364e-09)
(-8.84426e-09 6.75345e-09 2.21129e-09)
(1.6265e-08 -4.42785e-09 7.48749e-09)
(9.66258e-10 -1.01334e-08 8.02284e-09)
(-5.5397e-11 -1.0544e-08 8.04434e-09)
(-1.42057e-08 -5.83529e-09 7.55514e-09)
(1.70283e-08 -1.73648e-08 1.33746e-08)
(1.43319e-09 -1.99901e-08 1.39543e-08)
(5.83165e-10 -2.05137e-08 1.39835e-08)
(-1.38907e-08 -1.89836e-08 1.34666e-08)
(1.6692e-08 -2.80171e-08 1.92501e-08)
(1.42765e-09 -3.00506e-08 1.97918e-08)
(1.77435e-09 -3.06395e-08 1.98255e-08)
(-1.23737e-08 -2.98042e-08 1.93563e-08)
(1.78127e-08 -3.67401e-08 2.4489e-08)
(1.95236e-09 -3.99458e-08 2.49767e-08)
(2.49744e-09 -4.05843e-08 2.50125e-08)
(-1.22154e-08 -3.86671e-08 2.46015e-08)
(2.28742e-08 -4.46131e-08 2.85208e-08)
(4.00615e-09 -4.94611e-08 2.89745e-08)
(1.7346e-09 -5.01452e-08 2.90108e-08)
(-1.59378e-08 -4.66612e-08 2.86337e-08)
(3.46545e-08 -5.67062e-08 3.08893e-08)
(8.31268e-09 -6.05988e-08 3.13474e-08)
(-1.30091e-09 -6.13044e-08 3.13834e-08)
(-2.63758e-08 -5.88032e-08 3.09995e-08)
(5.12302e-08 -9.44116e-08 3.14057e-08)
(1.30129e-08 -9.05362e-08 3.19253e-08)
(-4.91025e-09 -9.09919e-08 3.1962e-08)
(-4.16975e-08 -9.58232e-08 3.15153e-08)
(9.59721e-09 7.60868e-09 1.38083e-09)
(-4.35974e-10 -1.47705e-09 1.50295e-09)
(4.6852e-10 -1.67701e-09 1.50813e-09)
(-8.69896e-09 6.56935e-09 1.39723e-09)
(1.60774e-08 -4.52761e-09 4.57293e-09)
(1.00024e-09 -1.01598e-08 4.78707e-09)
(-1.14389e-10 -1.0567e-08 4.79959e-09)
(-1.40542e-08 -5.921e-09 4.61202e-09)
(1.6943e-08 -1.7371e-08 8.03608e-09)
(1.50156e-09 -2.00036e-08 8.2556e-09)
(4.72859e-10 -2.05239e-08 8.27285e-09)
(-1.38575e-08 -1.89781e-08 8.09004e-09)
(1.67363e-08 -2.79493e-08 1.14721e-08)
(1.541e-09 -3.002e-08 1.16625e-08)
(1.60728e-09 -3.06067e-08 1.16826e-08)
(-1.24808e-08 -2.97289e-08 1.1535e-08)
(1.79614e-08 -3.65811e-08 1.45266e-08)
(2.10133e-09 -3.98173e-08 1.4685e-08)
(2.28858e-09 -4.04549e-08 1.47065e-08)
(-1.24318e-08 -3.85055e-08 1.45939e-08)
(2.30597e-08 -4.43809e-08 1.68664e-08)
(4.16394e-09 -4.92408e-08 1.70088e-08)
(1.51531e-09 -4.99254e-08 1.70307e-08)
(-1.61913e-08 -4.6431e-08 1.69346e-08)
(3.47734e-08 -5.64313e-08 1.82499e-08)
(8.44301e-09 -6.03505e-08 1.84014e-08)
(-1.49142e-09 -6.10575e-08 1.84233e-08)
(-2.65593e-08 -5.85335e-08 1.8317e-08)
(5.12127e-08 -9.3835e-08 1.86049e-08)
(1.31112e-08 -9.00915e-08 1.87937e-08)
(-5.06594e-09 -9.05491e-08 1.88159e-08)
(-4.17393e-08 -9.52528e-08 1.86718e-08)
(9.5327e-09 7.53323e-09 4.71228e-10)
(-4.23811e-10 -1.4871e-09 5.04894e-10)
(4.53343e-10 -1.68613e-09 5.06588e-10)
(-8.64135e-09 6.4994e-09 4.76561e-10)
(1.60094e-08 -4.52823e-09 1.53719e-09)
(1.02163e-09 -1.01353e-08 1.59436e-09)
(-1.47626e-10 -1.05407e-08 1.59847e-09)
(-1.40032e-08 -5.91464e-09 1.54997e-09)
(1.69263e-08 -1.72947e-08 2.67999e-09)
(1.5408e-09 -1.99361e-08 2.73616e-09)
(4.13375e-10 -2.04547e-08 2.74186e-09)
(-1.38656e-08 -1.88958e-08 2.69774e-09)
(1.67802e-08 -2.78274e-08 3.80854e-09)
(1.60112e-09 -2.99177e-08 3.85437e-09)
(1.52074e-09 -3.05032e-08 3.86103e-09)
(-1.25551e-08 -2.96032e-08 3.82939e-09)
(1.80516e-08 -3.64412e-08 4.81006e-09)
(2.17692e-09 -3.96914e-08 4.84555e-09)
(2.18307e-09 -4.03286e-08 4.8527e-09)
(-1.25555e-08 -3.83641e-08 4.83247e-09)
(2.31638e-08 -4.42513e-08 5.57712e-09)
(4.2424e-09 -4.91141e-08 5.60812e-09)
(1.40574e-09 -4.97989e-08 5.61544e-09)
(-1.63293e-08 -4.63021e-08 5.59993e-09)
(3.48436e-08 -5.6317e-08 6.03405e-09)
(8.50803e-09 -6.02423e-08 6.06907e-09)
(-1.58721e-09 -6.09499e-08 6.0764e-09)
(-2.66621e-08 -5.84214e-08 6.05661e-09)
(5.12163e-08 -9.35948e-08 6.16055e-09)
(1.31603e-08 -8.98998e-08 6.20775e-09)
(-5.14466e-09 -9.03582e-08 6.2152e-09)
(-4.17732e-08 -9.50152e-08 6.18305e-09)
)
;

boundaryField
{
    interface
    {
        type            solidTraction;
        traction        nonuniform List<vector> 
192
(
(39.371 -0.355458 -2.66327)
(41.0346 -0.363574 -4.32426)
(42.7147 -0.121567 -4.95837)
(43.8433 0.315839 -5.1558)
(44.2526 0.709312 -5.13588)
(45.2389 1.40021 -5.0237)
(43.7176 1.93044 -4.65687)
(47.3575 4.40344 -4.37549)
(38.3888 -0.261201 -1.30509)
(39.1285 -0.291734 -2.26705)
(40.1515 -0.0832918 -2.56565)
(40.9106 0.359009 -2.60737)
(41.0389 0.771472 -2.52662)
(41.8927 1.53007 -2.39766)
(40.0766 2.11521 -2.16068)
(43.7899 4.70643 -1.97476)
(40.9125 -0.227214 -1.02163)
(41.5587 -0.256393 -1.75047)
(42.5641 -0.0557279 -1.97161)
(43.3363 0.40482 -1.99695)
(43.3916 0.852018 -1.92921)
(44.1704 1.69047 -1.82491)
(41.9204 2.35778 -1.65562)
(45.3907 5.11686 -1.51597)
(41.1407 -0.174949 -0.618297)
(41.6055 -0.18143 -1.1208)
(42.4013 0.021321 -1.26629)
(43.0482 0.483914 -1.26986)
(42.9775 0.945347 -1.20921)
(43.6724 1.81678 -1.12694)
(41.2634 2.52006 -1.02089)
(44.6526 5.31651 -0.939478)
(41.9143 -0.149793 -0.449621)
(42.3287 -0.134223 -0.815115)
(43.0299 0.0784649 -0.922204)
(43.622 0.547688 -0.924609)
(43.4723 1.02476 -0.879977)
(44.0908 1.92443 -0.819045)
(41.5124 2.66043 -0.745691)
(44.7521 5.49586 -0.687935)
(42.1267 -0.130192 -0.272197)
(42.4941 -0.0958173 -0.511073)
(43.1129 0.125971 -0.581901)
(43.6517 0.599252 -0.582113)
(43.4424 1.08485 -0.551241)
(44.0119 1.99828 -0.510268)
(41.3526 2.75101 -0.465661)
(44.5307 5.60498 -0.43247)
(42.3826 -0.120712 -0.159025)
(42.7338 -0.0734586 -0.298351)
(43.3093 0.155957 -0.340093)
(43.8186 0.633113 -0.340477)
(43.5723 1.12525 -0.322803)
(44.1057 2.0482 -0.298755)
(41.3835 2.81268 -0.2738)
(44.5059 5.68081 -0.254094)
(42.4474 -0.114918 -0.0467812)
(42.7869 -0.0610029 -0.0911774)
(43.3384 0.171901 -0.104701)
(43.8311 0.650177 -0.10468)
(43.5683 1.14487 -0.0989383)
(44.0844 2.07117 -0.0911118)
(41.3431 2.84098 -0.0838039)
(44.4371 5.71484 -0.077717)
(3.6967 0.892558 13.8065)
(6.31389 1.10942 9.808)
(7.44109 0.976688 5.7879)
(7.89085 0.741304 4.0298)
(8.06162 0.635324 3.50852)
(8.19913 0.673267 4.03225)
(8.37636 0.816007 5.80442)
(9.2365 1.02234 7.28037)
(2.16529 0.534926 17.5693)
(4.1651 0.859837 16.6883)
(4.95886 0.796853 15.2988)
(5.2438 0.529793 14.7634)
(5.35429 0.34059 14.5752)
(5.50534 0.23494 14.7854)
(5.84761 0.252954 15.353)
(6.97168 0.32711 15.6542)
(2.13373 0.396018 14.7833)
(4.15159 0.713258 14.1217)
(4.98037 0.675276 12.8145)
(5.28493 0.381964 12.2653)
(5.39435 0.135211 12.0953)
(5.51974 -0.0692571 12.3001)
(5.81199 -0.177367 12.9343)
(6.89817 -0.195514 13.6845)
(2.30491 0.32792 15.019)
(4.67456 0.626102 14.6447)
(5.72044 0.587758 13.4942)
(6.12399 0.269847 13.0577)
(6.26605 -0.00510255 12.9969)
(6.4281 -0.256467 13.2047)
(6.68886 -0.437358 13.6795)
(7.83866 -0.605084 14.2908)
(-7.43674 0.730062 0.595849)
(-4.9965 0.995993 1.21057)
(-2.3462 0.784505 1.41901)
(-0.917614 0.285153 1.52768)
(-0.346274 0.00380836 1.61685)
(1.15454 -0.390019 1.86626)
(0.745248 -0.361804 2.08168)
(9.18986 -2.5276 2.68318)
(-11.2822 0.299365 -0.316542)
(-10.8167 0.463552 -0.328159)
(-9.98236 0.372646 -0.414834)
(-9.36696 0.0863591 -0.431183)
(-9.13358 0.00830504 -0.37233)
(-7.61451 -0.215855 -0.14914)
(-7.61831 0.0334131 0.138689)
(0.780593 -1.95466 0.579414)
(-11.5593 0.172359 -0.192733)
(-11.2281 0.258095 -0.117901)
(-10.5834 0.218805 -0.0874867)
(-9.94746 0.044516 -0.0322102)
(-9.63306 0.0893666 0.0577454)
(-7.78045 -0.0354516 0.244184)
(-7.48324 0.326297 0.441702)
(1.40297 -1.73381 0.698154)
(-12.8414 0.0850488 -0.2075)
(-12.7211 0.113946 -0.140313)
(-12.3871 0.110816 -0.0876737)
(-11.8409 0.030789 -0.0256134)
(-11.5063 0.178932 0.0523353)
(-9.43395 0.14469 0.186791)
(-8.82499 0.578841 0.317561)
(0.280875 -1.47628 0.47315)
(-13.1289 0.0705307 -0.0897981)
(-13.002 0.0800138 0.00725655)
(-12.705 0.0957695 0.0870835)
(-12.1141 0.0615422 0.15435)
(-11.707 0.261588 0.218094)
(-9.48467 0.267194 0.303951)
(-8.74612 0.719589 0.371081)
(0.465853 -1.37426 0.44327)
(-13.5439 0.0660763 -0.0603187)
(-13.4213 0.0700758 0.0155286)
(-13.1504 0.0993287 0.081896)
(-12.5351 0.0932691 0.133336)
(-12.0814 0.325875 0.177763)
(-9.76273 0.356125 0.231023)
(-8.92872 0.815375 0.268623)
(0.362063 -1.29849 0.307118)
(-13.6651 0.0698021 -0.0197309)
(-13.5269 0.0746167 0.0327966)
(-13.2446 0.11122 0.0773634)
(-12.6003 0.117882 0.10972)
(-12.1133 0.365234 0.135849)
(-9.74116 0.405041 0.163774)
(-8.86804 0.864118 0.181179)
(0.462457 -1.26748 0.196679)
(-13.7682 0.0708455 -0.00988085)
(-13.6273 0.0767039 0.00662825)
(-13.3424 0.117298 0.0214731)
(-12.6864 0.130179 0.0321664)
(-12.1827 0.384473 0.0409178)
(-9.78494 0.429221 0.0499976)
(-8.88511 0.888289 0.0561135)
(0.46253 -1.25041 0.061151)
(9.30784 -6.66297 -0.865988)
(8.4861 -4.88156 -0.657299)
(8.37498 -2.45718 -0.451231)
(8.34352 -0.987065 -0.298108)
(8.39139 0.156358 -0.211145)
(8.42159 0.954301 -0.130982)
(8.45189 1.46026 -0.0777285)
(8.46454 1.70281 -0.0236796)
(7.00763 -15.161 -0.137378)
(5.88775 -14.721 -0.0541926)
(5.5568 -13.7607 0.0454493)
(5.42746 -13.088 0.0695879)
(5.39361 -12.5042 0.0682717)
(5.37264 -12.0827 0.0559148)
(5.36908 -11.8057 0.0345973)
(5.36606 -11.6611 0.0127965)
(6.93297 -13.2222 0.404344)
(5.83459 -12.3305 0.400273)
(5.54436 -11.3104 0.379365)
(5.44451 -10.6462 0.310455)
(5.42552 -10.0535 0.24537)
(5.41323 -9.6637 0.172511)
(5.41362 -9.39406 0.103023)
(5.41168 -9.27083 0.0339518)
(7.83605 -13.8822 0.818116)
(6.67124 -13.1727 0.666828)
(6.40537 -12.4188 0.566769)
(6.27478 -11.8927 0.445624)
(6.25042 -11.3757 0.347259)
(6.22943 -11.0577 0.239921)
(6.22778 -10.8241 0.143985)
(6.22455 -10.719 0.0469045)
)
;
        pressure        uniform 0;
        secondOrder     false;
        setEffectiveTraction false;
        relaxationFactor 1;
        value           nonuniform List<vector> 
192
(
(8.82726e-08 6.07819e-08 2.9913e-08)
(1.03785e-07 3.79719e-08 5.93662e-08)
(1.07853e-07 1.6256e-08 7.67122e-08)
(1.09064e-07 2.90646e-10 9.05956e-08)
(1.12007e-07 -1.33769e-08 1.04352e-07)
(1.19564e-07 -2.77018e-08 1.19904e-07)
(1.34485e-07 -5.08822e-08 1.38427e-07)
(1.57183e-07 -1.12055e-07 1.56656e-07)
(6.90793e-08 3.21878e-08 3.19242e-09)
(8.02957e-08 1.59197e-08 2.03614e-08)
(8.26679e-08 5.45059e-10 3.63891e-08)
(8.3096e-08 -1.2436e-08 4.98122e-08)
(8.55227e-08 -2.45725e-08 6.23556e-08)
(9.29341e-08 -3.68255e-08 7.53032e-08)
(1.08803e-07 -5.46123e-08 8.80072e-08)
(1.35135e-07 -1.04925e-07 9.54523e-08)
(5.65334e-08 2.08342e-08 1.10184e-09)
(6.49706e-08 4.28019e-09 1.26557e-08)
(6.6618e-08 -9.83421e-09 2.65328e-08)
(6.69018e-08 -2.11602e-08 3.93985e-08)
(6.92957e-08 -3.11309e-08 5.10731e-08)
(7.69172e-08 -4.01013e-08 6.16717e-08)
(9.34664e-08 -5.30409e-08 6.9802e-08)
(1.20789e-07 -9.74616e-08 7.21063e-08)
(4.99559e-08 1.66097e-08 2.087e-09)
(5.6872e-08 -4.69953e-10 1.11797e-08)
(5.83549e-08 -1.4926e-08 2.23918e-08)
(5.88468e-08 -2.57218e-08 3.34466e-08)
(6.14859e-08 -3.41427e-08 4.33867e-08)
(6.93815e-08 -4.07818e-08 5.15742e-08)
(8.6186e-08 -5.11907e-08 5.68071e-08)
(1.13474e-07 -9.29939e-08 5.75991e-08)
(4.66988e-08 1.49758e-08 2.40846e-09)
(5.30459e-08 -2.13174e-09 9.62205e-09)
(5.46214e-08 -1.68204e-08 1.81385e-08)
(5.54047e-08 -2.74697e-08 2.66984e-08)
(5.83309e-08 -3.51224e-08 3.43595e-08)
(6.6428e-08 -4.06664e-08 4.03445e-08)
(8.32416e-08 -5.012e-08 4.38493e-08)
(1.10215e-07 -9.06791e-08 4.43545e-08)
(4.50376e-08 1.43099e-08 2.04396e-09)
(5.12499e-08 -2.61014e-09 7.29891e-09)
(5.29809e-08 -1.7258e-08 1.32418e-08)
(5.40053e-08 -2.78209e-08 1.92004e-08)
(5.71474e-08 -3.51944e-08 2.45096e-08)
(6.53573e-08 -4.04023e-08 2.85703e-08)
(8.21e-08 -4.96168e-08 3.09004e-08)
(1.08772e-07 -8.95302e-08 3.13311e-08)
(4.41743e-08 1.40273e-08 1.32461e-09)
(5.03722e-08 -2.69118e-09 4.50897e-09)
(5.22234e-08 -1.72062e-08 8.0105e-09)
(5.34023e-08 -2.76945e-08 1.14941e-08)
(5.66732e-08 -3.5e-08 1.45863e-08)
(6.49364e-08 -4.01775e-08 1.69387e-08)
(8.16099e-08 -4.93925e-08 1.82971e-08)
(1.08074e-07 -8.8977e-08 1.86014e-08)
(4.37949e-08 1.39187e-08 4.55092e-10)
(4.99942e-08 -2.67985e-09 1.52017e-09)
(5.19046e-08 -1.71019e-08 2.67579e-09)
(5.31559e-08 -2.7546e-08 3.81949e-09)
(5.64845e-08 -3.48451e-08 4.83261e-09)
(6.47678e-08 -4.0053e-08 5.60313e-09)
(8.14032e-08 -4.93035e-08 6.05159e-09)
(1.07763e-07 -8.87509e-08 6.16143e-09)
(3.00104e-08 6.52816e-08 9.25739e-08)
(4.97849e-08 4.46591e-08 1.19716e-07)
(5.27698e-08 2.35702e-08 1.38581e-07)
(5.20957e-08 7.14222e-09 1.54389e-07)
(5.2765e-08 -7.46628e-09 1.7035e-07)
(5.74369e-08 -2.32434e-08 1.88571e-07)
(6.87088e-08 -4.85276e-08 2.10462e-07)
(8.46943e-08 -1.11794e-07 2.3532e-07)
(3.26447e-09 4.65761e-08 8.33113e-08)
(9.09622e-09 3.37186e-08 1.09694e-07)
(1.05607e-08 1.90951e-08 1.27303e-07)
(1.03263e-08 4.58202e-09 1.41991e-07)
(1.05299e-08 -1.0786e-08 1.56993e-07)
(1.23721e-08 -2.78682e-08 1.74515e-07)
(1.66371e-08 -5.16561e-08 1.96864e-07)
(2.15437e-08 -1.07642e-07 2.25528e-07)
(-3.37418e-09 4.60866e-08 8.22064e-08)
(-8.2639e-09 3.31625e-08 1.08598e-07)
(-8.49342e-09 1.85062e-08 1.26203e-07)
(-6.98848e-09 3.96584e-09 1.40883e-07)
(-5.91648e-09 -1.14291e-08 1.5587e-07)
(-6.49146e-09 -2.85389e-08 1.73367e-07)
(-9.55467e-09 -5.23279e-08 1.9568e-07)
(-1.34815e-08 -1.08027e-07 2.24322e-07)
(-2.90425e-08 6.34166e-08 8.94607e-08)
(-4.75002e-08 4.28347e-08 1.1663e-07)
(-4.92587e-08 2.17628e-08 1.35457e-07)
(-4.73179e-08 5.27963e-09 1.51234e-07)
(-4.6694e-08 -9.39684e-09 1.6715e-07)
(-5.00835e-08 -2.52361e-08 1.85301e-07)
(-6.01339e-08 -5.05103e-08 2.07102e-07)
(-7.50281e-08 -1.13013e-07 2.31954e-07)
(-8.24981e-08 5.82885e-08 2.94493e-08)
(-9.66183e-08 3.55225e-08 5.87913e-08)
(-9.93796e-08 1.38059e-08 7.62123e-08)
(-9.92306e-08 -2.22334e-09 9.0156e-08)
(-1.00787e-07 -1.59507e-08 1.03927e-07)
(-1.06969e-07 -3.03087e-08 1.19451e-07)
(-1.2058e-07 -5.34209e-08 1.37905e-07)
(-1.42042e-07 -1.13774e-07 1.56033e-07)
(-6.3355e-08 3.0067e-08 3.30512e-09)
(-7.32819e-08 1.36711e-08 2.05312e-08)
(-7.43956e-08 -1.83058e-09 3.66264e-08)
(-7.34837e-08 -1.49298e-08 5.01065e-08)
(-7.45088e-08 -2.71522e-08 6.26707e-08)
(-8.04985e-08 -3.94589e-08 7.55984e-08)
(-9.49843e-08 -5.7209e-08 8.82488e-08)
(-1.2001e-07 -1.06746e-07 9.56399e-08)
(-5.10127e-08 1.88616e-08 1.22494e-09)
(-5.81905e-08 2.15824e-09 1.28811e-08)
(-5.86022e-08 -1.21348e-08 2.68145e-08)
(-5.75564e-08 -2.36245e-08 3.97177e-08)
(-5.85365e-08 -3.37162e-08 5.14058e-08)
(-6.46956e-08 -4.27707e-08 6.19903e-08)
(-7.97948e-08 -5.57014e-08 7.00867e-08)
(-1.05737e-07 -9.93595e-08 7.23644e-08)
(-4.46101e-08 1.47184e-08 2.17571e-09)
(-5.03178e-08 -2.51923e-09 1.13662e-08)
(-5.05909e-08 -1.7174e-08 2.26311e-08)
(-4.97634e-08 -2.81603e-08 3.37151e-08)
(-5.09812e-08 -3.67297e-08 4.36653e-08)
(-5.73867e-08 -4.34777e-08 5.18449e-08)
(-7.26912e-08 -5.38955e-08 5.70581e-08)
(-9.85391e-08 -9.49398e-08 5.78357e-08)
(-4.14745e-08 1.31422e-08 2.46884e-09)
(-4.66605e-08 -4.13113e-09 9.75908e-09)
(-4.70535e-08 -1.90312e-08 1.83213e-08)
(-4.65294e-08 -2.98878e-08 2.69065e-08)
(-4.80318e-08 -3.77077e-08 3.45773e-08)
(-5.46219e-08 -4.33776e-08 4.05594e-08)
(-6.99043e-08 -5.28515e-08 4.40535e-08)
(-9.53997e-08 -9.26543e-08 4.45505e-08)
(-3.98897e-08 1.25159e-08 2.08292e-09)
(-4.49749e-08 -4.57368e-09 7.39069e-09)
(-4.55457e-08 -1.94416e-08 1.33679e-08)
(-4.52743e-08 -3.0223e-08 1.93467e-08)
(-4.69935e-08 -3.7776e-08 2.46648e-08)
(-5.36875e-08 -4.3121e-08 2.87256e-08)
(-6.88808e-08 -5.23632e-08 3.10504e-08)
(-9.40512e-08 -9.15222e-08 3.14767e-08)
(-3.90707e-08 1.22577e-08 1.3465e-09)
(-4.41624e-08 -4.63136e-09 4.5614e-09)
(-4.48687e-08 -1.93715e-08 8.08378e-09)
(-4.47607e-08 -3.00853e-08 1.15804e-08)
(-4.66109e-08 -3.75778e-08 1.4679e-08)
(-5.33539e-08 -4.28991e-08 1.70325e-08)
(-6.84684e-08 -5.21464e-08 1.83886e-08)
(-9.34168e-08 -9.09778e-08 1.86907e-08)
(-3.87116e-08 1.21605e-08 4.62156e-10)
(-4.38146e-08 -4.60856e-09 1.5372e-09)
(-4.45876e-08 -1.92579e-08 2.69978e-09)
(-4.45566e-08 -2.99307e-08 3.84797e-09)
(-4.64663e-08 -3.74205e-08 4.8634e-09)
(-5.32279e-08 -4.27754e-08 5.63444e-09)
(-6.82999e-08 -5.20603e-08 6.08232e-09)
(-9.31388e-08 -9.07552e-08 6.19154e-09)
(8.49788e-08 -1.91072e-07 1.61653e-07)
(6.95996e-08 -1.77348e-07 9.83673e-08)
(5.88326e-08 -1.66599e-07 7.30431e-08)
(5.42553e-08 -1.59649e-07 5.7455e-08)
(5.29248e-08 -1.55511e-07 4.39141e-08)
(5.27035e-08 -1.53142e-07 3.09688e-08)
(5.27072e-08 -1.51856e-07 1.84007e-08)
(5.27159e-08 -1.51288e-07 6.10048e-09)
(2.18276e-08 -1.81832e-07 1.56956e-07)
(1.75126e-08 -1.64326e-07 1.01002e-07)
(1.37854e-08 -1.53146e-07 7.72742e-08)
(1.2273e-08 -1.46857e-07 6.03751e-08)
(1.20296e-08 -1.43421e-07 4.53856e-08)
(1.21589e-08 -1.41497e-07 3.15914e-08)
(1.22906e-08 -1.40433e-07 1.86346e-08)
(1.2352e-08 -1.39952e-07 6.15983e-09)
(-1.31819e-08 -1.812e-07 1.5676e-07)
(-8.67138e-09 -1.63711e-07 1.01091e-07)
(-4.96487e-09 -1.52561e-07 7.73663e-08)
(-3.53575e-09 -1.46292e-07 6.04467e-08)
(-3.38157e-09 -1.42866e-07 4.54395e-08)
(-3.58762e-09 -1.40947e-07 3.16295e-08)
(-3.77471e-09 -1.39886e-07 1.86575e-08)
(-3.86493e-09 -1.39406e-07 6.16747e-09)
(-7.47255e-08 -1.89431e-07 1.61121e-07)
(-5.92537e-08 -1.75697e-07 9.85944e-08)
(-4.85147e-08 -1.65021e-07 7.32891e-08)
(-4.40193e-08 -1.58122e-07 5.76572e-08)
(-4.27809e-08 -1.54013e-07 4.40724e-08)
(-4.26392e-08 -1.51659e-07 3.1083e-08)
(-4.26998e-08 -1.5038e-07 1.84698e-08)
(-4.27379e-08 -1.49815e-07 6.12363e-09)
)
;
        gradient        nonuniform List<vector> 
192
(
(4.70653e-06 1.56106e-06 -2.03571e-07)
(4.41379e-06 4.41446e-07 -3.38167e-07)
(4.5072e-06 4.67816e-08 -3.65269e-07)
(4.64901e-06 5.13496e-09 -3.67415e-07)
(4.81895e-06 1.1275e-07 -3.67109e-07)
(5.03801e-06 3.22525e-07 -3.65119e-07)
(5.32716e-06 5.41557e-07 -3.5782e-07)
(5.88147e-06 3.68004e-07 -3.44617e-07)
(3.89411e-06 1.0891e-06 -3.06925e-07)
(3.6995e-06 3.07253e-07 -5.01849e-07)
(3.75217e-06 1.6413e-08 -5.4193e-07)
(3.85787e-06 -7.15233e-09 -5.4993e-07)
(4.00918e-06 1.03209e-07 -5.56198e-07)
(4.23212e-06 3.24545e-07 -5.59065e-07)
(4.57347e-06 5.69288e-07 -5.47865e-07)
(5.33116e-06 3.8145e-07 -5.19661e-07)
(3.39502e-06 7.52334e-07 -1.83484e-07)
(3.31594e-06 2.06459e-07 -3.08724e-07)
(3.37594e-06 -1.29445e-09 -3.30693e-07)
(3.47562e-06 -9.133e-09 -3.28489e-07)
(3.62672e-06 1.03615e-07 -3.25061e-07)
(3.86244e-06 3.30857e-07 -3.20678e-07)
(4.23703e-06 5.80961e-07 -3.14129e-07)
(5.04847e-06 3.89636e-07 -3.10783e-07)
(3.09812e-06 5.96925e-07 -7.88972e-08)
(3.06041e-06 1.60057e-07 -1.33812e-07)
(3.1298e-06 -3.34752e-09 -1.38918e-07)
(3.23178e-06 -1.51916e-09 -1.3045e-07)
(3.38639e-06 1.1102e-07 -1.21675e-07)
(3.63053e-06 3.35478e-07 -1.1552e-07)
(4.02058e-06 5.79184e-07 -1.15509e-07)
(4.84129e-06 3.92557e-07 -1.23466e-07)
(2.92381e-06 5.39648e-07 -2.94453e-08)
(2.89716e-06 1.46448e-07 -4.70487e-08)
(2.97182e-06 2.07155e-09 -4.40932e-08)
(3.07758e-06 8.1109e-09 -3.51633e-08)
(3.23617e-06 1.18545e-07 -2.68791e-08)
(3.48532e-06 3.37024e-07 -2.25241e-08)
(3.88103e-06 5.73017e-07 -2.54957e-08)
(4.6964e-06 3.92279e-07 -3.45536e-08)
(2.82241e-06 5.20448e-07 -1.10822e-08)
(2.79879e-06 1.45417e-07 -1.50865e-08)
(2.87621e-06 8.54067e-09 -1.06211e-08)
(2.98507e-06 1.56959e-08 -3.97876e-09)
(3.14677e-06 1.2366e-07 1.64423e-09)
(3.39865e-06 3.36862e-07 3.95853e-09)
(3.79564e-06 5.67156e-07 8.87084e-10)
(4.60338e-06 3.90517e-07 -5.96167e-09)
(2.76617e-06 5.1349e-07 -4.49756e-09)
(2.74358e-06 1.46914e-07 -5.11721e-09)
(2.82243e-06 1.31812e-08 -2.04614e-09)
(2.93328e-06 2.03769e-08 1.75994e-09)
(3.09695e-06 1.26483e-07 4.77398e-09)
(3.35013e-06 3.36267e-07 5.78717e-09)
(3.74692e-06 5.63097e-07 3.77828e-09)
(4.54887e-06 3.8864e-07 -2.8151e-10)
(2.74098e-06 5.1084e-07 -1.29092e-09)
(2.71879e-06 1.47871e-07 -1.36144e-09)
(2.79826e-06 1.5419e-08 -3.3549e-10)
(2.91005e-06 2.25165e-08 8.75965e-10)
(3.07463e-06 1.27687e-07 1.80391e-09)
(3.32832e-06 3.35866e-07 2.08047e-09)
(3.72476e-06 5.61088e-07 1.40278e-09)
(4.52375e-06 3.87512e-07 7.0364e-11)
(4.55519e-08 1.92103e-06 4.8093e-06)
(9.3812e-08 9.76423e-07 4.48979e-06)
(1.005e-07 6.31913e-07 4.58423e-06)
(9.15496e-08 5.53261e-07 4.73606e-06)
(7.95998e-08 5.85597e-07 4.91278e-06)
(6.78767e-08 6.79199e-07 5.12824e-06)
(6.507e-08 7.29923e-07 5.40495e-06)
(8.2346e-08 3.88867e-07 5.94853e-06)
(-5.948e-08 1.78939e-06 4.29342e-06)
(-7.92441e-08 9.5047e-07 3.98949e-06)
(-8.55932e-08 6.15003e-07 4.01089e-06)
(-9.52263e-08 5.3143e-07 4.11322e-06)
(-1.06913e-07 5.63064e-07 4.26041e-06)
(-1.17773e-07 6.69304e-07 4.46293e-06)
(-1.17304e-07 7.54623e-07 4.77288e-06)
(-9.40308e-08 4.05014e-07 5.5255e-06)
(4.80369e-08 1.78222e-06 4.21793e-06)
(6.50468e-08 9.50268e-07 3.9176e-06)
(7.3124e-08 6.15913e-07 3.93661e-06)
(8.4135e-08 5.31932e-07 4.03675e-06)
(9.61944e-08 5.6304e-07 4.18229e-06)
(1.06526e-07 6.68792e-07 4.38331e-06)
(1.0465e-07 7.53634e-07 4.69188e-06)
(7.9255e-08 4.04616e-07 5.44518e-06)
(-5.25251e-08 1.90239e-06 4.59333e-06)
(-1.02358e-07 9.75517e-07 4.28436e-06)
(-1.07725e-07 6.34074e-07 4.37099e-06)
(-9.77233e-08 5.54492e-07 4.5164e-06)
(-8.55519e-08 5.85448e-07 4.68852e-06)
(-7.44121e-08 6.77748e-07 4.90003e-06)
(-7.29522e-08 7.27325e-07 5.17362e-06)
(-9.20804e-08 3.8785e-07 5.72291e-06)
(-4.32898e-06 1.49214e-06 -2.07582e-07)
(-4.0318e-06 3.90537e-07 -3.42713e-07)
(-4.1174e-06 -2.47918e-09 -3.68571e-07)
(-4.25074e-06 -4.57464e-08 -3.69806e-07)
(-4.41295e-06 6.11403e-08 -3.69361e-07)
(-4.62528e-06 2.71942e-07 -3.6801e-07)
(-4.90862e-06 4.9447e-07 -3.62091e-07)
(-5.45317e-06 3.27004e-07 -3.50774e-07)
(-3.52284e-06 1.01926e-06 -3.06468e-07)
(-3.33109e-06 2.5713e-07 -5.00322e-07)
(-3.37759e-06 -3.18996e-08 -5.39358e-07)
(-3.47485e-06 -5.76283e-08 -5.46726e-07)
(-3.61716e-06 5.12764e-08 -5.52974e-07)
(-3.83093e-06 2.72909e-07 -5.56483e-07)
(-4.16355e-06 5.20535e-07 -5.46559e-07)
(-4.90974e-06 3.38549e-07 -5.20079e-07)
(-3.036e-06 6.85353e-07 -1.81373e-07)
(-2.95885e-06 1.57639e-07 -3.0467e-07)
(-3.01262e-06 -4.88887e-08 -3.25614e-07)
(-3.10369e-06 -5.93664e-08 -3.22903e-07)
(-3.24483e-06 5.13807e-08 -3.1946e-07)
(-3.4693e-06 2.78354e-07 -3.15573e-07)
(-3.83207e-06 5.30874e-07 -3.1e-07)
(-4.6291e-06 3.45231e-07 -3.07945e-07)
(-2.74873e-06 5.33218e-07 -7.70089e-08)
(-2.71263e-06 1.12883e-07 -1.29858e-07)
(-2.77566e-06 -5.01371e-08 -1.33841e-07)
(-2.86884e-06 -5.14774e-08 -1.24824e-07)
(-3.0128e-06 5.86054e-08 -1.15952e-07)
(-3.24429e-06 2.82369e-07 -1.10106e-07)
(-3.62012e-06 5.28164e-07 -1.10753e-07)
(-4.42385e-06 3.4714e-07 -1.19575e-07)
(-2.58097e-06 4.7849e-07 -2.81364e-08)
(-2.55587e-06 1.00804e-07 -4.40833e-08)
(-2.62408e-06 -4.38581e-08 -4.00874e-08)
(-2.72082e-06 -4.14794e-08 -3.05835e-08)
(-2.86826e-06 6.60987e-08 -2.2115e-08)
(-3.10384e-06 2.83553e-07 -1.79013e-08)
(-3.48386e-06 5.21406e-07 -2.12706e-08)
(-4.28048e-06 3.4622e-07 -3.08638e-08)
(-2.48364e-06 4.60999e-07 -1.02694e-08)
(-2.46154e-06 1.00929e-07 -1.31563e-08)
(-2.5324e-06 -3.66394e-08 -7.90028e-09)
(-2.63205e-06 -3.35058e-08 -7.65152e-10)
(-2.78225e-06 7.12875e-08 5.06796e-09)
(-3.01997e-06 2.83214e-07 7.35126e-09)
(-3.4004e-06 5.15203e-07 4.06766e-09)
(-4.18829e-06 3.44083e-07 -3.08549e-09)
(-2.42974e-06 4.55065e-07 -4.05842e-09)
(-2.40865e-06 1.03171e-07 -4.04995e-09)
(-2.4809e-06 -3.14682e-08 -5.00746e-10)
(-2.58239e-06 -2.85116e-08 3.62985e-09)
(-2.73433e-06 7.42152e-08 6.80468e-09)
(-2.97301e-06 2.82554e-07 7.83182e-09)