/*--------------------------------*- C++ -*----------------------------------*\
| =========                 |                                                 |
| \\      /  F ield         | OpenFOAM: The Open Source CFD Toolbox           |
|  \\    /   O peration     | Version:  v1912                                 |
|   \\  /    A nd           | Website:  www.openfoam.com                      |
|    \\/     M anipulation  |                                                 |
\*---------------------------------------------------------------------------*/
FoamFile
{
    version     2.0;
    format      ascii;
    class       volVectorField;
    location    "0.83/solid";
    object      DD_0;
}
// * * * * * * * * * * * * * * * * * * * * * * * * * * * * * * * * * * * * * //

dimensions      [0 1 0 0 0 0 0];


internalField   nonuniform List<vector> 
256
(
(2.03259e-10 2.16602e-10 2.55087e-10)
(4.83627e-11 1.40893e-10 2.46365e-10)
(-6.42317e-11 1.34818e-10 2.38533e-10)
(-1.99669e-10 1.95853e-10 2.31647e-10)
(3.8309e-10 1.93156e-10 6.05569e-10)
(9.92901e-11 1.23582e-10 5.90615e-10)
(-1.35635e-10 1.21354e-10 5.7452e-10)
(-3.91874e-10 1.89459e-10 5.56963e-10)
(4.24632e-10 2.86977e-11 8.58177e-10)
(1.06614e-10 -2.92278e-12 8.36289e-10)
(-1.66483e-10 1.21975e-12 8.1537e-10)
(-4.56263e-10 4.52635e-11 7.94879e-10)
(4.162e-10 -1.64218e-10 1.06922e-09)
(9.20893e-11 -1.76973e-10 1.03811e-09)
(-1.8314e-10 -1.66481e-10 1.01374e-09)
(-4.78613e-10 -1.29326e-10 9.95426e-10)
(4.11311e-10 -3.75422e-10 1.27404e-09)
(7.61515e-11 -3.89417e-10 1.2325e-09)
(-2.06802e-10 -3.72898e-10 1.2052e-09)
(-5.12725e-10 -3.23354e-10 1.19135e-09)
(4.44851e-10 -6.33388e-10 1.49323e-09)
(7.27602e-11 -6.51865e-10 1.44316e-09)
(-2.5201e-10 -6.29296e-10 1.41305e-09)
(-5.94113e-10 -5.64036e-10 1.4021e-09)
(5.32832e-10 -1.00581e-09 1.72318e-09)
(8.61944e-11 -1.0079e-09 1.6756e-09)
(-3.24498e-10 -9.78388e-10 1.64265e-09)
(-7.39169e-10 -9.16464e-10 1.62373e-09)
(6.21239e-10 -1.49313e-09 1.89414e-09)
(9.61403e-11 -1.45761e-09 1.86388e-09)
(-4.06008e-10 -1.41767e-09 1.82853e-09)
(-8.94188e-10 -1.37262e-09 1.78802e-09)
(1.36315e-10 7.9733e-11 1.12867e-10)
(3.1282e-11 1.51098e-11 1.24239e-10)
(-3.78113e-11 1.30848e-11 1.20739e-10)
(-1.26068e-10 6.78834e-11 1.0254e-10)
(2.64873e-10 3.05857e-12 3.50777e-10)
(6.74931e-11 -5.55681e-11 3.73388e-10)
(-8.14893e-11 -5.4453e-11 3.63782e-10)
(-2.55572e-10 5.83438e-12 3.22817e-10)
(2.92697e-10 -1.49001e-10 5.70751e-10)
(7.23578e-11 -1.75085e-10 5.95294e-10)
(-1.00426e-10 -1.68949e-10 5.81407e-10)
(-2.97457e-10 -1.29154e-10 5.30161e-10)
(2.81113e-10 -3.24121e-10 7.68392e-10)
(5.93913e-11 -3.34933e-10 7.90082e-10)
(-1.11259e-10 -3.23268e-10 7.73064e-10)
(-3.09712e-10 -2.87718e-10 7.18323e-10)
(2.74815e-10 -5.17554e-10 9.56565e-10)
(4.54102e-11 -5.32243e-10 9.73387e-10)
(-1.30749e-10 -5.14992e-10 9.53703e-10)
(-3.36535e-10 -4.64883e-10 8.98379e-10)
(3.10332e-10 -7.43655e-10 1.14276e-09)
(4.46228e-11 -7.65329e-10 1.15438e-09)
(-1.7321e-10 -7.42397e-10 1.13221e-09)
(-4.146e-10 -6.74496e-10 1.07702e-09)
(4.11989e-10 -1.05239e-09 1.31114e-09)
(6.33484e-11 -1.05493e-09 1.31955e-09)
(-2.46251e-10 -1.02576e-09 1.29522e-09)
(-5.68324e-10 -9.64878e-10 1.23876e-09)
(5.26703e-10 -1.46415e-09 1.40689e-09)
(7.99025e-11 -1.41085e-09 1.41447e-09)
(-3.30413e-10 -1.37265e-09 1.38922e-09)
(-7.44893e-10 -1.34856e-09 1.33134e-09)
(7.63041e-11 2.60863e-11 5.64276e-11)
(1.42781e-11 -2.29547e-11 7.42081e-11)
(-1.64846e-11 -2.45136e-11 7.18357e-11)
(-6.24635e-11 1.39714e-11 4.96741e-11)
(1.54571e-10 -9.29941e-11 2.19094e-10)
(3.40775e-11 -1.38457e-10 2.53578e-10)
(-3.54958e-11 -1.37047e-10 2.46947e-10)
(-1.34035e-10 -9.15444e-11 2.00278e-10)
(1.69918e-10 -2.53898e-10 4.00243e-10)
(3.5616e-11 -2.749e-10 4.39276e-10)
(-4.35541e-11 -2.68921e-10 4.29254e-10)
(-1.56242e-10 -2.36392e-10 3.71514e-10)
(1.57569e-10 -4.20038e-10 5.76719e-10)
(2.41372e-11 -4.30768e-10 6.14892e-10)
(-4.92728e-11 -4.19668e-10 6.02151e-10)
(-1.61379e-10 -3.86756e-10 5.39784e-10)
(1.52554e-10 -5.9042e-10 7.42196e-10)
(1.23125e-11 -6.07599e-10 7.77525e-10)
(-6.52542e-11 -5.91227e-10 7.62417e-10)
(-1.8393e-10 -5.41448e-10 6.98041e-10)
(1.91616e-10 -7.76211e-10 8.90347e-10)
(1.42037e-11 -8.01781e-10 9.22028e-10)
(-1.05532e-10 -7.80052e-10 9.04806e-10)
(-2.60605e-10 -7.11402e-10 8.39689e-10)
(3.02421e-10 -1.02584e-09 1.00035e-09)
(3.73279e-11 -1.03117e-09 1.02789e-09)
(-1.78746e-10 -1.00365e-09 1.0091e-09)
(-4.18963e-10 -9.4363e-10 9.446e-10)
(4.30748e-10 -1.37626e-09 1.03468e-09)
(5.8793e-11 -1.31983e-09 1.05858e-09)
(-2.63933e-10 -1.28373e-09 1.03956e-09)
(-6.04844e-10 -1.26697e-09 9.77517e-10)
(4.59178e-11 4.33639e-12 4.27309e-11)
(5.78197e-12 -3.31574e-11 5.57868e-11)
(-5.9106e-12 -3.50039e-11 5.40228e-11)
(-2.9884e-11 -9.36059e-12 3.78325e-11)
(9.80424e-11 -1.31926e-10 1.6552e-10)
(1.69492e-11 -1.68092e-10 1.90475e-10)
(-1.12966e-11 -1.67509e-10 1.85693e-10)
(-7.04306e-11 -1.33908e-10 1.52178e-10)
(1.08414e-10 -3.00168e-10 3.09236e-10)
(1.75611e-11 -3.18223e-10 3.37074e-10)
(-1.2965e-11 -3.13372e-10 3.29776e-10)
(-8.23684e-11 -2.86914e-10 2.88568e-10)
(9.89873e-11 -4.61287e-10 4.55114e-10)
(8.55892e-12 -4.7295e-10 4.81808e-10)
(-1.58263e-11 -4.63184e-10 4.72336e-10)
(-8.52149e-11 -4.32698e-10 4.27902e-10)
(9.84927e-11 -6.13245e-10 5.90267e-10)
(-2.45702e-13 -6.32988e-10 6.14426e-10)
(-2.99727e-11 -6.18124e-10 6.03004e-10)
(-1.07466e-10 -5.69286e-10 5.57085e-10)
(1.41968e-10 -7.6922e-10 7.01942e-10)
(4.33492e-12 -7.98081e-10 7.23253e-10)
(-6.86642e-11 -7.78028e-10 7.1013e-10)
(-1.84203e-10 -7.09726e-10 6.63464e-10)
(2.55932e-10 -9.82806e-10 7.71625e-10)
(2.95482e-11 -9.92609e-10 7.90117e-10)
(-1.40189e-10 -9.669e-10 7.7584e-10)
(-3.41768e-10 -9.06141e-10 7.29248e-10)
(3.85952e-10 -1.30165e-09 7.79182e-10)
(5.27286e-11 -1.25232e-09 7.96228e-10)
(-2.23542e-10 -1.21803e-09 7.81937e-10)
(-5.25634e-10 -1.19784e-09 7.36032e-10)
(3.47321e-11 -3.90124e-12 3.6213e-11)
(3.29607e-12 -3.5505e-11 4.30883e-11)
(-2.32835e-12 -3.76536e-11 4.18171e-11)
(-1.73314e-11 -1.88767e-11 3.27384e-11)
(7.8149e-11 -1.43675e-10 1.30357e-10)
(1.22366e-11 -1.75469e-10 1.43029e-10)
(-2.42342e-12 -1.75789e-10 1.39641e-10)
(-4.60889e-11 -1.48778e-10 1.21023e-10)
(8.88649e-11 -3.12598e-10 2.39001e-10)
(1.38688e-11 -3.30004e-10 2.52404e-10)
(-1.36054e-12 -3.26385e-10 2.47225e-10)
(-5.47247e-11 -3.03409e-10 2.24485e-10)
(8.37118e-11 -4.69068e-10 3.50209e-10)
(7.60403e-12 -4.82315e-10 3.62042e-10)
(-2.96529e-12 -4.73948e-10 3.55249e-10)
(-5.79273e-11 -4.44983e-10 3.30842e-10)
(8.81591e-11 -6.09273e-10 4.51911e-10)
(1.74533e-12 -6.31305e-10 4.61486e-10)
(-1.61905e-11 -6.17937e-10 4.53204e-10)
(-8.12731e-11 -5.7002e-10 4.27979e-10)
(1.35141e-10 -7.48775e-10 5.31562e-10)
(8.50246e-12 -7.80069e-10 5.39061e-10)
(-5.3512e-11 -7.61567e-10 5.29487e-10)
(-1.57929e-10 -6.94052e-10 5.03571e-10)
(2.4924e-10 -9.45585e-10 5.75854e-10)
(3.45122e-11 -9.59137e-10 5.81882e-10)
(-1.22628e-10 -9.34964e-10 5.71462e-10)
(-3.12338e-10 -8.7358e-10 5.44934e-10)
(3.772e-10 -1.25059e-09 5.75648e-10)
(5.80716e-11 -1.20883e-09 5.817e-10)
(-2.03383e-10 -1.17598e-09 5.71307e-10)
(-4.91096e-10 -1.15112e-09 5.44206e-10)
(3.14842e-11 -6.62878e-12 2.80696e-11)
(3.16024e-12 -3.5774e-11 3.10687e-11)
(-1.59412e-12 -3.81401e-11 3.02181e-11)
(-1.32545e-11 -2.2471e-11 2.57692e-11)
(7.35391e-11 -1.4451e-10 9.55997e-11)
(1.25338e-11 -1.74922e-10 1.00701e-10)
(-2.51275e-13 -1.7593e-10 9.84471e-11)
(-3.87396e-11 -1.51881e-10 8.94503e-11)
(8.64335e-11 -3.10287e-10 1.71377e-10)
(1.57476e-11 -3.28257e-10 1.76104e-10)
(1.68935e-12 -3.25621e-10 1.72655e-10)
(-4.71616e-11 -3.04213e-10 1.61789e-10)
(8.50688e-11 -4.62223e-10 2.48379e-10)
(1.17588e-11 -4.77104e-10 2.51626e-10)
(5.91578e-13 -4.69871e-10 2.47075e-10)
(-5.1423e-11 -4.41682e-10 2.35488e-10)
(9.33207e-11 -5.95804e-10 3.17909e-10)
(8.15427e-12 -6.19614e-10 3.19452e-10)
(-1.20511e-11 -6.07446e-10 3.13866e-10)
(-7.57549e-11 -5.60257e-10 3.0184e-10)
(1.42566e-10 -7.27969e-10 3.70694e-10)
(1.64443e-11 -7.60856e-10 3.70896e-10)
(-4.82024e-11 -7.4356e-10 3.64407e-10)
(-1.51957e-10 -6.76933e-10 3.51775e-10)
(2.56031e-10 -9.18423e-10 3.98342e-10)
(4.28234e-11 -9.34318e-10 3.97872e-10)
(-1.15197e-10 -9.11298e-10 3.90796e-10)
(-3.03204e-10 -8.49921e-10 3.77367e-10)
(3.81777e-10 -1.21719e-09 3.96838e-10)
(6.6465e-11 -1.18043e-09 3.96756e-10)
(-1.93751e-10 -1.14863e-09 3.89704e-10)
(-4.77421e-10 -1.12091e-09 3.75497e-10)
(3.07131e-11 -7.26706e-12 1.77358e-11)
(3.48711e-12 -3.5485e-11 1.88778e-11)
(-1.60881e-12 -3.79886e-11 1.83913e-11)
(-1.20146e-11 -2.36403e-11 1.6429e-11)
(7.32625e-11 -1.42222e-10 5.84936e-11)
(1.37006e-11 -1.72439e-10 6.01891e-11)
(-3.33575e-14 -1.73889e-10 5.8902e-11)
(-3.68858e-11 -1.51023e-10 5.50039e-11)
(8.81081e-11 -3.0436e-10 1.03181e-10)
(1.81721e-11 -3.23108e-10 1.04343e-10)
(2.12974e-12 -3.21122e-10 1.0237e-10)
(-4.58171e-11 -3.00317e-10 9.77285e-11)
(8.93091e-11 -4.52746e-10 1.48122e-10)
(1.57005e-11 -4.6886e-10 1.48289e-10)
(1.25763e-12 -4.62391e-10 1.45677e-10)
(-5.09338e-11 -4.34565e-10 1.40758e-10)
(9.99431e-11 -5.82913e-10 1.88304e-10)
(1.35327e-11 -6.07893e-10 1.87446e-10)
(-1.09791e-11 -5.96534e-10 1.84227e-10)
(-7.5819e-11 -5.49851e-10 1.79075e-10)
(1.50487e-10 -7.12342e-10 2.18329e-10)
(2.27822e-11 -7.4615e-10 2.16738e-10)
(-4.62831e-11 -7.2966e-10 2.12986e-10)
(-1.51509e-10 -6.63767e-10 2.07414e-10)
(2.63419e-10 -9.00795e-10 2.3366e-10)
(4.94005e-11 -9.1792e-10 2.31791e-10)
(-1.11829e-10 -8.95659e-10 2.27692e-10)
(-3.0052e-10 -8.34608e-10 2.21523e-10)
(3.87663e-10 -1.19664e-09 2.32525e-10)
(7.30968e-11 -1.16255e-09 2.30954e-10)
(-1.88899e-10 -1.13143e-09 2.2687e-10)
(-4.71675e-10 -1.10243e-09 2.20166e-10)
(3.05576e-11 -7.29997e-12 6.0569e-12)
(3.6977e-12 -3.52092e-11 6.34564e-12)
(-1.68674e-12 -3.77795e-11 6.18753e-12)
(-1.16477e-11 -2.39264e-11 5.63351e-12)
(7.35559e-11 -1.40379e-10 1.96877e-11)
(1.43964e-11 -1.70661e-10 2.0062e-11)
(-1.08173e-13 -1.72325e-10 1.96437e-11)
(-3.64592e-11 -1.49867e-10 1.85568e-11)
(8.94266e-11 -3.00315e-10 3.44484e-11)
(1.95109e-11 -3.19539e-10 3.46026e-11)
(2.1063e-12 -3.17873e-10 3.3961e-11)
(-4.57376e-11 -2.97262e-10 3.26794e-11)
(9.18739e-11 -4.46791e-10 4.91955e-11)
(1.77757e-11 -4.63547e-10 4.90055e-11)
(1.33452e-12 -4.57457e-10 4.81546e-11)
(-5.12786e-11 -4.29776e-10 4.68015e-11)
(1.03625e-10 -5.75518e-10 6.23112e-11)
(1.62937e-11 -6.01069e-10 6.1783e-11)
(-1.06846e-11 -5.90113e-10 6.07321e-11)
(-7.63849e-11 -5.43691e-10 5.93036e-11)
(1.54761e-10 -7.0412e-10 7.20491e-11)
(2.60054e-11 -7.38344e-10 7.1289e-11)
(-4.55494e-11 -7.22255e-10 7.00623e-11)
(-1.51766e-10 -6.56769e-10 6.84836e-11)
(2.67431e-10 -8.92073e-10 7.69783e-11)
(5.27566e-11 -9.09708e-10 7.61428e-11)
(-1.10378e-10 -8.87824e-10 7.48012e-11)
(-2.99661e-10 -8.27034e-10 7.30076e-11)
(3.90951e-10 -1.18672e-09 7.65782e-11)
(7.64909e-11 -1.15375e-09 7.58459e-11)
(-1.86715e-10 -1.12297e-09 7.45089e-11)
(-4.69309e-10 -1.09355e-09 7.25325e-11)
)
;

boundaryField
{
    interface
    {
        type            calculated;
        value           nonuniform List<vector> 
192
(
(2.48425e-10 3.6319e-10 2.34229e-10)
(4.31205e-10 2.48499e-10 5.68659e-10)
(4.7597e-10 3.69743e-11 8.1785e-10)
(4.71341e-10 -1.67549e-10 1.02938e-09)
(4.67785e-10 -3.6826e-10 1.23547e-09)
(4.98258e-10 -6.03008e-10 1.45673e-09)
(5.86259e-10 -9.61709e-10 1.69083e-09)
(6.79133e-10 -1.46959e-09 1.86768e-09)
(1.59293e-10 1.8003e-10 8.11288e-11)
(2.95226e-10 4.21536e-11 2.93648e-10)
(3.24745e-10 -1.44942e-10 5.07073e-10)
(3.1424e-10 -3.28593e-10 7.03735e-10)
(3.07497e-10 -5.1025e-10 8.91876e-10)
(3.40048e-10 -7.09362e-10 1.07945e-09)
(4.46634e-10 -9.983e-10 1.25354e-09)
(5.81023e-10 -1.43479e-09 1.35927e-09)
(8.5271e-11 8.38051e-11 3.38287e-11)
(1.73242e-10 -6.95912e-11 1.77387e-10)
(1.91038e-10 -2.53149e-10 3.54173e-10)
(1.79919e-10 -4.2438e-10 5.31188e-10)
(1.75312e-10 -5.81909e-10 6.98115e-10)
(2.13723e-10 -7.38745e-10 8.48256e-10)
(3.3309e-10 -9.66056e-10 9.61334e-10)
(4.86349e-10 -1.34289e-09 9.99489e-10)
(4.85342e-11 4.03265e-11 3.23382e-11)
(1.13065e-10 -1.16303e-10 1.46415e-10)
(1.26921e-10 -2.99933e-10 2.88973e-10)
(1.19469e-10 -4.63768e-10 4.36651e-10)
(1.2059e-10 -6.02501e-10 5.74169e-10)
(1.65558e-10 -7.29861e-10 6.87824e-10)
(2.90737e-10 -9.2181e-10 7.5833e-10)
(4.46663e-10 -1.26653e-09 7.65795e-10)
(3.38034e-11 2.43191e-11 3.26048e-11)
(9.01837e-11 -1.30142e-10 1.24231e-10)
(1.04981e-10 -3.11209e-10 2.33507e-10)
(1.02491e-10 -4.69245e-10 3.4673e-10)
(1.09519e-10 -5.96417e-10 4.50619e-10)
(1.59394e-10 -7.08506e-10 5.31712e-10)
(2.86197e-10 -8.8507e-10 5.75879e-10)
(4.39871e-10 -1.21489e-09 5.74605e-10)
(2.88201e-11 1.96271e-11 2.7065e-11)
(8.36505e-11 -1.30774e-10 9.43784e-11)
(1.00952e-10 -3.07405e-10 1.71188e-10)
(1.02768e-10 -4.60502e-10 2.49779e-10)
(1.14285e-10 -5.81431e-10 3.20855e-10)
(1.67277e-10 -6.87292e-10 3.74531e-10)
(2.94201e-10 -8.58621e-10 4.01886e-10)
(4.45126e-10 -1.1814e-09 3.99454e-10)
(2.73665e-11 1.87269e-11 1.75042e-11)
(8.24556e-11 -1.27873e-10 5.8498e-11)
(1.01886e-10 -3.00349e-10 1.0393e-10)
(1.06605e-10 -4.49788e-10 1.49824e-10)
(1.20931e-10 -5.67619e-10 1.9088e-10)
(1.757e-10 -6.71474e-10 2.21378e-10)
(3.02449e-10 -8.41502e-10 2.36511e-10)
(4.51413e-10 -1.16091e-09 2.34819e-10)
(2.70074e-11 1.87284e-11 6.01805e-12)
(8.24194e-11 -1.25662e-10 1.97611e-11)
(1.02958e-10 -2.95736e-10 3.4778e-11)
(1.09085e-10 -4.43242e-10 4.98367e-11)
(1.24732e-10 -5.59797e-10 6.32318e-11)
(1.80305e-10 -6.63169e-10 7.31175e-11)
(3.06935e-10 -8.33026e-10 7.79815e-11)
(4.54932e-10 -1.15105e-09 7.74001e-11)
(2.11506e-10 4.31766e-10 2.74804e-10)
(3.97804e-10 3.43928e-10 6.24652e-10)
(4.39321e-10 1.44612e-10 8.80427e-10)
(4.28342e-10 -6.02511e-11 1.09611e-09)
(4.20212e-10 -2.6942e-10 1.30249e-09)
(4.50582e-10 -5.21103e-10 1.51703e-09)
(5.37112e-10 -9.05575e-10 1.74267e-09)
(6.26909e-10 -1.44098e-09 1.91293e-09)
(4.42227e-11 3.50138e-10 2.547e-10)
(9.15252e-11 2.71064e-10 5.94777e-10)
(9.59094e-11 1.08953e-10 8.37884e-10)
(7.82168e-11 -7.79182e-11 1.03912e-09)
(5.89381e-11 -2.88153e-10 1.23088e-09)
(5.2715e-11 -5.41091e-10 1.43387e-09)
(6.60613e-11 -9.02721e-10 1.6642e-09)
(7.97357e-11 -1.40264e-09 1.86682e-09)
(-6.79132e-11 3.38081e-10 2.37046e-10)
(-1.44051e-10 2.65563e-10 5.70534e-10)
(-1.76839e-10 1.11026e-10 8.08751e-10)
(-1.93815e-10 -6.90236e-11 1.00619e-09)
(-2.17093e-10 -2.7307e-10 1.19471e-09)
(-2.62278e-10 -5.19931e-10 1.39462e-09)
(-3.37467e-10 -8.74518e-10 1.62185e-09)
(-4.24975e-10 -1.36322e-09 1.82126e-09)
(-2.14236e-10 3.93006e-10 2.22003e-10)
(-4.20451e-10 3.30267e-10 5.49334e-10)
(-4.8957e-10 1.54881e-10 7.8955e-10)
(-5.12876e-10 -3.0207e-11 9.93666e-10)
(-5.46712e-10 -2.21684e-10 1.19027e-09)
(-6.27687e-10 -4.55941e-10 1.39568e-09)
(-7.73957e-10 -8.19984e-10 1.61244e-09)
(-9.32577e-10 -1.32187e-09 1.775e-09)
(-1.8475e-10 3.43738e-10 2.05961e-10)
(-3.80207e-10 2.53607e-10 5.08596e-10)
(-4.46657e-10 6.69495e-11 7.38521e-10)
(-4.71343e-10 -1.15209e-10 9.36066e-10)
(-5.05275e-10 -2.94478e-10 1.13031e-09)
(-5.8194e-10 -5.07423e-10 1.34043e-09)
(-7.24224e-10 -8.41444e-10 1.56362e-09)
(-8.78882e-10 -1.31344e-09 1.7315e-09)
(-9.30361e-11 1.63293e-10 6.82388e-11)
(-2.30726e-10 4.86818e-11 2.58356e-10)
(-2.73703e-10 -1.15618e-10 4.55155e-10)
(-2.85944e-10 -2.77947e-10 6.39014e-10)
(-3.11042e-10 -4.38659e-10 8.16179e-10)
(-3.84625e-10 -6.16547e-10 9.93639e-10)
(-5.40351e-10 -8.82303e-10 1.15871e-09)
(-7.30344e-10 -1.28569e-09 1.259e-09)
(-1.72731e-11 6.30958e-11 2.56274e-11)
(-9.96985e-11 -6.80995e-11 1.53991e-10)
(-1.23921e-10 -2.29555e-10 3.1774e-10)
(-1.29345e-10 -3.79832e-10 4.83658e-10)
(-1.51067e-10 -5.1664e-10 6.40772e-10)
(-2.25451e-10 -6.52642e-10 7.82088e-10)
(-3.89267e-10 -8.57569e-10 8.8796e-10)
(-5.93659e-10 -1.20221e-09 9.22701e-10)
(2.09935e-11 1.5718e-11 2.65491e-11)
(-3.32444e-11 -1.20786e-10 1.3019e-10)
(-4.83609e-11 -2.83217e-10 2.63187e-10)
(-5.22892e-11 -4.26423e-10 4.02038e-10)
(-7.4894e-11 -5.44537e-10 5.3142e-10)
(-1.51404e-10 -6.51148e-10 6.37794e-10)
(-3.16948e-10 -8.20781e-10 7.0259e-10)
(-5.20312e-10 -1.13318e-09 7.07594e-10)
(3.67844e-11 -3.02173e-12 2.85806e-11)
(-6.30672e-12 -1.39429e-10 1.13099e-10)
(-1.87705e-11 -3.00448e-10 2.15682e-10)
(-2.37909e-11 -4.38345e-10 3.22393e-10)
(-4.84624e-11 -5.45019e-10 4.2005e-10)
(-1.2623e-10 -6.36284e-10 4.95508e-10)
(-2.90019e-10 -7.90287e-10 5.35292e-10)
(-4.88099e-10 -1.08738e-09 5.32152e-10)
(4.24308e-11 -9.47253e-12 2.44397e-11)
(2.76119e-12 -1.43404e-10 8.71488e-11)
(-9.83296e-12 -3.01041e-10 1.59562e-10)
(-1.64761e-11 -4.34532e-10 2.33739e-10)
(-4.28191e-11 -5.35122e-10 3.00476e-10)
(-1.20949e-10 -6.20069e-10 3.50169e-10)
(-2.82284e-10 -7.68553e-10 3.74412e-10)
(-4.75307e-10 -1.0582e-09 3.70641e-10)
(4.42704e-11 -1.14153e-11 1.60271e-11)
(5.46322e-12 -1.42572e-10 5.44333e-11)
(-7.8455e-12 -2.96804e-10 9.7372e-11)
(-1.57161e-11 -4.27063e-10 1.40721e-10)
(-4.30386e-11 -5.24705e-10 1.79232e-10)
(-1.21117e-10 -6.07589e-10 2.07366e-10)
(-2.80552e-10 -7.54565e-10 2.20637e-10)
(-4.7007e-10 -1.04054e-09 2.18138e-10)
(4.48046e-11 -1.18997e-11 5.54174e-12)
(6.17962e-12 -1.41344e-10 1.845e-11)
(-7.56728e-12 -2.93556e-10 3.26594e-11)
(-1.60308e-11 -4.22113e-10 4.68876e-11)
(-4.37743e-11 -5.18568e-10 5.94449e-11)
(-1.21749e-10 -6.00948e-10 6.85475e-11)
(-2.80203e-10 -7.47647e-10 7.27927e-11)
(-4.6798e-10 -1.03209e-09 7.1941e-11)
(6.24134e-10 -1.51293e-09 1.91298e-09)
(5.28058e-10 -1.48541e-09 1.37767e-09)
(4.33324e-10 -1.40316e-09 9.94051e-10)
(3.91178e-10 -1.33564e-09 7.47762e-10)
(3.84609e-10 -1.28714e-09 5.54535e-10)
(3.9048e-10 -1.25447e-09 3.83351e-10)
(3.97006e-10 -1.23425e-09 2.24908e-10)
(4.00545e-10 -1.22453e-09 7.40999e-11)
(7.72741e-11 -1.46151e-09 1.87968e-09)
(5.70267e-11 -1.40117e-09 1.38002e-09)
(3.56588e-11 -1.31342e-09 1.01894e-09)
(3.18242e-11 -1.25546e-09 7.68479e-10)
(3.94188e-11 -1.21715e-09 5.63729e-10)
(4.93227e-11 -1.19129e-09 3.85184e-10)
(5.67927e-11 -1.17474e-09 2.24283e-10)
(6.05499e-11 -1.16655e-09 7.36465e-11)
(-4.27256e-10 -1.41125e-09 1.8445e-09)
(-3.45988e-10 -1.35332e-09 1.35573e-09)
(-2.7715e-10 -1.26779e-09 1.00091e-09)
(-2.37163e-10 -1.21166e-09 7.54999e-10)
(-2.17815e-10 -1.17477e-09 5.53955e-10)
(-2.08635e-10 -1.14995e-09 3.78566e-10)
(-2.0393e-10 -1.13406e-09 2.20454e-10)
(-2.01768e-10 -1.1262e-09 7.23937e-11)
(-9.35044e-10 -1.36031e-09 1.80738e-09)
(-7.82355e-10 -1.33839e-09 1.30492e-09)
(-6.41417e-10 -1.26248e-09 9.39836e-10)
(-5.63017e-10 -1.20042e-09 7.07069e-10)
(-5.29185e-10 -1.15619e-09 5.24972e-10)
(-5.15706e-10 -1.12661e-09 3.63326e-10)
(-5.09874e-10 -1.1084e-09 2.13327e-10)
(-5.07398e-10 -1.09967e-09 7.03114e-11)
)
;
    }
    symmetry
    {
        type            symmetry;
    }
    bottom
    {
        type            calculated;
        value           uniform (0 0 0);
    }
}


// ************************************************************************* //
