/*--------------------------------*- C++ -*----------------------------------*\
| =========                 |                                                 |
| \\      /  F ield         | OpenFOAM: The Open Source CFD Toolbox           |
|  \\    /   O peration     | Version:  v1912                                 |
|   \\  /    A nd           | Website:  www.openfoam.com                      |
|    \\/     M anipulation  |                                                 |
\*---------------------------------------------------------------------------*/
FoamFile
{
    version     2.0;
    format      ascii;
    class       volScalarField;
    location    "0.83/solid";
    object      epsilonEq;
}
// * * * * * * * * * * * * * * * * * * * * * * * * * * * * * * * * * * * * * //

dimensions      [0 0 0 0 0 0 0];


internalField   nonuniform List<scalar> 
256
(
2.93524e-06
2.03956e-06
2.00491e-06
2.78201e-06
1.65256e-06
1.37012e-06
1.34516e-06
1.53992e-06
1.61319e-06
1.25877e-06
1.23492e-06
1.49981e-06
1.68551e-06
1.2421e-06
1.21849e-06
1.56971e-06
1.73469e-06
1.25289e-06
1.22934e-06
1.61702e-06
1.70069e-06
1.24614e-06
1.22278e-06
1.58223e-06
1.33473e-06
1.10037e-06
1.08147e-06
1.22627e-06
2.88284e-07
1.24452e-06
1.23428e-06
2.94914e-07
1.7077e-06
4.49237e-07
4.34445e-07
1.55309e-06
1.21978e-06
4.42818e-07
4.30308e-07
1.08409e-06
1.17483e-06
3.33609e-07
3.24131e-07
1.03985e-06
1.17915e-06
2.23715e-07
2.1822e-07
1.04204e-06
1.20359e-06
1.85896e-07
1.8464e-07
1.06365e-06
1.23102e-06
2.13806e-07
2.12535e-07
1.08843e-06
1.13821e-06
2.12118e-07
2.15441e-07
9.97816e-07
1.3356e-06
1.10349e-06
1.08425e-06
1.22598e-06
1.39709e-06
2.8077e-07
2.74809e-07
1.24513e-06
1.1589e-06
2.64524e-07
2.54933e-07
1.02251e-06
1.13368e-06
1.88097e-07
1.80686e-07
9.9619e-07
1.13847e-06
1.35139e-07
1.35015e-07
9.98176e-07
1.17031e-06
1.46946e-07
1.51622e-07
1.02664e-06
1.22468e-06
1.64744e-07
1.66511e-07
1.07763e-06
1.22904e-06
2.10255e-07
2.09414e-07
1.08504e-06
1.7045e-06
1.25236e-06
1.22854e-06
1.58404e-06
1.2394e-06
2.65052e-07
2.63687e-07
1.09332e-06
1.08174e-06
2.50442e-07
2.47267e-07
9.52293e-07
1.06269e-06
1.96103e-07
1.95645e-07
9.30334e-07
1.06723e-06
1.73592e-07
1.78962e-07
9.30766e-07
1.10253e-06
1.77836e-07
1.86029e-07
9.61794e-07
1.16565e-06
1.60925e-07
1.66698e-07
1.02042e-06
1.19804e-06
1.72556e-07
1.73487e-07
1.05503e-06
1.75039e-06
1.26507e-06
1.24092e-06
1.62956e-06
1.14889e-06
2.29958e-07
2.30018e-07
1.00603e-06
1.01326e-06
2.3e-07
2.29137e-07
8.87487e-07
1.00099e-06
1.90327e-07
1.91812e-07
8.71626e-07
1.00993e-06
1.70035e-07
1.76354e-07
8.7573e-07
1.05146e-06
1.66005e-07
1.7467e-07
9.12605e-07
1.12138e-06
1.35612e-07
1.41626e-07
9.77523e-07
1.16698e-06
1.64668e-07
1.64251e-07
1.02498e-06
1.73226e-06
1.25658e-06
1.23224e-06
1.61164e-06
1.09746e-06
1.96305e-07
1.96763e-07
9.56025e-07
9.66573e-07
2.01095e-07
2.00601e-07
8.41964e-07
9.5943e-07
1.63597e-07
1.65168e-07
8.30958e-07
9.74009e-07
1.378e-07
1.44386e-07
8.40483e-07
1.0218e-06
1.28028e-07
1.3707e-07
8.83605e-07
1.09752e-06
9.58815e-08
1.00881e-07
9.54276e-07
1.15231e-06
1.77893e-07
1.75132e-07
1.01107e-06
1.71482e-06
1.24967e-06
1.22509e-06
1.5942e-06
1.06929e-06
1.69596e-07
1.70097e-07
9.28399e-07
9.38858e-07
1.74063e-07
1.73358e-07
8.14386e-07
9.34781e-07
1.32061e-07
1.33347e-07
8.06317e-07
9.5365e-07
9.83384e-08
1.05851e-07
8.20124e-07
1.0059e-06
8.58615e-08
9.65402e-08
8.67807e-07
1.08575e-06
5.83712e-08
6.21988e-08
9.4274e-07
1.14686e-06
1.93062e-07
1.88873e-07
1.00615e-06
1.70574e-06
1.24565e-06
1.2209e-06
1.58505e-06
1.05671e-06
1.54045e-07
1.54509e-07
9.15977e-07
9.26051e-07
1.57385e-07
1.56451e-07
8.01495e-07
9.23404e-07
1.10184e-07
1.11268e-07
7.94805e-07
9.4447e-07
6.78824e-08
7.73204e-08
8.10841e-07
9.98947e-07
5.35375e-08
6.78045e-08
8.60827e-07
1.08089e-06
3.00215e-08
3.33846e-08
9.37951e-07
1.14522e-06
2.01442e-07
1.96669e-07
1.00478e-06
1.70234e-06
1.24383e-06
1.21901e-06
1.58161e-06
)
;

boundaryField
{
    interface
    {
        type            calculated;
        value           nonuniform List<scalar> 
192
(
3.68351e-06
2.27985e-06
2.25281e-06
2.35701e-06
2.4383e-06
2.43481e-06
2.10382e-06
1.16656e-06
2.6967e-06
2.05898e-06
2.0246e-06
2.07441e-06
2.14578e-06
2.21146e-06
2.13814e-06
2.1056e-06
2.336e-06
1.98442e-06
1.97723e-06
2.0264e-06
2.10554e-06
2.20039e-06
2.21294e-06
2.44154e-06
2.1126e-06
1.85791e-06
1.86463e-06
1.91549e-06
1.99921e-06
2.10592e-06
2.15009e-06
2.46048e-06
1.9772e-06
1.75085e-06
1.7663e-06
1.82193e-06
1.91154e-06
2.02604e-06
2.08553e-06
2.41805e-06
1.89849e-06
1.68022e-06
1.70073e-06
1.76133e-06
1.85631e-06
1.97635e-06
2.04479e-06
2.38283e-06
1.85523e-06
1.63941e-06
1.66265e-06
1.72678e-06
1.82546e-06
1.94903e-06
2.02275e-06
2.3626e-06
1.836e-06
1.62095e-06
1.64539e-06
1.7113e-06
1.8118e-06
1.93704e-06
2.01325e-06
2.3539e-06
3.72294e-06
2.31848e-06
2.29343e-06
2.40084e-06
2.48407e-06
2.47922e-06
2.14434e-06
1.20317e-06
3.08629e-06
2.25061e-06
2.15173e-06
2.18145e-06
2.23818e-06
2.27065e-06
2.14794e-06
2.0586e-06
3.03178e-06
2.20741e-06
2.10847e-06
2.13735e-06
2.1934e-06
2.2254e-06
2.1054e-06
2.03007e-06
3.54334e-06
2.18877e-06
2.16159e-06
2.26514e-06
2.34599e-06
2.34064e-06
2.01873e-06
1.17908e-06
3.44042e-06
2.0687e-06
2.03792e-06
2.13721e-06
2.21405e-06
2.20644e-06
1.87607e-06
9.69552e-07
2.43262e-06
1.81592e-06
1.77934e-06
1.82395e-06
1.88961e-06
1.94974e-06
1.87531e-06
1.87617e-06
2.07781e-06
1.74409e-06
1.73363e-06
1.77723e-06
1.85001e-06
1.93802e-06
1.94875e-06
2.20959e-06
1.86237e-06
1.62564e-06
1.62791e-06
1.67235e-06
1.74891e-06
1.84756e-06
1.88843e-06
2.23023e-06
1.73194e-06
1.52353e-06
1.53407e-06
1.58278e-06
1.66481e-06
1.77057e-06
1.82592e-06
2.18908e-06
1.656e-06
1.45532e-06
1.47073e-06
1.52422e-06
1.61146e-06
1.72246e-06
1.78649e-06
2.15453e-06
1.61419e-06
1.4156e-06
1.43365e-06
1.49063e-06
1.58151e-06
1.69594e-06
1.76523e-06
2.13466e-06
1.59556e-06
1.39756e-06
1.41678e-06
1.47552e-06
1.56821e-06
1.68429e-06
1.75609e-06
2.12614e-06
1.20704e-06
2.14797e-06
2.48738e-06
2.50826e-06
2.46562e-06
2.42934e-06
2.40823e-06
2.39911e-06
2.06124e-06
2.1538e-06
2.28226e-06
2.26136e-06
2.21957e-06
2.18735e-06
2.16719e-06
2.15765e-06
2.03233e-06
2.11058e-06
2.23601e-06
2.21512e-06
2.17334e-06
2.14103e-06
2.12078e-06
2.1112e-06
1.18109e-06
2.02038e-06
2.34584e-06
2.36569e-06
2.32298e-06
2.28651e-06
2.26521e-06
2.25597e-06
)
;
    }
    symmetry
    {
        type            symmetry;
    }
    bottom
    {
        type            calculated;
        value           nonuniform List<scalar> 
32
(
4.24341e-06
2.24629e-06
1.71961e-06
1.51032e-06
1.40495e-06
1.34752e-06
1.31659e-06
1.3029e-06
2.68667e-06
5.70286e-07
2.71496e-07
2.54437e-07
2.23421e-07
1.92043e-07
1.66802e-07
1.5205e-07
2.64363e-06
5.49534e-07
2.56473e-07
2.43719e-07
2.12877e-07
1.80473e-07
1.53695e-07
1.37656e-07
4.04945e-06
2.07233e-06
1.54873e-06
1.34465e-06
1.24284e-06
1.18742e-06
1.1575e-06
1.14421e-06
)
;
    }
}


// ************************************************************************* //
