/*--------------------------------*- C++ -*----------------------------------*\
| =========                 |                                                 |
| \\      /  F ield         | OpenFOAM: The Open Source CFD Toolbox           |
|  \\    /   O peration     | Version:  v1912                                 |
|   \\  /    A nd           | Website:  www.openfoam.com                      |
|    \\/     M anipulation  |                                                 |
\*---------------------------------------------------------------------------*/
FoamFile
{
    version     2.0;
    format      ascii;
    class       pointVectorField;
    location    "0.83/solid";
    object      pointDD;
}
// * * * * * * * * * * * * * * * * * * * * * * * * * * * * * * * * * * * * * //

dimensions      [0 1 0 0 0 0 0];


internalField   nonuniform List<vector> 
405
(
(1.51739e-10 2.62519e-10 1.68565e-10)
(6.31779e-11 1.93991e-10 1.31848e-10)
(-5.99436e-12 1.70901e-10 1.22602e-10)
(-6.9901e-11 1.81195e-10 1.14118e-10)
(-1.31518e-10 2.43064e-10 1.41324e-10)
(3.19109e-10 3.44226e-10 4.23068e-10)
(1.84217e-10 3.47107e-10 4.3538e-10)
(-1.93301e-11 3.04637e-10 4.12861e-10)
(-2.10097e-10 3.29522e-10 3.92519e-10)
(-2.97124e-10 3.27596e-10 3.68421e-10)
(4.32146e-10 1.92864e-10 7.19098e-10)
(2.53476e-10 2.16618e-10 7.31365e-10)
(-3.39116e-11 1.88957e-10 7.00431e-10)
(-3.06064e-10 2.15021e-10 6.75911e-10)
(-4.31083e-10 2.01146e-10 6.41818e-10)
(4.4982e-10 -1.0744e-11 9.5128e-10)
(2.57692e-10 2.96258e-11 9.5948e-10)
(-4.99783e-11 1.93007e-11 9.19604e-10)
(-3.4211e-10 4.27541e-11 8.94935e-10)
(-4.77533e-10 2.05787e-11 8.58665e-10)
(4.42938e-10 -2.14594e-10 1.16024e-09)
(2.43539e-10 -1.7207e-10 1.16234e-09)
(-6.96306e-11 -1.74764e-10 1.11347e-09)
(-3.67014e-10 -1.46141e-10 1.09059e-09)
(-5.07072e-10 -1.62663e-10 1.05565e-09)
(4.54689e-10 -4.37867e-10 1.37106e-09)
(2.42219e-10 -4.01995e-10 1.36513e-09)
(-9.3526e-11 -4.01958e-10 1.30822e-09)
(-4.13132e-10 -3.64043e-10 1.28699e-09)
(-5.63669e-10 -3.66057e-10 1.25585e-09)
(5.1193e-10 -7.43922e-10 1.59312e-09)
(2.71936e-10 -7.13139e-10 1.58185e-09)
(-1.22308e-10 -7.04334e-10 1.52176e-09)
(-4.99681e-10 -6.62244e-10 1.4976e-09)
(-6.74532e-10 -6.50704e-10 1.46776e-09)
(5.98056e-10 -1.18639e-09 1.79225e-09)
(3.20573e-10 -1.15461e-09 1.78623e-09)
(-1.56761e-10 -1.12703e-09 1.73369e-09)
(-6.15441e-10 -1.08542e-09 1.69619e-09)
(-8.22884e-10 -1.06418e-09 1.65767e-09)
(6.31974e-10 -1.46322e-09 1.88488e-09)
(3.43803e-10 -1.44352e-09 1.88045e-09)
(-1.7672e-10 -1.39879e-09 1.84066e-09)
(-6.7746e-10 -1.35191e-09 1.79837e-09)
(-9.09533e-10 -1.31852e-09 1.75668e-09)
(1.01359e-10 1.34578e-10 7.84192e-11)
(0 0 0)
(0 0 0)
(0 0 0)
(-6.88849e-11 1.25573e-10 6.80037e-11)
(2.81963e-10 2.06987e-10 2.9299e-10)
(0 0 0)
(0 0 0)
(0 0 0)
(-2.2075e-10 2.01074e-10 2.58411e-10)
(3.7984e-10 4.59427e-11 5.44345e-10)
(0 0 0)
(0 0 0)
(0 0 0)
(-3.31347e-10 6.42031e-11 4.86902e-10)
(3.94764e-10 -1.49459e-10 7.61151e-10)
(0 0 0)
(0 0 0)
(0 0 0)
(-3.68532e-10 -1.08045e-10 6.87788e-10)
(3.88438e-10 -3.41164e-10 9.6079e-10)
(0 0 0)
(0 0 0)
(0 0 0)
(-3.93137e-10 -2.77922e-10 8.74828e-10)
(4.01243e-10 -5.44494e-10 1.16036e-09)
(0 0 0)
(0 0 0)
(0 0 0)
(-4.45803e-10 -4.59584e-10 1.06321e-09)
(4.643e-10 -8.13917e-10 1.36305e-09)
(0 0 0)
(0 0 0)
(0 0 0)
(-5.57386e-10 -7.0594e-10 1.25546e-09)
(5.66533e-10 -1.20873e-09 1.53408e-09)
(0 0 0)
(0 0 0)
(0 0 0)
(-7.15866e-10 -1.07116e-09 1.41781e-09)
(5.93689e-10 -1.46575e-09 1.61957e-09)
(3.14603e-10 -1.45609e-09 1.62742e-09)
(-1.62476e-10 -1.3981e-09 1.60456e-09)
(-6.21001e-10 -1.35537e-09 1.56711e-09)
(-8.27239e-10 -1.31237e-09 1.5144e-09)
(6.12942e-11 6.56485e-11 2.88121e-11)
(0 0 0)
(0 0 0)
(0 0 0)
(-2.76854e-11 5.62995e-11 2.34588e-11)
(1.78533e-10 5.91931e-11 1.46283e-10)
(0 0 0)
(0 0 0)
(0 0 0)
(-1.10419e-10 5.20035e-11 1.26037e-10)
(2.46463e-10 -1.04999e-10 3.32003e-10)
(0 0 0)
(0 0 0)
(0 0 0)
(-1.82557e-10 -8.9296e-11 2.94688e-10)
(2.53157e-10 -2.85353e-10 5.21996e-10)
(0 0 0)
(0 0 0)
(0 0 0)
(-2.04391e-10 -2.47541e-10 4.71083e-10)
(2.45037e-10 -4.58025e-10 7.03186e-10)
(0 0 0)
(0 0 0)
(0 0 0)
(-2.2113e-10 -3.98919e-10 6.40928e-10)
(2.5971e-10 -6.31215e-10 8.7533e-10)
(0 0 0)
(0 0 0)
(0 0 0)
(-2.70239e-10 -5.50864e-10 8.02994e-10)
(3.32808e-10 -8.48832e-10 1.03055e-09)
(0 0 0)
(0 0 0)
(0 0 0)
(-3.86778e-10 -7.46236e-10 9.49307e-10)
(4.5814e-10 -1.17926e-09 1.13786e-09)
(0 0 0)
(0 0 0)
(0 0 0)
(-5.63166e-10 -1.04857e-09 1.05027e-09)
(5.00826e-10 -1.40869e-09 1.17695e-09)
(2.58546e-10 -1.39392e-09 1.18639e-09)
(-1.34976e-10 -1.32763e-09 1.18198e-09)
(-5.11364e-10 -1.29738e-09 1.14344e-09)
(-6.84795e-10 -1.26223e-09 1.09982e-09)
(3.38785e-11 3.10887e-11 1.65386e-11)
(0 0 0)
(0 0 0)
(0 0 0)
(5.75412e-13 1.97343e-11 1.29865e-11)
(1.06001e-10 -1.46921e-11 9.71205e-11)
(0 0 0)
(0 0 0)
(0 0 0)
(-3.31302e-11 -2.66875e-11 8.3513e-11)
(1.52342e-10 -1.82838e-10 2.40517e-10)
(0 0 0)
(0 0 0)
(0 0 0)
(-7.75231e-11 -1.73138e-10 2.14671e-10)
(1.55912e-10 -3.57479e-10 4.0056e-10)
(0 0 0)
(0 0 0)
(0 0 0)
(-9.02578e-11 -3.26245e-10 3.63924e-10)
(1.50528e-10 -5.14616e-10 5.56895e-10)
(0 0 0)
(0 0 0)
(0 0 0)
(-1.04223e-10 -4.6234e-10 5.1065e-10)
(1.70297e-10 -6.59402e-10 6.98088e-10)
(0 0 0)
(0 0 0)
(0 0 0)
(-1.53399e-10 -5.86079e-10 6.43206e-10)
(2.5122e-10 -8.35261e-10 8.09343e-10)
(0 0 0)
(0 0 0)
(0 0 0)
(-2.73139e-10 -7.4003e-10 7.47105e-10)
(3.86799e-10 -1.11909e-09 8.66691e-10)
(0 0 0)
(0 0 0)
(0 0 0)
(-4.55481e-10 -9.96193e-10 7.99695e-10)
(4.34494e-10 -1.33047e-09 8.72479e-10)
(2.19174e-10 -1.32117e-09 8.77567e-10)
(-1.13767e-10 -1.25681e-09 8.80514e-10)
(-4.29867e-10 -1.22863e-09 8.45498e-10)
(-5.78337e-10 -1.19099e-09 8.14162e-10)
(2.1067e-11 1.63065e-11 1.61396e-11)
(0 0 0)
(0 0 0)
(0 0 0)
(1.40593e-11 3.2663e-12 1.36488e-11)
(7.25105e-11 -4.45386e-11 8.33527e-11)
(0 0 0)
(0 0 0)
(0 0 0)
(3.66955e-12 -6.09574e-11 7.39192e-11)
(1.10236e-10 -2.12354e-10 1.96971e-10)
(0 0 0)
(0 0 0)
(0 0 0)
(-2.79201e-11 -2.08648e-10 1.78962e-10)
(1.15208e-10 -3.83127e-10 3.24332e-10)
(0 0 0)
(0 0 0)
(0 0 0)
(-3.75426e-11 -3.58613e-10 2.98307e-10)
(1.14877e-10 -5.29512e-10 4.49129e-10)
(0 0 0)
(0 0 0)
(0 0 0)
(-5.20666e-11 -4.84215e-10 4.15569e-10)
(1.40414e-10 -6.55728e-10 5.57528e-10)
(0 0 0)
(0 0 0)
(0 0 0)
(-1.02763e-10 -5.89441e-10 5.1705e-10)
(2.26094e-10 -8.0792e-10 6.34546e-10)
(0 0 0)
(0 0 0)
(0 0 0)
(-2.23324e-10 -7.19683e-10 5.88236e-10)
(3.63786e-10 -1.0675e-09 6.64908e-10)
(0 0 0)
(0 0 0)
(0 0 0)
(-4.04182e-10 -9.51419e-10 6.14946e-10)
(4.11186e-10 -1.27019e-09 6.57215e-10)
(2.08352e-10 -1.26868e-09 6.54964e-10)
(-9.77607e-11 -1.20998e-09 6.56269e-10)
(-3.86926e-10 -1.17944e-09 6.31251e-10)
(-5.2392e-10 -1.13652e-09 6.13871e-10)
(1.61321e-11 1.11399e-11 1.48079e-11)
(0 0 0)
(0 0 0)
(0 0 0)
(1.94395e-11 -3.04187e-12 1.31202e-11)
(6.02057e-11 -5.33301e-11 6.90621e-11)
(0 0 0)
(0 0 0)
(0 0 0)
(1.80992e-11 -7.29589e-11 6.27143e-11)
(9.63487e-11 -2.17868e-10 1.54715e-10)
(0 0 0)
(0 0 0)
(0 0 0)
(-9.16117e-12 -2.18858e-10 1.42581e-10)
(1.04484e-10 -3.84259e-10 2.48569e-10)
(0 0 0)
(0 0 0)
(0 0 0)
(-1.87687e-11 -3.65256e-10 2.30851e-10)
(1.09055e-10 -5.23602e-10 3.39697e-10)
(0 0 0)
(0 0 0)
(0 0 0)
(-3.48419e-11 -4.84146e-10 3.16528e-10)
(1.39189e-10 -6.40104e-10 4.167e-10)
(0 0 0)
(0 0 0)
(0 0 0)
(-8.68245e-11 -5.79685e-10 3.88412e-10)
(2.27331e-10 -7.81834e-10 4.68083e-10)
(0 0 0)
(0 0 0)
(0 0 0)
(-2.06717e-10 -6.9929e-10 4.35457e-10)
(3.64306e-10 -1.03083e-09 4.85164e-10)
(0 0 0)
(0 0 0)
(0 0 0)
(-3.83995e-10 -9.20104e-10 4.49829e-10)
(4.10754e-10 -1.22906e-09 4.75413e-10)
(2.12679e-10 -1.23272e-09 4.69058e-10)
(-8.60836e-11 -1.17883e-09 4.6752e-10)
(-3.67751e-10 -1.14598e-09 4.5233e-10)
(-5.00632e-10 -1.09983e-09 4.44768e-10)
(1.45084e-11 9.73496e-12 1.10585e-11)
(0 0 0)
(0 0 0)
(0 0 0)
(2.13323e-11 -5.15889e-12 1.00174e-11)
(5.66203e-11 -5.41941e-11 4.89945e-11)
(0 0 0)
(0 0 0)
(0 0 0)
(2.29772e-11 -7.59082e-11 4.5087e-11)
(9.35744e-11 -2.14658e-10 1.06223e-10)
(0 0 0)
(0 0 0)
(0 0 0)
(-3.37179e-12 -2.18852e-10 9.87431e-11)
(1.04656e-10 -3.76798e-10 1.67498e-10)
(0 0 0)
(0 0 0)
(0 0 0)
(-1.38525e-11 -3.61699e-10 1.56505e-10)
(1.12845e-10 -5.11713e-10 2.26292e-10)
(0 0 0)
(0 0 0)
(0 0 0)
(-3.12613e-11 -4.76482e-10 2.11789e-10)
(1.46026e-10 -6.23868e-10 2.75108e-10)
(0 0 0)
(0 0 0)
(0 0 0)
(-8.39495e-11 -5.67716e-10 2.5725e-10)
(2.35392e-10 -7.61918e-10 3.0667e-10)
(0 0 0)
(0 0 0)
(0 0 0)
(-2.02815e-10 -6.8348e-10 2.85943e-10)
(3.71238e-10 -1.00669e-09 3.16348e-10)
(0 0 0)
(0 0 0)
(0 0 0)
(-3.76896e-10 -8.99772e-10 2.93818e-10)
(4.16776e-10 -1.20261e-09 3.08953e-10)
(2.20172e-10 -1.20914e-09 3.02731e-10)
(-7.81531e-11 -1.15827e-09 3.00317e-10)
(-3.5927e-10 -1.12412e-09 2.9207e-10)
(-4.91106e-10 -1.0765e-09 2.89404e-10)
(1.40456e-11 9.50435e-12 5.83649e-12)
(0 0 0)
(0 0 0)
(0 0 0)
(2.19404e-11 -5.77788e-12 5.34095e-12)
(5.58312e-11 -5.31682e-11 2.52563e-11)
(0 0 0)
(0 0 0)
(0 0 0)
(2.44684e-11 -7.60448e-11 2.3397e-11)
(9.37252e-11 -2.10521e-10 5.38482e-11)
(0 0 0)
(0 0 0)
(0 0 0)
(-1.87485e-12 -2.1655e-10 5.02834e-11)
(1.06685e-10 -3.69655e-10 8.39985e-11)
(0 0 0)
(0 0 0)
(0 0 0)
(-1.30714e-11 -3.56845e-10 7.87403e-11)
(1.1698e-10 -5.02108e-10 1.12676e-10)
(0 0 0)
(0 0 0)
(0 0 0)
(-3.12679e-11 -4.69392e-10 1.05703e-10)
(1.51839e-10 -6.12564e-10 1.36262e-10)
(0 0 0)
(0 0 0)
(0 0 0)
(-8.42494e-11 -5.58968e-10 1.27634e-10)
(2.41787e-10 -7.49621e-10 1.51312e-10)
(0 0 0)
(0 0 0)
(0 0 0)
(-2.02346e-10 -6.73641e-10 1.41257e-10)
(3.76861e-10 -9.9284e-10 1.55787e-10)
(0 0 0)
(0 0 0)
(0 0 0)
(-3.74412e-10 -8.8819e-10 1.44831e-10)
(4.21764e-10 -1.18769e-09 1.51982e-10)
(2.25526e-10 -1.19561e-09 1.48403e-10)
(-7.35625e-11 -1.14626e-09 1.46817e-10)
(-3.55373e-10 -1.1116e-09 1.43219e-10)
(-4.87087e-10 -1.06342e-09 1.42472e-10)
(1.9511e-11 3.96102e-12 0)
(8.61901e-12 -1.04792e-11 0)
(5.12298e-13 -1.80434e-11 0)
(-3.34525e-12 -1.53025e-11 0)
(1.08587e-11 -1.18789e-11 0)
(5.39893e-11 -6.28687e-11 0)
(3.07798e-11 -8.75625e-11 0)
(4.11076e-12 -1.0307e-10 0)
(-1.25666e-11 -9.51632e-11 0)
(3.7469e-13 -8.10368e-11 0)
(8.79611e-11 -2.13719e-10 0)
(4.96639e-11 -2.30917e-10 0)
(9.02457e-12 -2.43207e-10 0)
(-2.03124e-11 -2.32441e-10 0)
(-2.14481e-11 -2.18581e-10 0)
(9.94383e-11 -3.68962e-10 0)
(5.5229e-11 -3.79941e-10 0)
(1.0186e-11 -3.8686e-10 0)
(-2.38855e-11 -3.72767e-10 0)
(-3.1027e-11 -3.57754e-10 0)
(1.08501e-10 -5.03343e-10 0)
(5.79805e-11 -5.18513e-10 0)
(6.06438e-12 -5.24544e-10 0)
(-3.49919e-11 -5.01678e-10 0)
(-4.80568e-11 -4.7492e-10 0)
(1.41767e-10 -6.22569e-10 0)
(7.54939e-11 -6.51138e-10 0)
(-3.80287e-12 -6.58823e-10 0)
(-7.19754e-11 -6.24063e-10 0)
(-9.97585e-11 -5.76013e-10 0)
(2.27226e-10 -7.70055e-10 0)
(1.2472e-10 -8.07162e-10 0)
(-1.99029e-11 -8.10017e-10 0)
(-1.52456e-10 -7.6888e-10 0)
(-2.14221e-10 -7.03859e-10 0)
(3.52577e-10 -1.01149e-09 0)
(1.94837e-10 -1.03074e-09 0)
(-4.29537e-11 -1.0134e-09 0)
(-2.66333e-10 -9.77132e-10 0)
(-3.78571e-10 -9.1933e-10 0)
(4.11252e-10 -1.1822e-09 0)
(2.29038e-10 -1.17789e-09 0)
(-6.41886e-11 -1.13749e-09 0)
(-3.40745e-10 -1.10457e-09 0)
(-4.7969e-10 -1.06821e-09 0)
)
;

boundaryField
{
    interface
    {
        type            calculated;
    }
    symmetry
    {
        type            symmetry;
    }
    bottom
    {
        type            calculated;
    }
}


// ************************************************************************* //
