/*--------------------------------*- C++ -*----------------------------------*\
| =========                 |                                                 |
| \\      /  F ield         | OpenFOAM: The Open Source CFD Toolbox           |
|  \\    /   O peration     | Version:  v1912                                 |
|   \\  /    A nd           | Website:  www.openfoam.com                      |
|    \\/     M anipulation  |                                                 |
\*---------------------------------------------------------------------------*/
FoamFile
{
    version     2.0;
    format      ascii;
    class       volSymmTensorField;
    location    "0.83/solid";
    object      sigma;
}
// * * * * * * * * * * * * * * * * * * * * * * * * * * * * * * * * * * * * * //

dimensions      [1 -1 -2 0 0 0 0];


internalField   nonuniform List<symmTensor> 
256
(
(-140169 33794.9 -12156.3 526966 38970.3 -148060)
(97936 -5177.03 -5209.28 342435 38601.9 -194617)
(100145 3656.09 4880.29 338566 38551.6 -189132)
(-109584 -33038.8 11925.7 514764 38844.6 -131448)
(-166986 646.555 -18798.5 212315 6207.75 -168012)
(-13083.2 -5456.94 -8711.53 125034 7884.26 -235847)
(-8842.37 5184.97 8347.9 124407 7989.96 -229558)
(-133466 -624.895 18485.3 211577 6467.28 -150266)
(-167847 -4760.08 -20369.3 202415 716.649 -168333)
(-30553.8 -5283.35 -9634.1 83361.3 974.774 -246146)
(-26296 5332.44 9333.2 83166.4 1046.07 -239666)
(-134083 4757.08 20060.8 201755 896.58 -150349)
(-163869 -3321.78 -21223.2 221369 1935.39 -167696)
(-22437.9 -4113.92 -10087.4 69130.3 1396.4 -251446)
(-18216.7 4150.61 9822.89 68979 1424.58 -244837)
(-129673 3347.1 20924.9 220397 2006.49 -149437)
(-167908 -338.047 -22119 227222 5481.73 -174292)
(-20377.5 -2081.77 -10586.6 55669.6 4707.81 -263143)
(-16107.1 2040.69 10330.1 55509.7 4707.79 -256408)
(-133091 344.016 21826.8 226211 5473.88 -155689)
(-187073 5478.61 -22868 200093 12047.2 -192267)
(-40176 1648.68 -11042.4 24891.2 11573.9 -288260)
(-35838.7 -1872.8 10775.7 24827.2 11550.3 -281379)
(-151573 -5550.75 22579.9 199429 11971.6 -173219)
(-215158 15539.2 -22523 86532.8 21801.3 -215765)
(-74877.6 7350.95 -10916 -67836.2 22805.7 -321086)
(-70395.1 -7941.78 10624.2 -66888.9 22750.3 -313990)
(-178807 -15716.2 22236.8 88643.5 21645.4 -196089)
(-133040 20227.5 -20179.5 -132593 25666.4 -132258)
(57518 9850.89 -9821.77 -224738 28096.1 -224259)
(61743.8 -9516.33 9498.47 -218166 28033.3 -217741)
(-96870.3 -19928 19894.3 -114299 25507.4 -114148)
(-191125 20336.7 -9565.23 259024 5884.33 75283.8)
(-32161.5 -8836.2 -3200.44 60674.6 20807.2 -37895.2)
(-29913.9 8437.65 3510.84 57666.1 21229.4 -38047.5)
(-160966 -19180.4 9654.82 248793 7044.88 75453.8)
(-224206 -1840.36 -14928.8 89323.9 8276.76 572.031)
(-137026 -6086.83 -6420.04 -40326.3 16187.9 -137752)
(-132555 6295.27 6846.69 -40773.9 16416.3 -136413)
(-190892 2011.73 15022.9 88764.2 8891.28 3755.97)
(-231263 -5019.84 -15784.1 69145.5 7019.22 -11426.8)
(-164510 -5098.9 -7049.56 -92843.8 9487.82 -168398)
(-159912 5262.5 7559.46 -92495.3 9621.42 -166872)
(-197510 5040.12 15891.3 69515.8 7376.53 -8233.24)
(-232826 -3493.96 -16071 68014.1 7495.88 -10389.6)
(-167013 -3936.89 -7134.05 -126641 7746.78 -179442)
(-162402 3983.41 7717.46 -126035 7813.59 -177903)
(-198533 3517.99 16201 68553 7667.24 -7334.14)
(-241821 -612.66 -16540.3 64150.1 12254.5 -13599.6)
(-174149 -2076.25 -7407.41 -151970 11769.2 -192696)
(-169468 2037.33 8025.59 -151314 11780 -191154)
(-206802 627.526 16687.7 64756.6 12262 -10578.7)
(-267560 5463.02 -16928.8 41224.7 20067.3 -29303.9)
(-203512 1622.23 -7726.88 -181293 19420.8 -219709)
(-198751 -1830.94 8341.29 -180572 19383.8 -218153)
(-231720 -5511.12 17086.7 42076.7 19932 -26210.6)
(-304915 16659.4 -16618.3 -48865.7 26161.9 -49976.8)
(-246078 7695.94 -7666.48 -248907 26027.3 -249458)
(-241174 -8279.83 8255.81 -247276 25953.5 -247825)
(-268090 -16811.6 16785.3 -45470.5 25924.5 -46584.5)
(-215486 22552.3 -15471 -216070 21928.8 86397.1)
(-74726.2 10930.4 -7300.57 -321445 22913.5 -67313.4)
(-70211.5 -10629.6 7911.16 -314251 22858.8 -66355.9)
(-178883 -22253 15669.2 -196094 21774.4 88511.9)
(-172760 11003.8 -4010.22 170827 16129.4 118257)
(-35493.6 -12949.7 -581.718 -9007.97 30691.8 -3758.72)
(-33234 12676.4 718.012 -11666.7 30905 -4451.82)
(-143454 -9841.39 4026.74 161471 16782.4 116917)
(-188353 -3298.95 -6105.11 64421.3 19571.3 87393.4)
(-103027 -6909.68 -1772.08 -63804.4 27030.5 -68316.4)
(-98730.6 7272.31 1942.61 -64335.1 27179.9 -67838.3)
(-156200 3527.64 6127.75 63558.2 20008.1 88243.2)
(-192648 -4847.3 -6093.91 60837.3 18101.3 72254.2)
(-122941 -4926.91 -1874.19 -97089.5 20473.6 -103528)
(-118533 5186.58 2057.19 -96878.7 20574.8 -102851)
(-160053 4903.15 6121.59 60802 18383.2 73127.7)
(-194436 -3412.34 -5857.62 64797.4 17097.8 67871.4)
(-125205 -3823.43 -1684.34 -122374 17383.2 -121022)
(-120781 3907.83 1895.51 -121875 17438.4 -120327)
(-161273 3451.76 5896.52 65003.8 17241.5 68602.1)
(-203420 -668.604 -5792.56 66239.1 19242.7 62517.5)
(-132373 -2154.95 -1646.08 -141226 18867.1 -137882)
(-127861 2118.67 1877.11 -140650 18876.4 -137193)
(-169451 691.342 5842.65 66561.4 19249 63175.1)
(-228987 5550.35 -5758.2 52759.1 22306.6 48462.3)
(-160780 1546 -1718.4 -160812 21721.4 -164519)
(-156158 -1775.31 1949.71 -160163 21691.5 -163823)
(-194035 -5592.63 5817.24 53319.4 22193.3 49152.5)
(-267670 16976.9 -5661.84 -27075.4 20936.6 39048.9)
(-202652 7748.36 -1799.34 -217888 20267.5 -182738)
(-197843 -8373.65 2024.22 -216326 20218.5 -181980)
(-231496 -17126.6 5733.44 -23980.4 20764.6 39977.9)
(-187392 22902.1 -5633.85 -192413 12551.3 200687)
(-38961 11049.5 -1818.53 -288331 12068 26281.5)
(-34546.7 -10775.6 2081.45 -281292 12041.1 26250.2)
(-151313 -22601.3 5740.52 -172907 12464.2 200075)
(-157990 7156.49 -1058.31 136291 19578.2 113841)
(-30870.7 -14328.2 637.526 -27999.6 28517.5 -3392.49)
(-28643.3 13979.3 -566.684 -30522 28636.4 -4032.37)
(-129361 -6070.13 1053.69 127377 19991 112625)
(-164500 -3619.91 -1381.94 49798.7 23681.9 104345)
(-79902.2 -7050.39 734.081 -72185.8 28183.3 -48441.5)
(-75704.8 7392.85 -657.97 -72683 28275.5 -48013.6)
(-133156 3840.51 1373 48959 23979.7 105024)
(-166710 -4415.17 -1033.47 55847.9 23379.4 90479.8)
(-94212.5 -4632.46 937.681 -93797.8 24693 -81692.6)
(-89904.6 4910.28 -878.924 -93611.6 24760.1 -81068.5)
(-134928 4482.27 1021.76 55712.7 23579.5 91172.3)
(-168490 -3076.85 -654.777 67933.9 21929.8 81102.3)
(-95666.8 -3590.17 1196.42 -108384 21892.7 -103655)
(-91334.8 3694.08 -1140.21 -107928 21931.4 -102995)
(-136116 3126.88 644.647 68006.9 22036.4 81698.7)
(-177520 -487.169 -408.659 76028.8 21173.7 72433.8)
(-102677 -2088.36 1343.41 -119355 20763.2 -123813)
(-98245.6 2055.23 -1282.74 -118816 20771.5 -123147)
(-144276 516.019 403.069 76223.7 21185.1 72978)
(-202747 5587.52 -288.395 67186.9 19540.3 60558.9)
(-130209 1453.69 1347.92 -134167 19092.3 -148375)
(-125642 -1699.69 -1285.44 -133542 19075.2 -147698)
(-168400 -5627.11 289.062 67637.3 19470.7 61125)
(-241046 16626.5 -383.447 -10278.9 14068.5 61613.2)
(-170659 7409.06 1184.46 -190044 13517.5 -156128)
(-165872 -8063.84 -1118.82 -188491 13490.6 -155403)
(-205291 -16774.6 395.341 -7271.92 13965.4 62357)
(-166841 22212.8 -637.47 -173902 6563.38 231520)
(-15449.4 10604.5 1122.25 -262665 5851.45 58297.2)
(-11047.6 -10345.4 -1024.96 -255692 5838.17 58177.7)
(-131044 -21908.7 675.669 -154638 6514.5 230561)
(-150050 6023.64 -136.007 120629 17912 104756)
(-29569.5 -14200.7 745.177 -34366.8 22371.2 -5684.92)
(-27380.9 13781.5 -698.455 -36821.9 22451.3 -6268.8)
(-121881 -5001.23 132.509 112004 18201.5 103705)
(-153858 -3438.43 73.1145 40535.3 21470.7 101186)
(-72101.4 -6792.29 1189.95 -76001.2 23590.9 -42531.3)
(-67981.1 7081.18 -1139.8 -76471.4 23654.6 -42075.7)
(-123047 3635.5 -81.4471 39753.4 21687.4 101937)
(-155426 -4002 423.004 49865 22226.3 89419.1)
(-84126 -4341.54 1443.53 -92952.8 22676.7 -72255.1)
(-79894.4 4598.25 -1413.89 -92769.4 22722.7 -71614.3)
(-124180 4063.84 -436.884 49720.2 22372.8 90153.1)
(-157375 -2748.02 733.465 66472.7 21064 78567.8)
(-85329.5 -3373.78 1648.05 -101465 20816.2 -94877.6)
(-81067.5 3475.01 -1632.15 -101028 20843.2 -94194.9)
(-125517 2799.64 -750.491 66502.7 21144.7 79216.2)
(-166576 -297.348 947.821 78488.3 18890.1 68917.4)
(-92410 -2000.02 1770.52 -107691 18522.1 -115601)
(-88039.4 1965.09 -1759.3 -107173 18529.8 -114906)
(-133804 328.826 -964.593 78633.4 18907 69524.1)
(-191571 5551.05 1027.1 71366.1 15130.4 59615.4)
(-119440 1353.36 1773.38 -120815 14868.8 -137442)
(-114920 -1608.95 -1762.38 -120203 14860.9 -136735)
(-157615 -5588.7 -1040.52 71779.9 15095 60234)
(-229222 16163.4 884.136 -5087.81 9053.21 66733)
(-158808 7035.44 1624.99 -176942 8793.69 -139432)
(-154044 -7705.52 -1609.64 -175391 8780.15 -138683)
(-193742 -16309.5 -889.883 -2102.4 8996.12 67488.6)
(-158458 21474.9 646.072 -165202 3635.28 236093)
(-9551.35 10154.8 1583.96 -249651 3166.98 71657.6)
(-5162.12 -9903.49 -1546.96 -242704 3160.22 71543.8)
(-122838 -21168.2 -634.905 -146038 3607.67 235068)
(-145567 5796.26 23.4797 113364 13920.7 98680.1)
(-29647.8 -13750 494.268 -36763.4 15947.9 -7065.5)
(-27486.4 13284.1 -462.697 -39176.3 16002 -7620.52)
(-117677 -4815.75 -24.0821 104940 14114.9 97735.5)
(-148897 -3184.76 243.872 36024.3 16348.9 96122.2)
(-70215.9 -6499.61 847.512 -77078.4 17197.5 -40449.4)
(-66149.2 6744.72 -811.241 -77535.3 17241.8 -39975.8)
(-118410 3362.3 -246.576 35287.7 16500.8 96946.1)
(-150456 -3710.73 483.915 46193.2 17289.1 85995.2)
(-81611.4 -4134.67 1030.25 -92294.6 17330.2 -67351.5)
(-77433.9 4363.5 -1009.29 -92115.7 17362 -66701.2)
(-119535 3763.22 -491.302 46049.5 17393.9 86777.3)
(-152601 -2525.49 680.873 64370.3 16517.4 75784.2)
(-82875.8 -3235.77 1154.61 -98377.4 16249.4 -88762.1)
(-78664.1 3324.16 -1147.64 -97954.1 16268.3 -88071.6)
(-121054 2573.8 -692.314 64379.7 16577.4 76471)
(-161921 -176.736 814.072 77875.2 14298.3 66881.8)
(-90051.1 -1947.13 1224.48 -102652 14039.8 -108459)
(-85725.2 1906.04 -1225.05 -102150 14046.6 -107755)
(-129429 207.943 -827.092 77993.5 14316.7 67523.1)
(-186715 5495.67 850.763 71340.6 10613.2 59668.1)
(-116748 1274.1 1218.85 -115251 10500.4 -128157)
(-112263 -1535.94 -1221.6 -114652 10497.7 -127441)
(-152990 -5532.39 -862.575 71734.6 10598.4 60311.4)
(-223831 15822.3 739.377 -4033.44 5748.06 69444.8)
(-155396 6782.53 1122.62 -171149 5692.98 -127774)
(-150655 -7460.32 -1122.77 -169603 5686.61 -127018)
(-188514 -15966.8 -746.792 -1059.3 5718.63 70201.4)
(-155028 20976.4 570.642 -160765 2138.59 236111)
(-9763 9864.38 1096.93 -242742 1916.68 79050.6)
(-5386.54 -9617.04 -1084.36 -235809 1913.37 78938)
(-119508 -20668 -568.287 -141650 2123.79 235046)
(-142950 5771.68 15.0522 110184 8742.62 95438.1)
(-29853 -13417.6 248.742 -37570.6 9603.61 -7825.47)
(-27707.1 12923.9 -230.135 -39956.4 9635.16 -8365.73)
(-115216 -4815.71 -14.5337 101889 8854.17 94556.6)
(-146306 -3014.36 132.936 34269.7 10084.4 92821.6)
(-69872 -6310.58 433.899 -77056 10385.8 -39831.1)
(-65836.3 6527.98 -411.2 -77505.2 10412.3 -39348.2)
(-115999 3179.67 -132.761 33565.9 10174.5 93696.1)
(-147982 -3543.4 259.361 44573.6 10721.9 83733.8)
(-81183.2 -4018.66 529.814 -91614.3 10660.7 -65023.2)
(-77037.2 4226.41 -515.923 -91439.1 10679.9 -64368.5)
(-117244 3588.49 -261.913 44433 10785.8 84553)
(-150262 -2402.75 361.035 63022.1 10277.2 74617.4)
(-82564.4 -3165.56 590.747 -96978.7 10095.9 -85051.8)
(-78382.2 3241.36 -586.306 -96564.7 10107.5 -84359.8)
(-118888 2447.1 -366.509 63021.2 10315.2 75330.4)
(-159632 -115.255 427.679 76836 8758.82 66844.1)
(-89792.4 -1924.52 622.229 -100709 8616.4 -103510)
(-85492.9 1876.66 -623.827 -100218 8621.14 -102806)
(-127295 145.047 -434.757 76939.9 8773.07 67503.5)
(-184277 5454.52 442.012 70488.8 6284.7 60970.2)
(-116273 1226.37 616.211 -113162 6251.5 -121879)
(-111809 -1492.75 -620.172 -112570 6251.04 -121163)
(-150678 -5491.14 -448.919 70871.8 6280.16 61623.2)
(-221046 15625.2 378.788 -3971.36 3273.38 71717.7)
(-154489 6647.68 567.352 -168599 3294.53 -120684)
(-149761 -7329.62 -570.373 -167058 3291.87 -119930)
(-185816 -15768.7 -383.594 -1003.11 3259.98 72470.4)
(-153317 20701.3 279.964 -158307 1174.5 236155)
(-10828.6 9712.19 551.418 -238970 1093.11 83205.4)
(-6459.64 -9466.81 -548.242 -232043 1091.66 83090)
(-117847 -20391.9 -279.902 -139215 1167.48 235064)
(-141703 5770.35 2.18925 109023 2973.79 94078.1)
(-29935.1 -13263.9 73.1115 -37759.8 3214.16 -8176.63)
(-27795.9 12757.3 -66.9389 -40132.3 3224.53 -8710.33)
(-114039 -4825.7 -1.88384 100791 3010.12 93226.2)
(-145110 -2938.86 35.6834 33749.8 3397.14 91343)
(-69803.2 -6227.53 127.196 -76855.6 3470.5 -39724.5)
(-65781.3 6431.82 -119.421 -77300.7 3479.31 -39237.5)
(-114885 3098.45 -35.3263 33063.5 3426.98 92242.8)
(-146859 -3470.94 73.6251 44041.9 3611.83 82759.3)
(-81130.7 -3970.13 155.579 -91190.9 3580.8 -64142.6)
(-76998.8 4167.13 -150.62 -91017.5 3587.26 -63485.9)
(-116202 3512.22 -74.1282 43903.9 3633.37 83598.5)
(-149202 -2350.53 104.303 62440.5 3464.47 74335.8)
(-82581 -3137.96 173.255 -96414.5 3402.58 -83373.2)
(-78412 3206.57 -171.562 -96004.9 3406.56 -82680.9)
(-117905 2392.53 -105.834 62435.5 3477.6 75062.9)
(-158587 -90.4369 124.075 76233.8 2936.03 67271.3)
(-89827.8 -1917.09 181.904 -100067 2891.73 -101095)
(-85540 1865.04 -182.453 -99580.7 2893.45 -100392)
(-126318 119.156 -126.241 76331.5 2941.38 67939.4)
(-183153 5434.66 127.801 69934.9 2082.4 62034.3)
(-116201 1205.44 179.646 -112487 2077.25 -118844)
(-111746 -1474.38 -181.175 -111899 2077.29 -118129)
(-149610 -5471.42 -130.006 70313.1 2081.61 62691)
(-219756 15538.6 107.904 -4029.36 1073.29 73077)
(-154215 6592.3 165.187 -167615 1088.95 -117414)
(-149493 -7276.21 -166.543 -166075 1088.24 -116661)
(-184563 -15681.8 -109.503 -1063.57 1069.5 73826.9)
(-152502 20583.2 75.3885 -157162 379.412 236372)
(-11411.4 9649.69 159.556 -237262 360.808 85079.3)
(-7045.52 -9405.18 -159.116 -230337 360.403 84961.6)
(-117053 -20273.3 -75.5313 -138080 377.366 235270)
)
;

boundaryField
{
    interface
    {
        type            calculated;
        value           nonuniform List<symmTensor> 
192
(
(-39.5161 0.348289 2.66759 950881 38970.3 275854)
(-41.1839 0.350339 4.32929 600242 6207.75 219915)
(-42.8574 0.101727 4.96064 594211 716.649 223463)
(-43.9768 -0.338892 5.15501 621472 1935.39 232408)
(-44.3781 -0.733569 5.13263 642994 5481.73 241480)
(-45.3581 -1.42416 5.01853 643140 12047.2 250780)
(-43.8332 -1.95326 4.6501 558222 21801.3 255924)
(-47.468 -4.4232 4.36732 265295 25666.4 265629)
(-38.5288 0.251618 1.30697 693372 5884.33 509632)
(-39.2715 0.276738 2.26934 513009 8276.76 424257)
(-40.2894 0.0621265 2.56625 502060 7019.22 421488)
(-41.042 -0.383264 2.60612 512854 7495.88 434450)
(-41.1641 -0.796927 2.52389 528954 12254.5 451204)
(-42.013 -1.55518 2.39371 540697 20067.3 470168)
(-40.1943 -2.13915 2.15549 491846 26161.9 490735)
(-43.904 -4.72745 1.96835 256214 21928.8 558681)
(-41.0558 0.216027 1.02345 562668 16129.4 510098)
(-41.7045 0.240033 1.75288 444725 19571.3 467697)
(-42.7051 0.0333178 1.97266 449347 18101.3 460764)
(-43.4707 -0.430351 1.99635 465104 17097.8 468178)
(-43.5192 -0.878776 1.9272 486556 19242.7 482834)
(-44.2926 -1.71687 1.82166 508402 22306.6 504105)
(-42.0392 -2.38293 1.65104 473055 20936.6 539180)
(-45.5062 -5.13922 1.51006 251832 12551.3 644932)
(-41.2834 0.162668 0.619543 497138 19578.2 474688)
(-41.7503 0.164153 1.12259 396845 23681.9 451391)
(-42.542 -0.0445378 1.26703 409981 23379.4 444613)
(-43.1831 -0.51033 1.26923 433627 21929.8 446795)
(-43.1061 -0.973051 1.20735 461639 21173.7 458044)
(-43.7959 -1.84418 1.12395 488038 19540.3 481410)
(-41.3835 -2.54621 1.01661 455661 14068.5 527553)
(-44.7702 -5.34015 0.933881 243334 6563.38 648755)
(-42.0578 0.136705 0.450605 462907 17912 447035)
(-42.4739 0.116209 0.816532 368516 21470.7 429167)
(-43.1712 -0.102388 0.922755 384518 22226.3 424072)
(-43.7578 -0.574945 0.923986 412637 21064 424732)
(-43.602 -1.05339 0.878249 444573 18890.1 435002)
(-44.2155 -1.95281 0.816238 472533 15130.4 460783)
(-41.6334 -2.68759 0.741676 441030 9053.21 512850)
(-44.8711 -5.52072 0.682677 235838 3635.28 637134)
(-42.2701 0.116489 0.272817 444564 13920.7 429880)
(-42.6391 0.0772107 0.511949 353098 16348.9 413195)
(-43.2543 -0.150467 0.582079 369868 17289.1 409670)
(-43.7878 -0.627217 0.581359 399581 16517.4 410994)
(-43.5726 -1.11426 0.549568 433010 14298.3 422017)
(-44.1372 -2.02754 0.507671 461390 10613.2 449718)
(-41.4743 -2.77908 0.462029 430677 5748.06 504155)
(-44.6506 -5.63094 0.427759 230732 2138.59 627608)
(-42.5262 0.106528 0.159376 435002 8742.62 420256)
(-42.8788 0.0543892 0.298795 345186 10084.4 403738)
(-43.4509 -0.18095 0.34004 362111 10721.9 401271)
(-43.9549 -0.661675 0.339765 392122 10277.2 403718)
(-43.7028 -1.15533 0.321417 425851 8758.82 415859)
(-44.2314 -2.0782 0.296681 454283 6284.7 444765)
(-41.5055 -2.84153 0.270959 424241 3273.38 499930)
(-44.6263 -5.70769 0.250446 227643 1174.5 622104)
(-42.591 0.100427 0.0468785 430892 2973.79 415947)
(-42.9319 0.0416281 0.0912842 341838 3397.14 399431)
(-43.48 -0.197227 0.104616 358769 3611.83 397486)
(-43.9675 -0.679135 0.104343 388744 3464.47 400639)
(-43.6989 -1.1754 0.0983389 422442 2936.03 413479)
(-44.2102 -2.10166 0.0902417 450849 2082.4 442949)
(-41.4651 -2.87035 0.0826338 421173 1073.29 498279)
(-44.5577 -5.74232 0.0762297 226181 379.412 619715)
(299581 33794.9 -3.7058 966716 -0.899495 -13.8953)
(232665 646.555 -6.32706 611966 -1.11121 -9.88464)
(235836 -4760.08 -7.45026 606099 -0.974409 -5.87029)
(249667 -3321.78 -7.89472 634905 -0.737343 -4.12645)
(262340 -338.047 -8.06136 657471 -0.630845 -3.62002)
(269897 5478.61 -8.19572 657063 -0.66854 -4.15653)
(268537 15539.2 -8.36996 570228 -0.810672 -5.93838)
(275204 20227.5 -9.22672 275651 -1.01723 -7.42402)
(557691 -5177.03 -2.17178 802190 -0.537756 -17.6754)
(436246 -5456.94 -4.1769 574363 -0.858804 -16.7906)
(429596 -5283.35 -4.96871 543511 -0.791969 -15.4049)
(451276 -4113.92 -5.2501 542844 -0.523746 -14.8757)
(474236 -2081.77 -5.3578 550283 -0.334706 -14.694)
(488401 1648.68 -5.50666 553468 -0.229521 -14.91)
(491940 7350.95 -5.84632 498982 -0.247515 -15.482)
(548101 9850.89 -6.96706 265845 -0.322221 -15.7889)
(549224 3656.09 -2.14228 787645 -0.394662 -14.8845)
(429440 5184.97 -4.16737 562689 -0.709356 -14.2197)
(422412 5332.44 -4.99522 531874 -0.668236 -12.9167)
(443755 4150.61 -5.29667 530951 -0.374492 -12.3743)
(466522 2040.69 -5.40323 538138 -0.128614 -12.2112)
(480504 -1872.8 -5.52606 541170 0.0747361 -12.4218)
(483890 -7941.78 -5.81508 487397 0.182263 -13.0607)
(540488 -9516.33 -6.8974 260578 0.199747 -13.8162)
(298541 -33038.8 -2.31911 922890 -0.322907 -15.1254)
(234690 -624.895 -4.69948 579733 -0.619695 -14.749)
(237248 4757.08 -5.74473 573086 -0.578765 -13.604)
(250741 3347.1 -6.14435 600811 -0.261082 -13.1752)
(263361 344.016 -6.28254 622663 0.0123075 -13.1209)
(270877 -5550.75 -6.44086 621878 0.262028 -13.3327)
(269544 -15716.2 -6.69691 536995 0.441913 -13.8107)
(278174 -19928 -7.8414 260745 0.608667 -14.4253)
(-7.48432 0.727629 0.603058 882227 38844.6 236015)
(-5.02131 0.985541 1.22317 540888 6467.28 179045)
(-2.36444 0.762784 1.43263 534082 896.58 181979)
(-0.941899 0.256408 1.54057 559954 2006.49 190120)
(-0.381409 -0.0280704 1.62816 580280 5473.88 198380)
(1.11089 -0.423667 1.87589 579623 11971.6 206976)
(0.685469 -0.395545 2.08892 496239 21645.4 211507)
(9.13956 -2.56323 2.68887 219271 25507.4 219422)
(-11.3643 0.291748 -0.316128 627450 7044.88 454111)
(-10.8933 0.4504 -0.325174 454747 8891.28 369739)
(-10.0591 0.351233 -0.411434 443722 7376.53 365973)
(-9.44687 0.0590564 -0.428081 453472 7667.24 377584)
(-9.21817 -0.022154 -0.369756 468289 12262 392954)
(-7.69875 -0.248572 -0.146456 478834 19932 410547)
(-7.70841 0.001218 0.141021 430976 25924.5 429862)
(0.720743 -1.99144 0.582296 211651 21774.4 496257)
(-11.6418 0.162128 -0.190186 499319 16782.4 454765)
(-11.3069 0.243056 -0.111833 388063 20008.1 412748)
(-10.6623 0.196962 -0.0807571 392484 18383.2 404810)
(-10.0277 0.0173041 -0.0263776 407220 17241.5 410818)
(-9.71704 0.058944 0.0623571 427294 19249 423907)
(-7.86113 -0.0686881 0.248052 447642 22193.3 443475)
(-7.56751 0.293853 0.444734 412850 20764.6 476808)
(1.35797 -1.77332 0.700524 207464 12464.2 580446)
(-12.9318 0.0731906 -0.205391 435554 19991 420802)
(-12.8091 0.0977182 -0.135076 341622 23979.7 397686)
(-12.4759 0.0886156 -0.0821523 354438 23579.5 389898)
(-11.9293 0.00336419 -0.0211561 376994 22036.4 390686)
(-11.5969 0.148226 0.0554447 403525 21185.1 400279)
(-9.51812 0.110816 0.189137 428234 19470.7 421721)
(-8.91075 0.546106 0.319037 396097 13965.4 465726)
(0.243337 -1.51804 0.473832 199155 6514.5 584355)
(-13.2192 0.0578055 -0.0875348 402505 18201.5 394207)
(-13.0901 0.0630627 0.0121154 314294 21687.4 376477)
(-12.7933 0.0729341 0.0919412 329912 22372.8 370345)
(-12.2015 0.0332045 0.158033 356880 21144.7 369594)
(-11.7962 0.229797 0.220387 387251 18907 378142)
(-9.56619 0.231994 0.305303 413396 15095 401851)
(-8.8287 0.685743 0.37144 381939 8996.12 451530)
(0.436911 -1.4184 0.442658 191845 3607.67 572951)
(-13.6357 0.0526862 -0.058831 384909 14114.9 377705)
(-13.5111 0.0524535 0.0187281 299493 16500.8 361152)
(-13.2401 0.0757279 0.0849456 315837 17393.9 356564)
(-12.6235 0.0639433 0.135333 344354 16577.4 356445)
(-12.1712 0.293002 0.17859 376159 14316.7 365689)
(-9.84376 0.31973 0.231044 402644 10598.4 391221)
(-9.01019 0.780497 0.267806 371861 5718.63 443122)
(0.338296 -1.3445 0.305461 186843 2123.79 563539)
(-13.7568 0.0559185 -0.0188164 375787 8854.17 368454)
(-13.6166 0.0564089 0.0346482 291940 10174.5 352070)
(-13.3342 0.0868969 0.0789928 308408 10785.8 348528)
(-12.6884 0.0876559 0.110572 337194 10315.2 349503)
(-12.2028 0.33139 0.135865 369262 8773.07 359826)
(-9.8212 0.36761 0.163167 395751 6280.16 386503)
(-8.94824 0.828316 0.179926 365574 3259.98 439048)
(0.44244 -1.31494 0.194752 183807 1167.48 558087)
(-13.8602 0.0566398 -0.00962522 371880 3010.12 364316)
(-13.7174 0.0581114 0.00716007 288757 3426.98 347936)
(-13.4324 0.0925168 0.0218965 305216 3633.37 344911)
(-12.7747 0.0993889 0.032296 333950 3477.6 346578)
(-12.2723 0.350031 0.0407346 365970 2941.38 357578)
(-9.8648 0.39116 0.0495712 392412 2081.61 384789)
(-8.96491 0.851895 0.0554358 362570 1069.5 437460)
(0.4441 -1.29871 0.0601987 182366 377.366 555716)
(275949 9.32471 -20179.5 -6.81251 -0.863307 276731)
(269333 8.50613 -15471 -5.0239 -0.654281 571216)
(271187 8.39747 -5633.85 -2.59554 -0.449314 659266)
(265601 8.36805 -637.47 -1.1204 -0.296984 663962)
(257692 8.41755 646.072 0.0268453 -0.210778 652243)
(251139 8.44909 570.642 0.82783 -0.131087 642278)
(246953 8.48046 279.964 1.33584 -0.0780743 636424)
(244995 8.49379 75.3885 1.57945 -0.0238655 633870)
(548824 7.02909 -9821.77 -15.3003 -0.135014 267047)
(493108 5.91291 -7300.57 -14.8551 -0.0513351 500521)
(490992 5.58481 -1818.53 -13.8935 0.0474151 556235)
(481039 5.45742 1122.25 -13.2183 0.0710255 554786)
(466733 5.42507 1583.96 -12.6329 0.0691312 547942)
(454456 5.4053 1096.93 -12.2099 0.0563846 543270)
(446415 5.40271 551.418 -11.932 0.0347682 540449)
(442600 5.4003 159.556 -11.7869 0.0128298 539091)
(541109 6.95822 9498.47 -13.3582 0.406292 261624)
(484912 5.86428 7911.16 -12.4619 0.402647 488768)
(482887 5.5776 2081.45 -11.4403 0.381216 543684)
(473027 5.48017 -1024.96 -10.7738 0.312049 542253)
(458751 5.46298 -1546.96 -10.1793 0.246626 535457)
(446481 5.45208 -1084.36 -9.78804 0.173486 530806)
(438441 5.45354 -548.242 -9.51742 0.103667 527991)
(434626 5.45227 -159.116 -9.3937 0.0341885 526633)
(278583 7.8661 19894.3 -14.0206 0.819684 261306)
(270047 6.70699 15669.2 -13.3081 0.66902 537442)
(271903 6.44615 5740.52 -12.5537 0.568821 623291)
(266364 6.31901 675.669 -12.0268 0.447594 627969)
(258414 6.29728 -634.905 -11.5092 0.349055 616320)
(251825 6.27819 -568.287 -11.1907 0.241488 606379)
(247617 6.27796 -279.902 -10.9569 0.145159 600528)
(245650 6.27556 -75.5313 -10.8516 0.0473686 597973)
)
;
    }
    symmetry
    {
        type            symmetry;
    }
    bottom
    {
        type            calculated;
        value           nonuniform List<symmTensor> 
32
(
(-725718 94888.4 -12156.3 222500 90939 -733609)
(-518318 62116.6 -9565.23 66118 -2650.39 -251909)
(-434201 39873.9 -4010.22 9664.45 6393.15 -143184)
(-396019 30343.3 -1058.31 -9692.07 13989.3 -124189)
(-376790 26980.7 -136.007 -17949 15018.9 -121985)
(-366128 25807.6 23.4797 -21534.3 12474.5 -121882)
(-360108 25332.1 15.0522 -22809.7 8080.41 -121720)
(-357326 25137.6 2.18925 -23129.6 2783.79 -121545)
(-252993 -2196.83 -5209.28 147777 83379 -545546)
(-134503 -8954.77 -3200.44 -9374.58 14616.4 -140237)
(-89364.7 -15589 -581.718 -47714.7 24326 -57629.9)
(-73466 -17854 637.526 -53810.2 25091.8 -45987.7)
(-68702.4 -17853.7 745.177 -55587.5 20584.3 -44817.8)
(-67583 -17351.3 494.268 -56805.9 15026.4 -45000.7)
(-67334.4 -16968.6 248.742 -57425.2 9175.58 -45306.8)
(-67249.4 -16791.7 73.1115 -57615.7 3091.58 -45490.9)
(-246367 -723.842 4880.29 146339 82887.5 -535643)
(-131141 7312.03 3510.84 -12129.6 15132.9 -139274)
(-86321.6 14064.3 718.012 -50232.3 24602.9 -57539.5)
(-70524.1 16258 -566.684 -56237.9 25239.8 -45913.3)
(-65832.9 16200.8 -698.455 -57971.6 20679.2 -44720.9)
(-64758.9 15664.2 -462.697 -59155.8 15089.1 -44893)
(-64535.6 15262.3 -230.135 -59751.2 9211.78 -45194.2)
(-64461.9 15076.7 -66.9389 -59929.5 3103.44 -45376.3)
(-670794 -92941.8 11925.7 225153 89701.3 -692658)
(-473431 -59665.6 9654.82 64087.3 -1227.95 -237011)
(-391371 -37507.9 4026.74 8003.54 7223.59 -131001)
(-354305 -28136.6 1053.69 -11136.4 14491.8 -112319)
(-335805 -24886 132.509 -19229.9 15357.7 -110219)
(-325581 -23780.5 -24.0821 -22669.7 12697.6 -110168)
(-319806 -23342.9 -14.5337 -23842.3 8207.52 -110033)
(-317134 -23165.5 -1.88384 -24110.5 2825.06 -109869)
)
;
    }
}


// ************************************************************************* //
