/*--------------------------------*- C++ -*----------------------------------*\
| =========                 |                                                 |
| \\      /  F ield         | OpenFOAM: The Open Source CFD Toolbox           |
|  \\    /   O peration     | Version:  v1912                                 |
|   \\  /    A nd           | Website:  www.openfoam.com                      |
|    \\/     M anipulation  |                                                 |
\*---------------------------------------------------------------------------*/
FoamFile
{
    version     2.0;
    format      ascii;
    class       volScalarField;
    location    "0.83/solid";
    object      sigmaHyd;
}
// * * * * * * * * * * * * * * * * * * * * * * * * * * * * * * * * * * * * * //

dimensions      [1 -1 -2 0 0 0 0];


internalField   nonuniform List<scalar> 
256
(
-716783
-386215
-379032
-673665
-1.0789e+06
-668592
-657831
-1.02379e+06
-1.12504e+06
-719361
-707994
-1.06819e+06
-1.1434e+06
-738808
-727172
-1.08541e+06
-1.18263e+06
-769501
-757651
-1.12353e+06
-1.27314e+06
-842382
-830257
-1.21282e+06
-1.50354e+06
-1.04668e+06
-1.03335e+06
-1.43973e+06
-2.0785e+06
-1.59241e+06
-1.57197e+06
-1.99494e+06
-380181
-129689
-128232
-353857
-618147
-289291
-285263
-582633
-656986
-335888
-331378
-620170
-672873
-356008
-351315
-635167
-701054
-378201
-373383
-662411
-769581
-428587
-423592
-729818
-966695
-588763
-582660
-923455
-1.50443e+06
-1.04695e+06
-1.03349e+06
-1.44004e+06
-297875
-81331.2
-80430
-273777
-461433
-174483
-171520
-429513
-489696
-209271
-205887
-456608
-503587
-226743
-223176
-469582
-528072
-245427
-241721
-493026
-588648
-287381
-283470
-552271
-769959
-428253
-423191
-729768
-1.27433e+06
-842191
-829807
-1.21284e+06
-276350
-75938
-75070.5
-252886
-413387
-148105
-145304
-382559
-435908
-175729
-172533
-403979
-448324
-190618
-187236
-415450
-471298
-207408
-203872
-437296
-528609
-245896
-242129
-493115
-701370
-377695
-372741
-661806
-1.18281e+06
-767880
-755625
-1.12181e+06
-267751
-75774.2
-74919.4
-244666
-395652
-141052
-138316
-365442
-415636
-165026
-161912
-384371
-426979
-177995
-174695
-394758
-448936
-193370
-189908
-415535
-504362
-229920
-226211
-469370
-672040
-357038
-352119
-632820
-1.13953e+06
-734948
-722722
-1.07875e+06
-262651
-75847
-75003.2
-239792
-386916
-138391
-135700
-357079
-405810
-160577
-157517
-374951
-416441
-172346
-169102
-384622
-437648
-186746
-183336
-404620
-491867
-222134
-218469
-457188
-656498
-346696
-341806
-617498
-1.1155e+06
-717584
-705376
-1.05483e+06
-259392
-75784.4
-74946.9
-236658
-381989
-137156
-134491
-352362
-400395
-158495
-155468
-369765
-410597
-169600
-166391
-379007
-431314
-183416
-180039
-398499
-484810
-218147
-214511
-450312
-647710
-341313
-336443
-608836
-1.10171e+06
-708070
-695874
-1.04111e+06
-257760
-75698.6
-74863.7
-235081
-379651
-136625
-133971
-350119
-397858
-157624
-154612
-367331
-407859
-168439
-165246
-376372
-428337
-181985
-178624
-395618
-481496
-216420
-212797
-447080
-643607
-338957
-334097
-604790
-1.09526e+06
-703749
-691560
-1.03469e+06
)
;

boundaryField
{
    interface
    {
        type            zeroGradient;
    }
    symmetry
    {
        type            symmetry;
    }
    bottom
    {
        type            zeroGradient;
    }
}


// ************************************************************************* //
