/*--------------------------------*- C++ -*----------------------------------*\
| =========                 |                                                 |
| \\      /  F ield         | OpenFOAM: The Open Source CFD Toolbox           |
|  \\    /   O peration     | Version:  v1912                                 |
|   \\  /    A nd           | Website:  www.openfoam.com                      |
|    \\/     M anipulation  |                                                 |
\*---------------------------------------------------------------------------*/
FoamFile
{
    version     2.0;
    format      ascii;
    class       volScalarField;
    location    "0.83/solid";
    object      sigmaEq;
}
// * * * * * * * * * * * * * * * * * * * * * * * * * * * * * * * * * * * * * //

dimensions      [1 -1 -2 0 0 0 0];


internalField   nonuniform List<scalar> 
256
(
677364
470667
462672
642003
381361
316182
310423
355367
372275
290484
284982
346109
388964
286638
281189
362240
400312
289129
283694
373159
392466
287571
282180
365131
308015
253932
249570
282985
66527.1
287197
284834
68057
394085
103670
100257
358405
281488
102189
99301.8
250174
271115
76986.8
74799.3
239966
272112
51626.6
50358.6
240471
277752
42899.1
42609.2
245458
284081
49339.7
49046.6
251177
262664
48950.2
49717.1
230265
308215
254651
250210
282918
322405
64793
63417.5
287337
267438
61043.9
58830.7
235963
261618
43406.9
41696.8
229890
262723
31186
31157.4
230348
270072
33910.6
34989.6
236917
282619
38017.8
38425.6
248684
283625
48520.3
48326.3
250395
393345
289007
283508
365548
286016
61165.8
60850.8
252304
249632
57794.4
57061.7
219760
245235
45254.7
45148.8
214692
246283
40059.8
41299
214792
254430
41039
42929.7
221952
268995
37136.4
38468.9
235481
276471
39820.7
40035.4
243469
403936
291940
286365
376052
265130
53067.2
53081.1
232162
233828
53076.9
52877.8
204805
230997
43921.7
44264.2
201145
233060
39238.9
40697
202092
242644
38308.9
40308.6
210601
258779
31295.1
32682.9
225582
269303
38000.2
37904.1
236534
399752
289979
284363
371918
253260
45301.3
45406.8
220621
223055
46406.6
46292.5
194299
221407
37753.1
38115.8
191760
224771
31800
33319.8
193958
235801
29544.9
31631.6
203909
253274
22126.5
23280.2
220218
265918
41052.3
40415.2
233324
395729
288384
282714
367893
246760
39137.5
39253.1
214246
216659
40168.5
40005.8
187935
215719
30475.6
30772.3
186073
220073
22693.5
24427.1
189259
232131
19814.2
22278.5
200263
250558
13470.3
14353.6
217555
264661
44552.8
43586
232188
393632
287457
281747
365781
243857
35548.8
35655.9
211379
213704
36319.6
36104
184960
213093
25427
25677.3
183417
217955
15665.2
17843.2
187117
230526
12354.8
15647.2
198652
249436
6928.05
7704.13
216450
264282
46486.5
45385
231871
392847
287039
281309
364987
)
;

boundaryField
{
    interface
    {
        type            calculated;
        value           nonuniform List<scalar> 
192
(
850041
526118
519879
543925
562684
561880
485498
269206
622315
475150
467214
478711
495179
510337
493416
485908
539077
457943
456284
467630
485894
507783
510678
563432
487524
428749
430300
442037
461355
485982
496174
567802
456276
404042
407608
420445
441124
467548
481275
558012
438113
387743
392477
406460
428379
456081
471874
549884
428130
378326
383687
398488
421261
449776
466787
545215
423692
374065
379706
394916
418107
447010
464595
543208
859141
535034
529252
554040
573247
572128
494847
277655
712221
519371
496553
503411
516503
523996
495678
475060
699642
509402
486569
493234
506169
513554
485861
468478
817695
505100
498828
522726
541382
540147
465860
272094
793942
477392
470290
493202
510934
509179
432938
223743
561373
419059
410618
420912
436063
449940
432763
432961
479494
402482
400069
410130
426924
447236
449712
509904
429779
375148
375672
385927
403595
426360
435791
514668
399679
351584
354015
365257
384188
408593
421367
505171
382155
335842
339399
351742
371875
397490
412266
497199
372504
326678
330842
343991
364964
391370
407360
492615
368207
322514
326950
340506
361895
388683
405252
490647
278549
495684
574010
578829
568990
560617
555746
553640
475670
497032
526676
521852
512208
504773
500120
497919
468999
487056
516003
511182
501540
494083
489410
487199
272560
466242
541349
545929
536073
527656
522740
520608
)
;
    }
    symmetry
    {
        type            symmetry;
    }
    bottom
    {
        type            calculated;
        value           nonuniform List<scalar> 
32
(
979248
518374
396832
348536
324220
310967
303829
300669
620002
131604
62652.9
58716.3
51558.8
44317.6
38492.7
35088.4
610068
126816
59186.1
56242.9
49125.4
41647.6
35468
31766.8
934488
478230
357398
310303
286809
274020
267116
264049
)
;
    }
}


// ************************************************************************* //
