/*--------------------------------*- C++ -*----------------------------------*\
| =========                 |                                                 |
| \\      /  F ield         | OpenFOAM: The Open Source CFD Toolbox           |
|  \\    /   O peration     | Version:  v1912                                 |
|   \\  /    A nd           | Website:  www.openfoam.com                      |
|    \\/     M anipulation  |                                                 |
\*---------------------------------------------------------------------------*/
FoamFile
{
    version     2.0;
    format      ascii;
    class       volScalarField;
    location    "0.83/solid";
    object      T;
}
// * * * * * * * * * * * * * * * * * * * * * * * * * * * * * * * * * * * * * //

dimensions      [0 0 0 1 0 0 0];


internalField   nonuniform List<scalar> 
256
(
291.407
292.064
292.076
291.47
290.924
291.745
291.76
291.001
290.839
291.69
291.706
290.919
290.787
291.659
291.675
290.868
290.711
291.613
291.629
290.795
290.573
291.518
291.534
290.658
290.223
291.216
291.234
290.311
289.108
290.076
290.105
289.227
292.144
292.747
292.75
292.183
291.853
292.631
292.636
291.9
291.802
292.612
292.617
291.85
291.771
292.603
292.608
291.821
291.725
292.589
292.595
291.777
291.631
292.546
292.551
291.684
291.336
292.319
292.326
291.393
290.221
291.215
291.234
290.311
292.327
292.87
292.872
292.362
292.101
292.808
292.811
292.144
292.06
292.797
292.8
292.104
292.034
292.792
292.796
292.079
291.994
292.783
292.787
292.04
291.908
292.749
292.753
291.957
291.631
292.546
292.551
291.684
290.571
291.516
291.533
290.657
292.386
292.89
292.892
292.42
292.18
292.837
292.84
292.221
292.142
292.828
292.831
292.184
292.116
292.824
292.827
292.16
292.077
292.816
292.819
292.122
291.993
292.783
292.787
292.04
291.724
292.589
292.594
291.777
290.707
291.611
291.628
290.793
292.414
292.895
292.897
292.448
292.217
292.845
292.848
292.257
292.179
292.836
292.839
292.221
292.154
292.832
292.835
292.197
292.115
292.824
292.827
292.159
292.032
292.792
292.795
292.078
291.768
292.603
292.608
291.82
290.779
291.655
291.672
290.865
292.43
292.897
292.9
292.464
292.237
292.848
292.851
292.277
292.201
292.84
292.842
292.241
292.175
292.835
292.838
292.218
292.136
292.827
292.83
292.18
292.053
292.796
292.799
292.1
291.793
292.609
292.615
291.845
290.822
291.68
291.697
290.908
292.439
292.899
292.901
292.473
292.249
292.85
292.853
292.288
292.212
292.842
292.844
292.253
292.187
292.837
292.84
292.229
292.148
292.829
292.832
292.192
292.066
292.798
292.801
292.111
291.807
292.613
292.618
291.859
290.847
291.695
291.712
290.932
292.444
292.899
292.901
292.477
292.254
292.851
292.854
292.293
292.218
292.842
292.845
292.258
292.193
292.838
292.841
292.234
292.153
292.83
292.833
292.197
292.071
292.799
292.802
292.117
291.813
292.615
292.62
291.865
290.858
291.702
291.718
290.944
)
;

boundaryField
{
    interface
    {
        type            fixedValue;
        value           nonuniform List<scalar> 
192
(
290.133
289.812
289.714
289.626
289.502
289.296
288.886
287.908
290.909
290.702
290.628
290.558
290.455
290.278
289.892
288.883
291.213
291.05
290.986
290.92
290.823
290.651
290.275
289.29
291.359
291.21
291.149
291.086
290.99
290.819
290.448
289.491
291.441
291.297
291.238
291.175
291.08
290.911
290.544
289.607
291.489
291.349
291.291
291.228
291.133
290.964
290.601
289.678
291.516
291.378
291.32
291.258
291.162
290.995
290.634
289.72
291.529
291.391
291.334
291.271
291.176
291.009
290.649
289.739
290.09
289.774
289.674
289.586
289.461
289.256
288.846
287.872
290.746
290.523
290.445
290.373
290.271
290.094
289.706
288.688
290.787
290.568
290.491
290.421
290.32
290.144
289.758
288.75
290.241
289.936
289.842
289.758
289.637
289.435
289.031
288.082
290.35
290.047
289.954
289.872
289.752
289.551
289.148
288.202
291.1
290.904
290.835
290.769
290.672
290.5
290.123
289.147
291.396
291.242
291.182
291.122
291.03
290.865
290.499
289.549
291.537
291.396
291.34
291.282
291.192
291.029
290.67
289.748
291.616
291.48
291.426
291.368
291.279
291.118
290.764
289.864
291.662
291.53
291.476
291.419
291.33
291.169
290.819
289.935
291.688
291.558
291.504
291.447
291.359
291.199
290.852
289.976
291.7
291.57
291.517
291.46
291.372
291.213
290.866
289.995
287.869
288.841
289.248
289.449
289.565
289.636
289.678
289.698
288.687
289.702
290.088
290.262
290.358
290.415
290.448
290.464
288.749
289.755
290.139
290.312
290.408
290.465
290.499
290.514
288.081
289.029
289.431
289.631
289.746
289.817
289.859
289.879
)
;
    }
    symmetry
    {
        type            symmetry;
    }
    bottom
    {
        type            fixedValue;
        value           uniform 293;
    }
}


// ************************************************************************* //
