/*--------------------------------*- C++ -*----------------------------------*\
| =========                 |                                                 |
| \\      /  F ield         | OpenFOAM: The Open Source CFD Toolbox           |
|  \\    /   O peration     | Version:  v1912                                 |
|   \\  /    A nd           | Website:  www.openfoam.com                      |
|    \\/     M anipulation  |                                                 |
\*---------------------------------------------------------------------------*/
FoamFile
{
    version     2.0;
    format      ascii;
    class       volVectorField;
    location    "0.2/solid";
    object      DD;
}
// * * * * * * * * * * * * * * * * * * * * * * * * * * * * * * * * * * * * * //

dimensions      [0 1 0 0 0 0 0];


internalField   nonuniform List<vector> 
256
(
(6.84199e-10 5.75261e-10 7.7608e-10)
(1.21382e-10 2.57127e-10 5.8869e-10)
(-1.21011e-10 2.53167e-10 5.88935e-10)
(-6.6651e-10 5.55004e-10 7.76758e-10)
(1.06648e-09 2.26467e-10 1.55329e-09)
(2.49721e-10 4.49935e-11 1.32295e-09)
(-2.33066e-10 3.83629e-11 1.32537e-09)
(-1.02769e-09 2.03476e-10 1.56079e-09)
(1.07822e-09 -2.54899e-10 2.05597e-09)
(2.65271e-10 -3.1516e-10 1.83461e-09)
(-2.28969e-10 -3.23453e-10 1.8387e-09)
(-1.02045e-09 -2.80857e-10 2.06825e-09)
(1.02501e-09 -7.3121e-10 2.49754e-09)
(2.46834e-10 -7.7038e-10 2.26883e-09)
(-1.89856e-10 -7.79874e-10 2.27387e-09)
(-9.47053e-10 -7.60261e-10 2.51246e-09)
(1.01728e-09 -1.22523e-09 2.9518e-09)
(2.45925e-10 -1.31123e-09 2.70268e-09)
(-1.66986e-10 -1.32176e-09 2.70828e-09)
(-9.1756e-10 -1.25715e-09 2.96832e-09)
(1.14548e-09 -1.78437e-09 3.47364e-09)
(3.04748e-10 -1.9392e-09 3.19878e-09)
(-2.02257e-10 -1.9508e-09 3.20484e-09)
(-1.02237e-09 -1.81918e-09 3.49157e-09)
(1.54458e-09 -2.5713e-09 4.12876e-09)
(4.60196e-10 -2.68379e-09 3.83585e-09)
(-3.32826e-10 -2.69679e-09 3.84221e-09)
(-1.39604e-09 -2.60994e-09 4.14809e-09)
(2.21593e-09 -4.06071e-09 4.86088e-09)
(6.29785e-10 -3.7871e-09 4.58107e-09)
(-4.77896e-10 -3.79991e-09 4.58708e-09)
(-2.03915e-09 -4.10081e-09 4.88036e-09)
(2.76383e-10 1.00974e-10 2.54443e-10)
(4.29294e-11 -8.6849e-11 3.10078e-10)
(-4.221e-11 -8.98814e-11 3.11133e-10)
(-2.62066e-10 8.41517e-11 2.57144e-10)
(4.51951e-10 -2.34436e-10 8.31412e-10)
(1.04479e-10 -3.50333e-10 9.36559e-10)
(-8.97781e-11 -3.56897e-10 9.39212e-10)
(-4.20598e-10 -2.56512e-10 8.38858e-10)
(4.44603e-10 -6.40579e-10 1.33188e-09)
(1.09147e-10 -6.84075e-10 1.45505e-09)
(-7.72296e-11 -6.92565e-10 1.45903e-09)
(-3.96826e-10 -6.66589e-10 1.34324e-09)
(3.97219e-10 -1.07973e-09 1.77482e-09)
(9.35658e-11 -1.11522e-09 1.89881e-09)
(-4.27846e-11 -1.12492e-09 1.90374e-09)
(-3.30945e-10 -1.10901e-09 1.78888e-09)
(3.88157e-10 -1.55255e-09 2.2126e-09)
(9.42799e-11 -1.63565e-09 2.33015e-09)
(-2.28592e-11 -1.64638e-09 2.3357e-09)
(-3.0124e-10 -1.58482e-09 2.22848e-09)
(5.06444e-10 -2.06323e-09 2.67866e-09)
(1.51615e-10 -2.21533e-09 2.78849e-09)
(-5.76933e-11 -2.22717e-09 2.7945e-09)
(-3.96844e-10 -2.0986e-09 2.69587e-09)
(8.8995e-10 -2.66528e-09 3.13845e-09)
(3.0293e-10 -2.7761e-09 3.24402e-09)
(-1.84975e-10 -2.78942e-09 3.25029e-09)
(-7.55226e-10 -2.70462e-09 3.15649e-09)
(1.55209e-09 -3.65321e-09 3.37062e-09)
(4.67588e-10 -3.36709e-09 3.47821e-09)
(-3.25617e-10 -3.38056e-09 3.48442e-09)
(-1.38897e-09 -3.69394e-09 3.3886e-09)
(5.81028e-11 -3.82121e-11 1.5602e-10)
(-2.52287e-11 -1.54635e-10 2.35682e-10)
(2.51176e-11 -1.5728e-10 2.3642e-10)
(-4.57304e-11 -5.34044e-11 1.58052e-10)
(8.23668e-11 -4.54008e-10 5.95016e-10)
(-2.73849e-11 -5.20464e-10 7.35914e-10)
(3.91879e-11 -5.26556e-10 7.37818e-10)
(-5.56062e-11 -4.74215e-10 6.0047e-10)
(5.36199e-11 -8.72045e-10 1.04499e-09)
(-3.52671e-11 -8.99544e-10 1.20255e-09)
(6.229e-11 -9.07691e-10 1.20542e-09)
(-1.24506e-11 -8.96692e-10 1.05331e-09)
(1.41341e-11 -1.28669e-09 1.46723e-09)
(-4.85016e-11 -1.32139e-09 1.62592e-09)
(9.27327e-11 -1.33086e-09 1.62955e-09)
(4.3965e-11 -1.31504e-09 1.47781e-09)
(1.12195e-11 -1.70303e-09 1.86927e-09)
(-4.59061e-11 -1.78877e-09 2.02467e-09)
(1.09506e-10 -1.79936e-09 2.02888e-09)
(6.63755e-11 -1.73468e-09 1.88158e-09)
(1.3127e-10 -2.10606e-09 2.24593e-09)
(1.04129e-11 -2.26053e-09 2.39764e-09)
(7.47828e-11 -2.27229e-09 2.40228e-09)
(-3.17201e-11 -2.14104e-09 2.25949e-09)
(5.11345e-10 -2.53157e-09 2.53078e-09)
(1.57955e-10 -2.64679e-09 2.68059e-09)
(-4.93261e-11 -2.66009e-09 2.68549e-09)
(-3.8699e-10 -2.57071e-09 2.5451e-09)
(1.15823e-09 -3.32329e-09 2.58197e-09)
(3.18618e-10 -3.05564e-09 2.73502e-09)
(-1.86476e-10 -3.06909e-09 2.73993e-09)
(-1.00553e-09 -3.36346e-09 2.59629e-09)
(-1.28819e-11 -7.91089e-11 1.36187e-10)
(-4.8333e-11 -1.62249e-10 1.81827e-10)
(4.74682e-11 -1.64723e-10 1.82452e-10)
(2.41547e-11 -9.34916e-11 1.37993e-10)
(-4.99215e-11 -5.35581e-10 4.84671e-10)
(-7.85045e-11 -5.77119e-10 5.66697e-10)
(8.7893e-11 -5.82796e-10 5.68265e-10)
(7.38037e-11 -5.5429e-10 4.8921e-10)
(-9.05903e-11 -9.73855e-10 8.57245e-10)
(-9.3608e-11 -9.92617e-10 9.49107e-10)
(1.16602e-10 -1.00032e-09 9.51402e-10)
(1.27314e-10 -9.96985e-10 8.63936e-10)
(-1.2382e-10 -1.37292e-09 1.21916e-09)
(-1.05211e-10 -1.40816e-09 1.31098e-09)
(1.44001e-10 -1.41725e-09 1.31386e-09)
(1.7612e-10 -1.39999e-09 1.22763e-09)
(-1.179e-10 -1.73657e-09 1.55322e-09)
(-9.99676e-11 -1.82569e-09 1.64202e-09)
(1.56998e-10 -1.83599e-09 1.64538e-09)
(1.8863e-10 -1.76723e-09 1.56311e-09)
(8.95848e-12 -2.05636e-09 1.83432e-09)
(-4.25889e-11 -2.21439e-09 1.91981e-09)
(1.2041e-10 -2.22594e-09 1.92352e-09)
(8.30043e-11 -2.09065e-09 1.84529e-09)
(3.89464e-10 -2.39461e-09 2.01106e-09)
(1.03243e-10 -2.51707e-09 2.09468e-09)
(-2.50445e-12 -2.53025e-09 2.09862e-09)
(-2.73065e-10 -2.43338e-09 2.02269e-09)
(1.02579e-09 -3.131e-09 2.02174e-09)
(2.61971e-10 -2.88847e-09 2.10919e-09)
(-1.38082e-10 -2.90185e-09 2.11321e-09)
(-8.81149e-10 -3.17092e-09 2.03356e-09)
(-2.74469e-11 -9.30376e-11 1.16363e-10)
(-5.00174e-11 -1.62697e-10 1.36091e-10)
(4.86202e-11 -1.65066e-10 1.36628e-10)
(3.79977e-11 -1.0689e-10 1.17954e-10)
(-7.63663e-11 -5.57631e-10 3.88092e-10)
(-8.55162e-11 -5.89774e-10 4.22838e-10)
(9.31289e-11 -5.95152e-10 4.24141e-10)
(9.82593e-11 -5.75267e-10 3.91879e-10)
(-1.1809e-10 -1.00022e-09 6.76098e-10)
(-1.0214e-10 -1.01622e-09 7.14369e-10)
(1.22099e-10 -1.02354e-09 7.16221e-10)
(1.51621e-10 -1.0221e-09 6.81512e-10)
(-1.46261e-10 -1.38599e-09 9.57462e-10)
(-1.12377e-10 -1.42262e-09 9.94721e-10)
(1.46986e-10 -1.43135e-09 9.97006e-10)
(1.9427e-10 -1.4119e-09 9.64198e-10)
(-1.33307e-10 -1.71583e-09 1.21072e-09)
(-1.0501e-10 -1.80776e-09 1.24543e-09)
(1.5691e-10 -1.81776e-09 1.24807e-09)
(1.98838e-10 -1.74555e-09 1.21854e-09)
(-8.37279e-13 -1.99285e-09 1.41026e-09)
(-4.63845e-11 -2.15387e-09 1.44235e-09)
(1.18375e-10 -2.16523e-09 1.44526e-09)
(8.69567e-11 -2.02653e-09 1.41891e-09)
(3.79921e-10 -2.3008e-09 1.52508e-09)
(9.86393e-11 -2.42923e-09 1.55581e-09)
(-4.16426e-12 -2.44236e-09 1.5589e-09)
(-2.6971e-10 -2.33939e-09 1.53427e-09)
(1.01004e-09 -3.01991e-09 1.53125e-09)
(2.56684e-10 -2.7963e-09 1.5649e-09)
(-1.39225e-10 -2.80975e-09 1.56813e-09)
(-8.71653e-10 -3.0601e-09 1.54077e-09)
(-2.77328e-11 -9.74161e-11 8.87803e-11)
(-4.71778e-11 -1.62083e-10 9.61851e-11)
(4.54053e-11 -1.64384e-10 9.66033e-11)
(3.77813e-11 -1.10903e-10 9.00327e-11)
(-7.34021e-11 -5.57373e-10 2.84581e-10)
(-8.09172e-11 -5.87175e-10 2.96523e-10)
(8.72565e-11 -5.92352e-10 2.97515e-10)
(9.38881e-11 -5.74268e-10 2.87471e-10)
(-1.11391e-10 -9.94192e-10 4.87981e-10)
(-9.64816e-11 -1.01039e-09 5.00194e-10)
(1.14236e-10 -1.01744e-09 5.01578e-10)
(1.42631e-10 -1.01518e-09 4.92027e-10)
(-1.35361e-10 -1.36863e-09 6.85045e-10)
(-1.05493e-10 -1.40686e-09 6.95959e-10)
(1.37027e-10 -1.41532e-09 6.97641e-10)
(1.80248e-10 -1.39366e-09 6.90009e-10)
(-1.17965e-10 -1.68097e-09 8.59186e-10)
(-9.68404e-11 -1.77488e-09 8.68296e-10)
(1.44927e-10 -1.78466e-09 8.70215e-10)
(1.7967e-10 -1.70997e-09 8.64896e-10)
(1.76603e-11 -1.94148e-09 9.92029e-10)
(-3.75238e-11 -2.10442e-09 9.99495e-10)
(1.05146e-10 -2.11566e-09 1.0016e-09)
(6.41205e-11 -1.97475e-09 9.9831e-10)
(3.98145e-10 -2.24227e-09 1.06655e-09)
(1.06996e-10 -2.3742e-09 1.07329e-09)
(-1.72077e-11 -2.38734e-09 1.07554e-09)
(-2.92536e-10 -2.28091e-09 1.07323e-09)
(1.02472e-09 -2.95418e-09 1.07306e-09)
(2.64819e-10 -2.74122e-09 1.08164e-09)
(-1.52063e-10 -2.75481e-09 1.08403e-09)
(-8.90924e-10 -2.99491e-09 1.0801e-09)
(-2.64609e-11 -9.8166e-11 5.5407e-11)
(-4.50254e-11 -1.60975e-10 5.79671e-11)
(4.3005e-11 -1.63233e-10 5.82329e-11)
(3.61811e-11 -1.11421e-10 5.62071e-11)
(-6.79923e-11 -5.51303e-10 1.73661e-10)
(-7.66986e-11 -5.81031e-10 1.77147e-10)
(8.21975e-11 -5.86083e-10 1.77769e-10)
(8.75564e-11 -5.67729e-10 1.75477e-10)
(-1.02329e-10 -9.807e-10 2.94426e-10)
(-9.09909e-11 -9.97826e-10 2.9735e-10)
(1.07286e-10 -1.00471e-09 2.9821e-10)
(1.32061e-10 -1.00111e-09 2.96937e-10)
(-1.23324e-10 -1.34713e-09 4.10236e-10)
(-9.90977e-11 -1.38662e-09 4.1218e-10)
(1.2859e-10 -1.39491e-09 4.13215e-10)
(1.6615e-10 -1.37159e-09 4.13289e-10)
(-1.03462e-10 -1.65161e-09 5.11387e-10)
(-8.97741e-11 -1.74673e-09 5.12297e-10)
(1.35316e-10 -1.75637e-09 5.13468e-10)
(1.62626e-10 -1.68016e-09 5.14874e-10)
(3.36236e-11 -1.90733e-09 5.87551e-10)
(-3.01913e-11 -2.07128e-09 5.87628e-10)
(9.48907e-11 -2.08246e-09 5.88905e-10)
(4.52695e-11 -1.94038e-09 5.91369e-10)
(4.13715e-10 -2.20797e-09 6.30278e-10)
(1.14007e-10 -2.34149e-09 6.30073e-10)
(-2.73398e-11 -2.35468e-09 6.31442e-10)
(-3.11158e-10 -2.24674e-09 6.34344e-10)
(1.03832e-09 -2.91671e-09 6.35442e-10)
(2.71728e-10 -2.70856e-09 6.36189e-10)
(-1.62041e-10 -2.72231e-09 6.37667e-10)
(-9.07522e-10 -2.95797e-09 6.39768e-10)
(-2.58646e-11 -9.7994e-11 1.88101e-11)
(-4.40954e-11 -1.60132e-10 1.94328e-11)
(4.19502e-11 -1.62371e-10 1.95239e-11)
(3.54214e-11 -1.11135e-10 1.90849e-11)
(-6.54032e-11 -5.46829e-10 5.83523e-11)
(-7.47911e-11 -5.76795e-10 5.9067e-11)
(7.98697e-11 -5.81788e-10 5.92794e-11)
(8.45086e-11 -5.63027e-10 5.89716e-11)
(-9.78478e-11 -9.71695e-10 9.83612e-11)
(-8.84097e-11 -9.89446e-10 9.87976e-11)
(1.03977e-10 -9.96248e-10 9.90895e-11)
(1.26831e-10 -9.91823e-10 9.92135e-11)
(-1.17352e-10 -1.33408e-09 1.36493e-10)
(-9.60581e-11 -1.37424e-09 1.36576e-10)
(1.24531e-10 -1.38245e-09 1.36925e-10)
(1.59151e-10 -1.35826e-09 1.37524e-10)
(-9.63964e-11 -1.63566e-09 1.69613e-10)
(-8.64503e-11 -1.73134e-09 1.69363e-10)
(1.3072e-10 -1.74092e-09 1.69757e-10)
(1.54296e-10 -1.664e-09 1.70787e-10)
(4.12388e-11 -1.89045e-09 1.94448e-10)
(-2.67896e-11 -2.05481e-09 1.9395e-10)
(9.00297e-11 -2.06597e-09 1.94379e-10)
(3.62178e-11 -1.92341e-09 1.9573e-10)
(4.21089e-10 -2.19196e-09 2.08438e-10)
(1.17254e-10 -2.32601e-09 2.07874e-10)
(-3.21366e-11 -2.33924e-09 2.08334e-10)
(-3.20042e-10 -2.23082e-09 2.09803e-10)
(1.0448e-09 -2.89958e-09 2.10387e-10)
(2.74923e-10 -2.69311e-09 2.10113e-10)
(-1.66737e-10 -2.70695e-09 2.10613e-10)
(-9.15463e-10 -2.94115e-09 2.11846e-10)
)
;

boundaryField
{
    interface
    {
        type            calculated;
        value           nonuniform List<vector> 
192
(
(3.73226e-10 1.01293e-09 6.71417e-10)
(6.74851e-10 3.24971e-10 1.38688e-09)
(6.94611e-10 -2.65266e-10 1.88169e-09)
(6.5846e-10 -7.46447e-10 2.32642e-09)
(6.63293e-10 -1.19511e-09 2.78364e-09)
(7.86563e-10 -1.65254e-09 3.30646e-09)
(1.13234e-09 -2.30369e-09 3.95939e-09)
(2.0374e-09 -3.88254e-09 4.68625e-09)
(-2.7404e-10 2.83056e-10 9.79282e-11)
(-1.46348e-10 -1.92382e-10 5.85392e-10)
(-1.53909e-10 -6.54263e-10 1.07574e-09)
(-1.95115e-10 -1.09384e-09 1.52211e-09)
(-2.01529e-10 -1.52524e-09 1.9611e-09)
(-9.74524e-11 -1.93779e-09 2.42512e-09)
(2.24559e-10 -2.40387e-09 2.88014e-09)
(1.14028e-09 -3.4802e-09 3.1062e-09)
(-4.7761e-10 -3.09579e-12 8.37128e-11)
(-4.69297e-10 -4.55131e-10 4.69554e-10)
(-4.97444e-10 -8.89105e-10 9.11199e-10)
(-5.32499e-10 -1.29729e-09 1.33697e-09)
(-5.32579e-10 -1.67374e-09 1.74276e-09)
(-4.22486e-10 -1.98103e-09 2.12156e-09)
(-9.23452e-11 -2.27483e-09 2.40567e-09)
(8.00423e-10 -3.15229e-09 2.4504e-09)
(-5.54148e-10 -9.48107e-11 1.14805e-10)
(-5.9645e-10 -5.5501e-10 4.44993e-10)
(-6.35275e-10 -9.92332e-10 8.14322e-10)
(-6.63986e-10 -1.37975e-09 1.17907e-09)
(-6.54554e-10 -1.70338e-09 1.51709e-09)
(-5.35569e-10 -1.92952e-09 1.8013e-09)
(-2.00186e-10 -2.14041e-09 1.97821e-09)
(6.7405e-10 -2.95934e-09 1.9847e-09)
(-5.79288e-10 -1.18992e-10 1.12655e-10)
(-6.30564e-10 -5.80293e-10 3.82225e-10)
(-6.69552e-10 -1.01769e-09 6.70901e-10)
(-6.92486e-10 -1.3898e-09 9.5458e-10)
(-6.75179e-10 -1.67948e-09 1.21071e-09)
(-5.49565e-10 -1.86455e-09 1.41244e-09)
(-2.12496e-10 -2.04808e-09 1.52725e-09)
(6.48533e-10 -2.84716e-09 1.53099e-09)
(-5.88506e-10 -1.22701e-10 8.90299e-11)
(-6.35698e-10 -5.78289e-10 2.86677e-10)
(-6.70395e-10 -1.00968e-09 4.91924e-10)
(-6.88437e-10 -1.37028e-09 6.90781e-10)
(-6.66033e-10 -1.64271e-09 8.66649e-10)
(-5.36881e-10 -1.81246e-09 1.00065e-09)
(-2.00067e-10 -1.99051e-09 1.075e-09)
(6.52651e-10 -2.78084e-09 1.08014e-09)
(-5.93392e-10 -1.2178e-10 5.58757e-11)
(-6.36133e-10 -5.70271e-10 1.75662e-10)
(-6.6685e-10 -9.94535e-10 2.97813e-10)
(-6.81456e-10 -1.34741e-09 4.1474e-10)
(-6.56195e-10 -1.61237e-09 5.16781e-10)
(-5.25512e-10 -1.77804e-09 5.93446e-10)
(-1.89463e-10 -1.9568e-09 6.36015e-10)
(6.58454e-10 -2.74323e-09 6.40461e-10)
(-5.95927e-10 -1.20812e-10 1.89598e-11)
(-6.36535e-10 -5.64826e-10 5.90001e-11)
(-6.65201e-10 -9.84684e-10 9.94819e-11)
(-6.78092e-10 -1.33372e-09 1.37986e-10)
(-6.51565e-10 -1.59601e-09 1.7138e-10)
(-5.20351e-10 -1.76108e-09 1.96353e-10)
(-1.84825e-10 -1.94107e-09 2.10282e-10)
(6.60887e-10 -2.72612e-09 2.12005e-10)
(6.89651e-10 1.15761e-09 3.76007e-10)
(1.09207e-09 5.46445e-10 1.0637e-09)
(1.11e-09 -1.88335e-11 1.57797e-09)
(1.05337e-09 -5.07252e-10 2.04484e-09)
(1.03906e-09 -9.81203e-10 2.51963e-09)
(1.16033e-09 -1.49013e-09 3.04055e-09)
(1.55603e-09 -2.22449e-09 3.64102e-09)
(2.23329e-09 -3.88459e-09 4.5945e-09)
(7.45628e-11 7.35039e-10 8.13724e-12)
(1.92711e-10 3.56477e-10 6.53701e-10)
(2.10925e-10 -7.86872e-11 1.15834e-09)
(1.9089e-10 -5.53362e-10 1.60289e-09)
(1.8502e-10 -1.07874e-09 2.04339e-09)
(2.37524e-10 -1.65591e-09 2.52318e-09)
(3.88538e-10 -2.33822e-09 3.09146e-09)
(5.61319e-10 -3.60869e-09 4.09687e-09)
(-7.40274e-11 7.31745e-10 4.42712e-12)
(-1.73635e-10 3.50806e-10 6.52857e-10)
(-1.70585e-10 -8.63274e-11 1.15875e-09)
(-1.28974e-10 -5.62477e-10 1.60398e-09)
(-1.00599e-10 -1.08902e-09 2.04484e-09)
(-1.29083e-10 -1.66732e-09 2.52473e-09)
(-2.54785e-10 -2.35123e-09 3.09273e-09)
(-4.03089e-10 -3.62151e-09 4.09638e-09)
(-6.71377e-10 1.13939e-09 3.66646e-10)
(-1.05046e-09 5.2635e-10 1.06477e-09)
(-1.04792e-09 -4.29385e-11 1.58234e-09)
(-9.70258e-10 -5.35243e-10 2.05085e-09)
(-9.3365e-10 -1.01237e-09 2.52656e-09)
(-1.03109e-09 -1.52424e-09 3.04812e-09)
(-1.40092e-09 -2.26274e-09 3.64907e-09)
(-2.04977e-09 -3.92453e-09 4.60175e-09)
(-2.70684e-10 9.78559e-10 6.73186e-10)
(-5.50741e-10 2.91965e-10 1.3976e-09)
(-5.51057e-10 -3.01012e-10 1.89858e-09)
(-4.94918e-10 -7.8598e-10 2.3468e-09)
(-4.78559e-10 -1.23832e-09 2.80617e-09)
(-5.78687e-10 -1.69955e-09 3.3308e-09)
(-8.96867e-10 -2.35574e-09 3.98543e-09)
(-1.75358e-09 -3.93657e-09 4.71249e-09)
(3.55699e-10 2.5482e-10 1.01933e-10)
(2.43233e-10 -2.22819e-10 5.95817e-10)
(2.67455e-10 -6.88999e-10 1.09122e-09)
(3.27014e-10 -1.1329e-09 1.54111e-09)
(3.53742e-10 -1.56834e-09 1.98248e-09)
(2.72495e-10 -1.9851e-09 2.44819e-09)
(-2.19299e-11 -2.45658e-09 2.90421e-09)
(-8.89714e-10 -3.53489e-09 3.13019e-09)
(5.53674e-10 -2.80691e-11 8.64823e-11)
(5.57788e-10 -4.82533e-10 4.76855e-10)
(6.00575e-10 -9.21582e-10 9.22257e-10)
(6.52566e-10 -1.33474e-09 1.35103e-09)
(6.72178e-10 -1.71575e-09 1.7591e-09)
(5.84851e-10 -2.02769e-09 2.13952e-09)
(2.82885e-10 -2.32725e-09 2.42455e-09)
(-5.61733e-10 -3.2063e-09 2.46933e-09)
(6.28322e-10 -1.17981e-10 1.17052e-10)
(6.81207e-10 -5.80079e-10 4.50733e-10)
(7.33132e-10 -1.02256e-09 8.22909e-10)
(7.77553e-10 -1.41531e-09 1.19004e-09)
(7.86863e-10 -1.74394e-09 1.52999e-09)
(6.90412e-10 -1.97521e-09 1.81562e-09)
(3.83529e-10 -2.19233e-09 1.99337e-09)
(-4.42297e-10 -3.01302e-09 2.00009e-09)
(6.5317e-10 -1.40954e-10 1.14541e-10)
(7.13769e-10 -6.03671e-10 3.86852e-10)
(7.647e-10 -1.0461e-09 6.77677e-10)
(8.02339e-10 -1.4237e-09 9.63161e-10)
(8.03044e-10 -1.71871e-09 1.22078e-09)
(6.99625e-10 -1.90938e-09 1.42363e-09)
(3.91143e-10 -2.09972e-09 1.53913e-09)
(-4.2129e-10 -2.90113e-09 1.54321e-09)
(6.62718e-10 -1.4382e-10 9.04822e-11)
(7.18366e-10 -6.00478e-10 2.90142e-10)
(7.64162e-10 -1.03676e-09 4.96913e-10)
(7.96142e-10 -1.40291e-09 6.97035e-10)
(7.91156e-10 -1.68093e-09 8.73946e-10)
(6.83873e-10 -1.85668e-09 1.00873e-09)
(3.75653e-10 -2.04213e-09 1.08359e-09)
(-4.28295e-10 -2.83542e-09 1.08907e-09)
(6.68036e-10 -1.42354e-10 5.67946e-11)
(7.18667e-10 -5.91697e-10 1.77819e-10)
(7.59924e-10 -1.02075e-09 3.00885e-10)
(7.87944e-10 -1.37922e-09 4.18561e-10)
(7.7968e-10 -1.64994e-09 5.21216e-10)
(6.70623e-10 -1.82192e-09 5.98344e-10)
(3.6316e-10 -2.00852e-09 6.4122e-10)
(-4.35841e-10 -2.79841e-09 6.45902e-10)
(6.70839e-10 -1.41117e-10 1.92739e-11)
(7.19057e-10 -5.85878e-10 5.97327e-11)
(7.57991e-10 -1.01048e-09 1.0052e-10)
(7.84035e-10 -1.36512e-09 1.39273e-10)
(7.74292e-10 -1.63326e-09 1.72868e-10)
(6.64581e-10 -1.80482e-09 1.97993e-10)
(3.57641e-10 -1.99288e-09 2.12024e-10)
(-4.39063e-10 -2.78166e-09 2.13831e-10)
(2.23661e-09 -3.79481e-09 4.84706e-09)
(1.56705e-09 -3.16605e-09 3.18626e-09)
(1.1768e-09 -2.89141e-09 2.45142e-09)
(1.05097e-09 -2.70204e-09 1.9459e-09)
(1.04049e-09 -2.57539e-09 1.48705e-09)
(1.05813e-09 -2.49356e-09 1.04727e-09)
(1.07301e-09 -2.44453e-09 6.21792e-10)
(1.07989e-09 -2.42153e-09 2.06103e-10)
(5.64569e-10 -3.30342e-09 4.56528e-09)
(3.99405e-10 -2.62356e-09 3.29534e-09)
(2.55045e-10 -2.38189e-09 2.61536e-09)
(2.0466e-10 -2.23307e-09 2.04435e-09)
(2.04119e-10 -2.1371e-09 1.52809e-09)
(2.14952e-10 -2.0724e-09 1.0597e-09)
(2.23101e-10 -2.03107e-09 6.24164e-10)
(2.26741e-10 -2.01077e-09 2.06252e-10)
(-3.99483e-10 -3.30961e-09 4.57144e-09)
(-2.43925e-10 -2.63173e-09 3.30172e-09)
(-1.09542e-10 -2.39049e-09 2.62025e-09)
(-6.74924e-11 -2.24178e-09 2.04837e-09)
(-7.32976e-11 -2.14584e-09 1.53137e-09)
(-8.86622e-11 -2.0812e-09 1.06217e-09)
(-9.97126e-11 -2.03993e-09 6.25703e-10)
(-1.04751e-10 -2.01968e-09 2.06775e-10)
(-2.04605e-09 -3.82225e-09 4.86679e-09)
(-1.39017e-09 -3.19489e-09 3.20427e-09)
(-1.01054e-09 -2.92027e-09 2.46553e-09)
(-8.92854e-10 -2.73095e-09 1.95772e-09)
(-8.88573e-10 -2.60458e-09 1.49677e-09)
(-9.10671e-10 -2.52318e-09 1.05457e-09)
(-9.28413e-10 -2.47456e-09 6.26328e-10)
(-9.36686e-10 -2.45181e-09 2.07642e-10)
)
;
    }
    symmetry
    {
        type            symmetry;
    }
    bottom
    {
        type            calculated;
        value           uniform (0 0 0);
    }
}


// ************************************************************************* //
