/*--------------------------------*- C++ -*----------------------------------*\
| =========                 |                                                 |
| \\      /  F ield         | OpenFOAM: The Open Source CFD Toolbox           |
|  \\    /   O peration     | Version:  v1912                                 |
|   \\  /    A nd           | Website:  www.openfoam.com                      |
|    \\/     M anipulation  |                                                 |
\*---------------------------------------------------------------------------*/
FoamFile
{
    version     2.0;
    format      ascii;
    class       volVectorField;
    location    "0.2/solid";
    object      heatFlux;
}
// * * * * * * * * * * * * * * * * * * * * * * * * * * * * * * * * * * * * * //

dimensions      [1 0 -3 0 0 0 0];


internalField   nonuniform List<vector> 
256
(
(-91381.1 39650.8 -97984)
(-9382.66 20098.4 -89926.4)
(9390.05 20044.9 -89227.9)
(89583.7 39722.3 -95658.2)
(-91293.4 1946.67 -97962.2)
(-10223.2 1025.55 -90530.6)
(10233.8 1021.02 -89779.3)
(89400.6 1946.33 -95467.3)
(-92524.7 354.567 -99205.2)
(-10308.3 168.879 -91670.5)
(10310.8 166.754 -90890.9)
(90574.8 341.974 -96627.7)
(-94534.7 526.428 -101197)
(-10411.1 250.863 -93512.6)
(10406.9 249.74 -92719.7)
(92541.1 515.76 -98579.6)
(-97771.9 969.563 -104401)
(-10585 489.946 -96559.6)
(10575.7 489.597 -95761.4)
(95758.1 963.151 -101767)
(-103142 2382.94 -109758)
(-10891 1510.51 -101874)
(10880.1 1510.17 -101076)
(101164 2387.58 -107126)
(-112279 15403.4 -119057)
(-11457.8 13714.5 -111673)
(11452.8 13676.1 -110879)
(110491 15322.2 -116438)
(-121021 128702 -128694)
(-12618.4 123682 -123676)
(12487.9 122903 -122899)
(119739 126149 -126147)
(-79279.7 18480.1 -11163.4)
(-7939.75 1804.15 -9168.75)
(8077.3 1826.78 -9131.76)
(77180.9 18754.3 -11065.9)
(-79896.2 964.579 -12157.6)
(-8713.62 115.169 -10061.5)
(8872.86 116.616 -10019.6)
(77721.7 981.353 -12045.9)
(-81054.3 175.643 -12245.8)
(-8787.71 11.9928 -10137.6)
(8943.48 11.6819 -10094.4)
(78815.9 167.259 -12130.8)
(-82941.7 265.531 -12346.2)
(-8877.58 15.6962 -10224.1)
(9028.12 15.2482 -10180.4)
(80642.1 254.728 -12230.6)
(-86061.6 510.488 -12516.4)
(-9037.99 46.9872 -10379.9)
(9182.51 46.4625 -10336)
(83708.7 499.63 -12402.1)
(-91445.1 1517.6 -12819.2)
(-9341.6 593.506 -10681.7)
(9480.77 591.888 -10638.1)
(89072.2 1512.15 -12709.2)
(-101129 13422.1 -13421.3)
(-9963.7 11348.1 -11347.8)
(10101.2 11305.5 -11305.4)
(98872.1 13319.8 -13320)
(-112287 119071 -15402.3)
(-11458.1 111683 -13714)
(11452.5 110885 -13675.8)
(110488 116440 -15322.4)
(-69748 16329.8 -1340.08)
(-7350.98 868.218 -463.614)
(7492.87 893.584 -462.058)
(67592.6 16610.5 -1331.72)
(-70372.1 864.348 -1456.21)
(-8085.27 56.7284 -521.653)
(8249.4 58.3998 -519.876)
(68136.9 881.452 -1447.05)
(-71484.3 165.882 -1462.45)
(-8156.93 6.23802 -525.047)
(8317.6 5.97154 -523.235)
(69183 157.325 -1453.35)
(-73317.9 255.806 -1466.15)
(-8245.18 8.57387 -527.561)
(8400.49 8.12769 -525.74)
(70951.6 244.482 -1457.22)
(-76383 496.594 -1470.71)
(-8404.61 32.4095 -532.252)
(8553.5 31.8385 -530.442)
(73955 484.479 -1462.23)
(-81733.6 1478.06 -1477.31)
(-8709.94 542.566 -542.543)
(8852.56 540.779 -540.78)
(79267.4 1469.7 -1469.93)
(-91456 12820.3 -1516.81)
(-9341.89 10682.1 -593.475)
(9480.63 10638.4 -591.885)
(89068.9 12709 -1512.39)
(-103161 109783 -2381.33)
(-10891.9 101891 -1509.96)
(10879.5 101086 -1509.88)
(101157 107129 -2387.81)
(-64449.7 15683.9 -469.722)
(-7061.72 818.881 -28.4738)
(7209.19 844.85 -27.9742)
(62322.3 15975.5 -459.563)
(-65061.7 842.209 -500.98)
(-7777.28 53.7357 -31.8405)
(7947.46 55.4394 -31.2837)
(62853.3 859.722 -489.919)
(-66162.7 165.7 -501.432)
(-7848.49 6.0853 -31.9647)
(8015.18 5.81733 -31.4076)
(63888.1 157.09 -490.372)
(-67988.9 257.27 -500.285)
(-7937.17 8.49128 -31.9664)
(8098.46 8.04063 -31.4119)
(65649.2 245.851 -489.253)
(-71051.3 499.332 -498.029)
(-8097.72 32.0047 -31.9755)
(8252.54 31.4224 -31.4257)
(68648.1 486.924 -487.069)
(-76399.8 1471.49 -495.272)
(-8405.08 532.282 -32.3796)
(8553.38 530.445 -31.8415)
(73952.4 1461.99 -484.616)
(-86090 12518 -509.074)
(-9038.77 10380.6 -46.9325)
(9182.25 10336.4 -46.4518)
(83702.7 12401.9 -499.768)
(-97810.4 104443 -966.594)
(-10586.7 96589.5 -488.839)
(10574.7 95779.9 -488.943)
(95748.8 101773 -963.155)
(-61405.8 15359.1 -243.317)
(-6909.24 807.903 -7.79535)
(7061.78 834.326 -7.43282)
(59311.9 15661 -234.937)
(-62013.7 832.637 -257.942)
(-7615.58 53.2375 -8.51367)
(7791.32 54.9664 -8.10852)
(59840.1 850.643 -248.731)
(-63115.2 166.577 -257.597)
(-7686.91 6.11217 -8.50914)
(7859.19 5.84329 -8.10328)
(60876.3 157.99 -248.333)
(-64947 259.209 -256.222)
(-7776.31 8.56313 -8.45919)
(7943.2 8.10964 -8.05561)
(62643.6 247.785 -246.957)
(-68016.9 501.608 -254.244)
(-7938.01 31.9963 -8.38615)
(8098.41 31.409 -7.9856)
(65650.4 489.117 -244.99)
(-73363.3 1467.02 -252.685)
(-8246.51 527.609 -8.46332)
(8400.32 525.753 -8.06794)
(70950.6 1457 -243.547)
(-83000.3 12349 -262.124)
(-8879.27 10225.6 -15.4797)
(9027.8 10181.3 -15.1045)
(80637.7 12230.5 -253.661)
(-94605.8 101272 -519.25)
(-10414.2 93566.7 -247.773)
(10405.2 92754.9 -247.511)
(92532.2 98592.9 -513.554)
(-59614.8 15182.6 -131.543)
(-6825.84 802.572 -3.85883)
(6982.05 829.308 -3.61936)
(57545.4 15491.9 -125.778)
(-60222 827.93 -138.977)
(-7527.45 53.0219 -4.18865)
(7707.24 54.7689 -3.92052)
(58074.3 846.326 -132.615)
(-61326.9 167.42 -138.571)
(-7599 6.13978 -4.17791)
(7775.35 5.87024 -3.90904)
(59114.8 158.864 -132.156)
(-63165.4 260.622 -137.563)
(-7689 8.61427 -4.14276)
(7859.96 8.1583 -3.87577)
(60889.7 249.194 -131.148)
(-66241.9 502.869 -136.313)
(-7851.47 32.0006 -4.09709)
(8015.93 31.41 -3.83258)
(63903.6 490.333 -129.911)
(-71583.2 1463.61 -135.702)
(-8160.46 525.189 -4.13655)
(8318.29 523.326 -3.87507)
(69197.9 1453.32 -129.364)
(-81170.3 12251.5 -141.989)
(-8791.75 10141.3 -7.76722)
(8944.07 10097 -7.51146)
(78829.1 12131.9 -136.001)
(-92656.5 99345.2 -287.34)
(-10314.9 91776.3 -133.481)
(10308.9 90964.2 -133.167)
(90581.7 96663.2 -282.56)
(-58602.6 15088.6 -65.7487)
(-6781.31 799.856 -1.8592)
(6939.86 826.786 -1.72372)
(56549.4 15402.6 -62.4001)
(-59210.1 825.609 -69.3089)
(-7480.52 52.9184 -2.01266)
(7662.9 54.6767 -1.86089)
(57079.6 844.264 -65.6085)
(-60317.9 167.991 -69.0385)
(-7552.25 6.15806 -2.00518)
(7731.21 5.88804 -1.8529)
(58123.9 159.458 -65.3006)
(-62161.2 261.467 -68.4605)
(-7642.62 8.64394 -1.98562)
(7816.2 8.18609 -1.83458)
(59904.3 250.03 -64.7244)
(-65241.6 503.468 -67.8089)
(-7805.53 32.0025 -1.96219)
(7972.6 31.4097 -1.81281)
(62922.5 490.9 -64.0862)
(-70577.6 1461.34 -67.6322)
(-8114.68 523.939 -1.98346)
(8275.09 522.074 -1.83579)
(68211 1450.91 -63.9466)
(-80128.6 12197.3 -71.2061)
(-8744.79 10096.3 -3.74866)
(8899.57 10052 -3.60184)
(77802.7 12077.3 -67.6882)
(-91528.2 98229.3 -146.034)
(-10260 90754.6 -66.824)
(10256.1 89942.6 -66.6021)
(89455.5 95546.5 -142.995)
(-58143.1 15047.5 -20.0093)
(-6761.82 798.7 -0.555307)
(6921.51 825.724 -0.511453)
(56098 15363.9 -18.9119)
(-58750.8 824.641 -21.0691)
(-7460 52.876 -0.600311)
(7643.64 54.6398 -0.551177)
(56628.9 843.426 -19.8558)
(-59860.1 168.268 -20.9776)
(-7531.82 6.16682 -0.597748)
(7712.06 5.89655 -0.548431)
(57675.2 159.748 -19.7503)
(-61705.9 261.852 -20.792)
(-7622.37 8.65726 -0.591553)
(7797.22 8.19839 -0.542665)
(59458.3 250.408 -19.5656)
(-64788 503.698 -20.5927)
(-7785.47 32.0028 -0.58443)
(7953.81 31.4088 -0.53613)
(62478.5 491.111 -19.372)
(-70120.8 1460.22 -20.5625)
(-8094.66 523.402 -0.591256)
(8256.33 521.537 -0.543513)
(67763.6 1449.72 -19.3545)
(-79653.1 12173.1 -21.7182)
(-8724.15 10076.5 -1.12107)
(8880.13 10032.2 -1.07326)
(77335.1 12052.9 -20.5604)
(-91008.4 97714.8 -44.832)
(-10235.5 90287.1 -20.3735)
(10232.7 89475.3 -20.2953)
(88937.5 95031.9 -43.799)
)
;

boundaryField
{
    interface
    {
        type            calculated;
        value           nonuniform List<vector> 
192
(
(-164047 39650.8 -97984)
(-162197 1946.67 -97962.2)
(-164492 354.567 -99205.2)
(-168308 526.428 -101197)
(-174436 969.563 -104401)
(-184563 2382.94 -109758)
(-201705 15403.4 -119057)
(-216944 128702 -128694)
(-142659 18480.1 -11163.4)
(-142341 964.579 -12157.6)
(-144509 175.643 -12245.8)
(-148105 265.531 -12346.2)
(-154024 510.488 -12516.4)
(-164184 1517.6 -12819.2)
(-182312 13422.1 -13421.3)
(-201720 119071 -15402.3)
(-124770 16329.8 -1340.08)
(-124546 864.348 -1456.21)
(-126628 165.882 -1462.45)
(-130119 255.806 -1466.15)
(-135931 496.594 -1470.71)
(-146022 1478.06 -1477.31)
(-164206 12820.3 -1516.81)
(-184601 109783 -2381.33)
(-114752 15683.9 -469.722)
(-114541 842.209 -500.98)
(-116601 165.7 -501.432)
(-120076 257.27 -500.285)
(-125880 499.332 -498.029)
(-135963 1471.49 -495.272)
(-154079 12518 -509.074)
(-174510 104443 -966.594)
(-108968 15359.1 -243.317)
(-108768 832.637 -257.942)
(-110829 166.577 -257.597)
(-114314 259.209 -256.222)
(-120131 501.608 -254.244)
(-130207 1467.02 -252.685)
(-148219 12349 -262.124)
(-168445 101272 -519.25)
(-105553 15182.6 -131.543)
(-105361 827.93 -138.977)
(-107427 167.42 -138.571)
(-110925 260.622 -137.563)
(-116753 502.869 -136.313)
(-126819 1463.61 -135.702)
(-144733 12251.5 -141.989)
(-164745 99345.2 -287.34)
(-103618 15088.6 -65.7487)
(-103430 825.609 -69.3089)
(-105503 167.991 -69.0385)
(-109009 261.467 -68.4605)
(-114844 503.468 -67.8089)
(-124899 1461.34 -67.6322)
(-142744 12197.3 -71.2061)
(-162598 98229.3 -146.034)
(-102737 15047.5 -20.0093)
(-102553 824.641 -21.0691)
(-104628 168.268 -20.9776)
(-108139 261.852 -20.792)
(-113977 503.698 -20.5927)
(-124025 1460.22 -20.5625)
(-141834 12173.1 -21.7182)
(-161607 97714.8 -44.832)
(-91381.1 39650.8 -175697)
(-91293.4 1946.67 -173854)
(-92524.7 354.567 -176175)
(-94534.7 526.428 -179966)
(-97771.9 969.563 -186045)
(-103142 2382.94 -196170)
(-112279 15403.4 -213627)
(-121021 128702 -230080)
(-9382.66 20098.4 -162396)
(-10223.2 1025.55 -161929)
(-10308.3 168.879 -164064)
(-10411.1 250.863 -167580)
(-10585 489.946 -173371)
(-10891 1510.51 -183416)
(-11457.8 13714.5 -201764)
(-12618.4 123682 -222288)
(9390.05 20044.9 -161070)
(10233.8 1021.02 -160508)
(10310.8 166.754 -162588)
(10406.9 249.74 -166078)
(10575.7 489.597 -171860)
(10880.1 1510.17 -181904)
(11452.8 13676.1 -200258)
(12487.9 122903 -220810)
(89583.7 39722.3 -171234)
(89400.6 1946.33 -169081)
(90574.8 341.974 -171243)
(92541.1 515.76 -174956)
(95758.1 963.151 -181000)
(101164 2387.58 -191122)
(110491 15322.2 -208591)
(119739 126149 -225160)
(160337 39722.3 -95658.2)
(158277 1946.33 -95467.3)
(160469 341.974 -96627.7)
(164208 515.76 -98579.6)
(170303 963.151 -101767)
(180505 2387.58 -107126)
(198014 15322.2 -116438)
(214364 126149 -126147)
(138228 18754.3 -11065.9)
(137722 981.353 -12045.9)
(139769 167.259 -12130.8)
(143252 254.728 -12230.6)
(149076 499.63 -12402.1)
(159205 1512.15 -12709.2)
(177562 13319.8 -13320)
(198009 116440 -15322.4)
(120223 16610.5 -1331.72)
(119802 881.452 -1447.05)
(121758 157.325 -1453.35)
(125129 244.482 -1457.22)
(130829 484.479 -1462.23)
(140855 1469.7 -1469.93)
(159199 12709 -1512.39)
(180494 107129 -2387.81)
(110250 15975.5 -459.563)
(109840 859.722 -489.919)
(111773 157.09 -490.372)
(115129 245.851 -489.253)
(120818 486.924 -487.069)
(130824 1461.99 -484.616)
(149064 12401.9 -499.768)
(170286 101773 -963.155)
(104525 15661 -234.937)
(104126 850.643 -248.731)
(106062 157.99 -248.333)
(109428 247.785 -246.957)
(115131 489.117 -244.99)
(125127 1457 -243.547)
(143243 12230.5 -253.661)
(164192 98592.9 -513.554)
(101152 15491.9 -125.778)
(100763 846.326 -132.615)
(102707 158.864 -132.156)
(106087 249.194 -131.148)
(111803 490.333 -129.911)
(121786 1453.32 -129.364)
(139794 12131.9 -136.001)
(160484 96663.2 -282.56)
(99244.2 15402.6 -62.4001)
(98862.2 844.264 -65.6085)
(100814 159.458 -65.3006)
(104204 250.03 -64.7244)
(109928 490.9 -64.0862)
(119899 1450.91 -63.9466)
(137830 12077.3 -67.6882)
(158337 95546.5 -142.995)
(98378.1 15363.9 -18.9119)
(97999.5 843.426 -19.8558)
(99955 159.748 -19.7503)
(103351 250.408 -19.5656)
(109077 491.111 -19.372)
(119042 1449.72 -19.3545)
(136934 12052.9 -20.5604)
(157348 95031.9 -43.799)
(-121021 230094 -128694)
(-112287 213654 -15402.3)
(-103161 196217 -2381.33)
(-97810.4 186127 -966.594)
(-94605.8 180111 -519.25)
(-92656.5 176445 -287.34)
(-91528.2 174316 -146.034)
(-91008.4 173334 -44.832)
(-12618.4 222299 -123676)
(-11458.1 201783 -13714)
(-10891.9 183449 -1509.96)
(-10586.7 173430 -488.839)
(-10414.2 167685 -247.773)
(-10314.9 164268 -133.481)
(-10260 162312 -66.824)
(-10235.5 161416 -20.3735)
(12487.9 220818 -122899)
(11452.5 200271 -13675.8)
(10879.5 181925 -1509.88)
(10574.7 171896 -488.943)
(10405.2 166147 -247.511)
(10308.9 162729 -133.167)
(10256.1 160774 -66.6021)
(10232.7 159877 -20.2953)
(119739 225163 -126147)
(110488 208595 -15322.4)
(101157 191128 -2387.81)
(95748.8 181011 -963.155)
(92532.2 174982 -513.554)
(90581.7 171312 -282.56)
(89455.5 169183 -142.995)
(88937.5 168200 -43.799)
)
;
    }
    symmetry
    {
        type            symmetry;
    }
    bottom
    {
        type            calculated;
        value           nonuniform List<vector> 
32
(
(-91381.1 75734.7 -97984)
(-79279.7 35192.4 -11163.4)
(-69748 31081 -1340.08)
(-64449.7 29832.1 -469.722)
(-61405.8 29202.1 -243.317)
(-59614.8 28858.9 -131.543)
(-58602.6 28675.9 -65.7487)
(-58143.1 28595.9 -20.0093)
(-9382.66 38304.8 -89926.4)
(-7939.75 3391.31 -9168.75)
(-7350.98 1629.78 -463.614)
(-7061.72 1536.85 -28.4738)
(-6909.24 1515.89 -7.79535)
(-6825.84 1505.67 -3.85883)
(-6781.31 1500.45 -1.8592)
(-6761.82 1498.23 -0.555307)
(9390.05 38204.1 -89227.9)
(8077.3 3433.46 -9131.76)
(7492.87 1677.03 -462.058)
(7209.19 1585.23 -27.9742)
(7061.78 1565.13 -7.43282)
(6982.05 1555.5 -3.61936)
(6939.86 1550.65 -1.72372)
(6921.51 1548.61 -0.511453)
(89583.7 75865 -95658.2)
(77180.9 35700.5 -11065.9)
(67592.6 31601.3 -1331.72)
(62322.3 30373.6 -459.563)
(59311.9 29763 -234.937)
(57545.4 29433.9 -125.778)
(56549.4 29259.9 -62.4001)
(56098 29184.3 -18.9119)
)
;
    }
}


// ************************************************************************* //
