/*--------------------------------*- C++ -*----------------------------------*\
| =========                 |                                                 |
| \\      /  F ield         | OpenFOAM: The Open Source CFD Toolbox           |
|  \\    /   O peration     | Version:  v1912                                 |
|   \\  /    A nd           | Website:  www.openfoam.com                      |
|    \\/     M anipulation  |                                                 |
\*---------------------------------------------------------------------------*/
FoamFile
{
    version     2.0;
    format      ascii;
    class       pointVectorField;
    location    "0.2/solid";
    object      pointD;
}
// * * * * * * * * * * * * * * * * * * * * * * * * * * * * * * * * * * * * * //

dimensions      [0 1 0 0 0 0 0];


internalField   nonuniform List<vector> 
405
(
(2.46768e-08 1.64326e-08 2.62631e-08)
(1.77405e-09 1.03638e-08 3.48429e-08)
(2.2455e-10 8.52177e-09 3.4099e-08)
(-1.34104e-09 1.03866e-08 3.46024e-08)
(-2.38546e-08 1.6053e-08 2.62921e-08)
(3.81275e-08 2.17084e-08 3.98028e-08)
(4.80027e-09 1.85203e-08 6.95783e-08)
(9.16948e-10 1.56598e-08 6.8339e-08)
(-3.00841e-09 1.82147e-08 6.93386e-08)
(-3.60308e-08 2.06004e-08 4.02943e-08)
(3.98689e-08 1.77979e-08 3.94314e-08)
(6.47932e-09 1.57691e-08 6.88542e-08)
(1.91242e-09 1.42192e-08 6.78191e-08)
(-2.71134e-09 1.47948e-08 6.90281e-08)
(-3.59033e-08 1.56624e-08 4.06821e-08)
(4.12788e-08 1.7397e-08 3.74519e-08)
(7.36682e-09 1.59031e-08 6.74296e-08)
(3.04045e-09 1.49827e-08 6.63999e-08)
(-1.35041e-09 1.43339e-08 6.79043e-08)
(-3.51413e-08 1.43345e-08 3.92426e-08)
(4.31412e-08 1.93043e-08 3.50226e-08)
(8.42029e-09 1.799e-08 6.60354e-08)
(4.31808e-09 1.72486e-08 6.52015e-08)
(1.48055e-10 1.58932e-08 6.67396e-08)
(-3.45084e-08 1.54008e-08 3.72204e-08)
(4.53388e-08 2.25972e-08 3.26983e-08)
(9.43462e-09 2.14886e-08 6.53763e-08)
(5.75171e-09 2.07728e-08 6.49053e-08)
(1.99728e-09 1.89054e-08 6.62659e-08)
(-3.38975e-08 1.79094e-08 3.52224e-08)
(4.71174e-08 2.71707e-08 3.07216e-08)
(9.72808e-09 2.62246e-08 6.58911e-08)
(7.3468e-09 2.52772e-08 6.59098e-08)
(4.87112e-09 2.31752e-08 6.69434e-08)
(-3.26108e-08 2.17344e-08 3.35261e-08)
(4.74871e-08 2.63278e-08 2.90313e-08)
(9.21673e-09 2.51859e-08 6.66686e-08)
(9.09658e-09 2.35647e-08 6.72149e-08)
(8.81473e-09 2.1735e-08 6.79187e-08)
(-2.98125e-08 2.02464e-08 3.21172e-08)
(3.53711e-08 -2.63315e-09 1.54357e-08)
(9.01578e-09 -1.64907e-08 2.8773e-08)
(1.01864e-08 -1.8287e-08 2.98582e-08)
(1.11529e-08 -1.97015e-08 3.05636e-08)
(-1.57559e-08 -8.29394e-09 1.8705e-08)
(3.22094e-08 1.0655e-08 1.56339e-09)
(0 0 0)
(0 0 0)
(0 0 0)
(-3.13418e-08 1.00988e-08 1.89743e-09)
(6.53165e-08 1.95212e-08 3.67434e-09)
(5.26004e-09 1.35751e-08 3.19509e-09)
(6.13863e-10 1.0616e-08 3.39867e-09)
(-4.02573e-09 1.29605e-08 3.80614e-09)
(-6.28754e-08 1.78608e-08 4.82355e-09)
(6.70431e-08 1.7584e-08 3.28648e-09)
(7.05825e-09 1.54596e-08 2.60597e-09)
(1.39598e-09 1.38372e-08 2.90464e-09)
(-4.26287e-09 1.42578e-08 3.64425e-09)
(-6.30116e-08 1.48688e-08 5.26057e-09)
(6.89407e-08 1.84429e-08 8.23433e-10)
(7.86959e-09 1.74413e-08 1.79271e-10)
(2.36827e-09 1.64349e-08 5.70546e-10)
(-3.13403e-09 1.57114e-08 1.52054e-09)
(-6.29484e-08 1.47551e-08 3.39723e-09)
(7.15931e-08 2.09492e-08 -2.45511e-09)
(8.78975e-09 2.01885e-08 -2.95605e-09)
(3.52657e-09 1.93262e-08 -2.41929e-09)
(-1.73901e-09 1.79743e-08 -1.38672e-09)
(-6.32652e-08 1.63599e-08 5.76417e-10)
(7.51979e-08 2.42526e-08 -6.0748e-09)
(9.69902e-09 2.38845e-08 -6.43552e-09)
(4.86436e-09 2.30356e-08 -5.72133e-09)
(2.53514e-11 2.12104e-08 -4.68208e-09)
(-6.41914e-08 1.88146e-08 -2.67367e-09)
(7.93097e-08 2.80949e-08 -9.76044e-09)
(9.96654e-09 2.82029e-08 -1.00668e-08)
(6.37849e-09 2.7163e-08 -9.1956e-09)
(2.76493e-09 2.50842e-08 -8.15703e-09)
(-6.53755e-08 2.18592e-08 -6.04735e-09)
(8.22068e-08 2.58969e-08 -1.25754e-08)
(9.52482e-09 2.55347e-08 -1.29635e-08)
(8.05943e-09 2.38783e-08 -1.20258e-08)
(6.50043e-09 2.20648e-08 -1.09319e-08)
(-6.53643e-08 1.90085e-08 -8.61303e-09)
(4.80666e-08 -1.59007e-08 -1.34949e-08)
(9.97473e-09 -5.41001e-08 -1.30007e-08)
(9.84138e-09 -5.53753e-08 -1.20765e-08)
(9.55326e-09 -5.68003e-08 -1.09502e-08)
(-2.92588e-08 -2.15416e-08 -9.91919e-09)
(2.9803e-08 8.48952e-09 -6.77532e-10)
(0 0 0)
(0 0 0)
(0 0 0)
(-2.89242e-08 8.03187e-09 -4.19705e-10)
(6.13003e-08 1.61182e-08 -1.62129e-09)
(6.09712e-09 9.82372e-09 -2.23417e-09)
(3.85716e-10 6.93801e-09 -2.30784e-09)
(-5.27224e-09 9.20794e-09 -1.73652e-09)
(-5.90138e-08 1.46491e-08 -7.1855e-10)
(6.38068e-08 1.59098e-08 -2.68527e-09)
(8.16696e-09 1.36678e-08 -3.54958e-09)
(9.89056e-10 1.20322e-08 -3.57875e-09)
(-6.12824e-09 1.24702e-08 -2.69478e-09)
(-6.02574e-08 1.33757e-08 -1.10173e-09)
(6.55824e-08 1.80255e-08 -4.8232e-09)
(8.92503e-09 1.70441e-08 -5.66583e-09)
(1.81733e-09 1.60253e-08 -5.60509e-09)
(-5.23076e-09 1.53326e-08 -4.5471e-09)
(-6.03423e-08 1.45093e-08 -2.7154e-09)
(6.80997e-08 2.11336e-08 -7.75732e-09)
(9.74749e-09 2.03845e-08 -8.49593e-09)
(2.85864e-09 1.95192e-08 -8.33008e-09)
(-3.96885e-09 1.82006e-08 -7.17059e-09)
(-6.0737e-08 1.67056e-08 -5.23088e-09)
(7.17735e-08 2.43623e-08 -1.09357e-08)
(1.06437e-08 2.39305e-08 -1.16064e-08)
(4.10099e-09 2.30792e-08 -1.13431e-08)
(-2.37956e-09 2.12965e-08 -1.01111e-08)
(-6.18967e-08 1.90788e-08 -8.06389e-09)
(7.62712e-08 2.72603e-08 -1.36705e-08)
(1.10147e-08 2.724e-08 -1.43704e-08)
(5.53682e-09 2.62065e-08 -1.40395e-08)
(1.0077e-10 2.4176e-08 -1.27372e-08)
(-6.35923e-08 2.11852e-08 -1.05161e-08)
(8.01022e-08 2.34872e-08 -1.48171e-08)
(1.07479e-08 2.30274e-08 -1.56501e-08)
(7.15385e-09 2.14153e-08 -1.52991e-08)
(3.52959e-09 1.96409e-08 -1.39329e-08)
(-6.46262e-08 1.67872e-08 -1.14696e-08)
(4.84964e-08 -1.71688e-08 -1.43675e-08)
(1.1285e-08 -5.29218e-08 -1.40648e-08)
(8.88158e-09 -5.36983e-08 -1.37832e-08)
(6.38234e-09 -5.54701e-08 -1.23749e-08)
(-3.13009e-08 -2.25988e-08 -1.13948e-08)
(2.75598e-08 7.95893e-09 -5.34646e-10)
(0 0 0)
(0 0 0)
(0 0 0)
(-2.6767e-08 7.61967e-09 -3.4875e-10)
(5.72881e-08 1.49176e-08 -1.67246e-09)
(6.41922e-09 8.50306e-09 -1.91458e-09)
(2.44194e-10 5.6937e-09 -2.02155e-09)
(-5.87805e-09 7.95949e-09 -1.55131e-09)
(-5.53003e-08 1.37071e-08 -1.0118e-09)
(6.03535e-08 1.46052e-08 -3.01982e-09)
(8.67941e-09 1.22793e-08 -3.39257e-09)
(7.10624e-10 1.06695e-08 -3.46382e-09)
(-7.19252e-09 1.11769e-08 -2.75517e-09)
(-5.73519e-08 1.23517e-08 -1.83844e-09)
(6.21433e-08 1.68181e-08 -4.83319e-09)
(9.42005e-09 1.58676e-08 -5.18695e-09)
(1.41605e-09 1.48799e-08 -5.17971e-09)
(-6.51916e-09 1.42572e-08 -4.33613e-09)
(-5.76818e-08 1.35743e-08 -3.2267e-09)
(6.44946e-08 1.99161e-08 -7.1464e-09)
(1.01401e-08 1.92347e-08 -7.40599e-09)
(2.35193e-09 1.84117e-08 -7.31395e-09)
(-5.36299e-09 1.71517e-08 -6.38027e-09)
(-5.81103e-08 1.57415e-08 -5.1827e-09)
(6.80155e-08 2.27765e-08 -9.49993e-09)
(1.09631e-08 2.23677e-08 -9.67368e-09)
(3.50601e-09 2.15564e-08 -9.50867e-09)
(-3.87528e-09 1.98339e-08 -8.5015e-09)
(-5.92827e-08 1.77278e-08 -7.23469e-09)
(7.24935e-08 2.48815e-08 -1.11278e-08)
(1.13601e-08 2.48119e-08 -1.12919e-08)
(4.8688e-09 2.38256e-08 -1.10806e-08)
(-1.56624e-09 2.18497e-08 -1.00048e-08)
(-6.10904e-08 1.90288e-08 -8.62021e-09)
(7.67519e-08 2.03064e-08 -1.11099e-08)
(1.12289e-08 1.98608e-08 -1.13765e-08)
(6.42514e-09 1.8373e-08 -1.11624e-08)
(1.60494e-09 1.65769e-08 -1.00278e-08)
(-6.26465e-08 1.38185e-08 -8.44846e-09)
(4.75039e-08 -1.86295e-08 -9.86916e-09)
(1.17816e-08 -5.19354e-08 -9.38707e-09)
(8.09973e-09 -5.2263e-08 -9.27998e-09)
(4.3345e-09 -5.43861e-08 -8.07244e-09)
(-3.17819e-08 -2.38859e-08 -7.52881e-09)
(2.60659e-08 7.69283e-09 -4.25645e-10)
(0 0 0)
(0 0 0)
(0 0 0)
(-2.53531e-08 7.44603e-09 -2.94992e-10)
(5.43697e-08 1.42504e-08 -1.53207e-09)
(6.29738e-09 7.94507e-09 -1.47337e-09)
(1.58454e-10 5.21076e-09 -1.49963e-09)
(-5.94441e-09 7.47482e-09 -1.21457e-09)
(-5.26346e-08 1.32575e-08 -1.06379e-09)
(5.75445e-08 1.36117e-08 -2.90516e-09)
(8.55841e-09 1.13026e-08 -2.83024e-09)
(5.27119e-10 9.74168e-09 -2.80449e-09)
(-7.45382e-09 1.03064e-08 -2.37032e-09)
(-5.49807e-08 1.16191e-08 -2.05701e-09)
(5.93332e-08 1.54526e-08 -4.42129e-09)
(9.26348e-09 1.45527e-08 -4.3023e-09)
(1.13581e-09 1.3615e-08 -4.20644e-09)
(-6.93468e-09 1.30582e-08 -3.67956e-09)
(-5.54909e-08 1.24772e-08 -3.24894e-09)
(6.15585e-08 1.81668e-08 -6.12144e-09)
(9.88876e-09 1.75688e-08 -5.91886e-09)
(1.98372e-09 1.68014e-08 -5.75238e-09)
(-5.85732e-09 1.5601e-08 -5.15757e-09)
(-5.59614e-08 1.4249e-08 -4.66471e-09)
(6.49165e-08 2.05813e-08 -7.67785e-09)
(1.06143e-08 2.0233e-08 -7.38884e-09)
(3.06149e-09 1.94741e-08 -7.16064e-09)
(-4.42337e-09 1.78099e-08 -6.5094e-09)
(-5.71177e-08 1.57704e-08 -5.97514e-09)
(6.9307e-08 2.22176e-08 -8.49809e-09)
(1.09849e-08 2.21548e-08 -8.17702e-09)
(4.35975e-09 2.1229e-08 -7.90884e-09)
(-2.2163e-09 1.92974e-08 -7.20576e-09)
(-5.89588e-08 1.65821e-08 -6.59757e-09)
(7.37588e-08 1.74038e-08 -7.99372e-09)
(1.0925e-08 1.70258e-08 -7.73444e-09)
(5.86169e-09 1.56698e-08 -7.46708e-09)
(7.75206e-10 1.38368e-08 -6.71639e-09)
(-6.07976e-08 1.11095e-08 -5.9699e-09)
(4.59706e-08 -2.02538e-08 -6.59253e-09)
(1.14485e-08 -5.19678e-08 -5.91175e-09)
(7.48921e-09 -5.19734e-08 -5.74136e-09)
(3.43909e-09 -5.43359e-08 -4.92511e-09)
(-3.14567e-08 -2.53588e-08 -4.82105e-09)
(2.51301e-08 7.46353e-09 -3.28613e-10)
(0 0 0)
(0 0 0)
(0 0 0)
(-2.44739e-08 7.28066e-09 -2.40868e-10)
(5.24328e-08 1.37001e-08 -1.24726e-09)
(6.0593e-09 7.57093e-09 -1.10294e-09)
(1.05811e-10 4.90455e-09 -1.07823e-09)
(-5.82687e-09 7.15779e-09 -9.25934e-10)
(-5.08738e-08 1.28653e-08 -9.30749e-10)
(5.55266e-08 1.27793e-08 -2.41052e-09)
(8.2262e-09 1.05455e-08 -2.18765e-09)
(4.07976e-10 9.03982e-09 -2.10479e-09)
(-7.37528e-09 9.6369e-09 -1.87062e-09)
(-5.32685e-08 1.09892e-08 -1.83174e-09)
(5.72646e-08 1.42063e-08 -3.58324e-09)
(8.87105e-09 1.337e-08 -3.30075e-09)
(9.45901e-10 1.24841e-08 -3.15837e-09)
(-6.93484e-09 1.19749e-08 -2.86722e-09)
(-5.38616e-08 1.145e-08 -2.77322e-09)
(5.93921e-08 1.64863e-08 -4.75222e-09)
(9.41663e-09 1.59626e-08 -4.40108e-09)
(1.72593e-09 1.52475e-08 -4.20321e-09)
(-5.91167e-09 1.40953e-08 -3.86569e-09)
(-5.43642e-08 1.27843e-08 -3.73268e-09)
(6.26259e-08 1.85253e-08 -5.69561e-09)
(1.00594e-08 1.82355e-08 -5.27692e-09)
(2.74261e-09 1.75254e-08 -5.03088e-09)
(-4.51603e-09 1.59087e-08 -4.65314e-09)
(-5.55144e-08 1.39163e-08 -4.4907e-09)
(6.69358e-08 1.9913e-08 -6.03349e-09)
(1.03944e-08 1.98734e-08 -5.58436e-09)
(3.98792e-09 1.90016e-08 -5.30674e-09)
(-2.37848e-09 1.71051e-08 -4.89168e-09)
(-5.73754e-08 1.44604e-08 -4.67797e-09)
(7.14715e-08 1.50582e-08 -5.42825e-09)
(1.03655e-08 1.47456e-08 -5.01376e-09)
(5.44463e-09 1.34919e-08 -4.73661e-09)
(4.91979e-10 1.16355e-08 -4.28669e-09)
(-5.93759e-08 8.92485e-09 -3.97888e-09)
(4.45368e-08 -2.17863e-08 -4.21438e-09)
(1.08522e-08 -5.2541e-08 -3.5359e-09)
(7.03316e-09 -5.23404e-08 -3.32747e-09)
(3.1139e-09 -5.48419e-08 -2.83456e-09)
(-3.09373e-08 -2.67667e-08 -2.9484e-09)
(2.45658e-08 7.28954e-09 -2.24838e-10)
(0 0 0)
(0 0 0)
(0 0 0)
(-2.39456e-08 7.14746e-09 -1.71044e-10)
(5.12303e-08 1.32701e-08 -8.66934e-10)
(5.86702e-09 7.28677e-09 -7.48515e-10)
(7.44037e-11 4.67201e-09 -7.15375e-10)
(-5.70782e-09 6.91276e-09 -6.38232e-10)
(-4.97831e-08 1.25393e-08 -6.72018e-10)
(5.42172e-08 1.21223e-08 -1.68407e-09)
(7.93728e-09 9.96663e-09 -1.49266e-09)
(3.34151e-10 8.50746e-09 -1.41284e-09)
(-7.24479e-09 9.11979e-09 -1.29412e-09)
(-5.21546e-08 1.04714e-08 -1.32521e-09)
(5.58912e-08 1.32287e-08 -2.47254e-09)
(8.5219e-09 1.24504e-08 -2.2294e-09)
(8.24581e-10 1.16072e-08 -2.10648e-09)
(-6.83748e-09 1.11276e-08 -1.95611e-09)
(-5.27739e-08 1.06283e-08 -1.96588e-09)
(5.79458e-08 1.51753e-08 -3.1964e-09)
(9.00739e-09 1.47074e-08 -2.90453e-09)
(1.55712e-09 1.40329e-08 -2.74343e-09)
(-5.8479e-09 1.29146e-08 -2.56463e-09)
(-5.32948e-08 1.16309e-08 -2.55272e-09)
(6.10978e-08 1.69544e-08 -3.71644e-09)
(9.59281e-09 1.6707e-08 -3.38062e-09)
(2.52966e-09 1.6034e-08 -3.18711e-09)
(-4.48241e-09 1.4452e-08 -2.98211e-09)
(-5.44486e-08 1.24947e-08 -2.94934e-09)
(6.53514e-08 1.82067e-08 -3.81754e-09)
(9.90038e-09 1.81867e-08 -3.46136e-09)
(3.73585e-09 1.7354e-08 -3.24676e-09)
(-2.39505e-09 1.54848e-08 -3.01688e-09)
(-5.6328e-08 1.28901e-08 -2.94906e-09)
(6.9925e-08 1.33502e-08 -3.32015e-09)
(9.88478e-09 1.30815e-08 -2.98319e-09)
(5.15875e-09 1.18946e-08 -2.76862e-09)
(3.94773e-10 1.00301e-08 -2.51599e-09)
(-5.84261e-08 7.33685e-09 -2.38826e-09)
(4.3491e-08 -2.3007e-08 -2.45696e-09)
(1.03446e-08 -5.31989e-08 -1.94592e-09)
(6.71808e-09 -5.28785e-08 -1.77272e-09)
(2.98451e-09 -5.54502e-08 -1.49689e-09)
(-3.05245e-08 -2.78947e-08 -1.64383e-09)
(2.42643e-08 7.18529e-09 -1.14353e-10)
(0 0 0)
(0 0 0)
(0 0 0)
(-2.3664e-08 7.06572e-09 -8.88194e-11)
(5.05812e-08 1.30007e-08 -4.42029e-10)
(5.75603e-09 7.10452e-09 -3.81117e-10)
(5.78096e-11 4.52087e-09 -3.61108e-10)
(-5.63594e-09 6.75307e-09 -3.2823e-10)
(-4.91955e-08 1.23284e-08 -3.4927e-10)
(5.34968e-08 1.17009e-08 -8.583e-10)
(7.76477e-09 9.59724e-09 -7.57711e-10)
(2.94103e-10 8.16779e-09 -7.12659e-10)
(-7.15857e-09 8.78662e-09 -6.62211e-10)
(-5.15425e-08 1.01304e-08 -6.86839e-10)
(5.51245e-08 1.26107e-08 -1.25134e-09)
(8.3087e-09 1.1871e-08 -1.12216e-09)
(7.57393e-10 1.1055e-08 -1.0547e-09)
(-6.76397e-09 1.05913e-08 -9.90189e-10)
(-5.21673e-08 1.01024e-08 -1.00798e-09)
(5.7134e-08 1.43594e-08 -1.59571e-09)
(8.75712e-09 1.39254e-08 -1.44138e-09)
(1.46202e-09 1.32762e-08 -1.35454e-09)
(-5.79242e-09 1.21775e-08 -1.27654e-09)
(-5.26969e-08 1.09097e-08 -1.28478e-09)
(6.02402e-08 1.59905e-08 -1.82383e-09)
(9.30962e-09 1.57677e-08 -1.64813e-09)
(2.40802e-09 1.51172e-08 -1.54514e-09)
(-4.4466e-09 1.35564e-08 -1.45412e-09)
(-5.38561e-08 1.16215e-08 -1.45135e-09)
(6.44621e-08 1.71715e-08 -1.83932e-09)
(9.60114e-09 1.71627e-08 -1.65391e-09)
(3.59028e-09 1.63528e-08 -1.54052e-09)
(-2.39067e-09 1.45014e-08 -1.4369e-09)
(-5.57495e-08 1.19382e-08 -1.4159e-09)
(6.90533e-08 1.23152e-08 -1.56448e-09)
(9.59156e-09 1.20692e-08 -1.38799e-09)
(4.9923e-09 1.09187e-08 -1.27457e-09)
(3.51572e-10 9.05394e-09 -1.15968e-09)
(-5.79026e-08 6.37567e-09 -1.10909e-09)
(4.28869e-08 -2.37829e-08 -1.12096e-09)
(1.0037e-08 -5.36788e-08 -8.54019e-10)
(6.5336e-09 -5.3298e-08 -7.59661e-10)
(2.91921e-09 -5.58996e-08 -6.35086e-10)
(-3.02911e-08 -2.86134e-08 -7.23817e-10)
(1.88278e-08 7.7634e-09 0)
(2.05091e-09 2.88225e-09 0)
(-4.2712e-12 1.2517e-09 0)
(-2.0616e-09 2.82119e-09 0)
(-1.84404e-08 7.63196e-09 0)
(3.05021e-08 1.12164e-08 0)
(5.72077e-09 7.04167e-09 0)
(5.26368e-11 4.46829e-09 0)
(-5.61295e-09 6.69758e-09 0)
(-2.97639e-08 1.06374e-08 0)
(3.34068e-08 1.11208e-08 0)
(7.70924e-09 9.47013e-09 0)
(2.81441e-10 8.05075e-09 0)
(-7.13039e-09 8.67141e-09 0)
(-3.21496e-08 9.75399e-09 0)
(3.44947e-08 1.22802e-08 0)
(8.23922e-09 1.16736e-08 0)
(7.35919e-10 1.08668e-08 0)
(-6.73917e-09 1.04081e-08 0)
(-3.22777e-08 1.00957e-08 0)
(3.56885e-08 1.39746e-08 0)
(8.67517e-09 1.36611e-08 0)
(1.43136e-09 1.30204e-08 0)
(-5.77331e-09 1.19283e-08 0)
(-3.2034e-08 1.09691e-08 0)
(3.74738e-08 1.56048e-08 0)
(9.21696e-09 1.54524e-08 0)
(2.36851e-09 1.48093e-08 0)
(-4.4343e-09 1.32557e-08 0)
(-3.19107e-08 1.17918e-08 0)
(3.95886e-08 1.68912e-08 0)
(9.50327e-09 1.68202e-08 0)
(3.54272e-09 1.60177e-08 0)
(-2.38912e-09 1.41725e-08 0)
(-3.17117e-08 1.23065e-08 0)
(4.16137e-08 1.20468e-08 0)
(9.49554e-09 1.17297e-08 0)
(4.93769e-09 1.05906e-08 0)
(3.37232e-10 8.72654e-09 0)
(-3.12004e-08 6.83024e-09 0)
(3.31631e-08 -1.37993e-08 0)
(9.70219e-09 -2.38621e-08 0)
(6.07996e-09 -2.43316e-08 0)
(2.35367e-09 -2.65363e-08 0)
(-2.11197e-08 -1.85871e-08 0)
)
;

boundaryField
{
    interface
    {
        type            calculated;
    }
    symmetry
    {
        type            symmetry;
    }
    bottom
    {
        type            calculated;
    }
}


// ************************************************************************* //
