/*--------------------------------*- C++ -*----------------------------------*\
| =========                 |                                                 |
| \\      /  F ield         | OpenFOAM: The Open Source CFD Toolbox           |
|  \\    /   O peration     | Version:  v1912                                 |
|   \\  /    A nd           | Website:  www.openfoam.com                      |
|    \\/     M anipulation  |                                                 |
\*---------------------------------------------------------------------------*/
FoamFile
{
    version     2.0;
    format      ascii;
    class       pointVectorField;
    location    "0.2/solid";
    object      pointDD;
}
// * * * * * * * * * * * * * * * * * * * * * * * * * * * * * * * * * * * * * //

dimensions      [0 1 0 0 0 0 0];


internalField   nonuniform List<vector> 
405
(
(3.54292e-10 7.23512e-10 3.49141e-10)
(1.91053e-10 4.73162e-10 9.60362e-11)
(1.33848e-13 3.66696e-10 3.14109e-12)
(-1.86351e-10 4.67785e-10 9.27684e-11)
(-3.1402e-10 7.05984e-10 3.46611e-10)
(7.07449e-10 7.60488e-10 8.74501e-10)
(5.12249e-10 6.98892e-10 5.25387e-10)
(4.90286e-12 5.43517e-10 3.2978e-10)
(-4.92375e-10 6.87074e-10 5.22175e-10)
(-6.35816e-10 7.34067e-10 8.75552e-10)
(8.92883e-10 1.46829e-10 1.47756e-09)
(6.51427e-10 2.0135e-10 1.11343e-09)
(1.48542e-11 1.35567e-10 9.05913e-10)
(-6.1065e-10 1.86973e-10 1.11468e-09)
(-8.00045e-10 1.18591e-10 1.48583e-09)
(8.79112e-10 -3.8445e-10 1.95773e-09)
(6.41298e-10 -2.89534e-10 1.59601e-09)
(2.55641e-11 -3.20213e-10 1.38099e-09)
(-5.79434e-10 -3.06746e-10 1.59898e-09)
(-7.66039e-10 -4.16293e-10 1.96964e-09)
(8.53546e-10 -8.57504e-10 2.41864e-09)
(6.17085e-10 -7.8014e-10 2.05269e-09)
(3.65842e-11 -8.209e-10 1.82377e-09)
(-5.3337e-10 -7.99777e-10 2.05655e-09)
(-7.19346e-10 -8.92977e-10 2.43259e-09)
(9.12311e-10 -1.32975e-09 2.91257e-09)
(6.55483e-10 -1.3015e-09 2.53169e-09)
(4.82155e-11 -1.37275e-09 2.28403e-09)
(-5.48607e-10 -1.32324e-09 2.53606e-09)
(-7.55497e-10 -1.36862e-09 2.92791e-09)
(1.15882e-09 -1.91771e-09 3.48685e-09)
(8.35605e-10 -1.92719e-09 3.07405e-09)
(6.05485e-11 -2.00317e-09 2.80803e-09)
(-7.03971e-10 -1.95138e-09 3.07866e-09)
(-9.76893e-10 -1.96057e-09 3.50336e-09)
(1.73976e-09 -3.07383e-09 4.22029e-09)
(1.18479e-09 -3.014e-09 3.85596e-09)
(7.29957e-11 -2.97991e-09 3.59436e-09)
(-1.02714e-09 -3.04e-09 3.85998e-09)
(-1.52529e-09 -3.1199e-09 4.23719e-09)
(2.1691e-09 -3.85398e-09 4.70927e-09)
(1.39895e-09 -3.64788e-09 4.52593e-09)
(8.0829e-11 -3.46081e-09 4.33249e-09)
(-1.2246e-09 -3.66947e-09 4.53409e-09)
(-1.9498e-09 -3.89445e-09 4.72701e-09)
(2.47965e-11 3.23996e-10 1.92336e-10)
(0 0 0)
(0 0 0)
(0 0 0)
(2.12539e-11 3.08345e-10 1.9378e-10)
(1.56922e-10 3.57143e-10 6.85404e-10)
(0 0 0)
(0 0 0)
(0 0 0)
(-5.56231e-11 3.25631e-10 6.92135e-10)
(2.67301e-10 -1.96735e-10 1.23242e-09)
(0 0 0)
(0 0 0)
(0 0 0)
(-1.47778e-10 -2.30216e-10 1.24581e-09)
(2.51012e-10 -6.89955e-10 1.70149e-09)
(0 0 0)
(0 0 0)
(0 0 0)
(-1.12877e-10 -7.27223e-10 1.71943e-09)
(2.31277e-10 -1.14016e-09 2.14832e-09)
(0 0 0)
(0 0 0)
(0 0 0)
(-7.31803e-11 -1.18138e-09 2.16914e-09)
(2.87719e-10 -1.57767e-09 2.61908e-09)
(0 0 0)
(0 0 0)
(0 0 0)
(-1.07752e-10 -1.62283e-09 2.64191e-09)
(5.11503e-10 -2.07447e-09 3.14278e-09)
(0 0 0)
(0 0 0)
(0 0 0)
(-3.06247e-10 -2.12424e-09 3.16716e-09)
(1.13365e-09 -3.01758e-09 3.65799e-09)
(0 0 0)
(0 0 0)
(0 0 0)
(-8.90522e-10 -3.07095e-09 3.68308e-09)
(1.74533e-09 -3.5809e-09 3.95644e-09)
(1.19191e-09 -3.22196e-09 3.97349e-09)
(8.01415e-11 -2.96708e-09 3.93344e-09)
(-1.01991e-09 -3.23962e-09 3.98605e-09)
(-1.51988e-09 -3.62215e-09 3.97843e-09)
(-1.87912e-10 6.99901e-11 4.54103e-11)
(0 0 0)
(0 0 0)
(0 0 0)
(2.27343e-10 5.66877e-11 4.71038e-11)
(-3.41824e-10 -9.18882e-11 3.09147e-10)
(0 0 0)
(0 0 0)
(0 0 0)
(4.27599e-10 -1.1965e-10 3.15272e-10)
(-3.16749e-10 -5.4772e-10 7.60471e-10)
(0 0 0)
(0 0 0)
(0 0 0)
(4.17263e-10 -5.78983e-10 7.71537e-10)
(-3.44742e-10 -9.83627e-10 1.2115e-09)
(0 0 0)
(0 0 0)
(0 0 0)
(4.61902e-10 -1.01956e-09 1.2264e-09)
(-3.6543e-10 -1.39753e-09 1.64074e-09)
(0 0 0)
(0 0 0)
(0 0 0)
(5.01375e-10 -1.43793e-09 1.65843e-09)
(-3.13512e-10 -1.77945e-09 2.06263e-09)
(0 0 0)
(0 0 0)
(0 0 0)
(4.70817e-10 -1.82422e-09 2.08232e-09)
(-9.69313e-11 -2.14938e-09 2.45812e-09)
(0 0 0)
(0 0 0)
(0 0 0)
(2.79575e-10 -2.19915e-09 2.47912e-09)
(5.1823e-10 -2.8278e-09 2.7106e-09)
(0 0 0)
(0 0 0)
(0 0 0)
(-2.97623e-10 -2.88126e-09 2.73207e-09)
(1.17114e-09 -3.17249e-09 2.79857e-09)
(8.49577e-10 -2.76573e-09 2.8871e-09)
(7.52456e-11 -2.50692e-09 2.95817e-09)
(-6.88542e-10 -2.78434e-09 2.89794e-09)
(-9.63037e-10 -3.21409e-09 2.81733e-09)
(-2.57939e-10 -2.44766e-11 4.96295e-11)
(0 0 0)
(0 0 0)
(0 0 0)
(2.95499e-10 -3.65124e-11 5.08835e-11)
(-5.24376e-10 -2.77012e-10 2.78266e-10)
(0 0 0)
(0 0 0)
(0 0 0)
(6.05248e-10 -3.02165e-10 2.8278e-10)
(-5.49616e-10 -7.22895e-10 6.60017e-10)
(0 0 0)
(0 0 0)
(0 0 0)
(6.43175e-10 -7.51688e-10 6.68188e-10)
(-5.82301e-10 -1.13962e-09 1.06039e-09)
(0 0 0)
(0 0 0)
(0 0 0)
(6.90956e-10 -1.17355e-09 1.07156e-09)
(-5.95904e-10 -1.51354e-09 1.44397e-09)
(0 0 0)
(0 0 0)
(0 0 0)
(7.2229e-10 -1.55244e-09 1.45754e-09)
(-5.36297e-10 -1.82192e-09 1.79568e-09)
(0 0 0)
(0 0 0)
(0 0 0)
(6.83576e-10 -1.86565e-09 1.81106e-09)
(-3.12647e-10 -2.08145e-09 2.07668e-09)
(0 0 0)
(0 0 0)
(0 0 0)
(4.85419e-10 -2.13062e-09 2.09327e-09)
(2.95485e-10 -2.63172e-09 2.20474e-09)
(0 0 0)
(0 0 0)
(0 0 0)
(-8.44038e-11 -2.68472e-09 2.22183e-09)
(9.25561e-10 -2.92627e-09 2.2081e-09)
(6.71869e-10 -2.5521e-09 2.26426e-09)
(7.06675e-11 -2.3118e-09 2.33209e-09)
(-5.20106e-10 -2.57087e-09 2.27297e-09)
(-7.26855e-10 -2.96764e-09 2.22317e-09)
(-2.83359e-10 -5.34506e-11 5.68649e-11)
(0 0 0)
(0 0 0)
(0 0 0)
(3.20373e-10 -6.47335e-11 5.7898e-11)
(-5.90113e-10 -3.37276e-10 2.63669e-10)
(0 0 0)
(0 0 0)
(0 0 0)
(6.69117e-10 -3.60671e-10 2.67294e-10)
(-6.3296e-10 -7.86332e-10 5.7811e-10)
(0 0 0)
(0 0 0)
(0 0 0)
(7.23202e-10 -8.13103e-10 5.84542e-10)
(-6.65325e-10 -1.19489e-09 9.04718e-10)
(0 0 0)
(0 0 0)
(0 0 0)
(7.69431e-10 -1.22692e-09 9.13447e-10)
(-6.71551e-10 -1.5381e-09 1.21536e-09)
(0 0 0)
(0 0 0)
(0 0 0)
(7.9245e-10 -1.57542e-09 1.22599e-09)
(-6.03717e-10 -1.79423e-09 1.48538e-09)
(0 0 0)
(0 0 0)
(0 0 0)
(7.44986e-10 -1.83681e-09 1.4975e-09)
(-3.74454e-10 -1.99564e-09 1.6798e-09)
(0 0 0)
(0 0 0)
(0 0 0)
(5.41177e-10 -2.04416e-09 1.69294e-09)
(2.27475e-10 -2.49875e-09 1.75528e-09)
(0 0 0)
(0 0 0)
(0 0 0)
(-2.22286e-11 -2.55155e-09 1.76895e-09)
(8.53511e-10 -2.77098e-09 1.73716e-09)
(6.2506e-10 -2.4119e-09 1.75135e-09)
(6.69973e-11 -2.18945e-09 1.78805e-09)
(-4.80554e-10 -2.43079e-09 1.75856e-09)
(-6.61253e-10 -2.81242e-09 1.74945e-09)
(-2.91948e-10 -6.04231e-11 5.04211e-11)
(0 0 0)
(0 0 0)
(0 0 0)
(3.28972e-10 -7.11934e-11 5.12557e-11)
(-6.08514e-10 -3.50069e-10 2.17647e-10)
(0 0 0)
(0 0 0)
(0 0 0)
(6.87006e-10 -3.72231e-10 2.20504e-10)
(-6.51552e-10 -7.9649e-10 4.57932e-10)
(0 0 0)
(0 0 0)
(0 0 0)
(7.4025e-10 -8.21753e-10 4.62896e-10)
(-6.80217e-10 -1.19686e-09 7.02046e-10)
(0 0 0)
(0 0 0)
(0 0 0)
(7.81836e-10 -1.22737e-09 7.08696e-10)
(-6.80534e-10 -1.52057e-09 9.3068e-10)
(0 0 0)
(0 0 0)
(0 0 0)
(7.9817e-10 -1.55656e-09 9.3873e-10)
(-6.06915e-10 -1.7498e-09 1.12261e-09)
(0 0 0)
(0 0 0)
(0 0 0)
(7.44424e-10 -1.79143e-09 1.13177e-09)
(-3.74752e-10 -1.9289e-09 1.25383e-09)
(0 0 0)
(0 0 0)
(0 0 0)
(5.37573e-10 -1.97698e-09 1.26377e-09)
(2.22155e-10 -2.41665e-09 1.30334e-09)
(0 0 0)
(0 0 0)
(0 0 0)
(-2.06972e-11 -2.4696e-09 1.31375e-09)
(8.49953e-10 -2.67424e-09 1.28636e-09)
(6.29425e-10 -2.31961e-09 1.28053e-09)
(6.42779e-11 -2.10913e-09 1.29533e-09)
(-4.90301e-10 -2.3387e-09 1.28622e-09)
(-6.62207e-10 -2.71608e-09 1.2959e-09)
(-2.95475e-10 -6.11202e-11 3.62264e-11)
(0 0 0)
(0 0 0)
(0 0 0)
(3.32689e-10 -7.15436e-11 3.68192e-11)
(-6.13432e-10 -3.4826e-10 1.51811e-10)
(0 0 0)
(0 0 0)
(0 0 0)
(6.91947e-10 -3.69587e-10 1.53809e-10)
(-6.52269e-10 -7.88195e-10 3.13019e-10)
(0 0 0)
(0 0 0)
(0 0 0)
(7.4028e-10 -8.12422e-10 3.1644e-10)
(-6.76785e-10 -1.18048e-09 4.73814e-10)
(0 0 0)
(0 0 0)
(0 0 0)
(7.77043e-10 -1.20991e-09 4.78349e-10)
(-6.7303e-10 -1.49319e-09 6.22238e-10)
(0 0 0)
(0 0 0)
(0 0 0)
(7.8873e-10 -1.52825e-09 6.2769e-10)
(-5.96155e-10 -1.7114e-09 7.44381e-10)
(0 0 0)
(0 0 0)
(0 0 0)
(7.31333e-10 -1.75237e-09 7.50559e-10)
(-3.62981e-10 -1.88445e-09 8.26276e-10)
(0 0 0)
(0 0 0)
(0 0 0)
(5.23327e-10 -1.93231e-09 8.32971e-10)
(2.30394e-10 -2.36784e-09 8.57902e-10)
(0 0 0)
(0 0 0)
(0 0 0)
(-3.13306e-11 -2.42112e-09 8.64945e-10)
(8.60561e-10 -2.61554e-09 8.47414e-10)
(6.42298e-10 -2.26039e-09 8.38231e-10)
(6.24196e-11 -2.05615e-09 8.42936e-10)
(-5.06864e-10 -2.27972e-09 8.42193e-10)
(-6.75805e-10 -2.65789e-09 8.53966e-10)
(-2.9733e-10 -6.06479e-11 1.87089e-11)
(0 0 0)
(0 0 0)
(0 0 0)
(3.34719e-10 -7.08679e-11 1.90171e-11)
(-6.15497e-10 -3.44422e-10 7.73744e-11)
(0 0 0)
(0 0 0)
(0 0 0)
(6.9415e-10 -3.65262e-10 7.84051e-11)
(-6.5118e-10 -7.78579e-10 1.57989e-10)
(0 0 0)
(0 0 0)
(0 0 0)
(7.3891e-10 -8.02202e-10 1.59739e-10)
(-6.729e-10 -1.16509e-09 2.37505e-10)
(0 0 0)
(0 0 0)
(0 0 0)
(7.72473e-10 -1.19389e-09 2.3981e-10)
(-6.66827e-10 -1.47238e-09 3.10222e-10)
(0 0 0)
(0 0 0)
(0 0 0)
(7.81488e-10 -1.50689e-09 3.1298e-10)
(-5.88405e-10 -1.68688e-09 3.6949e-10)
(0 0 0)
(0 0 0)
(0 0 0)
(7.22294e-10 -1.72748e-09 3.72605e-10)
(-3.55038e-10 -1.85925e-09 4.09024e-10)
(0 0 0)
(0 0 0)
(0 0 0)
(5.14001e-10 -1.90703e-09 4.12395e-10)
(2.36263e-10 -2.3418e-09 4.24691e-10)
(0 0 0)
(0 0 0)
(0 0 0)
(-3.85256e-11 -2.39537e-09 4.28244e-10)
(8.68059e-10 -2.58385e-09 4.20091e-10)
(6.50685e-10 -2.22698e-09 4.14578e-10)
(6.13447e-11 -2.02536e-09 4.15723e-10)
(-5.17391e-10 -2.2465e-09 4.16612e-10)
(-6.85001e-10 -2.62661e-09 4.23426e-10)
(-2.07264e-10 -7.29352e-11 0)
(-1.749e-11 -6.45316e-11 0)
(-5.36281e-13 -8.06259e-11 0)
(1.93429e-11 -6.83766e-11 0)
(2.3542e-10 -8.40842e-11 0)
(-3.30933e-10 -3.32615e-10 0)
(-5.25386e-11 -3.45438e-10 0)
(7.33371e-13 -3.70272e-10 0)
(6.04375e-11 -3.5458e-10 0)
(3.77456e-10 -3.5029e-10 0)
(-3.66247e-10 -7.67009e-10 0)
(-8.1613e-11 -7.71191e-10 0)
(5.16145e-12 -7.86069e-10 0)
(9.87965e-11 -7.83222e-10 0)
(4.22097e-10 -7.87802e-10 0)
(-3.89623e-10 -1.15604e-09 0)
(-9.99168e-11 -1.16737e-09 0)
(1.10101e-11 -1.1856e-09 0)
(1.28622e-10 -1.1822e-09 0)
(4.57002e-10 -1.18142e-09 0)
(-3.85851e-10 -1.47487e-09 0)
(-9.90641e-11 -1.51883e-09 0)
(1.81857e-11 -1.55724e-09 0)
(1.42174e-10 -1.53641e-09 0)
(4.67943e-10 -1.50516e-09 0)
(-3.06768e-10 -1.7208e-09 0)
(-4.20994e-11 -1.82806e-09 0)
(2.68775e-11 -1.89826e-09 0)
(1.02816e-10 -1.84858e-09 0)
(4.07347e-10 -1.75637e-09 0)
(-6.0712e-11 -1.94614e-09 0)
(1.38198e-10 -2.11581e-09 0)
(3.70894e-11 -2.19651e-09 0)
(-5.64829e-11 -2.13986e-09 0)
(1.84599e-10 -1.98798e-09 0)
(4.85486e-10 -2.43968e-09 0)
(4.64515e-10 -2.52767e-09 0)
(4.8326e-11 -2.51633e-09 0)
(-3.58595e-10 -2.55454e-09 0)
(-3.29232e-10 -2.48663e-09 0)
(9.28524e-10 -2.68241e-09 0)
(6.56588e-10 -2.50625e-09 0)
(5.75441e-11 -2.35763e-09 0)
(-5.30909e-10 -2.5299e-09 0)
(-7.63737e-10 -2.72487e-09 0)
)
;

boundaryField
{
    interface
    {
        type            calculated;
    }
    symmetry
    {
        type            symmetry;
    }
    bottom
    {
        type            calculated;
    }
}


// ************************************************************************* //
