/*--------------------------------*- C++ -*----------------------------------*\
| =========                 |                                                 |
| \\      /  F ield         | OpenFOAM: The Open Source CFD Toolbox           |
|  \\    /   O peration     | Version:  v1912                                 |
|   \\  /    A nd           | Website:  www.openfoam.com                      |
|    \\/     M anipulation  |                                                 |
\*---------------------------------------------------------------------------*/
FoamFile
{
    version     2.0;
    format      ascii;
    class       volScalarField;
    location    "0.2/solid";
    object      T;
}
// * * * * * * * * * * * * * * * * * * * * * * * * * * * * * * * * * * * * * //

dimensions      [0 0 0 1 0 0 0];


internalField   nonuniform List<scalar> 
256
(
292.053
292.521
292.522
292.052
291.964
292.474
292.475
291.962
291.956
292.47
292.471
291.954
291.946
292.465
292.467
291.945
291.93
292.457
292.459
291.929
291.898
292.441
292.442
291.897
291.811
292.382
292.383
291.809
291.128
291.755
291.759
291.131
292.56
292.958
292.957
292.554
292.516
292.952
292.952
292.509
292.512
292.952
292.951
292.505
292.507
292.952
292.951
292.5
292.499
292.951
292.95
292.492
292.482
292.949
292.949
292.475
292.423
292.921
292.921
292.416
291.81
292.382
292.383
291.809
292.611
292.98
292.979
292.605
292.572
292.977
292.976
292.564
292.568
292.977
292.976
292.561
292.564
292.977
292.976
292.557
292.555
292.976
292.976
292.549
292.539
292.975
292.974
292.532
292.482
292.949
292.949
292.475
291.898
292.441
292.442
291.897
292.627
292.981
292.98
292.62
292.589
292.978
292.978
292.581
292.585
292.978
292.977
292.577
292.58
292.978
292.977
292.573
292.572
292.978
292.977
292.565
292.555
292.976
292.976
292.549
292.499
292.951
292.95
292.492
291.93
292.457
292.459
291.929
292.635
292.981
292.98
292.628
292.597
292.979
292.978
292.589
292.593
292.978
292.978
292.585
292.589
292.978
292.978
292.581
292.58
292.978
292.977
292.573
292.564
292.977
292.976
292.557
292.507
292.952
292.951
292.5
291.946
292.465
292.467
291.945
292.639
292.981
292.981
292.632
292.602
292.979
292.978
292.593
292.598
292.979
292.978
292.59
292.593
292.978
292.978
292.585
292.585
292.978
292.977
292.577
292.568
292.977
292.976
292.561
292.512
292.952
292.951
292.505
291.956
292.47
292.471
291.954
292.642
292.981
292.981
292.634
292.604
292.979
292.978
292.596
292.6
292.979
292.978
292.592
292.596
292.978
292.978
292.588
292.587
292.978
292.977
292.58
292.57
292.977
292.976
292.563
292.514
292.952
292.951
292.507
291.961
292.472
292.474
291.959
292.643
292.981
292.981
292.635
292.605
292.979
292.978
292.597
292.601
292.979
292.978
292.593
292.597
292.978
292.978
292.589
292.588
292.978
292.978
292.581
292.571
292.977
292.976
292.564
292.515
292.952
292.951
292.508
291.963
292.473
292.475
291.961
)
;

boundaryField
{
    interface
    {
        type            fixedValue;
        value           nonuniform List<scalar> 
192
(
290.019
289.948
289.911
289.852
289.758
289.598
289.294
288.413
290.795
290.752
290.72
290.67
290.587
290.442
290.156
289.294
291.07
291.031
291.001
290.952
290.871
290.727
290.442
289.598
291.21
291.173
291.143
291.094
291.013
290.87
290.586
289.757
291.291
291.254
291.224
291.175
291.094
290.951
290.668
289.85
291.338
291.301
291.271
291.222
291.141
290.998
290.717
289.907
291.365
291.328
291.298
291.249
291.167
291.025
290.745
289.939
291.377
291.34
291.31
291.261
291.179
291.037
290.757
289.954
289.876
289.806
289.767
289.709
289.615
289.456
289.148
288.252
290.512
290.468
290.436
290.387
290.306
290.163
289.873
288.983
290.53
290.487
290.456
290.408
290.326
290.184
289.893
289.005
289.931
289.865
289.829
289.772
289.679
289.519
289.211
288.318
290.067
289.999
289.963
289.906
289.812
289.652
289.343
288.453
290.846
290.805
290.775
290.726
290.645
290.501
290.211
289.343
291.122
291.085
291.057
291.01
290.93
290.788
290.501
289.652
291.262
291.226
291.198
291.151
291.072
290.93
290.645
289.812
291.342
291.306
291.278
291.231
291.151
291.01
290.726
289.906
291.388
291.353
291.324
291.277
291.197
291.056
290.774
289.963
291.414
291.379
291.35
291.303
291.223
291.082
290.802
289.995
291.426
291.391
291.362
291.315
291.235
291.094
290.814
290.01
288.252
289.147
289.455
289.614
289.707
289.763
289.796
289.81
288.983
289.872
290.162
290.305
290.385
290.433
290.46
290.473
289.005
289.893
290.183
290.326
290.407
290.454
290.481
290.494
288.318
289.211
289.519
289.679
289.772
289.828
289.86
289.875
)
;
    }
    symmetry
    {
        type            symmetry;
    }
    bottom
    {
        type            fixedValue;
        value           uniform 293;
    }
}


// ************************************************************************* //
