/*--------------------------------*- C++ -*----------------------------------*\
| =========                 |                                                 |
| \\      /  F ield         | OpenFOAM: The Open Source CFD Toolbox           |
|  \\    /   O peration     | Version:  v1912                                 |
|   \\  /    A nd           | Website:  www.openfoam.com                      |
|    \\/     M anipulation  |                                                 |
\*---------------------------------------------------------------------------*/
FoamFile
{
    version     2.0;
    format      ascii;
    class       volScalarField;
    location    "0.87/solid";
    object      epsilonEq;
}
// * * * * * * * * * * * * * * * * * * * * * * * * * * * * * * * * * * * * * //

dimensions      [0 0 0 0 0 0 0];


internalField   nonuniform List<scalar> 
256
(
2.9697e-06
2.05908e-06
2.02284e-06
2.80962e-06
1.66113e-06
1.37256e-06
1.34689e-06
1.54459e-06
1.61488e-06
1.25432e-06
1.22989e-06
1.49747e-06
1.68565e-06
1.23358e-06
1.2094e-06
1.56553e-06
1.73236e-06
1.24068e-06
1.21658e-06
1.61021e-06
1.69182e-06
1.22852e-06
1.20468e-06
1.56889e-06
1.31899e-06
1.0775e-06
1.05844e-06
1.20663e-06
2.95753e-07
1.21773e-06
1.20774e-06
3.01022e-07
1.71869e-06
4.61056e-07
4.45563e-07
1.55782e-06
1.22063e-06
4.53459e-07
4.40433e-07
1.08e-06
1.17231e-06
3.41624e-07
3.3177e-07
1.03247e-06
1.17481e-06
2.29024e-07
2.23352e-07
1.03274e-06
1.19746e-06
1.91109e-07
1.89907e-07
1.05245e-06
1.2219e-06
2.20725e-07
2.19491e-07
1.07419e-06
1.12667e-06
2.23248e-07
2.26372e-07
9.81213e-07
1.32003e-06
1.08083e-06
1.06133e-06
1.20629e-06
1.39917e-06
2.91067e-07
2.8461e-07
1.24041e-06
1.15714e-06
2.72728e-07
2.62808e-07
1.01523e-06
1.12946e-06
1.94924e-07
1.87494e-07
9.86623e-07
1.13256e-06
1.43731e-07
1.43964e-07
9.86898e-07
1.16309e-06
1.57641e-07
1.62653e-07
1.01399e-06
1.21568e-06
1.74943e-07
1.77044e-07
1.06316e-06
1.21989e-06
2.17359e-07
2.16517e-07
1.07054e-06
1.69608e-06
1.2351e-06
1.21066e-06
1.57068e-06
1.23907e-06
2.75745e-07
2.74279e-07
1.08617e-06
1.08136e-06
2.61418e-07
2.5828e-07
9.46617e-07
1.0599e-06
2.06839e-07
2.06643e-07
9.22321e-07
1.06245e-06
1.85868e-07
1.91611e-07
9.20664e-07
1.09647e-06
1.9082e-07
1.99414e-07
9.5032e-07
1.15817e-06
1.71588e-07
1.77872e-07
1.0074e-06
1.19176e-06
1.78025e-07
1.79073e-07
1.04325e-06
1.74914e-06
1.25337e-06
1.22847e-06
1.62302e-06
1.14721e-06
2.39606e-07
2.3988e-07
9.97477e-07
1.01256e-06
2.41085e-07
2.40482e-07
8.81566e-07
9.98044e-07
2.01496e-07
2.03372e-07
8.63475e-07
1.00504e-06
1.8212e-07
1.88925e-07
8.65485e-07
1.04557e-06
1.78049e-07
1.8727e-07
9.01275e-07
1.1145e-06
1.44379e-07
1.51125e-07
9.65037e-07
1.16224e-06
1.69044e-07
1.68634e-07
1.01462e-06
1.73443e-06
1.24821e-06
1.22304e-06
1.60829e-06
1.09492e-06
2.04393e-07
2.05305e-07
9.46492e-07
9.64961e-07
2.10807e-07
2.10734e-07
8.35041e-07
9.55725e-07
1.73233e-07
1.75338e-07
8.21918e-07
9.68624e-07
1.48042e-07
1.55276e-07
8.29614e-07
1.01584e-06
1.37887e-07
1.47667e-07
8.72101e-07
1.09105e-06
1.01793e-07
1.07817e-07
9.42119e-07
1.14876e-06
1.8241e-07
1.79411e-07
1.00182e-06
1.71882e-06
1.24348e-06
1.21799e-06
1.59249e-06
1.06624e-06
1.76197e-07
1.77344e-07
9.1824e-07
9.36484e-07
1.82183e-07
1.82033e-07
8.06568e-07
9.30408e-07
1.39756e-07
1.41753e-07
7.9645e-07
9.47856e-07
1.06599e-07
1.14984e-07
8.08704e-07
9.99879e-07
9.36809e-08
1.05316e-07
8.56137e-07
1.07962e-06
6.13067e-08
6.67126e-08
9.3085e-07
1.14422e-06
1.98246e-07
1.93652e-07
9.97761e-07
1.71085e-06
1.24083e-06
1.21512e-06
1.58433e-06
1.05343e-06
1.59698e-07
1.60929e-07
9.05508e-07
9.23276e-07
1.64455e-07
1.64166e-07
7.93187e-07
9.18678e-07
1.16528e-07
1.18493e-07
7.84486e-07
9.38469e-07
7.50711e-08
8.55767e-08
7.99128e-07
9.92904e-07
6.05197e-08
7.58036e-08
8.49074e-07
1.07496e-06
2.99564e-08
3.62678e-08
9.26216e-07
1.14307e-06
2.07074e-07
2.01823e-07
9.96854e-07
1.708e-06
1.23968e-06
1.21386e-06
1.58139e-06
)
;

boundaryField
{
    interface
    {
        type            calculated;
        value           nonuniform List<scalar> 
192
(
3.71435e-06
2.28165e-06
2.24694e-06
2.34958e-06
2.42809e-06
2.41673e-06
2.07627e-06
1.15291e-06
2.70274e-06
2.05185e-06
2.01304e-06
2.06101e-06
2.13001e-06
2.19039e-06
2.11047e-06
2.07823e-06
2.33557e-06
1.97787e-06
1.96779e-06
2.0155e-06
2.09294e-06
2.18386e-06
2.19198e-06
2.42403e-06
2.11039e-06
1.85359e-06
1.858e-06
1.90746e-06
1.98979e-06
2.09332e-06
2.13457e-06
2.4516e-06
1.97377e-06
1.74648e-06
1.75998e-06
1.8144e-06
1.903e-06
2.01489e-06
2.0725e-06
2.41315e-06
1.89431e-06
1.6752e-06
1.69397e-06
1.75363e-06
1.84797e-06
1.96588e-06
2.03317e-06
2.37992e-06
1.85066e-06
1.63387e-06
1.65548e-06
1.7189e-06
1.81722e-06
1.93899e-06
2.01205e-06
2.36085e-06
1.83126e-06
1.61515e-06
1.63803e-06
1.70334e-06
1.80362e-06
1.92724e-06
2.00303e-06
2.35273e-06
3.75013e-06
2.3161e-06
2.28342e-06
2.38929e-06
2.46964e-06
2.45653e-06
2.1108e-06
1.17819e-06
3.09602e-06
2.23986e-06
2.13319e-06
2.15905e-06
2.21167e-06
2.23643e-06
2.10425e-06
2.01436e-06
3.03932e-06
2.19566e-06
2.08905e-06
2.11405e-06
2.16597e-06
2.19029e-06
2.06105e-06
1.98566e-06
3.56294e-06
2.18239e-06
2.14757e-06
2.24928e-06
2.32708e-06
2.31357e-06
1.98177e-06
1.15463e-06
3.46015e-06
2.06231e-06
2.02358e-06
2.12087e-06
2.19458e-06
2.17883e-06
1.83873e-06
9.45965e-07
2.42722e-06
1.799e-06
1.758e-06
1.80053e-06
1.86359e-06
1.91821e-06
1.83692e-06
1.83882e-06
2.06565e-06
1.72749e-06
1.71424e-06
1.75624e-06
1.82714e-06
1.91101e-06
1.91711e-06
2.18206e-06
1.84844e-06
1.61143e-06
1.61145e-06
1.65432e-06
1.7293e-06
1.82451e-06
1.86219e-06
2.21125e-06
1.71676e-06
1.50931e-06
1.51794e-06
1.56527e-06
1.6461e-06
1.74896e-06
1.80213e-06
2.17398e-06
1.63998e-06
1.44037e-06
1.45408e-06
1.50646e-06
1.5929e-06
1.70149e-06
1.76408e-06
2.14134e-06
1.5977e-06
1.40005e-06
1.4165e-06
1.47262e-06
1.563e-06
1.67537e-06
1.74372e-06
2.12258e-06
1.57887e-06
1.3817e-06
1.39937e-06
1.45738e-06
1.54972e-06
1.66394e-06
1.73505e-06
2.11459e-06
1.18234e-06
2.11477e-06
2.46538e-06
2.49531e-06
2.4568e-06
2.42257e-06
2.40266e-06
2.39413e-06
2.01719e-06
2.11051e-06
2.24871e-06
2.23591e-06
2.19835e-06
2.1685e-06
2.14971e-06
2.14082e-06
1.98807e-06
2.06654e-06
2.20143e-06
2.18855e-06
2.15092e-06
2.12093e-06
2.10201e-06
2.09306e-06
1.15681e-06
1.98355e-06
2.31902e-06
2.34747e-06
2.30863e-06
2.27401e-06
2.25377e-06
2.24506e-06
)
;
    }
    symmetry
    {
        type            symmetry;
    }
    bottom
    {
        type            calculated;
        value           nonuniform List<scalar> 
32
(
4.30441e-06
2.27066e-06
1.72873e-06
1.51437e-06
1.40689e-06
1.34847e-06
1.31706e-06
1.30316e-06
2.72458e-06
5.85153e-07
2.79364e-07
2.61807e-07
2.29423e-07
1.96221e-07
1.69191e-07
1.53235e-07
2.6791e-06
5.63393e-07
2.63545e-07
2.50752e-07
2.18818e-07
1.84739e-07
1.56214e-07
1.38945e-07
4.10033e-06
2.08901e-06
1.54962e-06
1.34017e-06
1.23606e-06
1.17951e-06
1.14899e-06
1.13543e-06
)
;
    }
}


// ************************************************************************* //
