/*--------------------------------*- C++ -*----------------------------------*\
| =========                 |                                                 |
| \\      /  F ield         | OpenFOAM: The Open Source CFD Toolbox           |
|  \\    /   O peration     | Version:  v1912                                 |
|   \\  /    A nd           | Website:  www.openfoam.com                      |
|    \\/     M anipulation  |                                                 |
\*---------------------------------------------------------------------------*/
FoamFile
{
    version     2.0;
    format      ascii;
    class       pointVectorField;
    location    "0.87/solid";
    object      pointDD;
}
// * * * * * * * * * * * * * * * * * * * * * * * * * * * * * * * * * * * * * //

dimensions      [0 1 0 0 0 0 0];


internalField   nonuniform List<vector> 
405
(
(1.45781e-10 2.53184e-10 1.64375e-10)
(6.02933e-11 1.88359e-10 1.2982e-10)
(-6.28545e-12 1.6649e-10 1.21264e-10)
(-6.74974e-11 1.75196e-10 1.11638e-10)
(-1.25959e-10 2.33532e-10 1.3627e-10)
(3.07166e-10 3.34245e-10 4.13545e-10)
(1.76343e-10 3.39039e-10 4.28257e-10)
(-2.04499e-11 2.98601e-10 4.07347e-10)
(-2.04183e-10 3.21098e-10 3.83992e-10)
(-2.86607e-10 3.17879e-10 3.56756e-10)
(4.17015e-10 1.90334e-10 7.04701e-10)
(2.43157e-10 2.14584e-10 7.19586e-10)
(-3.61327e-11 1.88196e-10 6.90492e-10)
(-2.99809e-10 2.13435e-10 6.61903e-10)
(-4.19207e-10 2.00078e-10 6.23873e-10)
(4.34627e-10 -7.76503e-12 9.33638e-10)
(2.46943e-10 3.25383e-11 9.44553e-10)
(-5.34068e-11 2.32665e-11 9.06542e-10)
(-3.37811e-10 4.69159e-11 8.77223e-10)
(-4.67817e-10 2.62529e-11 8.36511e-10)
(4.27446e-10 -2.07972e-10 1.13899e-09)
(2.32205e-10 -1.65047e-10 1.144e-09)
(-7.44548e-11 -1.66112e-10 1.09712e-09)
(-3.64906e-10 -1.37138e-10 1.06905e-09)
(-4.99727e-10 -1.52181e-10 1.02916e-09)
(4.37048e-10 -4.28243e-10 1.34509e-09)
(2.28864e-10 -3.90908e-10 1.34253e-09)
(-9.99791e-11 -3.88299e-10 1.28788e-09)
(-4.12245e-10 -3.50259e-10 1.26084e-09)
(-5.57326e-10 -3.51401e-10 1.22401e-09)
(4.8805e-10 -7.29156e-10 1.56022e-09)
(2.5355e-10 -6.96184e-10 1.55294e-09)
(-1.30651e-10 -6.84454e-10 1.49538e-09)
(-4.97523e-10 -6.41793e-10 1.46482e-09)
(-6.65641e-10 -6.29613e-10 1.42845e-09)
(5.62045e-10 -1.15588e-09 1.7496e-09)
(2.93711e-10 -1.12283e-09 1.74664e-09)
(-1.67253e-10 -1.0937e-09 1.69609e-09)
(-6.09085e-10 -1.04921e-09 1.65251e-09)
(-8.06168e-10 -1.02588e-09 1.60821e-09)
(5.8791e-10 -1.42058e-09 1.83588e-09)
(3.11844e-10 -1.40179e-09 1.83252e-09)
(-1.88476e-10 -1.35732e-09 1.79348e-09)
(-6.68534e-10 -1.30511e-09 1.74638e-09)
(-8.87482e-10 -1.26758e-09 1.70108e-09)
(9.91483e-11 1.29903e-10 7.68383e-11)
(0 0 0)
(0 0 0)
(0 0 0)
(-6.67673e-11 1.21081e-10 6.59086e-11)
(2.75814e-10 2.01285e-10 2.87624e-10)
(0 0 0)
(0 0 0)
(0 0 0)
(-2.15311e-10 1.96304e-10 2.51211e-10)
(3.72158e-10 4.68618e-11 5.35086e-10)
(0 0 0)
(0 0 0)
(0 0 0)
(-3.25686e-10 6.72626e-11 4.74423e-10)
(3.87544e-10 -1.43612e-10 7.48538e-10)
(0 0 0)
(0 0 0)
(0 0 0)
(-3.65177e-10 -9.87899e-11 6.70939e-10)
(3.81272e-10 -3.31817e-10 9.44547e-10)
(0 0 0)
(0 0 0)
(0 0 0)
(-3.92214e-10 -2.63925e-10 8.53556e-10)
(3.92551e-10 -5.32451e-10 1.13958e-09)
(0 0 0)
(0 0 0)
(0 0 0)
(-4.46259e-10 -4.4162e-10 1.03674e-09)
(4.5033e-10 -7.98255e-10 1.33632e-09)
(0 0 0)
(0 0 0)
(0 0 0)
(-5.5605e-10 -6.8297e-10 1.22246e-09)
(5.40221e-10 -1.18093e-09 1.50107e-09)
(0 0 0)
(0 0 0)
(0 0 0)
(-7.06396e-10 -1.03452e-09 1.37812e-09)
(5.57269e-10 -1.42819e-09 1.58249e-09)
(2.87196e-10 -1.4212e-09 1.58894e-09)
(-1.73523e-10 -1.36467e-09 1.56499e-09)
(-6.15218e-10 -1.31533e-09 1.52518e-09)
(-8.10972e-10 -1.26613e-09 1.47132e-09)
(6.17957e-11 6.44404e-11 2.90939e-11)
(0 0 0)
(0 0 0)
(0 0 0)
(-2.80653e-11 5.51525e-11 2.34125e-11)
(1.7937e-10 5.94796e-11 1.45513e-10)
(0 0 0)
(0 0 0)
(0 0 0)
(-1.11214e-10 5.29822e-11 1.2404e-10)
(2.47716e-10 -9.98204e-11 3.28062e-10)
(0 0 0)
(0 0 0)
(0 0 0)
(-1.84513e-10 -8.22147e-11 2.88482e-10)
(2.55413e-10 -2.76271e-10 5.14382e-10)
(0 0 0)
(0 0 0)
(0 0 0)
(-2.08746e-10 -2.35292e-10 4.60363e-10)
(2.47719e-10 -4.45782e-10 6.9182e-10)
(0 0 0)
(0 0 0)
(0 0 0)
(-2.27912e-10 -3.82265e-10 6.25762e-10)
(2.61432e-10 -6.16796e-10 8.59998e-10)
(0 0 0)
(0 0 0)
(0 0 0)
(-2.78648e-10 -5.30768e-10 7.8327e-10)
(3.3006e-10 -8.32798e-10 1.01147e-09)
(0 0 0)
(0 0 0)
(0 0 0)
(-3.93916e-10 -7.23165e-10 9.25338e-10)
(4.43628e-10 -1.15571e-09 1.11706e-09)
(0 0 0)
(0 0 0)
(0 0 0)
(-5.62476e-10 -1.01651e-09 1.02426e-09)
(4.75977e-10 -1.37889e-09 1.15564e-09)
(2.39021e-10 -1.36771e-09 1.16272e-09)
(-1.44494e-10 -1.30337e-09 1.1558e-09)
(-5.10413e-10 -1.26616e-09 1.1172e-09)
(-6.77e-10 -1.22403e-09 1.07393e-09)
(3.54509e-11 3.12877e-11 1.65426e-11)
(0 0 0)
(0 0 0)
(0 0 0)
(-7.32901e-13 1.98395e-11 1.27679e-11)
(1.09568e-10 -1.18849e-11 9.57694e-11)
(0 0 0)
(0 0 0)
(0 0 0)
(-3.61833e-11 -2.35387e-11 8.13244e-11)
(1.57031e-10 -1.75644e-10 2.35989e-10)
(0 0 0)
(0 0 0)
(0 0 0)
(-8.20622e-11 -1.64443e-10 2.08568e-10)
(1.61735e-10 -3.46801e-10 3.9239e-10)
(0 0 0)
(0 0 0)
(0 0 0)
(-9.69656e-11 -3.12809e-10 3.5353e-10)
(1.56821e-10 -5.01352e-10 5.45147e-10)
(0 0 0)
(0 0 0)
(0 0 0)
(-1.13083e-10 -4.45063e-10 4.96105e-10)
(1.75741e-10 -6.44974e-10 6.83069e-10)
(0 0 0)
(0 0 0)
(0 0 0)
(-1.63721e-10 -5.66364e-10 6.24893e-10)
(2.52488e-10 -8.20856e-10 7.92114e-10)
(0 0 0)
(0 0 0)
(0 0 0)
(-2.8224e-10 -7.18982e-10 7.26177e-10)
(3.77113e-10 -1.09946e-09 8.49671e-10)
(0 0 0)
(0 0 0)
(0 0 0)
(-4.57323e-10 -9.68465e-10 7.78728e-10)
(4.15408e-10 -1.30562e-09 8.56402e-10)
(2.04129e-10 -1.29925e-09 8.59751e-10)
(-1.22053e-10 -1.23652e-09 8.60449e-10)
(-4.30934e-10 -1.20193e-09 8.25801e-10)
(-5.73866e-10 -1.15812e-09 7.94664e-10)
(2.28594e-11 1.68544e-11 1.5785e-11)
(0 0 0)
(0 0 0)
(0 0 0)
(1.26186e-11 3.6054e-12 1.314e-11)
(7.66397e-11 -4.10971e-11 8.13209e-11)
(0 0 0)
(0 0 0)
(0 0 0)
(3.55301e-13 -5.74635e-11 7.13093e-11)
(1.15615e-10 -2.04628e-10 1.92057e-10)
(0 0 0)
(0 0 0)
(0 0 0)
(-3.25899e-11 -1.99797e-10 1.72953e-10)
(1.21706e-10 -3.72127e-10 3.1631e-10)
(0 0 0)
(0 0 0)
(0 0 0)
(-4.40988e-11 -3.4526e-10 2.88713e-10)
(1.218e-10 -5.16442e-10 4.38163e-10)
(0 0 0)
(0 0 0)
(0 0 0)
(-6.0476e-11 -4.67539e-10 4.02591e-10)
(1.46474e-10 -6.4228e-10 5.44151e-10)
(0 0 0)
(0 0 0)
(0 0 0)
(-1.12388e-10 -5.71103e-10 5.01265e-10)
(2.2811e-10 -7.95284e-10 6.19917e-10)
(0 0 0)
(0 0 0)
(0 0 0)
(-2.31652e-10 -7.00796e-10 5.70876e-10)
(3.55435e-10 -1.05037e-09 6.50865e-10)
(0 0 0)
(0 0 0)
(0 0 0)
(-4.05635e-10 -9.26589e-10 5.97981e-10)
(3.9405e-10 -1.24811e-09 6.44258e-10)
(1.94974e-10 -1.24905e-09 6.41193e-10)
(-1.05099e-10 -1.19163e-09 6.41082e-10)
(-3.87762e-10 -1.15521e-09 6.16111e-10)
(-5.19535e-10 -1.10677e-09 5.98398e-10)
(1.79032e-11 1.17215e-11 1.4397e-11)
(0 0 0)
(0 0 0)
(0 0 0)
(1.80781e-11 -2.74553e-12 1.26059e-11)
(6.42568e-11 -4.98796e-11 6.71522e-11)
(0 0 0)
(0 0 0)
(0 0 0)
(1.50577e-11 -6.96613e-11 6.04169e-11)
(1.0158e-10 -2.10249e-10 1.50526e-10)
(0 0 0)
(0 0 0)
(0 0 0)
(-1.33217e-11 -2.104e-10 1.37656e-10)
(1.10775e-10 -3.73558e-10 2.42037e-10)
(0 0 0)
(0 0 0)
(0 0 0)
(-2.45689e-11 -3.52531e-10 2.23252e-10)
(1.15724e-10 -5.11192e-10 3.31027e-10)
(0 0 0)
(0 0 0)
(0 0 0)
(-4.22541e-11 -4.68469e-10 3.06474e-10)
(1.44975e-10 -6.27735e-10 4.06411e-10)
(0 0 0)
(0 0 0)
(0 0 0)
(-9.52493e-11 -5.62763e-10 3.76448e-10)
(2.29158e-10 -7.70536e-10 4.57095e-10)
(0 0 0)
(0 0 0)
(0 0 0)
(-2.13761e-10 -6.82071e-10 4.22552e-10)
(3.56145e-10 -1.01524e-09 4.74686e-10)
(0 0 0)
(0 0 0)
(0 0 0)
(-3.84379e-10 -8.97138e-10 4.37291e-10)
(3.94149e-10 -1.20865e-09 4.65768e-10)
(1.99832e-10 -1.21451e-09 4.59123e-10)
(-9.27267e-11 -1.1617e-09 4.56797e-10)
(-3.67723e-10 -1.12332e-09 4.41437e-10)
(-4.95408e-10 -1.07204e-09 4.33354e-10)
(1.6224e-11 1.02909e-11 1.07427e-11)
(0 0 0)
(0 0 0)
(0 0 0)
(2.00615e-11 -4.93586e-12 9.63806e-12)
(6.05059e-11 -5.08677e-11 4.76106e-11)
(0 0 0)
(0 0 0)
(0 0 0)
(2.02154e-11 -7.28675e-11 4.34645e-11)
(9.85511e-11 -2.0731e-10 1.03296e-10)
(0 0 0)
(0 0 0)
(0 0 0)
(-7.06389e-12 -2.10859e-10 9.53622e-11)
(1.10639e-10 -3.66544e-10 1.63034e-10)
(0 0 0)
(0 0 0)
(0 0 0)
(-1.90043e-11 -3.4965e-10 1.5138e-10)
(1.19177e-10 -4.99964e-10 2.20469e-10)
(0 0 0)
(0 0 0)
(0 0 0)
(-3.78573e-11 -4.61711e-10 2.05102e-10)
(1.51468e-10 -6.12338e-10 2.68308e-10)
(0 0 0)
(0 0 0)
(0 0 0)
(-9.14235e-11 -5.5188e-10 2.49395e-10)
(2.36939e-10 -7.51505e-10 2.99494e-10)
(0 0 0)
(0 0 0)
(0 0 0)
(-2.08847e-10 -6.67387e-10 2.77551e-10)
(3.63034e-10 -9.92042e-10 3.09519e-10)
(0 0 0)
(0 0 0)
(0 0 0)
(-3.76387e-10 -8.77987e-10 2.85677e-10)
(4.00346e-10 -1.18324e-09 3.02652e-10)
(2.07554e-10 -1.19184e-09 2.96334e-10)
(-8.4322e-11 -1.14194e-09 2.93502e-10)
(-3.58519e-10 -1.10249e-09 2.85066e-10)
(-4.85124e-10 -1.04994e-09 2.81978e-10)
(1.57252e-11 1.0038e-11 5.67008e-12)
(0 0 0)
(0 0 0)
(0 0 0)
(2.07222e-11 -5.60312e-12 5.14418e-12)
(5.96124e-11 -4.99445e-11 2.45427e-11)
(0 0 0)
(0 0 0)
(0 0 0)
(2.18632e-11 -7.31804e-11 2.25694e-11)
(9.85445e-11 -2.03393e-10 5.23618e-11)
(0 0 0)
(0 0 0)
(0 0 0)
(-5.29898e-12 -2.08887e-10 4.85806e-11)
(1.1248e-10 -3.59739e-10 8.17563e-11)
(0 0 0)
(0 0 0)
(0 0 0)
(-1.7847e-11 -3.45267e-10 7.61828e-11)
(1.2311e-10 -4.90806e-10 1.09779e-10)
(0 0 0)
(0 0 0)
(0 0 0)
(-3.7396e-11 -4.55215e-10 1.02392e-10)
(1.57083e-10 -6.01545e-10 1.32908e-10)
(0 0 0)
(0 0 0)
(0 0 0)
(-9.11819e-11 -5.43793e-10 1.2377e-10)
(2.43176e-10 -7.3971e-10 1.47792e-10)
(0 0 0)
(0 0 0)
(0 0 0)
(-2.07803e-10 -6.58197e-10 1.37148e-10)
(3.68637e-10 -9.78716e-10 1.52441e-10)
(0 0 0)
(0 0 0)
(0 0 0)
(-3.73391e-10 -8.6707e-10 1.40848e-10)
(4.0544e-10 -1.16889e-09 1.48887e-10)
(2.13049e-10 -1.17882e-09 1.45275e-10)
(-7.94558e-11 -1.13042e-09 1.43504e-10)
(-3.54208e-10 -1.09055e-09 1.39797e-10)
(-4.80668e-10 -1.03755e-09 1.3883e-10)
(2.0712e-11 4.53703e-12 0)
(8.8269e-12 -9.91873e-12 0)
(5.52977e-13 -1.72747e-11 0)
(-3.37565e-12 -1.48377e-11 0)
(1.01511e-11 -1.16564e-11 0)
(5.62391e-11 -5.99011e-11 0)
(3.16448e-11 -8.44402e-11 0)
(4.2634e-12 -9.95688e-11 0)
(-1.2871e-11 -9.20939e-11 0)
(-8.7224e-13 -7.83187e-11 0)
(9.12217e-11 -2.06898e-10 0)
(5.13481e-11 -2.24077e-10 0)
(9.23313e-12 -2.36025e-10 0)
(-2.12559e-11 -2.25265e-10 0)
(-2.34603e-11 -2.11271e-10 0)
(1.03586e-10 -3.59291e-10 0)
(5.74545e-11 -3.70077e-10 0)
(1.02234e-11 -3.76451e-10 0)
(-2.57124e-11 -3.62029e-10 0)
(-3.42706e-11 -3.46629e-10 0)
(1.12904e-10 -4.92071e-10 0)
(6.02187e-11 -5.06365e-10 0)
(5.62629e-12 -5.11272e-10 0)
(-3.77897e-11 -4.88067e-10 0)
(-5.25376e-11 -4.61144e-10 0)
(1.45137e-10 -6.11034e-10 0)
(7.66818e-11 -6.37494e-10 0)
(-5.05597e-12 -6.43228e-10 0)
(-7.53498e-11 -6.08328e-10 0)
(-1.0485e-10 -5.60862e-10 0)
(2.26523e-10 -7.5871e-10 0)
(1.22631e-10 -7.92505e-10 0)
(-2.23295e-11 -7.9294e-10 0)
(-1.54879e-10 -7.51438e-10 0)
(-2.17569e-10 -6.8769e-10 0)
(3.42857e-10 -9.95664e-10 0)
(1.86756e-10 -1.01255e-09 0)
(-4.69102e-11 -9.93816e-10 0)
(-2.65781e-10 -9.55372e-10 0)
(-3.75944e-10 -8.9736e-10 0)
(3.94913e-10 -1.16249e-09 0)
(2.1698e-10 -1.15897e-09 0)
(-6.94941e-11 -1.11886e-09 0)
(-3.38857e-10 -1.08154e-09 0)
(-4.72767e-10 -1.04183e-09 0)
)
;

boundaryField
{
    interface
    {
        type            calculated;
    }
    symmetry
    {
        type            symmetry;
    }
    bottom
    {
        type            calculated;
    }
}


// ************************************************************************* //
