/*--------------------------------*- C++ -*----------------------------------*\
| =========                 |                                                 |
| \\      /  F ield         | OpenFOAM: The Open Source CFD Toolbox           |
|  \\    /   O peration     | Version:  v1912                                 |
|   \\  /    A nd           | Website:  www.openfoam.com                      |
|    \\/     M anipulation  |                                                 |
\*---------------------------------------------------------------------------*/
FoamFile
{
    version     2.0;
    format      ascii;
    class       volScalarField;
    location    "0.87/solid";
    object      sigmaEq;
}
// * * * * * * * * * * * * * * * * * * * * * * * * * * * * * * * * * * * * * //

dimensions      [1 -1 -2 0 0 0 0];


internalField   nonuniform List<scalar> 
256
(
685316
475171
466809
648373
383338
316744
310821
356444
372665
289459
283821
345571
388996
284673
279092
361277
399775
286311
280749
371587
390420
283506
278002
362052
304383
248655
244255
278453
68250.8
281015
278709
69466.7
396621
106398
102822
359497
281684
104644
101638
249232
270533
78836.2
76562.3
238261
271110
52851.7
51542.8
238324
276337
44102.1
43824.6
242872
281978
50936.5
50651.8
247889
260000
51518.9
52239.7
226434
304622
249422
244923
278376
322885
67169.3
65679.3
286249
267032
62937.3
60648.1
234283
260645
44982.5
43268
227682
261360
33168.8
33222.5
227746
268406
36378.7
37535.3
233998
280543
40371.6
40856.2
245344
281513
50159.9
49965.4
247047
391404
285024
279383
362465
285939
63633.5
63295.3
250654
249546
60327.3
59603
218450
244591
47732.1
47686.8
212843
245180
42892.7
44217.8
212461
253032
44035.5
46018.5
219305
267270
39597.3
41047.4
232477
275022
41082.7
41324.6
240750
403648
289239
283492
374543
264740
55293.8
55356.9
230187
233667
55635.1
55495.9
203438
230318
46499
46932
199263
231931
42027.8
43598.2
199727
241286
41088.3
43216.2
207986
257191
33318.3
34875
222701
268210
39010.2
38915.6
234144
400253
288050
282240
371144
252673
47167.5
47378
218421
222683
48647.8
48631
192702
220552
39976.7
40462.5
189673
223529
34163.5
35833
191449
234425
31820
34077
201254
251781
23490.8
24880.9
217412
265099
42094.7
41402.6
231190
396651
286957
281076
367498
246056
40660.9
40925.5
211902
216112
42042.1
42007.5
186131
214710
32251.4
32712.2
183796
218736
24599.8
26534.7
186624
230741
21618.7
24303.8
197570
249144
14147.7
15395.2
214812
264051
45749.2
44688.9
230252
394811
286346
280413
365615
243098
36853.4
37137.4
208963
213064
37951.1
37884.5
183043
212003
26891
27344.5
181035
216570
17324.1
19748.5
184414
229132
13966.1
17493.1
195940
248067
6913.02
8369.5
213742
263785
47786.4
46574.6
230043
394155
286079
280121
364936
)
;

boundaryField
{
    interface
    {
        type            calculated;
        value           nonuniform List<scalar> 
192
(
857157
526535
518525
542211
560328
557708
479139
266057
623709
473503
464547
475617
491541
505475
487032
479593
538977
456432
454106
465115
482986
503969
505842
559391
487012
427751
428769
440183
459183
483073
492594
565755
455485
403035
406150
418709
439154
464975
478268
556881
437148
386584
390917
404683
426455
453664
469193
549212
427074
377048
382034
396670
419358
447459
464320
544811
422599
372728
378007
393078
416219
444748
462238
542937
865415
534485
526944
551375
569917
566891
487108
271891
714466
516891
492274
498243
510386
516100
485597
464853
701383
506690
482087
487857
499838
505451
475627
458230
822217
503629
495593
519064
537018
533902
457332
266452
798495
475917
466980
489432
506443
502807
424322
218300
560127
415155
405692
415508
430059
442663
423905
424342
476689
398651
395594
405287
421647
441003
442409
503552
426564
371868
371873
381767
399070
421040
429737
510289
396175
348303
350293
361215
379868
403606
415876
501688
378458
332394
335556
347646
367592
392651
407094
494155
368699
323089
326884
339834
360691
386624
402397
489826
364354
318853
322932
336319
357629
383986
400397
487983
272848
488024
568935
575841
566955
559055
554461
552491
465504
487041
518933
515980
507311
500423
496086
494034
458786
476894
508023
505049
496367
489445
485080
483013
266956
457741
535158
541725
532760
524772
520101
518090
)
;
    }
    symmetry
    {
        type            symmetry;
    }
    bottom
    {
        type            calculated;
        value           nonuniform List<scalar> 
32
(
993326
523999
398938
349471
324668
311186
303938
300730
628750
135035
64468.7
60416.9
52943.7
45281.8
39044.2
35361.9
618254
130014
60818
57865.8
50496.5
42632
36049.4
32064.1
946229
482080
357605
309269
285246
272194
265151
262023
)
;
    }
}


// ************************************************************************* //
