/*--------------------------------*- C++ -*----------------------------------*\
| =========                 |                                                 |
| \\      /  F ield         | OpenFOAM: The Open Source CFD Toolbox           |
|  \\    /   O peration     | Version:  v1912                                 |
|   \\  /    A nd           | Website:  www.openfoam.com                      |
|    \\/     M anipulation  |                                                 |
\*---------------------------------------------------------------------------*/
FoamFile
{
    version     2.0;
    format      ascii;
    class       volScalarField;
    location    "0.87/solid";
    object      sigmaHyd;
}
// * * * * * * * * * * * * * * * * * * * * * * * * * * * * * * * * * * * * * //

dimensions      [1 -1 -2 0 0 0 0];


internalField   nonuniform List<scalar> 
256
(
-717078
-388083
-380422
-671442
-1.09013e+06
-680218
-668629
-1.03153e+06
-1.1396e+06
-734307
-722058
-1.07915e+06
-1.15911e+06
-755110
-742578
-1.09747e+06
-1.19966e+06
-787311
-774548
-1.13684e+06
-1.29298e+06
-863296
-850223
-1.22882e+06
-1.52787e+06
-1.07282e+06
-1.05844e+06
-1.45989e+06
-2.1004e+06
-1.61766e+06
-1.59589e+06
-2.01183e+06
-383690
-134680
-132930
-355520
-629599
-300716
-296123
-591434
-671077
-349941
-344812
-631499
-688048
-371444
-366115
-647529
-717532
-395208
-389739
-676013
-788912
-448709
-443033
-746166
-991118
-614341
-607464
-944586
-1.52883e+06
-1.07313e+06
-1.05861e+06
-1.46025e+06
-300777
-85530.5
-84386.2
-275068
-469692
-182713
-179276
-435432
-499871
-219369
-215461
-464329
-514620
-237965
-233854
-478104
-540189
-257982
-253716
-502564
-603278
-302638
-298138
-564213
-789333
-448394
-442650
-746146
-1.29428e+06
-863151
-849814
-1.22891e+06
-278936
-79638.2
-78550.4
-253976
-420079
-154751
-151509
-387040
-444139
-183828
-180142
-409880
-457273
-199646
-195753
-422002
-481196
-217602
-213535
-444721
-540793
-258526
-254197
-502709
-717942
-394780
-389171
-675478
-1.19996e+06
-785746
-772569
-1.13519e+06
-270311
-79322.9
-78263.6
-245805
-401858
-147161
-144004
-369513
-423216
-172389
-168803
-389693
-435197
-186165
-182370
-400645
-458025
-202597
-198619
-422210
-515599
-241428
-237170
-478069
-687424
-372755
-367192
-645353
-1.15542e+06
-751411
-738277
-1.09092e+06
-265217
-79333.6
-78296.4
-240988
-392959
-144291
-141191
-361040
-413155
-167633
-164114
-380086
-424377
-180137
-176409
-390272
-446402
-195523
-191607
-411000
-502682
-233098
-228893
-465502
-671313
-361726
-356201
-629493
-1.13077e+06
-733355
-720248
-1.06642e+06
-261949
-79232.2
-78208.5
-237877
-387953
-142956
-139891
-356276
-407627
-165404
-161925
-374818
-418393
-177204
-173518
-384546
-439895
-191964
-188088
-404733
-495401
-228828
-224658
-458425
-662216
-355981
-350480
-620544
-1.11665e+06
-723475
-710385
-1.05239e+06
-260307
-79125.5
-78108
-236304
-385577
-142381
-139332
-354009
-405037
-164470
-161010
-372347
-415589
-175962
-172295
-381860
-436837
-190434
-186577
-401784
-491983
-226977
-222823
-455100
-657971
-353464
-347976
-616365
-1.11005e+06
-718991
-705909
-1.04583e+06
)
;

boundaryField
{
    interface
    {
        type            zeroGradient;
    }
    symmetry
    {
        type            symmetry;
    }
    bottom
    {
        type            zeroGradient;
    }
}


// ************************************************************************* //
