/*--------------------------------*- C++ -*----------------------------------*\
| =========                 |                                                 |
| \\      /  F ield         | OpenFOAM: The Open Source CFD Toolbox           |
|  \\    /   O peration     | Version:  v1912                                 |
|   \\  /    A nd           | Website:  www.openfoam.com                      |
|    \\/     M anipulation  |                                                 |
\*---------------------------------------------------------------------------*/
FoamFile
{
    version     2.0;
    format      ascii;
    class       volVectorField;
    location    "0.87/solid";
    object      U;
}
// * * * * * * * * * * * * * * * * * * * * * * * * * * * * * * * * * * * * * //

dimensions      [0 1 -1 0 0 0 0];


internalField   nonuniform List<vector> 
256
(
(1.91375e-08 2.06624e-08 2.44439e-08)
(4.57087e-09 1.36393e-08 2.3783e-08)
(-6.25961e-09 1.30151e-08 2.29544e-08)
(-1.88372e-08 1.85685e-08 2.1972e-08)
(3.6373e-08 1.88358e-08 5.85675e-08)
(9.40023e-09 1.22754e-08 5.73732e-08)
(-1.33435e-08 1.20699e-08 5.56561e-08)
(-3.74845e-08 1.85555e-08 5.33966e-08)
(4.04835e-08 3.09435e-09 8.33829e-08)
(1.00434e-08 1.18432e-10 8.14865e-08)
(-1.65798e-08 5.96078e-10 7.92464e-08)
(-4.41118e-08 4.97358e-09 7.66217e-08)
(3.96745e-08 -1.5654e-08 1.04075e-07)
(8.52671e-09 -1.67382e-08 1.01261e-07)
(-1.84737e-08 -1.55807e-08 9.86468e-08)
(-4.66701e-08 -1.18145e-08 9.61778e-08)
(3.90729e-08 -3.62737e-08 1.24037e-07)
(6.79558e-09 -3.73168e-08 1.20214e-07)
(-2.10543e-08 -3.5513e-08 1.17283e-07)
(-5.03174e-08 -3.05925e-08 1.15179e-07)
(4.19581e-08 -6.14945e-08 1.45213e-07)
(6.1512e-09 -6.27789e-08 1.40595e-07)
(-2.56868e-08 -6.0324e-08 1.37363e-07)
(-5.84003e-08 -5.39542e-08 1.35449e-07)
(4.95797e-08 -9.7578e-08 1.67065e-07)
(6.92162e-09 -9.7306e-08 1.62716e-07)
(-3.28499e-08 -9.41028e-08 1.59181e-07)
(-7.22114e-08 -8.78865e-08 1.56413e-07)
(5.66856e-08 -1.43534e-07 1.82882e-07)
(7.22983e-09 -1.40195e-07 1.80131e-07)
(-4.08724e-08 -1.35888e-07 1.76345e-07)
(-8.65307e-08 -1.30554e-07 1.71534e-07)
(1.31254e-08 7.70633e-09 1.10838e-08)
(3.04594e-09 1.62335e-09 1.2097e-08)
(-3.74489e-09 1.42177e-09 1.17203e-08)
(-1.21096e-08 6.5318e-09 9.97351e-09)
(2.57337e-08 5.15486e-10 3.43304e-08)
(6.57909e-09 -5.0719e-09 3.63293e-08)
(-8.14296e-09 -4.92452e-09 3.52962e-08)
(-2.48979e-08 9.1244e-10 3.13247e-08)
(2.85865e-08 -1.41696e-08 5.58341e-08)
(7.03587e-09 -1.66398e-08 5.7962e-08)
(-1.0177e-08 -1.59495e-08 5.64665e-08)
(-2.93192e-08 -1.19427e-08 5.14648e-08)
(2.7501e-08 -3.11883e-08 7.51412e-08)
(5.70115e-09 -3.21019e-08 7.69564e-08)
(-1.14579e-08 -3.08181e-08 7.51221e-08)
(-3.0852e-08 -2.71862e-08 6.9747e-08)
(2.68203e-08 -5.00153e-08 9.34474e-08)
(4.19474e-09 -5.11516e-08 9.47615e-08)
(-1.36037e-08 -4.92684e-08 9.26395e-08)
(-3.37873e-08 -4.42675e-08 8.71779e-08)
(3.00126e-08 -7.21002e-08 1.11443e-07)
(3.85307e-09 -7.37216e-08 1.12223e-07)
(-1.79643e-08 -7.12272e-08 1.09833e-07)
(-4.1609e-08 -6.45787e-08 1.04362e-07)
(3.91318e-08 -1.02237e-07 1.27619e-07)
(5.2052e-09 -1.02024e-07 1.28056e-07)
(-2.52037e-08 -9.88571e-08 1.25436e-07)
(-5.63832e-08 -9.27367e-08 1.19832e-07)
(4.88968e-08 -1.41661e-07 1.36935e-07)
(6.21964e-09 -1.36674e-07 1.37269e-07)
(-3.35147e-08 -1.32546e-07 1.34553e-07)
(-7.28586e-08 -1.29191e-07 1.28813e-07)
(7.54253e-09 2.6129e-09 5.5768e-09)
(1.47657e-09 -2.05938e-09 7.17997e-09)
(-1.71198e-09 -2.21402e-09 6.92452e-09)
(-6.13563e-09 1.39968e-09 4.84892e-09)
(1.54261e-08 -8.75253e-09 2.14101e-08)
(3.50668e-09 -1.31352e-08 2.45254e-08)
(-3.72002e-09 -1.29597e-08 2.38123e-08)
(-1.33752e-08 -8.50791e-09 1.93852e-08)
(1.70926e-08 -2.43451e-08 3.90231e-08)
(3.67926e-09 -2.63551e-08 4.25349e-08)
(-4.658e-09 -2.56837e-08 4.14568e-08)
(-1.58353e-08 -2.23751e-08 3.59307e-08)
(1.59429e-08 -4.05153e-08 5.61837e-08)
(2.51388e-09 -4.14438e-08 5.95842e-08)
(-5.39862e-09 -4.02213e-08 5.82127e-08)
(-1.66206e-08 -3.68499e-08 5.22071e-08)
(1.54167e-08 -5.71302e-08 7.22426e-08)
(1.24651e-09 -5.85389e-08 7.53377e-08)
(-7.17497e-09 -5.67497e-08 7.37115e-08)
(-1.91141e-08 -5.17783e-08 6.74893e-08)
(1.90199e-08 -7.53813e-08 8.65859e-08)
(1.20819e-09 -7.74213e-08 8.92892e-08)
(-1.13177e-08 -7.50551e-08 8.74362e-08)
(-2.68182e-08 -6.83235e-08 8.11356e-08)
(2.91525e-08 -9.99804e-08 9.72872e-08)
(3.04974e-09 -1.00067e-07 9.95447e-08)
(-1.85945e-08 -9.70746e-08 9.75243e-08)
(-4.21239e-08 -9.10446e-08 9.1294e-08)
(4.04076e-08 -1.33762e-07 1.00876e-07)
(4.60548e-09 -1.28434e-07 1.02749e-07)
(-2.70323e-08 -1.2453e-07 1.00705e-07)
(-5.9631e-08 -1.21962e-07 9.4734e-08)
(4.62776e-09 5.05768e-10 4.16952e-09)
(6.66473e-10 -3.08681e-09 5.3695e-09)
(-6.77194e-10 -3.2728e-09 5.17984e-09)
(-2.9817e-09 -8.79989e-10 3.64224e-09)
(9.98921e-09 -1.25409e-08 1.60689e-08)
(1.88722e-09 -1.60517e-08 1.83675e-08)
(-1.33701e-09 -1.59663e-08 1.78535e-08)
(-7.17208e-09 -1.26685e-08 1.46334e-08)
(1.11755e-08 -2.88542e-08 2.99991e-08)
(1.9918e-09 -3.05965e-08 3.25536e-08)
(-1.61923e-09 -3.00475e-08 3.1769e-08)
(-8.58244e-09 -2.73439e-08 2.77755e-08)
(1.03167e-08 -4.45646e-08 4.41494e-08)
(1.08681e-09 -4.56013e-08 4.65747e-08)
(-2.04744e-09 -4.45226e-08 4.55562e-08)
(-9.09896e-09 -4.14045e-08 4.1222e-08)
(1.0244e-08 -5.94447e-08 5.7259e-08)
(1.34324e-10 -6.11272e-08 5.94175e-08)
(-3.61797e-09 -5.94999e-08 5.81893e-08)
(-1.15291e-08 -5.46304e-08 5.36904e-08)
(1.43051e-08 -7.48754e-08 6.81071e-08)
(3.84921e-10 -7.72694e-08 6.99623e-08)
(-7.5915e-09 -7.50825e-08 6.85518e-08)
(-1.92255e-08 -6.83859e-08 6.3971e-08)
(2.48121e-08 -9.60382e-08 7.49589e-08)
(2.4696e-09 -9.65824e-08 7.65071e-08)
(-1.47065e-08 -9.37838e-08 7.49733e-08)
(-3.44832e-08 -8.76954e-08 7.04066e-08)
(3.63465e-08 -1.2679e-07 7.59096e-08)
(4.23548e-09 -1.22109e-07 7.72855e-08)
(-2.29738e-08 -1.184e-07 7.57512e-08)
(-5.18726e-08 -1.15581e-07 7.12774e-08)
(3.52283e-09 -3.03235e-10 3.50871e-09)
(4.16778e-10 -3.33505e-09 4.14706e-09)
(-3.087e-10 -3.55362e-09 4.01045e-09)
(-1.72778e-09 -1.82767e-09 3.13494e-09)
(8.01701e-09 -1.37045e-08 1.26116e-08)
(1.42319e-09 -1.67996e-08 1.37897e-08)
(-4.23017e-10 -1.68117e-08 1.34256e-08)
(-4.71782e-09 -1.41691e-08 1.16075e-08)
(9.23464e-09 -3.00936e-08 2.31275e-08)
(1.63877e-09 -3.17823e-08 2.43648e-08)
(-4.12409e-10 -3.13661e-08 2.38081e-08)
(-5.76716e-09 -2.90213e-08 2.1566e-08)
(8.79908e-09 -4.5378e-08 3.39056e-08)
(1.01532e-09 -4.65816e-08 3.49789e-08)
(-6.93408e-10 -4.56535e-08 3.42487e-08)
(-6.28645e-09 -4.27022e-08 3.1823e-08)
(9.21734e-09 -5.9158e-08 4.37772e-08)
(3.65383e-10 -6.10812e-08 4.46172e-08)
(-2.15199e-09 -5.96146e-08 4.3727e-08)
(-8.79529e-09 -5.48488e-08 4.12045e-08)
(1.36349e-08 -7.30248e-08 5.15392e-08)
(8.45677e-10 -7.56794e-08 5.21604e-08)
(-5.97528e-09 -7.36589e-08 5.11318e-08)
(-1.64641e-08 -6.70469e-08 4.85317e-08)
(2.41898e-08 -9.25583e-08 5.59261e-08)
(3.03201e-09 -9.34848e-08 5.63827e-08)
(-1.28483e-08 -9.08512e-08 5.52637e-08)
(-3.14176e-08 -8.47161e-08 5.26059e-08)
(3.55865e-08 -1.21962e-07 5.6053e-08)
(4.86068e-09 -1.17994e-07 5.64902e-08)
(-2.08579e-08 -1.14439e-07 5.53751e-08)
(-4.83418e-08 -1.1122e-07 5.26793e-08)
(3.19039e-09 -5.74142e-10 2.71326e-09)
(3.95124e-10 -3.37015e-09 2.99128e-09)
(-2.22192e-10 -3.61221e-09 2.89986e-09)
(-1.30507e-09 -2.19258e-09 2.46582e-09)
(7.53361e-09 -1.38065e-08 9.23629e-09)
(1.4412e-09 -1.67696e-08 9.70871e-09)
(-1.73931e-10 -1.68558e-08 9.46642e-09)
(-3.93757e-09 -1.45156e-08 8.57456e-09)
(8.9612e-09 -2.99027e-08 1.65666e-08)
(1.81764e-09 -3.16517e-08 1.69965e-08)
(-5.94302e-11 -3.13414e-08 1.66258e-08)
(-4.93939e-09 -2.91656e-08 1.55353e-08)
(8.90105e-09 -4.47659e-08 2.4029e-08)
(1.42681e-09 -4.61374e-08 2.43076e-08)
(-2.74347e-10 -4.53312e-08 2.38185e-08)
(-5.54112e-09 -4.24706e-08 2.26431e-08)
(9.69828e-09 -5.79249e-08 3.0784e-08)
(1.00827e-09 -6.00336e-08 3.08879e-08)
(-1.66029e-09 -5.86959e-08 3.02876e-08)
(-8.12687e-09 -5.40134e-08 2.90571e-08)
(1.43468e-08 -7.10899e-08 3.59396e-08)
(1.65043e-09 -7.39157e-08 3.59021e-08)
(-5.35577e-09 -7.20249e-08 3.52052e-08)
(-1.57355e-08 -6.55078e-08 3.39073e-08)
(2.486e-08 -8.99949e-08 3.86892e-08)
(3.88806e-09 -9.11626e-08 3.85733e-08)
(-1.20127e-08 -8.86532e-08 3.78137e-08)
(-3.03763e-08 -8.25295e-08 3.64375e-08)
(3.60763e-08 -1.18794e-07 3.86369e-08)
(5.7407e-09 -1.15303e-07 3.85458e-08)
(-1.98002e-08 -1.11862e-07 3.77896e-08)
(-4.68703e-08 -1.08397e-07 3.63478e-08)
(3.10733e-09 -6.39676e-10 1.71293e-09)
(4.22483e-10 -3.34709e-09 1.81736e-09)
(-2.15693e-10 -3.604e-09 1.76507e-09)
(-1.171e-09 -2.31576e-09 1.57238e-09)
(7.48929e-09 -1.35993e-08 5.64817e-09)
(1.54926e-09 -1.65446e-08 5.80174e-09)
(-1.32226e-10 -1.66784e-08 5.66335e-09)
(-3.72243e-09 -1.44625e-08 5.27262e-09)
(9.10619e-09 -2.93526e-08 9.97007e-09)
(2.05252e-09 -3.11807e-08 1.00685e-08)
(1.4724e-11 -3.09402e-08 9.85652e-09)
(-4.75835e-09 -2.88335e-08 9.38372e-09)
(9.30063e-09 -4.38824e-08 1.43261e-08)
(1.81663e-09 -4.53801e-08 1.43235e-08)
(-1.68044e-10 -4.46559e-08 1.40428e-08)
(-5.43106e-09 -4.18406e-08 1.35345e-08)
(1.03362e-08 -5.67197e-08 1.82326e-08)
(1.54606e-09 -5.89506e-08 1.8125e-08)
(-1.50441e-09 -5.76998e-08 1.77792e-08)
(-8.05912e-09 -5.30751e-08 1.7241e-08)
(1.51185e-08 -6.96209e-08 2.11692e-08)
(2.29013e-09 -7.25467e-08 2.09841e-08)
(-5.10807e-09 -7.07425e-08 2.05812e-08)
(-1.56076e-08 -6.43032e-08 1.99969e-08)
(2.5592e-08 -8.83239e-08 2.26972e-08)
(4.56077e-09 -8.96204e-08 2.24777e-08)
(-1.16166e-08 -8.71929e-08 2.20378e-08)
(-3.0026e-08 -8.11077e-08 2.13944e-08)
(3.66831e-08 -1.16842e-07 2.26397e-08)
(6.42868e-09 -1.13609e-07 2.24425e-08)
(-1.92534e-08 -1.10242e-07 2.20046e-08)
(-4.62267e-08 -1.06671e-07 2.13142e-08)
(3.08943e-09 -6.44607e-10 5.84802e-10)
(4.41331e-10 -3.32289e-09 6.10787e-10)
(-2.2014e-10 -3.58699e-09 5.93794e-10)
(-1.13012e-09 -2.3481e-09 5.39274e-10)
(7.51183e-09 -1.34282e-08 1.90065e-09)
(1.61532e-09 -1.63804e-08 1.93348e-09)
(-1.31149e-10 -1.65372e-08 1.88851e-09)
(-3.667e-09 -1.43652e-08 1.77901e-09)
(9.22864e-09 -2.89731e-08 3.32812e-09)
(2.18343e-09 -3.08493e-08 3.3385e-09)
(2.56468e-11 -3.06431e-08 3.26955e-09)
(-4.72987e-09 -2.85604e-08 3.13801e-09)
(9.54692e-09 -4.33227e-08 4.75771e-09)
(2.02281e-09 -4.48857e-08 4.73318e-09)
(-1.42543e-10 -4.42022e-08 4.64176e-09)
(-5.43818e-09 -4.1406e-08 4.50044e-09)
(1.06947e-08 -5.60236e-08 6.03332e-09)
(1.8231e-09 -5.83142e-08 5.97414e-09)
(-1.45285e-09 -5.71067e-08 5.86125e-09)
(-8.08231e-09 -5.25117e-08 5.71021e-09)
(1.55385e-08 -6.88443e-08 6.9863e-09)
(2.6165e-09 -7.18157e-08 6.90253e-09)
(-5.00914e-09 -7.00546e-08 6.77079e-09)
(-1.55956e-08 -6.36582e-08 6.60339e-09)
(2.59927e-08 -8.74954e-08 7.47803e-09)
(4.90493e-09 -8.88463e-08 7.38454e-09)
(-1.14441e-08 -8.64594e-08 7.24055e-09)
(-2.99029e-08 -8.0403e-08 7.05184e-09)
(3.70232e-08 -1.15901e-07 7.45627e-09)
(6.78151e-09 -1.12775e-07 7.37072e-09)
(-1.90064e-08 -1.09445e-07 7.22738e-09)
(-4.59591e-08 -1.05841e-07 7.02244e-09)
)
;

boundaryField
{
    interface
    {
        type            calculated;
        value           nonuniform List<vector> 
192
(
(2.38152e-08 3.454e-08 2.25502e-08)
(4.13846e-08 2.41722e-08 5.52204e-08)
(4.58399e-08 3.91964e-09 7.97336e-08)
(4.54119e-08 -1.60067e-08 1.00487e-07)
(4.49607e-08 -3.57028e-08 1.2059e-07)
(4.76081e-08 -5.88678e-08 1.42001e-07)
(5.53308e-08 -9.38962e-08 1.64307e-07)
(6.25492e-08 -1.41722e-07 1.80744e-07)
(1.58441e-08 1.74211e-08 8.18513e-09)
(2.92816e-08 4.38073e-09 2.90937e-08)
(3.23571e-08 -1.37279e-08 4.99865e-08)
(3.14087e-08 -3.16299e-08 6.92084e-08)
(3.07277e-08 -4.93875e-08 8.75334e-08)
(3.3724e-08 -6.90224e-08 1.05708e-07)
(4.3469e-08 -9.75157e-08 1.22512e-07)
(5.47394e-08 -1.39237e-07 1.32866e-07)
(8.87423e-09 8.35506e-09 3.45243e-09)
(1.77482e-08 -6.36505e-09 1.7474e-08)
(1.96994e-08 -2.4216e-08 3.46704e-08)
(1.87e-08 -4.09344e-08 5.18877e-08)
(1.82512e-08 -5.63611e-08 6.80986e-08)
(2.18699e-08 -7.19474e-08 8.26591e-08)
(3.29612e-08 -9.46335e-08 9.37073e-08)
(4.62817e-08 -1.30898e-07 9.77385e-08)
(5.30615e-09 4.16002e-09 3.16462e-09)
(1.18988e-08 -1.0904e-08 1.42167e-08)
(1.34659e-08 -2.87724e-08 2.80346e-08)
(1.28288e-08 -4.47976e-08 4.23635e-08)
(1.29483e-08 -5.84476e-08 5.57092e-08)
(1.72269e-08 -7.12334e-08 6.67609e-08)
(2.8937e-08 -9.05279e-08 7.37182e-08)
(4.26653e-08 -1.23726e-07 7.47044e-08)
(3.83761e-09 2.58173e-09 3.14939e-09)
(9.61331e-09 -1.22766e-08 1.19977e-08)
(1.12678e-08 -2.98982e-08 2.25739e-08)
(1.11198e-08 -4.53825e-08 3.35518e-08)
(1.18229e-08 -5.79491e-08 4.36408e-08)
(1.65914e-08 -6.92817e-08 5.15496e-08)
(2.84888e-08 -8.70705e-08 5.59381e-08)
(4.20829e-08 -1.18824e-07 5.59854e-08)
(3.32368e-09 2.10687e-09 2.6094e-09)
(8.92812e-09 -1.23638e-08 9.10439e-09)
(1.08227e-08 -2.95609e-08 1.65345e-08)
(1.10996e-08 -4.45817e-08 2.41544e-08)
(1.22473e-08 -5.65635e-08 3.10637e-08)
(1.73282e-08 -6.72995e-08 3.63105e-08)
(2.92548e-08 -8.45626e-08 3.90398e-08)
(4.26313e-08 -1.15637e-07 3.8911e-08)
(3.16593e-09 2.00949e-09 1.6877e-09)
(8.78464e-09 -1.20996e-08 5.64274e-09)
(1.08849e-08 -2.88998e-08 1.00369e-08)
(1.14484e-08 -4.3575e-08 1.44876e-08)
(1.28754e-08 -5.52653e-08 1.84817e-08)
(1.81361e-08 -6.5807e-08 2.14671e-08)
(3.00563e-08 -8.29328e-08 2.29803e-08)
(4.32714e-08 -1.13684e-07 2.28764e-08)
(3.12416e-09 2.00572e-09 5.80331e-10)
(8.77024e-09 -1.18934e-08 1.9063e-09)
(1.0978e-08 -2.84644e-08 3.35874e-09)
(1.16808e-08 -4.29562e-08 4.81928e-09)
(1.32394e-08 -5.45258e-08 6.12295e-09)
(1.85821e-08 -6.50199e-08 7.0913e-09)
(3.0496e-08 -8.21243e-08 7.57819e-09)
(4.36309e-08 -1.12745e-07 7.54131e-09)
(1.9919e-08 4.14152e-08 2.67622e-08)
(3.77477e-08 3.35705e-08 6.08853e-08)
(4.18338e-08 1.44714e-08 8.60411e-08)
(4.07651e-08 -5.49035e-09 1.07194e-07)
(3.98406e-08 -2.59891e-08 1.27327e-07)
(4.24097e-08 -5.07374e-08 1.48117e-07)
(4.98713e-08 -8.81608e-08 1.69663e-07)
(5.70667e-08 -1.38574e-07 1.85125e-07)
(4.19836e-09 3.39284e-08 2.51659e-08)
(8.67214e-09 2.67013e-08 5.84893e-08)
(9.00902e-09 1.10905e-08 8.24188e-08)
(7.16936e-09 -7.0562e-09 1.02168e-07)
(5.10685e-09 -2.74832e-08 1.20912e-07)
(4.18836e-09 -5.21534e-08 1.40657e-07)
(4.95066e-09 -8.7422e-08 1.62741e-07)
(5.59563e-09 -1.34976e-07 1.81127e-07)
(-6.71254e-09 3.26677e-08 2.33395e-08)
(-1.43379e-08 2.6143e-08 5.5944e-08)
(-1.77963e-08 1.13438e-08 7.93445e-08)
(-1.97448e-08 -6.07152e-09 9.86858e-08)
(-2.23133e-08 -2.5834e-08 1.17082e-07)
(-2.69735e-08 -4.98493e-08 1.36499e-07)
(-3.44257e-08 -8.4357e-08 1.58256e-07)
(-4.30218e-08 -1.30723e-07 1.76311e-07)
(-2.02864e-08 3.74107e-08 2.13157e-08)
(-4.03362e-08 3.2218e-08 5.29976e-08)
(-4.7453e-08 1.5669e-08 7.64751e-08)
(-5.01302e-08 -2.17497e-09 9.63838e-08)
(-5.37742e-08 -2.07746e-08 1.15469e-07)
(-6.18372e-08 -4.36457e-08 1.35284e-07)
(-7.57728e-08 -7.88653e-08 1.55887e-07)
(-9.04136e-08 -1.2574e-07 1.7055e-07)
(-1.75014e-08 3.26489e-08 1.95653e-08)
(-3.65188e-08 2.48742e-08 4.88239e-08)
(-4.33747e-08 7.27008e-09 7.12526e-08)
(-4.61689e-08 -1.0263e-08 9.0493e-08)
(-4.98177e-08 -2.76598e-08 1.09318e-07)
(-5.75013e-08 -4.84805e-08 1.29533e-07)
(-7.11452e-08 -8.08537e-08 1.50675e-07)
(-8.51355e-08 -1.24891e-07 1.66174e-07)
(-9.20554e-09 1.57836e-08 6.79809e-09)
(-2.28987e-08 5.21485e-09 2.52973e-08)
(-2.7482e-08 -1.04541e-08 4.43956e-08)
(-2.90451e-08 -2.6069e-08 6.22345e-08)
(-3.18541e-08 -4.15781e-08 7.9377e-08)
(-3.93305e-08 -5.89296e-08 9.64667e-08)
(-5.4443e-08 -8.49241e-08 1.1231e-07)
(-7.18346e-08 -1.2314e-07 1.22088e-07)
(-2.02058e-09 6.27737e-09 2.5669e-09)
(-1.03609e-08 -6.08297e-09 1.49537e-08)
(-1.30635e-08 -2.15637e-08 3.07464e-08)
(-1.39077e-08 -3.603e-08 4.67687e-08)
(-1.63579e-08 -4.92288e-08 6.19246e-08)
(-2.39166e-08 -6.25709e-08 7.55396e-08)
(-3.98764e-08 -8.28413e-08 8.58189e-08)
(-5.88363e-08 -1.15697e-07 8.94874e-08)
(1.72742e-09 1.65844e-09 2.54025e-09)
(-3.81927e-09 -1.12683e-08 1.2469e-08)
(-5.58124e-09 -2.68621e-08 2.52584e-08)
(-6.23382e-09 -4.06678e-08 3.86384e-08)
(-8.73402e-09 -5.20986e-08 5.11106e-08)
(-1.64798e-08 -6.26472e-08 6.13823e-08)
(-3.26233e-08 -7.95336e-08 6.77299e-08)
(-5.15932e-08 -1.09314e-07 6.8455e-08)
(3.32003e-09 -2.16282e-10 2.71575e-09)
(-1.08606e-09 -1.31593e-08 1.07987e-08)
(-2.54938e-09 -2.86291e-08 2.06551e-08)
(-3.27509e-09 -4.19451e-08 3.09334e-08)
(-5.94748e-09 -5.23043e-08 4.03539e-08)
(-1.37937e-08 -6.13911e-08 4.76591e-08)
(-2.97639e-08 -7.67465e-08 5.15791e-08)
(-4.82734e-08 -1.05042e-07 5.14287e-08)
(3.91119e-09 -8.81928e-10 2.3266e-09)
(-1.22093e-10 -1.3607e-08 8.32566e-09)
(-1.57113e-09 -2.87646e-08 1.5283e-08)
(-2.43196e-09 -4.16737e-08 2.24292e-08)
(-5.24711e-09 -5.14647e-08 2.8873e-08)
(-1.31114e-08 -5.99453e-08 3.36931e-08)
(-2.88353e-08 -7.47456e-08 3.60895e-08)
(-4.68789e-08 -1.02321e-07 3.5819e-08)
(4.11342e-09 -1.09242e-09 1.52862e-09)
(1.83651e-10 -1.35656e-08 5.20494e-09)
(-1.31598e-09 -2.84063e-08 9.3313e-09)
(-2.28263e-09 -4.10153e-08 1.35087e-08)
(-5.18122e-09 -5.05308e-08 1.72299e-08)
(-1.30296e-08 -5.88113e-08 1.99619e-08)
(-2.85625e-08 -7.34528e-08 2.1276e-08)
(-4.62782e-08 -1.00675e-07 2.10864e-08)
(4.17545e-09 -1.14883e-09 5.29051e-10)
(2.7277e-10 -1.34653e-08 1.76514e-09)
(-1.26004e-09 -2.81175e-08 3.13088e-09)
(-2.28015e-09 -4.05678e-08 4.50221e-09)
(-5.2144e-09 -4.99722e-08 5.71599e-09)
(-1.30475e-08 -5.82029e-08 6.60039e-09)
(-2.84817e-08 -7.2812e-08 7.02107e-09)
(-4.6034e-08 -9.98878e-08 6.95553e-09)
(5.6757e-08 -1.45878e-07 1.84894e-07)
(4.88621e-08 -1.4444e-07 1.34492e-07)
(4.05077e-08 -1.36982e-07 9.71584e-08)
(3.67085e-08 -1.30643e-07 7.29595e-08)
(3.61633e-08 -1.26051e-07 5.40538e-08)
(3.67821e-08 -1.22948e-07 3.7357e-08)
(3.74537e-08 -1.21025e-07 2.19164e-08)
(3.78198e-08 -1.201e-07 7.22086e-09)
(5.31831e-09 -1.41288e-07 1.8186e-07)
(3.94096e-09 -1.36873e-07 1.34329e-07)
(2.29753e-09 -1.28788e-07 9.91073e-08)
(2.13781e-09 -1.23289e-07 7.46753e-08)
(2.98001e-09 -1.19635e-07 5.47886e-08)
(4.00762e-09 -1.1717e-07 3.74496e-08)
(4.77844e-09 -1.15592e-07 2.18106e-08)
(5.16745e-09 -1.14812e-07 7.16237e-09)
(-4.32827e-08 -1.35938e-07 1.78092e-07)
(-3.53856e-08 -1.3177e-07 1.31714e-07)
(-2.86507e-08 -1.23918e-07 9.71684e-08)
(-2.4606e-08 -1.18615e-07 7.32284e-08)
(-2.25515e-08 -1.15114e-07 5.37405e-08)
(-2.15268e-08 -1.1276e-07 3.67402e-08)
(-2.0988e-08 -1.11255e-07 2.14003e-08)
(-2.07402e-08 -1.1051e-07 7.02816e-09)
(-9.06956e-08 -1.29641e-07 1.736e-07)
(-7.67233e-08 -1.28781e-07 1.26665e-07)
(-6.34057e-08 -1.21995e-07 9.13314e-08)
(-5.57112e-08 -1.16243e-07 6.85921e-08)
(-5.22362e-08 -1.12111e-07 5.08834e-08)
(-5.07749e-08 -1.09343e-07 3.52105e-08)
(-5.01177e-08 -1.07638e-07 2.06752e-08)
(-4.98371e-08 -1.06819e-07 6.81491e-09)
)
;
    }
    symmetry
    {
        type            symmetry;
    }
    bottom
    {
        type            calculated;
        value           uniform (0 0 0);
    }
}


// ************************************************************************* //
