/*--------------------------------*- C++ -*----------------------------------*\
| =========                 |                                                 |
| \\      /  F ield         | OpenFOAM: The Open Source CFD Toolbox           |
|  \\    /   O peration     | Version:  v1912                                 |
|   \\  /    A nd           | Website:  www.openfoam.com                      |
|    \\/     M anipulation  |                                                 |
\*---------------------------------------------------------------------------*/
FoamFile
{
    version     2.0;
    format      ascii;
    class       volVectorField;
    location    "0.7/fluid";
    object      cellMotionU;
}
// * * * * * * * * * * * * * * * * * * * * * * * * * * * * * * * * * * * * * //

dimensions      [0 1 -1 0 0 0 0];


internalField   nonuniform List<vector> 
14592
(
(1.37061e-10 -3.09988e-10 2.3643e-10)
(3.82733e-10 -8.66635e-10 6.69271e-10)
(6.10405e-10 -1.38383e-09 1.09542e-09)
(8.28958e-10 -1.87963e-09 1.54292e-09)
(1.04782e-09 -2.36706e-09 2.03869e-09)
(1.27546e-09 -2.85077e-09 2.60692e-09)
(1.52211e-09 -3.32741e-09 3.27192e-09)
(1.80104e-09 -3.78191e-09 4.05817e-09)
(2.13176e-09 -4.18153e-09 4.99097e-09)
(2.54645e-09 -4.46394e-09 6.09675e-09)
(3.1058e-09 -4.51279e-09 7.40727e-09)
(3.93893e-09 -4.10095e-09 8.97715e-09)
(5.34284e-09 -2.7397e-09 1.09474e-08)
(8.06784e-09 7.80545e-10 1.37549e-08)
(1.38174e-08 9.44698e-09 1.85533e-08)
(2.38145e-08 2.65727e-08 2.61387e-08)
(4.07661e-10 -9.20413e-10 7.02792e-10)
(1.13848e-09 -2.57366e-09 1.98954e-09)
(1.81484e-09 -4.11052e-09 3.25502e-09)
(2.46447e-09 -5.58656e-09 4.58463e-09)
(3.11241e-09 -7.03847e-09 6.0545e-09)
(3.78482e-09 -8.48396e-09 7.73782e-09)
(4.51085e-09 -9.91624e-09 9.7058e-09)
(5.32732e-09 -1.12963e-08 1.20297e-08)
(6.28579e-09 -1.25374e-08 1.47807e-08)
(7.46636e-09 -1.3477e-08 1.80284e-08)
(9.00757e-09 -1.38276e-08 2.18404e-08)
(1.11643e-08 -1.30931e-08 2.6292e-08)
(1.44477e-08 -1.04114e-08 3.15165e-08)
(1.97771e-08 -4.37116e-09 3.77755e-08)
(2.83894e-08 6.79188e-09 4.54236e-08)
(3.90488e-08 2.13129e-08 5.33203e-08)
(6.68571e-10 -1.50363e-09 1.15141e-09)
(1.86668e-09 -4.20569e-09 3.2588e-09)
(2.97489e-09 -6.72176e-09 5.33065e-09)
(4.03633e-09 -9.14313e-09 7.5039e-09)
(5.09232e-09 -1.15351e-08 9.90398e-09)
(6.18391e-09 -1.39324e-08 1.26492e-08)
(7.35639e-09 -1.63345e-08 1.58554e-08)
(8.66437e-09 -1.86953e-08 1.96379e-08)
(1.01793e-08 -2.09039e-08 2.41108e-08)
(1.20021e-08 -2.27525e-08 2.93806e-08)
(1.42856e-08 -2.38892e-08 3.55361e-08)
(1.72785e-08 -2.37579e-08 4.26376e-08)
(2.14022e-08 -2.15564e-08 5.07187e-08)
(2.73176e-08 -1.63577e-08 5.98059e-08)
(3.57492e-08 -7.83957e-09 6.98969e-08)
(4.54122e-08 1.08467e-09 7.97719e-08)
(9.13721e-10 -2.04122e-09 1.57123e-09)
(2.5504e-09 -5.71196e-09 4.44596e-09)
(4.06195e-09 -9.13662e-09 7.26913e-09)
(5.50605e-09 -1.24445e-08 1.02261e-08)
(6.93648e-09 -1.57301e-08 1.34849e-08)
(8.40751e-09 -1.90524e-08 1.72057e-08)
(9.97712e-09 -2.24293e-08 2.15448e-08)
(1.17121e-08 -2.58282e-08 2.66582e-08)
(1.36938e-08 -2.91488e-08 3.27003e-08)
(1.6024e-08 -3.21946e-08 3.98141e-08)
(1.88318e-08 -3.46339e-08 4.8111e-08)
(2.22845e-08 -3.59587e-08 5.7639e-08)
(2.66003e-08 -3.54816e-08 6.83402e-08)
(3.20357e-08 -3.24851e-08 7.99869e-08)
(3.87757e-08 -2.68032e-08 9.20615e-08)
(4.57711e-08 -2.05314e-08 1.02621e-07)
(1.13777e-09 -2.51495e-09 1.95262e-09)
(3.1748e-09 -7.04135e-09 5.52365e-09)
(5.05229e-09 -1.12745e-08 9.02546e-09)
(6.83909e-09 -1.53799e-08 1.26844e-08)
(8.60026e-09 -1.94848e-08 1.67064e-08)
(1.03999e-08 -2.36772e-08 2.12865e-08)
(1.23056e-08 -2.8004e-08 2.66161e-08)
(1.43932e-08 -3.24651e-08 3.28869e-08)
(1.67497e-08 -3.70009e-08 4.02908e-08)
(1.94755e-08 -4.14724e-08 4.90108e-08)
(2.26781e-08 -4.56299e-08 5.91974e-08)
(2.64596e-08 -4.90699e-08 7.09279e-08)
(3.08848e-08 -5.11855e-08 8.41329e-08)
(3.59148e-08 -5.11373e-08 9.84556e-08)
(4.13414e-08 -4.80192e-08 1.12949e-07)
(4.63027e-08 -4.24158e-08 1.24751e-07)
(1.33674e-09 -2.90737e-09 2.28815e-09)
(3.72793e-09 -8.14433e-09 6.47005e-09)
(5.92611e-09 -1.30546e-08 1.05627e-08)
(8.00917e-09 -1.7839e-08 1.48265e-08)
(1.00493e-08 -2.26558e-08 1.94963e-08)
(1.21182e-08 -2.76252e-08 2.47952e-08)
(1.42904e-08 -3.28296e-08 3.09411e-08)
(1.66484e-08 -3.83128e-08 3.81543e-08)
(1.92866e-08 -4.40765e-08 4.66585e-08)
(2.23127e-08 -5.0071e-08 5.66774e-08)
(2.58422e-08 -5.61777e-08 6.84165e-08)
(2.99864e-08 -6.2173e-08 8.20337e-08)
(3.48298e-08 -6.76417e-08 9.75882e-08)
(4.03352e-08 -7.17428e-08 1.14861e-07)
(4.62021e-08 -7.27784e-08 1.32879e-07)
(5.12087e-08 -6.89216e-08 1.47804e-07)
(1.50733e-09 -3.20178e-09 2.57227e-09)
(4.20117e-09 -8.97438e-09 7.26968e-09)
(6.67006e-09 -1.44019e-08 1.18557e-08)
(8.99696e-09 -1.97149e-08 1.6615e-08)
(1.12592e-08 -2.51008e-08 2.1804e-08)
(1.35321e-08 -3.071e-08 2.76632e-08)
(1.5894e-08 -3.66604e-08 3.44277e-08)
(1.8432e-08 -4.3042e-08 4.23344e-08)
(2.12471e-08 -4.99218e-08 5.16275e-08)
(2.44612e-08 -5.73485e-08 6.256e-08)
(2.82198e-08 -6.53578e-08 7.53859e-08)
(3.27206e-08 -7.39817e-08 9.03772e-08)
(3.8222e-08 -8.32212e-08 1.07798e-07)
(4.50778e-08 -9.29128e-08 1.2786e-07)
(5.35915e-08 -1.02155e-07 1.50214e-07)
(6.22662e-08 -1.07816e-07 1.70532e-07)
(1.64783e-09 -3.38395e-09 2.80203e-09)
(4.58959e-09 -9.4912e-09 7.91437e-09)
(7.2764e-09 -1.52498e-08 1.28909e-08)
(9.79341e-09 -2.09135e-08 1.80322e-08)
(1.22185e-08 -2.66921e-08 2.36049e-08)
(1.46275e-08 -3.27605e-08 2.98579e-08)
(1.70984e-08 -3.92659e-08 3.7031e-08)
(1.97178e-08 -4.63357e-08 4.53633e-08)
(2.25876e-08 -5.40884e-08 5.51002e-08)
(2.58348e-08 -6.26462e-08 6.64959e-08)
(2.96295e-08 -7.21612e-08 7.9823e-08)
(3.42203e-08 -8.28577e-08 9.53927e-08)
(4.00244e-08 -9.51249e-08 1.1362e-07)
(4.7793e-08 -1.09659e-07 1.3512e-07)
(5.88192e-08 -1.2749e-07 1.60616e-07)
(7.26277e-08 -1.46951e-07 1.86892e-07)
(1.38173e-10 -3.16823e-10 2.2453e-10)
(3.85734e-10 -8.85851e-10 6.35413e-10)
(6.14494e-10 -1.41487e-09 1.03886e-09)
(8.33455e-10 -1.92282e-09 1.46172e-09)
(1.05091e-09 -2.42283e-09 1.92792e-09)
(1.27494e-09 -2.92086e-09 2.4599e-09)
(1.51421e-09 -3.41451e-09 3.07882e-09)
(1.77948e-09 -3.89059e-09 3.80501e-09)
(2.08576e-09 -4.31997e-09 4.65718e-09)
(2.45728e-09 -4.64855e-09 5.65078e-09)
(2.93912e-09 -4.7794e-09 6.79543e-09)
(3.6249e-09 -4.53669e-09 8.09465e-09)
(4.72946e-09 -3.57586e-09 9.55748e-09)
(6.73098e-09 -1.16773e-09 1.12172e-08)
(1.05251e-08 4.10752e-09 1.30933e-08)
(1.60876e-08 1.26906e-08 1.44291e-08)
(4.11037e-10 -9.40626e-10 6.67491e-10)
(1.14726e-09 -2.63036e-09 1.88844e-09)
(1.82738e-09 -4.20229e-09 3.08725e-09)
(2.47762e-09 -5.71336e-09 4.34252e-09)
(3.12215e-09 -7.20292e-09 5.72521e-09)
(3.78452e-09 -8.69065e-09 7.30128e-09)
(4.48976e-09 -1.01728e-08 9.13324e-09)
(5.26744e-09 -1.16151e-08 1.12802e-08)
(6.15665e-09 -1.29405e-08 1.37952e-08)
(7.21539e-09 -1.40074e-08 1.67178e-08)
(8.5403e-09 -1.45762e-08 2.00596e-08)
(1.03121e-08 -1.42589e-08 2.37843e-08)
(1.28596e-08 -1.24665e-08 2.7758e-08)
(1.67217e-08 -8.43242e-09 3.16453e-08)
(2.23077e-08 -1.77773e-09 3.45785e-08)
(2.7983e-08 4.97663e-09 3.48844e-08)
(6.74206e-10 -1.53647e-09 1.09349e-09)
(1.88152e-09 -4.29788e-09 3.09327e-09)
(2.99598e-09 -6.87052e-09 5.05553e-09)
(4.05961e-09 -9.34945e-09 7.10801e-09)
(5.11126e-09 -1.18026e-08 9.36606e-09)
(6.1885e-09 -1.42681e-08 1.1937e-08)
(7.33029e-09 -1.67497e-08 1.49226e-08)
(8.58049e-09 -1.92077e-08 1.84196e-08)
(9.99195e-09 -2.15439e-08 2.25142e-08)
(1.1633e-08 -2.35771e-08 2.72696e-08)
(1.35991e-08 -2.50127e-08 3.26992e-08)
(1.60344e-08 -2.54215e-08 3.87215e-08)
(1.91556e-08 -2.42837e-08 4.50783e-08)
(2.32203e-08 -2.12604e-08 5.11816e-08)
(2.81958e-08 -1.70364e-08 5.58618e-08)
(3.25339e-08 -1.45676e-08 5.74281e-08)
(9.21659e-10 -2.08558e-09 1.49213e-09)
(2.57165e-09 -5.83641e-09 4.22036e-09)
(4.09274e-09 -9.33772e-09 6.89442e-09)
(5.54103e-09 -1.2723e-08 9.6872e-09)
(6.96803e-09 -1.60912e-08 1.27539e-08)
(8.4234e-09 -1.95048e-08 1.62394e-08)
(9.95762e-09 -2.29863e-08 2.02819e-08)
(1.16247e-08 -2.65098e-08 2.50132e-08)
(1.34837e-08 -2.99871e-08 3.05528e-08)
(1.55981e-08 -3.3246e-08 3.6991e-08)
(1.80312e-08 -3.60063e-08 4.4354e-08)
(2.08323e-08 -3.78718e-08 5.254e-08)
(2.40026e-08 -3.83945e-08 6.12063e-08)
(2.74088e-08 -3.73454e-08 6.95659e-08)
(3.05846e-08 -3.53794e-08 7.60893e-08)
(3.24441e-08 -3.46309e-08 7.85865e-08)
(1.14826e-09 -2.56942e-09 1.85456e-09)
(3.20285e-09 -7.19406e-09 5.24373e-09)
(5.09356e-09 -1.15211e-08 8.56097e-09)
(6.88808e-09 -1.57218e-08 1.20176e-08)
(8.64852e-09 -1.99277e-08 1.58033e-08)
(1.04345e-08 -2.4231e-08 2.00954e-08)
(1.23059e-08 -2.86829e-08 2.50632e-08)
(1.43252e-08 -3.32884e-08 3.08702e-08)
(1.65569e-08 -3.79969e-08 3.76683e-08)
(1.90616e-08 -4.26858e-08 4.55803e-08)
(2.18792e-08 -4.7139e-08 5.46636e-08)
(2.49903e-08 -5.10272e-08 6.48379e-08)
(2.82379e-08 -5.39097e-08 7.57505e-08)
(3.11875e-08 -5.53168e-08 8.65075e-08)
(3.29987e-08 -5.51094e-08 9.52353e-08)
(3.28515e-08 -5.43701e-08 9.89988e-08)
(1.34976e-09 -2.97005e-09 2.17349e-09)
(3.76308e-09 -8.32021e-09 6.14288e-09)
(5.97883e-09 -1.33389e-08 1.00205e-08)
(8.0736e-09 -1.82329e-08 1.40492e-08)
(1.01175e-08 -2.31659e-08 1.8446e-08)
(1.21778e-08 -2.82619e-08 2.34133e-08)
(1.4322e-08 -3.36069e-08 2.91452e-08)
(1.66205e-08 -3.92481e-08 3.583e-08)
(1.91471e-08 -4.51912e-08 4.36478e-08)
(2.19729e-08 -5.13923e-08 5.27553e-08)
(2.51515e-08 -5.77448e-08 6.32554e-08)
(2.86844e-08 -6.40528e-08 7.51356e-08)
(3.2433e-08 -6.99641e-08 8.81256e-08)
(3.5954e-08 -7.48228e-08 1.01405e-07)
(3.8232e-08 -7.74843e-08 1.12974e-07)
(3.79408e-08 -7.70138e-08 1.19048e-07)
(1.52293e-09 -3.27067e-09 2.44372e-09)
(4.24351e-09 -9.16766e-09 6.90315e-09)
(6.73438e-09 -1.47143e-08 1.1249e-08)
(9.07801e-09 -2.01481e-08 1.57472e-08)
(1.13495e-08 -2.56616e-08 2.06341e-08)
(1.3621e-08 -3.14093e-08 2.61289e-08)
(1.5965e-08 -3.75116e-08 3.24409e-08)
(1.84587e-08 -4.406e-08 3.9774e-08)
(2.11863e-08 -5.11209e-08 4.83254e-08)
(2.42394e-08 -5.87394e-08 5.82767e-08)
(2.77185e-08 -6.69451e-08 6.97764e-08)
(3.17192e-08 -7.57507e-08 8.28837e-08)
(3.63189e-08 -8.51265e-08 9.74866e-08)
(4.14772e-08 -9.48458e-08 1.12997e-07)
(4.67029e-08 -1.03973e-07 1.27591e-07)
(5.01371e-08 -1.09751e-07 1.36699e-07)
(1.66585e-09 -3.45665e-09 2.66242e-09)
(4.63884e-09 -9.6952e-09 7.51662e-09)
(7.35221e-09 -1.55798e-08 1.22337e-08)
(9.89072e-09 -2.13713e-08 1.70939e-08)
(1.23312e-08 -2.7285e-08 2.2344e-08)
(1.47469e-08 -3.34995e-08 2.82106e-08)
(1.72117e-08 -4.0164e-08 3.49076e-08)
(1.98048e-08 -4.74058e-08 4.26411e-08)
(2.26156e-08 -5.5339e-08 5.16095e-08)
(2.57505e-08 -6.40767e-08 6.1998e-08)
(2.93426e-08 -7.37501e-08 7.39637e-08)
(3.35736e-08 -8.45433e-08 8.76122e-08)
(3.87111e-08 -9.67499e-08 1.0293e-07)
(4.51635e-08 -1.10832e-07 1.19579e-07)
(5.33353e-08 -1.27189e-07 1.36164e-07)
(6.18629e-08 -1.43449e-07 1.47998e-07)
(1.3868e-10 -3.22759e-10 2.04576e-10)
(3.86865e-10 -9.02535e-10 5.78601e-10)
(6.15583e-10 -1.44189e-09 9.45404e-10)
(8.33098e-10 -1.9603e-09 1.32843e-09)
(1.04703e-09 -2.47156e-09 1.74911e-09)
(1.26412e-09 -2.98249e-09 2.22652e-09)
(1.49096e-09 -3.49215e-09 2.77801e-09)
(1.73458e-09 -3.98986e-09 3.41874e-09)
(2.00349e-09 -4.452e-09 4.15996e-09)
(2.30995e-09 -4.83607e-09 5.00503e-09)
(2.67568e-09 -5.0721e-09 5.94234e-09)
(3.14585e-09 -5.04602e-09 6.93253e-09)
(3.81425e-09 -4.56979e-09 7.88282e-09)
(4.87629e-09 -3.30856e-09 8.6046e-09)
(6.60945e-09 -7.05013e-10 8.68831e-09)
(8.68975e-09 3.26486e-09 7.44395e-09)
(4.12559e-10 -9.58163e-10 6.08089e-10)
(1.15087e-09 -2.67967e-09 1.71981e-09)
(1.83081e-09 -4.28201e-09 2.80921e-09)
(2.47713e-09 -5.82389e-09 3.94664e-09)
(3.11167e-09 -7.34648e-09 5.19436e-09)
(3.75437e-09 -8.8719e-09 6.60896e-09)
(4.42413e-09 -1.04e-08 8.24161e-09)
(5.1402e-09 -1.19034e-08 1.01367e-08)
(5.92366e-09 -1.3319e-08 1.23261e-08)
(6.80052e-09 -1.45348e-08 1.4817e-08)
(7.80907e-09 -1.53736e-08 1.75674e-08)
(9.01053e-09 -1.55837e-08 2.04386e-08)
(1.05091e-08 -1.48532e-08 2.31154e-08)
(1.24035e-08 -1.29297e-08 2.49347e-08)
(1.45251e-08 -1.00219e-08 2.47026e-08)
(1.57904e-08 -7.69719e-09 2.15472e-08)
(6.76889e-10 -1.56494e-09 9.96196e-10)
(1.88802e-09 -4.37787e-09 2.81717e-09)
(3.00279e-09 -6.99984e-09 4.60048e-09)
(4.06092e-09 -9.52853e-09 6.46048e-09)
(5.0978e-09 -1.20347e-08 8.49845e-09)
(6.14535e-09 -1.45598e-08 1.08065e-08)
(7.23345e-09 -1.71124e-08 1.34683e-08)
(8.39058e-09 -1.96616e-08 1.65573e-08)
(9.64347e-09 -2.21268e-08 2.01273e-08)
(1.10153e-08 -2.43624e-08 2.41933e-08)
(1.25216e-08 -2.61483e-08 2.86934e-08)
(1.41616e-08 -2.72034e-08 3.34222e-08)
(1.58924e-08 -2.72827e-08 3.79172e-08)
(1.75468e-08 -2.64602e-08 4.12931e-08)
(1.86547e-08 -2.56572e-08 4.21837e-08)
(1.84901e-08 -2.65381e-08 3.99255e-08)
(9.25771e-10 -2.12394e-09 1.35963e-09)
(2.58178e-09 -5.94426e-09 3.84374e-09)
(4.10441e-09 -9.51178e-09 6.27446e-09)
(5.54702e-09 -1.29638e-08 8.80566e-09)
(6.95672e-09 -1.64022e-08 1.1574e-08)
(8.37645e-09 -1.98933e-08 1.47041e-08)
(9.84563e-09 -2.34643e-08 1.831e-08)
(1.14e-08 -2.70972e-08 2.2493e-08)
(1.30682e-08 -3.07191e-08 2.73305e-08)
(1.48623e-08 -3.41894e-08 3.2853e-08)
(1.67571e-08 -3.72911e-08 3.8997e-08)
(1.86514e-08 -3.97521e-08 4.55273e-08)
(2.02926e-08 -4.13473e-08 5.19071e-08)
(2.11682e-08 -4.21664e-08 5.71266e-08)
(2.04891e-08 -4.30214e-08 5.96615e-08)
(1.80623e-08 -4.49991e-08 5.85936e-08)
(1.15405e-09 -2.61639e-09 1.68996e-09)
(3.21744e-09 -7.32587e-09 4.77644e-09)
(5.11192e-09 -1.17337e-08 7.79214e-09)
(6.90201e-09 -1.60154e-08 1.09256e-08)
(8.64533e-09 -2.03057e-08 1.4344e-08)
(1.03942e-08 -2.47001e-08 1.81997e-08)
(1.21968e-08 -2.92531e-08 2.26335e-08)
(1.40966e-08 -3.39748e-08 2.7772e-08)
(1.61266e-08 -3.88236e-08 3.37169e-08)
(1.82953e-08 -4.36949e-08 4.05203e-08)
(2.05546e-08 -4.84107e-08 4.8136e-08)
(2.27378e-08 -5.27178e-08 5.63343e-08)
(2.44439e-08 -5.63197e-08 6.45597e-08)
(2.48831e-08 -5.89821e-08 7.17294e-08)
(2.29184e-08 -6.07714e-08 7.61191e-08)
(1.85823e-08 -6.21821e-08 7.63303e-08)
(1.35741e-09 -3.02394e-09 1.9808e-09)
(3.783e-09 -8.47153e-09 5.5963e-09)
(6.00544e-09 -1.35828e-08 9.1221e-09)
(8.09859e-09 -1.8569e-08 1.2775e-08)
(1.0128e-08 -2.35972e-08 1.67463e-08)
(1.21538e-08 -2.87938e-08 2.12105e-08)
(1.42325e-08 -3.42461e-08 2.63292e-08)
(1.64164e-08 -4.0002e-08 3.22492e-08)
(1.87493e-08 -4.60676e-08 3.90935e-08)
(2.1254e-08 -5.24002e-08 4.69383e-08)
(2.39024e-08 -5.88976e-08 5.57643e-08)
(2.65541e-08 -6.53754e-08 6.53709e-08)
(2.88404e-08 -7.15182e-08 7.52356e-08)
(2.99578e-08 -7.67526e-08 8.42541e-08)
(2.8565e-08 -8.00893e-08 9.05336e-08)
(2.41332e-08 -8.05382e-08 9.21539e-08)
(1.53271e-09 -3.32969e-09 2.2275e-09)
(4.26923e-09 -9.33328e-09 6.29001e-09)
(6.77057e-09 -1.4981e-08 1.02424e-08)
(9.11643e-09 -2.05152e-08 1.43221e-08)
(1.13781e-08 -2.61316e-08 1.87376e-08)
(1.36211e-08 -3.19858e-08 2.36782e-08)
(1.59084e-08 -3.81977e-08 2.93185e-08)
(1.83009e-08 -4.48553e-08 3.5818e-08)
(2.0857e-08 -5.20168e-08 4.33128e-08)
(2.36269e-08 -5.97123e-08 5.18959e-08)
(2.6635e-08 -6.7942e-08 6.1568e-08)
(2.9858e-08 -7.667e-08 7.21753e-08)
(3.31456e-08 -8.57706e-08 8.32258e-08)
(3.60994e-08 -9.48603e-08 9.36261e-08)
(3.78628e-08 -1.02832e-07 1.0129e-07)
(3.7354e-08 -1.07148e-07 1.03689e-07)
(1.67773e-09 -3.51874e-09 2.42729e-09)
(4.67074e-09 -9.86943e-09 6.85032e-09)
(7.39853e-09 -1.58604e-08 1.11414e-08)
(9.9439e-09 -2.17572e-08 1.55506e-08)
(1.23803e-08 -2.77781e-08 2.02962e-08)
(1.47757e-08 -3.41023e-08 2.5574e-08)
(1.71957e-08 -4.08765e-08 3.15629e-08)
(1.97065e-08 -4.82213e-08 3.84242e-08)
(2.23764e-08 -5.62367e-08 4.62947e-08)
(2.52765e-08 -6.5009e-08 5.52672e-08)
(2.8481e-08 -7.46202e-08 6.53526e-08)
(3.20642e-08 -8.51618e-08 7.64049e-08)
(3.60946e-08 -9.67471e-08 8.7969e-08)
(4.06231e-08 -1.09492e-07 9.89576e-08)
(4.5608e-08 -1.23272e-07 1.07098e-07)
(5.01917e-08 -1.35799e-07 1.09028e-07)
(1.38698e-10 -3.27712e-10 1.77459e-10)
(3.86677e-10 -9.16475e-10 5.0179e-10)
(6.14311e-10 -1.46442e-09 8.19089e-10)
(8.29398e-10 -1.99159e-09 1.14982e-09)
(1.03846e-09 -2.5123e-09 1.51136e-09)
(1.24686e-09 -3.03416e-09 1.91938e-09)
(1.45887e-09 -3.55755e-09 2.38715e-09)
(1.67773e-09 -4.07435e-09 2.92494e-09)
(1.90559e-09 -4.56593e-09 3.53782e-09)
(2.14385e-09 -5.00008e-09 4.22116e-09)
(2.39454e-09 -5.32769e-09 4.9525e-09)
(2.66509e-09 -5.47756e-09 5.67822e-09)
(2.98211e-09 -5.34616e-09 6.2992e-09)
(3.40322e-09 -4.76081e-09 6.64508e-09)
(4.00833e-09 -3.39502e-09 6.49507e-09)
(4.6265e-09 -1.01787e-09 5.73728e-09)
(4.12703e-10 -9.72812e-10 5.27535e-10)
(1.15044e-09 -2.72083e-09 1.49132e-09)
(1.82756e-09 -4.34859e-09 2.43436e-09)
(2.46681e-09 -5.91617e-09 3.41598e-09)
(3.08742e-09 -7.46633e-09 4.48844e-09)
(3.70513e-09 -9.02326e-09 5.69752e-09)
(4.33236e-09 -1.05903e-08 7.08251e-09)
(4.97773e-09 -1.21466e-08 8.67365e-09)
(5.64493e-09 -1.36419e-08 1.04854e-08)
(6.33085e-09 -1.49896e-08 1.25028e-08)
(7.02381e-09 -1.60618e-08 1.46561e-08)
(7.70624e-09 -1.66954e-08 1.67847e-08)
(8.34992e-09 -1.67239e-08 1.85709e-08)
(8.90614e-09 -1.60496e-08 1.94891e-08)
(9.23289e-09 -1.47838e-08 1.88683e-08)
(9.08228e-09 -1.35036e-08 1.67957e-08)
(6.77351e-10 -1.58868e-09 8.64315e-10)
(1.88807e-09 -4.44468e-09 2.44304e-09)
(2.99878e-09 -7.10765e-09 3.98678e-09)
(4.04636e-09 -9.67762e-09 5.59228e-09)
(5.06195e-09 -1.22275e-08 7.34418e-09)
(6.07129e-09 -1.48014e-08 9.31726e-09)
(7.09443e-09 -1.74125e-08 1.15761e-08)
(8.1442e-09 -2.00379e-08 1.41715e-08)
(9.22216e-09 -2.26123e-08 1.71294e-08)
(1.0311e-08 -2.50204e-08 2.04308e-08)
(1.13626e-08 -2.70975e-08 2.39764e-08)
(1.22805e-08 -2.86565e-08 2.75315e-08)
(1.28965e-08 -2.95808e-08 3.06593e-08)
(1.29573e-08 -3.00195e-08 3.26868e-08)
(1.22065e-08 -3.06216e-08 3.29198e-08)
(1.09108e-08 -3.20817e-08 3.17e-08)
(9.26857e-10 -2.15594e-09 1.17955e-09)
(2.58329e-09 -6.03407e-09 3.33384e-09)
(4.10166e-09 -9.65658e-09 5.43806e-09)
(5.53163e-09 -1.31632e-08 7.6232e-09)
(6.91534e-09 -1.66586e-08 1.00034e-08)
(8.28802e-09 -2.02115e-08 1.268e-08)
(9.67726e-09 -2.3853e-08 1.57414e-08)
(1.11002e-08 -2.75719e-08 1.92585e-08)
(1.25564e-08 -3.13075e-08 2.3272e-08)
(1.4013e-08 -3.49433e-08 2.77674e-08)
(1.5378e-08 -3.83059e-08 3.26343e-08)
(1.64584e-08 -4.11948e-08 3.76045e-08)
(1.69019e-08 -4.34742e-08 4.21865e-08)
(1.61786e-08 -4.52651e-08 4.56511e-08)
(1.3825e-08 -4.71369e-08 4.72764e-08)
(1.06373e-08 -4.94831e-08 4.72431e-08)
(1.15613e-09 -2.65541e-09 1.46642e-09)
(3.22157e-09 -7.43544e-09 4.14327e-09)
(5.11256e-09 -1.19099e-08 6.75439e-09)
(6.88983e-09 -1.62572e-08 9.46e-09)
(8.60539e-09 -2.06145e-08 1.23998e-08)
(1.03033e-08 -2.50791e-08 1.56981e-08)
(1.20192e-08 -2.97074e-08 1.94642e-08)
(1.3777e-08 -3.45123e-08 2.37879e-08)
(1.558e-08 -3.94571e-08 2.87256e-08)
(1.73917e-08 -4.44472e-08 3.42738e-08)
(1.91005e-08 -4.93237e-08 4.03251e-08)
(2.04571e-08 -5.38652e-08 4.66039e-08)
(2.09834e-08 -5.7813e-08 5.25975e-08)
(1.99109e-08 -6.09352e-08 5.75364e-08)
(1.6469e-08 -6.31482e-08 6.06177e-08)
(1.16277e-08 -6.45556e-08 6.17359e-08)
(1.36088e-09 -3.06865e-09 1.71915e-09)
(3.79077e-09 -8.59683e-09 4.85522e-09)
(6.01172e-09 -1.37839e-08 7.90862e-09)
(8.09352e-09 -1.8844e-08 1.10634e-08)
(1.00963e-08 -2.39462e-08 1.44798e-08)
(1.2072e-08 -2.92175e-08 1.83001e-08)
(1.40648e-08 -3.47443e-08 2.26503e-08)
(1.61082e-08 -4.05721e-08 2.76352e-08)
(1.8218e-08 -4.67022e-08 3.33252e-08)
(2.03748e-08 -5.30839e-08 3.97282e-08)
(2.24921e-08 -5.96027e-08 4.67459e-08)
(2.43583e-08 -6.60566e-08 5.41085e-08)
(2.55327e-08 -7.20934e-08 6.12792e-08)
(2.52444e-08 -7.70839e-08 6.74391e-08)
(2.25165e-08 -7.99507e-08 7.16588e-08)
(1.7729e-08 -7.96965e-08 7.36121e-08)
(1.53777e-09 -3.37846e-09 1.93355e-09)
(4.28163e-09 -9.46993e-09 5.45807e-09)
(6.78427e-09 -1.52e-08 8.88161e-09)
(9.1218e-09 -2.08138e-08 1.2406e-08)
(1.13603e-08 -2.65084e-08 1.62058e-08)
(1.3558e-08 -3.24388e-08 2.04358e-08)
(1.57662e-08 -3.87213e-08 2.52326e-08)
(1.80294e-08 -4.54363e-08 3.07099e-08)
(2.03804e-08 -5.26277e-08 3.69458e-08)
(2.28315e-08 -6.03005e-08 4.39551e-08)
(2.53592e-08 -6.84148e-08 5.16499e-08)
(2.78659e-08 -7.68606e-08 5.97447e-08)
(3.01387e-08 -8.53986e-08 6.76855e-08)
(3.17879e-08 -9.34804e-08 7.45296e-08)
(3.22762e-08 -9.98652e-08 7.90848e-08)
(3.1408e-08 -1.02384e-07 8.081e-08)
(1.68464e-09 -3.56989e-09 2.10736e-09)
(4.6883e-09 -1.00127e-08 5.94544e-09)
(7.42092e-09 -1.60898e-08 9.66318e-09)
(9.96195e-09 -2.20694e-08 1.34734e-08)
(1.23804e-08 -2.81705e-08 1.7559e-08)
(1.47377e-08 -3.45705e-08 2.20805e-08)
(1.70899e-08 -4.14107e-08 2.71779e-08)
(1.94885e-08 -4.87999e-08 3.29662e-08)
(2.19803e-08 -5.68175e-08 3.95227e-08)
(2.46054e-08 -6.55137e-08 4.68619e-08)
(2.73928e-08 -7.49094e-08 5.48868e-08)
(3.03554e-08 -8.49938e-08 6.33124e-08)
(3.3489e-08 -9.5713e-08 7.15389e-08)
(3.68155e-08 -1.06944e-07 7.84933e-08)
(4.04764e-08 -1.18343e-07 8.25723e-08)
(4.43843e-08 -1.28198e-07 8.26952e-08)
(1.38409e-10 -3.31644e-10 1.44319e-10)
(3.85559e-10 -9.27499e-10 4.07833e-10)
(6.11664e-10 -1.4822e-09 6.65563e-10)
(8.23809e-10 -2.01638e-09 9.33128e-10)
(1.0276e-09 -2.54447e-09 1.22476e-09)
(1.22706e-09 -3.07489e-09 1.55208e-09)
(1.42441e-09 -3.60897e-09 1.92467e-09)
(1.61979e-09 -4.14055e-09 2.3489e-09)
(1.81062e-09 -4.65431e-09 2.82599e-09)
(1.99111e-09 -5.12496e-09 3.34829e-09)
(2.15257e-09 -5.51407e-09 3.89315e-09)
(2.28776e-09 -5.76969e-09 4.41673e-09)
(2.39928e-09 -5.81625e-09 4.84632e-09)
(2.52242e-09 -5.51505e-09 5.1025e-09)
(2.73019e-09 -4.55335e-09 5.15153e-09)
(2.98785e-09 -2.57241e-09 5.06905e-09)
(4.11897e-10 -9.84423e-10 4.28969e-10)
(1.14745e-09 -2.75346e-09 1.21253e-09)
(1.82017e-09 -4.40137e-09 1.97777e-09)
(2.45097e-09 -5.98917e-09 2.77261e-09)
(3.0565e-09 -7.56114e-09 3.63763e-09)
(3.64849e-09 -9.1426e-09 4.6077e-09)
(4.23364e-09 -1.07397e-08 5.71105e-09)
(4.81191e-09 -1.23363e-08 6.9666e-09)
(5.3741e-09 -1.38911e-08 8.37782e-09)
(5.89822e-09 -1.53326e-08 9.92119e-09)
(6.34789e-09 -1.65593e-08 1.15297e-08)
(6.67268e-09 -1.74447e-08 1.30661e-08)
(6.8245e-09 -1.78563e-08 1.43116e-08)
(6.78597e-09 -1.76737e-08 1.49626e-08)
(6.6154e-09 -1.6806e-08 1.4763e-08)
(6.46517e-09 -1.54382e-08 1.39308e-08)
(6.76289e-10 -1.60755e-09 7.02891e-10)
(1.88395e-09 -4.49768e-09 1.98644e-09)
(2.98811e-09 -7.19309e-09 3.23952e-09)
(4.02282e-09 -9.79554e-09 4.53951e-09)
(5.01502e-09 -1.23791e-08 5.95269e-09)
(5.9847e-09 -1.49903e-08 7.53598e-09)
(6.94326e-09 -1.76453e-08 9.33604e-09)
(7.89079e-09 -2.03267e-08 1.1385e-08)
(8.81037e-09 -2.29791e-08 1.36909e-08)
(9.65992e-09 -2.55046e-08 1.62213e-08)
(1.03603e-08 -2.7765e-08 1.88773e-08)
(1.07871e-08 -2.96065e-08 2.14646e-08)
(1.07766e-08 -3.09258e-08 2.36766e-08)
(1.01874e-08 -3.17927e-08 2.5137e-08)
(9.09571e-09 -3.25766e-08 2.56195e-08)
(8.16072e-09 -3.36619e-08 2.5506e-08)
(9.25923e-10 -2.18133e-09 9.59533e-10)
(2.57913e-09 -6.10537e-09 2.71089e-09)
(4.08981e-09 -9.77119e-09 4.41934e-09)
(5.50386e-09 -1.33203e-08 6.18893e-09)
(6.85858e-09 -1.68591e-08 8.10927e-09)
(8.18189e-09 -2.0458e-08 1.02576e-08)
(9.49104e-09 -2.41503e-08 1.26981e-08)
(1.07881e-08 -2.79284e-08 1.54763e-08)
(1.20519e-08 -3.17385e-08 1.8608e-08)
(1.32225e-08 -3.54749e-08 2.20587e-08)
(1.418e-08 -3.89812e-08 2.57142e-08)
(1.47149e-08 -4.20724e-08 2.93511e-08)
(1.45128e-08 -4.46036e-08 3.2626e-08)
(1.32195e-08 -4.66041e-08 3.51424e-08)
(1.07702e-08 -4.84146e-08 3.66843e-08)
(8.27208e-09 -5.02882e-08 3.74863e-08)
(1.1557e-09 -2.68638e-09 1.19298e-09)
(3.21858e-09 -7.52219e-09 3.36967e-09)
(5.1018e-09 -1.20489e-08 5.48994e-09)
(6.86207e-09 -1.64467e-08 7.68142e-09)
(8.54572e-09 -2.0854e-08 1.00537e-08)
(1.01893e-08 -2.53689e-08 1.27018e-08)
(1.18171e-08 -3.0048e-08 1.57053e-08)
(1.34376e-08 -3.4904e-08 1.91226e-08)
(1.50328e-08 -3.98999e-08 2.2978e-08)
(1.65413e-08 -4.49409e-08 2.72402e-08)
(1.78276e-08 -4.98663e-08 3.179e-08)
(1.86392e-08 -5.44462e-08 3.63899e-08)
(1.85591e-08 -5.83906e-08 4.06726e-08)
(1.70309e-08 -6.1386e-08 4.42228e-08)
(1.37062e-08 -6.32145e-08 4.67941e-08)
(9.79028e-09 -6.40053e-08 4.84339e-08)
(1.36134e-09 -3.10403e-09 1.39873e-09)
(3.79019e-09 -8.69584e-09 3.94939e-09)
(6.00451e-09 -1.39419e-08 6.42926e-09)
(8.06977e-09 -1.90583e-08 8.98506e-09)
(1.00408e-08 -2.42146e-08 1.17426e-08)
(1.19617e-08 -2.95372e-08 1.4811e-08)
(1.38658e-08 -3.511e-08 1.82819e-08)
(1.57713e-08 -4.09733e-08 2.2224e-08)
(1.76743e-08 -4.71195e-08 2.66689e-08)
(1.95331e-08 -5.34837e-08 3.15893e-08)
(2.12427e-08 -5.9928e-08 3.6864e-08)
(2.25922e-08 -6.62108e-08 4.22334e-08)
(2.3215e-08 -7.19241e-08 4.73046e-08)
(2.25581e-08 -7.6364e-08 5.15985e-08)
(2.0066e-08 -7.84265e-08 5.47998e-08)
(1.63242e-08 -7.73669e-08 5.68926e-08)
(1.53944e-09 -3.41697e-09 1.5735e-09)
(4.28448e-09 -9.57754e-09 4.44058e-09)
(6.78251e-09 -1.53714e-08 7.22161e-09)
(9.10577e-09 -2.10451e-08 1.00774e-08)
(1.13149e-08 -2.67957e-08 1.31456e-08)
(1.34611e-08 -3.27761e-08 1.65446e-08)
(1.55857e-08 -3.90974e-08 2.03741e-08)
(1.7719e-08 -4.583e-08 2.47084e-08)
(1.98765e-08 -5.3001e-08 2.9583e-08)
(2.20513e-08 -6.05883e-08 3.49719e-08)
(2.42008e-08 -6.85061e-08 4.07402e-08)
(2.62358e-08 -7.65814e-08 4.66169e-08)
(2.80032e-08 -8.4484e-08 5.2134e-08)
(2.9313e-08 -9.15839e-08 5.66862e-08)
(3.00154e-08 -9.66919e-08 5.9767e-08)
(3.01179e-08 -9.81434e-08 6.14055e-08)
(1.68779e-09 -3.61016e-09 1.71526e-09)
(4.69534e-09 -1.01252e-08 4.83797e-09)
(7.42623e-09 -1.62686e-08 7.85852e-09)
(9.95617e-09 -2.23099e-08 1.09469e-08)
(1.23497e-08 -2.84673e-08 1.42471e-08)
(1.46618e-08 -3.49152e-08 1.78826e-08)
(1.69395e-08 -4.17872e-08 2.19553e-08)
(1.92224e-08 -4.91792e-08 2.65403e-08)
(2.15421e-08 -5.71479e-08 3.16715e-08)
(2.39212e-08 -6.57072e-08 3.73163e-08)
(2.63741e-08 -7.48219e-08 4.33356e-08)
(2.89129e-08 -8.43997e-08 4.94246e-08)
(3.15793e-08 -9.42823e-08 5.50561e-08)
(3.45467e-08 -1.04257e-07 5.94563e-08)
(3.82811e-08 -1.14071e-07 6.17883e-08)
(4.29226e-08 -1.22636e-07 6.18781e-08)
(1.37967e-10 -3.34511e-10 1.06413e-10)
(3.84132e-10 -9.35574e-10 3.00805e-10)
(6.08598e-10 -1.49531e-09 4.90323e-10)
(8.17841e-10 -2.03424e-09 6.87085e-10)
(1.01709e-09 -2.56821e-09 9.00735e-10)
(1.20882e-09 -3.10485e-09 1.13948e-09)
(1.39385e-09 -3.64649e-09 1.40963e-09)
(1.57023e-09 -4.18806e-09 1.71484e-09)
(1.73261e-09 -4.71635e-09 2.05463e-09)
(1.87178e-09 -5.20864e-09 2.4219e-09)
(1.9759e-09 -5.63098e-09 2.79945e-09)
(2.03554e-09 -5.93538e-09 3.15703e-09)
(2.05778e-09 -6.04831e-09 3.45837e-09)
(2.08865e-09 -5.82166e-09 3.67295e-09)
(2.22586e-09 -4.92319e-09 3.83538e-09)
(2.46436e-09 -2.96426e-09 4.00391e-09)
(4.10712e-10 -9.92981e-10 3.16444e-10)
(1.14345e-09 -2.77753e-09 8.93978e-10)
(1.81145e-09 -4.43996e-09 1.4576e-09)
(2.43456e-09 -6.04345e-09 2.04171e-09)
(3.02623e-09 -7.63078e-09 2.67542e-09)
(3.59579e-09 -9.22974e-09 3.38299e-09)
(4.14542e-09 -1.08476e-08 4.18306e-09)
(4.66929e-09 -1.24712e-08 5.08651e-09)
(5.15057e-09 -1.40635e-08 6.09184e-09)
(5.559e-09 -1.556e-08 7.17755e-09)
(5.85116e-09 -1.68668e-08 8.29151e-09)
(5.98012e-09 -1.78628e-08 9.34488e-09)
(5.92281e-09 -1.84015e-08 1.02044e-08)
(5.73405e-09 -1.83038e-08 1.07237e-08)
(5.60134e-09 -1.73538e-08 1.08021e-08)
(5.72588e-09 -1.56847e-08 1.05214e-08)
(6.74598e-10 -1.62151e-09 5.18516e-10)
(1.87814e-09 -4.53684e-09 1.46473e-09)
(2.97552e-09 -7.25651e-09 2.38768e-09)
(3.99755e-09 -9.88212e-09 3.34309e-09)
(4.96879e-09 -1.24906e-08 4.37853e-09)
(5.90377e-09 -1.5128e-08 5.53352e-09)
(6.80768e-09 -1.78126e-08 6.83905e-09)
(7.67204e-09 -2.05302e-08 8.31386e-09)
(8.46955e-09 -2.32295e-08 9.95736e-09)
(9.14741e-09 -2.58188e-08 1.17383e-08)
(9.62206e-09 -2.81655e-08 1.35809e-08)
(9.78295e-09 -3.01135e-08 1.53541e-08)
(9.52345e-09 -3.15248e-08 1.6875e-08)
(8.83302e-09 -3.23759e-08 1.7957e-08)
(7.97651e-09 -3.28811e-08 1.85251e-08)
(7.58446e-09 -3.34473e-08 1.87408e-08)
(9.24072e-10 -2.2002e-09 7.07724e-10)
(2.5726e-09 -6.15821e-09 1.99933e-09)
(4.0747e-09 -9.85571e-09 3.25763e-09)
(5.47364e-09 -1.34363e-08 4.55843e-09)
(6.80149e-09 -1.70056e-08 5.96555e-09)
(8.08127e-09 -2.06358e-08 7.53299e-09)
(9.32221e-09 -2.43609e-08 9.30342e-09)
(1.05165e-08 -2.81744e-08 1.13039e-08)
(1.16312e-08 -3.20238e-08 1.35369e-08)
(1.25969e-08 -3.58046e-08 1.59667e-08)
(1.32938e-08 -3.93579e-08 1.85041e-08)
(1.35407e-08 -4.2485e-08 2.09959e-08)
(1.31099e-08 -4.49982e-08 2.32356e-08)
(1.18192e-08 -4.68303e-08 2.50284e-08)
(9.81602e-09 -4.82035e-08 2.63036e-08)
(8.08338e-09 -4.94788e-08 2.71039e-08)
(1.15402e-09 -2.70932e-09 8.80103e-10)
(3.21244e-09 -7.58652e-09 2.48548e-09)
(5.08683e-09 -1.21517e-08 4.04744e-09)
(6.82979e-09 -1.65854e-08 5.65847e-09)
(8.48408e-09 -2.10278e-08 7.39708e-09)
(1.00792e-08 -2.5576e-08 9.32958e-09)
(1.16317e-08 -3.02857e-08 1.15091e-08)
(1.31392e-08 -3.51675e-08 1.39705e-08)
(1.45729e-08 -4.01804e-08 1.67203e-08)
(1.58634e-08 -4.52227e-08 1.97218e-08)
(1.68812e-08 -5.01205e-08 2.28783e-08)
(1.74135e-08 -5.46193e-08 2.60202e-08)
(1.7148e-08 -5.83815e-08 2.89229e-08)
(1.57253e-08 -6.10239e-08 3.13786e-08)
(1.30126e-08 -6.22759e-08 3.32996e-08)
(1.00207e-08 -6.24421e-08 3.46103e-08)
(1.36027e-09 -3.1303e-09 1.03213e-09)
(3.78548e-09 -8.76909e-09 2.91354e-09)
(5.99125e-09 -1.40582e-08 4.74066e-09)
(8.0399e-09 -1.9215e-08 6.61988e-09)
(9.98061e-09 -2.44079e-08 8.64123e-09)
(1.18521e-08 -2.97628e-08 1.08811e-08)
(1.36792e-08 -3.536e-08 1.34007e-08)
(1.54703e-08 -4.12338e-08 1.62411e-08)
(1.72114e-08 -4.73664e-08 1.94121e-08)
(1.88547e-08 -5.36762e-08 2.28763e-08)
(2.03041e-08 -5.99998e-08 2.6527e-08)
(2.13949e-08 -6.60607e-08 3.01772e-08)
(2.18701e-08 -7.14041e-08 3.35662e-08)
(2.13782e-08 -7.52901e-08 3.64417e-08)
(1.95777e-08 -7.66513e-08 3.86806e-08)
(1.6834e-08 -7.5009e-08 4.02094e-08)
(1.53921e-09 -3.44547e-09 1.16124e-09)
(4.28221e-09 -9.65702e-09 3.27641e-09)
(6.77336e-09 -1.54973e-08 5.32574e-09)
(9.08082e-09 -2.12131e-08 7.42593e-09)
(1.12617e-08 -2.70012e-08 9.67557e-09)
(1.33607e-08 -3.30114e-08 1.21577e-08)
(1.54117e-08 -3.93495e-08 1.4939e-08)
(1.7436e-08 -4.6076e-08 1.80635e-08)
(1.944e-08 -5.32022e-08 2.15424e-08)
(2.14117e-08 -6.06802e-08 2.53333e-08)
(2.33202e-08 -6.83902e-08 2.93222e-08)
(2.51151e-08 -7.61108e-08 3.3288e-08)
(2.67499e-08 -8.34676e-08 3.69155e-08)
(2.82201e-08 -8.9822e-08 3.98493e-08)
(2.95753e-08 -9.41016e-08 4.18592e-08)
(3.061e-08 -9.50069e-08 4.29967e-08)
(1.68869e-09 -3.63995e-09 1.26604e-09)