/*--------------------------------*- C++ -*----------------------------------*\
| =========                 |                                                 |
| \\      /  F ield         | OpenFOAM: The Open Source CFD Toolbox           |
|  \\    /   O peration     | Version:  v1912                                 |
|   \\  /    A nd           | Website:  www.openfoam.com                      |
|    \\/     M anipulation  |                                                 |
\*---------------------------------------------------------------------------*/
FoamFile
{
    version     2.0;
    format      ascii;
    class       volScalarField;
    location    "0.7/fluid";
    object      T;
}
// * * * * * * * * * * * * * * * * * * * * * * * * * * * * * * * * * * * * * //

dimensions      [0 0 0 1 0 0 0];


internalField   nonuniform List<scalar> 
14592
(
273.273
273.831
274.413
275.026
275.677
276.373
277.122
277.934
278.82
279.789
280.857
282.038
283.356
284.841
286.555
288.647
273.272
273.826
274.404
275.013
275.66
276.352
277.097
277.905
278.785
279.749
280.811
281.987
283.3
284.781
286.485
288.526
273.269
273.818
274.39
274.993
275.634
276.318
277.056
277.855
278.725
279.679
280.729
281.895
283.198
284.674
286.376
288.422
273.266
273.808
274.374
274.969
275.6
276.275
277.002
277.788
278.644
279.582
280.615
281.763
283.051
284.516
286.223
288.298
273.263
273.797
274.355
274.94
275.561
276.224
276.937
277.707
278.545
279.461
280.47
281.592
282.854
284.3
286.005
288.12
273.258
273.785
274.333
274.908
275.517
276.166
276.863
277.614
278.428
279.317
280.295
281.38
282.602
284.01
285.692
287.838
273.254
273.771
274.309
274.873
275.469
276.103
276.781
277.51
278.298
279.154
280.092
281.128
282.291
283.63
285.24
287.354
273.249
273.757
274.284
274.837
275.419
276.036
276.695
277.399
278.157
278.977
279.867
280.843
281.926
283.155
284.608
286.493
273.278
273.847
274.441
275.068
275.735
276.45
277.224
278.066
278.988
280.004
281.129
282.384
283.794
285.397
287.256
289.493
273.277
273.842
274.432
275.055
275.718
276.429
277.198
278.035
278.952
279.962
281.082
282.331
283.737
285.337
287.19
289.396
273.274
273.834
274.418
275.034
275.69
276.394
277.155
277.983
278.89
279.889
280.997
282.235
283.632
285.228
287.084
289.305
273.271
273.824
274.401
275.009
275.656
276.35
277.099
277.914
278.805
279.787
280.878
282.098
283.48
285.068
286.933
289.194
273.267
273.812
274.381
274.979
275.616
276.297
277.031
277.829
278.701
279.66
280.725
281.919
283.275
284.846
286.716
289.03
273.263
273.799
274.358
274.946
275.57
276.236
276.954
277.731
278.579
279.509
280.54
281.695
283.009
284.542
286.396
288.76
273.259
273.785
274.334
274.91
275.52
276.17
276.868
277.622
278.441
279.337
280.325
281.428
282.678
284.138
285.921
288.271
273.254
273.77
274.308
274.872
275.467
276.1
276.778
277.506
278.293
279.149
280.086
281.122
282.285
283.624
285.235
287.35
273.283
273.862
274.467
275.107
275.789
276.523
277.318
278.186
279.141
280.196
281.369
282.681
284.156
285.826
287.735
289.941
273.282
273.857
274.458
275.093
275.771
276.501
277.291
278.155
279.104
280.153
281.321
282.627
284.098
285.767
287.673
289.859
273.279
273.848
274.444
275.073
275.743
276.465
277.247
278.101
279.039
280.077
281.233
282.528
283.991
285.657
287.57
289.776
273.276
273.838
274.426
275.047
275.708
276.419
277.189
278.029
278.952
279.972
281.109
282.387
283.835
285.495
287.42
289.671
273.272
273.826
274.405
275.016
275.666
276.364
277.119
277.941
278.843
279.84
280.951
282.2
283.623
285.268
287.202
289.512
273.268
273.813
274.382
274.982
275.619
276.301
277.038
277.839
278.716
279.683
280.758
281.967
283.348
284.955
286.877
289.245
273.263
273.798
274.357
274.944
275.567
276.233
276.949
277.726
278.573
279.503
280.533
281.687
283.002
284.535
286.389
288.756
273.258
273.783
274.33
274.904
275.512
276.16
276.855
277.604
278.417
279.305
280.282
281.366
282.589
283.997
285.68
287.829
273.288
273.876
274.491
275.142
275.837
276.587
277.401
278.292
279.273
280.361
281.571
282.923
284.439
286.141
288.051
290.186
273.286
273.87
274.481
275.128
275.819
276.564
277.374
278.259
279.235
280.317
281.521
282.868
284.381
286.081
287.991
290.11
273.283
273.862
274.467
275.107
275.791
276.527
277.328
278.204
279.169
280.239
281.431
282.767
284.272
285.971
287.889
290.031
273.28
273.851
274.449
275.08
275.754
276.48
277.268
278.13
279.079
280.131
281.304
282.622
284.113
285.808
287.74
289.928
273.276
273.839
274.427
275.049
275.711
276.423
277.196
278.039
278.967
279.994
281.141
282.431
283.896
285.577
287.521
289.771
273.272
273.825
274.403
275.013
275.662
276.359
277.113
277.934
278.835
279.832
280.942
282.191
283.613
285.258
287.194
289.506
273.267
273.81
274.377
274.974
275.609
276.288
277.021
277.817
278.687
279.645
280.709
281.901
283.257
284.828
286.7
289.02
273.262
273.795
274.35
274.934
275.552
276.213
276.923
277.691
278.526
279.44
280.448
281.569
282.831
284.277
285.984
288.104
273.291
273.887
274.511
275.171
275.878
276.64
277.47
278.379
279.382
280.494
281.731
283.111
284.65
286.362
288.257
290.329
273.29
273.881
274.501
275.157
275.859
276.617
277.442
278.346
279.343
280.449
281.68
283.055
284.591
286.303
288.198
290.256
273.287
273.873
274.486
275.136
275.83
276.58
277.396
278.289
279.276
280.369
281.589
282.953
284.481
286.193
288.097
290.178
273.284
273.862
274.468
275.108
275.793
276.531
277.334
278.214
279.183
280.259
281.459
282.805
284.32
286.028
287.948
290.076
273.28
273.85
274.446
275.076
275.749
276.473
277.26
278.121
279.069
280.12
281.292
282.61
284.1
285.795
287.728
289.92
273.275
273.836
274.421
275.04
275.699
276.407
277.175
278.013
278.934
279.952
281.088
282.364
283.812
285.472
287.399
289.656
273.27
273.82
274.395
275
275.644
276.335
277.081
277.892
278.781
279.761
280.849
282.068
283.449
285.038
286.905
289.174
273.265
273.804
274.367
274.958
275.586
276.257
276.98
277.763
278.616
279.551
280.582
281.728
283.014
284.48
286.188
288.272
273.294
273.896
274.526
275.194
275.909
276.682
277.523
278.446
279.465
280.594
281.849
283.246
284.798
286.512
288.388
290.414
273.293
273.89
274.516
275.18
275.891
276.658
277.495
278.413
279.426
280.549
281.798
283.19
284.739
286.453
288.329
290.342
273.29
273.882
274.501
275.158
275.861
276.62
277.448
278.355
279.357
280.468
281.705
283.087
284.628
286.342
288.229
290.266
273.286
273.871
274.483
275.13
275.823
276.571
277.385
278.278
279.263
280.356
281.574
282.937
284.465
286.176
288.08
290.164
273.282
273.858
274.46
275.098
275.778
276.512
277.31
278.183
279.146
280.214
281.404
282.739
284.243
285.942
287.86
290.008
273.278
273.844
274.436
275.061
275.727
276.445
277.223
278.073
279.009
280.044
281.197
282.49
283.952
285.617
287.531
289.745
273.273
273.828
274.408
275.02
275.671
276.371
277.127
277.95
278.853
279.849
280.954
282.19
283.585
285.18
287.037
289.267
273.267
273.812
274.38
274.978
275.613
276.292
277.024
277.819
278.685
279.634
280.682
281.844
283.146
284.62
286.323
288.376
273.296
273.902
274.537
275.21
275.931
276.71
277.559
278.491
279.52
280.661
281.927
283.334
284.891
286.604
288.466
290.462
273.295
273.896
274.527
275.196
275.912
276.687
277.531
278.458
279.481
280.615
281.876
283.278
284.832
286.545
288.408
290.391
273.292
273.888
274.512
275.173
275.882
276.648
277.483
278.399
279.411
280.534
281.782
283.174
284.721
286.434
288.308
290.315
273.288
273.877
274.493
275.145
275.844
276.598
277.42
278.321
279.316
280.42
281.65
283.023
284.558
286.268
288.159
290.214
273.284
273.864
274.47
275.112
275.798
276.539
277.344
278.226
279.198
280.277
281.479
282.824
284.334
286.032
287.938
290.058
273.279
273.849
274.445
275.075
275.747
276.47
277.256
278.114
279.059
280.105
281.269
282.573
284.041
285.707
287.609
289.796
273.274
273.834
274.418
275.034
275.69
276.395
277.158
277.99
278.902
279.907
281.023
282.27
283.672
285.269
287.117
289.321
273.269
273.817
274.389
274.991
275.631
276.316
277.055
277.856
278.731
279.69
280.748
281.921
283.23
284.707
286.405
288.438
273.297
273.905
274.542
275.218
275.942
276.724
277.577
278.514
279.548
280.694
281.966
283.377
284.937
286.648
288.502
290.485
273.296
273.899
274.532
275.204
275.923
276.701
277.549
278.48
279.508
280.648
281.915
283.321
284.878
286.589
288.444
290.414
273.293
273.891
274.517
275.181
275.893
276.662
277.501
278.422
279.439
280.566
281.82
283.216
284.767
286.478
288.344
290.338
273.289
273.88
274.498
275.153
275.854
276.612
277.438
278.343
279.343
280.452
281.687
283.065
284.602
286.311
288.195
290.237
273.285
273.867
274.475
275.12
275.809
276.552
277.361
278.247
279.225
280.308
281.515
282.865
284.378
286.075
287.975
290.081
273.28
273.852
274.45
275.082
275.757
276.483
277.272
278.135
279.084
280.135
281.305
282.613
284.084
285.75
287.646
289.82
273.275
273.836
274.422
275.041
275.7
276.408
277.174
278.01
278.926
279.937
281.058
282.309
283.715
285.311
287.154
289.346
273.27
273.82
274.393
274.998
275.64
276.328
277.07
277.875
278.754
279.718
280.781
281.958
283.271
284.749
286.443
288.466
273.244
273.743
274.258
274.794
275.351
275.932
276.536
277.164
277.814
278.481
279.157
279.833
280.491
281.113
281.674
282.148
273.243
273.739
274.252
274.785
275.34
275.918
276.52
277.145
277.792
278.455
279.129
279.8
280.455
281.074
281.633
282.106
273.242
273.733
274.242
274.771
275.321
275.894
276.491
277.111
277.752
278.409
279.075
279.74
280.389
281.002
281.556
282.025
273.239
273.726
274.23
274.753
275.297
275.863
276.453
277.065
277.697
278.345
279.002
279.657
280.295
280.899
281.445
281.907
273.236
273.717
274.215
274.731
275.267
275.826
276.406
277.008
277.63
278.266
278.91
279.552
280.177
280.768
281.303
281.756
273.233
273.707
274.198
274.706
275.234
275.783
276.353
276.944
277.552
278.174
278.803
279.429
280.038
280.614
281.134
281.575
273.23
273.697
274.18
274.68
275.199
275.737
276.296
276.873
277.467
278.073
278.685
279.292
279.882
280.439
280.942
281.369
273.226
273.686
274.161
274.652
275.161
275.689
276.235
276.799
277.377
277.966
278.559
279.146
279.715
280.25
280.733
281.144
273.245
273.744
274.262
274.799
275.359
275.944
276.554
277.188
277.846
278.524
279.214
279.905
280.583
281.227
281.812
282.308
273.244
273.74
274.255
274.79
275.347
275.929
276.536
277.167
277.822
278.496
279.183
279.871
280.545
281.186
281.769
282.264
273.242
273.734
274.244
274.775
275.327
275.904
276.506
277.132
277.78
278.448
279.127
279.808
280.476
281.111
281.688
282.18
273.24
273.727
274.231
274.756
275.302
275.872
276.466
277.084
277.724
278.382
279.052
279.722
280.38
281.005
281.574
282.059
273.237
273.718
274.216
274.734
275.273
275.834
276.419
277.027
277.655
278.301
278.958
279.615
280.259
280.871
281.428
281.903
273.234
273.708
274.199
274.709
275.239
275.791
276.365
276.961
277.577
278.208
278.848
279.489
280.115
280.71
281.252
281.714
273.23
273.698
274.181
274.682
275.203
275.745
276.307
276.889
277.49
278.105
278.727
279.348
279.954
280.529
281.052
281.498
273.226
273.686
274.162
274.654
275.165
275.696
276.245
276.814
277.398
277.995
278.598
279.197
279.781
280.333
280.834
281.261
273.247
273.749
274.271
274.813
275.379
275.971
276.591
277.238
277.913
278.611
279.328
280.052
280.77
281.459
282.093
282.635
273.246
273.745
274.263
274.802
275.366
275.955
276.572
277.216
277.887
278.582
279.295
280.015
280.729
281.416
282.047
282.588
273.244
273.739
274.252
274.787
275.345
275.929
276.54
277.178
277.843
278.531
279.236
279.95
280.657
281.337
281.963
282.5
273.241
273.731
274.239
274.767
275.319
275.896
276.499
277.129
277.784
278.462
279.157
279.859
280.555
281.225
281.842
282.372
273.238
273.722
274.223
274.745
275.289
275.857
276.45
277.07
277.713
278.378
279.059
279.746
280.427
281.082
281.686
282.206
273.235
273.712
274.206
274.72
275.254
275.813
276.395
277.002
277.631
278.281
278.944
279.614
280.276
280.912
281.498
282.003
273.231
273.701
274.187
274.692
275.217
275.765
276.335
276.928
277.542
278.173
278.817
279.465
280.104
280.717
281.281
281.768
273.228
273.69
274.168
274.664
275.179
275.715
276.272
276.85
277.446
278.059
278.681
279.305
279.918
280.504
281.042
281.506
273.25
273.758
274.285
274.835
275.41
276.014
276.648
277.314
278.013
278.742
279.498
280.271
281.049
281.81
282.522
283.141
273.248
273.753
274.277
274.824
275.396
275.997
276.628
277.291
277.986
278.711
279.462
280.232
281.006
281.764
282.473
283.091
273.246
273.747
274.266
274.808
275.375
275.969
276.595
277.251
277.939
278.657
279.401
280.162
280.929
281.68
282.383
282.998
273.244
273.739
274.252
274.788
275.348
275.935
276.552
277.199
277.877
278.585
279.317
280.066
280.821
281.56
282.254
282.861
273.241
273.73
274.236
274.764
275.316
275.894
276.501
277.137
277.803
278.496
279.213
279.946
280.683
281.406
282.086
282.681
273.237
273.719
274.219
274.738
275.281
275.849
276.444
277.066
277.717
278.393
279.091
279.804
280.519
281.22
281.879
282.457
273.234
273.708
274.199
274.71
275.243
275.799
276.381
276.989
277.622
278.279
278.955
279.643
280.332
281.005
281.636
282.19
273.23
273.696
274.179
274.68
275.203
275.747
276.315
276.907
277.522
278.157
278.809
279.469
280.128
280.768
281.365
281.888
273.253
273.769
274.305
274.865
275.452
276.07
276.723
277.413
278.143
278.911
279.718
280.556
281.415
282.275
283.101
283.839
273.252
273.764
274.297
274.853
275.437
276.052
276.702
277.388
278.114
278.878
279.68
280.514
281.37
282.226
283.05
283.786
273.25
273.758
274.285
274.836
275.415
276.024
276.667
277.347
278.065
278.821
279.615
280.44
281.287
282.136
282.954
283.687
273.247
273.75
274.271
274.815
275.386
275.988
276.622
277.292
278
278.744
279.525
280.337
281.171
282.008
282.816
283.542
273.244
273.74
274.254
274.791
275.354
275.945
276.569
277.227
277.92
278.65
279.414
280.207
281.022
281.841
282.632
283.346
273.24
273.729
274.236
274.764
275.317
275.898
276.509
277.152
277.829
278.54
279.283
280.053
280.842
281.635
282.402
283.094
273.237
273.718
274.216
274.735
275.277
275.846
276.443
277.07
277.729
278.418
279.135
279.877
280.635
281.393
282.124
282.785
273.233
273.706
274.195
274.704
275.235
275.791
276.374
276.984
277.622
278.287
278.976
279.685
280.405
281.121
281.807
282.424
273.258
273.783
274.329
274.9
275.502
276.137
276.812
277.531
278.296
279.111
279.978
280.894
281.855
282.844
283.829
284.745
273.256
273.778
274.32
274.888
275.486
276.119
276.79
277.504
278.266
279.076
279.938
280.85
281.806
282.792
283.775
284.689
273.254
273.771
274.308
274.871
275.463
276.089
276.754
277.461
278.214
279.016
279.868
280.771
281.718
282.697
283.674
284.585
273.251
273.762
274.294
274.849
275.434
276.051
276.707
277.403
278.145
278.934
279.773
280.661
281.593
282.559
283.526
284.432
273.248
273.753
274.276
274.824
275.399
276.007
276.651
277.334
278.061
278.833
279.653
280.52
281.432
282.377
283.327
284.222
273.244
273.741
274.257
274.796
275.361
275.957
276.587
277.255
277.964
278.715
279.511
280.352
281.234
282.148
283.07
283.941
273.24
273.729
274.236
274.765
275.319
275.902
276.518
277.168
277.856
278.583
279.351
280.158
281.002
281.873
282.749
283.579
273.236
273.717
274.215
274.733
275.276
275.845
276.445
277.076
277.742
278.442
279.177
279.945
280.742
281.558
282.371
283.134
273.263
273.798
274.356
274.94
275.557
276.213
276.912
277.661
278.465
279.332
280.265
281.269
282.347
283.493
284.688
285.873
273.261
273.793
274.347
274.928
275.542
276.193
276.889
277.633
278.434
279.295
280.223
281.223
282.296
283.439
284.631
285.81
273.259
273.786
274.334
274.91
275.517
276.162
276.851
277.588
278.379
279.231
280.149
281.139
282.202
283.338
284.525
285.703
273.256
273.777
274.319
274.887
275.487
276.123
276.801
277.527
278.306
279.144
280.047
281.021
282.069
283.192
284.371
285.549
273.253
273.767
274.301
274.861
275.451
276.076
276.742
277.454
278.217
279.036
279.919
280.87
281.895
282.996
284.159
285.332
273.249
273.755
274.281
274.831
275.411
276.024
276.675
277.37
278.113
278.91
279.765
280.686
281.678
282.744
283.876
285.028
273.245
273.743
274.259
274.799
275.367
275.966
276.602
277.278
277.998
278.768
279.591
280.473
281.419
282.432
283.508
284.607
273.24
273.729
274.237
274.766
275.321
275.906
276.524
277.18
277.875
278.614
279.4
280.236
281.124
282.065
283.051
284.047
273.268
273.814
274.384
274.983
275.617
276.292
277.017
277.797
278.643
279.562
280.563
281.659
282.86
284.181
285.633
287.215
273.266
273.809
274.375
274.97
275.6
276.272
276.993
277.769
278.61
279.523
280.52
281.61
282.807
284.123
285.571
287.134
273.264
273.802
274.362
274.951
275.575
276.24
276.953
277.721
278.552
279.456
280.442
281.521
282.709
284.018
285.462
287.025
273.261
273.793
274.346
274.928
275.543
276.199
276.901
277.657
278.475
279.364
280.333
281.396
282.568
283.866
285.306
286.879
273.258
273.782
274.328
274.9
275.506
276.15
276.839
277.58
278.381
279.249
280.196
281.235
282.381
283.658
285.088
286.672
273.254
273.77
274.307
274.869
275.464
276.095
276.768
277.491
278.271
279.114
280.032
281.036
282.146
283.385
284.785
286.364
273.249
273.757
274.284
274.836
275.418
276.034
276.691
277.393
278.148
278.961
279.843
280.803
281.86
283.037
284.369
285.893
273.245
273.743
274.26
274.801
275.37
275.971
276.609
277.289
278.016
278.796
279.634
280.541
281.528
282.614
283.823
285.185
273.245
273.742
274.259
274.8
275.368
275.968
276.606
277.286
278.012
278.792
279.63
280.537
281.524
282.609
283.819
285.181
273.24
273.728
274.235
274.763
275.318
275.902
276.52
277.174
277.869
278.607
279.392
280.228
281.116
282.057
283.044
284.04
273.236
273.715
274.212
274.73
275.271
275.84
276.438
277.069
277.733
278.432
279.167
279.934
280.731
281.547
282.36
283.124
273.232
273.704
274.192
274.7
275.23
275.785
276.366
276.975
277.612
278.276
278.965
279.673
280.392
281.108
281.795
282.412
273.229
273.695
274.176
274.676
275.197
275.74
276.307
276.897
277.511
278.145
278.796
279.455
280.113
280.753
281.352
281.876
273.227
273.688
274.165
274.659
275.173
275.707
276.263
276.839
277.434
278.046
278.667
279.29
279.903
280.489
281.028
281.492
273.226
273.684
274.158
274.649
275.159
275.688
276.236
276.803
277.386
277.981
278.583
279.181
279.765
280.317
280.819
281.247
273.225
273.684
274.157
274.647
275.155
275.681
276.225
276.787
277.364
277.952
278.544
279.13
279.699
280.234
280.718
281.13
273.249
273.755
274.282
274.833
275.414
276.029
276.685
277.386
278.14
278.952
279.833
280.793
281.849
283.026
284.36
285.885
273.244
273.741
274.257
274.795
275.362
275.96
276.594
277.268
277.987
278.756
279.578
280.459
281.405
282.418
283.495
284.595
273.24
273.727
274.233
274.76
275.313
275.894
276.508
277.157
277.843
278.569
279.336
280.142
280.986
281.857
282.734
283.565
273.236
273.715
274.212
274.729
275.27
275.837
276.432
277.058
277.714
278.402
279.118
279.859
280.616
281.374
282.107
282.769
273.233
273.706
274.195
274.704
275.235
275.789
276.369
276.975
277.607
278.262
278.937
279.624
280.313
280.986
281.618
282.173
273.23
273.699
274.183
274.686
275.209
275.755
276.323
276.913
277.525
278.155
278.798
279.445
280.084
280.697
281.262
281.75
273.229
273.695
274.176
274.676
275.195
275.734
276.294
276.875
277.473
278.086
278.707
279.327
279.933
280.509
281.032
281.48
273.229
273.694
274.175
274.673
275.19
275.726
276.283
276.858
277.45
278.055
278.665
279.271
279.861
280.418
280.922
281.35
273.253
273.768
274.303
274.864
275.457
276.086
276.758
277.479
278.257
279.098
280.015
281.019
282.128
283.367
284.768
286.35
273.248
273.753
274.277
274.825
275.402
276.013
276.663
277.356
278.097
278.891
279.746
280.665
281.656
282.722
283.856
285.01
273.243
273.739
274.252
274.789
275.352
275.945
276.573
277.239
277.945
278.695
279.489
280.329
281.21
282.125
283.047
283.92
273.239
273.726
274.231
274.757
275.307
275.885
276.494
277.135
277.81
278.518
279.259
280.028
280.817
281.61
282.377
283.071
273.236
273.716
274.213
274.73
275.27
275.836
276.428
277.048
277.696
278.37
279.066
279.778
280.493
281.194
281.854
282.434
273.234
273.709
274.2
274.711
275.244
275.799
276.379
276.983
277.61
278.257
278.919
279.587
280.249
280.885
281.473
281.98
273.232
273.705
274.193
274.701
275.228
275.777
276.349
276.942
277.555
278.184
278.823
279.462
280.088
280.684
281.226
281.691
273.232
273.704
274.192
274.698
275.223
275.769
276.337
276.924
277.53
278.15
278.778
279.402
280.011
280.587
281.108
281.552
273.256
273.779
274.322
274.892
275.495
276.136
276.823
277.561
278.359
279.225
280.17
281.207
282.353
283.63
285.061
286.65
273.251
273.763
274.295
274.852
275.439
276.061
276.724
277.433
278.193
279.01
279.89
280.84
281.864
282.965
284.13
285.304
273.247
273.749
274.27
274.814
275.387
275.991
276.631
277.312
278.035
278.805
279.622
280.488
281.399
282.344
283.295
284.192
273.243
273.736
274.247
274.781
275.34
275.929
276.549
277.203
277.894
278.62
279.382
280.174
280.988
281.807
282.599
283.315
273.239
273.725
274.229
274.754
275.302
275.877
276.48
277.113
277.775
278.466
279.18
279.912
280.649
281.372
282.053
282.651
273.237
273.718
274.216
274.734
275.275
275.839
276.429
277.045
277.686
278.348
279.026
279.712
280.393
281.048
281.653
282.176
273.235
273.714
274.209
274.723
275.259
275.816
276.398
277.002
277.628
278.271
278.925
279.581
280.224
280.837
281.395
281.873
273.235
273.713
274.207
274.72
275.253
275.808
276.385
276.983
277.602
278.235
278.878
279.518
280.143
280.735
281.271
281.727
273.259
273.788
274.338
274.916
275.527
276.179
276.877
277.629
278.444
279.329
280.296
281.357
282.527
283.825
285.267
286.845
273.254
273.772
274.31
274.875
275.47
276.102
276.776
277.497
278.273
279.107
280.007
280.979
282.026
283.148
284.329
285.509
273.249
273.757
274.284
274.836
275.416
276.029
276.68
277.372
278.11
278.896
279.732
280.618
281.549
282.514
283.482
284.391
273.245
273.744
274.262
274.802
275.368
275.965
276.595
277.261
277.964
278.705
279.483
280.293
281.126
281.963
282.772
283.501
273.242
273.733
274.243
274.774
275.329
275.912
276.524
277.168
277.842
278.546
279.275
280.023
280.776
281.516
282.212
282.822
273.239
273.726
274.229
274.754
275.301
275.873
276.472
277.097
277.749
278.423
279.116
279.816
280.511
281.182
281.8
282.334
273.238
273.721
274.222
274.742
275.284
275.849
276.439
277.053
277.689
278.344
279.011
279.68
280.337
280.963
281.534
282.022
273.237
273.72
274.22
274.739
275.278
275.84
276.426
277.033
277.662
278.307
278.961
279.615
280.253
280.857
281.405
281.872
273.262
273.795
274.351
274.934
275.553
276.212
276.919
277.682
278.509
279.408
280.391
281.468
282.653
283.961
285.405
286.97
273.257
273.779
274.322
274.892
275.494
276.133
276.816
277.547
278.334
279.182
280.096
281.083
282.145
283.279
284.467
285.646
273.252
273.764
274.296
274.853
275.439
276.059
276.718
277.42
278.168
278.965
279.815
280.715
281.661
282.638
283.616
284.53
273.247
273.75
274.273
274.818
275.39
275.994
276.631
277.305
278.018
278.771
279.561
280.384
281.23
282.079
282.899
283.635
273.244
273.739
274.254
274.789
275.35
275.939
276.559
277.21
277.893
278.607
279.348
280.107
280.873
281.624
282.33
282.948
273.241
273.732
274.24
274.769
275.321
275.899
276.505
277.138
277.798
278.482
279.184
279.896
280.602
281.283
281.911
282.453
273.24
273.727
274.232
274.757
275.304
275.875
276.471
277.092
277.737
278.4
279.077
279.756
280.424
281.059
281.639
282.135
273.239
273.726
274.23
274.753
275.298
275.866
276.458
277.072
277.709
278.362
279.026
279.689
280.338
280.951
281.508
281.982
273.263
273.8
274.359
274.947
275.57
276.234
276.948
277.718
278.553
279.462
280.454
281.541
282.734
284.048
285.49
287.045
273.258
273.784
274.331
274.904
275.51
276.155
276.843
277.581
278.376
279.232
280.156
281.152
282.223
283.364
284.554
285.731
273.253
273.768
274.304
274.864
275.455
276.08
276.744
277.452
278.207
279.013
279.87
280.779
281.734
282.719
283.702
284.617
273.249
273.755
274.28
274.829
275.405
276.013
276.656
277.336
278.056
278.815
279.613
280.445
281.299
282.155
282.981
283.721
273.245
273.744
274.261
274.8
275.365
275.958
276.582
277.239
277.928
278.649
279.397
280.164
280.937
281.696
282.408
283.031
273.243
273.736
274.247
274.779
275.335
275.918
276.528
277.166
277.832
278.522
279.231
279.95
280.663
281.351
281.985
282.532
273.241
273.731
274.239
274.767
275.318
275.893
276.494
277.12
277.769
278.439
279.122
279.808
280.482
281.125
281.71
282.211
273.24
273.73
274.237
274.764
275.312
275.884
276.479
277.099
277.741
278.4
279.07
279.74
280.395
281.015
281.577
282.056
273.264
273.803
274.364
274.954
275.579
276.246
276.963
277.736
278.575
279.488
280.485
281.577
282.774
284.09
285.531
287.081
273.259
273.786
274.335
274.911
275.519
276.166
276.857
277.598
278.397
279.257
280.185
281.186
282.261
283.405
284.596
285.771
273.254
273.771
274.308
274.87
275.463
276.09
276.757
277.468
278.227
279.036
279.898
280.812
281.77
282.759
283.744
284.66
273.249
273.757
274.284
274.835
275.413
276.023
276.668
277.351
278.074
278.838
279.64
280.475
281.333
282.193
283.022
283.763
273.246
273.746
274.265
274.806
275.372
275.968
276.594
277.254
277.946
278.67
279.422
280.193
280.97
281.732
282.447
283.072
273.243
273.738
274.251
274.784
275.342
275.927
276.539
277.18
277.849
278.542
279.255
279.977
280.694
281.385
282.022
282.571
273.242
273.733
274.243
274.772
275.325
275.902
276.505
277.133
277.786
278.459
279.145
279.834
280.512
281.157
281.746
282.249
273.241
273.732
274.241
274.769
275.319
275.892
276.491
277.113
277.757
278.42
279.093
279.766
280.424
281.047
281.612
282.093
273.222
273.675
274.141
274.624
275.123
275.64
276.174
276.723
277.286
277.857
278.43
278.995
279.542
280.055
280.517
280.909
273.219
273.664
274.123
274.597
275.087
275.593
276.114
276.65
277.196
277.75
278.303
278.847
279.371
279.861
280.302
280.675
273.216
273.654
274.106
274.572
275.053
275.549
276.059
276.581
277.113
277.649
278.183
278.707
279.21
279.678
280.097
280.452
273.213
273.645
274.09
274.55
275.023
275.51
276.01
276.52
277.038
277.559
278.077
278.582
279.064
279.512
279.913
280.252
273.21
273.638
274.078
274.532
274.998
275.478
275.969
276.47
276.977
277.484
277.987
278.476
278.942
279.373
279.757
280.082
273.209
273.633
274.069
274.519
274.981
275.455
275.939
276.432
276.93
277.427
277.918
278.394
278.847
279.264
279.636
279.949
273.208
273.63
274.064
274.511
274.97
275.44
275.92
276.408
276.899
277.39
277.872
278.34
278.783
279.191
279.554
279.859
273.207
273.629
274.063
274.508
274.966
275.434
275.912
276.397
276.885
277.372
277.851
278.314
278.752
279.156
279.513
279.814
273.223
273.675
274.142
274.626
275.127
275.646
276.183
276.737
277.305
277.883
278.465
279.042
279.601
280.129
280.606
281.013
273.219
273.664
274.124
274.599
275.09
275.598
276.123
276.662
277.214
277.774
278.335
278.888
279.424
279.926
280.38
280.765
273.216
273.654
274.106
274.573
275.056
275.554
276.067
276.593
277.129
277.671
278.212
278.744
279.256
279.734
280.164
280.53
273.213
273.645
274.091
274.551
275.026
275.515
276.017
276.531
277.053
277.579
278.102
278.614
279.105
279.561
279.971
280.318
273.211
273.638
274.079
274.533
275.001
275.482
275.976
276.48
276.99
277.502
278.01
278.505
278.977
279.416
279.807
280.138
273.209
273.633
274.07
274.52
274.983
275.459
275.946
276.441
276.942
277.444
277.939
278.421
278.879
279.303
279.68
279.999
273.208
273.63
274.065
274.513
274.973
275.445
275.927
276.418
276.912
277.406
277.893
278.366
278.814
279.228
279.595
279.905
273.208
273.63
274.064
274.511
274.97
275.44
275.92
276.408
276.899
277.389
277.872
278.34
278.783
279.191
279.553
279.859
273.224
273.678
274.148
274.635
275.14
275.664
276.208
276.77
277.35
277.942
278.541
279.14
279.725
280.283
280.792
281.229
273.22
273.667
274.129
274.607
275.102
275.615
276.146
276.693
277.255
277.827
278.404
278.976
279.534
280.062
280.541
280.952
273.217
273.657
274.111
274.581
275.067
275.569
276.088
276.621
277.166
277.719
278.274
278.822
279.353
279.852
280.303
280.689
273.214
273.648
274.096
274.558
275.036
275.529
276.037
276.557
277.087
277.623
278.158
278.684
279.19
279.664
280.09
280.453
273.212
273.641
274.083
274.54
275.011
275.496
275.995
276.504
277.022
277.543
278.061
278.568
279.053
279.505
279.91
280.254
273.21
273.636
274.074
274.527
274.993
275.472
275.964
276.465
276.973
277.482
277.987
278.479
278.948
279.383
279.772
280.101
273.209
273.633
274.07
274.52
274.983
275.459
275.945
276.441
276.942
277.443
277.939
278.42
278.879
279.302
279.679
279.998
273.209
273.632
274.069
274.518
274.98
275.454
275.939
276.431
276.929
277.426
277.917
278.393
278.846
279.263
279.635
279.948
273.226
273.685
274.159
274.651
275.162
275.694
276.248
276.824
277.42
278.033
278.658
279.289
279.914
280.518
281.077
281.565
273.222
273.673
274.139
274.622
275.123
275.643
276.184
276.743
277.319
277.91
278.51
279.11
279.701
280.267
280.789
281.239
273.219
273.663
274.121
274.595
275.087
275.596
276.123
276.667
277.225
277.795
278.369
278.941
279.5
280.03
280.515
280.931
273.216
273.653
274.105
274.572
275.055
275.554
276.07
276.6
277.142
277.692
278.244
278.79
279.319
279.818
280.27
280.657
273.213
273.646
274.092
274.553
275.029
275.52
276.026
276.544
277.073
277.606
278.139
278.663
279.168
279.64
280.066
280.428
273.212
273.641
274.083
274.539
275.01
275.496
275.994
276.503
277.021
277.542
278.06
278.566
279.052
279.504
279.909
280.253
273.211
273.638
274.078
274.532
275
275.481
275.975
276.478
276.988
277.5
278.008
278.503
278.975
279.414
279.805
280.137
273.21
273.637
274.078
274.531
274.998
275.477
275.968
276.468
276.975
277.482
277.985
278.474
278.939
279.37
279.755
280.08
273.229
273.693
274.174
274.673
275.193
275.736
276.304
276.896
277.513
278.152
278.812
279.485
280.164
280.831
281.465
282.028
273.225
273.682
274.154
274.643
275.152
275.683
276.235
276.81
277.405
278.02
278.649
279.287
279.922
280.541
281.12
281.63
273.221
273.671
274.135
274.615
275.114
275.633
276.171
276.729
277.305
277.895
278.495
279.098
279.693
280.266
280.795
281.255
273.218
273.661
274.118
274.591
275.081
275.589
276.115
276.658
277.215
277.784
278.358
278.93
279.489
280.021
280.507
280.927
273.216
273.653
274.105
274.571
275.054
275.553
276.069
276.599
277.141
277.691
278.243
278.789
279.318
279.817
280.269
280.656
273.214
273.648
274.095
274.557
275.035
275.528
276.035
276.555
277.085
277.621
278.155
278.681
279.187
279.661
280.087
280.45
273.213
273.645
274.09
274.55
275.024
275.513
276.015
276.528
277.05
277.576
278.099
278.611
279.101