/*--------------------------------*- C++ -*----------------------------------*\
| =========                 |                                                 |
| \\      /  F ield         | OpenFOAM: The Open Source CFD Toolbox           |
|  \\    /   O peration     | Version:  v1912                                 |
|   \\  /    A nd           | Website:  www.openfoam.com                      |
|    \\/     M anipulation  |                                                 |
\*---------------------------------------------------------------------------*/
FoamFile
{
    version     2.0;
    format      ascii;
    class       volVectorField;
    location    "0.9/fluid";
    object      cellMotionU;
}
// * * * * * * * * * * * * * * * * * * * * * * * * * * * * * * * * * * * * * //

dimensions      [0 1 -1 0 0 0 0];


internalField   nonuniform List<vector> 
14592
(
(1.11812e-10 -2.74859e-10 2.10262e-10)
(3.1263e-10 -7.68424e-10 5.95381e-10)
(4.99799e-10 -1.22686e-09 9.74855e-10)
(6.81252e-10 -1.66591e-09 1.37389e-09)
(8.65271e-10 -2.09647e-09 1.81619e-09)
(1.05989e-09 -2.52272e-09 2.32381e-09)
(1.27469e-09 -2.94129e-09 2.91877e-09)
(1.52257e-09 -3.33846e-09 3.62379e-09)
(1.82194e-09 -3.68392e-09 4.46199e-09)
(2.20299e-09 -3.92104e-09 5.45833e-09)
(2.72045e-09 -3.9455e-09 6.64303e-09)
(3.48667e-09 -3.55764e-09 8.06761e-09)
(4.75413e-09 -2.33479e-09 9.85921e-09)
(7.13791e-09 7.42513e-10 1.2395e-08)
(1.201e-08 8.1399e-09 1.66503e-08)
(2.02314e-08 2.24438e-08 2.32018e-08)
(3.32226e-10 -8.16081e-10 6.24946e-10)
(9.28892e-10 -2.28182e-09 1.76954e-09)
(1.48421e-09 -3.6439e-09 2.89632e-09)
(2.02246e-09 -4.95043e-09 4.08113e-09)
(2.56621e-09 -6.23335e-09 5.39228e-09)
(3.13939e-09 -7.50743e-09 6.89537e-09)
(3.76964e-09 -8.76597e-09 8.65539e-09)
(4.49202e-09 -9.97258e-09 1.07375e-08)
(5.35597e-09 -1.10476e-08 1.32079e-08)
(6.43687e-09 -1.18429e-08 1.61321e-08)
(7.86099e-09 -1.21e-08 1.95766e-08)
(9.8548e-09 -1.13763e-08 2.36181e-08)
(1.28406e-08 -8.91689e-09 2.8378e-08)
(1.75573e-08 -3.50011e-09 3.40809e-08)
(2.48967e-08 6.35308e-09 4.09656e-08)
(3.35689e-08 1.90058e-08 4.7855e-08)
(5.43748e-10 -1.33315e-09 1.02361e-09)
(1.5198e-09 -3.72864e-09 2.89771e-09)
(2.42723e-09 -5.95818e-09 4.74157e-09)
(3.30387e-09 -8.1018e-09 6.6775e-09)
(4.18629e-09 -1.02158e-08 8.8172e-09)
(5.11185e-09 -1.233e-08 1.1267e-08)
(6.12256e-09 -1.44423e-08 1.41319e-08)
(7.27031e-09 -1.65097e-08 1.75176e-08)
(8.62337e-09 -1.84298e-08 2.15293e-08)
(1.02777e-08 -2.00131e-08 2.62681e-08)
(1.23766e-08 -2.09411e-08 3.18232e-08)
(1.51413e-08 -2.07145e-08 3.82622e-08)
(1.89278e-08 -1.86159e-08 4.56336e-08)
(2.42426e-08 -1.38124e-08 5.39641e-08)
(3.15356e-08 -5.99693e-09 6.32068e-08)
(3.94611e-08 2.25712e-09 7.21144e-08)
(7.40957e-10 -1.80982e-09 1.39639e-09)
(2.07012e-09 -5.06395e-09 3.95194e-09)
(3.30321e-09 -8.09862e-09 6.46326e-09)
(4.49023e-09 -1.10272e-08 9.0956e-09)
(5.67837e-09 -1.3932e-08 1.19989e-08)
(6.91587e-09 -1.68637e-08 1.53163e-08)
(8.2556e-09 -1.98364e-08 1.91893e-08)
(9.75948e-09 -2.28186e-08 2.376e-08)
(1.15042e-08 -2.57173e-08 2.91704e-08)
(1.35866e-08 -2.83531e-08 3.55549e-08)
(1.61307e-08 -3.04258e-08 4.30251e-08)
(1.92917e-08 -3.14794e-08 5.16431e-08)
(2.32584e-08 -3.08975e-08 6.13834e-08)
(2.82115e-08 -2.80329e-08 7.20707e-08)
(3.4162e-08 -2.27239e-08 8.32335e-08)
(3.99427e-08 -1.68633e-08 9.29705e-08)
(9.19232e-10 -2.22992e-09 1.73472e-09)
(2.56697e-09 -6.24264e-09 4.90788e-09)
(4.09141e-09 -9.99378e-09 8.02108e-09)
(5.55153e-09 -1.36291e-08 1.12761e-08)
(7.00326e-09 -1.72596e-08 1.48562e-08)
(8.50243e-09 -2.09616e-08 1.89358e-08)
(1.01086e-08 -2.47747e-08 2.36868e-08)
(1.18897e-08 -2.86963e-08 2.92831e-08)
(1.39245e-08 -3.26702e-08 3.58998e-08)
(1.63053e-08 -3.6569e-08 4.3706e-08)
(1.91327e-08 -4.01675e-08 5.28472e-08)
(2.25053e-08 -4.3108e-08 6.34116e-08)
(2.64862e-08 -4.48595e-08 7.53665e-08)
(3.10333e-08 -4.46984e-08 8.84351e-08)
(3.58819e-08 -4.18589e-08 1.01794e-07)
(4.00484e-08 -3.68774e-08 1.12748e-07)
(1.07529e-09 -2.57795e-09 2.03199e-09)
(3.00054e-09 -7.22082e-09 5.74617e-09)
(4.77569e-09 -1.15725e-08 9.38249e-09)
(6.46629e-09 -1.58098e-08 1.31727e-08)
(8.13331e-09 -2.00715e-08 1.73258e-08)
(9.83724e-09 -2.44622e-08 2.20401e-08)
(1.16415e-08 -2.90532e-08 2.75113e-08)
(1.36164e-08 -3.38811e-08 3.39375e-08)
(1.58419e-08 -3.89443e-08 4.15207e-08)
(1.84087e-08 -4.41955e-08 5.04636e-08)
(2.14136e-08 -4.95275e-08 6.09566e-08)
(2.49489e-08 -5.47459e-08 7.31528e-08)
(2.90815e-08 -5.95014e-08 8.71225e-08)
(3.37797e-08 -6.31075e-08 1.02701e-07)
(3.87844e-08 -6.42034e-08 1.19049e-07)
(4.30086e-08 -6.13181e-08 1.32687e-07)
(1.2066e-09 -2.83921e-09 2.28327e-09)
(3.36442e-09 -7.95737e-09 6.45329e-09)
(5.34625e-09 -1.2768e-08 1.05254e-08)
(7.22074e-09 -1.74745e-08 1.4753e-08)
(9.05157e-09 -2.22413e-08 1.93633e-08)
(1.09006e-08 -2.71999e-08 2.45702e-08)
(1.28316e-08 -3.24531e-08 3.05836e-08)
(1.49148e-08 -3.80785e-08 3.76153e-08)
(1.72297e-08 -4.41327e-08 4.58834e-08)
(1.98691e-08 -5.06547e-08 5.5613e-08)
(2.29393e-08 -5.76719e-08 6.70319e-08)
(2.65766e-08 -6.52093e-08 8.03796e-08)
(3.09503e-08 -7.32708e-08 9.58864e-08)
(3.62847e-08 -8.17342e-08 1.13719e-07)
(4.27556e-08 -8.98806e-08 1.33512e-07)
(4.91832e-08 -9.50811e-08 1.51334e-07)
(1.31225e-09 -3.00104e-09 2.4861e-09)
(3.6558e-09 -8.4165e-09 7.02219e-09)
(5.79892e-09 -1.35213e-08 1.14385e-08)
(7.81068e-09 -1.85394e-08 1.60017e-08)
(9.75377e-09 -2.36551e-08 2.09483e-08)
(1.16885e-08 -2.90218e-08 2.64989e-08)
(1.36761e-08 -3.47681e-08 3.28668e-08)
(1.57823e-08 -4.10051e-08 4.02647e-08)
(1.80823e-08 -4.78342e-08 4.89095e-08)
(2.06646e-08 -5.53581e-08 5.90247e-08)
(2.36413e-08 -6.3702e-08 7.08469e-08)
(2.71672e-08 -7.30491e-08 8.46415e-08)
(3.14946e-08 -8.3712e-08 1.00747e-07)
(3.70768e-08 -9.62348e-08 1.19642e-07)
(4.46365e-08 -1.11319e-07 1.41742e-07)
(5.36055e-08 -1.27246e-07 1.63923e-07)
(1.13673e-10 -2.81348e-10 1.99678e-10)
(3.17787e-10 -7.8666e-10 5.65198e-10)
(5.07688e-10 -1.25633e-09 9.24472e-10)
(6.91499e-10 -1.7069e-09 1.30134e-09)
(8.76923e-10 -2.14962e-09 1.71719e-09)
(1.07173e-09 -2.58951e-09 2.19215e-09)
(1.28478e-09 -3.02428e-09 2.74564e-09)
(1.5272e-09 -3.44146e-09 3.39629e-09)
(1.81483e-09 -3.81407e-09 4.16162e-09)
(2.17255e-09 -4.09196e-09 5.05634e-09)
(2.64526e-09 -4.18689e-09 6.09121e-09)
(3.32274e-09 -3.94071e-09 7.27297e-09)
(4.40244e-09 -3.05004e-09 8.61422e-09)
(6.32673e-09 -8.85171e-10 1.0158e-08)
(9.93342e-09 3.75349e-09 1.19487e-08)
(1.5268e-08 1.11744e-08 1.33493e-08)
(3.37797e-10 -8.35314e-10 5.93536e-10)
(9.44127e-10 -2.3358e-09 1.67962e-09)
(1.50788e-09 -3.73126e-09 2.74682e-09)
(2.05275e-09 -5.07149e-09 3.86528e-09)
(2.60105e-09 -6.39056e-09 5.09825e-09)
(3.17543e-09 -7.70522e-09 6.50506e-09)
(3.80096e-09 -9.01112e-09 8.14253e-09)
(4.50854e-09 -1.02763e-08 1.00651e-08)
(5.3395e-09 -1.14287e-08 1.23222e-08)
(6.35511e-09 -1.23377e-08 1.49523e-08)
(7.65463e-09 -1.27837e-08 1.79715e-08)
(9.41218e-09 -1.24153e-08 2.13549e-08)
(1.19404e-08 -1.0703e-08 2.50006e-08)
(1.57215e-08 -6.971e-09 2.86246e-08)
(2.11217e-08 -9.10266e-10 3.14831e-08)
(2.66466e-08 5.19598e-09 3.2076e-08)
(5.5293e-10 -1.3645e-09 9.72144e-10)
(1.54501e-09 -3.81664e-09 2.75058e-09)
(2.46629e-09 -6.10042e-09 4.49681e-09)
(3.35451e-09 -8.29927e-09 6.32481e-09)
(4.24521e-09 -1.04723e-08 8.3374e-09)
(5.17393e-09 -1.26523e-08 1.06308e-08)
(6.17925e-09 -1.4841e-08 1.32976e-08)
(7.30633e-09 -1.70009e-08 1.64262e-08)
(8.6118e-09 -1.90403e-08 2.00968e-08)
(1.01703e-08 -2.07915e-08 2.43705e-08)
(1.20859e-08 -2.19839e-08 2.92674e-08)
(1.45135e-08 -2.22242e-08 3.47301e-08)
(1.76671e-08 -2.10356e-08 4.05466e-08)
(2.17918e-08 -1.80977e-08 4.62239e-08)
(2.68392e-08 -1.40101e-08 5.07495e-08)
(3.13382e-08 -1.14677e-08 5.25792e-08)
(7.53618e-10 -1.85226e-09 1.3262e-09)
(2.10509e-09 -5.18314e-09 3.75159e-09)
(3.35765e-09 -8.29142e-09 6.13021e-09)
(4.56117e-09 -1.12947e-08 8.61609e-09)
(5.76208e-09 -1.42795e-08 1.13476e-08)
(7.00643e-09 -1.73e-08 1.44545e-08)
(8.34278e-09 -2.03745e-08 1.80616e-08)
(9.82554e-09 -2.34776e-08 2.22893e-08)
(1.15172e-08 -2.65264e-08 2.72477e-08)
(1.34897e-08 -2.93621e-08 3.30228e-08)
(1.58226e-08 -3.17276e-08 3.96482e-08)
(1.85922e-08 -3.32609e-08 4.70499e-08)
(2.18417e-08 -3.35499e-08 5.49491e-08)
(2.54881e-08 -3.23726e-08 6.26816e-08)
(2.91147e-08 -3.03019e-08 6.89236e-08)
(3.15927e-08 -2.93169e-08 7.16622e-08)
(9.35329e-10 -2.28216e-09 1.64776e-09)
(2.61133e-09 -6.38928e-09 4.65951e-09)
(4.16073e-09 -1.0231e-08 7.60865e-09)
(5.64281e-09 -1.39585e-08 1.06834e-08)
(7.11255e-09 -1.76873e-08 1.40527e-08)
(8.62369e-09 -2.1498e-08 1.78749e-08)
(1.02319e-08 -2.54345e-08 2.23026e-08)
(1.19969e-08 -2.94993e-08 2.7484e-08)
(1.3984e-08 -3.36441e-08 3.35577e-08)
(1.62595e-08 -3.77559e-08 4.06385e-08)
(1.888e-08 -4.16388e-08 4.87871e-08)
(2.18638e-08 -4.4998e-08 5.79493e-08)
(2.51272e-08 -4.74412e-08 6.78382e-08)
(2.83638e-08 -4.8554e-08 7.77001e-08)
(3.08972e-08 -4.82097e-08 8.59143e-08)
(3.18231e-08 -4.73563e-08 8.98046e-08)
(1.09451e-09 -2.63823e-09 1.93033e-09)
(3.05374e-09 -7.39013e-09 5.45611e-09)
(4.85928e-09 -1.18465e-08 8.90148e-09)
(6.57709e-09 -1.61904e-08 1.24825e-08)
(8.26782e-09 -2.05658e-08 1.63923e-08)
(9.99025e-09 -2.50817e-08 2.08113e-08)
(1.18043e-08 -2.98133e-08 2.59134e-08)
(1.37734e-08 -3.48013e-08 3.18687e-08)
(1.59654e-08 -4.00485e-08 3.88395e-08)
(1.84485e-08 -4.55144e-08 4.69696e-08)
(2.12809e-08 -5.11041e-08 5.63578e-08)
(2.44863e-08 -5.66486e-08 6.70056e-08)
(2.79918e-08 -6.18525e-08 7.86962e-08)
(3.15135e-08 -6.61756e-08 9.07388e-08)
(3.43519e-08 -6.86745e-08 1.01403e-07)
(3.53783e-08 -6.85208e-08 1.07274e-07)
(1.22875e-09 -2.90556e-09 2.16942e-09)
(3.4257e-09 -8.14376e-09 6.12852e-09)
(5.44284e-09 -1.30698e-08 9.98758e-09)
(7.34984e-09 -1.78939e-08 1.3983e-08)
(9.21016e-09 -2.27862e-08 1.83247e-08)
(1.10847e-08 -2.78827e-08 2.32077e-08)
(1.30348e-08 -3.32897e-08 2.88191e-08)
(1.51254e-08 -3.90875e-08 3.53413e-08)
(1.74268e-08 -4.5334e-08 4.29512e-08)
(2.00144e-08 -5.20681e-08 5.18121e-08)
(2.2969e-08 -5.93164e-08 6.20588e-08)
(2.63677e-08 -6.70948e-08 7.37529e-08)
(3.02793e-08 -7.53913e-08 8.68075e-08)
(3.47136e-08 -8.40451e-08 1.00733e-07)
(3.9395e-08 -9.2298e-08 1.1395e-07)
(4.30175e-08 -9.77709e-08 1.2243e-07)
(1.33686e-09 -3.07116e-09 2.36249e-09)
(3.72409e-09 -8.61355e-09 6.66996e-09)
(5.90702e-09 -1.38406e-08 1.08562e-08)
(7.95582e-09 -1.89836e-08 1.517e-08)
(9.93379e-09 -2.42326e-08 1.98302e-08)
(1.19008e-08 -2.97455e-08 2.50381e-08)
(1.39166e-08 -3.56544e-08 3.09842e-08)
(1.60439e-08 -4.20716e-08 3.78522e-08)
(1.83512e-08 -4.90977e-08 4.58182e-08)
(2.09168e-08 -5.68312e-08 5.50466e-08)
(2.38332e-08 -6.5386e-08 6.56774e-08)
(2.72212e-08 -7.49217e-08 7.78057e-08)
(3.1258e-08 -8.56932e-08 9.1427e-08)
(3.62068e-08 -9.8089e-08 1.06257e-07)
(4.23255e-08 -1.12421e-07 1.21126e-07)
(4.85555e-08 -1.26544e-07 1.31968e-07)
(1.15008e-10 -2.8705e-10 1.81941e-10)
(3.21352e-10 -8.027e-10 5.14709e-10)
(5.12964e-10 -1.28232e-09 8.41268e-10)
(6.97585e-10 -1.74302e-09 1.1826e-09)
(8.8251e-10 -2.19667e-09 1.55769e-09)
(1.07468e-09 -2.64911e-09 1.98369e-09)
(1.28147e-09 -3.09918e-09 2.47648e-09)
(1.51146e-09 -3.53681e-09 3.05002e-09)
(1.7757e-09 -3.93938e-09 3.71484e-09)
(2.09033e-09 -4.26676e-09 4.47458e-09)
(2.48253e-09 -4.45275e-09 5.31986e-09)
(3.00518e-09 -4.39089e-09 6.21801e-09)
(3.76721e-09 -3.90522e-09 7.09317e-09)
(4.99399e-09 -2.68346e-09 7.7908e-09)
(7.0572e-09 -1.96828e-10 7.99251e-09)
(9.75548e-09 3.61417e-09 7.14388e-09)
(3.41775e-10 -8.52198e-10 5.40776e-10)
(9.5487e-10 -2.3833e-09 1.52972e-09)
(1.52368e-09 -3.80816e-09 2.4995e-09)
(2.0712e-09 -5.17831e-09 3.51275e-09)
(2.61837e-09 -6.5296e-09 4.62496e-09)
(3.1855e-09 -7.88094e-09 5.88695e-09)
(3.79358e-09 -9.23134e-09 7.34531e-09)
(4.46613e-09 -1.05545e-08 9.04082e-09)
(5.23159e-09 -1.17906e-08 1.10034e-08)
(6.12721e-09 -1.28332e-08 1.32409e-08)
(7.20781e-09 -1.35158e-08 1.57188e-08)
(8.56039e-09 -1.36e-08 1.83207e-08)
(1.03179e-08 -1.27896e-08 2.07718e-08)
(1.26313e-08 -1.08336e-08 2.25048e-08)
(1.5402e-08 -7.89811e-09 2.24901e-08)
(1.75014e-08 -5.43551e-09 1.9956e-08)
(5.59567e-10 -1.39198e-09 8.85767e-10)
(1.56299e-09 -3.89392e-09 2.50525e-09)
(2.49295e-09 -6.22551e-09 4.09222e-09)
(3.38611e-09 -8.47289e-09 5.74848e-09)
(4.27603e-09 -1.06979e-08 7.56432e-09)
(5.19471e-09 -1.29364e-08 9.62233e-09)
(6.17457e-09 -1.51948e-08 1.19985e-08)
(7.25011e-09 -1.7443e-08 1.476e-08)
(8.45885e-09 -1.96042e-08 1.79566e-08)
(9.84201e-09 -2.15411e-08 2.16043e-08)
(1.14442e-08 -2.30458e-08 2.56525e-08)
(1.33057e-08 -2.38509e-08 2.9924e-08)
(1.54445e-08 -2.37125e-08 3.40191e-08)
(1.77614e-08 -2.26678e-08 3.71601e-08)
(1.98377e-08 -2.15323e-08 3.81471e-08)
(2.07653e-08 -2.19137e-08 3.63591e-08)
(7.62955e-10 -1.88941e-09 1.20856e-09)
(2.13041e-09 -5.28763e-09 3.41717e-09)
(3.39555e-09 -8.46038e-09 5.57928e-09)
(4.607e-09 -1.1529e-08 7.83202e-09)
(5.8088e-09 -1.45832e-08 1.02971e-08)
(7.0428e-09 -1.76807e-08 1.30862e-08)
(8.35034e-09 -2.08446e-08 1.63024e-08)
(9.77304e-09 -2.40564e-08 2.00378e-08)
(1.13516e-08 -2.72469e-08 2.43636e-08)
(1.31201e-08 -3.02837e-08 2.93096e-08)
(1.50916e-08 -3.29642e-08 3.48245e-08)
(1.72272e-08 -3.50315e-08 4.07061e-08)
(1.9369e-08 -3.62634e-08 4.64853e-08)
(2.11239e-08 -3.67126e-08 5.12707e-08)
(2.17754e-08 -3.70919e-08 5.37055e-08)
(2.08078e-08 -3.84806e-08 5.29296e-08)
(9.4735e-10 -2.32776e-09 1.5017e-09)
(2.64404e-09 -6.5174e-09 4.24477e-09)
(4.21024e-09 -1.04381e-08 6.92585e-09)
(5.7039e-09 -1.42453e-08 9.71287e-09)
(7.17765e-09 -1.80582e-08 1.27546e-08)
(8.68088e-09 -2.19608e-08 1.61875e-08)
(1.02616e-08 -2.60007e-08 2.0138e-08)
(1.19669e-08 -3.01853e-08 2.47208e-08)
(1.38395e-08 -3.44749e-08 3.00286e-08)
(1.59083e-08 -3.87728e-08 3.61104e-08)
(1.81651e-08 -4.2916e-08 4.293e-08)
(2.05165e-08 -4.66745e-08 5.02901e-08)
(2.26885e-08 -4.97764e-08 5.77046e-08)
(2.40812e-08 -5.1998e-08 6.42141e-08)
(2.37283e-08 -5.33641e-08 6.82734e-08)
(2.12838e-08 -5.4297e-08 6.85854e-08)
(1.10913e-09 -2.6907e-09 1.7595e-09)
(3.09379e-09 -7.53762e-09 4.97123e-09)
(4.92041e-09 -1.20848e-08 8.10408e-09)
(6.65405e-09 -1.652e-08 1.13509e-08)
(8.35312e-09 -2.0991e-08 1.48819e-08)
(1.00724e-08 -2.56099e-08 1.88528e-08)
(1.18648e-08 -3.04541e-08 2.34084e-08)
(1.37817e-08 -3.55659e-08 2.86811e-08)
(1.58708e-08 -4.09501e-08 3.47819e-08)
(1.81664e-08 -4.65689e-08 4.17806e-08)
(2.06686e-08 -5.23334e-08 4.96648e-08)
(2.32982e-08 -5.80866e-08 5.8264e-08)
(2.58099e-08 -6.35619e-08 6.71211e-08)
(2.76339e-08 -6.82739e-08 7.52625e-08)
(2.77625e-08 -7.13608e-08 8.09915e-08)
(2.5536e-08 -7.18801e-08 8.25226e-08)
(1.24587e-09 -2.96316e-09 1.97773e-09)
(3.47268e-09 -8.3056e-09 5.58487e-09)
(5.51531e-09 -1.33312e-08 9.0947e-09)
(7.44263e-09 -1.82552e-08 1.27183e-08)
(9.31641e-09 -2.32516e-08 1.66411e-08)
(1.11941e-08 -2.84586e-08 2.10314e-08)
(1.31312e-08 -3.39835e-08 2.60456e-08)
(1.51826e-08 -3.99051e-08 3.18264e-08)
(1.74014e-08 -4.62764e-08 3.84961e-08)
(1.98355e-08 -5.31269e-08 4.61386e-08)
(2.25145e-08 -6.04627e-08 5.47599e-08)
(2.54345e-08 -6.82641e-08 6.4229e-08)
(2.85054e-08 -7.64451e-08 7.41261e-08)
(3.14759e-08 -8.47129e-08 8.35071e-08)
(3.37909e-08 -9.21517e-08 9.0559e-08)
(3.45599e-08 -9.6466e-08 9.2985e-08)
(1.35621e-09 -3.13186e-09 2.15415e-09)
(3.77751e-09 -8.78415e-09 6.07946e-09)
(5.98996e-09 -1.41162e-08 9.88783e-09)
(8.06357e-09 -1.93644e-08 1.38015e-08)
(1.00603e-08 -2.47226e-08 1.8014e-08)
(1.20376e-08 -3.03506e-08 2.26995e-08)
(1.40505e-08 -3.63799e-08 2.80175e-08)
(1.61537e-08 -4.29192e-08 3.41119e-08)
(1.84028e-08 -5.00594e-08 4.1105e-08)
(2.08535e-08 -5.78806e-08 4.90801e-08)
(2.35612e-08 -6.64613e-08 5.80505e-08)
(2.65775e-08 -7.5893e-08 6.78952e-08)
(2.99481e-08 -8.62949e-08 7.82319e-08)
(3.37112e-08 -9.7804e-08 8.81561e-08)
(3.78194e-08 -1.10334e-07 9.57648e-08)
(4.15313e-08 -1.21808e-07 9.81771e-08)
(1.1587e-10 -2.91874e-10 1.57852e-10)
(3.23609e-10 -8.1628e-10 4.46418e-10)
(5.15951e-10 -1.30431e-09 7.2896e-10)
(7.00364e-10 -1.77361e-09 1.02357e-09)
(8.83442e-10 -2.23658e-09 1.34579e-09)
(1.07114e-09 -2.69979e-09 1.70964e-09)
(1.26915e-09 -3.16328e-09 2.12721e-09)
(1.48318e-09 -3.61914e-09 2.60801e-09)
(1.71929e-09 -4.04908e-09 3.15664e-09)
(1.98488e-09 -4.42158e-09 3.76896e-09)
(2.29115e-09 -4.68795e-09 4.4249e-09)
(2.65993e-09 -4.77748e-09 5.077e-09)
(3.1405e-09 -4.5849e-09 5.63568e-09)
(3.83964e-09 -3.93065e-09 5.9527e-09)
(4.93537e-09 -2.47612e-09 5.83359e-09)
(6.2966e-09 -2.43185e-12 5.17319e-09)
(3.44395e-10 -8.66481e-10 4.69208e-10)
(9.61674e-10 -2.42348e-09 1.32668e-09)
(1.53292e-09 -3.87323e-09 2.16612e-09)
(2.07993e-09 -5.2687e-09 3.04042e-09)
(2.62199e-09 -6.64729e-09 3.99602e-09)
(3.1765e-09 -8.02989e-09 5.07403e-09)
(3.75968e-09 -9.41867e-09 6.31015e-09)
(4.387e-09 -1.0793e-08 7.73203e-09)
(5.07331e-09 -1.2104e-08 9.35297e-09)
(5.83251e-09 -1.32667e-08 1.11594e-08)
(6.67879e-09 -1.4156e-08 1.30892e-08)
(7.62933e-09 -1.46091e-08 1.49965e-08)
(8.70619e-09 -1.44505e-08 1.65993e-08)
(9.90785e-09 -1.35605e-08 1.74169e-08)
(1.10975e-08 -1.20234e-08 1.68379e-08)
(1.17653e-08 -1.04685e-08 1.49108e-08)
(5.64012e-10 -1.41519e-09 7.68611e-10)
(1.57465e-09 -3.95927e-09 2.17289e-09)
(2.50897e-09 -6.33116e-09 3.54663e-09)
(3.40204e-09 -8.61938e-09 4.97603e-09)
(4.28471e-09 -1.0888e-08 6.53646e-09)
(5.18473e-09 -1.31756e-08 8.29494e-09)
(6.12739e-09 -1.54926e-08 1.031e-08)
(7.1354e-09 -1.78162e-08 1.26276e-08)
(8.22668e-09 -2.00827e-08 1.52715e-08)
(9.4101e-09 -2.21806e-08 1.82247e-08)
(1.06766e-08 -2.3949e-08 2.1397e-08)
(1.19862e-08 -2.52003e-08 2.45784e-08)
(1.3236e-08 -2.58005e-08 2.7368e-08)
(1.42214e-08 -2.58522e-08 2.91484e-08)
(1.46168e-08 -2.5943e-08 2.92611e-08)
(1.42728e-08 -2.68508e-08 2.79803e-08)
(7.6933e-10 -1.92077e-09 1.0487e-09)
(2.14727e-09 -5.37574e-09 2.96426e-09)
(3.41925e-09 -8.60272e-09 4.83602e-09)
(4.63182e-09 -1.17258e-08 6.78052e-09)
(5.82592e-09 -1.48374e-08 8.89946e-09)
(7.03822e-09 -1.79982e-08 1.12835e-08)
(8.30158e-09 -2.12348e-08 1.40125e-08)
(9.64378e-09 -2.45349e-08 1.71504e-08)
(1.10831e-08 -2.78404e-08 2.07339e-08)
(1.26177e-08 -3.10396e-08 2.47499e-08)
(1.42053e-08 -3.39672e-08 2.90984e-08)
(1.57261e-08 -3.64271e-08 3.35363e-08)
(1.69223e-08 -3.82731e-08 3.76122e-08)
(1.73401e-08 -3.95843e-08 4.06451e-08)
(1.64396e-08 -4.08658e-08 4.19381e-08)
(1.44728e-08 -4.25945e-08 4.16323e-08)
(9.55751e-10 -2.36612e-09 1.30333e-09)
(2.66649e-09 -6.62521e-09 3.68262e-09)
(4.24239e-09 -1.06119e-08 6.00411e-09)
(5.73944e-09 -1.4485e-08 8.41037e-09)
(7.20686e-09 -1.83664e-08 1.10258e-08)
(8.68863e-09 -2.23423e-08 1.39615e-08)
(1.02239e-08 -2.64627e-08 1.73158e-08)
(1.18455e-08 -3.07383e-08 2.11693e-08)
(1.35736e-08 -3.51341e-08 2.55727e-08)
(1.5402e-08 -3.95629e-08 3.05227e-08)
(1.72702e-08 -4.38787e-08 3.59222e-08)
(1.90124e-08 -4.7878e-08 4.15211e-08)
(2.02722e-08 -5.13193e-08 4.68471e-08)
(2.04155e-08 -5.39756e-08 5.11774e-08)
(1.86747e-08 -5.57392e-08 5.37289e-08)
(1.54201e-08 -5.67022e-08 5.43844e-08)
(1.11963e-09 -2.73477e-09 1.52728e-09)
(3.12199e-09 -7.66132e-09 4.31358e-09)
(4.96172e-09 -1.2284e-08 7.02682e-09)
(6.70184e-09 -1.6794e-08 9.83081e-09)
(8.39762e-09 -2.13416e-08 1.2868e-08)
(1.00986e-08 -2.60403e-08 1.62657e-08)
(1.18493e-08 -3.09679e-08 2.01365e-08)
(1.36879e-08 -3.61657e-08 2.45744e-08)
(1.56411e-08 -4.16358e-08 2.96425e-08)
(1.77114e-08 -4.7335e-08 3.5348e-08)
(1.98529e-08 -5.31657e-08 4.1603e-08)
(2.19253e-08 -5.89556e-08 4.81635e-08)
(2.3609e-08 -6.44048e-08 5.45423e-08)
(2.43108e-08 -6.8971e-08 5.99749e-08)
(2.32055e-08 -7.17032e-08 6.35595e-08)
(2.02817e-08 -7.16554e-08 6.49451e-08)
(1.25842e-09 -3.01137e-09 1.71705e-09)
(3.50671e-09 -8.4409e-09 4.84691e-09)
(5.56601e-09 -1.35488e-08 7.88737e-09)
(7.50357e-09 -1.8554e-08 1.10178e-08)
(9.37835e-09 -2.36324e-08 1.43934e-08)
(1.12432e-08 -2.89229e-08 1.81522e-08)
(1.31462e-08 -3.45308e-08 2.24161e-08)
(1.51306e-08 -4.05302e-08 2.7287e-08)
(1.72318e-08 -4.69638e-08 3.28347e-08)
(1.94699e-08 -5.38421e-08 3.90733e-08)
(2.18387e-08 -6.11396e-08 4.59243e-08)
(2.42763e-08 -6.87766e-08 5.31386e-08)
(2.66336e-08 -7.65703e-08 6.02213e-08)
(2.86305e-08 -8.40811e-08 6.63271e-08)
(2.98556e-08 -9.0249e-08 7.03512e-08)
(3.00071e-08 -9.30671e-08 7.17337e-08)
(1.37075e-09 -3.18254e-09 1.87052e-09)
(3.81711e-09 -8.92637e-09 5.27718e-09)
(6.0499e-09 -1.43449e-08 8.57705e-09)
(8.13776e-09 -1.96778e-08 1.19592e-08)
(1.01405e-08 -2.5121e-08 1.5586e-08)
(1.21116e-08 -3.08339e-08 1.96004e-08)
(1.41001e-08 -3.69446e-08 2.41271e-08)
(1.61512e-08 -4.35538e-08 2.92688e-08)
(1.83057e-08 -5.07371e-08 3.50949e-08)
(2.05982e-08 -5.8547e-08 4.16191e-08)
(2.30523e-08 -6.70141e-08 4.87584e-08)
(2.56754e-08 -7.61478e-08 5.62658e-08)
(2.84565e-08 -8.59306e-08 6.36228e-08)
(3.13881e-08 -9.62887e-08 6.9897e-08)
(3.45007e-08 -1.06928e-07 7.36959e-08)
(3.75303e-08 -1.16155e-07 7.39995e-08)
(1.16364e-10 -2.95759e-10 1.28411e-10)
(3.24784e-10 -8.272e-10 3.62967e-10)
(5.17243e-10 -1.32197e-09 5.9242e-10)
(7.00769e-10 -1.7982e-09 8.30802e-10)
(8.81318e-10 -2.26862e-09 1.09062e-09)
(1.06385e-09 -2.74041e-09 1.38232e-09)
(1.25254e-09 -3.21464e-09 1.71468e-09)
(1.45046e-09 -3.68483e-09 2.09339e-09)
(1.65986e-09 -4.13597e-09 2.51954e-09)
(1.8817e-09 -4.54179e-09 2.98559e-09)
(2.11742e-09 -4.86341e-09 3.47042e-09)
(2.37403e-09 -5.04604e-09 3.93286e-09)
(2.67725e-09 -5.00843e-09 4.30678e-09)
(3.10164e-09 -4.602e-09 4.51332e-09)
(3.79837e-09 -3.50898e-09 4.51728e-09)
(4.73832e-09 -1.42279e-09 4.38583e-09)
(3.45902e-10 -8.77975e-10 3.81675e-10)
(9.6539e-10 -2.4558e-09 1.07893e-09)
(1.5371e-09 -3.92555e-09 1.76026e-09)
(2.08168e-09 -5.34126e-09 2.46809e-09)
(2.61666e-09 -6.7417e-09 3.2386e-09)
(3.15654e-09 -8.14919e-09 4.10308e-09)
(3.71305e-09 -9.56819e-09 5.087e-09)
(4.29486e-09 -1.09825e-08 6.20759e-09)
(4.90572e-09 -1.23505e-08 7.46727e-09)
(5.54319e-09 -1.36008e-08 8.8437e-09)
(6.19768e-09 -1.46302e-08 1.02737e-08)
(6.85501e-09 -1.5307e-08 1.16325e-08)
(7.50371e-09 -1.54857e-08 1.27098e-08)
(8.14808e-09 -1.50286e-08 1.32257e-08)
(8.78528e-09 -1.38543e-08 1.29345e-08)
(9.26631e-09 -1.2264e-08 1.20522e-08)
(5.66662e-10 -1.43388e-09 6.25275e-10)
(1.58128e-09 -4.0118e-09 1.76723e-09)
(2.51684e-09 -6.41601e-09 2.88246e-09)
(3.40663e-09 -8.73681e-09 4.03976e-09)
(4.2787e-09 -1.10398e-08 5.29816e-09)
(5.15659e-09 -1.33658e-08 6.70861e-09)
(6.05911e-09 -1.57281e-08 8.31326e-09)
(6.99856e-09 -1.81088e-08 1.01408e-08)
(7.97767e-09 -2.04531e-08 1.21977e-08)
(8.98291e-09 -2.26639e-08 1.44525e-08)
(9.97631e-09 -2.46036e-08 1.68134e-08)
(1.08839e-08 -2.61124e-08 1.90969e-08)
(1.15903e-08 -2.7068e-08 2.10155e-08)
(1.19514e-08 -2.75058e-08 2.22067e-08)
(1.1889e-08 -2.7774e-08 2.24461e-08)
(1.16328e-08 -2.83764e-08 2.21154e-08)
(7.73295e-10 -1.94596e-09 8.53326e-10)
(2.15735e-09 -5.44653e-09 2.41103e-09)
(3.43188e-09 -8.71682e-09 3.93088e-09)
(4.64118e-09 -1.1883e-08 5.50551e-09)
(5.82298e-09 -1.50394e-08 7.2147e-09)
(7.00881e-09 -1.82486e-08 9.12762e-09)
(8.22357e-09 -2.15396e-08 1.13018e-08)
(9.48335e-09 -2.49038e-08 1.37781e-08)
(1.07889e-08 -2.82888e-08 1.65692e-08)
(1.21148e-08 -3.15931e-08 1.96418e-08)
(1.33904e-08 -3.46653e-08 2.28889e-08)
(1.44718e-08 -3.73227e-08 2.61003e-08)
(1.51105e-08 -3.94102e-08 2.89481e-08)
(1.49646e-08 -4.09281e-08 3.10464e-08)
(1.37975e-08 -4.21833e-08 3.21722e-08)
(1.21891e-08 -4.35234e-08 3.25981e-08)
(9.61178e-10 -2.39692e-09 1.06057e-09)
(2.68049e-09 -6.7116e-09 2.99579e-09)
(4.26083e-09 -1.07508e-08 4.88109e-09)
(5.75581e-09 -1.46756e-08 6.83007e-09)
(7.21103e-09 -1.86095e-08 8.94035e-09)
(8.66512e-09 -2.26401e-08 1.12968e-08)
(1.01491e-08 -2.68183e-08 1.39707e-08)
(1.16834e-08 -3.1155e-08 1.7014e-08)
(1.32713e-08 -3.56158e-08 2.04474e-08)
(1.48841e-08 -4.01138e-08 2.42402e-08)
(1.64376e-08 -4.45016e-08 2.8281e-08)
(1.77515e-08 -4.85675e-08 3.23466e-08)
(1.84973e-08 -5.20414e-08 3.60874e-08)
(1.81788e-08 -5.46245e-08 3.90951e-08)
(1.63468e-08 -5.60944e-08 4.11114e-08)
(1.36395e-08 -5.65675e-08 4.2246e-08)
(1.12664e-09 -2.77004e-09 1.24304e-09)
(3.14037e-09 -7.7602e-09 3.50964e-09)
(4.987e-09 -1.24426e-08 5.71353e-09)
(6.72712e-09 -1.70107e-08 7.9852e-09)
(8.41272e-09 -2.16162e-08 1.04367e-08)
(1.0088e-08 -2.63729e-08 1.31652e-08)
(1.17896e-08 -3.13571e-08 1.62528e-08)
(1.35443e-08 -3.66067e-08 1.97606e-08)
(1.53631e-08 -4.21172e-08 2.37159e-08)
(1.72295e-08 -4.78341e-08 2.80921e-08)
(1.90785e-08 -5.36399e-08 3.27772e-08)
(2.0761e-08 -5.9328e-08 3.75331e-08)
(2.1996e-08 -6.45467e-08 4.19892e-08)
(2.23301e-08 -6.8684e-08 4.56843e-08)
(2.12424e-08 -7.07612e-08 4.82918e-08)
(1.89492e-08 -7.00562e-08 4.9839e-08)
(1.26705e-09 -3.04988e-09 1.39766e-09)
(3.52969e-09 -8.54875e-09 3.94427e-09)
(5.5987e-09 -1.37215e-08 6.41447e-09)
(7.53929e-09 -1.87892e-08 8.9513e-09)
(9.40719e-09 -2.39287e-08 1.16771e-08)
(1.12506e-08 -2.92779e-08 1.46974e-08)
(1.31106e-08 -3.49389e-08 1.81012e-08)
(1.50203e-08 -4.09784e-08 2.19546e-08)
(1.70016e-08 -4.74259e-08 2.6289e-08)
(1.90595e-08 -5.42701e-08 3.10795e-08)
(2.11703e-08 -6.14475e-08 3.62064e-08)
(2.32717e-08 -6.88231e-08 4.14235e-08)
(2.52459e-08 -7.61318e-08 4.63076e-08)
(2.69379e-08 -8.28505e-08 5.03007e-08)
(2.82058e-08 -8.79466e-08 5.29243e-08)
(2.89413e-08 -8.98282e-08 5.42008e-08)
(1.38101e-09 -3.22293e-09 1.52288e-09)
(3.84472e-09 -9.03943e-09 4.29518e-09)
(6.09029e-09 -1.45257e-08 6.97672e-09)
(8.18451e-09 -1.99235e-08 9.71851e-09)
(1.01847e-08 -2.54292e-08 1.26485e-08)
(1.21403e-08 -3.12004e-08 1.58764e-08)
(1.40942e-08 -3.73602e-08 1.94933e-08)
(1.60834e-08 -4.39993e-08 2.3566e-08)
(1.81377e-08 -5.11758e-08 2.81248e-08)
(2.02786e-08 -5.89127e-08 3.31408e-08)
(2.25177e-08 -6.71943e-08 3.84914e-08)
(2.48584e-08 -7.59599e-08 4.39083e-08)
(2.7314e-08 -8.50964e-08 4.89257e-08)
(2.99717e-08 -9.44394e-08 5.28632e-08)
(3.30768e-08 -1.03728e-07 5.49679e-08)
(3.65504e-08 -1.11774e-07 5.50797e-08)
(1.16584e-10 -2.98656e-10 9.47295e-11)
(3.25267e-10 -8.35349e-10 2.67778e-10)
(5.17467e-10 -1.33518e-09 4.36632e-10)
(6.99806e-10 -1.8164e-09 6.11885e-10)
(8.77976e-10 -2.29253e-09 8.02181e-10)
(1.05582e-09 -2.77071e-09 1.01487e-09)
(1.23627e-09 -3.25259e-09 1.25565e-09)
(1.42076e-09 -3.73291e-09 1.52781e-09)
(1.60879e-09 -4.19806e-09 1.83061e-09)
(1.79803e-09 -4.62449e-09 2.15695e-09)
(1.98589e-09 -4.97684e-09 2.49034e-09)
(2.17537e-09 -5.2042e-09 2.80236e-09)
(2.39096e-09 -5.22726e-09 3.05531e-09)
(2.71103e-09 -4.89228e-09 3.22032e-09)
(3.30051e-09 -3.86959e-09 3.32383e-09)
(4.16402e-09 -1.8328e-09 3.42815e-09)
(3.46648e-10 -8.86579e-10 2.81646e-10)
(9.67001e-10 -2.48001e-09 7.95803e-10)
(1.53805e-09 -3.96453e-09 1.29768e-09)
(2.07979e-09 -5.39569e-09 1.81787e-09)
(2.60749e-09 -6.81206e-09 2.38224e-09)
(3.13376e-09 -8.2376e-09 3.01253e-09)
(3.66683e-09 -9.67822e-09 3.72556e-09)
(4.21022e-09 -1.112e-08 4.5309e-09)
(4.76084e-09 -1.25254e-08 5.42632e-09)
(5.30749e-09 -1.38287e-08 6.39071e-09)
(5.8315e-09 -1.49338e-08 7.37478e-09)
(6.31407e-09 -1.57135e-08 8.29127e-09)
(6.75656e-09 -1.60114e-08 9.0157e-09)
(7.21201e-09 -1.56406e-08 9.40594e-09)
(7.79005e-09 -1.44142e-08 9.37477e-09)
(8.42599e-09 -1.25837e-08 9.03472e-09)
(5.68056e-10 -1.44788e-09 4.61415e-10)
(1.58444e-09 -4.05113e-09 1.30359e-09)
(2.51959e-09 -6.47961e-09 2.12515e-09)
(3.4047e-09 -8.82428e-09 2.97571e-09)
(4.26613e-09 -1.11527e-08 3.89758e-09)
(5.12342e-09 -1.35064e-08 4.92617e-09)
(5.99029e-09 -1.59004e-08 6.08926e-09)
(6.8719e-09 -1.83195e-08 7.40327e-09)
(7.76114e-09 -2.07128e-08 8.86633e-09)
(8.63336e-09 -2.29887e-08 1.04478e-08)
(9.44123e-09 -2.50142e-08 1.20744e-08)
(1.01141e-08 -2.66277e-08 1.36209e-08)
(1.05697e-08 -2.76775e-08 1.49094e-08)
(1.07648e-08 -2.81184e-08 1.57606e-08)
(1.0791e-08 -2.81621e-08 1.61091e-08)
(1.09146e-08 -2.83233e-08 1.61589e-08)
(7.75524e-10 -1.96487e-09 6.29652e-10)
(2.16264e-09 -5.49955e-09 1.77877e-09)
(3.43712e-09 -8.80197e-09 2.89841e-09)
(4.64163e-09 -1.20002e-08 4.05592e-09)
(5.8103e-09 -1.51889e-08 5.30822e-09)
(6.97094e-09 -1.84323e-08 6.70354e-09)
(8.14232e-09 -2.17602e-08 8.28006e-09)
(9.33191e-09 -2.51654e-08 1.00614e-08)
(1.053e-08 -2.85969e-08 1.20481e-08)
(1.17e-08 -3.19542e-08 1.42051e-08)
(1.27654e-08 -3.50841e-08 1.64464e-08)
(1.35949e-08 -3.77913e-08 1.8624e-08)
(1.39985e-08 -3.98834e-08 2.05371e-08)
(1.37675e-08 -4.12764e-08 2.19944e-08)
(1.28625e-08 -4.21731e-08 2.29344e-08)
(1.18288e-08 -4.30077e-08 2.34729e-08)
(9.64372e-10 -2.41996e-09 7.82744e-10)
(2.68844e-09 -6.77623e-09 2.21043e-09)
(4.27003e-09 -1.08545e-08 3.59956e-09)
(5.76019e-09 -1.48169e-08 5.03244e-09)
(7.2021e-09 -1.87885e-08 6.57898e-09)
(8.62943e-09 -2.28569e-08 8.29839e-09)
(1.00669e-08 -2.70726e-08 1.02381e-08)
(1.15264e-08 -3.14453e-08 1.24285e-08)
(1.30008e-08 -3.59376e-08 1.4874e-08)
(1.44524e-08 -4.04567e-08 1.75383e-08)
(1.57952e-08 -4.48437e-08 2.0329e-08)
(1.68711e-08 -4.88645e-08 2.30838e-08)
(1.74226e-08 -5.22065e-08 2.55849e-08)
(1.7108e-08 -5.45094e-08 2.76266e-08)
(1.56771e-08 -5.55059e-08 2.913e-08)
(1.36793e-08 -5.54633e-08 3.01089e-08)
(1.131e-09 -2.79644e-09 9.17505e-10)
(3.15139e-09 -7.83402e-09 2.58994e-09)
(5.00078e-09 -1.25605e-08 4.21406e-09)
(6.73791e-09 -1.7171e-08 5.88456e-09)
(8.41105e-09 -2.18172e-08 7.68162e-09)
(1.00605e-08 -2.66127e-08 9.67329e-09)
(1.17168e-08 -3.16315e-08 1.19142e-08)
(1.33984e-08 -3.69071e-08 1.44404e-08)
(1.51076e-08 -4.24267e-08 1.72594e-08)
(1.68203e-08 -4.81218e-08 2.03349e-08)
(1.84735e-08 -5.38528e-08 2.35673e-08)
(1.99451e-08 -5.93804e-08 2.67807e-08)
(2.103e-08 -6.43095e-08 2.9729e-08)
(2.14281e-08 -6.79921e-08 3.21684e-08)
(2.08103e-08 -6.94806e-08 3.39842e-08)
(1.9278e-08 -6.8285e-08 3.51735e-08)
(1.27259e-09 -3.07861e-09 1.03183e-09)
(3.54415e-09 -8.62908e-09 2.9111e-09)
(5.61818e-09 -1.38496e-08 4.7318e-09)
(7.55748e-09 -1.89623e-08 6.59771e-09)
(9.41564e-09 -2.41442e-08 8.59652e-09)
(1.12364e-08 -2.95317e-08 1.08023e-08)
(1.30555e-08 -3.52229e-08 1.32742e-08)
(1.48989e-08 -4.12768e-08 1.60514e-08)
(1.6781e-08 -4.77101e-08 1.91428e-08)
(1.87008e-08 -5.44901e-08 2.25095e-08)
(2.06399e-08 -6.1523e-08 2.60464e-08)
(2.25591e-08 -6.86298e-08 2.95535e-08)
(2.44142e-08 -7.55006e-08 3.27423e-08)
(2.61885e-08 -8.15954e-08 3.52884e-08)
(2.79089e-08 -8.59706e-08 3.6982e-08)
(2.93493e-08 -8.73573e-08 3.79082e-08)
(1.38785e-09 -3.25303e-09 1.12441e-09)