/*--------------------------------*- C++ -*----------------------------------*\
| =========                 |                                                 |
| \\      /  F ield         | OpenFOAM: The Open Source CFD Toolbox           |
|  \\    /   O peration     | Version:  v1912                                 |
|   \\  /    A nd           | Website:  www.openfoam.com                      |
|    \\/     M anipulation  |                                                 |
\*---------------------------------------------------------------------------*/
FoamFile
{
    version     2.0;
    format      ascii;
    class       surfaceScalarField;
    location    "0.9/fluid";
    object      meshPhi;
}
// * * * * * * * * * * * * * * * * * * * * * * * * * * * * * * * * * * * * * //

dimensions      [0 3 -1 0 0 0 0];
oriented        oriented;


internalField   nonuniform List<scalar> 
41600
(
1.31524e-13
-3.63751e-13
1.37069e-13
-1.41602e-13
2.51674e-13
-1.05953e-12
4.04084e-13
-4.17659e-13
3.65711e-13
-1.70483e-12
6.6613e-13
-6.89154e-13
4.78506e-13
-2.32194e-12
9.40642e-13
-9.74446e-13
5.949e-13
-2.92567e-12
1.24334e-12
-1.29021e-12
7.20211e-13
-3.52232e-12
1.58904e-12
-1.65241e-12
8.60916e-13
-4.10759e-12
1.99213e-12
-2.07693e-12
1.02575e-12
-4.66261e-12
2.46668e-12
-2.57995e-12
1.2276e-12
-5.14676e-12
3.02628e-12
-3.17816e-12
1.48746e-12
-5.48515e-12
3.68337e-12
-3.8892e-12
1.84262e-12
-5.54614e-12
4.44897e-12
-4.73348e-12
2.36385e-12
-5.09923e-12
5.33412e-12
-5.74089e-12
3.18703e-12
-3.73457e-12
6.35617e-12
-6.97048e-12
4.54107e-12
-7.44252e-13
7.54578e-12
-8.55261e-12
6.4871e-12
4.56172e-12
8.87335e-12
-1.0614e-11
1.31461e-11
1.11019e-11
-1.58784e-11
3.90949e-13
-7.1672e-13
4.0759e-13
-4.2107e-13
7.47931e-13
-2.08811e-12
1.20149e-12
-1.24184e-12
1.08639e-12
-3.36133e-12
1.9803e-12
-2.04871e-12
1.42058e-12
-4.58132e-12
2.79566e-12
-2.89603e-12
1.76464e-12
-5.77875e-12
3.69411e-12
-3.83316e-12
2.13391e-12
-6.96855e-12
4.71946e-12
-4.9073e-12
2.54682e-12
-8.14647e-12
5.91423e-12
-6.16533e-12
3.0275e-12
-9.28254e-12
7.31993e-12
-7.65475e-12
3.61033e-12
-1.03099e-11
8.97608e-12
-9.42402e-12
4.34841e-12
-1.11065e-11
1.09177e-11
-1.15224e-11
5.33007e-12
-1.14679e-11
1.31714e-11
-1.40015e-11
6.70995e-12
-1.10712e-11
1.5752e-11
-1.69231e-11
8.75333e-12
-9.44915e-12
1.86603e-11
-2.03828e-11
1.18292e-11
-6.0706e-12
2.18665e-11
-2.45471e-11
1.58056e-11
-9.92265e-13
2.51403e-11
-2.94042e-11
5.09118e-12
2.76559e-11
-3.5352e-11
6.39801e-13
-1.04836e-12
6.67571e-13
-6.89631e-13
1.2235e-12
-3.05538e-12
1.96753e-12
-2.03355e-12
1.77581e-12
-4.92196e-12
3.24182e-12
-3.35365e-12
2.3194e-12
-6.71619e-12
4.57438e-12
-4.73825e-12
2.87662e-12
-8.48646e-12
6.04077e-12
-6.26748e-12
3.47137e-12
-1.02602e-11
7.71213e-12
-8.01791e-12
4.13149e-12
-1.20405e-11
9.65747e-12
-1.00654e-11
4.89185e-12
-1.37988e-11
1.19441e-11
-1.24865e-11
5.79899e-12
-1.54636e-11
1.46356e-11
-1.53584e-11
6.91826e-12
-1.69027e-11
1.77865e-11
-1.87564e-11
8.34558e-12
-1.78999e-11
2.1432e-11
-2.27495e-11
1.02246e-11
-1.81364e-11
2.55712e-11
-2.73955e-11
1.27534e-11
-1.72093e-11
3.01383e-11
-3.2733e-11
1.61036e-11
-1.47858e-11
3.49422e-11
-3.87515e-11
1.98366e-11
-1.11611e-11
3.94809e-11
-4.50356e-11
-7.13349e-12
4.30952e-11
-5.24798e-11
8.71779e-13
-1.34793e-12
9.10682e-13
-9.40726e-13
1.66607e-12
-3.93018e-12
2.68339e-12
-2.77323e-12
2.41549e-12
-6.33705e-12
4.4191e-12
-4.57114e-12
3.14975e-12
-8.66002e-12
6.23105e-12
-6.45352e-12
3.89791e-12
-1.09669e-11
8.22103e-12
-8.52829e-12
4.69045e-12
-1.33017e-11
1.04848e-11
-1.08984e-11
5.56174e-12
-1.56822e-11
1.31155e-11
-1.36657e-11
6.55275e-12
-1.80946e-11
1.62039e-11
-1.69331e-11
7.71399e-12
-2.04839e-11
1.98366e-11
-2.08036e-11
9.10834e-12
-2.27399e-11
2.40879e-11
-2.53762e-11
1.08128e-11
-2.46789e-11
2.90044e-11
-3.07353e-11
1.29153e-11
-2.60269e-11
3.45762e-11
-3.69317e-11
1.54907e-11
-2.64272e-11
4.0686e-11
-4.39474e-11
1.85102e-11
-2.55329e-11
4.70145e-11
-5.16208e-11
2.14683e-11
-2.33895e-11
5.28288e-11
-5.92529e-11
-2.03266e-11
5.71523e-11
-6.74159e-11
1.08152e-12
-1.60481e-12
1.13138e-12
-1.1686e-12
2.06519e-12
-4.68156e-12
3.33255e-12
-3.44379e-12
2.98984e-12
-7.5566e-12
5.48438e-12
-5.6724e-12
3.89061e-12
-1.03441e-11
7.72539e-12
-8.00004e-12
4.8015e-12
-1.31321e-11
1.01798e-11
-1.05583e-11
5.75753e-12
-1.59838e-11
1.29644e-11
-1.34725e-11
6.79707e-12
-1.89377e-11
1.61926e-11
-1.68664e-11
7.96403e-12
-2.20043e-11
1.99759e-11
-2.08653e-11
9.30913e-12
-2.51616e-11
2.44221e-11
-2.55955e-11
1.08891e-11
-2.83459e-11
2.96268e-11
-3.11794e-11
1.27614e-11
-3.14385e-11
3.56569e-11
-3.7723e-11
1.49687e-11
-3.42453e-11
4.25163e-11
-4.52901e-11
1.7498e-11
-3.64657e-11
5.00791e-11
-5.38483e-11
2.01937e-11
-3.76587e-11
5.79531e-11
-6.31524e-11
2.25229e-11
-3.73824e-11
6.51755e-11
-7.22497e-11
-3.50458e-11
7.04141e-11
-8.13676e-11
1.26491e-12
-1.80889e-12
1.32525e-12
-1.36869e-12
2.41292e-12
-5.27982e-12
3.90186e-12
-4.03159e-12
3.48721e-12
-8.53203e-12
6.4156e-12
-6.63458e-12
4.52653e-12
-1.17004e-11
9.02539e-12
-9.34464e-12
5.56798e-12
-1.4892e-11
1.18732e-11
-1.23121e-11
6.64914e-12
-1.819e-11
1.50921e-11
-1.56794e-11
7.81039e-12
-2.16554e-11
1.8811e-11
-1.9587e-11
9.09675e-12
-2.53281e-11
2.31576e-11
-2.41772e-11
1.05589e-11
-2.92263e-11
2.82568e-11
-2.95949e-11
1.22517e-11
-3.33456e-11
3.42255e-11
-3.59845e-11
1.42293e-11
-3.76558e-11
4.11582e-11
-4.34803e-11
1.65316e-11
-4.20896e-11
4.90981e-11
-5.21855e-11
1.91487e-11
-4.65066e-11
5.79715e-11
-6.21188e-11
2.1939e-11
-5.05845e-11
6.7424e-11
-7.30767e-11
2.4367e-11
-5.36134e-11
7.63737e-11
-8.39799e-11
-5.38563e-11
8.3206e-11
-9.49469e-11
1.41925e-12
-1.95102e-12
1.48918e-12
-1.53778e-12
2.70417e-12
-5.69806e-12
4.38216e-12
-4.5272e-12
3.90031e-12
-9.21887e-12
7.1975e-12
-7.44192e-12
5.0482e-12
-1.26653e-11
1.01091e-11
-1.04646e-11
6.18612e-12
-1.61609e-11
1.32712e-11
-1.37586e-11
7.3523e-12
-1.98061e-11
1.68276e-11
-1.74774e-11
8.58713e-12
-2.36827e-11
2.09167e-11
-2.17716e-11
9.93523e-12
-2.78572e-11
2.56753e-11
-2.6793e-11
1.1447e-11
-3.23848e-11
3.12386e-11
-3.26971e-11
1.31791e-11
-3.73154e-11
3.77377e-11
-3.96426e-11
1.51954e-11
-4.27016e-11
4.52915e-11
-4.7788e-11
1.75663e-11
-4.86117e-11
5.39899e-11
-5.72836e-11
2.03601e-11
-5.51359e-11
6.38497e-11
-6.82413e-11
2.35889e-11
-6.23358e-11
7.46654e-11
-8.06196e-11
2.68132e-11
-6.97851e-11
8.54321e-11
-9.34206e-11
-7.71011e-11
9.44492e-11
-1.07106e-10
1.54332e-12
1.62155e-12
-1.6742e-12
-2.02359e-12
2.93687e-12
4.76877e-12
-4.92578e-12
-5.91382e-12
4.22659e-12
7.82262e-12
-8.08677e-12
-9.58e-12
5.45289e-12
1.09661e-11
-1.13493e-11
-1.31856e-11
6.6534e-12
1.43601e-11
-1.48837e-11
-1.68657e-11
7.86502e-12
1.81529e-11
-1.8848e-11
-2.07337e-11
9.12601e-12
2.24854e-11
-2.33953e-11
-2.48864e-11
1.04782e-11
2.7495e-11
-2.86779e-11
-2.94088e-11
1.19688e-11
3.33163e-11
-3.48498e-11
-3.43798e-11
1.36532e-11
4.00799e-11
-4.20682e-11
-3.9879e-11
1.55987e-11
4.79084e-11
-5.04935e-11
-4.59978e-11
1.78936e-11
5.69087e-11
-6.02899e-11
-5.28566e-11
2.06539e-11
6.7147e-11
-7.16167e-11
-6.0621e-11
2.3985e-11
7.85386e-11
-8.45566e-11
-6.94778e-11
2.74797e-11
9.01779e-11
-9.82195e-11
-7.89957e-11
1.0128e-10
-1.14412e-10
-9.09949e-11
1.33698e-13
-3.72319e-13
1.27556e-13
2.5573e-13
-1.08462e-12
3.75875e-13
3.71344e-13
-1.74569e-12
6.19088e-13
4.85337e-13
-2.3788e-12
8.73064e-13
6.02385e-13
-2.99964e-12
1.15194e-12
7.27435e-13
-3.61548e-12
1.46874e-12
8.66301e-13
-4.22325e-12
1.8356e-12
1.02651e-12
-4.8061e-12
2.26355e-12
1.21888e-12
-5.32738e-12
2.76154e-12
1.46063e-12
-5.72056e-12
3.33439e-12
1.7822e-12
-5.87265e-12
3.9791e-12
2.24106e-12
-5.59603e-12
4.67829e-12
2.94497e-12
-4.58194e-12
5.38779e-12
4.06041e-12
-2.35859e-12
6.01064e-12
5.59302e-12
1.41836e-12
6.3596e-12
6.3697e-12
6.28174e-12
3.97441e-13
-7.3357e-13
3.79304e-13
7.60051e-13
-2.13744e-12
1.11763e-12
1.10327e-12
-3.4417e-12
1.84049e-12
1.44115e-12
-4.69317e-12
2.59491e-12
1.78734e-12
-5.92426e-12
3.42273e-12
2.15617e-12
-7.15168e-12
4.36252e-12
2.56414e-12
-8.37337e-12
5.45022e-12
3.032e-12
-9.56287e-12
6.71845e-12
3.58816e-12
-1.06599e-11
8.19358e-12
4.27519e-12
-1.1556e-11
9.88939e-12
5.16275e-12
-1.20759e-11
1.17952e-11
6.37113e-12
-1.19595e-11
1.38542e-11
8.10054e-12
-1.0872e-11
1.59241e-11
1.05997e-11
-8.53264e-12
1.77052e-11
1.36958e-11
-5.21654e-12
1.86912e-11
-2.56445e-12
1.77236e-11
6.50536e-13
-1.07296e-12
6.2127e-13
1.24359e-12
-3.12741e-12
1.83029e-12
1.80391e-12
-5.03933e-12
3.01312e-12
2.35391e-12
-6.87956e-12
4.24623e-12
2.91523e-12
-8.69896e-12
5.59763e-12
3.51024e-12
-1.05274e-11
7.12999e-12
4.16393e-12
-1.23706e-11
8.90185e-12
4.90612e-12
-1.42042e-11
1.09665e-11
5.77442e-12
-1.59641e-11
1.33675e-11
6.8186e-12
-1.75326e-11
1.61279e-11
8.10785e-12
-1.87239e-11
1.92309e-11
9.73935e-12
-1.92822e-11
2.2584e-11
1.18336e-11
-1.89302e-11
2.59556e-11
1.44518e-11
-1.75553e-11
2.88816e-11
1.72054e-11
-1.56154e-11
3.0655e-11
-1.45094e-11
3.02474e-11
8.86653e-13
-1.37949e-12
8.47586e-13
1.69398e-12
-4.02263e-12
2.49642e-12
2.45475e-12
-6.48775e-12
4.10775e-12
3.19845e-12
-8.86984e-12
5.7848e-12
3.95331e-12
-1.12397e-11
7.61923e-12
4.74807e-12
-1.36443e-11
9.69559e-12
5.61374e-12
-1.61042e-11
1.20931e-11
6.58534e-12
-1.86096e-11
1.48847e-11
7.70281e-12
-2.11119e-11
1.81309e-11
9.01077e-12
-2.35126e-11
2.18677e-11
1.0555e-11
-2.56517e-11
2.60807e-11
1.23709e-11
-2.73034e-11
3.066e-11
1.44494e-11
-2.82055e-11
3.53224e-11
1.66571e-11
-2.81784e-11
3.95008e-11
1.85653e-11
-2.74061e-11
4.23281e-11
-2.68564e-11
4.26153e-11
1.10037e-12
-1.64233e-12
1.05311e-12
2.10068e-12
-4.79149e-12
3.10071e-12
3.04006e-12
-7.73586e-12
5.09868e-12
3.95355e-12
-1.05938e-11
7.17332e-12
4.87439e-12
-1.34567e-11
9.43661e-12
5.83589e-12
-1.6391e-11
1.19918e-11
6.87313e-12
-1.94379e-11
1.49359e-11
8.02398e-12
-2.26112e-11
1.83591e-11
9.32854e-12
-2.58932e-11
2.23391e-11
1.08252e-11
-2.92269e-11
2.69274e-11
1.254e-11
-3.25067e-11
3.21228e-11
1.44622e-11
-3.55635e-11
3.7821e-11
1.64938e-11
-3.81449e-11
4.37247e-11
1.83723e-11
-3.99005e-11
4.92034e-11
1.96371e-11
-4.04906e-11
5.32122e-11
-4.01164e-11
5.43035e-11
1.2875e-12
-1.85115e-12
1.23373e-12
2.45558e-12
-5.40365e-12
3.63096e-12
3.54791e-12
-8.73403e-12
5.96542e-12
4.60335e-12
-1.19818e-11
8.38209e-12
5.65847e-12
-1.5258e-11
1.10091e-11
6.74944e-12
-1.86488e-11
1.39643e-11
7.91377e-12
-2.2218e-11
1.73584e-11
9.19126e-12
-2.60076e-11
2.12952e-11
1.06233e-11
-3.00379e-11
2.58668e-11
1.2249e-11
-3.43065e-11
3.11409e-11
1.40952e-11
-3.87856e-11
3.71365e-11
1.61549e-11
-4.34111e-11
4.37742e-11
1.83419e-11
-4.80453e-11
5.07819e-11
2.04132e-11
-5.23685e-11
5.75224e-11
2.18867e-11
-5.56936e-11
6.28094e-11
-5.67877e-11
6.49329e-11
1.44523e-12
-1.99659e-12
1.38657e-12
2.75337e-12
-5.83161e-12
4.07861e-12
3.97068e-12
-9.43686e-12
6.69374e-12
5.13803e-12
-1.29692e-11
9.39066e-12
6.29348e-12
-1.65562e-11
1.23088e-11
7.47433e-12
-2.03018e-11
1.55756e-11
8.71884e-12
-2.42899e-11
1.93103e-11
1.00677e-11
-2.85884e-11
2.36248e-11
1.15643e-11
-3.32529e-11
2.86195e-11
1.32537e-11
-3.83314e-11
3.43737e-11
1.51796e-11
-4.38722e-11
4.09238e-11
1.73782e-11
-4.99327e-11
4.82212e-11
1.98609e-11
-5.65793e-11
5.60416e-11
2.25595e-11
-6.382e-11
6.37961e-11
2.50807e-11
-7.11964e-11
7.02306e-11
-7.78583e-11
7.33878e-11
1.57225e-12
1.51008e-12
-2.07086e-12
2.99178e-12
4.43927e-12
-6.05245e-12
4.30545e-12
7.27664e-12
-9.80644e-12
5.55426e-12
1.01893e-11
-1.35016e-11
6.77596e-12
1.33228e-11
-1.72772e-11
8.007e-12
1.68089e-11
-2.12499e-11
9.28438e-12
2.07691e-11
-2.55186e-11
1.06473e-11
2.53161e-11
-3.01693e-11
1.21386e-11
3.05503e-11
-3.52795e-11
1.38059e-11
3.6551e-11
-4.09251e-11
1.57042e-11
4.33586e-11
-4.71891e-11
1.78996e-11
5.09382e-11
-5.41743e-11
2.0471e-11
5.91003e-11
-6.20118e-11
2.34664e-11
6.73261e-11
-7.08164e-11
2.65148e-11
7.43822e-11
-8.01083e-11
7.8141e-11
-9.08956e-11
1.35253e-13
-3.79857e-13
1.13539e-13
2.58542e-13
-1.10672e-12
3.34438e-13
3.74998e-13
-1.78176e-12
5.50385e-13
4.89205e-13
-2.42906e-12
7.75174e-13
6.05476e-13
-3.06521e-12
1.02091e-12
7.28122e-13
-3.69853e-12
1.29841e-12
8.61832e-13
-4.3276e-12
1.61726e-12
1.01216e-12
-4.93856e-12
1.9852e-12
1.18636e-12
-5.50068e-12
2.40667e-12
1.39513e-12
-5.95994e-12
2.87992e-12
1.65637e-12
-6.23025e-12
3.39173e-12
2.00225e-12
-6.18263e-12
3.90843e-12
2.4884e-12
-5.63515e-12
4.36107e-12
3.18462e-12
-4.36788e-12
4.6271e-12
4.03314e-12
-2.32508e-12
4.5518e-12
3.09643e-13
4.16367e-12
4.02108e-13
-7.48377e-13
3.37636e-13
7.68514e-13
-2.18084e-12
9.94452e-13
1.11432e-12
-3.5125e-12
1.6363e-12
1.45299e-12
-4.79178e-12
2.30407e-12
1.79713e-12
-6.05271e-12
3.03359e-12
2.15927e-12
-7.31391e-12
3.85696e-12
2.55272e-12
-8.57615e-12
4.80257e-12
2.99267e-12
-9.8179e-12
5.89347e-12
3.49766e-12
-1.09885e-11
7.14307e-12
4.09252e-12
-1.19991e-11
8.54667e-12
4.81405e-12
-1.27149e-11
1.00662e-11
5.71998e-12
-1.29571e-11
1.16045e-11
6.89275e-12
-1.25425e-11
1.29648e-11
8.39132e-12
-1.14194e-11
1.38107e-11
9.98453e-12
-9.95952e-12
1.37563e-11
-9.30881e-12
1.24921e-11
6.58335e-13
-1.09453e-12
5.53055e-13
1.25778e-12
-3.19062e-12
1.62868e-12
1.82262e-12
-5.14239e-12
2.67904e-12
2.37439e-12
-7.02296e-12
3.77067e-12
2.93318e-12
-8.88535e-12
4.96183e-12
3.51863e-12
-1.07618e-11
6.30477e-12
4.15101e-12
-1.26613e-11
7.84592e-12
4.85194e-12
-1.4565e-11
9.62337e-12
5.64474e-12
-1.64187e-11
1.16603e-11
6.55431e-12
-1.81249e-11
1.39521e-11
7.60584e-12
-1.9538e-11
1.64431e-11
8.81887e-12
-2.04788e-11
1.89888e-11
1.01838e-11
-2.0803e-11
2.13026e-11
1.15905e-11
-2.05733e-11
2.29162e-11
1.26908e-11
-2.02681e-11
2.3338e-11
-2.08083e-11
2.24932e-11
8.97607e-13
-1.40711e-12
7.54593e-13
1.71404e-12
-4.10354e-12
2.22166e-12
2.48152e-12
-6.61957e-12
3.65274e-12
3.22853e-12
-9.05302e-12
5.13764e-12
3.98146e-12
-1.14772e-11
6.755e-12
4.76578e-12
-1.39415e-11
8.57545e-12
5.60692e-12
-1.64696e-11
1.06621e-11
6.53026e-12
-1.90558e-11
1.30677e-11
7.55934e-12
-2.16594e-11
1.58266e-11
8.71078e-12
-2.41969e-11
1.8939e-11
9.9828e-12
-2.65376e-11
2.23434e-11
1.13308e-11
-2.85114e-11
2.58723e-11
1.26212e-11
-2.99533e-11
2.91928e-11
1.35742e-11
-3.08168e-11
3.17702e-11
1.38415e-11
-3.13218e-11
3.30328e-11
-3.21089e-11
3.28768e-11
1.11448e-12
-1.67507e-12
9.37685e-13
2.12667e-12
-4.88736e-12
2.75982e-12
3.07522e-12
-7.89198e-12
4.53458e-12
3.99416e-12
-1.08104e-11
6.37196e-12
4.91482e-12
-1.37369e-11
8.3681e-12
5.86716e-12
-1.674e-11
1.06094e-11
6.88046e-12
-1.9863e-11
1.31736e-11
7.98278e-12
-2.31222e-11
1.61266e-11
9.1977e-12
-2.65031e-11
1.95145e-11
1.05359e-11
-2.99554e-11
2.33466e-11
1.19774e-11
-3.33858e-11
2.75655e-11
1.34351e-11
-3.665e-11
3.19998e-11
1.46939e-11
-3.95422e-11
3.62979e-11
1.53574e-11
-4.179e-11
3.9879e-11
1.50445e-11
-4.31183e-11
4.20623e-11
-4.35961e-11
4.26281e-11
1.30468e-12
-1.8879e-12
1.09868e-12
2.48744e-12
-5.51127e-12
3.23228e-12
3.59159e-12
-8.9092e-12
5.30638e-12
4.65512e-12
-1.22247e-11
7.44729e-12
5.71283e-12
-1.55714e-11
9.76513e-12
6.79778e-12
-1.90375e-11
1.23587e-11
7.94212e-12
-2.26878e-11
1.5317e-11
9.1766e-12
-2.65642e-11
1.87166e-11
1.05276e-11
-3.06859e-11
2.26138e-11
1.20093e-11
-3.50476e-11
2.70276e-11
1.36074e-11
-3.96159e-11
3.19104e-11
1.52457e-11
-4.43167e-11
3.70979e-11
1.67297e-11
-4.89966e-11
4.22355e-11
1.76845e-11
-5.33205e-11
4.6706e-11
1.76845e-11
-5.66203e-11
4.97099e-11
-5.76579e-11
5.09123e-11
1.46534e-12
-2.03609e-12
1.23499e-12
2.79087e-12
-5.94729e-12
3.63144e-12
4.02271e-12
-9.62513e-12
5.95546e-12
5.20106e-12
-1.32301e-11
8.34539e-12
6.36256e-12
-1.68924e-11
1.09212e-11
7.54183e-12
-2.07174e-11
1.37901e-11
8.77261e-12
-2.47893e-11
1.7048e-11
1.0088e-11
-2.91738e-11
2.07779e-11
1.15187e-11
-3.39215e-11
2.50419e-11
1.30894e-11
-3.90699e-11
2.9866e-11
1.48093e-11
-4.46477e-11
3.52104e-11
1.66556e-11
-5.06751e-11
4.09198e-11
1.85426e-11
-5.71492e-11
4.66415e-11
2.02717e-11
-6.39625e-11
5.17228e-11
2.14723e-11
-7.0562e-11
5.52327e-11
-7.59692e-11
5.66795e-11
1.59502e-12
1.34525e-12
-2.11174e-12
3.03447e-12
3.95334e-12
-6.17218e-12
4.36527e-12
6.4755e-12
-1.00013e-11
5.62805e-12
9.05755e-12
-1.37717e-11
6.85948e-12
1.18249e-11
-1.76251e-11
8.09398e-12
1.48885e-11
-2.16794e-11
9.36498e-12
1.83465e-11
-2.60328e-11
1.07057e-11
2.22826e-11
-3.07681e-11
1.21493e-11
2.67588e-11
-3.59555e-11
1.37276e-11
3.18007e-11
-4.16564e-11
1.54687e-11
3.73698e-11
-4.79275e-11
1.73919e-11
4.33144e-11
-5.48243e-11
1.94952e-11
4.92871e-11
-6.23932e-11
2.17107e-11
5.46291e-11
-7.06132e-11
2.36771e-11
5.83353e-11
-7.8913e-11
5.94079e-11
-8.79992e-11
1.36261e-13
-3.8624e-13
9.56279e-14
2.60267e-13
-1.12544e-12
2.81578e-13
3.76964e-13
-1.81231e-12
4.63038e-13
4.90655e-13
-2.47166e-12
6.51369e-13
6.05187e-13
-3.12084e-12
8.56363e-13
7.24104e-13
-3.76918e-12
1.08651e-12
8.50813e-13
-4.41687e-12
1.34886e-12
9.88699e-13
-5.05296e-12
1.64834e-12
1.14131e-12
-5.65241e-12
1.98614e-12
1.31294e-12
-6.17236e-12
2.35701e-12
1.51012e-12
-6.54865e-12
2.74467e-12
1.74478e-12
-6.69384e-12
3.11545e-12
2.03769e-12
-6.49878e-12
3.41127e-12
2.41169e-12
-5.84422e-12
3.55061e-12
2.82215e-12
-4.69105e-12
3.46898e-12
-2.85399e-12
3.36252e-12
4.05165e-13
-7.60907e-13
2.84384e-13
7.73774e-13
-2.21757e-12
8.37304e-13
1.1204e-12
-3.5724e-12
1.37668e-12
1.4577e-12
-4.87517e-12
1.93618e-12
1.79697e-12
-6.16131e-12
2.54482e-12
2.14852e-12
-7.45117e-12
3.22777e-12
2.52208e-12
-8.7482e-12
4.006e-12
2.92675e-12
-1.00356e-11
4.89427e-12
3.37089e-12
-1.12716e-11
5.89655e-12
3.86211e-12
-1.23848e-11
6.99814e-12
4.40803e-12
-1.32722e-11
8.15283e-12
5.01777e-12
-1.38107e-11
9.26504e-12
5.69963e-12
-1.3897e-11
1.0172e-11
6.43695e-12
-1.35411e-11
1.06515e-11
7.09138e-12
-1.29962e-11
1.05445e-11
-1.28679e-11
9.88945e-12
6.63534e-13
-1.11276e-12
4.6586e-13
1.26682e-12
-3.24403e-12
1.37141e-12
1.83332e-12
-5.22938e-12
2.25418e-12
2.38338e-12
-7.14379e-12
3.16893e-12
2.93507e-12
-9.04204e-12
4.16289e-12
3.50478e-12
-1.09584e-11
5.2771e-12
4.10738e-12
-1.29049e-11
6.54601e-12
4.75564e-12
-1.48673e-11
7.9943e-12
5.45833e-12
-1.68006e-11
9.63012e-12
6.21678e-12
-1.86239e-11
1.14331e-11
7.0186e-12
-2.02218e-11
1.33354e-11
7.82659e-12
-2.14641e-11
1.51972e-11
8.55951e-12
-2.22685e-11
1.67857e-11
9.0709e-12
-2.27236e-11
1.77984e-11
9.19694e-12
-2.31651e-11
1.80401e-11
-2.40951e-11
1.77595e-11
9.05074e-13
-1.4304e-12
6.3569e-13
1.72717e-12
-4.17171e-12
1.87093e-12
2.49755e-12
-6.73045e-12
3.07383e-12
3.24322e-12
-9.2066e-12
4.31837e-12
3.98816e-12
-1.16754e-11
5.6683e-12
4.75394e-12
-1.41881e-11
7.17925e-12
5.55958e-12
-1.67707e-11
8.89826e-12
6.42013e-12
-1.94209e-11
1.086e-11
7.34266e-12
-2.21037e-11
1.30786e-11
8.31806e-12
-2.47467e-11
1.55331e-11
9.30584e-12
-2.72385e-11
1.81454e-11
1.02079e-11
-2.94396e-11
2.07523e-11
1.08334e-11
-3.12219e-11
2.30868e-11
1.08999e-11
-3.255e-11
2.48121e-11
1.02711e-11
-3.35464e-11
2.57022e-11
-3.45677e-11
2.5995e-11
1.12433e-12
-1.7026e-12
7.90037e-13
2.14422e-12
-4.96791e-12
2.32445e-12
3.09731e-12
-8.02278e-12
3.81651e-12
4.01608e-12
-1.09911e-11
5.35682e-12
4.92933e-12
-1.39689e-11
7.02343e-12
5.86289e-12
-1.70262e-11
8.88454e-12
6.83938e-12
-2.02072e-11
1.09982e-11
7.87633e-12
-2.3529e-11
1.34086e-11
8.98088e-12
-2.69781e-11
1.61365e-11
1.01389e-11
-3.05057e-11
1.91644e-11
1.12945e-11
-3.40218e-11
2.24115e-11
1.23136e-11
-3.73865e-11
2.57052e-11
1.29364e-11
-4.03977e-11
2.87597e-11
1.27784e-11
-4.27761e-11
3.12098e-11
1.16648e-11
-4.42072e-11
3.27712e-11
-4.46186e-11
3.36255e-11
1.31698e-12
-1.91871e-12
9.25824e-13
2.50963e-12
-5.60138e-12
2.72283e-12
3.62033e-12
-9.05535e-12
4.46689e-12
4.68559e-12
-1.2426e-11
6.26214e-12
5.73779e-12
-1.58288e-11
8.19807e-12
6.80604e-12
-1.93526e-11
1.03528e-11
7.91619e-12
-2.30615e-11
1.27931e-11
9.08919e-12
-2.69955e-11
1.55706e-11
1.03364e-11
-3.11691e-11
1.87122e-11
1.165e-11
-3.55687e-11
2.22044e-11
1.2984e-11
-4.01464e-11
2.59675e-11
1.4222e-11
-4.48036e-11
2.98228e-11
1.51315e-11
-4.93475e-11
3.34664e-11
1.53496e-11
-5.33938e-11
3.64918e-11
1.46356e-11
-5.62621e-11
3.85398e-11
-5.67358e-11
3.97652e-11
1.48007e-12
-2.06912e-12
1.04087e-12
2.81776e-12
-6.04386e-12
3.05962e-12
4.05839e-12
-9.78162e-12
5.01428e-12
5.24091e-12
-1.34453e-11
7.01898e-12
6.39978e-12
-1.71667e-11
9.17137e-12
7.56617e-12
-2.1051e-11
1.15563e-11
8.76829e-12
-2.51806e-11
1.42459e-11
1.00307e-11
-2.96168e-11
1.72963e-11
1.13715e-11
-3.44008e-11
2.0738e-11
1.27964e-11
-3.95541e-11
2.45595e-11
1.42886e-11
-4.5077e-11
2.86805e-11
1.579e-11
-5.09418e-11
3.29155e-11
1.71803e-11
-5.7069e-11
3.69348e-11
1.82641e-11
-6.32499e-11
4.02661e-11
1.88272e-11
-6.89039e-11
4.2441e-11
-7.30957e-11
4.35858e-11
1.61207e-12
1.13399e-12
-2.14583e-12
3.06589e-12
3.33145e-12
-6.27184e-12
4.40781e-12
5.4533e-12
-1.01628e-11
5.67745e-12
7.61992e-12
-1.39936e-11
6.90974e-12
9.93356e-12
-1.79072e-11
8.1362e-12
1.24822e-11
-2.20212e-11
9.38571e-12
1.53399e-11
-2.64311e-11
1.06846e-11
1.85632e-11
-3.12133e-11
1.20557e-11
2.21821e-11
-3.64265e-11
1.35159e-11
2.61836e-11
-4.2112e-11
1.5072e-11
3.04849e-11
-4.82925e-11
1.67141e-11
3.48931e-11
-5.49685e-11
1.84082e-11
3.90589e-11
-6.21027e-11
2.00797e-11
4.24564e-11
-6.95712e-11
2.14954e-11
4.45174e-11
-7.68041e-11
4.5014e-11
-8.44426e-11
1.36835e-13
-3.91381e-13
7.45294e-14
2.61152e-13
-1.1405e-12
2.19384e-13
3.77693e-13
-1.83689e-12
3.6053e-13
4.90462e-13
-2.50594e-12
5.06644e-13
6.0283e-13
-3.16557e-12
6.65085e-13
7.17602e-13
-3.82592e-12
8.4204e-13
8.3701e-13
-4.48844e-12
1.04234e-12
9.62602e-13
-5.14441e-12
1.26883e-12
1.09504e-12
-5.77278e-12
1.52104e-12
1.23418e-12
-6.3379e-12
1.79312e-12
1.37997e-12
-6.78781e-12
2.07102e-12
1.53502e-12
-7.05377e-12
2.32943e-12
1.7095e-12
-7.04928e-12
2.53124e-12
1.92306e-12
-6.66525e-12
2.63603e-12
2.16703e-12
-5.81322e-12
2.6272e-12
-4.14784e-12
2.70288e-12
4.06939e-13
-7.70997e-13
2.21649e-13
7.76553e-13
-2.24714e-12
6.52392e-13
1.12282e-12
-3.62058e-12
1.07196e-12
1.45754e-12
-4.94216e-12
1.50607e-12
1.79064e-12
-6.24836e-12
1.97652e-12
2.13036e-12
-7.56089e-12
2.50169e-12
2.4831e-12
-8.88521e-12
3.09598e-12
2.85284e-12
-1.0208e-11
3.76796e-12
3.24005e-12
-1.14937e-11
4.51662e-12
3.64066e-12
-1.26813e-11
5.32552e-12
4.04594e-12
-1.36851e-11
6.15462e-12
4.44475e-12
-1.44041e-11
6.93204e-12
4.82984e-12
-1.47508e-11
7.55291e-12
5.20331e-12
-1.47069e-11
7.90316e-12
5.54243e-12
-1.43997e-11
7.93776e-12
-1.42109e-11
7.69155e-12
6.66649e-13
-1.12743e-12
3.63116e-13
1.27182e-12
-3.28698e-12
1.06863e-12
1.83806e-12
-5.29923e-12
1.75538e-12
2.38438e-12
-7.24054e-12
2.46521e-12
2.92684e-12
-9.16702e-12
3.23361e-12
3.47868e-12
-1.11145e-11
4.09059e-12
4.04988e-12
-1.30968e-11
5.05989e-12
4.64572e-12
-1.51032e-11
6.15609e-12
5.26397e-12
-1.70941e-11
7.37898e-12
5.89044e-12
-1.89981e-11
8.70473e-12
6.49321e-12
-2.07136e-11
1.00741e-11
7.01639e-12
-2.21259e-11
1.13816e-11
7.37921e-12
-2.31547e-11
1.24763e-11
7.49917e-12
-2.38414e-11
1.32012e-11
7.38352e-12
-2.43983e-11
1.34993e-11
-2.51858e-11
1.35429e-11
9.09718e-13
-1.44911e-12
4.9554e-13
1.73483e-12
-4.22644e-12
1.45802e-12
2.50546e-12
-6.81923e-12
2.39395e-12
3.247e-12
-9.32905e-12
3.35983e-12
3.98099e-12
-1.18325e-11
4.40365e-12
4.7252e-12
-1.4382e-11
5.56613e-12
5.49288e-12
-1.70046e-11
6.87981e-12
6.29043e-12
-1.97e-11
8.36556e-12
7.11266e-12
-2.24355e-11
1.00256e-11
7.93439e-12
-2.51429e-11
1.1833e-11
8.69723e-12
-2.77159e-11
1.37177e-11
9.29187e-12
-3.00185e-11
1.55551e-11
9.54694e-12
-3.19123e-11
1.71717e-11
9.27478e-12
-3.33177e-11
1.83937e-11
8.51985e-12
-3.42791e-11
1.91505e-11
-3.5089e-11
1.95955e-11
1.13068e-12
-1.72467e-12
6.15937e-13
2.15499e-12
-5.03239e-12
1.81169e-12
3.10932e-12
-8.12715e-12
2.97278e-12
4.02443e-12
-1.11345e-11
4.16844e-12
4.92651e-12
-1.41514e-11
5.45748e-12
5.83737e-12
-1.72487e-11
6.88989e-12
6.77363e-12
-2.04704e-11
8.50602e-12
7.74404e-12
-2.38325e-11
1.03327e-11
8.74381e-12
-2.73197e-11
1.23756e-11
9.74413e-12
-3.08797e-11
1.46074e-11
1.06747e-11
-3.44155e-11
1.69526e-11
1.13981e-11
-3.77749e-11
1.92754e-11
1.16865e-11
-4.07322e-11
2.13867e-11
1.12634e-11
-4.29716e-11
2.30952e-11
1.01247e-11
-4.41584e-11
2.42987e-11
-4.4242e-11
2.51173e-11
1.32519e-12
-1.94336e-12
7.21904e-13
2.52389e-12
-5.67331e-12
2.1225e-12
3.63726e-12
-9.17154e-12
3.47994e-12
4.70013e-12
-1.2585e-11
4.87384e-12
5.74233e-12
-1.60299e-11
6.37167e-12
6.78911e-12
-1.9595e-11
8.03082e-12
7.86058e-12
-2.33426e-11
9.89778e-12
8.96957e-12
-2.73091e-11
1.20042e-11
1.01167e-11
-3.1502e-11
1.43587e-11
1.12816e-11
-3.58961e-11
1.69343e-11
1.24077e-11
-4.04243e-11
1.96515e-11
1.33797e-11
-4.4958e-11
2.23633e-11
1.40013e-11
-4.92635e-11
2.48592e-11
1.40156e-11
-5.29184e-11
2.69141e-11
1.33351e-11
-5.52718e-11
2.83866e-11
-5.52555e-11
2.94045e-11
1.49021e-12
-2.09547e-12
8.11733e-13
2.83573e-12
-6.12072e-12
2.38542e-12
4.08081e-12
-9.90558e-12
3.90708e-12
5.26284e-12
-1.36145e-11
5.46403e-12
6.41401e-12
-1.73795e-11
7.12999e-12
7.56199e-12
-2.13051e-11
8.96736e-12
8.72988e-12
-2.54706e-11
1.10266e-11
9.93516e-12
-2.99312e-11
1.3342e-11
1.11868e-11
-3.47173e-11
1.59237e-11
1.24805e-11
-3.98323e-11
1.87439e-11
1.37909e-11
-4.52478e-11
2.17179e-11
1.50629e-11
-5.0893e-11
2.46848e-11
1.62084e-11
-5.66316e-11
2.74017e-11
1.71248e-11
-6.22075e-11
2.95837e-11
1.77307e-11
-6.70928e-11
3.10248e-11
-7.05555e-11
3.18911e-11
1.62413e-12
8.84491e-13
-2.17297e-12
3.08763e-12
2.59777e-12
-6.35097e-12
4.43594e-12
4.24994e-12
-1.02903e-11
5.7074e-12
5.93319e-12
-1.41672e-11
6.93499e-12
7.72481e-12
-1.8125e-11
8.14726e-12
9.68964e-12
-2.22796e-11
9.36881e-12
1.18794e-11
-2.67228e-11
1.06201e-11
1.43289e-11
-3.15235e-11
1.19165e-11
1.70472e-11
-3.67275e-11
1.32668e-11
2.00043e-11
-4.2355e-11
1.46712e-11
2.31102e-11
-4.83967e-11
1.61215e-11
2.61916e-11
-5.4807e-11
1.76077e-11
2.89769e-11
-6.14928e-11
1.91258e-11
3.11227e-11
-6.8289e-11
2.0551e-11
3.23494e-11
-7.47018e-11
3.26423e-11
-8.15294e-11
1.37103e-13
-3.9523e-13
5.1016e-14
2.61479e-13
-1.15179e-12
1.50133e-13
3.77679e-13
-1.85531e-12
2.46605e-13
4.89439e-13
-2.53159e-12
3.46278e-13
5.99724e-13
-3.19898e-12
4.54046e-13
7.10732e-13
-3.86814e-12
5.73921e-13
8.23806e-13
-4.54133e-12
7.08883e-13
9.39201e-13
-5.21117e-12
8.60403e-13
1.05581e-12
-5.85881e-12
1.02757e-12
1.17128e-12
-6.45196e-12
1.20587e-12
1.28324e-12
-6.94313e-12
1.3857e-12
1.39298e-12
-7.2677e-12
1.55155e-12
1.51292e-12
-7.33814e-12
1.68347e-12
1.67357e-12
-7.03019e-12
1.76377e-12
1.88836e-12
-6.22054e-12
1.78861e-12
-4.52815e-12
1.89904e-12
4.07809e-13
-7.78566e-13
1.51725e-13
7.77672e-13
-2.26931e-12
4.46478e-13
1.12302e-12
-3.65668e-12
7.3327e-13
1.45487e-12
-4.99226e-12
1.02942e-12
1.782e-12
-6.31326e-12
1.34943e-12
2.11094e-12
-7.64224e-12
1.70523e-12
2.44558e-12
-8.98594e-12
2.1057e-12
2.7863e-12
-1.0333e-11
2.55534e-12
3.12881e-12
-1.1651e-11
3.05172e-12
3.46342e-12
-1.28835e-11
3.58199e-12
3.77637e-12
-1.39497e-11
4.11876e-12
4.05617e-12
-1.47506e-11
4.61766e-12
4.30901e-12
-1.51863e-11
5.02113e-12
4.57809e-12
-1.5196e-11
5.27574e-12
4.90278e-12
-1.48401e-11
5.36588e-12
-1.44534e-11
5.28595e-12
6.68279e-13
-1.13844e-12
2.48581e-13
1.27408e-12
-3.31919e-12
7.31397e-13
1.83909e-12
-5.35151e-12
1.20087e-12
2.38114e-12
-7.31274e-12
1.68516e-12
2.91454e-12
-9.25983e-12
2.20791e-12
3.44998e-12
-1.12294e-11
2.7886e-12
3.99374e-12
-1.32366e-11
3.44192e-12
4.54594e-12
-1.52722e-11
4.17565e-12
5.09779e-12
-1.72987e-11
4.98683e-12
5.62824e-12
-1.92477e-11
5.85646e-12
6.10116e-12
-2.10194e-11
6.74367e-12
6.46702e-12
-2.24951e-11
7.58267e-12
6.67689e-12
-2.35726e-11
8.28931e-12
6.72239e-12
-2.42412e-11
8.78687e-12
6.69119e-12
-2.46544e-11
9.05101e-12
-2.51702e-11
9.15486e-12
9.12305e-13
-1.46314e-12
3.39266e-13
1.73868e-12
-4.26742e-12
9.98005e-13
2.50815e-12
-6.88555e-12
1.63788e-12
3.24469e-12
-9.42012e-12
2.29696e-12
3.96771e-12
-1.19485e-11
3.00719e-12
4.69191e-12
-1.45237e-11
3.79505e-12
5.42616e-12
-1.71732e-11
4.68077e-12
6.17099e-12
-1.98966e-11
5.67563e-12
6.91422e-12
-2.26613e-11
6.77734e-12
7.62432e-12
-2.53976e-11
7.96357e-12
8.24194e-12
-2.79956e-11
9.18517e-12
8.67254e-12
-3.03082e-11
1.03635e-11
8.79304e-12
-3.2172e-11
1.14003e-11
8.51033e-12
-3.34638e-11
1.22098e-11
7.94413e-12
-3.41992e-11
1.27576e-11
-3.47047e-11
1.3099e-11
1.13443e-12
-1.74119e-12
4.2174e-13
2.16089e-12
-5.08059e-12
1.24023e-12
3.11459e-12
-8.20489e-12
2.03415e-12
4.02473e-12
-1.12406e-11
2.85015e-12
4.91524e-12
-1.42855e-11
3.7274e-12
5.80468e-12
-1.741e-11
4.69848e-12
6.70511e-12
-2.06575e-11
5.78851e-12
7.61942e-12
-2.4042e-11
7.01219e-12
8.53628e-12
-2.75445e-11
8.36857e-12
9.4221e-12
-3.11061e-11
9.83378e-12
1.02091e-11
-3.46191e-11
1.13534e-11
1.07812e-11
-3.79133e-11
1.28396e-11
1.09688e-11
-4.07374e-11
1.4183e-11
1.05979e-11
-4.27492e-11
1.52863e-11
9.72841e-12
-4.36249e-11
1.60966e-11
-4.3387e-11
1.66507e-11
1.33026e-12
-1.96177e-12
4.94358e-13
2.53225e-12
-5.72696e-12
1.45319e-12
3.64594e-12
-9.25783e-12
2.3815e-12
4.70463e-12
-1.27023e-11
3.33296e-12
5.73592e-12
-1.61767e-11
4.35256e-12
6.7619e-12
-1.9769e-11
5.47774e-12
7.79834e-12
-2.35397e-11
6.73749e-12
8.85269e-12
-2.75206e-11
8.14923e-12
9.92002e-12
-3.1712e-11
9.71319e-12
1.09767e-11
-3.60768e-11
1.14043e-11
1.1971e-11
-4.05298e-11
1.31631e-11
1.2812e-11
-4.49178e-11
1.48917e-11
1.33633e-11
-4.89804e-11
1.64632e-11
1.34685e-11
-5.2284e-11
1.77578e-11
1.30942e-11
-5.42292e-11
1.87033e-11
-5.38887e-11
1.93529e-11
1.49671e-12
-2.11512e-12
5.5594e-13
2.84685e-12
-6.17791e-12
1.6334e-12
4.09354e-12
-9.99737e-12
2.67418e-12
5.27278e-12
-1.37387e-11
3.73717e-12
6.41471e-12
-1.75339e-11
4.87157e-12
7.54412e-12
-2.14861e-11
6.11815e-12
8.68026e-12
-2.56712e-11
7.50837e-12
9.83591e-12
-3.01385e-11
9.06118e-12
1.10155e-11
-3.4908e-11
1.0777e-11
1.22126e-11
-3.99672e-11
1.26291e-11
1.34076e-11
-4.52645e-11
1.45524e-11
1.45686e-11
-5.06992e-11
1.64355e-11
1.56624e-11
-5.61064e-11
1.81264e-11
1.66768e-11
-6.12269e-11
1.94642e-11
1.75786e-11
-6.56117e-11
2.03437e-11
-6.86978e-11
2.08662e-11
1.6321e-12
6.05841e-13
-2.19316e-12
3.10163e-12
1.77902e-12
-6.40972e-12
4.45308e-12
2.90926e-12
-1.03845e-11
5.72355e-12
4.05876e-12
-1.42943e-11
6.94425e-12
5.2792e-12
-1.82822e-11
8.14128e-12
6.61296e-12
-2.24623e-11
9.33593e-12
8.0924e-12
-2.69224e-11
1.05448e-11
9.73653e-12
-3.17243e-11
1.17795e-11
1.1545e-11
-3.6902e-11
1.30474e-11
1.34886e-11
-4.24579e-11
1.43538e-11
1.54972e-11
-4.83582e-11
1.57098e-11