/*--------------------------------*- C++ -*----------------------------------*\
| =========                 |                                                 |
| \\      /  F ield         | OpenFOAM: The Open Source CFD Toolbox           |
|  \\    /   O peration     | Version:  v1912                                 |
|   \\  /    A nd           | Website:  www.openfoam.com                      |
|    \\/     M anipulation  |                                                 |
\*---------------------------------------------------------------------------*/
FoamFile
{
    version     2.0;
    format      ascii;
    class       surfaceScalarField;
    location    "0.9/fluid";
    object      phi;
}
// * * * * * * * * * * * * * * * * * * * * * * * * * * * * * * * * * * * * * //

dimensions      [0 3 -1 0 0 0 0];
oriented        oriented;


internalField   nonuniform List<scalar> 
41600
(
5.00549e-05
1.26385e-05
3.28849e-07
-5.22258e-07
3.97763e-05
1.06316e-05
5.8205e-07
-9.35114e-07
3.20247e-05
8.14013e-06
5.15899e-07
-9.04491e-07
2.70958e-05
5.27564e-06
1.82854e-07
-5.29561e-07
2.40798e-05
3.27796e-06
-3.80014e-07
1.18035e-07
2.22691e-05
1.97755e-06
-1.11206e-06
9.45283e-07
2.11073e-05
1.23727e-06
-2.0001e-06
1.9246e-06
2.02463e-05
8.47906e-07
-3.06315e-06
3.07626e-06
1.94756e-05
6.64877e-07
-4.35953e-06
4.46537e-06
1.86649e-05
5.73718e-07
-5.97073e-06
6.20765e-06
1.77356e-05
5.01021e-07
-8.0445e-06
8.47286e-06
1.6569e-05
3.3932e-07
-1.06933e-05
1.15205e-05
1.501e-05
6.56512e-08
-1.42807e-05
1.57741e-05
1.25529e-05
-6.6084e-07
-1.84054e-05
2.15233e-05
7.96942e-06
-1.22559e-06
-2.30771e-05
2.88862e-05
-3.61238e-06
-1.85206e-05
3.01024e-05
6.47563e-05
1.06563e-05
4.66933e-07
-7.41047e-07
6.33574e-05
1.25721e-05
8.84512e-07
-1.42605e-06
6.06775e-05
1.14802e-05
8.86343e-07
-1.54651e-06
5.77381e-05
8.87304e-06
4.5805e-07
-1.11609e-06
5.51413e-05
6.43896e-06
-4.05147e-07
-1.5899e-07
5.30135e-05
4.52636e-06
-1.64235e-06
1.22133e-06
5.12436e-05
3.26925e-06
-3.22238e-06
2.96023e-06
4.96392e-05
2.55164e-06
-5.16057e-06
5.06124e-06
4.80062e-05
2.2275e-06
-7.54011e-06
7.61051e-06
4.61464e-05
2.1442e-06
-1.05011e-05
1.07905e-05
4.38688e-05
2.17951e-06
-1.42845e-05
1.48836e-05
4.08275e-05
2.18244e-06
-1.91239e-05
2.0322e-05
3.65821e-05
2.08488e-06
-2.55059e-05
2.77322e-05
2.9866e-05
1.41837e-06
-3.28287e-05
3.74656e-05
1.94072e-05
4.79628e-07
-4.00141e-05
4.87677e-05
-2.6876e-06
-3.11515e-05
4.96339e-05
6.63689e-05
7.08418e-06
5.21031e-07
-8.17759e-07
6.87763e-05
1.07685e-05
1.00855e-06
-1.61242e-06
6.98298e-05
1.11825e-05
1.05403e-06
-1.80974e-06
6.97371e-05
9.74119e-06
6.31484e-07
-1.40697e-06
6.89948e-05
7.87137e-06
-2.73579e-07
-4.1656e-07
6.7894e-05
6.1687e-06
-1.61269e-06
1.07115e-06
6.65771e-05
4.95244e-06
-3.35947e-06
2.99325e-06
6.50521e-05
4.25691e-06
-5.53152e-06
5.35122e-06
6.3243e-05
4.02039e-06
-8.215e-06
8.23119e-06
6.09894e-05
4.13304e-06
-1.15648e-05
1.18295e-05
5.80633e-05
4.49171e-06
-1.58409e-05
1.64548e-05
5.40135e-05
4.95556e-06
-2.13275e-05
2.26042e-05
4.8229e-05
5.44106e-06
-2.85403e-05
3.09686e-05
3.90754e-05
5.41965e-06
-3.6955e-05
4.21073e-05
2.49915e-05
4.63876e-06
-4.52056e-05
5.51304e-05
5.94877e-07
-3.56424e-05
5.73513e-05
6.53201e-05
4.56399e-06
5.46332e-07
-8.46244e-07
6.85227e-05
8.18717e-06
1.07259e-06
-1.69389e-06
7.11015e-05
9.388e-06
1.14585e-06
-1.93008e-06
7.2645e-05
9.00807e-06
7.41121e-07
-1.55156e-06
7.32783e-05
7.96616e-06
-1.50406e-07
-5.77645e-07
7.31842e-05
6.84254e-06
-1.48047e-06
9.00708e-07
7.25324e-05
6.00669e-06
-3.22468e-06
2.82224e-06
7.14051e-05
5.59663e-06
-5.40319e-06
5.19073e-06
6.97952e-05
5.6407e-06
-8.10207e-06
8.0917e-06
6.75798e-05
6.10354e-06
-1.14807e-05
1.17256e-05
6.45259e-05
6.94097e-06
-1.57999e-05
1.64046e-05
6.01295e-05
8.06355e-06
-2.13713e-05
2.26597e-05
5.36716e-05
9.40976e-06
-2.8718e-05
3.12072e-05
4.33339e-05
1.04007e-05
-3.74223e-05
4.2779e-05
2.73195e-05
1.02189e-05
-4.60976e-05
5.65319e-05
4.82832e-06
-3.68318e-05
5.99178e-05
6.43822e-05
2.97885e-06
5.66731e-07
-8.63808e-07
6.72704e-05
5.92052e-06
1.12403e-06
-1.74557e-06
7.01111e-05
7.33391e-06
1.22477e-06
-2.01136e-06
7.23091e-05
7.62289e-06
8.44602e-07
-1.65743e-06
7.37106e-05
7.29438e-06
-1.72655e-08
-7.12491e-07
7.43399e-05
6.79516e-06
-1.30658e-06
7.24723e-07
7.42978e-05
6.45511e-06
-2.99515e-06
2.58879e-06
7.36591e-05
6.45444e-06
-5.101e-06
4.88192e-06
7.24357e-05
6.88438e-06
-7.7051e-06
7.68479e-06
7.0525e-05
7.78398e-06
-1.09651e-05
1.11954e-05
6.76987e-05
9.18221e-06
-1.51311e-05
1.57161e-05
6.34184e-05
1.10806e-05
-2.05324e-05
2.17957e-05
5.687e-05
1.34927e-05
-2.76783e-05
3.01437e-05
4.60286e-05
1.5871e-05
-3.62914e-05
4.16626e-05
2.87499e-05
1.69498e-05
-4.50021e-05
5.55499e-05
1.0047e-05
-3.63791e-05
5.99103e-05
6.38263e-05
1.94589e-06
5.86688e-07
-8.80054e-07
6.62652e-05
4.09862e-06
1.17448e-06
-1.79146e-06
6.8976e-05
5.40456e-06
1.30735e-06
-2.08876e-06
7.13789e-05
6.02632e-06
9.60421e-07
-1.76679e-06
7.31839e-05
6.21166e-06
1.39364e-07
-8.61581e-07
7.42989e-05
6.25526e-06
-1.09412e-06
5.19019e-07
7.47474e-05
6.40901e-06
-2.70495e-06
2.30247e-06
7.45707e-05
6.85125e-06
-4.70535e-06
4.48529e-06
7.37761e-05
7.70687e-06
-7.16694e-06
7.139e-06
7.22669e-05
9.08039e-06
-1.0241e-05
1.04538e-05
6.9818e-05
1.10769e-05
-1.41591e-05
1.47133e-05
6.58599e-05
1.38276e-05
-1.92634e-05
2.04745e-05
5.94986e-05
1.74678e-05
-2.6031e-05
2.84172e-05
4.84757e-05
2.16269e-05
-3.43612e-05
3.96282e-05
3.02347e-05
2.47682e-05
-4.28991e-05
5.33217e-05
1.6752e-05
-3.52394e-05
5.8769e-05
6.35649e-05
1.17154e-06
6.09777e-07
-9.00333e-07
6.5707e-05
2.5692e-06
1.23118e-06
-1.84385e-06
6.82711e-05
3.61659e-06
1.40234e-06
-2.17848e-06
7.07414e-05
4.35621e-06
1.09803e-06
-1.89825e-06
7.27824e-05
4.88642e-06
3.2892e-07
-1.04468e-06
7.42428e-05
5.36523e-06
-8.35391e-07
2.65063e-07
7.50981e-05
5.95523e-06
-2.35012e-06
1.94863e-06
7.53699e-05
6.80535e-06
-4.21677e-06
3.99084e-06
7.50739e-05
8.04783e-06
-6.48989e-06
6.44497e-06
7.41428e-05
9.83558e-06
-9.30232e-06
9.47817e-06
7.24003e-05
1.23371e-05
-1.28464e-05
1.33287e-05
6.93126e-05
1.5847e-05
-1.74476e-05
1.85159e-05
6.39948e-05
2.06728e-05
-2.3489e-05
2.56018e-05
5.37869e-05
2.70951e-05
-3.10543e-05
3.57939e-05
3.53391e-05
3.3808e-05
-3.86942e-05
4.81023e-05
2.99654e-05
-3.23869e-05
5.45126e-05
6.34693e-05
6.35807e-07
-9.25081e-07
4.91525e-07
6.54929e-05
1.29403e-06
-1.90466e-06
1.1562e-06
6.80109e-05
1.50783e-06
-2.28161e-06
1.87241e-06
7.05498e-05
1.25256e-06
-2.05024e-06
2.615e-06
7.27649e-05
5.42955e-07
-1.25667e-06
3.38507e-06
7.44831e-05
-5.44435e-07
-2.60269e-08
4.2174e-06
7.56614e-05
-1.95438e-06
1.54904e-06
5.18227e-06
7.63178e-05
-3.67579e-06
3.43935e-06
6.38539e-06
7.64814e-05
-5.74387e-06
5.6774e-06
7.95074e-06
7.6116e-05
-8.26897e-06
8.4027e-06
1.00673e-05
7.50949e-05
-1.14009e-05
1.18054e-05
1.29537e-05
7.29378e-05
-1.54403e-05
1.6356e-05
1.70885e-05
6.88414e-05
-2.06725e-05
2.25004e-05
2.29413e-05
5.9896e-05
-2.73882e-05
3.15777e-05
3.1851e-05
4.2475e-05
-3.4143e-05
4.25278e-05
4.28441e-05
-3.00952e-05
5.10344e-05
5.15012e-05
4.99892e-05
1.26447e-05
1.94918e-07
3.95854e-05
1.06504e-05
3.35526e-07
3.16949e-05
8.16253e-06
2.43811e-07
2.66367e-05
5.29525e-06
-5.41291e-08
2.35011e-05
3.29619e-06
-5.40705e-07
2.15684e-05
1.99772e-06
-1.177e-06
2.02632e-05
1.26444e-06
-1.95939e-06
1.92186e-05
8.85897e-07
-2.90448e-06
1.82035e-05
7.17415e-07
-4.0618e-06
1.7071e-05
6.44072e-07
-5.48227e-06
1.57124e-05
5.97095e-07
-7.28304e-06
1.40172e-05
4.71762e-07
-9.46992e-06
1.17762e-05
2.58347e-07
-1.2298e-05
8.77486e-06
-3.76866e-07
-1.50272e-05
4.08038e-06
-9.51347e-07
-1.74313e-05
-2.79673e-06
-1.16435e-05
6.46638e-05
1.06709e-05
2.76877e-07
6.30832e-05
1.26084e-05
5.07115e-07
6.01751e-05
1.1531e-05
4.25953e-07
5.69916e-05
8.92855e-06
8.2151e-09
5.4147e-05
6.49828e-06
-7.62549e-07
5.17602e-05
4.59443e-06
-1.8523e-06
4.96959e-05
3.35612e-06
-3.24972e-06
4.77284e-05
2.66776e-06
-4.97495e-06
4.56233e-05
2.38405e-06
-7.10164e-06
4.31429e-05
2.35054e-06
-9.72718e-06
4.00426e-05
2.45015e-06
-1.30373e-05
3.59722e-05
2.52529e-06
-1.71071e-05
3.04487e-05
2.51524e-06
-2.22393e-05
2.26793e-05
1.91684e-06
-2.7353e-05
1.1854e-05
9.01853e-07
-3.1042e-05
-2.16502e-06
-1.99293e-05
6.62757e-05
7.10236e-06
3.13939e-07
6.84932e-05
1.08137e-05
5.85735e-07
6.93016e-05
1.12524e-05
5.24284e-07
6.89366e-05
9.82811e-06
9.68461e-08
6.79082e-05
7.97417e-06
-7.20987e-07
6.65023e-05
6.29359e-06
-1.90602e-06
6.48388e-05
5.11309e-06
-3.45292e-06
6.28913e-05
4.47034e-06
-5.38659e-06
6.05383e-05
4.30713e-06
-7.78512e-06
5.75713e-05
4.51303e-06
-1.07602e-05
5.36991e-05
4.99227e-06
-1.45109e-05
4.84553e-05
5.5916e-06
-1.915e-05
4.11775e-05
6.2356e-06
-2.49828e-05
3.07505e-05
6.30546e-06
-3.09166e-05
1.61954e-05
5.425e-06
-3.51736e-05
9.52812e-07
-2.25649e-05
6.52295e-05
4.58364e-06
3.35551e-07
6.82442e-05
8.23674e-06
6.34845e-07
7.05803e-05
9.46999e-06
5.92119e-07
7.18534e-05
9.11933e-06
1.76874e-07
7.22002e-05
8.10761e-06
-6.30731e-07
7.1799e-05
7.02229e-06
-1.80795e-06
7.07973e-05
6.24172e-06
-3.35162e-06
6.92438e-05
5.91037e-06
-5.28967e-06
6.70852e-05
6.06406e-06
-7.70041e-06
6.41475e-05
6.67055e-06
-1.07006e-05
6.01294e-05
7.69875e-06
-1.44883e-05
5.45025e-05
9.04639e-06
-1.91992e-05
4.64841e-05
1.06704e-05
-2.51344e-05
3.47803e-05
1.18471e-05
-3.12601e-05
1.82035e-05
1.16272e-05
-3.57231e-05
5.30725e-06
-2.29827e-05
6.42938e-05
3.00017e-06
3.56371e-07
6.69972e-05
5.97455e-06
6.82849e-07
6.96014e-05
7.42625e-06
6.64308e-07
7.15385e-05
7.75488e-06
2.71933e-07
7.26666e-05
7.46975e-06
-5.07479e-07
7.30043e-05
7.0243e-06
-1.64633e-06
7.26309e-05
6.75834e-06
-3.13831e-06
7.15883e-05
6.86144e-06
-5.00947e-06
6.98438e-05
7.43684e-06
-7.33338e-06
6.72428e-05
8.53234e-06
-1.02259e-05
6.34866e-05
1.0199e-05
-1.38752e-05
5.80029e-05
1.24315e-05
-1.84338e-05
4.98986e-05
1.52831e-05
-2.41867e-05
3.76484e-05
1.80161e-05
-3.02102e-05
1.96788e-05
1.92428e-05
-3.46481e-05
1.09203e-05
-2.23133e-05
6.37396e-05
1.96974e-06
3.77533e-07
6.59971e-05
4.15822e-06
7.33341e-07
6.84781e-05
5.50711e-06
7.45391e-07
7.06319e-05
6.17646e-06
3.85125e-07
7.21802e-05
6.41579e-06
-3.55054e-07
7.30255e-05
6.52628e-06
-1.44131e-06
7.31696e-05
6.7706e-06
-2.86133e-06
7.26223e-05
7.33917e-06
-4.63583e-06
7.13483e-05
8.37359e-06
-6.82973e-06
6.91995e-05
9.99431e-06
-9.55414e-06
6.58804e-05
1.23398e-05
-1.29809e-05
6.07784e-05
1.55472e-05
-1.72771e-05
5.29075e-05
1.98225e-05
-2.26995e-05
4.04675e-05
2.45727e-05
-2.84777e-05
2.13964e-05
2.8191e-05
-3.27763e-05
1.82861e-05
-2.12088e-05
6.348e-05
1.19825e-06
4.01254e-07
6.54449e-05
2.63462e-06
7.89924e-07
6.77871e-05
3.72834e-06
8.38833e-07
7.00214e-05
4.52086e-06
5.19402e-07
7.18251e-05
5.11227e-06
-1.71323e-07
7.30417e-05
5.66725e-06
-1.19292e-06
7.36272e-05
6.35951e-06
-2.52457e-06
7.3575e-05
7.35208e-06
-4.17743e-06
7.28629e-05
8.79752e-06
-6.20169e-06
7.1378e-05
1.08717e-05
-8.69486e-06
6.88826e-05
1.37862e-05
-1.17974e-05
6.47958e-05
1.78612e-05
-1.56748e-05
5.81418e-05
2.35043e-05
-2.05167e-05
4.66177e-05
3.07922e-05
-2.57496e-05
2.7229e-05
3.84249e-05
-2.95394e-05
3.23562e-05
-1.92281e-05
6.33864e-05
4.26886e-07
5.20777e-07
6.52376e-05
8.51088e-07
1.22636e-06
6.75424e-05
9.40778e-07
1.99057e-06
6.98592e-05
6.67895e-07
2.78877e-06
7.1857e-05
3.33544e-08
3.62406e-06
7.33585e-05
-9.16487e-07
4.53783e-06
7.43038e-05
-2.15161e-06
5.6114e-06
7.46861e-05
-3.67191e-06
6.96597e-06
7.45022e-05
-5.51082e-06
8.74835e-06
7.36765e-05
-7.74879e-06
1.11772e-05
7.20324e-05
-1.04917e-05
1.45211e-05
6.90402e-05
-1.38977e-05
1.93107e-05
6.38213e-05
-1.80852e-05
2.61359e-05
5.37207e-05
-2.27068e-05
3.62114e-05
3.53639e-05
-2.60066e-05
4.86453e-05
-1.764e-05
5.52648e-05
4.9939e-05
1.26508e-05
1.05153e-07
3.94364e-05
1.06674e-05
1.70682e-07
3.14291e-05
8.1837e-06
6.74636e-08
2.62527e-05
5.31528e-06
-1.92989e-07
2.3e-05
3.31511e-06
-6.03171e-07
2.09426e-05
2.0182e-06
-1.13777e-06
1.949e-05
1.29085e-06
-1.79767e-06
1.82585e-05
9.21449e-07
-2.59441e-06
1.6996e-05
7.65184e-07
-3.56448e-06
1.55382e-05
7.0642e-07
-4.73084e-06
1.37479e-05
6.79105e-07
-6.17192e-06
1.15287e-05
5.80022e-07
-7.83076e-06
8.68866e-06
4.0126e-07
-9.85921e-06
5.38229e-06
-1.80169e-07
-1.15406e-05
1.36446e-06
-8.35591e-07
-1.25779e-05
-2.45838e-06
-7.82063e-06
6.45926e-05
1.06858e-05
1.49274e-07
6.28686e-05
1.26434e-05
2.55076e-07
5.97701e-05
1.15809e-05
1.27286e-07
5.63696e-05
8.98526e-06
-2.6126e-07
5.32917e-05
6.55983e-06
-9.29383e-07
5.06511e-05
4.66436e-06
-1.85789e-06
4.82945e-05
3.44318e-06
-3.04543e-06
4.59695e-05
2.78135e-06
-4.50984e-06
4.34064e-05
2.53471e-06
-6.30808e-06
4.03351e-05
2.54713e-06
-8.49659e-06
3.64702e-05
2.70582e-06
-1.11991e-05
3.14856e-05
2.84635e-06
-1.43889e-05
2.49528e-05
2.90953e-06
-1.82147e-05
1.66599e-05
2.36006e-06
-2.16003e-05
6.72521e-06
1.24022e-06
-2.31832e-05
-1.86926e-06
-1.37932e-05
6.62044e-05
7.12163e-06
1.73744e-07
6.82727e-05
1.08592e-05
3.01665e-07
6.88773e-05
1.13227e-05
1.77859e-07
6.82721e-05
9.9168e-06
-2.29507e-07
6.69771e-05
8.07938e-06
-9.45487e-07
6.52756e-05
6.41991e-06
-1.96007e-06
6.32712e-05
5.27248e-06
-3.27781e-06
6.091e-05
4.67818e-06
-4.92224e-06
5.80319e-05
4.58265e-06
-6.95504e-06
5.43893e-05
4.87478e-06
-9.44527e-06
4.96436e-05
5.46552e-06
-1.25248e-05
4.33444e-05
6.18875e-06
-1.61932e-05
3.48811e-05
6.97438e-06
-2.05843e-05
2.37762e-05
7.12142e-06
-2.45731e-05
1.01185e-05
6.14717e-06
-2.64228e-05
1.28381e-06
-1.55995e-05
6.51608e-05
4.60486e-06
1.91486e-07
6.80288e-05
8.28781e-06
3.38276e-07
7.01642e-05
9.55309e-06
2.26265e-07
7.11993e-05
9.23198e-06
-1.73385e-07
7.128e-05
8.25002e-06
-8.82067e-07
7.05815e-05
7.20105e-06
-1.89052e-06
6.92358e-05
6.4719e-06
-3.20543e-06
6.72646e-05
6.21316e-06
-4.85339e-06
6.45753e-05
6.46813e-06
-6.89664e-06
6.09517e-05
7.20698e-06
-9.40911e-06
5.60395e-05
8.41059e-06
-1.25211e-05
4.93169e-05
9.96222e-06
-1.62501e-05
4.00416e-05
1.18354e-05
-2.072e-05
2.75669e-05
1.31762e-05
-2.48402e-05
1.1827e-05
1.29437e-05
-2.67796e-05
5.89835e-06
-1.57703e-05
6.42274e-05
3.02286e-06
2.10921e-07
6.67876e-05
6.02986e-06
3.80592e-07
6.91972e-05
7.51903e-06
2.88863e-07
7.09054e-05
7.88635e-06
-9.07247e-08
7.1779e-05
7.64305e-06
-7.74111e-07
7.18336e-05
7.24856e-06
-1.74844e-06
7.11332e-05
7.05179e-06
-3.01779e-06
6.96932e-05
7.25112e-06
-4.60742e-06
6.74422e-05
7.96135e-06
-6.57555e-06
6.41818e-05
9.23757e-06
-8.99605e-06
5.95569e-05
1.11512e-05
-1.1991e-05
5.29913e-05
1.36866e-05
-1.55926e-05
4.36164e-05
1.69344e-05
-1.99109e-05
3.05388e-05
1.99854e-05
-2.39417e-05
1.32923e-05
2.13895e-05
-2.58475e-05
1.20419e-05
-1.51646e-05
6.36749e-05
1.99423e-06
2.31242e-07
6.57928e-05
4.21786e-06
4.27462e-07
6.80859e-05
5.60822e-06
3.63125e-07
7.00216e-05
6.32312e-06
1.26562e-08
7.13307e-05
6.61402e-06
-6.35185e-07
7.19128e-05
6.78785e-06
-1.56263e-06
7.17549e-05
7.11702e-06
-2.76865e-06
7.0841e-05
7.80332e-06
-4.27413e-06
6.90985e-05
9.00417e-06
-6.13003e-06
6.63351e-05
1.08538e-05
-8.40705e-06
6.21978e-05
1.35219e-05
-1.12143e-05
5.60597e-05
1.71463e-05
-1.45986e-05
4.69439e-05
2.20003e-05
-1.86495e-05
3.3648e-05
2.72932e-05
-2.24896e-05
1.5154e-05
3.14212e-05
-2.4314e-05
2.02623e-05
-1.42752e-05
6.34172e-05
1.22458e-06
2.53695e-07
6.52467e-05
2.69824e-06
4.80091e-07
6.74084e-05
3.83614e-06
4.49166e-07
6.94365e-05
4.67873e-06
1.35647e-07
7.10187e-05
5.32835e-06
-4.67831e-07
7.19963e-05
5.95536e-06
-1.33803e-06
7.23119e-05
6.74375e-06
-2.46688e-06
7.19356e-05
7.86985e-06
-3.86763e-06
7.08121e-05
9.50538e-06
-5.57947e-06
6.87885e-05
1.18468e-05
-7.66414e-06
6.55747e-05
1.51463e-05
-1.02081e-05
6.05683e-05
1.97433e-05
-1.32654e-05
5.27931e-05
2.61434e-05
-1.68847e-05
4.04573e-05
3.42417e-05
-2.03623e-05
2.14442e-05
4.28468e-05
-2.19519e-05
3.5454e-05
-1.29756e-05
6.33256e-05
2.77379e-07
5.48536e-07
6.5046e-05
5.36187e-07
1.29273e-06
6.71785e-05
5.42175e-07
2.10217e-06
6.93019e-05
2.70576e-07
2.95267e-06
7.10967e-05
-2.82786e-07
3.84971e-06
7.23849e-05
-1.0896e-06
4.84031e-06
7.30948e-05
-2.13416e-06
6.01633e-06
7.31998e-05
-3.42064e-06
7.51359e-06
7.26689e-05
-4.97486e-06
9.50036e-06
7.13916e-05
-6.84695e-06
1.22222e-05
6.91483e-05
-9.09831e-06
1.59963e-05
6.53832e-05
-1.17865e-05
2.13971e-05
5.92194e-05
-1.49173e-05
2.91393e-05
4.84101e-05
-1.79854e-05
4.03297e-05
3.0323e-05
-1.93761e-05
5.43032e-05
-1.19453e-05
6.00824e-05
4.99007e-05
1.26564e-05
4.81183e-08
3.93214e-05
1.06823e-05
6.77144e-08
3.12196e-05
8.20268e-06
-3.34999e-08
2.59444e-05
5.33386e-06
-2.51639e-07
2.25924e-05
3.33309e-06
-5.84207e-07
2.04315e-05
2.0381e-06
-1.015e-06
1.88639e-05
1.31666e-06
-1.54674e-06
1.74997e-05
9.56663e-07
-2.18684e-06
1.6082e-05
8.13882e-07
-2.96064e-06
1.44515e-05
7.73501e-07
-3.87384e-06
1.24798e-05
7.7415e-07
-4.97446e-06
1.01122e-05
7.20303e-07
-6.18342e-06
7.21643e-06
6.1434e-07
-7.57778e-06
4.07498e-06
1.67761e-07
-8.56693e-06
7.39017e-07
-3.89404e-07
-8.85251e-06
-1.83054e-06
-5.25107e-06
6.45378e-05
1.06996e-05
6.8215e-08
6.27018e-05
1.26751e-05
9.82983e-08
5.94497e-05
1.16263e-05
-4.42509e-08
5.58683e-05
9.03776e-06
-3.83832e-07
5.25921e-05
6.61747e-06
-9.37558e-07
4.97368e-05
4.73013e-06
-1.69461e-06
4.71413e-05
3.52468e-06
-2.65797e-06
4.45424e-05
2.88733e-06
-3.84155e-06
4.16587e-05
2.67599e-06
-5.28647e-06
3.82213e-05
2.73486e-06
-7.02059e-06
3.39565e-05
2.95832e-06
-9.11852e-06
2.86097e-05
3.18449e-06
-1.15063e-05
2.18693e-05
3.36864e-06
-1.42286e-05
1.38302e-05
2.97809e-06
-1.63715e-05
5.05136e-06
1.9772e-06
-1.67709e-05
-1.10408e-06
-9.46833e-06
6.61497e-05
7.13997e-06
8.36518e-08
6.81016e-05
1.09015e-05
1.23449e-07
6.85421e-05
1.13876e-05
-2.401e-08
6.7737e-05
9.99915e-06
-3.8581e-07
6.62155e-05
8.17735e-06
-9.83867e-07
6.42631e-05
6.53717e-06
-1.81466e-06
6.19772e-05
5.41916e-06
-2.88642e-06
5.92931e-05
4.86785e-06
-4.21858e-06
5.60376e-05
4.83307e-06
-5.85662e-06
5.19614e-05
5.20448e-06
-7.83876e-06
4.67375e-05
5.90165e-06
-1.02442e-05
3.99906e-05
6.75423e-06
-1.30161e-05
3.12439e-05
7.7076e-06
-1.61766e-05
2.03809e-05
8.01837e-06
-1.87503e-05
8.0333e-06
7.13992e-06
-1.92379e-05
2.05569e-06
-1.07259e-05
6.51086e-05
4.62531e-06
9.75623e-08
6.78626e-05
8.33588e-06
1.49798e-07
6.98369e-05
9.63043e-06
9.21332e-09
7.06743e-05
9.3365e-06
-3.48145e-07
7.05292e-05
8.38173e-06
-9.41341e-07
6.95784e-05
7.36519e-06
-1.76771e-06
6.79485e-05
6.68101e-06
-2.83745e-06
6.56506e-05
6.48522e-06
-4.17287e-06
6.25795e-05
6.82783e-06
-5.82021e-06
5.85157e-05
7.68122e-06
-7.8221e-06
5.31152e-05
9.03727e-06
-1.02563e-05
4.5929e-05
1.07697e-05
-1.30793e-05
3.63482e-05
1.28705e-05
-1.63022e-05
2.40948e-05
1.43991e-05
-1.89676e-05
9.67736e-06
1.42594e-05
-1.94817e-05
6.7476e-06
-1.07848e-05
6.41773e-05
3.04461e-06
1.14348e-07
6.66269e-05
6.08186e-06
1.84938e-07
6.88806e-05
7.60508e-06
6.05455e-08
7.03991e-05
8.00755e-06
-2.80271e-07
7.10571e-05
7.8018e-06
-8.5217e-07
7.08716e-05
7.4521e-06
-1.6499e-06
6.99014e-05
7.31518e-06
-2.68178e-06
6.81519e-05
7.59655e-06
-3.96919e-06
6.55392e-05
8.42031e-06
-5.5553e-06
6.18614e-05
9.84612e-06
-7.48321e-06
5.67718e-05
1.19603e-05
-9.82436e-06
4.97614e-05
1.47353e-05
-1.25478e-05
4.00873e-05
1.82872e-05
-1.56534e-05
2.72124e-05
2.15807e-05
-1.82484e-05
1.12336e-05
2.31231e-05
-1.87323e-05
1.31042e-05
-1.02877e-05
6.36263e-05
2.01727e-06
1.32279e-07
6.5637e-05
4.27322e-06
2.25407e-07
6.77801e-05
5.70107e-06
1.24089e-07
6.95353e-05
6.45696e-06
-1.92031e-07
7.0642e-05
6.7936e-06
-7.33711e-07
7.10009e-05
7.0226e-06
-1.49199e-06
7.05941e-05
7.4245e-06
-2.47115e-06
6.9396e-05
8.20976e-06
-3.68921e-06
6.73222e-05
9.54763e-06
-5.18362e-06
6.41768e-05
1.15801e-05
-6.99557e-06
5.96134e-05
1.44964e-05
-9.18693e-06
5.30656e-05
1.84242e-05
-1.17398e-05
4.36714e-05
2.36723e-05
-1.46405e-05
3.05636e-05
2.92936e-05
-1.70946e-05
1.32473e-05
3.36629e-05
-1.75374e-05
2.1677e-05
-9.60076e-06
6.33702e-05
1.24877e-06
1.51964e-07
6.50962e-05
2.75629e-06
2.71014e-07
6.71145e-05
3.93384e-06
1.98119e-07
6.89726e-05
4.8211e-06
-8.66114e-08
7.03672e-05
5.52196e-06
-5.90785e-07
7.11416e-05
6.2114e-06
-1.30122e-06
7.12342e-05
7.08165e-06
-2.21659e-06
7.06066e-05
8.31887e-06
-3.34915e-06
6.91939e-05
1.01084e-05
-4.72747e-06
6.68394e-05
1.26575e-05
-6.38718e-06
6.32605e-05
1.62421e-05
-8.37478e-06
5.79057e-05
2.11961e-05
-1.06826e-05
4.99001e-05
2.80679e-05
-1.32748e-05
3.77439e-05
3.65821e-05
-1.54946e-05
1.97608e-05
4.55486e-05
-1.58546e-05
3.72035e-05
-8.74135e-06
6.32803e-05
1.72435e-07
5.73409e-07
6.49014e-05
3.1924e-07
1.35216e-06
6.68977e-05
2.77755e-07
2.2019e-06
6.88622e-05
2.85824e-08
3.09863e-06
7.04849e-05
-4.33342e-07
4.04979e-06
7.15909e-05
-1.09091e-06
5.10677e-06
7.21054e-05
-1.93663e-06
6.36959e-06
7.19948e-05
-2.97584e-06
7.98469e-06
7.12205e-05
-4.22702e-06
1.01348e-05
6.96697e-05
-5.7183e-06
1.30797e-05
6.71308e-05
-7.47926e-06
1.71619e-05
6.3091e-05
-9.51019e-06
2.29597e-05
5.67629e-05
-1.17536e-05
3.12324e-05
4.61425e-05
-1.37104e-05
4.29274e-05
2.89536e-05
-1.40342e-05
5.73957e-05
-8.08011e-06
6.22919e-05
4.98712e-05
1.2661e-05
1.58886e-08
3.92325e-05
1.06945e-05
1.19023e-08
3.10557e-05
8.21835e-06
-7.50272e-08
2.56994e-05
5.34929e-06
-2.44644e-07
2.22635e-05
3.3481e-06
-4.96448e-07
2.00142e-05
2.05455e-06
-8.20218e-07
1.83484e-05
1.33765e-06
-1.21858e-06
1.68722e-05
9.84845e-07
-1.69546e-06
1.5326e-05
8.52272e-07
-2.26676e-06
1.35558e-05
8.25487e-07
-2.92917e-06
1.14443e-05
8.46307e-07
-3.70919e-06
8.97064e-06
8.24219e-07
-4.534e-06
6.06389e-06
7.67724e-07
-5.43875e-06
3.09358e-06
4.08489e-07
-6.0051e-06
3.12901e-07
-8.69781e-08
-5.98486e-06
-1.47363e-06
-3.46454e-06
6.44955e-05
1.07114e-05
2.23416e-08
6.25725e-05
1.27018e-05
1.3893e-08
5.91985e-05
1.16647e-05
-1.16608e-07
5.54701e-05
9.08247e-06
-3.88543e-07
5.20289e-05
6.66688e-06
-8.15157e-07
4.89926e-05
4.78649e-06
-1.39027e-06
4.61958e-05
3.59409e-06
-2.11756e-06
4.33686e-05
2.97692e-06
-3.00642e-06
4.02235e-05
2.7947e-06
-4.08389e-06
3.64969e-05
2.89183e-06
-5.36031e-06
3.19325e-05
3.16839e-06
-6.8762e-06
2.63388e-05
3.4641e-06
-8.55243e-06
1.95169e-05
3.74543e-06
-1.03844e-05
1.17802e-05
3.47589e-06
-1.17022e-05
3.97833e-06
2.56016e-06
-1.16162e-05
-5.75511e-07
-6.38812e-06
6.61076e-05
7.15599e-06
3.15415e-08
6.79692e-05
1.09379e-05
2.57997e-08
6.82796e-05
1.14434e-05
-1.13117e-07
6.73122e-05
1.007e-05
-4.05946e-07
6.56028e-05
8.26186e-06
-8.69499e-07
6.34395e-05
6.63815e-06
-1.50299e-06
6.09166e-05
5.54483e-06
-2.31432e-06
5.79631e-05
5.02934e-06
-3.31747e-06
5.43991e-05
5.04516e-06
-4.54305e-06
4.99789e-05
5.48247e-06
-6.00918e-06
4.43939e-05
6.26787e-06
-7.75879e-06
3.73376e-05
7.22724e-06
-9.72292e-06
2.8463e-05
8.31844e-06
-1.18749e-05
1.79155e-05
8.76173e-06
-1.34887e-05
6.68992e-06
7.95969e-06
-1.34119e-05
2.6564e-06
-7.26795e-06
6.50684e-05
4.6434e-06
4.17592e-08
6.77345e-05
8.37781e-06
4.37988e-08
6.95811e-05
9.69746e-06
-9.15023e-08
7.02582e-05
9.42689e-06
-3.82055e-07
6.99259e-05
8.49546e-06
-8.42621e-07
6.87631e-05
7.50643e-06
-1.47319e-06
6.68938e-05
6.86e-06
-2.28334e-06
6.4323e-05
6.7167e-06
-3.28945e-06
6.09387e-05
7.13216e-06
-4.52291e-06
5.65242e-05
8.08034e-06
-6.00547e-06
5.07529e-05
9.56186e-06
-7.77892e-06
4.32427e-05
1.14421e-05
-9.78403e-06
3.3516e-05
1.37273e-05
-1.19844e-05
2.15652e-05
1.54082e-05
-1.36633e-05
8.2867e-06
1.53468e-05
-1.35903e-05
7.45536e-06
-7.29712e-06
6.41389e-05
3.06387e-06
5.50062e-08
6.65035e-05
6.12733e-06
7.0792e-08
6.86342e-05
7.67976e-06
-5.24503e-08
6.99989e-05
8.11225e-06
-3.30364e-07
7.04781e-05
7.93849e-06
-7.74422e-07
7.00908e-05
7.62669e-06
-1.38284e-06
6.8893e-05
7.53998e-06
-2.1639e-06
6.68842e-05
7.88972e-06
-3.13348e-06
6.39742e-05
8.80766e-06
-4.3208e-06
5.99629e-05
1.03567e-05
-5.74828e-06
5.4519e-05
1.26348e-05
-7.45343e-06
4.71965e-05
1.56036e-05
-9.38668e-06
3.73768e-05
1.93977e-05
-1.15042e-05
2.47868e-05
2.28849e-05
-1.31351e-05
9.90685e-06
2.45394e-05
-1.3045e-05
1.40132e-05
-6.93862e-06
6.35893e-05
2.0375e-06
6.93781e-08
6.55179e-05
4.32137e-06
1.02777e-07
6.7543e-05
5.78128e-06
-2.53067e-09
6.91523e-05
6.57205e-06
-2.61143e-07
7.00911e-05
6.94753e-06
-6.81588e-07
7.02621e-05
7.22308e-06
-1.25938e-06
6.96449e-05
7.68597e-06
-1.99989e-06
6.82083e-05
8.55367e-06
-2.91658e-06
6.58619e-05
1.0005e-05
-4.03453e-06
6.24106e-05
1.21876e-05
-5.37516e-06
5.75222e-05
1.53057e-05
-6.96948e-06
5.06872e-05
1.94771e-05
-8.77827e-06
4.11592e-05
2.50355e-05
-1.07501e-05
2.8319e-05
3.09155e-05
-1.22851e-05
1.20304e-05
3.54728e-05
-1.21822e-05
2.28945e-05
-6.4517e-06
6.33346e-05
1.26972e-06
8.511e-08
6.49818e-05
2.80629e-06
1.38955e-07
6.68876e-05
4.0176e-06
5.59191e-08
6.86084e-05
4.94281e-06
-1.78156e-07
6.98475e-05
5.68705e-06
-5.69399e-07
7.04505e-05
6.42912e-06
-1.11025e-06
7.03538e-05
7.36806e-06
-1.802e-06
6.95144e-05
8.69794e-06
-2.65402e-06
6.78622e-05
1.0615e-05
-3.6852e-06
6.52414e-05
1.33348e-05
-4.91371e-06
6.13823e-05
1.7151e-05
-6.36087e-06
5.57824e-05
2.23913e-05
-7.99704e-06
4.76695e-05
2.96337e-05
-9.76021e-06
3.57635e-05
3.84758e-05
-1.11489e-05
1.86935e-05
4.77236e-05
-1.10353e-05
3.87445e-05
-5.89786e-06
6.32462e-05
1.01331e-07
5.94638e-07
6.47919e-05
1.77036e-07
1.40277e-06
6.66819e-05
1.18642e-07
2.28669e-06
6.85184e-05
-8.76627e-08
3.22262e-06
6.99987e-05
-4.4607e-07
4.2195e-06
7.09507e-05
-9.46179e-07
5.33237e-06
7.12987e-05
-1.58472e-06
6.66807e-06
7.10055e-05
-2.36614e-06
8.3815e-06
7.00287e-05
-3.30229e-06
1.0667e-05
6.8257e-05
-4.40677e-06
1.3795e-05
6.54916e-05
-5.69022e-06
1.81274e-05
6.1261e-05
-7.13114e-06
2.42429e-05
5.4868e-05
-8.65852e-06
3.29315e-05
4.44928e-05
-9.88313e-06
4.50238e-05
2.81039e-05
-9.79993e-06
5.98782e-05
-5.48104e-06
6.42493e-05
4.98501e-05
1.26647e-05
1.16976e-09
3.91684e-05
1.0704e-05
-1.04584e-08
3.09365e-05
8.23046e-06
-7.3586e-08
2.55203e-05
5.36144e-06
-1.89863e-07
2.20228e-05
3.36012e-06
-3.59015e-07
1.97098e-05
2.06795e-06
-5.75248e-07
1.79767e-05
1.35497e-06
-8.40403e-07
1.64291e-05
1.00848e-06
-1.15633e-06
1.48092e-05
8.85133e-07
-1.53204e-06
1.29707e-05
8.71178e-07
-1.96183e-06
1.08089e-05
9.1139e-07
-2.4587e-06
8.32421e-06
9.19527e-07
-2.96888e-06
5.48107e-06
9.09666e-07
-3.50528e-06
2.65705e-06
6.23396e-07
-3.80448e-06
1.75672e-07
1.90486e-07
-3.69397e-06
-1.18618e-06
-2.1027e-06
6.44649e-05
1.07208e-05
1.32339e-09
6.24789e-05
1.27227e-05
-1.88168e-08
5.90152e-05
1.16946e-05
-1.171e-07
5.51775e-05
9.11758e-06
-3.06936e-07
5.16135e-05
6.70593e-06
-5.97023e-07
4.8444e-05
4.83123e-06
-9.84053e-07
4.55031e-05
3.64925e-06
-1.47093e-06
4.25202e-05
3.04828e-06
-2.0633e-06
3.92089e-05
2.88968e-06
-2.77715e-06
3.53156e-05
3.01846e-06
-3.61433e-06
3.06052e-05
3.33976e-06
-4.59417e-06
2.49306e-05
3.69555e-06
-5.65385e-06
1.81664e-05
4.06214e-06
-6.77265e-06
1.07053e-05
3.89863e-06
-7.51634e-06
3.50345e-06
3.06721e-06
-7.29106e-06
-1.38382e-07
-3.93247e-06
6.60772e-05
7.16873e-06
6.39633e-09
6.78732e-05
1.09666e-05
-1.4143e-08
6.80879e-05
1.14872e-05
-1.20365e-07
6.69997e-05
1.01259e-05
-3.26117e-07
6.51503e-05
8.32854e-06
-6.42668e-07
6.28309e-05
6.71779e-06
-1.07017e-06
6.01367e-05
5.64366e-06
-1.6145e-06
5.69961e-05
5.15595e-06
-2.28456e-06
5.32305e-05
5.21109e-06
-3.09886e-06
4.86042e-05
5.7e-06
-4.06444e-06
4.28319e-05
6.55503e-06
-5.20174e-06
3.56577e-05
7.6003e-06
-6.45343e-06
2.68226e-05
8.80413e-06
-7.78178e-06
1.65819e-05
9.36101e-06
-8.71043e-06
6.06851e-06
8.63531e-06
-8.46661e-06
3.15334e-06
-4.49116e-06
6.50395e-05
4.65788e-06
1.30696e-08
6.76418e-05
8.4111e-06
-2.96949e-09
6.93947e-05
9.75041e-06
-1.07539e-07
6.99526e-05
9.49819e-06
-3.12285e-07
6.94807e-05
8.58502e-06
-6.27195e-07
6.8161e-05
7.6173e-06
-1.05298e-06
6.61183e-05
6.99977e-06
-1.59676e-06
6.33575e-05
6.89639e-06
-2.26912e-06
5.97679e-05
7.367e-06
-3.08926e-06
5.51425e-05
8.38667e-06
-4.06675e-06
4.91775e-05
9.96246e-06
-5.22135e-06
4.15417e-05
1.1954e-05
-6.50196e-06
3.18473e-05
1.4378e-05
-7.86384e-06
2.02018e-05
1.61779e-05
-8.8346e-06
7.6501e-06
1.61836e-05
-8.58679e-06
8.01182e-06
-4.50551e-06
6.41114e-05
3.07928e-06
2.21985e-08
6.64145e-05
6.16346e-06
1.52924e-08
6.8455e-05
7.73879e-06
-8.13043e-08
6.97057e-05
8.19472e-06
-2.7753e-07
7.00517e-05
8.04578e-06
-5.81195e-07
6.9515e-05
7.76305e-06
-9.91897e-07
6.81524e-05
7.7144e-06
-1.51599e-06
6.59637e-05
8.11543e-06
-2.16379e-06
6.28598e-05
9.10326e-06
-2.95315e-06
5.86498e-05
1.07427e-05
-3.89426e-06
5.30241e-05
1.31389e-05
-5.00427e-06
4.55847e-05
1.62454e-05
-6.2386e-06
3.57988e-05
2.02078e-05
-7.54818e-06
2.35031e-05
2.38281e-05
-8.48962e-06
9.32187e-06
2.55535e-05
-8.23369e-06
1.467e-05
-4.2749e-06
6.35629e-05
2.0536e-06
3.22065e-08
6.54322e-05
4.35949e-06
3.7368e-08
6.7371e-05
5.84449e-06
-4.69818e-08
6.88722e-05
6.66239e-06
-2.29985e-07
6.9686e-05
7.06782e-06
-5.17459e-07
6.97181e-05
7.37886e-06
-9.07261e-07
6.89488e-05
7.88762e-06
-1.40385e-06
6.73472e-05
8.81645e-06
-2.01601e-06
6.48243e-05
1.03506e-05
-2.75891e-06
6.11936e-05
1.26405e-05
-3.64225e-06
5.61429e-05
1.58994e-05
-4.67927e-06
4.92072e-05
2.02353e-05
-5.83241e-06
3.97191e-05
2.59947e-05
-7.04891e-06
2.71596e-05
3.20333e-05
-7.93085e-06
1.15215e-05
3.6684e-05
-7.67459e-06
2.37028e-05
-3.96309e-06
6.33093e-05
1.28625e-06
4.31494e-08
6.48997e-05
2.84562e-06
6.24039e-08
6.67235e-05
4.08329e-06
-6.65162e-09
6.83427e-05
5.03788e-06
-1.72832e-07
6.9466e-05
5.81546e-06
-4.4034e-07
6.99421e-05
6.59747e-06
-8.05031e-07
6.97087e-05
7.58781e-06
-1.26871e-06
6.87228e-05
8.98585e-06
-1.83756e-06
6.69161e-05
1.09949e-05
-2.52288e-06
6.41409e-05
1.38346e-05
-3.33263e-06
6.01457e-05
1.78082e-05
-4.27449e-06
5.44669e-05
2.3235e-05
-5.31794e-06
4.64023e-05
3.07051e-05
-6.40612e-06
3.47587e-05
3.97318e-05
-7.20373e-06
1.82698e-05
4.90999e-05
-6.96231e-06
3.97086e-05
-3.63385e-06
6.3222e-05
5.43778e-08
6.11216e-07
6.47137e-05
8.86911e-08
1.44225e-06
6.65263e-05
3.65867e-08
2.35276e-06
6.82681e-05
-1.10552e-07
3.31899e-06
6.96422e-05
-3.55639e-07
4.35088e-06
7.04801e-05
-6.92663e-07
5.50604e-06
7.07076e-05
-1.12044e-06
6.89605e-06
7.0288e-05
-1.64203e-06
8.68138e-06
6.91812e-05
-2.26426e-06
1.10637e-05
6.72831e-05
-2.99256e-06
1.43185e-05
6.44121e-05
-3.82848e-06
1.88175e-05
6.01301e-05
-4.74775e-06
2.51336e-05
5.38005e-05
-5.69085e-06
3.40671e-05
4.36742e-05
-6.39369e-06
4.63687e-05
2.77951e-05
-6.19646e-06
6.13755e-05
-3.38897e-06
6.54116e-05
4.9836e-05
1.26671e-05
-1.99839e-09
3.91261e-05
1.07104e-05
-1.08648e-08