/*--------------------------------*- C++ -*----------------------------------*\
| =========                 |                                                 |
| \\      /  F ield         | OpenFOAM: The Open Source CFD Toolbox           |
|  \\    /   O peration     | Version:  v1912                                 |
|   \\  /    A nd           | Website:  www.openfoam.com                      |
|    \\/     M anipulation  |                                                 |
\*---------------------------------------------------------------------------*/
FoamFile
{
    version     2.0;
    format      ascii;
    class       volVectorField;
    location    "0.9/fluid";
    object      U;
}
// * * * * * * * * * * * * * * * * * * * * * * * * * * * * * * * * * * * * * //

dimensions      [0 1 -1 0 0 0 0];


internalField   nonuniform List<vector> 
14592
(
(0.0877189 0.0173262 0.000582103)
(0.0718743 0.0119201 0.00103704)
(0.0559443 0.00765007 0.000965236)
(0.0464725 0.00390946 0.00046567)
(0.040308 0.00186521 -0.000391218)
(0.0367553 0.000801742 -0.00150059)
(0.0345198 0.00032644 -0.00283612)
(0.0330321 0.000119248 -0.00442731)
(0.0317488 2.44518e-05 -0.00636546)
(0.0305939 -5.76972e-05 -0.00879721)
(0.0290946 -0.000174298 -0.0119665)
(0.0277364 -0.000430508 -0.0161651)
(0.0251311 -0.000817936 -0.0220493)
(0.0231674 -0.00171093 -0.0296352)
(0.0164446 -0.00213848 -0.0393869)
(0.00945566 -0.00495175 -0.036926)
(0.103947 0.0182464 0.000825781)
(0.103263 0.0184228 0.00157787)
(0.0994428 0.0155674 0.00165214)
(0.0947029 0.0111373 0.00104033)
(0.0900963 0.00748329 -0.000251932)
(0.0863623 0.00483815 -0.0021141)
(0.0832916 0.00320372 -0.00448509)
(0.080697 0.00230146 -0.00738218)
(0.0781413 0.00187467 -0.0109316)
(0.0755003 0.00169647 -0.015372)
(0.0721268 0.00160383 -0.0210989)
(0.0683331 0.00139551 -0.0286219)
(0.0621473 0.000999023 -0.0388449)
(0.0552257 -0.000186049 -0.0516909)
(0.0396043 -0.00138842 -0.0662481)
(0.0230517 -0.00534771 -0.0600455)
(0.104003 0.0122992 0.00091652)
(0.108475 0.0172101 0.00179184)
(0.111475 0.0170103 0.0019483)
(0.11199 0.0140668 0.00135802)
(0.111169 0.0108101 1.14597e-05)
(0.109619 0.00802367 -0.00199964)
(0.107646 0.00608651 -0.00461953)
(0.105408 0.00495149 -0.00786632)
(0.10275 0.00445999 -0.0118691)
(0.0996489 0.00440504 -0.0168877)
(0.0954737 0.00460323 -0.0233502)
(0.090412 0.00482661 -0.0318518)
(0.0822455 0.00495114 -0.0433653)
(0.0724344 0.00425521 -0.0580556)
(0.0517332 0.00280329 -0.0747246)
(0.0289079 -0.00220714 -0.0691123)
(0.102153 0.00791044 0.00095496)
(0.106984 0.0134232 0.00189437)
(0.11216 0.0148135 0.00209756)
(0.115379 0.0136529 0.00153703)
(0.11707 0.0115953 0.000212191)
(0.117422 0.0095386 -0.00178551)
(0.116766 0.00801421 -0.00440264)
(0.115344 0.00716854 -0.00766074)
(0.113142 0.00698626 -0.0116885)
(0.110223 0.00736294 -0.0167524)
(0.105986 0.00818917 -0.0232835)
(0.100582 0.0092934 -0.0319235)
(0.0916333 0.0105641 -0.043671)
(0.080488 0.0112149 -0.0589125)
(0.0572389 0.0104694 -0.0764907)
(0.0309116 0.0039481 -0.0721188)
(0.101101 0.0051117 0.00098288)
(0.105017 0.00985971 0.00196897)
(0.110147 0.0118753 0.00221329)
(0.114225 0.0119518 0.00168849)
(0.117145 0.011049 0.000406341)
(0.118729 0.00991295 -0.00153255)
(0.119153 0.00906214 -0.00406848)
(0.118605 0.00874202 -0.00722014)
(0.117093 0.00904827 -0.011109)
(0.114722 0.00998427 -0.0159986)
(0.11091 0.0115325 -0.0223051)
(0.105814 0.0136083 -0.0306979)
(0.0969122 0.0161451 -0.0421614)
(0.085463 0.0182787 -0.0573236)
(0.0608303 0.0184646 -0.0750734)
(0.0319487 0.00959033 -0.0720372)
(0.100621 0.0033777 0.00100956)
(0.103701 0.00698712 0.00203921)
(0.108272 0.008989 0.00232965)
(0.112466 0.00973133 0.00185224)
(0.115927 0.00970015 0.000628476)
(0.118261 0.00941709 -0.00122966)
(0.119488 0.00930224 -0.00365181)
(0.119707 0.00962288 -0.00664845)
(0.118906 0.0105438 -0.0103274)
(0.117197 0.0121751 -0.014942)
(0.114005 0.0146197 -0.0208811)
(0.109501 0.0179739 -0.0288308)
(0.101023 0.0223511 -0.0397296)
(0.0897798 0.0270745 -0.0544831)
(0.0642899 0.0301101 -0.0719909)
(0.033299 0.0194694 -0.0706222)
(0.10044 0.00216388 0.00104119)
(0.103034 0.00467305 0.00211844)
(0.107168 0.00638113 0.00246356)
(0.111314 0.00740454 0.0020472)
(0.11504 0.00796205 0.000898124)
(0.117863 0.00836856 -0.000859329)
(0.119706 0.00891969 -0.0031403)
(0.120611 0.00985421 -0.00593939)
(0.12056 0.0113609 -0.00933838)
(0.119697 0.0136245 -0.0135601)
(0.117511 0.0168355 -0.0189308)
(0.114263 0.0212611 -0.0260966)
(0.107304 0.0271552 -0.0358339)
(0.0979168 0.0341055 -0.0492803)
(0.0730129 0.0397375 -0.0650504)
(0.0410069 0.0270841 -0.0655988)
(0.100381 0.00117114 0.00107791)
(0.102782 0.00263671 0.00220774)
(0.106741 0.00390646 0.00261412)
(0.110907 0.00498651 0.0022684)
(0.114835 0.00593771 0.00120522)
(0.118012 0.00689398 -0.000440074)
(0.120326 0.00802288 -0.00256715)
(0.121794 0.00950999 -0.00515206)
(0.122411 0.0115444 -0.0082469)
(0.122348 0.0143808 -0.0120376)
(0.121172 0.0183152 -0.0167833)
(0.119219 0.0239434 -0.0230752)
(0.113926 0.0319137 -0.031525)
(0.106818 0.0436193 -0.0435283)
(0.083349 0.0577454 -0.0576065)
(0.0538332 0.0621612 -0.0617602)
(0.0876872 0.0173292 0.000355747)
(0.0716903 0.0119339 0.000620914)
(0.0555224 0.00766276 0.000503681)
(0.0458376 0.00391592 5.51039e-05)
(0.0394746 0.00186906 -0.000690006)
(0.0357366 0.000805664 -0.00166411)
(0.0332962 0.000333337 -0.00285668)
(0.0315541 0.000129989 -0.00429333)
(0.0299388 4.00942e-05 -0.00605056)
(0.0283318 -3.54938e-05 -0.00821808)
(0.0262618 -0.000137475 -0.0109795)
(0.0240856 -0.000361548 -0.0143839)
(0.0206582 -0.00067641 -0.0188354)
(0.0172233 -0.0014233 -0.0232798)
(0.0105395 -0.00180963 -0.0273848)
(0.00270898 -0.00364219 -0.0180987)
(0.103903 0.0182616 0.000504846)
(0.103004 0.018463 0.000940488)
(0.0988293 0.0156196 0.00087051)
(0.0937075 0.0111879 0.000263231)
(0.088704 0.00753266 -0.000900819)
(0.0845726 0.00489291 -0.00255899)
(0.0810708 0.00327536 -0.00468454)
(0.0779644 0.0024 -0.00730476)
(0.0747595 0.00200973 -0.0105321)
(0.0712553 0.00187562 -0.014531)
(0.0667668 0.00184159 -0.019599)
(0.061441 0.00170414 -0.0259133)
(0.0535484 0.00140555 -0.0339833)
(0.04412 0.000332161 -0.0422976)
(0.0280367 -0.000934439 -0.0487923)
(0.0101621 -0.00436564 -0.0314473)
(0.103963 0.0123246 0.000567896)
(0.108211 0.0172717 0.00107928)
(0.110839 0.017101 0.0010512)
(0.110935 0.0141724 0.000438776)
(0.109663 0.010928 -0.000790126)
(0.107647 0.00816139 -0.00258923)
(0.105165 0.00626113 -0.00494022)
(0.102327 0.0051827 -0.00787597)
(0.0989168 0.0047698 -0.0115146)
(0.0948261 0.00481253 -0.0160417)
(0.0893645 0.00513495 -0.0217772)
(0.0825485 0.00549288 -0.028959)
(0.0723722 0.00576903 -0.0381128)
(0.0596631 0.0051532 -0.0477346)
(0.0382334 0.00354135 -0.0552336)
(0.0139267 -0.00170912 -0.0356942)
(0.102116 0.00793719 0.000601332)
(0.106725 0.0134905 0.00115882)
(0.111533 0.0149222 0.00116304)
(0.114338 0.013795 0.00057154)
(0.115579 0.0117702 -0.000640614)
(0.115464 0.00975635 -0.0024274)
(0.114292 0.00829673 -0.00477382)
(0.112266 0.00754476 -0.0077167)
(0.109305 0.00749272 -0.0113742)
(0.105388 0.00803753 -0.0159388)
(0.0998433 0.00908352 -0.0217294)
(0.0926503 0.01044 -0.0290184)
(0.081608 0.0120122 -0.0383285)
(0.067435 0.0128459 -0.048253)
(0.0433098 0.0119836 -0.0561056)
(0.015312 0.00449612 -0.0363799)
(0.101067 0.00514071 0.000631342)
(0.104764 0.00993323 0.00123044)
(0.109532 0.0119997 0.00127169)
(0.113208 0.0121259 0.000714338)
(0.115697 0.0112762 -0.000456156)
(0.116837 0.0102061 -0.00218588)
(0.116772 0.00944759 -0.00445516)
(0.115651 0.0092574 -0.00729774)
(0.11342 0.00974476 -0.0108246)
(0.110101 0.0109205 -0.0152262)
(0.105032 0.0127903 -0.0208061)
(0.0982094 0.0152519 -0.0278606)
(0.0872346 0.0182738 -0.0368877)
(0.0727607 0.0207485 -0.0466483)
(0.0471051 0.0209349 -0.054455)
(0.0162821 0.0103888 -0.0353299)
(0.100587 0.00340951 0.000661356)
(0.103452 0.00706747 0.00130364)
(0.107668 0.00912757 0.00139015)
(0.111476 0.00993286 0.000879949)
(0.114528 0.00997207 -0.00023281)
(0.116449 0.00977603 -0.00188448)
(0.117226 0.00977973 -0.00404629)
(0.116921 0.0102659 -0.00674381)
(0.115458 0.0114202 -0.010075)
(0.112877 0.0133703 -0.0142223)
(0.108513 0.0162594 -0.0194641)
(0.102391 0.0201824 -0.0261164)
(0.0919131 0.0253331 -0.0346323)
(0.0777375 0.0307352 -0.0440032)
(0.0510878 0.0342152 -0.0515655)
(0.0178538 0.0212138 -0.0335918)
(0.100407 0.00219989 0.000695342)
(0.10279 0.00476219 0.00138565)
(0.106578 0.00653421 0.00152637)
(0.110354 0.00762995 0.00107632)
(0.113697 0.00827059 3.67251e-05)
(0.116143 0.0087802 -0.00151881)
(0.117583 0.00947013 -0.00354824)
(0.118028 0.0105979 -0.00606253)
(0.1174 0.0123788 -0.00913692)
(0.115783 0.0150248 -0.0129314)
(0.112579 0.0187802 -0.0176744)
(0.107942 0.0239293 -0.0236728)
(0.0992048 0.0308428 -0.0312688)
(0.0872511 0.0387761 -0.0397421)
(0.0610758 0.0452799 -0.0463982)
(0.0266499 0.0296023 -0.0303407)
(0.100349 0.00121115 0.000732637)
(0.102544 0.00273367 0.00147509)
(0.106168 0.00407137 0.00167589)
(0.10998 0.0052296 0.00129465)
(0.113552 0.00627177 0.000338475)
(0.116389 0.00734172 -0.00111034)
(0.11835 0.00862296 -0.00299531)
(0.119426 0.0103225 -0.00531024)
(0.119557 0.012661 -0.00810462)
(0.11887 0.0159321 -0.0115108)
(0.116844 0.020501 -0.0157029)
(0.113754 0.0270218 -0.0209696)
(0.10694 0.0363134 -0.0275367)
(0.0977299 0.0495209 -0.0350188)
(0.0729807 0.0654435 -0.0408053)
(0.041123 0.0663319 -0.0278067)
(0.0876631 0.017332 0.000200807)
(0.0715493 0.0119455 0.000335641)
(0.0551904 0.00767386 0.000191731)
(0.0453179 0.00392227 -0.000207168)
(0.0387663 0.00187236 -0.000845653)
(0.0348408 0.000808442 -0.00168032)
(0.0321893 0.000338016 -0.0027109)
(0.0301855 0.000136859 -0.00395826)
(0.0282345 4.91247e-05 -0.00548503)
(0.0261677 -2.449e-05 -0.00734382)
(0.0235236 -0.000121834 -0.00967817)
(0.0205191 -0.000332203 -0.0124478)
(0.0162888 -0.000621467 -0.0159539)
(0.0116377 -0.0012945 -0.0191304)
(0.00544613 -0.00177876 -0.021617)
(-0.000994207 -0.00317338 -0.0141511)
(0.10387 0.0182767 0.000284861)
(0.102805 0.0185007 0.000504191)
(0.0983455 0.0156698 0.000343054)
(0.092894 0.0112399 -0.000237912)
(0.0875275 0.00758459 -0.00126577)
(0.0830116 0.00494977 -0.00270615)
(0.0790824 0.00334718 -0.00455309)
(0.0754671 0.00249564 -0.00683578)
(0.0716279 0.00213811 -0.00964954)
(0.0672885 0.00204361 -0.0131042)
(0.0617515 0.00206119 -0.0174242)
(0.0550058 0.00198443 -0.0226375)
(0.0456554 0.00175833 -0.0290738)
(0.0343406 0.00076114 -0.0351518)
(0.0187646 -0.000636446 -0.0388777)
(0.00289231 -0.00388103 -0.0242411)
(0.103932 0.0123508 0.000327186)
(0.108009 0.0173325 0.000588984)
(0.110339 0.017191 0.000441997)
(0.110076 0.0142801 -0.000161459)
(0.108396 0.0110497 -0.00125837)
(0.105934 0.00830222 -0.00282881)
(0.102951 0.00643603 -0.00487548)
(0.0995227 0.00540941 -0.00743552)
(0.0953805 0.00506926 -0.0106111)
(0.0903377 0.00520303 -0.0145315)
(0.0836729 0.00564166 -0.0194363)
(0.0752439 0.00612495 -0.0253994)
(0.0633507 0.00653772 -0.0327396)
(0.048446 0.00598709 -0.0398287)
(0.0273624 0.00420975 -0.0441358)
(0.00520747 -0.00134598 -0.0273739)
(0.102089 0.00796608 0.000355157)
(0.106528 0.0135597 0.000649076)
(0.111044 0.0150325 0.000523023)
(0.113495 0.0139398 -6.66925e-05)
(0.11433 0.0119481 -0.00115128)
(0.113767 0.00997503 -0.00271176)
(0.112092 0.00857544 -0.00475386)
(0.109468 0.0079096 -0.00731918)
(0.105768 0.00797767 -0.0105105)
(0.100889 0.00867734 -0.0144645)
(0.0941168 0.00992535 -0.0194188)
(0.0852713 0.0115105 -0.0254769)
(0.0724205 0.0133514 -0.0329478)
(0.0559161 0.0143421 -0.04027)
(0.031984 0.0133839 -0.0447896)
(0.00608206 0.00509335 -0.0278004)
(0.101041 0.00517201 0.000384286)
(0.104573 0.0100092 0.000713918)
(0.109055 0.0121256 0.000619599)
(0.11239 0.0123012 6.07743e-05)
(0.11449 0.011503 -0.000985339)
(0.115203 0.0104954 -0.00249374)
(0.114659 0.00982303 -0.004466)
(0.112971 0.00975306 -0.00694143)
(0.110035 0.010408 -0.0100165)
(0.105797 0.0118048 -0.0138273)
(0.0995413 0.0139706 -0.0185986)
(0.0911093 0.0167825 -0.0244573)
(0.0783212 0.0202422 -0.031691)
(0.0614867 0.0230236 -0.0388809)
(0.0358607 0.0232644 -0.0433662)
(0.0069411 0.0114571 -0.0269094)
(0.100562 0.00344289 0.000414392)
(0.103266 0.00714906 0.000784264)
(0.107204 0.00926574 0.000731664)
(0.110684 0.0101318 0.000217032)
(0.113367 0.0102384 -0.000775286)
(0.11489 0.0101248 -0.00221221)
(0.115223 0.0102393 -0.00408735)
(0.114395 0.0108793 -0.00643304)
(0.112282 0.01225 -0.00933429)
(0.10885 0.0144943 -0.0129216)
(0.103373 0.0177921 -0.0173987)
(0.0957344 0.0222306 -0.0229141)
(0.0834886 0.0280782 -0.0297205)
(0.0670047 0.034089 -0.0366025)
(0.0402166 0.0380441 -0.0409378)
(0.00860759 0.0233981 -0.0255005)
(0.100383 0.00223613 0.00044781)
(0.102609 0.00485019 0.000863134)
(0.106127 0.00668355 0.000861142)
(0.109591 0.00784809 0.00040252)
(0.112589 0.00856791 -0.00052238)
(0.11467 0.00917512 -0.00187166)
(0.11571 0.00999531 -0.00362796)
(0.115691 0.0113037 -0.00581124)
(0.114489 0.0133407 -0.00848744)
(0.11213 0.0163421 -0.0117711)
(0.107944 0.020603 -0.0158271)
(0.101984 0.0264175 -0.0208094)
(0.0916455 0.0342687 -0.0268937)
(0.0776447 0.0431205 -0.0331352)
(0.0511412 0.0505628 -0.0369588)
(0.0179557 0.0329445 -0.0231909)
(0.100326 0.00124984 0.000483367)
(0.102369 0.00282668 0.000947614)
(0.105733 0.00422875 0.00100153)
(0.10925 0.00546068 0.000606487)
(0.1125 0.00658925 -0.000242089)
(0.115008 0.00776656 -0.00149415)
(0.116615 0.00919116 -0.0031206)
(0.117291 0.0110903 -0.00512663)
(0.116935 0.0137143 -0.00755647)
(0.115626 0.0173917 -0.0105042)
(0.112774 0.0225544 -0.0140916)
(0.108591 0.0299033 -0.0184705)
(0.100401 0.0404294 -0.0237345)
(0.0895173 0.0550596 -0.0292465)
(0.064326 0.0729146 -0.0325839)
(0.033555 0.0720243 -0.0212997)
(0.0876449 0.0173346 9.9602e-05)
(0.0714417 0.0119551 0.000151127)
(0.0549322 0.00768354 1.03706e-06)
(0.0449051 0.00392818 -0.000341342)
(0.0381935 0.00187569 -0.000870209)
(0.0341089 0.000811853 -0.00155715)
(0.031286 0.000344021 -0.00240528)
(0.0290847 0.000146649 -0.00342723)
(0.0269082 6.42767e-05 -0.00466525)
(0.0245671 -9.36731e-07 -0.00613432)
(0.021653 -8.21748e-05 -0.00791724)
(0.0183224 -0.00025634 -0.00989877)
(0.013978 -0.000478856 -0.0122188)
(0.00920006 -0.000993183 -0.013912)
(0.00376396 -0.00137126 -0.0145247)
(-0.00136001 -0.00244284 -0.00854788)
(0.103844 0.0182906 0.000141055)
(0.102652 0.0185341 0.000222651)
(0.0979674 0.0157152 1.98778e-05)
(0.092246 0.011288 -0.000504796)
(0.0865723 0.00763369 -0.00137798)
(0.0817281 0.00500419 -0.00257971)
(0.0774405 0.00341579 -0.0041124)
(0.0734184 0.0025872 -0.00599829)
(0.0691111 0.00226279 -0.00830522)
(0.0642107 0.00221232 -0.0110864)
(0.0580718 0.00229379 -0.0144725)
(0.0506326 0.00230984 -0.0183667)
(0.0408536 0.00222497 -0.0228722)
(0.029232 0.00145272 -0.0265176)
(0.0148997 0.000233063 -0.0274564)
(0.0013396 -0.00281911 -0.0154853)
(0.103909 0.0123754 0.000168302)
(0.107854 0.0173882 0.00027035)
(0.109949 0.0172735 6.47582e-05)
(0.109393 0.01438 -0.00049097)
(0.107368 0.0111632 -0.00143121)
(0.104525 0.00843385 -0.00274773)
(0.101121 0.00659843 -0.00445105)
(0.0972124 0.00561869 -0.00657169)
(0.0925178 0.00534581 -0.00918414)
(0.0868169 0.00556758 -0.012358)
(0.0794309 0.00612605 -0.0162325)
(0.0701777 0.00675943 -0.0207399)
(0.0577136 0.00737395 -0.0259529)
(0.0424001 0.00704866 -0.030311)
(0.0226324 0.00542606 -0.0314441)
(0.00319454 -0.000248732 -0.0175379)
(0.102068 0.0079939 0.000190754)
(0.106379 0.0136246 0.000314361)
(0.110664 0.015135 0.000121394)
(0.112826 0.0140746 -0.000426141)
(0.113319 0.0121134 -0.00135794)
(0.112375 0.0101771 -0.00266701)
(0.110274 0.00883045 -0.00436683)
(0.107166 0.00824008 -0.00649226)
(0.102906 0.0084139 -0.00911875)
(0.0973627 0.00925143 -0.0123226)
(0.0898544 0.0106829 -0.0162405)
(0.0801684 0.0124867 -0.0208265)
(0.0667106 0.0146043 -0.0261361)
(0.049764 0.0158366 -0.0306411)
(0.0271157 0.0149996 -0.0318282)
(0.00399852 0.00620435 -0.0176306)
(0.101021 0.00520221 0.000216862)
(0.104428 0.0100808 0.00036984)
(0.108688 0.0122429 0.000202835)
(0.111744 0.0124635 -0.000318529)
(0.113516 0.011712 -0.00121685)
(0.113866 0.0107598 -0.0024809)
(0.112918 0.0101623 -0.00412097)
(0.11077 0.0101958 -0.00617033)
(0.107304 0.010994 -0.00869935)
(0.102437 0.0125783 -0.0117847)
(0.0954813 0.0149935 -0.0155526)
(0.086251 0.0181 -0.0199765)
(0.0728706 0.0219289 -0.025093)
(0.0556052 0.0250011 -0.029479)
(0.0311817 0.0253815 -0.0306097)
(0.00496148 0.0127531 -0.016814)
(0.100544 0.00347467 0.000244517)
(0.103126 0.00722544 0.000432776)
(0.106847 0.00939344 0.000301981)
(0.110061 0.0103144 -0.000180752)
(0.112435 0.0104811 -0.00103177)
(0.113619 0.0104396 -0.0022339)
(0.113577 0.0106495 -0.00379087)
(0.112327 0.0114196 -0.00573049)
(0.109727 0.0129704 -0.00811391)
(0.105721 0.0154532 -0.0110143)
(0.0995999 0.0190732 -0.0145421)
(0.0912331 0.0239003 -0.0186908)
(0.078432 0.0302467 -0.0234732)
(0.0615576 0.0366606 -0.0276252)
(0.0358686 0.040877 -0.0286733)
(0.00678719 0.0251449 -0.0156939)
(0.100365 0.00226985 0.000274934)
(0.102474 0.00493124 0.000503576)
(0.105784 0.00681989 0.000417209)
(0.108994 0.00804607 -1.64139e-05)
(0.111703 0.00883585 -0.000808653)
(0.113472 0.00952781 -0.0019355)
(0.114174 0.0104593 -0.00339168)
(0.113779 0.0119188 -0.00519555)
(0.112149 0.014165 -0.00739379)
(0.109292 0.0174468 -0.0100498)
(0.104549 0.0220902 -0.0132481)
(0.0979732 0.0283765 -0.0169965)
(0.0871539 0.0368448 -0.021267)
(0.0728592 0.046222 -0.0250194)
(0.0472997 0.054077 -0.0258901)
(0.0163531 0.0351924 -0.0142564)
(0.100309 0.00128494 0.000306724)
(0.102238 0.00291077 0.00057864)
(0.105403 0.00437043 0.000541363)
(0.108681 0.00566778 0.000163419)
(0.111663 0.00687212 -0.000562581)
(0.113888 0.00814236 -0.00160622)
(0.115195 0.00968863 -0.00295235)
(0.115545 0.011753 -0.00460811)
(0.114824 0.0146062 -0.00660376)
(0.113102 0.0185952 -0.0089899)
(0.10979 0.0241878 -0.0118224)
(0.105122 0.0320833 -0.01512)
(0.0965477 0.04334 -0.0188143)
(0.085503 0.0586337 -0.0221222)
(0.0611265 0.0771252 -0.0228912)
(0.0323205 0.0747706 -0.0131699)
(0.0876306 0.0173367 3.85058e-05)
(0.0713592 0.0119628 4.2774e-05)
(0.0547322 0.00769112 -9.50453e-05)
(0.0445797 0.00393252 -0.000373027)
(0.0377351 0.00187772 -0.000789822)
(0.0335147 0.000813554 -0.00132757)
(0.0305449 0.000347171 -0.0019907)
(0.0281754 0.000151835 -0.00278728)
(0.0258101 7.20415e-05 -0.00374652)
(0.0232439 1.05776e-05 -0.00486877)
(0.0201145 -6.31975e-05 -0.00620604)
(0.0165386 -0.00021844 -0.00764694)
(0.0121266 -0.000406263 -0.00926744)
(0.00733649 -0.000831911 -0.0103519)
(0.00254085 -0.00115291 -0.0105034)
(-0.00153743 -0.00209127 -0.00620815)
(0.103824 0.0183024 5.42344e-05)
(0.102534 0.0185618 5.82725e-05)
(0.0976737 0.015753 -0.00014444)
(0.0917354 0.0113286 -0.000585534)
(0.0858089 0.00767542 -0.00128707)
(0.0806888 0.00505036 -0.00223803)
(0.0760983 0.00347341 -0.00344423)
(0.0717339 0.0026633 -0.00492267)
(0.0670399 0.00236552 -0.00672175)
(0.0616872 0.00235021 -0.00886665)
(0.0550816 0.00248219 -0.0114369)
(0.0471371 0.00257025 -0.0143171)
(0.0371015 0.00259276 -0.0175275)
(0.0254261 0.00198094 -0.0199384)
(0.0122084 0.000882377 -0.0200836)
(0.000553288 -0.00214727 -0.0112454)
(0.10389 0.0123966 7.08832e-05)
(0.107735 0.0174357 8.21023e-05)
(0.109646 0.0173438 -0.000131771)
(0.108855 0.0144654 -0.000605008)
(0.106547 0.011261 -0.00136558)
(0.103386 0.00854711 -0.0024115)
(0.0996252 0.0067375 -0.00375542)
(0.0953135 0.00579681 -0.00542171)
(0.0901614 0.00558008 -0.00746455)
(0.083928 0.0058753 -0.00992213)
(0.0759797 0.00653379 -0.0128786)
(0.0661212 0.00729212 -0.0162376)
(0.0533001 0.00807415 -0.0199858)
(0.0378834 0.00793101 -0.0229072)
(0.0193276 0.0064271 -0.0231043)
(0.00215187 0.000569831 -0.0127547)
(0.102051 0.00801842 8.79697e-05)
(0.106264 0.013681 0.000113012)
(0.11037 0.0152236 -9.39406e-05)
(0.112301 0.014191 -0.000562747)
(0.112514 0.0122562 -0.00131794)
(0.11125 0.0103513 -0.00235873)
(0.10879 0.00904899 -0.0037004)
(0.105274 0.00852154 -0.00537118)
(0.10055 0.00878332 -0.00742641)
(0.0944666 0.00973517 -0.00991012)
(0.0863816 0.0113182 -0.0129047)
(0.0760741 0.0133015 -0.0163303)
(0.0622277 0.0156448 -0.0201584)
(0.0451535 0.0170732 -0.0231917)
(0.0236989 0.016337 -0.0234073)
(0.00291588 0.00710424 -0.0128191)
(0.101006 0.005229 0.000109566)
(0.104318 0.0101435 0.000157445)
(0.108404 0.0123447 -2.94249e-05)
(0.111238 0.012604 -0.000477368)
(0.112742 0.0118923 -0.00120546)
(0.112788 0.0109871 -0.00220984)
(0.111498 0.0104525 -0.00350359)
(0.108963 0.0105722 -0.00511394)
(0.105056 0.0114895 -0.00709252)
(0.0996767 0.0132288 -0.00948434)
(0.09217 0.0158489 -0.0123643)
(0.0823473 0.0191957 -0.0156687)
(0.0685835 0.0233225 -0.019356)
(0.0511919 0.0266308 -0.0223075)
(0.0278954 0.0271313 -0.0224923)
(0.00395522 0.0138611 -0.0122175)
(0.100529 0.00350274 0.000132871)
(0.10302 0.00729216 0.000209572)
(0.106574 0.00950414 5.21177e-05)
(0.109575 0.0104719 -0.000364236)
(0.111696 0.0106898 -0.00105369)
(0.112595 0.0107091 -0.00200781)
(0.112237 0.010999 -0.00323477)
(0.110629 0.0118774 -0.0047577)
(0.107624 0.0135772 -0.00662122)
(0.10315 0.0162561 -0.00886837)
(0.0965219 0.0201381 -0.0115628)
(0.0876149 0.0252775 -0.0146576)
(0.0744542 0.0320175 -0.0180972)
(0.0574743 0.0387486 -0.0208829)
(0.0328238 0.0431698 -0.0210346)
(0.00589497 0.0266388 -0.0113879)
(0.100351 0.00229928 0.000158404)
(0.102372 0.00500144 0.000268453)
(0.105521 0.00693727 0.000147411)
(0.10853 0.00821586 -0.000228798)
(0.111002 0.00906496 -0.000870377)
(0.11251 0.0098284 -0.00176374)
(0.112924 0.0108532 -0.00291016)
(0.112211 0.0124387 -0.00432579)
(0.110222 0.0148581 -0.0060446)
(0.106957 0.0183704 -0.00810354)
(0.101772 0.0233247 -0.0105488)
(0.0947376 0.02999 -0.0133484)
(0.0836058 0.0389443 -0.0164246)
(0.0692564 0.0487366 -0.0189464)
(0.0446058 0.0569141 -0.019045)
(0.0155953 0.0371416 -0.0103982)
(0.100295 0.00131514 0.000184806)
(0.10214 0.00298281 0.000330523)
(0.105152 0.00449138 0.000249734)
(0.10824 0.00584428 -8.104e-05)
(0.111004 0.0071127 -0.00066873)
(0.112991 0.0084612 -0.00149502)
(0.114043 0.0101096 -0.0025535)
(0.114116 0.0123117 -0.00385193)
(0.113088 0.0153549 -0.00541212)
(0.111025 0.0195994 -0.00726264)
(0.107347 0.0255408 -0.00943033)
(0.102319 0.0338737 -0.0118952)
(0.0935016 0.0457027 -0.0145594)
(0.0824815 0.06152 -0.0167832)
(0.058897 0.0805087 -0.0168897)
(0.0318001 0.0772461 -0.00963185)
(0.0876205 0.0173383 7.36125e-06)
(0.0712999 0.0119686 -8.25193e-06)
(0.0545876 0.00769687 -0.000117889)
(0.0443427 0.00393599 -0.000322594)
(0.0373995 0.0018796 -0.000622413)
(0.0330798 0.000815476 -0.0010062)
(0.0300062 0.00035075 -0.00147715)
(0.0275245 0.000158016 -0.00203872)
(0.0250442 8.20104e-05 -0.00270734)
(0.022355 2.64573e-05 -0.00347403)
(0.0191347 -3.67808e-05 -0.00436322)
(0.0154803 -0.000170799 -0.00528022)
(0.011127 -0.000322517 -0.00625146)
(0.00645659 -0.000677416 -0.00679924)
(0.0020406 -0.000935884 -0.00662152)
(-0.00148722 -0.00181471 -0.00375128)
(0.103809 0.0183115 1.00011e-05)
(0.102449 0.0185834 -1.80919e-05)
(0.0974605 0.0157824 -0.000186764)
(0.0913616 0.0113604 -0.000519403)
(0.0852468 0.00770858 -0.00103173)
(0.0799216 0.0050874 -0.00171725)
(0.0751103 0.0035199 -0.00258081)
(0.0705052 0.00272516 -0.00363246)
(0.0655548 0.00244996 -0.00490115)
(0.0599243 0.0024654 -0.00639193)
(0.0530682 0.00264243 -0.00814175)
(0.0448985 0.00279574 -0.0100418)
(0.0348454 0.0029159 -0.0120617)
(0.0233447 0.00244204 -0.0134211)
(0.0108702 0.00146066 -0.0130658)
(0.000357725 -0.00159962 -0.0070365)
(0.103877 0.0124134 1.95031e-05)
(0.107649 0.0174729 -8.06744e-06)
(0.109426 0.0173988 -0.000189505)
(0.108461 0.0145326 -0.000549436)
(0.105942 0.0113381 -0.00110779)
(0.102543 0.00863667 -0.00186442)
(0.0985209 0.00684739 -0.00282932)
(0.0939218 0.00593748 -0.00401822)
(0.0884597 0.00576531 -0.0054645)
(0.0818894 0.00611969 -0.00718237)
(0.0736232 0.00685991 -0.00921089)
(0.0634749 0.00772318 -0.0114516)
(0.0505821 0.00864874 -0.0138447)
(0.0353359 0.0086672 -0.015537)
(0.0176291 0.00728406 -0.0151577)
(0.00184586 0.00125524 -0.00803471)
(0.10204 0.00803802 3.14639e-05)
(0.106182 0.0137257 1.22019e-05)
(0.110157 0.0152935 -0.000165872)
(0.111917 0.0142828 -0.000523755)
(0.11192 0.0123689 -0.001079)
(0.110419 0.0104883 -0.00183246)
(0.107695 0.00922028 -0.00279624)
(0.103887 0.00874111 -0.00398909)
(0.0988481 0.00907033 -0.00544543)
(0.0924216 0.01011 -0.00718395)
(0.0840087 0.0118096 -0.00924239)
(0.0734022 0.0139327 -0.0115334)
(0.0594677 0.0164535 -0.0139846)
(0.0425585 0.0180442 -0.0157511)
(0.0219513 0.0174054 -0.0153658)
(0.00261102 0.00783786 -0.00805713)
(0.100995 0.00525047 4.75257e-05)
(0.10424 0.0101934 4.45305e-05)
(0.1082 0.0124253 -0.000119326)
(0.110869 0.0127148 -0.000462115)
(0.112173 0.0120342 -0.000997496)
(0.111992 0.0111651 -0.00172432)
(0.110451 0.0106784 -0.00265329)
(0.10764 0.0108633 -0.00380262)
(0.103434 0.0118699 -0.0052043)
(0.097732 0.0137246 -0.00687802)
(0.0899158 0.0164959 -0.00885672)
(0.0798149 0.0200191 -0.0110646)
(0.0659683 0.0243625 -0.013421)
(0.0487446 0.0278464 -0.0151333)
(0.0262509 0.0284392 -0.0147303)
(0.00371439 0.0147067 -0.00763962)
(0.100519 0.00352517 6.50819e-05)
(0.102944 0.00734514 8.33667e-05)
(0.106377 0.00959158 -5.88901e-05)
(0.109221 0.0105958 -0.00037836)
(0.111153 0.0108532 -0.000885207)
(0.111841 0.010919 -0.00157516)
(0.11125 0.0112693 -0.00245553)
(0.109389 0.0122285 -0.00354176)
(0.10611 0.0140379 -0.00486108)
(0.101344 0.0168586 -0.00643224)
(0.0944362 0.0209261 -0.008281)
(0.0852851 0.0262812 -0.0103441)
(0.0720562 0.0332841 -0.0125335)
(0.0552542 0.0402197 -0.0141386)
(0.0313451 0.044752 -0.0137314)
(0.00573413 0.0276687 -0.00708141)
(0.100342 0.00232261 8.42816e-05)
(0.102299 0.00505685 0.000127378)
(0.105332 0.00702958 1.2062e-05)
(0.108193 0.00834885 -0.00027775)
(0.110489 0.0092436 -0.000749383)
(0.111802 0.0100614 -0.00139498)
(0.112006 0.0111563 -0.0022171)
(0.111065 0.0128348 -0.00322654)
(0.108835 0.0153799 -0.00444352)
(0.105317 0.0190554 -0.00588355)
(0.0998922 0.024224 -0.00756213)
(0.0926598 0.0311409 -0.00942839)
(0.0814801 0.0404026 -0.0113856)
(0.067322 0.0504403 -0.0128362)
(0.0433293 0.0587684 -0.0124469)
(0.0155081 0.0384017 -0.00648309)
(0.100286 0.00133884 0.000104008)
(0.102071 0.00303928 0.000173616)
(0.104972 0.00458596 8.81455e-05)
(0.107921 0.0059818 -0.000168107)
(0.110522 0.00729938 -0.000600194)
(0.112333 0.00870716 -0.00119692)
(0.113196 0.0104317 -0.00195554)
(0.113071 0.0127349 -0.00288121)
(0.111837 0.0159141 -0.00398618)
(0.109564 0.0203367 -0.00528133)
(0.105693 0.0265122 -0.0067709)
(0.10052 0.0351244 -0.00841516)
(0.0916858 0.0472952 -0.0101113)
(0.0808804 0.0633942 -0.0113908)
(0.057878 0.0825818 -0.0110745)
(0.0318249 0.0787491 -0.00604872)
(0.0876136 0.0173394 -3.40145e-06)
(0.0712608 0.0119725 -2.0958e-05)
(0.054492 0.00770058 -9.07374e-05)
(0.0441849 0.00393814 -0.000216768)
(0.0371748 0.00188056 -0.000397906)
(0.0327867 0.000816274 -0.000628886)
(0.0296417 0.000352376 -0.000911597)
(0.0270828 0.000160953 -0.00124777)
(0.0245241 8.67863e-05 -0.00164636)
(0.0217524 3.40468e-05 -0.00209993)
(0.0184721 -2.40393e-05 -0.00262065)
(0.0147708 -0.000147199 -0.00314988)
(0.0104605 -0.000280293 -0.00369785)
(0.00588369 -0.00059894 -0.00399292)
(0.00172259 -0.000829316 -0.00384807)
(-0.00146339 -0.00168129 -0.00218964)
(0.1038 0.0183178 -5.67523e-06)
(0.102393 0.018598 -3.48002e-05)
(0.0973194 0.0158023 -0.000145651)
(0.0911128 0.0113821 -0.000352924)
(0.0848706 0.00773115 -0.000665547)
(0.0794055 0.00511258 -0.00108058)
(0.0744431 0.00355139 -0.00160132)
(0.0696736 0.00276691 -0.00223365)
(0.0645497 0.00250677 -0.00299385)
(0.0587345 0.00254263 -0.00388187)
(0.0517161 0.00274937 -0.00491539)
(0.0434105 0.0029451 -0.00602403)
(0.0333642 0.00312773 -0.00717919)
(0.0220134 0.00273782 -0.00792593)
(0.0100433 0.0018212 -0.00763113)
(0.000251596 -0.00127891 -0.00410407)
(0.103868 0.012425 -7.09308e-07)
(0.107593 0.0174984 -3.15437e-05)
(0.109281 0.0174364 -0.000152232)
(0.108198 0.0145787 -0.000377456)
(0.105537 0.0113912 -0.00071933)
(0.101976 0.00869835 -0.00117836)
(0.0977749 0.006923 -0.00176116)
(0.0929794 0.00603414 -0.00247716)
(0.0873071 0.00589241 -0.00334545)
(0.0805118 0.00628721 -0.00437152)
(0.0720382 0.0070831 -0.00557403)
(0.0617119 0.00801745 -0.00688791)
(0.0487929 0.00903923 -0.00826559)
(0.0337 0.00916278 -0.00920492)
(0.0165745 0.00785292 -0.00888076)
(0.00167223 0.001688 -0.00469194)
(0.102032 0.00805164 6.28574e-06)
(0.106128 0.0137566 -2.00251e-05)
(0.110016 0.0153417 -0.000139387)
(0.111661 0.0143462 -0.000363795)
(0.111523 0.0124467 -0.000704123)
(0.10986 0.0105829 -0.00116144)
(0.106955 0.00933837 -0.00174377)
(0.102948 0.00889219 -0.0024624)
(0.0976946 0.0092674 -0.00333721)
(0.0910383 0.0103668 -0.00437646)
(0.0824105 0.0121455 -0.00559821)
(0.0716188 0.0143631 -0.00694392)
(0.0576464 0.0170028 -0.00835858)
(0.0408871 0.0187004 -0.00934315)
(0.0208624 0.0181223 -0.00901324)
(0.00243842 0.0083203 -0.00470855)
(0.100988 0.00526546 1.61762e-05)
(0.104188 0.0102281 -4.3108e-07)
(0.108064 0.0124811 -0.000111337)
(0.110624 0.0127914 -0.000326609)
(0.111793 0.0121323 -0.000654824)
(0.111457 0.011288 -0.00109587)
(0.109744 0.0108342 -0.00165705)
(0.106744 0.0110636 -0.00234936)
(0.102334 0.0121311 -0.00319132)
(0.0964159 0.0140642 -0.00419193)
(0.0883964 0.0169378 -0.00536667)
(0.0781226 0.02058 -0.00666396)
(0.0642399 0.025068 -0.00802474)
(0.0471659 0.0286689 -0.00898008)
(0.0252251 0.0293204 -0.0086446)
(0.00358017 0.0152759 -0.00446994)
(0.100512 0.00354084 2.70674e-05)
(0.102894 0.00738197 2.35046e-05)
(0.106247 0.00965217 -7.41674e-05)
(0.108987 0.0106815 -0.000275156)
(0.110791 0.0109661 -0.000585864)
(0.111335 0.0110639 -0.00100436)
(0.110584 0.0114555 -0.00153595)
(0.108549 0.0124697 -0.00219001)
(0.105084 0.0143536 -0.00298228)
(0.100121 0.0172703 -0.00392127)
(0.0930301 0.0214627 -0.00501851)
(0.0837278 0.0269623 -0.00622985)
(0.0704712 0.0341388 -0.00749313)
(0.0538228 0.0412093 -0.00838679)
(0.0304246 0.0458113 -0.00805476)
(0.00565048 0.0283653 -0.0041425)
(0.100335 0.00233884 3.89731e-05)
(0.102251 0.00509528 5.0682e-05)
(0.105208 0.00709344 -3.04331e-05)