/*--------------------------------*- C++ -*----------------------------------*\
| =========                 |                                                 |
| \\      /  F ield         | OpenFOAM: The Open Source CFD Toolbox           |
|  \\    /   O peration     | Version:  v1912                                 |
|   \\  /    A nd           | Website:  www.openfoam.com                      |
|    \\/     M anipulation  |                                                 |
\*---------------------------------------------------------------------------*/
FoamFile
{
    version     2.0;
    format      ascii;
    class       volVectorField;
    location    "0.77/solid";
    object      D_0;
}
// * * * * * * * * * * * * * * * * * * * * * * * * * * * * * * * * * * * * * //

dimensions      [0 1 0 0 0 0 0];


internalField   nonuniform List<vector> 
256
(
(2.79814e-08 3.97215e-08 3.06387e-08)
(3.66165e-09 2.32087e-08 2.78929e-08)
(-3.52e-09 2.2851e-08 2.77851e-08)
(-2.69529e-08 3.82341e-08 3.03857e-08)
(4.58717e-08 3.10876e-08 5.92927e-08)
(9.37637e-09 2.09705e-08 5.56398e-08)
(-8.12048e-09 2.04329e-08 5.55523e-08)
(-4.34249e-08 2.93027e-08 5.91064e-08)
(4.84816e-08 1.54779e-08 7.51954e-08)
(1.08667e-08 1.14409e-08 7.12469e-08)
(-8.23926e-09 1.08132e-08 7.12179e-08)
(-4.46711e-08 1.35335e-08 7.5168e-08)
(4.798e-08 1.40039e-09 8.76153e-08)
(1.0853e-08 -7.92277e-10 8.32301e-08)
(-6.7618e-09 -1.48528e-09 8.32441e-08)
(-4.27082e-08 -7.12446e-10 8.7708e-08)
(4.88301e-08 -1.21181e-08 9.99177e-08)
(1.13107e-08 -1.50479e-08 9.50166e-08)
(-5.68087e-09 -1.58022e-08 9.50561e-08)
(-4.20044e-08 -1.43985e-08 1.00084e-07)
(5.34002e-08 -2.72415e-08 1.13888e-07)
(1.33038e-08 -3.15966e-08 1.08512e-07)
(-6.07127e-09 -3.24135e-08 1.08564e-07)
(-4.49611e-08 -2.96852e-08 1.14091e-07)
(6.40562e-08 -5.05176e-08 1.30675e-07)
(1.74522e-08 -5.3926e-08 1.25325e-07)
(-8.6002e-09 -5.47853e-08 1.25377e-07)
(-5.39924e-08 -5.30726e-08 1.30883e-07)
(7.91536e-08 -1.06023e-07 1.47501e-07)
(2.19782e-08 -1.0233e-07 1.43219e-07)
(-1.16342e-08 -1.02981e-07 1.43258e-07)
(-6.75241e-08 -1.08048e-07 1.47678e-07)
(1.94335e-08 1.80081e-08 6.23268e-09)
(1.88909e-09 4.46341e-09 7.6041e-09)
(-1.73628e-09 4.22429e-09 7.66588e-09)
(-1.84219e-08 1.68432e-08 6.40988e-09)
(3.21756e-08 1.20647e-08 2.41557e-08)
(5.93093e-09 3.60536e-09 2.68305e-08)
(-4.70356e-09 3.11858e-09 2.69485e-08)
(-2.98344e-08 1.04263e-08 2.44965e-08)
(3.36972e-08 1.40595e-09 3.91292e-08)
(6.99971e-09 -2.08093e-09 4.22345e-08)
(-4.46637e-09 -2.69867e-09 4.24013e-08)
(-3.00805e-08 -4.98268e-10 3.961e-08)
(3.28877e-08 -1.00393e-08 5.12544e-08)
(6.92209e-09 -1.2051e-08 5.43924e-08)
(-2.98558e-09 -1.27463e-08 5.45991e-08)
(-2.78759e-08 -1.21473e-08 5.18487e-08)
(3.3466e-08 -2.21851e-08 6.25431e-08)
(7.3346e-09 -2.50506e-08 6.55665e-08)
(-1.9051e-09 -2.58095e-08 6.58e-08)
(-2.69415e-08 -2.44713e-08 6.3213e-08)
(3.78319e-08 -3.56054e-08 7.42039e-08)
(9.28607e-09 -3.99993e-08 7.70825e-08)
(-2.28343e-09 -4.08214e-08 7.73302e-08)
(-2.97126e-08 -3.80611e-08 7.49131e-08)
(4.86909e-08 -5.42679e-08 8.55688e-08)
(1.34697e-08 -5.76387e-08 8.83912e-08)
(-4.86056e-09 -5.85071e-08 8.86421e-08)
(-3.89458e-08 -5.68476e-08 8.62857e-08)
(6.46975e-08 -9.92964e-08 9.19832e-08)
(1.80811e-08 -9.45557e-08 9.48517e-08)
(-7.97307e-09 -9.52264e-08 9.50993e-08)
(-5.3371e-08 -1.01366e-07 9.26894e-08)
(1.3559e-08 1.12477e-08 2.99816e-09)
(3.36547e-10 -5.79832e-11 4.8481e-09)
(-2.31416e-10 -2.63168e-10 4.89797e-09)
(-1.26222e-08 1.0197e-08 3.14075e-09)
(2.24388e-08 2.36763e-09 1.49651e-08)
(2.7848e-09 -4.61541e-09 1.84622e-08)
(-1.6931e-09 -5.06393e-09 1.85671e-08)
(-2.0266e-08 8.48339e-10 1.52678e-08)
(2.3233e-08 -8.00814e-09 2.78331e-08)
(3.44379e-09 -1.09771e-08 3.18531e-08)
(-1.11604e-09 -1.1569e-08 3.19957e-08)
(-1.98572e-08 -9.83056e-09 2.82465e-08)
(2.23601e-08 -1.80593e-08 3.94207e-08)
(3.3228e-09 -1.99696e-08 4.35446e-08)
(3.53441e-10 -2.06507e-08 4.37169e-08)
(-1.76449e-08 -2.01196e-08 3.9921e-08)
(2.29001e-08 -2.82333e-08 4.98789e-08)
(3.71508e-09 -3.11285e-08 5.39787e-08)
(1.41319e-09 -3.18808e-08 5.41728e-08)
(-1.67096e-08 -3.04961e-08 5.04416e-08)
(2.7293e-08 -3.87331e-08 5.93711e-08)
(5.64928e-09 -4.32016e-08 6.34084e-08)
(1.02443e-09 -4.40226e-08 6.36156e-08)
(-1.95266e-08 -4.11842e-08 5.997e-08)
(3.83563e-08 -5.30405e-08 6.66401e-08)
(9.86171e-09 -5.64776e-08 7.06045e-08)
(-1.59682e-09 -5.735e-08 7.08169e-08)
(-2.89662e-08 -5.5631e-08 6.72521e-08)
(5.459e-08 -9.2578e-08 6.86671e-08)
(1.45168e-08 -8.78353e-08 7.25909e-08)
(-4.75757e-09 -8.85126e-08 7.28039e-08)
(-4.36097e-08 -9.46621e-08 6.92782e-08)
(1.09092e-08 9.12006e-09 2.77075e-09)
(-3.1896e-10 -8.84176e-10 3.96028e-09)
(3.8639e-10 -1.0796e-09 3.99345e-09)
(-1.00418e-08 8.1204e-09 2.86915e-09)
(1.79366e-08 -1.52682e-09 1.16785e-08)
(1.33521e-09 -7.62517e-09 1.39442e-08)
(-3.65116e-10 -8.05203e-09 1.40214e-08)
(-1.59211e-08 -2.97078e-09 1.19062e-08)
(1.84841e-08 -1.27467e-08 2.19346e-08)
(1.79845e-09 -1.54049e-08 2.45333e-08)
(3.39318e-10 -1.59741e-08 2.46402e-08)
(-1.53291e-08 -1.44978e-08 2.22509e-08)
(1.77699e-08 -2.24251e-08 3.18488e-08)
(1.70749e-09 -2.43015e-08 3.44896e-08)
(1.72799e-09 -2.4965e-08 3.46189e-08)
(-1.33237e-08 -2.44311e-08 3.22319e-08)
(1.84796e-08 -3.11789e-08 4.07205e-08)
(2.14729e-09 -3.41238e-08 4.33194e-08)
(2.70359e-09 -3.48648e-08 4.34654e-08)
(-1.2592e-08 -3.34071e-08 4.11531e-08)
(2.30109e-08 -3.95263e-08 4.80395e-08)
(4.10425e-09 -4.40637e-08 5.05821e-08)
(2.26704e-09 -4.48788e-08 5.07393e-08)
(-1.55669e-08 -4.19601e-08 4.8504e-08)
(3.41159e-08 -5.14803e-08 5.27806e-08)
(8.29879e-09 -5.50697e-08 5.52802e-08)
(-3.52501e-10 -5.59401e-08 5.54431e-08)
(-2.50548e-08 -5.40657e-08 5.32603e-08)
(5.019e-08 -8.86839e-08 5.36251e-08)
(1.29203e-08 -8.44103e-08 5.61678e-08)
(-3.48958e-09 -8.50875e-08 5.63317e-08)
(-3.95375e-08 -9.07661e-08 5.41065e-08)
(9.90959e-09 8.26023e-09 2.51949e-09)
(-4.76396e-10 -1.09048e-09 3.11731e-09)
(5.19765e-10 -1.28019e-09 3.13977e-09)
(-9.09106e-09 7.29507e-09 2.58713e-09)
(1.62907e-08 -2.93594e-09 9.28439e-09)
(9.26763e-10 -8.60728e-09 1.04163e-08)
(-4.34754e-11 -9.02022e-09 1.04711e-08)
(-1.43931e-08 -4.32794e-09 9.44779e-09)
(1.68625e-08 -1.46218e-08 1.69925e-08)
(1.35167e-09 -1.71517e-08 1.82724e-08)
(6.42372e-10 -1.77042e-08 1.83499e-08)
(-1.38786e-08 -1.63188e-08 1.72239e-08)
(1.63623e-08 -2.424e-08 2.46517e-08)
(1.32081e-09 -2.61325e-08 2.59209e-08)
(1.9267e-09 -2.6781e-08 2.60153e-08)
(-1.21285e-08 -2.61996e-08 2.49342e-08)
(1.72746e-08 -3.22839e-08 3.14881e-08)
(1.82321e-09 -3.52778e-08 3.27052e-08)
(2.80741e-09 -3.60074e-08 3.28123e-08)
(-1.16294e-08 -3.4478e-08 3.1809e-08)
(2.19204e-08 -3.95792e-08 3.68548e-08)
(3.80318e-09 -4.41623e-08 3.80288e-08)
(2.32528e-09 -4.497e-08 3.81448e-08)
(-1.47378e-08 -4.19914e-08 3.72022e-08)
(3.29638e-08 -5.06005e-08 4.00852e-08)
(7.95498e-09 -5.43105e-08 4.12504e-08)
(-2.67197e-10 -5.51763e-08 4.13714e-08)
(-2.41738e-08 -5.31735e-08 4.04468e-08)
(4.88075e-08 -8.67315e-08 4.07095e-08)
(1.2522e-08 -8.28761e-08 4.19456e-08)
(-3.36091e-09 -8.35507e-08 4.20674e-08)
(-3.843e-08 -8.88057e-08 4.10733e-08)
(9.5384e-09 7.85345e-09 1.98307e-09)
(-4.77809e-10 -1.18255e-09 2.25356e-09)
(5.06296e-10 -1.36801e-09 2.26836e-09)
(-8.75102e-09 6.91246e-09 2.02751e-09)
(1.57559e-08 -3.39618e-09 6.80821e-09)
(8.84345e-10 -8.88666e-09 7.30674e-09)
(-5.83657e-11 -9.28981e-09 7.34356e-09)
(-1.39368e-08 -4.7514e-09 6.91765e-09)
(1.64332e-08 -1.51577e-08 1.21571e-08)
(1.3305e-09 -1.76561e-08 1.27025e-08)
(5.64301e-10 -1.81969e-08 1.27553e-08)
(-1.35677e-08 -1.68157e-08 1.23144e-08)
(1.61088e-08 -2.47361e-08 1.74863e-08)
(1.35328e-09 -2.66622e-08 1.8004e-08)
(1.76021e-09 -2.72995e-08 1.80686e-08)
(-1.20258e-08 -2.66606e-08 1.76801e-08)
(1.71712e-08 -3.25175e-08 2.22323e-08)
(1.90174e-09 -3.55487e-08 2.27078e-08)
(2.56844e-09 -3.62691e-08 2.27816e-08)
(-1.17015e-08 -3.46838e-08 2.2454e-08)
(2.18801e-08 -3.94633e-08 2.58908e-08)
(3.89228e-09 -4.40675e-08 2.63415e-08)
(2.05668e-09 -4.48683e-08 2.64218e-08)
(-1.48898e-08 -4.18557e-08 2.61323e-08)
(3.28415e-08 -5.02189e-08 2.80651e-08)
(8.00262e-09 -5.39879e-08 2.85246e-08)
(-5.07995e-10 -5.48489e-08 2.86088e-08)
(-2.42539e-08 -5.27788e-08 2.8318e-08)
(4.84958e-08 -8.57997e-08 2.8595e-08)
(1.25226e-08 -8.21885e-08 2.91129e-08)
(-3.56478e-09 -8.28597e-08 2.91976e-08)
(-3.83265e-08 -8.78643e-08 2.88498e-08)
(9.38336e-09 7.66225e-09 1.25479e-09)
(-4.58045e-10 -1.22238e-09 1.36862e-09)
(4.77944e-10 -1.40502e-09 1.37711e-09)
(-8.61411e-09 6.73638e-09 1.28008e-09)
(1.55697e-08 -3.51264e-09 4.15722e-09)
(9.09878e-10 -8.93118e-09 4.35903e-09)
(-1.18304e-10 -9.32793e-09 4.3803e-09)
(-1.37975e-08 -4.84408e-09 4.22004e-09)
(1.63354e-08 -1.52068e-08 7.30299e-09)
(1.38162e-09 -1.7707e-08 7.51388e-09)
(4.51778e-10 -1.824e-08 7.54454e-09)
(-1.35425e-08 -1.68392e-08 7.39402e-09)
(1.61227e-08 -2.47366e-08 1.04201e-08)
(1.43884e-09 -2.66914e-08 1.06088e-08)
(1.58961e-09 -2.73212e-08 1.06467e-08)
(-1.21346e-08 -2.66375e-08 1.05331e-08)
(1.72727e-08 -3.24513e-08 1.31899e-08)
(2.01299e-09 -3.55049e-08 1.33537e-08)
(2.35347e-09 -3.6219e-08 1.33971e-08)
(-1.19153e-08 -3.45981e-08 1.332e-08)
(2.20094e-08 -3.93433e-08 1.53174e-08)
(4.00579e-09 -4.39532e-08 1.54703e-08)
(1.82555e-09 -4.47491e-08 1.55176e-08)
(-1.5144e-08 -4.17212e-08 1.54598e-08)
(3.29084e-08 -5.00702e-08 1.65934e-08)
(8.08724e-09 -5.38573e-08 1.67571e-08)
(-7.20418e-10 -5.47147e-08 1.68068e-08)
(-2.44537e-08 -5.26196e-08 1.6743e-08)
(4.84375e-08 -8.53702e-08 1.6958e-08)
(1.25751e-08 -8.18718e-08 1.71567e-08)
(-3.7527e-09 -8.25403e-08 1.72067e-08)
(-3.84065e-08 -8.74269e-08 1.7109e-08)
(9.31986e-09 7.58698e-09 4.2818e-10)
(-4.47427e-10 -1.23447e-09 4.59738e-10)
(4.63411e-10 -1.41572e-09 4.62508e-10)
(-8.55894e-09 6.66833e-09 4.36391e-10)
(1.54994e-08 -3.52657e-09 1.39726e-09)
(9.26282e-10 -8.91949e-09 1.45167e-09)
(-1.50769e-10 -9.31306e-09 1.45863e-09)
(-1.3749e-08 -4.84635e-09 1.41773e-09)
(1.63092e-08 -1.51595e-08 2.43522e-09)
(1.41139e-09 -1.76652e-08 2.49017e-09)
(3.92838e-10 -1.81944e-08 2.50024e-09)
(-1.35506e-08 -1.67793e-08 2.465e-09)
(1.61483e-08 -2.46576e-08 3.45914e-09)
(1.48437e-09 -2.66274e-08 3.50615e-09)
(1.50304e-09 -2.72536e-08 3.5186e-09)
(-1.22057e-08 -2.65467e-08 3.49627e-09)
(1.73369e-08 -3.23646e-08 4.36773e-09)
(2.06924e-09 -3.54283e-08 4.40675e-09)
(2.24652e-09 -3.61391e-08 4.42105e-09)
(-1.20341e-08 -3.45015e-08 4.41059e-09)
(2.20833e-08 -3.92727e-08 5.06597e-09)
(4.06176e-09 -4.38826e-08 5.10208e-09)
(1.71156e-09 -4.4676e-08 5.11774e-09)
(-1.52791e-08 -4.16429e-08 5.11302e-09)
(3.29504e-08 -5.00184e-08 5.48834e-09)
(8.12897e-09 -5.38081e-08 5.52893e-09)
(-8.25598e-10 -5.46635e-08 5.54539e-09)
(-2.45615e-08 -5.25621e-08 5.5379e-09)
(4.84184e-08 -8.52008e-08 5.61819e-09)
(1.26007e-08 -8.17432e-08 5.67017e-09)
(-3.84591e-09 -8.24102e-08 5.68672e-09)
(-3.84562e-08 -8.72532e-08 5.66821e-09)
)
;

boundaryField
{
    interface
    {
        type            solidTraction;
        traction        uniform (0 0 0);
        pressure        uniform 0;
        secondOrder     false;
        setEffectiveTraction false;
        relaxationFactor 1;
        value           nonuniform List<vector> 
192
(
(8.6502e-08 5.81847e-08 2.82461e-08)
(1.00714e-07 3.62126e-08 5.53344e-08)
(1.0447e-07 1.6005e-08 7.09234e-08)
(1.05714e-07 1.48759e-09 8.33134e-08)
(1.0868e-07 -1.0763e-08 9.56112e-08)
(1.16012e-07 -2.34348e-08 1.09592e-07)
(1.30286e-07 -4.4079e-08 1.26443e-07)
(1.52269e-07 -1.01604e-07 1.43394e-07)
(6.79628e-08 3.09103e-08 2.62686e-09)
(7.82239e-08 1.56305e-08 1.82971e-08)
(8.03936e-08 1.58397e-09 3.28166e-08)
(8.08987e-08 -1.0097e-08 4.4849e-08)
(8.33729e-08 -2.09489e-08 5.60602e-08)
(9.05494e-08 -3.1799e-08 6.76767e-08)
(1.05645e-07 -4.75512e-08 7.91434e-08)
(1.30971e-07 -9.4749e-08 8.5842e-08)
(5.5948e-08 2.02471e-08 8.66917e-10)
(6.37723e-08 4.78611e-09 1.1405e-08)
(6.53006e-08 -8.02781e-09 2.40295e-08)
(6.56658e-08 -1.81425e-08 3.56409e-08)
(6.80928e-08 -2.69999e-08 4.6132e-08)
(7.54393e-08 -3.48688e-08 5.56655e-08)
(9.11287e-08 -4.62159e-08 6.29961e-08)
(1.17317e-07 -8.79552e-08 6.504e-08)
(4.96308e-08 1.63315e-08 1.8583e-09)
(5.60998e-08 3.66876e-10 1.01413e-08)
(5.74913e-08 -1.27884e-08 2.03417e-08)
(5.80389e-08 -2.24261e-08 3.03492e-08)
(6.06708e-08 -2.98685e-08 3.9314e-08)
(6.82456e-08 -3.56169e-08 4.66961e-08)
(8.41505e-08 -4.46852e-08 5.14323e-08)
(1.1029e-07 -8.40361e-08 5.21793e-08)
(4.64768e-08 1.48103e-08 2.17671e-09)
(5.24338e-08 -1.19773e-09 8.73909e-09)
(5.39112e-08 -1.46039e-08 1.64797e-08)
(5.47151e-08 -2.41368e-08 2.42363e-08)
(5.75925e-08 -3.08942e-08 3.11608e-08)
(6.53343e-08 -3.56566e-08 3.65719e-08)
(8.12378e-08 -4.38783e-08 3.97665e-08)
(1.07082e-07 -8.20908e-08 4.02858e-08)
(4.485e-08 1.4177e-08 1.85147e-09)
(5.06826e-08 -1.67248e-09 6.62786e-09)
(5.22975e-08 -1.50695e-08 1.20253e-08)
(5.33122e-08 -2.45515e-08 1.74263e-08)
(5.63738e-08 -3.10745e-08 2.22318e-08)
(6.42068e-08 -3.55454e-08 2.5913e-08)
(8.00388e-08 -4.35645e-08 2.80512e-08)
(1.05602e-07 -8.11813e-08 2.85024e-08)
(4.39965e-08 1.39005e-08 1.20013e-09)
(4.98124e-08 -1.77463e-09 4.09303e-09)
(5.15325e-08 -1.50685e-08 7.27192e-09)
(5.26813e-08 -2.45022e-08 1.04299e-08)
(5.5852e-08 -3.09794e-08 1.32312e-08)
(6.37257e-08 -3.54341e-08 1.53682e-08)
(7.94902e-08 -4.34627e-08 1.66205e-08)
(1.04859e-07 -8.07747e-08 1.69386e-08)
(4.36194e-08 1.37918e-08 4.12297e-10)
(4.94343e-08 -1.77924e-09 1.37967e-09)
(5.12057e-08 -1.49973e-08 2.42864e-09)
(5.24169e-08 -2.44005e-08 3.46552e-09)
(5.56362e-08 -3.08806e-08 4.38375e-09)
(6.35244e-08 -3.5369e-08 5.08442e-09)
(7.92517e-08 -4.34342e-08 5.49883e-09)
(1.04525e-07 -8.0619e-08 5.61339e-09)
(2.84919e-08 6.22045e-08 9.06279e-08)
(4.69387e-08 4.2227e-08 1.15295e-07)
(4.96317e-08 2.25588e-08 1.32357e-07)
(4.9036e-08 7.58109e-09 1.46642e-07)
(4.97595e-08 -5.54995e-09 1.61143e-07)
(5.42053e-08 -1.9552e-08 1.77841e-07)
(6.4836e-08 -4.21141e-08 1.98122e-07)
(8.01381e-08 -1.01536e-07 2.21738e-07)
(2.94861e-09 4.4092e-08 8.15201e-08)
(8.44197e-09 3.18091e-08 1.05502e-07)
(9.8732e-09 1.83386e-08 1.21397e-07)
(9.76103e-09 5.15024e-09 1.34664e-07)
(1.00962e-08 -8.72742e-09 1.48311e-07)
(1.19737e-08 -2.40195e-08 1.64395e-07)
(1.61286e-08 -4.52491e-08 1.85103e-07)
(2.09185e-08 -9.76607e-08 2.1229e-07)
(-2.89644e-09 4.36854e-08 8.05369e-08)
(-7.25314e-09 3.12912e-08 1.04573e-07)
(-7.25812e-09 1.77363e-08 1.20497e-07)
(-5.64144e-09 4.47433e-09 1.33782e-07)
(-4.41321e-09 -9.47234e-09 1.47436e-07)
(-4.67554e-09 -2.48333e-08 1.63515e-07)
(-7.20962e-09 -4.61117e-08 1.84209e-07)
(-1.05184e-08 -9.83136e-08 2.11396e-07)
(-2.75073e-08 6.06072e-08 8.78794e-08)
(-4.45041e-08 4.04984e-08 1.12726e-07)
(-4.57847e-08 2.0684e-08 1.29855e-07)
(-4.36908e-08 5.51649e-09 1.44188e-07)
(-4.28374e-08 -7.80281e-09 1.58711e-07)
(-4.56585e-08 -2.19853e-08 1.75402e-07)
(-5.46631e-08 -4.46759e-08 1.95652e-07)
(-6.84075e-08 -1.03563e-07 2.19315e-07)
(-8.11741e-08 5.58287e-08 2.79759e-08)
(-9.39106e-08 3.37324e-08 5.51693e-08)
(-9.6213e-08 1.33544e-08 7.09638e-08)
(-9.59007e-08 -1.3791e-09 8.35089e-08)
(-9.72263e-08 -1.38353e-08 9.59017e-08)
(-1.02872e-07 -2.66883e-08 1.0993e-07)
(-1.15469e-07 -4.7432e-08 1.26787e-07)
(-1.358e-07 -1.04383e-07 1.43699e-07)
(-6.27013e-08 2.89074e-08 2.82716e-09)
(-7.16626e-08 1.3341e-08 1.87068e-08)
(-7.24839e-08 -9.87841e-10 3.34065e-08)
(-7.14962e-08 -1.2932e-08 4.55828e-08)
(-7.23541e-08 -2.40121e-08 5.68892e-08)
(-7.78319e-08 -3.50601e-08 6.85545e-08)
(-9.12135e-08 -5.0933e-08 8.00292e-08)
(-1.14859e-07 -9.75818e-08 8.67109e-08)
(-5.09012e-08 1.84191e-08 1.04568e-09)
(-5.75053e-08 2.65712e-09 1.17894e-08)
(-5.77557e-08 -1.04858e-08 2.45586e-08)
(-5.66807e-08 -2.09065e-08 3.6283e-08)
(-5.75167e-08 -3.00257e-08 4.68542e-08)
(-6.31582e-08 -3.81201e-08 5.64336e-08)
(-7.70979e-08 -4.96102e-08 6.37794e-08)
(-1.01562e-07 -9.0807e-08 6.582e-08)
(-4.47688e-08 1.46111e-08 1.98632e-09)
(-5.01009e-08 -1.64893e-09 1.0438e-08)
(-5.02756e-08 -1.51471e-08 2.07562e-08)
(-4.94282e-08 -2.51154e-08 3.08528e-08)
(-5.04946e-08 -3.28463e-08 3.98831e-08)
(-5.63669e-08 -3.88444e-08 4.73068e-08)
(-7.05e-08 -4.8073e-08 5.20623e-08)
(-9.4881e-08 -8.68861e-08 5.28116e-08)
(-4.17433e-08 1.31661e-08 2.26443e-09)
(-4.6631e-08 -3.13104e-09 8.95174e-09)
(-4.69432e-08 -1.68849e-08 1.67836e-08)
(-4.63905e-08 -2.67619e-08 2.46098e-08)
(-4.7726e-08 -3.38257e-08 3.15865e-08)
(-5.37735e-08 -3.88553e-08 3.70329e-08)
(-6.78969e-08 -4.72504e-08 4.02466e-08)
(-9.19644e-08 -8.49305e-08 4.07706e-08)
(-4.01973e-08 1.25844e-08 1.90827e-09)
(-4.50072e-08 -3.54723e-09 6.76876e-09)
(-4.54956e-08 -1.72934e-08 1.22304e-08)
(-4.51833e-08 -2.71271e-08 1.76817e-08)
(-4.67233e-08 -3.39678e-08 2.25256e-08)
(-5.28715e-08 -3.87176e-08 2.62339e-08)
(-6.6923e-08 -4.69194e-08 2.8388e-08)
(-9.0702e-08 -8.40086e-08 2.8844e-08)
(-3.93906e-08 1.23393e-08 1.23206e-09)
(-4.42124e-08 -3.61198e-09 4.17309e-09)
(-4.48307e-08 -1.72549e-08 7.38977e-09)
(-4.46728e-08 -2.70443e-08 1.05781e-08)
(-4.63365e-08 -3.38457e-08 1.34031e-08)
(-5.25339e-08 -3.85865e-08 1.55572e-08)
(-6.65197e-08 -4.68038e-08 1.682e-08)
(-9.01022e-08 -8.35915e-08 1.71415e-08)
(-3.9035e-08 1.22453e-08 4.22598e-10)
(-4.38691e-08 -3.59843e-09 1.40561e-09)
(-4.45508e-08 -1.71651e-08 2.46703e-09)
(-4.44656e-08 -2.69258e-08 3.51405e-09)
(-4.61856e-08 -3.37331e-08 4.44029e-09)
(-5.24021e-08 -3.8511e-08 5.14682e-09)
(-6.63523e-08 -4.67677e-08 5.56485e-09)
(-8.98378e-08 -8.34299e-08 5.68063e-09)
(8.04412e-08 -1.80313e-07 1.48063e-07)
(6.57874e-08 -1.66824e-07 8.86218e-08)
(5.57171e-08 -1.56674e-07 6.60139e-08)
(5.14469e-08 -1.50209e-07 5.21634e-08)
(5.01654e-08 -1.46419e-07 3.99884e-08)
(4.99036e-08 -1.44283e-07 2.82546e-08)
(4.98621e-08 -1.43141e-07 1.68083e-08)
(4.98463e-08 -1.42643e-07 5.57586e-09)
(2.12188e-08 -1.71453e-07 1.4361e-07)
(1.70645e-08 -1.5442e-07 9.1228e-08)
(1.35014e-08 -1.43874e-07 7.00546e-08)
(1.20221e-08 -1.38001e-07 5.4928e-08)
(1.17277e-08 -1.34838e-07 4.13901e-08)
(1.17885e-08 -1.33098e-07 2.88618e-08)
(1.18685e-08 -1.32153e-07 1.70454e-08)
(1.1904e-08 -1.31731e-07 5.638e-09)
(-1.02037e-08 -1.71164e-07 1.43653e-07)
(-6.26958e-09 -1.54131e-07 9.14822e-08)
(-3.04995e-09 -1.436e-07 7.02693e-08)
(-1.89972e-09 -1.37734e-07 5.50913e-08)
(-1.87762e-09 -1.34571e-07 4.15105e-08)
(-2.14491e-09 -1.3283e-07 2.8945e-08)
(-2.36302e-09 -1.31883e-07 1.70944e-08)
(-2.46748e-09 -1.31459e-07 5.65417e-09)
(-6.80886e-08 -1.79713e-07 1.4825e-07)
(-5.3727e-08 -1.66176e-07 8.93431e-08)
(-4.39988e-08 -1.56055e-07 6.66284e-08)
(-4.00569e-08 -1.49604e-07 5.26424e-08)
(-3.90527e-08 -1.45813e-07 4.03479e-08)
(-3.90022e-08 -1.43672e-07 2.85052e-08)
(-3.91016e-08 -1.42524e-07 1.69563e-08)
(-3.9156e-08 -1.42022e-07 5.6248e-09)
)
;
        gradient        uniform (0 0 0);
    }
    symmetry
    {
        type            solidSymmetry;
        patchType       symmetry;
        secondOrder     false;
        value           nonuniform List<vector> 
32
(
(9.31986e-09 7.58698e-09 0)
(1.54994e-08 -3.52657e-09 0)
(1.63092e-08 -1.51595e-08 0)
(1.61483e-08 -2.46576e-08 0)
(1.73369e-08 -3.23646e-08 0)
(2.20833e-08 -3.92727e-08 0)
(3.29504e-08 -5.00184e-08 0)
(4.84184e-08 -8.52008e-08 0)
(-4.47427e-10 -1.23447e-09 0)
(9.26282e-10 -8.91949e-09 0)
(1.41139e-09 -1.76652e-08 0)
(1.48437e-09 -2.66274e-08 0)
(2.06924e-09 -3.54283e-08 0)
(4.06176e-09 -4.38826e-08 0)
(8.12897e-09 -5.38081e-08 0)
(1.26007e-08 -8.17432e-08 0)
(4.63411e-10 -1.41572e-09 0)
(-1.50769e-10 -9.31306e-09 0)
(3.92838e-10 -1.81944e-08 0)
(1.50304e-09 -2.72536e-08 0)
(2.24652e-09 -3.61391e-08 0)
(1.71156e-09 -4.4676e-08 0)
(-8.25598e-10 -5.46635e-08 0)
(-3.84591e-09 -8.24102e-08 0)
(-8.55894e-09 6.66833e-09 0)
(-1.3749e-08 -4.84635e-09 0)
(-1.35506e-08 -1.67793e-08 0)
(-1.22057e-08 -2.65467e-08 0)
(-1.20341e-08 -3.45015e-08 0)
(-1.52791e-08 -4.16429e-08 0)
(-2.45615e-08 -5.25621e-08 0)
(-3.84562e-08 -8.72532e-08 0)
)
;
    }
    bottom
    {
        type            fixedDisplacement;
        value           uniform (0 0 0);
    }
}


// ************************************************************************* //
