/*--------------------------------*- C++ -*----------------------------------*\
| =========                 |                                                 |
| \\      /  F ield         | OpenFOAM: The Open Source CFD Toolbox           |
|  \\    /   O peration     | Version:  v1912                                 |
|   \\  /    A nd           | Website:  www.openfoam.com                      |
|    \\/     M anipulation  |                                                 |
\*---------------------------------------------------------------------------*/
FoamFile
{
    version     2.0;
    format      ascii;
    class       volVectorField;
    location    "0.77/solid";
    object      DD;
}
// * * * * * * * * * * * * * * * * * * * * * * * * * * * * * * * * * * * * * //

dimensions      [0 1 0 0 0 0 0];


internalField   nonuniform List<vector> 
256
(
(2.16549e-10 2.27798e-10 2.67143e-10)
(5.11551e-11 1.45823e-10 2.55791e-10)
(-6.60443e-11 1.39929e-10 2.48407e-10)
(-2.12433e-10 2.07301e-10 2.44945e-10)
(4.04307e-10 1.98228e-10 6.27856e-10)
(1.048e-10 1.24361e-10 6.09207e-10)
(-1.38197e-10 1.21989e-10 5.94162e-10)
(-4.1093e-10 1.93746e-10 5.82269e-10)
(4.46049e-10 2.59337e-11 8.85456e-10)
(1.12909e-10 -7.56335e-12 8.59973e-10)
(-1.6754e-10 -4.00921e-12 8.40498e-10)
(-4.73315e-10 4.04193e-11 8.26353e-10)
(4.37025e-10 -1.73067e-10 1.10119e-09)
(9.88768e-11 -1.87732e-10 1.06642e-09)
(-1.81894e-10 -1.78264e-10 1.04378e-09)
(-4.9231e-10 -1.41497e-10 1.03244e-09)
(4.33124e-10 -3.89971e-10 1.31188e-09)
(8.41996e-11 -4.07665e-10 1.26627e-09)
(-2.03437e-10 -3.92597e-10 1.24092e-09)
(-5.24065e-10 -3.42435e-10 1.23492e-09)
(4.71482e-10 -6.54454e-10 1.5393e-09)
(8.38671e-11 -6.78918e-10 1.4845e-09)
(-2.47688e-10 -6.58248e-10 1.45656e-09)
(-6.06294e-10 -5.90908e-10 1.45454e-09)
(5.72096e-10 -1.03957e-09 1.78194e-09)
(1.03281e-10 -1.04672e-09 1.72928e-09)
(-3.21441e-10 -1.01963e-09 1.69869e-09)
(-7.59326e-10 -9.57536e-10 1.6894e-09)
(6.79759e-10 -1.55809e-09 1.96751e-09)
(1.20412e-10 -1.51936e-09 1.93347e-09)
(-4.04724e-10 -1.48247e-09 1.90057e-09)
(-9.28244e-10 -1.44662e-09 1.86861e-09)
(1.4181e-10 8.25929e-11 1.15117e-10)
(3.20938e-11 1.37586e-11 1.27874e-10)
(-3.81784e-11 1.17386e-11 1.24629e-10)
(-1.31525e-10 7.07e-11 1.05529e-10)
(2.72864e-10 4.99031e-13 3.59226e-10)
(6.91714e-11 -6.10134e-11 3.84707e-10)
(-8.16139e-11 -6.02246e-11 3.75796e-10)
(-2.62753e-10 2.19114e-12 3.33276e-10)
(2.99769e-10 -1.57351e-10 5.84797e-10)
(7.42376e-11 -1.84784e-10 6.12872e-10)
(-9.91499e-11 -1.79368e-10 6.00012e-10)
(-3.0219e-10 -1.39781e-10 5.47193e-10)
(2.87242e-10 -3.38033e-10 7.8761e-10)
(6.15269e-11 -3.50495e-10 8.13099e-10)
(-1.07996e-10 -3.39944e-10 7.9736e-10)
(-3.1127e-10 -3.0507e-10 7.41277e-10)
(2.81301e-10 -5.37349e-10 9.81538e-10)
(4.85255e-11 -5.55457e-10 1.00229e-09)
(-1.25545e-10 -5.39719e-10 9.84094e-10)
(-3.35541e-10 -4.89276e-10 9.27713e-10)
(3.20456e-10 -7.69454e-10 1.17472e-09)
(5.03604e-11 -7.96883e-10 1.19041e-09)
(-1.67001e-10 -7.75883e-10 1.1699e-09)
(-4.13649e-10 -7.06112e-10 1.11388e-09)
(4.33221e-10 -1.08629e-09 1.35047e-09)
(7.44822e-11 -1.0937e-09 1.36319e-09)
(-2.41041e-10 -1.06695e-09 1.34067e-09)
(-5.74159e-10 -1.00599e-09 1.28343e-09)
(5.66635e-10 -1.51739e-09 1.44905e-09)
(9.76835e-11 -1.45965e-09 1.46115e-09)
(-3.26662e-10 -1.42444e-09 1.43775e-09)
(-7.64344e-10 -1.41066e-09 1.37902e-09)
(7.71899e-11 2.59818e-11 5.72435e-11)
(1.36668e-11 -2.56144e-11 7.6969e-11)
(-1.57292e-11 -2.71735e-11 7.47691e-11)
(-6.36147e-11 1.39344e-11 5.09862e-11)
(1.54703e-10 -9.92298e-11 2.24885e-10)
(3.28612e-11 -1.4636e-10 2.63007e-10)
(-3.36189e-11 -1.45265e-10 2.56852e-10)
(-1.34237e-10 -9.86796e-11 2.07435e-10)
(1.68536e-10 -2.65693e-10 4.11708e-10)
(3.41208e-11 -2.87541e-10 4.54967e-10)
(-4.03432e-11 -2.82253e-10 4.45674e-10)
(-1.53931e-10 -2.50248e-10 3.85079e-10)
(1.55165e-10 -4.36858e-10 5.93663e-10)
(2.27136e-11 -4.49006e-10 6.36309e-10)
(-4.4371e-11 -4.38976e-10 6.24503e-10)
(-1.56278e-10 -4.0678e-10 5.59449e-10)
(1.50265e-10 -6.121e-10 7.64636e-10)
(1.16447e-11 -6.32453e-10 8.0464e-10)
(-5.85975e-11 -6.17534e-10 7.90646e-10)
(-1.76434e-10 -5.67473e-10 7.23737e-10)
(1.92381e-10 -8.01726e-10 9.18096e-10)
(1.57912e-11 -8.32729e-10 9.5473e-10)
(-9.78467e-11 -8.12856e-10 9.38772e-10)
(-2.5291e-10 -7.42454e-10 8.71153e-10)
(3.13202e-10 -1.05535e-09 1.03148e-09)
(4.37696e-11 -1.06536e-09 1.06432e-09)
(-1.71809e-10 -1.04015e-09 1.0469e-09)
(-4.17263e-10 -9.80028e-10 9.79785e-10)
(4.58714e-10 -1.41974e-09 1.0641e-09)
(7.13219e-11 -1.35926e-09 1.09357e-09)
(-2.58151e-10 -1.32602e-09 1.07592e-09)
(-6.15528e-10 -1.31889e-09 1.01106e-09)
(4.54809e-11 3.51432e-12 4.39442e-11)
(4.75442e-12 -3.57243e-11 5.81567e-11)
(-4.90154e-12 -3.75466e-11 5.65189e-11)
(-2.99003e-11 -9.98019e-12 3.94013e-11)
(9.58815e-11 -1.39294e-10 1.71048e-10)
(1.47517e-11 -1.7652e-10 1.98122e-10)
(-8.97996e-12 -1.76182e-10 1.93683e-10)
(-6.89002e-11 -1.41895e-10 1.58672e-10)
(1.04575e-10 -3.13252e-10 3.1973e-10)
(1.48418e-11 -3.31879e-10 3.5001e-10)
(-9.47015e-12 -3.27627e-10 3.43237e-10)
(-7.85456e-11 -3.01724e-10 3.00561e-10)
(9.41657e-11 -4.78928e-10 4.70519e-10)
(5.79832e-12 -4.91866e-10 4.99791e-10)
(-1.09081e-11 -4.83068e-10 4.91005e-10)
(-7.90146e-11 -4.53195e-10 4.45285e-10)
(9.37953e-11 -6.34558e-10 6.1023e-10)
(-2.36795e-12 -6.57302e-10 6.37092e-10)
(-2.35238e-11 -6.43782e-10 6.26498e-10)
(-9.92177e-11 -5.94589e-10 5.79458e-10)
(1.40168e-10 -7.92584e-10 7.25512e-10)
(4.26925e-12 -8.2662e-10 7.49709e-10)
(-6.12857e-11 -8.08307e-10 7.37535e-10)
(-1.75896e-10 -7.3826e-10 6.89815e-10)
(2.63539e-10 -1.00833e-09 7.96559e-10)
(3.39789e-11 -1.02271e-09 8.18208e-10)
(-1.33465e-10 -9.9919e-10 8.04956e-10)
(-3.39115e-10 -9.38172e-10 7.57222e-10)
(4.0955e-10 -1.33977e-09 8.02007e-10)
(6.2842e-11 -1.28714e-09 8.22536e-10)
(-2.17826e-10 -1.25557e-09 8.0926e-10)
(-5.34431e-10 -1.244e-09 7.61922e-10)
(3.4163e-11 -4.87885e-12 3.74965e-11)
(2.29229e-12 -3.79267e-11 4.4906e-11)
(-1.43115e-12 -4.00284e-11 4.37256e-11)
(-1.73314e-11 -1.95494e-11 3.42735e-11)
(7.58343e-11 -1.51155e-10 1.35158e-10)
(9.98645e-12 -1.83794e-10 1.48778e-10)
(-3.78586e-13 -1.84291e-10 1.45633e-10)
(-4.47586e-11 -1.56642e-10 1.26502e-10)
(8.49154e-11 -3.25713e-10 2.47718e-10)
(1.10144e-11 -3.43583e-10 2.62199e-10)
(1.67102e-12 -3.4047e-10 2.57392e-10)
(-5.1411e-11 -3.17948e-10 2.34253e-10)
(7.88363e-11 -4.86307e-10 3.62769e-10)
(4.64023e-12 -5.00753e-10 3.75743e-10)
(1.27568e-12 -4.93251e-10 3.69438e-10)
(-5.25697e-11 -4.6475e-10 3.448e-10)
(8.34587e-11 -6.2935e-10 4.67829e-10)
(-6.50192e-13 -6.54271e-10 4.78611e-10)
(-1.06172e-11 -6.4214e-10 4.70924e-10)
(-7.41854e-11 -5.93751e-10 4.4562e-10)
(1.33296e-10 -7.6998e-10 5.49783e-10)
(8.04876e-12 -8.06276e-10 5.58597e-10)
(-4.71403e-11 -7.89402e-10 5.4971e-10)
(-1.50987e-10 -7.2009e-10 5.23799e-10)
(2.56454e-10 -9.6843e-10 5.94603e-10)
(3.83332e-11 -9.86483e-10 6.02129e-10)
(-1.16917e-10 -9.64388e-10 5.92451e-10)
(-3.10929e-10 -9.02589e-10 5.65886e-10)
(3.99688e-10 -1.28565e-09 5.92804e-10)
(6.73247e-11 -1.24109e-09 6.00599e-10)
(-1.98654e-10 -1.21085e-09 5.90936e-10)
(-5.00637e-10 -1.19387e-09 5.63573e-10)
(3.10048e-11 -7.62469e-12 2.91277e-11)
(2.2508e-12 -3.8107e-11 3.2364e-11)
(-8.3905e-13 -4.04099e-11 3.15739e-11)
(-1.34134e-11 -2.30925e-11 2.6993e-11)
(7.14853e-11 -1.5178e-10 9.92478e-11)
(1.04269e-11 -1.82978e-10 1.04744e-10)
(1.45903e-12 -1.84112e-10 1.02651e-10)
(-3.78868e-11 -1.59366e-10 9.35414e-11)
(8.28381e-11 -3.22949e-10 1.77803e-10)
(1.30176e-11 -3.41352e-10 1.82968e-10)
(4.22631e-12 -3.3915e-10 1.79766e-10)
(-4.45932e-11 -3.18076e-10 1.68905e-10)
(8.05934e-11 -4.78655e-10 2.57474e-10)
(8.87594e-12 -4.94694e-10 2.61185e-10)
(4.1854e-12 -4.88243e-10 2.5696e-10)
(-4.70488e-11 -4.60388e-10 2.45508e-10)
(8.90476e-11 -6.14614e-10 3.29233e-10)
(5.78663e-12 -6.41239e-10 3.31279e-10)
(-7.26848e-12 -6.3022e-10 3.26092e-10)
(-6.98731e-11 -5.82455e-10 3.14315e-10)
(1.41114e-10 -7.47548e-10 3.83419e-10)
(1.59378e-11 -7.8532e-10 3.84191e-10)
(-4.27289e-11 -7.69564e-10 3.78165e-10)
(-1.46373e-10 -7.01078e-10 3.6585e-10)
(2.63421e-10 -9.39564e-10 4.11274e-10)
(4.64492e-11 -9.59895e-10 4.11492e-10)
(-1.10421e-10 -9.38866e-10 4.04918e-10)
(-3.03115e-10 -8.76965e-10 3.91786e-10)
(4.04008e-10 -1.25035e-09 4.08707e-10)
(7.53666e-11 -1.21104e-09 4.09467e-10)
(-1.89973e-10 -1.18176e-09 4.02907e-10)
(-4.8802e-10 -1.16149e-09 3.88858e-10)
(3.03013e-11 -8.24257e-12 1.84182e-11)
(2.63912e-12 -3.77534e-11 1.9666e-11)
(-9.39535e-13 -4.01838e-11 1.92139e-11)
(-1.22794e-11 -2.42015e-11 1.72044e-11)
(7.13993e-11 -1.49247e-10 6.07567e-11)
(1.16967e-11 -1.80238e-10 6.26179e-11)
(1.4691e-12 -1.81783e-10 6.14218e-11)
(-3.63468e-11 -1.58159e-10 5.75144e-11)
(8.47724e-11 -3.16546e-10 1.07093e-10)
(1.55403e-11 -3.3572e-10 1.08432e-10)
(4.35609e-12 -3.34122e-10 1.066e-10)
(-4.37362e-11 -3.13556e-10 1.02028e-10)
(8.51217e-11 -4.68461e-10 1.53585e-10)
(1.28884e-11 -4.85712e-10 1.53941e-10)
(4.44519e-12 -4.7997e-10 1.51515e-10)
(-4.71955e-11 -4.52384e-10 1.46746e-10)
(9.59643e-11 -6.00785e-10 1.95025e-10)
(1.11968e-11 -6.28534e-10 1.94378e-10)
(-6.69217e-12 -6.18265e-10 1.91388e-10)
(-7.07064e-11 -5.70932e-10 1.86454e-10)
(1.49296e-10 -7.30872e-10 2.25805e-10)
(2.22509e-11 -7.69489e-10 2.24464e-10)
(-4.13751e-11 -7.54479e-10 2.20979e-10)
(-1.46788e-10 -6.86684e-10 2.15666e-10)
(2.70934e-10 -9.20908e-10 2.41216e-10)
(5.29117e-11 -9.42412e-10 2.39664e-10)
(-1.0765e-10 -9.22084e-10 2.35855e-10)
(-3.01277e-10 -8.6045e-10 2.29936e-10)
(4.09757e-10 -1.22863e-09 2.39471e-10)
(8.17865e-11 -1.1921e-09 2.38301e-10)
(-1.8574e-10 -1.16345e-09 2.34501e-10)
(-4.82973e-10 -1.14169e-09 2.27972e-10)
(3.01725e-11 -8.25644e-12 6.2917e-12)
(2.87544e-12 -3.74401e-11 6.61168e-12)
(-1.05318e-12 -3.99324e-11 6.46466e-12)
(-1.19563e-11 -2.44495e-11 5.8981e-12)
(7.17714e-11 -1.47257e-10 2.04533e-11)
(1.24352e-11 -1.7831e-10 2.08751e-11)
(1.30555e-12 -1.80053e-10 2.04862e-11)
(-3.60542e-11 -1.56806e-10 1.94021e-11)
(8.6201e-11 -3.12223e-10 3.57594e-11)
(1.69193e-11 -3.31871e-10 3.59638e-11)
(4.19631e-12 -3.30568e-10 3.53676e-11)
(-4.38712e-11 -3.10151e-10 3.4116e-11)
(8.78085e-11 -4.62109e-10 5.10137e-11)
(1.49897e-11 -4.7999e-10 5.08771e-11)
(4.3403e-12 -4.74599e-10 5.00867e-11)
(-4.78247e-11 -4.47113e-10 4.87902e-11)
(9.97678e-11 -5.92905e-10 6.45351e-11)
(1.39631e-11 -6.21201e-10 6.40675e-11)
(-6.6218e-12 -6.11306e-10 6.30914e-11)
(-7.16184e-11 -5.64199e-10 6.17416e-11)
(1.5367e-10 -7.22138e-10 7.45115e-11)
(2.54498e-11 -7.61132e-10 7.38254e-11)
(-4.08994e-11 -7.46493e-10 7.26859e-11)
(-1.47432e-10 -6.79085e-10 7.11991e-11)
(2.74978e-10 -9.11694e-10 7.94615e-11)
(5.61988e-11 -9.33676e-10 7.87223e-11)
(-1.06474e-10 -9.13696e-10 7.74752e-11)
(-3.00799e-10 -8.52298e-10 7.57706e-11)
(4.1295e-10 -1.21816e-09 7.88622e-11)
(8.50635e-11 -1.18279e-09 7.8253e-11)
(-1.83842e-10 -1.15445e-09 7.70086e-11)
(-4.80918e-10 -1.13216e-09 7.50977e-11)
)
;

boundaryField
{
    interface
    {
        type            calculated;
        value           nonuniform List<vector> 
192
(
(2.5984e-10 3.83012e-10 2.44125e-10)
(4.49889e-10 2.55602e-10 5.87155e-10)
(4.946e-10 3.41122e-11 8.40947e-10)
(4.89368e-10 -1.76299e-10 1.05706e-09)
(4.86606e-10 -3.81358e-10 1.26887e-09)
(5.21122e-10 -6.19712e-10 1.49809e-09)
(6.20499e-10 -9.87502e-10 1.74442e-09)
(7.36733e-10 -1.52865e-09 1.93548e-09)
(1.59739e-10 1.86261e-10 8.02778e-11)
(2.97011e-10 3.99884e-11 2.96826e-10)
(3.25029e-10 -1.53758e-10 5.1542e-10)
(3.13254e-10 -3.42651e-10 7.17145e-10)
(3.06368e-10 -5.29046e-10 9.10823e-10)
(3.41427e-10 -7.31474e-10 1.10494e-09)
(4.57448e-10 -1.02474e-09 1.28575e-09)
(6.15911e-10 -1.48254e-09 1.39379e-09)
(8.10591e-11 8.3955e-11 3.31617e-11)
(1.67972e-10 -7.63939e-11 1.80641e-10)
(1.83814e-10 -2.65579e-10 3.6291e-10)
(1.71365e-10 -4.41427e-10 5.45395e-10)
(1.6646e-10 -6.02797e-10 7.1776e-10)
(2.07024e-10 -7.60993e-10 8.73024e-10)
(3.35101e-10 -9.88766e-10 9.89063e-10)
(5.105e-10 -1.38131e-09 1.02483e-09)
(4.32317e-11 3.88549e-11 3.31878e-11)
(1.06056e-10 -1.24521e-10 1.51332e-10)
(1.17871e-10 -3.13682e-10 2.98826e-10)
(1.0916e-10 -4.81624e-10 4.51438e-10)
(1.10054e-10 -6.23058e-10 5.93528e-10)
(1.57154e-10 -7.50149e-10 7.10741e-10)
(2.90669e-10 -9.40989e-10 7.82372e-10)
(4.67193e-10 -1.29987e-09 7.87251e-10)
(2.84808e-11 2.26205e-11 3.38777e-11)
(8.3195e-11 -1.38468e-10 1.2906e-10)
(9.60371e-11 -3.24963e-10 2.42284e-10)
(9.23756e-11 -4.86673e-10 3.59377e-10)
(9.92705e-11 -6.15736e-10 4.66643e-10)
(1.51303e-10 -7.26732e-10 5.5002e-10)
(2.86205e-10 -9.01832e-10 5.94574e-10)
(4.59498e-10 -1.24534e-09 5.91419e-10)
(2.36834e-11 1.79979e-11 2.81625e-11)
(7.70411e-11 -1.38822e-10 9.81394e-11)
(9.2501e-11 -3.20673e-10 1.77768e-10)
(9.32199e-11 -4.77104e-10 2.59045e-10)
(1.04662e-10 -5.99485e-10 3.3236e-10)
(1.59816e-10 -7.03956e-10 3.87419e-10)
(2.94679e-10 -8.73841e-10 4.14894e-10)
(4.64607e-10 -1.21004e-09 4.11224e-10)
(2.23728e-11 1.71826e-11 1.82103e-11)
(7.61246e-11 -1.3563e-10 6.08284e-11)
(9.37984e-11 -3.13117e-10 1.07934e-10)
(9.74645e-11 -4.65664e-10 1.55389e-10)
(1.11741e-10 -5.84742e-10 1.97705e-10)
(1.6866e-10 -6.87131e-10 2.28944e-10)
(3.03241e-10 -8.55793e-10 2.44105e-10)
(4.70835e-10 -1.18844e-09 2.41706e-10)
(2.20811e-11 1.72296e-11 6.25954e-12)
(7.62137e-11 -1.3325e-10 2.05464e-11)
(9.50339e-11 -3.08214e-10 3.61167e-11)
(1.00129e-10 -4.58718e-10 5.16854e-11)
(1.15734e-10 -5.76441e-10 6.5486e-11)
(1.73447e-10 -6.78336e-10 7.5605e-11)
(3.07852e-10 -8.46875e-10 8.04727e-11)
(4.74299e-10 -1.17806e-09 7.96603e-11)
(2.25218e-10 4.51547e-10 2.82889e-10)
(4.19992e-10 3.52806e-10 6.42046e-10)
(4.61931e-10 1.44268e-10 9.02542e-10)
(4.50395e-10 -6.64612e-11 1.12296e-09)
(4.43225e-10 -2.80444e-10 1.33503e-09)
(4.78388e-10 -5.36939e-10 1.55693e-09)
(5.7769e-10 -9.32516e-10 1.79371e-09)
(6.87266e-10 -1.50301e-09 1.98213e-09)
(4.64694e-11 3.62073e-10 2.57659e-10)
(9.6373e-11 2.75407e-10 6.05063e-10)
(1.01666e-10 1.06741e-10 8.52463e-10)
(8.45203e-11 -8.61553e-11 1.05795e-09)
(6.64592e-11 -3.03144e-10 1.25456e-09)
(6.31812e-11 -5.63165e-10 1.46369e-09)
(8.24676e-11 -9.3448e-10 1.70422e-09)
(1.03676e-10 -1.46125e-09 1.92815e-09)
(-6.87581e-11 3.50571e-10 2.4066e-10)
(-1.44935e-10 2.70013e-10 5.82052e-10)
(-1.75949e-10 1.08395e-10 8.24944e-10)
(-1.90394e-10 -7.81568e-11 1.02692e-09)
(-2.11278e-10 -2.894e-10 1.22049e-09)
(-2.5518e-10 -5.43806e-10 1.42677e-09)
(-3.31412e-10 -9.08632e-10 1.66438e-09)
(-4.20939e-10 -1.42484e-09 1.8852e-09)
(-2.27077e-10 4.14104e-10 2.31854e-10)
(-4.396e-10 3.39099e-10 5.70337e-10)
(-5.06561e-10 1.52963e-10 8.16459e-10)
(-5.26272e-10 -3.93535e-11 1.02615e-09)
(-5.57494e-10 -2.36906e-10 1.22915e-09)
(-6.3908e-10 -4.77286e-10 1.44257e-09)
(-7.93287e-10 -8.54018e-10 1.67102e-09)
(-9.66215e-10 -1.39288e-09 1.85203e-09)
(-1.95899e-10 3.63141e-10 2.17394e-10)
(-3.9692e-10 2.58967e-10 5.30886e-10)
(-4.61111e-10 6.07657e-11 7.66945e-10)
(-4.8241e-10 -1.28807e-10 9.70191e-10)
(-5.1377e-10 -3.13937e-10 1.17107e-09)
(-5.90461e-10 -5.32091e-10 1.38999e-09)
(-7.39358e-10 -8.77046e-10 1.62613e-09)
(-9.11545e-10 -1.38434e-09 1.80865e-09)
(-9.38977e-11 1.69269e-10 6.8324e-11)
(-2.32208e-10 4.48578e-11 2.64101e-10)
(-2.72151e-10 -1.27651e-10 4.67345e-10)
(-2.8086e-10 -2.9673e-10 6.57268e-10)
(-3.02892e-10 -4.6368e-10 8.40803e-10)
(-3.75363e-10 -6.46455e-10 1.02553e-09)
(-5.36163e-10 -9.18317e-10 1.19792e-09)
(-7.44742e-10 -1.34497e-09 1.30083e-09)
(-1.38749e-11 6.33971e-11 2.55793e-11)
(-9.50882e-11 -7.61002e-11 1.5897e-10)
(-1.16341e-10 -2.44736e-10 3.29166e-10)
(-1.18642e-10 -4.01152e-10 5.01384e-10)
(-1.37512e-10 -5.43313e-10 6.64654e-10)
(-2.10756e-10 -6.82245e-10 8.11713e-10)
(-3.79264e-10 -8.89372e-10 9.21022e-10)
(-6.00632e-10 -1.25161e-09 9.53579e-10)
(2.52298e-11 1.47198e-11 2.78299e-11)
(-2.7513e-11 -1.29734e-10 1.36301e-10)
(-3.99504e-11 -2.99195e-10 2.7493e-10)
(-4.11767e-11 -4.48025e-10 4.19357e-10)
(-6.13549e-11 -5.70367e-10 5.53894e-10)
(-1.37003e-10 -6.78284e-10 6.64332e-10)
(-3.07077e-10 -8.48537e-10 7.30637e-10)
(-5.2618e-10 -1.17696e-09 7.33198e-10)
(4.08816e-11 -4.02699e-12 3.01512e-11)
(-9.78183e-13 -1.48122e-10 1.18748e-10)
(-1.11207e-11 -3.15995e-10 2.25763e-10)
(-1.38184e-11 -4.59055e-10 3.36807e-10)
(-3.6411e-11 -5.69146e-10 4.38283e-10)
(-1.13581e-10 -6.60902e-10 5.16418e-10)
(-2.81878e-10 -8.15174e-10 5.56885e-10)
(-4.94945e-10 -1.1278e-09 5.51969e-10)
(4.62523e-11 -1.02676e-11 2.57296e-11)
(7.5048e-12 -1.51571e-10 9.14377e-11)
(-3.06964e-12 -3.15784e-10 1.66986e-10)
(-7.6816e-12 -4.54067e-10 2.44163e-10)
(-3.21964e-11 -5.57622e-10 3.13444e-10)
(-1.09916e-10 -6.42766e-10 3.64799e-10)
(-2.7577e-10 -7.91552e-10 3.89372e-10)
(-4.8334e-10 -1.09647e-09 3.84441e-10)
(4.78993e-11 -1.2045e-11 1.68399e-11)
(9.75521e-12 -1.50295e-10 5.70558e-11)
(-1.71335e-12 -3.10843e-10 1.01847e-10)
(-7.69534e-12 -4.4564e-10 1.46939e-10)
(-3.33376e-11 -5.46032e-10 1.8689e-10)
(-1.11116e-10 -6.29039e-10 2.1593e-10)
(-2.75083e-10 -7.76401e-10 2.29357e-10)
(-4.7889e-10 -1.07749e-09 2.26196e-10)
(4.83412e-11 -1.2447e-11 5.81726e-12)
(1.02762e-11 -1.48827e-10 1.93288e-11)
(-1.71534e-12 -3.07207e-10 3.41496e-11)
(-8.36219e-12 -4.40175e-10 4.89474e-11)
(-3.44961e-11 -5.39295e-10 6.19695e-11)
(-1.12222e-10 -6.21788e-10 7.13601e-11)
(-2.75212e-10 -7.68924e-10 7.56509e-11)
(-4.77158e-10 -1.0684e-09 7.4584e-11)
(6.84796e-10 -1.57371e-09 1.98487e-09)
(5.69625e-10 -1.5309e-09 1.41446e-09)
(4.62808e-10 -1.4404e-09 1.01969e-09)
(4.1634e-10 -1.36838e-09 7.68486e-10)
(4.08706e-10 -1.31703e-09 5.70448e-10)
(4.14336e-10 -1.28253e-09 3.9445e-10)
(4.20719e-10 -1.26121e-09 2.31423e-10)
(4.24155e-10 -1.25098e-09 7.62446e-11)
(1.01507e-10 -1.515e-09 1.9476e-09)
(7.44443e-11 -1.43628e-09 1.42112e-09)
(4.78917e-11 -1.34129e-09 1.05044e-09)
(4.17911e-11 -1.28016e-09 7.92993e-10)
(4.86214e-11 -1.23991e-09 5.81575e-10)
(5.82177e-11 -1.21273e-09 3.97219e-10)
(6.54909e-11 -1.19531e-09 2.31239e-10)
(6.91345e-11 -1.18668e-09 7.59246e-11)
(-4.2291e-10 -1.46794e-09 1.91487e-09)
(-3.38911e-10 -1.39157e-09 1.39864e-09)
(-2.68246e-10 -1.29868e-09 1.03371e-09)
(-2.28613e-10 -1.23926e-09 7.80467e-10)
(-2.10461e-10 -1.20032e-09 5.72482e-10)
(-2.02362e-10 -1.17409e-09 3.91058e-10)
(-1.98347e-10 -1.15729e-09 2.27673e-10)
(-1.96502e-10 -1.14897e-09 7.47576e-11)
(-9.68348e-10 -1.43072e-09 1.88649e-09)
(-8.00638e-10 -1.39335e-09 1.34708e-09)
(-6.50956e-10 -1.30877e-09 9.69392e-10)
(-5.70849e-10 -1.24181e-09 7.30668e-10)
(-5.37922e-10 -1.19441e-09 5.42947e-10)
(-5.25601e-10 -1.16276e-09 3.75811e-10)
(-5.20519e-10 -1.14328e-09 2.20639e-10)
(-5.18376e-10 -1.13395e-09 7.27163e-11)
)
;
    }
    symmetry
    {
        type            symmetry;
    }
    bottom
    {
        type            calculated;
        value           uniform (0 0 0);
    }
}


// ************************************************************************* //
