/*--------------------------------*- C++ -*----------------------------------*\
| =========                 |                                                 |
| \\      /  F ield         | OpenFOAM: The Open Source CFD Toolbox           |
|  \\    /   O peration     | Version:  v1912                                 |
|   \\  /    A nd           | Website:  www.openfoam.com                      |
|    \\/     M anipulation  |                                                 |
\*---------------------------------------------------------------------------*/
FoamFile
{
    version     2.0;
    format      ascii;
    class       volSymmTensorField;
    location    "0.77/solid";
    object      epsilon;
}
// * * * * * * * * * * * * * * * * * * * * * * * * * * * * * * * * * * * * * //

dimensions      [0 0 0 0 0 0 0];


internalField   nonuniform List<symmTensor> 
256
(
(-2.83226e-06 2.06424e-07 -7.58676e-08 1.4247e-06 2.35543e-07 -2.89136e-06)
(-6.3568e-07 -3.76441e-08 -3.22851e-08 8.88988e-07 2.33213e-07 -2.5535e-06)
(-6.17563e-07 3.24213e-08 3.05184e-08 8.70916e-07 2.3335e-07 -2.51462e-06)
(-2.63977e-06 -2.00498e-07 7.47227e-08 1.35876e-06 2.3632e-07 -2.78153e-06)
(-2.93142e-06 1.73925e-09 -1.16665e-07 -4.88908e-07 3.3664e-08 -2.94877e-06)
(-1.09069e-06 -3.46412e-08 -5.36951e-08 -2.38425e-07 4.42832e-08 -2.575e-06)
(-1.06634e-06 3.58087e-08 5.19192e-08 -2.43634e-07 4.51566e-08 -2.53677e-06)
(-2.73041e-06 -4.76907e-10 1.15199e-07 -4.9735e-07 3.6137e-08 -2.84149e-06)
(-3.00043e-06 -3.00002e-08 -1.26037e-07 -6.01171e-07 1.4241e-09 -3.01447e-06)
(-1.14669e-06 -3.22403e-08 -5.91854e-08 -4.41497e-07 3.24475e-09 -2.59089e-06)
(-1.12248e-06 3.45556e-08 5.78339e-08 -4.44369e-07 3.83315e-09 -2.55166e-06)
(-2.79594e-06 3.08259e-08 1.24642e-07 -6.07008e-07 3.13785e-09 -2.90384e-06)
(-3.06077e-06 -2.03965e-08 -1.31087e-07 -5.6024e-07 9.69482e-09 -3.09542e-06)
(-1.10722e-06 -2.47563e-08 -6.18424e-08 -5.37777e-07 6.66383e-09 -2.63885e-06)
(-1.08305e-06 2.64856e-08 6.07033e-08 -5.4008e-07 6.96532e-09 -2.59867e-06)
(-2.85244e-06 2.11766e-08 1.29763e-07 -5.66297e-07 1.06364e-08 -2.98195e-06)
(-3.1535e-06 -2.20331e-09 -1.36424e-07 -5.82466e-07 3.14073e-08 -3.20403e-06)
(-1.10295e-06 -1.25087e-08 -6.47976e-08 -6.25911e-07 2.69916e-08 -2.72558e-06)
(-1.07847e-06 1.33931e-08 6.36971e-08 -6.28165e-07 2.71169e-08 -2.68462e-06)
(-2.94135e-06 2.70387e-09 1.35143e-07 -5.88443e-07 3.18292e-08 -3.08841e-06)
(-3.31613e-06 3.3025e-08 -1.41008e-07 -7.80982e-07 7.1347e-08 -3.35981e-06)
(-1.20381e-06 9.8475e-09 -6.75646e-08 -7.90345e-07 6.86486e-08 -2.86897e-06)
(-1.1791e-06 -1.03789e-08 6.64134e-08 -7.92202e-07 6.86398e-08 -2.82728e-06)
(-3.10079e-06 -3.31609e-08 1.39767e-07 -7.85784e-07 7.136e-08 -3.24231e-06)
(-3.59257e-06 9.5646e-08 -1.3939e-07 -1.59371e-06 1.32237e-07 -3.6091e-06)
(-1.471e-06 4.46322e-08 -6.70379e-08 -1.43147e-06 1.38186e-07 -3.13613e-06)
(-1.44614e-06 -4.7774e-08 6.57744e-08 -1.42784e-06 1.38001e-07 -3.09374e-06)
(-3.37485e-06 -9.66784e-08 1.3818e-07 -1.58436e-06 1.31774e-07 -3.49009e-06)
(-4.0816e-06 1.26258e-07 -1.25913e-07 -4.09271e-06 1.58525e-07 -4.09078e-06)
(-1.83745e-06 6.10421e-08 -6.07727e-08 -3.74227e-06 1.72883e-07 -3.73943e-06)
(-1.81102e-06 -5.93757e-08 5.93394e-08 -3.6999e-06 1.72639e-07 -3.69734e-06)
(-3.85863e-06 -1.24862e-07 1.2469e-07 -3.97528e-06 1.57949e-07 -3.9744e-06)
(-2.29497e-06 1.23985e-07 -5.89626e-08 6.03116e-07 2.1871e-08 -5.57009e-07)
(-4.26996e-07 -5.93334e-08 -1.91987e-08 1.6043e-07 1.1509e-07 -4.64473e-07)
(-4.09493e-07 5.87714e-08 2.12233e-08 1.45888e-07 1.18336e-07 -4.61216e-07)
(-2.10525e-06 -1.16473e-07 5.96455e-08 5.46848e-07 3.11473e-08 -5.48778e-07)
(-2.37187e-06 -1.30992e-08 -9.14022e-08 -3.36841e-07 4.34873e-08 -8.94611e-07)
(-7.44673e-07 -3.85403e-08 -3.85416e-08 -1.34858e-07 9.2588e-08 -7.50475e-07)
(-7.21944e-07 4.09305e-08 4.14656e-08 -1.42281e-07 9.44669e-08 -7.46449e-07)
(-2.17815e-06 1.45565e-08 9.22323e-08 -3.5104e-07 4.895e-08 -8.84269e-07)
(-2.40733e-06 -3.15107e-08 -9.62881e-08 -4.4885e-07 3.74938e-08 -9.5672e-07)
(-7.71249e-07 -3.14313e-08 -4.21441e-08 -3.18917e-07 5.29229e-08 -7.95974e-07)
(-7.49132e-07 3.31926e-08 4.56022e-08 -3.22892e-07 5.41171e-08 -7.92342e-07)
(-2.21128e-06 3.19508e-08 9.7224e-08 -4.57615e-07 4.10548e-08 -9.47257e-07)
(-2.44531e-06 -2.14912e-08 -9.78657e-08 -4.79421e-07 4.08719e-08 -9.74042e-07)
(-7.25371e-07 -2.39971e-08 -4.25187e-08 -4.66808e-07 4.28284e-08 -8.02313e-07)
(-7.03415e-07 2.48405e-08 4.63727e-08 -4.69423e-07 4.35665e-08 -7.98931e-07)
(-2.24547e-06 2.18672e-08 9.89311e-08 -4.8645e-07 4.3111e-08 -9.65199e-07)
(-2.52456e-06 -3.95246e-09 -1.00615e-07 -5.19951e-07 6.99929e-08 -1.01172e-06)
(-7.15559e-07 -1.27397e-08 -4.40873e-08 -5.67895e-07 6.76196e-08 -8.29991e-07)
(-6.93203e-07 1.28867e-08 4.81073e-08 -5.70221e-07 6.80011e-08 -8.26672e-07)
(-2.32013e-06 4.19069e-09 1.01777e-07 -5.26299e-07 7.11439e-08 -1.00307e-06)
(-2.68586e-06 3.26658e-08 -1.0298e-07 -6.52636e-07 1.17557e-07 -1.10276e-06)
(-8.12055e-07 9.38671e-09 -4.60106e-08 -6.62527e-07 1.14268e-07 -9.12659e-07)
(-7.89253e-07 -1.04199e-08 4.99965e-08 -6.64497e-07 1.14351e-07 -9.09316e-07)
(-2.47676e-06 -3.29153e-08 1.04208e-07 -6.5786e-07 1.17779e-07 -1.09409e-06)
(-2.99075e-06 1.0177e-07 -1.01435e-07 -1.28878e-06 1.5515e-07 -1.29571e-06)
(-1.08451e-06 4.62245e-08 -4.58642e-08 -1.10438e-06 1.54697e-07 -1.10771e-06)
(-1.06128e-06 -4.97042e-08 4.96775e-08 -1.10107e-06 1.54517e-07 -1.10424e-06)
(-2.77756e-06 -1.0284e-07 1.02706e-07 -1.28018e-06 1.54605e-07 -1.28682e-06)
(-3.5946e-06 1.39597e-07 -9.51111e-08 -3.61082e-06 1.33046e-07 -1.59475e-06)
(-1.47128e-06 6.71794e-08 -4.40569e-08 -3.1393e-06 1.38858e-07 -1.42937e-06)
(-1.44628e-06 -6.57675e-08 4.7788e-08 -3.09642e-06 1.3867e-07 -1.42558e-06)
(-3.37543e-06 -1.38263e-07 9.64508e-08 -3.49017e-06 1.32561e-07 -1.58515e-06)
(-1.96144e-06 6.75768e-08 -2.4403e-08 2.70841e-07 9.27829e-08 -7.06619e-08)
(-2.77667e-07 -8.39612e-08 -3.1805e-09 -9.69074e-08 1.82532e-07 -7.42709e-08)
(-2.60722e-07 8.32067e-08 4.22617e-09 -1.09991e-07 1.84435e-07 -7.48108e-08)
(-1.77794e-06 -6.04173e-08 2.45984e-08 2.19212e-07 9.8634e-08 -7.2137e-08)
(-2.04939e-06 -2.14742e-08 -3.67216e-08 -3.9095e-07 1.14581e-07 -2.53308e-07)
(-4.86405e-07 -4.34991e-08 -1.01613e-08 -2.23622e-07 1.6037e-07 -2.61457e-07)
(-4.64359e-07 4.6022e-08 1.16102e-08 -2.31219e-07 1.6182e-07 -2.62184e-07)
(-1.86148e-06 2.29628e-08 3.70477e-08 -4.05835e-07 1.18987e-07 -2.55298e-07)
(-2.08179e-06 -3.02997e-08 -3.64018e-08 -4.15291e-07 1.05158e-07 -3.49193e-07)
(-4.91159e-07 -3.04961e-08 -1.06414e-08 -3.13137e-07 1.19846e-07 -3.59281e-07)
(-4.69781e-07 3.21966e-08 1.21879e-08 -3.17609e-07 1.20937e-07 -3.60358e-07)
(-1.89153e-06 3.0701e-08 3.67768e-08 -4.2552e-07 1.08438e-07 -3.52115e-07)
(-2.11627e-06 -2.09823e-08 -3.48832e-08 -4.11431e-07 9.87209e-08 -3.94453e-07)
(-4.44124e-07 -2.34467e-08 -9.4332e-09 -4.09926e-07 1.00834e-07 -4.04321e-07)
(-4.22933e-07 2.40326e-08 1.11028e-08 -4.12941e-07 1.01602e-07 -4.05731e-07)
(-1.92213e-06 2.12587e-08 3.53133e-08 -4.19656e-07 1.01018e-07 -3.98256e-07)
(-2.19483e-06 -4.30848e-09 -3.44652e-08 -4.20773e-07 1.11838e-07 -4.43878e-07)
(-4.33915e-07 -1.3334e-08 -9.18318e-09 -4.72313e-07 1.10073e-07 -4.52248e-07)
(-4.12255e-07 1.31492e-08 1.09266e-08 -4.74915e-07 1.10536e-07 -4.53843e-07)
(-1.99554e-06 4.45556e-09 3.49483e-08 -4.28006e-07 1.13195e-07 -4.48162e-07)
(-2.36284e-06 3.30955e-08 -3.42601e-08 -5.0501e-07 1.30841e-07 -5.32272e-07)
(-5.31176e-07 8.78159e-09 -9.62712e-09 -5.1564e-07 1.27914e-07 -5.38823e-07)
(-5.08892e-07 -1.01557e-08 1.13417e-08 -5.17837e-07 1.28106e-07 -5.40465e-07)
(-2.1577e-06 -3.33998e-08 3.47862e-08 -5.10949e-07 1.31354e-07 -5.36664e-07)
(-2.68705e-06 1.03338e-07 -3.37456e-08 -1.08926e-06 1.23076e-07 -6.66841e-07)
(-8.08763e-07 4.62873e-08 -1.01918e-08 -9.03205e-07 1.19613e-07 -6.7312e-07)
(-7.85778e-07 -5.01035e-08 1.17861e-08 -9.00065e-07 1.19603e-07 -6.74694e-07)
(-2.47604e-06 -1.04436e-07 3.43114e-08 -1.08109e-06 1.22978e-07 -6.71032e-07)
(-3.32037e-06 1.41223e-07 -3.3785e-08 -3.3627e-06 7.45449e-08 -7.80103e-07)
(-1.20129e-06 6.764e-08 -1.04699e-08 -2.87387e-06 7.1746e-08 -7.86451e-07)
(-1.17627e-06 -6.63847e-08 1.19712e-08 -2.83138e-06 7.17e-08 -7.87922e-07)
(-3.10169e-06 -1.39884e-07 3.44137e-08 -3.24271e-06 7.44081e-08 -7.84e-07)
(-1.77415e-06 4.45016e-08 -6.42273e-09 1.49149e-07 1.16459e-07 -9.96833e-09)
(-2.11464e-07 -9.20496e-08 4.10956e-09 -1.74432e-07 1.7116e-07 -3.5257e-08)
(-1.95149e-07 9.03771e-08 -3.44401e-09 -1.86907e-07 1.72352e-07 -3.5785e-08)
(-1.59594e-06 -3.80322e-08 6.4726e-09 9.99549e-08 1.2038e-07 -1.14068e-08)
(-1.86059e-06 -2.31853e-08 -8.20301e-09 -4.43671e-07 1.40841e-07 -1.15409e-07)
(-3.68131e-07 -4.4346e-08 4.84619e-09 -2.96337e-07 1.68356e-07 -1.63204e-07)
(-3.46798e-07 4.63737e-08 -3.946e-09 -3.03692e-07 1.69381e-07 -1.64145e-07)
(-1.67785e-06 2.44755e-08 8.31005e-09 -4.58199e-07 1.44086e-07 -1.18018e-07)
(-1.89633e-06 -2.76098e-08 -5.97674e-09 -4.24758e-07 1.37961e-07 -2.20092e-07)
(-3.65177e-07 -2.87844e-08 6.13872e-09 -3.39833e-07 1.46165e-07 -2.75471e-07)
(-3.4442e-07 3.02842e-08 -5.31446e-09 -3.44398e-07 1.47014e-07 -2.76681e-07)
(-1.71107e-06 2.7959e-08 6.08566e-09 -4.35433e-07 1.40564e-07 -2.23467e-07)
(-1.93438e-06 -1.89719e-08 -3.66571e-09 -3.75069e-07 1.28464e-07 -2.99998e-07)
(-3.2294e-07 -2.21245e-08 7.70476e-09 -3.80887e-07 1.28586e-07 -3.57684e-07)
(-3.0232e-07 2.25925e-08 -6.93325e-09 -3.84136e-07 1.29239e-07 -3.59133e-07)
(-1.74506e-06 1.92199e-08 3.77333e-09 -3.84044e-07 1.30431e-07 -3.04029e-07)
(-2.01687e-06 -3.24508e-09 -2.20054e-09 -3.48297e-07 1.23778e-07 -3.73754e-07)
(-3.17866e-07 -1.29988e-08 8.56989e-09 -4.01939e-07 1.21713e-07 -4.31992e-07)
(-2.96723e-07 1.26811e-08 -7.81682e-09 -4.0478e-07 1.22157e-07 -4.33605e-07)
(-1.82201e-06 3.36832e-09 2.31897e-09 -3.56281e-07 1.25085e-07 -3.78213e-07)
(-2.19092e-06 3.33098e-08 -1.48697e-09 -4.13505e-07 1.14321e-07 -4.57692e-07)
(-4.18907e-07 8.19612e-09 8.58033e-09 -4.26226e-07 1.12076e-07 -5.15516e-07)
(-3.97027e-07 -9.74116e-09 -7.86409e-09 -4.28615e-07 1.12322e-07 -5.17196e-07)
(-1.98942e-06 -3.36266e-08 1.62405e-09 -4.20044e-07 1.15001e-07 -4.62304e-07)
(-2.52341e-06 1.01196e-07 -2.03078e-09 -9.94097e-07 8.18909e-08 -5.39836e-07)
(-6.97308e-07 4.42399e-08 7.5873e-09 -8.16144e-07 7.9045e-08 -5.96326e-07)
(-6.74534e-07 -4.82461e-08 -6.96351e-09 -8.13121e-07 7.91357e-08 -5.97999e-07)
(-2.31469e-06 -1.0229e-07 2.1894e-09 -9.86235e-07 8.20951e-08 -5.44383e-07)
(-3.15862e-06 1.36982e-07 -3.57295e-09 -3.21285e-06 3.84013e-08 -5.68578e-07)
(-1.08614e-06 6.49242e-08 7.15106e-09 -2.73543e-06 3.4306e-08 -6.22766e-07)
(-1.0611e-06 -6.37596e-08 -6.65743e-09 -2.69327e-06 3.43158e-08 -6.2443e-07)
(-2.9407e-06 -1.35623e-07 3.74901e-09 -3.09355e-06 3.84173e-08 -5.73049e-07)
(-1.67082e-06 3.77143e-08 -8.72608e-10 1.03365e-07 1.06988e-07 -1.605e-08)
(-1.88508e-07 -9.11292e-08 4.65152e-09 -1.9839e-07 1.34265e-07 -3.46502e-08)
(-1.72686e-07 8.87841e-08 -4.16851e-09 -2.10495e-07 1.35089e-07 -3.50008e-08)
(-1.4963e-06 -3.17736e-08 9.15054e-10 5.58187e-08 1.09746e-07 -1.7081e-08)
(-1.75461e-06 -2.20212e-08 4.3229e-10 -4.64058e-07 1.28014e-07 -9.88416e-08)
(-3.28208e-07 -4.28063e-08 7.4197e-09 -3.27337e-07 1.41044e-07 -1.34617e-07)
(-3.07492e-07 4.4322e-08 -6.73558e-09 -3.3449e-07 1.41781e-07 -1.35377e-07)
(-1.57565e-06 2.30911e-08 -3.47829e-10 -4.78245e-07 1.30387e-07 -1.01074e-07)
(-1.79409e-06 -2.51045e-08 2.5835e-09 -4.32783e-07 1.31742e-07 -1.98387e-07)
(-3.26067e-07 -2.70848e-08 8.97269e-09 -3.56843e-07 1.34709e-07 -2.39956e-07)
(-3.05855e-07 2.83034e-08 -8.37705e-09 -3.61394e-07 1.35338e-07 -2.40968e-07)
(-1.61245e-06 2.53637e-08 -2.51322e-09 -4.43596e-07 1.33705e-07 -2.01363e-07)
(-1.83697e-06 -1.70182e-08 4.45179e-09 -3.59314e-07 1.24049e-07 -2.91511e-07)
(-2.90264e-07 -2.08807e-08 1.01911e-08 -3.68736e-07 1.22856e-07 -3.34485e-07)
(-2.70131e-07 2.12159e-08 -9.70316e-09 -3.72097e-07 1.23363e-07 -3.35686e-07)
(-1.65111e-06 1.72308e-08 -4.40709e-09 -3.687e-07 1.25598e-07 -2.95031e-07)
(-1.92406e-06 -2.12945e-09 5.71632e-09 -3.12458e-07 1.10714e-07 -3.75384e-07)
(-2.91226e-07 -1.25055e-08 1.08991e-08 -3.66708e-07 1.08819e-07 -4.18347e-07)
(-2.70523e-07 1.21046e-08 -1.048e-08 -3.69703e-07 1.09191e-07 -4.19685e-07)
(-1.73236e-06 2.23985e-09 -5.68515e-09 -3.20943e-07 1.11824e-07 -3.79284e-07)
(-2.10213e-06 3.31098e-08 6.18181e-09 -3.73114e-07 8.83194e-08 -4.49816e-07)
(-3.95511e-07 7.60557e-09 1.08971e-08 -3.87299e-07 8.70625e-08 -4.92122e-07)
(-3.74e-07 -9.23821e-09 -1.05323e-08 -3.89824e-07 8.72989e-08 -4.93537e-07)
(-1.90327e-06 -3.3427e-08 -6.1516e-09 -3.80087e-07 8.89961e-08 -4.53913e-07)
(-2.43669e-06 9.84775e-08 5.35761e-09 -9.5336e-07 5.22792e-08 -5.02015e-07)
(-6.72087e-07 4.20631e-08 1.0004e-08 -7.82972e-07 5.10346e-08 -5.43246e-07)
(-6.49561e-07 -4.61679e-08 -9.72319e-09 -7.80043e-07 5.11527e-08 -5.44688e-07)
(-2.22977e-06 -9.95609e-08 -5.326e-09 -9.4576e-07 5.25905e-08 -5.06155e-07)
(-3.06571e-06 1.32585e-07 3.94288e-09 -3.11771e-06 2.10924e-08 -5.08468e-07)
(-1.05533e-06 6.22564e-08 9.70977e-09 -2.65481e-06 1.84264e-08 -5.49359e-07)
(-1.0304e-06 -6.11481e-08 -9.56699e-09 -2.61282e-06 1.84537e-08 -5.5081e-07)
(-2.84857e-06 -1.31215e-07 -3.92652e-09 -2.9988e-06 2.11643e-08 -5.12594e-07)
(-1.61307e-06 3.63196e-08 8.76593e-11 8.59572e-08 8.31831e-08 -2.56755e-08)
(-1.81279e-07 -8.83503e-08 3.06431e-09 -2.05806e-07 9.56568e-08 -3.54786e-08)
(-1.65777e-07 8.55858e-08 -2.72747e-09 -2.17647e-07 9.62116e-08 -3.57433e-08)
(-1.44086e-06 -3.07177e-08 -4.43998e-11 3.95721e-08 8.50236e-08 -2.64823e-08)
(-1.69594e-06 -2.04832e-08 1.4147e-09 -4.6653e-07 9.74796e-08 -1.04031e-07)
(-3.17686e-07 -4.10689e-08 5.23586e-09 -3.35536e-07 1.02792e-07 -1.22868e-07)
(-2.9739e-07 4.22194e-08 -4.73274e-09 -3.42552e-07 1.03299e-07 -1.235e-07)
(-1.51936e-06 2.13927e-08 -1.32994e-09 -4.80463e-07 9.91113e-08 -1.05935e-07)
(-1.73841e-06 -2.33582e-08 2.87136e-09 -4.33335e-07 1.02606e-07 -1.96603e-07)
(-3.18951e-07 -2.58794e-08 6.34558e-09 -3.61746e-07 1.03062e-07 -2.18245e-07)
(-2.99115e-07 2.68497e-08 -5.90117e-09 -3.66276e-07 1.035e-07 -2.19123e-07)
(-1.55907e-06 2.35315e-08 -2.79784e-09 -4.44204e-07 1.03984e-07 -1.99243e-07)
(-1.78519e-06 -1.57029e-08 4.04858e-09 -3.53029e-07 9.74782e-08 -2.88816e-07)
(-2.88501e-07 -2.00899e-08 7.08065e-09 -3.63849e-07 9.60971e-08 -3.10678e-07)
(-2.68701e-07 2.02861e-08 -6.73427e-09 -3.67266e-07 9.64568e-08 -3.11731e-07)
(-1.60147e-06 1.58725e-08 -4.00256e-09 -3.62649e-07 9.85952e-08 -2.91984e-07)
(-1.87578e-06 -1.4221e-09 4.83003e-09 -2.99922e-07 8.39151e-08 -3.7142e-07)
(-2.93982e-07 -1.22107e-08 7.47738e-09 -3.53918e-07 8.25909e-08 -3.92713e-07)
(-2.73577e-07 1.17324e-08 -7.2075e-09 -3.57003e-07 8.28663e-08 -3.93895e-07)
(-1.68602e-06 1.5152e-09 -4.80499e-09 -3.08717e-07 8.47522e-08 -3.74965e-07)
(-2.05607e-06 3.27967e-08 5.04157e-09 -3.60527e-07 6.18982e-08 -4.37227e-07)
(-4.00146e-07 7.14455e-09 7.42598e-09 -3.75158e-07 6.14299e-08 -4.57853e-07)
(-3.78887e-07 -8.83558e-09 -7.21477e-09 -3.77771e-07 6.1618e-08 -4.59119e-07)
(-1.85881e-06 -3.31163e-08 -5.02726e-09 -3.6779e-07 6.24514e-08 -4.4101e-07)
(-2.39026e-06 9.6491e-08 4.39388e-09 -9.36784e-07 3.30734e-08 -4.76905e-07)
(-6.74467e-07 4.06045e-08 6.84085e-09 -7.70934e-07 3.29397e-08 -4.97115e-07)
(-6.52121e-07 -4.47665e-08 -6.70267e-09 -7.68072e-07 3.30437e-08 -4.98424e-07)
(-2.18444e-06 -9.75687e-08 -4.38894e-09 -9.29381e-07 3.33661e-08 -4.80794e-07)
(-3.01271e-06 1.29642e-07 3.38883e-09 -3.05846e-06 1.23643e-08 -4.82096e-07)
(-1.05309e-06 6.05497e-08 6.64292e-09 -2.6055e-06 1.11291e-08 -5.03023e-07)
(-1.02825e-06 -5.94769e-08 -6.62555e-09 -2.56359e-06 1.1157e-08 -5.04343e-07)
(-2.79603e-06 -1.28269e-07 -3.41122e-09 -2.93976e-06 1.24441e-08 -4.85997e-07)
(-1.58159e-06 3.61326e-08 5.44171e-11 7.98424e-08 5.22408e-08 -3.15545e-08)
(-1.78733e-07 -8.63304e-08 1.54121e-09 -2.07431e-07 5.75869e-08 -3.63915e-08)
(-1.6342e-07 8.33249e-08 -1.34107e-09 -2.19098e-07 5.79081e-08 -3.66192e-08)
(-1.41072e-06 -3.0727e-08 -2.27827e-11 3.41989e-08 5.32934e-08 -3.22443e-08)
(-1.66429e-06 -1.94625e-08 7.56533e-10 -4.63547e-07 6.01101e-08 -1.09795e-07)
(-3.15158e-07 -3.99526e-08 2.67692e-09 -3.35651e-07 6.20585e-08 -1.18779e-07)
(-2.95108e-07 4.08832e-08 -2.36653e-09 -3.42579e-07 6.23563e-08 -1.19342e-07)
(-1.48909e-06 2.02757e-08 -6.93329e-10 -4.77299e-07 6.10637e-08 -1.11481e-07)
(-1.7087e-06 -2.23604e-08 1.51991e-09 -4.30863e-07 6.36464e-08 -1.97279e-07)
(-3.19281e-07 -2.52066e-08 3.2585e-09 -3.61314e-07 6.34152e-08 -2.07187e-07)
(-2.99668e-07 2.60079e-08 -2.97749e-09 -3.6583e-07 6.36746e-08 -2.07988e-07)
(-1.53069e-06 2.2474e-08 -1.46161e-09 -4.41754e-07 6.44666e-08 -1.99683e-07)
(-1.75796e-06 -1.49802e-08 2.12559e-09 -3.50575e-07 6.0699e-08 -2.84673e-07)
(-2.92275e-07 -1.96911e-08 3.61713e-09 -3.61816e-07 5.9753e-08 -2.94162e-07)
(-2.72671e-07 1.97783e-08 -3.39927e-09 -3.65263e-07 5.99689e-08 -2.95138e-07)
(-1.57547e-06 1.51138e-08 -2.08593e-09 -3.60326e-07 6.13751e-08 -2.87612e-07)
(-1.85069e-06 -1.06325e-09 2.51483e-09 -2.97383e-07 5.1442e-08 -3.62586e-07)
(-3.00438e-07 -1.2089e-08 3.79225e-09 -3.50911e-07 5.07239e-08 -3.71365e-07)
(-2.80204e-07 1.15455e-08 -3.62981e-09 -3.54047e-07 5.08928e-08 -3.72471e-07)
(-1.66201e-06 1.13866e-09 -2.49185e-09 -3.06359e-07 5.19616e-08 -3.6592e-07)
(-2.03204e-06 3.25617e-08 2.5951e-09 -3.5878e-07 3.66559e-08 -4.22674e-07)
(-4.07491e-07 6.86616e-09 3.74396e-09 -3.73325e-07 3.65771e-08 -4.30995e-07)
(-3.86376e-07 -8.60031e-09 -3.62562e-09 -3.75991e-07 3.66965e-08 -4.32191e-07)
(-1.83567e-06 -3.28867e-08 -2.58284e-09 -3.6622e-07 3.70136e-08 -4.26279e-07)
(-2.36535e-06 9.53469e-08 2.22524e-09 -9.30492e-07 1.88269e-08 -4.58172e-07)
(-6.80148e-07 3.9831e-08 3.44233e-09 -7.66825e-07 1.90632e-08 -4.66569e-07)
(-6.57903e-07 -4.40289e-08 -3.37466e-09 -7.64005e-07 1.91322e-08 -4.67816e-07)
(-2.16013e-06 -9.64233e-08 -2.22302e-09 -9.23216e-07 1.90279e-08 -4.61923e-07)
(-2.98313e-06 1.28025e-07 1.63379e-09 -3.0243e-06 6.78398e-09 -4.66133e-07)
(-1.05571e-06 5.96601e-08 3.31568e-09 -2.57666e-06 6.35045e-09 -4.75479e-07)
(-1.03093e-06 -5.86091e-08 -3.3305e-09 -2.53479e-06 6.37012e-09 -4.76735e-07)
(-2.76668e-06 -1.26652e-07 -1.65458e-09 -2.90572e-06 6.84267e-09 -4.69907e-07)
(-1.56755e-06 3.61e-08 7.84857e-13 7.80979e-08 1.7769e-08 -3.41537e-08)
(-1.77753e-07 -8.54021e-08 4.53541e-10 -2.07394e-07 1.92713e-08 -3.70928e-08)
(-1.62527e-07 8.22868e-08 -3.87064e-10 -2.18975e-07 1.93765e-08 -3.7306e-08)
(-1.39729e-06 -3.07844e-08 1.05889e-11 3.28144e-08 1.81112e-08 -3.47914e-08)
(-1.65022e-06 -1.90129e-08 1.99143e-10 -4.61009e-07 2.02457e-08 -1.12714e-07)
(-3.14412e-07 -3.94643e-08 7.85533e-10 -3.34503e-07 2.07341e-08 -1.17884e-07)
(-2.94476e-07 4.02932e-08 -6.80464e-10 -3.41387e-07 2.08324e-08 -1.18417e-07)
(-1.47566e-06 1.97819e-08 -1.76073e-10 -4.74666e-07 2.05591e-08 -1.14294e-07)
(-1.69556e-06 -2.19294e-08 4.27891e-10 -4.28917e-07 2.14402e-08 -1.97621e-07)
(-3.19967e-07 -2.49263e-08 9.57752e-10 -3.60192e-07 2.13008e-08 -2.02969e-07)
(-3.00455e-07 2.56447e-08 -8.61172e-10 -3.64701e-07 2.13869e-08 -2.03735e-07)
(-1.51815e-06 2.20136e-08 -4.05945e-10 -4.39813e-07 2.17125e-08 -1.99903e-07)
(-1.74597e-06 -1.46735e-08 6.10399e-10 -3.49715e-07 2.04668e-08 -2.81677e-07)
(-2.94574e-07 -1.95359e-08 1.0616e-09 -3.61048e-07 2.01436e-08 -2.86396e-07)
(-2.75058e-07 1.95648e-08 -9.86396e-10 -3.64509e-07 2.02157e-08 -2.87337e-07)
(-1.56404e-06 1.47875e-08 -5.94863e-10 -3.59524e-07 2.06934e-08 -2.84499e-07)
(-1.83968e-06 -9.1916e-10 7.25566e-10 -2.97504e-07 1.72494e-08 -3.56344e-07)
(-3.03935e-07 -1.20511e-08 1.10896e-09 -3.50727e-07 1.7029e-08 -3.60378e-07)
(-2.83778e-07 1.14707e-08 -1.05361e-09 -3.53887e-07 1.70859e-08 -3.61452e-07)
(-1.65149e-06 9.83682e-10 -7.16192e-10 -3.06564e-07 1.74254e-08 -3.59575e-07)
(-2.02143e-06 3.24478e-08 7.45906e-10 -3.59452e-07 1.21486e-08 -4.13674e-07)
(-4.11327e-07 6.74353e-09 1.09108e-09 -3.73846e-07 1.21573e-08 -4.17413e-07)
(-3.90275e-07 -8.50178e-09 -1.05195e-09 -3.76536e-07 1.21981e-08 -4.18581e-07)
(-1.82546e-06 -3.27768e-08 -7.40807e-10 -3.66975e-07 1.2272e-08 -4.17194e-07)
(-2.35417e-06 9.48455e-08 6.29139e-10 -9.28482e-07 6.17582e-09 -4.48047e-07)
(-6.83149e-07 3.95145e-08 1.0008e-09 -7.65643e-07 6.30512e-09 -4.52089e-07)
(-6.60948e-07 -4.37309e-08 -9.79841e-10 -7.62843e-07 6.32909e-09 -4.53311e-07)
(-2.14922e-06 -9.59222e-08 -6.28116e-10 -9.21268e-07 6.24686e-09 -4.51733e-07)
(-2.96961e-06 1.27333e-07 4.34005e-10 -3.00878e-06 2.19142e-09 -4.57891e-07)
(-1.05722e-06 5.92961e-08 9.55881e-10 -2.56333e-06 2.09763e-09 -4.62869e-07)
(-1.03246e-06 -5.8256e-08 -9.64188e-10 -2.52148e-06 2.10463e-09 -4.64099e-07)
(-2.75326e-06 -1.2596e-07 -4.41734e-10 -2.89025e-06 2.21268e-09 -4.61606e-07)
)
;

boundaryField
{
    interface
    {
        type            calculated;
        value           nonuniform List<symmTensor> 
192
(
(-4.68511e-06 2.28156e-12 1.76007e-11 1.4247e-06 2.35543e-07 -2.89136e-06)
(-4.39105e-06 2.17235e-12 2.85115e-11 -4.88908e-07 3.3664e-08 -2.94877e-06)
(-4.48294e-06 4.53316e-13 3.2538e-11 -6.01171e-07 1.4241e-09 -3.01447e-06)
(-4.62293e-06 -2.39969e-12 3.36977e-11 -5.6024e-07 9.69482e-09 -3.09542e-06)
(-4.79226e-06 -4.91845e-12 3.34662e-11 -5.82466e-07 3.14073e-08 -3.20403e-06)
(-5.0129e-06 -9.34446e-12 3.26557e-11 -7.80982e-07 7.1347e-08 -3.35981e-06)
(-5.30222e-06 -1.27215e-11 3.02009e-11 -1.59371e-06 1.32237e-07 -3.6091e-06)
(-5.85381e-06 -2.86593e-11 2.8309e-11 -4.09271e-06 1.58525e-07 -4.09078e-06)
(-3.88378e-06 1.64626e-12 8.6266e-12 6.03116e-07 2.1871e-08 -5.57009e-07)
(-3.6858e-06 1.68067e-12 1.49664e-11 -3.36841e-07 4.34873e-08 -8.94611e-07)
(-3.73773e-06 1.76981e-13 1.68687e-11 -4.4885e-07 3.74938e-08 -9.5672e-07)
(-3.84296e-06 -2.71552e-12 1.70816e-11 -4.79421e-07 4.08719e-08 -9.74042e-07)
(-3.99456e-06 -5.36477e-12 1.6509e-11 -5.19951e-07 6.99929e-08 -1.01172e-06)
(-4.21908e-06 -1.02336e-11 1.56302e-11 -6.52636e-07 1.17557e-07 -1.10276e-06)
(-4.5583e-06 -1.39665e-11 1.40449e-11 -1.28878e-06 1.5515e-07 -1.29571e-06)
(-5.30579e-06 -3.06795e-11 1.27917e-11 -3.61082e-06 1.33046e-07 -1.59475e-06)
(-3.39143e-06 1.41181e-12 6.76372e-12 2.70841e-07 9.27829e-08 -7.06619e-08)
(-3.30774e-06 1.43664e-12 1.15806e-11 -3.9095e-07 1.14581e-07 -2.53308e-07)
(-3.36663e-06 -2.18072e-14 1.2994e-11 -4.15291e-07 1.05158e-07 -3.49193e-07)
(-3.46575e-06 -3.04344e-12 1.31149e-11 -4.11431e-07 9.87209e-08 -3.94453e-07)
(-3.61671e-06 -5.92621e-12 1.2638e-11 -4.20773e-07 1.11838e-07 -4.43878e-07)
(-3.85287e-06 -1.13173e-11 1.19267e-11 -5.0501e-07 1.30841e-07 -5.32272e-07)
(-4.22354e-06 -1.55829e-11 1.07854e-11 -1.08926e-06 1.23076e-07 -6.66841e-07)
(-5.02231e-06 -3.33933e-11 9.83557e-12 -3.3627e-06 7.45449e-08 -7.80103e-07)
(-3.09755e-06 1.06391e-12 4.10349e-12 1.49149e-07 1.16459e-07 -9.96833e-09)
(-3.05387e-06 9.47057e-13 7.43453e-12 -4.43671e-07 1.40841e-07 -1.15409e-07)
(-3.12164e-06 -5.22065e-13 8.36636e-12 -4.24758e-07 1.37961e-07 -2.20092e-07)
(-3.22272e-06 -3.56494e-12 8.36017e-12 -3.75069e-07 1.28464e-07 -2.99998e-07)
(-3.3766e-06 -6.54714e-12 7.94158e-12 -3.48297e-07 1.23778e-07 -3.73754e-07)
(-3.62013e-06 -1.21583e-11 7.38319e-12 -4.13505e-07 1.14321e-07 -4.57692e-07)
(-4.00494e-06 -1.66596e-11 6.66103e-12 -9.94097e-07 8.18909e-08 -5.39836e-07)
(-4.81258e-06 -3.47264e-11 6.09664e-12 -3.21285e-06 3.84013e-08 -5.68578e-07)
(-2.92493e-06 8.95351e-13 2.98824e-12 1.03365e-07 1.06988e-07 -1.605e-08)
(-2.89204e-06 6.38948e-13 5.41556e-12 -4.64058e-07 1.28014e-07 -9.88416e-08)
(-2.96478e-06 -8.91439e-13 6.10102e-12 -4.32783e-07 1.31742e-07 -1.98387e-07)
(-3.0693e-06 -3.98458e-12 6.0945e-12 -3.59314e-07 1.24049e-07 -2.91511e-07)
(-3.22669e-06 -7.07391e-12 5.78541e-12 -3.12458e-07 1.10714e-07 -3.75384e-07)
(-3.47456e-06 -1.28737e-11 5.37021e-12 -3.73114e-07 8.83194e-08 -4.49816e-07)
(-3.8643e-06 -1.75897e-11 4.86668e-12 -9.5336e-07 5.22792e-08 -5.02015e-07)
(-4.66671e-06 -3.59204e-11 4.46232e-12 -3.11771e-06 2.10924e-08 -5.08468e-07)
(-2.82434e-06 7.64361e-13 1.81296e-12 8.59572e-08 8.31831e-08 -2.56755e-08)
(-2.79458e-06 3.89493e-13 3.4019e-12 -4.6653e-07 9.74796e-08 -1.04031e-07)
(-2.86992e-06 -1.1971e-12 3.85478e-12 -4.33335e-07 1.02606e-07 -1.96603e-07)
(-2.97728e-06 -4.32133e-12 3.84079e-12 -3.53029e-07 9.74782e-08 -2.88816e-07)
(-3.13746e-06 -7.4699e-12 3.62652e-12 -2.99922e-07 8.39151e-08 -3.7142e-07)
(-3.38763e-06 -1.33635e-11 3.34622e-12 -3.60527e-07 6.18982e-08 -4.37227e-07)
(-3.77828e-06 -1.81904e-11 3.03656e-12 -9.36784e-07 3.30734e-08 -4.76905e-07)
(-4.57335e-06 -3.66501e-11 2.79917e-12 -3.05846e-06 1.23643e-08 -4.82096e-07)
(-2.76842e-06 6.99939e-13 1.06009e-12 7.98424e-08 5.22408e-08 -3.15545e-08)
(-2.7398e-06 2.4419e-13 1.98735e-12 -4.63547e-07 6.01101e-08 -1.09795e-07)
(-2.81649e-06 -1.39079e-12 2.25387e-12 -4.30863e-07 6.36464e-08 -1.97279e-07)
(-2.92567e-06 -4.54298e-12 2.24668e-12 -3.50575e-07 6.0699e-08 -2.84673e-07)
(-3.0876e-06 -7.73683e-12 2.12291e-12 -2.97383e-07 5.1442e-08 -3.62586e-07)
(-3.33885e-06 -1.36954e-11 1.95739e-12 -3.5878e-07 3.66559e-08 -4.22674e-07)
(-3.72913e-06 -1.86003e-11 1.78245e-12 -9.30492e-07 1.88269e-08 -4.58172e-07)
(-4.51864e-06 -3.71576e-11 1.64034e-12 -3.0243e-06 6.78398e-09 -4.66133e-07)
(-2.74332e-06 6.60326e-13 3.12335e-13 7.80979e-08 1.7769e-08 -3.41537e-08)
(-2.71515e-06 1.62834e-13 6.08009e-13 -4.61009e-07 2.02457e-08 -1.12714e-07)
(-2.79243e-06 -1.49403e-12 6.9422e-13 -4.28917e-07 2.14402e-08 -1.97621e-07)
(-2.90248e-06 -4.65484e-12 6.90682e-13 -3.49715e-07 2.04668e-08 -2.81677e-07)
(-3.06522e-06 -7.86677e-12 6.50206e-13 -2.97504e-07 1.72494e-08 -3.56344e-07)
(-3.31687e-06 -1.38487e-11 5.9605e-13 -3.59452e-07 1.21486e-08 -4.13674e-07)
(-3.70673e-06 -1.87893e-11 5.44058e-13 -9.28482e-07 6.17582e-09 -4.48047e-07)
(-4.4934e-06 -3.73866e-11 4.99523e-13 -3.00878e-06 2.19142e-09 -4.57891e-07)
(-2.83226e-06 2.06424e-07 -2.45682e-11 1.4247e-06 -5.91765e-12 -4.80039e-06)
(-2.93142e-06 1.73925e-09 -4.18574e-11 -4.88908e-07 -7.19641e-12 -4.48131e-06)
(-3.00043e-06 -3.00002e-08 -4.90238e-11 -6.01171e-07 -6.1944e-12 -4.57427e-06)
(-3.06077e-06 -2.03965e-08 -5.17149e-11 -5.6024e-07 -4.6132e-12 -4.72387e-06)
(-3.1535e-06 -2.20331e-09 -5.26429e-11 -5.82466e-07 -3.91383e-12 -4.89986e-06)
(-3.31613e-06 3.3025e-08 -5.33964e-11 -7.80982e-07 -4.15677e-12 -5.11768e-06)
(-3.59257e-06 9.5646e-08 -5.44095e-11 -1.59371e-06 -5.06135e-12 -5.39668e-06)
(-4.0816e-06 1.26258e-07 -5.9837e-11 -4.09271e-06 -6.41941e-12 -5.9401e-06)
(-6.3568e-07 -3.76441e-08 -1.45046e-11 8.88988e-07 -3.53499e-12 -4.29033e-06)
(-1.09069e-06 -3.46412e-08 -2.78519e-11 -2.38425e-07 -5.4989e-12 -3.98866e-06)
(-1.14669e-06 -3.22403e-08 -3.29449e-11 -4.41497e-07 -4.92788e-12 -4.0114e-06)
(-1.10722e-06 -2.47563e-08 -3.46399e-11 -5.37777e-07 -3.15384e-12 -4.11407e-06)
(-1.10295e-06 -1.25087e-08 -3.52334e-11 -6.25911e-07 -1.94047e-12 -4.26261e-06)
(-1.20381e-06 9.8475e-09 -3.61152e-11 -7.90345e-07 -1.28022e-12 -4.46901e-06)
(-1.471e-06 4.46322e-08 -3.82123e-11 -1.43147e-06 -1.39825e-12 -4.78027e-06)
(-1.83745e-06 6.10421e-08 -4.53501e-11 -3.74227e-06 -1.90635e-12 -5.52526e-06)
(-6.17563e-07 3.24213e-08 -1.44044e-11 8.70916e-07 -2.57686e-12 -4.21952e-06)
(-1.06634e-06 3.58087e-08 -2.79623e-11 -2.43634e-07 -4.47156e-12 -3.92065e-06)
(-1.12248e-06 3.45556e-08 -3.33309e-11 -4.44369e-07 -4.0603e-12 -3.94104e-06)
(-1.08305e-06 2.64856e-08 -3.51714e-11 -5.4008e-07 -2.13717e-12 -4.04168e-06)
(-1.07847e-06 1.33931e-08 -3.5753e-11 -6.28165e-07 -5.77784e-13 -4.18872e-06)
(-1.1791e-06 -1.03789e-08 -3.64486e-11 -7.92202e-07 6.97137e-13 -4.39375e-06)
(-1.44614e-06 -4.7774e-08 -3.81906e-11 -1.42784e-06 1.37513e-12 -4.70376e-06)
(-1.81102e-06 -5.93757e-08 -4.50557e-11 -3.6999e-06 1.46656e-12 -5.44981e-06)
(-2.63977e-06 -2.00498e-07 -1.5779e-11 1.35876e-06 -2.09911e-12 -4.59845e-06)
(-2.73041e-06 -4.76907e-10 -3.178e-11 -4.9735e-07 -3.84713e-12 -4.28863e-06)
(-2.79594e-06 3.08259e-08 -3.85714e-11 -6.07008e-07 -3.42735e-12 -4.37419e-06)
(-2.85244e-06 2.11766e-08 -4.10198e-11 -5.66297e-07 -1.36277e-12 -4.51787e-06)
(-2.94135e-06 2.70387e-09 -4.17703e-11 -5.88443e-07 3.53121e-13 -4.6897e-06)
(-3.10079e-06 -3.31609e-08 -4.26546e-11 -7.85784e-07 1.91378e-12 -4.90389e-06)
(-3.37485e-06 -9.66784e-08 -4.41273e-11 -1.58436e-06 3.04852e-12 -5.18003e-06)
(-3.85863e-06 -1.24862e-07 -5.13438e-11 -3.97528e-06 4.10292e-12 -5.72966e-06)
(-4.33637e-06 4.94106e-12 4.30853e-12 1.35876e-06 2.3632e-07 -2.78153e-06)
(-4.03773e-06 6.40468e-12 8.64617e-12 -4.9735e-07 3.6137e-08 -2.84149e-06)
(-4.12237e-06 4.65997e-12 1.00873e-11 -6.07008e-07 3.13785e-09 -2.90384e-06)
(-4.2546e-06 1.23296e-12 1.07762e-11 -5.66297e-07 1.06364e-08 -2.98195e-06)
(-4.41693e-06 -6.42303e-13 1.12903e-11 -5.88443e-07 3.18292e-08 -3.08841e-06)
(-4.63164e-06 -3.23531e-12 1.28368e-11 -7.85784e-07 7.136e-08 -3.24231e-06)
(-4.91649e-06 -3.03857e-12 1.41246e-11 -1.58436e-06 1.31774e-07 -3.49009e-06)
(-5.46072e-06 -1.72109e-11 1.7961e-11 -3.97528e-06 1.57949e-07 -3.9744e-06)
(-3.53934e-06 1.98665e-12 -1.97848e-12 5.46848e-07 3.11473e-08 -5.48778e-07)
(-3.34381e-06 2.8779e-12 -1.85512e-12 -3.5104e-07 4.895e-08 -8.84269e-07)
(-3.38987e-06 2.03627e-12 -2.35154e-12 -4.57615e-07 4.10548e-08 -9.47257e-07)
(-3.48719e-06 2.8699e-14 -2.44286e-12 -4.8645e-07 4.3111e-08 -9.65199e-07)
(-3.6304e-06 -5.37878e-13 -2.06619e-12 -5.26299e-07 7.11439e-08 -1.00307e-06)
(-3.84648e-06 -2.05662e-12 -5.99858e-13 -6.5786e-07 1.17779e-07 -1.09409e-06)
(-4.17838e-06 -3.95395e-13 1.26035e-12 -1.28018e-06 1.54605e-07 -1.28682e-06)
(-4.91744e-06 -1.35366e-11 4.15951e-12 -3.49017e-06 1.32561e-07 -1.58515e-06)
(-3.05834e-06 1.10031e-12 -1.08556e-12 2.19212e-07 9.8634e-08 -7.2137e-08)
(-2.97601e-06 1.50693e-12 -3.73763e-13 -4.05835e-07 1.18987e-07 -2.55298e-07)
(-3.02887e-06 1.05796e-12 -1.01818e-13 -4.2552e-07 1.08438e-07 -3.52115e-07)
(-3.11985e-06 -2.09254e-13 2.47472e-13 -4.19656e-07 1.01018e-07 -3.98256e-07)
(-3.26146e-06 8.89535e-15 7.99594e-13 -4.28006e-07 1.13195e-07 -4.48162e-07)
(-3.48716e-06 -8.93875e-13 1.99632e-12 -5.10949e-07 1.31354e-07 -5.36664e-07)
(-3.84749e-06 1.50542e-12 3.25682e-12 -1.08109e-06 1.22978e-07 -6.71032e-07)