/*--------------------------------*- C++ -*----------------------------------*\
| =========                 |                                                 |
| \\      /  F ield         | OpenFOAM: The Open Source CFD Toolbox           |
|  \\    /   O peration     | Version:  v1912                                 |
|   \\  /    A nd           | Website:  www.openfoam.com                      |
|    \\/     M anipulation  |                                                 |
\*---------------------------------------------------------------------------*/
FoamFile
{
    version     2.0;
    format      ascii;
    class       volVectorField;
    location    "0.77/solid";
    object      heatFlux;
}
// * * * * * * * * * * * * * * * * * * * * * * * * * * * * * * * * * * * * * //

dimensions      [1 0 -3 0 0 0 0];


internalField   nonuniform List<vector> 
256
(
(-64955.1 71615.7 -68479.6)
(-13307.5 42236 -67191.5)
(11980.8 41765.9 -65931.4)
(58367.8 69149.3 -64761.1)
(-61943.9 10550.8 -65816.1)
(-16542.3 6815.31 -67448.5)
(14932.5 6749.34 -66138.3)
(55034.5 10266 -62042.6)
(-63071 2497.38 -67060)
(-17109 1540.24 -69038.5)
(15431.5 1518.79 -67674.5)
(56018.3 2407.33 -63153.2)
(-64912.6 2391.08 -68928.1)
(-17520.9 1418.92 -71058.1)
(15799.5 1405.66 -69656.4)
(57712.7 2327.2 -64921.4)
(-67500.2 4016.52 -71517.6)
(-18094.4 2602.6 -73943.7)
(16339.8 2591.6 -72514.5)
(60162.2 3964.97 -67437.1)
(-71171 9266.46 -75210.5)
(-18945.8 7399.13 -78331)
(17161.9 7368.21 -76876.2)
(63706.6 9174.72 -71060.4)
(-74892 28893.2 -79079.2)
(-19992.6 28175.2 -83634.1)
(18115.4 27948 -82150.6)
(67280.2 28277 -74856.8)
(-69531.5 74240 -74142.2)
(-19891 80386.8 -80309.2)
(17263.8 78956.4 -78892.3)
(61538.4 70195.3 -70145.8)
(-61931.1 38565.4 -18173.4)
(-11986.8 11368.3 -15804.8)
(11249.2 11242.3 -15634.8)
(55695.6 37077.9 -17677)
(-62107.5 6251.94 -23039.3)
(-15336.3 2328.65 -20585.8)
(14460.4 2311.52 -20370.6)
(55655.6 6098.95 -22416.8)
(-63604.8 1467.77 -23832)
(-15927.3 467.168 -21383)
(15019.5 460.697 -21156.3)
(57016.3 1414.54 -23180.4)
(-65606.9 1404.48 -24322.3)
(-16343.4 385.048 -21870.1)
(15407.7 379.235 -21638.1)
(58865.6 1355.38 -23659.5)
(-68510.9 2578.05 -24990.2)
(-16952.5 992.52 -22571.3)
(15989.8 985.619 -22336.8)
(61611.4 2528.75 -24326.5)
(-72924.3 7259.83 -26007.7)
(-17935.8 4893.37 -23738.7)
(16944 4864.44 -23503.3)
(65861.9 7161.19 -25351.9)
(-78218.1 27524 -27490.2)
(-19347.9 25693.9 -25678.8)
(18257.6 25454.9 -25444.2)
(70966.8 26860.1 -26850.7)
(-74960 79227.7 -28851.4)
(-20004.9 83755.7 -28153.5)
(18110.2 82250.8 -27932.2)
(67291.5 74934.9 -28263.9)
(-55683 30403 -4609.3)
(-10769 5845.43 -2644.7)
(10108.5 5760.43 -2624.54)
(49661.6 29055.5 -4528.37)
(-56450.8 4892.18 -6134.91)
(-13873.6 1237.08 -3747.66)
(13101.5 1227.92 -3719.73)
(50236.2 4762.63 -6028.06)
(-57923.9 1214.31 -6358.37)
(-14433.2 255.974 -3917.85)
(13634.1 251.289 -3888.35)
(51572.4 1164.57 -6247.36)
(-59875.7 1232.91 -6449.32)
(-14836.7 230.618 -3989.7)
(14010.1 225.107 -3959.82)
(53365.8 1181.06 -6338.83)
(-62771.4 2331.18 -6558.23)
(-15441 733.959 -4089.81)
(14584.5 726.361 -4060.21)
(56085.3 2272.58 -6452.56)
(-67284.4 6766.42 -6740.09)
(-16441.5 4291.6 -4287.76)
(15548.7 4260.86 -4259.18)
(60398.5 6650.55 -6645.2)
(-73012.4 26049.5 -7231.81)
(-17946.6 23760.4 -4888.54)
(16943.5 23519.2 -4862.02)
(65882.1 25365.1 -7155.28)
(-71328.6 75438.4 -9217.07)
(-18971.8 78520.6 -7376.67)
(17153.4 77031.9 -7351.87)
(63737 71182.2 -9158.32)
(-51391.4 27821.2 -1661.04)
(-10002.1 4975.97 -447.24)
(9365.51 4897.99 -442.902)
(45523.6 26521.4 -1626.49)
(-52172.7 4502.88 -2150.18)
(-12921.1 1055.49 -642.426)
(12180 1047.71 -636.325)
(46121.8 4379.95 -2105.97)
(-53589.2 1153.36 -2214.35)
(-13457.2 225.125 -670.599)
(12690 220.608 -664.236)
(47402.2 1103.77 -2169.01)
(-55501.5 1204.62 -2232.26)
(-13853.9 213.089 -678.934)
(13058.6 207.378 -672.621)
(49152.6 1150.18 -2187.89)
(-58375.4 2287.29 -2249.27)
(-14454.5 694.46 -690.353)
(13627.1 686.258 -684.324)
(51837.3 2222.39 -2208.18)
(-62889.8 6586.25 -2291.96)
(-15454.9 4094.64 -729.539)
(14586.5 4062.63 -724.173)
(56126.3 6458.48 -2257.67)
(-68722.6 25047 -2532.96)
(-16978.1 22605 -984.603)
(15990.9 22362.3 -980.59)
(61671.8 24347 -2510.98)
(-67784.8 71863.8 -3934.02)
(-18139.7 74237.8 -2562.14)
(16328.5 72758.1 -2559.48)
(60230.9 67628.8 -3926.11)
(-48785.2 26591.8 -849.454)
(-9550.82 4755.76 -134.521)
(8929.28 4681.2 -132.19)
(43021.2 25323 -827.282)
(-49538.7 4338.86 -1075.16)
(-12359.8 1013.72 -187.45)
(11638 1006.58 -184.177)
(43597.5 4220.11 -1046.81)
(-50923.2 1132.23 -1101.27)
(-12883.1 219.465 -194.028)
(12135.7 214.993 -190.632)
(44846.9 1082.65 -1072.2)
(-52816.6 1198 -1106.11)
(-13277 210.864 -195.067)
(12501.1 205.019 -191.717)
(46575.3 1141.89 -1077.78)
(-55678.5 2271.48 -1110.49)
(-13876.1 683.354 -196.815)
(13066.7 674.809 -193.635)
(49239 2202.8 -1084.2)
(-60179 6482.73 -1131.9)
(-14873.7 3997.35 -211.821)
(14020.6 3964.59 -209.016)
(53497.4 6347.75 -1109.65)
(-66016.6 24407.5 -1281.31)
(-16394.2 21927.8 -350.325)
(15417.1 21683.9 -348.322)
(59021.5 23696.7 -1266.54)
(-65396.9 69469.6 -2175.89)
(-17597.3 71534.6 -1294.1)
(15789.4 70058 -1293.24)
(57869.2 65239.9 -2171.26)
(-47219.3 25896.6 -481.217)
(-9284.81 4654 -66.11)
(8672.75 4581.62 -64.6683)
(41518.7 24647.3 -467.69)
(-47956.4 4251.06 -604.018)
(-12030.1 995.984 -90.4161)
(11320.6 989.268 -88.3741)
(42082 4135.03 -586.578)
(-49325 1122.41 -617.066)
(-12546.6 217.508 -93.1116)
(11811.8 213.067 -90.9878)
(43316 1072.8 -599.177)
(-51209.6 1195.4 -618.814)
(-12939.5 210.302 -93.3065)
(12175.9 204.375 -91.2115)
(45032.7 1138.18 -601.425)
(-54063.8 2261.5 -621.077)
(-13537.6 677.705 -93.9353)
(12739.7 668.96 -91.9398)
(47682.6 2190.51 -604.956)
(-58547.8 6415.42 -635.404)
(-14532 3941.13 -102.178)
(13688.7 3907.94 -100.396)
(51914.1 6276.14 -621.659)
(-64362.4 24003 -729.871)
(-16045.1 21522.7 -182.237)
(15074.7 21278 -180.914)
(57399.5 23285.4 -720.505)
(-63878.7 67941.4 -1280.77)
(-17257 69868.4 -740.652)
(15451.3 68392.7 -740.081)
(56364.4 63712.3 -1277.86)
(-46321.8 25506.6 -251.862)
(-9134.27 4599.24 -33.6038)
(8527.7 4528.16 -32.8167)
(40657.5 24268.7 -244.644)
(-47050.5 4203.02 -315.027)
(-11844.1 986.721 -45.6913)
(11141.8 980.264 -44.5679)
(41214.5 4088.62 -305.66)
(-48411.3 1117.43 -321.438)
(-12357 216.575 -46.9694)
(11629.6 212.155 -45.7979)
(42440.7 1067.8 -311.818)
(-50291.4 1193.98 -322.169)
(-12749.4 210.04 -47.0247)
(11993 204.067 -45.8679)
(44150.7 1136.11 -312.821)
(-53140.4 2254.89 -323.545)
(-13346.9 674.482 -47.3516)
(12555.7 665.624 -46.2478)
(46791.7 2182.57 -314.886)
(-57610.8 6373.93 -332.136)
(-14338.7 3909.05 -51.7469)
(13501.1 3875.62 -50.7545)
(51003.6 6232.2 -324.74)
(-63401.5 23762.1 -384.913)
(-15845.3 21289.4 -94.1584)
(14878.8 21044.2 -93.4036)
(56456.2 23040.5 -379.838)
(-62976.1 67027.7 -686.074)
(-17056.6 68891.7 -392.701)
(15252.2 67416.3 -392.365)
(55468.3 62798.1 -684.545)
(-45910.4 25329.7 -78.6616)
(-9065.77 4574.7 -10.4086)
(8461.71 4504.24 -10.1589)
(40262.4 24097 -76.4005)
(-46635.5 4181.49 -98.2428)
(-11759.7 982.619 -14.1246)
(11060.6 976.286 -13.7665)
(40816.8 4067.86 -95.2966)
(-47993 1115.27 -100.192)
(-12271 216.175 -14.5106)
(11546.9 211.767 -14.1366)
(42039.6 1065.64 -97.1634)
(-49871.1 1193.29 -100.405)
(-12663.2 209.92 -14.5243)
(11910.1 203.925 -14.1548)
(43746.7 1135.11 -97.4619)
(-52717.4 2251.54 -100.884)
(-13260.3 672.983 -14.631)
(12472.1 664.073 -14.2783)
(46383.2 2178.6 -98.1602)
(-57180.3 6354.05 -103.757)
(-14250.6 3894.32 -16.0232)
(13415.7 3860.78 -15.7055)
(50584.8 6211.19 -101.434)
(-62957.2 23649.1 -120.762)
(-15753.6 21181.8 -29.3578)
(14789 20936.4 -29.1141)
(56019.4 22925.6 -119.173)
(-62553.6 66598.1 -216.781)
(-16963.3 68436.9 -123.608)
(15159.5 66961.6 -123.498)
(55048.2 62368 -216.325)
)
;

boundaryField
{
    interface
    {
        type            calculated;
        value           nonuniform List<vector> 
192
(
(-103713 71615.7 -68479.6)
(-91325.7 10550.8 -65816.1)
(-92473.9 2497.38 -67060)
(-95348.9 2391.08 -68928.1)
(-99387.8 4016.52 -71517.6)
(-105038 9266.46 -75210.5)
(-110437 28893.2 -79079.2)
(-100323 74240 -74142.2)
(-100001 38565.4 -18173.4)
(-93682.1 6251.94 -23039.3)
(-95501.8 1467.77 -23832)
(-98679.7 1404.48 -24322.3)
(-103275 2578.05 -24990.2)
(-110143 7259.83 -26007.7)
(-117957 27524 -27490.2)
(-110555 79227.7 -28851.4)
(-89906.1 30403 -4609.3)
(-85246.3 4892.18 -6134.91)
(-87077.7 1214.31 -6358.37)
(-90179.4 1232.91 -6449.32)
(-94768.1 2331.18 -6558.23)
(-101803 6766.42 -6740.09)
(-110301 26049.5 -7231.81)
(-105313 75438.4 -9217.07)
(-82850.8 27821.2 -1661.04)
(-78587.1 4502.88 -2150.18)
(-80351.6 1153.36 -2214.35)
(-83388.1 1204.62 -2232.26)
(-87940.9 2287.29 -2249.27)
(-94979.1 6586.25 -2291.96)
(-103652 25047 -2532.96)
(-99885 71863.8 -3934.02)
(-78538 26591.8 -849.454)
(-74437.8 4338.86 -1075.16)
(-76163.8 1132.23 -1101.27)
(-79168 1198 -1106.11)
(-83700.1 2271.48 -1110.49)
(-90716.4 6482.73 -1131.9)
(-99405.5 24407.5 -1281.31)
(-96193 69469.6 -2175.89)
(-75936.3 25896.6 -481.217)
(-71929.8 4251.06 -604.018)
(-73637.7 1122.41 -617.066)
(-76626.4 1195.4 -618.814)
(-81145.1 2261.5 -621.077)
(-88135.2 6415.42 -635.404)
(-96793.6 24003 -729.871)
(-93836.4 67941.4 -1280.77)
(-74441.3 25506.6 -251.862)
(-70488.5 4203.02 -315.027)
(-72187.9 1117.43 -321.438)
(-75168.5 1193.98 -322.169)
(-79678.2 2254.89 -323.545)
(-86646.5 6373.93 -332.136)
(-95270.7 23762.1 -384.913)
(-92431.7 67027.7 -686.074)
(-73755.1 25329.7 -78.6616)
(-69826.8 4181.49 -98.2428)
(-71522.6 1115.27 -100.192)
(-74499.7 1193.29 -100.405)
(-79004.7 2251.54 -100.884)
(-85961 6354.05 -103.757)
(-94564.9 23649.1 -120.762)
(-91773 66598.1 -216.781)
(-64955.1 71615.7 -107592)
(-61943.9 10550.8 -94899)
(-63071 2497.38 -96154.9)
(-64912.6 2391.08 -99063.7)
(-67500.2 4016.52 -103097)
(-71171 9266.46 -108752)
(-74892 28893.2 -114207)
(-69531.5 74240 -103877)
(-13307.5 42236 -107351)
(-16542.3 6815.31 -100193)
(-17109 1540.24 -102072)
(-17520.9 1418.92 -105266)
(-18094.4 2602.6 -109815)
(-18945.8 7399.13 -116592)
(-19992.6 28175.2 -124184)
(-19891 80386.8 -115586)
(11980.8 41765.9 -105137)
(14932.5 6749.34 -97955.5)
(15431.5 1518.79 -99747.4)
(15799.5 1405.66 -102875)
(16339.8 2591.6 -107375)
(17161.9 7368.21 -114103)
(18115.4 27948 -121639)
(17263.8 78956.4 -113149)
(58367.8 69149.3 -101028)
(55034.5 10266 -88437)
(56018.3 2407.33 -89477.6)
(57712.7 2327.2 -92209)
(60162.2 3964.97 -96101.8)
(63706.6 9174.72 -101615)
(67280.2 28277 -106914)
(61538.4 70195.3 -96951.5)
(92356.3 69149.3 -64761.1)
(79681.7 10266 -62042.6)
(80623.9 2407.33 -63153.2)
(83260.9 2327.2 -64921.4)
(87068.7 3964.97 -67437.1)
(92501.9 9174.72 -71060.4)
(97691.6 28277 -74856.8)
(87507.5 70195.3 -70145.8)
(88780.4 37077.9 -17677)
(82250.7 6098.95 -22416.8)
(83846.9 1414.54 -23180.4)
(86763.2 1355.38 -23659.5)
(91084.9 2528.75 -24326.5)
(97669.4 7161.19 -25351.9)
(105202 26860.1 -26850.7)
(97718.3 74934.9 -28263.9)
(79028.3 29055.5 -4528.37)
(74177.4 4762.63 -6028.06)
(75780.3 1164.57 -6247.36)
(78610 1181.06 -6338.83)
(82894.3 2272.58 -6452.56)
(89583 6650.55 -6645.2)
(97708.5 25365.1 -7155.28)
(92568.1 71182.2 -9158.32)
(72244.1 26521.4 -1626.49)
(67799.9 4379.95 -2105.97)
(69336.7 1103.77 -2169.01)
(72095.1 1150.18 -2187.89)
(76321.4 2222.39 -2208.18)
(82970.2 6458.48 -2257.67)
(91198.7 24347 -2510.98)
(87210.1 67628.8 -3926.11)
(68114.5 25323 -827.282)
(63839.2 4220.11 -1046.81)
(65338.9 1082.65 -1072.2)
(68059.6 1141.89 -1077.78)
(72249.4 2202.8 -1084.2)
(78847.7 6347.75 -1109.65)
(87048.1 23696.7 -1266.54)
(83565.8 65239.9 -2171.26)
(65624.5 24647.3 -467.69)
(61445.6 4135.03 -586.578)
(62927.6 1072.8 -599.177)
(65627.4 1138.18 -601.425)
(69793.1 2190.51 -604.956)
(76347.2 6276.14 -621.659)
(84490.6 23285.4 -720.505)
(81233.1 63712.3 -1277.86)
(64193.1 24268.7 -244.644)
(60069.6 4088.62 -305.66)
(61542.8 1067.8 -311.818)
(64230.8 1136.11 -312.821)
(68380.8 2182.57 -314.886)
(74902.6 6232.2 -324.74)
(82996.7 23040.5 -379.838)
(79839.7 62798.1 -684.545)
(63535.6 24097 -76.4005)
(59437.4 4067.86 -95.2966)
(60906.8 1065.64 -97.1634)
(63589.4 1135.11 -97.4619)
(67731.5 2178.6 -98.1602)
(74236.4 6211.19 -101.434)
(82303.2 22925.6 -119.173)
(79185 62368 -216.325)
(-69531.5 104029 -74142.2)
(-74960 114460 -28851.4)
(-71328.6 109148 -9217.07)
(-67784.8 103703 -3934.02)
(-65396.9 100012 -2175.89)
(-63878.7 97647.3 -1280.77)
(-62976.1 96230.3 -686.074)
(-62553.6 95563.1 -216.781)
(-19891 115715 -80309.2)
(-20004.9 124402 -28153.5)
(-18971.8 116932 -7376.67)
(-18139.7 110342 -2562.14)
(-17597.3 106115 -1294.1)
(-17257 103491 -740.652)
(-17056.6 101946 -392.701)
(-16963.3 101225 -123.608)
(17263.8 113258 -78892.3)
(18110.2 121820 -27932.2)
(17153.4 114385 -7351.87)
(16328.5 107815 -2559.48)
(15789.4 103595 -1293.24)
(15451.3 100974 -740.081)
(15252.2 99430.1 -392.365)
(15159.5 98709.5 -123.498)
(61538.4 97035.5 -70145.8)
(67291.5 107055 -28263.9)
(63737 101836 -9158.32)
(60230.9 96449.3 -3926.11)
(57869.2 92781.3 -2171.26)
(56364.4 90425.7 -1277.86)
(55468.3 89012.5 -684.545)
(55048.2 88346.6 -216.325)
)
;
    }
    symmetry
    {
        type            symmetry;
    }
    bottom
    {
        type            calculated;
        value           nonuniform List<vector> 
32
(
(-64955.1 125178 -68479.6)
(-61931.1 66442.9 -18173.4)
(-55683 52484.1 -4609.3)
(-51391.4 48005.7 -1661.04)
(-48785.2 45839.9 -849.454)
(-47219.3 44607.8 -481.217)
(-46321.8 43915 -251.862)
(-45910.4 43600.4 -78.6616)
(-13307.5 72783.2 -67191.5)
(-11986.8 18720.4 -15804.8)
(-10769 9564.11 -2644.7)
(-10002.1 8141.58 -447.24)
(-9550.82 7775.15 -134.521)
(-9284.81 7603.49 -66.11)
(-9134.27 7510.71 -33.6038)
(-9065.77 7469.08 -10.4086)
(11980.8 71947.6 -65931.4)
(11249.2 18495.5 -15634.8)
(10108.5 9408.23 -2624.54)
(9365.51 7997.34 -442.902)
(8929.28 7636.62 -132.19)
(8672.75 7468.58 -64.6683)
(8527.7 7377.95 -32.8167)
(8461.71 7337.32 -10.1589)
(58367.8 120706 -64761.1)
(55695.6 63717.1 -17677)
(49661.6 49998.2 -4528.37)
(45523.6 45603.6 -1626.49)
(43021.2 43492.3 -827.282)
(41518.7 42294.5 -467.69)
(40657.5 41621.5 -244.644)
(40262.4 41315.9 -76.4005)
)
;
    }
}


// ************************************************************************* //
