/*--------------------------------*- C++ -*----------------------------------*\
| =========                 |                                                 |
| \\      /  F ield         | OpenFOAM: The Open Source CFD Toolbox           |
|  \\    /   O peration     | Version:  v1912                                 |
|   \\  /    A nd           | Website:  www.openfoam.com                      |
|    \\/     M anipulation  |                                                 |
\*---------------------------------------------------------------------------*/
FoamFile
{
    version     2.0;
    format      ascii;
    class       pointVectorField;
    location    "0.77/solid";
    object      pointDD;
}
// * * * * * * * * * * * * * * * * * * * * * * * * * * * * * * * * * * * * * //

dimensions      [0 1 0 0 0 0 0];


internalField   nonuniform List<vector> 
405
(
(1.61686e-10 2.78187e-10 1.75671e-10)
(6.79219e-11 2.03405e-10 1.35137e-10)
(-5.57219e-12 1.78161e-10 1.2458e-10)
(-7.39587e-11 1.91169e-10 1.18128e-10)
(-1.40992e-10 2.59082e-10 1.49749e-10)
(3.38735e-10 3.60742e-10 4.39054e-10)
(1.97013e-10 3.60458e-10 4.46914e-10)
(-1.77127e-11 3.14516e-10 4.21359e-10)
(-2.20093e-10 3.43447e-10 4.06226e-10)
(-3.14874e-10 3.43828e-10 3.87618e-10)
(4.56603e-10 1.96697e-10 7.43172e-10)
(2.6999e-10 2.19806e-10 7.50529e-10)
(-3.07112e-11 1.90139e-10 7.16131e-10)
(-3.16761e-10 2.17617e-10 6.98448e-10)
(-4.51048e-10 2.02948e-10 6.71157e-10)
(4.74074e-10 -1.6095e-11 9.80878e-10)
(2.74628e-10 2.45983e-11 9.83979e-10)
(-4.5039e-11 1.27062e-11 9.40568e-10)
(-3.49794e-10 3.59619e-11 9.23618e-10)
(-4.94089e-10 1.13918e-11 8.94937e-10)
(4.67399e-10 -2.26141e-10 1.19598e-09)
(2.6115e-10 -1.84051e-10 1.19263e-09)
(-6.26731e-11 -1.89214e-10 1.13998e-09)
(-3.7136e-10 -1.60954e-10 1.12568e-09)
(-5.19987e-10 -1.79751e-10 1.09914e-09)
(4.82335e-10 -4.54613e-10 1.41473e-09)
(2.62813e-10 -4.20923e-10 1.40255e-09)
(-8.42045e-11 -4.24879e-10 1.34138e-09)
(-4.15758e-10 -3.8685e-10 1.32975e-09)
(-5.75201e-10 -3.90055e-10 1.30819e-09)
(5.49425e-10 -7.69167e-10 1.64829e-09)
(3.00432e-10 -7.41775e-10 1.62964e-09)
(-1.10236e-10 -7.37521e-10 1.56477e-09)
(-5.0474e-10 -6.95936e-10 1.55119e-09)
(-6.90546e-10 -6.8511e-10 1.53243e-09)
(6.55547e-10 -1.23792e-09 1.86393e-09)
(3.62775e-10 -1.20781e-09 1.85205e-09)
(-1.41552e-10 -1.1823e-09 1.79549e-09)
(-6.27963e-10 -1.14509e-09 1.76816e-09)
(-8.52601e-10 -1.12707e-09 1.73946e-09)
(7.02932e-10 -1.53512e-09 1.96749e-09)
(3.94311e-10 -1.51324e-09 1.96069e-09)
(-1.59667e-10 -1.46726e-09 1.91895e-09)
(-6.94603e-10 -1.4291e-09 1.88465e-09)
(-9.48703e-10 -1.40265e-09 1.84906e-09)
(1.04895e-10 1.42318e-10 8.11006e-11)
(0 0 0)
(0 0 0)
(0 0 0)
(-7.24492e-11 1.33102e-10 7.14296e-11)
(2.9162e-10 2.16216e-10 3.02096e-10)
(0 0 0)
(0 0 0)
(0 0 0)
(-2.29731e-10 2.09059e-10 2.70176e-10)
(3.91632e-10 4.39863e-11 5.60087e-10)
(0 0 0)
(0 0 0)
(0 0 0)
(-3.40597e-10 5.92348e-11 5.07319e-10)
(4.05563e-10 -1.59649e-10 7.82644e-10)
(0 0 0)
(0 0 0)
(0 0 0)
(-3.74133e-10 -1.23106e-10 7.15437e-10)
(3.98899e-10 -3.57338e-10 9.88475e-10)
(0 0 0)
(0 0 0)
(0 0 0)
(-3.94983e-10 -3.00789e-10 9.09834e-10)
(4.13881e-10 -5.65397e-10 1.19568e-09)
(0 0 0)
(0 0 0)
(0 0 0)
(-4.45621e-10 -4.89041e-10 1.10685e-09)
(4.85124e-10 -8.40858e-10 1.4083e-09)
(0 0 0)
(0 0 0)
(0 0 0)
(-5.60336e-10 -7.43477e-10 1.30989e-09)
(6.07648e-10 -1.25586e-09 1.58986e-09)
(0 0 0)
(0 0 0)
(0 0 0)
(-7.32952e-10 -1.13117e-09 1.48338e-09)
(6.51766e-10 -1.52895e-09 1.68215e-09)
(3.57593e-10 -1.51397e-09 1.69201e-09)
(-1.46468e-10 -1.4527e-09 1.67055e-09)
(-6.32702e-10 -1.4209e-09 1.63677e-09)
(-8.56318e-10 -1.38834e-09 1.58576e-09)
(6.01996e-11 6.75541e-11 2.83599e-11)
(0 0 0)
(0 0 0)
(0 0 0)
(-2.69432e-11 5.81665e-11 2.34758e-11)
(1.76445e-10 5.84527e-11 1.47727e-10)
(0 0 0)
(0 0 0)
(0 0 0)
(-1.08767e-10 5.03559e-11 1.29244e-10)
(2.43457e-10 -1.13936e-10 3.38949e-10)
(0 0 0)
(0 0 0)
(0 0 0)
(-1.78947e-10 -1.00907e-10 3.04896e-10)
(2.48366e-10 -3.00854e-10 5.35217e-10)
(0 0 0)
(0 0 0)
(0 0 0)
(-1.96999e-10 -2.67567e-10 4.88791e-10)
(2.39362e-10 -4.7898e-10 7.22781e-10)
(0 0 0)
(0 0 0)
(0 0 0)
(-2.09977e-10 -4.26219e-10 6.66027e-10)
(2.5532e-10 -6.56077e-10 9.01637e-10)
(0 0 0)
(0 0 0)
(0 0 0)
(-2.56631e-10 -5.83923e-10 8.35676e-10)
(3.3525e-10 -8.76494e-10 1.0632e-09)
(0 0 0)
(0 0 0)
(0 0 0)
(-3.75386e-10 -7.84097e-10 9.89046e-10)
(4.7974e-10 -1.21934e-09 1.17336e-09)
(0 0 0)
(0 0 0)
(0 0 0)
(-5.652e-10 -1.10107e-09 1.09334e-09)
(5.39711e-10 -1.45879e-09 1.21319e-09)
(2.88692e-10 -1.43722e-09 1.22643e-09)
(-1.21205e-10 -1.36696e-09 1.22598e-09)
(-5.14688e-10 -1.34809e-09 1.1872e-09)
(-6.99242e-10 -1.32467e-09 1.14272e-09)
(3.10727e-11 3.07025e-11 1.65874e-11)
(0 0 0)
(0 0 0)
(0 0 0)
(2.83873e-12 1.95292e-11 1.33523e-11)
(9.95799e-11 -1.95262e-11 9.95805e-11)
(0 0 0)
(0 0 0)
(0 0 0)
(-2.78116e-11 -3.19292e-11 8.71703e-11)
(1.43929e-10 -1.95044e-10 2.48427e-10)
(0 0 0)
(0 0 0)
(0 0 0)
(-6.97232e-11 -1.87441e-10 2.24842e-10)
(1.45553e-10 -3.75578e-10 4.14642e-10)
(0 0 0)
(0 0 0)
(0 0 0)
(-7.90277e-11 -3.48277e-10 3.81209e-10)
(1.3926e-10 -5.37226e-10 5.7703e-10)
(0 0 0)
(0 0 0)
(0 0 0)
(-8.96716e-11 -4.90714e-10 5.34822e-10)
(1.60173e-10 -6.84249e-10 7.23763e-10)
(0 0 0)
(0 0 0)
(0 0 0)
(-1.36656e-10 -6.18552e-10 6.73648e-10)
(2.47487e-10 -8.60224e-10 8.388e-10)
(0 0 0)
(0 0 0)
(0 0 0)
(-2.58525e-10 -7.74609e-10 7.81926e-10)
(4.00866e-10 -1.15273e-09 8.95878e-10)
(0 0 0)
(0 0 0)
(0 0 0)
(-4.53288e-10 -1.04162e-09 8.34609e-10)
(4.6421e-10 -1.37249e-09 9.00064e-10)
(2.42208e-10 -1.35756e-09 9.07902e-10)
(-1.01794e-10 -1.28985e-09 9.14401e-10)
(-4.29666e-10 -1.27213e-09 8.78559e-10)
(-5.87154e-10 -1.24479e-09 8.46709e-10)
(1.79281e-11 1.53689e-11 1.67664e-11)
(0 0 0)
(0 0 0)
(0 0 0)
(1.65279e-11 2.67321e-12 1.44953e-11)
(6.5241e-11 -5.03783e-11 8.68643e-11)
(0 0 0)
(0 0 0)
(0 0 0)
(9.40506e-12 -6.67907e-11 7.82576e-11)
(1.0079e-10 -2.25408e-10 2.05375e-10)
(0 0 0)
(0 0 0)
(0 0 0)
(-1.98906e-11 -2.23261e-10 1.88936e-10)
(1.03861e-10 -4.01735e-10 3.37981e-10)
(0 0 0)
(0 0 0)
(0 0 0)
(-2.65166e-11 -3.80567e-10 3.14214e-10)
(1.02715e-10 -5.51773e-10 4.67746e-10)
(0 0 0)
(0 0 0)
(0 0 0)
(-3.81903e-11 -5.11648e-10 4.37085e-10)
(1.29446e-10 -6.78919e-10 5.80233e-10)
(0 0 0)
(0 0 0)
(0 0 0)
(-8.70875e-11 -6.19674e-10 5.43232e-10)
(2.21333e-10 -8.29925e-10 6.59427e-10)
(0 0 0)
(0 0 0)
(0 0 0)
(-2.09885e-10 -7.50724e-10 6.17068e-10)
(3.75891e-10 -1.09701e-09 6.88904e-10)
(0 0 0)
(0 0 0)
(0 0 0)
(-4.0252e-10 -9.92117e-10 6.43172e-10)
(4.37934e-10 -1.30765e-09 6.79401e-10)
(2.28865e-10 -1.30137e-09 6.78376e-10)
(-8.71655e-11 -1.23991e-09 6.81879e-10)
(-3.86961e-10 -1.21895e-09 6.56641e-10)
(-5.32474e-10 -1.18524e-09 6.39695e-10)
(1.3041e-11 1.01546e-11 1.55101e-11)
(0 0 0)
(0 0 0)
(0 0 0)
(2.17835e-11 -3.57364e-12 1.39702e-11)
(5.31001e-11 -5.9168e-11 7.23099e-11)
(0 0 0)
(0 0 0)
(0 0 0)
(2.34151e-11 -7.84968e-11 6.65166e-11)
(8.71936e-11 -2.30732e-10 1.61813e-10)
(0 0 0)
(0 0 0)
(0 0 0)
(-1.91593e-12 -2.32868e-10 1.50734e-10)
(9.35334e-11 -4.02353e-10 2.59619e-10)
(0 0 0)
(0 0 0)
(0 0 0)
(-8.92258e-12 -3.86225e-10 2.4343e-10)
(9.7382e-11 -5.44749e-10 3.54356e-10)
(0 0 0)
(0 0 0)
(0 0 0)
(-2.25269e-11 -5.09972e-10 3.33174e-10)
(1.28763e-10 -6.61477e-10 4.3411e-10)
(0 0 0)
(0 0 0)
(0 0 0)
(-7.30262e-11 -6.07609e-10 4.08236e-10)
(2.23001e-10 -8.0159e-10 4.86727e-10)
(0 0 0)
(0 0 0)
(0 0 0)
(-1.95286e-10 -7.27598e-10 4.56868e-10)
(3.76247e-10 -1.05776e-09 5.03028e-10)
(0 0 0)
(0 0 0)
(0 0 0)
(-3.83983e-10 -9.5775e-10 4.70667e-10)
(4.36787e-10 -1.26373e-09 4.91885e-10)
(2.3247e-10 -1.26305e-09 4.85923e-10)
(-7.64962e-11 -1.20676e-09 4.85584e-10)
(-3.69087e-10 -1.18289e-09 4.70575e-10)
(-5.10452e-10 -1.14536e-09 4.63792e-10)
(1.1514e-11 8.79512e-12 1.15932e-11)
(0 0 0)
(0 0 0)
(0 0 0)
(2.35379e-11 -5.57814e-12 1.06424e-11)
(4.98055e-11 -5.9818e-11 5.13351e-11)
(0 0 0)
(0 0 0)
(0 0 0)
(2.78529e-11 -8.10445e-11 4.77657e-11)
(8.48663e-11 -2.2706e-10 1.11167e-10)
(0 0 0)
(0 0 0)
(0 0 0)
(3.11926e-12 -2.32123e-10 1.04332e-10)
(9.4246e-11 -3.94139e-10 1.75034e-10)
(0 0 0)
(0 0 0)
(0 0 0)
(-5.03998e-12 -3.81584e-10 1.64984e-10)
(1.01772e-10 -5.31749e-10 2.36125e-10)
(0 0 0)
(0 0 0)
(0 0 0)
(-2.02277e-11 -5.0084e-10 2.22859e-10)
(1.3622e-10 -6.43828e-10 2.86607e-10)
(0 0 0)
(0 0 0)
(0 0 0)
(-7.16416e-11 -5.93865e-10 2.70266e-10)
(2.31599e-10 -7.8018e-10 3.18841e-10)
(0 0 0)
(0 0 0)
(0 0 0)
(-1.92971e-10 -7.0994e-10 2.99865e-10)
(3.8334e-10 -1.03203e-09 3.27982e-10)
(0 0 0)
(0 0 0)
(0 0 0)
(-3.78271e-10 -9.35478e-10 3.07342e-10)
(4.42624e-10 -1.23556e-09 3.19701e-10)
(2.39691e-10 -1.23795e-09 3.13583e-10)
(-6.92502e-11 -1.18485e-09 3.11798e-10)
(-3.61707e-10 -1.15936e-09 3.03795e-10)
(-5.02087e-10 -1.12e-09 3.01772e-10)
(1.11135e-11 8.60304e-12 6.11746e-12)
(0 0 0)
(0 0 0)
(0 0 0)
(2.40601e-11 -6.12299e-12 5.66429e-12)
(4.91981e-11 -5.8617e-11 2.64612e-11)
(0 0 0)
(0 0 0)
(0 0 0)
(2.9068e-11 -8.09035e-11 2.47604e-11)
(8.52926e-11 -2.22553e-10 5.63563e-11)
(0 0 0)
(0 0 0)
(0 0 0)
(4.15069e-12 -2.29293e-10 5.30954e-11)
(9.66066e-11 -3.86428e-10 8.77811e-11)
(0 0 0)
(0 0 0)
(0 0 0)
(-4.87155e-12 -3.75966e-10 8.29709e-11)
(1.06267e-10 -5.21392e-10 1.17566e-10)
(0 0 0)
(0 0 0)
(0 0 0)
(-2.09728e-11 -4.92786e-10 1.11187e-10)
(1.42396e-10 -6.31663e-10 1.41935e-10)
(0 0 0)
(0 0 0)
(0 0 0)
(-7.27929e-11 -5.84039e-10 1.34037e-10)
(2.383e-10 -7.67034e-10 1.57282e-10)
(0 0 0)
(0 0 0)
(0 0 0)
(-1.93408e-10 -6.99038e-10 1.48074e-10)
(3.89057e-10 -1.01729e-09 1.61486e-10)
(0 0 0)
(0 0 0)
(0 0 0)
(-3.76586e-10 -9.22803e-10 1.51447e-10)
(4.47502e-10 -1.21967e-09 1.57258e-10)
(2.44875e-10 -1.22355e-09 1.53708e-10)
(-6.50559e-11 -1.17206e-09 1.52399e-10)
(-3.58436e-10 -1.14587e-09 1.48947e-10)
(-4.98736e-10 -1.10578e-09 1.48534e-10)
(1.74179e-11 2.99104e-12 0)
(8.26199e-12 -1.14241e-11 0)
(4.55564e-13 -1.93431e-11 0)
(-3.25236e-12 -1.60955e-11 0)
(1.21283e-11 -1.22988e-11 0)
(5.00597e-11 -6.78835e-11 0)
(2.93137e-11 -9.2816e-11 0)
(3.89076e-12 -1.08934e-10 0)
(-1.19395e-11 -1.0031e-10 0)
(2.65173e-12 -8.56325e-11 0)
(8.2305e-11 -2.25236e-10 0)
(4.68318e-11 -2.42415e-10 0)
(8.7141e-12 -2.55201e-10 0)
(-1.86059e-11 -2.44395e-10 0)
(-1.78411e-11 -2.30748e-10 0)
(9.22932e-11 -3.85316e-10 0)
(5.14796e-11 -3.96548e-10 0)
(1.01114e-11 -4.04257e-10 0)
(-2.07898e-11 -3.90608e-10 0)
(-2.54433e-11 -3.76162e-10 0)
(1.0086e-10 -5.22543e-10 0)
(5.41323e-11 -5.39051e-10 0)
(6.66781e-12 -5.46774e-10 0)
(-3.04311e-11 -5.24304e-10 0)
(-4.05754e-11 -4.97696e-10 0)
(1.35655e-10 -6.42455e-10 0)
(7.32126e-11 -6.74344e-10 0)
(-2.02709e-12 -6.85033e-10 0)
(-6.66429e-11 -6.50271e-10 0)
(-9.1442e-11 -6.01092e-10 0)
(2.27487e-10 -7.89761e-10 0)
(1.27574e-10 -8.3216e-10 0)
(-1.64311e-11 -8.3875e-10 0)
(-1.48901e-10 -7.97893e-10 0)
(-2.08916e-10 -7.30524e-10 0)
(3.6752e-10 -1.0387e-09 0)
(2.07298e-10 -1.06158e-09 0)
(-3.72634e-11 -1.04615e-09 0)
(-2.68008e-10 -1.01315e-09 0)
(-3.83522e-10 -9.55446e-10 0)
(4.37134e-10 -1.21573e-09 0)
(2.47826e-10 -1.20965e-09 0)
(-5.65367e-11 -1.16822e-09 0)
(-3.4491e-10 -1.14238e-09 0)
(-4.92151e-10 -1.1115e-09 0)
)
;

boundaryField
{
    interface
    {
        type            calculated;
    }
    symmetry
    {
        type            symmetry;
    }
    bottom
    {
        type            calculated;
    }
}


// ************************************************************************* //
