/*--------------------------------*- C++ -*----------------------------------*\
| =========                 |                                                 |
| \\      /  F ield         | OpenFOAM: The Open Source CFD Toolbox           |
|  \\    /   O peration     | Version:  v1912                                 |
|   \\  /    A nd           | Website:  www.openfoam.com                      |
|    \\/     M anipulation  |                                                 |
\*---------------------------------------------------------------------------*/
FoamFile
{
    version     2.0;
    format      ascii;
    class       volScalarField;
    location    "0.77/solid";
    object      sigmaEq;
}
// * * * * * * * * * * * * * * * * * * * * * * * * * * * * * * * * * * * * * //

dimensions      [1 -1 -2 0 0 0 0];


internalField   nonuniform List<scalar> 
256
(
665077
464024
456574
632082
378499
315767
310250
353869
371808
292515
287211
347050
389008
290105
284851
363790
401225
293915
288668
375638
395771
294338
289114
370002
314048
262747
258445
290393
63596.6
297320
294871
65590.3
390437
99691
96515.9
356929
281526
98518.8
95801.8
251938
272352
74276.7
72208.7
242906
274007
49928.5
48704.3
244106
280305
41233.1
40897.2
249791
287733
46994.9
46666.5
256636
267316
44849.8
45679.8
236709
314193
263395
259041
290344
321927
61232.2
60006.5
289198
268348
58316.8
56192.7
238777
263415
41231.1
39497.2
233540
265130
28289
28072.4
234622
272961
30085.1
30992.1
241697
286162
34406
34649
254142
287293
46099.9
45886.1
255944
396499
295648
290359
370424
286382
57410
57111.2
255011
250058
54051.9
53275
222012
246542
41597.4
41356.5
217805
248296
35684.7
36748.7
218649
256896
36298.4
38014.4
226300
271971
33276.9
34387.8
240388
279081
38030.8
38179.5
248003
404485
296546
291222
378433
265969
49697.3
49623.4
235359
234375
49291.3
48973.8
207153
232361
40087
40254
204310
235105
34928.1
36177.7
205990
245030
33920.4
35694
214878
261518
28143.3
29230.8
230272
271348
36602.4
36483.2
240538
399090
293382
288045
373162
254391
42504.9
42443.5
224150
223913
43129.4
42844.7
196990
223022
34496.6
34636
195218
226966
28185.1
29435.6
198048
238188
25972.9
27764
208217
255844
20080.3
20816.8
224763
267523
39586.6
39014.9
236911
394422
291008
285642
368550
248059
36886
36773.1
217982
217771
37487
37110.7
190924
217548
27966.9
27976.1
189798
222389
19834.8
21203.4
193517
234518
16991.9
19068.4
204605
252991
12611.6
12856.9
221987
265934
42836.3
41993.8
235456
391928
289595
284205
366080
245233
33645.8
33486
215216
214948
34034.2
33576.1
188110
215036
23453.7
23354
187285
220332
13229.7
14940.6
191462
232909
9782.99
12664.7
203010
251791
7303.01
6957.93
220817
265377
44605.2
43653.5
234967
390942
288942
283542
365105
)
;

boundaryField
{
    interface
    {
        type            calculated;
        value           nonuniform List<scalar> 
192
(
839193
525836
522269
546819
566556
568635
495977
274358
620636
478269
471898
484051
501377
518493
504168
496322
539648
460703
460075
471941
490821
514155
518797
569997
488699
430694
433075
445305
465118
490910
502288
571220
457871
406001
410269
423526
444562
471943
486488
560021
439962
389921
395279
409584
431729
460217
476567
551188
430106
380673
386615
401660
424559
453742
471140
546104
425718
376493
382695
398107
421374
450886
468773
543891
849662
536341
533209
558494
578715
580615
507549
287051
709320
523936
503883
512090
526656
536983
512324
491703
697490
514317
494203
502228
516647
526858
502747
485189
810830
507790
504180
528678
548405
550157
479761
281286
786942
479992
475657
499222
518055
519284
446865
232439
563659
425584
418710
429742
445836
461750
447269
446893
484102
408717
407306
417939
435419
457255
461562
519980
434980
380506
381843
392656
410892
434920
445639
521615
405311
356940
360064
371792
391152
416616
430322
510736
388065
341439
345614
358339
378760
405263
420708
502082
378567
332474
337213
350659
371815
398985
415467
497100
374335
328409
333400
347207
368725
396215
413185
494934
287851
508271
582261
583787
572489
563390
558093
555776
492250
513543
539432
531633
520464
512177
507031
504600
485657
503836
529119
521354
510207
501916
496762
494326
281696
480105
551277
552707
541475
532394
527095
524773
)
;
    }
    symmetry
    {
        type            symmetry;
    }
    bottom
    {
        type            calculated;
        value           nonuniform List<scalar> 
32
(
957212
509863
393838
347331
323752
310839
303863
300770
606694
126554
59995.1
56155.5
49494
42909.4
37718.8
34735.2
597584
122110
56788.1
53787.5
47080.8
40220.6
34673.4
31411
915916
472373
357229
312014
289314
276912
270207
267229
)
;
    }
}


// ************************************************************************* //
