/*--------------------------------*- C++ -*----------------------------------*\
| =========                 |                                                 |
| \\      /  F ield         | OpenFOAM: The Open Source CFD Toolbox           |
|  \\    /   O peration     | Version:  v1912                                 |
|   \\  /    A nd           | Website:  www.openfoam.com                      |
|    \\/     M anipulation  |                                                 |
\*---------------------------------------------------------------------------*/
FoamFile
{
    version     2.0;
    format      ascii;
    class       volVectorField;
    location    "0.77/solid";
    object      U;
}
// * * * * * * * * * * * * * * * * * * * * * * * * * * * * * * * * * * * * * //

dimensions      [0 1 -1 0 0 0 0];


internalField   nonuniform List<vector> 
256
(
(2.16549e-08 2.27798e-08 2.67143e-08)
(5.11551e-09 1.45823e-08 2.55791e-08)
(-6.60443e-09 1.39929e-08 2.48407e-08)
(-2.12433e-08 2.07301e-08 2.44945e-08)
(4.04307e-08 1.98228e-08 6.27856e-08)
(1.048e-08 1.24361e-08 6.09207e-08)
(-1.38197e-08 1.21989e-08 5.94162e-08)
(-4.1093e-08 1.93746e-08 5.82269e-08)
(4.46049e-08 2.59337e-09 8.85456e-08)
(1.12909e-08 -7.56335e-10 8.59973e-08)
(-1.6754e-08 -4.00921e-10 8.40498e-08)
(-4.73315e-08 4.04193e-09 8.26353e-08)
(4.37025e-08 -1.73067e-08 1.10119e-07)
(9.88768e-09 -1.87732e-08 1.06642e-07)
(-1.81894e-08 -1.78264e-08 1.04378e-07)
(-4.9231e-08 -1.41497e-08 1.03244e-07)
(4.33124e-08 -3.89971e-08 1.31188e-07)
(8.41996e-09 -4.07665e-08 1.26627e-07)
(-2.03437e-08 -3.92597e-08 1.24092e-07)
(-5.24065e-08 -3.42435e-08 1.23492e-07)
(4.71482e-08 -6.54454e-08 1.5393e-07)
(8.38671e-09 -6.78918e-08 1.4845e-07)
(-2.47688e-08 -6.58248e-08 1.45656e-07)
(-6.06294e-08 -5.90908e-08 1.45454e-07)
(5.72096e-08 -1.03957e-07 1.78194e-07)
(1.03281e-08 -1.04672e-07 1.72928e-07)
(-3.21441e-08 -1.01963e-07 1.69869e-07)
(-7.59326e-08 -9.57536e-08 1.6894e-07)
(6.79759e-08 -1.55809e-07 1.96751e-07)
(1.20412e-08 -1.51936e-07 1.93347e-07)
(-4.04724e-08 -1.48247e-07 1.90057e-07)
(-9.28244e-08 -1.44662e-07 1.86861e-07)
(1.4181e-08 8.25929e-09 1.15117e-08)
(3.20938e-09 1.37586e-09 1.27874e-08)
(-3.81784e-09 1.17386e-09 1.24629e-08)
(-1.31525e-08 7.07e-09 1.05529e-08)
(2.72864e-08 4.99031e-11 3.59226e-08)
(6.91714e-09 -6.10134e-09 3.84707e-08)
(-8.16139e-09 -6.02246e-09 3.75796e-08)
(-2.62753e-08 2.19114e-10 3.33276e-08)
(2.99769e-08 -1.57351e-08 5.84797e-08)
(7.42376e-09 -1.84784e-08 6.12872e-08)
(-9.91499e-09 -1.79368e-08 6.00012e-08)
(-3.0219e-08 -1.39781e-08 5.47193e-08)
(2.87242e-08 -3.38033e-08 7.8761e-08)
(6.15269e-09 -3.50495e-08 8.13099e-08)
(-1.07996e-08 -3.39944e-08 7.9736e-08)
(-3.1127e-08 -3.0507e-08 7.41277e-08)
(2.81301e-08 -5.37349e-08 9.81538e-08)
(4.85255e-09 -5.55457e-08 1.00229e-07)
(-1.25545e-08 -5.39719e-08 9.84094e-08)
(-3.35541e-08 -4.89276e-08 9.27713e-08)
(3.20456e-08 -7.69454e-08 1.17472e-07)
(5.03604e-09 -7.96883e-08 1.19041e-07)
(-1.67001e-08 -7.75883e-08 1.1699e-07)
(-4.13649e-08 -7.06112e-08 1.11388e-07)
(4.33221e-08 -1.08629e-07 1.35047e-07)
(7.44822e-09 -1.0937e-07 1.36319e-07)
(-2.41041e-08 -1.06695e-07 1.34067e-07)
(-5.74159e-08 -1.00599e-07 1.28343e-07)
(5.66635e-08 -1.51739e-07 1.44905e-07)
(9.76835e-09 -1.45965e-07 1.46115e-07)
(-3.26662e-08 -1.42444e-07 1.43775e-07)
(-7.64344e-08 -1.41066e-07 1.37902e-07)
(7.71899e-09 2.59818e-09 5.72435e-09)
(1.36668e-09 -2.56144e-09 7.6969e-09)
(-1.57292e-09 -2.71735e-09 7.47691e-09)
(-6.36147e-09 1.39344e-09 5.09862e-09)
(1.54703e-08 -9.92298e-09 2.24885e-08)
(3.28612e-09 -1.4636e-08 2.63007e-08)
(-3.36189e-09 -1.45265e-08 2.56852e-08)
(-1.34237e-08 -9.86796e-09 2.07435e-08)
(1.68536e-08 -2.65693e-08 4.11708e-08)
(3.41208e-09 -2.87541e-08 4.54967e-08)
(-4.03432e-09 -2.82253e-08 4.45674e-08)
(-1.53931e-08 -2.50248e-08 3.85079e-08)
(1.55165e-08 -4.36858e-08 5.93663e-08)
(2.27136e-09 -4.49006e-08 6.36309e-08)
(-4.4371e-09 -4.38976e-08 6.24503e-08)
(-1.56278e-08 -4.0678e-08 5.59449e-08)
(1.50265e-08 -6.121e-08 7.64636e-08)
(1.16447e-09 -6.32453e-08 8.0464e-08)
(-5.85975e-09 -6.17534e-08 7.90646e-08)
(-1.76434e-08 -5.67473e-08 7.23737e-08)
(1.92381e-08 -8.01726e-08 9.18096e-08)
(1.57912e-09 -8.32729e-08 9.5473e-08)
(-9.78467e-09 -8.12856e-08 9.38772e-08)
(-2.5291e-08 -7.42454e-08 8.71153e-08)
(3.13202e-08 -1.05535e-07 1.03148e-07)
(4.37696e-09 -1.06536e-07 1.06432e-07)
(-1.71809e-08 -1.04015e-07 1.0469e-07)
(-4.17263e-08 -9.80028e-08 9.79785e-08)
(4.58714e-08 -1.41974e-07 1.0641e-07)
(7.13219e-09 -1.35926e-07 1.09357e-07)
(-2.58151e-08 -1.32602e-07 1.07592e-07)
(-6.15528e-08 -1.31889e-07 1.01106e-07)
(4.54809e-09 3.51432e-10 4.39442e-09)
(4.75442e-10 -3.57243e-09 5.81567e-09)
(-4.90154e-10 -3.75466e-09 5.65189e-09)
(-2.99003e-09 -9.98019e-10 3.94013e-09)
(9.58815e-09 -1.39294e-08 1.71048e-08)
(1.47517e-09 -1.7652e-08 1.98122e-08)
(-8.97996e-10 -1.76182e-08 1.93683e-08)
(-6.89002e-09 -1.41895e-08 1.58672e-08)
(1.04575e-08 -3.13252e-08 3.1973e-08)
(1.48418e-09 -3.31879e-08 3.5001e-08)
(-9.47015e-10 -3.27627e-08 3.43237e-08)
(-7.85456e-09 -3.01724e-08 3.00561e-08)
(9.41657e-09 -4.78928e-08 4.70519e-08)
(5.79832e-10 -4.91866e-08 4.99791e-08)
(-1.09081e-09 -4.83068e-08 4.91005e-08)
(-7.90146e-09 -4.53195e-08 4.45285e-08)
(9.37953e-09 -6.34558e-08 6.1023e-08)
(-2.36795e-10 -6.57302e-08 6.37092e-08)
(-2.35238e-09 -6.43782e-08 6.26498e-08)
(-9.92177e-09 -5.94589e-08 5.79458e-08)
(1.40168e-08 -7.92584e-08 7.25512e-08)
(4.26925e-10 -8.2662e-08 7.49709e-08)
(-6.12857e-09 -8.08307e-08 7.37535e-08)
(-1.75896e-08 -7.3826e-08 6.89815e-08)
(2.63539e-08 -1.00833e-07 7.96559e-08)
(3.39789e-09 -1.02271e-07 8.18208e-08)
(-1.33465e-08 -9.9919e-08 8.04956e-08)
(-3.39115e-08 -9.38172e-08 7.57222e-08)
(4.0955e-08 -1.33977e-07 8.02007e-08)
(6.2842e-09 -1.28714e-07 8.22536e-08)
(-2.17826e-08 -1.25557e-07 8.0926e-08)
(-5.34431e-08 -1.244e-07 7.61922e-08)
(3.4163e-09 -4.87885e-10 3.74965e-09)
(2.29229e-10 -3.79267e-09 4.4906e-09)
(-1.43115e-10 -4.00284e-09 4.37256e-09)
(-1.73314e-09 -1.95494e-09 3.42735e-09)
(7.58343e-09 -1.51155e-08 1.35158e-08)
(9.98645e-10 -1.83794e-08 1.48778e-08)
(-3.78586e-11 -1.84291e-08 1.45633e-08)
(-4.47586e-09 -1.56642e-08 1.26502e-08)
(8.49154e-09 -3.25713e-08 2.47718e-08)
(1.10144e-09 -3.43583e-08 2.62199e-08)
(1.67102e-10 -3.4047e-08 2.57392e-08)
(-5.1411e-09 -3.17948e-08 2.34253e-08)
(7.88363e-09 -4.86307e-08 3.62769e-08)
(4.64023e-10 -5.00753e-08 3.75743e-08)
(1.27568e-10 -4.93251e-08 3.69438e-08)
(-5.25697e-09 -4.6475e-08 3.448e-08)
(8.34587e-09 -6.2935e-08 4.67829e-08)
(-6.50192e-11 -6.54271e-08 4.78611e-08)
(-1.06172e-09 -6.4214e-08 4.70924e-08)
(-7.41854e-09 -5.93751e-08 4.4562e-08)
(1.33296e-08 -7.6998e-08 5.49783e-08)
(8.04876e-10 -8.06276e-08 5.58597e-08)
(-4.71403e-09 -7.89402e-08 5.4971e-08)
(-1.50987e-08 -7.2009e-08 5.23799e-08)
(2.56454e-08 -9.6843e-08 5.94603e-08)
(3.83332e-09 -9.86483e-08 6.02129e-08)
(-1.16917e-08 -9.64388e-08 5.92451e-08)
(-3.10929e-08 -9.02589e-08 5.65886e-08)
(3.99688e-08 -1.28565e-07 5.92804e-08)
(6.73247e-09 -1.24109e-07 6.00599e-08)
(-1.98654e-08 -1.21085e-07 5.90936e-08)
(-5.00637e-08 -1.19387e-07 5.63573e-08)
(3.10048e-09 -7.62469e-10 2.91277e-09)
(2.2508e-10 -3.8107e-09 3.2364e-09)
(-8.3905e-11 -4.04099e-09 3.15739e-09)
(-1.34134e-09 -2.30925e-09 2.6993e-09)
(7.14853e-09 -1.5178e-08 9.92478e-09)
(1.04269e-09 -1.82978e-08 1.04744e-08)
(1.45903e-10 -1.84112e-08 1.02651e-08)
(-3.78868e-09 -1.59366e-08 9.35414e-09)
(8.28381e-09 -3.22949e-08 1.77803e-08)
(1.30176e-09 -3.41352e-08 1.82968e-08)
(4.22631e-10 -3.3915e-08 1.79766e-08)
(-4.45932e-09 -3.18076e-08 1.68905e-08)
(8.05934e-09 -4.78655e-08 2.57474e-08)
(8.87594e-10 -4.94694e-08 2.61185e-08)
(4.1854e-10 -4.88243e-08 2.5696e-08)
(-4.70488e-09 -4.60388e-08 2.45508e-08)
(8.90476e-09 -6.14614e-08 3.29233e-08)
(5.78663e-10 -6.41239e-08 3.31279e-08)
(-7.26848e-10 -6.3022e-08 3.26092e-08)
(-6.98731e-09 -5.82455e-08 3.14315e-08)
(1.41114e-08 -7.47548e-08 3.83419e-08)
(1.59378e-09 -7.8532e-08 3.84191e-08)
(-4.27289e-09 -7.69564e-08 3.78165e-08)
(-1.46373e-08 -7.01078e-08 3.6585e-08)
(2.63421e-08 -9.39564e-08 4.11274e-08)
(4.64492e-09 -9.59895e-08 4.11492e-08)
(-1.10421e-08 -9.38866e-08 4.04918e-08)
(-3.03115e-08 -8.76965e-08 3.91786e-08)
(4.04008e-08 -1.25035e-07 4.08707e-08)
(7.53666e-09 -1.21104e-07 4.09467e-08)
(-1.89973e-08 -1.18176e-07 4.02907e-08)
(-4.8802e-08 -1.16149e-07 3.88858e-08)
(3.03013e-09 -8.24257e-10 1.84182e-09)
(2.63912e-10 -3.77534e-09 1.9666e-09)
(-9.39535e-11 -4.01838e-09 1.92139e-09)
(-1.22794e-09 -2.42015e-09 1.72044e-09)
(7.13993e-09 -1.49247e-08 6.07567e-09)
(1.16967e-09 -1.80238e-08 6.26179e-09)
(1.4691e-10 -1.81783e-08 6.14218e-09)
(-3.63468e-09 -1.58159e-08 5.75144e-09)
(8.47724e-09 -3.16546e-08 1.07093e-08)
(1.55403e-09 -3.3572e-08 1.08432e-08)
(4.35609e-10 -3.34122e-08 1.066e-08)
(-4.37362e-09 -3.13556e-08 1.02028e-08)
(8.51217e-09 -4.68461e-08 1.53585e-08)
(1.28884e-09 -4.85712e-08 1.53941e-08)
(4.44519e-10 -4.7997e-08 1.51515e-08)
(-4.71955e-09 -4.52384e-08 1.46746e-08)
(9.59643e-09 -6.00785e-08 1.95025e-08)
(1.11968e-09 -6.28534e-08 1.94378e-08)
(-6.69217e-10 -6.18265e-08 1.91388e-08)
(-7.07064e-09 -5.70932e-08 1.86454e-08)
(1.49296e-08 -7.30872e-08 2.25805e-08)
(2.22509e-09 -7.69489e-08 2.24464e-08)
(-4.13751e-09 -7.54479e-08 2.20979e-08)
(-1.46788e-08 -6.86684e-08 2.15666e-08)
(2.70934e-08 -9.20908e-08 2.41216e-08)
(5.29117e-09 -9.42412e-08 2.39664e-08)
(-1.0765e-08 -9.22084e-08 2.35855e-08)
(-3.01277e-08 -8.6045e-08 2.29936e-08)
(4.09757e-08 -1.22863e-07 2.39471e-08)
(8.17865e-09 -1.1921e-07 2.38301e-08)
(-1.8574e-08 -1.16345e-07 2.34501e-08)
(-4.82973e-08 -1.14169e-07 2.27972e-08)
(3.01725e-09 -8.25644e-10 6.2917e-10)
(2.87544e-10 -3.74401e-09 6.61168e-10)
(-1.05318e-10 -3.99324e-09 6.46466e-10)
(-1.19563e-09 -2.44495e-09 5.8981e-10)
(7.17714e-09 -1.47257e-08 2.04533e-09)
(1.24352e-09 -1.7831e-08 2.08751e-09)
(1.30555e-10 -1.80053e-08 2.04862e-09)
(-3.60542e-09 -1.56806e-08 1.94021e-09)
(8.6201e-09 -3.12223e-08 3.57594e-09)
(1.69193e-09 -3.31871e-08 3.59638e-09)
(4.19631e-10 -3.30568e-08 3.53676e-09)
(-4.38712e-09 -3.10151e-08 3.4116e-09)
(8.78085e-09 -4.62109e-08 5.10137e-09)
(1.49897e-09 -4.7999e-08 5.08771e-09)
(4.3403e-10 -4.74599e-08 5.00867e-09)
(-4.78247e-09 -4.47113e-08 4.87902e-09)
(9.97678e-09 -5.92905e-08 6.45351e-09)
(1.39631e-09 -6.21201e-08 6.40675e-09)
(-6.6218e-10 -6.11306e-08 6.30914e-09)
(-7.16184e-09 -5.64199e-08 6.17416e-09)
(1.5367e-08 -7.22138e-08 7.45115e-09)
(2.54498e-09 -7.61132e-08 7.38254e-09)
(-4.08994e-09 -7.46493e-08 7.26859e-09)
(-1.47432e-08 -6.79085e-08 7.11991e-09)
(2.74978e-08 -9.11694e-08 7.94615e-09)
(5.61988e-09 -9.33676e-08 7.87223e-09)
(-1.06474e-08 -9.13696e-08 7.74752e-09)
(-3.00799e-08 -8.52298e-08 7.57706e-09)
(4.1295e-08 -1.21816e-07 7.88622e-09)
(8.50635e-09 -1.18279e-07 7.8253e-09)
(-1.83842e-08 -1.15445e-07 7.70086e-09)
(-4.80918e-08 -1.13216e-07 7.50977e-09)
)
;

boundaryField
{
    interface
    {
        type            calculated;
        value           nonuniform List<vector> 
192
(
(2.5984e-08 3.83012e-08 2.44125e-08)
(4.49889e-08 2.55602e-08 5.87155e-08)
(4.946e-08 3.41122e-09 8.40947e-08)
(4.89368e-08 -1.76299e-08 1.05706e-07)
(4.86606e-08 -3.81358e-08 1.26887e-07)
(5.21122e-08 -6.19712e-08 1.49809e-07)
(6.20499e-08 -9.87502e-08 1.74442e-07)
(7.36733e-08 -1.52865e-07 1.93548e-07)
(1.59739e-08 1.86261e-08 8.02778e-09)
(2.97011e-08 3.99884e-09 2.96826e-08)
(3.25029e-08 -1.53758e-08 5.1542e-08)
(3.13254e-08 -3.42651e-08 7.17145e-08)
(3.06368e-08 -5.29046e-08 9.10823e-08)
(3.41427e-08 -7.31474e-08 1.10494e-07)
(4.57448e-08 -1.02474e-07 1.28575e-07)
(6.15911e-08 -1.48254e-07 1.39379e-07)
(8.10591e-09 8.3955e-09 3.31617e-09)
(1.67972e-08 -7.63939e-09 1.80641e-08)
(1.83814e-08 -2.65579e-08 3.6291e-08)
(1.71365e-08 -4.41427e-08 5.45395e-08)
(1.6646e-08 -6.02797e-08 7.1776e-08)
(2.07024e-08 -7.60993e-08 8.73024e-08)
(3.35101e-08 -9.88766e-08 9.89063e-08)
(5.105e-08 -1.38131e-07 1.02483e-07)
(4.32317e-09 3.88549e-09 3.31878e-09)
(1.06056e-08 -1.24521e-08 1.51332e-08)
(1.17871e-08 -3.13682e-08 2.98826e-08)
(1.0916e-08 -4.81624e-08 4.51438e-08)
(1.10054e-08 -6.23058e-08 5.93528e-08)
(1.57154e-08 -7.50149e-08 7.10741e-08)
(2.90669e-08 -9.40989e-08 7.82372e-08)
(4.67193e-08 -1.29987e-07 7.87251e-08)
(2.84808e-09 2.26205e-09 3.38777e-09)
(8.3195e-09 -1.38468e-08 1.2906e-08)
(9.60371e-09 -3.24963e-08 2.42284e-08)
(9.23756e-09 -4.86673e-08 3.59377e-08)
(9.92705e-09 -6.15736e-08 4.66643e-08)
(1.51303e-08 -7.26732e-08 5.5002e-08)
(2.86205e-08 -9.01832e-08 5.94574e-08)
(4.59498e-08 -1.24534e-07 5.91419e-08)
(2.36834e-09 1.79979e-09 2.81625e-09)
(7.70411e-09 -1.38822e-08 9.81394e-09)
(9.2501e-09 -3.20673e-08 1.77768e-08)
(9.32199e-09 -4.77104e-08 2.59045e-08)
(1.04662e-08 -5.99485e-08 3.3236e-08)
(1.59816e-08 -7.03956e-08 3.87419e-08)
(2.94679e-08 -8.73841e-08 4.14894e-08)
(4.64607e-08 -1.21004e-07 4.11224e-08)
(2.23728e-09 1.71826e-09 1.82103e-09)
(7.61246e-09 -1.3563e-08 6.08284e-09)
(9.37984e-09 -3.13117e-08 1.07934e-08)
(9.74645e-09 -4.65664e-08 1.55389e-08)
(1.11741e-08 -5.84742e-08 1.97705e-08)
(1.6866e-08 -6.87131e-08 2.28944e-08)
(3.03241e-08 -8.55793e-08 2.44105e-08)
(4.70835e-08 -1.18844e-07 2.41706e-08)
(2.20811e-09 1.72296e-09 6.25954e-10)
(7.62137e-09 -1.3325e-08 2.05464e-09)
(9.50339e-09 -3.08214e-08 3.61167e-09)
(1.00129e-08 -4.58718e-08 5.16854e-09)
(1.15734e-08 -5.76441e-08 6.5486e-09)
(1.73447e-08 -6.78336e-08 7.5605e-09)
(3.07852e-08 -8.46875e-08 8.04727e-09)
(4.74299e-08 -1.17806e-07 7.96603e-09)
(2.25218e-08 4.51547e-08 2.82889e-08)
(4.19992e-08 3.52806e-08 6.42046e-08)
(4.61931e-08 1.44268e-08 9.02542e-08)
(4.50395e-08 -6.64612e-09 1.12296e-07)
(4.43225e-08 -2.80444e-08 1.33503e-07)
(4.78388e-08 -5.36939e-08 1.55693e-07)
(5.7769e-08 -9.32516e-08 1.79371e-07)
(6.87266e-08 -1.50301e-07 1.98213e-07)
(4.64694e-09 3.62073e-08 2.57659e-08)
(9.6373e-09 2.75407e-08 6.05063e-08)
(1.01666e-08 1.06741e-08 8.52463e-08)
(8.45203e-09 -8.61553e-09 1.05795e-07)
(6.64592e-09 -3.03144e-08 1.25456e-07)
(6.31812e-09 -5.63165e-08 1.46369e-07)
(8.24676e-09 -9.3448e-08 1.70422e-07)
(1.03676e-08 -1.46125e-07 1.92815e-07)
(-6.87581e-09 3.50571e-08 2.4066e-08)
(-1.44935e-08 2.70013e-08 5.82052e-08)
(-1.75949e-08 1.08395e-08 8.24944e-08)
(-1.90394e-08 -7.81568e-09 1.02692e-07)
(-2.11278e-08 -2.894e-08 1.22049e-07)
(-2.5518e-08 -5.43806e-08 1.42677e-07)
(-3.31412e-08 -9.08632e-08 1.66438e-07)
(-4.20939e-08 -1.42484e-07 1.8852e-07)
(-2.27077e-08 4.14104e-08 2.31854e-08)
(-4.396e-08 3.39099e-08 5.70337e-08)
(-5.06561e-08 1.52963e-08 8.16459e-08)
(-5.26272e-08 -3.93535e-09 1.02615e-07)
(-5.57494e-08 -2.36906e-08 1.22915e-07)
(-6.3908e-08 -4.77286e-08 1.44257e-07)
(-7.93287e-08 -8.54018e-08 1.67102e-07)
(-9.66215e-08 -1.39288e-07 1.85203e-07)
(-1.95899e-08 3.63141e-08 2.17394e-08)
(-3.9692e-08 2.58967e-08 5.30886e-08)
(-4.61111e-08 6.07657e-09 7.66945e-08)
(-4.8241e-08 -1.28807e-08 9.70191e-08)
(-5.1377e-08 -3.13937e-08 1.17107e-07)
(-5.90461e-08 -5.32091e-08 1.38999e-07)
(-7.39358e-08 -8.77046e-08 1.62613e-07)
(-9.11545e-08 -1.38434e-07 1.80865e-07)
(-9.38977e-09 1.69269e-08 6.8324e-09)
(-2.32208e-08 4.48578e-09 2.64101e-08)
(-2.72151e-08 -1.27651e-08 4.67345e-08)
(-2.8086e-08 -2.9673e-08 6.57268e-08)
(-3.02892e-08 -4.6368e-08 8.40803e-08)
(-3.75363e-08 -6.46455e-08 1.02553e-07)
(-5.36163e-08 -9.18317e-08 1.19792e-07)
(-7.44742e-08 -1.34497e-07 1.30083e-07)
(-1.38749e-09 6.33971e-09 2.55793e-09)
(-9.50882e-09 -7.61002e-09 1.5897e-08)
(-1.16341e-08 -2.44736e-08 3.29166e-08)
(-1.18642e-08 -4.01152e-08 5.01384e-08)
(-1.37512e-08 -5.43313e-08 6.64654e-08)
(-2.10756e-08 -6.82245e-08 8.11713e-08)
(-3.79264e-08 -8.89372e-08 9.21022e-08)
(-6.00632e-08 -1.25161e-07 9.53579e-08)
(2.52298e-09 1.47198e-09 2.78299e-09)
(-2.7513e-09 -1.29734e-08 1.36301e-08)
(-3.99504e-09 -2.99195e-08 2.7493e-08)
(-4.11767e-09 -4.48025e-08 4.19357e-08)
(-6.13549e-09 -5.70367e-08 5.53894e-08)
(-1.37003e-08 -6.78284e-08 6.64332e-08)
(-3.07077e-08 -8.48537e-08 7.30637e-08)
(-5.2618e-08 -1.17696e-07 7.33198e-08)
(4.08816e-09 -4.02699e-10 3.01512e-09)
(-9.78183e-11 -1.48122e-08 1.18748e-08)
(-1.11207e-09 -3.15995e-08 2.25763e-08)
(-1.38184e-09 -4.59055e-08 3.36807e-08)
(-3.6411e-09 -5.69146e-08 4.38283e-08)
(-1.13581e-08 -6.60902e-08 5.16418e-08)
(-2.81878e-08 -8.15174e-08 5.56885e-08)
(-4.94945e-08 -1.1278e-07 5.51969e-08)
(4.62523e-09 -1.02676e-09 2.57296e-09)
(7.5048e-10 -1.51571e-08 9.14377e-09)
(-3.06964e-10 -3.15784e-08 1.66986e-08)
(-7.6816e-10 -4.54067e-08 2.44163e-08)
(-3.21964e-09 -5.57622e-08 3.13444e-08)
(-1.09916e-08 -6.42766e-08 3.64799e-08)
(-2.7577e-08 -7.91552e-08 3.89372e-08)
(-4.8334e-08 -1.09647e-07 3.84441e-08)
(4.78993e-09 -1.2045e-09 1.68399e-09)
(9.75521e-10 -1.50295e-08 5.70558e-09)
(-1.71335e-10 -3.10843e-08 1.01847e-08)
(-7.69534e-10 -4.4564e-08 1.46939e-08)
(-3.33376e-09 -5.46032e-08 1.8689e-08)
(-1.11116e-08 -6.29039e-08 2.1593e-08)
(-2.75083e-08 -7.76401e-08 2.29357e-08)
(-4.7889e-08 -1.07749e-07 2.26196e-08)
(4.83412e-09 -1.2447e-09 5.81726e-10)
(1.02762e-09 -1.48827e-08 1.93288e-09)
(-1.71534e-10 -3.07207e-08 3.41496e-09)
(-8.36219e-10 -4.40175e-08 4.89474e-09)
(-3.44961e-09 -5.39295e-08 6.19695e-09)
(-1.12222e-08 -6.21788e-08 7.13601e-09)
(-2.75212e-08 -7.68924e-08 7.56509e-09)
(-4.77158e-08 -1.0684e-07 7.4584e-09)
(6.84796e-08 -1.57371e-07 1.98487e-07)
(5.69625e-08 -1.5309e-07 1.41446e-07)
(4.62808e-08 -1.4404e-07 1.01969e-07)
(4.1634e-08 -1.36838e-07 7.68486e-08)
(4.08706e-08 -1.31703e-07 5.70448e-08)
(4.14336e-08 -1.28253e-07 3.9445e-08)
(4.20719e-08 -1.26121e-07 2.31423e-08)
(4.24155e-08 -1.25098e-07 7.62446e-09)
(1.01507e-08 -1.515e-07 1.9476e-07)
(7.44443e-09 -1.43628e-07 1.42112e-07)
(4.78917e-09 -1.34129e-07 1.05044e-07)
(4.17911e-09 -1.28016e-07 7.92993e-08)
(4.86214e-09 -1.23991e-07 5.81575e-08)
(5.82177e-09 -1.21273e-07 3.97219e-08)
(6.54909e-09 -1.19531e-07 2.31239e-08)
(6.91345e-09 -1.18668e-07 7.59246e-09)
(-4.2291e-08 -1.46794e-07 1.91487e-07)
(-3.38911e-08 -1.39157e-07 1.39864e-07)
(-2.68246e-08 -1.29868e-07 1.03371e-07)
(-2.28613e-08 -1.23926e-07 7.80467e-08)
(-2.10461e-08 -1.20032e-07 5.72482e-08)
(-2.02362e-08 -1.17409e-07 3.91058e-08)
(-1.98347e-08 -1.15729e-07 2.27673e-08)
(-1.96502e-08 -1.14897e-07 7.47576e-09)
(-9.68348e-08 -1.43072e-07 1.88649e-07)
(-8.00638e-08 -1.39335e-07 1.34708e-07)
(-6.50956e-08 -1.30877e-07 9.69392e-08)
(-5.70849e-08 -1.24181e-07 7.30668e-08)
(-5.37922e-08 -1.19441e-07 5.42947e-08)
(-5.25601e-08 -1.16276e-07 3.75811e-08)
(-5.20519e-08 -1.14328e-07 2.20639e-08)
(-5.18376e-08 -1.13395e-07 7.27163e-09)
)
;
    }
    symmetry
    {
        type            symmetry;
    }
    bottom
    {
        type            calculated;
        value           uniform (0 0 0);
    }
}


// ************************************************************************* //
