/*--------------------------------*- C++ -*----------------------------------*\
| =========                 |                                                 |
| \\      /  F ield         | OpenFOAM: The Open Source CFD Toolbox           |
|  \\    /   O peration     | Version:  v1912                                 |
|   \\  /    A nd           | Website:  www.openfoam.com                      |
|    \\/     M anipulation  |                                                 |
\*---------------------------------------------------------------------------*/
FoamFile
{
    version     2.0;
    format      ascii;
    class       volVectorField;
    location    "0.27/solid";
    object      D;
}
// * * * * * * * * * * * * * * * * * * * * * * * * * * * * * * * * * * * * * //

dimensions      [0 1 0 0 0 0 0];


internalField   nonuniform List<vector> 
256
(
(1.16657e-08 2.38542e-08 1.2071e-08)
(2.4199e-10 1.42529e-08 1.15106e-08)
(4.37755e-10 1.41293e-08 1.16616e-08)
(-1.09269e-08 2.32675e-08 1.26317e-08)
(1.7679e-08 1.99423e-08 1.87519e-08)
(2.44655e-09 1.49783e-08 1.80966e-08)
(-1.25556e-10 1.45616e-08 1.85096e-08)
(-1.52903e-08 1.84595e-08 2.01247e-08)
(1.85551e-08 1.61146e-08 1.97414e-08)
(3.47893e-09 1.41852e-08 1.90288e-08)
(8.16804e-10 1.34786e-08 1.96307e-08)
(-1.4208e-08 1.38119e-08 2.16725e-08)
(1.90355e-08 1.45381e-08 1.93592e-08)
(4.24533e-09 1.35088e-08 1.87016e-08)
(2.36105e-09 1.25384e-08 1.94381e-08)
(-1.23891e-08 1.14909e-08 2.16911e-08)
(2.00595e-08 1.43705e-08 1.87029e-08)
(5.26898e-09 1.3391e-08 1.82393e-08)
(3.98006e-09 1.21751e-08 1.90789e-08)
(-1.07735e-08 1.06303e-08 2.1344e-08)
(2.13871e-08 1.52343e-08 1.80855e-08)
(6.49325e-09 1.40482e-08 1.78798e-08)
(5.72875e-09 1.2593e-08 1.88062e-08)
(-9.13951e-09 1.08237e-08 2.09849e-08)
(2.2762e-08 1.57789e-08 1.78422e-08)
(7.82236e-09 1.43352e-08 1.78387e-08)
(7.70338e-09 1.26464e-08 1.88464e-08)
(-7.28029e-09 1.07009e-08 2.09749e-08)
(2.48806e-08 -1.31108e-09 1.89518e-08)
(9.28916e-09 -2.07609e-09 1.89807e-08)
(9.82305e-09 -3.8795e-09 2.00591e-08)
(-5.96942e-09 -6.83516e-09 2.22741e-08)
(1.04773e-08 1.30893e-08 -4.54918e-10)
(1.36382e-10 4.59656e-09 -3.11771e-10)
(2.29996e-10 4.44315e-09 -1.42717e-10)
(-9.93991e-09 1.24719e-08 4.56284e-11)
(1.61178e-08 1.37109e-08 2.47647e-09)
(2.11281e-09 9.1483e-09 2.76904e-09)
(-5.51695e-10 8.67105e-09 3.17811e-09)
(-1.43454e-08 1.21458e-08 3.67088e-09)
(1.68423e-08 1.33112e-08 3.75808e-09)
(3.00445e-09 1.14486e-08 4.14917e-09)
(1.90489e-10 1.06922e-08 4.72757e-09)
(-1.34498e-08 1.09476e-08 5.44842e-09)
(1.71914e-08 1.32861e-08 3.54455e-09)
(3.65963e-09 1.22501e-08 4.03822e-09)
(1.57703e-09 1.12464e-08 4.74074e-09)
(-1.17618e-08 1.02075e-08 5.60627e-09)
(1.81824e-08 1.36817e-08 2.74034e-09)
(4.60217e-09 1.26755e-08 3.34417e-09)
(3.06166e-09 1.14388e-08 4.14467e-09)
(-1.03201e-08 9.93136e-09 5.09786e-09)
(1.9622e-08 1.44995e-08 1.89234e-09)
(5.79262e-09 1.32862e-08 2.58642e-09)
(4.66768e-09 1.18206e-08 3.4693e-09)
(-8.96679e-09 1.00971e-08 4.49799e-09)
(2.12292e-08 1.46228e-08 1.46813e-09)
(7.12979e-09 1.31601e-08 2.20191e-09)
(6.48836e-09 1.14785e-08 3.1507e-09)
(-7.48433e-09 9.58909e-09 4.27383e-09)
(2.3562e-08 -1.71408e-09 1.85335e-09)
(8.61263e-09 -2.47194e-09 2.5836e-09)
(8.47839e-09 -4.22711e-09 3.55984e-09)
(-6.51977e-09 -7.10614e-09 4.75097e-09)
(9.62236e-09 1.02183e-08 -4.04481e-10)
(4.71171e-11 2.42327e-09 -3.22136e-10)
(1.37885e-10 2.28363e-09 -1.9767e-10)
(-9.25633e-09 9.70358e-09 -4.88572e-11)
(1.52026e-08 1.03266e-08 8.74673e-10)
(1.8447e-09 6.07595e-09 1.11326e-09)
(-8.0164e-10 5.62103e-09 1.42341e-09)
(-1.39175e-08 8.89982e-09 1.75857e-09)
(1.59698e-08 1.05895e-08 1.97683e-09)
(2.63515e-09 8.81271e-09 2.3232e-09)
(-2.51481e-10 8.08297e-09 2.76989e-09)
(-1.33483e-08 8.36638e-09 3.26054e-09)
(1.62423e-08 1.12867e-08 2.1745e-09)
(3.19555e-09 1.02867e-08 2.61077e-09)
(9.82789e-10 9.31299e-09 3.16324e-09)
(-1.18244e-08 8.34515e-09 3.77645e-09)
(1.7158e-08 1.20623e-08 1.79713e-09)
(4.05935e-09 1.10772e-08 2.30799e-09)
(2.34167e-09 9.87371e-09 2.9473e-09)
(-1.05062e-08 8.44584e-09 3.66294e-09)
(1.86221e-08 1.286e-08 1.38576e-09)
(5.21789e-09 1.16498e-08 1.94046e-09)
(3.81189e-09 1.0222e-08 2.65187e-09)
(-9.34076e-09 8.59379e-09 3.47175e-09)
(2.03992e-08 1.26709e-08 1.46541e-09)
(6.57768e-09 1.12272e-08 2.02636e-09)
(5.47296e-09 9.59153e-09 2.78901e-09)
(-8.16414e-09 7.78544e-09 3.71419e-09)
(2.29882e-08 -3.42874e-09 2.3644e-09)
(8.08825e-09 -4.02157e-09 2.90354e-09)
(7.32066e-09 -5.72158e-09 3.67689e-09)
(-7.5735e-09 -8.66047e-09 4.66429e-09)
(9.00206e-09 9.43428e-09 -6.74e-11)
(-2.2507e-11 2.04381e-09 -1.95238e-11)
(1.10126e-10 1.92175e-09 6.94218e-11)
(-8.76644e-09 9.01476e-09 1.86199e-10)
(1.44164e-08 8.8351e-09 5.51559e-10)
(1.63436e-09 4.78507e-09 7.24381e-10)
(-9.19374e-10 4.37357e-09 9.50188e-10)
(-1.34925e-08 7.57819e-09 1.19331e-09)
(1.5238e-08 8.71074e-09 1.27359e-09)
(2.35175e-09 7.01096e-09 1.53763e-09)
(-5.2692e-10 6.33421e-09 1.86772e-09)
(-1.31984e-08 6.67726e-09 2.22074e-09)
(1.54798e-08 9.33187e-09 1.60702e-09)
(2.83754e-09 8.38118e-09 1.94301e-09)
(5.72678e-10 7.46216e-09 2.35763e-09)
(-1.18465e-08 6.57765e-09 2.8094e-09)
(1.63042e-08 1.00967e-08 1.59283e-09)
(3.62057e-09 9.15082e-09 1.99101e-09)
(1.83187e-09 8.00143e-09 2.47728e-09)
(-1.06137e-08 6.65865e-09 3.01442e-09)
(1.77133e-08 1.079e-08 1.59294e-09)
(4.72494e-09 9.60351e-09 2.0326e-09)
(3.20509e-09 8.22928e-09 2.57813e-09)
(-9.54181e-09 6.69383e-09 3.1979e-09)
(1.95629e-08 1.04076e-08 2.04772e-09)
(6.0823e-09 9.01639e-09 2.49642e-09)
(4.74302e-09 7.43334e-09 3.08179e-09)
(-8.56123e-09 5.68347e-09 3.78341e-09)
(2.23327e-08 -5.39868e-09 3.22106e-09)
(7.6045e-09 -5.78123e-09 3.63684e-09)
(6.47227e-09 -7.43333e-09 4.22746e-09)
(-8.25635e-09 -1.0487e-08 4.99179e-09)
(8.58867e-09 9.04202e-09 3.78163e-11)
(-8.13839e-11 1.89809e-09 7.57844e-11)
(1.1362e-10 1.79053e-09 1.38309e-10)
(-8.44082e-09 8.69396e-09 2.15361e-10)
(1.3785e-08 8.05508e-09 3.75438e-10)
(1.45539e-09 4.14618e-09 5.16882e-10)
(-9.48373e-10 3.77431e-09 6.76899e-10)
(-1.31081e-08 6.93993e-09 8.28358e-10)
(1.45959e-08 7.47603e-09 8.04615e-10)
(2.1059e-09 5.8445e-09 1.02338e-09)
(-6.57844e-10 5.21912e-09 1.25944e-09)
(-1.29649e-08 5.61269e-09 1.47983e-09)
(1.48098e-08 7.74383e-09 1.1094e-09)
(2.52969e-09 6.84299e-09 1.38667e-09)
(3.39784e-10 5.97828e-09 1.68628e-09)
(-1.17436e-08 5.16429e-09 1.97682e-09)
(1.55571e-08 8.27536e-09 1.27874e-09)
(3.24202e-09 7.37297e-09 1.60753e-09)
(1.52162e-09 6.27693e-09 1.96233e-09)
(-1.05786e-08 5.00527e-09 2.31582e-09)
(1.68988e-08 8.80198e-09 1.52051e-09)
(4.28922e-09 7.64962e-09 1.88773e-09)
(2.82414e-09 6.32614e-09 2.2884e-09)
(-9.56517e-09 4.86236e-09 2.70098e-09)
(1.87681e-08 8.30939e-09 2.13102e-09)
(5.62732e-09 6.97757e-09 2.51046e-09)
(4.27309e-09 5.44102e-09 2.94147e-09)
(-8.71054e-09 3.72676e-09 3.41309e-09)
(2.16364e-08 -7.23491e-09 3.28718e-09)
(7.14373e-09 -7.44433e-09 3.63779e-09)
(5.91615e-09 -9.05655e-09 4.07184e-09)
(-8.59475e-09 -1.22031e-08 4.59508e-09)
(8.33037e-09 8.77684e-09 4.69476e-11)
(-1.24208e-10 1.78529e-09 7.47236e-11)
(1.2422e-10 1.68832e-09 1.16274e-10)
(-8.23759e-09 8.47812e-09 1.64106e-10)
(1.33475e-08 7.54565e-09 2.41005e-10)
(1.32121e-09 3.73706e-09 3.45994e-10)
(-9.44073e-10 3.39485e-09 4.52718e-10)
(-1.28292e-08 6.53317e-09 5.41207e-10)
(1.41141e-08 6.63922e-09 4.89678e-10)
(1.91382e-09 5.06462e-09 6.54661e-10)
(-7.11084e-10 4.47913e-09 8.12975e-10)
(-1.27528e-08 4.90471e-09 9.40202e-10)
(1.42934e-08 6.5728e-09 7.16497e-10)
(2.28706e-09 5.71515e-09 9.26374e-10)
(2.18691e-10 4.89376e-09 1.12868e-09)
(-1.16114e-08 4.12987e-09 1.30003e-09)
(1.49833e-08 6.84076e-09 9.23318e-10)
(2.94491e-09 5.97629e-09 1.17177e-09)
(1.34349e-09 4.92316e-09 1.41293e-09)
(-1.0498e-08 3.704e-09 1.62665e-09)
(1.62724e-08 7.19601e-09 1.22574e-09)
(3.9458e-09 6.07551e-09 1.50374e-09)
(2.5931e-09 4.79243e-09 1.77747e-09)
(-9.52956e-09 3.38031e-09 2.03156e-09)
(1.81427e-08 6.62503e-09 1.7977e-09)
(5.26202e-09 5.3417e-09 2.08647e-09)
(3.97846e-09 3.84149e-09 2.3817e-09)
(-8.75981e-09 2.15298e-09 2.67645e-09)
(2.10633e-08 -8.75185e-09 2.74472e-09)
(6.76611e-09 -8.83967e-09 3.01342e-09)
(5.56123e-09 -1.04209e-08 3.31046e-09)
(-8.76822e-09 -1.36267e-08 3.64162e-09)
(8.1809e-09 8.60749e-09 2.98755e-11)
(-1.5037e-10 1.70481e-09 4.62274e-11)
(1.32632e-10 1.61465e-09 6.99901e-11)
(-8.12e-09 8.33948e-09 9.64737e-11)
(1.30834e-08 7.21063e-09 1.32357e-10)
(1.23692e-09 3.46641e-09 1.95358e-10)
(-9.35256e-10 3.14342e-09 2.56516e-10)
(-1.26585e-08 6.26363e-09 3.03462e-10)
(1.38087e-08 6.09693e-09 2.6445e-10)
(1.78869e-09 4.56279e-09 3.6508e-10)
(-7.32747e-10 4.00367e-09 4.5611e-10)
(-1.26096e-08 4.44667e-09 5.22323e-10)
(1.39573e-08 5.80229e-09 4.0301e-10)
(2.12616e-09 4.97596e-09 5.32047e-10)
(1.56799e-10 4.18372e-09 6.48871e-10)
(-1.1511e-08 3.45065e-09 7.38786e-10)
(1.46086e-08 5.8735e-09 5.57661e-10)
(2.74741e-09 5.03603e-09 7.10507e-10)
(1.24432e-09 4.01207e-09 8.50367e-10)
(-1.04314e-08 2.82705e-09 9.64563e-10)
(1.5864e-08 6.09679e-09 7.88506e-10)
(3.7171e-09 4.99901e-09 9.59432e-10)
(2.45777e-09 3.74343e-09 1.11875e-09)
(-9.49537e-09 2.36543e-09 1.25685e-09)
(1.77319e-08 5.46586e-09 1.18434e-09)
(5.01666e-09 4.21461e-09 1.36209e-09)
(3.80095e-09 2.7391e-09 1.53426e-09)
(-8.78099e-09 1.06916e-09 1.69663e-09)
(2.06815e-08 -9.82293e-09 1.79898e-09)
(6.51008e-09 -9.83566e-09 1.96508e-09)
(5.34436e-09 -1.13958e-08 2.13821e-09)
(-8.86819e-09 -1.4634e-08 2.32209e-09)
(8.11231e-09 8.52508e-09 9.73424e-12)
(-1.62486e-10 1.6634e-09 1.50596e-11)
(1.36908e-10 1.57657e-09 2.279e-11)
(-8.06602e-09 8.27176e-09 3.13299e-11)
(1.29606e-08 7.04167e-09 4.18663e-11)
(1.19729e-09 3.32869e-09 6.26532e-11)
(-9.30223e-10 3.01509e-09 8.25691e-11)
(-1.2579e-08 6.12638e-09 9.74234e-11)
(1.36635e-08 5.82616e-09 8.36899e-11)
(1.72855e-09 4.3128e-09 1.17213e-10)
(-7.41146e-10 3.76667e-09 1.46907e-10)
(-1.25405e-08 4.21725e-09 1.67596e-10)
(1.37947e-08 5.41912e-09 1.30366e-10)
(2.04768e-09 4.60908e-09 1.73595e-10)
(1.29749e-10 3.83137e-09 2.11783e-10)
(-1.14604e-08 3.11282e-09 2.39909e-10)
(1.44266e-08 5.38971e-09 1.86645e-10)
(2.65057e-09 4.56609e-09 2.37912e-10)
(1.19895e-09 3.55675e-09 2.83731e-10)
(-1.03971e-08 2.38851e-09 3.19756e-10)
(1.56657e-08 5.54297e-09 2.7145e-10)
(3.60472e-09 4.45671e-09 3.28758e-10)
(2.39399e-09 3.21497e-09 3.81045e-10)
(-9.47809e-09 1.85411e-09 4.25025e-10)
(1.75321e-08 4.87835e-09 4.11937e-10)
(4.89563e-09 3.64268e-09 4.71524e-10)
(3.71592e-09 2.17964e-09 5.28093e-10)
(-8.79163e-09 5.19735e-10 5.80192e-10)
(2.04955e-08 -1.0374e-08 6.24344e-10)
(6.38332e-09 -1.03513e-08 6.80098e-10)
(5.23956e-09 -1.19007e-08 7.36968e-10)
(-8.918e-09 -1.51528e-08 7.96195e-10)
)
;

boundaryField
{
    interface
    {
        type            solidTraction;
        traction        nonuniform List<vector> 
192
(
(59.7668 -0.279313 -3.80964)
(61.743 -0.0560913 -5.62221)
(62.6909 0.294389 -5.93249)
(63.3461 0.67796 -5.90294)
(63.2732 1.01081 -5.71527)
(63.9812 1.66684 -5.471)
(62.0188 2.11933 -4.93978)
(65.3412 4.5083 -4.49876)
(57.9268 -0.168163 -1.9583)
(58.9339 0.0516723 -3.05479)
(59.4859 0.383018 -3.19329)
(59.9719 0.7942 -3.12369)
(59.7508 1.16115 -2.96026)
(60.4793 1.90121 -2.76267)
(58.3192 2.40743 -2.41864)
(62.039 4.95567 -2.13018)
(60.9339 -0.139927 -1.58258)
(61.8484 0.0978913 -2.44739)
(62.401 0.448126 -2.55499)
(62.8859 0.904592 -2.49728)
(62.5347 1.32415 -2.36523)
(63.1567 2.16003 -2.20222)
(60.4864 2.75162 -1.93828)
(64.0272 5.49865 -1.70098)
(60.9794 -0.0930307 -1.00845)
(61.6974 0.163107 -1.61547)
(62.1219 0.522877 -1.68501)
(62.5388 1.00154 -1.63368)
(62.0984 1.44813 -1.53197)
(62.6854 2.32903 -1.41005)
(59.862 2.95814 -1.23476)
(63.4366 5.76886 -1.0795)
(61.8457 -0.074733 -0.751987)
(62.5089 0.200118 -1.20054)
(62.8754 0.576765 -1.25286)
(63.2581 1.07777 -1.21462)
(62.7424 1.55087 -1.13923)
(63.2628 2.47004 -1.0472)
(60.2485 3.13487 -0.920636)
(63.7218 6.00236 -0.804285)
(61.9925 -0.0579513 -0.473158)
(62.6023 0.230747 -0.769652)
(62.9159 0.618625 -0.804045)
(63.2674 1.13304 -0.777022)
(62.7071 1.62164 -0.726099)
(63.1983 2.56156 -0.664447)
(60.1016 3.24557 -0.584173)
(63.5571 6.14356 -0.510827)
(62.273 -0.0509319 -0.28005)
(62.8664 0.247551 -0.454066)
(63.1536 0.644762 -0.474678)
(63.4875 1.16915 -0.458901)
(62.8951 1.66916 -0.429323)
(63.3566 2.62332 -0.392664)
(60.1891 3.32104 -0.346454)
(63.6066 6.24039 -0.302302)
(62.3188 -0.04584 -0.0861097)
(62.8979 0.257167 -0.142611)
(63.1698 0.65818 -0.149251)
(63.4942 1.18657 -0.143853)
(62.8905 1.69158 -0.134254)
(63.3406 2.65143 -0.122274)
(60.154 3.35559 -0.108015)
(63.5546 6.28421 -0.0938125)
(5.78146 0.856719 25.1931)
(8.80718 0.799532 20.1394)
(9.40144 0.508191 17.6569)
(9.46581 0.36439 17.2898)
(9.38745 0.317042 18.0326)
(9.32149 0.381626 19.624)
(9.20914 0.451061 22.3713)
(9.62211 0.653513 24.9547)
(4.13093 0.42544 32.6212)
(6.81059 0.447818 31.5535)
(7.26385 0.253596 30.9687)
(7.2793 0.118329 30.9455)
(7.23298 0.0343705 31.2452)
(7.23903 0.00308828 31.8189)
(7.29595 0.00276468 32.6648)
(7.91092 0.0702899 33.3516)
(4.4164 0.240047 29.0804)
(7.2488 0.246872 28.3085)
(7.76216 0.100902 27.8043)
(7.78388 -0.0399447 27.7584)
(7.71151 -0.152802 28.0799)
(7.65928 -0.252513 28.6123)
(7.62003 -0.323206 29.5525)
(8.13337 -0.340147 30.5431)
(5.1905 0.161447 29.8521)
(8.46285 0.136447 29.3862)
(9.08531 -0.00264499 29.0085)
(9.12398 -0.156899 28.9813)
(9.01747 -0.28427 29.24)
(8.92649 -0.426838 29.5388)
(8.75112 -0.541346 30.1528)
(9.23481 -0.687026 30.7682)
(-12.2732 0.888216 2.33266)
(-7.4592 0.606959 3.70659)
(-5.2929 -0.0295585 3.92143)
(-4.51805 -0.555391 3.91304)
(-5.00367 -0.888116 3.83268)
(-4.34035 -1.43829 3.85442)
(-6.68754 -1.49719 3.6981)
(2.80552 -3.93994 3.99136)
(-21.5946 0.290371 0.494009)
(-20.5899 0.100295 1.12112)
(-20.0988 -0.270722 1.1495)
(-19.5809 -0.65419 1.10871)
(-19.7024 -0.873615 1.08697)
(-17.9673 -1.36081 1.18639)
(-18.8282 -1.17533 1.2424)
(-6.60432 -3.65268 1.57166)
(-21.3695 0.141147 0.73179)
(-20.581 -0.0636041 1.38366)
(-20.0978 -0.359095 1.47508)
(-19.4422 -0.712398 1.4625)
(-19.4262 -0.896241 1.43659)
(-17.2401 -1.38159 1.47388)
(-17.8455 -1.11435 1.45341)
(-4.08252 -3.80904 1.54838)
(-23.5115 0.0527431 0.451553)
(-23.0465 -0.164583 0.950865)
(-22.7351 -0.420497 1.027)
(-22.0272 -0.742721 1.01787)
(-21.8581 -0.883628 0.996999)
(-19.2033 -1.34538 1.02003)
(-19.3798 -1.0043 1.00409)
(-4.4186 -3.79078 1.05899)
(-23.6854 0.038883 0.432879)
(-23.2281 -0.191765 0.831647)
(-22.8998 -0.44578 0.901258)
(-22.1105 -0.766748 0.897764)
(-21.8594 -0.8967 0.878)
(-18.9733 -1.35841 0.87855)
(-19.0138 -0.991688 0.846031)
(-3.37227 -3.87129 0.845834)
(-24.2592 0.0314162 0.280753)
(-23.8257 -0.207058 0.552308)
(-23.4937 -0.461523 0.601678)
(-22.6471 -0.78162 0.599695)
(-22.3212 -0.902646 0.58641)
(-19.2415 -1.36095 0.584941)
(-19.1366 -0.974186 0.56308)
(-2.98773 -3.90877 0.559923)
(-24.3554 0.0319516 0.18064)
(-23.9134 -0.211613 0.342391)
(-23.5632 -0.469209 0.372608)
(-22.6768 -0.791752 0.37166)
(-22.3104 -0.91075 0.363615)
(-19.1303 -1.36975 0.359928)
(-18.9651 -0.97458 0.345121)
(-2.5263 -3.94738 0.336856)
(-24.4873 0.0308987 0.0547064)
(-24.0476 -0.214661 0.107414)
(-23.6902 -0.473119 0.117325)
(-22.7848 -0.796114 0.116903)
(-22.3928 -0.913837 0.114526)
(-19.1605 -1.37194 0.113324)
(-18.9487 -0.972746 0.109488)
(-2.37113 -3.96294 0.106736)
(9.63979 -24.7237 -0.608032)
(9.23861 -22.0031 -0.405524)
(9.36883 -18.9979 -0.317506)
(9.46257 -17.0021 -0.211375)
(9.58678 -15.5112 -0.167359)
(9.66235 -14.4429 -0.105779)
(9.72077 -13.7836 -0.0665094)
(9.74692 -13.4579 -0.0203508)
(7.91853 -33.1477 -0.0166346)
(7.30709 -32.3688 0.0503537)
(7.25344 -31.348 0.0691524)
(7.24786 -30.5511 0.0716018)
(7.28707 -29.9089 0.0533207)
(7.30843 -29.4204 0.04193)
(7.33107 -29.1119 0.0237005)
(7.34062 -28.9434 0.00920512)
(8.13931 -30.3404 0.399044)
(7.62553 -29.2504 0.382062)
(7.66632 -28.1291 0.33076)
(7.72089 -27.3626 0.260508)
(7.79626 -26.6933 0.198311)
(7.84058 -26.237 0.137699)
(7.87628 -25.9279 0.0806784)
(7.89141 -25.7826 0.0266976)
(9.22916 -30.5778 0.747372)
(8.74417 -29.8704 0.601946)
(8.92092 -29.1066 0.504445)
(9.01998 -28.6282 0.385752)
(9.14496 -28.1224 0.297349)
(9.21668 -27.8169 0.203483)
(9.27258 -27.5833 0.121645)
(9.29698 -27.4756 0.0398472)
)
;
        pressure        uniform 0;
        secondOrder     false;
        setEffectiveTraction false;
        relaxationFactor 1;
        value           nonuniform List<vector> 
192
(
(6.95466e-08 3.11903e-08 1.17668e-08)
(7.25124e-08 2.16646e-08 1.83385e-08)
(7.4446e-08 1.64537e-08 1.92869e-08)
(7.64545e-08 1.49144e-08 1.88517e-08)
(7.95743e-08 1.49585e-08 1.81521e-08)
(8.4103e-08 1.59102e-08 1.75293e-08)
(8.99046e-08 1.66526e-08 1.73298e-08)
(9.60833e-08 -4.75343e-10 1.85054e-08)
(6.15696e-08 1.9738e-08 -9.66081e-10)
(6.51004e-08 1.53022e-08 1.85687e-09)
(6.65861e-08 1.35797e-08 3.11125e-09)
(6.83084e-08 1.36213e-08 2.84575e-09)
(7.14052e-08 1.42896e-08 2.01448e-09)
(7.62522e-08 1.52615e-08 1.20064e-09)
(8.28847e-08 1.56082e-08 8.77027e-10)
(9.07117e-08 -8.08086e-10 1.3799e-09)
(5.50213e-08 1.64245e-08 -7.73544e-10)
(5.93586e-08 1.19135e-08 4.48929e-10)
(6.08997e-08 1.08495e-08 1.57533e-09)
(6.24626e-08 1.15838e-08 1.7462e-09)
(6.54043e-08 1.26575e-08 1.32721e-09)
(7.02175e-08 1.36706e-08 9.08229e-10)
(7.70462e-08 1.37629e-08 1.04853e-09)
(8.57286e-08 -2.46472e-09 2.05679e-09)
(5.09078e-08 1.52889e-08 -3.25988e-10)
(5.53115e-08 1.03941e-08 1.96893e-10)
(5.69483e-08 8.97667e-09 9.29821e-10)
(5.84623e-08 9.59859e-09 1.24861e-09)
(6.12735e-08 1.06553e-08 1.19236e-09)
(6.59783e-08 1.16051e-08 1.16188e-09)
(7.28328e-08 1.15629e-08 1.63975e-09)
(8.19175e-08 -4.40939e-09 2.88294e-09)
(4.84634e-08 1.46354e-08 -1.30232e-10)
(5.2722e-08 9.55692e-09 1.08011e-10)
(5.43693e-08 7.73232e-09 5.23425e-10)
(5.58553e-08 7.98432e-09 8.12606e-10)
(5.85735e-08 8.79787e-09 9.48322e-10)
(6.31772e-08 9.60513e-09 1.16011e-09)
(6.99997e-08 9.49431e-09 1.77582e-09)
(7.92521e-08 -6.24157e-09 2.9697e-09)
(4.69994e-08 1.41963e-08 -5.50752e-11)
(5.11123e-08 8.99161e-09 6.54691e-11)
(5.27243e-08 6.8758e-09 2.92742e-10)
(5.41775e-08 6.7903e-09 5.03252e-10)
(5.68306e-08 7.33577e-09 6.86072e-10)
(6.13591e-08 7.98629e-09 9.66938e-10)
(6.81388e-08 7.82328e-09 1.53855e-09)
(7.74633e-08 -7.76131e-09 2.50591e-09)
(4.61606e-08 1.39235e-08 -2.46853e-11)
(5.01765e-08 8.61761e-09 3.55593e-11)
(5.17505e-08 6.31552e-09 1.51716e-10)
(5.31739e-08 6.00247e-09 2.78258e-10)
(5.57842e-08 6.35046e-09 4.18402e-10)
(6.02644e-08 6.87804e-09 6.36754e-10)
(6.70113e-08 6.67078e-09 1.03162e-09)
(7.63692e-08 -8.8352e-09 1.65697e-09)
(4.57761e-08 1.37933e-08 -7.42649e-12)
(4.97458e-08 8.42949e-09 1.11575e-11)
(5.12984e-08 6.03479e-09 4.73642e-11)
(5.27047e-08 5.61009e-09 8.97009e-11)
(5.52933e-08 5.85772e-09 1.41108e-10)
(5.97501e-08 6.31979e-09 2.21841e-10)
(6.64801e-08 6.08635e-09 3.61966e-10)
(7.58525e-08 -9.38762e-09 5.77817e-10)
(1.16787e-08 3.15601e-08 7.38064e-08)
(1.77233e-08 2.186e-08 7.74206e-08)
(1.86057e-08 1.62665e-08 7.94726e-08)
(1.91263e-08 1.42786e-08 8.06439e-08)
(2.02205e-08 1.40521e-08 8.21093e-08)
(2.16153e-08 1.50192e-08 8.47376e-08)
(2.30189e-08 1.59955e-08 8.90768e-08)
(2.51126e-08 -8.73969e-10 9.46198e-08)
(1.40334e-10 2.16548e-08 6.91502e-08)
(2.3871e-09 1.6858e-08 7.32701e-08)
(3.45246e-09 1.43365e-08 7.48854e-08)
(4.26625e-09 1.33114e-08 7.59642e-08)
(5.36418e-09 1.31855e-08 7.76776e-08)
(6.67461e-09 1.3948e-08 8.08139e-08)
(8.07461e-09 1.46104e-08 8.59531e-08)
(9.56727e-09 -1.62943e-09 9.2732e-08)
(7.18761e-10 2.16722e-08 6.87971e-08)
(3.82663e-10 1.65539e-08 7.31413e-08)
(1.479e-09 1.37108e-08 7.49264e-08)
(3.1097e-09 1.24004e-08 7.6133e-08)
(4.75751e-09 1.20172e-08 7.79467e-08)
(6.50628e-09 1.25349e-08 8.11678e-08)
(8.48867e-09 1.29595e-08 8.63898e-08)
(1.06477e-08 -3.41736e-09 9.32987e-08)
(-1.07666e-08 3.14566e-08 7.30226e-08)
(-1.49071e-08 2.07197e-08 7.74074e-08)
(-1.36514e-08 1.42035e-08 7.99747e-08)
(-1.17402e-08 1.14088e-08 8.15267e-08)
(-1.00917e-08 1.04537e-08 8.32904e-08)
(-8.43969e-09 1.07314e-08 8.61665e-08)
(-6.53446e-09 1.10231e-08 9.07295e-08)
(-5.13691e-09 -6.35698e-09 9.65941e-08)
(-6.73273e-08 2.98219e-08 1.24655e-08)
(-6.85958e-08 1.92799e-08 2.00807e-08)
(-6.85445e-08 1.30866e-08 2.1762e-08)
(-6.8234e-08 1.06322e-08 2.18593e-08)
(-6.87048e-08 9.81778e-09 2.15722e-08)
(-7.02897e-08 9.9502e-09 2.12923e-08)
(-7.29696e-08 9.90809e-09 2.13994e-08)
(-7.6108e-08 -7.76659e-09 2.28286e-08)
(-5.92576e-08 1.85433e-08 -3.71924e-10)
(-6.15282e-08 1.30233e-08 3.32788e-09)
(-6.13583e-08 1.03017e-08 5.23369e-09)
(-6.10058e-08 9.42493e-09 5.46529e-09)
(-6.16339e-08 9.23247e-09 5.03122e-09)
(-6.36671e-08 9.38797e-09 4.5485e-09)
(-6.72769e-08 8.97714e-09 4.495e-09)
(-7.22119e-08 -7.90926e-09 5.15225e-09)
(-5.28989e-08 1.54971e-08 -3.42097e-10)
(-5.62688e-08 9.92281e-09 1.54559e-09)
(-5.64295e-08 7.84305e-09 3.19792e-09)
(-5.61513e-08 7.6345e-09 3.79788e-09)
(-5.6813e-08 7.82477e-09 3.73659e-09)
(-5.89593e-08 8.00804e-09 3.61576e-09)
(-6.28742e-08 7.34343e-09 3.98366e-09)
(-6.87389e-08 -9.34898e-09 5.09869e-09)
(-4.89802e-08 1.45795e-08 -1.7599e-11)
(-5.26355e-08 8.68615e-09 9.91126e-10)
(-5.31056e-08 6.26568e-09 2.12505e-09)
(-5.29762e-08 5.93136e-09 2.78936e-09)
(-5.36788e-08 6.08233e-09 3.03269e-09)
(-5.58573e-08 6.1805e-09 3.25418e-09)
(-5.99053e-08 5.36193e-09 3.92017e-09)
(-6.62415e-08 -1.10994e-08 5.24728e-09)
(-4.66753e-08 1.40812e-08 8.32253e-11)
(-5.0339e-08 8.07092e-09 6.62672e-10)
(-5.09773e-08 5.27147e-09 1.36859e-09)
(-5.09747e-08 4.5676e-09 1.91819e-09)
(-5.1726e-08 4.46052e-09 2.28705e-09)
(-5.39246e-08 4.3951e-09 2.69807e-09)
(-5.80372e-08 3.48399e-09 3.46288e-09)
(-6.46085e-08 -1.2768e-08 4.72318e-09)
(-4.53007e-08 1.37448e-08 8.39495e-11)
(-4.89195e-08 7.66194e-09 4.289e-10)
(-4.9631e-08 4.60016e-09 8.51486e-10)
(-4.97079e-08 3.56605e-09 1.242e-09)
(-5.05009e-08 3.1834e-09 1.58993e-09)
(-5.27189e-08 2.94553e-09 2.01421e-09)
(-5.68666e-08 1.96248e-09 2.69416e-09)
(-6.35671e-08 -1.41601e-08 3.71007e-09)
(-4.45146e-08 1.35341e-08 5.36125e-11)
(-4.80966e-08 7.38601e-09 2.40965e-10)
(-4.88379e-08 4.15972e-09 4.69306e-10)
(-4.89573e-08 2.90596e-09 7.01097e-10)
(-4.97784e-08 2.32298e-09 9.39387e-10)
(-5.20125e-08 1.9526e-09 1.24405e-09)
(-5.61814e-08 9.12191e-10 1.70464e-09)
(-6.29565e-08 -1.51465e-08 2.35959e-09)
(-4.41546e-08 1.3433e-08 1.78452e-11)
(-4.77185e-08 7.24496e-09 7.75657e-11)
(-4.84708e-08 3.9375e-09 1.50326e-10)
(-4.86083e-08 2.57684e-09 2.27259e-10)
(-4.9443e-08 1.89278e-09 3.11197e-10)
(-5.16861e-08 1.45252e-09 4.20723e-10)
(-5.58658e-08 3.79543e-10 5.82871e-10)
(-6.26765e-08 -1.56546e-08 8.08666e-10)
(2.54913e-08 -7.69878e-08 1.9271e-08)
(2.4206e-08 -7.29578e-08 2.3827e-09)
(2.362e-08 -7.00986e-08 3.28549e-09)
(2.29245e-08 -6.88679e-08 4.17257e-09)
(2.2187e-08 -6.87251e-08 4.12544e-09)
(2.15821e-08 -6.90242e-08 3.39171e-09)
(2.11802e-08 -6.93827e-08 2.20452e-09)
(2.09846e-08 -6.96028e-08 7.6212e-10)
(9.93256e-09 -7.58369e-08 1.9303e-08)
(9.24208e-09 -7.06004e-08 3.06998e-09)
(8.66265e-09 -6.69859e-08 3.73087e-09)
(8.11435e-09 -6.52965e-08 4.49254e-09)
(7.60034e-09 -6.4884e-08 4.40241e-09)
(7.18458e-09 -6.50217e-08 3.61126e-09)
(6.90449e-09 -6.52889e-08 2.34298e-09)
(6.76619e-09 -6.54679e-08 8.09009e-10)
(1.10141e-08 -7.71285e-08 2.03771e-08)
(9.63819e-09 -7.1785e-08 4.02042e-09)
(8.48164e-09 -6.81139e-08 4.4785e-09)
(7.64999e-09 -6.63789e-08 5.06124e-09)
(7.10713e-09 -6.59283e-08 4.81877e-09)
(6.75927e-09 -6.60366e-08 3.89528e-09)
(6.54523e-09 -6.62838e-08 2.50817e-09)
(6.44123e-09 -6.64528e-08 8.63207e-10)
(-4.76329e-09 -8.11599e-08 2.25811e-08)
(-5.39702e-09 -7.68673e-08 5.20739e-09)
(-6.49306e-09 -7.38594e-08 5.50959e-09)
(-7.18525e-09 -7.2498e-08 5.87752e-09)
(-7.52416e-09 -7.22444e-08 5.38004e-09)
(-7.69858e-09 -7.2458e-08 4.24937e-09)
(-7.80085e-09 -7.27582e-08 2.70364e-09)
(-7.85256e-09 -7.29489e-08 9.25903e-10)
)
;
        gradient        nonuniform List<vector> 
192
(
(4.63047e-06 5.8689e-07 -2.43385e-08)
(4.38667e-06 1.37786e-07 -3.30709e-08)
(4.47128e-06 2.71337e-08 -3.63584e-08)
(4.59352e-06 3.0098e-08 -4.05936e-08)
(4.76118e-06 4.70452e-08 -4.40577e-08)
(5.01727e-06 5.40716e-08 -4.45029e-08)
(5.3714e-06 6.98988e-08 -4.09952e-08)
(5.69621e-06 6.68589e-08 -3.57114e-08)
(4.08738e-06 5.31899e-07 -4.0893e-08)
(3.91861e-06 1.27302e-07 -4.9568e-08)
(3.97951e-06 2.14773e-08 -5.17461e-08)
(4.08936e-06 2.68112e-08 -5.5904e-08)
(4.25783e-06 4.86271e-08 -5.80691e-08)
(4.53042e-06 6.09612e-08 -5.53356e-08)
(4.93244e-06 7.88315e-08 -4.72879e-08)
(5.37198e-06 7.24797e-08 -3.78766e-08)
(3.63191e-06 4.96497e-07 -2.9525e-08)
(3.53248e-06 1.26951e-07 -3.40595e-08)
(3.59439e-06 2.08005e-08 -3.21199e-08)
(3.69763e-06 2.37749e-08 -3.42642e-08)
(3.85971e-06 4.76131e-08 -3.75935e-08)
(4.12763e-06 6.48522e-08 -3.82023e-08)
(4.53176e-06 8.73578e-08 -3.33502e-08)
(5.01923e-06 7.71218e-08 -2.46087e-08)
(3.35246e-06 4.68368e-07 -2.06871e-08)
(3.27161e-06 1.24721e-07 -2.83733e-08)
(3.33682e-06 2.12749e-08 -2.75016e-08)
(3.4386e-06 2.13378e-08 -2.86725e-08)
(3.59754e-06 4.4689e-08 -3.20376e-08)
(3.8612e-06 6.52045e-08 -3.44852e-08)
(4.26159e-06 9.24258e-08 -3.26376e-08)
(4.76678e-06 7.91431e-08 -2.70499e-08)
(3.18997e-06 4.47472e-07 -1.34439e-08)
(3.11496e-06 1.20147e-07 -2.13941e-08)
(3.18188e-06 2.05031e-08 -2.24952e-08)
(3.28365e-06 1.92392e-08 -2.37436e-08)
(3.44131e-06 4.18004e-08 -2.64336e-08)
(3.70227e-06 6.42524e-08 -2.8832e-08)
(4.09852e-06 9.47937e-08 -2.84161e-08)
(4.60925e-06 7.94677e-08 -2.53979e-08)
(3.09352e-06 4.33557e-07 -8.16182e-09)
(3.02119e-06 1.15677e-07 -1.40429e-08)
(3.08882e-06 1.89268e-08 -1.57549e-08)
(3.19073e-06 1.73996e-08 -1.70596e-08)
(3.34778e-06 3.96007e-08 -1.89796e-08)
(3.60693e-06 6.32221e-08 -2.07039e-08)
(3.99969e-06 9.58604e-08 -2.07317e-08)
(4.512e-06 7.92439e-08 -1.91046e-08)
(3.03838e-06 4.25284e-07 -4.36486e-09)
(2.96745e-06 1.12558e-07 -7.74379e-09)
(3.03535e-06 1.74873e-08 -9.01869e-09)
(3.13733e-06 1.60146e-08 -9.98016e-09)
(3.29404e-06 3.81562e-08 -1.11407e-08)
(3.55203e-06 6.25005e-08 -1.21402e-08)
(3.94235e-06 9.63934e-08 -1.22172e-08)
(4.45502e-06 7.90188e-08 -1.13608e-08)
(3.0131e-06 4.21458e-07 -1.37286e-09)
(2.94282e-06 1.11026e-07 -2.4567e-09)
(3.01079e-06 1.6691e-08 -2.90605e-09)
(3.1128e-06 1.52777e-08 -3.25317e-09)
(3.26934e-06 3.74407e-08 -3.64296e-09)
(3.52675e-06 6.21457e-08 -3.96867e-09)
(3.91584e-06 9.664e-08 -3.99771e-09)
(4.42856e-06 7.89139e-08 -3.72214e-09)
(1.03856e-09 6.16469e-07 4.93883e-06)
(3.5461e-09 1.53418e-07 4.69349e-06)
(4.05207e-09 1.21518e-08 4.7785e-06)
(7.26931e-09 -2.07652e-08 4.90278e-06)
(1.28799e-08 -2.54685e-08 5.07251e-06)
(1.82593e-08 -1.72083e-08 5.33217e-06)
(2.05483e-08 1.73313e-08 5.69876e-06)
(1.85597e-08 3.49688e-08 6.05344e-06)
(-8.13253e-09 5.9215e-07 4.61116e-06)
(-4.75597e-09 1.5037e-07 4.41388e-06)
(-2.11763e-09 1.21023e-08 4.46853e-06)
(1.67411e-09 -1.57898e-08 4.58101e-06)
(7.61538e-09 -1.64349e-08 4.75507e-06)
(1.45093e-08 -8.01088e-09 5.03473e-06)
(2.01794e-08 2.20183e-08 5.44915e-06)
(2.22495e-08 3.57327e-08 5.9001e-06)
(2.24805e-08 6.03427e-07 4.57084e-06)
(4.06575e-08 1.59385e-07 4.37054e-06)
(5.2976e-08 1.85709e-08 4.42366e-06)
(5.9892e-08 -1.10368e-08 4.53559e-06)
(6.2196e-08 -1.26388e-08 4.70943e-06)
(6.22028e-08 -4.653e-09 4.98892e-06)
(6.28234e-08 2.50533e-08 5.40348e-06)
(6.59742e-08 3.69716e-08 5.85917e-06)
(1.28228e-08 6.5513e-07 4.83127e-06)
(3.06541e-08 1.80818e-07 4.58262e-06)
(4.4534e-08 3.13269e-08 4.66417e-06)
(5.191e-08 -6.57258e-09 4.78685e-06)
(5.45492e-08 -1.41264e-08 4.95572e-06)
(5.5986e-08 -7.38773e-09 5.21453e-06)
(5.96663e-08 2.57768e-08 5.58037e-06)
(6.66009e-08 3.82539e-08 5.9456e-06)
(-4.51203e-06 5.24355e-07 -1.32969e-08)
(-4.26444e-06 6.56305e-08 -3.52023e-09)
(-4.34691e-06 -5.80237e-08 7.15552e-09)
(-4.46759e-06 -6.86977e-08 1.34605e-08)
(-4.6345e-06 -6.50037e-08 1.82564e-08)
(-4.89202e-06 -6.98836e-08 2.45898e-08)
(-5.25515e-06 -6.34216e-08 3.3963e-08)
(-5.61108e-06 -7.45146e-08 4.43599e-08)
(-3.94542e-06 4.8571e-07 -3.34042e-08)
(-3.77463e-06 7.01999e-08 -2.74398e-08)
(-3.83267e-06 -5.16765e-08 -1.71779e-08)
(-3.93952e-06 -6.26044e-08 -1.12783e-08)
(-4.10511e-06 -5.59112e-08 -5.33076e-09)
(-4.37602e-06 -5.67325e-08 4.04119e-09)
(-4.7834e-06 -4.89563e-08 1.76938e-08)
(-5.25537e-06 -6.42496e-08 3.21024e-08)
(-3.4914e-06 4.63478e-07 -2.34592e-08)
(-3.3881e-06 8.18394e-08 -1.70384e-08)
(-3.4465e-06 -4.18662e-08 -5.0098e-09)
(-3.54615e-06 -5.68518e-08 1.71454e-09)
(-3.70454e-06 -4.96853e-08 5.89198e-09)
(-3.96948e-06 -4.68603e-08 1.15203e-08)
(-4.3768e-06 -3.53604e-08 2.15574e-08)
(-4.89323e-06 -5.50811e-08 3.47523e-08)
(-3.2171e-06 4.4518e-07 -1.63038e-08)
(-3.13144e-06 8.86362e-08 -1.61744e-08)
(-3.19258e-06 -3.29264e-08 -7.65488e-09)
(-3.29038e-06 -5.17032e-08 -1.60356e-09)
(-3.44521e-06 -4.61057e-08 1.46147e-09)
(-3.70524e-06 -4.10672e-08 4.50196e-09)
(-4.10752e-06 -2.57231e-08 1.09414e-08)
(-4.63881e-06 -4.89923e-08 2.04391e-08)
(-3.05876e-06 4.3098e-07 -1.05709e-08)
(-2.97847e-06 9.04792e-08 -1.32549e-08)
(-3.04099e-06 -2.72972e-08 -8.89906e-09)
(-3.13849e-06 -4.77357e-08 -4.69078e-09)
(-3.29179e-06 -4.35798e-08 -2.30156e-09)
(-3.54875e-06 -3.73801e-08 -2.33404e-10)
(-3.94613e-06 -1.94222e-08 3.98281e-09)
(-4.4811e-06 -4.5191e-08 1.02486e-08)
(-2.96505e-06 4.21337e-07 -6.41255e-09)
(-2.88722e-06 9.03013e-08 -8.98449e-09)
(-2.95026e-06 -2.43637e-08 -7.09729e-09)
(-3.04772e-06 -4.51059e-08 -4.64235e-09)
(-3.20023e-06 -4.16483e-08 -2.93703e-09)
(-3.45515e-06 -3.47826e-08 -1.38821e-09)
(-3.84855e-06 -1.52403e-08 1.41634e-09)
(-4.38391e-06 -4.26695e-08 5.47614e-09)
(-2.91157e-06 4.15571e-07 -3.4289e-09)
(-2.83505e-06 8.979e-08 -4.99976e-09)
(-2.89826e-06 -2.2956e-08 -4.24133e-09)
(-2.9957e-06 -4.35756e-08 -3.01511e-09)
(-3.14776e-06 -4.03257e-08 -2.01406e-09)
(-3.40137e-06 -3.30266e-08 -1.02465e-09)
(-3.79203e-06 -1.25573e-08 6.40991e-10)
(-4.32706e-06 -4.10022e-08 3.00002e-09)
(-2.88709e-06 4.12901e-07 -1.07877e-09)
(-2.81116e-06 8.94863e-08 -1.58862e-09)
(-2.87442e-06 -2.23795e-08 -1.38163e-09)
(-2.97184e-06 -4.28787e-08 -1.012e-09)
(-3.12368e-06 -3.96579e-08 -6.84747e-10)
(-3.37664e-06 -3.21275e-08 -3.44198e-10)