/*--------------------------------*- C++ -*----------------------------------*\
| =========                 |                                                 |
| \\      /  F ield         | OpenFOAM: The Open Source CFD Toolbox           |
|  \\    /   O peration     | Version:  v1912                                 |
|   \\  /    A nd           | Website:  www.openfoam.com                      |
|    \\/     M anipulation  |                                                 |
\*---------------------------------------------------------------------------*/
FoamFile
{
    version     2.0;
    format      ascii;
    class       volVectorField;
    location    "0.27/solid";
    object      D_0_0;
}
// * * * * * * * * * * * * * * * * * * * * * * * * * * * * * * * * * * * * * //

dimensions      [0 1 0 0 0 0 0];


internalField   nonuniform List<vector> 
256
(
(1.05693e-08 2.28767e-08 1.08678e-08)
(4.15302e-11 1.3779e-08 1.05504e-08)
(6.49547e-10 1.36628e-08 1.0706e-08)
(-9.8508e-09 2.23243e-08 1.14446e-08)
(1.59231e-08 1.94436e-08 1.63021e-08)
(2.0386e-09 1.47888e-08 1.59531e-08)
(2.91526e-10 1.43789e-08 1.6373e-08)
(-1.35659e-08 1.79827e-08 1.76982e-08)
(1.67602e-08 1.63636e-08 1.64796e-08)
(3.05012e-09 1.45429e-08 1.60697e-08)
(1.25172e-09 1.38404e-08 1.66791e-08)
(-1.2447e-08 1.40716e-08 1.8436e-08)
(1.73255e-08 1.55328e-08 1.53817e-08)
(3.85795e-09 1.45711e-08 1.50469e-08)
(2.75546e-09 1.36018e-08 1.57913e-08)
(-1.07119e-08 1.24875e-08 1.77403e-08)
(1.83654e-08 1.61468e-08 1.39831e-08)
(4.8985e-09 1.53074e-08 1.38817e-08)
(4.36201e-09 1.40901e-08 1.47296e-08)
(-9.10781e-09 1.24012e-08 1.6652e-08)
(1.94839e-08 1.79178e-08 1.25088e-08)
(6.04407e-09 1.69801e-08 1.27124e-08)
(6.19681e-09 1.55215e-08 1.36474e-08)
(-7.25751e-09 1.34958e-08 1.54365e-08)
(2.02086e-08 1.97889e-08 1.11989e-08)
(7.13975e-09 1.85229e-08 1.16338e-08)
(8.41601e-09 1.68293e-08 1.26505e-08)
(-4.7388e-09 1.46953e-08 1.43603e-08)
(2.12706e-08 5.17346e-09 1.1165e-08)
(8.34742e-09 4.0026e-09 1.15995e-08)
(1.0813e-08 2.18965e-09 1.26885e-08)
(-2.3615e-09 -3.78928e-10 1.45188e-08)
(9.98368e-09 1.28583e-08 -8.3407e-10)
(5.63578e-11 4.68511e-09 -7.84531e-10)
(3.14258e-10 4.53538e-09 -6.14174e-10)
(-9.46682e-09 1.22649e-08 -3.28881e-10)
(1.52949e-08 1.39651e-08 1.20819e-09)
(1.92837e-09 9.61142e-09 1.3253e-09)
(-3.70853e-10 9.13891e-09 1.73779e-09)
(-1.35565e-08 1.24169e-08 2.41325e-09)
(1.6022e-08 1.4195e-08 1.69919e-09)
(2.81692e-09 1.24112e-08 1.88797e-09)
(3.68858e-10 1.1658e-08 2.47063e-09)
(-1.26678e-08 1.18406e-08 3.4027e-09)
(1.64551e-08 1.48564e-08 7.76692e-10)
(3.50981e-09 1.38781e-08 1.06845e-09)
(1.71703e-09 1.28753e-08 1.77558e-09)
(-1.10642e-08 1.17796e-08 2.85287e-09)
(1.74722e-08 1.59994e-08 -7.33529e-10)
(4.4678e-09 1.5125e-08 -3.20637e-10)
(3.18959e-09 1.38871e-08 4.84738e-10)
(-9.64562e-09 1.22443e-08 1.63947e-09)
(1.87281e-08 1.764e-08 -2.33281e-09)
(5.58375e-09 1.66684e-08 -1.81775e-09)
(4.87686e-09 1.51997e-08 -9.29734e-10)
(-8.10255e-09 1.32275e-08 2.89331e-10)
(1.97177e-08 1.87773e-08 -3.48873e-09)
(6.69603e-09 1.74871e-08 -2.92936e-09)
(6.93302e-09 1.58014e-08 -1.97498e-09)
(-5.9946e-09 1.37298e-08 -6.65213e-10)
(2.10076e-08 4.12356e-09 -3.45807e-09)
(7.92911e-09 2.9277e-09 -2.90774e-09)
(9.19012e-09 1.1647e-09 -1.92536e-09)
(-3.97919e-09 -1.29382e-09 -5.4107e-10)
(9.47081e-09 1.02211e-08 -6.18506e-10)
(7.01194e-11 2.63247e-09 -6.65109e-10)
(1.17247e-10 2.49577e-09 -5.39577e-10)
(-9.12541e-09 9.72865e-09 -2.59618e-10)
(1.49622e-08 1.09429e-08 -1.91882e-12)
(1.86095e-09 6.82201e-09 8.05223e-12)
(-8.26275e-10 6.37107e-09 3.20908e-10)
(-1.37131e-08 9.53161e-09 8.89769e-10)
(1.57699e-08 1.1852e-08 3.96493e-10)
(2.66805e-09 1.01271e-08 4.87636e-10)
(-3.00565e-10 9.40023e-09 9.37932e-10)
(-1.31907e-08 9.63773e-09 1.6906e-09)
(1.61179e-08 1.31939e-08 -7.72307e-11)
(3.26279e-09 1.22484e-08 1.0209e-10)
(8.96969e-10 1.12757e-08 6.58621e-10)
(-1.17444e-08 1.02548e-08 1.53662e-09)
(1.7054e-08 1.46222e-08 -1.09793e-09)
(4.13974e-09 1.37708e-08 -8.39354e-10)
(2.24472e-09 1.25663e-08 -1.95685e-10)
(-1.04451e-08 1.10021e-08 7.80896e-10)
(1.83367e-08 1.60629e-08 -2.10863e-09)
(5.22682e-09 1.50953e-08 -1.802e-09)
(3.79205e-09 1.36648e-08 -1.08595e-09)
(-9.09349e-09 1.17879e-08 -8.60492e-12)
(1.95088e-08 1.65925e-08 -2.46906e-09)
(6.36995e-09 1.53259e-08 -2.15575e-09)
(5.67945e-09 1.36866e-08 -1.38813e-09)
(-7.30534e-09 1.16948e-08 -2.05101e-10)
(2.10872e-08 1.8397e-09 -1.61882e-09)
(7.63939e-09 8.3824e-10 -1.33466e-09)
(7.78507e-09 -8.69067e-10 -5.56043e-10)
(-5.69752e-09 -3.41673e-09 6.97384e-10)
(8.96733e-09 9.5079e-09 -2.55976e-10)
(3.61507e-11 2.2682e-09 -2.84614e-10)
(5.3316e-11 2.14907e-09 -1.949e-10)
(-8.75266e-09 9.11088e-09 -1.59025e-13)
(1.43905e-08 9.58415e-09 -1.59987e-10)
(1.72881e-09 5.6228e-09 -1.23517e-10)
(-1.02415e-09 5.21526e-09 1.04194e-10)
(-1.35041e-08 8.34298e-09 4.87059e-10)
(1.52699e-08 1.01342e-08 -1.75269e-11)
(2.47262e-09 8.47211e-09 9.49674e-11)
(-6.67538e-10 7.79833e-09 4.27679e-10)
(-1.32756e-08 8.11009e-09 9.36984e-10)
(1.55761e-08 1.13709e-08 -2.56774e-10)
(2.98875e-09 1.04753e-08 -7.1565e-11)
(3.97803e-10 9.55736e-09 3.46119e-10)
(-1.19917e-08 8.61986e-09 9.54382e-10)
(1.64063e-08 1.26986e-08 -8.01987e-10)
(3.77976e-09 1.18908e-08 -5.49666e-10)
(1.64969e-09 1.07406e-08 -6.00127e-11)
(-1.07645e-08 9.25781e-09 6.29443e-10)
(1.76242e-08 1.38946e-08 -1.24352e-09)
(4.81104e-09 1.29544e-08 -9.45317e-10)
(3.10049e-09 1.15778e-08 -3.96146e-10)
(-9.49808e-09 9.79062e-09 3.72221e-10)
(1.88735e-08 1.4081e-08 -1.05048e-09)
(5.95621e-09 1.28777e-08 -7.42416e-10)
(4.85936e-09 1.12913e-08 -1.53149e-10)
(-7.91181e-09 9.34573e-09 6.96905e-10)
(2.06595e-08 -4.83243e-10 1.44029e-10)
(7.24277e-09 -1.22905e-09 4.1015e-10)
(6.84054e-09 -2.88826e-09 1.00483e-09)
(-6.61753e-09 -5.59595e-09 1.92722e-09)
(8.58009e-09 9.13917e-09 -1.26671e-10)
(-2.00089e-11 2.12277e-09 -1.23807e-10)
(5.38898e-11 2.01822e-09 -6.07939e-11)
(-8.45343e-09 8.81388e-09 5.2224e-11)
(1.38044e-08 8.83652e-09 -1.96724e-10)
(1.55994e-09 5.0007e-09 -1.15775e-10)
(-1.06421e-09 4.63295e-09 4.54636e-11)
(-1.3166e-08 7.73772e-09 2.59503e-10)
(1.46722e-08 8.9339e-09 -2.13819e-10)
(2.23742e-09 7.3362e-09 -6.03355e-11)
(-8.11106e-10 6.71397e-09 1.77451e-10)
(-1.30886e-08 7.08068e-09 4.66141e-10)
(1.49395e-08 9.79125e-09 -3.52042e-10)
(2.68735e-09 8.94828e-09 -1.37322e-10)
(1.55306e-10 8.08487e-09 1.64383e-10)
(-1.19254e-08 7.21569e-09 5.2123e-10)
(1.56791e-08 1.08263e-08 -5.82427e-10)
(3.40263e-09 1.00664e-08 -3.11445e-10)
(1.33374e-09 8.96978e-09 4.57194e-11)
(-1.07536e-08 7.55434e-09 4.61412e-10)
(1.68202e-08 1.17816e-08 -6.49738e-10)
(4.37417e-09 1.08793e-08 -3.36405e-10)
(2.71543e-09 9.55366e-09 6.68615e-11)
(-9.53718e-09 7.83509e-09 5.38298e-10)
(1.80927e-08 1.18028e-08 -2.01579e-10)
(5.50257e-09 1.06682e-08 1.24571e-10)
(4.38204e-09 9.12865e-09 5.58367e-10)
(-8.08132e-09 7.20998e-09 1.08877e-09)
(1.99953e-08 -2.53663e-09 9.79566e-10)
(6.78634e-09 -3.07386e-09 1.26955e-09)
(6.27348e-09 -4.69295e-09 1.70645e-09)
(-6.99507e-09 -7.52845e-09 2.29614e-09)
(8.32346e-09 8.88079e-09 -8.02997e-11)
(-6.74556e-11 2.00791e-09 -6.70351e-11)
(6.9041e-11 1.91398e-09 -2.52039e-11)
(-8.252e-09 8.60502e-09 3.76023e-11)
(1.33633e-08 8.32223e-09 -1.80331e-10)
(1.41754e-09 4.58289e-09 -9.80328e-11)
(-1.05215e-09 4.24494e-09 9.41141e-12)
(-1.2884e-08 7.32659e-09 1.21765e-10)
(1.4179e-08 8.07831e-09 -2.45885e-10)
(2.034e-09 6.53854e-09 -1.03266e-10)
(-8.54099e-10 5.95639e-09 5.60942e-11)
(-1.28662e-08 6.35455e-09 2.07447e-10)
(1.44024e-08 8.57887e-09 -3.27878e-10)
(2.42973e-09 7.78244e-09 -1.37265e-10)
(4.73367e-11 6.96256e-09 6.634e-11)
(-1.17742e-08 6.14061e-09 2.59222e-10)
(1.50751e-08 9.31815e-09 -3.9397e-10)
(3.08703e-09 8.59958e-09 -1.6118e-10)
(1.17145e-09 7.54606e-09 8.14885e-11)
(-1.06455e-08 6.18021e-09 3.13606e-10)
(1.6158e-08 1.00718e-08 -2.94573e-10)
(4.01052e-09 9.20389e-09 -2.96235e-11)
(2.5012e-09 7.91887e-09 2.458e-10)
(-9.46918e-09 6.25e-09 5.16112e-10)
(1.74347e-08 9.99935e-09 1.75951e-10)
(5.11863e-09 8.91875e-09 4.51754e-10)
(4.102e-09 7.41579e-09 7.48814e-10)
(-8.10213e-09 5.51799e-09 1.06007e-09)
(1.94013e-08 -4.19012e-09 1.13977e-09)
(6.39179e-09 -4.58484e-09 1.39059e-09)
(5.93091e-09 -6.17265e-09 1.68945e-09)
(-7.15251e-09 -9.08763e-09 2.0422e-09)
(8.17224e-09 8.71211e-09 -5.01734e-11)
(-9.72713e-11 1.9247e-09 -3.95065e-11)
(8.11003e-11 1.83762e-09 -1.56051e-11)
(-8.13271e-09 8.46717e-09 1.6778e-11)
(1.30905e-08 7.97362e-09 -1.25493e-10)
(1.32571e-09 4.29862e-09 -7.01519e-11)
(-1.03598e-09 3.97999e-09 -8.62681e-12)
(-1.27049e-08 7.04376e-09 4.65537e-11)
(1.38578e-08 7.50694e-09 -1.79575e-10)
(1.89839e-09 6.00969e-09 -8.52163e-11)
(-8.65814e-10 5.45403e-09 6.36091e-12)
(-1.27079e-08 5.86785e-09 7.97371e-11)
(1.40441e-08 7.76314e-09 -2.21823e-10)
(2.25581e-09 7.00067e-09 -9.68289e-11)
(-2.5274e-12 6.21009e-09 2.06893e-11)
(-1.16528e-08 5.41664e-09 1.15836e-10)
(1.46729e-08 8.29019e-09 -2.24796e-10)
(2.87446e-09 7.6008e-09 -7.38584e-11)
(1.08585e-09 6.5766e-09 6.68272e-11)
(-1.05528e-08 5.24308e-09 1.844e-10)
(1.57193e-08 8.90178e-09 -1.0916e-10)
(3.7659e-09 8.05794e-09 6.12233e-11)
(2.37983e-09 6.8006e-09 2.21479e-10)
(-9.40667e-09 5.16496e-09 3.61862e-10)
(1.6996e-08 8.767e-09 2.29959e-10)
(4.85835e-09 7.72095e-09 4.06995e-10)
(3.937e-09 6.24292e-09 5.80189e-10)
(-8.09789e-09 4.36171e-09 7.45224e-10)
(1.89988e-08 -5.34311e-09 8.53557e-10)
(6.12188e-09 -5.65248e-09 1.01621e-09)
(5.72506e-09 -7.21891e-09 1.19034e-09)
(-7.23477e-09 -1.0176e-08 1.37968e-09)
(8.1027e-09 8.62906e-09 -1.75398e-11)
(-1.1103e-10 1.88141e-09 -1.37348e-11)
(8.70281e-11 1.79767e-09 -5.96327e-12)
(-8.0778e-09 8.39886e-09 4.15766e-12)
(1.29634e-08 7.79531e-09 -4.48949e-11)
(1.28256e-09 4.15201e-09 -2.59276e-11)
(-1.02748e-09 3.84283e-09 -5.90047e-12)
(-1.26211e-08 6.89732e-09 1.0943e-11)
(1.37047e-08 7.21764e-09 -6.46841e-11)
(1.83322e-09 5.74246e-09 -3.23674e-11)
(-8.69381e-10 5.19986e-09 -2.5051e-12)
(-1.2631e-08 5.6201e-09 1.966e-11)
(1.38704e-08 7.3532e-09 -7.74187e-11)
(2.17105e-09 6.60842e-09 -3.46077e-11)
(-2.37051e-11 5.83243e-09 3.79776e-12)
(-1.15914e-08 5.05228e-09 3.27072e-11)
(1.44772e-08 7.7735e-09 -7.25885e-11)
(2.77042e-09 7.09899e-09 -2.10423e-11)
(1.04705e-09 6.08951e-09 2.50371e-11)
(-1.05056e-08 4.77191e-09 6.12422e-11)
(1.55062e-08 8.31244e-09 -2.51449e-11)
(3.64598e-09 7.48061e-09 3.28533e-11)
(2.32271e-09 6.23722e-09 8.54409e-11)
(-9.37562e-09 4.61844e-09 1.2928e-10)
(1.67827e-08 8.14434e-09 9.70022e-11)
(4.73027e-09 7.11469e-09 1.5718e-10)
(3.85789e-09 5.64925e-09 2.14074e-10)
(-8.09631e-09 3.77753e-09 2.66205e-10)
(1.88028e-08 -5.93296e-09 3.12174e-10)
(5.98858e-09 -6.2029e-09 3.67652e-10)
(5.62543e-09 -7.75849e-09 4.24834e-10)
(-7.27609e-09 -1.07331e-08 4.84979e-10)
)
;

boundaryField
{
    interface
    {
        type            solidTraction;
        traction        uniform (0 0 0);
        pressure        uniform 0;
        secondOrder     false;
        setEffectiveTraction false;
        relaxationFactor 1;
        value           nonuniform List<vector> 
192
(
(6.86687e-08 2.94998e-08 1.07239e-08)
(7.10794e-08 2.09913e-08 1.61486e-08)
(7.29673e-08 1.67142e-08 1.62995e-08)
(7.50424e-08 1.59342e-08 1.51451e-08)
(7.81706e-08 1.66866e-08 1.37e-08)
(8.25139e-08 1.83789e-08 1.22207e-08)
(8.7754e-08 2.02359e-08 1.09606e-08)
(9.25529e-08 5.72465e-09 1.10029e-08)
(6.16123e-08 1.9178e-08 -1.10904e-09)
(6.4882e-08 1.54747e-08 9.6745e-10)
(6.63784e-08 1.44852e-08 1.45108e-09)
(6.81858e-08 1.52191e-08 4.74266e-10)
(7.13189e-08 1.65678e-08 -1.06187e-09)
(7.60214e-08 1.82017e-08 -2.62006e-09)
(8.21371e-08 1.93475e-08 -3.66409e-09)
(8.8559e-08 4.75494e-09 -3.50428e-09)
(5.53925e-08 1.63293e-08 -8.72868e-10)
(5.96586e-08 1.25177e-08 -2.28438e-10)
(6.12454e-08 1.2141e-08 2.0805e-10)
(6.28863e-08 1.35151e-08 -2.97395e-10)
(6.5856e-08 1.51771e-08 -1.36479e-09)
(7.05169e-08 1.6677e-08 -2.38495e-09)
(7.6818e-08 1.72806e-08 -2.68043e-09)
(8.41389e-08 2.535e-09 -1.70613e-09)
(5.1397e-08 1.53473e-08 -4.78831e-10)
(5.58091e-08 1.11598e-08 -4.49719e-10)
(5.75062e-08 1.04307e-08 -2.92217e-10)
(5.90861e-08 1.16552e-08 -5.51636e-10)
(6.19082e-08 1.32109e-08 -1.14597e-09)
(6.64453e-08 1.45118e-08 -1.62288e-09)
(7.27655e-08 1.48403e-08 -1.4047e-09)
(8.0529e-08 2.38692e-10 -1.29117e-10)
(4.89852e-08 1.47353e-08 -2.8777e-10)
(5.32667e-08 1.03596e-08 -4.53715e-10)
(5.49718e-08 9.21779e-09 -4.86761e-10)
(5.6511e-08 1.00431e-08 -6.45673e-10)
(5.92244e-08 1.12967e-08 -9.15415e-10)
(6.36478e-08 1.23854e-08 -1.01647e-09)
(6.99349e-08 1.25971e-08 -5.61438e-10)
(7.78968e-08 -1.8105e-09 6.64897e-10)
(4.75275e-08 1.43025e-08 -1.82345e-10)
(5.16569e-08 9.78614e-09 -3.58929e-10)
(5.33176e-08 8.3382e-09 -4.49619e-10)
(5.48133e-08 8.80311e-09 -5.51855e-10)
(5.74507e-08 9.75732e-09 -6.45647e-10)
(6.17917e-08 1.06621e-08 -5.69921e-10)
(6.80376e-08 1.08107e-08 -9.8341e-11)
(7.60922e-08 -3.46637e-09 8.90552e-10)
(4.66896e-08 1.40278e-08 -1.05412e-10)
(5.07147e-08 9.39507e-09 -2.25554e-10)
(5.23297e-08 7.74547e-09 -2.98231e-10)
(5.37883e-08 7.96709e-09 -3.54892e-10)
(5.63765e-08 8.70925e-09 -3.7435e-10)
(6.06657e-08 9.48299e-09 -2.72175e-10)
(6.68807e-08 9.58744e-09 6.69073e-11)
(7.49817e-08 -4.62148e-09 7.03872e-10)
(4.63053e-08 1.38956e-08 -3.49405e-11)
(5.02805e-08 9.19585e-09 -7.67013e-11)
(5.18703e-08 7.44452e-09 -1.03006e-10)
(5.33082e-08 7.54653e-09 -1.20869e-10)
(5.58719e-08 8.18273e-09 -1.21527e-10)
(6.01364e-08 8.88926e-09 -7.84263e-11)
(6.63356e-08 8.96903e-09 4.36783e-11)
(7.44572e-08 -5.21215e-09 2.63161e-10)
(1.05629e-08 2.96693e-08 7.29975e-08)
(1.59141e-08 2.08466e-08 7.54866e-08)
(1.67493e-08 1.61336e-08 7.67163e-08)
(1.73617e-08 1.49088e-08 7.71428e-08)
(1.84831e-08 1.54286e-08 7.78484e-08)
(1.96804e-08 1.72218e-08 7.96411e-08)
(2.0438e-08 1.9453e-08 8.30102e-08)
(2.14619e-08 5.33723e-09 8.71121e-08)
(1.81147e-12 2.04049e-08 6.8827e-08)
(2.05749e-09 1.61687e-08 7.18959e-08)
(3.10123e-09 1.43164e-08 7.27169e-08)
(3.96157e-09 1.40242e-08 7.30978e-08)
(5.08635e-09 1.47238e-08 7.41167e-08)
(6.32993e-09 1.64181e-08 7.64923e-08)
(7.50388e-09 1.82446e-08 8.07151e-08)
(8.72961e-09 4.17032e-09 8.59494e-08)
(8.73887e-10 2.04326e-08 6.84885e-08)
(7.29038e-10 1.58722e-08 7.17818e-08)
(1.84462e-09 1.3695e-08 7.27739e-08)
(3.43014e-09 1.31144e-08 7.32837e-08)
(5.05588e-09 1.35541e-08 7.44038e-08)
(6.87912e-09 1.50017e-08 7.68651e-08)
(9.09893e-09 1.65895e-08 8.11724e-08)
(1.15441e-08 2.37311e-09 8.65409e-08)
(-9.66708e-09 2.96101e-08 7.22603e-08)
(-1.31234e-08 1.97306e-08 7.55199e-08)
(-1.18221e-08 1.40821e-08 7.72695e-08)
(-1.0001e-08 1.20415e-08 7.80802e-08)
(-8.37491e-09 1.18253e-08 7.90868e-08)
(-6.51784e-09 1.29229e-08 8.11292e-08)
(-3.95717e-09 1.44658e-08 8.47241e-08)
(-1.47929e-09 -1.73703e-10 8.91522e-08)
(-6.66006e-08 2.81787e-08 1.14409e-08)
(-6.73266e-08 1.86319e-08 1.79177e-08)
(-6.72343e-08 1.33581e-08 1.88043e-08)
(-6.69914e-08 1.16526e-08 1.81845e-08)
(-6.74681e-08 1.15375e-08 1.71536e-08)
(-6.88631e-08 1.24033e-08 1.60183e-08)
(-7.0979e-08 1.3471e-08 1.50657e-08)
(-7.2762e-08 -1.60137e-09 1.5365e-08)
(-5.94246e-08 1.80207e-08 -5.10117e-10)
(-6.14448e-08 1.32171e-08 2.45026e-09)
(-6.12914e-08 1.12175e-08 3.58884e-09)
(-6.10262e-08 1.10239e-08 3.11122e-09)
(-6.16895e-08 1.15037e-08 1.97399e-09)
(-6.35752e-08 1.23146e-08 7.48552e-10)
(-6.66669e-08 1.26987e-08 -2.3352e-11)
(-7.02223e-08 -2.37719e-09 2.93209e-10)
(-5.33873e-08 1.54383e-08 -4.38011e-10)
(-5.6698e-08 1.05479e-08 8.76934e-10)
(-5.69123e-08 9.14549e-09 1.84283e-09)
(-5.67159e-08 9.56824e-09 1.76879e-09)
(-5.74066e-08 1.03392e-08 1.06088e-09)
(-5.93998e-08 1.10027e-08 3.40541e-10)
(-6.27884e-08 1.08456e-08 2.74455e-10)
(-6.73182e-08 -4.37917e-09 1.35723e-09)
(-4.95839e-08 1.46751e-08 -1.68062e-10)
(-5.32605e-08 9.47369e-09 3.50469e-10)
(-5.38003e-08 7.73192e-09 9.11662e-10)
(-5.37423e-08 7.99196e-09 9.99816e-10)
(-5.44586e-08 8.63423e-09 7.06749e-10)
(-5.64706e-08 9.07719e-09 4.83324e-10)
(-5.99878e-08 8.62539e-09 8.91075e-10)
(-6.50308e-08 -6.48055e-09 2.25179e-09)
(-4.73107e-08 1.42187e-08 -7.2857e-11)
(-5.10109e-08 8.89648e-09 1.0464e-10)
(-5.17171e-08 6.77044e-09 3.63937e-10)
(-5.17746e-08 6.63178e-09 4.67013e-10)
(-5.25253e-08 6.95713e-09 4.31804e-10)
(-5.45465e-08 7.16678e-09 5.31227e-10)
(-5.81289e-08 6.57425e-09 1.13649e-09)
(-6.34386e-08 -8.36505e-09 2.43003e-09)
(-4.59423e-08 1.3889e-08 -4.25227e-11)
(-4.95914e-08 8.48009e-09 6.59788e-12)
(-5.03626e-08 6.07701e-09 1.12367e-10)
(-5.04897e-08 5.58529e-09 1.91194e-10)
(-5.12722e-08 5.60378e-09 2.63518e-10)
(-5.33067e-08 5.61391e-09 4.83585e-10)
(-5.69269e-08 4.93862e-09 1.06431e-09)
(-6.23874e-08 -9.89196e-09 2.10222e-09)
(-4.51573e-08 1.36766e-08 -2.67391e-11)
(-4.87625e-08 8.18752e-09 -1.91182e-11)
(-4.95561e-08 5.60474e-09 2.10056e-11)
(-4.97189e-08 4.87773e-09 7.01997e-11)
(-5.05237e-08 4.68137e-09 1.49483e-10)
(-5.25716e-08 4.55098e-09 3.38532e-10)
(-5.62158e-08 3.81854e-09 7.43829e-10)
(-6.17643e-08 -1.09586e-08 1.41063e-09)
(-4.47977e-08 1.35736e-08 -9.56116e-12)
(-4.83812e-08 8.03558e-09 -9.98801e-12)
(-4.91821e-08 5.3626e-09 4.53906e-13)
(-4.93597e-08 4.52078e-09 1.73826e-11)
(-5.01755e-08 4.21778e-09 4.94522e-11)
(-5.22314e-08 4.01587e-09 1.21537e-10)
(-5.58879e-08 3.25245e-09 2.65828e-10)
(-6.14786e-08 -1.15043e-08 4.95327e-10)
(2.18405e-08 -7.0781e-08 1.15093e-08)
(2.16238e-08 -6.76951e-08 -2.62469e-09)
(2.16868e-08 -6.53068e-08 -4.67169e-10)
(2.12085e-08 -6.44037e-08 1.23808e-09)
(2.04943e-08 -6.44856e-08 1.90626e-09)
(1.98635e-08 -6.49333e-08 1.84138e-09)
(1.94386e-08 -6.53828e-08 1.28925e-09)
(1.92323e-08 -6.56462e-08 4.59633e-10)
(9.09469e-09 -7.03556e-08 1.19521e-08)
(8.67006e-09 -6.61654e-08 -2.11664e-09)
(8.3178e-09 -6.29676e-08 -2.95461e-10)
(7.84525e-09 -6.15327e-08 1.38819e-09)
(7.32666e-09 -6.1288e-08 2.1085e-09)
(6.88866e-09 -6.15409e-08 2.03525e-09)
(6.59207e-09 -6.18827e-08 1.42073e-09)
(6.44621e-09 -6.20986e-08 5.05257e-10)
(1.19097e-08 -7.16711e-08 1.30365e-08)
(1.02468e-08 -6.73699e-08 -1.16062e-09)
(8.85011e-09 -6.41143e-08 4.57247e-10)
(7.93357e-09 -6.26332e-08 1.96084e-09)
(7.38844e-09 -6.23502e-08 2.52758e-09)
(7.05794e-09 -6.25734e-08 2.32096e-09)
(6.85729e-09 -6.28951e-08 1.58681e-09)
(6.75932e-09 -6.31008e-08 5.59732e-10)
(-1.10661e-09 -7.50168e-08 1.48502e-08)
(-2.82141e-09 -7.16637e-08 2.18476e-10)
(-4.57788e-09 -6.91256e-08 1.773e-09)
(-5.49679e-09 -6.80911e-08 2.95521e-09)
(-5.86636e-09 -6.80616e-08 3.16911e-09)
(-6.02005e-09 -6.84232e-08 2.70413e-09)
(-6.10266e-09 -6.88138e-08 1.79107e-09)
(-6.14528e-09 -6.90475e-08 6.24256e-10)
)
;
        gradient        uniform (0 0 0);
    }
    symmetry
    {
        type            solidSymmetry;
        patchType       symmetry;
        secondOrder     false;
        value           nonuniform List<vector> 
32
(
(8.1027e-09 8.62906e-09 0)
(1.29634e-08 7.79531e-09 0)
(1.37047e-08 7.21764e-09 0)
(1.38704e-08 7.3532e-09 0)
(1.44772e-08 7.7735e-09 0)
(1.55062e-08 8.31244e-09 0)
(1.67827e-08 8.14434e-09 0)
(1.88028e-08 -5.93296e-09 0)
(-1.1103e-10 1.88141e-09 0)
(1.28256e-09 4.15201e-09 0)
(1.83322e-09 5.74246e-09 0)
(2.17105e-09 6.60842e-09 0)
(2.77042e-09 7.09899e-09 0)
(3.64598e-09 7.48061e-09 0)
(4.73027e-09 7.11469e-09 0)
(5.98858e-09 -6.2029e-09 0)
(8.70281e-11 1.79767e-09 0)
(-1.02748e-09 3.84283e-09 0)
(-8.69381e-10 5.19986e-09 0)
(-2.37051e-11 5.83243e-09 0)
(1.04705e-09 6.08951e-09 0)
(2.32271e-09 6.23722e-09 0)
(3.85789e-09 5.64925e-09 0)
(5.62543e-09 -7.75849e-09 0)
(-8.0778e-09 8.39886e-09 0)
(-1.26211e-08 6.89732e-09 0)
(-1.2631e-08 5.6201e-09 0)
(-1.15914e-08 5.05228e-09 0)
(-1.05056e-08 4.77191e-09 0)
(-9.37562e-09 4.61844e-09 0)
(-8.09631e-09 3.77753e-09 0)
(-7.27609e-09 -1.07331e-08 0)
)
;
    }
    bottom
    {
        type            fixedDisplacement;
        value           uniform (0 0 0);
    }
}


// ************************************************************************* //
