/*--------------------------------*- C++ -*----------------------------------*\
| =========                 |                                                 |
| \\      /  F ield         | OpenFOAM: The Open Source CFD Toolbox           |
|  \\    /   O peration     | Version:  v1912                                 |
|   \\  /    A nd           | Website:  www.openfoam.com                      |
|    \\/     M anipulation  |                                                 |
\*---------------------------------------------------------------------------*/
FoamFile
{
    version     2.0;
    format      ascii;
    class       volSymmTensorField;
    location    "0.27/solid";
    object      epsilon;
}
// * * * * * * * * * * * * * * * * * * * * * * * * * * * * * * * * * * * * * //

dimensions      [0 0 0 0 0 0 0];


internalField   nonuniform List<symmTensor> 
256
(
(-2.54371e-06 5.07117e-08 -1.16631e-08 8.7593e-07 4.64626e-08 -2.71994e-06)
(-2.24559e-07 -7.03634e-08 -3.11683e-09 5.84626e-07 5.1471e-08 -2.54203e-06)
(-2.23378e-07 9.32672e-08 3.51301e-09 5.73819e-07 5.39934e-08 -2.52151e-06)
(-2.48331e-06 -3.97015e-08 1.30409e-08 8.3454e-07 5.58256e-08 -2.66736e-06)
(-2.49799e-06 -1.51927e-08 -1.47835e-08 -1.54793e-07 -2.39648e-08 -2.67226e-06)
(-3.56091e-07 -2.14376e-08 -4.57151e-09 -1.35528e-09 -2.07108e-08 -2.51349e-06)
(-3.54736e-07 3.86022e-08 5.85499e-09 -1.30136e-08 -1.90608e-08 -2.4919e-06)
(-2.43552e-06 2.25754e-08 1.70561e-08 -1.89112e-07 -1.79336e-08 -2.62038e-06)
(-2.53716e-06 -1.25122e-08 -1.6176e-08 -1.08083e-07 -2.49983e-08 -2.70891e-06)
(-3.54765e-07 -8.37135e-09 -5.32215e-09 -2.93906e-08 -2.43414e-08 -2.53186e-06)
(-3.53739e-07 2.11331e-08 6.92966e-09 -4.04645e-08 -2.32221e-08 -2.50989e-06)
(-2.47395e-06 1.78379e-08 1.86556e-08 -1.39372e-07 -2.08109e-08 -2.65657e-06)
(-2.59256e-06 -2.77301e-09 -1.66856e-08 -3.48818e-08 -1.77135e-08 -2.76768e-06)
(-3.33488e-07 -2.09702e-09 -5.48645e-09 -1.58845e-08 -1.65354e-08 -2.58377e-06)
(-3.32689e-07 1.14537e-08 7.08148e-09 -2.60701e-08 -1.56791e-08 -2.56174e-06)
(-2.5288e-06 6.69629e-09 1.91908e-08 -6.36311e-08 -1.44765e-08 -2.71512e-06)
(-2.6764e-06 1.95972e-09 -1.56131e-08 1.39236e-08 -1.32563e-08 -2.85551e-06)
(-3.21589e-07 5.26031e-10 -4.81192e-09 1.0787e-08 -1.1264e-08 -2.67544e-06)
(-3.2085e-07 6.07057e-09 6.31421e-09 1.09295e-09 -1.05217e-08 -2.6534e-06)
(-2.61232e-06 7.96898e-10 1.81126e-08 -1.33436e-08 -1.05194e-08 -2.80278e-06)
(-2.80651e-06 1.64568e-09 -1.31471e-08 2.81688e-08 -1.16528e-08 -2.98995e-06)
(-3.13167e-07 -8.79042e-10 -3.42659e-09 1.88843e-08 -9.62234e-09 -2.82323e-06)
(-3.12655e-07 4.98898e-09 4.88956e-09 9.42434e-09 -8.88536e-09 -2.8012e-06)
(-2.74337e-06 -2.31329e-10 1.5665e-08 1.41075e-09 -9.11042e-09 -2.937e-06)
(-2.98449e-06 3.02366e-09 -1.02514e-08 -3.30908e-07 -7.23107e-09 -3.17686e-06)
(-3.01173e-07 -3.36634e-09 -1.92886e-09 -3.22485e-07 -6.24595e-09 -3.03731e-06)
(-3.02053e-07 4.59993e-09 3.50556e-09 -3.29451e-07 -5.41298e-09 -3.01565e-06)
(-2.92725e-06 -3.60948e-09 1.28187e-08 -3.53178e-07 -4.67002e-09 -3.12421e-06)
(-3.15994e-06 9.03531e-09 -8.60931e-09 -3.36887e-06 4.70798e-09 -3.36869e-06)
(-3.01152e-07 1.85168e-09 -1.25473e-09 -3.27866e-06 4.9742e-09 -3.27799e-06)
(-3.05172e-07 -2.57202e-09 2.99364e-09 -3.26048e-06 5.76902e-09 -3.25957e-06)
(-3.12139e-06 -1.09537e-08 1.10864e-08 -3.32371e-06 6.85809e-09 -3.32326e-06)
(-2.25051e-06 4.80482e-08 -8.77881e-09 5.36004e-07 -1.16143e-07 -2.49509e-07)
(-2.04945e-07 -6.39696e-08 1.17328e-09 2.74897e-07 -9.37241e-08 -2.36655e-07)
(-2.01526e-07 7.55363e-08 5.75296e-10 2.62284e-07 -8.81031e-08 -2.37185e-07)
(-2.17611e-06 -4.11383e-08 1.02381e-08 4.92354e-07 -9.84739e-08 -2.53611e-07)
(-2.2394e-06 -1.38009e-08 -9.44627e-09 4.43876e-09 -5.40274e-08 -3.57544e-07)
(-3.33389e-07 -2.17178e-08 9.97855e-10 1.37042e-07 -4.44145e-08 -3.39667e-07)
(-3.29165e-07 2.95798e-08 2.25756e-09 1.24982e-07 -4.07029e-08 -3.41724e-07)
(-2.16319e-06 1.7198e-08 1.17954e-08 -3.04854e-08 -4.15691e-08 -3.67323e-07)
(-2.26651e-06 -1.32593e-08 -9.00469e-09 -8.49513e-09 -4.45695e-08 -3.55291e-07)
(-3.33037e-07 -1.0722e-08 1.2571e-09 6.20359e-08 -4.10328e-08 -3.34113e-07)
(-3.29086e-07 1.6277e-08 2.30964e-09 5.15061e-08 -3.83305e-08 -3.37216e-07)
(-2.18914e-06 1.54712e-08 1.1511e-08 -3.87661e-08 -3.51011e-08 -3.68239e-07)
(-2.31532e-06 -3.66283e-09 -9.01878e-09 7.40998e-09 -4.2692e-08 -3.43693e-07)
(-3.12287e-07 -4.42058e-09 1.46409e-09 2.45363e-08 -4.02716e-08 -3.21816e-07)
(-3.08428e-07 8.28564e-09 1.8978e-09 1.49323e-08 -3.80827e-08 -3.25497e-07)
(-2.23654e-06 5.25807e-09 1.14826e-08 -2.0325e-08 -3.49634e-08 -3.58292e-07)
(-2.40052e-06 2.08635e-09 -8.4596e-09 2.42668e-08 -3.96038e-08 -3.38115e-07)
(-3.02414e-07 -1.09903e-09 1.94699e-09 2.07222e-08 -3.76561e-08 -3.18625e-07)
(-2.98445e-07 3.46549e-09 1.15292e-09 1.14858e-08 -3.57286e-08 -3.22631e-07)
(-2.32019e-06 -1.10277e-09 1.0872e-08 -2.20732e-09 -3.29277e-08 -3.53621e-07)
(-2.5418e-06 3.09521e-09 -6.87493e-09 1.88211e-08 -3.64655e-08 -3.33996e-07)
(-2.99086e-07 -1.51215e-09 3.01603e-09 9.69335e-09 -3.54066e-08 -3.18787e-07)
(-2.95188e-07 2.37615e-09 -5.28829e-11 7.93551e-10 -3.36501e-08 -3.23087e-07)
(-2.4607e-06 -3.06115e-09 9.28472e-09 -6.84546e-09 -3.05399e-08 -3.50263e-07)
(-2.74821e-06 5.06547e-09 -4.46833e-09 -3.24271e-07 -3.14694e-08 -3.27536e-07)
(-2.94816e-07 -3.24276e-09 4.37884e-09 -3.15163e-07 -3.11083e-08 -3.16247e-07)
(-2.92283e-07 2.39679e-09 -1.58501e-09 -3.20955e-07 -2.96429e-08 -3.21147e-07)
(-2.67116e-06 -6.66313e-09 6.81629e-09 -3.44065e-07 -2.66245e-08 -3.45214e-07)
(-2.98498e-06 1.05091e-08 -2.15276e-09 -3.17649e-06 -6.7373e-09 -3.31748e-07)
(-3.01672e-07 2.28719e-09 5.05581e-09 -3.03778e-06 -5.91031e-09 -3.21544e-07)
(-3.02648e-07 -3.2457e-09 -3.35024e-09 -3.01643e-06 -5.11771e-09 -3.27644e-07)
(-2.92765e-06 -1.2752e-08 3.89617e-09 -3.12435e-06 -4.3532e-09 -3.52197e-07)
(-2.00746e-06 4.61747e-08 -6.54731e-09 4.10898e-07 -3.18484e-08 7.75036e-09)
(-1.89689e-07 -6.04287e-08 4.79224e-10 1.69985e-07 -1.76162e-08 5.84494e-09)
(-1.86069e-07 6.61655e-08 1.53409e-09 1.58093e-07 -1.29567e-08 4.24278e-09)
(-1.93359e-06 -4.16692e-08 7.35804e-09 3.72068e-07 -1.74741e-08 2.81141e-09)
(-2.0334e-06 -1.0769e-08 -6.11289e-09 7.42394e-09 -2.49449e-08 -3.84983e-08)
(-3.20085e-07 -2.1175e-08 7.02856e-10 1.27789e-07 -1.71789e-08 -4.08931e-08)
(-3.15244e-07 2.4345e-08 2.77635e-09 1.15987e-07 -1.32993e-08 -4.45584e-08)
(-1.95637e-06 1.23276e-08 7.62074e-09 -2.6744e-08 -1.2582e-08 -4.95514e-08)
(-2.06389e-06 -1.2571e-08 -4.54944e-09 1.9202e-08 -3.30068e-08 -4.96897e-08)
(-3.24427e-07 -1.15571e-08 1.40357e-09 8.4214e-08 -2.94017e-08 -5.22308e-08)
(-3.1967e-07 1.3381e-08 2.19929e-09 7.38393e-08 -2.61818e-08 -5.7197e-08)
(-1.98518e-06 1.32982e-08 6.169e-09 -1.10934e-08 -2.25247e-08 -6.45536e-08)
(-2.10975e-06 -4.06227e-09 -4.18697e-09 2.94555e-08 -4.13397e-08 -3.87506e-08)
(-3.05191e-07 -5.49473e-09 1.66648e-09 4.52889e-08 -3.88413e-08 -4.19042e-08)
(-3.004e-07 6.5164e-09 1.61323e-09 3.58149e-08 -3.60678e-08 -4.76622e-08)
(-2.02922e-06 4.52974e-09 5.71341e-09 1.58914e-09 -3.22744e-08 -5.59374e-08)
(-2.19183e-06 2.0432e-09 -4.27417e-09 3.14663e-08 -4.37379e-08 -2.29503e-08)
(-2.96327e-07 -1.66243e-09 1.68573e-09 2.72624e-08 -4.19495e-08 -2.70633e-08)
(-2.91312e-07 1.97783e-09 1.2516e-09 1.818e-08 -3.94879e-08 -3.33478e-08)
(-2.10923e-06 -1.86344e-09 5.69313e-09 4.97289e-09 -3.57741e-08 -4.16688e-08)
(-2.3319e-06 4.09691e-09 -3.98907e-09 1.21728e-08 -4.04117e-08 -5.98791e-09)
(-2.96204e-07 -1.19661e-09 1.98433e-09 3.00031e-09 -3.96434e-08 -1.10764e-08)
(-2.91173e-07 7.53019e-10 6.87092e-10 -5.6437e-09 -3.74966e-08 -1.78234e-08)
(-2.24779e-06 -4.5762e-09 5.32863e-09 -1.3208e-08 -3.35204e-08 -2.60017e-08)
(-2.54231e-06 7.38383e-09 -2.71539e-09 -3.25774e-07 -3.23659e-08 1.15919e-08)
(-2.98525e-07 -2.09047e-09 2.76108e-09 -3.13427e-07 -3.18066e-08 5.89023e-09)
(-2.94836e-07 6.70286e-10 -5.75044e-10 -3.18872e-07 -3.02016e-08 -1.37809e-09)
(-2.46114e-06 -9.22843e-09 3.87212e-09 -3.45085e-07 -2.71309e-08 -9.80844e-09)
(-2.80761e-06 1.33163e-08 -7.49639e-10 -2.98879e-06 -9.43414e-09 2.73542e-08)
(-3.13351e-07 3.66534e-09 3.04364e-09 -2.82355e-06 -7.77444e-09 2.10648e-08)
(-3.13235e-07 -4.69227e-09 -2.45368e-09 -2.80195e-06 -7.15125e-09 1.33523e-08)
(-2.7445e-06 -1.56438e-08 1.19615e-09 -2.93687e-06 -7.40184e-09 4.81649e-09)
(-1.85672e-06 4.3188e-08 -4.6863e-09 3.65388e-07 -6.92145e-09 8.84595e-09)
(-1.77839e-07 -5.90067e-08 8.32094e-11 1.36578e-07 1.79672e-09 7.95842e-09)
(-1.74879e-07 6.1617e-08 1.81457e-09 1.25906e-07 5.26511e-09 6.71959e-09)
(-1.78608e-06 -4.03647e-08 5.2469e-09 3.31859e-07 3.69885e-09 5.28437e-09)
(-1.89144e-06 -9.32108e-09 -5.35447e-09 -1.44709e-08 -9.30489e-09 -9.9847e-09)
(-3.06716e-07 -2.08728e-08 9.31175e-11 9.93429e-08 -3.72621e-09 -1.19276e-08)
(-3.02538e-07 2.15607e-08 3.22192e-09 8.82492e-08 -4.84255e-10 -1.49301e-08)
(-1.81718e-06 9.88614e-09 6.48127e-09 -4.67499e-08 7.46484e-10 -1.86043e-08)
(-1.92614e-06 -1.16825e-08 -4.22396e-09 9.93534e-09 -2.05804e-08 -2.34442e-08)
(-3.15299e-07 -1.17335e-08 6.48751e-10 7.1922e-08 -1.74958e-08 -2.59964e-08)
(-3.11002e-07 1.15836e-08 2.76744e-09 6.17719e-08 -1.45641e-08 -3.02089e-08)
(-1.84972e-06 1.16594e-08 5.45088e-09 -2.0011e-08 -1.1376e-08 -3.56142e-08)
(-1.97215e-06 -4.179e-09 -3.79747e-09 2.77193e-08 -3.2236e-08 -2.13021e-08)
(-2.98143e-07 -6.00881e-09 8.47565e-10 4.27971e-08 -2.99028e-08 -2.44821e-08)
(-2.93681e-07 5.55263e-09 2.23384e-09 3.33444e-08 -2.72514e-08 -2.95391e-08)
(-1.89357e-06 4.07573e-09 4.9255e-09 -3.72194e-10 -2.38717e-08 -3.59926e-08)
(-2.05244e-06 1.70396e-09 -4.01752e-09 2.91633e-08 -3.80102e-08 -1.03677e-08)
(-2.89447e-07 -2.0787e-09 6.71259e-10 2.44467e-08 -3.61459e-08 -1.40093e-08)
(-2.84685e-07 1.40255e-09 2.03358e-09 1.53424e-08 -3.37629e-08 -1.96995e-08)
(-1.97152e-06 -1.90721e-09 5.01269e-09 2.32379e-09 -3.05206e-08 -2.69424e-08)
(-2.19037e-06 4.42075e-09 -4.21542e-09 6.21731e-09 -3.60311e-08 2.6951e-09)
(-2.90165e-07 -9.90272e-10 5.65223e-10 -2.68847e-09 -3.49475e-08 -1.05455e-09)
(-2.85335e-07 1.47412e-11 1.77553e-09 -1.13618e-08 -3.29134e-08 -7.26936e-09)
(-2.10756e-06 -5.09669e-09 5.07908e-09 -1.95037e-08 -2.96244e-08 -1.54153e-08)
(-2.40041e-06 9.17543e-09 -3.66433e-09 -3.23774e-07 -2.73342e-08 1.33122e-08)
(-2.96398e-07 -9.46735e-10 8.37155e-10 -3.07695e-07 -2.64537e-08 9.68205e-09)
(-2.92871e-07 -6.57487e-10 8.71272e-10 -3.13252e-07 -2.50118e-08 3.04907e-09)
(-2.31985e-06 -1.10748e-08 4.2875e-09 -3.43617e-07 -2.26478e-08 -6.0219e-09)
(-2.67796e-06 1.59226e-08 -2.59765e-09 -2.85489e-06 -7.29813e-09 1.84556e-08)
(-3.17208e-07 5.07256e-09 6.18719e-10 -2.67656e-06 -5.70935e-09 1.46851e-08)
(-3.17217e-07 -6.21113e-09 -4.95531e-10 -2.65515e-06 -5.21735e-09 7.89899e-09)
(-2.61398e-06 -1.83141e-08 2.54063e-09 -2.80385e-06 -5.6282e-09 -1.38418e-09)
(-1.76839e-06 4.04292e-08 -2.97629e-09 3.41942e-07 -2.44183e-09 2.28695e-09)
(-1.69501e-07 -5.87749e-08 -1.20807e-11 1.20885e-07 3.34147e-09 1.88495e-09)
(-1.67189e-07 5.96111e-08 1.5367e-09 1.11297e-07 5.81777e-09 9.37048e-10)
(-1.70047e-06 -3.87104e-08 3.41623e-09 3.12678e-07 5.07084e-09 -4.41851e-10)
(-1.80407e-06 -9.05372e-09 -3.92617e-09 -3.13199e-08 -5.22651e-09 -6.21108e-09)
(-2.94667e-07 -2.09349e-08 -1.16934e-10 7.89283e-08 -1.00411e-09 -7.56774e-09)
(-2.9127e-07 2.02228e-08 2.86777e-09 6.85717e-08 1.42414e-09 -9.9494e-09)
(-1.73243e-06 9.03515e-09 4.83393e-09 -6.16254e-08 2.19446e-09 -1.3042e-08)
(-1.84074e-06 -1.11932e-08 -3.42787e-09 -6.22507e-09 -1.33756e-08 -1.56783e-08)
(-3.05074e-07 -1.1826e-08 1.69026e-10 5.39363e-08 -1.07656e-08 -1.76594e-08)
(-3.01416e-07 1.05634e-08 2.72281e-09 4.40795e-08 -8.45696e-09 -2.10948e-08)
(-1.76664e-06 1.0757e-08 4.4347e-09 -3.55127e-08 -6.24095e-09 -2.56107e-08)
(-1.88742e-06 -4.20561e-09 -3.15524e-09 1.59867e-08 -2.28494e-08 -1.78104e-08)
(-2.894e-07 -6.29434e-09 2.64038e-10 3.05694e-08 -2.08188e-08 -2.03328e-08)
(-2.85465e-07 5.00761e-09 2.36166e-09 2.11562e-08 -1.86551e-08 -2.4579e-08)
(-1.81091e-06 3.78893e-09 4.08407e-09 -1.21483e-08 -1.61178e-08 -3.01875e-08)
(-1.96696e-06 1.41613e-09 -3.31304e-09 2.1163e-08 -2.84483e-08 -1.33902e-08)
(-2.8071e-07 -2.38906e-09 7.92532e-11 1.61325e-08 -2.67346e-08 -1.63847e-08)
(-2.76413e-07 1.16658e-09 2.1991e-09 6.9572e-09 -2.47615e-08 -2.1287e-08)
(-1.8879e-06 -1.82762e-09 4.11618e-09 -6.03874e-09 -2.23049e-08 -2.77554e-08)
(-2.10333e-06 4.52336e-09 -3.52888e-09 6.80637e-10 -2.74174e-08 -7.34408e-09)
(-2.81493e-07 -9.05308e-10 -1.12563e-10 -7.90814e-09 -2.62508e-08 -1.05773e-08)
(-2.77088e-07 -3.57852e-10 2.01252e-09 -1.67181e-08 -2.45771e-08 -1.60132e-08)
(-2.02216e-06 -5.302e-09 4.19e-09 -2.55702e-08 -2.21625e-08 -2.33268e-08)
(-2.31208e-06 1.03597e-08 -3.30363e-09 -3.20738e-07 -2.01587e-08 -5.00046e-09)
(-2.89901e-07 -1.38552e-10 -9.83334e-11 -3.01879e-07 -1.92463e-08 -8.19902e-09)
(-2.86757e-07 -1.58798e-09 1.3807e-09 -3.07654e-07 -1.80841e-08 -1.40018e-08)
(-2.23274e-06 -1.22939e-08 3.72617e-09 -3.4131e-07 -1.63639e-08 -2.21391e-08)
(-2.59448e-06 1.77336e-08 -2.83805e-09 -2.77049e-06 -5.20491e-09 -9.52687e-09)
(-3.14405e-07 6.07988e-09 -5.37186e-10 -2.58602e-06 -4.01873e-09 -1.24685e-08)
(-3.1477e-07 -7.3378e-09 4.62464e-10 -2.56482e-06 -3.63353e-09 -1.834e-08)
(-2.53077e-06 -2.01938e-08 2.67581e-09 -2.72025e-06 -3.8775e-09 -2.70035e-08)
(-1.71585e-06 3.84741e-08 -1.75955e-09 3.2645e-07 -1.46578e-09 -1.58816e-10)
(-1.64123e-07 -5.89152e-08 3.40344e-12 1.10447e-07 2.27435e-09 -5.91139e-10)
(-1.62268e-07 5.87298e-08 1.08395e-09 1.01663e-07 3.93111e-09 -1.36638e-09)
(-1.64976e-06 -3.7436e-08 2.0834e-09 3.00226e-07 3.50835e-09 -2.37775e-09)
(-1.75112e-06 -9.1681e-09 -2.45577e-09 -4.27525e-08 -4.01722e-09 -4.86162e-09)
(-2.85831e-07 -2.11277e-08 -6.75409e-11 6.55865e-08 -9.98297e-10 -6.43048e-09)
(-2.83009e-07 1.9608e-08 2.0833e-09 5.58162e-08 6.58166e-10 -8.40766e-09)
(-1.68131e-06 8.80653e-09 3.13473e-09 -7.14683e-08 9.97985e-10 -1.04979e-08)
(-1.78841e-06 -1.10184e-08 -2.28359e-09 -1.9457e-08 -9.03609e-09 -1.08033e-08)
(-2.96503e-07 -1.19424e-08 6.08296e-11 3.95618e-08 -7.01331e-09 -1.31661e-08)
(-2.93332e-07 1.00285e-08 2.10638e-09 2.99783e-08 -5.39491e-09 -1.60666e-08)
(-1.71596e-06 1.03436e-08 3.05063e-09 -4.8066e-08 -4.072e-09 -1.91501e-08)
(-1.83549e-06 -4.23399e-09 -2.16103e-09 4.03084e-09 -1.5079e-08 -1.41278e-08)
(-2.81495e-07 -6.47951e-09 8.64858e-11 1.82334e-08 -1.34993e-08 -1.70924e-08)
(-2.77969e-07 4.69294e-09 1.90666e-09 8.8806e-09 -1.1946e-08 -2.07483e-08)
(-1.76046e-06 3.63233e-09 2.87804e-09 -2.40141e-08 -1.0272e-08 -2.47607e-08)
(-1.91466e-06 1.24487e-09 -2.25557e-09 1.24642e-08 -1.89262e-08 -1.44216e-08)
(-2.72796e-07 -2.58866e-09 -4.99665e-11 7.20709e-09 -1.75958e-08 -1.79404e-08)
(-2.68859e-07 1.02118e-09 1.77574e-09 -2.0266e-09 -1.61607e-08 -2.22393e-08)
(-1.83695e-06 -1.78558e-09 2.87531e-09 -1.49912e-08 -1.44669e-08 -2.70252e-08)
(-2.05e-06 4.58378e-09 -2.3916e-09 -4.31464e-09 -1.83081e-08 -1.46401e-08)
(-2.73586e-07 -8.64645e-10 -2.03912e-10 -1.26917e-08 -1.73591e-08 -1.8566e-08)
(-2.69507e-07 -6.02254e-10 1.61446e-09 -2.16333e-08 -1.61394e-08 -2.33931e-08)
(-1.97003e-06 -5.43478e-09 2.89186e-09 -3.10203e-08 -1.44712e-08 -2.88826e-08)
(-2.25746e-06 1.11107e-08 -2.29141e-09 -3.18957e-07 -1.32455e-08 -1.89337e-08)
(-2.83286e-07 3.67861e-10 -2.66603e-10 -2.98304e-07 -1.25328e-08 -2.29674e-08)
(-2.80437e-07 -2.20587e-09 1.17846e-09 -3.04267e-07 -1.16894e-08 -2.81441e-08)
(-2.17904e-06 -1.30818e-08 2.59713e-09 -3.4014e-07 -1.04755e-08 -3.43293e-08)
(-2.54194e-06 1.88927e-08 -2.08584e-09 -2.71843e-06 -3.47021e-09 -2.97639e-08)
(-3.10042e-07 6.71971e-09 -6.79145e-10 -2.53091e-06 -2.68704e-09 -3.34543e-08)
(-3.10687e-07 -8.08157e-09 5.64166e-10 -2.50988e-06 -2.40811e-09 -3.86726e-08)
(-2.47854e-06 -2.14164e-08 1.94632e-09 -2.66884e-06 -2.50188e-09 -4.54597e-08)
(-1.68581e-06 3.72946e-08 -9.25831e-10 3.16362e-07 -8.95261e-10 -7.44267e-10)
(-1.60965e-07 -5.90629e-08 1.83633e-11 1.03424e-07 1.19688e-09 -1.19328e-09)
(-1.59393e-07 5.83205e-08 6.2935e-10 9.51615e-08 2.14758e-09 -1.86968e-09)
(-1.62084e-06 -3.66443e-08 1.1233e-09 2.92062e-07 1.93575e-09 -2.65553e-09)
(-1.72066e-06 -9.30422e-09 -1.30294e-09 -5.02113e-08 -2.69409e-09 -3.98278e-09)
(-2.80372e-07 -2.12815e-08 2.4196e-12 5.71597e-08 -8.9522e-10 -5.66681e-09)
(-2.77909e-07 1.93184e-08 1.21953e-09 4.77803e-08 6.36242e-11 -7.40299e-09)
(-1.65199e-06 8.75319e-09 1.7217e-09 -7.78562e-08 1.90588e-10 -8.87566e-09)
(-1.75807e-06 -1.09737e-08 -1.24525e-09 -2.81668e-08 -5.42409e-09 -8.11975e-09)
(-2.90828e-07 -1.20402e-08 6.38681e-11 3.01908e-08 -4.15128e-09 -1.0749e-08)
(-2.87967e-07 9.75932e-09 1.27182e-09 2.0806e-08 -3.20103e-09 -1.33214e-08)
(-1.68667e-06 1.01659e-08 1.72495e-09 -5.62596e-08 -2.52137e-09 -1.54521e-08)
(-1.80529e-06 -4.26735e-09 -1.20164e-09 -4.46842e-09 -8.60473e-09 -1.17226e-08)
(-2.7601e-07 -6.59854e-09 6.48281e-11 9.4648e-09 -7.60639e-09 -1.50556e-08)
(-2.72744e-07 4.51763e-09 1.17796e-09 1.68098e-10 -6.68142e-09 -1.8338e-08)
(-1.73121e-06 3.55792e-09 1.65541e-09 -3.23924e-08 -5.7481e-09 -2.12023e-08)
(-1.88425e-06 1.15344e-09 -1.25389e-09 5.88992e-09 -1.06555e-08 -1.47334e-08)
(-2.67286e-07 -2.70498e-09 -1.63179e-11 4.61125e-10 -9.82813e-09 -1.86772e-08)
(-2.63576e-07 9.19826e-10 1.09518e-09 -8.80574e-09 -8.96527e-09 -2.2584e-08)
(-1.80739e-06 -1.77494e-09 1.6479e-09 -2.17044e-08 -7.97424e-09 -2.61378e-08)
(-2.01895e-06 4.63023e-09 -1.32319e-09 -8.15289e-09 -1.02636e-08 -1.90857e-08)
(-2.68125e-07 -8.40999e-10 -1.08349e-10 -1.64285e-08 -9.67219e-09 -2.34996e-08)
(-2.64249e-07 -7.6945e-10 9.83185e-10 -2.54594e-08 -8.93568e-09 -2.79285e-08)
(-1.93975e-06 -5.53266e-09 1.63962e-09 -3.51578e-08 -7.94135e-09 -3.21307e-08)
(-2.22548e-06 1.15642e-08 -1.27454e-09 -3.18394e-07 -7.36198e-09 -2.77152e-08)
(-2.7862e-07 6.62232e-10 -1.64708e-10 -2.96693e-07 -6.93376e-09 -3.22989e-08)
(-2.75953e-07 -2.58856e-09 7.19978e-10 -3.02784e-07 -6.42388e-09 -3.70722e-08)
(-2.14766e-06 -1.35669e-08 1.46569e-09 -3.39988e-07 -5.68011e-09 -4.19252e-08)
(-2.51094e-06 1.95867e-08 -1.1773e-09 -2.68817e-06 -1.96474e-09 -4.24075e-08)
(-3.06743e-07 7.09418e-09 -4.35718e-10 -2.49913e-06 -1.52816e-09 -4.66664e-08)
(-3.07565e-07 -8.53164e-09 3.53454e-10 -2.47822e-06 -1.35924e-09 -5.14698e-08)
(-2.44778e-06 -2.21579e-08 1.09103e-09 -2.63903e-06 -1.37548e-09 -5.69085e-08)
(-1.67205e-06 3.67479e-08 -2.89386e-10 3.11335e-07 -3.08072e-10 -7.92194e-10)
(-1.59508e-07 -5.91371e-08 9.3966e-12 9.98417e-08 3.6301e-10 -1.22574e-09)
(-1.58071e-07 5.81505e-08 2.05462e-10 9.18332e-08 6.72768e-10 -1.8556e-09)
(-1.6076e-06 -3.62732e-08 3.5547e-10 2.87963e-07 6.10363e-10 -2.55607e-09)
(-1.70667e-06 -9.37492e-09 -4.05363e-10 -5.39786e-08 -9.50114e-10 -3.48446e-09)
(-2.77817e-07 -2.13554e-08 1.07558e-11 5.29881e-08 -3.55717e-10 -5.16023e-09)
(-2.75526e-07 1.91964e-08 3.98034e-10 4.3802e-08 -4.21505e-11 -6.78171e-09)
(-1.63856e-06 8.73991e-09 5.46423e-10 -8.10903e-08 -9.83769e-12 -8.0177e-09)
(-1.74409e-06 -1.09651e-08 -3.90304e-10 -3.2451e-08 -1.8227e-09 -6.9628e-09)
(-2.88092e-07 -1.2091e-08 3.07802e-11 2.56079e-08 -1.39052e-09 -9.64584e-09)
(-2.85381e-07 9.64419e-09 4.19846e-10 1.63255e-08 -1.07782e-09 -1.20603e-08)
(-1.6732e-06 1.00975e-08 5.53089e-10 -6.02712e-08 -8.6938e-10 -1.37984e-08)
(-1.79134e-06 -4.28864e-09 -3.80052e-10 -8.72895e-09 -2.8022e-09 -1.06675e-08)
(-2.733e-07 -6.65729e-09 2.9393e-11 5.06582e-09 -2.46171e-09 -1.41128e-08)
(-2.70161e-07 4.43834e-09 3.92641e-10 -4.1983e-09 -2.15531e-09 -1.72131e-08)
(-1.71772e-06 3.52891e-09 5.35039e-10 -3.65748e-08 -1.85672e-09 -1.95739e-08)
(-1.87019e-06 1.11296e-09 -3.97182e-10 2.47713e-09 -3.42713e-09 -1.48861e-08)
(-2.64552e-07 -2.75915e-09 2.51773e-12 -3.04757e-09 -3.1478e-09 -1.89684e-08)
(-2.60953e-07 8.66628e-10 3.6476e-10 -1.23279e-08 -2.86054e-09 -2.26819e-08)
(-1.79376e-06 -1.77417e-09 5.32204e-10 -2.51742e-08 -2.53425e-09 -2.56864e-08)
(-2.0046e-06 4.65645e-09 -4.18277e-10 -1.02271e-08 -3.28523e-09 -2.11991e-08)
(-2.65433e-07 -8.29517e-10 -2.77996e-11 -1.84681e-08 -3.08694e-09 -2.57638e-08)
(-2.61656e-07 -8.5632e-10 3.24964e-10 -2.75423e-08 -2.84104e-09 -2.99958e-08)
(-1.92576e-06 -5.58601e-09 5.26608e-10 -3.73755e-08 -2.50885e-09 -3.36376e-08)
(-2.21065e-06 1.17814e-08 -4.02847e-10 -3.1834e-07 -2.34614e-09 -3.19255e-08)
(-2.76324e-07 7.98862e-10 -4.8779e-11 -2.9616e-07 -2.20582e-09 -3.66722e-08)
(-2.73745e-07 -2.77386e-09 2.36286e-10 -3.02313e-07 -2.03534e-09 -4.12471e-08)
(-2.13312e-06 -1.3802e-08 4.68128e-10 -3.40138e-07 -1.78253e-09 -4.55364e-08)
(-2.49652e-06 1.9915e-08 -3.72371e-10 -2.6742e-06 -6.31586e-10 -4.84666e-08)
(-3.05118e-07 7.26778e-09 -1.41412e-10 -2.48454e-06 -4.92409e-10 -5.29035e-08)
(-3.06026e-07 -8.74505e-09 1.12958e-10 -2.46369e-06 -4.35874e-10 -5.75036e-08)
(-2.43349e-06 -2.25114e-08 3.4357e-10 -2.62529e-06 -4.33873e-10 -6.23657e-08)
)
;

boundaryField
{
    interface
    {
        type            calculated;
        value           nonuniform List<symmTensor> 
192
(
(-4.63047e-06 1.79252e-12 2.51692e-11 8.7593e-07 4.64626e-08 -2.71994e-06)
(-4.38667e-06 3.25971e-13 3.69259e-11 -1.54793e-07 -2.39648e-08 -2.67226e-06)
(-4.47128e-06 -1.93997e-12 3.88581e-11 -1.08083e-07 -2.49983e-08 -2.70891e-06)
(-4.59352e-06 -4.41105e-12 3.86287e-11 -3.48818e-08 -1.77135e-08 -2.76768e-06)
(-4.76118e-06 -6.56447e-12 3.73821e-11 1.39236e-08 -1.32563e-08 -2.85551e-06)
(-5.01727e-06 -1.08373e-11 3.57699e-11 2.81688e-08 -1.16528e-08 -2.98995e-06)
(-5.3714e-06 -1.37698e-11 3.22735e-11 -3.30908e-07 -7.23107e-09 -3.17686e-06)
(-5.69621e-06 -2.93269e-11 2.93645e-11 -3.36887e-06 4.70798e-09 -3.36869e-06)
(-4.08738e-06 1.07636e-12 1.29685e-11 5.36004e-07 -1.16143e-07 -2.49509e-07)
(-3.91861e-06 -3.74348e-13 2.00818e-11 4.43876e-09 -5.40274e-08 -3.57544e-07)
(-3.97951e-06 -2.52282e-12 2.09381e-11 -8.49513e-09 -4.45695e-08 -3.55291e-07)
(-4.08936e-06 -5.17976e-12 2.04684e-11 7.40998e-09 -4.2692e-08 -3.43693e-07)
(-4.25783e-06 -7.55891e-12 1.9393e-11 2.42668e-08 -3.96038e-08 -3.38115e-07)
(-4.53042e-06 -1.23846e-11 1.80959e-11 1.88211e-08 -3.64655e-08 -3.33996e-07)
(-4.93244e-06 -1.56657e-11 1.5833e-11 -3.24271e-07 -3.14694e-08 -3.27536e-07)
(-5.37198e-06 -3.22748e-11 1.39352e-11 -3.17649e-06 -6.7373e-09 -3.31748e-07)
(-3.63191e-06 9.03742e-13 1.04952e-11 4.10898e-07 -3.18484e-08 7.75036e-09)
(-3.53248e-06 -6.70567e-13 1.61115e-11 7.42394e-09 -2.49449e-08 -3.84983e-08)
(-3.59439e-06 -2.952e-12 1.67787e-11 1.9202e-08 -3.30068e-08 -4.96897e-08)
(-3.69763e-06 -5.9098e-12 1.63906e-11 2.94555e-08 -4.13397e-08 -3.87506e-08)
(-3.85971e-06 -8.63577e-12 1.55219e-11 3.14663e-08 -4.37379e-08 -2.29503e-08)
(-4.12763e-06 -1.4091e-11 1.4451e-11 1.21728e-08 -4.04117e-08 -5.98791e-09)
(-4.53176e-06 -1.79291e-11 1.27125e-11 -3.25774e-07 -3.23659e-08 1.15919e-08)
(-5.01923e-06 -3.58433e-11 1.11477e-11 -2.98879e-06 -9.43414e-09 2.73542e-08)
(-3.35246e-06 6.05556e-13 6.69837e-12 3.65388e-07 -6.92145e-09 8.84595e-09)
(-3.27161e-06 -1.08881e-12 1.06396e-11 -1.44709e-08 -9.30489e-09 -9.9847e-09)
(-3.33682e-06 -3.43656e-12 1.10696e-11 9.93534e-09 -2.05804e-08 -2.34442e-08)
(-3.4386e-06 -6.54304e-12 1.07281e-11 2.77193e-08 -3.2236e-08 -2.13021e-08)
(-3.59754e-06 -9.44766e-12 1.00615e-11 2.91633e-08 -3.80102e-08 -1.03677e-08)
(-3.8612e-06 -1.51991e-11 9.26242e-12 6.21731e-09 -3.60311e-08 2.6951e-09)
(-4.26159e-06 -1.92812e-11 8.10865e-12 -3.23774e-07 -2.73342e-08 1.33122e-08)
(-4.76678e-06 -3.76159e-11 7.08489e-12 -2.85489e-06 -7.29813e-09 1.84556e-08)
(-3.18997e-06 4.92423e-13 4.99842e-12 3.41942e-07 -2.44183e-09 2.28695e-09)
(-3.11496e-06 -1.32454e-12 7.91156e-12 -3.13199e-08 -5.22651e-09 -6.21108e-09)
(-3.18188e-06 -3.78535e-12 8.23571e-12 -6.22507e-09 -1.33756e-08 -1.56783e-08)
(-3.28365e-06 -7.04033e-12 7.98171e-12 1.59867e-08 -2.28494e-08 -1.78104e-08)
(-3.44131e-06 -1.01196e-11 7.48816e-12 2.1163e-08 -2.84483e-08 -1.33902e-08)
(-3.70227e-06 -1.61226e-11 6.88524e-12 6.80637e-10 -2.74174e-08 -7.34408e-09)
(-4.09852e-06 -2.04373e-11 6.05248e-12 -3.20738e-07 -2.01587e-08 -5.00046e-09)
(-4.60925e-06 -3.91449e-11 5.2851e-12 -2.77049e-06 -5.20491e-09 -9.52687e-09)
(-3.09352e-06 3.86826e-13 3.14946e-12 3.2645e-07 -1.46578e-09 -1.58816e-10)
(-3.02119e-06 -1.52013e-12 5.07584e-12 -4.27525e-08 -4.01722e-09 -4.86162e-09)
(-3.08882e-06 -4.05549e-12 5.28897e-12 -1.9457e-08 -9.03609e-09 -1.08033e-08)
(-3.19073e-06 -7.39958e-12 5.11019e-12 4.03084e-09 -1.5079e-08 -1.41278e-08)
(-3.34778e-06 -1.05812e-11 4.7776e-12 1.24642e-08 -1.89262e-08 -1.44216e-08)
(-3.60693e-06 -1.67207e-11 4.37449e-12 -4.31464e-09 -1.83081e-08 -1.46401e-08)
(-3.99969e-06 -2.11605e-11 3.84694e-12 -3.18957e-07 -1.32455e-08 -1.89337e-08)
(-4.512e-06 -4.00686e-11 3.36354e-12 -2.71843e-06 -3.47021e-09 -2.97639e-08)
(-3.03838e-06 3.43728e-13 1.86357e-12 3.16362e-07 -8.95261e-10 -7.44267e-10)
(-2.96745e-06 -1.62683e-12 2.99416e-12 -5.02113e-08 -2.69409e-09 -3.98278e-09)
(-3.03535e-06 -4.22372e-12 3.12231e-12 -2.81668e-08 -5.42409e-09 -8.11975e-09)
(-3.13733e-06 -7.63373e-12 3.01828e-12 -4.46842e-09 -8.60473e-09 -1.17226e-08)
(-3.29404e-06 -1.08904e-11 2.82558e-12 5.88992e-09 -1.06555e-08 -1.47334e-08)
(-3.55203e-06 -1.71233e-11 2.58635e-12 -8.15289e-09 -1.02636e-08 -1.90857e-08)
(-3.94235e-06 -2.16523e-11 2.28326e-12 -3.18394e-07 -7.36198e-09 -2.77152e-08)
(-4.45502e-06 -4.07004e-11 1.99283e-12 -2.68817e-06 -1.96474e-09 -4.24075e-08)
(-3.0131e-06 3.12183e-13 5.74896e-13 3.11335e-07 -3.08072e-10 -7.92194e-10)
(-2.94282e-06 -1.68765e-12 9.42468e-13 -5.39786e-08 -9.50114e-10 -3.48446e-09)
(-3.01079e-06 -4.30966e-12 9.83823e-13 -3.2451e-08 -1.8227e-09 -6.9628e-09)
(-3.1128e-06 -7.74623e-12 9.48361e-13 -8.72895e-09 -2.8022e-09 -1.06675e-08)
(-3.26934e-06 -1.10358e-11 8.85944e-13 2.47713e-09 -3.42713e-09 -1.48861e-08)
(-3.52675e-06 -1.73063e-11 8.07838e-13 -1.02271e-08 -3.28523e-09 -2.11991e-08)
(-3.91584e-06 -2.18772e-11 7.1435e-13 -3.1834e-07 -2.34614e-09 -3.19255e-08)
(-4.42856e-06 -4.09861e-11 6.20934e-13 -2.6742e-06 -6.31586e-10 -4.84666e-08)
(-2.54371e-06 5.07117e-08 -3.83279e-11 8.7593e-07 -5.46641e-12 -4.93883e-06)
(-2.49799e-06 -1.51927e-08 -5.79847e-11 -1.54793e-07 -5.06989e-12 -4.69349e-06)
(-2.53716e-06 -1.25122e-08 -6.17071e-11 -1.08083e-07 -3.19742e-12 -4.7785e-06)
(-2.59256e-06 -2.77301e-09 -6.20685e-11 -3.48818e-08 -2.31189e-12 -4.90278e-06)
(-2.6764e-06 1.95972e-09 -6.15251e-11 1.39236e-08 -2.02369e-12 -5.07251e-06)
(-2.80651e-06 1.64568e-09 -6.10605e-11 2.81688e-08 -2.44983e-12 -5.33217e-06)
(-2.98449e-06 3.02366e-09 -6.02611e-11 -3.30908e-07 -2.88124e-12 -5.69876e-06)
(-3.15994e-06 9.03531e-09 -6.28166e-11 -3.36887e-06 -4.18518e-12 -6.05344e-06)
(-2.24559e-07 -7.03634e-08 -2.76127e-11 5.84626e-07 -2.68329e-12 -4.61116e-06)
(-3.56091e-07 -2.14376e-08 -4.50875e-11 -1.35528e-09 -2.7964e-12 -4.41388e-06)
(-3.54765e-07 -8.37135e-09 -4.79305e-11 -2.93906e-08 -1.56249e-12 -4.46853e-06)
(-3.33488e-07 -2.09702e-09 -4.79936e-11 -1.58845e-08 -7.30574e-13 -4.58101e-06)
(-3.21589e-07 5.26031e-10 -4.76718e-11 1.0787e-08 -2.09003e-13 -4.75507e-06)
(-3.13167e-07 -8.79042e-10 -4.76813e-11 1.88843e-08 -2.00158e-14 -5.03473e-06)
(-3.01173e-07 -3.36634e-09 -4.79825e-11 -3.22485e-07 -1.29691e-14 -5.44915e-06)
(-3.01152e-07 1.85168e-09 -5.18276e-11 -3.27866e-06 -4.41017e-13 -5.9001e-06)
(-2.23378e-07 9.32672e-08 -2.95237e-11 5.73819e-07 -1.50326e-12 -4.57084e-06)
(-3.54736e-07 3.86022e-08 -4.79867e-11 -1.30136e-08 -1.51399e-12 -4.37054e-06)
(-3.53739e-07 2.11331e-08 -5.12085e-11 -4.04645e-08 -5.85978e-13 -4.42366e-06)
(-3.32689e-07 1.14537e-08 -5.13055e-11 -2.60701e-08 2.91706e-13 -4.53559e-06)
(-3.2085e-07 6.07057e-09 -5.08117e-11 1.09295e-09 1.00322e-12 -4.70943e-06)
(-3.12655e-07 4.98898e-09 -5.04417e-11 9.42434e-09 1.63549e-12 -4.98892e-06)
(-3.02053e-07 4.59993e-09 -5.01194e-11 -3.29451e-07 2.08817e-12 -5.40348e-06)
(-3.05172e-07 -2.57202e-09 -5.32969e-11 -3.26048e-06 2.20177e-12 -5.85917e-06)
(-2.48331e-06 -3.97015e-08 -3.46754e-11 8.3454e-07 -1.00882e-12 -4.83127e-06)
(-2.43552e-06 2.25754e-08 -5.59616e-11 -1.89112e-07 -8.1114e-13 -4.58262e-06)
(-2.47395e-06 1.78379e-08 -5.98587e-11 -1.39372e-07 7.79755e-14 -4.66417e-06)
(-2.5288e-06 6.69629e-09 -6.00534e-11 -6.36311e-08 1.04888e-12 -4.78685e-06)
(-2.61232e-06 7.96898e-10 -5.93289e-11 -1.33436e-08 1.85825e-12 -4.95572e-06)
(-2.74337e-06 -2.31329e-10 -5.86958e-11 1.41075e-09 2.77146e-12 -5.21453e-06)
(-2.92725e-06 -3.60948e-09 -5.7474e-11 -3.53178e-07 3.50381e-12 -5.58037e-06)
(-3.12139e-06 -1.09537e-08 -6.0445e-11 -3.32371e-06 4.44808e-12 -5.9456e-06)
(-4.51203e-06 5.71432e-12 1.57931e-11 8.3454e-07 5.58256e-08 -2.66736e-06)
(-4.26444e-06 3.81949e-12 2.48555e-11 -1.89112e-07 -1.79336e-08 -2.62038e-06)
(-4.34691e-06 -3.12514e-13 2.6213e-11 -1.39372e-07 -2.08109e-08 -2.65657e-06)
(-4.46759e-06 -3.68602e-12 2.61264e-11 -6.36311e-08 -1.44765e-08 -2.71512e-06)
(-4.6345e-06 -5.85684e-12 2.55648e-11 -1.33436e-08 -1.05194e-08 -2.80278e-06)
(-4.89202e-06 -9.47914e-12 2.56403e-11 1.41075e-09 -9.11042e-09 -2.937e-06)
(-5.25515e-06 -9.9134e-12 2.45123e-11 -3.53178e-07 -4.67002e-09 -3.12421e-06)
(-5.61108e-06 -2.58831e-11 2.63018e-11 -3.32371e-06 6.85809e-09 -3.32326e-06)
(-3.94542e-06 1.85903e-12 3.58302e-12 4.92354e-07 -9.84739e-08 -2.53611e-07)
(-3.77463e-06 5.78575e-13 7.80118e-12 -3.04854e-08 -4.15691e-08 -3.67323e-07)
(-3.83267e-06 -1.83614e-12 7.98749e-12 -3.87661e-08 -3.51011e-08 -3.68239e-07)
(-3.93952e-06 -4.32317e-12 7.70885e-12 -2.0325e-08 -3.49634e-08 -3.58292e-07)
(-4.10511e-06 -5.78363e-12 7.53861e-12 -2.20732e-09 -3.29277e-08 -3.53621e-07)
(-4.37602e-06 -9.02892e-12 8.13004e-12 -6.84546e-09 -3.05399e-08 -3.50263e-07)
(-4.7834e-06 -7.88638e-12 8.40468e-12 -3.44065e-07 -2.66245e-08 -3.45214e-07)
(-5.25537e-06 -2.41304e-11 1.04772e-11 -3.12435e-06 -4.3532e-09 -3.52197e-07)
(-3.4914e-06 9.13005e-13 5.10546e-12 3.72068e-07 -1.74741e-08 2.81141e-09)
(-3.3881e-06 -4.57601e-13 9.43987e-12 -2.6744e-08 -1.2582e-08 -4.95514e-08)
(-3.4465e-06 -2.40252e-12 1.00195e-11 -1.10934e-08 -2.25247e-08 -6.45536e-08)
(-3.54615e-06 -4.71933e-12 9.91756e-12 1.58914e-09 -3.22744e-08 -5.59374e-08)
(-3.70454e-06 -5.97301e-12 9.71916e-12 4.97289e-09 -3.57741e-08 -4.16688e-08)