/*--------------------------------*- C++ -*----------------------------------*\
| =========                 |                                                 |
| \\      /  F ield         | OpenFOAM: The Open Source CFD Toolbox           |
|  \\    /   O peration     | Version:  v1912                                 |
|   \\  /    A nd           | Website:  www.openfoam.com                      |
|    \\/     M anipulation  |                                                 |
\*---------------------------------------------------------------------------*/
FoamFile
{
    version     2.0;
    format      ascii;
    class       pointVectorField;
    location    "0.27/solid";
    object      pointDD;
}
// * * * * * * * * * * * * * * * * * * * * * * * * * * * * * * * * * * * * * //

dimensions      [0 1 0 0 0 0 0];


internalField   nonuniform List<vector> 
405
(
(3.29873e-10 5.89388e-10 3.06054e-10)
(1.54729e-10 3.87976e-10 1.43319e-10)
(-2.17511e-12 3.08034e-10 8.24128e-11)
(-1.5498e-10 3.81062e-10 1.35438e-10)
(-3.02482e-10 5.74172e-10 2.94821e-10)
(6.49703e-10 6.52216e-10 7.39765e-10)
(4.18889e-10 5.9992e-10 5.55639e-10)
(-4.57379e-12 4.78948e-10 4.24593e-10)
(-4.18655e-10 5.89107e-10 5.39724e-10)
(-6.06251e-10 6.34869e-10 7.21571e-10)
(8.16406e-10 1.96872e-10 1.22043e-09)
(5.36965e-10 2.33105e-10 1.02409e-09)
(-4.7147e-12 1.77545e-10 8.80084e-10)
(-5.35923e-10 2.27464e-10 1.00719e-09)
(-7.70185e-10 1.88615e-10 1.1998e-09)
(8.08718e-10 -2.14233e-10 1.6011e-09)
(5.28517e-10 -1.41914e-10 1.40144e-09)
(-5.04406e-12 -1.66764e-10 1.24767e-09)
(-5.28275e-10 -1.4377e-10 1.38307e-09)
(-7.62651e-10 -2.1625e-10 1.57857e-09)
(7.84751e-10 -5.81167e-10 1.96752e-09)
(5.04654e-10 -5.19882e-10 1.75863e-09)
(-6.32727e-12 -5.49894e-10 1.59062e-09)
(-5.07013e-10 -5.18733e-10 1.73914e-09)
(-7.40648e-10 -5.78332e-10 1.94358e-09)
(8.27484e-10 -9.53962e-10 2.36206e-09)
(5.30413e-10 -9.30616e-10 2.13477e-09)
(-8.4601e-12 -9.82699e-10 1.94912e-09)
(-5.37011e-10 -9.26984e-10 2.11438e-09)
(-7.86884e-10 -9.4707e-10 2.33707e-09)
(1.02363e-09 -1.44096e-09 2.82136e-09)
(6.70341e-10 -1.4472e-09 2.56436e-09)
(-1.14963e-11 -1.50058e-09 2.36251e-09)
(-6.82759e-10 -1.44178e-09 2.54308e-09)
(-9.87296e-10 -1.431e-09 2.7955e-09)
(1.47336e-09 -2.39731e-09 3.38797e-09)
(9.42096e-10 -2.35448e-09 3.16356e-09)
(-1.60659e-11 -2.32373e-09 2.96736e-09)
(-9.62315e-10 -2.34594e-09 3.1407e-09)
(-1.43826e-09 -2.38241e-09 3.36062e-09)
(1.78317e-09 -3.06159e-09 3.74562e-09)
(1.10643e-09 -2.92459e-09 3.62912e-09)
(-1.8785e-11 -2.78092e-09 3.48557e-09)
(-1.131e-09 -2.90726e-09 3.61136e-09)
(-1.76295e-09 -3.03765e-09 3.7209e-09)
(1.07337e-10 2.78536e-10 1.4603e-10)
(0 0 0)
(0 0 0)
(0 0 0)
(-7.3358e-11 2.68108e-10 1.42953e-10)
(3.16404e-10 3.42402e-10 5.25552e-10)
(0 0 0)
(0 0 0)
(0 0 0)
(-2.45809e-10 3.26537e-10 5.17157e-10)
(4.22697e-10 -7.76863e-11 9.52529e-10)
(0 0 0)
(0 0 0)
(0 0 0)
(-3.48442e-10 -8.51721e-11 9.40921e-10)
(4.08454e-10 -4.62038e-10 1.32255e-09)
(0 0 0)
(0 0 0)
(0 0 0)
(-3.33182e-10 -4.6349e-10 1.30933e-09)
(3.83926e-10 -8.1214e-10 1.67808e-09)
(0 0 0)
(0 0 0)
(0 0 0)
(-3.09562e-10 -8.08626e-10 1.6637e-09)
(4.18699e-10 -1.15648e-09 2.05461e-09)
(0 0 0)
(0 0 0)
(0 0 0)
(-3.46741e-10 -1.14872e-09 2.03932e-09)
(5.92263e-10 -1.5668e-09 2.47175e-09)
(0 0 0)
(0 0 0)
(0 0 0)
(-5.2292e-10 -1.55581e-09 2.45562e-09)
(1.06711e-09 -2.35242e-09 2.87295e-09)
(0 0 0)
(0 0 0)
(0 0 0)
(-9.93472e-10 -2.33641e-09 2.8556e-09)
(1.4736e-09 -2.86713e-09 3.10167e-09)
(9.42204e-10 -2.64309e-09 3.1206e-09)
(-1.58075e-11 -2.44688e-09 3.09016e-09)
(-9.61913e-10 -2.62044e-09 3.11137e-09)
(-1.43798e-09 -2.84054e-09 3.08563e-09)
(-4.57069e-11 8.2249e-11 2.97287e-11)
(0 0 0)
(0 0 0)
(0 0 0)
(7.55751e-11 7.31371e-11 2.85879e-11)
(-4.94459e-11 -1.16575e-11 2.22401e-10)
(0 0 0)
(0 0 0)
(0 0 0)
(1.11857e-10 -2.56799e-11 2.1838e-10)
(-1.42995e-11 -3.629e-10 5.65333e-10)
(0 0 0)
(0 0 0)
(0 0 0)
(8.08667e-11 -3.69898e-10 5.5855e-10)
(-4.14261e-11 -7.02143e-10 9.1644e-10)
(0 0 0)
(0 0 0)
(0 0 0)
(1.0991e-10 -7.03922e-10 9.07973e-10)
(-6.99496e-11 -1.02266e-09 1.25447e-09)
(0 0 0)
(0 0 0)
(0 0 0)
(1.38428e-10 -1.01985e-09 1.24481e-09)
(-4.18053e-11 -1.32076e-09 1.58727e-09)
(0 0 0)
(0 0 0)
(0 0 0)
(1.08839e-10 -1.31394e-09 1.5766e-09)
(1.23455e-10 -1.62507e-09 1.89555e-09)
(0 0 0)
(0 0 0)
(0 0 0)
(-5.80344e-11 -1.61524e-09 1.88386e-09)
(5.92037e-10 -2.19641e-09 2.08418e-09)
(0 0 0)
(0 0 0)
(0 0 0)
(-5.21544e-10 -2.1817e-09 2.0714e-09)
(1.02346e-09 -2.54552e-09 2.14425e-09)
(6.69946e-10 -2.28939e-09 2.21389e-09)
(-1.10743e-11 -2.08768e-09 2.26816e-09)
(-6.81466e-10 -2.26813e-09 2.20743e-09)
(-9.85817e-10 -2.52031e-09 2.13267e-09)
(-1.00817e-10 5.90143e-12 3.07141e-11)
(0 0 0)
(0 0 0)
(0 0 0)
(1.29505e-10 -3.21025e-12 2.99066e-11)
(-1.92898e-10 -1.61272e-10 1.93143e-10)
(0 0 0)
(0 0 0)
(0 0 0)
(2.53306e-10 -1.75429e-10 1.90278e-10)
(-1.97124e-10 -5.03923e-10 4.80715e-10)
(0 0 0)
(0 0 0)
(0 0 0)
(2.62512e-10 -5.11358e-10 4.75712e-10)
(-2.28024e-10 -8.26559e-10 7.91238e-10)
(0 0 0)
(0 0 0)
(0 0 0)
(2.96276e-10 -8.29052e-10 7.84705e-10)
(-2.5106e-10 -1.11356e-09 1.0922e-09)
(0 0 0)
(0 0 0)
(0 0 0)
(3.20301e-10 -1.11163e-09 1.08451e-09)
(-2.16896e-10 -1.35083e-09 1.3676e-09)
(0 0 0)
(0 0 0)
(0 0 0)
(2.85788e-10 -1.34499e-09 1.35893e-09)
(-4.65979e-11 -1.5638e-09 1.58219e-09)
(0 0 0)
(0 0 0)
(0 0 0)
(1.1509e-10 -1.555e-09 1.57259e-09)
(4.13733e-10 -2.0261e-09 1.66743e-09)
(0 0 0)
(0 0 0)
(0 0 0)
(-3.39218e-10 -2.01218e-09 1.65699e-09)
(8.22117e-10 -2.3336e-09 1.65622e-09)
(5.25702e-10 -2.10766e-09 1.70001e-09)
(-7.93434e-12 -1.92188e-09 1.75347e-09)
(-5.31078e-10 -2.0869e-09 1.6947e-09)
(-7.79302e-10 -2.30891e-09 1.64679e-09)
(-1.19381e-10 -1.82429e-11 3.79354e-11)
(0 0 0)
(0 0 0)
(0 0 0)
(1.47625e-10 -2.75496e-11 3.73921e-11)
(-2.41646e-10 -2.09908e-10 1.86208e-10)
(0 0 0)
(0 0 0)
(0 0 0)
(3.01402e-10 -2.24574e-10 1.84292e-10)
(-2.58936e-10 -5.52301e-10 4.22634e-10)
(0 0 0)
(0 0 0)
(0 0 0)
(3.24258e-10 -5.60433e-10 4.19236e-10)
(-2.88186e-10 -8.66104e-10 6.75229e-10)
(0 0 0)
(0 0 0)
(0 0 0)
(3.57128e-10 -8.694e-10 6.70648e-10)
(-3.04036e-10 -1.12653e-09 9.18051e-10)
(0 0 0)
(0 0 0)
(0 0 0)
(3.74817e-10 -1.12546e-09 9.12492e-10)
(-2.62308e-10 -1.3201e-09 1.12788e-09)
(0 0 0)
(0 0 0)
(0 0 0)
(3.33675e-10 -1.31514e-09 1.12147e-09)
(-8.75815e-11 -1.48434e-09 1.27295e-09)
(0 0 0)
(0 0 0)
(0 0 0)
(1.59548e-10 -1.47641e-09 1.26577e-09)
(3.64852e-10 -1.90413e-09 1.31601e-09)
(0 0 0)
(0 0 0)
(0 0 0)
(-2.8604e-10 -1.89088e-09 1.3082e-09)
(7.63425e-10 -2.19473e-09 1.28725e-09)
(4.87176e-10 -1.98716e-09 1.29724e-09)
(-5.6445e-12 -1.81759e-09 1.32654e-09)
(-4.87858e-10 -1.9667e-09 1.29334e-09)
(-7.159e-10 -2.17049e-09 1.28027e-09)
(-1.24135e-10 -2.41683e-11 3.48784e-11)
(0 0 0)
(0 0 0)
(0 0 0)
(1.52246e-10 -3.36172e-11 3.45493e-11)
(-2.52157e-10 -2.19358e-10 1.55941e-10)
(0 0 0)
(0 0 0)
(0 0 0)
(3.11798e-10 -2.34434e-10 1.54767e-10)
(-2.68985e-10 -5.56762e-10 3.3649e-10)
(0 0 0)
(0 0 0)
(0 0 0)
(3.34582e-10 -5.65494e-10 3.34368e-10)
(-2.93838e-10 -8.61496e-10 5.24619e-10)
(0 0 0)
(0 0 0)
(0 0 0)
(3.63596e-10 -8.65481e-10 5.21677e-10)
(-3.03424e-10 -1.10428e-09 7.02442e-10)
(0 0 0)
(0 0 0)
(0 0 0)
(3.75661e-10 -1.10393e-09 6.98768e-10)
(-2.55905e-10 -1.2747e-09 8.5026e-10)
(0 0 0)
(0 0 0)
(0 0 0)
(3.29434e-10 -1.27047e-09 8.45924e-10)
(-7.87775e-11 -1.41963e-09 9.45902e-10)
(0 0 0)
(0 0 0)
(0 0 0)
(1.53646e-10 -1.41242e-09 9.40975e-10)
(3.6716e-10 -1.82417e-09 9.70707e-10)
(0 0 0)
(0 0 0)
(0 0 0)
(-2.84816e-10 -1.8116e-09 9.65332e-10)
(7.61587e-10 -2.10458e-09 9.44903e-10)
(4.90776e-10 -1.90595e-09 9.38646e-10)
(-3.96237e-12 -1.74767e-09 9.50468e-10)
(-4.87995e-10 -1.88572e-09 9.36046e-10)
(-7.10387e-10 -2.08082e-09 9.40174e-10)
(-1.24946e-10 -2.47211e-11 2.54967e-11)
(0 0 0)
(0 0 0)
(0 0 0)
(1.53057e-10 -3.42544e-11 2.53183e-11)
(-2.52086e-10 -2.16756e-10 1.09682e-10)
(0 0 0)
(0 0 0)
(0 0 0)
(3.11815e-10 -2.32094e-10 1.09033e-10)
(-2.65145e-10 -5.46659e-10 2.3076e-10)
(0 0 0)
(0 0 0)
(0 0 0)
(3.31069e-10 -5.55805e-10 2.2956e-10)
(-2.85662e-10 -8.42787e-10 3.54255e-10)
(0 0 0)
(0 0 0)
(0 0 0)
(3.56095e-10 -8.47269e-10 3.52551e-10)
(-2.90816e-10 -1.07506e-09 4.69105e-10)
(0 0 0)
(0 0 0)
(0 0 0)
(3.64156e-10 -1.07525e-09 4.66924e-10)
(-2.39787e-10 -1.23543e-09 5.62376e-10)
(0 0 0)
(0 0 0)
(0 0 0)
(3.14898e-10 -1.23175e-09 5.59748e-10)
(-6.17628e-11 -1.37464e-09 6.20919e-10)
(0 0 0)
(0 0 0)
(0 0 0)
(1.3872e-10 -1.36801e-09 6.17892e-10)
(3.79513e-10 -1.77389e-09 6.35543e-10)
(0 0 0)
(0 0 0)
(0 0 0)
(-2.94633e-10 -1.76192e-09 6.32232e-10)
(7.71642e-10 -2.04779e-09 6.18355e-10)
(5.01594e-10 -1.85278e-09 6.09642e-10)
(-2.81429e-12 -1.70076e-09 6.1334e-10)
(-4.96453e-10 -1.83275e-09 6.08091e-10)
(-7.17866e-10 -2.02448e-09 6.15484e-10)
(-1.25023e-10 -2.42392e-11 1.32745e-11)
(0 0 0)
(0 0 0)
(0 0 0)
(1.53168e-10 -3.3816e-11 1.31982e-11)
(-2.50893e-10 -2.12765e-10 5.61379e-11)
(0 0 0)
(0 0 0)
(0 0 0)
(3.10735e-10 -2.28244e-10 5.58551e-11)
(-2.61171e-10 -5.36586e-10 1.16666e-10)
(0 0 0)
(0 0 0)
(0 0 0)
(3.27333e-10 -5.45964e-10 1.16133e-10)
(-2.78883e-10 -8.26705e-10 1.7759e-10)
(0 0 0)
(0 0 0)
(0 0 0)
(3.49745e-10 -8.31479e-10 1.76819e-10)
(-2.81504e-10 -1.05352e-09 2.33648e-10)
(0 0 0)
(0 0 0)
(0 0 0)
(3.55514e-10 -1.05402e-09 2.32643e-10)
(-2.28707e-10 -1.21016e-09 2.78633e-10)
(0 0 0)
(0 0 0)
(0 0 0)
(3.04763e-10 -1.20683e-09 2.77405e-10)
(-5.04806e-11 -1.34833e-09 3.06542e-10)
(0 0 0)
(0 0 0)
(0 0 0)
(1.28679e-10 -1.34209e-09 3.05113e-10)
(3.88011e-10 -1.74591e-09 3.13499e-10)
(0 0 0)
(0 0 0)
(0 0 0)
(-3.01618e-10 -1.73436e-09 3.11932e-10)
(7.78832e-10 -2.01623e-09 3.05234e-10)
(5.08728e-10 -1.82232e-09 3.00052e-10)
(-2.15009e-12 -1.67318e-09 3.00919e-10)
(-5.02222e-10 -1.80244e-09 2.99337e-10)
(-7.23539e-10 -1.99324e-09 3.0389e-10)
(-8.13021e-11 -3.26396e-11 0)
(-4.65786e-12 -3.91067e-11 0)
(-1.78566e-13 -5.36305e-11 0)
(7.17541e-12 -4.23724e-11 0)
(1.03671e-10 -4.28778e-11 0)
(-1.23287e-10 -2.10189e-10 0)
(-1.44925e-11 -2.32134e-10 0)
(1.34767e-12 -2.5594e-10 0)
(2.34881e-11 -2.38028e-10 0)
(1.60879e-10 -2.22935e-10 0)
(-1.33705e-10 -5.29035e-10 0)
(-2.66358e-11 -5.3893e-10 0)
(4.46866e-12 -5.534e-10 0)
(4.22194e-11 -5.43245e-10 0)
(1.77944e-10 -5.37153e-10 0)
(-1.50952e-10 -8.18164e-10 0)
(-4.01804e-11 -8.28508e-10 0)
(6.615e-12 -8.41905e-10 0)
(5.97952e-11 -8.30807e-10 0)
(1.99456e-10 -8.22357e-10 0)
(-1.5304e-10 -1.05273e-09 0)
(-4.33233e-11 -1.08609e-09 0)
(7.45113e-12 -1.11254e-09 0)
(6.46142e-11 -1.08625e-09 0)
(2.03996e-10 -1.05318e-09 0)
(-9.74492e-11 -1.23337e-09 0)
(-4.4352e-12 -1.31486e-09 0)
(7.10331e-12 -1.36405e-09 0)
(2.52382e-11 -1.31308e-09 0)
(1.49334e-10 -1.23043e-09 0)
(9.01383e-11 -1.41138e-09 0)
(1.28933e-10 -1.53967e-09 0)
(5.55893e-12 -1.59546e-09 0)
(-1.10603e-10 -1.53641e-09 0)
(-3.80618e-11 -1.40585e-09 0)
(4.97299e-10 -1.81661e-09 0)
(3.70736e-10 -1.88586e-09 0)
(2.32875e-12 -1.87397e-09 0)
(-3.56989e-10 -1.87972e-09 0)
(-4.42432e-10 -1.80618e-09 0)
(7.99217e-10 -2.06628e-09 0)
(5.12804e-10 -1.96376e-09 0)
(-8.72059e-13 -1.85286e-09 0)
(-5.0389e-10 -1.94964e-09 0)
(-7.54897e-10 -2.0467e-09 0)
)
;

boundaryField
{
    interface
    {
        type            calculated;
    }
    symmetry
    {
        type            symmetry;
    }
    bottom
    {
        type            calculated;
    }
}


// ************************************************************************* //
