/*--------------------------------*- C++ -*----------------------------------*\
| =========                 |                                                 |
| \\      /  F ield         | OpenFOAM: The Open Source CFD Toolbox           |
|  \\    /   O peration     | Version:  v1912                                 |
|   \\  /    A nd           | Website:  www.openfoam.com                      |
|    \\/     M anipulation  |                                                 |
\*---------------------------------------------------------------------------*/
FoamFile
{
    version     2.0;
    format      ascii;
    class       volScalarField;
    location    "0.27/solid";
    object      sigmaEq;
}
// * * * * * * * * * * * * * * * * * * * * * * * * * * * * * * * * * * * * * //

dimensions      [1 -1 -2 0 0 0 0];


internalField   nonuniform List<scalar> 
256
(
540485
433058
429224
525497
374714
362380
358175
360774
387688
362635
358356
374110
407681
373065
368828
394427
428374
390232
386026
415307
450903
414086
409892
437956
423831
419319
415391
412015
32325.4
458029
454597
31421
384322
82146.2
80433
367980
321359
74043.7
72114.4
305763
324267
61904.5
60222.3
308805
333835
53665.8
52158.2
318315
348696
51987.1
50560.8
333018
369934
49996.7
48663.8
354172
372761
9009.47
9086.76
358005
423703
419425
415599
412205
345576
50829.1
49329.8
330225
310589
60711.4
58549.4
295171
315453
56074.2
53970
299764
324180
49734
47662.6
308228
338140
47512.8
45426.9
321879
359402
46215.5
44167.2
342924
369806
48771.4
47788.4
354250
450753
414319
410323
438544
318221
44963
43598.6
304043
289136
56197.3
54276.5
274583
295392
53943.7
51988.8
280339
304096
48801.3
46833.7
288636
317414
46631.2
44633.7
301555
337806
45321.4
43366.8
321657
348405
48498.1
47641.5
333125
429117
391022
387129
417342
302143
41942.8
40636.6
288848
274699
52411.3
50711.9
260880
281548
50810.8
49054.8
267115
290335
46180.4
44381.6
275393
303338
43969.3
42118.7
287925
323164
42466.9
40646
307403
333369
44584.9
43927.4
318442
411923
374876
371078
400604
292514
40017.4
38761.7
279822
265803
49784.2
48243.6
252501
272842
48302.6
46705.8
258871
281648
43831.2
42179.2
267105
294478
41550.4
39825.2
279408
313970
39962.8
38245.1
298503
323820
41387.9
40895.4
309161
400789
364819
361091
389827
286936
38815.8
37600.2
274620
260633
48168.9
46732.3
247663
267715
46682.4
45192.3
254045
276505
42245.1
40695.8
262228
289231
39894
38256.3
274390
308531
38277.8
36627.5
293258
318145
39403.3
39023.2
303664
394150
358979
355296
383432
284354
38232.3
37039
272217
258245
47405
46021
245435
265329
45905.9
44469.6
251808
274102
41472.2
39975.6
259958
286778
39080.4
37487.5
272052
305989
37455.8
35839.1
290813
315489
38491.3
38167.9
301097
391045
356291
352631
380449
)
;

boundaryField
{
    interface
    {
        type            calculated;
        value           nonuniform List<scalar> 
192
(
745113
567243
584933
611381
640524
676542
673438
358069
659953
577897
586193
605183
632841
674453
708748
673390
593456
541143
550785
568330
594614
635592
674581
676646
546622
501450
512367
529619
555031
594794
633384
641838
519221
476351
487850
505093
530105
569115
606969
616937
502912
461164
472882
490127
514930
553478
590710
601146
493533
452405
464195
481427
506111
544380
581186
591787
489213
448371
460180
477400
502027
540163
576757
587417
778844
604832
622438
648853
678067
714578
715200
429991
745186
653299
659346
679215
709025
753237
790363
746477
738266
645791
651602
671437
701246
745438
782736
740494
758634
585448
602982
629501
658789
695263
696471
419807
723818
546363
564214
590835
620097
656352
654967
351943
633744
552050
560135
578785
606059
647435
682924
655133
568129
515397
524494
541503
567221
607741
647638
656979
522688
476747
486902
503477
528216
567406
606731
622334
496354
452530
463147
479614
503873
542233
580715
597759
480767
437958
448733
465137
489129
526968
564757
582240
471833
429588
440404
456759
480596
518116
555435
573075
467726
425743
436565
452892
476654
514021
551106
568803
430110
715186
714659
679347
654448
638714
629401
625050
746573
790569
753781
710602
682991
666068
656232
651685
740587
783005
746108
703025
675492
658625
648825
644298
419896
696670
695911
661093
636618
621213
612123
607886
)
;
    }
    symmetry
    {
        type            symmetry;
    }
    bottom
    {
        type            calculated;
        value           nonuniform List<scalar> 
32
(
703899
447828
390939
361283
344326
334020
328001
325209
499917
99478.7
56059.2
49867.1
47365.4
45645.4
44519.6
43965.3
496219
97400.2
54114.1
48110.8
45703
44052.4
42977.7
42451.1
688232
430680
375183
347063
331226
321670
316111
313538
)
;
    }
}


// ************************************************************************* //
