/*--------------------------------*- C++ -*----------------------------------*\
| =========                 |                                                 |
| \\      /  F ield         | OpenFOAM: The Open Source CFD Toolbox           |
|  \\    /   O peration     | Version:  v1912                                 |
|   \\  /    A nd           | Website:  www.openfoam.com                      |
|    \\/     M anipulation  |                                                 |
\*---------------------------------------------------------------------------*/
FoamFile
{
    version     2.0;
    format      ascii;
    class       volSymmTensorField;
    location    "0.27/solid";
    object      sigma;
}
// * * * * * * * * * * * * * * * * * * * * * * * * * * * * * * * * * * * * * //

dimensions      [1 -1 -2 0 0 0 0];


internalField   nonuniform List<symmTensor> 
256
(
(-353407 7801.8 -1794.33 172692 7148.09 -380518)
(-5764.28 -10825.1 -479.512 118726 7918.61 -362298)
(-5323.44 14348.8 540.463 117322 8306.67 -358882)
(-338126 -6107.93 2006.3 172312 8588.56 -366441)
(-386940 -2337.33 -2274.38 -26449 -3686.89 -413751)
(-68721.5 -3298.09 -703.309 -14146.8 -3186.28 -400629)
(-68349.8 5938.8 900.768 -15777 -2932.44 -397144)
(-370458 3473.13 2624.01 -24857.3 -2759.01 -398899)
(-389221 -1924.96 -2488.62 -15517.3 -3845.9 -415645)
(-70112.4 -1287.9 -818.793 -20054.8 -3744.83 -405050)
(-69776.3 3251.25 1066.1 -21580.1 -3572.63 -401492)
(-372388 2744.3 2870.09 -13221.6 -3201.67 -400483)
(-395012 -426.617 -2567.01 -1522.12 -2725.15 -421953)
(-65214.2 -322.618 -844.069 -16352 -2543.91 -411411)
(-64860.6 1762.11 1089.46 -17688.5 -2412.17 -407792)
(-377913 1030.2 2952.44 1344.1 -2227.15 -406578)
(-409548 301.495 -2402.01 4348.2 -2039.44 -437103)
(-63282.1 80.9279 -740.295 -12147.3 -1732.92 -425412)
(-62903.7 933.934 971.417 -13374 -1618.72 -421757)
(-392316 122.6 2786.56 7526.81 -1618.37 -421617)
(-435328 253.181 -2022.63 777.244 -1792.74 -463548)
(-64732.4 -135.237 -527.168 -13647.6 -1480.36 -450896)
(-64391.4 767.535 752.24 -14840.7 -1366.98 -447244)
(-418288 -35.5891 2410.01 3986.95 -1401.6 -448077)
(-483517 465.179 -1577.14 -75272.5 -1112.47 -513112)
(-81638.7 -517.899 -296.748 -84917.5 -960.916 -502583)
(-81465 707.681 539.317 -85680 -832.766 -498942)
(-467415 -555.305 1972.11 -71404.6 -718.465 -497717)
(-499191 1390.05 -1324.51 -531334 724.305 -531307)
(-76035.3 284.873 -193.035 -534113 765.261 -534011)
(-75588.6 -395.696 460.559 -530251 887.541 -530112)
(-484618 -1685.19 1705.59 -515744 1055.09 -515675)
(-316714 7392.04 -1350.59 111980 -17868.2 -8868.15)
(-18511 -9841.48 180.505 55311 -14419.1 -23389.4)
(-18851.8 11621 88.5071 52503.5 -13554.3 -24338)
(-301052 -6328.97 1575.09 109480 -15149.8 -5283.86)
(-353374 -2123.21 -1453.27 -8167.6 -8311.91 -63857.3)
(-75409.3 -3341.2 153.516 -3035.28 -6833.01 -76375.1)
(-75588.8 4550.74 347.317 -5720.13 -6261.99 -77520.9)
(-336385 2645.84 1814.68 -8276.98 -6395.25 -60098.1)
(-358332 -2039.89 -1385.34 -10945.4 -6856.85 -64298.6)
(-82907.1 -1649.54 193.4 -22126.7 -6312.74 -83072.6)
(-83109.7 2504.16 355.329 -24557 -5897 -84360.4)
(-340976 2380.18 1770.92 -10148.8 -5400.17 -60837)
(-364561 -563.512 -1387.51 -7218.22 -6568 -61234.1)
(-79927 -680.089 225.244 -28108 -6195.63 -81393)
(-80123 1274.71 291.97 -30375.3 -5858.88 -82749)
(-346885 808.933 1766.56 -5929.07 -5378.99 -57924)
(-378456 320.976 -1301.48 -5412.27 -6092.89 -61163.3)
(-76777.3 -169.082 299.537 -27064 -5793.24 -79271.4)
(-76949 533.152 177.373 -29267.4 -5496.71 -80670)
(-360495 -169.657 1672.62 -3882.97 -5065.8 -57946.6)
(-403989 476.187 -1057.68 -10048.2 -5610.07 -64327.7)
(-75268.2 -232.638 464.005 -27763.6 -5447.17 -78299.1)
(-75465.1 365.561 -8.13583 -29929.4 -5176.94 -79757.2)
(-385951 -470.946 1428.42 -8434.98 -4698.44 -61268.5)
(-454909 779.302 -687.435 -81995.9 -4841.45 -82498.2)
(-88734.1 -498.887 673.668 -91864.4 -4785.89 -92031.2)
(-89072.8 368.738 -243.848 -93484 -4560.44 -93513.5)
(-437481 -1025.1 1048.66 -79467.1 -4096.07 -79643.8)
(-483666 1616.78 -331.194 -513129 -1036.51 -75476.9)
(-81701.9 351.875 777.817 -502641 -909.279 -84759.1)
(-81496 -499.338 -515.421 -499001 -787.34 -85341.6)
(-467427 -1961.84 599.411 -497689 -669.722 -71203.6)
(-271944 7103.79 -1007.28 100111 -4899.75 38088.7)
(-15263.4 -9296.73 73.7267 40071.1 -2710.18 14818.8)
(-15533.1 10179.3 236.014 37415 -1993.33 13745.7)
(-255836 -6410.65 1132.01 98880 -2688.32 42071.3)
(-301198 -1656.77 -940.444 12774.2 -3837.68 5709.25)
(-57927.9 -3257.69 108.132 10975.7 -2642.91 -14975.3)
(-58028.9 3745.38 427.131 8314.3 -2046.05 -16385)
(-283896 1896.55 1172.42 12968.9 -1935.7 9460.05)
(-306106 -1933.99 -699.914 14369.4 -5077.97 3770.64)
(-65218.4 -1778.02 215.935 -2350.67 -4523.33 -23342.2)
(-65330.5 2058.61 338.352 -4790.59 -4027.97 -24950)
(-288458 2045.88 949.078 15248.1 -3465.34 7023.5)
(-312498 -624.964 -644.149 16609.9 -6359.96 6116.62)
(-63179.3 -845.343 256.382 -9259.35 -5975.58 -22673.7)
(-63277.9 1002.52 248.19 -11552.6 -5548.9 -24395.3)
(-294515 696.883 878.985 17916.8 -4965.29 9066.6)
(-326410 314.338 -657.565 15635.3 -6728.91 7263.54)
(-60846.8 -255.758 259.343 -11063.9 -6453.77 -19421.7)
(-60911.4 304.282 192.553 -13297.3 -6075.05 -21224.6)
(-308079 -286.683 875.866 17183.4 -5503.71 10007.8)
(-352238 630.293 -613.703 8388.29 -6217.18 5594.33)
(-60379.7 -184.094 305.282 -14348.2 -6098.98 -16513.8)
(-60455.4 115.849 105.706 -16527.8 -5768.71 -18401.6)
(-333693 -704.031 819.789 10089 -5156.99 8120.78)
(-403995 1135.97 -417.753 -62989.5 -4979.37 -11087)
(-74936.2 -321.611 424.782 -77228.8 -4893.32 -28103.1)
(-75134.2 103.121 -88.4683 -78831.9 -4646.4 -29986.8)
(-385820 -1419.76 595.711 -60272.3 -4173.98 -8691.25)
(-435514 2048.66 -115.329 -463387 -1451.41 634.537)
(-64538.2 563.898 468.252 -450723 -1196.07 -13089.6)
(-64164.4 -721.887 -377.49 -447044 -1100.19 -13920.2)
(-418187 -2406.74 184.022 -447783 -1138.74 4784.79)
(-247484 6644.31 -720.97 94378.6 -1064.84 39526.1)
(-16832.5 -9077.96 12.8014 31539.2 276.418 11751.6)
(-17086.5 9479.53 279.165 29188.1 810.018 10851.6)
(-231335 -6209.95 807.216 94502.1 569.053 44259.8)
(-274299 -1434.01 -823.765 14466 -1431.52 15156.2)
(-55607.5 -3211.2 14.3258 6863.07 -573.263 -10255.5)
(-55716.4 3317.04 495.68 4404.79 -74.5008 -11469)
(-257084 1520.94 997.119 15289.9 114.844 19620)
(-279195 -1797.3 -649.84 18662.4 -3166.21 13527.1)
(-62502.2 -1805.16 99.8079 -2929.84 -2691.66 -17994.2)
(-62612.7 1782.09 425.76 -5262.87 -2240.63 -19413.8)
(-261653 1793.75 838.598 19840.7 -1750.15 17440.2)
(-285780 -642.923 -584.227 21891.8 -4959.38 14350)
(-60912.8 -924.433 130.395 -8460.51 -4600.43 -18811.2)
(-61004.3 854.251 343.668 -10692.7 -4192.53 -20367.1)
(-267904 627.036 757.77 23357.6 -3672.57 17877.6)
(-299829 262.147 -618.08 20418.2 -5847.72 14336.5)
(-59173.4 -319.799 103.271 -10882 -5560.91 -16798.3)
(-59227.6 215.777 312.859 -13069.5 -5194.28 -18460.5)
(-281587 -293.417 771.183 22080.9 -4695.48 17578.4)
(-325944 680.116 -648.526 11992 -5543.24 11450.1)
(-59641.8 -152.35 86.9573 -15414.8 -5376.54 -15163.4)
(-59702.1 2.26787 273.158 -17552.3 -5063.61 -16922.7)
(-307428 -784.105 781.397 13811.6 -4557.61 14440.6)
(-377988 1411.6 -563.743 -58505.8 -4205.27 -6646.38)
(-75167.7 -145.652 128.793 -76905.6 -4069.79 -28078.4)
(-75339.1 -101.152 134.042 -78474.7 -3847.97 -29813)
(-359698 -1703.82 659.616 -55663.1 -3484.28 -3725.38)
(-409244 2449.63 -399.638 -436465 -1122.79 5588.67)
(-61732.3 780.393 95.1875 -424710 -878.361 -10671.8)
(-61313 -955.559 -76.2356 -420996 -802.669 -11295.1)
(-391509 -2817.55 390.866 -420720 -865.876 10428.6)
(-232798 6219.88 -457.891 91868.5 -375.667 39613.9)
(-17370.8 -9042.29 -1.85857 27304 514.072 8996.24)
(-17632.7 9170.94 236.416 25211.2 895.042 8232.81)
(-216660 -5955.44 525.574 93054.1 780.13 44881.8)
(-258413 -1392.88 -604.027 14317.6 -804.078 18180.5)
(-54523.7 -3220.75 -17.9899 2952.58 -154.479 -10354.5)
(-54676.6 3111.21 441.196 683.728 219.099 -11396.4)
(-241321 1390.02 743.681 15726.5 337.609 23200.8)
(-263311 -1722.04 -527.365 18921.9 -2057.78 17467.5)
(-61171.3 -1819.39 26.004 -5938.95 -1656.24 -16953.7)
(-61320.7 1625.14 418.894 -8167.54 -1301.07 -18194.4)
(-245906 1654.93 682.262 20420.2 -960.147 21943.6)
(-270043 -647.017 -485.422 22789.8 -3515.29 17590.2)
(-59798.4 -968.36 40.6212 -10572.4 -3202.89 -18403.5)
(-59924.3 770.401 363.332 -12751.8 -2870.01 -19787.9)
(-252309 582.912 628.318 24424.5 -2479.67 21649.2)
(-284180 217.866 -509.698 21685 -4376.66 16369.2)
(-58360.3 -367.548 12.1928 -12692.2 -4113.02 -17694.8)
(-58447.6 179.475 338.323 -14852.2 -3809.46 -19197.4)
(-266077 -281.172 633.259 23440.3 -3431.53 20099.3)
(-310391 695.901 -542.905 13302.8 -4218.06 12068.3)
(-59320.1 -139.278 -17.3174 -17230.2 -4038.58 -17640.8)
(-59411.4 -55.0541 309.618 -19354.5 -3781.09 -19246.1)
(-291987 -815.692 644.616 15181.3 -3409.62 15526.4)
(-362372 1593.81 -508.251 -56012 -3101.34 -7437.03)
(-75371 -21.3157 -15.1282 -77213.8 -2960.98 -32032.2)
(-75566.9 -244.304 212.416 -78781.7 -2782.17 -33604.5)
(-344117 -1891.37 573.257 -53127.9 -2517.53 -4024.73)
(-392690 2728.25 -436.623 -419769 -800.755 4995.51)
(-59848.7 935.366 -82.6439 -409329 -618.266 -13396.9)
(-59441.1 -1128.89 71.1484 -405603 -559.005 -13836.5)
(-374794 -3106.74 411.663 -403946 -596.538 10400)
(-223878 5919.09 -270.699 90322.1 -225.505 40074.6)
(-17548.3 -9063.88 0.523606 24693.3 349.9 7610.49)
(-17814.7 9035.35 166.762 22790.1 604.786 6939.34)
(-207730 -5759.39 320.523 92268 539.746 45713.6)
(-248738 -1410.48 -377.81 14088 -618.033 19917.4)
(-53704.6 -3250.41 -10.3909 359.656 -153.584 -10719.9)
(-53891.3 3016.62 320.507 -1764.35 101.256 -11644.9)
(-231709 1354.85 482.266 15959.3 153.536 25339.3)
(-253604 -1695.13 -351.322 18543 -1390.17 19874.3)
(-60155.6 -1837.3 9.35839 -8453.28 -1078.97 -16565.3)
(-60336.2 1542.85 324.058 -10596.1 -829.985 -17679.9)
(-236273 1591.33 469.328 20325.9 -626.462 24774.5)
(-260415 -651.384 -332.466 22588.4 -2319.84 19794.7)
(-58870.4 -996.848 13.3055 -12758.4 -2076.81 -18193.1)
(-59024.4 721.991 293.332 -14893.8 -1837.85 -19452.1)
(-242759 558.82 442.776 24387.4 -1580.3 24272.5)
(-274602 191.518 -347.011 21878.6 -2911.72 17742.3)
(-57588.5 -398.255 -7.68715 -14511.1 -2707.04 -18379.9)
(-57703.1 157.105 273.191 -16652 -2486.26 -19761.6)
(-256578 -274.704 442.355 23723.2 -2225.67 21871.8)
(-300832 705.197 -367.938 13888.4 -2816.63 12299.9)
(-58817.9 -133.022 -31.371 -18680.3 -2670.63 -19584.1)
(-58935.3 -92.6544 248.378 -20800.8 -2482.98 -21071.6)
(-282494 -836.121 444.902 15814.6 -2226.34 16143.5)
(-352664 1709.34 -352.524 -54432.7 -2037.76 -8275.24)
(-75168.7 56.5939 -41.0158 -77479.2 -1928.13 -35119.8)
(-75387.2 -339.364 181.302 -79053.4 -1798.37 -36573)
(-334429 -2012.59 399.558 -51522.1 -1611.61 -4474.27)
(-382039 2906.57 -320.899 -409192 -533.879 4449.56)
(-58199.3 1033.8 -104.484 -399871 -413.39 -15647.4)
(-57806.6 -1243.32 86.7948 -396143 -370.478 -15958.2)
(-364041 -3294.83 299.434 -393319 -384.905 10279)
(-218746 5737.63 -142.436 89281.4 -137.732 40495.7)
(-17649 -9086.6 2.82512 23026.3 184.135 6931.32)
(-17916.5 8972.38 96.823 21245.7 330.398 6317.82)
(-202581 -5637.58 172.815 91711.5 297.808 46370.3)
(-243156 -1431.42 -200.452 13835.3 -414.475 20947.4)
(-53198.4 -3274.08 0.372246 -1270.46 -137.726 -10936.1)
(-53404.8 2972.06 187.62 -3298.72 9.78834 -11788.5)
(-226156 1346.64 264.876 16018.1 29.3212 26630.5)
(-247990 -1688.27 -191.578 18149.8 -834.475 21234)
(-59509.4 -1852.34 9.82586 -10121.8 -638.659 -16420.3)
(-59708.3 1501.43 195.664 -12204.8 -492.467 -17455.2)
(-230694 1563.99 265.377 20138.3 -387.903 26416.4)
(-254834 -656.515 -184.868 22215.2 -1323.81 21099.1)
(-58249.1 -1015.16 9.97355 -14330 -1170.21 -18102.3)
(-58419.5 695.02 181.225 -16433.1 -1027.91 -19280.1)
(-237215 547.373 254.678 24141 -884.322 25862.6)
(-269044 177.453 -192.906 21745.7 -1639.32 18572.9)
(-57046.4 -416.151 -2.51045 -15854.5 -1512.02 -18798.9)
(-57176.7 141.512 168.489 -17981.3 -1379.27 -20101)
(-251059 -273.068 253.523 23662.3 -1226.81 22980.2)
(-295271 712.344 -203.568 14082.7 -1579.01 12400.7)
(-58427.9 -129.384 -16.6691 -19705.3 -1488.03 -20793.2)
(-58560.3 -118.377 151.259 -21823.4 -1374.72 -22203.2)
(-276966 -851.179 252.249 16047.3 -1221.75 16513)
(-346975 1779.1 -196.083 -53577.7 -1132.61 -8857.84)
(-74955.2 101.882 -25.3396 -77735.8 -1066.73 -37059.7)
(-75187 -398.24 110.766 -79314.8 -988.289 -38436.1)
(-328750 -2087.21 225.49 -50646.9 -873.862 -4791.08)
(-375661 3013.34 -181.123 -402927 -302.268 4113.02)
(-57073.5 1091.41 -67.0336 -394365 -235.102 -17061.7)
(-56689.7 -1312.56 54.3775 -390637 -209.114 -17290.4)
(-357599 -3408.91 167.851 -387022 -211.613 10228)
(-216392 5653.52 -44.5209 88744 -47.3958 40724.5)
(-17704.7 -9098.01 1.44563 22195.2 55.8476 6646.41)
(-17972.2 8946.23 31.6096 20474.6 103.503 6060.9)
(-200217 -5580.49 54.6877 91408.9 93.9021 46713.7)
(-240595 -1442.3 -62.3636 13665.8 -146.171 21434.1)
(-52967.8 -3285.44 1.65474 -2074.74 -54.7257 -11020.6)
(-53183.1 2953.29 61.2359 -4055.64 -6.48469 -11837.8)
(-223606 1344.6 84.0651 16003.9 -1.51349 27245.8)
(-245411 -1686.94 -60.0468 17918.3 -280.416 21839.6)
(-59208.6 -1860.15 4.73541 -10947.1 -213.926 -16370.8)
(-59415.9 1483.72 64.5917 -12999.6 -165.819 -17366.6)
(-228129 1553.46 85.0907 20013.2 -133.751 27162.8)
(-252267 -659.791 -58.4695 21980.2 -431.107 21682)
(-57952.4 -1024.2 4.52199 -15126.9 -378.725 -18077.5)
(-58130.2 682.822 60.4063 -17212.9 -331.587 -19215.1)
(-234663 542.91 82.3137 23974.4 -285.649 26589.9)
(-266486 171.225 -61.1049 21616.7 -527.25 18945.4)
(-56782.6 -424.484 0.387343 -16551.2 -484.277 -19000.5)
(-56920 133.327 56.117 -18670 -440.083 -20262.9)
(-248516 -272.949 81.8776 23573.5 -389.884 23494.7)
(-292707 716.377 -64.3503 14118.7 -505.419 12430.7)
(-58234.5 -127.618 -4.27686 -20239.8 -474.915 -21362.2)
(-58373.6 -131.741 49.9945 -22356.1 -437.083 -22733.6)
(-274415 -859.387 81.0167 16105.4 -385.977 16680.5)
(-344343 1812.53 -61.9765 -53218.7 -360.945 -9154.91)
(-74846.5 122.902 -7.50447 -77898.2 -339.357 -37977)
(-75084.4 -426.747 36.3516 -79479.5 -313.129 -39315.4)
(-326119 -2123.39 72.0197 -50276.3 -274.236 -4953)
(-372672 3063.85 -57.2878 -400007 -97.167 3951.89)
(-56523.8 1118.12 -21.7557 -391820 -75.7552 -17721.5)
(-56144.2 -1345.39 17.3781 -388092 -67.0575 -17909.9)
(-354578 -3463.3 52.8569 -384086 -66.7496 10211)
)
;

boundaryField
{
    interface
    {
        type            calculated;
        value           nonuniform List<symmTensor> 
192
(
(-60.6477 0.275772 3.87218 847078 7148.09 293868)
(-62.6243 0.0501494 5.68091 650996 -3686.89 263694)
(-63.5489 -0.298456 5.97817 671197 -3845.9 271069)
(-64.1979 -0.678623 5.94288 701265 -2725.15 280834)
(-64.1108 -1.00992 5.7511 734568 -2039.44 293117)
(-64.8183 -1.66728 5.50306 776157 -1792.74 311832)
(-62.8305 -2.11843 4.96515 775398 -1112.47 337559)
(-66.1504 -4.51183 4.51762 357987 724.305 358015)
(-58.7578 0.165594 1.99516 711232 -17868.2 590384)
(-59.7676 -0.057592 3.0895 603486 -8311.91 547796)
(-60.3061 -0.388126 3.22124 610864 -6856.85 557511)
(-60.7919 -0.796886 3.14898 630212 -6568 576196)
(-60.5603 -1.16291 2.98354 658724 -6092.89 602973)
(-61.2956 -1.90533 2.78398 699821 -5610.07 645542)
(-59.1148 -2.4101 2.43585 708890 -4841.45 708388)
(-62.8504 -4.96536 2.14388 337705 -1036.51 775357)
(-61.7911 0.139037 1.61465 621909 -4899.75 559886)
(-62.7097 -0.103164 2.4787 544538 -3837.68 537473)
(-63.2482 -0.454154 2.58134 555874 -5077.97 545276)
(-63.7329 -0.9092 2.52163 573334 -6359.96 562840)
(-63.3689 -1.32858 2.38799 598578 -6728.91 590207)
(-63.998 -2.16784 2.22323 636829 -6217.18 634035)
(-61.3033 -2.75833 1.95578 647014 -4979.37 698917)
(-64.8638 -5.51435 1.71503 312311 -1451.41 776333)
(-61.8209 0.0931624 1.03052 571915 -1064.84 517062)
(-62.5434 -0.16751 1.63686 501035 -1431.52 501726)
(-62.9558 -0.528702 1.70301 514823 -3166.21 509687)
(-63.3745 -1.00662 1.65047 533217 -4959.38 525675)
(-62.9223 -1.45349 1.54792 557891 -5847.72 551809)
(-63.5193 -2.33833 1.42499 594924 -5543.24 594382)
(-60.6724 -2.96634 1.24748 605757 -4205.27 657616)
(-64.2734 -5.78706 1.08998 294073 -1122.79 736127)
(-62.6929 0.0757573 0.768988 543309 -375.667 491054)
(-63.362 -0.203775 1.21716 474343 -804.078 478205)
(-63.7173 -0.582362 1.26703 488498 -2057.78 487044)
(-64.1026 -1.08313 1.22796 507572 -3515.29 502372)
(-63.5748 -1.55686 1.15202 532625 -4376.66 527309)
(-64.106 -2.48039 1.05927 569621 -4218.06 568386)
(-61.0672 -3.1442 0.931152 581137 -3101.34 629712)
(-64.569 -6.02229 0.813093 282822 -800.755 707586)
(-62.834 0.0595116 0.484532 526087 -225.505 475839)
(-63.4498 -0.233866 0.780899 458157 -618.033 463987)
(-63.7529 -0.623921 0.813687 472145 -1390.17 473477)
(-64.1079 -1.1384 0.786183 491437 -2319.84 488643)
(-63.5359 -1.62788 0.735015 516897 -2911.72 512761)
(-64.0392 -2.57242 0.672998 554185 -2816.63 552596)
(-60.9182 -3.25546 0.591837 566205 -2037.76 612363)
(-64.4047 -6.16441 0.517467 275869 -533.879 689510)
(-63.1156 0.0528812 0.286702 516050 -137.732 467265)
(-63.7154 -0.250282 0.460639 448743 -414.475 455855)
(-63.9928 -0.649803 0.480355 462579 -834.475 465663)
(-64.3305 -1.17442 0.46435 481915 -1323.81 480799)
(-63.7266 -1.67544 0.434705 507618 -1639.32 504445)
(-64.2005 -2.63435 0.397901 545148 -1579.01 543466)
(-61.0084 -3.33113 0.35127 557470 -1132.61 602190)
(-64.4579 -6.26159 0.306589 271759 -302.268 678798)
(-63.1602 0.0480282 0.0884456 511389 -47.3958 463370)
(-63.7456 -0.259639 0.144995 444373 -146.171 452141)
(-64.008 -0.663024 0.151357 458142 -280.416 462064)
(-64.3365 -1.19173 0.145902 477484 -431.107 477186)
(-63.7214 -1.69782 0.136299 503293 -527.25 500622)
(-64.1843 -2.6625 0.124283 540940 -505.419 539252)
(-60.9732 -3.36573 0.1099 553400 -360.945 597464)
(-64.4062 -6.30556 0.0955283 269837 -97.167 673796)
(368455 7801.8 -5.8966 894554 -0.840986 -25.623)
(337750 -2337.33 -8.92073 698241 -0.779983 -20.5572)
(344803 -1924.96 -9.4934 718507 -0.49191 -18.1503)
(355400 -426.617 -9.549 748890 -0.355675 -17.8251)
(368613 301.495 -9.4654 782510 -0.311337 -18.6025)
(388542 253.181 -9.39393 824647 -0.376897 -20.2288)
(417557 465.179 -9.27093 825801 -0.443267 -23.0101)
(445128 1390.05 -9.66409 412985 -0.643873 -25.6392)
(674829 -10825.1 -4.24811 799319 -0.412814 -33.2501)
(624243 -3298.09 -6.93653 678817 -0.430216 -32.1894)
(632855 -1287.9 -7.37392 682913 -0.240384 -31.6354)
(653433 -322.618 -7.38363 702295 -0.112396 -31.6237)
(682042 80.9279 -7.33412 733177 -0.0321544 -31.9326)
(726362 -135.237 -7.33558 777446 -0.00307936 -32.5139)
(791964 -517.899 -7.38192 788685 -0.00199525 -33.3633)
(861343 284.873 -7.97348 403265 -0.0678487 -34.0596)
(668811 14348.8 -4.54211 791456 -0.23127 -29.6647)
(617787 5938.8 -7.38257 670359 -0.232922 -28.9018)
(626113 3251.25 -7.87823 674309 -0.0901504 -28.4254)
(646572 1762.11 -7.89315 693744 0.0448778 -28.3906)
(675137 933.934 -7.81718 724667 0.154342 -28.7222)
(719396 767.535 -7.76026 768947 0.251614 -29.2614)
(784804 707.681 -7.71067 780589 0.321257 -30.2081)
(854430 -395.696 -8.19953 399768 0.338733 -31.202)
(361195 -6107.93 -5.33468 871633 -0.155203 -30.4523)
(330293 3473.13 -8.60948 675894 -0.124791 -29.9926)
(336927 2744.3 -9.20903 696094 0.0119962 -29.6375)
(347363 1030.2 -9.23898 726620 0.161366 -29.6145)
(360492 122.6 -9.12753 760335 0.285884 -29.8776)
(380147 -35.5891 -9.03012 802422 0.426378 -30.1748)
(408142 -555.305 -8.84216 804153 0.539048 -30.7913)
(434462 -1685.19 -9.29924 403336 0.684321 -31.4013)
(-12.3772 0.879126 2.42971 822537 8588.56 283783)
(-7.50569 0.587614 3.82392 626966 -2759.01 252925)
(-5.38775 -0.0480791 4.03277 647309 -3201.67 260048)
(-4.63455 -0.56708 4.01944 677528 -2227.15 269606)
(-5.15789 -0.901052 3.93305 710942 -1618.37 281798)
(-4.52427 -1.45833 3.94466 752830 -1401.6 300767)
(-6.94966 -1.52514 3.77112 754142 -718.465 327830)
(2.57543 -3.98202 4.04643 351906 1055.09 351975)
(-21.975 0.286004 0.551234 682712 -15149.8 567948)
(-20.9607 0.0890115 1.20018 576001 -6395.25 524180)
(-20.4841 -0.282483 1.22884 583657 -5400.17 532969)
(-19.9643 -0.665103 1.18598 602933 -5378.99 550938)
(-20.095 -0.88979 1.15979 631195 -5065.8 577132)
(-18.3469 -1.38907 1.25078 672163 -4698.44 619330)
(-19.2452 -1.21329 1.29303 682956 -4096.07 682779)
(-6.86518 -3.71237 1.61187 327842 -669.722 754327)
(-21.7173 0.140462 0.785456 594358 -2688.32 537550)
(-20.9186 -0.0704001 1.45229 517111 -1935.7 513602)
(-20.4431 -0.369618 1.54146 528503 -3465.34 520278)
(-19.7846 -0.726051 1.52578 545786 -4965.29 536936)
(-19.778 -0.918924 1.49525 570675 -5503.71 563499)
(-17.5767 -1.42069 1.52474 608640 -5156.99 606672)
(-18.2251 -1.16624 1.49334 620246 -4173.98 671827)
(-4.26604 -3.88594 1.57924 300973 -1138.74 753541)
(-23.8974 0.0544948 0.488518 545970 569.053 495728)
(-23.4226 -0.168599 0.997391 474544 114.844 478874)
(-23.1119 -0.430468 1.07111 488065 -1750.15 485664)
(-22.3966 -0.758634 1.05941 506133 -3672.57 500652)
(-22.2325 -0.911378 1.03513 530368 -4695.48 525865)
(-19.5541 -1.39223 1.05253 567017 -4557.61 567646)
(-19.7711 -1.0651 1.02958 579043 -3484.28 630981)
(-4.57307 -3.8778 1.07935 282297 -865.876 713446)
(-24.0677 0.0413593 0.459693 518658 780.13 470486)
(-23.6007 -0.195303 0.863845 448722 337.609 456197)
(-23.2718 -0.456444 0.930914 462358 -960.147 463881)
(-22.4744 -0.784715 0.925286 480953 -2479.67 478178)
(-22.2275 -0.928156 0.903116 505478 -3431.53 502137)
(-19.3153 -1.41048 0.89982 542009 -3409.62 542354)
(-19.3971 -1.05837 0.862993 554569 -2517.53 603672)
(-3.49644 -3.96439 0.859685 270896 -596.538 685242)
(-24.6479 0.0342667 0.29852 502325 539.746 455771)
(-24.2051 -0.210516 0.573417 433168 153.536 442548)
(-23.8712 -0.472839 0.620913 446467 -626.462 450915)
(-23.0155 -0.801076 0.617471 465163 -1580.3 465048)
(-22.6925 -0.9367 0.60265 490015 -2225.67 488163)
(-19.5838 -1.41651 0.598728 526770 -2226.34 527098)
(-19.5195 -1.04463 0.574338 539735 -1611.61 586783)
(-3.09389 -4.00574 0.569445 263853 -384.905 667450)
(-24.7443 0.0349607 0.190633 492842 297.808 447501)
(-24.2929 -0.21515 0.354097 424159 29.3212 434772)
(-23.9405 -0.480985 0.383191 437207 -387.903 443485)
(-23.0445 -0.812065 0.381431 455871 -884.322 457592)
(-22.6804 -0.946248 0.37259 480909 -1226.81 480227)
(-19.4701 -1.4272 0.367607 517859 -1221.75 518325)
(-19.3454 -1.04702 0.351563 531065 -873.862 576920)
(-2.62043 -4.04627 0.342461 259694 -211.613 656944)
(-24.8769 0.0340458 0.0581995 488445 93.9021 443750)
(-24.428 -0.218179 0.111545 419986 -1.51349 431228)
(-24.068 -0.485076 0.121099 432922 -133.751 440072)
(-23.1527 -0.816809 0.120417 451555 -285.649 454171)
(-22.7626 -0.950023 0.117785 476670 -389.884 476591)
(-19.4995 -1.43027 0.116151 513713 -385.977 514288)
(-19.3278 -1.04614 0.11192 527026 -274.236 572349)
(-2.45928 -4.06279 0.108883 257750 -66.7496 652046)
(445236 9.66625 -1324.51 -25.4156 -0.600086 413121)
(417596 9.28427 -331.194 -22.653 -0.399538 825785)
(388592 9.42418 -115.329 -19.622 -0.315584 824741)
(369149 9.52207 -399.638 -17.6032 -0.210436 783981)
(357636 9.6488 -436.623 -16.1001 -0.167128 755321)
(350730 9.72583 -320.899 -15.0206 -0.105681 737219)
(346731 9.78493 -181.123 -14.3562 -0.0663454 726504)
(344875 9.8114 -57.2878 -14.0274 -0.0203458 721499)
(861460 7.96657 -193.035 -33.8612 -0.0164555 403485)
(792059 7.37824 777.817 -33.0741 0.0487294 789002)
(726706 7.3349 468.252 -32.0543 0.0656516 778155)
(683663 7.33374 95.1875 -31.2549 0.0683779 734723)
(658549 7.37569 -82.6439 -30.6137 0.0505074 705001)
(643742 7.39879 -104.484 -30.1241 0.0399233 686294)
(635280 7.4223 -67.0336 -29.816 0.0225333 675292)
(631388 7.43226 -21.7557 -29.6471 0.00879313 670190)
(854546 8.19096 460.559 -31.0043 0.394871 400023)
(784890 7.70159 -515.421 -29.9122 0.377215 781045)
(719686 7.75253 -377.49 -28.7885 0.325872 769931)
(676653 7.8115 -76.2356 -28.0199 0.256294 726671)
(651507 7.88958 71.1484 -27.35 0.194809 697111)
(636676 7.93574 86.7948 -26.8924 0.135157 678524)
(628201 7.97236 54.3775 -26.5831 0.0790839 667600)
(624303 7.98794 17.3781 -26.4374 0.0261488 662537)
(434521 9.27906 1705.59 -31.2151 0.741674 403464)
(408161 8.82078 599.411 -30.5134 0.596516 804384)
(380188 9.01008 184.022 -29.7494 0.499923 803159)
(361032 9.11523 390.866 -29.2745 0.381785 762970)
(349592 9.24389 411.663 -28.77 0.294081 734787)
(342735 9.31821 299.434 -28.4656 0.201044 717055)
(338765 9.3754 167.851 -28.2326 0.120022 706592)
(336925 9.40045 52.8569 -28.125 0.0392977 701714)
)
;
    }
    symmetry
    {
        type            symmetry;
    }
    bottom
    {
        type            calculated;
        value           nonuniform List<symmTensor> 
32
(
(-778491 34445.1 -1794.33 -93560.5 34011.3 -805602)
(-513872 30952.1 -1350.59 -6540.26 -23777.8 -206025)
(-445253 28126.1 -1007.28 -10648.7 -8112.23 -135220)
(-411780 26013.2 -720.97 -10016.6 -2224.47 -124770)
(-392376 24652.2 -457.891 -9029.66 -778.727 -119964)
(-380962 23832.3 -270.699 -8961.65 -379.602 -117009)
(-374505 23367.4 -142.436 -9210.65 -203.472 -115264)
(-371565 23155.6 -44.5209 -9402.89 -66.8781 -114449)
(-222204 -13472.2 -479.512 -12235.2 33203.6 -578738)
(-40054.2 -12462.5 180.505 48048.8 -20118.1 -44932.7)
(-28027.1 -11917.3 73.7267 30980.8 -5909.67 2055.08)
(-28095.4 -11696.2 12.8014 24419 -928.124 488.759)
(-27896.6 -11657 -1.85857 21541.6 68.643 -1529.51)
(-27775.5 -11669.8 0.523606 19447 162.48 -2616.79)
(-27737.8 -11683.6 2.82512 18008.3 96.9413 -3157.51)
(-27731.5 -11689.9 1.44563 17280.8 28.964 -3380.37)
(-220659 16562.4 540.463 -12393.3 33653.2 -574217)
(-40610.8 13531.3 88.5071 45078.1 -19102.4 -46096.9)
(-28526.3 12049 236.014 28206 -5095.51 752.465)
(-28568.1 11402.2 279.165 21988.5 -331.402 -629.97)
(-28376.2 11154.4 236.416 19382.4 492.009 -2510.73)
(-28260.7 11061.1 166.762 17482.9 444.947 -3506.61)
(-28224.7 11023.4 96.823 16169.9 258.788 -3990.36)
(-28218.7 11009.2 31.6096 15503.8 81.6581 -4185.58)
(-761578 -33016.3 2006.3 -93161.9 35927.6 -789893)
(-500012 -30135.6 1575.09 -11726.7 -20586.7 -204244)
(-430685 -27720.6 1132.01 -13781.5 -5619.32 -132778)
(-397045 -25912.7 807.216 -11312.6 -407.424 -121450)
(-377617 -24746.7 525.574 -9004.21 499.709 -116075)
(-366181 -24041.7 320.523 -8025.64 464.534 -112738)
(-359706 -23639.8 172.815 -7706.63 276.207 -110755)
(-356757 -23455.9 54.6877 -7626.63 88.6192 -109826)
)
;
    }
}


// ************************************************************************* //
