/*--------------------------------*- C++ -*----------------------------------*\
| =========                 |                                                 |
| \\      /  F ield         | OpenFOAM: The Open Source CFD Toolbox           |
|  \\    /   O peration     | Version:  v1912                                 |
|   \\  /    A nd           | Website:  www.openfoam.com                      |
|    \\/     M anipulation  |                                                 |
\*---------------------------------------------------------------------------*/
FoamFile
{
    version     2.0;
    format      ascii;
    class       volScalarField;
    location    "0.27/solid";
    object      T;
}
// * * * * * * * * * * * * * * * * * * * * * * * * * * * * * * * * * * * * * //

dimensions      [0 0 0 1 0 0 0];


internalField   nonuniform List<scalar> 
256
(
291.912
292.439
292.441
291.916
291.776
292.365
292.368
291.781
291.762
292.358
292.361
291.767
291.747
292.351
292.353
291.753
291.722
292.338
292.341
291.728
291.676
292.314
292.316
291.682
291.551
292.226
292.228
291.556
290.742
291.477
291.482
290.755
292.488
292.935
292.935
292.485
292.419
292.925
292.924
292.416
292.412
292.924
292.923
292.409
292.405
292.923
292.923
292.402
292.392
292.922
292.921
292.39
292.367
292.918
292.918
292.364
292.28
292.873
292.873
292.278
291.55
292.226
292.228
291.556
292.56
292.969
292.968
292.557
292.5
292.964
292.963
292.497
292.494
292.963
292.962
292.491
292.487
292.963
292.962
292.484
292.475
292.962
292.961
292.472
292.45
292.959
292.959
292.448
292.367
292.918
292.918
292.365
291.676
292.314
292.316
291.682
292.582
292.971
292.971
292.579
292.524
292.966
292.965
292.521
292.518
292.966
292.965
292.514
292.511
292.966
292.965
292.508
292.499
292.965
292.964
292.496
292.475
292.962
292.961
292.472
292.392
292.922
292.921
292.39
291.722
292.338
292.341
291.728
292.593
292.972
292.971
292.59
292.537
292.967
292.966
292.533
292.53
292.966
292.966
292.526
292.523
292.966
292.965
292.52
292.511
292.966
292.965
292.508
292.487
292.963
292.962
292.484
292.405
292.923
292.922
292.402
291.747
292.351
292.353
291.753
292.599
292.972
292.971
292.596
292.544
292.967
292.966
292.539
292.537
292.967
292.966
292.533
292.53
292.966
292.966
292.526
292.518
292.966
292.965
292.514
292.493
292.963
292.962
292.49
292.412
292.924
292.923
292.409
291.761
292.358
292.36
291.767
292.603
292.972
292.972
292.599
292.547
292.967
292.966
292.543
292.541
292.967
292.966
292.537
292.534
292.967
292.966
292.53
292.521
292.966
292.965
292.518
292.497
292.963
292.963
292.494
292.416
292.924
292.923
292.413
291.769
292.361
292.364
291.775
292.604
292.972
292.972
292.601
292.549
292.967
292.967
292.544
292.543
292.967
292.966
292.538
292.535
292.967
292.966
292.531
292.523
292.966
292.965
292.519
292.499
292.963
292.963
292.495
292.418
292.924
292.923
292.415
291.773
292.363
292.366
291.779
)
;

boundaryField
{
    interface
    {
        type            fixedValue;
        value           nonuniform List<scalar> 
192
(
290.088
289.988
289.944
289.881
289.781
289.615
289.296
288.37
290.873
290.814
290.778
290.725
290.639
290.492
290.196
289.296
291.149
291.097
291.063
291.012
290.929
290.784
290.491
289.614
291.289
291.239
291.206
291.156
291.073
290.928
290.638
289.779
291.37
291.32
291.288
291.237
291.154
291.01
290.722
289.878
291.418
291.369
291.336
291.285
291.203
291.059
290.773
289.938
291.445
291.396
291.363
291.313
291.23
291.087
290.802
289.973
291.457
291.409
291.376
291.325
291.243
291.099
290.816
289.989
289.965
289.866
289.821
289.758
289.657
289.49
289.167
288.229
290.611
290.549
290.513
290.46
290.375
290.227
289.927
288.997
290.631
290.57
290.535
290.482
290.397
290.25
289.95
289.023
290.029
289.933
289.891
289.829
289.73
289.563
289.24
288.308
290.157
290.061
290.019
289.957
289.858
289.691
289.369
288.441
290.941
290.883
290.849
290.798
290.714
290.568
290.27
289.369
291.217
291.166
291.134
291.086
291.004
290.861
290.568
289.691
291.355
291.307
291.276
291.227
291.147
291.004
290.714
289.858
291.435
291.387
291.356
291.308
291.227
291.085
290.798
289.957
291.482
291.435
291.404
291.355
291.275
291.133
290.848
290.018
291.509
291.462
291.431
291.382
291.302
291.161
290.877
290.053
291.521
291.474
291.443
291.395
291.314
291.173
290.89
290.069
288.229
289.166
289.489
289.655
289.754
289.814
289.849
289.866
288.996
289.926
290.226
290.373
290.457
290.508
290.537
290.551
289.022
289.95
290.25
290.396
290.481
290.531
290.561
290.574
288.308
289.24
289.563
289.73
289.828
289.889
289.924
289.94
)
;
    }
    symmetry
    {
        type            symmetry;
    }
    bottom
    {
        type            fixedValue;
        value           uniform 293;
    }
}


// ************************************************************************* //
