/*--------------------------------*- C++ -*----------------------------------*\
| =========                 |                                                 |
| \\      /  F ield         | OpenFOAM: The Open Source CFD Toolbox           |
|  \\    /   O peration     | Version:  v1912                                 |
|   \\  /    A nd           | Website:  www.openfoam.com                      |
|    \\/     M anipulation  |                                                 |
\*---------------------------------------------------------------------------*/
FoamFile
{
    version     2.0;
    format      ascii;
    class       volScalarField;
    location    "0.59/fluid";
    object      T;
}
// * * * * * * * * * * * * * * * * * * * * * * * * * * * * * * * * * * * * * //

dimensions      [0 0 0 1 0 0 0];


internalField   nonuniform List<scalar> 
14592
(
273.248
273.754
274.286
274.85
275.455
276.111
276.827
277.613
278.481
279.444
280.517
281.717
283.067
284.602
286.385
288.575
273.246
273.749
274.277
274.837
275.439
276.091
276.802
277.583
278.446
279.403
280.47
281.664
283.01
284.542
286.319
288.469
273.244
273.741
274.263
274.817
275.412
276.057
276.76
277.532
278.384
279.33
280.385
281.569
282.906
284.433
286.211
288.372
273.241
273.731
274.246
274.792
275.378
276.012
276.704
277.463
278.3
279.229
280.266
281.432
282.753
284.271
286.055
288.251
273.237
273.72
274.226
274.763
275.338
275.959
276.636
277.378
278.195
279.102
280.114
281.252
282.547
284.047
285.832
288.072
273.232
273.707
274.203
274.729
275.291
275.898
276.557
277.279
278.072
278.95
279.929
281.028
282.282
283.743
285.508
287.788
273.228
273.692
274.178
274.692
275.24
275.83
276.471
277.169
277.934
278.777
279.713
280.761
281.953
283.342
285.036
287.296
273.223
273.677
274.151
274.652
275.186
275.759
276.378
277.05
277.784
278.587
279.473
280.457
281.563
282.836
284.366
286.397
273.253
273.771
274.316
274.895
275.518
276.195
276.936
277.754
278.661
279.673
280.807
282.084
283.532
285.189
287.12
289.45
273.252
273.766
274.307
274.882
275.501
276.173
276.91
277.723
278.625
279.631
280.759
282.03
283.474
285.129
287.057
289.365
273.249
273.758
274.293
274.862
275.474
276.138
276.866
277.669
278.56
279.555
280.671
281.931
283.366
285.018
286.953
289.281
273.246
273.748
274.275
274.836
275.438
276.092
276.808
277.597
278.473
279.45
280.547
281.789
283.209
284.854
286.801
289.172
273.242
273.736
274.254
274.805
275.396
276.037
276.737
277.509
278.363
279.316
280.387
281.601
282.995
284.624
286.578
289.009
273.238
273.722
274.231
274.77
275.348
275.973
276.655
277.405
278.234
279.157
280.192
281.365
282.716
284.307
286.248
288.739
273.233
273.707
274.204
274.731
275.294
275.903
276.565
277.289
278.088
278.974
279.963
281.082
282.366
283.882
285.754
288.245
273.227
273.692
274.177
274.69
275.238
275.828
276.468
277.165
277.93
278.773
279.708
280.756
281.948
283.337
285.032
287.293
273.259
273.788
274.344
274.937
275.576
276.272
277.037
277.883
278.825
279.879
281.063
282.399
283.914
285.64
287.618
289.905
273.257
273.782
274.335
274.924
275.559
276.25
277.01
277.851
278.787
279.835
281.013
282.344
283.855
285.58
287.559
289.833
273.254
273.774
274.321
274.903
275.531
276.214
276.965
277.796
278.721
279.756
280.922
282.242
283.745
285.469
287.457
289.756
273.251
273.764
274.302
274.876
275.494
276.166
276.905
277.721
278.63
279.647
280.794
282.095
283.584
285.303
287.306
289.653
273.247
273.751
274.281
274.844
275.45
276.109
276.831
277.629
278.516
279.509
280.628
281.901
283.363
285.067
287.083
289.494
273.242
273.737
274.256
274.808
275.4
276.043
276.746
277.521
278.381
279.342
280.424
281.655
283.074
284.742
286.749
289.228
273.237
273.722
274.229
274.768
275.345
275.97
276.652
277.401
278.229
279.151
280.186
281.359
282.71
284.301
286.243
288.735
273.232
273.705
274.201
274.726
275.287
275.892
276.551
277.271
278.064
278.941
279.918
281.017
282.271
283.732
285.498
287.781
273.263
273.802
274.37
274.975
275.628
276.341
277.126
277.996
278.966
280.054
281.277
282.656
284.212
285.968
287.945
290.154
273.262
273.797
274.36
274.961
275.61
276.318
277.098
277.963
278.927
280.009
281.226
282.599
284.152
285.909
287.887
290.086
273.259
273.788
274.345
274.94
275.581
276.281
277.052
277.906
278.859
279.928
281.133
282.495
284.041
285.797
287.787
290.012
273.256
273.778
274.327
274.912
275.544
276.232
276.99
277.829
278.765
279.816
281.001
282.345
283.877
285.63
287.636
289.911
273.251
273.765
274.305
274.879
275.499
276.173
276.914
277.734
278.648
279.673
280.83
282.145
283.651
285.391
287.413
289.755
273.247
273.75
274.279
274.842
275.447
276.105
276.826
277.623
278.509
279.501
280.62
281.892
283.355
285.059
287.076
289.49
273.241
273.734
274.251
274.801
275.39
276.03
276.729
277.498
278.352
279.303
280.373
281.586
282.98
284.609
286.566
289.001
273.236
273.718
274.222
274.757
275.33
275.949
276.624
277.364
278.18
279.085
280.096
281.233
282.528
284.027
285.815
288.06
273.267
273.815
274.391
275.006
275.672
276.398
277.199
278.089
279.082
280.196
281.447
282.854
284.434
286.2
288.158
290.298
273.266
273.809
274.381
274.992
275.653
276.375
277.171
278.055
279.043
280.15
281.395
282.797
284.374
286.14
288.1
290.233
273.263
273.8
274.366
274.97
275.624
276.337
277.124
277.997
278.973
280.067
281.3
282.691
284.261
286.028
288.001
290.16
273.259
273.789
274.347
274.942
275.585
276.287
277.06
277.919
278.877
279.953
281.166
282.538
284.094
285.86
287.85
290.06
273.255
273.776
274.324
274.909
275.539
276.227
276.983
277.821
278.757
279.806
280.991
282.334
283.866
285.619
287.626
289.904
273.25
273.762
274.299
274.87
275.486
276.157
276.893
277.707
278.614
279.63
280.776
282.076
283.564
285.284
287.289
289.641
273.245
273.745
274.27
274.828
275.428
276.08
276.793
277.579
278.452
279.427
280.523
281.764
283.183
284.829
286.777
289.156
273.239
273.728
274.24
274.784
275.366
275.997
276.686
277.441
278.276
279.203
280.238
281.402
282.722
284.241
286.027
288.23
273.27
273.824
274.408
275.031
275.705
276.443
277.256
278.16
279.17
280.302
281.572
282.997
284.589
286.356
288.293
290.385
273.269
273.818
274.398
275.017
275.687
276.419
277.228
278.126
279.13
280.256
281.52
282.939
284.529
286.296
288.237
290.32
273.266
273.81
274.382
274.994
275.657
276.381
277.18
278.067
279.059
280.172
281.424
282.833
284.416
286.184
288.137
290.248
273.262
273.799
274.363
274.966
275.618
276.33
277.115
277.987
278.962
280.056
281.287
282.678
284.247
286.014
287.987
290.149
273.258
273.785
274.34
274.932
275.571
276.268
277.036
277.888
278.839
279.907
281.11
282.471
284.016
285.772
287.762
289.993
273.253
273.77
274.314
274.893
275.517
276.197
276.945
277.772
278.694
279.728
280.892
282.21
283.712
285.435
287.425
289.731
273.248
273.754
274.285
274.85
275.458
276.118
276.842
277.642
278.529
279.521
280.634
281.893
283.327
284.978
286.914
289.251
273.242
273.736
274.254
274.804
275.395
276.035
276.733
277.501
278.35
279.293
280.345
281.526
282.861
284.388
286.167
288.336
273.273
273.831
274.419
275.048
275.728
276.473
277.295
278.209
279.229
280.373
281.655
283.09
284.688
286.452
288.374
290.434
273.271
273.825
274.409
275.034
275.71
276.449
277.266
278.174
279.189
280.326
281.602
283.032
284.627
286.392
288.318
290.371
273.268
273.816
274.394
275.011
275.679
276.41
277.217
278.115
279.117
280.242
281.505
282.924
284.513
286.28
288.218
290.299
273.264
273.805
274.374
274.982
275.64
276.359
277.152
278.034
279.019
280.124
281.368
282.768
284.344
286.11
288.068
290.199
273.26
273.792
274.351
274.947
275.592
276.296
277.072
277.934
278.895
279.974
281.188
282.56
284.112
285.867
287.843
290.044
273.255
273.776
274.324
274.908
275.538
276.224
276.98
277.816
278.748
279.793
280.968
282.297
283.806
285.529
287.506
289.783
273.25
273.759
274.295
274.865
275.478
276.145
276.876
277.684
278.581
279.583
280.708
281.977
283.418
285.071
286.996
289.305
273.244
273.742
274.264
274.819
275.414
276.06
276.766
277.542
278.399
279.352
280.416
281.607
282.951
284.48
286.252
288.398
273.274
273.834
274.425
275.056
275.74
276.488
277.314
278.233
279.259
280.408
281.696
283.135
284.735
286.497
288.412
290.457
273.272
273.828
274.415
275.042
275.721
276.465
277.286
278.198
279.218
280.361
281.643
283.077
284.675
286.438
288.355
290.394
273.269
273.819
274.399
275.019
275.691
276.425
277.237
278.139
279.146
280.277
281.546
282.969
284.561
286.326
288.256
290.322
273.265
273.808
274.38
274.99
275.651
276.374
277.171
278.057
279.047
280.158
281.407
282.813
284.391
286.155
288.106
290.222
273.261
273.795
274.356
274.955
275.603
276.311
277.091
277.956
278.923
280.007
281.227
282.604
284.158
285.912
287.881
290.067
273.256
273.779
274.329
274.916
275.548
276.238
276.997
277.838
278.775
279.825
281.006
282.339
283.851
285.573
287.544
289.806
273.251
273.762
274.3
274.872
275.488
276.158
276.893
277.705
278.607
279.615
280.745
282.018
283.463
285.115
287.035
289.33
273.245
273.745
274.269
274.826
275.424
276.073
276.782
277.562
278.424
279.382
280.451
281.647
282.994
284.524
286.292
288.427
273.216
273.657
274.116
274.596
275.1
275.631
276.19
276.778
277.394
278.033
278.687
279.346
279.993
280.607
281.162
281.631
273.215
273.654
274.11
274.588
275.089
275.617
276.174
276.759
277.371
278.006
278.657
279.312
279.955
280.566
281.119
281.586
273.213
273.648
274.1
274.573
275.07
275.593
276.144
276.723
277.329
277.957
278.601
279.249
279.885
280.49
281.037
281.5
273.211
273.64
274.087
274.554
275.044
275.561
276.104
276.675
277.271
277.89
278.523
279.16
279.786
280.38
280.919
281.375
273.208
273.631
274.071
274.531
275.014
275.521
276.055
276.615
277.2
277.806
278.426
279.049
279.66
280.241
280.767
281.213
273.204
273.621
274.054
274.505
274.979
275.476
275.999
276.547
277.118
277.708
278.312
278.917
279.511
280.075
280.586
281.019
273.201
273.61
274.034
274.477
274.941
275.427
275.937
276.471
277.027
277.6
278.184
278.77
279.344
279.887
280.379
280.796
273.197
273.598
274.014
274.448
274.901
275.375
275.872
276.391
276.93
277.485
278.049
278.612
279.163
279.683
280.154
280.552
273.217
273.66
274.12
274.603
275.11
275.645
276.21
276.805
277.429
278.079
278.748
279.425
280.093
280.731
281.312
281.804
273.216
273.656
274.114
274.593
275.098
275.63
276.192
276.784
277.405
278.051
278.716
279.389
280.053
280.688
281.266
281.757
273.214
273.65
274.103
274.578
275.078
275.605
276.161
276.747
277.361
278.001
278.658
279.323
279.981
280.609
281.181
281.668
273.211
273.642
274.09
274.559
275.052
275.572
276.12
276.697
277.302
277.932
278.578
279.232
279.879
280.496
281.06
281.539
273.208
273.633
274.074
274.536
275.021
275.532
276.07
276.637
277.23
277.846
278.479
279.118
279.749
280.353
280.903
281.372
273.205
273.622
274.056
274.51
274.986
275.486
276.013
276.567
277.146
277.746
278.362
278.983
279.596
280.181
280.715
281.17
273.201
273.611
274.037
274.481
274.947
275.437
275.951
276.49
277.053
277.636
278.232
278.832
279.423
279.986
280.5
280.937
273.197
273.599
274.016
274.451
274.907
275.384
275.885
276.409
276.955
277.518
278.093
278.669
279.236
279.774
280.264
280.682
273.219
273.665
274.131
274.618
275.132
275.676
276.251
276.86
277.502
278.175
278.872
279.584
280.295
280.982
281.615
282.158
273.218
273.661
274.123
274.608
275.119
275.66
276.232
276.838
277.476
278.145
278.838
279.546
280.253
280.937
281.567
282.108
273.216
273.655
274.112
274.592
275.098
275.633
276.2
276.799
277.431
278.092
278.777
279.477
280.177
280.853
281.478
282.015
273.213
273.647
274.099
274.572
275.071
275.599
276.157
276.748
277.369
278.02
278.694
279.382
280.069
280.735
281.351
281.88
273.21
273.638
274.083
274.549
275.04
275.558
276.106
276.685
277.294
277.931
278.59
279.262
279.933
280.584
281.185
281.703
273.207
273.627
274.064
274.522
275.004
275.512
276.048
276.613
277.207
277.827
278.468
279.121
279.771
280.401
280.984
281.486
273.203
273.616
274.045
274.493
274.964
275.461
275.984
276.534
277.111
277.712
278.332
278.961
279.587
280.192
280.75
281.232
273.199
273.603
274.024
274.463
274.923
275.407
275.916
276.45
277.009
277.589
278.185
278.789
279.387
279.963
280.493
280.949
273.222
273.675
274.147
274.643
275.167
275.723
276.314
276.943
277.612
278.317
279.057
279.821
280.597
281.36
282.078
282.703
273.221
273.67
274.139
274.632
275.153
275.706
276.294
276.919
277.584
278.285
279.02
279.781
280.552
281.313
282.027
282.651
273.219
273.664
274.128
274.616
275.131
275.678
276.26
276.879
277.536
278.23
278.956
279.708
280.472
281.224
281.933
282.553
273.216
273.656
274.114
274.595
275.103
275.643
276.216
276.825
277.472
278.154
278.868
279.607
280.358
281.098
281.797
282.409
273.213
273.646
274.097
274.571
275.071
275.6
276.163
276.76
277.393
278.06
278.758
279.48
280.212
280.935
281.618
282.218
273.209
273.635
274.079
274.543
275.033
275.552
276.102
276.685
277.302
277.951
278.628
279.328
280.037
280.737
281.398
281.979
273.205
273.623
274.058
274.513
274.993
275.499
276.035
276.602
277.201
277.829
278.483
279.156
279.836
280.506
281.138
281.693
273.201
273.611
274.037
274.482
274.95
275.443
275.965
276.515
277.093
277.698
278.326
278.969
279.616
280.25
280.846
281.367
273.226
273.687
274.169
274.675
275.212
275.784
276.396
277.051
277.752
278.5
279.294
280.129
280.991
281.861
282.701
283.453
273.225
273.683
274.161
274.664
275.198
275.767
276.375
277.026
277.723
278.467
279.256
280.085
280.944
281.811
282.648
283.399
273.223
273.676
274.149
274.647
275.175
275.738
276.339
276.983
277.672
278.408
279.188
280.008
280.858
281.717
282.549
283.296
273.22
273.668
274.135
274.626
275.146
275.701
276.293
276.927
277.605
278.327
279.094
279.9
280.736
281.582
282.403
283.143
273.217
273.658
274.117
274.601
275.112
275.656
276.237
276.858
277.521
278.228
278.976
279.763
280.579
281.405
282.21
282.937
273.213
273.646
274.098
274.572
275.073
275.606
276.174
276.779
277.425
278.111
278.837
279.599
280.387
281.186
281.965
282.67
273.209
273.634
274.077
274.541
275.031
275.551
276.104
276.692
277.317
277.98
278.68
279.411
280.165
280.927
281.668
282.34
273.205
273.621
274.054
274.508
274.986
275.493
276.029
276.599
277.203
277.84
278.509
279.205
279.919
280.635
281.327
281.951
273.231
273.702
274.195
274.714
275.266
275.857
276.493
277.178
277.918
278.716
279.575
280.493
281.464
282.472
283.482
284.425
273.229
273.697
274.186
274.703
275.252
275.839
276.471
277.152
277.887
278.68
279.534
280.447
281.414
282.419
283.427
284.368
273.227
273.69
274.174
274.685
275.228
275.809
276.434
277.107
277.834
278.618
279.462
280.365
281.322
282.32
283.323
284.262
273.224
273.682
274.159
274.663
275.198
275.77
276.385
277.048
277.762
278.533
279.362
280.249
281.192
282.176
283.169
284.103
273.221
273.671
274.141
274.636
275.162
275.724
276.327
276.975
277.674
278.426
279.235
280.101
281.022
281.984
282.96
283.883
273.217
273.66
274.121
274.607
275.122
275.671
276.259
276.891
277.571
278.301
279.085
279.923
280.812
281.742
282.688
283.587
273.213
273.647
274.099
274.574
275.077
275.613
276.185
276.799
277.456
278.161
278.914
279.716
280.564
281.449
282.347
283.203
273.209
273.633
274.076
274.54
275.03
275.552
276.107
276.7
277.333
278.009
278.727
279.487
280.285
281.11
281.941
282.726
273.236
273.719
274.224
274.757
275.327
275.939
276.6
277.319
278.101
278.953
279.883
280.895
281.991
283.167
284.402
285.631
273.235
273.714
274.215
274.746
275.311
275.92
276.577
277.291
278.068
278.916
279.84
280.847
281.939
283.111
284.344
285.57
273.232
273.707
274.203
274.727
275.287
275.888
276.538
277.244
278.012
278.85
279.764
280.76
281.842
283.008
284.237
285.463
273.23
273.698
274.187
274.704
275.255
275.848
276.487
277.181
277.936
278.759
279.657
280.637
281.703
282.856
284.078
285.305
273.226
273.687
274.168
274.677
275.218
275.799
276.426
277.105
277.843
278.646
279.522
280.478
281.52
282.65
283.857
285.08
273.222
273.675
274.147
274.645
275.176
275.743
276.355
277.016
277.733
278.512
279.36
280.283
281.29
282.385
283.559
284.763
273.218
273.661
274.124
274.611
275.129
275.682
276.277
276.918
277.61
278.36
279.173
280.056
281.014
282.053
283.169
284.319
273.213
273.647
274.1
274.576
275.08
275.618
276.194
276.812
277.478
278.196
278.969
279.802
280.699
281.661
282.681
283.721
273.242
273.736
274.254
274.803
275.391
276.025
276.713
277.466
278.291
279.2
280.203
281.312
282.54
283.901
285.409
287.06
273.24
273.731
274.246
274.791
275.375
276.005
276.689
277.437
278.258
279.161
280.158
281.262
282.485
283.843
285.348
286.985
273.238
273.724
274.233
274.772
275.349
275.972
276.649
277.388
278.199
279.091
280.078
281.17
282.384
283.735
285.239
286.88
273.235
273.714
274.216
274.748
275.316
275.93
276.595
277.322
278.119
278.996
279.965
281.04
282.237
283.578
285.079
286.734
273.231
273.703
274.197
274.719
275.277
275.879
276.53
277.241
278.019
278.875
279.82
280.87
282.042
283.361
284.853
286.523
273.227
273.69
274.175
274.687
275.233
275.82
276.456
277.147
277.903
278.732
279.646
280.66
281.793
283.074
284.537
286.206
273.223
273.677
274.151
274.651
275.184
275.756
276.373
277.043
277.772
278.569
279.445
280.412
281.49
282.705
284.1
285.716
273.218
273.662
274.125
274.614
275.133
275.688
276.285
276.931
277.631
278.392
279.222
280.132
281.136
282.254
283.518
284.966
273.218
273.661
274.125
274.613
275.131
275.686
276.283
276.928
277.628
278.389
279.219
280.128
281.132
282.25
283.515
284.963
273.213
273.646
274.098
274.574
275.077
275.615
276.19
276.808
277.473
278.19
278.963
279.795
280.692
281.654
282.674
283.716
273.208
273.632
274.074
274.537
275.027
275.547
276.102
276.694
277.326
278.001
278.719
279.478
280.276
281.102
281.932
282.718
273.204
273.62
274.052
274.505
274.982
275.488
276.023
276.592
277.195
277.831
278.499
279.195
279.908
280.625
281.317
281.942
273.201
273.609
274.034
274.478
274.945
275.438
275.958
276.507
277.084
277.688
278.315
278.958
279.605
280.239
280.835
281.357
273.198
273.602
274.021
274.459
274.918
275.401
275.909
276.442
276.999
277.579
278.174
278.777
279.375
279.951
280.482
280.939
273.197
273.597
274.013
274.447
274.902
275.378
275.878
276.4
276.945
277.507
278.081
278.657
279.223
279.762
280.252
280.671
273.196
273.596
274.011
274.443
274.895
275.369
275.865
276.382
276.92
277.473
278.036
278.6
279.15
279.671
280.142
280.542
273.222
273.675
274.149
274.649
275.181
275.752
276.368
277.037
277.765
278.562
279.437
280.404
281.481
282.697
284.092
285.709
273.217
273.66
274.122
274.608
275.125
275.677
276.27
276.91
277.601
278.35
279.163
280.045
281.003
282.042
283.158
284.31
273.212
273.645
274.096
274.57
275.072
275.606
276.178
276.79
277.446
278.149
278.901
279.703
280.55
281.435
282.334
283.191
273.208
273.632
274.073
274.536
275.025
275.544
276.095
276.682
277.306
277.968
278.666
279.396
280.15
280.913
281.654
282.327
273.205
273.621
274.055
274.509
274.986
275.491
276.026
276.591
277.188
277.815
278.468
279.14
279.821
280.49
281.123
281.679
273.202
273.613
274.041
274.488
274.958
275.452
275.974
276.523
277.098
277.698
278.316
278.945
279.571
280.176
280.735
281.218
273.201
273.609
274.033
274.476
274.94
275.428
275.941
276.478
277.04
277.621
278.216
278.815
279.406
279.97
280.484
280.923
273.2
273.607
274.031
274.472
274.934
275.418
275.927
276.459
277.013
277.585
278.168
278.753
279.327
279.87
280.363
280.781
273.227
273.689
274.172
274.683
275.227
275.813
276.447
277.137
277.891
278.719
279.632
280.646
281.779
283.059
284.524
286.194
273.221
273.672
274.144
274.64
275.169
275.735
276.345
277.004
277.719
278.497
279.343
280.266
281.273
282.367
283.543
284.748
273.216
273.657
274.117
274.601
275.114
275.661
276.248
276.878
277.556
278.284
279.067
279.904
280.792
281.723
282.669
283.57
273.212
273.644
274.094
274.566
275.065
275.596
276.161
276.765
277.409
278.093
278.818
279.579
280.367
281.166
281.945
282.652
273.208
273.633
274.074
274.537
275.025
275.541
276.089
276.67
277.285
277.932
278.608
279.307
280.016
280.716
281.377
281.96
273.206
273.624
274.06
274.516
274.995
275.501
276.035
276.598
277.19
277.808
278.448
279.099
279.75
280.38
280.963
281.467
273.204
273.62
274.051
274.503
274.977
275.475
276
276.551
277.128
277.727
278.341
278.962
279.574
280.16
280.695
281.152
273.203
273.618
274.049
274.499
274.97
275.465
275.985
276.531
277.1
277.689
278.291
278.896
279.489
280.053
280.565
281
273.23
273.7
274.192
274.713
275.269
275.867
276.517
277.225
278.001
278.855
279.799
280.847
282.019
283.338
284.832
286.505
273.225
273.684
274.163
274.669
275.208
275.787
276.411
277.087
277.823
278.624
279.498
280.453
281.494
282.625
283.832
285.058
273.22
273.668
274.136
274.629
275.152
275.711
276.311
276.956
277.653
278.403
279.21
280.075
280.995
281.957
282.934
283.859
273.215
273.654
274.112
274.592
275.101
275.643
276.221
276.839
277.499
278.203
278.95
279.736
280.551
281.378
282.183
282.912
273.212
273.643
274.092
274.562
275.059
275.586
276.146
276.74
277.37
278.035
278.731
279.452
280.184
280.907
281.592
282.193
273.209
273.634
274.077
274.54
275.028
275.544
276.089
276.665
277.272
277.906
278.563
279.234
279.905
280.556
281.158
281.678
273.207
273.629
274.068
274.527
275.009
275.517
276.053
276.617
277.207
277.821
278.452
279.09
279.721
280.325
280.877
281.349
273.207
273.628
274.065
274.523
275.002
275.507
276.038
276.595
277.177
277.781
278.399
279.021
279.632
280.213
280.741
281.19
273.234
273.71
274.21
274.738
275.303
275.913
276.575
277.299
278.092
278.967
279.934
281.007
282.204
283.544
285.047
286.706
273.228
273.693
274.18
274.694
275.242
275.83
276.466
277.157
277.908
278.729
279.624
280.602
281.668
282.82
284.043
285.272
273.223
273.677
274.152
274.652
275.183
275.752
276.363
277.022
277.733
278.501
279.327
280.214
281.155
282.139
283.133
284.07
273.218
273.663
274.127
274.615
275.132
275.682
276.271
276.901
277.575
278.295
279.059
279.864
280.699
281.545
282.368
283.11
273.214
273.651
274.106
274.584
275.089
275.624
276.193
276.799
277.442
278.121
278.833
279.571
280.321
281.062
281.762
282.377
273.212
273.643
274.091
274.561
275.057
275.58
276.135
276.722
277.34
277.988
278.66
279.346
280.033
280.7
281.317
281.849
273.21
273.637
274.082
274.548
275.037
275.553
276.098
276.671
277.273
277.9
278.544
279.197
279.843
280.461
281.027
281.51
273.209
273.636
274.079
274.543
275.03
275.542
276.082
276.649
277.242
277.858
278.49
279.125
279.751
280.346
280.887
281.346
273.236
273.718
274.223
274.758
275.331
275.949
276.621
277.355
278.162
279.051
280.035
281.125
282.337
283.688
285.191
286.835
273.231
273.701
274.193
274.713
275.267
275.864
276.509
277.21
277.974
278.808
279.719
280.713
281.794
282.959
284.188
285.416
273.225
273.684
274.164
274.67
275.208
275.784
276.404
277.073
277.795
278.576
279.417
280.318
281.274
282.271
283.275
284.216
273.221
273.67
274.139
274.632
275.155
275.713
276.31
276.949
277.634
278.366
279.143
279.961
280.81
281.669
282.503
283.253
273.217
273.658
274.118
274.601
275.111
275.653
276.231
276.845
277.498
278.188
278.912
279.662
280.425
281.178
281.889
282.512
273.214
273.649
274.102
274.578
275.079
275.609
276.171
276.766
277.393
278.051
278.734
279.432
280.131
280.809
281.436
281.977
273.212
273.644
274.093
274.564
275.059
275.581
276.133
276.714
277.325
277.961
278.616
279.28
279.936
280.566
281.141
281.631
273.211
273.642
274.09
274.559
275.051
275.57
276.116
276.691
277.293
277.918
278.56
279.206
279.842
280.448
280.998
281.465
273.238
273.724
274.232
274.772
275.349
275.973
276.651
277.394
278.209
279.108
280.102
281.202
282.423
283.779
285.281
286.913
273.232
273.706
274.202
274.726
275.285
275.887
276.539
277.247
278.019
278.862
279.783
280.787
281.877
283.048
284.28
285.505
273.227
273.689
274.173
274.683
275.225
275.806
276.432
277.107
277.838
278.626
279.476
280.387
281.352
282.357
283.366
284.309
273.222
273.675
274.147
274.644
275.171
275.734
276.336
276.982
277.674
278.413
279.199
280.026
280.884
281.751
282.591
283.345
273.218
273.663
274.126
274.612
275.127
275.674
276.256
276.876
277.536
278.233
278.965
279.723
280.494
281.255
281.973
282.601
273.215
273.654
274.11
274.589
275.094
275.628
276.195
276.796
277.43
278.094
278.785
279.49
280.197
280.882
281.516
282.061
273.213
273.648
274.101
274.575
275.073
275.6
276.156
276.743
277.36
278.003
278.665
279.336
280
280.636
281.217
281.713
273.213
273.646
274.098
274.57
275.066
275.588
276.14
276.72
277.328
277.959
278.608
279.261
279.904
280.516
281.073
281.544
273.239
273.726
274.237
274.779
275.359
275.985
276.667
277.413
278.233
279.137
280.135
281.241
282.465
283.823
285.323
286.95
273.233
273.709
274.206
274.732
275.294
275.899
276.554
277.265
278.042
278.889
279.815
280.823
281.917
283.092
284.324
285.547
273.228
273.692
274.177
274.689
275.234
275.817
276.446
277.125
277.859
278.652
279.506
280.421
281.391
282.399
283.41
284.354
273.223
273.677
274.151
274.65
275.18
275.745
276.35
276.998
277.694
278.437
279.227
280.059
280.921
281.791
282.634
283.39
273.219
273.665
274.13
274.618
275.135
275.684
276.269
276.892
277.555
278.256
278.992
279.754
280.529
281.293
282.014
282.644
273.216
273.656
274.114
274.594
275.101
275.638
276.208
276.811
277.448
278.116
278.81
279.52
280.23
280.918
281.555
282.104
273.214
273.65
274.105
274.58
275.081
275.61
276.169
276.758
277.378
278.024
278.689
279.364
280.032
280.671
281.256
281.754
273.213
273.649
274.101
274.575
275.073
275.598
276.152
276.735
277.346
277.98
278.632
279.289
279.935
280.551
281.11
281.585
273.193
273.586
273.993
274.417
274.86
275.323
275.807
276.31
276.832
277.367
277.909
278.45
278.976
279.472
279.919
280.298
273.189
273.574
273.973
274.388
274.821
275.272
275.742
276.231
276.735
277.251
277.772
278.289
278.79
279.262
279.685
280.044
273.186
273.563
273.955
274.361
274.784
275.224
275.682
276.156
276.644
277.141
277.642
278.137
278.614
279.062
279.463
279.801
273.182
273.554
273.938
274.337
274.751
275.182
275.628
276.09
276.563
277.043
277.525
277.999
278.456
278.881
279.262
279.582
273.18
273.546
273.925
274.317
274.724
275.147
275.584
276.034
276.495
276.961
277.427
277.884
278.321
278.728
279.091
279.396
273.178
273.54
273.914
274.302
274.704
275.12
275.55
275.992
276.442
276.898
277.351
277.794
278.217
278.609
278.958
279.251
273.177
273.537
273.908
274.293
274.691
275.103
275.528
275.964
276.408
276.855
277.3
277.734
278.147
278.528
278.867
279.152
273.176
273.535
273.906
274.29
274.686
275.096
275.519
275.951
276.392
276.835
277.275
277.704
278.112
278.489
278.822
279.102
273.193
273.587
273.995
274.421
274.866
275.331
275.818
276.327
276.854
277.397
277.949
278.502
279.042
279.554
280.018
280.413
273.19
273.575
273.975
274.391
274.826
275.279
275.753
276.246
276.756
277.278
277.808
278.335
278.849
279.334
279.772
280.144
273.186
273.564
273.956
274.364
274.788
275.231
275.692
276.17
276.663
277.166
277.674
278.178
278.666
279.125
279.537
279.887
273.183
273.555
273.94
274.339
274.755
275.188
275.638
276.102
276.58
277.066
277.554
278.036
278.501
278.936
279.326
279.655
273.18
273.547
273.926
274.319
274.728
275.153
275.592
276.046
276.511
276.982
277.453
277.917
278.362
278.776
279.147
279.459
273.178
273.541
273.916
274.305
274.708
275.126
275.558
276.003
276.458
276.917
277.375
277.824
278.254
278.652
279.007
279.306
273.177
273.537
273.91
274.296
274.696
275.11
275.537
275.976
276.423
276.875
277.324
277.763
278.181
278.569
278.913
279.203
273.177
273.537
273.908
274.293
274.691
275.103
275.528
275.964
276.408
276.855
277.3
277.733
278.146
278.528
278.867
279.151
273.195
273.591
274.002
274.432
274.881
275.352
275.847
276.365
276.905
277.463
278.034
278.61
279.178
279.723
280.222
280.65
273.191
273.579
273.982
274.401
274.84
275.299
275.78
276.281
276.802
277.339
277.885
278.433
278.971
279.483
279.95
280.349
273.187
273.568
273.963
274.373
274.802
275.25
275.717
276.203
276.706
277.221
277.744
278.265
278.774
279.255
279.691
280.062
273.184
273.558
273.946
274.348
274.768
275.206
275.661
276.133
276.619
277.116
277.617
278.114
278.596
279.049
279.458
279.805
273.181
273.55
273.932
274.328
274.74
275.169
275.614
276.075
276.547
277.028
277.511
277.987
278.446
278.876
279.261
279.587
273.18
273.544
273.922
274.313
274.72
275.142
275.58
276.031
276.493
276.961
277.429
277.889
278.33
278.742
279.109
279.419
273.178
273.541
273.916
274.304
274.708
275.126
275.558
276.003
276.457
276.917
277.375
277.824
278.253
278.652
279.007
279.306
273.178
273.54
273.914
274.302
274.704
275.12
275.549
275.991
276.442
276.897
277.35
277.793
278.216
278.608
278.957
279.25
273.197
273.598
274.015
274.45
274.906
275.387
275.893
276.425
276.983
277.564
278.163
278.774
279.386
279.98
280.534
281.017
273.193
273.586
273.994
274.419
274.864
275.332
275.823
276.337
276.874
277.431
278.002
278.581
279.155
279.709
280.221
280.664
273.189
273.575
273.974
274.39
274.825
275.28
275.757
276.255
276.772
277.306
277.85
278.397
278.936
279.451
279.923
280.328
273.186
273.564
273.956
274.364
274.79
275.234
275.698
276.181
276.681
277.193
277.713
278.232
278.739
279.22
279.656
280.029
273.183
273.556
273.942
274.343
274.761
275.197
275.65
276.12
276.605
277.099
277.598
278.093
278.573
279.025
279.433
279.779
273.181
273.55
273.931
274.328
274.74
275.169
275.614
276.074
276.547
277.027
277.51
277.986
278.445
278.875
279.26
279.586
273.18
273.547
273.926
274.319
274.728
275.152
275.591
276.045
276.509
276.981
277.452
277.915
278.36
278.775
279.145
279.458
273.18
273.546
273.924
274.316
274.723
275.146
275.583
276.033
276.493
276.959
277.425
277.882
278.32
278.726
279.089
279.394
273.2
273.608
274.032
274.475
274.941
275.433
275.954
276.504
277.085
277.695
278.332
278.989
279.658
280.323
280.958
281.524
273.196
273.595
274.01
274.443
274.897
275.376
275.88
276.411
276.969
277.552
278.155
278.774
279.397
280.008
280.584
281.091
273.192
273.583
273.989
274.412
274.856
275.321
275.811
276.324
276.86
277.416
277.988
278.569
279.148
279.709
280.23
280.683
273.189
273.573
273.971
274.386
274.819
275.273
275.749
276.246
276.762
277.294
277.838
278.385
278.925
279.442
279.916
280.324
273.186
273.564
273.956
274.364
274.789
275.234
275.698
276.18
276.68
277.192
277.712
278.231
278.738
279.218
279.655
280.028
273.184
273.558
273.945
274.348
274.767
275.204
275.66
276.131
276.618
277.114
277.615
278.112
278.594
279.047
279.456
279.803
273.183
273.554
273.939
274.339
274.754
275.187
275.636
276.1
276.578
277.064
277.552
278.034