/*--------------------------------*- C++ -*----------------------------------*\
| =========                 |                                                 |
| \\      /  F ield         | OpenFOAM: The Open Source CFD Toolbox           |
|  \\    /   O peration     | Version:  v1912                                 |
|   \\  /    A nd           | Website:  www.openfoam.com                      |
|    \\/     M anipulation  |                                                 |
\*---------------------------------------------------------------------------*/
FoamFile
{
    version     2.0;
    format      ascii;
    class       volVectorField;
    location    "0.85/fluid";
    object      cellMotionU;
}
// * * * * * * * * * * * * * * * * * * * * * * * * * * * * * * * * * * * * * //

dimensions      [0 1 -1 0 0 0 0];


internalField   nonuniform List<vector> 
14592
(
(1.17477e-10 -2.81683e-10 2.15386e-10)
(3.28353e-10 -7.8749e-10 6.09835e-10)
(5.24604e-10 -1.25728e-09 9.98397e-10)
(7.14452e-10 -1.70733e-09 1.40693e-09)
(9.06613e-10 -2.14909e-09 1.85994e-09)
(1.10924e-09 -2.58693e-09 2.38001e-09)
(1.33213e-09 -3.01753e-09 2.98971e-09)
(1.58815e-09 -3.42676e-09 3.71194e-09)
(1.89601e-09 -3.78373e-09 4.57022e-09)
(2.28618e-09 -4.03043e-09 5.58959e-09)
(2.81479e-09 -4.05986e-09 6.80052e-09)
(3.59787e-09 -3.66633e-09 8.25515e-09)
(4.89673e-09 -2.41337e-09 1.00835e-08)
(7.35726e-09 7.5961e-10 1.26762e-08)
(1.24207e-08 8.42804e-09 1.70454e-08)
(2.1021e-08 2.33299e-08 2.38121e-08)
(3.492e-10 -8.36413e-10 6.40234e-10)
(9.76049e-10 -2.33864e-09 1.8127e-09)
(1.55862e-09 -3.73467e-09 2.96663e-09)
(2.12227e-09 -5.07426e-09 4.17998e-09)
(2.69033e-09 -6.39057e-09 5.52299e-09)
(3.28753e-09 -7.69927e-09 7.06319e-09)
(3.94187e-09 -8.99364e-09 8.86679e-09)
(4.68883e-09 -1.02367e-08 1.10001e-08)
(5.57813e-09 -1.13468e-08 1.35298e-08)
(6.68606e-09 -1.21724e-08 1.65219e-08)
(8.14167e-09 -1.24484e-08 2.00429e-08)
(1.01761e-08 -1.17212e-08 2.41687e-08)
(1.32344e-08 -9.21193e-09 2.90259e-08)
(1.80901e-08 -3.659e-09 3.48453e-08)
(2.57098e-08 6.4775e-09 4.18918e-08)
(3.48092e-08 1.95325e-08 4.89952e-08)
(5.71935e-10 -1.36651e-09 1.04881e-09)
(1.59812e-09 -3.82192e-09 2.96886e-09)
(2.55102e-09 -6.10743e-09 4.85761e-09)
(3.46991e-09 -8.3055e-09 6.84058e-09)
(4.3929e-09 -1.04747e-08 9.03281e-09)
(5.35849e-09 -1.26461e-08 1.15434e-08)
(6.40963e-09 -1.48182e-08 1.44798e-08)
(7.59876e-09 -1.69469e-08 1.79492e-08)
(8.99465e-09 -1.89276e-08 2.20582e-08)
(1.06942e-08 -2.05664e-08 2.69082e-08)
(1.28423e-08 -2.15372e-08 3.25878e-08)
(1.56673e-08 -2.13282e-08 3.91643e-08)
(1.95372e-08 -1.92038e-08 4.66826e-08)
(2.49935e-08 -1.43115e-08 5.51724e-08)
(3.25414e-08 -6.34098e-09 6.45946e-08)
(4.08447e-08 2.06079e-09 7.3708e-08)
(7.80098e-10 -1.85528e-09 1.43104e-09)
(2.17898e-09 -5.19124e-09 4.04981e-09)
(3.47539e-09 -8.30252e-09 6.62291e-09)
(4.72145e-09 -1.13059e-08 9.32004e-09)
(5.96626e-09 -1.42866e-08 1.22954e-08)
(7.2599e-09 -1.72975e-08 1.5696e-08)
(8.65657e-09 -2.03534e-08 1.96665e-08)
(1.02193e-08 -2.34225e-08 2.43516e-08)
(1.20256e-08 -2.64096e-08 2.98948e-08)
(1.41734e-08 -2.91309e-08 3.64317e-08)
(1.67871e-08 -3.12789e-08 4.40734e-08)
(2.00255e-08 -3.23861e-08 5.28797e-08)
(2.40834e-08 -3.18214e-08 6.28199e-08)
(2.91565e-08 -2.89229e-08 7.37084e-08)
(3.52888e-08 -2.35288e-08 8.50619e-08)
(4.13339e-08 -1.75783e-08 9.49705e-08)
(9.68911e-10 -2.28618e-09 1.77815e-09)
(2.70523e-09 -6.40026e-09 5.03056e-09)
(4.31026e-09 -1.02466e-08 8.22126e-09)
(5.8456e-09 -1.39751e-08 1.15574e-08)
(7.36976e-09 -1.77006e-08 1.52276e-08)
(8.94086e-09 -2.15022e-08 1.94106e-08)
(1.06206e-08 -2.54212e-08 2.42826e-08)
(1.24786e-08 -2.94551e-08 3.00208e-08)
(1.45954e-08 -3.35465e-08 3.68027e-08)
(1.70651e-08 -3.75647e-08 4.47999e-08)
(1.99898e-08 -4.12785e-08 5.41583e-08)
(2.3469e-08 -4.43202e-08 6.49645e-08)
(2.75667e-08 -4.61426e-08 7.71802e-08)
(3.22391e-08 -4.59975e-08 9.05111e-08)
(3.72284e-08 -4.30894e-08 1.04106e-07)
(4.15705e-08 -3.79672e-08 1.15234e-07)
(1.13492e-09 -2.64323e-09 2.08335e-09)
(3.16654e-09 -7.40384e-09 5.89128e-09)
(5.03855e-09 -1.18663e-08 9.6192e-09)
(6.8197e-09 -1.62126e-08 1.35051e-08)
(8.57396e-09 -2.05858e-08 1.77638e-08)
(1.03649e-08 -2.50944e-08 2.25993e-08)
(1.22587e-08 -2.98119e-08 2.82117e-08)
(1.43284e-08 -3.47762e-08 3.48031e-08)
(1.66573e-08 -3.9986e-08 4.25796e-08)
(1.93398e-08 -4.53925e-08 5.17474e-08)
(2.24771e-08 -5.08853e-08 6.24999e-08)
(2.61664e-08 -5.62635e-08 7.49921e-08)
(3.04788e-08 -6.11636e-08 8.9293e-08)
(3.53797e-08 -6.48662e-08 1.05227e-07)
(4.05955e-08 -6.59374e-08 1.21924e-07)
(4.50019e-08 -6.28342e-08 1.3583e-07)
(1.2754e-09 -2.91132e-09 2.34158e-09)
(3.55597e-09 -8.15964e-09 6.618e-09)
(5.64959e-09 -1.30931e-08 1.07939e-08)
(7.62851e-09 -1.79207e-08 1.51295e-08)
(9.56006e-09 -2.28124e-08 1.98585e-08)
(1.15096e-08 -2.79037e-08 2.52008e-08)
(1.35447e-08 -3.33009e-08 3.13713e-08)
(1.57392e-08 -3.90841e-08 3.85867e-08)
(1.81776e-08 -4.53114e-08 4.70699e-08)
(2.09593e-08 -5.20231e-08 5.70513e-08)
(2.41996e-08 -5.92478e-08 6.87641e-08)
(2.80495e-08 -6.70117e-08 8.24554e-08)
(3.26985e-08 -7.53185e-08 9.83638e-08)
(3.83967e-08 -8.40355e-08 1.16665e-07)
(4.53334e-08 -9.23994e-08 1.36988e-07)
(5.22626e-08 -9.76856e-08 1.55334e-07)
(1.38926e-09 -3.07742e-09 2.55027e-09)
(3.87015e-09 -8.63086e-09 7.20335e-09)
(6.13827e-09 -1.38661e-08 1.17334e-08)
(8.26666e-09 -1.90135e-08 1.64145e-08)
(1.0322e-08 -2.42632e-08 2.14899e-08)
(1.23688e-08 -2.97735e-08 2.71864e-08)
(1.44723e-08 -3.5677e-08 3.37229e-08)
(1.67031e-08 -4.20881e-08 4.1317e-08)
(1.91424e-08 -4.91114e-08 5.01912e-08)
(2.18874e-08 -5.68532e-08 6.05749e-08)
(2.50639e-08 -6.5444e-08 7.27126e-08)
(2.88488e-08 -7.50759e-08 8.688e-08)
(3.35306e-08 -8.60777e-08 1.03433e-07)
(3.96165e-08 -9.90201e-08 1.2287e-07)
(4.79462e-08 -1.14673e-07 1.45677e-07)
(5.79558e-08 -1.31329e-07 1.68702e-07)
(1.19217e-10 -2.88252e-10 2.04556e-10)
(3.33165e-10 -8.05951e-10 5.78966e-10)
(5.31869e-10 -1.28712e-09 9.46865e-10)
(7.23735e-10 -1.74883e-09 1.33277e-09)
(9.16713e-10 -2.20281e-09 1.7587e-09)
(1.11875e-09 -2.6544e-09 2.2454e-09)
(1.33868e-09 -3.10125e-09 2.81261e-09)
(1.58757e-09 -3.5308e-09 3.4793e-09)
(1.88098e-09 -3.91536e-09 4.26299e-09)
(2.24371e-09 -4.2039e-09 5.17843e-09)
(2.72057e-09 -4.3061e-09 6.23587e-09)
(3.40215e-09 -4.06008e-09 7.44139e-09)
(4.49093e-09 -3.15331e-09 8.80766e-09)
(6.43634e-09 -9.34936e-10 1.03746e-08)
(1.00925e-08 3.84268e-09 1.21819e-08)
(1.54919e-08 1.15175e-08 1.35674e-08)
(3.54415e-10 -8.55868e-10 6.08093e-10)
(9.90224e-10 -2.39325e-09 1.72068e-09)
(1.58044e-09 -3.82305e-09 2.81371e-09)
(2.14956e-09 -5.19663e-09 3.95919e-09)
(2.72062e-09 -6.54938e-09 5.22228e-09)
(3.31669e-09 -7.89886e-09 6.66391e-09)
(3.96301e-09 -9.241e-09 8.34218e-09)
(4.69011e-09 -1.05431e-08 1.03122e-08)
(5.53883e-09 -1.17319e-08 1.26237e-08)
(6.56949e-09 -1.26738e-08 1.53148e-08)
(7.88066e-09 -1.31447e-08 1.84003e-08)
(9.64943e-09 -1.27851e-08 2.18541e-08)
(1.21888e-08 -1.10533e-08 2.55656e-08)
(1.59977e-08 -7.25342e-09 2.9243e-08)
(2.14514e-08 -1.06124e-09 3.2114e-08)
(2.70257e-08 5.18959e-09 3.26427e-08)
(5.8053e-10 -1.39818e-09 9.9612e-10)
(1.62162e-09 -3.91086e-09 2.81825e-09)
(2.58701e-09 -6.25114e-09 4.60711e-09)
(3.51575e-09 -8.50497e-09 6.47971e-09)
(4.44453e-09 -1.07336e-08 8.54188e-09)
(5.40975e-09 -1.29712e-08 1.08925e-08)
(6.45023e-09 -1.52201e-08 1.36261e-08)
(7.61095e-09 -1.74421e-08 1.68323e-08)
(8.94743e-09 -1.95434e-08 2.05921e-08)
(1.05329e-08 -2.13531e-08 2.49661e-08)
(1.24701e-08 -2.25949e-08 2.99731e-08)
(1.49099e-08 -2.2868e-08 3.55498e-08)
(1.80692e-08 -2.1686e-08 4.14771e-08)
(2.21931e-08 -1.87257e-08 4.72399e-08)
(2.72388e-08 -1.46047e-08 5.17924e-08)
(3.17179e-08 -1.20749e-08 5.35589e-08)
(7.91979e-10 -1.89816e-09 1.35915e-09)
(2.21164e-09 -5.31161e-09 3.84463e-09)
(3.52577e-09 -8.49717e-09 6.2819e-09)
(4.786e-09 -1.15759e-08 8.82916e-09)
(6.04044e-09 -1.46371e-08 1.16287e-08)
(7.33637e-09 -1.77371e-08 1.48138e-08)
(8.72308e-09 -2.08953e-08 1.85121e-08)
(1.02548e-08 -2.40857e-08 2.28457e-08)
(1.19934e-08 -2.72238e-08 2.79259e-08)
(1.40088e-08 -3.01471e-08 3.38391e-08)
(1.6377e-08 -3.25931e-08 4.06168e-08)
(1.91686e-08 -3.41924e-08 4.81796e-08)
(2.24163e-08 -3.45255e-08 5.62355e-08)
(2.60257e-08 -3.33696e-08 6.40947e-08)
(2.95686e-08 -3.13161e-08 7.03878e-08)
(3.1924e-08 -3.03796e-08 7.3065e-08)
(9.84081e-10 -2.3389e-09 1.68905e-09)
(2.74684e-09 -6.54823e-09 4.77612e-09)
(4.37474e-09 -1.04858e-08 7.79881e-09)
(5.92938e-09 -1.43073e-08 1.09504e-08)
(7.46789e-09 -1.81317e-08 1.44047e-08)
(9.04583e-09 -2.20424e-08 1.83241e-08)
(1.072e-08 -2.60848e-08 2.28649e-08)
(1.2551e-08 -3.02618e-08 2.81776e-08)
(1.46037e-08 -3.45238e-08 3.44029e-08)
(1.69435e-08 -3.87552e-08 4.16568e-08)
(1.96233e-08 -4.27549e-08 4.99986e-08)
(2.2653e-08 -4.62204e-08 5.93691e-08)
(2.59327e-08 -4.87495e-08 6.94682e-08)
(2.9127e-08 -4.99162e-08 7.95121e-08)
(3.15214e-08 -4.95912e-08 8.78242e-08)
(3.22268e-08 -4.87534e-08 9.16752e-08)
(1.15312e-09 -2.70404e-09 1.97916e-09)
(3.21671e-09 -7.57457e-09 5.59403e-09)
(5.11683e-09 -1.21426e-08 9.12633e-09)
(6.92228e-09 -1.6596e-08 1.2798e-08)
(8.69641e-09 -2.10836e-08 1.68075e-08)
(1.05004e-08 -2.57176e-08 2.13402e-08)
(1.23961e-08 -3.05755e-08 2.65741e-08)
(1.44488e-08 -3.5699e-08 3.26823e-08)
(1.67275e-08 -4.10911e-08 3.98305e-08)
(1.93013e-08 -4.67096e-08 4.8164e-08)
(2.22276e-08 -5.24564e-08 5.77825e-08)
(2.55256e-08 -5.81565e-08 6.86849e-08)
(2.91086e-08 -6.35023e-08 8.06436e-08)
(3.26569e-08 -6.79284e-08 9.2939e-08)
(3.53999e-08 -7.04473e-08 1.03781e-07)
(3.61654e-08 -7.02124e-08 1.09683e-07)
(1.29649e-09 -2.97823e-09 2.22487e-09)
(3.6141e-09 -8.34752e-09 6.28507e-09)
(5.74069e-09 -1.33971e-08 1.02426e-08)
(7.74922e-09 -1.83432e-08 1.43403e-08)
(9.70636e-09 -2.33608e-08 1.87941e-08)
(1.16761e-08 -2.85902e-08 2.38041e-08)
(1.37225e-08 -3.41405e-08 2.95621e-08)
(1.59135e-08 -4.00944e-08 3.62543e-08)
(1.83225e-08 -4.65108e-08 4.40613e-08)
(2.10287e-08 -5.34293e-08 5.31494e-08)
(2.41176e-08 -6.08764e-08 6.36564e-08)
(2.76715e-08 -6.88672e-08 7.56436e-08)
(3.17613e-08 -7.73856e-08 8.90186e-08)
(3.63821e-08 -8.6254e-08 1.03267e-07)
(4.12167e-08 -9.46795e-08 1.16765e-07)
(4.48305e-08 -1.00202e-07 1.25364e-07)
(1.41282e-09 -3.1481e-09 2.4235e-09)
(3.93534e-09 -8.82939e-09 6.84214e-09)
(6.24097e-09 -1.41877e-08 1.11364e-08)
(8.40358e-09 -1.94607e-08 1.55618e-08)
(1.04901e-08 -2.48441e-08 2.03435e-08)
(1.25641e-08 -3.05006e-08 2.56884e-08)
(1.46887e-08 -3.65657e-08 3.17917e-08)
(1.69304e-08 -4.31549e-08 3.88411e-08)
(1.93627e-08 -5.03709e-08 4.7017e-08)
(2.207e-08 -5.83148e-08 5.64877e-08)
(2.51548e-08 -6.71039e-08 6.73968e-08)
(2.87522e-08 -7.6903e-08 7.98417e-08)
(3.30574e-08 -8.7974e-08 9.38142e-08)
(3.83649e-08 -1.00721e-07 1.0902e-07)
(4.4952e-08 -1.15471e-07 1.24236e-07)
(5.16991e-08 -1.30041e-07 1.35276e-07)
(1.20413e-10 -2.94015e-10 1.86396e-10)
(3.36316e-10 -8.22162e-10 5.2727e-10)
(5.36427e-10 -1.3134e-09 8.61721e-10)
(7.28676e-10 -1.78533e-09 1.21127e-09)
(9.20556e-10 -2.25032e-09 1.59552e-09)
(1.11903e-09 -2.71444e-09 2.03209e-09)
(1.3314e-09 -3.17673e-09 2.53721e-09)
(1.56585e-09 -3.6268e-09 3.12497e-09)
(1.83293e-09 -4.0419e-09 3.80591e-09)
(2.14781e-09 -4.38105e-09 4.58337e-09)
(2.53664e-09 -4.5773e-09 5.44751e-09)
(3.0508e-09 -4.52234e-09 6.36424e-09)
(3.79542e-09 -4.03783e-09 7.25375e-09)
(4.99196e-09 -2.80616e-09 7.95529e-09)
(6.99439e-09 -2.91677e-10 8.1299e-09)
(9.57804e-09 3.55892e-09 7.19489e-09)
(3.57975e-10 -8.7292e-10 5.54056e-10)
(9.99746e-10 -2.44122e-09 1.56719e-09)
(1.59409e-09 -3.90071e-09 2.56052e-09)
(2.16462e-09 -5.30447e-09 3.59838e-09)
(2.73277e-09 -6.6896e-09 4.73792e-09)
(3.31902e-09 -8.07593e-09 6.03137e-09)
(3.94401e-09 -9.46263e-09 7.52626e-09)
(4.63043e-09 -1.08233e-08 9.26391e-09)
(5.40494e-09 -1.20967e-08 1.12741e-08)
(6.30245e-09 -1.31753e-08 1.35642e-08)
(7.37431e-09 -1.38896e-08 1.6098e-08)
(8.70075e-09 -1.39987e-08 1.87535e-08)
(1.0411e-08 -1.32028e-08 2.12503e-08)
(1.26427e-08 -1.12516e-08 2.29977e-08)
(1.5286e-08 -8.31941e-09 2.29324e-08)
(1.72203e-08 -5.88373e-09 2.02616e-08)
(5.8649e-10 -1.42592e-09 9.07636e-10)
(1.63761e-09 -3.98885e-09 2.56699e-09)
(2.61019e-09 -6.37736e-09 4.19281e-09)
(3.54189e-09 -8.68008e-09 5.8897e-09)
(4.46711e-09 -1.0961e-08 7.75054e-09)
(5.41819e-09 -1.32572e-08 9.86016e-09)
(6.42726e-09 -1.55758e-08 1.22962e-08)
(7.52744e-09 -1.78863e-08 1.51266e-08)
(8.75398e-09 -2.01107e-08 1.84014e-08)
(1.01441e-08 -2.21092e-08 2.21359e-08)
(1.17356e-08 -2.36711e-08 2.62765e-08)
(1.35609e-08 -2.45259e-08 3.06412e-08)
(1.56218e-08 -2.44304e-08 3.48156e-08)
(1.78057e-08 -2.34302e-08 3.80014e-08)
(1.96827e-08 -2.23643e-08 3.8961e-08)
(2.03821e-08 -2.28537e-08 3.70652e-08)
(8.00418e-10 -1.93561e-09 1.23863e-09)
(2.23434e-09 -5.41696e-09 3.50202e-09)
(3.55904e-09 -8.66748e-09 5.71761e-09)
(4.82461e-09 -1.18119e-08 8.02621e-09)
(6.07631e-09 -1.49428e-08 1.05531e-08)
(7.35669e-09 -1.812e-08 1.34127e-08)
(8.70684e-09 -2.13673e-08 1.67105e-08)
(1.01673e-08 -2.46662e-08 2.05398e-08)
(1.1776e-08 -2.7946e-08 2.49726e-08)
(1.35623e-08 -3.10721e-08 3.00382e-08)
(1.55307e-08 -3.38381e-08 3.56822e-08)
(1.76284e-08 -3.59842e-08 4.16959e-08)
(1.96753e-08 -3.72881e-08 4.75961e-08)
(2.12512e-08 -3.78113e-08 5.24664e-08)
(2.16225e-08 -3.82895e-08 5.49136e-08)
(2.03413e-08 -3.98051e-08 5.40668e-08)
(9.95034e-10 -2.38485e-09 1.53936e-09)
(2.77641e-09 -6.67731e-09 4.35111e-09)
(4.41873e-09 -1.06944e-08 7.09923e-09)
(5.9819e-09 -1.45959e-08 9.95619e-09)
(7.52022e-09 -1.85046e-08 1.3075e-08)
(9.08419e-09 -2.2507e-08 1.65955e-08)
(1.07222e-08 -2.66522e-08 2.06472e-08)
(1.24806e-08 -3.09478e-08 2.53464e-08)
(1.43999e-08 -3.53531e-08 3.07872e-08)
(1.65048e-08 -3.9769e-08 3.70186e-08)
(1.87783e-08 -4.40288e-08 4.40019e-08)
(2.11104e-08 -4.78973e-08 5.15332e-08)
(2.31985e-08 -5.10978e-08 5.91121e-08)
(2.43999e-08 -5.3405e-08 6.57529e-08)
(2.37083e-08 -5.48533e-08 6.98715e-08)
(2.08554e-08 -5.58821e-08 7.01519e-08)
(1.16655e-09 -2.75687e-09 1.80404e-09)
(3.25328e-09 -7.72304e-09 5.09701e-09)
(5.17187e-09 -1.23823e-08 8.30907e-09)
(6.98982e-09 -1.69275e-08 1.16383e-08)
(8.76774e-09 -2.15107e-08 1.52597e-08)
(1.05621e-08 -2.62472e-08 1.93331e-08)
(1.24269e-08 -3.12164e-08 2.40065e-08)
(1.44139e-08 -3.64614e-08 2.94147e-08)
(1.65699e-08 -4.19867e-08 3.56707e-08)
(1.89268e-08 -4.77526e-08 4.28448e-08)
(2.14787e-08 -5.36669e-08 5.0923e-08)
(2.41331e-08 -5.95664e-08 5.97286e-08)
(2.66175e-08 -6.51744e-08 6.87909e-08)
(2.8311e-08 -6.99867e-08 7.71083e-08)
(2.813e-08 -7.31134e-08 8.29414e-08)
(2.54373e-08 -7.36041e-08 8.44784e-08)
(1.31236e-09 -3.03618e-09 2.0283e-09)
(3.65743e-09 -8.51031e-09 5.72764e-09)
(5.80678e-09 -1.36599e-08 9.32721e-09)
(7.8322e-09 -1.87062e-08 1.30439e-08)
(9.79821e-09 -2.38277e-08 1.70681e-08)
(1.17646e-08 -2.91669e-08 2.15729e-08)
(1.37888e-08 -3.48333e-08 2.67181e-08)
(1.59271e-08 -4.09074e-08 3.26493e-08)
(1.82339e-08 -4.74427e-08 3.94911e-08)
(2.07578e-08 -5.44681e-08 4.73288e-08)
(2.35275e-08 -6.1988e-08 5.61671e-08)
(2.65358e-08 -6.99791e-08 6.58702e-08)
(2.968e-08 -7.83471e-08 7.60035e-08)
(3.26762e-08 -8.67795e-08 8.55905e-08)
(3.48976e-08 -9.43149e-08 9.27551e-08)
(3.54148e-08 -9.86144e-08 9.51612e-08)
(1.43091e-09 -3.20914e-09 2.2098e-09)
(3.98509e-09 -9.00088e-09 6.23648e-09)
(6.31754e-09 -1.44646e-08 1.01432e-08)
(8.5016e-09 -1.9843e-08 1.41584e-08)
(1.06025e-08 -2.53354e-08 1.8481e-08)
(1.26804e-08 -3.11059e-08 2.32898e-08)
(1.47932e-08 -3.72891e-08 2.87482e-08)
(1.69982e-08 -4.39958e-08 3.50031e-08)
(1.93537e-08 -5.13184e-08 4.21793e-08)
(2.19194e-08 -5.93375e-08 5.03618e-08)
(2.4755e-08 -6.81323e-08 5.95632e-08)
(2.79185e-08 -7.77944e-08 6.96575e-08)
(3.14607e-08 -8.84423e-08 8.02471e-08)
(3.54168e-08 -1.00205e-07 9.03842e-08)
(3.97394e-08 -1.12991e-07 9.80906e-08)
(4.36578e-08 -1.24684e-07 1.00386e-07)
(1.21128e-10 -2.9888e-10 1.6172e-10)
(3.38144e-10 -8.35861e-10 4.57336e-10)
(5.38657e-10 -1.33558e-09 7.46717e-10)
(7.3028e-10 -1.81619e-09 1.04848e-09)
(9.19698e-10 -2.29054e-09 1.37863e-09)
(1.11282e-09 -2.76545e-09 1.75157e-09)
(1.31507e-09 -3.24113e-09 2.17969e-09)
(1.53163e-09 -3.70952e-09 2.67251e-09)
(1.76775e-09 -4.15232e-09 3.23465e-09)
(2.02946e-09 -4.53757e-09 3.86166e-09)
(2.32598e-09 -4.8166e-09 4.53288e-09)
(2.6759e-09 -4.91844e-09 5.19951e-09)
(3.12434e-09 -4.73811e-09 5.77073e-09)
(3.76744e-09 -4.09779e-09 6.09245e-09)
(4.76545e-09 -2.66083e-09 5.96482e-09)
(5.97975e-09 -2.05599e-10 5.2806e-09)
(3.60159e-10 -8.87318e-10 4.80742e-10)
(1.00527e-09 -2.48173e-09 1.35922e-09)
(1.60109e-09 -3.96633e-09 2.21914e-09)
(2.16988e-09 -5.39558e-09 3.1148e-09)
(2.73113e-09 -6.80815e-09 4.09406e-09)
(3.30214e-09 -8.22574e-09 5.19914e-09)
(3.89839e-09 -9.65078e-09 6.46645e-09)
(4.53402e-09 -1.10627e-08 7.924e-09)
(5.22128e-09 -1.24118e-08 9.58485e-09)
(5.97047e-09 -1.36128e-08 1.14348e-08)
(6.78984e-09 -1.45395e-08 1.341e-08)
(7.68971e-09 -1.50291e-08 1.53623e-08)
(8.67894e-09 -1.49087e-08 1.70002e-08)
(9.74813e-09 -1.40637e-08 1.7837e-08)
(1.07595e-08 -1.25842e-08 1.72458e-08)
(1.12578e-08 -1.10885e-08 1.52842e-08)
(5.90231e-10 -1.4493e-09 7.87607e-10)
(1.64721e-09 -4.05469e-09 2.22649e-09)
(2.62262e-09 -6.4838e-09 3.634e-09)
(3.55222e-09 -8.82761e-09 5.09866e-09)
(4.46736e-09 -1.11522e-08 6.69803e-09)
(5.39566e-09 -1.34975e-08 8.50092e-09)
(6.36152e-09 -1.58746e-08 1.0567e-08)
(7.38545e-09 -1.82602e-08 1.2943e-08)
(8.48197e-09 -2.05904e-08 1.56525e-08)
(9.65396e-09 -2.27519e-08 1.86775e-08)
(1.08842e-08 -2.45832e-08 2.19262e-08)
(1.21187e-08 -2.58967e-08 2.51823e-08)
(1.32404e-08 -2.65631e-08 2.80401e-08)
(1.40322e-08 -2.66959e-08 2.98687e-08)
(1.41834e-08 -2.68965e-08 3.00026e-08)
(1.36332e-08 -2.79252e-08 2.87307e-08)
(8.05862e-10 -1.96718e-09 1.07479e-09)
(2.24848e-09 -5.50566e-09 3.03795e-09)
(3.57797e-09 -8.81075e-09 4.95615e-09)
(4.84202e-09 -1.20099e-08 6.94912e-09)
(6.08233e-09 -1.51982e-08 9.12146e-09)
(7.33566e-09 -1.84384e-08 1.15662e-08)
(8.63391e-09 -2.17578e-08 1.43648e-08)
(1.00027e-08 -2.51442e-08 1.75822e-08)
(1.14562e-08 -2.85381e-08 2.12553e-08)
(1.29857e-08 -3.18268e-08 2.53704e-08)
(1.45379e-08 -3.48426e-08 2.98248e-08)
(1.59761e-08 -3.73888e-08 3.43706e-08)
(1.702e-08 -3.93222e-08 3.85484e-08)
(1.71972e-08 -4.07322e-08 4.16676e-08)
(1.59828e-08 -4.21388e-08 4.30259e-08)
(1.37455e-08 -4.40018e-08 4.27744e-08)
(1.00233e-09 -2.42343e-09 1.33603e-09)
(2.79562e-09 -6.78574e-09 3.77496e-09)
(4.44521e-09 -1.08692e-08 6.15466e-09)
(6.00864e-09 -1.48368e-08 8.62158e-09)
(7.53629e-09 -1.88137e-08 1.13036e-08)
(9.07261e-09 -2.28889e-08 1.43147e-08)
(1.06563e-08 -2.71134e-08 1.77551e-08)
(1.23181e-08 -3.14979e-08 2.17071e-08)
(1.40748e-08 -3.60066e-08 2.62217e-08)
(1.59133e-08 -4.05502e-08 3.12952e-08)
(1.77621e-08 -4.49795e-08 3.68282e-08)
(1.94359e-08 -4.90872e-08 4.25653e-08)
(2.05501e-08 -5.26288e-08 4.80263e-08)
(2.04397e-08 -5.53772e-08 5.24792e-08)
(1.83329e-08 -5.72302e-08 5.51367e-08)
(1.47269e-08 -5.82841e-08 5.58864e-08)
(1.17582e-09 -2.80116e-09 1.56595e-09)
(3.27787e-09 -7.84734e-09 4.42279e-09)
(5.20688e-09 -1.25824e-08 7.20481e-09)
(7.02787e-09 -1.72024e-08 1.00803e-08)
(8.79778e-09 -2.18618e-08 1.31956e-08)
(1.05672e-08 -2.66772e-08 1.66812e-08)
(1.23808e-08 -3.17278e-08 2.06523e-08)
(1.42757e-08 -3.70555e-08 2.52046e-08)
(1.62764e-08 -4.26613e-08 3.04021e-08)
(1.83807e-08 -4.85003e-08 3.62516e-08)
(2.05334e-08 -5.44704e-08 4.26629e-08)
(2.25785e-08 -6.03932e-08 4.93869e-08)
(2.41695e-08 -6.59581e-08 5.59263e-08)
(2.46731e-08 -7.06042e-08 6.15051e-08)
(2.32272e-08 -7.33526e-08 6.52155e-08)
(1.99015e-08 -7.32499e-08 6.67159e-08)
(1.32361e-09 -3.08459e-09 1.76097e-09)
(3.68764e-09 -8.64614e-09 4.97089e-09)
(5.85085e-09 -1.38783e-08 8.08922e-09)
(7.88294e-09 -1.90056e-08 1.13002e-08)
(9.84508e-09 -2.42086e-08 1.47635e-08)
(1.17918e-08 -2.96298e-08 1.86206e-08)
(1.37722e-08 -3.53766e-08 2.2996e-08)
(1.58297e-08 -4.15237e-08 2.79935e-08)
(1.79993e-08 -4.81137e-08 3.36843e-08)
(2.02995e-08 -5.51552e-08 4.00822e-08)
(2.27203e-08 -6.26193e-08 4.71065e-08)
(2.51924e-08 -7.042e-08 5.45007e-08)
(2.75532e-08 -7.83627e-08 6.17577e-08)
(2.94964e-08 -8.59831e-08 6.80099e-08)
(3.05813e-08 -9.21833e-08 7.21361e-08)
(3.05256e-08 -9.49227e-08 7.3581e-08)
(1.44412e-09 -3.25999e-09 1.91885e-09)
(4.02081e-09 -9.14355e-09 5.41352e-09)
(6.37077e-09 -1.46939e-08 8.79878e-09)
(8.56554e-09 -2.01569e-08 1.22689e-08)
(1.06676e-08 -2.57335e-08 1.59907e-08)
(1.27327e-08 -3.15871e-08 2.01109e-08)
(1.48117e-08 -3.78484e-08 2.47569e-08)
(1.69512e-08 -4.46191e-08 3.00337e-08)
(1.91933e-08 -5.19753e-08 3.60118e-08)
(2.1574e-08 -5.99681e-08 4.27047e-08)
(2.41185e-08 -6.86264e-08 5.00264e-08)
(2.6836e-08 -7.79552e-08 5.77222e-08)
(2.97165e-08 -8.79292e-08 6.52556e-08)
(3.27563e-08 -9.84645e-08 7.16649e-08)
(3.60046e-08 -1.09254e-07 7.55084e-08)
(3.92331e-08 -1.18607e-07 7.57619e-08)
(1.2148e-10 -3.02788e-10 1.31555e-10)
(3.38905e-10 -8.46845e-10 3.71831e-10)
(5.39223e-10 -1.35335e-09 6.06876e-10)
(7.29583e-10 -1.84096e-09 8.5107e-10)
(9.15901e-10 -2.32275e-09 1.11732e-09)
(1.10308e-09 -2.80631e-09 1.4164e-09)
(1.29476e-09 -3.29253e-09 1.75714e-09)
(1.49365e-09 -3.77542e-09 2.1455e-09)
(1.70069e-09 -4.23937e-09 2.58225e-09)
(1.91561e-09 -4.65869e-09 3.05992e-09)
(2.13744e-09 -4.99423e-09 3.55692e-09)
(2.3702e-09 -5.19192e-09 4.03175e-09)
(2.63422e-09 -5.17178e-09 4.41622e-09)
(2.99703e-09 -4.78743e-09 4.63303e-09)
(3.5951e-09 -3.72193e-09 4.64575e-09)
(4.39967e-09 -1.65731e-09 4.5237e-09)
(3.61248e-10 -8.98874e-10 3.91044e-10)
(1.00777e-09 -2.51425e-09 1.1054e-09)
(1.60318e-09 -4.01899e-09 1.80337e-09)
(2.16836e-09 -5.46861e-09 2.52862e-09)
(2.72095e-09 -6.90316e-09 3.31836e-09)
(3.27491e-09 -8.34549e-09 4.20466e-09)
(3.8412e-09 -9.80075e-09 5.21366e-09)
(4.42638e-09 -1.12523e-08 6.36254e-09)
(5.03174e-09 -1.26589e-08 7.65387e-09)
(5.65026e-09 -1.39484e-08 9.06467e-09)
(6.26664e-09 -1.50183e-08 1.05311e-08)
(6.85773e-09 -1.57379e-08 1.19245e-08)
(7.40465e-09 -1.5965e-08 1.30366e-08)
(7.90627e-09 -1.55663e-08 1.35796e-08)
(8.37496e-09 -1.44583e-08 1.33071e-08)
(8.72574e-09 -1.29167e-08 1.24355e-08)
(5.9221e-10 -1.46809e-09 6.40709e-10)
(1.65191e-09 -4.10752e-09 1.81082e-09)
(2.6271e-09 -6.56915e-09 2.95353e-09)
(3.5516e-09 -8.94572e-09 4.13955e-09)
(4.45352e-09 -1.13047e-08 5.42956e-09)
(5.35602e-09 -1.36882e-08 6.87591e-09)
(6.27626e-09 -1.61101e-08 8.52144e-09)
(7.22428e-09 -1.85525e-08 1.03955e-08)
(8.19821e-09 -2.09599e-08 1.25042e-08)
(9.17857e-09 -2.32352e-08 1.48158e-08)
(1.01177e-08 -2.52401e-08 1.72363e-08)
(1.09302e-08 -2.68166e-08 1.95816e-08)
(1.14882e-08 -2.78474e-08 2.15592e-08)
(1.16476e-08 -2.83763e-08 2.28058e-08)
(1.13639e-08 -2.87562e-08 2.30959e-08)
(1.09601e-08 -2.94648e-08 2.28119e-08)
(8.08949e-10 -1.9925e-09 8.74544e-10)
(2.25599e-09 -5.57681e-09 2.47095e-09)
(3.58616e-09 -8.92542e-09 4.0286e-09)
(4.84448e-09 -1.21678e-08 5.64268e-09)
(6.06911e-09 -1.54009e-08 7.39523e-09)
(7.29104e-09 -1.8689e-08 9.35709e-09)
(8.5339e-09 -2.2062e-08 1.15871e-08)
(9.81048e-09 -2.55109e-08 1.41265e-08)
(1.11171e-08 -2.89831e-08 1.69885e-08)
(1.24206e-08 -3.23753e-08 2.0139e-08)
(1.36391e-08 -3.55353e-08 2.34693e-08)
(1.46131e-08 -3.82801e-08 2.67668e-08)
(1.50779e-08 -4.04578e-08 2.97016e-08)
(1.46868e-08 -4.2076e-08 3.18858e-08)
(1.32403e-08 -4.34498e-08 3.30988e-08)
(1.14331e-08 -4.49067e-08 3.36058e-08)
(1.00671e-09 -2.45436e-09 1.08716e-09)
(2.80658e-09 -6.87249e-09 3.0709e-09)
(4.45835e-09 -1.10086e-08 5.00357e-09)
(6.01682e-09 -1.50279e-08 7.0019e-09)
(7.52821e-09 -1.90571e-08 9.16618e-09)
(9.03122e-09 -2.31862e-08 1.15834e-08)
(1.05554e-08 -2.74668e-08 1.43263e-08)
(1.2119e-08 -3.19101e-08 1.74478e-08)
(1.37201e-08 -3.64803e-08 2.09689e-08)
(1.53233e-08 -4.10887e-08 2.48584e-08)
(1.68325e-08 -4.55846e-08 2.90031e-08)
(1.80506e-08 -4.97529e-08 3.31771e-08)
(1.86276e-08 -5.33198e-08 3.70282e-08)
(1.80531e-08 -5.59845e-08 4.01472e-08)
(1.58974e-08 -5.75258e-08 4.22795e-08)
(1.2921e-08 -5.80636e-08 4.35224e-08)
(1.18167e-09 -2.83655e-09 1.27449e-09)
(3.29287e-09 -7.94655e-09 3.59848e-09)
(5.22627e-09 -1.27414e-08 5.85834e-09)
(7.04404e-09 -1.74194e-08 8.18811e-09)
(8.79939e-09 -2.21363e-08 1.07029e-08)
(1.05369e-08 -2.70083e-08 1.35023e-08)
(1.22927e-08 -3.21132e-08 1.66702e-08)
(1.40916e-08 -3.74888e-08 2.02687e-08)
(1.59416e-08 -4.31294e-08 2.43256e-08)
(1.78203e-08 -4.89778e-08 2.88139e-08)
(1.96539e-08 -5.4912e-08 3.36194e-08)
(2.12789e-08 -6.07179e-08 3.85e-08)
(2.23953e-08 -6.60326e-08 4.30809e-08)
(2.25268e-08 -7.02247e-08 4.68983e-08)
(2.11427e-08 -7.22882e-08 4.96284e-08)
(1.85373e-08 -7.14978e-08 5.12908e-08)
(1.33101e-09 -3.12319e-09 1.43338e-09)
(3.70703e-09 -8.75423e-09 4.04513e-09)
(5.87729e-09 -1.40513e-08 6.57869e-09)
(7.90906e-09 -1.92408e-08 9.18104e-09)
(9.85973e-09 -2.45041e-08 1.19778e-08)
(1.17787e-08 -2.99824e-08 1.50772e-08)
(1.37071e-08 -3.57791e-08 1.85701e-08)
(1.56775e-08 -4.19612e-08 2.25239e-08)
(1.77105e-08 -4.85572e-08 2.69703e-08)
(1.98082e-08 -5.55528e-08 3.1884e-08)
(2.19429e-08 -6.28797e-08 3.71421e-08)
(2.40462e-08 -7.03951e-08 4.24934e-08)
(2.59931e-08 -7.78205e-08 4.75059e-08)
(2.762e-08 -8.46099e-08 5.16122e-08)
(2.87808e-08 -8.96946e-08 5.4325e-08)
(2.93917e-08 -9.14715e-08 5.56756e-08)
(1.45312e-09 -3.30043e-09 1.56218e-09)
(4.04474e-09 -9.25676e-09 4.40609e-09)
(6.4048e-09 -1.48748e-08 7.15708e-09)
(8.60257e-09 -2.04023e-08 9.97032e-09)
(1.06975e-08 -2.60404e-08 1.29772e-08)
(1.27408e-08 -3.19502e-08 1.62903e-08)
(1.47765e-08 -3.82568e-08 2.00026e-08)
(1.68419e-08 -4.50514e-08 2.41822e-08)
(1.89674e-08 -5.2391e-08 2.88597e-08)
(2.11745e-08 -6.02963e-08 3.40054e-08)
(2.34756e-08 -6.87476e-08 3.9493e-08)
(2.58763e-08 -7.76776e-08 4.5047e-08)
(2.83962e-08 -8.69646e-08 5.01893e-08)
(3.11389e-08 -9.64328e-08 5.42167e-08)
(3.43944e-08 -1.05824e-07 5.63624e-08)
(3.81274e-08 -1.13973e-07 5.64638e-08)
(1.21577e-10 -3.05689e-10 9.70413e-11)
(3.39024e-10 -8.55021e-10 2.74318e-10)
(5.38842e-10 -1.36662e-09 4.47268e-10)
(7.27646e-10 -1.8592e-09 6.26831e-10)
(9.11208e-10 -2.34684e-09 8.21881e-10)
(1.09301e-09 -2.8367e-09 1.03996e-09)
(1.2756e-09 -3.33063e-09 1.28688e-09)
(1.45972e-09 -3.82342e-09 1.56598e-09)
(1.64386e-09 -4.30151e-09 1.87649e-09)
(1.82417e-09 -4.74154e-09 2.21127e-09)
(1.99596e-09 -5.10837e-09 2.55359e-09)
(2.15935e-09 -5.35169e-09 2.87443e-09)
(2.33528e-09 -5.39365e-09 3.13767e-09)
(2.59577e-09 -5.08161e-09 3.31289e-09)
(3.09404e-09 -4.08523e-09 3.42878e-09)
(3.83427e-09 -2.06438e-09 3.54665e-09)
(3.61633e-10 -9.07508e-10 2.88551e-10)
(1.00835e-09 -2.53855e-09 8.15287e-10)
(1.6023e-09 -4.05812e-09 1.32946e-09)
(2.1638e-09 -5.52342e-09 1.86251e-09)
(2.70773e-09 -6.97386e-09 2.44105e-09)
(3.24625e-09 -8.43425e-09 3.08738e-09)
(3.78633e-09 -9.91078e-09 3.81863e-09)
(4.32956e-09 -1.13897e-08 4.64454e-09)
(4.86994e-09 -1.28333e-08 5.56286e-09)
(5.39201e-09 -1.41762e-08 6.55217e-09)
(5.87142e-09 -1.53227e-08 7.56219e-09)
(6.28289e-09 -1.61471e-08 8.50687e-09)
(6.62151e-09 -1.64954e-08 9.25856e-09)
(6.94173e-09 -1.61831e-08 9.67607e-09)
(7.37158e-09 -1.50168e-08 9.66835e-09)
(7.90356e-09 -1.32221e-08 9.34175e-09)
(5.93042e-10 -1.48214e-09 4.72786e-10)
(1.65341e-09 -4.14701e-09 1.33569e-09)
(2.62707e-09 -6.6331e-09 2.17754e-09)
(3.5453e-09 -9.03358e-09 3.04931e-09)
(4.43455e-09 -1.14181e-08 3.9945e-09)
(5.31337e-09 -1.3829e-08 5.04938e-09)
(6.19381e-09 -1.62821e-08 6.24232e-09)
(7.0782e-09 -1.87623e-08 7.59002e-09)
(7.955e-09 -2.1218e-08 9.09059e-09)
(8.79338e-09 -2.35577e-08 1.0713e-08)
(9.53763e-09 -2.56486e-08 1.23836e-08)
(1.01072e-08 -2.73303e-08 1.39758e-08)
(1.04136e-08 -2.84554e-08 1.53123e-08)
(1.04194e-08 -2.89837e-08 1.62118e-08)
(1.02556e-08 -2.91279e-08 1.66072e-08)
(1.02679e-08 -2.93786e-08 1.66936e-08)
(8.10435e-10 -2.01148e-09 6.45269e-10)
(2.25914e-09 -5.63005e-09 1.82292e-09)
(3.58766e-09 -9.01092e-09 2.97045e-09)
(4.83927e-09 -1.22854e-08 4.1571e-09)
(6.04791e-09 -1.55506e-08 5.44133e-09)
(7.24076e-09 -1.88724e-08 6.87256e-09)
(8.43464e-09 -2.22814e-08 8.48974e-09)
(9.63376e-09 -2.577e-08 1.03169e-08)
(1.08234e-08 -2.92867e-08 1.23548e-08)
(1.19596e-08 -3.27298e-08 1.45679e-08)
(1.29559e-08 -3.5945e-08 1.68695e-08)
(1.36688e-08 -3.87368e-08 1.9111e-08)
(1.38977e-08 -4.09147e-08 2.10912e-08)
(1.3439e-08 -4.23995e-08 2.26184e-08)
(1.22939e-08 -4.33984e-08 2.36298e-08)
(1.11042e-08 -4.43298e-08 2.42255e-08)
(1.00902e-09 -2.47747e-09 8.02332e-10)
(2.81198e-09 -6.93735e-09 2.26578e-09)
(4.46317e-09 -1.11126e-08 3.68988e-09)
(6.01434e-09 -1.51694e-08 5.15917e-09)
(7.50919e-09 -1.92361e-08 6.74548e-09)
(8.98074e-09 -2.34021e-08 8.50943e-09)
(1.04521e-08 -2.77187e-08 1.04994e-08)
(1.19321e-08 -3.21955e-08 1.27464e-08)
(1.34088e-08 -3.67938e-08 1.5255e-08)
(1.48375e-08 -4.14185e-08 1.79887e-08)
(1.61222e-08 -4.59077e-08 2.08539e-08)
(1.70912e-08 -5.00233e-08 2.36874e-08)
(1.74738e-08 -5.34481e-08 2.62708e-08)
(1.6923e-08 -5.58178e-08 2.83985e-08)
(1.52137e-08 -5.68644e-08 2.99903e-08)
(1.29948e-08 -5.68635e-08 3.10411e-08)
(1.18506e-09 -2.86302e-09 9.40683e-10)
(3.30106e-09 -8.02055e-09 2.65544e-09)
(5.23511e-09 -1.28595e-08 4.32085e-09)
(7.04728e-09 -1.75798e-08 6.03421e-09)
(8.78646e-09 -2.23367e-08 7.87784e-09)
(1.04931e-08 -2.72463e-08 9.92146e-09)
(1.21965e-08 -3.23836e-08 1.22208e-08)
(1.39131e-08 -3.77817e-08 1.48125e-08)
(1.56413e-08 -4.3426e-08 1.77045e-08)
(1.73519e-08 -4.92451e-08 2.08597e-08)
(1.8974e-08 -5.50943e-08 2.41774e-08)
(2.03755e-08 -6.07267e-08 2.74796e-08)
(2.13393e-08 -6.57349e-08 3.05178e-08)
(2.15544e-08 -6.9452e-08 3.3047e-08)
(2.06875e-08 -7.09036e-08 3.49509e-08)
(1.88958e-08 -6.96041e-08 3.62132e-08)
(1.33551e-09 -3.15197e-09 1.05816e-09)
(3.71848e-09 -8.83467e-09 2.98546e-09)
(5.89155e-09 -1.41795e-08 4.8529e-09)
(7.91919e-09 -1.94136e-08 6.76711e-09)
(9.85635e-09 -2.47186e-08 8.81813e-09)
(1.17474e-08 -3.02335e-08 1.10818e-08)
(1.36276e-08 -3.60575e-08 1.36185e-08)
(1.55221e-08 -4.22494e-08 1.64681e-08)
(1.74432e-08 -4.88241e-08 1.96397e-08)
(1.93876e-08 -5.57453e-08 2.30935e-08)
(2.13335e-08 -6.29136e-08 2.67225e-08)
(2.32394e-08 -7.01414e-08 3.03229e-08)
(2.50609e-08 -7.7106e-08 3.36008e-08)
(2.67839e-08 -8.32457e-08 3.62247e-08)
(2.84399e-08 -8.75888e-08 3.79834e-08)
(2.98059e-08 -8.88612e-08 3.89527e-08)