/*--------------------------------*- C++ -*----------------------------------*\
| =========                 |                                                 |
| \\      /  F ield         | OpenFOAM: The Open Source CFD Toolbox           |
|  \\    /   O peration     | Version:  v1912                                 |
|   \\  /    A nd           | Website:  www.openfoam.com                      |
|    \\/     M anipulation  |                                                 |
\*---------------------------------------------------------------------------*/
FoamFile
{
    version     2.0;
    format      ascii;
    class       surfaceScalarField;
    location    "0.85/fluid";
    object      meshPhi;
}
// * * * * * * * * * * * * * * * * * * * * * * * * * * * * * * * * * * * * * //

dimensions      [0 3 -1 0 0 0 0];
oriented        oriented;


internalField   nonuniform List<scalar> 
41600
(
1.38199e-13
-3.72806e-13
1.40416e-13
-1.45054e-13
2.6433e-13
-1.08591e-12
4.13924e-13
-4.27816e-13
3.83845e-13
-1.74734e-12
6.823e-13
-7.05866e-13
5.01806e-13
-2.38011e-12
9.63442e-13
-9.98046e-13
6.2322e-13
-2.99962e-12
1.27352e-12
-1.32151e-12
7.53511e-13
-3.61251e-12
1.62774e-12
-1.69262e-12
8.99232e-13
-4.2145e-12
2.04079e-12
-2.1276e-12
1.06917e-12
-4.78633e-12
2.52697e-12
-2.6429e-12
1.27633e-12
-5.28649e-12
3.09994e-12
-3.25539e-12
1.54202e-12
-5.63827e-12
3.77217e-12
-3.98287e-12
1.90438e-12
-5.70674e-12
4.55457e-12
-4.84588e-12
2.43672e-12
-5.25491e-12
5.45803e-12
-5.87477e-12
3.28089e-12
-3.85979e-12
6.50004e-12
-7.13026e-12
4.67792e-12
-7.87149e-13
7.71228e-12
-8.74748e-12
6.69865e-12
4.68676e-12
9.06642e-12
-1.08603e-11
1.35939e-11
1.13497e-11
-1.6302e-11
4.10943e-13
-7.34626e-13
4.17572e-13
-4.31367e-13
7.85856e-13
-2.1403e-12
1.23085e-12
-1.27216e-12
1.14076e-12
-3.44551e-12
2.02857e-12
-2.0986e-12
1.49045e-12
-4.69659e-12
2.86372e-12
-2.96649e-12
1.84956e-12
-5.92536e-12
3.78417e-12
-3.92656e-12
2.2338e-12
-7.14747e-12
4.83489e-12
-5.02723e-12
2.66181e-12
-8.35881e-12
6.05929e-12
-6.31637e-12
3.1579e-12
-9.52886e-12
7.49952e-12
-7.84229e-12
3.7567e-12
-1.05892e-11
9.19543e-12
-9.65399e-12
4.51199e-12
-1.1415e-11
1.1182e-11
-1.18011e-11
5.514e-12
-1.17968e-11
1.34855e-11
-1.43355e-11
6.92268e-12
-1.14034e-11
1.61198e-11
-1.73195e-11
9.01542e-12
-9.75481e-12
1.90847e-11
-2.08509e-11
1.2184e-11
-6.30418e-12
2.23493e-11
-2.51032e-11
1.63093e-11
-1.10674e-12
2.56819e-11
-3.00722e-11
5.10848e-12
2.82443e-11
-3.6216e-11
6.72987e-13
-1.07467e-12
6.84017e-13
-7.06605e-13
1.28649e-12
-3.13211e-12
2.01593e-12
-2.08352e-12
1.86616e-12
-5.04582e-12
3.32139e-12
-3.43591e-12
2.43557e-12
-6.88596e-12
4.68658e-12
-4.85441e-12
3.01789e-12
-8.70261e-12
6.18915e-12
-6.42137e-12
3.63765e-12
-1.05244e-11
7.90215e-12
-8.21534e-12
4.32313e-12
-1.23547e-11
9.89605e-12
-1.03138e-11
5.10954e-12
-1.41647e-11
1.22392e-11
-1.27947e-11
6.04371e-12
-1.58811e-11
1.49959e-11
-1.57362e-11
7.19158e-12
-1.73685e-11
1.82207e-11
-1.92139e-11
8.65074e-12
-1.84058e-11
2.1948e-11
-2.32971e-11
1.05691e-11
-1.86663e-11
2.61748e-11
-2.80433e-11
1.31543e-11
-1.77374e-11
3.08311e-11
-3.34907e-11
1.65946e-11
-1.52796e-11
3.57194e-11
-3.96288e-11
2.04563e-11
-1.15973e-11
4.03282e-11
-4.60389e-11
-7.51343e-12
4.39865e-11
-5.36812e-11
9.17868e-13
-1.38189e-12
9.33293e-13
-9.64062e-13
1.7536e-12
-4.02931e-12
2.74993e-12
-2.84196e-12
2.54113e-12
-6.49724e-12
4.52852e-12
-4.68428e-12
3.31142e-12
-8.87987e-12
6.38531e-12
-6.61324e-12
4.09467e-12
-1.12473e-11
8.42491e-12
-8.73971e-12
4.92232e-12
-1.36451e-11
1.07456e-11
-1.11693e-11
5.8295e-12
-1.60919e-11
1.34426e-11
-1.40062e-11
6.85776e-12
-1.85738e-11
1.66082e-11
-1.73552e-11
8.05813e-12
-2.10347e-11
2.033e-11
-2.13207e-11
9.49395e-12
-2.33616e-11
2.46828e-11
-2.60026e-11
1.1243e-11
-2.53659e-11
2.97122e-11
-3.14855e-11
1.33949e-11
-2.67667e-11
3.54056e-11
-3.78193e-11
1.60276e-11
-2.71978e-11
4.16392e-11
-4.49825e-11
1.91183e-11
-2.63026e-11
4.8081e-11
-5.28067e-11
2.2163e-11
-2.41269e-11
5.39807e-11
-6.05788e-11
-2.10089e-11
5.83417e-11
-6.89208e-11
1.14002e-12
-1.6454e-12
1.15972e-12
-1.19786e-12
2.17636e-12
-4.8001e-12
3.41595e-12
-3.52994e-12
3.1495e-12
-7.74835e-12
5.62153e-12
-5.8142e-12
4.0962e-12
-1.06077e-11
7.91864e-12
-8.20011e-12
5.05192e-12
-1.34688e-11
1.0435e-11
-1.08229e-11
6.05305e-12
-1.63972e-11
1.32903e-11
-1.38111e-11
7.13914e-12
-1.94327e-11
1.66007e-11
-1.72914e-11
8.35517e-12
-2.25864e-11
2.04798e-11
-2.13915e-11
9.75292e-12
-2.58358e-11
2.5037e-11
-2.62399e-11
1.13901e-11
-2.91155e-11
3.03689e-11
-3.19607e-11
1.3325e-11
-3.23034e-11
3.65421e-11
-3.86608e-11
1.56003e-11
-3.51994e-11
4.35582e-11
-4.64035e-11
1.82012e-11
-3.74924e-11
5.12841e-11
-5.51523e-11
2.09668e-11
-3.87229e-11
5.93115e-11
-6.46506e-11
2.3356e-11
-3.84283e-11
6.66521e-11
-7.39215e-11
-3.59973e-11
7.19414e-11
-8.32247e-11
1.33513e-12
-1.8548e-12
1.35877e-12
-1.40329e-12
2.54638e-12
-5.41394e-12
4.0005e-12
-4.13347e-12
3.67895e-12
-8.74918e-12
6.57773e-12
-6.80219e-12
4.77351e-12
-1.19992e-11
9.25363e-12
-9.5809e-12
5.86902e-12
-1.52746e-11
1.21741e-11
-1.2624e-11
7.00484e-12
-1.86611e-11
1.54757e-11
-1.60779e-11
8.22301e-12
-2.22217e-11
1.92905e-11
-2.00862e-11
9.57037e-12
-2.59976e-11
2.37487e-11
-2.47945e-11
1.10996e-11
-3.00076e-11
2.89777e-11
-3.03505e-11
1.28681e-11
-3.42473e-11
3.50961e-11
-3.69013e-11
1.49328e-11
-3.86855e-11
4.21996e-11
-4.45839e-11
1.73359e-11
-4.32526e-11
5.0331e-11
-5.35031e-11
2.00673e-11
-4.78014e-11
5.94114e-11
-6.36766e-11
2.29771e-11
-5.19929e-11
6.90726e-11
-7.4892e-11
2.55059e-11
-5.50843e-11
7.8203e-11
-8.60409e-11
-5.52232e-11
8.5144e-11
-9.72606e-11
1.50025e-12
-2.00066e-12
1.52724e-12
-1.57706e-12
2.85812e-12
-5.84311e-12
4.4941e-12
-4.6428e-12
4.12149e-12
-9.45397e-12
7.38134e-12
-7.63195e-12
5.3331e-12
-1.29894e-11
1.03675e-11
-1.07321e-11
6.53343e-12
-1.65767e-11
1.36112e-11
-1.4111e-11
7.76287e-12
-2.03195e-11
1.72601e-11
-1.79265e-11
9.06404e-12
-2.43022e-11
2.1456e-11
-2.23329e-11
1.04841e-11
-2.85933e-11
2.63386e-11
-2.74856e-11
1.20768e-11
-3.32498e-11
3.20463e-11
-3.35437e-11
1.39033e-11
-3.83231e-11
3.87129e-11
-4.06697e-11
1.60337e-11
-4.38682e-11
4.64598e-11
-4.90266e-11
1.8547e-11
-4.99564e-11
5.53793e-11
-5.87698e-11
2.15206e-11
-5.66816e-11
6.54876e-11
-7.00157e-11
2.49726e-11
-6.41089e-11
7.65727e-11
-8.27247e-11
2.84397e-11
-7.18035e-11
8.76061e-11
-9.58782e-11
-7.93793e-11
9.68393e-11
-1.09996e-10
1.63395e-12
1.66341e-12
-1.7174e-12
-2.07513e-12
3.10909e-12
4.89185e-12
-5.05286e-12
-6.06455e-12
4.47392e-12
8.02451e-12
-8.29541e-12
-9.82456e-12
5.77132e-12
1.12494e-11
-1.16424e-11
-1.35233e-11
7.04137e-12
1.47319e-11
-1.52689e-11
-1.73e-11
8.32344e-12
1.86244e-11
-1.93376e-11
-2.12716e-11
9.65845e-12
2.30714e-11
-2.40053e-11
-2.55377e-11
1.10914e-11
2.82135e-11
-2.94281e-11
-3.01862e-11
1.26737e-11
3.41887e-11
-3.57643e-11
-3.52983e-11
1.44668e-11
4.11309e-11
-4.31754e-11
-4.09564e-11
1.65474e-11
4.91664e-11
-5.18274e-11
-4.72564e-11
1.90168e-11
5.84058e-11
-6.18918e-11
-5.43244e-11
2.20082e-11
6.89179e-11
-7.35364e-11
-6.23351e-11
2.5648e-11
8.06182e-11
-8.68543e-11
-7.14891e-11
2.95086e-11
9.2584e-11
-1.00944e-10
-8.1355e-11
1.04019e-10
-1.1779e-10
-9.39308e-11
1.40226e-13
-3.81472e-13
1.30676e-13
2.68079e-13
-1.11128e-12
3.85053e-13
3.88965e-13
-1.78864e-12
6.3416e-13
5.07844e-13
-2.43754e-12
8.94298e-13
6.29505e-13
-3.07427e-12
1.18e-12
7.58955e-13
-3.70646e-12
1.50465e-12
9.01983e-13
-4.33113e-12
1.88063e-12
1.06602e-12
-4.93113e-12
2.31912e-12
1.26173e-12
-5.46906e-12
2.82908e-12
1.50623e-12
-5.87701e-12
3.41521e-12
1.83005e-12
-6.03956e-12
4.07411e-12
2.29152e-12
-5.76461e-12
4.78752e-12
3.00092e-12
-4.73491e-12
5.50939e-12
4.12986e-12
-2.4629e-12
6.13865e-12
5.68677e-12
1.41356e-12
6.48092e-12
6.51663e-12
6.3478e-12
4.16998e-13
-7.51657e-13
3.88613e-13
7.97064e-13
-2.19015e-12
1.14501e-12
1.15612e-12
-3.52669e-12
1.88547e-12
1.50868e-12
-4.80949e-12
2.65828e-12
1.86875e-12
-6.07213e-12
3.50647e-12
2.25086e-12
-7.33208e-12
4.46962e-12
2.67145e-12
-8.5875e-12
5.58444e-12
3.15102e-12
-9.81149e-12
6.88399e-12
3.71751e-12
-1.09425e-11
8.39472e-12
4.41301e-12
-1.18699e-11
1.01301e-11
5.30699e-12
-1.24147e-11
1.20782e-11
6.5209e-12
-1.23116e-11
1.41798e-11
8.2594e-12
-1.1218e-11
1.62869e-11
1.07805e-11
-8.8468e-12
1.8089e-11
1.39161e-11
-5.47741e-12
1.90627e-11
-2.80143e-12
1.79964e-11
6.83013e-13
-1.09951e-12
6.36602e-13
1.30509e-12
-3.20483e-12
1.87539e-12
1.89181e-12
-5.16428e-12
3.08725e-12
2.46634e-12
-7.05077e-12
4.35067e-12
3.05093e-12
-8.91684e-12
5.73558e-12
3.66832e-12
-1.07936e-11
7.30627e-12
4.34352e-12
-1.26871e-11
9.12256e-12
5.10602e-12
-1.45729e-11
1.12385e-11
5.99269e-12
-1.63853e-11
1.36979e-11
7.05224e-12
-1.80041e-11
1.65235e-11
8.35251e-12
-1.92398e-11
1.96967e-11
9.98969e-12
-1.98316e-11
2.31209e-11
1.20853e-11
-1.94973e-11
2.65565e-11
1.47052e-11
-1.81245e-11
2.95237e-11
1.74664e-11
-1.61825e-11
3.12952e-11
-1.50983e-11
3.07965e-11
9.31798e-13
-1.41376e-12
8.68656e-13
1.77955e-12
-4.1226e-12
2.55841e-12
2.57718e-12
-6.64925e-12
4.20966e-12
3.35522e-12
-9.0914e-12
5.92836e-12
4.14284e-12
-1.15221e-11
7.80872e-12
4.96936e-12
-1.39899e-11
9.93748e-12
5.86604e-12
-1.65164e-11
1.23956e-11
6.86768e-12
-1.90916e-11
1.52571e-11
8.0135e-12
-2.16657e-11
1.85833e-11
9.34657e-12
-2.41381e-11
2.24098e-11
1.091e-11
-2.63451e-11
2.67204e-11
1.27349e-11
-2.80557e-11
3.14005e-11
1.48068e-11
-2.90022e-11
3.6157e-11
1.69878e-11
-2.90015e-11
4.04043e-11
1.88548e-11
-2.82427e-11
4.3252e-11
-2.77191e-11
4.34644e-11
1.15775e-12
-1.68326e-12
1.07951e-12
2.20952e-12
-4.91097e-12
3.17841e-12
3.19593e-12
-7.92906e-12
5.2264e-12
4.1534e-12
-1.08592e-11
7.35313e-12
5.11641e-12
-1.37956e-11
9.67369e-12
6.11922e-12
-1.68068e-11
1.2294e-11
7.1975e-12
-1.99353e-11
1.53133e-11
8.38936e-12
-2.31954e-11
1.88233e-11
9.73462e-12
-2.65688e-11
2.29027e-11
1.12705e-11
-2.99971e-11
2.76034e-11
1.302e-11
-3.33715e-11
3.29226e-11
1.49664e-11
-3.65178e-11
3.87514e-11
1.70003e-11
-3.91752e-11
4.47822e-11
1.88434e-11
-4.09799e-11
5.0364e-11
2.00309e-11
-4.15789e-11
5.44245e-11
-4.11974e-11
5.54638e-11
1.35648e-12
-1.89741e-12
1.26497e-12
2.58648e-12
-5.53876e-12
3.72284e-12
3.73551e-12
-8.95272e-12
6.11637e-12
4.84413e-12
-1.22826e-11
8.59442e-12
5.95048e-12
-1.56429e-11
1.12887e-11
7.09211e-12
-1.91223e-11
1.43199e-11
8.30766e-12
-2.27864e-11
1.78016e-11
9.63787e-12
-2.66783e-11
2.18395e-11
1.11249e-11
-3.08187e-11
2.65272e-11
1.2808e-11
-3.52049e-11
3.19334e-11
1.47132e-11
-3.98076e-11
3.80761e-11
1.68296e-11
-4.45598e-11
4.48724e-11
1.90605e-11
-4.93167e-11
5.20401e-11
2.11413e-11
-5.37421e-11
5.89211e-11
2.25674e-11
-5.71209e-11
6.42967e-11
-5.81556e-11
6.63997e-11
1.52495e-12
-2.04658e-12
1.42202e-12
2.90468e-12
-5.97769e-12
4.18288e-12
4.1876e-12
-9.67354e-12
6.8649e-12
5.41659e-12
-1.32953e-11
9.63107e-12
6.63163e-12
-1.69743e-11
1.26247e-11
7.8718e-12
-2.08174e-11
1.59765e-11
9.17709e-12
-2.49111e-11
1.98087e-11
1.059e-11
-2.93249e-11
2.42354e-11
1.21559e-11
-3.41156e-11
2.93592e-11
1.39225e-11
-3.93324e-11
3.52605e-11
1.59364e-11
-4.50245e-11
4.19761e-11
1.82363e-11
-5.12508e-11
4.94546e-11
2.08333e-11
-5.80781e-11
5.74626e-11
2.36501e-11
-6.55129e-11
6.53898e-11
2.62676e-11
-7.30842e-11
7.19432e-11
-7.99099e-11
7.50881e-11
1.66162e-12
1.54908e-12
-2.12277e-12
3.1614e-12
4.55392e-12
-6.2042e-12
4.54861e-12
7.46462e-12
-1.00526e-11
5.86651e-12
1.04528e-11
-1.38413e-11
7.15506e-12
1.36682e-11
-1.77137e-11
8.45286e-12
1.72459e-11
-2.17899e-11
9.79909e-12
2.13106e-11
-2.61714e-11
1.12355e-11
2.59775e-11
-3.09463e-11
1.2808e-11
3.13491e-11
-3.61944e-11
1.4569e-11
3.75065e-11
-4.19935e-11
1.65796e-11
4.44907e-11
-4.84292e-11
1.89147e-11
5.22648e-11
-5.56082e-11
2.16621e-11
6.06309e-11
-6.36663e-11
2.48786e-11
6.90491e-11
-7.27248e-11
2.81724e-11
7.62447e-11
-8.22968e-11
7.99682e-11
-9.34604e-11
1.41614e-13
-3.89087e-13
1.16322e-13
2.70548e-13
-1.13361e-12
3.42621e-13
3.92054e-13
-1.82507e-12
5.63824e-13
5.10838e-13
-2.48829e-12
7.94094e-13
6.31276e-13
-3.14041e-12
1.04588e-12
7.57667e-13
-3.79015e-12
1.33031e-12
8.94569e-13
-4.43622e-12
1.65715e-12
1.04728e-12
-5.06456e-12
2.03423e-12
1.22262e-12
-5.64398e-12
2.46596e-12
1.43072e-12
-6.11961e-12
2.9504e-12
1.68866e-12
-6.40408e-12
3.47388e-12
2.02766e-12
-6.36647e-12
4.00172e-12
2.50224e-12
-5.82209e-12
4.46291e-12
3.18064e-12
-4.54727e-12
4.73099e-12
4.00355e-12
-2.48452e-12
4.64611e-12
1.75195e-13
4.23326e-12
4.21171e-13
-7.66605e-13
3.45935e-13
8.04508e-13
-2.23396e-12
1.01886e-12
1.1655e-12
-3.59814e-12
1.6764e-12
1.51794e-12
-4.90897e-12
2.36053e-12
1.87468e-12
-6.20161e-12
3.10811e-12
2.24818e-12
-7.49546e-12
3.95209e-12
2.65144e-12
-8.79156e-12
4.92143e-12
3.09891e-12
-1.00681e-11
6.03949e-12
3.60792e-12
-1.12736e-11
7.31962e-12
4.20151e-12
-1.23178e-11
8.75664e-12
4.91397e-12
-1.3064e-11
1.03112e-11
5.79981e-12
-1.33312e-11
1.18832e-11
6.938e-12
-1.2935e-11
1.32708e-11
8.38452e-12
-1.18256e-11
1.41278e-11
9.90999e-12
-1.03822e-11
1.40577e-11
-9.77921e-12
1.27543e-11
6.90011e-13
-1.12127e-12
5.66721e-13
1.31765e-12
-3.26859e-12
1.66888e-12
1.90783e-12
-5.26821e-12
2.7451e-12
2.4827e-12
-7.1953e-12
3.8637e-12
3.06271e-12
-9.10455e-12
5.08456e-12
3.66755e-12
-1.10294e-11
6.46131e-12
4.31704e-12
-1.29793e-11
8.04132e-12
5.03176e-12
-1.49352e-11
9.86325e-12
5.83321e-12
-1.6842e-11
1.19503e-11
6.74338e-12
-1.86004e-11
1.42973e-11
7.783e-12
-2.00626e-11
1.68465e-11
8.96536e-12
-2.10476e-11
1.94499e-11
1.02737e-11
-2.1411e-11
2.18134e-11
1.15935e-11
-2.12214e-11
2.34573e-11
1.25871e-11
-2.0967e-11
2.38794e-11
-2.15794e-11
2.302e-11
9.41689e-13
-1.44159e-12
7.73371e-13
1.79742e-12
-4.20414e-12
2.27691e-12
2.60037e-12
-6.78205e-12
3.74354e-12
3.37988e-12
-9.27583e-12
5.26548e-12
4.16291e-12
-1.1761e-11
6.92355e-12
4.97516e-12
-1.42885e-11
8.79017e-12
5.84169e-12
-1.68829e-11
1.09298e-11
6.78681e-12
-1.95384e-11
1.3396e-11
7.832e-12
-2.22135e-11
1.62235e-11
8.99023e-12
-2.48229e-11
1.94118e-11
1.02536e-11
-2.72334e-11
2.28976e-11
1.15678e-11
-2.92721e-11
2.65087e-11
1.27864e-11
-3.07721e-11
2.99046e-11
1.36192e-11
-3.16893e-11
3.25387e-11
1.37331e-11
-3.22502e-11
3.38289e-11
-3.31122e-11
3.36875e-11
1.17059e-12
-1.71623e-12
9.61218e-13
2.2329e-12
-5.00752e-12
2.82906e-12
3.22685e-12
-8.08621e-12
4.64837e-12
4.1876e-12
-1.10771e-11
6.53206e-12
5.14737e-12
-1.40771e-11
8.57894e-12
6.1366e-12
-1.71569e-11
1.08776e-11
7.18454e-12
-2.03608e-11
1.35075e-11
8.3185e-12
-2.37056e-11
1.65356e-11
9.56034e-12
-2.71761e-11
2.00087e-11
1.09173e-11
-3.07207e-11
2.39356e-11
1.23627e-11
-3.42432e-11
2.82572e-11
1.37979e-11
-3.75953e-11
3.27975e-11
1.49897e-11
-4.0565e-11
3.71968e-11
1.55202e-11
-4.28721e-11
4.0862e-11
1.50166e-11
-4.42351e-11
4.31005e-11
-4.47502e-11
4.37087e-11
1.37226e-12
-1.93439e-12
1.12651e-12
2.61546e-12
-5.64705e-12
3.31416e-12
3.77452e-12
-9.1289e-12
5.44086e-12
4.88887e-12
-1.25267e-11
7.63631e-12
5.99452e-12
-1.59574e-11
1.00137e-11
7.12544e-12
-1.95117e-11
1.26743e-11
8.3142e-12
-2.32557e-11
1.5709e-11
9.59157e-12
-2.72324e-11
1.91961e-11
1.09831e-11
-3.14608e-11
2.31924e-11
1.2501e-11
-3.5935e-11
2.77172e-11
1.41261e-11
-4.06193e-11
3.2721e-11
1.57728e-11
-4.54359e-11
3.80349e-11
1.72282e-11
-5.02236e-11
4.32955e-11
1.80887e-11
-5.46322e-11
4.78711e-11
1.79174e-11
-5.79719e-11
5.0947e-11
-5.89585e-11
5.22093e-11
1.54358e-12
-2.08631e-12
1.26659e-12
2.93916e-12
-6.09402e-12
3.72436e-12
4.23476e-12
-9.86278e-12
6.10793e-12
5.47233e-12
-1.35573e-11
8.55939e-12
6.69008e-12
-1.73115e-11
1.1202e-11
7.92395e-12
-2.12334e-11
1.41457e-11
9.20874e-12
-2.54093e-11
1.74886e-11
1.05784e-11
-2.99062e-11
2.13155e-11
1.20643e-11
-3.47753e-11
2.56895e-11
1.36913e-11
-4.00543e-11
3.06366e-11
1.54679e-11
-4.57713e-11
3.61157e-11
1.73677e-11
-5.19451e-11
4.19664e-11
1.92954e-11
-5.85691e-11
4.78253e-11
2.10328e-11
-6.55271e-11
5.30202e-11
2.21889e-11
-7.22496e-11
5.65964e-11
-7.77284e-11
5.80768e-11
1.6829e-12
1.38001e-12
-2.16386e-12
3.20106e-12
4.0555e-12
-6.32454e-12
4.60358e-12
6.64294e-12
-1.02484e-11
5.93307e-12
9.2921e-12
-1.41124e-11
7.22812e-12
1.21319e-11
-1.80624e-11
8.52484e-12
1.52761e-11
-2.22193e-11
9.85824e-12
1.88252e-11
-2.66837e-11
1.12632e-11
2.28647e-11
-3.154e-11
1.27749e-11
2.74579e-11
-3.68595e-11
1.44274e-11
3.26305e-11
-4.27045e-11
1.62518e-11
3.83423e-11
-4.91324e-11
1.82702e-11
4.44363e-11
-5.61989e-11
2.04811e-11
5.05526e-11
-6.39495e-11
2.28117e-11
5.60089e-11
-7.23595e-11
2.48832e-11
5.97691e-11
-8.08436e-11
6.08108e-11
-9.01417e-11
1.42446e-13
-3.95522e-13
9.79727e-14
2.71914e-13
-1.15248e-12
2.88474e-13
3.93437e-13
-1.85588e-12
4.74367e-13
5.11395e-13
-2.53123e-12
6.67319e-13
6.29645e-13
-3.19645e-12
8.77401e-13
7.51646e-13
-3.86123e-12
1.11333e-12
8.80584e-13
-4.52592e-12
1.38231e-12
1.01945e-12
-5.17953e-12
1.68929e-12
1.17118e-12
-5.79675e-12
2.03548e-12
1.33911e-12
-6.33438e-12
2.41542e-12
1.52847e-12
-6.72788e-12
2.81252e-12
1.74927e-12
-6.88963e-12
3.19242e-12
2.01994e-12
-6.71095e-12
3.49602e-12
2.36073e-12
-6.07371e-12
3.64024e-12
2.7285e-12
-4.93911e-12
3.55942e-12
-3.11082e-12
3.45631e-12
4.2371e-13
-7.79232e-13
2.91377e-13
8.08711e-13
-2.27098e-12
8.57873e-13
1.16986e-12
-3.65851e-12
1.41048e-12
1.52003e-12
-4.99298e-12
1.98377e-12
1.87056e-12
-6.31092e-12
2.60758e-12
2.23157e-12
-7.63343e-12
3.30774e-12
2.61215e-12
-8.96426e-12
4.10566e-12
3.02029e-12
-1.02865e-11
5.01626e-12
3.46258e-12
-1.1558e-11
6.04348e-12
3.94393e-12
-1.27066e-11
7.17217e-12
4.46809e-12
-1.36287e-11
8.35514e-12
5.03893e-12
-1.42013e-11
9.49508e-12
5.65915e-12
-1.43229e-11
1.04265e-11
6.30911e-12
-1.40084e-11
1.09235e-11
6.86256e-12
-1.35134e-11
1.08248e-11
-1.34479e-11
1.01736e-11
6.94379e-13
-1.13963e-12
4.77376e-13
1.32498e-12
-3.32238e-12
1.40529e-12
1.91577e-12
-5.3558e-12
2.30986e-12
2.48747e-12
-7.31689e-12
3.24734e-12
3.0583e-12
-9.26207e-12
4.26623e-12
3.64438e-12
-1.12268e-11
5.40867e-12
4.25971e-12
-1.32234e-11
6.70981e-12
4.91544e-12
-1.52377e-11
8.19468e-12
5.6177e-12
-1.72241e-11
9.87142e-12
6.36364e-12
-1.91006e-11
1.17191e-11
7.13473e-12
-2.0751e-11
1.36685e-11
7.8855e-12
-2.20449e-11
1.55775e-11
8.5266e-12
-2.29025e-11
1.72099e-11
8.91111e-12
-2.3419e-11
1.82592e-11
8.90194e-12
-2.39347e-11
1.85285e-11
-2.49477e-11
1.82769e-11
9.48056e-13
-1.46502e-12
6.51515e-13
1.8083e-12
-4.27274e-12
1.9175e-12
2.61275e-12
-6.89359e-12
3.15037e-12
3.389e-12
-9.4302e-12
4.4261e-12
4.16135e-12
-1.196e-11
5.81019e-12
4.95114e-12
-1.45357e-11
7.35968e-12
5.77654e-12
-1.71839e-11
9.1226e-12
6.65081e-12
-1.99024e-11
1.11342e-11
7.57794e-12
-2.26556e-11
1.34087e-11
8.54379e-12
-2.53696e-11
1.59246e-11
9.49994e-12
-2.79313e-11
1.86023e-11
1.0337e-11
-3.01998e-11
2.12761e-11
1.08519e-11
-3.2047e-11
2.36755e-11
1.07589e-11
-3.34405e-11
2.54605e-11
9.9553e-12
-3.45067e-11
2.64034e-11
-3.5608e-11
2.6751e-11
1.17913e-12
-1.74391e-12
8.0987e-13
2.24777e-12
-5.08849e-12
2.38281e-12
3.24459e-12
-8.21765e-12
3.9124e-12
4.20292e-12
-1.12585e-11
5.4917e-12
5.15212e-12
-1.43097e-11
7.20087e-12
6.11805e-12
-1.7443e-11
9.10982e-12
7.1227e-12
-2.07039e-11
1.12779e-11
8.18205e-12
-2.41094e-11
1.37499e-11
9.30042e-12
-2.76454e-11
1.65472e-11
1.04587e-11
-3.12617e-11
1.96514e-11
1.15927e-11
-3.48655e-11
2.29805e-11
1.25552e-11
-3.83133e-11
2.63589e-11
1.30699e-11
-4.13977e-11
2.94972e-11
1.27398e-11
-4.38326e-11
3.20271e-11
1.1418e-11
-4.52982e-11
3.36625e-11
-4.574e-11
3.45929e-11
1.3831e-12
-1.96535e-12
9.49282e-13
2.63466e-12
-5.73756e-12
2.79184e-12
3.79843e-12
-9.27562e-12
4.58022e-12
4.91205e-12
-1.27287e-11
6.42137e-12
6.00877e-12
-1.62151e-11
8.4072e-12
7.11811e-12
-1.98261e-11
1.06178e-11
8.26576e-12
-2.36271e-11
1.31214e-11
9.47178e-12
-2.76585e-11
1.59704e-11
1.07457e-11
-3.19344e-11
1.91925e-11
1.20758e-11
-3.64398e-11
2.27735e-11
1.34098e-11
-4.1124e-11
2.6632e-11
1.46201e-11
-4.58835e-11
3.05859e-11
1.5457e-11
-5.05172e-11
3.43264e-11
1.55382e-11
-5.46251e-11
3.74416e-11
1.4633e-11
-5.75084e-11
3.95698e-11
-5.79067e-11
4.08786e-11
1.55676e-12
-2.11947e-12
1.0675e-12
2.96289e-12
-6.19093e-12
3.13794e-12
4.26536e-12
-1.00197e-11
5.14276e-12
5.50456e-12
-1.37729e-11
7.19921e-12
6.71617e-12
-1.75856e-11
9.40757e-12
7.9322e-12
-2.15657e-11
1.18548e-11
9.1813e-12
-2.57971e-11
1.46147e-11
1.0488e-11
-3.0342e-11
1.77445e-11
1.18699e-11
-3.52414e-11
2.1275e-11
1.33314e-11
-4.0516e-11
2.51944e-11
1.48527e-11
-4.6164e-11
2.94203e-11
1.63705e-11
-5.21541e-11
3.37625e-11
1.77545e-11
-5.83997e-11
3.78838e-11
1.87965e-11
-6.46809e-11
4.13014e-11
1.92831e-11
-7.04031e-11
4.35399e-11
-7.46114e-11
4.47406e-11
1.69837e-12
1.16329e-12
-2.19806e-12
3.22929e-12
3.41755e-12
-6.42449e-12
4.641e-12
5.59437e-12
-1.04102e-11
5.97485e-12
7.81743e-12
-1.43345e-11
7.26731e-12
1.01917e-11
-1.83441e-11
8.55116e-12
1.28075e-11
-2.25593e-11
9.85625e-12
1.57405e-11
-2.70776e-11
1.12098e-11
1.90483e-11
-3.19765e-11
1.26353e-11
2.27615e-11
-3.73148e-11
1.41507e-11
2.68665e-11
-4.31334e-11
1.57636e-11
3.12778e-11
-4.94538e-11
1.74644e-11
3.5797e-11
-5.62739e-11
1.92181e-11
4.00644e-11
-6.35517e-11
2.09494e-11
4.35387e-11
-7.1156e-11
2.24248e-11
4.56388e-11
-7.85066e-11
4.61365e-11
-8.62907e-11
1.42853e-13
-4.00695e-13
7.63558e-14
2.72458e-13
-1.16764e-12
2.24756e-13
3.93617e-13
-1.88063e-12
3.69357e-13
5.10372e-13
-2.56574e-12
5.19075e-13
6.26049e-13
-3.24144e-12
6.81475e-13
7.4331e-13
-3.91822e-12
8.62904e-13
8.64106e-13
-4.5977e-12
1.0683e-12
9.89505e-13
-5.27117e-12
1.30054e-12
1.11945e-12
-5.91754e-12
1.55913e-12
1.25272e-12
-6.5011e-12
1.83813e-12
1.38779e-12
-6.97e-12
2.12329e-12
1.52542e-12
-7.2561e-12
2.38904e-12
1.67378e-12
-7.27423e-12
2.59799e-12
1.85137e-12
-6.91664e-12
2.70928e-12
2.05385e-12
-6.09252e-12
2.70591e-12
-4.43617e-12
2.79148e-12
4.24994e-13
-7.89384e-13
2.27095e-13
8.1049e-13
-2.30073e-12
6.68414e-13
1.17066e-12
-3.707e-12
1.0983e-12
1.51742e-12
-5.06038e-12
1.54316e-12
1.8606e-12
-6.39842e-12
2.02542e-12
2.20804e-12
-7.74351e-12
2.5639e-12
2.56535e-12
-9.10148e-12
3.17333e-12
2.93515e-12
-1.0459e-11
3.86239e-12
3.31584e-12
-1.17803e-11
4.63005e-12
3.70036e-12
-1.30042e-11
5.45958e-12
4.0758e-12
-1.40449e-11
6.31042e-12
4.4261e-12
-1.48026e-11
7.11003e-12
4.73998e-12
-1.51923e-11
7.75267e-12
5.02124e-12
-1.5199e-11
8.12317e-12
5.26638e-12
-1.4948e-11
8.1752e-12
-1.48164e-11
7.94056e-12
6.96709e-13
-1.15439e-12
3.72084e-13
1.32838e-12
-3.36558e-12
1.09502e-12
1.91792e-12
-5.42604e-12
1.79878e-12
2.48456e-12
-7.41412e-12
2.52631e-12
3.04426e-12
-9.38751e-12
3.31412e-12
3.60973e-12
-1.1383e-11
4.19294e-12
4.1898e-12
-1.34151e-11
5.18702e-12
4.78777e-12
-1.54728e-11
6.31119e-12
5.39832e-12
-1.75164e-11
7.56523e-12
6.00272e-12
-1.94736e-11
8.92494e-12
6.56275e-12
-2.12426e-11
1.03304e-11
7.01516e-12
-2.27094e-11
1.16752e-11
7.27442e-12
-2.37962e-11
1.28075e-11
7.2652e-12
-2.45494e-11
1.35688e-11
7.03014e-12
-2.51816e-11
1.39007e-11
-2.60453e-11
1.39739e-11
9.51665e-13
-1.48383e-12
5.07866e-13
1.81385e-12
-4.32773e-12
1.4943e-12
2.61724e-12
-6.98277e-12
2.45359e-12
3.38761e-12
-9.5531e-12
3.44378e-12
4.14652e-12
-1.21174e-11
4.51417e-12
4.91121e-12
-1.47293e-11
5.70645e-12
5.69366e-12
-1.74168e-11
7.05389e-12
6.49805e-12
-2.01792e-11
8.57772e-12
7.31562e-12
-2.29835e-11
1.02803e-11
8.11573e-12
-2.57601e-11
1.21342e-11
8.83217e-12
-2.84015e-11
1.40686e-11
9.34598e-12
-3.07702e-11
1.5958e-11
9.47837e-12
-3.2728e-11
1.76278e-11
9.04801e-12
-3.41971e-11
1.89037e-11
8.14139e-12
-3.52229e-11
1.97131e-11
-3.61014e-11
2.02051e-11
1.18425e-12
-1.76607e-12
6.31387e-13
2.25602e-12
-5.15322e-12
1.85716e-12
3.25253e-12
-8.32236e-12
3.04751e-12
4.20512e-12
-1.14022e-11
4.27356e-12
5.14023e-12
-1.44922e-11
5.59566e-12
6.07933e-12
-1.76648e-11
7.06505e-12
7.03796e-12
-2.0965e-11
8.72295e-12
8.02282e-12
-2.44087e-11
1.05967e-11
9.02572e-12
-2.79798e-11
1.26921e-11
1.00125e-11
-3.16241e-11
1.49814e-11
1.09048e-11
-3.52421e-11
1.73883e-11
1.15541e-11
-3.86776e-11
1.97757e-11
1.17219e-11
-4.16995e-11
2.1953e-11
1.11303e-11
-4.39847e-11
2.37287e-11
9.81163e-12
-4.51923e-11
2.49983e-11
-4.52883e-11
2.58765e-11
1.38993e-12
-1.99008e-12
7.40182e-13
2.64612e-12
-5.8097e-12
2.17628e-12
3.81083e-12
-9.39205e-12
3.56827e-12
4.91977e-12
-1.28877e-11
4.99791e-12
6.00331e-12
-1.64158e-11
6.53448e-12
7.0867e-12
-2.0067e-11
8.23677e-12
8.18941e-12
-2.39049e-11
1.01523e-11
9.32282e-12
-2.79657e-11
1.23132e-11
1.04851e-11
-3.22562e-11
1.47285e-11
1.16517e-11
-3.67491e-11
1.73705e-11
1.27597e-11
-4.1374e-11
2.01586e-11
1.36847e-11
-4.59967e-11
2.29438e-11
1.42193e-11
-5.03744e-11
2.55129e-11
1.40991e-11
-5.40696e-11
2.76391e-11
1.32568e-11
-5.64152e-11
2.91785e-11
-5.63044e-11
3.02575e-11
1.56544e-12
-2.14588e-12
8.32485e-13
2.9779e-12
-6.26794e-12
2.44645e-12
4.28299e-12
-1.01438e-11
4.0072e-12
5.51932e-12
-1.39419e-11
5.60444e-12
6.71994e-12
-1.77976e-11
7.31383e-12
7.91294e-12
-2.18177e-11
9.19932e-12
9.12139e-12
-2.60826e-11
1.13124e-11
1.03622e-11
-3.06479e-11
1.36881e-11
1.16431e-11
-3.55433e-11
1.63367e-11
1.29579e-11
-4.07703e-11
1.92297e-11
1.42784e-11
-4.62975e-11
2.22807e-11
1.55456e-11
-5.20489e-11
2.53254e-11
1.66671e-11
-5.78806e-11
2.81161e-11
1.75388e-11
-6.35256e-11
3.03626e-11
1.80914e-11
-6.84478e-11
3.18548e-11
-7.19072e-11
3.27613e-11
1.70894e-12
9.07318e-13
-2.22523e-12
3.24799e-12
2.66486e-12
-6.50369e-12
4.66427e-12
4.35986e-12
-1.05377e-11
5.99757e-12
6.08702e-12
-1.45078e-11
7.28207e-12
7.92571e-12
-1.85607e-11
8.54719e-12
9.94235e-12
-2.2815e-11
9.81802e-12
1.21898e-11
-2.73638e-11
1.11153e-11
1.47035e-11
-3.22767e-11
1.24545e-11
1.74927e-11
-3.75986e-11
1.38447e-11
2.05263e-11
-4.33485e-11
1.52865e-11
2.37122e-11
-4.95144e-11
1.6773e-11
2.68724e-11
-5.60466e-11
1.82977e-11
2.97283e-11
-6.28464e-11
1.98649e-11
3.19274e-11
-6.97427e-11
2.13605e-11
3.31836e-11
-7.62388e-11
3.34795e-11
-8.31936e-11
1.42978e-13
-4.04559e-13
5.22622e-14
2.72494e-13
-1.17898e-12
1.538e-13
3.93142e-13
-1.89914e-12
2.52636e-13
5.08658e-13
-2.59154e-12
3.54777e-13
6.21925e-13
-3.27503e-12
4.65251e-13
7.34952e-13
-3.96059e-12
5.88173e-13
8.48758e-13
-4.65066e-12
7.26583e-13
9.63086e-13
-5.33792e-12
8.81984e-13
1.07609e-12
-6.00358e-12
1.05347e-12
1.18437e-12
-6.61542e-12
1.23645e-12
1.28422e-12
-7.12626e-12
1.4213e-12
1.37543e-12
-7.47221e-12
1.59244e-12
1.46925e-12
-7.56689e-12
1.72984e-12
1.59604e-12
-7.28651e-12
1.81562e-12
1.7737e-12
-6.50366e-12
1.84545e-12
-4.81543e-12
1.96388e-12
4.25445e-13
-7.96985e-13
1.55442e-13
8.10764e-13
-2.32301e-12
4.57421e-13
1.16951e-12
-3.74329e-12
7.5127e-13
1.51273e-12
-5.11075e-12
1.05478e-12
1.84897e-12
-6.4636e-12
1.38286e-12
2.18425e-12
-7.82505e-12
1.74773e-12
2.52154e-12
-9.20217e-12
2.15845e-12
2.85978e-12
-1.05837e-11
2.61963e-12
3.19257e-12
-1.19371e-11
3.12883e-12
3.50728e-12
-1.32059e-11
3.67308e-12
3.78644e-12
-1.43097e-11
4.22483e-12
4.01481e-12
-1.51504e-11
4.73957e-12
4.19684e-12
-1.56305e-11
5.15941e-12
4.38025e-12
-1.56905e-11
5.43029e-12
4.62334e-12
-1.53866e-11
5.53492e-12
-1.50486e-11
5.46323e-12
6.97675e-13
-1.16544e-12
2.54705e-13
1.3293e-12
-3.39793e-12
7.49428e-13
1.9168e-12
-5.47857e-12
1.23053e-12
2.47807e-12
-7.48663e-12
1.72695e-12
3.02717e-12
-9.48057e-12
2.26296e-12
3.57405e-12
-1.1498e-11
2.85852e-12
4.12365e-12
-1.35545e-11
3.52864e-12
4.67398e-12
-1.56407e-11
4.28125e-12
5.21311e-12
-1.77191e-11
5.11342e-12
5.71559e-12
-1.97205e-11
6.00601e-12
6.13983e-12
-2.15452e-11
6.91796e-12
6.43091e-12
-2.30748e-11
7.78319e-12
6.53869e-12
-2.42095e-11
8.51719e-12
6.46598e-12
-2.49413e-11
9.04237e-12
6.33421e-12
-2.54225e-11
9.33175e-12
-2.60043e-11
9.4545e-12
9.53383e-13
-1.49792e-12
3.47686e-13
1.81594e-12
-4.36888e-12
1.0228e-12
2.6171e-12
-7.04933e-12
1.67867e-12
3.38101e-12
-9.64441e-12
2.35439e-12
4.12691e-12
-1.22334e-11
3.08276e-12
4.86873e-12
-1.48707e-11
3.89091e-12
5.61384e-12
-1.75841e-11
4.79949e-12
6.36035e-12
-2.03733e-11
5.82004e-12
7.09242e-12
-2.3205e-11
6.95033e-12
7.77339e-12
-2.60083e-11
8.16787e-12
8.3372e-12
-2.8672e-11
9.42325e-12
8.68232e-12
-3.10475e-11
1.06375e-11
8.6828e-12
-3.29707e-11
1.17121e-11
8.25659e-12
-3.43189e-11
1.25604e-11
7.56244e-12
-3.51079e-11
1.31449e-11
-3.56689e-11
1.35149e-11
1.18697e-12
-1.78265e-12
4.32298e-13
2.25982e-12
-5.20157e-12
1.27132e-12
3.25442e-12
-8.40029e-12
2.08526e-12
4.20031e-12
-1.15084e-11
2.92205e-12
5.12145e-12
-1.4626e-11
3.82188e-12
6.03578e-12
-1.78251e-11
4.81812e-12
6.95401e-12
-2.11498e-11
5.93642e-12
7.87673e-12
-2.46138e-11
7.19179e-12
8.78916e-12
-2.81972e-11
8.58339e-12
9.65271e-12
-3.1839e-11
1.00871e-11
1.03928e-11
-3.54288e-11
1.16482e-11
1.08856e-11
-3.87922e-11
1.31782e-11
1.09556e-11
-4.1672e-11
1.45672e-11
1.04332e-11
-4.37182e-11
1.57171e-11
9.41109e-12
-4.46009e-11
1.65715e-11
-4.43607e-11
1.71606e-11
1.39385e-12
-2.00853e-12
5.06851e-13
2.65214e-12
-5.86345e-12
1.48996e-12
3.81574e-12
-9.47842e-12
2.44191e-12
4.91859e-12
-1.30049e-11
3.41781e-12
5.98857e-12
-1.6562e-11
4.46386e-12
7.0475e-12
-2.02394e-11
5.61837e-12
8.1102e-12
-2.40985e-11
6.91095e-12
9.1824e-12
-2.81708e-11
8.35938e-12
1.02565e-11
-3.24555e-11
9.96396e-12
1.13052e-11
-3.6913e-11
1.16993e-11
1.22718e-11
-4.14544e-11
1.35053e-11
1.30592e-11
-4.59207e-11
1.52827e-11
1.35258e-11
-5.0042e-11
1.69035e-11
1.35135e-11
-5.33707e-11
1.8246e-11
1.30058e-11
-5.52932e-11
1.92346e-11
-5.48482e-11
1.99182e-11
1.57072e-12
-2.16556e-12
5.70127e-13
2.98652e-12
-6.32517e-12
1.67513e-12
4.29172e-12
-1.02356e-11
2.74265e-12
5.52325e-12
-1.40658e-11
3.83318e-12
6.71188e-12
-1.7951e-11
4.99722e-12
7.88253e-12
-2.19963e-11
6.27649e-12
9.05406e-12
-2.62787e-11
7.70313e-12
1.02384e-11
-3.08471e-11
9.29645e-12
1.14386e-11
-3.57205e-11
1.10569e-11
1.26465e-11
-4.08839e-11
1.29572e-11
1.38408e-11
-4.62819e-11
1.49311e-11
1.49886e-11
-5.18086e-11
1.68653e-11
1.60579e-11
-5.72915e-11
1.86045e-11
1.70413e-11
-6.24629e-11
1.99844e-11
1.79157e-11
-6.68693e-11
2.08956e-11
-6.9946e-11
2.14386e-11
1.71565e-12
6.21446e-13
-2.24543e-12
3.25943e-12
1.82489e-12
-6.56243e-12
4.67732e-12
2.98442e-12
-1.06317e-11
6.00762e-12
4.16394e-12
-1.46344e-11
7.2825e-12
5.41647e-12
-1.87166e-11
8.52862e-12
6.78543e-12
-2.29949e-11
9.76744e-12
8.30384e-12
-2.75582e-11
1.10155e-11
9.99106e-12
-3.24681e-11
1.22843e-11
1.18467e-11
-3.77575e-11
1.35814e-11
1.38408e-11
-4.34268e-11
1.49136e-11
1.59016e-11
-4.94389e-11
1.62954e-11
1.79036e-11