/*--------------------------------*- C++ -*----------------------------------*\
| =========                 |                                                 |
| \\      /  F ield         | OpenFOAM: The Open Source CFD Toolbox           |
|  \\    /   O peration     | Version:  v1912                                 |
|   \\  /    A nd           | Website:  www.openfoam.com                      |
|    \\/     M anipulation  |                                                 |
\*---------------------------------------------------------------------------*/
FoamFile
{
    version     2.0;
    format      ascii;
    class       volScalarField;
    location    "0.85/fluid";
    object      p;
}
// * * * * * * * * * * * * * * * * * * * * * * * * * * * * * * * * * * * * * //

dimensions      [0 2 -2 0 0 0 0];


internalField   nonuniform List<scalar> 
14592
(
0.050238
0.0446136
0.0427057
0.0411025
0.0401945
0.0395118
0.0390039
0.0385833
0.038197
0.0378921
0.0375371
0.037382
0.0369383
0.0371815
0.0364133
0.0382023
0.0460809
0.0443305
0.0426483
0.0412785
0.0403585
0.0396498
0.0391093
0.0386694
0.0382748
0.0379738
0.0376302
0.0375074
0.037098
0.0374749
0.0366538
0.0393847
0.0440873
0.0434761
0.0422406
0.041234
0.0403911
0.0397089
0.0391563
0.038706
0.038307
0.0380145
0.0376947
0.0376283
0.0372833
0.037854
0.0371059
0.0406635
0.0429088
0.0427676
0.0419088
0.0411536
0.0404045
0.0397541
0.0391891
0.0387178
0.0382998
0.0380007
0.0376898
0.0376669
0.0373845
0.0381289
0.0374989
0.0415586
0.0422084
0.0421917
0.0415671
0.0409768
0.0403144
0.0397016
0.0391342
0.0386434
0.0381965
0.0378674
0.0375259
0.037487
0.037185
0.0379935
0.0373875
0.0418046
0.0417557
0.0417753
0.0412978
0.0408059
0.0402041
0.0396161
0.0390439
0.0385318
0.0380547
0.0376947
0.0373272
0.0372881
0.0370099
0.0379708
0.0375402
0.0425209
0.0414594
0.041484
0.0410827
0.0406412
0.0400709
0.0394899
0.0389007
0.0383516
0.0378181
0.0373779
0.0368991
0.0367031
0.0361878
0.0368596
0.0358813
0.040958
0.0412814
0.0413067
0.040937
0.0405138
0.039951
0.0393619
0.03875
0.0381642
0.0375829
0.0370827
0.0365413
0.0362863
0.0357517
0.0365952
0.0358862
0.0433928
0.0501574
0.0445351
0.0426647
0.041103
0.0402486
0.0396253
0.0391842
0.0388382
0.0385381
0.0383288
0.0380887
0.0380307
0.0377266
0.0378835
0.0372436
0.0378313
0.0460004
0.0442502
0.0426064
0.0412787
0.0404128
0.0397642
0.039291
0.0389264
0.0386186
0.0384138
0.0381842
0.0381537
0.0378688
0.0381073
0.0373876
0.0383674
0.0440028
0.04339
0.0421915
0.0412267
0.0404382
0.0398168
0.0393325
0.0389583
0.0386464
0.0384507
0.0382435
0.0382667
0.0380362
0.0384272
0.0377278
0.0391684
0.0428217
0.0426784
0.0418552
0.0411407
0.0404451
0.0398548
0.0393573
0.0389617
0.0386301
0.0384277
0.0382278
0.0382943
0.0381183
0.0386631
0.0380436
0.0397878
0.0421181
0.0420991
0.0415089
0.0409579
0.0403474
0.0397928
0.039291
0.0388733
0.0385092
0.038273
0.0380352
0.03808
0.0378656
0.0384583
0.0378045
0.0398014
0.0416626
0.0416798
0.0412358
0.040782
0.0402302
0.0396982
0.0391888
0.0387468
0.0383485
0.0380781
0.0378087
0.0378539
0.0376532
0.03841
0.0378932
0.0404062
0.0413627
0.041385
0.0410163
0.0406115
0.0400894
0.0395613
0.039031
0.0385467
0.0380838
0.0377231
0.0373245
0.0371951
0.0367102
0.0371594
0.0359468
0.0385497
0.0411809
0.0412039
0.0408661
0.0404784
0.039962
0.0394232
0.0388664
0.0383408
0.0378239
0.0373969
0.0369272
0.0367407
0.0362278
0.036909
0.0359229
0.041022
0.0501112
0.0444905
0.0426488
0.0411208
0.0403123
0.0397423
0.0393653
0.0390956
0.0388922
0.0388028
0.0387338
0.0388817
0.0389349
0.0394284
0.0395804
0.040289
0.0459542
0.0442044
0.0425901
0.0412966
0.0404772
0.0398826
0.0394742
0.0391869
0.0389773
0.0388944
0.0388385
0.0390161
0.0390929
0.0396608
0.0397865
0.0407838
0.0439525
0.0433387
0.0421684
0.0412374
0.0404955
0.0399291
0.0395103
0.0392143
0.0390011
0.0389284
0.0388956
0.0391305
0.0392682
0.0399981
0.0401885
0.0415933
0.0427684
0.0426237
0.0418274
0.0411456
0.0404958
0.0399599
0.0395273
0.0392095
0.0389761
0.0388974
0.0388722
0.0391549
0.0393516
0.0402482
0.0405446
0.0422349
0.0420613
0.0420406
0.0414761
0.0409565
0.0403901
0.0398884
0.0394495
0.0391073
0.0388379
0.0387221
0.0386528
0.0389111
0.0390582
0.0400053
0.0402476
0.0421812
0.0416025
0.041618
0.0411988
0.0407751
0.0402657
0.0397843
0.0393352
0.0389655
0.0386575
0.0385035
0.0383951
0.0386513
0.0387975
0.0399158
0.0402577
0.0427105
0.0412989
0.0413196
0.0409747
0.0405988
0.040117
0.0396366
0.0391626
0.0387451
0.0383639
0.038108
0.0378493
0.0379064
0.037707
0.038471
0.037932
0.0404392
0.0411132
0.0411346
0.04082
0.0404601
0.0399821
0.0394881
0.0389837
0.0385196
0.0380765
0.0377443
0.0373971
0.0373806
0.0371086
0.0380922
0.037639
0.0426593
0.0500868
0.0444673
0.042647
0.0411449
0.040372
0.0398432
0.0395144
0.0392986
0.0391581
0.0391334
0.0391431
0.0393441
0.0394834
0.0399356
0.0401542
0.0406335
0.0459299
0.0441803
0.042588
0.0413209
0.0405377
0.0399847
0.039625
0.039392
0.0392459
0.039228
0.0392507
0.0394785
0.0396366
0.0401386
0.0403249
0.040996
0.0439244
0.0433098
0.0421605
0.0412553
0.0405499
0.0400257
0.0396561
0.0394149
0.0392649
0.0392568
0.0392999
0.03958
0.0397882
0.0404279
0.0406499
0.0416392
0.0427375
0.0425916
0.0418151
0.0411583
0.0405441
0.0400498
0.0396659
0.0394026
0.0392315
0.0392167
0.0392646
0.03959
0.039848
0.0406394
0.0409428
0.042175
0.0420269
0.0420049
0.0414591
0.0409632
0.0404311
0.0399697
0.0395778
0.0392882
0.0390784
0.0390236
0.0390217
0.0393177
0.0395117
0.0403418
0.0405545
0.0420061
0.0415648
0.0415791
0.0411778
0.0407767
0.0403
0.0398573
0.039453
0.0391338
0.0388821
0.0387863
0.0387401
0.0390324
0.0392141
0.0402151
0.0404951
0.0424557
0.0412577
0.0412771
0.0409495
0.0405951
0.0401443
0.0397004
0.0392682
0.0388974
0.0385671
0.0383635
0.0381561
0.0382411
0.0380522
0.0386919
0.0380244
0.0400301
0.0410684
0.0410885
0.0407907
0.0404514
0.0400027
0.0395432
0.0390779
0.0386571
0.0382601
0.0379758
0.0376728
0.037683
0.0374093
0.0382832
0.0376626
0.0421722
0.050077
0.0444586
0.0426546
0.0411731
0.040429
0.0399345
0.0396475
0.0394802
0.0393996
0.0394418
0.0395401
0.0398248
0.0400967
0.040618
0.0410127
0.0414349
0.0459201
0.0441709
0.0425955
0.0413494
0.0405956
0.0400773
0.0397599
0.0395762
0.0394909
0.0395413
0.0396543
0.0399669
0.0402596
0.0408238
0.0411904
0.0417665
0.0439115
0.0432964
0.0421631
0.0412787
0.0406027
0.0401138
0.0397869
0.0395955
0.0395063
0.0395664
0.0396981
0.0400607
0.0403978
0.0410881
0.0414815
0.0423348
0.042722
0.0425754
0.041814
0.0411771
0.0405917
0.0401323
0.0397907
0.0395768
0.0394658
0.0395188
0.0396537
0.0400606
0.0404427
0.0412791
0.0417428
0.042823
0.0420083
0.0419854
0.0414537
0.0409768
0.0404724
0.0400447
0.0396937
0.039452
0.0392999
0.0393104
0.0393908
0.0397647
0.0400725
0.0409409
0.0412908
0.0425799
0.0415433
0.0415566
0.0411689
0.0407857
0.0403354
0.0399249
0.0395596
0.0392861
0.0390892
0.0390559
0.0390867
0.0394538
0.039738
0.0407738
0.0411635
0.0429559
0.041233
0.0412515
0.0409368
0.0405993
0.0401734
0.0397598
0.0393641
0.0390357
0.0387551
0.0386082
0.0384676
0.0386181
0.0385079
0.0391686
0.0385516
0.0403705
0.0410405
0.0410597
0.0407744
0.0404511
0.0400259
0.0395949
0.0391634
0.0387816
0.0384295
0.0381963
0.0379508
0.038019
0.0378038
0.0386912
0.0380688
0.0423721
0.0500746
0.0444568
0.0426643
0.0411974
0.0404735
0.0400028
0.0397439
0.0396076
0.0395625
0.039639
0.0397772
0.0400844
0.0403911
0.0408923
0.0413036
0.0416737
0.0459177
0.0441687
0.0426051
0.041374
0.0406408
0.0401466
0.0398575
0.0397052
0.0396557
0.0397407
0.0398938
0.0402282
0.0405547
0.0410925
0.0414712
0.0419707
0.0439066
0.0432911
0.042169
0.0412992
0.040644
0.0401795
0.0398813
0.0397214
0.0396678
0.0397618
0.0399316
0.0403124
0.040676
0.0413271
0.0417188
0.0424692
0.042715
0.0425678
0.041817
0.0411941
0.040629
0.0401936
0.0398804
0.0396977
0.0396216
0.0397079
0.0398789
0.0403018
0.0407042
0.0414936
0.041942
0.0429089
0.0419987
0.0419752
0.0414534
0.0409897
0.0405047
0.0401003
0.0397766
0.0395651
0.0394463
0.0394884
0.0396014
0.0399883
0.0403083
0.041123
0.0414392
0.0426088
0.0415314
0.0415441
0.0411657
0.040795
0.0403632
0.0399748
0.0396356
0.0393909
0.0392254
0.039222
0.0392821
0.0396605
0.0399497
0.0409289
0.0412669
0.0429368
0.0412186
0.0412364
0.0409306
0.0406049
0.0401964
0.0398037
0.0394323
0.0391307
0.0388787
0.0387588
0.0386425
0.038801
0.0386854
0.0392857
0.0385897
0.0402759
0.0410236
0.0410422
0.0407653
0.0404533
0.0400445
0.0396332
0.0392243
0.0388672
0.0385411
0.0383325
0.0381073
0.038182
0.0379543
0.0387821
0.038061
0.0422205
0.0500756
0.0444583
0.0426734
0.0412164
0.0405063
0.0400521
0.0398133
0.0396998
0.0396817
0.0397864
0.0399592
0.0402936
0.0406395
0.0411497
0.0415933
0.0419408
0.0459188
0.0441699
0.0426143
0.0413932
0.0406741
0.0401967
0.039928
0.0397988
0.039777
0.0398907
0.0400794
0.0404417
0.0408082
0.0413536
0.0417649
0.0422284
0.043906
0.0432903
0.0421757
0.0413158
0.0406747
0.0402273
0.0399497
0.0398131
0.0397871
0.0399097
0.0401138
0.0405207
0.0409203
0.0415723
0.0419892
0.04269
0.042713
0.0425654
0.0418216
0.0412082
0.0406569
0.0402384
0.0399455
0.039786
0.0397371
0.0398516
0.0400558
0.0405035
0.0409386
0.0417247
0.0421908
0.0431026
0.0419949
0.0419709
0.0414557
0.041001
0.0405292
0.040141
0.039837
0.0396479
0.0395551
0.0396243
0.0397682
0.0401779
0.0405254
0.0413328
0.0416555
0.0427668
0.0415258
0.0415382
0.041166
0.0408038
0.0403845
0.0400117
0.0396911
0.0394678
0.0393268
0.0393491
0.0394375
0.039837
0.0401482
0.0411173
0.0414495
0.0430594
0.0412112
0.0412287
0.0409287
0.040611
0.0402144
0.0398362
0.0394823
0.0392005
0.0389709
0.0388744
0.0387827
0.0389593
0.0388578
0.0394434
0.0387223
0.04034
0.0410145
0.0410328
0.0407615
0.040457
0.0400594
0.0396616
0.0392689
0.0389302
0.0386242
0.0384367
0.0382323
0.0383223
0.0381017
0.0389116
0.0381485
0.0422323
0.0500765
0.04446
0.0426781
0.0412261
0.0405223
0.0400758
0.0398459
0.0397418
0.0397343
0.0398483
0.0400314
0.04037
0.0407228
0.0412256
0.0416716
0.0420102
0.04592
0.044171
0.0426192
0.041403
0.0406904
0.0402207
0.0399609
0.0398411
0.0398297
0.0399526
0.0401512
0.0405169
0.0408893
0.0414256
0.041839
0.0422887
0.0439062
0.0432904
0.0421794
0.0413242
0.0406897
0.04025
0.0399813
0.0398542
0.0398382
0.0399694
0.0401821
0.0405906
0.0409931
0.0416316
0.042047
0.0427287
0.0427125
0.0425647
0.0418243
0.0412153
0.0406705
0.0402596
0.0399755
0.0398252
0.0397861
0.0399088
0.0401209
0.0405692
0.0410049
0.041775
0.0422354
0.0431257
0.0419935
0.0419693
0.0414573
0.0410067
0.0405411
0.0401603
0.0398647
0.0396846
0.0396011
0.0396781
0.0398289
0.0402384
0.0405843
0.0413737
0.0416857
0.042774
0.0415236
0.0415357
0.0411665
0.0408082
0.0403948
0.0400289
0.0397165
0.0395017
0.0393696
0.0393992
0.0394938
0.0398925
0.0402
0.0411495
0.0414647
0.04305
0.0412081
0.0412253
0.0409282
0.0406142
0.0402231
0.0398515
0.0395052
0.0392314
0.03901
0.0389203
0.0388337
0.0390092
0.0389023
0.0394676
0.0387234
0.0403132
0.0410105
0.0410285
0.04076
0.040459
0.0400666
0.039675
0.0392894
0.0389581
0.0386596
0.0384783
0.038278
0.0383665
0.0381382
0.0389262
0.0381323
0.0421806
0.0595125
0.048757
0.045094
0.0420905
0.0403632
0.0390331
0.0380132
0.0371005
0.036223
0.035327
0.0343324
0.0332542
0.0319566
0.0305547
0.0287965
0.0270047
0.0552514
0.0480142
0.0447314
0.0420104
0.0403353
0.0390303
0.0380184
0.0371112
0.0362401
0.0353541
0.0343697
0.033305
0.0320217
0.0306382
0.0288945
0.0271133
0.0532383
0.0469639
0.0440837
0.0416974
0.0401508
0.0389294
0.037956
0.0370713
0.036215
0.0353439
0.0343757
0.0333298
0.0320735
0.0307214
0.0290155
0.0272651
0.0519906
0.0461573
0.0436132
0.0414589
0.040028
0.0388734
0.0379261
0.0370511
0.0361973
0.0353271
0.0343623
0.0333232
0.0320815
0.0307478
0.0290682
0.0273426
0.0512449
0.0455418
0.0432038
0.0412038
0.039872
0.0387799
0.0378618
0.0369995
0.0361484
0.0352762
0.0343107
0.0332723
0.0320392
0.0307172
0.0290618
0.027361
0.0507632
0.0451094
0.0429065
0.0410037
0.0397425
0.0386939
0.0377963
0.0369403
0.0360871
0.0352088
0.0342388
0.0331972
0.0319702
0.0306574
0.0290285
0.0273553
0.0504589
0.0448192
0.0426886
0.0408396
0.0396212
0.0385987
0.0377132
0.0368583
0.035999
0.0351105
0.0341313
0.0330798
0.0318526
0.0305414
0.0289388
0.0272945
0.0502891
0.0446539
0.0425554
0.0407291
0.0395283
0.0385143
0.0376306
0.0367707
0.0359021
0.0350027
0.0340153
0.0329562
0.0317335
0.0304288
0.0288614
0.0272524
0.0552529
0.0480138
0.0447286
0.0420039
0.0403237
0.0390119
0.0379922
0.0370789
0.0361966
0.0352929
0.0342871
0.0332004
0.0318861
0.0304793
0.028695
0.0269195
0.051068
0.0476356
0.0445534
0.0420546
0.0403845
0.0390669
0.0380298
0.0371052
0.0362168
0.0353113
0.0343063
0.0332238
0.0319167
0.0305245
0.0287571
0.0269945
0.0490537
0.0466807
0.0439848
0.0418148
0.040249
0.0389961
0.0379828
0.0370718
0.0361914
0.0352936
0.0342991
0.0332299
0.0319446
0.0305764
0.0288399
0.0271074
0.0478212
0.045896
0.043548
0.0416117
0.0401556
0.0389624
0.0379685
0.0370615
0.0361781
0.0352775
0.0342841
0.0332197
0.0319477
0.0305965
0.0288851
0.0271755
0.0470816
0.045277
0.0431454
0.0413657
0.0400079
0.0388756
0.03791
0.0370139
0.0361314
0.0352285
0.0342343
0.0331708
0.0319077
0.0305681
0.0288808
0.0271954
0.0466034
0.0448387
0.0428485
0.0411678
0.0398812
0.0387925
0.0378476
0.0369579
0.0360734
0.0351654
0.0341682
0.0331034
0.0318488
0.0305206
0.0288622
0.0272046
0.0463005
0.0445443
0.0426296
0.0410037
0.0397604
0.0386983
0.037766
0.0368779
0.0359884
0.0350715
0.0340668
0.0329939
0.0317414
0.0304162
0.0287872
0.0271578
0.0461313
0.0443775
0.0424963
0.0408938
0.0396687
0.0386159
0.0376856
0.0367932
0.0358962
0.0349702
0.0339598
0.032882
0.031638
0.0303227
0.0287339
0.02714
0.0532643
0.0469891
0.044116
0.0417368
0.0401991
0.0389865
0.0380248
0.0371568
0.0363041
0.0354263
0.0344338
0.0333625
0.0320215
0.0305978
0.0286647
0.0268045
0.0490796
0.0467079
0.044023
0.0418655
0.0403155
0.0390802
0.0380896
0.0372044
0.0363418
0.0354591
0.0344661
0.0333986
0.0320652
0.030657
0.0287416
0.0268973
0.047062
0.0458215
0.0435463
0.0417285
0.0402592
0.0390632
0.0380767
0.0371949
0.0363343
0.0354542
0.0344695
0.0334137
0.0321014
0.0307141
0.0288203
0.0269917
0.0458452
0.0450711
0.0431619
0.0415869
0.0402187
0.03907
0.0380902
0.0372033
0.0363337
0.0354461
0.0344601
0.0334079
0.0321088
0.0307382
0.0288671
0.0270596
0.0451162
0.0444659
0.0427857
0.0413736
0.0401009
0.0390065
0.0380472
0.0371646
0.0362907
0.0353966
0.0344069
0.033353
0.0320613
0.0307002
0.0288525
0.0270688
0.0446452
0.0440326
0.0425
0.0411902
0.039988
0.0389344
0.0379913
0.0371106
0.0362316
0.0353296
0.0343354
0.0332792
0.0319975
0.0306502
0.0288394
0.0270909
0.0443455
0.0437392
0.0422849
0.0410316
0.0398725
0.0388436
0.0379094
0.0370266
0.0361395
0.035225
0.0342196
0.0331509
0.0318693
0.0305224
0.0287508
0.0270381
0.044177
0.043572
0.0421523
0.0409228
0.0397817
0.0387608
0.0378257
0.0369359
0.0360395
0.0351135
0.0341008
0.0330257
0.0317555
0.0304221
0.0287091
0.0270461
0.0520439
0.0462107
0.0436881
0.0415587
0.0401599
0.0390403
0.0381332
0.0373051
0.0364817
0.0356353
0.0346608
0.0336145
0.0322369
0.0307947
0.028628
0.0266391
0.0478749
0.0459514
0.0436301
0.0417256
0.0403101
0.0391618
0.0382204
0.0373697
0.0365318
0.0356786
0.0347032
0.0336616
0.0322933
0.0308701
0.0287193
0.0267482
0.0458724
0.0450982
0.0432051
0.0416505
0.0403088
0.0391888
0.0382409
0.0373842
0.0365417
0.0356875
0.0347192
0.0336888
0.0323409
0.0309345
0.0287871
0.0268029
0.0446727
0.0443711
0.0428521
0.0415465
0.0403027
0.0392232
0.0382737
0.0374052
0.0365488
0.0356844
0.0347136
0.0336869
0.0323524
0.0309622
0.0288298
0.0268581
0.0439561
0.0437799
0.0424946
0.0413553
0.040205
0.0391751
0.0382398
0.0373701
0.0365053
0.0356306
0.0346532
0.0336217
0.0322921
0.0309082
0.0287963
0.0268464
0.0434933
0.0433541
0.042218
0.041182
0.0401009
0.0391086
0.0381854
0.037314
0.036441
0.0355556
0.0345721
0.0335377
0.0322206
0.030855
0.0287926
0.0268904
0.0431974
0.0430638
0.0420065
0.0410269
0.0399877
0.0390176
0.0380996
0.0372224
0.0363373
0.0354342
0.0344343
0.0333803
0.0320594
0.0306888
0.0286817
0.0268288
0.0430296
0.0428968
0.0418741
0.0409179
0.0398956
0.0389317
0.03801
0.0371231
0.0362259
0.0353078
0.0342982
0.0332357
0.0319311
0.0305811
0.0286649
0.0268911
0.0513288
0.0456275
0.0433316
0.0413832
0.0401198
0.0391054
0.0382753
0.0375137
0.0367503
0.0359716
0.0350545
0.0340846
0.0327087
0.0313032
0.0288397
0.0266941
0.0471661
0.045364
0.0432805
0.0415605
0.040281
0.039238
0.0383727
0.0375872
0.0368096
0.0360255
0.0351095
0.0341484
0.0327862
0.0314085
0.0289586
0.0268252
0.045173
0.0445225
0.0428799
0.0415171
0.0403104
0.0392917
0.038415
0.0376185
0.0368333
0.0360477
0.03514
0.0341925
0.0328515
0.0314874
0.029011
0.0268176
0.0439854
0.0438089
0.0425449
0.0414348
0.0403247
0.0393424
0.0384594
0.0376467
0.0368446
0.0360475
0.0351379
0.034196
0.0328705
0.0315253
0.0290529
0.0268597
0.0432787
0.0432282
0.0422006
0.0412588
0.0402409
0.0393044
0.0384308
0.0376119
0.0367967
0.035985
0.035065
0.0341148
0.0327908
0.0314492
0.0289933
0.0268207
0.0428226
0.042809
0.0419314
0.0410928
0.0401427
0.0392407
0.0383752
0.0375505
0.0367227
0.0358965
0.0349675
0.034013
0.0327046
0.0313893
0.0290023
0.0269013
0.0425298
0.0425215
0.0417228
0.0409401
0.0400301
0.0391471
0.0382829
0.0374472
0.0366005
0.0357481
0.0347927
0.0338054
0.0324825
0.0311491
0.0288368
0.0268068
0.0423619
0.0423542
0.0415897
0.0408296
0.0399351
0.0390555
0.0381843
0.0373346
0.0364704
0.0355964
0.0346257
0.0336234
0.0323197
0.0310145
0.0288401
0.0269465
0.0508674
0.0452167
0.0430807
0.0412611
0.0401114
0.0391907
0.0384372
0.0377471
0.0370514
0.0363501
0.035499
0.0346154
0.0332306
0.031852
0.0289464
0.0265726
0.0467081
0.044946
0.0430291
0.0414401
0.0402754
0.0393274
0.0385387
0.0378249
0.037116
0.0364112
0.0355635
0.0346936
0.0333272
0.0319866
0.0290722
0.0266556
0.04472
0.0441061
0.0426355
0.0414076
0.0403168
0.0393929
0.0385907
0.037864
0.0371472
0.036442
0.0356049
0.0347525
0.0334063
0.0320721
0.0290653
0.0264778
0.0435398
0.0433989
0.042308
0.0413336
0.0403388
0.0394494
0.0386383
0.0378928
0.0371577
0.0364408
0.035603
0.0347594
0.0334304
0.0321168
0.0290851
0.0264554
0.0428392
0.042824
0.0419699
0.0411639
0.04026
0.0394139
0.0386088
0.037853
0.0371008
0.0363654
0.0355128
0.0346568
0.0333234
0.0320089
0.0289816
0.0263632
0.0423874
0.0424088
0.0417043
0.0410007
0.040163
0.0393487
0.0385485
0.037783
0.0370142
0.0362606
0.0353963
0.0345356
0.0332226
0.0319484
0.0290186
0.0265099
0.042096
0.0421226
0.0414966
0.0408476
0.0400482
0.03925
0.0384472
0.0376649
0.0368699
0.0360802
0.0351772
0.0342666
0.0329232
0.0316116
0.0287854
0.0263845
0.041927
0.0419541
0.0413618
0.0407345
0.0399487
0.039151
0.0383385
0.0375377
0.0367193
0.0359012
0.0349773
0.0340471
0.0327319
0.0314723
0.0288691
0.026734
0.0505661
0.0449316
0.0428998
0.0411733
0.0401203
0.0392887
0.0386205
0.0380203
0.0374228
0.0368456
0.0361353
0.0354571
0.0342501
0.0331873
0.0301296
0.0278634
0.0464082
0.044655
0.0428458
0.0413511
0.0402845
0.0394261
0.0387232
0.0381013
0.0374924
0.0369147
0.0362112
0.035554
0.0343719
0.0333642
0.0302697
0.0278958
0.0444205
0.0438118
0.0424506
0.0413187
0.0403273
0.0394939
0.0387774
0.0381427
0.0375268
0.0369513
0.0362625
0.0356315
0.0344758
0.0334907
0.030261
0.0276429
0.0432435
0.0431065
0.0421246
0.041246
0.0403499
0.03955
0.038823
0.0381681
0.0375335
0.0369475
0.0362607
0.0356468
0.034517
0.0335739
0.0303056
0.0276202
0.0425455
0.0425337
0.0417882
0.0410773
0.0402705
0.0395121
0.038788
0.0381193
0.0374635
0.0368549
0.0361486
0.0355193
0.0343805
0.0334417
0.030169
0.027494
0.0420952
0.0421199
0.0415234
0.0409137
0.0401712
0.0394423
0.0387198
0.0380371
0.0373602
0.0367288
0.0360066
0.0353723
0.0342574
0.0333809
0.0302353
0.0277256
0.0418036
0.0418334
0.0413146
0.0407583
0.0400517
0.0393358
0.0386061
0.0379
0.0371872
0.0365059
0.0357249
0.035011
0.0338254
0.0328599
0.0297978
0.0274198
0.0416323
0.0416627
0.0411769
0.0406412
0.0399463
0.0392279
0.0384843
0.0377534
0.0370093
0.0362892
0.0354749
0.0347274
0.0335627
0.0326627
0.0298902
0.0279953
0.0503667
0.044739
0.0427798
0.0411225
0.0401479
0.0393932
0.0388038
0.0382875
0.0377812
0.0373129
0.0367192
0.036188
0.0350782
0.0341395
0.0306796
0.0279772
0.0462094
0.0444585
0.0427237
0.041299
0.0403119
0.0395306
0.0389076
0.0383706
0.0378543
0.0373873
0.0368018
0.0362948
0.0352047
0.0343049
0.0306399
0.0273706
0.0442195
0.0436101
0.042323
0.0412617
0.0403509
0.0395953
0.0389591
0.0384105
0.0378882
0.0374257
0.0368574
0.0363826
0.0353137
0.0344273
0.0304814
0.0265284
0.0430426
0.0429039
0.041995
0.0411862
0.04037
0.0396471
0.038999
0.0384297
0.0378883
0.0374165
0.0368517
0.0364
0.0353585
0.0345203
0.0304757
0.0262636
0.0423443
0.0423304
0.0416569
0.0410145
0.0402865
0.0396031
0.0389552
0.0383691
0.0378027
0.0373043
0.036714
0.036243
0.035182
0.0343472
0.0302747
0.0260211
0.0418936
0.0419161
0.0413907
0.0408482
0.0401825
0.0395265
0.0388769
0.0382734
0.0376817
0.0371568
0.036547
0.0360732
0.0350414
0.0343002
0.0304036
0.026362
0.0416001
0.0416277
0.0411793
0.0406887
0.0400568
0.039411
0.0387497
0.0381163
0.0374796
0.036892
0.0362035
0.0356223
0.0344754
0.0335938
0.0297586
0.0258208
0.0414258
0.041454
0.0410379
0.0405669
0.0399444
0.0392937
0.0386146
0.037951
0.0372763
0.036642
0.0359124
0.0352958
0.0341818
0.0334368
0.0300433
0.0269114
0.041207
0.0412334
0.0408583
0.0404232
0.0398406
0.039224
0.0385729
0.0379306
0.0372706
0.0366458
0.0359191
0.0352999
0.03417
0.0334002
0.0299368
0.0267033
0.0412379
0.0412649
0.0408481
0.0403766
0.0397535
0.0390955
0.0384038
0.0377135
0.0369982
0.0362975
0.0354917
0.0347444
0.0335617
0.0326342
0.0297888
0.0278176
0.0413896
0.0414117
0.0409049
0.0403622
0.0396759
0.038964
0.0382221
0.0374782
0.0367006
0.0359102
0.034999
0.0340699
0.0327347
0.0314438
0.0287693
0.0265655
0.0417119
0.0416988
0.0410316
0.0403702
0.0395936
0.0388227
0.0380425
0.0372623
0.036449
0.0356102
0.0346571
0.0336586
0.0323375
0.031003
0.0287668
0.026813
0.0422909
0.0421526
0.0412353
0.0403892
0.0395001
0.0386589
0.0378469
0.0370421
0.0362028
0.035326
0.0343381
0.0332815
0.0319622
0.0305847
0.0286151
0.0267869
0.0433771
0.0427679
0.0414607
0.0403507
0.0393544
0.0384672
0.0376521
0.0368542
0.0360221
0.0351409
0.0341523
0.0330843
0.0318013
0.0304419
0.0286815
0.0269678
0.0452932
0.0435395
0.0417788
0.0403026
0.0392274
0.0383118
0.0375002
0.036705
0.035882
0.0350037
0.0340196
0.0329497
0.0316944
0.0303544
0.0287226
0.0270804
0.0494514
0.0438265
0.0418531
0.0401555
0.0391047
0.0382276
0.0374589
0.0366952
0.0359018
0.0350476
0.0340846
0.0330316
0.0317962
0.0304654
0.0288541
0.0271954
0.041102
0.0411261
0.0407822
0.0403814
0.0398435
0.0392738
0.0386732
0.0380844
0.0374785
0.0369123
0.0362335
0.0356546
0.0344853
0.0335707
0.0296174
0.0255237
0.0411282
0.0411531
0.0407671
0.0403289
0.0397485
0.0391351
0.0384899
0.037848
0.0371801
0.03653
0.0357638
0.0350537
0.0338428
0.0328396
0.0296587
0.0271608
0.0412748
0.0412949
0.0408186
0.0403086
0.0396634
0.0389931
0.0382937
0.0375923
0.0368541
0.0361034
0.035219
0.0343117
0.0329406
0.0315862
0.0286509
0.026149
0.0415923
0.0415773
0.04094
0.0403105
0.0395743
0.0388434
0.0381022
0.0373603
0.0365812
0.0357755
0.034844
0.033863
0.0325169
0.0311446
0.0287422
0.0266266
0.042167
0.042027
0.0411393
0.0403245
0.0394741
0.0386714
0.0378957
0.0371249
0.0363151
0.0354652
0.0344937
0.0334488
0.0321093
0.0307038
0.0286228
0.0266964
0.04325
0.0426395
0.0413621
0.0402828
0.0393243
0.0384733
0.0376941
0.0369287
0.0361229
0.0352655
0.0342914
0.0332335
0.0319369
0.0305583
0.0287244
0.0269452
0.0451652
0.0434114
0.0416807
0.0402349
0.0391961
0.0383155
0.0375364
0.0367714
0.0359743
0.0351178
0.0341471
0.0330863
0.0318217
0.0304675
0.0287843
0.0270934
0.0493234
0.0437003
0.0417568
0.0400899
0.0390758
0.0382342
0.0374981
0.0367655
0.036
0.0351692
0.0342221
0.0331808
0.0319401
0.0305982
0.0289404
0.0272324
0.04103
0.0410525
0.040731
0.0403568
0.0398555
0.0393274
0.0387743
0.0382395
0.0376952
0.0372046
0.0366125
0.0361472
0.0350831
0.0342927
0.0301919
0.0258721
0.0410519
0.0410754
0.0407113
0.0402986
0.0397528
0.0391784
0.0385765
0.0379826
0.037367
0.0367791
0.0360792
0.0354534
0.0343031
0.0333724
0.0300328
0.0273196
0.0411941
0.0412128
0.040758
0.0402731
0.0396608
0.0390259
0.0383656
0.0377057
0.0370103
0.0363074
0.0354682
0.0346137
0.0332625
0.0319284
0.0288302
0.0261629
0.0415074
0.0414911
0.040875
0.0402695
0.0395656
0.0388683
0.0381622
0.0374569
0.0367138
0.0359462
0.035048
0.034103
0.0327642
0.0313972
0.0288792
0.0266531
0.0420787
0.0419375
0.0410705
0.0402791
0.0394593
0.0386887
0.0379453
0.0372063
0.0364266
0.0356068
0.0346593
0.0336378
0.032298
0.0308888
0.0287254
0.0267227
0.0431592
0.0425478
0.0412911
0.0402348
0.0393058
0.0384845
0.0377368
0.0370017
0.0362219
0.03539
0.0344353
0.0333946
0.0320964
0.030712
0.0288209
0.0269865
0.0450737
0.0433198
0.0416102
0.040187
0.0391767
0.0383246
0.0375737
0.0368363
0.0360643
0.0352304
0.0342764
0.0332293
0.0319631
0.0306028
0.0288782
0.0271443
0.0492319
0.0436101
0.0416878
0.0400437
0.0390585
0.038246
0.037538
0.0368337
0.0360949
0.0352879
0.0343591
0.0333332
0.0320933
0.0307468
0.0290509
0.0272987
0.0409814
0.0410027
0.0406972
0.0403427
0.0398692
0.0393732
0.0388559
0.0383598
0.0378551
0.0374045
0.0368436
0.0363947
0.0352983
0.0344045
0.0300146
0.0253067
0.0409996
0.0410221
0.0406735
0.0402799
0.0397601
0.0392159
0.0386471
0.0380881
0.0375073
0.0369541
0.0362796
0.0356687
0.0344889
0.0334847
0.0299256
0.0269412
0.0411381
0.0411558
0.0407164
0.04025
0.0396626
0.0390552
0.0384252
0.0377962
0.0371304
0.036456
0.0356354
0.034791
0.0334111
0.0320212
0.0287531
0.0259037
0.041448
0.0414307
0.0408296
0.040242
0.0395626
0.0388913
0.0382128
0.0375354
0.0368181
0.036075
0.0351924
0.0342564
0.0328966
0.0314923
0.0288586
0.026516
0.0420165
0.0418745
0.0410223
0.0402482
0.0394515
0.038706
0.037988
0.0372739
0.0365167
0.0357177
0.0347832
0.0337692
0.0324143
0.0309796
0.0287376
0.0266587
0.0430951
0.0424831
0.0412411
0.0402018
0.0392953
0.0384974
0.0377745
0.0370631
0.0363037
0.0354906
0.034548
0.0335148
0.0322069
0.0308053
0.0288601
0.0269719
0.0450091
0.0432552
0.0415606
0.0401542
0.0391656
0.0383354
0.0376073
0.0368924
0.0361402
0.035324
0.0343816
0.0333422
0.0320699
0.0306976
0.028934
0.0271591
0.0491673
0.0435465
0.0416393
0.0400123
0.039049
0.0382594
0.037574
0.0368928
0.0361757
0.0353876
0.0344723
0.0334563
0.0322131
0.0308569
0.0291251
0.0273315
0.0409502
0.0409707
0.040677
0.0403377
0.0398864
0.0394168
0.0389302
0.0384689
0.0380026
0.0375946
0.0370769
0.0366697
0.0355934
0.0346827
0.0301399
0.0251599
0.0409653
0.0409871
0.04065
0.0402708
0.0397716
0.0392521
0.0387113
0.0381833
0.0376356
0.0371184
0.0364776
0.0358986
0.0347257
0.0337035
0.030012
0.0268429
0.0411008
0.0411177
0.0406895
0.0402373
0.0396692
0.0390841
0.0384796
0.0378777
0.0372397
0.0365944
0.0357988
0.0349766
0.0335944
0.032185
0.028807
0.0258251
0.0414079
0.04139
0.0407997
0.0402255
0.0395651
0.0389148
0.0382591
0.0376058
0.0369123
0.0361932
0.03533
0.0344105
0.0330467
0.0316267
0.0289139
0.0264825
0.0419742
0.0418316
0.04099
0.040229
0.0394498
0.0387244
0.0380274
0.0373344
0.0365975
0.0358185
0.0348993
0.0338977
0.0325388
0.0310922
0.0287946
0.0266554
0.0430512
0.0424388
0.0412074
0.0401807
0.0392913
0.0385122
0.0378093
0.0371174
0.0363764
0.0355809
0.0346515
0.0336287
0.0323181
0.0309075
0.0289228
0.0269907
0.0449648
0.043211
0.0415271
0.0401331
0.0391609
0.0383476
0.0376384
0.0369427
0.0362074
0.0354072
0.0344768
0.0334466
0.0321729
0.0307938
0.0290011
0.0271921
0.0491231
0.0435029
0.0416066
0.0399924
0.0390458
0.038274
0.037607
0.036945
0.0362464
0.0354754
0.0345733
0.0335678
0.0323248
0.030963
0.0292039
0.0273757
0.0409307
0.0409507
0.040665
0.0403363
0.0399006
0.0394492
0.0389834
0.0385444
0.0381007
0.0377139
0.0372113
0.0368075
0.0357081
0.0347357
0.0300459
0.0248596
0.0409435
0.0409647
0.0406355
0.0402663
0.0397816
0.0392794
0.0387576
0.0382499
0.0377221
0.0372235
0.0365948
0.0360189
0.0348244
0.0337541
0.0299463
0.0266396
0.0410767
0.0410932
0.0406726
0.0402302
0.0396757
0.0391063
0.0385193
0.0379355
0.0373148
0.0366854
0.0358995
0.0350799
0.0336792
0.0322334
0.0287651
0.0256834
0.0413818
0.0413634
0.0407806
0.0402157
0.0395687
0.0389332
0.0382934
0.0376564
0.0369783
0.0362731
0.0354183
0.0345018
0.0331242
0.0316786
0.0289017
0.0264023
0.0419465
0.0418035
0.0409691
0.0402171
0.0394504
0.0387393
0.038057
0.0373786
0.0366554
0.0358887
0.0349771
0.0339789
0.0326106
0.0311467
0.0288045
0.0266183
0.0430223
0.0424096
0.0411854
0.0401675
0.0392902
0.0385246
0.0378359
0.0371577
0.0364294
0.0356454
0.0347235
0.0337047
0.0323881
0.0309656
0.028949
0.0269825
0.0449356
0.0431817
0.0415052
0.0401199
0.0391593
0.0383581
0.0376626
0.0369807
0.0362573
0.0354681
0.0345451
0.0335195
0.0322422
0.0308547
0.0290383
0.0272023
0.0490939
0.0434743
0.0415854
0.0399801
0.0390453
0.0382863
0.0376327
0.0369847
0.0362993
0.0355401
0.0346467
0.0336471
0.0324021
0.0310331
0.0292518
0.0273963
0.0409199
0.0409395
0.0406591
0.0403375
0.0399122
0.0394735
0.0390224
0.0385999
0.0381738
0.0378051
0.0373187
0.036926
0.035824
0.0348257
0.0300541
0.0247303
0.0409311
0.040952
0.0406278
0.0402653
0.0397904
0.0392999
0.0387916
0.0382986
0.0377862
0.037303
0.0366872
0.03612
0.0349203
0.0338285
0.0299535
0.0265571
0.0410626
0.0410789
0.0406633
0.0402273
0.0396819
0.0391232
0.0385484
0.0379777
0.0373702
0.0367538
0.035978
0.0351651
0.0337586
0.0322958
0.0287742
0.0256267
0.0413664
0.0413477
0.0407697
0.0402109
0.0395728
0.0389473
0.0383186
0.0376932
0.0370265
0.0363324
0.035486
0.0345749
0.0331924
0.0317342
0.0289187
0.0263741
0.0419299
0.0417867
0.040957
0.0402109
0.0394524
0.0387509
0.0380787
0.0374107
0.0366975
0.0359403
0.0350357
0.0340422
0.0326706
0.0311979
0.0288285
0.0266109
0.043005
0.0423921
0.0411725
0.0401604
0.0392909
0.0385344
0.0378553
0.0371868
0.0364677
0.0356923
0.0347768
0.0337624
0.0324438
0.031015
0.0289786
0.0269888
0.044918
0.0431642
0.0414924
0.0401127
0.0391597
0.0383665
0.0376803
0.0370079
0.0362931
0.0355119
0.034595
0.0335737
0.0322953
0.0309034
0.0290721
0.0272176
0.0490763
0.0434571
0.041573
0.0399734
0.0390464
0.0382959
0.0376514
0.037013
0.0363369
0.0355863
0.0346996
0.033705
0.0324597
0.0310869
0.0292913
0.0274172
0.040915
0.0409343
0.0406565