/*--------------------------------*- C++ -*----------------------------------*\
| =========                 |                                                 |
| \\      /  F ield         | OpenFOAM: The Open Source CFD Toolbox           |
|  \\    /   O peration     | Version:  v1912                                 |
|   \\  /    A nd           | Website:  www.openfoam.com                      |
|    \\/     M anipulation  |                                                 |
\*---------------------------------------------------------------------------*/
FoamFile
{
    version     2.0;
    format      ascii;
    class       volVectorField;
    location    "0.85/fluid";
    object      U;
}
// * * * * * * * * * * * * * * * * * * * * * * * * * * * * * * * * * * * * * //

dimensions      [0 1 -1 0 0 0 0];


internalField   nonuniform List<vector> 
14592
(
(0.0877175 0.0173276 0.000590426)
(0.07191 0.0119053 0.00104167)
(0.0560767 0.00761866 0.000954672)
(0.0467461 0.00387235 0.000439789)
(0.0407342 0.0018352 -0.000423302)
(0.0373108 0.000784418 -0.00152961)
(0.0351667 0.000320545 -0.00285701)
(0.0337319 0.000121253 -0.0044402)
(0.0324707 3.11807e-05 -0.00637341)
(0.0313158 -4.80334e-05 -0.00880558)
(0.0297979 -0.000161973 -0.011982)
(0.0284045 -0.000415213 -0.0162002)
(0.0257368 -0.000796763 -0.0221244)
(0.0236787 -0.00169289 -0.029789)
(0.016788 -0.00214092 -0.0396742)
(0.00962148 -0.00498566 -0.0372907)
(0.103953 0.0182152 0.00083308)
(0.10332 0.0183175 0.00157033)
(0.0996097 0.0153805 0.00160849)
(0.0950247 0.0109008 0.000956392)
(0.0905928 0.00724935 -0.000360828)
(0.0870225 0.00464908 -0.00222455)
(0.0840827 0.00307683 -0.00457788)
(0.0815786 0.00223371 -0.00744805)
(0.0790756 0.0018541 -0.0109695)
(0.0764574 0.00171178 -0.0153869)
(0.073081 0.00164936 -0.0210989)
(0.0692634 0.00147238 -0.0286233)
(0.0630196 0.00111479 -0.0388797)
(0.0560118 -1.85747e-05 -0.0518421)
(0.0401805 -0.00118631 -0.0666188)
(0.0233507 -0.00518296 -0.0605769)
(0.104003 0.0122474 0.000920567)
(0.108482 0.017049 0.00177186)
(0.111501 0.016728 0.0018795)
(0.112044 0.0137048 0.00123539)
(0.111262 0.0104374 -0.000147969)
(0.109759 0.00770181 -0.00216728)
(0.107836 0.00584858 -0.00476913)
(0.105645 0.00480239 -0.00798149)
(0.103026 0.00438824 -0.0119433)
(0.0999583 0.00439574 -0.016922)
(0.0958069 0.00464694 -0.0233501)
(0.090764 0.00492349 -0.0318306)
(0.082602 0.00511086 -0.0433522)
(0.0727876 0.00450787 -0.0581227)
(0.0520176 0.0031481 -0.0749813)
(0.0290851 -0.00185491 -0.0695407)
(0.102151 0.00787131 0.000957025)
(0.10695 0.0132833 0.00186719)
(0.112066 0.0145522 0.00201505)
(0.115204 0.0133012 0.0013949)
(0.116812 0.0112147 2.85905e-05)
(0.117101 0.00918949 -0.00198045)
(0.116407 0.00773493 -0.00458073)
(0.114976 0.00697193 -0.00780295)
(0.112785 0.00686755 -0.0117855)
(0.109893 0.0073107 -0.0168022)
(0.105693 0.00819421 -0.023289)
(0.100339 0.00935448 -0.0318941)
(0.0914472 0.0106903 -0.0436302)
(0.0803779 0.011438 -0.0589191)
(0.0571979 0.0107976 -0.0766404)
(0.0309328 0.00429926 -0.0723857)
(0.1011 0.00509177 0.000984374)
(0.104979 0.00976794 0.00193935)
(0.110023 0.0116845 0.00212595)
(0.113976 0.0116742 0.0015399)
(0.116758 0.0107274 0.000215571)
(0.118219 0.00959684 -0.00173498)
(0.118552 0.00878875 -0.00425429)
(0.117949 0.00852962 -0.00736979)
(0.116417 0.00889905 -0.011212)
(0.114055 0.00989178 -0.0160513)
(0.110274 0.0114887 -0.0223078)
(0.105236 0.0136102 -0.0306562)
(0.096413 0.0161982 -0.0420925)
(0.0850796 0.0184127 -0.0572742)
(0.060593 0.0187009 -0.0751239)
(0.031881 0.00986438 -0.072164)
(0.100623 0.00337301 0.00101127)
(0.103676 0.00694255 0.0020098)
(0.10817 0.00887702 0.00224219)
(0.11224 0.00954837 0.00170352)
(0.115551 0.00946839 0.000438195)
(0.11774 0.00917049 -0.00143127)
(0.118846 0.00907135 -0.00383684)
(0.118981 0.00942664 -0.00679731)
(0.118132 0.0103886 -0.0104292)
(0.116411 0.0120583 -0.0149918)
(0.113236 0.0145349 -0.0208774)
(0.10878 0.017916 -0.0287755)
(0.100381 0.0223213 -0.0396343)
(0.0892604 0.0270967 -0.0543841)
(0.0639459 0.0302128 -0.0719551)
(0.0331772 0.0196264 -0.070634)
(0.100443 0.00216586 0.00104339)
(0.103022 0.00465987 0.00209023)
(0.107096 0.00633168 0.00237778)
(0.111133 0.00730713 0.00190048)
(0.114716 0.00782202 0.000710373)
(0.117389 0.00820355 -0.0010583)
(0.119098 0.00875002 -0.00332292)
(0.1199 0.0096952 -0.00608593)
(0.119782 0.0112196 -0.00943755)
(0.118888 0.0135007 -0.0136062)
(0.116702 0.0167237 -0.0189207)
(0.11349 0.0211552 -0.0260296)
(0.106595 0.0270527 -0.0357162)
(0.0973168 0.0340257 -0.0491391)
(0.0725863 0.0397137 -0.064941)
(0.0408175 0.0271279 -0.0655155)
(0.100385 0.0011757 0.00108055)
(0.102777 0.00264511 0.00218081)
(0.10669 0.00390766 0.00253018)
(0.110758 0.00496625 0.00212368)
(0.11455 0.00588801 0.0010193)
(0.117577 0.00681677 -0.000637696)
(0.11975 0.00792633 -0.00274912)
(0.121106 0.00940298 -0.00529843)
(0.121643 0.0114324 -0.00834602)
(0.121536 0.0142647 -0.0120832)
(0.120347 0.0181906 -0.0167711)
(0.118413 0.0238037 -0.0230026)
(0.113169 0.0317535 -0.0313936)
(0.106151 0.0434477 -0.0433562)
(0.0828469 0.0575835 -0.0574354)
(0.053572 0.0619899 -0.0615939)
(0.0876859 0.0173306 0.000363024)
(0.0717268 0.011919 0.000625172)
(0.0556577 0.00763115 0.000495195)
(0.0461165 0.0038788 3.37485e-05)
(0.0399081 0.00183915 -0.000716773)
(0.0363001 0.000788506 -0.00168871)
(0.0339502 0.000327702 -0.00287529)
(0.0322588 0.000132253 -0.00430629)
(0.0306625 4.70912e-05 -0.0060605)
(0.0290517 -2.54698e-05 -0.00822962)
(0.026958 -0.000124609 -0.0109981)
(0.0247402 -0.000345198 -0.0144194)
(0.0212409 -0.000653075 -0.0189022)
(0.0176982 -0.00139772 -0.0234016)
(0.0108326 -0.00179815 -0.0275873)
(0.00280245 -0.00366498 -0.0182739)
(0.10391 0.0182303 0.000511258)
(0.103063 0.0183572 0.000934619)
(0.099001 0.0154317 0.000834722)
(0.0940387 0.0109507 0.000194344)
(0.089216 0.00729859 -0.000989716)
(0.0852527 0.00470473 -0.00264887)
(0.0818843 0.00315051 -0.00476009)
(0.0788684 0.00233516 -0.00735887)
(0.0757142 0.00199288 -0.0105641)
(0.072229 0.00189583 -0.0145452)
(0.0677318 0.001894 -0.019602)
(0.0623738 0.00179136 -0.0259184)
(0.0544109 0.00153748 -0.0340165)
(0.0448762 0.000526309 -0.0424233)
(0.0285587 -0.000694655 -0.0490788)
(0.0103705 -0.00418131 -0.0317473)
(0.103963 0.0122724 0.000571534)
(0.10822 0.0171099 0.00106316)
(0.110869 0.0168173 0.000995018)
(0.110999 0.013809 0.000339043)
(0.109774 0.0105546 -0.000918784)
(0.107811 0.00784039 -0.00272384)
(0.105384 0.00602593 -0.00505971)
(0.102597 0.00503803 -0.00796744)
(0.0992284 0.00470414 -0.0115729)
(0.0951703 0.00481158 -0.0160674)
(0.0897304 0.00519055 -0.0217744)
(0.0829293 0.00560763 -0.0289382)
(0.0727505 0.0059563 -0.0380977)
(0.0600249 0.0054476 -0.0477843)
(0.0385085 0.00394237 -0.0554349)
(0.0140575 -0.0013289 -0.0359619)
(0.102114 0.00789793 0.000603231)
(0.106692 0.0133503 0.00113677)
(0.111442 0.0146602 0.00109589)
(0.114172 0.0134423 0.000456589)
(0.115338 0.0113891 -0.000787861)
(0.115166 0.00940797 -0.00258302)
(0.113965 0.00801986 -0.00491521)
(0.111934 0.00735233 -0.00782882)
(0.108988 0.00738013 -0.0114495)
(0.105101 0.00799404 -0.0159753)
(0.0995945 0.00910138 -0.0217286)
(0.0924523 0.0105207 -0.0289871)
(0.0814663 0.0121691 -0.0382861)
(0.067364 0.0131168 -0.0482511)
(0.0432962 0.0123787 -0.0562287)
(0.0153266 0.00488852 -0.0365785)
(0.101065 0.00512092 0.000632636)
(0.104726 0.00984186 0.00120628)
(0.109411 0.0118091 0.0012006)
(0.112968 0.0118482 0.000594323)
(0.115326 0.0109544 -0.000608943)
(0.11635 0.0098904 -0.0023474)
(0.116202 0.00917577 -0.0046027)
(0.115033 0.00904801 -0.00741581)
(0.112785 0.00960031 -0.0109046)
(0.109479 0.0108352 -0.0152645)
(0.104446 0.0127576 -0.0208022)
(0.0976833 0.0152712 -0.0278179)
(0.0867909 0.0183553 -0.0368213)
(0.0724332 0.0209286 -0.0466026)
(0.0469172 0.0212403 -0.0545102)
(0.0162347 0.0107158 -0.0354684)
(0.100589 0.00340516 0.000662699)
(0.103427 0.00702383 0.00127948)
(0.10757 0.00901665 0.0013188)
(0.111259 0.0097504 0.00075967)
(0.114168 0.00974031 -0.000385645)
(0.115951 0.00952938 -0.00204578)
(0.116614 0.00954923 -0.00419364)
(0.116231 0.010071 -0.00686167)
(0.114725 0.0112675 -0.0101543)
(0.112136 0.0132581 -0.0142584)
(0.107793 0.0161823 -0.0194547)
(0.101726 0.0201377 -0.0260624)
(0.0913314 0.025326 -0.0345444)
(0.0772828 0.0307968 -0.0439196)
(0.0508049 0.0343813 -0.0515608)
(0.0177688 0.021428 -0.033677)
(0.10041 0.00220226 0.000697004)
(0.102779 0.00475012 0.00136236)
(0.106511 0.00648613 0.00145626)
(0.110183 0.00753328 0.000957412)
(0.11339 0.00813046 -0.000114713)
(0.115692 0.00861439 -0.0016786)
(0.117005 0.00929942 -0.00369421)
(0.117353 0.0104382 -0.00617904)
(0.116663 0.0122377 -0.00921445)
(0.11502 0.0149026 -0.0129645)
(0.111821 0.0186722 -0.0176596)
(0.107225 0.0238312 -0.0236087)
(0.0985597 0.0307562 -0.0311619)
(0.086722 0.0387272 -0.039624)
(0.0607186 0.0453115 -0.0463353)
(0.0265106 0.0297022 -0.0303688)
(0.100353 0.00121604 0.000734652)
(0.10254 0.00274309 0.00145287)
(0.106121 0.00407382 0.00160734)
(0.109842 0.00520992 0.00117729)
(0.113285 0.0062215 0.00018818)
(0.115979 0.00726269 -0.00126954)
(0.117806 0.00852375 -0.00314125)
(0.118774 0.0102127 -0.00542706)
(0.118831 0.0125466 -0.00818242)
(0.118104 0.0158144 -0.0115436)
(0.11607 0.0203761 -0.0156862)
(0.113005 0.0268847 -0.0209005)
(0.106249 0.0361621 -0.0274178)
(0.0971399 0.0493719 -0.0348743)
(0.0725572 0.0653285 -0.0406908)
(0.040929 0.0662235 -0.0277784)
(0.0876619 0.0173334 0.000206788)
(0.0715863 0.0119305 0.000338907)
(0.055327 0.00764208 0.00018434)
(0.0455997 0.00388503 -0.000225119)
(0.039204 0.00184239 -0.000867993)
(0.0354092 0.0007914 -0.001701)
(0.0328475 0.000332561 -0.00272714)
(0.0308927 0.000139289 -0.00397063)
(0.0289578 5.62617e-05 -0.0054959)
(0.0268834 -1.43078e-05 -0.00735723)
(0.0242101 -0.00010881 -0.00969876)
(0.0211571 -0.000315593 -0.012484)
(0.0168451 -0.000598531 -0.0160178)
(0.0120766 -0.00126559 -0.019243)
(0.00569275 -0.00175796 -0.0217933)
(-0.000949005 -0.00318966 -0.0142996)
(0.103876 0.0182451 0.000289998)
(0.102864 0.0183942 0.000498821)
(0.0985193 0.0154809 0.000312968)
(0.0932306 0.0110014 -0.000294642)
(0.0880486 0.00734974 -0.00133816)
(0.0837044 0.00476182 -0.00277864)
(0.0799109 0.00322357 -0.0046138)
(0.0763867 0.00243286 -0.00687953)
(0.0725966 0.00212401 -0.00967631)
(0.0682728 0.00206753 -0.0131178)
(0.062721 0.00211872 -0.0174304)
(0.0559345 0.00207905 -0.022648)
(0.0465009 0.00190084 -0.0291114)
(0.0350595 0.000971696 -0.0352712)
(0.0192326 -0.00037316 -0.0391349)
(0.00303847 -0.00368806 -0.0245007)
(0.103932 0.0122982 0.000329966)
(0.108018 0.0171698 0.00057517)
(0.11037 0.0169057 0.000395469)
(0.110145 0.0139147 -0.000242711)
(0.108516 0.0106747 -0.00136186)
(0.106113 0.00798091 -0.00293573)
(0.103191 0.00620216 -0.00496941)
(0.099817 0.00526767 -0.00750668)
(0.0957185 0.00500809 -0.0106557)
(0.0907083 0.00520852 -0.0145503)
(0.0840631 0.00570651 -0.0194327)
(0.0756447 0.00625338 -0.0253821)
(0.0637417 0.00674567 -0.0327297)
(0.0488088 0.00631135 -0.0398796)
(0.0276244 0.00464984 -0.044324)
(0.00530831 -0.000948746 -0.0276183)
(0.102086 0.00792653 0.00035645)
(0.106496 0.0134189 0.000630449)
(0.110954 0.0147692 0.000467859)
(0.113332 0.0135855 -0.000159709)
(0.114098 0.0115653 -0.00126888)
(0.113485 0.00962597 -0.00283443)
(0.111786 0.00829941 -0.00486407)
(0.109164 0.00771972 -0.00740547)
(0.105483 0.0078695 -0.0105671)
(0.100636 0.00864067 -0.0144897)
(0.0939031 0.00995349 -0.0194138)
(0.0851082 0.0116069 -0.025447)
(0.0723124 0.0135326 -0.0329106)
(0.0558748 0.01465 -0.0402738)
(0.0319918 0.0138307 -0.0449124)
(0.00609972 0.00551854 -0.0279959)
(0.101039 0.00515217 0.000385004)
(0.104535 0.00991779 0.000693532)
(0.108935 0.0119347 0.000561338)
(0.112153 0.0120226 -3.61089e-05)
(0.114127 0.01118 -0.00110707)
(0.114731 0.0101789 -0.00262077)
(0.114109 0.00955135 -0.0045808)
(0.112379 0.00954525 -0.00703212)
(0.109432 0.010267 -0.0100764)
(0.105211 0.0117253 -0.0138534)
(0.098993 0.0139472 -0.01859)
(0.0906243 0.0168166 -0.0244167)
(0.077921 0.0203477 -0.0316322)
(0.0612042 0.023242 -0.0388472)
(0.0357136 0.0236265 -0.0434344)
(0.00691731 0.0118292 -0.0270617)
(0.100563 0.0034387 0.00041507)
(0.103241 0.00710597 0.000763791)
(0.107107 0.00915533 0.000673146)
(0.11047 0.00994931 0.000119926)
(0.113016 0.0100059 -0.000897024)
(0.114407 0.00987711 -0.00233919)
(0.114632 0.0100082 -0.00420218)
(0.113732 0.0106847 -0.00652378)
(0.11158 0.0120992 -0.00939376)
(0.108145 0.014386 -0.0129459)
(0.102692 0.017722 -0.0173855)
(0.095112 0.0221978 -0.022864)
(0.0829551 0.0280918 -0.0296437)
(0.0666032 0.0341858 -0.0365375)
(0.0399854 0.0382655 -0.0409576)
(0.00855879 0.0236623 -0.0256121)
(0.100386 0.00223879 0.000448697)
(0.102598 0.00483898 0.000843321)
(0.106062 0.00663649 0.000803559)
(0.109424 0.00775189 0.000306538)
(0.112291 0.00842726 -0.000643004)
(0.114234 0.009008 -0.00199771)
(0.115153 0.00982313 -0.00374205)
(0.115042 0.0111431 -0.00590125)
(0.113783 0.0131996 -0.0085458)
(0.111402 0.0162215 -0.0117931)
(0.107226 0.0204992 -0.0158094)
(0.101311 0.0263276 -0.0207509)
(0.0910521 0.0341981 -0.0268009)
(0.0771747 0.0431011 -0.0330404)
(0.0508436 0.050644 -0.0369279)
(0.0178633 0.0330926 -0.0232527)
(0.100329 0.00125503 0.000484535)
(0.102365 0.00283701 0.000928688)
(0.105688 0.00423236 0.000945247)
(0.109116 0.00544152 0.000511798)
(0.112243 0.00653829 -0.000361815)
(0.114613 0.00768578 -0.00161995)
(0.116093 0.00908952 -0.00323498)
(0.116667 0.0109781 -0.00521722)
(0.11624 0.013598 -0.00761529)
(0.114896 0.0172732 -0.0105261)
(0.112041 0.0224305 -0.0140724)
(0.10789 0.0297703 -0.0184077)
(0.0997651 0.0402888 -0.0236312)
(0.0889914 0.0549341 -0.0291283)
(0.0639689 0.0728429 -0.0325067)
(0.0334179 0.0719712 -0.0213106)
(0.0876437 0.017336 0.000104345)
(0.0714789 0.01194 0.000153457)
(0.0550695 0.00765162 -5.35553e-06)
(0.0451884 0.0038908 -0.000356123)
(0.0386337 0.00184572 -0.00088831)
(0.0346802 0.000794966 -0.00157393)
(0.0319468 0.000338779 -0.00241875)
(0.0297934 0.00014928 -0.0034381)
(0.027631 7.15886e-05 -0.00467552)
(0.0252799 9.40167e-06 -0.0061473)
(0.0223331 -6.90672e-05 -0.00793654)
(0.0189508 -0.000239926 -0.00993082)
(0.0145206 -0.000457681 -0.0122726)
(0.0096263 -0.000965543 -0.0140044)
(0.00399514 -0.00134554 -0.0146589)
(-0.00132471 -0.00245586 -0.00864899)
(0.103851 0.0182587 0.000144995)
(0.102712 0.018427 0.000217743)
(0.0981421 0.0155253 -5.0615e-06)
(0.0925852 0.0110485 -0.000550703)
(0.0870987 0.00739806 -0.00143558)
(0.082429 0.00481626 -0.00263671)
(0.0782795 0.00329306 -0.00415977)
(0.0743494 0.00252599 -0.00603245)
(0.0700907 0.0022508 -0.00832652)
(0.0652041 0.00223893 -0.0110981)
(0.0590469 0.00235466 -0.0144792)
(0.0515623 0.00240844 -0.0183777)
(0.0416936 0.00237142 -0.0229053)
(0.029935 0.00166609 -0.0266141)
(0.0153482 0.000500194 -0.0276599)
(0.00147007 -0.00263161 -0.0156764)
(0.103909 0.0123224 0.000170301)
(0.107863 0.0172246 0.000258648)
(0.109981 0.0169868 2.68321e-05)
(0.109464 0.0140126 -0.000555895)
(0.107493 0.0107865 -0.00151259)
(0.104714 0.00811183 -0.0028306)
(0.101375 0.00636521 -0.00452283)
(0.0975251 0.00547893 -0.0066252)
(0.0928769 0.00528782 -0.00921674)
(0.0872103 0.00557751 -0.0123703)
(0.0798442 0.00619681 -0.016227)
(0.0706012 0.0068955 -0.0207234)
(0.0581255 0.00759154 -0.0259422)
(0.0427804 0.00738308 -0.0303505)
(0.0229038 0.00587321 -0.0315955)
(0.00329467 0.000138692 -0.0177251)
(0.102065 0.00795402 0.000191536)
(0.106346 0.0134831 0.000298864)
(0.110574 0.0148705 7.68569e-05)
(0.112664 0.0137183 -0.000499835)
(0.113091 0.0117287 -0.00144968)
(0.112102 0.00982684 -0.00276131)
(0.109983 0.00855441 -0.00445029)
(0.106882 0.00805161 -0.00655636)
(0.102647 0.00830857 -0.0091592)
(0.0971389 0.00921921 -0.012338)
(0.0896732 0.0107174 -0.0162313)
(0.0800406 0.0125919 -0.0207964)
(0.0666401 0.0147974 -0.0260996)
(0.0497612 0.0161595 -0.03064)
(0.0271545 0.0154629 -0.0319293)
(0.00402979 0.00663015 -0.0177884)
(0.10102 0.00518224 0.000217146)
(0.10439 0.00998927 0.000352947)
(0.108567 0.0120514 0.000156006)
(0.111507 0.0121837 -0.000394948)
(0.113157 0.0113874 -0.00131146)
(0.113402 0.0104418 -0.00257823)
(0.112382 0.00988996 -0.00420764)
(0.110198 0.00998845 -0.00623748)
(0.106727 0.0108548 -0.00874196)
(0.101882 0.0125023 -0.0118002)
(0.0949679 0.0149756 -0.0155398)
(0.0858052 0.0181425 -0.0199371)
(0.0725139 0.0220467 -0.0250387)
(0.0553689 0.0252373 -0.0294484)
(0.0310743 0.0257665 -0.0306713)
(0.00495685 0.0131365 -0.0169463)
(0.100545 0.00347055 0.000244725)
(0.1031 0.00718267 0.000415777)
(0.10675 0.0092832 0.000254983)
(0.109848 0.0101315 -0.000257249)
(0.112087 0.0102475 -0.00112632)
(0.113143 0.0101904 -0.00233116)
(0.112999 0.0104172 -0.00387762)
(0.111682 0.0112245 -0.00579778)
(0.10905 0.0128202 -0.00815628)
(0.105046 0.015347 -0.0110285)
(0.098954 0.0190071 -0.0145259)
(0.0906503 0.0238743 -0.0186442)
(0.0779431 0.0302717 -0.0234054)
(0.0612043 0.0367758 -0.0275713)
(0.0356799 0.0411257 -0.0287002)
(0.00675946 0.0254296 -0.0158004)
(0.100368 0.0022727 0.00027528)
(0.102462 0.00492066 0.000487075)
(0.105718 0.00677352 0.000370939)
(0.108828 0.00795001 -9.21404e-05)
(0.111408 0.0086944 -0.000902448)
(0.113044 0.00935916 -0.00203219)
(0.11363 0.0102854 -0.00347806)
(0.11315 0.0117567 -0.00526252)
(0.111468 0.0140232 -0.00743555)
(0.108594 0.0173267 -0.0100626)
(0.103865 0.0219885 -0.0132287)
(0.0973406 0.0282912 -0.0169438)
(0.0866058 0.0367832 -0.0211873)
(0.0724393 0.0462193 -0.0249426)
(0.0470475 0.0541859 -0.0258772)
(0.0162864 0.0353645 -0.0143251)
(0.100312 0.00129039 0.000307288)
(0.102234 0.00292189 0.000562857)
(0.105358 0.00437501 0.000496148)
(0.108549 0.00564908 8.86825e-05)
(0.11141 0.00682056 -0.000655779)
(0.113502 0.00805988 -0.00170288)
(0.114687 0.00958468 -0.00303919)
(0.114941 0.0116384 -0.00467579)
(0.114154 0.014488 -0.00664613)
(0.112402 0.0184754 -0.00900275)
(0.109091 0.0240639 -0.011802)
(0.104461 0.0319525 -0.0150643)
(0.0959577 0.043206 -0.0187267)
(0.0850288 0.0585238 -0.0220269)
(0.0608174 0.0770843 -0.0228401)
(0.0322145 0.0747606 -0.0131978)
(0.0876295 0.0173381 4.20468e-05)
(0.0713964 0.0119476 4.42547e-05)
(0.0548697 0.00765907 -0.000100384)
(0.0448637 0.00389503 -0.000384729)
(0.0381765 0.00184777 -0.000803932)
(0.0340876 0.000796798 -0.00134064)
(0.0312069 0.000342105 -0.00200141)
(0.0288843 0.000154628 -0.00279636)
(0.0265314 7.94778e-05 -0.00375566)
(0.0239528 2.09968e-05 -0.00488066)
(0.0207878 -5.00894e-05 -0.00622359)
(0.0171567 -0.000202319 -0.00767526)
(0.0126558 -0.000386029 -0.00931376)
(0.00774652 -0.0008078 -0.0104288)
(0.00276031 -0.0011272 -0.0106139)
(-0.00151072 -0.00210261 -0.00628713)
(0.103831 0.0182703 5.70528e-05)
(0.102594 0.0184543 5.39383e-05)
(0.0978487 0.0155624 -0.000164307)
(0.0920757 0.0110881 -0.000621231)
(0.086338 0.0074391 -0.00133118)
(0.0813946 0.00486238 -0.00228117)
(0.0769439 0.00335131 -0.00347985)
(0.0726723 0.00260325 -0.00494846)
(0.0680264 0.00235508 -0.00673833)
(0.0626857 0.00237871 -0.00887686)
(0.0560588 0.00254519 -0.0114444)
(0.0480645 0.00267098 -0.0143297)
(0.0379332 0.00274066 -0.0175592)
(0.0261152 0.00219306 -0.0200217)
(0.0126365 0.00114618 -0.020248)
(0.000671768 -0.00196543 -0.0113958)
(0.103891 0.0123432 7.21734e-05)
(0.107744 0.0172713 7.25236e-05)
(0.109678 0.0170558 -0.0001615)
(0.108926 0.0140964 -0.000654945)
(0.106675 0.0108827 -0.00142722)
(0.10358 0.00822431 -0.00247339)
(0.0998884 0.00650458 -0.00380831)
(0.0956389 0.00565841 -0.00546059)
(0.0905356 0.00552435 -0.00748779)
(0.0843378 0.00588834 -0.00993048)
(0.0764094 0.00660841 -0.0128741)
(0.0665602 0.00743269 -0.0162257)
(0.0537254 0.00829635 -0.0199804)
(0.0382734 0.00826898 -0.0229444)
(0.0196014 0.00687385 -0.0232315)
(0.00224654 0.000946639 -0.0129035)
(0.102048 0.00797823 8.83115e-05)
(0.106231 0.0135389 0.000100563)
(0.110279 0.0149579 -0.000128548)
(0.112139 0.013833 -0.000619017)
(0.112287 0.0118697 -0.00138692)
(0.110982 0.00999966 -0.0024286)
(0.108508 0.0087726 -0.00376131)
(0.105004 0.00833386 -0.00541711)
(0.100309 0.00867991 -0.00745441)
(0.0942645 0.00970602 -0.00991931)
(0.0862246 0.011357 -0.0128953)
(0.0759725 0.0134122 -0.0163055)
(0.0621843 0.0158447 -0.0201301)
(0.0451769 0.0174036 -0.0231947)
(0.0237569 0.0168072 -0.0234951)
(0.00295147 0.00752762 -0.0129466)
(0.101004 0.00520886 0.000109507)
(0.10428 0.0100517 0.000143946)
(0.108282 0.0121526 -6.56889e-05)
(0.111 0.0123229 -0.000535498)
(0.112383 0.0115661 -0.00127631)
(0.112328 0.0106676 -0.00228167)
(0.11097 0.0101792 -0.00356659)
(0.108405 0.0103649 -0.00516184)
(0.104497 0.0113515 -0.00712177)
(0.0991437 0.0131552 -0.00949305)
(0.0916827 0.0158349 -0.0123515)
(0.0819308 0.0192438 -0.0156359)
(0.0682587 0.0234483 -0.0193131)
(0.0509878 0.0268779 -0.0222869)
(0.0278136 0.0275297 -0.0225499)
(0.00395811 0.0142505 -0.0123268)
(0.10053 0.00349863 0.00013273)
(0.102993 0.00724955 0.000195979)
(0.106475 0.00939392 1.57494e-05)
(0.109361 0.0102884 -0.000422358)
(0.111349 0.0104549 -0.0011244)
(0.112123 0.0104584 -0.00207953)
(0.111667 0.0107653 -0.00329781)
(0.109998 0.0116817 -0.0048057)
(0.106965 0.0134273 -0.0066503)
(0.102497 0.0161515 -0.00887608)
(0.0959019 0.0200751 -0.0115474)
(0.0870615 0.0252566 -0.0146193)
(0.0739977 0.0320508 -0.018044)
(0.0571547 0.038877 -0.0208444)
(0.0326626 0.0434375 -0.0210657)
(0.005876 0.0269374 -0.0114781)
(0.100354 0.00230226 0.000158353)
(0.102359 0.00499133 0.000255228)
(0.105454 0.00689143 0.00011162)
(0.108364 0.00811982 -0.000286277)
(0.110709 0.00892274 -0.000940528)
(0.112087 0.00965834 -0.00183509)
(0.11239 0.0106777 -0.00297304)
(0.111595 0.0122754 -0.00437368)
(0.109559 0.0147158 -0.00607335)
(0.10628 0.0182506 -0.00811028)
(0.101114 0.0232248 -0.0105312)
(0.0941347 0.0299086 -0.0133056)
(0.083091 0.0388901 -0.0163623)
(0.0688718 0.0487472 -0.0188901)
(0.0443837 0.0570439 -0.0190447)
(0.0155414 0.037331 -0.0104591)
(0.100299 0.0013208 0.000184922)
(0.102136 0.0029946 0.000317854)
(0.105106 0.00449678 0.00021479)
(0.108108 0.00582593 -0.000137716)
(0.110753 0.00706062 -0.000738443)
(0.112611 0.00837733 -0.00156642)
(0.113545 0.0100037 -0.00261685)
(0.113525 0.0121952 -0.0039005)
(0.112436 0.0152351 -0.00544147)
(0.110347 0.0194788 -0.00726959)
(0.106675 0.0254173 -0.00941207)
(0.101688 0.0337452 -0.0118502)
(0.0929456 0.0455749 -0.0144911)
(0.0820442 0.0614236 -0.0167121)
(0.0586205 0.0804929 -0.0168587)
(0.031712 0.0772689 -0.0096606)
(0.0876194 0.0173396 9.81421e-06)
(0.0713372 0.0119533 -7.37946e-06)
(0.0547252 0.00766473 -0.000121913)
(0.0446269 0.00389844 -0.000331069)
(0.0378416 0.00184968 -0.00063249)
(0.0336535 0.000798847 -0.00101548)
(0.0306688 0.000345856 -0.00148483)
(0.0282333 0.000160977 -0.00204539)
(0.0257643 8.95925e-05 -0.00271427)
(0.0230613 3.69934e-05 -0.00348315)
(0.0198033 -2.3607e-05 -0.00437658)
(0.0160918 -0.0001548 -0.00530136)
(0.0116475 -0.000302805 -0.0062854)
(0.00685699 -0.000654807 -0.00685463)
(0.00225275 -0.000912164 -0.00669935)
(-0.00146479 -0.00182667 -0.00380399)
(0.103816 0.0182793 1.18812e-05)
(0.102509 0.0184755 -2.14923e-05)
(0.0976355 0.0155911 -0.000201267)
(0.0917022 0.0111192 -0.000544959)
(0.0857774 0.00747174 -0.0010629)
(0.0806304 0.00489937 -0.00174742)
(0.0759602 0.00339827 -0.00260551)
(0.0714486 0.00266598 -0.0036503)
(0.0665462 0.00244063 -0.00491276)
(0.0609268 0.00249515 -0.0063994)
(0.0540473 0.00270667 -0.00814779)
(0.0458253 0.00289731 -0.0100518)
(0.0356729 0.00306345 -0.0120859)
(0.0240261 0.00265114 -0.0134821)
(0.0112876 0.00171814 -0.0131833)
(0.000470061 -0.0014231 -0.00714082)
(0.103877 0.0123598 2.02814e-05)
(0.107657 0.017308 -1.52007e-05)
(0.109458 0.0171097 -0.000210946)
(0.108532 0.0141623 -0.000584883)
(0.106071 0.0109586 -0.00115098)
(0.10274 0.00831321 -0.00190725)
(0.0987904 0.0066146 -0.00286541)
(0.0942562 0.00579999 -0.00404431)
(0.0888451 0.00571108 -0.0054796)
(0.0823118 0.00613466 -0.00718707)
(0.0740663 0.00693664 -0.00920659)
(0.0639272 0.00786558 -0.0114422)
(0.0510196 0.00887158 -0.0138404)
(0.0357352 0.00900305 -0.015564)
(0.017906 0.0077246 -0.0152498)
(0.00193575 0.00161971 -0.00813796)
(0.102037 0.00799757 3.15664e-05)
(0.106148 0.0135831 3.0629e-06)
(0.110065 0.0150269 -0.000190657)
(0.111754 0.0139235 -0.000563456)
(0.111694 0.0119809 -0.00112704)
(0.110153 0.0101356 -0.00188048)
(0.10742 0.00894345 -0.00283747)
(0.103628 0.0085538 -0.00401952)
(0.0986203 0.00896803 -0.00546314)
(0.0922364 0.0100826 -0.0071883)
(0.0838711 0.0118506 -0.00923345)
(0.073322 0.0140458 -0.0115133)
(0.0594468 0.0166553 -0.0139623)
(0.042603 0.0183752 -0.0157522)
(0.0220234 0.0178741 -0.0154295)
(0.00264806 0.00825504 -0.0081469)
(0.100993 0.00523019 4.73385e-05)
(0.1042 0.0101013 3.46704e-05)
(0.108076 0.0122327 -0.000145193)
(0.11063 0.0124327 -0.000502981)
(0.111814 0.0117066 -0.00104666)
(0.111534 0.0108442 -0.00177351)
(0.10993 0.0104042 -0.00269579)
(0.107091 0.0106558 -0.00383422)
(0.102889 0.0117324 -0.00522262)
(0.0972164 0.0136522 -0.00688173)
(0.0894492 0.0164838 -0.00884501)
(0.0794219 0.0200696 -0.0110384)
(0.0656688 0.0244913 -0.0133877)
(0.0485652 0.028097 -0.0151173)
(0.0261868 0.0288411 -0.0147729)
(0.00371978 0.0150955 -0.00771778)
(0.10052 0.00352105 6.48284e-05)
(0.102917 0.0073026 7.34451e-05)
(0.106277 0.00948131 -8.47909e-05)
(0.109006 0.0104118 -0.000419158)
(0.110806 0.0106173 -0.000934214)
(0.111372 0.010667 -0.00162423)
(0.110686 0.0110344 -0.00249803)
(0.108767 0.012032 -0.00357343)
(0.105464 0.0138878 -0.00487931)
(0.100707 0.0167545 -0.00643529)
(0.0938364 0.0208644 -0.00826752)
(0.0847548 0.0262626 -0.0103142)
(0.071625 0.0333212 -0.0124933)
(0.0549595 0.0403542 -0.0141103)
(0.0312022 0.0450286 -0.0137559)
(0.00571796 0.0279733 -0.00714697)
(0.100344 0.00232568 8.40846e-05)
(0.102286 0.00504707 0.000117714)
(0.105264 0.0069841 -1.34314e-05)
(0.108026 0.00825276 -0.00031809)
(0.110196 0.00910068 -0.000797992)
(0.111382 0.00989013 -0.00144382)
(0.111477 0.0109794 -0.00225955)
(0.110459 0.0126702 -0.00325824)
(0.108184 0.0152368 -0.00446165)
(0.104657 0.0189355 -0.00588608)
(0.0992544 0.0241246 -0.0075473)
(0.0920798 0.0310612 -0.00939566)
(0.0809905 0.0403521 -0.0113394)
(0.0669628 0.050458 -0.0127957)
(0.0431271 0.0589102 -0.0124493)
(0.0154599 0.0386007 -0.00652833)
(0.100289 0.00134467 0.00010393)
(0.102066 0.00305159 0.000164355)
(0.104926 0.00459199 6.32654e-05)
(0.107789 0.00596372 -0.000207876)
(0.110272 0.00724687 -0.00064851)
(0.111956 0.00862216 -0.00124584)
(0.112704 0.0103244 -0.00199839)
(0.11249 0.0126167 -0.00291348)
(0.111198 0.015793 -0.00400485)
(0.108903 0.0202152 -0.00528416)
(0.10504 0.0263884 -0.00675585)
(0.0999119 0.0349968 -0.00838114)
(0.0911552 0.0471708 -0.010061)
(0.0804694 0.0633061 -0.0113399)
(0.0576231 0.0825826 -0.0110548)
(0.0317463 0.0787942 -0.00607128)
(0.0876125 0.0173407 -1.96984e-06)
(0.0712981 0.0119572 -2.05269e-05)
(0.0546295 0.00766838 -9.32604e-05)
(0.0444692 0.00390054 -0.000221929)
(0.0376171 0.00185066 -0.000403985)
(0.0333608 0.000799731 -0.000634484)
(0.0303044 0.000347596 -0.000916277)
(0.0277912 0.000164019 -0.00125196)
(0.025243 9.44493e-05 -0.00165086)
(0.0224564 4.46274e-05 -0.00210596)
(0.0191371 -1.08758e-05 -0.00262948)
(0.015377 -0.000131345 -0.00316366)
(0.0109744 -0.000260942 -0.00371964)
(0.00627686 -0.000577123 -0.00402779)
(0.00192906 -0.000806455 -0.00389628)
(-0.00144343 -0.00169331 -0.00222178)
(0.103806 0.0182854 -4.61526e-06)
(0.102452 0.0184899 -3.69918e-05)
(0.0974942 0.0156106 -0.000154522)
(0.0914535 0.0111404 -0.000368337)
(0.0854018 0.00749397 -0.000684178)
(0.0801158 0.00492451 -0.00109849)
(0.0752952 0.00343006 -0.00161594)
(0.0706197 0.00270828 -0.00224427)
(0.0655437 0.00249811 -0.00300095)
(0.0597388 0.00257309 -0.00388681)
(0.0526956 0.00281419 -0.00491989)
(0.0443358 0.00304679 -0.00603144)
(0.0341878 0.00327438 -0.00719577)
(0.0226885 0.00294412 -0.00796525)
(0.0104536 0.00207396 -0.00770447)
(0.000359324 -0.00110674 -0.00416753)
(0.103869 0.0123711 -3.1325e-07)
(0.1076 0.0173331 -3.59698e-05)
(0.109312 0.0171467 -0.000165223)
(0.108269 0.0142075 -0.000398698)
(0.105666 0.0110109 -0.000744983)
(0.102175 0.00837442 -0.00120358)
(0.0980481 0.00669026 -0.00178225)
(0.0933192 0.00589719 -0.00249228)
(0.0876994 0.00583908 -0.00335415)
(0.080942 0.00630327 -0.00437422)
(0.0724893 0.00716087 -0.00557165)
(0.0621722 0.00816043 -0.00688288)
(0.0492374 0.00926145 -0.00826426)
(0.0341043 0.00949572 -0.00922336)
(0.0168525 0.00828772 -0.00893896)
(0.00175904 0.0020445 -0.00475504)
(0.102029 0.00801101 6.27505e-06)
(0.106094 0.0136137 -2.56397e-05)
(0.109924 0.0150745 -0.000154332)
(0.111497 0.013986 -0.000387487)
(0.111297 0.0120577 -0.000732532)
(0.109596 0.0102294 -0.00118958)
(0.106684 0.00906117 -0.0017677)
(0.102695 0.00870504 -0.00247985)
(0.0974753 0.00916572 -0.00334714)
(0.0908638 0.0103404 -0.00437855)
(0.0822852 0.0121876 -0.00559254)
(0.0715521 0.0144772 -0.00693184)
(0.0576396 0.017205 -0.00834559)
(0.0409445 0.0190306 -0.00934519)
(0.0209427 0.0185883 -0.00905408)
(0.00247568 0.00873293 -0.00476389)
(0.100986 0.00524507 1.59909e-05)
(0.104148 0.0101358 -6.46755e-06)
(0.10794 0.0122881 -0.000126896)
(0.110384 0.0125086 -0.000350934)
(0.111433 0.0118037 -0.00068382)
(0.111001 0.0109662 -0.00112462)
(0.109226 0.0105593 -0.00168163)
(0.106201 0.0108559 -0.0023674)
(0.101798 0.0119938 -0.00320151)
(0.0959113 0.0139925 -0.00419351)
(0.0879429 0.0169267 -0.00535919)
(0.0777446 0.0206317 -0.00664801)
(0.0639565 0.0251981 -0.00800497)
(0.0470018 0.0289208 -0.00897161)
(0.0251714 0.0297234 -0.0086726)
(0.00358654 0.0156638 -0.00451834)
(0.100513 0.0035367 2.68378e-05)
(0.102867 0.00733947 1.7431e-05)
(0.106146 0.00954184 -8.9735e-05)
(0.108771 0.0104971 -0.000299413)
(0.110444 0.0107294 -0.000614735)
(0.110866 0.0108109 -0.001033)
(0.110024 0.0112197 -0.00156052)
(0.107933 0.0122727 -0.0022081)
(0.104446 0.0142034 -0.00299241)
(0.0994954 0.0171665 -0.00392246)
(0.0924431 0.0214018 -0.00500997)
(0.0832122 0.0269451 -0.00621169)
(0.0700559 0.0341781 -0.00746918)
(0.0535435 0.0413475 -0.00837092)
(0.0302926 0.0460933 -0.00807186)
(0.00563556 0.0286737 -0.00418339)
(0.100337 0.00234197 3.87744e-05)