/*--------------------------------*- C++ -*----------------------------------*\
| =========                 |                                                 |
| \\      /  F ield         | OpenFOAM: The Open Source CFD Toolbox           |
|  \\    /   O peration     | Version:  v1912                                 |
|   \\  /    A nd           | Website:  www.openfoam.com                      |
|    \\/     M anipulation  |                                                 |
\*---------------------------------------------------------------------------*/
FoamFile
{
    version     2.0;
    format      ascii;
    class       pointVectorField;
    location    "0.58/solid";
    object      pointDD;
}
// * * * * * * * * * * * * * * * * * * * * * * * * * * * * * * * * * * * * * //

dimensions      [0 1 0 0 0 0 0];


internalField   nonuniform List<vector> 
405
(
(2.03784e-10 3.45602e-10 2.06763e-10)
(8.73626e-11 2.43502e-10 1.47434e-10)
(-4.43889e-12 2.07896e-10 1.29415e-10)
(-9.16494e-11 2.33096e-10 1.33045e-10)
(-1.82744e-10 3.28146e-10 1.85099e-10)
(4.18482e-10 4.29085e-10 5.07417e-10)
(2.4789e-10 4.15789e-10 4.90875e-10)
(-1.34358e-11 3.54362e-10 4.4856e-10)
(-2.63833e-10 4.01053e-10 4.57502e-10)
(-3.91233e-10 4.12599e-10 4.65897e-10)
(5.51716e-10 2.08267e-10 8.45574e-10)
(3.33016e-10 2.30763e-10 8.25779e-10)
(-2.23587e-11 1.93983e-10 7.72664e-10)
(-3.64978e-10 2.27792e-10 7.844e-10)
(-5.36263e-10 2.10362e-10 7.8931e-10)
(5.65171e-10 -4.3734e-11 1.10821e-09)
(3.36393e-10 7.22977e-13 1.08326e-09)
(-3.2233e-11 -1.56902e-11 1.02061e-09)
(-3.87974e-10 8.12287e-12 1.03588e-09)
(-5.67161e-10 -2.53165e-11 1.04202e-09)
(5.56262e-10 -2.81735e-10 1.35096e-09)
(3.22534e-10 -2.38802e-10 1.31789e-09)
(-4.46396e-11 -2.51664e-10 1.2447e-09)
(-3.98778e-10 -2.22575e-10 1.26572e-09)
(-5.80916e-10 -2.4908e-10 1.27703e-09)
(5.8041e-10 -5.34713e-10 1.60416e-09)
(3.32657e-10 -5.0729e-10 1.55875e-09)
(-5.99568e-11 -5.24817e-10 1.47473e-09)
(-4.39299e-10 -4.82968e-10 1.50235e-09)
(-6.33424e-10 -4.88632e-10 1.52333e-09)
(6.82979e-10 -8.84843e-10 1.88581e-09)
(3.9835e-10 -8.68864e-10 1.8282e-09)
(-7.86426e-11 -8.80261e-10 1.73765e-09)
(-5.41787e-10 -8.36143e-10 1.76765e-09)
(-7.70023e-10 -8.24746e-10 1.79826e-09)
(8.70771e-10 -1.46495e-09 2.17428e-09)
(5.13695e-10 -1.43728e-09 2.12921e-09)
(-1.01476e-10 -1.41485e-09 2.04844e-09)
(-7.01133e-10 -1.39199e-09 2.0643e-09)
(-9.96496e-10 -1.38481e-09 2.08006e-09)
(9.75374e-10 -1.84936e-09 2.32762e-09)
(5.77962e-10 -1.81092e-09 2.30461e-09)
(-1.147e-10 -1.75083e-09 2.24738e-09)
(-7.90706e-10 -1.74787e-09 2.24675e-09)
(-1.13858e-09 -1.75103e-09 2.23828e-09)
(1.17794e-10 1.74434e-10 9.29875e-11)
(0 0 0)
(0 0 0)
(0 0 0)
(-8.68076e-11 1.65232e-10 8.53741e-11)
(3.25185e-10 2.52033e-10 3.42578e-10)
(0 0 0)
(0 0 0)
(0 0 0)
(-2.646e-10 2.42795e-10 3.18069e-10)
(4.29892e-10 3.05673e-11 6.30477e-10)
(0 0 0)
(0 0 0)
(0 0 0)
(-3.75779e-10 3.90668e-11 5.90805e-10)
(4.37372e-10 -2.0849e-10 8.79271e-10)
(0 0 0)
(0 0 0)
(0 0 0)
(-3.96275e-10 -1.83749e-10 8.29373e-10)
(4.26717e-10 -4.33494e-10 1.11301e-09)
(0 0 0)
(0 0 0)
(0 0 0)
(-4.04449e-10 -3.93739e-10 1.05504e-09)
(4.47099e-10 -6.64419e-10 1.35364e-09)
(0 0 0)
(0 0 0)
(0 0 0)
(-4.49622e-10 -6.10039e-10 1.28845e-09)
(5.46343e-10 -9.65882e-10 1.60862e-09)
(0 0 0)
(0 0 0)
(0 0 0)
(-5.79052e-10 -8.96359e-10 1.53651e-09)
(7.5121e-10 -1.46566e-09 1.83546e-09)
(0 0 0)
(0 0 0)
(0 0 0)
(-8.17038e-10 -1.37579e-09 1.75722e-09)
(8.68276e-10 -1.80379e-09 1.9565e-09)
(5.10231e-10 -1.75678e-09 1.97172e-09)
(-1.04659e-10 -1.67285e-09 1.95204e-09)
(-7.04092e-10 -1.68584e-09 1.93109e-09)
(-9.98808e-10 -1.69912e-09 1.8855e-09)
(5.22455e-11 7.43299e-11 2.67065e-11)
(0 0 0)
(0 0 0)
(0 0 0)
(-2.15215e-11 6.54182e-11 2.30648e-11)
(1.59138e-10 5.21248e-11 1.55839e-10)
(0 0 0)
(0 0 0)
(0 0 0)
(-9.62148e-11 4.28364e-11 1.42107e-10)
(2.19985e-10 -1.55712e-10 3.7284e-10)
(0 0 0)
(0 0 0)
(0 0 0)
(-1.58162e-10 -1.48553e-10 3.47692e-10)
(2.16228e-10 -3.71415e-10 5.97446e-10)
(0 0 0)
(0 0 0)
(0 0 0)
(-1.62799e-10 -3.4901e-10 5.6338e-10)
(2.01648e-10 -5.74882e-10 8.13424e-10)
(0 0 0)
(0 0 0)
(0 0 0)
(-1.63087e-10 -5.37973e-10 7.71947e-10)
(2.19861e-10 -7.7171e-10 1.02194e-09)
(0 0 0)
(0 0 0)
(0 0 0)
(-2.02519e-10 -7.20541e-10 9.7381e-10)
(3.22273e-10 -1.00549e-09 1.21133e-09)
(0 0 0)
(0 0 0)
(0 0 0)
(-3.31748e-10 -9.39801e-10 1.15717e-09)
(5.42644e-10 -1.39987e-09 1.33383e-09)
(0 0 0)
(0 0 0)
(0 0 0)
(-5.81792e-10 -1.31498e-09 1.27524e-09)
(6.76329e-10 -1.67661e-09 1.37602e-09)
(3.90283e-10 -1.61734e-09 1.40382e-09)
(-8.58303e-11 -1.52321e-09 1.41796e-09)
(-5.4789e-10 -1.54965e-09 1.37508e-09)
(-7.75193e-10 -1.57707e-09 1.32434e-09)
(1.66449e-11 2.83272e-11 1.74598e-11)
(0 0 0)
(0 0 0)
(0 0 0)
(1.42068e-11 1.82118e-11 1.50417e-11)
(6.61022e-11 -4.21361e-11 1.12409e-10)
(0 0 0)
(0 0 0)
(0 0 0)
(-8.72738e-13 -5.43857e-11 1.03155e-10)
(1.00624e-10 -2.49856e-10 2.86075e-10)
(0 0 0)
(0 0 0)
(0 0 0)
(-3.23665e-11 -2.46537e-10 2.68561e-10)
(9.33673e-11 -4.5659e-10 4.79618e-10)
(0 0 0)
(0 0 0)
(0 0 0)
(-2.94972e-11 -4.38523e-10 4.54903e-10)
(8.18247e-11 -6.39701e-10 6.68678e-10)
(0 0 0)
(0 0 0)
(0 0 0)
(-2.91301e-11 -6.07396e-10 6.37573e-10)
(1.04821e-10 -7.99518e-10 8.39949e-10)
(0 0 0)
(0 0 0)
(0 0 0)
(-6.99191e-11 -7.53151e-10 8.03062e-10)
(2.13248e-10 -9.7794e-10 9.72237e-10)
(0 0 0)
(0 0 0)
(0 0 0)
(-2.01935e-10 -9.17293e-10 9.30346e-10)
(4.36943e-10 -1.307e-09 1.02936e-09)
(0 0 0)
(0 0 0)
(0 0 0)
(-4.52418e-10 -1.22733e-09 9.84131e-10)
(5.66601e-10 -1.55807e-09 1.02676e-09)
(3.17351e-10 -1.51127e-09 1.04465e-09)
(-7.15572e-11 -1.42281e-09 1.06415e-09)
(-4.4666e-10 -1.44628e-09 1.02286e-09)
(-6.38944e-10 -1.46313e-09 9.87232e-10)
(2.41222e-12 1.09352e-11 1.98385e-11)
(0 0 0)
(0 0 0)
(0 0 0)
(2.86494e-11 -2.71173e-13 1.81273e-11)
(2.8979e-11 -7.67944e-11 1.03187e-10)
(0 0 0)
(0 0 0)
(0 0 0)
(3.79687e-11 -9.19331e-11 9.67331e-11)
(5.41262e-11 -2.83531e-10 2.43447e-10)
(0 0 0)
(0 0 0)
(0 0 0)
(1.86441e-11 -2.84168e-10 2.31179e-10)
(4.86279e-11 -4.84695e-10 3.99045e-10)
(0 0 0)
(0 0 0)
(0 0 0)
(2.28041e-11 -4.71101e-10 3.81384e-10)
(4.28083e-11 -6.52589e-10 5.50601e-10)
(0 0 0)
(0 0 0)
(0 0 0)
(2.05145e-11 -6.2497e-10 5.27883e-10)
(7.20309e-11 -7.87022e-10 6.81252e-10)
(0 0 0)
(0 0 0)
(0 0 0)
(-2.35519e-11 -7.45403e-10 6.53874e-10)
(1.84625e-10 -9.35077e-10 7.70757e-10)
(0 0 0)
(0 0 0)
(0 0 0)
(-1.56969e-10 -8.79123e-10 7.39404e-10)
(4.06067e-10 -1.23414e-09 7.97732e-10)
(0 0 0)
(0 0 0)
(0 0 0)
(-4.0276e-10 -1.15891e-09 7.63804e-10)
(5.30523e-10 -1.47465e-09 7.80777e-10)
(2.95849e-10 -1.44012e-09 7.83623e-10)
(-6.08375e-11 -1.36053e-09 7.94794e-10)
(-4.03608e-10 -1.37724e-09 7.67356e-10)
(-5.82089e-10 -1.38339e-09 7.51182e-10)
(-2.1622e-12 5.59296e-12 1.86976e-11)
(0 0 0)
(0 0 0)
(0 0 0)
(3.33726e-11 -6.36082e-12 1.75295e-11)
(1.78321e-11 -8.54464e-11 8.68596e-11)
(0 0 0)
(0 0 0)
(0 0 0)
(5.02224e-11 -1.02708e-10 8.24934e-11)
(4.21551e-11 -2.87953e-10 1.93318e-10)
(0 0 0)
(0 0 0)
(0 0 0)
(3.35465e-11 -2.9172e-10 1.85017e-10)
(4.04251e-11 -4.83074e-10 3.08405e-10)
(0 0 0)
(0 0 0)
(0 0 0)
(3.60998e-11 -4.73167e-10 2.96335e-10)
(4.00798e-11 -6.40791e-10 4.18991e-10)
(0 0 0)
(0 0 0)
(0 0 0)
(3.068e-11 -6.17089e-10 4.0325e-10)
(7.43159e-11 -7.61804e-10 5.11062e-10)
(0 0 0)
(0 0 0)
(0 0 0)
(-1.60855e-11 -7.2412e-10 4.91863e-10)
(1.89072e-10 -8.97117e-10 5.69754e-10)
(0 0 0)
(0 0 0)
(0 0 0)
(-1.49487e-10 -8.44946e-10 5.47597e-10)
(4.07086e-10 -1.184e-09 5.83659e-10)
(0 0 0)
(0 0 0)
(0 0 0)
(-3.89921e-10 -1.11222e-09 5.5959e-10)
(5.27977e-10 -1.41903e-09 5.66765e-10)
(2.97994e-10 -1.39197e-09 5.61574e-10)
(-5.30123e-11 -1.31918e-09 5.65204e-10)
(-3.89969e-10 -1.33065e-09 5.50045e-10)
(-5.64222e-10 -1.33056e-09 5.45763e-10)
(-3.24248e-12 4.44931e-12 1.39696e-11)
(0 0 0)
(0 0 0)
(0 0 0)
(3.45459e-11 -7.97456e-12 1.32439e-11)
(1.5885e-11 -8.51404e-11 6.16907e-11)
(0 0 0)
(0 0 0)
(0 0 0)
(5.28491e-11 -1.0379e-10 5.8988e-11)
(4.18979e-11 -2.8229e-10 1.32952e-10)
(0 0 0)
(0 0 0)
(0 0 0)
(3.56269e-11 -2.88201e-10 1.27813e-10)
(4.36485e-11 -4.71651e-10 2.08163e-10)
(0 0 0)
(0 0 0)
(0 0 0)
(3.61213e-11 -4.64359e-10 2.00649e-10)
(4.72941e-11 -6.23057e-10 2.79372e-10)
(0 0 0)
(0 0 0)
(0 0 0)
(2.8325e-11 -6.02186e-10 2.69491e-10)
(8.47878e-11 -7.38105e-10 3.37374e-10)
(0 0 0)
(0 0 0)
(0 0 0)
(-2.00663e-11 -7.03273e-10 3.25225e-10)
(2.0052e-10 -8.69261e-10 3.73019e-10)
(0 0 0)
(0 0 0)
(0 0 0)
(-1.52887e-10 -8.19809e-10 3.58913e-10)
(4.15697e-10 -1.1514e-09 3.80455e-10)
(0 0 0)
(0 0 0)
(0 0 0)
(-3.89095e-10 -1.08208e-09 3.65079e-10)
(5.34036e-10 -1.38346e-09 3.68486e-10)
(3.05071e-10 -1.36043e-09 3.62267e-10)
(-4.76925e-11 -1.29169e-09 3.62471e-10)
(-3.86308e-10 -1.30019e-09 3.54901e-10)
(-5.59834e-10 -1.29695e-09 3.55061e-10)
(-3.36801e-12 4.4316e-12 7.35774e-12)
(0 0 0)
(0 0 0)
(0 0 0)
(3.47223e-11 -8.25111e-12 7.01041e-12)
(1.6094e-11 -8.31714e-11 3.17683e-11)
(0 0 0)
(0 0 0)
(0 0 0)
(5.30105e-11 -1.02599e-10 3.04765e-11)
(4.35741e-11 -2.7619e-10 6.73794e-11)
(0 0 0)
(0 0 0)
(0 0 0)
(3.49517e-11 -2.83332e-10 6.49221e-11)
(4.75263e-11 -4.61521e-10 1.04389e-10)
(0 0 0)
(0 0 0)
(0 0 0)
(3.40466e-11 -4.55764e-10 1.00786e-10)
(5.34727e-11 -6.09496e-10 1.39069e-10)
(0 0 0)
(0 0 0)
(0 0 0)
(2.48718e-11 -5.90311e-10 1.34309e-10)
(9.27176e-11 -7.22242e-10 1.66988e-10)
(0 0 0)
(0 0 0)
(0 0 0)
(-2.43105e-11 -6.89119e-10 1.61109e-10)
(2.08844e-10 -8.52428e-10 1.83875e-10)
(0 0 0)
(0 0 0)
(0 0 0)
(-1.56591e-10 -8.04603e-10 1.77023e-10)
(4.2227e-10 -1.13283e-09 1.87205e-10)
(0 0 0)
(0 0 0)
(0 0 0)
(-3.90211e-10 -1.06497e-09 1.79719e-10)
(5.3901e-10 -1.36344e-09 1.8121e-10)
(3.10117e-10 -1.34233e-09 1.7752e-10)
(-4.46117e-11 -1.27558e-09 1.77065e-10)
(-3.85133e-10 -1.28273e-09 1.73933e-10)
(-5.58749e-10 -1.27808e-09 1.74671e-10)
(7.06632e-12 -1.46997e-12 0)
(6.54972e-12 -1.56492e-11 0)
(2.85387e-13 -2.51088e-11 0)
(-2.40176e-12 -1.97157e-11 0)
(1.89976e-11 -1.47099e-11 0)
(3.05749e-11 -9.04508e-11 0)
(2.25575e-11 -1.16021e-10 0)
(3.12464e-12 -1.34372e-10 0)
(-8.09081e-12 -1.22695e-10 0)
(1.53785e-11 -1.0602e-10 0)
(5.48027e-11 -2.7659e-10 0)
(3.40561e-11 -2.93004e-10 0)
(7.36755e-12 -3.06916e-10 0)
(-1.02503e-11 -2.9548e-10 0)
(1.0583e-12 -2.82535e-10 0)
(5.81342e-11 -4.58475e-10 0)
(3.4405e-11 -4.69886e-10 0)
(8.99042e-12 -4.7951e-10 0)
(-7.67722e-12 -4.66463e-10 0)
(6.78933e-13 -4.53425e-10 0)
(6.36412e-11 -6.09913e-10 0)
(3.5573e-11 -6.30647e-10 0)
(6.95265e-12 -6.43451e-10 0)
(-1.29912e-11 -6.20698e-10 0)
(-8.40019e-12 -5.9324e-10 0)
(1.02736e-10 -7.35605e-10 0)
(5.91873e-11 -7.79368e-10 0)
(1.01732e-12 -7.99974e-10 0)
(-4.82451e-11 -7.62577e-10 0)
(-5.80098e-11 -7.06821e-10 0)
(2.17139e-10 -8.83868e-10 0)
(1.31779e-10 -9.4616e-10 0)
(-9.15988e-12 -9.65286e-10 0)
(-1.40393e-10 -9.22018e-10 0)
(-1.89714e-10 -8.42179e-10 0)
(4.15557e-10 -1.16488e-09 0)
(2.48064e-10 -1.19997e-09 0)
(-2.42796e-11 -1.18831e-09 0)
(-2.84789e-10 -1.16513e-09 0)
(-4.1108e-10 -1.10499e-09 0)
(5.3066e-10 -1.36667e-09 0)
(3.12156e-10 -1.34799e-09 0)
(-3.83948e-11 -1.29652e-09 0)
(-3.75156e-10 -1.29746e-09 0)
(-5.55719e-10 -1.28906e-09 0)
)
;

boundaryField
{
    interface
    {
        type            calculated;
    }
    symmetry
    {
        type            symmetry;
    }
    bottom
    {
        type            calculated;
    }
}


// ************************************************************************* //
