/*--------------------------------*- C++ -*----------------------------------*\
| =========                 |                                                 |
| \\      /  F ield         | OpenFOAM: The Open Source CFD Toolbox           |
|  \\    /   O peration     | Version:  v1912                                 |
|   \\  /    A nd           | Website:  www.openfoam.com                      |
|    \\/     M anipulation  |                                                 |
\*---------------------------------------------------------------------------*/
FoamFile
{
    version     2.0;
    format      ascii;
    class       volScalarField;
    location    "0.58/solid";
    object      T;
}
// * * * * * * * * * * * * * * * * * * * * * * * * * * * * * * * * * * * * * //

dimensions      [0 0 0 1 0 0 0];


internalField   nonuniform List<scalar> 
256
(
291.551
292.19
292.197
291.586
291.21
291.982
291.99
291.251
291.16
291.953
291.961
291.203
291.124
291.933
291.942
291.167
291.068
291.902
291.91
291.112
290.966
291.838
291.847
291.011
290.698
291.624
291.633
290.744
289.625
290.571
290.588
289.691
292.263
292.829
292.83
292.282
292.073
292.772
292.773
292.094
292.045
292.764
292.765
292.067
292.025
292.76
292.761
292.048
291.994
292.754
292.755
292.017
291.931
292.732
292.734
291.955
291.721
292.59
292.592
291.747
290.697
291.623
291.633
290.744
292.407
292.915
292.916
292.424
292.255
292.886
292.886
292.274
292.232
292.882
292.882
292.251
292.214
292.879
292.88
292.234
292.186
292.876
292.876
292.207
292.127
292.86
292.86
292.15
291.93
292.732
292.734
291.955
290.965
291.838
291.847
291.011
292.452
292.926
292.926
292.468
292.31
292.9
292.9
292.328
292.288
292.897
292.897
292.307
292.271
292.895
292.895
292.29
292.243
292.891
292.891
292.263
292.185
292.876
292.876
292.207
291.993
292.753
292.755
292.017
291.066
291.901
291.91
291.112
292.474
292.929
292.929
292.49
292.337
292.904
292.904
292.354
292.315
292.9
292.9
292.333
292.298
292.898
292.898
292.317
292.27
292.895
292.895
292.29
292.213
292.879
292.88
292.234
292.024
292.76
292.761
292.047
291.12
291.931
291.94
291.166
292.487
292.93
292.93
292.503
292.352
292.905
292.905
292.369
292.33
292.902
292.902
292.348
292.313
292.9
292.9
292.332
292.285
292.896
292.897
292.305
292.229
292.881
292.882
292.249
292.041
292.763
292.765
292.065
291.153
291.949
291.958
291.199
292.494
292.931
292.931
292.51
292.361
292.906
292.906
292.377
292.339
292.903
292.903
292.357
292.322
292.901
292.901
292.34
292.294
292.897
292.897
292.313
292.237
292.882
292.883
292.258
292.051
292.765
292.766
292.074
291.172
291.959
291.968
291.217
292.497
292.931
292.931
292.513
292.364
292.907
292.907
292.381
292.343
292.903
292.903
292.36
292.326
292.901
292.901
292.344
292.298
292.898
292.898
292.317
292.241
292.883
292.883
292.262
292.056
292.766
292.767
292.079
291.18
291.964
291.973
291.226
)
;

boundaryField
{
    interface
    {
        type            fixedValue;
        value           nonuniform List<scalar> 
192
(
290.147
289.917
289.845
289.769
289.655
289.467
289.093
288.101
290.937
290.797
290.742
290.681
290.588
290.427
290.083
289.092
291.227
291.113
291.065
291.007
290.918
290.762
290.425
289.464
291.368
291.262
291.216
291.159
291.071
290.915
290.583
289.649
291.448
291.345
291.3
291.244
291.156
291.001
290.673
289.758
291.496
291.395
291.349
291.294
291.206
291.052
290.727
289.825
291.523
291.423
291.378
291.322
291.234
291.081
290.758
289.864
291.535
291.436
291.391
291.335
291.247
291.094
290.772
289.882
290.08
289.853
289.78
289.703
289.589
289.4
289.024
288.031
290.741
290.591
290.534
290.472
290.379
290.218
289.869
288.858
290.771
290.623
290.568
290.507
290.414
290.254
289.906
288.902
290.187
289.968
289.899
289.825
289.714
289.527
289.154
288.177
290.295
290.076
290.009
289.936
289.825
289.639
289.268
288.295
291.069
290.934
290.884
290.826
290.736
290.578
290.238
289.267
291.355
291.246
291.2
291.146
291.061
290.909
290.578
289.639
291.492
291.391
291.347
291.295
291.211
291.06
290.735
289.824
291.57
291.471
291.429
291.377
291.293
291.144
290.823
289.933
291.616
291.519
291.477
291.425
291.342
291.194
290.876
289.999
291.642
291.547
291.505
291.453
291.37
291.223
290.907
290.039
291.655
291.559
291.517
291.465
291.383
291.236
290.921
290.057
288.029
289.021
289.396
289.582
289.691
289.758
289.798
289.816
288.857
289.867
290.214
290.373
290.463
290.518
290.549
290.564
288.901
289.905
290.251
290.41
290.5
290.554
290.586
290.6
288.176
289.152
289.525
289.71
289.82
289.887
289.926
289.945
)
;
    }
    symmetry
    {
        type            symmetry;
    }
    bottom
    {
        type            fixedValue;
        value           uniform 293;
    }
}


// ************************************************************************* //
