/*--------------------------------*- C++ -*----------------------------------*\
| =========                 |                                                 |
| \\      /  F ield         | OpenFOAM: The Open Source CFD Toolbox           |
|  \\    /   O peration     | Version:  v1912                                 |
|   \\  /    A nd           | Website:  www.openfoam.com                      |
|    \\/     M anipulation  |                                                 |
\*---------------------------------------------------------------------------*/
FoamFile
{
    version     2.0;
    format      ascii;
    class       volVectorField;
    location    "0.71/fluid";
    object      cellMotionU;
}
// * * * * * * * * * * * * * * * * * * * * * * * * * * * * * * * * * * * * * //

dimensions      [0 1 -1 0 0 0 0];


internalField   nonuniform List<vector> 
14592
(
(1.3544e-10 -3.07604e-10 2.34743e-10)
(3.78253e-10 -8.59983e-10 6.64512e-10)
(6.03381e-10 -1.3732e-09 1.08764e-09)
(8.19692e-10 -1.8652e-09 1.53202e-09)
(1.03658e-09 -2.34886e-09 2.02434e-09)
(1.26249e-09 -2.82881e-09 2.58865e-09)
(1.50759e-09 -3.30171e-09 3.24916e-09)
(1.78512e-09 -3.75256e-09 4.03025e-09)
(2.11456e-09 -4.14879e-09 4.95709e-09)
(2.52793e-09 -4.42838e-09 6.05605e-09)
(3.08561e-09 -4.47571e-09 7.3588e-09)
(3.91565e-09 -4.06527e-09 8.91974e-09)
(5.31233e-09 -2.71232e-09 1.0879e-08)
(8.01793e-09 7.81219e-10 1.36698e-08)
(1.37157e-08 9.37064e-09 1.84345e-08)
(2.36053e-08 2.63239e-08 2.59557e-08)
(4.02854e-10 -9.13376e-10 6.97789e-10)
(1.12518e-09 -2.55396e-09 1.97538e-09)
(1.794e-09 -4.07905e-09 3.23193e-09)
(2.43696e-09 -5.54374e-09 4.55218e-09)
(3.07898e-09 -6.98445e-09 6.01181e-09)
(3.74614e-09 -8.41873e-09 7.68352e-09)
(4.46746e-09 -9.8398e-09 9.63817e-09)
(5.27968e-09 -1.12088e-08 1.19467e-08)
(6.23423e-09 -1.24395e-08 1.468e-08)
(7.41091e-09 -1.33701e-08 1.79076e-08)
(8.94753e-09 -1.37149e-08 2.16969e-08)
(1.10971e-08 -1.29809e-08 2.61233e-08)
(1.43654e-08 -1.03124e-08 3.13193e-08)
(1.96606e-08 -4.3095e-09 3.75441e-08)
(2.81985e-08 6.77487e-09 4.51456e-08)
(3.87387e-08 2.11835e-08 5.29809e-08)
(6.60681e-10 -1.4922e-09 1.14321e-09)
(1.84484e-09 -4.1737e-09 3.23563e-09)
(2.94064e-09 -6.67054e-09 5.2928e-09)
(3.99102e-09 -9.07333e-09 7.45076e-09)
(5.03715e-09 -1.14469e-08 9.83404e-09)
(6.11988e-09 -1.38256e-08 1.25602e-08)
(7.28433e-09 -1.62091e-08 1.57446e-08)
(8.58496e-09 -1.85512e-08 1.95019e-08)
(1.0093e-08 -2.07417e-08 2.39457e-08)
(1.19091e-08 -2.25738e-08 2.91825e-08)
(1.41853e-08 -2.36976e-08 3.53008e-08)
(1.71688e-08 -2.35602e-08 4.23616e-08)
(2.12764e-08 -2.13645e-08 5.0399e-08)
(2.71597e-08 -1.61891e-08 5.94398e-08)
(3.5526e-08 -7.71254e-09 6.94788e-08)
(4.50859e-08 1.17218e-09 7.9295e-08)
(9.02895e-10 -2.02583e-09 1.56007e-09)
(2.52041e-09 -5.6688e-09 4.41439e-09)
(4.01487e-09 -9.06741e-09 7.21754e-09)
(5.44365e-09 -1.235e-08 1.01536e-08)
(6.86025e-09 -1.56103e-08 1.33895e-08)
(8.31872e-09 -1.8907e-08 1.70843e-08)
(9.87676e-09 -2.22578e-08 2.13936e-08)
(1.16009e-08 -2.56303e-08 2.64726e-08)
(1.35722e-08 -2.89244e-08 3.24749e-08)
(1.58921e-08 -3.19447e-08 3.95432e-08)
(1.86893e-08 -3.43613e-08 4.77889e-08)
(2.213e-08 -3.56692e-08 5.72609e-08)
(2.64306e-08 -3.51851e-08 6.79029e-08)
(3.18422e-08 -3.21957e-08 7.94905e-08)
(3.85384e-08 -2.65354e-08 9.15087e-08)
(4.54619e-08 -2.02883e-08 1.02017e-07)
(1.12418e-09 -2.49614e-09 1.93878e-09)
(3.13715e-09 -6.98853e-09 5.48447e-09)
(4.9931e-09 -1.11896e-08 8.9614e-09)
(6.76046e-09 -1.52637e-08 1.25943e-08)
(8.50392e-09 -1.93372e-08 1.65879e-08)
(1.02872e-08 -2.34975e-08 2.11358e-08)
(1.21777e-08 -2.77911e-08 2.64284e-08)
(1.42505e-08 -3.22179e-08 3.26563e-08)
(1.65924e-08 -3.67185e-08 4.00107e-08)
(1.93031e-08 -4.11545e-08 4.86738e-08)
(2.24896e-08 -4.52775e-08 5.87956e-08)
(2.62535e-08 -4.86865e-08 7.04543e-08)
(3.06594e-08 -5.0779e-08 8.35824e-08)
(3.56671e-08 -5.07224e-08 9.78278e-08)
(4.1064e-08 -4.76192e-08 1.1225e-07)
(4.59792e-08 -4.20515e-08 1.24e-07)
(1.32064e-09 -2.88578e-09 2.272e-09)
(3.68319e-09 -8.08366e-09 6.42421e-09)
(5.85569e-09 -1.2957e-08 1.04877e-08)
(7.91542e-09 -1.7705e-08 1.47211e-08)
(9.93412e-09 -2.24851e-08 1.93577e-08)
(1.1983e-08 -2.74165e-08 2.4619e-08)
(1.41361e-08 -3.25813e-08 3.07218e-08)
(1.64754e-08 -3.80229e-08 3.78849e-08)
(1.90942e-08 -4.37428e-08 4.63312e-08)
(2.20991e-08 -4.96913e-08 5.6283e-08)
(2.56046e-08 -5.57503e-08 6.7945e-08)
(2.97206e-08 -6.16978e-08 8.14747e-08)
(3.45303e-08 -6.7122e-08 9.69317e-08)
(3.99961e-08 -7.11913e-08 1.141e-07)
(4.58192e-08 -7.22277e-08 1.32016e-07)
(5.07838e-08 -6.84273e-08 1.46861e-07)
(1.48888e-09 -3.17818e-09 2.5541e-09)
(4.14998e-09 -8.90794e-09 7.21821e-09)
(6.58941e-09 -1.42948e-08 1.17715e-08)
(8.88943e-09 -1.95676e-08 1.64968e-08)
(1.11268e-08 -2.49125e-08 2.16486e-08)
(1.33763e-08 -3.04791e-08 2.74658e-08)
(1.57156e-08 -3.63845e-08 3.41822e-08)
(1.82308e-08 -4.27182e-08 4.20333e-08)
(2.10217e-08 -4.95465e-08 5.12619e-08)
(2.42084e-08 -5.69173e-08 6.21194e-08)
(2.79341e-08 -6.48658e-08 7.48584e-08)
(3.23923e-08 -7.34232e-08 8.97485e-08)
(3.78363e-08 -8.25904e-08 1.07052e-07)
(4.46115e-08 -9.22058e-08 1.26977e-07)
(5.30121e-08 -1.01378e-07 1.49172e-07)
(6.15589e-08 -1.07009e-07 1.69337e-07)
(1.62735e-09 -3.35916e-09 2.78227e-09)
(4.53271e-09 -9.42137e-09 7.85834e-09)
(7.1867e-09 -1.5137e-08 1.27994e-08)
(9.6737e-09 -2.0758e-08 1.79036e-08)
(1.20709e-08 -2.64927e-08 2.34362e-08)
(1.44535e-08 -3.25152e-08 2.9644e-08)
(1.68988e-08 -3.89716e-08 3.67655e-08)
(1.94921e-08 -4.59887e-08 4.50384e-08)
(2.23339e-08 -5.36838e-08 5.47065e-08)
(2.55486e-08 -6.21781e-08 6.60225e-08)
(2.9303e-08 -7.16216e-08 7.92566e-08)
(3.38398e-08 -8.22362e-08 9.47173e-08)
(3.95661e-08 -9.44057e-08 1.12814e-07)
(4.7214e-08 -1.08817e-07 1.34154e-07)
(5.80408e-08 -1.26477e-07 1.5944e-07)
(7.15616e-08 -1.45719e-07 1.85462e-07)
(1.36606e-10 -3.14409e-10 2.22932e-10)
(3.81409e-10 -8.79106e-10 6.30893e-10)
(6.07745e-10 -1.4041e-09 1.0315e-09)
(8.24599e-10 -1.90819e-09 1.45139e-09)
(1.04027e-09 -2.40441e-09 1.91435e-09)
(1.2628e-09 -2.89865e-09 2.44266e-09)
(1.50088e-09 -3.38853e-09 3.0574e-09)
(1.76528e-09 -3.86088e-09 3.77879e-09)
(2.07105e-09 -4.28671e-09 4.62547e-09)
(2.44248e-09 -4.61215e-09 5.61289e-09)
(2.92461e-09 -4.74077e-09 6.75069e-09)
(3.61085e-09 -4.49776e-09 8.04259e-09)
(4.71511e-09 -3.541e-09 9.4978e-09)
(6.71365e-09 -1.14726e-09 1.11501e-08)
(1.04995e-08 4.09025e-09 1.30204e-08)
(1.60536e-08 1.26047e-08 1.43596e-08)
(4.0639e-10 -9.33505e-10 6.62746e-10)
(1.13443e-09 -2.61045e-09 1.87503e-09)
(1.80734e-09 -4.17045e-09 3.06537e-09)
(2.4513e-09 -5.67006e-09 4.31182e-09)
(3.09044e-09 -7.14832e-09 5.68488e-09)
(3.74828e-09 -8.62475e-09 7.25007e-09)
(4.44986e-09 -1.00956e-08 9.0696e-09)
(5.2248e-09 -1.15266e-08 1.12023e-08)
(6.11233e-09 -1.28412e-08 1.37011e-08)
(7.17061e-09 -1.38983e-08 1.66053e-08)
(8.49642e-09 -1.44596e-08 1.99271e-08)
(1.02701e-08 -1.41388e-08 2.36305e-08)
(1.28193e-08 -1.2351e-08 2.75836e-08)
(1.66801e-08 -8.3345e-09 3.1454e-08)
(2.22594e-08 -1.71465e-09 3.43814e-08)
(2.79313e-08 5.00219e-09 3.47036e-08)
(6.66578e-10 -1.52493e-09 1.08572e-09)
(1.86044e-09 -4.26556e-09 3.07133e-09)
(2.96302e-09 -6.81879e-09 5.01971e-09)
(4.01622e-09 -9.27896e-09 7.05775e-09)
(5.05883e-09 -1.17135e-08 9.3e-09)
(6.12835e-09 -1.41604e-08 1.18531e-08)
(7.26374e-09 -1.66231e-08 1.48183e-08)
(8.50892e-09 -1.90622e-08 1.82919e-08)
(9.91695e-09 -2.13798e-08 2.23598e-08)
(1.15564e-08 -2.33956e-08 2.7085e-08)
(1.35235e-08 -2.4816e-08 3.24815e-08)
(1.59624e-08 -2.52142e-08 3.84689e-08)
(1.90899e-08 -2.40727e-08 4.47919e-08)
(2.31626e-08 -2.10538e-08 5.08679e-08)
(2.8147e-08 -1.68371e-08 5.55366e-08)
(3.24993e-08 -1.43631e-08 5.71165e-08)
(9.11188e-10 -2.07006e-09 1.48156e-09)
(2.54269e-09 -5.79289e-09 4.19048e-09)
(4.04737e-09 -9.26792e-09 6.84561e-09)
(5.48116e-09 -1.26277e-08 9.61866e-09)
(6.8954e-09 -1.59704e-08 1.26638e-08)
(8.33966e-09 -1.93582e-08 1.6125e-08)
(9.86437e-09 -2.28135e-08 2.01396e-08)
(1.15235e-08 -2.63104e-08 2.48389e-08)
(1.33764e-08 -2.97609e-08 3.03419e-08)
(1.54869e-08 -3.29934e-08 3.67386e-08)
(1.79192e-08 -3.57293e-08 4.40557e-08)
(2.07239e-08 -3.75739e-08 5.21929e-08)
(2.39045e-08 -3.80816e-08 6.08112e-08)
(2.73302e-08 -3.70236e-08 6.91307e-08)
(3.05374e-08 -3.50501e-08 7.56342e-08)
(3.24374e-08 -3.42869e-08 7.81428e-08)
(1.13513e-09 -2.55048e-09 1.84149e-09)
(3.16645e-09 -7.14089e-09 5.20666e-09)
(5.03645e-09 -1.14356e-08 8.50038e-09)
(6.81247e-09 -1.56048e-08 1.19325e-08)
(8.55643e-09 -1.9779e-08 1.56915e-08)
(1.03278e-08 -2.405e-08 1.99533e-08)
(1.21862e-08 -2.84686e-08 2.48866e-08)
(1.41941e-08 -3.30398e-08 3.06539e-08)
(1.64158e-08 -3.7713e-08 3.74063e-08)
(1.89124e-08 -4.23661e-08 4.52663e-08)
(2.17246e-08 -4.6784e-08 5.42914e-08)
(2.48348e-08 -5.06392e-08 6.44028e-08)
(2.80903e-08 -5.34938e-08 7.52515e-08)
(3.10635e-08 -5.48811e-08 8.59518e-08)
(3.29234e-08 -5.46628e-08 9.46449e-08)
(3.28438e-08 -5.39143e-08 9.84123e-08)
(1.33413e-09 -2.94836e-09 2.15816e-09)
(3.71977e-09 -8.25922e-09 6.09953e-09)
(5.91075e-09 -1.32407e-08 9.94963e-09)
(7.98322e-09 -1.80981e-08 1.39496e-08)
(1.0007e-08 -2.29941e-08 1.83152e-08)
(1.2049e-08 -2.80521e-08 2.32472e-08)
(1.41766e-08 -3.33574e-08 2.89388e-08)
(1.64597e-08 -3.89572e-08 3.55772e-08)
(1.89717e-08 -4.48567e-08 4.33416e-08)
(2.17834e-08 -5.10123e-08 5.2388e-08)
(2.49486e-08 -5.73177e-08 6.2819e-08)
(2.84699e-08 -6.35784e-08 7.46227e-08)
(3.22125e-08 -6.94452e-08 8.75318e-08)
(3.5742e-08 -7.42688e-08 1.00733e-07)
(3.80617e-08 -7.69168e-08 1.12243e-07)
(3.78565e-08 -7.64615e-08 1.18301e-07)
(1.50506e-09 -3.24698e-09 2.42656e-09)
(4.19388e-09 -9.10096e-09 6.85446e-09)
(6.65625e-09 -1.46067e-08 1.11694e-08)
(8.97407e-09 -2e-08 1.56354e-08)
(1.12221e-08 -2.54724e-08 2.04873e-08)
(1.34719e-08 -3.11773e-08 2.59428e-08)
(1.57956e-08 -3.72347e-08 3.221e-08)
(1.82698e-08 -4.37355e-08 3.94915e-08)
(2.09778e-08 -5.07456e-08 4.79836e-08)
(2.401e-08 -5.83094e-08 5.78666e-08)
(2.74658e-08 -6.64562e-08 6.92885e-08)
(3.14394e-08 -7.51987e-08 8.23083e-08)
(3.60077e-08 -8.45076e-08 9.68151e-08)
(4.11327e-08 -9.41598e-08 1.12226e-07)
(4.63367e-08 -1.03231e-07 1.26733e-07)
(4.97926e-08 -1.08986e-07 1.35799e-07)
(1.64595e-09 -3.43179e-09 2.64371e-09)
(4.58357e-09 -9.62516e-09 7.46361e-09)
(7.26511e-09 -1.54666e-08 1.21471e-08)
(9.77467e-09 -2.12151e-08 1.69724e-08)
(1.21886e-08 -2.70848e-08 2.21846e-08)
(1.45795e-08 -3.32532e-08 2.80089e-08)
(1.70209e-08 -3.98689e-08 3.46578e-08)
(1.95909e-08 -4.70584e-08 4.23362e-08)
(2.23777e-08 -5.49352e-08 5.12413e-08)
(2.5486e-08 -6.3611e-08 6.15574e-08)
(2.90461e-08 -7.32161e-08 7.34403e-08)
(3.32361e-08 -8.39325e-08 8.69948e-08)
(3.83178e-08 -9.60512e-08 1.02207e-07)
(4.46906e-08 -1.10029e-07 1.18743e-07)
(5.27489e-08 -1.26262e-07 1.3522e-07)
(6.11465e-08 -1.4239e-07 1.4699e-07)
(1.3717e-10 -3.20321e-10 2.03124e-10)
(3.82709e-10 -8.95732e-10 5.74498e-10)
(6.09121e-10 -1.43102e-09 9.38709e-10)
(8.24677e-10 -1.94555e-09 1.31906e-09)
(1.03701e-09 -2.45298e-09 1.73681e-09)
(1.25289e-09 -2.96011e-09 2.21093e-09)
(1.47893e-09 -3.46596e-09 2.75868e-09)
(1.72225e-09 -3.9599e-09 3.39513e-09)
(1.99151e-09 -4.41835e-09 4.13153e-09)
(2.29918e-09 -4.79891e-09 4.97123e-09)
(2.66732e-09 -5.03184e-09 5.90277e-09)
(3.1416e-09 -5.00348e-09 6.88714e-09)
(3.81674e-09 -4.52652e-09 7.83255e-09)
(4.89045e-09 -3.26734e-09 8.55242e-09)
(6.64688e-09 -6.70052e-10 8.64259e-09)
(8.77031e-09 3.29189e-09 7.42152e-09)
(4.08085e-10 -9.50985e-10 6.03781e-10)
(1.13853e-09 -2.65959e-09 1.70763e-09)
(1.81161e-09 -4.24992e-09 2.78935e-09)
(2.45208e-09 -5.78024e-09 3.91879e-09)
(3.0818e-09 -7.29146e-09 5.15781e-09)
(3.72077e-09 -8.80554e-09 6.56263e-09)
(4.388e-09 -1.03223e-08 8.18416e-09)
(5.10298e-09 -1.18144e-08 1.00666e-08)
(5.88719e-09 -1.32187e-08 1.22417e-08)
(6.7673e-09 -1.44238e-08 1.47166e-08)
(7.78255e-09 -1.5253e-08 1.745e-08)
(8.99559e-09 -1.54551e-08 2.03041e-08)
(1.05126e-08 -1.47194e-08 2.29665e-08)
(1.24354e-08 -1.27935e-08 2.47794e-08)
(1.46002e-08 -9.88336e-09 2.4559e-08)
(1.59203e-08 -7.54963e-09 2.14399e-08)
(6.69542e-10 -1.55332e-09 9.89154e-10)
(1.86774e-09 -4.34534e-09 2.79725e-09)
(2.97119e-09 -6.94775e-09 4.56798e-09)
(4.01958e-09 -9.45755e-09 6.41488e-09)
(5.0483e-09 -1.19451e-08 8.43859e-09)
(6.08939e-09 -1.44514e-08 1.07306e-08)
(7.17287e-09 -1.69851e-08 1.33742e-08)
(8.32755e-09 -1.95154e-08 1.64424e-08)
(9.58074e-09 -2.19615e-08 1.99888e-08)
(1.09566e-08 -2.41787e-08 2.40285e-08)
(1.24724e-08 -2.59472e-08 2.85003e-08)
(1.41297e-08 -2.69866e-08 3.32003e-08)
(1.58887e-08 -2.70522e-08 3.76697e-08)
(1.75866e-08 -2.62156e-08 4.10298e-08)
(1.87559e-08 -2.53923e-08 4.1924e-08)
(1.86592e-08 -2.62435e-08 3.96919e-08)
(9.15685e-10 -2.10834e-09 1.35005e-09)
(2.5539e-09 -5.90051e-09 3.81662e-09)
(4.06088e-09 -9.44159e-09 6.23016e-09)
(5.48985e-09 -1.28679e-08 8.74349e-09)
(6.88795e-09 -1.62808e-08 1.14924e-08)
(8.29818e-09 -1.97461e-08 1.46006e-08)
(9.76013e-09 -2.32909e-08 1.81816e-08)
(1.13099e-08 -2.68972e-08 2.23361e-08)
(1.29766e-08 -3.04922e-08 2.71413e-08)
(1.47737e-08 -3.39355e-08 3.26276e-08)
(1.66781e-08 -3.70111e-08 3.87322e-08)
(1.85919e-08 -3.94475e-08 4.52218e-08)
(2.0268e-08 -4.10198e-08 5.15635e-08)
(2.12003e-08 -4.18155e-08 5.67545e-08)
(2.06034e-08 -4.26411e-08 5.92805e-08)
(1.82645e-08 -4.45836e-08 5.82277e-08)
(1.14137e-09 -2.59739e-09 1.67806e-09)
(3.18236e-09 -7.2725e-09 4.74281e-09)
(5.05701e-09 -1.16479e-08 7.73716e-09)
(6.82965e-09 -1.58979e-08 1.08484e-08)
(8.55782e-09 -2.01564e-08 1.42426e-08)
(1.02939e-08 -2.45185e-08 1.80712e-08)
(1.20861e-08 -2.90385e-08 2.24742e-08)
(1.39781e-08 -3.37261e-08 2.75773e-08)
(1.60035e-08 -3.85399e-08 3.34819e-08)
(1.81717e-08 -4.33756e-08 4.02401e-08)
(2.04369e-08 -4.80559e-08 4.78059e-08)
(2.26364e-08 -5.23287e-08 5.59517e-08)
(2.43765e-08 -5.58988e-08 6.41259e-08)
(2.48779e-08 -5.85326e-08 7.12529e-08)
(2.30126e-08 -6.02941e-08 7.56192e-08)
(1.87899e-08 -6.16742e-08 7.58335e-08)
(1.34233e-09 -3.00221e-09 1.96696e-09)
(3.74119e-09 -8.41039e-09 5.55695e-09)
(5.93985e-09 -1.34843e-08 9.05777e-09)
(8.01184e-09 -1.84338e-08 1.26847e-08)
(1.00225e-08 -2.34249e-08 1.66277e-08)
(1.20321e-08 -2.85836e-08 2.10603e-08)
(1.40969e-08 -3.39966e-08 2.61429e-08)
(1.62692e-08 -3.97117e-08 3.20218e-08)
(1.85929e-08 -4.57346e-08 3.88191e-08)
(2.10915e-08 -5.2023e-08 4.66108e-08)
(2.37381e-08 -5.8475e-08 5.5378e-08)
(2.63958e-08 -6.49076e-08 6.49216e-08)
(2.87031e-08 -7.10081e-08 7.47228e-08)
(2.98698e-08 -7.62081e-08 8.36851e-08)
(2.85739e-08 -7.95259e-08 8.99273e-08)
(2.42772e-08 -7.99752e-08 9.15385e-08)
(1.5154e-09 -3.30598e-09 2.21189e-09)
(4.22123e-09 -9.26649e-09 6.24581e-09)
(6.69512e-09 -1.48732e-08 1.01701e-08)
(9.01635e-09 -2.03669e-08 1.42207e-08)
(1.12559e-08 -2.5942e-08 1.86046e-08)
(1.34793e-08 -3.17536e-08 2.35099e-08)
(1.5749e-08 -3.79212e-08 2.91101e-08)
(1.81258e-08 -4.45321e-08 3.55638e-08)
(2.06677e-08 -5.16442e-08 4.30066e-08)
(2.34243e-08 -5.92875e-08 5.15307e-08)
(2.64205e-08 -6.7462e-08 6.11372e-08)
(2.96337e-08 -7.61327e-08 7.16734e-08)
(3.2917e-08 -8.51759e-08 8.26515e-08)
(3.58807e-08 -9.42131e-08 9.29868e-08)
(3.76856e-08 -1.02148e-07 1.00609e-07)
(3.72607e-08 -1.06459e-07 1.03006e-07)
(1.65844e-09 -3.49388e-09 2.41031e-09)
(4.61716e-09 -9.79934e-09 6.80218e-09)
(7.3142e-09 -1.57471e-08 1.10627e-08)
(9.83179e-09 -2.16008e-08 1.54404e-08)
(1.2243e-08 -2.75777e-08 2.01518e-08)
(1.46156e-08 -3.38561e-08 2.53915e-08)
(1.70148e-08 -4.05821e-08 3.13374e-08)
(1.95061e-08 -4.78758e-08 3.81498e-08)
(2.21569e-08 -5.58367e-08 4.5965e-08)
(2.50374e-08 -6.45504e-08 5.48749e-08)
(2.82204e-08 -7.40984e-08 6.48908e-08)
(3.17785e-08 -8.4572e-08 7.5868e-08)
(3.57786e-08 -9.60845e-08 8.73554e-08)
(4.02703e-08 -1.08752e-07 9.82761e-08)
(4.52109e-08 -1.22455e-07 1.0638e-07)
(4.97485e-08 -1.34917e-07 1.08336e-07)
(1.37244e-10 -3.2526e-10 1.76203e-10)
(3.82684e-10 -9.09628e-10 4.98239e-10)
(6.08132e-10 -1.45349e-09 8.13309e-10)
(8.21397e-10 -1.97675e-09 1.14171e-09)
(1.02905e-09 -2.49362e-09 1.50074e-09)
(1.2365e-09 -3.01166e-09 1.90594e-09)
(1.44809e-09 -3.53125e-09 2.37051e-09)
(1.66719e-09 -4.04424e-09 2.90469e-09)
(1.89617e-09 -4.53201e-09 3.5135e-09)
(2.13677e-09 -4.96236e-09 4.19236e-09)
(2.39157e-09 -5.2862e-09 4.91893e-09)
(2.66887e-09 -5.43234e-09 5.63997e-09)
(2.99674e-09 -5.29711e-09 6.25691e-09)
(3.43602e-09 -4.70739e-09 6.60062e-09)
(4.07335e-09 -3.33583e-09 6.45183e-09)
(4.74052e-09 -9.52184e-10 5.69896e-09)
(4.08394e-10 -9.65593e-10 5.23809e-10)
(1.13859e-09 -2.70065e-09 1.48079e-09)
(1.8092e-09 -4.31633e-09 2.41719e-09)
(2.44301e-09 -5.87229e-09 3.39191e-09)
(3.05934e-09 -7.41105e-09 4.45689e-09)
(3.6741e-09 -8.95662e-09 5.65759e-09)
(4.2999e-09 -1.05123e-08 7.0331e-09)
(4.94574e-09 -1.20572e-08 8.6135e-09)
(5.61591e-09 -1.35411e-08 1.04132e-08)
(6.30826e-09 -1.48774e-08 1.24172e-08)
(7.01262e-09 -1.59382e-08 1.45565e-08)
(7.71349e-09 -1.65607e-08 1.66711e-08)
(8.3855e-09 -1.65776e-08 1.84453e-08)
(8.98304e-09 -1.58901e-08 1.93566e-08)
(9.36453e-09 -1.46078e-08 1.87372e-08)
(9.26549e-09 -1.33111e-08 1.66723e-08)
(6.70281e-10 -1.57702e-09 8.58224e-10)
(1.86859e-09 -4.41202e-09 2.42584e-09)
(2.96854e-09 -7.05534e-09 3.95869e-09)
(4.00702e-09 -9.60635e-09 5.55289e-09)
(5.01534e-09 -1.21375e-08 7.29252e-09)
(6.01944e-09 -1.46927e-08 9.25186e-09)
(7.03968e-09 -1.7285e-08 1.14952e-08)
(8.08941e-09 -1.98914e-08 1.40729e-08)
(9.17109e-09 -2.24467e-08 1.70109e-08)
(1.02688e-08 -2.48356e-08 2.02904e-08)
(1.13369e-08 -2.68936e-08 2.38125e-08)
(1.22818e-08 -2.84335e-08 2.7344e-08)
(1.2939e-08 -2.93377e-08 3.04502e-08)
(1.30578e-08 -2.97528e-08 3.24614e-08)
(1.23773e-08 -3.03242e-08 3.26856e-08)
(1.11386e-08 -3.17517e-08 3.14609e-08)
(9.17142e-10 -2.14031e-09 1.17126e-09)
(2.55648e-09 -5.99021e-09 3.31039e-09)
(4.05992e-09 -9.58618e-09 5.39978e-09)
(5.47713e-09 -1.30671e-08 7.5695e-09)
(6.85038e-09 -1.65368e-08 9.93296e-09)
(8.21515e-09 -2.00641e-08 1.25908e-08)
(9.59936e-09 -2.36796e-08 1.5631e-08)
(1.10208e-08 -2.7372e-08 1.9124e-08)
(1.24799e-08 -3.10809e-08 2.31103e-08)
(1.39454e-08 -3.46896e-08 2.75756e-08)
(1.53285e-08 -3.80252e-08 3.24098e-08)
(1.64398e-08 -4.08874e-08 3.73465e-08)
(1.69322e-08 -4.31397e-08 4.18964e-08)
(1.62799e-08 -4.49008e-08 4.53331e-08)
(1.40138e-08 -4.67367e-08 4.69366e-08)
(1.08973e-08 -4.90462e-08 4.68856e-08)
(1.14392e-09 -2.63639e-09 1.45619e-09)
(3.1878e-09 -7.382e-09 4.1142e-09)
(5.05983e-09 -1.18239e-08 6.70688e-09)
(6.82067e-09 -1.61394e-08 9.39334e-09)
(8.52241e-09 -2.0465e-08 1.23124e-08)
(1.02094e-08 -2.48976e-08 1.55874e-08)
(1.19174e-08 -2.94932e-08 1.93272e-08)
(1.3671e-08 -3.42646e-08 2.3621e-08)
(1.54742e-08 -3.9175e-08 2.85249e-08)
(1.72922e-08 -4.41303e-08 3.40355e-08)
(1.90162e-08 -4.8972e-08 4.00458e-08)
(2.04014e-08 -5.34795e-08 4.62819e-08)
(2.09765e-08 -5.73952e-08 5.22332e-08)
(1.99802e-08 -6.04874e-08 5.71332e-08)
(1.66408e-08 -6.26713e-08 6.01803e-08)
(1.1892e-08 -6.40506e-08 6.12692e-08)
(1.34632e-09 -3.04692e-09 1.7071e-09)
(3.75045e-09 -8.53568e-09 4.82122e-09)
(5.94859e-09 -1.36853e-08 7.85302e-09)
(8.01036e-09 -1.87087e-08 1.09854e-08)
(9.99587e-09 -2.37739e-08 1.43774e-08)
(1.19573e-08 -2.90075e-08 1.81707e-08)
(1.39389e-08 -3.44956e-08 2.24902e-08)
(1.59745e-08 -4.02835e-08 2.74403e-08)
(1.80803e-08 -4.63723e-08 3.30909e-08)
(2.0238e-08 -5.27118e-08 3.94501e-08)
(2.23632e-08 -5.91878e-08 4.64199e-08)
(2.42483e-08 -6.56001e-08 5.37321e-08)
(2.54594e-08 -7.15994e-08 6.08528e-08)
(2.52355e-08 -7.65614e-08 6.69661e-08)
(2.26078e-08 -7.94165e-08 7.11447e-08)
(1.7932e-08 -7.91716e-08 7.30618e-08)
(1.52104e-09 -3.35478e-09 1.9201e-09)
(4.23523e-09 -9.40318e-09 5.41986e-09)
(6.71146e-09 -1.50922e-08 8.81916e-09)
(9.02554e-09 -2.06655e-08 1.23184e-08)
(1.12435e-08 -2.6319e-08 1.6091e-08)
(1.34235e-08 -3.22073e-08 2.02908e-08)
(1.5617e-08 -3.84461e-08 2.50535e-08)
(1.78682e-08 -4.51157e-08 3.04921e-08)
(2.02101e-08 -5.22598e-08 3.66845e-08)
(2.26551e-08 -5.98834e-08 4.36453e-08)
(2.51804e-08 -6.79473e-08 5.12872e-08)
(2.76904e-08 -7.63427e-08 5.93268e-08)
(2.99757e-08 -8.48337e-08 6.72134e-08)
(3.16524e-08 -9.28779e-08 7.40099e-08)
(3.21906e-08 -9.92456e-08 7.85297e-08)
(3.13874e-08 -1.01778e-07 8.02313e-08)
(1.66594e-09 -3.54508e-09 2.09268e-09)
(4.63638e-09 -9.94271e-09 5.90381e-09)
(7.3393e-09 -1.59765e-08 9.59516e-09)
(9.85375e-09 -2.19131e-08 1.33781e-08)
(1.22485e-08 -2.79704e-08 1.74343e-08)
(1.45851e-08 -3.43251e-08 2.19233e-08)
(1.69191e-08 -4.11181e-08 2.69841e-08)
(1.93018e-08 -4.84579e-08 3.27311e-08)
(2.17795e-08 -5.64234e-08 3.92414e-08)
(2.43916e-08 -6.50649e-08 4.65294e-08)
(2.71667e-08 -7.44036e-08 5.44989e-08)
(3.01168e-08 -8.44295e-08 6.2867e-08)
(3.32372e-08 -9.50906e-08 7.10387e-08)
(3.65472e-08 -1.06266e-07 7.79491e-08)
(4.01808e-08 -1.17617e-07 8.20075e-08)
(4.40388e-08 -1.27431e-07 8.2138e-08)
(1.37006e-10 -3.29183e-10 1.43301e-10)
(3.81717e-10 -9.20639e-10 4.04966e-10)
(6.05741e-10 -1.47125e-09 6.60881e-10)
(8.16198e-10 -2.0015e-09 9.26577e-10)
(1.01875e-09 -2.52575e-09 1.21617e-09)
(1.21749e-09 -3.05236e-09 1.54123e-09)
(1.41475e-09 -3.58263e-09 1.91125e-09)
(1.61081e-09 -4.11041e-09 2.33261e-09)
(1.80337e-09 -4.6203e-09 2.80647e-09)
(1.98701e-09 -5.08698e-09 3.32521e-09)
(2.15365e-09 -5.47195e-09 3.86627e-09)
(2.29689e-09 -5.72309e-09 4.38598e-09)
(2.42077e-09 -5.76447e-09 4.81196e-09)
(2.56327e-09 -5.45681e-09 5.06492e-09)
(2.80281e-09 -4.48699e-09 5.1109e-09)
(3.10539e-09 -2.49938e-09 5.0251e-09)
(4.07742e-10 -9.77191e-10 4.25957e-10)
(1.13605e-09 -2.73325e-09 1.20401e-09)
(1.80258e-09 -4.36905e-09 1.96389e-09)
(2.42831e-09 -5.94521e-09 2.75315e-09)
(3.03007e-09 -7.50575e-09 3.61212e-09)
(3.6198e-09 -9.07588e-09 4.57545e-09)
(4.20446e-09 -1.06616e-08 5.67121e-09)
(4.78449e-09 -1.22469e-08 6.91819e-09)
(5.35138e-09 -1.37902e-08 8.31982e-09)
(5.88424e-09 -1.52198e-08 9.85265e-09)
(6.34825e-09 -1.64344e-08 1.14499e-08)
(6.695e-09 -1.7307e-08 1.2975e-08)
(6.87864e-09 -1.77044e-08 1.42098e-08)
(6.88313e-09 -1.75051e-08 1.48521e-08)
(6.76342e-09 -1.66191e-08 1.46465e-08)
(6.65329e-09 -1.52382e-08 1.38113e-08)
(6.69472e-10 -1.59588e-09 6.97971e-10)
(1.86521e-09 -4.465e-09 1.97252e-09)
(2.95911e-09 -7.14072e-09 3.21679e-09)
(3.98534e-09 -9.72416e-09 4.50765e-09)
(4.97106e-09 -1.22891e-08 5.91092e-09)
(5.93657e-09 -1.48816e-08 7.48317e-09)
(6.89372e-09 -1.75179e-08 9.27079e-09)
(7.84323e-09 -2.01805e-08 1.13057e-08)
(8.76923e-09 -2.28137e-08 1.35958e-08)
(9.63124e-09 -2.53199e-08 1.61089e-08)
(1.03524e-08 -2.75604e-08 1.87462e-08)
(1.08111e-08 -2.93814e-08 2.13143e-08)
(1.08461e-08 -3.06783e-08 2.35077e-08)
(1.03158e-08 -3.15192e-08 2.49511e-08)
(9.28678e-09 -3.22723e-08 2.54184e-08)
(8.39248e-09 -3.33293e-08 2.52918e-08)
(9.16556e-10 -2.1657e-09 9.52842e-10)
(2.55331e-09 -6.0615e-09 2.69195e-09)
(4.04974e-09 -9.70075e-09 4.38838e-09)
(5.45182e-09 -1.32241e-08 6.14549e-09)
(6.79712e-09 -1.67374e-08 8.05231e-09)
(8.11393e-09 -2.03108e-08 1.01856e-08)
(9.41996e-09 -2.39773e-08 1.26091e-08)
(1.0718e-08 -2.77293e-08 1.53682e-08)
(1.19881e-08 -3.1513e-08 1.84783e-08)
(1.31722e-08 -3.52226e-08 2.19051e-08)
(1.4153e-08 -3.8702e-08 2.55349e-08)
(1.47246e-08 -4.17663e-08 2.9145e-08)
(1.4576e-08 -4.42698e-08 3.23929e-08)
(1.3353e-08 -4.62405e-08 3.48831e-08)
(1.09804e-08 -4.80174e-08 3.63992e-08)
(8.53383e-09 -4.98595e-08 3.71787e-08)
(1.1439e-09 -2.66739e-09 1.18466e-09)
(3.18601e-09 -7.46877e-09 3.34617e-09)
(5.05108e-09 -1.19629e-08 5.45151e-09)
(6.79585e-09 -1.6329e-08 7.62749e-09)
(8.46691e-09 -2.07047e-08 9.98299e-09)
(1.01011e-08 -2.51878e-08 1.26124e-08)
(1.17234e-08 -2.98346e-08 1.55949e-08)
(1.33426e-08 -3.46578e-08 1.89884e-08)
(1.49419e-08 -3.96203e-08 2.28171e-08)
(1.64617e-08 -4.46276e-08 2.70497e-08)
(1.77692e-08 -4.95195e-08 3.15675e-08)
(1.86157e-08 -5.40673e-08 3.61337e-08)
(1.8589e-08 -5.79817e-08 4.03822e-08)
(1.71355e-08 -6.09505e-08 4.38984e-08)
(1.39001e-08 -6.27557e-08 4.64353e-08)
(1.00542e-08 -6.35264e-08 4.80448e-08)
(1.34726e-09 -3.08233e-09 1.38908e-09)
(3.75122e-09 -8.63473e-09 3.92188e-09)
(5.94363e-09 -1.38434e-08 6.38426e-09)
(7.9899e-09 -1.89231e-08 8.92194e-09)
(9.94502e-09 -2.40426e-08 1.16599e-08)
(1.18535e-08 -2.9328e-08 1.47065e-08)
(1.37487e-08 -3.48627e-08 1.81529e-08)
(1.56496e-08 -4.06871e-08 2.20674e-08)
(1.75528e-08 -4.67937e-08 2.64813e-08)
(1.94178e-08 -5.31176e-08 3.13673e-08)
(2.11417e-08 -5.95223e-08 3.6605e-08)
(2.25169e-08 -6.57676e-08 4.19358e-08)
(2.31814e-08 -7.1449e-08 4.69681e-08)
(2.25877e-08 -7.5868e-08 5.12243e-08)
(2.01818e-08 -7.79281e-08 5.43884e-08)
(1.65268e-08 -7.6887e-08 5.64479e-08)
(1.52322e-09 -3.39334e-09 1.56258e-09)
(4.23953e-09 -9.51088e-09 4.40966e-09)
(6.7121e-09 -1.52637e-08 7.17105e-09)
(9.01301e-09 -2.0897e-08 1.00066e-08)
(1.1203e-08 -2.66068e-08 1.30528e-08)
(1.33334e-08 -3.25455e-08 1.64275e-08)
(1.54457e-08 -3.88241e-08 2.02298e-08)
(1.75703e-08 -4.55127e-08 2.45334e-08)
(1.97229e-08 -5.26386e-08 2.93738e-08)
(2.1897e-08 -6.01798e-08 3.47249e-08)
(2.40508e-08 -6.80517e-08 4.04529e-08)
(2.60963e-08 -7.60833e-08 4.62882e-08)
(2.78822e-08 -8.39479e-08 5.17652e-08)
(2.92203e-08 -9.10219e-08 5.62817e-08)
(2.9961e-08 -9.61252e-08 5.93329e-08)
(3.0105e-08 -9.75986e-08 6.09486e-08)
(1.66961e-09 -3.58541e-09 1.70337e-09)
(4.64492e-09 -1.00553e-08 4.80426e-09)
(7.34708e-09 -1.61555e-08 7.80346e-09)
(9.85155e-09 -2.21539e-08 1.08698e-08)
(1.22228e-08 -2.82679e-08 1.41463e-08)
(1.45159e-08 -3.4671e-08 1.77556e-08)
(1.67779e-08 -4.1497e-08 2.17991e-08)
(1.90481e-08 -4.88412e-08 2.63514e-08)
(2.13578e-08 -5.67605e-08 3.14463e-08)
(2.37293e-08 -6.5269e-08 3.70515e-08)
(2.61764e-08 -7.43324e-08 4.30289e-08)
(2.87103e-08 -8.38599e-08 4.90756e-08)
(3.13707e-08 -9.36958e-08 5.46683e-08)
(3.43252e-08 -1.0363e-07 5.90384e-08)
(3.80261e-08 -1.13409e-07 6.13546e-08)
(4.25993e-08 -1.21941e-07 6.14443e-08)
(1.36607e-10 -3.32053e-10 1.05668e-10)
(3.80415e-10 -9.28726e-10 2.98698e-10)
(6.02893e-10 -1.48437e-09 4.869e-10)
(8.10542e-10 -2.01938e-09 6.82284e-10)
(1.0087e-09 -2.54948e-09 8.9444e-10)
(1.1999e-09 -3.08232e-09 1.13153e-09)
(1.38508e-09 -3.62018e-09 1.39982e-09)
(1.56248e-09 -4.15795e-09 1.70293e-09)
(1.72699e-09 -4.68236e-09 2.04038e-09)
(1.86981e-09 -5.17061e-09 2.40506e-09)
(1.97961e-09 -5.58867e-09 2.77982e-09)
(2.04771e-09 -5.88836e-09 3.13449e-09)
(2.08232e-09 -5.9958e-09 3.4328e-09)
(2.13168e-09 -5.76256e-09 3.64426e-09)
(2.29833e-09 -4.85648e-09 3.80302e-09)
(2.57826e-09 -2.89262e-09 3.96757e-09)
(4.06688e-10 -9.8576e-10 3.14234e-10)
(1.13243e-09 -2.75735e-09 8.87742e-10)
(1.79449e-09 -4.4077e-09 1.44742e-09)
(2.41288e-09 -5.9995e-09 2.02745e-09)
(3.00118e-09 -7.57543e-09 2.65672e-09)
(3.56901e-09 -9.16309e-09 3.35937e-09)
(4.11888e-09 -1.07697e-08 4.15392e-09)
(4.64544e-09 -1.2382e-08 5.05114e-09)
(5.13261e-09 -1.39627e-08 6.04952e-09)
(5.55118e-09 -1.54473e-08 7.12755e-09)
(5.85912e-09 -1.67418e-08 8.23327e-09)
(6.01109e-09 -1.77246e-08 9.27805e-09)
(5.98544e-09 -1.82486e-08 1.01291e-08)
(5.8371e-09 -1.81344e-08 1.06403e-08)
(5.74928e-09 -1.7168e-08 1.0712e-08)
(5.90688e-09 -1.54895e-08 1.04279e-08)
(6.67997e-10 -1.60985e-09 5.14907e-10)
(1.86002e-09 -4.5042e-09 1.45454e-09)
(2.94757e-09 -7.20418e-09 2.37103e-09)
(3.96162e-09 -9.81083e-09 3.31974e-09)
(4.92704e-09 -1.24006e-08 4.34792e-09)
(5.85871e-09 -1.50194e-08 5.49485e-09)
(6.76235e-09 -1.76855e-08 6.79131e-09)
(7.63017e-09 -2.03844e-08 8.25593e-09)
(8.43594e-09 -2.30648e-08 9.88801e-09)
(9.1284e-09 -2.56347e-08 1.16564e-08)
(9.62597e-09 -2.79616e-08 1.34853e-08)
(9.82022e-09 -2.9889e-08 1.52442e-08)
(9.60574e-09 -3.12782e-08 1.67505e-08)
(8.96987e-09 -3.21045e-08 1.78182e-08)
(8.16716e-09 -3.25823e-08 1.8373e-08)
(7.80634e-09 -3.31249e-08 1.8579e-08)
(9.14993e-10 -2.18459e-09 7.02819e-10)
(2.54761e-09 -6.1144e-09 1.98545e-09)
(4.03603e-09 -9.78536e-09 3.23494e-09)
(5.42368e-09 -1.33402e-08 4.52659e-09)
(6.74295e-09 -1.6884e-08 5.92381e-09)
(8.01734e-09 -2.04889e-08 7.48026e-09)
(9.25665e-09 -2.41886e-08 9.23835e-09)
(1.04538e-08 -2.79763e-08 1.12249e-08)
(1.15772e-08 -3.17998e-08 1.34423e-08)
(1.25591e-08 -3.55543e-08 1.58549e-08)
(1.32819e-08 -3.90814e-08 1.83736e-08)
(1.35672e-08 -4.21824e-08 2.08457e-08)
(1.31889e-08 -4.46695e-08 2.30649e-08)
(1.19629e-08 -4.64744e-08 2.48369e-08)
(1.00252e-08 -4.78189e-08 2.60918e-08)
(8.33319e-09 -4.90683e-08 2.68766e-08)
(1.14258e-09 -2.69036e-09 8.74065e-10)
(3.18086e-09 -7.53316e-09 2.46826e-09)
(5.03778e-09 -1.20658e-08 4.01928e-09)
(6.76604e-09 -1.64679e-08 5.61895e-09)
(8.40874e-09 -2.08788e-08 7.34527e-09)
(9.9959e-09 -2.53954e-08 9.26415e-09)
(1.15445e-08 -3.00733e-08 1.14284e-08)
(1.3053e-08 -3.4923e-08 1.38725e-08)
(1.44935e-08 -3.99034e-08 1.66031e-08)
(1.57984e-08 -4.49133e-08 1.95833e-08)
(1.68404e-08 -4.97792e-08 2.27167e-08)
(1.74094e-08 -5.4248e-08 2.58343e-08)
(1.71961e-08 -5.79834e-08 2.87118e-08)
(1.58415e-08 -6.06038e-08 3.11418e-08)
(1.32053e-08 -6.18388e-08 3.30373e-08)
(1.02712e-08 -6.19915e-08 3.43283e-08)
(1.34659e-09 -3.10864e-09 1.025e-09)
(3.74762e-09 -8.70806e-09 2.8934e-09)
(5.93223e-09 -1.39598e-08 4.70769e-09)
(7.96277e-09 -1.908e-08 6.57362e-09)
(9.88871e-09 -2.42364e-08 8.58063e-09)
(1.17492e-08 -2.95544e-08 1.08046e-08)
(1.35694e-08 -3.51143e-08 1.33064e-08)
(1.53582e-08 -4.09502e-08 1.61268e-08)
(1.71025e-08 -4.70445e-08 1.92755e-08)
(1.87554e-08 -5.3316e-08 2.27151e-08)
(2.02225e-08 -5.96028e-08 2.63395e-08)
(2.13411e-08 -6.563e-08 2.99622e-08)
(2.1857e-08 -7.09464e-08 3.33234e-08)
(2.14216e-08 -7.48176e-08 3.61717e-08)
(1.96937e-08 -7.61835e-08 3.83844e-08)
(1.70231e-08 -7.45655e-08 3.98928e-08)
(1.52339e-09 -3.42187e-09 1.15328e-09)
(4.23843e-09 -9.59043e-09 3.25376e-09)
(6.70493e-09 -1.53898e-08 5.28869e-09)
(8.99098e-09 -2.10652e-08 7.37399e-09)
(1.11539e-08 -2.68128e-08 9.60759e-09)
(1.32386e-08 -3.27819e-08 1.2072e-08)
(1.52792e-08 -3.90782e-08 1.48335e-08)
(1.72973e-08 -4.57621e-08 1.79359e-08)
(1.92995e-08 -5.28449e-08 2.13901e-08)
(2.12741e-08 -6.02797e-08 2.51543e-08)
(2.31904e-08 -6.79476e-08 2.91147e-08)
(2.49985e-08 -7.56296e-08 3.30516e-08)
(2.66517e-08 -8.2955e-08 3.66514e-08)
(2.81446e-08 -8.92908e-08 3.95605e-08)
(2.95257e-08 -9.35725e-08 4.15505e-08)
(3.05885e-08 -9.45032e-08 4.26748e-08)
(1.67095e-09 -3.61522e-09 1.25734e-09)