/*--------------------------------*- C++ -*----------------------------------*\
| =========                 |                                                 |
| \\      /  F ield         | OpenFOAM: The Open Source CFD Toolbox           |
|  \\    /   O peration     | Version:  v1912                                 |
|   \\  /    A nd           | Website:  www.openfoam.com                      |
|    \\/     M anipulation  |                                                 |
\*---------------------------------------------------------------------------*/
FoamFile
{
    version     2.0;
    format      ascii;
    class       surfaceScalarField;
    location    "0.71/fluid";
    object      meshPhi;
}
// * * * * * * * * * * * * * * * * * * * * * * * * * * * * * * * * * * * * * //

dimensions      [0 3 -1 0 0 0 0];
oriented        oriented;


internalField   nonuniform List<scalar> 
41600
(
1.59314e-13
-4.07117e-13
1.53018e-13
-1.58071e-13
3.04364e-13
-1.18593e-12
4.51017e-13
-4.6614e-13
4.41101e-13
-1.90858e-12
7.43251e-13
-7.68891e-13
5.74989e-13
-2.60044e-12
1.04912e-12
-1.08674e-12
7.11328e-13
-3.27854e-12
1.3861e-12
-1.4382e-12
8.55766e-13
-3.95031e-12
1.77055e-12
-1.84089e-12
1.01507e-12
-4.61146e-12
2.21818e-12
-2.31218e-12
1.19829e-12
-5.24173e-12
2.74425e-12
-2.86965e-12
1.41892e-12
-5.79707e-12
3.36329e-12
-3.53127e-12
1.6994e-12
-6.19546e-12
4.08825e-12
-4.31571e-12
2.08091e-12
-6.29115e-12
4.92989e-12
-5.2442e-12
2.64488e-12
-5.8255e-12
5.89846e-12
-6.34844e-12
3.55303e-12
-4.33122e-12
7.01133e-12
-7.694e-12
5.08765e-12
-9.84477e-13
8.30342e-12
-9.43165e-12
7.35435e-12
5.05497e-12
9.75107e-12
-1.17198e-11
1.5061e-11
1.22281e-11
-1.77804e-11
4.7405e-13
-8.02229e-13
4.55073e-13
-4.70105e-13
9.05528e-13
-2.33741e-12
1.34122e-12
-1.38621e-12
1.31195e-12
-3.76339e-12
2.20992e-12
-2.28616e-12
1.70935e-12
-5.13115e-12
3.11863e-12
-3.23039e-12
2.11326e-12
-6.47582e-12
4.11908e-12
-4.27374e-12
2.54014e-12
-7.81493e-12
5.2597e-12
-5.46834e-12
3.00931e-12
-9.1447e-12
6.58702e-12
-6.86556e-12
3.54583e-12
-1.04332e-11
8.14607e-12
-8.51706e-12
4.18549e-12
-1.16079e-11
9.97918e-12
-1.0475e-11
4.98463e-12
-1.25357e-11
1.21226e-11
-1.27913e-11
6.03996e-12
-1.2991e-11
1.46018e-11
-1.55191e-11
7.5287e-12
-1.26152e-11
1.74268e-11
-1.87217e-11
9.76891e-12
-1.08851e-11
2.05921e-11
-2.25028e-11
1.32306e-11
-7.19987e-12
2.40633e-11
-2.70564e-11
1.7843e-11
-1.60838e-12
2.76036e-11
-3.24047e-11
5.03622e-12
3.03342e-11
-3.92129e-11
7.77371e-13
-1.17352e-12
7.45516e-13
-7.70145e-13
1.48449e-12
-3.42042e-12
2.19691e-12
-2.27059e-12
2.14955e-12
-5.51102e-12
3.61875e-12
-3.7435e-12
2.79818e-12
-7.52243e-12
5.10447e-12
-5.28711e-12
3.45525e-12
-9.50982e-12
6.73811e-12
-6.99052e-12
4.1467e-12
-1.15051e-11
8.59843e-12
-8.93844e-12
4.90208e-12
-1.3513e-11
1.07611e-11
-1.12142e-11
5.75785e-12
-1.55035e-11
1.32994e-11
-1.39013e-11
6.76235e-12
-1.73996e-11
1.62817e-11
-1.70829e-11
7.98387e-12
-1.90567e-11
1.97645e-11
-2.08382e-11
9.52538e-12
-2.02375e-11
2.37802e-11
-2.52373e-11
1.15489e-11
-2.05896e-11
2.83177e-11
-3.03347e-11
1.42945e-11
-1.96675e-11
3.32908e-11
-3.6164e-11
1.80103e-11
-1.71071e-11
3.84778e-11
-4.27125e-11
2.22865e-11
-1.32414e-11
4.33367e-11
-4.95485e-11
-8.97158e-12
4.71614e-11
-5.78548e-11
1.06229e-12
-1.50891e-12
1.01734e-12
-1.05091e-12
2.02766e-12
-4.39991e-12
2.99726e-12
-3.09764e-12
2.93362e-12
-7.09564e-12
4.93481e-12
-5.10458e-12
3.81414e-12
-9.69945e-12
6.95611e-12
-7.20432e-12
4.70201e-12
-1.22884e-11
9.17448e-12
-9.51695e-12
5.63101e-12
-1.49131e-11
1.16962e-11
-1.21566e-11
6.6384e-12
-1.75951e-11
1.46236e-11
-1.52357e-11
7.76782e-12
-2.03207e-11
1.80561e-11
-1.88665e-11
9.07232e-12
-2.30313e-11
2.20872e-11
-2.31609e-11
1.06171e-11
-2.56067e-11
2.67947e-11
-2.82238e-11
1.24823e-11
-2.7844e-11
3.22225e-11
-3.41408e-11
1.47624e-11
-2.94387e-11
3.83467e-11
-4.09556e-11
1.75475e-11
-2.99917e-11
4.50183e-11
-4.86316e-11
2.08413e-11
-2.91126e-11
5.18623e-11
-5.69742e-11
2.41551e-11
-2.68452e-11
5.80708e-11
-6.52234e-11
-2.3551e-11
6.25843e-11
-7.41721e-11
1.32268e-12
-1.7965e-12
1.26438e-12
-1.30601e-12
2.52309e-12
-5.24114e-12
3.72389e-12
-3.84828e-12
3.6464e-12
-8.46107e-12
6.1272e-12
-6.33734e-12
4.73334e-12
-1.15851e-11
8.62871e-12
-8.93544e-12
5.82305e-12
-1.47128e-11
1.13669e-11
-1.17893e-11
6.95535e-12
-1.79167e-11
1.44716e-11
-1.50381e-11
8.17321e-12
-2.12412e-11
1.8068e-11
-1.88189e-11
9.52516e-12
-2.47001e-11
2.22789e-11
-2.32695e-11
1.10666e-11
-2.82709e-11
2.72214e-11
-2.85277e-11
1.28583e-11
-3.18847e-11
3.29979e-11
-3.47254e-11
1.49605e-11
-3.54097e-11
3.96752e-11
-4.19731e-11
1.74154e-11
-3.86261e-11
4.72447e-11
-5.03293e-11
2.02034e-11
-4.11864e-11
5.55462e-11
-5.97394e-11
2.31551e-11
-4.25692e-11
6.41177e-11
-6.99073e-11
2.57152e-11
-4.22398e-11
7.18845e-11
-7.97743e-11
-3.95207e-11
7.73785e-11
-8.97121e-11
1.55356e-12
-2.02493e-12
1.48167e-12
-1.5303e-12
2.96116e-12
-5.91077e-12
4.36204e-12
-4.50724e-12
4.27371e-12
-9.5528e-12
7.17113e-12
-7.4161e-12
5.53693e-12
-1.31029e-11
1.00863e-11
-1.04432e-11
6.79447e-12
-1.66823e-11
1.32661e-11
-1.37564e-11
8.09042e-12
-2.03856e-11
1.68585e-11
-1.75144e-11
9.47186e-12
-2.42826e-11
2.10069e-11
-2.18732e-11
1.09913e-11
-2.84195e-11
2.5852e-11
-2.69903e-11
1.27081e-11
-3.2819e-11
3.15317e-11
-3.30256e-11
1.46869e-11
-3.74785e-11
3.81732e-11
-4.01376e-11
1.69923e-11
-4.23652e-11
4.58767e-11
-4.84716e-11
1.96733e-11
-4.7402e-11
5.46813e-11
-5.81358e-11
2.272e-11
-5.24199e-11
6.449e-11
-6.91404e-11
2.59663e-11
-5.7025e-11
7.48882e-11
-8.12445e-11
2.87887e-11
-6.03635e-11
8.46641e-11
-9.32418e-11
-6.01734e-11
9.20091e-11
-1.05322e-10
1.75136e-12
-2.18395e-12
1.66571e-12
-1.72016e-12
3.33507e-12
-6.37863e-12
4.90133e-12
-5.06379e-12
4.80568e-12
-1.0321e-11
8.04931e-12
-8.32298e-12
6.21192e-12
-1.41821e-11
1.13039e-11
-1.17018e-11
7.59997e-12
-1.81012e-11
1.48377e-11
-1.53829e-11
9.01616e-12
-2.21926e-11
1.88109e-11
-1.95377e-11
1.05098e-11
-2.65492e-11
2.3378e-11
-2.43342e-11
1.21361e-11
-3.12471e-11
2.86909e-11
-2.99415e-11
1.3959e-11
-3.63507e-11
3.48999e-11
-3.6533e-11
1.60534e-11
-4.19189e-11
4.21504e-11
-4.42858e-11
1.8508e-11
-4.80153e-11
5.05735e-11
-5.33776e-11
2.14275e-11
-5.47219e-11
6.0267e-11
-6.39786e-11
2.49243e-11
-6.21476e-11
7.12462e-11
-7.62199e-11
2.90526e-11
-7.03755e-11
8.32812e-11
-9.00725e-11
3.3287e-11
-7.89449e-11
9.5262e-11
-1.04451e-10
-8.74504e-11
1.0527e-10
-1.20062e-10
1.91404e-12
1.81461e-12
-1.87365e-12
-2.26501e-12
3.64115e-12
5.33633e-12
-5.51233e-12
-6.61963e-12
5.23734e-12
8.75301e-12
-9.04901e-12
-1.07244e-11
6.75215e-12
1.22693e-11
-1.26986e-11
-1.47631e-11
8.23215e-12
1.60655e-11
-1.66518e-11
-1.88882e-11
9.72356e-12
2.03072e-11
-2.10858e-11
-2.32282e-11
1.12752e-11
2.5152e-11
-2.61717e-11
-2.78929e-11
1.29419e-11
3.07535e-11
-3.208e-11
-3.29794e-11
1.47885e-11
3.72626e-11
-3.89844e-11
-3.85788e-11
1.68947e-11
4.48262e-11
-4.70629e-11
-4.47849e-11
1.93646e-11
5.35829e-11
-5.64997e-11
-5.17077e-11
2.23415e-11
6.36554e-11
-6.74888e-11
-5.94944e-11
2.60241e-11
7.5124e-11
-8.02288e-11
-6.83533e-11
3.06291e-11
8.79109e-11
-9.4857e-11
-7.85394e-11
3.56811e-11
1.01035e-10
-1.1044e-10
-8.96225e-11
1.13656e-10
-1.29591e-10
-1.04229e-10
1.60662e-13
-4.16085e-13
1.42396e-13
3.06731e-13
-1.21217e-12
4.19538e-13
4.44014e-13
-1.95126e-12
6.90797e-13
5.77754e-13
-2.65975e-12
9.73848e-13
7.12895e-13
-3.35561e-12
1.28441e-12
8.5445e-13
-4.04739e-12
1.63688e-12
1.00808e-12
-4.73217e-12
2.04453e-12
1.18095e-12
-5.3921e-12
2.51928e-12
1.38332e-12
-5.98789e-12
3.07064e-12
1.63197e-12
-6.44769e-12
3.70333e-12
1.95775e-12
-6.64832e-12
4.4128e-12
2.42164e-12
-6.38276e-12
5.17763e-12
3.14195e-12
-5.30507e-12
5.94495e-12
4.30608e-12
-2.87439e-12
6.59961e-12
5.93132e-12
1.33149e-12
6.92287e-12
6.9357e-12
6.60287e-12
4.78106e-13
-8.1983e-13
4.23486e-13
9.12672e-13
-2.38891e-12
1.24761e-12
1.32083e-12
-3.84717e-12
2.05397e-12
1.71798e-12
-5.24758e-12
2.89492e-12
2.11864e-12
-6.62712e-12
3.81703e-12
2.53745e-12
-8.00526e-12
4.86291e-12
2.99055e-12
-9.3807e-12
6.07194e-12
3.49768e-12
-1.07256e-11
7.47947e-12
4.08551e-12
-1.19753e-11
9.11359e-12
4.79458e-12
-1.3013e-11
1.09877e-11
5.69377e-12
-1.36483e-11
1.30867e-11
6.90831e-12
-1.35975e-11
1.53417e-11
8.65737e-12
-1.24929e-11
1.75851e-11
1.12284e-11
-1.00235e-11
1.94685e-11
1.44696e-11
-6.48362e-12
2.04116e-11
-3.74084e-12
1.90167e-11
7.84191e-13
-1.19916e-12
6.93782e-13
1.4966e-12
-3.49543e-12
2.04362e-12
2.16485e-12
-5.6331e-12
3.3635e-12
2.81368e-12
-7.6921e-12
4.73858e-12
3.46638e-12
-9.73018e-12
6.24453e-12
4.14613e-12
-1.17818e-11
7.95074e-12
4.87776e-12
-1.38546e-11
9.9215e-12
5.68973e-12
-1.59235e-11
1.22148e-11
6.61679e-12
-1.79199e-11
1.48771e-11
7.70419e-12
-1.97167e-11
1.79315e-11
9.01539e-12
-2.11128e-11
2.13544e-11
1.06438e-11
-2.18302e-11
2.50346e-11
1.27152e-11
-2.15699e-11
2.87028e-11
1.53123e-11
-2.02176e-11
3.18264e-11
1.80722e-11
-1.82796e-11
3.36093e-11
-1.72736e-11
3.28191e-11
1.072e-12
-1.54175e-12
9.468e-13
2.04506e-12
-4.49601e-12
2.78831e-12
2.95609e-12
-7.25207e-12
4.58709e-12
3.838e-12
-9.91684e-12
6.45815e-12
4.7217e-12
-1.25705e-11
8.50357e-12
5.63765e-12
-1.52666e-11
1.08171e-11
6.61748e-12
-1.80295e-11
1.34861e-11
7.69534e-12
-2.08501e-11
1.659e-11
8.90814e-12
-2.36766e-11
2.01945e-11
1.02939e-11
-2.64027e-11
2.43361e-11
1.1887e-11
-2.88534e-11
2.89933e-11
1.37051e-11
-3.07811e-11
3.40345e-11
1.57173e-11
-3.18977e-11
3.91312e-11
1.7775e-11
-3.20076e-11
4.36352e-11
1.94792e-11
-3.13133e-11
4.65771e-11
-3.08902e-11
4.65596e-11
1.3354e-12
-1.83547e-12
1.17682e-12
2.54613e-12
-5.3552e-12
3.46463e-12
3.67682e-12
-8.64677e-12
5.69613e-12
4.76716e-12
-1.18431e-11
8.01216e-12
5.85433e-12
-1.50475e-11
1.05375e-11
6.97475e-12
-1.83351e-11
1.3387e-11
8.16562e-12
-2.17532e-11
1.66677e-11
9.46568e-12
-2.53186e-11
2.04789e-11
1.09138e-11
-2.90132e-11
2.4905e-11
1.25429e-11
-3.27753e-11
3.00005e-11
1.43661e-11
-3.64874e-11
3.57584e-11
1.63466e-11
-3.99586e-11
4.20535e-11
1.83398e-11
-4.2899e-11
4.85409e-11
2.00191e-11
-4.48993e-11
5.45015e-11
2.09154e-11
-4.556e-11
5.8769e-11
-4.51895e-11
5.96616e-11
1.56937e-12
-2.06876e-12
1.37924e-12
2.99011e-12
-6.03907e-12
4.05891e-12
4.31271e-12
-9.76171e-12
6.66765e-12
5.58202e-12
-1.33932e-11
9.36727e-12
6.83995e-12
-1.70586e-11
1.23008e-11
8.12748e-12
-2.08553e-11
1.55993e-11
9.48644e-12
-2.48554e-11
1.93857e-11
1.09604e-11
-2.91067e-11
2.37747e-11
1.25938e-11
-3.36331e-11
2.88674e-11
1.4426e-11
-3.84323e-11
3.4737e-11
1.64789e-11
-4.34725e-11
4.14e-11
1.87281e-11
-4.86768e-11
4.87599e-11
2.10436e-11
-5.38768e-11
5.65002e-11
2.30949e-11
-5.86829e-11
6.38923e-11
2.43113e-11
-6.22834e-11
6.96067e-11
-6.31535e-11
7.1676e-11
1.77025e-12
-2.23115e-12
1.55081e-12
3.36994e-12
-6.51683e-12
4.56148e-12
4.85349e-12
-1.05462e-11
7.48552e-12
6.26898e-12
-1.4495e-11
1.05002e-11
7.66124e-12
-1.85068e-11
1.37614e-11
9.0741e-12
-2.26985e-11
1.74113e-11
1.05525e-11
-2.71648e-11
2.15825e-11
1.21446e-11
-3.19822e-11
2.63992e-11
1.39021e-11
-3.72134e-11
3.19728e-11
1.58799e-11
-4.29129e-11
3.83901e-11
1.81325e-11
-4.91349e-11
4.5689e-11
2.07057e-11
-5.59428e-11
5.38082e-11
2.36114e-11
-6.34074e-11
6.24844e-11
2.67527e-11
-7.1533e-11
7.1036e-11
2.96327e-11
-7.9807e-11
7.80368e-11
-8.72316e-11
8.11769e-11
1.93584e-12
1.68973e-12
-2.31394e-12
3.68172e-12
4.96723e-12
-6.76294e-12
5.29371e-12
8.14158e-12
-1.0958e-11
6.82108e-12
1.13997e-11
-1.5088e-11
8.30949e-12
1.49044e-11
-1.93097e-11
9.80338e-12
1.88028e-11
-2.3754e-11
1.13484e-11
2.32308e-11
-2.85321e-11
1.29942e-11
2.8314e-11
-3.37407e-11
1.47967e-11
3.41642e-11
-3.94675e-11
1.68214e-11
4.08697e-11
-4.57987e-11
1.91485e-11
4.84739e-11
-5.28298e-11
2.18794e-11
5.69326e-11
-6.068e-11
2.51395e-11
6.60215e-11
-6.95039e-11
2.90274e-11
7.51324e-11
-7.94478e-11
3.30939e-11
8.2846e-11
-8.99987e-11
8.64807e-11
-1.02458e-10
1.61303e-13
-4.23893e-13
1.2674e-13
3.07685e-13
-1.23505e-12
3.73268e-13
4.44682e-13
-1.98857e-12
6.14131e-13
5.77159e-13
-2.71165e-12
8.64706e-13
7.09487e-13
-3.42322e-12
1.13847e-12
8.45734e-13
-4.13298e-12
1.4474e-12
9.89963e-13
-4.83989e-12
1.80197e-12
1.14661e-12
-5.52951e-12
2.21058e-12
1.32117e-12
-6.16956e-12
2.67796e-12
1.5218e-12
-6.703e-12
3.20192e-12
1.76294e-12
-7.03853e-12
3.76734e-12
2.07252e-12
-7.03887e-12
4.33595e-12
2.50078e-12
-6.50973e-12
4.82946e-12
3.10851e-12
-5.21488e-12
5.10799e-12
3.82936e-12
-3.09205e-12
4.99445e-12
-3.58191e-13
4.50739e-12
4.80083e-13
-8.35142e-13
3.76931e-13
9.1566e-13
-2.43376e-12
1.11004e-12
1.32309e-12
-3.92024e-12
1.82606e-12
1.71671e-12
-5.34916e-12
2.57058e-12
2.10938e-12
-6.75919e-12
3.38348e-12
2.51303e-12
-8.17187e-12
4.30028e-12
2.93928e-12
-9.58901e-12
5.35213e-12
3.40017e-12
-1.09884e-11
6.56407e-12
3.90914e-12
-1.23167e-11
7.95046e-12
4.48335e-12
-1.34802e-11
9.50543e-12
5.14884e-12
-1.43362e-11
1.11855e-11
5.94976e-12
-1.46964e-11
1.28809e-11
6.9532e-12
-1.43711e-11
1.43702e-11
8.20203e-12
-1.33158e-11
1.52746e-11
9.47105e-12
-1.1934e-11
1.51613e-11
-1.14956e-11
1.37391e-11
7.87668e-13
-1.22142e-12
6.17548e-13
1.50201e-12
-3.56061e-12
1.81839e-12
2.16949e-12
-5.7392e-12
2.99049e-12
2.81324e-12
-7.83938e-12
4.20799e-12
3.454e-12
-9.92112e-12
5.53579e-12
4.11087e-12
-1.20213e-11
7.03178e-12
4.80187e-12
-1.41512e-11
8.74698e-12
5.54411e-12
-1.62917e-11
1.0723e-11
6.35316e-12
-1.83857e-11
1.29849e-11
7.24138e-12
-2.033e-11
1.55265e-11
8.2152e-12
-2.197e-11
1.82847e-11
9.26846e-12
-2.31177e-11
2.1097e-11
1.03623e-11
-2.36277e-11
2.36439e-11
1.13669e-11
-2.35849e-11
2.5406e-11
1.19818e-11
-2.35091e-11
2.58443e-11
-2.43627e-11
2.49539e-11
1.07724e-12
-1.57018e-12
8.42835e-13
2.05351e-12
-4.57922e-12
2.48122e-12
2.96432e-12
-7.38738e-12
4.0788e-12
3.84062e-12
-1.01043e-11
5.73571e-12
4.71021e-12
-1.28127e-11
7.53954e-12
5.59857e-12
-1.55685e-11
9.56866e-12
6.52922e-12
-1.8399e-11
1.18927e-11
7.52282e-12
-2.12997e-11
1.45695e-11
8.59398e-12
-2.42276e-11
1.76365e-11
9.74363e-12
-2.70932e-11
2.10929e-11
1.09441e-11
-2.97559e-11
2.48689e-11
1.21109e-11
-3.2033e-11
2.87771e-11
1.30583e-11
-3.37503e-11
3.24484e-11
1.3464e-11
-3.48688e-11
3.52957e-11
1.30496e-11
-3.56349e-11
3.66992e-11
-3.67563e-11
3.6628e-11
1.34269e-12
-1.8691e-12
1.04772e-12
2.55833e-12
-5.45358e-12
3.08345e-12
3.69002e-12
-8.80659e-12
5.06565e-12
4.77537e-12
-1.20642e-11
7.117e-12
5.84825e-12
-1.5332e-11
9.34469e-12
6.93978e-12
-1.86874e-11
1.18448e-11
8.07861e-12
-2.21792e-11
1.47031e-11
9.28947e-12
-2.58265e-11
1.79926e-11
1.05883e-11
-2.96141e-11
2.17636e-11
1.19707e-11
-3.34869e-11
2.60255e-11
1.33886e-11
-3.73411e-11
3.07132e-11
1.47064e-11
-4.10144e-11
3.56347e-11
1.56332e-11
-4.42737e-11
4.04013e-11
1.56852e-11
-4.68108e-11
4.43774e-11
1.45233e-11
-4.83221e-11
4.68283e-11
-4.89938e-11
4.76044e-11
1.579e-12
-2.10644e-12
1.22813e-12
3.00668e-12
-6.14925e-12
3.61291e-12
4.33214e-12
-9.94056e-12
5.93064e-12
5.59819e-12
-1.36402e-11
8.32232e-12
6.84351e-12
-1.73755e-11
1.09108e-11
8.10402e-12
-2.12454e-11
1.38062e-11
9.41331e-12
-2.53221e-11
1.71071e-11
1.08018e-11
-2.96525e-11
2.08983e-11
1.22923e-11
-3.42576e-11
2.52419e-11
1.38896e-11
-3.913e-11
3.01583e-11
1.55587e-11
-4.42288e-11
3.55926e-11
1.7182e-11
-4.94635e-11
4.13598e-11
1.84878e-11
-5.46464e-11
4.70649e-11
1.89825e-11
-5.93774e-11
5.20275e-11
1.81997e-11
-6.28921e-11
5.53796e-11
-6.37443e-11
5.68756e-11
1.78238e-12
-2.27158e-12
1.38113e-12
3.39136e-12
-6.63505e-12
4.06097e-12
4.88011e-12
-1.0738e-11
6.6594e-12
6.29492e-12
-1.47596e-11
9.33097e-12
7.67774e-12
-1.88456e-11
1.22097e-11
9.06787e-12
-2.31136e-11
1.54151e-11
1.05031e-11
-2.76573e-11
1.90539e-11
1.20198e-11
-3.25496e-11
2.32183e-11
1.36512e-11
-3.78452e-11
2.79771e-11
1.54219e-11
-4.3584e-11
3.33582e-11
1.73365e-11
-4.97932e-11
3.93152e-11
1.93562e-11
-5.64867e-11
4.56705e-11
2.13557e-11
-6.36456e-11
5.20237e-11
2.30577e-11
-7.11275e-11
5.76381e-11
2.40116e-11
-7.83045e-11
6.14771e-11
-8.40663e-11
6.31107e-11
1.95053e-12
1.50512e-12
-2.35571e-12
3.70816e-12
4.42305e-12
-6.88511e-12
5.32796e-12
7.24458e-12
-1.11562e-11
6.85776e-12
1.01327e-11
-1.53614e-11
8.34083e-12
1.32278e-11
-1.96592e-11
9.81784e-12
1.66536e-11
-2.41811e-11
1.13285e-11
2.05197e-11
-2.90364e-11
1.29129e-11
2.49194e-11
-3.43162e-11
1.46118e-11
2.99214e-11
-4.00975e-11
1.64663e-11
3.55535e-11
-4.64466e-11
1.85153e-11
4.17698e-11
-5.34234e-11
2.07889e-11
4.83947e-11
-6.10839e-11
2.32912e-11
5.50269e-11
-6.94707e-11
2.5945e-11
6.09061e-11
-7.85485e-11
2.83193e-11
6.48886e-11
-8.76784e-11
6.58675e-11
-9.76971e-11
1.61383e-13
-4.30426e-13
1.06727e-13
3.07525e-13
-1.2542e-12
3.1422e-13
4.43628e-13
-2.01977e-12
5.16619e-13
5.74111e-13
-2.75509e-12
7.2659e-13
7.02667e-13
-3.47984e-12
9.5505e-13
8.3231e-13
-4.20481e-12
1.21141e-12
9.65402e-13
-4.93075e-12
1.5034e-12
1.10359e-12
-5.64658e-12
1.83641e-12
1.24776e-12
-6.32661e-12
2.21182e-12
1.3982e-12
-6.92692e-12
2.62396e-12
1.55574e-12
-7.38202e-12
3.05514e-12
1.72436e-12
-7.60372e-12
3.4686e-12
1.91414e-12
-7.48435e-12
3.80114e-12
2.13476e-12
-6.90922e-12
3.96429e-12
2.34669e-12
-5.84106e-12
3.88861e-12
-4.04469e-12
3.80145e-12
4.80409e-13
-8.4795e-13
3.17426e-13
9.15374e-13
-2.47128e-12
9.34484e-13
1.3203e-12
-3.98133e-12
1.53619e-12
1.70821e-12
-5.43401e-12
2.16009e-12
2.09006e-12
-6.86941e-12
2.83852e-12
2.47473e-12
-8.31085e-12
3.59937e-12
2.86905e-12
-9.76312e-12
4.46573e-12
3.27725e-12
-1.12093e-11
5.45378e-12
3.70003e-12
-1.26066e-11
6.5681e-12
4.13352e-12
-1.38813e-11
7.79288e-12
4.56896e-12
-1.49283e-11
9.07792e-12
4.99383e-12
-1.56243e-11
1.03194e-11
5.39221e-12
-1.58732e-11
1.13411e-11
5.73228e-12
-1.57028e-11
1.1904e-11
5.92723e-12
-1.53779e-11
1.1839e-11
-1.55228e-11
1.1204e-11
7.88486e-13
-1.24002e-12
5.20095e-13
1.50215e-12
-3.61506e-12
1.53093e-12
2.16598e-12
-5.8277e-12
2.51599e-12
2.80111e-12
-7.96192e-12
3.53636e-12
3.42534e-12
-1.00794e-11
4.64465e-12
4.0532e-12
-1.22192e-11
5.8864e-12
4.69552e-12
-1.43955e-11
7.29961e-12
5.35794e-12
-1.65945e-11
8.91153e-12
6.0378e-12
-1.87696e-11
1.07315e-11
6.7187e-12
-2.08368e-11
1.27376e-11
7.36257e-12
-2.26768e-11
1.48566e-11
7.8988e-12
-2.41585e-11
1.69373e-11
8.21348e-12
-2.52086e-11
1.873e-11
8.15884e-12
-2.59413e-11
1.99135e-11
7.68856e-12
-2.67099e-11
2.02842e-11
-2.79968e-11
2.01339e-11
1.07891e-12
-1.5939e-12
7.09907e-13
2.05489e-12
-4.64856e-12
2.08921e-12
2.9616e-12
-7.49985e-12
3.43202e-12
3.82752e-12
-1.02595e-11
4.82085e-12
4.67685e-12
-1.30119e-11
6.32676e-12
5.52952e-12
-1.58147e-11
8.01151e-12
6.40038e-12
-1.86975e-11
9.92717e-12
7.2966e-12
-2.16591e-11
1.21122e-11
8.21195e-12
-2.4663e-11
1.45826e-11
9.11583e-12
-2.7632e-11
1.73162e-11
9.93486e-12
-3.04477e-11
2.02286e-11
1.05254e-11
-3.29636e-11
2.31444e-11
1.06478e-11
-3.50494e-11
2.57791e-11
1.00084e-11
-3.6681e-11
2.77799e-11
8.62026e-12
-3.79951e-11
2.89128e-11
-3.9369e-11
2.94493e-11
1.34563e-12
-1.89707e-12
8.82601e-13
2.56188e-12
-5.53527e-12
2.59665e-12
3.68982e-12
-8.93882e-12
4.26302e-12
4.76438e-12
-1.22459e-11
5.98279e-12
5.81552e-12
-1.55637e-11
7.843e-12
6.86839e-12
-1.89706e-11
9.9195e-12
7.94246e-12
-2.2516e-11
1.22767e-11
9.04846e-12
-2.62189e-11
1.49636e-11
1.01812e-11
-3.00646e-11
1.80039e-11
1.13053e-11
-3.3999e-11
2.13789e-11
1.23298e-11
-3.79213e-11
2.50016e-11
1.30677e-11
-4.16751e-11
2.86857e-11
1.31902e-11
-4.50338e-11
3.21272e-11
1.22649e-11
-4.76877e-11
3.49449e-11
1.02439e-11
-4.92961e-11
3.68453e-11
-4.98656e-11
3.80389e-11
1.5836e-12
-2.13767e-12
1.03474e-12
3.0133e-12
-6.2404e-12
3.04302e-12
4.33616e-12
-1.00878e-11
4.99181e-12
5.59231e-12
-1.38419e-11
6.99737e-12
6.81657e-12
-1.76312e-11
9.15954e-12
8.03895e-12
-2.15545e-11
1.15653e-11
9.2842e-12
-2.56829e-11
1.4289e-11
1.05693e-11
-3.00596e-11
1.73878e-11
1.18972e-11
-3.4699e-11
2.08923e-11
1.32442e-11
-3.95827e-11
2.4788e-11
1.45365e-11
-4.46514e-11
2.89877e-11
1.56106e-11
-4.97852e-11
3.32967e-11
1.61623e-11
-5.47528e-11
3.73874e-11
1.575e-11
-5.91037e-11
4.08293e-11
1.4185e-11
-6.20752e-11
4.32489e-11
-6.2251e-11
4.48502e-11
1.78895e-12
-2.30498e-12
1.16384e-12
3.40179e-12
-6.73249e-12
3.42102e-12
4.88975e-12
-1.08952e-11
5.60628e-12
6.29665e-12
-1.49744e-11
7.84714e-12
7.66085e-12
-1.91165e-11
1.02526e-11
9.01628e-12
-2.34384e-11
1.29174e-11
1.03926e-11
-2.80306e-11
1.59218e-11
1.18143e-11
-3.29593e-11
1.93283e-11
1.32969e-11
-3.82672e-11
2.31709e-11
1.48398e-11
-4.3973e-11
2.7437e-11
1.64132e-11
-5.00684e-11
3.20371e-11
1.79352e-11
-5.65089e-11
3.67646e-11
1.92453e-11
-6.31846e-11
4.12552e-11
2.00987e-11
-6.98384e-11
4.49918e-11
2.0293e-11
-7.58269e-11
4.74709e-11
-8.01314e-11
4.88786e-11
1.95927e-12
1.26855e-12
-2.39012e-12
3.72285e-12
3.72672e-12
-6.98548e-12
5.34414e-12
6.10014e-12
-1.1318e-11
6.86878e-12
8.52341e-12
-1.55821e-11
8.33693e-12
1.11108e-11
-1.99368e-11
9.78463e-12
1.39607e-11
-2.4512e-11
1.12447e-11
1.71555e-11
-2.94129e-11
1.27469e-11
2.07583e-11
-3.47219e-11
1.43172e-11
2.48025e-11
-4.05005e-11
1.59755e-11
2.92731e-11
-4.67891e-11
1.77308e-11
3.40759e-11
-5.36049e-11
1.95741e-11
3.89925e-11
-6.09358e-11
2.14709e-11
4.36278e-11
-6.87231e-11
2.33518e-11
4.73902e-11
-7.68111e-11
2.49902e-11
4.96515e-11
-8.45785e-11
5.01745e-11
-9.28657e-11
1.61095e-13
-4.3562e-13
8.31568e-14
3.06661e-13
-1.26941e-12
2.44755e-13
4.41567e-13
-2.04457e-12
4.02166e-13
5.69781e-13
-2.7896e-12
5.65081e-13
6.94336e-13
-3.52478e-12
7.41708e-13
8.17275e-13
-4.2617e-12
9.38909e-13
9.3949e-13
-5.00251e-12
1.16202e-12
1.0604e-12
-5.73866e-12
1.41421e-12
1.17753e-12
-6.4491e-12
1.69514e-12
1.28624e-12
-7.09825e-12
1.99877e-12
1.38031e-12
-7.6349e-12
2.31026e-12
1.45457e-12
-7.9927e-12
2.60288e-12
1.51034e-12
-8.09028e-12
2.8376e-12
1.56052e-12
-7.82388e-12
2.97201e-12
1.6138e-12
-7.09495e-12
2.98781e-12
-5.46843e-12
3.10811e-12
4.79649e-13
-8.58144e-13
2.47334e-13
9.13015e-13
-2.50112e-12
7.2793e-13
1.31452e-12
-4.02989e-12
1.19593e-12
1.69589e-12
-5.50135e-12
1.68003e-12
2.0662e-12
-6.9566e-12
2.20456e-12
2.43156e-12
-8.42035e-12
2.7899e-12
2.79464e-12
-9.89955e-12
3.45197e-12
3.15343e-12
-1.13813e-11
4.20039e-12
3.4995e-12
-1.28296e-11
5.03461e-12
3.816e-12
-1.41833e-11
5.93756e-12
4.07708e-12
-1.53569e-11
6.86709e-12
4.25152e-12
-1.62532e-11
7.74745e-12
4.31525e-12
-1.67943e-11
8.46848e-12
4.27546e-12
-1.69746e-11
8.91057e-12
4.19129e-12
-1.69117e-11
9.02308e-12
-1.697e-11
8.82642e-12
7.87542e-13
-1.25483e-12
4.05283e-13
1.49892e-12
-3.65837e-12
1.19264e-12
2.15759e-12
-5.89796e-12
1.95889e-12
2.78267e-12
-8.05886e-12
2.75071e-12
3.38912e-12
-1.0204e-11
3.60768e-12
3.98727e-12
-1.23737e-11
4.56312e-12
4.58175e-12
-1.45844e-11
5.64337e-12
5.16911e-12
-1.68258e-11
6.86482e-12
5.73383e-12
-1.90576e-11
8.22813e-12
6.24251e-12
-2.12065e-11
9.7087e-12
6.63748e-12
-2.31693e-11
1.12443e-11
6.83388e-12
-2.48331e-11
1.27241e-11
6.733e-12
-2.61273e-11
1.39908e-11
6.2838e-12
-2.71113e-11
1.48809e-11
5.64675e-12
-2.79976e-11
1.53293e-11
-2.91115e-11
1.55011e-11
1.07819e-12
-1.61275e-12
5.53255e-13
2.05168e-12
-4.70362e-12
1.62775e-12
2.95218e-12
-7.58888e-12
2.67242e-12
3.80569e-12
-1.03816e-11
3.75031e-12
4.6329e-12
-1.31674e-11
4.91491e-12
5.44862e-12
-1.60047e-11
6.2115e-12
6.26029e-12
-1.89244e-11
7.67626e-12
7.06446e-12
-2.19266e-11
9.33272e-12
7.84054e-12
-2.49774e-11
1.11845e-11
8.54037e-12
-2.80042e-11
1.32037e-11
9.07372e-12
-3.08947e-11
1.5317e-11
9.29322e-12
-3.35065e-11
1.73939e-11
8.99969e-12
-3.56988e-11
1.92545e-11
8.03543e-12
-3.73974e-11
2.07205e-11
6.62816e-12
-3.86499e-11
2.17111e-11
-3.97607e-11
2.23601e-11
1.34558e-12
-1.91926e-12
6.87936e-13
2.55968e-12
-5.59998e-12
2.0234e-12
3.6812e-12
-9.04309e-12
3.31998e-12
4.74231e-12
-1.23881e-11
4.65493e-12
5.76916e-12
-1.57431e-11
6.09383e-12
6.78141e-12
-1.91864e-11
7.69233e-12
7.79063e-12
-2.27667e-11
9.49539e-12
8.7966e-12
-2.65016e-11
1.15332e-11
9.7799e-12
-3.03732e-11
1.38132e-11
1.06891e-11
-3.43229e-11
1.63071e-11
1.14207e-11
-3.82421e-11
1.89355e-11
1.17933e-11
-4.19604e-11
2.15553e-11
1.15356e-11
-4.52264e-11
2.39699e-11
1.03696e-11
-4.76911e-11
2.59835e-11
8.45328e-12
-4.89917e-11
2.74824e-11
-4.91509e-11
2.85621e-11
1.58466e-12
-2.16238e-12
8.06642e-13
3.0131e-12
-6.31236e-12
2.3716e-12
4.33014e-12
-1.02035e-11
3.88818e-12
5.57314e-12
-1.39988e-11
5.44527e-12
6.77307e-12
-1.78273e-11
7.11817e-12
7.95452e-12
-2.17869e-11
8.97081e-12
9.13451e-12
-2.59459e-11
1.1055e-11
1.03196e-11
-3.03424e-11
1.34064e-11
1.14996e-11
-3.4982e-11
1.60354e-11
1.26367e-11
-3.98318e-11
1.89139e-11
1.3648e-11
-4.48101e-11
2.19564e-11
1.43803e-11
-4.9763e-11
2.50058e-11
1.45917e-11
-5.4415e-11
2.78386e-11
1.39963e-11
-5.82782e-11
3.022e-11
1.25994e-11
-6.06306e-11
3.19956e-11
-6.02286e-11
3.32839e-11
1.79149e-12
-2.33133e-12
9.07433e-13
3.40443e-12
-6.80915e-12
2.66662e-12
4.8879e-12
-1.10181e-11
4.36754e-12
6.28307e-12
-1.51405e-11
6.10773e-12
7.62472e-12
-1.93226e-11
7.9695e-12
8.9417e-12
-2.36794e-11
1.00225e-11
1.02566e-11
-2.82972e-11
1.23229e-11
1.15845e-11
-3.3234e-11
1.49093e-11
1.29292e-11
-3.85188e-11
1.77935e-11
1.4278e-11
-4.41482e-11
2.09453e-11
1.55933e-11
-5.00797e-11
2.4272e-11
1.68032e-11
-5.62195e-11
2.7597e-11
1.78024e-11
-6.23958e-11
3.0655e-11
1.84862e-11
-6.83061e-11
3.31365e-11
1.88321e-11
-7.33852e-11
3.48153e-11
-7.68705e-11
3.58655e-11
1.96356e-12
9.89224e-13
-2.4172e-12
3.72894e-12
2.90536e-12
-7.0642e-12
5.34759e-12
4.75309e-12
-1.14441e-11
6.86279e-12
6.63545e-12
-1.5752e-11
8.3115e-12
8.63886e-12
-2.01465e-11
9.72528e-12
1.08357e-11
-2.4755e-11
1.11307e-11
1.32838e-11
-2.96773e-11
1.25495e-11
1.60218e-11
-3.4986e-11
1.39976e-11
1.90603e-11
-4.07262e-11
1.54842e-11
2.23657e-11
-4.69125e-11
1.70111e-11
2.58374e-11
-5.35237e-11
1.85753e-11
2.92814e-11
-6.04948e-11
2.01833e-11
3.23939e-11
-6.77057e-11
2.18743e-11
3.47916e-11
-7.49639e-11
2.35759e-11
3.61643e-11
-8.17571e-11
3.64801e-11
-8.91506e-11
1.60642e-13
-4.39457e-13
5.68989e-14
3.05527e-13
-1.28065e-12
1.67434e-13
4.39234e-13
-2.06291e-12
2.74996e-13
5.65338e-13
-2.81514e-12
3.86124e-13
6.86326e-13
-3.55796e-12
5.06276e-13
8.0347e-13
-4.30349e-12
6.39907e-13
9.16595e-13
-5.05477e-12
7.9032e-13
1.02367e-12
-5.80476e-12
9.59213e-13
1.12035e-12
-6.53491e-12
1.1458e-12
1.19993e-12
-7.21351e-12
1.3455e-12
1.25458e-12
-7.79444e-12
1.54844e-12
1.27952e-12
-8.21594e-12
1.73864e-12
1.28167e-12
-8.39487e-12
1.89546e-12
1.28919e-12
-8.20845e-12
2.00032e-12
1.33285e-12
-7.51594e-12
2.04713e-12
-5.84039e-12
2.19304e-12
4.78401e-13
-8.65706e-13
1.69243e-13
9.09853e-13
-2.52327e-12
4.97997e-13
1.30791e-12
-4.0659e-12
8.17822e-13
1.68318e-12
-5.55121e-12
1.14806e-12
2.04316e-12
-7.0209e-12
1.5049e-12
2.39179e-12
-8.5005e-12
1.90157e-12
2.72873e-12
-9.99832e-12
2.34796e-12
3.04791e-12
-1.15036e-11
2.84926e-12
3.33591e-12
-1.29841e-11
3.40343e-12
3.57078e-12
-1.43835e-11
3.99744e-12
3.72383e-12
-1.56223e-11
4.60315e-12
3.76878e-12
-1.66052e-11
5.17477e-12
3.70461e-12
-1.72399e-11
5.65264e-12
3.5914e-12
-1.74712e-11
5.98011e-12
3.54746e-12
-1.73407e-11
6.13392e-12
-1.71634e-11
6.0888e-12
7.85788e-13
-1.26584e-12
2.77346e-13
1.49434e-12
-3.69055e-12
8.16001e-13
2.14774e-12
-5.95007e-12
1.33971e-12
2.76337e-12
-8.13049e-12
1.87991e-12
3.35382e-12
-1.02954e-11
2.46296e-12
3.92614e-12
-1.2486e-11
3.11052e-12
4.48047e-12
-1.47197e-11
3.83897e-12
5.00751e-12
-1.6988e-11
4.65731e-12
5.48498e-12
-1.92528e-11
5.56321e-12
5.87359e-12
-2.14441e-11
6.53751e-12
6.11531e-12
-2.3461e-11
7.53823e-12
6.14033e-12
-2.51859e-11
8.49756e-12
5.8968e-12
-2.65233e-11
9.32857e-12
5.42399e-12
-2.74733e-11
9.94994e-12
4.95343e-12
-2.81828e-11
1.03251e-11
-2.89796e-11
1.05103e-11
1.07631e-12
-1.62678e-12
3.78648e-13
2.0465e-12
-4.74452e-12
1.11383e-12
2.94051e-12
-7.65479e-12
1.82792e-12
3.78219e-12
-1.04715e-11
2.56337e-12
4.58933e-12
-1.32808e-11
3.35581e-12
5.37275e-12
-1.61416e-11
4.23472e-12
6.1345e-12
-1.90845e-11
5.22268e-12
6.86444e-12
-2.21099e-11
6.33273e-12
7.53476e-12
-2.51831e-11
7.56348e-12
8.09254e-12
-2.82301e-11
8.89241e-12
8.45178e-12
-3.11344e-11
1.0269e-11
8.49148e-12
-3.37416e-11
1.16121e-11
8.07984e-12
-3.58826e-11
1.28208e-11
7.17248e-12
-3.74338e-11
1.38048e-11
6.05666e-12
-3.84108e-11
1.45147e-11
-3.9159e-11
1.49799e-11
1.344e-12
-1.93574e-12
4.70886e-13
2.5548e-12
-5.64794e-12
1.38475e-12
3.66934e-12
-9.12005e-12
2.27114e-12
4.71741e-12
-1.24923e-11
3.18211e-12
5.72197e-12
-1.58729e-11
4.16133e-12
6.69838e-12
-1.93399e-11
5.24512e-12
7.65253e-12
-2.29405e-11
6.46155e-12
8.57738e-12
-2.66895e-11
7.8275e-12
9.44678e-12
-3.05644e-11
9.34309e-12
1.02064e-11
-3.4499e-11
1.09841e-11
1.07613e-11
-3.83724e-11
1.26939e-11
1.09649e-11
-4.19949e-11
1.43813e-11
1.06259e-11
-4.50874e-11
1.59329e-11
9.59026e-12
-4.72722e-11
1.72466e-11
8.06094e-12
-4.81985e-11
1.82527e-11
-4.79699e-11
1.89593e-11
1.58377e-12
-2.18069e-12
5.52216e-13
3.00943e-12
-6.36556e-12
1.62327e-12
4.31974e-12
-1.02885e-11
2.6602e-12
5.54963e-12
-1.41132e-11
3.72291e-12
6.72688e-12
-1.79682e-11
4.8616e-12
7.87178e-12
-2.19502e-11
6.11802e-12
8.99581e-12
-2.61244e-11
7.52459e-12
1.0099e-11
-3.05236e-11
9.10116e-12
1.11655e-11
-3.51442e-11
1.0849e-11
1.21559e-11
-3.99395e-11
1.27419e-11
1.29983e-11
-4.48072e-11
1.47172e-11
1.35777e-11
-4.95672e-11
1.66706e-11
1.37353e-11
-5.39165e-11
1.84678e-11
1.33093e-11
-5.73593e-11
1.99804e-11
1.23422e-11
-5.92346e-11
2.11195e-11
-5.8461e-11
2.192e-11
1.79165e-12
-2.35082e-12
6.21298e-13
3.40275e-12
-6.86569e-12
1.82544e-12
4.88039e-12
-1.11082e-11
2.98857e-12
6.2634e-12
-1.5261e-11
4.17646e-12
7.58356e-12
-1.94696e-11
5.44403e-12
8.86566e-12
-2.38469e-11
6.83679e-12
1.01272e-11
-2.84747e-11
8.38991e-12
1.13773e-11
-3.34034e-11
1.01248e-11
1.26149e-11
-3.86493e-11
1.20427e-11
1.38265e-11
-4.41903e-11
1.41148e-11
1.49853e-11
-4.99578e-11
1.62705e-11
1.60554e-11
-5.58257e-11
1.83885e-11
1.70085e-11
-6.15945e-11
2.03022e-11
1.78552e-11
-6.69672e-11
2.18341e-11
1.86103e-11
-7.14747e-11
2.286e-11
-7.45519e-11
2.34766e-11
1.96503e-12
6.77377e-13
-2.43718e-12
3.72985e-12
1.9891e-12
-7.12212e-12
5.34407e-12
3.25281e-12
-1.15362e-11
6.84885e-12
4.53803e-12
-1.58746e-11
8.27844e-12
5.90249e-12
-2.0295e-11
9.66077e-12
7.39355e-12
-2.49222e-11
1.10179e-11
9.04735e-12
-2.98505e-11
1.23664e-11
1.08853e-11
-3.51434e-11
1.37178e-11
1.29072e-11
-4.08319e-11
1.50805e-11
1.50811e-11
-4.69095e-11
1.64654e-11
1.73291e-11
-5.3327e-11
1.78987e-11
1.95147e-11
-5.99875e-11
1.94504e-11