/*--------------------------------*- C++ -*----------------------------------*\
| =========                 |                                                 |
| \\      /  F ield         | OpenFOAM: The Open Source CFD Toolbox           |
|  \\    /   O peration     | Version:  v1912                                 |
|   \\  /    A nd           | Website:  www.openfoam.com                      |
|    \\/     M anipulation  |                                                 |
\*---------------------------------------------------------------------------*/
FoamFile
{
    version     2.0;
    format      ascii;
    class       surfaceScalarField;
    location    "0.71/fluid";
    object      phi;
}
// * * * * * * * * * * * * * * * * * * * * * * * * * * * * * * * * * * * * * //

dimensions      [0 3 -1 0 0 0 0];
oriented        oriented;


internalField   nonuniform List<scalar> 
41600
(
5.01187e-05
1.25775e-05
3.49771e-07
-5.45991e-07
4.0065e-05
1.04056e-05
5.83832e-07
-9.3567e-07
3.26877e-05
7.75554e-06
4.69049e-07
-8.47263e-07
2.81898e-05
4.82679e-06
9.49306e-08
-4.23825e-07
2.55584e-05
2.87496e-06
-4.80537e-07
2.37031e-07
2.4027e-05
1.68457e-06
-1.20217e-06
1.04898e-06
2.30332e-05
1.06325e-06
-2.07085e-06
2.00138e-06
2.22499e-05
7.71519e-07
-3.11845e-06
3.13027e-06
2.14921e-05
6.58837e-07
-4.40925e-06
4.50818e-06
2.0647e-05
6.18574e-07
-6.03049e-06
6.25703e-06
1.96393e-05
5.89842e-07
-8.13247e-06
8.55026e-06
1.83412e-05
4.75939e-07
-1.08431e-05
1.16653e-05
1.65672e-05
2.66281e-07
-1.45444e-05
1.60521e-05
1.37665e-05
-3.87776e-07
-1.88844e-05
2.20728e-05
8.693e-06
-9.30419e-07
-2.3896e-05
2.98999e-05
-3.40895e-06
-1.93975e-05
3.14995e-05
6.48521e-05
1.0501e-05
4.81063e-07
-7.56739e-07
6.36896e-05
1.20992e-05
8.41024e-07
-1.37212e-06
6.13813e-05
1.06906e-05
7.31755e-07
-1.35852e-06
5.88855e-05
7.92398e-06
1.96689e-07
-7.98062e-07
5.67224e-05
5.5332e-06
-7.19645e-07
2.24453e-07
5.49543e-05
3.80767e-06
-1.9474e-06
1.59237e-06
5.34417e-05
2.78586e-06
-3.47454e-06
3.26462e-06
5.19952e-05
2.28336e-06
-5.34375e-06
5.27838e-06
5.04393e-05
2.12826e-06
-7.65659e-06
7.74307e-06
4.85941e-05
2.17353e-06
-1.0566e-05
1.08563e-05
4.62774e-05
2.3177e-06
-1.43188e-05
1.49076e-05
4.31365e-05
2.43403e-06
-1.91692e-05
2.03521e-05
3.87102e-05
2.47536e-06
-2.56447e-05
2.78619e-05
3.16392e-05
2.01303e-06
-3.32794e-05
3.79496e-05
2.05471e-05
1.25934e-06
-4.10628e-05
4.99652e-05
-1.92237e-06
-3.24724e-05
5.15329e-05
6.63689e-05
6.92855e-06
5.24666e-07
-8.21104e-07
6.879e-05
1.02635e-05
9.27935e-07
-1.51321e-06
6.98785e-05
1.03074e-05
8.29176e-07
-1.53457e-06
6.98476e-05
8.64731e-06
2.68512e-07
-9.61018e-07
6.91944e-05
6.77368e-06
-7.13116e-07
1.25918e-07
6.82015e-05
5.23812e-06
-2.05133e-06
1.61377e-06
6.6996e-05
4.26775e-06
-3.73568e-06
3.45926e-06
6.55734e-05
3.81915e-06
-5.8125e-06
5.69936e-06
6.38514e-05
3.79124e-06
-8.39033e-06
8.44928e-06
6.16699e-05
4.0698e-06
-1.16398e-05
1.19251e-05
5.88032e-05
4.56821e-06
-1.58287e-05
1.64449e-05
5.47985e-05
5.1719e-06
-2.12599e-05
2.25268e-05
4.90348e-05
5.82413e-06
-2.84906e-05
3.09054e-05
3.9831e-05
6.05848e-06
-3.71201e-05
4.22785e-05
2.55448e-05
5.55473e-06
-4.59076e-05
5.58985e-05
1.58264e-06
-3.67288e-05
5.87685e-05
6.52583e-05
4.46917e-06
5.44584e-07
-8.43471e-07
6.83085e-05
7.8118e-06
9.73451e-07
-1.57198e-06
7.06636e-05
8.67749e-06
8.87988e-07
-1.6132e-06
7.19679e-05
8.0577e-06
3.34172e-07
-1.04883e-06
7.24019e-05
6.94921e-06
-6.41434e-07
3.18458e-08
7.21813e-05
5.91749e-06
-1.97437e-06
1.51562e-06
7.14786e-05
5.26593e-06
-3.65502e-06
3.35961e-06
7.03621e-05
5.06501e-06
-5.73084e-06
5.60143e-06
6.88076e-05
5.29982e-06
-8.30967e-06
8.35561e-06
6.66806e-05
5.92062e-06
-1.15662e-05
1.18423e-05
6.37454e-05
6.88894e-06
-1.57685e-05
1.6383e-05
5.95001e-05
8.13537e-06
-2.12438e-05
2.25256e-05
5.32291e-05
9.62411e-06
-2.8553e-05
3.10241e-05
4.3105e-05
1.08462e-05
-3.73887e-05
4.27252e-05
2.72766e-05
1.09582e-05
-4.64983e-05
5.69232e-05
5.68475e-06
-3.75805e-05
6.07549e-05
6.43217e-05
2.94381e-06
5.63782e-07
-8.60117e-07
6.70256e-05
5.70595e-06
1.0198e-06
-1.61786e-06
6.95643e-05
6.86418e-06
9.57438e-07
-1.68284e-06
7.14056e-05
6.93033e-06
4.26246e-07
-1.1402e-06
7.24716e-05
6.49158e-06
-5.19883e-07
-8.84849e-08
7.28402e-05
6.00711e-06
-1.81179e-06
1.35358e-06
7.26321e-05
5.7708e-06
-3.43626e-06
3.13951e-06
7.19177e-05
5.913e-06
-5.43732e-06
5.30371e-06
7.06945e-05
6.4849e-06
-7.91615e-06
7.95426e-06
6.88467e-05
7.50543e-06
-1.10439e-05
1.1307e-05
6.61418e-05
8.99893e-06
-1.50763e-05
1.56712e-05
6.2045e-05
1.09784e-05
-2.03546e-05
2.16084e-05
5.57543e-05
1.34774e-05
-2.74208e-05
2.98582e-05
4.52564e-05
1.60223e-05
-3.60975e-05
4.14193e-05
2.83816e-05
1.73671e-05
-4.51491e-05
5.5615e-05
1.0643e-05
-3.68473e-05
6.02706e-05
6.37911e-05
1.94599e-06
5.84594e-07
-8.77882e-07
6.6081e-05
4.01046e-06
1.07168e-06
-1.6661e-06
6.85121e-05
5.15423e-06
1.04135e-06
-1.76252e-06
7.055e-05
5.60131e-06
5.43951e-07
-1.25276e-06
7.19786e-05
5.66601e-06
-3.60259e-07
-2.42782e-07
7.27692e-05
5.67076e-06
-1.59569e-06
1.14145e-06
7.29792e-05
5.8565e-06
-3.14249e-06
2.84674e-06
7.26582e-05
6.37109e-06
-5.03788e-06
4.90077e-06
7.18068e-05
7.30782e-06
-7.37241e-06
7.40091e-06
7.03178e-05
8.75051e-06
-1.03093e-05
1.05532e-05
6.79618e-05
1.07928e-05
-1.40839e-05
1.46461e-05
6.41729e-05
1.35694e-05
-1.90469e-05
2.02447e-05
5.80719e-05
1.72291e-05
-2.57025e-05
2.80518e-05
4.74256e-05
2.14742e-05
-3.40408e-05
3.92352e-05
2.96815e-05
2.48241e-05
-4.28373e-05
5.31244e-05
1.7043e-05
-3.54774e-05
5.8759e-05
6.35504e-05
1.18666e-06
6.0925e-07
-9.00322e-07
6.55855e-05
2.56665e-06
1.13222e-06
-1.72349e-06
6.79149e-05
3.54236e-06
1.14146e-06
-1.85898e-06
7.00471e-05
4.17401e-06
6.87125e-07
-1.39209e-06
7.17117e-05
4.6011e-06
-1.64916e-07
-4.34726e-07
7.28224e-05
5.01286e-06
-1.33148e-06
8.7869e-07
7.33982e-05
5.57883e-06
-2.78288e-06
2.48469e-06
7.34792e-05
6.43603e-06
-4.54469e-06
4.39874e-06
7.3081e-05
7.69673e-06
-6.6897e-06
6.69899e-06
7.21293e-05
9.49677e-06
-9.36155e-06
9.56699e-06
7.04427e-05
1.19903e-05
-1.27549e-05
1.3244e-05
6.74893e-05
1.54696e-05
-1.72007e-05
1.8254e-05
6.23967e-05
2.02498e-05
-2.31027e-05
2.51745e-05
5.25388e-05
2.66767e-05
-3.06247e-05
3.528e-05
3.46019e-05
3.35149e-05
-3.84404e-05
4.76866e-05
2.98519e-05
-3.24032e-05
5.41962e-05
6.34661e-05
6.36802e-07
-9.26905e-07
5.10686e-07
6.54083e-05
1.19912e-06
-1.78904e-06
1.21432e-06
6.77225e-05
1.25243e-06
-1.96856e-06
1.94434e-06
6.99463e-05
8.46727e-07
-1.55071e-06
2.65416e-06
7.17918e-05
5.27117e-08
-6.52262e-07
3.35516e-06
7.31505e-05
-1.0389e-06
5.84202e-07
4.10884e-06
7.40274e-05
-2.38753e-06
2.08368e-06
5.00579e-06
7.44639e-05
-4.00525e-06
3.84744e-06
6.15734e-06
7.44929e-05
-5.94541e-06
5.93253e-06
7.68062e-06
7.40725e-05
-8.3287e-06
8.49224e-06
9.75366e-06
7.30701e-05
-1.13064e-05
1.17187e-05
1.25804e-05
7.1005e-05
-1.51822e-05
1.60843e-05
1.66326e-05
6.70868e-05
-2.02547e-05
2.20427e-05
2.23801e-05
5.84516e-05
-2.68818e-05
3.09844e-05
3.12093e-05
4.15415e-05
-3.37264e-05
4.19382e-05
4.22132e-05
-2.99056e-05
5.04528e-05
5.08462e-05
5.00543e-05
1.25833e-05
2.12223e-07
3.98787e-05
1.04232e-05
3.3623e-07
3.23678e-05
7.77621e-06
2.0374e-07
2.77456e-05
4.84532e-06
-1.28264e-07
2.49973e-05
2.89333e-06
-6.25529e-07
2.33427e-05
1.70666e-06
-1.25426e-06
2.22008e-05
1.0939e-06
-2.02287e-06
2.12266e-05
8.1403e-07
-2.95825e-06
2.02149e-05
7.16985e-07
-4.11451e-06
1.90357e-05
6.9641e-07
-5.54768e-06
1.75832e-05
6.96488e-07
-7.37648e-06
1.5735e-05
6.24612e-07
-9.61957e-06
1.32507e-05
4.84078e-07
-1.25442e-05
9.86762e-06
-5.33978e-08
-1.54479e-05
4.63678e-06
-5.75764e-07
-1.80894e-05
-2.54102e-06
-1.22197e-05
6.47614e-05
1.05148e-05
2.88086e-07
6.34227e-05
1.21336e-05
4.69425e-07
6.08962e-05
1.0738e-05
2.9636e-07
5.81694e-05
7.97661e-06
-2.0779e-07
5.57712e-05
5.59191e-06
-1.02e-06
5.37522e-05
3.87885e-06
-2.10063e-06
5.19474e-05
2.87967e-06
-3.45547e-06
5.01348e-05
2.4096e-06
-5.12672e-06
4.80993e-05
2.29814e-06
-7.20224e-06
4.56216e-05
2.398e-06
-9.78991e-06
4.24649e-05
2.61425e-06
-1.30798e-05
3.82694e-05
2.81597e-06
-1.71651e-05
3.25243e-05
2.96642e-06
-2.23819e-05
2.43407e-05
2.60724e-06
-2.77564e-05
1.2809e-05
1.81919e-06
-3.19261e-05
-1.32527e-06
-2.08792e-05
6.6277e-05
6.94624e-06
3.16242e-07
6.85135e-05
1.03074e-05
5.17557e-07
6.93677e-05
1.03747e-05
3.38234e-07
6.90807e-05
8.73149e-06
-1.99352e-07
6.81594e-05
6.87556e-06
-1.07546e-06
6.68775e-05
5.36583e-06
-2.25635e-06
6.53371e-05
4.43564e-06
-3.75131e-06
6.34984e-05
4.04402e-06
-5.60823e-06
6.12346e-05
4.0939e-06
-7.92223e-06
5.83377e-05
4.47216e-06
-1.08171e-05
5.45193e-05
5.10145e-06
-1.44976e-05
4.93098e-05
5.85799e-06
-1.90924e-05
4.20312e-05
6.69743e-06
-2.4943e-05
3.15152e-05
7.06754e-06
-3.10644e-05
1.66903e-05
6.5184e-06
-3.57819e-05
2.04899e-06
-2.34128e-05
6.51685e-05
4.48912e-06
3.33232e-07
6.80355e-05
7.86211e-06
5.51736e-07
7.01585e-05
8.75942e-06
3.80349e-07
7.12087e-05
8.16812e-06
-1.52666e-07
7.1376e-05
7.09028e-06
-1.02347e-06
7.08671e-05
6.0992e-06
-2.1989e-06
6.98307e-05
5.50641e-06
-3.68931e-06
6.82999e-05
5.38805e-06
-5.54407e-06
6.62049e-05
5.73697e-06
-7.85779e-06
6.33614e-05
6.50787e-06
-1.07584e-05
5.94664e-05
7.67728e-06
-1.44493e-05
5.39934e-05
9.16622e-06
-1.90791e-05
4.61591e-05
1.09625e-05
-2.49837e-05
3.465e-05
1.24197e-05
-3.12318e-05
1.82013e-05
1.25602e-05
-3.60913e-05
6.31027e-06
-2.36405e-05
6.42339e-05
2.96618e-06
3.5279e-07
6.67578e-05
5.76257e-06
5.955e-07
6.90703e-05
6.95906e-06
4.45227e-07
7.06673e-05
7.06343e-06
-6.59719e-08
7.14791e-05
6.66696e-06
-9.0843e-07
7.15751e-05
6.23682e-06
-2.04537e-06
7.10524e-05
6.07649e-06
-3.48369e-06
6.99476e-05
6.32527e-06
-5.26972e-06
6.8214e-05
7.04631e-06
-7.49188e-06
6.56855e-05
8.26817e-06
-1.02757e-05
6.20609e-05
1.00389e-05
-1.38134e-05
5.67724e-05
1.23675e-05
-1.82674e-05
4.89353e-05
1.53334e-05
-2.39545e-05
3.7024e-05
1.82818e-05
-3.00484e-05
1.94109e-05
1.98482e-05
-3.4824e-05
1.16861e-05
-2.28123e-05
6.37051e-05
1.97127e-06
3.74388e-07
6.58188e-05
4.07368e-06
6.46902e-07
6.80311e-05
5.26084e-06
5.27215e-07
6.98364e-05
5.75355e-06
4.86222e-08
7.10271e-05
5.8699e-06
-7.53893e-07
7.15659e-05
5.9404e-06
-1.83807e-06
7.14876e-05
6.21691e-06
-3.20461e-06
7.08093e-05
6.85935e-06
-4.89366e-06
6.94897e-05
7.9774e-06
-6.98396e-06
6.73723e-05
9.67124e-06
-9.595e-06
6.41595e-05
1.2069e-05
-1.29012e-05
5.92437e-05
1.53139e-05
-1.70775e-05
5.16502e-05
1.96319e-05
-2.24075e-05
3.9591e-05
2.45137e-05
-2.82135e-05
2.09774e-05
2.84169e-05
-3.27923e-05
1.87533e-05
-2.15672e-05
6.34665e-05
1.2148e-06
3.99245e-07
6.53301e-05
2.63578e-06
7.06474e-07
6.74494e-05
3.65836e-06
6.24636e-07
6.93625e-05
4.34053e-06
1.87107e-07
7.08081e-05
4.8256e-06
-5.66282e-07
7.16926e-05
5.31086e-06
-1.58645e-06
7.20141e-05
5.97775e-06
-2.86523e-06
7.17838e-05
6.97763e-06
-4.43263e-06
7.0981e-05
8.44252e-06
-6.35199e-06
6.94878e-05
1.05313e-05
-8.7284e-06
6.70639e-05
1.34418e-05
-1.17037e-05
6.31319e-05
1.74942e-05
-1.5449e-05
5.67259e-05
2.31105e-05
-2.01753e-05
4.55626e-05
3.0445e-05
-2.53928e-05
2.66531e-05
3.82799e-05
-2.93939e-05
3.24239e-05
-1.94208e-05
6.33844e-05
4.26138e-07
5.41066e-07
6.51606e-05
7.71084e-07
1.28757e-06
6.72742e-05
7.31212e-07
2.06598e-06
6.92929e-05
3.39742e-07
2.82881e-06
7.09395e-05
-3.5928e-07
3.59105e-06
7.2099e-05
-1.30974e-06
4.42216e-06
7.27578e-05
-2.4937e-06
5.42515e-06
7.29323e-05
-3.92936e-06
6.72725e-06
7.2625e-05
-5.66316e-06
8.46753e-06
7.1757e-05
-7.78285e-06
1.08534e-05
7.01484e-05
-1.0395e-05
1.41391e-05
6.72715e-05
-1.36614e-05
1.88503e-05
6.2259e-05
-1.77156e-05
2.55839e-05
5.24884e-05
-2.2282e-05
3.56158e-05
3.46242e-05
-2.57178e-05
4.81355e-05
-1.76652e-05
5.48077e-05
5.00045e-05
1.25889e-05
1.18839e-07
3.97317e-05
1.04391e-05
1.69858e-07
3.21068e-05
7.7957e-06
3.29478e-08
2.73697e-05
4.86366e-06
-2.54867e-07
2.4506e-05
2.9115e-06
-6.7331e-07
2.27259e-05
1.72808e-06
-1.20216e-06
2.14326e-05
1.12261e-06
-1.85222e-06
2.02647e-05
8.52815e-07
-2.64315e-06
1.89961e-05
7.68868e-07
-3.61484e-06
1.74786e-05
7.64222e-07
-4.79438e-06
1.55772e-05
7.85981e-07
-6.26101e-06
1.31821e-05
7.43473e-07
-7.96797e-06
1.00735e-05
6.40478e-07
-1.00761e-05
6.35681e-06
1.68063e-07
-1.18993e-05
1.78786e-06
-4.11205e-07
-1.31092e-05
-2.18047e-06
-8.25142e-06
6.46908e-05
1.05287e-05
1.57449e-07
6.32111e-05
1.21665e-05
2.21833e-07
6.04999e-05
1.07843e-05
1.89691e-08
5.75645e-05
8.02916e-06
-4.37863e-07
5.49421e-05
5.65079e-06
-1.1369e-06
5.26764e-05
3.94942e-06
-2.05623e-06
5.05821e-05
2.97083e-06
-3.2094e-06
4.84099e-05
2.53027e-06
-4.63195e-06
4.59093e-05
2.45878e-06
-6.3916e-06
4.2828e-05
2.60854e-06
-8.55295e-06
3.88871e-05
2.88975e-06
-1.12427e-05
3.37487e-05
3.16611e-06
-1.44493e-05
2.6951e-05
3.4042e-06
-1.8348e-05
1.81964e-05
3.11434e-06
-2.19481e-05
7.52797e-06
2.24855e-06
-2.39174e-05
-9.89124e-07
-1.45426e-05
6.62058e-05
6.96464e-06
1.74497e-07
6.8295e-05
1.03512e-05
2.43707e-07
6.89513e-05
1.04414e-05
2.47557e-08
6.84341e-05
8.81548e-06
-4.68484e-07
6.72594e-05
6.97705e-06
-1.22708e-06
6.56956e-05
5.49161e-06
-2.23466e-06
6.38256e-05
4.59852e-06
-3.509e-06
6.15801e-05
4.25942e-06
-5.09196e-06
5.87934e-05
4.38125e-06
-7.05795e-06
5.52183e-05
4.85145e-06
-9.48487e-06
5.05183e-05
5.6007e-06
-1.25086e-05
4.42392e-05
6.49453e-06
-1.61417e-05
3.57526e-05
7.49713e-06
-2.05493e-05
2.4527e-05
7.97611e-06
-2.47006e-05
1.0563e-05
7.37234e-06
-2.69417e-05
2.45932e-06
-1.62982e-05
6.50994e-05
4.51011e-06
1.88407e-07
6.78208e-05
7.91288e-06
2.68528e-07
6.97482e-05
8.84089e-06
5.35718e-08
7.05704e-05
8.2776e-06
-4.3702e-07
7.0486e-05
7.22936e-06
-1.19133e-06
6.96961e-05
6.27648e-06
-2.19395e-06
6.83309e-05
5.7383e-06
-3.46387e-06
6.63944e-05
5.69645e-06
-5.04462e-06
6.3777e-05
6.15118e-06
-7.0103e-06
6.02521e-05
7.0606e-06
-9.44259e-06
5.54643e-05
8.41465e-06
-1.24755e-05
4.88943e-05
1.01223e-05
-1.61368e-05
3.97977e-05
1.21922e-05
-2.05822e-05
2.75041e-05
1.38524e-05
-2.48145e-05
1.18598e-05
1.40333e-05
-2.71079e-05
7.02322e-06
-1.63446e-05
6.41669e-05
2.98935e-06
2.06686e-07
6.65484e-05
5.81932e-06
3.07495e-07
6.8671e-05
7.05263e-06
1.10868e-07
7.00488e-05
7.19395e-06
-3.60073e-07
7.06206e-05
6.83788e-06
-1.08872e-06
7.04499e-05
6.45879e-06
-2.05703e-06
6.96162e-05
6.36946e-06
-3.28112e-06
6.81274e-05
6.71749e-06
-4.80197e-06
6.58978e-05
7.57738e-06
-6.68847e-06
6.2718e-05
8.98563e-06
-9.02097e-06
5.82314e-05
1.1012e-05
-1.19241e-05
5.18676e-05
1.36575e-05
-1.54388e-05
4.27654e-05
1.70442e-05
-1.97043e-05
3.0025e-05
2.03522e-05
-2.38079e-05
1.31079e-05
2.2157e-05
-2.60306e-05
1.29548e-05
-1.56361e-05
6.36398e-05
1.99674e-06
2.2721e-07
6.5615e-05
4.13598e-06
3.54998e-07
6.76443e-05
5.36461e-06
1.85959e-07
6.92413e-05
5.90101e-06
-2.55438e-07
7.0207e-05
6.0664e-06
-9.48089e-07
7.04985e-05
6.19876e-06
-1.86956e-06
7.01335e-05
6.56048e-06
-3.03062e-06
6.91019e-05
7.32253e-06
-4.46708e-06
6.73249e-05
8.6101e-06
-6.23973e-06
6.46029e-05
1.05375e-05
-8.42483e-06
6.05816e-05
1.32651e-05
-1.11331e-05
5.46408e-05
1.69392e-05
-1.44183e-05
4.58149e-05
2.18584e-05
-1.8396e-05
3.29059e-05
2.73241e-05
-2.22763e-05
1.48465e-05
3.18006e-05
-2.43765e-05
2.08832e-05
-1.46491e-05
6.34032e-05
1.24231e-06
2.50496e-07
6.51331e-05
2.70258e-06
4.09974e-07
6.70775e-05
3.7697e-06
2.75159e-07
6.87949e-05
4.4999e-06
-1.29228e-07
7.00332e-05
5.03984e-06
-7.77978e-07
7.0694e-05
5.59446e-06
-1.64303e-06
7.07604e-05
6.35649e-06
-2.72758e-06
7.0219e-05
7.49057e-06
-4.05929e-06
6.90163e-05
9.1475e-06
-5.6867e-06
6.69952e-05
1.15067e-05
-7.67658e-06
6.3865e-05
1.48077e-05
-1.01161e-05
5.9028e-05
1.93919e-05
-1.30648e-05
5.15182e-05
2.5785e-05
-1.65921e-05
3.95548e-05
3.3969e-05
-2.00743e-05
2.10032e-05
4.28401e-05
-2.18818e-05
3.56814e-05
-1.32158e-05
6.33233e-05
2.7521e-07
5.69958e-07
6.4971e-05
4.6895e-07
1.35699e-06
6.69188e-05
3.72013e-07
2.18112e-06
6.87554e-05
9.00778e-09
2.99399e-06
7.02131e-05
-5.91303e-07
3.81415e-06
7.11743e-05
-1.39499e-06
4.71856e-06
7.1612e-05
-2.39678e-06
5.82185e-06
7.15219e-05
-3.61488e-06
7.26616e-06
7.08791e-05
-5.08439e-06
9.21154e-06
6.95711e-05
-6.86029e-06
1.18922e-05
6.73767e-05
-9.00426e-06
1.56113e-05
6.37442e-05
-1.15776e-05
2.09406e-05
5.78084e-05
-1.46019e-05
2.86071e-05
4.7346e-05
-1.76405e-05
3.97899e-05
2.974e-05
-1.9183e-05
5.39113e-05
-1.20439e-05
5.98001e-05
4.99663e-05
1.25941e-05
5.84119e-08
3.96173e-05
1.04531e-05
6.57351e-08
3.18995e-05
7.81319e-06
-6.24051e-08
2.70657e-05
4.88061e-06
-3.0171e-07
2.4104e-05
2.92877e-06
-6.40315e-07
2.22199e-05
1.74866e-06
-1.06673e-06
2.0809e-05
1.15027e-06
-1.59162e-06
1.95038e-05
8.90694e-07
-2.22867e-06
1.80738e-05
8.20902e-07
-3.00566e-06
1.63754e-05
8.35469e-07
-3.93149e-06
1.42829e-05
8.8612e-07
-5.0546e-06
1.17292e-05
8.89343e-07
-6.3036e-06
8.55741e-06
8.58052e-07
-7.76235e-06
5.00437e-06
5.15863e-07
-8.8621e-06
1.12655e-06
4.42009e-08
-9.27559e-06
-1.55608e-06
-5.56879e-06
6.46362e-05
1.05416e-05
7.37186e-08
6.30452e-05
1.21962e-05
6.98022e-08
6.01832e-05
1.08264e-05
-1.32191e-07
5.70724e-05
8.07763e-06
-5.24119e-07
5.42586e-05
5.70557e-06
-1.09992e-06
5.17843e-05
4.01497e-06
-1.84825e-06
4.94547e-05
3.05501e-06
-2.78457e-06
4.70087e-05
2.64144e-06
-3.93669e-06
4.41842e-05
2.60745e-06
-5.35368e-06
4.07301e-05
2.80616e-06
-7.06949e-06
3.63792e-05
3.15503e-06
-9.16073e-06
3.08647e-05
3.52014e-06
-1.15655e-05
2.38422e-05
3.88188e-06
-1.43493e-05
1.53238e-05
3.74981e-06
-1.66636e-05
5.81024e-06
2.99947e-06
-1.73591e-05
-2.4624e-07
-1.00422e-05
6.61509e-05
6.98206e-06
8.31901e-08
6.81237e-05
1.03916e-05
7.55248e-08
6.86184e-05
1.05029e-05
-1.46501e-07
6.79079e-05
8.89303e-06
-5.73338e-07
6.65169e-05
7.07071e-06
-1.20127e-06
6.47139e-05
5.60699e-06
-2.02365e-06
6.25734e-05
4.74665e-06
-3.06014e-06
6.00135e-05
4.45389e-06
-4.34451e-06
5.68548e-05
4.63972e-06
-5.93152e-06
5.28489e-05
5.19285e-06
-7.86564e-06
4.76712e-05
6.05288e-06
-1.02288e-05
4.09427e-05
7.0814e-06
-1.29744e-05
3.21682e-05
8.25808e-06
-1.6151e-05
2.11711e-05
8.90639e-06
-1.88601e-05
8.49395e-06
8.39997e-06
-1.96651e-05
3.22156e-06
-1.12721e-05
6.50463e-05
4.53013e-06
9.40585e-08
6.76533e-05
7.96022e-06
9.28654e-08
6.94213e-05
8.91621e-06
-1.27766e-07
7.00522e-05
8.37839e-06
-5.53334e-07
6.97529e-05
7.35675e-06
-1.17804e-06
6.87247e-05
6.43755e-06
-1.99635e-06
6.70898e-05
5.94693e-06
-3.02916e-06
6.48397e-05
5.9712e-06
-4.31186e-06
6.18513e-05
6.51699e-06
-5.89915e-06
5.78954e-05
7.54495e-06
-7.83882e-06
5.26273e-05
9.05645e-06
-1.0211e-05
4.56009e-05
1.09515e-05
-1.29806e-05
3.6204e-05
1.32584e-05
-1.61857e-05
2.4125e-05
1.51189e-05
-1.8948e-05
9.77125e-06
1.5406e-05
-1.97602e-05
7.89603e-06
-1.12479e-05
6.41156e-05
3.01129e-06
1.09874e-07
6.63858e-05
5.87208e-06
1.25495e-07
6.83542e-05
7.13876e-06
-8.0086e-08
6.95483e-05
7.31327e-06
-4.89028e-07
6.99151e-05
6.9931e-06
-1.09196e-06
6.95185e-05
6.65865e-06
-1.88145e-06
6.84299e-05
6.63054e-06
-2.87616e-06
6.66457e-05
7.063e-06
-4.10958e-06
6.40671e-05
8.03943e-06
-5.63229e-06
6.04816e-05
9.60099e-06
-7.49153e-06
5.55415e-05
1.18328e-05
-9.76037e-06
4.87443e-05
1.47249e-05
-1.24148e-05
3.93521e-05
1.84269e-05
-1.54806e-05
2.68107e-05
2.19958e-05
-1.81434e-05
1.11257e-05
2.39626e-05
-1.89022e-05
1.40685e-05
-1.06829e-05
6.35901e-05
2.02047e-06
1.27886e-07
6.54575e-05
4.1933e-06
1.66435e-07
6.73387e-05
5.45927e-06
-1.57531e-08
6.87614e-05
6.03466e-06
-3.99524e-07
6.9535e-05
6.24334e-06
-9.71953e-07
6.96169e-05
6.42942e-06
-1.72217e-06
6.90173e-05
6.86398e-06
-2.66453e-06
6.77153e-05
7.7264e-06
-3.82845e-06
6.56199e-05
9.15324e-06
-5.25816e-06
6.25279e-05
1.12665e-05
-6.99836e-06
5.80928e-05
1.42467e-05
-9.11183e-06
5.17551e-05
1.82307e-05
-1.15865e-05
4.26619e-05
2.35561e-05
-1.4432e-05
2.99388e-05
2.93719e-05
-1.69294e-05
1.30208e-05
3.41218e-05
-1.76177e-05
2.2368e-05
-9.92771e-06
6.33553e-05
1.26745e-06
1.48175e-07
6.49815e-05
2.76325e-06
2.13856e-07
6.67849e-05
3.87022e-06
6.07894e-08
6.83388e-05
4.64313e-06
-2.91601e-07
6.94e-05
5.23128e-06
-8.27047e-07
6.98707e-05
5.84585e-06
-1.53023e-06
6.97279e-05
6.68872e-06
-2.40946e-06
6.89486e-05
7.93429e-06
-3.48789e-06
6.74692e-05
9.7465e-06
-4.80059e-06
6.51298e-05
1.23156e-05
-6.3863e-06
6.16474e-05
1.59049e-05
-8.29191e-06
5.64759e-05
2.08518e-05
-1.05143e-05
4.87484e-05
2.77285e-05
-1.3037e-05
3.69652e-05
3.63526e-05
-1.52718e-05
1.94103e-05
4.56251e-05
-1.58303e-05
3.75274e-05
-8.96493e-06
6.32773e-05
1.69474e-07
5.9587e-07
6.48259e-05
2.64424e-07
1.41915e-06
6.66405e-05
1.43583e-07
2.28406e-06
6.83252e-05
-1.73802e-07
3.14129e-06
6.96216e-05
-6.68529e-07
4.01211e-06
7.04134e-05
-1.32058e-06
4.97963e-06
7.0669e-05
-2.13146e-06
6.16776e-06
7.03762e-05
-3.11709e-06
7.72928e-06
6.95024e-05
-4.30236e-06
9.83835e-06
6.79332e-05
-5.71852e-06
1.27431e-05
6.54567e-05
-7.39513e-06
1.67723e-05
6.15641e-05
-9.33598e-06
2.25028e-05
5.54784e-05
-1.14983e-05
3.07107e-05
4.52082e-05
-1.3442e-05
4.24243e-05
2.84712e-05
-1.39093e-05
5.70884e-05
-8.19062e-06
6.21453e-05
4.99368e-05
1.25984e-05
2.31858e-08
3.95284e-05
1.04646e-05
9.50285e-09
3.17361e-05
7.8276e-06
-9.76436e-08
2.68224e-05
4.8947e-06
-2.82677e-07
2.37775e-05
2.94313e-06
-5.38596e-07
2.18043e-05
1.76555e-06
-8.59102e-07
2.02929e-05
1.17263e-06
-1.25283e-06
1.88717e-05
9.20861e-07
-1.72829e-06
1.73074e-05
8.61688e-07
-2.30305e-06
1.54617e-05
8.9025e-07
-2.97612e-06
1.322e-05
9.61337e-07
-3.77422e-06
1.05506e-05
9.95881e-07
-4.63009e-06
7.3599e-06
1.01224e-06
-5.58387e-06
3.97929e-06
7.50995e-07
-6.23249e-06
6.69035e-07
3.39323e-07
-6.30466e-06
-1.20636e-06
-3.69341e-06
6.45937e-05
1.05526e-05
2.57793e-08
6.29157e-05
1.22213e-05
-8.87449e-09
5.99329e-05
1.08619e-05
-1.83736e-07
5.66782e-05
8.11891e-06
-4.9362e-07
5.37042e-05
5.75237e-06
-9.3516e-07
5.10534e-05
4.07078e-06
-1.50271e-06
4.85251e-05
3.12616e-06
-2.20981e-06
4.58507e-05
2.73476e-06
-3.07615e-06
4.27616e-05
2.73147e-06
-4.13437e-06
3.90115e-05
2.96998e-06
-5.3991e-06
3.43511e-05
3.37329e-06
-6.91228e-06
2.85766e-05
3.80862e-06
-8.60382e-06
2.14581e-05
4.26643e-06
-1.0485e-05
1.32283e-05
4.25023e-06
-1.19331e-05
4.69587e-06
3.57682e-06
-1.20642e-05
2.58573e-07
-6.81128e-06
6.61081e-05
6.99722e-06
3.04784e-08
6.79901e-05
1.04263e-05
-1.13893e-08
6.83555e-05
1.05555e-05
-2.05499e-07
6.74865e-05
8.9596e-06
-5.4501e-07
6.59149e-05
7.15116e-06
-1.02841e-06
6.39099e-05
5.70578e-06
-1.6537e-06
6.15411e-05
4.87277e-06
-2.43796e-06
5.87187e-05
4.61855e-06
-3.40585e-06
5.52556e-05
4.85743e-06
-4.59443e-06
5.0907e-05
5.47896e-06
-6.02602e-06
4.53672e-05
6.42971e-06
-7.74535e-06
3.83255e-05
7.56734e-06
-9.69148e-06
2.9416e-05
8.8834e-06
-1.18584e-05
1.87212e-05
9.66376e-06
-1.35789e-05
7.14687e-06
9.23058e-06
-1.37444e-05
3.80656e-06
-7.67323e-06
6.50051e-05
4.54772e-06
3.84323e-08
6.75229e-05
8.00129e-06
9.9258e-11
6.91635e-05
8.98114e-06
-1.94061e-07
6.96378e-05
8.46516e-06
-5.33163e-07
6.9159e-05
7.46624e-06
-1.01434e-06
6.79296e-05
6.57547e-06
-1.63661e-06
6.60667e-05
6.12467e-06
-2.41815e-06
6.35544e-05
6.20404e-06
-3.38504e-06
6.02616e-05
6.82542e-06
-4.5744e-06
5.59619e-05
7.95115e-06
-6.01126e-06
5.0328e-05
9.59147e-06
-7.73888e-06
4.29811e-05
1.16383e-05
-9.70461e-06
3.34382e-05
1.41344e-05
-1.18938e-05
2.16521e-05
1.61532e-05
-1.36513e-05
8.4097e-06
1.65243e-05
-1.38115e-05
8.61429e-06
-7.64591e-06
6.40761e-05
3.03057e-06
5.0939e-08
6.62596e-05
5.91789e-06
2.5336e-08
6.8105e-05
7.21306e-06
-1.57365e-07
6.91488e-05
7.41589e-06
-4.83518e-07
6.93445e-05
7.12623e-06
-9.47678e-07
6.87567e-05
6.82944e-06
-1.54761e-06
6.74524e-05
6.85266e-06
-2.29992e-06
6.54206e-05
7.35554e-06
-3.22928e-06
6.2555e-05
8.42869e-06
-4.36991e-06
5.86448e-05
1.01166e-05
-5.74675e-06
5.33582e-05
1.2516e-05
-7.39826e-06
4.62552e-05
1.56068e-05
-9.28034e-06
3.67205e-05
1.95588e-05
-1.13703e-05
2.44559e-05
2.33331e-05
-1.30588e-05
9.83812e-06
2.5427e-05
-1.31871e-05
1.50106e-05
-7.2411e-06
6.35519e-05
2.04118e-06
6.53363e-08
6.53357e-05
4.24287e-06
5.76904e-08
6.70991e-05
5.54071e-06
-1.06741e-07
6.83793e-05
6.14925e-06
-4.13167e-07
6.89925e-05
6.39462e-06
-8.53511e-07
6.88968e-05
6.62601e-06
-1.42304e-06
6.80984e-05
7.12168e-06
-2.13514e-06
6.65692e-05
8.06784e-06
-3.01156e-06
6.42114e-05
9.6102e-06
-4.08189e-06
6.08229e-05
1.18763e-05
-5.36961e-06
5.60713e-05
1.5062e-05
-6.90627e-06
4.94539e-05
1.92951e-05
-8.6573e-06
4.02309e-05
2.49403e-05
-1.05906e-05
2.77688e-05
3.1031e-05
-1.21652e-05
1.18464e-05
3.59914e-05
-1.22596e-05
2.36354e-05
-6.7061e-06
6.33187e-05
1.28917e-06
8.1493e-08
6.48648e-05
2.81537e-06
9.52125e-08
6.65564e-05
3.9563e-06
-4.63989e-08
6.79769e-05
4.76544e-06
-3.28299e-07
6.889e-05
5.39441e-06
-7.39907e-07
6.91994e-05
6.05955e-06
-1.27321e-06
6.88785e-05
6.97034e-06
-1.93713e-06
6.78983e-05
8.30906e-06
-2.74895e-06
6.61895e-05
1.02502e-05
-3.73186e-06
6.35933e-05
1.29922e-05
-4.90589e-06
5.98397e-05
1.68162e-05
-6.2925e-06
5.44316e-05
2.20547e-05
-7.86583e-06
4.66024e-05
2.93123e-05
-9.57992e-06
3.50651e-05
3.82836e-05
-1.0987e-05
1.83936e-05
4.78673e-05
-1.10347e-05
3.91404e-05
-6.07634e-06
6.32423e-05
9.83418e-08
6.18014e-07
6.47148e-05
1.3509e-07
1.47214e-06
6.64243e-05
1.87456e-08
2.37169e-06
6.79852e-05
-2.35823e-07
3.26652e-06
6.91467e-05
-6.15859e-07
4.18022e-06
6.97945e-05
-1.10982e-06
5.20099e-06
6.98945e-05
-1.72158e-06
6.46047e-06
6.94297e-05
-2.46324e-06
8.12001e-06
6.83634e-05
-3.35091e-06
1.03651e-05
6.65829e-05
-4.40009e-06
1.34543e-05
6.38893e-05
-5.62131e-06
1.7736e-05
5.98152e-05
-6.99604e-06
2.37888e-05
5.36718e-05
-8.46561e-06
3.2423e-05
4.36448e-05
-9.68703e-06
4.45556e-05
2.76819e-05
-9.72235e-06
5.96433e-05
-5.57507e-06
6.42067e-05
4.99156e-05
1.26018e-05
5.80666e-09
3.94641e-05
1.04735e-05
-1.25493e-08
3.16169e-05
7.83878e-06
-8.9188e-08
2.66439e-05
4.90587e-06
-2.15531e-07
2.35378e-05
2.95471e-06
-3.87222e-07
2.15006e-05
1.77935e-06
-6.01278e-07
1.99204e-05
1.19105e-06
-8.63599e-07
1.84251e-05
9.46061e-07
-1.17904e-06
1.67833e-05
8.96391e-07
-1.55766e-06
1.48644e-05
9.37966e-07
-1.99525e-06
1.25667e-05
1.02838e-06
-2.5049e-06
9.88068e-06
1.09233e-06
-3.03637e-06
6.74952e-06
1.15315e-06
-3.60586e-06
3.51642e-06
9.59954e-07
-3.95934e-06
5.13861e-07
6.05814e-07
-3.90791e-06
-9.28083e-07
-2.25146e-06
6.4563e-05
1.05613e-05
3.24631e-09
6.28214e-05
1.22409e-05
-3.47567e-08
5.97493e-05
1.08897e-05
-1.62574e-07
5.63873e-05
8.15142e-06
-3.77115e-07
5.32938e-05
5.7894e-06
-6.76362e-07
5.05133e-05
4.11501e-06
-1.05784e-06
4.78432e-05
3.18253e-06
-1.53128e-06
4.50136e-05
2.80877e-06
-2.10917e-06
4.17565e-05
2.83011e-06
-2.81107e-06
3.78359e-05
3.10102e-06
-3.64155e-06
3.30237e-05
3.54923e-06
-4.62084e-06
2.71607e-05
4.04357e-06
-5.69207e-06
2.0091e-05
4.58311e-06
-6.84523e-06
1.21295e-05
4.66521e-06
-7.67677e-06
4.19883e-06
4.0667e-06
-7.5945e-06
6.70343e-07
-4.21088e-06
6.60772e-05
7.00927e-06
5.30592e-09
6.78927e-05
1.04537e-05
-3.96376e-08
6.81625e-05
1.05968e-05
-1.82389e-07
6.71752e-05
9.01207e-06
-4.18304e-07
6.54684e-05
7.21456e-06
-7.46852e-07
6.33142e-05
5.78345e-06
-1.16793e-06
6.07811e-05
4.97157e-06
-1.69387e-06
5.77777e-05
4.74705e-06
-2.34067e-06
5.41174e-05
5.02684e-06
-3.13093e-06
4.95654e-05
5.70125e-06
-4.07422e-06
4.38391e-05
6.72231e-06
-5.1921e-06
3.66783e-05
7.94547e-06
-6.43261e-06
2.78036e-05
9.37175e-06
-7.77235e-06
1.74042e-05
1.02602e-05
-8.7745e-06
6.52443e-06
9.89615e-06
-8.69413e-06
4.28056e-06
-4.75902e-06
6.49755e-05
4.56176e-06
1.04776e-08
6.74281e-05
8.03382e-06
-3.26938e-08
6.89745e-05
9.03237e-06
-1.7603e-07
6.93319e-05
8.5335e-06
-4.11934e-07
6.8719e-05
7.55225e-06
-7.39119e-07
6.73407e-05
6.68335e-06
-1.15823e-06
6.53136e-05
6.26292e-06
-1.68243e-06
6.26203e-05
6.38403e-06
-2.32874e-06
5.91304e-05
7.06231e-06
-3.11989e-06
5.46266e-05
8.26114e-06
-4.06736e-06
4.88047e-05
9.99702e-06
-5.19173e-06
4.1336e-05
1.21559e-05
-6.44633e-06
3.18247e-05
1.4791e-05
-7.80169e-06
2.0333e-05
1.69281e-05
-8.82754e-06
7.79179e-06
1.73652e-05
-8.73941e-06
9.16465e-06
-4.73821e-06
6.40476e-05
3.04594e-06
1.91119e-08
6.61682e-05
5.95417e-06
-1.5535e-08
6.79227e-05
7.27165e-06
-1.51167e-07
6.88544e-05
7.49653e-06
-3.78217e-07
6.89222e-05
7.23045e-06
-6.93749e-07
6.81932e-05
6.96242e-06
-1.09763e-06
6.67338e-05
7.02443e-06
-1.60204e-06
6.45317e-05
7.57998e-06
-2.22311e-06
6.14812e-05
8.72463e-06
-2.98173e-06
5.73805e-05
1.05045e-05
-3.88945e-06
5.19194e-05
1.30239e-05
-4.96396e-06
4.47051e-05
1.62543e-05
-6.16435e-06
3.5205e-05
2.03772e-05
-7.45648e-06
2.32242e-05
2.42893e-05
-8.43919e-06
9.27644e-06
2.646e-05
-8.33409e-06
1.56783e-05
-4.47829e-06
6.35246e-05
2.0576e-06
2.91214e-08
6.52476e-05
4.28199e-06
6.79949e-09
6.69241e-05
5.60472e-06
-1.163e-07
6.80983e-05
6.23899e-06
-3.29803e-07
6.85917e-05
6.51258e-06
-6.29014e-07
6.83648e-05
6.77839e-06
-1.01218e-06
6.74236e-05
7.31991e-06
-1.48937e-06
6.57388e-05
8.32801e-06
-2.07479e-06
6.32134e-05
9.95446e-06
-2.78636e-06
5.96536e-05
1.23295e-05
-3.63485e-06
5.47472e-05
1.56578e-05
-4.63377e-06
4.80348e-05
2.0058e-05
-5.74872e-06
3.8853e-05
2.5909e-05
-6.94059e-06
2.6662e-05
3.21672e-05
-7.85203e-06
1.13613e-05
3.72338e-05
-7.73278e-06
2.44691e-05
-4.13569e-06
6.32925e-05
1.30627e-06
4.03358e-08
6.47807e-05
2.85629e-06
3.27333e-08
6.639e-05
4.02369e-06
-7.46848e-08
6.77112e-05
4.86087e-06
-2.71376e-07
6.85137e-05
5.52113e-06
-5.50962e-07
6.87038e-05
6.22457e-06
-9.09548e-07
6.82548e-05
7.18605e-06
-1.35426e-06
6.71372e-05
8.59314e-06
-1.89646e-06
6.52827e-05
1.06271e-05
-2.55005e-06
6.25401e-05
1.34902e-05
-3.32396e-06
5.86579e-05
1.74734e-05
-4.22593e-06
5.3177e-05
2.29011e-05
-5.22802e-06
4.53984e-05
3.03926e-05
-6.28477e-06
3.41157e-05
3.95605e-05
-7.09764e-06
1.79994e-05
4.92844e-05
-6.96891e-06
4.01489e-05
-3.75669e-06
6.32173e-05
5.19893e-08
6.3531e-07
6.46349e-05
6.02517e-08
1.51353e-06
6.62671e-05
-2.97997e-08
2.44004e-06
6.7736e-05
-2.0776e-07
3.36387e-06
6.87968e-05
-4.6581e-07
4.31036e-06
6.93379e-05
-7.97708e-07
5.37133e-06
6.93258e-05
-1.20726e-06
6.68386e-06
6.87433e-05
-1.7025e-06
8.41493e-06
6.75553e-05
-2.29288e-06
1.07571e-05
6.56564e-05
-2.98483e-06
1.39738e-05
6.28649e-05
-3.77981e-06
1.84235e-05
5.87459e-05
-4.6556e-06
2.46796e-05
5.2669e-05
-5.5615e-06
3.35654e-05
4.28856e-05
-6.26498e-06
4.59219e-05
2.74101e-05
-6.1512e-06
6.11887e-05
-3.45575e-06
6.54396e-05
4.99015e-05
1.2604e-05
2.56383e-10
3.94215e-05
1.04795e-05
-1.20577e-08