/*--------------------------------*- C++ -*----------------------------------*\
| =========                 |                                                 |
| \\      /  F ield         | OpenFOAM: The Open Source CFD Toolbox           |
|  \\    /   O peration     | Version:  v1912                                 |
|   \\  /    A nd           | Website:  www.openfoam.com                      |
|    \\/     M anipulation  |                                                 |
\*---------------------------------------------------------------------------*/
FoamFile
{
    version     2.0;
    format      ascii;
    class       pointVectorField;
    location    "0.71/fluid";
    object      pointMotionU;
}
// * * * * * * * * * * * * * * * * * * * * * * * * * * * * * * * * * * * * * //

dimensions      [0 1 -1 0 0 0 0];


internalField   nonuniform List<vector> 
16859
(
(0 0 0)
(0 0 0)
(0 0 0)
(0 0 0)
(0 0 0)
(0 0 0)
(0 0 0)
(0 0 0)
(0 0 0)
(0 0 0)
(0 0 0)
(0 0 0)
(0 0 0)
(0 0 0)
(0 0 0)
(0 0 0)
(1.73034e-08 2.96182e-08 1.83921e-08)
(0 0 0)
(5.07037e-10 -1.14449e-09 8.99242e-10)
(9.68962e-10 -2.18929e-09 1.75258e-09)
(1.40492e-09 -3.17535e-09 2.62156e-09)
(1.83258e-09 -4.13237e-09 3.56077e-09)
(2.26924e-09 -5.0776e-09 4.621e-09)
(2.73371e-09 -6.0136e-09 5.85161e-09)
(3.24886e-09 -6.92409e-09 7.30212e-09)
(3.84567e-09 -7.76555e-09 9.02301e-09)
(4.57055e-09 -8.45204e-09 1.1066e-08)
(5.50038e-09 -8.82761e-09 1.34856e-08)
(6.77435e-09 -8.61537e-09 1.63481e-08)
(8.66398e-09 -7.31609e-09 1.97674e-08)
(1.17038e-08 -4.00798e-09 2.40029e-08)
(1.68428e-08 2.95937e-09 2.96527e-08)
(2.44426e-08 1.46545e-08 3.70197e-08)
(3.60699e-08 3.79378e-08 4.57392e-08)
(0 0 0)
(1.00164e-09 -2.25533e-09 1.77513e-09)
(1.91371e-09 -4.31568e-09 3.45903e-09)
(2.77339e-09 -6.2629e-09 5.17251e-09)
(3.61477e-09 -8.15711e-09 7.02248e-09)
(4.47134e-09 -1.00354e-08 9.10858e-09)
(5.379e-09 -1.19079e-08 1.15276e-08)
(6.38016e-09 -1.37511e-08 1.43761e-08)
(7.52984e-09 -1.54937e-08 1.77514e-08)
(8.9056e-09 -1.69937e-08 2.17505e-08)
(1.06255e-08 -1.79996e-08 2.64662e-08)
(1.28815e-08 -1.80915e-08 3.19863e-08)
(1.60003e-08 -1.66031e-08 3.8404e-08)
(2.05049e-08 -1.25732e-08 4.58415e-08)
(2.70155e-08 -4.96561e-09 5.44239e-08)
(3.48292e-08 5.29958e-09 6.32503e-08)
(4.83415e-08 2.00499e-08 7.70689e-08)
(0 0 0)
(1.47214e-09 -3.29927e-09 2.60613e-09)
(2.8115e-09 -6.31666e-09 5.07684e-09)
(4.0714e-09 -9.1749e-09 7.58795e-09)
(5.30049e-09 -1.19661e-08 1.02948e-08)
(6.54642e-09 -1.47513e-08 1.33424e-08)
(7.85937e-09 -1.75566e-08 1.68712e-08)
(9.2967e-09 -2.03656e-08 2.10215e-08)
(1.09289e-08 -2.31048e-08 2.5934e-08)
(1.28475e-08 -2.56199e-08 3.17465e-08)
(1.5176e-08 -2.76384e-08 3.8583e-08)
(1.80867e-08 -2.87239e-08 4.65365e-08)
(2.18205e-08 -2.82401e-08 5.5644e-08)
(2.66789e-08 -2.54103e-08 6.58435e-08)
(3.28704e-08 -1.969e-08 7.68775e-08)
(3.94775e-08 -1.23268e-08 8.73245e-08)
(5.00228e-08 -2.27902e-09 1.01486e-07)
(0 0 0)
(1.90782e-09 -4.24231e-09 3.3724e-09)
(3.64145e-09 -8.12762e-09 6.56676e-09)
(5.26783e-09 -1.18189e-08 9.80785e-09)
(6.8478e-09 -1.54414e-08 1.32939e-08)
(8.44049e-09 -1.90843e-08 1.72097e-08)
(1.01073e-08 -2.27982e-08 2.17344e-08)
(1.19163e-08 -2.65892e-08 2.70468e-08)
(1.39473e-08 -3.04077e-08 3.33272e-08)
(1.62959e-08 -3.41286e-08 4.07522e-08)
(1.9076e-08 -3.75216e-08 4.94806e-08)
(2.24163e-08 -4.02134e-08 5.96229e-08)
(2.64448e-08 -4.16565e-08 7.11888e-08)
(3.1227e-08 -4.11542e-08 8.39833e-08)
(3.66124e-08 -3.80826e-08 9.74155e-08)
(4.16127e-08 -3.29994e-08 1.09431e-07)
(4.93371e-08 -2.40095e-08 1.23715e-07)
(0 0 0)
(2.29973e-09 -5.05096e-09 4.05735e-09)
(4.38618e-09 -9.68424e-09 7.89594e-09)
(6.33695e-09 -1.41011e-08 1.17818e-08)
(8.22223e-09 -1.84598e-08 1.59491e-08)
(1.01098e-08 -2.288e-08 2.06152e-08)
(1.20691e-08 -2.7443e-08 2.59909e-08)
(1.41759e-08 -3.21895e-08 3.22867e-08)
(1.65163e-08 -3.71135e-08 3.97166e-08)
(1.91897e-08 -4.21512e-08 4.84947e-08)
(2.23069e-08 -4.71612e-08 5.88215e-08)
(2.59792e-08 -5.18947e-08 7.0855e-08)
(3.02891e-08 -5.59482e-08 8.46511e-08)
(3.52063e-08 -5.86887e-08 1.00028e-07)
(4.04174e-08 -5.91837e-08 1.16269e-07)
(4.48252e-08 -5.67674e-08 1.30712e-07)
(5.11374e-08 -4.74784e-08 1.46504e-07)
(0 0 0)
(2.64105e-09 -5.69324e-09 4.64838e-09)
(5.03256e-09 -1.09247e-08 9.03953e-09)
(7.25956e-09 -1.593e-08 1.3472e-08)
(9.39845e-09 -2.08979e-08 1.82073e-08)
(1.15225e-08 -2.59781e-08 2.3487e-08)
(1.37061e-08 -3.12844e-08 2.95444e-08)
(1.60295e-08 -3.68971e-08 3.66124e-08)
(1.85838e-08 -4.28635e-08 4.49292e-08)
(2.14748e-08 -4.91968e-08 5.47387e-08)
(2.48243e-08 -5.58713e-08 6.62833e-08)
(2.87687e-08 -6.28134e-08 7.97897e-08)
(3.34475e-08 -6.98699e-08 9.54321e-08)
(3.89479e-08 -7.67095e-08 1.13221e-07)
(4.51363e-08 -8.2566e-08 1.32673e-07)
(5.08539e-08 -8.58086e-08 1.50788e-07)
(5.88899e-08 -7.9896e-08 1.71161e-07)
(0 0 0)
(2.9273e-09 -6.14029e-09 5.13744e-09)
(5.57229e-09 -1.1793e-08 9.98197e-09)
(8.02386e-09 -1.72215e-08 1.48549e-08)
(1.03613e-08 -2.26401e-08 2.00359e-08)
(1.26599e-08 -2.82245e-08 2.5781e-08)
(1.49953e-08 -3.41178e-08 3.23355e-08)
(1.74488e-08 -4.04368e-08 3.99425e-08)
(2.01126e-08 -4.72779e-08 4.88499e-08)
(2.30966e-08 -5.47249e-08 5.93142e-08)
(2.65357e-08 -6.28595e-08 7.16005e-08)
(3.06032e-08 -7.17787e-08 8.59857e-08)
(3.55331e-08 -8.16162e-08 1.02759e-07)
(4.16369e-08 -9.25454e-08 1.22194e-07)
(4.92382e-08 -1.04647e-07 1.44324e-07)
(5.75061e-08 -1.1646e-07 1.66425e-07)
(7.17456e-08 -1.29773e-07 1.94646e-07)
(0 0 0)
(3.15666e-09 -6.36813e-09 5.52152e-09)
(6.00244e-09 -1.22426e-08 1.07181e-08)
(8.62648e-09 -1.79055e-08 1.59238e-08)
(1.11074e-08 -2.35891e-08 2.14265e-08)
(1.3519e-08 -2.94877e-08 2.7487e-08)
(1.59342e-08 -3.57662e-08 3.43512e-08)
(1.84302e-08 -4.25678e-08 4.22585e-08)
(2.10939e-08 -5.00226e-08 5.14488e-08)
(2.40288e-08 -5.82578e-08 6.2165e-08)
(2.73641e-08 -6.74129e-08 7.46557e-08)
(3.12698e-08 -7.76628e-08 8.91788e-08)
(3.59814e-08 -8.92534e-08 1.06012e-07)
(4.18168e-08 -1.02536e-07 1.25447e-07)
(4.90933e-08 -1.17913e-07 1.47666e-07)
(5.67971e-08 -1.33709e-07 1.69866e-07)
(7.80221e-08 -1.61832e-07 2.06291e-07)
(0 0 0)
(0 0 0)
(0 0 0)
(0 0 0)
(0 0 0)
(0 0 0)
(0 0 0)
(0 0 0)
(0 0 0)
(0 0 0)
(0 0 0)
(0 0 0)
(0 0 0)
(0 0 0)
(0 0 0)
(0 0 0)
(1.08702e-08 1.51062e-08 8.42188e-09)
(0 0 0)
(5.1257e-10 -1.17155e-09 8.70504e-10)
(9.78966e-10 -2.24129e-09 1.69528e-09)
(1.41813e-09 -3.25175e-09 2.53298e-09)
(1.84735e-09 -4.23415e-09 3.43535e-09)
(2.28325e-09 -5.20712e-09 4.45004e-09)
(2.74319e-09 -6.17457e-09 5.62241e-09)
(3.24758e-09 -7.12181e-09 6.99654e-09)
(3.82338e-09 -8.00815e-09 8.6152e-09)
(4.51051e-09 -8.75316e-09 1.05182e-08)
(5.37576e-09 -9.21249e-09 1.27394e-08)
(6.54347e-09 -9.13421e-09 1.53062e-08)
(8.26322e-09 -8.07493e-09 1.82495e-08)
(1.10356e-08 -5.24084e-09 2.16372e-08)
(1.57182e-08 6.88885e-10 2.56e-08)
(2.26253e-08 1.04544e-08 2.98727e-08)
(3.01777e-08 2.26336e-08 3.12696e-08)
(0 0 0)
(1.01267e-09 -2.30846e-09 1.71836e-09)
(1.93373e-09 -4.41781e-09 3.3459e-09)
(2.80006e-09 -6.41312e-09 4.99779e-09)
(3.64511e-09 -8.35741e-09 6.77541e-09)
(4.50101e-09 -1.02903e-08 8.77221e-09)
(5.401e-09 -1.22246e-08 1.10772e-08)
(6.38297e-09 -1.41396e-08 1.37767e-08)
(7.49436e-09 -1.59689e-08 1.69537e-08)
(8.80045e-09 -1.758e-08 2.06834e-08)
(1.04e-08 -1.87407e-08 2.50233e-08)
(1.24564e-08 -1.90728e-08 2.99988e-08)
(1.52562e-08 -1.79993e-08 3.55847e-08)
(1.92767e-08 -1.47484e-08 4.16749e-08)
(2.50992e-08 -8.67203e-09 4.7981e-08)
(3.22983e-08 -8.11831e-10 5.35798e-08)
(4.03655e-08 4.11278e-09 5.78459e-08)
(0 0 0)
(1.48871e-09 -3.37675e-09 2.5228e-09)
(2.84178e-09 -6.4657e-09 4.91094e-09)
(4.11224e-09 -9.39434e-09 7.33206e-09)
(5.34796e-09 -1.22589e-08 9.93351e-09)
(6.59478e-09 -1.51241e-08 1.28512e-08)
(7.89948e-09 -1.80194e-08 1.62148e-08)
(9.31344e-09 -2.09322e-08 2.01502e-08)
(1.08971e-08 -2.37951e-08 2.47785e-08)
(1.27254e-08 -2.64643e-08 3.0209e-08)
(1.48952e-08 -2.8689e-08 3.6522e-08)
(1.75378e-08 -3.00777e-08 4.37389e-08)
(2.08358e-08 -3.00902e-08 5.17737e-08)
(2.50245e-08 -2.81458e-08 6.03542e-08)
(3.02804e-08 -2.40747e-08 6.88859e-08)
(3.60292e-08 -1.92377e-08 7.60912e-08)
(4.16138e-08 -1.7195e-08 8.07792e-08)
(0 0 0)
(1.93001e-09 -4.3417e-09 3.26474e-09)
(3.68231e-09 -8.31896e-09 6.35262e-09)
(5.32369e-09 -1.21008e-08 9.478e-09)
(6.91422e-09 -1.58179e-08 1.2829e-08)
(8.51117e-09 -1.95637e-08 1.65789e-08)
(1.01723e-08 -2.3393e-08 2.08933e-08)
(1.19593e-08 -2.73162e-08 2.59337e-08)
(1.39407e-08 -3.12894e-08 3.18569e-08)
(1.61939e-08 -3.51969e-08 3.8807e-08)
(1.88022e-08 -3.88264e-08 4.68942e-08)
(2.18456e-08 -4.18401e-08 5.61553e-08)
(2.53784e-08 -4.37635e-08 6.64824e-08)
(2.93735e-08 -4.40453e-08 7.74936e-08)
(3.36208e-08 -4.23363e-08 8.83049e-08)
(3.74732e-08 -3.93011e-08 9.70763e-08)
(4.08738e-08 -3.76695e-08 1.02088e-07)
(0 0 0)
(2.32758e-09 -5.16913e-09 3.92816e-09)
(4.43782e-09 -9.91189e-09 7.63925e-09)
(6.40844e-09 -1.44368e-08 1.13871e-08)
(8.30913e-09 -1.89084e-08 1.53937e-08)
(1.02061e-08 -2.34514e-08 1.98635e-08)
(1.21655e-08 -2.81518e-08 2.49914e-08)
(1.4257e-08 -3.30545e-08 3.09685e-08)
(1.65567e-08 -3.81586e-08 3.79828e-08)
(1.91465e-08 -4.34069e-08 4.62126e-08)
(2.21082e-08 -4.86692e-08 5.58078e-08)
(2.55058e-08 -5.37164e-08 6.68507e-08)
(2.93464e-08 -5.81802e-08 7.92815e-08)
(3.34951e-08 -6.14879e-08 9.27389e-08)
(3.75421e-08 -6.28113e-08 1.06221e-07)
(4.06665e-08 -6.15351e-08 1.17341e-07)
(4.25684e-08 -5.90484e-08 1.23692e-07)
(0 0 0)
(2.67444e-09 -5.82638e-09 4.5009e-09)
(5.09486e-09 -1.11814e-08 8.74682e-09)
(7.34678e-09 -1.63087e-08 1.30226e-08)
(9.50651e-09 -2.14043e-08 1.75765e-08)
(1.16463e-08 -2.66236e-08 2.26355e-08)
(1.3838e-08 -3.20854e-08 2.8416e-08)
(1.61575e-08 -3.78739e-08 3.513e-08)
(1.86876e-08 -4.40406e-08 4.29882e-08)
(2.15208e-08 -5.06027e-08 5.21969e-08)
(2.47568e-08 -5.75401e-08 6.2946e-08)
(2.84969e-08 -6.4786e-08 7.53831e-08)
(3.28261e-08 -7.21954e-08 8.95606e-08)
(3.77586e-08 -7.94364e-08 1.05296e-07)
(4.3089e-08 -8.56973e-08 1.21775e-07)
(4.79027e-08 -8.93296e-08 1.36308e-07)
(5.05396e-08 -8.72863e-08 1.46089e-07)
(0 0 0)
(2.96592e-09 -6.28394e-09 4.97516e-09)
(5.6447e-09 -1.20701e-08 9.66024e-09)
(8.12617e-09 -1.76307e-08 1.43619e-08)
(1.049e-08 -2.31879e-08 1.93456e-08)
(1.28112e-08 -2.89234e-08 2.48523e-08)
(1.5164e-08 -3.49856e-08 3.11096e-08)
(1.76268e-08 -4.14951e-08 3.83394e-08)
(2.02868e-08 -4.85515e-08 4.67616e-08)
(2.32455e-08 -5.62409e-08 5.65949e-08)
(2.66252e-08 -6.4647e-08 6.80512e-08)
(3.05821e-08 -7.38688e-08 8.13266e-08)
(3.53295e-08 -8.40432e-08 9.65822e-08)
(4.11721e-08 -9.53458e-08 1.13873e-07)
(4.84734e-08 -1.0782e-07 1.32833e-07)
(5.67748e-08 -1.20182e-07 1.51019e-07)
(6.50605e-08 -1.31082e-07 1.65453e-07)
(0 0 0)
(3.19995e-09 -6.51726e-09 5.34795e-09)
(6.08394e-09 -1.25304e-08 1.03744e-08)
(8.74244e-09 -1.83312e-08 1.53983e-08)
(1.1255e-08 -2.41596e-08 2.06929e-08)
(1.36957e-08 -3.02166e-08 2.65038e-08)
(1.61372e-08 -3.66722e-08 3.30595e-08)
(1.86555e-08 -4.36734e-08 4.05786e-08)
(2.1335e-08 -5.13526e-08 4.92738e-08)
(2.42754e-08 -5.98378e-08 5.93525e-08)
(2.76012e-08 -6.92679e-08 7.10125e-08)
(3.1478e-08 -7.98158e-08 8.44368e-08)
(3.61415e-08 -9.1725e-08 9.97829e-08)
(4.19287e-08 -1.0534e-07 1.17133e-07)
(4.92218e-08 -1.21013e-07 1.36275e-07)
(5.72821e-08 -1.37218e-07 1.54647e-07)
(7.14183e-08 -1.6019e-07 1.75456e-07)
(0 0 0)
(0 0 0)
(0 0 0)
(0 0 0)
(0 0 0)
(0 0 0)
(0 0 0)
(0 0 0)
(0 0 0)
(0 0 0)
(0 0 0)
(0 0 0)
(0 0 0)
(0 0 0)
(0 0 0)
(0 0 0)
(5.85808e-09 6.9569e-09 2.78705e-09)
(0 0 0)
(5.15666e-10 -1.19551e-09 8.1008e-10)
(9.84112e-10 -2.28755e-09 1.57662e-09)
(1.42356e-09 -3.31994e-09 2.35325e-09)
(1.85027e-09 -4.32515e-09 3.18686e-09)
(2.27928e-09 -5.32328e-09 4.12002e-09)
(2.7253e-09 -6.32017e-09 5.19202e-09)
(3.20412e-09 -7.30426e-09 6.43907e-09)
(3.73468e-09 -8.24085e-09 7.89281e-09)
(4.34271e-09 -9.06228e-09 9.57572e-09)
(5.06881e-09 -9.65229e-09 1.14921e-08)
(5.98613e-09 -9.82254e-09 1.36118e-08)
(7.23523e-09 -9.27914e-09 1.58431e-08)
(9.07291e-09 -7.58506e-09 1.7977e-08)
(1.18407e-08 -4.21505e-09 1.95674e-08)
(1.53352e-08 6.46413e-10 1.9816e-08)
(1.73083e-08 5.72196e-09 1.49599e-08)
(0 0 0)
(1.01897e-09 -2.35546e-09 1.59908e-09)
(1.94429e-09 -4.50848e-09 3.11171e-09)
(2.81154e-09 -6.54671e-09 4.64321e-09)
(3.65232e-09 -8.53565e-09 6.28556e-09)
(4.49577e-09 -1.05176e-08 8.12221e-09)
(5.37016e-09 -1.25085e-08 1.02303e-08)
(6.30484e-09 -1.44931e-08 1.26812e-08)
(7.33268e-09 -1.6415e-08 1.55368e-08)
(8.49352e-09 -1.81622e-08 1.88409e-08)
(9.84072e-09 -1.95465e-08 2.25993e-08)
(1.14541e-08 -2.02838e-08 2.67453e-08)
(1.34585e-08 -1.99988e-08 3.10769e-08)
(1.60219e-08 -1.83241e-08 3.51428e-08)
(1.92034e-08 -1.52781e-08 3.80665e-08)
(2.23466e-08 -1.21227e-08 3.86691e-08)
(2.38737e-08 -1.24596e-08 3.47389e-08)
(0 0 0)
(1.49847e-09 -3.44512e-09 2.34777e-09)
(2.8584e-09 -6.59754e-09 4.56739e-09)
(4.13116e-09 -9.58852e-09 6.81228e-09)
(5.36216e-09 -1.25177e-08 9.21619e-09)
(6.59326e-09 -1.54532e-08 1.19005e-08)
(7.86458e-09 -1.84286e-08 1.49779e-08)
(9.21637e-09 -2.14372e-08 1.85529e-08)
(1.06901e-08 -2.44225e-08 2.27177e-08)
(1.2328e-08 -2.72622e-08 2.7539e-08)
(1.41709e-08 -2.97508e-08 3.30312e-08)
(1.62501e-08 -3.15907e-08 3.91067e-08)
(1.85699e-08 -3.24311e-08 4.549e-08)
(2.10538e-08 -3.20419e-08 5.15774e-08)
(2.34154e-08 -3.07536e-08 5.62698e-08)
(2.4988e-08 -2.99247e-08 5.81943e-08)
(2.41445e-08 -3.19107e-08 5.5102e-08)
(0 0 0)
(1.9436e-09 -4.42913e-09 3.03847e-09)
(3.70589e-09 -8.48748e-09 5.90874e-09)
(5.35186e-09 -1.23489e-08 8.80705e-09)
(6.93884e-09 -1.61481e-08 1.19042e-08)
(8.51963e-09 -1.99824e-08 1.5355e-08)
(1.01445e-08 -2.39106e-08 1.9304e-08)
(1.18628e-08 -2.79481e-08 2.3886e-08)
(1.37222e-08 -3.20599e-08 2.92222e-08)
(1.57646e-08 -3.61471e-08 3.54055e-08)
(1.80129e-08 -4.00314e-08 4.24697e-08)
(2.04432e-08 -4.34462e-08 5.03318e-08)
(2.29283e-08 -4.60604e-08 5.86902e-08)
(2.51389e-08 -4.75933e-08 6.68553e-08)
(2.64436e-08 -4.81126e-08 7.35336e-08)
(2.61766e-08 -4.83884e-08 7.69744e-08)
(2.31174e-08 -5.03724e-08 7.46018e-08)
(0 0 0)
(2.34534e-09 -5.27268e-09 3.65633e-09)
(4.46923e-09 -1.01114e-08 7.10636e-09)
(6.44766e-09 -1.47304e-08 1.05825e-08)
(8.34762e-09 -1.92986e-08 1.42865e-08)
(1.02308e-08 -2.39448e-08 1.84011e-08)
(1.21561e-08 -2.87582e-08 2.30968e-08)
(1.41809e-08 -3.3787e-08 2.85341e-08)
(1.63606e-08 -3.90349e-08 3.48599e-08)
(1.87429e-08 -4.44527e-08 4.21943e-08)
(2.13509e-08 -4.99262e-08 5.05999e-08)
(2.41481e-08 -5.52608e-08 6.00241e-08)
(2.69649e-08 -6.01625e-08 7.01914e-08)
(2.93669e-08 -6.42171e-08 8.04069e-08)
(3.05156e-08 -6.69113e-08 8.92572e-08)
(2.95424e-08 -6.79281e-08 9.4565e-08)
(2.48156e-08 -6.85667e-08 9.3267e-08)
(0 0 0)
(2.69662e-09 -5.94257e-09 4.19004e-09)
(5.13476e-09 -1.14052e-08 8.13795e-09)
(7.39843e-09 -1.66379e-08 1.21047e-08)
(9.56162e-09 -2.18415e-08 1.63156e-08)
(1.16925e-08 -2.7175e-08 2.09744e-08)
(1.38563e-08 -3.27595e-08 2.62703e-08)
(1.61178e-08 -3.86808e-08 3.2382e-08)
(1.85418e-08 -4.49897e-08 3.94756e-08)
(2.11899e-08 -5.17017e-08 4.76934e-08)
(2.41103e-08 -5.87929e-08 5.71273e-08)
(2.7314e-08 -6.6191e-08 6.77686e-08)
(3.07224e-08 -7.37443e-08 7.94059e-08)
(3.40582e-08 -8.11233e-08 9.1419e-08)
(3.66604e-08 -8.75839e-08 1.02393e-07)
(3.74806e-08 -9.17129e-08 1.09769e-07)
(3.35024e-08 -9.09446e-08 1.10156e-07)
(0 0 0)
(2.99258e-09 -6.40882e-09 4.63232e-09)
(5.69331e-09 -1.23107e-08 8.98942e-09)
(8.19095e-09 -1.79845e-08 1.33523e-08)
(1.05633e-08 -2.36574e-08 1.79621e-08)
(1.2882e-08 -2.95146e-08 2.30352e-08)
(1.52158e-08 -3.57059e-08 2.8771e-08)
(1.76341e-08 -4.23511e-08 3.53571e-08)
(2.02091e-08 -4.95454e-08 4.29672e-08)
(2.30172e-08 -5.7365e-08 5.17532e-08)
(2.61388e-08 -6.58739e-08 6.18233e-08)
(2.96551e-08 -7.51336e-08 7.32002e-08)
(3.36386e-08 -8.52069e-08 8.57342e-08)
(3.81244e-08 -9.61217e-08 9.89076e-08)
(4.29945e-08 -1.07656e-07 1.11397e-07)
(4.74913e-08 -1.18356e-07 1.20384e-07)
(5.0068e-08 -1.26632e-07 1.21497e-07)
(0 0 0)
(3.23092e-09 -6.64647e-09 4.98034e-09)
(6.14102e-09 -1.27795e-08 9.65594e-09)
(8.82015e-09 -1.86975e-08 1.43189e-08)
(1.13466e-08 -2.46459e-08 1.92181e-08)
(1.37919e-08 -3.08285e-08 2.45739e-08)
(1.62245e-08 -3.74163e-08 3.0587e-08)
(1.87135e-08 -4.4554e-08 3.74425e-08)
(2.13319e-08 -5.23671e-08 4.53084e-08)
(2.41606e-08 -6.09687e-08 5.43277e-08)
(2.7292e-08 -7.04694e-08 6.45992e-08)
(3.08354e-08 -8.09896e-08 7.61399e-08)
(3.49184e-08 -9.26717e-08 8.88091e-08)
(3.9668e-08 -1.05663e-07 1.02138e-07)
(4.50857e-08 -1.19954e-07 1.14977e-07)
(5.02535e-08 -1.33809e-07 1.24544e-07)
(5.8039e-08 -1.51658e-07 1.25554e-07)
(0 0 0)
(0 0 0)
(0 0 0)
(0 0 0)
(0 0 0)
(0 0 0)
(0 0 0)
(0 0 0)
(0 0 0)
(0 0 0)
(0 0 0)
(0 0 0)
(0 0 0)
(0 0 0)
(0 0 0)
(0 0 0)
(2.75963e-09 3.01751e-09 1.67207e-09)
(0 0 0)
(5.16676e-10 -1.21597e-09 7.2101e-10)
(9.85072e-10 -2.32705e-09 1.40247e-09)
(1.4224e-09 -3.3782e-09 2.09125e-09)
(1.84355e-09 -4.40299e-09 2.82797e-09)
(2.26143e-09 -5.42288e-09 3.64867e-09)
(2.6874e-09 -6.44571e-09 4.58544e-09)
(3.13164e-09 -7.46344e-09 5.66579e-09)
(3.60362e-09 -8.44824e-09 6.90997e-09)
(4.11279e-09 -9.34658e-09 8.32467e-09)
(4.6707e-09 -1.00715e-08 9.8907e-09)
(5.2967e-09 -1.04951e-08 1.15413e-08)
(6.02888e-09 -1.04465e-08 1.31254e-08)
(6.93205e-09 -9.72237e-09 1.43488e-08)
(8.05374e-09 -8.14442e-09 1.471e-08)
(9.17271e-09 -5.87726e-09 1.37029e-08)
(9.15521e-09 -2.52882e-09 1.0267e-08)
(0 0 0)
(1.02122e-09 -2.39557e-09 1.42331e-09)
(1.94675e-09 -4.58587e-09 2.76809e-09)
(2.81028e-09 -6.66072e-09 4.12646e-09)
(3.64081e-09 -8.68768e-09 5.57803e-09)
(4.46356e-09 -1.07114e-08 7.19356e-09)
(5.30052e-09 -1.27514e-08 9.03617e-09)
(6.17077e-09 -1.47979e-08 1.11603e-08)
(7.09008e-09 -1.68058e-08 1.36062e-08)
(8.06949e-09 -1.86854e-08 1.63884e-08)
(9.11319e-09 -2.02934e-08 1.94715e-08)
(1.02156e-08 -2.14335e-08 2.27298e-08)
(1.13558e-08 -2.18904e-08 2.58814e-08)
(1.24736e-08 -2.15424e-08 2.83949e-08)
(1.33951e-08 -2.06075e-08 2.94416e-08)
(1.37602e-08 -1.9883e-08 2.83963e-08)
(1.33442e-08 -2.09321e-08 2.57938e-08)
(0 0 0)
(1.50242e-09 -3.50339e-09 2.08985e-09)
(2.86341e-09 -6.70987e-09 4.06334e-09)
(4.13176e-09 -9.75372e-09 6.05467e-09)
(5.34944e-09 -1.27374e-08 8.17965e-09)
(6.55302e-09 -1.57318e-08 1.05413e-08)
(7.77427e-09 -1.87744e-08 1.3232e-08)
(9.03995e-09 -2.18646e-08 1.63322e-08)
(1.03695e-08 -2.49572e-08 1.99034e-08)
(1.17691e-08 -2.79526e-08 2.39717e-08)
(1.32201e-08 -3.06896e-08 2.84971e-08)
(1.46574e-08 -3.2954e-08 3.33209e-08)
(1.59339e-08 -3.4538e-08 3.80866e-08)
(1.6769e-08 -3.54042e-08 4.21448e-08)
(1.67344e-08 -3.59724e-08 4.45507e-08)
(1.55888e-08 -3.70899e-08 4.46366e-08)
(1.32746e-08 -3.96716e-08 4.3133e-08)
(0 0 0)
(1.94983e-09 -4.50346e-09 2.70495e-09)
(3.71477e-09 -8.6306e-09 5.25725e-09)
(5.35687e-09 -1.2559e-08 7.82859e-09)
(6.92948e-09 -1.64264e-08 1.05669e-08)
(8.47939e-09 -2.03332e-08 1.36038e-08)
(1.00475e-08 -2.43411e-08 1.7058e-08)
(1.16679e-08 -2.84703e-08 2.10341e-08)
(1.33642e-08 -3.26935e-08 2.56146e-08)
(1.51396e-08 -3.69274e-08 3.08422e-08)
(1.69553e-08 -4.10244e-08 3.66841e-08)
(1.86912e-08 -4.47759e-08 4.29745e-08)
(2.00778e-08 -4.79496e-08 4.93276e-08)
(2.06114e-08 -5.03987e-08 5.50366e-08)
(1.95761e-08 -5.22599e-08 5.90613e-08)
(1.67643e-08 -5.39622e-08 6.05291e-08)
(1.25216e-08 -5.63797e-08 6.00739e-08)
(0 0 0)
(2.35447e-09 -5.36044e-09 3.25544e-09)
(4.48339e-09 -1.02802e-08 6.32375e-09)
(6.45972e-09 -1.49776e-08 9.40834e-09)
(8.34639e-09 -1.9625e-08 1.2684e-08)
(1.01989e-08 -2.43534e-08 1.63062e-08)
(1.20665e-08 -2.92539e-08 2.04155e-08)
(1.39915e-08 -3.43762e-08 2.51369e-08)
(1.60055e-08 -3.9726e-08 3.05722e-08)
(1.8118e-08 -4.52578e-08 3.67817e-08)
(2.02935e-08 -5.08664e-08 4.37483e-08)
(2.24046e-08 -5.63758e-08 5.13171e-08)
(2.41497e-08 -6.15272e-08 5.91028e-08)
(2.49348e-08 -6.59614e-08 6.63715e-08)
(2.38498e-08 -6.92122e-08 7.19886e-08)
(2.04658e-08 -7.08474e-08 7.48218e-08)
(1.47049e-08 -7.1378e-08 7.53914e-08)
(0 0 0)
(2.70915e-09 -6.0407e-09 3.73124e-09)
(5.15539e-09 -1.15938e-08 7.24299e-09)
(7.41989e-09 -1.69137e-08 1.07637e-08)
(9.57273e-09 -2.22043e-08 1.44887e-08)
(1.16763e-08 -2.76265e-08 1.85915e-08)
(1.37868e-08 -3.33014e-08 2.32285e-08)
(1.59549e-08 -3.93128e-08 2.85394e-08)
(1.82236e-08 -4.57067e-08 3.46399e-08)
(2.062e-08 -5.24896e-08 4.16048e-08)
(2.31389e-08 -5.96222e-08 4.94324e-08)
(2.57088e-08 -6.70069e-08 5.79845e-08)
(2.81279e-08 -7.445e-08 6.68868e-08)
(2.99617e-08 -8.15597e-08 7.53861e-08)
(3.0462e-08 -8.75246e-08 8.22323e-08)
(2.89894e-08 -9.09651e-08 8.6006e-08)
(2.40858e-08 -8.90116e-08 8.73401e-08)
(0 0 0)
(3.00885e-09 -6.51393e-09 4.12583e-09)
(5.72126e-09 -1.25126e-08 8.00235e-09)
(8.22344e-09 -1.82794e-08 1.18756e-08)
(1.05898e-08 -2.40444e-08 1.59549e-08)
(1.28868e-08 -2.99939e-08 2.04246e-08)
(1.51754e-08 -3.62762e-08 2.54501e-08)
(1.75127e-08 -4.30061e-08 3.11777e-08)
(1.9952e-08 -5.02682e-08 3.77293e-08)
(2.25403e-08 -5.81188e-08 4.51847e-08)
(2.5312e-08 -6.65872e-08 5.35493e-08)
(2.82759e-08 -7.56735e-08 6.26937e-08)
(3.1391e-08 -8.53327e-08 7.22493e-08)
(3.45324e-08 -9.54118e-08 8.14351e-08)
(3.74523e-08 -1.05447e-07 8.88435e-08)
(3.97129e-08 -1.14006e-07 9.26546e-08)
(4.13863e-08 -1.19249e-07 9.30291e-08)
(0 0 0)
(3.25105e-09 -6.7549e-09 4.43664e-09)
(6.1766e-09 -1.29877e-08 8.59741e-09)
(8.86443e-09 -1.90015e-08 1.27382e-08)
(1.139e-08 -2.50442e-08 1.70752e-08)
(1.38206e-08 -3.13204e-08 2.17967e-08)
(1.62183e-08 -3.79985e-08 2.70692e-08)
(1.86421e-08 -4.5216e-08 3.30375e-08)
(2.11494e-08 -5.30842e-08 3.98189e-08)
(2.37974e-08 -6.16905e-08 4.74867e-08)
(2.66415e-08 -7.1101e-08 5.6039e-08)
(2.97318e-08 -8.13597e-08 6.53417e-08)
(3.3101e-08 -9.24788e-08 7.50278e-08)
(3.67388e-08 -1.04398e-07 8.43301e-08)
(4.05158e-08 -1.16839e-07 9.18791e-08)
(4.37861e-08 -1.28191e-07 9.57667e-08)
(4.95006e-08 -1.42131e-07 9.32627e-08)
(0 0 0)
(0 0 0)
(0 0 0)
(0 0 0)
(0 0 0)
(0 0 0)
(0 0 0)
(0 0 0)
(0 0 0)
(0 0 0)
(0 0 0)
(0 0 0)
(0 0 0)
(0 0 0)
(0 0 0)
(0 0 0)
(1.41152e-09 1.42499e-09 1.75298e-09)
(0 0 0)
(5.16178e-10 -1.23268e-09 6.0716e-10)
(9.83086e-10 -2.35929e-09 1.18041e-09)
(1.41682e-09 -3.42573e-09 1.75858e-09)
(1.83077e-09 -4.46649e-09 2.37491e-09)
(2.23564e-09 -5.50409e-09 3.05827e-09)
(2.63939e-09 -6.54804e-09 3.83329e-09)
(3.04693e-09 -7.59332e-09 4.71938e-09)
(3.45938e-09 -8.61779e-09 5.72775e-09)
(3.87289e-09 -9.57877e-09 6.85506e-09)
(4.2778e-09 -1.04097e-08 8.07238e-09)
(4.66004e-09 -1.10192e-08 9.30795e-09)
(5.00699e-09 -1.12958e-08 1.04245e-08)
(5.31839e-09 -1.11129e-08 1.11998e-08)
(5.6087e-09 -1.03261e-08 1.13526e-08)
(5.8461e-09 -8.88131e-09 1.07693e-08)
(5.63569e-09 -5.72241e-09 9.10378e-09)
(0 0 0)
(1.02054e-09 -2.42833e-09 1.19864e-09)
(1.94348e-09 -4.64905e-09 2.32996e-09)
(2.80039e-09 -6.75368e-09 3.47027e-09)
(3.61744e-09 -8.81142e-09 4.68476e-09)
(4.41572e-09 -1.08688e-08 6.03007e-09)
(5.21096e-09 -1.2948e-08 7.5548e-09)
(6.01258e-09 -1.50441e-08 9.29757e-09)
(6.82131e-09 -1.7121e-08 1.12813e-08)
(7.62502e-09 -1.91055e-08 1.35011e-08)
(8.39284e-09 -2.08849e-08 1.59043e-08)
(9.06893e-09 -2.23137e-08 1.83587e-08)
(9.56881e-09 -2.32476e-08 2.06147e-08)
(9.78613e-09 -2.36206e-08 2.22793e-08)
(9.62897e-09 -2.35613e-08 2.28886e-08)
(9.15524e-09 -2.34317e-08 2.23405e-08)
(8.92686e-09 -2.4061e-08 2.15246e-08)
(0 0 0)
(1.50213e-09 -3.55096e-09 1.76012e-09)
(2.86011e-09 -6.80147e-09 3.42054e-09)
(4.11983e-09 -9.88809e-09 5.0924e-09)
(5.3194e-09 -1.29153e-08 6.87053e-09)
(6.48987e-09 -1.59562e-08 8.83752e-09)
(7.65473e-09 -1.90511e-08 1.10647e-08)
(8.82802e-09 -2.22041e-08 1.36096e-08)
(1.001e-08 -2.53784e-08 1.65083e-08)
(1.11783e-08 -2.84902e-08 1.97594e-08)
(1.22736e-08 -3.14061e-08 2.32979e-08)
(1.31785e-08 -3.39562e-08 2.69566e-08)
(1.36938e-08 -3.59867e-08 3.04246e-08)
(1.35375e-08 -3.74798e-08 3.32345e-08)
(1.24581e-08 -3.87205e-08 3.48835e-08)
(1.07026e-08 -4.01672e-08 3.52821e-08)
(9.00894e-09 -4.23421e-08 3.53921e-08)
(0 0 0)
(1.95064e-09 -4.56403e-09 2.27846e-09)
(3.71302e-09 -8.74703e-09 4.42616e-09)
(5.34576e-09 -1.27292e-08 6.5853e-09)
(6.89779e-09 -1.66504e-08 8.87705e-09)
(8.40955e-09 -2.0613e-08 1.14071e-08)
(9.91246e-09 -2.46806e-08 1.42673e-08)
(1.14266e-08 -2.88761e-08 1.7533e-08)
(1.29546e-08 -3.31766e-08 2.1254e-08)
(1.44694e-08 -3.75074e-08 2.54371e-08)
(1.58923e-08 -4.17361e-08 3.00155e-08)
(1.7056e-08 -4.56774e-08 3.48081e-08)
(1.76569e-08 -4.91234e-08 3.94765e-08)
(1.72278e-08 -5.19207e-08 4.35191e-08)
(1.52855e-08 -5.4095e-08 4.63999e-08)
(1.2114e-08 -5.5833e-08 4.79162e-08)
(8.78399e-09 -5.77914e-08 4.89435e-08)
(0 0 0)
(2.35711e-09 -5.43178e-09 2.74256e-09)
(4.48483e-09 -1.04171e-08 5.32489e-09)
(6.45249e-09 -1.5177e-08 7.91548e-09)
(8.31837e-09 -1.98858e-08 1.06576e-08)
(1.01314e-08 -2.46759e-08 1.36762e-08)
(1.19312e-08 -2.96384e-08 1.70803e-08)
(1.37458e-08 -3.48224e-08 2.09603e-08)
(1.55859e-08 -4.02318e-08 2.53789e-08)
(1.74324e-08 -4.58186e-08 3.03521e-08)
(1.92125e-08 -5.14736e-08 3.58176e-08)
(2.07591e-08 -5.70145e-08 4.15902e-08)
(2.17486e-08 -6.21675e-08 4.7315e-08)
(2.16431e-08 -6.65366e-08 5.24573e-08)
(1.97837e-08 -6.95799e-08 5.64213e-08)
(1.62169e-08 -7.08009e-08 5.88716e-08)
(1.15574e-08 -7.06534e-08 6.0668e-08)
(0 0 0)
(2.71428e-09 -6.12023e-09 3.14394e-09)
(5.16153e-09 -1.17461e-08 6.10001e-09)
(7.41932e-09 -1.71349e-08 9.05747e-09)
(9.55327e-09 -2.24921e-08 1.21767e-08)
(1.16194e-08 -2.79788e-08 1.55971e-08)
(1.36648e-08 -3.37146e-08 1.94402e-08)
(1.57266e-08 -3.97785e-08 2.38075e-08)
(1.78286e-08 -4.62079e-08 2.87705e-08)
(1.99717e-08 -5.29946e-08 3.43523e-08)
(2.2118e-08 -6.00752e-08 4.04941e-08)
(2.4161e-08 -6.73129e-08 4.7006e-08)
(2.58813e-08 -7.4453e-08 5.35103e-08)
(2.68993e-08 -8.10199e-08 5.94102e-08)
(2.67046e-08 -8.61306e-08 6.39847e-08)
(2.51115e-08 -8.85189e-08 6.67607e-08)
(2.13797e-08 -8.56433e-08 6.88478e-08)
(0 0 0)
(3.01698e-09 -6.59884e-09 3.47704e-09)
(5.73325e-09 -1.2675e-08 6.7408e-09)
(8.23173e-09 -1.85147e-08 9.99521e-09)
(1.05827e-08 -2.43492e-08 1.34122e-08)
(1.2847e-08 -3.03641e-08 1.71402e-08)
(1.50772e-08 -3.67043e-08 2.1308e-08)
(1.73185e-08 -4.34766e-08 2.60218e-08)
(1.96073e-08 -5.07512e-08 3.13568e-08)
(2.19679e-08 -5.85599e-08 3.73372e-08)
(2.44059e-08 -6.68915e-08 4.39024e-08)
(2.68985e-08 -7.56813e-08 5.08532e-08)
(2.93849e-08 -8.47854e-08 5.77804e-08)
(3.17764e-08 -9.39205e-08 6.39956e-08)
(3.4013e-08 -1.02524e-07 6.8563e-08)
(3.60611e-08 -1.09393e-07 7.07484e-08)
(3.86977e-08 -1.13209e-07 7.17081e-08)
(0 0 0)
(3.26246e-09 -6.84223e-09 3.73962e-09)
(6.19513e-09 -1.31547e-08 7.2434e-09)
(8.8829e-09 -1.9243e-08 1.07236e-08)
(1.13977e-08 -2.53561e-08 1.43578e-08)
(1.3802e-08 -3.16973e-08 1.82981e-08)
(1.61507e-08 -3.843e-08 2.26743e-08)
(1.84926e-08 -4.5682e-08 2.75917e-08)
(2.08712e-08 -5.35467e-08 3.31217e-08)
(2.33245e-08 -6.20816e-08 3.92833e-08)
(2.58836e-08 -7.1305e-08 4.60087e-08)
(2.85709e-08 -8.11866e-08 5.30896e-08)
(3.13972e-08 -9.1632e-08 6.01007e-08)
(3.43665e-08 -1.0245e-07 6.63172e-08)
(3.74706e-08 -1.13283e-07 7.07218e-08)
(4.03776e-08 -1.22844e-07 7.24287e-08)
(4.65706e-08 -1.35137e-07 7.05523e-08)
(0 0 0)
(0 0 0)
(0 0 0)
(0 0 0)
(0 0 0)
(0 0 0)
(0 0 0)
(0 0 0)
(0 0 0)
(0 0 0)
(0 0 0)
(0 0 0)
(0 0 0)
(0 0 0)
(0 0 0)
(0 0 0)
(9.29823e-10 8.99159e-10 1.63345e-09)
(0 0 0)
(5.14832e-10 -1.24552e-09 4.73072e-10)
(9.7954e-10 -2.38404e-09 9.19314e-10)
(1.4092e-09 -3.46225e-09 1.36857e-09)
(1.81583e-09 -4.51525e-09 1.84611e-09)
(2.20811e-09 -5.56626e-09 2.37338e-09)
(2.59117e-09 -6.62597e-09 2.96797e-09)
(2.9658e-09 -7.69141e-09 3.64264e-09)
(3.3272e-09 -8.74409e-09 4.40263e-09)
(3.66332e-09 -9.74754e-09 5.24083e-09)
(3.95411e-09 -1.06452e-08 6.12997e-09)
(4.17392e-09 -1.136e-08 7.01284e-09)
(4.30223e-09 -1.17945e-08 7.79464e-09)
(4.34779e-09 -1.18215e-08 8.34815e-09)
(4.37863e-09 -1.12487e-08 8.55926e-09)
(4.48221e-09 -9.90626e-09 8.43805e-09)
(4.44453e-09 -6.59926e-09 7.6102e-09)
(0 0 0)
(1.0182e-09 -2.45356e-09 9.33986e-10)
(1.93718e-09 -4.69768e-09 1.81474e-09)
(2.78649e-09 -6.82517e-09 2.70089e-09)
(3.58969e-09 -8.90631e-09 3.64196e-09)
(4.36418e-09 -1.09889e-08 4.68007e-09)
(5.12044e-09 -1.30968e-08 5.85001e-09)
(5.86034e-09 -1.52286e-08 7.17727e-09)
(6.57406e-09 -1.73531e-08 8.67302e-09)
(7.23553e-09 -1.94066e-08 1.03248e-08)
(7.79759e-09 -2.129e-08 1.20825e-08)
(8.19038e-09 -2.2875e-08 1.38408e-08)
(8.33166e-09 -2.40264e-08 1.54261e-08)
(8.16523e-09 -2.46466e-08 1.66074e-08)
(7.74657e-09 -2.47381e-08 1.71765e-08)
(7.3407e-09 -2.44779e-08 1.71575e-08)
(7.60609e-09 -2.457e-08 1.70067e-08)
(0 0 0)
(1.4994e-09 -3.58764e-09 1.37162e-09)
(2.85233e-09 -6.87201e-09 2.66445e-09)
(4.10186e-09 -9.99129e-09 3.96383e-09)
(5.28258e-09 -1.30513e-08 5.3418e-09)
(6.42059e-09 -1.61265e-08 6.85985e-09)
(7.5324e-09 -1.92588e-08 8.56917e-09)
(8.62224e-09 -2.2455e-08 1.0508e-08)
(9.67697e-09 -2.56827e-08 1.26949e-08)
(1.06577e-08 -2.88654e-08 1.51162e-08)
(1.1488e-08 -3.18796e-08 1.77082e-08)
(1.2042e-08 -3.45656e-08 2.03361e-08)
(1.21425e-08 -3.67643e-08 2.27832e-08)
(1.16023e-08 -3.84043e-08 2.47757e-08)
(1.03827e-08 -3.96287e-08 2.60965e-08)
(8.94068e-09 -4.07591e-08 2.67761e-08)
(8.02803e-09 -4.23439e-08 2.72439e-08)
(0 0 0)
(1.94823e-09 -4.61073e-09 1.77578e-09)
(3.7053e-09 -8.83658e-09 3.44824e-09)
(5.3265e-09 -1.28595e-08 5.12658e-09)
(6.85664e-09 -1.68208e-08 6.90286e-09)
(8.3305e-09 -2.08235e-08 8.85585e-09)
(9.77159e-09 -2.49321e-08 1.10516e-08)
(1.1189e-08 -2.917e-08 1.35406e-08)
(1.2571e-08 -3.35154e-08 1.63493e-08)
(1.3874e-08 -3.78943e-08 1.94667e-08)
(1.50045e-08 -4.2175e-08 2.28232e-08)
(1.57952e-08 -4.61683e-08 2.62689e-08)
(1.59834e-08 -4.96461e-08 2.95638e-08)
(1.52304e-08 -5.23967e-08 3.2414e-08)
(1.33005e-08 -5.43375e-08 3.45905e-08)
(1.06629e-08 -5.56096e-08 3.6049e-08)
(8.31437e-09 -5.69606e-08 3.71354e-08)
(0 0 0)
(2.35575e-09 -5.48668e-09 2.13781e-09)
(4.4788e-09 -1.05221e-08 4.14906e-09)
(6.43491e-09 -1.5329e-08 6.16309e-09)
(8.27799e-09 -2.00828e-08 8.28885e-09)
(1.00511e-08 -2.4916e-08 1.06196e-08)
(1.17857e-08 -2.99188e-08 1.32338e-08)
(1.34987e-08 -3.51379e-08 1.61922e-08)
(1.51868e-08 -4.05725e-08 1.9529e-08)
(1.68155e-08 -4.6167e-08 2.32366e-08)
(1.83009e-08 -5.17998e-08 2.7243e-08)
(1.94821e-08 -5.72671e-08 3.13868e-08)
(2.00883e-08 -6.22592e-08 3.54064e-08)
(1.97262e-08 -6.63251e-08 3.89777e-08)
(1.79959e-08 -6.88682e-08 4.18352e-08)