/*--------------------------------*- C++ -*----------------------------------*\
| =========                 |                                                 |
| \\      /  F ield         | OpenFOAM: The Open Source CFD Toolbox           |
|  \\    /   O peration     | Version:  v1912                                 |
|   \\  /    A nd           | Website:  www.openfoam.com                      |
|    \\/     M anipulation  |                                                 |
\*---------------------------------------------------------------------------*/
FoamFile
{
    version     2.0;
    format      ascii;
    class       volVectorField;
    location    "0.61/solid";
    object      DD_0_0;
}
// * * * * * * * * * * * * * * * * * * * * * * * * * * * * * * * * * * * * * //

dimensions      [0 1 0 0 0 0 0];


internalField   nonuniform List<vector> 
256
(
(2.80107e-10 2.8147e-10 3.26424e-10)
(6.25564e-11 1.68047e-10 2.99533e-10)
(-7.44814e-11 1.6293e-10 2.93641e-10)
(-2.74721e-10 2.62446e-10 3.08218e-10)
(5.00987e-10 2.188e-10 7.34915e-10)
(1.26896e-10 1.26219e-10 6.95302e-10)
(-1.51576e-10 1.23715e-10 6.83709e-10)
(-5.01854e-10 2.12861e-10 6.9912e-10)
(5.40684e-10 9.4508e-12 1.01671e-09)
(1.36536e-10 -3.0715e-11 9.70903e-10)
(-1.7582e-10 -2.86582e-11 9.56151e-10)
(-5.55858e-10 1.84559e-11 9.71235e-10)
(5.2657e-10 -2.18978e-10 1.25589e-09)
(1.22419e-10 -2.40194e-10 1.20031e-09)
(-1.81877e-10 -2.33587e-10 1.18331e-09)
(-5.61672e-10 -1.96781e-10 1.20355e-09)
(5.24403e-10 -4.64433e-10 1.49518e-09)
(1.10755e-10 -4.96503e-10 1.42667e-09)
(-1.9636e-10 -4.85639e-10 1.40775e-09)
(-5.85212e-10 -4.30086e-10 1.43701e-09)
(5.81067e-10 -7.61161e-10 1.76137e-09)
(1.21166e-10 -8.10501e-10 1.68033e-09)
(-2.39197e-10 -7.95473e-10 1.65955e-09)
(-6.7376e-10 -7.14894e-10 1.69763e-09)
(7.35728e-10 -1.20411e-09 2.06316e-09)
(1.64344e-10 -1.23169e-09 1.98155e-09)
(-3.22224e-10 -1.21201e-09 1.95878e-09)
(-8.66588e-10 -1.14438e-09 1.99366e-09)
(9.33037e-10 -1.87204e-09 2.32158e-09)
(2.10119e-10 -1.80934e-09 2.26217e-09)
(-4.17302e-10 -1.78207e-09 2.23746e-09)
(-1.10841e-09 -1.78918e-09 2.24683e-09)
(1.66142e-10 9.46469e-11 1.25794e-10)
(3.48098e-11 6.19728e-12 1.4523e-10)
(-3.95639e-11 4.35073e-12 1.42766e-10)
(-1.5624e-10 8.32223e-11 1.18452e-10)
(3.06327e-10 -1.44258e-11 4.01035e-10)
(7.48903e-11 -8.75011e-11 4.39617e-10)
(-8.30089e-11 -8.74701e-11 4.32883e-10)
(-2.94908e-10 -1.52324e-11 3.81363e-10)
(3.27532e-10 -1.9978e-10 6.54331e-10)
(7.95289e-11 -2.31515e-10 6.98113e-10)
(-9.57274e-11 -2.28047e-10 6.88499e-10)
(-3.24477e-10 -1.88395e-10 6.26154e-10)
(3.09109e-10 -4.07741e-10 8.82635e-10)
(6.61767e-11 -4.25616e-10 9.24708e-10)
(-9.75418e-11 -4.18241e-10 9.13036e-10)
(-3.21292e-10 -3.84598e-10 8.48184e-10)
(3.02574e-10 -6.36474e-10 1.10459e-09)
(5.5324e-11 -6.67536e-10 1.14224e-09)
(-1.08702e-10 -6.56232e-10 1.12881e-09)
(-3.3647e-10 -6.01883e-10 1.06472e-09)
(3.55031e-10 -8.98859e-10 1.33128e-09)
(6.6227e-11 -9.49683e-10 1.36429e-09)
(-1.48406e-10 -9.34468e-10 1.34917e-09)
(-4.17177e-10 -8.52907e-10 1.28627e-09)
(5.14153e-10 -1.25291e-09 1.54216e-09)
(1.11476e-10 -1.27989e-09 1.57307e-09)
(-2.30207e-10 -1.26054e-09 1.55642e-09)
(-6.1095e-10 -1.19467e-09 1.49245e-09)
(7.32006e-10 -1.77326e-09 1.65363e-09)
(1.60564e-10 -1.68817e-09 1.68492e-09)
(-3.2566e-10 -1.66239e-09 1.66757e-09)
(-8.69806e-10 -1.69448e-09 1.60154e-09)
(8.02879e-11 2.47048e-11 6.21662e-11)
(9.99933e-12 -3.85863e-11 9.10484e-11)
(-1.16795e-11 -4.00038e-11 8.93631e-11)
(-6.80565e-11 1.34314e-11 5.73825e-11)
(1.52957e-10 -1.30728e-10 2.55135e-10)
(2.58785e-11 -1.83966e-10 3.09636e-10)
(-2.51443e-11 -1.83611e-10 3.04944e-10)
(-1.33971e-10 -1.32124e-10 2.41869e-10)
(1.59153e-10 -3.23905e-10 4.6978e-10)
(2.50208e-11 -3.48004e-10 5.31616e-10)
(-2.71202e-11 -3.44585e-10 5.2459e-10)
(-1.43557e-10 -3.13981e-10 4.49692e-10)
(1.40093e-10 -5.19949e-10 6.78386e-10)
(1.25586e-11 -5.36677e-10 7.40363e-10)
(-2.52606e-11 -5.29686e-10 7.31503e-10)
(-1.35348e-10 -4.98956e-10 6.52732e-10)
(1.33978e-10 -7.1988e-10 8.76022e-10)
(2.96372e-12 -7.52218e-10 9.35984e-10)
(-3.37649e-11 -7.41546e-10 9.25527e-10)
(-1.47097e-10 -6.87927e-10 8.45455e-10)
(1.87161e-10 -9.2979e-10 1.05529e-09)
(1.47622e-11 -9.82769e-10 1.11289e-09)
(-7.09928e-11 -9.68428e-10 1.10099e-09)
(-2.25075e-10 -8.86977e-10 1.02023e-09)
(3.4946e-10 -1.20197e-09 1.18554e-09)
(6.14771e-11 -1.23078e-09 1.24088e-09)
(-1.51311e-10 -1.21263e-09 1.22786e-09)
(-4.18828e-10 -1.14757e-09 1.14686e-09)
(5.71751e-10 -1.63129e-09 1.21069e-09)
(1.12362e-10 -1.54639e-09 1.2643e-09)
(-2.45841e-10 -1.52212e-09 1.25107e-09)
(-6.79079e-10 -1.5569e-09 1.17088e-09)
(4.28965e-11 -7.65077e-13 5.04217e-11)
(-6.55736e-13 -4.81549e-11 6.9885e-11)
(3.77513e-13 -4.9761e-11 6.86232e-11)
(-2.9228e-11 -1.30791e-11 4.69274e-11)
(8.43523e-11 -1.75816e-10 1.99002e-10)
(3.66732e-12 -2.16668e-10 2.35313e-10)
(1.8945e-12 -2.16847e-10 2.31916e-10)
(-6.05826e-11 -1.79484e-10 1.89556e-10)
(8.4862e-11 -3.77342e-10 3.71814e-10)
(7.91554e-13 -3.97207e-10 4.12477e-10)
(5.73683e-12 -3.94529e-10 4.07331e-10)
(-6.07993e-11 -3.7027e-10 3.57279e-10)
(6.91835e-11 -5.65743e-10 5.46336e-10)
(-9.55967e-12 -5.82822e-10 5.86362e-10)
(9.21604e-12 -5.76735e-10 5.79727e-10)
(-5.23294e-11 -5.47964e-10 5.27298e-10)
(6.78998e-11 -7.40545e-10 7.08122e-10)
(-1.6546e-11 -7.7471e-10 7.46077e-10)
(1.50937e-12 -7.65078e-10 7.3811e-10)
(-6.55271e-11 -7.12075e-10 6.84978e-10)
(1.2491e-10 -9.10576e-10 8.41116e-10)
(-2.94522e-12 -9.65629e-10 8.77024e-10)
(-3.45179e-11 -9.52453e-10 8.67884e-10)
(-1.44262e-10 -8.71478e-10 8.14294e-10)
(2.87378e-10 -1.13664e-09 9.19552e-10)
(4.40843e-11 -1.16948e-09 9.54024e-10)
(-1.12518e-10 -1.15258e-09 9.44061e-10)
(-3.35394e-10 -1.08607e-09 8.89955e-10)
(5.05061e-10 -1.52737e-09 9.16038e-10)
(9.46872e-11 -1.45385e-09 9.51034e-10)
(-2.04366e-10 -1.43078e-09 9.41003e-10)
(-5.88468e-10 -1.45657e-09 8.85737e-10)
(3.11402e-11 -9.81494e-12 4.3956e-11)
(-2.89586e-12 -4.97335e-11 5.37442e-11)
(3.35477e-12 -5.15475e-11 5.28325e-11)
(-1.65653e-11 -2.29931e-11 4.14654e-11)
(6.39006e-11 -1.8812e-10 1.58893e-10)
(-1.09345e-12 -2.2358e-10 1.76517e-10)
(9.49137e-12 -2.24373e-10 1.74106e-10)
(-3.71155e-11 -1.93917e-10 1.52264e-10)
(6.5056e-11 -3.89899e-10 2.90406e-10)
(-3.2634e-12 -4.08673e-10 3.09302e-10)
(1.52419e-11 -4.0683e-10 3.05641e-10)
(-3.54369e-11 -3.85605e-10 2.80162e-10)
(5.40704e-11 -5.71212e-10 4.24019e-10)
(-1.10965e-11 -5.89611e-10 4.41536e-10)
(1.90102e-11 -5.84476e-10 4.36761e-10)
(-2.89079e-11 -5.56523e-10 4.10419e-10)
(5.81561e-11 -7.29551e-10 5.45389e-10)
(-1.53604e-11 -7.6557e-10 5.60859e-10)
(1.13092e-11 -7.56963e-10 5.55061e-10)
(-4.47605e-11 -7.04327e-10 5.28636e-10)
(1.18643e-10 -8.77884e-10 6.38806e-10)
(-4.26626e-14 -9.34612e-10 6.52636e-10)
(-2.39371e-11 -9.22496e-10 6.45944e-10)
(-1.24439e-10 -8.42074e-10 6.19227e-10)
(2.79676e-10 -1.0843e-09 6.86916e-10)
(4.67695e-11 -1.12065e-09 7.00154e-10)
(-9.94961e-11 -1.10479e-09 6.92855e-10)
(-3.11828e-10 -1.0369e-09 6.65247e-10)
(4.91694e-10 -1.45923e-09 6.78334e-10)
(9.66117e-11 -1.39617e-09 6.92995e-10)
(-1.88591e-10 -1.37402e-09 6.85662e-10)
(-5.57143e-10 -1.39124e-09 6.56158e-10)
(2.84467e-11 -1.26283e-11 3.43423e-11)
(-2.44876e-12 -4.95251e-11 3.86257e-11)
(3.31601e-12 -5.14884e-11 3.80137e-11)
(-1.33147e-11 -2.63952e-11 3.26843e-11)
(6.08768e-11 -1.87721e-10 1.17099e-10)
(1.36694e-13 -2.21575e-10 1.2421e-10)
(9.9606e-12 -2.22839e-10 1.22601e-10)
(-3.22222e-11 -1.95077e-10 1.12713e-10)
(6.47818e-11 -3.85007e-10 2.09091e-10)
(-4.6217e-13 -4.04266e-10 2.15952e-10)
(1.5858e-11 -4.03096e-10 2.13508e-10)
(-3.16237e-11 -3.82854e-10 2.02303e-10)
(5.79104e-11 -5.5978e-10 3.01669e-10)
(-6.1529e-12 -5.79699e-10 3.07101e-10)
(1.94419e-11 -5.75338e-10 3.03894e-10)
(-2.72877e-11 -5.47523e-10 2.92592e-10)
(6.60519e-11 -7.08886e-10 3.84309e-10)
(-8.34071e-12 -7.46409e-10 3.88144e-10)
(1.16655e-11 -7.3862e-10 3.84225e-10)
(-4.52057e-11 -6.86208e-10 3.73035e-10)
(1.28763e-10 -8.47825e-10 4.45563e-10)
(8.19423e-12 -9.0565e-10 4.48317e-10)
(-2.28972e-11 -8.94354e-10 4.43771e-10)
(-1.25194e-10 -8.14544e-10 4.32301e-10)
(2.88204e-10 -1.04745e-09 4.74968e-10)
(5.47459e-11 -1.0859e-09 4.77602e-10)
(-9.6473e-11 -1.07081e-09 4.72633e-10)
(-3.09227e-10 -1.00241e-09 4.60235e-10)
(4.95848e-10 -1.415e-09 4.67841e-10)
(1.03984e-10 -1.35849e-09 4.71728e-10)
(-1.83437e-10 -1.33703e-09 4.66738e-10)
(-5.48576e-10 -1.34907e-09 4.5275e-10)
(2.80727e-11 -1.3139e-11 2.17541e-11)
(-1.75274e-12 -4.88752e-11 2.34671e-11)
(2.83657e-12 -5.0933e-11 2.31161e-11)
(-1.26207e-11 -2.727e-11 2.08075e-11)
(6.1732e-11 -1.84022e-10 7.1781e-11)
(1.9479e-12 -2.17671e-10 7.42968e-11)
(9.11262e-12 -2.19239e-10 7.3376e-11)
(-3.19904e-11 -1.92364e-10 6.92829e-11)
(6.80184e-11 -3.76374e-10 1.26091e-10)
(2.64265e-12 -3.96431e-10 1.28077e-10)
(1.47529e-11 -3.95707e-10 1.26676e-10)
(-3.27647e-11 -3.75619e-10 1.22219e-10)
(6.39233e-11 -5.46233e-10 1.80098e-10)
(-1.61233e-12 -5.67334e-10 1.81095e-10)
(1.81275e-11 -5.63495e-10 1.79252e-10)
(-3.00011e-11 -5.35599e-10 1.749e-10)
(7.45518e-11 -6.90666e-10 2.27706e-10)
(-2.50179e-12 -7.29184e-10 2.27739e-10)
(1.03508e-11 -7.21947e-10 2.25477e-10)
(-4.91166e-11 -6.69694e-10 2.21217e-10)
(1.38471e-10 -8.26206e-10 2.62332e-10)
(1.47655e-11 -8.84627e-10 2.61785e-10)
(-2.36774e-11 -8.73878e-10 2.59152e-10)
(-1.29041e-10 -7.94609e-10 2.54668e-10)
(2.96766e-10 -1.02393e-09 2.78454e-10)
(6.11573e-11 -1.06338e-09 2.77945e-10)
(-9.59279e-11 -1.0488e-09 2.75062e-10)
(-3.10743e-10 -9.80457e-10 2.69915e-10)
(5.01591e-10 -1.3878e-09 2.74083e-10)
(1.10021e-10 -1.3347e-09 2.74343e-10)
(-1.81491e-10 -1.31368e-09 2.71448e-10)
(-5.46207e-10 -1.32323e-09 2.6533e-10)
(2.80748e-11 -1.30574e-11 7.43575e-12)
(-1.38789e-12 -4.83871e-11 7.89302e-12)
(2.56494e-12 -5.04907e-11 7.77877e-12)
(-1.24766e-11 -2.73628e-11 7.12829e-12)
(6.2496e-11 -1.81328e-10 2.41761e-11)
(2.91268e-12 -2.15055e-10 2.47824e-11)
(8.58319e-12 -2.16771e-10 2.44828e-11)
(-3.22538e-11 -1.90145e-10 2.33652e-11)
(7.00085e-11 -3.70742e-10 4.21212e-11)
(4.26691e-12 -3.91296e-10 4.2501e-11)
(1.40514e-11 -3.90791e-10 4.20449e-11)
(-3.3779e-11 -3.7067e-10 4.08635e-11)
(6.72573e-11 -5.38019e-10 5.98353e-11)
(7.07356e-13 -5.59738e-10 5.98707e-11)
(1.73196e-11 -5.56158e-10 5.92696e-11)
(-3.17811e-11 -5.28188e-10 5.81436e-11)
(7.90353e-11 -6.80512e-10 7.53503e-11)
(4.27843e-13 -7.19513e-10 7.50679e-11)
(9.56888e-12 -7.12551e-10 7.43286e-11)
(-5.14151e-11 -6.60389e-10 7.32328e-11)
(1.43477e-10 -8.1505e-10 8.65483e-11)
(1.80355e-11 -8.7372e-10 8.60862e-11)
(-2.41694e-11 -8.63243e-10 8.52246e-11)
(-1.3123e-10 -7.8429e-10 8.40429e-11)
(3.01199e-10 -1.01238e-09 9.17059e-11)
(6.43601e-11 -1.05221e-09 9.12731e-11)
(-9.57673e-11 -1.03788e-09 9.03285e-11)
(-3.11765e-10 -9.69686e-10 8.891e-11)
(5.04654e-10 -1.3747e-09 9.02476e-11)
(1.13048e-10 -1.32299e-09 9.00683e-11)
(-1.80639e-10 -1.3022e-09 8.91197e-11)
(-5.45326e-10 -1.3108e-09 8.73804e-11)
)
;

boundaryField
{
    interface
    {
        type            calculated;
        value           nonuniform List<vector> 
192
(
(3.13054e-10 4.76743e-10 2.92924e-10)
(5.30388e-10 2.83943e-10 6.76638e-10)
(5.71935e-10 1.58453e-11 9.533e-10)
(5.61607e-10 -2.23049e-10 1.19267e-09)
(5.59697e-10 -4.5081e-10 1.43266e-09)
(6.08965e-10 -7.08331e-10 1.69953e-09)
(7.54778e-10 -1.11612e-09 2.0029e-09)
(9.84404e-10 -1.81672e-09 2.26447e-09)
(1.55213e-10 2.12764e-10 7.58401e-11)
(2.94734e-10 2.59207e-11 3.1403e-10)
(3.14558e-10 -1.99086e-10 5.5895e-10)
(2.95379e-10 -4.13982e-10 7.86017e-10)
(2.85539e-10 -6.24994e-10 1.00698e-09)
(3.28649e-10 -8.45965e-10 1.2328e-09)
(4.81134e-10 -1.15866e-09 1.44559e-09)
(7.51846e-10 -1.71483e-09 1.56331e-09)
(5.64956e-11 8.30159e-11 3.13558e-11)
(1.36187e-10 -1.11012e-10 1.99643e-10)
(1.42437e-10 -3.27122e-10 4.09114e-10)
(1.22866e-10 -5.26244e-10 6.18406e-10)
(1.14798e-10 -7.08114e-10 8.17355e-10)
(1.62256e-10 -8.75921e-10 9.97763e-10)
(3.23914e-10 -1.10582e-09 1.12885e-09)
(6.01611e-10 -1.57135e-09 1.15396e-09)
(1.43634e-11 3.1047e-11 3.81355e-11)
(6.73054e-11 -1.65325e-10 1.76739e-10)
(6.92489e-11 -3.81135e-10 3.48291e-10)
(5.39525e-11 -5.69985e-10 5.24831e-10)
(5.22353e-11 -7.26615e-10 6.89168e-10)
(1.06343e-10 -8.55708e-10 8.23987e-10)
(2.72167e-10 -1.04161e-09 9.02106e-10)
(5.44212e-10 -1.46706e-09 8.96024e-10)
(-1.97561e-13 1.39452e-11 4.03441e-11)
(4.50041e-11 -1.79642e-10 1.53025e-10)
(4.83787e-11 -3.92358e-10 2.85387e-10)
(3.86274e-11 -5.72938e-10 4.21202e-10)
(4.34643e-11 -7.13409e-10 5.44927e-10)
(1.02794e-10 -8.22505e-10 6.3977e-10)
(2.693e-10 -9.91043e-10 6.87123e-10)
(5.33935e-10 -1.39907e-09 6.76031e-10)
(-4.02877e-12 9.70252e-12 3.35758e-11)
(4.08167e-11 -1.78638e-10 1.16558e-10)
(4.73883e-11 -3.8575e-10 2.09833e-10)
(4.2406e-11 -5.59464e-10 3.04133e-10)
(5.21397e-11 -6.91174e-10 3.88408e-10)
(1.14741e-10 -7.92288e-10 4.5052e-10)
(2.80729e-10 -9.5568e-10 4.79241e-10)
(5.39382e-10 -1.3552e-09 4.70315e-10)
(-4.63709e-12 9.31208e-12 2.16613e-11)
(4.12955e-11 -1.74036e-10 7.21861e-11)
(5.05056e-11 -3.75827e-10 1.27398e-10)
(4.87241e-11 -5.44601e-10 1.82435e-10)
(6.14675e-11 -6.7203e-10 2.30952e-10)
(1.25861e-10 -7.70654e-10 2.66011e-10)
(2.91228e-10 -9.33148e-10 2.81703e-10)
(5.45952e-10 -1.32838e-09 2.76285e-10)
(-4.60164e-12 9.58523e-12 7.43633e-12)
(4.20121e-11 -1.70845e-10 2.43672e-11)
(5.2568e-11 -3.69553e-10 4.26188e-11)
(5.23356e-11 -5.35764e-10 6.06689e-11)
(6.6475e-11 -6.61459e-10 7.64713e-11)
(1.3165e-10 -7.5951e-10 8.77998e-11)
(2.96659e-10 -9.22084e-10 9.28141e-11)
(5.49464e-10 -1.31551e-09 9.10134e-11)
(2.9013e-10 5.46804e-10 3.21248e-10)
(5.20217e-10 3.91372e-10 7.21098e-10)
(5.60933e-10 1.39695e-10 1.00464e-09)
(5.4428e-10 -9.93593e-11 1.24882e-09)
(5.38534e-10 -3.38062e-10 1.48882e-09)
(5.91723e-10 -6.19167e-10 1.74559e-09)
(7.45454e-10 -1.06406e-09 2.03276e-09)
(9.46737e-10 -1.80236e-09 2.31518e-09)
(5.43569e-11 4.16755e-10 2.65705e-10)
(1.14088e-10 2.94063e-10 6.4507e-10)
(1.21391e-10 9.55375e-11 9.13871e-10)
(1.0427e-10 -1.2625e-10 1.14072e-09)
(8.88935e-11 -3.76495e-10 1.36114e-09)
(9.57077e-11 -6.7178e-10 1.59917e-09)
(1.38247e-10 -1.08623e-09 1.88418e-09)
(1.89086e-10 -1.736e-09 2.21284e-09)
(-7.23143e-11 4.07267e-10 2.5144e-10)
(-1.50629e-10 2.89344e-10 6.26635e-10)
(-1.75744e-10 9.62436e-11 8.9212e-10)
(-1.81072e-10 -1.20685e-10 1.11635e-09)
(-1.93782e-10 -3.66577e-10 1.33453e-09)
(-2.34878e-10 -6.57715e-10 1.57043e-09)
(-3.19201e-10 -1.06754e-09 1.85316e-09)
(-4.21138e-10 -1.70912e-09 2.17904e-09)
(-2.89619e-10 5.14281e-10 2.7736e-10)
(-5.31224e-10 3.78617e-10 6.626e-10)
(-5.89409e-10 1.44565e-10 9.35568e-10)
(-5.95002e-10 -8.03367e-11 1.1718e-09)
(-6.1693e-10 -3.06565e-10 1.40513e-09)
(-7.03843e-10 -5.7573e-10 1.65566e-09)
(-8.97577e-10 -1.00708e-09 1.93657e-09)
(-1.14506e-09 -1.72057e-09 2.21265e-09)
(-2.50396e-10 4.56589e-10 2.71146e-10)
(-4.73925e-10 2.83146e-10 6.32693e-10)
(-5.28559e-10 3.34125e-11 8.96609e-10)
(-5.36579e-10 -1.8944e-10 1.12678e-09)
(-5.58765e-10 -4.02061e-10 1.35896e-09)
(-6.38067e-10 -6.44547e-10 1.61844e-09)
(-8.1878e-10 -1.03572e-09 1.91425e-09)
(-1.08522e-09 -1.70975e-09 2.16885e-09)
(-9.34603e-11 1.96009e-10 6.67842e-11)
(-2.32556e-10 2.68276e-11 2.8939e-10)
(-2.60083e-10 -1.81798e-10 5.23075e-10)
(-2.54923e-10 -3.81598e-10 7.41599e-10)
(-2.65407e-10 -5.7791e-10 9.5519e-10)
(-3.35107e-10 -7.84285e-10 1.17409e-09)
(-5.19152e-10 -1.08151e-09 1.38051e-09)
(-8.22242e-10 -1.61354e-09 1.4942e-09)
(5.36583e-12 6.39382e-11 2.56276e-11)
(-6.88207e-11 -1.13249e-10 1.83285e-10)
(-7.79281e-11 -3.13635e-10 3.83769e-10)
(-6.8101e-11 -4.98069e-10 5.85488e-10)
(-7.65837e-11 -6.65493e-10 7.77716e-10)
(-1.47065e-10 -8.19042e-10 9.51999e-10)
(-3.36914e-10 -1.03406e-09 1.07797e-09)
(-6.44066e-10 -1.47594e-09 1.10054e-09)
(4.80149e-11 9.37349e-12 3.40534e-11)
(3.83084e-12 -1.7159e-10 1.65339e-10)
(2.63079e-12 -3.72332e-10 3.30246e-10)
(1.17666e-11 -5.4678e-10 5.00685e-10)
(3.21875e-13 -6.89089e-10 6.59392e-10)
(-7.36067e-11 -8.04008e-10 7.89133e-10)
(-2.64643e-10 -9.75018e-10 8.63204e-10)
(-5.63665e-10 -1.3765e-09 8.55251e-10)
(6.29592e-11 -9.57294e-12 3.7486e-11)
(2.85468e-11 -1.89199e-10 1.45172e-10)
(2.84017e-11 -3.87655e-10 2.72866e-10)
(3.47216e-11 -5.54191e-10 4.04157e-10)
(1.94776e-11 -6.80442e-10 5.23554e-10)
(-5.70728e-11 -7.75303e-10 6.14458e-10)
(-2.46302e-10 -9.28719e-10 6.58704e-10)
(-5.35893e-10 -1.31233e-09 6.46184e-10)
(6.70385e-11 -1.5011e-11 3.16975e-11)
(3.42449e-11 -1.90499e-10 1.11431e-10)
(3.25457e-11 -3.84086e-10 2.01633e-10)
(3.6024e-11 -5.44125e-10 2.92864e-10)
(1.79868e-11 -6.61729e-10 3.74123e-10)
(-5.98988e-11 -7.48535e-10 4.3345e-10)
(-2.46784e-10 -8.96565e-10 4.59963e-10)
(-5.2887e-10 -1.27129e-09 4.50016e-10)
(6.7792e-11 -1.61173e-11 2.05976e-11)
(3.4657e-11 -1.87328e-10 6.92901e-11)
(3.13178e-11 -3.76114e-10 1.22757e-10)
(3.28026e-11 -5.31509e-10 1.76023e-10)
(1.30709e-11 -6.44931e-10 2.22769e-10)
(-6.52966e-11 -7.29199e-10 2.56177e-10)
(-2.50336e-10 -8.76162e-10 2.70549e-10)
(-5.27458e-10 -1.24632e-09 2.64517e-10)
(6.78256e-11 -1.61802e-11 7.09214e-12)
(3.43562e-11 -1.84819e-10 2.34308e-11)
(3.01426e-11 -3.70786e-10 4.11168e-11)
(3.06564e-11 -5.23776e-10 5.85884e-11)
(1.01551e-11 -6.35523e-10 7.38073e-11)
(-6.83126e-11 -7.19199e-10 8.45899e-11)
(-2.52398e-10 -8.66158e-10 8.91654e-11)
(-5.2708e-10 -1.23437e-09 8.716e-11)
(9.45022e-10 -1.86661e-09 2.33172e-09)
(7.3995e-10 -1.74444e-09 1.59345e-09)
(5.80497e-10 -1.61825e-09 1.14922e-09)
(5.16834e-10 -1.52607e-09 8.73023e-10)
(5.06005e-10 -1.46157e-09 6.50242e-10)
(5.11615e-10 -1.41847e-09 4.49982e-10)
(5.18024e-10 -1.3919e-09 2.64009e-10)
(5.21323e-10 -1.37916e-09 8.69736e-11)
(1.87624e-10 -1.76093e-09 2.26855e-09)
(1.32844e-10 -1.59237e-09 1.61919e-09)
(8.50647e-11 -1.4679e-09 1.20572e-09)
(7.05366e-11 -1.39289e-09 9.13478e-10)
(7.53055e-11 -1.34377e-09 6.69154e-10)
(8.44869e-11 -1.31043e-09 4.5636e-10)
(9.14874e-11 -1.28895e-09 2.65469e-10)
(9.49172e-11 -1.27831e-09 8.71425e-11)
(-4.22346e-10 -1.72442e-09 2.24401e-09)
(-3.24086e-10 -1.55808e-09 1.60258e-09)
(-2.43218e-10 -1.43527e-09 1.19317e-09)
(-2.03691e-10 -1.36153e-09 9.0398e-10)
(-1.89828e-10 -1.31337e-09 6.62225e-10)
(-1.85796e-10 -1.28071e-09 4.51652e-10)
(-1.84363e-10 -1.25967e-09 2.6274e-10)
(-1.83691e-10 -1.24924e-09 8.6249e-11)
(-1.14635e-09 -1.75556e-09 2.25746e-09)
(-9.02259e-10 -1.63824e-09 1.54347e-09)
(-7.10869e-10 -1.51647e-09 1.1114e-09)
(-6.22062e-10 -1.42793e-09 8.44322e-10)
(-5.92302e-10 -1.3662e-09 6.29284e-10)
(-5.84465e-10 -1.3251e-09 4.35747e-10)
(-5.82281e-10 -1.29982e-09 2.55763e-10)
(-5.81398e-10 -1.28772e-09 8.42738e-11)
)
;
    }
    symmetry
    {
        type            symmetry;
    }
    bottom
    {
        type            calculated;
        value           uniform (0 0 0);
    }
}


// ************************************************************************* //
