/*--------------------------------*- C++ -*----------------------------------*\
| =========                 |                                                 |
| \\      /  F ield         | OpenFOAM: The Open Source CFD Toolbox           |
|  \\    /   O peration     | Version:  v1912                                 |
|   \\  /    A nd           | Website:  www.openfoam.com                      |
|    \\/     M anipulation  |                                                 |
\*---------------------------------------------------------------------------*/
FoamFile
{
    version     2.0;
    format      ascii;
    class       volScalarField;
    location    "0.61/solid";
    object      epsilonEq;
}
// * * * * * * * * * * * * * * * * * * * * * * * * * * * * * * * * * * * * * //

dimensions      [0 0 0 0 0 0 0];


internalField   nonuniform List<scalar> 
256
(
2.72928e-06
1.93897e-06
1.91268e-06
2.613e-06
1.61133e-06
1.37841e-06
1.3571e-06
1.52032e-06
1.6103e-06
1.30766e-06
1.28678e-06
1.51924e-06
1.69008e-06
1.31455e-06
1.29382e-06
1.59813e-06
1.75359e-06
1.34752e-06
1.32679e-06
1.66077e-06
1.76131e-06
1.37543e-06
1.35464e-06
1.66785e-06
1.4503e-06
1.2698e-06
1.25185e-06
1.36404e-06
2.31405e-07
1.43281e-06
1.42111e-06
2.45034e-07
1.65558e-06
3.90228e-07
3.79058e-07
1.5352e-06
1.23192e-06
3.85402e-07
3.75318e-07
1.12366e-06
1.20697e-06
2.93125e-07
2.85236e-07
1.09913e-06
1.22273e-06
2.01994e-07
1.96734e-07
1.1134e-06
1.25886e-06
1.65701e-07
1.62995e-07
1.14739e-06
1.30581e-06
1.80423e-07
1.77955e-07
1.19226e-06
1.23431e-06
1.39622e-07
1.43864e-07
1.12303e-06
1.45037e-06
1.27179e-06
1.25388e-06
1.36404e-06
1.39751e-06
2.25913e-07
2.21656e-07
1.28188e-06
1.18354e-06
2.26718e-07
2.17895e-07
1.07675e-06
1.17353e-06
1.62384e-07
1.53937e-07
1.06506e-06
1.18881e-06
9.81287e-08
9.29268e-08
1.0779e-06
1.22918e-06
8.82538e-08
8.75106e-08
1.1154e-06
1.29516e-06
1.09829e-07
1.06995e-07
1.17854e-06
1.30418e-06
1.75417e-07
1.73696e-07
1.19029e-06
1.7629e-06
1.37963e-06
1.35898e-06
1.66974e-06
1.25354e-06
2.05585e-07
2.03882e-07
1.1437e-06
1.09874e-06
1.96171e-07
1.91379e-07
9.97657e-07
1.09493e-06
1.44899e-07
1.40901e-07
9.90804e-07
1.11119e-06
1.05591e-07
1.06017e-07
1.00366e-06
1.15405e-06
9.88093e-08
1.02288e-07
1.04296e-06
1.22583e-06
9.89819e-08
9.91084e-08
1.11115e-06
1.25443e-06
1.49694e-07
1.4894e-07
1.14203e-06
1.76373e-06
1.35668e-06
1.33623e-06
1.67168e-06
1.17071e-06
1.77508e-07
1.75729e-07
1.06437e-06
1.03237e-06
1.75099e-07
1.71513e-07
9.34673e-07
1.03419e-06
1.35377e-07
1.32719e-07
9.3299e-07
1.05411e-06
1.02502e-07
1.03586e-07
9.48954e-07
1.10108e-06
9.3338e-08
9.65642e-08
9.91956e-07
1.17687e-06
8.67775e-08
8.58676e-08
1.06378e-06
1.21332e-06
1.47492e-07
1.46243e-07
1.10236e-06
1.72558e-06
1.32762e-06
1.30739e-06
1.63475e-06
1.12374e-06
1.54035e-07
1.51566e-07
1.01939e-06
9.90332e-07
1.55284e-07
1.51416e-07
8.94287e-07
9.96107e-07
1.19367e-07
1.16189e-07
8.96404e-07
1.01988e-06
8.38817e-08
8.40218e-08
9.15983e-07
1.0706e-06
7.11896e-08
7.3159e-08
9.62554e-07
1.14943e-06
6.91184e-08
6.52566e-08
1.0373e-06
1.19078e-06
1.58378e-07
1.56263e-07
1.08085e-06
1.69738e-06
1.30761e-06
1.28748e-06
1.60735e-06
1.09799e-06
1.3692e-07
1.33703e-07
9.94724e-07
9.66257e-07
1.39012e-07
1.34467e-07
8.70988e-07
9.74328e-07
1.02268e-07
9.79983e-08
8.7533e-07
1.00082e-06
6.07873e-08
5.94416e-08
8.97538e-07
1.05404e-06
4.48258e-08
4.52921e-08
9.46563e-07
1.13488e-06
5.52488e-08
4.78191e-08
1.02329e-06
1.17944e-06
1.68716e-07
1.66113e-07
1.07019e-06
1.68157e-06
1.29551e-06
1.27543e-06
1.59204e-06
1.08648e-06
1.27486e-07
1.23772e-07
9.8369e-07
9.55314e-07
1.29544e-07
1.2449e-07
8.60359e-07
9.64427e-07
9.1083e-08
8.59017e-08
8.65715e-07
9.9225e-07
4.28942e-08
3.98202e-08
8.89235e-07
1.04668e-06
2.12783e-08
1.95645e-08
9.39454e-07
1.12849e-06
4.79387e-08
3.77206e-08
1.01715e-06
1.17467e-06
1.74107e-07
1.71321e-07
1.06576e-06
1.67476e-06
1.28984e-06
1.2698e-06
1.58546e-06
)
;

boundaryField
{
    interface
    {
        type            calculated;
        value           nonuniform List<scalar> 
192
(
3.50636e-06
2.28742e-06
2.30297e-06
2.41423e-06
2.51167e-06
2.55863e-06
2.30116e-06
1.26236e-06
2.68453e-06
2.13071e-06
2.1221e-06
2.18294e-06
2.2693e-06
2.36978e-06
2.34788e-06
2.30197e-06
2.35918e-06
2.04506e-06
2.05507e-06
2.11305e-06
2.20293e-06
2.32326e-06
2.37073e-06
2.56247e-06
2.14496e-06
1.90426e-06
1.925e-06
1.98408e-06
2.07622e-06
2.20334e-06
2.2724e-06
2.5268e-06
2.01617e-06
1.79728e-06
1.82461e-06
1.88709e-06
1.98271e-06
2.11398e-06
2.19213e-06
2.46101e-06
1.94128e-06
1.7298e-06
1.76085e-06
1.82662e-06
1.92537e-06
2.05938e-06
2.14217e-06
2.41401e-06
1.89978e-06
1.69131e-06
1.72431e-06
1.79232e-06
1.89316e-06
2.0288e-06
2.11408e-06
2.38673e-06
1.88119e-06
1.67391e-06
1.70777e-06
1.77686e-06
1.87871e-06
2.01508e-06
2.10148e-06
2.37451e-06
3.57115e-06
2.35586e-06
2.37304e-06
2.48725e-06
2.58706e-06
2.63482e-06
2.3817e-06
1.37629e-06
3.05661e-06
2.3515e-06
2.29832e-06
2.34999e-06
2.43171e-06
2.51408e-06
2.46176e-06
2.3654e-06
3.01357e-06
2.31367e-06
2.2598e-06
2.31082e-06
2.39205e-06
2.47388e-06
2.42316e-06
2.33806e-06
3.43208e-06
2.2476e-06
2.26292e-06
2.37492e-06
2.4733e-06
2.52021e-06
2.27512e-06
1.34811e-06
3.32382e-06
2.12257e-06
2.13595e-06
2.24461e-06
2.33955e-06
2.38414e-06
2.12919e-06
1.12414e-06
2.48264e-06
1.94135e-06
1.9307e-06
1.98767e-06
2.06975e-06
2.16611e-06
2.14492e-06
2.12939e-06
2.16379e-06
1.85896e-06
1.86547e-06
1.91886e-06
2.00361e-06
2.11853e-06
2.16573e-06
2.38686e-06
1.95719e-06
1.72514e-06
1.74139e-06
1.79514e-06
1.88144e-06
2.00217e-06
2.06982e-06
2.35294e-06
1.83345e-06
1.62283e-06
1.64527e-06
1.70194e-06
1.79124e-06
1.91556e-06
1.99162e-06
2.28867e-06
1.76162e-06
1.55803e-06
1.58401e-06
1.6437e-06
1.73586e-06
1.86261e-06
1.94301e-06
2.24263e-06
1.72186e-06
1.52101e-06
1.54884e-06
1.61065e-06
1.70476e-06
1.83296e-06
1.91572e-06
2.21593e-06
1.70407e-06
1.50427e-06
1.53291e-06
1.59576e-06
1.69081e-06
1.81968e-06
1.9035e-06
2.20399e-06
1.37871e-06
2.38359e-06
2.6394e-06
2.60335e-06
2.5366e-06
2.48829e-06
2.46003e-06
2.44732e-06
2.36707e-06
2.46552e-06
2.52202e-06
2.44882e-06
2.38088e-06
2.33415e-06
2.30565e-06
2.29223e-06
2.3395e-06
2.42665e-06
2.48146e-06
2.40867e-06
2.341e-06
2.2944e-06
2.26596e-06
2.25257e-06
1.34929e-06
2.27622e-06
2.52416e-06
2.48903e-06
2.42334e-06
2.37571e-06
2.34785e-06
2.33534e-06
)
;
    }
    symmetry
    {
        type            symmetry;
    }
    bottom
    {
        type            calculated;
        value           nonuniform List<scalar> 
32
(
3.86464e-06
2.11015e-06
1.67778e-06
1.49778e-06
1.40431e-06
1.35217e-06
1.32365e-06
1.31092e-06
2.47127e-06
4.93915e-07
2.32426e-07
2.14849e-07
1.92397e-07
1.72077e-07
1.57157e-07
1.49053e-07
2.44072e-06
4.78467e-07
2.21073e-07
2.05515e-07
1.82228e-07
1.60629e-07
1.44474e-07
1.3556e-07
3.72426e-06
1.97761e-06
1.55063e-06
1.377e-06
1.28784e-06
1.23838e-06
1.21138e-06
1.19933e-06
)
;
    }
}


// ************************************************************************* //
