/*--------------------------------*- C++ -*----------------------------------*\
| =========                 |                                                 |
| \\      /  F ield         | OpenFOAM: The Open Source CFD Toolbox           |
|  \\    /   O peration     | Version:  v1912                                 |
|   \\  /    A nd           | Website:  www.openfoam.com                      |
|    \\/     M anipulation  |                                                 |
\*---------------------------------------------------------------------------*/
FoamFile
{
    version     2.0;
    format      ascii;
    class       pointVectorField;
    location    "0.61/solid";
    object      pointD;
}
// * * * * * * * * * * * * * * * * * * * * * * * * * * * * * * * * * * * * * //

dimensions      [0 1 0 0 0 0 0];


internalField   nonuniform List<vector> 
405
(
(3.56668e-08 3.55765e-08 3.68147e-08)
(6.72976e-09 2.32959e-08 4.0936e-08)
(8.89523e-11 1.91011e-08 3.86099e-08)
(-6.39209e-09 2.2967e-08 4.02423e-08)
(-3.38775e-08 3.45359e-08 3.61704e-08)
(6.01211e-08 4.39049e-08 6.54028e-08)
(1.84552e-08 3.93597e-08 9.12717e-08)
(5.46857e-10 3.27715e-08 8.65388e-08)
(-1.69932e-08 3.85389e-08 9.00291e-08)
(-5.66182e-08 4.21183e-08 6.46727e-08)
(6.80331e-08 2.62251e-08 8.17493e-08)
(2.43011e-08 2.53687e-08 1.0694e-07)
(1.35459e-09 2.19172e-08 1.01909e-07)
(-2.11802e-08 2.42281e-08 1.05928e-07)
(-6.2853e-08 2.39793e-08 8.14289e-08)
(6.95624e-08 1.22958e-08 9.28772e-08)
(2.50872e-08 1.31678e-08 1.18433e-07)
(2.27157e-09 1.13935e-08 1.13005e-07)
(-2.01405e-08 1.17218e-08 1.17571e-07)
(-6.25747e-08 9.58399e-09 9.28582e-08)
(7.07539e-08 1.88219e-09 1.02866e-07)
(2.53732e-08 2.67581e-09 1.29084e-07)
(3.26726e-09 1.04488e-09 1.2334e-07)
(-1.84362e-08 9.43209e-10 1.28333e-07)
(-6.17777e-08 -1.2819e-09 1.0307e-07)
(7.43363e-08 -7.57092e-09 1.13761e-07)
(2.71379e-08 -7.67217e-09 1.40994e-07)
(4.34257e-09 -9.83037e-09 1.35024e-07)
(-1.80489e-08 -9.67683e-09 1.40324e-07)
(-6.32054e-08 -1.11648e-08 1.14131e-07)
(8.2287e-08 -2.01202e-08 1.26936e-07)
(3.16811e-08 -2.08993e-08 1.55787e-07)
(5.49237e-09 -2.31873e-08 1.49836e-07)
(-2.02986e-08 -2.3165e-08 1.55179e-07)
(-6.88752e-08 -2.41181e-08 1.27434e-07)
(9.57729e-08 -5.24947e-08 1.42719e-07)
(3.91545e-08 -5.22301e-08 1.74958e-07)
(6.68053e-09 -5.27786e-08 1.69866e-07)
(-2.54009e-08 -5.45797e-08 1.74424e-07)
(-8.00091e-08 -5.6631e-08 1.43329e-07)
(9.21384e-08 -1.03027e-07 1.39531e-07)
(4.36647e-08 -1.13358e-07 1.50073e-07)
(7.44313e-09 -1.11018e-07 1.47085e-07)
(-2.83819e-08 -1.14928e-07 1.50324e-07)
(-7.54985e-08 -1.0619e-07 1.40475e-07)
(3.69647e-08 1.99553e-08 6.43543e-09)
(0 0 0)
(0 0 0)
(0 0 0)
(-3.47975e-08 1.90052e-08 6.54927e-09)
(7.877e-08 3.17813e-08 2.13692e-08)
(1.5665e-08 1.77189e-08 2.43183e-08)
(4.56819e-10 1.20538e-08 2.40758e-08)
(-1.43962e-08 1.68436e-08 2.45584e-08)
(-7.37086e-08 2.96239e-08 2.18423e-08)
(8.48346e-08 1.67638e-08 3.55504e-08)
(2.0587e-08 1.19692e-08 3.94661e-08)
(1.15687e-09 8.81458e-09 3.9343e-08)
(-1.78776e-08 1.0727e-08 3.99382e-08)
(-7.82474e-08 1.40862e-08 3.64737e-08)
(8.65771e-08 4.90482e-09 4.56999e-08)
(2.11954e-08 3.4457e-09 4.97832e-08)
(1.98344e-09 1.78956e-09 4.9701e-08)
(-1.68399e-08 1.9096e-09 5.04403e-08)
(-7.82789e-08 1.70883e-09 4.69833e-08)
(8.84925e-08 -4.30427e-09 5.44405e-08)
(2.1468e-08 -6.01361e-09 5.84957e-08)
(2.90962e-09 -7.55772e-09 5.83716e-08)
(-1.52592e-08 -7.81528e-09 5.92913e-08)
(-7.8265e-08 -7.99523e-09 5.59957e-08)
(9.32172e-08 -1.27157e-08 6.34217e-08)
(2.32377e-08 -1.64572e-08 6.74155e-08)
(3.93137e-09 -1.8562e-08 6.72208e-08)
(-1.49808e-08 -1.85143e-08 6.83156e-08)
(-8.08692e-08 -1.68726e-08 6.51823e-08)
(1.02946e-07 -2.3417e-08 7.34717e-08)
(2.7791e-08 -2.94979e-08 7.7413e-08)
(5.03973e-09 -3.18205e-08 7.7188e-08)
(-1.73199e-08 -3.18005e-08 7.83914e-08)
(-8.83428e-08 -2.80005e-08 7.53863e-08)
(1.19804e-07 -5.19889e-08 8.34848e-08)
(3.52503e-08 -5.6619e-08 8.74557e-08)
(6.19965e-09 -5.71565e-08 8.73426e-08)
(-2.24634e-08 -5.89847e-08 8.84814e-08)
(-1.02881e-07 -5.67116e-08 8.54974e-08)
(9.6305e-08 -1.11393e-07 8.97119e-08)
(3.98422e-08 -1.44161e-07 9.0928e-08)
(7.36418e-09 -1.39731e-07 9.08445e-08)
(-2.47156e-08 -1.44956e-07 9.19621e-08)
(-7.94975e-08 -1.14355e-07 9.15117e-08)
(3.01124e-08 1.17349e-08 4.58077e-10)
(0 0 0)
(0 0 0)
(0 0 0)
(-2.80211e-08 1.09163e-08 6.17648e-10)
(6.39099e-08 1.7046e-08 6.04148e-09)
(1.07824e-08 6.36637e-09 1.00812e-08)
(3.55106e-10 1.62959e-09 1.11165e-08)
(-9.72103e-09 5.57123e-09 1.0376e-08)
(-5.9118e-08 1.51164e-08 6.57994e-09)
(6.83814e-08 5.43102e-09 1.63702e-08)
(1.42239e-08 1.71027e-09 2.16577e-08)
(9.63055e-10 -9.97346e-10 2.3146e-08)
(-1.19103e-08 5.12375e-10 2.21567e-08)
(-6.22714e-08 2.91671e-09 1.72995e-08)
(6.94973e-08 -3.76815e-09 2.59661e-08)
(1.45197e-08 -4.95056e-09 3.15185e-08)
(1.71082e-09 -6.4674e-09 3.31691e-08)
(-1.07188e-08 -6.462e-09 3.21749e-08)
(-6.18341e-08 -6.84768e-09 2.72036e-08)
(7.11038e-08 -1.13333e-08 3.43309e-08)
(1.46896e-08 -1.29415e-08 3.99295e-08)
(2.57239e-09 -1.4448e-08 4.16286e-08)
(-9.16276e-09 -1.47257e-08 4.07094e-08)
(-6.16254e-08 -1.49365e-08 3.58124e-08)
(7.5702e-08 -1.81785e-08 4.21955e-08)
(1.63747e-08 -2.18873e-08 4.77994e-08)
(3.54248e-09 -2.39873e-08 4.95069e-08)
(-8.8993e-09 -2.39295e-08 4.8675e-08)
(-6.4176e-08 -2.22667e-08 4.3866e-08)
(8.56905e-08 -2.62543e-08 4.96034e-08)
(2.09098e-08 -3.23897e-08 5.5178e-08)
(4.6106e-09 -3.47134e-08 5.68862e-08)
(-1.12958e-08 -3.46766e-08 5.61229e-08)
(-7.19472e-08 -3.07804e-08 5.14122e-08)
(1.03657e-07 -4.98261e-08 5.47669e-08)
(2.84682e-08 -5.44416e-08 6.02854e-08)
(5.74102e-09 -5.48848e-08 6.20029e-08)
(-1.65941e-08 -5.6785e-08 6.12656e-08)
(-8.76217e-08 -5.44903e-08 5.66553e-08)
(8.35234e-08 -1.03445e-07 5.72788e-08)
(3.3062e-08 -1.32862e-07 5.95949e-08)
(6.8865e-09 -1.27597e-07 6.12936e-08)
(-1.88873e-08 -1.33601e-07 6.05649e-08)
(-6.76416e-08 -1.06331e-07 5.89579e-08)
(2.60046e-08 8.69599e-09 4.28982e-10)
(0 0 0)
(0 0 0)
(0 0 0)
(-2.40196e-08 7.97086e-09 5.48573e-10)
(5.50449e-08 1.08495e-08 4.50651e-09)
(7.82707e-09 2.24752e-09 7.02076e-09)
(2.7225e-10 -1.85436e-09 7.96157e-09)
(-6.94354e-09 1.51965e-09 7.24191e-09)
(-5.05431e-08 9.11454e-09 4.91812e-09)
(5.87361e-08 -6.85941e-10 1.25482e-08)
(1.0329e-08 -3.72254e-09 1.58715e-08)
(8.01101e-10 -6.08611e-09 1.7215e-08)
(-8.35026e-09 -4.84434e-09 1.62529e-08)
(-5.3064e-08 -3.00772e-09 1.32671e-08)
(5.97194e-08 -9.26239e-09 2.10134e-08)
(1.04749e-08 -1.03116e-08 2.44776e-08)
(1.48005e-09 -1.17124e-08 2.59613e-08)
(-7.14461e-09 -1.17546e-08 2.49834e-08)
(-5.26236e-08 -1.21734e-08 2.19787e-08)
(6.13342e-08 -1.57338e-08 2.86971e-08)
(1.06462e-08 -1.73426e-08 3.21446e-08)
(2.28418e-09 -1.88222e-08 3.36743e-08)
(-5.70311e-09 -1.90687e-08 3.27517e-08)
(-5.25271e-08 -1.91962e-08 2.98653e-08)
(6.59989e-08 -2.09418e-08 3.54521e-08)
(1.23358e-08 -2.46815e-08 3.88642e-08)
(3.20768e-09 -2.67803e-08 4.04096e-08)
(-5.53479e-09 -2.66739e-08 3.95524e-08)
(-5.52174e-08 -2.49142e-08 3.67833e-08)
(7.61872e-08 -2.68007e-08 4.0877e-08)
(1.68841e-08 -3.29774e-08 4.42597e-08)
(4.23879e-09 -3.53132e-08 4.581e-08)
(-8.01501e-09 -3.52197e-08 4.50067e-08)
(-6.32305e-08 -3.12293e-08 4.23287e-08)
(9.44584e-08 -4.75817e-08 4.37379e-08)
(2.44415e-08 -5.22732e-08 4.71376e-08)
(5.33963e-09 -5.27655e-08 4.86959e-08)
(-1.33673e-08 -5.45736e-08 4.79123e-08)
(-7.9228e-08 -5.21566e-08 4.5257e-08)
(7.61041e-08 -9.80942e-08 4.46513e-08)
(2.90709e-08 -1.25954e-07 4.64143e-08)
(6.46096e-09 -1.20688e-07 4.80348e-08)
(-1.57426e-08 -1.2666e-07 4.7172e-08)
(-6.10482e-08 -1.00911e-07 4.59862e-08)
(2.38407e-08 7.57898e-09 7.40725e-10)
(0 0 0)
(0 0 0)
(0 0 0)
(-2.194e-08 6.91971e-09 8.24858e-10)
(5.03748e-08 8.47948e-09 4.33638e-09)
(6.57863e-09 8.39429e-10 5.52904e-09)
(2.16632e-10 -2.91261e-09 6.08491e-09)
(-5.82259e-09 1.62195e-10 5.68745e-09)
(-4.61028e-08 6.89204e-09 4.63203e-09)
(5.37221e-08 -3.35123e-09 1.06341e-08)
(8.68507e-09 -6.084e-09 1.22056e-08)
(6.85069e-10 -8.25158e-09 1.30044e-08)
(-6.95433e-09 -7.13616e-09 1.24837e-08)
(-4.83961e-08 -5.50796e-09 1.11594e-08)
(5.4779e-08 -1.20013e-08 1.74426e-08)
(8.81908e-09 -1.30355e-08 1.90447e-08)
(1.30792e-09 -1.43673e-08 1.99267e-08)
(-5.8465e-09 -1.44069e-08 1.94176e-08)
(-4.8133e-08 -1.47522e-08 1.81569e-08)
(5.65358e-08 -1.79969e-08 2.37875e-08)
(9.05671e-09 -1.96577e-08 2.53337e-08)
(2.06366e-09 -2.11202e-08 2.62399e-08)
(-4.56634e-09 -2.13179e-08 2.57858e-08)
(-4.82664e-08 -2.13164e-08 2.46622e-08)
(6.13227e-08 -2.22328e-08 2.91696e-08)
(1.07935e-08 -2.60126e-08 3.06654e-08)
(2.94698e-09 -2.81075e-08 3.15796e-08)
(-4.52402e-09 -2.79469e-08 3.11824e-08)
(-5.11461e-08 -2.60828e-08 3.01772e-08)
(7.15978e-08 -2.69391e-08 3.31066e-08)
(1.53435e-08 -3.31268e-08 3.45917e-08)
(3.94528e-09 -3.54753e-08 3.5512e-08)
(-7.06914e-09 -3.53183e-08 3.51563e-08)
(-5.92901e-08 -3.1264e-08 3.42144e-08)
(8.98393e-08 -4.64652e-08 3.49808e-08)
(2.28372e-08 -5.1232e-08 3.65263e-08)
(5.01882e-09 -5.18091e-08 3.74644e-08)
(-1.2409e-08 -5.34873e-08 3.71128e-08)
(-7.52814e-08 -5.09497e-08 3.61453e-08)
(7.26123e-08 -9.51437e-08 3.54047e-08)
(2.74908e-08 -1.2206e-07 3.63588e-08)
(6.11697e-09 -1.16992e-07 3.7372e-08)
(-1.48532e-08 -1.22732e-07 3.69289e-08)
(-5.8243e-08 -9.78919e-08 3.64219e-08)
(2.27173e-08 7.11943e-09 7.56787e-10)
(0 0 0)
(0 0 0)
(0 0 0)
(-2.08729e-08 6.50565e-09 8.13449e-10)
(4.80023e-08 7.56229e-09 3.68335e-09)
(6.14257e-09 3.11448e-10 4.19002e-09)
(1.81124e-10 -3.26604e-09 4.46762e-09)
(-5.47074e-09 -3.2848e-10 4.29918e-09)
(-4.38865e-08 6.08047e-09 3.885e-09)
(5.12647e-08 -4.3565e-09 8.36524e-09)
(8.13674e-09 -6.99176e-09 9.01314e-09)
(6.07003e-10 -9.06395e-09 9.41291e-09)
(-6.5758e-09 -7.98967e-09 9.20679e-09)
(-4.6179e-08 -6.38769e-09 8.72822e-09)
(5.24424e-08 -1.31063e-08 1.33752e-08)
(8.31308e-09 -1.41739e-08 1.40052e-08)
(1.1876e-09 -1.5473e-08 1.44457e-08)
(-5.59297e-09 -1.5486e-08 1.42673e-08)
(-4.61148e-08 -1.57284e-08 1.38748e-08)
(5.43459e-08 -1.89623e-08 1.80874e-08)
(8.62044e-09 -2.06771e-08 1.86625e-08)
(1.90526e-09 -2.21304e-08 1.91131e-08)
(-4.45728e-09 -2.22802e-08 1.89826e-08)
(-4.64639e-08 -2.21613e-08 1.87058e-08)
(5.92332e-08 -2.28222e-08 2.20283e-08)
(1.03985e-08 -2.66262e-08 2.25649e-08)
(2.75597e-09 -2.87146e-08 2.30198e-08)
(-4.52021e-09 -2.8509e-08 2.29336e-08)
(-4.95001e-08 -2.6566e-08 2.27473e-08)
(6.95209e-08 -2.71206e-08 2.48127e-08)
(1.4933e-08 -3.32944e-08 2.53549e-08)
(3.72696e-09 -3.56455e-08 2.58181e-08)
(-7.10287e-09 -3.54409e-08 2.57598e-08)
(-5.76978e-08 -3.13546e-08 2.56092e-08)
(8.76328e-08 -4.6122e-08 2.61598e-08)
(2.23512e-08 -5.09217e-08 2.67656e-08)
(4.77744e-09 -5.15558e-08 2.72481e-08)
(-1.24113e-08 -5.31382e-08 2.71871e-08)
(-7.35855e-08 -5.05287e-08 2.7001e-08)
(7.10828e-08 -9.3674e-08 2.64664e-08)
(2.70038e-08 -1.19984e-07 2.69157e-08)
(5.85604e-09 -1.15084e-07 2.74492e-08)
(-1.48926e-08 -1.20624e-07 2.73239e-08)
(-5.72391e-08 -9.63625e-08 2.71998e-08)
(2.21176e-08 6.91119e-09 5.75778e-10)
(0 0 0)
(0 0 0)
(0 0 0)
(-2.03076e-08 6.32663e-09 6.10675e-10)
(4.67688e-08 7.19501e-09 2.61536e-09)
(5.9947e-09 9.93467e-11 2.82697e-09)
(1.59465e-10 -3.3935e-09 2.95511e-09)
(-5.37486e-09 -5.15155e-10 2.89552e-09)
(-4.27495e-08 5.78295e-09 2.7404e-09)
(5.00381e-08 -4.68322e-09 5.71534e-09)
(7.97331e-09 -7.29921e-09 5.97189e-09)
(5.57646e-10 -9.32827e-09 6.15582e-09)
(-6.52026e-09 -8.25927e-09 6.09422e-09)
(-4.51042e-08 -6.62808e-09 5.94234e-09)
(5.13147e-08 -1.34553e-08 8.97764e-09)
(8.19354e-09 -1.45596e-08 9.20968e-09)
(1.10927e-09 -1.58452e-08 9.4115e-09)
(-5.63809e-09 -1.58293e-08 9.37628e-09)
(-4.51926e-08 -1.59857e-08 9.29292e-09)
(5.33209e-08 -1.92968e-08 1.20462e-08)
(8.54892e-09 -2.10489e-08 1.22412e-08)
(1.79975e-09 -2.2497e-08 1.24472e-08)
(-4.6038e-09 -2.261e-08 1.2446e-08)
(-4.56937e-08 -2.24076e-08 1.24398e-08)
(5.82676e-08 -2.3087e-08 1.46036e-08)
(1.03497e-08 -2.68997e-08 1.47774e-08)
(2.62647e-09 -2.89805e-08 1.49867e-08)
(-4.73662e-09 -2.87438e-08 1.50144e-08)
(-4.88313e-08 -2.67512e-08 1.50646e-08)
(6.85377e-08 -2.73187e-08 1.64042e-08)
(1.48637e-08 -3.34694e-08 1.65889e-08)
(3.57695e-09 -3.5815e-08 1.68062e-08)
(-7.33874e-09 -3.55819e-08 1.68501e-08)
(-5.70439e-08 -3.14838e-08 1.6918e-08)
(8.65268e-08 -4.61139e-08 1.7318e-08)
(2.22212e-08 -5.0914e-08 1.75499e-08)
(4.61004e-09 -5.15724e-08 1.7782e-08)
(-1.26199e-08 -5.31014e-08 1.78224e-08)
(-7.28316e-08 -5.04618e-08 1.78629e-08)
(7.03646e-08 -9.29902e-08 1.75613e-08)
(2.68576e-08 -1.18906e-07 1.77692e-08)
(5.67395e-09 -1.14102e-07 1.80274e-08)
(-1.5114e-08 -1.19522e-07 1.80325e-08)
(-5.68869e-08 -9.56333e-08 1.8036e-08)
(2.18144e-08 6.81679e-09 3.04427e-10)
(0 0 0)
(0 0 0)
(0 0 0)
(-2.00228e-08 6.24841e-09 3.21057e-10)
(4.61536e-08 7.04967e-09 1.34473e-09)
(5.93821e-09 1.84974e-11 1.42523e-09)
(1.4784e-10 -3.43522e-09 1.47565e-09)
(-5.34642e-09 -5.81314e-10 1.45829e-09)
(-4.21863e-08 5.67703e-09 1.40451e-09)
(4.94397e-08 -4.7685e-09 2.88635e-09)
(7.91963e-09 -7.38431e-09 2.97958e-09)
(5.30523e-10 -9.39489e-09 3.05162e-09)
(-6.52592e-09 -8.32218e-09 3.03877e-09)
(-4.45889e-08 -6.66326e-09 2.99538e-09)
(5.0774e-08 -1.35289e-08 4.48939e-09)
(8.16681e-09 -1.46567e-08 4.56847e-09)
(1.06537e-09 -1.59368e-08 4.64726e-09)
(-5.70362e-09 -1.5901e-08 4.64937e-09)
(-4.47662e-08 -1.6005e-08 4.64165e-09)
(5.28359e-08 -1.93842e-08 5.99391e-09)
(8.54739e-09 -2.11557e-08 6.05557e-09)
(1.73963e-09 -2.26009e-08 6.13605e-09)
(-4.72639e-09 -2.26915e-08 6.15534e-09)
(-4.53527e-08 -2.24416e-08 6.18503e-09)
(5.78103e-08 -2.31979e-08 7.24806e-09)
(1.03575e-08 -2.70117e-08 7.30118e-09)
(2.55171e-09 -2.90866e-08 7.38375e-09)
(-4.89728e-09 -2.88322e-08 7.41707e-09)
(-4.85438e-08 -2.68133e-08 7.47301e-09)
(6.80611e-08 -2.74601e-08 8.13585e-09)
(1.48561e-08 -3.35921e-08 8.19639e-09)
(3.48951e-09 -3.5931e-08 8.28383e-09)
(-7.50879e-09 -3.56836e-08 8.32449e-09)
(-5.67577e-08 -3.15826e-08 8.38751e-09)
(8.59708e-08 -4.61835e-08 8.60326e-09)
(2.21762e-08 -5.09735e-08 8.68799e-09)
(4.51178e-09 -5.16384e-08 8.78318e-09)
(-1.27736e-08 -5.3143e-08 8.82179e-09)
(-7.24812e-08 -5.04949e-08 8.87078e-09)
(7.00082e-08 -9.27013e-08 8.74303e-09)
(2.67963e-08 -1.18391e-07 8.82944e-09)
(5.56662e-09 -1.13628e-07 8.93471e-09)
(-1.52693e-08 -1.18992e-07 8.95856e-09)
(-5.67457e-08 -9.53163e-08 8.97613e-09)
(1.74402e-08 7.10577e-09 0)
(2.10342e-09 1.7829e-09 0)
(-1.74899e-12 -3.40323e-10 0)
(-1.97893e-09 1.57442e-09 0)
(-1.60814e-08 6.50106e-09 0)
(2.88212e-08 5.16135e-09 0)
(5.92192e-09 -1.87457e-12 0)
(1.44185e-10 -3.44405e-09 0)
(-5.33898e-09 -5.96891e-10 0)
(-2.6407e-08 4.01465e-09 0)
(3.20255e-08 -5.20178e-09 0)
(7.90494e-09 -7.39918e-09 0)
(5.21891e-10 -9.40453e-09 0)
(-6.53013e-09 -8.32975e-09 0)
(-2.87603e-08 -6.84425e-09 0)
(3.28208e-08 -1.36179e-08 0)
(8.16069e-09 -1.46705e-08 0)
(1.05125e-09 -1.59491e-08 0)
(-5.72715e-09 -1.59065e-08 0)
(-2.84529e-08 -1.57741e-08 0)
(3.40725e-08 -1.97556e-08 0)
(8.54883e-09 -2.1175e-08 0)
(1.72013e-09 -2.26191e-08 0)
(-4.76806e-09 -2.27022e-08 0)
(-2.82935e-08 -2.242e-08 0)
(3.7783e-08 -2.4326e-08 0)
(1.03612e-08 -2.70415e-08 0)
(2.5273e-09 -2.91142e-08 0)
(-4.9509e-09 -2.88541e-08 0)
(-3.02943e-08 -2.7483e-08 0)
(4.60765e-08 -2.96665e-08 0)
(1.48543e-08 -3.36349e-08 0)
(3.46081e-09 -3.5971e-08 0)
(-7.56525e-09 -3.57194e-08 0)
(-3.66278e-08 -3.32809e-08 0)
(6.04717e-08 -4.85457e-08 0)
(2.21619e-08 -5.10019e-08 0)
(4.47942e-09 -5.16675e-08 0)
(-1.28247e-08 -5.31653e-08 0)
(-4.89028e-08 -5.23204e-08 0)
(6.04786e-08 -8.37478e-08 0)
(2.6582e-08 -9.14089e-08 0)
(5.26667e-09 -8.85828e-08 0)
(-1.56593e-08 -9.2763e-08 0)
(-4.80923e-08 -8.65468e-08 0)
)
;

boundaryField
{
    interface
    {
        type            calculated;
    }
    symmetry
    {
        type            symmetry;
    }
    bottom
    {
        type            calculated;
    }
}


// ************************************************************************* //
