/*--------------------------------*- C++ -*----------------------------------*\
| =========                 |                                                 |
| \\      /  F ield         | OpenFOAM: The Open Source CFD Toolbox           |
|  \\    /   O peration     | Version:  v1912                                 |
|   \\  /    A nd           | Website:  www.openfoam.com                      |
|    \\/     M anipulation  |                                                 |
\*---------------------------------------------------------------------------*/
FoamFile
{
    version     2.0;
    format      ascii;
    class       pointVectorField;
    location    "0.61/solid";
    object      pointDD;
}
// * * * * * * * * * * * * * * * * * * * * * * * * * * * * * * * * * * * * * //

dimensions      [0 1 0 0 0 0 0];


internalField   nonuniform List<vector> 
405
(
(1.95813e-10 3.3269e-10 2.00798e-10)
(8.37276e-11 2.35865e-10 1.45349e-10)
(-4.59374e-12 2.02353e-10 1.28959e-10)
(-8.82452e-11 2.25168e-10 1.30515e-10)
(-1.74735e-10 3.14928e-10 1.78458e-10)
(4.03703e-10 4.16281e-10 4.94421e-10)
(2.38523e-10 4.05414e-10 4.83172e-10)
(-1.4015e-11 3.47007e-10 4.4445e-10)
(-2.55406e-10 3.90277e-10 4.48606e-10)
(-3.76759e-10 3.99596e-10 4.51371e-10)
(5.34502e-10 2.06577e-10 8.26107e-10)
(3.21663e-10 2.28974e-10 8.12187e-10)
(-2.34789e-11 1.93411e-10 7.63023e-10)
(-3.55571e-10 2.2601e-10 7.69123e-10)
(-5.2019e-10 2.09083e-10 7.67463e-10)
(5.48995e-10 -3.79202e-11 1.08381e-09)
(3.25548e-10 5.58904e-12 1.06491e-09)
(-3.39411e-11 -1.01609e-11 1.00631e-09)
(-3.8023e-10 1.34357e-11 1.01551e-09)
(-5.53187e-10 -1.84096e-11 1.01466e-09)
(5.40785e-10 -2.70403e-10 1.32112e-09)
(3.12051e-10 -2.2789e-10 1.29441e-09)
(-4.7045e-11 -2.39546e-10 1.22555e-09)
(-3.92779e-10 -2.10812e-10 1.23996e-09)
(-5.68954e-10 -2.36002e-10 1.24375e-09)
(5.63577e-10 -5.18437e-10 1.56766e-09)
(3.20951e-10 -4.90117e-10 1.52928e-09)
(-6.32031e-11 -5.05381e-10 1.45005e-09)
(-4.33743e-10 -4.64537e-10 1.47034e-09)
(-6.21706e-10 -4.69936e-10 1.48297e-09)
(6.6002e-10 -8.61826e-10 1.84022e-09)
(3.8183e-10 -8.43966e-10 1.7908e-09)
(-8.28983e-11 -8.52722e-10 1.70563e-09)
(-5.33413e-10 -8.09493e-10 1.72748e-09)
(-7.5412e-10 -7.98504e-10 1.7484e-09)
(8.32623e-10 -1.42084e-09 2.11458e-09)
(4.87615e-10 -1.39315e-09 2.07666e-09)
(-1.06912e-10 -1.37065e-09 2.00117e-09)
(-6.85548e-10 -1.34544e-09 2.00881e-09)
(-9.67837e-10 -1.33643e-09 2.01577e-09)
(9.26336e-10 -1.78867e-09 2.2581e-09)
(5.45913e-10 -1.75409e-09 2.23877e-09)
(-1.20803e-10 -1.69751e-09 2.18518e-09)
(-7.70491e-10 -1.688e-09 2.17815e-09)
(-1.10063e-09 -1.68546e-09 2.16435e-09)
(1.1562e-10 1.68407e-10 9.06673e-11)
(0 0 0)
(0 0 0)
(0 0 0)
(-8.43011e-11 1.59138e-10 8.27632e-11)
(3.19675e-10 2.45579e-10 3.34659e-10)
(0 0 0)
(0 0 0)
(0 0 0)
(-2.58595e-10 2.3648e-10 3.09095e-10)
(4.23895e-10 3.36712e-11 6.16662e-10)
(0 0 0)
(0 0 0)
(0 0 0)
(-3.69806e-10 4.29353e-11 5.75114e-10)
(4.32779e-10 -1.98577e-10 8.60256e-10)
(0 0 0)
(0 0 0)
(0 0 0)
(-3.92547e-10 -1.72371e-10 8.07866e-10)
(4.23097e-10 -4.18166e-10 1.0885e-09)
(0 0 0)
(0 0 0)
(0 0 0)
(-4.02826e-10 -3.76246e-10 1.02754e-09)
(4.42785e-10 -6.44431e-10 1.32266e-09)
(0 0 0)
(0 0 0)
(0 0 0)
(-4.48749e-10 -5.87147e-10 1.25402e-09)
(5.37345e-10 -9.40881e-10 1.56955e-09)
(0 0 0)
(0 0 0)
(0 0 0)
(-5.75289e-10 -8.6759e-10 1.49358e-09)
(7.26936e-10 -1.42467e-09 1.7877e-09)
(0 0 0)
(0 0 0)
(0 0 0)
(-8.0041e-10 -1.32996e-09 1.7053e-09)
(8.29991e-10 -1.75083e-09 1.90327e-09)
(4.83968e-10 -1.71086e-09 1.91777e-09)
(-1.10277e-10 -1.63206e-09 1.89814e-09)
(-6.88693e-10 -1.63667e-09 1.87499e-09)
(-9.70299e-10 -1.641e-09 1.82852e-09)
(5.41715e-11 7.3184e-11 2.69834e-11)
(0 0 0)
(0 0 0)
(0 0 0)
(-2.29285e-11 6.414e-11 2.31749e-11)
(1.63426e-10 5.36752e-11 1.54057e-10)
(0 0 0)
(0 0 0)
(0 0 0)
(-9.94454e-11 4.44022e-11 1.39672e-10)
(2.25639e-10 -1.47335e-10 3.65882e-10)
(0 0 0)
(0 0 0)
(0 0 0)
(-1.62944e-10 -1.39533e-10 3.39491e-10)
(2.236e-10 -3.57445e-10 5.84907e-10)
(0 0 0)
(0 0 0)
(0 0 0)
(-1.69876e-10 -3.33705e-10 5.49094e-10)
(2.10222e-10 -5.55853e-10 7.95325e-10)
(0 0 0)
(0 0 0)
(0 0 0)
(-1.72267e-10 -5.16913e-10 7.51671e-10)
(2.28269e-10 -7.48596e-10 9.98066e-10)
(0 0 0)
(0 0 0)
(0 0 0)
(-2.12773e-10 -6.94665e-10 9.47371e-10)
(3.27003e-10 -9.79659e-10 1.18203e-09)
(0 0 0)
(0 0 0)
(0 0 0)
(-3.39931e-10 -9.10368e-10 1.12499e-09)
(5.33468e-10 -1.36436e-09 1.30213e-09)
(0 0 0)
(0 0 0)
(0 0 0)
(-5.78271e-10 -1.27486e-09 1.24042e-09)
(6.53039e-10 -1.6346e-09 1.34392e-09)
(3.73359e-10 -1.58339e-09 1.3691e-09)
(-9.05008e-11 -1.49443e-09 1.38068e-09)
(-5.39933e-10 -1.51256e-09 1.33885e-09)
(-7.59679e-10 -1.53012e-09 1.28952e-09)
(1.97175e-11 2.88651e-11 1.72169e-11)
(0 0 0)
(0 0 0)
(0 0 0)
(1.1745e-11 1.85372e-11 1.46929e-11)
(7.32437e-11 -3.75909e-11 1.09698e-10)
(0 0 0)
(0 0 0)
(0 0 0)
(-6.67866e-12 -5.00139e-11 1.00022e-10)
(1.09756e-10 -2.39072e-10 2.78456e-10)
(0 0 0)
(0 0 0)
(0 0 0)
(-4.01482e-11 -2.35338e-10 2.60108e-10)
(1.0422e-10 -4.4068e-10 4.66671e-10)
(0 0 0)
(0 0 0)
(0 0 0)
(-3.93888e-11 -4.21517e-10 4.40739e-10)
(9.37787e-11 -6.1946e-10 6.50543e-10)
(0 0 0)
(0 0 0)
(0 0 0)
(-4.08336e-11 -5.85365e-10 6.17869e-10)
(1.16604e-10 -7.76497e-10 8.17029e-10)
(0 0 0)
(0 0 0)
(0 0 0)
(-8.25002e-11 -7.27616e-10 7.78253e-10)
(2.2156e-10 -9.54231e-10 9.4589e-10)
(0 0 0)
(0 0 0)
(0 0 0)
(-2.125e-10 -8.90251e-10 9.01847e-10)
(4.32365e-10 -1.27637e-09 1.00284e-09)
(0 0 0)
(0 0 0)
(0 0 0)
(-4.52136e-10 -1.19239e-09 9.55302e-10)
(5.4934e-10 -1.52197e-09 1.00149e-09)
(3.05084e-10 -1.48205e-09 1.01764e-09)
(-7.54746e-11 -1.39814e-09 1.03487e-09)
(-4.41862e-10 -1.41407e-09 9.94774e-10)
(-6.27991e-10 -1.42237e-09 9.59987e-10)
(5.66219e-12 1.18394e-11 1.92064e-11)
(0 0 0)
(0 0 0)
(0 0 0)
(2.60584e-11 3.61712e-13 1.74222e-11)
(3.658e-11 -7.15635e-11 9.99185e-11)
(0 0 0)
(0 0 0)
(0 0 0)
(3.18679e-11 -8.70323e-11 9.31765e-11)
(6.38147e-11 -2.72137e-10 2.35926e-10)
(0 0 0)
(0 0 0)
(0 0 0)
(1.0615e-11 -2.72573e-10 2.23088e-10)
(5.99719e-11 -4.68426e-10 3.87063e-10)
(0 0 0)
(0 0 0)
(0 0 0)
(1.28837e-11 -4.53979e-10 3.68554e-10)
(5.51321e-11 -6.32669e-10 5.34389e-10)
(0 0 0)
(0 0 0)
(0 0 0)
(9.04928e-12 -6.03514e-10 5.10553e-10)
(8.40903e-11 -7.65365e-10 6.61488e-10)
(0 0 0)
(0 0 0)
(0 0 0)
(-3.56776e-11 -7.21487e-10 6.32739e-10)
(1.93257e-10 -9.13748e-10 7.48902e-10)
(0 0 0)
(0 0 0)
(0 0 0)
(-1.66975e-10 -8.5472e-10 7.15973e-10)
(4.02401e-10 -1.20672e-09 7.76193e-10)
(0 0 0)
(0 0 0)
(0 0 0)
(-4.02364e-10 -1.12744e-09 7.40572e-10)
(5.14863e-10 -1.44201e-09 7.60605e-10)
(2.84894e-10 -1.41368e-09 7.62845e-10)
(-6.41855e-11 -1.33813e-09 7.7272e-10)
(-3.98984e-10 -1.34796e-09 7.45802e-10)
(-5.71628e-10 -1.34634e-09 7.29566e-10)
(1.01961e-12 6.51556e-12 1.80655e-11)
(0 0 0)
(0 0 0)
(0 0 0)
(3.08781e-11 -5.74804e-12 1.68484e-11)
(2.5221e-11 -8.02504e-11 8.39977e-11)
(0 0 0)
(0 0 0)
(0 0 0)
(4.44341e-11 -9.79524e-11 7.94397e-11)
(5.15062e-11 -2.76733e-10 1.87155e-10)
(0 0 0)
(0 0 0)
(0 0 0)
(2.60514e-11 -2.80463e-10 1.78475e-10)
(5.13354e-11 -4.67228e-10 2.98891e-10)
(0 0 0)
(0 0 0)
(0 0 0)
(2.6932e-11 -4.56664e-10 2.8625e-10)
(5.18735e-11 -6.21773e-10 4.06397e-10)
(0 0 0)
(0 0 0)
(0 0 0)
(2.01638e-11 -5.96747e-10 3.89892e-10)
(8.57664e-11 -7.41619e-10 4.96048e-10)
(0 0 0)
(0 0 0)
(0 0 0)
(-2.7103e-11 -7.01893e-10 4.75902e-10)
(1.97106e-10 -8.77614e-10 5.53483e-10)
(0 0 0)
(0 0 0)
(0 0 0)
(-1.58286e-10 -8.22585e-10 5.30225e-10)
(4.0318e-10 -1.15863e-09 5.67725e-10)
(0 0 0)
(0 0 0)
(0 0 0)
(-3.88563e-10 -1.08303e-09 5.42468e-10)
(5.12433e-10 -1.38859e-09 5.51889e-10)
(2.87169e-10 -1.36739e-09 5.46637e-10)
(-5.59478e-11 -1.29833e-09 5.49621e-10)
(-3.8465e-10 -1.30334e-09 5.34565e-10)
(-5.53075e-10 -1.29591e-09 5.29875e-10)
(-1.47295e-13 5.32923e-12 1.35033e-11)
(0 0 0)
(0 0 0)
(0 0 0)
(3.2154e-11 -7.42793e-12 1.27476e-11)
(2.30109e-11 -8.01286e-11 5.96663e-11)
(0 0 0)
(0 0 0)
(0 0 0)
(4.73816e-11 -9.92892e-11 5.68463e-11)
(5.08449e-11 -2.71448e-10 1.28705e-10)
(0 0 0)
(0 0 0)
(0 0 0)
(2.86515e-11 -2.77433e-10 1.23333e-10)
(5.40689e-11 -4.5641e-10 2.01715e-10)
(0 0 0)
(0 0 0)
(0 0 0)
(2.76279e-11 -4.486e-10 1.93849e-10)
(5.85343e-11 -6.04932e-10 2.70953e-10)
(0 0 0)
(0 0 0)
(0 0 0)
(1.86138e-11 -5.82889e-10 2.60598e-10)
(9.56415e-11 -7.19066e-10 3.2747e-10)
(0 0 0)
(0 0 0)
(0 0 0)
(-3.01382e-11 -6.82349e-10 3.1473e-10)
(2.07972e-10 -8.50984e-10 3.62397e-10)
(0 0 0)
(0 0 0)
(0 0 0)
(-1.60687e-10 -7.98831e-10 3.47599e-10)
(4.11434e-10 -1.12733e-09 3.70082e-10)
(0 0 0)
(0 0 0)
(0 0 0)
(-3.86913e-10 -1.05434e-09 3.53952e-10)
(5.18357e-10 -1.35443e-09 3.58793e-10)
(2.94178e-10 -1.33707e-09 3.52644e-10)
(-5.03492e-11 -1.2719e-09 3.52537e-10)
(-3.80364e-10 -1.27417e-09 3.44934e-10)
(-5.48015e-10 -1.26383e-09 3.44724e-10)
(-3.24916e-13 5.27762e-12 7.11527e-12)
(0 0 0)
(0 0 0)
(0 0 0)
(3.23905e-11 -7.75095e-12 6.75374e-12)
(2.30632e-11 -7.83067e-11 3.07331e-11)
(0 0 0)
(0 0 0)
(0 0 0)
(4.77291e-11 -9.82843e-11 2.93857e-11)
(5.22794e-11 -2.65649e-10 6.52332e-11)
(0 0 0)
(0 0 0)
(0 0 0)
(2.8278e-11 -2.72929e-10 6.26654e-11)
(5.76523e-11 -4.46737e-10 1.01158e-10)
(0 0 0)
(0 0 0)
(0 0 0)
(2.5945e-11 -4.40542e-10 9.73876e-11)
(6.43838e-11 -5.91976e-10 1.34883e-10)
(0 0 0)
(0 0 0)
(0 0 0)
(1.56288e-11 -5.71709e-10 1.29897e-10)
(1.03224e-10 -7.03904e-10 1.62098e-10)
(0 0 0)
(0 0 0)
(0 0 0)
(-3.38289e-11 -6.68987e-10 1.55935e-10)
(2.15964e-10 -8.34854e-10 1.78658e-10)
(0 0 0)
(0 0 0)
(0 0 0)
(-1.63806e-10 -7.84421e-10 1.71472e-10)
(4.17806e-10 -1.10949e-09 1.82117e-10)
(0 0 0)
(0 0 0)
(0 0 0)
(-3.87552e-10 -1.03805e-09 1.74267e-10)
(5.2326e-10 -1.33519e-09 1.76448e-10)
(2.99196e-10 -1.31968e-09 1.7281e-10)
(-4.71072e-11 -1.25641e-09 1.72224e-10)
(-3.78837e-10 -1.25746e-09 1.69056e-10)
(-5.46547e-10 -1.24582e-09 1.69598e-10)
(9.24512e-12 -5.66621e-13 0)
(6.90192e-12 -1.4813e-11 0)
(3.11952e-13 -2.39766e-11 0)
(-2.61652e-12 -1.89857e-11 0)
(1.74424e-11 -1.41554e-11 0)
(3.46621e-11 -8.59808e-11 0)
(2.391e-11 -1.11472e-10 0)
(3.25413e-12 -1.29433e-10 0)
(-8.96115e-12 -1.18325e-10 0)
(1.24924e-11 -1.01979e-10 0)
(6.04835e-11 -2.66491e-10 0)
(3.65718e-11 -2.83115e-10 0)
(7.62023e-12 -2.96902e-10 0)
(-1.198e-11 -2.85615e-10 0)
(-3.06419e-12 -2.72543e-10 0)
(6.51003e-11 -4.44068e-10 0)
(3.77668e-11 -4.55523e-10 0)
(9.26526e-12 -4.64909e-10 0)
(-1.02101e-11 -4.51857e-10 0)
(-4.70557e-12 -4.38638e-10 0)
(7.1263e-11 -5.92562e-10 0)
(3.93037e-11 -6.12619e-10 0)
(7.08877e-12 -6.24643e-10 0)
(-1.61748e-11 -6.02117e-10 0)
(-1.47547e-11 -5.74953e-10 0)
(1.09722e-10 -7.16842e-10 0)
(6.22348e-11 -7.58545e-10 0)
(8.25145e-13 -7.77519e-10 0)
(-5.13966e-11 -7.40854e-10 0)
(-6.43817e-11 -6.86507e-10 0)
(2.20232e-10 -8.64724e-10 0)
(1.31671e-10 -9.23459e-10 0)
(-9.88992e-12 -9.40497e-10 0)
(-1.41446e-10 -8.98011e-10 0)
(-1.93247e-10 -8.20771e-10 0)
(4.07884e-10 -1.1396e-09 0)
(2.41373e-10 -1.17266e-09 0)
(-2.57623e-11 -1.16067e-09 0)
(-2.80746e-10 -1.13599e-09 0)
(-4.0543e-10 -1.07657e-09 0)
(5.14366e-10 -1.33696e-09 0)
(3.01276e-10 -1.32118e-09 0)
(-4.05721e-11 -1.27216e-09 0)
(-3.68285e-10 -1.26829e-09 0)
(-5.42782e-10 -1.25564e-09 0)
)
;

boundaryField
{
    interface
    {
        type            calculated;
    }
    symmetry
    {
        type            symmetry;
    }
    bottom
    {
        type            calculated;
    }
}


// ************************************************************************* //
