/*--------------------------------*- C++ -*----------------------------------*\
| =========                 |                                                 |
| \\      /  F ield         | OpenFOAM: The Open Source CFD Toolbox           |
|  \\    /   O peration     | Version:  v1912                                 |
|   \\  /    A nd           | Website:  www.openfoam.com                      |
|    \\/     M anipulation  |                                                 |
\*---------------------------------------------------------------------------*/
FoamFile
{
    version     2.0;
    format      ascii;
    class       volScalarField;
    location    "0.61/solid";
    object      sigmaEq;
}
// * * * * * * * * * * * * * * * * * * * * * * * * * * * * * * * * * * * * * //

dimensions      [1 -1 -2 0 0 0 0];


internalField   nonuniform List<scalar> 
256
(
629833
447454
441388
602999
371845
318096
313178
350843
371607
301769
296949
350594
390019
303358
298575
368800
404676
310967
306183
383255
406457
317408
312609
384888
334685
293031
288888
314778
53401.2
330648
327948
56546.2
382057
90052.7
87474.8
354277
284290
88938.9
86611.8
259306
278531
67644.2
65823.7
253645
282168
46614
45400
256937
290505
38238.8
37614.1
264782
301340
41636.1
41066.6
275138
284842
32220.5
33199.4
259161
334700
293491
289357
314779
322502
52133.8
51151.4
295818
273124
52319.5
50283.4
248481
270815
37473.2
35523.8
245782
274342
22645.1
21444.6
248746
283657
20366.3
20194.7
257400
298884
25345.3
24691.2
271971
300965
40480.9
40083.7
274682
406822
318376
313612
385325
289279
47442.7
47049.8
263931
253555
45270.2
44164.5
230229
252676
33438.2
32515.7
228647
256428
24367.2
24465.4
231613
266319
22802.2
23605
240683
282883
22842
22871.2
256418
289483
34544.7
34370.7
263546
407016
313079
308362
385773
270164
40963.3
40552.9
245623
238239
40407.4
39579.8
215694
238658
31240.9
30627.6
215305
243257
23654.3
23904.6
218989
254094
21539.5
22284.1
228913
271585
20025.6
19815.6
245489
279998
34036.6
33748.4
254392
398210
306374
301706
377250
259326
35546.6
34976.8
235244
228538
35834.8
34942.1
206374
229871
27546.3
26812.9
206863
235358
19357.3
19389.6
211381
247061
16428.4
16882.9
222128
265254
15950.4
15059.2
239377
274795
36548.8
36060.6
249427
391703
301755
297110
370928
253383
31596.8
30854.5
229552
222982
32079.7
31030.8
200997
224845
23600.3
22615
201999
230958
14027.8
13717.3
207124
243240
10344.4
10452
218438
261896
12749.7
11035.2
236145
272179
38934.4
38333.7
246967
388055
298963
294331
367393
250727
29419.8
28562.7
227005
220457
29894.7
28728.5
198544
222560
21019.2
19823.5
199780
228981
9898.65
9189.27
205208
241542
4910.37
4514.89
216797
260421
11062.8
8704.75
234728
271078
40178.5
39535.6
245944
386483
297656
293030
365876
)
;

boundaryField
{
    interface
    {
        type            calculated;
        value           nonuniform List<scalar> 
192
(
809159
527865
531455
557129
579615
590453
531036
291314
619507
491702
489716
503755
523684
546872
541819
531224
544425
471937
474246
487627
508369
536138
547091
591340
494990
439444
444230
457865
479127
508462
524401
583108
465271
414756
421064
435483
457547
487842
505875
567925
447987
399184
406350
421527
444316
475243
494347
557080
438410
390302
397918
413611
436883
468184
487864
550785
434120
386288
394100
410045
433548
465019
484956
547965
824112
543659
547624
573980
597014
608035
549623
317605
705372
542654
530382
542306
561165
580172
568098
545861
695438
533923
521492
533266
552011
570896
559191
539551
792017
518677
522212
548058
570761
581586
525028
311102
767036
489824
492913
517987
539896
550187
491352
259417
572917
448003
445545
458694
477635
499871
494982
491397
499337
428990
430494
442814
462371
488893
499783
550814
451659
398110
401860
414264
434177
462040
477650
542986
423103
374499
379677
392754
413363
442053
459606
528155
406527
359546
365540
379316
400582
429833
448386
517530
397353
351002
357425
371690
393405
422992
442090
511369
393246
347139
353748
368253
390186
419926
439269
508613
318164
550059
609091
600773
585369
574222
567699
564767
546248
568967
582004
565112
549433
538649
532072
528975
539884
559996
572644
555847
540231
529477
522914
519825
311375
525280
582499
574392
559232
548241
541811
538924
)
;
    }
    symmetry
    {
        type            symmetry;
    }
    bottom
    {
        type            calculated;
        value           nonuniform List<scalar> 
32
(
891840
486958
387179
345642
324071
312040
305458
302519
570294
113980
53636.9
49580.5
44399.3
39710
36267.1
34396.8
563243
110415
51016.9
47426.6
42052.6
37068.2
33340.1
31283
859444
456373
357839
317770
297194
285780
279549
276769
)
;
    }
}


// ************************************************************************* //
