/*--------------------------------*- C++ -*----------------------------------*\
| =========                 |                                                 |
| \\      /  F ield         | OpenFOAM: The Open Source CFD Toolbox           |
|  \\    /   O peration     | Version:  v1912                                 |
|   \\  /    A nd           | Website:  www.openfoam.com                      |
|    \\/     M anipulation  |                                                 |
\*---------------------------------------------------------------------------*/
FoamFile
{
    version     2.0;
    format      ascii;
    class       volScalarField;
    location    "0.61/solid";
    object      T;
}
// * * * * * * * * * * * * * * * * * * * * * * * * * * * * * * * * * * * * * //

dimensions      [0 0 0 1 0 0 0];


internalField   nonuniform List<scalar> 
256
(
291.529
292.172
292.18
291.567
291.17
291.951
291.96
291.215
291.116
291.919
291.928
291.163
291.078
291.898
291.907
291.125
291.019
291.865
291.874
291.068
290.913
291.797
291.807
290.962
290.633
291.572
291.582
290.684
289.551
290.504
290.522
289.622
292.247
292.819
292.82
292.268
292.044
292.755
292.757
292.068
292.014
292.746
292.748
292.038
291.993
292.742
292.744
292.018
291.959
292.735
292.736
291.986
291.893
292.711
292.713
291.92
291.672
292.559
292.561
291.701
290.632
291.571
291.582
290.684
292.396
292.91
292.91
292.415
292.235
292.877
292.877
292.256
292.21
292.872
292.873
292.232
292.191
292.87
292.871
292.214
292.161
292.865
292.866
292.185
292.1
292.848
292.848
292.125
291.892
292.711
292.713
291.92
290.912
291.797
291.807
290.962
292.443
292.922
292.922
292.461
292.293
292.893
292.893
292.313
292.269
292.889
292.889
292.29
292.251
292.887
292.887
292.273
292.221
292.882
292.883
292.245
292.161
292.865
292.866
292.185
291.959
292.735
292.736
291.986
291.017
291.864
291.873
291.067
292.466
292.925
292.925
292.484
292.321
292.897
292.897
292.341
292.297
292.893
292.893
292.318
292.279
292.891
292.891
292.301
292.25
292.887
292.887
292.273
292.19
292.87
292.87
292.214
291.991
292.742
292.744
292.018
291.074
291.896
291.906
291.124
292.479
292.926
292.926
292.497
292.337
292.899
292.899
292.356
292.314
292.895
292.895
292.334
292.296
292.893
292.893
292.317
292.266
292.888
292.889
292.288
292.206
292.872
292.872
292.23
292.009
292.746
292.747
292.036
291.108
291.915
291.924
291.158
292.486
292.927
292.927
292.504
292.346
292.9
292.9
292.365
292.323
292.896
292.896
292.343
292.305
292.894
292.894
292.326
292.275
292.889
292.89
292.297
292.216
292.873
292.874
292.239
292.02
292.748
292.749
292.046
291.127
291.925
291.935
291.178
292.49
292.927
292.928
292.507
292.35
292.9
292.9
292.369
292.327
292.896
292.897
292.347
292.309
292.894
292.894
292.329
292.279
292.89
292.891
292.301
292.22
292.873
292.874
292.243
292.025
292.749
292.75
292.051
291.136
291.93
291.94
291.187
)
;

boundaryField
{
    interface
    {
        type            fixedValue;
        value           nonuniform List<scalar> 
192
(
290.146
289.905
289.83
289.753
289.638
289.448
289.069
288.076
290.935
290.787
290.731
290.668
290.574
290.411
290.063
289.067
291.228
291.107
291.057
290.999
290.909
290.751
290.409
289.444
291.369
291.257
291.209
291.152
291.063
290.906
290.569
289.631
291.449
291.341
291.294
291.237
291.148
290.992
290.66
289.74
291.496
291.39
291.344
291.287
291.199
291.043
290.714
289.808
291.524
291.419
291.372
291.316
291.227
291.073
290.745
289.847
291.536
291.432
291.385
291.329
291.24
291.086
290.759
289.866
290.083
289.845
289.769
289.69
289.575
289.385
289.004
288.011
290.744
290.585
290.526
290.463
290.369
290.206
289.852
288.839
290.775
290.619
290.561
290.499
290.406
290.243
289.891
288.884
290.195
289.965
289.893
289.818
289.705
289.517
289.14
288.165
290.303
290.073
290.003
289.929
289.817
289.629
289.254
288.282
291.074
290.932
290.879
290.82
290.73
290.571
290.226
289.253
291.361
291.247
291.2
291.145
291.059
290.906
290.57
289.629
291.499
291.392
291.348
291.295
291.21
291.058
290.729
289.815
291.577
291.474
291.43
291.377
291.293
291.143
290.818
289.925
291.623
291.522
291.478
291.426
291.342
291.193
290.871
289.992
291.649
291.549
291.506
291.453
291.37
291.221
290.902
290.032
291.661
291.561
291.518
291.466
291.383
291.234
290.916
290.05
288.01
289.001
289.38
289.567
289.677
289.745
289.785
289.804
288.837
289.85
290.202
290.363
290.453
290.508
290.54
290.554
288.883
289.889
290.24
290.401
290.491
290.546
290.578
290.593
288.164
289.138
289.515
289.702
289.812
289.88
289.919
289.938
)
;
    }
    symmetry
    {
        type            symmetry;
    }
    bottom
    {
        type            fixedValue;
        value           uniform 293;
    }
}


// ************************************************************************* //
