/*--------------------------------*- C++ -*----------------------------------*\
| =========                 |                                                 |
| \\      /  F ield         | OpenFOAM: The Open Source CFD Toolbox           |
|  \\    /   O peration     | Version:  v1912                                 |
|   \\  /    A nd           | Website:  www.openfoam.com                      |
|    \\/     M anipulation  |                                                 |
\*---------------------------------------------------------------------------*/
FoamFile
{
    version     2.0;
    format      ascii;
    class       volVectorField;
    location    "0.61/solid";
    object      U;
}
// * * * * * * * * * * * * * * * * * * * * * * * * * * * * * * * * * * * * * //

dimensions      [0 1 -1 0 0 0 0];


internalField   nonuniform List<vector> 
256
(
(2.71511e-08 2.74227e-08 3.18281e-08)
(6.11622e-09 1.65168e-08 2.93725e-08)
(-7.33657e-09 1.59956e-08 2.87678e-08)
(-2.66221e-08 2.55003e-08 2.99672e-08)
(4.88273e-08 2.16335e-08 7.20396e-08)
(1.24208e-08 1.26138e-08 6.83853e-08)
(-1.49695e-08 1.23618e-08 6.71904e-08)
(-4.89621e-08 2.10449e-08 6.83602e-08)
(5.28453e-08 1.19633e-09 9.98878e-08)
(1.33789e-08 -2.74692e-09 9.56033e-08)
(-1.74483e-08 -2.52972e-09 9.40796e-08)
(-5.44678e-08 2.14113e-09 9.52011e-08)
(5.15178e-08 -2.12446e-08 1.2348e-07)
(1.19849e-08 -2.32963e-08 1.18225e-07)
(-1.81473e-08 -2.26108e-08 1.16468e-07)
(-5.52074e-08 -1.89425e-08 1.18078e-07)
(5.12986e-08 -4.53929e-08 1.47018e-07)
(1.07984e-08 -4.84302e-08 1.405e-07)
(-1.96699e-08 -4.73057e-08 1.38541e-07)
(-5.76517e-08 -4.18379e-08 1.41007e-07)
(5.67524e-08 -7.462e-08 1.73117e-07)
(1.17217e-08 -7.92464e-08 1.65392e-07)
(-2.39515e-08 -7.76909e-08 1.63239e-07)
(-6.64076e-08 -6.98317e-08 1.66525e-07)
(7.15384e-08 -1.18157e-07 2.0251e-07)
(1.57535e-08 -1.20665e-07 1.94772e-07)
(-3.21083e-08 -1.18626e-07 1.92413e-07)
(-8.51475e-08 -1.1197e-07 1.9532e-07)
(9.008e-08 -1.82938e-07 2.27348e-07)
(1.99868e-08 -1.77054e-07 2.21802e-07)
(-4.14371e-08 -1.74231e-07 2.19245e-07)
(-1.08305e-07 -1.74367e-07 2.1962e-07)
(1.63011e-08 9.31616e-09 1.24343e-08)
(3.45282e-09 7.31258e-10 1.42868e-08)
(-3.9405e-09 5.43519e-10 1.40329e-08)
(-1.53029e-08 8.16416e-09 1.16788e-08)
(3.02158e-08 -1.21791e-09 3.95236e-08)
(7.42711e-09 -8.38636e-09 4.3209e-08)
(-8.27625e-09 -8.37817e-09 4.25142e-08)
(-2.90758e-08 -1.28196e-09 3.7495e-08)
(3.2421e-08 -1.93819e-08 6.44697e-08)
(7.90568e-09 -2.25124e-08 6.86439e-08)
(-9.60008e-09 -2.21493e-08 6.76503e-08)
(-3.21525e-08 -1.81914e-08 6.15585e-08)
(3.06669e-08 -3.98027e-08 8.69487e-08)
(6.59148e-09 -4.15345e-08 9.0943e-08)
(-9.85933e-09 -4.07687e-08 8.97351e-08)
(-3.19789e-08 -3.74008e-08 8.33846e-08)
(3.00367e-08 -6.22678e-08 1.08761e-07)
(5.4943e-09 -6.52237e-08 1.12311e-07)
(-1.10416e-08 -6.40525e-08 1.1092e-07)
(-3.35977e-08 -5.86848e-08 1.04633e-07)
(3.51312e-08 -8.80841e-08 1.30976e-07)
(6.48607e-09 -9.28813e-08 1.34058e-07)
(-1.50147e-08 -9.13054e-08 1.32491e-07)
(-4.16172e-08 -8.33255e-08 1.26313e-07)
(5.04678e-08 -1.22997e-07 1.51589e-07)
(1.07588e-08 -1.25457e-07 1.54452e-07)
(-2.30703e-08 -1.23451e-07 1.52727e-07)
(-6.05438e-08 -1.16961e-07 1.46441e-07)
(7.11526e-08 -1.73857e-07 1.62566e-07)
(1.53612e-08 -1.65758e-07 1.65453e-07)
(-3.24655e-08 -1.63086e-07 1.63656e-07)
(-8.54827e-08 -1.65702e-07 1.57173e-07)
(7.99625e-09 2.49492e-09 6.14059e-09)
(1.05514e-09 -3.68076e-09 8.90637e-09)
(-1.22614e-09 -3.82518e-09 8.73312e-09)
(-6.75547e-09 1.35522e-09 5.64899e-09)
(1.5337e-08 -1.26316e-08 2.50819e-08)
(2.68976e-09 -1.78871e-08 3.03187e-08)
(-2.62555e-09 -1.78467e-08 2.98355e-08)
(-1.34125e-08 -1.27602e-08 2.37156e-08)
(1.60612e-08 -3.15861e-08 4.61641e-08)
(2.6373e-09 -3.3978e-08 5.21092e-08)
(-2.87586e-09 -3.36205e-08 5.13845e-08)
(-1.44937e-08 -3.05483e-08 4.40916e-08)
(1.42365e-08 -5.08464e-08 6.66603e-08)
(1.41442e-09 -5.24726e-08 7.26123e-08)
(-2.75401e-09 -5.17467e-08 7.1697e-08)
(-1.37954e-08 -4.8667e-08 6.401e-08)
(1.36526e-08 -7.04942e-08 8.606e-08)
(4.49278e-10 -7.35889e-08 9.18046e-08)
(-3.66303e-09 -7.24828e-08 9.07235e-08)
(-1.50621e-08 -6.71832e-08 8.28999e-08)
(1.88452e-08 -9.11951e-08 1.03634e-07)
(1.54704e-09 -9.62255e-08 1.09132e-07)
(-7.39297e-09 -9.47396e-08 1.079e-07)
(-2.28223e-08 -8.67602e-08 1.00008e-07)
(3.45613e-08 -1.18165e-07 1.16425e-07)
(5.99666e-09 -1.20817e-07 1.21677e-07)
(-1.53201e-08 -1.18934e-07 1.2033e-07)
(-4.17978e-08 -1.12525e-07 1.12425e-07)
(5.57942e-08 -1.60237e-07 1.19032e-07)
(1.08117e-08 -1.5211e-07 1.24086e-07)
(-2.46458e-08 -1.49594e-07 1.22719e-07)
(-6.69701e-08 -1.52537e-07 1.14916e-07)
(4.3292e-09 -1.46724e-11 4.94851e-09)
(1.1503e-11 -4.64545e-09 6.82614e-09)
(-3.72953e-11 -4.80949e-09 6.69649e-09)
(-2.93932e-09 -1.26239e-09 4.58958e-09)
(8.60076e-09 -1.70751e-08 1.95087e-08)
(5.20189e-10 -2.11225e-08 2.30218e-08)
(4.34824e-11 -2.11376e-08 2.26722e-08)
(-6.18104e-09 -1.74398e-08 1.85364e-08)
(8.7624e-09 -3.6852e-08 3.64601e-08)
(2.75322e-10 -3.88323e-08 4.03956e-08)
(3.78297e-10 -3.8552e-08 3.98652e-08)
(-6.31904e-09 -3.61108e-08 3.49616e-08)
(7.26868e-09 -5.53765e-08 5.35888e-08)
(-7.34963e-10 -5.7042e-08 5.74576e-08)
(6.73105e-10 -5.64098e-08 5.67729e-08)
(-5.57537e-09 -5.35303e-08 5.1624e-08)
(7.16205e-09 -7.25844e-08 6.94663e-08)
(-1.43712e-09 -7.58673e-08 7.31253e-08)
(-1.46936e-10 -7.48691e-08 7.23023e-08)
(-6.9698e-09 -6.96339e-08 6.70757e-08)
(1.27409e-08 -8.94071e-08 8.25219e-08)
(-1.51756e-10 -9.46555e-08 8.597e-08)
(-3.75411e-09 -9.32903e-08 8.50254e-08)
(-1.47989e-08 -8.53568e-08 7.97502e-08)
(2.85015e-08 -1.11873e-07 9.02574e-08)
(4.34608e-09 -1.14931e-07 9.35486e-08)
(-1.14569e-08 -1.13178e-07 9.25191e-08)
(-3.35305e-08 -1.06631e-07 8.71994e-08)
(4.93367e-08 -1.50154e-07 9.00159e-08)
(9.15158e-09 -1.43119e-07 9.33371e-08)
(-2.05234e-08 -1.40728e-07 9.23013e-08)
(-5.80387e-08 -1.4283e-07 8.68873e-08)
(3.15819e-09 -9.11364e-10 4.30517e-09)
(-2.162e-10 -4.81112e-09 5.25322e-09)
(2.66767e-10 -4.99666e-09 5.15953e-09)
(-1.67446e-09 -2.24849e-09 4.04934e-09)
(6.55906e-09 -1.83e-08 1.5561e-08)
(4.24788e-11 -2.18174e-08 1.72732e-08)
(8.14543e-10 -2.18962e-08 1.7025e-08)
(-3.82748e-09 -1.88852e-08 1.48788e-08)
(6.78165e-09 -3.81064e-08 2.84536e-08)
(-1.29725e-10 -3.99808e-08 3.02889e-08)
(1.34662e-09 -3.97871e-08 2.99117e-08)
(-3.76395e-09 -3.76528e-08 2.73981e-08)
(5.75182e-09 -5.59486e-08 4.1562e-08)
(-8.87326e-10 -5.77473e-08 4.32588e-08)
(1.67854e-09 -5.7214e-08 4.27663e-08)
(-3.19998e-09 -5.44229e-08 4.01593e-08)
(6.17625e-09 -7.15615e-08 5.34759e-08)
(-1.31636e-09 -7.50326e-08 5.49673e-08)
(8.67174e-10 -7.41406e-08 5.43687e-08)
(-4.84514e-09 -6.89478e-08 5.17463e-08)
(1.21011e-08 -8.62714e-08 6.26584e-08)
(1.4395e-10 -9.16933e-08 6.39829e-08)
(-2.65681e-09 -9.04382e-08 6.32916e-08)
(-1.27585e-08 -8.2562e-08 6.0636e-08)
(2.77313e-08 -1.06803e-07 6.74177e-08)
(4.62872e-09 -1.10213e-07 6.86751e-08)
(-1.01164e-08 -1.08568e-07 6.79211e-08)
(-3.11209e-08 -1.01889e-07 6.51796e-08)
(4.80341e-08 -1.43524e-07 6.66426e-08)
(9.36774e-09 -1.37502e-07 6.80272e-08)
(-1.89091e-08 -1.35209e-07 6.72706e-08)
(-5.48796e-08 -1.36494e-07 6.43541e-08)
(2.88235e-09 -1.1919e-09 3.36209e-09)
(-1.78281e-10 -4.79521e-09 3.77697e-09)
(2.71082e-10 -4.9962e-09 3.71408e-09)
(-1.34105e-09 -2.58988e-09 3.19182e-09)
(6.2384e-09 -1.82738e-08 1.14643e-08)
(1.54258e-10 -2.1632e-08 1.21556e-08)
(8.78322e-10 -2.17597e-08 1.19901e-08)
(-3.31367e-09 -1.90203e-08 1.10131e-08)
(6.72936e-09 -3.76454e-08 2.04802e-08)
(1.38381e-10 -3.95682e-08 2.11463e-08)
(1.43135e-09 -3.94442e-08 2.08945e-08)
(-3.34617e-09 -3.74134e-08 1.97809e-08)
(6.10684e-09 -5.48553e-08 2.95619e-08)
(-4.04575e-10 -5.68061e-08 3.00854e-08)
(1.75068e-09 -5.63531e-08 2.97548e-08)
(-2.99116e-09 -5.35817e-08 2.86259e-08)
(6.93326e-09 -6.95733e-08 3.76765e-08)
(-6.25182e-10 -7.31964e-08 3.80403e-08)
(9.37483e-10 -7.23894e-08 3.76358e-08)
(-4.83278e-09 -6.72237e-08 3.65129e-08)
(1.30795e-08 -8.33666e-08 4.37029e-08)
(9.58989e-10 -8.89019e-08 4.39569e-08)
(-2.51393e-09 -8.7732e-08 4.34875e-08)
(-1.27697e-08 -7.99196e-08 4.23337e-08)
(2.85582e-08 -1.03224e-07 4.6617e-08)
(5.42289e-09 -1.06845e-07 4.68543e-08)
(-9.7742e-09 -1.0528e-07 4.63412e-08)
(-3.07981e-08 -9.85561e-08 4.50958e-08)
(4.8444e-08 -1.39218e-07 4.59603e-08)
(1.0107e-08 -1.33835e-07 4.63138e-08)
(-1.83531e-08 -1.31612e-07 4.5799e-08)
(-5.39747e-08 -1.32404e-07 4.44035e-08)
(2.84049e-09 -1.24447e-09 2.12948e-09)
(-1.12886e-10 -4.73409e-09 2.29483e-09)
(2.2805e-10 -4.94485e-09 2.25876e-09)
(-1.26617e-09 -2.68005e-09 2.03229e-09)
(6.31108e-09 -1.79196e-08 7.02682e-09)
(3.2782e-10 -2.12568e-08 7.2706e-09)
(8.04158e-10 -2.14159e-08 7.17586e-09)
(-3.27418e-09 -1.8768e-08 6.76987e-09)
(7.03515e-09 -3.68115e-08 1.2349e-08)
(4.4032e-10 -3.88134e-08 1.25403e-08)
(1.33574e-09 -3.87356e-08 1.23961e-08)
(-3.43568e-09 -3.67243e-08 1.19503e-08)
(6.68748e-09 -5.35449e-08 1.7647e-08)
(4.1115e-11 -5.56138e-08 1.774e-08)
(1.63786e-09 -5.52149e-08 1.755e-08)
(-3.23129e-09 -5.24394e-08 1.71112e-08)
(7.76082e-09 -6.78094e-08 2.2323e-08)
(-4.89398e-11 -7.1533e-08 2.23195e-08)
(8.28063e-10 -7.07833e-08 2.2086e-08)
(-5.18669e-09 -6.56364e-08 2.16536e-08)
(1.40279e-08 -8.12703e-08 2.57313e-08)
(1.61006e-09 -8.68676e-08 2.56688e-08)
(-2.56729e-09 -8.57545e-08 2.53971e-08)
(-1.3113e-08 -7.79981e-08 2.49405e-08)
(2.93971e-08 -1.00936e-07 2.73306e-08)
(6.0613e-09 -1.0466e-07 2.72692e-08)
(-9.69407e-09 -1.03148e-07 2.69716e-08)
(-3.09092e-08 -9.64315e-08 2.64493e-08)
(4.90136e-08 -1.36571e-07 2.69258e-08)
(1.07116e-08 -1.31519e-07 2.69363e-08)
(-1.81321e-08 -1.29343e-07 2.66377e-08)
(-5.37058e-08 -1.29898e-07 2.60229e-08)
(2.83892e-09 -1.23762e-09 7.27852e-10)
(-7.81539e-11 -4.68758e-09 7.71826e-10)
(2.02935e-10 -4.90308e-09 7.60086e-10)
(-1.24954e-09 -2.69119e-09 6.96287e-10)
(6.38211e-09 -1.76596e-08 2.36658e-09)
(4.21131e-10 -2.10042e-08 2.42504e-09)
(7.55741e-10 -2.11785e-08 2.39421e-09)
(-3.29359e-09 -1.8557e-08 2.28317e-09)
(7.22637e-09 -3.62657e-08 4.12506e-09)
(5.99101e-10 -3.83167e-08 4.16114e-09)
(1.27212e-09 -3.82616e-08 4.11417e-09)
(-3.52627e-09 -3.6249e-08 3.99555e-09)
(7.01176e-09 -5.27482e-08 5.86284e-09)
(2.69511e-10 -5.48787e-08 5.86467e-09)
(1.56537e-09 -5.45067e-08 5.80271e-09)
(-3.39527e-09 -5.17257e-08 5.68849e-09)
(8.19934e-09 -6.68241e-08 7.38685e-09)
(2.40863e-10 -7.05965e-08 7.35688e-09)
(7.59764e-10 -6.98753e-08 7.28062e-09)
(-5.39977e-09 -6.47391e-08 7.16851e-09)
(1.45189e-08 -8.01869e-08 8.48935e-09)
(1.9348e-09 -8.58104e-08 8.44108e-09)
(-2.60536e-09 -8.47256e-08 8.35216e-09)
(-1.33133e-08 -7.70016e-08 8.23081e-09)
(2.98335e-08 -9.98121e-08 9.00123e-09)
(6.38102e-09 -1.03574e-07 8.95497e-09)
(-9.66641e-09 -1.02089e-07 8.85749e-09)
(-3.09933e-08 -9.53885e-08 8.71267e-09)
(4.93192e-08 -1.35296e-07 8.86597e-09)
(1.10154e-08 -1.3038e-07 8.84346e-09)
(-1.80349e-08 -1.28227e-07 8.74563e-09)
(-5.36038e-08 -1.28693e-07 8.57023e-09)
)
;

boundaryField
{
    interface
    {
        type            calculated;
        value           nonuniform List<vector> 
192
(
(3.06036e-08 4.64173e-08 2.86213e-08)
(5.20268e-08 2.80569e-08 6.64455e-08)
(5.62431e-08 1.86884e-09 9.37943e-08)
(5.52934e-08 -2.16314e-08 1.17406e-07)
(5.51107e-08 -4.40843e-08 1.41017e-07)
(5.98704e-08 -6.95601e-08 1.67198e-07)
(7.38866e-08 -1.09825e-07 1.96777e-07)
(9.53064e-08 -1.77738e-07 2.21963e-07)
(1.56443e-08 2.09454e-08 7.64567e-09)
(2.95952e-08 2.81197e-09 3.11512e-08)
(3.16928e-08 -1.92692e-08 5.52738e-08)
(2.98824e-08 -4.03988e-08 7.76285e-08)
(2.89525e-08 -6.11518e-08 9.93492e-08)
(3.31806e-08 -8.29764e-08 1.21499e-07)
(4.80006e-08 -1.13991e-07 1.42345e-07)
(7.35807e-08 -1.68311e-07 1.53995e-07)
(6.0243e-09 8.32822e-09 3.1477e-09)
(1.41067e-08 -1.06155e-08 1.96783e-08)
(1.4861e-08 -3.18613e-08 4.02495e-08)
(1.30037e-08 -5.14487e-08 6.08108e-08)
(1.225e-08 -6.93421e-08 8.03414e-08)
(1.69245e-08 -8.5968e-08 9.80368e-08)
(3.26954e-08 -1.08928e-07 1.10933e-07)
(5.91104e-08 -1.54513e-07 1.13578e-07)
(1.86269e-09 3.21781e-09 3.73907e-09)
(7.30378e-09 -1.59669e-08 1.73143e-08)
(7.63073e-09 -3.71852e-08 3.41403e-08)
(6.19253e-09 -5.57768e-08 5.14678e-08)
(6.06524e-09 -7.12165e-08 6.75973e-08)
(1.14017e-08 -8.40723e-08 8.08359e-08)
(2.76025e-08 -1.02724e-07 8.85499e-08)
(5.35378e-08 -1.44382e-07 8.80759e-08)
(4.02181e-10 1.51794e-09 3.94351e-09)
(5.06333e-09 -1.73942e-08 1.49705e-08)
(5.52805e-09 -3.83084e-08 2.79454e-08)
(4.63744e-09 -5.61001e-08 4.12716e-08)
(5.15761e-09 -6.99743e-08 5.34188e-08)
(1.10115e-08 -8.08828e-08 6.27431e-08)
(2.72869e-08 -9.78199e-08 6.74319e-08)
(5.25331e-08 -1.3776e-07 6.64195e-08)
(5.66453e-12 1.08828e-09 3.2827e-09)
(4.61722e-09 -1.73122e-08 1.14024e-08)
(5.39388e-09 -3.76784e-08 2.05436e-08)
(4.97478e-09 -5.48044e-08 2.97959e-08)
(5.97957e-09 -6.78303e-08 3.80727e-08)
(1.21579e-08 -7.79604e-08 4.41846e-08)
(2.83859e-08 -9.43825e-08 4.70335e-08)
(5.30662e-08 -1.33487e-07 4.62052e-08)
(-6.45825e-11 1.04341e-09 2.11864e-09)
(4.64607e-09 -1.6871e-08 7.06279e-09)
(5.68078e-09 -3.67176e-08 1.24733e-08)
(5.57815e-09 -5.33637e-08 1.78733e-08)
(6.88124e-09 -6.59744e-08 2.26395e-08)
(1.32379e-08 -7.58613e-08 2.60912e-08)
(2.94071e-08 -9.21896e-08 2.76495e-08)
(5.37145e-08 -1.30874e-07 2.71446e-08)
(-6.53839e-11 1.06763e-09 7.27467e-10)
(4.70918e-09 -1.65628e-08 2.38435e-09)
(5.87572e-09 -3.61084e-08 4.17288e-09)
(5.92626e-09 -5.25051e-08 5.94392e-09)
(7.36785e-09 -6.49475e-08 7.49649e-09)
(1.38026e-08 -7.47784e-08 8.61212e-09)
(2.99379e-08 -9.11121e-08 9.11033e-09)
(5.4063e-08 -1.29621e-07 8.94237e-09)
(2.81402e-08 5.33896e-08 3.16181e-08)
(5.07103e-08 3.86484e-08 7.10834e-08)
(5.48205e-08 1.40565e-08 9.91196e-08)
(5.32409e-08 -9.46204e-09 1.23205e-07)
(5.26692e-08 -3.29835e-08 1.46821e-07)
(5.77805e-08 -6.07467e-08 1.72028e-07)
(7.24706e-08 -1.04599e-07 2.00086e-07)
(9.13857e-08 -1.76173e-07 2.27005e-07)
(5.35081e-09 4.09562e-08 2.65216e-08)
(1.12079e-08 2.91715e-08 6.40459e-08)
(1.19264e-08 9.71323e-09 9.06258e-08)
(1.02314e-08 -1.20721e-08 1.13011e-07)
(8.67892e-09 -3.66385e-08 1.34725e-07)
(9.2519e-09 -6.56782e-08 1.58137e-07)
(1.32289e-08 -1.06563e-07 1.86069e-07)
(1.79609e-08 -1.69926e-07 2.17503e-07)
(-7.1883e-09 3.99852e-08 2.50619e-08)
(-1.49764e-08 2.86899e-08 6.21506e-08)
(-1.75495e-08 9.78974e-09 8.8387e-08)
(-1.81847e-08 -1.14952e-08 1.10502e-07)
(-1.95436e-08 -3.56126e-08 1.31983e-07)
(-2.36685e-08 -6.42228e-08 1.55174e-07)
(-3.19716e-08 -1.04625e-07 1.82871e-07)
(-4.19828e-08 -1.67144e-07 2.14024e-07)
(-2.81098e-08 5.00821e-08 2.7144e-08)
(-5.1888e-08 3.73535e-08 6.50857e-08)
(-5.78146e-08 1.45707e-08 9.20258e-08)
(-5.85434e-08 -7.49091e-09 1.15288e-07)
(-6.084e-08 -2.97259e-08 1.38211e-07)
(-6.9445e-08 -5.62533e-08 1.62769e-07)
(-8.82799e-08 -9.8696e-08 1.90178e-07)
(-1.11985e-07 -1.67711e-07 2.16451e-07)
(-2.43108e-08 4.43962e-08 2.63933e-08)
(-4.63951e-08 2.80064e-08 6.19252e-08)
(-5.19782e-08 3.70266e-09 8.79483e-08)
(-5.29386e-08 -1.81463e-08 1.10602e-07)
(-5.52595e-08 -3.90377e-08 1.33399e-07)
(-6.31378e-08 -6.29575e-08 1.58809e-07)
(-8.07853e-08 -1.01495e-07 1.87602e-07)
(-1.06085e-07 -1.6667e-07 2.12074e-07)
(-9.40962e-09 1.92588e-08 6.71201e-09)
(-2.33225e-08 2.93052e-09 2.86074e-08)
(-2.62266e-08 -1.74655e-08 5.15647e-08)
(-2.58752e-08 -3.70393e-08 7.30313e-08)
(-2.70569e-08 -5.6275e-08 9.39856e-08)
(-3.40452e-08 -7.65887e-08 1.15417e-07)
(-5.21473e-08 -1.05995e-07 1.35603e-07)
(-8.11464e-08 -1.57824e-07 1.46839e-07)
(2.38202e-10 6.3972e-09 2.55794e-09)
(-7.28427e-09 -1.08256e-08 1.79916e-08)
(-8.34405e-09 -3.04525e-08 3.76329e-08)
(-7.50458e-09 -4.85247e-08 5.74088e-08)
(-8.47018e-09 -6.49262e-08 7.62426e-08)
(-1.55367e-08 -8.0076e-08 9.33034e-08)
(-3.42431e-08 -1.01488e-07 1.05671e-07)
(-6.37715e-08 -1.44636e-07 1.08055e-07)
(4.45981e-09 1.01769e-09 3.31921e-09)
(-8.5202e-11 -1.65948e-08 1.61399e-08)
(-3.45757e-10 -3.62621e-08 3.22789e-08)
(4.38868e-10 -5.33675e-08 4.89749e-08)
(-7.97543e-10 -6.73278e-08 6.45212e-08)
(-8.19568e-09 -7.87163e-08 7.72341e-08)
(-2.70244e-08 -9.58203e-08 8.453e-08)
(-5.58156e-08 -1.3501e-07 8.38645e-08)
(5.96357e-09 -8.73006e-10 3.64968e-09)
(2.409e-09 -1.83628e-08 1.41618e-08)
(2.26798e-09 -3.78096e-08 2.66546e-08)
(2.79239e-09 -5.41524e-08 3.95131e-08)
(1.186e-09 -6.65579e-08 5.12118e-08)
(-6.46379e-09 -7.59927e-08 6.01285e-08)
(-2.51061e-08 -9.13587e-08 6.44964e-08)
(-5.29995e-08 -1.28788e-07 6.3338e-08)
(6.38766e-09 -1.42621e-09 3.08968e-09)
(3.0134e-09 -1.8519e-08 1.08747e-08)
(2.73019e-09 -3.74939e-08 1.96987e-08)
(2.98225e-09 -5.32098e-08 2.86336e-08)
(1.1049e-09 -6.47788e-08 3.65982e-08)
(-6.66829e-09 -7.34279e-08 4.24223e-08)
(-2.50762e-08 -8.82545e-08 4.50428e-08)
(-5.22433e-08 -1.24809e-07 4.41099e-08)
(6.47394e-09 -1.54497e-09 2.00938e-09)
(3.07763e-09 -1.82255e-08 6.76478e-09)
(2.63937e-09 -3.67349e-08 1.19952e-08)
(2.69934e-09 -5.20014e-08 1.72122e-08)
(6.59036e-10 -6.31657e-08 2.17953e-08)
(-7.15092e-09 -7.15671e-08 2.50763e-08)
(-2.53795e-08 -8.62829e-08 2.6498e-08)
(-5.20662e-08 -1.2239e-07 2.59302e-08)
(6.48227e-09 -1.55541e-09 6.92119e-10)
(3.05782e-09 -1.79878e-08 2.28801e-09)
(2.53637e-09 -3.62235e-08 4.01818e-09)
(2.50294e-09 -5.12571e-08 5.72946e-09)
(3.90203e-10 -6.22593e-08 7.22176e-09)
(-7.42987e-09 -7.06028e-08 8.28086e-09)
(-2.55623e-08 -8.53155e-08 8.7337e-09)
(-5.20127e-08 -1.21233e-07 8.54472e-09)
(9.12088e-08 -1.82691e-07 2.28461e-07)
(7.19005e-08 -1.71592e-07 1.56891e-07)
(5.6624e-08 -1.59424e-07 1.13106e-07)
(5.04639e-08 -1.50468e-07 8.58378e-08)
(4.94104e-08 -1.44192e-07 6.39088e-08)
(4.99634e-08 -1.39998e-07 4.4222e-08)
(5.05987e-08 -1.37411e-07 2.59452e-08)
(5.09278e-08 -1.36171e-07 8.54724e-09)
(1.78098e-08 -1.72847e-07 2.22541e-07)
(1.26683e-08 -1.57213e-07 1.59217e-07)
(8.15084e-09 -1.45125e-07 1.18427e-07)
(6.79484e-09 -1.37803e-07 8.96851e-08)
(7.28859e-09 -1.33008e-07 6.57062e-08)
(8.2051e-09 -1.29756e-07 4.48179e-08)
(8.90426e-09 -1.27663e-07 2.60727e-08)
(9.24786e-09 -1.26626e-07 8.55872e-09)
(-4.2109e-08 -1.69087e-07 2.20002e-07)
(-3.248e-08 -1.53677e-07 1.57497e-07)
(-2.45395e-08 -1.41759e-07 1.17129e-07)
(-2.0596e-08 -1.34569e-07 8.8705e-08)
(-1.91616e-08 -1.29874e-07 6.49916e-08)
(-1.87112e-08 -1.26693e-07 4.43326e-08)
(-1.85378e-08 -1.24646e-07 2.57914e-08)
(-1.84572e-08 -1.23631e-07 8.46664e-09)
(-1.1212e-07 -1.71256e-07 2.20781e-07)
(-8.87682e-08 -1.60648e-07 1.51715e-07)
(-7.01855e-08 -1.48939e-07 1.09199e-07)
(-6.14239e-08 -1.40363e-07 8.28765e-08)
(-5.84122e-08 -1.34377e-07 6.17475e-08)
(-5.75748e-08 -1.30391e-07 4.27544e-08)
(-5.73216e-08 -1.2794e-07 2.50952e-08)
(-5.72183e-08 -1.26766e-07 8.269e-09)
)
;
    }
    symmetry
    {
        type            symmetry;
    }
    bottom
    {
        type            calculated;
        value           uniform (0 0 0);
    }
}


// ************************************************************************* //
