/*--------------------------------*- C++ -*----------------------------------*\
| =========                 |                                                 |
| \\      /  F ield         | OpenFOAM: The Open Source CFD Toolbox           |
|  \\    /   O peration     | Version:  v1912                                 |
|   \\  /    A nd           | Website:  www.openfoam.com                      |
|    \\/     M anipulation  |                                                 |
\*---------------------------------------------------------------------------*/
FoamFile
{
    version     2.0;
    format      ascii;
    class       surfaceScalarField;
    location    "0.45/fluid";
    object      meshPhi;
}
// * * * * * * * * * * * * * * * * * * * * * * * * * * * * * * * * * * * * * //

dimensions      [0 3 -1 0 0 0 0];
oriented        oriented;


internalField   nonuniform List<scalar> 
41600
(
2.04368e-13
-5.24269e-13
1.94962e-13
-2.01335e-13
3.89427e-13
-1.5274e-12
5.74432e-13
-5.93505e-13
5.61842e-13
-2.45892e-12
9.45935e-13
-9.78263e-13
7.27569e-13
-3.35228e-12
1.33381e-12
-1.38121e-12
8.92276e-13
-4.23051e-12
1.75997e-12
-1.82551e-12
1.06184e-12
-5.10477e-12
2.24488e-12
-2.33308e-12
1.2431e-12
-5.97185e-12
2.80804e-12
-2.92527e-12
1.44509e-12
-6.80885e-12
3.46778e-12
-3.62304e-12
1.68174e-12
-7.56332e-12
4.24072e-12
-4.44696e-12
1.97789e-12
-8.13565e-12
5.14051e-12
-5.41742e-12
2.38263e-12
-8.34663e-12
6.17702e-12
-6.55681e-12
2.99952e-12
-7.87287e-12
7.35839e-12
-7.8995e-12
4.0456e-12
-6.11547e-12
8.70205e-12
-9.52358e-12
5.92139e-12
-1.98147e-12
1.02539e-11
-1.16232e-11
8.84462e-12
5.7252e-12
1.20058e-11
-1.44255e-11
1.90406e-11
1.514e-11
-2.23505e-11
6.08804e-13
-1.0329e-12
5.79885e-13
-5.98879e-13
1.15999e-12
-3.00993e-12
1.70846e-12
-1.76529e-12
1.67328e-12
-4.84766e-12
2.81299e-12
-2.90925e-12
2.16631e-12
-6.61304e-12
3.9656e-12
-4.10657e-12
2.65585e-12
-8.35326e-12
5.2312e-12
-5.42589e-12
3.15917e-12
-1.00938e-11
6.67049e-12
-6.93219e-12
3.69592e-12
-1.18339e-11
8.34115e-12
-8.68865e-12
4.29119e-12
-1.3538e-11
1.02975e-11
-1.07571e-11
4.98166e-12
-1.51205e-11
1.25881e-11
-1.31974e-11
5.82869e-12
-1.64206e-11
1.52512e-11
-1.60661e-11
6.94618e-12
-1.71633e-11
1.83079e-11
-1.94172e-11
8.55972e-12
-1.6907e-11
2.17571e-11
-2.33136e-11
1.1104e-11
-1.49992e-11
2.55774e-11
-2.78701e-11
1.52808e-11
-1.06754e-11
2.97264e-11
-3.33342e-11
2.11908e-11
-3.95914e-12
3.39534e-11
-3.97922e-11
3.87666e-12
3.72993e-11
-4.84854e-11
1.00064e-12
-1.5105e-12
9.5023e-13
-9.8141e-13
1.90625e-12
-4.40315e-12
2.79921e-12
-2.89245e-12
2.74894e-12
-7.09626e-12
4.60767e-12
-4.76544e-12
3.55737e-12
-9.69056e-12
6.493e-12
-6.72367e-12
4.35882e-12
-1.22596e-11
8.56085e-12
-8.87888e-12
5.18107e-12
-1.48481e-11
1.09101e-11
-1.13369e-11
6.05477e-12
-1.74671e-11
1.36347e-11
-1.42006e-11
7.0169e-12
-2.00851e-11
1.68236e-11
-1.75704e-11
8.11657e-12
-2.26119e-11
2.05559e-11
-2.15426e-11
9.42604e-12
-2.48742e-11
2.48919e-11
-2.62038e-11
1.10627e-11
-2.65841e-11
2.98557e-11
-3.16217e-11
1.32313e-11
-2.73116e-11
3.54106e-11
-3.78374e-11
1.62731e-11
-2.65113e-11
4.14236e-11
-4.48633e-11
2.06276e-11
-2.37386e-11
4.76052e-11
-5.26692e-11
2.59967e-11
-1.93949e-11
5.332e-11
-6.07663e-11
-1.45853e-11
5.78159e-11
-7.09401e-11
1.37207e-12
-1.94141e-12
1.29718e-12
-1.33975e-12
2.61315e-12
-5.66159e-12
3.82047e-12
-3.94771e-12
3.76668e-12
-9.1321e-12
6.28608e-12
-6.5011e-12
4.87145e-12
-1.24874e-11
8.85271e-12
-9.16658e-12
5.96439e-12
-1.58292e-11
1.16631e-11
-1.20951e-11
7.08277e-12
-1.92265e-11
1.48509e-11
-1.54297e-11
8.26677e-12
-2.2712e-11
1.85439e-11
-1.93096e-11
9.56221e-12
-2.62752e-11
2.28634e-11
-2.38715e-11
1.10239e-11
-2.98492e-11
2.79197e-11
-2.92466e-11
1.27192e-11
-3.32909e-11
3.37979e-11
-3.55514e-11
1.47345e-11
-3.63541e-11
4.05333e-11
-4.28688e-11
1.71841e-11
-3.86641e-11
4.80679e-11
-5.12197e-11
2.02068e-11
-3.97233e-11
5.61805e-11
-6.05151e-11
2.39121e-11
-3.90345e-11
6.43731e-11
-7.04739e-11
2.79041e-11
-3.66143e-11
7.16631e-11
-8.01751e-11
-3.28608e-11
7.68598e-11
-9.08791e-11
1.71587e-12
-2.3103e-12
1.61295e-12
-1.6658e-12
3.26673e-12
-6.74049e-12
4.74905e-12
-4.90691e-12
4.70593e-12
-1.08828e-11
7.80927e-12
-8.07572e-12
6.08118e-12
-1.49042e-11
1.09883e-11
-1.13766e-11
7.43791e-12
-1.8935e-11
1.44608e-11
-1.49944e-11
8.82198e-12
-2.30719e-11
1.83907e-11
-1.91041e-11
1.02824e-11
-2.73766e-11
2.2935e-11
-2.38768e-11
1.18735e-11
-3.18726e-11
2.82449e-11
-2.94814e-11
1.36567e-11
-3.65381e-11
3.44613e-11
-3.60831e-11
1.5698e-11
-4.12932e-11
4.17011e-11
-4.38331e-11
1.80625e-11
-4.59776e-11
5.0029e-11
-5.28466e-11
2.07967e-11
-5.03153e-11
5.9407e-11
-6.31637e-11
2.38812e-11
-5.38537e-11
6.95982e-11
-7.46709e-11
2.71517e-11
-5.58877e-11
7.99839e-11
-8.69442e-11
3.00652e-11
-5.56493e-11
8.92234e-11
-9.8654e-11
-5.22835e-11
9.559e-11
-1.10468e-10
2.02579e-12
-2.60262e-12
1.89123e-12
-1.95301e-12
3.85494e-12
-7.59718e-12
5.56621e-12
-5.75063e-12
5.54885e-12
-1.22788e-11
9.14578e-12
-9.45667e-12
7.16256e-12
-1.68436e-11
1.28539e-11
-1.33063e-11
8.74857e-12
-2.1449e-11
1.68912e-11
-1.75116e-11
1.03602e-11
-2.62196e-11
2.14452e-11
-2.22729e-11
1.20546e-11
-3.12485e-11
2.66963e-11
-2.77861e-11
1.38963e-11
-3.65995e-11
3.282e-11
-3.42466e-11
1.59587e-11
-4.23072e-11
3.99851e-11
-4.18497e-11
1.83235e-11
-4.83744e-11
4.83429e-11
-5.07841e-11
2.10759e-11
-5.47651e-11
5.80056e-11
-6.12161e-11
2.42866e-11
-6.13823e-11
6.90039e-11
-7.326e-11
2.79549e-11
-6.79985e-11
8.11916e-11
-8.69014e-11
3.18858e-11
-7.40612e-11
9.40183e-11
-1.01802e-10
3.53187e-11
-7.83665e-11
1.05953e-10
-1.16425e-10
-7.73771e-11
1.14767e-10
-1.31014e-10
2.29684e-12
-2.80532e-12
2.1275e-12
-2.19671e-12
4.36812e-12
-8.19334e-12
6.25857e-12
-6.46501e-12
6.28118e-12
-1.3257e-11
1.02733e-11
-1.06208e-11
8.09627e-12
-1.82161e-11
1.44174e-11
-1.49223e-11
9.87098e-12
-2.3251e-11
1.89099e-11
-1.96008e-11
1.16641e-11
-2.85104e-11
2.39544e-11
-2.48737e-11
1.35397e-11
-3.4116e-11
2.97463e-11
-3.09529e-11
1.55718e-11
-4.01689e-11
3.64769e-11
-3.80509e-11
1.78491e-11
-4.67556e-11
4.43334e-11
-4.63829e-11
2.04812e-11
-5.39573e-11
5.34946e-11
-5.61673e-11
2.36077e-11
-6.18629e-11
6.41196e-11
-6.76221e-11
2.74089e-11
-7.05887e-11
7.63273e-11
-8.096e-11
3.21014e-11
-8.0293e-11
9.01375e-11
-9.63573e-11
3.78555e-11
-9.11169e-11
1.05271e-10
-1.13809e-10
4.40163e-11
-1.02508e-10
1.20355e-10
-1.31996e-10
-1.14007e-10
1.32954e-10
-1.52084e-10
2.52555e-12
2.31926e-12
-2.39432e-12
-2.90765e-12
4.7998e-12
6.8189e-12
-7.04264e-12
-8.49743e-12
6.89345e-12
1.11801e-11
-1.15563e-11
-1.37654e-11
8.86951e-12
1.56624e-11
-1.62077e-11
-1.89474e-11
1.07881e-11
2.04947e-11
-2.12389e-11
-2.42398e-11
1.27105e-11
2.58884e-11
-2.68755e-11
-2.98086e-11
1.4704e-11
3.2044e-11
-3.33346e-11
-3.57965e-11
1.68479e-11
3.91563e-11
-4.08324e-11
-4.23299e-11
1.92404e-11
4.74158e-11
-4.95876e-11
-4.95291e-11
2.20106e-11
5.70074e-11
-5.98251e-11
-5.75198e-11
2.53392e-11
6.81069e-11
-7.17811e-11
-6.64536e-11
2.94925e-11
8.08764e-11
-8.57165e-11
-7.65384e-11
3.48633e-11
9.54397e-11
-1.01926e-10
-8.80817e-11
4.1948e-11
1.11749e-10
-1.20682e-10
-1.01496e-10
5.01959e-11
1.2863e-10
-1.40932e-10
-1.16333e-10
1.45106e-10
-1.67289e-10
-1.37214e-10
2.03338e-13
-5.34628e-13
1.81446e-13
3.86993e-13
-1.55765e-12
5.344e-13
5.57156e-13
-2.50795e-12
8.79304e-13
7.19211e-13
-3.42005e-12
1.23834e-12
8.77989e-13
-4.31818e-12
1.6313e-12
1.03806e-12
-5.21497e-12
2.07631e-12
1.20415e-12
-6.1092e-12
2.58999e-12
1.38182e-12
-6.9814e-12
3.18687e-12
1.57909e-12
-7.78589e-12
3.87786e-12
1.81042e-12
-8.43746e-12
4.66716e-12
2.10578e-12
-8.78854e-12
5.54666e-12
2.53052e-12
-8.58776e-12
6.48601e-12
3.21879e-12
-7.40498e-12
7.41356e-12
4.38921e-12
-4.5432e-12
8.17488e-12
6.07746e-12
5.95119e-13
8.4791e-12
7.6134e-12
7.63338e-12
6.05877e-13
-1.05315e-12
5.39671e-13
1.15304e-12
-3.06904e-12
1.58934e-12
1.65988e-12
-4.94348e-12
2.61477e-12
2.14237e-12
-6.74561e-12
3.68174e-12
2.6149e-12
-8.52485e-12
4.84888e-12
3.09097e-12
-1.03092e-11
6.16993e-12
3.58422e-12
-1.21013e-11
7.69415e-12
4.10988e-12
-1.38713e-11
9.4647e-12
4.68808e-12
-1.55447e-11
1.1514e-11
5.35166e-12
-1.69836e-11
1.38542e-11
6.16411e-12
-1.79616e-11
1.64594e-11
7.25621e-12
-1.81394e-11
1.92341e-11
8.87808e-12
-1.70731e-11
2.19555e-11
1.1384e-11
-1.43789e-11
2.41681e-11
1.46726e-11
-1.03906e-11
2.51234e-11
-7.52278e-12
2.28292e-11
9.96307e-13
-1.53988e-12
8.84326e-13
1.89587e-12
-4.4889e-12
2.60401e-12
2.72876e-12
-7.23532e-12
4.28298e-12
3.52114e-12
-9.88304e-12
6.02841e-12
4.2966e-12
-1.25086e-11
7.93573e-12
5.07724e-12
-1.51597e-11
1.00925e-11
5.88463e-12
-1.78516e-11
1.25792e-11
6.74101e-12
-2.05587e-11
1.54669e-11
7.67109e-12
-2.3203e-11
1.88101e-11
8.7062e-12
-2.56352e-11
2.26308e-11
9.89457e-12
-2.76168e-11
2.68894e-11
1.13204e-11
-2.88185e-11
3.14335e-11
1.31207e-11
-2.8887e-11
3.59101e-11
1.54304e-11
-2.7694e-11
3.96362e-11
1.79707e-11
-2.58378e-11
4.16113e-11
-2.50836e-11
4.01082e-11
1.3671e-12
-1.97891e-12
1.20726e-12
2.60102e-12
-5.77106e-12
3.55422e-12
3.74269e-12
-9.30966e-12
5.84347e-12
4.82784e-12
-1.27331e-11
8.21999e-12
5.88887e-12
-1.61465e-11
1.08127e-11
6.95617e-12
-1.96221e-11
1.37401e-11
8.05897e-12
-2.31964e-11
1.71118e-11
9.22549e-12
-2.68637e-11
2.1026e-11
1.04816e-11
-3.05668e-11
2.55607e-11
1.18471e-11
-3.41809e-11
3.07541e-11
1.33299e-11
-3.74978e-11
3.65679e-11
1.49129e-11
-4.02196e-11
4.28223e-11
1.65272e-11
-4.1997e-11
4.90889e-11
1.80127e-11
-4.25886e-11
5.45414e-11
1.90764e-11
-4.22158e-11
5.79693e-11
-4.21646e-11
5.74605e-11
1.7112e-12
-2.35467e-12
1.50128e-12
3.25487e-12
-6.87005e-12
4.41853e-12
4.68164e-12
-1.1093e-11
7.26026e-12
6.03591e-12
-1.51947e-11
1.02043e-11
7.35831e-12
-1.93096e-11
1.34086e-11
8.68738e-12
-2.35371e-11
1.70184e-11
1.00606e-11
-2.79415e-11
2.11688e-11
1.15141e-11
-3.25495e-11
2.59831e-11
1.30791e-11
-3.73438e-11
3.15639e-11
1.4773e-11
-4.22532e-11
3.79722e-11
1.65798e-11
-4.7136e-11
4.5189e-11
1.84098e-11
-5.17544e-11
5.30432e-11
2.00273e-11
-5.57357e-11
6.10867e-11
2.09891e-11
-5.85366e-11
6.84027e-11
2.08561e-11
-5.96009e-11
7.35332e-11
-5.9486e-11
7.42142e-11
2.02239e-12
-2.6524e-12
1.76053e-12
3.84538e-12
-7.74253e-12
5.17956e-12
5.52775e-12
-1.25145e-11
8.50414e-12
7.1213e-12
-1.71692e-11
1.19389e-11
8.67391e-12
-2.18682e-11
1.56651e-11
1.02319e-11
-2.67381e-11
1.98493e-11
1.18417e-11
-3.1874e-11
2.46469e-11
1.35506e-11
-3.73397e-11
3.02017e-11
1.54043e-11
-4.31693e-11
3.66384e-11
1.74391e-11
-4.93638e-11
4.40438e-11
1.96644e-11
-5.58845e-11
5.24308e-11
2.20181e-11
-6.26307e-11
6.16679e-11
2.42779e-11
-6.93709e-11
7.13436e-11
2.59327e-11
-7.55627e-11
8.05255e-11
2.62552e-11
-8.0094e-11
8.75362e-11
-8.07331e-11
8.97701e-11
2.29553e-12
-2.85882e-12
1.98081e-12
4.36263e-12
-8.34956e-12
5.82486e-12
6.26627e-12
-1.35103e-11
9.55432e-12
8.06382e-12
-1.8566e-11
1.33938e-11
9.80881e-12
-2.37008e-11
1.75412e-11
1.1554e-11
-2.90654e-11
2.21774e-11
1.33541e-11
-3.47821e-11
2.74711e-11
1.52688e-11
-4.09497e-11
3.35792e-11
1.73634e-11
-4.76497e-11
4.06409e-11
1.97102e-11
-5.49533e-11
4.87629e-11
2.23845e-11
-6.29304e-11
5.79879e-11
2.54516e-11
-7.16603e-11
6.82328e-11
2.89246e-11
-8.12297e-11
7.91539e-11
3.26483e-11
-9.16395e-11
8.98647e-11
3.59315e-11
-1.02235e-10
9.85201e-11
-1.11693e-10
1.01939e-10
2.52691e-12
2.15977e-12
-2.963e-12
4.79963e-12
6.34764e-12
-8.6591e-12
6.88688e-12
1.03999e-11
-1.40276e-11
8.84928e-12
1.45536e-11
-1.93097e-11
1.07436e-11
1.90161e-11
-2.47053e-11
1.26264e-11
2.3975e-11
-3.03824e-11
1.45578e-11
2.96038e-11
-3.64829e-11
1.66057e-11
3.60623e-11
-4.313e-11
1.88508e-11
4.34919e-11
-5.04357e-11
2.13943e-11
5.20029e-11
-5.8511e-11
2.43687e-11
6.16481e-11
-6.74788e-11
2.79528e-11
7.23682e-11
-7.74946e-11
3.23814e-11
8.38695e-11
-8.8764e-11
3.78805e-11
9.53479e-11
-1.01496e-10
4.38814e-11
1.04929e-10
-1.15063e-10
1.08575e-10
-1.31346e-10
2.01458e-13
-5.43459e-13
1.61477e-13
3.82851e-13
-1.58348e-12
4.75412e-13
5.49759e-13
-2.54988e-12
7.81669e-13
7.06795e-13
-3.47809e-12
1.0996e-12
8.57713e-13
-4.39335e-12
1.44622e-12
1.00542e-12
-5.3098e-12
1.83673e-12
1.15197e-12
-6.2287e-12
2.28441e-12
1.29852e-12
-7.13517e-12
2.79971e-12
1.44559e-12
-7.99305e-12
3.38825e-12
1.59414e-12
-8.73724e-12
4.04667e-12
1.74876e-12
-9.26351e-12
4.75542e-12
1.92365e-12
-9.41531e-12
5.46606e-12
2.147e-12
-8.97059e-12
6.07981e-12
2.43804e-12
-7.65922e-12
6.41883e-12
2.69715e-12
-5.41185e-12
6.25451e-12
-2.5268e-12
5.62333e-12
6.00442e-13
-1.0704e-12
4.80286e-13
1.14106e-12
-3.11945e-12
1.41394e-12
1.63848e-12
-5.02528e-12
2.3245e-12
2.10648e-12
-6.85872e-12
3.26936e-12
2.55631e-12
-8.67109e-12
4.29896e-12
2.99671e-12
-1.04929e-11
5.45835e-12
3.43374e-12
-1.23308e-11
6.78694e-12
3.87025e-12
-1.41625e-11
8.31603e-12
4.30554e-12
-1.59285e-11
1.00627e-11
4.73613e-12
-1.75221e-11
1.20181e-11
5.15997e-12
-1.87809e-11
1.41262e-11
5.58436e-12
-1.94931e-11
1.62488e-11
6.02765e-12
-1.945e-11
1.81097e-11
6.46942e-12
-1.86175e-11
1.92356e-11
6.69627e-12
-1.74639e-11
1.90827e-11
-1.75318e-11
1.74071e-11
9.87926e-13
-1.56485e-12
7.87056e-13
1.87737e-12
-4.56186e-12
2.31676e-12
2.69567e-12
-7.35357e-12
3.80778e-12
3.46561e-12
-1.00463e-11
5.35363e-12
4.20598e-12
-1.27188e-11
7.03641e-12
4.93158e-12
-1.54219e-11
8.92956e-12
5.65263e-12
-1.81747e-11
1.10977e-11
6.37302e-12
-2.09598e-11
1.35929e-11
7.08726e-12
-2.37141e-11
1.64455e-11
7.77623e-12
-2.63199e-11
1.96457e-11
8.40213e-12
-2.86009e-11
2.31128e-11
8.90121e-12
-3.03459e-11
2.66439e-11
9.16931e-12
-3.14007e-11
2.98448e-11
9.03623e-12
-3.1886e-11
3.20801e-11
8.33952e-12
-3.23934e-11
3.26921e-11
-3.39485e-11
3.18366e-11
1.35671e-12
-2.01068e-12
1.07458e-12
2.57801e-12
-5.86384e-12
3.16249e-12
3.70141e-12
-9.45981e-12
5.19575e-12
4.75841e-12
-1.29398e-11
7.30083e-12
5.77546e-12
-1.64114e-11
9.58871e-12
6.77405e-12
-1.99493e-11
1.21589e-11
7.76963e-12
-2.35931e-11
1.50996e-11
8.76858e-12
-2.73426e-11
1.84835e-11
9.76158e-12
-3.1151e-11
2.23566e-11
1.07117e-11
-3.49161e-11
2.67162e-11
1.15341e-11
-3.84742e-11
3.14736e-11
1.20627e-11
-4.16135e-11
3.63958e-11
1.2009e-11
-4.41343e-11
4.10321e-11
1.09822e-11
-4.60007e-11
4.46727e-11
8.90459e-12
-4.74928e-11
4.65701e-11
-4.94243e-11
4.68433e-11
1.69994e-12
-2.39212e-12
1.33647e-12
3.22978e-12
-6.9793e-12
3.93212e-12
4.63633e-12
-1.12695e-11
6.4565e-12
5.95934e-12
-1.54371e-11
9.06474e-12
7.23293e-12
-1.96184e-11
1.18928e-11
8.48604e-12
-2.39146e-11
1.50627e-11
9.74149e-12
-2.83912e-11
1.86838e-11
1.10123e-11
-3.30758e-11
2.28477e-11
1.22935e-11
-3.7954e-11
2.76174e-11
1.35444e-11
-4.29618e-11
3.30035e-11
1.46569e-11
-4.79741e-11
3.89236e-11
1.53958e-11
-5.27902e-11
4.51406e-11
1.53182e-11
-5.71164e-11
5.11807e-11
1.3779e-11
-6.05595e-11
5.62789e-11
1.05834e-11
-6.27272e-11
5.95509e-11
-6.40507e-11
6.09773e-11
2.01141e-12
-2.69421e-12
1.56754e-12
3.82067e-12
-7.86443e-12
4.61019e-12
5.48264e-12
-1.27112e-11
7.56405e-12
7.04442e-12
-1.74385e-11
1.06077e-11
8.54738e-12
-2.22095e-11
1.38971e-11
1.00284e-11
-2.71515e-11
1.75724e-11
1.15196e-11
-3.23579e-11
2.17594e-11
1.3046e-11
-3.78894e-11
2.65655e-11
1.46186e-11
-4.37734e-11
3.20687e-11
1.62189e-11
-5.00013e-11
3.82942e-11
1.77673e-11
-5.65187e-11
4.51731e-11
1.90586e-11
-6.32017e-11
5.2476e-11
1.96583e-11
-6.97915e-11
5.97177e-11
1.88293e-11
-7.57443e-11
6.60689e-11
1.60581e-11
-8.00616e-11
7.04754e-11
-8.0779e-11
7.28561e-11
2.28588e-12
-2.90355e-12
1.76401e-12
4.34054e-12
-8.47991e-12
5.18557e-12
6.22516e-12
-1.37204e-11
8.49986e-12
7.99268e-12
-1.8853e-11
1.19029e-11
9.69061e-12
-2.40631e-11
1.5565e-11
1.1363e-11
-2.95008e-11
1.96387e-11
1.30517e-11
-3.52846e-11
2.42606e-11
1.47963e-11
-4.1506e-11
2.95477e-11
1.66314e-11
-4.82327e-11
3.55874e-11
1.85796e-11
-5.55113e-11
4.24148e-11
2.06347e-11
-6.3369e-11
4.99709e-11
2.27231e-11
-7.18077e-11
5.80323e-11
2.46338e-11
-8.07756e-11
6.60948e-11
2.5922e-11
-9.00508e-11
7.32293e-11
2.59932e-11
-9.88134e-11
7.81279e-11
-1.05689e-10
8.04764e-11
2.51945e-12
1.92377e-12
-3.0091e-12
4.78193e-12
5.65212e-12
-8.79343e-12
6.85274e-12
9.25406e-12
-1.4244e-11
8.78857e-12
1.29365e-11
-1.96049e-11
1.06409e-11
1.68782e-11
-2.5077e-11
1.24589e-11
2.12375e-11
-3.08267e-11
1.42916e-11
2.61548e-11
-3.69909e-11
1.61901e-11
3.17491e-11
-4.36827e-11
1.82093e-11
3.81085e-11
-5.09957e-11
2.04088e-11
4.52676e-11
-5.90087e-11
2.2851e-11
5.31672e-11
-6.77886e-11
2.55914e-11
6.15818e-11
-7.73906e-11
2.8653e-11
6.99932e-11
-8.78421e-11
3.19519e-11
7.74117e-11
-9.90577e-11
3.49451e-11
8.23475e-11
-1.10197e-10
8.34498e-11
-1.22289e-10
1.99073e-13
-5.50666e-13
1.35931e-13
3.77713e-13
-1.60454e-12
4.00068e-13
5.4083e-13
-2.58406e-12
6.57363e-13
6.92221e-13
-3.52539e-12
9.23806e-13
8.34485e-13
-4.45466e-12
1.21325e-12
9.68819e-13
-5.38726e-12
1.53771e-12
1.09466e-12
-6.32668e-12
1.90713e-12
1.20908e-12
-7.26242e-12
2.32849e-12
1.30596e-12
-8.1671e-12
2.80375e-12
1.37532e-12
-8.99317e-12
3.32617e-12
1.40327e-12
-9.67085e-12
3.87457e-12
1.37232e-12
-1.01093e-11
4.40514e-12
1.2595e-12
-1.02031e-11
4.84286e-12
1.02652e-12
-9.84869e-12
5.08346e-12
6.38182e-13
-9.01632e-12
5.04558e-12
-7.34228e-12
5.04371e-12
5.93521e-13
-1.08449e-12
4.04325e-13
1.12615e-12
-3.16063e-12
1.18993e-12
1.61257e-12
-5.09201e-12
1.95497e-12
2.06419e-12
-6.95082e-12
2.74688e-12
2.48893e-12
-8.78986e-12
3.6067e-12
2.89066e-12
-1.06417e-11
4.57003e-12
3.26801e-12
-1.25166e-11
5.66651e-12
3.61234e-12
-1.43992e-11
6.91711e-12
3.90474e-12
-1.62435e-11
8.32826e-12
4.11268e-12
-1.79697e-11
9.88137e-12
4.18749e-12
-1.9465e-11
1.15165e-11
4.06345e-12
-2.06033e-11
1.31102e-11
3.65886e-12
-2.12982e-11
1.44545e-11
2.88802e-12
-2.16084e-11
1.52696e-11
1.79151e-12
-2.1815e-11
1.53584e-11
-2.2581e-11
1.47985e-11
9.77133e-13
-1.58525e-12
6.62647e-13
1.85412e-12
-4.62143e-12
1.94994e-12
2.65525e-12
-7.44988e-12
3.20285e-12
3.39962e-12
-1.01786e-11
4.49861e-12
4.10093e-12
-1.28882e-11
5.90402e-12
4.76655e-12
-1.56314e-11
7.4772e-12
5.39556e-12
-1.84311e-11
9.26688e-12
5.97491e-12
-2.12762e-11
1.13083e-11
6.47318e-12
-2.41171e-11
1.36145e-11
6.83187e-12
-2.68612e-11
1.61602e-11
6.95497e-12
-2.93787e-11
1.88585e-11
6.69969e-12
-3.15324e-11
2.15305e-11
5.8839e-12
-3.32603e-11
2.38841e-11
4.36913e-12
-3.47167e-11
2.55497e-11
2.41361e-12
-3.62735e-11
2.62908e-11
-3.8347e-11
2.64699e-11
1.34305e-12
-2.0366e-12
9.04852e-13
2.54856e-12
-5.9394e-12
2.66217e-12
3.65015e-12
-9.58162e-12
4.37101e-12
4.67469e-12
-1.31063e-11
6.1358e-12
5.6423e-12
-1.66225e-11
8.04679e-12
6.56531e-12
-2.02064e-11
1.01828e-11
7.44576e-12
-2.38994e-11
1.26107e-11
8.26993e-12
-2.77053e-11
1.53802e-11
8.99878e-12
-3.15848e-11
1.85131e-11
9.55251e-12
-3.5451e-11
2.19849e-11
9.78775e-12
-3.91696e-11
2.5696e-11
9.46968e-12
-4.25751e-11
2.94401e-11
8.26921e-12
-4.55258e-11
3.28877e-11
5.90313e-12
-4.80063e-11
3.56389e-11
2.76432e-12
-5.01577e-11
3.74207e-11
-5.23655e-11
3.85445e-11
1.68461e-12
-2.42256e-12
1.12558e-12
3.19667e-12
-7.06792e-12
3.31065e-12
4.57859e-12
-1.14119e-11
5.43263e-12
5.86494e-12
-1.56306e-11
7.61958e-12
7.08285e-12
-1.98614e-11
9.98212e-12
8.25133e-12
-2.42055e-11
1.26171e-11
9.37876e-12
-2.87277e-11
1.56073e-11
1.04571e-11
-3.34547e-11
1.90159e-11
1.14508e-11
-3.83709e-11
2.2875e-11
1.22771e-11
-4.34121e-11
2.71647e-11
1.27727e-11
-4.84562e-11
3.1783e-11
1.26445e-11
-5.33096e-11
3.65105e-11
1.14337e-11
-5.769e-11
4.09957e-11
8.64144e-12
-6.12108e-11
4.48074e-11
4.55377e-12
-6.3446e-11
4.76022e-11
-6.45576e-11
4.96095e-11
1.99567e-12
-2.72806e-12
1.32043e-12
3.78655e-12
-7.96286e-12
3.8823e-12
5.42294e-12
-1.28689e-11
6.36578e-12
6.94657e-12
-1.76517e-11
8.91825e-12
8.39176e-12
-2.24746e-11
1.16667e-11
9.78541e-12
-2.74636e-11
1.47225e-11
1.11454e-11
-3.27084e-11
1.81809e-11
1.24763e-11
-3.82632e-11
2.21159e-11
1.37599e-11
-4.41445e-11
2.65682e-11
1.49376e-11
-5.03263e-11
3.15231e-11
1.58781e-11
-5.67276e-11
3.68775e-11
1.63226e-11
-6.31834e-11
4.23997e-11
1.58228e-11
-6.93787e-11
4.77033e-11
1.3789e-11
-7.47159e-11
5.22898e-11
1.0192e-11
-7.82267e-11
5.57193e-11
-7.79861e-11
5.82488e-11
2.27089e-12
-2.9396e-12
1.48622e-12
4.30786e-12
-8.58466e-12
4.36768e-12
6.16762e-12
-1.38879e-11
7.15475e-12
7.89797e-12
-1.90783e-11
1.00092e-11
9.53966e-12
-2.43411e-11
1.30699e-11
1.11274e-11
-2.98233e-11
1.6458e-11
1.26899e-11
-3.56375e-11
2.0277e-11
1.42479e-11
-4.18637e-11
2.46072e-11
1.58093e-11
-4.85505e-11
2.94938e-11
1.736e-11
-5.57132e-11
3.49234e-11
1.88445e-11
-6.33272e-11
4.07881e-11
2.01332e-11
-7.13117e-11
4.6835e-11
2.09846e-11
-7.94896e-11
5.26187e-11
2.10587e-11
-8.74929e-11
5.75106e-11
2.02142e-11
-9.45166e-11
6.08952e-11
-9.9404e-11
6.30381e-11
2.50615e-12
1.62113e-12
-3.04612e-12
4.7527e-12
4.76155e-12
-8.9009e-12
6.80075e-12
7.79113e-12
-1.44156e-11
8.7023e-12
1.08808e-11
-1.9835e-11
1.05028e-11
1.41763e-11
-2.53593e-11
1.2243e-11
1.78036e-11
-3.11508e-11
1.39604e-11
2.1869e-11
-3.73388e-11
1.56898e-11
2.6454e-11
-4.40219e-11
1.74627e-11
3.16022e-11
-5.12702e-11
1.93064e-11
3.72965e-11
-5.91237e-11
2.12383e-11
4.34197e-11
-6.75866e-11
2.32568e-11
4.96972e-11
-7.66159e-11
2.5336e-11
5.56301e-11
-8.60963e-11
2.74356e-11
6.04709e-11
-9.57809e-11
2.9388e-11
6.34258e-11
-1.04889e-10
6.41958e-11
-1.14677e-10
1.96564e-13
-5.56236e-13
1.05848e-13
3.72368e-13
-1.62081e-12
3.11438e-13
5.31687e-13
-2.61044e-12
5.11449e-13
6.77547e-13
-3.56192e-12
7.18163e-13
8.11498e-13
-4.50196e-12
9.42043e-13
9.33266e-13
-5.44682e-12
1.1919e-12
1.04019e-12
-6.40163e-12
1.47469e-12
1.12631e-12
-7.35909e-12
1.79476e-12
1.18127e-12
-8.29787e-12
2.15223e-12
1.18924e-12
-9.18148e-12
2.54039e-12
1.12877e-12
-9.95886e-12
2.94234e-12
9.74054e-13
-1.05675e-11
3.32758e-12
6.98333e-13
-1.09355e-11
3.65179e-12
2.82201e-13
-1.097e-11
3.86702e-12
-2.32856e-13
-1.05509e-11
3.94947e-12
-9.02815e-12
4.18919e-12
5.86225e-13
-1.09542e-12
3.14865e-13
1.11062e-12
-3.19255e-12
9.26395e-13
1.58599e-12
-5.14369e-12
1.52118e-12
2.02151e-12
-7.02197e-12
2.13562e-12
2.42211e-12
-8.88119e-12
2.80068e-12
2.78743e-12
-1.07553e-11
3.54253e-12
3.11015e-12
-1.26571e-11
4.38192e-12
3.37323e-12
-1.4576e-11
5.332e-12
3.5462e-12
-1.64754e-11
6.39362e-12
3.58149e-12
-1.82913e-11
7.54806e-12
3.41293e-12
-1.99369e-11
8.74734e-12
2.9608e-12
-2.13194e-11
9.90488e-12
2.1534e-12
-2.23748e-11
1.08953e-11
9.91015e-13
-2.31156e-11
1.15821e-11
-2.73636e-13
-2.36293e-11
1.18957e-11
-2.42468e-11
1.18128e-11
9.65701e-13
-1.60113e-12
5.16094e-13
1.82978e-12
-4.66771e-12
1.5183e-12
2.61358e-12
-7.52449e-12
2.49256e-12
3.33272e-12
-1.02805e-11
3.49805e-12
3.99626e-12
-1.30174e-11
4.58519e-12
4.6052e-12
-1.57893e-11
5.79671e-12
5.14969e-12
-1.86212e-11
7.16689e-12
5.60443e-12
-2.15061e-11
8.71801e-12
5.92193e-12
-2.44023e-11
1.04534e-11
6.02455e-12
-2.72313e-11
1.23466e-11
5.79834e-12
-2.9884e-11
1.43269e-11
5.09782e-12
-3.22462e-11
1.62678e-11
3.79011e-12
-3.42583e-11
1.79911e-11
1.90537e-12
-3.60035e-11
1.93109e-11
-1.96574e-14
-3.76752e-11
2.01318e-11
-3.95067e-11
2.05957e-11
1.32844e-12
-2.05676e-12
7.04848e-13
2.51744e-12
-5.99805e-12
2.07323e-12
3.59685e-12
-9.67573e-12
3.40228e-12
4.58913e-12
-1.32337e-11
4.7719e-12
5.50863e-12
-1.67818e-11
6.25023e-12
6.35984e-12
-2.03968e-11
7.89534e-12
7.134e-12
-2.41205e-11
9.75428e-12
7.80308e-12
-2.79578e-11
1.18588e-11
8.31024e-12
-3.18723e-11
1.42166e-11
8.55664e-12
-3.57826e-11
1.67985e-11
8.38634e-12
-3.95618e-11
1.95212e-11
7.57933e-12
-4.30498e-11
2.22361e-11
5.89413e-12
-4.60911e-11
2.47411e-11
3.27045e-12
-4.86067e-11
2.68357e-11
3.7929e-13
-5.06264e-11
2.83994e-11
-5.24501e-11
2.9512e-11
1.66798e-12
-2.44619e-12
8.76951e-13
3.16121e-12
-7.13653e-12
2.57875e-12
4.5178e-12
-1.15214e-11
4.22941e-12
5.76736e-12
-1.57776e-11
5.9269e-12
6.93062e-12
-2.00425e-11
7.75473e-12
8.01801e-12
-2.44166e-11
9.78433e-12
9.02637e-12
-2.89625e-11
1.2074e-11
9.93275e-12
-3.37036e-11
1.46643e-11
1.06839e-11
-3.86194e-11
1.7568e-11
1.118e-11
-4.36386e-11
2.07558e-11
1.12513e-11
-4.86284e-11
2.41372e-11
1.06333e-11
-5.33775e-11
2.75488e-11
8.97985e-12
-5.75731e-11
3.07679e-11
6.04423e-12
-6.07817e-11
3.35735e-11
2.37895e-12
-6.25511e-11
3.58035e-11
-6.30526e-11
3.74828e-11
1.97821e-12
-2.75424e-12
1.02896e-12
3.74927e-12
-8.03873e-12
3.0246e-12
5.35894e-12
-1.29895e-11
4.9568e-12
6.8438e-12
-1.78122e-11
6.93829e-12
8.23163e-12
-2.26696e-11
9.06504e-12
9.54065e-12
-2.76852e-11
1.14191e-11
1.07773e-11
-3.29438e-11
1.40678e-11
1.19317e-11
-3.84912e-11
1.70581e-11
1.29689e-11
-4.43308e-11
2.04069e-11
1.38152e-11
-5.04161e-11
2.40841e-11
1.43362e-11
-5.66354e-11
2.79916e-11
1.43063e-11
-6.27804e-11
3.19454e-11
1.33967e-11
-6.84825e-11
3.56849e-11
1.1277e-11
-7.31057e-11
3.89363e-11
8.18458e-12
-7.57481e-11
4.14911e-11
-7.47102e-11
4.34222e-11
2.25373e-12
-2.9674e-12
1.15837e-12
4.27113e-12
-8.66504e-12
3.40335e-12
6.10442e-12
-1.40151e-11
5.5721e-12
7.79634e-12
-1.92466e-11
7.78843e-12
9.38137e-12
-2.4543e-11
1.01573e-11
1.0886e-11
-3.00476e-11
1.27682e-11
1.23281e-11
-3.58656e-11
1.56938e-11
1.3715e-11
-4.20645e-11
1.89851e-11
1.50393e-11
-4.86727e-11
2.26597e-11
1.6273e-11
-5.56743e-11
2.66843e-11
1.73571e-11
-6.29985e-11
3.09491e-11
1.81906e-11
-7.04997e-11
3.52401e-11
1.86376e-11
-7.79262e-11
3.92345e-11
1.85979e-11
-8.48688e-11
4.2554e-11
1.81994e-11
-9.06598e-11
4.48996e-11
-9.45178e-11
4.64398e-11
2.49024e-12
1.26371e-12
-3.07455e-12
4.71852e-12
3.71083e-12
-8.98304e-12
6.74169e-12
6.06869e-12
-1.45453e-11
8.60706e-12
8.46819e-12
-2.00056e-11
1.03543e-11
1.10196e-11
-2.55621e-11
1.20168e-11
1.38159e-11
-3.13723e-11
1.36223e-11
1.6932e-11
-3.75564e-11
1.51935e-11
2.04187e-11
-4.41981e-11
1.67483e-11
2.42915e-11
-5.13435e-11
1.8301e-11
2.85112e-11
-5.89961e-11
1.9863e-11
3.29549e-11
-6.7108e-11
2.14513e-11
3.73807e-11
-7.55664e-11
2.31179e-11
4.14069e-11
-8.41814e-11
2.50129e-11
4.45498e-11
-9.26791e-11
2.72115e-11
4.64029e-11
-1.00465e-10
4.68716e-11
-1.09173e-10
1.94297e-13
-5.60213e-13
7.23601e-14
3.67577e-13
-1.63244e-12
2.12861e-13
5.23576e-13
-2.62938e-12
3.49432e-13
6.64684e-13
-3.58821e-12
4.90385e-13
7.91625e-13
-4.53595e-12
6.42698e-13
9.0303e-13
-5.48933e-12
8.12113e-13
9.94819e-13
-6.45443e-12
1.003e-12
1.0593e-12
-7.42581e-12
1.21784e-12
1.08422e-12
-8.38537e-12
1.45618e-12
1.05232e-12
-9.30159e-12
1.71318e-12
9.42416e-13
-1.013e-11
1.97805e-12
7.3331e-13
-1.08131e-11
2.23311e-12
4.11238e-13
-1.12748e-11
2.45534e-12
-1.94029e-14
-1.13943e-11
2.62311e-12
-4.99667e-13
-1.09933e-11
2.72425e-12
-9.36824e-12
2.95989e-12
5.79631e-13
-1.10331e-12
2.15269e-13
1.09668e-12
-3.21562e-12
6.33247e-13
1.56238e-12
-5.18105e-12
1.03945e-12
1.98406e-12
-7.07334e-12
1.45846e-12
2.36426e-12
-8.94675e-12
1.91094e-12
2.69951e-12
-1.0836e-11
2.41396e-12
2.97849e-12
-1.27552e-11
2.98057e-12
3.17934e-12
-1.46964e-11
3.61831e-12
3.26665e-12
-1.66275e-11
4.32621e-12
3.18977e-12
-1.84912e-11
5.0906e-12
2.8855e-12
-2.02081e-11
5.88059e-12
2.29148e-12
-2.16865e-11
6.64524e-12
1.37993e-12
-2.28425e-11
7.31735e-12
2.25538e-13
-2.36237e-11
7.82941e-12
-8.78294e-13
-2.40235e-11
8.13726e-12
-2.43204e-11
8.16861e-12
9.55345e-13
-1.61266e-12
3.52898e-13
1.80788e-12
-4.70133e-12
1.03803e-12
2.57646e-12
-7.57858e-12
1.70353e-12
3.27383e-12
-1.0354e-11
2.38931e-12
3.90538e-12
-1.31097e-11
3.12899e-12
4.46739e-12
-1.59002e-11
3.95049e-12
4.94404e-12
-1.87515e-11
4.87542e-12
5.30314e-12
-2.16584e-11
5.91665e-12
5.49078e-12
-2.4582e-11
7.07387e-12
5.42705e-12
-2.74479e-11
8.32719e-12
5.00734e-12
-3.01496e-11
9.63047e-12
4.12109e-12
-3.2566e-11
1.09081e-11
2.71363e-12
-3.46052e-11
1.20618e-11
9.33062e-13
-3.6275e-11
1.29937e-11
-6.4968e-13
-3.7692e-11
1.36335e-11
-3.91057e-11
1.4001e-11
1.31515e-12
-2.07145e-12
4.82052e-13
2.48932e-12
-6.04075e-12
1.4177e-12
3.54915e-12
-9.74389e-12
2.32571e-12
4.51346e-12
-1.33252e-11
3.25994e-12
5.39203e-12
-1.68945e-11
4.26584e-12
6.18354e-12
-2.05283e-11
5.38138e-12
6.87208e-12
-2.42681e-11
6.63628e-12
7.42174e-12
-2.81178e-11
8.04895e-12
7.76926e-12
-3.204e-11
9.62093e-12
7.81608e-12
-3.59511e-11
1.13291e-11
7.42349e-12
-3.97184e-11
1.3118e-11
6.4236e-12
-4.31662e-11
1.48969e-11
4.68143e-12
-4.61035e-11
1.65518e-11
2.28017e-12
-4.83894e-11
1.79738e-11
-1.02728e-13
-5.00169e-11
1.90707e-11
-5.13466e-11
1.98154e-11
1.65272e-12
-2.46342e-12
5.99868e-13
3.12891e-12
-7.18638e-12
1.76371e-12
4.46299e-12
-1.16005e-11
2.89163e-12
5.68045e-12
-1.58824e-11
4.04963e-12
6.79696e-12
-2.01691e-11
5.29342e-12
7.81657e-12
-2.45595e-11
6.66976e-12
8.72849e-12
-2.91139e-11
8.21552e-12
9.50176e-12
-3.3851e-11
9.95414e-12
1.00775e-11
-3.87436e-11
1.18893e-11
1.03588e-11
-4.37101e-11
1.39962e-11
1.01996e-11
-4.86017e-11
1.62122e-11
9.39997e-12
-5.31834e-11
1.84338e-11
7.738e-12
-5.71092e-11
2.05311e-11
5.12427e-12
-5.99113e-11
2.23799e-11
2.09424e-12
-6.11549e-11
2.38612e-11
-6.11134e-11
2.49176e-11
1.96201e-12
-2.77329e-12
7.03976e-13
3.71495e-12
-8.09369e-12
2.069e-12
5.30066e-12
-1.30761e-11
3.38947e-12
6.75144e-12
-1.79257e-11
4.74137e-12
8.08982e-12
-2.28042e-11
6.18873e-12
9.3276e-12
-2.7832e-11
7.78533e-12
1.04636e-11
-3.30893e-11
9.57358e-12
1.14803e-11
-3.86135e-11
1.15806e-11
1.23378e-11
-4.43952e-11
1.38114e-11
1.29671e-11
-5.03692e-11
1.62386e-11
1.326e-11
-5.63979e-11
1.8791e-11
1.30598e-11
-6.22411e-11
2.13468e-11
1.21676e-11
-6.75008e-11
2.37463e-11
1.04154e-11
-7.15387e-11
2.58305e-11
8.01775e-12
-7.35366e-11
2.74593e-11
-7.20068e-11
2.86202e-11
2.23755e-12
-2.98756e-12
7.92628e-13
4.23682e-12
-8.72307e-12
2.32842e-12
6.0461e-12
-1.4106e-11
3.81075e-12
7.70391e-12
-1.93647e-11
5.32307e-12
9.23964e-12
-2.46806e-11
6.93549e-12
1.06736e-11
-3.0193e-11
8.70662e-12
1.20165e-11
-3.60002e-11
1.06823e-11
1.32684e-11
-4.21583e-11
1.28915e-11
1.44177e-11
-4.86781e-11
1.53386e-11
1.54406e-11
-5.55186e-11
1.79922e-11
1.6303e-11
-6.25753e-11
2.07693e-11
1.69679e-11
-6.96652e-11
2.35226e-11
1.74214e-11
-7.65096e-11
2.60465e-11
1.77209e-11
-8.27213e-11
2.8115e-11
1.79856e-11
-8.77693e-11
2.95464e-11
-9.11361e-11
3.04203e-11
2.47492e-12
8.64811e-13
-3.09511e-12
4.68595e-12
2.53908e-12
-9.04214e-12
6.68623e-12
4.15088e-12
-1.46375e-11
8.5191e-12
5.78847e-12
-2.01246e-11
1.02195e-11
7.52557e-12
-2.56988e-11
1.18152e-11
9.42318e-12
-3.15131e-11
1.33272e-11
1.15283e-11
-3.76793e-11
1.47718e-11
1.38695e-11
-4.4268e-11
1.61627e-11
1.6449e-11
-5.13051e-11
1.7517e-11
1.92301e-11
-5.87661e-11
1.88663e-11
2.21183e-11
-6.65672e-11