/*--------------------------------*- C++ -*----------------------------------*\
| =========                 |                                                 |
| \\      /  F ield         | OpenFOAM: The Open Source CFD Toolbox           |
|  \\    /   O peration     | Version:  v1912                                 |
|   \\  /    A nd           | Website:  www.openfoam.com                      |
|    \\/     M anipulation  |                                                 |
\*---------------------------------------------------------------------------*/
FoamFile
{
    version     2.0;
    format      ascii;
    class       volScalarField;
    location    "0.45/fluid";
    object      p;
}
// * * * * * * * * * * * * * * * * * * * * * * * * * * * * * * * * * * * * * //

dimensions      [0 2 -2 0 0 0 0];


internalField   nonuniform List<scalar> 
14592
(
0.0603663
0.0547968
0.0529393
0.0513675
0.050424
0.0496431
0.0489837
0.0483936
0.0478269
0.047359
0.0468437
0.0465784
0.0460242
0.0462906
0.0454572
0.0476812
0.0561531
0.054423
0.0527714
0.0514416
0.0505058
0.0497239
0.0490544
0.0484625
0.0479002
0.0474467
0.0469521
0.0467311
0.0462215
0.0466503
0.0458255
0.0490675
0.0542047
0.0535851
0.0523589
0.0513608
0.0504887
0.0497327
0.0490568
0.0484595
0.0478949
0.0474487
0.046973
0.0467991
0.0463487
0.0469421
0.0461827
0.0500496
0.0530033
0.052836
0.0519668
0.0511974
0.0504097
0.0496908
0.0490178
0.0484159
0.0478447
0.0473979
0.0469302
0.0467908
0.0463901
0.0471208
0.0464796
0.0506759
0.0522889
0.0522466
0.0515955
0.0509739
0.0502609
0.0495771
0.048907
0.0482928
0.0476983
0.047222
0.0467184
0.0465485
0.0461098
0.0468634
0.0462236
0.0506638
0.0518051
0.0518036
0.0512903
0.0507591
0.0501012
0.0494425
0.0487734
0.0481456
0.0475281
0.0470245
0.046495
0.0463174
0.0458921
0.0467679
0.0462868
0.0512024
0.0514911
0.0514997
0.0510567
0.0505706
0.0499393
0.0492852
0.0486002
0.0479373
0.0472649
0.0466802
0.0460367
0.0456935
0.0450235
0.0455886
0.0445566
0.0494871
0.0513016
0.0513136
0.0508996
0.0504292
0.0498032
0.0491404
0.0484336
0.0477357
0.0470177
0.0463734
0.0456676
0.0452618
0.0445684
0.0452893
0.0445179
0.0517613
0.0602581
0.0546905
0.0528698
0.051339
0.0504492
0.0497284
0.0491377
0.048626
0.0481501
0.0477849
0.0473906
0.0472293
0.0468138
0.046977
0.0462481
0.0470534
0.0560449
0.054315
0.0527009
0.0514128
0.0505318
0.0498107
0.0492106
0.0486981
0.0482276
0.0478776
0.047504
0.047383
0.0470014
0.0472684
0.0465007
0.0477526
0.0540932
0.0534723
0.0522829
0.0513264
0.0505095
0.0498148
0.0492084
0.0486904
0.0482171
0.0478737
0.0475164
0.0474389
0.0471045
0.047504
0.046762
0.0483478
0.0528897
0.0527206
0.0518872
0.0511587
0.0504256
0.0497674
0.049163
0.0486396
0.0481583
0.0478135
0.0474616
0.0474173
0.0471243
0.0476465
0.0469883
0.0487845
0.0521723
0.052128
0.0515119
0.0509299
0.0502701
0.0496453
0.0490417
0.048503
0.0479941
0.0476149
0.0472186
0.0471367
0.0467859
0.0473189
0.0466089
0.0485974
0.0516855
0.0516821
0.051203
0.0507103
0.0501038
0.0495023
0.048897
0.0483419
0.0478058
0.0473958
0.0469678
0.0468786
0.0465321
0.0472039
0.0466217
0.0490797
0.0513679
0.0513747
0.050965
0.050516
0.0499342
0.0493344
0.0487092
0.0481133
0.0475142
0.0470125
0.0464522
0.0461796
0.045542
0.045888
0.0446121
0.047106
0.0511744
0.0511847
0.0508034
0.050369
0.0497904
0.0491793
0.0485288
0.0478933
0.0472424
0.0466751
0.0460445
0.0457122
0.045046
0.0456164
0.0445767
0.0495143
0.0601893
0.0546233
0.0528309
0.051334
0.0504907
0.0498247
0.0493009
0.0488708
0.0484987
0.0482643
0.0480545
0.0481196
0.0480874
0.0486226
0.0487585
0.0497093
0.0559763
0.0542465
0.0526615
0.0514081
0.0505743
0.049909
0.0493768
0.0489471
0.0485822
0.0483654
0.0481796
0.048288
0.0482964
0.0489305
0.04907
0.0503615
0.0540214
0.0533994
0.0522383
0.0513164
0.050547
0.0499085
0.0493702
0.0489352
0.0485671
0.0483572
0.0481871
0.0483408
0.0483988
0.0491714
0.0493737
0.0509693
0.0528154
0.052645
0.0518391
0.0511444
0.0504582
0.0498557
0.0493186
0.0488774
0.0485002
0.0482885
0.0481227
0.048312
0.048412
0.0493162
0.049613
0.0514146
0.0520949
0.0520491
0.0514595
0.0509102
0.050296
0.0497253
0.0491867
0.0487275
0.0483185
0.0480677
0.0478494
0.0479951
0.0480212
0.0489324
0.0491431
0.0511298
0.051605
0.0516001
0.0511467
0.0506855
0.0501231
0.0495736
0.0490308
0.0485518
0.0481109
0.0478245
0.0475657
0.0476995
0.0477117
0.0487644
0.049054
0.0515118
0.0512835
0.0512889
0.0509042
0.0504853
0.0499455
0.0493951
0.0488281
0.0483025
0.0477894
0.0473988
0.0469854
0.0469091
0.046566
0.0472409
0.0466411
0.0490891
0.0510861
0.051095
0.050738
0.0503324
0.049794
0.0492295
0.0486332
0.0480626
0.0474895
0.0470229
0.0465212
0.0463684
0.045952
0.0468402
0.0463383
0.0512626
0.0601464
0.0545812
0.05281
0.051339
0.0505315
0.0499075
0.0494335
0.0490601
0.0487539
0.0485886
0.0484608
0.0485824
0.0486364
0.049122
0.0493205
0.0500107
0.0559334
0.0542034
0.0526402
0.0514133
0.050616
0.0499932
0.0495114
0.049139
0.0488408
0.0486937
0.0485899
0.0487524
0.0488424
0.049405
0.0495913
0.0505198
0.0539755
0.0533524
0.0522125
0.0513169
0.0505842
0.0499886
0.0495007
0.0491229
0.0488206
0.0486792
0.048588
0.0487908
0.0489197
0.0495995
0.0498259
0.0509959
0.0527672
0.0525954
0.0518099
0.0511409
0.0504909
0.0499308
0.0494435
0.0490588
0.0487462
0.0486018
0.048512
0.0487478
0.0489106
0.0497114
0.0500097
0.0513609
0.0520436
0.0519963
0.0514263
0.0509018
0.0503226
0.0497931
0.0493026
0.0488978
0.0485501
0.0483633
0.0482146
0.0484017
0.0484765
0.0492756
0.049455
0.0509796
0.0515506
0.0515443
0.0511098
0.0506725
0.0501439
0.0496341
0.0491373
0.0487104
0.0483278
0.0481024
0.0479082
0.0480821
0.0481326
0.0490758
0.0493057
0.0512995
0.0512256
0.0512297
0.0508631
0.0504671
0.0499595
0.0494466
0.0489227
0.0484455
0.047985
0.0476493
0.0472893
0.0472447
0.0469146
0.0474733
0.0467457
0.0487215
0.0510246
0.0510323
0.0506928
0.0503091
0.0498014
0.0492724
0.0487165
0.0481908
0.0476658
0.0472497
0.0467948
0.0466732
0.0462597
0.0470507
0.0463902
0.0508555
0.0601222
0.0545579
0.052803
0.0513528
0.0505745
0.0499861
0.049556
0.0492346
0.0489928
0.0489008
0.0488686
0.0490831
0.0492793
0.0498408
0.0502276
0.0508518
0.0559094
0.0541794
0.0526331
0.0514274
0.05066
0.0500734
0.0496361
0.0493168
0.0490841
0.0490119
0.0490056
0.0492623
0.0494963
0.0501287
0.0505065
0.0513235
0.0539489
0.053325
0.0522015
0.0513271
0.0506245
0.0500654
0.0496221
0.0492973
0.0490601
0.0489931
0.0489976
0.0492921
0.0495596
0.0502992
0.0507082
0.0517411
0.0527385
0.0525658
0.0517961
0.0511477
0.0505273
0.0500033
0.0495601
0.0492279
0.0489794
0.0489086
0.0489127
0.0492391
0.0495357
0.0503924
0.0508621
0.0520669
0.0520122
0.0519639
0.051409
0.0509042
0.0503538
0.0498592
0.0494114
0.0490572
0.0487709
0.0486546
0.0485945
0.048868
0.0490658
0.0499148
0.0502426
0.051615
0.0515165
0.0515092
0.0510892
0.0506708
0.0501698
0.0496936
0.0492377
0.0488593
0.0485347
0.0483769
0.0482655
0.0485224
0.0486843
0.0496745
0.0500255
0.0518638
0.0511884
0.0511915
0.0508388
0.0504608
0.0499794
0.0494982
0.0490124
0.0485802
0.0481726
0.047898
0.04761
0.047638
0.0473944
0.0479848
0.0473152
0.0491159
0.0509842
0.050991
0.0506648
0.0502983
0.0498154
0.0493163
0.0487958
0.0483116
0.0478343
0.0474737
0.0470812
0.0470246
0.0466778
0.047495
0.0468429
0.0511268
0.0601092
0.0545452
0.0528018
0.0513661
0.0506083
0.0500442
0.0496432
0.0493544
0.0491497
0.0490943
0.0491037
0.0493425
0.0495741
0.0501132
0.050515
0.0510781
0.0558964
0.0541662
0.0526318
0.0514409
0.0506944
0.0501325
0.0497247
0.0494384
0.0492433
0.049208
0.0492435
0.0495236
0.0497915
0.0503946
0.0507824
0.0515107
0.0539339
0.0533093
0.0521973
0.0513376
0.0506559
0.0501218
0.049708
0.049416
0.0492159
0.0491849
0.049229
0.0495438
0.0498386
0.0505388
0.0509458
0.051873
0.0527219
0.0525483
0.0517896
0.0511555
0.0505558
0.0500564
0.0496423
0.0493425
0.0491303
0.0490947
0.0491365
0.0494813
0.0498
0.0506118
0.0510677
0.0521606
0.0519933
0.0519441
0.0513997
0.0509087
0.0503782
0.0499075
0.0494877
0.0491648
0.0489129
0.04883
0.0488041
0.0490932
0.0493057
0.0501049
0.0504029
0.0516603
0.0514954
0.0514873
0.0510773
0.0506721
0.0501903
0.049737
0.049308
0.0489595
0.0486675
0.0485414
0.0484611
0.0487321
0.0489023
0.0498412
0.0501464
0.0518688
0.0511649
0.0511671
0.050824
0.0504586
0.0499954
0.0495359
0.0490753
0.0486709
0.0482929
0.048047
0.047785
0.0478238
0.0475777
0.0481127
0.0473683
0.0490424
0.0509582
0.0509643
0.0506473
0.0502927
0.0498271
0.0493485
0.0488515
0.0483931
0.0479429
0.0476086
0.0472382
0.0471913
0.0468356
0.0476004
0.0468558
0.0510113
0.0601033
0.0545397
0.0528039
0.0513781
0.0506343
0.0500875
0.0497075
0.0494432
0.0492678
0.0492434
0.0492905
0.0495601
0.0498343
0.0503842
0.050821
0.0513559
0.0558905
0.0541604
0.0526338
0.0514531
0.050721
0.0501767
0.0497903
0.0495289
0.0493637
0.0493602
0.0494343
0.0497458
0.0500568
0.0506687
0.0510911
0.0517765
0.0539267
0.0533018
0.0521973
0.0513477
0.0506806
0.0501641
0.0497718
0.0495048
0.0493343
0.0493348
0.0494163
0.0497609
0.0500954
0.0507991
0.0512343
0.05211
0.0527135
0.0525395
0.0517881
0.0511638
0.0505784
0.0500965
0.0497037
0.0494285
0.0492454
0.0492408
0.0493189
0.0496925
0.050048
0.0508605
0.0513379
0.0523761
0.0519834
0.0519337
0.0513962
0.0509146
0.0503979
0.0499442
0.049545
0.0492458
0.0490217
0.0489685
0.0489765
0.0492924
0.0495367
0.0503335
0.0506428
0.0518437
0.051484
0.0514753
0.0510721
0.0506758
0.0502072
0.0497702
0.0493608
0.049035
0.0487694
0.0486714
0.0486224
0.0489185
0.0491153
0.0500495
0.0503546
0.0520197
0.0511517
0.0511535
0.0508167
0.0504598
0.0500091
0.0495649
0.0491227
0.0487395
0.0483855
0.0481653
0.0479305
0.0479911
0.0477632
0.0482885
0.0475231
0.049131
0.0509433
0.0509489
0.050638
0.0502915
0.0498377
0.0493735
0.0488936
0.0484548
0.0480263
0.0477152
0.0473683
0.0473402
0.0469959
0.0477486
0.0469671
0.0510542
0.0601007
0.0545378
0.052805
0.0513842
0.0506468
0.0501078
0.049737
0.0494826
0.0493183
0.0493039
0.0493619
0.049636
0.0499171
0.0504587
0.0508971
0.0514211
0.0558883
0.054158
0.0526351
0.0514593
0.0507337
0.0501972
0.0498201
0.0495686
0.0494144
0.0494208
0.0495052
0.0498204
0.0501369
0.0507383
0.0511613
0.0518305
0.0539236
0.0532985
0.0521977
0.0513527
0.0506923
0.0501837
0.0498005
0.0495434
0.0493835
0.0493932
0.049484
0.0498308
0.0501683
0.0508581
0.0512905
0.0521469
0.0527099
0.0525355
0.0517877
0.0511679
0.0505891
0.0501149
0.0497311
0.0494656
0.0492928
0.0492972
0.0493839
0.0497589
0.0501158
0.0509126
0.0513836
0.0524012
0.051979
0.0519289
0.0513948
0.0509175
0.0504072
0.049961
0.0495705
0.0492807
0.0490664
0.0490217
0.0490375
0.0493543
0.0495982
0.050378
0.0506768
0.0518559
0.0514788
0.0514698
0.0510698
0.0506776
0.0502151
0.0497854
0.0493843
0.0490675
0.0488112
0.0487213
0.0486793
0.0489759
0.0491705
0.0500868
0.0503759
0.0520179
0.0511456
0.0511471
0.0508134
0.0504604
0.0500155
0.0495782
0.0491439
0.048769
0.0484238
0.048211
0.0479823
0.048043
0.047811
0.0483179
0.0475298
0.049111
0.0509363
0.0509417
0.0506337
0.050291
0.0498427
0.0493849
0.0489124
0.0484815
0.048061
0.0477568
0.0474149
0.0473866
0.0470362
0.0477694
0.0469582
0.0510134
0.0698425
0.0591472
0.0555577
0.0526048
0.0508647
0.0494483
0.0482726
0.047166
0.0460659
0.044936
0.043698
0.0423795
0.0408306
0.039188
0.0371715
0.0351506
0.0655497
0.0583648
0.0551498
0.0524918
0.0508193
0.0494404
0.0482777
0.0471802
0.0460889
0.044968
0.0437395
0.0424336
0.0408989
0.0392739
0.0372712
0.0352603
0.063575
0.0573539
0.0545466
0.052221
0.0506712
0.0493679
0.0482352
0.0471553
0.0460746
0.0449623
0.0437446
0.0424518
0.0409362
0.0393324
0.0373554
0.035364
0.062317
0.056534
0.0540622
0.0519654
0.0505276
0.049289
0.048184
0.0471178
0.0460429
0.0449339
0.0437208
0.0424346
0.0409316
0.0393428
0.0373877
0.0354153
0.061569
0.0559189
0.0536503
0.0517029
0.0503574
0.0491761
0.0480989
0.0470456
0.0459745
0.0448652
0.0436523
0.0423666
0.0408712
0.0392921
0.0373606
0.035412
0.0610689
0.05547
0.0533332
0.0514799
0.0502013
0.0490617
0.0480056
0.0469606
0.0458908
0.0447786
0.0435642
0.0422773
0.0407902
0.0392219
0.0373202
0.0354009
0.060755
0.0551723
0.0531052
0.0513028
0.0500633
0.0489477
0.0479023
0.0468579
0.0457833
0.044662
0.0434396
0.0421436
0.0406584
0.0390934
0.0372232
0.035336
0.0605776
0.0550002
0.0529635
0.0511824
0.0499587
0.0488507
0.0478062
0.0467567
0.0456737
0.0445421
0.0433126
0.0420099
0.0405318
0.038976
0.0371465
0.0352973
0.0655468
0.0583589
0.0551391
0.0524756
0.0507973
0.0494115
0.0482462
0.0471432
0.0460369
0.0448999
0.0436501
0.0423224
0.0407549
0.039106
0.037057
0.0350455
0.0613096
0.0579057
0.0548706
0.0524445
0.0507978
0.049429
0.0482656
0.0471644
0.0460584
0.0449232
0.0436767
0.0423547
0.0407951
0.0391576
0.037122
0.0351242
0.0593329
0.056979
0.0543345
0.0522337
0.0506866
0.0493771
0.0482338
0.0471435
0.0460427
0.0449124
0.0436736
0.0423619
0.0408194
0.0392003
0.0371872
0.0352058
0.0580874
0.0561735
0.0538755
0.0520042
0.0505622
0.0493114
0.0481907
0.0471104
0.0460132
0.0448849
0.0436504
0.0423448
0.0408149
0.0392106
0.0372192
0.0352569
0.0573451
0.0555544
0.0534696
0.0517498
0.0503988
0.0492035
0.048109
0.0470404
0.0459469
0.0448183
0.0435844
0.0422799
0.0407584
0.0391643
0.037197
0.0352579
0.0568477
0.0551001
0.0531534
0.0515296
0.0502459
0.049092
0.0480181
0.0469581
0.0458666
0.0447362
0.0435022
0.0421982
0.0406872
0.0391057
0.0371708
0.0352612
0.0565352
0.0547995
0.0529256
0.0513538
0.0501098
0.0489798
0.0479164
0.0468577
0.0457622
0.0446236
0.0433828
0.0420708
0.0405635
0.0389862
0.0370857
0.0352075
0.0563584
0.0546264
0.0527845
0.0512348
0.0500072
0.0488852
0.0478224
0.0467588
0.0456569
0.0445093
0.0432635
0.0419471
0.0404503
0.038885
0.0370301
0.0351902
0.0635846
0.0573614
0.0545568
0.0522342
0.0506905
0.0493968
0.0482804
0.0472137
0.0461347
0.0450259
0.0437936
0.0424886
0.0408995
0.0392431
0.0370451
0.03496
0.0593477
0.0569951
0.05436
0.0522691
0.0507352
0.049444
0.0483205
0.0472503
0.0461692
0.0450616
0.0438331
0.0425348
0.0409547
0.0393114
0.0371245
0.0350529
0.0573765
0.0561323
0.0539018
0.0521369
0.0506788
0.049427
0.0483101
0.0472425
0.0461621
0.0450572
0.043836
0.042548
0.0409856
0.0393602
0.0371919
0.0351302
0.0561463
0.0553538
0.0534797
0.0519456
0.0505829
0.0493803
0.0482787
0.0472163
0.0461364
0.0450319
0.0438144
0.0425329
0.0409844
0.0393752
0.0372293
0.0351871
0.0554136
0.0547458
0.053092
0.0517106
0.0504345
0.0492819
0.0482015
0.0471472
0.046068
0.0449607
0.043742
0.0424596
0.0409189
0.039319
0.0371999
0.0351832
0.0549216
0.0542951
0.0527827
0.0514981
0.0502875
0.0491735
0.0481111
0.0470632
0.0459839
0.044873
0.0436532
0.0423709
0.0408426
0.039258
0.0371806
0.0352006
0.0546112
0.0539952
0.0525572
0.0513248
0.0501528
0.0490605
0.0480062
0.0469572
0.045871
0.0447484
0.0435181
0.0422231
0.0406963
0.0391126
0.0370801
0.0351382
0.0544344
0.0538215
0.0524161
0.0512057
0.0500493
0.0489631
0.0479079
0.0468527
0.0457578
0.0446238
0.0433868
0.0420854
0.0405719
0.0390027
0.0370338
0.0351423
0.0623383
0.0565536
0.0540963
0.0520169
0.0506048
0.0493994
0.0483365
0.047314
0.0462716
0.0452031
0.0439976
0.0427292
0.041113
0.0394561
0.0370299
0.0348496
0.0581147
0.0562022
0.0539267
0.0520805
0.0506722
0.0494637
0.0483884
0.0473591
0.0463136
0.0452463
0.0440454
0.0427859
0.0411814
0.0395438
0.0371308
0.0349669
0.0561583
0.0553653
0.0535046
0.0519862
0.0506444
0.0494665
0.0483902
0.0473585
0.0463112
0.0452454
0.044052
0.0428038
0.0412184
0.0395987
0.0371956
0.0350282
0.054942
0.0546037
0.0531017
0.0518145
0.0505634
0.0494298
0.0483644
0.0473348
0.046286
0.0452197
0.04403
0.0427893
0.0412194
0.0396183
0.0372371
0.0350886
0.0542189
0.0540059
0.0527252
0.0515907
0.0504232
0.049336
0.0482883
0.0472635
0.0462126
0.0451408
0.0439474
0.0427031
0.0411393
0.0395458
0.0371933
0.0350731
0.0537323
0.0535601
0.052421
0.0513827
0.050279
0.0492283
0.0481963
0.0471756
0.0461225
0.0450451
0.0438495
0.0426045
0.041056
0.0394818
0.0371851
0.0351136
0.0534242
0.0532621
0.0521971
0.0512104
0.050144
0.0491129
0.0480867
0.0470617
0.0459979
0.0449038
0.0436925
0.0424275
0.0408762
0.0392957
0.037059
0.0350344
0.0532474
0.0530882
0.0520555
0.0510903
0.0500385
0.0490121
0.0479832
0.0469495
0.0458744
0.0447656
0.0435455
0.0422716
0.040738
0.0391766
0.0370331
0.035081
0.0616012
0.0559506
0.0537157
0.05181
0.0505238
0.0494156
0.0484272
0.0474749
0.0464995
0.0455092
0.0443727
0.0431973
0.0415973
0.0400026
0.0372832
0.03498
0.0573836
0.0555946
0.0535522
0.0518826
0.0506001
0.0494878
0.0484857
0.0475267
0.0465491
0.045562
0.0444327
0.0432712
0.0416886
0.0401247
0.037421
0.0351316
0.055436
0.0547673
0.0531467
0.0518069
0.0505876
0.0495016
0.0484946
0.0475308
0.0465503
0.0455648
0.0444445
0.0432971
0.0417361
0.0401918
0.0374824
0.0351648
0.0542293
0.0540157
0.0527549
0.0516463
0.0505152
0.0494705
0.0484714
0.0475073
0.0465239
0.0455372
0.0444211
0.0432834
0.0417411
0.0402211
0.037533
0.035235
0.0535133
0.0534254
0.0523863
0.0514299
0.0503799
0.0493787
0.0483937
0.0474307
0.0464416
0.0454455
0.0443218
0.0431765
0.0416374
0.0401232
0.0374677
0.0352068
0.0530309
0.0529838
0.0520858
0.0512248
0.0502367
0.0492697
0.0482975
0.0473353
0.0463405
0.0453354
0.044207
0.0430594
0.0415386
0.0400512
0.0374741
0.0352885
0.0527242
0.0526871
0.0518628
0.0510523
0.0500994
0.0491496
0.0481796
0.047208
0.0461965
0.0451663
0.0440122
0.0428305
0.0412956
0.0397868
0.0372889
0.0351686
0.0525464
0.0525122
0.0517198
0.0509299
0.0499898
0.0490426
0.048067
0.0470826
0.0460548
0.0450038
0.0438352
0.0426379
0.0411227
0.0396379
0.037277
0.0352793
0.0610981
0.0554995
0.0534199
0.0516381
0.0504598
0.0494415
0.0485308
0.0476553
0.0467553
0.0458531
0.0447941
0.0437217
0.042127
0.0405843
0.0374135
0.0348993
0.056883
0.0551366
0.0532561
0.0517127
0.0505392
0.0495168
0.0485929
0.0477113
0.0468103
0.0459135
0.0448647
0.0438124
0.042242
0.0407448
0.0375735
0.035014
0.054939
0.05431
0.0528545
0.0516419
0.0505311
0.0495338
0.0486035
0.0477161
0.046812
0.0459176
0.0448794
0.0438449
0.0422972
0.0408173
0.0375944
0.0349259
0.0537374
0.0535626
0.0524666
0.0514849
0.0504609
0.0495033
0.048579
0.0476899
0.0467819
0.0458859
0.0448526
0.0438303
0.0423039
0.0408539
0.0376415
0.0349784
0.0530251
0.052976
0.052101
0.0512705
0.0503259
0.0494095
0.0484963
0.0476051
0.0466875
0.0457779
0.0447319
0.0436968
0.0421679
0.0407206
0.0375431
0.0349311
0.0525448
0.0525364
0.0518018
0.0510655
0.0501811
0.0492969
0.0483936
0.0475
0.0465734
0.0456512
0.0445977
0.0435593
0.0420536
0.0406469
0.0375852
0.0350999
0.052238
0.0522397
0.051578
0.050891
0.0500398
0.0491701
0.0482651
0.0473569
0.0464066
0.0454495
0.0443577
0.0432673
0.0417309
0.0402818
0.0373311
0.0349521
0.0520585
0.0520631
0.0514327
0.0507652
0.0499253
0.049056
0.048142
0.0472166
0.0462449
0.0452606
0.044149
0.043038
0.0415292
0.0401253
0.0373946
0.0352645
0.0607619
0.0551813
0.053203
0.0515111
0.0504248
0.0494936
0.0486699
0.0478895
0.047096
0.0463309
0.0454283
0.0445849
0.0431908
0.0419965
0.0386467
0.0361797
0.0565481
0.0548136
0.0530377
0.051586
0.0505055
0.0495711
0.0487352
0.0479502
0.0471577
0.0464013
0.0455131
0.0446989
0.0433384
0.0422135
0.0388412
0.0362222
0.0546045
0.0539846
0.0526347
0.0515145
0.0504968
0.0495873
0.0487447
0.0479539
0.0471585
0.0464061
0.0455314
0.0447419
0.0434101
0.0423144
0.0388517
0.0360355
0.0534048
0.0532384
0.0522474
0.0513573
0.0504256
0.0495547
0.0487168
0.0479231
0.047123
0.0463692
0.0455005
0.0447289
0.0434251
0.0423771
0.0389213
0.0360962
0.0526937
0.0526526
0.0518818
0.0511418
0.050288
0.0494561
0.0486263
0.047827
0.0470128
0.0462403
0.0453524
0.0445619
0.0432477
0.0422035
0.0387849
0.0360369
0.0522135
0.0522132
0.051582
0.0509348
0.0501396
0.0493374
0.0485145
0.0477089
0.0468813
0.0460912
0.0451906
0.0443946
0.0431053
0.0421216
0.0388609
0.036328
0.0519054
0.0519151
0.051356
0.0507565
0.0499925
0.0492016
0.0483722
0.0475454
0.0466842
0.0458449
0.0448851
0.0440057
0.042644
0.0415657
0.0384078
0.0360444
0.0517231
0.0517359
0.0512074
0.0506261
0.0498714
0.049078
0.0482354
0.0473854
0.0464951
0.0456179
0.0446257
0.0437109
0.0423688
0.0413496
0.0384885
0.036631
0.0605256
0.0549523
0.0530445
0.0514198
0.05041
0.0495559
0.0488124
0.0481205
0.0474248
0.0467786
0.0460039
0.0453236
0.0440401
0.0429757
0.0391615
0.0360283
0.0563121
0.0545809
0.0528775
0.0514942
0.050491
0.0496348
0.0488801
0.0481848
0.0474915
0.0468563
0.0460986
0.0454531
0.0442023
0.0432023
0.0392092
0.0353302
0.0543665
0.0537477
0.0524702
0.0514187
0.0504786
0.0496479
0.0488865
0.0481854
0.0474895
0.0468593
0.0461161
0.0454996
0.044273
0.0432898
0.0390804
0.0345856
0.0531666
0.0530005
0.052081
0.051259
0.0504041
0.0496111
0.0488535
0.0481486
0.0474468
0.0468153
0.0460781
0.0454832
0.0442855
0.0433563
0.039122
0.0344999
0.0524544
0.0524135
0.0517133
0.0510402
0.0502617
0.0495056
0.0487536
0.0480398
0.0473196
0.0466641
0.0458999
0.0452791
0.0440586
0.0431309
0.0389306
0.0344082
0.051973
0.0519728
0.0514113
0.0508298
0.0501082
0.0493796
0.0486317
0.0479083
0.0471704
0.0464934
0.0457122
0.0450867
0.0438957
0.0430609
0.0390846
0.0348901
0.0516623
0.0516723
0.0511819
0.0506469
0.0499544
0.0492338
0.048475
0.047724
0.0469434
0.0462037
0.0453428
0.0446053
0.0432974
0.0423195
0.0384394
0.0344606
0.0514767
0.0514899
0.0510294
0.0505113
0.0498264
0.0491003
0.0483244
0.0475452
0.0467289
0.0459436
0.0450426
0.0442677
0.0429917
0.0421477
0.0387311
0.035661
0.0512272
0.0512405
0.050819
0.0503361
0.0496903
0.0489984
0.0482514
0.0474953
0.0466969
0.0459249
0.0450316
0.0442598
0.0429771
0.0421198
0.0386616
0.0355334
0.0512731
0.0512859
0.0508239
0.0503039
0.0496176
0.0488855
0.0480962
0.0472895
0.046433
0.0455814
0.0446053
0.0436989
0.0423511
0.0413181
0.0384136
0.0365113
0.0514467
0.0514505
0.0509052
0.0503194
0.0495718
0.0487841
0.0479431
0.0470772
0.0461524
0.0452034
0.0441146
0.0430156
0.0415022
0.0400837
0.0373111
0.0351399
0.0518083
0.0517732
0.0510781
0.0503841
0.0495566
0.0487087
0.0478207
0.0469089
0.0459387
0.0449313
0.0437915
0.0426104
0.0410939
0.0395967
0.0372
0.0351657
0.0524106
0.0522504
0.0513243
0.0504661
0.0495402
0.0486286
0.0476993
0.0467478
0.0457385
0.0446798
0.0434932
0.0422388
0.040707
0.0391357
0.0369622
0.0349773
0.0535305
0.052918
0.0516269
0.0505329
0.0495123
0.0485509
0.0476041
0.0466369
0.0456129
0.0445328
0.0433324
0.0420525
0.0405431
0.0389656
0.0369711
0.0350494
0.0554072
0.0536786
0.0519579
0.0505309
0.049445
0.0484509
0.0475027
0.0465338
0.0455062
0.0444153
0.0432081
0.0419146
0.0404236
0.0388515
0.0369742
0.0351063
0.059626
0.0540611
0.052148
0.0504894
0.0494066
0.0484234
0.0474923
0.0465391
0.0455305
0.0444547
0.043263
0.0419823
0.0405095
0.0389462
0.0370941
0.0352162
0.0510955
0.0511071
0.0507176
0.0502695
0.0496689
0.0490255
0.04833
0.0476293
0.0468876
0.0461778
0.0453359
0.0446094
0.0432932
0.0422969
0.0383438
0.0342718
0.0511368
0.0511482
0.0507175
0.0502313
0.0495883
0.0489021
0.0481605
0.047404
0.0465975
0.0458
0.0448673
0.0440035
0.0426341
0.0415361
0.0383048
0.0358681
0.0513057
0.0513082
0.0507938
0.0502409
0.0495344
0.0487898
0.0479924
0.0471708
0.046288
0.0453821
0.0443235
0.0432515
0.0417081
0.0402383
0.037221
0.0347794
0.0516629
0.0516267
0.050962
0.0503006
0.049513
0.0487056
0.0478583
0.0469865
0.0460533
0.0450825
0.0439677
0.0428086
0.0412713
0.0397451
0.0371927
0.0350181
0.0522613
0.0521001
0.0512041
0.0503776
0.0494907
0.0486177
0.047726
0.0468106
0.0458336
0.0448052
0.0436382
0.0423992
0.0408499
0.0392558
0.0369754
0.0349044
0.0533783
0.0527652
0.0515042
0.0504415
0.0494589
0.0485353
0.0476247
0.046691
0.045697
0.0446441
0.0434614
0.0421947
0.0406733
0.0390788
0.0370105
0.0350272
0.0552537
0.0535254
0.0518348
0.0504384
0.0493895
0.0484313
0.0475178
0.0465811
0.0455815
0.0445156
0.0433245
0.0420427
0.0405433
0.0389577
0.0370273
0.0351117
0.0594728
0.0539099
0.0520268
0.050399
0.0493532
0.0484054
0.0475095
0.0465899
0.0456104
0.044561
0.0433874
0.0421208
0.040643
0.0390691
0.037169
0.0352437
0.0510027
0.0510131
0.050647
0.0502266
0.0496639
0.0490638
0.0484173
0.0477736
0.047097
0.0464681
0.0457188
0.0451138
0.0439109
0.0430477
0.0389429
0.0345807
0.0510399
0.0510501
0.0506423
0.0501823
0.0495754
0.0489295
0.0482327
0.0475268
0.046776
0.0460456
0.0451844
0.0444127
0.0431121
0.0420991
0.0387158
0.0360576
0.0512044
0.051206
0.050714
0.0501864
0.0495136
0.0488064
0.0480492
0.0472714
0.0464343
0.0455806
0.0445717
0.0435591
0.0420427
0.0406059
0.0374392
0.0348559
0.0515577
0.0515206
0.0508778
0.0502413
0.049486
0.0487135
0.047903
0.0470698
0.0461754
0.0452467
0.0441691
0.0430515
0.0415267
0.0400152
0.0373563
0.0350905
0.0521527
0.0519908
0.0511163
0.0503138
0.0494582
0.0486178
0.0477597
0.0468783
0.0459343
0.0449396
0.0438
0.0425887
0.0410423
0.03945
0.037091
0.0349546
0.0532673
0.0526537
0.0514142
0.0503752
0.0494226
0.0485307
0.047652
0.0467494
0.0457848
0.0447609
0.0436006
0.0423546
0.0408334
0.0392356
0.0371096
0.035074
0.0551415
0.0534134
0.0517441
0.050371
0.0493511
0.0484228
0.0475395
0.0466323
0.0456596
0.0446194
0.0434474
0.0421819
0.0406818
0.0390909
0.0371174
0.0351593
0.0593608
0.0537995
0.0519378
0.0503333
0.0493167
0.0483983
0.0475329
0.0466439
0.0456921
0.0446693
0.0435162
0.042267
0.0407905
0.0392123
0.0372727
0.0353043
0.0509373
0.0509464
0.0505974
0.0501979
0.0496642
0.0490972
0.0484876
0.0478842
0.0472489
0.0466623
0.0459465
0.0453614
0.0441291
0.0431659
0.0387602
0.0339572
0.0509707
0.0509799
0.0505886
0.0501484
0.0495693
0.0489545
0.0482916
0.0476222
0.0469079
0.0462146
0.0453811
0.0446279
0.0433014
0.0422212
0.0386159
0.0356718
0.0511317
0.0511323
0.0506565
0.0501478
0.049501
0.0488229
0.0480966
0.0473512
0.0465454
0.0457223
0.0447342
0.0437348
0.0421929
0.0407068
0.0373752
0.0346192
0.0514817
0.0514438
0.0508167
0.050199
0.0494685
0.0487231
0.0479413
0.0471374
0.0462707
0.0453685
0.0443084
0.0432024
0.0416586
0.0401146
0.0373441
0.0349719
0.0520739
0.0519113
0.0510523
0.0502678
0.0494362
0.0486214
0.0477898
0.0469349
0.0460152
0.0450433
0.0439183
0.0427165
0.0411558
0.0395406
0.0371042
0.0348976
0.0531865
0.0525725
0.0513483
0.0503271
0.0493977
0.0485309
0.0476775
0.0467995
0.0458576
0.0448545
0.0437078
0.0424708
0.0409398
0.039325
0.0371433
0.0350553
0.0550598
0.0533318
0.0516779
0.0503222
0.0493247
0.04842
0.0475609
0.0466773
0.045726
0.0447052
0.0435461
0.0422893
0.0407826
0.0391791
0.0371642
0.035165
0.0592793
0.0537191
0.0518729
0.0502859
0.049292
0.0483968
0.047556
0.0466919
0.0457624
0.0447603
0.0436216
0.0423831
0.0409025
0.0393139
0.0373361
0.0353267
0.0508935
0.0509018
0.0505654
0.0501823
0.0496719
0.0491326
0.0485552
0.0479887
0.0473944
0.0468542
0.0461857
0.045648
0.0444412
0.0434669
0.0389001
0.0337857
0.0509238
0.0509323
0.0505531
0.0501284
0.0495713
0.0489821
0.0483486
0.0477121
0.0470333
0.0463793
0.0455832
0.0448671
0.0435528
0.0424617
0.0387223
0.0355811
0.0510817
0.0510817
0.0506178
0.0501237
0.0494973
0.0488429
0.0481431
0.0474265
0.0466506
0.0458595
0.0448993
0.0439264
0.0423864
0.0408878
0.03745
0.0345678
0.0514289
0.0513905
0.0507749
0.0501715
0.0494604
0.0487369
0.0479792
0.047201
0.04636
0.0454845
0.0444462
0.04336
0.041815
0.0402603
0.0374141
0.0349603
0.0520189
0.0518558
0.0510081
0.0502371
0.0494243
0.04863
0.0478202
0.0469881
0.0460907
0.045141
0.0440333
0.0428461
0.041283
0.0396585
0.0371677
0.0349052
0.0531299
0.0525155
0.0513025
0.0502946
0.049383
0.0485362
0.0477036
0.0468465
0.0459247
0.0449412
0.0438093
0.0425843
0.041051
0.0394279
0.0372054
0.0350745
0.0550024
0.0532744
0.0516316
0.0502889
0.0493087
0.0484227
0.0475832
0.0467195
0.0457868
0.0447838
0.043638
0.0423915
0.0408832
0.0392727
0.0372267
0.0351933
0.059222
0.0536626
0.0518277
0.0502539
0.0492773
0.0484004
0.0475796
0.0467363
0.0458261
0.0448425
0.043718
0.0424908
0.0410101
0.0394154
0.0374086
0.0353648
0.0508649
0.0508725
0.0505449
0.0501731
0.049679
0.0491587
0.0486029
0.0480598
0.0474892
0.0469717
0.0463197
0.0457876
0.0445597
0.0435258
0.0388041
0.0334571
0.0508927
0.0509006
0.0505299
0.0501159
0.0495742
0.0490029
0.0483892
0.047774
0.0471162
0.0464822
0.0456997
0.0449889
0.043655
0.042519
0.0386595
0.0353701
0.0510483
0.0510478
0.0505921
0.0501082
0.0494962
0.0488585
0.0481767
0.0474792
0.0467216
0.0459477
0.0449983
0.0440299
0.0424728
0.0409412
0.0374137
0.0344339
0.0513935
0.0513546
0.050747
0.0501536
0.0494562
0.0487482
0.0480073
0.0472464
0.0464217
0.0455613
0.0445325
0.0434506
0.0418927
0.0403146
0.0374053
0.0348871
0.0519818
0.0518183
0.0509783
0.0502169
0.0494174
0.0486376
0.0478432
0.0470269
0.0461441
0.0452079
0.0441085
0.0429257
0.0413532
0.0397123
0.0371768
0.0348699
0.0530916
0.052477
0.0512716
0.0502731
0.0493742
0.0485416
0.0477239
0.0468815
0.0459734
0.0450025
0.0438786
0.0426582
0.0411183
0.039483
0.0372271
0.035062
0.0549635
0.0532355
0.0516003
0.0502669
0.0492989
0.0484263
0.0476011
0.0467514
0.0458319
0.0448408
0.0437029
0.0424613
0.0409487
0.039329
0.0372576
0.0351967
0.0591832
0.0536244
0.0517973
0.0502328
0.0492686
0.048405
0.0475986
0.0467703
0.0458737
0.0449028
0.0437873
0.0425661
0.0410825
0.0394799
0.0374491
0.035378
0.0508482
0.0508554
0.0505335
0.0501694
0.0496863
0.0491794
0.0486391
0.0481137
0.047562
0.0470644
0.0464307
0.0459127
0.0446847
0.0436277
0.0388194
0.033317
0.0508743
0.0508819
0.0505167
0.0501098
0.0495786
0.0490196
0.0484201
0.0478207
0.0471795
0.0465627
0.0457949
0.0450953
0.0437586
0.0426041
0.0386754
0.0352891
0.0510283
0.0510275
0.0505771
0.0501
0.0494976
0.0488713
0.0482024
0.0475189
0.0467755
0.0460161
0.0450783
0.0441185
0.0425576
0.0410118
0.0374316
0.034387
0.0513721
0.0513329
0.0507304
0.0501437
0.0494555
0.0487579
0.0480287
0.0472803
0.0464681
0.0456201
0.0446007
0.0435257
0.0419641
0.0403755
0.0374284
0.0348671
0.0519592
0.0517955
0.0509605
0.0502053
0.0494146
0.0486446
0.047861
0.0470559
0.046184
0.0452584
0.0441669
0.0429898
0.0414145
0.0397658
0.0372031
0.0348661
0.0530682
0.0524534
0.051253
0.0502606
0.0493701
0.0485471
0.0477395
0.0469074
0.0460093
0.045048
0.0439312
0.0427157
0.0411738
0.0395323
0.0372557
0.0350674
0.0549396
0.0532116
0.0515814
0.0502539
0.0492939
0.0484304
0.0476148
0.0467751
0.0458649
0.0448826
0.0437513
0.0425143
0.0410004
0.0393759
0.0372884
0.0352088
0.0591595
0.053601
0.0517788
0.0502205
0.0492644
0.0484096
0.047613
0.0467951
0.0459082
0.0449466
0.0438382
0.0426222
0.0411379
0.039531
0.037485
0.0353951
0.0508403
0.0508473