/*--------------------------------*- C++ -*----------------------------------*\
| =========                 |                                                 |
| \\      /  F ield         | OpenFOAM: The Open Source CFD Toolbox           |
|  \\    /   O peration     | Version:  v1912                                 |
|   \\  /    A nd           | Website:  www.openfoam.com                      |
|    \\/     M anipulation  |                                                 |
\*---------------------------------------------------------------------------*/
FoamFile
{
    version     2.0;
    format      ascii;
    class       surfaceScalarField;
    location    "0.45/fluid";
    object      phi;
}
// * * * * * * * * * * * * * * * * * * * * * * * * * * * * * * * * * * * * * //

dimensions      [0 3 -1 0 0 0 0];
oriented        oriented;


internalField   nonuniform List<scalar> 
41600
(
5.0493e-05
1.22083e-05
3.53731e-07
-5.5506e-07
4.13714e-05
9.45934e-06
4.66401e-07
-8.04185e-07
3.52001e-05
6.51145e-06
2.24679e-07
-5.6476e-07
3.17753e-05
3.7057e-06
-2.03646e-07
-7.7342e-08
2.98864e-05
2.09058e-06
-7.73372e-07
5.71728e-07
2.87696e-05
1.24144e-06
-1.4702e-06
1.34552e-06
2.79572e-05
8.67418e-07
-2.32164e-06
2.26662e-06
2.72126e-05
7.29502e-07
-3.37376e-06
3.3889e-06
2.64069e-05
7.1095e-07
-4.69444e-06
4.78914e-06
2.54499e-05
7.38437e-07
-6.38321e-06
6.60186e-06
2.42589e-05
7.79062e-07
-8.59232e-06
9.00424e-06
2.26765e-05
7.51465e-07
-1.14892e-05
1.23201e-05
2.04515e-05
6.623e-07
-1.54854e-05
1.7048e-05
1.68995e-05
1.75844e-07
-2.04068e-05
2.3783e-05
1.06701e-05
-2.7311e-07
-2.63733e-05
3.28758e-05
-2.78679e-06
-2.21886e-05
3.56454e-05
6.51072e-05
9.87484e-06
4.32753e-07
-7.064e-07
6.45174e-05
1.05336e-05
5.44436e-07
-1.02896e-06
6.29898e-05
8.56259e-06
1.77653e-07
-7.01131e-07
6.12965e-05
5.86078e-06
-4.91247e-07
2.94508e-08
5.98068e-05
3.93315e-06
-1.40432e-06
1.05142e-06
5.85165e-05
2.76669e-06
-2.54651e-06
2.31157e-06
5.72981e-05
2.2087e-06
-3.95991e-06
3.83704e-06
5.60085e-05
2.03023e-06
-5.72112e-06
5.70999e-06
5.45176e-05
2.08949e-06
-7.94322e-06
8.05562e-06
5.26735e-05
2.28921e-06
-1.07928e-05
1.10861e-05
5.03036e-05
2.57474e-06
-1.45159e-05
1.50902e-05
4.70393e-05
2.85448e-06
-1.94095e-05
2.05708e-05
4.23798e-05
3.10911e-06
-2.60561e-05
2.82687e-05
3.48052e-05
2.98147e-06
-3.43041e-05
3.90731e-05
2.26777e-05
2.57481e-06
-4.35432e-05
5.28228e-05
-4.25207e-07
-3.61254e-05
5.64415e-05
6.62329e-05
6.4307e-06
4.47877e-07
-7.36631e-07
6.84537e-05
8.83127e-06
5.52431e-07
-1.07099e-06
6.93713e-05
8.21153e-06
1.56154e-07
-7.2267e-07
6.92791e-05
6.45849e-06
-5.57556e-07
5.20796e-08
6.86793e-05
4.92461e-06
-1.53187e-06
1.14019e-06
6.78124e-05
3.89929e-06
-2.75587e-06
2.49018e-06
6.67579e-05
3.40779e-06
-4.27567e-06
4.13107e-06
6.54847e-05
3.32729e-06
-6.17453e-06
6.15065e-06
6.39067e-05
3.55817e-06
-8.57398e-06
8.68325e-06
6.18709e-05
4.02278e-06
-1.16562e-05
1.19584e-05
5.91657e-05
4.67603e-06
-1.56851e-05
1.6289e-05
5.53444e-05
5.44305e-06
-2.09968e-05
2.22296e-05
4.97811e-05
6.29955e-06
-2.82032e-05
3.05761e-05
4.07162e-05
6.8863e-06
-3.72149e-05
4.2375e-05
2.62956e-05
6.86073e-06
-4.72871e-05
5.74218e-05
3.22602e-06
-3.95576e-05
6.22019e-05
6.50029e-05
4.21759e-06
4.61151e-07
-7.50934e-07
6.75187e-05
6.83994e-06
5.77542e-07
-1.102e-06
6.92352e-05
7.06843e-06
1.87268e-07
-7.60703e-07
6.99995e-05
6.20598e-06
-5.18956e-07
7.16308e-09
7.00848e-05
5.23659e-06
-1.48242e-06
1.08513e-06
6.97032e-05
4.55168e-06
-2.69197e-06
2.42119e-06
6.8978e-05
4.28233e-06
-4.19245e-06
4.04311e-06
6.79287e-05
4.40509e-06
-6.06617e-06
6.03768e-06
6.65034e-05
4.87862e-06
-8.43227e-06
8.53714e-06
6.45604e-05
5.66745e-06
-1.14744e-05
1.17728e-05
6.18769e-05
6.75676e-06
-1.54537e-05
1.60564e-05
5.79685e-05
8.11072e-06
-2.07232e-05
2.19639e-05
5.21407e-05
9.72179e-06
-2.78914e-05
3.02969e-05
4.25406e-05
1.12151e-05
-3.69477e-05
4.2219e-05
2.71504e-05
1.18455e-05
-4.7154e-05
5.75594e-05
7.05988e-06
-3.971e-05
6.30265e-05
6.41372e-05
2.86853e-06
4.82339e-07
-7.7044e-07
6.63373e-05
5.16346e-06
6.2566e-07
-1.14932e-06
6.81783e-05
5.79978e-06
2.59173e-07
-8.31532e-07
6.93348e-05
5.55985e-06
-4.2174e-07
-8.85713e-08
6.98648e-05
5.10264e-06
-1.35312e-06
9.56977e-07
6.98888e-05
4.79856e-06
-2.51937e-06
2.24851e-06
6.95078e-05
4.81464e-06
-3.95988e-06
3.80855e-06
6.87534e-05
5.19276e-06
-5.75152e-06
5.71834e-06
6.75929e-05
5.94252e-06
-8.00491e-06
8.10142e-06
6.5897e-05
7.07927e-06
-1.08977e-05
1.11819e-05
6.34415e-05
8.63212e-06
-1.46752e-05
1.52553e-05
5.971e-05
1.06379e-05
-1.96984e-05
2.09028e-05
5.39316e-05
1.31494e-05
-2.65465e-05
2.88973e-05
4.40924e-05
1.58533e-05
-3.53238e-05
4.05249e-05
2.79072e-05
1.77145e-05
-4.53021e-05
5.56184e-05
1.17206e-05
-3.84631e-05
6.17095e-05
6.36903e-05
1.96467e-06
5.07977e-07
-7.94403e-07
6.55929e-05
3.78284e-06
6.86362e-07
-1.20831e-06
6.74036e-05
4.55961e-06
3.53045e-07
-9.23576e-07
6.87551e-05
4.71681e-06
-2.94092e-07
-2.14441e-07
6.95794e-05
4.67343e-06
-1.18437e-06
7.89297e-07
6.99223e-05
4.72709e-06
-2.29538e-06
2.02399e-06
6.98518e-05
5.0393e-06
-3.65885e-06
3.50463e-06
6.93963e-05
5.68786e-06
-5.34392e-06
5.30431e-06
6.8532e-05
6.72189e-06
-7.44974e-06
7.53472e-06
6.71362e-05
8.21127e-06
-1.01444e-05
1.04082e-05
6.49833e-05
1.02389e-05
-1.36505e-05
1.41967e-05
6.15237e-05
1.29527e-05
-1.83332e-05
1.9478e-05
5.5912e-05
1.65094e-05
-2.47239e-05
2.69755e-05
4.59346e-05
2.07907e-05
-3.30734e-05
3.81134e-05
2.898e-05
2.46148e-05
-4.26448e-05
5.26991e-05
1.78036e-05
-3.66938e-05
5.95908e-05
6.34998e-05
1.25019e-06
5.38299e-07
-8.23637e-07
6.52411e-05
2.56232e-06
7.57842e-07
-1.27863e-06
6.70336e-05
3.33675e-06
4.64451e-07
-1.03403e-06
6.85133e-05
3.74507e-06
-1.42304e-07
-3.65726e-07
6.95547e-05
4.02767e-06
-9.83852e-07
5.88251e-07
7.01637e-05
4.39204e-06
-2.02877e-06
1.75485e-06
7.03906e-05
4.9723e-06
-3.29841e-06
3.13851e-06
7.02689e-05
5.86024e-06
-4.84998e-06
4.79929e-06
6.97961e-05
7.12996e-06
-6.7647e-06
6.82942e-06
6.88826e-05
8.89937e-06
-9.1896e-06
9.41502e-06
6.73463e-05
1.13009e-05
-1.23049e-05
1.27791e-05
6.46667e-05
1.46315e-05
-1.64497e-05
1.74505e-05
5.99997e-05
1.92053e-05
-2.20434e-05
2.40144e-05
5.07513e-05
2.55561e-05
-2.94789e-05
3.39619e-05
3.36048e-05
3.27973e-05
-3.78844e-05
4.68483e-05
3.01448e-05
-3.31322e-05
5.43958e-05
6.34393e-05
5.71388e-07
-8.56353e-07
5.95888e-07
6.51374e-05
8.35559e-07
-1.35614e-06
1.3848e-06
6.69631e-05
5.85738e-07
-1.15557e-06
2.08085e-06
6.85579e-05
2.27637e-08
-5.31676e-07
2.65914e-06
6.97739e-05
-7.66646e-07
3.69064e-07
3.20926e-06
7.06016e-05
-1.74124e-06
1.46342e-06
3.84219e-06
7.10866e-05
-2.91124e-06
2.74446e-06
4.65408e-06
7.12711e-05
-4.32098e-06
4.25814e-06
5.73859e-06
7.1172e-05
-6.03309e-06
6.0767e-06
7.18548e-06
7.07301e-05
-8.17145e-06
8.35778e-06
9.15489e-06
6.98065e-05
-1.08727e-05
1.12753e-05
1.18219e-05
6.79257e-05
-1.4444e-05
1.53015e-05
1.56548e-05
6.43231e-05
-1.91884e-05
2.08848e-05
2.11114e-05
5.62004e-05
-2.56518e-05
2.95852e-05
2.97455e-05
4.00893e-05
-3.28931e-05
4.08054e-05
4.09961e-05
-3.016e-05
5.007e-05
5.03241e-05
5.04291e-05
1.22136e-05
2.1107e-07
4.11901e-05
9.47526e-06
2.30119e-07
3.48928e-05
6.52983e-06
-7.90527e-09
3.13493e-05
3.72355e-06
-3.83647e-07
2.93425e-05
2.11119e-06
-8.7776e-07
2.80948e-05
1.26851e-06
-1.49104e-06
2.71213e-05
9.04605e-07
-2.25275e-06
2.61685e-05
7.80013e-07
-3.20095e-06
2.50872e-05
7.79544e-07
-4.39264e-06
2.37682e-05
8.3087e-07
-5.89511e-06
2.20972e-05
9.06695e-07
-7.82804e-06
1.99197e-05
9.30291e-07
-1.02419e-05
1.69316e-05
9.23988e-07
-1.34213e-05
1.27279e-05
5.86285e-07
-1.67894e-05
6.23474e-06
2.45226e-07
-2.01253e-05
-1.79256e-06
-1.41613e-05
6.50174e-05
9.88806e-06
2.40941e-07
6.42596e-05
1.05658e-05
2.11596e-07
6.25317e-05
8.60628e-06
-1.70838e-07
6.06296e-05
5.91118e-06
-7.76802e-07
5.89234e-05
3.99416e-06
-1.58109e-06
5.73927e-05
2.84526e-06
-2.59254e-06
5.58837e-05
2.31369e-06
-3.86002e-06
5.42226e-05
2.17106e-06
-5.45106e-06
5.22417e-05
2.27873e-06
-7.46149e-06
4.97499e-05
2.54097e-06
-1.00111e-05
4.65188e-05
2.91113e-06
-1.32893e-05
4.21683e-05
3.29592e-06
-1.74246e-05
3.61375e-05
3.69273e-06
-2.2794e-05
2.73632e-05
3.72235e-06
-2.86659e-05
1.46671e-05
3.38325e-06
-3.39851e-05
3.49181e-07
-2.36001e-05
6.61412e-05
6.44923e-06
2.45506e-07
6.81864e-05
8.87597e-06
1.9714e-07
6.88912e-05
8.27728e-06
-2.19637e-07
6.85732e-05
6.54088e-06
-8.69307e-07
6.7737e-05
5.02779e-06
-1.72933e-06
6.66075e-05
4.03284e-06
-2.81389e-06
6.52369e-05
3.5856e-06
-4.17696e-06
6.35604e-05
3.56597e-06
-5.89296e-06
6.14505e-05
3.87979e-06
-8.0651e-06
5.8709e-05
4.45262e-06
-1.08264e-05
5.50628e-05
5.25078e-06
-1.43786e-05
5.00463e-05
6.19384e-06
-1.88782e-05
4.29701e-05
7.27798e-06
-2.47123e-05
3.25602e-05
8.07079e-06
-3.11534e-05
1.74823e-05
8.12637e-06
-3.69523e-05
3.94263e-06
-2.56688e-05
6.49128e-05
4.24041e-06
2.57219e-07
6.72543e-05
6.89515e-06
2.16831e-07
6.87609e-05
7.15303e-06
-1.95125e-07
6.93035e-05
6.31671e-06
-8.37409e-07
6.91574e-05
5.37826e-06
-1.68673e-06
6.85191e-05
4.73643e-06
-2.75731e-06
6.74854e-05
4.52883e-06
-4.10197e-06
6.60422e-05
4.73736e-06
-5.79436e-06
6.4096e-05
5.32915e-06
-7.93542e-06
6.14588e-05
6.27508e-06
-1.06597e-05
5.78438e-05
7.57741e-06
-1.41653e-05
5.27425e-05
9.19479e-06
-1.86228e-05
4.53879e-05
1.11523e-05
-2.4411e-05
3.44081e-05
1.29565e-05
-3.08537e-05
1.83e-05
1.37646e-05
-3.66841e-05
8.01245e-06
-2.54798e-05
6.40491e-05
2.89536e-06
2.78284e-07
6.60788e-05
5.22832e-06
2.62832e-07
6.77165e-05
5.90085e-06
-1.26435e-07
6.8661e-05
5.69488e-06
-7.44387e-07
6.89721e-05
5.27745e-06
-1.56341e-06
6.87552e-05
5.02767e-06
-2.59365e-06
6.80857e-05
5.12116e-06
-3.88275e-06
6.69632e-05
5.60781e-06
-5.49948e-06
6.53153e-05
6.50925e-06
-7.53711e-06
6.29666e-05
7.85179e-06
-1.01257e-05
5.96288e-05
9.68986e-06
-1.34498e-05
5.47541e-05
1.20606e-05
-1.76894e-05
4.74853e-05
1.5072e-05
-2.31974e-05
3.6259e-05
1.82555e-05
-2.93965e-05
1.92531e-05
2.0502e-05
-3.50337e-05
1.31429e-05
-2.43404e-05
6.36044e-05
1.99522e-06
3.03711e-07
6.53414e-05
3.85604e-06
3.21617e-07
6.69572e-05
4.67415e-06
-3.60331e-08
6.81086e-05
4.87127e-06
-6.21888e-07
6.87293e-05
4.87474e-06
-1.4023e-06
6.88507e-05
4.99195e-06
-2.38108e-06
6.8517e-05
5.39477e-06
-3.59875e-06
6.77263e-05
6.17174e-06
-5.11714e-06
6.64173e-05
7.38777e-06
-7.0193e-06
6.44229e-05
9.12985e-06
-9.42804e-06
6.14544e-05
1.15162e-05
-1.25084e-05
5.6923e-05
1.47078e-05
-1.6449e-05
4.98855e-05
1.89479e-05
-2.15623e-05
3.85341e-05
2.39392e-05
-2.74056e-05
2.06391e-05
2.84887e-05
-3.27365e-05
1.99212e-05
-2.2833e-05
6.34166e-05
1.28364e-06
3.33301e-07
6.49984e-05
2.64157e-06
3.90443e-07
6.66057e-05
3.46063e-06
7.06777e-08
6.78991e-05
3.91269e-06
-4.77089e-07
6.87552e-05
4.24667e-06
-1.2119e-06
6.91671e-05
4.68059e-06
-2.12932e-06
6.91638e-05
5.36002e-06
-3.26035e-06
6.87525e-05
6.38966e-06
-4.65659e-06
6.78991e-05
7.86212e-06
-6.38564e-06
6.64757e-05
9.91853e-06
-8.55483e-06
6.4247e-05
1.27351e-05
-1.12952e-05
6.06506e-05
1.66414e-05
-1.47869e-05
5.47468e-05
2.20685e-05
-1.92602e-05
4.42438e-05
2.93991e-05
-2.44359e-05
2.60644e-05
3.78194e-05
-2.90356e-05
3.31613e-05
-2.0308e-05
6.33588e-05
3.65117e-07
6.31087e-07
6.49041e-05
4.64688e-07
1.46712e-06
6.65552e-05
1.8617e-07
2.20915e-06
6.79782e-05
-3.20418e-07
2.83286e-06
6.90283e-05
-1.00641e-06
3.43638e-06
6.96845e-05
-1.85837e-06
4.1415e-06
6.9974e-05
-2.89711e-06
5.05639e-06
6.99166e-05
-4.16307e-06
6.28911e-06
6.95037e-05
-5.7077e-06
7.94963e-06
6.86446e-05
-7.62084e-06
1.02271e-05
6.71588e-05
-9.99795e-06
1.33462e-05
6.4529e-05
-1.30062e-05
1.78334e-05
5.99136e-05
-1.67891e-05
2.42848e-05
5.07203e-05
-2.1248e-05
3.41886e-05
3.36177e-05
-2.51145e-05
4.71435e-05
-1.81626e-05
5.47816e-05
5.03785e-05
1.22186e-05
1.13991e-07
4.10432e-05
9.48961e-06
7.5785e-08
3.46355e-05
6.54683e-06
-1.46991e-07
3.098e-05
3.74045e-06
-4.68631e-07
2.88564e-05
2.13063e-06
-8.84744e-07
2.74758e-05
1.29354e-06
-1.40401e-06
2.63381e-05
9.38293e-07
-2.0533e-06
2.51728e-05
8.24879e-07
-2.86061e-06
2.38089e-05
8.39106e-07
-3.86783e-06
2.21162e-05
9.08883e-07
-5.11128e-06
1.99486e-05
1.01001e-06
-6.67049e-06
1.71625e-05
1.06708e-06
-8.52288e-06
1.34766e-05
1.1053e-06
-1.08407e-05
8.87725e-06
8.37639e-07
-1.30277e-05
3.03259e-06
4.77241e-07
-1.47579e-05
-1.4043e-06
-9.72438e-06
6.49456e-05
9.901e-06
1.12921e-07
6.40491e-05
1.05965e-05
1.21082e-09
6.21459e-05
8.64811e-06
-3.68911e-07
6.00505e-05
5.95995e-06
-9.00869e-07
5.81349e-05
4.05302e-06
-1.58794e-06
5.63665e-05
2.92025e-06
-2.45085e-06
5.45691e-05
2.41281e-06
-3.53713e-06
5.25409e-05
2.30287e-06
-4.90076e-06
5.00784e-05
2.45448e-06
-6.61445e-06
4.69557e-05
2.77266e-06
-8.75214e-06
4.28997e-05
3.2167e-06
-1.144e-05
3.75478e-05
3.68897e-06
-1.46946e-05
3.03891e-05
4.19432e-06
-1.87244e-05
2.09657e-05
4.32489e-06
-2.27297e-05
9.09744e-06
3.97488e-06
-2.56145e-05
7.82156e-07
-1.66892e-05
6.6068e-05
6.46772e-06
1.10788e-07
6.79681e-05
8.91935e-06
-2.58798e-08
6.8487e-05
8.3409e-06
-4.3125e-07
6.79606e-05
6.62075e-06
-1.00371e-06
6.68968e-05
5.12737e-06
-1.73989e-06
6.55085e-05
4.16074e-06
-2.66614e-06
6.3825e-05
3.75465e-06
-3.8353e-06
6.17512e-05
3.79158e-06
-5.30778e-06
5.91206e-05
4.18234e-06
-7.16236e-06
5.56955e-05
4.85473e-06
-9.48333e-06
5.11536e-05
5.78463e-06
-1.24046e-05
4.5042e-05
6.88341e-06
-1.5961e-05
3.67212e-05
8.16188e-06
-2.0359e-05
2.55574e-05
9.11616e-06
-2.47809e-05
1.12964e-05
9.21618e-06
-2.79326e-05
4.54808e-06
-1.81383e-05
6.48411e-05
4.26322e-06
1.20661e-07
6.70392e-05
6.949e-06
-1.09472e-08
6.83626e-05
7.23498e-06
-4.12645e-07
6.87006e-05
6.42369e-06
-9.78358e-07
6.83314e-05
5.51456e-06
-1.70471e-06
6.744e-05
4.91316e-06
-2.6183e-06
6.61003e-05
4.76345e-06
-3.77103e-06
6.4268e-05
5.05227e-06
-5.22275e-06
6.18104e-05
5.75476e-06
-7.05024e-06
5.84979e-05
6.84678e-06
-9.33927e-06
5.39915e-05
8.34593e-06
-1.22201e-05
4.77886e-05
1.02023e-05
-1.57388e-05
3.91623e-05
1.24693e-05
-2.00921e-05
2.73818e-05
1.45424e-05
-2.44995e-05
1.20413e-05
1.55153e-05
-2.76428e-05
9.01063e-06
-1.7901e-05
6.39794e-05
2.92193e-06
1.40162e-07
6.58693e-05
5.29131e-06
3.05986e-08
6.73302e-05
5.99835e-06
-3.50648e-07
6.80791e-05
5.82471e-06
-8.94284e-07
6.81788e-05
5.44495e-06
-1.59349e-06
6.77233e-05
5.24638e-06
-2.47137e-06
6.67664e-05
5.41283e-06
-3.57528e-06
6.52785e-05
6.00169e-06
-4.96101e-06
6.31491e-05
7.04603e-06
-6.69899e-06
6.01608e-05
8.5815e-06
-8.8721e-06
5.59705e-05
1.06861e-05
-1.15997e-05
5.00279e-05
1.33931e-05
-1.49378e-05
4.15012e-05
1.68618e-05
-1.90632e-05
2.94452e-05
2.04787e-05
-2.32768e-05
1.31015e-05
2.31047e-05
-2.62793e-05
1.47526e-05
-1.69809e-05
6.35368e-05
2.02508e-06
1.63741e-07
6.51389e-05
3.92659e-06
8.43106e-08
6.65855e-05
4.78403e-06
-2.6839e-07
6.75524e-05
5.01906e-06
-7.83107e-07
6.7976e-05
5.06689e-06
-1.44786e-06
6.78773e-05
5.24423e-06
-2.28025e-06
6.728e-05
5.73281e-06
-3.32141e-06
6.61547e-05
6.63126e-06
-4.62142e-06
6.4404e-05
8.01967e-06
-6.24226e-06
6.18192e-05
1.00003e-05
-8.26197e-06
5.80566e-05
1.27251e-05
-1.07848e-05
5.25151e-05
1.6363e-05
-1.38773e-05
4.42624e-05
2.1239e-05
-1.76868e-05
3.20707e-05
2.68918e-05
-2.16271e-05
1.46994e-05
3.21655e-05
-2.4426e-05
2.24209e-05
-1.5802e-05
6.33516e-05
1.31589e-06
1.90933e-07
6.48042e-05
2.71736e-06
1.47025e-07
6.62517e-05
3.57879e-06
-1.71558e-07
6.73735e-05
4.0723e-06
-6.52148e-07
6.80499e-05
4.45503e-06
-1.27642e-06
6.82646e-05
4.95496e-06
-2.05482e-06
6.80288e-05
5.72867e-06
-3.02038e-06
6.73255e-05
6.89303e-06
-4.21502e-06
6.60893e-05
8.55875e-06
-5.6886e-06
6.41554e-05
1.08883e-05
-7.50893e-06
6.12402e-05
1.41009e-05
-9.75574e-06
5.67617e-05
1.85525e-05
-1.24979e-05
4.97815e-05
2.47882e-05
-1.58292e-05
3.84967e-05
3.30494e-05
-1.93087e-05
2.06474e-05
4.26665e-05
-2.16873e-05
3.68234e-05
-1.4063e-05
6.32965e-05
2.19908e-07
6.64576e-07
6.4719e-05
2.14356e-07
1.54524e-06
6.62202e-05
-6.71067e-08
2.3308e-06
6.74855e-05
-5.10861e-07
2.99753e-06
6.83741e-05
-1.09181e-06
3.65179e-06
6.88576e-05
-1.81256e-06
4.42561e-06
6.89479e-05
-2.69744e-06
5.43872e-06
6.86445e-05
-3.77948e-06
6.81287e-06
6.79133e-05
-5.09576e-06
8.678e-06
6.66326e-05
-6.70228e-06
1.12504e-05
6.45838e-05
-8.65295e-06
1.48047e-05
6.1227e-05
-1.10157e-05
1.99187e-05
5.57241e-05
-1.3828e-05
2.733e-05
4.58685e-05
-1.68082e-05
3.84652e-05
2.90053e-05
-1.87753e-05
5.31905e-05
-1.25624e-05
6.02284e-05
5.03392e-05
1.22231e-05
5.16596e-08
4.09267e-05
9.50231e-06
-1.40689e-08
3.44272e-05
6.56217e-06
-2.09665e-07
3.06766e-05
3.75617e-06
-4.74128e-07
2.84538e-05
2.14888e-06
-8.10833e-07
2.69643e-05
1.31712e-06
-1.23163e-06
2.57001e-05
9.70259e-07
-1.75939e-06
2.43851e-05
8.68177e-07
-2.41381e-06
2.28433e-05
8.98048e-07
-3.22405e-06
2.0949e-05
9.89139e-07
-4.20609e-06
1.85654e-05
1.12155e-06
-5.40847e-06
1.55938e-05
1.22548e-06
-6.77679e-06
1.18214e-05
1.33465e-06
-8.40285e-06
7.38312e-06
1.18788e-06
-9.77729e-06
2.25935e-06
9.3589e-07
-1.057e-05
-8.04172e-07
-6.66086e-06
6.4889e-05
9.91295e-06
3.41184e-08
6.38803e-05
1.06241e-05
-1.11952e-07
6.1831e-05
8.68612e-06
-4.43511e-07
5.95706e-05
6.00466e-06
-8.8897e-07
5.74757e-05
4.10695e-06
-1.45115e-06
5.55079e-05
2.98869e-06
-2.15463e-06
5.34793e-05
2.50298e-06
-3.04124e-06
5.11758e-05
2.42278e-06
-4.15188e-06
4.83831e-05
2.61489e-06
-5.53856e-06
4.48763e-05
2.98593e-06
-7.24209e-06
4.03948e-05
3.50202e-06
-9.33898e-06
3.46471e-05
4.06649e-06
-1.17879e-05
2.72422e-05
4.69701e-06
-1.46819e-05
1.80333e-05
4.97975e-06
-1.73127e-05
7.31747e-06
4.74764e-06
-1.87104e-05
1.48949e-06
-1.16653e-05
6.60103e-05
6.48493e-06
2.85113e-08
6.77931e-05
8.95899e-06
-1.43486e-07
6.81567e-05
8.39894e-06
-5.0772e-07
6.74524e-05
6.69362e-06
-9.88418e-07
6.61935e-05
5.21788e-06
-1.59183e-06
6.45875e-05
4.27626e-06
-2.34771e-06
6.26516e-05
3.90636e-06
-3.30283e-06
6.02773e-05
3.99292e-06
-4.50362e-06
5.72854e-05
4.45117e-06
-6.00678e-06
5.3438e-05
5.21092e-06
-7.86092e-06
4.84254e-05
6.25694e-06
-1.01468e-05
4.18693e-05
7.49614e-06
-1.28346e-05
3.32609e-05
8.95526e-06
-1.60089e-05
2.23098e-05
1.00859e-05
-1.89359e-05
9.28953e-06
1.03056e-05
-2.04702e-05
5.32614e-06
-1.26855e-05
6.47847e-05
4.28444e-06
3.64186e-08
6.6867e-05
6.99834e-06
-1.32598e-07
6.80378e-05
7.30967e-06
-4.94172e-07
6.82013e-05
6.52088e-06
-9.69124e-07
6.76409e-05
5.63771e-06
-1.56414e-06
6.65365e-05
5.07168e-06
-2.30932e-06
6.49504e-05
4.97221e-06
-3.25074e-06
6.28249e-05
5.3301e-06
-4.43447e-06
6.00147e-05
6.12683e-06
-5.91565e-06
5.62891e-05
7.34146e-06
-7.74421e-06
5.13205e-05
9.00339e-06
-9.99797e-06
4.46791e-05
1.10542e-05
-1.26555e-05
3.57655e-05
1.35694e-05
-1.57927e-05
2.41901e-05
1.58633e-05
-1.87015e-05
1.00785e-05
1.69871e-05
-2.02127e-05
9.96823e-06
-1.24647e-05
6.39249e-05
2.94647e-06
5.32474e-08
6.57023e-05
5.34886e-06
-9.73285e-08
6.7016e-05
6.08688e-06
-4.41547e-07
6.75982e-05
5.94208e-06
-8.97682e-07
6.75167e-05
5.59549e-06
-1.46977e-06
6.68607e-05
5.44143e-06
-2.1851e-06
6.5673e-05
5.67058e-06
-3.08601e-06
6.39115e-05
6.34602e-06
-4.21538e-06
6.14535e-05
7.5093e-06
-5.62346e-06
5.80801e-05
9.20123e-06
-7.35849e-06
5.34584e-05
1.15157e-05
-9.49023e-06
4.71048e-05
1.44764e-05
-1.20064e-05
3.83051e-05
1.82742e-05
-1.49684e-05
2.644e-05
2.21828e-05
-1.77312e-05
1.12579e-05
2.50342e-05
-1.91443e-05
1.59989e-05
-1.17537e-05
6.34841e-05
2.05241e-06
7.36561e-08
6.49779e-05
3.99069e-06
-5.12858e-08
6.62843e-05
4.88335e-06
-3.71215e-07
6.7094e-05
5.15202e-06
-8.02808e-07
6.73488e-05
5.23876e-06
-1.34588e-06
6.70651e-05
5.46807e-06
-2.0232e-06
6.62565e-05
6.02972e-06
-2.87199e-06
6.48821e-05
7.02969e-06
-3.93069e-06
6.28334e-05
8.55874e-06
-5.24303e-06
5.98998e-05
1.07271e-05
-6.85424e-06
5.57462e-05
1.37075e-05
-8.82309e-06
4.98313e-05
1.76616e-05
-1.11476e-05
4.13294e-05
2.29586e-05
-1.38693e-05
2.9316e-05
2.89997e-05
-1.64305e-05
1.30127e-05
3.46247e-05
-1.77132e-05
2.40686e-05
-1.0859e-05
6.33011e-05
1.34513e-06
9.70754e-08
6.46506e-05
2.78581e-06
2.41627e-09
6.59658e-05
3.6851e-06
-2.88528e-07
6.69417e-05
4.21531e-06
-6.9128e-07
6.74638e-05
4.64066e-06
-1.2004e-06
6.75124e-05
5.19744e-06
-1.8328e-06
6.70899e-05
6.05097e-06
-2.61918e-06
6.61696e-05
7.32678e-06
-3.59182e-06
6.46774e-05
9.1478e-06
-4.78541e-06
6.24471e-05
1.16875e-05
-6.2389e-06
5.92042e-05
1.51891e-05
-7.9944e-06
5.44173e-05
2.00075e-05
-1.0057e-05
4.72407e-05
2.67412e-05
-1.24352e-05
3.61319e-05
3.54861e-05
-1.46863e-05
1.92086e-05
4.5598e-05
-1.57373e-05
3.88759e-05
-9.6618e-06
6.32485e-05
1.21899e-07
6.9466e-07
6.45733e-05
5.99216e-08
1.61538e-06
6.59511e-05
-1.99512e-07
2.43979e-06
6.70821e-05
-5.71159e-07
3.14454e-06
6.78319e-05
-1.04393e-06
3.84305e-06
6.81692e-05
-1.62832e-06
4.67584e-06
6.8099e-05
-2.34798e-06
5.7717e-06
6.76129e-05
-3.22845e-06
7.26189e-06
6.66705e-05
-4.29486e-06
9.28934e-06
6.51502e-05
-5.57869e-06
1.20841e-05
6.2844e-05
-7.10442e-06
1.59467e-05
5.92545e-05
-8.88207e-06
2.14634e-05
5.36257e-05
-1.08868e-05
2.94288e-05
4.39635e-05
-1.28024e-05
4.11425e-05
2.79066e-05
-1.36411e-05
5.65207e-05
-8.62825e-06
6.28483e-05
5.03084e-05
1.22269e-05
1.6319e-08
4.08349e-05
9.51276e-06
-5.33472e-08
3.42608e-05
6.57491e-06
-2.1043e-07
3.04305e-05
3.76929e-06
-4.13114e-07
2.8123e-05
2.164e-06
-6.67378e-07
2.65396e-05
1.33639e-06
-9.84635e-07
2.51666e-05
9.95975e-07
-1.38231e-06
2.37234e-05
9.02401e-07
-1.87302e-06
2.20309e-05
9.43637e-07
-2.47518e-06
1.9968e-05
1.04958e-06
-3.19279e-06
1.74094e-05
1.20288e-06
-4.05279e-06
1.42951e-05
1.33678e-06
-4.99919e-06
1.04812e-05
1.48936e-06
-6.07838e-06
6.2164e-06
1.41306e-06
-6.92552e-06
1.69915e-06
1.21253e-06
-7.2653e-06
-4.83046e-07
-4.47867e-06
6.48444e-05
9.92313e-06
-6.46892e-09
6.37466e-05
1.06475e-05
-1.48894e-07
6.15783e-05
8.71837e-06
-4.18689e-07
5.91807e-05
6.0427e-06
-7.64783e-07
5.69342e-05
4.15273e-06
-1.1934e-06
5.47966e-05
3.04646e-06
-1.72709e-06
5.25715e-05
2.5786e-06
-2.3988e-06
5.00365e-05
2.52263e-06
-3.23704e-06
4.69702e-05
2.74742e-06
-4.27604e-06
4.31524e-05
3.16046e-06
-5.53516e-06
3.83402e-05
3.73269e-06
-7.05666e-06
3.23071e-05
4.36704e-06
-8.78495e-06
2.47787e-05
5.08962e-06
-1.07538e-05
1.58415e-05
5.47709e-06
-1.24395e-05
6.11496e-06
5.31643e-06
-1.30877e-05
1.95763e-06
-7.99106e-06
6.59648e-05
6.49978e-06
-1.294e-08
6.76543e-05
8.9929e-06
-1.78315e-07
6.78917e-05
8.44855e-06
-4.75304e-07
6.70396e-05
6.75593e-06
-8.49539e-07
6.56157e-05
5.29509e-06
-1.3103e-06
6.38244e-05
4.37443e-06
-1.88437e-06
6.16742e-05
4.03472e-06
-2.60877e-06
5.90471e-05
4.16249e-06
-3.51635e-06
5.5756e-05
4.67643e-06
-4.64477e-06
5.15668e-05
5.5076e-06
-6.01881e-06
4.61882e-05
6.64738e-06
-7.68293e-06
3.93109e-05
7.99792e-06
-9.5882e-06
3.05532e-05
9.59735e-06
-1.1759e-05
1.98834e-05
1.08594e-05
-1.36485e-05
7.93359e-06
1.1162e-05
-1.43659e-05
5.91517e-06
-8.70943e-06
6.47404e-05
4.30283e-06
-7.04e-09
6.67308e-05
7.04074e-06
-1.70804e-07
6.77775e-05
7.37368e-06
-4.65995e-07
6.77959e-05
6.60405e-06
-8.35738e-07
6.7074e-05
5.74286e-06
-1.28993e-06
6.57881e-05
5.20662e-06
-1.85569e-06
6.39924e-05
5.14929e-06
-2.56958e-06
6.16198e-05
5.56488e-06
-3.46423e-06
5.85168e-05
6.43997e-06
-4.57619e-06
5.44558e-05
7.75574e-06
-5.93134e-06
4.91265e-05
9.55057e-06
-7.57193e-06
4.21662e-05
1.1758e-05
-9.45527e-06
3.31004e-05
1.44695e-05
-1.1599e-05
2.17983e-05
1.69343e-05
-1.34743e-05
8.74888e-06
1.81705e-05
-1.41718e-05
1.07439e-05
-8.54453e-06
6.38821e-05
2.96772e-06
6.27184e-09
6.55704e-05
5.3983e-06
-1.43199e-07
6.67646e-05
6.16272e-06
-4.2482e-07
6.72084e-05
6.04244e-06
-7.79802e-07
6.69736e-05
5.72396e-06
-1.21614e-06
6.61465e-05
5.60747e-06
-1.75886e-06
6.47621e-05
5.88937e-06
-2.44167e-06
6.27692e-05
6.63736e-06
-3.29493e-06
6.00375e-05
7.89987e-06
-4.35167e-06
5.63503e-05
9.72139e-06
-5.63691e-06
5.13901e-05
1.22079e-05
-7.18745e-06
4.47356e-05
1.53742e-05
-8.96801e-06
3.57898e-05
1.94338e-05
-1.09869e-05
2.4182e-05
2.35715e-05
-1.27606e-05
1.00102e-05
2.65949e-05
-1.33969e-05
1.70383e-05
-8.03793e-06
6.34429e-05
2.07598e-06
2.24556e-08
6.48512e-05
4.04566e-06
-1.06902e-07
6.60439e-05
4.96829e-06
-3.69472e-07
6.67232e-05
5.26556e-06
-7.05255e-07
6.68351e-05
5.38527e-06
-1.11905e-06
6.63933e-05
5.6585e-06
-1.63244e-06
6.54042e-05
6.28171e-06
-2.27527e-06
6.38187e-05
7.36688e-06
-3.0747e-06
6.15212e-05
9.01345e-06
-4.05907e-06
5.83025e-05
1.13376e-05
-5.25173e-06
5.38415e-05
1.45279e-05
-6.68208e-06
4.76528e-05
1.87387e-05
-8.32345e-06
3.90182e-05
2.43707e-05
-1.01716e-05
2.72462e-05
3.07188e-05
-1.18057e-05
1.18789e-05
3.66134e-05
-1.23645e-05
2.5461e-05
-7.40271e-06
6.32619e-05
1.37023e-06
4.09743e-08
6.45302e-05
2.84434e-06
-6.45864e-08
6.57385e-05
3.77584e-06
-3.04446e-07
6.65933e-05
4.33723e-06
-6.17745e-07
6.69847e-05
4.79873e-06
-1.00526e-06
6.6891e-05
5.40359e-06
-1.48414e-06
6.63084e-05
6.3245e-06
-2.07938e-06
6.52032e-05
7.69404e-06
-2.81377e-06
6.34956e-05
9.64512e-06
-3.70947e-06
6.1021e-05
1.23595e-05
-4.78619e-06
5.75178e-05
1.60993e-05
-6.06273e-06
5.25027e-05
2.12167e-05
-7.51979e-06
4.52242e-05
2.83483e-05
-9.13427e-06
3.43444e-05
3.74786e-05
-1.05664e-05
1.82467e-05
4.79756e-05
-1.10017e-05
4.06485e-05
-6.60264e-06
6.32112e-05
6.05389e-08
7.20354e-07
6.44597e-05
-1.9344e-08
1.67517e-06
6.57379e-05
-2.34522e-07
2.53261e-06
6.67579e-05
-5.23587e-07
3.26964e-06
6.739e-05
-8.82974e-07
4.0057e-06
6.76018e-05
-1.32494e-06
4.88842e-06
6.73933e-05
-1.86925e-06
6.0542e-06
6.67508e-05
-2.53392e-06
7.64209e-06
6.56298e-05
-3.33449e-06
9.80566e-06
6.39113e-05
-4.28622e-06
1.27856e-05
6.14003e-05
-5.39669e-06
1.69026e-05
5.76401e-05
-6.65266e-06
2.27475e-05
5.19576e-05
-8.01231e-06
3.11563e-05
4.25269e-05
-9.22492e-06
4.33318e-05
2.71933e-05
-9.55491e-06
5.92229e-05
-5.90937e-06
6.51229e-05
5.02861e-05
1.22299e-05
3.42741e-10
4.07678e-05
9.52091e-06
-5.59794e-08
3.41381e-05
6.58491e-06
-1.65634e-07
3.02484e-05
3.77977e-06
-3.03158e-07
2.78784e-05
2.17616e-06
-4.73625e-07
2.62278e-05
1.35201e-06
-6.86004e-07
2.47804e-05
1.01703e-06
-9.51942e-07
2.32554e-05
9.30827e-07
-1.27881e-06
2.14752e-05
9.82187e-07
-1.67719e-06
1.93266e-05
1.10183e-06
-2.14599e-06
1.66975e-05
1.27474e-06
-2.69851e-06
1.35526e-05
1.43681e-06
-3.29106e-06
9.78844e-06
1.62987e-06
-3.94409e-06
5.67548e-06
1.61294e-06
-4.42549e-06
1.49135e-06
1.46234e-06
-4.54351e-06
-2.26132e-07
-2.76119e-06
6.48118e-05
9.93117e-06
-1.95306e-08
6.3648e-05
1.06659e-05
-1.30081e-07
6.13908e-05
8.74369e-06
-3.20211e-07
5.88901e-05
6.07271e-06
-5.57013e-07
5.65303e-05
4.18884e-06
-8.46301e-07
5.42683e-05
3.092e-06
-1.20506e-06
5.19042e-05
2.63818e-06
-1.65586e-06
4.92132e-05
2.60132e-06
-2.21659e-06
4.5975e-05
2.85201e-06
-2.90764e-06
4.19795e-05
3.29859e-06
-3.73639e-06
3.70051e-05
3.91593e-06
-4.7235e-06
3.08709e-05
4.60704e-06
-5.82099e-06
2.33769e-05
5.40476e-06
-7.03472e-06
1.46966e-05
5.87732e-06
-8.02354e-06
5.56986e-06
5.78102e-06
-8.2797e-06
2.33226e-06
-4.97959e-06
6.59315e-05
6.51153e-06
-2.48459e-08
6.75519e-05
9.01961e-06
-1.52419e-07
6.76948e-05
8.48757e-06
-3.62063e-07
6.67315e-05
6.80493e-06
-6.18425e-07
6.51841e-05
5.35568e-06
-9.29777e-07
6.32565e-05
4.4512e-06
-1.31599e-06
6.09538e-05
4.1347e-06
-1.80257e-06
5.81551e-05
4.29403e-06
-2.41039e-06
5.4674e-05
4.85042e-06
-3.16204e-06
5.02863e-05
5.73581e-06
-4.06832e-06
4.47237e-05
6.94644e-06
-5.15087e-06
3.77267e-05
8.38109e-06
-6.3652e-06
2.89957e-05
1.00862e-05
-7.70956e-06
1.86014e-05
1.14487e-05
-8.82552e-06
7.31156e-06
1.18182e-05
-9.11322e-06
6.37218e-06
-5.43779e-06
6.47081e-05
4.3174e-06
-2.09705e-08
6.66304e-05
7.07417e-06
-1.47726e-07
6.75843e-05
7.42403e-06
-3.56289e-07
6.74937e-05
6.66934e-06
-6.09562e-07
6.66507e-05
5.8251e-06
-9.16415e-07
6.52316e-05
5.31165e-06
-1.29696e-06
6.32868e-05
5.28633e-06
-1.77645e-06
6.07469e-05
5.74537e-06
-2.37562e-06
5.74586e-05
6.6789e-06
-3.11637e-06
5.32041e-05
8.06918e-06
-4.01029e-06
4.76956e-05
9.96062e-06
-5.07758e-06
4.06189e-05
1.22804e-05
-6.2778e-06
3.15805e-05
1.51303e-05
-7.60468e-06
2.05507e-05
1.77152e-05
-8.71115e-06
8.15369e-06
1.90281e-05
-8.98472e-06
1.13104e-05
-5.32901e-06
6.38509e-05
2.98453e-06
-1.17639e-08
6.54734e-05
5.43725e-06
-1.28777e-07
6.65784e-05
6.22229e-06
-3.28039e-07
6.6918e-05
6.12105e-06
-5.71163e-07
6.65686e-05
5.82416e-06
-8.65819e-07
6.56159e-05
5.73623e-06
-1.2307e-06
6.40918e-05
6.05787e-06
-1.68917e-06
6.19429e-05
6.85985e-06
-2.2605e-06
5.90393e-05
8.19517e-06
-2.96434e-06
5.51735e-05
1.011e-05
-3.81193e-06
5.0049e-05
1.27179e-05
-4.82014e-06
4.32898e-05
1.60252e-05
-5.95366e-06
3.43747e-05
2.02593e-05
-7.20079e-06
2.30278e-05
2.45449e-05
-8.24333e-06
9.47266e-06
2.76684e-05
-8.482e-06
1.77495e-05
-5.00444e-06
6.3413e-05
2.09456e-06
-5.65999e-10
6.47582e-05
4.08887e-06
-1.03747e-07
6.58661e-05
5.03488e-06
-2.89899e-07
6.64474e-05
5.35429e-06
-5.19846e-07
6.64524e-05
5.49924e-06
-7.99099e-07
6.58945e-05
5.8057e-06
-1.14404e-06
6.47776e-05
6.47495e-06
-1.57547e-06
6.30504e-05
7.6229e-06
-2.11055e-06
6.0598e-05
9.35449e-06
-2.76599e-06
5.72198e-05
1.17886e-05
-3.55211e-06
5.2614e-05
1.51229e-05
-4.48136e-06
4.63368e-05
1.95035e-05
-5.52442e-06
3.7739e-05
2.5348e-05
-6.66254e-06
2.6215e-05
3.18805e-05
-7.61726e-06
1.14158e-05
3.79162e-05
-7.81305e-06
2.63595e-05
-4.59689e-06
6.32334e-05
1.38994e-06
1.2236e-08
6.4442e-05
2.89025e-06
-7.45623e-08
6.55707e-05
3.84683e-06
-2.45106e-07
6.63346e-05
4.43232e-06
-4.59661e-07
6.66281e-05
4.92142e-06
-7.21014e-07
6.64297e-05
5.56255e-06
-1.04258e-06
6.57336e-05
6.5336e-06
-1.44195e-06
6.45046e-05
7.9717e-06
-1.93354e-06
6.26639e-05
1.00159e-05
-2.53019e-06
6.00548e-05
1.28518e-05
-3.24036e-06
5.64336e-05
1.67518e-05
-4.07037e-06
5.13529e-05
2.20611e-05
-4.99665e-06
4.41222e-05
2.9435e-05
-5.99059e-06
3.34767e-05
3.87841e-05
-6.82455e-06
1.78832e-05
4.94676e-05
-6.9596e-06
4.17472e-05
-4.10719e-06
6.31843e-05
2.57349e-08
7.40454e-07
6.43766e-05
-4.33855e-08
1.72195e-06
6.55808e-05
-1.96966e-07
2.60509e-06
6.65175e-05
-3.94933e-07
3.36703e-06
6.70613e-05
-6.37125e-07
4.13172e-06
6.71806e-05
-9.33673e-07
5.05201e-06
6.6874e-05
-1.29869e-06
6.26963e-06
6.61268e-05
-1.74358e-06
7.92857e-06
6.48965e-05
-2.27705e-06
1.01888e-05
6.30714e-05
-2.90515e-06
1.32959e-05
6.04733e-05
-3.62772e-06
1.75809e-05
5.66766e-05
-4.42613e-06
2.36312e-05
5.10608e-05
-5.26234e-06
3.23008e-05
4.18579e-05
-5.96437e-06
4.47264e-05
2.69675e-05
-6.05185e-06
6.0855e-05
-3.67955e-06
6.64849e-05
5.02712e-05