/*--------------------------------*- C++ -*----------------------------------*\
| =========                 |                                                 |
| \\      /  F ield         | OpenFOAM: The Open Source CFD Toolbox           |
|  \\    /   O peration     | Version:  v1912                                 |
|   \\  /    A nd           | Website:  www.openfoam.com                      |
|    \\/     M anipulation  |                                                 |
\*---------------------------------------------------------------------------*/
FoamFile
{
    version     2.0;
    format      ascii;
    class       pointVectorField;
    location    "0.45/fluid";
    object      pointMotionU;
}
// * * * * * * * * * * * * * * * * * * * * * * * * * * * * * * * * * * * * * //

dimensions      [0 1 -1 0 0 0 0];


internalField   nonuniform List<vector> 
16859
(
(0 0 0)
(0 0 0)
(0 0 0)
(0 0 0)
(0 0 0)
(0 0 0)
(0 0 0)
(0 0 0)
(0 0 0)
(0 0 0)
(0 0 0)
(0 0 0)
(0 0 0)
(0 0 0)
(0 0 0)
(0 0 0)
(2.46246e-08 4.16212e-08 2.38643e-08)
(0 0 0)
(6.54815e-10 -1.47549e-09 1.14537e-09)
(1.24844e-09 -2.82315e-09 2.23102e-09)
(1.80279e-09 -4.09673e-09 3.33422e-09)
(2.33766e-09 -5.33592e-09 4.52332e-09)
(2.87223e-09 -6.56466e-09 5.86179e-09)
(3.42701e-09 -7.7889e-09 7.41085e-09)
(4.02654e-09 -8.99127e-09 9.23066e-09)
(4.70411e-09 -1.01205e-08 1.13804e-08)
(5.5113e-09 -1.10724e-08 1.39178e-08)
(6.53906e-09 -1.16551e-08 1.69012e-08)
(7.96313e-09 -1.15233e-08 2.03997e-08)
(1.01466e-08 -1.00437e-08 2.45396e-08)
(1.38442e-08 -6.01524e-09 2.96389e-08)
(2.04768e-08 2.78718e-09 3.64844e-08)
(3.08557e-08 1.79923e-08 4.55807e-08)
(4.95829e-08 4.9723e-08 5.77049e-08)
(0 0 0)
(1.29566e-09 -2.9072e-09 2.26159e-09)
(2.46985e-09 -5.56445e-09 4.40456e-09)
(3.56546e-09 -8.07883e-09 6.5806e-09)
(4.62122e-09 -1.05301e-08 8.92366e-09)
(5.67461e-09 -1.29693e-08 1.15585e-08)
(6.76525e-09 -1.54145e-08 1.46053e-08)
(7.93915e-09 -1.78417e-08 1.81819e-08)
(9.25567e-09 -2.01677e-08 2.2403e-08)
(1.08005e-08 -2.22213e-08 2.73773e-08)
(1.27113e-08 -2.36949e-08 3.3202e-08)
(1.52278e-08 -2.40701e-08 3.99591e-08)
(1.87905e-08 -2.25154e-08 4.77301e-08)
(2.41693e-08 -1.78159e-08 5.66409e-08)
(3.24252e-08 -8.63273e-09 6.68706e-08)
(4.30367e-08 3.94698e-09 7.74378e-08)
(6.40086e-08 2.13784e-08 9.51048e-08)
(0 0 0)
(1.9095e-09 -4.25175e-09 3.32154e-09)
(3.63905e-09 -8.14208e-09 6.46714e-09)
(5.25104e-09 -1.18309e-08 9.65772e-09)
(6.80163e-09 -1.54398e-08 1.30882e-08)
(8.34522e-09 -1.90516e-08 1.69406e-08)
(9.93842e-09 -2.27063e-08 2.139e-08)
(1.16449e-08 -2.63905e-08 2.66082e-08)
(1.35422e-08 -3.00207e-08 3.27628e-08)
(1.57317e-08 -3.34121e-08 4.00105e-08)
(1.83551e-08 -3.62333e-08 4.84807e-08)
(2.16225e-08 -3.79484e-08 5.82504e-08)
(2.58613e-08 -3.77717e-08 6.93134e-08)
(3.15504e-08 -3.47416e-08 8.15378e-08)
(3.92097e-08 -2.81895e-08 9.45801e-08)
(4.80484e-08 -1.96372e-08 1.06805e-07)
(6.47025e-08 -7.98143e-09 1.24223e-07)
(0 0 0)
(2.48393e-09 -5.46496e-09 4.30016e-09)
(4.7321e-09 -1.04719e-08 8.36921e-09)
(6.82417e-09 -1.52325e-08 1.24899e-08)
(8.83189e-09 -1.9911e-08 1.69117e-08)
(1.08246e-08 -2.46269e-08 2.18671e-08)
(1.28738e-08 -2.94519e-08 2.75802e-08)
(1.50582e-08 -3.44023e-08 3.42718e-08)
(1.74692e-08 -3.94251e-08 4.21592e-08)
(2.02169e-08 -4.43729e-08 5.1448e-08)
(2.34324e-08 -4.89668e-08 6.23086e-08)
(2.72717e-08 -5.27477e-08 7.48363e-08)
(3.191e-08 -5.50324e-08 8.8983e-08)
(3.74962e-08 -5.49397e-08 1.0443e-07)
(4.40292e-08 -5.16593e-08 1.20371e-07)
(5.06016e-08 -4.58033e-08 1.34352e-07)
(6.33398e-08 -3.49558e-08 1.51622e-07)
(0 0 0)
(3.00804e-09 -6.50358e-09 5.17638e-09)
(5.72788e-09 -1.24709e-08 1.00691e-08)
(8.25367e-09 -1.81625e-08 1.50136e-08)
(1.06703e-08 -2.37847e-08 2.03049e-08)
(1.30596e-08 -2.94963e-08 2.62175e-08)
(1.55061e-08 -3.54077e-08 3.30165e-08)
(1.81019e-08 -4.1579e-08 4.09638e-08)
(2.0953e-08 -4.80122e-08 5.03213e-08)
(2.41825e-08 -5.46368e-08 6.13444e-08)
(2.79297e-08 -6.12843e-08 7.42607e-08)
(3.23418e-08 -6.76471e-08 8.92326e-08)
(3.75438e-08 -7.32095e-08 1.06279e-07)
(4.35422e-08 -7.71335e-08 1.25103e-07)
(5.00385e-08 -7.8132e-08 1.44713e-07)
(5.5825e-08 -7.51827e-08 1.61796e-07)
(6.6335e-08 -6.31561e-08 1.80671e-07)
(0 0 0)
(3.4728e-09 -7.3266e-09 5.93407e-09)
(6.60892e-09 -1.40599e-08 1.15351e-08)
(9.51371e-09 -2.05039e-08 1.71801e-08)
(1.2282e-08 -2.69038e-08 2.31996e-08)
(1.50054e-08 -3.34558e-08 2.98995e-08)
(1.77782e-08 -4.03119e-08 3.75745e-08)
(2.07046e-08 -4.75815e-08 4.6517e-08)
(2.39055e-08 -5.53332e-08 5.70228e-08)
(2.75257e-08 -6.35935e-08 6.939e-08)
(3.17401e-08 -7.23408e-08 8.39099e-08)
(3.67594e-08 -8.14897e-08 1.00849e-07)
(4.28266e-08 -9.08453e-08 1.20407e-07)
(5.0153e-08 -9.99573e-08 1.42583e-07)
(5.86921e-08 -1.07739e-07 1.6674e-07)
(6.69666e-08 -1.11882e-07 1.89079e-07)
(7.96047e-08 -1.01852e-07 2.1378e-07)
(0 0 0)
(3.87142e-09 -7.89726e-09 6.56276e-09)
(7.36233e-09 -1.51677e-08 1.27468e-08)
(1.05853e-08 -2.21503e-08 1.89588e-08)
(1.36414e-08 -2.91221e-08 2.55529e-08)
(1.66279e-08 -3.63121e-08 3.28545e-08)
(1.96451e-08 -4.39086e-08 4.11749e-08)
(2.28045e-08 -5.20665e-08 5.08214e-08)
(2.62381e-08 -6.0916e-08 6.21059e-08)
(3.01104e-08 -7.05733e-08 7.53486e-08)
(3.46364e-08 -8.11555e-08 9.08811e-08)
(4.0114e-08 -9.28037e-08 1.09055e-07)
(4.69784e-08 -1.05717e-07 1.30262e-07)
(5.58613e-08 -1.20166e-07 1.54914e-07)
(6.75481e-08 -1.36339e-07 1.83213e-07)
(8.11087e-08 -1.52402e-07 2.11882e-07)
(1.06416e-07 -1.71169e-07 2.50448e-07)
(0 0 0)
(4.19994e-09 -8.18532e-09 7.05824e-09)
(7.98099e-09 -1.57357e-08 1.3697e-08)
(1.14586e-08 -2.30136e-08 2.03397e-08)
(1.47355e-08 -3.0318e-08 2.73522e-08)
(1.79101e-08 -3.79012e-08 3.50664e-08)
(2.10831e-08 -4.5978e-08 4.37957e-08)
(2.4366e-08 -5.47358e-08 5.38451e-08)
(2.78908e-08 -6.4347e-08 6.55188e-08)
(3.1824e-08 -7.49831e-08 7.91253e-08)
(3.63878e-08 -8.6837e-08 9.4983e-08)
(4.18975e-08 -1.00158e-07 1.13435e-07)
(4.88206e-08 -1.1531e-07 1.3488e-07)
(5.784e-08 -1.32838e-07 1.59791e-07)
(6.97996e-08 -1.53461e-07 1.88628e-07)
(8.34256e-08 -1.75161e-07 2.18022e-07)
(1.22802e-07 -2.18461e-07 2.71335e-07)
(0 0 0)
(0 0 0)
(0 0 0)
(0 0 0)
(0 0 0)
(0 0 0)
(0 0 0)
(0 0 0)
(0 0 0)
(0 0 0)
(0 0 0)
(0 0 0)
(0 0 0)
(0 0 0)
(0 0 0)
(0 0 0)
(1.26585e-08 2.06573e-08 1.06132e-08)
(0 0 0)
(6.53136e-10 -1.50702e-09 1.10911e-09)
(1.24389e-09 -2.88355e-09 2.15876e-09)
(1.79299e-09 -4.18508e-09 3.22255e-09)
(2.31878e-09 -5.45304e-09 4.36534e-09)
(2.83833e-09 -6.71327e-09 5.64691e-09)
(3.36876e-09 -7.97364e-09 7.12398e-09)
(3.92926e-09 -9.2194e-09 8.85062e-09)
(4.54442e-09 -1.04036e-08 1.08772e-08)
(5.25182e-09 -1.14303e-08 1.32477e-08)
(6.11943e-09 -1.2125e-08 1.59961e-08)
(7.28569e-09 -1.21796e-08 1.91443e-08)
(9.05034e-09 -1.10412e-08 2.27167e-08)
(1.20476e-08 -7.69006e-09 2.67883e-08)
(1.742e-08 -3.54258e-10 3.15449e-08)
(2.57499e-08 1.21449e-08 3.67546e-08)
(3.47517e-08 2.84599e-08 3.87621e-08)
(0 0 0)
(1.29273e-09 -2.96888e-09 2.18979e-09)
(2.46172e-09 -5.68262e-09 4.26156e-09)
(3.54772e-09 -8.25192e-09 6.35992e-09)
(4.58671e-09 -1.076e-08 8.61205e-09)
(5.61224e-09 -1.32613e-08 1.11354e-08)
(6.65764e-09 -1.57772e-08 1.40414e-08)
(7.7589e-09 -1.82882e-08 1.74359e-08)
(8.95937e-09 -2.07187e-08 2.14175e-08)
(1.0319e-08 -2.29113e-08 2.60698e-08)
(1.19337e-08 -2.45872e-08 3.14488e-08)
(1.39789e-08 -2.5288e-08 3.75625e-08)
(1.67947e-08 -2.43084e-08 4.43499e-08)
(2.10045e-08 -2.06889e-08 5.16524e-08)
(2.74753e-08 -1.35937e-08 5.91244e-08)
(3.59792e-08 -4.24368e-09 6.57333e-08)
(4.53178e-08 9.72152e-10 7.09414e-08)
(0 0 0)
(1.90623e-09 -4.34134e-09 3.21596e-09)
(3.62939e-09 -8.31387e-09 6.25705e-09)
(5.22896e-09 -1.20829e-08 9.33398e-09)
(6.75758e-09 -1.57749e-08 1.2632e-08)
(8.26433e-09 -1.94772e-08 1.63222e-08)
(9.79747e-09 -2.3234e-08 2.05672e-08)
(1.14075e-08 -2.70377e-08 2.55221e-08)
(1.31509e-08 -3.08129e-08 3.1332e-08)
(1.50948e-08 -3.43906e-08 3.8121e-08)
(1.73264e-08 -3.74707e-08 4.59678e-08)
(1.99723e-08 -3.95818e-08 5.48669e-08)
(2.32337e-08 -4.00708e-08 6.46678e-08)
(2.74233e-08 -3.8236e-08 7.49844e-08)
(3.29065e-08 -3.38792e-08 8.50593e-08)
(3.93152e-08 -2.86298e-08 9.34146e-08)
(4.52791e-08 -2.67256e-08 9.88189e-08)
(0 0 0)
(2.48158e-09 -5.57952e-09 4.16356e-09)
(4.72361e-09 -1.06918e-08 8.09764e-09)
(6.80255e-09 -1.55553e-08 1.20721e-08)
(8.78618e-09 -2.03405e-08 1.63239e-08)
(1.07379e-08 -2.51721e-08 2.10718e-08)
(1.272e-08 -3.01265e-08 2.6524e-08)
(1.47966e-08 -3.52255e-08 3.28808e-08)
(1.70358e-08 -4.04237e-08 4.03325e-08)
(1.95094e-08 -4.55869e-08 4.90463e-08)
(2.22887e-08 -5.04613e-08 5.91376e-08)
(2.54341e-08 -5.46384e-08 7.06171e-08)
(2.89734e-08 -5.7537e-08 8.3301e-08)
(3.28538e-08 -5.84724e-08 9.66512e-08)
(3.68918e-08 -5.69919e-08 1.09516e-07)
(4.06215e-08 -5.38404e-08 1.19693e-07)
(4.36454e-08 -5.23421e-08 1.2532e-07)
(0 0 0)
(3.00798e-09 -6.63947e-09 5.01232e-09)
(5.7235e-09 -1.27319e-08 9.74328e-09)
(8.23757e-09 -1.85459e-08 1.4513e-08)
(1.06312e-08 -2.42949e-08 1.96019e-08)
(1.29804e-08 -3.01432e-08 2.52683e-08)
(1.53607e-08 -3.62065e-08 3.17584e-08)
(1.78503e-08 -4.25493e-08 3.93112e-08)
(2.05325e-08 -4.9179e-08 4.81575e-08)
(2.3494e-08 -5.60333e-08 5.85105e-08)
(2.68162e-08 -6.2958e-08 7.05387e-08)
(3.0552e-08 -6.96723e-08 8.43159e-08)
(3.46716e-08 -7.5709e-08 9.97257e-08)
(3.89477e-08 -8.03158e-08 1.16258e-07)
(4.28111e-08 -8.23576e-08 1.32594e-07)
(4.53693e-08 -8.09103e-08 1.45779e-07)
(4.59667e-08 -7.81862e-08 1.53008e-07)
(0 0 0)
(3.47626e-09 -7.47942e-09 5.74667e-09)
(6.61129e-09 -1.43535e-08 1.11633e-08)
(9.5077e-09 -2.09355e-08 1.66097e-08)
(1.22569e-08 -2.7478e-08 2.24e-08)
(1.49454e-08 -3.41836e-08 2.88222e-08)
(1.76599e-08 -4.12089e-08 3.61505e-08)
(2.04926e-08 -4.86668e-08 4.46519e-08)
(2.35455e-08 -5.66291e-08 5.45887e-08)
(2.69336e-08 -6.51251e-08 6.62139e-08)
(3.07845e-08 -7.41371e-08 7.9754e-08)
(3.52325e-08 -8.35849e-08 9.53787e-08)
(4.03919e-08 -9.32775e-08 1.13135e-07)
(4.62683e-08 -1.02756e-07 1.32771e-07)
(5.25273e-08 -1.10874e-07 1.53236e-07)
(5.78792e-08 -1.15324e-07 1.71146e-07)
(5.81544e-08 -1.11133e-07 1.82961e-07)
(0 0 0)
(3.87933e-09 -8.06188e-09 6.35645e-09)
(7.37344e-09 -1.54841e-08 1.23379e-08)
(1.05928e-08 -2.26155e-08 1.83326e-08)
(1.36357e-08 -2.97413e-08 2.46769e-08)
(1.65956e-08 -3.70968e-08 3.16773e-08)
(1.9567e-08 -4.48747e-08 3.96238e-08)
(2.26525e-08 -5.32326e-08 4.87972e-08)
(2.59703e-08 -6.23014e-08 5.94749e-08)
(2.96643e-08 -7.21965e-08 7.19302e-08)
(3.39184e-08 -8.30315e-08 8.64266e-08)
(3.8983e-08 -9.49406e-08 1.0321e-07)
(4.52201e-08 -1.0811e-07 1.22494e-07)
(5.31663e-08 -1.22785e-07 1.44382e-07)
(6.35077e-08 -1.39065e-07 1.68487e-07)
(7.57505e-08 -1.5535e-07 1.91819e-07)
(8.67336e-08 -1.69654e-07 2.10435e-07)
(0 0 0)
(4.21279e-09 -8.35597e-09 6.83756e-09)
(8.00193e-09 -1.60639e-08 1.32601e-08)
(1.14814e-08 -2.34965e-08 1.96718e-08)
(1.47522e-08 -3.09613e-08 2.64201e-08)
(1.79099e-08 -3.87168e-08 3.38179e-08)
(2.10516e-08 -4.6982e-08 4.21572e-08)
(2.42829e-08 -5.59463e-08 5.17168e-08)
(2.77274e-08 -6.57811e-08 6.27671e-08)
(3.15396e-08 -7.66541e-08 7.55711e-08)
(3.5925e-08 -8.87498e-08 9.03809e-08)
(4.11763e-08 -1.02302e-07 1.07435e-07)
(4.77328e-08 -1.17648e-07 1.26958e-07)
(5.62577e-08 -1.3529e-07 1.49112e-07)
(6.76122e-08 -1.55808e-07 1.73745e-07)
(8.09701e-08 -1.77374e-07 1.9771e-07)
(1.06211e-07 -2.096e-07 2.25529e-07)
(0 0 0)
(0 0 0)
(0 0 0)
(0 0 0)
(0 0 0)
(0 0 0)
(0 0 0)
(0 0 0)
(0 0 0)
(0 0 0)
(0 0 0)
(0 0 0)
(0 0 0)
(0 0 0)
(0 0 0)
(0 0 0)
(3.77757e-09 7.94972e-09 2.56395e-09)
(0 0 0)
(6.48228e-10 -1.53442e-09 1.03223e-09)
(1.23286e-09 -2.93631e-09 2.00791e-09)
(1.77281e-09 -4.26249e-09 2.99435e-09)
(2.28416e-09 -5.5557e-09 4.05045e-09)
(2.78079e-09 -6.84365e-09 5.22984e-09)
(3.27483e-09 -8.13682e-09 6.58207e-09)
(3.7773e-09 -9.42471e-09 8.1521e-09)
(4.2992e-09 -1.06687e-08 9.97764e-09)
(4.85437e-09 -1.17904e-08 1.2083e-08)
(5.46722e-09 -1.2654e-08 1.44679e-08)
(6.19128e-09 -1.30384e-08 1.70864e-08)
(7.14498e-09 -1.25956e-08 1.98117e-08)
(8.5526e-09 -1.07992e-08 2.23632e-08)
(1.06709e-08 -7.00225e-09 2.41428e-08)
(1.31458e-08 -1.4028e-09 2.40938e-08)
(1.2706e-08 4.10981e-09 1.67677e-08)
(0 0 0)
(1.28351e-09 -3.02238e-09 2.03791e-09)
(2.44096e-09 -5.78552e-09 3.96356e-09)
(3.50969e-09 -8.40284e-09 5.90932e-09)
(4.52153e-09 -1.09603e-08 7.99089e-09)
(5.50397e-09 -1.35154e-08 1.03136e-08)
(6.48097e-09 -1.6094e-08 1.29746e-08)
(7.47353e-09 -1.86835e-08 1.60624e-08)
(8.5002e-09 -2.1222e-08 1.96515e-08)
(9.57854e-09 -2.35802e-08 2.37898e-08)
(1.07302e-08 -2.5539e-08 2.84743e-08)
(1.19944e-08 -2.67674e-08 3.36069e-08)
(1.34497e-08 -2.68293e-08 3.89154e-08)
(1.52149e-08 -2.53005e-08 4.38119e-08)
(1.72915e-08 -2.22168e-08 4.71718e-08)
(1.90295e-08 -1.90567e-08 4.75156e-08)
(1.79935e-08 -2.04681e-08 4.14957e-08)
(0 0 0)
(1.89389e-09 -4.41884e-09 2.99292e-09)
(3.60147e-09 -8.46282e-09 5.81954e-09)
(5.17766e-09 -1.23013e-08 8.67297e-09)
(6.66943e-09 -1.60644e-08 1.17218e-08)
(8.11769e-09 -1.98434e-08 1.51193e-08)
(9.55819e-09 -2.36874e-08 1.90076e-08)
(1.10216e-08 -2.75964e-08 2.35169e-08)
(1.2532e-08 -3.15094e-08 2.87587e-08)
(1.41026e-08 -3.52863e-08 3.48086e-08)
(1.57293e-08 -3.8688e-08 4.16713e-08)
(1.73795e-08 -4.13684e-08 4.92181e-08)
(1.89723e-08 -4.29241e-08 5.7081e-08)
(2.03296e-08 -4.31042e-08 6.44803e-08)
(2.10811e-08 -4.23288e-08 7.00218e-08)
(2.06885e-08 -4.21507e-08 7.2013e-08)
(1.67158e-08 -4.51918e-08 6.71467e-08)
(0 0 0)
(2.46773e-09 -5.67824e-09 3.87505e-09)
(4.69202e-09 -1.08814e-08 7.53202e-09)
(6.74401e-09 -1.58331e-08 1.12183e-08)
(8.68494e-09 -2.0708e-08 1.51496e-08)
(1.05688e-08 -2.5635e-08 1.95218e-08)
(1.24438e-08 -3.06947e-08 2.45175e-08)
(1.43516e-08 -3.59149e-08 3.03053e-08)
(1.63244e-08 -4.12607e-08 3.70336e-08)
(1.83751e-08 -4.66197e-08 4.4811e-08)
(2.04771e-08 -5.17835e-08 5.3666e-08)
(2.25255e-08 -5.64378e-08 6.34751e-08)
(2.4263e-08 -6.01915e-08 7.3837e-08)
(2.51673e-08 -6.27157e-08 8.3863e-08)
(2.44018e-08 -6.41018e-08 9.1915e-08)
(2.14636e-08 -6.52271e-08 9.58313e-08)
(1.46091e-08 -6.84602e-08 9.18953e-08)
(0 0 0)
(2.99441e-09 -6.75599e-09 4.66554e-09)
(5.69205e-09 -1.29556e-08 9.06389e-09)
(8.17835e-09 -1.88732e-08 1.34886e-08)
(1.05275e-08 -2.4727e-08 1.81946e-08)
(1.2806e-08 -3.06848e-08 2.34139e-08)
(1.50747e-08 -3.68651e-08 2.93623e-08)
(1.73894e-08 -4.33353e-08 3.62418e-08)
(1.97977e-08 -5.01067e-08 4.42344e-08)
(2.23279e-08 -5.71256e-08 5.34843e-08)
(2.49652e-08 -6.42571e-08 6.40586e-08)
(2.75991e-08 -7.12643e-08 7.58755e-08)
(2.99147e-08 -7.77792e-08 8.85695e-08)
(3.12058e-08 -8.32703e-08 1.01246e-07)
(3.02253e-08 -8.7065e-08 1.12112e-07)
(2.60245e-08 -8.87301e-08 1.18465e-07)
(1.64761e-08 -9.05831e-08 1.16005e-07)
(0 0 0)
(3.46466e-09 -7.60976e-09 5.34992e-09)
(6.58359e-09 -1.46036e-08 1.03866e-08)
(9.45398e-09 -2.1301e-08 1.54401e-08)
(1.21607e-08 -2.79595e-08 2.07959e-08)
(1.47812e-08 -3.47845e-08 2.67128e-08)
(1.73887e-08 -4.19334e-08 3.34314e-08)
(2.00546e-08 -4.95183e-08 4.11779e-08)
(2.28482e-08 -5.76074e-08 5.01601e-08)
(2.58316e-08 -6.62235e-08 6.05528e-08)
(2.90445e-08 -7.53392e-08 7.24647e-08)
(3.24683e-08 -8.48597e-08 8.58743e-08)
(3.59376e-08 -9.4577e-08 1.00503e-07)
(3.89566e-08 -1.04033e-07 1.15548e-07)
(4.04056e-08 -1.12206e-07 1.29195e-07)
(3.876e-08 -1.17243e-07 1.38212e-07)
(2.84878e-08 -1.15582e-07 1.3801e-07)
(0 0 0)
(3.87112e-09 -8.2016e-09 5.9187e-09)
(7.35248e-09 -1.57521e-08 1.14817e-08)
(1.05496e-08 -2.30069e-08 1.70451e-08)
(1.35551e-08 -3.02561e-08 2.29148e-08)
(1.64542e-08 -3.77369e-08 2.93662e-08)
(1.93298e-08 -4.56414e-08 3.66541e-08)
(2.22669e-08 -5.41226e-08 4.50166e-08)
(2.5356e-08 -6.33015e-08 5.46737e-08)
(2.86965e-08 -7.32745e-08 6.58151e-08)
(3.23979e-08 -8.41209e-08 7.8574e-08)
(3.65773e-08 -9.5911e-08 9.2974e-08)
(4.13408e-08 -1.08706e-07 1.08818e-07)
(4.67261e-08 -1.22506e-07 1.25429e-07)
(5.25087e-08 -1.36972e-07 1.41058e-07)
(5.75724e-08 -1.50219e-07 1.52004e-07)
(5.78403e-08 -1.60186e-07 1.51695e-07)
(0 0 0)
(4.20896e-09 -8.5002e-09 6.36799e-09)
(7.98978e-09 -1.63406e-08 1.23426e-08)
(1.14522e-08 -2.39006e-08 1.82944e-08)
(1.46924e-08 -3.14922e-08 2.45396e-08)
(1.77994e-08 -3.93755e-08 3.13596e-08)
(2.08608e-08 -4.77677e-08 3.90112e-08)
(2.39679e-08 -5.68511e-08 4.7731e-08)
(2.72227e-08 -6.67831e-08 5.7733e-08)
(3.07449e-08 -7.77049e-08 6.91985e-08)
(3.46822e-08 -8.97535e-08 8.2251e-08)
(3.92231e-08 -1.03074e-07 9.691e-08)
(4.46043e-08 -1.17834e-07 1.12992e-07)
(5.1091e-08 -1.34196e-07 1.29885e-07)
(5.8807e-08 -1.52104e-07 1.46052e-07)
(6.65489e-08 -1.69296e-07 1.57813e-07)
(7.90479e-08 -1.90946e-07 1.5616e-07)
(0 0 0)
(0 0 0)
(0 0 0)
(0 0 0)
(0 0 0)
(0 0 0)
(0 0 0)
(0 0 0)
(0 0 0)
(0 0 0)
(0 0 0)
(0 0 0)
(0 0 0)
(0 0 0)
(0 0 0)
(0 0 0)
(-3.59193e-10 2.46162e-09 1.94164e-09)
(0 0 0)
(6.41102e-10 -1.55726e-09 9.18625e-10)
(1.21739e-09 -2.98025e-09 1.78594e-09)
(1.74564e-09 -4.32695e-09 2.66089e-09)
(2.23933e-09 -5.64131e-09 3.59461e-09)
(2.70858e-09 -6.95259e-09 4.63278e-09)
(3.15986e-09 -8.27381e-09 5.81618e-09)
(3.59529e-09 -9.59902e-09 7.17955e-09)
(4.01134e-09 -1.08987e-08 8.74771e-09)
(4.39741e-09 -1.21136e-08 1.05276e-08)
(4.73527e-09 -1.31471e-08 1.24934e-08)
(5.00078e-09 -1.38596e-08 1.45597e-08)
(5.16637e-09 -1.40691e-08 1.65361e-08)
(5.18817e-09 -1.35688e-08 1.80513e-08)
(4.93252e-09 -1.22022e-08 1.84647e-08)
(4.11588e-09 -1.01802e-08 1.71165e-08)
(1.9573e-09 -6.90155e-09 1.29324e-08)
(0 0 0)
(1.26999e-09 -3.067e-09 1.81367e-09)
(2.41159e-09 -5.87132e-09 3.52551e-09)
(3.45813e-09 -8.52855e-09 5.25148e-09)
(4.43645e-09 -1.11268e-08 7.09204e-09)
(5.36704e-09 -1.37264e-08 9.13686e-09)
(6.26329e-09 -1.63572e-08 1.14661e-08)
(7.1298e-09 -1.9014e-08 1.41483e-08)
(7.95888e-09 -2.16493e-08 1.72334e-08)
(8.72511e-09 -2.41639e-08 2.07369e-08)
(9.37854e-09 -2.63982e-08 2.46116e-08)
(9.83733e-09 -2.81382e-08 2.8698e-08)
(9.9788e-09 -2.91591e-08 3.26441e-08)
(9.62122e-09 -2.93599e-08 3.57926e-08)
(8.50928e-09 -2.90356e-08 3.71205e-08)
(6.56488e-09 -2.9041e-08 3.58575e-08)
(4.28731e-09 -3.11706e-08 3.31205e-08)
(0 0 0)
(1.87534e-09 -4.48342e-09 2.6638e-09)
(3.56115e-09 -8.58686e-09 5.17681e-09)
(5.1068e-09 -1.24827e-08 7.70824e-09)
(6.55246e-09 -1.63037e-08 1.04044e-08)
(7.92953e-09 -2.01444e-08 1.3396e-08)
(9.25966e-09 -2.40581e-08 1.68003e-08)
(1.05519e-08 -2.80521e-08 2.07188e-08)
(1.17962e-08 -3.208e-08 2.5228e-08)
(1.29521e-08 -3.60313e-08 3.03581e-08)
(1.39298e-08 -3.97252e-08 3.60558e-08)
(1.45623e-08 -4.2926e-08 4.21206e-08)
(1.45669e-08 -4.54161e-08 4.81114e-08)
(1.35178e-08 -4.7191e-08 5.32358e-08)
(1.09499e-08 -4.87718e-08 5.63513e-08)
(7.09002e-09 -5.10312e-08 5.66525e-08)
(2.66658e-09 -5.47555e-08 5.54844e-08)
(0 0 0)
(2.44598e-09 -5.7603e-09 3.44936e-09)
(4.64464e-09 -1.10388e-08 6.70107e-09)
(6.66053e-09 -1.60626e-08 9.97192e-09)
(8.54695e-09 -2.10093e-08 1.34491e-08)
(1.03469e-08 -2.60103e-08 1.72996e-08)
(1.20923e-08 -3.11496e-08 2.16745e-08)
(1.38005e-08 -3.64593e-08 2.6706e-08)
(1.54662e-08 -4.1914e-08 3.24975e-08)
(1.70441e-08 -4.74204e-08 3.91004e-08)
(1.84184e-08 -5.281e-08 4.64713e-08)
(1.93509e-08 -5.78442e-08 5.4402e-08)
(1.93987e-08 -6.22609e-08 6.24177e-08)
(1.78428e-08 -6.59074e-08 6.96623e-08)
(1.38529e-08 -6.89681e-08 7.48888e-08)
(7.74722e-09 -7.18845e-08 7.70392e-08)
(9.30964e-10 -7.55975e-08 7.731e-08)
(0 0 0)
(2.97146e-09 -6.8525e-09 4.15368e-09)
(5.64187e-09 -1.31404e-08 8.0653e-09)
(8.08959e-09 -1.91418e-08 1.1992e-08)
(1.03803e-08 -2.50777e-08 1.61553e-08)
(1.2569e-08 -3.11175e-08 2.07528e-08)
(1.46999e-08 -3.73803e-08 2.59634e-08)
(1.68039e-08 -4.39335e-08 3.19459e-08)
(1.88906e-08 -5.07889e-08 3.88285e-08)
(2.0931e-08 -5.78952e-08 4.66859e-08)
(2.28234e-08 -6.51272e-08 5.54954e-08)
(2.43288e-08 -7.22705e-08 6.50635e-08)
(2.49563e-08 -7.90036e-08 7.49166e-08)
(2.38203e-08 -8.48759e-08 8.41649e-08)
(1.97057e-08 -8.93052e-08 9.14485e-08)
(1.24983e-08 -9.17481e-08 9.54019e-08)
(3.29552e-09 -9.33164e-08 9.71421e-08)
(0 0 0)
(3.44247e-09 -7.71727e-09 4.76386e-09)
(6.53477e-09 -1.48092e-08 9.24404e-09)
(9.36698e-09 -2.15989e-08 1.37297e-08)
(1.20157e-08 -2.83463e-08 1.84688e-08)
(1.4547e-08 -3.52573e-08 2.36821e-08)
(1.70183e-08 -4.24869e-08 2.95692e-08)
(1.94773e-08 -5.0142e-08 3.63081e-08)
(2.19579e-08 -5.82808e-08 4.40455e-08)
(2.44686e-08 -6.69105e-08 5.28752e-08)
(2.69679e-08 -7.59786e-08 6.27948e-08)
(2.93142e-08 -8.53511e-08 7.36311e-08)
(3.11664e-08 -9.47596e-08 8.4919e-08)
(3.18303e-08 -1.03667e-07 9.57267e-08)
(3.01709e-08 -1.10996e-07 1.04519e-07)
(2.54886e-08 -1.15017e-07 1.09558e-07)
(1.58268e-08 -1.117e-07 1.12369e-07)
(0 0 0)
(3.85139e-09 -8.31634e-09 5.27138e-09)
(7.30859e-09 -1.59712e-08 1.02208e-08)
(1.04704e-08 -2.33238e-08 1.51602e-08)
(1.34217e-08 -3.06658e-08 2.03553e-08)
(1.62375e-08 -3.82336e-08 2.60414e-08)
(1.89864e-08 -4.62147e-08 3.24299e-08)
(2.17321e-08 -5.47517e-08 3.97084e-08)
(2.4534e-08 -6.39475e-08 4.80315e-08)
(2.7444e-08 -7.38668e-08 5.75007e-08)
(3.04991e-08 -8.45355e-08 6.81221e-08)
(3.37021e-08 -9.59317e-08 7.97311e-08)
(3.6983e-08 -1.07957e-07 9.1858e-08)
(4.01435e-08 -1.20354e-07 1.03502e-07)
(4.28156e-08 -1.32457e-07 1.12846e-07)
(4.45353e-08 -1.42491e-07 1.17539e-07)
(4.50132e-08 -1.48357e-07 1.18356e-07)
(0 0 0)
(4.19298e-09 -8.6182e-09 5.6727e-09)
(7.95349e-09 -1.65658e-08 1.09894e-08)
(1.13853e-08 -2.42257e-08 1.62749e-08)
(1.45777e-08 -3.19114e-08 2.18041e-08)
(1.76109e-08 -3.9881e-08 2.78176e-08)
(2.05602e-08 -4.83452e-08 3.4529e-08)
(2.34992e-08 -5.74731e-08 4.21242e-08)
(2.65036e-08 -6.73985e-08 5.07532e-08)
(2.96538e-08 -7.82223e-08 6.05095e-08)
(3.30368e-08 -9.00132e-08 7.13897e-08)
(3.67439e-08 -1.02801e-07 8.32196e-08)
(4.08569e-08 -1.16558e-07 9.55234e-08)
(4.54189e-08 -1.31136e-07 1.073e-07)
(5.03609e-08 -1.46092e-07 1.16739e-07)
(5.49923e-08 -1.59406e-07 1.21342e-07)
(6.50736e-08 -1.76043e-07 1.175e-07)
(0 0 0)
(0 0 0)
(0 0 0)
(0 0 0)
(0 0 0)
(0 0 0)
(0 0 0)
(0 0 0)
(0 0 0)
(0 0 0)
(0 0 0)
(0 0 0)
(0 0 0)
(0 0 0)
(0 0 0)
(0 0 0)
(-1.87064e-09 5.32625e-10 2.36949e-09)
(0 0 0)
(6.32965e-10 -1.57542e-09 7.73293e-10)
(1.19998e-09 -3.01514e-09 1.50265e-09)
(1.71567e-09 -4.3781e-09 2.23701e-09)
(2.19089e-09 -5.70921e-09 3.01842e-09)
(2.63212e-09 -7.03893e-09 3.88364e-09)
(3.04057e-09 -8.38219e-09 4.86421e-09)
(3.41054e-09 -9.73675e-09 5.98523e-09)
(3.72676e-09 -1.10806e-08 7.2613e-09)
(3.9607e-09 -1.23687e-08 8.6889e-09)
(4.06678e-09 -1.35316e-08 1.02333e-08)
(3.98012e-09 -1.44781e-08 1.18087e-08)
(3.61643e-09 -1.51039e-08 1.32516e-08)
(2.87261e-09 -1.53024e-08 1.42988e-08)
(1.6372e-09 -1.49547e-08 1.46204e-08)
(-3.15612e-11 -1.39558e-08 1.40833e-08)
(-1.99024e-09 -1.07319e-08 1.22403e-08)
(0 0 0)
(1.25448e-09 -3.10255e-09 1.52687e-09)
(2.37842e-09 -5.9396e-09 2.96658e-09)
(3.40102e-09 -8.62839e-09 4.41539e-09)
(4.34414e-09 -1.12587e-08 5.95588e-09)
(5.22142e-09 -1.38927e-08 7.66014e-09)
(6.03649e-09 -1.65633e-08 9.59037e-09)
(6.77963e-09 -1.92713e-08 1.17963e-08)
(7.42199e-09 -2.19806e-08 1.43078e-08)
(7.90708e-09 -2.46138e-08 1.71205e-08)
(8.14054e-09 -2.70516e-08 2.01713e-08)
(7.98168e-09 -2.91465e-08 2.33029e-08)
(7.24441e-09 -3.07659e-08 2.62193e-08)
(5.73469e-09 -3.18782e-08 2.84599e-08)
(3.40427e-09 -3.26542e-08 2.94878e-08)
(8.16444e-10 -3.33723e-08 2.91806e-08)
(-6.57658e-10 -3.4877e-08 2.8683e-08)
(0 0 0)
(1.85385e-09 -4.53492e-09 2.24285e-09)
(3.5152e-09 -8.68561e-09 4.35671e-09)
(5.02764e-09 -1.26264e-08 6.48198e-09)
(6.42451e-09 -1.64921e-08 8.73885e-09)
(7.72793e-09 -2.03791e-08 1.12324e-08)
(8.94646e-09 -2.43437e-08 1.4054e-08)
(1.00703e-08 -2.83985e-08 1.72776e-08)
(1.10623e-08 -3.25076e-08 2.09502e-08)
(1.1844e-08 -3.65806e-08 2.50728e-08)
(1.2275e-08 -4.04735e-08 2.95691e-08)
(1.21305e-08 -4.40077e-08 3.42406e-08)
(1.10879e-08 -4.70346e-08 3.87217e-08)
(8.78319e-09 -4.95725e-08 4.24733e-08)
(5.09891e-09 -5.19645e-08 4.49283e-08)
(9.75741e-10 -5.45884e-08 4.59688e-08)
(-2.07355e-09 -5.77768e-08 4.67521e-08)
(0 0 0)
(2.42035e-09 -5.82567e-09 2.90475e-09)
(4.58978e-09 -1.11638e-08 5.64049e-09)
(6.56596e-09 -1.62437e-08 8.38703e-09)
(8.39407e-09 -2.12445e-08 1.1298e-08)
(1.01063e-08 -2.62992e-08 1.4508e-08)
(1.17196e-08 -3.14927e-08 1.81346e-08)
(1.32301e-08 -3.68597e-08 2.22747e-08)
(1.46027e-08 -4.23793e-08 2.69935e-08)
(1.57519e-08 -4.79686e-08 3.23026e-08)
(1.65127e-08 -5.34781e-08 3.81252e-08)
(1.65979e-08 -5.86992e-08 4.4247e-08)
(1.55525e-08 -6.34009e-08 5.02719e-08)
(1.27791e-08 -6.74222e-08 5.56277e-08)
(7.87828e-09 -7.08049e-08 5.97162e-08)
(1.87862e-09 -7.3684e-08 6.22688e-08)
(-3.17304e-09 -7.67353e-08 6.42855e-08)
(0 0 0)
(2.94372e-09 -6.92916e-09 3.49853e-09)
(5.58239e-09 -1.32866e-08 6.79012e-09)
(7.9869e-09 -1.93525e-08 1.0088e-08)
(1.02143e-08 -2.53488e-08 1.35739e-08)
(1.2308e-08 -3.14451e-08 1.74072e-08)
(1.42967e-08 -3.77593e-08 2.17275e-08)
(1.61894e-08 -4.43557e-08 2.66512e-08)
(1.7966e-08 -5.1242e-08 3.22598e-08)
(1.95583e-08 -5.83617e-08 3.85772e-08)
(2.08189e-08 -6.55827e-08 4.55322e-08)
(2.14676e-08 -7.26812e-08 5.29053e-08)
(2.10175e-08 -7.93169e-08 6.02798e-08)
(1.87333e-08 -8.49957e-08 6.70404e-08)
(1.38683e-08 -8.90448e-08 7.25202e-08)
(7.01992e-09 -9.08392e-08 7.62985e-08)
(-1.34843e-10 -9.13573e-08 7.93701e-08)
(0 0 0)
(3.41462e-09 -7.80234e-09 4.01326e-09)
(6.4749e-09 -1.4971e-08 7.78405e-09)
(9.26333e-09 -2.18309e-08 1.15521e-08)
(1.18478e-08 -2.86423e-08 1.55209e-08)
(1.42832e-08 -3.56096e-08 1.98687e-08)
(1.66117e-08 -4.28835e-08 2.47512e-08)
(1.88601e-08 -5.05622e-08 3.0299e-08)
(2.1034e-08 -5.869e-08 3.66049e-08)
(2.31055e-08 -6.72518e-08 4.37015e-08)
(2.49905e-08 -7.61601e-08 5.15205e-08)
(2.65094e-08 -8.52273e-08 5.98342e-08)
(2.73241e-08 -9.41055e-08 6.8188e-08)
(2.6882e-08 -1.02156e-07 7.58705e-08)
(2.45046e-08 -1.08232e-07 8.204e-08)
(2.02217e-08 -1.10778e-07 8.61225e-08)
(1.28039e-08 -1.06159e-07 8.95796e-08)
(0 0 0)
(3.82519e-09 -8.40675e-09 4.4417e-09)
(7.25203e-09 -1.61428e-08 8.60824e-09)
(1.03721e-08 -2.35688e-08 1.27582e-08)
(1.32618e-08 -3.09761e-08 1.71101e-08)
(1.59861e-08 -3.85981e-08 2.18537e-08)
(1.85992e-08 -4.6615e-08 2.71543e-08)
(2.11461e-08 -5.51564e-08 3.3149e-08)
(2.36604e-08 -6.43024e-08 3.99349e-08)
(2.61613e-08 -7.40816e-08 4.75455e-08)
(2.86461e-08 -8.44622e-08 5.59079e-08)
(3.10789e-08 -9.53323e-08 6.47762e-08)
(3.33791e-08 -1.06463e-07 7.36407e-08)
(3.54457e-08 -1.17433e-07 8.16428e-08)
(3.72846e-08 -1.27493e-07 8.76183e-08)
(3.91254e-08 -1.35253e-07 9.06451e-08)
(4.14912e-08 -1.39397e-07 9.22696e-08)
(0 0 0)
(4.16981e-09 -8.71083e-09 4.78072e-09)
(7.90315e-09 -1.67414e-08 9.25728e-09)
(1.12971e-08 -2.44757e-08 1.36991e-08)
(1.44335e-08 -3.22263e-08 1.83323e-08)
(1.73834e-08 -4.02472e-08 2.33513e-08)
(2.02096e-08 -4.87401e-08 2.89232e-08)
(2.29694e-08 -5.78578e-08 3.51838e-08)
(2.57163e-08 -6.77065e-08 4.22259e-08)
(2.85022e-08 -7.83435e-08 5.00751e-08)
(3.1379e-08 -8.97689e-08 5.86472e-08)
(3.44001e-08 -1.01909e-07 6.76785e-08)
(3.76244e-08 -1.14592e-07 7.66263e-08)
(4.11421e-08 -1.27507e-07 8.45635e-08)
(4.51269e-08 -1.40152e-07 9.01879e-08)
(4.94308e-08 -1.51052e-07 9.23711e-08)
(6.07186e-08 -1.65887e-07 8.99172e-08)
(0 0 0)
(0 0 0)
(0 0 0)
(0 0 0)
(0 0 0)
(0 0 0)
(0 0 0)
(0 0 0)
(0 0 0)
(0 0 0)
(0 0 0)
(0 0 0)
(0 0 0)
(0 0 0)
(0 0 0)
(0 0 0)
(-2.29283e-09 -1.07346e-11 2.23964e-09)
(0 0 0)
(6.25045e-10 -1.58895e-09 6.02156e-10)
(1.18318e-09 -3.04108e-09 1.16958e-09)
(1.68712e-09 -4.4162e-09 1.74e-09)
(2.14541e-09 -5.75987e-09 2.34555e-09)
(2.56146e-09 -7.10313e-09 3.01362e-09)
(2.93232e-09 -8.46213e-09 3.76694e-09)
(3.24663e-09 -9.83709e-09 4.6224e-09)
(3.48162e-09 -1.12106e-08 5.5878e-09)
(3.5994e-09 -1.25458e-08 6.65598e-09)
(3.54437e-09 -1.37863e-08 7.79603e-09)
(3.244e-09 -1.48589e-08 8.94262e-09)
(2.61751e-09 -1.56766e-08 9.98762e-09)
(1.5967e-09 -1.6128e-08 1.0787e-08)
(1.6883e-10 -1.6022e-08 1.12121e-08)
(-1.45876e-09 -1.50906e-08 1.1256e-08)
(-2.99357e-09 -1.15818e-08 1.03362e-08)
(0 0 0)
(1.23935e-09 -3.12919e-09 1.18908e-09)
(2.34637e-09 -5.99075e-09 2.30934e-09)
(3.34651e-09 -8.70312e-09 3.43493e-09)
(4.25725e-09 -1.1357e-08 4.62881e-09)
(5.0865e-09 -1.40157e-08 5.94477e-09)
(5.83014e-09 -1.67141e-08 7.4277e-09)
(6.46812e-09 -1.94563e-08 9.11123e-09)
(6.95826e-09 -2.22132e-08 1.10117e-08)
(7.22846e-09 -2.4919e-08 1.31171e-08)
(7.16984e-09 -2.74725e-08 1.5371e-08)
(6.63694e-09 -2.97482e-08 1.7653e-08)
(5.47073e-09 -3.16228e-08 1.97645e-08)
(3.57774e-09 -3.3021e-08 2.1443e-08)
(1.13212e-09 -3.39485e-08 2.24473e-08)
(-1.07743e-09 -3.44493e-08 2.2758e-08)
(-1.67961e-09 -3.5239e-08 2.28515e-08)
(0 0 0)
(1.8328e-09 -4.57371e-09 1.74692e-09)
(3.47057e-09 -8.75986e-09 3.3921e-09)
(4.95171e-09 -1.27341e-08 5.04353e-09)
(6.30349e-09 -1.66321e-08 6.79275e-09)
(7.54024e-09 -2.05513e-08 8.71828e-09)
(8.66018e-09 -2.45495e-08 1.08861e-08)
(9.63996e-09 -2.8642e-08 1.33466e-08)
(1.04257e-08 -3.27979e-08 1.61262e-08)
(1.09208e-08 -3.69361e-08 1.92133e-08)
(1.09717e-08 -4.09255e-08 2.25371e-08)
(1.03602e-08 -4.46e-08 2.59432e-08)
(8.82299e-09 -4.78028e-08 2.91849e-08)
(6.161e-09 -5.04818e-08 3.19567e-08)
(2.55902e-09 -5.28009e-08 3.40104e-08)
(-8.40613e-10 -5.49764e-08 3.53119e-08)
(-2.67317e-09 -5.74078e-08 3.62454e-08)
(0 0 0)
(2.39503e-09 -5.87498e-09 2.26288e-09)
(4.53608e-09 -1.12578e-08 4.3925e-09)
(6.47452e-09 -1.63789e-08 6.52705e-09)
(8.24838e-09 -2.1418e-08 8.78347e-09)
(9.88075e-09 -2.65083e-08 1.12624e-08)
(1.13767e-08 -3.17348e-08 1.4049e-08)
(1.27172e-08 -3.71317e-08 1.72094e-08)
(1.38489e-08 -4.26782e-08 2.0781e-08)
(1.46688e-08 -4.82922e-08 2.47562e-08)
(1.5003e-08 -5.38246e-08 2.90582e-08)
(1.45839e-08 -5.9061e-08 3.35153e-08)
(1.30443e-08 -6.37444e-08 3.78555e-08)
(9.99905e-09 -6.76396e-08 4.17523e-08)
(5.39463e-09 -7.06516e-08 4.49456e-08)
(4.13666e-10 -7.28673e-08 4.72928e-08)
(-3.17795e-09 -7.50965e-08 4.90405e-08)
(0 0 0)
(2.91596e-09 -6.98693e-09 2.726e-09)
(5.52346e-09 -1.33962e-08 5.28882e-09)
(7.88651e-09 -1.95089e-08 7.85227e-09)
(1.00544e-08 -2.55469e-08 1.05547e-08)
(1.20609e-08 -3.16788e-08 1.35153e-08)
(1.39222e-08 -3.80198e-08 1.68353e-08)
(1.5632e-08 -4.46297e-08 2.05942e-08)
(1.71519e-08 -5.15087e-08 2.48389e-08)
(1.83979e-08 -5.85891e-08 2.95664e-08)
(1.92173e-08 -6.57219e-08 3.46965e-08)
(1.93587e-08 -7.26555e-08 4.00439e-08)
(1.8439e-08 -7.90051e-08 4.53074e-08)
(1.59595e-08 -8.42096e-08 5.01198e-08)
(1.15418e-08 -8.75302e-08 5.41782e-08)