/*--------------------------------*- C++ -*----------------------------------*\
| =========                 |                                                 |
| \\      /  F ield         | OpenFOAM: The Open Source CFD Toolbox           |
|  \\    /   O peration     | Version:  v1912                                 |
|   \\  /    A nd           | Website:  www.openfoam.com                      |
|    \\/     M anipulation  |                                                 |
\*---------------------------------------------------------------------------*/
FoamFile
{
    version     2.0;
    format      ascii;
    class       volScalarField;
    location    "0.45/fluid";
    object      T;
}
// * * * * * * * * * * * * * * * * * * * * * * * * * * * * * * * * * * * * * //

dimensions      [0 0 0 1 0 0 0];


internalField   nonuniform List<scalar> 
14592
(
273.201
273.615
274.054
274.529
275.052
275.633
276.286
277.022
277.857
278.806
279.886
281.117
282.525
284.148
286.057
288.426
273.2
273.61
274.045
274.517
275.036
275.613
276.261
276.992
277.821
278.764
279.837
281.062
282.466
284.088
285.994
288.339
273.197
273.602
274.032
274.498
275.009
275.579
276.218
276.939
277.757
278.688
279.749
280.962
282.357
283.975
285.887
288.251
273.194
273.592
274.015
274.472
274.975
275.533
276.16
276.867
277.669
278.581
279.623
280.817
282.195
283.806
285.727
288.131
273.19
273.58
273.994
274.441
274.932
275.477
276.088
276.777
277.557
278.445
279.459
280.624
281.975
283.567
285.492
287.95
273.186
273.566
273.97
274.405
274.883
275.412
276.004
276.671
277.424
278.281
279.258
280.381
281.688
283.24
285.149
287.66
273.181
273.551
273.943
274.366
274.828
275.34
275.911
276.551
277.274
278.092
279.022
280.089
281.329
282.804
284.643
287.153
273.175
273.535
273.915
274.324
274.77
275.263
275.81
276.422
277.11
277.883
278.758
279.754
280.9
282.248
283.911
286.195
273.207
273.634
274.087
274.579
275.12
275.725
276.406
277.177
278.056
279.059
280.206
281.521
283.035
284.788
286.851
289.348
273.206
273.628
274.078
274.566
275.104
275.704
276.38
277.146
278.018
279.015
280.156
281.465
282.975
284.728
286.791
289.28
273.203
273.621
274.064
274.546
275.077
275.669
276.335
277.091
277.952
278.936
280.064
281.361
282.863
284.614
286.687
289.203
273.2
273.61
274.047
274.519
275.04
275.621
276.275
277.016
277.859
278.824
279.932
281.21
282.696
284.442
286.531
289.097
273.196
273.598
274.025
274.487
274.996
275.563
276.2
276.921
277.742
278.681
279.76
281.008
282.467
284.198
286.299
288.932
273.191
273.583
274
274.45
274.945
275.495
276.112
276.81
277.603
278.509
279.549
280.753
282.166
283.859
285.952
288.658
273.186
273.567
273.972
274.409
274.888
275.419
276.014
276.685
277.444
278.309
279.299
280.444
281.785
283.398
285.424
288.153
273.181
273.55
273.942
274.365
274.827
275.338
275.909
276.549
277.271
278.089
279.019
280.086
281.325
282.801
284.64
287.151
273.213
273.651
274.118
274.625
275.184
275.81
276.516
277.319
278.236
279.285
280.487
281.866
283.452
285.276
287.382
289.819
273.212
273.646
274.109
274.612
275.167
275.788
276.49
277.287
278.197
279.239
280.435
281.809
283.391
285.215
287.325
289.759
273.209
273.638
274.095
274.591
275.139
275.752
276.443
277.23
278.128
279.157
280.34
281.702
283.276
285.101
287.224
289.688
273.206
273.627
274.076
274.563
275.101
275.702
276.381
277.152
278.032
279.042
280.204
281.546
283.106
284.928
287.069
289.587
273.201
273.614
274.054
274.53
275.055
275.642
276.303
277.054
277.91
278.893
280.025
281.337
282.87
284.679
286.837
289.428
273.196
273.599
274.028
274.491
275.002
275.571
276.212
276.938
277.765
278.713
279.805
281.072
282.559
284.33
286.486
289.158
273.191
273.583
273.999
274.449
274.943
275.492
276.109
276.807
277.599
278.504
279.544
280.749
282.162
283.854
285.948
288.656
273.185
273.565
273.968
274.403
274.88
275.408
276
276.665
277.418
278.274
279.25
280.373
281.68
283.232
285.142
287.655
273.218
273.667
274.145
274.666
275.241
275.885
276.613
277.443
278.391
279.477
280.721
282.146
283.775
285.63
287.729
290.075
273.217
273.662
274.136
274.652
275.223
275.863
276.586
277.41
278.351
279.43
280.668
282.088
283.713
285.569
287.673
290.018
273.214
273.653
274.122
274.631
275.194
275.825
276.538
277.351
278.28
279.346
280.571
281.979
283.597
285.455
287.573
289.95
273.21
273.642
274.103
274.603
275.155
275.774
276.474
277.27
278.181
279.227
280.43
281.819
283.424
285.279
287.419
289.85
273.206
273.629
274.079
274.568
275.108
275.712
276.393
277.169
278.056
279.074
280.247
281.605
283.183
285.027
287.186
289.693
273.201
273.614
274.052
274.528
275.053
275.639
276.299
277.049
277.906
278.888
280.019
281.331
282.864
284.673
286.832
289.424
273.196
273.597
274.023
274.484
274.992
275.557
276.194
276.914
277.734
278.672
279.75
280.998
282.456
284.188
286.29
288.927
273.19
273.579
273.991
274.437
274.927
275.471
276.08
276.767
277.546
278.433
279.445
280.61
281.961
283.553
285.48
287.942
273.223
273.68
274.169
274.7
275.288
275.947
276.694
277.545
278.518
279.632
280.907
282.362
284.015
285.879
287.954
290.224
273.221
273.675
274.159
274.686
275.27
275.925
276.666
277.511
278.477
279.584
280.853
282.302
283.953
285.818
287.899
290.169
273.218
273.666
274.144
274.664
275.24
275.886
276.617
277.451
278.405
279.498
280.753
282.192
283.835
285.703
287.799
290.101
273.215
273.655
274.125
274.635
275.201
275.834
276.551
277.368
278.303
279.377
280.61
282.029
283.659
285.526
287.645
290.002
273.21
273.642
274.101
274.6
275.152
275.77
276.469
277.264
278.175
279.22
280.423
281.811
283.415
285.271
287.411
289.845
273.205
273.626
274.073
274.559
275.096
275.695
276.372
277.142
278.021
279.029
280.19
281.532
283.091
284.914
287.057
289.579
273.199
273.608
274.043
274.514
275.033
275.612
276.264
277.003
277.845
278.808
279.914
281.191
282.677
284.424
286.515
289.085
273.193
273.59
274.011
274.466
274.966
275.523
276.147
276.852
277.652
278.562
279.602
280.795
282.173
283.784
285.707
288.117
273.226
273.691
274.187
274.727
275.325
275.996
276.756
277.623
278.614
279.748
281.044
282.518
284.183
286.046
288.098
290.313
273.224
273.685
274.177
274.713
275.306
275.973
276.728
277.588
278.573
279.7
280.989
282.457
284.121
285.985
288.043
290.259
273.222
273.677
274.162
274.691
275.276
275.934
276.678
277.527
278.499
279.613
280.888
282.345
284.002
285.869
287.943
290.191
273.218
273.665
274.142
274.661
275.236
275.881
276.611
277.443
278.396
279.489
280.743
282.181
283.825
285.692
287.789
290.093
273.213
273.651
274.118
274.625
275.186
275.815
276.527
277.338
278.265
279.329
280.553
281.96
283.578
285.436
287.555
289.936
273.208
273.635
274.09
274.584
275.129
275.739
276.428
277.212
278.108
279.135
280.316
281.677
283.251
285.076
287.2
289.671
273.202
273.617
274.059
274.537
275.065
275.654
276.318
277.071
277.929
278.91
280.036
281.332
282.833
284.584
286.659
289.182
273.196
273.599
274.026
274.488
274.997
275.563
276.199
276.917
277.732
278.66
279.718
280.93
282.324
283.942
285.855
288.225
273.228
273.698
274.199
274.745
275.35
276.029
276.799
277.676
278.679
279.826
281.134
282.618
284.289
286.149
288.183
290.364
273.227
273.692
274.189
274.731
275.331
276.006
276.77
277.641
278.637
279.777
281.078
282.558
284.227
286.088
288.128
290.31
273.224
273.683
274.174
274.708
275.301
275.966
276.72
277.579
278.563
279.689
280.977
282.445
284.108
285.972
288.029
290.243
273.22
273.672
274.154
274.679
275.26
275.912
276.651
277.494
278.458
279.564
280.83
282.279
283.929
285.794
287.874
290.145
273.215
273.658
274.129
274.642
275.21
275.846
276.566
277.387
278.326
279.402
280.638
282.056
283.681
285.537
287.64
289.988
273.21
273.642
274.101
274.6
275.152
275.769
276.467
277.26
278.167
279.206
280.399
281.772
283.352
285.176
287.286
289.724
273.204
273.624
274.07
274.553
275.087
275.683
276.355
277.117
277.985
278.978
280.116
281.424
282.932
284.684
286.746
289.238
273.198
273.605
274.036
274.504
275.018
275.591
276.234
276.961
277.786
278.725
279.795
281.018
282.421
284.041
285.945
288.289
273.229
273.701
274.205
274.754
275.362
276.046
276.82
277.702
278.711
279.864
281.178
282.667
284.341
286.197
288.223
290.388
273.228
273.696
274.196
274.74
275.344
276.022
276.791
277.667
278.669
279.815
281.123
282.607
284.278
286.137
288.168
290.334
273.225
273.687
274.18
274.717
275.313
275.982
276.74
277.605
278.594
279.727
281.021
282.494
284.159
286.021
288.069
290.267
273.221
273.675
274.16
274.687
275.272
275.928
276.672
277.52
278.49
279.601
280.874
282.327
283.98
285.842
287.914
290.168
273.217
273.661
274.135
274.651
275.222
275.862
276.586
277.412
278.356
279.439
280.681
282.104
283.731
285.585
287.68
290.012
273.211
273.645
274.107
274.609
275.163
275.784
276.486
277.284
278.197
279.242
280.441
281.818
283.401
285.224
287.326
289.748
273.205
273.627
274.075
274.562
275.098
275.697
276.373
277.14
278.014
279.013
280.156
281.469
282.98
284.731
286.787
289.263
273.199
273.608
274.042
274.512
275.029
275.605
276.252
276.983
277.814
278.758
279.834
281.062
282.468
284.088
285.988
288.319
273.166
273.507
273.865
274.246
274.655
275.096
275.574
276.089
276.641
277.227
277.841
278.469
279.094
279.695
280.241
280.702
273.165
273.503
273.859
274.238
274.644
275.083
275.557
276.069
276.617
277.2
277.809
278.433
279.054
279.651
280.194
280.653
273.163
273.498
273.849
274.223
274.625
275.058
275.527
276.032
276.574
277.149
277.75
278.366
278.979
279.569
280.106
280.56
273.161
273.49
273.836
274.204
274.599
275.025
275.486
275.982
276.514
277.078
277.667
278.271
278.872
279.45
279.977
280.423
273.158
273.481
273.82
274.181
274.568
274.985
275.435
275.919
276.438
276.988
277.562
278.15
278.736
279.298
279.812
280.246
273.154
273.47
273.802
274.154
274.531
274.938
275.375
275.846
276.35
276.883
277.439
278.007
278.573
279.116
279.612
280.032
273.151
273.459
273.782
274.125
274.491
274.886
275.31
275.766
276.252
276.766
277.301
277.847
278.389
278.909
279.384
279.785
273.147
273.446
273.76
274.093
274.449
274.831
275.241
275.68
276.147
276.64
277.152
277.673
278.19
278.684
279.134
279.515
273.167
273.51
273.87
274.254
274.667
275.113
275.597
276.12
276.682
277.281
277.91
278.558
279.208
279.835
280.41
280.897
273.166
273.506
273.864
274.245
274.655
275.099
275.579
276.098
276.657
277.252
277.877
278.52
279.166
279.789
280.361
280.847
273.164
273.5
273.854
274.231
274.636
275.074
275.548
276.061
276.612
277.199
277.816
278.451
279.088
279.704
280.27
280.751
273.162
273.493
273.841
274.211
274.609
275.04
275.506
276.009
276.55
277.126
277.731
278.354
278.979
279.583
280.138
280.611
273.159
273.483
273.824
274.188
274.578
274.999
275.454
275.946
276.474
277.035
277.624
278.23
278.838
279.427
279.967
280.428
273.155
273.472
273.806
274.16
274.541
274.951
275.394
275.872
276.384
276.928
277.498
278.084
278.671
279.239
279.76
280.205
273.151
273.461
273.785
274.131
274.5
274.898
275.328
275.79
276.284
276.808
277.356
277.919
278.481
279.024
279.522
279.948
273.147
273.448
273.764
274.099
274.457
274.843
275.257
275.702
276.177
276.68
277.204
277.74
278.274
278.789
279.261
279.663
273.17
273.517
273.882
274.272
274.693
275.149
275.644
276.183
276.765
277.39
278.051
278.739
279.436
280.119
280.752
281.296
273.168
273.513
273.876
274.263
274.68
275.133
275.626
276.16
276.739
277.359
278.016
278.699
279.392
280.071
280.701
281.243
273.166
273.507
273.865
274.248
274.66
275.107
275.593
276.121
276.692
277.304
277.952
278.627
279.311
279.982
280.606
281.143
273.164
273.499
273.852
274.228
274.633
275.072
275.55
276.068
276.628
277.228
277.864
278.525
279.196
279.854
280.468
280.996
273.161
273.489
273.835
274.204
274.6
275.03
275.497
276.002
276.549
277.133
277.752
278.395
279.049
279.689
280.287
280.803
273.157
273.478
273.816
274.176
274.563
274.981
275.435
275.926
276.456
277.022
277.62
278.241
278.872
279.49
280.066
280.564
273.153
273.466
273.795
274.145
274.521
274.927
275.366
275.841
276.352
276.897
277.471
278.067
278.669
279.259
279.809
280.284
273.149
273.454
273.773
274.113
274.477
274.87
275.294
275.751
276.241
276.763
277.311
277.877
278.448
279.005
279.523
279.97
273.173
273.527
273.901
274.3
274.732
275.202
275.716
276.277
276.889
277.551
278.259
279.006
279.776
280.545
281.273
281.909
273.172
273.523
273.894
274.29
274.719
275.186
275.696
276.253
276.861
277.518
278.222
278.964
279.73
280.494
281.219
281.854
273.17
273.517
273.883
274.275
274.698
275.159
275.662
276.213
276.812
277.46
278.155
278.888
279.644
280.4
281.119
281.749
273.167
273.509
273.869
274.254
274.67
275.123
275.617
276.157
276.745
277.38
278.061
278.78
279.522
280.265
280.972
281.594
273.164
273.499
273.852
274.229
274.636
275.079
275.562
276.088
276.661
277.28
277.943
278.642
279.364
280.088
280.778
281.386
273.16
273.488
273.832
274.2
274.597
275.028
275.497
276.008
276.563
277.163
277.803
278.477
279.173
279.871
280.536
281.124
273.156
273.475
273.811
274.169
274.554
274.972
275.426
275.919
276.454
277.03
277.644
278.289
278.953
279.617
280.25
280.808
273.152
273.462
273.788
274.135
274.509
274.912
275.35
275.825
276.337
276.887
277.472
278.083
278.71
279.333
279.925
280.446
273.177
273.541
273.925
274.337
274.783
275.271
275.808
276.398
277.047
277.756
278.526
279.351
280.219
281.106
281.972
282.751
273.176
273.537
273.918
274.326
274.77
275.254
275.787
276.373
277.017
277.722
278.486
279.306
280.17
281.053
281.917
282.694
273.174
273.53
273.907
274.31
274.748
275.226
275.752
276.33
276.966
277.661
278.415
279.225
280.079
280.954
281.811
282.585
273.171
273.522
273.892
274.289
274.718
275.188
275.704
276.272
276.895
277.576
278.316
279.11
279.948
280.81
281.655
282.422
273.168
273.512
273.874
274.263
274.683
275.142
275.646
276.199
276.806
277.47
278.19
278.962
279.778
280.618
281.445
282.198
273.164
273.5
273.854
274.233
274.642
275.089
275.578
276.115
276.703
277.344
278.039
278.783
279.57
280.379
281.178
281.907
273.16
273.487
273.832
274.2
274.597
275.03
275.503
276.021
276.587
277.202
277.867
278.577
279.326
280.094
280.852
281.543
273.156
273.474
273.808
274.165
274.55
274.968
275.423
275.921
276.462
277.048
277.679
278.35
279.053
279.77
280.473
281.112
273.183
273.557
273.954
274.38
274.843
275.353
275.916
276.54
277.232
277.997
278.84
279.758
280.747
281.789
282.845
283.837
273.181
273.553
273.946
274.369
274.829
275.335
275.894
276.514
277.201
277.961
278.798
279.711
280.695
281.734
282.788
283.779
273.179
273.546
273.935
274.352
274.806
275.305
275.857
276.469
277.146
277.896
278.722
279.625
280.599
281.629
282.679
283.668
273.176
273.538
273.919
274.33
274.776
275.266
275.807
276.407
277.071
277.806
278.616
279.502
280.46
281.476
282.515
283.5
273.173
273.527
273.901
274.302
274.739
275.217
275.746
276.33
276.977
277.693
278.48
279.342
280.276
281.269
282.29
283.264
273.169
273.515
273.88
274.271
274.696
275.162
275.674
276.241
276.867
277.558
278.317
279.148
280.047
281.006
281.994
282.944
273.165
273.501
273.857
274.237
274.649
275.1
275.595
276.141
276.742
277.404
278.13
278.921
279.775
280.683
281.62
282.523
273.16
273.487
273.832
274.2
274.599
275.034
275.51
276.034
276.608
277.238
277.925
278.669
279.467
280.309
281.17
281.994
273.189
273.576
273.986
274.428
274.91
275.443
276.035
276.696
277.436
278.262
279.184
280.207
281.335
282.564
283.87
285.18
273.187
273.571
273.978
274.417
274.896
275.424
276.012
276.669
277.403
278.224
279.139
280.157
281.28
282.506
283.811
285.121
273.185
273.564
273.966
274.399
274.871
275.393
275.973
276.621
277.345
278.155
279.059
280.065
281.179
282.397
283.7
285.012
273.182
273.555
273.95
274.375
274.84
275.352
275.921
276.556
277.266
278.059
278.946
279.934
281.031
282.236
283.532
284.847
273.178
273.544
273.931
274.347
274.801
275.301
275.856
276.475
277.166
277.938
278.801
279.763
280.834
282.016
283.296
284.61
273.174
273.531
273.909
274.314
274.756
275.242
275.781
276.38
277.048
277.793
278.625
279.552
280.584
281.727
282.975
284.27
273.17
273.517
273.884
274.278
274.706
275.177
275.697
276.273
276.915
277.628
278.421
279.303
280.282
281.364
282.549
283.789
273.165
273.502
273.858
274.24
274.654
275.107
275.607
276.159
276.771
277.448
278.196
279.023
279.933
280.93
282.009
283.129
273.195
273.595
274.02
274.478
274.981
275.538
276.16
276.86
277.647
278.536
279.539
280.67
281.943
283.377
284.985
286.763
273.194
273.59
274.011
274.467
274.965
275.518
276.136
276.831
277.613
278.496
279.492
280.617
281.886
283.317
284.925
286.696
273.191
273.583
273.999
274.448
274.94
275.486
276.096
276.78
277.552
278.423
279.408
280.521
281.781
283.206
284.814
286.594
273.188
273.574
273.982
274.423
274.907
275.442
276.04
276.712
277.468
278.322
279.288
280.383
281.625
283.04
284.648
286.446
273.184
273.562
273.962
274.394
274.866
275.389
275.972
276.626
277.362
278.193
279.133
280.2
281.416
282.808
284.409
286.226
273.18
273.549
273.939
274.359
274.819
275.327
275.892
276.525
277.237
278.038
278.944
279.972
281.146
282.498
284.071
285.893
273.175
273.534
273.913
274.322
274.767
275.258
275.803
276.412
277.095
277.861
278.724
279.701
280.813
282.096
283.597
285.372
273.17
273.518
273.886
274.281
274.712
275.185
275.708
276.291
276.94
277.666
278.479
279.392
280.423
281.597
282.957
284.554
273.17
273.518
273.886
274.281
274.711
275.183
275.707
276.289
276.938
277.664
278.477
279.39
280.42
281.595
282.955
284.551
273.165
273.502
273.857
274.239
274.652
275.105
275.604
276.156
276.767
277.444
278.192
279.018
279.928
280.926
282.005
283.126
273.16
273.486
273.831
274.199
274.597
275.031
275.507
276.03
276.604
277.233
277.919
278.663
279.461
280.303
281.164
281.989
273.155
273.473
273.807
274.163
274.547
274.964
275.419
275.916
276.456
277.042
277.673
278.344
279.046
279.764
280.467
281.106
273.152
273.461
273.787
274.133
274.506
274.909
275.346
275.819
276.331
276.881
277.464
278.075
278.702
279.326
279.918
280.44
273.149
273.452
273.772
274.111
274.474
274.866
275.289
275.745
276.235
276.756
277.303
277.869
278.44
278.997
279.516
279.963
273.147
273.447
273.762
274.096
274.454
274.838
275.252
275.696
276.171
276.672
277.196
277.732
278.266
278.781
279.253
279.656
273.146
273.445
273.758
274.091
274.446
274.826
275.235
275.674
276.141
276.633
277.144
277.665
278.181
278.676
279.126
279.508
273.175
273.533
273.912
274.32
274.765
275.255
275.8
276.408
277.09
277.856
278.719
279.695
280.807
282.09
283.592
285.367
273.169
273.516
273.883
274.276
274.703
275.173
275.692
276.268
276.908
277.621
278.414
279.295
280.274
281.357
282.541
283.782
273.164
273.5
273.855
274.234
274.646
275.095
275.59
276.135
276.735
277.397
278.122
278.912
279.766
280.674
281.611
282.515
273.16
273.486
273.83
274.197
274.594
275.025
275.497
276.014
276.579
277.193
277.857
278.567
279.315
280.084
280.842
281.535
273.156
273.474
273.809
274.166
274.55
274.967
275.42
275.912
276.446
277.021
277.634
278.278
278.942
279.606
280.239
280.799
273.153
273.465
273.793
274.142
274.517
274.922
275.36
275.833
276.343
276.887
277.461
278.056
278.658
279.248
279.798
280.274
273.151
273.459
273.783
274.127
274.496
274.893
275.321
275.782
276.275
276.798
277.345
277.907
278.47
279.013
279.512
279.938
273.15
273.457
273.779
274.121
274.487
274.88
275.303
275.758
276.243
276.756
277.29
277.835
278.378
278.898
279.373
279.776
273.18
273.547
273.937
274.357
274.815
275.322
275.886
276.518
277.228
278.029
278.934
279.962
281.135
282.488
284.062
285.885
273.174
273.53
273.906
274.311
274.751
275.236
275.773
276.371
277.038
277.782
278.613
279.54
280.572
281.715
282.963
284.26
273.168
273.513
273.877
274.267
274.691
275.155
275.666
276.232
276.856
277.546
278.305
279.134
280.034
280.992
281.981
282.932
273.164
273.498
273.851
274.229
274.637
275.082
275.57
276.105
276.692
277.332
278.025
278.769
279.555
280.365
281.164
281.894
273.16
273.486
273.83
274.196
274.592
275.021
275.489
275.998
276.552
277.15
277.789
278.463
279.159
279.856
280.522
281.111
273.157
273.477
273.813
274.172
274.557
274.974
275.426
275.916
276.444
277.009
277.606
278.227
278.857
279.475
280.052
280.552
273.155
273.471
273.803
274.156
274.535
274.943
275.385
275.861
276.372
276.915
277.484
278.069
278.656
279.224
279.746
280.193
273.154
273.468
273.799
274.15
274.525
274.93
275.366
275.836
276.338
276.87
277.425
277.992
278.558
279.102
279.598
280.019
273.184
273.56
273.959
274.389
274.86
275.381
275.962
276.615
277.349
278.179
279.118
280.184
281.399
282.792
284.394
286.214
273.178
273.542
273.927
274.342
274.794
275.292
275.846
276.462
277.152
277.922
278.784
279.745
280.816
281.998
283.279
284.594
273.172
273.525
273.897
274.297
274.732
275.208
275.735
276.317
276.962
277.676
278.462
279.324
280.257
281.25
282.272
283.247
273.167
273.51
273.871
274.257
274.676
275.133
275.635
276.186
276.791
277.453
278.171
278.943
279.759
280.599
281.427
282.181
273.163
273.497
273.848
274.223
274.629
275.069
275.55
276.075
276.646
277.263
277.924
278.623
279.344
280.068
280.759
281.369
273.16
273.487
273.831
274.198
274.593
275.02
275.485
275.989
276.533
277.116
277.733
278.376
279.029
279.67
280.269
280.786
273.158
273.481
273.82
274.182
274.57
274.989
275.442
275.932
276.458
277.018
277.606
278.211
278.819
279.407
279.949
280.412
273.157
273.478
273.816
274.175
274.56
274.975
275.423
275.905
276.422
276.971
277.544
278.131
278.716
279.279
279.794
280.23
273.187
273.571
273.978
274.417
274.898
275.431
276.026
276.695
277.449
278.301
279.265
280.359
281.601
283.015
284.625
286.426
273.181
273.552
273.945
274.368
274.83
275.34
275.906
276.538
277.246
278.037
278.922
279.909
281.005
282.211
283.507
284.825
273.175
273.535
273.914
274.322
274.766
275.253
275.792
276.389
277.051
277.784
278.591
279.476
280.433
281.45
282.489
283.477
273.17
273.519
273.887
274.281
274.708
275.175
275.689
276.253
276.874
277.553
278.291
279.084
279.922
280.783
281.63
282.398
273.166
273.506
273.864
274.246
274.66
275.11
275.602
276.139
276.724
277.357
278.037
278.754
279.496
280.239
280.947
281.572
273.163
273.496
273.846
274.22
274.623
275.06
275.534
276.05
276.608
277.206
277.839
278.499
279.17
279.829
280.444
280.975
273.161
273.489
273.835
274.204
274.599
275.027
275.49
275.991
276.53
277.104
277.707
278.329
278.953
279.558
280.115
280.59
273.16
273.487
273.831
274.197
274.589
275.013
275.47
275.964
276.493
277.055
277.643
278.246
278.847
279.426
279.954
280.403
273.19
273.579
273.992
274.438
274.927
275.469
276.075
276.757
277.525
278.394
279.376
280.487
281.746
283.171
284.78
286.562
273.184
273.56
273.959
274.389
274.858
275.376
275.953
276.597
277.318
278.125
279.026
280.031
281.143
282.362
283.665
284.979
273.178
273.542
273.928
274.342
274.793
275.288
275.836
276.444
277.119
277.866
278.689
279.59
280.563
281.594
282.644
283.636
273.173
273.526
273.9
274.3
274.734
275.209
275.731
276.306
276.938
277.63
278.383
279.191
280.044
280.919
281.778
282.554
273.168
273.513
273.876
274.264
274.684
275.142
275.642
276.188
276.785
277.43
278.123
278.854
279.61
280.366
281.087
281.72
273.165
273.503
273.858
274.238
274.647
275.09
275.573
276.098
276.666
277.275
277.921
278.594
279.278
279.949
280.575
281.116
273.163
273.496
273.847
274.221
274.623
275.057
275.528
276.038
276.586
277.171
277.786
278.419
279.056
279.673
280.24
280.725
273.162
273.494
273.843
274.214
274.612
275.042
275.508
276.01
276.549
277.121
277.72
278.335
278.948
279.538
280.077
280.535
273.192
273.585
274.002
274.453
274.947
275.496
276.109
276.799
277.577
278.456
279.449
280.572
281.84
283.269
284.875
286.644
273.186
273.566
273.969
274.403
274.877
275.401
275.985
276.637
277.366
278.183
279.096
280.111
281.233
282.459
283.763
285.073
273.18
273.548
273.937
274.355
274.811
275.312
275.866
276.482
277.165
277.921
278.755
279.666
280.649
281.688
282.743
283.736
273.174
273.531
273.908
274.313
274.751
275.231
275.76
276.341
276.982
277.682
278.444
279.262
280.124
281.009
281.874
282.654
273.17
273.518
273.884
274.277
274.701
275.163
275.669
276.222
276.826
277.48
278.181
278.921
279.686
280.451
281.179
281.817
273.167
273.507
273.866
274.25
274.663
275.111
275.6
276.13
276.705
277.322
277.976
278.658
279.35
280.029
280.663
281.209
273.165
273.501
273.855
274.232
274.638
275.078
275.554
276.069
276.625
277.216
277.839
278.481
279.126
279.75
280.325
280.815
273.164
273.498
273.851
274.225
274.628
275.063
275.533
276.041
276.586
277.166
277.772
278.395
279.016
279.614
280.16
280.623
273.193
273.588
274.007
274.46
274.957
275.509
276.126
276.82
277.603
278.487
279.486
280.614
281.885
283.317
284.921
286.683
273.186
273.569
273.973
274.41
274.887
275.414
276.001
276.657
277.391
278.213
279.131
280.151
281.278
282.506
283.811
285.119
273.181
273.55
273.941
274.362
274.82
275.324
275.882
276.501
277.188
277.949
278.787
279.703
280.691
281.734
282.791
283.785
273.175
273.534
273.913
274.319
274.76
275.243
275.774
276.359
277.003
277.709
278.475
279.298
280.165
281.053
281.921
282.703
273.171
273.52
273.889
274.283
274.71
275.175
275.683
276.24
276.847
277.505
278.21
278.955
279.724
280.493
281.224
281.866
273.167
273.51
273.871
274.256
274.671
275.122
275.613
276.147
276.725
277.346
278.004
278.69
279.386
280.07
280.707
281.256
273.165
273.503
273.859
274.238
274.646
275.088
275.567
276.086
276.644
277.24
277.866
278.512
279.161
279.789
280.367
280.86
273.164
273.501
273.855
274.231
274.636
275.073
275.546
276.057
276.605
277.188
277.799
278.425
279.051
279.652
280.201
280.667
273.142
273.434
273.739
274.062
274.406
274.774
275.17
275.592
276.04
276.511
276.999
277.494
277.983
278.449
278.873
279.231
273.138
273.421
273.717
274.03
274.363
274.719
275.1
275.505
275.934
276.384
276.847
277.315
277.777
278.215
278.611
278.946
273.135
273.41
273.697
274.001
274.324
274.668
275.034
275.424
275.835
276.263
276.703
277.146
277.58
277.991
278.361
278.674
273.131
273.399
273.68
273.975
274.288
274.621
274.976
275.351
275.745
276.154
276.573
276.993
277.402
277.788
278.135
278.427
273.128
273.391
273.665
273.953
274.258
274.582
274.926
275.289
275.669
276.062
276.463
276.862
277.251
277.616
277.942
278.216
273.126
273.384
273.653
273.936
274.236
274.553
274.888
275.241
275.61
275.99
276.377
276.761
277.133
277.481
277.791
278.051
273.125
273.38
273.646
273.926
274.221
274.533
274.863
275.209
275.57
275.942
276.319
276.692
277.053
277.389
277.688
277.938
273.124
273.378
273.643
273.921
274.214
274.524
274.851
275.194
275.551
275.919
276.29
276.658
277.013
277.343
277.637
277.882
273.143
273.435
273.742
274.067
274.414
274.786
275.185
275.613
276.068
276.548
277.046
277.555
278.059
278.544
278.987
279.363
273.139
273.423
273.72
274.035
274.371
274.73
275.114
275.525
275.96
276.417
276.89
277.37
277.845
278.298
278.711
279.061
273.135
273.411
273.7
274.006
274.331
274.677
275.048
275.442
275.858
276.293
276.742
277.195
277.641
278.064
278.448
278.773
273.132
273.401
273.682
273.979
274.295
274.63
274.988
275.367
275.766
276.182
276.608
277.036
277.456
277.852
278.21
278.511
273.129
273.392
273.667
273.957
274.265
274.591
274.938
275.304
275.689
276.087
276.494
276.902
277.298
277.672
278.007
278.289
273.127
273.386
273.656
273.941
274.242
274.561
274.899
275.256
275.629
276.014
276.406
276.797
277.176
277.531
277.849
278.115
273.126
273.381
273.649
273.93
274.227
274.542
274.874
275.224
275.589
275.965
276.347
276.726
277.093
277.436
277.741
277.997
273.125
273.38
273.646
273.926
274.221
274.533
274.863
275.209
275.57
275.942
276.319
276.692
277.052
277.388
277.688
277.938
273.145
273.441
273.751
274.08
274.433
274.811
275.22
275.658
276.127
276.625
277.145
277.68
278.217
278.738
279.22
279.635
273.141
273.428
273.729
274.048
274.389
274.754
275.147
275.567
276.015
276.488
276.98
277.483
277.986
278.47
278.916
279.297
273.137
273.416
273.708
274.018
274.347
274.7
275.078
275.481
275.909
276.358
276.823
277.296
277.765
278.214
278.625
278.974
273.133
273.405
273.69
273.991
274.31
274.652
275.016
275.404
275.813
276.241
276.681
277.127
277.565
277.983
278.362
278.683
273.13
273.396
273.675
273.968
274.28
274.611
274.964
275.338
275.732
276.141
276.561
276.983
277.396
277.786
278.139
278.436
273.128
273.39
273.663
273.951
274.256
274.581
274.925
275.288
275.67
276.065
276.468
276.871
277.264
277.634
277.966
278.245
273.127
273.386
273.656
273.94
274.242
274.561
274.899
275.256
275.628
276.014
276.406
276.796
277.175
277.531
277.848
278.115
273.126
273.384
273.653
273.936
274.235
274.552
274.888
275.241
275.609
275.99
276.376
276.76
277.132
277.48
277.791
278.051
273.148
273.449
273.765
274.101
274.462
274.851
275.272
275.727
276.217
276.74
277.292
277.868
278.454
279.032
279.578
280.055
273.143
273.436
273.742
274.068
274.417
274.792
275.196
275.631
276.098
276.593
277.114
277.652
278.196
278.729
279.226
279.657
273.139
273.423
273.721
274.037
274.374
274.736
275.124
275.541
275.985
276.454
276.944
277.447
277.951
278.439
278.89
279.279
273.136
273.412
273.702
274.009
274.336
274.685
275.06
275.459
275.883
276.329
276.791
277.262
277.729
278.178
278.589
278.94
273.133
273.403
273.686
273.985
274.304
274.643
275.005
275.391
275.798
276.223
276.661
277.104
277.541
277.957
278.335
278.655
273.13
273.396
273.674
273.968
274.279
274.611
274.964
275.338
275.731
276.141
276.561
276.982
277.395
277.786
278.138
278.436
273.129
273.392
273.667
273.957
274.264
274.591
274.937
275.304
275.688
276.087
276.494
276.901
277.297
277.671
278.006
278.288
273.128
273.391
273.664
273.953
274.258
274.582
274.925
275.288
275.668
276.061
276.461
276.861
277.25
277.614
277.941
278.215
273.151
273.46
273.784
274.13
274.501
274.904
275.342
275.817
276.333
276.889
277.483
278.111
278.763
279.422
280.06
280.633
273.147
273.446
273.76
274.095
274.454
274.841
275.261
275.715
276.205
276.73
277.288
277.871
278.471
279.069
279.64
280.145
273.142
273.433
273.738
274.062
274.409
274.782
275.185
275.619
276.084
276.58
277.101
277.642
278.192
278.732
279.24
279.684
273.139
273.422
273.719
274.033
274.369
274.729
275.117
275.532
275.975
276.443
276.933
277.436
277.94
278.43
278.885
279.276
273.136
273.412
273.702
274.009
274.335
274.685
275.059
275.459
275.883
276.328
276.79
277.261
277.728
278.177
278.588
278.939
273.133
273.405
273.69
273.99
274.31
274.651
275.015
275.403
275.812
276.239
276.68
277.125
277.564
277.981
278.36
278.682
273.132
273.401
273.682
273.979
274.294
274.63
274.987
275.366
275.765
276.18
276.606
277.035
277.454
277.85