/*--------------------------------*- C++ -*----------------------------------*\
| =========                 |                                                 |
| \\      /  F ield         | OpenFOAM: The Open Source CFD Toolbox           |
|  \\    /   O peration     | Version:  v1912                                 |
|   \\  /    A nd           | Website:  www.openfoam.com                      |
|    \\/     M anipulation  |                                                 |
\*---------------------------------------------------------------------------*/
FoamFile
{
    version     2.0;
    format      ascii;
    class       surfaceScalarField;
    location    "0.72/fluid";
    object      meshPhi;
}
// * * * * * * * * * * * * * * * * * * * * * * * * * * * * * * * * * * * * * //

dimensions      [0 3 -1 0 0 0 0];
oriented        oriented;


internalField   nonuniform List<scalar> 
41600
(
1.57638e-13
-4.04142e-13
1.51931e-13
-1.56942e-13
3.01199e-13
-1.17726e-12
4.47814e-13
-4.62823e-13
4.36597e-13
-1.89463e-12
7.37991e-13
-7.63442e-13
5.69264e-13
-2.58141e-12
1.04174e-12
-1.07908e-12
7.04485e-13
-3.2545e-12
1.37643e-12
-1.42816e-12
8.47901e-13
-3.92126e-12
1.75831e-12
-1.82816e-12
1.00626e-12
-4.57738e-12
2.20302e-12
-2.29638e-12
1.18859e-12
-5.20269e-12
2.72574e-12
-2.85031e-12
1.40836e-12
-5.75335e-12
3.34092e-12
-3.50782e-12
1.68791e-12
-6.14776e-12
4.06149e-12
-4.28753e-12
2.06818e-12
-6.24107e-12
4.89822e-12
-5.21063e-12
2.62992e-12
-5.77638e-12
5.8614e-12
-6.30868e-12
3.53325e-12
-4.29004e-12
6.96841e-12
-7.64688e-12
5.05709e-12
-9.65488e-13
8.25385e-12
-9.37468e-12
7.30414e-12
5.02795e-12
9.69369e-12
-1.16485e-11
1.49441e-11
1.21544e-11
-1.76579e-11
4.6904e-13
-7.96368e-13
4.51834e-13
-4.6675e-13
8.96056e-13
-2.32034e-12
1.33169e-12
-1.37634e-12
1.29847e-12
-3.73589e-12
2.19427e-12
-2.26995e-12
1.6922e-12
-5.09362e-12
3.09668e-12
-3.20762e-12
2.09276e-12
-6.42837e-12
4.09032e-12
-4.24386e-12
2.51656e-12
-7.75752e-12
5.22331e-12
-5.43048e-12
2.98285e-12
-9.07724e-12
6.54194e-12
-6.81856e-12
3.51665e-12
-1.03557e-11
8.09099e-12
-8.4595e-12
4.15369e-12
-1.15208e-11
9.91261e-12
-1.04052e-11
4.95007e-12
-1.24398e-11
1.2043e-11
-1.27075e-11
6.00199e-12
-1.28889e-11
1.45076e-11
-1.54193e-11
7.48522e-12
-1.25113e-11
1.73169e-11
-1.8604e-11
9.71449e-12
-1.07875e-11
2.04656e-11
-2.23647e-11
1.31534e-11
-7.12112e-12
2.39195e-11
-2.68937e-11
1.7727e-11
-1.56145e-12
2.74424e-11
-3.22111e-11
5.04889e-12
3.01588e-11
-3.89653e-11
7.69073e-13
-1.16495e-12
7.40203e-13
-7.64643e-13
1.46879e-12
-3.39545e-12
2.18128e-12
-2.25441e-12
2.12718e-12
-5.47079e-12
3.59311e-12
-3.71691e-12
2.76973e-12
-7.46747e-12
5.06849e-12
-5.24978e-12
3.42119e-12
-9.44026e-12
6.69095e-12
-6.94153e-12
4.10744e-12
-1.14208e-11
8.53877e-12
-8.87638e-12
4.85791e-12
-1.34136e-11
1.06872e-11
-1.11372e-11
5.70899e-12
-1.53888e-11
1.32091e-11
-1.38069e-11
6.7089e-12
-1.72697e-11
1.61725e-11
-1.69684e-11
7.92576e-12
-1.89126e-11
1.96338e-11
-2.07007e-11
9.46205e-12
-2.00812e-11
2.36257e-11
-2.50737e-11
1.14786e-11
-2.04253e-11
2.81374e-11
-3.01423e-11
1.42128e-11
-1.95022e-11
3.30843e-11
-3.59404e-11
1.79075e-11
-1.69497e-11
3.82464e-11
-4.24553e-11
2.21511e-11
-1.30986e-11
4.30843e-11
-4.92568e-11
-8.84387e-12
4.68944e-11
-5.75094e-11
1.0508e-12
-1.49791e-12
1.01008e-12
-1.0434e-12
2.00591e-12
-4.36784e-12
2.97591e-12
-3.07552e-12
2.90259e-12
-7.04392e-12
4.89977e-12
-5.06827e-12
3.77462e-12
-9.62871e-12
6.90696e-12
-7.15333e-12
4.65463e-12
-1.21987e-11
9.11008e-12
-9.45005e-12
5.57622e-12
-1.48041e-11
1.16147e-11
-1.20719e-11
6.57652e-12
-1.74662e-11
1.45227e-11
-1.51304e-11
7.69901e-12
-2.01713e-11
1.79328e-11
-1.87376e-11
8.99658e-12
-2.28608e-11
2.19379e-11
-2.30046e-11
1.05343e-11
-2.54153e-11
2.6616e-11
-2.80359e-11
1.23921e-11
-2.7633e-11
3.20108e-11
-3.3917e-11
1.4664e-11
-2.92112e-11
3.80993e-11
-4.06923e-11
1.74387e-11
-2.97536e-11
4.47346e-11
-4.83262e-11
2.07178e-11
-2.88724e-11
5.15451e-11
-5.66264e-11
2.40108e-11
-2.66119e-11
5.77275e-11
-6.48367e-11
-2.33318e-11
6.22272e-11
-7.37362e-11
1.30812e-12
-1.78344e-12
1.25534e-12
-1.29665e-12
2.49552e-12
-5.20302e-12
3.6973e-12
-3.82075e-12
3.60703e-12
-8.39952e-12
6.08358e-12
-6.29214e-12
4.68315e-12
-1.15008e-11
8.56756e-12
-8.87201e-12
5.76275e-12
-1.46057e-11
1.12868e-11
-1.17061e-11
6.88541e-12
-1.77862e-11
1.43703e-11
-1.49328e-11
8.09386e-12
-2.10862e-11
1.79426e-11
-1.86882e-11
9.43635e-12
-2.45194e-11
2.21255e-11
-2.31093e-11
1.0968e-11
-2.80632e-11
2.70358e-11
-2.83333e-11
1.27494e-11
-3.1649e-11
3.27754e-11
-3.44914e-11
1.48405e-11
-3.51457e-11
3.94109e-11
-4.16939e-11
1.72836e-11
-3.83353e-11
4.69347e-11
-4.99997e-11
2.00591e-11
-4.08729e-11
5.51886e-11
-5.93556e-11
2.29981e-11
-4.22423e-11
6.37148e-11
-6.94687e-11
2.55459e-11
-4.19146e-11
7.14458e-11
-7.9287e-11
-3.92177e-11
7.69214e-11
-8.91731e-11
1.53613e-12
-2.01024e-12
1.47106e-12
-1.51931e-12
2.92812e-12
-5.86788e-12
4.33082e-12
-4.47491e-12
4.2265e-12
-9.48348e-12
7.11995e-12
-7.36305e-12
5.47666e-12
-1.30078e-11
1.00146e-11
-1.03688e-11
6.72192e-12
-1.65613e-11
1.31722e-11
-1.36589e-11
8.00603e-12
-2.02376e-11
1.67399e-11
-1.7391e-11
9.3757e-12
-2.41061e-11
2.08601e-11
-2.17202e-11
1.0883e-11
-2.82127e-11
2.56727e-11
-2.6803e-11
1.25868e-11
-3.25796e-11
3.13147e-11
-3.27983e-11
1.45511e-11
-3.7204e-11
3.79127e-11
-3.98636e-11
1.68399e-11
-4.20533e-11
4.55665e-11
-4.81439e-11
1.95016e-11
-4.7051e-11
5.43155e-11
-5.77468e-11
2.25261e-11
-5.20297e-11
6.40641e-11
-6.86833e-11
2.57484e-11
-5.65999e-11
7.44011e-11
-8.07146e-11
2.85496e-11
-5.9917e-11
8.41232e-11
-9.26425e-11
-5.97529e-11
9.14337e-11
-1.04653e-10
1.73129e-12
-2.16814e-12
1.65375e-12
-1.70778e-12
3.29701e-12
-6.33246e-12
4.86616e-12
-5.02736e-12
4.75127e-12
-1.02463e-11
7.99167e-12
-8.26325e-12
6.14239e-12
-1.40794e-11
1.12232e-11
-1.16181e-11
7.51615e-12
-1.79702e-11
1.47322e-11
-1.52733e-11
8.91845e-12
-2.2032e-11
1.86778e-11
-1.93993e-11
1.03981e-11
-2.6357e-11
2.32135e-11
-2.41628e-11
1.20097e-11
-3.10208e-11
2.84902e-11
-2.97319e-11
1.38164e-11
-3.6087e-11
3.46573e-11
-3.62788e-11
1.58919e-11
-4.1614e-11
4.18592e-11
-4.39795e-11
1.83234e-11
-4.76647e-11
5.02264e-11
-5.30108e-11
2.12137e-11
-5.432e-11
5.98561e-11
-6.35412e-11
2.46719e-11
-6.16877e-11
7.07634e-11
-7.5701e-11
2.87492e-11
-6.98492e-11
8.27198e-11
-8.94598e-11
3.29246e-11
-7.8346e-11
9.4622e-11
-1.03738e-10
-8.67741e-11
1.04565e-10
-1.19227e-10
1.8916e-12
1.80154e-12
-1.86012e-12
-2.24866e-12
3.59861e-12
5.29793e-12
-5.47256e-12
-6.57184e-12
5.1765e-12
8.69012e-12
-8.98384e-12
-1.06469e-11
6.67437e-12
1.21814e-11
-1.26074e-11
-1.46565e-11
8.13833e-12
1.59507e-11
-1.65326e-11
-1.87519e-11
9.61408e-12
2.01626e-11
-2.09355e-11
-2.30606e-11
1.11499e-11
2.49738e-11
-2.59859e-11
-2.76917e-11
1.27997e-11
3.05366e-11
-3.18535e-11
-3.27415e-11
1.46275e-11
3.70011e-11
-3.87104e-11
-3.83002e-11
1.67113e-11
4.4513e-11
-4.67335e-11
-4.44608e-11
1.9153e-11
5.32101e-11
-5.61056e-11
-5.1332e-11
2.20926e-11
6.32139e-11
-6.70187e-11
-5.90595e-11
2.57233e-11
7.46038e-11
-7.96689e-11
-6.78486e-11
3.02539e-11
8.7301e-11
-9.41897e-11
-7.79498e-11
3.52124e-11
1.00329e-10
-1.0965e-10
-8.8933e-11
1.12851e-10
-1.2861e-10
-1.03372e-10
1.5905e-13
-4.13084e-13
1.41386e-13
3.03695e-13
-1.20343e-12
4.16563e-13
4.39715e-13
-1.9372e-12
6.85921e-13
5.72335e-13
-2.64056e-12
9.67011e-13
7.0649e-13
-3.33138e-12
1.27546e-12
8.472e-13
-4.0181e-12
1.62558e-12
1.00013e-12
-4.6978e-12
2.03056e-12
1.17248e-12
-5.35266e-12
2.50225e-12
1.37453e-12
-5.94354e-12
3.05014e-12
1.62311e-12
-6.39893e-12
3.67893e-12
1.94905e-12
-6.59626e-12
4.38419e-12
2.41309e-12
-6.32974e-12
5.14473e-12
3.13295e-12
-5.25576e-12
5.90821e-12
4.29479e-12
-2.83775e-12
6.56063e-12
5.91525e-12
1.34161e-12
6.88521e-12
6.90561e-12
6.58035e-12
4.73285e-13
-8.13922e-13
4.20478e-13
9.03586e-13
-2.37169e-12
1.23876e-12
1.30795e-12
-3.81946e-12
2.03946e-12
1.70173e-12
-5.20976e-12
2.87458e-12
2.09942e-12
-6.57932e-12
3.7904e-12
2.51565e-12
-7.94742e-12
4.82929e-12
2.9666e-12
-9.3127e-12
6.03037e-12
3.47207e-12
-1.06473e-11
7.42881e-12
4.05885e-12
-1.1887e-11
9.05259e-12
4.76761e-12
-1.29154e-11
1.09151e-11
5.66726e-12
-1.3543e-11
1.30015e-11
6.88275e-12
-1.34875e-11
1.52437e-11
8.63208e-12
-1.23834e-11
1.74757e-11
1.12004e-11
-9.92164e-12
1.93519e-11
1.44345e-11
-6.39526e-12
2.02968e-11
-3.65729e-12
1.89284e-11
7.76203e-13
-1.19053e-12
6.8885e-13
1.48152e-12
-3.47028e-12
2.02912e-12
2.14347e-12
-5.59258e-12
3.33971e-12
2.78667e-12
-7.63676e-12
4.70523e-12
3.43435e-12
-9.66015e-12
6.20089e-12
4.1097e-12
-1.16969e-11
7.89562e-12
4.83754e-12
-1.37545e-11
9.85334e-12
5.64644e-12
-1.5808e-11
1.21317e-11
6.57134e-12
-1.77888e-11
1.4777e-11
7.65776e-12
-1.95706e-11
1.78123e-11
8.9695e-12
-2.09531e-11
2.12144e-11
1.06002e-11
-2.16597e-11
2.48733e-11
1.26751e-11
-2.13928e-11
2.8522e-11
1.52756e-11
-2.00383e-11
3.1632e-11
1.8037e-11
-1.80995e-11
3.3413e-11
-1.70871e-11
3.26456e-11
1.06092e-12
-1.53068e-12
9.4006e-13
2.02414e-12
-4.46373e-12
2.76849e-12
2.92636e-12
-7.20001e-12
4.55459e-12
3.80037e-12
-9.84566e-12
6.4126e-12
4.67696e-12
-1.24803e-11
8.44396e-12
5.58652e-12
-1.51569e-11
1.07418e-11
6.56069e-12
-1.78999e-11
1.3393e-11
7.63365e-12
-2.06997e-11
1.64766e-11
8.84252e-12
-2.3505e-11
2.00577e-11
1.02258e-11
-2.62097e-11
2.4173e-11
1.18184e-11
-2.86399e-11
2.88014e-11
1.3639e-11
-3.05491e-11
3.38126e-11
1.56581e-11
-3.1651e-11
3.88807e-11
1.77276e-11
-3.1751e-11
4.33628e-11
1.94462e-11
-3.10507e-11
4.62958e-11
-3.06189e-11
4.62957e-11
1.32134e-12
-1.82233e-12
1.16843e-12
2.51956e-12
-5.31685e-12
3.43995e-12
3.63902e-12
-8.58486e-12
5.65568e-12
4.7192e-12
-1.17583e-11
7.95548e-12
5.79713e-12
-1.49398e-11
1.04634e-11
6.90907e-12
-1.82039e-11
1.32934e-11
8.09213e-12
-2.15975e-11
1.65521e-11
9.38499e-12
-2.51373e-11
2.03379e-11
1.08266e-11
-2.88049e-11
2.4735e-11
1.24503e-11
-3.25389e-11
2.97976e-11
1.427e-11
-3.62226e-11
3.5519e-11
1.62503e-11
-3.96664e-11
4.17753e-11
1.82493e-11
-4.25827e-11
4.82246e-11
1.99442e-11
-4.45658e-11
5.41531e-11
2.08657e-11
-4.522e-11
5.84022e-11
-4.4847e-11
5.93053e-11
1.5525e-12
-2.05399e-12
1.36939e-12
2.95819e-12
-5.99594e-12
4.02993e-12
4.26723e-12
-9.69201e-12
6.62016e-12
5.52421e-12
-1.32976e-11
9.30078e-12
6.77078e-12
-1.69369e-11
1.22139e-11
8.0477e-12
-2.07067e-11
1.54897e-11
9.39654e-12
-2.46784e-11
1.92503e-11
1.08607e-11
-2.88995e-11
2.36098e-11
1.24844e-11
-3.33935e-11
2.86686e-11
1.4307e-11
-3.81582e-11
3.44996e-11
1.63508e-11
-4.31617e-11
4.11194e-11
1.85923e-11
-4.83282e-11
4.84325e-11
2.09041e-11
-5.34909e-11
5.61251e-11
2.29609e-11
-5.82646e-11
6.34742e-11
2.4197e-11
-6.18453e-11
6.91593e-11
-6.27271e-11
7.12297e-11
1.75077e-12
-2.21526e-12
1.53969e-12
3.33308e-12
-6.47042e-12
4.52882e-12
4.80091e-12
-1.04711e-11
7.43204e-12
6.20203e-12
-1.43919e-11
1.04254e-11
7.58093e-12
-1.83753e-11
1.36638e-11
8.98111e-12
-2.25374e-11
1.72883e-11
1.04472e-11
-2.69722e-11
2.14308e-11
1.20267e-11
-3.17556e-11
2.62147e-11
1.37711e-11
-3.695e-11
3.17506e-11
1.57345e-11
-4.26093e-11
3.8125e-11
1.7971e-11
-4.87872e-11
4.53754e-11
2.05255e-11
-5.55467e-11
5.34416e-11
2.341e-11
-6.29583e-11
6.20623e-11
2.65287e-11
-7.10263e-11
7.05616e-11
2.93909e-11
-7.92416e-11
7.75243e-11
-8.66156e-11
8.0663e-11
1.91403e-12
1.67759e-12
-2.29751e-12
3.64041e-12
4.93157e-12
-6.71493e-12
5.23474e-12
8.08322e-12
-1.08802e-11
6.74591e-12
1.13181e-11
-1.4981e-11
8.21918e-12
1.47981e-11
-1.91728e-11
9.69855e-12
1.86692e-11
-2.35859e-11
1.12292e-11
2.30665e-11
-2.83305e-11
1.28601e-11
2.81146e-11
-3.35028e-11
1.46465e-11
3.39248e-11
-3.91896e-11
1.66529e-11
4.05847e-11
-4.54766e-11
1.89577e-11
4.81374e-11
-5.24583e-11
2.16601e-11
5.65395e-11
-6.0253e-11
2.48826e-11
6.55686e-11
-6.90137e-11
2.87199e-11
7.46218e-11
-7.88847e-11
3.27271e-11
8.22917e-11
-8.93552e-11
8.59324e-11
-1.01709e-10
1.59761e-13
-4.20874e-13
1.25843e-13
3.04789e-13
-1.22626e-12
3.70627e-13
4.40605e-13
-1.97442e-12
6.09802e-13
5.72066e-13
-2.69237e-12
8.58645e-13
7.03546e-13
-3.39887e-12
1.13055e-12
8.39139e-13
-4.10355e-12
1.43741e-12
9.82943e-13
-4.80533e-12
1.78965e-12
1.13946e-12
-5.48978e-12
2.1956e-12
1.31431e-12
-6.1247e-12
2.65999e-12
1.5158e-12
-6.65323e-12
3.18064e-12
1.75859e-12
-6.9844e-12
3.74255e-12
2.07089e-12
-6.98144e-12
4.30773e-12
2.50333e-12
-6.45084e-12
4.79846e-12
3.11742e-12
-5.15737e-12
5.07596e-12
3.84746e-12
-3.03908e-12
4.96454e-12
-3.1075e-13
4.48299e-12
4.75466e-13
-8.29202e-13
3.7426e-13
9.06985e-13
-2.41646e-12
1.10218e-12
1.31087e-12
-3.89238e-12
1.81319e-12
1.70143e-12
-5.31117e-12
2.55254e-12
2.09153e-12
-6.7112e-12
3.3599e-12
2.49315e-12
-8.1138e-12
4.27056e-12
2.91804e-12
-9.52072e-12
5.31545e-12
3.37842e-12
-1.09097e-11
6.5195e-12
3.88806e-12
-1.22277e-11
7.89697e-12
4.46458e-12
-1.33811e-11
9.44205e-12
5.1347e-12
-1.42278e-11
1.11117e-11
5.94344e-12
-1.458e-11
1.27967e-11
6.95888e-12
-1.42485e-11
1.42773e-11
8.22508e-12
-1.31884e-11
1.51773e-11
9.51654e-12
-1.18014e-11
1.5067e-11
-1.13495e-11
1.36537e-11
7.8001e-13
-1.21275e-12
6.13166e-13
1.4876e-12
-3.53535e-12
1.80551e-12
2.14916e-12
-5.6985e-12
2.96938e-12
2.78777e-12
-7.78382e-12
4.17843e-12
3.42415e-12
-9.85084e-12
5.49714e-12
4.07748e-12
-1.19362e-11
6.98304e-12
4.76593e-12
-1.40509e-11
8.68685e-12
5.50689e-12
-1.61757e-11
1.06499e-11
6.31639e-12
-1.8254e-11
1.28972e-11
7.20761e-12
-2.01826e-11
1.54225e-11
8.18807e-12
-2.18076e-11
1.81632e-11
9.25319e-12
-2.29413e-11
2.0958e-11
1.03658e-11
-2.34388e-11
2.34894e-11
1.13974e-11
-2.33836e-11
2.52411e-11
1.20441e-11
-2.32929e-11
2.56773e-11
-2.41271e-11
2.47884e-11
1.0666e-12
-1.55907e-12
8.36847e-13
2.03347e-12
-4.54681e-12
2.46362e-12
2.93599e-12
-7.33513e-12
4.04996e-12
3.80501e-12
-1.00329e-11
5.69532e-12
4.66832e-12
-1.27223e-11
7.48675e-12
5.55143e-12
-1.54586e-11
9.50211e-12
6.47797e-12
-1.82692e-11
1.18106e-11
7.46892e-12
-2.11492e-11
1.44697e-11
8.53944e-12
-2.40558e-11
1.75166e-11
9.69142e-12
-2.68998e-11
2.09506e-11
1.08987e-11
-2.95412e-11
2.47024e-11
1.20794e-11
-3.17981e-11
2.85857e-11
1.30504e-11
-3.34969e-11
3.22339e-11
1.3492e-11
-3.4598e-11
3.50629e-11
1.31212e-11
-3.53467e-11
3.64561e-11
-3.64467e-11
3.63782e-11
1.32917e-12
-1.85591e-12
1.04027e-12
2.53282e-12
-5.4151e-12
3.06153e-12
3.65388e-12
-8.74449e-12
5.02974e-12
4.72981e-12
-1.19792e-11
7.06674e-12
5.79441e-12
-1.52241e-11
9.27903e-12
6.87875e-12
-1.85561e-11
1.1762e-11
8.01155e-12
-2.20236e-11
1.46011e-11
9.21775e-12
-2.56454e-11
1.78686e-11
1.05138e-11
-2.94063e-11
2.16146e-11
1.18962e-11
-3.32515e-11
2.58486e-11
1.33185e-11
-3.70778e-11
3.05057e-11
1.46481e-11
-4.0724e-11
3.53954e-11
1.55984e-11
-4.39585e-11
4.01312e-11
1.56909e-11
-4.64755e-11
4.40809e-11
1.45833e-11
-4.79732e-11
4.65132e-11
-4.86307e-11
4.72746e-11
1.56273e-12
-2.09162e-12
1.21937e-12
2.97596e-12
-6.10599e-12
3.58717e-12
4.28853e-12
-9.8707e-12
5.88848e-12
5.54305e-12
-1.35444e-11
8.26335e-12
6.77805e-12
-1.72537e-11
1.08339e-11
8.0293e-12
-2.10968e-11
1.37093e-11
9.33036e-12
-2.51454e-11
1.69877e-11
1.07117e-11
-2.94461e-11
2.07534e-11
1.21963e-11
-3.40195e-11
2.50679e-11
1.37895e-11
-3.88586e-11
2.99515e-11
1.54576e-11
-4.39227e-11
3.535e-11
1.70856e-11
-4.91221e-11
4.10794e-11
1.84062e-11
-5.42715e-11
4.67473e-11
1.89331e-11
-5.89746e-11
5.16771e-11
1.82018e-11
-6.24732e-11
5.50054e-11
-6.33345e-11
5.6481e-11
1.76355e-12
-2.25565e-12
1.37125e-12
3.35578e-12
-6.58853e-12
4.03196e-12
4.82951e-12
-1.06628e-11
6.61192e-12
6.23078e-12
-1.46564e-11
9.26462e-12
7.6013e-12
-1.8714e-11
1.21232e-11
8.98013e-12
-2.29526e-11
1.53063e-11
1.04048e-11
-2.74652e-11
1.89201e-11
1.19116e-11
-3.23243e-11
2.30561e-11
1.35335e-11
-3.75842e-11
2.77827e-11
1.52953e-11
-4.32847e-11
3.31276e-11
1.72017e-11
-4.94528e-11
3.90449e-11
1.92148e-11
-5.61029e-11
4.53582e-11
2.12117e-11
-6.3217e-11
5.16701e-11
2.29198e-11
-7.06548e-11
5.7249e-11
2.38929e-11
-7.77932e-11
6.10651e-11
-8.35301e-11
6.26844e-11
1.92939e-12
1.49433e-12
-2.33924e-12
3.66816e-12
4.39136e-12
-6.837e-12
5.27103e-12
7.19274e-12
-1.10783e-11
6.78544e-12
1.00604e-11
-1.52542e-11
8.25439e-12
1.31336e-11
-1.95224e-11
9.71822e-12
1.65355e-11
-2.40133e-11
1.12163e-11
2.03747e-11
-2.88356e-11
1.27883e-11
2.4744e-11
-3.40799e-11
1.44745e-11
2.97119e-11
-3.98226e-11
1.63154e-11
3.53057e-11
-4.61297e-11
1.83494e-11
4.14801e-11
-5.30609e-11
2.06056e-11
4.8061e-11
-6.06722e-11
2.30877e-11
5.46502e-11
-6.90063e-11
2.57187e-11
6.04937e-11
-7.8029e-11
2.80713e-11
6.44567e-11
-8.71057e-11
6.54389e-11
-9.70661e-11
1.5991e-13
-4.27398e-13
1.05972e-13
3.04768e-13
-1.24538e-12
3.12005e-13
4.39772e-13
-2.00559e-12
5.12985e-13
5.6934e-13
-2.73577e-12
7.21505e-13
6.97185e-13
-3.45545e-12
9.4841e-13
8.26357e-13
-4.17533e-12
1.20305e-12
9.59282e-13
-4.89612e-12
1.4931e-12
1.09772e-12
-5.60671e-12
1.82393e-12
1.24272e-12
-6.28143e-12
2.19688e-12
1.39481e-12
-6.87645e-12
2.60632e-12
1.55518e-12
-7.32633e-12
3.03463e-12
1.72832e-12
-7.54294e-12
3.44527e-12
1.92503e-12
-7.41854e-12
3.77535e-12
2.15593e-12
-6.83817e-12
3.93682e-12
2.38124e-12
-5.76441e-12
3.86058e-12
-3.96533e-12
3.77187e-12
4.75996e-13
-8.41994e-13
3.15182e-13
9.07109e-13
-2.45393e-12
9.27887e-13
1.30872e-12
-3.95341e-12
1.52538e-12
1.69387e-12
-5.39595e-12
2.14496e-12
2.07354e-12
-6.82134e-12
2.81876e-12
2.45673e-12
-8.25271e-12
3.5745e-12
2.85045e-12
-9.69474e-12
4.4351e-12
3.25922e-12
-1.11305e-11
5.41665e-12
3.68421e-12
-1.25172e-11
6.52365e-12
4.12226e-12
-1.37812e-11
7.74037e-12
4.56563e-12
-1.48177e-11
9.01685e-12
5.00313e-12
-1.55032e-11
1.02498e-11
5.42039e-12
-1.57414e-11
1.12638e-11
5.78663e-12
-1.55591e-11
1.1821e-11
6.01185e-12
-1.52202e-11
1.1753e-11
-1.53481e-11
1.11164e-11
7.81157e-13
-1.23133e-12
5.16414e-13
1.4884e-12
-3.58974e-12
1.52011e-12
2.14669e-12
-5.78693e-12
2.49826e-12
2.77715e-12
-7.90629e-12
3.51156e-12
3.39763e-12
-1.00091e-11
4.61226e-12
4.02281e-12
-1.2134e-11
5.84562e-12
4.66376e-12
-1.42951e-11
7.2494e-12
5.32657e-12
-1.64786e-11
8.85064e-12
6.00926e-12
-1.86378e-11
1.06586e-11
6.69655e-12
-2.0689e-11
1.26514e-11
7.3519e-12
-2.25129e-11
1.47562e-11
7.90669e-12
-2.39787e-11
1.68226e-11
8.24892e-12
-2.50125e-11
1.86017e-11
8.23079e-12
-2.57272e-11
1.97738e-11
7.79843e-12
-2.64751e-11
2.01358e-11
-2.774e-11
1.9977e-11
1.06871e-12
-1.58276e-12
7.04876e-13
2.03573e-12
-4.6161e-12
2.07442e-12
2.93464e-12
-7.44753e-12
3.4078e-12
3.79391e-12
-1.0188e-11
4.78696e-12
4.63777e-12
-1.29214e-11
6.28251e-12
5.48628e-12
-1.57049e-11
7.95583e-12
6.35456e-12
-1.85679e-11
9.85862e-12
7.25026e-12
-2.15091e-11
1.20291e-11
8.16796e-12
-2.44918e-11
1.4483e-11
9.07836e-12
-2.74394e-11
1.71984e-11
9.91007e-12
-3.02337e-11
2.00912e-11
1.05221e-11
-3.27285e-11
2.29867e-11
1.06776e-11
-3.47941e-11
2.56017e-11
1.00832e-11
-3.64054e-11
2.75844e-11
8.74241e-12
-3.76987e-11
2.87012e-11
-3.90504e-11
2.92222e-11
1.33263e-12
-1.88386e-12
8.76334e-13
2.53742e-12
-5.49675e-12
2.57824e-12
3.65533e-12
-8.87667e-12
4.23286e-12
4.72121e-12
-1.21609e-11
5.94062e-12
5.76501e-12
-1.54559e-11
7.78797e-12
6.81196e-12
-1.88396e-11
9.85027e-12
7.88175e-12
-2.23609e-11
1.21915e-11
8.98551e-12
-2.60388e-11
1.48603e-11
1.01188e-11
-2.98585e-11
1.78803e-11
1.12475e-11
-3.37661e-11
2.12327e-11
1.22829e-11
-3.76616e-11
2.48309e-11
1.30409e-11
-4.13894e-11
2.84894e-11
1.31968e-11
-4.47246e-11
3.19055e-11
1.23207e-11
-4.73593e-11
3.4699e-11
1.03564e-11
-4.89547e-11
3.65772e-11
-4.95125e-11
3.77492e-11
1.56792e-12
-2.12283e-12
1.02737e-12
2.98376e-12
-6.19711e-12
3.02139e-12
4.29439e-12
-1.0018e-11
4.9564e-12
5.53982e-12
-1.37462e-11
6.94787e-12
6.75478e-12
-1.75096e-11
9.09501e-12
7.96929e-12
-2.14064e-11
1.14842e-11
9.20816e-12
-2.55071e-11
1.41893e-11
1.04886e-11
-2.98548e-11
1.72671e-11
1.18142e-11
-3.44637e-11
2.07479e-11
1.3162e-11
-3.93156e-11
2.46174e-11
1.446e-11
-4.43521e-11
2.87886e-11
1.55475e-11
-4.94542e-11
3.3068e-11
1.61245e-11
-5.43932e-11
3.71294e-11
1.57539e-11
-5.87227e-11
4.05438e-11
1.42431e-11
-6.16851e-11
4.29389e-11
-6.18773e-11
4.4516e-11
1.77076e-12
-2.28904e-12
1.15554e-12
3.36747e-12
-6.68596e-12
3.39663e-12
4.84111e-12
-1.082e-11
5.56638e-12
6.23531e-12
-1.48712e-11
7.79143e-12
7.58827e-12
-1.89852e-11
1.01801e-11
8.9338e-12
-2.32781e-11
1.28263e-11
1.03015e-11
-2.78398e-11
1.58101e-11
1.17158e-11
-3.27363e-11
1.91933e-11
1.31925e-11
-3.801e-11
2.30098e-11
1.47313e-11
-4.36797e-11
2.72469e-11
1.63031e-11
-4.97377e-11
3.18159e-11
1.78275e-11
-5.61404e-11
3.65113e-11
1.91462e-11
-6.27798e-11
4.0971e-11
2.00173e-11
-6.94018e-11
4.46806e-11
2.0237e-11
-7.53669e-11
4.71391e-11
-7.96615e-11
4.85293e-11
1.93879e-12
1.25948e-12
-2.37365e-12
3.68416e-12
3.70007e-12
-6.93736e-12
5.28921e-12
6.05657e-12
-1.12402e-11
6.79931e-12
8.46266e-12
-1.54751e-11
8.2544e-12
1.10319e-11
-1.98003e-11
9.69028e-12
1.38618e-11
-2.4345e-11
1.11395e-11
1.70344e-11
-2.92135e-11
1.26318e-11
2.06125e-11
-3.44881e-11
1.41928e-11
2.46289e-11
-4.023e-11
1.58421e-11
2.90691e-11
-4.64794e-11
1.75887e-11
3.38393e-11
-5.3254e-11
1.94234e-11
3.87228e-11
-6.05424e-11
2.13115e-11
4.33274e-11
-6.82872e-11
2.31827e-11
4.70654e-11
-7.63349e-11
2.48098e-11
4.93126e-11
-8.40678e-11
4.98327e-11
-9.23137e-11
1.59687e-13
-4.3259e-13
8.25705e-14
3.04032e-13
-1.26059e-12
2.43032e-13
4.37912e-13
-2.03038e-12
3.99345e-13
5.653e-13
-2.77027e-12
5.61133e-13
6.89263e-13
-3.50039e-12
7.36557e-13
8.11893e-13
-4.23223e-12
9.32434e-13
9.34163e-13
-4.96788e-12
1.15406e-12
1.05563e-12
-5.69877e-12
1.40457e-12
1.174e-12
-6.40381e-12
1.68363e-12
1.2849e-12
-7.04743e-12
1.98519e-12
1.38252e-12
-7.57836e-12
2.29447e-12
1.46216e-12
-7.93014e-12
2.58483e-12
1.52575e-12
-8.02109e-12
2.81739e-12
1.58671e-12
-7.74714e-12
2.94984e-12
1.6527e-12
-7.01038e-12
2.96403e-12
-5.38145e-12
3.08142e-12
4.75425e-13
-8.52185e-13
2.4559e-13
9.05128e-13
-2.48377e-12
7.22803e-13
1.30353e-12
-4.00196e-12
1.18753e-12
1.68241e-12
-5.4633e-12
1.66829e-12
2.05089e-12
-6.90856e-12
2.18924e-12
2.41524e-12
-8.36226e-12
2.77063e-12
2.77836e-12
-9.83125e-12
3.42829e-12
3.1386e-12
-1.13025e-11
4.17172e-12
3.48806e-12
-1.27402e-11
5.00035e-12
3.81069e-12
-1.40829e-11
5.89715e-12
4.08169e-12
-1.52453e-11
6.82008e-12
4.27105e-12
-1.613e-11
7.69366e-12
4.35577e-12
-1.66585e-11
8.40812e-12
4.34283e-12
-1.68244e-11
8.84421e-12
4.2863e-12
-1.67463e-11
8.95168e-12
-1.67892e-11
8.75197e-12
7.80514e-13
-1.24614e-12
4.02422e-13
1.48578e-12
-3.63305e-12
1.18423e-12
2.13925e-12
-5.85719e-12
1.94512e-12
2.76008e-12
-8.00326e-12
2.73145e-12
3.36334e-12
-1.01337e-11
3.58256e-12
3.95955e-12
-1.22887e-11
4.53154e-12
4.55368e-12
-1.44843e-11
5.60454e-12
5.1428e-12
-1.67103e-11
6.81782e-12
5.7122e-12
-1.89262e-11
8.17197e-12
6.22964e-12
-2.10589e-11
9.6424e-12
6.639e-12
-2.30054e-11
1.11671e-11
6.8571e-12
-2.46526e-11
1.26357e-11
6.78624e-12
-2.59294e-11
1.38911e-11
6.37331e-12
-2.68942e-11
1.47705e-11
5.76911e-12
-2.77598e-11
1.52092e-11
-2.88537e-11
1.53731e-11
1.06838e-12
-1.60161e-12
5.49341e-13
2.03332e-12
-4.67116e-12
1.61625e-12
2.92647e-12
-7.53658e-12
2.65359e-12
3.77389e-12
-1.03102e-11
3.72399e-12
4.59635e-12
-1.30771e-11
4.88059e-12
5.4089e-12
-1.58953e-11
6.16837e-12
6.21928e-12
-1.87953e-11
7.62325e-12
7.02469e-12
-2.17774e-11
9.26857e-12
7.80545e-12
-2.48074e-11
1.11078e-11
8.51478e-12
-2.78132e-11
1.31132e-11
9.06432e-12
-3.06827e-11
1.52115e-11
9.3089e-12
-3.32739e-11
1.72728e-11
9.05078e-12
-3.54462e-11
1.91175e-11
8.13017e-12
-3.71253e-11
2.05677e-11
6.76317e-12
-3.83588e-11
2.15434e-11
-3.94507e-11
2.21797e-11
1.33306e-12
-1.90605e-12
6.83061e-13
2.53618e-12
-5.56146e-12
2.00907e-12
3.6482e-12
-8.98099e-12
3.29653e-12
4.7013e-12
-1.23032e-11
4.62217e-12
5.72166e-12
-1.56356e-11
6.05114e-12
6.72912e-12
-1.90559e-11
7.63871e-12
7.73558e-12
-2.26126e-11
9.42952e-12
8.74134e-12
-2.63229e-11
1.14535e-11
9.72786e-12
-3.01693e-11
1.37181e-11
1.06451e-11
-3.40932e-11
1.61949e-11
1.13914e-11
-3.7987e-11
1.88048e-11
1.1788e-11
-4.16813e-11
2.14052e-11
1.15659e-11
-4.49263e-11
2.38e-11
1.0447e-11
-4.7375e-11
2.57938e-11
8.5788e-12
-4.86668e-11
2.72739e-11
-4.88197e-11
2.83372e-11
1.56952e-12
-2.14755e-12
8.0091e-13
2.98464e-12
-6.2691e-12
2.35476e-12
4.29005e-12
-1.01337e-11
3.86064e-12
5.52305e-12
-1.39033e-11
5.40682e-12
6.71462e-12
-1.77061e-11
7.0681e-12
7.88943e-12
-2.16395e-11
8.90799e-12
9.06468e-12
-2.57713e-11
1.0978e-11
1.02473e-11
-3.01396e-11
1.33133e-11
1.14278e-11
-3.47499e-11
1.59245e-11
1.25694e-11
-3.95698e-11
1.87832e-11
1.35905e-11
-4.45183e-11
2.18045e-11
1.43404e-11
-4.94432e-11
2.48318e-11
1.45796e-11
-5.40715e-11
2.76426e-11
1.40238e-11
-5.79194e-11
3.00027e-11
1.26724e-11
-6.02694e-11
3.17588e-11
-5.98895e-11
3.303e-11
1.77388e-12
-2.3154e-12
9.00969e-13
3.37126e-12
-6.76266e-12
2.64764e-12
4.84104e-12
-1.0943e-11
4.3365e-12
6.22428e-12
-1.50376e-11
6.06444e-12
7.55566e-12
-1.91918e-11
7.9132e-12
8.86401e-12
-2.352e-11
9.95194e-12
1.0172e-11
-2.8108e-11
1.22365e-11
1.14947e-11
-3.30136e-11
1.48052e-11
1.28364e-11
-3.82658e-11
1.76697e-11
1.41848e-11
-4.38614e-11
2.07999e-11
1.55028e-11
-4.97591e-11
2.41037e-11
1.67196e-11
-5.58661e-11
2.74053e-11
1.77308e-11
-6.2013e-11
3.04409e-11
1.84316e-11
-6.79003e-11
3.29027e-11
1.87954e-11
-7.29649e-11
3.45658e-11
-7.64461e-11
3.56041e-11
1.94367e-12
9.82156e-13
-2.40074e-12
3.69143e-12
2.88461e-12
-7.01614e-12
5.29449e-12
4.7192e-12
-1.13663e-11
6.79592e-12
6.58824e-12
-1.56453e-11
8.23253e-12
8.57755e-12
-2.00106e-11
9.63575e-12
1.07591e-11
-2.45891e-11
1.10321e-11
1.31902e-11
-2.94798e-11
1.24431e-11
1.59093e-11
-3.47553e-11
1.38846e-11
1.8927e-11
-4.04606e-11
1.53659e-11
2.22097e-11
-4.66105e-11
1.68884e-11
2.56577e-11
-5.31845e-11
1.84488e-11
2.9078e-11
-6.0119e-11
2.00523e-11
3.2169e-11
-6.72954e-11
2.17351e-11
3.45501e-11
-7.45232e-11
2.34213e-11
3.59127e-11
-8.12914e-11
3.62266e-11
-8.86488e-11
1.59288e-13
-4.36431e-13
5.64984e-14
3.03008e-13
-1.27184e-12
1.66257e-13
4.35748e-13
-2.04875e-12
2.7307e-13
5.61099e-13
-2.79583e-12
3.83432e-13
6.81586e-13
-3.5336e-12
5.02767e-13
7.98545e-13
-4.27407e-12
6.35499e-13
9.11897e-13
-5.0202e-12
7.84907e-13
1.01974e-12
-5.76492e-12
9.52669e-13
1.11793e-12
-6.48965e-12
1.13799e-12
1.20003e-12
-7.16263e-12
1.33628e-12
1.25854e-12
-7.73767e-12
1.53771e-12
1.28906e-12
-8.15284e-12
1.72632e-12
1.2989e-12
-8.32478e-12
1.88152e-12
1.31648e-12
-8.13061e-12
1.98479e-12
1.3716e-12
-7.43073e-12
2.03021e-12
-5.75419e-12
2.17384e-12
4.74338e-13
-8.59752e-13
1.68051e-13
9.02285e-13
-2.50593e-12
4.94497e-13
1.29742e-12
-4.03801e-12
8.1209e-13
1.6704e-12
-5.51319e-12
1.14005e-12
2.02883e-12
-6.97292e-12
1.49445e-12
2.37682e-12
-8.44252e-12
1.88845e-12
2.71428e-12
-9.93018e-12
2.33185e-12
3.03555e-12
-1.14251e-11
2.82979e-12
3.32774e-12
-1.28949e-11
3.38019e-12
3.56964e-12
-1.42833e-11
3.97003e-12
3.73347e-12
-1.55107e-11
4.57122e-12
3.79384e-12
-1.64817e-11
5.13808e-12
3.75021e-12
-1.71036e-11
5.61112e-12
3.66177e-12
-1.73207e-11
5.9339e-12
3.64201e-12
-1.71762e-11
6.0837e-12
-1.6986e-11
6.03646e-12
7.79014e-13
-1.25715e-12
2.75391e-13
1.4817e-12
-3.66524e-12
8.10257e-13
2.13017e-12
-5.90934e-12
1.3303e-12
2.7419e-12
-8.07496e-12
1.86677e-12
3.3296e-12
-1.02253e-11
2.44583e-12
3.90057e-12
-1.24012e-11
3.08901e-12
4.45532e-12
-1.462e-11
3.81257e-12
4.98513e-12
-1.68729e-11
4.62539e-12
5.4685e-12
-1.91221e-11
5.52512e-12
5.86726e-12
-2.12974e-11
6.49257e-12
6.12465e-12
-2.32981e-11
7.48587e-12
6.17201e-12
-2.50065e-11
8.43735e-12
5.95758e-12
-2.6327e-11
9.26028e-12
5.51767e-12
-2.72588e-11
9.87371e-12
5.07486e-12
-2.79497e-11
1.02419e-11
-2.87294e-11
1.0422e-11
1.06684e-12
-1.61564e-12
3.75975e-13
2.02879e-12
-4.71208e-12
1.10598e-12
2.91583e-12
-7.60255e-12
1.81506e-12
3.75187e-12
-1.04003e-11
2.54541e-12
4.55485e-12
-1.31907e-11
3.33241e-12
5.33585e-12
-1.60325e-11
4.20535e-12
6.09733e-12
-1.89561e-11
5.18664e-12
6.82979e-12
-2.19615e-11
6.28917e-12
7.50636e-12
-2.50144e-11
7.51151e-12
8.07538e-12
-2.8041e-11
8.83112e-12
8.45238e-12
-3.0925e-11
1.01975e-11
8.51781e-12
-3.35125e-11
1.15299e-11
8.14023e-12
-3.56349e-11
1.27275e-11
7.27206e-12
-3.71689e-11
1.37003e-11
6.19017e-12
-3.81301e-11
1.44e-11
-3.8863e-11
1.48575e-11
1.33187e-12
-1.92254e-12
4.67553e-13
2.53209e-12
-5.60946e-12
1.37496e-12
3.63757e-12
-9.05803e-12
2.25512e-12
4.67816e-12
-1.24076e-11
3.15975e-12
5.67693e-12
-1.57658e-11
4.13222e-12
6.64945e-12
-1.921e-11
5.2086e-12
7.60201e-12
-2.27873e-11
6.41677e-12
8.52813e-12
-2.65122e-11
7.77344e-12
9.40258e-12
-3.03627e-11
9.27865e-12
1.01722e-11
-3.42726e-11
1.09081e-11
1.07436e-11
-3.81221e-11
1.26055e-11
1.09719e-11
-4.17225e-11
1.42798e-11
1.06669e-11
-4.47965e-11
1.5818e-11
9.67317e-12
-4.69687e-11
1.71181e-11
8.18471e-12
-4.78903e-11
1.81118e-11
-4.76597e-11
1.88089e-11
1.56907e-12
-2.16587e-12
5.48296e-13
2.98184e-12
-6.32235e-12
1.61176e-12
4.28102e-12
-1.02188e-11
2.64138e-12
5.50151e-12
-1.40179e-11
3.69666e-12
6.67116e-12
-1.78475e-11
4.82746e-12
7.8104e-12
-2.18036e-11
6.07524e-12
8.93097e-12
-2.59512e-11
7.4722e-12
1.00334e-11
-3.03228e-11
9.03801e-12
1.11023e-11
-3.49152e-11
1.07738e-11
1.20993e-11
-3.96821e-11
1.26536e-11
1.29535e-11
-4.45224e-11
1.46148e-11
1.35514e-11
-4.92573e-11
1.65536e-11
1.37353e-11
-5.35866e-11
1.83361e-11
1.33437e-11
-5.70186e-11
1.98345e-11
1.24143e-11
-5.8896e-11
2.09612e-11
-5.81477e-11
2.17522e-11
1.77451e-12
-2.33491e-12
6.16877e-13
3.37052e-12
-6.81925e-12
1.81246e-12
4.835e-12
-1.10333e-11
2.96736e-12
6.20671e-12
-1.51584e-11
4.1469e-12
7.51739e-12
-1.93393e-11
5.40563e-12
8.79188e-12
-2.36884e-11
6.78876e-12
1.00478e-11
-2.8287e-11
8.3312e-12
1.12944e-11
-3.31854e-11
1.00542e-11
1.2531e-11
-3.84002e-11
1.19589e-11
1.37444e-11
-4.39095e-11
1.40167e-11
1.49082e-11
-4.96459e-11
1.61573e-11
1.59865e-11
-5.5485e-11
1.82599e-11
1.69507e-11
-6.12292e-11
2.01591e-11
1.78098e-11
-6.6584e-11
2.16783e-11
1.85758e-11
-7.10817e-11
2.26946e-11
-7.4157e-11
2.33051e-11
1.94563e-12
6.72541e-13
-2.42074e-12
3.69331e-12
1.97491e-12
-7.07411e-12
5.29248e-12
3.22964e-12
-1.14586e-11
6.78413e-12
4.50578e-12
-1.57683e-11
8.20242e-12
5.86066e-12
-2.01598e-11
9.57521e-12
7.34134e-12
-2.47574e-11
1.09245e-11
8.98369e-12
-2.96548e-11
1.22669e-11
1.0809e-11
-3.49156e-11
1.36138e-11
1.2817e-11
-4.05707e-11
1.49735e-11
1.49759e-11
-4.66143e-11
1.63563e-11
1.72083e-11
-5.29979e-11
1.77875e-11
1.93787e-11
-5.9626e-11