/*--------------------------------*- C++ -*----------------------------------*\
| =========                 |                                                 |
| \\      /  F ield         | OpenFOAM: The Open Source CFD Toolbox           |
|  \\    /   O peration     | Version:  v1912                                 |
|   \\  /    A nd           | Website:  www.openfoam.com                      |
|    \\/     M anipulation  |                                                 |
\*---------------------------------------------------------------------------*/
FoamFile
{
    version     2.0;
    format      ascii;
    class       surfaceScalarField;
    location    "0.46/fluid";
    object      meshPhi;
}
// * * * * * * * * * * * * * * * * * * * * * * * * * * * * * * * * * * * * * //

dimensions      [0 3 -1 0 0 0 0];
oriented        oriented;


internalField   nonuniform List<scalar> 
41600
(
2.02692e-13
-5.17836e-13
1.92613e-13
-1.9892e-13
3.8627e-13
-1.50863e-12
5.6753e-13
-5.86404e-13
5.57375e-13
-2.4286e-12
9.34617e-13
-9.66604e-13
7.21956e-13
-3.31073e-12
1.31794e-12
-1.36483e-12
8.85671e-13
-4.17767e-12
1.73913e-12
-1.80398e-12
1.05441e-12
-5.04039e-12
2.21845e-12
-2.30573e-12
1.23502e-12
-5.89562e-12
2.77515e-12
-2.89119e-12
1.43658e-12
-6.72057e-12
3.42741e-12
-3.58114e-12
1.67303e-12
-7.4632e-12
4.19169e-12
-4.39599e-12
1.96913e-12
-8.02483e-12
5.08163e-12
-5.35605e-12
2.37364e-12
-8.22801e-12
6.10711e-12
-6.48367e-12
2.98911e-12
-7.75288e-12
7.27641e-12
-7.81313e-12
4.02989e-12
-6.00764e-12
8.60697e-12
-9.42199e-12
5.89069e-12
-1.91379e-12
1.01441e-11
-1.15024e-11
8.7832e-12
5.70557e-12
1.1879e-11
-1.42783e-11
1.88448e-11
1.49748e-11
-2.2109e-11
6.03777e-13
-1.02021e-12
5.72895e-13
-5.91686e-13
1.15051e-12
-2.97289e-12
1.68791e-12
-1.74413e-12
1.65986e-12
-4.78782e-12
2.7793e-12
-2.87452e-12
2.14942e-12
-6.531e-12
3.91834e-12
-4.05779e-12
2.63594e-12
-8.24892e-12
5.16918e-12
-5.36179e-12
3.13669e-12
-9.96659e-12
6.59182e-12
-6.85078e-12
3.67138e-12
-1.16831e-11
8.24329e-12
-8.58723e-12
4.26517e-12
-1.3363e-11
1.01774e-11
-1.06324e-11
4.9548e-12
-1.49214e-11
1.24422e-11
-1.30457e-11
5.80147e-12
-1.61988e-11
1.5076e-11
-1.58836e-11
6.91841e-12
-1.69231e-11
1.81e-11
-1.91998e-11
8.52889e-12
-1.66569e-11
2.15137e-11
-2.30576e-11
1.10618e-11
-1.47551e-11
2.52968e-11
-2.75715e-11
1.52073e-11
-1.04622e-11
2.94071e-11
-3.29869e-11
2.10558e-11
-3.80348e-12
3.3595e-11
-3.93875e-11
3.97136e-12
3.69026e-11
-4.7988e-11
9.92269e-13
-1.49193e-12
9.38757e-13
-9.69594e-13
1.89045e-12
-4.34893e-12
2.76548e-12
-2.8577e-12
2.72654e-12
-7.00862e-12
4.55236e-12
-4.70839e-12
3.5291e-12
-9.57036e-12
6.41543e-12
-6.64359e-12
4.32534e-12
-1.21066e-11
8.45908e-12
-8.77371e-12
5.14304e-12
-1.46614e-11
1.0781e-11
-1.12034e-11
6.01289e-12
-1.72453e-11
1.34742e-11
-1.40343e-11
6.97194e-12
-1.98269e-11
1.66266e-11
-1.73659e-11
8.0694e-12
-2.23166e-11
2.03167e-11
-2.12939e-11
9.37747e-12
-2.45427e-11
2.46045e-11
-2.59043e-11
1.1013e-11
-2.62198e-11
2.95146e-11
-3.12652e-11
1.31785e-11
-2.69223e-11
3.50116e-11
-3.74185e-11
1.62101e-11
-2.61106e-11
4.09652e-11
-4.43781e-11
2.0537e-11
-2.33446e-11
4.70894e-11
-5.21156e-11
2.58533e-11
-1.90231e-11
5.27543e-11
-6.01463e-11
-1.42412e-11
5.72066e-11
-7.02271e-11
1.36037e-12
-1.91754e-12
1.28149e-12
-1.32359e-12
2.59105e-12
-5.59188e-12
3.77433e-12
-3.90015e-12
3.73528e-12
-9.01937e-12
6.21043e-12
-6.42306e-12
4.83168e-12
-1.23327e-11
8.74663e-12
-9.05706e-12
5.91702e-12
-1.56321e-11
1.1524e-11
-1.19513e-11
7.02853e-12
-1.89855e-11
1.46746e-11
-1.52472e-11
8.20633e-12
-2.2425e-11
1.83247e-11
-1.90824e-11
9.49626e-12
-2.59398e-11
2.25944e-11
-2.35922e-11
1.09532e-11
-2.94634e-11
2.75928e-11
-2.89068e-11
1.26445e-11
-3.28538e-11
3.3405e-11
-3.51419e-11
1.46563e-11
-3.58673e-11
4.00662e-11
-4.23809e-11
1.71021e-11
-3.81329e-11
4.75206e-11
-5.06458e-11
2.01176e-11
-3.91586e-11
5.55508e-11
-5.9851e-11
2.3806e-11
-3.84533e-11
6.36655e-11
-6.97207e-11
2.77651e-11
-3.60359e-11
7.08917e-11
-7.93435e-11
-3.23037e-11
7.60427e-11
-8.99581e-11
1.7009e-12
-2.28192e-12
1.59339e-12
-1.64565e-12
3.23843e-12
-6.65756e-12
4.69156e-12
-4.84765e-12
4.66561e-12
-1.07487e-11
7.71502e-12
-7.97849e-12
6.02989e-12
-1.47198e-11
1.08562e-11
-1.12402e-11
7.37647e-12
-1.86999e-11
1.42877e-11
-1.48154e-11
8.75099e-12
-2.27839e-11
1.81714e-11
-1.88772e-11
1.02023e-11
-2.70326e-11
2.26625e-11
-2.35944e-11
1.17845e-11
-3.14689e-11
2.79106e-11
-2.91344e-11
1.35589e-11
-3.60711e-11
3.40553e-11
-3.56608e-11
1.55914e-11
-4.07595e-11
4.12123e-11
-4.33237e-11
1.79468e-11
-4.53757e-11
4.94467e-11
-5.22381e-11
2.06715e-11
-4.96463e-11
5.87219e-11
-6.24454e-11
2.37458e-11
-5.31249e-11
6.88054e-11
-7.38355e-11
2.7004e-11
-5.51159e-11
7.9087e-11
-8.59923e-11
2.99014e-11
-5.48647e-11
8.82406e-11
-9.76015e-11
-5.15253e-11
9.45507e-11
-1.09318e-10
2.00767e-12
-2.57069e-12
1.86824e-12
-1.92932e-12
3.82061e-12
-7.50386e-12
5.49865e-12
-5.68098e-12
5.49984e-12
-1.21277e-11
9.03507e-12
-9.34246e-12
7.09997e-12
-1.66358e-11
1.26989e-11
-1.31462e-11
8.67317e-12
-2.11836e-11
1.66882e-11
-1.73018e-11
1.02723e-11
-2.58938e-11
2.11884e-11
-2.20071e-11
1.19543e-11
-3.08583e-11
2.63775e-11
-2.74557e-11
1.37831e-11
-3.61398e-11
3.24293e-11
-3.38409e-11
1.58315e-11
-4.17723e-11
3.95106e-11
-4.13561e-11
1.81804e-11
-4.77583e-11
4.77713e-11
-5.01881e-11
2.0914e-11
-5.40619e-11
5.73231e-11
-6.05024e-11
2.41021e-11
-6.05875e-11
6.8197e-11
-7.2413e-11
2.77433e-11
-6.71104e-11
8.02497e-11
-8.59074e-11
3.16439e-11
-7.30869e-11
9.29382e-11
-1.00653e-10
3.50492e-11
-7.7332e-11
1.0475e-10
-1.15133e-10
-7.63763e-11
1.13476e-10
-1.29593e-10
2.27574e-12
-2.77096e-12
2.10158e-12
-2.17e-12
4.3281e-12
-8.09292e-12
6.1824e-12
-6.38651e-12
6.22391e-12
-1.30943e-11
1.01485e-11
-1.04922e-11
8.0229e-12
-1.79921e-11
1.42429e-11
-1.47422e-11
9.78218e-12
-2.29644e-11
1.86817e-11
-1.93649e-11
1.156e-11
-2.81578e-11
2.36662e-11
-2.45754e-11
1.34198e-11
-3.36927e-11
2.93893e-11
-3.05828e-11
1.54346e-11
-3.96684e-11
3.60401e-11
-3.75972e-11
1.76921e-11
-4.61704e-11
4.38036e-11
-4.58315e-11
2.03003e-11
-5.32787e-11
5.28568e-11
-5.55018e-11
2.3396e-11
-6.10812e-11
6.33572e-11
-6.6824e-11
2.7156e-11
-6.96924e-11
7.54225e-11
-8.00087e-11
3.17914e-11
-7.9268e-11
8.90725e-11
-9.52303e-11
3.74667e-11
-8.99468e-11
1.04031e-10
-1.12484e-10
4.35328e-11
-1.01182e-10
1.18941e-10
-1.30464e-10
-1.12516e-10
1.31392e-10
-1.50316e-10
2.5017e-12
2.29093e-12
-2.36513e-12
-2.87213e-12
4.75455e-12
6.7357e-12
-6.95689e-12
-8.39355e-12
6.8286e-12
1.1044e-11
-1.14159e-11
-1.35969e-11
8.78625e-12
1.54721e-11
-1.60113e-11
-1.87152e-11
1.0687e-11
2.02465e-11
-2.09824e-11
-2.39422e-11
1.25914e-11
2.55756e-11
-2.65516e-11
-2.94418e-11
1.45661e-11
3.16576e-11
-3.29339e-11
-3.53548e-11
1.6689e-11
3.86848e-11
-4.03426e-11
-4.18063e-11
1.90567e-11
4.68455e-11
-4.89938e-11
-4.89146e-11
2.1796e-11
5.63225e-11
-5.911e-11
-5.68043e-11
2.50837e-11
6.72894e-11
-7.09246e-11
-6.56246e-11
2.91796e-11
7.99064e-11
-8.46952e-11
-7.55807e-11
3.44669e-11
9.42949e-11
-1.00712e-10
-8.69753e-11
4.14273e-11
1.10406e-10
-1.1924e-10
-1.00213e-10
4.9513e-11
1.27077e-10
-1.39235e-10
-1.14849e-10
1.43338e-10
-1.65205e-10
-1.35398e-10
2.01796e-13
-5.2809e-13
1.79258e-13
3.84104e-13
-1.53858e-12
5.27969e-13
5.53114e-13
-2.47715e-12
8.68763e-13
7.14212e-13
-3.37785e-12
1.22357e-12
8.72257e-13
-4.26454e-12
1.61193e-12
1.03187e-12
-5.1496e-12
2.05176e-12
1.19784e-12
-6.03173e-12
2.55949e-12
1.37586e-12
-6.89152e-12
3.14949e-12
1.57412e-12
-7.6836e-12
3.83258e-12
1.80725e-12
-8.32346e-12
4.61297e-12
2.10542e-12
-8.6648e-12
5.4827e-12
2.53398e-12
-8.45869e-12
6.4119e-12
3.22668e-12
-7.27952e-12
7.32986e-12
4.40136e-12
-4.43862e-12
8.08413e-12
6.09315e-12
6.52298e-13
8.38761e-12
7.59813e-12
7.5676e-12
6.01242e-13
-1.04026e-12
5.33161e-13
1.14435e-12
-3.03143e-12
1.5702e-12
1.6477e-12
-4.88274e-12
2.58339e-12
2.12729e-12
-6.66236e-12
3.63776e-12
2.59754e-12
-8.41898e-12
4.79122e-12
3.07211e-12
-1.01801e-11
6.09687e-12
3.56482e-12
-1.19481e-11
7.60339e-12
4.09124e-12
-1.36934e-11
9.35349e-12
4.67199e-12
-1.53417e-11
1.13793e-11
5.34046e-12
-1.67562e-11
1.3693e-11
6.16073e-12
-1.77127e-11
1.62691e-11
7.26375e-12
-1.78747e-11
1.90136e-11
8.89875e-12
-1.68028e-11
2.17065e-11
1.14177e-11
-1.41173e-11
2.38978e-11
1.47162e-11
-1.01503e-11
2.48478e-11
-7.28719e-12
2.25973e-11
9.88559e-13
-1.52103e-12
8.73639e-13
1.88132e-12
-4.43389e-12
2.5726e-12
2.70833e-12
-7.14642e-12
4.23149e-12
3.49572e-12
-9.76113e-12
5.95624e-12
4.26716e-12
-1.23534e-11
7.84113e-12
5.04489e-12
-1.49703e-11
9.97264e-12
5.85079e-12
-1.76265e-11
1.24303e-11
6.70754e-12
-2.02965e-11
1.52845e-11
7.64055e-12
-2.29026e-11
1.85892e-11
8.68209e-12
-2.52967e-11
2.23662e-11
9.88146e-12
-2.72424e-11
2.65768e-11
1.13237e-11
-2.84131e-11
3.10709e-11
1.31455e-11
-2.84591e-11
3.54996e-11
1.54793e-11
-2.72531e-11
3.91879e-11
1.80403e-11
-2.53894e-11
4.11462e-11
-2.4621e-11
3.96745e-11
1.35622e-12
-1.9547e-12
1.19264e-12
2.58057e-12
-5.70038e-12
3.51126e-12
3.71386e-12
-9.19537e-12
5.77306e-12
4.79178e-12
-1.25762e-11
8.12131e-12
5.84675e-12
-1.59467e-11
1.06834e-11
6.90925e-12
-1.93779e-11
1.35764e-11
8.00882e-12
-2.29055e-11
1.69085e-11
9.17412e-12
-2.65238e-11
2.0777e-11
1.04317e-11
-3.01755e-11
2.5259e-11
1.18027e-11
-3.3737e-11
3.03925e-11
1.32965e-11
-3.70018e-11
3.61399e-11
1.48979e-11
-3.96747e-11
4.23242e-11
1.654e-11
-4.14102e-11
4.85221e-11
1.80627e-11
-4.19696e-11
5.39167e-11
1.91659e-11
-4.15747e-11
5.73108e-11
-4.15012e-11
5.68205e-11
1.69721e-12
-2.32589e-12
1.48306e-12
3.22851e-12
-6.78599e-12
4.36499e-12
4.64434e-12
-1.0957e-11
7.17252e-12
5.98897e-12
-1.5008e-11
1.00814e-11
7.30295e-12
-1.90714e-11
1.32477e-11
8.62483e-12
-2.32454e-11
1.68147e-11
9.99228e-12
-2.75933e-11
2.09162e-11
1.14416e-11
-3.21411e-11
2.56739e-11
1.30047e-11
-3.68715e-11
3.11891e-11
1.46999e-11
-4.17137e-11
3.75227e-11
1.6513e-11
-4.65272e-11
4.46559e-11
1.83569e-11
-5.10769e-11
5.24203e-11
2.00006e-11
-5.49946e-11
6.0373e-11
2.10064e-11
-5.77445e-11
6.76081e-11
2.09322e-11
-5.87792e-11
7.26835e-11
-5.86439e-11
7.33674e-11
2.00534e-12
-2.62003e-12
1.73912e-12
3.81319e-12
-7.64797e-12
5.11664e-12
5.48205e-12
-1.23615e-11
8.40106e-12
7.06345e-12
-1.69588e-11
1.17946e-11
8.60507e-12
-2.15995e-11
1.54764e-11
1.01531e-11
-2.64085e-11
1.96108e-11
1.17539e-11
-3.14794e-11
2.43514e-11
1.34546e-11
-3.68754e-11
2.98404e-11
1.53011e-11
-4.26297e-11
3.62008e-11
1.733e-11
-4.87434e-11
4.35187e-11
1.95515e-11
-5.5178e-11
5.18071e-11
2.19057e-11
-6.18341e-11
6.09362e-11
2.41749e-11
-6.84837e-11
7.04997e-11
2.58574e-11
-7.45925e-11
7.9576e-11
2.62332e-11
-7.90648e-11
8.65073e-11
-7.97067e-11
8.8723e-11
2.27554e-12
-2.824e-12
1.95666e-12
4.32484e-12
-8.24782e-12
5.75389e-12
6.21244e-12
-1.33455e-11
9.43816e-12
7.99535e-12
-1.83392e-11
1.32314e-11
9.72673e-12
-2.34108e-11
1.7329e-11
1.1459e-11
-2.87089e-11
2.19098e-11
1.32466e-11
-3.43544e-11
2.71403e-11
1.51485e-11
-4.04448e-11
3.31753e-11
1.72298e-11
-4.70607e-11
4.01526e-11
1.95618e-11
-5.42722e-11
4.81775e-11
2.22189e-11
-6.21487e-11
5.72924e-11
2.52656e-11
-7.07687e-11
6.74152e-11
2.87151e-11
-8.02184e-11
7.82064e-11
3.24157e-11
-9.04992e-11
8.87908e-11
3.56858e-11
-1.00965e-10
9.7346e-11
-1.10307e-10
1.00739e-10
2.5042e-12
2.13336e-12
-2.92701e-12
4.75663e-12
6.27009e-12
-8.55389e-12
6.82547e-12
1.0273e-11
-1.38571e-11
8.77087e-12
1.43765e-11
-1.90747e-11
1.06491e-11
1.87852e-11
-2.44043e-11
1.25163e-11
2.36846e-11
-3.00117e-11
1.44318e-11
2.92457e-11
-3.60372e-11
1.64627e-11
3.56264e-11
-4.26024e-11
1.86887e-11
4.29664e-11
-4.98182e-11
2.1209e-11
5.13746e-11
-5.77942e-11
2.41538e-11
6.09032e-11
-6.66523e-11
2.76978e-11
7.14935e-11
-7.65462e-11
3.20705e-11
8.28556e-11
-8.76794e-11
3.74912e-11
9.41959e-11
-1.00259e-10
4.33969e-11
1.03664e-10
-1.13664e-10
1.07297e-10
-1.29749e-10
2.00056e-13
-5.36839e-13
1.59532e-13
3.80245e-13
-1.56417e-12
4.69693e-13
5.46158e-13
-2.51871e-12
7.72298e-13
7.02444e-13
-3.43539e-12
1.08647e-12
8.52903e-13
-4.33907e-12
1.42901e-12
1.00053e-12
-5.24366e-12
1.81494e-12
1.14752e-12
-6.15027e-12
2.25737e-12
1.29525e-12
-7.04403e-12
2.76664e-12
1.44453e-12
-7.88895e-12
3.34828e-12
1.59681e-12
-8.62036e-12
3.99898e-12
1.75734e-12
-9.1347e-12
4.69942e-12
1.94132e-12
-9.27652e-12
5.40165e-12
2.17865e-12
-8.82529e-12
6.00796e-12
2.4917e-12
-7.51264e-12
6.34247e-12
2.78307e-12
-5.26947e-12
6.17936e-12
-2.38986e-12
5.55292e-12
5.9622e-13
-1.05736e-12
4.74496e-13
1.1332e-12
-3.08141e-12
1.39692e-12
1.62761e-12
-4.96383e-12
2.29661e-12
2.09329e-12
-6.77452e-12
3.23027e-12
2.54164e-12
-8.56404e-12
4.24774e-12
2.98165e-12
-1.03624e-11
5.3935e-12
3.41975e-12
-1.21759e-11
6.70649e-12
3.85939e-12
-1.39823e-11
8.21762e-12
4.30075e-12
-1.57223e-11
9.94379e-12
4.74164e-12
-1.729e-11
1.18762e-11
5.18183e-12
-1.85239e-11
1.39595e-11
5.63111e-12
-1.92137e-11
1.60569e-11
6.11128e-12
-1.9152e-11
1.78951e-11
6.60649e-12
-1.83045e-11
1.90057e-11
6.90235e-12
-1.71366e-11
1.88512e-11
-1.71768e-11
1.71855e-11
9.80837e-13
-1.54579e-12
7.77555e-13
1.86415e-12
-4.50624e-12
2.28883e-12
2.67731e-12
-7.2637e-12
3.76201e-12
3.4432e-12
-9.92304e-12
5.28948e-12
4.1808e-12
-1.2562e-11
6.95237e-12
4.90525e-12
-1.52306e-11
8.82319e-12
5.6273e-12
-1.79474e-11
1.09658e-11
6.35169e-12
-2.06948e-11
1.34316e-11
7.07423e-12
-2.34101e-11
1.62505e-11
7.77768e-12
-2.59762e-11
1.9413e-11
8.4269e-12
-2.82182e-11
2.28389e-11
8.96158e-12
-2.99262e-11
2.63279e-11
9.28135e-12
-3.09469e-11
2.94894e-11
9.21807e-12
-3.13997e-11
3.16945e-11
8.60023e-12
-3.18736e-11
3.22922e-11
-3.33914e-11
3.14306e-11
1.3467e-12
-1.98621e-12
1.06158e-12
2.5593e-12
-5.7924e-12
3.12428e-12
3.6753e-12
-9.34433e-12
5.13314e-12
4.72628e-12
-1.27814e-11
7.21311e-12
5.73888e-12
-1.62097e-11
9.47383e-12
6.73491e-12
-1.97028e-11
1.20135e-11
7.73042e-12
-2.32997e-11
1.49194e-11
8.73269e-12
-2.69997e-11
1.82632e-11
9.73384e-12
-3.07564e-11
2.20904e-11
1.06992e-11
-3.4468e-11
2.63982e-11
1.15471e-11
-3.79723e-11
3.10988e-11
1.21159e-11
-4.10589e-11
3.59618e-11
1.21224e-11
-4.35302e-11
4.05408e-11
1.11784e-11
-4.53506e-11
4.41328e-11
9.19401e-12
-4.67996e-11
4.59979e-11
-4.86866e-11
4.62484e-11
1.68697e-12
-2.36304e-12
1.32026e-12
3.20547e-12
-6.89439e-12
3.88449e-12
4.60223e-12
-1.11322e-11
6.37846e-12
5.91701e-12
-1.52485e-11
8.95546e-12
7.18405e-12
-1.93781e-11
1.17498e-11
8.43252e-12
-2.36206e-11
1.4882e-11
9.68572e-12
-2.80405e-11
1.846e-11
1.09575e-11
-3.26649e-11
2.25743e-11
1.2244e-11
-3.74795e-11
2.7287e-11
1.35069e-11
-4.24204e-11
3.26086e-11
1.46412e-11
-4.73638e-11
3.84576e-11
1.54169e-11
-5.21113e-11
4.4599e-11
1.53989e-11
-5.63724e-11
5.05641e-11
1.39495e-11
-5.97588e-11
5.55949e-11
1.08647e-11
-6.18841e-11
5.88164e-11
-6.31676e-11
6.02037e-11
1.99549e-12
-2.66151e-12
1.54847e-12
3.79075e-12
-7.76894e-12
4.55419e-12
5.44046e-12
-1.25567e-11
7.47233e-12
6.99161e-12
-1.72262e-11
1.04793e-11
8.48558e-12
-2.19386e-11
1.37294e-11
9.9593e-12
-2.68195e-11
1.73608e-11
1.14452e-11
-3.19611e-11
2.14976e-11
1.29687e-11
-3.74233e-11
2.62462e-11
1.45415e-11
-4.32331e-11
3.16832e-11
1.61466e-11
-4.93819e-11
3.78335e-11
1.77068e-11
-5.58162e-11
4.4629e-11
1.90217e-11
-6.24137e-11
5.18426e-11
1.9665e-11
-6.89197e-11
5.89938e-11
1.89119e-11
-7.4798e-11
6.5262e-11
1.625e-11
-7.90629e-11
6.96041e-11
-7.97785e-11
7.19321e-11
2.26709e-12
-2.86839e-12
1.74249e-12
4.30513e-12
-8.37721e-12
5.12238e-12
6.17501e-12
-1.35542e-11
8.39646e-12
7.92945e-12
-1.86243e-11
1.17584e-11
9.61579e-12
-2.37709e-11
1.53765e-11
1.1278e-11
-2.91421e-11
1.94013e-11
1.29578e-11
-3.4855e-11
2.39675e-11
1.46947e-11
-4.10001e-11
2.91909e-11
1.65235e-11
-4.76443e-11
3.51576e-11
1.84671e-11
-5.4834e-11
4.19019e-11
2.05198e-11
-6.25964e-11
4.93657e-11
2.26101e-11
-7.09344e-11
5.73277e-11
2.45316e-11
-7.97979e-11
6.52895e-11
2.58479e-11
-8.89697e-11
7.23324e-11
2.59716e-11
-9.76406e-11
7.7164e-11
-1.04448e-10
7.94657e-11
2.49794e-12
1.90024e-12
-2.97277e-12
4.74132e-12
5.58305e-12
-8.68724e-12
6.79503e-12
9.14114e-12
-1.4072e-11
8.71539e-12
1.2779e-11
-1.9368e-11
1.05536e-11
1.66731e-11
-2.47739e-11
1.23585e-11
2.09798e-11
-3.04539e-11
1.41787e-11
2.58376e-11
-3.65436e-11
1.60649e-11
3.13642e-11
-4.31546e-11
1.80714e-11
3.76461e-11
-5.038e-11
2.0257e-11
4.47175e-11
-5.82978e-11
2.26829e-11
5.252e-11
-6.69747e-11
2.54033e-11
6.08304e-11
-7.64665e-11
2.84404e-11
6.91368e-11
-8.68018e-11
3.17103e-11
7.64617e-11
-9.78989e-11
3.46751e-11
8.13347e-11
-1.08929e-10
8.24181e-11
-1.20916e-10
1.97808e-13
-5.43989e-13
1.34298e-13
3.7538e-13
-1.58507e-12
3.95272e-13
5.3766e-13
-2.55263e-12
6.495e-13
6.88494e-13
-3.48234e-12
9.12788e-13
8.30561e-13
-4.39995e-12
1.19881e-12
9.65183e-13
-5.32059e-12
1.51943e-12
1.09199e-12
-6.24758e-12
1.88448e-12
1.20832e-12
-7.17039e-12
2.30082e-12
1.30849e-12
-8.0617e-12
2.77037e-12
1.38316e-12
-8.87413e-12
3.28643e-12
1.41936e-12
-9.53816e-12
3.82799e-12
1.40101e-12
-9.96312e-12
4.3516e-12
1.30742e-12
-1.00436e-11
4.78288e-12
1.10367e-12
-9.67538e-12
5.01841e-12
7.54515e-13
-8.8283e-12
4.97753e-12
-7.14598e-12
4.96956e-12
5.89699e-13
-1.07134e-12
3.99466e-13
1.1191e-12
-3.12227e-12
1.17565e-12
1.60296e-12
-5.03007e-12
1.93157e-12
2.05283e-12
-6.86596e-12
2.71408e-12
2.47686e-12
-8.68199e-12
3.56371e-12
2.87926e-12
-1.05102e-11
4.51564e-12
3.25919e-12
-1.23606e-11
5.5991e-12
3.60879e-12
-1.42174e-11
6.83478e-12
3.91034e-12
-1.60352e-11
8.22895e-12
4.13303e-12
-1.77342e-11
9.76312e-12
4.23064e-12
-1.92022e-11
1.13779e-11
4.14079e-12
-2.03132e-11
1.29507e-11
3.7861e-12
-2.09809e-11
1.42754e-11
3.08459e-12
-2.12625e-11
1.50746e-11
2.06925e-12
-2.14389e-11
1.51529e-11
-2.21714e-11
1.45878e-11
9.70685e-13
-1.56605e-12
6.54668e-13
1.84218e-12
-4.56537e-12
1.9265e-12
2.6389e-12
-7.35933e-12
3.16443e-12
3.38013e-12
-1.00545e-11
4.44477e-12
4.07988e-12
-1.27303e-11
5.83349e-12
4.74602e-12
-1.54388e-11
7.38798e-12
5.37837e-12
-1.82023e-11
9.15635e-12
5.96504e-12
-2.10096e-11
1.11734e-11
6.4763e-12
-2.3811e-11
1.34517e-11
6.85612e-12
-2.65145e-11
1.59663e-11
7.01187e-12
-2.89909e-11
1.86309e-11
6.80492e-12
-3.11035e-11
2.1268e-11
6.05697e-12
-3.27902e-11
2.35882e-11
4.62867e-12
-3.4204e-11
2.52245e-11
2.75989e-12
-3.57165e-11
2.5943e-11
-3.77483e-11
2.61033e-11
1.33388e-12
-2.01194e-12
8.93934e-13
2.53153e-12
-5.86742e-12
2.63009e-12
3.62668e-12
-9.46531e-12
4.31843e-12
4.64639e-12
-1.29467e-11
6.06212e-12
5.6111e-12
-1.64195e-11
7.95035e-12
6.53371e-12
-1.99585e-11
1.00609e-11
7.41705e-12
-2.36046e-11
1.24598e-11
8.24871e-12
-2.73611e-11
1.5196e-11
8.99156e-12
-3.11889e-11
1.8291e-11
9.56861e-12
-3.50017e-11
2.17202e-11
9.84037e-12
-3.86657e-11
2.53849e-11
9.5769e-12
-4.20171e-11
2.90804e-11
8.45351e-12
-4.49149e-11
3.248e-11
6.18525e-12
-4.73442e-11
3.51866e-11
3.14283e-12
-4.94468e-11
3.69306e-11
-5.1609e-11
3.8022e-11
1.67264e-12
-2.39327e-12
1.11196e-12
3.17436e-12
-6.9824e-12
3.27062e-12
4.54762e-12
-1.12737e-11
5.36705e-12
5.82712e-12
-1.54409e-11
7.52778e-12
7.04029e-12
-1.96197e-11
9.86206e-12
8.20659e-12
-2.39101e-11
1.24655e-11
9.33517e-12
-2.83759e-11
1.54198e-11
1.04192e-11
-3.30433e-11
1.87873e-11
1.14247e-11
-3.78966e-11
2.25995e-11
1.22718e-11
-4.28722e-11
2.68365e-11
1.2801e-11
-4.78492e-11
3.13968e-11
1.27248e-11
-5.2636e-11
3.60632e-11
1.15906e-11
-5.69536e-11
4.0487e-11
8.90195e-12
-6.04198e-11
4.42403e-11
4.92535e-12
-6.26144e-11
4.69835e-11
-6.36921e-11
4.89464e-11
1.98086e-12
-2.69513e-12
1.3044e-12
3.75884e-12
-7.86672e-12
3.83521e-12
5.3842e-12
-1.27134e-11
6.28868e-12
6.89872e-12
-1.74382e-11
8.81042e-12
8.33687e-12
-2.22024e-11
1.15259e-11
9.72586e-12
-2.71304e-11
1.4545e-11
1.10841e-11
-3.2311e-11
1.79617e-11
1.2417e-11
-3.77974e-11
2.18491e-11
1.37075e-11
-4.36062e-11
2.6247e-11
1.48991e-11
-4.97118e-11
3.11408e-11
1.58636e-11
-5.60343e-11
3.6428e-11
1.63471e-11
-6.24111e-11
4.18791e-11
1.59086e-11
-6.85319e-11
4.7111e-11
1.39652e-11
-7.38068e-11
5.16297e-11
1.04783e-11
-7.7279e-11
5.50001e-11
-7.70518e-11
5.74782e-11
2.25327e-12
-2.90422e-12
1.46812e-12
4.27478e-12
-8.48128e-12
4.31453e-12
6.12109e-12
-1.37206e-11
7.06779e-12
7.83991e-12
-1.88484e-11
9.88776e-12
9.472e-12
-2.40477e-11
1.29116e-11
1.10522e-11
-2.94637e-11
1.62589e-11
1.26094e-11
-3.52078e-11
2.00317e-11
1.41645e-11
-4.13591e-11
2.43093e-11
1.57262e-11
-4.7966e-11
2.91359e-11
1.72811e-11
-5.50439e-11
3.44983e-11
1.87752e-11
-6.25693e-11
4.02893e-11
2.00813e-11
-7.04633e-11
4.62587e-11
2.09621e-11
-7.85528e-11
5.19653e-11
2.10821e-11
-8.64757e-11
5.67873e-11
2.02961e-11
-9.34361e-11
6.0116e-11
-9.82819e-11
6.22152e-11
2.48584e-12
1.60133e-12
-3.00955e-12
4.71446e-12
4.70343e-12
-8.79405e-12
6.74669e-12
7.69614e-12
-1.42425e-11
8.63431e-12
1.07484e-11
-1.9597e-11
1.04226e-11
1.4004e-11
-2.5055e-11
1.21523e-11
1.75874e-11
-3.07774e-11
1.38607e-11
2.16035e-11
-3.68918e-11
1.55822e-11
2.61325e-11
-4.3496e-11
1.73486e-11
3.12174e-11
-5.06597e-11
1.91867e-11
3.6841e-11
-5.84229e-11
2.11133e-11
4.28872e-11
-6.67909e-11
2.31267e-11
4.90845e-11
-7.57227e-11
2.52002e-11
5.49395e-11
-8.51062e-11
2.72914e-11
5.97134e-11
-9.47004e-11
2.92288e-11
6.26221e-11
-1.03734e-10
6.33711e-11
-1.13445e-10
1.9542e-13
-5.49525e-13
1.04584e-13
3.70279e-13
-1.60123e-12
3.07725e-13
5.28899e-13
-2.57885e-12
5.05364e-13
6.74377e-13
-3.51865e-12
7.09631e-13
8.08361e-13
-4.44697e-12
9.30857e-13
9.30733e-13
-5.37981e-12
1.17774e-12
1.03904e-12
-6.32211e-12
1.45715e-12
1.12768e-12
-7.26652e-12
1.77335e-12
1.18673e-12
-8.19169e-12
2.12643e-12
1.20107e-12
-9.06115e-12
2.5097e-12
1.15018e-12
-9.82388e-12
2.90636e-12
1.00963e-12
-1.04172e-11
3.28612e-12
7.54641e-13
-1.07688e-11
3.60497e-12
3.68332e-13
-1.07853e-11
3.81529e-12
-1.0938e-13
-1.03477e-11
3.89365e-12
-8.81778e-12
4.12616e-12
5.8276e-13
-1.08221e-12
3.11103e-13
1.10428e-12
-3.154e-12
9.15339e-13
1.5775e-12
-5.08143e-12
1.50306e-12
2.01179e-12
-6.93669e-12
2.11021e-12
2.41235e-12
-8.7728e-12
2.76737e-12
2.77926e-12
-1.06232e-11
3.50038e-12
3.10581e-12
-1.25004e-11
4.32972e-12
3.37587e-12
-1.43935e-11
5.2683e-12
3.56028e-12
-1.6266e-11
6.31687e-12
3.61331e-12
-1.8054e-11
7.45676e-12
3.47123e-12
-1.9671e-11
8.64028e-12
3.0574e-12
-2.10238e-11
9.78147e-12
2.30344e-12
-2.20484e-11
1.07559e-11
1.21086e-12
-2.27563e-11
1.14281e-11
2.12358e-14
-2.32374e-11
1.17297e-11
-2.38245e-11
1.16403e-11
9.59824e-13
-1.58182e-12
5.09914e-13
1.81899e-12
-4.61136e-12
1.50014e-12
2.59903e-12
-7.43348e-12
2.46279e-12
3.31584e-12
-1.01558e-11
3.45631e-12
3.9789e-12
-1.28589e-11
4.5305e-12
4.58979e-12
-1.5596e-11
5.72757e-12
5.13959e-12
-1.83917e-11
7.08129e-12
5.6043e-12
-2.12388e-11
8.6136e-12
5.9383e-12
-2.40954e-11
1.03277e-11
6.06652e-12
-2.68835e-11
1.2197e-11
5.87828e-12
-2.94943e-11
1.41513e-11
5.23164e-12
-3.1814e-11
1.60651e-11
3.99573e-12
-3.37827e-11
1.77615e-11
2.19604e-12
-3.54832e-11
1.90561e-11
3.47194e-13
-3.71107e-11
1.98557e-11
-3.89038e-11
2.03036e-11
1.32003e-12
-2.03197e-12
6.96385e-13
2.50193e-12
-5.92572e-12
2.04836e-12
3.57575e-12
-9.55885e-12
3.3615e-12
4.56426e-12
-1.30735e-11
4.71476e-12
5.48225e-12
-1.65781e-11
6.17544e-12
6.3349e-12
-2.01482e-11
7.80086e-12
7.11448e-12
-2.38252e-11
9.63743e-12
7.79442e-12
-2.76135e-11
1.17163e-11
8.31995e-12
-3.14768e-11
1.40451e-11
8.59513e-12
-3.53341e-11
1.65944e-11
8.46767e-12
-3.90594e-11
1.92816e-11
7.72141e-12
-4.24938e-11
2.19591e-11
6.1168e-12
-4.5483e-11
2.44263e-11
3.58732e-12
-4.7949e-11
2.64845e-11
7.78567e-13
-4.99234e-11
2.80159e-11
-5.17077e-11
2.91036e-11
1.65691e-12
-2.41675e-12
8.66385e-13
3.1407e-12
-7.05059e-12
2.54769e-12
4.48963e-12
-1.13826e-11
4.17853e-12
5.73359e-12
-1.55872e-11
5.85567e-12
6.89372e-12
-1.98002e-11
7.6616e-12
7.98108e-12
-2.41207e-11
9.66684e-12
8.99347e-12
-2.86107e-11
1.19289e-11
9.90929e-12
-3.32929e-11
1.44876e-11
1.06772e-11
-3.8147e-11
1.73554e-11
1.12002e-11
-4.31024e-11
2.0503e-11
1.13119e-11
-4.80276e-11
2.38405e-11
1.07523e-11
-5.27136e-11
2.72057e-11
9.17861e-12
-5.68511e-11
3.03776e-11
6.34134e-12
-6.00115e-11
3.31373e-11
2.77068e-12
-6.17485e-11
3.53262e-11
-6.22264e-11
3.69732e-11
1.9644e-12
-2.72117e-12
1.01652e-12
3.72356e-12
-7.94215e-12
2.98804e-12
5.32331e-12
-1.28334e-11
4.89694e-12
6.80042e-12
-1.7598e-11
6.85459e-12
8.18296e-12
-2.23968e-11
8.95579e-12
9.48964e-12
-2.73518e-11
1.12815e-11
1.07277e-11
-3.25468e-11
1.38981e-11
1.1888e-11
-3.80272e-11
1.68519e-11
1.29373e-11
-4.37963e-11
2.01593e-11
1.38038e-11
-4.98085e-11
2.37902e-11
1.43559e-11
-5.59536e-11
2.7647e-11
1.43717e-11
-6.20263e-11
3.15476e-11
1.35267e-11
-6.7663e-11
3.52335e-11
1.14921e-11
-7.22356e-11
3.84339e-11
8.49226e-12
-7.48525e-11
4.09438e-11
-7.38395e-11
4.28397e-11
2.23717e-12
-2.93185e-12
1.14431e-12
4.24016e-12
-8.56123e-12
3.36206e-12
6.06116e-12
-1.38472e-11
5.50456e-12
7.74297e-12
-1.90161e-11
7.69414e-12
9.3202e-12
-2.42491e-11
1.00345e-11
1.08196e-11
-2.96881e-11
1.26138e-11
1.22595e-11
-3.54369e-11
1.5504e-11
1.36476e-11
-4.15626e-11
1.87549e-11
1.49773e-11
-4.80936e-11
2.23839e-11
1.62216e-11
-5.50148e-11
2.63579e-11
1.73224e-11
-6.22567e-11
3.05676e-11
1.81804e-11
-6.9677e-11
3.48014e-11
1.86611e-11
-7.70281e-11
3.87398e-11
1.86638e-11
-8.39067e-11
4.20086e-11
1.8308e-11
-8.9651e-11
4.43136e-11
-9.34779e-11
4.58247e-11
2.47101e-12
1.24832e-12
-3.03783e-12
4.68243e-12
3.66567e-12
-8.87576e-12
6.69095e-12
5.99491e-12
-1.43716e-11
8.5438e-12
8.36535e-12
-1.9767e-11
1.02807e-11
1.08859e-11
-2.52576e-11
1.19349e-11
1.36484e-11
-3.09992e-11
1.35343e-11
1.67265e-11
-3.71108e-11
1.51016e-11
2.01704e-11
-4.36756e-11
1.66548e-11
2.39951e-11
-5.07396e-11
1.82078e-11
2.81616e-11
-5.83071e-11
1.97718e-11
3.25483e-11
-6.63316e-11
2.13623e-11
3.69157e-11
-7.47033e-11
2.30289e-11
4.08864e-11
-8.32365e-11
2.49153e-11
4.39825e-11
-9.16623e-11
2.70882e-11
4.58036e-11
-9.93918e-11
4.62589e-11
-1.08031e-10
1.9325e-13
-5.53486e-13
7.15043e-14
3.65683e-13
-1.61282e-12
2.10347e-13
5.21097e-13
-2.5977e-12
3.45309e-13
6.61966e-13
-3.54481e-12
4.84598e-13
7.89124e-13
-4.48079e-12
6.35105e-13
9.01374e-13
-5.42211e-12
8.02497e-13
9.94878e-13
-6.37468e-12
9.91086e-13
1.06228e-12
-7.33296e-12
1.2033e-12
1.0918e-12
-8.27881e-12
1.43867e-12
1.06683e-12
-9.18069e-12
1.69235e-12
9.67014e-13
-9.99401e-12
1.95359e-12
7.72305e-13
-1.06612e-11
2.20484e-12
4.70522e-13
-1.11059e-11
2.4232e-12
6.8204e-14
-1.12071e-11
2.58727e-12
-3.76888e-13
-1.07886e-11
2.68522e-12
-9.15914e-12
2.91557e-12
5.76454e-13
-1.09006e-12
2.1272e-13
1.09092e-12
-3.17695e-12
6.25754e-13
1.5548e-12
-5.1186e-12
1.02716e-12
1.97566e-12
-6.98779e-12
1.44121e-12
2.35636e-12
-8.83805e-12
1.88832e-12
2.69391e-12
-1.07035e-11
2.38533e-12
2.97766e-12
-1.25981e-11
2.94511e-12
3.1867e-12
-1.45135e-11
3.57505e-12
3.28691e-12
-1.64177e-11
4.27411e-12
3.22935e-12
-1.82533e-11
5.02863e-12
2.95297e-12
-1.99411e-11
5.80785e-12
2.39779e-12
-2.13894e-11
6.56116e-12
1.53829e-12
-2.25141e-11
7.22184e-12
4.49393e-13
-2.3263e-11
7.72312e-12
-5.85313e-13
-2.36325e-11
8.02214e-12
-2.39033e-11
8.04917e-12
9.49932e-13
-1.59329e-12
3.48708e-13
1.79802e-12
-4.6448e-12
1.02571e-12
2.56338e-12
-7.48728e-12
1.68332e-12
3.25907e-12
-1.0229e-11
2.36096e-12
3.89098e-12
-1.29507e-11
3.09183e-12
4.45607e-12
-1.57065e-11
3.9035e-12
4.9395e-12
-1.85217e-11
4.81726e-12
5.31044e-12
-2.13909e-11
5.84575e-12
5.51683e-12
-2.42752e-11
6.98851e-12
5.48111e-12
-2.71004e-11
8.22565e-12
5.10142e-12
-2.97604e-11
9.51127e-12
4.26964e-12
-3.21345e-11
1.07702e-11
2.93156e-12
-3.41311e-11
1.19051e-11
1.22934e-12
-3.57582e-11
1.28191e-11
-2.85796e-13
-3.7135e-11
1.3444e-11
-3.85153e-11
1.38016e-11
1.30735e-12
-2.04659e-12
4.76307e-13
2.47504e-12
-5.96817e-12
1.40081e-12
3.52998e-12
-9.62665e-12
2.298e-12
4.49137e-12
-1.31646e-11
3.22111e-12
5.36954e-12
-1.66904e-11
4.215e-12
6.16395e-12
-2.02795e-11
5.31715e-12
6.85981e-12
-2.39728e-11
6.55688e-12
7.4227e-12
-2.77739e-11
7.95224e-12
7.79142e-12
-3.16456e-11
9.50457e-12
7.86999e-12
-3.55045e-11
1.11908e-11
7.52264e-12
-3.92192e-11
1.29556e-11
6.58401e-12
-4.26153e-11
1.47089e-11
4.91905e-12
-4.5503e-11
1.63378e-11
2.6034e-12
-4.77435e-11
1.77347e-11
2.92411e-13
-4.93317e-11
1.881e-11
-5.06284e-11
1.95397e-11
1.64239e-12
-2.43388e-12
5.9269e-13
3.10987e-12
-7.10018e-12
1.7426e-12
4.43712e-12
-1.14612e-11
2.85703e-12
5.64999e-12
-1.56915e-11
4.00118e-12
6.76466e-12
-1.99264e-11
5.23008e-12
7.78593e-12
-2.42636e-11
6.58988e-12
8.70406e-12
-2.87625e-11
8.11691e-12
9.48948e-12
-3.34415e-11
9.8342e-12
1.00852e-11
-3.82737e-11
1.17451e-11
1.03967e-11
-4.31783e-11
1.38249e-11
1.02806e-11
-4.80079e-11
1.60114e-11
9.53979e-12
-5.25302e-11
1.82016e-11
7.95355e-12
-5.64028e-11
2.0267e-11
5.4283e-12
-5.91632e-11
2.2085e-11
2.48093e-12
-6.03822e-11
2.35397e-11
-6.03249e-11
2.45771e-11
1.94902e-12
-2.74011e-12
6.95516e-13
3.69087e-12
-7.99683e-12
2.04413e-12
5.26759e-12
-1.29195e-11
3.34875e-12
6.71171e-12
-1.77111e-11
4.68442e-12
8.04622e-12
-2.25312e-11
6.11441e-12
9.28348e-12
-2.74988e-11
7.69177e-12
1.04232e-11
-3.26933e-11
9.45832e-12
1.14487e-11
-3.81516e-11
1.14407e-11
1.23217e-11
-4.38648e-11
1.36435e-11
1.29748e-11
-4.97685e-11
1.60397e-11
1.33017e-11
-5.57271e-11
1.85583e-11
1.31478e-11
-6.15036e-11
2.10784e-11
1.23161e-11
-6.67051e-11
2.34423e-11
1.06387e-11
-7.0701e-11
2.5493e-11
8.32092e-12
-7.26818e-11
2.70937e-11
-7.11833e-11
2.82346e-11
2.22187e-12
-2.9519e-12
7.83064e-13
4.20758e-12
-8.61898e-12
2.30032e-12
6.00554e-12
-1.39378e-11
3.76479e-12
7.65439e-12
-1.91338e-11
5.25891e-12
9.18379e-12
-2.43866e-11
6.85192e-12
1.06144e-11
-2.9834e-11
8.60166e-12
1.19574e-11
-3.5573e-11
1.05533e-11
1.32135e-11
-4.16594e-11
1.27353e-11
1.43717e-11
-4.81046e-11
1.51518e-11
1.54088e-11
-5.48683e-11
1.77715e-11
1.62911e-11
-6.18481e-11
2.0512e-11
1.69816e-11
-6.88641e-11
2.32275e-11
1.74656e-11
-7.56421e-11
2.57147e-11
1.7798e-11
-8.17998e-11
2.77506e-11
1.80929e-11
-8.68099e-11
2.91572e-11
-9.01498e-11
3.00154e-11
2.45659e-12
8.54341e-13
-3.05829e-12
4.65163e-12
2.50835e-12
-8.93459e-12
6.63824e-12
4.10065e-12
-1.44635e-11
8.45974e-12
5.71848e-12
-1.98857e-11
1.01512e-11
7.43462e-12
-2.53943e-11
1.17404e-11
9.30925e-12
-3.11407e-11
1.32487e-11
1.13887e-11
-3.72356e-11
1.46923e-11
1.37011e-11
-4.37492e-11
1.6085e-11
1.62484e-11
-5.07078e-11
1.74434e-11
1.8994e-11
-5.80878e-11
1.87979e-11
2.18444e-11
-6.58076e-11
2.02153e-11
2.46308e-11
-7.37204e-11