/*--------------------------------*- C++ -*----------------------------------*\
| =========                 |                                                 |
| \\      /  F ield         | OpenFOAM: The Open Source CFD Toolbox           |
|  \\    /   O peration     | Version:  v1912                                 |
|   \\  /    A nd           | Website:  www.openfoam.com                      |
|    \\/     M anipulation  |                                                 |
\*---------------------------------------------------------------------------*/
FoamFile
{
    version     2.0;
    format      ascii;
    class       volScalarField;
    location    "0.46/fluid";
    object      p;
}
// * * * * * * * * * * * * * * * * * * * * * * * * * * * * * * * * * * * * * //

dimensions      [0 2 -2 0 0 0 0];


internalField   nonuniform List<scalar> 
14592
(
0.0599293
0.0543566
0.0524975
0.0509259
0.0499864
0.0492117
0.04856
0.0479773
0.0474181
0.0469566
0.0464478
0.0461862
0.0456365
0.0459007
0.0450689
0.0472738
0.0557188
0.0539876
0.0523343
0.0510037
0.0500708
0.0492941
0.0486315
0.0480465
0.0474915
0.047044
0.0465556
0.046338
0.0458323
0.0462583
0.0454333
0.0486543
0.0537681
0.0531494
0.0519231
0.0509258
0.0500568
0.0493056
0.0486361
0.0480453
0.0474878
0.0470475
0.0465783
0.0464083
0.0459622
0.0465539
0.0457938
0.0496479
0.0525685
0.0524027
0.0515342
0.0507663
0.0499815
0.0492668
0.0485993
0.0480033
0.0474387
0.0469977
0.0465364
0.046401
0.0460051
0.046735
0.0460931
0.0502804
0.0518552
0.0518141
0.0511646
0.0505451
0.0498353
0.0491554
0.0484906
0.047882
0.0472939
0.0468234
0.0463265
0.0461612
0.0457278
0.0464818
0.0458418
0.0502756
0.051373
0.0513726
0.0508612
0.0503323
0.0496774
0.0490225
0.0483583
0.0477359
0.0471245
0.0466267
0.0461038
0.045931
0.0455112
0.0463882
0.0459072
0.0508182
0.05106
0.0510695
0.0506286
0.0501449
0.0495169
0.0488666
0.0481863
0.0475287
0.0468626
0.0462838
0.0456472
0.0453093
0.0446453
0.0452127
0.0441813
0.0491098
0.0508713
0.0508839
0.0504721
0.0500042
0.0493815
0.0487225
0.0480204
0.0473278
0.0466159
0.0459776
0.0452787
0.0448784
0.044191
0.0449147
0.044144
0.0513887
0.0598222
0.0542515
0.0524291
0.0508985
0.0500127
0.0492979
0.0487147
0.0482103
0.0477417
0.0473825
0.0469945
0.0468368
0.0464258
0.046588
0.0458621
0.0466575
0.0556118
0.0538807
0.0522649
0.050976
0.0500978
0.0493818
0.0487885
0.0482827
0.0478192
0.0474749
0.0471073
0.0469894
0.0466118
0.0468768
0.0461113
0.0473518
0.0536577
0.0530376
0.0518481
0.0508924
0.0500785
0.0493885
0.0487884
0.0482768
0.0478103
0.0474727
0.0471216
0.0470478
0.0467179
0.0471164
0.0463756
0.0479546
0.0524559
0.0522883
0.0514557
0.0507285
0.0499983
0.0493442
0.0487452
0.0482275
0.0477526
0.0474134
0.0470677
0.0470273
0.046739
0.047261
0.0466038
0.0483952
0.0517397
0.0516966
0.0510821
0.0505021
0.0498453
0.0492244
0.0486259
0.0480927
0.04759
0.0472165
0.0468268
0.0467492
0.0464039
0.0469376
0.0462291
0.0482135
0.0512546
0.0512522
0.050775
0.0502844
0.049681
0.0490831
0.0484826
0.0479326
0.0474026
0.0469982
0.0465766
0.046492
0.046151
0.046824
0.0462432
0.0486977
0.050938
0.0509456
0.050538
0.0500913
0.0495126
0.0489165
0.048296
0.0477053
0.0471122
0.0466163
0.0460628
0.0457953
0.0451637
0.0455118
0.0442375
0.0467296
0.0507452
0.0507561
0.050377
0.049945
0.0493696
0.0487622
0.0481163
0.0474859
0.046841
0.0462795
0.0456555
0.0453285
0.0446683
0.0452408
0.0442017
0.0491376
0.0597544
0.0541852
0.0523911
0.0508944
0.050055
0.0493949
0.0488784
0.0484552
0.0480901
0.0478612
0.047657
0.0477246
0.0476959
0.0482284
0.0483647
0.0493045
0.0555441
0.0538131
0.0522264
0.0509721
0.0501411
0.0494807
0.0489551
0.0485318
0.0481735
0.0479619
0.0477813
0.0478919
0.0479031
0.0485335
0.0486724
0.0499518
0.0535868
0.0529656
0.0518044
0.0508832
0.0501168
0.0494829
0.0489506
0.0485216
0.0481601
0.0479554
0.0477909
0.0479474
0.0480088
0.0487788
0.0489803
0.0505671
0.0523825
0.0522136
0.0514084
0.050715
0.0500316
0.049433
0.0489012
0.0484654
0.0480943
0.0478876
0.0477274
0.0479196
0.0480235
0.048926
0.0492223
0.0510168
0.0516631
0.0516186
0.0510304
0.050483
0.0498718
0.0493049
0.0487713
0.0483173
0.0479142
0.0476686
0.0474562
0.0476055
0.0476363
0.048547
0.0487582
0.0507386
0.0511749
0.051171
0.0507194
0.0502603
0.0497008
0.049155
0.0486168
0.0481426
0.0477075
0.0474261
0.0471733
0.047311
0.047328
0.0483807
0.0486708
0.0511231
0.0508544
0.0508607
0.0504779
0.0500613
0.0495246
0.0489777
0.0484153
0.0478947
0.0473873
0.0470021
0.046595
0.0465232
0.0461854
0.0468615
0.0462627
0.0487071
0.0506577
0.0506674
0.0503124
0.0499091
0.0493738
0.0488129
0.0482211
0.0476553
0.047088
0.0466268
0.0461314
0.0459832
0.0455721
0.0464614
0.0459593
0.0508795
0.0597122
0.0541439
0.052371
0.0509002
0.0500964
0.0494783
0.0490115
0.0486448
0.0483455
0.0481855
0.0480633
0.0481873
0.0482449
0.0487282
0.0489276
0.0496082
0.0555019
0.0537708
0.0522059
0.050978
0.0501834
0.0495655
0.0490901
0.0487241
0.0484323
0.0482902
0.0481916
0.0483562
0.0484492
0.0490085
0.0491949
0.0501126
0.0535416
0.0529193
0.0517792
0.0508843
0.0501545
0.0495635
0.0490815
0.0487097
0.0484138
0.0482775
0.0481918
0.0483972
0.0485297
0.0492071
0.0494333
0.050595
0.052335
0.0521647
0.0513798
0.0507121
0.0500648
0.0495086
0.0490265
0.0486471
0.0483405
0.048201
0.0481168
0.0483554
0.048522
0.0493212
0.0496195
0.0509636
0.0516124
0.0515664
0.0509978
0.0504752
0.049899
0.0493732
0.0488875
0.0484878
0.048146
0.0479642
0.0478215
0.0480121
0.0480915
0.0488901
0.0490704
0.0505884
0.0511212
0.0511159
0.0506832
0.0502478
0.0497221
0.0492158
0.0487236
0.0483015
0.0479245
0.0477041
0.0475158
0.0476934
0.0477486
0.0486917
0.0489223
0.05091
0.0507972
0.0508021
0.0504375
0.0500436
0.049539
0.0490296
0.0485103
0.0480379
0.0475831
0.0472526
0.0468989
0.0468586
0.0465338
0.0470935
0.0463671
0.0483388
0.0505969
0.0506053
0.0502679
0.0498864
0.0493817
0.0488563
0.0483048
0.0477838
0.0472644
0.0468536
0.0464049
0.0462877
0.0458794
0.0466711
0.0460101
0.05047
0.0596886
0.0541211
0.0523646
0.0509145
0.05014
0.0495573
0.0491342
0.0488194
0.0485842
0.0484972
0.0484703
0.0486867
0.0488861
0.0494448
0.0498321
0.0504473
0.0554784
0.0537473
0.0521993
0.0509926
0.0502279
0.0496461
0.0492151
0.0489019
0.0486754
0.0486078
0.0486064
0.0488646
0.0491013
0.0497301
0.0501074
0.0509144
0.0535155
0.0528925
0.0517688
0.050895
0.0501952
0.0496406
0.0492032
0.0488841
0.0486531
0.0485909
0.0486005
0.0488972
0.0491677
0.0499045
0.0503129
0.0513377
0.0523069
0.0521356
0.0513665
0.0507193
0.0501016
0.0495814
0.0491433
0.0488162
0.0485735
0.0485072
0.0485165
0.0488452
0.0491453
0.0499998
0.0504691
0.0516669
0.0515815
0.0515345
0.050981
0.050478
0.0499305
0.0494396
0.0489965
0.0486472
0.0483665
0.0482551
0.0482005
0.048477
0.0486791
0.049527
0.0498552
0.051221
0.0510876
0.0510813
0.050663
0.0502466
0.0497484
0.0492756
0.0488241
0.0484503
0.0481312
0.0479781
0.0478722
0.0481323
0.0482985
0.049288
0.0496393
0.0514715
0.0507605
0.0507644
0.0504136
0.0500377
0.0495593
0.0490815
0.0486002
0.0481726
0.0477705
0.0475009
0.0472188
0.0472508
0.047012
0.0476029
0.046934
0.0487307
0.050557
0.0505645
0.0502404
0.049876
0.0493961
0.0489004
0.0483842
0.0479046
0.0474329
0.0470772
0.0466906
0.0466381
0.0462959
0.0471133
0.0464601
0.0507381
0.0596759
0.0541089
0.0523637
0.0509282
0.0501741
0.0496158
0.0492217
0.0489394
0.0487413
0.0486908
0.0487054
0.0489461
0.0491809
0.0497174
0.0501199
0.0506744
0.0554658
0.0537346
0.0521983
0.0510066
0.0502627
0.0497055
0.0493039
0.0490236
0.0488347
0.048804
0.0488443
0.049126
0.0493964
0.0499962
0.0503838
0.0511025
0.0535009
0.0528772
0.0517649
0.0509058
0.050227
0.0496973
0.0492893
0.049003
0.0488091
0.0487828
0.048832
0.0491488
0.0494467
0.0501442
0.0505508
0.0514702
0.0522905
0.0521185
0.0513603
0.0507275
0.0501304
0.0496348
0.0492257
0.0489309
0.0487244
0.0486934
0.0487402
0.0490873
0.0494095
0.0502192
0.0506747
0.0517607
0.051563
0.0515151
0.050972
0.0504828
0.0499552
0.0494881
0.049073
0.0487549
0.0485086
0.0484304
0.0484101
0.0487021
0.0489188
0.049717
0.0500153
0.0512662
0.0510669
0.0510598
0.0506515
0.0502482
0.0497691
0.0493193
0.0488946
0.0485506
0.048264
0.0481425
0.0480677
0.0483418
0.0485162
0.0494544
0.0497597
0.0514761
0.0507373
0.0507404
0.0503992
0.0500358
0.0495755
0.0491194
0.0486632
0.0482633
0.0478909
0.0476499
0.0473938
0.0474364
0.0471951
0.0477305
0.0469867
0.0486568
0.0505314
0.0505382
0.0502231
0.0498707
0.049408
0.0489328
0.0484401
0.0479863
0.0475415
0.0472121
0.0468476
0.0468045
0.0464534
0.0472182
0.0464723
0.0506216
0.0596703
0.0541036
0.0523661
0.0509404
0.0502004
0.0496592
0.0492861
0.0490282
0.0488593
0.0488396
0.0488918
0.0491631
0.0494403
0.0499876
0.0504249
0.0509516
0.0554602
0.053729
0.0522007
0.051019
0.0502895
0.0497498
0.0493696
0.0491142
0.048955
0.048956
0.0490347
0.0493476
0.049661
0.0502695
0.0506915
0.0513677
0.0534939
0.0528699
0.0517652
0.0509162
0.0502519
0.0497398
0.0493532
0.0490919
0.0489274
0.0489323
0.0490189
0.0493653
0.0497027
0.0504036
0.0508382
0.0517062
0.0522824
0.0521099
0.051359
0.050736
0.0501532
0.049675
0.0492871
0.0490169
0.0488394
0.0488391
0.0489222
0.0492979
0.0496566
0.0504668
0.0509437
0.0519752
0.0515533
0.051505
0.0509688
0.050489
0.0499751
0.0495249
0.0491303
0.0488359
0.0486173
0.0485686
0.048582
0.0489007
0.049149
0.0499444
0.050254
0.0514485
0.0510557
0.0510481
0.0506464
0.0502521
0.0497862
0.0493526
0.0489475
0.0486262
0.0483658
0.0482722
0.0482286
0.0485276
0.0487284
0.0496616
0.0499666
0.0516257
0.0507244
0.050727
0.0503921
0.0500372
0.0495894
0.0491486
0.0487107
0.0483319
0.0479834
0.0477679
0.0475388
0.047603
0.0473798
0.0479053
0.0471403
0.0487443
0.0505167
0.0505231
0.0502141
0.0498697
0.0494188
0.0489579
0.0484822
0.0480479
0.0476248
0.0473185
0.0469772
0.0469529
0.0466129
0.0473654
0.0465823
0.0506632
0.0596678
0.0541019
0.0523673
0.0509467
0.050213
0.0496796
0.0493157
0.0490677
0.0489098
0.0489002
0.0489631
0.0492391
0.0495231
0.0500623
0.0505012
0.0510171
0.0554582
0.0537267
0.0522021
0.0510253
0.0503023
0.0497705
0.0493995
0.0491539
0.0490058
0.0490165
0.0491056
0.0494221
0.0497412
0.0503392
0.050762
0.0514221
0.053491
0.0528668
0.0517657
0.0509213
0.0502637
0.0497594
0.049382
0.0491304
0.0489765
0.0489908
0.0490866
0.0494352
0.0497757
0.0504627
0.0508946
0.0517433
0.052279
0.0521061
0.0513587
0.0507402
0.0501639
0.0496935
0.0493146
0.049054
0.0488868
0.0488955
0.0489872
0.0493643
0.0497244
0.0505189
0.0509895
0.0520003
0.0515491
0.0515003
0.0509675
0.050492
0.0499845
0.0495418
0.0491559
0.0488708
0.048662
0.0486218
0.048643
0.0489625
0.0492104
0.0499889
0.0502879
0.0514607
0.0510506
0.0510427
0.0506442
0.050254
0.0497942
0.0493678
0.048971
0.0486587
0.0484076
0.0483221
0.0482854
0.0485849
0.0487835
0.0496988
0.0499877
0.0516238
0.0507185
0.0507208
0.0503889
0.0500379
0.0495959
0.0491619
0.0487319
0.0483615
0.0480216
0.0478136
0.0475906
0.0476549
0.0474275
0.0479345
0.0471468
0.0487242
0.0505099
0.050516
0.0502099
0.0498693
0.0494238
0.0489694
0.0485011
0.0480746
0.0476594
0.04736
0.0470238
0.0469992
0.0466531
0.047386
0.0465732
0.0506222
0.0693959
0.0586969
0.0551047
0.0521516
0.0504152
0.0490056
0.0478388
0.0467417
0.0456516
0.0445316
0.0433036
0.0419948
0.0404564
0.0388236
0.0368183
0.034807
0.0651047
0.0579165
0.0546985
0.0520393
0.0503699
0.0489976
0.0478437
0.0467556
0.0456744
0.0445633
0.0433449
0.0420488
0.0405245
0.0389094
0.036918
0.034917
0.063128
0.0569038
0.0540938
0.0517676
0.0502215
0.0489252
0.0478014
0.0467308
0.0456603
0.044558
0.0433504
0.0420676
0.0405627
0.038969
0.0370037
0.0350224
0.061871
0.0560851
0.0536107
0.0515134
0.0500793
0.0488476
0.0477512
0.0466942
0.0456293
0.0445301
0.0433272
0.0420508
0.0405586
0.03898
0.0370367
0.0350746
0.0611235
0.0554703
0.0531994
0.0512518
0.0499103
0.0487359
0.0476672
0.0466229
0.0455618
0.0444622
0.0432594
0.0419836
0.040499
0.0389302
0.0370104
0.035072
0.0606245
0.0550224
0.0528835
0.0510301
0.0497554
0.0486227
0.047575
0.0465389
0.0454789
0.0443763
0.0431719
0.0418949
0.0404185
0.0388604
0.0369702
0.0350611
0.0603113
0.0547253
0.0526562
0.0508538
0.0496183
0.0485095
0.0474725
0.0464372
0.0453722
0.0442605
0.043048
0.0417619
0.0402873
0.0387325
0.0368736
0.0349965
0.0601344
0.0545537
0.052515
0.0507339
0.0495143
0.048413
0.0473771
0.0463366
0.0452632
0.0441411
0.0429216
0.0416286
0.0401611
0.0386153
0.0367969
0.0349577
0.065102
0.0579109
0.0546882
0.0520236
0.0503485
0.0489691
0.0478126
0.0467191
0.0456229
0.0444956
0.043256
0.041938
0.0403811
0.0387421
0.0367044
0.0347029
0.0608675
0.0574618
0.0544235
0.051995
0.0503503
0.0489872
0.0478321
0.0467402
0.0456442
0.0445187
0.0432822
0.0419699
0.0404209
0.0387933
0.0367694
0.0347817
0.0588887
0.0565338
0.0538865
0.0517839
0.0502392
0.0489355
0.0478006
0.0467196
0.0456287
0.0445081
0.0432795
0.0419775
0.0404457
0.0388367
0.0368354
0.0348644
0.0576444
0.0557298
0.0534292
0.0515563
0.0501168
0.0488715
0.0477589
0.0466875
0.0455999
0.0444812
0.0432566
0.0419608
0.0404415
0.0388474
0.036868
0.0349161
0.0569026
0.055111
0.0530239
0.0513028
0.0499547
0.048765
0.0476783
0.0466185
0.0455345
0.0444154
0.0431914
0.0418966
0.0403858
0.0388019
0.0368465
0.0349178
0.0564064
0.0546577
0.0527089
0.0510839
0.049803
0.0486547
0.0475886
0.0465372
0.045455
0.044334
0.0431098
0.0418154
0.0403151
0.0387438
0.0368206
0.0349212
0.0560945
0.0543576
0.0524818
0.0509089
0.0496678
0.0485435
0.0474878
0.0464376
0.0453514
0.0442221
0.0429911
0.0416888
0.040192
0.0386249
0.0367359
0.0348679
0.0559182
0.054185
0.0523411
0.0507904
0.0495657
0.0484496
0.0473943
0.0463391
0.0452466
0.0441084
0.0428723
0.0415656
0.0400793
0.038524
0.0366804
0.0348506
0.0631383
0.0569121
0.0541049
0.0517819
0.050242
0.0489549
0.0478475
0.0467904
0.0457213
0.0446221
0.0433997
0.0421039
0.0405251
0.038878
0.0366914
0.0346153
0.0589038
0.0565504
0.0539125
0.0518199
0.0502886
0.0490032
0.0478881
0.0468272
0.0457558
0.0446576
0.0434389
0.0421498
0.0405799
0.038946
0.0367707
0.0347084
0.0569302
0.0556868
0.0534545
0.051689
0.0502336
0.0489873
0.0478787
0.0468202
0.0457493
0.0446537
0.0434422
0.0421635
0.0406115
0.0389955
0.036839
0.0347865
0.0557012
0.0549102
0.0530348
0.0515006
0.0501405
0.048943
0.047849
0.0467952
0.0457244
0.044629
0.0434211
0.0421488
0.0406107
0.0390109
0.0368767
0.0348438
0.0549691
0.0543026
0.0526481
0.0512671
0.0499938
0.0488464
0.0477733
0.0467274
0.0456571
0.0445587
0.0433495
0.0420764
0.040546
0.0389556
0.0368479
0.0348404
0.0544783
0.0538529
0.0523401
0.051056
0.0498483
0.0487394
0.0476841
0.0466444
0.0455738
0.0444718
0.0432614
0.0419882
0.0404701
0.038895
0.0368288
0.034858
0.0541687
0.0535535
0.0521153
0.0508835
0.0497146
0.0486273
0.0475801
0.0465393
0.0454618
0.0443479
0.0431271
0.0418413
0.0403247
0.0387504
0.0367289
0.0347962
0.0539925
0.0533803
0.0519747
0.050765
0.0496117
0.0485306
0.0474824
0.0464353
0.0453491
0.0442238
0.0429963
0.041704
0.0402006
0.0386408
0.0366828
0.0348004
0.0618936
0.0561061
0.0536465
0.0515669
0.0501586
0.0489598
0.0479056
0.0468923
0.0458595
0.0448002
0.0436043
0.0423447
0.0407385
0.0390902
0.0366751
0.0345025
0.0576726
0.0557596
0.0534817
0.0516342
0.0502284
0.0490256
0.0479584
0.0469378
0.0459016
0.0448433
0.0436518
0.0424011
0.0408066
0.0391774
0.0367758
0.0346196
0.0557138
0.0549224
0.0530605
0.0515421
0.050203
0.0490304
0.0479617
0.0469384
0.0459001
0.0448432
0.0436592
0.0424198
0.0408443
0.0392331
0.0368412
0.0346809
0.054499
0.0541628
0.0526605
0.0513738
0.0501253
0.0489964
0.047938
0.0469161
0.0458759
0.0448181
0.0436377
0.0424057
0.0408458
0.0392532
0.0368828
0.0347412
0.0537766
0.0535656
0.0522852
0.0511518
0.0499872
0.0489046
0.0478635
0.0468462
0.0458037
0.0447402
0.043556
0.0423205
0.0407666
0.0391815
0.0368397
0.0347262
0.0532914
0.053121
0.0519825
0.0509455
0.0498447
0.0487985
0.0477728
0.0467594
0.0457143
0.0446452
0.0434586
0.0422224
0.0406837
0.0391179
0.0368316
0.0347668
0.0529841
0.0528236
0.0517594
0.0507741
0.0497107
0.0486841
0.0476641
0.0466463
0.0455906
0.0445047
0.0433025
0.0420462
0.0405047
0.0389328
0.0367062
0.0346886
0.0528079
0.0526501
0.0516184
0.0506546
0.0496058
0.0485839
0.0475611
0.0465346
0.0454675
0.044367
0.0431559
0.0418907
0.0403668
0.0388141
0.0366806
0.0347358
0.0611577
0.0555042
0.0532673
0.0513617
0.0500796
0.048978
0.0479981
0.0470547
0.0460885
0.0451068
0.0439793
0.042812
0.0412213
0.039634
0.0369256
0.0346282
0.0569428
0.055153
0.0531086
0.0514381
0.0501585
0.0490518
0.0480576
0.047107
0.0461382
0.0451595
0.0440391
0.0428856
0.0413122
0.0397555
0.0370628
0.0347789
0.0549928
0.0543254
0.0527044
0.0513651
0.0501488
0.0490682
0.0480684
0.0471125
0.0461406
0.0451633
0.0440519
0.0429125
0.0413608
0.0398235
0.0371242
0.0348108
0.0537877
0.0535761
0.0523157
0.0512083
0.0500801
0.0490401
0.0480474
0.0470905
0.0461153
0.0451365
0.0440291
0.0428993
0.0413663
0.0398532
0.0371747
0.0348803
0.0530725
0.0529865
0.0519485
0.050994
0.0499471
0.0489504
0.0479715
0.0470155
0.0460342
0.0450459
0.0439309
0.0427936
0.0412636
0.0397564
0.03711
0.0348523
0.0525916
0.0525462
0.0516497
0.0507907
0.0498057
0.0488431
0.0478767
0.0469211
0.045934
0.0449365
0.0438166
0.0426769
0.0411652
0.0396848
0.0371166
0.0349342
0.0522858
0.0522501
0.0514275
0.0506192
0.0496695
0.048724
0.0477598
0.0467948
0.0457908
0.0447683
0.0436227
0.0424491
0.0409234
0.0394217
0.0369326
0.034816
0.0521086
0.0520757
0.0512851
0.0504973
0.0495605
0.0486176
0.0476478
0.0466699
0.0456496
0.0446063
0.0434462
0.0422569
0.0407508
0.0392733
0.0369211
0.0349279
0.0606566
0.055055
0.0529736
0.051192
0.0500178
0.049006
0.0481036
0.0472366
0.0463454
0.0454514
0.044401
0.043336
0.0417501
0.0402135
0.0370537
0.0345439
0.0564442
0.0546969
0.0528146
0.0512703
0.0500998
0.049083
0.0481666
0.047293
0.0464006
0.0455117
0.0444713
0.0434262
0.0418644
0.0403732
0.0372126
0.0346569
0.054498
0.0538701
0.0524143
0.0512025
0.0500948
0.0491027
0.0481793
0.0472995
0.0464036
0.045517
0.0444873
0.04346
0.041921
0.0404466
0.0372326
0.034565
0.053298
0.0531251
0.0520297
0.0510494
0.0500283
0.0490753
0.0481571
0.0472749
0.0463746
0.0454861
0.0444611
0.043446
0.0419281
0.0404834
0.0372789
0.0346152
0.0525867
0.0525392
0.0516657
0.0508372
0.0498958
0.0489838
0.0480763
0.0471916
0.0462815
0.0453793
0.0443417
0.0433138
0.0417934
0.0403514
0.0371809
0.0345671
0.052108
0.052101
0.0513682
0.0506341
0.0497528
0.0488728
0.047975
0.0470876
0.0461683
0.0452534
0.044208
0.0431769
0.0416795
0.0402782
0.0372229
0.0347358
0.0518021
0.051805
0.0511453
0.0504606
0.0496127
0.0487473
0.0478476
0.0469456
0.0460024
0.0450526
0.0439691
0.0428861
0.0413581
0.0399148
0.0369705
0.0345902
0.0516232
0.0516289
0.0510006
0.0503355
0.0494988
0.0486337
0.0477251
0.0468058
0.0458412
0.0448641
0.0437607
0.0426572
0.0411568
0.0397589
0.0370349
0.0349046
0.060322
0.0547384
0.0527583
0.0510666
0.0499846
0.0490598
0.0482441
0.0474718
0.0466866
0.0459291
0.0450343
0.0441972
0.0428107
0.041621
0.0382829
0.0358222
0.0561109
0.0543753
0.0525978
0.0511452
0.0500678
0.0491389
0.0483103
0.0475329
0.0467484
0.0459993
0.0451188
0.0443105
0.0429575
0.0418367
0.0384755
0.035864
0.054165
0.0535461
0.0521961
0.0510767
0.0500623
0.0491579
0.048322
0.0475383
0.0467507
0.0460054
0.0451384
0.0443551
0.0430307
0.0419388
0.0384851
0.0356733
0.0529671
0.0528023
0.0518121
0.0509235
0.0499949
0.0491284
0.0482964
0.0475091
0.0467163
0.0459694
0.0451083
0.0443428
0.0430464
0.0420019
0.0385536
0.0357307
0.0522569
0.0522174
0.0514482
0.0507103
0.0498597
0.0490321
0.0482079
0.0474147
0.0466076
0.0458419
0.0449616
0.0441774
0.0428708
0.0418302
0.0384177
0.0356695
0.0517785
0.0517794
0.0511501
0.0505052
0.0497132
0.0489152
0.0480975
0.0472978
0.0464769
0.0456935
0.0448005
0.0440107
0.0427289
0.0417489
0.0384933
0.0359589
0.0514713
0.0514821
0.0509251
0.050328
0.0495674
0.0487806
0.0479563
0.0471353
0.0462809
0.0454483
0.0444962
0.0436234
0.0422693
0.0411952
0.0380422
0.0356763
0.0512897
0.0513034
0.0507771
0.0501982
0.0494469
0.0486576
0.0478201
0.0469759
0.0460922
0.0452218
0.0442372
0.0433292
0.0419947
0.0409799
0.0381236
0.0362633
0.0600873
0.0545109
0.0526014
0.050977
0.0499712
0.0491235
0.0483879
0.0477038
0.0470161
0.0463769
0.0456096
0.0449349
0.0436585
0.0425984
0.0387984
0.0356843
0.0558765
0.0541443
0.0524392
0.0510551
0.0500548
0.049204
0.0484564
0.0477684
0.0470829
0.0464545
0.0457039
0.0450637
0.0438195
0.0428231
0.0388427
0.0349893
0.0539287
0.0533107
0.0520332
0.0509825
0.0500456
0.0492198
0.048465
0.0477708
0.0470823
0.0464589
0.045723
0.045112
0.043892
0.042912
0.038712
0.0342381
0.0527305
0.052566
0.0516473
0.0508267
0.0499749
0.0491861
0.0484342
0.0477356
0.0470409
0.0464158
0.0456858
0.0450964
0.0439051
0.0429789
0.0387514
0.0341452
0.0520194
0.0519799
0.0512812
0.0506102
0.0498349
0.049083
0.0483364
0.0476285
0.0469151
0.046266
0.0455092
0.0448942
0.0436803
0.0427556
0.0385601
0.0340487
0.0515396
0.0515406
0.050981
0.0504018
0.0496834
0.0489587
0.0482159
0.0474981
0.0467668
0.0460961
0.0453221
0.0447024
0.0435179
0.0426861
0.038713
0.0345257
0.0512299
0.0512408
0.0507526
0.05022
0.0495309
0.0488142
0.0480603
0.047315
0.0465409
0.0458077
0.0449541
0.0442227
0.0429217
0.0419471
0.0380694
0.0340936
0.051045
0.051059
0.0506007
0.0500851
0.0494035
0.0486813
0.0479104
0.0471367
0.0463268
0.045548
0.0446543
0.0438857
0.0426166
0.041776
0.038361
0.0352893
0.050797
0.050811
0.0503918
0.0499113
0.0492688
0.0485808
0.0478386
0.0470879
0.0462958
0.0455301
0.044644
0.0438782
0.042602
0.0417477
0.0382905
0.0351594
0.0508424
0.050856
0.0503962
0.0498787
0.0491957
0.0484675
0.0476832
0.046882
0.0460319
0.0451868
0.0442181
0.0433181
0.0419775
0.0409485
0.0380479
0.0361419
0.0510151
0.0510199
0.0504765
0.0498932
0.0491489
0.0483652
0.0475293
0.0466693
0.0457512
0.0448092
0.0437281
0.0426362
0.0411307
0.0397176
0.0369508
0.0347786
0.0513749
0.051341
0.0506475
0.0499557
0.0491315
0.048288
0.0474055
0.0464999
0.0455368
0.0445366
0.0434049
0.0422313
0.0407233
0.0392329
0.0368441
0.0348135
0.051976
0.051817
0.0508918
0.0500351
0.0491123
0.0482052
0.0472819
0.0463372
0.0453355
0.0442846
0.0431065
0.0418603
0.0403376
0.0387743
0.0366101
0.0346319
0.0530937
0.0524818
0.0511906
0.0500973
0.0490799
0.0481237
0.0471838
0.0462243
0.0452086
0.0441367
0.0429451
0.0416739
0.040174
0.0386053
0.0366209
0.0347077
0.0549727
0.0532427
0.05152
0.0500919
0.0490091
0.0480207
0.0470801
0.0461195
0.0451007
0.0440186
0.0428205
0.0415361
0.040055
0.0384923
0.0366256
0.0347672
0.0591885
0.0536202
0.0517051
0.0500467
0.0489681
0.0479917
0.0470689
0.0461243
0.0451249
0.044058
0.0428756
0.0416042
0.0401412
0.0385874
0.0367457
0.0348772
0.0506664
0.0506787
0.0502914
0.0498457
0.0492483
0.0486087
0.0479179
0.0472225
0.0464869
0.0457833
0.0449484
0.0442277
0.0429178
0.0419244
0.0379723
0.0339016
0.0507072
0.0507193
0.0502909
0.0498071
0.0491673
0.0484849
0.0477482
0.046997
0.0461969
0.0454057
0.0444802
0.0436226
0.0422601
0.0411657
0.0379379
0.0354975
0.0508752
0.0508787
0.0503662
0.0498157
0.0491125
0.0483718
0.0475794
0.0467635
0.0458873
0.0449882
0.0439373
0.0428721
0.0413365
0.0398716
0.0368595
0.0344156
0.0512306
0.0511955
0.0505325
0.0498731
0.0490889
0.0482858
0.0474438
0.0465781
0.0456519
0.0446882
0.0435813
0.0424296
0.0409007
0.0393809
0.0368361
0.0346643
0.0518278
0.0516678
0.0507727
0.0499476
0.0490637
0.0481951
0.0473094
0.0464007
0.0454311
0.0444104
0.0432518
0.0420208
0.0404806
0.0388943
0.0366231
0.0345582
0.0529427
0.0523301
0.0510689
0.0500069
0.0490275
0.0481089
0.0472051
0.0462791
0.0452931
0.0442483
0.0430743
0.0418162
0.0403043
0.0387185
0.0366603
0.0346853
0.0548203
0.0530906
0.0513979
0.0500005
0.0489546
0.0480019
0.0470959
0.0461674
0.0451765
0.0441192
0.0429372
0.0416643
0.0401748
0.0385986
0.0366788
0.0347726
0.0590364
0.0534701
0.051585
0.0499573
0.0489156
0.0479746
0.0470868
0.0461757
0.0452052
0.0441647
0.0430004
0.0417428
0.0402749
0.0387104
0.0368208
0.0349047
0.0505745
0.0505855
0.0502217
0.0498036
0.049244
0.0486475
0.0480057
0.0473671
0.0466964
0.0460733
0.0453306
0.044731
0.0435339
0.0426728
0.0385688
0.0342108
0.0506111
0.0506221
0.0502165
0.0497589
0.0491551
0.048513
0.0478209
0.0471202
0.0463755
0.0456512
0.0447968
0.0440308
0.0427367
0.0417265
0.0383462
0.0356841
0.0507748
0.0507773
0.0502872
0.049762
0.0490924
0.048389
0.0476368
0.0468645
0.0460339
0.0451867
0.0441852
0.0431791
0.0416701
0.0402375
0.0370754
0.0344885
0.0511263
0.0510903
0.0504491
0.0498147
0.0490626
0.0482942
0.047489
0.0466618
0.0457742
0.0448524
0.0437826
0.0426721
0.0411554
0.0396498
0.0369982
0.0347343
0.0517201
0.0515594
0.0506857
0.0498846
0.0490319
0.0481959
0.0473437
0.0464689
0.0455321
0.0445449
0.0434135
0.04221
0.0406726
0.0390878
0.0367379
0.034607
0.0528326
0.0522195
0.0509797
0.0499413
0.0489919
0.048105
0.047233
0.046338
0.0453813
0.0443653
0.0432136
0.0419759
0.0404641
0.0388748
0.036759
0.0347316
0.054709
0.0529795
0.0513081
0.0499339
0.048917
0.0479941
0.0471182
0.046219
0.0452549
0.0442231
0.0430602
0.0418035
0.0403131
0.0387317
0.0367688
0.0348201
0.0589253
0.0533605
0.0514969
0.0498924
0.0488799
0.0479681
0.0471108
0.0462302
0.0452873
0.0442732
0.0431292
0.041889
0.0404224
0.0388536
0.0369244
0.0349653
0.0505098
0.0505196
0.0501726
0.0497754
0.0492448
0.0486814
0.0480764
0.047478
0.0468485
0.0462676
0.0455583
0.0449785
0.0437518
0.0427907
0.0383862
0.0335893
0.0505427
0.0505526
0.0501634
0.0497256
0.0491495
0.0485384
0.0478802
0.0472159
0.0465076
0.0458203
0.0449935
0.0442459
0.0429258
0.0418481
0.0382457
0.035298
0.0507028
0.0507043
0.0502304
0.049724
0.0490804
0.048406
0.0476846
0.0469446
0.0461452
0.0453285
0.0443477
0.0433548
0.0418201
0.0403381
0.0370107
0.0342505
0.051051
0.0510142
0.0503886
0.0497729
0.0490457
0.0483043
0.0475278
0.0467298
0.0458697
0.0449744
0.0439219
0.0428229
0.0412873
0.0397491
0.0369857
0.0346148
0.051642
0.0514806
0.0506223
0.0498392
0.0490105
0.0482001
0.0473742
0.0465257
0.0456133
0.0446488
0.0435319
0.0423379
0.0407861
0.0391783
0.036751
0.0345497
0.0527525
0.052139
0.0509145
0.0498938
0.0489675
0.0481056
0.047259
0.0463884
0.0454543
0.044459
0.0433209
0.0420921
0.0405705
0.0389642
0.0367928
0.0347128
0.054628
0.0528985
0.0512425
0.0498857
0.0488912
0.0479918
0.04714
0.0462644
0.0453216
0.0443091
0.043159
0.041911
0.040414
0.0388199
0.0368158
0.0348259
0.0588446
0.0532808
0.0514327
0.0498457
0.0488558
0.0479672
0.0471344
0.0462786
0.0453579
0.0443644
0.0432348
0.0420052
0.0405345
0.0389552
0.0369881
0.0349878
0.0504665
0.0504755
0.0501412
0.0497602
0.0492529
0.0487171
0.0481441
0.0475825
0.0469939
0.0464592
0.045797
0.0452641
0.0440627
0.04309
0.0385245
0.0334178
0.0504963
0.0505055
0.0501285
0.049706
0.0491519
0.0485664
0.0479374
0.0473059
0.046633
0.0459847
0.0451952
0.0444844
0.0431762
0.0420872
0.0383505
0.035206
0.0506533
0.0506542
0.0501922
0.0497003
0.0490771
0.0484264
0.0477313
0.0470201
0.0462505
0.0454656
0.0445126
0.0435458
0.0420129
0.040518
0.0370842
0.0341973
0.0509988
0.0509614
0.0503474
0.0497459
0.049038
0.0483186
0.047566
0.0467936
0.0459592
0.0450903
0.0440596
0.0429802
0.0414432
0.039894
0.0370548
0.0346019
0.0515875
0.0514257
0.0505786
0.049809
0.048999
0.048209
0.0474049
0.0465792
0.0456889
0.0447465
0.0436468
0.0424674
0.0409131
0.0392958
0.036814
0.0345567
0.0526964
0.0520826
0.0508692
0.0498618
0.0489533
0.0481113
0.0472854
0.0464356
0.0455216
0.0445458
0.0434224
0.0422055
0.0406816
0.0390669
0.0368547
0.0347318
0.0545712
0.0528417
0.0511968
0.049853
0.0488756
0.0479948
0.0471627
0.0463068
0.0453826
0.0443878
0.0432509
0.0420131
0.0405146
0.0389134
0.0368783
0.0348542
0.0587878
0.0532249
0.051388
0.0498142
0.0488416
0.0479712
0.0471583
0.0463232
0.0454217
0.0444467
0.0433313
0.0421129
0.0406421
0.0390567
0.0370606
0.0350259
0.0504383
0.0504466
0.050121
0.0497514
0.0492602
0.0487435
0.048192
0.0476537
0.0470888
0.0465766
0.045931
0.0454037
0.044181
0.0431487
0.0384285
0.0330901
0.0504657
0.0504743
0.0501056
0.0496938
0.0491551
0.0485874
0.0479782
0.047368
0.046716
0.0460877
0.0453117
0.0446061
0.0432782
0.0421441
0.0382875
0.034995
0.0506204
0.0506207
0.0501669
0.0496852
0.0490762
0.0484421
0.0477652
0.0470729
0.0463216
0.0455538
0.0446116
0.0436493
0.0420993
0.0405712
0.0370476
0.0340628
0.0509637
0.0509259
0.0503198
0.0497284
0.0490342
0.0483301
0.0475943
0.0468391
0.046021
0.0451672
0.0441459
0.0430708
0.0415208
0.0399482
0.0370457
0.0345282
0.0515508
0.0513885
0.0505492
0.0497891
0.0489924
0.0482169
0.0474282
0.0466182
0.0457425
0.0448135
0.0437221
0.0425469
0.0409833
0.0393496
0.0368231
0.0345211
0.0526585
0.0520444
0.0508387
0.0498407
0.0489448
0.0481171
0.047306
0.0464707
0.0455704
0.0446071
0.0434917
0.0422794
0.040749
0.039122
0.0368765
0.0347193
0.0545327
0.0528032
0.0511659
0.0498313
0.0488661
0.0479988
0.0471807
0.046339
0.0454278
0.0444449
0.0433158
0.0420829
0.0405801
0.0389698
0.0369093
0.0348577
0.0587494
0.0531871
0.0513579
0.0497934
0.0488332
0.047976
0.0471775
0.0463574
0.0454695
0.0445071
0.0434007
0.0421883
0.0407146
0.0391213
0.0371013
0.0350391
0.0504218
0.0504297
0.0501098
0.0497479
0.0492678
0.0487643
0.0482284
0.0477076
0.0471615
0.0466692
0.0460417
0.0455283
0.0443054
0.0432498
0.0384431
0.03295
0.0504475
0.0504557
0.0500926
0.0496879
0.0491596
0.0486042
0.0480092
0.0474147
0.0467792
0.046168
0.0454066
0.0447121
0.0433813
0.0422286
0.0383026
0.0349134
0.0506006
0.0506007
0.0501521
0.0496772
0.0490779
0.0484552
0.047791
0.0471127
0.0463755
0.0456222
0.0446915
0.0437377
0.0421837
0.0406413
0.0370649
0.0340151
0.0509426
0.0509045
0.0503035
0.0497187
0.0490336
0.04834
0.0476159
0.0468731
0.0460674
0.0452259
0.044214
0.0431457
0.0415921
0.0400087
0.0370684
0.0345077
0.0515284
0.051366
0.0505316
0.0497777
0.0489898
0.0482241
0.0474461
0.0466472
0.0457825
0.044864
0.0437805
0.0426109
0.0410444
0.039403
0.0368492
0.0345171
0.0526353
0.0520211
0.0508202
0.0498284
0.0489408
0.0481227
0.0473217
0.0464968
0.0456064
0.0446526
0.0435442
0.0423369
0.0408043
0.0391712
0.036905
0.0347245
0.054509
0.0527796
0.0511472
0.0498186
0.0488614
0.048003
0.0471946
0.0463627
0.0454608
0.0444868
0.0433642
0.0421359
0.0406318
0.0390166
0.0369401
0.0348698
0.0587259
0.0531639
0.0513398
0.0497813
0.0488292
0.0479808
0.0471921
0.0463823
0.0455041
0.0445509
0.0434515
0.0422443
0.04077
0.0391724
0.0371372
0.0350563