/*--------------------------------*- C++ -*----------------------------------*\
| =========                 |                                                 |
| \\      /  F ield         | OpenFOAM: The Open Source CFD Toolbox           |
|  \\    /   O peration     | Version:  v1912                                 |
|   \\  /    A nd           | Website:  www.openfoam.com                      |
|    \\/     M anipulation  |                                                 |
\*---------------------------------------------------------------------------*/
FoamFile
{
    version     2.0;
    format      ascii;
    class       surfaceScalarField;
    location    "0.46/fluid";
    object      phi;
}
// * * * * * * * * * * * * * * * * * * * * * * * * * * * * * * * * * * * * * //

dimensions      [0 3 -1 0 0 0 0];
oriented        oriented;


internalField   nonuniform List<scalar> 
41600
(
5.04636e-05
1.22376e-05
3.55462e-07
-5.56658e-07
4.12799e-05
9.52268e-06
4.76623e-07
-8.15616e-07
3.50383e-05
6.58405e-06
2.40996e-07
-5.83498e-07
3.15596e-05
3.7624e-06
-1.85955e-07
-9.77058e-08
2.96384e-05
2.12506e-06
-7.56546e-07
5.52714e-07
2.85063e-05
1.25825e-06
-1.4543e-06
1.32815e-06
2.76887e-05
8.73494e-07
-2.30583e-06
2.24997e-06
2.69442e-05
7.29671e-07
-3.35683e-06
3.37159e-06
2.6142e-05
7.07615e-07
-4.67504e-06
4.76967e-06
2.51909e-05
7.324e-07
-6.35932e-06
6.57802e-06
2.40091e-05
7.69876e-07
-8.56183e-06
8.97368e-06
2.24408e-05
7.38213e-07
-1.14478e-05
1.22779e-05
2.02381e-05
6.43195e-07
-1.54278e-05
1.69873e-05
1.67242e-05
1.48115e-07
-2.03172e-05
2.3683e-05
1.05565e-05
-3.07346e-07
-2.62279e-05
3.2703e-05
-2.82488e-06
-2.20155e-05
3.53969e-05
6.50946e-05
9.91708e-06
4.38328e-07
-7.12377e-07
6.44775e-05
1.06275e-05
5.6539e-07
-1.05312e-06
6.29152e-05
8.67582e-06
2.09896e-07
-7.39346e-07
6.11889e-05
5.95767e-06
-4.56169e-07
-1.28145e-08
5.96737e-05
3.99984e-06
-1.37212e-06
1.01253e-06
5.83667e-05
2.80552e-06
-2.51931e-06
2.27908e-06
5.71386e-05
2.22818e-06
-3.93783e-06
3.81127e-06
5.58439e-05
2.03776e-06
-5.7035e-06
5.69008e-06
5.43506e-05
2.08956e-06
-7.92929e-06
8.04059e-06
5.25061e-05
2.2838e-06
-1.07813e-05
1.10744e-05
5.01372e-05
2.56388e-06
-1.45057e-05
1.50807e-05
4.6876e-05
2.83701e-06
-1.93974e-05
2.05597e-05
4.22236e-05
3.0827e-06
-2.60373e-05
2.82502e-05
3.46667e-05
2.94081e-06
-3.42574e-05
3.90215e-05
2.25815e-05
2.51776e-06
-4.34207e-05
5.26808e-05
-4.97707e-07
-3.59183e-05
5.61726e-05
6.62455e-05
6.46108e-06
4.5486e-07
-7.44333e-07
6.84843e-05
8.91139e-06
5.76622e-07
-1.09939e-06
6.94169e-05
8.31734e-06
1.92422e-07
-7.66491e-07
6.93312e-05
6.55792e-06
-5.18758e-07
4.18882e-09
6.87305e-05
5.00081e-06
-1.49715e-06
1.09685e-06
6.78586e-05
3.9501e-06
-2.72816e-06
2.45547e-06
6.67978e-05
3.43862e-06
-4.2558e-06
4.10615e-06
6.55182e-05
3.34454e-06
-6.16258e-06
6.13544e-06
6.39335e-05
3.56661e-06
-8.57004e-06
8.67763e-06
6.18903e-05
4.02509e-06
-1.166e-05
1.1962e-05
5.91761e-05
4.67318e-06
-1.5697e-05
1.6302e-05
5.53435e-05
5.43459e-06
-2.10155e-05
2.22505e-05
4.97666e-05
6.28393e-06
-2.8226e-05
3.06016e-05
4.06891e-05
6.85739e-06
-3.72223e-05
4.23833e-05
2.62684e-05
6.81032e-06
-4.72288e-05
5.73569e-05
3.153e-06
-3.94009e-05
6.20186e-05
6.50195e-05
4.2321e-06
4.6826e-07
-7.5882e-07
6.75669e-05
6.89299e-06
6.02079e-07
-1.13102e-06
6.93169e-05
7.14875e-06
2.23733e-07
-8.05155e-07
7.01059e-05
6.29029e-06
-4.80308e-07
-4.10414e-08
7.02048e-05
5.30822e-06
-1.44825e-06
1.04191e-06
6.98281e-05
4.60495e-06
-2.66535e-06
2.38719e-06
6.91024e-05
4.31905e-06
-4.17446e-06
4.01975e-06
6.80493e-05
4.4296e-06
-6.05722e-06
6.02526e-06
6.66177e-05
4.89508e-06
-8.43289e-06
8.53596e-06
6.4666e-05
5.67879e-06
-1.1485e-05
1.1783e-05
6.19704e-05
6.76488e-06
-1.54752e-05
1.60792e-05
5.80453e-05
8.11625e-06
-2.07555e-05
2.19989e-05
5.2195e-05
9.7246e-06
-2.79332e-05
3.03428e-05
4.2568e-05
1.12091e-05
-3.69817e-05
4.22571e-05
2.71558e-05
1.18159e-05
-4.71311e-05
5.75377e-05
6.99801e-06
-3.9586e-05
6.28967e-05
6.4148e-05
2.87296e-06
4.89229e-07
-7.7806e-07
6.63754e-05
5.19365e-06
6.49842e-07
-1.17798e-06
6.82506e-05
5.85394e-06
2.95159e-07
-8.75501e-07
6.94371e-05
5.62357e-06
-3.83651e-07
-1.36157e-07
6.99883e-05
5.1621e-06
-1.31956e-06
9.14459e-07
7.00245e-05
4.84696e-06
-2.49342e-06
2.21528e-06
6.96487e-05
4.85147e-06
-3.94273e-06
3.78612e-06
6.88943e-05
5.22051e-06
-5.74374e-06
5.70715e-06
6.77302e-05
5.9645e-06
-8.00723e-06
8.10199e-06
6.60268e-05
7.0983e-06
-1.09108e-05
1.11947e-05
6.35595e-05
8.65075e-06
-1.47006e-05
1.52821e-05
5.98107e-05
1.06576e-05
-1.97366e-05
2.09439e-05
5.40079e-05
1.31716e-05
-2.65975e-05
2.89532e-05
4.41378e-05
1.58716e-05
-3.53721e-05
4.05797e-05
2.79224e-05
1.77083e-05
-4.53016e-05
5.56246e-05
1.16668e-05
-3.83623e-05
6.16159e-05
6.36963e-05
1.96373e-06
5.14555e-07
-8.0165e-07
6.562e-05
3.79636e-06
7.10029e-07
-1.23636e-06
6.7461e-05
4.59125e-06
3.88527e-07
-9.66935e-07
6.8843e-05
4.75948e-06
-2.56387e-07
-2.61492e-07
6.96916e-05
4.71734e-06
-1.15107e-06
7.47212e-07
7.0051e-05
4.76611e-06
-2.26961e-06
1.99109e-06
6.999e-05
5.07187e-06
-3.64185e-06
3.48247e-06
6.95382e-05
5.71521e-06
-5.33632e-06
5.29337e-06
6.8673e-05
6.74649e-06
-7.45234e-06
7.5356e-06
6.72721e-05
8.23565e-06
-1.01579e-05
1.04215e-05
6.51094e-05
1.0266e-05
-1.36768e-05
1.42242e-05
6.16344e-05
1.29848e-05
-1.83731e-05
1.9521e-05
5.59998e-05
1.65492e-05
-2.47782e-05
2.70352e-05
4.59917e-05
2.08319e-05
-3.31286e-05
3.81765e-05
2.90032e-05
2.46323e-05
-4.26583e-05
5.27228e-05
1.77576e-05
-3.66108e-05
5.95232e-05
6.35033e-05
1.24639e-06
5.44535e-07
-8.30493e-07
6.52613e-05
2.56348e-06
7.80949e-07
-1.30604e-06
6.70807e-05
3.34915e-06
4.99471e-07
-1.07683e-06
6.859e-05
3.76741e-06
-1.04813e-07
-4.12438e-07
6.96571e-05
4.05453e-06
-9.50558e-07
5.46302e-07
7.02851e-05
4.41902e-06
-2.00288e-06
1.72194e-06
7.05243e-05
4.99769e-06
-3.28122e-06
3.11624e-06
7.0409e-05
5.88447e-06
-4.84217e-06
4.78818e-06
6.99377e-05
7.15484e-06
-6.76712e-06
6.83011e-06
6.90212e-05
8.92706e-06
-9.20313e-06
9.42821e-06
6.74772e-05
1.13346e-05
-1.23314e-05
1.28068e-05
6.47843e-05
1.46739e-05
-1.64907e-05
1.74944e-05
6.00971e-05
1.926e-05
-2.21005e-05
2.40769e-05
5.08206e-05
2.56168e-05
-2.95416e-05
3.40332e-05
3.36404e-05
3.28359e-05
-3.7915e-05
4.68916e-05
3.01123e-05
-3.3075e-05
5.43606e-05
6.34416e-05
5.77284e-07
-8.62841e-07
5.90353e-07
6.51541e-05
8.5811e-07
-1.38295e-06
1.3758e-06
6.7005e-05
6.2036e-07
-1.19791e-06
2.0758e-06
6.86289e-05
6.0185e-08
-5.78251e-07
2.66165e-06
6.98712e-05
-7.33137e-07
3.26952e-07
3.21835e-06
7.07195e-05
-1.71495e-06
1.43015e-06
3.85558e-06
7.12186e-05
-2.89354e-06
2.72169e-06
4.67035e-06
7.14117e-05
-4.31254e-06
4.24637e-06
5.75762e-06
7.13163e-05
-6.03468e-06
6.07647e-06
7.20838e-06
7.08742e-05
-8.1839e-06
8.36973e-06
9.18332e-06
6.99465e-05
-1.08978e-05
1.13013e-05
1.18589e-05
6.80571e-05
-1.44833e-05
1.53432e-05
1.57034e-05
6.444e-05
-1.92442e-05
2.09454e-05
2.11759e-05
5.62946e-05
-2.57163e-05
2.96578e-05
2.98207e-05
4.01497e-05
-3.29351e-05
4.08607e-05
4.10552e-05
-3.0128e-05
5.00649e-05
5.0325e-05
5.03997e-05
1.22429e-05
2.12877e-07
4.10984e-05
9.53866e-06
2.39219e-07
3.47307e-05
6.60251e-06
6.19969e-09
3.1133e-05
3.78024e-06
-3.68476e-07
2.90941e-05
2.14551e-06
-8.63154e-07
2.78316e-05
1.28507e-06
-1.47686e-06
2.68536e-05
9.10385e-07
-2.23822e-06
2.59019e-05
7.79809e-07
-3.18495e-06
2.48251e-05
7.75697e-07
-4.37396e-06
2.35136e-05
8.24101e-07
-5.8719e-06
2.18537e-05
8.9645e-07
-7.79838e-06
1.96925e-05
9.15563e-07
-1.02022e-05
1.67294e-05
9.0268e-07
-1.33674e-05
1.2567e-05
5.55465e-07
-1.67101e-05
6.14036e-06
2.03754e-07
-2.00051e-05
-1.83682e-06
-1.40384e-05
6.50048e-05
9.93029e-06
2.46102e-07
6.42194e-05
1.06598e-05
2.29717e-07
6.2456e-05
8.71962e-06
-1.43766e-07
6.05198e-05
6.00808e-06
-7.4791e-07
5.87873e-05
4.06068e-06
-1.55476e-06
5.72394e-05
2.88377e-06
-2.57013e-06
5.57207e-05
2.33273e-06
-3.84144e-06
5.40547e-05
2.17802e-06
-5.4357e-06
5.20718e-05
2.27802e-06
-7.44868e-06
4.95798e-05
2.53444e-06
-9.99968e-06
4.63502e-05
2.89862e-06
-1.32783e-05
4.20036e-05
3.27603e-06
-1.74112e-05
3.59808e-05
3.66262e-06
-2.27744e-05
2.7227e-05
3.67588e-06
-2.8624e-05
1.45786e-05
3.31539e-06
-3.38839e-05
2.67938e-07
-2.34445e-05
6.61538e-05
6.4795e-06
2.51805e-07
6.82166e-05
8.95597e-06
2.17713e-07
6.89353e-05
8.38308e-06
-1.89748e-07
6.86224e-05
6.64032e-06
-8.38114e-07
6.77839e-05
5.1039e-06
-1.70189e-06
6.66483e-05
4.08342e-06
-2.79217e-06
6.52705e-05
3.61609e-06
-4.16144e-06
6.35869e-05
3.58276e-06
-5.88369e-06
6.14695e-05
3.88759e-06
-8.06224e-06
5.87197e-05
4.45398e-06
-1.08297e-05
5.50633e-05
5.24646e-06
-1.43884e-05
5.0034e-05
6.1831e-06
-1.88934e-05
4.29425e-05
7.25861e-06
-2.47304e-05
3.25199e-05
8.03541e-06
-3.11592e-05
1.74465e-05
8.06323e-06
-3.69033e-05
3.85702e-06
-2.55434e-05
6.49295e-05
4.25471e-06
2.63594e-07
6.73021e-05
6.9479e-06
2.37537e-07
6.8841e-05
7.2332e-06
-1.65349e-07
6.94068e-05
6.40098e-06
-8.06686e-07
6.92727e-05
5.44988e-06
-1.66013e-06
6.8638e-05
4.78962e-06
-2.7369e-06
6.76027e-05
4.56541e-06
-4.08847e-06
6.61548e-05
4.76163e-06
-5.78814e-06
6.42012e-05
5.34527e-06
-7.93703e-06
6.15538e-05
6.28587e-06
-1.06695e-05
5.79246e-05
7.58461e-06
-1.41842e-05
5.28041e-05
9.19872e-06
-1.86506e-05
4.54238e-05
1.11521e-05
-2.44464e-05
3.44152e-05
1.29447e-05
-3.08824e-05
1.82887e-05
1.37219e-05
-3.66633e-05
7.93414e-06
-2.53745e-05
6.406e-05
2.8995e-06
2.84474e-07
6.61164e-05
5.25807e-06
2.83193e-07
6.77872e-05
5.95474e-06
-9.71307e-08
6.87602e-05
5.75856e-06
-7.14199e-07
6.90908e-05
5.33699e-06
-1.53736e-06
6.88847e-05
5.07618e-06
-2.57385e-06
6.82194e-05
5.15807e-06
-3.87003e-06
6.7096e-05
5.63561e-06
-5.49436e-06
6.54431e-05
6.53125e-06
-7.54032e-06
6.30853e-05
7.87077e-06
-1.01379e-05
5.97333e-05
9.70828e-06
-1.34722e-05
5.48382e-05
1.20797e-05
-1.77224e-05
4.7541e-05
1.50926e-05
-2.32407e-05
3.62812e-05
1.82692e-05
-2.94369e-05
1.92481e-05
2.04833e-05
-3.50299e-05
1.30697e-05
-2.42498e-05
6.36105e-05
1.99396e-06
3.09637e-07
6.5368e-05
3.86904e-06
3.41534e-07
6.70129e-05
4.70548e-06
-7.15336e-09
6.81931e-05
4.91395e-06
-5.91997e-07
6.88366e-05
4.91885e-06
-1.37642e-06
6.89733e-05
5.03125e-06
-2.36138e-06
6.8648e-05
5.42765e-06
-3.58611e-06
6.786e-05
6.19943e-06
-5.11216e-06
6.65489e-05
7.41278e-06
-7.02276e-06
6.45477e-05
9.15472e-06
-9.44069e-06
6.1567e-05
1.15439e-05
-1.25317e-05
5.70167e-05
1.47404e-05
-1.64835e-05
4.99519e-05
1.89875e-05
-2.16084e-05
3.85667e-05
2.39774e-05
-2.74515e-05
2.06403e-05
2.84947e-05
-3.27434e-05
1.98539e-05
-2.27547e-05
6.34201e-05
1.27951e-06
3.38931e-07
6.50179e-05
2.64222e-06
4.09874e-07
6.6651e-05
3.47274e-06
9.9177e-08
6.79723e-05
3.93511e-06
-4.47341e-07
6.88527e-05
4.27388e-06
-1.18595e-06
6.92825e-05
4.70804e-06
-2.10944e-06
6.92904e-05
5.38597e-06
-3.2475e-06
6.88845e-05
6.41456e-06
-4.65141e-06
6.80313e-05
7.88784e-06
-6.38896e-06
6.66031e-05
9.94731e-06
-8.5675e-06
6.43641e-05
1.27702e-05
-1.13188e-05
6.07508e-05
1.66855e-05
-1.48224e-05
5.48218e-05
2.21248e-05
-1.93088e-05
4.42871e-05
2.94584e-05
-2.44879e-05
2.60761e-05
3.78473e-05
-2.90566e-05
3.31048e-05
-2.02498e-05
6.33611e-05
3.70439e-07
6.25244e-07
6.49202e-05
4.83621e-07
1.45764e-06
6.65951e-05
2.14325e-07
2.20387e-06
6.80456e-05
-2.907e-07
2.83553e-06
6.91206e-05
-9.80229e-07
3.44594e-06
6.97962e-05
-1.8381e-06
4.15554e-06
7.0099e-05
-2.88378e-06
5.07344e-06
7.00493e-05
-4.15732e-06
6.30907e-06
6.9639e-05
-5.71033e-06
7.97372e-06
6.8778e-05
-7.63266e-06
1.02571e-05
6.72856e-05
-1.00205e-05
1.33854e-05
6.46437e-05
-1.30406e-05
1.78847e-05
6.0009e-05
-1.6837e-05
2.43523e-05
5.07889e-05
-2.13019e-05
3.42642e-05
3.36537e-05
-2.51456e-05
4.7193e-05
-1.8125e-05
5.47554e-05
5.03492e-05
1.22479e-05
1.15764e-07
4.09517e-05
9.55307e-06
8.37054e-08
3.44733e-05
6.6196e-06
-1.35061e-07
3.07637e-05
3.79714e-06
-4.55926e-07
2.86081e-05
2.16483e-06
-8.72425e-07
2.72132e-05
1.30991e-06
-1.39183e-06
2.60716e-05
9.43828e-07
-2.04053e-06
2.49086e-05
8.24378e-07
-2.84632e-06
2.35508e-05
8.34879e-07
-3.85098e-06
2.18676e-05
9.01619e-07
-5.09032e-06
1.97139e-05
9.99123e-07
-6.64383e-06
1.69478e-05
1.05159e-06
-8.48768e-06
1.32912e-05
1.08302e-06
-1.07938e-05
8.73641e-06
8.05691e-07
-1.2961e-05
2.95866e-06
4.33314e-07
-1.46606e-05
-1.44908e-06
-9.63064e-06
6.49332e-05
9.94324e-06
1.17556e-07
6.40089e-05
1.06904e-05
1.65867e-08
6.20698e-05
8.76158e-06
-3.4657e-07
5.99396e-05
6.05692e-06
-8.77497e-07
5.7997e-05
4.11945e-06
-1.56684e-06
5.62111e-05
2.95853e-06
-2.43284e-06
5.4404e-05
2.43151e-06
-3.52196e-06
5.23712e-05
2.30937e-06
-4.88789e-06
4.99075e-05
2.45314e-06
-6.60332e-06
4.67861e-05
2.76524e-06
-8.74182e-06
4.27336e-05
3.20295e-06
-1.14296e-05
3.73885e-05
3.66738e-06
-1.46819e-05
3.02416e-05
4.16173e-06
-1.87063e-05
2.08422e-05
4.27477e-06
-2.26936e-05
9.02263e-06
3.89987e-06
-2.55309e-05
6.95942e-07
-1.65669e-05
6.60808e-05
6.49793e-06
1.16327e-07
6.79983e-05
8.99928e-06
-8.67469e-09
6.85304e-05
8.44677e-06
-4.06991e-07
6.80079e-05
6.72029e-06
-9.79044e-07
6.69406e-05
5.2035e-06
-1.71862e-06
6.55453e-05
4.21121e-06
-2.64951e-06
6.3854e-05
3.78491e-06
-3.82354e-06
6.17726e-05
3.808e-06
-5.30092e-06
5.91345e-05
4.18959e-06
-7.16055e-06
5.57012e-05
4.85525e-06
-9.48653e-06
5.11497e-05
5.77901e-06
-1.24129e-05
4.50267e-05
6.87067e-06
-1.59737e-05
3.66925e-05
8.13929e-06
-2.03738e-05
2.55179e-05
9.07544e-06
-2.47852e-05
1.12627e-05
9.14263e-06
-2.78908e-05
4.452e-06
-1.80369e-05
6.48579e-05
4.27737e-06
1.26238e-07
6.7087e-05
7.00151e-06
6.24886e-09
6.8442e-05
7.31508e-06
-3.88691e-07
6.88019e-05
6.50805e-06
-9.5434e-07
6.84434e-05
5.58628e-06
-1.68442e-06
6.75544e-05
4.96638e-06
-2.60307e-06
6.62122e-05
4.79995e-06
-3.76127e-06
6.43745e-05
5.07636e-06
-5.21878e-06
6.19091e-05
5.77053e-06
-7.05258e-06
5.85862e-05
6.85695e-06
-9.34832e-06
5.40656e-05
8.35205e-06
-1.22366e-05
4.78439e-05
1.02043e-05
-1.57625e-05
3.91927e-05
1.24658e-05
-2.01217e-05
2.73842e-05
1.45245e-05
-2.4523e-05
1.20264e-05
1.54603e-05
-2.76232e-05
8.91738e-06
-1.78135e-05
6.39904e-05
2.92583e-06
1.45581e-07
6.5907e-05
5.3207e-06
4.74691e-08
6.74e-05
6.05205e-06
-3.27148e-07
6.81762e-05
5.88846e-06
-8.70767e-07
6.82941e-05
5.50467e-06
-1.5737e-06
6.78483e-05
5.29506e-06
-2.45668e-06
6.68946e-05
5.44985e-06
-3.56622e-06
6.54051e-05
6.02953e-06
-4.95802e-06
6.32701e-05
7.06795e-06
-6.70275e-06
6.02721e-05
8.60017e-06
-8.88323e-06
5.60673e-05
1.07038e-05
-1.16192e-05
5.01043e-05
1.34108e-05
-1.49659e-05
4.15492e-05
1.68794e-05
-1.90991e-05
2.946e-05
2.04861e-05
-2.33093e-05
1.30901e-05
2.30725e-05
-2.62722e-05
1.46614e-05
-1.69037e-05
6.3543e-05
2.02353e-06
1.68941e-07
6.51653e-05
3.93915e-06
1.00802e-07
6.66403e-05
4.81512e-06
-2.45251e-07
6.76348e-05
5.06181e-06
-7.59824e-07
6.808e-05
5.11126e-06
-1.42818e-06
6.79954e-05
5.28385e-06
-2.26561e-06
6.74055e-05
5.76599e-06
-3.31239e-06
6.62822e-05
6.65922e-06
-4.61853e-06
6.45287e-05
8.04488e-06
-6.24623e-06
6.19365e-05
1.00252e-05
-8.27349e-06
5.81611e-05
1.27525e-05
-1.0805e-05
5.26004e-05
1.63946e-05
-1.39066e-05
4.432e-05
2.12763e-05
-1.77249e-05
3.20943e-05
2.6924e-05
-2.16637e-05
1.46928e-05
3.21576e-05
-2.4427e-05
2.23335e-05
-1.5734e-05
6.33551e-05
1.31146e-06
1.95882e-07
6.48235e-05
2.71754e-06
1.63102e-07
6.62959e-05
3.59065e-06
-1.4873e-07
6.74445e-05
4.09483e-06
-6.28956e-07
6.81438e-05
4.48259e-06
-1.25664e-06
6.83753e-05
4.98289e-06
-2.03998e-06
6.81498e-05
5.75513e-06
-3.01114e-06
6.74511e-05
6.91845e-06
-4.21193e-06
6.62145e-05
8.58501e-06
-5.69242e-06
6.4275e-05
1.09176e-05
-7.52044e-06
6.13486e-05
1.41363e-05
-9.77617e-06
5.68524e-05
1.85963e-05
-1.2528e-05
4.9846e-05
2.4843e-05
-1.58692e-05
3.85289e-05
3.31031e-05
-1.935e-05
2.06493e-05
4.26801e-05
-2.16994e-05
3.67441e-05
-1.40112e-05
6.32989e-05
2.24586e-07
6.58443e-07
6.47347e-05
2.29996e-07
1.5353e-06
6.6259e-05
-4.45705e-08
2.32528e-06
6.75505e-05
-4.87673e-07
3.00035e-06
6.84628e-05
-1.0718e-06
3.6618e-06
6.89647e-05
-1.79735e-06
4.44025e-06
6.90674e-05
-2.68777e-06
5.45644e-06
6.87708e-05
-3.77589e-06
6.83357e-06
6.80416e-05
-5.099e-06
8.70293e-06
6.67583e-05
-6.7131e-06
1.12814e-05
6.47018e-05
-8.67257e-06
1.48448e-05
6.13318e-05
-1.10449e-05
1.99707e-05
5.58083e-05
-1.38675e-05
2.7397e-05
4.59246e-05
-1.68512e-05
3.85361e-05
2.90297e-05
-1.87963e-05
5.32258e-05
-1.25278e-05
6.01765e-05
5.031e-05
1.22525e-05
5.32669e-08
4.08354e-05
9.56581e-06
-7.47328e-09
3.42653e-05
6.635e-06
-1.99962e-07
3.04604e-05
3.81285e-06
-4.63892e-07
2.82059e-05
2.18299e-06
-8.00863e-07
2.67023e-05
1.33333e-06
-1.22163e-06
2.54349e-05
9.75584e-07
-1.74871e-06
2.41229e-05
8.6741e-07
-2.40168e-06
2.2588e-05
8.93469e-07
-3.2096e-06
2.07044e-05
9.81406e-07
-4.18807e-06
1.83361e-05
1.11006e-06
-5.38559e-06
1.5386e-05
1.20932e-06
-6.74693e-06
1.16442e-05
1.31175e-06
-8.36366e-06
7.25076e-06
1.15578e-06
-9.72342e-06
2.19219e-06
8.91883e-07
-1.04939e-05
-8.47283e-07
-6.59117e-06
6.48768e-05
9.9552e-06
3.80709e-08
6.38404e-05
1.07182e-05
-9.9402e-08
6.17548e-05
8.79972e-06
-4.25695e-07
5.94591e-05
6.10171e-06
-8.70668e-07
5.73367e-05
4.17334e-06
-1.43479e-06
5.5351e-05
3.0268e-06
-2.14063e-06
5.33125e-05
2.52142e-06
-3.02928e-06
5.10046e-05
2.4289e-06
-4.14148e-06
4.8211e-05
2.61304e-06
-5.52923e-06
4.47058e-05
2.97784e-06
-7.23309e-06
4.02284e-05
3.48741e-06
-9.32954e-06
3.44883e-05
4.04393e-06
-1.17764e-05
2.7096e-05
4.66345e-06
-1.46658e-05
1.79118e-05
4.92906e-06
-1.72827e-05
7.24515e-06
4.6717e-06
-1.86441e-05
1.40459e-06
-1.15736e-05
6.60233e-05
6.51509e-06
3.31602e-08
6.78235e-05
9.03888e-06
-1.29607e-07
6.82e-05
8.50489e-06
-4.88645e-07
6.74988e-05
6.79329e-06
-9.6948e-07
6.62353e-05
5.29407e-06
-1.57582e-06
6.46212e-05
4.32669e-06
-2.33537e-06
6.26768e-05
3.93648e-06
-3.29418e-06
6.02944e-05
4.0091e-06
-4.49865e-06
5.72944e-05
4.45804e-06
-6.00561e-06
5.34384e-05
5.2109e-06
-7.86353e-06
4.84155e-05
6.25059e-06
-1.01533e-05
4.18476e-05
7.4825e-06
-1.28443e-05
3.32257e-05
8.93158e-06
-1.602e-05
2.22644e-05
1.00439e-05
-1.89388e-05
9.25224e-06
1.02294e-05
-2.04364e-05
5.22825e-06
-1.26083e-05
6.48018e-05
4.29846e-06
4.10786e-08
6.6915e-05
7.05069e-06
-1.18807e-07
6.8117e-05
7.38975e-06
-4.75482e-07
6.83014e-05
6.60536e-06
-9.50882e-07
6.77506e-05
5.70957e-06
-1.5491e-06
6.66476e-05
5.12499e-06
-2.2983e-06
6.5058e-05
5.00872e-06
-3.24392e-06
6.29262e-05
5.35412e-06
-4.43206e-06
6.01073e-05
6.14243e-06
-5.91808e-06
5.63704e-05
7.35133e-06
-7.75186e-06
5.13867e-05
9.00904e-06
-1.00113e-05
4.47256e-05
1.10556e-05
-1.26745e-05
3.57864e-05
1.35649e-05
-1.58159e-05
2.41835e-05
1.58435e-05
-1.87197e-05
1.00578e-05
1.69278e-05
-2.01959e-05
9.86992e-06
-1.23973e-05
6.39361e-05
2.95018e-06
5.77754e-08
6.57401e-05
5.37795e-06
-8.38271e-08
6.70855e-05
6.14046e-06
-4.23268e-07
6.76941e-05
6.00592e-06
-8.79888e-07
6.76297e-05
5.65541e-06
-1.45518e-06
6.69822e-05
5.49032e-06
-2.17455e-06
6.57968e-05
5.70777e-06
-3.07978e-06
6.40327e-05
6.37397e-06
-4.21381e-06
6.15682e-05
7.53128e-06
-5.62709e-06
5.81843e-05
9.2199e-06
-7.36786e-06
5.35469e-05
1.15333e-05
-9.50606e-06
4.71717e-05
1.44937e-05
-1.20289e-05
3.83431e-05
1.8291e-05
-1.49966e-05
2.64452e-05
2.21883e-05
-1.77562e-05
1.12406e-05
2.49967e-05
-1.91365e-05
1.59004e-05
-1.16936e-05
6.34905e-05
2.05062e-06
7.80081e-08
6.50045e-05
4.00288e-06
-3.8097e-08
6.63387e-05
4.91424e-06
-3.53232e-07
6.71751e-05
5.19486e-06
-7.85197e-07
6.74503e-05
5.28339e-06
-1.33135e-06
6.71797e-05
5.50801e-06
-2.01267e-06
6.63776e-05
6.06322e-06
-2.86578e-06
6.50043e-05
7.05794e-06
-3.9292e-06
6.29519e-05
8.58425e-06
-5.24683e-06
6.00099e-05
1.07523e-05
-6.86392e-06
5.58424e-05
1.37352e-05
-8.83946e-06
4.99073e-05
1.76933e-05
-1.1171e-05
4.13769e-05
2.29955e-05
-1.3899e-05
2.933e-05
2.90298e-05
-1.64583e-05
1.30003e-05
3.46107e-05
-1.77113e-05
2.39725e-05
-1.08057e-05
6.33048e-05
1.34044e-06
1.01222e-07
6.467e-05
2.78558e-06
1.5265e-08
6.60096e-05
3.69674e-06
-2.70797e-07
6.70112e-05
4.23794e-06
-6.73729e-07
6.75552e-05
4.66855e-06
-1.18577e-06
6.76195e-05
5.22578e-06
-1.82208e-06
6.72065e-05
6.07788e-06
-2.61278e-06
6.629e-05
7.35269e-06
-3.59015e-06
6.47963e-05
9.17461e-06
-4.78909e-06
6.25594e-05
1.17174e-05
-6.24857e-06
5.93042e-05
1.52253e-05
-8.01095e-06
5.44983e-05
2.00521e-05
-1.00809e-05
4.72947e-05
2.67962e-05
-1.24662e-05
3.61539e-05
3.55382e-05
-1.47176e-05
1.92039e-05
4.56051e-05
-1.57438e-05
3.8786e-05
-9.62081e-06
6.32509e-05
1.25819e-07
6.88263e-07
6.45891e-05
7.24058e-08
1.60503e-06
6.59892e-05
-1.82023e-07
2.43406e-06
6.71456e-05
-5.53602e-07
3.14749e-06
6.7918e-05
-1.0291e-06
3.85344e-06
6.82728e-05
-1.61728e-06
4.69099e-06
6.82141e-05
-2.34121e-06
5.79e-06
6.7734e-05
-3.22637e-06
7.28325e-06
6.67926e-05
-4.29809e-06
9.31505e-06
6.52687e-05
-5.58784e-06
1.2116e-05
6.29538e-05
-7.12038e-06
1.59881e-05
5.93497e-05
-8.90541e-06
2.15166e-05
5.36993e-05
-1.09176e-05
2.94967e-05
4.40093e-05
-1.28352e-05
4.12122e-05
2.7924e-05
-1.36551e-05
5.65492e-05
-8.60072e-06
6.27829e-05
5.02793e-05
1.22563e-05
1.76439e-08
4.07438e-05
9.57628e-06
-4.82286e-08
3.40991e-05
6.6478e-06
-2.03037e-07
3.02146e-05
3.82598e-06
-4.05377e-07
2.78755e-05
2.19803e-06
-6.59824e-07
2.62784e-05
1.35245e-06
-9.7698e-07
2.49026e-05
1.00113e-06
-1.37405e-06
2.34631e-05
9.01425e-07
-1.86354e-06
2.17785e-05
9.38805e-07
-2.46383e-06
1.97276e-05
1.04154e-06
-3.17866e-06
1.71858e-05
1.19107e-06
-4.03489e-06
1.40945e-05
1.3204e-06
-4.97605e-06
1.03126e-05
1.46648e-06
-6.04829e-06
6.0926e-06
1.38157e-06
-6.88494e-06
1.63817e-06
1.16956e-06
-7.20909e-06
-5.24411e-07
-4.42859e-06
6.48323e-05
9.96539e-06
-3.34762e-09
6.37069e-05
1.07416e-05
-1.393e-07
6.15023e-05
8.83205e-06
-4.05318e-07
5.9069e-05
6.13983e-06
-7.51253e-07
5.67946e-05
4.21909e-06
-1.18142e-06
5.46388e-05
3.08444e-06
-1.71684e-06
5.24038e-05
2.59683e-06
-2.38995e-06
4.98644e-05
2.52847e-06
-3.2292e-06
4.67977e-05
2.7452e-06
-4.26885e-06
4.29823e-05
3.1519e-06
-5.52806e-06
3.81753e-05
3.71755e-06
-7.04905e-06
3.2151e-05
4.34399e-06
-8.77564e-06
2.46367e-05
5.0558e-06
-1.07408e-05
1.57251e-05
5.42671e-06
-1.24162e-05
6.04737e-06
5.24091e-06
-1.30377e-05
1.8741e-06
-7.92473e-06
6.5978e-05
6.52991e-06
-9.3116e-09
6.7685e-05
9.07276e-06
-1.67799e-07
6.79349e-05
8.55457e-06
-4.61146e-07
6.70853e-05
6.85572e-06
-8.35766e-07
6.56561e-05
5.37136e-06
-1.29887e-06
6.3856e-05
4.42485e-06
-1.87568e-06
6.16967e-05
4.06474e-06
-2.60275e-06
5.9061e-05
4.17848e-06
-3.51297e-06
5.57617e-05
4.68302e-06
-4.64412e-06
5.15637e-05
5.50718e-06
-6.0209e-06
4.61752e-05
6.64052e-06
-7.68778e-06
3.92866e-05
7.9837e-06
-9.59535e-06
3.05162e-05
9.57307e-06
-1.17669e-05
1.98373e-05
1.08168e-05
-1.365e-05
7.89714e-06
1.10844e-05
-1.43398e-05
5.81614e-06
-8.65318e-06
6.47576e-05
4.31676e-06
-3.41488e-09
6.6779e-05
7.09295e-06
-1.60402e-07
6.78566e-05
7.45375e-06
-4.5221e-07
6.78954e-05
6.68866e-06
-8.22593e-07
6.71821e-05
5.81487e-06
-1.27934e-06
6.58967e-05
5.26003e-06
-1.84811e-06
6.40968e-05
5.18583e-06
-2.56506e-06
6.17173e-05
5.58885e-06
-3.46292e-06
5.86052e-05
6.45543e-06
-4.57841e-06
5.45326e-05
7.76535e-06
-5.93741e-06
4.91881e-05
9.55581e-06
-7.58218e-06
4.22082e-05
1.17588e-05
-9.46965e-06
3.31174e-05
1.44641e-05
-1.16162e-05
2.1789e-05
1.6913e-05
-1.34875e-05
8.72772e-06
1.8108e-05
-1.41582e-05
1.06418e-05
-8.49527e-06
6.38935e-05
2.97128e-06
9.7941e-09
6.56084e-05
5.42717e-06
-1.33035e-07
6.68341e-05
6.21622e-06
-4.11374e-07
6.73035e-05
6.10639e-06
-7.67022e-07
6.7085e-05
5.78409e-06
-1.20591e-06
6.62656e-05
5.65655e-06
-1.75166e-06
6.48825e-05
5.92671e-06
-2.43762e-06
6.28864e-05
6.66541e-06
-3.29428e-06
6.01477e-05
7.92188e-06
-4.35483e-06
5.64496e-05
9.73997e-06
-5.6443e-06
5.14736e-05
1.22253e-05
-7.19957e-06
4.47975e-05
1.5391e-05
-8.98499e-06
3.58232e-05
1.94496e-05
-1.10077e-05
2.41838e-05
2.35748e-05
-1.27786e-05
9.99222e-06
2.65527e-05
-1.33897e-05
1.69342e-05
-7.99372e-06
6.34494e-05
2.074e-06
2.58443e-08
6.4878e-05
4.05755e-06
-9.69805e-08
6.60982e-05
4.99904e-06
-3.56256e-07
6.68035e-05
5.30849e-06
-6.92613e-07
6.69349e-05
5.43015e-06
-1.10886e-06
6.65053e-05
5.69872e-06
-1.62524e-06
6.5522e-05
6.31548e-06
-2.27123e-06
6.39369e-05
7.39537e-06
-3.07409e-06
6.16352e-05
9.03915e-06
-4.06235e-06
5.84077e-05
1.13629e-05
-5.25935e-06
5.39326e-05
1.45556e-05
-6.69459e-06
4.77235e-05
1.877e-05
-8.34104e-06
3.9061e-05
2.44066e-05
-1.01935e-05
2.72568e-05
3.07464e-05
-1.18257e-05
1.18659e-05
3.65937e-05
-1.23614e-05
2.53578e-05
-7.36347e-06
6.32657e-05
1.36532e-06
4.42056e-08
6.45497e-05
2.84378e-06
-5.49268e-08
6.5782e-05
3.7873e-06
-2.91423e-07
6.6662e-05
4.35996e-06
-6.05143e-07
6.70744e-05
4.8269e-06
-9.94983e-07
6.69955e-05
5.4323e-06
-1.47678e-06
6.64216e-05
6.35179e-06
-2.07517e-06
6.53195e-05
7.72033e-06
-2.81302e-06
6.36099e-05
9.67232e-06
-3.71264e-06
6.11282e-05
1.23898e-05
-4.79377e-06
5.76124e-05
1.61358e-05
-6.07533e-06
5.25781e-05
2.12612e-05
-7.53772e-06
4.52729e-05
2.84025e-05
-9.15703e-06
3.43623e-05
3.75282e-05
-1.05887e-05
1.82408e-05
4.79761e-05
-1.10047e-05
4.055e-05
-6.57226e-06
6.32138e-05
6.35949e-08
7.13732e-07
6.44755e-05
-9.96706e-09
1.66447e-06
6.57758e-05
-2.21684e-07
2.52669e-06
6.68204e-05
-5.10976e-07
3.27269e-06
6.74743e-05
-8.72535e-07
4.01641e-06
6.77027e-05
-1.31734e-06
4.904e-06
6.7505e-05
-1.86476e-06
6.07299e-06
6.68679e-05
-2.53286e-06
7.66397e-06
6.57475e-05
-3.33732e-06
9.83193e-06
6.40248e-05
-4.29342e-06
1.2818e-05
6.15046e-05
-5.40887e-06
1.69445e-05
5.77294e-05
-6.67017e-06
2.28011e-05
5.20255e-05
-8.03498e-06
3.12238e-05
4.25678e-05
-9.24846e-06
4.33992e-05
2.72084e-05
-9.5637e-06
5.92442e-05
-5.8889e-06
6.50466e-05
5.02571e-05
1.22593e-05
1.28281e-09
4.06769e-05
9.58446e-06
-5.24807e-08
3.39767e-05
6.65783e-06
-1.60645e-07
3.00328e-05
3.83645e-06
-2.97969e-07
2.76314e-05
2.21013e-06
-4.68551e-07
2.59673e-05
1.36797e-06
-6.80825e-07
2.45175e-05
1.02205e-06
-9.46298e-07
2.29965e-05
9.29692e-07
-1.27229e-06
2.12249e-05
9.77159e-07
-1.66935e-06
1.90889e-05
1.09356e-06
-2.13621e-06
1.64775e-05
1.26267e-06
-2.68614e-06
1.33564e-05
1.4202e-06
-3.27517e-06
9.6247e-06
1.60696e-06
-3.92358e-06
5.55623e-06
1.58183e-06
-4.3983e-06
1.43347e-06
1.42011e-06
-4.50644e-06
-2.66435e-07
-2.72868e-06
6.47999e-05
9.97344e-06
-1.73727e-08
6.36087e-05
1.07599e-05
-1.23588e-07
6.1315e-05
8.85744e-06
-3.11281e-07
5.87784e-05
6.16989e-06
-5.48077e-07
5.63903e-05
4.25519e-06
-8.38442e-07
5.41099e-05
3.12989e-06
-1.19833e-06
5.17358e-05
2.65625e-06
-1.65e-06
4.90406e-05
2.60696e-06
-2.21133e-06
4.58021e-05
2.84953e-06
-2.90272e-06
4.18094e-05
3.28972e-06
-3.73144e-06
3.68406e-05
3.90046e-06
-4.7181e-06
3.07158e-05
4.58376e-06
-5.81439e-06
2.32365e-05
5.37099e-06
-7.02554e-06
1.45823e-05
5.82757e-06
-8.00767e-06
5.50465e-06
5.70643e-06
-8.24641e-06
2.25006e-06
-4.93658e-06
6.59448e-05
6.54164e-06
-2.23577e-08
6.75829e-05
9.09945e-06
-1.45348e-07
6.77382e-05
8.59365e-06
-3.52682e-07
6.6777e-05
6.90482e-06
-6.09438e-07
6.52237e-05
5.43202e-06
-9.22426e-07
6.32867e-05
4.50163e-06
-1.31046e-06
6.09744e-05
4.16466e-06
-1.79878e-06
5.81667e-05
4.30989e-06
-2.40829e-06
5.4677e-05
4.85683e-06
-3.16169e-06
5.02804e-05
5.73517e-06
-4.06974e-06
4.47078e-05
6.93934e-06
-5.15405e-06
3.76993e-05
8.3667e-06
-6.36985e-06
2.89561e-05
1.0062e-05
-7.71455e-06
1.85536e-05
1.14064e-05
-8.82632e-06
7.27516e-06
1.17408e-05
-9.09572e-06
6.27317e-06
-5.40113e-06
6.47255e-05
4.33126e-06
-1.84895e-08
6.6679e-05
7.12629e-06
-1.40753e-07
6.76635e-05
7.5041e-06
-3.47198e-07
6.75927e-05
6.75404e-06
-6.01045e-07
6.67579e-05
5.89725e-06
-9.09684e-07
6.53385e-05
5.36516e-06
-1.29224e-06
6.33889e-05
5.32291e-06
-1.77372e-06
6.08415e-05
5.76933e-06
-2.37498e-06
5.75436e-05
6.6943e-06
-3.11802e-06
5.32772e-05
8.0787e-06
-4.01446e-06
4.77531e-05
9.96573e-06
-5.08447e-06
4.06565e-05
1.2281e-05
-6.2874e-06
3.15934e-05
1.51249e-05
-7.61605e-06
2.05384e-05
1.76937e-05
-8.71977e-06
8.1319e-06
1.89646e-05
-8.97548e-06
1.12066e-05
-5.29684e-06
6.38624e-05
2.98797e-06
-9.35421e-09
6.55117e-05
5.46594e-06
-1.21974e-07
6.66479e-05
6.27573e-06
-3.19189e-07
6.70127e-05
6.18509e-06
-5.62905e-07
6.66789e-05
5.88446e-06
-8.59337e-07
6.57332e-05
5.78548e-06
-1.22624e-06
6.42099e-05
6.09534e-06
-1.68677e-06
6.20573e-05
6.88799e-06
-2.26031e-06
5.91462e-05
8.21724e-06
-2.96664e-06
5.52689e-05
1.01286e-05
-3.81699e-06
5.01281e-05
1.27352e-05
-4.82828e-06
4.33472e-05
1.6042e-05
-5.96498e-06
3.44039e-05
2.02749e-05
-7.2145e-06
2.30266e-05
2.45476e-05
-8.25508e-06
9.45416e-06
2.76242e-05
-8.47685e-06
1.76426e-05
-4.97548e-06
6.34196e-05
2.09243e-06
1.75386e-09
6.47852e-05
4.10053e-06
-9.71086e-08
6.59203e-05
5.06552e-06
-2.81207e-07
6.65272e-05
5.3973e-06
-5.11681e-07
6.65511e-05
5.54431e-06
-7.92646e-07
6.60048e-05
5.84614e-06
-1.13958e-06
6.48931e-05
6.50893e-06
-1.57307e-06
6.31658e-05
7.65157e-06
-2.11039e-06
6.07087e-05
9.38036e-06
-2.76836e-06
5.73212e-05
1.18141e-05
-3.55732e-06
5.27008e-05
1.51507e-05
-4.48975e-06
4.6403e-05
1.95349e-05
-5.53611e-06
3.77777e-05
2.53836e-05
-6.67691e-06
2.62227e-05
3.19072e-05
-7.63026e-06
1.14024e-05
3.78936e-05
-7.81057e-06
2.62526e-05
-4.57118e-06
6.32373e-05
1.38486e-06
1.44492e-08
6.44616e-05
2.88942e-06
-6.81027e-08
6.56141e-05
3.85816e-06
-2.36545e-07
6.64027e-05
4.45512e-06
-4.51521e-07
6.67167e-05
4.94982e-06
-7.14496e-07
6.65325e-05
5.59154e-06
-1.03801e-06
6.58445e-05
6.56119e-06
-1.43944e-06
6.4618e-05
7.99829e-06
-1.93328e-06
6.27748e-05
1.00434e-05
-2.53248e-06
6.01582e-05
1.28824e-05
-3.24553e-06
5.65238e-05
1.67886e-05
-4.0788e-06
5.14237e-05
2.21059e-05
-5.00853e-06
4.41666e-05
2.94892e-05
-6.00547e-06
3.34913e-05
3.88326e-05
-6.83896e-06
1.78766e-05
4.94646e-05
-6.96102e-06
4.16441e-05
-4.08719e-06
6.3187e-05
2.78286e-08
7.33653e-07
6.43926e-05
-3.71194e-08
1.71097e-06
6.56186e-05
-1.88531e-07
2.59901e-06
6.65793e-05
-3.86786e-07
3.37015e-06
6.71444e-05
-6.30492e-07
4.14266e-06
6.72797e-05
-9.28931e-07
5.0679e-06
6.69833e-05
-1.29599e-06
6.28877e-06
6.6241e-05
-1.74311e-06
7.95083e-06
6.50108e-05
-2.27912e-06
1.02155e-05
6.31811e-05
-2.91007e-06
1.33288e-05
6.05733e-05
-3.63588e-06
1.76234e-05
5.67614e-05
-4.43775e-06
2.36854e-05
5.11242e-05
-5.27719e-06
3.23685e-05
4.18952e-05
-5.9796e-06
4.47928e-05
2.69811e-05
-6.05712e-06
6.08722e-05
-3.66608e-06
6.64024e-05
5.02423e-05
1.22613e-05
-2.25795e-09
4.06322e-05