/*--------------------------------*- C++ -*----------------------------------*\
| =========                 |                                                 |
| \\      /  F ield         | OpenFOAM: The Open Source CFD Toolbox           |
|  \\    /   O peration     | Version:  v1912                                 |
|   \\  /    A nd           | Website:  www.openfoam.com                      |
|    \\/     M anipulation  |                                                 |
\*---------------------------------------------------------------------------*/
FoamFile
{
    version     2.0;
    format      ascii;
    class       volVectorField;
    location    "0.46/fluid";
    object      U;
}
// * * * * * * * * * * * * * * * * * * * * * * * * * * * * * * * * * * * * * //

dimensions      [0 1 -1 0 0 0 0];


internalField   nonuniform List<vector> 
14592
(
(0.0877778 0.0171163 0.000625564)
(0.0731238 0.0112237 0.000879036)
(0.0595086 0.00671065 0.000544975)
(0.0525595 0.00312682 -0.000100567)
(0.048505 0.00140175 -0.000967038)
(0.0463444 0.000617561 -0.00201788)
(0.0448842 0.000313887 -0.00328893)
(0.0437267 0.000195628 -0.00485222)
(0.042483 0.000146894 -0.00681428)
(0.0411942 9.72078e-05 -0.00934824)
(0.03937 2.28565e-05 -0.0127075)
(0.0375438 -0.000175501 -0.0172715)
(0.0340929 -0.000468306 -0.0237889)
(0.03097 -0.00129406 -0.0326632)
(0.0218969 -0.00187059 -0.0446288)
(0.0123613 -0.00492625 -0.043629)
(0.104052 0.0172981 0.000785795)
(0.104238 0.0159459 0.00109097)
(0.102051 0.0120612 0.000607267)
(0.0992655 0.00760272 -0.000381962)
(0.0965772 0.00466035 -0.00176125)
(0.0943854 0.00297405 -0.00348289)
(0.0923937 0.00218262 -0.00559646)
(0.0904572 0.0018924 -0.00821659)
(0.088231 0.00187957 -0.0115182)
(0.0857145 0.00200094 -0.0157808)
(0.0822559 0.00218211 -0.0214102)
(0.078271 0.00228974 -0.0290161)
(0.0715405 0.00230948 -0.0396613)
(0.0639177 0.00172631 -0.0540059)
(0.0461852 0.000997049 -0.0718855)
(0.0267099 -0.00304079 -0.0687819)
(0.103937 0.0111739 0.000818406)
(0.108143 0.0141842 0.00112721)
(0.110875 0.0125688 0.000607938)
(0.111275 0.00933035 -0.000445354)
(0.110587 0.00671029 -0.001917)
(0.109356 0.00500239 -0.00376382)
(0.107792 0.00415073 -0.00603986)
(0.105969 0.00389857 -0.0088688)
(0.103676 0.0040584 -0.0124385)
(0.100934 0.00448977 -0.0170527)
(0.0970636 0.00510699 -0.0231483)
(0.0923899 0.00577921 -0.0314037)
(0.0845043 0.00646277 -0.0429455)
(0.0751218 0.00664787 -0.0586122)
(0.0541537 0.00617469 -0.0781311)
(0.0306244 0.00162034 -0.0757845)
(0.102069 0.00725046 0.000838407)
(0.106104 0.0111519 0.00116758)
(0.109984 0.0110899 0.000657545)
(0.111849 0.00931974 -0.000385729)
(0.112476 0.00751596 -0.00184267)
(0.112183 0.00623735 -0.00366975)
(0.111263 0.00563562 -0.00591925)
(0.10987 0.00562156 -0.00871358)
(0.107873 0.0060955 -0.0122374)
(0.105327 0.00697189 -0.0167972)
(0.101551 0.00820379 -0.0228274)
(0.0968462 0.00970639 -0.0310359)
(0.0886829 0.0114523 -0.0425536)
(0.0787299 0.0129135 -0.0583761)
(0.0565241 0.0132824 -0.0782748)
(0.0311246 0.0073965 -0.076766)
(0.101084 0.00483218 0.000867662)
(0.104285 0.00845671 0.00123602)
(0.108016 0.00923602 0.000759979)
(0.110405 0.00856026 -0.00024719)
(0.111775 0.00757246 -0.00165779)
(0.11219 0.00685215 -0.00342186)
(0.111882 0.00664111 -0.00558396)
(0.110999 0.00696854 -0.00825857)
(0.109447 0.00781572 -0.0116179)
(0.107312 0.00916314 -0.0159591)
(0.103918 0.0110113 -0.0216933)
(0.0995658 0.0133373 -0.0295397)
(0.0916023 0.0161421 -0.0405878)
(0.0816238 0.0188664 -0.0560186)
(0.0586147 0.020176 -0.0756103)
(0.0315235 0.0123016 -0.0751184)
(0.100659 0.00335067 0.000903134)
(0.10325 0.00631781 0.00132169)
(0.106656 0.00741432 0.000893366)
(0.109236 0.00743263 -6.49042e-05)
(0.111042 0.00710924 -0.00141572)
(0.111973 0.00693501 -0.00309908)
(0.112182 0.00716146 -0.00514855)
(0.111791 0.0078873 -0.00766707)
(0.110716 0.00916192 -0.0108099)
(0.10906 0.0110493 -0.0148585)
(0.106153 0.0136341 -0.0201904)
(0.102291 0.0170479 -0.0275264)
(0.0947001 0.0214478 -0.0378833)
(0.0849107 0.0264956 -0.0526635)
(0.061219 0.0305612 -0.0716041)
(0.0324251 0.0213726 -0.0724829)
(0.100501 0.00224293 0.000945626)
(0.102781 0.00448444 0.00142308)
(0.105991 0.00564429 0.0010525)
(0.108683 0.00610165 0.000153125)
(0.110785 0.006304 -0.00112658)
(0.112118 0.00661574 -0.00271322)
(0.112786 0.00725708 -0.0046251)
(0.112897 0.0083574 -0.00694702)
(0.112397 0.0100091 -0.00980684)
(0.111426 0.0123444 -0.0134515)
(0.109386 0.0155104 -0.0181904)
(0.106638 0.0197847 -0.0246894)
(0.10043 0.0254405 -0.0337747)
(0.0923181 0.0324188 -0.0470116)
(0.0691428 0.0388998 -0.0637911)
(0.0394249 0.0280516 -0.0662343)
(0.10045 0.00130406 0.000992517)
(0.10263 0.00280809 0.001534)
(0.105806 0.00388219 0.00122663)
(0.108626 0.00461434 0.000391306)
(0.110968 0.0052293 -0.000812273)
(0.112621 0.00595553 -0.002296)
(0.113673 0.0069624 -0.0040619)
(0.114231 0.00838857 -0.00617505)
(0.114271 0.010358 -0.00873494)
(0.113962 0.0130794 -0.0119504)
(0.11278 0.0167923 -0.0160617)
(0.11114 0.0220871 -0.0216682)
(0.10638 0.0296127 -0.0294028)
(0.100276 0.0410959 -0.0410028)
(0.0784069 0.0557968 -0.0556597)
(0.0513022 0.0614883 -0.0612404)
(0.0877461 0.0171188 0.000387545)
(0.0729454 0.0112354 0.000478495)
(0.0591112 0.00672092 0.000141409)
(0.0519712 0.00313305 -0.000428307)
(0.0477292 0.00140747 -0.00118576)
(0.0453781 0.000625335 -0.00212105)
(0.0436913 0.000325386 -0.00327456)
(0.0422469 0.000211586 -0.00470545)
(0.0406275 0.000169343 -0.00650195)
(0.0388348 0.000129116 -0.00877724)
(0.0363677 7.35281e-05 -0.0117185)
(0.0336406 -8.69066e-05 -0.0154401)
(0.0292448 -0.000301021 -0.020391)
(0.0245204 -0.000927546 -0.0257607)
(0.0153128 -0.00133104 -0.0312485)
(0.00457689 -0.00345855 -0.0217149)
(0.104008 0.0173112 0.000462993)
(0.103989 0.0159802 0.000519071)
(0.10148 0.0121043 -9.40166e-06)
(0.0983659 0.00764821 -0.000915596)
(0.0953368 0.00471387 -0.00214256)
(0.0927889 0.0030437 -0.00368552)
(0.0903829 0.00227729 -0.00560938)
(0.0879305 0.00202046 -0.00801645)
(0.0850324 0.00205245 -0.0110553)
(0.0816197 0.00223181 -0.014924)
(0.0769926 0.00249386 -0.0199254)
(0.0714085 0.0027079 -0.0263135)
(0.0628607 0.00288283 -0.0347092)
(0.0525419 0.00251629 -0.0441188)
(0.0341047 0.00190794 -0.053)
(0.0128641 -0.0017499 -0.0367163)
(0.103895 0.0111976 0.000477315)
(0.107886 0.0142409 0.000514703)
(0.110281 0.0126492 -5.9896e-05)
(0.110327 0.00942705 -0.00103037)
(0.109268 0.00682871 -0.00234259)
(0.107646 0.00515433 -0.00399877)
(0.105628 0.00435251 -0.00607056)
(0.103244 0.00416853 -0.00867026)
(0.100221 0.00442049 -0.011958)
(0.096504 0.00497053 -0.0161526)
(0.0913535 0.00574568 -0.0215782)
(0.0849327 0.00660778 -0.0285352)
(0.0750219 0.00753613 -0.037667)
(0.0626872 0.00794759 -0.0479988)
(0.0408331 0.0075316 -0.0577059)
(0.0153606 0.00252458 -0.0400556)
(0.102029 0.0072795 0.000495348)
(0.10585 0.0112226 0.000546659)
(0.109395 0.0111971 -2.05299e-05)
(0.110913 0.00945783 -0.00098072)
(0.111176 0.00769111 -0.0022779)
(0.1105 0.00646499 -0.00391425)
(0.109138 0.00593908 -0.00595986)
(0.107197 0.00602986 -0.0085259)
(0.104484 0.00664744 -0.0117691)
(0.100982 0.00771273 -0.0159108)
(0.0959412 0.00919851 -0.0212698)
(0.0895043 0.0110111 -0.0281678)
(0.0793035 0.0131583 -0.0372369)
(0.0663635 0.0149742 -0.0475814)
(0.0431972 0.0155038 -0.0573526)
(0.0157105 0.00852795 -0.0397891)
(0.101046 0.00486731 0.000525658)
(0.104036 0.00854211 0.00061399)
(0.107441 0.00936891 8.01381e-05)
(0.109495 0.00873678 -0.000844401)
(0.110519 0.00779991 -0.00209678)
(0.110573 0.00714931 -0.00367314)
(0.109851 0.00703771 -0.005636)
(0.108456 0.00750368 -0.00808911)
(0.106235 0.00854273 -0.0111776)
(0.103205 0.0101466 -0.0151154)
(0.0986162 0.0123441 -0.0202001)
(0.092621 0.0151051 -0.026766)
(0.0826824 0.0184863 -0.0354045)
(0.0697795 0.0217272 -0.0453683)
(0.0457059 0.0233529 -0.0548263)
(0.016309 0.0138123 -0.0380103)
(0.100621 0.00339116 0.000562167)
(0.103007 0.00641584 0.000699463)
(0.106098 0.00756835 0.000212312)
(0.108359 0.00764031 -0.000664708)
(0.10984 0.00737955 -0.0018596)
(0.110438 0.00729019 -0.00335921)
(0.110268 0.00763753 -0.00521538)
(0.10941 0.00853389 -0.00752133)
(0.107725 0.0100488 -0.0104066)
(0.105254 0.0122664 -0.0140731)
(0.101244 0.0153152 -0.0187884)
(0.0958632 0.0193356 -0.024897)
(0.0863926 0.0245866 -0.0329271)
(0.0738064 0.0304851 -0.0423337)
(0.0489395 0.0353329 -0.0512946)
(0.0175824 0.023914 -0.0356698)
(0.100464 0.00228836 0.000604915)
(0.102546 0.00459308 0.000799766)
(0.105453 0.00581505 0.000368761)
(0.107845 0.0063332 -0.000451574)
(0.109648 0.00660662 -0.00157834)
(0.110682 0.00701428 -0.00298622)
(0.111014 0.0077922 -0.00471269)
(0.110721 0.00908676 -0.00683505)
(0.109694 0.0110149 -0.00945897)
(0.10803 0.013737 -0.0127609)
(0.105046 0.0174558 -0.0169546)
(0.10102 0.0224753 -0.0223648)
(0.0931737 0.0292079 -0.0293868)
(0.0826596 0.0373262 -0.0377159)
(0.0582243 0.0450215 -0.045449)
(0.0258031 0.0313588 -0.0316358)
(0.100415 0.0013529 0.000651159)
(0.102402 0.00292349 0.000908323)
(0.105289 0.00406307 0.000538509)
(0.107829 0.00485994 -0.000220369)
(0.109899 0.00555081 -0.00127413)
(0.111288 0.00637945 -0.00258421)
(0.112051 0.00753237 -0.00417264)
(0.11227 0.00916821 -0.00609945)
(0.111872 0.0114395 -0.00844542)
(0.110996 0.0145935 -0.0113586)
(0.109038 0.0189397 -0.0149972)
(0.106374 0.0251366 -0.0196593)
(0.100243 0.0340294 -0.0256014)
(0.0922252 0.0471768 -0.032788)
(0.0691303 0.0640499 -0.0393052)
(0.0394823 0.0666417 -0.0283179)
(0.0877217 0.0171209 0.000220337)
(0.0728041 0.0112452 0.000204407)
(0.0587863 0.00672965 -0.000121535)
(0.0514714 0.00313824 -0.000617414)
(0.0470478 0.00141205 -0.00126647)
(0.0445038 0.000631176 -0.00207546)
(0.0425862 0.000333541 -0.00308487)
(0.0408486 0.000221993 -0.00434199)
(0.0388466 0.000182398 -0.00591857)
(0.0365335 0.000145115 -0.00788815)
(0.0334036 9.5365e-05 -0.0103972)
(0.0297393 -5.16704e-05 -0.0134614)
(0.0243894 -0.00024317 -0.0174177)
(0.0182942 -0.00079395 -0.0213972)
(0.00947172 -0.0012285 -0.0250038)
(0.000123611 -0.00296497 -0.0172229)
(0.103974 0.0173238 0.00023944)
(0.103789 0.016012 0.00013686)
(0.10101 0.012145 -0.000397243)
(0.0975992 0.00769207 -0.00120931)
(0.0942472 0.00476534 -0.00227679)
(0.091349 0.00310966 -0.00362057)
(0.0885318 0.00236555 -0.00531007)
(0.0855669 0.00213833 -0.00743267)
(0.082008 0.00220961 -0.0101104)
(0.0777145 0.00243858 -0.0134813)
(0.0719597 0.00276701 -0.0177752)
(0.0648496 0.00306278 -0.0230891)
(0.0546797 0.00334186 -0.0298477)
(0.0422696 0.0030964 -0.0369051)
(0.0241657 0.00246101 -0.0426806)
(0.00488838 -0.00115112 -0.0288387)
(0.103862 0.0112211 0.000241319)
(0.107681 0.0142954 0.000107061)
(0.109791 0.0127267 -0.000477579)
(0.109519 0.00952096 -0.00135115)
(0.10811 0.00694332 -0.00249531)
(0.106105 0.00530003 -0.00393892)
(0.103639 0.00454426 -0.00575912)
(0.100699 0.00442327 -0.00805314)
(0.0969592 0.00476023 -0.0109528)
(0.0922894 0.00541876 -0.0146134)
(0.0859104 0.00633613 -0.0192791)
(0.0778342 0.00736367 -0.0250804)
(0.0661249 0.00849395 -0.0324466)
(0.0514925 0.00906969 -0.0402187)
(0.0298556 0.00864371 -0.0465221)
(0.00640446 0.00315455 -0.0313751)
(0.101997 0.00730871 0.000256783)
(0.105648 0.0112916 0.000131463)
(0.108913 0.0113011 -0.000447589)
(0.110118 0.00959176 -0.00131145)
(0.110037 0.00786015 -0.00244127)
(0.108985 0.00668313 -0.0038663)
(0.107185 0.00622796 -0.00566233)
(0.104699 0.00641645 -0.00792577)
(0.101283 0.00716776 -0.0107855)
(0.0968443 0.00840756 -0.0143992)
(0.0905837 0.0101257 -0.0190061)
(0.0824954 0.0122154 -0.0247553)
(0.0704659 0.0147127 -0.0320639)
(0.0551714 0.0168206 -0.0398371)
(0.0321262 0.0174757 -0.0461679)
(0.00659476 0.00960916 -0.0311118)
(0.101016 0.00490241 0.000285809)
(0.103839 0.00862544 0.00019395)
(0.106971 0.00949759 -0.000354284)
(0.108725 0.00890715 -0.0011848)
(0.109422 0.00801849 -0.00227333)
(0.109121 0.00743349 -0.00364381)
(0.107986 0.00741534 -0.00536511)
(0.106081 0.00801141 -0.00752726)
(0.103198 0.00923066 -0.0102491)
(0.0992853 0.0110741 -0.0136834)
(0.0935341 0.0135967 -0.0180516)
(0.0859567 0.0167562 -0.0235181)
(0.0742209 0.0206609 -0.0304678)
(0.0589841 0.0243629 -0.0379377)
(0.0348999 0.0263081 -0.0440453)
(0.00726693 0.0155081 -0.0296799)
(0.100592 0.00343109 0.000320821)
(0.102816 0.0065108 0.00027437)
(0.105644 0.00771667 -0.0002306)
(0.10762 0.00783964 -0.00101702)
(0.108794 0.00763816 -0.00205286)
(0.109063 0.00762894 -0.00335361)
(0.108513 0.00809037 -0.00497851)
(0.107188 0.0091475 -0.00700851)
(0.104897 0.010889 -0.009549)
(0.101615 0.0134165 -0.0127441)
(0.0965253 0.0168996 -0.0167907)
(0.0896703 0.0214802 -0.0218675)
(0.0784705 0.027512 -0.0283099)
(0.0636345 0.0341839 -0.0353357)
(0.0386096 0.0397962 -0.0410923)
(0.008746 0.02681 -0.027785)
(0.100436 0.00233248 0.000361337)
(0.102362 0.00469746 0.000368391)
(0.105018 0.00597849 -8.46859e-05)
(0.107143 0.00655428 -0.000818842)
(0.108662 0.00689506 -0.00179256)
(0.109399 0.00739362 -0.0030103)
(0.109393 0.00830106 -0.0045186)
(0.108691 0.00977977 -0.00638517)
(0.107136 0.0119705 -0.00869556)
(0.104773 0.0150591 -0.0115757)
(0.100851 0.0193021 -0.0151804)
(0.0955581 0.0250232 -0.0196857)
(0.0861704 0.032768 -0.0253303)
(0.0736929 0.0419666 -0.0315602)
(0.0489278 0.0508966 -0.0365211)
(0.0176237 0.0354107 -0.0247852)
(0.100388 0.00139969 0.000404658)
(0.102226 0.00303343 0.000469531)
(0.104875 0.00423511 7.30122e-05)
(0.107167 0.00509326 -0.00060465)
(0.108978 0.00585622 -0.00151181)
(0.110104 0.00678219 -0.00264087)
(0.110574 0.00807409 -0.00402472)
(0.110446 0.0099095 -0.00571655)
(0.109604 0.0124689 -0.00778098)
(0.108151 0.0160353 -0.0103229)
(0.105416 0.0209872 -0.0134527)
(0.101725 0.0280412 -0.0173371)
(0.0942945 0.0382377 -0.0221121)
(0.084709 0.0529788 -0.0274729)
(0.0611967 0.0721054 -0.0316287)
(0.0325363 0.0732014 -0.0221681)
(0.0877034 0.0171229 0.000110158)
(0.0726937 0.0112536 3.48192e-05)
(0.0585271 0.00673736 -0.000261918)
(0.0510641 0.00314335 -0.000679203)
(0.0464853 0.00141696 -0.00121559)
(0.0437789 0.000637781 -0.00188516)
(0.0416767 0.000343317 -0.00272292)
(0.0397203 0.000235941 -0.00376139)
(0.0374615 0.000202592 -0.00504888)
(0.0348363 0.000175137 -0.00661623)
(0.0313847 0.000143074 -0.0085466)
(0.0273405 3.13221e-05 -0.0107637)
(0.0218166 -9.82361e-05 -0.0134297)
(0.0155574 -0.000508296 -0.0157122)
(0.00752313 -0.000807124 -0.0171056)
(-0.000431498 -0.00224258 -0.0106825)
(0.103948 0.0173354 9.61501e-05)
(0.103632 0.0160404 -8.85502e-05)
(0.100631 0.0121819 -0.000587837)
(0.0969694 0.00773254 -0.00128647)
(0.0933402 0.00481304 -0.00218054)
(0.0901427 0.00317067 -0.00330124)
(0.0869859 0.00244721 -0.00471175)
(0.0836198 0.00224804 -0.00647818)
(0.0795831 0.0023576 -0.00868658)
(0.0747088 0.00263735 -0.0114107)
(0.068315 0.00303729 -0.0147835)
(0.060469 0.00343134 -0.0187588)
(0.0498079 0.00385156 -0.023513)
(0.037033 0.00381048 -0.0279009)
(0.0201085 0.00334921 -0.0303763)
(0.00319305 -0.000163527 -0.0188369)
(0.103837 0.0112429 9.07384e-05)
(0.107518 0.0143451 -0.000130641)
(0.109397 0.0127973 -0.0006794)
(0.108855 0.00960686 -0.00143352)
(0.107145 0.00704793 -0.00239381)
(0.104813 0.00543232 -0.00359926)
(0.101975 0.0047175 -0.00512059)
(0.0985961 0.00465269 -0.00703268)
(0.0943328 0.005066 -0.0094294)
(0.0890266 0.00582333 -0.0123974)
(0.0819383 0.00687294 -0.0160778)
(0.0730489 0.00806329 -0.0204443)
(0.0607658 0.00940696 -0.0256627)
(0.045714 0.0102104 -0.0305486)
(0.0253116 0.00994338 -0.0332718)
(0.00444453 0.00417527 -0.0205198)
(0.101974 0.00733598 0.00010343)
(0.105488 0.011355 -0.000112629)
(0.108525 0.0113961 -0.000657375)
(0.109465 0.00971382 -0.00140298)
(0.109089 0.00801345 -0.00235058)
(0.107716 0.00687957 -0.0035398)
(0.105552 0.00648618 -0.0050403)
(0.102638 0.00675952 -0.00692647)
(0.0987108 0.00762633 -0.00928969)
(0.0936504 0.0090158 -0.0122187)
(0.0866931 0.0109321 -0.0158499)
(0.0778066 0.0132589 -0.0201705)
(0.0652044 0.0160577 -0.0253322)
(0.0494909 0.0184406 -0.0301921)
(0.0276515 0.0192754 -0.03288)
(0.00469949 0.0108089 -0.0201699)
(0.100994 0.00493501 0.000129384)
(0.103684 0.00870181 -5.79054e-05)
(0.106595 0.00961478 -0.000575669)
(0.108094 0.00906163 -0.00129195)
(0.10851 0.00821557 -0.00220361)
(0.107906 0.0076878 -0.0033459)
(0.10643 0.00775041 -0.00478265)
(0.104124 0.00845762 -0.00658312)
(0.100764 0.00982882 -0.00883075)
(0.0962731 0.0118704 -0.0116112)
(0.0898705 0.0146565 -0.0150475)
(0.0815494 0.0181305 -0.019141)
(0.0692699 0.0224366 -0.0240188)
(0.0536381 0.0264874 -0.0286396)
(0.0306778 0.0286722 -0.031161)
(0.0055035 0.0170081 -0.0190172)
(0.100571 0.00346785 0.000160787)
(0.102666 0.0065974 1.33485e-05)
(0.105281 0.00785111 -0.000466433)
(0.107016 0.00801945 -0.00114415)
(0.107927 0.00787007 -0.00201012)
(0.107915 0.00793029 -0.00309252)
(0.107051 0.00848933 -0.00444707)
(0.105361 0.00968166 -0.00613585)
(0.102635 0.0116098 -0.00823171)
(0.0988308 0.0143847 -0.0108151)
(0.0931487 0.0182022 -0.0139907)
(0.0856237 0.0231914 -0.0177757)
(0.0739216 0.0297603 -0.0222632)
(0.0587352 0.0369137 -0.0265546)
(0.034733 0.0429267 -0.0288549)
(0.00714438 0.0288586 -0.0175752)
(0.100415 0.00237271 0.000196877)
(0.102218 0.00479204 9.65182e-05)
(0.104672 0.00612591 -0.000337817)
(0.106571 0.0067528 -0.000970065)
(0.107848 0.00715256 -0.00178243)
(0.10833 0.00772954 -0.00279391)
(0.108044 0.00874699 -0.00404979)
(0.107021 0.0103789 -0.00560203)
(0.10509 0.0127824 -0.00750869)
(0.102281 0.0161567 -0.00983921)
(0.0978561 0.0207904 -0.0126703)
(0.0920107 0.0269991 -0.0160283)
(0.0822018 0.0353975 -0.0199493)
(0.0694795 0.0452072 -0.0237238)
(0.0455914 0.0547096 -0.0256194)
(0.0162826 0.0379844 -0.0156168)
(0.100368 0.00144193 0.00023519)
(0.102089 0.00313243 0.000185651)
(0.104548 0.00438956 -0.000199233)
(0.10663 0.00530191 -0.000782349)
(0.10822 0.0061278 -0.00153732)
(0.109119 0.00713739 -0.00247299)
(0.109345 0.00854659 -0.00362344)
(0.108944 0.0105463 -0.00502957)
(0.107788 0.0133353 -0.00673381)
(0.105972 0.0172148 -0.00879276)
(0.102831 0.0226006 -0.0112536)
(0.0987186 0.0302137 -0.0141489)
(0.0909687 0.0411787 -0.0174563)
(0.0812808 0.0566882 -0.0206759)
(0.0585308 0.0766639 -0.0222028)
(0.0316189 0.0764924 -0.0139602)
(0.087689 0.0171244 4.26976e-05)
(0.0726074 0.0112601 -5.46672e-05)
(0.058322 0.00674341 -0.000305418)
(0.0507366 0.00314722 -0.000638694)
(0.0460265 0.00142039 -0.00106038)
(0.0431803 0.000642135 -0.00158681)
(0.0409188 0.000349461 -0.00224676)
(0.0387742 0.000244119 -0.00306296)
(0.0362967 0.000213442 -0.00406908)
(0.0334085 0.000189859 -0.00527764)
(0.0296905 0.000164945 -0.00674157)
(0.0253454 6.9261e-05 -0.00837811)
(0.0196971 -3.18369e-05 -0.0102818)
(0.0133879 -0.000370384 -0.0118271)
(0.00604468 -0.000615051 -0.0125717)
(-0.000766172 -0.00191092 -0.00786131)
(0.103927 0.0173452 1.35034e-05)
(0.103508 0.0160641 -0.000192753)
(0.10033 0.0122129 -0.000621552)
(0.0964618 0.00776677 -0.00118843)
(0.0925999 0.00485322 -0.00189853)
(0.0891478 0.00322163 -0.00278466)
(0.0857016 0.00251473 -0.00390024)
(0.0819954 0.00233779 -0.0052946)
(0.0775594 0.00247718 -0.00702888)
(0.0722079 0.00279554 -0.00914366)
(0.0653047 0.00324838 -0.0117214)
(0.056901 0.00371255 -0.0146863)
(0.0459162 0.00422985 -0.0181199)
(0.0330241 0.00432013 -0.0211326)
(0.0171869 0.00395439 -0.0224705)
(0.00223374 0.000427125 -0.0138578)
(0.103817 0.0112616 4.94121e-06)
(0.107391 0.0143873 -0.000236585)
(0.109083 0.0128575 -0.000709059)
(0.10832 0.00968019 -0.00132246)
(0.106357 0.00713707 -0.00208643)
(0.103747 0.00554458 -0.00304056)
(0.100592 0.00486374 -0.00424487)
(0.0968417 0.00484535 -0.00575599)
(0.0921407 0.00532133 -0.00764099)
(0.0863119 0.00615891 -0.00994996)
(0.0786581 0.00731449 -0.0127699)
(0.0691522 0.0086327 -0.0160375)
(0.0564868 0.0101403 -0.0198204)
(0.0412912 0.0111101 -0.0231918)
(0.0220373 0.0109494 -0.0246666)
(0.00333212 0.00491268 -0.0151059)
(0.101955 0.00735962 1.47528e-05)
(0.105363 0.0114094 -0.000223894)
(0.108217 0.0114775 -0.000693665)
(0.108939 0.00981831 -0.00130012)
(0.108316 0.00814439 -0.00205368)
(0.10667 0.00704676 -0.00299461)
(0.104195 0.00670505 -0.00418222)
(0.100918 0.00704908 -0.00567286)
(0.0965623 0.00801158 -0.00753177)
(0.0909902 0.00952399 -0.00981097)
(0.0834756 0.0116013 -0.0125938)
(0.0739813 0.0141176 -0.0158278)
(0.0609927 0.0171528 -0.0195694)
(0.0451317 0.0197449 -0.0229229)
(0.024416 0.0207087 -0.0243698)
(0.00362875 0.0117531 -0.0148489)
(0.100976 0.0049633 3.62607e-05)
(0.103563 0.00876751 -0.000179154)
(0.106297 0.00971525 -0.000626889)
(0.107588 0.00919386 -0.00120927)
(0.107768 0.00838389 -0.00193356)
(0.106906 0.00790437 -0.00283663)
(0.105137 0.00803485 -0.00397315)
(0.102491 0.00883512 -0.00539562)
(0.0987297 0.010333 -0.00716332)
(0.0937608 0.0125387 -0.00932665)
(0.0868348 0.0155408 -0.0119595)
(0.0779446 0.0192695 -0.0150217)
(0.0652942 0.0238955 -0.0185532)
(0.0495237 0.0282205 -0.0217354)
(0.0276178 0.0305896 -0.0230762)
(0.00452189 0.0182534 -0.0139997)
(0.100554 0.00349965 6.23728e-05)
(0.102549 0.0066718 -0.00012037)
(0.104995 0.00796623 -0.000536959)
(0.106532 0.00817315 -0.00108778)
(0.107222 0.00806791 -0.00177494)
(0.106971 0.00818677 -0.00262968)
(0.105838 0.00882795 -0.00370026)
(0.103837 0.0101336 -0.00503369)
(0.100744 0.0122175 -0.00668134)
(0.096507 0.0151971 -0.00869034)
(0.0903477 0.0192886 -0.0111218)
(0.0823087 0.0246083 -0.0139492)
(0.0702628 0.0316028 -0.0171904)
(0.0549618 0.0391339 -0.020134)
(0.031926 0.045451 -0.0213357)
(0.00627847 0.0305723 -0.0129241)
(0.100399 0.00240734 9.22736e-05)
(0.102107 0.00487308 -5.17978e-05)
(0.1044 0.00625189 -0.000431152)
(0.106115 0.00692221 -0.000944895)
(0.107187 0.00737198 -0.00158866)
(0.107451 0.00801526 -0.00238639)
(0.106925 0.00912548 -0.00337822)
(0.105628 0.010886 -0.00460365)
(0.103377 0.0134676 -0.00610325)
(0.100197 0.0170793 -0.00791738)
(0.0953623 0.0220344 -0.0100881)
(0.089089 0.0286401 -0.0125999)
(0.078989 0.0375603 -0.0154356)
(0.0662108 0.0478569 -0.0180239)
(0.043166 0.0578032 -0.0189913)
(0.0155905 0.0401837 -0.0115324)
(0.100353 0.0014781 0.000123887)
(0.101984 0.00321698 2.15581e-05)
(0.104292 0.00452123 -0.000317291)
(0.106203 0.00547964 -0.000791009)
(0.107607 0.00635891 -0.00138829)
(0.108312 0.00743927 -0.00212502)
(0.108328 0.00894751 -0.00303253)
(0.107693 0.0110853 -0.00414208)
(0.106268 0.0140667 -0.00548271)
(0.104147 0.0182064 -0.00708648)
(0.100675 0.0239492 -0.00897517)
(0.0962371 0.0320171 -0.0111418)
(0.0882718 0.0435948 -0.0135338)
(0.0786186 0.059717 -0.0157337)
(0.0566054 0.0803569 -0.0164923)
(0.0312263 0.079378 -0.0103185)
(0.0876787 0.0171256 8.15732e-06)
(0.0725448 0.0112652 -8.18698e-05)
(0.0581717 0.00674814 -0.000271675)
(0.0504947 0.00315048 -0.00051421)
(0.045687 0.00142351 -0.000816727)
(0.0427385 0.000646346 -0.00119315)
(0.0403651 0.000355743 -0.00166383)
(0.0380952 0.000253212 -0.00224199)
(0.0354836 0.000226697 -0.00294674)
(0.0324491 0.000209568 -0.00377702)
(0.0286097 0.000195567 -0.00475747)
(0.024155 0.000119878 -0.00581133)
(0.0185363 5.12514e-05 -0.00697788)
(0.0123322 -0.000225689 -0.00783588)
(0.00540196 -0.00041466 -0.008048)
(-0.000790579 -0.00164698 -0.00485361)
(0.103912 0.0173529 -2.2347e-05)
(0.103417 0.0160827 -0.000202838)
(0.100107 0.0122372 -0.000530923)
(0.0960843 0.00779389 -0.000948317)
(0.0920477 0.00488517 -0.00146225)
(0.0884063 0.00326224 -0.00209985)
(0.0847508 0.0025687 -0.00290014)
(0.0808084 0.00240994 -0.00389511)
(0.0761111 0.00257405 -0.0051216)
(0.0704696 0.00292504 -0.00659438)
(0.0632933 0.00342313 -0.00835231)
(0.054637 0.00394798 -0.0103126)
(0.0435993 0.00454937 -0.0124902)
(0.0308444 0.0047487 -0.0142678)
(0.0157315 0.00447165 -0.0147352)
(0.00193668 0.000900018 -0.00880815)
(0.103803 0.0112764 -3.07704e-05)
(0.107297 0.0144206 -0.000240087)
(0.108852 0.0129048 -0.000602225)
(0.107922 0.00973793 -0.0010547)
(0.105769 0.00720719 -0.00160847)
(0.102951 0.00563269 -0.0022958)
(0.0995666 0.00497824 -0.00316085)
(0.095556 0.00499585 -0.00424096)
(0.0905657 0.00552047 -0.00557706)
(0.0844153 0.00642044 -0.0071902)
(0.0764516 0.00765855 -0.00912116)
(0.0666587 0.00907717 -0.0112939)
(0.0539127 0.010714 -0.0137097)
(0.0388567 0.011817 -0.0157202)
(0.0203862 0.0117502 -0.0162466)
(0.0029766 0.00550312 -0.009636)
(0.101942 0.00737836 -2.38213e-05)
(0.105272 0.0114523 -0.000231755)
(0.107989 0.0115416 -0.000592217)
(0.108548 0.00990044 -0.00103958)
(0.107738 0.00824699 -0.00158568)
(0.105889 0.00717721 -0.00226334)
(0.10319 0.00687498 -0.0031163)
(0.0996589 0.00727264 -0.00418176)
(0.0950202 0.00830727 -0.00549942)
(0.0891349 0.00991158 -0.00709178)
(0.0813171 0.0121082 -0.00899703)
(0.0715441 0.0147639 -0.0111464)
(0.0584756 0.0179718 -0.013533)
(0.042757 0.0207179 -0.0155283)
(0.022809 0.0217788 -0.0160292)
(0.00331376 0.0124677 -0.00944637)
(0.100963 0.00498571 -7.77551e-06)
(0.103474 0.00881932 -0.000198668)
(0.106077 0.00979426 -0.00054285)
(0.107211 0.00929756 -0.000972375)
(0.107214 0.00851538 -0.00149693)
(0.10616 0.00807267 -0.00214694)
(0.104179 0.00825449 -0.00296284)
(0.101296 0.00912447 -0.0039792)
(0.0972718 0.0107161 -0.00523169)
(0.0920133 0.0130415 -0.00674208)
(0.0848073 0.0161986 -0.00854253)
(0.075664 0.0201068 -0.0105734)
(0.0629434 0.0249536 -0.0128174)
(0.0473201 0.0294651 -0.0146985)
(0.0261344 0.0319519 -0.0151355)
(0.00427037 0.0191417 -0.00886758)
(0.100542 0.00352477 1.17517e-05)
(0.102464 0.00673036 -0.000154909)
(0.104784 0.0080566 -0.000476006)
(0.106174 0.00829341 -0.000882205)
(0.106697 0.00822202 -0.00137948)
(0.106267 0.00838534 -0.00199424)
(0.104939 0.00908815 -0.00276233)
(0.102722 0.0104777 -0.00371458)
(0.0993915 0.0126749 -0.00488137)
(0.0948949 0.0158005 -0.00628278)
(0.0884855 0.0200824 -0.0079429)
(0.0802278 0.0256246 -0.0098127)
(0.0681263 0.0328953 -0.011862)
(0.0529822 0.0406607 -0.0135868)
(0.0306078 0.0471435 -0.0139469)
(0.00610297 0.0317081 -0.008146)
(0.100388 0.00243459 3.40653e-05)
(0.102026 0.00493672 -0.000103874)
(0.1042 0.00635057 -0.000397401)
(0.105777 0.00705447 -0.000776273)
(0.106696 0.00754248 -0.00124179)
(0.106798 0.00823583 -0.00181515)
(0.106097 0.00941526 -0.00252649)
(0.10461 0.0112703 -0.00340166)
(0.102152 0.01398 -0.00446404)
(0.0987509 0.0177581 -0.00573025)
(0.0937062 0.0229319 -0.0072131)
(0.0872614 0.0297969 -0.00887368)
(0.0771284 0.0390426 -0.0106632)
(0.0645263 0.0496253 -0.0121706)
(0.0420674 0.0597966 -0.0124194)
(0.0155163 0.0415786 -0.00727296)
(0.100342 0.00150645 5.75962e-05)
(0.101907 0.0032832 -4.93491e-05)
(0.104104 0.00462414 -0.000312887)
(0.105887 0.0056181 -0.000662283)
(0.107152 0.00653811 -0.0010938)
(0.107711 0.00767175 -0.00162286)
(0.107575 0.00925351 -0.00227342)
(0.106777 0.011492 -0.00306588)
(0.105178 0.0146103 -0.00401618)
(0.10288 0.0189298 -0.00513652)
(0.0992436 0.02491 -0.00642789)
(0.0946893 0.0332653 -0.00786018)
(0.0867252 0.045208 -0.00936696)
(0.077281 0.0616672 -0.0106394)
(0.0557888 0.0826167 -0.0108046)
(0.031311 0.0811341 -0.00652707)
(0.0876718 0.0171263 -3.83494e-06)
(0.0725031 0.0112686 -6.68225e-05)
(0.0580713 0.00675121 -0.000184519)
(0.0503321 0.00315253 -0.000332554)
(0.0454574 0.00142533 -0.000515004)
(0.0424381 0.000648692 -0.000741988)
(0.0399869 0.000359117 -0.00102573)
(0.0376298 0.00025786 -0.0013737)
(0.0349252 0.000233097 -0.00179655)
(0.0317898 0.000218591 -0.0022915)
(0.0278673 0.000209151 -0.00287121)
(0.0233417 0.000142452 -0.003487)
(0.017746 8.88415e-05 -0.00415717)
(0.011628 -0.000157949 -0.00464012)
(0.00498514 -0.000322976 -0.00472602)
(-0.000808302 -0.00152435 -0.00286121)
(0.103902 0.0173581 -2.64684e-05)
(0.103356 0.0160953 -0.000148026)
(0.0999586 0.0122537 -0.000353765)
(0.0958303 0.00781241 -0.000609823)
(0.0916743 0.00490691 -0.00092156)
(0.0879026 0.00328974 -0.00130722)
(0.0841029 0.00260501 -0.00179092)
(0.0799979 0.00245811 -0.0023914)
(0.0751219 0.00263815 -0.00312955)
(0.0692844 0.00300981 -0.00401101)
(0.0619268 0.00353609 -0.00505514)
(0.0531114 0.00409791 -0.00620678)
(0.0420541 0.00474963 -0.00746578)
(0.029424 0.00501163 -0.0084714)
(0.0148152 0.00478073 -0.0086724)
(0.00176509 0.00116623 -0.00518165)
(0.103793 0.0112866 -3.21776e-05)
(0.107235 0.0144434 -0.000172675)
(0.108697 0.0129373 -0.000400254)
(0.107654 0.00977765 -0.000677972)
(0.105371 0.00725537 -0.00101423)
(0.10241 0.00569312 -0.0014302)
(0.0988674 0.00505654 -0.00195336)
(0.0946779 0.00509848 -0.00260569)
(0.0894897 0.00565576 -0.00341057)
(0.0831217 0.00659735 -0.00437722)
(0.0749521 0.00788998 -0.00552592)
(0.0649778 0.00937407 -0.00680487)
(0.0521954 0.011094 -0.00820519)
(0.0372692 0.0122798 -0.00934616)
(0.0193453 0.0122673 -0.00957494)
(0.00277133 0.00587249 -0.00567267)
(0.101933 0.00739133 -2.81531e-05)
(0.105211 0.0114819 -0.000167937)
(0.107837 0.0115858 -0.000394668)
(0.108285 0.00995707 -0.000669219)
(0.107348 0.00831767 -0.00100079)
(0.105359 0.00726693 -0.00141084)
(0.102504 0.00699162 -0.00192665)
(0.0987983 0.00742578 -0.00257015)
(0.093966 0.00850929 -0.00336401)
(0.0878682 0.0101756 -0.00431839)
(0.0798484 0.012452 -0.0054521)
(0.0698984 0.0152002 -0.00671767)
(0.0567927 0.018521 -0.00810152)
(0.0412048 0.0213658 -0.00923447)
(0.0217933 0.0224851 -0.00944941)
(0.00313182 0.0129345 -0.00556448)
(0.100955 0.00500125 -1.8223e-05)
(0.103415 0.00885513 -0.000147622)
(0.10593 0.00984881 -0.000364389)
(0.106958 0.00936911 -0.000627969)
(0.10684 0.00860603 -0.00094637)
(0.105653 0.00818856 -0.00133955)
(0.103526 0.00840554 -0.00183286)
(0.10048 0.00932315 -0.00244666)
(0.0962745 0.0109787 -0.00320131)
(0.0908191 0.0133854 -0.00410666)
(0.0834257 0.0166471 -0.00517824)
(0.0741211 0.0206757 -0.0063741)
(0.0613679 0.0256686 -0.0076755)
(0.045876 0.0303024 -0.00874327)
(0.0251949 0.0328634 -0.00892565)
(0.00412706 0.0197383 -0.00522981)
(0.100534 0.00354218 -6.17403e-06)
(0.102408 0.00677084 -0.000120674)
(0.104644 0.00811899 -0.000323215)
(0.105933 0.00837637 -0.00057247)
(0.106342 0.00832826 -0.000874172)
(0.10579 0.0085221 -0.00124584)
(0.104327 0.00926716 -0.00171009)
(0.10196 0.0107141 -0.00228504)
(0.0984658 0.0129887 -0.00298795)
(0.0937925 0.0162135 -0.00382781)
(0.0872155 0.020624 -0.00481566)
(0.0788183 0.0263155 -0.00591593)
(0.0666926 0.033769 -0.00710321)
(0.0516837 0.0416886 -0.00807965)