/*--------------------------------*- C++ -*----------------------------------*\
| =========                 |                                                 |
| \\      /  F ield         | OpenFOAM: The Open Source CFD Toolbox           |
|  \\    /   O peration     | Version:  v1912                                 |
|   \\  /    A nd           | Website:  www.openfoam.com                      |
|    \\/     M anipulation  |                                                 |
\*---------------------------------------------------------------------------*/
FoamFile
{
    version     2.0;
    format      ascii;
    class       volVectorField;
    location    "0.11/solid";
    object      DD_0_0;
}
// * * * * * * * * * * * * * * * * * * * * * * * * * * * * * * * * * * * * * //

dimensions      [0 1 0 0 0 0 0];


internalField   nonuniform List<vector> 
256
(
(1.74578e-09 9.60372e-10 2.45232e-09)
(3.93141e-10 2.26677e-10 1.64525e-09)
(-2.60304e-10 2.08117e-10 1.69088e-09)
(-1.55746e-09 8.4373e-10 2.61578e-09)
(2.65459e-09 -3.16019e-10 5.00543e-09)
(8.33906e-10 -7.27847e-10 4.04785e-09)
(-3.51202e-10 -8.14082e-10 4.15996e-09)
(-2.09552e-09 -6.30718e-10 5.37272e-09)
(2.74246e-09 -1.91263e-09 6.70512e-09)
(1.02217e-09 -2.10205e-09 5.84377e-09)
(-1.18699e-10 -2.25313e-09 5.99755e-09)
(-1.76709e-09 -2.40424e-09 7.19462e-09)
(2.75457e-09 -3.56684e-09 8.12133e-09)
(1.17613e-09 -3.75649e-09 7.30609e-09)
(2.12439e-10 -3.96422e-09 7.48517e-09)
(-1.29996e-09 -4.21578e-09 8.68597e-09)
(2.9154e-09 -5.25566e-09 9.4604e-09)
(1.40857e-09 -5.58058e-09 8.65063e-09)
(5.291e-10 -5.83867e-09 8.84526e-09)
(-9.15729e-10 -6.04686e-09 1.00716e-08)
(3.40418e-09 -7.00822e-09 1.0899e-08)
(1.80866e-09 -7.50339e-09 1.00871e-08)
(7.42332e-10 -7.80731e-09 1.02913e-08)
(-7.94895e-10 -7.92994e-09 1.15381e-08)
(4.51707e-09 -9.05185e-09 1.26515e-08)
(2.45871e-09 -9.45621e-09 1.18674e-08)
(7.68562e-10 -9.80207e-09 1.20783e-08)
(-1.23749e-09 -1.00953e-08 1.33076e-08)
(6.30036e-09 -1.21519e-08 1.46787e-08)
(3.14987e-09 -1.16295e-08 1.39941e-08)
(8.10574e-10 -1.20076e-08 1.42109e-08)
(-2.29789e-09 -1.33099e-08 1.53476e-08)
(3.89274e-10 -3.11968e-10 1.19421e-09)
(9.95226e-11 -6.20997e-10 1.24328e-09)
(-3.48032e-11 -6.55773e-10 1.28019e-09)
(-2.65498e-10 -4.56529e-10 1.30723e-09)
(6.80376e-10 -1.64302e-09 3.35524e-09)
(2.98292e-10 -1.86231e-09 3.52276e-09)
(1.27118e-11 -1.96647e-09 3.61528e-09)
(-2.90554e-10 -1.98566e-09 3.63057e-09)
(7.35236e-10 -3.07834e-09 5.09542e-09)
(4.33733e-10 -3.23708e-09 5.345e-09)
(2.22091e-10 -3.39993e-09 5.47439e-09)
(-4.08433e-12 -3.58564e-09 5.47887e-09)
(7.87122e-10 -4.61101e-09 6.55018e-09)
(5.83074e-10 -4.81345e-09 6.82964e-09)
(5.03842e-10 -5.02755e-09 6.98252e-09)
(3.71218e-10 -5.26608e-09 7.00448e-09)
(9.84077e-10 -6.20317e-09 7.89465e-09)
(8.17588e-10 -6.54966e-09 8.17293e-09)
(7.81233e-10 -6.81085e-09 8.34093e-09)
(6.83709e-10 -6.99548e-09 8.39564e-09)
(1.52664e-09 -7.81137e-09 9.26606e-09)
(1.22894e-09 -8.3335e-09 9.53086e-09)
(9.5848e-10 -8.63887e-09 9.7087e-09)
(7.27218e-10 -8.7326e-09 9.79745e-09)
(2.74322e-09 -9.43753e-09 1.06531e-08)
(1.90742e-09 -9.85043e-09 1.09059e-08)
(9.40546e-10 -1.01967e-08 1.10901e-08)
(1.66176e-10 -1.04804e-08 1.12035e-08)
(4.69026e-09 -1.14239e-08 1.15719e-08)
(2.63179e-09 -1.08061e-08 1.18191e-08)
(9.40537e-10 -1.11824e-08 1.20066e-08)
(-1.06659e-09 -1.25795e-08 1.21316e-08)
(-2.91876e-10 -6.4222e-10 8.65497e-10)
(-1.5118e-10 -7.6024e-10 1.02839e-09)
(1.77551e-10 -7.93715e-10 1.05649e-09)
(3.72799e-10 -7.66441e-10 9.48432e-10)
(-4.96833e-10 -2.27793e-09 2.61155e-09)
(-1.85759e-10 -2.35188e-09 2.94093e-09)
(3.83894e-10 -2.45314e-09 3.0112e-09)
(7.69161e-10 -2.59407e-09 2.81531e-09)
(-5.18181e-10 -3.80489e-09 4.19494e-09)
(-1.1008e-10 -3.9149e-09 4.59255e-09)
(5.88724e-10 -4.0737e-09 4.69221e-09)
(1.06931e-09 -4.28628e-09 4.48491e-09)
(-4.40479e-10 -5.30242e-09 5.58396e-09)
(3.34722e-11 -5.5058e-09 6.00145e-09)
(8.25281e-10 -5.71534e-09 6.12135e-09)
(1.36967e-09 -5.93412e-09 5.93548e-09)
(-2.09134e-10 -6.76498e-09 6.84253e-09)
(2.71011e-10 -7.13102e-09 7.25739e-09)
(1.06152e-09 -7.38788e-09 7.39133e-09)
(1.61119e-09 -7.53795e-09 7.23782e-09)
(3.85217e-10 -8.12192e-09 8.01292e-09)
(6.945e-10 -8.67037e-09 8.41248e-09)
(1.19965e-09 -8.97218e-09 8.55605e-09)
(1.5771e-09 -9.02878e-09 8.43856e-09)
(1.69362e-09 -9.35483e-09 9.00206e-09)
(1.40161e-09 -9.78259e-09 9.37786e-09)
(1.13553e-09 -1.01263e-08 9.52754e-09)
(9.07454e-10 -1.03886e-08 9.44696e-09)
(3.74841e-09 -1.09735e-08 9.51317e-09)
(2.15763e-09 -1.03327e-08 9.86545e-09)
(1.09442e-09 -1.07072e-08 1.00177e-08)
(-4.42345e-10 -1.2126e-08 9.96655e-09)
(-5.04965e-10 -7.4815e-10 7.08258e-10)
(-2.41721e-10 -7.83735e-10 7.92264e-10)
(2.46426e-10 -8.13644e-10 8.13104e-10)
(5.57737e-10 -8.52313e-10 7.68598e-10)
(-9.28873e-10 -2.55636e-09 2.11449e-09)
(-3.90326e-10 -2.553e-09 2.29959e-09)
(5.16497e-10 -2.64574e-09 2.35147e-09)
(1.12233e-09 -2.83776e-09 2.26278e-09)
(-1.01683e-09 -4.19371e-09 3.44024e-09)
(-3.6098e-10 -4.26783e-09 3.67209e-09)
(7.17989e-10 -4.41688e-09 3.74617e-09)
(1.44149e-09 -4.63865e-09 3.65345e-09)
(-9.4022e-10 -5.69787e-09 4.64107e-09)
(-2.31345e-10 -5.89563e-09 4.88901e-09)
(9.25051e-10 -6.09609e-09 4.97929e-09)
(1.70121e-09 -6.29686e-09 4.90378e-09)
(-6.91739e-10 -7.06596e-09 5.71248e-09)
(2.78559e-12 -7.44204e-09 5.9609e-09)
(1.12979e-09 -7.69128e-09 6.0632e-09)
(1.89187e-09 -7.81221e-09 6.01287e-09)
(-6.65486e-11 -8.24947e-09 6.63986e-09)
(4.30561e-10 -8.81568e-09 6.87868e-09)
(1.23758e-09 -9.11169e-09 6.98968e-09)
(1.80178e-09 -9.1364e-09 6.96784e-09)
(1.29273e-09 -9.30414e-09 7.3524e-09)
(1.15152e-09 -9.74903e-09 7.57398e-09)
(1.14196e-09 -1.00889e-08 7.69059e-09)
(1.06423e-09 -1.03252e-08 7.69846e-09)
(3.4057e-09 -1.08579e-08 7.73439e-09)
(1.92392e-09 -1.02248e-08 7.94041e-09)
(1.0745e-09 -1.05976e-08 8.05923e-09)
(-3.53708e-10 -1.20056e-08 8.08824e-09)
(-5.47072e-10 -7.94426e-10 5.60703e-10)
(-2.57234e-10 -7.98942e-10 5.85238e-10)
(2.49516e-10 -8.25927e-10 5.9997e-10)
(5.81887e-10 -8.84172e-10 6.02646e-10)
(-1.02701e-09 -2.68e-09 1.65176e-09)
(-4.40376e-10 -2.64319e-09 1.71775e-09)
(5.21411e-10 -2.72809e-09 1.75451e-09)
(1.16897e-09 -2.93284e-09 1.75547e-09)
(-1.14567e-09 -4.3819e-09 2.68727e-09)
(-4.35869e-10 -4.43592e-09 2.77838e-09)
(7.12064e-10 -4.57538e-09 2.83116e-09)
(1.48478e-09 -4.79419e-09 2.83768e-09)
(-1.07897e-09 -5.90009e-09 3.63563e-09)
(-3.20949e-10 -6.09093e-09 3.73866e-09)
(9.00043e-10 -6.28215e-09 3.80362e-09)
(1.72197e-09 -6.46824e-09 3.82325e-09)
(-8.28339e-10 -7.2246e-09 4.47227e-09)
(-9.50038e-11 -7.60301e-09 4.57855e-09)
(1.08402e-09 -7.84436e-09 4.65302e-09)
(1.88245e-09 -7.94476e-09 4.68972e-09)
(-1.92026e-10 -8.3352e-09 5.16994e-09)
(3.3004e-10 -8.90991e-09 5.27302e-09)
(1.17186e-09 -9.19978e-09 5.35468e-09)
(1.75924e-09 -9.20203e-09 5.41026e-09)
(1.18863e-09 -9.3436e-09 5.69178e-09)
(1.05398e-09 -9.79906e-09 5.78644e-09)
(1.05718e-09 -1.01347e-08 5.87284e-09)
(9.84714e-10 -1.0351e-08 5.94759e-09)
(3.331e-09 -1.09019e-08 6.00185e-09)
(1.8324e-09 -1.02754e-08 6.08802e-09)
(9.73884e-10 -1.06459e-08 6.17611e-09)
(-4.72549e-10 -1.20428e-08 6.26403e-09)
(-5.48414e-10 -8.1609e-10 4.04731e-10)
(-2.55021e-10 -8.1071e-10 4.06112e-10)
(2.40337e-10 -8.35615e-10 4.1577e-10)
(5.72188e-10 -8.96126e-10 4.31847e-10)
(-1.03022e-09 -2.73551e-09 1.1833e-09)
(-4.43981e-10 -2.68672e-09 1.19696e-09)
(4.97635e-10 -2.76584e-09 1.22119e-09)
(1.13985e-09 -2.96807e-09 1.25095e-09)
(-1.15603e-09 -4.46767e-09 1.92085e-09)
(-4.49997e-10 -4.51221e-09 1.94568e-09)
(6.74873e-10 -4.64426e-09 1.98069e-09)
(1.43989e-09 -4.85549e-09 2.01977e-09)
(-1.0967e-09 -5.99781e-09 2.59681e-09)
(-3.4576e-10 -6.18309e-09 2.62908e-09)
(8.4944e-10 -6.36687e-09 2.67253e-09)
(1.66132e-09 -6.54176e-09 2.72141e-09)
(-8.50099e-10 -7.31295e-09 3.18895e-09)
(-1.284e-10 -7.68994e-09 3.22504e-09)
(1.02029e-09 -7.92471e-09 3.27531e-09)
(1.80481e-09 -8.01183e-09 3.33489e-09)
(-2.13213e-10 -8.409e-09 3.6762e-09)
(2.91235e-10 -8.98595e-09 3.71271e-09)
(1.09581e-09 -9.27052e-09 3.7683e-09)
(1.6638e-09 -9.25877e-09 3.83907e-09)
(1.17461e-09 -9.42021e-09 4.04202e-09)
(1.01369e-09 -9.87891e-09 4.07566e-09)
(9.69523e-10 -1.02107e-08 4.13481e-09)
(8.69339e-10 -1.04152e-08 4.21662e-09)
(3.33172e-09 -1.09928e-08 4.27636e-09)
(1.7933e-09 -1.03644e-08 4.30543e-09)
(8.76431e-10 -1.07324e-08 4.36571e-09)
(-6.11393e-10 -1.21262e-08 4.45554e-09)
(-5.46003e-10 -8.2574e-10 2.43864e-10)
(-2.52441e-10 -8.17497e-10 2.40704e-10)
(2.34122e-10 -8.41073e-10 2.46133e-10)
(5.63502e-10 -8.99804e-10 2.58953e-10)
(-1.02204e-09 -2.75956e-09 7.10248e-10)
(-4.41515e-10 -2.70711e-09 7.09554e-10)
(4.79816e-10 -2.78253e-09 7.23249e-10)
(1.113e-09 -2.97938e-09 7.48183e-10)
(-1.14732e-09 -4.50498e-09 1.15078e-09)
(-4.5172e-10 -4.54553e-09 1.15442e-09)
(6.4676e-10 -4.67272e-09 1.17432e-09)
(1.39858e-09 -4.87697e-09 1.20663e-09)
(-1.09148e-09 -6.04385e-09 1.55375e-09)
(-3.53744e-10 -6.22558e-09 1.56124e-09)
(8.12383e-10 -6.40433e-09 1.58609e-09)
(1.60887e-09 -6.57164e-09 1.6246e-09)
(-8.49068e-10 -7.36328e-09 1.90551e-09)
(-1.42642e-10 -7.73811e-09 1.91575e-09)
(9.75299e-10 -7.9683e-09 1.94468e-09)
(1.74279e-09 -8.04753e-09 1.98911e-09)
(-2.14563e-10 -8.46518e-09 2.19428e-09)
(2.72269e-10 -9.04169e-09 2.2058e-09)
(1.04358e-09 -9.32245e-09 2.23798e-09)
(1.59253e-09 -9.30283e-09 2.28822e-09)
(1.17517e-09 -9.48916e-09 2.41324e-09)
(9.92566e-10 -9.94732e-09 2.4242e-09)
(9.10321e-10 -1.02762e-08 2.45859e-09)
(7.87254e-10 -1.04749e-08 2.51442e-09)
(3.33948e-09 -1.10739e-08 2.55942e-09)
(1.77172e-09 -1.04397e-08 2.56803e-09)
(8.11368e-10 -1.08058e-08 2.60305e-09)
(-7.07061e-10 -1.22011e-08 2.66332e-09)
(-5.45229e-10 -8.29367e-10 8.13888e-11)
(-2.51515e-10 -8.20308e-10 7.9926e-11)
(2.31675e-10 -8.43239e-10 8.16728e-11)
(5.59917e-10 -9.00606e-10 8.62177e-11)
(-1.01837e-09 -2.7684e-09 2.36652e-10)
(-4.40518e-10 -2.71498e-09 2.35444e-10)
(4.72032e-10 -2.78862e-09 2.39865e-10)
(1.10088e-09 -2.98214e-09 2.48846e-10)
(-1.14258e-09 -4.51894e-09 3.83055e-10)
(-4.52308e-10 -4.55806e-09 3.82963e-10)
(6.33828e-10 -4.68288e-09 3.89409e-10)
(1.37891e-09 -4.88327e-09 4.01072e-10)
(-1.08795e-09 -6.06254e-09 5.16786e-10)
(-3.57122e-10 -6.24262e-09 5.17868e-10)
(7.94997e-10 -6.41888e-09 5.25943e-10)
(1.58343e-09 -6.58239e-09 5.39731e-10)
(-8.47753e-10 -7.38688e-09 6.33369e-10)
(-1.4913e-10 -7.76038e-09 6.35422e-10)
(9.54121e-10 -7.98828e-09 6.44856e-10)
(1.71288e-09 -8.06382e-09 6.60547e-10)
(-2.14945e-10 -8.49531e-09 7.29126e-10)
(2.63257e-10 -9.0711e-09 7.31753e-10)
(1.01901e-09 -9.34991e-09 7.42281e-10)
(1.55856e-09 -9.32679e-09 7.5977e-10)
(1.1752e-09 -9.52781e-09 8.02186e-10)
(9.82281e-10 -9.98492e-09 8.04806e-10)
(8.82433e-10 -1.03123e-08 8.16074e-10)
(7.48387e-10 -1.05087e-08 8.35274e-10)
(3.34249e-09 -1.11194e-08 8.51831e-10)
(1.76094e-09 -1.0481e-08 8.53708e-10)
(7.80741e-10 -1.0846e-08 8.6518e-10)
(-7.52175e-10 -1.22433e-08 8.8581e-10)
)
;

boundaryField
{
    interface
    {
        type            calculated;
        value           nonuniform List<vector> 
192
(
(-1.58154e-09 2.06048e-09 2.13477e-09)
(-9.38053e-10 -6.68326e-11 4.50704e-09)
(-8.22867e-10 -1.88761e-09 6.17968e-09)
(-7.28057e-10 -3.52357e-09 7.60147e-09)
(-4.48067e-10 -5.09322e-09 8.95166e-09)
(1.72628e-10 -6.60776e-09 1.04085e-08)
(1.34087e-09 -8.32776e-09 1.21909e-08)
(4.04339e-09 -1.16445e-08 1.42561e-08)
(-4.23058e-09 -4.454e-11 6.84823e-10)
(-4.05157e-09 -1.55651e-09 2.5674e-09)
(-3.96809e-09 -3.05163e-09 4.28028e-09)
(-3.8388e-09 -4.54876e-09 5.75144e-09)
(-3.51958e-09 -6.01826e-09 7.11354e-09)
(-2.83106e-09 -7.37154e-09 8.51134e-09)
(-1.53564e-09 -8.64658e-09 9.94724e-09)
(1.51361e-09 -1.08778e-08 1.0934e-08)
(-5.06689e-09 -8.39379e-10 6.41955e-10)
(-5.32089e-09 -2.33449e-09 2.20925e-09)
(-5.31106e-09 -3.79078e-09 3.75693e-09)
(-5.15907e-09 -5.22513e-09 5.15214e-09)
(-4.80663e-09 -6.55852e-09 6.42359e-09)
(-4.06316e-09 -7.6462e-09 7.61464e-09)
(-2.66722e-09 -8.514e-09 8.63945e-09)
(5.15068e-10 -1.03953e-08 9.19204e-09)
(-5.47099e-09 -1.10659e-09 6.44474e-10)
(-5.923e-09 -2.6843e-09 1.98196e-09)
(-5.97636e-09 -4.19652e-09 3.28338e-09)
(-5.82345e-09 -5.61657e-09 4.48146e-09)
(-5.45071e-09 -6.84751e-09 5.5577e-09)
(-4.67205e-09 -7.75332e-09 6.49557e-09)
(-3.2209e-09 -8.43605e-09 7.22616e-09)
(3.76661e-11 -1.0259e-08 7.63005e-09)
(-5.66725e-09 -1.18792e-09 5.4985e-10)
(-6.1694e-09 -2.82962e-09 1.62643e-09)
(-6.25055e-09 -4.39487e-09 2.65248e-09)
(-6.10424e-09 -5.82072e-09 3.59652e-09)
(-5.72542e-09 -7.00283e-09 4.43269e-09)
(-4.93202e-09 -7.83092e-09 5.13329e-09)
(-3.45852e-09 -8.46281e-09 5.66226e-09)
(-1.60485e-10 -1.02922e-08 5.98337e-09)
(-5.77326e-09 -1.21072e-09 4.05006e-10)
(-6.27546e-09 -2.88739e-09 1.18455e-09)
(-6.36166e-09 -4.48426e-09 1.92045e-09)
(-6.21992e-09 -5.9213e-09 2.59369e-09)
(-5.84212e-09 -7.09204e-09 3.18377e-09)
(-5.04599e-09 -7.90278e-09 3.67058e-09)
(-3.56613e-09 -8.53394e-09 4.03866e-09)
(-2.47205e-10 -1.03784e-08 4.27849e-09)
(-5.83334e-09 -1.21773e-09 2.44664e-10)
(-6.32888e-09 -2.90986e-09 7.13211e-10)
(-6.41316e-09 -4.52231e-09 1.15415e-09)
(-6.27308e-09 -5.96925e-09 1.55595e-09)
(-5.89762e-09 -7.14401e-09 1.9061e-09)
(-5.10281e-09 -7.95908e-09 2.19386e-09)
(-3.62218e-09 -8.60061e-09 2.41339e-09)
(-2.92535e-10 -1.04581e-08 2.56212e-09)
(-5.86141e-09 -1.22024e-09 8.15838e-11)
(-6.35361e-09 -2.91771e-09 2.3757e-10)
(-6.43614e-09 -4.5363e-09 3.8424e-10)
(-6.29638e-09 -5.9888e-09 5.17671e-10)
(-5.92229e-09 -7.1686e-09 6.337e-10)
(-5.12878e-09 -7.98953e-09 7.29033e-10)
(-3.64844e-09 -8.63842e-09 8.02196e-10)
(-3.14228e-10 -1.05033e-08 8.52585e-10)
(1.70271e-09 2.82483e-09 -9.36969e-10)
(2.66433e-09 7.47191e-10 1.34054e-09)
(2.78979e-09 -1.13365e-09 3.0766e-09)
(2.81063e-09 -2.87802e-09 4.59083e-09)
(2.96727e-09 -4.56124e-09 6.06239e-09)
(3.44637e-09 -6.21046e-09 7.64179e-09)
(4.55128e-09 -8.10693e-09 9.4576e-09)
(6.34045e-09 -1.15975e-08 1.24087e-08)
(2.02703e-10 1.64996e-09 -2.69866e-09)
(6.22479e-10 3.21788e-10 -5.37018e-10)
(8.45225e-10 -1.28749e-09 1.26054e-09)
(1.01703e-09 -3.05478e-09 2.8045e-09)
(1.25473e-09 -4.88534e-09 4.27733e-09)
(1.65668e-09 -6.6992e-09 5.85827e-09)
(2.31538e-09 -8.47945e-09 7.71997e-09)
(3.0329e-09 -1.10579e-08 1.09587e-08)
(-1.77457e-11 1.67083e-09 -2.67416e-09)
(-2.00376e-11 2.62585e-10 -4.48893e-10)
(2.18964e-10 -1.42182e-09 1.3897e-09)
(5.57359e-10 -3.25229e-09 2.9592e-09)
(8.84296e-10 -5.13714e-09 4.448e-09)
(1.10504e-09 -6.99904e-09 6.03892e-09)
(1.12856e-09 -8.82216e-09 7.90767e-09)
(1.14891e-09 -1.14343e-08 1.1156e-08)
(-1.46465e-09 2.84084e-09 -7.70863e-10)
(-1.99221e-09 5.13991e-10 1.71403e-09)
(-1.66202e-09 -1.57593e-09 3.57171e-09)
(-1.17834e-09 -3.49653e-09 5.16073e-09)
(-7.73632e-10 -5.33383e-09 6.67817e-09)
(-6.33093e-10 -7.12094e-09 8.28346e-09)
(-1.06179e-09 -9.14295e-09 1.01124e-08)
(-2.1243e-09 -1.27516e-08 1.30783e-08)
(2.24141e-09 1.75697e-09 2.33912e-09)
(1.97028e-09 -5.78323e-10 4.97307e-09)
(2.26898e-09 -2.60315e-09 6.80635e-09)
(2.6475e-09 -4.42865e-09 8.32892e-09)
(2.9017e-09 -6.17316e-09 9.74274e-09)
(2.87196e-09 -7.84953e-09 1.12384e-08)
(2.34955e-09 -9.71961e-09 1.30445e-08)
(3.60544e-10 -1.31735e-08 1.51265e-08)
(4.83526e-09 -3.17531e-10 8.24616e-10)
(4.9189e-09 -2.05103e-09 2.91436e-09)
(5.17613e-09 -3.75111e-09 4.76973e-09)
(5.47078e-09 -5.43806e-09 6.33703e-09)
(5.65231e-09 -7.08451e-09 7.76387e-09)
(5.53263e-09 -8.60325e-09 9.20441e-09)
(4.86838e-09 -1.0032e-08 1.06672e-08)
(2.52007e-09 -1.24015e-08 1.16677e-08)
(5.64339e-09 -1.05195e-09 7.42595e-10)
(6.08913e-09 -2.76822e-09 2.46206e-09)
(6.35934e-09 -4.43644e-09 4.12349e-09)
(6.58346e-09 -6.06962e-09 5.60296e-09)
(6.69611e-09 -7.58984e-09 6.93576e-09)
(6.49627e-09 -8.85288e-09 8.1699e-09)
(5.71491e-09 -9.88377e-09 9.22242e-09)
(3.22397e-09 -1.19125e-08 9.78831e-09)
(6.02907e-09 -1.27235e-09 7.16304e-10)
(6.62471e-09 -3.05873e-09 2.16281e-09)
(6.91207e-09 -4.7834e-09 3.54957e-09)
(7.09451e-09 -6.40949e-09 4.81568e-09)
(7.15367e-09 -7.83738e-09 5.94503e-09)
(6.89372e-09 -8.92952e-09 6.92228e-09)
(6.04048e-09 -9.78631e-09 7.67913e-09)
(3.46408e-09 -1.17677e-08 8.09577e-09)
(6.21101e-09 -1.32191e-09 5.99019e-10)
(6.82467e-09 -3.15859e-09 1.75108e-09)
(7.10671e-09 -4.93247e-09 2.83806e-09)
(7.26395e-09 -6.56769e-09 3.83321e-09)
(7.28938e-09 -7.95411e-09 4.71147e-09)
(6.99289e-09 -8.97762e-09 5.44475e-09)
(6.10212e-09 -9.79303e-09 5.9963e-09)
(3.47747e-09 -1.17899e-08 6.32844e-09)
(6.30614e-09 -1.32416e-09 4.36434e-10)
(6.89922e-09 -3.18502e-09 1.26494e-09)
(7.16391e-09 -4.98588e-09 2.04131e-09)
(7.30298e-09 -6.63302e-09 2.74968e-09)
(7.30864e-09 -8.01248e-09 3.36979e-09)
(6.9924e-09 -9.02493e-09 3.88074e-09)
(6.08295e-09 -9.84639e-09 4.26598e-09)
(3.42989e-09 -1.18649e-08 4.51415e-09)
(6.35888e-09 -1.31895e-09 2.62015e-10)
(6.93316e-09 -3.18817e-09 7.57922e-10)
(7.18225e-09 -5.00097e-09 1.22187e-09)
(7.30858e-09 -6.65772e-09 1.64407e-09)
(7.30298e-09 -8.04348e-09 2.01209e-09)
(6.97659e-09 -9.06397e-09 2.31452e-09)
(6.05781e-09 -9.9e-09 2.54465e-09)
(3.38856e-09 -1.19356e-08 2.6985e-09)
(6.38329e-09 -1.31583e-09 8.71122e-11)
(6.94868e-09 -3.18692e-09 2.51874e-10)
(7.1896e-09 -5.00393e-09 4.05989e-10)
(7.30936e-09 -6.66591e-09 5.4609e-10)
(7.29852e-09 -8.05764e-09 6.68024e-10)
(6.96776e-09 -9.0857e-09 7.68261e-10)
(6.04498e-09 -9.93106e-09 8.44988e-10)
(3.36838e-09 -1.1976e-08 8.97086e-10)
(6.42349e-09 -9.88114e-09 1.47739e-08)
(4.80887e-09 -8.22808e-09 1.12773e-08)
(3.87729e-09 -7.71332e-09 9.37166e-09)
(3.54687e-09 -7.45717e-09 7.7165e-09)
(3.47924e-09 -7.3718e-09 6.03558e-09)
(3.48178e-09 -7.37075e-09 4.31935e-09)
(3.48882e-09 -7.39661e-09 2.59107e-09)
(3.49093e-09 -7.41673e-09 8.63197e-10)
(3.1138e-09 -8.59405e-09 1.40741e-08)
(2.57141e-09 -6.65849e-09 1.14949e-08)
(2.09106e-09 -6.10477e-09 9.72013e-09)
(1.85885e-09 -5.85493e-09 7.9261e-09)
(1.76839e-09 -5.77842e-09 6.12289e-09)
(1.7282e-09 -5.77518e-09 4.3465e-09)
(1.70469e-09 -5.79356e-09 2.59719e-09)
(1.69259e-09 -5.80815e-09 8.64026e-10)
(1.23067e-09 -8.95291e-09 1.42913e-08)
(1.38389e-09 -7.01234e-09 1.16815e-08)
(1.54275e-09 -6.45713e-09 9.87153e-09)
(1.5197e-09 -6.2059e-09 8.04391e-09)
(1.41574e-09 -6.12755e-09 6.20981e-09)
(1.31689e-09 -6.12239e-09 4.40568e-09)
(1.25173e-09 -6.13923e-09 2.63145e-09)
(1.22132e-09 -6.15301e-09 8.75232e-10)
(-2.0405e-09 -1.10404e-08 1.54441e-08)
(-8.0633e-10 -9.38403e-09 1.18356e-08)
(-1.94386e-10 -8.87182e-09 9.82308e-09)
(-1.20692e-10 -8.61526e-09 8.06745e-09)
(-2.49789e-10 -8.5263e-09 6.29417e-09)
(-3.93591e-10 -8.5204e-09 4.49511e-09)
(-4.90995e-10 -8.54204e-09 2.6926e-09)
(-5.36498e-10 -8.55987e-09 8.9635e-10)
)
;
    }
    symmetry
    {
        type            symmetry;
    }
    bottom
    {
        type            calculated;
        value           uniform (0 0 0);
    }
}


// ************************************************************************* //
