/*--------------------------------*- C++ -*----------------------------------*\
| =========                 |                                                 |
| \\      /  F ield         | OpenFOAM: The Open Source CFD Toolbox           |
|  \\    /   O peration     | Version:  v1912                                 |
|   \\  /    A nd           | Website:  www.openfoam.com                      |
|    \\/     M anipulation  |                                                 |
\*---------------------------------------------------------------------------*/
FoamFile
{
    version     2.0;
    format      ascii;
    class       volScalarField;
    location    "0.11/solid";
    object      epsilonEq;
}
// * * * * * * * * * * * * * * * * * * * * * * * * * * * * * * * * * * * * * //

dimensions      [0 0 0 0 0 0 0];


internalField   nonuniform List<scalar> 
256
(
2.27727e-06
2.1727e-06
2.15861e-06
2.25019e-06
1.9238e-06
2.07222e-06
2.05465e-06
1.8916e-06
2.00422e-06
2.1083e-06
2.09033e-06
1.97346e-06
2.0866e-06
2.16191e-06
2.14413e-06
2.05701e-06
2.18278e-06
2.24749e-06
2.22993e-06
2.15364e-06
2.3289e-06
2.38605e-06
2.36869e-06
2.30014e-06
2.39257e-06
2.50761e-06
2.49083e-06
2.36839e-06
2.90046e-07
2.61526e-06
2.59757e-06
2.5233e-07
2.02957e-06
4.81537e-07
4.7733e-07
2.00892e-06
1.87757e-06
3.89535e-07
3.84523e-07
1.85556e-06
1.90935e-06
3.54741e-07
3.50243e-07
1.88724e-06
1.96345e-06
3.64082e-07
3.60012e-07
1.94031e-06
2.04016e-06
3.92541e-07
3.88666e-07
2.01548e-06
2.15234e-06
3.72973e-07
3.69399e-07
2.12675e-06
2.23587e-06
1.93928e-07
1.91946e-07
2.21517e-06
2.39294e-06
2.50784e-06
2.49144e-06
2.37e-06
1.91326e-06
4.22334e-07
4.1794e-07
1.89338e-06
1.82387e-06
4.61521e-07
4.56656e-07
1.79979e-06
1.86073e-06
4.56776e-07
4.52249e-07
1.8358e-06
1.90822e-06
4.58618e-07
4.54248e-07
1.88194e-06
1.97492e-06
4.68229e-07
4.63833e-07
1.94691e-06
2.07359e-06
4.37497e-07
4.33343e-07
2.0445e-06
2.15333e-06
3.70556e-07
3.68098e-07
2.12862e-06
2.32943e-06
2.38592e-06
2.36931e-06
2.30346e-06
1.8233e-06
4.00483e-07
3.97098e-07
1.80763e-06
1.74448e-06
4.8402e-07
4.80066e-07
1.72332e-06
1.78583e-06
4.95349e-07
4.91414e-07
1.76321e-06
1.82982e-06
4.94561e-07
4.90655e-07
1.80558e-06
1.8885e-06
4.95172e-07
4.91232e-07
1.86245e-06
1.97589e-06
4.59122e-07
4.55493e-07
1.94879e-06
2.0435e-06
3.84327e-07
3.82436e-07
2.02066e-06
2.18638e-06
2.24782e-06
2.23145e-06
2.16214e-06
1.77006e-06
3.79596e-07
3.77205e-07
1.75833e-06
1.69288e-06
4.68433e-07
4.65413e-07
1.67512e-06
1.73473e-06
4.81975e-07
4.78795e-07
1.71514e-06
1.77626e-06
4.78268e-07
4.7505e-07
1.75484e-06
1.83005e-06
4.72825e-07
4.69576e-07
1.80672e-06
1.91087e-06
4.30191e-07
4.27272e-07
1.88644e-06
1.97174e-06
3.42182e-07
3.41075e-07
1.95148e-06
2.10223e-06
2.16566e-06
2.14955e-06
2.08007e-06
1.73638e-06
3.61435e-07
3.59777e-07
1.7276e-06
1.6594e-06
4.4603e-07
4.43712e-07
1.64438e-06
1.70019e-06
4.56676e-07
4.54112e-07
1.68314e-06
1.73989e-06
4.50254e-07
4.47618e-07
1.72085e-06
1.79089e-06
4.41626e-07
4.38937e-07
1.76986e-06
1.86832e-06
3.95313e-07
3.92925e-07
1.84608e-06
1.92595e-06
2.99805e-07
2.99306e-07
1.90778e-06
2.05168e-06
2.1205e-06
2.10458e-06
2.03119e-06
1.71594e-06
3.47992e-07
3.46815e-07
1.70906e-06
1.63903e-06
4.28741e-07
4.26897e-07
1.62584e-06
1.67876e-06
4.36629e-07
4.34496e-07
1.66345e-06
1.71724e-06
4.2853e-07
4.26304e-07
1.69986e-06
1.76676e-06
4.18749e-07
4.16442e-07
1.7473e-06
1.8426e-06
3.71205e-07
3.6916e-07
1.82185e-06
1.89872e-06
2.72118e-07
2.7202e-07
1.88197e-06
2.02172e-06
2.09696e-06
2.08117e-06
2.00237e-06
1.70622e-06
3.40795e-07
3.39858e-07
1.70028e-06
1.62939e-06
4.19806e-07
4.18205e-07
1.61711e-06
1.66855e-06
4.26385e-07
4.24478e-07
1.65412e-06
1.70644e-06
4.17608e-07
4.15597e-07
1.6899e-06
1.75533e-06
4.07575e-07
4.05462e-07
1.73666e-06
1.83056e-06
3.59795e-07
3.5792e-07
1.81055e-06
1.88606e-06
2.59257e-07
2.5936e-07
1.87003e-06
2.00757e-06
2.08682e-06
2.07109e-06
1.9888e-06
)
;

boundaryField
{
    interface
    {
        type            calculated;
        value           nonuniform List<scalar> 
192
(
3.41989e-06
3.06144e-06
3.15644e-06
3.25675e-06
3.38351e-06
3.59403e-06
3.80097e-06
1.9958e-06
3.61776e-06
3.42139e-06
3.47204e-06
3.55395e-06
3.67848e-06
3.89381e-06
4.18645e-06
3.80121e-06
3.327e-06
3.17599e-06
3.22747e-06
3.30319e-06
3.41766e-06
3.61709e-06
3.89529e-06
3.59483e-06
3.14573e-06
3.00007e-06
3.05366e-06
3.12606e-06
3.23309e-06
3.4206e-06
3.68363e-06
3.38814e-06
3.0492e-06
2.9058e-06
2.95943e-06
3.02943e-06
3.13187e-06
3.31255e-06
3.56722e-06
3.27476e-06
2.99367e-06
2.8524e-06
2.9054e-06
2.97364e-06
3.07333e-06
3.2503e-06
3.50064e-06
3.20953e-06
2.96205e-06
2.82226e-06
2.87466e-06
2.94177e-06
3.03992e-06
3.215e-06
3.46317e-06
3.17199e-06
2.94753e-06
2.80845e-06
2.86052e-06
2.92709e-06
3.02455e-06
3.19885e-06
3.44611e-06
3.15456e-06
3.63105e-06
3.29057e-06
3.38095e-06
3.47449e-06
3.59501e-06
3.80279e-06
4.02228e-06
2.39259e-06
3.9391e-06
3.79756e-06
3.85833e-06
3.94211e-06
4.075e-06
4.31241e-06
4.63759e-06
4.2236e-06
3.91325e-06
3.76738e-06
3.82736e-06
3.91112e-06
4.04413e-06
4.28174e-06
4.60762e-06
4.19801e-06
3.56455e-06
3.21477e-06
3.30592e-06
3.40068e-06
3.52203e-06
3.73038e-06
3.95177e-06
2.32474e-06
3.41279e-06
3.05095e-06
3.146e-06
3.24579e-06
3.37146e-06
3.58178e-06
3.7973e-06
2.06996e-06
3.58813e-06
3.38781e-06
3.43716e-06
3.51672e-06
3.63829e-06
3.85158e-06
4.1502e-06
3.79854e-06
3.29742e-06
3.13971e-06
3.18914e-06
3.26211e-06
3.37333e-06
3.57038e-06
3.85374e-06
3.58492e-06
3.12166e-06
2.96794e-06
3.01886e-06
3.08822e-06
3.1919e-06
3.377e-06
3.64489e-06
3.38018e-06
3.03043e-06
2.87835e-06
2.92894e-06
2.99568e-06
3.09466e-06
3.27288e-06
3.53223e-06
3.26992e-06
2.97894e-06
2.82873e-06
2.87849e-06
2.94332e-06
3.03945e-06
3.21388e-06
3.46876e-06
3.20739e-06
2.94997e-06
2.80113e-06
2.85021e-06
2.91382e-06
3.00833e-06
3.1808e-06
3.43342e-06
3.17174e-06
2.93676e-06
2.78859e-06
2.83732e-06
2.90035e-06
2.99413e-06
3.16576e-06
3.41743e-06
3.15528e-06
2.39282e-06
4.02258e-06
3.80336e-06
3.59873e-06
3.49031e-06
3.42977e-06
3.39544e-06
3.37956e-06
4.22369e-06
4.63769e-06
4.31255e-06
4.07672e-06
3.95026e-06
3.88304e-06
3.84812e-06
3.83304e-06
4.19813e-06
4.60803e-06
4.2825e-06
4.04683e-06
3.92064e-06
3.85367e-06
3.81893e-06
3.80395e-06
2.32516e-06
3.95311e-06
3.73335e-06
3.52995e-06
3.42286e-06
3.36342e-06
3.32986e-06
3.31436e-06
)
;
    }
    symmetry
    {
        type            symmetry;
    }
    bottom
    {
        type            calculated;
        value           nonuniform List<scalar> 
32
(
2.6209e-06
2.18863e-06
2.05515e-06
1.9671e-06
1.91368e-06
1.879e-06
1.85776e-06
1.84765e-06
2.30347e-06
5.45931e-07
4.36817e-07
4.01024e-07
3.77833e-07
3.60281e-07
3.47734e-07
3.41025e-07
2.29087e-06
5.4172e-07
4.32587e-07
3.9815e-07
3.76127e-07
3.59392e-07
3.47373e-07
3.40929e-07
2.59829e-06
2.16899e-06
2.03789e-06
1.95514e-06
1.90627e-06
1.87487e-06
1.85573e-06
1.84664e-06
)
;
    }
}


// ************************************************************************* //
