/*--------------------------------*- C++ -*----------------------------------*\
| =========                 |                                                 |
| \\      /  F ield         | OpenFOAM: The Open Source CFD Toolbox           |
|  \\    /   O peration     | Version:  v1912                                 |
|   \\  /    A nd           | Website:  www.openfoam.com                      |
|    \\/     M anipulation  |                                                 |
\*---------------------------------------------------------------------------*/
FoamFile
{
    version     2.0;
    format      ascii;
    class       volSymmTensorField;
    location    "0.11/solid";
    object      epsilon;
}
// * * * * * * * * * * * * * * * * * * * * * * * * * * * * * * * * * * * * * //

dimensions      [0 0 0 0 0 0 0];


internalField   nonuniform List<symmTensor> 
256
(
(-2.66409e-06 -4.63787e-08 6.17207e-08 6.21812e-07 -8.09533e-08 -2.90075e-06)
(5.47836e-08 -8.12521e-08 2.91135e-08 5.02348e-07 -5.94163e-08 -2.95227e-06)
(4.97494e-08 1.01163e-07 -2.91885e-08 4.96548e-07 -5.77695e-08 -2.93483e-06)
(-2.67768e-06 5.32189e-08 -6.03549e-08 6.00894e-07 -7.4756e-08 -2.85348e-06)
(-2.59232e-06 -1.81271e-08 8.83729e-08 1.50176e-07 -5.84877e-08 -2.84946e-06)
(9.0027e-08 -1.57667e-08 4.34193e-08 2.14987e-07 -6.39924e-08 -2.95094e-06)
(8.33468e-08 2.88579e-08 -4.32066e-08 2.06913e-07 -6.29462e-08 -2.93174e-06)
(-2.60589e-06 2.35594e-08 -8.63525e-08 1.2402e-07 -5.46024e-08 -2.79931e-06)
(-2.62789e-06 1.02996e-09 8.75104e-08 2.41441e-07 -4.17032e-08 -2.87697e-06)
(9.0566e-08 2.44717e-09 4.33129e-08 2.72856e-07 -4.46257e-08 -2.97495e-06)
(8.38426e-08 7.21117e-09 -4.2936e-08 2.64716e-07 -4.38502e-08 -2.95548e-06)
(-2.64048e-06 3.1232e-09 -8.53621e-08 2.1767e-07 -3.87378e-08 -2.82681e-06)
(-2.68206e-06 8.66172e-09 8.65345e-08 3.19479e-07 -3.58236e-08 -2.91702e-06)
(7.78813e-08 8.25984e-09 4.28672e-08 3.48637e-07 -3.32314e-08 -3.01972e-06)
(7.11959e-08 -9.61963e-10 -4.24551e-08 3.40917e-07 -3.25676e-08 -3.00031e-06)
(-2.69328e-06 -5.51508e-09 -8.43387e-08 2.97537e-07 -3.3292e-08 -2.86728e-06)
(-2.75648e-06 5.80684e-09 8.94669e-08 3.94619e-07 -4.16065e-08 -2.98198e-06)
(7.7563e-08 5.85553e-09 4.46436e-08 4.3191e-07 -3.63847e-08 -3.101e-06)
(7.09639e-08 -6.19832e-10 -4.4223e-08 4.24421e-07 -3.57587e-08 -3.0817e-06)
(-2.76626e-06 -3.56858e-09 -8.72322e-08 3.73535e-07 -3.93053e-08 -2.93263e-06)
(-2.86198e-06 -1.76426e-08 9.5197e-08 5.0381e-07 -6.56695e-08 -3.09377e-06)
(1.40374e-07 -1.04784e-08 4.80268e-08 5.03655e-07 -6.05664e-08 -3.24064e-06)
(1.3367e-07 1.3775e-08 -4.75685e-08 4.96342e-07 -5.98995e-08 -3.22156e-06)
(-2.87157e-06 1.87041e-08 -9.29328e-08 4.83101e-07 -6.34212e-08 -3.04481e-06)
(-2.98932e-06 -7.05209e-08 1.00823e-07 4.51966e-07 -1.11588e-07 -3.24737e-06)
(3.32196e-07 -3.89641e-08 5.11599e-08 3.11005e-07 -1.10763e-07 -3.43323e-06)
(3.24026e-07 4.03648e-08 -5.05572e-08 3.0558e-07 -1.09922e-07 -3.41486e-06)
(-3.00537e-06 6.975e-08 -9.85675e-08 4.35076e-07 -1.09163e-07 -3.19927e-06)
(-2.81972e-06 -1.00623e-07 1.00854e-07 -3.10272e-06 -1.27011e-07 -3.10242e-06)
(6.10377e-07 -5.06717e-08 5.10346e-08 -3.30418e-06 -1.30161e-07 -3.30392e-06)
(5.98086e-07 5.05325e-08 -5.01837e-08 -3.29013e-06 -1.29303e-07 -3.28962e-06)
(-2.86779e-06 9.8916e-08 -9.87567e-08 -3.06268e-06 -1.24906e-07 -3.06196e-06)
(-2.67816e-06 1.95001e-08 3.89077e-08 6.12679e-07 -2.14572e-07 -3.16955e-08)
(-1.01106e-07 -5.76152e-08 1.87985e-08 4.52764e-07 -2.54394e-07 -1.18242e-07)
(-1.028e-07 6.81581e-08 -1.79265e-08 4.45432e-07 -2.50507e-07 -1.18631e-07)
(-2.66575e-06 -1.5219e-08 -3.74684e-08 5.89126e-07 -2.02434e-07 -3.48489e-08)
(-2.66392e-06 -8.55963e-09 6.17307e-08 2.79905e-07 -1.32057e-07 -2.22814e-08)
(-1.57936e-07 -1.33125e-08 3.33419e-08 3.65668e-07 -1.54712e-07 -1.41316e-07)
(-1.60082e-07 1.95547e-08 -3.1606e-08 3.5745e-07 -1.52177e-07 -1.42526e-07)
(-2.64966e-06 1.12182e-08 -5.95141e-08 2.53977e-07 -1.23588e-07 -2.8711e-08)
(-2.69423e-06 -1.64288e-09 6.2195e-08 3.01568e-07 -1.0597e-07 -2.07584e-09)
(-1.66591e-07 -9.20458e-10 3.41302e-08 3.47326e-07 -1.1183e-07 -1.19499e-07)
(-1.68702e-07 5.34202e-09 -3.22398e-08 3.3961e-07 -1.09924e-07 -1.21351e-07)
(-2.67846e-06 3.53436e-09 -5.98828e-08 2.7878e-07 -9.9249e-08 -1.05342e-08)
(-2.74666e-06 6.59802e-09 6.03892e-08 3.40121e-07 -1.01701e-07 1.5653e-08)
(-1.74831e-07 4.88867e-09 3.28608e-08 3.72538e-07 -9.91411e-08 -1.02996e-07)
(-1.76841e-07 -1.72172e-09 -3.10962e-08 3.65254e-07 -9.7481e-08 -1.05298e-07)
(-2.72884e-06 -5.21954e-09 -5.81077e-08 3.19038e-07 -9.58257e-08 5.83186e-09)
(-2.82852e-06 6.12398e-09 6.1208e-08 3.79728e-07 -1.1514e-07 3.82627e-08)
(-1.75205e-07 3.89906e-09 3.35023e-08 4.17121e-07 -1.10495e-07 -8.76604e-08)
(-1.77048e-07 -1.9447e-09 -3.18471e-08 4.10025e-07 -1.0892e-07 -9.02784e-08)
(-2.8083e-06 -5.28904e-09 -5.89413e-08 3.59439e-07 -1.09705e-07 2.74904e-08)
(-2.9523e-06 -1.50656e-08 6.42369e-08 4.1404e-07 -1.42893e-07 9.0929e-08)
(-1.19043e-07 -1.06837e-08 3.58955e-08 4.1422e-07 -1.39259e-07 -4.56238e-08)
(-1.2096e-07 1.14547e-08 -3.42476e-08 4.07467e-07 -1.37722e-07 -4.85362e-08)
(-2.9306e-06 1.49981e-08 -6.19593e-08 3.94511e-07 -1.37748e-07 7.93614e-08)
(-3.11507e-06 -6.77257e-08 6.80919e-08 2.2317e-07 -1.6033e-07 2.22989e-07)
(6.16401e-08 -3.79945e-08 3.87104e-08 7.81925e-08 -1.58654e-07 7.84724e-08)
(5.81038e-08 3.78648e-08 -3.71197e-08 7.40209e-08 -1.57261e-07 7.49827e-08)
(-3.09838e-06 6.6089e-08 -6.58957e-08 2.08739e-07 -1.55813e-07 2.10172e-07)
(-2.98952e-06 -1.00677e-07 7.10392e-08 -3.24765e-06 -1.11316e-07 4.52291e-07)
(3.31814e-07 -5.09329e-08 4.00357e-08 -3.43354e-06 -1.10611e-07 3.11431e-07)
(3.23571e-07 5.07846e-08 -3.93331e-08 -3.41551e-06 -1.098e-07 3.06672e-07)
(-3.00574e-06 9.86619e-08 -6.94444e-08 -3.20023e-06 -1.09014e-07 4.36829e-07)
(-2.48237e-06 5.78771e-08 5.80457e-09 6.13487e-07 -1.46206e-07 5.23471e-08)
(-1.88272e-07 -2.98254e-08 3.46684e-09 4.31303e-07 -1.87967e-07 5.28156e-08)
(-1.89339e-07 3.58872e-08 -2.08987e-09 4.24362e-07 -1.84683e-07 5.15972e-08)
(-2.46836e-06 -5.51724e-08 -5.12586e-09 5.92907e-07 -1.36159e-07 4.85005e-08)
(-2.51467e-06 1.27381e-09 1.4762e-08 3.18021e-07 -1.36103e-07 8.92301e-08)
(-3.23073e-07 -7.52817e-09 9.38372e-09 4.10859e-07 -1.55332e-07 9.33289e-08)
(-3.23994e-07 1.02621e-08 -7.00841e-09 4.0287e-07 -1.52611e-07 9.06425e-08)
(-2.49732e-06 6.87096e-11 -1.35342e-08 2.92854e-07 -1.27469e-07 8.10831e-08)
(-2.55073e-06 -2.60529e-09 1.63402e-08 3.26461e-07 -1.3154e-07 1.24306e-07)
(-3.47205e-07 -2.61557e-09 1.0479e-08 3.84029e-07 -1.35799e-07 1.31318e-07)
(-3.47927e-07 4.31804e-09 -8.01958e-09 3.7652e-07 -1.33482e-07 1.27752e-07)
(-2.53143e-06 3.41449e-09 -1.50287e-08 3.04006e-07 -1.24e-07 1.13574e-07)
(-2.59918e-06 4.72942e-09 1.51586e-08 3.34712e-07 -1.35912e-07 1.64282e-07)
(-3.51953e-07 2.98227e-09 9.6625e-09 3.72689e-07 -1.3322e-07 1.71193e-07)
(-3.52507e-07 -1.8795e-09 -7.39742e-09 3.65596e-07 -1.3112e-07 1.6705e-07)
(-2.57759e-06 -4.17951e-09 -1.39055e-08 3.13849e-07 -1.2907e-07 1.51833e-07)
(-2.67611e-06 5.67486e-09 1.42258e-08 3.30487e-07 -1.47967e-07 2.16306e-07)
(-3.49095e-07 3.58098e-09 9.30867e-09 3.68626e-07 -1.43694e-07 2.21194e-07)
(-3.49434e-07 -3.12194e-09 -7.225e-09 3.61748e-07 -1.41721e-07 2.16614e-07)
(-2.6519e-06 -5.44134e-09 -1.30331e-08 3.10504e-07 -1.41623e-07 2.02558e-07)
(-2.7947e-06 -1.39304e-08 1.42068e-08 3.09896e-07 -1.57229e-07 2.97162e-07)
(-2.94049e-07 -9.41169e-09 1.00161e-08 3.10512e-07 -1.53876e-07 2.99673e-07)
(-2.94449e-07 9.24957e-09 -8.07729e-09 3.04087e-07 -1.52061e-07 2.94674e-07)
(-2.76874e-06 1.34665e-08 -1.30678e-08 2.90956e-07 -1.51428e-07 2.82223e-07)
(-2.95335e-06 -6.39579e-08 1.56265e-08 9.53616e-08 -1.39078e-07 4.12441e-07)
(-1.19705e-07 -3.53232e-08 1.16993e-08 -4.23095e-08 -1.36136e-07 4.1367e-07)
(-1.21804e-07 3.48767e-08 -1.0157e-08 -4.60792e-08 -1.34701e-07 4.08171e-07)
(-2.93195e-06 6.21223e-08 -1.46678e-08 8.155e-08 -1.34397e-07 3.96185e-07)
(-2.8629e-06 -9.51309e-08 1.85971e-08 -3.09324e-06 -6.38724e-08 5.04578e-07)
(1.39151e-07 -4.78733e-08 1.22035e-08 -3.24036e-06 -5.92161e-08 5.04809e-07)
(1.32138e-07 4.77477e-08 -1.20996e-08 -3.22177e-06 -5.863e-08 4.98832e-07)
(-2.87306e-06 9.30204e-08 -1.8323e-08 -3.04547e-06 -6.19759e-08 4.87122e-07)
(-2.35819e-06 6.7385e-08 -4.70771e-09 6.11908e-07 -1.17151e-07 2.62715e-08)
(-2.09716e-07 -2.03355e-08 -3.12313e-09 4.21447e-07 -1.3815e-07 4.61199e-08)
(-2.1123e-07 2.42099e-08 4.41233e-09 4.1535e-07 -1.35755e-07 4.51553e-08)
(-2.34738e-06 -6.58385e-08 5.07219e-09 5.95013e-07 -1.09855e-07 2.34927e-08)
(-2.40397e-06 5.08007e-09 -5.00201e-09 3.19784e-07 -1.2406e-07 7.00153e-08)
(-3.7457e-07 -5.05566e-09 -3.54532e-09 4.14326e-07 -1.32908e-07 1.04993e-07)
(-3.75899e-07 6.00892e-09 5.81227e-09 4.06864e-07 -1.30621e-07 1.02713e-07)
(-2.38935e-06 -4.4416e-09 5.75682e-09 2.96036e-07 -1.16985e-07 6.35096e-08)
(-2.44512e-06 -2.63231e-09 -4.3554e-09 3.2083e-07 -1.30055e-07 1.15564e-07)
(-4.09342e-07 -3.21259e-09 -3.23772e-09 3.8435e-07 -1.31193e-07 1.54614e-07)
(-4.10321e-07 3.51317e-09 5.59788e-09 3.77073e-07 -1.2906e-07 1.51468e-07)
(-2.4282e-06 2.90797e-09 5.1904e-09 2.98851e-07 -1.23381e-07 1.06524e-07)
(-2.49198e-06 3.43101e-09 -4.86741e-09 3.10823e-07 -1.37671e-07 1.68315e-07)
(-4.12815e-07 1.86507e-09 -3.60025e-09 3.52534e-07 -1.34781e-07 2.0748e-07)
(-4.13544e-07 -1.78383e-09 5.77083e-09 3.45552e-07 -1.3277e-07 2.03717e-07)
(-2.47257e-06 -3.28001e-09 5.64884e-09 2.90083e-07 -1.31367e-07 1.57426e-07)
(-2.56443e-06 4.54825e-09 -5.91413e-09 2.82308e-07 -1.4307e-07 2.31879e-07)
(-4.05431e-07 3.09012e-09 -4.11314e-09 3.21277e-07 -1.39047e-07 2.70221e-07)
(-4.05907e-07 -3.28823e-09 6.07134e-09 3.1449e-07 -1.37153e-07 2.65964e-07)
(-2.54232e-06 -4.57629e-09 6.61784e-09 2.62393e-07 -1.37161e-07 2.19512e-07)
(-2.67737e-06 -1.38024e-08 -6.63953e-09 2.46115e-07 -1.35397e-07 3.0705e-07)
(-3.47525e-07 -8.63672e-09 -4.11639e-09 2.48294e-07 -1.31973e-07 3.4473e-07)
(-3.48052e-07 8.16589e-09 5.8358e-09 2.41964e-07 -1.30278e-07 3.40032e-07)
(-2.65347e-06 1.32128e-08 7.24908e-09 2.27282e-07 -1.30078e-07 2.93392e-07)
(-2.83152e-06 -6.06286e-08 -6.02467e-09 5.00543e-08 -1.00756e-07 3.7748e-07)
(-1.75884e-07 -3.26795e-08 -3.26201e-09 -7.76293e-08 -9.75378e-08 4.14838e-07)
(-1.78125e-07 3.22062e-08 4.42939e-09 -8.13902e-08 -9.62787e-08 4.09762e-07)
(-2.81195e-06 5.87768e-08 6.40871e-09 3.61423e-08 -9.6634e-08 3.6272e-07)
(-2.75956e-06 -8.92505e-08 -4.53296e-09 -2.9806e-06 -3.56837e-08 3.99656e-07)
(7.48111e-08 -4.44037e-08 -3.7539e-09 -3.10004e-06 -3.11375e-08 4.36725e-07)
(6.7616e-08 4.4263e-08 3.39651e-09 -3.08146e-06 -3.06824e-08 4.31466e-07)
(-2.7704e-06 8.71153e-08 4.24398e-09 -2.93314e-06 -3.41061e-08 3.84311e-07)
(-2.28698e-06 6.60506e-08 -4.80431e-09 6.02464e-07 -9.58155e-08 2.20912e-08)
(-2.06954e-07 -2.05403e-08 -3.43038e-09 4.11708e-07 -1.02117e-07 3.48008e-08)
(-2.08968e-07 2.32641e-08 4.41582e-09 4.06397e-07 -1.00459e-07 3.41045e-08)
(-2.2795e-06 -6.52607e-08 5.05047e-09 5.88629e-07 -9.08108e-08 2.00932e-08)
(-2.33411e-06 5.00404e-09 -7.45493e-09 3.09377e-07 -1.04412e-07 7.12203e-08)
(-3.73984e-07 -5.37262e-09 -5.56057e-09 4.03799e-07 -1.05739e-07 9.41939e-08)
(-3.7593e-07 5.39392e-09 7.3699e-09 3.96885e-07 -1.04032e-07 9.24521e-08)
(-2.32277e-06 -4.75922e-09 8.00076e-09 2.87099e-07 -9.92072e-08 6.62465e-08)
(-2.37656e-06 -2.85293e-09 -7.73911e-09 3.03504e-07 -1.1194e-07 1.23664e-07)
(-4.11352e-07 -3.65821e-09 -5.86279e-09 3.68942e-07 -1.10673e-07 1.49509e-07)
(-4.12852e-07 3.2179e-09 7.79729e-09 3.61924e-07 -1.08985e-07 1.47003e-07)
(-2.3627e-06 2.85326e-09 8.36319e-09 2.82141e-07 -1.06749e-07 1.16447e-07)
(-2.42233e-06 2.6817e-09 -8.03527e-09 2.84428e-07 -1.17767e-07 1.80959e-07)
(-4.13868e-07 1.27723e-09 -6.05095e-09 3.27744e-07 -1.14961e-07 2.06763e-07)
(-4.15046e-07 -1.72749e-09 7.84771e-09 3.20864e-07 -1.13315e-07 2.03659e-07)
(-2.40585e-06 -2.73288e-09 8.62281e-09 2.63874e-07 -1.12688e-07 1.71941e-07)
(-2.49172e-06 3.6988e-09 -8.68732e-09 2.49152e-07 -1.16952e-07 2.42469e-07)
(-4.03038e-07 2.70716e-09 -6.37325e-09 2.88591e-07 -1.13671e-07 2.67351e-07)
(-4.03931e-07 -3.22033e-09 7.97406e-09 2.81847e-07 -1.12104e-07 2.63743e-07)
(-2.47247e-06 -3.85073e-09 9.20248e-09 2.29254e-07 -1.12115e-07 2.31927e-07)
(-2.60086e-06 -1.37636e-08 -9.19131e-09 2.1645e-07 -1.01955e-07 3.01373e-07)
(-3.42347e-07 -8.17465e-09 -6.46462e-09 2.2005e-07 -9.91591e-08 3.25313e-07)
(-3.43281e-07 7.58864e-09 7.80784e-09 2.13729e-07 -9.77685e-08 3.21275e-07)
(-2.57978e-06 1.31299e-08 9.60457e-09 1.97573e-07 -9.76049e-08 2.89531e-07)
(-2.75228e-06 -5.82677e-08 -8.83086e-09 3.81574e-08 -6.81093e-08 3.40945e-07)
(-1.72116e-07 -3.0792e-08 -6.07524e-09 -8.21009e-08 -6.56358e-08 3.64311e-07)
(-1.74758e-07 3.0335e-08 6.86436e-09 -8.59219e-08 -6.46257e-08 3.59963e-07)
(-2.73541e-06 5.64298e-08 9.02124e-09 2.40701e-08 -6.47798e-08 3.28121e-07)
(-2.69018e-06 -8.51256e-08 -8.24029e-09 -2.91621e-06 -2.17567e-08 3.40348e-07)
(7.38056e-08 -4.19309e-08 -6.86841e-09 -3.01864e-06 -1.86906e-08 3.64372e-07)
(6.62094e-08 4.17794e-08 6.27533e-09 -3.0002e-06 -1.83319e-08 3.59952e-07)
(-2.70295e-06 8.29904e-08 7.82932e-09 -2.86914e-06 -2.0481e-08 3.27184e-07)
(-2.24583e-06 6.30874e-08 -2.90499e-09 5.8972e-07 -7.1631e-08 2.41093e-08)
(-2.00572e-07 -2.26454e-08 -2.01741e-09 4.01409e-07 -7.19753e-08 2.93473e-08)
(-2.02937e-07 2.47546e-08 2.69187e-09 3.96694e-07 -7.08964e-08 2.88221e-08)
(-2.24091e-06 -6.27473e-08 3.07458e-09 5.78087e-07 -6.84177e-08 2.2621e-08)
(-2.29146e-06 3.95107e-09 -4.94068e-09 2.96071e-07 -7.84874e-08 7.72757e-08)
(-3.6216e-07 -6.37497e-09 -3.59793e-09 3.90162e-07 -7.68948e-08 8.63231e-08)
(-3.64563e-07 5.90591e-09 4.88193e-09 3.83689e-07 -7.57387e-08 8.4961e-08)
(-2.28273e-06 -3.92075e-09 5.33131e-09 2.74986e-07 -7.49994e-08 7.34106e-08)
(-2.33325e-06 -3.26024e-09 -5.43118e-09 2.85978e-07 -8.42378e-08 1.32793e-07)
(-3.97975e-07 -4.08189e-09 -3.97883e-09 3.51592e-07 -8.21759e-08 1.42642e-07)
(-3.99879e-07 3.24556e-09 5.391e-09 3.44805e-07 -8.09902e-08 1.40618e-07)
(-2.32189e-06 3.11592e-09 5.89024e-09 2.65206e-07 -8.06249e-08 1.26986e-07)
(-2.37793e-06 2.25169e-09 -5.66725e-09 2.63917e-07 -8.7212e-08 1.89497e-07)
(-3.99171e-07 9.79848e-10 -4.10693e-09 3.07559e-07 -8.48977e-08 1.98865e-07)
(-4.00704e-07 -1.7206e-09 5.43937e-09 3.00778e-07 -8.37123e-08 1.96281e-07)
(-2.36384e-06 -2.41061e-09 6.10691e-09 2.43591e-07 -8.35773e-08 1.82004e-07)
(-2.44542e-06 3.26119e-09 -6.00299e-09 2.2986e-07 -8.35107e-08 2.44069e-07)
(-3.86231e-07 2.53613e-09 -4.2579e-09 2.69339e-07 -8.12086e-08 2.52419e-07)
(-3.87454e-07 -3.22256e-09 5.44181e-09 2.62628e-07 -8.00661e-08 2.49342e-07)
(-2.42851e-06 -3.47969e-09 6.38777e-09 2.10006e-07 -7.99927e-08 2.35073e-07)
(-2.55239e-06 -1.36568e-08 -6.23637e-09 2.04228e-07 -6.91351e-08 2.88681e-07)
(-3.23965e-07 -7.86158e-09 -4.2988e-09 2.0858e-07 -6.72782e-08 2.95987e-07)
(-3.25217e-07 7.21337e-09 5.26456e-09 2.02258e-07 -6.62624e-08 2.9249e-07)
(-2.53362e-06 1.30008e-08 6.53494e-09 1.85319e-07 -6.59517e-08 2.78387e-07)
(-2.70236e-06 -5.68283e-08 -6.01627e-09 3.61e-08 -4.37436e-08 3.11843e-07)
(-1.54716e-07 -2.96776e-08 -4.14727e-09 -7.99401e-08 -4.22655e-08 3.1855e-07)
(-1.57669e-07 2.92305e-08 4.65448e-09 -8.38033e-08 -4.1531e-08 3.14774e-07)
(-2.6877e-06 5.5002e-08 6.13051e-09 2.19097e-08 -4.13068e-08 3.00609e-07)
(-2.64553e-06 -8.27309e-08 -5.77975e-09 -2.88013e-06 -1.36425e-08 3.04514e-07)
(8.84468e-08 -4.05175e-08 -4.81469e-09 -2.97377e-06 -1.19734e-08 3.12019e-07)
(8.05481e-08 4.03607e-08 4.23093e-09 -2.95547e-06 -1.17115e-08 3.08232e-07)
(-2.66004e-06 8.06014e-08 5.42099e-09 -2.83341e-06 -1.27008e-08 2.93069e-07)
(-2.2231e-06 6.10661e-08 -1.39049e-09 5.78741e-07 -4.42311e-08 2.64756e-08)
(-1.96173e-07 -2.41078e-08 -8.82569e-10 3.92786e-07 -4.3343e-08 2.80499e-08)
(-1.98752e-07 2.59079e-08 1.27386e-09 3.88459e-07 -4.27365e-08 2.76237e-08)
(-2.21987e-06 -6.09713e-08 1.49038e-09 5.68502e-07 -4.24452e-08 2.52957e-08)
(-2.26737e-06 3.16218e-09 -2.40736e-09 2.84901e-07 -4.8429e-08 8.19956e-08)
(-3.53122e-07 -7.07969e-09 -1.62693e-09 3.78848e-07 -4.67552e-08 8.38656e-08)
(-3.55807e-07 6.36589e-09 2.38962e-09 3.72671e-07 -4.60905e-08 8.27343e-08)
(-2.26038e-06 -3.24079e-09 2.64315e-09 2.64628e-07 -4.64384e-08 7.88335e-08)
(-2.30822e-06 -3.59237e-09 -2.72532e-09 2.73087e-07 -5.17642e-08 1.38103e-07)
(-3.86872e-07 -4.37058e-09 -1.84785e-09 3.3846e-07 -5.01491e-08 1.39374e-07)
(-3.89031e-07 3.33102e-09 2.7039e-09 3.31838e-07 -4.94524e-08 1.37653e-07)
(-2.29854e-06 3.37504e-09 3.00781e-09 2.52759e-07 -4.96523e-08 1.33222e-07)
(-2.35201e-06 2.00754e-09 -2.88145e-09 2.50953e-07 -5.28316e-08 1.92478e-07)
(-3.86831e-07 8.31709e-10 -1.92419e-09 2.94461e-07 -5.13354e-08 1.9287e-07)
(-3.88589e-07 -1.72892e-09 2.74257e-09 2.87757e-07 -5.06272e-08 1.90624e-07)
(-2.33955e-06 -2.22349e-09 3.15579e-09 2.30827e-07 -5.06664e-08 1.86017e-07)
(-2.4184e-06 3.06892e-09 -3.03903e-09 2.19752e-07 -4.93892e-08 2.40832e-07)
(-3.7271e-07 2.48299e-09 -1.98728e-09 2.59062e-07 -4.80564e-08 2.40211e-07)
(-3.74141e-07 -3.26902e-09 2.71509e-09 2.52382e-07 -4.73668e-08 2.37483e-07)
(-2.40308e-06 -3.32503e-09 3.2798e-09 1.99961e-07 -4.72665e-08 2.32899e-07)
(-2.52426e-06 -1.3551e-08 -3.12945e-09 1.99352e-07 -3.97517e-08 2.76398e-07)
(-3.09749e-07 -7.66844e-09 -1.9998e-09 2.03948e-07 -3.87489e-08 2.74862e-07)
(-3.11201e-07 6.97905e-09 2.58369e-09 1.97633e-07 -3.81331e-08 2.71722e-07)
(-2.50705e-06 1.28806e-08 3.3133e-09 1.80445e-07 -3.7817e-08 2.67169e-07)
(-2.67353e-06 -5.60517e-08 -3.0138e-09 3.62627e-08 -2.45935e-08 2.91653e-07)
(-1.41198e-07 -2.91058e-08 -1.95712e-09 -7.77871e-08 -2.38848e-08 2.89666e-07)
(-1.44344e-07 2.86593e-08 2.2403e-09 -8.16703e-08 -2.34391e-08 2.8626e-07)
(-2.66037e-06 5.42312e-08 3.07664e-09 2.20312e-08 -2.31076e-08 2.81496e-07)
(-2.61946e-06 -8.15074e-08 -2.90508e-09 -2.86044e-06 -7.64868e-09 2.82104e-07)
(1.00344e-07 -3.98208e-08 -2.36266e-09 -2.95021e-06 -6.89836e-09 2.80789e-07)
(9.22598e-08 3.96601e-08 1.9489e-09 -2.93202e-06 -6.73878e-09 2.77409e-07)
(-2.63519e-06 7.93828e-08 2.66616e-09 -2.81395e-06 -7.07092e-09 2.71811e-07)
(-2.21298e-06 6.01608e-08 -4.00764e-10 5.72598e-07 -1.49437e-08 2.7805e-08)
(-1.94174e-07 -2.47342e-08 -2.33793e-10 3.8792e-07 -1.45267e-08 2.81433e-08)
(-1.96855e-07 2.64076e-08 3.61918e-10 3.83785e-07 -1.43313e-08 2.77634e-08)
(-2.21058e-06 -6.01736e-08 4.33641e-10 5.63033e-07 -1.43716e-08 2.67713e-08)
(-2.25658e-06 2.81226e-09 -6.87471e-10 2.78704e-07 -1.63352e-08 8.43509e-08)
(-3.48907e-07 -7.38078e-09 -4.31435e-10 3.72628e-07 -1.56953e-08 8.37664e-08)
(-3.51727e-07 6.56663e-09 6.83955e-10 3.66598e-07 -1.54788e-08 8.27451e-08)
(-2.25046e-06 -2.93611e-09 7.66047e-10 2.58838e-07 -1.56892e-08 8.15288e-08)
(-2.2969e-06 -3.75397e-09 -7.86488e-10 2.66438e-07 -1.7405e-08 1.40263e-07)
(-3.81508e-07 -4.50017e-09 -4.95164e-10 3.31636e-07 -1.68181e-08 1.3852e-07)
(-3.83789e-07 3.37473e-09 7.8137e-10 3.25101e-07 -1.65887e-08 1.36946e-07)
(-2.28807e-06 3.50617e-09 8.81513e-10 2.46344e-07 -1.67113e-08 1.35837e-07)
(-2.34021e-06 1.89608e-09 -8.39683e-10 2.44822e-07 -1.76256e-08 1.92932e-07)
(-3.80767e-07 7.69904e-10 -5.1967e-10 2.88185e-07 -1.71123e-08 1.90117e-07)
(-3.82635e-07 -1.73649e-09 7.95002e-10 2.81524e-07 -1.68772e-08 1.88036e-07)
(-2.32856e-06 -2.1371e-09 9.32549e-10 2.24812e-07 -1.69075e-08 1.86984e-07)
(-2.40609e-06 2.99628e-09 -8.86672e-10 2.15451e-07 -1.62875e-08 2.37917e-07)
(-3.66107e-07 2.46988e-09 -5.37462e-10 2.54616e-07 -1.58537e-08 2.34111e-07)
(-3.6764e-07 -3.30309e-09 7.82314e-10 2.47955e-07 -1.56234e-08 2.31557e-07)
(-2.39156e-06 -3.27011e-09 9.68191e-10 1.95704e-07 -1.55787e-08 2.30519e-07)
(-2.51149e-06 -1.34931e-08 -9.1028e-10 1.97598e-07 -1.29536e-08 2.69303e-07)
(-3.029e-07 -7.58019e-09 -5.4077e-10 2.02228e-07 -1.26419e-08 2.64702e-07)
(-3.04449e-07 6.86858e-09 7.35274e-10 1.95919e-07 -1.24356e-08 2.61738e-07)
(-2.49506e-06 1.28148e-08 9.7185e-10 1.78703e-07 -1.23046e-08 2.60609e-07)
(-2.66048e-06 -5.57184e-08 -8.74934e-10 3.66006e-08 -7.95438e-09 2.81356e-07)
(-1.34718e-07 -2.88723e-08 -5.34693e-10 -7.67079e-08 -7.752e-09 2.7642e-07)
(-1.37958e-07 2.8423e-08 6.24339e-10 -8.05981e-08 -7.60253e-09 2.73196e-07)
(-2.64808e-06 5.38995e-08 8.94272e-10 2.23583e-08 -7.45471e-09 2.71736e-07)
(-2.60763e-06 -8.10041e-08 -8.4038e-10 -2.85162e-06 -2.47314e-09 2.71032e-07)
(1.0604e-07 -3.95451e-08 -6.67754e-10 -2.94003e-06 -2.26649e-09 2.66669e-07)
(9.78669e-08 3.93817e-08 5.17583e-10 -2.92189e-06 -2.21285e-09 2.63489e-07)
(-2.62398e-06 7.88817e-08 7.55933e-10 -2.80525e-06 -2.27823e-09 2.6131e-07)
)
;

boundaryField
{
    interface
    {
        type            calculated;
        value           nonuniform List<symmTensor> 
192
(
(-5.26127e-06 1.13774e-12 3.73145e-11 6.21812e-07 -8.09533e-08 -2.90075e-06)
(-5.13505e-06 -2.164e-13 4.6461e-11 1.50176e-07 -5.84877e-08 -2.84946e-06)
(-5.206e-06 -2.11633e-12 4.66804e-11 2.41441e-07 -4.17032e-08 -2.87697e-06)
(-5.29933e-06 -4.01747e-12 4.57224e-11 3.19479e-07 -3.58236e-08 -2.91702e-06)
(-5.44122e-06 -6.17406e-12 4.39652e-11 3.94619e-07 -4.16065e-08 -2.98198e-06)
(-5.6931e-06 -1.05791e-11 4.16197e-11 5.0381e-07 -6.56695e-08 -3.09377e-06)
(-6.10996e-06 -1.35126e-11 3.70611e-11 4.51966e-07 -1.11588e-07 -3.24737e-06)
(-6.08817e-06 -3.04234e-11 3.29316e-11 -3.10272e-06 -1.27011e-07 -3.10242e-06)
(-5.09457e-06 6.65955e-13 1.99284e-11 6.12679e-07 -2.14572e-07 -3.16955e-08)
(-4.99149e-06 -8.29918e-13 2.53604e-11 2.79905e-07 -1.32057e-07 -2.22814e-08)
(-5.04842e-06 -2.84939e-12 2.53069e-11 3.01568e-07 -1.0597e-07 -2.07584e-09)
(-5.14272e-06 -5.08677e-12 2.45029e-11 3.40121e-07 -1.01701e-07 1.5653e-08)
(-5.29719e-06 -7.62441e-12 2.31843e-11 3.79728e-07 -1.1514e-07 3.82627e-08)
(-5.57627e-06 -1.27807e-11 2.14711e-11 4.1404e-07 -1.42893e-07 9.0929e-08)
(-6.05045e-06 -1.6059e-11 1.86257e-11 2.2317e-07 -1.6033e-07 2.22989e-07)
(-6.11005e-06 -3.45502e-11 1.60857e-11 -3.24765e-06 -1.11316e-07 4.52291e-07)
(-4.6274e-06 7.30449e-13 1.64423e-11 6.13487e-07 -1.46206e-07 5.23471e-08)
(-4.5504e-06 -1.0427e-12 2.07836e-11 3.18021e-07 -1.36103e-07 8.92301e-08)
(-4.60729e-06 -3.43153e-12 2.07483e-11 3.26461e-07 -1.3154e-07 1.24306e-07)
(-4.69749e-06 -6.07632e-12 2.00987e-11 3.34712e-07 -1.35912e-07 1.64282e-07)
(-4.84573e-06 -9.08372e-12 1.90263e-11 3.30487e-07 -1.47967e-07 2.16306e-07)
(-5.11525e-06 -1.50076e-11 1.75939e-11 3.09896e-07 -1.57229e-07 2.97162e-07)
(-5.57761e-06 -1.88975e-11 1.53625e-11 9.53616e-08 -1.39078e-07 4.12441e-07)
(-5.69387e-06 -3.91058e-11 1.3174e-11 -3.09324e-06 -6.38724e-08 5.04578e-07)
(-4.36778e-06 5.99278e-13 1.09395e-11 6.11908e-07 -1.17151e-07 2.62715e-08)
(-4.29486e-06 -1.33923e-12 1.39833e-11 3.19784e-07 -1.2406e-07 7.00153e-08)
(-4.3533e-06 -3.92716e-12 1.39223e-11 3.2083e-07 -1.30055e-07 1.15564e-07)
(-4.44183e-06 -6.81828e-12 1.34258e-11 3.10823e-07 -1.37671e-07 1.68315e-07)
(-4.58601e-06 -1.01126e-11 1.26418e-11 2.82308e-07 -1.4307e-07 2.31879e-07)
(-4.84869e-06 -1.64449e-11 1.16139e-11 2.46115e-07 -1.35397e-07 3.0705e-07)
(-5.30164e-06 -2.06092e-11 1.01391e-11 5.00543e-08 -1.00756e-07 3.7748e-07)
(-5.44443e-06 -4.14662e-11 8.70515e-12 -2.9806e-06 -3.56837e-08 3.99656e-07)
(-4.2308e-06 5.80531e-13 8.03575e-12 6.02464e-07 -9.58155e-08 2.20912e-08)
(-4.15976e-06 -1.50754e-12 1.02619e-11 3.09377e-07 -1.04412e-07 7.12203e-08)
(-4.21859e-06 -4.28433e-12 1.02258e-11 3.03504e-07 -1.1194e-07 1.23664e-07)
(-4.30599e-06 -7.37299e-12 9.86856e-12 2.84428e-07 -1.17767e-07 1.80959e-07)
(-4.44763e-06 -1.08965e-11 9.30397e-12 2.49152e-07 -1.16952e-07 2.42469e-07)
(-4.70623e-06 -1.75286e-11 8.55608e-12 2.1645e-07 -1.01955e-07 3.01373e-07)
(-5.15354e-06 -2.19301e-11 7.52058e-12 3.81574e-08 -6.81093e-08 3.40945e-07)
(-5.3096e-06 -4.32681e-11 6.47216e-12 -2.91621e-06 -2.17567e-08 3.40348e-07)
(-4.15508e-06 5.58488e-13 5.2989e-12 5.8972e-07 -7.1631e-08 2.41093e-08)
(-4.08557e-06 -1.63352e-12 6.79375e-12 2.96071e-07 -7.84874e-08 7.72757e-08)
(-4.14426e-06 -4.53785e-12 6.77203e-12 2.85978e-07 -8.42378e-08 1.32793e-07)
(-4.23073e-06 -7.75714e-12 6.5364e-12 2.63917e-07 -8.7212e-08 1.89497e-07)
(-4.37074e-06 -1.14326e-11 6.16731e-12 2.2986e-07 -8.35107e-08 2.44069e-07)
(-4.62697e-06 -1.82495e-11 5.67851e-12 2.04228e-07 -6.91351e-08 2.88681e-07)
(-5.07101e-06 -2.27947e-11 5.02322e-12 3.61e-08 -4.37436e-08 3.11843e-07)
(-5.23374e-06 -4.44165e-11 4.35711e-12 -2.88013e-06 -1.36425e-08 3.04514e-07)
(-4.11399e-06 5.58449e-13 3.05889e-12 5.78741e-07 -4.42311e-08 2.64756e-08)
(-4.04546e-06 -1.70201e-12 3.93112e-12 2.84901e-07 -4.8429e-08 8.19956e-08)
(-4.10388e-06 -4.69024e-12 3.92699e-12 2.73087e-07 -5.17642e-08 1.38103e-07)
(-4.1897e-06 -7.99137e-12 3.79909e-12 2.50953e-07 -5.28316e-08 1.92478e-07)
(-4.32874e-06 -1.17622e-11 3.59802e-12 2.19752e-07 -4.93892e-08 2.40832e-07)
(-4.58367e-06 -1.86901e-11 3.32513e-12 1.99352e-07 -3.97517e-08 2.76398e-07)
(-5.02591e-06 -2.33248e-11 2.97049e-12 3.62627e-08 -2.45935e-08 2.91653e-07)
(-5.19193e-06 -4.51205e-11 2.59448e-12 -2.86044e-06 -7.64868e-09 2.82104e-07)
(-4.09577e-06 5.62524e-13 1.00273e-12 5.72598e-07 -1.49437e-08 2.7805e-08)
(-4.02769e-06 -1.72958e-12 1.29281e-12 2.78704e-07 -1.63352e-08 8.43509e-08)
(-4.08594e-06 -4.75658e-12 1.29384e-12 2.66438e-07 -1.7405e-08 1.40263e-07)
(-4.17143e-06 -8.09458e-12 1.25387e-12 2.44822e-07 -1.76256e-08 1.92932e-07)
(-4.31002e-06 -1.19118e-11 1.19144e-12 2.15451e-07 -1.62875e-08 2.37917e-07)
(-4.56437e-06 -1.88877e-11 1.10351e-12 1.97598e-07 -1.29536e-08 2.69303e-07)
(-5.00582e-06 -2.35695e-11 9.94543e-13 3.66006e-08 -7.95438e-09 2.81356e-07)
(-5.17321e-06 -4.54451e-11 8.70822e-13 -2.85162e-06 -2.47314e-09 2.71032e-07)
(-2.66409e-06 -4.63787e-08 -6.13097e-11 6.21812e-07 -2.18568e-12 -5.66451e-06)
(-2.59232e-06 -1.81271e-08 -7.71847e-11 1.50176e-07 -2.11721e-12 -5.54781e-06)
(-2.62789e-06 1.02996e-09 -7.80454e-11 2.41441e-07 -1.50166e-12 -5.61415e-06)
(-2.68206e-06 8.66172e-09 -7.73687e-11 3.19479e-07 -1.55005e-12 -5.69848e-06)
(-2.75648e-06 5.80684e-09 -7.61046e-11 3.94619e-07 -1.73377e-12 -5.83196e-06)
(-2.86198e-06 -1.76426e-08 -7.45843e-11 5.0381e-07 -2.2336e-12 -6.08218e-06)
(-2.98932e-06 -7.05209e-08 -7.2134e-11 4.51966e-07 -2.38654e-12 -6.51323e-06)
(-2.81972e-06 -1.00623e-07 -7.13767e-11 -3.10272e-06 -3.1975e-12 -6.53749e-06)
(5.47836e-08 -8.12521e-08 -5.08217e-11 5.02348e-07 -7.32752e-13 -5.61568e-06)
(9.0027e-08 -1.57667e-08 -6.55263e-11 2.14987e-07 -7.67966e-13 -5.54274e-06)
(9.0566e-08 2.44717e-09 -6.61912e-11 2.72856e-07 -4.81504e-13 -5.60363e-06)
(7.78813e-08 8.25984e-09 -6.56227e-11 3.48637e-07 -3.91297e-13 -5.69523e-06)
(7.7563e-08 5.85553e-09 -6.47897e-11 4.3191e-07 -3.36127e-13 -5.85004e-06)
(1.40374e-07 -1.04784e-08 -6.38996e-11 5.03655e-07 -3.9918e-13 -6.13892e-06)
(3.32196e-07 -3.89641e-08 -6.27159e-11 3.11005e-07 -4.08556e-13 -6.63443e-06)
(6.10377e-07 -5.06717e-08 -6.29664e-11 -3.30418e-06 -5.87218e-13 -6.69824e-06)
(4.97494e-08 1.01163e-07 -5.25923e-11 4.96548e-07 -4.79543e-13 -5.58134e-06)
(8.33468e-08 2.88579e-08 -6.76785e-11 2.06913e-07 -1.97729e-13 -5.50471e-06)
(8.38426e-08 7.21117e-09 -6.84426e-11 2.64716e-07 2.54696e-13 -5.56461e-06)
(7.11959e-08 -9.61963e-10 -6.78365e-11 3.40917e-07 6.23025e-13 -5.65597e-06)
(7.09639e-08 -6.19832e-10 -6.68834e-11 4.24421e-07 9.958e-13 -5.81078e-06)
(1.3367e-07 1.3775e-08 -6.57552e-11 4.96342e-07 1.36934e-12 -6.09988e-06)
(3.24026e-07 4.03648e-08 -6.42445e-11 3.0558e-07 1.68872e-12 -6.59626e-06)
(5.98086e-07 5.05325e-08 -6.39564e-11 -3.29013e-06 1.83349e-12 -6.66636e-06)
(-2.67768e-06 5.32189e-08 -6.06803e-11 6.00894e-07 -3.63899e-13 -5.5681e-06)
(-2.60589e-06 2.35594e-08 -7.74808e-11 1.2402e-07 2.3012e-13 -5.44357e-06)
(-2.64048e-06 3.1232e-09 -7.83489e-11 2.1767e-07 8.59129e-13 -5.50835e-06)
(-2.69328e-06 -5.51508e-09 -7.75808e-11 2.97537e-07 1.4444e-12 -5.59237e-06)
(-2.76626e-06 -3.56858e-09 -7.62291e-11 3.73535e-07 2.02945e-12 -5.7259e-06)
(-2.87157e-06 1.87041e-08 -7.45425e-11 4.83101e-07 2.71193e-12 -5.9764e-06)
(-3.00537e-06 6.975e-08 -7.18444e-11 4.35076e-07 3.22233e-12 -6.40813e-06)
(-2.86779e-06 9.8916e-08 -7.08754e-11 -3.06268e-06 3.94504e-12 -6.44404e-06)
(-5.27837e-06 3.01952e-12 3.54041e-11 6.00894e-07 -7.4756e-08 -2.85348e-06)
(-5.14885e-06 9.73761e-13 4.47904e-11 1.2402e-07 -5.46024e-08 -2.79931e-06)
(-5.21774e-06 -2.06556e-12 4.49256e-11 2.1767e-07 -3.87378e-08 -2.82681e-06)
(-5.30839e-06 -4.40771e-12 4.4036e-11 2.97537e-07 -3.3292e-08 -2.86728e-06)
(-5.44757e-06 -6.86632e-12 4.25285e-11 3.73535e-07 -3.93053e-08 -2.93263e-06)
(-5.69887e-06 -1.12648e-11 4.07086e-11 4.83101e-07 -6.34212e-08 -3.04481e-06)
(-6.12571e-06 -1.33758e-11 3.68701e-11 4.35076e-07 -1.09163e-07 -3.19927e-06)
(-6.15972e-06 -3.22653e-11 3.49099e-11 -3.06268e-06 -1.24906e-07 -3.06196e-06)
(-5.06636e-06 9.52342e-13 1.56344e-11 5.89126e-07 -2.02434e-07 -3.48489e-08)
(-4.95866e-06 -6.76307e-13 2.09452e-11 2.53977e-07 -1.23588e-07 -2.8711e-08)
(-5.01266e-06 -2.96181e-12 2.07735e-11 2.7878e-07 -9.9249e-08 -1.05342e-08)
(-5.10305e-06 -5.2474e-12 2.00899e-11 3.19038e-07 -9.58257e-08 5.83186e-09)
(-5.25308e-06 -7.70477e-12 1.91666e-11 3.59439e-07 -1.09705e-07 2.74904e-08)
(-5.52904e-06 -1.24693e-11 1.81815e-11 3.94511e-07 -1.37748e-07 7.93614e-08)
(-6.01e-06 -1.36456e-11 1.63474e-11 2.08739e-07 -1.55813e-07 2.10172e-07)
(-6.12599e-06 -3.42228e-11 1.60919e-11 -3.20023e-06 -1.09014e-07 4.36829e-07)
(-4.59726e-06 6.77499e-13 1.48324e-11 5.92907e-07 -1.36159e-07 4.85005e-08)
(-4.51385e-06 -1.1376e-12 1.93643e-11 2.92854e-07 -1.27469e-07 8.10831e-08)
(-4.56725e-06 -3.55166e-12 1.93443e-11 3.04006e-07 -1.24e-07 1.13574e-07)
(-4.6532e-06 -6.08965e-12 1.87845e-11 3.13849e-07 -1.2907e-07 1.51833e-07)
(-4.79665e-06 -8.8483e-12 1.79406e-11 3.10504e-07 -1.41623e-07 2.02558e-07)
(-5.06254e-06 -1.41651e-11 1.68814e-11 2.90956e-07 -1.51428e-07 2.82223e-07)
(-5.53062e-06 -1.54664e-11 1.51899e-11 8.155e-08 -1.34397e-07 3.96185e-07)
(-5.70018e-06 -3.8046e-11 1.40229e-11 -3.04547e-06 -6.19759e-08 4.87122e-07)
(-4.34312e-06 5.04528e-13 1.01009e-11 5.95013e-07 -1.09855e-07 2.34927e-08)
(-4.26297e-06 -1.46857e-12 1.33851e-11 2.96036e-07 -1.16985e-07 6.35096e-08)