/*--------------------------------*- C++ -*----------------------------------*\
| =========                 |                                                 |
| \\      /  F ield         | OpenFOAM: The Open Source CFD Toolbox           |
|  \\    /   O peration     | Version:  v1912                                 |
|   \\  /    A nd           | Website:  www.openfoam.com                      |
|    \\/     M anipulation  |                                                 |
\*---------------------------------------------------------------------------*/
FoamFile
{
    version     2.0;
    format      ascii;
    class       volVectorField;
    location    "0.11/solid";
    object      heatFlux;
}
// * * * * * * * * * * * * * * * * * * * * * * * * * * * * * * * * * * * * * //

dimensions      [1 0 -3 0 0 0 0];


internalField   nonuniform List<vector> 
256
(
(-113618 28414.1 -120584)
(-6969.8 14144.4 -108574)
(7130.12 14125.3 -107936)
(113589 28761.8 -118444)
(-113683 766.501 -120686)
(-7319.01 394.341 -108931)
(7487.31 393.011 -108251)
(113597 772.589 -118404)
(-114558 105.424 -121535)
(-7343.29 47.5174 -109682)
(7508.36 46.8851 -108982)
(114409 99.5295 -119192)
(-116129 181.635 -123040)
(-7377.54 82.9026 -111044)
(7539.32 82.5883 -110335)
(115913 175.123 -120666)
(-118915 373.065 -125726)
(-7442.34 181.08 -113556)
(7600.59 181.055 -112844)
(118639 366.68 -123340)
(-123987 1007.49 -130695)
(-7569.55 614.858 -118402)
(7724.92 615.164 -117695)
(123701 1005.98 -128317)
(-133617 9881.99 -140383)
(-7834.67 8888.95 -128388)
(7991.71 8873.83 -127695)
(133517 9850.77 -138046)
(-147095 154744 -154743)
(-8577.71 144779 -144777)
(8686.74 144112 -144111)
(147791 152502 -152501)
(-97588 13201.5 -7889.45)
(-6069.77 720.377 -6717.23)
(6288.24 734.912 -6700.78)
(97012.3 13637.7 -7843.85)
(-97974.6 374.424 -8281.63)
(-6396.84 26.022 -7078.93)
(6629.09 26.5225 -7061.02)
(97338.2 385.925 -8231.62)
(-98791.9 52.2387 -8304.86)
(-6417.67 1.7287 -7098.78)
(6648.14 1.65043 -7080.47)
(98083.6 47.6689 -8253.82)
(-100272 91.8751 -8336)
(-6447.43 2.60786 -7125.53)
(6675.03 2.4807 -7107.06)
(99479.3 85.1798 -8284.76)
(-102962 195.124 -8395.36)
(-6507.06 9.34136 -7180.24)
(6730.72 9.16284 -7161.74)
(102079 186.648 -8344.71)
(-108028 628.729 -8514.04)
(-6633.39 212.918 -7299.98)
(6852.33 212.463 -7281.67)
(107084 621.841 -8465.35)
(-118084 8777.12 -8777.04)
(-6923.33 7593.51 -7593.49)
(7139.64 7575.8 -7575.79)
(117252 8732.84 -8732.89)
(-133619 140385 -9881.87)
(-7834.7 128390 -8888.9)
(7991.67 127696 -8873.81)
(133516 138045 -9850.82)
(-87389.9 12243.1 -600.503)
(-5781.13 348.252 -184.91)
(6003.49 363.537 -184.441)
(86748 12686.4 -592.103)
(-87775.7 351.099 -627.506)
(-6098.39 12.7841 -198.076)
(6334.62 13.3201 -197.57)
(87064.3 362.623 -618.877)
(-88578 51.054 -628.157)
(-6118.9 0.914328 -198.527)
(6353.33 0.842273 -198.017)
(87792 46.3883 -619.596)
(-90044.9 91.1282 -628.155)
(-6148.6 1.44256 -198.894)
(6380.1 1.31456 -198.383)
(89171.6 84.2387 -619.682)
(-92734.7 195.026 -627.565)
(-6208.72 6.63185 -199.683)
(6436.13 6.44232 -199.176)
(91766 186.089 -619.28)
(-97843.7 625.82 -625.726)
(-6337.19 201.617 -201.616)
(6559.55 201.118 -201.119)
(96803.7 617.8 -617.853)
(-108031 8514.16 -628.632)
(-6633.42 7300.03 -212.916)
(6852.31 7281.69 -212.464)
(107082 8465.29 -621.895)
(-123991 130700 -1007.28)
(-7569.65 118406 -614.786)
(7724.82 117697 -615.137)
(123698 128317 -1006.06)
(-82191.2 11973.5 -193.823)
(-5653.7 337.391 -6.21832)
(5881.05 352.902 -6.03399)
(81618.2 12426.7 -185.135)
(-82575.6 346.77 -200.066)
(-5966.9 12.4048 -6.63915)
(6208.29 12.9464 -6.44452)
(81930.7 358.432 -191.054)
(-83382.7 51.5894 -199.788)
(-5987.53 0.910108 -6.6444)
(6227.07 0.836878 -6.45054)
(82662.3 46.8634 -190.817)
(-84864 92.4668 -198.946)
(-6017.66 1.45171 -6.63491)
(6254.24 1.32172 -6.44266)
(84056.2 85.4961 -190.041)
(-87583 197.554 -197.356)
(-6078.67 6.62032 -6.61796)
(6311.12 6.42734 -6.42801)
(86680 188.477 -188.538)
(-92739.5 627.663 -194.826)
(-6208.78 199.685 -6.62954)
(6436.1 199.175 -6.44305)
(91764.2 619.226 -186.148)
(-102969 8395.56 -194.915)
(-6507.16 7180.34 -9.33722)
(6730.66 7161.78 -9.16287)
(102075 8344.63 -186.709)
(-118925 125737 -372.599)
(-7442.56 113563 -180.913)
(7600.39 112847 -180.977)
(118635 123339 -366.778)
(-79428.7 11849.2 -91.4373)
(-5593.34 335.395 -1.40594)
(5824.57 351.059 -1.28442)
(78938.6 12310.2 -85.0423)
(-79814.7 345.135 -94.0686)
(-5904.77 12.3581 -1.4743)
(6150.21 12.9036 -1.3457)
(79252.9 356.941 -87.4012)
(-80630.2 52.1742 -93.7516)
(-5925.57 0.918577 -1.47028)
(6169.16 0.844131 -1.34234)
(79993.2 47.4014 -87.1082)
(-82128.4 93.5595 -93.0583)
(-5956.1 1.469 -1.45964)
(6196.69 1.33708 -1.33327)
(81404.2 86.5173 -86.4763)
(-84873.4 199.146 -91.9579)
(-6017.79 6.63722 -1.44225)
(6254.2 6.44193 -1.31784)
(84054.5 189.982 -85.4495)
(-90059.2 628.261 -90.6051)
(-6148.8 198.898 -1.43292)
(6380.03 198.384 -1.31052)
(89168.2 619.63 -84.1783)
(-100289 8336.38 -91.3205)
(-6447.67 7125.75 -2.58927)
(6674.94 7107.16 -2.47029)
(99474.2 8284.66 -85.1033)
(-116150 123062 -180.4)
(-7378.03 111060 -82.3974)
(7538.95 110343 -82.2854)
(115905 120666 -175.001)
(-77927.4 11788 -44.9044)
(-5563.55 334.511 -0.633212)
(5797.41 350.272 -0.558903)
(77504.8 12254.3 -40.7575)
(-78315.3 344.456 -46.0998)
(-5874.18 12.3404 -0.661437)
(6122.36 12.8884 -0.582728)
(77822 356.366 -41.7694)
(-79138.1 52.5997 -45.8683)
(-5895.12 0.924773 -0.658276)
(6141.44 0.849311 -0.580062)
(78569.8 47.7883 -41.5538)
(-80649 94.2606 -45.417)
(-5925.93 1.47975 -0.651545)
(6169.22 1.34622 -0.574561)
(79993.8 87.1547 -41.1528)
(-83411.3 200.007 -44.7741)
(-5988.03 6.64703 -0.641673)
(6227.11 6.45009 -0.566173)
(82661.6 190.775 -40.5698)
(-88612.3 628.3 -44.1299)
(-6119.49 198.538 -0.636827)
(6353.35 198.023 -0.562556)
(87790.2 619.572 -39.9797)
(-98830.3 8305.77 -44.8394)
(-6418.31 7099.38 -1.16747)
(6648.15 7080.81 -1.0936)
(98080.8 8253.81 -40.7768)
(-114601 121584 -90.2394)
(-7344.45 109716 -39.7366)
(7507.79 109001 -39.6087)
(114403 119194 -86.3633)
(-77136.8 11758.2 -20.8005)
(-5548.99 334.1 -0.281356)
(5784.45 349.917 -0.241397)
(76760.5 12227.6 -18.4878)
(-77526.1 344.171 -21.322)
(-5859.25 12.333 -0.293337)
(6109.1 12.8824 -0.251006)
(77079.9 356.144 -18.9059)
(-78353.6 52.857 -21.1896)
(-5880.28 0.928469 -0.291515)
(6128.26 0.852298 -0.24949)
(77832.7 48.018 -18.7832)
(-79872.6 94.6537 -20.9463)
(-5911.26 1.48561 -0.287961)
(6156.19 1.35097 -0.2467)
(79264.7 87.5013 -18.5722)
(-82644.7 200.433 -20.623)
(-5973.58 6.65194 -0.28311)
(6214.28 6.45393 -0.242754)
(81942.4 191.155 -18.2876)
(-87852.6 628.196 -20.3468)
(-6105.24 198.372 -0.281057)
(6340.69 197.856 -0.241361)
(87077.6 619.423 -18.0428)
(-98058.9 8290.27 -20.8054)
(-6403.92 7086.65 -0.515538)
(6635.33 7068.11 -0.475511)
(97354.6 8238.28 -18.5331)
(-113768 120794 -42.3614)
(-7327.4 109011 -18.2167)
(7492.33 108299 -18.13)
(113605 118411 -40.084)
(-76795 11745.9 -6.06751)
(-5542.99 333.936 -0.080274)
(5779.21 349.779 -0.0676567)
(76442.1 12216.9 -5.32457)
(-77185 344.067 -6.21409)
(-5853.11 12.3303 -0.0835923)
(6103.75 12.8803 -0.0702247)
(76762.6 356.07 -5.43783)
(-78014.8 52.9754 -6.17164)
(-5874.18 0.930149 -0.0830101)
(6122.95 0.853617 -0.0697453)
(77517.9 48.122 -5.39866)
(-79537.5 94.8271 -6.09564)
(-5905.23 1.48815 -0.0819124)
(6150.94 1.35295 -0.0689056)
(78953.6 87.6503 -5.33377)
(-82314.1 200.606 -5.99821)
(-5967.65 6.65394 -0.0804666)
(6209.11 6.45543 -0.0677619)
(81635.6 191.304 -5.24961)
(-87524.5 628.118 -5.92225)
(-6099.38 198.306 -0.0799145)
(6335.59 197.79 -0.0674142)
(86773.3 619.327 -5.18389)
(-97724.3 8283.75 -6.07665)
(-6397.98 7081.44 -0.146565)
(6630.13 7062.92 -0.133883)
(97042.8 8231.77 -5.34571)
(-113403 120450 -12.4413)
(-7320.22 108708 -5.28586)
(7485.92 107996 -5.25603)
(113259 118070 -11.6928)
)
;

boundaryField
{
    interface
    {
        type            calculated;
        value           nonuniform List<vector> 
192
(
(-213315 28414.1 -120584)
(-212749 766.501 -120686)
(-214451 105.424 -121535)
(-217525 181.635 -123040)
(-222968 373.065 -125726)
(-232855 1007.49 -130695)
(-251586 9881.99 -140383)
(-277087 154744 -154743)
(-183022 13201.5 -7889.45)
(-183141 374.424 -8281.63)
(-184733 52.2387 -8304.86)
(-187634 91.8751 -8336)
(-192894 195.124 -8395.36)
(-202775 628.729 -8514.04)
(-222308 8777.12 -8777.04)
(-251589 140385 -9881.87)
(-163203 12243.1 -600.503)
(-163339 351.099 -627.506)
(-164902 51.054 -628.157)
(-167777 91.1282 -628.155)
(-173036 195.026 -627.565)
(-182998 625.82 -625.726)
(-202780 8514.16 -628.632)
(-232864 130700 -1007.28)
(-153060 11973.5 -193.823)
(-153201 346.77 -200.066)
(-154774 51.5894 -199.788)
(-157677 92.4668 -198.946)
(-162993 197.554 -197.356)
(-173046 627.663 -194.826)
(-192909 8395.56 -194.915)
(-222987 125737 -372.599)
(-147656 11849.2 -91.4373)
(-147804 345.135 -94.0686)
(-149393 52.1742 -93.7516)
(-152329 93.5595 -93.0583)
(-157695 199.146 -91.9579)
(-167805 628.261 -90.6051)
(-187669 8336.38 -91.3205)
(-217565 123062 -180.4)
(-144712 11788 -44.9044)
(-144866 344.456 -46.0998)
(-146470 52.5997 -45.8683)
(-149430 94.2606 -45.417)
(-154831 200.007 -44.7741)
(-164970 628.3 -44.1299)
(-184809 8305.77 -44.8394)
(-214534 121584 -90.2394)
(-143160 11758.2 -20.8005)
(-143317 344.171 -21.322)
(-144930 52.857 -21.1896)
(-147906 94.6537 -20.9463)
(-153326 200.433 -20.623)
(-163479 628.196 -20.3468)
(-183295 8290.27 -20.8054)
(-212903 120794 -42.3614)
(-142489 11745.9 -6.06751)
(-142647 344.067 -6.21409)
(-144265 52.9754 -6.17164)
(-147248 94.8271 -6.09564)
(-152677 200.606 -5.99821)
(-162834 628.118 -5.92225)
(-182638 8283.75 -6.07665)
(-212188 120450 -12.4413)
(-113618 28414.1 -226324)
(-113683 766.501 -225791)
(-114558 105.424 -227444)
(-116129 181.635 -230391)
(-118915 373.065 -235645)
(-123987 1007.49 -245345)
(-133617 9881.99 -264201)
(-147095 154744 -291231)
(-6969.8 14144.4 -204072)
(-7319.01 394.341 -204089)
(-7343.29 47.5174 -205552)
(-7377.54 82.9026 -208224)
(-7442.34 181.08 -213139)
(-7569.55 614.858 -222597)
(-7834.67 8888.95 -241999)
(-8577.71 144779 -272756)
(7130.12 14125.3 -202830)
(7487.31 393.011 -202764)
(7508.36 46.8851 -204188)
(7539.32 82.5883 -206842)
(7600.59 181.055 -211751)
(7724.92 615.164 -221217)
(7991.71 8873.83 -240648)
(8686.74 144112 -271454)
(113589 28761.8 -222129)
(113597 772.589 -221318)
(114409 99.5295 -222853)
(115913 175.123 -225740)
(118639 366.68 -230968)
(123701 1005.98 -240681)
(133517 9850.77 -259611)
(147791 152502 -286814)
(212899 28761.8 -118444)
(212199 772.589 -118404)
(213780 99.5295 -119192)
(216725 175.123 -120666)
(222056 366.68 -123340)
(231931 1005.98 -128317)
(251030 9850.77 -138046)
(278158 152502 -152501)
(181462 13637.7 -7843.85)
(181433 385.925 -8231.62)
(182886 47.6689 -8253.82)
(185623 85.1798 -8284.76)
(190711 186.648 -8344.71)
(200477 621.841 -8465.35)
(220239 8732.84 -8732.89)
(251028 138045 -9850.82)
(161504 12686.4 -592.103)
(161475 362.623 -618.877)
(162893 46.3883 -619.596)
(165599 84.2387 -619.682)
(170675 186.089 -619.28)
(180504 617.8 -617.853)
(200474 8465.29 -621.895)
(231926 128317 -1006.06)
(151489 12426.7 -185.135)
(151461 358.432 -191.054)
(152887 46.8634 -190.817)
(155620 85.4961 -190.041)
(160754 188.477 -188.538)
(170672 619.226 -186.148)
(190704 8344.63 -186.709)
(222047 123339 -366.778)
(146243 12310.2 -85.0423)
(146222 356.941 -87.4012)
(147664 47.4014 -87.1082)
(150431 86.5173 -86.4763)
(155617 189.982 -85.4495)
(165592 619.63 -84.1783)
(185613 8284.66 -85.1033)
(216711 120666 -175.001)
(143430 12254.3 -40.7575)
(143416 356.366 -41.7694)
(144873 47.7883 -41.5538)
(147665 87.1547 -41.1528)
(152885 190.775 -40.5698)
(162890 619.572 -39.9797)
(182880 8253.81 -40.7768)
(213769 119194 -86.3633)
(141967 12227.6 -18.4878)
(141958 356.144 -18.9059)
(143425 48.018 -18.7832)
(146233 87.5013 -18.5722)
(151472 191.155 -18.2876)
(161490 619.423 -18.0428)
(181454 8238.28 -18.5331)
(212204 118411 -40.084)
(141341 12216.9 -5.32457)
(141334 356.07 -5.43783)
(142806 48.122 -5.39866)
(145621 87.6503 -5.33377)
(150869 191.304 -5.24961)
(160891 619.327 -5.18389)
(180840 8231.77 -5.34571)
(211524 118070 -11.6928)
(-147095 291233 -154743)
(-133619 264207 -9881.87)
(-123991 245356 -1007.28)
(-118925 235667 -372.599)
(-116150 230435 -180.4)
(-114601 227539 -90.2394)
(-113768 225990 -42.3614)
(-113403 225314 -12.4413)
(-8577.71 272758 -144777)
(-7834.7 242003 -8888.9)
(-7569.65 222604 -614.786)
(-7442.56 213153 -180.913)
(-7378.03 208254 -82.3974)
(-7344.45 205619 -39.7366)
(-7327.4 204235 -18.2167)
(-7320.22 203638 -5.28586)
(8686.74 271456 -144111)
(7991.67 240650 -8873.81)
(7724.82 221221 -615.137)
(7600.39 211758 -180.977)
(7538.95 206858 -82.2854)
(7507.79 204225 -39.6087)
(7492.33 202845 -18.13)
(7485.92 202250 -5.25603)
(147791 286814 -152501)
(133516 259611 -9850.82)
(123698 240680 -1006.06)
(118635 230966 -366.778)
(115905 225738 -175.001)
(114403 222856 -86.3633)
(113605 221320 -40.084)
(113259 220652 -11.6928)
)
;
    }
    symmetry
    {
        type            symmetry;
    }
    bottom
    {
        type            calculated;
        value           nonuniform List<vector> 
32
(
(-113618 55383.7 -120584)
(-97588 25697.6 -7889.45)
(-87389.9 23825.8 -600.503)
(-82191.2 23295.6 -193.823)
(-79428.7 23050.5 -91.4373)
(-77927.4 22929.9 -44.9044)
(-77136.8 22870.9 -20.8005)
(-76795 22846.7 -6.06751)
(-6969.8 27540.8 -108574)
(-6069.77 1390.54 -6717.23)
(-5781.13 671.878 -184.91)
(-5653.7 650.9 -6.21832)
(-5593.34 647.004 -1.40594)
(-5563.55 645.276 -0.633212)
(-5548.99 644.472 -0.281356)
(-5542.99 644.15 -0.080274)
(7130.12 27504.5 -107936)
(6288.24 1418.56 -6700.78)
(6003.49 701.333 -184.441)
(5881.05 680.794 -6.03399)
(5824.57 677.197 -1.28442)
(5797.41 675.657 -0.558903)
(5784.45 674.962 -0.241397)
(5779.21 674.691 -0.0676567)
(113589 56061.3 -118444)
(97012.3 26543.5 -7843.85)
(86748 24685.8 -592.103)
(81618.2 24175.1 -185.135)
(78938.6 23945.3 -85.0423)
(77504.8 23834.9 -40.7575)
(76760.5 23782.3 -18.4878)
(76442.1 23761 -5.32457)
)
;
    }
}


// ************************************************************************* //
