/*--------------------------------*- C++ -*----------------------------------*\
| =========                 |                                                 |
| \\      /  F ield         | OpenFOAM: The Open Source CFD Toolbox           |
|  \\    /   O peration     | Version:  v1912                                 |
|   \\  /    A nd           | Website:  www.openfoam.com                      |
|    \\/     M anipulation  |                                                 |
\*---------------------------------------------------------------------------*/
FoamFile
{
    version     2.0;
    format      ascii;
    class       volSymmTensorField;
    location    "0.11/solid";
    object      sigma;
}
// * * * * * * * * * * * * * * * * * * * * * * * * * * * * * * * * * * * * * //

dimensions      [1 -1 -2 0 0 0 0];


internalField   nonuniform List<symmTensor> 
256
(
(-634063 -7135.19 9495.49 -128539 -12454.4 -670472)
(-95803.4 -12500.3 4479 -26947.4 -9140.97 -558426)
(-96043 15563.5 -4490.53 -27304.7 -8887.62 -555209)
(-630445 8187.53 -9285.37 -126049 -11500.9 -657490)
(-645181 -2788.78 13595.8 -223259 -8998.11 -684741)
(-109968 -2425.64 6679.89 -90743.3 -9844.99 -577808)
(-110733 4439.68 -6647.16 -91722.7 -9684.04 -574592)
(-641611 3624.52 -13285 -221624 -8400.36 -671366)
(-646297 158.455 13463.1 -204862 -6415.87 -684618)
(-105408 376.488 6663.52 -77363.7 -6865.49 -577026)
(-106171 1109.41 -6605.54 -78344.4 -6746.18 -573758)
(-642256 480.492 -13132.6 -202540 -5959.67 -670922)
(-654969 1332.57 13313 -193193 -5511.32 -691116)
(-104566 1270.74 6594.95 -62910.9 -5112.52 -581120)
(-105282 -147.994 -6531.56 -63786.4 -5010.41 -577821)
(-650470 -848.474 -12975.2 -190345 -5121.85 -677239)
(-670819 893.36 13764.1 -186035 -6401.01 -705511)
(-103029 900.851 6868.24 -48513.8 -5597.64 -592039)
(-103711 -95.3587 -6803.54 -49333.1 -5501.35 -588737)
(-665965 -549.012 -13420.3 -182921 -6046.97 -691561)
(-693207 -2714.25 14645.7 -175393 -10103 -728868)
(-90818 -1612.06 7388.74 -34928.6 -9317.9 -610975)
(-91531.3 2119.23 -7318.22 -35735.5 -9215.3 -607720)
(-688378 2877.55 -14297.4 -172275 -9757.1 -715030)
(-732325 -10849.4 15511.3 -202896 -17167.3 -772024)
(-71386.8 -5994.48 7870.75 -74647 -17040.4 -650683)
(-72354 6209.96 -7778.03 -75191.7 -16911 -647568)
(-728857 10730.8 -15164.2 -199559 -16794.4 -758689)
(-851916 -15480.5 15515.9 -895453 -19540.2 -895407)
(-188721 -7795.64 7851.47 -790960 -20024.7 -790921)
(-189404 7774.23 -7720.57 -787591 -19892.8 -787513)
(-852200 15217.8 -15193.3 -882183 -19216.4 -882072)
(-493397 3000.01 5985.8 12886 -33011.1 -86248.5)
(20068.7 -8863.88 2892.08 105280 -39137.5 17432.5)
(18896.9 10485.9 -2757.93 103240 -38539.5 16461.4)
(-487850 -2341.38 -5764.36 12900.1 -31143.7 -83096.1)
(-518057 -1316.87 9497.03 -65159.9 -20316.5 -111650)
(-7315.97 -2048.08 5129.53 73238.5 -23801.9 -4759)
(-8793.19 3008.42 -4862.46 70827.2 -23411.9 -6092.25)
(-512332 1725.88 -9156.01 -65618.5 -19013.6 -109109)
(-520842 -252.75 9568.46 -59950.1 -16303 -106665)
(-9222.22 -141.609 5250.81 69841.9 -17204.6 -1977.36)
(-10707 821.849 -4959.97 67494.8 -16911.4 -3422.16)
(-514627 543.748 -9212.74 -59667.3 -15269.1 -104177)
(-527702 1015.08 9290.65 -52811.8 -15646.3 -102730)
(-6607.1 752.103 5055.51 77603.4 -15252.5 4444.34)
(-8067.97 -264.881 -4784.03 75331.2 -14997.1 2938.65)
(-520965 -803.006 -8939.64 -52060.6 -14742.4 -100246)
(-541027 942.151 9416.62 -47450.4 -17713.9 -99983.6)
(250.623 599.855 5154.2 91377.8 -16999.2 13719.1)
(-1181.93 -299.185 -4899.56 89136.9 -16756.9 12167.2)
(-533761 -813.699 -9067.89 -46416.5 -16877.7 -97485.5)
(-560973 -2317.79 9882.6 -43074.3 -21983.5 -92783.6)
(20075.5 -1643.65 5522.39 102116 -21424.5 31370.8)
(18626.2 1762.26 -5268.87 99922.7 -21188.1 29768.3)
(-553427 2307.4 -9532.2 -41871.3 -21192 -90355.9)
(-599206 -10419.3 10475.7 -85631.1 -24666.1 -85658.9)
(49401.7 -5845.31 5955.44 51948.2 -24408.3 51991.3)
(47738.7 5825.36 -5710.73 50187.5 -24194 50335.5)
(-592622 10167.5 -10137.8 -83835.1 -23971.3 -83614.7)
(-732373 -15488.8 10929.1 -772085 -17125.6 -202863)
(-71476.2 -7835.83 6159.34 -650762 -17017.1 -74612.1)
(-72424.8 7813.01 -6051.25 -647669 -16892.3 -75024.7)
(-728866 15178.8 -10683.7 -758789 -16771.4 -199241)
(-442591 8904.16 893.011 33694 -22493.2 -52635.2)
(9370.39 -4588.52 533.361 104690 -28918 46460.8)
(8325.75 5521.11 -321.518 102741 -28412.7 45392.9)
(-436264 -8488.07 -788.593 34700.6 -20947.5 -49054.2)
(-472871 195.971 2271.07 -37072.3 -20938.9 -72270.9)
(-24298.5 -1158.18 1443.65 88614.1 -23897.2 39763.3)
(-25580.2 1578.79 -1078.22 86245 -23478.6 38210)
(-466335 10.5707 -2082.19 -37078.1 -19610.7 -69658.2)
(-477035 -400.813 2513.87 -34390 -20237 -65490.9)
(-29496.3 -402.396 1612.15 83001.4 -20892.2 44122.8)
(-30771.2 664.313 -1233.78 80682.2 -20535.7 42410.1)
(-470005 525.305 -2312.11 -33783.7 -19077 -63081)
(-483761 727.603 2332.1 -32393.7 -20909.6 -58613.5)
(-27470.9 458.811 1486.54 84012.4 -20495.4 53012.9)
(-28720.5 -289.155 -1138.06 81757 -20172.3 51211.4)
(-476201 -643.002 -2139.31 -31364.7 -19856.9 -56290.3)
(-497431 873.056 2188.59 -34878.6 -22764.2 -52444.8)
(-21376.1 550.921 1432.1 89042.4 -22106.7 66360.6)
(-22595.1 -480.298 -1111.54 86817.4 -21803.2 64489.2)
(-489316 -837.129 -2005.1 -33561.4 -21788.1 -50168.4)
(-519056 -2143.13 2185.66 -41426.8 -24189.1 -43385.8)
(-4065.42 -1447.95 1540.95 88943.9 -23673.3 87276.4)
(-5299.58 1423.01 -1242.66 86782.8 -23393.9 85334.8)
(-510610 2071.77 -2010.43 -39887.1 -23296.6 -41230.6)
(-560927 -9839.68 2404.08 -91894.6 -21396.6 -43113.1)
(20216.3 -5434.34 1799.89 32123.3 -20944.1 102274)
(18763.7 5365.64 -1562.61 30413.6 -20723.2 100298)
(-553346 9557.27 -2256.59 -89729.8 -20676.4 -41324.4)
(-693301 -14635.5 2861.1 -728739 -9826.52 -175228)
(-90981 -7365.12 1877.45 -610906 -9110.16 -34725.9)
(-91680.3 7345.8 -1861.48 -607667 -9020 -35266)
(-688395 14310.8 -2818.92 -714919 -9534.75 -171443)
(-415665 10366.9 -724.263 41273.9 -18023.2 -48824)
(1556.08 -3128.54 -480.481 98658.1 -21253.8 40915.5)
(520.655 3724.6 678.82 96917.6 -20885.5 39964.5)
(-409525 -10129 780.337 43149.8 -16900.7 -44776.4)
(-448504 781.55 -769.54 -29466.2 -19086.1 -67892)
(-36557.6 -777.795 -545.434 84810.9 -20447.4 37221.3)
(-37838.6 924.449 894.195 82586.4 -20095.5 35794)
(-442226 -683.324 885.665 -29090 -17997.7 -64863.3)
(-453683 -404.971 -670.061 -28151.3 -20008.4 -59730.6)
(-43641.2 -494.245 -498.111 78465.2 -20183.5 43121.3)
(-44906.8 540.488 861.212 76230.8 -19855.4 41522.2)
(-446916 447.38 798.523 -27370.3 -18981.7 -56959)
(-460603 527.847 -748.832 -29402.3 -21180.2 -51326.7)
(-42136.2 286.934 -553.884 75609.9 -20735.5 53293.8)
(-43373 -274.436 887.82 73410.9 -20426.2 51590.2)
(-453312 -504.618 869.052 -28287.8 -20210.4 -48696.5)
(-474514 699.731 -909.866 -36555.5 -22010.7 -44313.7)
(-36490.1 475.402 -632.791 75311 -21391.9 67456.4)
(-37695.5 -505.881 934.052 73134.7 -21100.5 65669.2)
(-466674 -704.044 1018.13 -35179.7 -21101.6 -41776.8)
(-497036 -2123.44 -1021.47 -47268.5 -20830.3 -37893.8)
(-20583.6 -1328.73 -633.291 71080.8 -20303.5 85917.1)
(-21803.9 1256.29 897.815 68967.8 -20042.7 84055.2)
(-488860 2032.74 1115.24 -45667.8 -20011.9 -35497)
(-540731 -9327.48 -926.873 -97412.1 -15501 -47038.9)
(962.066 -5027.61 -501.847 16078.1 -15005.8 91842.4)
(-476.572 4954.8 681.444 14405.6 -14812.1 89967.4)
(-533368 9042.58 985.956 -95199.9 -14866.8 -44957.2)
(-670901 -13730.8 -697.379 -704908 -5489.8 -184868)
(-103101 -6831.33 -577.523 -591540 -4790.39 -47421.8)
(-103770 6809.69 522.54 -588242 -4720.37 -47792.9)
(-665900 13402.4 652.919 -690936 -5247.09 -180559)
(-399596 10161.6 -739.125 44934 -14740.9 -44354.1)
(-154.458 -3160.04 -527.751 95024.4 -15710.3 37038.7)
(-1200.96 3579.1 679.357 93470.6 -15455.2 36194.8)
(-393816 -10040.1 776.996 47434.4 -13970.9 -40032.7)
(-432335 769.853 -1146.91 -25645.3 -16063.4 -62284.8)
(-38886.3 -826.556 -855.472 80772.6 -16267.5 33141.1)
(-40206 829.835 1133.83 78688.6 -16004.9 31852.8)
(-426495 -732.188 1230.89 -24976.4 -15262.7 -58953.6)
(-437859 -438.912 -1190.63 -25542.3 -17221.5 -53209.9)
(-46574.6 -562.801 -901.968 73470.5 -17026.6 39711.6)
(-47874.9 495.061 1199.58 71321.4 -16766.9 38256.5)
(-431539 438.963 1286.64 -24640.3 -16423 -50131.8)
(-445000 412.569 -1236.2 -28575.6 -18118 -44494)
(-45388.1 196.496 -930.916 68706 -17686.3 50093.6)
(-46656.2 -265.768 1207.34 66560.8 -17433.1 48529.2)
(-438160 -420.443 1326.59 -27434 -17336.6 -41577.7)
(-459088 569.046 -1336.51 -37416.1 -17992.6 -38444.3)
(-39973.6 416.487 -980.5 66430.9 -17487.9 63163.1)
(-41209.5 -495.435 1226.78 64294.8 -17246.8 61509.6)
(-451707 -592.421 1415.77 -36057.3 -17248.4 -35646.1)
(-482037 -2117.47 -1414.05 -48604.1 -15685.4 -35539.2)
(-24713.9 -1257.64 -994.558 61808.9 -15255.2 78003.1)
(-25964.3 1167.48 1201.21 59729.5 -15041.3 76275.1)
(-474322 2019.98 1477.63 -47036.4 -15016.1 -32889.1)
(-526516 -8964.27 -1358.59 -97218.1 -10478.4 -50635.4)
(-4414.24 -4737.23 -934.652 9434.2 -10097.8 78113)
(-5881.99 4666.92 1056.06 7785.06 -9942.41 76382.7)
(-519583 8681.51 1387.88 -95048.1 -9966.13 -48271)
(-654639 -13096.3 -1267.74 -689413 -3347.18 -188404)
(-103718 -6450.9 -1056.68 -579479 -2875.48 -59015.2)
(-104413 6427.61 965.435 -576168 -2820.29 -59221.7)
(-649874 12767.8 1204.51 -675440 -3150.93 -183698)
(-390509 9705.75 -446.921 45729.8 -11020.2 -41287.2)
(-264.492 -3483.91 -310.371 92348 -11073.1 35107.7)
(-1315.99 3808.4 414.134 90934.8 -10907.1 34339.2)
(-385042 -9653.44 473.013 48650.5 -10525.8 -36805.8)
(-422465 607.858 -760.105 -24383.1 -12075 -58043.9)
(-38195.8 -980.765 -553.527 77546.1 -11830 30801.6)
(-39542.7 908.601 751.066 75573 -11652.1 29614.9)
(-416993 -603.192 820.201 -23498.1 -11538.4 -54509.8)
(-427939 -501.575 -835.566 -24981.6 -12959.7 -48548.5)
(-45778.6 -627.984 -612.128 69539.3 -12642.5 37393.3)
(-47104.4 499.316 829.385 67462.3 -12460 36049)
(-421993 479.372 906.192 -23978.8 -12403.8 -45243.3)
(-435193 346.413 -871.885 -28754 -13417.2 -40203.3)
(-44682.6 150.746 -631.835 64045 -13061.2 47322.8)
(-45973.7 -264.708 836.827 61946.5 -12878.8 45870.1)
(-428729 -370.863 939.525 -27585.1 -12858 -37060.1)
(-449418 501.721 -923.537 -37837 -12847.8 -35650.9)
(-39404 390.173 -655.061 61452.9 -12493.6 58850)
(-40662.2 -495.779 837.201 59350.5 -12317.9 57306.4)
(-442417 -535.337 982.733 -36492.1 -12306.6 -32635.7)
(-472605 -2101.04 -959.442 -48509.4 -10636.2 -35516.5)
(-24483.1 -1209.47 -661.355 57446.9 -10350.5 70894.2)
(-25755.6 1109.75 809.933 55394.4 -10194.2 69276.3)
(-465272 2000.12 1005.38 -46973.2 -10146.4 -32655.1)
(-517424 -8742.82 -925.58 -96122.8 -6729.79 -53700.8)
(-4780.54 -4565.78 -638.042 6723.52 -6502.38 68029.8)
(-6269.61 4497 716.075 5094.35 -6389.38 66413.9)
(-510853 8461.85 943.155 -93989.7 -6354.9 -51112.9)
(-644097 -12727.8 -889.193 -680190 -2098.85 -190244)
(-101309 -6233.47 -740.722 -572419 -1842.07 -66913.3)
(-102028 6209.34 650.913 -569107 -1801.78 -66999.3)
(-639581 12400.2 833.999 -666254 -1953.97 -185257)
(-385752 9394.78 -213.921 45301.1 -6804.79 -39662.7)
(-229.919 -3708.89 -135.78 90379.2 -6668.15 34265.9)
(-1282.1 3985.83 195.978 89058.2 -6574.85 33545)
(-380503 -9380.2 229.29 48477.2 -6530.02 -35093)
(-417101 486.49 -370.364 -24443.7 -7450.61 -55659.8)
(-37356.6 -1089.18 -250.298 75254.2 -7193.11 29872.2)
(-38718.1 979.368 367.634 73355.4 -7090.85 28749.8)
(-411881 -498.583 406.638 -23418.7 -7144.37 -52002.4)
(-422451 -552.672 -419.281 -25327.1 -7963.72 -46094)
(-44687 -672.398 -284.284 66902.5 -7715.24 36273.9)
(-46026.4 512.464 415.985 64876.5 -7608.06 35001.8)
(-416760 519.237 462.74 -24251.7 -7638.81 -42642)
(-429737 308.852 -443.3 -29280.8 -8127.94 -38276.9)
(-43568.5 127.955 -296.028 61245.7 -7897.75 45616.2)
(-44871.6 -265.988 421.933 59181.7 -7788.8 44238)
(-423529 -342.075 485.506 -28086.4 -7794.82 -34980.4)
(-444050 472.142 -467.543 -38180 -7598.34 -34937)
(-38363.1 381.998 -305.735 58832.5 -7393.29 55932.3)
(-39633 -502.926 417.706 56755.2 -7287.2 54463.1)
(-437306 -511.544 504.584 -36838.9 -7271.77 -31771.5)
(-467372 -2084.78 -481.454 -48354.5 -6115.64 -36501.3)
(-23632.6 -1179.76 -307.662 55397.7 -5961.37 66307.6)
(-24916.5 1073.7 397.491 53365.6 -5866.62 64764)
(-460297 1981.63 509.738 -46835.5 -5817.99 -33493.4)
(-512341 -8623.34 -463.662 -95450.1 -3783.61 -56159.2)
(-4234.52 -4477.82 -301.095 5520.99 -3674.58 62052.3)
(-5734.65 4409.12 344.662 3907.51 -3606.02 60512.2)
(-506016 8343.26 473.33 -93338.5 -3555.02 -53420.8)
(-638141 -12539.6 -446.936 -675214 -1176.72 -191746)
(-99314.3 -6126.28 -363.485 -568630 -1061.29 -71553.5)
(-100047 6101.56 299.831 -565320 -1036.74 -71562.4)
(-633811 12212.7 410.178 -661313 -1087.83 -186580)
(-383732 9255.51 -61.656 44817.6 -2299.02 -38996.7)
(-244.453 -3805.27 -35.9681 89308.6 -2234.88 33958.3)
(-1296.34 4062.71 55.6797 88032.9 -2204.81 33260.4)
(-378596 -9257.48 66.714 48113.8 -2211.01 -34388.1)
(-414795 432.656 -105.765 -24750.9 -2513.11 -54651.4)
(-36953.1 -1135.5 -66.3747 74052.3 -2414.67 29612.1)
(-38320.8 1010.25 105.224 72190.6 -2381.35 28521)
(-409703 -451.71 117.853 -23657.6 -2413.72 -50935.9)
(-420075 -577.534 -120.998 -25716.1 -2677.69 -45127.7)
(-44130.7 -692.334 -76.1791 65583.7 -2587.4 35873.5)
(-45476 519.19 120.211 63584.1 -2552.11 34637.1)
(-414512 539.411 135.617 -24603 -2570.98 -41604.1)
(-427366 291.704 -129.182 -29669.3 -2711.63 -37652.3)
(-42979.7 118.447 -79.9493 59935.8 -2632.67 44848.5)
(-44288 -267.153 122.308 57890.2 -2596.49 43507.5)
(-421287 -328.784 143.469 -28459.7 -2601.16 -34279.3)
(-441718 460.966 -136.411 -38404 -2505.77 -34947.7)
(-37804.4 379.982 -82.6865 57691.6 -2439.03 54536.9)
(-39079.1 -508.168 120.356 55627.9 -2403.61 53105.1)
(-435103 -503.094 148.952 -37062.5 -2396.72 -31706.3)
(-465102 -2075.87 -140.043 -48319.4 -1992.86 -37287.8)
(-23161.3 -1166.18 -83.1954 54550.6 -1944.91 64162)
(-24450.1 1056.71 113.119 52529.6 -1913.17 62655.5)
(-458155 1971.51 149.515 -46807.1 -1893.01 -34206.3)
(-510129 -8572.06 -134.605 -95193.3 -1223.75 -57538.7)
(-3897.39 -4441.89 -82.2605 5027.19 -1192.62 59354.6)
(-5402.18 4372.76 96.0521 3422.37 -1169.62 57852.2)
(-503927 8292.24 137.58 -93091.2 -1146.88 -54725.4)
(-635525 -12462.2 -129.289 -673061 -380.483 -192654)
(-98367.4 -6083.86 -102.731 -566993 -348.691 -73655.2)
(-99106.7 6058.72 79.6282 -563685 -340.439 -73626.3)
(-631293 12135.7 116.297 -659181 -350.496 -187401)
)
;

boundaryField
{
    interface
    {
        type            calculated;
        value           nonuniform List<symmTensor> 
192
(
(-83.3191 0.175037 5.74069 905006 -12454.4 363073)
(-85.0441 -0.0332923 7.14784 813027 -8998.11 351545)
(-85.5434 -0.325589 7.1816 837982 -6415.87 358226)
(-86.0065 -0.618073 7.03421 864346 -5511.32 366423)
(-85.5504 -0.949855 6.76388 897736 -6401.01 378260)
(-86.4469 -1.62755 6.40303 953285 -10103 399811)
(-83.1387 -2.07886 5.70171 1.00944e+06 -17167.3 440316)
(-87.2687 -4.68052 5.0664 459213 -19540.2 459259)
(-78.7538 0.102455 3.0659 877960 -33011.1 778825)
(-79.619 -0.12768 3.90161 810904 -20316.5 764413)
(-79.9176 -0.438367 3.89337 822996 -16303 776281)
(-80.3755 -0.78258 3.76967 843433 -15646.3 793515)
(-79.8872 -1.17299 3.56682 873292 -17713.9 820759)
(-81.1548 -1.96627 3.30325 921505 -21983.5 871796)
(-77.8198 -2.47061 2.8655 965094 -24666.1 965066)
(-83.1473 -5.31542 2.47473 440286 -17125.6 1.00951e+06)
(-83.0931 0.112377 2.52958 806208 -22493.2 719879)
(-84.007 -0.160415 3.19747 748903 -20938.9 713705)
(-84.3061 -0.527927 3.19205 758955 -20237 727854)
(-84.7562 -0.934818 3.09211 774099 -20909.6 747880)
(-84.0798 -1.3975 2.92712 796257 -22764.2 778691)
(-85.2624 -2.30886 2.70675 834553 -24189.1 832594)
(-81.1803 -2.90731 2.36346 872684 -21396.6 921465)
(-86.4842 -6.01628 2.02677 400010 -9826.52 953520)
(-82.3013 0.0921965 1.683 766024 -18023.2 675926)
(-83.0158 -0.206035 2.15127 709862 -19086.1 671436)
(-83.2304 -0.604178 2.1419 719014 -20008.4 687435)
(-83.6622 -1.04897 2.0655 731094 -21180.2 709170)
(-82.9404 -1.55578 1.9449 748889 -22010.7 741131)
(-84.2229 -2.52998 1.78676 783732 -20830.3 793106)
(-80.0281 -3.17064 1.55986 823257 -15501 873630)
(-85.6985 -6.37942 1.33925 378966 -5489.8 899005)
(-83.2477 0.0893124 1.23627 743495 -14740.9 654207)
(-83.9572 -0.231929 1.57876 687475 -16063.4 650836)
(-84.1497 -0.659128 1.57319 695623 -17221.5 667955)
(-84.5701 -1.13431 1.51824 706133 -18118 690215)
(-83.7853 -1.67638 1.43138 722497 -17992.6 721469)
(-85.0396 -2.69671 1.31632 757251 -15685.4 770316)
(-80.6226 -3.37386 1.15701 798642 -10478.4 845225)
(-86.283 -6.65662 0.995717 368128 -3347.18 869137)
(-83.3294 0.0859212 0.815216 729885 -11020.2 642868)
(-83.9978 -0.25131 1.04519 674015 -12075 640354)
(-84.1597 -0.698131 1.04185 681491 -12959.7 657924)
(-84.5685 -1.19341 1.0056 691400 -13417.2 679950)
(-83.7545 -1.75886 0.948817 707701 -12847.8 709887)
(-85.011 -2.80762 0.873617 743177 -10636.2 756170)
(-80.5092 -3.50688 0.772804 785628 -6729.79 828050)
(-86.2378 -6.8333 0.670325 362007 -2098.85 851953)
(-83.5059 0.0859153 0.470599 721875 -6804.79 636911)
(-84.1678 -0.261848 0.604788 666125 -7450.61 634909)
(-84.3179 -0.721575 0.604153 673296 -7963.72 652529)
(-84.7215 -1.22944 0.584475 683093 -8127.94 674097)
(-83.8892 -1.80957 0.553541 699685 -7598.34 702928)
(-85.1386 -2.8754 0.511558 735764 -6115.64 747618)
(-80.5735 -3.58843 0.456998 778715 -3783.61 818006)
(-86.3149 -6.94162 0.39915 358605 -1176.72 842073)
(-83.5584 0.0865422 0.154265 718127 -2299.02 634313)
(-84.213 -0.266088 0.198893 662437 -2513.11 632537)
(-84.357 -0.731782 0.199052 669512 -2677.69 650100)
(-84.7573 -1.24532 0.192904 679338 -2711.63 671355)
(-83.9209 -1.83259 0.183298 696142 -2505.77 699598)
(-85.1643 -2.9058 0.16977 732525 -1992.86 743557)
(-80.5798 -3.62608 0.153007 775676 -1223.75 813330)
(-86.3197 -6.99155 0.133973 357082 -380.483 837490)
(461568 -7135.19 -9.43226 967092 -0.336258 -33.5355)
(454662 -2788.78 -11.8746 876584 -0.325725 -29.2801)
(459397 158.455 -12.007 900832 -0.231025 -28.6172)
(464035 1332.57 -11.9029 925811 -0.238469 -29.2695)
(473120 893.36 -11.7084 957904 -0.266734 -30.8068)
(495382 -2714.25 -11.4745 1.0132e+06 -0.34363 -33.4626)
(542102 -10849.4 -11.0975 1.07153e+06 -0.36716 -37.0066)
(571923 -15480.5 -10.981 528385 -0.491924 -41.1333)
(872331 -12500.3 -7.81873 941187 -0.112731 -47.7385)
(866532 -2425.64 -10.081 885756 -0.118149 -47.0712)
(875983 376.488 -10.1833 904028 -0.0740776 -47.0307)
(888124 1270.74 -10.0958 929779 -0.0601995 -47.2467)
(911892 900.851 -9.96765 966407 -0.0517118 -47.7081)
(965996 -1612.06 -9.83071 1.02189e+06 -0.0614124 -48.4821)
(1.07174e+06 -5994.48 -9.6486 1.06848e+06 -0.0628547 -49.351)
(1.12435e+06 -7795.64 -9.68714 522113 -0.0903413 -50.3312)
(866278 15563.5 -8.09112 935016 -0.0737758 -42.8326)
(859659 4439.68 -10.4121 878669 -0.0304199 -42.3983)
(868951 1109.41 -10.5296 896777 0.039184 -42.3796)
(881060 -147.994 -10.4364 922556 0.09585 -42.5976)
(904840 -95.3587 -10.2898 959218 0.1532 -43.1175)
(958964 2119.23 -10.1162 1.01476e+06 0.210667 -43.865)
(1.06461e+06 6209.96 -9.88377 1.06178e+06 0.259804 -44.9648)
(1.11756e+06 7774.23 -9.83945 519375 0.282075 -46.0958)
(444635 8187.53 -9.33543 949031 -0.0559845 -44.7976)
(436521 3624.52 -11.9201 856508 0.035403 -44.6254)
(441166 480.492 -12.0537 880881 0.132174 -44.6016)
(445970 -848.474 -11.9355 906095 0.222215 -44.6546)
(455285 -549.012 -11.7276 938330 0.312223 -44.9238)
(477621 2877.55 -11.4681 993723 0.417219 -45.1284)
(523457 10730.8 -11.053 1.05276e+06 0.495743 -45.7322)
(550145 15217.8 -10.9039 520162 0.606929 -46.088)
(-10.7579 0.464542 5.44678 904492 -11500.9 373050)
(-5.83277 0.149809 6.89084 811205 -8400.36 361462)
(-4.96189 -0.317779 6.91163 836212 -5959.67 367830)
(-5.0006 -0.678109 6.77477 862445 -5121.85 375550)
(-6.38567 -1.05636 6.54284 895549 -6046.97 386908)
(-6.67463 -1.73305 6.26286 951066 -9757.1 408312)
(-11.3076 -2.05781 5.67233 1.00934e+06 -16794.4 450210)
(-0.942173 -4.96389 5.37075 476466 -19216.4 476577)
(-29.8288 0.146514 2.4053 870045 -31143.7 774049)
(-28.8661 -0.104047 3.22233 801916 -19013.6 758426)
(-28.6059 -0.455662 3.19593 814039 -15269.1 769529)
(-28.1921 -0.807292 3.09075 834139 -14742.4 785953)
(-28.455 -1.18535 2.94871 863435 -16877.7 812366)
(-26.3499 -1.91835 2.79715 911290 -21192 862805)
(-28.3726 -2.09933 2.51499 956700 -23971.3 956921)
(-11.2192 -5.26504 2.47568 450105 -16771.4 1.00965e+06)
(-28.6912 0.104231 2.28191 798458 -20947.5 714703)
(-27.8359 -0.175015 2.97912 739465 -19610.7 706885)
(-27.4878 -0.54641 2.97604 749396 -19077 720099)
(-26.9102 -0.93687 2.88992 764134 -19856.9 739208)
(-26.9913 -1.36128 2.76009 785689 -21788.1 769082)
(-24.3235 -2.17925 2.59714 823591 -23296.6 822247)
(-26.2279 -2.37945 2.33691 863385 -20676.4 911790)
(-6.43848 -5.85323 2.15737 408410 -9534.75 951886)
(-32.0004 0.0776197 1.55398 759680 -16900.7 671754)
(-31.4009 -0.225934 2.05925 701353 -17997.7 665580)
(-31.0671 -0.618188 2.05445 710175 -18981.7 680586)
(-30.3342 -1.03348 1.98806 721761 -20210.4 701352)
(-30.1225 -1.48564 1.89032 738930 -21101.6 732333)
(-26.7737 -2.3416 1.76767 773374 -20011.9 783545)
(-28.1228 -2.52664 1.59442 814459 -14866.8 864702)
(-5.87939 -6.13181 1.47746 387471 -5247.09 897848)
(-32.409 0.0761953 1.17445 738496 -13970.9 651029)
(-31.8045 -0.249652 1.54362 680013 -15262.7 646036)
(-31.4083 -0.665945 1.54331 687664 -16423 662172)
(-30.5557 -1.10378 1.4966 697590 -17336.6 683446)
(-30.1774 -1.5818 1.42576 713292 -17248.4 713703)
(-26.4972 -2.46793 1.33292 747633 -15016.1 761780)
(-27.657 -2.65789 1.20778 790524 -9966.13 837301)
(-4.118 -6.36178 1.10584 377045 -3150.93 868787)
(-33.0049 0.0774385 0.791741 725904 -10525.8 640448)
(-32.4061 -0.26464 1.041 667398 -11538.4 636386)
(-31.9728 -0.699102 1.04167 674265 -12403.8 653001)
(-31.0415 -1.15314 1.01087 683519 -12858 674044)
(-30.541 -1.64965 0.963949 699120 -12306.6 702977)
(-26.6305 -2.55385 0.90158 734166 -10146.4 748484)
(-27.6102 -2.74569 0.82162 778080 -6354.9 820957)
(-3.11971 -6.51052 0.754408 371313 -1953.97 852309)
(-33.2531 0.0802619 0.460479 718562 -6530.02 634992)
(-32.6433 -0.272222 0.605477 660080 -7144.37 631497)
(-32.177 -0.718447 0.60724 666579 -7638.81 648189)
(-31.1907 -1.18268 0.590858 675674 -7794.82 668780)
(-30.6091 -1.69107 0.565653 691537 -7271.77 696605)
(-26.5629 -2.60591 0.53068 727172 -5817.99 740514)
(-27.4391 -2.79957 0.488179 771563 -3555.02 811480)
(-2.39108 -6.60192 0.448949 368192 -1087.83 842925)
(-33.3714 0.0824128 0.151904 715144 -2211.01 632643)
(-32.7576 -0.274861 0.200093 656680 -2413.72 629402)
(-32.2746 -0.726546 0.201059 663053 -2570.98 646052)
(-31.2631 -1.19536 0.19601 672155 -2601.16 666335)
(-30.6383 -1.70979 0.188268 688215 -2396.72 693572)
(-26.5354 -2.62858 0.17689 724145 -1893.01 736746)
(-27.3474 -2.82415 0.164197 768725 -1146.88 807090)
(-2.04718 -6.64422 0.150768 366816 -350.496 838595)
(571952 10.6027 15515.9 -41.0324 -0.468704 528461)
(542100 10.719 10929.1 -36.8401 -0.345225 1.07161e+06)
(495272 11.0962 2861.1 -33.1879 -0.318061 1.01334e+06)
(472857 11.3326 -697.379 -30.3694 -0.230617 958890)
(463793 11.5321 -1267.74 -28.4995 -0.181176 930028)
(460039 11.6657 -889.193 -27.1071 -0.120042 913892)
(458332 11.7499 -446.936 -26.2572 -0.0693648 904727)
(457611 11.7893 -129.289 -25.8493 -0.0226263 900482)
(1.12438e+06 9.31892 7851.47 -50.2259 -0.0703917 522177)
(1.0717e+06 9.27537 6159.34 -49.1825 -0.0444984 1.06856e+06)
(965830 9.4526 1877.45 -48.2193 -0.0399075 1.02208e+06)
(911657 9.5837 -577.523 -47.3276 -0.023314 967336)
(888376 9.70124 -1056.68 -46.6906 -0.0191398 933078)
(878346 9.78289 -740.722 -46.1816 -0.01068 912742)
(873776 9.83483 -363.485 -45.8596 -0.00495478 901537)
(871887 9.85901 -102.731 -45.6863 -0.000980898 896600)
(1.1176e+06 9.47024 -7720.57 -45.9843 0.295874 519492)
(1.06459e+06 9.50872 -6051.25 -44.7807 0.272401 1.06199e+06)
(958804 9.73564 -1861.48 -43.577 0.226574 1.01522e+06)
(904594 9.90326 522.54 -42.6966 0.174323 960571)
(881277 10.0412 965.435 -41.9982 0.127683 926468)
(871234 10.1368 650.913 -41.4939 0.0863987 906263)
(866664 10.1968 299.831 -41.1697 0.0488564 895148)
(864776 10.2242 79.6282 -41.0152 0.0155227 890257)
(550196 10.5185 -15193.3 -45.9746 0.615577 520324)
(523490 10.6645 -10683.7 -45.5413 0.503373 1.05312e+06)
(477552 11.0765 -2818.92 -44.8341 0.427464 994504)
(455076 11.334 652.919 -44.4984 0.325593 940416)
(445790 11.5409 1204.51 -44.0833 0.244643 911965)
(441851 11.6811 833.999 -43.8107 0.165299 896175)
(440020 11.7688 410.178 -43.6163 0.0945227 887251)
(439236 11.8096 116.297 -43.5125 0.030554 883127)
)
;
    }
    symmetry
    {
        type            symmetry;
    }
    bottom
    {
        type            calculated;
        value           nonuniform List<symmTensor> 
32
(
(-920362 -7066.6 9495.49 -335039 -7087.55 -956771)
(-615311 17091.5 5985.8 -57432.6 -37639.9 -208162)
(-557239 28296.6 893.011 -35267.9 -22726.8 -167283)
(-527486 30268.8 -724.263 -25512.8 -17435.7 -160645)
(-510087 29567.5 -739.125 -20790.4 -14297.6 -154845)
(-500420 28683.9 -446.921 -19646.4 -10813.2 -151198)
(-495392 28129.3 -213.921 -19936.5 -6742.13 -149304)
(-493259 27883.7 -61.656 -20356.8 -2289.7 -148524)
(-232246 -18246.3 4479 -115807 4542.1 -694869)
(18963.4 -12037.9 2892.08 114288 -44970.6 16327.2)
(5811.24 -5698.25 533.361 101984 -31651.1 42901.7)
(-2979.57 -3717.26 -480.481 93499.1 -22077.8 36379.8)
(-4690.54 -3794.53 -527.751 89831.9 -15876.7 32502.6)
(-4617.65 -4214.15 -310.371 87567.9 -11111.8 30754.5)
(-4412.14 -4488.81 -135.78 85991.2 -6702.33 30083.7)
(-4332.49 -4602.67 -35.9681 85137.7 -2251.73 29870.2)
(-232030 21349.4 -4490.53 -115404 4862.77 -691196)
(17744.1 13394 -2757.93 112372 -44257.9 15308.6)
(4727.59 6317.92 -321.518 100190 -31075.1 41794.8)
(-4042.94 4043.45 678.82 91942.5 -21669.3 35400.9)
(-5760.14 3994.32 679.357 88475.8 -15598.2 31635.6)
(-5689.6 4359.15 414.134 86360.2 -10932.4 29965.6)
(-5483.15 4612.79 195.978 84880.4 -6602.07 29343.9)
(-5402.42 4720.39 55.6797 84074.5 -2219.52 29154.3)
(-920234 7510.85 -9285.37 -335048 -5697.51 -947280)
(-614547 -16924.4 -5764.36 -61528.9 -35399 -209792)
(-555565 -28368.9 -788.593 -37953 -20977.6 -168355)
(-525938 -30547.8 780.337 -27021.2 -16200.8 -161189)
(-508874 -29980.2 776.996 -21490.5 -13464.9 -155091)
(-499510 -29171.9 473.013 -19818.5 -10284.9 -151274)
(-494699 -28656.2 229.29 -19793.8 -6450.82 -149289)
(-492678 -28427.1 66.714 -20067.7 -2196.77 -148469)
)
;
    }
}


// ************************************************************************* //
