/*--------------------------------*- C++ -*----------------------------------*\
| =========                 |                                                 |
| \\      /  F ield         | OpenFOAM: The Open Source CFD Toolbox           |
|  \\    /   O peration     | Version:  v1912                                 |
|   \\  /    A nd           | Website:  www.openfoam.com                      |
|    \\/     M anipulation  |                                                 |
\*---------------------------------------------------------------------------*/
FoamFile
{
    version     2.0;
    format      ascii;
    class       volScalarField;
    location    "0.11/solid";
    object      sigmaHyd;
}
// * * * * * * * * * * * * * * * * * * * * * * * * * * * * * * * * * * * * * //

dimensions      [1 -1 -2 0 0 0 0];


internalField   nonuniform List<scalar> 
256
(
-823839
-399189
-398088
-821711
-881933
-440987
-440246
-880197
-877236
-435255
-434486
-874937
-879934
-432200
-431366
-877169
-890640
-431921
-431053
-887558
-908657
-432769
-431925
-905546
-964121
-465005
-464210
-961593
-1.50414e+06
-999620
-996944
-1.49874e+06
-349530
38902.7
37333.5
-351912
-401050
11069.3
9140.41
-404065
-399123
10206
8259.52
-401702
-398482
15785.1
13852.5
-400661
-401754
25709.2
23783
-403562
-407889
41592.1
39661.9
-409455
-444818
36384.2
34517.9
-446578
-964147
-465050
-464212
-961524
-302756
49307.7
47770
-304492
-351236
30185.9
28253.2
-353896
-349994
28023.8
26057.4
-352309
-350031
31988.2
30023.1
-351984
-354885
40120.7
38154.6
-356473
-364607
52689.2
50718.8
-365927
-407591
41942.6
40048
-409036
-908593
-432734
-431800
-905236
-286669
42975.1
41546
-288145
-335694
24124.9
22279.7
-338300
-334788
21603.5
19703.4
-337137
-335474
24533.1
22620.9
-337511
-341706
31011.2
29091.1
-343403
-354035
40916.5
38990.5
-355466
-400664
26887.5
25041.1
-402182
-890083
-431418
-430396
-886538
-277071
39925.8
38589
-278463
-325585
20668
18901.2
-328238
-324898
17849.8
16012.6
-327352
-326158
20106.4
18246.2
-328339
-333350
25484
23609.8
-335215
-347173
33836
31953.9
-348780
-395530
18349.1
16547.2
-397203
-877674
-430078
-429006
-874151
-272000
38364.1
37096.5
-273367
-319686
19054.2
17347.8
-322389
-319079
16043.2
14257.2
-321616
-320753
17875.5
16059.1
-323041
-328582
22587.8
20752.8
-330571
-343247
30100.2
28255.3
-344986
-392403
13982.3
12216.9
-394198
-870192
-428884
-427781
-866729
-269648
37443.8
36221.8
-271012
-316745
18265.4
16599.6
-319486
-316172
15160.2
13410.1
-318761
-318097
16750
14965.3
-320451
-326303
21093.8
19287.5
-328369
-341419
28176.9
26358.9
-343240
-390936
11780.2
10040.9
-392808
-866300
-428180
-427058
-862889
-268762
36981.5
35782.2
-270130
-315588
17914.6
16269.3
-318348
-315033
14774.6
13042.9
-317648
-317076
16255.8
14487.5
-319461
-325454
20436.6
18645.3
-327556
-340765
27338.4
25534.6
-342625
-390420
10832.4
9106.74
-392330
-864702
-427887
-426756
-861321
)
;

boundaryField
{
    interface
    {
        type            zeroGradient;
    }
    symmetry
    {
        type            symmetry;
    }
    bottom
    {
        type            zeroGradient;
    }
}


// ************************************************************************* //
