/*--------------------------------*- C++ -*----------------------------------*\
| =========                 |                                                 |
| \\      /  F ield         | OpenFOAM: The Open Source CFD Toolbox           |
|  \\    /   O peration     | Version:  v1912                                 |
|   \\  /    A nd           | Website:  www.openfoam.com                      |
|    \\/     M anipulation  |                                                 |
\*---------------------------------------------------------------------------*/
FoamFile
{
    version     2.0;
    format      ascii;
    class       volScalarField;
    location    "0.11/solid";
    object      T;
}
// * * * * * * * * * * * * * * * * * * * * * * * * * * * * * * * * * * * * * //

dimensions      [0 0 0 1 0 0 0];


internalField   nonuniform List<scalar> 
256
(
292.308
292.656
292.656
292.299
292.272
292.637
292.638
292.263
292.269
292.636
292.637
292.261
292.266
292.635
292.635
292.258
292.26
292.632
292.632
292.252
292.248
292.626
292.626
292.239
292.21
292.601
292.602
292.202
291.754
292.181
292.182
291.747
292.679
292.983
292.982
292.668
292.661
292.981
292.981
292.65
292.66
292.981
292.981
292.649
292.659
292.981
292.981
292.648
292.655
292.981
292.981
292.645
292.649
292.981
292.98
292.638
292.624
292.971
292.97
292.614
292.21
292.601
292.602
292.202
292.702
292.992
292.991
292.691
292.686
292.991
292.991
292.674
292.685
292.991
292.991
292.673
292.683
292.991
292.991
292.672
292.68
292.991
292.991
292.669
292.673
292.991
292.99
292.663
292.649
292.981
292.98
292.638
292.248
292.626
292.626
292.239
292.709
292.992
292.991
292.698
292.693
292.991
292.991
292.681
292.691
292.991
292.991
292.68
292.69
292.991
292.991
292.679
292.687
292.991
292.991
292.676
292.68
292.991
292.991
292.669
292.655
292.981
292.981
292.645
292.26
292.632
292.632
292.252
292.712
292.992
292.992
292.701
292.696
292.991
292.991
292.684
292.695
292.991
292.991
292.683
292.693
292.991
292.991
292.681
292.69
292.991
292.991
292.679
292.683
292.991
292.991
292.672
292.659
292.981
292.981
292.648
292.266
292.635
292.635
292.258
292.713
292.992
292.992
292.702
292.697
292.991
292.991
292.685
292.696
292.991
292.991
292.684
292.695
292.991
292.991
292.683
292.691
292.991
292.991
292.68
292.685
292.991
292.991
292.673
292.66
292.981
292.981
292.649
292.269
292.636
292.637
292.261
292.714
292.992
292.992
292.703
292.698
292.991
292.991
292.686
292.697
292.991
292.991
292.685
292.695
292.991
292.991
292.683
292.692
292.991
292.991
292.681
292.685
292.991
292.991
292.674
292.661
292.981
292.981
292.65
292.271
292.637
292.637
292.262
292.714
292.992
292.992
292.703
292.698
292.991
292.991
292.686
292.697
292.991
292.991
292.685
292.696
292.991
292.991
292.684
292.692
292.991
292.991
292.681
292.686
292.991
292.991
292.674
292.661
292.981
292.981
292.65
292.271
292.637
292.637
292.263
)
;

boundaryField
{
    interface
    {
        type            fixedValue;
        value           nonuniform List<scalar> 
192
(
289.719
289.686
289.661
289.616
289.538
289.398
289.121
288.331
290.473
290.452
290.429
290.389
290.317
290.184
289.911
289.121
290.746
290.726
290.703
290.664
290.592
290.458
290.183
289.398
290.882
290.862
290.839
290.799
290.727
290.592
290.317
289.538
290.955
290.935
290.912
290.872
290.799
290.663
290.388
289.615
290.995
290.975
290.952
290.912
290.838
290.702
290.428
289.659
291.017
290.997
290.974
290.933
290.859
290.723
290.449
289.683
291.026
291.006
290.983
290.942
290.869
290.732
290.458
289.693
289.557
289.524
289.499
289.456
289.38
289.241
288.963
288.154
290.183
290.162
290.141
290.103
290.036
289.908
289.637
288.821
290.2
290.179
290.159
290.122
290.054
289.926
289.655
288.839
289.603
289.572
289.549
289.507
289.432
289.293
289.013
288.205
289.725
289.693
289.669
289.626
289.55
289.409
289.127
288.32
290.49
290.47
290.449
290.411
290.341
290.209
289.934
289.127
290.765
290.746
290.725
290.688
290.618
290.486
290.209
289.409
290.899
290.88
290.86
290.822
290.752
290.618
290.341
289.55
290.97
290.951
290.931
290.892
290.822
290.688
290.411
289.626
291.009
290.99
290.969
290.931
290.86
290.725
290.449
289.669
291.03
291.011
290.99
290.951
290.88
290.745
290.469
289.692
291.039
291.02
290.999
290.96
290.888
290.753
290.478
289.702
288.154
288.962
289.241
289.38
289.455
289.497
289.52
289.53
288.821
289.637
289.908
290.036
290.103
290.14
290.159
290.168
288.839
289.655
289.926
290.054
290.121
290.158
290.178
290.186
288.205
289.013
289.293
289.432
289.507
289.549
289.571
289.581
)
;
    }
    symmetry
    {
        type            symmetry;
    }
    bottom
    {
        type            fixedValue;
        value           uniform 293;
    }
}


// ************************************************************************* //
