/*--------------------------------*- C++ -*----------------------------------*\
| =========                 |                                                 |
| \\      /  F ield         | OpenFOAM: The Open Source CFD Toolbox           |
|  \\    /   O peration     | Version:  v1912                                 |
|   \\  /    A nd           | Website:  www.openfoam.com                      |
|    \\/     M anipulation  |                                                 |
\*---------------------------------------------------------------------------*/
FoamFile
{
    version     2.0;
    format      ascii;
    class       volVectorField;
    location    "0.73/solid";
    object      DD_0;
}
// * * * * * * * * * * * * * * * * * * * * * * * * * * * * * * * * * * * * * //

dimensions      [0 1 0 0 0 0 0];


internalField   nonuniform List<vector> 
256
(
(2.31469e-10 2.40395e-10 2.80839e-10)
(5.40936e-11 1.51236e-10 2.66243e-10)
(-6.80616e-11 1.45539e-10 2.59294e-10)
(-2.26901e-10 2.20223e-10 2.59835e-10)
(4.27641e-10 2.03573e-10 6.52921e-10)
(1.1054e-10 1.25063e-10 6.2978e-10)
(-1.41196e-10 1.22593e-10 6.15752e-10)
(-4.32337e-10 1.98464e-10 6.1024e-10)
(4.6929e-10 2.25212e-11 9.16145e-10)
(1.19293e-10 -1.28451e-11 8.86294e-10)
(-1.69072e-10 -9.80992e-12 8.68212e-10)
(-4.92601e-10 3.51507e-11 8.61082e-10)
(4.59357e-10 -1.83335e-10 1.13724e-09)
(1.05553e-10 -1.99876e-10 1.09801e-09)
(-1.81125e-10 -1.91342e-10 1.07703e-09)
(-5.08129e-10 -1.54803e-10 1.07334e-09)
(4.56251e-10 -4.0676e-10 1.35456e-09)
(9.19712e-11 -4.28269e-10 1.30403e-09)
(-2.00614e-10 -4.14539e-10 1.28057e-09)
(-5.37563e-10 -3.63412e-10 1.28314e-09)
(4.99533e-10 -6.78657e-10 1.59117e-09)
(9.4667e-11 -7.09465e-10 1.53067e-09)
(-2.44128e-10 -6.90562e-10 1.50483e-09)
(-6.20994e-10 -6.20518e-10 1.51259e-09)
(6.13704e-10 -1.07775e-09 1.84792e-09)
(1.20298e-10 -1.09019e-09 1.78906e-09)
(-3.19654e-10 -1.06538e-09 1.76075e-09)
(-7.832e-10 -1.00259e-09 1.76211e-09)
(7.4277e-10 -1.63138e-09 2.05022e-09)
(1.44919e-10 -1.58816e-09 2.01117e-09)
(-4.05301e-10 -1.55416e-09 1.98066e-09)
(-9.68438e-10 -1.52853e-09 1.95835e-09)
(1.4779e-10 8.56531e-11 1.17626e-10)
(3.28853e-11 1.21359e-11 1.31941e-10)
(-3.85537e-11 1.01393e-11 1.28936e-10)
(-1.37529e-10 7.37935e-11 1.08731e-10)
(2.8135e-10 -2.63151e-12 3.68827e-10)
(7.08069e-11 -6.71598e-11 3.97464e-10)
(-8.18364e-11 -6.66498e-11 3.89213e-10)
(-2.70617e-10 -1.86284e-12 3.44782e-10)
(3.07075e-10 -1.66958e-10 6.0077e-10)
(7.59471e-11 -1.9568e-10 6.32687e-10)
(-9.79976e-11 -1.90912e-10 6.20805e-10)
(-3.07493e-10 -1.51441e-10 5.66007e-10)
(2.93334e-10 -3.53944e-10 8.09459e-10)
(6.33225e-11 -3.68e-10 8.39049e-10)
(-1.04873e-10 -3.58471e-10 8.2453e-10)
(-3.13311e-10 -3.24139e-10 7.66691e-10)
(2.87546e-10 -5.59991e-10 1.00989e-09)
(5.115e-11 -5.81589e-10 1.03487e-09)
(-1.20548e-10 -5.67252e-10 1.01809e-09)
(-3.35044e-10 -5.16179e-10 9.60243e-10)
(3.30355e-10 -7.98989e-10 1.21092e-09)
(5.55621e-11 -8.32462e-10 1.23097e-09)
(-1.61198e-10 -8.13266e-10 1.21206e-09)
(-4.13454e-10 -7.41073e-10 1.1548e-09)
(4.54907e-10 -1.12476e-09 1.39494e-09)
(8.52556e-11 -1.13726e-09 1.41225e-09)
(-2.36683e-10 -1.11279e-09 1.39147e-09)
(-5.817e-10 -1.05125e-09 1.33304e-09)
(6.08836e-10 -1.57729e-09 1.49663e-09)
(1.15317e-10 -1.51391e-09 1.51355e-09)
(-3.24259e-10 -1.48154e-09 1.49194e-09)
(-7.87593e-10 -1.479e-09 1.4319e-09)
(7.80729e-11 2.57931e-11 5.82509e-11)
(1.29049e-11 -2.86231e-11 8.01476e-11)
(-1.48375e-11 -3.01659e-11 7.81089e-11)
(-6.48118e-11 1.38778e-11 5.24567e-11)
(1.54605e-10 -1.06386e-10 2.31624e-10)
(3.13672e-11 -1.55199e-10 2.7373e-10)
(-3.1564e-11 -1.54375e-10 2.68026e-10)
(-1.34355e-10 -1.06589e-10 2.15461e-10)
(1.66686e-10 -2.79097e-10 4.2488e-10)
(3.2225e-11 -3.01704e-10 4.72723e-10)
(-3.69622e-11 -2.97038e-10 4.6412e-10)
(-1.51424e-10 -2.655e-10 4.00243e-10)
(1.52074e-10 -4.55981e-10 6.13028e-10)
(2.07457e-11 -4.69489e-10 6.60489e-10)
(-3.93232e-11 -4.60438e-10 6.49573e-10)
(-1.50928e-10 -4.28834e-10 5.81402e-10)
(1.47109e-10 -6.36823e-10 7.90206e-10)
(1.02947e-11 -6.60408e-10 8.3522e-10)
(-5.18604e-11 -6.46833e-10 8.22288e-10)
(-1.68713e-10 -5.96212e-10 7.52415e-10)
(1.92275e-10 -8.30944e-10 9.49665e-10)
(1.66392e-11 -8.67637e-10 9.9159e-10)
(-9.02602e-11 -8.49494e-10 9.76842e-10)
(-2.45221e-10 -7.76826e-10 9.06278e-10)
(3.23681e-10 -1.08899e-09 1.06691e-09)
(4.95974e-11 -1.10387e-09 1.10542e-09)
(-1.65359e-10 -1.08085e-09 1.08931e-09)
(-4.16402e-10 -1.02013e-09 1.0191e-09)
(4.87948e-10 -1.46888e-09 1.09765e-09)
(8.33891e-11 -1.40332e-09 1.13313e-09)
(-2.53291e-10 -1.3728e-09 1.11681e-09)
(-6.28892e-10 -1.37606e-09 1.04856e-09)
(4.49449e-11 2.56398e-12 4.53684e-11)
(3.55172e-12 -3.8617e-11 6.08526e-11)
(-3.72398e-12 -4.04e-11 5.93329e-11)
(-2.98545e-11 -1.06722e-11 4.11577e-11)
(9.33357e-11 -1.47678e-10 1.77395e-10)
(1.22196e-11 -1.85949e-10 2.06759e-10)
(-6.40263e-12 -1.85815e-10 2.02643e-10)
(-6.70997e-11 -1.50766e-10 1.65929e-10)
(1.0012e-10 -3.2807e-10 3.31687e-10)
(1.16685e-11 -3.47181e-10 3.64577e-10)
(-5.708e-12 -3.43463e-10 3.58302e-10)
(-7.43304e-11 -3.18073e-10 3.1394e-10)
(8.85392e-11 -4.98949e-10 4.8801e-10)
(2.4566e-12 -5.1311e-10 5.20015e-10)
(-5.74714e-12 -5.05195e-10 5.11882e-10)
(-7.23835e-11 -4.75815e-10 4.64657e-10)
(8.81409e-11 -6.58859e-10 6.32861e-10)
(-5.19558e-12 -6.84666e-10 6.62572e-10)
(-1.68978e-11 -6.72386e-10 6.52768e-10)
(-9.05779e-11 -6.22564e-10 6.04387e-10)
(1.37421e-10 -8.19401e-10 7.52234e-10)
(3.44317e-12 -8.58863e-10 7.7946e-10)
(-5.39013e-11 -8.42165e-10 7.68195e-10)
(-1.67434e-10 -7.69874e-10 7.19197e-10)
(2.70742e-10 -1.03757e-09 8.24889e-10)
(3.77594e-11 -1.05671e-09 8.49855e-10)
(-1.27101e-10 -1.03525e-09 8.37586e-10)
(-3.37106e-10 -9.7349e-10 7.88464e-10)
(4.34219e-10 -1.38307e-09 8.28064e-10)
(7.24401e-11 -1.32618e-09 8.52288e-10)
(-2.12884e-10 -1.29719e-09 8.39984e-10)
(-5.45611e-10 -1.2949e-09 7.90909e-10)
(3.34993e-11 -5.99444e-12 3.89658e-11)
(1.12799e-12 -4.06628e-11 4.69578e-11)
(-3.75356e-13 -4.27037e-11 4.58621e-11)
(-1.72662e-11 -2.03101e-11 3.59766e-11)
(7.31527e-11 -1.59655e-10 1.40617e-10)
(7.42324e-12 -1.93119e-10 1.55247e-10)
(1.92273e-12 -1.93754e-10 1.5233e-10)
(-4.31558e-11 -1.65401e-10 1.32595e-10)
(8.03796e-11 -3.40557e-10 2.57591e-10)
(7.73472e-12 -3.5881e-10 2.73207e-10)
(4.97097e-12 -3.56141e-10 2.68752e-10)
(-4.7702e-11 -3.34033e-10 2.45118e-10)
(7.32031e-11 -5.05875e-10 3.76972e-10)
(1.13428e-12 -5.21477e-10 3.91133e-10)
(5.76245e-12 -5.14757e-10 3.85293e-10)
(-4.67843e-11 -4.86601e-10 3.60332e-10)
(7.78696e-11 -6.52271e-10 4.85823e-10)
(-3.7012e-12 -6.80151e-10 4.97848e-10)
(-4.86387e-12 -6.69154e-10 4.9073e-10)
(-6.67197e-11 -6.2002e-10 4.65258e-10)
(1.30589e-10 -7.94389e-10 5.70402e-10)
(6.89192e-12 -8.35941e-10 5.80562e-10)
(-4.07579e-11 -8.20573e-10 5.72333e-10)
(-1.43911e-10 -7.48966e-10 5.46338e-10)
(2.6335e-10 -9.94682e-10 6.15883e-10)
(4.15611e-11 -1.01745e-09 6.24943e-10)
(-1.11553e-10 -9.97294e-10 6.15975e-10)
(-3.1018e-10 -9.34594e-10 5.89272e-10)
(4.23295e-10 -1.32557e-09 6.12364e-10)
(7.61195e-11 -1.27732e-09 6.2197e-10)
(-1.94681e-10 -1.24954e-09 6.13005e-10)
(-5.12536e-10 -1.24106e-09 5.85247e-10)
(3.04457e-11 -8.75862e-12 3.03282e-11)
(1.19664e-12 -4.07468e-11 3.38225e-11)
(6.20334e-14 -4.29732e-11 3.30885e-11)
(-1.35175e-11 -2.38066e-11 2.83456e-11)
(6.91054e-11 -1.6004e-10 1.03377e-10)
(8.0361e-12 -1.9201e-10 1.0929e-10)
(3.40835e-12 -1.93233e-10 1.07348e-10)
(-3.67899e-11 -1.67724e-10 9.80846e-11)
(7.87126e-11 -3.37287e-10 1.85063e-10)
(9.89937e-12 -3.56047e-10 1.90679e-10)
(7.01441e-12 -3.5422e-10 1.8771e-10)
(-4.16648e-11 -3.33433e-10 1.76815e-10)
(7.54289e-11 -4.9732e-10 2.67741e-10)
(5.49505e-12 -5.14483e-10 2.71923e-10)
(8.00801e-12 -5.08734e-10 2.68009e-10)
(-4.22862e-11 -4.81087e-10 2.56658e-10)
(8.39684e-11 -6.36119e-10 3.42022e-10)
(2.81499e-12 -6.65637e-10 3.44569e-10)
(-2.32252e-12 -6.55667e-10 3.39765e-10)
(-6.36586e-11 -6.0705e-10 3.28203e-10)
(1.38896e-10 -7.70141e-10 3.97813e-10)
(1.4786e-11 -8.13055e-10 3.99149e-10)
(-3.72598e-11 -7.98719e-10 3.93567e-10)
(-1.40709e-10 -7.2788e-10 3.81535e-10)
(2.70593e-10 -9.63914e-10 4.2595e-10)
(4.95423e-11 -9.88898e-10 4.26852e-10)
(-1.06003e-10 -9.69724e-10 4.20757e-10)
(-3.03734e-10 -9.06814e-10 4.07884e-10)
(4.27436e-10 -1.28813e-09 4.2223e-10)
(8.38728e-11 -1.24543e-09 4.23846e-10)
(-1.86962e-10 -1.21853e-09 4.17757e-10)
(-5.00997e-10 -1.2063e-09 4.03806e-10)
(2.98188e-11 -9.35256e-12 1.91899e-11)
(1.65563e-12 -4.03218e-11 2.05527e-11)
(-1.31482e-13 -4.26656e-11 2.01323e-11)
(-1.24959e-11 -2.48515e-11 1.80606e-11)
(6.92367e-11 -1.57232e-10 6.33133e-11)
(9.42686e-12 -1.88988e-10 6.5347e-11)
(3.19871e-12 -1.90589e-10 6.42365e-11)
(-3.55828e-11 -1.6614e-10 6.03037e-11)
(8.0945e-11 -3.30353e-10 1.11507e-10)
(1.25441e-11 -3.49882e-10 1.13026e-10)
(6.82054e-12 -3.48611e-10 1.11327e-10)
(-4.13215e-11 -3.28236e-10 1.06812e-10)
(8.02919e-11 -4.86326e-10 1.59748e-10)
(9.6064e-12 -5.04683e-10 1.6029e-10)
(7.84845e-12 -4.99589e-10 1.58042e-10)
(-4.30987e-11 -4.72117e-10 1.53414e-10)
(9.12346e-11 -6.21243e-10 2.02614e-10)
(8.28982e-12 -6.51841e-10 2.0217e-10)
(-2.2541e-12 -6.42565e-10 1.994e-10)
(-6.52943e-11 -5.9431e-10 1.94674e-10)
(1.474e-10 -7.5229e-10 2.34262e-10)
(2.11113e-11 -7.95975e-10 2.33161e-10)
(-3.64822e-11 -7.82328e-10 2.29932e-10)
(-1.42019e-10 -7.12139e-10 2.24865e-10)
(2.78293e-10 -9.44103e-10 2.49791e-10)
(5.59287e-11 -9.70207e-10 2.48548e-10)
(-1.03837e-10 -9.51679e-10 2.45016e-10)
(-3.02774e-10 -8.88976e-10 2.39331e-10)
(4.33097e-10 -1.26511e-09 2.47383e-10)
(9.01209e-11 -1.22533e-09 2.46616e-10)
(-1.83352e-10 -1.19901e-09 2.43086e-10)
(-4.96664e-10 -1.18502e-09 2.36706e-10)
(2.97204e-11 -9.34457e-12 6.55683e-12)
(1.92151e-12 -3.99666e-11 6.91079e-12)
(-2.83866e-13 -4.23673e-11 6.77401e-12)
(-1.22188e-11 -2.50587e-11 6.19036e-12)
(6.96987e-11 -1.55076e-10 2.13175e-11)
(1.02157e-11 -1.86894e-10 2.17885e-11)
(2.94127e-12 -1.88678e-10 2.14274e-11)
(-3.5432e-11 -1.64571e-10 2.03413e-11)
(8.25007e-11 -3.25718e-10 3.72384e-11)
(1.39734e-11 -3.45723e-10 3.74926e-11)
(6.5184e-12 -3.44725e-10 3.69396e-11)
(-4.16824e-11 -3.24448e-10 3.57143e-11)
(8.31224e-11 -4.7953e-10 5.30646e-11)
(1.17463e-11 -4.98509e-10 5.29797e-11)
(7.55588e-12 -4.93739e-10 5.22473e-11)
(-4.40261e-11 -4.6632e-10 5.10047e-11)
(9.51849e-11 -6.12822e-10 6.70462e-11)
(1.10763e-11 -6.43945e-10 6.66361e-11)
(-2.41332e-12 -6.35015e-10 6.57317e-11)
(-6.65675e-11 -5.8695e-10 6.44578e-11)
(1.51903e-10 -7.42981e-10 7.72974e-11)
(2.43026e-11 -7.87006e-10 7.66812e-11)
(-3.62687e-11 -7.73702e-10 7.56251e-11)
(-1.43067e-10 -7.0388e-10 7.42273e-11)
(2.82399e-10 -9.34336e-10 8.22799e-11)
(5.91642e-11 -9.60887e-10 8.16333e-11)
(-1.02938e-10 -9.42678e-10 8.04767e-11)
(-3.02689e-10 -8.80188e-10 7.88568e-11)
(4.36215e-10 -1.25401e-09 8.14641e-11)
(9.32986e-11 -1.21544e-09 8.09772e-11)
(-1.81742e-10 -1.1894e-09 7.98214e-11)
(-4.94924e-10 -1.17479e-09 7.79682e-11)
)
;

boundaryField
{
    interface
    {
        type            calculated;
        value           nonuniform List<vector> 
192
(
(2.72558e-10 4.05172e-10 2.55382e-10)
(4.7003e-10 2.63028e-10 6.08019e-10)
(5.14363e-10 3.04493e-11 8.67053e-10)
(5.08213e-10 -1.86595e-10 1.08844e-09)
(5.06026e-10 -3.96716e-10 1.30675e-09)
(5.44602e-10 -6.39294e-10 1.54486e-09)
(6.55964e-10 -1.01694e-09 1.80479e-09)
(7.98613e-10 -1.59556e-09 2.01208e-09)
(1.59637e-10 1.92938e-10 7.92779e-11)
(2.97976e-10 3.71892e-11 3.00569e-10)
(3.24183e-10 -1.63963e-10 5.2512e-10)
(3.10828e-10 -3.58828e-10 7.32639e-10)
(3.0353e-10 -5.50737e-10 9.32609e-10)
(3.40979e-10 -7.57149e-10 1.13411e-09)
(4.6671e-10 -1.05514e-09 1.32244e-09)
(6.51946e-10 -1.53655e-09 1.43292e-09)
(7.5938e-11 8.39627e-11 3.25403e-11)
(1.61439e-10 -8.42329e-11 1.84622e-10)
(1.75045e-10 -2.79731e-10 3.73142e-10)
(1.6101e-10 -4.60876e-10 5.6183e-10)
(1.55574e-10 -6.26774e-10 7.40355e-10)
(1.98183e-10 -7.86802e-10 9.01432e-10)
(3.35209e-10 -1.01507e-09 1.02087e-09)
(5.35113e-10 -1.42506e-09 1.054e-09)
(3.6981e-11 3.71341e-11 3.42255e-11)
(9.77175e-11 -1.33885e-10 1.57033e-10)
(1.07215e-10 -3.2927e-10 3.10111e-10)
(9.70205e-11 -5.01945e-10 4.68293e-10)
(9.74884e-11 -6.4664e-10 6.15552e-10)
(1.46632e-10 -7.73751e-10 7.36813e-10)
(2.88728e-10 -9.63367e-10 8.09807e-10)
(4.88074e-10 -1.33806e-09 8.11902e-10)
(2.2239e-11 2.06685e-11 3.53413e-11)
(7.49309e-11 -1.47936e-10 1.3456e-10)
(8.5551e-11 -3.40546e-10 2.5224e-10)
(8.05145e-11 -5.06503e-10 3.73695e-10)
(8.71011e-11 -6.37926e-10 4.8478e-10)
(1.41226e-10 -7.4802e-10 5.70771e-10)
(2.84487e-10 -9.21506e-10 6.15846e-10)
(4.79548e-10 -1.2803e-09 6.10669e-10)
(1.76596e-11 1.61292e-11 2.94083e-11)
(6.92195e-11 -1.47974e-10 1.02398e-10)
(8.25927e-11 -3.35707e-10 1.85205e-10)
(8.20232e-11 -4.96007e-10 2.69514e-10)
(9.32309e-11 -6.20254e-10 3.45364e-10)
(1.50497e-10 -7.23485e-10 4.02016e-10)
(2.93569e-10 -8.91779e-10 4.29686e-10)
(4.84604e-10 -1.24297e-09 4.24681e-10)
(1.65127e-11 1.54113e-11 1.90087e-11)
(6.86234e-11 -1.44451e-10 6.34618e-11)
(8.4308e-11 -3.2759e-10 1.12454e-10)
(8.6741e-11 -4.83755e-10 1.61671e-10)
(1.00818e-10 -6.04467e-10 2.05418e-10)
(1.59846e-10 -7.05526e-10 2.37514e-10)
(3.02533e-10 -8.72679e-10 2.52742e-10)
(4.90832e-10 -1.22014e-09 2.49578e-10)
(1.62978e-11 1.55102e-11 6.53227e-12)
(6.88568e-11 -1.41881e-10 2.14331e-11)
(8.5733e-11 -3.22363e-10 3.76273e-11)
(8.96207e-11 -4.7636e-10 5.37723e-11)
(1.05038e-10 -5.95628e-10 6.80338e-11)
(1.64852e-10 -6.96179e-10 7.84232e-11)
(3.07311e-10 -8.63259e-10 8.33063e-11)
(4.94268e-10 -1.20917e-09 8.22437e-11)
(2.40545e-10 4.73834e-10 2.91991e-10)
(4.44303e-10 3.624e-10 6.61227e-10)
(4.8637e-10 1.43602e-10 9.27048e-10)
(4.73947e-10 -7.37288e-11 1.15288e-09)
(4.6752e-10 -2.93277e-10 1.3714e-09)
(5.07563e-10 -5.55319e-10 1.60152e-09)
(6.20551e-10 -9.62989e-10 1.85053e-09)
(7.52078e-10 -1.57296e-09 2.06007e-09)
(4.87053e-11 3.75242e-10 2.6045e-10)
(1.01244e-10 2.80077e-10 6.15743e-10)
(1.07306e-10 1.04213e-10 8.6802e-10)
(9.04964e-11 -9.54413e-11 1.07837e-09)
(7.34693e-11 -3.20102e-10 1.28048e-09)
(7.30796e-11 -5.88206e-10 1.49642e-09)
(9.85044e-11 -9.70062e-10 1.74797e-09)
(1.27529e-10 -1.52649e-09 1.99615e-09)
(-6.96662e-11 3.64301e-10 2.44152e-10)
(-1.46086e-10 2.74824e-10 5.93983e-10)
(-1.75379e-10 1.05511e-10 8.42108e-10)
(-1.87296e-10 -8.82523e-11 1.04921e-09)
(-2.05838e-10 -3.07588e-10 1.24851e-09)
(-2.48653e-10 -5.70516e-10 1.46182e-09)
(-3.26393e-10 -9.46425e-10 1.71062e-09)
(-4.18507e-10 -1.49296e-09 1.9558e-09)
(-2.41622e-10 4.37742e-10 2.42824e-10)
(-4.61138e-10 3.48777e-10 5.93166e-10)
(-5.2584e-10 1.50928e-10 8.45745e-10)
(-5.41838e-10 -4.92858e-11 1.06167e-09)
(-5.70466e-10 -2.536e-10 1.2718e-09)
(-6.53006e-10 -5.00775e-10 1.49408e-09)
(-8.16335e-10 -8.91143e-10 1.73532e-09)
(-1.00602e-09 -1.47137e-09 1.93776e-09)
(-2.08643e-10 3.85032e-10 2.30129e-10)
(-4.15533e-10 2.64889e-10 5.55405e-10)
(-4.77309e-10 5.41003e-11 7.98181e-10)
(-4.95103e-10 -1.4356e-10 1.00778e-09)
(-5.23927e-10 -3.35194e-10 1.21606e-09)
(-6.00903e-10 -5.59106e-10 1.44469e-09)
(-7.57293e-10 -9.15722e-10 1.69517e-09)
(-9.50269e-10 -1.46251e-09 1.89435e-09)
(-9.45399e-11 1.7583e-10 6.82085e-11)
(-2.33315e-10 4.06283e-11 2.70285e-10)
(-2.70058e-10 -1.40766e-10 4.80711e-10)
(-2.75117e-10 -3.1725e-10 6.77389e-10)
(-2.94053e-10 -4.91142e-10 8.68029e-10)
(-3.65514e-10 -6.79406e-10 1.06085e-09)
(-5.31929e-10 -9.57716e-10 1.24134e-09)
(-7.62019e-10 -1.40994e-09 1.34702e-09)
(-9.8694e-12 6.36694e-11 2.5537e-11)
(-8.96123e-11 -8.49352e-11 1.6458e-10)
(-1.07745e-10 -2.61355e-10 3.4195e-10)
(-1.06816e-10 -4.2451e-10 5.21168e-10)
(-1.22792e-10 -5.72637e-10 6.91296e-10)
(-1.95052e-10 -7.14902e-10 8.44771e-10)
(-3.68708e-10 -9.2421e-10 9.57947e-10)
(-6.09667e-10 -1.30577e-09 9.88066e-10)
(3.01349e-11 1.35663e-11 2.92706e-11)
(-2.08031e-11 -1.39647e-10 1.43128e-10)
(-3.03708e-11 -3.16751e-10 2.88008e-10)
(-2.88566e-11 -4.71752e-10 4.38619e-10)
(-4.66039e-11 -5.98799e-10 5.78887e-10)
(-1.21523e-10 -7.0824e-10 6.93868e-10)
(-2.96616e-10 -8.78944e-10 7.61907e-10)
(-5.33903e-10 -1.22501e-09 7.61819e-10)
(4.56307e-11 -5.20464e-12 3.18917e-11)
(5.29133e-12 -1.57791e-10 1.25017e-10)
(-2.30328e-12 -3.33125e-10 2.3695e-10)
(-2.67012e-12 -4.81845e-10 3.52807e-10)
(-2.31964e-11 -5.95736e-10 4.58527e-10)
(-9.99188e-11 -6.88098e-10 5.39656e-10)
(-2.73225e-10 -8.42436e-10 5.80928e-10)
(-5.03643e-10 -1.17219e-09 5.74092e-10)
(5.06917e-11 -1.12298e-11 2.71526e-11)
(1.30971e-11 -1.60687e-10 9.61905e-11)
(4.7255e-12 -3.32058e-10 1.75219e-10)
(2.2272e-12 -4.75587e-10 2.55736e-10)
(-2.04796e-11 -5.82443e-10 3.27846e-10)
(-9.79488e-11 -6.67858e-10 3.81061e-10)
(-2.68832e-10 -8.16739e-10 4.06031e-10)
(-4.93258e-10 -1.13849e-09 3.99837e-10)
(5.21078e-11 -1.28319e-11 1.77357e-11)
(1.48873e-11 -1.58933e-10 5.99637e-11)
(5.42792e-12 -3.26356e-10 1.06815e-10)
(1.44368e-12 -4.66122e-10 1.53848e-10)
(-2.25863e-11 -5.69577e-10 1.954e-10)
(-1.00235e-10 -6.52766e-10 2.25455e-10)
(-2.69243e-10 -8.00312e-10 2.39069e-10)
(-4.89619e-10 -1.11805e-09 2.35188e-10)
(5.24433e-11 -1.31461e-11 6.12102e-12)
(1.52005e-11 -1.57205e-10 2.03035e-11)
(5.12796e-12 -3.22299e-10 3.58043e-11)
(4.02986e-13 -4.60098e-10 5.12363e-11)
(-2.41913e-11 -5.62187e-10 6.47759e-11)
(-1.01838e-10 -6.44846e-10 7.44891e-11)
(-2.69874e-10 -7.92221e-10 7.88356e-11)
(-4.88251e-10 -1.10827e-09 7.75332e-11)
(7.49874e-10 -1.64222e-09 2.0659e-09)
(6.13364e-10 -1.5816e-09 1.456e-09)
(4.93471e-10 -1.48219e-09 1.0491e-09)
(4.42501e-10 -1.40526e-09 7.92236e-10)
(4.33866e-10 -1.35076e-09 5.8863e-10)
(4.39341e-10 -1.31423e-09 4.07114e-10)
(4.45636e-10 -1.29167e-09 2.38853e-10)
(4.48992e-10 -1.28085e-09 7.86902e-11)
(1.25613e-10 -1.57408e-09 2.02344e-09)
(9.13776e-11 -1.47448e-09 1.46734e-09)
(5.93651e-11 -1.37187e-09 1.0862e-09)
(5.097e-11 -1.30732e-09 8.20786e-10)
(5.71094e-11 -1.26494e-09 6.01782e-10)
(6.64715e-11 -1.23629e-09 4.10849e-10)
(7.3594e-11 -1.21791e-09 2.39119e-10)
(7.71446e-11 -1.20881e-09 7.85054e-11)
(-4.20208e-10 -1.53012e-09 1.9931e-09)
(-3.32989e-10 -1.43283e-09 1.4466e-09)
(-2.60109e-10 -1.33219e-09 1.07072e-09)
(-2.20706e-10 -1.26923e-09 8.0917e-10)
(-2.03748e-10 -1.22805e-09 5.9334e-10)
(-1.96748e-10 -1.20028e-09 4.05124e-10)
(-1.93432e-10 -1.18247e-09 2.35804e-10)
(-1.91908e-10 -1.17364e-09 7.74204e-11)
(-1.00786e-09 -1.50859e-09 1.97455e-09)
(-8.2276e-10 -1.45323e-09 1.39379e-09)
(-6.63226e-10 -1.35934e-09 1.00254e-09)
(-5.81134e-10 -1.28707e-09 7.57159e-10)
(-5.49098e-10 -1.23619e-09 5.63095e-10)
(-5.37964e-10 -1.20225e-09 3.89796e-10)
(-5.33651e-10 -1.18138e-09 2.2883e-10)
(-5.31845e-10 -1.17138e-09 7.54103e-11)
)
;
    }
    symmetry
    {
        type            symmetry;
    }
    bottom
    {
        type            calculated;
        value           uniform (0 0 0);
    }
}


// ************************************************************************* //
