/*--------------------------------*- C++ -*----------------------------------*\
| =========                 |                                                 |
| \\      /  F ield         | OpenFOAM: The Open Source CFD Toolbox           |
|  \\    /   O peration     | Version:  v1912                                 |
|   \\  /    A nd           | Website:  www.openfoam.com                      |
|    \\/     M anipulation  |                                                 |
\*---------------------------------------------------------------------------*/
FoamFile
{
    version     2.0;
    format      ascii;
    class       volScalarField;
    location    "0.73/solid";
    object      epsilonEq;
}
// * * * * * * * * * * * * * * * * * * * * * * * * * * * * * * * * * * * * * //

dimensions      [0 0 0 0 0 0 0];


internalField   nonuniform List<scalar> 
256
(
2.84538e-06
1.99202e-06
1.96128e-06
2.70918e-06
1.63227e-06
1.36858e-06
1.34536e-06
1.5295e-06
1.61024e-06
1.27507e-06
1.25265e-06
1.50704e-06
1.68618e-06
1.26887e-06
1.24664e-06
1.58126e-06
1.74168e-06
1.28932e-06
1.26711e-06
1.63534e-06
1.72535e-06
1.2972e-06
1.27505e-06
1.61824e-06
1.38026e-06
1.167e-06
1.14853e-06
1.28178e-06
2.66023e-07
1.32041e-06
1.30954e-06
2.75974e-07
1.6819e-06
4.20895e-07
4.0781e-07
1.54297e-06
1.22118e-06
4.16379e-07
4.05069e-07
1.09798e-06
1.18499e-06
3.14272e-07
3.05623e-07
1.06235e-06
1.19416e-06
2.11946e-07
2.06716e-07
1.06966e-06
1.22348e-06
1.74405e-07
1.72734e-07
1.09644e-06
1.25905e-06
1.97142e-07
1.95547e-07
1.12958e-06
1.17401e-06
1.81728e-07
1.85494e-07
1.04665e-06
1.38073e-06
1.1696e-06
1.15098e-06
1.28162e-06
1.39443e-06
2.55135e-07
2.50187e-07
1.2593e-06
1.16647e-06
2.45287e-07
2.36267e-07
1.04378e-06
1.14778e-06
1.73134e-07
1.65467e-07
1.02365e-06
1.15706e-06
1.14747e-07
1.13042e-07
1.03024e-06
1.19247e-06
1.19134e-07
1.2235e-07
1.06246e-06
1.25169e-06
1.38594e-07
1.38991e-07
1.1185e-06
1.25721e-06
1.93012e-07
1.91966e-07
1.12684e-06
1.72809e-06
1.30251e-06
1.28019e-06
1.62008e-06
1.24287e-06
2.37836e-07
2.36528e-07
1.11361e-06
1.08582e-06
2.23753e-07
2.20159e-07
9.69506e-07
1.07326e-06
1.70101e-07
1.68521e-07
9.53916e-07
1.08296e-06
1.41791e-07
1.45719e-07
9.59795e-07
1.12156e-06
1.42943e-07
1.49731e-07
9.94414e-07
1.18842e-06
1.32677e-07
1.36678e-07
1.05715e-06
1.21836e-06
1.60073e-07
1.60452e-07
1.08928e-06
1.75478e-06
1.30018e-06
1.2778e-06
1.64716e-06
1.1558e-06
2.05614e-07
2.04994e-07
1.02989e-06
1.01823e-06
2.02989e-07
2.01181e-07
9.05434e-07
1.01199e-06
1.62947e-07
1.63027e-07
8.95603e-07
1.02586e-06
1.38674e-07
1.43332e-07
9.05027e-07
1.06985e-06
1.3374e-07
1.40639e-07
9.44644e-07
1.14235e-06
1.12656e-07
1.1632e-07
1.01258e-06
1.18311e-06
1.55017e-07
1.54376e-07
1.05527e-06
1.72782e-06
1.28284e-06
1.26049e-06
1.62094e-06
1.10646e-06
1.76212e-07
1.75434e-07
9.8225e-07
9.73767e-07
1.77865e-07
1.76062e-07
8.62359e-07
9.72191e-07
1.40553e-07
1.40382e-07
8.57002e-07
9.90956e-07
1.11679e-07
1.16143e-07
8.71089e-07
1.04012e-06
1.01883e-07
1.08622e-07
9.15778e-07
1.11718e-06
8.13386e-08
8.30967e-08
9.88198e-07
1.16518e-06
1.67657e-07
1.65321e-07
1.03825e-06
1.70568e-06
1.27023e-06
1.24781e-06
1.59919e-06
1.07948e-06
1.53538e-07
1.52374e-07
9.56085e-07
9.47845e-07
1.5528e-07
1.5297e-07
8.36891e-07
9.49041e-07
1.14684e-07
1.13764e-07
8.34213e-07
9.71409e-07
7.79893e-08
8.26038e-08
8.51858e-07
1.02415e-06
6.534e-08
7.29542e-08
9.00145e-07
1.10436e-06
5.29636e-08
5.19214e-08
9.75769e-07
1.15727e-06
1.80941e-07
1.77604e-07
1.03096e-06
1.69368e-06
1.26266e-06
1.24018e-06
1.5874e-06
1.06744e-06
1.40568e-07
1.39102e-07
9.44368e-07
9.35972e-07
1.41567e-07
1.38832e-07
8.25131e-07
9.38447e-07
9.69144e-08
9.53435e-08
8.237e-07
9.62631e-07
5.09177e-08
5.65302e-08
8.43166e-07
1.01713e-06
3.47424e-08
4.56825e-08
8.9324e-07
1.09891e-06
3.39801e-08
2.93428e-08
9.7048e-07
1.15431e-06
1.88096e-07
1.84359e-07
1.0283e-06
1.68881e-06
1.25914e-06
1.23664e-06
1.58263e-06
)
;

boundaryField
{
    interface
    {
        type            calculated;
        value           nonuniform List<scalar> 
192
(
3.60464e-06
2.27898e-06
2.27126e-06
2.379e-06
2.46742e-06
2.48525e-06
2.1826e-06
1.20518e-06
2.68598e-06
2.0837e-06
2.06071e-06
2.11532e-06
2.19301e-06
2.27323e-06
2.21968e-06
2.18392e-06
2.34152e-06
2.00601e-06
2.00635e-06
2.05932e-06
2.14301e-06
2.24857e-06
2.27444e-06
2.49062e-06
2.12244e-06
1.87347e-06
1.88627e-06
1.94074e-06
2.02807e-06
2.1434e-06
2.19673e-06
2.48633e-06
1.99006e-06
1.7665e-06
1.7871e-06
1.84577e-06
1.93799e-06
2.05957e-06
2.12552e-06
2.43363e-06
1.91317e-06
1.69742e-06
1.72251e-06
1.78543e-06
1.88205e-06
2.00793e-06
2.08093e-06
2.39326e-06
1.87081e-06
1.6578e-06
1.68528e-06
1.75118e-06
1.85078e-06
1.97933e-06
2.05637e-06
2.36998e-06
1.85192e-06
1.6399e-06
1.66845e-06
1.73581e-06
1.83686e-06
1.96666e-06
2.04557e-06
2.35977e-06
3.65431e-06
2.32954e-06
2.32366e-06
2.43454e-06
2.52514e-06
2.5426e-06
2.23966e-06
1.27346e-06
3.06693e-06
2.28639e-06
2.20767e-06
2.24719e-06
2.31473e-06
2.36819e-06
2.27315e-06
2.18311e-06
3.01779e-06
2.24571e-06
2.16661e-06
2.20537e-06
2.27231e-06
2.32524e-06
2.23236e-06
2.1551e-06
3.49351e-06
2.20979e-06
2.20187e-06
2.30965e-06
2.39828e-06
2.41502e-06
2.12273e-06
1.24781e-06
3.3893e-06
2.08874e-06
2.07798e-06
2.18187e-06
2.26672e-06
2.28118e-06
1.97989e-06
1.03406e-06
2.45049e-06
1.86523e-06
1.84008e-06
1.89008e-06
1.96269e-06
2.03795e-06
1.98403e-06
1.98003e-06
2.11238e-06
1.79071e-06
1.7876e-06
1.83539e-06
1.91324e-06
2.01255e-06
2.03723e-06
2.28411e-06
1.90117e-06
1.66577e-06
1.67403e-06
1.72254e-06
1.80328e-06
1.91126e-06
1.96206e-06
2.28163e-06
1.77383e-06
1.56363e-06
1.57927e-06
1.63152e-06
1.71669e-06
1.83028e-06
1.89295e-06
2.23038e-06
1.69987e-06
1.49712e-06
1.51708e-06
1.57333e-06
1.66269e-06
1.78027e-06
1.8497e-06
2.19084e-06
1.65912e-06
1.4588e-06
1.48107e-06
1.54019e-06
1.63243e-06
1.75255e-06
1.82595e-06
2.16805e-06
1.64095e-06
1.44144e-06
1.46474e-06
1.5253e-06
1.61894e-06
1.74027e-06
1.81552e-06
2.15806e-06
1.27666e-06
2.24246e-06
2.54907e-06
2.54567e-06
2.4924e-06
2.45083e-06
2.4266e-06
2.41593e-06
2.1853e-06
2.27805e-06
2.37813e-06
2.33521e-06
2.2822e-06
2.24373e-06
2.21995e-06
2.20872e-06
2.15698e-06
2.23677e-06
2.33449e-06
2.29179e-06
2.23893e-06
2.20048e-06
2.1767e-06
2.16547e-06
1.24943e-06
2.12411e-06
2.41964e-06
2.4162e-06
2.36343e-06
2.3221e-06
2.29798e-06
2.28735e-06
)
;
    }
    symmetry
    {
        type            symmetry;
    }
    bottom
    {
        type            calculated;
        value           nonuniform List<scalar> 
32
(
4.0813e-06
2.18465e-06
1.69854e-06
1.50227e-06
1.40225e-06
1.34726e-06
1.31748e-06
1.30426e-06
2.59006e-06
5.34167e-07
2.52561e-07
2.35975e-07
2.08614e-07
1.82053e-07
1.61431e-07
1.49723e-07
2.5529e-06
5.15888e-07
2.39365e-07
2.25984e-07
1.98216e-07
1.70387e-07
1.48252e-07
1.35412e-07
3.91222e-06
2.02981e-06
1.54796e-06
1.35752e-06
1.26145e-06
1.20881e-06
1.1803e-06
1.16763e-06
)
;
    }
}


// ************************************************************************* //
