/*--------------------------------*- C++ -*----------------------------------*\
| =========                 |                                                 |
| \\      /  F ield         | OpenFOAM: The Open Source CFD Toolbox           |
|  \\    /   O peration     | Version:  v1912                                 |
|   \\  /    A nd           | Website:  www.openfoam.com                      |
|    \\/     M anipulation  |                                                 |
\*---------------------------------------------------------------------------*/
FoamFile
{
    version     2.0;
    format      ascii;
    class       volVectorField;
    location    "0.73/solid";
    object      heatFlux;
}
// * * * * * * * * * * * * * * * * * * * * * * * * * * * * * * * * * * * * * //

dimensions      [1 0 -3 0 0 0 0];


internalField   nonuniform List<vector> 
256
(
(-65631.4 70351.2 -69279.3)
(-13255.7 41130.3 -67818.9)
(12037.9 40701.1 -66606.1)
(59379.7 68094 -65683.4)
(-62845.5 9994.41 -66817.3)
(-16394.4 6377.24 -68156.1)
(14925.8 6318.52 -66891.4)
(56282.8 9740.88 -63150.7)
(-64000.1 2332.88 -68080.5)
(-16931.6 1417.59 -69728.8)
(15401.6 1398.13 -68411.1)
(57299.3 2250.61 -64281.3)
(-65853.9 2280.54 -69960.2)
(-17329.1 1335.46 -71740.4)
(15758.8 1323.49 -70386.2)
(59012.6 2222.2 -66063.8)
(-68478 3843.28 -72588.2)
(-17888.7 2453.77 -74640.6)
(16288.3 2444.14 -73260.6)
(61507.1 3797.76 -68621.4)
(-72249.4 8906.26 -76385)
(-18728.3 7026.69 -79099.5)
(17102.8 6999.38 -77695.3)
(65163 8827.29 -72352)
(-76264.8 28565.8 -80557.8)
(-19795.5 27682.1 -84694.2)
(18088.9 27470 -83262.1)
(69050.6 27992.1 -76453.3)
(-71331.6 76183.6 -76093.6)
(-19824 82043.5 -81972.4)
(17412.9 80659 -80600.7)
(63765.3 72241.4 -72197.1)
(-62340.3 37530.6 -18004.3)
(-11880.6 10655.8 -15574.2)
(11218.8 10550.6 -15414.6)
(56414.4 36196.8 -17538.2)
(-62604.4 5853.18 -22659.5)
(-15099.4 2094.46 -20111.5)
(14322.1 2081.11 -19910.1)
(56471 5722.98 -22076.5)
(-64090.6 1354.11 -23397.7)
(-15652.6 409.073 -20846.2)
(14847.3 403.5 -20634.2)
(57825.4 1306.07 -22787.8)
(-66084.3 1323.97 -23865.9)
(-16050 343.534 -21306.4)
(15219.1 338.367 -21089.5)
(59672.9 1278.84 -23245.7)
(-68999 2432.9 -24512)
(-16638.2 891.952 -21977.6)
(15782.6 885.913 -21758.6)
(62436.8 2388.36 -23891.5)
(-73475.7 6894.66 -25505.1)
(-17597 4546.8 -23104.5)
(16715.5 4521.13 -22884.7)
(66760.7 6807.91 -24892.9)
(-79039.9 27019.6 -26989.7)
(-19011.8 25032.8 -25019.7)
(18043.7 24810 -24800.7)
(72155 26401.4 -26393.6)
(-76328.7 80695.7 -28528.7)
(-19806.6 84806.3 -27663.1)
(18084.1 83353.9 -27456.3)
(69060 76523.6 -27981.2)
(-55947.9 29687.4 -4449.8)
(-10666 5444.64 -2500.41)
(10073.9 5376.4 -2482.22)
(50221.3 28479.3 -4376.63)
(-56742.2 4600.94 -5856.64)
(-13645 1105.27 -3498.75)
(12960.7 1098.91 -3473.75)
(50829.2 4491.3 -5760.68)
(-58195 1126.5 -6055.05)
(-14168.1 222.703 -3647.03)
(13459.9 218.686 -3620.67)
(52149.9 1081.42 -5955.49)
(-60134.2 1166.33 -6137.45)
(-14552.8 204.018 -3710.89)
(13819.4 199.099 -3684.2)
(53937.1 1118.47 -6038.47)
(-63032.5 2204.04 -6237.62)
(-15135.3 655.634 -3801.41)
(14374.4 648.939 -3774.98)
(56667 2150.61 -6143.18)
(-67592.5 6428.47 -6405.24)
(-16107.9 3984.62 -3981.41)
(15314.4 3957.25 -3955.91)
(61037.7 6325.18 -6320.96)
(-73558.1 25542.3 -6869.98)
(-17606.5 23123.5 -4542.77)
(16715 22898.5 -4519.18)
(66777.9 24903.8 -6803.22)
(-72397.4 76597.3 -8862.39)
(-18751.7 79274.8 -7007.03)
(17094.8 77838.1 -6985.23)
(65188.6 72462 -8813.57)
(-51614.9 27224.1 -1598.36)
(-9913 4656.68 -408.231)
(9342.58 4594.64 -404.347)
(46034.1 26059.4 -1566.58)
(-52413.4 4247.92 -2045.06)
(-12716.5 947.844 -577.997)
(12060.2 942.664 -572.588)
(46655.7 4144.11 -2004.64)
(-53810.7 1073.29 -2100.98)
(-13218.3 196.93 -601.405)
(12538.8 193.049 -595.776)
(47921.8 1028.28 -2059.57)
(-55711.1 1141.41 -2116.57)
(-13596.7 189.144 -608.347)
(12891.5 184.05 -602.763)
(49667 1091.15 -2076.07)
(-58586.3 2165.11 -2131.51)
(-14175.6 621.43 -618.029)
(13440.9 614.205 -612.69)
(52361.2 2105.88 -2094)
(-63143 6262.3 -2169.41)
(-15147.6 3805.45 -651.987)
(14376 3776.93 -647.227)
(56703.3 6147.86 -2138.16)
(-69196.7 24562.5 -2393.23)
(-16661 22007.2 -885.396)
(15783.3 21780.7 -881.863)
(62489.5 23908.7 -2373.55)
(-68745.2 72911.4 -3770.1)
(-17929.4 74912.9 -2418.44)
(16277.5 73484.4 -2416.33)
(61566.6 68795.2 -3764.64)
(-48993.6 26044 -820.909)
(-9472.03 4458.41 -122.486)
(8915.57 4399.47 -120.357)
(43511.7 24908.1 -800.246)
(-49764.2 4098.32 -1028.13)
(-12172.5 912.097 -168.166)
(11534.1 907.483 -165.202)
(44111.3 3998.31 -1001.81)
(-51131.2 1054.98 -1050.84)
(-12662.9 192.353 -173.529)
(12001.8 188.512 -170.458)
(45348.2 1009.98 -1023.88)
(-53013.7 1135.8 -1054.87)
(-13039 187.393 -174.311)
(12351.7 182.185 -171.28)
(47072.2 1084.04 -1028.57)
(-55876.7 2151.19 -1058.56)
(-13616.5 611.994 -175.687)
(12898.4 604.474 -172.798)
(49745.5 2088.53 -1034.11)
(-60417.6 6166.75 -1077.66)
(-14585.7 3717.25 -188.553)
(13828.2 3688.08 -185.987)
(54055.8 6045.64 -1056.88)
(-66467.3 23941.6 -1216.37)
(-16095.2 21357 -314.794)
(15226.8 21129.4 -312.945)
(59812.1 23277.4 -1202.56)
(-66308.9 70466.9 -2090.41)
(-17397.9 72182.3 -1226.95)
(15748.6 70756.3 -1226.24)
(59152.1 66354.6 -2086.71)
(-47419.4 25375.1 -465.62)
(-9212.45 4366.03 -60.5373)
(8664.82 4309.09 -59.2105)
(41998 24257.4 -452.978)
(-48174 4017.99 -578.586)
(-11853.6 896.801 -81.6389)
(11226.5 892.563 -79.775)
(42585.1 3920.48 -562.34)
(-49526.3 1046.55 -589.904)
(-12337.9 190.784 -83.8364)
(11688.5 186.971 -81.9007)
(43807.6 1001.53 -573.246)
(-51400.4 1133.68 -591.268)
(-12713.1 186.986 -83.9515)
(12037.3 181.709 -82.0387)
(45520.2 1080.93 -575.043)
(-54255.8 2142.32 -593.17)
(-13289.8 607.188 -84.4289)
(12582.4 599.498 -82.5991)
(48179.9 2077.56 -578.081)
(-58779.2 6104.5 -606.078)
(-14256 3666.34 -91.5025)
(13507.6 3636.79 -89.8553)
(52462.7 5979.41 -593.145)
(-64800.8 23549.7 -693.829)
(-15757.6 20968.8 -164.349)
(14895.5 20740.4 -163.109)
(58175.5 22878.9 -684.98)
(-64763 68909.6 -1231.08)
(-17065.2 70501.1 -703.146)
(15417.8 69075.8 -702.638)
(57617 64797.2 -1228.6)
(-46517 24999.8 -243.689)
(-9065.62 4316.23 -30.7993)
(8523.13 4260.48 -30.0722)
(41130 23892.7 -236.936)
(-47263.5 3974.04 -301.783)
(-11673.7 888.798 -41.3046)
(11053.4 884.792 -40.2754)
(41711 3878.04 -293.043)
(-48608.5 1042.3 -307.325)
(-12154.9 190.04 -42.3449)
(11512.4 186.248 -41.273)
(42926.2 997.281 -298.349)
(-50478.4 1132.54 -307.866)
(-12529.8 186.801 -42.3654)
(11860.6 181.487 -41.3049)
(44632.6 1079.2 -299.12)
(-53328.6 2136.38 -309.04)
(-13105.9 604.443 -42.6147)
(12404.8 596.658 -41.5982)
(47283.4 2070.43 -300.909)
(-57838 6066.09 -316.824)
(-14069.5 3637.33 -46.3869)
(13326.6 3607.57 -45.4656)
(51546.3 5938.74 -309.836)
(-63832.8 23316.6 -365.86)
(-15564.4 20745.4 -84.9291)
(14706.2 20516.6 -84.2174)
(57223.6 22641.9 -361.036)
(-63844.2 67979 -659.298)
(-16869.5 69515.6 -372.762)
(15223.1 68090.4 -372.452)
(56703.1 63865.6 -657.962)
(-46103.3 24829.6 -76.0977)
(-8998.83 4293.93 -9.53789)
(8458.68 4238.74 -9.30673)
(40731.7 23727.4 -73.9809)
(-46846.3 3954.35 -94.0997)
(-11592.1 885.256 -12.7663)
(10974.8 881.362 -12.4376)
(41310.2 3859.07 -91.3483)
(-48188.2 1040.46 -95.7818)
(-12071.8 189.723 -13.08)
(11432.5 185.942 -12.737)
(42522.3 995.45 -92.9523)
(-50056.3 1131.97 -95.9362)
(-12446.6 186.716 -13.0833)
(11780.5 181.384 -12.7438)
(44226 1078.37 -93.179)
(-52903.7 2133.36 -96.3488)
(-13022.4 603.167 -13.1652)
(12324.1 595.337 -12.8397)
(46872.3 2066.85 -93.7871)
(-57405.4 6047.68 -98.9585)
(-13984.6 3624.03 -14.3599)
(13244.2 3594.17 -14.0643)
(51124.6 5919.28 -96.7591)
(-63385.1 23207.3 -114.759)
(-15475.9 20642.4 -26.4696)
(14619.4 20413.5 -26.2392)
(56782.7 22530.8 -113.243)
(-63414 67541.4 -208.277)
(-16778.4 69056.7 -117.305)
(15132.6 67631.5 -117.202)
(56274.6 63427.3 -207.875)
)
;

boundaryField
{
    interface
    {
        type            calculated;
        value           nonuniform List<vector> 
192
(
(-105134 70351.2 -69279.3)
(-93377.9 9994.41 -66817.3)
(-94637.3 2332.88 -68080.5)
(-97564 2280.54 -69960.2)
(-101703 3843.28 -72588.2)
(-107576 8906.26 -76385)
(-113517 28565.8 -80557.8)
(-103973 76183.6 -76093.6)
(-101014 37530.6 -18004.3)
(-95125.7 5853.18 -22659.5)
(-96997.3 1354.11 -23397.7)
(-100196 1323.97 -23865.9)
(-104853 2432.9 -24512)
(-111896 6894.66 -25505.1)
(-120239 27019.6 -26989.7)
(-113629 80695.7 -28528.7)
(-90627.4 29687.4 -4449.8)
(-86267.3 4600.94 -5856.64)
(-88130.2 1126.5 -6055.05)
(-91243.8 1166.33 -6137.45)
(-95880.5 2204.04 -6237.62)
(-103063 6428.47 -6405.24)
(-112044 25542.3 -6869.98)
(-107836 76597.3 -8862.39)
(-83462.2 27224.1 -1598.36)
(-79459.5 4247.92 -2045.06)
(-81253.7 1073.29 -2100.98)
(-84302.3 1141.41 -2116.57)
(-88900.4 2165.11 -2131.51)
(-96078.6 6262.3 -2169.41)
(-105207 24562.5 -2393.23)
(-102172 72911.4 -3770.1)
(-79099 26044 -820.909)
(-75245.4 4098.32 -1028.13)
(-77001.8 1054.98 -1050.84)
(-80019.2 1135.8 -1054.87)
(-84596 2151.19 -1058.56)
(-91748.6 6166.75 -1077.66)
(-100878 23941.6 -1216.37)
(-98362 70466.9 -2090.41)
(-76468.1 25375.1 -465.62)
(-72700.7 4017.99 -578.586)
(-74439.4 1046.55 -589.904)
(-77441.9 1133.68 -591.268)
(-82005.1 2142.32 -593.17)
(-89129.3 6104.5 -606.078)
(-98218.8 23549.7 -693.829)
(-95934.9 68909.6 -1231.08)
(-74956 24999.8 -243.689)
(-71238 3974.04 -301.783)
(-72968.4 1042.3 -307.325)
(-75963.2 1132.54 -307.866)
(-80517.2 2136.38 -309.04)
(-87618.4 6066.09 -316.824)
(-96668.1 23316.6 -365.86)
(-94488.4 67979 -659.298)
(-74261.7 24829.6 -76.0977)
(-70566.2 3954.35 -94.0997)
(-72293.2 1040.46 -95.7818)
(-75284.6 1131.97 -95.9362)
(-79833.8 2133.36 -96.3488)
(-86922.4 6047.68 -98.9585)
(-95949.3 23207.3 -114.759)
(-93810.1 67541.4 -208.277)
(-65631.4 70351.2 -109299)
(-62845.5 9994.41 -97253.1)
(-64000.1 2332.88 -98618.7)
(-65853.9 2280.54 -101581)
(-68478 3843.28 -105721)
(-72249.4 8906.26 -111610)
(-76264.8 28565.8 -117637)
(-71331.6 76183.6 -107935)
(-13255.7 41130.3 -108840)
(-16394.4 6377.24 -102161)
(-16931.6 1417.59 -104094)
(-17329.1 1335.46 -107312)
(-17888.7 2453.77 -111934)
(-18728.3 7026.69 -118907)
(-19795.5 27682.1 -127081)
(-19824 82043.5 -119354)
(12037.9 40701.1 -106703)
(14925.8 6318.52 -99991.4)
(15401.6 1398.13 -101838)
(15758.8 1323.49 -104992)
(16288.3 2444.14 -109567)
(17102.8 6999.38 -116494)
(18088.9 27470 -124613)
(17412.9 80659 -116984)
(59379.7 68094 -102931)
(56282.8 9740.88 -90942.6)
(57299.3 2250.61 -92090.9)
(59012.6 2222.2 -94879.9)
(61507.1 3797.76 -98884.3)
(65163 8827.29 -104637)
(69050.6 27992.1 -110509)
(63765.3 72241.4 -101146)
(94300.8 68094 -65683.4)
(82238.5 9740.88 -63150.7)
(83295.1 2250.61 -64281.3)
(85993 2222.2 -66063.8)
(89913.4 3797.76 -68621.4)
(95586.5 8827.29 -72352)
(101345 27992.1 -76453.3)
(91746.9 72241.4 -72197.1)
(90296.5 36196.8 -17538.2)
(84182.2 5722.98 -22076.5)
(85834.7 1306.07 -22787.8)
(88780.7 1278.84 -23245.7)
(93176.5 2388.36 -23891.5)
(99951.4 6807.91 -24892.9)
(108039 26401.4 -26393.6)
(101367 76523.6 -27981.2)
(80231.1 28479.3 -4376.63)
(75664.1 4491.3 -5760.68)
(77303.5 1081.42 -5955.49)
(80154.3 1118.47 -6038.47)
(84499 2150.61 -6143.18)
(91352.2 6325.18 -6320.96)
(99985 24903.8 -6803.22)
(95643.4 72462 -8813.57)
(73324.5 26059.4 -1566.58)
(69125.5 4144.11 -2004.64)
(70697.2 1028.28 -2059.57)
(73477.6 1091.15 -2076.07)
(77761.7 2105.88 -2094)
(84566.8 6147.86 -2138.16)
(93276.5 23908.7 -2373.55)
(90037.3 68795.2 -3764.64)
(69136.4 24908.1 -800.246)
(65092.4 3998.31 -1001.81)
(66627.7 1009.98 -1023.88)
(69371.3 1084.04 -1028.57)
(73618.8 2088.53 -1034.11)
(80370.3 6045.64 -1056.88)
(89036.7 23277.4 -1202.56)
(86267 66354.6 -2086.71)
(66612.2 24257.4 -452.978)
(62657.5 3920.48 -562.34)
(64175.6 1001.53 -573.246)
(66898.4 1080.93 -575.043)
(71121.7 2077.56 -578.081)
(77827.3 5979.41 -593.145)
(86427.6 22878.9 -684.98)
(83859 64797.2 -1228.6)
(65160.5 23892.7 -236.936)
(61257 3878.04 -293.043)
(62766.6 997.281 -298.349)
(65478 1079.2 -299.12)
(69685.6 2070.43 -300.909)
(76357.8 5938.74 -309.836)
(84903.4 22641.9 -361.036)
(82420.9 63865.6 -657.962)
(64493.4 23727.4 -73.9809)
(60613.2 3859.07 -91.3483)
(62119.2 995.45 -92.9523)
(64825.7 1078.37 -93.179)
(69025.1 2066.85 -93.7871)
(75680 5919.28 -96.7591)
(84195.7 22530.8 -113.243)
(81745.2 63427.3 -207.875)
(-71331.6 108077 -76093.6)
(-76328.7 117874 -28528.7)
(-72397.4 111982 -8862.39)
(-68745.2 106290 -3770.1)
(-66308.9 102475 -2090.41)
(-64763 100035 -1231.08)
(-63844.2 98573.4 -659.298)
(-63414 97885.3 -208.277)
(-19824 119474 -81972.4)
(-19806.6 127284 -27663.1)
(-18751.7 119224 -7007.03)
(-17929.4 112425 -2418.44)
(-17397.9 108105 -1226.95)
(-17065.2 105426 -703.146)
(-16869.5 103849 -372.762)
(-16778.4 103113 -117.305)
(17412.9 117084 -80600.7)
(18084.1 124780 -27456.3)
(17094.8 116754 -6985.23)
(16277.5 109973 -2416.33)
(15748.6 105659 -1226.24)
(15417.8 102983 -702.638)
(15223.1 101406 -372.452)
(15132.6 100670 -117.202)
(63765.3 101222 -72197.1)
(69060 110638 -27981.2)
(65188.6 104838 -8813.57)
(61566.6 99201.3 -3764.64)
(59152.1 95405.8 -2086.71)
(57617 92973.7 -1228.6)
(56703.1 91515 -657.962)
(56274.6 90827.7 -207.875)
)
;
    }
    symmetry
    {
        type            symmetry;
    }
    bottom
    {
        type            calculated;
        value           nonuniform List<vector> 
32
(
(-65631.4 123533 -69279.3)
(-62340.3 65013.4 -18004.3)
(-55947.9 51516.2 -4449.8)
(-51614.9 47214.2 -1598.36)
(-48993.6 45122.7 -820.909)
(-47419.4 43930.6 -465.62)
(-46517 43260.2 -243.689)
(-46103.3 42955.8 -76.0977)
(-13255.7 71276 -67818.9)
(-11880.6 17680.7 -15574.2)
(-10666 8979.17 -2500.41)
(-9913 7679.09 -408.231)
(-9472.03 7346.25 -122.486)
(-9212.45 7189.14 -60.5373)
(-9065.62 7104.1 -30.7993)
(-8998.83 7065.95 -9.53789)
(12037.9 70510.4 -66606.1)
(11218.8 17491.1 -15414.6)
(10073.9 8851.99 -2482.22)
(9342.58 7562.25 -404.347)
(8915.57 7234.6 -120.357)
(8664.82 7080.82 -59.2105)
(8523.13 6997.76 -30.0722)
(8458.68 6960.53 -9.30673)
(59379.7 119428 -65683.4)
(56414.4 62555.9 -17538.2)
(50221.3 49274.8 -4376.63)
(46034.1 45049.4 -1566.58)
(43511.7 43008.5 -800.246)
(41998 41848.4 -452.978)
(41130 41196.6 -236.936)
(40731.7 40900.7 -73.9809)
)
;
    }
}


// ************************************************************************* //
