/*--------------------------------*- C++ -*----------------------------------*\
| =========                 |                                                 |
| \\      /  F ield         | OpenFOAM: The Open Source CFD Toolbox           |
|  \\    /   O peration     | Version:  v1912                                 |
|   \\  /    A nd           | Website:  www.openfoam.com                      |
|    \\/     M anipulation  |                                                 |
\*---------------------------------------------------------------------------*/
FoamFile
{
    version     2.0;
    format      ascii;
    class       pointVectorField;
    location    "0.73/solid";
    object      pointDD;
}
// * * * * * * * * * * * * * * * * * * * * * * * * * * * * * * * * * * * * * //

dimensions      [0 1 0 0 0 0 0];


internalField   nonuniform List<vector> 
405
(
(1.6908e-10 2.89898e-10 1.81031e-10)
(7.13996e-11 2.10415e-10 1.37499e-10)
(-5.30495e-12 1.83487e-10 1.25845e-10)
(-7.7011e-11 1.9856e-10 1.21001e-10)
(-1.48174e-10 2.71077e-10 1.56001e-10)
(3.53094e-10 3.72907e-10 4.50992e-10)
(2.06281e-10 3.70298e-10 4.55202e-10)
(-1.6696e-11 3.21723e-10 4.2713e-10)
(-2.27625e-10 3.5371e-10 4.16003e-10)
(-3.28199e-10 3.55914e-10 4.01688e-10)
(4.74193e-10 1.99239e-10 7.61095e-10)
(2.81759e-10 2.22012e-10 7.64394e-10)
(-2.87103e-11 1.90951e-10 7.27139e-10)
(-3.24927e-10 2.19514e-10 7.1457e-10)
(-4.65996e-10 2.04313e-10 6.9253e-10)
(4.91279e-10 -2.03905e-11 1.00299e-09)
(2.86486e-10 2.071e-11 1.00188e-09)
(-4.19586e-11 7.80482e-12 9.55545e-10)
(-3.55918e-10 3.102e-11 9.44299e-10)
(-5.06667e-10 4.77181e-12 9.21408e-10)
(4.84531e-10 -2.35143e-10 1.22276e-09)
(2.73274e-10 -1.93189e-10 1.21492e-09)
(-5.83347e-11 -1.9999e-10 1.15914e-09)
(-3.75249e-10 -1.71823e-10 1.15114e-09)
(-5.30101e-10 -1.92162e-10 1.13097e-09)
(5.01526e-10 -4.67633e-10 1.44745e-09)
(2.76855e-10 -4.35359e-10 1.43018e-09)
(-7.8385e-11 -4.42045e-10 1.3655e-09)
(-4.18621e-10 -4.0368e-10 1.36089e-09)
(-5.84524e-10 -4.07572e-10 1.34657e-09)
(5.75504e-10 -7.88463e-10 1.6895e-09)
(3.19968e-10 -7.63386e-10 1.66484e-09)
(-1.02684e-10 -7.62251e-10 1.59603e-09)
(-5.09655e-10 -7.20698e-10 1.59023e-09)
(-7.03382e-10 -7.10134e-10 1.57986e-09)
(6.96287e-10 -1.27677e-09 1.91762e-09)
(3.92153e-10 -1.24758e-09 1.90081e-09)
(-1.32016e-10 -1.2232e-09 1.84075e-09)
(-6.38772e-10 -1.18894e-09 1.82099e-09)
(-8.76099e-10 -1.1731e-09 1.79977e-09)
(7.53691e-10 -1.58921e-09 2.02953e-09)
(4.29695e-10 -1.56519e-09 2.02054e-09)
(-1.48972e-10 -1.51765e-09 1.97685e-09)
(-7.091e-10 -1.48584e-09 1.94847e-09)
(-9.79647e-10 -1.46454e-09 1.91749e-09)
(1.07403e-10 1.48025e-10 8.31254e-11)
(0 0 0)
(0 0 0)
(0 0 0)
(-7.50989e-11 1.38726e-10 7.39292e-11)
(2.98337e-10 2.22856e-10 3.08977e-10)
(0 0 0)
(0 0 0)
(0 0 0)
(-2.36295e-10 2.15019e-10 2.78758e-10)
(3.99626e-10 4.21938e-11 5.72009e-10)
(0 0 0)
(0 0 0)
(0 0 0)
(-3.47309e-10 5.56498e-11 5.22233e-10)
(4.12646e-10 -1.67588e-10 7.98955e-10)
(0 0 0)
(0 0 0)
(0 0 0)
(-3.78302e-10 -1.34017e-10 7.35694e-10)
(4.0554e-10 -3.69848e-10 1.00949e-09)
(0 0 0)
(0 0 0)
(0 0 0)
(-3.96602e-10 -3.17428e-10 9.3555e-10)
(4.21857e-10 -5.81602e-10 1.22244e-09)
(0 0 0)
(0 0 0)
(0 0 0)
(-4.45963e-10 -5.10563e-10 1.13896e-09)
(4.98712e-10 -8.61565e-10 1.44245e-09)
(0 0 0)
(0 0 0)
(0 0 0)
(-5.63112e-10 -7.70822e-10 1.34996e-09)
(6.36069e-10 -1.29153e-09 1.63187e-09)
(0 0 0)
(0 0 0)
(0 0 0)
(-7.46644e-10 -1.17498e-09 1.53173e-09)
(6.92854e-10 -1.57639e-09 1.72921e-09)
(3.87436e-10 -1.5568e-09 1.74035e-09)
(-1.3646e-10 -1.49247e-09 1.71964e-09)
(-6.43025e-10 -1.46868e-09 1.68838e-09)
(-8.79435e-10 -1.44397e-09 1.63851e-09)
(5.91885e-11 6.88847e-11 2.80376e-11)
(0 0 0)
(0 0 0)
(0 0 0)
(-2.62915e-11 5.95218e-11 2.34482e-11)
(1.74368e-10 5.76927e-11 1.4892e-10)
(0 0 0)
(0 0 0)
(0 0 0)
(-1.07272e-10 4.91261e-11 1.3155e-10)
(2.40527e-10 -1.20829e-10 3.44388e-10)
(0 0 0)
(0 0 0)
(0 0 0)
(-1.76004e-10 -1.09383e-10 3.12403e-10)
(2.44018e-10 -3.12682e-10 5.45431e-10)
(0 0 0)
(0 0 0)
(0 0 0)
(-1.91427e-10 -2.8215e-10 5.01858e-10)
(2.34215e-10 -4.95007e-10 7.37819e-10)
(0 0 0)
(0 0 0)
(0 0 0)
(-2.01836e-10 -4.46155e-10 6.84577e-10)
(2.50887e-10 -6.75218e-10 9.21739e-10)
(0 0 0)
(0 0 0)
(0 0 0)
(-2.46889e-10 -6.08154e-10 8.59855e-10)
(3.3543e-10 -8.97805e-10 1.08806e-09)
(0 0 0)
(0 0 0)
(0 0 0)
(-3.67371e-10 -8.11789e-10 1.01846e-09)
(4.93787e-10 -1.24981e-09 1.20034e-09)
(0 0 0)
(0 0 0)
(0 0 0)
(-5.67415e-10 -1.13937e-09 1.12519e-09)
(5.66615e-10 -1.49637e-09 1.24067e-09)
(3.09208e-10 -1.46913e-09 1.25662e-09)
(-1.12643e-10 -1.39542e-09 1.25895e-09)
(-5.1857e-10 -1.38481e-09 1.21979e-09)
(-7.11136e-10 -1.37016e-09 1.17447e-09)
(2.88403e-11 3.03687e-11 1.66652e-11)
(0 0 0)
(0 0 0)
(0 0 0)
(4.58993e-12 1.93577e-11 1.3628e-11)
(9.44313e-11 -2.32524e-11 1.01561e-10)
(0 0 0)
(0 0 0)
(0 0 0)
(-2.36667e-11 -3.58103e-11 8.9903e-11)
(1.37197e-10 -2.04306e-10 2.54568e-10)
(0 0 0)
(0 0 0)
(0 0 0)
(-6.3745e-11 -1.97919e-10 2.32412e-10)
(1.37319e-10 -3.89294e-10 4.25444e-10)
(0 0 0)
(0 0 0)
(0 0 0)
(-7.06674e-11 -3.64369e-10 3.94043e-10)
(1.3024e-10 -5.5445e-10 5.92393e-10)
(0 0 0)
(0 0 0)
(0 0 0)
(-7.90546e-11 -5.11474e-10 5.52754e-10)
(1.51793e-10 -7.03356e-10 7.43309e-10)
(0 0 0)
(0 0 0)
(0 0 0)
(-1.24626e-10 -6.42379e-10 6.96237e-10)
(2.43424e-10 -8.7954e-10 8.6123e-10)
(0 0 0)
(0 0 0)
(0 0 0)
(-2.48159e-10 -7.99924e-10 8.07786e-10)
(4.09664e-10 -1.17848e-09 9.1817e-10)
(0 0 0)
(0 0 0)
(0 0 0)
(-4.5238e-10 -1.07479e-09 8.60567e-10)
(4.84609e-10 -1.4042e-09 9.21152e-10)
(2.57688e-10 -1.38454e-09 9.30927e-10)
(-9.43909e-11 -1.31387e-09 9.39925e-10)
(-4.30825e-10 -1.3037e-09 9.03322e-10)
(-5.94821e-10 -1.28402e-09 8.70968e-10)
(1.54719e-11 1.46455e-11 1.72582e-11)
(0 0 0)
(0 0 0)
(0 0 0)
(1.84261e-11 2.21481e-12 1.51242e-11)
(5.95228e-11 -5.48175e-11 8.95642e-11)
(0 0 0)
(0 0 0)
(0 0 0)
(1.38534e-11 -7.11223e-11 8.1476e-11)
(9.33695e-11 -2.35278e-10 2.11774e-10)
(0 0 0)
(0 0 0)
(0 0 0)
(-1.37184e-11 -2.34001e-10 1.96324e-10)
(9.49816e-11 -4.15812e-10 3.48324e-10)
(0 0 0)
(0 0 0)
(0 0 0)
(-1.8256e-11 -3.96644e-10 3.25988e-10)
(9.31342e-11 -5.6872e-10 4.81825e-10)
(0 0 0)
(0 0 0)
(0 0 0)
(-2.80139e-11 -5.3175e-10 4.53008e-10)
(1.20556e-10 -6.9678e-10 5.97401e-10)
(0 0 0)
(0 0 0)
(0 0 0)
(-7.57692e-11 -6.41877e-10 5.62617e-10)
(2.16651e-10 -8.47037e-10 6.78278e-10)
(0 0 0)
(0 0 0)
(0 0 0)
(-2.00308e-10 -7.73456e-10 6.38443e-10)
(3.83409e-10 -1.11971e-09 7.07169e-10)
(0 0 0)
(0 0 0)
(0 0 0)
(-4.0193e-10 -1.02185e-09 6.64141e-10)
(4.56323e-10 -1.33603e-09 6.96325e-10)
(2.42649e-10 -1.32565e-09 6.9612e-10)
(-8.0648e-11 -1.26169e-09 7.01144e-10)
(-3.88196e-10 -1.24764e-09 6.75646e-10)
(-5.39866e-10 -1.2208e-09 6.58942e-10)
(1.06288e-11 9.40145e-12 1.60444e-11)
(0 0 0)
(0 0 0)
(0 0 0)
(2.35902e-11 -3.99351e-12 1.45964e-11)
(4.75267e-11 -6.35954e-11 7.47702e-11)
(0 0 0)
(0 0 0)
(0 0 0)
(2.75502e-11 -8.26309e-11 6.93235e-11)
(8.00203e-11 -2.4045e-10 1.67172e-10)
(0 0 0)
(0 0 0)
(0 0 0)
(3.67858e-12 -2.43193e-10 1.56757e-10)
(8.49848e-11 -4.1604e-10 2.67946e-10)
(0 0 0)
(0 0 0)
(0 0 0)
(-1.49832e-12 -4.01608e-10 2.52728e-10)
(8.82077e-11 -5.60861e-10 3.65399e-10)
(0 0 0)
(0 0 0)
(0 0 0)
(-1.34349e-11 -5.2892e-10 3.45484e-10)
(1.2033e-10 -6.77978e-10 4.47237e-10)
(0 0 0)
(0 0 0)
(0 0 0)
(-6.30117e-11 -6.28132e-10 4.22903e-10)
(2.18714e-10 -8.1702e-10 5.00821e-10)
(0 0 0)
(0 0 0)
(0 0 0)
(-1.87111e-10 -7.48333e-10 4.72731e-10)
(3.83744e-10 -1.07854e-09 5.16594e-10)
(0 0 0)
(0 0 0)
(0 0 0)
(-3.84533e-10 -9.85249e-10 4.86133e-10)
(4.5476e-10 -1.29004e-09 5.04419e-10)
(2.45832e-10 -1.28559e-09 4.98687e-10)
(-7.06253e-11 -1.22708e-09 4.99162e-10)
(-3.71194e-10 -1.20969e-09 4.84218e-10)
(-5.18698e-10 -1.17858e-09 4.77955e-10)
(9.17697e-12 8.07748e-12 1.19967e-11)
(0 0 0)
(0 0 0)
(0 0 0)
(2.52384e-11 -5.92007e-12 1.11015e-11)
(4.44574e-11 -6.40824e-11 5.30993e-11)
(0 0 0)
(0 0 0)
(0 0 0)
(3.16569e-11 -8.48953e-11 4.9741e-11)
(7.80392e-11 -2.36432e-10 1.14889e-10)
(0 0 0)
(0 0 0)
(0 0 0)
(8.16166e-12 -2.41922e-10 1.0846e-10)
(8.61172e-11 -4.07264e-10 1.80703e-10)
(0 0 0)
(0 0 0)
(0 0 0)
(1.66039e-12 -3.96187e-10 1.71254e-10)
(9.30665e-11 -5.47029e-10 2.43523e-10)
(0 0 0)
(0 0 0)
(0 0 0)
(-1.20221e-11 -5.18726e-10 2.31049e-10)
(1.2828e-10 -6.5927e-10 2.95271e-10)
(0 0 0)
(0 0 0)
(0 0 0)
(-6.26703e-11 -6.13097e-10 2.79899e-10)
(2.27757e-10 -7.94487e-10 3.28037e-10)
(0 0 0)
(0 0 0)
(0 0 0)
(-1.85909e-10 -7.29324e-10 3.1018e-10)
(3.91021e-10 -1.05161e-09 3.36812e-10)
(0 0 0)
(0 0 0)
(0 0 0)
(-3.79785e-10 -9.61557e-10 3.17378e-10)
(4.60532e-10 -1.26057e-09 3.27871e-10)
(2.52921e-10 -1.25936e-09 3.21792e-10)
(-6.38181e-11 -1.20418e-09 3.20428e-10)
(-3.64564e-10 -1.18492e-09 3.12562e-10)
(-5.11129e-10 -1.15173e-09 3.10976e-10)
(8.82381e-12 7.91481e-12 6.32894e-12)
(0 0 0)
(0 0 0)
(0 0 0)
(2.56935e-11 -6.41246e-12 5.90179e-12)
(4.39889e-11 -6.27493e-11 2.73677e-11)
(0 0 0)
(0 0 0)
(0 0 0)
(3.26726e-11 -8.45549e-11 2.57664e-11)
(7.86766e-11 -2.31647e-10 5.82422e-11)
(0 0 0)
(0 0 0)
(0 0 0)
(8.87273e-12 -2.3871e-10 5.51745e-11)
(8.87328e-11 -3.99128e-10 9.06248e-11)
(0 0 0)
(0 0 0)
(0 0 0)
(1.41618e-12 -3.90018e-10 8.61017e-11)
(9.78417e-11 -5.36109e-10 1.21245e-10)
(0 0 0)
(0 0 0)
(0 0 0)
(-1.32723e-11 -5.09973e-10 1.15245e-10)
(1.34742e-10 -6.46458e-10 1.46209e-10)
(0 0 0)
(0 0 0)
(0 0 0)
(-6.44172e-11 -6.02487e-10 1.38779e-10)
(2.34711e-10 -7.807e-10 1.61793e-10)
(0 0 0)
(0 0 0)
(0 0 0)
(-1.8698e-10 -7.17646e-10 1.53128e-10)
(3.96841e-10 -1.03621e-09 1.65812e-10)
(0 0 0)
(0 0 0)
(0 0 0)
(-3.78653e-10 -9.48081e-10 1.56358e-10)
(4.65367e-10 -1.24397e-09 1.61269e-10)
(2.58019e-10 -1.24432e-09 1.57721e-10)
(-5.98777e-11 -1.19081e-09 1.56595e-10)
(-3.61717e-10 -1.17073e-09 1.5323e-10)
(-5.08232e-10 -1.13667e-09 1.53046e-10)
(1.57829e-11 2.25278e-12 0)
(7.98516e-12 -1.21376e-11 0)
(4.18501e-13 -2.03225e-11 0)
(-3.15529e-12 -1.66958e-11 0)
(1.31315e-11 -1.26396e-11 0)
(4.69796e-11 -7.16834e-11 0)
(2.819e-11 -9.67685e-11 0)
(3.73733e-12 -1.13315e-10 0)
(-1.14011e-11 -1.0415e-10 0)
(4.4883e-12 -8.90772e-11 0)
(7.78915e-11 -2.33939e-10 0)
(4.46731e-11 -2.51055e-10 0)
(8.47481e-12 -2.64137e-10 0)
(-1.72754e-11 -2.5326e-10 0)
(-1.49808e-11 -2.3975e-10 0)
(8.6742e-11 -3.97691e-10 0)
(4.86044e-11 -4.09044e-10 0)
(9.9872e-12 -4.17234e-10 0)
(-1.85111e-11 -4.03818e-10 0)
(-2.11843e-11 -3.89718e-10 0)
(9.48652e-11 -5.3717e-10 0)
(5.11018e-11 -5.54565e-10 0)
(6.93869e-12 -5.63393e-10 0)
(-2.72002e-11 -5.41074e-10 0)
(-3.50515e-11 -5.1447e-10 0)
(1.30631e-10 -6.57778e-10 0)
(7.11893e-11 -6.91975e-10 0)
(-1.04589e-12 -7.04692e-10 0)
(-6.30037e-11 -6.69737e-10 0)
(-8.54731e-11 -6.1959e-10 0)
(2.26877e-10 -8.05057e-10 0)
(1.29107e-10 -8.51204e-10 0)
(-1.44043e-11 -8.60329e-10 0)
(-1.4675e-10 -8.1942e-10 0)
(-2.05292e-10 -7.50124e-10 0)
(3.77536e-10 -1.05958e-09 0)
(2.15666e-10 -1.08493e-09 0)
(-3.38549e-11 -1.07061e-09 0)
(-2.69968e-10 -1.03975e-09 0)
(-3.87753e-10 -9.81912e-10 0)
(4.55196e-10 -1.2412e-09 0)
(2.60659e-10 -1.23345e-09 0)
(-5.18983e-11 -1.19086e-09 0)
(-3.48929e-10 -1.17004e-09 0)
(-5.0224e-10 -1.14317e-09 0)
)
;

boundaryField
{
    interface
    {
        type            calculated;
    }
    symmetry
    {
        type            symmetry;
    }
    bottom
    {
        type            calculated;
    }
}


// ************************************************************************* //
