/*--------------------------------*- C++ -*----------------------------------*\
| =========                 |                                                 |
| \\      /  F ield         | OpenFOAM: The Open Source CFD Toolbox           |
|  \\    /   O peration     | Version:  v1912                                 |
|   \\  /    A nd           | Website:  www.openfoam.com                      |
|    \\/     M anipulation  |                                                 |
\*---------------------------------------------------------------------------*/
FoamFile
{
    version     2.0;
    format      ascii;
    class       pointVectorField;
    location    "0.73/solid";
    object      pointD;
}
// * * * * * * * * * * * * * * * * * * * * * * * * * * * * * * * * * * * * * //

dimensions      [0 1 0 0 0 0 0];


internalField   nonuniform List<vector> 
405
(
(3.78354e-08 3.92779e-08 3.90898e-08)
(7.65122e-09 2.59536e-08 4.26281e-08)
(2.93543e-11 2.1402e-08 4.01386e-08)
(-7.37458e-09 2.54887e-08 4.17454e-08)
(-3.57936e-08 3.80171e-08 3.816e-08)
(6.46243e-08 4.8607e-08 7.10411e-08)
(2.11005e-08 4.39872e-08 9.68832e-08)
(3.61848e-10 3.67652e-08 9.17602e-08)
(-1.98689e-08 4.29751e-08 9.51956e-08)
(-6.08098e-08 4.66174e-08 6.97541e-08)
(7.40428e-08 2.86569e-08 9.12215e-08)
(2.7894e-08 2.80706e-08 1.16366e-07)
(1.04007e-09 2.42222e-08 1.10827e-07)
(-2.52378e-08 2.68968e-08 1.14793e-07)
(-6.8728e-08 2.64564e-08 9.01336e-08)
(7.57652e-08 1.19626e-08 1.05334e-07)
(2.87339e-08 1.33391e-08 1.30787e-07)
(1.8141e-09 1.1394e-08 1.24741e-07)
(-2.45355e-08 1.20022e-08 1.29279e-07)
(-6.88966e-08 9.51957e-09 1.04405e-07)
(7.68697e-08 -1.11949e-09 1.1805e-07)
(2.88616e-08 1.79037e-10 1.44079e-07)
(2.63206e-09 -1.5603e-09 1.376e-07)
(-2.30261e-08 -1.32218e-09 1.42614e-07)
(-6.83391e-08 -3.81759e-09 1.17233e-07)
(8.06885e-08 -1.34421e-08 1.31755e-07)
(3.06992e-08 -1.31783e-08 1.58674e-07)
(3.48904e-09 -1.54633e-08 1.51854e-07)
(-2.31449e-08 -1.48381e-08 1.57231e-07)
(-7.04095e-08 -1.63819e-08 1.31005e-07)
(8.96476e-08 -2.99592e-08 1.47994e-07)
(3.58554e-08 -3.04766e-08 1.76425e-07)
(4.37351e-09 -3.28044e-08 1.69565e-07)
(-2.65305e-08 -3.22772e-08 1.74983e-07)
(-7.75753e-08 -3.31031e-08 1.47275e-07)
(1.04855e-07 -6.85624e-08 1.66754e-07)
(4.43732e-08 -6.79579e-08 1.98685e-07)
(5.23993e-09 -6.82266e-08 1.92796e-07)
(-3.33002e-08 -6.96661e-08 1.97261e-07)
(-9.09927e-08 -7.15643e-08 1.66056e-07)
(1.02099e-07 -1.23133e-07 1.65072e-07)
(4.94436e-08 -1.33124e-07 1.75455e-07)
(5.81656e-09 -1.30172e-07 1.71895e-07)
(-3.71998e-08 -1.33817e-07 1.74906e-07)
(-8.78741e-08 -1.24921e-07 1.64773e-07)
(3.82978e-08 2.18384e-08 7.47196e-09)
(0 0 0)
(0 0 0)
(0 0 0)
(-3.57476e-08 2.07764e-08 7.48278e-09)
(8.24659e-08 3.45761e-08 2.52097e-08)
(1.77959e-08 1.88643e-08 2.87414e-08)
(3.71425e-10 1.26962e-08 2.84554e-08)
(-1.65781e-08 1.79192e-08 2.87997e-08)
(-7.66632e-08 3.23164e-08 2.53466e-08)
(8.97635e-08 1.72286e-08 4.26451e-08)
(2.34945e-08 1.17743e-08 4.73457e-08)
(1.0007e-09 8.30071e-09 4.71562e-08)
(-2.09584e-08 1.05689e-08 4.75245e-08)
(-8.25358e-08 1.46876e-08 4.30176e-08)
(9.16417e-08 2.73542e-09 5.56037e-08)
(2.41432e-08 1.12242e-09 6.04902e-08)
(1.72385e-09 -6.492e-10 6.03021e-08)
(-2.01672e-08 -2.60528e-10 6.07805e-08)
(-8.28949e-08 -1.00678e-10 5.61893e-08)
(9.34597e-08 -8.99002e-09 6.69622e-08)
(2.42871e-08 -1.08625e-08 7.17809e-08)
(2.50332e-09 -1.24683e-08 7.14947e-08)
(-1.87496e-08 -1.23998e-08 7.21522e-08)
(-8.3057e-08 -1.21127e-08 6.77032e-08)
(9.83998e-08 -2.00165e-08 7.86088e-08)
(2.61664e-08 -2.42794e-08 8.33137e-08)
(3.33388e-09 -2.64819e-08 8.28961e-08)
(-1.89601e-08 -2.59634e-08 8.37378e-08)
(-8.62339e-08 -2.34001e-08 7.94511e-08)
(1.09147e-07 -3.41631e-08 9.14389e-08)
(3.13738e-08 -4.11208e-08 9.60433e-08)
(4.20237e-09 -4.34889e-08 9.55574e-08)
(-2.24254e-08 -4.29351e-08 9.64963e-08)
(-9.51617e-08 -3.77575e-08 9.23364e-08)
(1.27927e-07 -6.8176e-08 1.03875e-07)
(3.99192e-08 -7.33881e-08 1.08481e-07)
(5.06394e-09 -7.36388e-08 1.08125e-07)
(-2.92305e-08 -7.51066e-08 1.0894e-07)
(-1.12116e-07 -7.16242e-08 1.04785e-07)
(1.05351e-07 -1.31216e-07 1.11365e-07)
(4.50107e-08 -1.63647e-07 1.12734e-07)
(5.87673e-09 -1.58375e-07 1.1241e-07)
(-3.26593e-08 -1.63463e-07 1.13196e-07)
(-9.05158e-08 -1.32716e-07 1.12166e-07)
(3.07986e-08 1.25847e-08 7.88843e-10)
(0 0 0)
(0 0 0)
(0 0 0)
(-2.83207e-08 1.16551e-08 8.97814e-10)
(6.59504e-08 1.77192e-08 7.85407e-09)
(1.20184e-08 5.96784e-09 1.26514e-08)
(3.2974e-10 8.47223e-10 1.38372e-08)
(-1.09013e-08 5.13284e-09 1.28426e-08)
(-6.03684e-08 1.56819e-08 8.20111e-09)
(7.11964e-08 3.84509e-09 2.06123e-08)
(1.5921e-08 -3.18576e-10 2.69314e-08)
(9.13163e-10 -3.26817e-09 2.86208e-08)
(-1.35861e-08 -1.46403e-09 2.72428e-08)
(-6.43193e-08 1.44634e-09 2.11896e-08)
(7.23258e-08 -7.75094e-09 3.27134e-08)
(1.61932e-08 -9.02872e-09 3.93492e-08)
(1.59454e-09 -1.0632e-08 4.11969e-08)
(-1.25053e-08 -1.03845e-08 3.97545e-08)
(-6.40213e-08 -1.05038e-08 3.34721e-08)
(7.37968e-08 -1.75867e-08 4.34802e-08)
(1.62304e-08 -1.93474e-08 5.01483e-08)
(2.3401e-09 -2.09121e-08 5.20179e-08)
(-1.10482e-08 -2.08727e-08 5.06254e-08)
(-6.3894e-08 -2.0661e-08 4.43769e-08)
(7.86039e-08 -2.66579e-08 5.36492e-08)
(1.80297e-08 -3.09069e-08 6.02945e-08)
(3.14526e-09 -3.31158e-08 6.21394e-08)
(-1.12261e-08 -3.25869e-08 6.08209e-08)
(-6.69598e-08 -3.0017e-08 5.46403e-08)
(8.96843e-08 -3.7448e-08 6.31444e-08)
(2.32536e-08 -4.45164e-08 6.97203e-08)
(3.99657e-09 -4.69001e-08 7.15361e-08)
(-1.47366e-08 -4.63333e-08 7.02748e-08)
(-7.62111e-08 -4.10377e-08 6.41887e-08)
(1.09805e-07 -6.54151e-08 6.96957e-08)
(3.19884e-08 -7.06375e-08 7.61584e-08)
(4.84916e-09 -7.07706e-08 7.7965e-08)
(-2.17435e-08 -7.23644e-08 7.6722e-08)
(-9.44843e-08 -6.88732e-08 7.07579e-08)
(9.07888e-08 -1.22119e-07 7.26995e-08)
(3.71208e-08 -1.51089e-07 7.5256e-08)
(5.66218e-09 -1.44864e-07 7.70321e-08)
(-2.52119e-08 -1.50892e-07 7.58212e-08)
(-7.64216e-08 -1.23614e-07 7.36507e-08)
(2.63047e-08 9.05301e-09 6.31438e-10)
(0 0 0)
(0 0 0)
(0 0 0)
(-2.39286e-08 8.19922e-09 7.1754e-10)
(5.60715e-08 1.04969e-08 5.76626e-09)
(8.45909e-09 1.23161e-09 8.78751e-09)
(2.78127e-10 -3.1592e-09 9.8876e-09)
(-7.46038e-09 4.56708e-10 8.9371e-09)
(-5.07417e-08 8.61111e-09 6.04932e-09)
(6.0244e-08 -3.31709e-09 1.57251e-08)
(1.12018e-08 -6.6439e-09 1.974e-08)
(8.13924e-10 -9.19347e-09 2.12973e-08)
(-9.08099e-09 -7.72804e-09 1.99886e-08)
(-5.3709e-08 -5.5784e-09 1.61999e-08)
(6.11995e-08 -1.41993e-08 2.63306e-08)
(1.12936e-08 -1.53208e-08 3.05109e-08)
(1.45641e-09 -1.67958e-08 3.22093e-08)
(-7.89678e-09 -1.66288e-08 3.0833e-08)
(-5.33103e-08 -1.68451e-08 2.69501e-08)
(6.27124e-08 -2.27223e-08 3.61054e-08)
(1.13549e-08 -2.45032e-08 4.02419e-08)
(2.17152e-09 -2.60515e-08 4.19672e-08)
(-6.52357e-09 -2.59953e-08 4.06211e-08)
(-5.32767e-08 -2.57207e-08 3.68374e-08)
(6.76437e-08 -2.97578e-08 4.4752e-08)
(1.31873e-08 -3.40694e-08 4.88174e-08)
(2.95374e-09 -3.62973e-08 5.05341e-08)
(-6.77781e-09 -3.57283e-08 4.9238e-08)
(-5.64919e-08 -3.30683e-08 4.55652e-08)
(7.90042e-08 -3.77378e-08 5.16482e-08)
(1.84547e-08 -4.48846e-08 5.56534e-08)
(3.78871e-09 -4.73059e-08 5.7352e-08)
(-1.03601e-08 -4.66897e-08 5.60998e-08)
(-6.60206e-08 -4.13007e-08 5.25117e-08)
(9.95055e-08 -6.22272e-08 5.51916e-08)
(2.72194e-08 -6.75678e-08 5.91963e-08)
(4.63033e-09 -6.77805e-08 6.08871e-08)
(-1.74133e-08 -6.92878e-08 5.96527e-08)
(-8.46519e-08 -6.56702e-08 5.60763e-08)
(8.22696e-08 -1.15555e-07 5.61181e-08)
(3.2422e-08 -1.43077e-07 5.80325e-08)
(5.43754e-09 -1.36897e-07 5.98051e-08)
(-2.0961e-08 -1.42885e-07 5.84858e-08)
(-6.83522e-08 -1.17046e-07 5.68998e-08)
(2.39767e-08 7.74039e-09 9.57736e-10)
(0 0 0)
(0 0 0)
(0 0 0)
(-2.16804e-08 6.93696e-09 1.01828e-09)
(5.09729e-08 7.73537e-09 5.4643e-09)
(6.95991e-09 -3.82746e-10 6.89229e-09)
(2.39533e-10 -4.37076e-09 7.54352e-09)
(-6.05399e-09 -1.12076e-09 6.99965e-09)
(-4.58457e-08 5.95607e-09 5.6706e-09)
(5.46925e-08 -6.36508e-09 1.32999e-08)
(9.22253e-09 -9.32669e-09 1.5184e-08)
(7.35529e-10 -1.16538e-08 1.61069e-08)
(-7.2742e-09 -1.03635e-08 1.53674e-08)
(-4.8437e-08 -8.51738e-09 1.36547e-08)
(5.57405e-08 -1.72629e-08 2.18226e-08)
(9.31244e-09 -1.83803e-08 2.37307e-08)
(1.34422e-09 -1.97882e-08 2.47312e-08)
(-6.15378e-09 -1.96435e-08 2.39706e-08)
(-4.8192e-08 -1.98119e-08 2.22906e-08)
(5.74601e-08 -2.51512e-08 2.98412e-08)
(9.48155e-09 -2.7019e-08 3.16574e-08)
(2.03272e-09 -2.8566e-08 3.26637e-08)
(-4.94018e-09 -2.84747e-08 3.19415e-08)
(-4.84103e-08 -2.80727e-08 3.03983e-08)
(6.25854e-08 -3.09461e-08 3.66698e-08)
(1.14013e-08 -3.53294e-08 3.8399e-08)
(2.79478e-09 -3.75738e-08 3.93929e-08)
(-5.32039e-09 -3.69615e-08 3.87165e-08)
(-5.18457e-08 -3.42011e-08 3.72941e-08)
(7.40847e-08 -3.74445e-08 4.16108e-08)
(1.669e-08 -4.46222e-08 4.33101e-08)
(3.61481e-09 -4.70823e-08 4.42937e-08)
(-8.95085e-09 -4.64087e-08 4.36496e-08)
(-6.15189e-08 -4.097e-08 4.22795e-08)
(9.45507e-08 -6.03483e-08 4.38225e-08)
(2.5384e-08 -6.58026e-08 4.55904e-08)
(4.44526e-09 -6.61478e-08 4.65857e-08)
(-1.59517e-08 -6.75091e-08 4.59391e-08)
(-8.0104e-08 -6.37647e-08 4.45124e-08)
(7.84046e-08 -1.11724e-07 4.40912e-08)
(3.06332e-08 -1.38427e-07 4.50563e-08)
(5.24466e-09 -1.32534e-07 4.6156e-08)
(-1.95594e-08 -1.38231e-07 4.54002e-08)
(-6.48807e-08 -1.132e-07 4.46957e-08)
(2.27961e-08 7.21746e-09 9.59731e-10)
(0 0 0)
(0 0 0)
(0 0 0)
(-2.05531e-08 6.44897e-09 1.00034e-09)
(4.84596e-08 6.71327e-09 4.62824e-09)
(6.45684e-09 -9.57637e-10 5.22031e-09)
(2.13867e-10 -4.74937e-09 5.53989e-09)
(-5.61427e-09 -1.66978e-09 5.29434e-09)
(-4.3471e-08 5.00964e-09 4.76961e-09)
(5.20802e-08 -7.42944e-09 1.04747e-08)
(8.59825e-09 -1.02868e-08 1.12248e-08)
(6.80612e-10 -1.25125e-08 1.16744e-08)
(-6.7724e-09 -1.12888e-08 1.13535e-08)
(-4.60217e-08 -9.50034e-09 1.07225e-08)
(5.32909e-08 -1.83633e-08 1.67508e-08)
(8.75834e-09 -1.95395e-08 1.74629e-08)
(1.26268e-09 -2.09241e-08 1.79433e-08)
(-5.77392e-09 -2.07673e-08 1.7633e-08)
(-4.59873e-08 -2.08355e-08 1.70824e-08)
(5.52196e-08 -2.60064e-08 2.26845e-08)
(9.03796e-09 -2.79622e-08 2.3309e-08)
(1.92941e-09 -2.9516e-08 2.37833e-08)
(-4.71316e-09 -2.93868e-08 2.35117e-08)
(-4.64516e-08 -2.88627e-08 2.30832e-08)
(6.05028e-08 -3.12841e-08 2.76478e-08)
(1.10332e-08 -3.57155e-08 2.82054e-08)
(2.67453e-09 -3.797e-08 2.86684e-08)
(-5.20143e-09 -3.73228e-08 2.84335e-08)
(-5.00693e-08 -3.44885e-08 2.80984e-08)
(7.20415e-08 -3.72339e-08 3.10948e-08)
(1.63165e-08 -4.44064e-08 3.16482e-08)
(3.48165e-09 -4.68889e-08 3.21087e-08)
(-8.8506e-09 -4.61741e-08 3.18935e-08)
(-5.97925e-08 -4.07223e-08 3.15814e-08)
(9.23499e-08 -5.9475e-08 3.26225e-08)
(2.49195e-08 -6.49858e-08 3.32537e-08)
(4.3021e-09 -6.54252e-08 3.37324e-08)
(-1.57778e-08 -6.6678e-08 3.35065e-08)
(-7.82189e-08 -6.28634e-08 3.31275e-08)
(7.6851e-08 -1.09664e-07 3.27638e-08)
(3.01789e-08 -1.35837e-07 3.31473e-08)
(5.09395e-09 -1.30184e-07 3.37002e-08)
(-1.94093e-08 -1.35633e-07 3.33954e-08)
(-6.36371e-08 -1.11121e-07 3.32047e-08)
(2.21805e-08 6.99404e-09 7.27527e-10)
(0 0 0)
(0 0 0)
(0 0 0)
(-1.99701e-08 6.24816e-09 7.52477e-10)
(4.71937e-08 6.3433e-09 3.28653e-09)
(6.30328e-09 -1.16248e-09 3.52365e-09)
(1.97874e-10 -4.86293e-09 3.66647e-09)
(-5.50042e-09 -1.85702e-09 3.5702e-09)
(-4.2291e-08 4.68992e-09 3.37434e-09)
(5.08366e-08 -7.70133e-09 7.16556e-09)
(8.44299e-09 -1.05508e-08 7.44409e-09)
(6.45157e-10 -1.2736e-08 7.6415e-09)
(-6.69632e-09 -1.15288e-08 7.5257e-09)
(-4.49032e-08 -9.71608e-09 7.32142e-09)
(5.2185e-08 -1.85962e-08 1.12549e-08)
(8.67362e-09 -1.98335e-08 1.14902e-08)
(1.20845e-09 -2.12147e-08 1.16964e-08)
(-5.80498e-09 -2.10362e-08 1.1599e-08)
(-4.50403e-08 -2.10137e-08 1.14658e-08)
(5.42622e-08 -2.61593e-08 1.51106e-08)
(9.03137e-09 -2.81774e-08 1.5286e-08)
(1.85912e-09 -2.97388e-08 1.54848e-08)
(-4.85361e-09 -2.95791e-08 1.54165e-08)
(-4.56804e-08 -2.89673e-08 1.53665e-08)
(5.96424e-08 -3.13043e-08 1.83135e-08)
(1.10724e-08 -3.57596e-08 1.84498e-08)
(2.59137e-09 -3.80183e-08 1.86416e-08)
(-5.4126e-09 -3.73478e-08 1.85974e-08)
(-4.94146e-08 -3.44694e-08 1.86049e-08)
(7.1176e-08 -3.71403e-08 2.05182e-08)
(1.63402e-08 -4.42924e-08 2.06608e-08)
(3.38845e-09 -4.67819e-08 2.08545e-08)
(-9.06517e-09 -4.6045e-08 2.08203e-08)
(-5.91436e-08 -4.05984e-08 2.0835e-08)
(9.1336e-08 -5.91211e-08 2.15313e-08)
(2.48695e-08 -6.46431e-08 2.17322e-08)
(4.20101e-09 -6.51294e-08 2.19412e-08)
(-1.5933e-08 -6.63234e-08 2.1897e-08)
(-7.74248e-08 -6.24859e-08 2.18616e-08)
(7.62022e-08 -1.08602e-07 2.16549e-08)
(3.01168e-08 -1.34424e-07 2.17897e-08)
(4.98673e-09 -1.28908e-07 2.20386e-08)
(-1.95639e-08 -1.34211e-07 2.19509e-08)
(-6.32077e-08 -1.10042e-07 2.19429e-08)
(2.1874e-08 6.89826e-09 3.84444e-10)
(0 0 0)
(0 0 0)
(0 0 0)
(-1.9681e-08 6.16494e-09 3.96321e-10)
(4.65757e-08 6.21651e-09 1.69057e-09)
(6.25206e-09 -1.2263e-09 1.77733e-09)
(1.8918e-10 -4.88627e-09 1.83177e-09)
(-5.47079e-09 -1.91062e-09 1.79981e-09)
(-4.17192e-08 4.59163e-09 1.73258e-09)
(5.025e-08 -7.7239e-09 3.62148e-09)
(8.40704e-09 -1.05839e-08 3.71618e-09)
(6.25447e-10 -1.27542e-08 3.79001e-09)
(-6.70428e-09 -1.15479e-08 3.75578e-09)
(-4.43851e-08 -9.70586e-09 3.69653e-09)
(5.16808e-08 -1.85642e-08 5.63147e-09)
(8.68164e-09 -1.98406e-08 5.70165e-09)
(1.17768e-09 -2.12235e-08 5.77705e-09)
(-5.87852e-09 -2.10284e-08 5.75469e-09)
(-4.46246e-08 -2.09489e-08 5.73371e-09)
(5.38401e-08 -2.61049e-08 7.5195e-09)
(9.08208e-09 -2.81573e-08 7.56087e-09)
(1.81857e-09 -2.97235e-08 7.63206e-09)
(-4.9889e-09 -2.9545e-08 7.62479e-09)
(-4.53636e-08 -2.88835e-08 7.64436e-09)
(5.92685e-08 -3.12492e-08 9.08481e-09)
(1.11451e-08 -3.57138e-08 9.10922e-09)
(2.54277e-09 -3.79732e-08 9.1775e-09)
(-5.5855e-09 -3.729e-08 9.18176e-09)
(-4.91585e-08 -3.43898e-08 9.22776e-09)
(7.07881e-08 -3.7104e-08 1.01645e-08)
(1.63999e-08 -4.42379e-08 1.01946e-08)
(3.33348e-09 -4.67272e-08 1.0265e-08)
(-9.23713e-09 -4.59808e-08 1.02732e-08)
(-5.88813e-08 -4.05427e-08 1.03205e-08)
(9.08525e-08 -5.89931e-08 1.0677e-08)
(2.4884e-08 -6.4509e-08 1.07371e-08)
(4.14099e-09 -6.50131e-08 1.08157e-08)
(-1.60692e-08 -6.61817e-08 1.08185e-08)
(-7.70703e-08 -6.23425e-08 1.08402e-08)
(7.5904e-08 -1.081e-07 1.07564e-08)
(3.01159e-08 -1.33716e-07 1.07999e-08)
(4.92274e-09 -1.28263e-07 1.08946e-08)
(-1.96921e-08 -1.33498e-07 1.08793e-08)
(-6.30394e-08 -1.09529e-07 1.08985e-08)
(1.75966e-08 7.11836e-09 0)
(2.19373e-09 1.62345e-09 0)
(2.68484e-12 -6.03079e-10 0)
(-2.01426e-09 1.36232e-09 0)
(-1.59025e-08 6.34194e-09 0)
(2.93226e-08 4.22746e-09 0)
(6.23823e-09 -1.23913e-09 0)
(1.86429e-10 -4.88744e-09 0)
(-5.46379e-09 -1.92012e-09 0)
(-2.63136e-08 2.87918e-09 0)
(3.28717e-08 -8.17717e-09 0)
(8.39923e-09 -1.05778e-08 0)
(6.19141e-10 -1.27443e-08 0)
(-6.71051e-09 -1.15371e-08 0)
(-2.88805e-08 -9.8918e-09 0)
(3.37512e-08 -1.86296e-08 0)
(8.68807e-09 -1.98194e-08 0)
(1.16774e-09 -2.12033e-08 0)
(-5.9061e-09 -2.10022e-08 0)
(-2.86231e-08 -2.07058e-08 0)
(3.50907e-08 -2.64867e-08 0)
(9.10171e-09 -2.81295e-08 0)
(1.80534e-09 -2.96973e-08 0)
(-5.03607e-09 -2.95126e-08 0)
(-2.86092e-08 -2.89089e-08 0)
(3.92455e-08 -3.2522e-08 0)
(1.11711e-08 -3.56882e-08 0)
(2.52682e-09 -3.79475e-08 0)
(-5.64429e-09 -3.72604e-08 0)
(-3.12097e-08 -3.52666e-08 0)
(4.87707e-08 -3.96319e-08 0)
(1.6421e-08 -4.42211e-08 0)
(3.31533e-09 -4.67096e-08 0)
(-9.29525e-09 -4.59608e-08 0)
(-3.90274e-08 -4.26505e-08 0)
(6.51687e-08 -6.16714e-08 0)
(2.48902e-08 -6.44736e-08 0)
(4.12111e-09 -6.49818e-08 0)
(-1.61156e-08 -6.61436e-08 0)
(-5.36453e-08 -6.45979e-08 0)
(6.62581e-08 -9.91364e-08 0)
(2.99297e-08 -1.06665e-07 0)
(4.71033e-09 -1.03298e-07 0)
(-1.9941e-08 -1.07318e-07 0)
(-5.43256e-08 -1.00854e-07 0)
)
;

boundaryField
{
    interface
    {
        type            calculated;
    }
    symmetry
    {
        type            symmetry;
    }
    bottom
    {
        type            calculated;
    }
}


// ************************************************************************* //
