/*--------------------------------*- C++ -*----------------------------------*\
| =========                 |                                                 |
| \\      /  F ield         | OpenFOAM: The Open Source CFD Toolbox           |
|  \\    /   O peration     | Version:  v1912                                 |
|   \\  /    A nd           | Website:  www.openfoam.com                      |
|    \\/     M anipulation  |                                                 |
\*---------------------------------------------------------------------------*/
FoamFile
{
    version     2.0;
    format      ascii;
    class       volScalarField;
    location    "0.73/solid";
    object      sigmaHyd;
}
// * * * * * * * * * * * * * * * * * * * * * * * * * * * * * * * * * * * * * //

dimensions      [1 -1 -2 0 0 0 0];


internalField   nonuniform List<scalar> 
256
(
-716392
-381436
-375400
-679435
-1.04953e+06
-638427
-629631
-1.00291e+06
-1.08742e+06
-680986
-671708
-1.03931e+06
-1.1031e+06
-697156
-687643
-1.05396e+06
-1.13905e+06
-724084
-714395
-1.08898e+06
-1.22222e+06
-788942
-779058
-1.17122e+06
-1.43999e+06
-978878
-968036
-1.38629e+06
-2.02023e+06
-1.52609e+06
-1.50887e+06
-1.94897e+06
-371156
-116342
-115573
-349305
-588531
-259569
-256858
-559391
-620894
-299676
-296603
-590702
-634191
-316368
-313153
-603226
-659154
-334606
-331299
-627398
-720366
-377014
-373593
-687739
-903613
-522527
-518220
-868259
-1.44072e+06
-979070
-968099
-1.38649e+06
-290674
-70294.6
-69961.4
-270483
-440544
-153372
-151512
-414245
-464134
-183559
-181391
-436919
-475981
-198248
-195940
-447984
-497823
-213598
-211188
-468946
-552043
-248703
-246154
-522093
-720644
-376642
-373161
-687624
-1.22316e+06
-788655
-778528
-1.17108e+06
-269945
-66217.5
-65866.2
-250117
-396491
-131031
-129256
-370980
-415258
-155078
-153022
-388913
-425969
-167666
-165471
-398836
-446640
-181553
-179247
-418561
-498199
-213891
-211425
-468904
-659256
-333933
-330501
-626645
-1.13896e+06
-722369
-712300
-1.08711e+06
-261369
-66438.4
-66064.2
-241746
-379924
-125312
-123559
-354852
-396556
-146207
-144191
-370707
-406389
-157184
-155034
-379756
-426248
-169937
-167672
-398632
-476279
-200738
-198302
-447365
-632901
-316757
-313334
-600525
-1.09889e+06
-692998
-682927
-1.04714e+06
-256231
-66674.2
-66285.5
-236718
-371571
-123178
-121440
-346753
-387289
-142529
-140539
-361732
-396529
-152492
-150372
-370191
-415773
-164451
-162215
-388434
-464819
-194332
-191919
-436134
-618788
-308168
-304758
-586558
-1.07642e+06
-677390
-667320
-1.02471e+06
-252989
-66716.1
-66317.3
-233527
-366833
-122197
-120467
-342152
-382146
-140819
-138844
-356747
-391027
-150222
-148120
-364850
-409865
-161702
-159486
-382679
-458319
-191065
-188669
-429762
-610779
-303716
-300315
-578630
-1.06348e+06
-668805
-658737
-1.01178e+06
-251384
-66687
-66283
-231942
-364591
-121778
-120050
-339967
-379739
-140108
-138139
-354408
-388451
-149265
-147172
-362345
-407091
-160526
-158318
-379971
-455269
-189656
-187268
-426767
-607041
-301773
-298377
-574926
-1.05742e+06
-664902
-654834
-1.00574e+06
)
;

boundaryField
{
    interface
    {
        type            zeroGradient;
    }
    symmetry
    {
        type            symmetry;
    }
    bottom
    {
        type            zeroGradient;
    }
}


// ************************************************************************* //
