/*--------------------------------*- C++ -*----------------------------------*\
| =========                 |                                                 |
| \\      /  F ield         | OpenFOAM: The Open Source CFD Toolbox           |
|  \\    /   O peration     | Version:  v1912                                 |
|   \\  /    A nd           | Website:  www.openfoam.com                      |
|    \\/     M anipulation  |                                                 |
\*---------------------------------------------------------------------------*/
FoamFile
{
    version     2.0;
    format      ascii;
    class       volScalarField;
    location    "0.73/solid";
    object      T;
}
// * * * * * * * * * * * * * * * * * * * * * * * * * * * * * * * * * * * * * //

dimensions      [0 0 0 1 0 0 0];


internalField   nonuniform List<scalar> 
256
(
291.456
292.109
292.119
291.507
291.027
291.834
291.846
291.088
290.956
291.79
291.803
291.02
290.91
291.764
291.776
290.976
290.842
291.723
291.737
290.909
290.718
291.641
291.654
290.786
290.397
291.372
291.387
290.468
289.29
290.257
290.281
289.386
292.187
292.779
292.781
292.218
291.936
292.688
292.691
291.972
291.895
292.674
292.677
291.932
291.868
292.668
292.671
291.907
291.828
292.657
292.66
291.868
291.747
292.623
292.627
291.787
291.484
292.43
292.434
291.528
290.396
291.372
291.386
290.467
292.356
292.888
292.889
292.384
292.16
292.84
292.842
292.192
292.126
292.832
292.834
292.159
292.103
292.829
292.831
292.138
292.068
292.822
292.824
292.104
291.993
292.796
292.798
292.03
291.746
292.623
292.627
291.787
290.716
291.64
291.654
290.785
292.41
292.904
292.905
292.437
292.229
292.863
292.865
292.26
292.197
292.857
292.858
292.23
292.175
292.853
292.855
292.209
292.14
292.847
292.849
292.175
292.067
292.822
292.824
292.103
291.827
292.657
292.66
291.868
290.839
291.722
291.735
290.908
292.436
292.908
292.91
292.462
292.262
292.869
292.87
292.292
292.231
292.863
292.864
292.262
292.209
292.859
292.861
292.242
292.174
292.853
292.855
292.208
292.102
292.829
292.831
292.137
291.866
292.667
292.671
291.906
290.904
291.761
291.774
290.973
292.451
292.91
292.911
292.477
292.28
292.872
292.873
292.31
292.25
292.865
292.867
292.281
292.228
292.862
292.864
292.26
292.193
292.856
292.858
292.227
292.121
292.832
292.834
292.156
291.888
292.673
292.676
291.928
290.943
291.783
291.797
291.012
292.459
292.911
292.913
292.485
292.291
292.873
292.874
292.32
292.261
292.867
292.868
292.291
292.239
292.863
292.865
292.27
292.204
292.857
292.859
292.237
292.132
292.833
292.835
292.167
291.901
292.676
292.679
291.94
290.966
291.796
291.809
291.035
292.463
292.912
292.913
292.489
292.295
292.874
292.875
292.325
292.265
292.867
292.869
292.296
292.243
292.864
292.866
292.275
292.209
292.858
292.86
292.242
292.137
292.834
292.836
292.172
291.906
292.677
292.68
291.946
290.976
291.802
291.815
291.045
)
;

boundaryField
{
    interface
    {
        type            fixedValue;
        value           nonuniform List<scalar> 
192
(
290.141
289.855
289.768
289.685
289.565
289.366
288.969
287.982
290.923
290.743
290.677
290.611
290.512
290.342
289.973
288.967
291.222
291.079
291.021
290.959
290.865
290.7
290.34
289.361
291.366
291.234
291.179
291.118
291.026
290.862
290.507
289.555
291.447
291.319
291.266
291.206
291.114
290.951
290.6
289.669
291.495
291.37
291.317
291.257
291.165
291.003
290.655
289.738
291.522
291.398
291.346
291.286
291.194
291.033
290.687
289.779
291.534
291.412
291.359
291.3
291.208
291.047
290.702
289.798
290.09
289.808
289.719
289.635
289.515
289.317
288.919
287.934
290.749
290.555
290.485
290.418
290.32
290.149
289.777
288.758
290.785
290.594
290.526
290.46
290.363
290.193
289.823
288.812
290.223
289.95
289.867
289.787
289.67
289.474
289.081
288.118
290.331
290.059
289.977
289.898
289.782
289.587
289.196
288.236
291.091
290.919
290.857
290.795
290.701
290.535
290.172
289.195
291.383
291.246
291.192
291.135
291.046
290.887
290.534
289.586
291.522
291.396
291.346
291.29
291.202
291.045
290.699
289.779
291.6
291.479
291.429
291.374
291.287
291.131
290.791
289.892
291.646
291.527
291.479
291.424
291.337
291.182
290.845
289.961
291.672
291.555
291.506
291.452
291.366
291.211
290.877
290.002
291.684
291.568
291.519
291.464
291.379
291.225
290.891
290.021
287.932
288.915
289.31
289.505
289.618
289.688
289.729
289.748
288.756
289.774
290.144
290.312
290.405
290.461
290.494
290.509
288.811
289.82
290.189
290.357
290.45
290.506
290.538
290.553
288.117
289.079
289.471
289.665
289.778
289.847
289.888
289.907
)
;
    }
    symmetry
    {
        type            symmetry;
    }
    bottom
    {
        type            fixedValue;
        value           uniform 293;
    }
}


// ************************************************************************* //
