/*--------------------------------*- C++ -*----------------------------------*\
| =========                 |                                                 |
| \\      /  F ield         | OpenFOAM: The Open Source CFD Toolbox           |
|  \\    /   O peration     | Version:  v1912                                 |
|   \\  /    A nd           | Website:  www.openfoam.com                      |
|    \\/     M anipulation  |                                                 |
\*---------------------------------------------------------------------------*/
FoamFile
{
    version     2.0;
    format      ascii;
    class       volVectorField;
    location    "0.1/solid";
    object      D;
}
// * * * * * * * * * * * * * * * * * * * * * * * * * * * * * * * * * * * * * //

dimensions      [0 1 0 0 0 0 0];


internalField   nonuniform List<vector> 
256
(
(-1.52593e-09 1.3432e-08 -3.67946e-09)
(-2.18265e-09 9.88404e-09 -8.46746e-11)
(2.67864e-09 9.84723e-09 8.33507e-13)
(1.73412e-09 1.33179e-08 -3.3508e-09)
(-2.73146e-09 1.68845e-08 -1.28445e-08)
(-2.58611e-09 1.53268e-08 -8.43429e-09)
(3.99889e-09 1.51302e-08 -8.20973e-09)
(3.76172e-09 1.61853e-08 -1.20831e-08)
(-2.11828e-09 2.29034e-08 -2.21405e-08)
(-2.03899e-09 2.21527e-08 -1.8068e-08)
(4.55487e-09 2.17798e-08 -1.77351e-08)
(4.25227e-09 2.16697e-08 -2.10551e-08)
(-7.85165e-10 3.11497e-08 -3.14371e-08)
(-1.17726e-09 3.09657e-08 -2.72665e-08)
(5.03119e-09 3.04234e-08 -2.68459e-08)
(4.26254e-09 2.94299e-08 -3.00863e-08)
(1.65811e-10 4.11079e-08 -4.10981e-08)
(-4.43514e-10 4.18987e-08 -3.64274e-08)
(5.86374e-09 4.11932e-08 -3.59312e-08)
(4.88458e-09 3.89264e-08 -3.95183e-08)
(-1.17507e-09 5.31952e-08 -5.1927e-08)
(-6.81651e-10 5.50974e-08 -4.65937e-08)
(7.89051e-09 5.42281e-08 -4.60291e-08)
(8.01096e-09 5.05555e-08 -5.01428e-08)
(-7.59841e-09 6.89491e-08 -6.49274e-08)
(-2.68018e-09 6.97849e-08 -5.9136e-08)
(1.1907e-08 6.8757e-08 -5.85033e-08)
(1.63816e-08 6.58559e-08 -6.29532e-08)
(-1.85056e-08 7.96947e-08 -7.82073e-08)
(-4.7992e-09 7.37556e-08 -7.26901e-08)
(1.62596e-08 7.26515e-08 -7.19887e-08)
(2.93191e-08 7.63278e-08 -7.60646e-08)
(5.59989e-09 1.1954e-08 -6.14133e-09)
(-6.63954e-10 6.85012e-09 -6.93813e-09)
(9.31403e-10 6.79074e-09 -6.83519e-09)
(-5.45228e-09 1.1793e-08 -5.83438e-09)
(8.10535e-09 1.97621e-08 -1.53491e-08)
(7.95564e-11 1.73048e-08 -1.6926e-08)
(8.32203e-10 1.70705e-08 -1.66824e-08)
(-7.34689e-09 1.90034e-08 -1.46397e-08)
(8.89223e-09 2.77824e-08 -2.43873e-08)
(7.23047e-10 2.67973e-08 -2.62577e-08)
(1.08906e-09 2.63929e-08 -2.59143e-08)
(-7.22939e-09 2.65088e-08 -2.33855e-08)
(9.93158e-09 3.682e-08 -3.36022e-08)
(1.42933e-09 3.65949e-08 -3.54223e-08)
(1.54999e-09 3.60304e-08 -3.49995e-08)
(-7.0941e-09 3.50795e-08 -3.23619e-08)
(1.08086e-08 4.6877e-08 -4.3171e-08)
(2.04952e-09 4.763e-08 -4.47761e-08)
(2.34814e-09 4.69105e-08 -4.42837e-08)
(-6.54289e-09 4.46914e-08 -4.17209e-08)
(9.65835e-09 5.79666e-08 -5.3273e-08)
(1.78473e-09 5.98392e-08 -5.4645e-08)
(4.27208e-09 5.8965e-08 -5.40892e-08)
(-3.73588e-09 5.5343e-08 -5.16323e-08)
(3.58523e-09 6.98225e-08 -6.28839e-08)
(-1.74748e-10 7.06324e-08 -6.41264e-08)
(8.13645e-09 6.96174e-08 -6.35167e-08)
(4.16295e-09 6.67837e-08 -6.108e-08)
(-7.14834e-09 7.1849e-08 -6.74476e-08)
(-2.23766e-09 6.56256e-08 -6.87098e-08)
(1.2339e-08 6.45778e-08 -6.80763e-08)
(1.68029e-08 6.86195e-08 -6.55635e-08)
(9.12166e-09 1.17277e-08 -4.08269e-09)
(6.66908e-10 5.93657e-09 -5.48185e-09)
(-5.16802e-10 5.88317e-09 -5.40731e-09)
(-9.05714e-09 1.16166e-08 -3.8724e-09)
(1.46242e-08 2.07138e-08 -1.21784e-08)
(2.55322e-09 1.75937e-08 -1.461e-08)
(-1.96368e-09 1.73705e-08 -1.4425e-08)
(-1.41233e-08 2.00293e-08 -1.16568e-08)
(1.58847e-08 2.97112e-08 -2.03835e-08)
(3.37009e-09 2.8497e-08 -2.30588e-08)
(-2.05671e-09 2.81087e-08 -2.27915e-08)
(-1.46486e-08 2.85231e-08 -1.96213e-08)
(1.6678e-08 3.90361e-08 -2.87754e-08)
(3.94762e-09 3.88399e-08 -3.14022e-08)
(-1.62114e-09 3.82962e-08 -3.10672e-08)
(-1.44191e-08 3.73885e-08 -2.78101e-08)
(1.7329e-08 4.84065e-08 -3.72415e-08)
(4.45162e-09 4.9253e-08 -3.97348e-08)
(-8.42043e-10 4.85592e-08 -3.93396e-08)
(-1.37755e-08 4.63213e-08 -3.60943e-08)
(1.6103e-08 5.74376e-08 -4.52255e-08)
(4.1531e-09 5.93905e-08 -4.75926e-08)
(9.96314e-10 5.85486e-08 -4.71438e-08)
(-1.10121e-08 5.49268e-08 -4.39154e-08)
(1.01353e-08 6.56609e-08 -5.1031e-08)
(2.23918e-09 6.65856e-08 -5.33253e-08)
(4.70915e-09 6.56135e-08 -5.28368e-08)
(-3.32913e-09 6.27568e-08 -4.95937e-08)
(-2.35417e-10 6.43374e-08 -5.16791e-08)
(2.28408e-10 5.85478e-08 -5.40104e-08)
(8.76386e-09 5.75534e-08 -5.35153e-08)
(8.8415e-09 6.12569e-08 -5.02025e-08)
(9.91098e-09 1.17296e-08 -3.21721e-09)
(1.08687e-09 5.70854e-09 -4.0006e-09)
(-9.92798e-10 5.66537e-09 -3.95078e-09)
(-9.92149e-09 1.16744e-08 -3.07759e-09)
(1.65125e-08 2.08922e-08 -1.00693e-08)
(3.43032e-09 1.74769e-08 -1.14368e-08)
(-3.03343e-09 1.72795e-08 -1.13077e-08)
(-1.62211e-08 2.03082e-08 -9.70552e-09)
(1.8104e-08 2.99791e-08 -1.70748e-08)
(4.34982e-09 2.86573e-08 -1.85683e-08)
(-3.36786e-09 2.83025e-08 -1.8376e-08)
(-1.72097e-08 2.89096e-08 -1.65263e-08)
(1.8767e-08 3.89954e-08 -2.41208e-08)
(4.84423e-09 3.88517e-08 -2.55617e-08)
(-2.97855e-09 3.83453e-08 -2.53151e-08)
(-1.6976e-08 3.74735e-08 -2.34093e-08)
(1.91622e-08 4.73977e-08 -3.08953e-08)
(5.22879e-09 4.83532e-08 -3.22251e-08)
(-2.19699e-09 4.76996e-08 -3.19294e-08)
(-1.61924e-08 4.54424e-08 -3.00348e-08)
(1.77308e-08 5.47768e-08 -3.66282e-08)
(4.8523e-09 5.68374e-08 -3.78483e-08)
(-3.85804e-10 5.60391e-08 -3.75096e-08)
(-1.33287e-08 5.24019e-08 -3.56354e-08)
(1.17575e-08 6.11913e-08 -3.99767e-08)
(2.94275e-09 6.2309e-08 -4.11311e-08)
(3.2267e-09 6.13839e-08 -4.07631e-08)
(-5.73731e-09 5.84299e-08 -3.88857e-08)
(1.65007e-09 5.92136e-08 -3.95454e-08)
(9.50739e-10 5.40372e-08 -4.07666e-08)
(7.17197e-09 5.3089e-08 -4.03983e-08)
(6.07726e-09 5.62722e-08 -3.84337e-08)
(9.78467e-09 1.16205e-08 -2.59655e-09)
(1.07638e-09 5.59199e-09 -2.89594e-09)
(-1.01163e-09 5.5579e-09 -2.86322e-09)
(-9.84677e-09 1.16091e-08 -2.50577e-09)
(1.64328e-08 2.06345e-08 -8.08016e-09)
(3.43172e-09 1.71674e-08 -8.5666e-09)
(-3.1519e-09 1.69948e-08 -8.4794e-09)
(-1.62863e-08 2.01378e-08 -7.83547e-09)
(1.80732e-08 2.94294e-08 -1.36405e-08)
(4.34258e-09 2.81058e-08 -1.41393e-08)
(-3.57809e-09 2.77842e-08 -1.40064e-08)
(-1.74202e-08 2.84681e-08 -1.32623e-08)
(1.86427e-08 3.79074e-08 -1.90946e-08)
(4.77355e-09 3.78272e-08 -1.95349e-08)
(-3.22589e-09 3.7358e-08 -1.93612e-08)
(-1.71908e-08 3.65028e-08 -1.85937e-08)
(1.88474e-08 4.5488e-08 -2.4087e-08)
(5.06474e-09 4.65365e-08 -2.44391e-08)
(-2.44581e-09 4.59222e-08 -2.42276e-08)
(-1.63104e-08 4.3654e-08 -2.34713e-08)
(1.72435e-08 5.19305e-08 -2.79748e-08)
(4.61376e-09 5.40872e-08 -2.82407e-08)
(-6.47864e-10 5.333e-08 -2.79964e-08)
(-1.33617e-08 4.96798e-08 -2.72568e-08)
(1.12504e-08 5.76996e-08 -2.99287e-08)
(2.69028e-09 5.89874e-08 -3.01458e-08)
(2.89649e-09 5.81041e-08 -2.988e-08)
(-5.83259e-09 5.50645e-08 -2.91366e-08)
(1.28653e-09 5.57295e-08 -2.93476e-08)
(6.91126e-10 5.10261e-08 -2.96224e-08)
(6.76909e-09 5.01182e-08 -2.93588e-08)
(5.75859e-09 5.29115e-08 -2.85447e-08)
(9.53379e-09 1.1456e-08 -1.93408e-09)
(9.86506e-10 5.48781e-09 -2.01721e-09)
(-9.37581e-10 5.46056e-09 -1.99662e-09)
(-9.62727e-09 1.14752e-08 -1.87782e-09)
(1.59558e-08 2.02042e-08 -5.92682e-09)
(3.23181e-09 1.67841e-08 -6.01833e-09)
(-3.02219e-09 1.66306e-08 -5.9625e-09)
(-1.59e-08 1.97718e-08 -5.7715e-09)
(1.75044e-08 2.86276e-08 -9.91792e-09)
(4.08328e-09 2.73509e-08 -9.96936e-09)
(-3.4566e-09 2.70554e-08 -9.88285e-09)
(-1.70077e-08 2.77491e-08 -9.67323e-09)
(1.79847e-08 3.66141e-08 -1.37418e-08)
(4.45949e-09 3.65951e-08 -1.37383e-08)
(-3.12165e-09 3.61556e-08 -1.36235e-08)
(-1.6759e-08 3.53015e-08 -1.34122e-08)
(1.80682e-08 4.36472e-08 -1.71091e-08)
(4.68768e-09 4.47645e-08 -1.70434e-08)
(-2.34959e-09 4.41818e-08 -1.69021e-08)
(-1.58276e-08 4.19095e-08 -1.66986e-08)
(1.63595e-08 4.96432e-08 -1.9591e-08)
(4.18553e-09 5.18679e-08 -1.94689e-08)
(-5.68209e-10 5.11434e-08 -1.93044e-08)
(-1.28416e-08 4.7491e-08 -1.91077e-08)
(1.03546e-08 5.52311e-08 -2.07281e-08)
(2.24642e-09 5.66284e-08 -2.0577e-08)
(2.92687e-09 5.57784e-08 -2.03978e-08)
(-5.3654e-09 5.26962e-08 -2.01926e-08)
(4.64888e-10 5.33437e-08 -2.0251e-08)
(2.32409e-10 4.89196e-08 -2.01379e-08)
(6.75007e-09 4.80442e-08 -1.99614e-08)
(6.08785e-09 5.06255e-08 -1.97103e-08)
(9.36241e-09 1.13138e-08 -1.19569e-09)
(9.23685e-10 5.40117e-09 -1.20978e-09)
(-8.82799e-10 5.37837e-09 -1.19845e-09)
(-9.47332e-09 1.13518e-08 -1.16513e-09)
(1.55985e-08 1.9813e-08 -3.61784e-09)
(3.07952e-09 1.64507e-08 -3.60137e-09)
(-2.9091e-09 1.63096e-08 -3.57029e-09)
(-1.55944e-08 1.94218e-08 -3.53209e-09)
(1.70489e-08 2.79341e-08 -6.00728e-09)
(3.87659e-09 2.67069e-08 -5.95065e-09)
(-3.33028e-09 2.64289e-08 -5.90198e-09)
(-1.6644e-08 2.71102e-08 -5.87041e-09)
(1.74576e-08 3.5582e-08 -8.25758e-09)
(4.21186e-09 3.56097e-08 -8.16272e-09)
(-3.00034e-09 3.51904e-08 -8.09748e-09)
(-1.63686e-08 3.43314e-08 -8.07108e-09)
(1.74699e-08 4.23047e-08 -1.01905e-08)
(4.40147e-09 4.34661e-08 -1.00592e-08)
(-2.2367e-09 4.2905e-08 -9.97817e-09)
(-1.54124e-08 4.06325e-08 -9.95591e-09)
(1.57064e-08 4.81055e-08 -1.15706e-08)
(3.86932e-09 5.03703e-08 -1.14089e-08)
(-4.71388e-10 4.96683e-08 -1.1314e-08)
(-1.24174e-08 4.60209e-08 -1.12924e-08)
(9.69679e-09 5.36535e-08 -1.21704e-08)
(1.91861e-09 5.51082e-08 -1.19947e-08)
(2.99031e-09 5.42813e-08 -1.18912e-08)
(-4.98131e-09 5.11878e-08 -1.1861e-08)
(-1.53575e-10 5.18278e-08 -1.18687e-08)
(-1.07374e-10 4.75408e-08 -1.17134e-08)
(6.78044e-09 4.66881e-08 -1.16121e-08)
(6.38805e-09 4.91792e-08 -1.15572e-08)
(9.28432e-09 1.12349e-08 -4.04611e-10)
(8.96151e-10 5.3515e-09 -4.05092e-10)
(-8.58592e-10 5.33089e-09 -4.01477e-10)
(-9.403e-09 1.1282e-08 -3.94936e-10)
(1.54321e-08 1.95894e-08 -1.21597e-09)
(3.00964e-09 1.62605e-08 -1.20212e-09)
(-2.8567e-09 1.61256e-08 -1.19215e-09)
(-1.54514e-08 1.92183e-08 -1.18859e-09)
(1.68295e-08 2.75465e-08 -2.01027e-09)
(3.7782e-09 2.63477e-08 -1.98098e-09)
(-3.26885e-09 2.60784e-08 -1.96528e-09)
(-1.64671e-08 2.67495e-08 -1.96627e-09)
(1.71996e-08 3.50269e-08 -2.75168e-09)
(4.09202e-09 3.50793e-08 -2.70886e-09)
(-2.93983e-09 3.46701e-08 -2.68771e-09)
(-1.61749e-08 3.38072e-08 -2.69136e-09)
(1.71786e-08 4.16123e-08 -3.38103e-09)
(4.26308e-09 4.27951e-08 -3.32621e-09)
(-2.18109e-09 4.22449e-08 -3.29984e-09)
(-1.52085e-08 3.99732e-08 -3.30475e-09)
(1.53916e-08 4.73399e-08 -3.82398e-09)
(3.71704e-09 4.96228e-08 -3.7597e-09)
(-4.25296e-10 4.89322e-08 -3.72874e-09)
(-1.22134e-08 4.52897e-08 -3.73318e-09)
(9.38062e-09 5.28821e-08 -4.01187e-09)
(1.76024e-09 5.43601e-08 -3.94359e-09)
(3.01935e-09 5.3545e-08 -3.90978e-09)
(-4.79894e-09 5.04519e-08 -3.9107e-09)
(-4.51783e-10 5.10881e-08 -3.90927e-09)
(-2.7187e-10 4.68542e-08 -3.84731e-09)
(6.79228e-09 4.60132e-08 -3.81428e-09)
(6.52942e-09 4.84755e-08 -3.8075e-09)
)
;

boundaryField
{
    interface
    {
        type            solidTraction;
        traction        nonuniform List<vector> 
192
(
(83.3616 -0.0697238 -5.71729)
(85.0736 0.18087 -7.09791)
(85.5659 0.527682 -7.11754)
(86.0235 0.866881 -6.96234)
(85.5622 1.23131 -6.68732)
(86.454 1.92745 -6.32341)
(83.142 2.38536 -5.62003)
(87.2696 4.98657 -4.98324)
(78.8005 0.0339616 -3.05084)
(79.6528 0.295356 -3.86452)
(79.943 0.652666 -3.84111)
(80.3939 1.03906 -3.70687)
(79.8996 1.45962 -3.49636)
(81.162 2.26997 -3.2269)
(77.8229 2.78034 -2.78425)
(83.1476 5.62504 -2.38878)
(83.1454 0.0450864 -2.51999)
(84.0442 0.345182 -3.17133)
(84.3334 0.755742 -3.15143)
(84.7754 1.20183 -3.03923)
(84.0923 1.69249 -2.86403)
(85.2692 2.61955 -2.63499)
(81.1827 3.22343 -2.28395)
(86.4836 6.33227 -1.93979)
(82.358 0.0799584 -1.67642)
(83.056 0.404742 -2.13212)
(83.2594 0.845201 -2.10992)
(83.6821 1.32791 -2.0211)
(82.9527 1.8613 -1.88903)
(84.2291 2.8501 -1.72047)
(80.0296 3.49559 -1.48388)
(85.6968 6.70407 -1.25388)
(83.3078 0.093883 -1.23135)
(83.9997 0.442087 -1.56392)
(84.1801 0.912195 -1.54738)
(84.5904 1.42521 -1.48089)
(83.7973 1.99326 -1.38263)
(85.0448 3.0275 -1.25666)
(80.6229 3.70905 -1.08689)
(86.2801 6.99143 -0.91526)
(83.3919 0.105998 -0.811412)
(84.042 0.470905 -1.03353)
(84.1909 0.961663 -1.02118)
(84.5888 1.49529 -0.975015)
(83.7657 2.0867 -0.908006)
(85.015 3.14911 -0.822658)
(80.5079 3.85263 -0.711829)
(86.2335 7.17874 -0.599245)
(83.5703 0.112747 -0.46791)
(84.213 0.488878 -0.596468)
(84.3494 0.993562 -0.589261)
(84.7414 1.54048 -0.562189)
(83.8994 2.14682 -0.523421)
(85.1409 3.22636 -0.473468)
(80.5703 3.94375 -0.410866)
(86.3089 7.29687 -0.344756)
(83.6238 0.116385 -0.153228)
(84.2586 0.497887 -0.195666)
(84.3885 1.00928 -0.193246)
(84.7768 1.56244 -0.184165)
(83.9302 2.17623 -0.171415)
(85.1654 3.26331 -0.154649)
(80.575 3.98813 -0.13458)
(86.3124 7.35372 -0.11212)
(9.40426 0.407719 33.5775)
(11.8188 0.356678 29.31)
(11.9381 0.243113 28.6411)
(11.8277 0.242887 29.288)
(11.63 0.268022 30.8199)
(11.3943 0.343152 33.4706)
(11.0165 0.364769 37.0106)
(10.9002 0.487307 41.1346)
(7.78568 0.137308 47.7508)
(10.0181 0.128744 47.0802)
(10.1087 0.0778924 47.0379)
(10.017 0.0613251 47.2523)
(9.88753 0.0518043 47.7122)
(9.75052 0.0608976 48.4847)
(9.56944 0.0616222 49.3525)
(9.61054 0.0884306 50.3316)
(8.05806 0.0493084 42.8203)
(10.3492 0.0198715 42.3893)
(10.4551 -0.0429916 42.3724)
(10.3576 -0.0969938 42.592)
(10.2096 -0.153327 43.1135)
(10.036 -0.210194 43.8624)
(9.80461 -0.258606 44.9633)
(9.76286 -0.280183 46.0953)
(9.30743 -0.0153749 44.7558)
(11.8643 -0.066313 44.5955)
(11.9848 -0.144254 44.5778)
(11.8604 -0.226647 44.6362)
(11.6491 -0.313538 44.9108)
(11.3878 -0.416775 45.1204)
(10.972 -0.493382 45.7281)
(10.823 -0.602329 46.0867)
(-10.7155 0.359241 5.42339)
(-5.80335 0.00221909 6.84091)
(-4.93934 -0.519898 6.84757)
(-4.98362 -0.926942 6.70291)
(-6.37387 -1.33781 6.46629)
(-6.66753 -2.03291 6.18325)
(-11.3043 -2.36424 5.59067)
(-0.941358 -5.26988 5.2876)
(-29.7822 0.0101176 2.39023)
(-28.8323 -0.271737 3.18526)
(-28.5805 -0.669988 3.14368)
(-28.1737 -1.06379 3.02795)
(-28.4426 -1.47198 2.87827)
(-26.3428 -2.222 2.72083)
(-28.3695 -2.40899 2.43378)
(-11.219 -5.57461 2.38973)
(-28.6389 -0.053214 2.27232)
(-27.7987 -0.359791 2.95297)
(-27.4605 -0.774244 2.93543)
(-26.8909 -1.20389 2.83705)
(-26.9788 -1.65625 2.69702)
(-24.3167 -2.48988 2.5254)
(-26.2254 -2.69551 2.25743)
(-6.43909 -6.1692 2.0704)
(-31.9437 -0.0945202 1.54739)
(-31.3607 -0.424649 2.0401)
(-31.0381 -0.859228 2.02248)
(-30.3143 -1.31243 1.94366)
(-30.1102 -1.79114 1.83446)
(-26.7676 -2.66165 1.70139)
(-28.1213 -2.85154 1.51847)
(-5.88105 -6.45645 1.39211)
(-32.349 -0.106987 1.16953)
(-31.762 -0.459815 1.52879)
(-31.378 -0.919023 1.51752)
(-30.5354 -1.39469 1.45928)
(-30.1654 -1.89865 1.37705)
(-26.492 -2.79865 1.27331)
(-27.6568 -2.99304 1.13771)
(-4.1209 -6.69657 1.02545)
(-32.9423 -0.114458 0.787946)
(-32.362 -0.484226 1.02937)
(-31.9417 -0.962629 1.02105)
(-31.0212 -1.45501 0.980367)
(-30.5298 -1.97744 0.923249)
(-26.6266 -2.89526 0.850752)
(-27.6116 -3.09136 0.760787)
(-3.12408 -6.85591 0.68349)
(-33.1888 -0.118347 0.457807)
(-32.5982 -0.499208 0.597198)
(-32.1456 -0.990395 0.592405)
(-31.1708 -1.49367 0.568637)
(-30.5989 -2.02825 0.535606)
(-26.5605 -2.95676 0.492658)
(-27.4424 -3.1548 0.442067)
(-2.39709 -6.95711 0.394436)
(-33.306 -0.120434 0.150876)
(-32.7119 -0.50661 0.196883)
(-32.2432 -1.00401 0.195268)
(-31.2436 -1.51245 0.187278)
(-30.629 -2.05338 0.176381)
(-26.5343 -2.98606 0.161746)
(-27.3522 -3.18631 0.145694)
(-2.05444 -7.00657 0.128693)
(10.9053 -41.031 -0.474394)
(11.0255 -36.8378 -0.353405)
(11.4092 -33.1846 -0.329178)
(11.6542 -30.3651 -0.244329)
(11.8638 -28.4937 -0.196455)
(12.0081 -27.0996 -0.135251)
(12.1021 -26.2476 -0.081862)
(12.1485 -25.8381 -0.0277826)
(9.61319 -50.2252 -0.0725435)
(9.57419 -49.1814 -0.047285)
(9.75785 -48.2178 -0.0435681)
(9.89733 -47.3257 -0.0278036)
(10.0247 -46.6883 -0.0241424)
(10.1168 -46.1789 -0.0156551)
(10.1785 -45.8564 -0.00905216)
(10.2095 -45.6829 -0.00267943)
(9.76449 -45.9849 0.298016)
(9.80752 -44.7818 0.2752)
(10.0409 -43.5785 0.230266)
(10.2169 -42.6983 0.178853)
(10.3646 -42.0004 0.132728)
(10.4707 -41.4966 0.0914102)
(10.5405 -41.1727 0.0529382)
(10.5747 -41.0186 0.0171913)
(10.821 -45.976 0.621257)
(10.971 -45.5436 0.511568)
(11.3894 -44.8372 0.438618)
(11.6556 -44.5027 0.339343)
(11.8725 -44.089 0.259949)
(12.0233 -43.8182 0.180528)
(12.121 -43.6259 0.107064)
(12.1688 -43.5237 0.0357431)
)
;
        pressure        uniform 0;
        secondOrder     false;
        setEffectiveTraction false;
        relaxationFactor 1;
        value           nonuniform List<vector> 
192
(
(6.61526e-08 1.23677e-08 -1.90567e-09)
(6.35581e-08 1.67364e-08 -9.97015e-09)
(6.50306e-08 2.339e-08 -1.9152e-08)
(6.74684e-08 3.17208e-08 -2.85628e-08)
(7.01166e-08 4.10106e-08 -3.83317e-08)
(7.18575e-08 5.12544e-08 -4.92074e-08)
(7.06613e-08 6.46168e-08 -6.21672e-08)
(5.88892e-08 7.7051e-08 -7.53435e-08)
(7.19552e-08 1.53803e-08 -3.47995e-09)
(7.32579e-08 2.05852e-08 -1.10108e-08)
(7.47327e-08 2.8239e-08 -1.98872e-08)
(7.68969e-08 3.72992e-08 -2.9237e-08)
(7.96327e-08 4.68088e-08 -3.88808e-08)
(8.19051e-08 5.61611e-08 -4.8954e-08)
(8.17752e-08 6.56212e-08 -5.84509e-08)
(7.11126e-08 6.93107e-08 -6.28804e-08)
(6.96788e-08 1.76641e-08 -3.00534e-09)
(7.42532e-08 2.24046e-08 -1.00772e-08)
(7.62001e-08 3.02248e-08 -1.80811e-08)
(7.80706e-08 3.93973e-08 -2.65671e-08)
(8.05047e-08 4.8263e-08 -3.51536e-08)
(8.25802e-08 5.56395e-08 -4.32079e-08)
(8.24003e-08 6.15767e-08 -4.89883e-08)
(7.28072e-08 6.18479e-08 -4.94799e-08)
(6.73177e-08 1.83355e-08 -3.05175e-09)
(7.30252e-08 2.29404e-08 -9.61751e-09)
(7.53203e-08 3.05428e-08 -1.6528e-08)
(7.70391e-08 3.92601e-08 -2.36299e-08)
(7.91654e-08 4.71389e-08 -3.0516e-08)
(8.09481e-08 5.2926e-08 -3.63434e-08)
(8.06425e-08 5.71716e-08 -3.96981e-08)
(7.16424e-08 5.67098e-08 -3.91652e-08)
(6.55693e-08 1.81749e-08 -2.69106e-09)
(7.13422e-08 2.27066e-08 -8.21958e-09)
(7.3689e-08 2.9982e-08 -1.37907e-08)
(7.52982e-08 3.81012e-08 -1.92905e-08)
(7.72e-08 4.51385e-08 -2.43608e-08)
(7.87578e-08 5.00317e-08 -2.83179e-08)
(7.83622e-08 5.37109e-08 -3.02797e-08)
(6.96707e-08 5.31948e-08 -2.96441e-08)
(6.44398e-08 1.78284e-08 -2.03978e-09)
(7.00044e-08 2.21969e-08 -6.13557e-09)
(7.2256e-08 2.91349e-08 -1.01742e-08)
(7.37626e-08 3.67552e-08 -1.40382e-08)
(7.55211e-08 4.32412e-08 -1.74536e-08)
(7.69435e-08 4.77152e-08 -1.99754e-08)
(7.64966e-08 5.1258e-08 -2.11166e-08)
(6.79615e-08 5.07873e-08 -2.06111e-08)
(6.37986e-08 1.7554e-08 -1.25813e-09)
(6.91888e-08 2.17346e-08 -3.74888e-09)
(7.13381e-08 2.8399e-08 -6.1761e-09)
(7.27637e-08 3.56875e-08 -8.45395e-09)
(7.44378e-08 4.18672e-08 -1.0413e-08)
(7.57887e-08 4.61627e-08 -1.18126e-08)
(7.53161e-08 4.96891e-08 -1.2414e-08)
(6.68603e-08 4.92616e-08 -1.2098e-08)
(6.35141e-08 1.7414e-08 -4.24159e-10)
(6.88212e-08 2.14757e-08 -1.25761e-09)
(7.0915e-08 2.79885e-08 -2.06515e-09)
(7.22971e-08 3.51143e-08 -2.8162e-09)
(7.39317e-08 4.11606e-08 -3.4539e-09)
(7.52519e-08 4.53908e-08 -3.9027e-09)
(7.47688e-08 4.89219e-08 -4.09094e-09)
(6.63476e-08 4.85191e-08 -3.98384e-09)
(-1.51253e-09 9.3011e-09 6.90557e-08)
(-3.06409e-09 1.22693e-08 5.8629e-08)
(-2.5924e-09 1.82553e-08 5.01276e-08)
(-1.1777e-09 2.64104e-08 4.18098e-08)
(-4.77546e-11 3.59855e-08 3.37287e-08)
(-1.19965e-09 4.72379e-08 2.59534e-08)
(-7.52882e-09 6.23791e-08 1.83554e-08)
(-1.85564e-08 7.65757e-08 4.79663e-09)
(-1.26124e-09 7.75431e-09 7.25898e-08)
(-1.42573e-09 1.0831e-08 6.35021e-08)
(-9.35957e-10 1.74446e-08 5.46224e-08)
(-2.77693e-11 2.63758e-08 4.65094e-08)
(8.49874e-10 3.70669e-08 3.92047e-08)
(7.94466e-10 4.94203e-08 3.25835e-08)
(-1.07254e-09 6.32609e-08 2.62531e-08)
(-3.24292e-09 7.05926e-08 1.28181e-08)
(1.86349e-09 7.79502e-09 7.22565e-08)
(3.08841e-09 1.06962e-08 6.32631e-08)
(3.80985e-09 1.71208e-08 5.44798e-08)
(4.32797e-09 2.58744e-08 4.64516e-08)
(5.09273e-09 3.63974e-08 3.92221e-08)
(7.00491e-09 4.85851e-08 3.26723e-08)
(1.09543e-08 6.22671e-08 2.64211e-08)
(1.54176e-08 6.9502e-08 1.3133e-08)
(1.81739e-09 9.45938e-09 6.81781e-08)
(4.32545e-09 1.17592e-08 5.8083e-08)
(5.0627e-09 1.71689e-08 4.98875e-08)
(5.07856e-09 2.48141e-08 4.18322e-08)
(5.59678e-09 3.39122e-08 3.39815e-08)
(8.60076e-09 4.46967e-08 2.64156e-08)
(1.69378e-08 5.93754e-08 1.90188e-08)
(3.00494e-08 7.3242e-08 5.77385e-09)
(-6.64357e-08 1.1944e-08 -1.51162e-09)
(-6.2978e-08 1.55558e-08 -9.02296e-09)
(-6.33188e-08 2.15444e-08 -1.77783e-08)
(-6.43745e-08 2.92718e-08 -2.6838e-08)
(-6.54076e-08 3.79891e-08 -3.63042e-08)
(-6.53441e-08 4.7681e-08 -4.69102e-08)
(-6.23144e-08 6.05285e-08 -5.96195e-08)
(-4.92215e-08 7.26258e-08 -7.25695e-08)
(-7.17205e-08 1.49929e-08 -3.13614e-09)
(-7.23514e-08 1.94477e-08 -1.01679e-08)
(-7.28835e-08 2.64455e-08 -1.86597e-08)
(-7.38203e-08 3.49077e-08 -2.7691e-08)
(-7.50652e-08 4.38517e-08 -3.70554e-08)
(-7.56312e-08 5.26662e-08 -4.68761e-08)
(-7.37501e-08 6.16487e-08 -5.61519e-08)
(-6.18965e-08 6.50774e-08 -6.04437e-08)
(-6.95081e-08 1.74118e-08 -2.7547e-09)
(-7.35646e-08 2.14271e-08 -9.43773e-09)
(-7.47319e-08 2.8597e-08 -1.71257e-08)
(-7.55233e-08 3.71701e-08 -2.53391e-08)
(-7.65961e-08 4.54693e-08 -3.36815e-08)
(-7.70788e-08 5.23149e-08 -4.15168e-08)
(-7.52456e-08 5.7793e-08 -4.71183e-08)
(-6.45297e-08 5.78147e-08 -4.75207e-08)
(-6.72978e-08 1.821e-08 -2.87991e-09)
(-7.26127e-08 2.21302e-08 -9.16443e-09)
(-7.42559e-08 2.90982e-08 -1.58331e-08)
(-7.50193e-08 3.7219e-08 -2.27161e-08)
(-7.58993e-08 4.45303e-08 -2.94008e-08)
(-7.61936e-08 4.97878e-08 -3.50477e-08)
(-7.43264e-08 5.3578e-08 -3.82596e-08)
(-6.42673e-08 5.2862e-08 -3.76627e-08)
(-6.56771e-08 1.81424e-08 -2.57912e-09)
(-7.11473e-08 2.20311e-08 -7.91548e-09)
(-7.29362e-08 2.86941e-08 -1.33125e-08)
(-7.36861e-08 3.62252e-08 -1.86476e-08)
(-7.44347e-08 4.26965e-08 -2.35622e-08)
(-7.45913e-08 4.70599e-08 -2.73783e-08)
(-7.27132e-08 5.0284e-08 -2.92294e-08)
(-6.30237e-08 4.95107e-08 -2.85471e-08)
(-6.46376e-08 1.7857e-08 -1.97105e-09)
(-6.99575e-08 2.16169e-08 -5.9443e-09)
(-7.17157e-08 2.79637e-08 -9.8671e-09)
(-7.24319e-08 3.50063e-08 -1.36176e-08)
(-7.31066e-08 4.09299e-08 -1.69229e-08)
(-7.31949e-08 4.48751e-08 -1.93436e-08)
(-7.13284e-08 4.79634e-08 -2.04053e-08)
(-6.18478e-08 4.72352e-08 -1.98675e-08)
(-6.40524e-08 1.76188e-08 -1.22112e-09)
(-6.9232e-08 2.12145e-08 -3.64415e-09)
(-7.09274e-08 2.73037e-08 -6.00547e-09)
(-7.16067e-08 3.40233e-08 -8.21702e-09)
(-7.22428e-08 3.96444e-08 -1.01106e-08)
(-7.2305e-08 4.34127e-08 -1.14493e-08)
(-7.04565e-08 4.6486e-08 -1.20026e-08)
(-6.10935e-08 4.58019e-08 -1.16675e-08)
(-6.37947e-08 1.74956e-08 -4.12491e-10)
(-6.89068e-08 2.09843e-08 -1.22431e-09)
(-7.05655e-08 2.69303e-08 -2.01048e-09)
(-7.1223e-08 3.34923e-08 -2.73974e-09)
(-7.18424e-08 3.89826e-08 -3.35569e-09)
(-7.1897e-08 4.26869e-08 -3.78415e-09)
(-7.00606e-08 4.57657e-08 -3.95627e-09)
(-6.07523e-08 4.5107e-08 -3.84282e-09)
(-1.83409e-08 -3.31187e-09 -7.78055e-08)
(-6.85987e-09 -1.14369e-08 -6.36083e-08)
(-3.09408e-11 -1.35466e-08 -4.85203e-08)
(1.69412e-09 -1.56303e-08 -3.73935e-08)
(1.19691e-09 -1.75951e-08 -2.78801e-08)
(2.94599e-10 -1.91845e-08 -1.92756e-08)
(-3.62991e-10 -2.02795e-08 -1.13049e-08)
(-6.75869e-10 -2.08335e-08 -3.72437e-09)
(-3.03687e-09 -1.17544e-08 -7.22391e-08)
(-4.18322e-10 -1.97648e-08 -6.49079e-08)
(1.92596e-09 -2.06299e-08 -5.11133e-08)
(2.48346e-09 -2.16067e-08 -3.88862e-08)
(2.09554e-09 -2.28156e-08 -2.8343e-08)
(1.5589e-09 -2.39886e-08 -1.92666e-08)
(1.17917e-09 -2.48912e-08 -1.11971e-08)
(9.98495e-10 -2.53748e-08 -3.67567e-09)
(1.56181e-08 -1.24731e-08 -7.1545e-08)
(1.1592e-08 -2.03502e-08 -6.43017e-08)
(8.0882e-09 -2.11524e-08 -5.06431e-08)
(6.61484e-09 -2.20819e-08 -3.85395e-08)
(6.29938e-09 -2.32525e-08 -2.80976e-08)
(6.32526e-09 -2.43956e-08 -1.91039e-08)
(6.3725e-09 -2.52777e-08 -1.11043e-08)
(6.38863e-09 -2.57507e-08 -3.64555e-09)
(3.02527e-08 -5.51487e-09 -7.56803e-08)
(1.75653e-08 -1.33603e-08 -6.17957e-08)
(9.63851e-09 -1.53146e-08 -4.71156e-08)
(6.98844e-09 -1.72603e-08 -3.63473e-08)
(6.76258e-09 -1.91061e-08 -2.7133e-08)
(7.13957e-09 -2.06012e-08 -1.87772e-08)
(7.45587e-09 -2.16307e-08 -1.10197e-08)
(7.60003e-09 -2.21511e-08 -3.63157e-09)
)
;
        gradient        nonuniform List<vector> 
192
(
(5.41428e-06 -8.51504e-08 1.41903e-07)
(5.30316e-06 -1.18469e-08 2.29947e-07)
(5.37191e-06 3.89293e-08 2.3908e-07)
(5.46029e-06 4.56887e-08 2.29943e-07)
(5.59606e-06 -7.78692e-09 2.21308e-07)
(5.84261e-06 -1.55265e-07 2.17567e-07)
(6.26078e-06 -3.46584e-07 2.20814e-07)
(6.19158e-06 -2.11497e-07 2.2911e-07)
(5.30843e-06 2.74103e-07 2.1291e-07)
(5.2122e-06 6.5848e-08 3.47061e-07)
(5.26723e-06 3.65294e-08 3.60007e-07)
(5.35723e-06 3.8336e-08 3.49213e-07)
(5.50593e-06 -5.4504e-09 3.43216e-07)
(5.77974e-06 -1.44443e-07 3.45518e-07)
(6.2552e-06 -3.36103e-07 3.54636e-07)
(6.26088e-06 -2.03064e-07 3.6537e-07)
(4.84457e-06 4.74915e-07 8.61876e-08)
(4.77032e-06 1.35262e-07 1.681e-07)
(4.82523e-06 4.10822e-08 1.84193e-07)
(4.91141e-06 2.88972e-08 1.76667e-07)
(5.05406e-06 -1.1482e-08 1.67034e-07)
(5.31818e-06 -1.43845e-07 1.61413e-07)
(5.7812e-06 -3.26732e-07 1.63415e-07)
(5.84341e-06 -1.99157e-07 1.75941e-07)
(4.59254e-06 5.28467e-07 1.32373e-08)
(4.52102e-06 1.63862e-07 3.6144e-08)
(4.5773e-06 4.5097e-08 4.37417e-08)
(4.66177e-06 2.11765e-08 3.92672e-08)
(4.80025e-06 -2.07039e-08 3.03426e-08)
(5.05738e-06 -1.48062e-07 2.2785e-08)
(5.5108e-06 -3.21574e-07 2.22811e-08)
(5.59939e-06 -2.00305e-07 3.04208e-08)
(4.46277e-06 5.24348e-07 -7.56043e-09)
(4.39275e-06 1.65773e-07 -1.11534e-08)
(4.44926e-06 4.42059e-08 -1.20128e-08)
(4.53243e-06 1.54982e-08 -1.5665e-08)
(4.66821e-06 -2.79642e-08 -2.18998e-08)
(4.92114e-06 -1.51907e-07 -2.74439e-08)
(5.36894e-06 -3.19096e-07 -2.80746e-08)
(5.47073e-06 -2.02776e-07 -2.37171e-08)
(4.39248e-06 5.09791e-07 -8.45618e-09)
(4.32388e-06 1.59415e-07 -1.67e-08)
(4.38013e-06 4.05857e-08 -2.04992e-08)
(4.46223e-06 1.12895e-08 -2.37165e-08)
(4.59624e-06 -3.24828e-08 -2.75628e-08)
(4.84672e-06 -1.54236e-07 -3.07539e-08)
(5.29136e-06 -3.17847e-07 -3.10823e-08)
(5.39973e-06 -2.04517e-07 -2.88112e-08)
(4.3549e-06 4.99217e-07 -4.99567e-09)
(4.28722e-06 1.53733e-07 -1.04831e-08)
(4.34314e-06 3.71896e-08 -1.35055e-08)
(4.42448e-06 8.43456e-09 -1.571e-08)
(4.55743e-06 -3.50016e-08 -1.77996e-08)
(4.80658e-06 -1.55426e-07 -1.93643e-08)
(5.24954e-06 -3.17154e-07 -1.94855e-08)
(5.36111e-06 -2.05294e-07 -1.83389e-08)
(4.33838e-06 4.94326e-07 -1.56384e-09)
(4.27113e-06 1.50907e-07 -3.33148e-09)
(4.32683e-06 3.53589e-08 -4.39046e-09)
(4.4078e-06 6.99547e-09 -5.16223e-09)
(4.54025e-06 -3.6137e-08 -5.82955e-09)
(4.78882e-06 -1.55922e-07 -6.29761e-09)
(5.23106e-06 -3.16822e-07 -6.32542e-09)
(5.34395e-06 -2.05521e-07 -5.96603e-09)
(1.07224e-09 -3.30475e-07 5.81881e-06)
(-2.66111e-08 -3.69216e-07 5.71788e-06)
(-3.79303e-08 -3.71849e-07 5.78144e-06)
(-3.14026e-08 -3.79149e-07 5.85975e-06)
(-1.70852e-08 -4.09795e-07 5.98614e-06)
(-1.96613e-09 -4.76582e-07 6.23043e-06)
(5.56736e-09 -5.25603e-07 6.66262e-06)
(-4.06482e-09 -2.49519e-07 6.64032e-06)
(7.37127e-08 -1.70378e-07 5.81396e-06)
(9.28302e-08 -3.59664e-07 5.75491e-06)
(8.82424e-08 -3.76644e-07 5.81523e-06)
(9.1959e-08 -3.67188e-07 5.90208e-06)
(1.03471e-07 -3.86543e-07 6.05057e-06)
(1.18089e-07 -4.54172e-07 6.33417e-06)
(1.28611e-07 -5.21926e-07 6.83113e-06)
(1.24502e-07 -2.5304e-07 6.84065e-06)
(-6.52123e-08 -1.64177e-07 5.78045e-06)
(-7.28382e-08 -3.54719e-07 5.71782e-06)
(-5.9602e-08 -3.72723e-07 5.7772e-06)
(-5.62573e-08 -3.63922e-07 5.8638e-06)
(-6.1681e-08 -3.83666e-07 6.01227e-06)
(-7.08476e-08 -4.51445e-07 6.29611e-06)
(-7.6213e-08 -5.19195e-07 6.79395e-06)
(-6.73599e-08 -2.51963e-07 6.80973e-06)
(6.6615e-09 -3.08678e-07 5.72231e-06)
(4.50982e-08 -3.54086e-07 5.61329e-06)
(6.4834e-08 -3.60066e-07 5.6754e-06)
(6.52819e-08 -3.69268e-07 5.75348e-06)
(5.69765e-08 -4.01134e-07 5.87999e-06)
(4.71837e-08 -4.68704e-07 6.12467e-06)
(4.44965e-08 -5.18442e-07 6.55777e-06)
(5.84307e-08 -2.46863e-07 6.54707e-06)
(-5.45359e-06 -1.09911e-07 1.47134e-07)
(-5.33918e-06 -5.0361e-08 2.44815e-07)
(-5.40569e-06 -1.00197e-08 2.62144e-07)
(-5.49096e-06 -1.26539e-08 2.59866e-07)
(-5.62337e-06 -7.49813e-08 2.57126e-07)
(-5.8684e-06 -2.29963e-07 2.58613e-07)
(-6.29568e-06 -4.26188e-07 2.66699e-07)
(-6.28325e-06 -2.96158e-07 2.7961e-07)
(-5.30146e-06 2.55986e-07 2.15859e-07)
(-5.20036e-06 3.55413e-08 3.57745e-07)
(-5.25233e-06 -5.0609e-09 3.78062e-07)
(-5.3381e-06 -1.37396e-08 3.73676e-07)
(-5.48178e-06 -6.71791e-08 3.73243e-07)
(-5.75162e-06 -2.14141e-07 3.80501e-07)
(-6.23304e-06 -4.10803e-07 3.9425e-07)
(-6.29596e-06 -2.83362e-07 4.09585e-07)
(-4.83608e-06 4.63611e-07 8.9416e-08)
(-4.7553e-06 1.11827e-07 1.77525e-07)
(-4.80666e-06 5.90954e-09 1.99646e-07)
(-4.88833e-06 -1.74725e-08 1.97676e-07)
(-5.02565e-06 -6.81566e-08 1.93028e-07)
(-5.28534e-06 -2.08956e-07 1.91892e-07)
(-5.75332e-06 -3.97104e-07 1.98037e-07)
(-5.8697e-06 -2.7537e-07 2.14542e-07)
(-4.5901e-06 5.22854e-07 1.58143e-08)
(-4.51133e-06 1.45762e-07 4.32878e-08)
(-4.56369e-06 1.509e-08 5.54608e-08)
(-4.64347e-06 -2.03577e-08 5.54601e-08)
(-4.77655e-06 -7.29631e-08 5.07232e-08)
(-5.02919e-06 -2.09133e-07 4.7016e-08)
(-5.48713e-06 -3.88153e-07 5.00909e-08)
(-5.62756e-06 -2.7282e-07 6.1678e-08)
(-4.46643e-06 5.22663e-07 -5.86828e-09)
(-4.38888e-06 1.51467e-07 -6.40092e-09)
(-4.44128e-06 1.80813e-08 -4.01889e-09)
(-4.51963e-06 -2.22101e-08 -4.31812e-09)
(-4.64994e-06 -7.66007e-08 -7.27806e-09)
(-4.89836e-06 -2.09588e-07 -9.72462e-09)
(-5.35045e-06 -3.82442e-07 -7.42182e-09)
(-5.50259e-06 -2.72068e-07 -1.97073e-10)
(-4.40082e-06 5.10547e-07 -7.45791e-09)
(-4.3246e-06 1.47606e-07 -1.38237e-08)
(-4.37664e-06 1.71725e-08 -1.55099e-08)
(-4.45383e-06 -2.36169e-08 -1.64304e-08)
(-4.58232e-06 -7.83696e-08 -1.79476e-08)
(-4.82826e-06 -2.09276e-07 -1.88741e-08)
(-5.27704e-06 -3.78626e-07 -1.70143e-08)
(-5.43485e-06 -2.7122e-07 -1.25788e-08)
(-4.36633e-06 5.01357e-07 -4.4791e-09)
(-4.29101e-06 1.43412e-07 -8.9641e-09)
(-4.34267e-06 1.54745e-08 -1.08043e-08)
(-4.41905e-06 -2.46479e-08 -1.16752e-08)
(-4.54643e-06 -7.90445e-08 -1.2374e-08)
(-4.79101e-06 -2.08655e-07 -1.2557e-08)