/*--------------------------------*- C++ -*----------------------------------*\
| =========                 |                                                 |
| \\      /  F ield         | OpenFOAM: The Open Source CFD Toolbox           |
|  \\    /   O peration     | Version:  v1912                                 |
|   \\  /    A nd           | Website:  www.openfoam.com                      |
|    \\/     M anipulation  |                                                 |
\*---------------------------------------------------------------------------*/
FoamFile
{
    version     2.0;
    format      ascii;
    class       volScalarField;
    location    "0.1/solid";
    object      epsilonEq;
}
// * * * * * * * * * * * * * * * * * * * * * * * * * * * * * * * * * * * * * //

dimensions      [0 0 0 0 0 0 0];


internalField   nonuniform List<scalar> 
256
(
2.30647e-06
2.24264e-06
2.22887e-06
2.28594e-06
1.98949e-06
2.1615e-06
2.14425e-06
1.96307e-06
2.07252e-06
2.20023e-06
2.1826e-06
2.04725e-06
2.15427e-06
2.25337e-06
2.23591e-06
2.12988e-06
2.24962e-06
2.33794e-06
2.32068e-06
2.22542e-06
2.39754e-06
2.47665e-06
2.45957e-06
2.37346e-06
2.47451e-06
2.60315e-06
2.58654e-06
2.45477e-06
3.09599e-07
2.69752e-06
2.67954e-06
2.7078e-07
2.11263e-06
5.09588e-07
5.06383e-07
2.10202e-06
1.97098e-06
4.09338e-07
4.05442e-07
1.95852e-06
2.00399e-06
3.74241e-07
3.70737e-07
1.9912e-06
2.05835e-06
3.87143e-07
3.83971e-07
2.0443e-06
2.13449e-06
4.18432e-07
4.15372e-07
2.11859e-06
2.24586e-06
3.96404e-07
3.93542e-07
2.22866e-06
2.33245e-06
2.11777e-07
2.09999e-07
2.31977e-06
2.47511e-06
2.60343e-06
2.58715e-06
2.45643e-06
2.00305e-06
4.58913e-07
4.55656e-07
1.99288e-06
1.9199e-06
4.96051e-07
4.92478e-07
1.90529e-06
1.95752e-06
4.91089e-07
4.87751e-07
1.94199e-06
2.00485e-06
4.94497e-07
4.91241e-07
1.98782e-06
2.0704e-06
5.04909e-07
5.01573e-07
2.05138e-06
2.16712e-06
4.70195e-07
4.67033e-07
2.14668e-06
2.24712e-06
3.94319e-07
3.92413e-07
2.23067e-06
2.39848e-06
2.47651e-06
2.46007e-06
2.37679e-06
1.91809e-06
4.36729e-07
4.34397e-07
1.91198e-06
1.84476e-06
5.23578e-07
5.20811e-07
1.83307e-06
1.88666e-06
5.35906e-07
5.33099e-07
1.87355e-06
1.93005e-06
5.35957e-07
5.33129e-07
1.91523e-06
1.98702e-06
5.36398e-07
5.33496e-07
1.97019e-06
2.07182e-06
4.9588e-07
4.93226e-07
2.05361e-06
2.13862e-06
4.10963e-07
4.09623e-07
2.12432e-06
2.25385e-06
2.3381e-06
2.32186e-06
2.23387e-06
1.86804e-06
4.14142e-07
4.12712e-07
1.86575e-06
1.79606e-06
5.08081e-07
5.0615e-07
1.78776e-06
1.83833e-06
5.23026e-07
5.20908e-07
1.8283e-06
1.87901e-06
5.19831e-07
5.17647e-07
1.8671e-06
1.93079e-06
5.13754e-07
5.11513e-07
1.91681e-06
2.00867e-06
4.6614e-07
4.6418e-07
1.9933e-06
2.06836e-06
3.67014e-07
3.66426e-07
2.05682e-06
2.17084e-06
2.25695e-06
2.24092e-06
2.15289e-06
1.83625e-06
3.94408e-07
3.93643e-07
1.83681e-06
1.76425e-06
4.84433e-07
4.83132e-07
1.75864e-06
1.80535e-06
4.96416e-07
4.94861e-07
1.79786e-06
1.84405e-06
4.90349e-07
4.88708e-07
1.83457e-06
1.89291e-06
4.80933e-07
4.79228e-07
1.88129e-06
1.96725e-06
4.2935e-07
4.27915e-07
1.95417e-06
2.02364e-06
3.22248e-07
3.22229e-07
2.01431e-06
2.12145e-06
2.21309e-06
2.19722e-06
2.10509e-06
1.81685e-06
3.79801e-07
3.79472e-07
1.81924e-06
1.74477e-06
4.66007e-07
4.6513e-07
1.74094e-06
1.78473e-06
4.75113e-07
4.73952e-07
1.77895e-06
1.82215e-06
4.67327e-07
4.66068e-07
1.81432e-06
1.86948e-06
4.56771e-07
4.55428e-07
1.85944e-06
1.94219e-06
4.03851e-07
4.02753e-07
1.93062e-06
1.9971e-06
2.9294e-07
2.93289e-07
1.98923e-06
2.0922e-06
2.19058e-06
2.17481e-06
2.0769e-06
1.8076e-06
3.71976e-07
3.71865e-07
1.81088e-06
1.73552e-06
4.56455e-07
4.55797e-07
1.73257e-06
1.77487e-06
4.64203e-07
4.63248e-07
1.76996e-06
1.81169e-06
4.55746e-07
4.54685e-07
1.80468e-06
1.85836e-06
4.44977e-07
4.43817e-07
1.84911e-06
1.93044e-06
3.91794e-07
3.90863e-07
1.91963e-06
1.98479e-06
2.79328e-07
2.79859e-07
1.97764e-06
2.07837e-06
2.18097e-06
2.16525e-06
2.06359e-06
)
;

boundaryField
{
    interface
    {
        type            calculated;
        value           nonuniform List<scalar> 
192
(
3.49742e-06
3.18067e-06
3.27705e-06
3.37491e-06
3.49912e-06
3.71059e-06
3.93343e-06
2.06403e-06
3.77552e-06
3.5929e-06
3.64361e-06
3.72349e-06
3.84515e-06
4.05908e-06
4.35999e-06
3.93384e-06
3.48741e-06
3.34312e-06
3.39418e-06
3.4679e-06
3.57931e-06
3.77654e-06
4.0608e-06
3.7117e-06
3.31228e-06
3.1713e-06
3.2241e-06
3.29425e-06
3.39788e-06
3.58273e-06
3.85099e-06
3.50422e-06
3.22118e-06
3.08187e-06
3.13447e-06
3.20197e-06
3.30076e-06
3.47851e-06
3.73817e-06
3.39356e-06
3.16946e-06
3.03207e-06
3.08391e-06
3.14949e-06
3.24535e-06
3.41927e-06
3.67463e-06
3.33085e-06
3.14017e-06
3.00416e-06
3.05533e-06
3.11968e-06
3.21392e-06
3.3859e-06
3.63917e-06
3.29496e-06
3.12674e-06
2.9914e-06
3.04221e-06
3.10598e-06
3.1995e-06
3.37069e-06
3.6231e-06
3.27831e-06
3.71092e-06
3.41152e-06
3.5029e-06
3.59336e-06
3.71075e-06
3.919e-06
4.1537e-06
2.46009e-06
4.08043e-06
3.96383e-06
4.0269e-06
4.10829e-06
4.23793e-06
4.47443e-06
4.80878e-06
4.35505e-06
4.05525e-06
3.93441e-06
3.99672e-06
4.07808e-06
4.20781e-06
4.44449e-06
4.77948e-06
4.32962e-06
3.64712e-06
3.33754e-06
3.42963e-06
3.52125e-06
3.63939e-06
3.84822e-06
4.08478e-06
2.38894e-06
3.50551e-06
3.18493e-06
3.28094e-06
3.37776e-06
3.5003e-06
3.71089e-06
3.94183e-06
2.15221e-06
3.76232e-06
3.57517e-06
3.62441e-06
3.70163e-06
3.81986e-06
4.0311e-06
4.3374e-06
3.94308e-06
3.47418e-06
3.32287e-06
3.37182e-06
3.44258e-06
3.55033e-06
3.74459e-06
4.03342e-06
3.71401e-06
3.30468e-06
3.1555e-06
3.20566e-06
3.27262e-06
3.37254e-06
3.55442e-06
3.82698e-06
3.50893e-06
3.21896e-06
3.07094e-06
3.12061e-06
3.18475e-06
3.27974e-06
3.45449e-06
3.71831e-06
3.40168e-06
3.17131e-06
3.02501e-06
3.07377e-06
3.13585e-06
3.22785e-06
3.39871e-06
3.65811e-06
3.34184e-06
3.14468e-06
2.99967e-06
3.0477e-06
3.10849e-06
3.19879e-06
3.36767e-06
3.6249e-06
3.30791e-06
3.13256e-06
2.98819e-06
3.03583e-06
3.09601e-06
3.18556e-06
3.3536e-06
3.60994e-06
3.29225e-06
2.46036e-06
4.15419e-06
3.9199e-06
3.71487e-06
3.60953e-06
3.5518e-06
3.5193e-06
3.50427e-06
4.35513e-06
4.80888e-06
4.47447e-06
4.23935e-06
4.11603e-06
4.05196e-06
4.01932e-06
4.0054e-06
4.32973e-06
4.77985e-06
4.44506e-06
4.21007e-06
4.087e-06
4.02315e-06
3.99068e-06
3.97684e-06
2.38939e-06
4.08617e-06
3.85118e-06
3.64716e-06
3.54295e-06
3.48615e-06
3.45428e-06
3.43956e-06
)
;
    }
    symmetry
    {
        type            symmetry;
    }
    bottom
    {
        type            calculated;
        value           nonuniform List<scalar> 
32
(
2.61732e-06
2.26367e-06
2.14119e-06
2.05885e-06
2.00886e-06
1.97619e-06
1.95608e-06
1.94647e-06
2.36118e-06
5.74313e-07
4.73228e-07
4.35699e-07
4.10157e-07
3.90829e-07
3.77052e-07
3.69687e-07
2.3488e-06
5.71268e-07
4.70246e-07
4.33945e-07
4.09467e-07
3.90888e-07
3.77594e-07
3.70472e-07
2.60164e-06
2.25469e-06
2.13403e-06
2.05665e-06
2.01099e-06
1.98145e-06
1.96332e-06
1.95467e-06
)
;
    }
}


// ************************************************************************* //
