/*--------------------------------*- C++ -*----------------------------------*\
| =========                 |                                                 |
| \\      /  F ield         | OpenFOAM: The Open Source CFD Toolbox           |
|  \\    /   O peration     | Version:  v1912                                 |
|   \\  /    A nd           | Website:  www.openfoam.com                      |
|    \\/     M anipulation  |                                                 |
\*---------------------------------------------------------------------------*/
FoamFile
{
    version     2.0;
    format      ascii;
    class       volSymmTensorField;
    location    "0.1/solid";
    object      epsilon;
}
// * * * * * * * * * * * * * * * * * * * * * * * * * * * * * * * * * * * * * //

dimensions      [0 0 0 0 0 0 0];


internalField   nonuniform List<symmTensor> 
256
(
(-2.72028e-06 -5.67663e-08 7.14623e-08 6.0633e-07 -9.74011e-08 -2.95864e-06)
(8.40915e-08 -8.35357e-08 3.35617e-08 5.04217e-07 -7.29343e-08 -3.04405e-06)
(7.83355e-08 1.01113e-07 -3.38305e-08 4.99548e-07 -7.16095e-08 -3.02695e-06)
(-2.74568e-06 6.21869e-08 -7.02621e-08 5.90063e-07 -9.2418e-08 -2.91083e-06)
(-2.64867e-06 -1.85382e-08 1.01636e-07 1.89427e-07 -6.35299e-08 -2.90903e-06)
(1.34607e-07 -1.61061e-08 4.97966e-08 2.45372e-07 -7.01367e-08 -3.04729e-06)
(1.26957e-07 2.73471e-08 -4.99459e-08 2.38652e-07 -6.92774e-08 -3.02837e-06)
(-2.67433e-06 2.31423e-08 -9.98911e-08 1.67036e-07 -6.03397e-08 -2.85778e-06)
(-2.68437e-06 2.22312e-09 1.00543e-07 2.85305e-07 -4.41735e-08 -2.93566e-06)
(1.33463e-07 2.85258e-09 4.96128e-08 3.12777e-07 -4.77153e-08 -3.07141e-06)
(1.25825e-07 5.4931e-09 -4.96286e-08 3.05864e-07 -4.70497e-08 -3.05218e-06)
(-2.70889e-06 1.40177e-09 -9.86883e-08 2.64893e-07 -4.16246e-08 -2.88431e-06)
(-2.73798e-06 9.57781e-09 9.92376e-08 3.6409e-07 -3.8086e-08 -2.97318e-06)
(1.16327e-07 8.69109e-09 4.89882e-08 3.9492e-07 -3.5505e-08 -3.11415e-06)
(1.08796e-07 -2.26839e-09 -4.89457e-08 3.88268e-07 -3.491e-08 -3.09497e-06)
(-2.76085e-06 -6.77478e-09 -9.73253e-08 3.45134e-07 -3.58199e-08 -2.92225e-06)
(-2.81022e-06 5.9551e-09 1.02079e-07 4.40909e-07 -4.47601e-08 -3.03453e-06)
(1.13959e-07 5.80915e-09 5.07316e-08 4.82636e-07 -3.93227e-08 -3.19226e-06)
(1.06562e-07 -1.12952e-09 -5.06447e-08 4.76095e-07 -3.87423e-08 -3.17318e-06)
(-2.83127e-06 -3.92941e-09 -1.00108e-07 4.22511e-07 -4.26308e-08 -2.98404e-06)
(-2.91143e-06 -1.98037e-08 1.07766e-07 5.56825e-07 -7.14334e-08 -3.14213e-06)
(1.81312e-07 -1.20374e-08 5.41205e-08 5.57725e-07 -6.61256e-08 -3.32811e-06)
(1.73852e-07 1.50131e-08 -5.39634e-08 5.51276e-07 -6.54914e-08 -3.30926e-06)
(-2.93179e-06 2.07536e-08 -1.05749e-07 5.3859e-07 -6.92986e-08 -3.09213e-06)
(-3.03203e-06 -7.8301e-08 1.13155e-07 5.2999e-07 -1.2267e-07 -3.29044e-06)
(3.90108e-07 -4.30965e-08 5.71427e-08 3.73164e-07 -1.22007e-07 -3.51537e-06)
(3.81236e-07 4.44008e-08 -5.68245e-08 3.68467e-07 -1.21194e-07 -3.49724e-06)
(-3.05835e-06 7.75226e-08 -1.11136e-07 5.15446e-07 -1.20329e-07 -3.24142e-06)
(-2.82166e-06 -1.12295e-07 1.12484e-07 -3.10535e-06 -1.4084e-07 -3.10496e-06)
(6.95304e-07 -5.63758e-08 5.66765e-08 -3.34099e-06 -1.44561e-07 -3.34072e-06)
(6.82365e-07 5.64179e-08 -5.61117e-08 -3.32709e-06 -1.43726e-07 -3.32662e-06)
(-2.88043e-06 1.1077e-07 -1.10626e-07 -3.06427e-06 -1.38795e-07 -3.06352e-06)
(-2.77949e-06 1.74879e-08 4.52804e-08 6.34321e-07 -2.31948e-07 -8.06462e-09)
(-9.33697e-08 -5.74764e-08 2.15571e-08 4.83099e-07 -2.78116e-07 -1.07943e-07)
(-9.57665e-08 6.70653e-08 -2.0917e-08 4.77224e-07 -2.74817e-07 -1.08163e-07)
(-2.7784e-06 -1.39722e-08 -4.39397e-08 6.1593e-07 -2.21753e-07 -1.04321e-08)
(-2.76662e-06 -8.11108e-09 7.1022e-08 3.16569e-07 -1.44165e-07 1.33216e-08)
(-1.45463e-07 -1.30461e-08 3.80594e-08 3.98943e-07 -1.70527e-07 -1.23513e-07)
(-1.48529e-07 1.85629e-08 -3.67626e-08 3.92043e-07 -1.68389e-07 -1.24306e-07)
(-2.76376e-06 1.04441e-08 -6.89864e-08 2.94314e-07 -1.37071e-07 8.52726e-09)
(-2.797e-06 -7.21569e-10 7.1323e-08 3.41159e-07 -1.14453e-07 3.51393e-08)
(-1.56063e-07 -3.97441e-10 3.88199e-08 3.85802e-07 -1.21521e-07 -9.98174e-08)
(-1.59049e-07 4.29287e-09 -3.73936e-08 3.79198e-07 -1.19881e-07 -1.01127e-07)
(-2.79253e-06 2.42131e-09 -6.92049e-08 3.21521e-07 -1.08688e-07 2.86763e-08)
(-2.84866e-06 7.3281e-09 6.91266e-08 3.81891e-07 -1.08974e-07 5.32333e-08)
(-1.67632e-07 5.36809e-09 3.72758e-08 4.16655e-07 -1.06442e-07 -8.2713e-08)
(-1.70469e-07 -2.56317e-09 -3.5919e-08 4.10353e-07 -1.04965e-07 -8.44263e-08)
(-2.84193e-06 -6.07853e-09 -6.70221e-08 3.63654e-07 -1.03768e-07 4.55255e-08)
(-2.92815e-06 6.16083e-09 6.97763e-08 4.22932e-07 -1.23723e-07 7.71312e-08)
(-1.69209e-07 3.8899e-09 3.78246e-08 4.64887e-07 -1.18683e-07 -6.61482e-08)
(-1.71848e-07 -2.1647e-09 -3.65053e-08 4.58692e-07 -1.17237e-07 -6.8168e-08)
(-2.91871e-06 -5.40353e-09 -6.76625e-08 4.0527e-07 -1.18755e-07 6.84795e-08)
(-3.04734e-06 -1.7397e-08 7.26814e-08 4.58911e-07 -1.54705e-07 1.34028e-07)
(-1.07725e-07 -1.22594e-08 4.01853e-08 4.60048e-07 -1.50572e-07 -1.99772e-08)
(-1.10412e-07 1.29206e-08 -3.88149e-08 4.54137e-07 -1.49126e-07 -2.22938e-08)
(-3.03597e-06 1.73031e-08 -7.05369e-08 4.41845e-07 -1.49878e-07 1.24548e-07)
(-3.2028e-06 -7.59419e-08 7.62525e-08 2.77648e-07 -1.74628e-07 2.77928e-07)
(9.10244e-08 -4.22749e-08 4.28649e-08 1.15727e-07 -1.72641e-07 1.16216e-07)
(8.67539e-08 4.21817e-08 -4.15148e-08 1.12256e-07 -1.71306e-07 1.13329e-07)
(-3.19599e-06 7.43503e-08 -7.41782e-08 2.6553e-07 -1.70303e-07 2.6719e-07)
(-3.03222e-06 -1.13035e-07 7.87362e-08 -3.29091e-06 -1.22425e-07 5.30564e-07)
(3.89746e-07 -5.69551e-08 4.39889e-08 -3.51575e-06 -1.21874e-07 3.73593e-07)
(3.80812e-07 5.70258e-08 -4.34941e-08 -3.49791e-06 -1.21085e-07 3.69467e-07)
(-3.0587e-06 1.11223e-07 -7.72515e-08 -3.24247e-06 -1.20188e-07 5.17242e-07)
(-2.59138e-06 6.0819e-08 7.57236e-09 6.4883e-07 -1.64854e-07 5.84823e-08)
(-1.92769e-07 -2.62434e-08 4.262e-09 4.70605e-07 -2.12334e-07 5.87505e-08)
(-1.94481e-07 3.19957e-08 -3.14752e-09 4.65073e-07 -2.09577e-07 5.76882e-08)
(-2.58885e-06 -5.85673e-08 -6.98903e-09 6.32918e-07 -1.56479e-07 5.51359e-08)
(-2.62658e-06 2.61291e-09 1.77306e-08 3.59672e-07 -1.51707e-07 1.05595e-07)
(-3.31758e-07 -6.40187e-09 1.10416e-08 4.51208e-07 -1.74049e-07 1.09783e-07)
(-3.33531e-07 8.95732e-09 -9.12462e-09 4.44511e-07 -1.71752e-07 1.07495e-07)
(-2.62084e-06 -1.36949e-09 -1.66787e-08 3.3813e-07 -1.44441e-07 9.86829e-08)
(-2.66291e-06 -1.87534e-09 1.9316e-08 3.66445e-07 -1.44003e-07 1.46249e-07)
(-3.58828e-07 -2.08138e-09 1.21875e-08 4.24924e-07 -1.49322e-07 1.53788e-07)
(-3.60374e-07 3.68708e-09 -1.01935e-08 4.18515e-07 -1.47325e-07 1.50766e-07)
(-2.65517e-06 2.66363e-09 -1.81888e-08 3.47184e-07 -1.37525e-07 1.37184e-07)
(-2.71031e-06 5.25661e-09 1.79193e-08 3.73905e-07 -1.46827e-07 1.89628e-07)
(-3.65983e-07 3.41645e-09 1.12311e-08 4.15121e-07 -1.44192e-07 1.97213e-07)
(-3.67335e-07 -2.36708e-09 -9.36431e-09 4.09011e-07 -1.42331e-07 1.93687e-07)
(-2.70013e-06 -4.71457e-09 -1.68284e-08 3.55963e-07 -1.40791e-07 1.79052e-07)
(-2.78458e-06 5.58627e-09 1.68448e-08 3.68029e-07 -1.59294e-07 2.45514e-07)
(-3.6342e-07 3.58217e-09 1.0812e-08 4.11012e-07 -1.54672e-07 2.51021e-07)
(-3.64543e-07 -3.14319e-09 -9.04637e-09 4.05048e-07 -1.52875e-07 2.47086e-07)
(-2.77149e-06 -5.34924e-09 -1.57859e-08 3.50767e-07 -1.53544e-07 2.33721e-07)
(-2.89809e-06 -1.64463e-08 1.67009e-08 3.45088e-07 -1.69793e-07 3.32895e-07)
(-3.02135e-07 -1.10137e-08 1.14937e-08 3.46652e-07 -1.65923e-07 3.35934e-07)
(-3.03305e-07 1.08753e-08 -9.80719e-09 3.41085e-07 -1.64231e-07 3.31592e-07)
(-2.88284e-06 1.60073e-08 -1.56723e-08 3.28711e-07 -1.64404e-07 3.19939e-07)
(-3.04852e-06 -7.24541e-08 1.79266e-08 1.37997e-07 -1.50848e-07 4.58144e-07)
(-1.08523e-07 -3.97205e-08 1.31167e-08 -1.68534e-08 -1.47412e-07 4.59906e-07)
(-1.11366e-07 3.9387e-08 -1.17821e-08 -1.99049e-08 -1.46051e-07 4.55072e-07)
(-3.03742e-06 7.0693e-08 -1.70627e-08 1.266e-07 -1.46408e-07 4.43886e-07)
(-2.91243e-06 -1.07724e-07 2.06861e-08 -3.14183e-06 -6.96599e-08 5.58042e-07)
(1.79985e-07 -5.39967e-08 1.35224e-08 -3.32787e-06 -6.47935e-08 5.58865e-07)
(1.72262e-07 5.41241e-08 -1.35904e-08 -3.30943e-06 -6.4228e-08 5.53559e-07)
(-2.9333e-06 1.05839e-07 -2.04927e-08 -3.09286e-06 -6.78222e-08 5.42596e-07)
(-2.47275e-06 7.19066e-08 -4.51315e-09 6.52436e-07 -1.33936e-07 2.97227e-08)
(-2.18075e-07 -1.54708e-08 -3.24095e-09 4.63708e-07 -1.5782e-07 5.17182e-08)
(-2.20167e-07 1.9396e-08 4.28194e-09 4.58897e-07 -1.55837e-07 5.08818e-08)
(-2.47362e-06 -7.06225e-08 4.78919e-09 6.39651e-07 -1.27906e-07 2.73327e-08)
(-2.52215e-06 6.81174e-09 -4.6248e-09 3.6499e-07 -1.3937e-07 8.19649e-08)
(-3.90918e-07 -3.49716e-09 -3.59882e-09 4.58976e-07 -1.49939e-07 1.20867e-07)
(-3.93028e-07 4.56242e-09 5.43092e-09 4.52743e-07 -1.48009e-07 1.18912e-07)
(-2.51942e-06 -6.15472e-09 5.21379e-09 3.44704e-07 -1.33402e-07 7.64262e-08)
(-2.56373e-06 -1.94734e-09 -3.98536e-09 3.62064e-07 -1.43332e-07 1.3486e-07)
(-4.29437e-07 -2.62685e-09 -3.28718e-09 4.27497e-07 -1.45161e-07 1.7839e-07)
(-4.3119e-07 3.0714e-09 5.20602e-09 4.21317e-07 -1.4332e-07 1.75702e-07)
(-2.55868e-06 2.29432e-09 4.64571e-09 3.43307e-07 -1.37588e-07 1.2718e-07)
(-2.60934e-06 3.85119e-09 -4.57881e-09 3.48371e-07 -1.49492e-07 1.93615e-07)
(-4.3491e-07 2.28958e-09 -3.68433e-09 3.93918e-07 -1.46694e-07 2.37345e-07)
(-4.36404e-07 -2.07312e-09 5.4765e-09 3.87942e-07 -1.44916e-07 2.34121e-07)
(-2.60168e-06 -3.6353e-09 5.2067e-09 3.30656e-07 -1.43942e-07 1.84328e-07)
(-2.6788e-06 4.36975e-09 -5.69923e-09 3.15629e-07 -1.54259e-07 2.63089e-07)
(-4.27184e-07 3.10022e-09 -4.20938e-09 3.59714e-07 -1.50031e-07 3.05915e-07)
(-4.28425e-07 -3.18078e-09 5.86487e-09 3.53875e-07 -1.48315e-07 3.0224e-07)
(-2.66818e-06 -4.34109e-09 6.27731e-09 2.98568e-07 -1.48933e-07 2.52461e-07)
(-2.78626e-06 -1.64255e-08 -6.49258e-09 2.75872e-07 -1.45884e-07 3.45014e-07)
(-3.62332e-07 -1.02372e-08 -4.20705e-09 2.79117e-07 -1.42093e-07 3.87037e-07)
(-3.63621e-07 9.88246e-09 5.68758e-09 2.73685e-07 -1.40524e-07 3.82948e-07)
(-2.77345e-06 1.58962e-08 7.00027e-09 2.59751e-07 -1.40979e-07 3.33173e-07)
(-2.93169e-06 -6.92363e-08 -5.96356e-09 8.87362e-08 -1.08784e-07 4.22044e-07)
(-1.70617e-07 -3.70895e-08 -3.35376e-09 -5.60028e-08 -1.05166e-07 4.63589e-07)
(-1.73601e-07 3.67867e-08 4.32729e-09 -5.90016e-08 -1.03981e-07 4.59135e-07)
(-2.92284e-06 6.74819e-08 6.26239e-09 7.74061e-08 -1.04906e-07 4.09142e-07)
(-2.81368e-06 -1.01881e-07 -4.59737e-09 -3.03331e-06 -3.87282e-08 4.46631e-07)
(1.10438e-07 -5.05114e-08 -3.90141e-09 -3.19119e-06 -3.39638e-08 4.87761e-07)
(1.0253e-07 5.06601e-08 3.38145e-09 -3.17273e-06 -3.35271e-08 4.8313e-07)
(-2.83568e-06 9.99963e-08 4.2366e-09 -2.98445e-06 -3.72055e-08 4.33156e-07)
(-2.40555e-06 7.08024e-08 -4.87559e-09 6.45101e-07 -1.09503e-07 2.56627e-08)
(-2.15926e-07 -1.55455e-08 -3.67036e-09 4.55188e-07 -1.16833e-07 3.9668e-08)
(-2.18463e-07 1.85363e-08 4.45388e-09 4.51055e-07 -1.15474e-07 3.90831e-08)
(-2.40992e-06 -7.01525e-08 5.04975e-09 6.34939e-07 -1.05405e-07 2.39953e-08)
(-2.4564e-06 6.77157e-09 -7.64227e-09 3.56178e-07 -1.17319e-07 8.28499e-08)
(-3.91695e-07 -3.73429e-09 -5.9774e-09 4.50276e-07 -1.19361e-07 1.0837e-07)
(-3.9436e-07 4.03896e-09 7.42373e-09 4.44525e-07 -1.17921e-07 1.06904e-07)
(-2.45713e-06 -6.43849e-09 8.0499e-09 3.37179e-07 -1.12928e-07 7.86804e-08)
(-2.49924e-06 -2.18914e-09 -7.981e-09 3.45459e-07 -1.23661e-07 1.43138e-07)
(-4.33026e-07 -3.03465e-09 -6.32461e-09 4.13196e-07 -1.22748e-07 1.71979e-07)
(-4.35256e-07 2.88336e-09 7.88334e-09 4.07263e-07 -1.21289e-07 1.69863e-07)
(-2.49748e-06 2.3152e-09 8.45678e-09 3.273e-07 -1.19187e-07 1.37062e-07)
(-2.5436e-06 3.06571e-09 -8.30924e-09 3.21171e-07 -1.28278e-07 2.0758e-07)
(-4.37373e-07 1.72709e-09 -6.51253e-09 3.68615e-07 -1.25563e-07 2.36468e-07)
(-4.39286e-07 -1.92127e-09 7.98193e-09 3.62762e-07 -1.24108e-07 2.33832e-07)
(-2.53911e-06 -3.00589e-09 8.76464e-09 3.03718e-07 -1.2381e-07 1.99941e-07)
(-2.60976e-06 3.48382e-09 -8.98583e-09 2.80462e-07 -1.26306e-07 2.75725e-07)
(-4.25864e-07 2.7444e-09 -6.81641e-09 3.252e-07 -1.22945e-07 3.03633e-07)
(-4.27503e-07 -3.04535e-09 8.15206e-09 3.1944e-07 -1.2153e-07 3.00545e-07)
(-2.60226e-06 -3.54254e-09 9.39202e-09 2.63539e-07 -1.2196e-07 2.66726e-07)
(-2.71317e-06 -1.64265e-08 -9.5111e-09 2.44233e-07 -1.09753e-07 3.40746e-07)
(-3.57827e-07 -9.75009e-09 -6.88299e-09 2.49016e-07 -1.06762e-07 3.67587e-07)
(-3.5951e-07 9.34837e-09 8.0153e-09 2.43637e-07 -1.05482e-07 3.64104e-07)
(-2.70346e-06 1.58792e-08 9.83588e-09 2.28211e-07 -1.05762e-07 3.30554e-07)
(-2.85567e-06 -6.69185e-08 -9.18123e-09 7.59794e-08 -7.33295e-08 3.84971e-07)
(-1.67078e-07 -3.51818e-08 -6.47613e-09 -6.12219e-08 -7.06231e-08 4.11081e-07)
(-1.70457e-07 3.49411e-08 7.0934e-09 -6.42348e-08 -6.96793e-08 4.07307e-07)
(-2.84981e-06 6.51971e-08 9.29784e-09 6.46354e-08 -7.02162e-08 3.73862e-07)
(-2.74727e-06 -9.77704e-08 -8.67044e-09 -2.97239e-06 -2.35383e-08 3.85889e-07)
(1.09651e-07 -4.80159e-08 -7.29571e-09 -3.11289e-06 -2.0354e-08 4.12574e-07)
(1.01349e-07 4.8186e-08 6.55791e-09 -3.09455e-06 -2.00117e-08 4.08738e-07)
(-2.7715e-06 9.59079e-08 8.19816e-09 -2.92377e-06 -2.23136e-08 3.74468e-07)
(-2.36718e-06 6.77664e-08 -2.93978e-09 6.33205e-07 -8.16766e-08 2.80173e-08)
(-2.09427e-07 -1.77715e-08 -2.15235e-09 4.45439e-07 -8.22636e-08 3.37231e-08)
(-2.12276e-07 2.02757e-08 2.6821e-09 4.41823e-07 -8.13866e-08 3.32954e-08)
(-2.37421e-06 -6.749e-08 3.05796e-09 6.24939e-07 -7.90664e-08 2.68127e-08)
(-2.41642e-06 5.65155e-09 -5.08318e-09 3.43431e-07 -8.80533e-08 8.92464e-08)
(-3.79561e-07 -4.76877e-09 -3.87873e-09 4.37261e-07 -8.66888e-08 9.93046e-08)
(-3.82636e-07 4.6867e-09 4.89631e-09 4.31897e-07 -8.57143e-08 9.81822e-08)
(-2.41986e-06 -5.49039e-09 5.3729e-09 3.25478e-07 -8.51139e-08 8.60676e-08)
(-2.45849e-06 -2.62441e-09 -5.63219e-09 3.28197e-07 -9.31026e-08 1.52665e-07)
(-4.1922e-07 -3.44456e-09 -4.30923e-09 3.9622e-07 -9.11889e-08 1.63774e-07)
(-4.2182e-07 2.9873e-09 5.43938e-09 3.90501e-07 -9.01631e-08 1.62089e-07)
(-2.45934e-06 2.63923e-09 5.98076e-09 3.10594e-07 -8.99859e-08 1.47837e-07)
(-2.50162e-06 2.62593e-09 -5.88788e-09 3.00394e-07 -9.51654e-08 2.16741e-07)
(-4.22127e-07 1.45983e-09 -4.4345e-09 3.48272e-07 -9.29157e-08 2.27445e-07)
(-4.24371e-07 -1.86614e-09 5.51623e-09 3.42528e-07 -9.1868e-08 2.25274e-07)
(-2.49966e-06 -2.64428e-09 6.22731e-09 2.83208e-07 -9.19678e-08 2.10451e-07)
(-2.56573e-06 3.04088e-09 -6.22801e-09 2.60583e-07 -9.03251e-08 2.7793e-07)
(-4.08355e-07 2.60607e-09 -4.56291e-09 3.05455e-07 -8.80111e-08 2.87598e-07)
(-4.10305e-07 -3.01564e-09 5.54002e-09 2.99755e-07 -8.69814e-08 2.84988e-07)
(-2.56072e-06 -3.14139e-09 6.52888e-09 2.4379e-07 -8.71693e-08 2.70307e-07)
(-2.66684e-06 -1.63296e-08 -6.46246e-09 2.31677e-07 -7.44403e-08 3.28085e-07)
(-3.38554e-07 -9.41059e-09 -4.57895e-09 2.37278e-07 -7.25047e-08 3.36637e-07)
(-3.40543e-07 8.99565e-09 5.37752e-09 2.31933e-07 -7.15732e-08 3.33646e-07)
(-2.6596e-06 1.57789e-08 6.69207e-09 2.15734e-07 -7.15288e-08 3.19288e-07)
(-2.80785e-06 -6.55113e-08 -6.25463e-09 7.40109e-08 -4.70622e-08 3.55167e-07)
(-1.48554e-07 -3.40577e-08 -4.4134e-09 -5.89655e-08 -4.54812e-08 3.63022e-07)
(-1.52236e-07 3.3861e-08 4.78264e-09 -6.19837e-08 -4.47982e-08 3.59776e-07)
(-2.80437e-06 6.38158e-08 6.31096e-09 6.26898e-08 -4.47933e-08 3.45512e-07)
(-2.70452e-06 -9.54146e-08 -6.06711e-09 -2.93888e-06 -1.47383e-08 3.49577e-07)
(1.25704e-07 -4.66056e-08 -5.08897e-09 -3.0705e-06 -1.30356e-08 3.58179e-07)
(1.17109e-07 4.67946e-08 4.3894e-09 -3.05228e-06 -1.27871e-08 3.54935e-07)
(-2.73067e-06 9.35749e-08 5.6608e-09 -2.89048e-06 -1.38385e-08 3.3975e-07)
(-2.34622e-06 6.56789e-08 -1.3867e-09 6.22536e-07 -5.03466e-08 3.05893e-08)
(-2.04904e-07 -1.93222e-08 -9.31207e-10 4.37037e-07 -4.94746e-08 3.22423e-08)
(-2.0794e-07 2.15877e-08 1.23643e-09 4.3376e-07 -4.8984e-08 3.19029e-08)
(-2.35497e-06 -6.56036e-08 1.45617e-09 6.15473e-07 -4.89042e-08 2.96577e-08)
(-2.39399e-06 4.80911e-09 -2.45205e-09 3.32407e-07 -5.42641e-08 9.42171e-08)
(-3.70152e-07 -5.50439e-09 -1.74624e-09 4.26114e-07 -5.26448e-08 9.63243e-08)
(-3.73479e-07 5.23627e-09 2.34763e-09 4.2101e-07 -5.2085e-08 9.5407e-08)
(-2.39921e-06 -4.73254e-09 2.62704e-09 3.15168e-07 -5.25882e-08 9.16583e-08)
(-2.43501e-06 -2.97955e-09 -2.80611e-09 3.15381e-07 -5.72083e-08 1.58153e-07)
(-4.07584e-07 -3.72921e-09 -1.99784e-09 3.83181e-07 -5.56455e-08 1.59768e-07)
(-4.10413e-07 3.1214e-09 2.67996e-09 3.77615e-07 -5.50424e-08 1.58351e-07)
(-2.43761e-06 2.94081e-09 3.02086e-09 2.98191e-07 -5.53851e-08 1.54139e-07)
(-2.47716e-06 2.3783e-09 -2.97499e-09 2.87411e-07 -5.77044e-08 2.19802e-07)
(-4.09159e-07 1.33259e-09 -2.07382e-09 3.35184e-07 -5.62439e-08 2.20589e-07)
(-4.11609e-07 -1.84799e-09 2.73455e-09 3.29522e-07 -5.56178e-08 2.18716e-07)
(-2.47689e-06 -2.43591e-09 3.18678e-09 2.70445e-07 -5.57983e-08 2.14418e-07)
(-2.54008e-06 2.85199e-09 -3.13255e-09 2.50469e-07 -5.34793e-08 2.74561e-07)
(-3.94132e-07 2.57748e-09 -2.12239e-09 2.95212e-07 -5.21556e-08 2.74345e-07)
(-3.96277e-07 -3.04625e-09 2.71753e-09 2.89557e-07 -5.15345e-08 2.72045e-07)
(-2.53673e-06 -2.97473e-09 3.31997e-09 2.33791e-07 -5.15756e-08 2.67876e-07)
(-2.64003e-06 -1.62263e-08 -3.22031e-09 2.26976e-07 -4.2832e-08 3.15339e-07)
(-3.23556e-07 -9.20063e-09 -2.11949e-09 2.32843e-07 -4.18066e-08 3.14185e-07)
(-3.25735e-07 8.77591e-09 2.59383e-09 2.27526e-07 -4.12428e-08 3.11513e-07)
(-2.63442e-06 1.56731e-08 3.35948e-09 2.11107e-07 -4.10646e-08 3.0749e-07)
(-2.78033e-06 -6.47641e-08 -3.1113e-09 7.44452e-08 -2.64712e-08 3.34324e-07)
(-1.3413e-07 -3.3489e-08 -2.07033e-09 -5.65909e-08 -2.57282e-08 3.32669e-07)
(-1.37998e-07 3.33146e-08 2.26137e-09 -5.96046e-08 -2.53148e-08 3.2976e-07)
(-2.77844e-06 6.30835e-08 3.136e-09 6.31658e-08 -2.50907e-08 3.25637e-07)
(-2.67963e-06 -9.42381e-08 -3.02862e-09 -2.9208e-06 -8.26178e-09 3.26835e-07)
(1.3868e-07 -4.59258e-08 -2.476e-09 -3.04863e-06 -7.51433e-09 3.25812e-07)
(1.29908e-07 4.61268e-08 1.98439e-09 -3.03049e-06 -7.36329e-09 3.22943e-07)
(-2.70711e-06 9.24145e-08 2.75824e-09 -2.87257e-06 -7.71126e-09 3.18056e-07)
(-2.33696e-06 6.47487e-08 -3.9472e-10 6.16486e-07 -1.69948e-08 3.2006e-08)
(-2.02858e-07 -1.99821e-08 -2.43999e-10 4.3224e-07 -1.65687e-08 3.22975e-08)
(-2.05983e-07 2.21516e-08 3.43636e-10 4.2913e-07 -1.6411e-08 3.19986e-08)
(-2.34656e-06 -6.47609e-08 4.17563e-10 6.10005e-07 -1.6534e-08 3.12013e-08)
(-2.38401e-06 4.43651e-09 -6.93048e-10 3.26231e-07 -1.82924e-08 9.66762e-08)
(-3.65776e-07 -5.81754e-09 -4.60665e-10 4.19923e-07 -1.76608e-08 9.60698e-08)
(-3.69221e-07 5.47517e-09 6.59248e-10 4.1495e-07 -1.74784e-08 9.52487e-08)
(-2.39011e-06 -4.39429e-09 7.51353e-10 3.09352e-07 -1.77486e-08 9.44137e-08)
(-2.42444e-06 -3.15247e-09 -8.03396e-10 3.08749e-07 -1.92337e-08 1.60351e-07)
(-4.01968e-07 -3.85713e-09 -5.34072e-10 3.76375e-07 -1.86592e-08 1.58633e-07)
(-4.04906e-07 3.1875e-09 7.61441e-10 3.70889e-07 -1.84606e-08 1.57345e-07)
(-2.4279e-06 3.09212e-09 8.75575e-10 2.91778e-07 -1.86346e-08 1.56734e-07)
(-2.46605e-06 2.26519e-09 -8.6108e-10 2.81317e-07 -1.92592e-08 2.20185e-07)
(-4.02789e-07 1.28067e-09 -5.58824e-10 3.28948e-07 -1.87572e-08 2.17431e-07)
(-4.05338e-07 -1.84333e-09 7.80125e-10 3.23331e-07 -1.85492e-08 2.15704e-07)
(-2.46663e-06 -2.33961e-09 9.32577e-10 2.64473e-07 -1.86267e-08 2.15249e-07)
(-2.52844e-06 2.78194e-09 -9.07944e-10 2.4626e-07 -1.7647e-08 2.71431e-07)
(-3.87193e-07 2.57642e-09 -5.71971e-10 2.9087e-07 -1.72184e-08 2.67707e-07)
(-3.89431e-07 -3.07316e-09 7.70658e-10 2.85242e-07 -1.7011e-08 2.6556e-07)
(-2.5259e-06 -2.91513e-09 9.70969e-10 2.2965e-07 -1.70109e-08 2.65213e-07)
(-2.6279e-06 -1.61697e-08 -9.30451e-10 2.25396e-07 -1.39648e-08 3.07891e-07)
(-3.16338e-07 -9.1053e-09 -5.70394e-10 2.31301e-07 -1.36494e-08 3.03371e-07)
(-3.18609e-07 8.67342e-09 7.26125e-10 2.26001e-07 -1.34606e-08 3.00856e-07)
(-2.6231e-06 1.56143e-08 9.76272e-10 2.09574e-07 -1.33719e-08 3.00511e-07)
(-2.76794e-06 -6.44488e-08 -8.97494e-10 7.49657e-08 -8.56639e-09 3.23645e-07)
(-1.27226e-07 -3.32606e-08 -5.62755e-10 -5.53714e-08 -8.35695e-09 3.18766e-07)
(-1.31184e-07 3.30939e-08 6.19223e-10 -5.83799e-08 -8.21839e-09 3.1602e-07)
(-2.76683e-06 6.27742e-08 9.03165e-10 6.37163e-08 -8.10231e-09 3.15435e-07)
(-2.66838e-06 -9.37649e-08 -8.7104e-10 -2.91275e-06 -2.67207e-09 3.1556e-07)
(1.44881e-07 -4.56634e-08 -6.9509e-10 -3.03928e-06 -2.47014e-09 3.11214e-07)
(1.36026e-07 4.58693e-08 5.16507e-10 -3.02119e-06 -2.41941e-09 3.08527e-07)
(-2.69652e-06 9.1949e-08 7.75148e-10 -2.86459e-06 -2.48646e-09 3.07294e-07)
)
;

boundaryField
{
    interface
    {
        type            calculated;
        value           nonuniform List<symmTensor> 
192
(
(-5.41428e-06 1.27508e-12 3.87277e-11 6.0633e-07 -9.74011e-08 -2.95864e-06)
(-5.30316e-06 4.08492e-14 4.74777e-11 1.89427e-07 -6.35299e-08 -2.90903e-06)
(-5.37191e-06 -1.71943e-12 4.75986e-11 2.85305e-07 -4.41735e-08 -2.93566e-06)
(-5.46029e-06 -3.47499e-12 4.65992e-11 3.6409e-07 -3.8086e-08 -2.97318e-06)
(-5.59606e-06 -5.60021e-12 4.48129e-11 4.40909e-07 -4.47601e-08 -3.03453e-06)
(-5.84261e-06 -9.93653e-12 4.23775e-11 5.56825e-07 -7.14334e-08 -3.14213e-06)
(-6.26078e-06 -1.29111e-11 3.77421e-11 5.2999e-07 -1.2267e-07 -3.29044e-06)
(-6.19158e-06 -2.99733e-11 3.34489e-11 -3.10535e-06 -1.4084e-07 -3.10496e-06)
(-5.30843e-06 8.95949e-13 2.07362e-11 6.34321e-07 -2.31948e-07 -8.06462e-09)
(-5.2122e-06 -5.18695e-13 2.59348e-11 3.16569e-07 -1.44165e-07 1.33216e-08)
(-5.26723e-06 -2.44412e-12 2.5843e-11 3.41159e-07 -1.14453e-07 3.51393e-08)
(-5.35723e-06 -4.55996e-12 2.50337e-11 3.81891e-07 -1.08974e-07 5.32333e-08)
(-5.50593e-06 -7.09857e-12 2.37109e-11 4.22932e-07 -1.23723e-07 7.71312e-08)
(-5.77974e-06 -1.2211e-11 2.19528e-11 4.58911e-07 -1.54705e-07 1.34028e-07)
(-6.2552e-06 -1.55422e-11 1.9076e-11 2.77648e-07 -1.74628e-07 2.77928e-07)
(-6.26088e-06 -3.42571e-11 1.64549e-11 -3.29091e-06 -1.22425e-07 5.30564e-07)
(-4.84457e-06 1.01117e-12 1.70685e-11 6.4883e-07 -1.64854e-07 5.84823e-08)
(-4.77032e-06 -6.97779e-13 2.12134e-11 3.59672e-07 -1.51707e-07 1.05595e-07)
(-4.82523e-06 -3.01534e-12 2.1152e-11 3.66445e-07 -1.44003e-07 1.46249e-07)
(-4.91141e-06 -5.54794e-12 2.05061e-11 3.73905e-07 -1.46827e-07 1.89628e-07)
(-5.05406e-06 -8.57274e-12 1.94376e-11 3.68029e-07 -1.59294e-07 2.45514e-07)
(-5.31818e-06 -1.4456e-11 1.7979e-11 3.45088e-07 -1.69793e-07 3.32895e-07)
(-5.7812e-06 -1.84087e-11 1.57329e-11 1.37997e-07 -1.50848e-07 4.58144e-07)
(-5.84341e-06 -3.8876e-11 1.34813e-11 -3.14183e-06 -6.96599e-08 5.58042e-07)
(-4.59254e-06 9.26736e-13 1.14362e-11 6.52436e-07 -1.33936e-07 2.97227e-08)
(-4.52102e-06 -9.55746e-13 1.43484e-11 3.6499e-07 -1.3937e-07 8.19649e-08)
(-4.5773e-06 -3.4899e-12 1.42748e-11 3.62064e-07 -1.43332e-07 1.3486e-07)
(-4.66177e-06 -6.28054e-12 1.379e-11 3.48371e-07 -1.49492e-07 1.93615e-07)
(-4.80025e-06 -9.61089e-12 1.30163e-11 3.15629e-07 -1.54259e-07 2.63089e-07)
(-5.05738e-06 -1.59159e-11 1.19779e-11 2.75872e-07 -1.45884e-07 3.45014e-07)
(-5.5108e-06 -2.01556e-11 1.04951e-11 8.87362e-08 -1.08784e-07 4.22044e-07)
(-5.59939e-06 -4.13057e-11 9.02408e-12 -3.03331e-06 -3.87282e-08 4.46631e-07)
(-4.46277e-06 9.32479e-13 8.35481e-12 6.45101e-07 -1.09503e-07 2.56627e-08)
(-4.39275e-06 -1.10044e-12 1.04802e-11 3.56178e-07 -1.17319e-07 8.28499e-08)
(-4.44926e-06 -3.82802e-12 1.04373e-11 3.45459e-07 -1.23661e-07 1.43138e-07)
(-4.53243e-06 -6.81896e-12 1.00948e-11 3.21171e-07 -1.28278e-07 2.0758e-07)
(-4.66821e-06 -1.03855e-11 9.54563e-12 2.80462e-07 -1.26306e-07 2.75725e-07)
(-4.92114e-06 -1.69931e-11 8.80217e-12 2.44233e-07 -1.09753e-07 3.40746e-07)
(-5.36894e-06 -2.14721e-11 7.77352e-12 7.59794e-08 -7.33295e-08 3.84971e-07)
(-5.47073e-06 -4.31134e-11 6.71421e-12 -2.97239e-06 -2.35383e-08 3.85889e-07)
(-4.39248e-06 9.3384e-13 5.53605e-12 6.33205e-07 -8.16766e-08 2.80173e-08)
(-4.32388e-06 -1.20347e-12 6.96818e-12 3.43431e-07 -8.80533e-08 8.92464e-08)
(-4.38013e-06 -4.0621e-12 6.94614e-12 3.28197e-07 -9.31026e-08 1.52665e-07)
(-4.46223e-06 -7.1859e-12 6.72558e-12 3.00394e-07 -9.51654e-08 2.16741e-07)
(-4.59624e-06 -1.09099e-11 6.37222e-12 2.60583e-07 -9.03251e-08 2.7793e-07)
(-4.84672e-06 -1.77064e-11 5.89249e-12 2.31677e-07 -7.44403e-08 3.28085e-07)
(-5.29136e-06 -2.23332e-11 5.24632e-12 7.40109e-08 -4.70622e-08 3.55167e-07)
(-5.39973e-06 -4.42685e-11 4.57808e-12 -2.93888e-06 -1.47383e-08 3.49577e-07)
(-4.3549e-06 9.49633e-13 3.19151e-12 6.22536e-07 -5.03466e-08 3.05893e-08)
(-4.28722e-06 -1.25535e-12 4.0291e-12 3.32407e-07 -5.42641e-08 9.42171e-08)
(-4.34314e-06 -4.19826e-12 4.02771e-12 3.15381e-07 -5.72083e-08 1.58153e-07)
(-4.42448e-06 -7.40391e-12 3.91256e-12 2.87411e-07 -5.77044e-08 2.19802e-07)
(-4.55743e-06 -1.12252e-11 3.72521e-12 2.50469e-07 -5.34793e-08 2.74561e-07)
(-4.80658e-06 -1.8134e-11 3.46326e-12 2.26976e-07 -4.2832e-08 3.15339e-07)
(-5.24954e-06 -2.28511e-11 3.12018e-12 7.44452e-08 -2.64712e-08 3.34324e-07)
(-5.36111e-06 -4.49643e-11 2.74996e-12 -2.9208e-06 -8.26178e-09 3.26835e-07)
(-4.33838e-06 9.64379e-13 1.04739e-12 6.16486e-07 -1.69948e-08 3.2006e-08)
(-4.27113e-06 -1.27159e-12 1.32678e-12 3.26231e-07 -1.82924e-08 9.66762e-08)
(-4.32683e-06 -4.2531e-12 1.32978e-12 3.08749e-07 -1.92337e-08 1.60351e-07)
(-4.4078e-06 -7.49529e-12 1.29533e-12 2.81317e-07 -1.92592e-08 2.20185e-07)
(-4.54025e-06 -1.13637e-11 1.23879e-12 2.4626e-07 -1.7647e-08 2.71431e-07)
(-4.78882e-06 -1.83206e-11 1.15604e-12 2.25396e-07 -1.39648e-08 3.07891e-07)
(-5.23106e-06 -2.30853e-11 1.05258e-12 7.49657e-08 -8.56639e-09 3.23645e-07)
(-5.34395e-06 -4.52801e-11 9.32192e-13 -2.91275e-06 -2.67207e-09 3.1556e-07)
(-2.72028e-06 -5.67663e-08 -6.4024e-11 6.0633e-07 -1.72842e-12 -5.81881e-06)
(-2.64867e-06 -1.85382e-08 -7.92227e-11 1.89427e-07 -1.82675e-12 -5.71788e-06)
(-2.68437e-06 2.22312e-09 -7.99002e-11 2.85305e-07 -1.39917e-12 -5.78144e-06)
(-2.73798e-06 9.57781e-09 -7.91587e-11 3.6409e-07 -1.52415e-12 -5.85975e-06)
(-2.81022e-06 5.9551e-09 -7.7835e-11 4.40909e-07 -1.76311e-12 -5.98614e-06)
(-2.91143e-06 -1.98037e-08 -7.61902e-11 5.56825e-07 -2.27002e-12 -6.23043e-06)
(-3.03203e-06 -7.8301e-08 -7.36011e-11 5.2999e-07 -2.43048e-12 -6.66262e-06)
(-2.82166e-06 -1.12295e-07 -7.25023e-11 -3.10535e-06 -3.18438e-12 -6.64032e-06)
(8.40915e-08 -8.35357e-08 -5.34715e-11 5.04217e-07 -5.44081e-13 -5.81396e-06)
(1.34607e-07 -1.61061e-08 -6.75552e-11 2.45372e-07 -6.34066e-13 -5.75491e-06)
(1.33463e-07 2.85258e-09 -6.80818e-11 3.12777e-07 -4.39243e-13 -5.81523e-06)
(1.16327e-07 8.69109e-09 -6.74765e-11 3.9492e-07 -3.91711e-13 -5.90208e-06)
(1.13959e-07 5.80915e-09 -6.65938e-11 4.82636e-07 -3.72749e-13 -6.05057e-06)
(1.81312e-07 -1.20374e-08 -6.56031e-11 5.57725e-07 -4.51842e-13 -6.33417e-06)
(3.90108e-07 -4.30965e-08 -6.43011e-11 3.73164e-07 -4.7758e-13 -6.83113e-06)
(6.95304e-07 -5.63758e-08 -6.42334e-11 -3.34099e-06 -6.39271e-13 -6.84065e-06)
(7.83355e-08 1.01113e-07 -5.50772e-11 4.99548e-07 -4.71938e-13 -5.78045e-06)
(1.26957e-07 2.73471e-08 -6.94714e-11 2.38652e-07 -1.60058e-13 -5.71782e-06)
(1.25825e-07 5.4931e-09 -7.00809e-11 3.05864e-07 2.76952e-13 -5.7772e-06)
(1.08796e-07 -2.26839e-09 -6.94401e-11 3.88268e-07 6.28054e-13 -5.8638e-06)
(1.06562e-07 -1.12952e-09 -6.84508e-11 4.76095e-07 9.83709e-13 -6.01227e-06)
(1.73852e-07 1.50131e-08 -6.72491e-11 5.51276e-07 1.3411e-12 -6.29611e-06)
(3.81236e-07 4.44008e-08 -6.56632e-11 3.68467e-07 1.65449e-12 -6.79395e-06)
(6.82365e-07 5.64179e-08 -6.50985e-11 -3.32709e-06 1.79856e-12 -6.80973e-06)
(-2.74568e-06 6.21869e-08 -6.35146e-11 5.90063e-07 -4.76532e-13 -5.72231e-06)
(-2.67433e-06 2.31423e-08 -7.95165e-11 1.67036e-07 2.14201e-13 -5.61329e-06)
(-2.70889e-06 1.40177e-09 -8.01957e-11 2.64893e-07 8.74654e-13 -5.6754e-06)
(-2.76085e-06 -6.77478e-09 -7.93739e-11 3.45134e-07 1.46439e-12 -5.75348e-06)
(-2.83127e-06 -3.92941e-09 -7.79736e-11 4.22511e-07 2.05342e-12 -5.87999e-06)
(-2.93179e-06 2.07536e-08 -7.61781e-11 5.3859e-07 2.72389e-12 -6.12467e-06)
(-3.05835e-06 7.75226e-08 -7.33823e-11 5.15446e-07 3.22829e-12 -6.55777e-06)
(-2.88043e-06 1.1077e-07 -7.20592e-11 -3.06427e-06 3.91408e-12 -6.54707e-06)
(-5.45359e-06 2.91878e-12 3.77122e-11 5.90063e-07 -9.2418e-08 -2.91083e-06)
(-5.33918e-06 1.03912e-12 4.6847e-11 1.67036e-07 -6.03397e-08 -2.85778e-06)
(-5.40569e-06 -1.75474e-12 4.68903e-11 2.64893e-07 -4.16246e-08 -2.88431e-06)
(-5.49096e-06 -3.92253e-12 4.59378e-11 3.45134e-07 -3.58199e-08 -2.92225e-06)
(-5.62337e-06 -6.36041e-12 4.43484e-11 4.22511e-07 -4.26308e-08 -2.98404e-06)
(-5.8684e-06 -1.07303e-11 4.23216e-11 5.3859e-07 -6.92986e-08 -3.09213e-06)
(-6.29568e-06 -1.3046e-11 3.82639e-11 5.15446e-07 -1.20329e-07 -3.24142e-06)
(-6.28325e-06 -3.22423e-11 3.5839e-11 -3.06427e-06 -1.38795e-07 -3.06352e-06)
(-5.30146e-06 1.13389e-12 1.70852e-11 6.1593e-07 -2.21753e-07 -1.04321e-08)
(-5.20036e-06 -4.24708e-13 2.22923e-11 2.94314e-07 -1.37071e-07 8.52726e-09)
(-5.25233e-06 -2.61295e-12 2.20968e-11 3.21521e-07 -1.08688e-07 2.86763e-08)
(-5.3381e-06 -4.8e-12 2.13898e-11 3.63654e-07 -1.03768e-07 4.55255e-08)
(-5.48178e-06 -7.32342e-12 2.04071e-11 4.0527e-07 -1.18755e-07 6.84795e-08)
(-5.75162e-06 -1.21264e-11 1.92645e-11 4.41845e-07 -1.49878e-07 1.24548e-07)
(-6.23304e-06 -1.36152e-11 1.72693e-11 2.6553e-07 -1.70303e-07 2.6719e-07)
(-6.29596e-06 -3.46577e-11 1.67165e-11 -3.24247e-06 -1.20188e-07 5.17242e-07)
(-4.83608e-06 9.49523e-13 1.58288e-11 6.32918e-07 -1.56479e-07 5.51359e-08)
(-4.7553e-06 -8.21558e-13 2.02081e-11 3.3813e-07 -1.44441e-07 9.86829e-08)
(-4.80666e-06 -3.19233e-12 2.01555e-11 3.47184e-07 -1.37525e-07 1.37184e-07)
(-4.88833e-06 -5.66036e-12 1.95823e-11 3.55963e-07 -1.40791e-07 1.79052e-07)
(-5.02565e-06 -8.52865e-12 1.87054e-11 3.50767e-07 -1.53544e-07 2.33721e-07)
(-5.28534e-06 -1.39119e-11 1.7551e-11 3.28711e-07 -1.64404e-07 3.19939e-07)
(-5.75332e-06 -1.55948e-11 1.57721e-11 1.266e-07 -1.46408e-07 4.43886e-07)
(-5.8697e-06 -3.86893e-11 1.44185e-11 -3.09286e-06 -6.78222e-08 5.42596e-07)
(-4.5901e-06 8.35607e-13 1.0869e-11 6.39651e-07 -1.27906e-07 2.73327e-08)
(-4.51133e-06 -1.10828e-12 1.4039e-11 3.44704e-07 -1.33402e-07 7.64262e-08)