/*--------------------------------*- C++ -*----------------------------------*\
| =========                 |                                                 |
| \\      /  F ield         | OpenFOAM: The Open Source CFD Toolbox           |
|  \\    /   O peration     | Version:  v1912                                 |
|   \\  /    A nd           | Website:  www.openfoam.com                      |
|    \\/     M anipulation  |                                                 |
\*---------------------------------------------------------------------------*/
FoamFile
{
    version     2.0;
    format      ascii;
    class       volVectorField;
    location    "0.1/solid";
    object      heatFlux;
}
// * * * * * * * * * * * * * * * * * * * * * * * * * * * * * * * * * * * * * //

dimensions      [1 0 -3 0 0 0 0];


internalField   nonuniform List<vector> 
256
(
(-118689 26847.1 -125629)
(-6601.37 13360.2 -112970)
(6774.66 13344.5 -112346)
(119077 27217.1 -123536)
(-118745 654.296 -125720)
(-6901.26 336.307 -113281)
(7082.28 335.249 -112617)
(119080 660.374 -123491)
(-119536 83.6214 -126482)
(-6920.42 37.4185 -113952)
(7098.73 36.9188 -113270)
(119807 78.5331 -124197)
(-120988 147.642 -127863)
(-6947.97 67.0081 -115200)
(7123.4 66.765 -114509)
(121185 141.773 -125549)
(-123626 310.643 -130394)
(-7001.29 150.139 -117564)
(7173.49 150.134 -116870)
(123752 304.503 -128067)
(-128542 859.573 -135195)
(-7108.48 523.529 -122247)
(7277.76 523.837 -121558)
(128642 857.312 -132877)
(-138100 9147.84 -144792)
(-7337.03 8263.81 -132134)
(7507.28 8251.09 -131461)
(138369 9120.96 -142517)
(-152109 159680 -159679)
(-8005.22 149017 -149016)
(8134.91 148372 -148372)
(153199 157504 -157504)
(-102152 12495.8 -7422.16)
(-5790.96 618.415 -6375.04)
(6014.65 631.532 -6360.93)
(101974 12942.5 -7381.89)
(-102493 319.529 -7756.98)
(-6073.27 20.3849 -6685.85)
(6309.39 20.7965 -6670.56)
(102256 330.009 -7713.11)
(-103232 41.5307 -7775.09)
(-6089.69 1.23401 -6701.34)
(6324.28 1.1736 -6685.73)
(102922 37.5135 -7730.4)
(-104602 74.8747 -7799.85)
(-6113.63 1.8935 -6722.61)
(6345.67 1.79302 -6706.88)
(104202 68.8411 -7754.99)
(-107154 162.743 -7848.19)
(-6162.77 7.07888 -6767.3)
(6391.22 6.93328 -6751.55)
(106653 154.802 -7803.83)
(-112076 536.907 -7947.26)
(-6269.44 180.168 -6867.68)
(6493.4 179.802 -6852.1)
(111496 529.901 -7904.6)
(-122063 8171.89 -8171.83)
(-6519.88 7119.32 -7119.31)
(6740.96 7104.27 -7104.26)
(121580 8133.17 -8133.2)
(-138101 144794 -9147.76)
(-7337.05 132135 -8263.78)
(7507.24 131462 -8251.08)
(138368 142517 -9121)
(-91972.4 11668 -517.328)
(-5540.14 299.285 -158.604)
(5767.81 313.002 -158.224)
(91744.1 12122.1 -508.96)
(-92312.8 301.366 -538.314)
(-5814.84 10.0136 -168.925)
(6055.02 10.4511 -168.518)
(92016.4 311.866 -529.754)
(-93040.8 40.7536 -538.731)
(-5831.05 0.654733 -169.245)
(6069.66 0.598697 -168.836)
(92668.4 36.657 -530.23)
(-94403.1 74.5408 -538.606)
(-5855 1.0512 -169.506)
(6091.03 0.949914 -169.095)
(93938 68.3438 -530.183)
(-96962.9 163.224 -537.887)
(-5904.65 5.07001 -170.079)
(6136.96 4.91579 -169.672)
(96391.6 154.887 -529.63)
(-101939 535.933 -535.868)
(-6013.31 171.519 -171.518)
(6240.84 171.119 -171.119)
(101280 527.939 -527.978)
(-112078 7947.34 -536.841)
(-6269.46 6867.71 -180.166)
(6493.38 6852.11 -179.802)
(111495 7904.56 -529.94)
(-128546 135199 -859.424)
(-7108.54 122250 -523.478)
(7277.69 121559 -523.82)
(128640 132876 -857.374)
(-86892.6 11440.1 -163.018)
(-5431.85 290.887 -4.78536)
(5664.3 304.791 -4.63384)
(86751.8 11903.7 -154.801)
(-87232.4 298.126 -167.701)
(-5703.48 9.7433 -5.08392)
(5948.56 10.1848 -4.92482)
(87021.1 308.739 -159.217)
(-87966.3 41.2382 -167.446)
(-5719.8 0.653059 -5.08689)
(5963.29 0.596028 -4.92847)
(87678 37.0839 -159.003)
(-89344.7 75.7194 -166.723)
(-5744.12 1.05983 -5.07923)
(5984.99 0.956857 -4.92219)
(88963.3 69.441 -158.347)
(-91936.6 165.481 -165.341)
(-5794.56 5.06682 -5.06527)
(6031.67 4.90974 -4.9102)
(91448.9 157.007 -157.055)
(-96966.6 537.953 -163.083)
(-5904.69 170.08 -5.06852)
(6136.94 169.671 -4.91631)
(96390 529.59 -154.933)
(-107160 7848.33 -162.595)
(-6162.84 6767.36 -7.07628)
(6391.18 6751.57 -6.93344)
(106650 7803.77 -154.849)
(-123633 130402 -310.31)
(-7001.45 117570 -150.019)
(7173.35 116873 -150.081)
(123748 128066 -304.584)
(-84254.1 11337.3 -75.1939)
(-5381.76 289.415 -1.03176)
(5617.8 303.443 -0.934076)
(84210.3 11808.1 -69.3132)
(-84595.5 296.938 -77.124)
(-5652.07 9.71212 -1.0774)
(5900.89 10.1564 -0.974596)
(84481.4 307.664 -71.024)
(-85338 41.7315 -76.8578)
(-5668.54 0.659421 -1.07435)
(5915.75 0.601331 -0.972148)
(85146.9 37.5276 -70.7849)
(-86733.5 76.6457 -76.2806)
(-5693.2 1.07282 -1.06647)
(5937.76 0.968186 -0.965614)
(86449.1 70.2918 -70.2713)
(-89352.2 166.864 -75.3484)
(-5744.21 5.08072 -1.05343)
(5984.97 4.92166 -0.954252)
(88961.7 158.3 -69.4165)
(-94414.6 538.679 -74.1593)
(-5855.14 169.507 -1.04474)
(6090.98 169.095 -0.947261)
(93934.9 530.144 -68.309)
(-104616 7800.12 -74.4719)
(-6113.8 6722.76 -1.88119)
(6345.6 6706.94 -1.78629)
(104198 7754.91 -68.7945)
(-121004 127881 -146.736)
(-6948.31 115212 -66.6386)
(7123.13 114515 -66.5509)
(121179 125548 -141.711)
(-82853 11287.8 -36.1366)
(-5357.59 288.777 -0.455242)
(5596.01 302.882 -0.396492)
(82885.9 11763.4 -32.3916)
(-83196.2 296.462 -36.9944)
(-5627.33 9.70071 -0.473647)
(5878.62 10.1468 -0.41177)
(83159.7 307.267 -33.104)
(-83945.6 42.0817 -36.8049)
(-5643.91 0.663982 -0.471303)
(5893.58 0.605009 -0.40988)
(83832.2 37.8365 -32.9337)
(-85353.6 77.2288 -36.4354)
(-5668.8 1.08075 -0.466392)
(5915.79 0.974752 -0.40601)
(85146.8 70.8094 -32.6156)
(-87989.8 167.602 -35.8987)
(-5720.16 5.08855 -0.459088)
(5963.31 4.92809 -0.399964)
(87676.6 158.97 -32.1401)
(-93068.8 538.829 -35.3351)
(-5831.48 169.253 -0.45469)
(6069.67 168.839 -0.39659)
(92666.1 530.212 -31.6296)
(-103263 7775.75 -35.7715)
(-6090.15 6701.77 -0.82939)
(6324.27 6685.97 -0.771545)
(102919 7730.37 -32.1323)
(-119570 126522 -71.7776)
(-6921.26 113980 -31.3572)
(7098.28 113284 -31.2565)
(119801 124197 -68.2604)
(-82130.1 11264.1 -16.4534)
(-5346.01 288.486 -0.198978)
(5585.86 302.635 -0.167725)
(82214.4 11742.6 -14.3902)
(-82474.6 296.27 -16.8207)
(-5615.49 9.69606 -0.206644)
(5868.26 10.1431 -0.173723)
(82490.3 307.122 -14.6766)
(-83228.5 42.2906 -16.7138)
(-5632.14 0.666676 -0.205307)
(5883.29 0.607091 -0.172665)
(83167.4 38.016 -14.5814)
(-84644.1 77.5519 -16.5165)
(-5657.17 1.08503 -0.202734)
(5905.61 0.978103 -0.170736)
(84489.4 71.0854 -14.4169)
(-87290.1 167.964 -16.2493)
(-5708.72 5.09242 -0.199175)
(5953.29 4.93108 -0.167936)
(87028.8 159.286 -14.1882)
(-92376.8 538.806 -16.0074)
(-5820.2 169.137 -0.197291)
(6059.8 168.724 -0.166593)
(92025.5 530.152 -13.9764)
(-102563 7763.67 -16.3096)
(-6078.8 6691.86 -0.35964)
(6314.3 6676.08 -0.328659)
(102268 7718.28 -14.2992)
(-118815 125812 -33.0982)
(-6907.79 113348 -14.0918)
(7086.22 112655 -14.0242)
(119085 123494 -31.0623)
(-81822 11254.5 -4.75294)
(-5341.31 288.372 -0.0562409)
(5581.82 302.54 -0.0464244)
(81931.9 11734.3 -4.09426)
(-82167.2 296.202 -4.85492)
(-5610.68 9.69439 -0.058337)
(5864.15 10.1418 -0.0479951)
(82208.8 307.076 -4.17028)
(-82923.2 42.3858 -4.82092)
(-5627.37 0.667891 -0.0579125)
(5879.2 0.607997 -0.0476641)
(82888.1 38.0962 -4.14021)
(-84342.3 77.6934 -4.75964)
(-5652.46 1.08688 -0.0571213)
(5901.58 0.979482 -0.047089)
(84213.5 71.2026 -4.09007)
(-86992.6 168.111 -4.67947)
(-5704.08 5.09399 -0.056065)
(5949.32 4.93223 -0.0462847)
(86757.1 159.41 -4.02302)
(-92082.2 538.769 -4.61285)
(-5815.64 169.092 -0.055551)
(6055.89 168.679 -0.0459366)
(91756.5 530.101 -3.966)
(-102263 7758.66 -4.71652)
(-6074.17 6687.87 -0.101166)
(6310.33 6672.11 -0.0914041)
(101993 7713.29 -4.07369)
(-118489 125506 -9.62241)
(-6902.19 113080 -4.04221)
(7081.31 112388 -4.01918)
(118780 123192 -8.95798)
)
;

boundaryField
{
    interface
    {
        type            calculated;
        value           nonuniform List<vector> 
192
(
(-224189 26847.1 -125629)
(-223704 654.296 -125720)
(-225249 83.6214 -126482)
(-228098 147.642 -127863)
(-233267 310.643 -130394)
(-242885 859.573 -135195)
(-261543 9147.84 -144792)
(-288250 159680 -159679)
(-192710 12495.8 -7422.16)
(-192826 319.529 -7756.98)
(-194271 41.5307 -7775.09)
(-196964 74.8747 -7799.85)
(-201969 162.743 -7848.19)
(-211600 536.907 -7947.26)
(-231073 8171.89 -8171.83)
(-261545 144794 -9147.76)
(-172851 11668 -517.328)
(-172982 301.366 -538.314)
(-174405 40.7536 -538.731)
(-177082 74.5408 -538.606)
(-182103 163.224 -537.887)
(-191839 535.933 -535.868)
(-211604 7947.34 -536.841)
(-242892 135199 -859.424)
(-162908 11440.1 -163.018)
(-163043 298.126 -167.701)
(-164479 41.2382 -167.446)
(-167187 75.7194 -166.723)
(-172270 165.481 -165.341)
(-182110 537.953 -163.083)
(-201981 7848.33 -162.595)
(-233281 130402 -310.31)
(-157731 11337.3 -75.1939)
(-157872 296.938 -77.124)
(-159325 41.7315 -76.8578)
(-162066 76.6457 -76.2806)
(-167202 166.864 -75.3484)
(-177105 538.679 -74.1593)
(-196991 7800.12 -74.4719)
(-228129 127881 -146.736)
(-154977 11287.8 -36.1366)
(-155123 296.462 -36.9944)
(-156589 42.0817 -36.8049)
(-159355 77.2288 -36.4354)
(-164525 167.602 -35.8987)
(-174460 538.829 -35.3351)
(-194333 7775.75 -35.7715)
(-225316 126522 -71.7776)
(-153554 11264.1 -16.4534)
(-153704 296.27 -16.8207)
(-155178 42.2906 -16.7138)
(-157959 77.5519 -16.5165)
(-163148 167.964 -16.2493)
(-173099 538.806 -16.0074)
(-192954 7763.67 -16.3096)
(-223832 125812 -33.0982)
(-152948 11254.5 -4.75294)
(-153098 296.202 -4.85492)
(-154577 42.3858 -4.82092)
(-157365 77.6934 -4.75964)
(-162563 168.111 -4.67947)
(-172519 538.769 -4.61285)
(-192364 7758.66 -4.71652)
(-223191 125506 -9.62241)
(-118689 26847.1 -237223)
(-118745 654.296 -236772)
(-119536 83.6214 -238260)
(-120988 147.642 -240973)
(-123626 310.643 -245938)
(-128542 859.573 -255341)
(-138100 9147.84 -274090)
(-152109 159680 -302357)
(-6601.37 13360.2 -213499)
(-6901.26 336.307 -213520)
(-6920.42 37.4185 -214832)
(-6947.97 67.0081 -217286)
(-7001.29 150.139 -221925)
(-7108.48 523.529 -231093)
(-7337.03 8263.81 -250378)
(-8005.22 149017 -282343)
(6774.66 13344.5 -212279)
(7082.28 335.249 -212221)
(7098.73 36.9188 -213497)
(7123.4 66.765 -215935)
(7173.49 150.134 -220569)
(7277.76 523.837 -229746)
(7507.28 8251.09 -249062)
(8134.91 148372 -281079)
(119077 27217.1 -233110)
(119080 660.374 -232394)
(119807 78.5331 -233772)
(121185 141.773 -236428)
(123752 304.503 -241367)
(128642 857.312 -250784)
(138369 9120.96 -269611)
(153199 157504 -298062)
(224589 27217.1 -123536)
(223979 660.374 -123491)
(225399 78.5331 -124197)
(228106 141.773 -125549)
(233140 304.503 -128067)
(242711 857.312 -132877)
(261707 9120.96 -142517)
(290085 157504 -157504)
(191931 12942.5 -7381.89)
(191906 330.009 -7713.11)
(193208 37.5135 -7730.4)
(195726 68.8411 -7754.99)
(200536 154.802 -7803.83)
(210018 529.901 -7904.6)
(229690 8133.17 -8133.2)
(261705 142517 -9121)
(171966 12122.1 -508.96)
(171937 311.866 -529.754)
(173212 36.657 -530.23)
(175708 68.3438 -530.183)
(180523 154.887 -529.63)
(190093 527.939 -527.978)
(210016 7904.56 -529.94)
(242707 132876 -857.374)
(162189 11903.7 -154.801)
(162159 308.739 -159.217)
(163444 37.0839 -159.003)
(165971 69.441 -158.347)
(170849 157.007 -157.055)
(180520 529.59 -154.933)
(200530 7803.77 -154.849)
(233132 128066 -304.584)
(157198 11808.1 -69.3132)
(157176 307.664 -71.024)
(158477 37.5276 -70.7849)
(161037 70.2918 -70.2713)
(165968 158.3 -69.4165)
(175702 530.144 -68.309)
(195717 7754.91 -68.7945)
(228094 125548 -141.711)
(154593 11763.4 -32.3916)
(154577 307.267 -33.104)
(155892 37.8365 -32.9337)
(158476 70.8094 -32.6156)
(163441 158.97 -32.1401)
(173207 530.212 -31.6296)
(193202 7730.37 -32.1323)
(225387 124197 -68.2604)
(153271 11742.6 -14.3902)
(153259 307.122 -14.6766)
(154583 38.016 -14.5814)
(157182 71.0854 -14.4169)
(162165 159.286 -14.1882)
(171946 530.152 -13.9764)
(191920 7718.28 -14.2992)
(223981 123494 -31.0623)
(152714 11734.3 -4.09426)
(152704 307.076 -4.17028)
(154032 38.0962 -4.14021)
(156638 71.2026 -4.09007)
(161630 159.41 -4.02302)
(171415 530.101 -3.966)
(191379 7713.29 -4.07369)
(223379 123192 -8.95798)
(-152109 302359 -159679)
(-138101 274094 -9147.76)
(-128546 255349 -859.424)
(-123633 245955 -310.31)
(-121004 241008 -146.736)
(-119570 238338 -71.7776)
(-118815 236942 -33.0982)
(-118489 236341 -9.62241)
(-8005.22 282344 -149016)
(-7337.05 250381 -8263.78)
(-7108.54 231099 -523.478)
(-7001.45 221936 -150.019)
(-6948.31 217310 -66.6386)
(-6921.26 214886 -31.3572)
(-6907.79 213643 -14.0918)
(-6902.19 213115 -4.04221)
(8134.91 281081 -148372)
(7507.24 249063 -8251.08)
(7277.69 229748 -523.82)
(7173.35 220574 -150.081)
(7123.13 215946 -66.5509)
(7098.28 213526 -31.2565)
(7086.22 212286 -14.0242)
(7081.31 211760 -4.01918)
(153199 298063 -157504)
(138368 269611 -9121)
(128640 250783 -857.374)
(123748 241365 -304.584)
(121179 236426 -141.711)
(119801 233772 -68.2604)
(119085 232389 -31.0623)
(118780 231797 -8.95798)
)
;
    }
    symmetry
    {
        type            symmetry;
    }
    bottom
    {
        type            calculated;
        value           nonuniform List<vector> 
32
(
(-118689 52454.9 -125629)
(-102152 24386.6 -7422.16)
(-91972.4 22766.3 -517.328)
(-86892.6 22317.3 -163.018)
(-84254.1 22114.2 -75.1939)
(-82853 22016.5 -36.1366)
(-82130.1 21969.7 -16.4534)
(-81822 21950.7 -4.75294)
(-6601.37 26079.4 -112970)
(-5790.96 1197.37 -6375.04)
(-5540.14 579.215 -158.604)
(-5431.85 562.95 -4.78536)
(-5381.76 560.073 -1.03176)
(-5357.59 558.823 -0.455242)
(-5346.01 558.252 -0.198978)
(-5341.31 558.027 -0.0562409)
(6774.66 26049.5 -112346)
(6014.65 1222.74 -6360.93)
(5767.81 605.741 -158.224)
(5664.3 589.841 -4.63384)
(5617.8 587.206 -0.934076)
(5596.01 586.105 -0.396492)
(5585.86 585.62 -0.167725)
(5581.82 585.434 -0.0464244)
(119077 53178 -123536)
(101974 25256 -7381.89)
(91744.1 23650.5 -508.96)
(86751.8 23220.1 -154.801)
(84210.3 23031.3 -69.3132)
(82885.9 22942.9 -32.3916)
(82214.4 22901.7 -14.3902)
(81931.9 22885.3 -4.09426)
)
;
    }
}


// ************************************************************************* //
