/*--------------------------------*- C++ -*----------------------------------*\
| =========                 |                                                 |
| \\      /  F ield         | OpenFOAM: The Open Source CFD Toolbox           |
|  \\    /   O peration     | Version:  v1912                                 |
|   \\  /    A nd           | Website:  www.openfoam.com                      |
|    \\/     M anipulation  |                                                 |
\*---------------------------------------------------------------------------*/
FoamFile
{
    version     2.0;
    format      ascii;
    class       surfaceScalarField;
    location    "0.42/fluid";
    object      meshPhi;
}
// * * * * * * * * * * * * * * * * * * * * * * * * * * * * * * * * * * * * * //

dimensions      [0 3 -1 0 0 0 0];
oriented        oriented;


internalField   nonuniform List<scalar> 
41600
(
2.09138e-13
-5.46394e-13
2.0319e-13
-2.09787e-13
3.98445e-13
-1.59187e-12
5.98594e-13
-6.1834e-13
5.74642e-13
-2.56281e-12
9.85457e-13
-1.01893e-12
7.43717e-13
-3.49423e-12
1.38901e-12
-1.4381e-12
9.11335e-13
-4.41027e-12
1.83198e-12
-1.89985e-12
1.08334e-12
-5.32283e-12
2.33553e-12
-2.42683e-12
1.26644e-12
-6.22889e-12
2.91981e-12
-3.04107e-12
1.46953e-12
-7.10515e-12
3.60373e-12
-3.76411e-12
1.70643e-12
-7.89785e-12
4.40431e-12
-4.61702e-12
2.00213e-12
-8.50456e-12
5.33547e-12
-5.62053e-12
2.40668e-12
-8.74043e-12
6.40703e-12
-6.79724e-12
3.0268e-12
-8.27101e-12
7.62688e-12
-8.1819e-12
4.08775e-12
-6.4747e-12
9.01253e-12
-9.85431e-12
6.00825e-12
-2.21227e-12
1.06117e-11
-1.20149e-11
9.02539e-12
5.77385e-12
1.24187e-11
-1.49003e-11
1.96544e-11
1.56794e-11
-2.31213e-11
6.23119e-13
-1.07646e-12
6.04365e-13
-6.24039e-13
1.18705e-12
-3.1369e-12
1.78034e-12
-1.8392e-12
1.71172e-12
-5.05235e-12
2.93057e-12
-3.03027e-12
2.21489e-12
-6.89279e-12
4.12982e-12
-4.27584e-12
2.71336e-12
-8.70769e-12
5.44537e-12
-5.64701e-12
3.22428e-12
-1.0524e-11
6.94007e-12
-7.21101e-12
3.76703e-12
-1.23417e-11
8.67355e-12
-9.03301e-12
4.36626e-12
-1.41246e-11
1.07018e-11
-1.11766e-11
5.0583e-12
-1.5785e-11
1.30746e-11
-1.37032e-11
5.90476e-12
-1.71578e-11
1.58311e-11
-1.66701e-11
7.02163e-12
-1.79597e-11
1.89918e-11
-2.01317e-11
8.6416e-12
-1.77347e-11
2.2554e-11
-2.41507e-11
1.12174e-11
-1.58078e-11
2.64941e-11
-2.88426e-11
1.54881e-11
-1.13854e-11
3.07678e-11
-3.44618e-11
2.15872e-11
-4.48499e-12
3.51217e-11
-4.11007e-11
3.5459e-12
3.85952e-11
-5.00831e-11
1.02451e-12
-1.57412e-12
9.90354e-13
-1.02267e-12
1.95139e-12
-4.58864e-12
2.91702e-12
-3.01366e-12
2.81317e-12
-7.39541e-12
4.80038e-12
-4.96388e-12
3.63881e-12
-1.00997e-11
6.76213e-12
-7.00117e-12
4.4557e-12
-1.27784e-11
8.91177e-12
-9.24127e-12
5.29156e-12
-1.54786e-11
1.13517e-11
-1.17937e-11
6.1767e-12
-1.82129e-11
1.41793e-11
-1.47647e-11
7.14756e-12
-2.09493e-11
1.7486e-11
-1.82577e-11
8.2527e-12
-2.35959e-11
2.13533e-11
-2.23715e-11
9.56431e-12
-2.59748e-11
2.58428e-11
-2.71942e-11
1.12015e-11
-2.77897e-11
3.09777e-11
-3.27933e-11
1.33755e-11
-2.85972e-11
3.67173e-11
-3.92076e-11
1.64446e-11
-2.78341e-11
4.29211e-11
-4.64446e-11
2.0882e-11
-2.50404e-11
4.92879e-11
-5.44687e-11
2.64152e-11
-2.06262e-11
5.51657e-11
-6.27767e-11
-1.57272e-11
5.98083e-11
-7.32421e-11
1.40546e-12
-2.023e-12
1.35198e-12
-1.39612e-12
2.67637e-12
-5.89956e-12
3.98135e-12
-4.1133e-12
3.85686e-12
-9.5161e-12
6.54921e-12
-6.77216e-12
4.98627e-12
-1.30129e-11
9.22009e-12
-9.54548e-12
6.10185e-12
-1.64964e-11
1.2142e-11
-1.25897e-11
7.24101e-12
-2.00389e-11
1.54535e-11
-1.6053e-11
8.44375e-12
-2.36754e-11
1.92867e-11
-2.00792e-11
9.75555e-12
-2.7396e-11
2.37671e-11
-2.48093e-11
1.12307e-11
-3.11328e-11
2.90082e-11
-3.03782e-11
1.29363e-11
-3.47392e-11
3.50974e-11
-3.69049e-11
1.49592e-11
-3.7962e-11
4.20691e-11
-4.44722e-11
1.74172e-11
-4.04145e-11
4.98602e-11
-5.3097e-11
2.04584e-11
-4.15819e-11
5.82374e-11
-6.26805e-11
2.42133e-11
-4.09476e-11
6.66819e-11
-7.29241e-11
2.83085e-11
-3.85201e-11
7.41801e-11
-8.28753e-11
-3.46996e-11
7.95312e-11
-9.38615e-11
1.75867e-12
-2.40712e-12
1.68111e-12
-1.73595e-12
3.34788e-12
-7.02295e-12
4.94917e-12
-5.11295e-12
4.82201e-12
-1.13389e-11
8.13648e-12
-8.41286e-12
6.22963e-12
-1.55289e-11
1.14449e-11
-1.18476e-11
7.61686e-12
-1.97293e-11
1.50557e-11
-1.56089e-11
9.03002e-12
-2.4041e-11
1.91388e-11
-1.9878e-11
1.05184e-11
-2.8529e-11
2.38568e-11
-2.4832e-11
1.21367e-11
-3.32189e-11
2.93664e-11
-3.06454e-11
1.39463e-11
-3.80893e-11
3.5813e-11
-3.74886e-11
1.60135e-11
-4.30587e-11
4.33168e-11
-4.55166e-11
1.84039e-11
-4.79626e-11
5.19434e-11
-5.48459e-11
2.11649e-11
-5.25153e-11
6.16503e-11
-6.55137e-11
2.42786e-11
-5.62468e-11
7.21877e-11
-7.7395e-11
2.75849e-11
-5.84204e-11
8.29099e-11
-9.00417e-11
3.05489e-11
-5.82265e-11
9.24286e-11
-1.02073e-10
-5.4781e-11
9.89839e-11
-1.14195e-10
2.07774e-12
-2.71132e-12
1.9712e-12
-2.03532e-12
3.95356e-12
-7.91439e-12
5.80094e-12
-5.99232e-12
5.69031e-12
-1.27913e-11
9.52938e-12
-9.85194e-12
7.34425e-12
-1.75463e-11
1.33889e-11
-1.38582e-11
8.96897e-12
-2.23437e-11
1.75876e-11
-1.82309e-11
1.06187e-11
-2.73135e-11
2.232e-11
-2.31779e-11
1.23518e-11
-3.25532e-11
2.77733e-11
-2.89022e-11
1.42338e-11
-3.813e-11
3.41295e-11
-3.56061e-11
1.63398e-11
-4.40806e-11
4.15634e-11
-4.34916e-11
1.87536e-11
-5.04092e-11
5.02314e-11
-5.27529e-11
2.15632e-11
-5.70794e-11
6.0249e-11
-6.3561e-11
2.48432e-11
-6.39911e-11
7.16459e-11
-7.60307e-11
2.85948e-11
-7.09069e-11
8.42679e-11
-9.01427e-11
3.26198e-11
-7.7248e-11
9.75401e-11
-1.05538e-10
3.61392e-11
-8.17496e-11
1.09874e-10
-1.20619e-10
-8.06587e-11
1.18976e-10
-1.35621e-10
2.35749e-12
-2.92201e-12
2.21751e-12
-2.28936e-12
4.4834e-12
-8.534e-12
6.52267e-12
-6.73695e-12
6.44688e-12
-1.38078e-11
1.07046e-11
-1.10653e-11
8.30981e-12
-1.89721e-11
1.50183e-11
-1.55421e-11
1.01313e-11
-2.4215e-11
1.9691e-11
-2.04076e-11
1.19717e-11
-2.96916e-11
2.49341e-11
-2.58874e-11
1.38968e-11
-3.55288e-11
3.09507e-11
-3.22014e-11
1.59831e-11
-4.18322e-11
3.79393e-11
-3.95697e-11
1.83227e-11
-4.86924e-11
4.60944e-11
-4.82156e-11
2.10302e-11
-5.61944e-11
5.56015e-11
-5.83652e-11
2.42531e-11
-6.44314e-11
6.66256e-11
-7.02441e-11
2.8184e-11
-7.3525e-11
7.92898e-11
-8.40721e-11
3.30563e-11
-8.3641e-11
9.3615e-11
-1.00032e-10
3.90596e-11
-9.49301e-11
1.09313e-10
-1.18121e-10
4.55203e-11
-1.06822e-10
1.24961e-10
-1.36972e-10
-1.18852e-10
1.3804e-10
-1.57809e-10
2.59421e-12
2.41742e-12
-2.49535e-12
-3.02805e-12
4.93043e-12
7.10678e-12
-7.33905e-12
-8.84908e-12
7.08151e-12
1.16498e-11
-1.20403e-11
-1.43344e-11
9.1124e-12
1.63158e-11
-1.68818e-11
-1.97294e-11
1.10851e-11
2.13427e-11
-2.21149e-11
-2.52386e-11
1.3063e-11
2.69498e-11
-2.79738e-11
-3.1035e-11
1.51159e-11
3.33458e-11
-3.46842e-11
-3.72671e-11
1.73263e-11
4.07332e-11
-4.24705e-11
-4.40668e-11
1.97974e-11
4.93103e-11
-5.156e-11
-5.15592e-11
2.26659e-11
5.92694e-11
-6.21861e-11
-5.98756e-11
2.61246e-11
7.07938e-11
-7.45948e-11
-6.91736e-11
3.04597e-11
8.40529e-11
-8.90582e-11
-7.96707e-11
3.60961e-11
9.91781e-11
-1.05887e-10
-9.16892e-11
4.35764e-11
1.16126e-10
-1.25372e-10
-1.05666e-10
5.23407e-11
1.33685e-10
-1.46437e-10
-1.21145e-10
1.50859e-10
-1.74032e-10
-1.43084e-10
2.0762e-13
-5.57066e-13
1.89133e-13
3.95033e-13
-1.62303e-12
5.56958e-13
5.68437e-13
-2.61327e-12
9.16172e-13
7.33174e-13
-3.56389e-12
1.28978e-12
8.93989e-13
-4.5003e-12
1.69828e-12
1.05529e-12
-5.4359e-12
2.16049e-12
1.22149e-12
-6.36982e-12
2.6936e-12
1.39771e-12
-7.2824e-12
3.31264e-12
1.59137e-12
-8.12699e-12
4.02888e-12
1.81618e-12
-8.81629e-12
4.84658e-12
2.10146e-12
-9.19865e-12
5.75722e-12
2.51228e-12
-9.01513e-12
6.72914e-12
3.18352e-12
-7.82113e-12
7.68779e-12
4.33558e-12
-4.89317e-12
8.4725e-12
6.00545e-12
3.95889e-13
8.78044e-12
7.6446e-12
7.85482e-12
6.18762e-13
-1.0973e-12
5.62525e-13
1.17724e-12
-3.19771e-12
1.65642e-12
1.69388e-12
-5.15085e-12
2.7244e-12
2.18458e-12
-7.02894e-12
3.83468e-12
2.66348e-12
-8.88376e-12
5.04806e-12
3.14365e-12
-1.07449e-11
6.42024e-12
3.63788e-12
-1.26159e-11
8.00224e-12
4.16019e-12
-1.44666e-11
9.83873e-12
4.72896e-12
-1.62212e-11
1.19632e-11
5.37491e-12
-1.77383e-11
1.4388e-11
6.15943e-12
-1.87856e-11
1.70858e-11
7.21228e-12
-1.90142e-11
1.99574e-11
8.7856e-12
-1.79666e-11
2.27712e-11
1.12403e-11
-1.52452e-11
2.50542e-11
1.44843e-11
-1.11893e-11
2.60297e-11
-8.30717e-12
2.35992e-11
1.0179e-12
-1.60431e-12
9.21768e-13
1.93647e-12
-4.67676e-12
2.71391e-12
2.78594e-12
-7.53822e-12
4.46259e-12
3.59246e-12
-1.02971e-11
6.27898e-12
4.37937e-12
-1.30336e-11
8.26203e-12
5.16813e-12
-1.57979e-11
1.05025e-11
5.97923e-12
-1.86066e-11
1.30838e-11
6.83312e-12
-2.14346e-11
1.60797e-11
7.75199e-12
-2.42023e-11
1.95462e-11
8.76385e-12
-2.67571e-11
2.35061e-11
9.91314e-12
-2.88544e-11
2.79178e-11
1.12811e-11
-3.01558e-11
3.26227e-11
1.30054e-11
-3.02978e-11
3.72542e-11
1.52293e-11
-2.91475e-11
4.11045e-11
1.76941e-11
-2.73159e-11
4.3138e-11
-2.66074e-11
4.15396e-11
1.39751e-12
-2.0615e-12
1.25838e-12
2.6583e-12
-6.01194e-12
3.70425e-12
3.82366e-12
-9.69826e-12
6.08866e-12
4.92949e-12
-1.32648e-11
8.56199e-12
6.00804e-12
-1.68214e-11
1.1258e-11
7.08915e-12
-2.04438e-11
1.42995e-11
8.20099e-12
-2.41707e-11
1.78002e-11
9.36995e-12
-2.79977e-11
2.18618e-11
1.06191e-11
-3.18667e-11
2.65654e-11
1.19643e-11
-3.56504e-11
3.19502e-11
1.3408e-11
-3.91351e-11
3.79758e-11
1.49269e-11
-4.20143e-11
4.44554e-11
1.6446e-11
-4.39277e-11
5.09442e-11
1.7806e-11
-4.46238e-11
5.65859e-11
1.87376e-11
-4.4324e-11
6.01277e-11
-4.43453e-11
5.95652e-11
1.75049e-12
-2.45264e-12
1.56486e-12
3.32902e-12
-7.15584e-12
4.60513e-12
4.78689e-12
-1.15543e-11
7.56514e-12
6.16895e-12
-1.58265e-11
1.06294e-11
7.51597e-12
-2.01124e-11
1.39617e-11
8.86628e-12
-2.45163e-11
1.77128e-11
1.02567e-11
-2.91057e-11
2.2023e-11
1.1722e-11
-3.39092e-11
2.70201e-11
1.32912e-11
-3.89102e-11
3.28108e-11
1.49783e-11
-4.40364e-11
3.94583e-11
1.67616e-11
-4.91422e-11
4.69424e-11
1.85425e-11
-5.39819e-11
5.50855e-11
2.0071e-11
-5.8169e-11
6.3422e-11
2.08873e-11
-6.11366e-11
7.10017e-11
2.05626e-11
-6.22993e-11
7.63146e-11
-6.22536e-11
7.69921e-11
2.07046e-12
-2.76234e-12
1.83513e-12
3.9363e-12
-8.06333e-12
5.39843e-12
5.65734e-12
-1.30327e-11
8.86156e-12
7.28618e-12
-1.78795e-11
1.24369e-11
8.87127e-12
-2.2772e-11
1.63125e-11
1.04592e-11
-2.78427e-11
2.06612e-11
1.20966e-11
-3.31906e-11
2.56446e-11
1.38303e-11
-3.88829e-11
3.14122e-11
1.57054e-11
-4.49556e-11
3.80935e-11
1.77571e-11
-5.14108e-11
4.57791e-11
1.99915e-11
-5.82089e-11
5.44822e-11
2.23403e-11
-6.52451e-11
6.40664e-11
2.45658e-11
-7.22775e-11
7.41047e-11
2.61279e-11
-7.87383e-11
8.36296e-11
2.62762e-11
-8.34633e-11
9.09016e-11
-8.40998e-11
9.32004e-11
2.35209e-12
-2.9768e-12
2.06478e-12
4.46983e-12
-8.69394e-12
6.07112e-12
6.41959e-12
-1.40669e-11
9.95619e-12
8.25996e-12
-1.93297e-11
1.39531e-11
1.00455e-11
-2.46742e-11
1.82672e-11
1.18299e-11
-3.02573e-11
2.30866e-11
1.36689e-11
-3.62063e-11
2.85867e-11
1.56231e-11
-4.26244e-11
3.49306e-11
1.77596e-11
-4.95966e-11
4.22636e-11
2.01524e-11
-5.7197e-11
5.06968e-11
2.28798e-11
-6.54978e-11
6.02752e-11
2.60096e-11
-7.4581e-11
7.09129e-11
2.95545e-11
-8.4535e-11
8.22533e-11
3.33486e-11
-9.53597e-11
9.33755e-11
3.66698e-11
-1.06374e-10
1.0236e-10
-1.16207e-10
1.05872e-10
2.59144e-12
2.25134e-12
-3.0847e-12
4.92213e-12
6.61607e-12
-9.01447e-12
7.06252e-12
1.08375e-11
-1.46024e-11
9.07485e-12
1.51619e-11
-2.00994e-11
1.10174e-11
1.98043e-11
-2.57134e-11
1.29482e-11
2.496e-11
-3.16191e-11
1.49291e-11
3.08095e-11
-3.79643e-11
1.70304e-11
3.75192e-11
-4.48769e-11
1.93363e-11
4.52369e-11
-5.24734e-11
2.19531e-11
5.40779e-11
-6.08685e-11
2.50214e-11
6.40976e-11
-7.01896e-11
2.87323e-11
7.52353e-11
-8.05967e-11
3.33382e-11
8.71865e-11
-9.23023e-11
3.90859e-11
9.91142e-11
-1.05523e-10
4.53893e-11
1.09063e-10
-1.19607e-10
1.12765e-10
-1.36516e-10
2.05237e-13
-5.66134e-13
1.68329e-13
3.89882e-13
-1.64954e-12
4.9551e-13
5.59459e-13
-2.65628e-12
8.14495e-13
7.18481e-13
-3.62333e-12
1.14535e-12
8.70516e-13
-4.57719e-12
1.50573e-12
1.01817e-12
-5.53283e-12
1.91142e-12
1.16302e-12
-6.49195e-12
2.37618e-12
1.30546e-12
-7.43974e-12
2.91093e-12
1.44492e-12
-8.33952e-12
3.5215e-12
1.58074e-12
-9.12498e-12
4.20453e-12
1.71521e-12
-9.68976e-12
4.9399e-12
1.85901e-12
-9.87399e-12
5.67761e-12
2.03434e-12
-9.45082e-12
6.31563e-12
2.24944e-12
-8.1446e-12
6.66987e-12
2.39721e-12
-5.88546e-12
6.5028e-12
-2.98499e-12
5.85881e-12
6.11854e-13
-1.115e-12
5.00656e-13
1.16231e-12
-3.24941e-12
1.4737e-12
1.66786e-12
-5.23466e-12
2.4221e-12
2.14202e-12
-7.14468e-12
3.4054e-12
2.59554e-12
-9.03323e-12
4.47592e-12
3.03633e-12
-1.09325e-11
5.68043e-12
3.46909e-12
-1.28502e-11
7.05985e-12
3.8946e-12
-1.47641e-11
8.64674e-12
4.30905e-12
-1.66141e-11
1.0459e-11
4.70453e-12
-1.82915e-11
1.24877e-11
5.07277e-12
-1.96306e-11
1.46753e-11
5.41251e-12
-2.04153e-11
1.68791e-11
5.73016e-12
-2.04329e-11
1.88139e-11
5.98963e-12
-1.96497e-11
1.99906e-11
5.98128e-12
-1.85432e-11
1.98456e-11
-1.87e-11
1.81407e-11
1.00717e-12
-1.62991e-12
8.20426e-13
1.91327e-12
-4.7515e-12
2.41466e-12
2.74551e-12
-7.65924e-12
3.96768e-12
3.52636e-12
-1.0464e-11
5.5765e-12
4.27393e-12
-1.32482e-11
7.32631e-12
5.00187e-12
-1.60653e-11
9.29334e-12
5.71845e-12
-1.8936e-11
1.15447e-11
6.42458e-12
-2.18434e-11
1.41347e-11
7.11031e-12
-2.47239e-11
1.70949e-11
7.75e-12
-2.74576e-11
2.04159e-11
8.29696e-12
-2.98649e-11
2.40144e-11
8.67603e-12
-3.17297e-11
2.76814e-11
8.77054e-12
-3.28954e-11
3.10101e-11
8.40381e-12
-3.34859e-11
3.3345e-11
7.4446e-12
-3.4102e-11
3.4006e-11
-3.57766e-11
3.31731e-11
1.38403e-12
-2.09404e-12
1.12014e-12
2.62913e-12
-6.10687e-12
3.29615e-12
3.77277e-12
-9.85177e-12
5.41405e-12
4.84625e-12
-1.34758e-11
7.60505e-12
5.87538e-12
-1.70915e-11
9.9843e-12
6.88038e-12
-2.07769e-11
1.26551e-11
7.87467e-12
-2.45741e-11
1.57092e-11
8.86135e-12
-2.84841e-11
1.92223e-11
9.82606e-12
-3.24601e-11
2.32426e-11
1.07244e-11
-3.63977e-11
2.77679e-11
1.14608e-11
-4.01299e-11
3.27072e-11
1.18547e-11
-4.34394e-11
3.78202e-11
1.16014e-11
-4.61214e-11
4.26424e-11
1.03018e-11
-4.81375e-11
4.6442e-11
7.92009e-12
-4.97697e-11
4.84461e-11
-5.18442e-11
4.87949e-11
1.73556e-12
-2.49094e-12
1.39315e-12
3.29663e-12
-7.2675e-12
4.09839e-12
4.73025e-12
-1.17346e-11
6.72797e-12
6.07617e-12
-1.60736e-11
9.44288e-12
7.36811e-12
-2.04269e-11
1.23842e-11
8.63401e-12
-2.49e-11
1.56788e-11
9.89499e-12
-2.95617e-11
1.94401e-11
1.11613e-11
-3.44416e-11
2.37641e-11
1.24232e-11
-3.9526e-11
2.87164e-11
1.36331e-11
-4.47497e-11
3.43089e-11
1.46721e-11
-4.99842e-11
4.04575e-11
1.5288e-11
-5.50226e-11
4.69176e-11
1.50141e-11
-5.95603e-11
5.3201e-11
1.31823e-11
-6.31884e-11
5.85189e-11
9.62849e-12
-6.54962e-11
6.19568e-11
-6.69506e-11
6.35115e-11
2.05542e-12
-2.80505e-12
1.63404e-12
3.90354e-12
-8.18779e-12
4.80523e-12
5.59977e-12
-1.32333e-11
7.88234e-12
7.19156e-12
-1.81537e-11
1.10507e-11
8.72028e-12
-2.31191e-11
1.44722e-11
1.02223e-11
-2.82619e-11
1.82926e-11
1.17289e-11
-3.36798e-11
2.26427e-11
1.32633e-11
-3.94363e-11
2.76347e-11
1.48336e-11
-4.55604e-11
3.33502e-11
1.64163e-11
-5.20435e-11
3.98165e-11
1.79237e-11
-5.88294e-11
4.69634e-11
1.9136e-11
-6.57884e-11
5.45545e-11
1.95919e-11
-7.26497e-11
6.20891e-11
1.85161e-11
-7.88455e-11
6.87112e-11
1.53915e-11
-8.3336e-11
7.33294e-11
-8.40653e-11
7.58824e-11
2.33818e-12
-3.02245e-12
1.83886e-12
4.43928e-12
-8.82689e-12
5.40502e-12
6.36544e-12
-1.4281e-11
8.85774e-12
8.17037e-12
-1.96217e-11
1.24004e-11
9.90205e-12
-2.5042e-11
1.62101e-11
1.16048e-11
-3.06979e-11
2.04452e-11
1.33204e-11
-3.67129e-11
2.5248e-11
1.50882e-11
-4.3182e-11
3.0741e-11
1.69423e-11
-5.01753e-11
3.70155e-11
1.89041e-11
-5.77411e-11
4.41092e-11
2.09648e-11
-6.5906e-11
5.19623e-11
2.30447e-11
-7.46699e-11
6.03442e-11
2.49184e-11
-8.39746e-11
6.87336e-11
2.61134e-11
-9.3584e-11
7.61678e-11
2.60137e-11
-1.02644e-10
8.12882e-11
-1.09745e-10
8.37927e-11
2.57965e-12
2.0054e-12
-3.1317e-12
4.89586e-12
5.89136e-12
-9.15134e-12
7.01525e-12
9.64384e-12
-1.48227e-11
8.99569e-12
1.34777e-11
-2.03993e-11
1.08897e-11
1.75785e-11
-2.60901e-11
1.27472e-11
2.21111e-11
-3.2068e-11
1.46182e-11
2.72219e-11
-3.84751e-11
1.65551e-11
3.30354e-11
-4.54286e-11
1.86144e-11
3.96438e-11
-5.30253e-11
2.0858e-11
4.70843e-11
-6.13458e-11
2.33519e-11
5.52968e-11
-7.04577e-11
2.61552e-11
6.40478e-11
-8.04146e-11
2.92943e-11
7.28003e-11
-9.12395e-11
3.26848e-11
8.05254e-11
-1.02836e-10
3.57686e-11
8.56706e-11
-1.14323e-10
8.68435e-11
-1.26749e-10
2.02372e-13
-5.73501e-13
1.41693e-13
3.8378e-13
-1.67106e-12
4.16967e-13
5.49018e-13
-2.69117e-12
6.84942e-13
7.01716e-13
-3.67157e-12
9.6222e-13
8.44208e-13
-4.63962e-12
1.26318e-12
9.7728e-13
-5.61164e-12
1.60031e-12
1.09973e-12
-6.59165e-12
1.98396e-12
1.20763e-12
-7.56939e-12
2.42146e-12
1.29343e-12
-8.51736e-12
2.91497e-12
1.34498e-12
-9.38754e-12
3.45772e-12
1.3452e-12
-1.01095e-11
4.02807e-12
1.27177e-12
-1.05918e-11
4.58108e-12
1.09394e-12
-1.07293e-11
5.0398e-12
7.61769e-13
-1.04204e-11
5.29724e-12
2.39982e-13
-9.63705e-12
5.26969e-12
-7.99134e-12
5.28878e-12
6.03522e-13
-1.12939e-12
4.2146e-13
1.14457e-12
-3.29146e-12
1.24018e-12
1.63752e-12
-5.30274e-12
2.03699e-12
2.09331e-12
-7.23853e-12
2.86112e-12
2.51915e-12
-9.15408e-12
3.75518e-12
2.91775e-12
-1.10838e-11
4.75618e-12
3.28593e-12
-1.3039e-11
5.89498e-12
3.61233e-12
-1.50048e-11
7.19358e-12
3.87398e-12
-1.69352e-11
8.65904e-12
4.03247e-12
-1.87493e-11
1.02727e-11
4.03084e-12
-2.03334e-11
1.19733e-11
3.79201e-12
-2.156e-11
1.36343e-11
3.21974e-12
-2.23439e-11
1.50421e-11
2.21534e-12
-2.27473e-11
1.59097e-11
8.44954e-13
-2.3052e-11
1.60338e-11
-2.3926e-11
1.54918e-11
9.9412e-13
-1.65074e-12
6.90721e-13
1.88549e-12
-4.81229e-12
2.03228e-12
2.69801e-12
-7.75743e-12
3.33725e-12
3.45015e-12
-1.05987e-11
4.68582e-12
4.15458e-12
-1.34203e-11
6.14731e-12
4.81701e-12
-1.62778e-11
7.78215e-12
5.43392e-12
-1.91958e-11
9.64111e-12
5.98833e-12
-2.2164e-11
1.17612e-11
6.44297e-12
-2.51326e-11
1.41564e-11
6.73099e-12
-2.80082e-11
1.68017e-11
6.74505e-12
-3.06589e-11
1.96082e-11
6.32858e-12
-3.2946e-11
2.23925e-11
5.2869e-12
-3.4808e-11
2.48549e-11
3.48483e-12
-3.64032e-11
2.66161e-11
1.24202e-12
-3.81031e-11
2.74315e-11
-4.03106e-11
2.76721e-11
1.3674e-12
-2.12047e-12
9.43192e-13
2.59371e-12
-6.18391e-12
2.77462e-12
3.71221e-12
-9.97582e-12
4.55456e-12
4.74916e-12
-1.36451e-11
6.39139e-12
5.72356e-12
-1.73056e-11
8.37883e-12
6.64591e-12
-2.10371e-11
1.05989e-11
7.51537e-12
-2.48835e-11
1.3121e-11
8.31382e-12
-2.88496e-11
1.59976e-11
8.99565e-12
-3.28965e-11
1.92521e-11
9.47159e-12
-3.69361e-11
2.28603e-11
9.58534e-12
-4.08311e-11
2.67205e-11
9.08629e-12
-4.44128e-11
3.06212e-11
7.63158e-12
-4.75358e-11
3.42247e-11
4.94463e-12
-5.01836e-11
3.71205e-11
1.4917e-12
-5.24936e-11
3.90258e-11
-5.48483e-11
4.02541e-11
1.7167e-12
-2.52196e-12
1.17329e-12
3.25645e-12
-7.35777e-12
3.45056e-12
4.66151e-12
-1.18794e-11
5.66096e-12
5.96602e-12
-1.62701e-11
7.93737e-12
7.19616e-12
-2.06729e-11
1.03946e-11
8.36931e-12
-2.51935e-11
1.31335e-11
9.49124e-12
-2.99e-11
1.62404e-11
1.05499e-11
-3.48207e-11
1.97814e-11
1.15036e-11
-3.99405e-11
2.37909e-11
1.22605e-11
-4.51941e-11
2.82499e-11
1.26444e-11
-5.04556e-11
3.30541e-11
1.23448e-11
-5.55254e-11
3.79789e-11
1.08827e-11
-6.01109e-11
4.26633e-11
7.75364e-12
-6.38109e-11
4.66652e-11
3.30715e-12
-6.61809e-11
4.96276e-11
-6.74041e-11
5.17779e-11
2.03575e-12
-2.83951e-12
1.37642e-12
3.86159e-12
-8.28792e-12
4.04647e-12
5.52792e-12
-1.33935e-11
6.63355e-12
7.0764e-12
-1.83698e-11
9.29061e-12
8.54076e-12
-2.33869e-11
1.21496e-11
9.9468e-12
-2.85759e-11
1.53262e-11
1.13106e-11
-3.40305e-11
1.89201e-11
1.26337e-11
-3.9807e-11
2.30087e-11
1.38935e-11
-4.59231e-11
2.76355e-11
1.50245e-11
-5.23517e-11
3.27867e-11
1.58853e-11
-5.90083e-11
3.83573e-11
1.62011e-11
-6.57205e-11
4.41093e-11
1.55011e-11
-7.21588e-11
4.96454e-11
1.31739e-11
-7.77009e-11
5.4453e-11
9.22192e-12
-8.13415e-11
5.80754e-11
-8.10643e-11
6.07705e-11
2.31903e-12
-3.05911e-12
1.54926e-12
4.39834e-12
-8.93332e-12
4.55244e-12
6.29515e-12
-1.44509e-11
7.45586e-12
8.05756e-12
-1.98497e-11
1.04275e-11
9.72629e-12
-2.53223e-11
1.36115e-11
1.13357e-11
-3.10215e-11
1.7134e-11
1.29135e-11
-3.70642e-11
2.11032e-11
1.44792e-11
-4.35334e-11
2.56033e-11
1.60387e-11
-5.0479e-11
3.06823e-11
1.75746e-11
-5.7916e-11
3.6328e-11
1.90268e-11
-6.58169e-11
4.243e-11
2.02576e-11
-7.40942e-11
4.87279e-11
2.10127e-11
-8.25591e-11
5.47622e-11
2.09375e-11
-9.08243e-11
5.98834e-11
1.9904e-11
-9.80557e-11
6.34518e-11
-1.03084e-10
6.57385e-11
2.56212e-12
1.68988e-12
-3.16931e-12
4.85824e-12
4.96296e-12
-9.26044e-12
6.95037e-12
8.11907e-12
-1.49966e-11
8.89123e-12
1.13357e-11
-2.0632e-11
1.07268e-11
1.47642e-11
-2.63744e-11
1.24981e-11
1.85359e-11
-3.23925e-11
1.42429e-11
2.27618e-11
-3.882e-11
1.59961e-11
2.75275e-11
-4.57592e-11
1.77896e-11
3.28795e-11
-5.32815e-11
1.96512e-11
3.88013e-11
-6.14268e-11
2.15993e-11
4.51727e-11
-7.01966e-11
2.36338e-11
5.171e-11
-7.95414e-11
2.57309e-11
5.78968e-11
-8.93343e-11
2.78575e-11
6.2958e-11
-9.93105e-11
2.98594e-11
6.60675e-11
-1.08658e-10
6.69111e-11
-1.18692e-10
1.99441e-13
-5.79164e-13
1.1032e-13
3.77589e-13
-1.68758e-12
3.24542e-13
5.38542e-13
-2.71794e-12
5.32821e-13
6.85104e-13
-3.70861e-12
7.47915e-13
8.185e-13
-4.68755e-12
9.80701e-13
9.37962e-13
-5.67195e-12
1.24034e-12
1.04008e-12
-6.66754e-12
1.53411e-12
1.11779e-12
-7.66739e-12
1.86661e-12
1.1591e-12
-8.65031e-12
2.23812e-12
1.14588e-12
-9.57979e-12
2.64194e-12
1.05338e-12
-1.04048e-11
3.06088e-12
8.51131e-13
-1.10634e-11
3.46382e-12
5.05484e-13
-1.14851e-11
3.80548e-12
-1.18651e-14
-1.15788e-11
4.03683e-12
-6.54479e-13
-1.12211e-11
4.13277e-12
-9.72315e-12
4.39653e-12
5.94985e-13
-1.14051e-12
3.28163e-13
1.12654e-12
-3.3239e-12
9.6537e-13
1.60701e-12
-5.35521e-12
1.58476e-12
2.04495e-12
-7.31067e-12
2.22413e-12
2.44436e-12
-9.24655e-12
2.91568e-12
2.80351e-12
-1.11986e-11
3.68661e-12
3.11298e-12
-1.31809e-11
4.55864e-12
3.35263e-12
-1.51836e-11
5.54567e-12
3.48751e-12
-1.717e-11
6.64906e-12
3.46379e-12
-1.90763e-11
7.85009e-12
3.20692e-12
-2.08152e-11
9.09998e-12
2.62669e-12
-2.22941e-11
1.03103e-11
1.64004e-12
-2.34506e-11
1.13528e-11
2.42387e-13
-2.42985e-11
1.20874e-11
-1.27659e-12
-2.49184e-11
1.24401e-11
-2.56343e-11
1.23786e-11
9.8069e-13
-1.66688e-12
5.37885e-13
1.85713e-12
-4.85931e-12
1.58219e-12
2.65004e-12
-7.83316e-12
2.59679e-12
3.37416e-12
-1.0702e-11
3.64316e-12
4.03723e-12
-1.3551e-11
4.77367e-12
4.63821e-12
-1.64372e-11
6.0328e-12
5.16422e-12
-1.93871e-11
7.45636e-12
5.5855e-12
-2.23952e-11
9.06796e-12
5.84812e-12
-2.54196e-11
1.08718e-11
5.86573e-12
-2.83812e-11
1.28415e-11
5.51331e-12
-3.117e-11
1.49052e-11
4.63366e-12
-3.3671e-11
1.69335e-11
3.08714e-12
-3.58248e-11
1.87441e-11
9.19425e-13
-3.77158e-11
2.01458e-11
-1.25938e-12
-3.95312e-11
2.1036e-11
-4.14864e-11
2.15517e-11
1.35014e-12
-2.14096e-12
7.34619e-13
2.55729e-12
-6.24348e-12
2.16053e-12
3.65061e-12
-1.00713e-11
3.5447e-12
4.65167e-12
-1.37741e-11
4.97011e-12
5.5733e-12
-1.74664e-11
6.50755e-12
6.41771e-12
-2.12285e-11
8.21745e-12
7.17274e-12
-2.51049e-11
1.0149e-11
7.80533e-12
-2.91015e-11
1.23358e-11
8.25143e-12
-3.31822e-11
1.47869e-11
8.40249e-12
-3.72643e-11
1.74732e-11
8.09042e-12
-4.12187e-11
2.03102e-11
7.08257e-12
-4.48815e-11
2.31459e-11
5.13166e-12
-4.80935e-11
2.57733e-11
2.19841e-12
-5.07721e-11
2.79859e-11
-9.62555e-13
-5.29396e-11
2.9654e-11
-5.48916e-11
3.08471e-11
1.6969e-12
-2.54595e-12
9.14013e-13
3.21466e-12
-7.42738e-12
2.68741e-12
4.59086e-12
-1.19904e-11
4.40666e-12
5.85432e-12
-1.64186e-11
6.17343e-12
7.0244e-12
-2.08552e-11
8.07449e-12
8.10939e-12
-2.5405e-11
1.01842e-11
9.10293e-12
-3.01336e-11
1.25637e-11
9.97739e-12
-3.5066e-11
1.52555e-11
1.06728e-11
-4.01818e-11
1.82744e-11
1.10802e-11
-4.54081e-11
2.15912e-11
1.10179e-11
-5.06079e-11
2.51141e-11
1.02078e-11
-5.5563e-11
2.86758e-11
8.29311e-12
-5.99495e-11
3.20479e-11
5.03693e-12
-6.33176e-11
3.50023e-11
1.06489e-12
-6.51962e-11
3.73655e-11
-6.5777e-11
3.91485e-11
2.01477e-12
-2.86607e-12
1.07248e-12
3.81727e-12
-8.36481e-12
3.15214e-12
5.453e-12
-1.35155e-11
5.16473e-12
6.95806e-12
-1.85317e-11
7.22723e-12
8.35921e-12
-2.35827e-11
9.43936e-12
9.67304e-12
-2.87969e-11
1.18866e-11
1.09036e-11
-3.42629e-11
1.46394e-11
1.20372e-11
-4.00281e-11
1.77475e-11
1.30341e-11
-4.60962e-11
2.12294e-11
1.38137e-11
-5.24188e-11
2.50556e-11
1.42322e-11
-5.88792e-11
2.91261e-11
1.40524e-11
-6.526e-11
3.32522e-11
1.2932e-11
-7.11768e-11
3.71657e-11
1.05357e-11
-7.59682e-11
4.05837e-11
7.14346e-12
-7.87e-11
4.32841e-11
-7.75888e-11
4.53291e-11
2.29813e-12
-3.08727e-12
1.20736e-12
4.35416e-12
-9.01469e-12
3.54691e-12
6.22044e-12
-1.45794e-11
5.80596e-12
7.93962e-12
-2.00191e-11
8.11302e-12
9.54567e-12
-2.55245e-11
1.05772e-11
1.10642e-11
-3.12443e-11
1.32917e-11
1.25117e-11
-3.72875e-11
1.63327e-11
1.38934e-11
-4.3724e-11
1.9754e-11
1.51993e-11
-5.05824e-11
2.3575e-11
1.63982e-11
-5.78452e-11
2.77629e-11
1.74271e-11
-6.54362e-11
3.22051e-11
1.81803e-11
-7.3201e-11
3.66816e-11
1.85173e-11
-8.08737e-11
4.08589e-11
1.83399e-11
-8.80269e-11
4.43447e-11
1.78023e-11
-9.39735e-11
4.68238e-11
-9.79396e-11
4.84598e-11
2.54239e-12
1.31714e-12
-3.19809e-12
4.81647e-12
3.86734e-12
-9.34351e-12
6.87963e-12
6.3234e-12
-1.51274e-11
8.77953e-12
8.82121e-12
-2.08035e-11
1.05559e-11
1.14754e-11
-2.6577e-11
1.22421e-11
1.4383e-11
-3.26116e-11
1.38653e-11
1.76225e-11
-3.90314e-11
1.54479e-11
2.12473e-11
-4.59227e-11
1.70077e-11
2.52749e-11
-5.33321e-11
1.8559e-11
2.96658e-11
-6.12609e-11
2.0115e-11
3.42941e-11
-6.96561e-11
2.1696e-11
3.89097e-11
-7.83957e-11
2.33629e-11
4.31171e-11
-8.72763e-11
2.52862e-11
4.64142e-11
-9.60075e-11
2.75684e-11
4.83748e-11
-1.03976e-10
4.88911e-11
-1.12898e-10
1.96844e-13
-5.83175e-13
7.53934e-14
3.7213e-13
-1.69931e-12
2.21744e-13
5.29371e-13
-2.73704e-12
3.63912e-13
6.70692e-13
-3.73512e-12
5.10542e-13
7.96451e-13
-4.72181e-12
6.68896e-13
9.04743e-13
-5.71478e-12
8.44949e-13
9.90683e-13
-6.72073e-12
1.04328e-12
1.04542e-12
-7.73467e-12
1.26655e-12
1.05506e-12
-8.73874e-12
1.51442e-12
1.00017e-12
-9.70161e-12
1.78207e-12
8.56603e-13
-1.0579e-11
2.05858e-12
5.99245e-13
-1.13141e-11
2.32599e-12
2.08673e-13
-1.18319e-11
2.56078e-12
-3.18393e-13
-1.20116e-11
2.74068e-12
-9.1952e-13
-1.16691e-11
2.85225e-12
-1.006e-11
3.10539e-12
5.87409e-13
-1.14848e-12
2.2429e-13
1.11062e-12
-3.34721e-12
6.59679e-13
1.58026e-12
-5.39294e-12
1.08255e-12
2.00292e-12
-7.36251e-12
1.51846e-12
2.38012e-12
-9.31263e-12
1.98891e-12
2.70685e-12
-1.12798e-11
2.51166e-12
2.96955e-12
-1.32795e-11
3.1004e-12
3.14312e-12
-1.53045e-11
3.76318e-12
3.18768e-12
-1.7323e-11
4.49941e-12
3.04667e-12
-1.92779e-11
5.29547e-12
2.64957e-12
-2.10895e-11
6.1201e-12
1.92573e-12
-2.26665e-11
6.92143e-12
8.39417e-13
-2.39253e-11
7.63063e-12
-5.36517e-13
-2.48123e-11
8.17777e-12
-1.87636e-12
-2.53111e-11
8.51448e-12
-2.56929e-11
8.55994e-12
9.68738e-13
-1.67855e-12
3.6769e-13
1.83202e-12
-4.89333e-12
1.08139e-12
2.60786e-12
-7.88782e-12
1.77425e-12
3.30795e-12
-1.07761e-11
2.48776e-12
3.93616e-12
-1.36439e-11
3.25687e-12
4.48651e-12
-1.65484e-11
4.11065e-12
4.93993e-12
-1.95175e-11
5.07175e-12
5.25957e-12
-2.2547e-11
6.15395e-12
5.38517e-12
-2.55984e-11
7.35754e-12
5.2287e-12
-2.85966e-11
8.66277e-12
4.67628e-12
-3.14343e-11
1.00229e-11
3.60898e-12
-3.39891e-11
1.13608e-11
1.97052e-12
-3.61679e-11
1.25757e-11
-7.17884e-14
-3.79776e-11
1.35658e-11
-1.88155e-12
-3.95263e-11
1.42538e-11
-4.10479e-11
1.46535e-11
1.33472e-12
-2.15584e-12
5.02272e-13
2.52487e-12
-6.28668e-12
1.47699e-12
3.5962e-12
-1.01401e-11
2.42242e-12
4.56635e-12
-1.38662e-11
3.39452e-12
5.44334e-12
-1.75795e-11
4.44051e-12
6.2233e-12
-2.136e-11
5.59995e-12
6.8866e-12
-2.52514e-11
6.90404e-12
7.39213e-12
-2.92591e-11
8.37241e-12
7.66958e-12
-3.33456e-11
1.00075e-11
7.61155e-12
-3.7426e-11
1.17864e-11
7.06948e-12
-4.13649e-11
1.36528e-11
5.86722e-12
-4.49826e-11
1.55142e-11
3.87017e-12
-4.80827e-11
1.72534e-11
1.18649e-12
-5.05188e-11
1.87568e-11
-1.43345e-12
-5.22759e-11
1.99234e-11
-5.37133e-11
2.07167e-11
1.67908e-12
-2.56339e-12
6.25057e-13
3.17723e-12
-7.47779e-12
1.83756e-12
4.52806e-12
-1.20701e-11
3.01207e-12
5.75598e-12
-1.6524e-11
4.2171e-12
6.87498e-12
-2.09819e-11
5.51054e-12
7.88667e-12
-2.55471e-11
6.94117e-12
8.77675e-12
-3.02825e-11
8.54766e-12
9.50936e-12
-3.52083e-11
1.0355e-11
1.00191e-11
-4.02971e-11
1.23678e-11
1.02011e-11
-4.54651e-11
1.45618e-11
9.89996e-12
-5.05589e-11
1.68733e-11
8.90692e-12
-5.53357e-11
1.91964e-11
6.99656e-12
-5.94372e-11
2.13972e-11
4.09346e-12
-6.23789e-11
2.33461e-11
7.93867e-13
-6.37075e-11
2.49135e-11
-6.37205e-11
2.60306e-11
1.9957e-12
-2.88533e-12
7.33565e-13
3.77722e-12
-8.42034e-12
2.15573e-12
5.38584e-12
-1.36027e-11
3.53084e-12
6.85305e-12
-1.86456e-11
4.93772e-12
8.20006e-12
-2.37168e-11
6.44296e-12
9.43669e-12
-2.89419e-11
8.10267e-12
1.05591e-11
-3.4404e-11
9.96136e-12
1.15457e-11
-4.01422e-11
1.20479e-11
1.23521e-11
-4.61466e-11
1.43683e-11
1.29033e-11
-5.23492e-11
1.68956e-11
1.30848e-11
-5.86066e-11
1.95575e-11
1.27329e-11
-6.46685e-11
2.22285e-11
1.16428e-11
-7.01206e-11
2.47438e-11
9.64645e-12
-7.43004e-11
2.69373e-11
6.98875e-12
-7.63607e-11
2.86577e-11
-7.47378e-11
2.98833e-11
2.2789e-12
-3.10764e-12
8.25955e-13
4.31377e-12
-9.07325e-12
2.42607e-12
6.15273e-12
-1.46709e-11
3.96978e-12
7.83388e-12
-2.01374e-11
5.54369e-12
9.38582e-12
-2.56612e-11
7.22072e-12
1.08276e-11
-3.1387e-11
9.06202e-12
1.21682e-11
-3.74163e-11
1.11157e-11
1.34055e-11
-4.38069e-11
1.34126e-11
1.45254e-11
-5.05694e-11
1.59581e-11
1.55019e-11
-5.76596e-11
1.8721e-11
1.62993e-11
-6.49667e-11
2.16165e-11
1.68806e-11
-7.22979e-11
2.44927e-11
1.72347e-11
-7.93606e-11
2.71364e-11
1.74262e-11
-8.57519e-11
2.93119e-11
1.75911e-11
-9.0928e-11
3.08254e-11
-9.43904e-11
3.17517e-11
2.52394e-12
9.01162e-13
-3.21885e-12
4.7777e-12
2.64555e-12
-9.40309e-12
6.81463e-12
4.3241e-12
-1.52201e-11
8.67812e-12
6.02845e-12
-2.09224e-11
1.04029e-11
7.83527e-12
-2.67125e-11
1.20162e-11
9.80825e-12
-3.2749e-11
1.35385e-11
1.19967e-11
-3.91473e-11
1.49855e-11
1.44311e-11
-4.59798e-11
1.63705e-11
1.71145e-11
-5.3272e-11
1.77119e-11
2.001e-11
-6.0996e-11
1.90446e-11
2.30207e-11
-6.90617e-11
2.04453e-11