/*--------------------------------*- C++ -*----------------------------------*\
| =========                 |                                                 |
| \\      /  F ield         | OpenFOAM: The Open Source CFD Toolbox           |
|  \\    /   O peration     | Version:  v1912                                 |
|   \\  /    A nd           | Website:  www.openfoam.com                      |
|    \\/     M anipulation  |                                                 |
\*---------------------------------------------------------------------------*/
FoamFile
{
    version     2.0;
    format      ascii;
    class       volScalarField;
    location    "0.42/fluid";
    object      p;
}
// * * * * * * * * * * * * * * * * * * * * * * * * * * * * * * * * * * * * * //

dimensions      [0 2 -2 0 0 0 0];


internalField   nonuniform List<scalar> 
14592
(
0.0617729
0.056214
0.0543613
0.0527877
0.0518302
0.0510289
0.0503449
0.049731
0.0491401
0.0486523
0.0481164
0.0478393
0.0472709
0.0475451
0.0467066
0.0489936
0.0575509
0.0558247
0.0541785
0.0528506
0.0519044
0.051105
0.050413
0.0497989
0.0492135
0.0487409
0.0482266
0.0479951
0.0474728
0.0479111
0.0470872
0.0503968
0.0556101
0.0549876
0.0537612
0.0527598
0.051877
0.051105
0.0504085
0.0497902
0.0492032
0.0487377
0.0482415
0.0480557
0.047591
0.0481905
0.0474338
0.0513429
0.0544027
0.0542305
0.0533585
0.0525839
0.0517863
0.0510537
0.0503626
0.0497418
0.0491495
0.0486843
0.0481961
0.0480441
0.0476283
0.0483623
0.047724
0.0519506
0.0536847
0.053638
0.0529817
0.052353
0.0516296
0.0509325
0.0502455
0.0496133
0.0489981
0.0485031
0.0479783
0.047794
0.0473381
0.0480912
0.0474524
0.0519163
0.0531952
0.0531902
0.0526707
0.052132
0.0514637
0.0507925
0.0501074
0.0494625
0.0488251
0.0483032
0.0477526
0.0475601
0.0471173
0.0479905
0.0475096
0.0524431
0.0528779
0.0528837
0.0524337
0.0519397
0.0512977
0.0506312
0.0499303
0.0492503
0.048558
0.0479543
0.0472887
0.0469288
0.0462394
0.0467984
0.0457648
0.0507049
0.0526861
0.0526957
0.0522744
0.051796
0.0511592
0.050484
0.0497617
0.0490468
0.0483089
0.0476456
0.0469178
0.0464948
0.0457817
0.0464949
0.0457218
0.0529646
0.0616611
0.0561041
0.0542882
0.0527557
0.0518523
0.0511114
0.0504965
0.0499617
0.0494623
0.049078
0.0486637
0.0484914
0.0480611
0.0482284
0.0474899
0.0483278
0.0574392
0.055713
0.0541045
0.0528185
0.0519272
0.0511891
0.050567
0.0500329
0.04954
0.0491718
0.0487791
0.0486484
0.0482536
0.0485275
0.0477529
0.0490416
0.0554952
0.0548713
0.0536819
0.0527223
0.0518948
0.0511845
0.0505579
0.0500195
0.0495242
0.0491625
0.0487851
0.0486963
0.0483472
0.0487505
0.0480046
0.0496129
0.0542856
0.0541117
0.0532757
0.0525422
0.0517994
0.0511277
0.0505058
0.049964
0.0494621
0.0490996
0.0487277
0.0486716
0.048363
0.0488869
0.0482253
0.0500388
0.0535647
0.0535161
0.0528949
0.0523061
0.051636
0.0509983
0.0503781
0.049822
0.0492928
0.0488956
0.0484784
0.0483827
0.0480143
0.0485457
0.047831
0.0498349
0.0530722
0.0530653
0.0525801
0.0520803
0.0514637
0.0508499
0.0502291
0.0496573
0.0491018
0.0486742
0.0482255
0.0481221
0.0477579
0.0484269
0.0478406
0.0503124
0.0527511
0.0527552
0.0523387
0.0518821
0.0512898
0.0506779
0.0500372
0.0494248
0.0488061
0.048286
0.0477041
0.0474153
0.0467583
0.0470983
0.0458176
0.0483202
0.0525553
0.0525632
0.0521749
0.0517327
0.0511437
0.0505205
0.0498547
0.0492028
0.0485325
0.0479468
0.0472946
0.0469459
0.0462608
0.046825
0.0457841
0.0507303
0.0615895
0.056034
0.0542464
0.052748
0.0518912
0.0512057
0.0506583
0.0502061
0.0498117
0.0495601
0.0493324
0.0493897
0.0493466
0.0498912
0.0500256
0.0510128
0.0573677
0.0556416
0.0540622
0.052811
0.0519673
0.0512854
0.0507318
0.0502816
0.0498955
0.0496626
0.0494598
0.0495619
0.049561
0.0502074
0.0503488
0.05168
0.0554205
0.0547956
0.0536347
0.0527098
0.0519301
0.0512764
0.0507184
0.0502639
0.0498751
0.0496487
0.0494606
0.0496063
0.0496531
0.0504346
0.0506392
0.0522639
0.0542086
0.0540333
0.053225
0.0525256
0.0518299
0.0512143
0.0506603
0.0502016
0.049805
0.0495774
0.0493936
0.0495741
0.0496618
0.0505725
0.0508707
0.0526966
0.0534845
0.0534344
0.0528399
0.0522841
0.0516599
0.0510766
0.0505221
0.0500462
0.049618
0.0493509
0.0491134
0.0492481
0.0492593
0.0501732
0.0503825
0.0523914
0.0529888
0.0529805
0.0525213
0.0520532
0.051481
0.0509197
0.0503619
0.0498671
0.0494077
0.0491052
0.0488275
0.0489498
0.0489468
0.0500006
0.0502886
0.0527669
0.0526639
0.0526667
0.0522753
0.0518491
0.0512992
0.0507369
0.050155
0.0496137
0.0490819
0.0486743
0.0482406
0.0481505
0.0477901
0.0484625
0.0478596
0.0503216
0.0524642
0.0524708
0.0521069
0.0516939
0.0511452
0.050569
0.049958
0.0493716
0.04878
0.0482962
0.0477745
0.0476074
0.0471743
0.0480598
0.0475593
0.0525
0.0615443
0.0559896
0.0542233
0.0527509
0.05193
0.0512867
0.0507895
0.0503944
0.0500664
0.0498843
0.0497388
0.0498528
0.0498955
0.0503891
0.0505843
0.051306
0.0573225
0.0555962
0.0540387
0.0528141
0.052007
0.0513679
0.0508651
0.0504726
0.0501537
0.0499908
0.0498703
0.0500266
0.0501068
0.0506803
0.0508663
0.0518295
0.0553725
0.0547463
0.0536067
0.0527083
0.0519655
0.0513548
0.0508476
0.0504507
0.0501281
0.0499706
0.0498615
0.0500565
0.0501737
0.0508616
0.0510882
0.0522857
0.0541583
0.0539815
0.0531939
0.0525202
0.0518609
0.051288
0.050784
0.0503822
0.0500506
0.0498907
0.0497831
0.0500104
0.0501605
0.0509674
0.0512654
0.0526405
0.0534311
0.0533795
0.0528048
0.0522739
0.0516849
0.0511431
0.0506369
0.0502158
0.0498493
0.0496464
0.0494787
0.0496551
0.0497147
0.0505164
0.0506931
0.0522404
0.0529323
0.0529226
0.0524825
0.0520384
0.0515002
0.0509788
0.0504674
0.0500251
0.0496243
0.0493833
0.0491703
0.0493331
0.0493683
0.0503131
0.0505407
0.0525561
0.0526039
0.0526053
0.0522323
0.0518291
0.0513116
0.0507871
0.0502486
0.0497559
0.049277
0.0489246
0.0485447
0.0484866
0.0481393
0.0486959
0.0479648
0.0499559
0.0524005
0.0524059
0.0520597
0.0516688
0.0511511
0.0506106
0.0500402
0.0494992
0.0489559
0.0485231
0.0480483
0.047913
0.0474832
0.0482728
0.0476146
0.0521004
0.0615183
0.0559644
0.0542145
0.0527629
0.0519715
0.0513641
0.0509112
0.0505688
0.0503058
0.0501983
0.0501496
0.050358
0.0505444
0.0511151
0.0515003
0.052154
0.0572967
0.0555704
0.0540298
0.0528264
0.0520495
0.0514469
0.0509891
0.0506503
0.0503977
0.0503109
0.0502891
0.0505412
0.050767
0.0514115
0.0517903
0.0526398
0.0553442
0.0547173
0.0535942
0.0527169
0.0520044
0.0514305
0.0509683
0.0506251
0.0503683
0.0502863
0.0502741
0.0505625
0.0508199
0.0515691
0.0519797
0.0530391
0.054128
0.0539503
0.0531785
0.0525256
0.0518961
0.0513596
0.0509001
0.0505514
0.0502846
0.0501994
0.0501869
0.0505065
0.0507921
0.0516566
0.0521274
0.0533555
0.0533981
0.0533454
0.052786
0.0522749
0.0517149
0.0512083
0.0507451
0.0503752
0.0500708
0.0499395
0.0498616
0.050126
0.0503102
0.0511636
0.0514901
0.0528848
0.0528966
0.0528859
0.0524604
0.0520354
0.051525
0.0510375
0.0505673
0.050174
0.0498321
0.0496595
0.0495305
0.0497779
0.0499262
0.0509197
0.0512702
0.0531299
0.052565
0.0525654
0.0522065
0.0518215
0.0513304
0.0508379
0.0503378
0.0498906
0.0494652
0.0491748
0.0488679
0.0488839
0.0486246
0.0492146
0.0485428
0.0503585
0.0523584
0.0523629
0.0520302
0.0516566
0.0511639
0.0506536
0.050119
0.0496198
0.049125
0.0487484
0.0483371
0.0482681
0.0479065
0.0487243
0.0480765
0.0523821
0.061504
0.0559505
0.054212
0.052775
0.0520041
0.0514213
0.0509976
0.0506881
0.0504625
0.0503917
0.0503847
0.0506174
0.050839
0.0513866
0.0517863
0.0523773
0.0572824
0.0555559
0.0540272
0.0528388
0.0520828
0.0515051
0.0510769
0.0507714
0.0505566
0.050507
0.050527
0.0508025
0.0510618
0.0516762
0.0520645
0.0528235
0.055328
0.0547003
0.0535887
0.0527263
0.0520348
0.051486
0.0510536
0.0507434
0.0505238
0.0504781
0.0505056
0.0508141
0.0510986
0.051808
0.052216
0.053169
0.0541101
0.0539316
0.0531709
0.0525324
0.0519237
0.0514119
0.0509817
0.0506657
0.0504353
0.0503856
0.0504108
0.0507489
0.0510566
0.0518759
0.0523326
0.0534485
0.0533781
0.0533245
0.0527756
0.0522784
0.0517385
0.0512559
0.050821
0.0504825
0.0502127
0.050115
0.0500713
0.0503514
0.0505504
0.0513539
0.0516505
0.0529299
0.0528744
0.0528628
0.0524475
0.0520358
0.0515447
0.0510803
0.0506371
0.0502739
0.0499648
0.0498242
0.0497264
0.0499881
0.0501448
0.0510873
0.0513921
0.0531358
0.0525404
0.0525399
0.0521907
0.0518184
0.0513456
0.0508749
0.0504002
0.049981
0.0495855
0.049324
0.0490432
0.0490702
0.0488085
0.0493434
0.048597
0.0502859
0.0523312
0.052335
0.0520116
0.0516501
0.0511748
0.0506851
0.0501742
0.0497011
0.0492335
0.0488835
0.0484945
0.0484354
0.0480652
0.0488312
0.0480916
0.0522695
0.0614973
0.055944
0.0542133
0.0527862
0.0520294
0.0514639
0.0510616
0.0507768
0.0505809
0.0505416
0.0505728
0.050837
0.0511016
0.0516605
0.0520954
0.0526574
0.0572757
0.0555492
0.0540284
0.0528502
0.0521086
0.0515486
0.0511422
0.050862
0.0506774
0.0506601
0.0507192
0.0510268
0.0513297
0.0519532
0.0523765
0.0530916
0.05532
0.0546919
0.053588
0.0527357
0.0520588
0.0515278
0.0511171
0.0508322
0.0506426
0.0506287
0.0506943
0.0510334
0.0513582
0.0520715
0.0525082
0.0534089
0.054101
0.0539219
0.0531686
0.05254
0.0519457
0.0514515
0.0510428
0.0507517
0.0505508
0.0505326
0.0505947
0.0509623
0.0513075
0.0521281
0.0526069
0.0536676
0.0533674
0.0533133
0.0527714
0.0522837
0.0517577
0.0512922
0.050878
0.0505636
0.0503219
0.0502543
0.0502451
0.0505528
0.0507844
0.0515861
0.0518947
0.0531172
0.0528622
0.0528501
0.0524415
0.0520389
0.0515611
0.0511131
0.0506897
0.0503496
0.0500671
0.0499551
0.0498892
0.0501767
0.0503608
0.0512994
0.0516049
0.0532909
0.0525264
0.0525255
0.0521827
0.051819
0.0513588
0.0509036
0.0504475
0.0500497
0.0496784
0.0494431
0.04919
0.0492394
0.0489967
0.0495226
0.0487559
0.0503781
0.0523156
0.0523189
0.0520016
0.0516482
0.0511849
0.0507097
0.0502161
0.0497628
0.0493172
0.0489908
0.0486257
0.0485862
0.0482281
0.0489829
0.0482072
0.0523169
0.0614943
0.0559418
0.054214
0.0527919
0.0520416
0.0514839
0.0510908
0.0508161
0.0506313
0.0506021
0.0506441
0.0509128
0.0511842
0.0517346
0.0521708
0.0527216
0.0572732
0.0555464
0.0540293
0.0528559
0.052121
0.0515689
0.0511717
0.0509015
0.050728
0.0507206
0.0507901
0.0511012
0.0514096
0.0520223
0.0524458
0.0531445
0.0553165
0.0546883
0.053588
0.0527404
0.0520702
0.0515471
0.0511456
0.0508706
0.0506916
0.0506872
0.050762
0.0511033
0.051431
0.0521303
0.0525638
0.053445
0.054097
0.0539176
0.0531678
0.0525437
0.0519561
0.0514697
0.05107
0.0507887
0.0505982
0.050589
0.0506598
0.0510289
0.0513754
0.0521803
0.0526524
0.0536923
0.0533626
0.0533081
0.0527697
0.0522863
0.0517667
0.0513088
0.0509033
0.0505984
0.0503666
0.0503076
0.0503063
0.0506149
0.050846
0.0516308
0.0519287
0.0531293
0.0528567
0.0528442
0.0524389
0.0520404
0.0515688
0.0511281
0.0507131
0.050382
0.0501089
0.0500051
0.0499463
0.0502344
0.0504164
0.051337
0.0516265
0.0532892
0.05252
0.0525188
0.0521791
0.0518193
0.051365
0.0509167
0.0504685
0.0500792
0.0497167
0.049489
0.0492419
0.0492916
0.0490449
0.0495524
0.048763
0.0503584
0.0523083
0.0523113
0.051997
0.0516474
0.0511896
0.0507209
0.0502347
0.0497895
0.0493519
0.0490325
0.0486725
0.0486329
0.0482689
0.0490042
0.0481989
0.0522769
0.0712805
0.060598
0.0570165
0.0540632
0.0523091
0.0508698
0.0496649
0.0485278
0.0473953
0.0462341
0.0449637
0.0436144
0.0420319
0.0403579
0.0383053
0.0362532
0.0669827
0.0598091
0.0566034
0.0539481
0.0522634
0.0508622
0.0496708
0.048543
0.0474192
0.0462669
0.0450059
0.0436689
0.0421004
0.0404439
0.0384047
0.0363623
0.0650148
0.0588037
0.0560045
0.0536795
0.0521162
0.0507894
0.0496276
0.0485173
0.0474039
0.04626
0.0450095
0.0436853
0.0421352
0.0404989
0.0384843
0.0364604
0.0637531
0.0579799
0.0555157
0.0534191
0.0519678
0.0507062
0.049573
0.0484772
0.0473701
0.0462298
0.0449843
0.0436665
0.0421289
0.0405073
0.0385143
0.0365092
0.0630033
0.0573635
0.0551015
0.0531533
0.0517937
0.0505893
0.0494842
0.0484016
0.0472988
0.0461585
0.0449133
0.043596
0.042066
0.040454
0.0384849
0.0365035
0.0624993
0.056911
0.0547805
0.0529263
0.0516335
0.0504711
0.0493874
0.0483136
0.0472125
0.0460697
0.0448232
0.0435049
0.0419835
0.0403824
0.0384436
0.0364918
0.062183
0.0566114
0.0545501
0.0527466
0.0514927
0.0503544
0.0492814
0.0482083
0.0471026
0.0459507
0.0446963
0.043369
0.0418496
0.040252
0.0383454
0.0364259
0.062004
0.0564378
0.0544068
0.0526245
0.0513864
0.0502558
0.0491835
0.048105
0.0469914
0.0458291
0.0445678
0.0432337
0.0417219
0.0401336
0.0382685
0.0363871
0.0669789
0.0598021
0.0565912
0.0539303
0.0522399
0.0508324
0.0496382
0.0485043
0.0473657
0.0461972
0.044915
0.0435563
0.0419549
0.0402744
0.0381888
0.0361454
0.062733
0.0593355
0.0563106
0.0538918
0.0522363
0.0508482
0.0496572
0.0485257
0.0473878
0.0462214
0.0449427
0.0435898
0.0419963
0.0403271
0.0382536
0.0362236
0.0607634
0.0584125
0.055777
0.0536811
0.0521242
0.0507949
0.049624
0.0485035
0.047371
0.0462097
0.0449387
0.0435959
0.0420189
0.0403675
0.038316
0.0363017
0.0595138
0.057602
0.0553124
0.0534452
0.0519936
0.0507238
0.0495768
0.0484674
0.0473394
0.0461806
0.0449141
0.0435776
0.0420132
0.0403763
0.0383464
0.036351
0.0587697
0.0569818
0.0549042
0.0531874
0.0518261
0.0506116
0.0494911
0.048394
0.0472702
0.0461115
0.0448457
0.0435102
0.0419543
0.0403275
0.038322
0.0363499
0.0582682
0.0565241
0.0545842
0.0529632
0.051669
0.0504961
0.0493968
0.0483088
0.0471874
0.0460271
0.0447616
0.0434267
0.0418816
0.0402676
0.0382951
0.0363526
0.0579534
0.0562217
0.0543542
0.0527849
0.0515302
0.050381
0.0492923
0.0482058
0.0470805
0.0459121
0.0446398
0.0432969
0.0417556
0.0401459
0.0382086
0.0362977
0.057775
0.0560472
0.0542114
0.0526642
0.0514257
0.0502844
0.0491964
0.0481053
0.0469735
0.0457961
0.0445189
0.0431715
0.0416412
0.0400436
0.0381527
0.0362803
0.0650221
0.0588087
0.0560115
0.0536892
0.0521319
0.0508155
0.0496697
0.0485721
0.0474613
0.0463221
0.0450582
0.0437235
0.0421013
0.0404153
0.0381805
0.0360666
0.0607769
0.0584274
0.0558009
0.0537145
0.0521706
0.0508597
0.0497083
0.048608
0.0474958
0.0463583
0.0450986
0.0437708
0.0421577
0.0404847
0.0382603
0.0361589
0.058814
0.0575667
0.0553415
0.0535775
0.052109
0.0508382
0.0496945
0.0485976
0.0474868
0.0463522
0.0450998
0.0437823
0.0421865
0.0405309
0.0383251
0.0362338
0.0575794
0.0567819
0.0549114
0.0533768
0.0520043
0.0507842
0.0496576
0.0485674
0.0474583
0.0463249
0.0450767
0.0437658
0.042184
0.0405446
0.0383612
0.0362894
0.0568447
0.0561725
0.0545202
0.0531369
0.0518502
0.0506803
0.0495757
0.0484944
0.0473866
0.0462509
0.0450016
0.0436899
0.0421158
0.0404857
0.0383295
0.0362836
0.0563483
0.0557181
0.0542065
0.0529195
0.0516984
0.0505674
0.0494814
0.0484072
0.0472999
0.046161
0.0449109
0.0435993
0.0420381
0.0404235
0.0383098
0.0363006
0.0560355
0.0554164
0.0539787
0.0527434
0.0515606
0.0504512
0.0493735
0.0482985
0.0471845
0.0460337
0.0447733
0.0434489
0.0418893
0.0402754
0.0382073
0.0362363
0.055857
0.0552412
0.0538358
0.0526225
0.0514552
0.0503519
0.0492734
0.0481923
0.0470696
0.0459074
0.0446404
0.0433096
0.0417636
0.0401643
0.0381607
0.0362397
0.0637702
0.0579947
0.0555442
0.0534644
0.0520386
0.0508109
0.0497195
0.0486674
0.0475944
0.0464965
0.0452604
0.0439637
0.0423153
0.0406313
0.0381685
0.035964
0.0595378
0.0576273
0.0553595
0.0535168
0.0520984
0.0508707
0.0497689
0.0487112
0.0476359
0.04654
0.0453088
0.0440213
0.0423848
0.0407201
0.0382702
0.0360821
0.0575893
0.0567914
0.0549338
0.0534144
0.0520626
0.0508667
0.0497656
0.0487069
0.0476306
0.0465366
0.045313
0.0440368
0.042419
0.0407721
0.0383331
0.0361431
0.0563681
0.0560226
0.0545214
0.0532316
0.0519711
0.0508215
0.0497335
0.0486787
0.0476025
0.0465087
0.0452893
0.0440207
0.0424187
0.0407906
0.0383741
0.0362035
0.0556425
0.0554228
0.0541406
0.0530018
0.0518243
0.0507216
0.0496522
0.0486032
0.0475255
0.0464267
0.0452038
0.0439316
0.0423357
0.0407151
0.0383283
0.0361866
0.0551512
0.0549731
0.0538316
0.0527886
0.0516749
0.0506092
0.0495563
0.0485121
0.0474328
0.0463288
0.0451041
0.0438314
0.0422512
0.0406501
0.0383198
0.0362266
0.0548405
0.0546731
0.0536052
0.0526133
0.0515365
0.0504905
0.0494436
0.0483953
0.0473056
0.0461849
0.0449445
0.0436515
0.0420685
0.0404608
0.0381911
0.0361441
0.0546618
0.0544976
0.0534618
0.0524913
0.051429
0.0503877
0.0493383
0.0482815
0.0471805
0.0460452
0.0447961
0.0434942
0.0419293
0.0403405
0.0381646
0.036189
0.063029
0.0573882
0.0551589
0.0532517
0.0519511
0.0508206
0.0498045
0.0488238
0.0478191
0.0468012
0.0456358
0.0444348
0.0428046
0.0411868
0.0384318
0.0361104
0.0588027
0.0570163
0.0549802
0.0533128
0.0520195
0.0508878
0.0498602
0.0488742
0.0478682
0.0468542
0.0456965
0.0445097
0.0428972
0.0413104
0.0385714
0.0362648
0.0568628
0.0561895
0.0545701
0.0532275
0.0519974
0.0508936
0.049863
0.0488737
0.0478658
0.0468538
0.045705
0.0445323
0.0429413
0.0413745
0.0386323
0.0363018
0.0556507
0.0554303
0.054168
0.0530549
0.0519136
0.0508532
0.0498329
0.0488454
0.0478361
0.0468239
0.0456798
0.0445169
0.0429448
0.0414028
0.0386832
0.0363739
0.0549318
0.0548376
0.0537944
0.0528317
0.051771
0.0507545
0.0497494
0.0487641
0.0477498
0.0467286
0.0455771
0.0444065
0.0428375
0.0413013
0.0386158
0.0363447
0.0544443
0.0543917
0.0534888
0.052621
0.0516222
0.0506405
0.049649
0.0486653
0.0476461
0.0466163
0.0454604
0.0442877
0.0427375
0.0412279
0.0386219
0.0364259
0.0541348
0.0540929
0.0532629
0.0524451
0.0514813
0.0505169
0.0495278
0.048535
0.0474992
0.0464443
0.0452626
0.0440554
0.042491
0.0409592
0.0384327
0.0363003
0.053955
0.0539164
0.053118
0.0523207
0.0513696
0.0504079
0.0494134
0.0484078
0.047356
0.0462802
0.0450843
0.0438613
0.0423169
0.0408086
0.0384191
0.0364072
0.0625192
0.0569308
0.0548564
0.0530729
0.0518801
0.0508399
0.0499024
0.0489996
0.0480715
0.0471432
0.0460566
0.0449607
0.0433377
0.0417756
0.0385689
0.0360417
0.0582953
0.056552
0.0546774
0.053136
0.0519515
0.0509102
0.0499616
0.0490542
0.048126
0.0472038
0.0461279
0.0450527
0.0434544
0.0419385
0.0387325
0.0361622
0.0563589
0.0557259
0.0542707
0.0530551
0.0519331
0.0509185
0.0499656
0.049054
0.0481235
0.0472041
0.0461387
0.045081
0.0435055
0.042008
0.038756
0.0360861
0.0551514
0.0549707
0.0538722
0.0528855
0.0518512
0.0508784
0.0499341
0.0490228
0.04809
0.0471699
0.0461098
0.0450646
0.0435107
0.0420439
0.0388056
0.0361456
0.0544359
0.0543812
0.0535013
0.052664
0.0517085
0.0507775
0.0498454
0.048933
0.0479914
0.047058
0.0459854
0.0449269
0.0433704
0.0419063
0.0387056
0.0360997
0.0539503
0.0539372
0.0531967
0.0524531
0.0515578
0.0506596
0.0497384
0.0488245
0.0478746
0.0469292
0.0458494
0.0447879
0.0432549
0.0418314
0.0387479
0.0362688
0.0536405
0.0536382
0.0529698
0.052275
0.0514128
0.0505292
0.0496065
0.0486783
0.0477048
0.0467243
0.0456061
0.0444918
0.0429278
0.0414606
0.0384882
0.0361131
0.053459
0.0534599
0.0528226
0.0521472
0.0512961
0.050413
0.0494815
0.0485363
0.0475416
0.0465339
0.0453961
0.0442611
0.042725
0.0413021
0.038549
0.0364193
0.0621778
0.0566077
0.0546342
0.0529404
0.0518397
0.0508871
0.0500373
0.0492309
0.0484107
0.0476219
0.0466941
0.045831
0.0444121
0.043204
0.0398166
0.0373308
0.0579552
0.0562243
0.054454
0.053004
0.0519124
0.0509596
0.0500998
0.0492903
0.0484721
0.0476927
0.04678
0.0459468
0.0445624
0.0434248
0.0400168
0.0373759
0.0560191
0.0553958
0.0540458
0.0529223
0.0518933
0.050967
0.0501026
0.0492887
0.0484685
0.0476932
0.0467936
0.0459848
0.0446289
0.0435215
0.0400303
0.0372023
0.0548135
0.0546417
0.0536478
0.0527525
0.0518102
0.0509247
0.0500676
0.0492529
0.0484294
0.0476537
0.0467605
0.0459696
0.044642
0.043583
0.0401032
0.0372734
0.0540989
0.054053
0.0532768
0.0525296
0.0516647
0.0508186
0.0499709
0.0491516
0.0483148
0.0475204
0.0466078
0.0457973
0.044459
0.0434034
0.0399651
0.0372193
0.0536133
0.0536089
0.0529713
0.0523166
0.0515103
0.0506946
0.0498546
0.0490301
0.0481805
0.0473691
0.0464442
0.045628
0.044315
0.0433197
0.040042
0.0375156
0.0533019
0.0533084
0.0527421
0.0521346
0.0513593
0.050555
0.0497087
0.048863
0.04798
0.047119
0.0461345
0.045234
0.0438477
0.0427563
0.0395823
0.0372276
0.0531176
0.0531274
0.0525914
0.052002
0.051236
0.0504292
0.0495699
0.0487013
0.0477893
0.0468904
0.0458737
0.0449375
0.0435708
0.0425376
0.0396604
0.0378127
0.0619364
0.0563737
0.0544706
0.0528441
0.0518199
0.050945
0.0501761
0.0494591
0.0487376
0.048069
0.0472706
0.0465727
0.0452665
0.0441889
0.0403297
0.0371343
0.057714
0.0559866
0.0542888
0.0529072
0.0518932
0.0510191
0.050241
0.0495222
0.0488042
0.0481474
0.0473667
0.0467047
0.0454327
0.0444213
0.040388
0.0364268
0.055776
0.055154
0.0538765
0.0528215
0.0518704
0.0510232
0.0502405
0.0495173
0.0487973
0.0481456
0.047379
0.0467453
0.0454974
0.0445042
0.0402654
0.0357045
0.05457
0.0543989
0.0534766
0.0526492
0.051784
0.0509769
0.0502005
0.0494756
0.0487512
0.048099
0.0473387
0.0467266
0.045508
0.0445698
0.040314
0.0356416
0.0538544
0.0538089
0.0531033
0.0524229
0.0516336
0.0508639
0.0500943
0.0493615
0.0486193
0.047943
0.0471553
0.0465164
0.0452744
0.0443374
0.0401221
0.0355643
0.0533673
0.0533634
0.0527955
0.0522065
0.0514741
0.0507325
0.049968
0.0492264
0.0484674
0.0477701
0.0469657
0.046322
0.0451099
0.0442661
0.0402795
0.0360617
0.0530533
0.0530603
0.0525628
0.0520198
0.0513163
0.0505828
0.0498075
0.0490385
0.0482368
0.0474764
0.0465918
0.0458346
0.0445047
0.0435163
0.0396282
0.0356392
0.0528655
0.0528761
0.0524082
0.051882
0.0511859
0.050447
0.049655
0.0488579
0.0480206
0.0472147
0.0462901
0.0454954
0.0441974
0.0433428
0.0399202
0.0368552
0.0526112
0.052622
0.0521931
0.0517023
0.0510455
0.050341
0.0495781
0.0488046
0.0479857
0.0471935
0.0462772
0.0454862
0.0441823
0.0433155
0.0398539
0.0367345
0.0526588
0.052669
0.0521995
0.0516713
0.050974
0.0502291
0.0494236
0.0485989
0.0477216
0.0468492
0.0458495
0.0449227
0.0435517
0.042506
0.0395881
0.0376982
0.0528352
0.0528359
0.0522838
0.05169
0.0509312
0.0501304
0.0492725
0.0483877
0.0474411
0.0464699
0.0453561
0.0442344
0.0426952
0.0412595
0.0384672
0.0362989
0.0532026
0.0531637
0.0524628
0.0517616
0.0509227
0.0500606
0.0491547
0.0482227
0.0472297
0.0461989
0.0450333
0.0438279
0.0422839
0.0407652
0.0383424
0.036296
0.0538089
0.0536443
0.0527153
0.0518518
0.0509155
0.0499887
0.0490397
0.0480662
0.0470325
0.0459487
0.0447348
0.0434541
0.0418929
0.040296
0.0380923
0.036086
0.0549358
0.0543212
0.0530304
0.0519333
0.0509014
0.0499228
0.0489532
0.0479612
0.046911
0.0458043
0.0445757
0.0432682
0.0417283
0.0401226
0.0380955
0.0361464
0.0568053
0.0550816
0.0533672
0.0519424
0.0508454
0.0498324
0.0488594
0.0478637
0.0468079
0.0456888
0.0444521
0.0431296
0.0416071
0.0400046
0.0380934
0.0361949
0.0610337
0.0554804
0.0535728
0.0519127
0.0508151
0.0498094
0.0488516
0.0478707
0.0468327
0.0457281
0.0445064
0.0431964
0.0416919
0.0400982
0.0382126
0.0363047
0.0524758
0.0524851
0.0520884
0.0516326
0.0510212
0.0503655
0.0496545
0.0489369
0.0481751
0.0474457
0.0465812
0.0458361
0.0444994
0.0434942
0.0395372
0.0354602
0.0525188
0.0525277
0.0520897
0.0515955
0.0509418
0.050243
0.0494856
0.0487116
0.0478848
0.0470671
0.0461111
0.0452277
0.0438356
0.0427265
0.0394832
0.0370593
0.0526906
0.0526901
0.052169
0.0516083
0.0508909
0.0501335
0.0493195
0.0484794
0.0475752
0.0466476
0.0455643
0.0444703
0.0429016
0.0414159
0.0383808
0.0359467
0.0530536
0.0530136
0.0523433
0.0516749
0.0508761
0.0500548
0.0491899
0.0482984
0.0473428
0.0463491
0.0452088
0.0440261
0.0424616
0.0409148
0.0383371
0.0361535
0.053656
0.0534906
0.0525918
0.0517601
0.050863
0.0499751
0.049064
0.0481271
0.047126
0.0460732
0.0448791
0.0436143
0.0420357
0.0404166
0.0381062
0.0360154
0.0547801
0.054165
0.0529044
0.0518388
0.050845
0.0499045
0.0489715
0.0480135
0.0469936
0.0459147
0.0447041
0.0434103
0.0418584
0.040236
0.0381349
0.0361249
0.0566482
0.0549248
0.0532406
0.0518468
0.0507868
0.0498102
0.0488722
0.0479092
0.0468818
0.0457882
0.044568
0.0432575
0.0417265
0.0401108
0.038146
0.0362001
0.0608769
0.0553257
0.0534482
0.051819
0.0507586
0.0497887
0.0488664
0.0479195
0.0469111
0.0458333
0.0446302
0.0433345
0.041825
0.0402209
0.038287
0.036332
0.0523802
0.0523883
0.0520152
0.0515873
0.0510141
0.050402
0.0497404
0.0490804
0.0483845
0.0477371
0.0469662
0.0463445
0.0451229
0.0442532
0.0401452
0.0357692
0.052419
0.0524268
0.0520118
0.0515441
0.0509268
0.0502686
0.0495563
0.0488335
0.048063
0.0473134
0.04643
0.0456401
0.0443184
0.0432968
0.0399033
0.0372587
0.0525864
0.052585
0.0520865
0.0515512
0.0508678
0.0501481
0.0493747
0.0485789
0.0477209
0.0468463
0.0458135
0.04478
0.0432396
0.041789
0.0386066
0.036035
0.0529455
0.0529048
0.0522565
0.0516131
0.0508468
0.0500606
0.0492328
0.0483804
0.0474641
0.0465133
0.0454108
0.0442705
0.0427192
0.0411886
0.0385056
0.0362337
0.0535445
0.0533784
0.0525013
0.0516938
0.0508281
0.0499731
0.0490959
0.0481935
0.0472258
0.0462072
0.045041
0.0438045
0.0422293
0.0406129
0.0382244
0.0360698
0.0546663
0.0540507
0.0528117
0.0517699
0.0508064
0.0498978
0.048997
0.0480705
0.0470805
0.0460311
0.0448433
0.0435707
0.0420193
0.0403941
0.0382353
0.0361738
0.0565332
0.05481
0.0531472
0.0517767
0.0507461
0.0497996
0.0488922
0.0479589
0.0469589
0.0458914
0.0446907
0.0433969
0.0418653
0.0402447
0.0382365
0.0362484
0.060762
0.0552124
0.0533564
0.0517507
0.0507197
0.0497794
0.0488879
0.047972
0.0469917
0.045941
0.0447586
0.0434807
0.0419726
0.0403645
0.0383908
0.0363931
0.0523126
0.0523195
0.0519635
0.0515567
0.0510128
0.050434
0.0498096
0.0491902
0.0485359
0.0479311
0.047194
0.0465926
0.0453419
0.0443725
0.0399626
0.0351392
0.0523476
0.0523544
0.0519561
0.0515083
0.050919
0.0502921
0.0496141
0.0489281
0.0481944
0.0474822
0.0466267
0.0458558
0.0445086
0.0434205
0.0398051
0.0368739
0.0525114
0.0525091
0.0520269
0.0515107
0.0508535
0.050163
0.0494208
0.0486577
0.0478312
0.0469876
0.0459757
0.044956
0.0433901
0.0418912
0.0385446
0.0358025
0.0528672
0.0528257
0.0521933
0.0515688
0.0508275
0.0500687
0.0492698
0.048447
0.0475586
0.0466347
0.0455498
0.0444215
0.0428513
0.0412889
0.0384947
0.0361181
0.0534634
0.0532967
0.0524352
0.0516458
0.0508044
0.0499752
0.0491246
0.048249
0.0473059
0.0463105
0.045159
0.0439323
0.0423427
0.0407038
0.0382377
0.0360141
0.0545832
0.0539672
0.0527437
0.0517198
0.0507797
0.0498964
0.0490211
0.0481196
0.0471525
0.0461243
0.0449503
0.0436869
0.0421256
0.0404836
0.0382687
0.0361552
0.0564491
0.054726
0.0530787
0.0517258
0.0507177
0.0497952
0.0489123
0.0480029
0.0470245
0.0459768
0.0447892
0.0435043
0.041966
0.0403327
0.0382828
0.0362538
0.0606783
0.0551297
0.0532893
0.0517012
0.0506931
0.0497763
0.0489097
0.0480189
0.0470612
0.0460315
0.0448638
0.0435967
0.0420844
0.0404658
0.0384537
0.0364151
0.0522671
0.0522732
0.05193
0.0515397
0.0510193
0.0504684
0.0498765
0.0492944
0.0486816
0.0481239
0.0474349
0.0468821
0.045658
0.0446788
0.0401077
0.0349682
0.0522989
0.052305
0.051919
0.0514869
0.0509197
0.0503187
0.0496703
0.0490176
0.0483198
0.0476476
0.0468301
0.0460974
0.0447633
0.0436658
0.0399169
0.036788
0.0524597
0.0524568
0.0519866
0.0514851
0.0508485
0.050182
0.0494663
0.0487325
0.0479362
0.0471251
0.0461417
0.0451491
0.0435859
0.0420758
0.0386239
0.0357573
0.0528128
0.0527707
0.0521499
0.0515398
0.0508182
0.0500814
0.0493068
0.04851
0.0476476
0.0467508
0.0456882
0.0445802
0.0430093
0.041437
0.0385677
0.0361108
0.0534067
0.0532395
0.0523893
0.0516136
0.050791
0.0499825
0.0491541
0.0483015
0.047381
0.0464081
0.0452742
0.0440626
0.0424708
0.0408231
0.0383028
0.0360241
0.0545248
0.0539085
0.0526963
0.0516858
0.0507637
0.0499005
0.0490461
0.0481658
0.0472192
0.0462109
0.0450519
0.0438008
0.0422373
0.0405873
0.0383315
0.0361754
0.0563899
0.0546668
0.0530307
0.0516909
0.0507002
0.0497966
0.0489336
0.0480442
0.0470848
0.0460552
0.0448809
0.0436066
0.0420668
0.0404266
0.0383454
0.0362822
0.0606192
0.0550714
0.0532424
0.0516676
0.0506769
0.0497787
0.0489322
0.0480625
0.0471242
0.0461133
0.04496
0.0437044
0.042192
0.0405675
0.0385261
0.0364533
0.0522373
0.0522426
0.0519084
0.0515296
0.0510256
0.0504939
0.0499237
0.0493652
0.0487762
0.0482415
0.0475692
0.0470222
0.0457771
0.0447386
0.0400118
0.0346368
0.0522667
0.0522722
0.0518947
0.0514734
0.0509218
0.0503388
0.0497104
0.0490792
0.0484025
0.0477506
0.0469468
0.0462196
0.0448662
0.0437241
0.0398551
0.0365773
0.0524251
0.0524217
0.0519598
0.0514686
0.0508465
0.0501967
0.0494994
0.0487847
0.048007
0.0472132
0.0462408
0.0452529
0.0436728
0.04213
0.0385887
0.0356253
0.0527761
0.0527335
0.0521208
0.0515209
0.050813
0.0500919
0.0493342
0.0485549
0.047709
0.0468275
0.0457745
0.044671
0.0430872
0.0414918
0.0385595
0.036039
0.0533683
0.0532007
0.0523584
0.0515923
0.0507831
0.0499892
0.0491764
0.0483398
0.0474341
0.0464748
0.0453494
0.0441422
0.042541
0.0408771
0.0383119
0.0359892
0.0544852
0.0538687
0.0526643
0.0516632
0.050754
0.0499051
0.0490656
0.0482003
0.0472675
0.046272
0.0451211
0.0438747
0.0423046
0.0406424
0.038353
0.0361629
0.0563497
0.0546266
0.0529982
0.0516678
0.0506893
0.0497994
0.0489508
0.0480757
0.0471296
0.046112
0.0449458
0.0436765
0.0421322
0.0404828
0.0383759
0.0362853
0.0605791
0.0550319
0.0532108
0.0516454
0.0506672
0.0497824
0.0489504
0.0480959
0.0471715
0.0461735
0.0450292
0.0437798
0.0422644
0.0406319
0.0385663
0.0364662
0.0522198
0.0522247
0.0518963
0.0515252
0.0510324
0.0505142
0.0499597
0.049419
0.0488492
0.0483347
0.0476811
0.0471488
0.0459042
0.044843
0.0400296
0.0344971
0.0522475
0.0522526
0.0518807
0.0514666
0.0509256
0.050355
0.0497409
0.0491258
0.0484659
0.0478314
0.0470427
0.0463272
0.0449714
0.0438116
0.0398733
0.0364982
0.0524043
0.0524006
0.0519441
0.0514597
0.0508473
0.0502091
0.0495247
0.0488242
0.0480609
0.0472818
0.0463212
0.0453423
0.0437587
0.0422023
0.0386087
0.0355811
0.0527539
0.052711
0.0521035
0.0515103
0.0508116
0.0501011
0.0493552
0.0485886
0.0477553
0.0468863
0.0458429
0.0447466
0.0431594
0.0415538
0.0385839
0.0360209
0.0533448
0.053177
0.0523397
0.05158
0.0507797
0.0499957
0.0491937
0.0483684
0.0474738
0.0465253
0.0454079
0.0442066
0.0426027
0.0409312
0.0383389
0.0359865
0.054461
0.0538443
0.0526448
0.05165
0.0507494
0.04991
0.0490807
0.0482258
0.0473032
0.0463174
0.0451737
0.0439324
0.0423603
0.0406919
0.0383818
0.0361686
0.0563249
0.0546018
0.0529784
0.0516541
0.0506837
0.0498029
0.0489642
0.048099
0.0471623
0.0461538
0.0449941
0.0437295
0.0421839
0.0405298
0.0384066
0.0362974
0.0605545
0.0550076
0.0531916
0.0516323
0.0506623
0.0497864
0.0489644
0.0481203
0.0472057
0.0462171
0.0450799
0.0438358
0.0423197
0.040683
0.0386021
0.0364833
0.0522116