/*--------------------------------*- C++ -*----------------------------------*\
| =========                 |                                                 |
| \\      /  F ield         | OpenFOAM: The Open Source CFD Toolbox           |
|  \\    /   O peration     | Version:  v1912                                 |
|   \\  /    A nd           | Website:  www.openfoam.com                      |
|    \\/     M anipulation  |                                                 |
\*---------------------------------------------------------------------------*/
FoamFile
{
    version     2.0;
    format      ascii;
    class       surfaceScalarField;
    location    "0.93/fluid";
    object      phi;
}
// * * * * * * * * * * * * * * * * * * * * * * * * * * * * * * * * * * * * * //

dimensions      [0 3 -1 0 0 0 0];
oriented        oriented;


internalField   nonuniform List<scalar> 
41600
(
5.00497e-05
1.26434e-05
3.25632e-07
-5.1872e-07
3.97502e-05
1.06526e-05
5.79639e-07
-9.3274e-07
3.19603e-05
8.17954e-06
5.18534e-07
-9.08184e-07
2.69823e-05
5.32673e-06
1.91052e-07
-5.39851e-07
2.39176e-05
3.32905e-06
-3.69216e-07
1.0487e-07
2.20672e-05
2.01904e-06
-1.10208e-06
9.33452e-07
2.08785e-05
1.26511e-06
-1.99297e-06
1.91661e-06
2.00026e-05
8.62565e-07
-3.05905e-06
3.07239e-06
1.92267e-05
6.68891e-07
-4.35746e-06
4.46445e-06
1.84184e-05
5.6958e-07
-5.96878e-06
6.20748e-06
1.74981e-05
4.89995e-07
-8.04028e-06
8.47058e-06
1.63483e-05
3.21259e-07
-1.06825e-05
1.15111e-05
1.48173e-05
3.84689e-08
-1.42565e-05
1.5749e-05
1.24047e-05
-6.97475e-07
-1.83563e-05
2.14663e-05
7.88358e-06
-1.26472e-06
-2.2988e-05
2.87739e-05
-3.63599e-06
-1.84244e-05
2.99439e-05
6.47459e-05
1.06714e-05
4.63866e-07
-7.37759e-07
6.33202e-05
1.26209e-05
8.85784e-07
-1.42829e-06
6.05954e-05
1.15681e-05
8.99763e-07
-1.56352e-06
5.75987e-05
8.98813e-06
4.85955e-07
-1.1507e-06
5.49416e-05
6.55909e-06
-3.67514e-07
-2.05363e-07
5.27598e-05
4.63068e-06
-1.60326e-06
1.17334e-06
5.09484e-05
3.34617e-06
-3.18915e-06
2.91956e-06
4.93162e-05
2.59909e-06
-5.13707e-06
5.03273e-06
4.7668e-05
2.24911e-06
-7.5271e-06
7.59508e-06
4.58034e-05
2.14487e-06
-1.0497e-05
1.07863e-05
4.35302e-05
2.16235e-06
-1.42864e-05
1.48872e-05
4.05034e-05
2.14737e-06
-1.91257e-05
2.03264e-05
3.6285e-05
2.02858e-06
-2.54961e-05
2.77244e-05
2.96213e-05
1.33217e-06
-3.27783e-05
3.74123e-05
1.92528e-05
3.67343e-07
-3.98916e-05
4.86281e-05
-2.7927e-06
-3.10001e-05
4.94096e-05
6.63671e-05
7.10098e-06
5.19057e-07
-8.1576e-07
6.87692e-05
1.08246e-05
1.01407e-06
-1.61984e-06
6.98128e-05
1.12858e-05
1.07621e-06
-1.83757e-06
6.97065e-05
9.88e-06
6.73121e-07
-1.45871e-06
6.89475e-05
8.02162e-06
-2.17641e-07
-4.85854e-07
6.78281e-05
6.306e-06
-1.55236e-06
9.96461e-07
6.64926e-05
5.06102e-06
-3.30461e-06
2.9252e-06
6.4951e-05
4.33138e-06
-5.48873e-06
5.29805e-06
6.31282e-05
4.06269e-06
-8.18725e-06
8.19647e-06
6.08641e-05
4.14787e-06
-1.15521e-05
1.18132e-05
5.79307e-05
4.4827e-06
-1.58414e-05
1.64544e-05
5.38772e-05
4.92298e-06
-2.13362e-05
2.26141e-05
4.80946e-05
5.38103e-06
-2.85466e-05
3.09767e-05
3.89551e-05
5.31973e-06
-3.69332e-05
4.20853e-05
2.4907e-05
4.49841e-06
-4.5119e-05
5.50361e-05
4.49505e-07
-3.55142e-05
5.7179e-05
6.53256e-05
4.57537e-06
5.45098e-07
-8.45076e-07
6.85425e-05
8.23138e-06
1.08074e-06
-1.70448e-06
7.11441e-05
9.47532e-06
1.17311e-06
-1.96417e-06
7.27146e-05
9.13189e-06
7.90099e-07
-1.61249e-06
7.33727e-05
8.10726e-06
-8.52049e-08
-6.58605e-07
7.32966e-05
6.9791e-06
-1.4094e-06
8.12495e-07
7.26537e-05
6.12251e-06
-3.1583e-06
2.73969e-06
7.15268e-05
5.68396e-06
-5.34909e-06
5.12334e-06
6.99107e-05
5.69881e-06
-8.06433e-06
8.04438e-06
6.76843e-05
6.1353e-06
-1.14605e-05
1.16995e-05
6.46153e-05
6.94952e-06
-1.57964e-05
1.63985e-05
6.02003e-05
8.04962e-06
-2.13812e-05
2.26695e-05
5.37201e-05
9.37018e-06
-2.87324e-05
3.12234e-05
4.33577e-05
1.0323e-05
-3.74199e-05
4.2779e-05
2.73219e-05
1.00985e-05
-4.6045e-05
5.64808e-05
4.69752e-06
-3.67464e-05
5.98202e-05
6.43887e-05
2.9838e-06
5.65764e-07
-8.62877e-07
6.72972e-05
5.94692e-06
1.13319e-06
-1.75729e-06
7.01735e-05
7.39282e-06
1.25401e-06
-2.0478e-06
7.2417e-05
7.71379e-06
8.96289e-07
-1.72163e-06
7.38648e-05
7.40554e-06
5.10299e-08
-7.97185e-07
7.45333e-05
6.9103e-06
-1.23214e-06
6.32432e-07
7.45189e-05
6.56011e-06
-2.92516e-06
2.50197e-06
7.38951e-05
6.5408e-06
-5.04325e-06
4.81024e-06
7.26751e-05
6.94933e-06
-7.66409e-06
7.6336e-06
7.07579e-05
7.82855e-06
-1.09427e-05
1.11666e-05
6.79164e-05
9.20886e-06
-1.51274e-05
1.57095e-05
6.3612e-05
1.10906e-05
-2.05455e-05
2.18089e-05
5.70295e-05
1.34844e-05
-2.77015e-05
3.01697e-05
4.61417e-05
1.58337e-05
-3.63072e-05
4.16844e-05
2.8806e-05
1.68752e-05
-4.49811e-05
5.55401e-05
9.95652e-06
-3.63316e-05
5.98785e-05
6.38304e-05
1.94674e-06
5.857e-07
-8.79019e-07
6.62866e-05
4.11012e-06
1.18368e-06
-1.8031e-06
6.90318e-05
5.43619e-06
1.33682e-06
-2.12533e-06
7.14826e-05
6.08167e-06
1.01242e-06
-1.83115e-06
7.33404e-05
6.28612e-06
2.07823e-07
-9.46195e-07
7.45043e-05
6.33904e-06
-1.01965e-06
4.26976e-07
7.49916e-05
6.4918e-06
-2.63491e-06
2.21596e-06
7.48404e-05
6.92558e-06
-4.64752e-06
4.41387e-06
7.40583e-05
7.76927e-06
-7.12599e-06
7.08815e-06
7.25495e-05
9.1307e-06
-1.02192e-05
1.04259e-05
7.00897e-05
1.11171e-05
-1.41574e-05
1.4709e-05
6.61091e-05
1.38594e-05
-1.9281e-05
2.04927e-05
5.9712e-05
1.74912e-05
-2.60633e-05
2.84536e-05
4.86356e-05
2.16336e-05
-3.4394e-05
3.96704e-05
3.03211e-05
2.47481e-05
-4.29067e-05
5.33484e-05
1.67114e-05
-3.52243e-05
5.87905e-05
6.35666e-05
1.1706e-06
6.08656e-07
-8.99086e-07
6.57211e-05
2.57056e-06
1.24003e-06
-1.85498e-06
6.83141e-05
3.62624e-06
1.4313e-06
-2.21433e-06
7.08287e-05
4.37933e-06
1.14942e-06
-1.96168e-06
7.29223e-05
4.92401e-06
3.96654e-07
-1.12813e-06
7.44348e-05
5.41392e-06
-7.61738e-07
1.74347e-07
7.53344e-05
6.00953e-06
-2.28086e-06
1.86347e-06
7.56388e-05
6.86021e-06
-4.15969e-06
3.9207e-06
7.53622e-05
8.10023e-06
-6.4498e-06
6.39541e-06
7.4438e-05
9.88485e-06
-9.28183e-06
9.45191e-06
7.26902e-05
1.23848e-05
-1.2847e-05
1.3327e-05
6.95852e-05
1.58951e-05
-1.74695e-05
1.85388e-05
6.42361e-05
2.07227e-05
-2.35297e-05
2.56473e-05
5.39776e-05
2.71413e-05
-3.11023e-05
3.58532e-05
3.54529e-05
3.38419e-05
-3.87278e-05
4.81588e-05
2.99897e-05
-3.2401e-05
5.45755e-05
6.34695e-05
6.34551e-07
-9.23658e-07
4.90168e-07
6.55023e-05
1.30245e-06
-1.91527e-06
1.15061e-06
6.80449e-05
1.53616e-06
-2.3167e-06
1.86418e-06
7.06245e-05
1.30325e-06
-2.11276e-06
2.60919e-06
7.28907e-05
6.10054e-07
-1.33923e-06
3.38703e-06
7.46619e-05
-4.71214e-07
-1.15967e-07
4.22987e-06
7.58873e-05
-1.88533e-06
1.46445e-06
5.205e-06
7.65803e-05
-3.61877e-06
3.36955e-06
6.41644e-06
7.67681e-05
-5.70383e-06
5.62808e-06
7.98823e-06
7.64145e-05
-8.24876e-06
8.3768e-06
1.01104e-05
7.53935e-05
-1.14024e-05
1.18046e-05
1.30036e-05
7.32247e-05
-1.54646e-05
1.63813e-05
1.71473e-05
6.9103e-05
-2.07186e-05
2.25514e-05
2.30115e-05
6.0112e-05
-2.74481e-05
3.16493e-05
3.19311e-05
4.26145e-05
-3.41992e-05
4.26085e-05
4.293e-05
-3.01357e-05
5.11321e-05
5.16079e-05
4.99838e-05
1.26496e-05
1.92168e-07
3.95585e-05
1.06715e-05
3.33446e-07
3.16289e-05
8.20217e-06
2.45953e-07
2.65208e-05
5.34651e-06
-4.73576e-08
2.33361e-05
3.3473e-06
-5.31738e-07
2.13636e-05
2.03901e-06
-1.16861e-06
2.00319e-05
1.29183e-06
-1.95313e-06
1.89734e-05
8.99913e-07
-2.9004e-06
1.79543e-05
7.20618e-07
-4.05899e-06
1.68257e-05
6.3887e-07
-5.47907e-06
1.54782e-05
5.84577e-07
-7.27743e-06
1.38026e-05
4.51413e-07
-9.45825e-06
1.15937e-05
2.27451e-07
-1.2275e-05
8.64211e-06
-4.20315e-07
-1.49844e-05
4.01537e-06
-1.00063e-06
-1.73606e-05
-2.82656e-06
-1.15824e-05
6.46531e-05
1.06861e-05
2.74263e-07
6.30448e-05
1.26575e-05
5.08112e-07
6.00904e-05
1.16194e-05
4.36993e-07
5.68476e-05
9.04413e-06
3.10742e-08
5.39407e-05
6.61862e-06
-7.31929e-07
5.14987e-05
4.69845e-06
-1.82068e-06
4.93922e-05
3.43209e-06
-3.22291e-06
4.73973e-05
2.7137e-06
-4.95591e-06
4.5278e-05
2.4036e-06
-7.09083e-06
4.27946e-05
2.34843e-06
-9.72316e-06
3.97013e-05
2.42908e-06
-1.30376e-05
3.56491e-05
2.48437e-06
-1.71065e-05
3.01585e-05
2.44991e-06
-2.22279e-05
2.245e-05
1.81669e-06
-2.73069e-05
1.17249e-05
7.70894e-07
-3.09381e-05
-2.27894e-06
-1.98229e-05
6.62736e-05
7.11928e-06
3.12259e-07
6.84849e-05
1.087e-05
5.90232e-07
6.9282e-05
1.13562e-05
5.42428e-07
6.89011e-05
9.96745e-06
1.30682e-07
6.78533e-05
8.12473e-06
-6.7593e-07
6.64265e-05
6.43063e-06
-1.85781e-06
6.47428e-05
5.22063e-06
-3.40939e-06
6.27777e-05
4.54301e-06
-5.35292e-06
6.04108e-05
4.34684e-06
-7.76359e-06
5.74337e-05
4.52422e-06
-1.07508e-05
5.35554e-05
4.97802e-06
-1.4512e-05
4.83102e-05
5.55111e-06
-1.91577e-05
4.10381e-05
6.16339e-06
-2.49879e-05
3.06312e-05
6.18698e-06
-3.08967e-05
1.6121e-05
5.25974e-06
-3.50977e-05
7.94334e-07
-2.24665e-05
6.52348e-05
4.59504e-06
3.34516e-07
6.82631e-05
8.28097e-06
6.41512e-07
7.06206e-05
9.55745e-06
6.14329e-07
7.19182e-05
9.24344e-06
2.1647e-07
7.22873e-05
8.24892e-06
-5.78508e-07
7.19014e-05
7.15865e-06
-1.75145e-06
7.09062e-05
6.35673e-06
-3.29924e-06
6.93513e-05
5.99617e-06
-5.24734e-06
6.71853e-05
6.11982e-06
-7.67135e-06
6.42359e-05
6.69886e-06
-1.06858e-05
6.02027e-05
7.70216e-06
-1.44873e-05
5.45574e-05
9.02453e-06
-1.92093e-05
4.65182e-05
1.06183e-05
-2.5148e-05
3.47931e-05
1.17499e-05
-3.12577e-05
1.82027e-05
1.14791e-05
-3.56741e-05
5.15808e-06
-2.29074e-05
6.43002e-05
3.00506e-06
3.556e-07
6.70232e-05
6.00073e-06
6.90382e-07
6.96616e-05
7.48495e-06
6.88131e-07
7.16419e-05
7.84576e-06
3.13662e-07
7.28137e-05
7.58098e-06
-4.52841e-07
7.3188e-05
7.13937e-06
-1.58719e-06
7.28397e-05
6.86293e-06
-3.08307e-06
7.181e-05
6.94686e-06
-4.96425e-06
7.00673e-05
7.50017e-06
-7.30175e-06
6.74587e-05
8.57432e-06
-1.02095e-05
6.36863e-05
1.02216e-05
-1.38744e-05
5.81775e-05
1.24349e-05
-1.84471e-05
5.00387e-05
1.52639e-05
-2.42083e-05
3.77433e-05
1.79609e-05
-3.02228e-05
1.9723e-05
1.91412e-05
-3.46229e-05
1.08083e-05
-2.22589e-05
6.37435e-05
1.97047e-06
3.76789e-07
6.60176e-05
4.16936e-06
7.40966e-07
6.85316e-05
5.5383e-06
7.69446e-07
7.07311e-05
6.23158e-06
4.2713e-07
7.23298e-05
6.49027e-06
-3.00182e-07
7.32213e-05
6.61023e-06
-1.38201e-06
7.34017e-05
6.85352e-06
-2.8059e-06
7.28781e-05
7.41334e-06
-4.59037e-06
7.16149e-05
8.43534e-06
-6.79802e-06
6.9465e-05
1.00432e-05
-9.53819e-06
6.61335e-05
1.23774e-05
-1.29817e-05
6.10073e-05
1.55744e-05
-1.72942e-05
5.30989e-05
1.98376e-05
-2.27286e-05
4.06052e-05
2.45647e-05
-2.85041e-05
2.14657e-05
2.81468e-05
-3.27728e-05
1.82231e-05
-2.11735e-05
6.34815e-05
1.19719e-06
4.00429e-07
6.5458e-05
2.6356e-06
7.97296e-07
6.78276e-05
3.7375e-06
8.62523e-07
7.01039e-05
4.54371e-06
5.60979e-07
7.19577e-05
5.14999e-06
-1.16919e-07
7.32239e-05
5.71648e-06
-1.1341e-06
7.38515e-05
6.41457e-06
-2.46957e-06
7.38299e-05
7.40764e-06
-4.13239e-06
7.31357e-05
8.85034e-06
-6.17054e-06
7.1656e-05
1.09209e-05
-8.6799e-06
6.91536e-05
1.38329e-05
-1.18001e-05
6.50472e-05
1.79069e-05
-1.56956e-05
5.83594e-05
2.35486e-05
-2.0553e-05
4.67836e-05
3.08272e-05
-2.5789e-05
2.73219e-05
3.84383e-05
-2.95577e-05
3.23581e-05
-1.92141e-05
6.33864e-05
4.25955e-07
5.19336e-07
6.52459e-05
8.58112e-07
1.22047e-06
6.75737e-05
9.63938e-07
1.98195e-06
6.99289e-05
7.08923e-07
2.78282e-06
7.19752e-05
8.73206e-08
3.62641e-06
7.35271e-05
-8.57893e-07
4.55129e-06
7.45174e-05
-2.09662e-06
5.63555e-06
7.49344e-05
-3.62676e-06
6.99861e-06
7.47732e-05
-5.47958e-06
8.78736e-06
7.39577e-05
-7.73401e-06
1.12216e-05
7.23116e-05
-1.04952e-05
1.45719e-05
6.93051e-05
-1.39206e-05
1.93694e-05
6.40577e-05
-1.81263e-05
2.62037e-05
5.39091e-05
-2.27565e-05
3.62842e-05
3.54779e-05
-2.60447e-05
4.87151e-05
-1.76472e-05
5.53475e-05
4.99335e-05
1.26557e-05
1.02903e-07
3.94092e-05
1.06887e-05
1.69046e-07
3.13623e-05
8.22359e-06
6.93235e-08
2.61355e-05
5.3668e-06
-1.87378e-07
2.28332e-05
3.3664e-06
-5.95825e-07
2.0736e-05
2.05945e-06
-1.13088e-06
1.92573e-05
1.31798e-06
-1.79239e-06
1.80125e-05
9.35022e-07
-2.59067e-06
1.67472e-05
7.67797e-07
-3.5615e-06
1.52949e-05
7.00435e-07
-4.7272e-06
1.3518e-05
6.65519e-07
-6.16599e-06
1.13212e-05
5.58111e-07
-7.81961e-06
8.51675e-06
3.68207e-07
-9.83878e-06
5.26387e-06
-2.27821e-07
-1.15037e-05
1.31568e-06
-8.91301e-07
-1.25212e-05
-2.49127e-06
-7.7755e-06
6.45817e-05
1.07011e-05
1.47174e-07
6.28296e-05
1.26928e-05
2.56042e-07
5.96839e-05
1.16698e-05
1.36479e-07
5.62229e-05
9.10152e-06
-2.42618e-07
5.30814e-05
6.68072e-06
-9.04743e-07
5.03844e-05
4.76847e-06
-1.83272e-06
4.7985e-05
3.51868e-06
-3.02425e-06
4.56327e-05
2.82627e-06
-4.49481e-06
4.30563e-05
2.55276e-06
-6.29941e-06
3.99837e-05
2.54291e-06
-8.49299e-06
3.61283e-05
2.68175e-06
-1.11985e-05
3.11659e-05
2.80104e-06
-1.4387e-05
2.46717e-05
2.83769e-06
-1.82032e-05
1.64466e-05
2.2504e-06
-2.156e-05
6.6166e-06
1.09674e-06
-2.30961e-05
-1.98798e-06
-1.37096e-05
6.62023e-05
7.13869e-06
1.72427e-07
6.8264e-05
1.09159e-05
3.05487e-07
6.88564e-05
1.1427e-05
1.92736e-07
6.82339e-05
1.00569e-05
-2.02205e-07
6.69177e-05
8.23066e-06
-9.09612e-07
6.51933e-05
6.55722e-06
-1.92217e-06
6.31669e-05
5.37963e-06
-3.24402e-06
6.0787e-05
4.74973e-06
-4.89647e-06
5.78947e-05
4.62049e-06
-6.93895e-06
5.42424e-05
4.88317e-06
-9.43877e-06
4.94917e-05
5.44715e-06
-1.25268e-05
4.31933e-05
6.14208e-06
-1.62003e-05
3.47391e-05
6.89277e-06
-2.05888e-05
2.36593e-05
6.98912e-06
-2.45556e-05
1.00521e-05
5.96356e-06
-2.63574e-05
1.11578e-06
-1.55181e-05
6.51662e-05
4.61634e-06
1.9071e-07
6.80475e-05
8.33219e-06
3.43847e-07
7.02036e-05
9.64092e-06
2.44328e-07
7.1262e-05
9.35666e-06
-1.41658e-07
7.1363e-05
8.39195e-06
-8.40762e-07
7.06774e-05
7.3378e-06
-1.84642e-06
6.93361e-05
6.58675e-06
-3.16503e-06
6.73616e-05
6.29812e-06
-4.82123e-06
6.46636e-05
6.52224e-06
-6.87515e-06
6.10275e-05
7.23259e-06
-9.3991e-06
5.61e-05
8.40981e-06
-1.25224e-05
4.93594e-05
9.93387e-06
-1.62606e-05
4.00642e-05
1.17731e-05
-2.07332e-05
2.75706e-05
1.30633e-05
-2.48383e-05
1.18221e-05
1.27736e-05
-2.67356e-05
5.73402e-06
-1.57036e-05
6.42338e-05
3.02774e-06
2.10386e-07
6.68135e-05
6.05598e-06
3.86874e-07
6.92567e-05
7.57774e-06
3.08182e-07
7.10069e-05
7.97745e-06
-5.73868e-08
7.19223e-05
7.75471e-06
-7.31012e-07
7.20113e-05
7.36406e-06
-1.70237e-06
7.13337e-05
7.15651e-06
-2.97526e-06
6.99045e-05
7.33616e-06
-4.57309e-06
6.76536e-05
8.02358e-06
-6.55217e-06
6.43842e-05
9.27747e-06
-8.98498e-06
5.9742e-05
1.11703e-05
-1.19926e-05
5.31505e-05
1.36843e-05
-1.5606e-05
4.37404e-05
1.69058e-05
-1.99308e-05
3.06181e-05
1.99149e-05
-2.39521e-05
1.3325e-05
2.12652e-05
-2.58213e-05
1.19113e-05
-1.51112e-05
6.36789e-05
1.99489e-06
2.30754e-07
6.58132e-05
4.22876e-06
4.33848e-07
6.81386e-05
5.63914e-06
3.82647e-07
7.01188e-05
6.37819e-06
4.62085e-08
7.14765e-05
6.68877e-06
-5.91921e-07
7.21027e-05
6.87228e-06
-1.51641e-06
7.19788e-05
7.20038e-06
-2.72591e-06
7.10865e-05
7.87763e-06
-4.23955e-06
6.93531e-05
9.06552e-06
-6.10652e-06
6.65871e-05
1.09015e-05
-8.39629e-06
6.24359e-05
1.3557e-05
-1.12172e-05
5.62719e-05
1.71691e-05
-1.4615e-05
4.71169e-05
2.20076e-05
-1.86754e-05
3.37667e-05
2.72718e-05
-2.25107e-05
1.52075e-05
3.13558e-05
-2.43042e-05
2.01801e-05
-1.42348e-05
6.34187e-05
1.22342e-06
2.53161e-07
6.52596e-05
2.69891e-06
4.86295e-07
6.74479e-05
3.84489e-06
4.6842e-07
6.95168e-05
4.70141e-06
1.68883e-07
7.11473e-05
5.36631e-06
-4.24902e-07
7.21723e-05
6.0052e-06
-1.2921e-06
7.25279e-05
6.79961e-06
-2.42436e-06
7.21803e-05
7.92612e-06
-3.83324e-06
7.10729e-05
9.5586e-06
-5.55628e-06
6.90528e-05
1.18958e-05
-7.65406e-06
6.58303e-05
1.51919e-05
-1.02125e-05
6.08021e-05
1.97863e-05
-1.32847e-05
5.29908e-05
2.61821e-05
-1.69163e-05
4.06017e-05
3.42658e-05
-2.0394e-05
2.15181e-05
4.28418e-05
-2.19601e-05
3.54363e-05
-1.29522e-05
6.33256e-05
2.76764e-07
5.47006e-07
6.5054e-05
5.42109e-07
1.28654e-06
6.72087e-05
5.60995e-07
2.09314e-06
6.93691e-05
3.03367e-07
2.94655e-06
7.12105e-05
-2.40165e-07
3.85235e-06
7.2547e-05
-1.04377e-06
4.85459e-06
7.32999e-05
-2.09154e-06
6.04168e-06
7.34377e-05
-3.38604e-06
7.54754e-06
7.29277e-05
-4.95149e-06
9.54056e-06
7.16589e-05
-6.83693e-06
1.22675e-05
6.94116e-05
-9.10329e-06
1.60473e-05
6.56297e-05
-1.18073e-05
2.1455e-05
5.94344e-05
-1.49527e-05
2.92039e-05
4.85748e-05
-1.80257e-05
4.03947e-05
3.0415e-05
-1.94012e-05
5.4358e-05
-1.19397e-05
6.01439e-05
4.98952e-05
1.26614e-05
4.63679e-08
3.9294e-05
1.07037e-05
6.65213e-08
3.11524e-05
8.24278e-06
-3.18838e-08
2.58265e-05
5.38564e-06
-2.47093e-07
2.24245e-05
3.38456e-06
-5.7836e-07
2.02238e-05
2.07933e-06
-1.00953e-06
1.86303e-05
1.34358e-06
-1.54246e-06
1.72533e-05
9.69887e-07
-2.1836e-06
1.58335e-05
8.1604e-07
-2.95778e-06
1.42096e-05
7.66949e-07
-3.87018e-06
1.22524e-05
7.59897e-07
-4.96871e-06
9.90843e-06
6.97651e-07
-6.17328e-06
7.04864e-06
5.81019e-07
-7.56001e-06
3.96114e-06
1.19631e-07
-8.53582e-06
6.94462e-07
-4.47108e-07
-8.80737e-06
-1.86321e-06
-5.21783e-06
6.45268e-05
1.07151e-05
6.66218e-08
6.26625e-05
1.27248e-05
9.92517e-08
5.93628e-05
1.17157e-05
-3.67488e-08
5.57202e-05
9.15467e-06
-3.69005e-07
5.23793e-05
6.73892e-06
-9.18274e-07
4.94666e-05
4.83445e-06
-1.67515e-06
4.68278e-05
3.59992e-06
-2.64173e-06
4.42014e-05
2.93156e-06
-3.83004e-06
4.13047e-05
2.69295e-06
-5.2797e-06
3.7867e-05
2.72914e-06
-7.01741e-06
3.36133e-05
2.93231e-06
-9.11723e-06
2.82906e-05
3.13673e-06
-1.15034e-05
2.15921e-05
3.29391e-06
-1.42176e-05
1.36236e-05
2.86566e-06
-1.63375e-05
4.94912e-06
1.8316e-06
-1.67003e-05
-1.21954e-06
-9.40414e-06
6.61476e-05
7.15719e-06
8.26918e-08
6.80928e-05
1.09585e-05
1.26664e-07
6.85208e-05
1.14925e-05
-1.20822e-08
6.76975e-05
1.01401e-05
-3.64344e-07
6.61534e-05
8.32944e-06
-9.56085e-07
6.41765e-05
6.67495e-06
-1.78571e-06
6.18671e-05
5.52625e-06
-2.86097e-06
5.91629e-05
4.93873e-06
-4.19947e-06
5.58923e-05
4.86965e-06
-5.84498e-06
5.18061e-05
5.21098e-06
-7.83444e-06
4.65773e-05
5.88066e-06
-1.02463e-05
3.98316e-05
6.70405e-06
-1.3022e-05
3.10952e-05
7.62144e-06
-1.61799e-05
2.02595e-05
7.88081e-06
-1.87351e-05
7.96572e-06
6.95157e-06
-1.91836e-05
1.88986e-06
-1.06618e-05
6.5114e-05
4.6369e-06
9.70384e-08
6.78814e-05
8.38047e-06
1.54374e-07
6.98761e-05
9.71867e-06
2.3561e-08
7.07361e-05
9.46187e-06
-3.2339e-07
7.06098e-05
8.52446e-06
-9.0958e-07
6.96701e-05
7.50255e-06
-1.73426e-06
6.80425e-05
6.79605e-06
-2.80725e-06
6.57395e-05
6.5698e-06
-4.14925e-06
6.26579e-05
6.88094e-06
-5.80492e-06
5.85804e-05
7.70511e-06
-7.81574e-06
5.31635e-05
9.03392e-06
-1.02587e-05
4.59584e-05
1.07377e-05
-1.30891e-05
3.63573e-05
1.28031e-05
-1.63137e-05
2.40863e-05
1.42794e-05
-1.89658e-05
9.66478e-06
1.40815e-05
-1.9444e-05
6.58126e-06
-1.07302e-05
6.41837e-05
3.04953e-06
1.14025e-07
6.6653e-05
6.10799e-06
1.90073e-07
6.89401e-05
7.66393e-06
7.58316e-08
7.04999e-05
8.09905e-06
-2.5436e-07
7.11984e-05
7.91408e-06
-8.19148e-07
7.10454e-05
7.56826e-06
-1.61508e-06
7.00959e-05
7.42034e-06
-2.65006e-06
6.83551e-05
7.6816e-06
-3.94403e-06
6.57405e-05
8.482e-06
-5.5387e-06
6.20521e-05
9.88481e-06
-7.47623e-06
5.69436e-05
1.19772e-05
-9.82743e-06
4.99057e-05
1.47297e-05
-1.25602e-05
4.01952e-05
1.82534e-05
-1.56707e-05
2.72764e-05
2.15027e-05
-1.82566e-05
1.12559e-05
2.29887e-05
-1.8708e-05
1.29676e-05
-1.02416e-05
6.36304e-05
2.0179e-06
1.32009e-07
6.56576e-05
4.28397e-06
2.30636e-07
6.78328e-05
5.73187e-06
1.39524e-07
6.96319e-05
6.51212e-06
-1.65977e-07
7.07859e-05
6.86878e-06
-7.00589e-07
7.11871e-05
7.10768e-06
-1.45706e-06
7.08123e-05
7.50849e-06
-2.43927e-06
6.96337e-05
8.28448e-06
-3.66383e-06
6.75671e-05
9.60896e-06
-5.16689e-06
6.44173e-05
1.16272e-05
-6.98881e-06
5.98381e-05
1.45302e-05
-9.19095e-06
5.32627e-05
1.84445e-05
-1.17544e-05
4.38278e-05
2.36752e-05
-1.46623e-05
3.0666e-05
2.92647e-05
-1.71109e-05
1.32895e-05
3.35862e-05
-1.75253e-05
2.1586e-05
-9.56363e-06
6.33719e-05
1.24754e-06
1.51666e-07
6.51093e-05
2.75671e-06
2.76111e-07
6.71539e-05
3.9423e-06
2.13345e-07
6.90521e-05
4.84367e-06
-6.07955e-08
7.04936e-05
5.5602e-06
-5.57897e-07
7.13138e-05
6.2619e-06
-1.26647e-06
7.14444e-05
7.13835e-06
-2.18481e-06
7.08435e-05
8.37593e-06
-3.32383e-06
6.9445e-05
1.01621e-05
-4.7109e-06
6.70923e-05
1.27067e-05
-6.38086e-06
6.35027e-05
1.62872e-05
-8.37985e-06
5.81242e-05
2.12377e-05
-1.06994e-05
5.00807e-05
2.81033e-05
-1.33009e-05
3.78711e-05
3.65995e-05
-1.55191e-05
1.9822e-05
4.55319e-05
-1.58567e-05
3.71731e-05
-8.71741e-06
6.32804e-05
1.72077e-07
5.71796e-07
6.49094e-05
3.24114e-07
1.34569e-06
6.69276e-05
2.92634e-07
2.1925e-06
6.89283e-05
5.40498e-08
3.09232e-06
7.05963e-05
-4.0068e-07
4.05266e-06
7.17489e-05
-1.0562e-06
5.12177e-06
7.23044e-05
-1.90471e-06
6.396e-06
7.22248e-05
-2.95028e-06
8.0198e-06
7.14695e-05
-4.21024e-06
1.01761e-05
6.99254e-05
-5.71195e-06
1.31258e-05
6.73807e-05
-7.48469e-06
1.72133e-05
6.33219e-05
-9.52814e-06
2.30172e-05
5.69603e-05
-1.17827e-05
3.12949e-05
4.62892e-05
-1.37418e-05
4.29867e-05
2.90315e-05
-1.40503e-05
5.74387e-05
-8.07045e-06
6.23353e-05
4.98657e-05
1.26661e-05
1.46106e-08
3.9205e-05
1.0716e-05
1.10934e-08
3.09882e-05
8.25863e-06
-7.37152e-08
2.5581e-05
5.40129e-06
-2.41179e-07
2.2095e-05
3.39972e-06
-4.92066e-07
1.98059e-05
2.09579e-06
-8.16137e-07
1.81143e-05
1.36442e-06
-1.21535e-06
1.66258e-05
9.97807e-07
-1.69291e-06
1.50783e-05
8.54094e-07
-2.26436e-06
1.33156e-05
8.1854e-07
-2.92602e-06
1.12196e-05
8.31626e-07
-3.7043e-06
8.77075e-06
8.01201e-07
-4.52567e-06
5.90095e-06
7.34303e-07
-5.42451e-06
2.98466e-06
3.61342e-07
-5.98087e-06
2.71806e-07
-1.44268e-07
-5.95025e-06
-1.50559e-06
-3.44043e-06
6.44845e-05
1.0727e-05
2.12086e-08
6.25332e-05
1.27518e-05
1.47497e-08
5.91114e-05
1.17546e-05
-1.1084e-07
5.53211e-05
9.19995e-06
-3.7741e-07
5.18146e-05
6.78883e-06
-8.00886e-07
4.87203e-05
4.89104e-06
-1.37603e-06
4.58795e-05
3.66918e-06
-2.10579e-06
4.30248e-05
3.02065e-06
-2.9981e-06
3.98672e-05
2.81087e-06
-4.07892e-06
3.6141e-05
2.88506e-06
-5.35775e-06
3.1589e-05
3.14112e-06
-6.87474e-06
2.60213e-05
3.41493e-06
-8.54938e-06
1.92435e-05
3.66938e-06
-1.03748e-05
1.15794e-05
3.36286e-06
-1.1675e-05
3.88166e-06
2.4153e-06
-1.15622e-05
-6.87558e-07
-6.34052e-06
6.61055e-05
7.17335e-06
3.08891e-08
6.79604e-05
1.09952e-05
2.83451e-08
6.82581e-05
1.15488e-05
-1.04089e-07
6.7272e-05
1.02117e-05
-3.89982e-07
6.55392e-05
8.4147e-06
-8.49123e-07
6.33501e-05
6.77643e-06
-1.48204e-06
6.08025e-05
5.65198e-06
-2.29614e-06
5.78279e-05
5.0998e-06
-3.30404e-06
5.4248e-05
5.08086e-06
-4.5351e-06
4.98175e-05
5.48766e-06
-6.00653e-06
4.42279e-05
6.24515e-06
-7.76072e-06
3.71733e-05
7.17492e-06
-9.72745e-06
2.831e-05
8.22983e-06
-1.18771e-05
1.77921e-05
8.62185e-06
-1.34761e-05
6.62287e-06
7.7701e-06
-1.33692e-05
2.49344e-06
-7.21995e-06
6.50739e-05
4.6551e-06
4.14345e-08
6.77535e-05
8.42261e-06
4.73444e-08
6.96205e-05
9.7861e-06
-8.07303e-08
7.03197e-05
9.5529e-06
-3.63765e-07
7.00053e-05
8.63895e-06
-8.19473e-07
6.88522e-05
7.64443e-06
-1.44914e-06
6.69835e-05
6.97534e-06
-2.26193e-06
6.4406e-05
6.80113e-06
-3.27301e-06
6.101e-05
7.18461e-06
-4.51265e-06
5.65806e-05
8.10305e-06
-6.00179e-06
5.0792e-05
9.55675e-06
-7.78173e-06
4.32624e-05
1.14077e-05
-9.7922e-06
3.35154e-05
1.36567e-05
-1.19936e-05
2.15484e-05
1.52845e-05
-1.36616e-05
8.26987e-06
1.51648e-05
-1.35602e-05
7.28865e-06
-7.25558e-06
6.41455e-05
3.06883e-06
5.48362e-08
6.65299e-05
6.15351e-06
7.47455e-08
6.86941e-05
7.73877e-06
-4.10167e-08
7.00998e-05
8.20414e-06
-3.11288e-07
7.06186e-05
8.05139e-06
-7.50439e-07
7.02623e-05
7.74351e-06
-1.35788e-06
6.90835e-05
7.64563e-06
-2.14149e-06
6.70817e-05
7.97492e-06
-3.11603e-06
6.41682e-05
8.86905e-06
-4.30969e-06
6.01448e-05
1.03946e-05
-5.74429e-06
5.46807e-05
1.26502e-05
-7.4569e-06
4.73296e-05
1.55957e-05
-9.39707e-06
3.7473e-05
1.93605e-05
-1.15179e-05
2.48401e-05
2.28018e-05
-1.3141e-05
9.92305e-06
2.43986e-05
-1.30247e-05
1.38729e-05
-6.90282e-06
6.35935e-05
2.03812e-06
6.9254e-08
6.55388e-05
4.33203e-06
1.06805e-07
6.75961e-05
5.81199e-06
9.00249e-09
6.92489e-05
6.62735e-06
-2.41988e-07
7.02341e-05
7.02313e-06
-6.57563e-07
7.04461e-05
7.30878e-06
-1.23437e-06
6.98593e-05
7.77058e-06
-1.97736e-06
6.84405e-05
8.62881e-06
-2.89896e-06
6.60996e-05
1.00664e-05
-4.02332e-06
6.26424e-05
1.22343e-05
-5.37131e-06
5.77369e-05
1.53384e-05
-6.97363e-06
5.0873e-05
1.94955e-05
-8.79031e-06
4.13034e-05
2.5035e-05
-1.07672e-05
2.841e-05
3.08812e-05
-1.2297e-05
1.2066e-05
3.53881e-05
-1.21708e-05
2.27973e-05
-6.4221e-06
6.33364e-05
1.26844e-06
8.49704e-08
6.49951e-05
2.80651e-06
1.42889e-07
6.69273e-05
4.02582e-06
6.72958e-08
6.86878e-05
4.96531e-06
-1.59185e-07
6.9973e-05
5.72556e-06
-5.45544e-07
7.06204e-05
6.4802e-06
-1.08535e-06
7.05602e-05
7.42549e-06
-1.77951e-06
6.97459e-05
8.75568e-06
-2.6364e-06
6.81063e-05
1.06692e-05
-3.67405e-06
6.54858e-05
1.3384e-05
-4.91013e-06
6.16144e-05
1.71956e-05
-6.3657e-06
5.59895e-05
2.24315e-05
-8.01053e-06
4.78376e-05
2.96663e-05
-9.78029e-06
3.58786e-05
3.84879e-05
-1.11668e-05
1.87468e-05
4.76978e-05
-1.10345e-05
3.87046e-05
-5.87798e-06
6.32464e-05
1.01148e-07
5.92951e-07
6.48002e-05
1.80805e-07
1.39606e-06
6.67119e-05
1.29753e-07
2.27696e-06
6.85841e-05
-6.89541e-08
3.21612e-06
7.01088e-05
-4.22375e-07
4.22253e-06
7.11062e-05
-9.21282e-07
5.34793e-06
7.14937e-05
-1.56208e-06
6.69531e-06
7.12299e-05
-2.34829e-06
8.41753e-06
7.02706e-05
-3.29092e-06
1.07092e-05
6.85041e-05
-4.4031e-06
1.38417e-05
6.57313e-05
-5.69525e-06
1.81789e-05
6.14803e-05
-7.1454e-06
2.42998e-05
5.50526e-05
-8.68074e-06
3.2992e-05
4.46267e-05
-9.90622e-06
4.50782e-05
2.81725e-05
-9.80979e-06
5.99115e-05
-5.47187e-06
6.42785e-05
4.98445e-05
1.26698e-05
3.37663e-10
3.9141e-05
1.07256e-05
-1.09494e-08
3.0869e-05
8.27087e-06
-7.26535e-08
2.54018e-05
5.41359e-06
-1.87517e-07
2.18539e-05
3.41185e-06
-3.56086e-07
1.95011e-05
2.10919e-06
-5.72531e-07
1.77424e-05
1.38162e-06
-8.38232e-07
1.61828e-05
1.02124e-06
-1.15457e-06
1.45621e-05
8.86703e-07
-1.53029e-06
1.27316e-05
8.63955e-07
-1.9595e-06
1.0586e-05
8.96453e-07
-2.45511e-06
8.12682e-06
8.96376e-07
-2.9629e-06
5.32114e-06
8.76446e-07
-3.49528e-06
2.55078e-06
5.77276e-07
-3.78779e-06
1.36278e-07
1.34748e-07
-3.67049e-06
-1.2171e-06
-2.08706e-06
6.44539e-05
1.07364e-05
6.02664e-10
6.24396e-05
1.27729e-05
-1.81652e-08
5.89279e-05
1.17848e-05
-1.13165e-07
5.50281e-05
9.23548e-06
-2.99481e-07
5.13984e-05
6.82827e-06
-5.87575e-07
4.81703e-05
4.93596e-06
-9.74715e-07
4.51851e-05
3.72426e-06
-1.46326e-06
4.21745e-05
3.09166e-06
-2.05789e-06
3.88508e-05
2.90531e-06
-2.77386e-06
3.49585e-05
3.01103e-06
-3.6125e-06
3.02614e-05
3.31178e-06
-4.59289e-06
2.46139e-05
3.6458e-06
-5.6513e-06
1.7895e-05
3.98597e-06
-6.76544e-06
1.05079e-05
3.78659e-06
-7.49725e-06
3.40999e-06
2.92497e-06
-7.25442e-06
-2.46776e-07
-3.90086e-06
6.60751e-05
7.18621e-06
5.99888e-09
6.78645e-05
1.10242e-05
-1.23672e-08
6.80665e-05
1.15931e-05
-1.14281e-07
6.69593e-05
1.02681e-05
-3.15508e-07
6.50858e-05
8.48197e-06
-6.29272e-07
6.27398e-05
6.85649e-06
-1.05654e-06
6.00198e-05
5.7509e-06
-1.6028e-06
5.68573e-05
5.22616e-06
-2.27603e-06
5.30752e-05
5.24625e-06
-3.09392e-06
4.84382e-05
5.7044e-06
-4.06294e-06
4.2661e-05
6.53138e-06
-5.20318e-06
3.54888e-05
7.54706e-06
-6.45646e-06
2.66658e-05
8.71491e-06
-7.78297e-06
1.64562e-05
9.22137e-06
-8.70132e-06
6.00175e-06
8.44741e-06
-8.43713e-06
2.99427e-06
-4.45926e-06
6.50451e-05
4.66967e-06
1.28912e-08
6.7661e-05
8.45608e-06
-5.36195e-10
6.94343e-05
9.83938e-06
-1.00326e-07
7.00142e-05
9.62472e-06
-3.00191e-07
6.95596e-05
8.72914e-06
-6.1205e-07
6.82485e-05
7.75586e-06
-1.03741e-06
6.62051e-05
7.11543e-06
-1.58306e-06
6.34362e-05
6.98081e-06
-2.25877e-06
5.98337e-05
7.41912e-06
-3.08299e-06
5.51924e-05
8.40874e-06
-4.06482e-06
4.92093e-05
9.95645e-06
-5.22371e-06
4.15535e-05
1.19185e-05
-6.50784e-06
3.18388e-05
1.43062e-05
-7.87027e-06
2.01786e-05
1.60533e-05
-8.83328e-06
7.63044e-06
1.60013e-05
-8.56587e-06
7.84676e-06
-4.47764e-06
6.41181e-05
3.08429e-06
2.21245e-08
6.64412e-05
6.1897e-06
1.79914e-08
6.85153e-05
7.79796e-06
-7.36734e-08
6.98067e-05
8.28695e-06
-2.64954e-07
7.01918e-05
8.1592e-06
-5.65552e-07
6.96851e-05
7.88045e-06
-9.75789e-07
6.83402e-05
7.82053e-06
-1.50169e-06
6.6157e-05
8.20086e-06
-2.15284e-06
6.30482e-05
9.16457e-06
-2.9464e-06
5.88248e-05
1.07801e-05
-3.89221e-06
5.31778e-05
1.31537e-05
-5.00718e-06
4.57089e-05
1.62364e-05
-6.2461e-06
3.58859e-05
2.01691e-05
-7.55777e-06
2.35486e-05
2.37431e-05
-8.4935e-06
9.33431e-06
2.54102e-05
-8.21932e-06
1.45288e-05
-4.25058e-06
6.35672e-05
2.05421e-06
3.21659e-08
6.54535e-05
4.3701e-06
4.01164e-08
6.74245e-05
5.87518e-06
-3.92931e-08
6.89691e-05
6.71782e-06
-2.17373e-07
6.98287e-05
7.14378e-06
-5.01807e-07
6.99008e-05
7.46509e-06
-8.91134e-07
6.91607e-05
7.97279e-06
-1.38949e-06
6.75755e-05
8.89201e-06
-2.00494e-06
6.50567e-05
1.04121e-05
-2.75209e-06
6.14187e-05
1.26871e-05
-3.6403e-06
5.63498e-05
1.59316e-05
-4.68262e-06
4.93841e-05
2.02528e-05
-5.84097e-06
3.98541e-05
2.59926e-05
-7.06066e-06
2.72427e-05
3.19962e-05
-7.93863e-06
1.1553e-05
3.6595e-05
-7.666e-06
2.36024e-05
-3.94271e-06
6.33112e-05
1.28493e-06
4.31007e-08
6.49133e-05
2.8457e-06
6.50914e-08
6.67636e-05
4.09133e-06
9.32391e-10
6.84222e-05
5.06036e-06
-1.60345e-07
6.9591e-05
5.8542e-06
-4.24803e-07
7.01107e-05
6.64903e-06
-7.88974e-07
6.99125e-05
7.64585e-06
-1.25436e-06
6.89504e-05
9.04418e-06
-1.82648e-06
6.7155e-05
1.10495e-05
-2.51607e-06
6.43788e-05
1.38841e-05
-3.33081e-06
6.03702e-05
1.78527e-05
-4.27823e-06
5.46652e-05
2.32746e-05
-5.32739e-06
4.65612e-05
3.07361e-05
-6.4198e-06
3.48654e-05
3.97407e-05
-7.2155e-06
1.83183e-05
4.90685e-05
-6.96085e-06
3.96626e-05
-3.61986e-06
6.32223e-05
5.43006e-08
6.09469e-07
6.47222e-05
9.1269e-08
1.43536e-06
6.65565e-05
4.39905e-08
2.34277e-06
6.83338e-05
-9.82428e-08
3.31234e-06
6.97518e-05
-3.40206e-07
4.35404e-06
7.06341e-05
-6.76598e-07
5.52203e-06
7.08999e-05
-1.10598e-06
6.92394e-06
7.05084e-05
-1.63077e-06
8.71814e-06
6.94178e-05
-2.25728e-06
1.11065e-05
6.75237e-05
-2.99064e-06
1.43657e-05
6.46442e-05
-3.83231e-06
1.88693e-05
6.03407e-05
-4.75765e-06
2.51903e-05
5.39756e-05
-5.70589e-06
3.41264e-05
4.37993e-05
-6.4089e-06
4.64198e-05
2.7858e-05
-6.20214e-06
6.14021e-05
-3.3821e-06
6.54308e-05
4.98305e-05
1.26723e-05
-2.40895e-09
3.90986e-05
1.0732e-05
-1.10959e-08