/*--------------------------------*- C++ -*----------------------------------*\
| =========                 |                                                 |
| \\      /  F ield         | OpenFOAM: The Open Source CFD Toolbox           |
|  \\    /   O peration     | Version:  v1912                                 |
|   \\  /    A nd           | Website:  www.openfoam.com                      |
|    \\/     M anipulation  |                                                 |
\*---------------------------------------------------------------------------*/
FoamFile
{
    version     2.0;
    format      ascii;
    class       pointVectorField;
    location    "0.93/fluid";
    object      pointMotionU;
}
// * * * * * * * * * * * * * * * * * * * * * * * * * * * * * * * * * * * * * //

dimensions      [0 1 -1 0 0 0 0];


internalField   nonuniform List<vector> 
16859
(
(0 0 0)
(0 0 0)
(0 0 0)
(0 0 0)
(0 0 0)
(0 0 0)
(0 0 0)
(0 0 0)
(0 0 0)
(0 0 0)
(0 0 0)
(0 0 0)
(0 0 0)
(0 0 0)
(0 0 0)
(0 0 0)
(1.37707e-08 2.40601e-08 1.58787e-08)
(0 0 0)
(4.02968e-10 -1.00734e-09 7.93775e-10)
(7.71316e-10 -1.92659e-09 1.5475e-09)
(1.12142e-09 -2.79329e-09 2.31582e-09)
(1.46856e-09 -3.63302e-09 3.14717e-09)
(1.82809e-09 -4.46042e-09 4.0869e-09)
(2.21705e-09 -5.27718e-09 5.17938e-09)
(2.65651e-09 -6.06797e-09 6.46942e-09)
(3.17511e-09 -6.79291e-09 8.00308e-09)
(3.81544e-09 -7.37438e-09 9.82834e-09)
(4.64642e-09 -7.67329e-09 1.1997e-08)
(5.78865e-09 -7.44567e-09 1.45731e-08)
(7.46647e-09 -6.25837e-09 1.76614e-08)
(1.01041e-08 -3.32534e-09 2.14881e-08)
(1.44228e-08 2.72954e-09 2.65538e-08)
(2.05948e-08 1.27183e-08 3.30554e-08)
(2.90726e-08 3.20587e-08 4.0071e-08)
(0 0 0)
(7.94599e-10 -1.98484e-09 1.56654e-09)
(1.52042e-09 -3.79737e-09 3.05342e-09)
(2.20908e-09 -5.50874e-09 4.56784e-09)
(2.88993e-09 -7.17088e-09 6.20469e-09)
(3.59238e-09 -8.81535e-09 8.05277e-09)
(4.34863e-09 -1.045e-08 1.01988e-08)
(5.19741e-09 -1.2052e-08 1.27301e-08)
(6.18946e-09 -1.35561e-08 1.57355e-08)
(7.39623e-09 -1.48339e-08 1.93049e-08)
(8.92474e-09 -1.56601e-08 2.35275e-08)
(1.0943e-08 -1.56626e-08 2.84915e-08)
(1.37212e-08 -1.4256e-08 3.42905e-08)
(1.76646e-08 -1.06018e-08 4.1037e-08)
(2.31937e-08 -3.8057e-09 4.88183e-08)
(2.9561e-08 5.30381e-09 5.67542e-08)
(3.95834e-08 1.86551e-08 6.85217e-08)
(0 0 0)
(1.16446e-09 -2.90329e-09 2.29903e-09)
(2.22685e-09 -5.55746e-09 4.47971e-09)
(3.23216e-09 -8.06944e-09 6.69795e-09)
(4.22181e-09 -1.0519e-08 9.09155e-09)
(5.23704e-09 -1.29582e-08 1.17893e-08)
(6.32208e-09 -1.54085e-08 1.49171e-08)
(7.52845e-09 -1.78529e-08 1.86009e-08)
(8.92037e-09 -2.02236e-08 2.29688e-08)
(1.05819e-08 -2.23804e-08 2.81484e-08)
(1.2626e-08 -2.40792e-08 3.4259e-08)
(1.52059e-08 -2.49318e-08 4.13976e-08)
(1.85236e-08 -2.43747e-08 4.96163e-08)
(2.28039e-08 -2.17188e-08 5.88798e-08)
(2.81295e-08 -1.64709e-08 6.89613e-08)
(3.3568e-08 -9.72471e-09 7.85241e-08)
(4.13068e-08 -4.09156e-10 9.09834e-08)
(0 0 0)
(1.50325e-09 -3.73286e-09 2.97366e-09)
(2.87248e-09 -7.15025e-09 5.79155e-09)
(4.16347e-09 -1.03944e-08 8.65282e-09)
(5.42726e-09 -1.3574e-08 1.17331e-08)
(6.71405e-09 -1.67657e-08 1.51962e-08)
(8.07664e-09 -2.0012e-08 1.92019e-08)
(9.57445e-09 -2.33155e-08 2.39105e-08)
(1.1278e-08 -2.66292e-08 2.94848e-08)
(1.32731e-08 -2.98391e-08 3.6087e-08)
(1.56622e-08 -3.27386e-08 4.38673e-08)
(1.85608e-08 -3.4997e-08 5.29397e-08)
(2.20782e-08 -3.61333e-08 6.33365e-08)
(2.62549e-08 -3.55395e-08 7.49173e-08)
(3.09017e-08 -3.26738e-08 8.7186e-08)
(3.5048e-08 -2.80399e-08 9.82619e-08)
(4.05202e-08 -1.99463e-08 1.1104e-07)
(0 0 0)
(1.8036e-09 -4.44417e-09 3.57577e-09)
(3.44295e-09 -8.51938e-09 6.95998e-09)
(4.98176e-09 -1.24015e-08 1.03881e-08)
(6.47787e-09 -1.62281e-08 1.40671e-08)
(7.98742e-09 -2.01024e-08 1.81896e-08)
(9.56832e-09 -2.40938e-08 2.29424e-08)
(1.1284e-08 -2.82351e-08 2.85136e-08)
(1.3207e-08 -3.25181e-08 3.50948e-08)
(1.54212e-08 -3.68828e-08 4.28796e-08)
(1.80196e-08 -4.12018e-08 5.20528e-08)
(2.10943e-08 -4.52565e-08 6.27667e-08)
(2.47097e-08 -4.87e-08 7.50903e-08)
(2.88307e-08 -5.10017e-08 8.8893e-08)
(3.31682e-08 -5.13991e-08 1.03578e-07)
(3.67433e-08 -4.93698e-08 1.16768e-07)
(4.11524e-08 -4.15813e-08 1.31012e-07)
(0 0 0)
(2.06028e-09 -5.0092e-09 4.09437e-09)
(3.9283e-09 -9.61064e-09 7.96332e-09)
(5.67263e-09 -1.40103e-08 1.18707e-08)
(7.35494e-09 -1.83727e-08 1.60475e-08)
(9.03427e-09 -2.28272e-08 2.07069e-08)
(1.07704e-08 -2.74718e-08 2.60552e-08)
(1.26275e-08 -3.23741e-08 3.2299e-08)
(1.46775e-08 -3.75724e-08 3.96499e-08)
(1.70022e-08 -4.30744e-08 4.83249e-08)
(1.96924e-08 -4.88536e-08 5.85409e-08)
(2.28442e-08 -5.48434e-08 7.05023e-08)
(2.65445e-08 -6.09141e-08 8.43675e-08)
(3.0826e-08 -6.67974e-08 1.00151e-07)
(3.55339e-08 -7.18843e-08 1.17429e-07)
(3.97292e-08 -7.48383e-08 1.33539e-07)
(4.53586e-08 -7.09692e-08 1.51581e-07)
(0 0 0)
(2.27041e-09 -5.40262e-09 4.52256e-09)
(4.3233e-09 -1.03748e-08 8.78825e-09)
(6.22897e-09 -1.5147e-08 1.30807e-08)
(8.04998e-09 -1.99061e-08 1.76464e-08)
(9.84525e-09 -2.48044e-08 2.2711e-08)
(1.16733e-08 -2.99654e-08 2.84905e-08)
(1.35959e-08 -3.54888e-08 3.51992e-08)
(1.5681e-08 -4.14557e-08 4.30555e-08)
(1.80064e-08 -4.79347e-08 5.22843e-08)
(2.0662e-08 -5.49908e-08 6.31171e-08)
(2.37544e-08 -6.26996e-08 7.57921e-08)
(2.74153e-08 -7.11659e-08 9.05505e-08)
(3.18032e-08 -8.05222e-08 1.07599e-07)
(3.70358e-08 -9.08009e-08 1.2689e-07)
(4.24049e-08 -1.00696e-07 1.45932e-07)
(5.10941e-08 -1.11513e-07 1.6922e-07)
(0 0 0)
(2.43351e-09 -5.60334e-09 4.85789e-09)
(4.62758e-09 -1.07709e-08 9.43067e-09)
(6.65127e-09 -1.57498e-08 1.40128e-08)
(8.56512e-09 -2.07425e-08 1.88577e-08)
(1.04251e-08 -2.59179e-08 2.41947e-08)
(1.22857e-08 -3.14183e-08 3.02397e-08)
(1.42023e-08 -3.73668e-08 3.72026e-08)
(1.62353e-08 -4.38734e-08 4.52928e-08)
(1.8452e-08 -5.10437e-08 5.47211e-08)
(2.09306e-08 -5.89902e-08 6.57001e-08)
(2.37648e-08 -6.78507e-08 7.84452e-08)
(2.7074e-08 -7.7814e-08 9.31774e-08)
(3.10035e-08 -8.91383e-08 1.10104e-07)
(3.56392e-08 -1.02076e-07 1.29284e-07)
(4.01715e-08 -1.15091e-07 1.48159e-07)
(5.25913e-08 -1.36352e-07 1.77013e-07)
(0 0 0)
(0 0 0)
(0 0 0)
(0 0 0)
(0 0 0)
(0 0 0)
(0 0 0)
(0 0 0)
(0 0 0)
(0 0 0)
(0 0 0)
(0 0 0)
(0 0 0)
(0 0 0)
(0 0 0)
(0 0 0)
(9.60315e-09 1.23512e-08 7.47252e-09)
(0 0 0)
(4.1129e-10 -1.03294e-09 7.68382e-10)
(7.87037e-10 -1.97585e-09 1.49686e-09)
(1.14384e-09 -2.86582e-09 2.2375e-09)
(1.49711e-09 -3.7298e-09 3.03619e-09)
(1.86209e-09 -4.58367e-09 3.93544e-09)
(2.25532e-09 -5.43027e-09 4.97603e-09)
(2.69677e-09 -6.25562e-09 6.1979e-09)
(3.2132e-09 -7.02199e-09 7.64016e-09)
(3.84418e-09 -7.6559e-09 9.34007e-09)
(4.65423e-09 -8.02706e-09 1.13312e-08)
(5.75833e-09 -7.9109e-09 1.36432e-08)
(7.37647e-09 -6.91827e-09 1.63101e-08)
(9.93257e-09 -4.36699e-09 1.93965e-08)
(1.41266e-08 8.43158e-10 2.30092e-08)
(2.01428e-08 9.24227e-09 2.68682e-08)
(2.66988e-08 1.93302e-08 2.80455e-08)
(0 0 0)
(8.11057e-10 -2.0352e-09 1.51643e-09)
(1.55154e-09 -3.89432e-09 2.95354e-09)
(2.2536e-09 -5.65159e-09 4.41349e-09)
(2.94684e-09 -7.36163e-09 5.98625e-09)
(3.66047e-09 -9.05837e-09 7.75502e-09)
(4.42579e-09 -1.07518e-08 9.79963e-09)
(5.2795e-09 -1.24218e-08 1.21981e-08)
(6.26878e-09 -1.40069e-08 1.50263e-08)
(7.45909e-09 -1.53856e-08 1.83547e-08)
(8.94807e-09 -1.63479e-08 2.2241e-08)
(1.08911e-08 -1.6554e-08 2.67179e-08)
(1.35451e-08 -1.54905e-08 3.17771e-08)
(1.73106e-08 -1.24763e-08 3.73377e-08)
(2.26251e-08 -6.95287e-09 4.31414e-08)
(2.89878e-08 1.28323e-10 4.83133e-08)
(3.60885e-08 4.77149e-09 5.22742e-08)
(0 0 0)
(1.18877e-09 -2.97687e-09 2.22558e-09)
(2.27292e-09 -5.6992e-09 4.33341e-09)
(3.29828e-09 -8.27845e-09 6.47214e-09)
(4.30674e-09 -1.07983e-08 8.77242e-09)
(5.33933e-09 -1.33143e-08 1.13551e-08)
(6.43918e-09 -1.5851e-08 1.4336e-08)
(7.65524e-09 -1.83948e-08 1.78286e-08)
(9.04695e-09 -2.08826e-08 2.19433e-08)
(1.069e-08 -2.31828e-08 2.6782e-08)
(1.26836e-08 -2.5068e-08 3.24245e-08)
(1.51605e-08 -2.61858e-08 3.89042e-08)
(1.82961e-08 -2.60505e-08 4.6166e-08)
(2.2293e-08 -2.41378e-08 5.39943e-08)
(2.72478e-08 -2.02827e-08 6.18779e-08)
(3.25129e-08 -1.56982e-08 6.86307e-08)
(3.7667e-08 -1.36105e-08 7.31767e-08)
(0 0 0)
(1.53503e-09 -3.82742e-09 2.87886e-09)
(2.93285e-09 -7.33252e-09 5.60292e-09)
(4.25041e-09 -1.06634e-08 8.36206e-09)
(5.53949e-09 -1.39339e-08 1.13229e-08)
(6.85026e-09 -1.72249e-08 1.46392e-08)
(8.23451e-09 -2.05828e-08 1.84585e-08)
(9.74908e-09 -2.40143e-08 2.29258e-08)
(1.14594e-08 -2.74775e-08 2.81829e-08)
(1.34419e-08 -3.08661e-08 3.43626e-08)
(1.57831e-08 -3.3988e-08 4.15719e-08)
(1.8573e-08 -3.65414e-08 4.98591e-08)
(2.18837e-08 -3.81047e-08 5.91533e-08)
(2.5713e-08 -3.81898e-08 6.91514e-08)
(2.98629e-08 -3.64899e-08 7.91042e-08)
(3.36375e-08 -3.36057e-08 8.73381e-08)
(3.7023e-08 -3.19695e-08 9.22962e-08)
(0 0 0)
(1.84234e-09 -4.55677e-09 3.46215e-09)
(3.51667e-09 -8.73656e-09 6.73411e-09)
(5.08827e-09 -1.27223e-08 1.00405e-08)
(6.61602e-09 -1.66577e-08 1.35777e-08)
(8.15643e-09 -2.06511e-08 1.75267e-08)
(9.76679e-09 -2.47764e-08 2.20605e-08)
(1.15085e-08 -2.90711e-08 2.73499e-08)
(1.34498e-08 -3.35315e-08 3.35635e-08)
(1.56661e-08 -3.81042e-08 4.08633e-08)
(1.82361e-08 -4.26721e-08 4.93893e-08)
(2.12285e-08 -4.70336e-08 5.9228e-08)
(2.46715e-08 -5.08718e-08 7.0348e-08)
(2.84845e-08 -5.37055e-08 8.24635e-08)
(3.23582e-08 -5.48556e-08 9.47283e-08)
(3.55523e-08 -5.38333e-08 1.05009e-07)
(3.79092e-08 -5.16861e-08 1.11192e-07)
(0 0 0)
(2.1053e-09 -5.13621e-09 3.96479e-09)
(4.0141e-09 -9.85579e-09 7.70602e-09)
(5.79692e-09 -1.43728e-08 1.14755e-08)
(7.51685e-09 -1.88586e-08 1.54923e-08)
(9.23377e-09 -2.34486e-08 1.99571e-08)
(1.10075e-08 -2.82458e-08 2.50614e-08)
(1.29012e-08 -3.33225e-08 3.09933e-08)
(1.49839e-08 -3.87218e-08 3.79405e-08)
(1.73321e-08 -4.44564e-08 4.60875e-08)
(2.00275e-08 -5.05068e-08 5.5606e-08)
(2.31519e-08 -5.68157e-08 6.66339e-08)
(2.67734e-08 -6.32647e-08 7.92285e-08)
(3.09104e-08 -6.95911e-08 9.32462e-08)
(3.54269e-08 -7.51517e-08 1.07987e-07)
(3.96284e-08 -7.85916e-08 1.2106e-07)
(4.29172e-08 -7.77754e-08 1.30059e-07)
(0 0 0)
(2.32087e-09 -5.53978e-09 4.3801e-09)
(4.41955e-09 -1.06397e-08 8.50571e-09)
(6.36868e-09 -1.55391e-08 1.26475e-08)
(8.2326e-09 -2.04325e-08 1.70397e-08)
(1.00716e-08 -2.54785e-08 2.18945e-08)
(1.19449e-08 -3.08062e-08 2.74128e-08)
(1.39143e-08 -3.65202e-08 3.37904e-08)
(1.6047e-08 -4.2706e-08 4.12216e-08)
(1.84188e-08 -4.94366e-08 4.98994e-08)
(2.11167e-08 -5.67825e-08 6.00108e-08)
(2.42451e-08 -6.48266e-08 7.1729e-08)
(2.79395e-08 -7.36851e-08 8.51942e-08)
(3.2388e-08 -8.35059e-08 1.00448e-07)
(3.78004e-08 -9.43085e-08 1.17138e-07)
(4.37815e-08 -1.0494e-07 1.33057e-07)
(5.02075e-08 -1.14394e-07 1.45688e-07)
(0 0 0)
(2.48841e-09 -5.74584e-09 4.70565e-09)
(4.7324e-09 -1.10464e-08 9.12915e-09)
(6.80359e-09 -1.61581e-08 1.35516e-08)
(8.76467e-09 -2.12914e-08 1.82137e-08)
(1.06734e-08 -2.66219e-08 2.33317e-08)
(1.25854e-08 -3.22979e-08 2.91061e-08)
(1.45574e-08 -3.8447e-08 3.57293e-08)
(1.66504e-08 -4.51837e-08 4.33876e-08)
(1.89324e-08 -5.26169e-08 5.2262e-08)
(2.1483e-08 -6.08629e-08 6.25241e-08)
(2.44007e-08 -7.0064e-08 7.43305e-08)
(2.78182e-08 -8.04172e-08 8.78104e-08)
(3.19149e-08 -9.21906e-08 1.03018e-07)
(3.68557e-08 -1.05616e-07 1.19719e-07)
(4.20112e-08 -1.19283e-07 1.35605e-07)
(5.05491e-08 -1.37781e-07 1.53277e-07)
(0 0 0)
(0 0 0)
(0 0 0)
(0 0 0)
(0 0 0)
(0 0 0)
(0 0 0)
(0 0 0)
(0 0 0)
(0 0 0)
(0 0 0)
(0 0 0)
(0 0 0)
(0 0 0)
(0 0 0)
(0 0 0)
(6.22724e-09 6.27032e-09 2.94849e-09)
(0 0 0)
(4.17591e-10 -1.05582e-09 7.15062e-10)
(7.98721e-10 -2.02006e-09 1.39209e-09)
(1.1598e-09 -2.93111e-09 2.07865e-09)
(1.5158e-09 -3.81712e-09 2.81636e-09)
(1.88115e-09 -4.69531e-09 3.6431e-09)
(2.27081e-09 -5.5702e-09 4.59417e-09)
(2.70184e-09 -6.43044e-09 5.70235e-09)
(3.19577e-09 -7.24333e-09 6.99662e-09)
(3.78266e-09 -7.94585e-09 8.49842e-09)
(4.50902e-09 -8.43068e-09 1.02142e-08)
(5.45436e-09 -8.52539e-09 1.2122e-08)
(6.76335e-09 -7.96313e-09 1.4148e-08)
(8.69182e-09 -6.35232e-09 1.61212e-08)
(1.15862e-08 -3.23302e-09 1.7674e-08)
(1.52878e-08 1.20697e-09 1.81307e-08)
(1.79938e-08 5.96216e-09 1.44582e-08)
(0 0 0)
(8.23587e-10 -2.08018e-09 1.41123e-09)
(1.5748e-09 -3.98117e-09 2.74686e-09)
(2.2855e-09 -5.77981e-09 4.10031e-09)
(2.98455e-09 -7.53309e-09 5.55316e-09)
(3.69963e-09 -9.27738e-09 7.17962e-09)
(4.4591e-09 -1.10257e-08 9.04887e-09)
(5.29438e-09 -1.27624e-08 1.12252e-08)
(6.24311e-09 -1.44343e-08 1.37655e-08)
(7.35364e-09 -1.59371e-08 1.67112e-08)
(8.6923e-09 -1.70969e-08 2.00723e-08)
(1.0356e-08 -1.7652e-08 2.37979e-08)
(1.24884e-08 -1.72559e-08 2.77216e-08)
(1.52728e-08 -1.5567e-08 3.14624e-08)
(1.87823e-08 -1.25913e-08 3.42709e-08)
(2.23674e-08 -9.47987e-09 3.51091e-08)
(2.48627e-08 -9.30951e-09 3.22992e-08)
(0 0 0)
(1.20744e-09 -3.04246e-09 2.07131e-09)
(2.30769e-09 -5.82584e-09 4.03045e-09)
(3.34628e-09 -8.46537e-09 6.01341e-09)
(4.3642e-09 -1.10481e-08 8.13872e-09)
(5.40049e-09 -1.36329e-08 1.05142e-08)
(6.49448e-09 -1.62479e-08 1.32407e-08)
(7.68824e-09 -1.8885e-08 1.64121e-08)
(9.02893e-09 -2.14904e-08 2.01124e-08)
(1.05704e-08 -2.39505e-08 2.44045e-08)
(1.23729e-08 -2.60755e-08 2.93072e-08)
(1.44996e-08 -2.7591e-08 3.47533e-08)
(1.69992e-08 -2.81705e-08 4.05144e-08)
(1.9851e-08 -2.75883e-08 4.60776e-08)
(2.28195e-08 -2.61182e-08 5.04945e-08)
(2.51976e-08 -2.5004e-08 5.2539e-08)
(2.57553e-08 -2.6431e-08 5.04451e-08)
(0 0 0)
(1.55972e-09 -3.91149e-09 2.67957e-09)
(2.97897e-09 -7.49483e-09 5.21177e-09)
(4.31458e-09 -1.09029e-08 7.77041e-09)
(5.61742e-09 -1.42537e-08 1.05067e-08)
(6.93555e-09 -1.7632e-08 1.35581e-08)
(8.31663e-09 -2.10879e-08 1.70531e-08)
(9.81004e-09 -2.46334e-08 2.11129e-08)
(1.14679e-08 -2.82341e-08 2.58469e-08)
(1.33432e-08 -3.17985e-08 3.13412e-08)
(1.54816e-08 -3.51634e-08 3.76323e-08)
(1.79008e-08 -3.80865e-08 4.46578e-08)
(2.05452e-08 -4.0266e-08 5.21675e-08)
(2.31954e-08 -4.14408e-08 5.95742e-08)
(2.53464e-08 -4.16542e-08 6.57574e-08)
(2.6285e-08 -4.15977e-08 6.91496e-08)
(2.50251e-08 -4.29698e-08 6.76894e-08)
(0 0 0)
(1.8728e-09 -4.65657e-09 3.22289e-09)
(3.57381e-09 -8.92923e-09 6.2649e-09)
(5.1684e-09 -1.30065e-08 9.33164e-09)
(6.71476e-09 -1.7037e-08 1.26016e-08)
(8.26745e-09 -2.1133e-08 1.62365e-08)
(9.87989e-09 -2.53722e-08 2.03877e-08)
(1.16063e-08 -2.97957e-08 2.51986e-08)
(1.35024e-08 -3.44048e-08 3.08011e-08)
(1.56214e-08 -3.91541e-08 3.73046e-08)
(1.80037e-08 -4.39411e-08 4.47703e-08)
(2.06506e-08 -4.85947e-08 5.31617e-08)
(2.34699e-08 -5.28599e-08 6.22511e-08)
(2.61736e-08 -5.63823e-08 7.14468e-08)
(2.81485e-08 -5.87234e-08 7.95228e-08)
(2.86063e-08 -5.95968e-08 8.45327e-08)
(2.62354e-08 -5.97991e-08 8.39769e-08)
(0 0 0)
(2.14117e-09 -5.24843e-09 3.69138e-09)
(4.08163e-09 -1.00724e-08 7.17032e-09)
(5.89232e-09 -1.46924e-08 1.06674e-08)
(7.63599e-09 -1.92849e-08 1.43818e-08)
(9.37098e-09 -2.39895e-08 1.84934e-08)
(1.11539e-08 -2.89123e-08 2.31698e-08)
(1.30418e-08 -3.4128e-08 2.85697e-08)
(1.50931e-08 -3.96811e-08 3.48411e-08)
(1.73655e-08 -4.55851e-08 4.2112e-08)
(1.99086e-08 -5.18203e-08 5.04679e-08)
(2.27474e-08 -5.83286e-08 5.99089e-08)
(2.58461e-08 -6.49903e-08 7.02622e-08)
(2.90371e-08 -7.1546e-08 8.10035e-08)
(3.18913e-08 -7.73912e-08 9.09143e-08)
(3.36238e-08 -8.13056e-08 9.7733e-08)
(3.24369e-08 -8.11882e-08 9.86192e-08)
(0 0 0)
(2.36161e-09 -5.66061e-09 4.07877e-09)
(4.49652e-09 -1.08731e-08 7.91595e-09)
(6.47812e-09 -1.58834e-08 1.17596e-08)
(8.3708e-09 -2.08917e-08 1.58225e-08)
(1.02339e-08 -2.60606e-08 2.02953e-08)
(1.21242e-08 -3.1522e-08 2.53543e-08)
(1.40991e-08 -3.73814e-08 3.1165e-08)
(1.62175e-08 -4.37228e-08 3.78815e-08)
(1.85408e-08 -5.06141e-08 4.56388e-08)
(2.11318e-08 -5.81137e-08 5.45347e-08)
(2.4051e-08 -6.62807e-08 6.45949e-08)
(2.73518e-08 -7.51813e-08 7.56994e-08)
(3.10654e-08 -8.48608e-08 8.7418e-08)
(3.5126e-08 -9.51524e-08 9.86377e-08)
(3.89804e-08 -1.04782e-07 1.06933e-07)
(4.21575e-08 -1.12453e-07 1.08944e-07)
(0 0 0)
(2.53335e-09 -5.87106e-09 4.38277e-09)
(4.81754e-09 -1.12883e-08 8.49794e-09)
(6.92526e-09 -1.65152e-08 1.26031e-08)
(8.91966e-09 -2.1768e-08 1.69175e-08)
(1.08581e-08 -2.72261e-08 2.16352e-08)
(1.27948e-08 -3.30401e-08 2.69328e-08)
(1.47834e-08 -3.93379e-08 3.29731e-08)
(1.6879e-08 -4.62302e-08 3.99041e-08)
(1.91399e-08 -5.38174e-08 4.7852e-08)
(2.16282e-08 -6.21974e-08 5.69045e-08)
(2.44118e-08 -7.14778e-08 6.70801e-08)
(2.75635e-08 -8.17867e-08 7.82641e-08)
(3.11453e-08 -9.32583e-08 9.00681e-08)
(3.51102e-08 -1.05886e-07 1.01532e-07)
(3.87309e-08 -1.18139e-07 1.10265e-07)
(4.39917e-08 -1.33888e-07 1.12724e-07)
(0 0 0)
(0 0 0)
(0 0 0)
(0 0 0)
(0 0 0)
(0 0 0)
(0 0 0)
(0 0 0)
(0 0 0)
(0 0 0)
(0 0 0)
(0 0 0)
(0 0 0)
(0 0 0)
(0 0 0)
(0 0 0)
(3.743e-09 3.15e-09 1.65897e-09)
(0 0 0)
(4.21994e-10 -1.0756e-09 6.365e-10)
(8.06596e-10 -2.0583e-09 1.23839e-09)
(1.16977e-09 -2.98763e-09 1.84726e-09)
(1.52571e-09 -3.89284e-09 2.49908e-09)
(1.88755e-09 -4.7924e-09 3.22591e-09)
(2.26797e-09 -5.69261e-09 4.05651e-09)
(2.68013e-09 -6.58517e-09 5.01568e-09)
(3.13872e-09 -7.4432e-09 6.12189e-09)
(3.66163e-09 -8.21544e-09 7.38171e-09)
(4.27321e-09 -8.81884e-09 8.77919e-09)
(5.01138e-09 -9.13094e-09 1.0257e-08)
(5.94035e-09 -8.98596e-09 1.16844e-08)
(7.16316e-09 -8.18213e-09 1.28068e-08)
(8.78468e-09 -6.53368e-09 1.3194e-08)
(1.0599e-08 -4.18695e-09 1.24116e-08)
(1.13999e-08 -8.23899e-10 9.40954e-09)
(0 0 0)
(8.32435e-10 -2.11902e-09 1.25624e-09)
(1.5907e-09 -4.05624e-09 2.44372e-09)
(2.30582e-09 -5.89068e-09 3.6441e-09)
(3.00525e-09 -7.68139e-09 4.92794e-09)
(3.71426e-09 -9.46702e-09 6.35811e-09)
(4.45704e-09 -1.12636e-08 7.99105e-09)
(5.25787e-09 -1.30607e-08 9.87573e-09)
(6.14206e-09 -1.48145e-08 1.20489e-08)
(7.13651e-09 -1.64396e-08 1.45243e-08)
(8.26996e-09 -1.77992e-08 1.72726e-08)
(9.57273e-09 -1.87047e-08 2.01848e-08)
(1.10719e-08 -1.89433e-08 2.30144e-08)
(1.27627e-08 -1.83778e-08 2.52933e-08)
(1.45073e-08 -1.71805e-08 2.62893e-08)
(1.58343e-08 -1.61116e-08 2.54371e-08)
(1.62846e-08 -1.66112e-08 2.30127e-08)
(0 0 0)
(1.22083e-09 -3.09902e-09 1.84397e-09)
(2.33189e-09 -5.93508e-09 3.58598e-09)
(3.37765e-09 -8.6265e-09 5.34491e-09)
(4.39727e-09 -1.12632e-08 7.22334e-09)
(5.42661e-09 -1.39068e-08 9.31274e-09)
(6.49956e-09 -1.65892e-08 1.16955e-08)
(7.64891e-09 -1.93078e-08 1.44439e-08)
(8.90604e-09 -2.20186e-08 1.76133e-08)
(1.02981e-08 -2.46272e-08 2.12286e-08)
(1.18402e-08 -2.69812e-08 2.52563e-08)
(1.35195e-08 -2.8876e-08 2.95583e-08)
(1.52619e-08 -3.01052e-08 3.38203e-08)
(1.68706e-08 -3.06061e-08 3.74643e-08)
(1.79567e-08 -3.07318e-08 3.96404e-08)
(1.8084e-08 -3.1298e-08 3.97308e-08)
(1.69001e-08 -3.32626e-08 3.81669e-08)
(0 0 0)
(1.57773e-09 -3.98383e-09 2.38575e-09)
(3.01177e-09 -7.63444e-09 4.63761e-09)
(4.35781e-09 -1.11086e-08 6.90759e-09)
(5.66473e-09 -1.45275e-08 9.32663e-09)
(6.97708e-09 -1.7979e-08 1.20114e-08)
(8.33648e-09 -2.15167e-08 1.50676e-08)
(9.78216e-09 -2.51569e-08 1.85887e-08)
(1.13493e-08 -2.88726e-08 2.26488e-08)
(1.30625e-08 -3.25859e-08 2.72873e-08)
(1.4921e-08 -3.616e-08 3.24772e-08)
(1.68678e-08 -3.94013e-08 3.80742e-08)
(1.8731e-08 -4.20903e-08 4.37368e-08)
(2.01347e-08 -4.40762e-08 4.88314e-08)
(2.04568e-08 -4.54557e-08 5.24136e-08)
(1.92702e-08 -4.66241e-08 5.36747e-08)
(1.64574e-08 -4.83845e-08 5.29639e-08)
(0 0 0)
(1.89544e-09 -4.74222e-09 2.86991e-09)
(3.61537e-09 -9.09442e-09 5.5756e-09)
(5.22411e-09 -1.32495e-08 8.29697e-09)
(6.77796e-09 -1.73596e-08 1.11886e-08)
(8.32802e-09 -2.15401e-08 1.43882e-08)
(9.92176e-09 -2.58708e-08 1.80204e-08)
(1.16035e-08 -3.03954e-08 2.21965e-08)
(1.34125e-08 -3.51178e-08 2.70076e-08)
(1.53754e-08 -3.99971e-08 3.25085e-08)
(1.74891e-08 -4.49397e-08 3.86861e-08)
(1.96867e-08 -4.97909e-08 4.5406e-08)
(2.17705e-08 -5.43242e-08 5.23279e-08)
(2.33106e-08 -5.8225e-08 5.87948e-08)
(2.35835e-08 -6.10765e-08 6.37739e-08)
(2.20521e-08 -6.24713e-08 6.6213e-08)
(1.82068e-08 -6.26135e-08 6.63194e-08)
(0 0 0)
(2.16833e-09 -5.34446e-09 3.28765e-09)
(4.13186e-09 -1.02576e-08 6.38258e-09)
(5.96073e-09 -1.49644e-08 9.48662e-09)
(7.71607e-09 -1.96453e-08 1.27725e-08)
(9.45313e-09 -2.44422e-08 1.63934e-08)
(1.12232e-08 -2.94626e-08 2.04877e-08)
(1.30745e-08 -3.4781e-08 2.51794e-08)
(1.50509e-08 -4.04393e-08 3.05717e-08)
(1.71869e-08 -4.64454e-08 3.67317e-08)
(1.94948e-08 -5.27696e-08 4.36604e-08)
(2.19406e-08 -5.93354e-08 5.12392e-08)
(2.43962e-08 -6.59894e-08 5.91422e-08)
(2.65647e-08 -7.24162e-08 6.67057e-08)
(2.7908e-08 -7.79367e-08 7.28136e-08)
(2.78517e-08 -8.13185e-08 7.61637e-08)
(2.5263e-08 -8.02168e-08 7.6931e-08)
(0 0 0)
(2.39304e-09 -5.76372e-09 3.63335e-09)
(4.55503e-09 -1.10718e-08 7.04773e-09)
(6.55889e-09 -1.61752e-08 1.04603e-08)
(8.4678e-09 -2.12776e-08 1.40559e-08)
(1.03386e-08 -2.6544e-08 1.79971e-08)
(1.22237e-08 -3.21062e-08 2.24297e-08)
(1.41731e-08 -3.80671e-08 2.74835e-08)
(1.62338e-08 -4.45041e-08 3.32662e-08)
(1.84485e-08 -5.14713e-08 3.98497e-08)
(2.08496e-08 -5.90019e-08 4.72411e-08)
(2.34494e-08 -6.71091e-08 5.53316e-08)
(2.62232e-08 -7.57755e-08 6.38072e-08)
(2.90869e-08 -8.49027e-08 7.19999e-08)
(3.18618e-08 -9.41226e-08 7.87012e-08)
(3.41568e-08 -1.02146e-07 8.23134e-08)
(3.61977e-08 -1.07367e-07 8.27197e-08)
(0 0 0)
(2.56862e-09 -5.97764e-09 3.90492e-09)
(4.88358e-09 -1.14937e-08 7.56751e-09)
(7.01744e-09 -1.68168e-08 1.12135e-08)
(9.03259e-09 -2.21666e-08 1.50333e-08)
(1.09846e-08 -2.77244e-08 1.91928e-08)
(1.29243e-08 -3.36403e-08 2.38386e-08)
(1.48996e-08 -4.00378e-08 2.90985e-08)
(1.69566e-08 -4.70183e-08 3.50759e-08)
(1.91389e-08 -5.46639e-08 4.18366e-08)
(2.14859e-08 -6.30401e-08 4.93812e-08)
(2.40283e-08 -7.2197e-08 5.75978e-08)
(2.67779e-08 -8.21643e-08 6.61768e-08)
(2.97058e-08 -9.29161e-08 7.44719e-08)
(3.26699e-08 -1.04236e-07 8.13275e-08)
(3.50937e-08 -1.14669e-07 8.50822e-08)
(3.87474e-08 -1.27246e-07 8.35181e-08)
(0 0 0)
(0 0 0)
(0 0 0)
(0 0 0)
(0 0 0)
(0 0 0)
(0 0 0)
(0 0 0)
(0 0 0)
(0 0 0)
(0 0 0)
(0 0 0)
(0 0 0)
(0 0 0)
(0 0 0)
(0 0 0)
(2.51649e-09 1.75638e-09 1.53311e-09)
(0 0 0)
(4.24783e-10 -1.09197e-09 5.36096e-10)
(8.113e-10 -2.08994e-09 1.04248e-09)
(1.17492e-09 -3.0344e-09 1.55356e-09)
(1.52893e-09 -3.95549e-09 2.09876e-09)
(1.88497e-09 -4.87274e-09 2.70373e-09)
(2.25329e-09 -5.79397e-09 3.39046e-09)
(2.64312e-09 -6.71353e-09 4.17633e-09)
(3.06263e-09 -7.6094e-09 5.0713e-09)
(3.51899e-09 -8.43944e-09 6.07218e-09)
(4.01879e-09 -9.13763e-09 7.1527e-09)
(4.57082e-09 -9.61195e-09 8.24803e-09)
(5.19298e-09 -9.74591e-09 9.23374e-09)
(5.92274e-09 -9.40146e-09 9.90767e-09)
(6.81004e-09 -8.42224e-09 1.00131e-08)
(7.76999e-09 -6.78006e-09 9.4429e-09)
(8.19061e-09 -3.65491e-09 7.86606e-09)
(0 0 0)
(8.38143e-10 -2.15116e-09 1.05814e-09)
(1.60043e-09 -4.11832e-09 2.05726e-09)
(2.31676e-09 -5.9823e-09 3.06494e-09)
(3.01289e-09 -7.80381e-09 4.13892e-09)
(3.71133e-09 -9.62335e-09 5.32947e-09)
(4.43184e-09 -1.14596e-08 6.67992e-09)
(5.1915e-09 -1.33061e-08 8.22475e-09)
(6.00399e-09 -1.51272e-08 9.98426e-09)
(6.87747e-09 -1.68511e-08 1.19538e-08)
(7.81116e-09 -1.83669e-08 1.40852e-08)
(8.7907e-09 -1.95284e-08 1.62585e-08)
(9.78184e-09 -2.01822e-08 1.82457e-08)
(1.07198e-08 -2.02381e-08 1.9685e-08)
(1.14911e-08 -1.97946e-08 2.01444e-08)
(1.19309e-08 -1.9249e-08 1.95207e-08)
(1.22463e-08 -1.94346e-08 1.85555e-08)
(0 0 0)
(1.22968e-09 -3.14576e-09 1.55333e-09)
(2.34718e-09 -6.02529e-09 3.01917e-09)
(3.39545e-09 -8.75935e-09 4.49594e-09)
(4.41141e-09 -1.144e-08 6.0676e-09)
(5.42729e-09 -1.41313e-08 7.80738e-09)
(6.47115e-09 -1.68677e-08 9.77873e-09)
(7.56647e-09 -1.9651e-08 1.20329e-08)
(8.72988e-09 -2.24448e-08 1.46018e-08)
(9.96552e-09 -2.51682e-08 1.74836e-08)
(1.12542e-08 -2.76921e-08 2.06187e-08)
(1.25355e-08 -2.98493e-08 2.38545e-08)
(1.36796e-08 -3.14784e-08 2.69044e-08)
(1.44593e-08 -3.25332e-08 2.93324e-08)
(1.458e-08 -3.32532e-08 3.06592e-08)
(1.39732e-08 -3.41222e-08 3.07917e-08)
(1.29997e-08 -3.57492e-08 3.0564e-08)
(0 0 0)
(1.58995e-09 -4.04351e-09 2.00997e-09)
(3.03319e-09 -7.74946e-09 3.90511e-09)
(4.38373e-09 -1.12775e-08 5.81128e-09)
(5.68789e-09 -1.47514e-08 7.83572e-09)
(6.98617e-09 -1.82611e-08 1.0072e-08)
(8.31375e-09 -2.18625e-08 1.26018e-08)
(9.6996e-09 -2.55746e-08 1.54918e-08)
(1.1163e-08 -2.9375e-08 1.87862e-08)
(1.2705e-08 -3.31935e-08 2.24902e-08)
(1.42907e-08 -3.69064e-08 2.65426e-08)
(1.58197e-08 -4.03396e-08 3.07775e-08)
(1.70771e-08 -4.32931e-08 3.48818e-08)
(1.76839e-08 -4.56086e-08 3.83836e-08)
(1.71509e-08 -4.7287e-08 4.07639e-08)
(1.54214e-08 -4.85164e-08 4.18281e-08)
(1.30534e-08 -4.99178e-08 4.23546e-08)
(0 0 0)
(1.91122e-09 -4.81271e-09 2.41823e-09)
(3.64343e-09 -9.2301e-09 4.6957e-09)
(5.2593e-09 -1.34483e-08 6.98142e-09)
(6.81256e-09 -1.7622e-08 9.40208e-09)
(8.35026e-09 -2.18681e-08 1.20682e-08)
(9.91341e-09 -2.62677e-08 1.50764e-08)
(1.15363e-08 -3.08646e-08 1.85068e-08)
(1.32429e-08 -3.56623e-08 2.24147e-08)
(1.50375e-08 -4.06187e-08 2.68138e-08)
(1.68868e-08 -4.56377e-08 3.16472e-08)
(1.86868e-08 -5.05592e-08 3.67463e-08)
(2.02083e-08 -5.51425e-08 4.17851e-08)
(2.10325e-08 -5.90373e-08 4.62624e-08)
(2.05768e-08 -6.17567e-08 4.96009e-08)
(1.86461e-08 -6.28381e-08 5.14751e-08)
(1.53782e-08 -6.24751e-08 5.26317e-08)
(0 0 0)
(2.18773e-09 -5.42329e-09 2.7707e-09)
(4.16686e-09 -1.04091e-08 5.37632e-09)
(6.00601e-09 -1.5186e-08 7.98409e-09)
(7.76398e-09 -1.99365e-08 1.07357e-08)
(9.49229e-09 -2.48039e-08 1.37543e-08)
(1.12363e-08 -2.9895e-08 1.71474e-08)
(1.30351e-08 -3.52818e-08 2.10047e-08)
(1.4919e-08 -4.10002e-08 2.53895e-08)
(1.69031e-08 -4.70474e-08 3.0322e-08)
(1.8974e-08 -5.33748e-08 3.57496e-08)
(2.10674e-08 -5.98735e-08 4.15029e-08)
(2.30308e-08 -6.63376e-08 4.72418e-08)
(2.45815e-08 -7.23746e-08 5.24213e-08)
(2.53083e-08 -7.72316e-08 5.63652e-08)
(2.49391e-08 -7.9759e-08 5.86148e-08)
(2.29442e-08 -7.78988e-08 6.00449e-08)
(0 0 0)
(2.416e-09 -5.84813e-09 3.0626e-09)
(4.59696e-09 -1.12339e-08 5.93777e-09)
(6.61455e-09 -1.64119e-08 8.80555e-09)
(8.52999e-09 -2.15878e-08 1.18176e-08)
(1.03969e-08 -2.69271e-08 1.51051e-08)
(1.22628e-08 -3.25598e-08 1.87814e-08)
(1.41696e-08 -3.85837e-08 2.29406e-08)
(1.61532e-08 -4.50658e-08 2.7649e-08)
(1.82402e-08 -5.20415e-08 3.29285e-08)
(2.04421e-08 -5.95124e-08 3.87265e-08)
(2.27467e-08 -6.74389e-08 4.48693e-08)
(2.51085e-08 -7.57205e-08 5.09983e-08)
(2.7451e-08 -8.41427e-08 5.65077e-08)
(2.96924e-08 -9.22343e-08 6.0565e-08)
(3.16928e-08 -9.8861e-08 6.24951e-08)
(3.42312e-08 -1.02799e-07 6.32255e-08)
(0 0 0)
(2.59493e-09 -6.06468e-09 3.29212e-09)
(4.93209e-09 -1.16609e-08 6.37698e-09)
(7.08316e-09 -1.70606e-08 9.44179e-09)
(9.10901e-09 -2.24855e-08 1.26432e-08)
(1.10627e-08 -2.81169e-08 1.61151e-08)
(1.29909e-08 -3.41021e-08 1.99718e-08)
(1.49354e-08 -4.05579e-08 2.4306e-08)
(1.69331e-08 -4.75727e-08 2.91813e-08)
(1.90151e-08 -5.52059e-08 3.46149e-08)
(2.12045e-08 -6.34854e-08 4.05494e-08)
(2.35125e-08 -7.24021e-08 4.68054e-08)
(2.59326e-08 -8.18963e-08 5.30169e-08)
(2.84358e-08 -9.18272e-08 5.85584e-08)
(3.09411e-08 -1.01891e-07 6.25463e-08)
(3.30643e-08 -1.10854e-07 6.41777e-08)
(3.68972e-08 -1.21877e-07 6.27117e-08)
(0 0 0)
(0 0 0)
(0 0 0)
(0 0 0)
(0 0 0)
(0 0 0)
(0 0 0)
(0 0 0)
(0 0 0)
(0 0 0)
(0 0 0)
(0 0 0)
(0 0 0)
(0 0 0)
(0 0 0)
(0 0 0)
(2.01906e-09 1.24833e-09 1.38519e-09)
(0 0 0)
(4.26331e-10 -1.10472e-09 4.17822e-10)
(8.13639e-10 -2.11458e-09 8.12101e-10)
(1.17672e-09 -3.07081e-09 1.20926e-09)
(1.52797e-09 -4.00425e-09 1.63166e-09)
(1.87757e-09 -4.93514e-09 2.0983e-09)
(2.2337e-09 -5.87241e-09 2.62485e-09)
(2.60228e-09 -6.81222e-09 3.22258e-09)
(2.98657e-09 -7.73571e-09 3.89586e-09)
(3.3864e-09 -8.60605e-09 4.63757e-09)
(3.79823e-09 -9.36568e-09 5.42199e-09)
(4.21798e-09 -9.93453e-09 6.19562e-09)
(4.65047e-09 -1.02084e-08 6.86911e-09)
(5.12933e-09 -1.00498e-08 7.3221e-09)
(5.73422e-09 -9.26576e-09 7.44604e-09)
(6.47956e-09 -7.73745e-09 7.25571e-09)
(6.94464e-09 -4.53069e-09 6.46087e-09)
(0 0 0)
(8.41422e-10 -2.17622e-09 8.24739e-10)
(1.60554e-09 -4.16671e-09 1.60274e-09)
(2.32112e-09 -6.05365e-09 2.38589e-09)
(3.01223e-09 -7.89896e-09 3.21803e-09)
(3.69879e-09 -9.74442e-09 4.13648e-09)
(4.39665e-09 -1.16105e-08 5.17214e-09)
(5.11699e-09 -1.34936e-08 6.34753e-09)
(5.86464e-09 -1.53627e-08 7.67194e-09)
(6.63528e-09 -1.7154e-08 9.13288e-09)
(7.41186e-09 -1.8768e-08 1.0683e-08)
(8.16243e-09 -2.00733e-08 1.22232e-08)
(8.84306e-09 -2.09239e-08 1.35896e-08)
(9.413e-09 -2.12036e-08 1.45627e-08)
(9.86365e-09 -2.09055e-08 1.49448e-08)
(1.02182e-08 -2.02693e-08 1.47734e-08)
(1.08267e-08 -2.00101e-08 1.44931e-08)
(0 0 0)
(1.23498e-09 -3.18222e-09 1.21081e-09)
(2.35571e-09 -6.09558e-09 2.35238e-09)
(3.40358e-09 -8.86265e-09 3.50024e-09)
(4.41323e-09 -1.1577e-08 4.71817e-09)
(5.41352e-09 -1.43042e-08 6.0606e-09)
(6.42739e-09 -1.70805e-08 7.57292e-09)
(7.47067e-09 -1.99103e-08 9.28883e-09)
(8.54891e-09 -2.27613e-08 1.12239e-08)
(9.65131e-09 -2.55586e-08 1.33642e-08)
(1.07411e-08 -2.81821e-08 1.56491e-08)
(1.17427e-08 -3.04725e-08 1.79516e-08)
(1.25299e-08 -3.22638e-08 2.0065e-08)
(1.29333e-08 -3.34638e-08 2.1726e-08)
(1.28173e-08 -3.41909e-08 2.27228e-08)
(1.23152e-08 -3.48078e-08 2.31073e-08)
(1.1883e-08 -3.59321e-08 2.33294e-08)
(0 0 0)
(1.59758e-09 -4.09001e-09 1.56694e-09)
(3.04586e-09 -7.83894e-09 3.04304e-09)
(4.397e-09 -1.14085e-08 4.52492e-09)
(5.69482e-09 -1.49242e-08 6.09403e-09)
(6.97599e-09 -1.84771e-08 7.82007e-09)
(8.27e-09 -2.21243e-08 9.76152e-09)
(9.59743e-09 -2.58858e-08 1.19627e-08)
(1.09659e-08 -2.97404e-08 1.44463e-08)
(1.23613e-08 -3.36191e-08 1.72003e-08)
(1.37331e-08 -3.73988e-08 2.01588e-08)
(1.49718e-08 -4.09016e-08 2.31801e-08)
(1.58803e-08 -4.39093e-08 2.60355e-08)
(1.61623e-08 -4.62127e-08 2.84395e-08)
(1.55159e-08 -4.77195e-08 3.01649e-08)
(1.40698e-08 -4.85778e-08 3.1201e-08)
(1.24167e-08 -4.94811e-08 3.19417e-08)
(0 0 0)
(1.92143e-09 -4.86754e-09 1.88549e-09)
(3.66087e-09 -9.33541e-09 3.65967e-09)
(5.27908e-09 -1.3602e-08 5.43694e-09)
(6.82723e-09 -1.78233e-08 7.31361e-09)
(8.34852e-09 -2.21173e-08 9.37212e-09)
(9.87824e-09 -2.65648e-08 1.16818e-08)
(1.14424e-08 -3.12082e-08 1.42962e-08)
(1.30538e-08 -3.6048e-08 1.72447e-08)
(1.47033e-08 -4.10361e-08 2.05186e-08)
(1.63449e-08 -4.6066e-08 2.40504e-08)
(1.78713e-08 -5.09587e-08 2.76894e-08)
(1.90805e-08 -5.54409e-08 3.11895e-08)
(1.96476e-08 -5.91121e-08 3.42384e-08)
(1.91818e-08 -6.14368e-08 3.65735e-08)