/*--------------------------------*- C++ -*----------------------------------*\
| =========                 |                                                 |
| \\      /  F ield         | OpenFOAM: The Open Source CFD Toolbox           |
|  \\    /   O peration     | Version:  v1912                                 |
|   \\  /    A nd           | Website:  www.openfoam.com                      |
|    \\/     M anipulation  |                                                 |
\*---------------------------------------------------------------------------*/
FoamFile
{
    version     2.0;
    format      ascii;
    class       volScalarField;
    location    "0.93/fluid";
    object      T;
}
// * * * * * * * * * * * * * * * * * * * * * * * * * * * * * * * * * * * * * //

dimensions      [0 0 0 1 0 0 0];


internalField   nonuniform List<scalar> 
14592
(
273.307
273.932
274.58
275.257
275.967
276.716
277.51
278.356
279.262
280.239
281.298
282.453
283.724
285.141
286.76
288.722
273.305
273.926
274.571
275.244
275.951
276.695
277.485
278.327
279.229
280.2
281.254
282.404
283.67
285.081
286.684
288.572
273.303
273.919
274.558
275.225
275.925
276.663
277.445
278.278
279.171
280.133
281.176
282.315
283.571
284.974
286.57
288.452
273.3
273.91
274.542
275.202
275.893
276.622
277.394
278.215
279.095
280.042
281.068
282.19
283.431
284.822
286.417
288.32
273.297
273.9
274.524
275.175
275.857
276.574
277.333
278.14
279.002
279.929
280.933
282.031
283.246
284.616
286.205
288.139
273.293
273.888
274.505
275.146
275.817
276.521
277.265
278.055
278.896
279.798
280.772
281.836
283.013
284.344
285.906
287.857
273.289
273.876
274.483
275.115
275.773
276.464
277.192
277.961
278.778
279.65
280.588
281.607
282.728
283.994
285.483
287.383
273.285
273.863
274.461
275.082
275.728
276.405
277.114
277.862
278.652
279.491
280.386
281.35
282.399
283.564
284.907
286.582
273.311
273.946
274.605
275.294
276.019
276.785
277.6
278.473
279.413
280.432
281.544
282.767
284.125
285.653
287.413
289.526
273.31
273.94
274.596
275.281
276.001
276.764
277.575
278.443
279.378
280.392
281.498
282.716
284.069
285.593
287.341
289.404
273.307
273.933
274.582
275.261
275.975
276.73
277.533
278.393
279.318
280.321
281.417
282.624
283.967
285.484
287.229
289.297
273.304
273.923
274.566
275.237
275.942
276.687
277.48
278.327
279.238
280.226
281.304
282.494
283.821
285.328
287.078
289.178
273.301
273.913
274.547
275.21
275.904
276.638
277.417
278.248
279.141
280.108
281.162
282.326
283.628
285.115
286.864
289.009
273.297
273.901
274.527
275.179
275.863
276.583
277.346
278.158
279.029
279.969
280.992
282.119
283.381
284.83
286.557
288.736
273.293
273.888
274.505
275.146
275.817
276.523
277.268
278.06
278.905
279.813
280.797
281.875
283.077
284.455
286.107
288.249
273.289
273.875
274.482
275.112
275.77
276.461
277.187
277.956
278.772
279.643
280.581
281.599
282.72
283.986
285.476
287.378
273.316
273.959
274.628
275.329
276.067
276.849
277.684
278.58
279.55
280.605
281.762
283.038
284.458
286.053
287.866
289.964
273.314
273.954
274.619
275.315
276.049
276.827
277.658
278.55
279.514
280.564
281.715
282.986
284.401
285.992
287.798
289.862
273.312
273.946
274.605
275.295
276.022
276.792
277.615
278.498
279.452
280.491
281.631
282.891
284.297
285.883
287.69
289.766
273.309
273.936
274.588
275.27
275.988
276.749
277.56
278.43
279.37
280.392
281.514
282.756
284.147
285.725
287.54
289.653
273.305
273.925
274.569
275.242
275.949
276.697
277.494
278.348
279.269
280.269
281.366
282.582
283.947
285.506
287.325
289.489
273.301
273.913
274.548
275.21
275.906
276.64
277.42
278.254
279.152
280.124
281.188
282.366
283.689
285.211
287.011
289.218
273.297
273.9
274.525
275.176
275.859
276.578
277.34
278.152
279.021
279.96
280.983
282.109
283.371
284.819
286.547
288.729
273.292
273.886
274.501
275.141
275.81
276.513
277.255
278.042
278.882
279.782
280.756
281.818
282.994
284.326
285.89
287.844
273.32
273.971
274.649
275.36
276.109
276.906
277.757
278.675
279.669
280.754
281.945
283.26
284.719
286.347
288.167
290.207
273.318
273.965
274.639
275.346
276.091
276.884
277.731
278.643
279.633
280.712
281.897
283.207
284.662
286.287
288.102
290.113
273.315
273.957
274.625
275.325
276.063
276.848
277.687
278.59
279.569
280.637
281.811
283.11
284.557
286.177
287.996
290.023
273.312
273.948
274.608
275.3
276.029
276.803
277.63
278.52
279.484
280.535
281.691
282.972
284.403
286.017
287.846
289.913
273.309
273.936
274.588
275.27
275.989
276.75
277.563
278.435
279.379
280.408
281.538
282.792
284.198
285.795
287.631
289.751
273.304
273.924
274.566
275.238
275.944
276.691
277.486
278.339
279.258
280.258
281.354
282.569
283.933
285.493
287.313
289.481
273.3
273.91
274.543
275.203
275.896
276.627
277.403
278.232
279.123
280.088
281.141
282.303
283.604
285.092
286.843
288.994
273.295
273.896
274.518
275.166
275.845
276.559
277.315
278.119
278.978
279.903
280.904
282
283.214
284.584
286.176
288.117
273.323
273.981
274.667
275.386
276.145
276.953
277.819
278.753
279.767
280.875
282.091
283.432
284.915
286.555
288.364
290.348
273.321
273.975
274.657
275.372
276.127
276.931
277.792
278.721
279.73
280.832
282.042
283.379
284.858
286.495
288.3
290.259
273.319
273.967
274.642
275.35
276.099
276.895
277.747
278.667
279.665
280.756
281.955
283.28
284.751
286.386
288.196
290.171
273.315
273.957
274.625
275.324
276.063
276.848
277.689
278.595
279.578
280.651
281.832
283.139
284.595
286.224
288.046
290.062
273.312
273.946
274.605
275.295
276.022
276.794
277.62
278.508
279.471
280.521
281.675
282.955
284.386
286
287.83
289.901
273.307
273.933
274.582
275.261
275.976
276.734
277.542
278.409
279.346
280.367
281.487
282.727
284.117
285.694
287.511
289.632
273.303
273.919
274.558
275.225
275.927
276.668
277.456
278.299
279.207
280.192
281.268
282.455
283.781
285.287
287.038
289.149
273.298
273.905
274.533
275.188
275.875
276.599
277.366
278.183
279.058
280.001
281.025
282.144
283.382
284.772
286.369
288.283
273.325
273.989
274.68
275.406
276.173
276.99
277.867
278.813
279.842
280.966
282.199
283.557
285.052
286.696
288.49
290.432
273.324
273.983
274.67
275.392
276.155
276.968
277.839
278.781
279.804
280.922
282.15
283.503
284.995
286.636
288.427
290.345
273.321
273.975
274.656
275.37
276.126
276.931
277.794
278.726
279.738
280.845
282.061
283.403
284.887
286.526
288.323
290.258
273.318
273.965
274.638
275.344
276.09
276.884
277.735
278.652
279.649
280.739
281.937
283.261
284.731
286.364
288.174
290.15
273.314
273.953
274.617
275.313
276.048
276.829
277.664
278.564
279.54
280.606
281.778
283.074
284.519
286.138
287.957
289.989
273.31
273.94
274.595
275.28
276.001
276.767
277.584
278.463
279.414
280.449
281.585
282.843
284.246
285.83
287.637
289.722
273.305
273.926
274.57
275.243
275.951
276.7
277.497
278.351
279.272
280.271
281.362
282.566
283.906
285.42
287.165
289.243
273.3
273.911
274.544
275.205
275.898
276.629
277.405
278.232
279.119
280.076
281.115
282.25
283.503
284.902
286.497
288.386
273.327
273.994
274.69
275.42
276.192
277.016
277.899
278.854
279.892
281.026
282.271
283.638
285.14
286.782
288.565
290.48
273.325
273.989
274.68
275.406
276.174
276.993
277.872
278.821
279.854
280.983
282.221
283.584
285.082
286.723
288.502
290.394
273.323
273.98
274.665
275.384
276.145
276.955
277.825
278.765
279.787
280.904
282.131
283.483
284.974
286.613
288.399
290.308
273.319
273.97
274.647
275.357
276.108
276.908
277.766
278.691
279.697
280.797
282.006
283.34
284.816
286.451
288.249
290.2
273.316
273.958
274.626
275.326
276.066
276.852
277.694
278.602
279.587
280.663
281.845
283.152
284.604
286.224
288.032
290.04
273.311
273.945
274.603
275.292
276.019
276.79
277.614
278.5
279.459
280.504
281.651
282.918
284.329
285.914
287.712
289.773
273.307
273.931
274.578
275.255
275.967
276.722
277.525
278.386
279.315
280.324
281.425
282.638
283.986
285.503
287.241
289.296
273.302
273.916
274.552
275.217
275.914
276.65
277.432
278.266
279.161
280.126
281.174
282.319
283.58
284.984
286.574
288.447
273.328
273.997
274.695
275.427
276.202
277.028
277.916
278.874
279.917
281.057
282.306
283.678
285.182
286.824
288.6
290.502
273.326
273.991
274.684
275.413
276.183
277.005
277.888
278.842
279.879
281.013
282.256
283.623
285.124
286.764
288.537
290.416
273.324
273.983
274.67
275.391
276.154
276.968
277.841
278.786
279.812
280.934
282.166
283.523
285.016
286.654
288.434
290.331
273.32
273.973
274.651
275.364
276.117
276.92
277.781
278.711
279.722
280.826
282.04
283.378
284.858
286.492
288.284
290.223
273.316
273.961
274.631
275.333
276.075
276.864
277.71
278.621
279.611
280.692
281.879
283.19
284.645
286.264
288.067
290.063
273.312
273.947
274.607
275.299
276.027
276.801
277.628
278.518
279.482
280.532
281.683
282.955
284.369
285.954
287.748
289.797
273.307
273.933
274.582
275.261
275.976
276.733
277.539
278.404
279.337
280.35
281.456
282.674
284.025
285.542
287.276
289.321
273.303
273.918
274.556
275.222
275.922
276.661
277.445
278.283
279.182
280.152
281.204
282.354
283.618
285.023
286.611
288.475
273.282
273.857
274.449
275.059
275.688
276.335
277
277.682
278.378
279.083
279.789
280.487
281.163
281.797
282.37
282.858
273.281
273.853
274.442
275.05
275.677
276.321
276.984
277.664
278.357
279.059
279.763
280.458
281.13
281.762
282.333
282.819
273.279
273.847
274.433
275.036
275.659
276.299
276.957
277.632
278.32
279.016
279.714
280.403
281.07
281.696
282.263
282.746
273.277
273.841
274.421
275.019
275.636
276.27
276.922
277.589
278.269
278.958
279.647
280.327
280.985
281.604
282.163
282.64
273.275
273.833
274.407
274.999
275.609
276.236
276.879
277.538
278.208
278.886
279.564
280.233
280.879
281.486
282.036
282.505
273.272
273.824
274.392
274.977
275.579
276.198
276.832
277.48
278.139
278.804
279.469
280.123
280.755
281.349
281.885
282.345
273.269
273.815
274.376
274.954
275.547
276.157
276.78
277.417
278.063
278.714
279.364
280.002
280.617
281.194
281.716
282.162
273.266
273.805
274.359
274.929
275.514
276.114
276.727
277.352
277.984
278.62
279.253
279.873
280.47
281.029
281.533
281.965
273.283
273.858
274.451
275.063
275.694
276.344
277.014
277.702
278.405
279.12
279.838
280.551
281.243
281.898
282.492
282.999
273.282
273.854
274.444
275.053
275.681
276.33
276.997
277.682
278.382
279.094
279.809
280.519
281.209
281.861
282.452
282.958
273.28
273.848
274.434
275.038
275.662
276.306
276.968
277.648
278.343
279.049
279.758
280.461
281.145
281.792
282.379
282.882
273.278
273.841
274.422
275.021
275.639
276.276
276.932
277.604
278.291
278.988
279.689
280.383
281.058
281.696
282.275
282.772
273.275
273.833
274.408
275.001
275.612
276.241
276.888
277.552
278.229
278.915
279.604
280.286
280.948
281.574
282.144
282.632
273.272
273.824
274.392
274.978
275.582
276.202
276.84
277.493
278.158
278.831
279.506
280.173
280.82
281.432
281.987
282.464
273.269
273.814
274.376
274.954
275.549
276.161
276.788
277.429
278.081
278.739
279.398
280.048
280.678
281.271
281.81
282.273
273.266
273.805
274.359
274.93
275.516
276.118
276.734
277.362
278
278.643
279.284
279.915
280.525
281.098
281.618
282.065
273.284
273.862
274.458
275.073
275.71
276.367
277.045
277.744
278.462
279.195
279.937
280.679
281.408
282.103
282.74
283.288
273.283
273.857
274.45
275.063
275.696
276.351
277.026
277.723
278.438
279.167
279.906
280.645
281.37
282.063
282.698
283.245
273.281
273.851
274.439
275.047
275.676
276.325
276.996
277.687
278.396
279.12
279.852
280.584
281.303
281.989
282.62
283.163
273.279
273.844
274.427
275.029
275.651
276.294
276.958
277.641
278.341
279.056
279.779
280.501
281.21
281.887
282.509
283.047
273.276
273.836
274.413
275.008
275.623
276.258
276.913
277.586
278.276
278.979
279.69
280.399
281.094
281.758
282.369
282.897
273.273
273.827
274.397
274.985
275.592
276.218
276.863
277.525
278.203
278.892
279.587
280.28
280.958
281.605
282.2
282.715
273.27
273.817
274.38
274.961
275.559
276.176
276.809
277.459
278.123
278.796
279.474
280.147
280.805
281.432
282.008
282.506
273.267
273.807
274.363
274.936
275.525
276.131
276.754
277.39
278.039
278.695
279.354
280.006
280.642
281.245
281.797
282.275
273.286
273.869
274.47
275.092
275.736
276.403
277.094
277.81
278.549
279.309
280.086
280.872
281.654
282.413
283.12
283.737
273.285
273.864
274.462
275.08
275.721
276.386
277.074
277.786
278.522
279.28
280.053
280.835
281.614
282.37
283.075
283.69
273.283
273.858
274.451
275.064
275.7
276.359
277.042
277.748
278.478
279.229
279.995
280.77
281.542
282.291
282.991
283.603
273.281
273.85
274.438
275.045
275.674
276.326
277.001
277.7
278.421
279.161
279.917
280.681
281.442
282.181
282.872
283.477
273.278
273.842
274.423
275.024
275.645
276.289
276.955
277.643
278.352
279.08
279.822
280.572
281.317
282.041
282.718
283.313
273.275
273.832
274.407
275
275.613
276.247
276.903
277.579
278.274
278.987
279.712
280.443
281.169
281.874
282.532
283.111
273.272
273.822
274.39
274.975
275.579
276.203
276.847
277.509
278.19
278.885
279.591
280.3
281.002
281.682
282.316
282.873
273.268
273.812
274.372
274.949
275.544
276.157
276.788
277.437
278.101
278.778
279.462
280.147
280.821
281.471
282.076
282.605
273.289
273.878
274.487
275.117
275.771
276.451
277.159
277.895
278.662
279.458
280.28
281.124
281.979
282.827
283.636
284.358
273.288
273.873
274.478
275.105
275.756
276.433
277.138
277.871
278.634
279.426
280.245
281.085
281.936
282.78
283.587
284.308
273.286
273.867
274.467
275.088
275.734
276.405
277.104
277.831
278.587
279.372
280.183
281.015
281.858
282.696
283.497
284.214
273.284
273.859
274.453
275.069
275.707
276.371
277.061
277.78
278.526
279.3
280.099
280.919
281.75
282.576
283.367
284.077
273.281
273.85
274.438
275.046
275.677
276.332
277.012
277.719
278.453
279.213
279.997
280.8
281.614
282.423
283.199
283.897
273.277
273.841
274.421
275.022
275.643
276.288
276.957
277.652
278.371
279.114
279.879
280.661
281.451
282.236
282.989
283.668
273.274
273.83
274.403
274.995
275.608
276.242
276.899
277.578
278.281
279.004
279.747
280.503
281.265
282.019
282.74
283.39
273.271
273.82
274.385
274.968
275.571
276.194
276.837
277.502
278.186
278.888
279.606
280.333
281.062
281.777
282.458
283.069
273.293
273.89
274.507
275.148
275.814
276.509
277.236
277.998
278.797
279.634
280.511
281.425
282.371
283.335
284.286
285.169
273.292
273.885
274.499
275.136
275.799
276.491
277.215
277.973
278.767
279.601
280.473
281.383
282.325
283.285
284.234
285.113
273.29
273.878
274.487
275.118
275.776
276.462
277.179
277.93
278.718
279.543
280.407
281.308
282.241
283.194
284.137
285.012
273.287
273.87
274.473
275.097
275.748
276.426
277.135
277.876
278.653
279.466
280.317
281.205
282.125
283.064
283.997
284.866
273.284
273.861
274.457
275.074
275.716
276.385
277.083
277.812
278.575
279.374
280.207
281.076
281.976
282.896
283.812
284.669
273.281
273.851
274.439
275.048
275.681
276.339
277.025
277.74
278.487
279.267
280.079
280.923
281.796
282.688
283.576
284.411
273.277
273.84
274.421
275.021
275.643
276.29
276.963
277.662
278.391
279.148
279.935
280.749
281.587
282.439
283.286
284.082
273.274
273.829
274.401
274.993
275.605
276.239
276.898
277.581
278.289
279.022
279.78
280.559
281.355
282.158
282.948
283.684
273.297
273.903
274.53
275.182
275.863
276.575
277.324
278.113
278.947
279.83
280.767
281.76
282.812
283.918
285.06
286.185
273.296
273.898
274.522
275.17
275.847
276.556
277.301
278.086
278.916
279.795
280.727
281.716
282.763
283.864
285.002
286.119
273.294
273.891
274.509
275.152
275.823
276.526
277.264
278.042
278.864
279.734
280.656
281.636
282.674
283.767
284.898
286.009
273.291
273.883
274.495
275.13
275.794
276.488
277.217
277.985
278.795
279.652
280.561
281.525
282.548
283.628
284.749
285.858
273.288
273.873
274.478
275.106
275.76
276.445
277.162
277.917
278.712
279.553
280.442
281.385
282.386
283.445
284.55
285.651
273.285
273.863
274.46
275.079
275.724
276.397
277.101
277.841
278.618
279.437
280.303
281.218
282.188
283.213
284.287
285.366
273.281
273.851
274.44
275.05
275.684
276.345
277.035
277.757
278.514
279.309
280.145
281.025
281.953
282.931
283.951
284.978
273.277
273.84
274.42
275.021
275.644
276.291
276.966
277.67
278.405
279.172
279.975
280.813
281.689
282.602
283.541
284.474
273.302
273.917
274.555
275.219
275.914
276.645
277.416
278.234
279.104
280.035
281.034
282.11
283.275
284.539
285.916
287.404
273.301
273.912
274.546
275.207
275.898
276.625
277.392
278.206
279.072
279.998
280.992
282.063
283.223
284.482
285.85
287.31
273.298
273.905
274.533
275.188
275.873
276.594
277.354
278.16
279.017
279.934
280.918
281.979
283.129
284.379
285.74
287.193
273.296
273.896
274.518
275.166
275.843
276.554
277.305
278.099
278.945
279.847
280.816
281.861
282.995
284.233
285.587
287.045
273.292
273.886
274.501
275.14
275.808
276.509
277.247
278.028
278.857
279.741
280.689
281.711
282.821
284.037
285.377
286.841
273.289
273.875
274.482
275.112
275.77
276.458
277.183
277.947
278.757
279.618
280.538
281.529
282.604
283.783
285.093
286.544
273.285
273.864
274.462
275.082
275.728
276.404
277.113
277.859
278.646
279.48
280.367
281.317
282.343
283.465
284.709
286.1
273.281
273.851
274.44
275.051
275.686
276.347
277.04
277.765
278.528
279.331
280.181
281.082
282.046
283.084
284.215
285.456
273.281
273.851
274.439
275.049
275.683
276.345
277.036
277.761
278.523
279.326
280.175
281.076
282.039
283.078
284.209
285.45
273.277
273.838
274.418
275.018
275.64
276.286
276.96
277.663
278.396
279.163
279.964
280.802
281.678
282.59
283.53
284.463
273.273
273.827
274.398
274.988
275.599
276.232
276.889
277.571
278.278
279.01
279.766
280.544
281.34
282.143
282.933
283.67
273.27
273.817
274.381
274.963
275.564
276.185
276.827
277.49
278.173
278.874
279.59
280.316
281.044
281.76
282.441
283.052
273.267
273.81
274.368
274.943
275.536
276.148
276.777
277.424
278.086
278.761
279.444
280.128
280.802
281.452
282.056
282.587
273.266
273.804
274.359
274.93
275.517
276.121
276.741
277.376
278.022
278.677
279.334
279.986
280.621
281.224
281.777
282.256
273.265
273.802
274.355
274.923
275.507
276.107
276.721
277.347
277.983
278.624
279.264
279.894
280.503
281.076
281.597
282.045
273.265
273.802
274.355
274.923
275.505
276.103
276.714
277.336
277.967
278.601
279.232
279.851
280.447
281.006
281.511
281.945
273.284
273.862
274.459
275.078
275.723
276.397
277.105
277.849
278.635
279.468
280.354
281.304
282.329
283.451
284.695
286.088
273.28
273.849
274.437
275.045
275.677
276.336
277.024
277.745
278.5
279.293
280.128
281.007
281.934
282.911
283.932
284.961
273.276
273.837
274.416
275.015
275.635
276.28
276.95
277.647
278.374
279.129
279.914
280.727
281.564
282.417
283.264
284.061
273.273
273.827
274.398
274.988
275.598
276.23
276.884
277.562
278.262
278.983
279.724
280.479
281.24
281.994
282.715
283.366
273.27
273.819
274.384
274.967
275.569
276.19
276.831
277.491
278.169
278.863
279.566
280.274
280.976
281.655
282.289
282.847
273.269
273.814
274.375
274.953
275.549
276.162
276.793
277.44
278.101
278.772
279.448
280.12
280.777
281.404
281.98
282.48
273.268
273.811
274.37
274.946
275.538
276.147
276.771
277.409
278.058
278.715
279.372
280.02
280.649
281.242
281.782
282.247
273.267
273.811
274.37
274.945
275.536
276.142
276.763
277.397
278.04
278.689
279.337
279.973
280.588
281.165
281.688
282.136
273.288
273.872
274.477
275.105
275.761
276.447
277.169
277.931
278.738
279.597
280.516
281.505
282.579
283.759
285.069
286.524
273.283
273.859
274.454
275.071
275.713
276.383
277.085
277.821
278.596
279.413
280.276
281.19
282.159
283.184
284.259
285.339
273.28
273.847
274.433
275.039
275.669
276.324
277.007
277.719
278.463
279.239
280.049
280.892
281.764
282.655
283.544
284.38
273.276
273.836
274.414
275.012
275.63
276.272
276.938
277.629
278.345
279.085
279.847
280.627
281.417
282.202
282.955
283.636
273.273
273.828
274.4
274.99
275.6
276.23
276.882
277.555
278.247
278.957
279.68
280.409
281.134
281.838
282.497
283.078
273.271
273.822
274.39
274.975
275.578
276.201
276.842
277.5
278.174
278.861
279.553
280.244
280.922
281.569
282.165
282.682
273.27
273.819
274.385
274.967
275.567
276.184
276.818
277.467
278.129
278.799
279.472
280.137
280.784
281.395
281.952
282.431
273.27
273.819
274.384
274.966
275.564
276.179
276.809
277.454
278.11
278.772
279.434
280.087
280.718
281.312
281.85
282.312
273.291
273.882
274.494
275.13
275.794
276.491
277.226
278.003
278.829
279.71
280.655
281.674
282.783
283.999
285.341
286.809
273.286
273.868
274.47
275.094
275.745
276.425
277.139
277.889
278.681
279.518
280.404
281.345
282.345
283.403
284.508
285.612
273.282
273.856
274.448
275.061
275.699
276.363
277.057
277.783
278.542
279.336
280.167
281.033
281.932
282.851
283.768
284.627
273.279
273.845
274.429
275.033
275.659
276.31
276.986
277.688
278.418
279.174
279.955
280.756
281.568
282.377
283.153
283.853
273.276
273.836
274.413
275.01
275.627
276.266
276.927
277.611
278.316
279.04
279.779
280.527
281.271
281.995
282.673
283.27
273.274
273.83
274.403
274.994
275.605
276.235
276.885
277.554
278.24
278.939
279.647
280.353
281.048
281.712
282.324
282.855
273.273
273.827
274.398
274.986
275.593
276.218
276.86
277.519
278.192
278.875
279.561
280.241
280.902
281.528
282.099
282.591
273.273
273.827
274.397
274.985
275.59
276.212
276.851
277.505
278.171
278.846
279.521
280.187
280.833
281.441
281.992
282.465
273.293
273.89
274.508
275.15
275.823
276.529
277.274
278.063
278.904
279.802
280.767
281.809
282.941
284.178
285.532
286.995
273.289
273.876
274.483
275.114
275.772
276.46
277.184
277.946
278.751
279.604
280.509
281.47
282.491
283.57
284.691
285.802
273.285
273.863
274.461
275.08
275.725
276.397
277.1
277.836
278.608
279.416
280.264
281.148
282.066
283.005
283.938
284.809
273.281
273.852
274.441
275.051
275.684
276.341
277.026
277.738
278.48
279.249
280.045
280.862
281.691
282.516
283.308
284.021
273.278
273.843
274.425
275.027
275.651
276.296
276.966
277.658
278.374
279.11
279.862
280.624
281.383
282.122
282.814
283.422
273.276
273.837
274.414
275.011
275.627
276.264
276.922
277.599
278.295
279.005
279.724
280.444
281.152
281.829
282.453
282.994
273.275
273.833
274.409
275.003
275.615
276.246
276.896
277.563
278.245
278.938
279.635
280.327
281.001
281.639
282.221
282.721
273.275
273.833
274.409
275.001
275.612
276.24
276.886
277.548
278.224
278.908
279.594
280.272
280.929
281.548
282.109
282.591
273.296
273.896
274.519
275.167
275.845
276.558
277.311
278.11
278.962
279.873
280.852
281.909
283.055
284.303
285.661
287.115
273.291
273.882
274.494
275.129
275.793
276.488
277.219
277.99
278.806
279.67
280.588
281.564
282.598
283.689
284.819
285.93
273.287
273.869
274.471
275.095
275.745
276.423
277.133
277.877
278.658
279.478
280.337
281.235
282.166
283.117
284.059
284.936
273.283
273.857
274.451
275.065
275.703
276.366
277.057
277.778
278.527
279.307
280.113
280.942
281.783
282.62
283.422
284.142
273.28
273.848
274.434
275.041
275.669
276.32
276.996
277.695
278.419
279.164
279.926
280.698
281.468
282.218
282.919
283.535
273.278
273.842
274.423
275.024
275.645
276.287
276.951
277.635
278.338
279.056
279.785
280.514
281.231
281.918
282.551
283.099
273.277
273.839
274.418
275.016
275.632
276.269
276.924
277.598
278.287
278.987
279.693
280.394
281.076
281.724
282.313
282.821
273.276
273.838
274.417
275.014
275.629
276.262
276.914
277.582
278.264
278.956
279.65
280.337
281.002
281.63
282.199
282.687
273.297
273.901
274.526
275.178
275.86
276.577
277.336
278.142
279.001
279.92
280.909
281.975
283.13
284.383
285.741
287.188
273.292
273.886
274.501
275.14
275.807
276.507
277.243
278.02
278.842
279.715
280.641
281.625
282.669
283.766
284.899
286.009
273.288
273.873
274.478
275.105
275.758
276.441
277.156
277.906
278.693
279.52
280.387
281.293
282.231
283.189
284.137
285.016
273.284
273.861
274.457
275.075
275.716
276.383
277.079
277.804
278.56
279.346
280.159
280.996
281.845
282.688
283.496
284.22
273.281
273.852
274.441
275.05
275.681
276.336
277.016
277.721
278.45
279.201
279.97
280.749
281.526
282.282
282.989
283.609
273.279
273.845
274.43
275.033
275.657
276.303
276.97
277.659
278.367
279.091
279.826
280.561
281.285
281.978
282.616
283.169
273.278
273.842
274.424
275.024
275.644
276.284
276.943
277.621
278.315
279.021
279.732
280.439
281.128
281.781
282.376
282.888
273.278
273.842
274.423
275.023
275.641
276.278
276.933
277.605
278.292
278.989
279.689
280.381
281.053
281.686
282.26
282.752
273.298
273.903
274.53
275.183
275.867
276.588
277.349
278.158
279.02
279.944
280.937
282.008
283.166
284.421
285.779
287.222
273.293
273.888
274.505
275.145
275.815
276.516
277.255
278.035
278.861
279.737
280.668
281.656
282.703
283.804
284.937
286.047
273.289
273.875
274.481
275.11
275.765
276.45
277.167
277.92
278.711
279.541
280.412
281.322
282.264
283.225
284.175
285.055
273.285
273.863
274.461
275.079
275.722
276.392
277.09
277.818
278.576
279.365
280.183
281.023
281.875
282.722
283.532
284.258
273.282
273.854
274.444
275.055
275.688
276.345
277.026
277.734
278.465
279.219
279.991
280.774
281.554
282.313
283.023
283.646
273.28
273.847
274.433
275.038
275.663
276.311
276.98
277.671
278.382
279.109
279.846
280.585
281.312
282.008
282.649
283.204
273.278
273.844
274.427
275.029
275.65
276.292
276.953
277.633
278.329
279.038
279.752
280.462
281.154
281.809
282.407
282.921
273.278
273.844
274.426
275.027
275.647
276.285
276.943
277.617
278.306
279.006
279.708
280.403
281.078
281.714
282.291
282.785
273.262
273.795
274.343
274.905
275.481
276.071
276.674
277.286
277.904
278.525
279.14
279.742
280.319
280.858
281.344
281.76
273.259
273.786
274.327
274.882
275.45
276.031
276.622
277.222
277.827
278.432
279.03
279.613
280.17
280.69
281.157
281.557
273.257
273.777
274.312
274.86
275.421
275.993
276.575
277.163
277.755
278.345
278.927
279.492
280.031
280.531
280.98
281.365
273.254
273.77
274.299
274.841
275.396
275.96
276.533
277.112
277.692
278.269
278.835
279.384
279.906
280.389
280.822
281.192
273.252
273.764
274.289
274.827
275.375
275.934
276.5
277.07
277.64
278.205
278.759
279.295
279.802
280.27
280.689
281.047
273.251
273.76
274.282
274.816
275.361
275.915
276.475
277.039
277.601
278.158
278.702
279.226
279.721
280.178
280.586
280.934
273.25
273.758
274.278
274.811
275.354
275.904
276.461
277.02
277.577
278.127
278.664
279.181
279.668
280.117
280.517
280.858
273.25
273.758
274.278
274.81
275.351
275.9
276.455
277.011
277.566
278.113
278.647
279.16
279.643
280.087
280.483
280.82
273.262
273.795
274.342
274.905
275.483
276.075
276.679
277.295
277.919
278.545
279.168
279.779
280.368
280.92
281.419
281.848
273.259
273.785
274.326
274.881
275.451
276.033
276.627
277.23
277.84
278.45
279.055
279.646
280.213
280.744
281.222
281.633
273.257
273.777
274.311
274.86
275.421
275.995
276.579
277.171
277.766
278.361
278.949
279.521
280.068
280.578
281.036
281.43
273.254
273.769
274.298
274.841
275.396
275.962
276.537
277.118
277.702
278.283
278.855
279.41
279.939
280.429
280.87
281.247
273.252
273.763
274.288
274.826
275.376
275.935
276.503
277.076
277.649
278.218
278.777
279.318
279.83
280.305
280.73
281.094
273.251
273.759
274.281
274.816
275.362
275.917
276.479
277.045
277.61
278.17
278.718
279.247
279.748
280.21
280.622
280.975
273.25
273.758
274.278
274.811
275.355
275.907
276.465
277.026
277.586
278.14
278.681
279.202
279.693
280.146
280.551
280.896
273.25
273.758
274.278
274.811
275.353
275.904
276.46
277.019
277.576
278.127
278.664
279.181
279.668
280.116
280.516
280.857
273.263
273.797
274.346
274.911
275.491
276.087
276.698
277.321
277.954
278.593
279.231
279.861
280.473
281.05
281.578
282.033
273.26
273.787
274.329
274.887
275.458
276.045
276.644
277.254
277.872
278.493
279.111
279.719
280.306
280.858
281.36
281.792
273.257
273.779
274.314
274.864
275.428
276.005
276.594
277.192
277.795
278.4
278.999
279.586
280.149
280.677
281.154
281.564
273.255
273.771
274.301
274.845
275.402
275.971
276.551
277.137
277.728
278.318
278.9
279.467
280.009
280.515
280.97
281.361
273.253
273.765
274.291
274.83
275.382
275.945
276.516
277.094
277.673
278.25
278.818
279.368
279.893
280.379
280.816
281.191
273.252
273.761
274.284
274.82
275.368
275.926
276.492
277.062
277.633
278.2
278.756
279.294
279.804
280.276
280.699
281.061
273.251
273.759
274.281
274.816
275.361
275.916
276.478
277.044
277.609
278.169
278.717
279.246
279.747
280.208
280.621
280.974
273.251
273.76
274.282
274.816
275.361
275.914
276.474
277.038
277.6
278.156
278.7
279.225
279.72
280.176
280.584
280.932
273.265
273.802
274.354
274.923
275.509
276.111
276.73
277.364
278.011
278.668
279.33
279.988
280.634
281.252
281.823
282.321
273.262
273.792
274.337
274.898
275.475
276.067
276.674
277.294
277.924
278.562
279.2
279.832
280.448
281.034
281.571
282.038
273.259
273.783
274.322
274.875
275.443
276.026
276.622
277.228
277.843
278.462
279.079
279.686
280.273
280.828
281.334
281.771
273.256
273.775
274.308
274.855
275.416
275.991
276.576
277.171
277.772
278.374
278.971
279.556
280.118
280.645
281.123
281.535
273.254
273.769
274.298
274.84
275.395
275.963
276.54
277.125
277.714
278.302
278.883
279.448
279.989
280.493
280.948
281.339
273.253
273.765
274.291
274.83
275.381
275.944
276.515
277.092
277.672
278.249
278.816
279.367
279.891
280.378
280.815
281.19
273.252
273.763
274.288
274.825
275.375
275.934
276.501
277.074
277.647
278.216
278.775
279.315
279.828
280.302
280.727
281.091
273.252
273.763
274.288
274.826
275.374
275.932
276.498
277.067
277.637
278.202
278.756
279.291
279.798
280.267
280.685
281.044
273.267
273.809
274.367
274.941
275.534
276.145
276.776
277.424
278.09
278.77
279.461
280.157
280.849
281.523
282.157
282.721
273.264
273.799
274.349
274.915
275.498
276.099
276.716
277.349
277.996
278.654
279.319
279.983
280.637
281.268
281.856
282.373
273.261
273.789
274.333
274.891
275.466
276.056
276.661
277.28
277.909
278.546
279.185
279.819
280.439
281.03
281.574
282.049
273.258
273.781
274.319
274.871
275.438
276.019
276.613
277.219
277.833
278.451
279.067
279.674
280.262
280.818
281.326
281.765
273.256
273.775
274.308
274.855
275.416
275.99
276.575
277.17
277.77
278.372
278.969
279.554
280.116
280.643
281.121
281.533
273.255
273.771
274.3
274.844
275.401
275.97
276.548
277.135
277.725
278.314
278.896
279.463
280.005
280.511
280.966
281.358
273.254
273.769
274.297
274.839
275.394
275.959
276.534
277.115
277.698
278.279
278.85
279.405
279.934