/*--------------------------------*- C++ -*----------------------------------*\
| =========                 |                                                 |
| \\      /  F ield         | OpenFOAM: The Open Source CFD Toolbox           |
|  \\    /   O peration     | Version:  v1912                                 |
|   \\  /    A nd           | Website:  www.openfoam.com                      |
|    \\/     M anipulation  |                                                 |
\*---------------------------------------------------------------------------*/
FoamFile
{
    version     2.0;
    format      ascii;
    class       volSymmTensorField;
    location    "0.91/solid";
    object      epsilon;
}
// * * * * * * * * * * * * * * * * * * * * * * * * * * * * * * * * * * * * * //

dimensions      [0 0 0 0 0 0 0];


internalField   nonuniform List<symmTensor> 
256
(
(-2.90012e-06 2.36181e-07 -8.25382e-08 1.53744e-06 2.76093e-07 -2.94199e-06)
(-7.08767e-07 -2.86169e-08 -3.56591e-08 9.62315e-07 2.73712e-07 -2.59309e-06)
(-6.85143e-07 1.20143e-08 3.29904e-08 9.41922e-07 2.727e-07 -2.54744e-06)
(-2.66849e-06 -2.32779e-07 8.05428e-08 1.46476e-06 2.72939e-07 -2.81189e-06)
(-3.03645e-06 7.49045e-09 -1.28438e-07 -5.399e-07 4.92703e-08 -3.0302e-06)
(-1.23303e-06 -3.65035e-08 -6.00163e-08 -2.77539e-07 6.04464e-08 -2.63906e-06)
(-1.20086e-06 3.0441e-08 5.67968e-08 -2.79773e-07 6.08484e-08 -2.59436e-06)
(-2.79416e-06 -8.99161e-09 1.25596e-07 -5.37552e-07 4.9773e-08 -2.90193e-06)
(-3.11696e-06 -3.1989e-08 -1.39688e-07 -6.99564e-07 9.05649e-09 -3.10694e-06)
(-1.30944e-06 -3.70341e-08 -6.66493e-08 -5.24252e-07 1.04873e-08 -2.6605e-06)
(-1.27721e-06 3.44154e-08 6.38041e-08 -5.23433e-07 1.07601e-08 -2.61462e-06)
(-2.87034e-06 3.07291e-08 1.36811e-07 -6.94227e-07 9.40643e-09 -2.97421e-06)
(-3.18127e-06 -2.30131e-08 -1.45872e-07 -6.72002e-07 1.64144e-08 -3.19429e-06)
(-1.27262e-06 -2.92746e-08 -6.99657e-08 -6.44372e-07 1.22764e-08 -2.7103e-06)
(-1.24031e-06 2.73176e-08 6.73887e-08 -6.43084e-07 1.22827e-08 -2.66317e-06)
(-2.92988e-06 2.22709e-08 1.43055e-07 -6.67763e-07 1.61625e-08 -3.05782e-06)
(-3.27792e-06 -2.11461e-09 -1.52271e-07 -7.12402e-07 4.10824e-08 -3.30846e-06)
(-1.27375e-06 -1.482e-08 -7.35591e-08 -7.56947e-07 3.52574e-08 -2.79886e-06)
(-1.24095e-06 1.28588e-08 7.105e-08 -7.55693e-07 3.5072e-08 -2.7507e-06)
(-3.02169e-06 1.47226e-09 1.49488e-07 -7.0837e-07 4.03331e-08 -3.16913e-06)
(-3.44914e-06 3.87672e-08 -1.57392e-07 -9.55159e-07 8.6997e-08 -3.47092e-06)
(-1.39618e-06 1.17442e-08 -7.6714e-08 -9.61021e-07 8.34416e-08 -2.94654e-06)
(-1.36294e-06 -1.45483e-08 7.41148e-08 -9.59099e-07 8.30777e-08 -2.89741e-06)
(-3.18859e-06 -3.97255e-08 1.54616e-07 -9.49127e-07 8.57686e-08 -3.32908e-06)
(-3.74589e-06 1.07048e-07 -1.54202e-07 -1.82917e-06 1.52968e-07 -3.73471e-06)
(-1.70659e-06 5.13872e-08 -7.54369e-08 -1.65283e-06 1.60189e-07 -3.2312e-06)
(-1.67265e-06 -5.62e-08 7.26037e-08 -1.64417e-06 1.59577e-07 -3.18104e-06)
(-3.48088e-06 -1.0837e-07 1.51411e-07 -1.80504e-06 1.51164e-07 -3.59055e-06)
(-4.25716e-06 1.36968e-07 -1.36707e-07 -4.2375e-06 1.76168e-07 -4.23499e-06)
(-2.11814e-06 6.7295e-08 -6.72244e-08 -3.86941e-06 1.93677e-07 -3.86595e-06)
(-2.08122e-06 -6.4372e-08 6.4141e-08 -3.81823e-06 1.93038e-07 -3.81521e-06)
(-3.98289e-06 -1.34239e-07 1.33953e-07 -4.09301e-06 1.74488e-07 -4.09188e-06)
(-2.33777e-06 1.42846e-07 -6.59735e-08 6.26204e-07 6.01429e-08 -6.11301e-07)
(-4.75015e-07 -5.47577e-08 -2.27576e-08 1.49895e-07 1.61386e-07 -5.11847e-07)
(-4.52765e-07 4.92396e-08 2.47467e-08 1.35152e-07 1.63371e-07 -5.07024e-07)
(-2.1119e-06 -1.35372e-07 6.64107e-08 5.67586e-07 6.50754e-08 -5.98292e-07)
(-2.44466e-06 -1.02356e-08 -1.0377e-07 -3.99555e-07 6.75313e-08 -1.00082e-06)
(-8.40618e-07 -4.07116e-08 -4.56518e-08 -1.87094e-07 1.21557e-07 -8.43679e-07)
(-8.11271e-07 4.05371e-08 4.8174e-08 -1.92125e-07 1.22447e-07 -8.36922e-07)
(-2.21336e-06 1.08464e-08 1.04067e-07 -4.04549e-07 6.93197e-08 -9.81904e-07)
(-2.48778e-06 -3.38834e-08 -1.10202e-07 -5.39104e-07 5.63161e-08 -1.08301e-06)
(-8.80571e-07 -3.52592e-08 -5.03857e-08 -3.95924e-07 7.2974e-08 -9.06115e-07)
(-8.51821e-07 3.52946e-08 5.34498e-08 -3.9683e-07 7.33522e-08 -8.99329e-07)
(-2.2538e-06 3.35675e-08 1.10551e-07 -5.3811e-07 5.67855e-08 -1.06357e-06)
(-2.52698e-06 -2.41355e-08 -1.12453e-07 -5.81272e-07 5.89101e-08 -1.11012e-06)
(-8.34849e-07 -2.75571e-08 -5.11752e-08 -5.65203e-07 6.00077e-08 -9.19934e-07)
(-8.0627e-07 2.70688e-08 5.48301e-08 -5.64591e-07 5.99892e-08 -9.13184e-07)
(-2.28861e-06 2.39709e-08 1.12975e-07 -5.78774e-07 5.83521e-08 -1.09062e-06)
(-2.60833e-06 -3.87807e-09 -1.15872e-07 -6.36039e-07 9.19779e-08 -1.15877e-06)
(-8.28928e-07 -1.43686e-08 -5.32107e-08 -6.86511e-07 8.76976e-08 -9.56538e-07)
(-7.9985e-07 1.35333e-08 5.71759e-08 -6.85565e-07 8.73086e-08 -9.49684e-07)
(-2.36456e-06 3.76727e-09 1.16528e-07 -6.32871e-07 9.04038e-08 -1.13897e-06)
(-2.77827e-06 3.91252e-08 -1.18533e-07 -8.007e-07 1.46605e-07 -1.26933e-06)
(-9.46926e-07 1.2048e-08 -5.54406e-08 -8.07008e-07 1.41091e-07 -1.05748e-06)
(-9.17201e-07 -1.38656e-08 5.93953e-08 -8.05512e-07 1.40378e-07 -1.0504e-06)
(-2.52878e-06 -3.95302e-08 1.19262e-07 -7.9579e-07 1.44115e-07 -1.24895e-06)
(-3.10876e-06 1.15948e-07 -1.15779e-07 -1.48717e-06 1.88433e-07 -1.49473e-06)
(-1.2668e-06 5.45884e-08 -5.46454e-08 -1.28296e-06 1.86909e-07 -1.28689e-06)
(-1.236e-06 -5.87961e-08 5.84541e-08 -1.27522e-06 1.85997e-07 -1.27933e-06)
(-2.85292e-06 -1.16815e-07 1.16592e-07 -1.46515e-06 1.85443e-07 -1.4732e-06)
(-3.74848e-06 1.54368e-07 -1.06742e-07 -3.73737e-06 1.53818e-07 -1.83013e-06)
(-1.70682e-06 7.54615e-08 -5.14245e-08 -3.23531e-06 1.60925e-07 -1.65061e-06)
(-1.67263e-06 -7.26986e-08 5.56932e-08 -3.18439e-06 1.6033e-07 -1.64209e-06)
(-3.48163e-06 -1.51548e-07 1.07953e-07 -3.59091e-06 1.5207e-07 -1.80638e-06)
(-1.98478e-06 7.69844e-08 -2.8176e-08 2.52835e-07 1.20659e-07 -9.01633e-08)
(-3.03608e-07 -8.40241e-08 -4.60776e-09 -1.40835e-07 2.21032e-07 -9.32773e-08)
(-2.82119e-07 8.0787e-08 5.2556e-09 -1.53907e-07 2.21649e-07 -9.3312e-08)
(-1.76635e-06 -6.88925e-08 2.81566e-08 1.98365e-07 1.22513e-07 -9.00614e-08)
(-2.09459e-06 -2.11113e-08 -4.34788e-08 -4.67956e-07 1.43496e-07 -3.04824e-07)
(-5.398e-07 -4.64977e-08 -1.33515e-08 -2.9296e-07 1.95141e-07 -3.12231e-07)
(-5.11513e-07 4.8593e-08 1.3957e-08 -2.98344e-07 1.95398e-07 -3.11555e-07)
(-1.87068e-06 2.2593e-08 4.33672e-08 -4.74233e-07 1.44006e-07 -3.02568e-07)
(-2.13248e-06 -3.28941e-08 -4.37566e-08 -5.05606e-07 1.33695e-07 -4.21994e-07)
(-5.51466e-07 -3.38781e-08 -1.42725e-08 -3.9375e-07 1.49912e-07 -4.3103e-07)
(-5.23935e-07 3.55411e-08 1.49324e-08 -3.95399e-07 1.49926e-07 -4.30188e-07)
(-1.90608e-06 3.32048e-08 4.36533e-08 -5.06585e-07 1.33376e-07 -4.1912e-07)
(-2.16763e-06 -2.35807e-08 -4.22204e-08 -5.04506e-07 1.26969e-07 -4.81724e-07)
(-5.02921e-07 -2.65522e-08 -1.30193e-08 -5.01632e-07 1.28385e-07 -4.90044e-07)
(-4.75657e-07 2.70514e-08 1.39465e-08 -5.01625e-07 1.28137e-07 -4.89254e-07)
(-1.9369e-06 2.38097e-08 4.22146e-08 -5.03588e-07 1.25886e-07 -4.78871e-07)
(-2.2485e-06 -4.23194e-09 -4.17991e-08 -5.19511e-07 1.41802e-07 -5.45854e-07)
(-4.95992e-07 -1.4737e-08 -1.27757e-08 -5.747e-07 1.38359e-07 -5.52021e-07)
(-4.68192e-07 1.44343e-08 1.39106e-08 -5.74212e-07 1.37825e-07 -5.51207e-07)
(-2.01187e-06 4.38212e-09 4.18938e-08 -5.17578e-07 1.39904e-07 -5.42854e-07)
(-2.42667e-06 3.99312e-08 -4.15408e-08 -6.26006e-07 1.62743e-07 -6.54704e-07)
(-6.15213e-07 1.17528e-08 -1.32658e-08 -6.33133e-07 1.57643e-07 -6.58399e-07)
(-5.86567e-07 -1.33968e-08 1.44474e-08 -6.32084e-07 1.56884e-07 -6.57402e-07)
(-2.18306e-06 -4.01616e-08 4.17154e-08 -6.22272e-07 1.60177e-07 -6.51155e-07)
(-2.77983e-06 1.18779e-07 -4.07127e-08 -1.25509e-06 1.52418e-07 -8.16174e-07)
(-9.42979e-07 5.53793e-08 -1.36935e-08 -1.04718e-06 1.46794e-07 -8.19492e-07)
(-9.12912e-07 -5.97533e-08 1.49515e-08 -1.03987e-06 1.46024e-07 -8.18138e-07)
(-2.52791e-06 -1.19566e-07 4.10307e-08 -1.23405e-06 1.49811e-07 -8.11635e-07)
(-3.45459e-06 1.57624e-07 -4.01242e-08 -3.47558e-06 9.03654e-08 -9.53517e-07)
(-1.39306e-06 7.67185e-08 -1.35386e-08 -2.95304e-06 8.67952e-08 -9.57084e-07)
(-1.35921e-06 -7.41565e-08 1.55456e-08 -2.9027e-06 8.64335e-08 -9.55365e-07)
(-3.18973e-06 -1.54787e-07 4.09134e-08 -3.33009e-06 8.91724e-08 -9.47989e-07)
(-1.78788e-06 4.9507e-08 -7.52923e-09 1.14388e-07 1.41085e-07 -1.56935e-08)
(-2.26135e-07 -9.40851e-08 4.09891e-09 -2.2946e-07 2.03273e-07 -4.38676e-08)
(-2.0524e-07 9.09891e-08 -3.93928e-09 -2.42251e-07 2.03427e-07 -4.40748e-08)
(-1.57505e-06 -4.1618e-08 7.38354e-09 6.08873e-08 1.41935e-07 -1.61762e-08)
(-1.89275e-06 -2.37011e-08 -1.01127e-08 -5.27477e-07 1.70589e-07 -1.40162e-07)
(-3.99266e-07 -4.74877e-08 4.52318e-09 -3.74818e-07 2.01946e-07 -1.93736e-07)
(-3.71688e-07 4.9987e-08 -4.62109e-09 -3.80205e-07 2.01915e-07 -1.93734e-07)
(-1.67445e-06 2.53447e-08 9.81514e-09 -5.34172e-07 1.70586e-07 -1.40013e-07)
(-1.93341e-06 -2.99482e-08 -7.82443e-09 -5.15761e-07 1.69782e-07 -2.64943e-07)
(-4.00042e-07 -3.16938e-08 5.86782e-09 -4.23942e-07 1.78672e-07 -3.27109e-07)
(-3.73176e-07 3.39405e-08 -6.13256e-09 -4.25828e-07 1.78496e-07 -3.2691e-07)
(-1.71254e-06 3.05149e-08 7.47936e-09 -5.1755e-07 1.69157e-07 -2.64183e-07)
(-1.97263e-06 -2.11898e-08 -5.18192e-09 -4.61781e-07 1.60408e-07 -3.62933e-07)
(-3.56275e-07 -2.47773e-08 7.69193e-09 -4.6776e-07 1.59626e-07 -4.27578e-07)
(-3.29662e-07 2.57609e-08 -7.92193e-09 -4.68095e-07 1.59283e-07 -4.27296e-07)
(-1.74734e-06 2.163e-08 4.86326e-09 -4.61828e-07 1.5922e-07 -3.6185e-07)
(-2.0585e-06 -2.90763e-09 -3.41871e-09 -4.33889e-07 1.55115e-07 -4.54291e-07)
(-3.55206e-07 -1.41693e-08 8.75967e-09 -4.91853e-07 1.51575e-07 -5.19306e-07)
(-3.28012e-07 1.4112e-08 -8.89291e-09 -4.91702e-07 1.51053e-07 -5.18933e-07)
(-1.82691e-06 3.19047e-09 3.15615e-09 -4.32881e-07 1.53376e-07 -4.52864e-07)
(-2.24435e-06 4.02234e-08 -2.55434e-09 -5.16505e-07 1.43003e-07 -5.5705e-07)
(-4.79006e-07 1.11529e-08 8.81545e-09 -5.26247e-07 1.39105e-07 -6.21189e-07)
(-4.50834e-07 -1.28125e-08 -8.86591e-09 -5.25476e-07 1.38468e-07 -6.20644e-07)
(-2.00492e-06 -4.0392e-08 2.36433e-09 -5.13522e-07 1.40889e-07 -5.55067e-07)
(-2.60756e-06 1.16402e-07 -3.24717e-09 -1.1414e-06 1.0359e-07 -6.57249e-07)
(-8.08088e-07 5.30189e-08 7.68639e-09 -9.42535e-07 9.89484e-08 -7.19288e-07)
(-7.78252e-07 -5.75852e-08 -7.54763e-09 -9.35389e-07 9.83852e-08 -7.18526e-07)
(-2.35835e-06 -1.1717e-07 3.20623e-09 -1.12072e-06 1.0164e-07 -6.54576e-07)
(-3.28493e-06 1.52956e-07 -4.97492e-09 -3.32082e-06 4.81298e-08 -6.95671e-07)
(-1.2546e-06 7.36614e-08 7.36526e-09 -2.81158e-06 4.28224e-08 -7.54384e-07)
(-1.22071e-06 -7.12061e-08 -6.5207e-09 -2.76157e-06 4.25949e-08 -7.5354e-07)
(-3.02121e-06 -1.50097e-07 5.33275e-09 -3.176e-06 4.73212e-08 -6.92663e-07)
(-1.68012e-06 4.13606e-08 -9.51456e-10 6.30433e-08 1.28427e-07 -2.01442e-08)
(-1.9905e-07 -9.34061e-08 5.02328e-09 -2.56173e-07 1.59489e-07 -4.14475e-08)
(-1.78567e-07 9.01732e-08 -4.98278e-09 -2.68944e-07 1.59561e-07 -4.15324e-08)
(-1.47106e-06 -3.37182e-08 8.34032e-10 9.90822e-09 1.2901e-07 -2.04191e-08)
(-1.78083e-06 -2.25248e-08 4.29097e-10 -5.49052e-07 1.54198e-07 -1.18211e-07)
(-3.51276e-07 -4.56389e-08 8.0206e-09 -4.08452e-07 1.6889e-07 -1.5933e-07)
(-3.2423e-07 4.80321e-08 -8.21907e-09 -4.13907e-07 1.68828e-07 -1.59355e-07)
(-1.56641e-06 2.41147e-08 -6.85127e-10 -5.56217e-07 1.54181e-07 -1.18352e-07)
(-1.82534e-06 -2.7039e-08 2.84579e-09 -5.22739e-07 1.60619e-07 -2.36521e-07)
(-3.52166e-07 -2.95524e-08 9.77851e-09 -4.41553e-07 1.63454e-07 -2.84307e-07)
(-3.25789e-07 3.18728e-08 -1.01758e-08 -4.4357e-07 1.63266e-07 -2.842e-07)
(-1.60828e-06 2.7653e-08 -3.17004e-09 -5.25064e-07 1.60079e-07 -2.36274e-07)
(-1.87018e-06 -1.8821e-08 5.05117e-09 -4.41587e-07 1.53225e-07 -3.48663e-07)
(-3.15643e-07 -2.31577e-08 1.12486e-08 -4.51992e-07 1.51026e-07 -3.97932e-07)
(-2.89484e-07 2.42917e-08 -1.17088e-08 -4.52516e-07 1.50713e-07 -3.97702e-07)
(-1.64858e-06 1.93382e-08 -5.38856e-09 -4.42229e-07 1.52238e-07 -3.48018e-07)
(-1.96173e-06 -1.52801e-09 6.60518e-09 -3.9036e-07 1.3806e-07 -4.50633e-07)
(-3.21703e-07 -1.34905e-08 1.2157e-08 -4.49182e-07 1.34962e-07 -4.99646e-07)
(-2.94923e-07 1.3525e-08 -1.25924e-08 -4.49228e-07 1.34539e-07 -4.99287e-07)
(-1.73354e-06 1.87124e-09 -6.9191e-09 -3.89929e-07 1.36698e-07 -4.49557e-07)
(-2.15273e-06 3.994e-08 7.17996e-09 -4.66982e-07 1.11057e-07 -5.41291e-07)
(-4.49336e-07 1.04247e-08 1.22031e-08 -4.78591e-07 1.087e-07 -5.8921e-07)
(-4.21496e-07 -1.21099e-08 -1.25624e-08 -4.77968e-07 1.08226e-07 -5.88697e-07)
(-1.91614e-06 -4.00775e-08 -7.43898e-09 -4.6442e-07 1.09494e-07 -5.39703e-07)
(-2.51865e-06 1.13053e-07 6.12255e-09 -1.0922e-06 6.72728e-08 -6.05126e-07)
(-7.76002e-07 5.02861e-08 1.11581e-08 -9.02262e-07 6.49361e-08 -6.51349e-07)
(-7.46353e-07 -5.49532e-08 -1.13214e-08 -8.95176e-07 6.45455e-08 -6.50698e-07)
(-2.27137e-06 -1.13804e-07 -6.25972e-09 -1.07167e-06 6.59005e-08 -6.03046e-07)
(-3.18916e-06 1.47711e-07 4.43489e-09 -3.22324e-06 2.69245e-08 -6.14248e-07)
(-1.21572e-06 7.04442e-08 1.09502e-08 -2.73088e-06 2.33895e-08 -6.596e-07)
(-1.18185e-06 -6.80325e-08 -1.0556e-08 -2.68101e-06 2.32408e-08 -6.58948e-07)
(-2.92633e-06 -1.44828e-07 -4.27565e-09 -3.07867e-06 2.63746e-08 -6.12038e-07)
(-1.62051e-06 3.97432e-08 2.06845e-10 4.4616e-08 9.97474e-08 -3.07806e-08)
(-1.90678e-07 -9.03117e-08 3.36368e-09 -2.63556e-07 1.13779e-07 -4.21357e-08)
(-1.70448e-07 8.69486e-08 -3.35192e-09 -2.76327e-07 1.13831e-07 -4.21724e-08)
(-1.41377e-06 -3.22741e-08 -2.79546e-10 -8.27118e-09 1.00155e-07 -3.09571e-08)
(-1.71967e-06 -2.0748e-08 1.74796e-09 -5.5017e-07 1.17401e-07 -1.23857e-07)
(-3.38782e-07 -4.35307e-08 5.78842e-09 -4.16135e-07 1.23155e-07 -1.45667e-07)
(-3.12075e-07 4.57589e-08 -5.94504e-09 -4.21675e-07 1.2312e-07 -1.45689e-07)
(-1.50766e-06 2.22607e-08 -1.9151e-09 -5.57733e-07 1.17435e-07 -1.24062e-07)
(-1.7675e-06 -2.49606e-08 3.43306e-09 -5.21213e-07 1.24769e-07 -2.34067e-07)
(-3.43409e-07 -2.80261e-08 7.06878e-09 -4.4522e-07 1.24768e-07 -2.5902e-07)
(-3.17349e-07 3.02639e-08 -7.38453e-09 -4.47345e-07 1.24634e-07 -2.58966e-07)
(-1.5528e-06 2.55508e-08 -3.65869e-09 -5.23963e-07 1.2442e-07 -2.34072e-07)
(-1.81694e-06 -1.72078e-08 4.84382e-09 -4.32277e-07 1.19895e-07 -3.44561e-07)
(-3.13131e-07 -2.21214e-08 7.97126e-09 -4.44425e-07 1.17656e-07 -3.69565e-07)
(-2.87262e-07 2.32527e-08 -8.36759e-09 -4.45068e-07 1.17429e-07 -3.69403e-07)
(-1.59757e-06 1.77346e-08 -5.09414e-09 -4.33322e-07 1.19214e-07 -3.4424e-07)
(-1.91279e-06 -6.49043e-10 5.81638e-09 -3.74013e-07 1.04383e-07 -4.44141e-07)
(-3.24592e-07 -1.30838e-08 8.50009e-09 -4.3258e-07 1.02203e-07 -4.68224e-07)
(-2.98072e-07 1.31324e-08 -8.90558e-09 -4.32736e-07 1.01905e-07 -4.67934e-07)
(-1.68663e-06 1.01283e-09 -6.06143e-09 -3.73933e-07 1.03447e-07 -4.43412e-07)
(-2.10668e-06 3.95188e-08 6.08751e-09 -4.50613e-07 7.80084e-08 -5.2366e-07)
(-4.54402e-07 9.83964e-09 8.48419e-09 -4.62824e-07 7.68794e-08 -5.4669e-07)
(-4.2677e-07 -1.154e-08 -8.83834e-09 -4.62276e-07 7.65595e-08 -5.46264e-07)
(-1.87177e-06 -3.96384e-08 -6.29748e-09 -4.48283e-07 7.69579e-08 -5.22481e-07)
(-2.47236e-06 1.10556e-07 5.26871e-09 -1.07213e-06 4.28975e-08 -5.71399e-07)
(-7.78067e-07 4.84112e-08 7.81391e-09 -8.8764e-07 4.21978e-08 -5.93664e-07)
(-7.48543e-07 -5.31183e-08 -8.01682e-09 -8.80576e-07 4.19428e-08 -5.93137e-07)
(-2.22622e-06 -1.11291e-07 -5.39365e-09 -1.05165e-06 4.19954e-08 -5.69832e-07)
(-3.13543e-06 1.44123e-07 4.07107e-09 -3.16265e-06 1.59042e-08 -5.76975e-07)
(-1.21198e-06 6.83415e-08 7.70205e-09 -2.6819e-06 1.4188e-08 -5.99861e-07)
(-1.17814e-06 -6.59414e-08 -7.51737e-09 -2.63207e-06 1.40938e-08 -5.99348e-07)
(-2.87311e-06 -1.41219e-07 -3.99684e-09 -3.01815e-06 1.55484e-08 -5.75335e-07)
(-1.58832e-06 3.96023e-08 1.40024e-10 3.89321e-08 6.26419e-08 -3.76211e-08)
(-1.87901e-07 -8.7985e-08 1.69403e-09 -2.64444e-07 6.85367e-08 -4.31911e-08)
(-1.67813e-07 8.45306e-08 -1.68955e-09 -2.7721e-07 6.85704e-08 -4.32176e-08)
(-1.38292e-06 -3.22378e-08 -1.77964e-10 -1.37849e-08 6.28826e-08 -3.77651e-08)
(-1.68707e-06 -1.95357e-08 9.76246e-10 -5.45403e-07 7.24357e-08 -1.30709e-07)
(-3.36066e-07 -4.21602e-08 2.96907e-09 -4.1494e-07 7.43976e-08 -1.40971e-07)
(-3.09549e-07 4.42677e-08 -3.06076e-09 -4.20542e-07 7.43841e-08 -1.41001e-07)
(-1.47644e-06 2.09938e-08 -1.06598e-09 -5.5322e-07 7.24785e-08 -1.30936e-07)
(-1.73713e-06 -2.37591e-08 1.86918e-09 -5.16785e-07 7.73549e-08 -2.35013e-07)
(-3.44014e-07 -2.7166e-08 3.64246e-09 -4.43233e-07 7.67301e-08 -2.46149e-07)
(-3.18131e-07 2.93138e-08 -3.83208e-09 -4.45438e-07 7.66562e-08 -2.46134e-07)
(-1.52376e-06 2.43182e-08 -1.99528e-09 -5.19827e-07 7.71736e-08 -2.35143e-07)
(-1.78951e-06 -1.63139e-08 2.60036e-09 -4.27928e-07 7.45429e-08 -3.3958e-07)
(-3.1782e-07 -2.15893e-08 4.08681e-09 -4.40613e-07 7.30457e-08 -3.49976e-07)
(-2.92109e-07 2.26783e-08 -4.33537e-09 -4.41332e-07 7.29147e-08 -3.49876e-07)
(-1.5714e-06 1.683e-08 -2.74597e-09 -4.29236e-07 7.4159e-08 -3.39468e-07)
(-1.88799e-06 -1.98464e-10 3.08962e-09 -3.69791e-07 6.39077e-08 -4.33073e-07)
(-3.32503e-07 -1.29043e-08 4.33037e-09 -4.2781e-07 6.26893e-08 -4.42371e-07)
(-3.06122e-07 1.29389e-08 -4.59463e-09 -4.28029e-07 6.25167e-08 -4.42158e-07)
(-1.66296e-06 5.65216e-10 -3.2366e-09 -3.69921e-07 6.33716e-08 -4.32612e-07)
(-2.08329e-06 3.92092e-08 3.19881e-09 -4.4755e-07 4.62049e-08 -5.05079e-07)
(-4.63324e-07 9.48808e-09 4.30466e-09 -4.59693e-07 4.57814e-08 -5.13599e-07)
(-4.35804e-07 -1.11986e-08 -4.54187e-09 -4.59184e-07 4.55981e-08 -5.13267e-07)
(-1.8493e-06 -3.93195e-08 -3.3273e-09 -4.45348e-07 4.56057e-08 -5.04223e-07)
(-2.44808e-06 1.09107e-07 2.73706e-09 -1.06448e-06 2.44476e-08 -5.46921e-07)
(-7.84783e-07 4.74053e-08 3.971e-09 -8.82631e-07 2.44272e-08 -5.55338e-07)
(-7.55324e-07 -5.21263e-08 -4.1172e-09 -8.75574e-07 2.42832e-08 -5.54919e-07)
(-2.20256e-06 -1.09829e-07 -2.81659e-09 -1.04402e-06 2.39371e-08 -5.45733e-07)
(-3.10584e-06 1.42132e-07 2.03906e-09 -3.12787e-06 8.74423e-09 -5.54681e-07)
(-1.21484e-06 6.72327e-08 3.90672e-09 -2.65334e-06 8.08666e-09 -5.64111e-07)
(-1.18101e-06 -6.48326e-08 -3.82834e-09 -2.60353e-06 8.03434e-09 -5.63708e-07)
(-2.84377e-06 -1.39213e-07 -2.00508e-09 -2.98338e-06 8.54475e-09 -5.53434e-07)
(-1.57406e-06 3.96184e-08 2.75746e-11 3.76747e-08 2.13081e-08 -4.07067e-08)
(-1.86892e-07 -8.69011e-08 4.97055e-10 -2.63855e-07 2.29401e-08 -4.40293e-08)
(-1.66868e-07 8.34003e-08 -4.95693e-10 -2.76617e-07 2.29518e-08 -4.40552e-08)
(-1.36926e-06 -3.2303e-08 -3.93203e-11 -1.49562e-08 2.13874e-08 -4.08416e-08)
(-1.67269e-06 -1.89946e-08 2.66647e-10 -5.41755e-07 2.44057e-08 -1.34245e-07)
(-3.35403e-07 -4.15549e-08 8.69099e-10 -4.129e-07 2.48642e-08 -1.39966e-07)
(-3.08971e-07 4.36017e-08 -8.98678e-10 -4.18531e-07 2.48611e-08 -1.40003e-07)
(-1.46268e-06 2.04261e-08 -2.94697e-10 -5.49691e-07 2.44235e-08 -1.34481e-07)
(-1.72381e-06 -2.32371e-08 5.35142e-10 -5.13718e-07 2.60583e-08 -2.35537e-07)
(-3.45044e-07 -2.68043e-08 1.0682e-09 -4.41153e-07 2.57721e-08 -2.41221e-07)
(-3.19239e-07 2.89015e-08 -1.13042e-09 -4.43399e-07 2.5749e-08 -2.41227e-07)
(-1.51105e-06 2.37784e-08 -5.75274e-10 -5.16904e-07 2.60032e-08 -2.35719e-07)
(-1.77759e-06 -1.59325e-08 7.56102e-10 -4.26154e-07 2.51233e-08 -3.3606e-07)
(-3.20777e-07 -2.13779e-08 1.19738e-09 -4.3896e-07 2.46128e-08 -3.40738e-07)
(-2.95135e-07 2.24369e-08 -1.28063e-09 -4.39718e-07 2.45704e-08 -3.40673e-07)
(-1.56005e-06 1.64394e-08 -8.03341e-10 -4.27593e-07 2.50007e-08 -3.36046e-07)
(-1.87727e-06 -1.54823e-11 9.01728e-10 -3.69291e-07 2.14174e-08 -4.25453e-07)
(-3.36905e-07 -1.28422e-08 1.26539e-09 -4.26945e-07 2.10339e-08 -4.2906e-07)
(-3.10583e-07 1.28638e-08 -1.35549e-09 -4.27194e-07 2.09777e-08 -4.28893e-07)
(-1.65274e-06 3.80852e-10 -9.50139e-10 -3.69522e-07 2.1244e-08 -4.25129e-07)
(-2.07313e-06 3.90605e-08 9.3086e-10 -4.47851e-07 1.53082e-08 -4.93802e-07)
(-4.68106e-07 9.33483e-09 1.25546e-09 -4.59827e-07 1.52103e-08 -4.96835e-07)
(-4.40632e-07 -1.10513e-08 -1.33738e-09 -4.59334e-07 1.51507e-08 -4.96557e-07)
(-1.83954e-06 -3.91672e-08 -9.73602e-10 -4.45708e-07 1.5114e-08 -4.93116e-07)
(-2.43732e-06 1.08469e-07 7.86117e-10 -1.062e-06 8.01347e-09 -5.33842e-07)
(-7.88464e-07 4.69908e-08 1.15826e-09 -8.81167e-07 8.06975e-09 -5.37066e-07)
(-7.59031e-07 -5.17163e-08 -1.2102e-09 -8.74112e-07 8.02319e-09 -5.36709e-07)
(-2.19206e-06 -1.09185e-07 -8.12975e-10 -1.04154e-06 7.84836e-09 -5.3285e-07)
(-3.09241e-06 1.41275e-07 5.57201e-10 -3.11213e-06 2.82502e-09 -5.43355e-07)
(-1.21663e-06 6.67758e-08 1.13571e-09 -2.64017e-06 2.66709e-09 -5.47616e-07)
(-1.1828e-06 -6.4374e-08 -1.11442e-09 -2.59036e-06 2.6503e-09 -5.47273e-07)
(-2.83043e-06 -1.38348e-07 -5.47265e-10 -2.96763e-06 2.76079e-09 -5.42309e-07)
)
;

boundaryField
{
    interface
    {
        type            calculated;
        value           nonuniform List<symmTensor> 
192
(
(-4.73655e-06 2.22919e-12 1.70548e-11 1.53744e-06 2.76093e-07 -2.94199e-06)
(-4.44595e-06 2.38835e-12 2.77262e-11 -5.399e-07 4.92703e-08 -3.0302e-06)
(-4.54157e-06 9.05931e-13 3.19092e-11 -6.99564e-07 9.05649e-09 -3.10694e-06)
(-4.68582e-06 -1.96554e-12 3.32946e-11 -6.72002e-07 1.64144e-08 -3.19429e-06)
(-4.85673e-06 -4.59193e-12 3.32542e-11 -7.12402e-07 4.10824e-08 -3.30846e-06)
(-5.07431e-06 -9.16867e-12 3.25985e-11 -9.55159e-07 8.6997e-08 -3.47092e-06)
(-5.36415e-06 -1.26921e-11 3.02755e-11 -1.82917e-06 1.52968e-07 -3.73471e-06)
(-5.91903e-06 -2.89052e-11 2.85004e-11 -4.2375e-06 1.76168e-07 -4.23499e-06)
(-3.9117e-06 1.60638e-12 8.35715e-12 6.26204e-07 6.01429e-08 -6.11301e-07)
(-3.72244e-06 1.92312e-12 1.45148e-11 -3.99555e-07 6.75313e-08 -1.00082e-06)
(-3.77656e-06 6.68883e-13 1.64693e-11 -5.39104e-07 5.63161e-08 -1.08301e-06)
(-3.88316e-06 -2.22314e-12 1.67803e-11 -5.81272e-07 5.89101e-08 -1.11012e-06)
(-4.03449e-06 -4.96388e-12 1.62907e-11 -6.36039e-07 9.19779e-08 -1.15877e-06)
(-4.25623e-06 -9.9771e-12 1.54841e-11 -8.007e-07 1.46605e-07 -1.26933e-06)
(-4.60164e-06 -1.38579e-11 1.39786e-11 -1.48717e-06 1.88433e-07 -1.49473e-06)
(-5.36873e-06 -3.0835e-11 1.28047e-11 -3.73737e-06 1.53818e-07 -1.83013e-06)
(-3.40376e-06 1.37785e-12 6.53556e-12 2.52835e-07 1.20659e-07 -9.01633e-08)
(-3.33102e-06 1.68952e-12 1.11901e-11 -4.67956e-07 1.43496e-07 -3.04824e-07)
(-3.39287e-06 4.93443e-13 1.263e-11 -5.05606e-07 1.33695e-07 -4.21994e-07)
(-3.49352e-06 -2.5051e-12 1.28203e-11 -5.04506e-07 1.26969e-07 -4.81724e-07)
(-3.64513e-06 -5.46239e-12 1.24028e-11 -5.19511e-07 1.41802e-07 -5.45854e-07)
(-3.88099e-06 -1.09906e-11 1.17467e-11 -6.26006e-07 1.62743e-07 -6.54704e-07)
(-4.26176e-06 -1.54063e-11 1.06748e-11 -1.25509e-06 1.52418e-07 -8.16174e-07)
(-5.0862e-06 -3.34697e-11 9.79644e-12 -3.47558e-06 9.03654e-08 -9.53517e-07)
(-3.10267e-06 1.03193e-12 3.94732e-12 1.14388e-07 1.41085e-07 -1.56935e-08)
(-3.07282e-06 1.19084e-12 7.14692e-12 -5.27477e-07 1.70589e-07 -1.40162e-07)
(-3.14467e-06 -2.11432e-14 8.08846e-12 -5.15761e-07 1.69782e-07 -2.64943e-07)
(-3.24808e-06 -3.02532e-12 8.12433e-12 -4.61781e-07 1.60408e-07 -3.62933e-07)
(-3.40393e-06 -6.0673e-12 7.74049e-12 -4.33889e-07 1.55115e-07 -4.54291e-07)
(-3.6495e-06 -1.18033e-11 7.21689e-12 -5.16505e-07 1.43003e-07 -5.5705e-07)
(-4.04728e-06 -1.64503e-11 6.54704e-12 -1.1414e-06 1.0359e-07 -6.57249e-07)
(-4.88184e-06 -3.4744e-11 6.03957e-12 -3.32082e-06 4.81298e-08 -6.95671e-07)
(-2.92603e-06 8.63222e-13 2.86678e-12 6.30433e-08 1.28427e-07 -2.01442e-08)
(-2.90756e-06 8.73876e-13 5.18956e-12 -5.49052e-07 1.54198e-07 -1.18211e-07)
(-2.98504e-06 -4.06261e-13 5.88103e-12 -5.22739e-07 1.60619e-07 -2.36521e-07)
(-3.09265e-06 -3.44798e-12 5.90434e-12 -4.41587e-07 1.53225e-07 -3.48663e-07)
(-3.25307e-06 -6.58582e-12 5.61985e-12 -3.9036e-07 1.3806e-07 -4.50633e-07)
(-3.5045e-06 -1.24998e-11 5.2303e-12 -4.66982e-07 1.11057e-07 -5.41291e-07)
(-3.90883e-06 -1.73569e-11 4.76696e-12 -1.0922e-06 6.72728e-08 -6.05126e-07)
(-4.73807e-06 -3.58939e-11 4.40694e-12 -3.22324e-06 2.69245e-08 -6.14248e-07)
(-2.82346e-06 7.30498e-13 1.73179e-12 4.4616e-08 9.97474e-08 -3.07806e-08)
(-2.8079e-06 6.15446e-13 3.24589e-12 -5.5017e-07 1.17401e-07 -1.23857e-07)
(-2.88832e-06 -7.28945e-13 3.70222e-12 -5.21213e-07 1.24769e-07 -2.34067e-07)
(-2.99934e-06 -3.79324e-12 3.70703e-12 -4.32277e-07 1.19895e-07 -3.44561e-07)
(-3.1633e-06 -6.98283e-12 3.5083e-12 -3.74013e-07 1.04383e-07 -4.44141e-07)
(-3.41798e-06 -1.29819e-11 3.24459e-12 -4.50613e-07 7.80084e-08 -5.2366e-07)
(-3.82404e-06 -1.79453e-11 2.96241e-12 -1.07213e-06 4.28975e-08 -5.71399e-07)
(-4.64542e-06 -3.65946e-11 2.75597e-12 -3.16265e-06 1.59042e-08 -5.76975e-07)
(-2.76674e-06 6.65042e-13 1.01059e-12 3.89321e-08 6.26419e-08 -3.76211e-08)
(-2.75206e-06 4.63033e-13 1.89232e-12 -5.45403e-07 7.24357e-08 -1.30709e-07)
(-2.83401e-06 -9.33728e-13 2.16036e-12 -5.16785e-07 7.73549e-08 -2.35013e-07)
(-2.94723e-06 -4.02137e-12 2.16389e-12 -4.27928e-07 7.45429e-08 -3.3958e-07)
(-3.11341e-06 -7.25123e-12 2.04919e-12 -3.69791e-07 6.39077e-08 -4.33073e-07)
(-3.36969e-06 -1.33092e-11 1.89337e-12 -4.4755e-07 4.62049e-08 -5.05079e-07)
(-3.77576e-06 -1.83473e-11 1.73467e-12 -1.06448e-06 2.44476e-08 -5.46921e-07)
(-4.59113e-06 -3.70835e-11 1.61095e-12 -3.12787e-06 8.74423e-09 -5.54681e-07)
(-2.74139e-06 6.25029e-13 2.96673e-13 3.76747e-08 2.13081e-08 -4.07067e-08)
(-2.72702e-06 3.7779e-13 5.77056e-13 -5.41755e-07 2.44057e-08 -1.34245e-07)
(-2.80965e-06 -1.04325e-12 6.63584e-13 -5.13718e-07 2.60583e-08 -2.35537e-07)
(-2.92391e-06 -4.13762e-12 6.63484e-13 -4.26154e-07 2.51233e-08 -3.3606e-07)
(-3.09113e-06 -7.38308e-12 6.25885e-13 -3.69291e-07 2.14174e-08 -4.25453e-07)
(-3.34804e-06 -1.34613e-11 5.74801e-13 -4.47851e-07 1.53082e-08 -4.93802e-07)
(-3.75384e-06 -1.85333e-11 5.28097e-13 -1.062e-06 8.01347e-09 -5.33842e-07)
(-4.56613e-06 -3.73041e-11 4.89612e-13 -3.11213e-06 2.82502e-09 -5.43355e-07)
(-2.90012e-06 2.36181e-07 -2.35587e-11 1.53744e-06 -5.7641e-12 -4.82431e-06)
(-3.03645e-06 7.49045e-09 -4.02966e-11 -5.399e-07 -7.23963e-12 -4.50482e-06)
(-3.11696e-06 -3.1989e-08 -4.77383e-11 -6.99564e-07 -6.47914e-12 -4.60145e-06)
(-3.18127e-06 -2.30131e-08 -5.08674e-11 -6.72002e-07 -4.99897e-12 -4.75622e-06)
(-3.27792e-06 -2.11461e-09 -5.21492e-11 -7.12402e-07 -4.32622e-12 -4.93405e-06)
(-3.44914e-06 3.87672e-08 -5.31769e-11 -9.55159e-07 -4.58056e-12 -5.14708e-06)
(-3.74589e-06 1.07048e-07 -5.44557e-11 -1.82917e-06 -5.52796e-12 -5.42189e-06)
(-4.25716e-06 1.36968e-07 -6.01911e-11 -4.2375e-06 -6.85098e-12 -5.96307e-06)
(-7.08767e-07 -2.86169e-08 -1.36977e-11 9.62315e-07 -3.44246e-12 -4.30254e-06)
(-1.23303e-06 -3.65035e-08 -2.63675e-11 -2.77539e-07 -5.66226e-12 -3.99697e-06)
(-1.30944e-06 -3.70341e-08 -3.15602e-11 -5.24252e-07 -5.39381e-12 -4.01724e-06)
(-1.27262e-06 -2.92746e-08 -3.35484e-11 -6.44372e-07 -3.70736e-12 -4.11942e-06)
(-1.27375e-06 -1.482e-08 -3.43858e-11 -7.56947e-07 -2.47328e-12 -4.2653e-06)
(-1.39618e-06 1.17442e-08 -3.54656e-11 -9.61021e-07 -1.76754e-12 -4.46382e-06)
(-1.70659e-06 5.13872e-08 -3.78075e-11 -1.65283e-06 -1.88281e-12 -4.77361e-06)
(-2.11814e-06 6.7295e-08 -4.5264e-11 -3.86941e-06 -2.33661e-12 -5.53222e-06)
(-6.85143e-07 1.20143e-08 -1.34112e-11 9.41922e-07 -2.53782e-12 -4.22066e-06)
(-1.20086e-06 3.0441e-08 -2.61184e-11 -2.79773e-07 -4.75408e-12 -3.91978e-06)
(-1.27721e-06 3.44154e-08 -3.14936e-11 -5.23433e-07 -4.67078e-12 -3.93762e-06)
(-1.24031e-06 2.73176e-08 -3.35901e-11 -6.43084e-07 -2.80555e-12 -4.0374e-06)
(-1.24095e-06 1.28588e-08 -3.44196e-11 -7.55693e-07 -1.17512e-12 -4.18143e-06)
(-1.36294e-06 -1.45483e-08 -3.53475e-11 -9.59099e-07 1.96552e-13 -4.37827e-06)
(-1.67265e-06 -5.62e-08 -3.73898e-11 -1.64417e-06 9.2234e-13 -4.68652e-06)
(-2.08122e-06 -6.4372e-08 -4.46209e-11 -3.81823e-06 1.06958e-12 -5.4453e-06)
(-2.66849e-06 -2.32779e-07 -1.43099e-11 1.46476e-06 -2.0799e-12 -4.5893e-06)
(-2.79416e-06 -8.99161e-09 -2.91573e-11 -5.37552e-07 -4.22121e-12 -4.28199e-06)
(-2.87034e-06 3.07291e-08 -3.59191e-11 -6.94227e-07 -4.16e-12 -4.37024e-06)
(-2.92988e-06 2.22709e-08 -3.86813e-11 -6.67763e-07 -2.12758e-12 -4.5179e-06)
(-3.02169e-06 1.47226e-09 -3.97603e-11 -7.0837e-07 -2.93115e-13 -4.69057e-06)
(-3.18859e-06 -3.97255e-08 -4.09707e-11 -9.49127e-07 1.40395e-12 -4.89921e-06)
(-3.48088e-06 -1.0837e-07 -4.28654e-11 -1.80504e-06 2.61733e-12 -5.17055e-06)
(-3.98289e-06 -1.34239e-07 -5.05641e-11 -4.09301e-06 3.74571e-12 -5.71678e-06)
(-4.32052e-06 4.46082e-12 3.50208e-12 1.46476e-06 2.72939e-07 -2.81189e-06)
(-4.02572e-06 6.36805e-12 7.17705e-12 -5.37552e-07 4.9773e-08 -2.90193e-06)
(-4.11279e-06 5.28041e-12 8.43202e-12 -6.94227e-07 9.40643e-09 -2.97421e-06)
(-4.24765e-06 2.1805e-12 9.13568e-12 -6.67763e-07 1.61625e-08 -3.05782e-06)
(-4.40988e-06 3.73789e-13 9.76068e-12 -7.0837e-07 4.03331e-08 -3.16913e-06)
(-4.61969e-06 -2.1805e-12 1.14395e-11 -9.49127e-07 8.57686e-08 -3.32908e-06)
(-4.902e-06 -2.01879e-12 1.29291e-11 -1.80504e-06 1.51164e-07 -3.59055e-06)
(-5.44433e-06 -1.60178e-11 1.68958e-11 -4.09301e-06 1.74488e-07 -4.09188e-06)
(-3.50446e-06 1.76936e-12 -2.11541e-12 5.67586e-07 6.50754e-08 -5.98292e-07)
(-3.31853e-06 2.95307e-12 -2.37009e-12 -4.04549e-07 6.93197e-08 -9.81904e-07)
(-3.3661e-06 2.54881e-12 -3.00419e-12 -5.3811e-07 5.67855e-08 -1.06357e-06)
(-3.46357e-06 7.95082e-13 -3.1383e-12 -5.78774e-07 5.83521e-08 -1.09062e-06)
(-3.60509e-06 3.14525e-13 -2.76494e-12 -6.32871e-07 9.04038e-08 -1.13897e-06)
(-3.81671e-06 -1.11243e-12 -1.3472e-12 -7.9579e-07 1.44115e-07 -1.24895e-06)
(-4.15155e-06 4.62173e-13 5.12487e-13 -1.46515e-06 1.85443e-07 -1.4732e-06)
(-4.9034e-06 -1.22637e-11 3.3299e-12 -3.59091e-06 1.5207e-07 -1.80638e-06)
(-3.00988e-06 9.79833e-13 -1.37902e-12 1.98365e-07 1.22513e-07 -9.00614e-08)
(-2.93978e-06 1.63954e-12 -1.09467e-12 -4.74233e-07 1.44006e-07 -3.02568e-07)
(-2.99512e-06 1.52038e-12 -9.7692e-13 -5.06585e-07 1.33376e-07 -4.1912e-07)
(-3.08658e-06 4.79546e-13 -6.28736e-13 -5.03588e-07 1.25886e-07 -4.78871e-07)
(-3.22746e-06 8.03389e-13 -3.38149e-14 -5.17578e-07 1.39904e-07 -5.42854e-07)
(-3.45105e-06 5.04117e-14 1.17225e-12 -6.22272e-07 1.60177e-07 -6.51155e-07)
(-3.81805e-06 2.34352e-12 2.45758e-12 -1.23405e-06 1.49811e-07 -8.11635e-07)