/*--------------------------------*- C++ -*----------------------------------*\
| =========                 |                                                 |
| \\      /  F ield         | OpenFOAM: The Open Source CFD Toolbox           |
|  \\    /   O peration     | Version:  v1912                                 |
|   \\  /    A nd           | Website:  www.openfoam.com                      |
|    \\/     M anipulation  |                                                 |
\*---------------------------------------------------------------------------*/
FoamFile
{
    version     2.0;
    format      ascii;
    class       volScalarField;
    location    "0.91/solid";
    object      epsilonEq;
}
// * * * * * * * * * * * * * * * * * * * * * * * * * * * * * * * * * * * * * //

dimensions      [0 0 0 0 0 0 0];


internalField   nonuniform List<scalar> 
256
(
3.00341e-06
2.07879e-06
2.04095e-06
2.83647e-06
1.66988e-06
1.37584e-06
1.34946e-06
1.54949e-06
1.61679e-06
1.25086e-06
1.22584e-06
1.49541e-06
1.68596e-06
1.22611e-06
1.20135e-06
1.56157e-06
1.73023e-06
1.22961e-06
1.20494e-06
1.60363e-06
1.68342e-06
1.21227e-06
1.18794e-06
1.55607e-06
1.30443e-06
1.05647e-06
1.03724e-06
1.18824e-06
3.02504e-07
1.19268e-06
1.18294e-06
3.064e-07
1.72997e-06
4.73085e-07
4.56884e-07
1.56289e-06
1.22214e-06
4.64115e-07
4.50557e-07
1.07664e-06
1.1705e-06
3.49753e-07
3.39502e-07
1.02586e-06
1.17124e-06
2.34596e-07
2.28708e-07
1.02428e-06
1.19218e-06
1.96556e-07
1.95346e-07
1.04217e-06
1.21379e-06
2.27686e-07
2.26441e-07
1.06102e-06
1.11643e-06
2.3385e-07
2.36758e-07
9.66025e-07
1.30564e-06
1.05999e-06
1.04026e-06
1.18785e-06
1.40173e-06
3.01335e-07
2.94336e-07
1.23617e-06
1.15599e-06
2.81113e-07
2.70809e-07
1.00855e-06
1.12593e-06
2.02056e-07
1.94538e-07
9.77761e-07
1.12739e-06
1.52349e-07
1.52814e-07
9.76388e-07
1.15666e-06
1.67988e-07
1.73235e-07
1.00218e-06
1.20756e-06
1.84882e-07
1.87222e-07
1.04962e-06
1.21174e-06
2.24482e-07
2.23593e-07
1.05711e-06
1.68815e-06
1.2192e-06
1.19414e-06
1.55785e-06
1.23923e-06
2.86282e-07
2.84675e-07
1.0795e-06
1.08158e-06
2.72429e-07
2.69259e-07
9.41525e-07
1.05779e-06
2.17584e-07
2.17562e-07
9.15005e-07
1.05838e-06
1.97793e-07
2.03822e-07
9.11307e-07
1.09115e-06
2.03235e-07
2.12162e-07
9.39623e-07
1.15148e-06
1.81827e-07
1.88539e-07
9.95212e-07
1.18636e-06
1.83646e-07
1.84755e-07
1.03239e-06
1.7481e-06
1.24279e-06
1.21713e-06
1.61671e-06
1.14604e-06
2.49145e-07
2.49603e-07
9.89412e-07
1.01247e-06
2.52191e-07
2.51788e-07
8.76256e-07
9.95798e-07
2.12623e-07
2.14813e-07
8.56034e-07
1.00085e-06
1.93858e-07
2.01078e-07
8.5597e-07
1.04039e-06
1.89578e-07
1.99295e-07
8.90679e-07
1.10834e-06
1.52822e-07
1.60215e-07
9.53315e-07
1.15832e-06
1.73626e-07
1.73174e-07
1.00512e-06
1.73676e-06
1.24087e-06
1.21485e-06
1.6051e-06
1.09288e-06
2.12436e-07
2.13784e-07
9.37439e-07
9.6395e-07
2.20607e-07
2.20903e-07
8.28722e-07
9.52694e-07
1.82922e-07
1.85483e-07
8.1356e-07
9.63907e-07
1.58045e-07
1.65849e-07
8.19426e-07
1.01053e-06
1.47343e-07
1.57794e-07
8.61271e-07
1.08525e-06
1.07597e-07
1.14532e-07
9.30662e-07
1.14597e-06
1.87109e-07
1.83833e-07
9.93363e-07
1.72295e-06
1.23826e-06
1.21184e-06
1.5909e-06
1.06369e-06
1.82819e-07
1.84599e-07
9.08539e-07
9.34691e-07
1.90479e-07
1.90836e-07
7.99332e-07
9.26677e-07
1.47646e-07
1.50269e-07
7.87229e-07
9.4269e-07
1.14734e-07
1.23887e-07
7.97916e-07
9.9446e-07
1.01168e-07
1.13674e-07
8.45091e-07
1.07412e-06
6.4418e-08
7.12172e-08
9.19615e-07
1.14229e-06
2.03578e-07
1.98542e-07
9.90113e-07
1.71606e-06
1.23695e-06
1.21025e-06
1.5837e-06
1.05062e-06
1.65413e-07
1.67404e-07
8.95484e-07
9.21069e-07
1.71768e-07
1.7208e-07
7.85446e-07
9.14573e-07
1.23191e-07
1.25938e-07
7.74787e-07
9.33073e-07
8.21904e-08
9.36187e-08
7.88019e-07
9.87443e-07
6.70951e-08
8.33233e-08
8.3792e-07
1.06963e-06
3.04919e-08
3.93948e-08
9.15115e-07
1.1416e-06
2.12837e-07
2.07072e-07
9.89654e-07
1.71376e-06
1.23645e-06
1.20961e-06
1.58123e-06
)
;

boundaryField
{
    interface
    {
        type            calculated;
        value           nonuniform List<scalar> 
192
(
3.74481e-06
2.28413e-06
2.24178e-06
2.34279e-06
2.41855e-06
2.39966e-06
2.05062e-06
1.14015e-06
2.70959e-06
2.04601e-06
2.00284e-06
2.049e-06
2.11572e-06
2.17106e-06
2.08518e-06
2.05278e-06
2.33598e-06
1.97232e-06
1.9594e-06
2.00568e-06
2.08147e-06
2.16864e-06
2.17277e-06
2.40753e-06
2.10899e-06
1.85016e-06
1.85231e-06
1.90039e-06
1.98138e-06
2.08184e-06
2.12055e-06
2.44341e-06
1.97116e-06
1.74301e-06
1.75461e-06
1.80783e-06
1.89542e-06
2.00481e-06
2.06086e-06
2.40886e-06
1.89093e-06
1.67105e-06
1.68813e-06
1.74685e-06
1.84055e-06
1.95642e-06
2.02289e-06
2.37759e-06
1.84687e-06
1.62919e-06
1.64922e-06
1.71191e-06
1.80986e-06
1.92994e-06
2.00266e-06
2.35965e-06
1.82731e-06
1.61021e-06
1.63155e-06
1.69625e-06
1.7963e-06
1.91841e-06
1.99409e-06
2.35209e-06
3.77716e-06
2.31468e-06
2.27442e-06
2.37865e-06
2.45615e-06
2.43512e-06
2.07949e-06
1.15476e-06
3.10667e-06
2.23082e-06
2.11649e-06
2.13854e-06
2.18715e-06
2.20455e-06
2.06369e-06
1.97288e-06
3.04778e-06
2.18561e-06
2.07148e-06
2.09264e-06
2.14054e-06
2.15754e-06
2.01985e-06
1.94402e-06
3.58237e-06
2.17701e-06
2.13458e-06
2.23435e-06
2.30914e-06
2.28785e-06
1.94711e-06
1.13169e-06
3.47954e-06
2.05672e-06
2.01008e-06
2.1053e-06
2.17591e-06
2.15237e-06
1.80347e-06
9.23501e-07
2.42267e-06
1.78346e-06
1.73811e-06
1.7786e-06
1.83915e-06
1.88852e-06
1.80103e-06
1.80354e-06
2.05434e-06
1.7119e-06
1.69594e-06
1.73639e-06
1.80546e-06
1.88539e-06
1.88731e-06
2.15567e-06
1.83531e-06
1.59811e-06
1.59596e-06
1.6373e-06
1.71075e-06
1.80265e-06
1.83753e-06
2.19306e-06
1.70236e-06
1.49599e-06
1.50277e-06
1.54873e-06
1.62838e-06
1.72848e-06
1.77981e-06
2.15959e-06
1.62473e-06
1.42631e-06
1.43836e-06
1.48965e-06
1.57529e-06
1.68159e-06
1.74307e-06
2.1288e-06
1.58195e-06
1.38535e-06
1.40025e-06
1.4555e-06
1.54539e-06
1.65583e-06
1.72357e-06
2.11111e-06
1.5629e-06
1.36667e-06
1.38284e-06
1.44012e-06
1.53212e-06
1.64459e-06
1.71536e-06
2.10364e-06
1.15919e-06
2.08381e-06
2.44469e-06
2.48332e-06
2.44887e-06
2.41667e-06
2.39793e-06
2.38997e-06
1.97588e-06
2.07034e-06
2.21749e-06
2.21244e-06
2.17897e-06
2.15142e-06
2.13397e-06
2.1257e-06
1.94659e-06
2.02565e-06
2.16921e-06
2.16395e-06
2.13035e-06
2.1026e-06
2.08498e-06
2.07664e-06
1.13404e-06
1.94899e-06
2.29352e-06
2.33022e-06
2.29515e-06
2.26235e-06
2.24314e-06
2.23493e-06
)
;
    }
    symmetry
    {
        type            symmetry;
    }
    bottom
    {
        type            calculated;
        value           nonuniform List<scalar> 
32
(
4.36349e-06
2.29484e-06
1.73818e-06
1.51882e-06
1.40924e-06
1.34983e-06
1.31793e-06
1.30382e-06
2.76205e-06
6.0019e-07
2.87344e-07
2.69122e-07
2.35415e-07
2.00447e-07
1.71664e-07
1.54515e-07
2.7141e-06
5.77415e-07
2.70694e-07
2.57704e-07
2.24747e-07
1.89073e-07
1.58867e-07
1.40399e-07
4.14923e-06
2.1055e-06
1.55081e-06
1.33602e-06
1.22962e-06
1.17191e-06
1.14078e-06
1.12694e-06
)
;
    }
}


// ************************************************************************* //
