/*--------------------------------*- C++ -*----------------------------------*\
| =========                 |                                                 |
| \\      /  F ield         | OpenFOAM: The Open Source CFD Toolbox           |
|  \\    /   O peration     | Version:  v1912                                 |
|   \\  /    A nd           | Website:  www.openfoam.com                      |
|    \\/     M anipulation  |                                                 |
\*---------------------------------------------------------------------------*/
FoamFile
{
    version     2.0;
    format      ascii;
    class       pointVectorField;
    location    "0.91/solid";
    object      pointD;
}
// * * * * * * * * * * * * * * * * * * * * * * * * * * * * * * * * * * * * * //

dimensions      [0 1 0 0 0 0 0];


internalField   nonuniform List<vector> 
405
(
(4.05888e-08 4.40387e-08 4.21405e-08)
(8.79854e-09 2.94665e-08 4.50081e-08)
(-7.8013e-11 2.44937e-08 4.23482e-08)
(-8.64214e-09 2.87722e-08 4.38077e-08)
(-3.81833e-08 4.24287e-08 4.07225e-08)
(7.041e-08 5.4839e-08 7.86925e-08)
(2.44427e-08 5.02642e-08 1.04743e-07)
(1.58817e-11 4.22695e-08 9.92061e-08)
(-2.36737e-08 4.89366e-08 1.02288e-07)
(-6.61989e-08 5.25504e-08 7.64267e-08)
(8.18707e-08 3.21345e-08 1.04219e-07)
(3.24887e-08 3.19755e-08 1.2957e-07)
(4.33501e-10 2.76255e-08 1.23464e-07)
(-3.07724e-08 3.07727e-08 1.27005e-07)
(-7.65329e-08 3.00813e-08 1.01748e-07)
(8.39088e-08 1.17548e-08 1.22524e-07)
(3.34036e-08 1.386e-08 1.48109e-07)
(9.2039e-10 1.17268e-08 1.41335e-07)
(-3.07139e-08 1.27576e-08 1.45446e-07)
(-7.75313e-08 9.8714e-09 1.19937e-07)
(8.4888e-08 -5.01116e-09 1.39016e-07)
(3.3276e-08 -2.94663e-09 1.65067e-07)
(1.38706e-09 -4.73831e-09 1.57697e-07)
(-2.96474e-08 -3.98431e-09 1.62318e-07)
(-7.74995e-08 -6.7809e-09 1.36327e-07)
(8.89228e-08 -2.13654e-08 1.56533e-07)
(3.5094e-08 -2.04592e-08 1.83328e-07)
(1.81686e-09 -2.27504e-08 1.75471e-07)
(-3.05947e-08 -2.14403e-08 1.80486e-07)
(-8.05875e-08 -2.30213e-08 1.53722e-07)
(9.89304e-08 -4.341e-08 1.76795e-07)
(4.07995e-08 -4.33791e-08 2.05001e-07)
(2.18674e-09 -4.55564e-08 1.97046e-07)
(-3.55456e-08 -4.42698e-08 2.02052e-07)
(-8.97604e-08 -4.48872e-08 1.73833e-07)
(1.15731e-07 -9.00363e-08 1.99177e-07)
(5.02204e-08 -8.88606e-08 2.30983e-07)
(2.43705e-09 -8.8634e-08 2.24134e-07)
(-4.44187e-08 -8.93317e-08 2.27946e-07)
(-1.05883e-07 -9.08529e-08 1.96071e-07)
(1.13616e-07 -1.49636e-07 1.99189e-07)
(5.57261e-08 -1.59264e-07 2.09484e-07)
(2.65678e-09 -1.55498e-07 2.05199e-07)
(-4.94471e-08 -1.58318e-07 2.07466e-07)
(-1.04348e-07 -1.48836e-07 1.96597e-07)
(4.01292e-08 2.42776e-08 8.88975e-09)
(0 0 0)
(0 0 0)
(0 0 0)
(-3.69957e-08 2.30538e-08 8.71403e-09)
(8.75588e-08 3.83205e-08 3.05048e-08)
(2.0565e-08 2.04741e-08 3.47163e-08)
(2.06043e-10 1.3683e-08 3.43689e-08)
(-1.94817e-08 1.94339e-08 3.44405e-08)
(-8.06561e-08 3.59537e-08 3.00226e-08)
(9.66202e-08 1.80485e-08 5.24802e-08)
(2.73336e-08 1.16986e-08 5.80903e-08)
(6.85753e-10 7.82971e-09 5.77859e-08)
(-2.51965e-08 1.05964e-08 5.77226e-08)
(-8.85194e-08 1.58331e-08 5.18247e-08)
(9.87634e-08 1.96108e-11 6.93552e-08)
(2.80572e-08 -1.79421e-09 7.5159e-08)
(1.19796e-09 -3.67304e-09 7.47816e-08)
(-2.48996e-08 -2.85736e-09 7.47596e-08)
(-8.9541e-08 -2.07649e-09 6.86281e-08)
(1.00465e-07 -1.51708e-08 8.43218e-08)
(2.79995e-08 -1.7187e-08 8.99924e-08)
(1.68605e-09 -1.87809e-08 8.94276e-08)
(-2.38601e-08 -1.81962e-08 8.95625e-08)
(-9.01397e-08 -1.7163e-08 8.3525e-08)
(1.05638e-07 -2.98692e-08 9.95781e-08)
(2.99277e-08 -3.46364e-08 1.05048e-07)
(2.14162e-09 -3.68103e-08 1.04262e-07)
(-2.48643e-08 -3.55868e-08 1.04571e-07)
(-9.42619e-08 -3.17347e-08 9.86826e-08)
(1.17535e-07 -4.88789e-08 1.16079e-07)
(3.57718e-08 -5.66607e-08 1.21355e-07)
(2.54375e-09 -5.88893e-08 1.20445e-07)
(-2.98862e-08 -5.75213e-08 1.20814e-07)
(-1.05206e-07 -5.05428e-08 1.15052e-07)
(1.38198e-07 -9.00429e-08 1.31617e-07)
(4.53214e-08 -9.57364e-08 1.36815e-07)
(2.83176e-09 -9.54841e-08 1.3605e-07)
(-3.88089e-08 -9.62062e-08 1.36205e-07)
(-1.25048e-07 -9.10314e-08 1.30447e-07)
(1.16149e-07 -1.57744e-07 1.40661e-07)
(5.07514e-08 -1.89984e-07 1.42174e-07)
(2.97188e-09 -1.83655e-07 1.41438e-07)
(-4.38769e-08 -1.87997e-07 1.41557e-07)
(-1.05484e-07 -1.56501e-07 1.3958e-07)
(3.18978e-08 1.37699e-08 1.30657e-09)
(0 0 0)
(0 0 0)
(0 0 0)
(-2.88167e-08 1.26724e-08 1.31972e-09)
(6.91548e-08 1.87813e-08 1.04914e-08)
(1.37685e-08 5.55062e-09 1.61685e-08)
(2.74539e-10 -6.05929e-11 1.74972e-08)
(-1.25859e-08 4.66997e-09 1.61646e-08)
(-6.23502e-08 1.66142e-08 1.04761e-08)
(7.562e-08 1.93325e-09 2.66062e-08)
(1.83731e-08 -2.87166e-09 3.41301e-08)
(7.95216e-10 -6.12636e-09 3.59981e-08)
(-1.60707e-08 -3.88785e-09 3.40868e-08)
(-6.75952e-08 -1.85472e-10 2.65157e-08)
(7.68652e-08 -1.29241e-08 4.21421e-08)
(1.86473e-08 -1.43366e-08 5.00392e-08)
(1.33597e-09 -1.60133e-08 5.20406e-08)
(-1.52746e-08 -1.53686e-08 4.99677e-08)
(-6.76832e-08 -1.50014e-08 4.19899e-08)
(7.8187e-08 -2.58812e-08 5.61852e-08)
(1.84905e-08 -2.77904e-08 6.40839e-08)
(1.84864e-09 -2.93448e-08 6.60567e-08)
(-1.40887e-08 -2.87972e-08 6.39846e-08)
(-6.78507e-08 -2.78991e-08 5.59682e-08)
(8.32589e-08 -3.80804e-08 6.94684e-08)
(2.03728e-08 -4.28952e-08 7.72849e-08)
(2.32872e-09 -4.5101e-08 7.91737e-08)
(-1.49951e-08 -4.38611e-08 7.71463e-08)
(-7.17967e-08 -4.0003e-08 6.91655e-08)
(9.56662e-08 -5.27945e-08 8.17721e-08)
(2.63316e-08 -6.0813e-08 8.94276e-08)
(2.75713e-09 -6.30869e-08 9.12317e-08)
(-2.00721e-08 -6.1709e-08 8.92398e-08)
(-8.31513e-08 -5.455e-08 8.13631e-08)
(1.18083e-07 -8.67362e-08 9.02613e-08)
(3.62596e-08 -9.25154e-08 9.76751e-08)
(3.07423e-09 -9.21195e-08 9.94323e-08)
(-2.93055e-08 -9.30483e-08 9.74484e-08)
(-1.04632e-07 -8.78578e-08 8.97566e-08)
(9.98733e-08 -1.47589e-07 9.39697e-08)
(4.18258e-08 -1.76273e-07 9.67036e-08)
(3.24934e-09 -1.68841e-07 9.84077e-08)
(-3.44354e-08 -1.74349e-07 9.65004e-08)
(-8.87897e-08 -1.46465e-07 9.3541e-08)
(2.69071e-08 9.61139e-09 9.29597e-10)
(0 0 0)
(0 0 0)
(0 0 0)
(-2.39127e-08 8.5538e-09 9.52119e-10)
(5.79621e-08 1.02207e-08 7.52123e-09)
(9.46212e-09 -1.91964e-11 1.11655e-08)
(2.82061e-10 -4.79033e-09 1.24324e-08)
(-8.28394e-09 -8.55659e-10 1.11802e-08)
(-5.13247e-08 8.11918e-09 7.56074e-09)
(6.29636e-08 -6.63671e-09 2.00743e-08)
(1.26308e-08 -1.04143e-08 2.49421e-08)
(8.1473e-10 -1.32049e-08 2.67169e-08)
(-1.03122e-08 -1.13991e-08 2.49403e-08)
(-5.50856e-08 -8.72535e-09 2.00866e-08)
(6.39786e-08 -2.06762e-08 3.35749e-08)
(1.26901e-08 -2.19084e-08 3.86342e-08)
(1.37322e-09 -2.34481e-08 4.05374e-08)
(-9.26697e-09 -2.29326e-08 3.86088e-08)
(-5.49098e-08 -2.2764e-08 3.35389e-08)
(6.53917e-08 -3.20389e-08 4.61778e-08)
(1.25963e-08 -3.40064e-08 5.11487e-08)
(1.90638e-09 -3.55676e-08 5.30409e-08)
(-8.10314e-09 -3.50272e-08 5.10959e-08)
(-5.5122e-08 -3.4103e-08 4.60823e-08)
(7.06796e-08 -4.16874e-08 5.73787e-08)
(1.4567e-08 -4.66311e-08 6.22163e-08)
(2.40811e-09 -4.88955e-08 6.40548e-08)
(-9.05192e-09 -4.76296e-08 6.213e-08)
(-5.92192e-08 -4.36872e-08 5.721e-08)
(8.35072e-08 -5.28341e-08 6.62865e-08)
(2.06421e-08 -6.10179e-08 7.09978e-08)
(2.85906e-09 -6.33764e-08 7.27728e-08)
(-1.41945e-08 -6.1963e-08 7.08753e-08)
(-7.09085e-08 -5.46947e-08 6.60365e-08)
(1.06485e-07 -8.24516e-08 7.08621e-08)
(3.06922e-08 -8.84317e-08 7.55109e-08)
(3.20017e-09 -8.81575e-08 7.72443e-08)
(-2.34941e-08 -8.90257e-08 7.53664e-08)
(-9.28516e-08 -8.36973e-08 7.05481e-08)
(9.01425e-08 -1.396e-07 7.1889e-08)
(3.64047e-08 -1.66938e-07 7.39002e-08)
(3.4041e-09 -1.59588e-07 7.57324e-08)
(-2.87087e-08 -1.65091e-07 7.37796e-08)
(-7.8791e-08 -1.38597e-07 7.16273e-08)
(2.4348e-08 8.03165e-09 1.24987e-09)
(0 0 0)
(0 0 0)
(0 0 0)
(-2.14214e-08 6.99428e-09 1.26582e-09)
(5.22594e-08 6.92e-09 6.97324e-09)
(7.62449e-09 -1.92626e-09 8.70633e-09)
(2.76192e-10 -6.23017e-09 9.46103e-09)
(-6.47208e-09 -2.7525e-09 8.71775e-09)
(-4.57656e-08 4.84587e-09 7.01071e-09)
(5.66526e-08 -1.02176e-08 1.68654e-08)
(1.02005e-08 -1.355e-08 1.91549e-08)
(8.08282e-10 -1.60888e-08 2.02075e-08)
(-7.90974e-09 -1.45306e-08 1.91601e-08)
(-4.89203e-08 -1.23045e-08 1.68979e-08)
(5.77856e-08 -2.42024e-08 2.76926e-08)
(1.02759e-08 -2.545e-08 2.99932e-08)
(1.37506e-09 -2.69319e-08 3.11068e-08)
(-6.86313e-09 -2.64807e-08 2.99823e-08)
(-4.88428e-08 -2.63137e-08 2.76949e-08)
(5.94967e-08 -3.4735e-08 3.7969e-08)
(1.03527e-08 -3.68445e-08 4.0123e-08)
(1.92258e-09 -3.84342e-08 4.1209e-08)
(-5.84043e-09 -3.78849e-08 4.00901e-08)
(-4.93177e-08 -3.68471e-08 3.79256e-08)
(6.50826e-08 -4.28058e-08 4.67583e-08)
(1.24745e-08 -4.78775e-08 4.87673e-08)
(2.44167e-09 -5.01964e-08 4.98043e-08)
(-6.90374e-09 -4.89083e-08 4.87081e-08)
(-5.36632e-08 -4.48759e-08 4.66583e-08)
(7.81345e-08 -5.2042e-08 5.3091e-08)
(1.86139e-08 -6.03045e-08 5.50304e-08)
(2.91125e-09 -6.27482e-08 5.6025e-08)
(-1.20696e-08 -6.12919e-08 5.49452e-08)
(-6.5512e-08 -5.39903e-08 5.29311e-08)
(1.01114e-07 -7.96351e-08 5.58479e-08)
(2.86119e-08 -8.57945e-08 5.78447e-08)
(3.27183e-09 -8.57192e-08 5.88334e-08)
(-2.1273e-08 -8.64354e-08 5.77457e-08)
(-8.73808e-08 -8.09761e-08 5.56438e-08)
(8.58532e-08 -1.34675e-07 5.59741e-08)
(3.44172e-08 -1.61335e-07 5.69006e-08)
(3.49756e-09 -1.54376e-07 5.80276e-08)
(-2.65337e-08 -1.59543e-07 5.682e-08)
(-7.43386e-08 -1.3376e-07 5.5803e-08)
(2.30787e-08 7.41567e-09 1.22794e-09)
(0 0 0)
(0 0 0)
(0 0 0)
(-2.01976e-08 6.39281e-09 1.23834e-09)
(4.95253e-08 5.73976e-09 5.87898e-09)
(7.01811e-09 -2.57543e-09 6.58675e-09)
(2.69442e-10 -6.65625e-09 6.95062e-09)
(-5.8888e-09 -3.39772e-09 6.59488e-09)
(-4.31319e-08 3.68387e-09 5.90674e-09)
(5.37912e-08 -1.13807e-08 1.3276e-08)
(9.45781e-09 -1.45992e-08 1.41651e-08)
(7.97599e-10 -1.70323e-08 1.46626e-08)
(-7.19893e-09 -1.55823e-08 1.41715e-08)
(-4.61686e-08 -1.34702e-08 1.33067e-08)
(5.51442e-08 -2.53218e-08 2.12506e-08)
(9.64443e-09 -2.66663e-08 2.20718e-08)
(1.36724e-09 -2.81429e-08 2.25809e-08)
(-6.25704e-09 -2.77069e-08 2.20685e-08)
(-4.63022e-08 -2.7455e-08 2.12651e-08)
(5.71529e-08 -3.54812e-08 2.88329e-08)
(9.89275e-09 -3.77305e-08 2.95175e-08)
(1.92357e-09 -3.93554e-08 2.99929e-08)
(-5.38731e-09 -3.8789e-08 2.9499e-08)
(-4.70518e-08 -3.76326e-08 2.8817e-08)
(6.29798e-08 -4.28584e-08 3.51887e-08)
(1.21428e-08 -4.80189e-08 3.57624e-08)
(2.45511e-09 -5.03787e-08 3.61991e-08)
(-6.55277e-09 -4.90754e-08 3.57253e-08)
(-5.16033e-08 -4.49829e-08 3.51331e-08)
(7.61152e-08 -5.13568e-08 3.95638e-08)
(1.83002e-08 -5.96377e-08 4.01118e-08)
(2.93887e-09 -6.2139e-08 4.05253e-08)
(-1.17059e-08 -6.06564e-08 4.00568e-08)
(-6.34903e-08 -5.33697e-08 3.94665e-08)
(9.89229e-08 -7.80959e-08 4.13977e-08)
(2.82004e-08 -8.43516e-08 4.20302e-08)
(3.3143e-09 -8.44244e-08 4.24547e-08)
(-2.07787e-08 -8.50256e-08 4.19662e-08)
(-8.51352e-08 -7.95046e-08 4.12703e-08)
(8.42913e-08 -1.31868e-07 4.13603e-08)
(3.40402e-08 -1.58093e-07 4.16297e-08)
(3.55576e-09 -1.51461e-07 4.21569e-08)
(-2.60405e-08 -1.56337e-07 4.15784e-08)
(-7.26778e-08 -1.31014e-07 4.12528e-08)
(2.24341e-08 7.16708e-09 9.2782e-10)
(0 0 0)
(0 0 0)
(0 0 0)
(-1.95807e-08 6.15408e-09 9.34132e-10)
(4.81956e-08 5.35477e-09 4.17384e-09)
(6.8482e-09 -2.77782e-09 4.4465e-09)
(2.64279e-10 -6.75961e-09 4.60272e-09)
(-5.73501e-09 -3.59746e-09 4.45188e-09)
(-4.18649e-08 3.31179e-09 4.19169e-09)
(5.24989e-08 -1.15938e-08 9.08896e-09)
(9.30281e-09 -1.48194e-08 9.39882e-09)
(7.88611e-10 -1.72177e-08 9.60421e-09)
(-7.0683e-09 -1.58048e-08 9.40404e-09)
(-4.49474e-08 -1.36845e-08 9.11091e-09)
(5.40428e-08 -2.54188e-08 1.42872e-08)
(9.59853e-09 -2.68597e-08 1.45267e-08)
(1.35869e-09 -2.83504e-08 1.4725e-08)
(-6.23413e-09 -2.79084e-08 1.45268e-08)
(-4.52687e-08 -2.7567e-08 1.43013e-08)
(5.62653e-08 -3.54176e-08 1.92065e-08)
(9.97014e-09 -3.77675e-08 1.93519e-08)
(1.91985e-09 -3.94219e-08 1.95234e-08)
(-5.47743e-09 -3.88393e-08 1.93428e-08)
(-4.62185e-08 -3.75963e-08 1.92028e-08)
(6.22441e-08 -4.25831e-08 2.3292e-08)
(1.2302e-08 -4.77937e-08 2.33705e-08)
(2.45937e-09 -5.01791e-08 2.35171e-08)
(-6.70793e-09 -4.88682e-08 2.33497e-08)
(-5.08996e-08 -4.47447e-08 2.32639e-08)
(7.53965e-08 -5.09013e-08 2.60666e-08)
(1.84564e-08 -5.91729e-08 2.61405e-08)
(2.9528e-09 -6.1704e-08 2.62768e-08)
(-1.18375e-08 -6.02125e-08 2.61086e-08)
(-6.27741e-08 -5.29573e-08 2.60124e-08)
(9.80346e-08 -7.73038e-08 2.7253e-08)
(2.82739e-08 -8.35909e-08 2.73933e-08)
(3.3385e-09 -8.37441e-08 2.75421e-08)
(-2.08053e-08 -8.42864e-08 2.73558e-08)
(-8.42157e-08 -7.8757e-08 2.718e-08)
(8.37513e-08 -1.30326e-07 2.72415e-08)
(3.41131e-08 -1.56252e-07 2.72642e-08)
(3.59044e-09 -1.49812e-07 2.74706e-08)
(-2.60442e-08 -1.54518e-07 2.72345e-08)
(-7.20788e-08 -1.29511e-07 2.71795e-08)
(2.21194e-08 7.06725e-09 4.90147e-10)
(0 0 0)
(0 0 0)
(0 0 0)
(-1.92808e-08 6.05985e-09 4.93148e-10)
(4.75637e-08 5.24685e-09 2.14795e-09)
(6.8003e-09 -2.82308e-09 2.24342e-09)
(2.61159e-10 -6.76329e-09 2.30034e-09)
(-5.69635e-09 -3.64105e-09 2.24613e-09)
(-4.1267e-08 3.21155e-09 2.15666e-09)
(5.19157e-08 -1.1541e-08 4.5965e-09)
(9.28626e-09 -1.47918e-08 4.69355e-09)
(7.8296e-10 -1.71815e-08 4.76511e-09)
(-7.06635e-09 -1.57784e-08 4.69645e-09)
(-4.44035e-08 -1.36318e-08 4.60771e-09)
(5.35759e-08 -2.52569e-08 7.15213e-09)
(9.65063e-09 -2.67599e-08 7.20972e-09)
(1.35278e-09 -2.82641e-08 7.27412e-09)
(-6.30106e-09 -2.78132e-08 7.21041e-09)
(-4.48402e-08 -2.74133e-08 7.16023e-09)
(5.59185e-08 -3.51887e-08 9.55891e-09)
(1.00913e-08 -3.75952e-08 9.5707e-09)
(1.91624e-09 -3.9268e-08 9.62103e-09)
(-5.60845e-09 -3.8675e-08 9.56713e-09)
(-4.59032e-08 -3.73829e-08 9.55897e-09)
(6.19758e-08 -4.23225e-08 1.15506e-08)
(1.24653e-08 -4.75567e-08 1.15322e-08)
(2.46009e-09 -4.99554e-08 1.15709e-08)
(-6.87204e-09 -4.86417e-08 1.15231e-08)
(-5.06505e-08 -4.45053e-08 1.15392e-08)
(7.51247e-08 -5.06416e-08 1.2902e-08)
(1.86133e-08 -5.89e-08 1.28847e-08)
(2.95905e-09 -6.14431e-08 1.29198e-08)
(-1.19834e-08 -5.99515e-08 1.28702e-08)
(-6.25051e-08 -5.27223e-08 1.28781e-08)
(9.7653e-08 -7.69245e-08 1.34946e-08)
(2.83801e-08 -8.32142e-08 1.35117e-08)
(3.35069e-09 -8.34024e-08 1.35541e-08)
(-2.08878e-08 -8.39218e-08 1.34946e-08)
(-8.38179e-08 -7.84028e-08 1.34617e-08)
(8.35429e-08 -1.29554e-07 1.35045e-08)
(3.42086e-08 -1.55299e-07 1.34835e-08)
(3.6086e-09 -1.48949e-07 1.35501e-08)
(-2.61033e-08 -1.53577e-07 1.34701e-08)
(-7.18393e-08 -1.2876e-07 1.34765e-08)
(1.79425e-08 7.18742e-09 0)
(2.348e-09 1.43265e-09 0)
(1.1845e-11 -9.30863e-10 0)
(-2.07401e-09 1.08501e-09 0)
(-1.57037e-08 6.1269e-09 0)
(3.02844e-08 3.08421e-09 0)
(6.78882e-09 -2.82725e-09 0)
(2.60123e-10 -6.7559e-09 0)
(-5.68786e-09 -3.64466e-09 0)
(-2.63006e-08 1.40994e-09 0)
(3.44409e-08 -1.20507e-08 0)
(9.28665e-09 -1.47604e-08 0)
(7.81056e-10 -1.71488e-08 0)
(-7.07156e-09 -1.57474e-08 0)
(-2.9257e-08 -1.38531e-08 0)
(3.55236e-08 -2.53088e-08 0)
(9.67348e-09 -2.66963e-08 0)
(1.35071e-09 -2.82057e-08 0)
(-6.32897e-09 -2.77512e-08 0)
(-2.91682e-08 -2.71852e-08 0)
(3.70246e-08 -3.55923e-08 0)
(1.01359e-08 -3.75103e-08 0)
(1.91484e-09 -3.91892e-08 0)
(-5.65664e-09 -3.85926e-08 0)
(-2.94577e-08 -3.75068e-08 0)
(4.17803e-08 -4.37767e-08 0)
(1.25227e-08 -4.74632e-08 0)
(2.46005e-09 -4.98659e-08 0)
(-6.93013e-09 -4.85515e-08 0)
(-3.29883e-08 -4.56893e-08 0)
(5.28552e-08 -5.35419e-08 0)
(1.86679e-08 -5.88092e-08 0)
(2.9608e-09 -6.13554e-08 0)
(-1.2035e-08 -5.98646e-08 0)
(-4.28738e-08 -5.53772e-08 0)
(7.15397e-08 -7.99441e-08 0)
(2.8418e-08 -8.30988e-08 0)
(3.35438e-09 -8.32964e-08 0)
(-2.09185e-08 -8.38103e-08 0)
(-6.04746e-08 -8.12226e-08 0)
(7.3709e-08 -1.20495e-07 0)
(3.40852e-08 -1.2794e-07 0)
(3.56384e-09 -1.23839e-07 0)
(-2.60906e-08 -1.27281e-07 0)
(-6.29939e-08 -1.20173e-07 0)
)
;

boundaryField
{
    interface
    {
        type            calculated;
    }
    symmetry
    {
        type            symmetry;
    }
    bottom
    {
        type            calculated;
    }
}


// ************************************************************************* //
