/*--------------------------------*- C++ -*----------------------------------*\
| =========                 |                                                 |
| \\      /  F ield         | OpenFOAM: The Open Source CFD Toolbox           |
|  \\    /   O peration     | Version:  v1912                                 |
|   \\  /    A nd           | Website:  www.openfoam.com                      |
|    \\/     M anipulation  |                                                 |
\*---------------------------------------------------------------------------*/
FoamFile
{
    version     2.0;
    format      ascii;
    class       volSymmTensorField;
    location    "0.91/solid";
    object      sigma;
}
// * * * * * * * * * * * * * * * * * * * * * * * * * * * * * * * * * * * * * //

dimensions      [1 -1 -2 0 0 0 0];


internalField   nonuniform List<symmTensor> 
256
(
(-130015 36335.6 -12698.2 552688 42475.8 -136457)
(105341 -4402.6 -5486.02 362430 42109.6 -184555)
(107739 1848.36 5075.44 358057 41953.9 -178768)
(-97293.3 -35812.2 12391.2 538591 41990.6 -119355)
(-154752 1152.38 -19759.7 229332 7580.04 -153791)
(-7951.27 -5615.92 -9233.28 139048 9299.45 -224263)
(-3179.04 4683.23 8737.97 138527 9361.3 -217564)
(-119033 -1383.32 19322.4 228138 7657.39 -135611)
(-155397 -4921.39 -21490.4 216511 1393.31 -153854)
(-27162 -5697.56 -10253.7 93635.9 1613.43 -235018)
(-22353.8 5294.68 9816.01 93611.5 1655.4 -228109)
(-119478 4727.56 21047.9 215309 1447.14 -135458)
(-150867 -3540.47 -22441.9 235175 2525.3 -152870)
(-19270.3 -4503.78 -10763.9 77383.3 1888.68 -240451)
(-14507.8 4202.71 10367.5 77373.5 1889.64 -233409)
(-114527 3426.3 22008.5 233491 2486.54 -134211)
(-154259 -325.324 -23426.3 240436 6320.37 -158958)
(-17440.7 -2280 -11316.8 62067.4 5424.22 -252073)
(-12624.4 1978.27 10930.8 62031.1 5395.69 -244893)
(-117261 226.502 22998.2 238635 6205.09 -139943)
(-172763 5964.19 -24214.1 210926 13384.1 -176114)
(-38258.7 1806.79 -11802.1 28688.3 12837.2 -276776)
(-33355.4 -2238.2 11402.3 28773.6 12781.2 -269428)
(-135007 -6111.61 23787.1 209526 13195.2 -156621)
(-198108 16469 -23723.4 96773.3 23533.5 -196387)
(-71428.2 7905.72 -11605.7 -63156 24644.4 -305983)
(-66347.4 -8646.15 11169.8 -61965.5 24550.4 -298408)
(-159385 -16672.3 23294 98434.9 23255.9 -176259)
(-114536 21072 -21031.8 -111513 27102.7 -111126)
(64663.7 10353.1 -10342.2 -204764 29796.5 -204231)
(69388.2 -9903.38 9867.85 -197844 29698.2 -197379)
(-76109 -20652.2 20608.2 -93049.9 26844.3 -92876.5)
(-184163 21976.3 -10149.8 271834 9252.75 81448.6)
(-30712.4 -8424.27 -3501.17 65427.7 24828.6 -36378.9)
(-28147.3 7575.33 3807.18 62301.5 25134 -36494.9)
(-151819 -20826.5 10217 260409 10011.6 81043.3)
(-215238 -1574.7 -15964.7 99393.7 10389.4 6891.17)
(-138206 -6263.33 -7023.35 -37664.2 18701.1 -138677)
(-133087 6236.48 7411.38 -37833.7 18838 -137033)
(-179643 1668.67 16010.3 98636.2 10664.6 9812.45)
(-222404 -5212.83 -16954.1 77391.8 8664.01 -6286.35)
(-168014 -5424.48 -7751.65 -93453.4 11226.8 -171944)
(-162729 5429.94 8223.05 -92730.5 11285 -170038)
(-186379 5164.22 17007.9 77572.7 8736.23 -3267.61)
(-223775 -3713.15 -17300.5 75564.4 9063.09 -5796.25)
(-171502 -4239.56 -7873.11 -130018 9231.96 -184592)
(-166200 4164.44 8435.39 -129018 9229.11 -182648)
(-187200 3687.84 17380.7 75851.7 8977.25 -2894.2)
(-232502 -596.626 -17826.4 70928.6 14150.4 -9491.41)
(-179745 -2210.56 -8186.27 -157835 13491.9 -199377)
(-174362 2082.04 8796.29 -156780 13432.1 -197413)
(-195156 579.579 17927.4 71257.1 13908.3 -6604.58)
(-257967 6019.26 -18235.8 46274 22554.6 -25822.6)
(-211069 1853.53 -8529.32 -189543 21706.2 -228077)
(-205583 -2133.17 9137.75 -188400 21596.7 -226075)
(-219725 -6081.56 18347.9 46889.7 22171.6 -22827.5)
(-292354 17838.1 -17812.1 -42877.5 28989.7 -44041.7)
(-251918 8398.22 -8406.98 -254404 28755.2 -255009)
(-246258 -9045.56 8992.93 -252291 28615 -252923)
(-253011 -17971.6 17937.2 -39506.2 28529.7 -40744.8)
(-198439 23749 -16421.8 -196728 23664.3 96693.3)
(-71231.3 11609.5 -7911.46 -306384 24757.6 -62584)
(-66122.2 -11184.4 8568.18 -298701 24666.1 -61423.6)
(-159468 -23315.1 16608.1 -176281 23395.4 98263.1)
(-168162 11843.8 -4334.76 176087 18562.9 123318)
(-36262 -12926.8 -708.886 -11220 34004.9 -3903.47)
(-33681.9 12428.8 808.554 -13957.1 34099.9 -4634.73)
(-136783 -10598.9 4331.79 165481 18848.2 121108)
(-181828 -3247.89 -6689.04 68423.5 22076.3 93520.6)
(-105758 -7153.49 -2054.07 -67782.3 30021.7 -70747.1)
(-100834 7475.84 2147.23 -68038.7 30061.3 -70071.2)
(-147501 3475.85 6671.88 67336.6 22154.7 93746.6)
(-186093 -5060.64 -6731.78 64196.1 20568.4 77059.5)
(-127441 -5212.02 -2195.77 -103177 23063.4 -108912)
(-122370 5467.86 2297.29 -102596 23065.5 -107948)
(-151324 5108.43 6715.9 63982.9 20519.3 77439)
(-187691 -3627.8 -6495.45 68174.2 19533.7 71679.2)
(-130566 -4084.96 -2002.96 -130367 19751.6 -128585)
(-125475 4161.75 2145.62 -129470 19713.4 -127567)
(-152340 3663.03 6494.56 68169.3 19367.1 71971.9)
(-196475 -651.068 -6430.63 69522.9 21815.7 65470.2)
(-138888 -2267.23 -1965.49 -150997 21286 -147508)
(-133701 2220.66 2140.09 -150012 21203.9 -146473)
(-160276 674.173 6445.2 69614.4 21523.7 65725.7)
(-221945 6143.25 -6390.9 55079.8 25037.3 50664.7)
(-169451 1808.12 -2040.9 -172207 24252.7 -176095)
(-164129 -2061.05 2222.68 -171131 24136 -175026)
(-184689 -6178.7 6417.75 55431.9 24642.7 50988.3)
(-258084 18273.7 -6263.49 -23508.1 23448.9 44017.1)
(-210154 8519.89 -2106.69 -226185 22583.6 -191156)
(-204612 -9192.81 2300.23 -224145 22465.3 -190031)
(-219495 -18394.8 6312.42 -20439.7 23047.9 44547)
(-173067 24249.8 -6172.95 -176296 13902.4 211713)
(-36898.3 11802.8 -2082.86 -276895 13353.1 30174.9)
(-31915.1 -11408.7 2391.63 -269376 13297.5 30214.6)
(-134731 -23813.4 6294.37 -156326 13718.8 210152)
(-154142 7616.46 -1158.34 138515 21705.3 118502)
(-31579 -14474.6 630.602 -32090.4 31272.7 -3537.77)
(-29040 13998.3 -606.044 -34733.9 31296.5 -4245.33)
(-123527 -6402.77 1135.93 128155 21836.2 116299)
(-158303 -3646.32 -1555.8 51739.6 26244.4 111327)
(-81328.7 -7305.8 695.874 -77567.5 31068.7 -49708.7)
(-76519.5 7690.31 -710.936 -77829.8 31063.9 -49142)
(-124859 3899.18 1510.02 50567.8 26244 111208)
(-160267 -4607.42 -1203.76 57832.3 26120.3 96419.8)
(-96815.1 -4875.97 902.742 -100492 27488 -85594.5)
(-91862.7 5221.62 -943.471 -99963 27460.9 -84744.9)
(-126380 4694.6 1150.67 57464.5 26024.2 96444.1)
(-161811 -3259.97 -797.218 70627 24678.2 85834.5)
(-98936.4 -3811.9 1183.37 -116088 24557.8 -109906)
(-93957.2 3963.22 -1218.76 -115255 24505.1 -108978)
(-127311 3327.7 748.194 70459.2 24495.4 85840.4)
(-170640 -447.328 -525.955 79300.2 23863.9 76161.4)
(-107024 -2179.89 1347.64 -128046 23319.2 -132270)
(-101933 2171.08 -1368.14 -127116 23238.9 -131306)
(-135224 490.842 485.561 79242.3 23596.4 76168)
(-195781 6188.22 -392.975 70041.6 22000.5 63803.8)
(-136642 1715.83 1356.22 -143910 21400.7 -158516)
(-131392 -1971.16 -1363.99 -142875 21302.8 -157516)
(-159189 -6214.16 363.744 70257.4 21675.2 63865.8)
(-231699 17908 -499.564 -6136.03 15936.9 68348)
(-176089 8156.75 1182.52 -196774 15222.8 -162428)
(-170584 -8859.27 -1161.17 -194759 15136.2 -161396)
(-193595 -18026.1 493.267 -3190.22 15636.9 68524.4)
(-153080 23531.7 -765.372 -158603 7404.58 245267)
(-12133.7 11332.5 1133.12 -251669 6588.06 64822.5)
(-7177.41 -10954.8 -1003.19 -244234 6553.06 64694.8)
(-115098 -23091.9 820.423 -138911 7280.18 243140)
(-146609 6363.16 -146.378 121571 19758 108773)
(-30161.5 -14370.2 772.812 -38949.6 24536.8 -5914.94)
(-27668.5 13872.8 -766.581 -41572.8 24547.8 -6586.32)
(-116512 -5187.42 128.313 111329 19847.7 106663)
(-147930 -3465.35 66.0149 41574.9 23722.7 107858)
(-72851.2 -7021.37 1233.94 -81647.5 25983.1 -43321)
(-68126.3 7389.56 -1264.47 -81922.8 25973.5 -42760.9)
(-115064 3709.95 -105.404 40350 23720.2 107714)
(-149167 -4159.85 437.814 51232.6 24710.6 95266.1)
(-85773.8 -4546.53 1504.39 -99525.5 25146.8 -75333.8)
(-80905.9 4903.5 -1565.5 -99026 25117.8 -74507.5)
(-115858 4254.31 -487.698 50791.3 24627.6 95220.5)
(-150872 -2895.54 777.104 68912.4 23573.1 83208.4)
(-87558.6 -3562.72 1730.56 -108535 23234.7 -100219)
(-82657.7 3737.18 -1801.36 -107740 23186.6 -99306.7)
(-116927 2975.1 -829.009 68664.7 23421.2 83158.6)
(-159880 -235.078 1016.18 81868.6 21240 72595.9)
(-95678.5 -2075.46 1870.31 -115291 20763.5 -123054)
(-90656.9 2080.77 -1937.3 -114396 20698.3 -122097)
(-124972 287.883 -1064.48 81737 21030.4 72563.5)
(-184777 6144.61 1104.61 74568.9 17085.7 63136.8)
(-124721 1603.81 1877.4 -129222 16723 -146240)
(-119522 -1863.06 -1932.67 -128210 16650.1 -145246)
(-148612 -6165.77 -1144.46 74729.6 16845.2 63147.5)
(-220089 17392.8 941.931 -635.129 10349.7 74299.3)
(-163098 7736.33 1716.63 -182522 9990.17 -143920)
(-157622 -8454.34 -1741.76 -180517 9930.07 -142906)
(-182298 -17508.4 -963.034 2271.63 10138.5 74366.9)
(-145167 22724.7 682.291 -150411 4142.23 250973)
(-5723.14 10837.6 1684.64 -238824 3598.38 79834.2)
(-783.751 -10466.5 -1624 -231423 3575.51 79663.2)
(-107403 -22281.2 -657.792 -130840 4057.63 248642)
(-142403 6114.34 31.8223 113771 15345.7 102171)
(-30241.9 -13894.1 517.489 -41453.9 17504.4 -7389.23)
(-27781.5 13376.7 -515.68 -44070.7 17512.4 -8046.88)
(-112625 -4965.24 -43.0071 103606 15408.5 100115)
(-143277 -3192 268.916 36646.4 18061.6 102233)
(-70814.3 -6697.02 890.527 -82714.7 18947 -41104.3)
(-66147.1 7039.83 -914.621 -83008.6 18941.5 -40549.2)
(-110766 3424.72 -294.631 35376.5 18066.9 102095)
(-144497 -3840.09 528.163 47239.8 19195.2 91416)
(-83021.9 -4311.71 1087.5 -98685 19195 -70039)
(-78212.9 4655.99 -1136.08 -98212.2 19174.4 -69230.8)
(-111542 3930.89 -562.875 46740.4 19141.5 91339)
(-146406 -2647.35 745.202 66618.7 18445.4 80113.4)
(-84847.6 -3403.3 1226.35 -105047 18100.9 -93529.7)
(-80001.8 3577.33 -1287.32 -104280 18066.1 -92638.8)
(-112802 2728.41 -783.713 66313 18340.6 80018)
(-155542 -99.8527 894.827 81192.4 16059 70403.4)
(-93048.4 -2012.9 1307.71 -109662 15723.5 -115146)
(-88075.7 2020.36 -1370.09 -108793 15677.7 -114208)
(-120943 155.82 -932.528 81010.5 15915 70321.3)
(-180225 6079.82 936.54 74553.6 12001.3 63315.6)
(-121700 1513.79 1305.26 -122996 11827.6 -135899)
(-116541 -1775.38 -1359.74 -122003 11778.4 -134924)
(-144318 -6098.21 -968.844 74679.4 11839.7 63264.3)
(-215012 17008.7 810.572 407.106 6599.62 77443.2)
(-159337 7447.88 1202.14 -176194 6491.97 -130967)
(-153885 -8172.04 -1233.36 -174198 6452.74 -129977)
(-177411 -17121.6 -829.792 3291.59 6460.83 77418)
(-142223 22172.8 626.318 -146411 2446.8 251385)
(-5983.08 10514.1 1184.93 -232124 2182.77 88189.2)
(-1058.7 -10144.8 -1156.52 -224741 2168.28 87986.2)
(-104588 -21726 -614.899 -126902 2392.07 248916)
(-139951 6092.67 21.5422 110396 9637.22 98618.9)
(-30471.5 -13536.1 260.621 -42247.3 10544.1 -8208.38)
(-28030.1 13004.7 -259.932 -44860.4 10549.3 -8861.54)
(-110354 -4959.66 -27.3791 100281 9674.25 96592.1)
(-140906 -3005.49 150.192 34734.8 11143.9 98533.8)
(-70475.8 -6486.19 456.779 -82610.2 11445.8 -40461.2)
(-65842.1 6810.41 -470.886 -82917.8 11443.7 -39911.6)
(-108597 3229.82 -163.998 33436.7 11150.5 98403.4)
(-142255 -3655.24 287.566 45490.1 11900.7 88839.7)
(-82583.9 -4179.38 560.379 -97848.5 11804.6 -67527.7)
(-77809.3 4509.81 -589.551 -97395.1 11793.3 -66732.9)
(-109501 3741.26 -306.967 44950.6 11872.9 88748.1)
(-144310 -2509.83 400.055 65164.8 11468.1 78756.8)
(-84527.6 -3321.44 628.741 -103419 11237.8 -89474.7)
(-79714.3 3488.97 -666.98 -102672 11217.6 -88601.5)
(-110899 2589.22 -422.457 64819.5 11409.1 78630)
(-153501 -30.5329 475.326 80068.1 9831.95 70332.4)
(-92774.5 -1985.27 666.21 -107437 9644.5 -109677)
(-87830.7 1990.6 -706.866 -106586 9617.95 -108759)
(-119076 86.9564 -497.939 79853.2 9749.48 70208.5)
(-178024 6032.18 492.124 73628.3 7108.45 64777.6)
(-121172 1459.7 662.255 -120613 7043.29 -128906)
(-116035 -1722.86 -698.749 -119632 7015.1 -127953)
(-142261 -6049.16 -511.893 73731.8 7016.27 64674.1)
(-212470 16785.7 421.086 392.945 3761.18 80016.7)
(-158358 7293.12 610.923 -173412 3758.04 -123059)
(-152922 -8019.43 -633.415 -171422 3735.88 -122090)
(-174974 -16896.8 -433.321 3263.84 3682.63 79922.7)
(-140860 21866.5 313.701 -144250 1345.27 251626)
(-7205.68 10343.5 601.035 -228515 1244.1 92905.8)
(-2290.15 -9974.24 -588.975 -221140 1236.05 92678.8)
(-103293 -21417.4 -308.474 -124772 1314.58 249066)
(-138778 6095.14 4.24224 109181 3278.16 97122.5)
(-30566.4 -13369.4 76.47 -42406.8 3529.25 -8587.46)
(-28133.5 12830.8 -76.2604 -45017.9 3531.05 -9239.23)
(-109264 -4969.7 -6.04927 99090.8 3290.37 95108.4)
(-139817 -2922.25 41.0226 34173.2 3754.72 96867)
(-70425.6 -6393.07 133.708 -82348.2 3825.27 -40358.4)
(-65806.9 6707.96 -138.258 -82662.4 3824.79 -39812)
(-107598 3142.48 -45.338 32862.2 3757.47 96740.6)
(-141247 -3574.94 82.3296 44921.9 4008.96 87719)
(-82550.4 -4123.74 164.338 -97336.5 3964.93 -66577.6)
(-77791.4 4446.39 -173.911 -96892.9 3961.38 -65789.7)
(-108584 3658.21 -88.5038 44362.6 4000.5 87621.7)
(-143370 -2451.15 116.323 64543 3865.12 78403.7)
(-84566.6 -3288.91 184.212 -102749 3786.59 -87637.5)
(-79768 3451.83 -197.02 -102011 3780.07 -86773.8)
(-110046 2529.13 -123.591 64177.8 3846.25 78261.9)
(-152578 -2.38189 138.727 79419.3 3294.98 70778.9)
(-92829 -1975.73 194.676 -106681 3235.98 -107007)
(-87898.3 1979.04 -208.536 -105838 3227.33 -106100)
(-118231 58.5926 -146.175 79187.8 3268.3 70632.9)
(-177017 6009.3 143.209 73025.5 2355.11 65956)
(-121100 1436.13 193.148 -119826 2340.04 -125520)
(-115974 -1700.19 -205.751 -118852 2330.88 -124578)
(-141318 -6025.73 -149.785 73117.8 2325.23 65824.2)
(-211300 16687.5 120.941 288.119 1232.84 81543)
(-158076 7229.36 178.194 -172338 1241.5 -119399)
(-152646 -7956.35 -186.184 -170351 1234.34 -118443)
(-173851 -16797.7 -125.073 3152.2 1207.44 81412.9)
(-140217 21734.6 85.7232 -143250 434.619 251945)
(-7883.43 10273.2 174.724 -226889 410.322 95041.5)
(-2971.6 -9903.69 -171.45 -219519 407.738 94801.8)
(-102678 -21284.3 -84.1946 -123786 424.736 249340)
)
;

boundaryField
{
    interface
    {
        type            calculated;
        value           nonuniform List<symmTensor> 
192
(
(-38.4691 0.342953 2.62382 965191 42475.8 276047)
(-40.0967 0.367439 4.26558 600890 7580.04 217767)
(-41.8158 0.139374 4.90911 591036 1393.31 220671)
(-43.0041 -0.302391 5.12224 617467 2525.3 229423)
(-43.4666 -0.706451 5.11603 637546 6320.37 238152)
(-44.494 -1.41056 5.01516 633671 13384.1 246630)
(-42.9941 -1.95263 4.65776 543800 23533.5 250640)
(-46.6681 -4.44695 4.38467 258649 27102.7 259037)
(-37.5221 0.247136 1.28572 698102 9252.75 507717)
(-38.2349 0.295865 2.23304 511175 10389.4 418673)
(-39.2848 0.102905 2.53374 498032 8664.01 414353)
(-40.0855 -0.342021 2.58159 507943 9063.09 426582)
(-40.2539 -0.763673 2.50627 522799 14150.4 442379)
(-41.1391 -1.53494 2.38216 531578 22554.6 459482)
(-39.3385 -2.13198 2.15056 479110 28989.7 477946)
(-43.0763 -4.74384 1.96996 250936 23664.3 544358)
(-40.028 0.211977 1.00547 562513 18562.9 509744)
(-40.6492 0.259926 1.72155 440431 22076.3 465528)
(-41.6796 0.0759144 1.94308 444152 20568.4 457016)
(-42.4931 -0.385399 1.97236 459805 19533.7 463310)
(-42.5915 -0.840367 1.90812 480822 21815.7 476769)
(-43.4056 -1.69087 1.80718 500724 25037.3 496309)
(-41.1754 -2.37019 1.64227 462525 23448.9 530050)
(-44.6682 -5.14919 1.50714 247744 13902.4 635753)
(-40.2625 0.158758 0.607281 494891 21705.3 474879)
(-40.7039 0.183207 1.09953 391551 26244.4 451138)
(-41.52 -0.00325279 1.24438 404405 26120.3 442993)
(-42.2023 -0.465434 1.2499 428620 24678.2 443827)
(-42.1706 -0.933431 1.19085 456888 23863.9 453749)
(-42.8978 -1.8159 1.11029 481957 22000.5 475719)
(-40.5087 -2.53081 1.00724 447019 15936.9 521503)
(-43.9155 -5.34523 0.929165 240113 7404.58 643982)
(-41.0336 0.132803 0.441043 459816 19758 447018)
(-41.4265 0.134442 0.798395 362807 23722.7 429090)
(-42.1454 -0.0625017 0.904774 378773 24710.6 422806)
(-42.7701 -0.530459 0.908359 407813 23573.1 422109)
(-42.6581 -1.0132 0.864592 440374 21240 431102)
(-43.3081 -1.92305 0.804662 467268 17085.7 455835)
(-40.7508 -2.6703 0.733379 433287 10349.7 508221)
(-44.0051 -5.52214 0.67799 233007 4142.23 634390)
(-41.2476 0.112384 0.266429 441201 15345.7 429602)
(-41.5941 0.0946841 0.499367 347302 18061.6 412888)
(-42.2286 -0.112145 0.569573 364128 19195.2 408304)
(-42.798 -0.583575 0.570312 394890 18445.4 408385)
(-42.6244 -1.07428 0.539739 429079 16059 418290)
(-43.2241 -1.99721 0.499168 456474 12001.3 445236)
(-40.5864 -2.76081 0.455756 423329 6599.62 500365)
(-43.7768 -5.62994 0.423995 228074 2446.8 625871)
(-41.5032 0.102314 0.155475 431600 9637.22 419822)
(-41.8341 0.0712358 0.291127 339443 11143.9 403242)
(-42.4238 -0.14365 0.332363 356454 11900.7 399804)
(-42.9627 -0.618673 0.332906 387542 11468.1 401134)
(-42.7511 -1.11557 0.315261 422052 9831.95 412317)
(-43.3141 -2.04757 0.291288 449516 7108.45 440666)
(-40.614 -2.82267 0.266872 417080 3761.18 496703)
(-43.7473 -5.70515 0.247839 225072 1345.27 620948)
(-41.5685 0.0961582 0.045642 427507 3278.16 415449)
(-41.8879 0.0581215 0.0887778 336152 3754.72 398846)
(-42.453 -0.1605 0.10209 353178 4008.96 395975)
(-42.9746 -0.636557 0.102074 384227 3865.12 398088)
(-42.7459 -1.13586 0.09629 418701 3294.98 410061)
(-43.2911 -2.07098 0.088431 446140 2355.11 439070)
(-40.572 -2.85128 0.0812457 414090 1232.84 495345)
(-43.6763 -5.73909 0.0753249 223649 434.619 618844)
(296016 36335.6 -3.62441 978719 -0.886785 -13.2618)
(225894 1152.38 -6.19948 609978 -1.11379 -9.33452)
(228377 -4921.39 -7.34436 600285 -0.99679 -5.27748)
(242297 -3540.47 -7.82575 628338 -0.769073 -3.42317)
(254787 -325.324 -8.02295 649481 -0.665572 -2.80022)
(261219 5964.19 -8.18107 644907 -0.704702 -3.23527)
(257840 16469 -8.3778 552721 -0.850455 -4.94108)
(262442 21072 -9.26016 265465 -1.054 -6.35169)
(552871 -4402.6 -2.10734 809961 -0.52961 -16.9003)
(425205 -5615.92 -4.05653 572204 -0.871117 -16.042)
(416570 -5697.56 -4.85542 537367 -0.829817 -14.6289)
(437955 -4503.78 -5.16129 534609 -0.570364 -14.0509)
(460225 -2280 -5.29012 539733 -0.380505 -13.8203)
(471931 1806.79 -5.45625 538877 -0.271929 -13.9907)
(471834 7905.72 -5.81654 480106 -0.289663 -14.5281)
(525230 10353.1 -6.9637 255802 -0.359478 -14.7902)
(543912 1848.36 -2.06326 794229 -0.390434 -14.132)
(418281 4683.23 -4.01821 559987 -0.731396 -13.4932)
(409281 5294.68 -4.84517 525247 -0.718581 -12.1619)
(430309 4202.71 -5.16771 522190 -0.431623 -11.5701)
(452369 1978.27 -5.29532 527025 -0.180787 -11.3548)
(463886 -2238.2 -5.43808 526015 0.0302387 -11.5202)
(463661 -8646.15 -5.75228 468043 0.141899 -12.1234)
(517538 -9903.38 -6.86476 250306 0.164551 -12.8378)
(295495 -35812.2 -2.20152 931380 -0.319984 -14.3167)
(228882 -1383.32 -4.48574 576053 -0.649416 -13.9637)
(230741 4727.56 -5.52602 565528 -0.64 -12.7842)
(244299 3426.3 -5.95098 592317 -0.32732 -12.3008)
(256738 226.502 -6.11696 612634 -0.0450947 -12.1973)
(263160 -6111.61 -6.30318 607693 0.215992 -12.3776)
(259937 -16672.3 -6.59467 517757 0.402667 -12.8327)
(266738 -20652.2 -7.7791 249797 0.576263 -13.4212)
(-7.10103 0.686279 0.538781 890037 41990.6 232091)
(-4.81512 0.9797 1.10416 536637 7657.39 172887)
(-2.21771 0.812371 1.29723 525931 1447.14 175164)
(-0.755348 0.335462 1.40549 550751 2486.54 183049)
(-0.116254 0.057506 1.50164 569463 6205.09 190884)
(1.43825 -0.335461 1.75992 564704 13195.2 198557)
(1.1312 -0.310582 1.98909 476456 23255.9 201763)
(9.51347 -2.46428 2.59936 207904 26844.3 208078)
(-10.7247 0.272209 -0.325448 626457 10011.6 447091)
(-10.3025 0.454319 -0.364629 448295 10664.6 359471)
(-9.4738 0.392125 -0.462183 435066 8736.23 354226)
(-8.8421 0.12232 -0.482815 443806 8977.25 365060)
(-8.58115 0.0483885 -0.425375 457257 13908.3 379395)
(-7.06758 -0.171144 -0.207261 464749 22171.6 395032)
(-7.03619 0.0711035 0.0788441 413286 28529.7 412048)
(1.16591 -1.88673 0.512292 201922 23395.4 476466)
(-10.993 0.150743 -0.212157 493566 18848.2 449192)
(-10.6947 0.252237 -0.168411 379304 22154.7 405714)
(-10.0558 0.233904 -0.150295 382842 20519.3 396298)
(-9.41627 0.0737763 -0.0967286 397374 19367.1 401177)
(-9.08156 0.123598 -0.00520229 416896 21523.7 413007)
(-7.25434 0.00775565 0.180347 435190 24642.7 430746)
(-6.93846 0.360541 0.37809 397532 23047.9 462518)
(1.69227 -1.65227 0.633639 199093 13718.8 565570)
(-12.2202 0.0660827 -0.223116 427631 21836.2 415775)
(-12.1245 0.108644 -0.182738 331864 26244 392503)
(-11.7936 0.121285 -0.139319 344467 26024.2 383446)
(-11.2543 0.0545483 -0.0778515 367511 24495.4 382893)
(-10.9097 0.208476 0.00196221 394184 23596.4 391110)
(-8.88454 0.185716 0.13496 417448 21675.2 411057)
(-8.27038 0.609128 0.26556 382732 15636.9 454447)
(0.520625 -1.38535 0.420166 191722 7280.18 573774)
(-12.5053 0.0511919 -0.106106 393644 19847.7 388979)
(-12.4024 0.0731647 -0.0313291 304079 23720.2 371443)
(-12.1114 0.103553 0.0419828 319774 24627.6 364204)
(-11.532 0.0841728 0.110083 347608 23421.2 362102)
(-11.1192 0.291316 0.176175 378501 21030.4 369328)
(-8.95295 0.310215 0.261692 403466 16845.2 391884)
(-8.21311 0.750848 0.329236 369515 10138.5 441610)
(0.648306 -1.27354 0.401445 184845 4057.63 564327)
(-12.9087 0.0462182 -0.0714502 375706 15408.5 372216)
(-12.8093 0.0622978 -0.0110571 289150 18066.9 355868)
(-12.5461 0.106079 0.0510051 305690 19141.5 350289)
(-11.9458 0.115926 0.103425 335224 18340.6 348928)
(-11.4893 0.356168 0.149569 367697 15915 357008)
(-9.23533 0.400567 0.202196 393090 11839.7 381675)
(-8.40374 0.84722 0.239602 359862 6460.83 433988)
(0.509331 -1.19145 0.27757 180048 2392.07 555866)
(-13.0292 0.0494004 -0.0268197 366497 9674.25 362808)
(-12.9147 0.0664552 0.0165121 281618 11150.5 346584)
(-12.6412 0.117941 0.0586448 298329 11872.9 342127)
(-12.0135 0.141188 0.0917651 328172 11409.1 341983)
(-11.5245 0.396446 0.118875 360941 9749.48 351297)
(-9.2219 0.450786 0.146267 386360 7016.27 377303)
(-8.35137 0.89646 0.163394 353779 3682.63 430438)
(0.584274 -1.15633 0.178377 177118 1314.58 550955)
(-13.1296 0.0501768 -0.0120046 362585 3290.37 358603)
(-13.0124 0.0683802 0.00150664 278475 3757.47 342353)
(-12.7366 0.12396 0.0155335 295193 4000.5 338452)
(-12.0983 0.153692 0.0264512 324990 3846.25 339074)
(-11.5933 0.415922 0.0354475 357710 3268.3 349155)
(-9.26887 0.475344 0.0442366 383084 2325.23 375791)
(-8.36907 0.920223 0.0501625 350862 1207.44 429123)
(0.573682 -1.13731 0.0549033 175723 424.736 548848)
(263286 9.37161 -21031.8 -5.69293 -0.887273 266697)
(258765 8.53163 -16421.8 -3.95755 -0.682473 553897)
(262712 8.40804 -6172.95 -1.55745 -0.47098 647492)
(258431 8.36781 -765.372 -0.120132 -0.31407 656778)
(251007 8.41039 682.291 0.998505 -0.222886 647147)
(244585 8.43744 626.318 1.77689 -0.139377 638194)
(240430 8.46609 313.701 2.27014 -0.0828052 632916)
(238483 8.47812 85.7232 2.50634 -0.0254599 630645)
(526048 7.0365 -10342.2 -14.2648 -0.154938 257153)
(473178 5.89525 -7911.46 -13.8602 -0.0758273 481825)
(474860 5.54934 -2082.86 -12.908 0.0290729 541933)
(467700 5.41153 1133.12 -12.2519 0.0562972 544656)
(454551 5.37314 1684.64 -11.6794 0.0587147 540108)
(442636 5.34989 1184.93 -11.2677 0.0492255 536808)
(434694 5.3453 601.035 -10.9971 0.0306841 534806)
(430908 5.34198 174.724 -10.8558 0.0114619 533832)
(518243 6.93696 9867.85 -12.3469 0.391447 251476)
(464843 5.81254 8568.18 -11.4869 0.384372 469542)
(466594 5.50273 2391.63 -10.4776 0.367446 528724)
(459531 5.39147 -1003.19 -9.82965 0.300835 531403)
(446417 5.36585 -1624 -9.24946 0.238574 526864)
(434512 5.35013 -1156.52 -8.87026 0.167909 523557)
(426574 5.34878 -588.975 -8.60787 0.100472 521543)
(422788 5.34623 -171.45 -8.48837 0.033126 520562)
(267219 7.81221 20608.2 -12.9875 0.809358 250451)
(260537 6.61277 16608.1 -12.3003 0.654765 518269)
(264359 6.31759 6294.37 -11.5512 0.557438 609242)
(260089 6.16878 820.423 -11.0322 0.438477 618327)
(252607 6.13246 -657.792 -10.5207 0.342496 608652)
(246136 6.10457 -614.899 -10.2074 0.237034 599640)
(241951 6.09897 -308.474 -9.9775 0.142607 594310)
(239991 6.09412 -84.1946 -9.87458 0.0465288 592009)
)
;
    }
    symmetry
    {
        type            symmetry;
    }
    bottom
    {
        type            calculated;
        value           nonuniform List<symmTensor> 
32
(
(-724124 100002 -12698.2 250233 96249.9 -730566)
(-522809 65427.4 -10149.8 73018 586.43 -257197)
(-437331 41597.7 -4334.76 11269.4 8253.84 -145851)
(-398341 31281.7 -1158.34 -10186.2 15680.1 -125697)
(-378913 27633.7 -146.378 -19428.9 16609 -123531)
(-368222 26376 31.8223 -23418.1 13765 -123648)
(-362199 25878.1 21.5422 -24819.5 8912.51 -123630)
(-359415 25678.1 4.24224 -25163.5 3070.21 -123515)
(-256517 -894.564 -5486.02 163869 88597.8 -546412)
(-143600 -8228.85 -3501.17 -12724.4 18633.3 -149267)
(-96096 -15452.1 -708.886 -54177.6 27272.8 -63737.5)
(-78579.4 -17985.9 630.602 -60636.1 27569.6 -50538.2)
(-73244.4 -18043.9 772.812 -62450.1 22584.2 -48997.9)
(-71961.2 -17526.5 517.489 -63643.6 16492.6 -49108.6)
(-71666.2 -17121.5 260.621 -64216.6 10073.1 -49403.1)
(-71566.3 -16932.7 76.47 -64372.1 3394.24 -49587.4)
(-249041 -3197.51 5075.44 162173 87906 -535548)
(-139540 6070.53 3807.18 -15402.7 19020.9 -147888)
(-92423.3 13642.5 808.554 -56622.5 27424.9 -63376.1)
(-75037.5 16191.3 -606.044 -63055.5 27615.6 -50242.9)
(-69789.8 16230 -766.581 -64880.7 22604.4 -48707.7)
(-68561.1 15695.9 -515.68 -66078.7 16505.2 -48826.4)
(-68296.8 15279.5 -259.932 -66652.2 10080.6 -49128.2)
(-68210.8 15085 -76.2604 -66807.4 3396.79 -49316.5)
(-663359 -98040.2 12391.2 253215 94375.5 -685421)
(-472880 -62709.8 10217 71683.2 1566.82 -240017)
(-389887 -38881.3 4331.79 9942.44 8696.86 -131996)
(-352227 -28685.8 1135.93 -11657.8 15882.4 -112401)
(-333653 -25128.1 128.313 -20995.1 16733.6 -110478)
(-323479 -23925.9 -43.0071 -25010.6 13846.6 -110738)
(-317748 -23459.6 -27.3791 -26414.4 8959.39 -110802)
(-315096 -23274.1 -6.04927 -26756.5 3085.52 -110724)
)
;
    }
}


// ************************************************************************* //
