/*--------------------------------*- C++ -*----------------------------------*\
| =========                 |                                                 |
| \\      /  F ield         | OpenFOAM: The Open Source CFD Toolbox           |
|  \\    /   O peration     | Version:  v1912                                 |
|   \\  /    A nd           | Website:  www.openfoam.com                      |
|    \\/     M anipulation  |                                                 |
\*---------------------------------------------------------------------------*/
FoamFile
{
    version     2.0;
    format      ascii;
    class       volScalarField;
    location    "0.91/solid";
    object      T;
}
// * * * * * * * * * * * * * * * * * * * * * * * * * * * * * * * * * * * * * //

dimensions      [0 0 0 1 0 0 0];


internalField   nonuniform List<scalar> 
256
(
291.374
292.031
292.045
291.447
290.851
291.679
291.696
290.94
290.754
291.614
291.633
290.847
290.697
291.579
291.598
290.792
290.616
291.528
291.548
290.713
290.467
291.423
291.443
290.566
290.095
291.097
291.119
290.199
288.982
289.945
289.979
289.119
292.113
292.722
292.727
292.159
291.791
292.586
292.592
291.848
291.731
292.561
292.568
291.79
291.697
292.551
292.557
291.757
291.646
292.534
292.541
291.708
291.542
292.482
292.489
291.606
291.223
292.229
292.237
291.292
290.094
291.096
291.118
290.199
292.305
292.855
292.858
292.347
292.057
292.781
292.785
292.108
292.01
292.768
292.772
292.063
291.981
292.761
292.766
292.035
291.936
292.751
292.756
291.993
291.842
292.71
292.715
291.9
291.541
292.482
292.489
291.606
290.464
291.421
291.442
290.565
292.368
292.878
292.881
292.409
292.143
292.816
292.82
292.193
292.099
292.805
292.809
292.15
292.071
292.799
292.804
292.124
292.028
292.789
292.794
292.082
291.935
292.751
292.756
291.992
291.644
292.534
292.54
291.708
290.61
291.526
291.546
290.711
292.398
292.884
292.888
292.438
292.183
292.826
292.829
292.231
292.14
292.814
292.818
292.19
292.112
292.809
292.813
292.164
292.069
292.799
292.804
292.123
291.978
292.761
292.766
292.034
291.692
292.55
292.557
291.755
290.688
291.574
291.594
290.787
292.415
292.887
292.89
292.455
292.205
292.83
292.833
292.252
292.163
292.819
292.823
292.212
292.135
292.813
292.817
292.186
292.092
292.803
292.808
292.145
292.001
292.766
292.771
292.057
291.719
292.558
292.565
291.782
290.733
291.602
291.622
290.833
292.425
292.889
292.892
292.464
292.217
292.832
292.835
292.264
292.176
292.821
292.825
292.224
292.148
292.815
292.82
292.198
292.105
292.806
292.81
292.158
292.014
292.768
292.773
292.07
291.735
292.562
292.569
291.797
290.76
291.618
291.638
290.859
292.429
292.889
292.892
292.468
292.223
292.833
292.836
292.27
292.181
292.822
292.826
292.23
292.154
292.816
292.821
292.204
292.111
292.807
292.811
292.163
292.02
292.769
292.774
292.075
291.742
292.564
292.571
291.804
290.772
291.625
291.645
290.871
)
;

boundaryField
{
    interface
    {
        type            fixedValue;
        value           nonuniform List<scalar> 
192
(
290.124
289.778
289.671
289.579
289.451
289.239
288.819
287.851
290.895
290.668
290.587
290.513
290.407
290.224
289.826
288.816
291.204
291.025
290.955
290.887
290.787
290.609
290.22
289.232
291.351
291.189
291.123
291.057
290.958
290.783
290.399
289.438
291.433
291.278
291.214
291.149
291.051
290.876
290.498
289.557
291.482
291.33
291.268
291.203
291.104
290.93
290.556
289.63
291.51
291.36
291.298
291.233
291.135
290.962
290.589
289.672
291.522
291.373
291.311
291.247
291.149
290.976
290.605
289.692
290.087
289.745
289.637
289.545
289.417
289.206
288.787
287.823
290.741
290.496
290.409
290.335
290.229
290.046
289.647
288.632
290.786
290.545
290.46
290.387
290.283
290.101
289.704
288.7
290.252
289.924
289.822
289.734
289.61
289.403
288.991
288.055
290.364
290.037
289.937
289.85
289.728
289.522
289.111
288.177
291.107
290.892
290.815
290.747
290.647
290.469
290.081
289.109
291.405
291.237
291.172
291.11
291.015
290.845
290.468
289.519
291.548
291.395
291.334
291.274
291.181
291.014
290.644
289.723
291.626
291.48
291.422
291.362
291.27
291.104
290.74
289.841
291.673
291.53
291.473
291.413
291.322
291.157
290.797
289.913
291.699
291.559
291.501
291.442
291.351
291.187
290.83
289.955
291.711
291.572
291.514
291.455
291.365
291.201
290.845
289.974
287.82
288.781
289.197
289.402
289.521
289.594
289.636
289.656
288.63
289.642
290.039
290.218
290.316
290.375
290.409
290.425
288.698
289.7
290.095
290.274
290.372
290.43
290.464
290.48
288.053
288.988
289.398
289.602
289.72
289.792
289.835
289.855
)
;
    }
    symmetry
    {
        type            symmetry;
    }
    bottom
    {
        type            fixedValue;
        value           uniform 293;
    }
}


// ************************************************************************* //
