/*--------------------------------*- C++ -*----------------------------------*\
| =========                 |                                                 |
| \\      /  F ield         | OpenFOAM: The Open Source CFD Toolbox           |
|  \\    /   O peration     | Version:  v1912                                 |
|   \\  /    A nd           | Website:  www.openfoam.com                      |
|    \\/     M anipulation  |                                                 |
\*---------------------------------------------------------------------------*/
FoamFile
{
    version     2.0;
    format      ascii;
    class       volVectorField;
    location    "0.91/solid";
    object      U;
}
// * * * * * * * * * * * * * * * * * * * * * * * * * * * * * * * * * * * * * //

dimensions      [0 1 -1 0 0 0 0];


internalField   nonuniform List<vector> 
256
(
(1.82749e-08 1.99402e-08 2.36796e-08)
(4.36783e-09 1.33069e-08 2.31568e-08)
(-6.14016e-09 1.26706e-08 2.22917e-08)
(-1.80261e-08 1.78369e-08 2.1105e-08)
(3.49411e-08 1.84691e-08 5.71256e-08)
(8.99102e-09 1.22062e-08 5.61302e-08)
(-1.31907e-08 1.20173e-08 5.43265e-08)
(-3.62517e-08 1.82701e-08 5.17047e-08)
(3.90005e-08 3.24043e-09 8.16179e-08)
(9.55493e-09 4.13264e-10 7.99142e-08)
(-1.65497e-08 9.45444e-10 7.75544e-08)
(-4.30226e-08 5.31028e-09 7.45084e-08)
(3.82016e-08 -1.51143e-08 1.02016e-07)
(7.9759e-09 -1.60442e-08 9.93963e-08)
(-1.86258e-08 -1.47951e-08 9.6639e-08)
(-4.58324e-08 -1.09793e-08 9.37003e-08)
(3.75e-08 -3.53766e-08 1.21603e-07)
(6.12656e-09 -3.61423e-08 1.17998e-07)
(-2.1381e-08 -3.42109e-08 1.14905e-07)
(-4.96704e-08 -2.92983e-08 1.1227e-07)
(4.00176e-08 -6.01838e-08 1.42237e-07)
(5.2373e-09 -6.1039e-08 1.37878e-07)
(-2.61143e-08 -5.84193e-08 1.34466e-07)
(-5.77287e-08 -5.21399e-08 1.31947e-07)
(4.67528e-08 -9.54122e-08 1.63253e-07)
(5.56422e-09 -9.47684e-08 1.5917e-07)
(-3.32364e-08 -9.13571e-08 1.55443e-07)
(-7.10521e-08 -8.50946e-08 1.52032e-07)
(5.25904e-08 -1.39363e-07 1.78161e-07)
(5.34354e-09 -1.36127e-07 1.75567e-07)
(-4.11888e-08 -1.31564e-07 1.71581e-07)
(-8.45573e-08 -1.25622e-07 1.66221e-07)
(1.27479e-08 7.50487e-09 1.09351e-08)
(2.97939e-09 1.69911e-09 1.18582e-08)
(-3.71655e-09 1.4994e-09 1.14596e-08)
(-1.17436e-08 6.34377e-09 9.76119e-09)
(2.51586e-08 6.53505e-10 3.37924e-08)
(6.44011e-09 -4.72182e-09 3.55974e-08)
(-8.14319e-09 -4.54301e-09 3.45052e-08)
(-2.441e-08 1.15522e-09 3.06157e-08)
(2.80526e-08 -1.36521e-08 5.4942e-08)
(6.86573e-09 -1.60087e-08 5.68264e-08)
(-1.02907e-08 -1.52532e-08 5.5244e-08)
(-2.90105e-08 -1.1219e-08 5.032e-08)
(2.70102e-08 -3.03156e-08 7.39209e-08)
(5.49108e-09 -3.10923e-08 7.54704e-08)
(-1.17304e-08 -2.97097e-08 7.35283e-08)
(-3.07838e-08 -2.6009e-08 6.82117e-08)
(2.62776e-08 -4.87748e-08 9.18585e-08)
(3.88989e-09 -4.96499e-08 9.2895e-08)
(-1.40367e-08 -4.76345e-08 9.06482e-08)
(-3.39217e-08 -4.26251e-08 8.52229e-08)
(2.91838e-08 -7.04863e-08 1.09401e-07)
(3.33586e-09 -7.16886e-08 1.09892e-07)
(-1.84995e-08 -6.9027e-08 1.07363e-07)
(-4.17692e-08 -6.24612e-08 1.01911e-07)
(3.7506e-08 -1.00078e-07 1.25096e-07)
(4.28259e-09 -9.95059e-08 1.25226e-07)
(-2.57109e-08 -9.61313e-08 1.22456e-07)
(-5.61184e-08 -8.99595e-08 1.16864e-07)
(4.60088e-08 -1.38219e-07 1.34221e-07)
(4.79892e-09 -1.3344e-07 1.34234e-07)
(-3.39652e-08 -1.29061e-07 1.31363e-07)
(-7.17645e-08 -1.25002e-07 1.25639e-07)
(7.47228e-09 2.6121e-09 5.53312e-09)
(1.50752e-09 -1.88944e-09 7.009e-09)
(-1.75571e-09 -2.04206e-09 6.73857e-09)
(-6.05096e-09 1.40198e-09 4.76204e-09)
(1.53882e-08 -8.3641e-09 2.10594e-08)
(3.56973e-09 -1.26175e-08 2.39283e-08)
(-3.84689e-09 -1.24118e-08 2.31743e-08)
(-1.335e-08 -8.0312e-09 1.89172e-08)
(1.71462e-08 -2.35955e-08 3.83114e-08)
(3.74987e-09 -2.55285e-08 4.1531e-08)
(-4.89112e-09 -2.47946e-08 4.03908e-08)
(-1.5995e-08 -2.14381e-08 3.50399e-08)
(1.6052e-08 -3.94478e-08 5.51206e-08)
(2.56221e-09 -4.02573e-08 5.8208e-08)
(-5.76814e-09 -3.894e-08 5.67573e-08)
(-1.69944e-08 -3.54976e-08 5.09132e-08)
(1.54956e-08 -5.57634e-08 7.08266e-08)
(1.21913e-09 -5.69285e-08 7.35915e-08)
(-7.69044e-09 -5.50121e-08 7.18715e-08)
(-1.96792e-08 -5.00306e-08 6.57984e-08)
(1.88561e-08 -7.37864e-08 8.48294e-08)
(9.95824e-10 -7.54283e-08 8.71817e-08)
(-1.19344e-08 -7.29011e-08 8.52226e-08)
(-2.74246e-08 -6.62478e-08 7.90671e-08)
(2.82634e-08 -9.81169e-08 9.53162e-08)
(2.46837e-09 -9.78578e-08 9.71997e-08)
(-1.91962e-08 -9.46662e-08 9.50649e-08)
(-4.23526e-08 -8.85886e-08 8.8984e-08)
(3.8345e-08 -1.30975e-07 9.90195e-08)
(3.56217e-09 -1.25843e-07 1.00505e-07)
(-2.75932e-08 -1.21698e-07 9.83465e-08)
(-5.90964e-08 -1.1846e-07 9.2532e-08)
(4.65109e-09 5.56679e-10 4.09742e-09)
(7.27644e-10 -2.9212e-09 5.21947e-09)
(-7.37373e-10 -3.10729e-09 5.01894e-09)
(-2.97431e-09 -8.37755e-10 3.5394e-09)
(1.01155e-08 -1.20739e-08 1.57253e-08)
(2.02175e-09 -1.54997e-08 1.78765e-08)
(-1.48936e-09 -1.53902e-08 1.73333e-08)
(-7.26294e-09 -1.2137e-08 1.42071e-08)
(1.14075e-08 -2.80172e-08 2.93368e-08)
(2.15365e-09 -2.9704e-08 3.17181e-08)
(-1.86392e-09 -2.91002e-08 3.08888e-08)
(-8.83998e-09 -2.63477e-08 2.69856e-08)
(1.06046e-08 -4.34408e-08 4.31706e-08)
(1.23727e-09 -4.43709e-08 4.54102e-08)
(-2.40744e-09 -4.32058e-08 4.43337e-08)
(-9.53985e-09 -4.00254e-08 4.00753e-08)
(1.05043e-08 -5.81004e-08 5.59869e-08)
(2.19935e-10 -5.95534e-08 5.79488e-08)
(-4.1063e-09 -5.78077e-08 5.66507e-08)
(-1.21358e-08 -5.29345e-08 5.22146e-08)
(1.43366e-08 -7.34212e-08 6.66052e-08)
(3.01381e-10 -7.54365e-08 6.82491e-08)
(-8.17234e-09 -7.30979e-08 6.67589e-08)
(-1.98628e-08 -6.64804e-08 6.2235e-08)
(2.41628e-08 -9.44402e-08 7.33759e-08)
(2.04321e-09 -9.4647e-08 7.4694e-08)
(-1.5277e-08 -9.16592e-08 7.30743e-08)
(-3.47655e-08 -8.55356e-08 6.85687e-08)
(3.46054e-08 -1.24368e-07 7.44724e-08)
(3.3766e-09 -1.19836e-07 7.55989e-08)
(-2.35123e-08 -1.15896e-07 7.39793e-08)
(-5.14525e-08 -1.12475e-07 6.95827e-08)
(3.55727e-09 -2.41067e-10 3.42831e-09)
(4.77824e-10 -3.17953e-09 4.03013e-09)
(-3.61294e-10 -3.40015e-09 3.88576e-09)
(-1.72139e-09 -1.78304e-09 3.03304e-09)
(8.15801e-09 -1.32286e-08 1.2307e-08)
(1.56457e-09 -1.62556e-08 1.34178e-08)
(-5.54598e-10 -1.62494e-08 1.3033e-08)
(-4.79287e-09 -1.36489e-08 1.12452e-08)
(9.47947e-09 -2.92535e-08 2.25708e-08)
(1.81494e-09 -3.0896e-08 2.37294e-08)
(-6.20486e-10 -3.04329e-08 2.31411e-08)
(-5.98451e-09 -2.80476e-08 2.09198e-08)
(9.09749e-09 -4.42796e-08 3.31009e-08)
(1.1868e-09 -4.53837e-08 3.40892e-08)
(-9.99622e-10 -4.43779e-08 3.33176e-08)
(-6.66146e-09 -4.13759e-08 3.08994e-08)
(9.48666e-09 -5.78942e-08 4.27566e-08)
(4.78849e-10 -5.95973e-08 4.35054e-08)
(-2.57083e-09 -5.80214e-08 4.25649e-08)
(-9.31232e-09 -5.32611e-08 4.00381e-08)
(1.36807e-08 -7.1712e-08 5.03731e-08)
(7.99851e-10 -7.40015e-08 5.0894e-08)
(-6.47612e-09 -7.18384e-08 4.98075e-08)
(-1.69968e-08 -6.53103e-08 4.71963e-08)
(2.35823e-08 -9.11378e-08 5.47323e-08)
(2.66067e-09 -9.17329e-08 5.50753e-08)
(-1.33374e-08 -8.89193e-08 5.3894e-08)
(-3.16041e-08 -8.2761e-08 5.1227e-08)
(3.39386e-08 -1.19743e-07 5.49693e-08)
(4.07638e-09 -1.15893e-07 5.52772e-08)
(-2.13168e-08 -1.12117e-07 5.41007e-08)
(-4.78597e-08 -1.08346e-07 5.14097e-08)
(3.21949e-09 -5.1054e-10 2.64575e-09)
(4.50522e-10 -3.22078e-09 2.90749e-09)
(-2.65092e-10 -3.46629e-09 2.81091e-09)
(-1.28729e-09 -2.15249e-09 2.3842e-09)
(7.65882e-09 -1.33438e-08 9.00277e-09)
(1.57468e-09 -1.62441e-08 9.44646e-09)
(-2.8124e-10 -1.63163e-08 9.19043e-09)
(-3.97811e-09 -1.4023e-08 8.30314e-09)
(9.18474e-09 -2.90918e-08 1.6154e-08)
(1.98846e-09 -3.07981e-08 1.65508e-08)
(-2.30434e-10 -3.04469e-08 1.6159e-08)
(-5.10187e-09 -2.82403e-08 1.50636e-08)
(9.17607e-09 -4.37201e-08 2.34443e-08)
(1.59729e-09 -4.49962e-08 2.36867e-08)
(-5.31216e-10 -4.41192e-08 2.31699e-08)
(-5.84287e-09 -4.12183e-08 2.19795e-08)
(9.94371e-09 -5.67438e-08 3.00564e-08)
(1.12584e-09 -5.86391e-08 3.01203e-08)
(-2.01837e-09 -5.71992e-08 2.94862e-08)
(-8.55381e-09 -5.25304e-08 2.82319e-08)
(1.43728e-08 -6.98832e-08 3.51243e-08)
(1.61577e-09 -7.23533e-08 3.5041e-08)
(-5.78728e-09 -7.03271e-08 3.4305e-08)
(-1.61666e-08 -6.3899e-08 3.29779e-08)
(2.42499e-08 -8.86857e-08 3.78651e-08)
(3.53929e-09 -8.95276e-08 3.76946e-08)
(-1.24293e-08 -8.68452e-08 3.68927e-08)
(-3.04641e-08 -8.07068e-08 3.5488e-08)
(3.44574e-08 -1.167e-07 3.78857e-08)
(4.9914e-09 -1.13312e-07 3.773e-08)
(-2.01849e-08 -1.09655e-07 3.69324e-08)
(-4.63069e-08 -1.05669e-07 3.54713e-08)
(3.1321e-09 -5.77271e-10 1.66909e-09)
(4.74069e-10 -3.20202e-09 1.76627e-09)
(-2.52685e-10 -3.46329e-09 1.71104e-09)
(-1.14552e-09 -2.28055e-09 1.52055e-09)
(7.60253e-09 -1.31523e-08 5.50275e-09)
(1.67674e-09 -1.60363e-08 5.64406e-09)
(-2.24384e-10 -1.61588e-08 5.49782e-09)
(-3.74031e-09 -1.39947e-08 5.10568e-09)
(9.31375e-09 -2.85727e-08 9.71832e-09)
(2.21848e-09 -3.03594e-08 9.80289e-09)
(-1.33028e-10 -3.0082e-08 9.57881e-09)
(-4.88519e-09 -2.79517e-08 9.09828e-09)
(9.55853e-09 -4.28835e-08 1.39745e-08)
(1.98505e-09 -4.42881e-08 1.39565e-08)
(-3.94049e-10 -4.34977e-08 1.36599e-08)
(-5.68583e-09 -4.06492e-08 1.31379e-08)
(1.0565e-08 -5.55998e-08 1.78006e-08)
(1.66521e-09 -5.76215e-08 1.76754e-08)
(-1.8245e-09 -5.62734e-08 1.73101e-08)
(-8.42892e-09 -5.16681e-08 1.6753e-08)
(1.51314e-08 -6.84822e-08 2.06902e-08)
(2.26194e-09 -7.10586e-08 2.04841e-08)
(-5.49592e-09 -6.91238e-08 2.00586e-08)
(-1.59746e-08 -6.27773e-08 1.9452e-08)
(2.49796e-08 -8.70812e-08 2.22157e-08)
(4.22562e-09 -8.80566e-08 2.19701e-08)
(-1.19867e-08 -8.54607e-08 2.15058e-08)
(-3.00504e-08 -7.93654e-08 2.08403e-08)
(3.50804e-08 -1.14825e-07 2.21997e-08)
(5.70066e-09 -1.11686e-07 2.1971e-08)
(-1.959e-08 -1.08109e-07 2.15093e-08)
(-4.56093e-08 -1.04032e-07 2.08021e-08)
(3.11249e-09 -5.83372e-10 5.69684e-10)
(4.91328e-10 -3.18029e-09 5.93529e-10)
(-2.54655e-10 -3.44918e-09 5.75579e-10)
(-1.10142e-09 -2.31581e-09 5.21575e-10)
(7.62019e-09 -1.29907e-08 1.85139e-09)
(1.74037e-09 -1.58821e-08 1.88067e-09)
(-2.16771e-10 -1.60291e-08 1.83315e-09)
(-3.67516e-09 -1.39114e-08 1.72276e-09)
(9.42956e-09 -2.82114e-08 3.24367e-09)
(2.34756e-09 -3.00466e-08 3.25006e-09)
(-1.1182e-10 -2.98055e-08 3.17718e-09)
(-4.84101e-09 -2.77027e-08 3.04258e-09)
(9.79778e-09 -4.23497e-08 4.64062e-09)
(2.19081e-09 -4.38208e-08 4.61165e-09)
(-3.54681e-10 -4.30734e-08 4.51504e-09)
(-5.67194e-09 -4.02475e-08 4.36871e-09)
(1.0917e-08 -5.49353e-08 5.89034e-09)
(1.94373e-09 -5.70187e-08 5.82599e-09)
(-1.75569e-09 -5.57163e-08 5.70674e-09)
(-8.42641e-09 -5.11436e-08 5.54898e-09)
(1.55468e-08 -6.77387e-08 6.82854e-09)
(2.59232e-09 -7.03639e-08 6.73844e-09)
(-5.37696e-09 -6.84747e-08 6.59932e-09)
(-1.59337e-08 -6.21729e-08 6.42411e-09)
(2.53809e-08 -8.62844e-08 7.3198e-09)
(4.57731e-09 -8.73168e-08 7.21831e-09)
(-1.17927e-08 -8.47638e-08 7.06633e-09)
(-2.98987e-08 -7.86992e-08 6.86985e-09)
(3.54304e-08 -1.13919e-07 7.31154e-09)
(6.06476e-09 -1.10887e-07 7.21627e-09)
(-1.93205e-08 -1.07348e-07 7.06515e-09)
(-4.53173e-08 -1.03245e-07 6.85417e-09)
)
;

boundaryField
{
    interface
    {
        type            calculated;
        value           nonuniform List<vector> 
192
(
(2.30655e-08 3.32442e-08 2.19246e-08)
(4.00817e-08 2.36505e-08 5.4031e-08)
(4.45018e-08 4.05549e-09 7.82528e-08)
(4.40841e-08 -1.54895e-08 9.87224e-08)
(4.35449e-08 -3.49227e-08 1.18463e-07)
(4.58744e-08 -5.78707e-08 1.39352e-07)
(5.27742e-08 -9.2269e-08 1.60851e-07)
(5.85032e-08 -1.37956e-07 1.76399e-07)
(1.57523e-08 1.69815e-08 8.23447e-09)
(2.9051e-08 4.47965e-09 2.89042e-08)
(3.2207e-08 -1.31893e-08 4.94785e-08)
(3.13226e-08 -3.07595e-08 6.83836e-08)
(3.06213e-08 -4.82315e-08 8.63574e-08)
(3.34038e-08 -6.76792e-08 1.04111e-07)
(4.24371e-08 -9.58722e-08 1.20473e-07)
(5.21235e-08 -1.36181e-07 1.30659e-07)
(9.10621e-09 8.32723e-09 3.50895e-09)
(1.80224e-08 -5.94565e-09 1.72987e-08)
(2.00941e-08 -2.34297e-08 3.41501e-08)
(1.917e-08 -3.98605e-08 5.10193e-08)
(1.87175e-08 -5.50624e-08 6.68833e-08)
(2.21515e-08 -7.05945e-08 8.11176e-08)
(3.25824e-08 -9.32447e-08 9.19804e-08)
(4.44295e-08 -1.2847e-07 9.61686e-08)
(5.62018e-09 4.24835e-09 3.11868e-09)
(1.23041e-08 -1.03848e-08 1.39178e-08)
(1.40001e-08 -2.78951e-08 2.74202e-08)
(1.34362e-08 -4.36667e-08 4.1432e-08)
(1.35502e-08 -5.71675e-08 5.44847e-08)
(1.76485e-08 -7.00066e-08 6.53114e-08)
(2.87281e-08 -8.9373e-08 7.22057e-08)
(4.10868e-08 -1.21642e-07 7.33708e-08)
(4.15683e-09 2.68776e-09 3.07043e-09)
(1.00235e-08 -1.17481e-08 1.16928e-08)
(1.18022e-08 -2.90187e-08 2.20151e-08)
(1.1723e-08 -4.42779e-08 3.27438e-08)
(1.24159e-08 -5.67485e-08 4.26164e-08)
(1.70048e-08 -6.81881e-08 5.03822e-08)
(2.82921e-08 -8.60733e-08 5.47541e-08)
(4.05847e-08 -1.16933e-07 5.49323e-08)
(3.6322e-09 2.20905e-09 2.53946e-09)
(9.3165e-09 -1.18525e-08 8.86392e-09)
(1.13277e-08 -2.87126e-08 1.61126e-08)
(1.16695e-08 -4.35304e-08 2.35595e-08)
(1.28045e-08 -5.54447e-08 3.0326e-08)
(1.77073e-08 -6.63067e-08 3.54869e-08)
(2.90377e-08 -8.36645e-08 3.82144e-08)
(4.11556e-08 -1.13863e-07 3.81711e-08)
(3.46562e-09 2.10639e-09 1.64235e-09)
(9.15593e-09 -1.16069e-08 5.49311e-09)
(1.1368e-08 -2.80838e-08 9.77954e-09)
(1.1994e-08 -4.25708e-08 1.41299e-08)
(1.34075e-08 -5.42067e-08 1.80439e-08)
(1.8492e-08 -6.48786e-08 2.09837e-08)
(2.98251e-08 -8.20939e-08 2.24984e-08)
(4.18073e-08 -1.11981e-07 2.24429e-08)
(3.41967e-09 2.09981e-09 5.64784e-10)
(9.13387e-09 -1.14114e-08 1.85581e-09)
(1.14512e-08 -2.76671e-08 3.27263e-09)
(1.22155e-08 -4.19779e-08 4.70044e-09)
(1.37606e-08 -5.34981e-08 5.97834e-09)
(1.89284e-08 -6.41228e-08 6.9324e-09)
(3.02597e-08 -8.13135e-08 7.42015e-09)
(4.2174e-08 -1.11074e-07 7.39903e-09)
(1.90215e-08 4.01415e-08 2.62447e-08)
(3.62393e-08 3.29537e-08 5.97235e-08)
(4.0257e-08 1.44631e-08 8.45728e-08)
(3.91934e-08 -5.11802e-09 1.05428e-07)
(3.81688e-08 -2.53213e-08 1.25197e-07)
(4.03701e-08 -4.97713e-08 1.45502e-07)
(4.69332e-08 -8.64312e-08 1.66296e-07)
(5.28229e-08 -1.34584e-07 1.80663e-07)
(4.02075e-09 3.31286e-08 2.49209e-08)
(8.29102e-09 2.63956e-08 5.77274e-08)
(8.53884e-09 1.12299e-08 8.13813e-08)
(6.63148e-09 -6.52312e-09 1.00863e-07)
(4.45197e-09 -2.65219e-08 1.19295e-07)
(3.29444e-09 -5.07459e-08 1.38631e-07)
(3.61177e-09 -8.53459e-08 1.60004e-07)
(3.69857e-09 -1.31109e-07 1.77051e-07)
(-6.65326e-09 3.18251e-08 2.30492e-08)
(-1.42974e-08 2.5833e-08 5.50881e-08)
(-1.79014e-08 1.15237e-08 7.81807e-08)
(-2.00501e-08 -5.45736e-09 9.72351e-08)
(-2.28133e-08 -2.47541e-08 1.15297e-07)
(-2.7597e-08 -4.82848e-08 1.34289e-07)
(-3.5021e-08 -8.20783e-08 1.5532e-07)
(-4.35252e-08 -1.26601e-07 1.72028e-07)
(-1.94692e-08 3.60393e-08 2.06742e-08)
(-3.91e-08 3.1621e-08 5.15587e-08)
(-4.6374e-08 1.58093e-08 7.46302e-08)
(-4.93207e-08 -1.53875e-09 9.41719e-08)
(-5.3174e-08 -1.97364e-08 1.12836e-07)
(-6.12286e-08 -4.21992e-08 1.32116e-07)
(-7.46783e-08 -7.65259e-08 1.51924e-07)
(-8.84761e-08 -1.20995e-07 1.65469e-07)
(-1.68135e-08 3.14063e-08 1.88127e-08)
(-3.54292e-08 2.45192e-08 4.73199e-08)
(-4.24441e-08 7.70554e-09 6.93294e-08)
(-4.54911e-08 -9.31719e-09 8.81937e-08)
(-4.93448e-08 -2.63241e-08 1.06581e-07)
(-5.70568e-08 -4.67943e-08 1.26207e-07)
(-7.02853e-08 -7.83872e-08 1.46486e-07)
(-8.32697e-08 -1.20129e-07 1.61064e-07)
(-9.12432e-09 1.53821e-08 6.76738e-09)
(-2.27492e-08 5.47195e-09 2.48902e-08)
(-2.75505e-08 -9.62549e-09 4.3563e-08)
(-2.93764e-08 -2.4781e-08 6.10021e-08)
(-3.24214e-08 -3.98786e-08 7.7725e-08)
(-3.99981e-08 -5.69119e-08 9.43345e-08)
(-5.47753e-08 -8.24606e-08 1.09689e-07)
(-7.10418e-08 -1.1911e-07 1.19274e-07)
(-2.22908e-09 6.25219e-09 2.56968e-09)
(-1.06348e-08 -5.54518e-09 1.46303e-08)
(-1.35542e-08 -2.05269e-08 2.99971e-08)
(-1.4632e-08 -3.45764e-08 4.56021e-08)
(-1.73013e-08 -4.7423e-08 6.03518e-08)
(-2.49629e-08 -6.05793e-08 7.35903e-08)
(-4.06145e-08 -8.06705e-08 8.36457e-08)
(-5.85329e-08 -1.12338e-07 8.74539e-08)
(1.45904e-09 1.72154e-09 2.45698e-09)
(-4.17121e-09 -1.06705e-08 1.20678e-08)
(-6.12404e-09 -2.57784e-08 2.44828e-08)
(-6.98006e-09 -3.92013e-08 3.7492e-08)
(-9.67179e-09 -5.03537e-08 4.96228e-08)
(-1.74993e-08 -6.08229e-08 5.9628e-08)
(-3.33431e-08 -7.7638e-08 6.58814e-08)
(-5.13528e-08 -1.06342e-07 6.67734e-08)
(3.06139e-09 -1.54484e-10 2.61125e-09)
(-1.40821e-09 -1.25831e-08 1.04239e-08)
(-3.03592e-09 -2.75804e-08 1.99852e-08)
(-3.93726e-09 -4.05439e-08 2.99751e-08)
(-6.77413e-09 -5.06771e-08 3.91425e-08)
(-1.46834e-08 -5.97372e-08 4.62722e-08)
(-3.03561e-08 -7.50451e-08 5.01516e-08)
(-4.79551e-08 -1.02299e-07 5.01232e-08)
(3.67252e-09 -8.36157e-10 2.2402e-09)
(-4.00983e-10 -1.30694e-08 8.03995e-09)
(-1.99227e-09 -2.77741e-08 1.47887e-08)
(-3.00872e-09 -4.03552e-08 2.17355e-08)
(-5.96964e-09 -4.99494e-08 2.8011e-08)
(-1.38835e-08 -5.84213e-08 3.27223e-08)
(-2.93099e-08 -7.31716e-08 3.50995e-08)
(-4.64705e-08 -9.9723e-08 3.49086e-08)
(3.88885e-09 -1.05911e-09 1.47407e-09)
(-6.60877e-11 -1.30597e-08 5.02991e-09)
(-1.69563e-09 -2.74652e-08 9.03302e-09)
(-2.80401e-09 -3.97631e-08 1.30951e-08)
(-5.83699e-09 -4.90958e-08 1.67211e-08)
(-1.37273e-08 -5.73717e-08 1.93937e-08)
(-2.89654e-08 -7.19566e-08 2.06989e-08)
(-4.58055e-08 -9.8166e-08 2.05547e-08)
(3.95749e-09 -1.12168e-09 5.10548e-10)
(3.60247e-11 -1.29765e-08 1.70646e-09)
(-1.62208e-09 -2.72035e-08 3.03152e-09)
(-2.77626e-09 -3.9351e-08 4.36523e-09)
(-5.83958e-09 -4.85781e-08 5.54834e-09)
(-1.37114e-08 -5.68046e-08 6.41388e-09)
(-2.88523e-08 -7.13532e-08 6.83191e-09)
(-4.5531e-08 -9.7421e-08 6.78114e-09)
(5.24849e-08 -1.41967e-07 1.80264e-07)
(4.58333e-08 -1.41446e-07 1.32124e-07)
(3.83147e-08 -1.34562e-07 9.55567e-08)
(3.48352e-08 -1.28532e-07 7.16642e-08)
(3.43814e-08 -1.2413e-07 5.30525e-08)
(3.5029e-08 -1.21147e-07 3.6656e-08)
(3.57178e-08 -1.19296e-07 2.15043e-08)
(3.60946e-08 -1.18405e-07 7.08514e-09)
(3.39377e-09 -1.37708e-07 1.77404e-07)
(2.50946e-09 -1.3445e-07 1.31663e-07)
(1.24269e-09 -1.26892e-07 9.71041e-08)
(1.25862e-09 -1.21618e-07 7.31113e-08)
(2.16971e-09 -1.18096e-07 5.36461e-08)
(3.23006e-09 -1.15719e-07 3.66783e-08)
(4.02163e-09 -1.142e-07 2.13648e-08)
(4.42191e-09 -1.13447e-07 7.01638e-09)
(-4.38151e-08 -1.32096e-07 1.73436e-07)
(-3.60749e-08 -1.29089e-07 1.28897e-07)
(-2.94393e-08 -1.21774e-07 9.50552e-08)
(-2.53527e-08 -1.16705e-07 7.1584e-08)
(-2.32036e-08 -1.13345e-07 5.25405e-08)
(-2.20957e-08 -1.11086e-07 3.59304e-08)
(-2.15037e-08 -1.09643e-07 2.09324e-08)
(-2.12311e-08 -1.08928e-07 6.87494e-09)
(-8.8789e-08 -1.24942e-07 1.6838e-07)
(-7.57255e-08 -1.25013e-07 1.23848e-07)
(-6.2967e-08 -1.18831e-07 8.94002e-08)
(-5.53745e-08 -1.13418e-07 6.70544e-08)
(-5.18263e-08 -1.09503e-07 4.97081e-08)
(-5.02769e-08 -1.06875e-07 3.43927e-08)
(-4.9562e-08 -1.05255e-07 2.01961e-08)
(-4.92554e-08 -1.04478e-07 6.65732e-09)
)
;
    }
    symmetry
    {
        type            symmetry;
    }
    bottom
    {
        type            calculated;
        value           uniform (0 0 0);
    }
}


// ************************************************************************* //
