/*--------------------------------*- C++ -*----------------------------------*\
| =========                 |                                                 |
| \\      /  F ield         | OpenFOAM: The Open Source CFD Toolbox           |
|  \\    /   O peration     | Version:  v1912                                 |
|   \\  /    A nd           | Website:  www.openfoam.com                      |
|    \\/     M anipulation  |                                                 |
\*---------------------------------------------------------------------------*/
FoamFile
{
    version     2.0;
    format      ascii;
    class       volVectorField;
    location    "0.51/solid";
    object      heatFlux;
}
// * * * * * * * * * * * * * * * * * * * * * * * * * * * * * * * * * * * * * //

dimensions      [1 0 -3 0 0 0 0];


internalField   nonuniform List<vector> 
256
(
(-71062.6 61614.6 -75543.9)
(-12648 34136 -72630.5)
(11986.4 33900.4 -71662.6)
(66605.3 60423.3 -72573.4)
(-69507.6 6739.53 -74187)
(-15066.2 3992.97 -73280.6)
(14301 3965.55 -72255.1)
(64812 6630.17 -71077.6)
(-70781 1457.15 -75532.2)
(-15421.9 809.333 -74735.1)
(14623.6 798.996 -73664)
(65978.5 1411.63 -72300.5)
(-72726.8 1633.79 -77503.5)
(-15724.3 884.598 -76723.2)
(14903.3 878.55 -75624.5)
(67825.5 1601.8 -74194.3)
(-75604.7 2801.38 -80396.5)
(-16177.2 1635.46 -79733.2)
(15340.8 1631.57 -78617.4)
(70623 2782.29 -77037.3)
(-80002.4 6612.25 -84837.8)
(-16894.1 4832.21 -84603.5)
(16050.1 4820.96 -83472.6)
(74970.6 6590.48 -81435.8)
(-85887.4 25625.9 -90927.5)
(-17968.5 23913.5 -91916.3)
(17099.1 23780.3 -90765.3)
(80849.3 25279.1 -87469.9)
(-84420.8 90217.7 -90167.6)
(-18739.7 93565.7 -93527.1)
(17415.6 92437.3 -92406.9)
(79251 86851.2 -86831.1)
(-65664.7 31065.6 -16533.2)
(-10991.6 6751.44 -13862.2)
(10708.4 6733.83 -13756.1)
(61363.6 30496.3 -16227.8)
(-66280.1 3682.25 -19833.5)
(-13340.2 992.969 -16936)
(13036.4 992.641 -16806)
(61823.1 3649.13 -19459.6)
(-67678.8 786.908 -20274.7)
(-13681.2 163.454 -17349.2)
(13364.6 161.268 -17213.2)
(63117.3 761.53 -19885.1)
(-69644.9 887.711 -20609.7)
(-13965.8 156.723 -17659.1)
(13634.5 154.269 -17520.4)
(64974.7 861.113 -20214.9)
(-72647.2 1635.46 -21106.1)
(-14414.6 421.632 -18144.9)
(14069 418.998 -18005.2)
(67870.3 1611.7 -20713.3)
(-77494.2 4753.57 -21904)
(-15182.3 2695.88 -18995)
(14824.6 2684.33 -18855.4)
(72622 4719.26 -21520)
(-84662.3 23266.8 -23254.3)
(-16483.8 20615.5 -20610.6)
(16092.4 20475.5 -20472.2)
(79732 22887.3 -22885.8)
(-85928.1 91008.9 -25610)
(-17973.6 91979.7 -23906.1)
(17096.4 90814.2 -23775.3)
(80849.8 87502.7 -25276.4)
(-58303.9 25247.9 -3407.61)
(-9870.81 3337.75 -1658.8)
(9620.79 3338.3 -1649.68)
(54114.4 24735.9 -3371.71)
(-59153.3 2998.03 -4183.91)
(-12038.7 505.968 -2146.92)
(11777.4 508.483 -2135.07)
(54818.7 2972.92 -4138.74)
(-60486.1 680.96 -4269.07)
(-12360.4 86.1897 -2203.15)
(12087.7 84.6084 -2190.78)
(56047 656.33 -4222.63)
(-62379.6 802.395 -4310.33)
(-12635.1 88.9268 -2231.46)
(12347.5 86.5359 -2218.97)
(57825.8 773.583 -4264.53)
(-65324.7 1507.05 -4364.27)
(-13076.2 299.642 -2275.59)
(12772.4 296.635 -2263.22)
(60647.1 1477.25 -4321.3)
(-70169.5 4464.06 -4454.28)
(-13845.5 2366.46 -2365.55)
(13525.1 2353.9 -2353.63)
(65362.2 4418.01 -4417.64)
(-77545.3 21919.9 -4743.26)
(-15186.4 19002.4 -2694.72)
(14823.9 18860.4 -2683.9)
(72625.5 21522.6 -4718.77)
(-80096.3 84966.3 -6593.02)
(-16905 84704.5 -4824.34)
(16045.3 83549.6 -4815.69)
(74974.3 81487.8 -6586.94)
(-53684.1 23474.1 -1210.88)
(-9233.63 2945.72 -212.317)
(8995.53 2949.08 -210.364)
(49595.7 22985.9 -1191.99)
(-54507.8 2820.79 -1444.94)
(-11291.4 448.621 -275.387)
(11044.6 451.549 -272.841)
(50281.1 2798.21 -1421.85)
(-55796.5 660.488 -1466.05)
(-11602.9 78.9108 -281.734)
(11345.1 77.3623 -279.124)
(51466.4 635.74 -1442.57)
(-57656.1 792.512 -1471.72)
(-11874.5 84.2821 -283.646)
(11601.4 81.8269 -281.051)
(53207.7 762.437 -1448.7)
(-60573.2 1491.51 -1477.05)
(-12313.6 287.544 -286.592)
(12023.3 284.339 -284.077)
(55990.5 1458.6 -1455.47)
(-65393.5 4374.58 -1492.24)
(-13081.6 2276.75 -298.64)
(12772.5 2263.65 -296.338)
(60659.9 4321.79 -1473.95)
(-72770.1 21128.1 -1618.87)
(-14424.5 18156.8 -419.805)
(14068.3 18013.4 -418.092)
(67887.1 20718 -1607.8)
(-75774.8 80595.5 -2769.3)
(-16196.3 79892.2 -1621.37)
(15333.8 78740.2 -1621.15)
(70639.1 77122.2 -2771.85)
(-50940 22592 -636.884)
(-8870.29 2850.05 -63.0205)
(8641.12 2855.1 -61.7871)
(46922.3 22122.1 -623.324)
(-51740.8 2742.86 -748.746)
(-10866.6 436.551 -79.2185)
(10630.9 439.723 -77.6068)
(47589.7 2722.34 -732.018)
(-53009.4 654.182 -756.953)
(-11173.4 77.9305 -80.4657)
(10926.9 76.3983 -78.8144)
(48755.6 629.476 -739.888)
(-54855.7 791.394 -757.534)
(-11444.4 84.0686 -80.4794)
(11182.5 81.583 -78.8362)
(50481.2 760.685 -740.701)
(-57760.6 1486.53 -758.006)
(-11883.2 284.648 -80.619)
(11603.5 281.349 -79.014)
(53245.1 1451.99 -741.942)
(-62557.1 4322.24 -766)
(-12649.6 2233.25 -84.8506)
(12349.8 2219.88 -83.3518)
(57878 4265.68 -751.727)
(-69884.5 20642.8 -844.994)
(-13985.6 17679.7 -148.917)
(13635.9 17535.6 -147.73)
(65033.6 20224.7 -834.885)
(-73018.8 77821 -1553.17)
(-15756.8 76984.7 -842.973)
(14894.8 75832.4 -842.687)
(67880.9 74343.6 -1551.85)
(-49294.4 22088.4 -362.044)
(-8658.53 2803.48 -32.0175)
(8435.22 2809.69 -31.2121)
(45318.6 21630.5 -353.488)
(-50083.5 2700.72 -423.214)
(-10620.2 431.176 -39.7172)
(10391.8 434.522 -38.6555)
(45977.3 2681.64 -412.53)
(-51343.1 651.699 -427.06)
(-10924.7 77.65 -40.2081)
(10685.7 76.1329 -39.1165)
(47134.6 627.058 -416.121)
(-53183.9 791.459 -426.78)
(-11195.8 84.1288 -40.1109)
(10941.2 81.6273 -39.0226)
(48852.9 760.384 -415.968)
(-56081.5 1483.04 -426.904)
(-11634.6 283.173 -40.0988)
(11361.9 279.823 -39.0314)
(51605.2 1447.57 -416.535)
(-60856.4 4287.6 -432.812)
(-12399 2208.45 -42.429)
(12105.6 2194.93 -41.4193)
(56208.8 4228.85 -423.462)
(-68129.6 20340.9 -483.074)
(-13727.2 17398.6 -78.8459)
(13382.3 17254.1 -77.9993)
(63296.6 19917.9 -476.112)
(-71284 76067.9 -912.76)
(-15485.8 75201.6 -483.779)
(14624.9 74048.6 -483.413)
(66142.2 72586 -911.046)
(-48349.8 21806.8 -188.859)
(-8539.46 2778.31 -16.2777)
(8319.65 2785.23 -15.8248)
(44397.3 21356.1 -184.191)
(-49133.1 2677.85 -220.108)
(-10482.1 428.361 -20.1057)
(10258.1 431.819 -19.5048)
(45051.8 2659.7 -214.222)
(-50388.4 650.616 -221.895)
(-10785.5 77.5368 -20.3283)
(10551 76.0312 -19.7087)
(46204.9 626.038 -215.847)
(-52226.6 791.55 -221.622)
(-11056.7 84.178 -20.2621)
(10806.6 81.668 -19.6436)
(47919.5 760.271 -215.636)
(-55119.1 1480.5 -221.785)
(-11495.4 282.33 -20.2571)
(11227.1 278.952 -19.6499)
(50664.3 1444.5 -216.034)
(-59877.7 4266.07 -225.528)
(-12258.2 2194.5 -21.4979)
(11968.8 2180.91 -20.9203)
(55247.1 4206.1 -220.314)
(-67109.4 20162.9 -253.661)
(-13580.5 17238.3 -40.5374)
(13238.7 17093.6 -40.0391)
(62285.7 19737.1 -249.689)
(-70254.1 75022 -486.575)
(-15327.5 74155.5 -255.272)
(14467.6 73002 -255.007)
(65108.7 71536.6 -485.388)
(-47916.2 21679.5 -58.8392)
(-8485.5 2767.1 -5.0215)
(8267.31 2774.36 -4.87552)
(43974.1 21232.1 -57.3587)
(-48697.1 2667.68 -68.4776)
(-10419.6 427.125 -6.19148)
(10197.7 430.638 -5.99716)
(44626.8 2649.99 -66.6005)
(-49950.6 650.185 -69.0056)
(-10722.5 77.4935 -6.25688)
(10490.2 75.994 -6.05611)
(45778.2 625.644 -67.0721)
(-51787.7 791.569 -68.9086)
(-10993.8 84.2 -6.23478)
(10745.8 81.6861 -6.03433)
(47491.1 760.196 -66.9941)
(-54677.5 1479.14 -68.9861)
(-11432.4 281.937 -6.23483)
(11166.2 278.546 -6.03805)
(50232.1 1442.89 -67.1472)
(-59427.5 4255.72 -70.2681)
(-12194.4 2188.17 -6.62722)
(11906.8 2174.54 -6.43979)
(54804.1 4195.19 -68.5992)
(-66637.2 20079.8 -79.3351)
(-13513.6 17164.9 -12.5709)
(13173.2 17020 -12.4074)
(61817.2 19652.8 -78.0559)
(-69772 74530.6 -153.282)
(-15254.2 73668.1 -80.0832)
(14394.8 72514.2 -79.9887)
(64624.3 71043.3 -152.879)
)
;

boundaryField
{
    interface
    {
        type            calculated;
        value           nonuniform List<vector> 
192
(
(-117044 61614.6 -75543.9)
(-109139 6739.53 -74187)
(-110988 1457.15 -75532.2)
(-114282 1633.79 -77503.5)
(-119137 2801.38 -80396.5)
(-126501 6612.25 -84837.8)
(-136142 25625.9 -90927.5)
(-131913 90217.7 -90167.6)
(-109365 31065.6 -16533.2)
(-105897 3682.25 -19833.5)
(-108014 786.908 -20274.7)
(-111380 887.711 -20609.7)
(-116489 1635.46 -21106.1)
(-124650 4753.57 -21904)
(-136404 23266.8 -23254.3)
(-136216 91008.9 -25610)
(-96868.6 25247.9 -3407.61)
(-94225.5 2998.03 -4183.91)
(-96248.8 680.96 -4269.07)
(-99488.6 802.395 -4310.33)
(-104499 1507.05 -4364.27)
(-112654 4464.06 -4454.28)
(-124745 21919.9 -4743.26)
(-126672 84966.3 -6593.02)
(-88900.9 23474.1 -1210.88)
(-86426.2 2820.79 -1444.94)
(-88381.4 660.488 -1466.05)
(-91559.6 792.512 -1471.72)
(-96518.4 1491.51 -1477.05)
(-104626 4374.58 -1492.24)
(-116717 21128.1 -1618.87)
(-119446 80595.5 -2769.3)
(-84138 22592 -636.884)
(-81739.7 2742.86 -748.746)
(-83664.1 654.182 -756.953)
(-86817 791.394 -757.534)
(-91751.9 1486.53 -758.006)
(-99816 4322.24 -766)
(-111822 20642.8 -844.994)
(-114813 77821 -1553.17)
(-81269.2 22088.4 -362.044)
(-78916.7 2700.72 -423.214)
(-80827.6 651.699 -427.06)
(-83969.4 791.459 -426.78)
(-88889.6 1483.04 -426.904)
(-96914.6 4287.6 -432.812)
(-108828 20340.9 -483.074)
(-111885 76067.9 -912.76)
(-79617.5 21806.8 -188.859)
(-77291.3 2677.85 -220.108)
(-79195.8 650.616 -221.895)
(-82332.1 791.55 -221.622)
(-87242.5 1480.5 -221.785)
(-95238.1 4266.07 -225.528)
(-107080 20162.9 -253.661)
(-110142 75022 -486.575)
(-78858.1 21679.5 -58.8392)
(-76543.8 2667.68 -68.4776)
(-78445.8 650.185 -69.0056)
(-81579.6 791.569 -68.9086)
(-86484.9 1479.14 -68.9861)
(-94464.8 4255.72 -70.2681)
(-106269 20079.8 -79.3351)
(-109324 74530.6 -153.282)
(-71062.6 61614.6 -123224)
(-69507.6 6739.53 -115139)
(-70781 1457.15 -117087)
(-72726.8 1633.79 -120432)
(-75604.7 2801.38 -125323)
(-80002.4 6612.25 -132769)
(-85887.4 25625.9 -142668)
(-84420.8 90217.7 -138710)
(-12648 34136 -120514)
(-15066.2 3992.97 -116539)
(-15421.9 809.333 -118723)
(-15724.3 884.598 -122132)
(-16177.2 1635.46 -127264)
(-16894.1 4832.21 -135466)
(-17968.5 23913.5 -147357)
(-18739.7 93565.7 -146717)
(11986.4 33900.4 -118775)
(14301 3965.55 -114727)
(14623.6 798.996 -116832)
(14903.3 878.55 -120191)
(15340.8 1631.57 -125290)
(16050.1 4820.96 -133462)
(17099.1 23780.3 -145312)
(17415.6 92437.3 -144721)
(66605.3 60423.3 -117844)
(64812 6630.17 -109604)
(65978.5 1411.63 -111336)
(67825.5 1601.8 -114537)
(70623 2782.29 -119328)
(74970.6 6590.48 -126679)
(80849.3 25279.1 -136451)
(79251 86851.2 -132686)
(109023 60423.3 -72573.4)
(100766 6630.17 -71077.6)
(102440 1411.63 -72300.5)
(105567 1601.8 -74194.3)
(110283 2782.29 -77037.3)
(117556 6590.48 -81435.8)
(127196 25279.1 -87469.9)
(123120 86851.2 -86831.1)
(101292 30496.3 -16227.8)
(97556.3 3649.13 -19459.6)
(99486.6 761.53 -19885.1)
(102659 861.113 -20214.9)
(107579 1611.7 -20713.3)
(115568 4719.26 -21520)
(127232 22887.3 -22885.8)
(127200 87502.7 -25276.4)
(88984.7 24735.9 -3371.71)
(86086.1 2972.92 -4138.74)
(87921.1 656.33 -4222.63)
(90956.9 773.583 -4264.53)
(95747.1 1477.25 -4321.3)
(103669 4418.01 -4417.64)
(115576 21522.6 -4718.77)
(117568 81487.8 -6586.94)
(81200.3 22985.9 -1191.99)
(78479.8 2798.21 -1421.85)
(80248.5 635.74 -1442.57)
(83216.1 762.437 -1448.7)
(87935.4 1458.6 -1455.47)
(95772 4321.79 -1473.95)
(107612 20718 -1607.8)
(110321 77122.2 -2771.85)
(76563.9 22122.1 -623.324)
(73926.1 2722.34 -732.018)
(75665.2 629.476 -739.888)
(78603 760.685 -740.701)
(83286 1451.99 -741.942)
(91055.4 4265.68 -751.727)
(102771 20224.7 -834.885)
(105683 74343.6 -1551.85)
(73769.3 21630.5 -353.488)
(71181 2681.64 -412.53)
(72906.9 627.058 -416.121)
(75830.2 760.384 -415.968)
(80490.7 1447.57 -416.535)
(88206.6 4228.85 -423.462)
(99805.6 19917.9 -476.112)
(102746 72586 -911.046)
(72158.4 21356.1 -184.191)
(69598.1 2659.7 -214.222)
(71317.8 626.038 -215.847)
(74233.4 760.271 -215.636)
(78879.4 1444.5 -216.034)
(86557.6 4206.1 -220.314)
(98071.7 19737.1 -249.689)
(100994 71536.6 -485.388)
(71417 21232.1 -57.3587)
(68869.3 2649.99 -66.6005)
(70586.4 625.644 -67.0721)
(73498.6 760.196 -66.9941)
(78137.2 1442.89 -67.1472)
(85796 4195.19 -68.5992)
(97266.1 19652.8 -78.0559)
(100171 71043.3 -152.879)
(-84420.8 138794 -90167.6)
(-85928.1 142814 -25610)
(-80096.3 133002 -6593.02)
(-75774.8 125687 -2769.3)
(-73018.8 121013 -1553.17)
(-71284 118048 -912.76)
(-70254.1 116274 -486.575)
(-69772 115439 -153.282)
(-18739.7 146785 -93527.1)
(-17973.6 147475 -23906.1)
(-16905 135654 -4824.34)
(-16196.3 127560 -1621.37)
(-15756.8 122617 -842.973)
(-15485.8 119566 -483.779)
(-15327.5 117769 -255.272)
(-15254.2 116929 -80.0832)
(17415.6 144775 -92406.9)
(17096.4 145404 -23775.3)
(16045.3 133606 -4815.69)
(15333.8 125520 -1621.15)
(14894.8 120578 -842.687)
(14624.9 117527 -483.413)
(14467.6 115728 -255.007)
(14394.8 114888 -79.9887)
(79251 132723 -86831.1)
(80849.8 136513 -25276.4)
(74974.3 126778 -6586.94)
(70639.1 119489 -2771.85)
(67880.9 114817 -1551.85)
(66142.2 111850 -911.046)
(65108.7 110073 -485.388)
(64624.3 109236 -152.879)
)
;
    }
    symmetry
    {
        type            symmetry;
    }
    bottom
    {
        type            calculated;
        value           nonuniform List<vector> 
32
(
(-71062.6 111385 -75543.9)
(-65664.7 55658.7 -16533.2)
(-58303.9 45252.4 -3407.61)
(-53684.1 42028.3 -1210.88)
(-50940 40408.9 -636.884)
(-49294.4 39480.8 -362.044)
(-48349.8 38960.7 -188.859)
(-47916.2 38725.3 -58.8392)
(-12648 61222.8 -72630.5)
(-10991.6 11729 -13862.2)
(-9870.81 5774 -1658.8)
(-9233.63 5093.77 -212.317)
(-8870.29 4924.73 -63.0205)
(-8658.53 4841.69 -32.0175)
(-8539.46 4796.66 -16.2777)
(-8485.5 4776.58 -5.0215)
(11986.4 60793.5 -71662.6)
(10708.4 11692.5 -13756.1)
(9620.79 5769.13 -1649.68)
(8995.53 5093.77 -210.364)
(8641.12 4927.68 -61.7871)
(8435.22 4846.63 -31.2121)
(8319.65 4802.83 -15.8248)
(8267.31 4783.33 -4.87552)
(66605.3 109168 -72573.4)
(61363.6 54562.7 -16227.8)
(54114.4 44257.2 -3371.71)
(49595.7 41075.9 -1191.99)
(46922.3 39489.2 -623.324)
(45318.6 38582.6 -353.488)
(44397.3 38075.2 -184.191)
(43974.1 37845.8 -57.3587)
)
;
    }
}


// ************************************************************************* //
