/*--------------------------------*- C++ -*----------------------------------*\
| =========                 |                                                 |
| \\      /  F ield         | OpenFOAM: The Open Source CFD Toolbox           |
|  \\    /   O peration     | Version:  v1912                                 |
|   \\  /    A nd           | Website:  www.openfoam.com                      |
|    \\/     M anipulation  |                                                 |
\*---------------------------------------------------------------------------*/
FoamFile
{
    version     2.0;
    format      ascii;
    class       volScalarField;
    location    "0.51/solid";
    object      sigmaHyd;
}
// * * * * * * * * * * * * * * * * * * * * * * * * * * * * * * * * * * * * * //

dimensions      [1 -1 -2 0 0 0 0];


internalField   nonuniform List<scalar> 
256
(
-717840
-370711
-366926
-693508
-977169
-565986
-560949
-947629
-997845
-591148
-585847
-967282
-1.00858e+06
-600665
-595195
-977228
-1.0374e+06
-619262
-613683
-1.00544e+06
-1.10264e+06
-665026
-659382
-1.07032e+06
-1.28381e+06
-815564
-809431
-1.25041e+06
-1.86882e+06
-1.36107e+06
-1.35014e+06
-1.82281e+06
-349948
-81301.4
-81828.6
-337062
-517758
-186942
-186661
-501158
-536733
-213176
-212736
-519482
-544951
-222385
-221867
-527151
-563000
-231640
-231082
-544682
-607178
-255424
-254848
-588436
-753096
-362672
-361617
-733092
-1.28423e+06
-815621
-809383
-1.25043e+06
-275545
-42502.9
-43238.4
-263184
-393540
-103431
-103596
-378281
-407561
-123813
-123856
-391795
-415416
-132394
-132372
-399123
-431784
-140289
-140225
-414918
-471705
-159815
-159716
-454245
-607269
-255024
-254399
-588218
-1.10312e+06
-664643
-658799
-1.06997e+06
-256506
-41666.1
-42296.1
-244002
-358573
-90338.9
-90458.8
-343533
-369673
-106779
-106806
-354235
-377079
-114328
-114300
-361147
-393065
-121775
-121709
-376537
-431836
-140245
-140132
-414619
-562726
-230731
-230068
-543718
-1.0369e+06
-617586
-611685
-1.00353e+06
-247695
-42778
-43324.4
-235068
-344290
-87563.7
-87632.3
-329348
-354082
-101953
-101950
-338818
-361042
-108605
-108559
-345318
-376700
-115598
-115518
-360378
-414808
-133503
-133375
-397752
-542974
-221645
-220955
-524018
-1.00423e+06
-596410
-590464
-970740
-242356
-43429.5
-43917.4
-229616
-336634
-86633.6
-86666
-321718
-345876
-100028
-100002
-330685
-352517
-106104
-106045
-336890
-367889
-112744
-112656
-351669
-405545
-130308
-130173
-388571
-532069
-217201
-216497
-513136
-985354
-584858
-578887
-951783
-239122
-43752.3
-44202.2
-226299
-332275
-86250.4
-86258.6
-317353
-341280
-99179.8
-99138.1
-326110
-347727
-104939
-104870
-332136
-362901
-111361
-111267
-346723
-400276
-128734
-128595
-383336
-525857
-214957
-214247
-506928
-974413
-578434
-572449
-940784
-237575
-43877.9
-44309
-224707
-330240
-86097.7
-86093.7
-315309
-339151
-98842.1
-98792
-323984
-345508
-104464
-104390
-329927
-360583
-110785
-110688
-344418
-397825
-128074
-127931
-380895
-522973
-213997
-213283
-504042
-969305
-575505
-569513
-935645
)
;

boundaryField
{
    interface
    {
        type            zeroGradient;
    }
    symmetry
    {
        type            symmetry;
    }
    bottom
    {
        type            zeroGradient;
    }
}


// ************************************************************************* //
