/*--------------------------------*- C++ -*----------------------------------*\
| =========                 |                                                 |
| \\      /  F ield         | OpenFOAM: The Open Source CFD Toolbox           |
|  \\    /   O peration     | Version:  v1912                                 |
|   \\  /    A nd           | Website:  www.openfoam.com                      |
|    \\/     M anipulation  |                                                 |
\*---------------------------------------------------------------------------*/
FoamFile
{
    version     2.0;
    format      ascii;
    class       volSymmTensorField;
    location    "0.51/solid";
    object      sigma;
}
// * * * * * * * * * * * * * * * * * * * * * * * * * * * * * * * * * * * * * //

dimensions      [1 -1 -2 0 0 0 0];


internalField   nonuniform List<symmTensor> 
256
(
(-214657 21275 -8371.54 380201 22999.3 -230589)
(54776.8 -8598.59 -3397.54 239821 22891.2 -258801)
(56073.8 10392.8 3333.83 237604 23153.8 -254579)
(-192780 -19847.2 8409.82 375048 23965.9 -215885)
(-249704 -1282.17 -12400.6 112501 708.199 -261686)
(-39406.9 -4570.04 -5469.74 57013.5 1999.23 -303296)
(-37355.8 6311.84 5508.05 55866.3 2221.3 -298704)
(-225527 2074.05 12507.5 113320 1474.26 -245837)
(-251348 -3648.39 -13208.5 114713 -1857.05 -262962)
(-48436.3 -3341.46 -5939.41 33253.2 -1564.56 -310861)
(-46420 4741.1 6042.65 32318.1 -1414.62 -306146)
(-226814 4220.91 13345.2 115944 -1326.31 -246805)
(-251339 -2066.36 -13620.3 132668 -499.199 -265150)
(-40741.9 -2274.72 -6142.37 28039.8 -647.166 -316325)
(-38731.5 3314.51 6260.74 27239.7 -541.684 -311515)
(-226417 2505.48 13767.2 134163 -112.505 -248714)
(-259824 -200.932 -14016.9 139545 1716.09 -275434)
(-38250.9 -1087.09 -6351.29 23224.4 1489.39 -329013)
(-36211.7 1816.24 6465.98 22479.1 1573.08 -324131)
(-234512 514.217 14169.4 141242 2023.47 -258752)
(-282329 2967.27 -14345.2 124087 5450.61 -297673)
(-50615.9 792.151 -6545.94 6309.03 5337.4 -355142)
(-48584.5 -389.289 6658.2 5588.07 5412.28 -350202)
(-256761 -2818.91 14507.5 125932 5716.06 -280753)
(-323018 9418.6 -14287.5 20535.8 11887 -336541)
(-84988.1 3928.85 -6542.7 -83487.3 12361 -402054)
(-82977.2 -4002.27 6663.5 -83560.2 12430.6 -396997)
(-297374 -9518.68 14463.1 23959.4 12117.8 -319213)
(-268166 13436.9 -13369.3 -282240 15952.1 -282100)
(6167.83 6207.69 -6127.11 -350243 17028.2 -349984)
(8265.5 -6209.31 6247.65 -345235 17086.5 -344977)
(-242755 -13535.6 13535.8 -265212 16126.8 -265133)
(-237822 13276.6 -6145.22 191891 -7470.23 39689)
(-32852 -10043.9 -1624.37 47359.9 3037.43 -38494)
(-31967.2 11079.1 1923.58 44662.4 3784.42 -38946.2)
(-216267 -12155.8 6310.41 186240 -5178.84 41891.1)
(-276824 -2442.98 -9092.99 40702.3 -384.308 -30833.9)
(-118222 -4917.82 -3333.31 -36642.7 4890.5 -119522)
(-116380 5823.98 3837.51 -38277.8 5373.47 -119521)
(-252875 2851.69 9347.09 40645.2 1188.2 -27070.3)
(-282905 -3759.51 -9384.58 29389.1 -17.3593 -36911.6)
(-134847 -3447.44 -3559.88 -72675.7 1671.31 -137615)
(-132996 4085.95 4133.43 -73863.7 2016.25 -137665)
(-258530 3994.77 9663.44 30213.7 1151.64 -33393.8)
(-286237 -2199.77 -9452.72 30938.4 520.469 -34219.8)
(-133736 -2391.87 -3523.81 -92951.8 925.781 -141767)
(-131882 2811.34 4107.44 -93949.8 1192.86 -141872)
(-261421 2375.2 9738.84 32132.7 1438.37 -30876.8)
(-297252 -366.389 -9634.29 30156.1 3391.4 -35557)
(-135609 -1248.64 -3607.1 -105694 3438.26 -147472)
(-133721 1485.46 4180.15 -106653 3658.04 -147620)
(-271938 477.302 9924.53 31511.9 4140.24 -32300)
(-323449 2905.76 -9782.63 16208.2 7915.25 -46299.9)
(-151775 634.226 -3730.54 -121506 7876.87 -162670)
(-149888 -613.317 4291.99 -122458 8060.52 -162875)
(-297698 -2912.23 10079.9 17672.1 8531.9 -43115.9)
(-371830 9765.87 -9681.82 -71883.1 11707.2 -72710)
(-190671 3891.15 -3750.4 -194336 11799 -194672)
(-188798 -4213.17 4283.02 -194616 11934 -194859)
(-345816 -9975.79 9977.07 -68794.9 12162.1 -69401.7)
(-323283 14326.9 -9292.51 -336681 11992 20280.5)
(-84983.9 6588.36 -3715.57 -402230 12441.2 -83161.7)
(-82935.4 -6639.44 4121.63 -397125 12506.5 -83104.1)
(-297410 -14463.6 9528.19 -319161 12202.8 24002.4)
(-206673 8125.33 -2497.66 141400 5634.32 87121.4)
(-28673.1 -12041.2 -139.042 8302.05 14923.6 1124.86)
(-27761.7 12504.3 385.8 5821.57 15486 396.268)
(-185409 -7264.09 2578.76 136785 7368.28 88895.1)
(-230524 -2904.76 -3465.21 42245.8 8172.85 52767.7)
(-84577.1 -5329.9 -693.533 -35077.8 12824.5 -48569.2)
(-82789.1 5789.1 1100.68 -36751.2 13293.5 -49045.3)
(-207113 3135.84 3617.1 42094.9 9655.32 55547.7)
(-234999 -3550.63 -3283.63 41584.7 6759.5 44066.9)
(-97077.8 -3421.91 -661.15 -58181.3 8318.89 -69968.4)
(-95280 3687.91 1089.36 -59453.1 8707.45 -70528.2)
(-211186 3636.94 3450.53 42115.5 8005.68 46477.5)
(-238551 -2155.03 -3097.25 44944.2 5709.12 43539.2)
(-96395.5 -2424.67 -517.988 -74349.4 6109.55 -77904.1)
(-94587.6 2542.2 928.423 -75430.3 6437.41 -78549.9)
(-214272 2211.21 3261.21 45829.8 6764.2 45669.1)
(-249394 -398.545 -3051.5 45841.6 6860.15 41713.1)
(-98478.5 -1361.17 -486.559 -84691.6 6926.71 -84816.1)
(-96621.1 1368.2 874.896 -85723.1 7206.66 -85533.7)
(-224532 422.195 3211.31 46914.8 7753.96 43672.3)
(-275129 2953.48 -3020.53 36411.4 8890.07 32811.2)
(-113909 541.465 -517.453 -95819.2 8855.05 -98711.5)
(-112027 -676.759 883.574 -96824.3 9086.97 -99501)
(-249657 -3015.68 3177.91 37651.9 9626.27 34661.2)
(-323510 9858.72 -2943.82 -44510.1 8660.6 14532.5)
(-151185 3843.32 -564.293 -161216 8575.57 -122308)
(-149282 -4247.69 873.372 -161519 8738.44 -123056)
(-297507 -10094.9 3085.63 -41551.7 9188.29 16565.4)
(-282630 14374.7 -2936.34 -297650 5875.36 124107)
(-49981.6 6573.6 -620.818 -355038 5725.46 7276.58)
(-47894.2 -6638.65 745.118 -350001 5786.67 6821.72)
(-256569 -14514.4 3003.78 -280395 6079.85 126651)
(-187699 6007.64 -756.233 121154 9704.01 85056.6)
(-25945.2 -12626.5 471.037 -3964.73 15192.8 419.666)
(-25031.3 12727.6 -256.43 -6183.23 15597 -165.415)
(-166747 -5352.7 808.997 117576 10957.1 87338.5)
(-205222 -2923.4 -881.621 36313.6 11607.5 65712.5)
(-70216.8 -5397.37 584.47 -39714.1 14384.9 -35664.7)
(-68464.9 5587.32 -223.783 -41230 14764.3 -36008.6)
(-182274 3046.41 990.043 36553.4 12787.2 68888.1)
(-208669 -3248.22 -600.046 41865.4 10492.4 57374.5)
(-79856.2 -3299.24 739.682 -55124.2 11427.6 -56203)
(-78088.3 3363.38 -371.736 -56325.7 11771.5 -56630.9)
(-185338 3259.2 718.95 42512.5 11565.8 60158.3)
(-212360 -1985.95 -371.091 49942.1 8909.26 53242.5)
(-79136.3 -2356.94 886.582 -65062.7 9119.14 -67444.2)
(-77351.4 2325.11 -549.013 -66110.1 9427.02 -67964)
(-188549 1985.54 482.445 50838.5 9871.42 55715.5)
(-223272 -328.754 -258.43 54111.2 8227.84 48994.1)
(-81475.1 -1371.96 947.175 -71555.7 8244.45 -76819.2)
(-79632.8 1276.52 -641.066 -72560.2 8515.02 -77421.7)
(-198826 314.65 360.109 55176.3 9069.36 51259.3)
(-248826 2984.03 -207.723 46526.6 7617.65 40715.6)
(-96773.5 487.024 936.755 -80845.9 7602.02 -90209)
(-94892.2 -681.607 -663.793 -81817.9 7825.93 -90886.5)
(-223660 -3064.62 299.691 47783.7 8314.67 42861.4)
(-296621 9737.12 -217.021 -32531.3 5257.8 28094.7)
(-133015 3710.54 860.179 -144847 5198.86 -108098)
(-131088 -4142.41 -657.978 -145112 5352.19 -108718)
(-270738 -9976.28 285.807 -29523 5749.24 30461.5)
(-259187 14076.9 -298.761 -274897 2731.62 141919)
(-35053.2 6379.94 806.145 -328317 2501 25272.9)
(-32929.7 -6457.93 -788.8 -323280 2552.57 24962.8)
(-233043 -14217.2 293.669 -257690 2906.87 144825)
(-177049 5319.6 -206.988 111770 9186.67 79859.5)
(-25420.1 -12475.6 473.951 -8773.13 11967.4 -1802.14)
(-24521 12362.4 -302.423 -10785.6 12254.8 -2272.6)
(-156316 -4803.8 249.748 109001 10073 82534.7)
(-192548 -2787.2 -113.471 31431.6 10770.5 64985.1)
(-65747.9 -5271.82 742.686 -43115.9 12167.6 -32412.3)
(-64047.8 5296.89 -443.212 -44485.4 12449.5 -32625.2)
(-169928 2840.97 202.733 32076.4 11638.7 68541.5)
(-195703 -3005.24 108.288 38866.8 10461.5 57972.1)
(-74238.6 -3173.75 897.008 -55724.7 10908.9 -50817)
(-72518.5 3116.58 -587.608 -56848.5 11176.6 -51109.4)
(-172710 2972.06 -9.71515 39713.4 11288.2 61140.1)
(-199556 -1826.89 280.284 49643.8 9151.24 52586.2)
(-73564.9 -2281.45 1001.09 -62093.8 9224.52 -62897.1)
(-71822.6 2165.38 -720.066 -63104.7 9473.45 -63282)
(-176071 1795.66 -189.268 50626.8 9921.54 55435.7)
(-210580 -253.425 373.713 56007.3 7666.38 47207.4)
(-76119 -1356.1 1043.7 -66033.8 7668.7 -73256.3)
(-74315 1207.44 -796.042 -67019.3 7892.27 -73727.5)
(-186428 220.325 -293.879 57110.5 8357.08 49833.5)
(-236010 2979.27 401.056 49175.4 5820.61 39699.8)
(-91390.8 443.527 1028.12 -74636 5851.76 -85874.3)
(-89540 -666.839 -817.918 -75594.4 6037.5 -86421.1)
(-211074 -3067.81 -333.947 50460.7 6397.84 42201.2)
(-283206 9577.85 355.061 -28733.4 3104.84 29920.4)
(-127027 3582.69 953.037 -138015 3131.81 -101016)
(-125115 -4029.99 -811.851 -138268 3257.74 -101498)
(-257441 -9817.98 -312.388 -25692.7 3510.27 32655.7)
(-247369 13786.5 267.145 -262673 1399.26 142864)
(-31342.1 6204.16 903.314 -314115 1263.73 30809.1)
(-29221.4 -6295.42 -919.284 -309076 1304.9 30643.9)
(-221201 -13930.5 -288.804 -245464 1540.32 146138)
(-170727 5115.34 -78.525 107205 7159.83 76718.2)
(-25517.6 -12207.7 303.921 -11022 8496.68 -2967.26)
(-24628.3 11969.8 -181.064 -12886 8689.52 -3363.76)
(-150108 -4685.87 111.234 105016 7748.24 79665.6)
(-185584 -2652.84 10.7101 28999.9 8194.4 63049.6)
(-64476.7 -5136.05 506.195 -44669.8 8845.92 -31274.7)
(-62815 5062.36 -284.706 -45930.4 9038.42 -31400.3)
(-163147 2664.29 58.2985 29970.5 8782.63 66888.1)
(-188734 -2849.16 148.362 36794.4 8243.47 57129.4)
(-72628.3 -3087.96 610.734 -56365.7 8433.5 -47970.7)
(-70945.2 2955.72 -376.898 -57427.1 8620.62 -48171.2)
(-165930 2788.85 -71.0333 37830.5 8818.58 60591.4)
(-192714 -1723.1 251.991 48493.6 7373.41 51914.9)
(-72054.6 -2235.03 670.092 -61344.5 7392.14 -59610.2)
(-70345.8 2065.99 -456.469 -62325.2 7570.15 -59902.3)
(-169411 1672.9 -180.147 49578.3 7922.86 55058.6)
(-203803 -206.167 308.056 55788.8 5950.61 46523.7)
(-74747.5 -1347.88 689.702 -64162.8 5960.99 -69892.9)
(-72974.4 1165.08 -503.894 -65136.3 6123.35 -70272.6)
(-179813 161.162 -245.79 56943.3 6452.33 49437.8)
(-229113 2962.43 317.24 49342.3 4093.1 39609.4)
(-89995.1 410.491 672.16 -72441.5 4152.14 -81946.1)
(-88170.7 -653.935 -519.349 -73396.9 4287.85 -82401.7)
(-204300 -3056.7 -266.684 50656.2 4516.49 42394.2)
(-275837 9462.54 275.042 -27453.8 1904.62 30831.1)
(-125272 3501.15 617.853 -135064 1981.4 -96202.3)
(-123378 -3961.62 -521.039 -135318 2073.36 -96590.9)
(-250128 -9704.99 -245.047 -24390.9 2203 33850)
(-240726 13600 205.811 -255380 791.553 142084)
(-30877.5 6097.61 575.205 -305873 747.438 33615)
(-28765.2 -6200.62 -596.183 -300834 777.445 33546.4)
(-214523 -13748.9 -224.931 -238159 895.007 145635)
(-167038 5040.79 -44.0517 105030 4493.74 75155.2)
(-25640 -12026.5 152.62 -12104.9 5101.54 -3574.68)
(-24754.8 11719.9 -79.1462 -13872.9 5212.51 -3925.95)
(-146472 -4660.6 64.4906 103212 4829.27 78275.5)
(-181657 -2570.23 -0.214007 28007.2 5036.5 61819.7)
(-64078.8 -5052 257.974 -45297.4 5322.09 -30939)
(-62439.1 4923.15 -122.702 -46486.4 5433.8 -31011.1)
(-159313 2557.94 43.7806 29201 5375.76 65845)
(-184857 -2763.84 69.4442 35801 5125.09 56566.9)
(-72159.2 -3042.38 312.268 -56685.3 5201.1 -46630.5)
(-70497.5 2866.36 -166.983 -57703.7 5311.01 -46773.8)
(-162148 2687.81 -19.962 36978.6 5461.9 60228.3)
(-188914 -1667.78 121.357 47656.2 4638.34 51867.9)
(-71669 -2214.09 340.24 -61269.3 4643.68 -57627.5)
(-69979.8 2012.43 -206.35 -62228 4749.57 -57861.6)
(-165701 1605.98 -74.9441 48825 4965.03 55214)
(-200026 -183.19 148.393 55206.9 3697.38 46834.2)
(-74434.6 -1347.76 346.578 -63740.7 3711.9 -67529.8)
(-72679.5 1142.36 -230.53 -64705.4 3809.44 -67851.9)
(-176115 130.313 -108.198 56408 3999.29 49947.8)
(-225242 2948.68 150.122 48965.1 2446.9 40277.7)
(-89659.2 390.096 333.979 -71852.4 2499.28 -79265.3)
(-87850.3 -648.418 -239.987 -72806.5 2581.27 -79663.9)
(-200486 -3047.47 -117.89 50305.1 2703.67 43257.9)
(-271652 9398.57 124.715 -26976.1 1089.39 31730.2)
(-124732 3460.6 303.445 -133808 1159.81 -93364.8)
(-122848 -3931.62 -245.459 -134063 1215.51 -93696)
(-245963 -9643.67 -105.929 -23895.8 1271.2 34941.1)
(-236851 13503.3 81.8123 -251074 430.431 141729)
(-30966.3 6045.85 274.229 -301145 428.358 35108.1)
(-28858.8 -6157.57 -288.857 -296105 446.575 35098.6)
(-210614 -13656.4 -93.6086 -233839 493.545 145467)
(-165312 5008.45 -15.6853 104159 1527.59 74528)
(-25687 -11945.7 45.1618 -12538.5 1704.88 -3847.38)
(-24803.2 11608.8 -20.7354 -14259.5 1741.09 -4176.85)
(-144767 -4650.63 22.6002 102522 1636.55 77732.6)
(-179836 -2535.2 -4.16536 27681.1 1693.17 61295.5)
(-63928.4 -5016.34 76.1697 -45514 1774.75 -30878.9)
(-62298.7 4862.91 -30.7365 -46667.6 1811.33 -30925.2)
(-157530 2512.33 19.0024 28987.4 1803.91 65413.7)
(-183066 -2727.74 16.5012 35436.5 1726.53 56351.8)
(-71999.3 -3024.22 92.3524 -56804.3 1747.3 -46127.4)
(-70347.2 2828.09 -43.1152 -57800.7 1783.49 -46242.8)
(-160396 2644.53 0.480108 36688.5 1837.27 60113.8)
(-187157 -1644.87 31.962 47264.5 1569.58 51991.6)
(-71551.6 -2207.05 100.322 -61314.6 1571.26 -56741.4)
(-69871 1989.66 -54.6946 -62261.6 1606.33 -56947.1)
(-163980 1577.49 -15.9404 48479.9 1677.77 55440.7)
(-198273 -174.457 39.7726 54847.1 1247.4 47221.8)
(-74346.3 -1349.46 101.525 -63717.4 1254.07 -66380.7)
(-72599.2 1132.5 -61.9809 -64677.1 1286.54 -66674.6)
(-174394 117.538 -25.8804 56075.3 1347.98 50437.4)
(-223438 2941.91 39.8318 48691.9 816.518 40830.5)
(-89557.5 380.895 97.096 -71758.5 836.875 -77975.9)
(-87755.3 -647.34 -65.2404 -72711.8 864.246 -78346.8)
(-198704 -3043.27 -28.7325 50047.3 902.43 43910.4)
(-269695 9371.79 31.6733 -26803.9 361.179 32302.1)
(-124536 3445.21 87.4591 -133343 388.548 -92087.6)
(-122657 -3922.13 -67.9762 -133600 407.18 -92391.1)
(-244010 -9618.57 -25.2213 -23713.6 422.186 35610.1)
(-235004 13464.1 17.2472 -249048 139.208 141684)
(-31017.8 6026.19 77.0712 -298962 142.548 35758.9)
(-28912.2 -6142.55 -82.0926 -293921 148.649 35777.9)
(-208747 -13619.6 -21.1559 -231803 160.404 145516)
)
;

boundaryField
{
    interface
    {
        type            calculated;
        value           nonuniform List<symmTensor> 
192
(
(-46.8473 0.34924 3.01878 890191 22999.3 279400)
(-48.7084 0.231319 4.79065 609279 708.199 235092)
(-50.0766 -0.0956255 5.31325 618796 -1857.05 241122)
(-50.9093 -0.513883 5.40037 648513 -499.199 250695)
(-51.0602 -0.869059 5.29559 676365 1716.09 261385)
(-51.8617 -1.51746 5.11765 696854 5450.61 275094)
(-50.1917 -1.99811 4.68518 645172 11887 288095)
(-53.6534 -4.38266 4.34186 303784 15952.1 303925)
(-45.585 0.244641 1.49634 684383 -7470.23 532181)
(-46.4789 0.14162 2.5483 537524 -384.308 465988)
(-47.2886 -0.1567 2.79774 536379 -17.3593 470078)
(-47.8549 -0.589003 2.787 551375 520.469 486217)
(-47.7922 -0.969944 2.6664 573561 3391.4 507848)
(-48.5212 -1.69039 2.5047 599988 7915.25 537480)
(-46.5946 -2.2255 2.22553 574609 11707.2 573782)
(-50.2262 -4.7385 1.99721 288333 11992 645294)
(-48.27 0.208067 1.18415 575912 5634.32 521634)
(-49.0646 0.0990176 1.99611 477541 8172.85 488062)
(-49.8681 -0.199293 2.18472 486023 6759.5 488505)
(-50.4432 -0.661453 2.17185 502475 5709.12 501070)
(-50.2846 -1.08469 2.07437 525914 6860.15 521786)
(-50.9175 -1.88935 1.94346 556636 8890.07 553036)
(-48.5258 -2.5064 1.73677 539635 8660.6 598677)
(-51.9334 -5.19562 1.5577 275856 5875.36 697613)
(-48.455 0.155463 0.731245 519079 9704.01 482982)
(-49.0564 0.0272167 1.30031 432910 11607.5 462309)
(-49.6886 -0.272736 1.42536 446922 10492.4 462431)
(-50.1659 -0.746008 1.40417 467930 8909.26 471231)
(-49.9018 -1.18958 1.32474 494487 8227.84 489370)
(-50.4676 -2.03237 1.22457 526811 7617.65 521000)
(-47.9164 -2.68663 1.09002 511416 5257.8 572042)
(-51.2811 -5.42495 0.977402 262756 2731.62 679571)
(-49.2553 0.130823 0.537028 488120 9186.67 456209)
(-49.7975 -0.0162109 0.954975 405859 10770.5 439412)
(-50.3545 -0.326059 1.04749 421518 10461.5 440624)
(-50.7863 -0.812824 1.03182 445207 9151.24 448149)
(-50.4484 -1.27696 0.973187 473919 7666.38 465120)
(-50.9408 -2.15232 0.898412 506786 5820.61 497311)
(-48.2117 -2.84087 0.802909 491983 3104.84 550637)
(-51.4458 -5.62674 0.720519 253367 1399.26 658904)
(-49.4558 0.111392 0.33049 470600 7159.83 440113)
(-49.9458 -0.0509686 0.605875 390360 8194.4 424410)
(-50.436 -0.369035 0.66715 406329 8243.47 426664)
(-50.8245 -0.863948 0.655294 430954 7373.41 434376)
(-50.4354 -1.33991 0.615131 460574 5950.61 451309)
(-50.8854 -2.2324 0.564807 493635 4093.1 483903)
(-48.0728 -2.9392 0.504892 479411 1904.62 537696)
(-51.2604 -5.74994 0.454387 247357 791.553 644821)
(-49.7174 0.102118 0.194511 460944 4493.74 431070)
(-50.1883 -0.0707635 0.355962 381879 5036.5 415691)
(-50.6436 -0.396049 0.392191 397846 5125.09 418612)
(-51.008 -0.897442 0.385382 422641 4638.34 426853)
(-50.5855 -1.38228 0.362081 452491 3697.38 444118)
(-51.002 -2.28663 0.332276 485611 2446.9 476924)
(-48.1233 -3.0064 0.298033 471854 1089.39 530561)
(-51.2626 -5.83532 0.267723 243775 430.431 636578)
(-49.7786 0.0961732 0.0579143 456622 1527.59 426991)
(-50.236 -0.0819652 0.109673 378103 1693.17 411717)
(-50.6717 -0.410267 0.121408 394035 1726.53 414950)
(-51.0229 -0.913975 0.118985 418809 1569.58 423536)
(-50.5865 -1.40252 0.111392 448674 1247.4 441049)
(-50.9879 -2.31141 0.101667 481803 816.518 473942)
(-48.0893 -3.03716 0.0912905 468292 361.179 527398)
(-51.2044 -5.8738 0.0816701 242089 139.208 632821)
(324247 21275 -4.34075 919105 -0.951635 -18.2279)
(273653 -1282.17 -7.21286 635858 -1.03994 -13.6913)
(279512 -3648.39 -8.15239 645573 -0.79168 -10.1326)
(292407 -2066.36 -8.40391 676414 -0.549982 -9.02581)
(305797 -200.932 -8.43544 705167 -0.456134 -9.12619)
(319414 2967.27 -8.46553 725831 -0.501603 -10.1635)
(330736 9418.6 -8.51828 674289 -0.61986 -12.3636)
(348121 13436.9 -9.21393 334046 -0.83661 -14.2873)
(596089 -8598.59 -2.71971 781133 -0.549589 -23.1366)
(506779 -4570.04 -5.06867 603199 -0.725388 -22.106)
(508793 -3341.46 -5.76217 590482 -0.541495 -20.9932)
(531005 -2274.72 -5.90819 599786 -0.28916 -20.7252)
(557259 -1087.09 -5.92677 618735 -0.137204 -20.8022)
(585384 792.151 -6.00341 642309 -0.0638088 -21.2231)
(613587 3928.85 -6.22698 615088 -0.0785634 -21.956)
(680139 6207.69 -7.17325 323728 -0.164428 -22.4699)
(589366 10392.8 -2.81539 770896 -0.372737 -20.1458)
(500393 6311.84 -5.26836 593615 -0.523729 -19.3573)
(502034 4741.1 -6.02995 580772 -0.373386 -18.3428)
(524020 3314.51 -6.19979 589991 -0.116916 -18.0651)
(550158 1816.24 -6.20668 608849 0.0704576 -18.1618)
(578144 -389.289 -6.23847 632317 0.22268 -18.5612)
(606129 -4002.27 -6.38375 605546 0.311736 -19.3668)
(672965 -6209.31 -7.26234 319464 0.31985 -20.2794)
(320604 -19847.2 -3.25203 888432 -0.289683 -20.6736)
(271266 2074.05 -6.16349 610113 -0.403157 -20.1942)
(276581 4220.91 -7.12093 619338 -0.255271 -19.3628)
(289228 2505.48 -7.35018 649808 0.0105604 -19.1911)
(302546 514.217 -7.35341 678300 0.209018 -19.3315)
(315978 -2818.91 -7.38178 698671 0.40033 -19.6312)
(326747 -9518.68 -7.44066 648081 0.548564 -20.1913)
(344743 -13535.6 -8.33216 322286 0.699153 -20.8612)
(-9.7263 0.90736 1.12833 847032 23965.9 256099)
(-6.17807 0.914597 2.08725 569849 1474.26 210692)
(-3.45886 0.423149 2.34936 579006 -1326.31 216257)
(-2.32789 -0.158653 2.42288 608224 -112.505 225347)
(-2.21046 -0.459646 2.44182 635613 2023.47 235619)
(-1.08363 -0.898036 2.60919 655815 5716.06 249131)
(-2.25723 -0.871894 2.69719 605677 12117.8 262505)
(6.65381 -3.13673 3.20936 278542 16126.8 278621)
(-15.4351 0.353375 -0.146121 640676 -5178.84 496328)
(-14.6947 0.348645 0.0861877 497429 1188.2 429714)
(-13.9462 0.0741793 0.0701199 496315 1151.64 432708)
(-13.4275 -0.289774 0.0584638 510803 1438.37 447794)
(-13.3749 -0.418143 0.0984189 532261 4140.24 468449)
(-11.7982 -0.721465 0.304449 557996 8531.9 497208)
(-12.1068 -0.450729 0.543031 533808 12162.1 533201)
(-2.20231 -2.63786 0.984457 262586 12202.8 605749)
(-15.6316 0.189451 0.0600196 534041 7368.28 486152)
(-15.0774 0.137881 0.384247 438302 9655.32 451754)
(-14.4668 -0.0468783 0.474505 446622 8005.68 450984)
(-13.847 -0.314848 0.512833 462501 6764.2 462340)
(-13.6704 -0.34854 0.561776 485091 7753.96 481848)
(-11.6848 -0.585136 0.711077 514888 9626.27 511897)
(-11.6709 -0.20428 0.852959 498717 9188.29 556834)
(-0.837929 -2.54668 1.07091 249450 6079.85 656496)
(-17.2657 0.0860118 -0.0194591 479033 10957.1 448795)
(-16.9842 0.000919933 0.250081 394949 12787.2 427283)
(-16.6546 -0.12622 0.340707 408538 11565.8 426184)
(-16.0528 -0.3163 0.378794 428839 9871.42 433716)
(-15.7925 -0.265422 0.418819 454436 9069.36 450519)
(-13.4667 -0.437574 0.525988 485675 8314.67 480753)
(-13.0656 0.0236796 0.620052 470832 5749.24 530817)
(-1.62488 -2.37818 0.747628 236189 2906.87 638704)
(-17.5194 0.0688919 0.0749157 449429 10073 422962)
(-17.2384 -0.0299073 0.325168 368917 11638.7 405382)
(-16.9185 -0.138814 0.42255 383958 11288.2 405384)
(-16.2461 -0.301706 0.462308 406804 9921.54 411613)
(-15.9085 -0.213897 0.490715 434452 8357.08 427175)
(-13.3899 -0.362873 0.552903 466113 6397.84 457853)
(-12.8401 0.126635 0.59238 451674 3510.27 510023)
(-1.06377 -2.35464 0.639973 226775 1540.32 618377)
(-18.0008 0.0620736 0.0472989 432802 7748.24 407451)
(-17.7337 -0.0416175 0.225358 354101 8782.63 391018)
(-17.4278 -0.140449 0.29876 369318 8818.58 392079)
(-16.7139 -0.287436 0.328314 392998 7922.86 398478)
(-16.3184 -0.17496 0.347668 421466 6452.33 413960)
(-13.6537 -0.308105 0.386344 453231 4516.49 444969)
(-12.9721 0.199562 0.407845 439250 2203 497491)
(-0.950533 -2.32853 0.432054 220728 895.007 604522)
(-18.114 0.0641106 0.0456301 423686 4829.27 398750)
(-17.835 -0.0407433 0.156692 346035 5375.76 382679)
(-17.5158 -0.136039 0.202998 361169 5461.9 384419)
(-16.7669 -0.277578 0.221253 384952 4965.03 391341)
(-16.3355 -0.154305 0.232161 413591 3999.29 407131)
(-13.5919 -0.281813 0.251415 445356 2703.67 438309)
(-12.8517 0.232551 0.259885 431768 1271.2 490605)
(-0.6891 -2.32968 0.26689 217116 493.545 596422)
(-18.2306 0.0639222 0.0100364 419617 1636.55 394828)
(-17.9511 -0.0409909 0.0454949 342454 1803.91 378880)
(-17.6279 -0.133969 0.0607546 357516 1837.27 380942)
(-16.8637 -0.272292 0.0667644 381245 1677.77 388206)
(-16.4118 -0.143511 0.0706388 409870 1347.98 404232)
(-13.6285 -0.267465 0.0770745 441614 902.43 435477)
(-12.8484 0.250096 0.0806593 428235 422.186 487559)
(-0.620849 -2.32724 0.0830471 215412 160.404 592732)
(348480 9.27382 -13369.3 -13.8895 -0.743585 334546)
(331054 8.6005 -9292.51 -11.7553 -0.523981 674617)
(319939 8.58451 -2936.34 -9.12179 -0.364494 726676)
(307505 8.6107 -298.761 -7.43746 -0.236106 708610)
(297390 8.6933 267.145 -6.1393 -0.173094 687623)
(290320 8.7447 205.811 -5.2257 -0.106816 673130)
(286015 8.7883 81.8123 -4.64652 -0.0654556 664595)
(284011 8.80736 17.2472 -4.36748 -0.0195597 660700)
(680495 7.21087 -6127.11 -22.1419 -0.0541294 324344)
(614089 6.26741 -3715.57 -21.5128 0.0357631 615911)
(586647 6.04873 -620.818 -20.5066 0.0970002 643905)
(561216 5.97413 806.145 -19.7547 0.104443 621542)
(541189 5.97077 903.314 -19.1203 0.0874528 603340)
(527226 5.96655 575.205 -18.6553 0.0675091 591718)
(518691 5.97341 274.229 -18.3511 0.040067 584765)
(514705 5.97526 77.0712 -18.1915 0.0146918 581481)
(673270 7.29797 6247.65 -19.9648 0.440417 320027)
(606554 6.41338 4121.63 -18.9316 0.437412 606385)
(579264 6.26796 745.118 -17.8552 0.395226 633980)
(553896 6.24213 -788.8 -17.1224 0.318654 611789)
(533869 6.26679 -919.284 -16.4749 0.2474 593734)
(519894 6.27915 -596.183 -16.0414 0.172964 582206)
(511351 6.29495 -288.857 -15.7418 0.102564 575308)
(507360 6.30021 -82.0926 -15.6037 0.0338784 572050)
(344909 8.34585 13535.8 -20.5777 0.821319 322532)
(326913 7.44614 9528.19 -19.8117 0.676031 648325)
(316370 7.38431 3003.78 -19.0477 0.568432 699590)
(304133 7.36815 293.669 -18.5209 0.442634 682001)
(294052 7.41829 -288.804 -17.9972 0.342573 661392)
(287003 7.44182 -224.931 -17.675 0.235802 647161)
(282714 7.46825 -93.6086 -17.4347 0.141408 638795)
(280719 7.47808 -21.1559 -17.3255 0.046142 634983)
)
;
    }
    symmetry
    {
        type            symmetry;
    }
    bottom
    {
        type            calculated;
        value           nonuniform List<symmTensor> 
32
(
(-741352 67823.9 -8371.54 79455.4 64565.1 -757285)
(-505239 46511.4 -6145.22 31742.4 -15064.6 -227727)
(-428461 32923.4 -2497.66 997.231 -1080.25 -134667)
(-393337 27099.5 -756.233 -8430.77 6268.45 -120581)
(-374434 24890 -206.988 -12054.5 7523.35 -117526)
(-363576 23990.6 -78.525 -13768.9 6355.42 -116131)
(-357403 23563.5 -44.0517 -14483.4 4128.97 -115210)
(-354560 23375.4 -15.6853 -14709.9 1422.88 -114721)
(-236328 -8330.06 -3397.54 70767.5 58700.8 -549906)
(-89638.5 -11559.7 -1624.37 12599.3 -3025.22 -95280.6)
(-58468.7 -14974.8 -139.042 -13104.2 10251.9 -28670.7)
(-50425.5 -15992.4 471.037 -18637.4 12983.5 -24060.7)
(-48106.7 -15857.1 473.951 -20669.1 10904.5 -24488.8)
(-47598.7 -15527.4 303.921 -22197.1 7969.64 -25048.4)
(-47504.4 -15300.7 152.62 -23149.7 4858.88 -25439.1)
(-47472.8 -15199.4 45.1618 -23567.1 1635.15 -25633.1)
(-232803 9274.84 3333.83 70170.2 58845.6 -543456)
(-88716.1 11645.3 1923.58 9685.89 -2147.64 -95695.1)
(-57627.8 14462.7 385.8 -15789.8 10897.9 -29469.8)
(-49593.1 15157 -256.43 -21046 13437.9 -24727.2)
(-47299.6 14856 -302.423 -22871.8 11224.4 -25051.2)
(-46808.5 14440.8 -181.064 -24251.3 8183.4 -25544)
(-46722.6 14171.9 -79.1462 -25107.6 4981.67 -25893.8)
(-46694.4 14053.4 -20.7354 -25477.8 1675.19 -26068)
(-708753 -66089.2 8409.82 80847.5 65397.3 -731858)
(-479122 -45053.3 6310.41 27600.5 -12384.6 -220964)
(-402805 -31789.8 2578.76 -1663.06 890.152 -128501)
(-368026 -26231.6 808.997 -9775.93 7667.28 -113940)
(-349399 -24193.7 249.748 -12449.7 8504.54 -110549)
(-338693 -23395.4 111.234 -13494.9 7004.26 -108920)
(-332597 -23023.9 64.4906 -13786.2 4498.25 -107849)
(-329786 -22860.4 22.6002 -13808.6 1542.69 -107287)
)
;
    }
}


// ************************************************************************* //
