/*--------------------------------*- C++ -*----------------------------------*\
| =========                 |                                                 |
| \\      /  F ield         | OpenFOAM: The Open Source CFD Toolbox           |
|  \\    /   O peration     | Version:  v1912                                 |
|   \\  /    A nd           | Website:  www.openfoam.com                      |
|    \\/     M anipulation  |                                                 |
\*---------------------------------------------------------------------------*/
FoamFile
{
    version     2.0;
    format      ascii;
    class       volScalarField;
    location    "0.51/solid";
    object      sigmaEq;
}
// * * * * * * * * * * * * * * * * * * * * * * * * * * * * * * * * * * * * * //

dimensions      [1 -1 -2 0 0 0 0];


internalField   nonuniform List<scalar> 
256
(
605593
438665
433378
582408
368977
323331
318719
350143
372774
311647
307067
354016
391824
315851
311304
373018
408132
326080
321533
389233
415185
336939
332368
396187
352364
318813
314755
334798
45137.7
357819
354937
48806.1
378451
85185.5
82933.1
354104
288950
83310.1
81164.5
266748
285525
64242.3
62514.3
263409
290625
45960.3
44678.7
268244
300520
38336.6
37433.4
277737
313916
39922.3
39097.5
290743
301164
22804.7
23892.8
278592
352313
319160
315142
334838
324838
47502.3
46519.2
301684
278651
50442.6
48362.9
256879
278206
37913.7
35794.7
256034
283043
23467.5
21523.6
260375
293482
18400.7
16869.7
270232
310225
22807.9
21190.2
286411
313596
38601.5
37999.9
290437
415354
337689
333207
396643
293150
42073.1
41483.2
271302
258334
42184.4
40730.5
237757
259339
31815.4
30283.9
238081
264441
20945.7
19816.5
242492
275231
16915.6
16214.5
252557
292834
19207.8
17918.2
269454
299662
34355.9
33904.7
276857
409940
327837
323436
391582
274876
36592.5
35879.9
253861
243269
37392.5
36126.1
223455
245408
29109.3
27809
224818
251205
19922.7
18956.5
229805
262635
16317.1
15570
240420
280797
18033.8
16535
257798
288837
33967.1
33524.9
266384
398828
318623
314297
380827
264452
32491.5
31572.4
243945
233954
33937
32615.2
214568
236836
26731.5
25359.7
216635
243291
17792
16582.7
222223
255295
14060.4
12840.5
233363
273860
16888.1
14952.2
251106
282574
35711.4
35224
260372
391056
312460
308180
373303
258693
29723.3
28621.7
238480
228665
31469.3
30036.4
209510
231959
24603.6
23072.3
211974
238857
15460.8
13890.8
217978
251233
11633.6
9798.3
229466
270050
16111
13842
247443
279187
37298.5
36790.5
257148
386597
308747
304497
369003
256106
28275.7
27065.2
236027
226266
30128.6
28618.5
207216
229744
23318.3
21669.2
209855
236853
13949.1
12091.9
216061
249405
10098.1
7729.85
227714
268338
15727.7
13296.6
245801
277686
38109.4
37597.9
255728
384611
307009
302773
367095
)
;

boundaryField
{
    interface
    {
        type            calculated;
        value           nonuniform List<scalar> 
192
(
789574
532255
540275
566467
590810
608047
560219
305161
622579
505613
506541
521904
543770
571518
574601
560320
550917
483144
487459
501922
524047
555110
571693
608666
502334
448832
455287
469893
492204
524146
544391
593605
473290
424093
431819
447017
469819
502268
523854
575723
456339
408747
417163
432914
456179
488944
511111
563494
446874
400004
408772
424889
448460
481396
503831
556347
442608
396042
404960
421252
444966
477974
500517
553096
808241
552462
560799
587598
612489
630121
584225
342108
707192
561313
554223
568559
590426
615846
614399
589362
698315
553056
545760
559975
581755
607065
605897
583169
780045
529481
537448
563913
588581
606022
561521
334924
753565
499067
506763
532596
556572
573476
526501
279971
582168
467285
467785
482415
503462
530439
533933
526565
511954
445510
449047
462583
483678
513681
530420
574074
465057
412680
418137
431653
452778
483461
503623
559375
437163
388975
395607
409606
431118
462185
483547
541842
420932
374256
381531
396021
417929
449239
471107
529846
411888
365872
373475
388298
410474
441913
464010
522845
407816
362076
369817
384800
407103
438595
460784
519666
342524
584501
630843
615463
597311
584784
577418
574060
589655
615057
617292
593703
574812
562272
554706
551154
583423
606530
608489
585014
566199
553703
546161
542621
335124
561732
606822
591795
573968
561665
554442
551154
)
;
    }
    symmetry
    {
        type            symmetry;
    }
    bottom
    {
        type            calculated;
        value           nonuniform List<scalar> 
32
(
844733
472892
384514
346245
325962
314458
308083
305216
547282
107226
50815.2
46272.6
42123
38666
36274.9
35035
541385
104164
48471.3
44210.1
39856.8
36165.6
33583.2
32231.7
817553
446394
359411
322675
303442
292604
286619
283933
)
;
    }
}


// ************************************************************************* //
