/*--------------------------------*- C++ -*----------------------------------*\
| =========                 |                                                 |
| \\      /  F ield         | OpenFOAM: The Open Source CFD Toolbox           |
|  \\    /   O peration     | Version:  v1912                                 |
|   \\  /    A nd           | Website:  www.openfoam.com                      |
|    \\/     M anipulation  |                                                 |
\*---------------------------------------------------------------------------*/
FoamFile
{
    version     2.0;
    format      ascii;
    class       volScalarField;
    location    "0.51/solid";
    object      T;
}
// * * * * * * * * * * * * * * * * * * * * * * * * * * * * * * * * * * * * * //

dimensions      [0 0 0 1 0 0 0];


internalField   nonuniform List<scalar> 
256
(
291.608
292.235
292.24
291.635
291.312
292.058
292.065
291.343
291.271
292.035
292.042
291.304
291.239
292.018
292.025
291.273
291.189
291.991
291.998
291.224
291.099
291.936
291.943
291.134
290.858
291.749
291.757
290.894
289.817
290.741
290.754
289.87
292.304
292.853
292.854
292.318
292.142
292.809
292.809
292.157
292.12
292.804
292.804
292.136
292.103
292.801
292.801
292.119
292.076
292.796
292.796
292.092
292.021
292.78
292.78
292.039
291.838
292.661
292.662
291.856
290.858
291.749
291.757
290.894
292.434
292.928
292.928
292.447
292.303
292.905
292.905
292.316
292.284
292.903
292.902
292.298
292.269
292.901
292.901
292.284
292.244
292.898
292.898
292.259
292.194
292.886
292.886
292.21
292.021
292.78
292.78
292.039
291.098
291.936
291.943
291.134
292.475
292.936
292.936
292.487
292.352
292.916
292.916
292.364
292.334
292.914
292.914
292.347
292.319
292.912
292.912
292.332
292.294
292.91
292.91
292.309
292.244
292.898
292.898
292.259
292.075
292.796
292.796
292.092
291.188
291.99
291.997
291.224
292.495
292.938
292.938
292.506
292.376
292.919
292.919
292.388
292.358
292.917
292.916
292.37
292.343
292.915
292.915
292.356
292.318
292.912
292.912
292.332
292.268
292.901
292.901
292.283
292.102
292.801
292.801
292.119
291.236
292.017
292.024
291.272
292.506
292.939
292.939
292.518
292.389
292.92
292.92
292.401
292.371
292.918
292.918
292.384
292.357
292.916
292.916
292.369
292.332
292.914
292.914
292.346
292.282
292.902
292.902
292.297
292.118
292.803
292.804
292.134
291.265
292.032
292.04
291.301
292.513
292.94
292.94
292.524
292.397
292.921
292.921
292.408
292.379
292.919
292.918
292.391
292.364
292.917
292.917
292.377
292.34
292.914
292.914
292.353
292.29
292.903
292.903
292.305
292.126
292.805
292.805
292.143
291.282
292.041
292.048
291.318
292.516
292.94
292.94
292.527
292.4
292.921
292.921
292.411
292.383
292.919
292.919
292.394
292.368
292.917
292.917
292.38
292.343
292.915
292.915
292.356
292.294
292.903
292.903
292.308
292.13
292.805
292.806
292.147
291.29
292.045
292.052
291.325
)
;

boundaryField
{
    interface
    {
        type            fixedValue;
        value           nonuniform List<scalar> 
192
(
290.145
289.944
289.879
289.805
289.694
289.511
289.149
288.16
290.937
290.816
290.767
290.708
290.616
290.459
290.127
289.148
291.224
291.124
291.08
291.024
290.936
290.783
290.458
289.508
291.364
291.27
291.228
291.173
291.086
290.934
290.613
289.689
291.444
291.353
291.311
291.256
291.17
291.019
290.701
289.796
291.492
291.402
291.36
291.306
291.219
291.069
290.754
289.862
291.519
291.43
291.388
291.334
291.247
291.098
290.784
289.9
291.531
291.443
291.401
291.347
291.26
291.111
290.798
289.918
290.069
289.87
289.804
289.73
289.619
289.435
289.069
288.077
290.73
290.601
290.549
290.489
290.398
290.24
289.903
288.901
290.758
290.63
290.58
290.521
290.43
290.273
289.937
288.94
290.166
289.973
289.911
289.839
289.73
289.548
289.184
288.207
290.276
290.083
290.022
289.951
289.843
289.661
289.3
288.326
291.054
290.938
290.891
290.835
290.747
290.592
290.263
289.3
291.337
291.241
291.2
291.147
291.063
290.914
290.592
289.661
291.474
291.384
291.344
291.293
291.21
291.062
290.746
289.842
291.552
291.465
291.425
291.374
291.292
291.145
290.833
289.949
291.598
291.512
291.473
291.422
291.34
291.195
290.886
290.015
291.625
291.539
291.5
291.45
291.368
291.223
290.916
290.053
291.637
291.552
291.513
291.462
291.38
291.236
290.93
290.071
288.076
289.067
289.431
289.613
289.72
289.786
289.825
289.843
288.9
289.901
290.237
290.393
290.482
290.536
290.567
290.582
288.939
289.935
290.271
290.427
290.515
290.569
290.6
290.615
288.206
289.184
289.546
289.728
289.835
289.901
289.94
289.958
)
;
    }
    symmetry
    {
        type            symmetry;
    }
    bottom
    {
        type            fixedValue;
        value           uniform 293;
    }
}


// ************************************************************************* //
