/*--------------------------------*- C++ -*----------------------------------*\
| =========                 |                                                 |
| \\      /  F ield         | OpenFOAM: The Open Source CFD Toolbox           |
|  \\    /   O peration     | Version:  v1912                                 |
|   \\  /    A nd           | Website:  www.openfoam.com                      |
|    \\/     M anipulation  |                                                 |
\*---------------------------------------------------------------------------*/
FoamFile
{
    version     2.0;
    format      ascii;
    class       volVectorField;
    location    "0.51/solid";
    object      U;
}
// * * * * * * * * * * * * * * * * * * * * * * * * * * * * * * * * * * * * * //

dimensions      [0 1 -1 0 0 0 0];


internalField   nonuniform List<vector> 
256
(
(3.19819e-08 3.14696e-08 3.64431e-08)
(6.86027e-09 1.80835e-08 3.26036e-08)
(-7.95229e-09 1.7611e-08 3.20745e-08)
(-3.14118e-08 2.96529e-08 3.47739e-08)
(5.58725e-08 2.29033e-08 8.02209e-08)
(1.38615e-08 1.25906e-08 7.478e-08)
(-1.60379e-08 1.23522e-08 7.37575e-08)
(-5.5794e-08 2.23093e-08 7.7024e-08)
(5.9573e-08 -3.23606e-10 1.09955e-07)
(1.48223e-08 -4.63449e-09 1.03956e-07)
(-1.82423e-08 -4.46523e-09 1.02668e-07)
(-6.07211e-08 4.3109e-10 1.05944e-07)
(5.77429e-08 -2.50444e-08 1.35409e-07)
(1.3296e-08 -2.74408e-08 1.28398e-07)
(-1.84578e-08 -2.68667e-08 1.26924e-07)
(-6.06136e-08 -2.31146e-08 1.30826e-07)
(5.74891e-08 -5.1464e-08 1.61163e-07)
(1.21782e-08 -5.5387e-08 1.52726e-07)
(-1.96071e-08 -5.44381e-08 1.51093e-07)
(-6.25888e-08 -4.84642e-08 1.56098e-07)
(6.40443e-08 -8.32288e-08 1.90165e-07)
(1.36997e-08 -8.95002e-08 1.80269e-07)
(-2.39404e-08 -8.81912e-08 1.78482e-07)
(-7.19107e-08 -7.91967e-08 1.84643e-07)
(8.24939e-08 -1.30942e-07 2.23918e-07)
(1.92485e-08 -1.34782e-07 2.13749e-07)
(-3.29461e-08 -1.33082e-07 2.11793e-07)
(-9.36617e-08 -1.25773e-07 2.17916e-07)
(1.07624e-07 -2.06928e-07 2.54435e-07)
(2.52981e-08 -1.98734e-07 2.46543e-07)
(-4.32982e-08 -1.96373e-07 2.4441e-07)
(-1.22618e-07 -1.99735e-07 2.47963e-07)
(1.8008e-08 1.00947e-08 1.32632e-08)
(3.58916e-09 7.06639e-11 1.56312e-08)
(-4.02033e-09 -9.93263e-11 1.54124e-08)
(-1.7056e-08 8.99854e-09 1.26063e-08)
(3.24585e-08 -2.56474e-09 4.28534e-08)
(7.7435e-09 -1.04644e-08 4.74984e-08)
(-8.42659e-09 -1.04754e-08 4.69048e-08)
(-3.13306e-08 -2.68982e-09 4.11149e-08)
(3.41799e-08 -2.28218e-08 6.99893e-08)
(8.12443e-09 -2.61569e-08 7.52882e-08)
(-9.48804e-09 -2.58657e-08 7.44487e-08)
(-3.37688e-08 -2.18602e-08 6.75243e-08)
(3.19195e-08 -4.5378e-08 9.44693e-08)
(6.66948e-09 -4.73804e-08 9.96314e-08)
(-9.34873e-09 -4.67432e-08 9.86197e-08)
(-3.28308e-08 -4.33747e-08 9.14771e-08)
(3.11301e-08 -7.01697e-08 1.18452e-07)
(5.60494e-09 -7.39058e-08 1.23175e-07)
(-1.02027e-08 -7.29236e-08 1.22017e-07)
(-3.39311e-08 -6.7161e-08 1.15007e-07)
(3.70073e-08 -9.83977e-08 1.43225e-07)
(7.09755e-09 -1.04711e-07 1.47493e-07)
(-1.42031e-08 -1.03391e-07 1.46193e-07)
(-4.2266e-08 -9.44061e-08 1.39347e-07)
(5.54339e-08 -1.36042e-07 1.66505e-07)
(1.27063e-08 -1.39769e-07 1.70601e-07)
(-2.29903e-08 -1.38103e-07 1.6917e-07)
(-6.36929e-08 -1.31015e-07 1.62225e-07)
(8.21653e-08 -1.93376e-07 1.78444e-07)
(1.89168e-08 -1.82895e-07 1.82637e-07)
(-3.32472e-08 -1.80675e-07 1.81143e-07)
(-9.3942e-08 -1.8656e-07 1.7395e-07)
(8.14618e-09 2.32708e-09 6.60721e-09)
(7.29092e-10 -4.69254e-09 1.00553e-08)
(-8.88031e-10 -4.8216e-09 9.90381e-09)
(-6.99719e-09 1.25472e-09 6.1764e-09)
(1.50529e-08 -1.51725e-08 2.75961e-08)
(2.10289e-09 -2.0772e-08 3.40063e-08)
(-2.0067e-09 -2.07507e-08 3.35884e-08)
(-1.32736e-08 -1.53374e-08 2.64154e-08)
(1.51968e-08 -3.61827e-08 5.0852e-08)
(1.85889e-09 -3.86472e-08 5.81e-08)
(-1.98677e-09 -3.8358e-08 5.748e-08)
(-1.37024e-08 -3.53422e-08 4.90801e-08)
(1.29163e-08 -5.74058e-08 7.34136e-08)
(4.90523e-10 -5.92592e-08 8.0701e-08)
(-1.53994e-09 -5.86551e-08 7.99252e-08)
(-1.23653e-08 -5.55874e-08 7.11671e-08)
(1.21616e-08 -7.90313e-08 9.48721e-08)
(-4.69484e-10 -8.28512e-08 1.01977e-07)
(-2.1624e-09 -8.19244e-08 1.01067e-07)
(-1.31688e-08 -7.62522e-08 9.22098e-08)
(1.80105e-08 -1.01413e-07 1.14444e-07)
(1.04505e-09 -1.07868e-07 1.21354e-07)
(-5.89578e-09 -1.06624e-07 1.20321e-07)
(-2.11773e-08 -9.76959e-08 1.11399e-07)
(3.649e-08 -1.29775e-07 1.28583e-07)
(6.669e-09 -1.33652e-07 1.35347e-07)
(-1.44456e-08 -1.3209e-07 1.34217e-07)
(-4.23806e-08 -1.25081e-07 1.25225e-07)
(6.31978e-08 -1.7661e-07 1.30723e-07)
(1.2916e-08 -1.66375e-07 1.37429e-07)
(-2.45081e-08 -1.64284e-07 1.36279e-07)
(-7.23443e-08 -1.70162e-07 1.27258e-07)
(4.08638e-09 -3.83712e-10 5.5e-09)
(-4.34169e-10 -5.6129e-09 7.75592e-09)
(3.96402e-10 -5.75814e-09 7.64235e-09)
(-2.81331e-09 -1.5462e-09 5.18479e-09)
(7.63645e-09 -1.99778e-08 2.17644e-08)
(-3.48784e-10 -2.42062e-08 2.59203e-08)
(8.65091e-10 -2.42297e-08 2.56172e-08)
(-5.44132e-09 -2.03366e-08 2.09214e-08)
(7.185e-09 -4.1883e-08 4.05868e-08)
(-8.33477e-10 -4.38756e-08 4.52299e-08)
(1.45787e-09 -4.36489e-08 4.47743e-08)
(-4.95328e-09 -4.12858e-08 3.92999e-08)
(5.27835e-09 -6.22136e-08 5.95453e-08)
(-1.99323e-09 -6.40886e-08 6.41339e-08)
(2.02125e-09 -6.35613e-08 6.35505e-08)
(-3.67287e-09 -6.06701e-08 5.78709e-08)
(5.03771e-09 -8.09961e-08 7.71276e-08)
(-2.69793e-09 -8.49799e-08 8.1516e-08)
(1.43944e-09 -8.41419e-08 8.08193e-08)
(-4.69645e-09 -7.85154e-08 7.51026e-08)
(1.12606e-08 -9.88932e-08 9.15723e-08)
(-1.03202e-09 -1.05516e-07 9.57781e-08)
(-2.185e-09 -1.04371e-07 9.49815e-08)
(-1.28126e-08 -9.54943e-08 8.92328e-08)
(2.96462e-08 -1.22163e-07 9.99521e-08)
(4.55387e-09 -1.26436e-07 1.04068e-07)
(-1.04705e-08 -1.24979e-07 1.032e-07)
(-3.36807e-08 -1.17793e-07 9.73713e-08)
(5.56282e-08 -1.64842e-07 9.91487e-08)
(1.06963e-08 -1.55959e-07 1.03417e-07)
(-2.02278e-08 -1.53967e-07 1.02539e-07)
(-6.26995e-08 -1.58687e-07 9.64973e-08)
(2.8923e-09 -1.32591e-09 4.82793e-09)
(-6.39991e-10 -5.7372e-09 5.94413e-09)
(6.66044e-10 -5.90055e-09 5.86221e-09)
(-1.54016e-09 -2.56391e-09 4.60344e-09)
(5.57802e-09 -2.12347e-08 1.74405e-08)
(-8.14984e-10 -2.48852e-08 1.94234e-08)
(1.5786e-09 -2.49615e-08 1.92083e-08)
(-3.11942e-09 -2.17778e-08 1.68486e-08)
(5.20655e-09 -4.31489e-08 3.17994e-08)
(-1.23688e-09 -4.50198e-08 3.39249e-08)
(2.33781e-09 -4.48645e-08 3.36003e-08)
(-2.48887e-09 -4.27906e-08 3.08911e-08)
(3.79409e-09 -6.26522e-08 4.63392e-08)
(-2.14654e-09 -6.46564e-08 4.83266e-08)
(2.89716e-09 -6.42101e-08 4.79059e-08)
(-1.46189e-09 -6.13735e-08 4.51404e-08)
(4.11872e-09 -7.95574e-08 5.95186e-08)
(-2.58036e-09 -8.37186e-08 6.13015e-08)
(2.28301e-09 -8.29675e-08 6.07932e-08)
(-2.81382e-09 -7.73538e-08 5.80487e-08)
(1.07007e-08 -9.50264e-08 6.96159e-08)
(-7.54188e-10 -1.01795e-07 7.12439e-08)
(-1.2844e-09 -1.00741e-07 7.0659e-08)
(-1.10688e-08 -9.19072e-08 6.79034e-08)
(2.88942e-08 -1.16195e-07 7.46996e-08)
(4.77582e-09 -1.20819e-07 7.62988e-08)
(-9.32314e-09 -1.19448e-07 7.56609e-08)
(-3.15456e-08 -1.12092e-07 7.28048e-08)
(5.41704e-08 -1.57212e-07 7.35004e-08)
(1.08054e-08 -1.49516e-07 7.5307e-08)
(-1.88015e-08 -1.476e-07 7.46634e-08)
(-5.96807e-08 -1.51285e-07 7.15544e-08)
(2.65303e-09 -1.61101e-09 3.77623e-09)
(-5.63805e-10 -5.69496e-09 4.26413e-09)
(6.25459e-10 -5.87133e-09 4.20926e-09)
(-1.25191e-09 -2.90069e-09 3.62715e-09)
(5.35967e-09 -2.11337e-08 1.2866e-08)
(-6.39684e-10 -2.46189e-08 1.3662e-08)
(1.55228e-09 -2.47362e-08 1.35186e-08)
(-2.73689e-09 -2.18124e-08 1.24744e-08)
(5.29278e-09 -4.25356e-08 2.29214e-08)
(-8.99779e-10 -4.44569e-08 2.36918e-08)
(2.30082e-09 -4.43596e-08 2.3475e-08)
(-2.26435e-09 -4.23624e-08 2.23189e-08)
(4.31062e-09 -6.12876e-08 3.30009e-08)
(-1.59554e-09 -6.34451e-08 3.36249e-08)
(2.81846e-09 -6.30651e-08 3.33421e-08)
(-1.49913e-09 -6.02183e-08 3.21996e-08)
(5.05806e-09 -7.71416e-08 4.19651e-08)
(-1.82359e-09 -8.14491e-08 4.24282e-08)
(2.17402e-09 -8.07676e-08 4.2084e-08)
(-3.0998e-09 -7.51558e-08 4.09739e-08)
(1.18696e-08 -9.15684e-08 4.85649e-08)
(1.16967e-10 -9.84345e-08 4.89244e-08)
(-1.34241e-09 -9.74491e-08 4.85263e-08)
(-1.14178e-08 -8.86638e-08 4.74026e-08)
(2.98759e-08 -1.12036e-07 5.16527e-08)
(5.60105e-09 -1.16868e-07 5.20181e-08)
(-9.1876e-09 -1.15561e-07 5.15829e-08)
(-3.15555e-08 -1.08132e-07 5.03621e-08)
(5.46327e-08 -1.52264e-07 5.07115e-08)
(1.15495e-08 -1.45304e-07 5.12416e-08)
(-1.84576e-08 -1.43444e-07 5.08027e-08)
(-5.90362e-08 -1.46505e-07 4.93852e-08)
(2.6361e-09 -1.65536e-09 2.39237e-09)
(-4.74889e-10 -5.6129e-09 2.58981e-09)
(5.55489e-10 -5.79758e-09 2.5584e-09)
(-1.20662e-09 -2.9774e-09 2.3075e-09)
(5.50405e-09 -2.06941e-08 7.88905e-09)
(-4.23614e-10 -2.41618e-08 8.17341e-09)
(1.42106e-09 -2.43055e-08 8.09134e-09)
(-2.78535e-09 -2.14591e-08 7.66606e-09)
(5.69849e-09 -4.15406e-08 1.38284e-08)
(-5.49009e-10 -4.35466e-08 1.40561e-08)
(2.12634e-09 -4.34877e-08 1.39319e-08)
(-2.48536e-09 -4.14887e-08 1.34847e-08)
(5.0069e-09 -5.97355e-08 1.97088e-08)
(-1.10093e-09 -6.20131e-08 1.98347e-08)
(2.60815e-09 -6.1678e-08 1.9672e-08)
(-1.90492e-09 -5.88061e-08 1.92498e-08)
(6.01179e-09 -7.50602e-08 2.48691e-08)
(-1.20125e-09 -7.94647e-08 2.48975e-08)
(1.94985e-09 -7.88303e-08 2.46987e-08)
(-3.65016e-09 -7.32206e-08 2.42983e-08)
(1.29457e-08 -8.9113e-08 2.85933e-08)
(8.06806e-10 -9.60302e-08 2.85664e-08)
(-1.52389e-09 -9.50911e-08 2.83356e-08)
(-1.19799e-08 -8.63516e-08 2.7921e-08)
(3.08186e-08 -1.09395e-07 3.02807e-08)
(6.2622e-09 -1.14322e-07 3.02679e-08)
(-9.24056e-09 -1.13059e-07 3.00151e-08)
(-3.18823e-08 -1.05623e-07 2.95321e-08)
(5.52433e-08 -1.49223e-07 2.97126e-08)
(1.21602e-08 -1.42642e-07 2.9798e-08)
(-1.83743e-08 -1.40819e-07 2.95431e-08)
(-5.89404e-08 -1.43575e-07 2.89427e-08)
(2.64442e-09 -1.6413e-09 8.17751e-10)
(-4.30368e-10 -5.55388e-09 8.71129e-10)
(5.19149e-10 -5.74259e-09 8.60909e-10)
(-1.20192e-09 -2.97887e-09 7.90148e-10)
(5.60512e-09 -2.03826e-08 2.65727e-09)
(-3.12475e-10 -2.38605e-08 2.72688e-09)
(1.34839e-09 -2.4017e-08 2.70018e-09)
(-2.84207e-09 -2.11891e-08 2.58487e-09)
(5.93333e-09 -4.09e-08 4.62008e-09)
(-3.69294e-10 -4.29585e-08 4.66546e-09)
(2.02816e-09 -4.29187e-08 4.62501e-09)
(-2.63396e-09 -4.09074e-08 4.50843e-09)
(5.38252e-09 -5.88041e-08 6.54881e-09)
(-8.51492e-10 -6.11447e-08 6.55861e-09)
(2.49213e-09 -6.08318e-08 6.50555e-09)
(-2.14345e-09 -5.7944e-08 6.39939e-09)
(6.50592e-09 -7.39103e-08 8.22981e-09)
(-8.92147e-10 -7.83616e-08 8.20754e-09)
(1.82992e-09 -7.77507e-08 8.14255e-09)
(-3.95195e-09 -7.21435e-08 8.04354e-09)
(1.34916e-08 -8.78535e-08 9.43329e-09)
(1.14669e-09 -9.47911e-08 9.39404e-09)
(-1.61977e-09 -9.38751e-08 9.31847e-09)
(-1.22786e-08 -8.51635e-08 9.21339e-09)
(3.12972e-08 -1.08102e-07 9.97234e-09)
(6.58887e-09 -1.13063e-07 9.93943e-09)
(-9.27307e-09 -1.1182e-07 9.85659e-09)
(-3.20626e-08 -1.04395e-07 9.72713e-09)
(5.556e-08 -1.4776e-07 9.7838e-09)
(1.24626e-08 -1.41333e-07 9.78302e-09)
(-1.83394e-08 -1.39528e-07 9.69948e-09)
(-5.89136e-08 -1.42167e-07 9.53152e-09)
)
;

boundaryField
{
    interface
    {
        type            calculated;
        value           nonuniform List<vector> 
192
(
(3.44363e-08 5.34331e-08 3.24258e-08)
(5.74297e-08 2.9801e-08 7.3324e-08)
(6.12661e-08 1.43875e-10 1.02491e-07)
(5.98263e-08 -2.55654e-08 1.2797e-07)
(5.95587e-08 -4.98887e-08 1.53783e-07)
(6.51812e-08 -7.69777e-08 1.82802e-07)
(8.21865e-08 -1.20047e-07 2.16594e-07)
(1.12275e-07 -1.99917e-07 2.47264e-07)
(1.46978e-08 2.27113e-08 7.30447e-09)
(2.85849e-08 1.47815e-09 3.26487e-08)
(3.0044e-08 -2.29567e-08 5.88954e-08)
(2.76284e-08 -4.61405e-08 8.32628e-08)
(2.63774e-08 -6.88979e-08 1.07121e-07)
(3.10236e-08 -9.23218e-08 1.31717e-07)
(4.80799e-08 -1.24753e-07 1.55004e-07)
(8.19342e-08 -1.86213e-07 1.67337e-07)
(3.72599e-09 8.12682e-09 3.12697e-09)
(1.11311e-08 -1.341e-08 2.13908e-08)
(1.11772e-08 -3.6717e-08 4.41034e-08)
(8.76691e-09 -5.81647e-08 6.67534e-08)
(7.70714e-09 -7.77579e-08 8.83491e-08)
(1.27465e-08 -9.53309e-08 1.08007e-07)
(3.05842e-08 -1.18478e-07 1.22136e-07)
(6.45221e-08 -1.69413e-07 1.24089e-07)
(-7.10917e-10 2.54698e-09 4.18664e-09)
(3.86607e-09 -1.92033e-08 1.93959e-08)
(3.46342e-09 -4.24727e-08 3.80894e-08)
(1.5199e-09 -6.27506e-08 5.72648e-08)
(1.13609e-09 -7.95007e-08 7.51169e-08)
(6.85579e-09 -9.27412e-08 8.97449e-08)
(2.50601e-08 -1.11071e-07 9.80533e-08)
(5.80664e-08 -1.57662e-07 9.68919e-08)
(-2.14534e-09 7.91651e-10 4.46967e-09)
(1.68545e-09 -2.06562e-08 1.68714e-08)
(1.44808e-09 -4.35951e-08 3.13265e-08)
(8.9709e-11 -6.29243e-08 4.60973e-08)
(3.97128e-10 -7.78309e-08 5.95238e-08)
(6.66204e-09 -8.88327e-08 6.97683e-08)
(2.49131e-08 -1.05328e-07 7.47571e-08)
(5.69584e-08 -1.5007e-07 7.32516e-08)
(-2.469e-09 3.9215e-10 3.71224e-09)
(1.39063e-09 -2.04739e-08 1.28476e-08)
(1.5072e-09 -4.2798e-08 2.30444e-08)
(6.49646e-10 -6.13464e-08 3.33041e-08)
(1.46937e-09 -7.5252e-08 4.24384e-08)
(8.07453e-09 -8.53641e-08 4.91262e-08)
(2.62587e-08 -1.01346e-07 5.21338e-08)
(5.75687e-08 -1.45173e-07 5.09798e-08)
(-2.48885e-09 3.79666e-10 2.39025e-09)
(1.52384e-09 -1.99286e-08 7.95046e-09)
(1.93002e-09 -4.16651e-08 1.39886e-08)
(1.40863e-09 -5.96573e-08 1.99769e-08)
(2.54126e-09 -7.30756e-08 2.52311e-08)
(9.33e-09 -8.29115e-08 2.89988e-08)
(2.74396e-08 -9.8821e-08 3.06361e-08)
(5.82735e-08 -1.42179e-07 2.99445e-08)
(-2.46709e-09 4.21068e-10 8.19841e-10)
(1.63358e-09 -1.95605e-08 2.68255e-09)
(2.18688e-09 -4.09558e-08 4.6788e-09)
(1.82821e-09 -5.86611e-08 6.64272e-09)
(3.10536e-09 -7.18832e-08 8.35335e-09)
(9.97298e-09 -8.16558e-08 9.56978e-09)
(2.80397e-08 -9.75847e-08 1.0092e-08)
(5.86407e-08 -1.40743e-07 9.863e-09)
(3.303e-08 6.06355e-08 3.43592e-08)
(5.796e-08 4.12813e-08 7.66571e-08)
(6.18045e-08 1.34736e-08 1.06522e-07)
(5.97092e-08 -1.22423e-08 1.32517e-07)
(5.90696e-08 -3.7775e-08 1.58328e-07)
(6.52515e-08 -6.75398e-08 1.86191e-07)
(8.36136e-08 -1.14874e-07 2.17877e-07)
(1.09237e-07 -1.99015e-07 2.52374e-07)
(5.76761e-09 4.49294e-08 2.65356e-08)
(1.22449e-08 3.04288e-08 6.63425e-08)
(1.29999e-08 8.7703e-09 9.46663e-08)
(1.11742e-08 -1.5248e-08 1.18784e-07)
(9.66031e-09 -4.24192e-08 1.42384e-07)
(1.07787e-08 -7.42446e-08 1.68012e-07)
(1.62168e-08 -1.18214e-07 1.99059e-07)
(2.27917e-08 -1.90443e-07 2.38555e-07)
(-7.41032e-09 4.4069e-08 2.52476e-08)
(-1.54778e-08 3.00007e-08 6.47078e-08)
(-1.7746e-08 8.82658e-09 9.27458e-08)
(-1.78515e-08 -1.47601e-08 1.16638e-07)
(-1.87649e-08 -4.15484e-08 1.40048e-07)
(-2.28475e-08 -7.30163e-08 1.65494e-07)
(-3.19047e-08 -1.166e-07 1.9634e-07)
(-4.29434e-08 -1.88117e-07 2.35569e-07)
(-3.29061e-08 5.76024e-08 3.03215e-08)
(-5.87844e-08 4.0102e-08 7.14045e-08)
(-6.41229e-08 1.38819e-08 1.0036e-07)
(-6.39449e-08 -1.0576e-08 1.25675e-07)
(-6.56984e-08 -3.50099e-08 1.50922e-07)
(-7.47993e-08 -6.3742e-08 1.7826e-07)
(-9.66165e-08 -1.09943e-07 2.09417e-07)
(-1.26214e-07 -1.91915e-07 2.43332e-07)
(-2.82838e-08 5.14542e-08 3.04374e-08)
(-5.1745e-08 2.96367e-08 6.94122e-08)
(-5.66818e-08 1.63624e-09 9.75042e-08)
(-5.68005e-08 -2.26474e-08 1.22214e-07)
(-5.85975e-08 -4.56396e-08 1.47378e-07)
(-6.6797e-08 -7.14282e-08 1.75787e-07)
(-8.67613e-08 -1.13095e-07 2.08946e-07)
(-1.19749e-07 -1.90642e-07 2.38996e-07)
(-8.79987e-09 2.10952e-08 6.50246e-09)
(-2.26265e-08 1.48848e-09 3.04844e-08)
(-2.47255e-08 -2.1485e-08 5.57692e-08)
(-2.35052e-08 -4.33339e-08 7.94146e-08)
(-2.39992e-08 -6.4802e-08 1.02652e-07)
(-3.09326e-08 -8.69653e-08 1.26664e-07)
(-5.06749e-08 -1.18096e-07 1.49404e-07)
(-8.70576e-08 -1.77457e-07 1.61381e-07)
(2.13219e-09 6.32241e-09 2.61549e-09)
(-4.77144e-09 -1.3661e-08 1.99426e-08)
(-5.04044e-09 -3.55691e-08 4.18757e-08)
(-3.45488e-09 -5.57206e-08 6.38772e-08)
(-3.80537e-09 -7.40489e-08 8.49007e-08)
(-1.08201e-08 -9.03926e-08 1.04035e-07)
(-3.10553e-08 -1.12288e-07 1.17721e-07)
(-6.72838e-08 -1.61152e-07 1.19447e-07)
(6.59037e-09 5.17464e-10 3.82035e-09)
(2.79729e-09 -1.98015e-08 1.83826e-08)
(3.28841e-09 -4.17278e-08 3.64961e-08)
(4.72027e-09 -6.07341e-08 5.51447e-08)
(3.99326e-09 -7.62301e-08 7.25136e-08)
(-3.41972e-09 -8.82478e-08 8.67054e-08)
(-2.37619e-08 -1.05321e-07 9.46624e-08)
(-5.88503e-08 -1.49799e-07 9.33312e-08)
(8.04562e-09 -1.39901e-09 4.21295e-09)
(5.17383e-09 -2.15405e-08 1.61722e-08)
(5.71723e-09 -4.32048e-08 3.02186e-08)
(6.80329e-09 -6.1292e-08 4.45967e-08)
(5.62713e-09 -7.49517e-08 5.76493e-08)
(-2.09903e-09 -8.47237e-08 6.75545e-08)
(-2.2275e-08 -9.99384e-08 7.22734e-08)
(-5.62286e-08 -1.42519e-07 7.06385e-08)
(8.38336e-09 -1.90349e-09 3.54367e-09)
(5.59264e-09 -2.15592e-08 1.23907e-08)
(5.92622e-09 -4.26717e-08 2.23179e-08)
(6.67987e-09 -6.00092e-08 3.23102e-08)
(5.16936e-09 -7.26757e-08 4.11829e-08)
(-2.72289e-09 -8.15494e-08 4.76303e-08)
(-2.26721e-08 -9.6227e-08 5.04462e-08)
(-5.57583e-08 -1.37853e-07 4.92e-08)
(8.41813e-09 -1.97941e-09 2.29494e-09)
(5.53485e-09 -2.11394e-08 7.69226e-09)
(5.66647e-09 -4.17087e-08 1.3577e-08)
(6.19003e-09 -5.85146e-08 1.94108e-08)
(4.48184e-09 -7.07014e-08 2.45113e-08)
(-3.47883e-09 -7.92931e-08 2.81361e-08)
(-2.32471e-08 -9.38821e-08 2.96588e-08)
(-5.57686e-08 -1.35013e-07 2.8912e-08)
(8.40152e-09 -1.96786e-09 7.88955e-10)
(5.45993e-09 -2.08311e-08 2.59902e-09)
(5.48672e-09 -4.10819e-08 4.54555e-09)
(5.89889e-09 -5.76142e-08 6.45899e-09)
(4.10237e-09 -6.96094e-08 8.11897e-09)
(-3.88001e-09 -7.81353e-08 9.28804e-09)
(-2.35523e-08 -9.27356e-08 9.77219e-09)
(-5.57973e-08 -1.33654e-07 9.52481e-09)
(1.09081e-07 -2.04962e-07 2.55004e-07)
(8.31266e-08 -1.87484e-07 1.70864e-07)
(6.4237e-08 -1.72895e-07 1.2359e-07)
(5.69971e-08 -1.62495e-07 9.42994e-08)
(5.58172e-08 -1.55251e-07 7.03559e-08)
(5.64382e-08 -1.50416e-07 4.87142e-08)
(5.71199e-08 -1.47435e-07 2.85864e-08)
(5.74612e-08 -1.46007e-07 9.41796e-09)
(2.2659e-08 -1.90836e-07 2.46729e-07)
(1.57412e-08 -1.68357e-07 1.74547e-07)
(9.83409e-09 -1.54376e-07 1.30695e-07)
(7.97713e-09 -1.46065e-07 9.92019e-08)
(8.40174e-09 -1.40616e-07 7.26432e-08)
(9.34373e-09 -1.36903e-07 4.95232e-08)
(1.00586e-08 -1.34504e-07 2.88053e-08)
(1.04041e-08 -1.33314e-07 9.45582e-09)
(-4.30484e-08 -1.87606e-07 2.44614e-07)
(-3.23314e-08 -1.65347e-07 1.7312e-07)
(-2.35619e-08 -1.51513e-07 1.29602e-07)
(-1.95467e-08 -1.43311e-07 9.83681e-08)
(-1.83601e-08 -1.3794e-07 7.20325e-08)
(-1.81581e-08 -1.34284e-07 4.91074e-08)
(-1.81419e-08 -1.31921e-07 2.85642e-08)
(-1.81318e-08 -1.30749e-07 9.37684e-09)
(-1.26324e-07 -1.95154e-07 2.4858e-07)
(-9.7023e-08 -1.78135e-07 1.66557e-07)
(-7.53802e-08 -1.63916e-07 1.2029e-07)
(-6.59643e-08 -1.53814e-07 9.17779e-08)
(-6.31433e-08 -1.46795e-07 6.8509e-08)
(-6.25975e-08 -1.42121e-07 4.74577e-08)
(-6.2533e-08 -1.39244e-07 2.78581e-08)
(-6.25109e-08 -1.37868e-07 9.17949e-09)
)
;
    }
    symmetry
    {
        type            symmetry;
    }
    bottom
    {
        type            calculated;
        value           uniform (0 0 0);
    }
}


// ************************************************************************* //
