/*--------------------------------*- C++ -*----------------------------------*\
| =========                 |                                                 |
| \\      /  F ield         | OpenFOAM: The Open Source CFD Toolbox           |
|  \\    /   O peration     | Version:  v1912                                 |
|   \\  /    A nd           | Website:  www.openfoam.com                      |
|    \\/     M anipulation  |                                                 |
\*---------------------------------------------------------------------------*/
FoamFile
{
    version     2.0;
    format      ascii;
    class       volSymmTensorField;
    location    "0.82/solid";
    object      epsilon;
}
// * * * * * * * * * * * * * * * * * * * * * * * * * * * * * * * * * * * * * //

dimensions      [0 0 0 0 0 0 0];


internalField   nonuniform List<symmTensor> 
256
(
(-2.85705e-06 2.17513e-07 -7.85244e-08 1.46632e-06 2.50389e-07 -2.9096e-06)
(-6.63019e-07 -3.43044e-08 -3.36124e-08 9.1566e-07 2.48e-07 -2.5671e-06)
(-6.42975e-07 2.52176e-08 3.15375e-08 8.96759e-07 2.47753e-07 -2.52585e-06)
(-2.65063e-06 -2.12423e-07 7.70855e-08 1.3979e-06 2.49847e-07 -2.79264e-06)
(-2.96984e-06 3.79128e-09 -1.21323e-07 -5.08241e-07 3.92358e-08 -2.97823e-06)
(-1.1435e-06 -3.53361e-08 -5.61613e-08 -2.53181e-07 5.00912e-08 -2.5972e-06)
(-1.11642e-06 3.40743e-08 5.38989e-08 -2.57399e-07 5.08109e-08 -2.55672e-06)
(-2.75416e-06 -3.4571e-09 1.19385e-07 -5.13047e-07 4.10597e-08 -2.86363e-06)
(-3.04288e-06 -3.07937e-08 -1.31398e-07 -6.37452e-07 4.11542e-09 -3.04779e-06)
(-1.20668e-06 -3.3997e-08 -6.20754e-08 -4.72004e-07 5.81969e-09 -2.61485e-06)
(-1.17969e-06 3.46611e-08 6.0224e-08 -4.7364e-07 6.30498e-09 -2.5733e-06)
(-2.82342e-06 3.09201e-08 1.29496e-07 -6.39533e-07 5.37979e-09 -2.92946e-06)
(-3.10454e-06 -2.14006e-08 -1.36866e-07 -6.01111e-07 1.21e-08 -3.13099e-06)
(-1.16792e-06 -2.64153e-08 -6.4974e-08 -5.76958e-07 8.67549e-09 -2.66333e-06)
(-1.14092e-06 2.69115e-08 6.33554e-08 -5.78058e-07 8.87924e-09 -2.62073e-06)
(-2.88091e-06 2.16716e-08 1.35031e-07 -6.03717e-07 1.26454e-08 -3.00951e-06)
(-3.19862e-06 -2.20203e-09 -1.42611e-07 -6.29859e-07 3.49359e-08 -3.24156e-06)
(-1.16549e-06 -1.33649e-08 -6.81728e-08 -6.74036e-07 3.00067e-08 -2.75058e-06)
(-1.13812e-06 1.32969e-08 6.66034e-08 -6.75118e-07 3.00282e-08 -2.70711e-06)
(-2.9708e-06 2.32071e-09 1.40817e-07 -6.3249e-07 3.49667e-08 -3.11768e-06)
(-3.36434e-06 3.51934e-08 -1.47438e-07 -8.44772e-07 7.71745e-08 -3.39969e-06)
(-1.27438e-06 1.05774e-08 -7.11059e-08 -8.52999e-07 7.41599e-08 -2.89531e-06)
(-1.2467e-06 -1.18748e-08 6.94731e-08 -8.53596e-07 7.40316e-08 -2.85102e-06)
(-3.13293e-06 -3.56048e-08 1.45673e-07 -8.45959e-07 7.67704e-08 -3.27372e-06)
(-3.6484e-06 1.00164e-07 -1.45305e-07 -1.6814e-06 1.40195e-07 -3.65437e-06)
(-1.55815e-06 4.7284e-08 -7.03363e-08 -1.51341e-06 1.46631e-07 -3.16879e-06)
(-1.53014e-06 -5.10061e-08 6.85498e-08 -1.50809e-06 1.463e-07 -3.1237e-06)
(-3.41385e-06 -1.01294e-07 1.43556e-07 -1.66707e-06 1.39276e-07 -3.5266e-06)
(-4.14696e-06 1.3068e-07 -1.30362e-07 -4.14629e-06 1.65531e-07 -4.14416e-06)
(-1.94241e-06 6.35674e-08 -6.33642e-08 -3.78828e-06 1.81094e-07 -3.78522e-06)
(-1.91234e-06 -6.14806e-08 6.13782e-08 -3.74284e-06 1.80713e-07 -3.74011e-06)
(-3.90565e-06 -1.28827e-07 1.28616e-07 -4.01944e-06 1.64575e-07 -4.01847e-06)
(-2.30987e-06 1.30834e-07 -6.16619e-08 6.1141e-07 3.55157e-08 -5.77314e-07)
(-4.44639e-07 -5.77594e-08 -2.05441e-08 1.5612e-07 1.31923e-07 -4.8195e-07)
(-4.25475e-07 5.55169e-08 2.25637e-08 1.41473e-07 1.34754e-07 -4.78159e-07)
(-2.10731e-06 -1.23317e-07 6.22614e-08 5.54187e-07 4.33612e-08 -5.67444e-07)
(-2.39745e-06 -1.21619e-08 -9.61349e-08 -3.60152e-07 5.20821e-08 -9.33904e-07)
(-7.7963e-07 -3.94041e-08 -4.12142e-08 -1.54204e-07 1.03141e-07 -7.8454e-07)
(-7.546e-07 4.09381e-08 4.40147e-08 -1.60841e-07 1.04694e-07 -7.79591e-07)
(-2.19042e-06 1.33351e-08 9.67841e-08 -3.71272e-07 5.6332e-08 -9.2065e-07)
(-2.43545e-06 -3.24537e-08 -1.01583e-07 -4.82011e-07 4.42776e-08 -1.00313e-06)
(-8.1079e-07 -3.28654e-08 -4.5225e-08 -3.47249e-07 6.02304e-08 -8.35991e-07)
(-7.86375e-07 3.40494e-08 4.85658e-08 -3.502e-07 6.11556e-08 -8.31297e-07)
(-2.22598e-06 3.26385e-08 1.02321e-07 -4.87509e-07 4.68155e-08 -9.90298e-07)
(-2.47371e-06 -2.25169e-08 -1.034e-07 -5.16722e-07 4.74286e-08 -1.02388e-06)
(-7.64722e-07 -2.53317e-08 -4.57446e-08 -5.03051e-07 4.91182e-08 -8.44907e-07)
(-7.40472e-07 2.57273e-08 4.95494e-08 -5.04587e-07 4.96052e-08 -8.40393e-07)
(-2.26024e-06 2.2711e-08 1.04283e-07 -5.20563e-07 4.87375e-08 -1.01144e-06)
(-2.55359e-06 -3.98417e-09 -1.06402e-07 -5.62367e-07 7.80706e-08 -1.06551e-06)
(-7.56167e-07 -1.3376e-08 -4.74876e-08 -6.11558e-07 7.50504e-08 -8.75751e-07)
(-7.31482e-07 1.31919e-08 5.15082e-08 -6.12791e-07 7.51745e-08 -8.71246e-07)
(-2.33522e-06 4.10524e-09 1.07395e-07 -5.65535e-07 7.83104e-08 -1.0531e-06)
(-2.71787e-06 3.50437e-08 -1.08904e-07 -7.06671e-07 1.28339e-07 -1.16376e-06)
(-8.60565e-07 1.03533e-08 -4.95409e-08 -7.15404e-07 1.24293e-07 -9.65114e-07)
(-8.35365e-07 -1.16546e-08 5.35354e-08 -7.16219e-07 1.24108e-07 -9.60517e-07)
(-2.49446e-06 -3.53454e-08 1.09965e-07 -7.08516e-07 1.27649e-07 -1.15115e-06)
(-3.03213e-06 1.07249e-07 -1.0697e-07 -1.3619e-06 1.67638e-07 -1.36908e-06)
(-1.15097e-06 4.94136e-08 -4.9193e-08 -1.16961e-06 1.66838e-07 -1.17316e-06)
(-1.12512e-06 -5.31566e-08 5.30227e-08 -1.16482e-06 1.6641e-07 -1.16832e-06)
(-2.80383e-06 -1.08252e-07 1.08087e-07 -1.34879e-06 1.66267e-07 -1.35593e-06)
(-3.65062e-06 1.45499e-07 -9.97049e-08 -3.65641e-06 1.41021e-07 -1.68242e-06)
(-1.55841e-06 7.04387e-08 -4.69137e-08 -3.17229e-06 1.47326e-07 -1.51126e-06)
(-1.53022e-06 -6.85773e-08 5.08436e-08 -3.12661e-06 1.47e-07 -1.50587e-06)
(-3.41449e-06 -1.43657e-07 1.01002e-07 -3.52677e-06 1.40106e-07 -1.66804e-06)
(-1.9691e-06 7.08571e-08 -2.57942e-08 2.63904e-07 1.02845e-07 -7.77167e-08)
(-2.86952e-07 -8.41585e-08 -3.67975e-09 -1.13462e-07 1.96722e-07 -8.11659e-08)
(-2.68418e-07 8.25567e-08 4.59336e-09 -1.26573e-07 1.98197e-07 -8.15375e-08)
(-1.77322e-06 -6.33678e-08 2.59166e-08 2.11174e-07 1.07368e-07 -7.86644e-08)
(-2.06481e-06 -2.1462e-08 -3.91967e-08 -4.19404e-07 1.25136e-07 -2.71948e-07)
(-5.05345e-07 -4.46913e-08 -1.12912e-08 -2.49207e-07 1.73191e-07 -2.79892e-07)
(-4.81132e-07 4.70778e-08 1.24585e-08 -2.56078e-07 1.74245e-07 -2.80151e-07)
(-1.86417e-06 2.29489e-08 3.93745e-08 -4.31414e-07 1.28246e-07 -2.72519e-07)
(-2.09899e-06 -3.13165e-08 -3.90817e-08 -4.48409e-07 1.15606e-07 -3.75484e-07)
(-5.12327e-07 -3.17787e-08 -1.19237e-08 -3.42772e-07 1.30911e-07 -3.85285e-07)
(-4.88819e-07 3.3469e-08 1.3175e-08 -3.46306e-07 1.31644e-07 -3.85722e-07)
(-1.89596e-06 3.1686e-08 3.92951e-08 -4.55547e-07 1.17689e-07 -3.76473e-07)
(-2.13357e-06 -2.19897e-08 -3.75476e-08 -4.45468e-07 1.09101e-07 -4.2593e-07)
(-4.64522e-07 -2.46261e-08 -1.06932e-08 -4.43673e-07 1.11003e-07 -4.35345e-07)
(-4.4123e-07 2.5181e-08 1.21175e-08 -4.45679e-07 1.11433e-07 -4.36024e-07)
(-1.92649e-06 2.22493e-08 3.78309e-08 -4.50638e-07 1.10271e-07 -4.27518e-07)
(-2.21283e-06 -4.34739e-09 -3.71251e-08 -4.56728e-07 1.22915e-07 -4.80703e-07)
(-4.55345e-07 -1.39028e-08 -1.04441e-08 -5.0991e-07 1.20591e-07 -4.88387e-07)
(-4.3156e-07 1.36755e-08 1.19881e-08 -5.11481e-07 1.20721e-07 -4.89183e-07)
(-2.00033e-06 4.49502e-09 3.74778e-08 -4.60902e-07 1.23184e-07 -4.82566e-07)
(-2.3844e-06 3.55858e-08 -3.69053e-08 -5.48857e-07 1.42688e-07 -5.76681e-07)
(-5.6062e-07 9.83698e-09 -1.09105e-08 -5.58361e-07 1.39036e-07 -5.8231e-07)
(-5.36134e-07 -1.13081e-08 1.2451e-08 -5.59478e-07 1.38908e-07 -5.83075e-07)
(-2.16564e-06 -3.58658e-08 3.73136e-08 -5.51575e-07 1.42167e-07 -5.78432e-07)
(-2.71919e-06 1.09225e-07 -3.63001e-08 -1.14997e-06 1.33968e-07 -7.21356e-07)
(-8.57032e-07 4.97043e-08 -1.14453e-08 -9.55345e-07 1.29771e-07 -7.26672e-07)
(-8.31596e-07 -5.37281e-08 1.29303e-08 -9.50807e-07 1.29505e-07 -7.27272e-07)
(-2.49369e-06 -1.1022e-07 3.67828e-08 -1.13746e-06 1.33025e-07 -7.22639e-07)
(-3.36899e-06 1.47658e-07 -3.61602e-08 -3.40319e-06 8.04385e-08 -8.43631e-07)
(-1.27163e-06 7.11572e-08 -1.1599e-08 -2.90076e-06 7.73527e-08 -8.49073e-07)
(-1.24354e-06 -6.94679e-08 1.32724e-08 -2.85554e-06 7.72004e-08 -8.49481e-07)
(-3.1339e-06 -1.45808e-07 3.68424e-08 -3.27432e-06 7.99463e-08 -8.44386e-07)
(-1.77833e-06 4.61667e-08 -6.80094e-09 1.36071e-07 1.25486e-07 -1.19711e-08)
(-2.16591e-07 -9.29764e-08 4.1425e-09 -1.94987e-07 1.83046e-07 -3.84054e-08)
(-1.98677e-07 9.08095e-08 -3.64666e-09 -2.07598e-07 1.83891e-07 -3.88266e-08)
(-1.58787e-06 -3.92058e-08 6.78458e-09 8.52907e-08 1.28384e-07 -1.30916e-08)
(-1.87133e-06 -2.34855e-08 -8.84834e-09 -4.74601e-07 1.51789e-07 -1.2432e-07)
(-3.78891e-07 -4.55952e-08 4.79092e-09 -3.25278e-07 1.80768e-07 -1.74402e-07)
(-3.55392e-07 4.77879e-08 -4.22637e-09 -3.31988e-07 1.81441e-07 -1.75028e-07)
(-1.67604e-06 2.48947e-08 8.81863e-09 -4.86511e-07 1.53951e-07 -1.26009e-07)
(-1.90867e-06 -2.85264e-08 -6.58848e-09 -4.58095e-07 1.49673e-07 -2.36322e-07)
(-3.77028e-07 -2.98984e-08 6.11008e-09 -3.70729e-07 1.5816e-07 -2.94387e-07)
(-3.54157e-07 3.16518e-08 -5.65196e-09 -3.74404e-07 1.58668e-07 -2.95128e-07)
(-1.71084e-06 2.89475e-08 6.54417e-09 -4.65803e-07 1.51199e-07 -2.38318e-07)
(-1.94701e-06 -1.98366e-08 -4.15114e-09 -4.06696e-07 1.4024e-07 -3.22819e-07)
(-3.34039e-07 -2.31422e-08 7.77318e-09 -4.1278e-07 1.40062e-07 -3.8327e-07)
(-3.11346e-07 2.37817e-08 -7.33777e-09 -4.15057e-07 1.40383e-07 -3.84142e-07)
(-1.74499e-06 2.01484e-08 4.11515e-09 -4.12692e-07 1.41154e-07 -3.25146e-07)
(-2.03061e-06 -3.18692e-09 -2.57305e-09 -3.79311e-07 1.35367e-07 -4.03035e-07)
(-3.30275e-07 -1.34865e-08 8.71393e-09 -4.34826e-07 1.32802e-07 -4.63986e-07)
(-3.07038e-07 1.32532e-08 -8.25762e-09 -4.3667e-07 1.32924e-07 -4.64937e-07)
(-1.82277e-06 3.36332e-09 2.56338e-09 -3.84298e-07 1.35655e-07 -4.05534e-07)
(-2.20882e-06 3.58222e-08 -1.80229e-09 -4.50624e-07 1.24942e-07 -4.93941e-07)
(-4.3961e-07 9.23846e-09 8.74002e-09 -4.62413e-07 1.22145e-07 -5.54327e-07)
(-4.15552e-07 -1.08289e-08 -8.2803e-09 -4.63751e-07 1.22095e-07 -5.55265e-07)
(-1.9939e-06 -3.60899e-08 1.82952e-09 -4.53994e-07 1.24684e-07 -4.96355e-07)
(-2.55254e-06 1.06965e-07 -2.40884e-09 -1.04792e-06 8.9881e-08 -5.82768e-07)
(-7.36955e-07 4.75225e-08 7.68796e-09 -8.61815e-07 8.6426e-08 -6.41559e-07)
(-7.11737e-07 -5.17379e-08 -7.22736e-09 -8.57408e-07 8.62972e-08 -6.42419e-07)
(-2.32948e-06 -1.07951e-07 2.50014e-09 -1.03574e-06 8.93616e-08 -5.84907e-07)
(-3.20438e-06 1.43212e-07 -4.04495e-09 -3.25161e-06 4.1962e-08 -6.14959e-07)
(-1.14779e-06 6.82903e-08 7.27657e-09 -2.76144e-06 3.74217e-08 -6.71082e-07)
(-1.11968e-06 -6.66966e-08 -6.6685e-09 -2.71654e-06 3.7352e-08 -6.71909e-07)
(-2.97019e-06 -1.4134e-07 4.28061e-09 -3.12342e-06 4.17019e-08 -6.16935e-07)
(-1.67343e-06 3.89e-08 -8.79666e-10 8.82776e-08 1.14883e-07 -1.75218e-08)
(-1.92158e-07 -9.21309e-08 4.81523e-09 -2.19907e-07 1.43592e-07 -3.71638e-08)
(-1.7471e-07 8.94694e-08 -4.4806e-09 -2.32265e-07 1.44165e-07 -3.74257e-08)
(-1.48669e-06 -3.23743e-08 8.68134e-10 3.8719e-08 1.16916e-07 -1.83007e-08)
(-1.76325e-06 -2.23073e-08 4.7294e-10 -4.95401e-07 1.37671e-07 -1.05906e-07)
(-3.36095e-07 -4.394e-08 7.68839e-09 -3.57223e-07 1.51332e-07 -1.43735e-07)
(-3.13186e-07 4.5756e-08 -7.30068e-09 -3.63822e-07 1.51801e-07 -1.4425e-07)
(-1.57177e-06 2.35519e-08 -5.03248e-10 -5.07242e-07 1.39247e-07 -1.07441e-07)
(-1.80438e-06 -2.58701e-08 2.7277e-09 -4.65703e-07 1.42389e-07 -2.12331e-07)
(-3.34817e-07 -2.80391e-08 9.32161e-09 -3.87923e-07 1.45325e-07 -2.5629e-07)
(-3.12473e-07 2.96304e-08 -9.05947e-09 -3.91633e-07 1.45681e-07 -2.56928e-07)
(-1.61025e-06 2.62474e-08 -2.79028e-09 -4.73684e-07 1.43516e-07 -2.14231e-07)
(-1.84785e-06 -1.77291e-08 4.7213e-09 -3.89251e-07 1.34812e-07 -3.1243e-07)
(-2.98575e-07 -2.17626e-08 1.06328e-08 -3.99232e-07 1.33272e-07 -3.57833e-07)
(-2.76358e-07 2.23648e-08 -1.04631e-08 -4.01648e-07 1.33505e-07 -3.58556e-07)
(-1.64938e-06 1.80434e-08 -4.80522e-09 -3.95722e-07 1.35513e-07 -3.14561e-07)
(-1.93645e-06 -1.97222e-09 6.09367e-09 -3.40581e-07 1.20813e-07 -4.02957e-07)
(-3.01258e-07 -1.29256e-08 1.14144e-08 -3.96786e-07 1.18506e-07 -4.48268e-07)
(-2.78453e-07 1.26683e-08 -1.12818e-08 -3.98798e-07 1.18611e-07 -4.4904e-07)
(-1.73186e-06 2.16057e-09 -6.17853e-09 -3.46095e-07 1.21095e-07 -4.05196e-07)
(-2.1191e-06 3.55912e-08 6.601e-09 -4.06852e-07 9.67081e-08 -4.83363e-07)
(-4.14054e-07 8.59635e-09 1.14296e-08 -4.20253e-07 9.50842e-08 -5.27872e-07)
(-3.90354e-07 -1.02535e-08 -1.13074e-08 -4.2173e-07 9.50828e-08 -5.28644e-07)
(-1.9069e-06 -3.58485e-08 -6.668e-09 -4.10651e-07 9.66343e-08 -4.85563e-07)
(-2.46513e-06 1.04002e-07 5.68874e-09 -1.00408e-06 5.77673e-08 -5.39811e-07)
(-7.09334e-07 4.51345e-08 1.04764e-08 -8.26087e-07 5.61569e-08 -5.83035e-07)
(-6.84342e-07 -4.94492e-08 -1.03454e-08 -8.21762e-07 5.61044e-08 -5.83779e-07)
(-2.24393e-06 -1.04974e-07 -5.71426e-09 -9.92124e-07 5.7514e-08 -5.41873e-07)
(-3.11046e-06 1.38478e-07 4.1618e-09 -3.1556e-06 2.32108e-08 -5.47129e-07)
(-1.11409e-06 6.54076e-08 1.02042e-08 -2.6809e-06 2.02291e-08 -5.89837e-07)
(-1.08605e-06 -6.38654e-08 -9.98094e-09 -2.63617e-06 2.01975e-08 -5.90585e-07)
(-2.87709e-06 -1.36591e-07 -4.0991e-09 -3.02776e-06 2.30747e-08 -5.49138e-07)
(-1.61503e-06 3.74372e-08 1.43319e-10 7.0521e-08 8.92901e-08 -2.75466e-08)
(-1.84539e-07 -8.92248e-08 3.1902e-09 -2.27282e-07 1.02354e-07 -3.79398e-08)
(-1.6739e-07 8.624e-08 -2.96227e-09 -2.39463e-07 1.0274e-07 -3.81283e-08)
(-1.43062e-06 -3.11955e-08 -1.3911e-10 2.18198e-08 9.06528e-08 -2.81429e-08)
(-1.70371e-06 -2.0676e-08 1.55978e-09 -4.97351e-07 1.04831e-07 -1.11317e-07)
(-3.24919e-07 -4.20644e-08 5.46725e-09 -3.65205e-07 1.10315e-07 -1.31281e-07)
(-3.02403e-07 4.35819e-08 -5.18536e-09 -3.71741e-07 1.1064e-07 -1.3171e-07)
(-1.51464e-06 2.17879e-08 -1.55972e-09 -5.09156e-07 1.0593e-07 -1.12653e-07)
(-1.74797e-06 -2.40009e-08 3.1034e-09 -4.65464e-07 1.10781e-07 -2.10372e-07)
(-3.27186e-07 -2.67174e-08 6.64253e-09 -3.92336e-07 1.1108e-07 -2.33274e-07)
(-3.052e-07 2.8116e-08 -6.45314e-09 -3.96069e-07 1.11327e-07 -2.33841e-07)
(-1.55616e-06 2.4313e-08 -3.13047e-09 -4.73624e-07 1.11582e-07 -2.12133e-07)
(-1.7956e-06 -1.63042e-08 4.36677e-09 -3.81819e-07 1.05746e-07 -3.09302e-07)
(-2.96632e-07 -2.08831e-08 7.43887e-09 -3.93317e-07 1.04065e-07 -3.32368e-07)
(-2.74735e-07 2.13923e-08 -7.3416e-09 -3.9581e-07 1.04229e-07 -3.33015e-07)
(-1.59931e-06 1.65933e-08 -4.42039e-09 -3.8858e-07 1.06262e-07 -3.11304e-07)
(-1.888e-06 -1.20067e-09 5.21877e-09 -3.26616e-07 9.14628e-08 -3.98139e-07)
(-3.04164e-07 -1.25898e-08 7.88356e-09 -3.8256e-07 8.98435e-08 -4.20516e-07)
(-2.81645e-07 1.22861e-08 -7.84001e-09 -3.8467e-07 8.99273e-08 -4.21206e-07)
(-1.68539e-06 1.38461e-09 -5.28449e-09 -3.32455e-07 9.17065e-08 -4.00257e-07)
(-2.07313e-06 3.5239e-08 5.45293e-09 -3.92878e-07 6.7825e-08 -4.68969e-07)
(-4.18951e-07 8.0901e-09 7.84445e-09 -4.06782e-07 6.71379e-08 -4.90547e-07)
(-3.95489e-07 -9.79088e-09 -7.82273e-09 -4.08343e-07 6.7156e-08 -4.91247e-07)
(-1.86256e-06 -3.54916e-08 -5.51401e-09 -3.96947e-07 6.78412e-08 -4.71094e-07)
(-2.41883e-06 1.01822e-07 4.74134e-09 -9.86238e-07 3.66565e-08 -5.11561e-07)
(-7.11694e-07 4.35208e-08 7.22531e-09 -8.13134e-07 3.63378e-08 -5.32608e-07)
(-6.86864e-07 -4.78868e-08 -7.20231e-09 -8.0886e-07 3.63215e-08 -5.33303e-07)
(-2.19874e-06 -1.02785e-07 -4.78042e-09 -9.74424e-07 3.65488e-08 -5.13626e-07)
(-3.05722e-06 1.35285e-07 3.65889e-09 -3.09587e-06 1.3647e-08 -5.16806e-07)
(-1.11137e-06 6.35492e-08 7.05256e-09 -2.63177e-06 1.22389e-08 -5.38549e-07)
(-1.0834e-06 -6.20341e-08 -6.98231e-09 -2.58711e-06 1.2226e-08 -5.39255e-07)
(-2.82434e-06 -1.33388e-07 -3.65024e-09 -2.96819e-06 1.35812e-08 -5.18853e-07)
(-1.5833e-06 3.72737e-08 9.13425e-11 6.45815e-08 5.6077e-08 -3.37879e-08)
(-1.81924e-07 -8.70865e-08 1.60533e-09 -2.28617e-07 6.16334e-08 -3.8904e-08)
(-1.64948e-07 8.39105e-08 -1.47071e-09 -2.40681e-07 6.18585e-08 -3.90645e-08)
(-1.40024e-06 -3.11979e-08 -8.31026e-11 1.64316e-08 5.68587e-08 -3.42955e-08)
(-1.67174e-06 -1.95824e-08 8.47618e-10 -4.93693e-07 6.46597e-08 -1.17499e-07)
(-3.22357e-07 -4.0854e-08 2.79841e-09 -3.64818e-07 6.66173e-08 -1.26969e-07)
(-3.00069e-07 4.21845e-08 -2.62276e-09 -3.71315e-07 6.68111e-08 -1.27354e-07)
(-1.48405e-06 2.06119e-08 -8.35789e-10 -5.05464e-07 6.53091e-08 -1.18698e-07)
(-1.71806e-06 -2.2928e-08 1.65996e-09 -4.62255e-07 6.87037e-08 -2.11172e-07)
(-3.27662e-07 -2.59768e-08 3.41515e-09 -3.91309e-07 6.83341e-08 -2.21552e-07)
(-3.05883e-07 2.72328e-08 -3.29196e-09 -3.95059e-07 6.8482e-08 -2.22081e-07)
(-1.52759e-06 2.31899e-08 -1.66365e-09 -4.70527e-07 6.9189e-08 -2.12817e-07)
(-1.76834e-06 -1.55187e-08 2.3118e-09 -3.78651e-07 6.58033e-08 -3.04876e-07)
(-3.00792e-07 -2.04363e-08 3.80505e-09 -3.90608e-07 6.4664e-08 -3.14725e-07)
(-2.79078e-07 2.0859e-08 -3.74357e-09 -3.93146e-07 6.47639e-08 -3.15341e-07)
(-1.57329e-06 1.57803e-08 -2.33441e-09 -3.85587e-07 6.61249e-08 -3.06795e-07)
(-1.86306e-06 -8.07684e-10 2.73777e-09 -3.2345e-07 5.60338e-08 -3.88501e-07)
(-3.11206e-07 -1.2447e-08 4.00479e-09 -3.78892e-07 5.51433e-08 -3.97505e-07)
(-2.88848e-07 1.20956e-08 -3.98533e-09 -3.81057e-07 5.5198e-08 -3.9817e-07)
(-1.66155e-06 9.80967e-10 -2.77188e-09 -3.29478e-07 5.62002e-08 -3.90567e-07)
(-2.04937e-06 3.49769e-08 2.82885e-09 -3.90654e-07 4.01629e-08 -4.5294e-07)
(-4.26929e-07 7.78508e-09 3.9641e-09 -4.04477e-07 3.99711e-08 -4.61376e-07)
(-4.036e-07 -9.5177e-09 -3.96496e-09 -4.06087e-07 3.99892e-08 -4.62061e-07)
(-1.83971e-06 -3.52299e-08 -2.86389e-09 -3.94883e-07 4.02003e-08 -4.55053e-07)
(-2.39419e-06 1.00563e-07 2.42456e-09 -9.79448e-07 2.08733e-08 -4.90716e-07)
(-7.17804e-07 4.2661e-08 3.64894e-09 -8.0871e-07 2.10285e-08 -4.99173e-07)
(-6.93064e-07 -4.70555e-08 -3.65357e-09 -8.04466e-07 2.10261e-08 -4.99863e-07)
(-2.17472e-06 -1.0152e-07 -2.45006e-09 -9.67724e-07 2.0836e-08 -4.92815e-07)
(-3.02765e-06 1.33524e-07 1.79014e-09 -3.06149e-06 7.49374e-09 -4.98533e-07)
(-1.11411e-06 6.25759e-08 3.54117e-09 -2.60307e-06 6.98064e-09 -5.07972e-07)
(-1.08619e-06 -6.10752e-08 -3.52688e-09 -2.55844e-06 6.97622e-09 -5.08673e-07)
(-2.79501e-06 -1.31622e-07 -1.79349e-09 -2.93388e-06 7.46614e-09 -5.00626e-07)
(-1.56919e-06 3.72615e-08 1.22054e-11 6.30245e-08 1.90744e-08 -3.65687e-08)
(-1.80939e-07 -8.60989e-08 4.71942e-10 -2.28367e-07 2.06273e-08 -3.96563e-08)
(-1.64042e-07 8.28342e-08 -4.2727e-10 -2.40372e-07 2.07012e-08 -3.98069e-08)
(-1.38674e-06 -3.1262e-08 -8.60287e-12 1.51432e-08 1.93289e-08 -3.70386e-08)
(-1.65758e-06 -1.90983e-08 2.26898e-10 -4.90738e-07 2.17813e-08 -1.2065e-07)
(-3.21655e-07 -4.03226e-08 8.20489e-10 -3.63331e-07 2.22602e-08 -1.26036e-07)
(-2.9947e-07 4.15651e-08 -7.60543e-10 -3.6981e-07 2.23246e-08 -1.26403e-07)
(-1.47052e-06 2.00893e-08 -2.21007e-10 -5.02485e-07 2.1996e-08 -1.21781e-07)
(-1.70487e-06 -2.24635e-08 4.70631e-10 -4.59887e-07 2.31439e-08 -2.11588e-07)
(-3.28492e-07 -2.56672e-08 1.00301e-09 -3.89824e-07 2.29526e-08 -2.17077e-07)
(-3.06807e-07 2.68511e-08 -9.59677e-10 -3.93583e-07 2.30022e-08 -2.17589e-07)
(-1.515e-06 2.26999e-08 -4.6956e-10 -4.68212e-07 2.33067e-08 -2.13169e-07)
(-1.7564e-06 -1.51847e-08 6.67269e-10 -3.77447e-07 2.21833e-08 -3.01693e-07)
(-3.03351e-07 -2.02609e-08 1.11609e-09 -3.89505e-07 2.17943e-08 -3.0642e-07)
(-2.8172e-07 2.06349e-08 -1.094e-09 -3.92065e-07 2.18282e-08 -3.07025e-07)
(-1.5619e-06 1.54302e-08 -6.72828e-10 -3.84466e-07 2.22931e-08 -3.03567e-07)
(-1.85218e-06 -6.49175e-10 7.93595e-10 -3.2334e-07 1.87838e-08 -3.81754e-07)
(-3.15056e-07 -1.24005e-08 1.17083e-09 -3.78454e-07 1.85073e-08 -3.85662e-07)
(-2.92768e-07 1.20202e-08 -1.16423e-09 -3.80643e-07 1.85264e-08 -3.8632e-07)
(-1.65116e-06 8.14821e-10 -8.03627e-10 -3.29458e-07 1.8843e-08 -3.83797e-07)
(-2.03895e-06 3.48503e-08 8.17181e-10 -3.91193e-07 1.33081e-08 -4.431e-07)
(-4.31133e-07 7.65125e-09 1.1556e-09 -4.04859e-07 1.32821e-08 -4.46617e-07)
(-4.07861e-07 -9.40179e-09 -1.15707e-09 -4.0649e-07 1.32893e-08 -4.47301e-07)
(-1.82968e-06 -3.51048e-08 -8.28162e-10 -3.95497e-07 1.33252e-08 -4.45213e-07)
(-2.38319e-06 1.0001e-07 6.89885e-10 -9.77268e-07 6.84444e-09 -4.79503e-07)
(-7.21074e-07 4.23082e-08 1.06216e-09 -8.0743e-07 6.95122e-09 -4.83291e-07)
(-6.96371e-07 -4.67164e-08 -1.06585e-09 -8.032e-07 6.95156e-09 -4.83985e-07)
(-2.16398e-06 -1.00966e-07 -6.98317e-10 -9.65587e-07 6.83636e-09 -4.81624e-07)
(-3.01418e-06 1.32768e-07 4.81051e-10 -3.04588e-06 2.42076e-09 -4.89161e-07)
(-1.11574e-06 6.21764e-08 1.02405e-09 -2.58981e-06 2.30439e-09 -4.9393e-07)
(-1.08783e-06 -6.06822e-08 -1.02319e-09 -2.54519e-06 2.30342e-09 -4.94633e-07)
(-2.78163e-06 -1.30864e-07 -4.83184e-10 -2.91831e-06 2.41344e-09 -4.91282e-07)
)
;

boundaryField
{
    interface
    {
        type            calculated;
        value           nonuniform List<symmTensor> 
192
(
(-4.70289e-06 2.26699e-12 1.73796e-11 1.46632e-06 2.50389e-07 -2.9096e-06)
(-4.40991e-06 2.26056e-12 2.81981e-11 -5.08241e-07 3.92358e-08 -2.97823e-06)
(-4.50305e-06 6.27346e-13 3.22901e-11 -6.37452e-07 4.11542e-09 -3.04779e-06)
(-4.64456e-06 -2.23534e-12 3.3537e-11 -6.01111e-07 1.21e-08 -3.13099e-06)
(-4.81439e-06 -4.79312e-12 3.33776e-11 -6.29859e-07 3.49359e-08 -3.24156e-06)
(-5.03369e-06 -9.27132e-12 3.26247e-11 -8.44772e-07 7.71745e-08 -3.39969e-06)
(-5.32282e-06 -1.27001e-11 3.02203e-11 -1.6814e-06 1.40195e-07 -3.65437e-06)
(-5.87683e-06 -2.87351e-11 2.83737e-11 -4.14629e-06 1.65531e-07 -4.14416e-06)
(-3.89219e-06 1.63754e-12 8.51527e-12 6.1141e-07 3.55157e-08 -5.77314e-07)
(-3.69698e-06 1.78009e-12 1.47839e-11 -3.60152e-07 5.20821e-08 -9.33904e-07)
(-3.74951e-06 3.66979e-13 1.67099e-11 -4.82011e-07 4.42776e-08 -1.00313e-06)
(-3.85512e-06 -2.52809e-12 1.69617e-11 -5.16722e-07 4.74286e-08 -1.02388e-06)
(-4.00646e-06 -5.21042e-12 1.64211e-11 -5.62367e-07 7.80706e-08 -1.06551e-06)
(-4.22961e-06 -1.01289e-11 1.55697e-11 -7.06671e-07 1.28339e-07 -1.16376e-06)
(-4.57055e-06 -1.39142e-11 1.40154e-11 -1.3619e-06 1.67638e-07 -1.36908e-06)
(-5.32674e-06 -3.07194e-11 1.27932e-11 -3.65641e-06 1.41021e-07 -1.68242e-06)
(-3.39423e-06 1.40565e-12 6.66934e-12 2.63904e-07 1.02845e-07 -7.77167e-08)
(-3.31437e-06 1.54064e-12 1.14225e-11 -4.19404e-07 1.25136e-07 -2.71948e-07)
(-3.37417e-06 1.77924e-13 1.2849e-11 -4.48409e-07 1.15606e-07 -3.75484e-07)
(-3.47374e-06 -2.83759e-12 1.29977e-11 -4.45468e-07 1.09101e-07 -4.2593e-07)
(-3.6248e-06 -5.7471e-12 1.25439e-11 -4.56728e-07 1.22915e-07 -4.80703e-07)
(-3.86056e-06 -1.11851e-11 1.18538e-11 -5.48857e-07 1.42688e-07 -5.76681e-07)
(-4.23445e-06 -1.55037e-11 1.07397e-11 -1.14997e-06 1.33968e-07 -7.21356e-07)
(-5.04397e-06 -3.34017e-11 9.81798e-12 -3.40319e-06 8.04385e-08 -8.43631e-07)
(-3.09784e-06 1.05862e-12 4.03863e-12 1.36071e-07 1.25486e-07 -1.19711e-08)
(-3.05913e-06 1.04801e-12 7.31804e-12 -4.74601e-07 1.51789e-07 -1.2432e-07)
(-3.12824e-06 -3.27183e-13 8.25603e-12 -4.58095e-07 1.49673e-07 -2.36322e-07)
(-3.23006e-06 -3.35764e-12 8.26715e-12 -4.06696e-07 1.4024e-07 -3.22819e-07)
(-3.38453e-06 -6.36114e-12 7.86235e-12 -3.79311e-07 1.35367e-07 -4.03035e-07)
(-3.62855e-06 -1.20147e-11 7.31759e-12 -4.50624e-07 1.24942e-07 -4.93941e-07)
(-4.01768e-06 -1.65676e-11 6.61601e-12 -1.04792e-06 8.9881e-08 -5.82768e-07)
(-4.83639e-06 -3.47121e-11 6.07407e-12 -3.25161e-06 4.1962e-08 -6.14959e-07)
(-2.92382e-06 8.89823e-13 2.93795e-12 8.82776e-08 1.14883e-07 -1.75218e-08)
(-2.89613e-06 7.36956e-13 5.32412e-12 -4.95401e-07 1.37671e-07 -1.05906e-07)
(-2.97046e-06 -7.02144e-13 6.014e-12 -4.65703e-07 1.42389e-07 -2.12331e-07)
(-3.07601e-06 -3.77751e-12 6.01972e-12 -3.89251e-07 1.34812e-07 -3.1243e-07)
(-3.23438e-06 -6.884e-12 5.72056e-12 -3.40581e-07 1.20813e-07 -4.02957e-07)
(-3.48329e-06 -1.27223e-11 5.31555e-12 -4.06852e-07 9.67081e-08 -4.83363e-07)
(-3.87797e-06 -1.74882e-11 4.8279e-12 -1.00408e-06 5.77673e-08 -5.39811e-07)
(-4.69134e-06 -3.58891e-11 4.44111e-12 -3.1556e-06 2.32108e-08 -5.47129e-07)
(-2.82255e-06 7.58499e-13 1.77933e-12 7.0521e-08 8.92901e-08 -2.75466e-08)
(-2.79792e-06 4.84062e-13 3.33916e-12 -4.97351e-07 1.04831e-07 -1.11317e-07)
(-2.87497e-06 -1.01348e-12 3.79465e-12 -4.65464e-07 1.10781e-07 -2.10372e-07)
(-2.98358e-06 -4.11675e-12 3.78852e-12 -3.81819e-07 1.05746e-07 -3.09302e-07)
(-3.14501e-06 -7.27969e-12 3.58068e-12 -3.26616e-07 9.14628e-08 -3.98139e-07)
(-3.39658e-06 -1.32086e-11 3.30707e-12 -3.92878e-07 6.7825e-08 -4.68969e-07)
(-3.79249e-06 -1.80839e-11 3.00833e-12 -9.86238e-07 3.66565e-08 -5.11561e-07)
(-4.59827e-06 -3.66076e-11 2.78326e-12 -3.09587e-06 1.3647e-08 -5.16806e-07)
(-2.76637e-06 6.93792e-13 1.03962e-12 6.45815e-08 5.6077e-08 -3.37879e-08)
(-2.74278e-06 3.36209e-13 1.94916e-12 -4.93693e-07 6.46597e-08 -1.17499e-07)
(-2.82126e-06 -1.21088e-12 2.21707e-12 -4.62255e-07 6.87037e-08 -2.11172e-07)
(-2.93183e-06 -4.34032e-12 2.21445e-12 -3.78651e-07 6.58033e-08 -3.04876e-07)
(-3.09519e-06 -7.54663e-12 2.09448e-12 -3.2345e-07 5.60338e-08 -3.88501e-07)
(-3.34803e-06 -1.35383e-11 1.93293e-12 -3.90654e-07 4.01629e-08 -4.5294e-07)
(-3.7437e-06 -1.84905e-11 1.76451e-12 -9.79448e-07 2.08733e-08 -4.90716e-07)
(-4.54373e-06 -3.71079e-11 1.62978e-12 -3.06149e-06 7.49374e-09 -4.98533e-07)
(-2.74119e-06 6.54141e-13 3.0587e-13 6.30245e-08 1.90744e-08 -3.65687e-08)
(-2.71801e-06 2.53518e-13 5.95619e-13 -4.90738e-07 2.17813e-08 -1.2065e-07)
(-2.79711e-06 -1.31626e-12 6.82229e-13 -4.59887e-07 2.31439e-08 -2.11588e-07)
(-2.90861e-06 -4.45353e-12 6.80179e-13 -3.77447e-07 2.21833e-08 -3.01693e-07)
(-3.07287e-06 -7.67698e-12 6.40926e-13 -3.2334e-07 1.87838e-08 -3.81754e-07)
(-3.3262e-06 -1.36909e-11 5.88051e-13 -3.91193e-07 1.33081e-08 -4.431e-07)
(-3.72151e-06 -1.86781e-11 5.38195e-13 -9.77268e-07 6.84444e-09 -4.79503e-07)
(-4.51859e-06 -3.73336e-11 4.96106e-13 -3.04588e-06 2.42076e-09 -4.89161e-07)
(-2.85705e-06 2.17513e-07 -2.41621e-11 1.46632e-06 -5.8583e-12 -4.80766e-06)
(-2.96984e-06 3.79128e-09 -4.12404e-11 -5.08241e-07 -7.21952e-12 -4.48819e-06)
(-3.04288e-06 -3.07937e-08 -4.85207e-11 -6.37452e-07 -6.31244e-12 -4.58238e-06)
(-3.10454e-06 -2.14006e-08 -5.13778e-11 -6.01111e-07 -4.76433e-12 -4.73383e-06)
(-3.19862e-06 -2.20203e-09 -5.24354e-11 -6.29859e-07 -4.0704e-12 -4.91043e-06)
(-3.36434e-06 3.51934e-08 -5.3289e-11 -8.44772e-07 -4.31475e-12 -5.12625e-06)
(-3.6484e-06 1.00164e-07 -5.44023e-11 -1.6814e-06 -5.23552e-12 -5.40328e-06)
(-4.14696e-06 1.3068e-07 -5.99488e-11 -4.14629e-06 -6.5807e-12 -5.94697e-06)
(-6.63019e-07 -3.43044e-08 -1.41761e-11 9.1566e-07 -3.50219e-12 -4.29266e-06)
(-1.1435e-06 -3.53361e-08 -2.7259e-11 -2.53181e-07 -5.56994e-12 -3.98904e-06)
(-1.20668e-06 -3.3997e-08 -3.2398e-11 -4.72004e-07 -5.11341e-12 -4.01063e-06)
(-1.16792e-06 -2.64153e-08 -3.42056e-11 -5.76958e-07 -3.36397e-12 -4.113e-06)
(-1.16549e-06 -1.33649e-08 -3.48881e-11 -6.74036e-07 -2.13704e-12 -4.26039e-06)
(-1.27438e-06 1.05774e-08 -3.58415e-11 -8.52999e-07 -1.4568e-12 -4.46351e-06)
(-1.55815e-06 4.7284e-08 -3.80315e-11 -1.51341e-06 -1.57397e-12 -4.77359e-06)
(-1.94241e-06 6.35674e-08 -4.52931e-11 -3.78828e-06 -2.06343e-12 -5.52515e-06)
(-6.42975e-07 2.52176e-08 -1.39983e-11 8.96759e-07 -2.56779e-12 -4.21796e-06)
(-1.11642e-06 3.40743e-08 -2.72237e-11 -2.57399e-07 -4.58964e-12 -3.9178e-06)
(-1.17969e-06 3.46611e-08 -3.26038e-11 -4.7364e-07 -4.29865e-12 -3.93701e-06)
(-1.14092e-06 2.69115e-08 -3.45445e-11 -5.78058e-07 -2.38572e-12 -4.03722e-06)
(-1.13812e-06 1.32969e-08 -3.52191e-11 -6.75118e-07 -7.93074e-13 -4.18298e-06)
(-1.2467e-06 -1.18748e-08 -3.60007e-11 -8.53596e-07 5.21485e-13 -4.38462e-06)
(-1.53014e-06 -5.10061e-08 -3.78574e-11 -1.50809e-06 1.21695e-12 -4.69335e-06)
(-1.91234e-06 -6.14806e-08 -4.48657e-11 -3.74284e-06 1.32667e-12 -5.44565e-06)
(-2.65063e-06 -2.12423e-07 -1.51828e-11 1.3979e-06 -2.09963e-12 -4.59405e-06)
(-2.75416e-06 -3.4571e-09 -3.07396e-11 -5.13047e-07 -4.00005e-12 -4.28491e-06)
(-2.82342e-06 3.09201e-08 -3.75351e-11 -6.39533e-07 -3.70833e-12 -4.37135e-06)
(-2.88091e-06 2.16716e-08 -4.01094e-11 -6.03717e-07 -1.64186e-12 -4.51647e-06)
(-2.9708e-06 2.32071e-09 -4.09837e-11 -6.3249e-07 1.26074e-13 -4.68854e-06)
(-3.13293e-06 -3.56048e-08 -4.19891e-11 -8.45959e-07 1.73923e-12 -4.90046e-06)
(-3.41385e-06 -1.01294e-07 -4.36227e-11 -1.66707e-06 2.90281e-12 -5.17442e-06)
(-3.90565e-06 -1.28827e-07 -5.10266e-11 -4.01944e-06 3.98153e-12 -5.7239e-06)
(-4.33014e-06 4.76391e-12 3.97959e-12 1.3979e-06 2.49847e-07 -2.79264e-06)
(-4.0327e-06 6.40725e-12 8.05884e-12 -5.13047e-07 4.10597e-08 -2.86363e-06)
(-4.11813e-06 4.91123e-12 9.43363e-12 -6.39533e-07 5.37979e-09 -2.92946e-06)
(-4.25129e-06 1.59642e-12 1.01338e-11 -6.03717e-07 1.26454e-08 -3.00951e-06)
(-4.41351e-06 -2.57507e-13 1.06948e-11 -6.3249e-07 3.49667e-08 -3.11768e-06)
(-4.6262e-06 -2.83191e-12 1.22951e-11 -8.45959e-07 7.67704e-08 -3.27372e-06)
(-4.90974e-06 -2.64667e-12 1.36649e-11 -1.66707e-06 1.39276e-07 -3.5266e-06)
(-5.45437e-06 -1.67495e-11 1.75549e-11 -4.01944e-06 1.64575e-07 -4.01847e-06)
(-3.52541e-06 1.9113e-12 -2.04429e-12 5.54187e-07 4.33612e-08 -5.67444e-07)
(-3.33299e-06 2.92073e-12 -2.07515e-12 -3.71272e-07 5.6332e-08 -9.2065e-07)
(-3.3794e-06 2.24411e-12 -2.62578e-12 -4.87509e-07 4.68155e-08 -9.90298e-07)
(-3.47666e-06 3.26635e-13 -2.73103e-12 -5.20563e-07 4.87375e-08 -1.01144e-06)
(-3.61909e-06 -2.0758e-13 -2.35193e-12 -5.65535e-07 7.83104e-08 -1.0531e-06)
(-3.8332e-06 -1.68627e-12 -8.97273e-13 -7.08516e-07 1.27649e-07 -1.15115e-06)
(-4.16564e-06 -5.63822e-14 9.70955e-13 -1.34879e-06 1.66267e-07 -1.35593e-06)
(-4.91083e-06 -1.3039e-11 3.84486e-12 -3.52677e-06 1.40106e-07 -1.66804e-06)
(-3.03955e-06 1.0616e-12 -1.21407e-12 2.11174e-07 1.07368e-07 -7.86644e-08)
(-2.96153e-06 1.56884e-12 -6.73291e-13 -4.31414e-07 1.28246e-07 -2.72519e-07)
(-3.01513e-06 1.24503e-12 -4.60031e-13 -4.55547e-07 1.17689e-07 -3.76473e-07)
(-3.10617e-06 6.07867e-14 -1.06824e-13 -4.50638e-07 1.10271e-07 -4.27518e-07)
(-3.24737e-06 3.23478e-13 4.66548e-13 -4.60902e-07 1.23184e-07 -4.82566e-07)
(-3.47201e-06 -5.17401e-13 1.67251e-12 -5.51575e-07 1.42167e-07 -5.78432e-07)
(-3.83432e-06 1.8467e-12 2.94884e-12 -1.13746e-06 1.33025e-07 -7.22639e-07)