/*--------------------------------*- C++ -*----------------------------------*\
| =========                 |                                                 |
| \\      /  F ield         | OpenFOAM: The Open Source CFD Toolbox           |
|  \\    /   O peration     | Version:  v1912                                 |
|   \\  /    A nd           | Website:  www.openfoam.com                      |
|    \\/     M anipulation  |                                                 |
\*---------------------------------------------------------------------------*/
FoamFile
{
    version     2.0;
    format      ascii;
    class       volScalarField;
    location    "0.82/solid";
    object      sigmaEq;
}
// * * * * * * * * * * * * * * * * * * * * * * * * * * * * * * * * * * * * * //

dimensions      [1 -1 -2 0 0 0 0];


internalField   nonuniform List<scalar> 
256
(
675347
469549
461646
640381
380875
316075
310356
355107
372187
290780
285310
346255
388963
287170
281754
362489
400454
289878
284474
373562
392996
288641
283277
365921
308969
255323
250971
284166
66068.4
288810
286433
67676.3
393464
102997
99623.5
358145
281465
101576
98717.8
250438
271289
76529.3
74362.7
240423
272393
51331.1
50071.8
241041
278140
42608.6
42313.4
246140
284646
48943.7
48646.5
252041
263382
48288
49065.9
231279
309160
256030
251604
284103
322305
64198.6
62850
287627
267563
60578.8
58382.5
236407
261888
43026.8
41315.2
230469
263092
30694.2
30640.1
231029
270520
33282.1
34337.6
237679
283172
37421.3
37806.1
249555
284192
48112.5
47917
251274
393850
290055
284592
366338
286055
60543.8
60233.1
252735
249677
57164.4
56427.1
220110
245423
44638.2
44513.7
215182
246588
39340
40554.2
215404
254809
40269.2
42134.1
222644
269457
36506.5
37806.1
236264
276867
39512.5
39718.3
244185
404017
292659
287127
376439
265247
52507.4
52507.8
232674
233893
52440.2
52223.8
205170
231194
43278.1
43595
201642
233370
38530.1
39957.1
202711
243012
37595.5
39560.5
211283
259204
30778.5
32120.6
226332
269608
37756.5
37658.2
237165
399633
290502
284933
372118
253427
44834.1
44912.7
221189
223172
45851.6
45711.3
194722
221647
37201.7
37530.6
192307
225108
31201.9
32681
194611
236170
28962.2
31003.4
204599
253673
21783.6
22873.4
220946
266152
40799.3
40174.4
233888
395504
288779
283161
367997
246956
38758.5
38836.5
214850
216819
39709
39512.5
188409
215996
30042.1
30294.4
186667
220432
22214.8
23893.5
189943
232503
19352.2
21757.3
200960
250937
13311.1
14096
218267
264842
44259.7
43315
232701
393342
287772
282116
365826
244066
35226.1
35288.9
212000
213887
35923.3
35668.8
185462
213390
25076.6
25272.4
184036
218325
15251.5
17361.1
187816
230898
11937.9
15167.9
199353
249802
6958.49
7553.35
217152
264434
46166.9
45091.6
232356
392524
287315
281642
365003
)
;

boundaryField
{
    interface
    {
        type            calculated;
        value           nonuniform List<scalar> 
192
(
848248
526041
520246
544379
563299
562962
487163
270027
621998
475612
467935
479540
496147
511620
495106
487561
539136
458359
456870
468302
486665
508788
511955
564482
487684
429033
430721
442539
461938
486753
497127
568342
456507
404330
408010
420917
441655
468234
482083
558319
438386
388067
392904
406940
428897
456726
472597
550075
428425
378680
384136
398978
421771
450394
467456
545338
423995
374432
380166
395409
418613
447614
465235
543298
857566
535210
529868
554742
574117
573488
496869
279156
711696
520058
497696
504777
518110
526061
498320
477719
699243
510148
487762
494652
507830
515672
488542
471147
816558
505506
499677
523678
542511
541760
468081
273563
792790
477792
471150
494174
512088
510816
435173
225146
561718
420088
411905
422321
437625
451831
435075
435197
480227
403479
401230
411384
428290
448848
451610
511536
430613
376003
376659
387006
404767
427737
437366
515793
400585
352439
354983
366305
385306
409883
422797
506069
383108
336738
340395
352803
372982
398740
413613
497985
373484
327608
331866
345065
366068
392596
408653
493336
369198
323461
327989
341586
362996
389896
406518
491336
280034
497687
575330
579613
569534
561041
556100
553960
478318
499651
528703
523398
513505
505931
501197
498958
471659
489720
518089
512792
502905
495313
490561
488313
274019
468457
542948
547018
536935
528409
523431
521268
)
;
    }
    symmetry
    {
        type            symmetry;
    }
    bottom
    {
        type            calculated;
        value           nonuniform List<scalar> 
32
(
975655
516961
396319
348318
324125
310928
303818
300669
617799
130754
62203.9
58289.8
51213
44079.1
38358.7
35024.3
608004
126023
58781.7
55835
48783
41404.9
35328.5
31699.4
931475
477261
357358
310575
287213
274489
267618
264567
)
;
    }
}


// ************************************************************************* //
