/*--------------------------------*- C++ -*----------------------------------*\
| =========                 |                                                 |
| \\      /  F ield         | OpenFOAM: The Open Source CFD Toolbox           |
|  \\    /   O peration     | Version:  v1912                                 |
|   \\  /    A nd           | Website:  www.openfoam.com                      |
|    \\/     M anipulation  |                                                 |
\*---------------------------------------------------------------------------*/
FoamFile
{
    version     2.0;
    format      ascii;
    class       volScalarField;
    location    "0.82/solid";
    object      sigmaHyd;
}
// * * * * * * * * * * * * * * * * * * * * * * * * * * * * * * * * * * * * * //

dimensions      [1 -1 -2 0 0 0 0];


internalField   nonuniform List<scalar> 
256
(
-716721
-385744
-378678
-674228
-1.07605e+06
-665647
-655090
-1.02181e+06
-1.12135e+06
-715589
-704438
-1.0654e+06
-1.13944e+06
-734702
-723286
-1.08236e+06
-1.17834e+06
-765018
-753391
-1.12016e+06
-1.26813e+06
-837114
-825221
-1.20877e+06
-1.49736e+06
-1.04006e+06
-1.02699e+06
-1.43459e+06
-2.0729e+06
-1.58599e+06
-1.56588e+06
-1.99059e+06
-379295
-128412
-127027
-353428
-615250
-286396
-282505
-580391
-653433
-332338
-327979
-617298
-669053
-352113
-347575
-632041
-696910
-373913
-369253
-658975
-764717
-423514
-418684
-725689
-960519
-582290
-576376
-918091
-1.49824e+06
-1.04033e+06
-1.02712e+06
-1.43488e+06
-297151
-80263.2
-79421.4
-273452
-459360
-172407
-169560
-428017
-487148
-206731
-203475
-454664
-500828
-223923
-220489
-467441
-525044
-242274
-238704
-490633
-584989
-283549
-279781
-549274
-765085
-423175
-418279
-725632
-1.2693e+06
-836911
-824761
-1.20877e+06
-275706
-74997.2
-74183.6
-252612
-411708
-146428
-143735
-381426
-433848
-173691
-170615
-402493
-446088
-188348
-185091
-413804
-468826
-204848
-201441
-435433
-525564
-242725
-239095
-490708
-697204
-373388
-368594
-658354
-1.17849e+06
-763384
-751355
-1.11842e+06
-267112
-74871.4
-74066.7
-244379
-394093
-139509
-136876
-364410
-413736
-163172
-160172
-383028
-424923
-175940
-172760
-393277
-446665
-191052
-187715
-413859
-501553
-227030
-223455
-467186
-668171
-353076
-348314
-629654
-1.13553e+06
-730805
-718801
-1.07566e+06
-262009
-74960.1
-74163.6
-239490
-385397
-136901
-134309
-356075
-403968
-158799
-155852
-373653
-414454
-170386
-167260
-383199
-435460
-184540
-181253
-403016
-489163
-219380
-215847
-455100
-652771
-342906
-338171
-614466
-1.11165e+06
-713615
-701628
-1.0519e+06
-258752
-74907.4
-74115.5
-236350
-380489
-135691
-133123
-351369
-398581
-156754
-153837
-368488
-408645
-167687
-164594
-377612
-429169
-181267
-178012
-396932
-482161
-215464
-211958
-448274
-644060
-337615
-332899
-605876
-1.09795e+06
-704192
-692217
-1.03825e+06
-257123
-74827
-74036.9
-234772
-378161
-135170
-132614
-349132
-396057
-155899
-152996
-366064
-405923
-166546
-163468
-374990
-426212
-179862
-176622
-394069
-478874
-213768
-210275
-445066
-639993
-335299
-330593
-601864
-1.09154e+06
-699913
-687942
-1.03187e+06
)
;

boundaryField
{
    interface
    {
        type            zeroGradient;
    }
    symmetry
    {
        type            symmetry;
    }
    bottom
    {
        type            zeroGradient;
    }
}


// ************************************************************************* //
