/*--------------------------------*- C++ -*----------------------------------*\
| =========                 |                                                 |
| \\      /  F ield         | OpenFOAM: The Open Source CFD Toolbox           |
|  \\    /   O peration     | Version:  v1912                                 |
|   \\  /    A nd           | Website:  www.openfoam.com                      |
|    \\/     M anipulation  |                                                 |
\*---------------------------------------------------------------------------*/
FoamFile
{
    version     2.0;
    format      ascii;
    class       surfaceScalarField;
    location    "0.81/fluid";
    object      meshPhi;
}
// * * * * * * * * * * * * * * * * * * * * * * * * * * * * * * * * * * * * * //

dimensions      [0 3 -1 0 0 0 0];
oriented        oriented;


internalField   nonuniform List<scalar> 
41600
(
1.44148e-13
-3.81351e-13
1.43563e-13
-1.48301e-13
2.75604e-13
-1.11081e-12
4.23187e-13
-4.37377e-13
3.99958e-13
-1.78745e-12
6.97516e-13
-7.21592e-13
5.22402e-13
-2.43489e-12
9.84844e-13
-1.02019e-12
6.48048e-13
-3.06897e-12
1.3017e-12
-1.35071e-12
7.82411e-13
-3.69657e-12
1.6636e-12
-1.72986e-12
9.3211e-13
-4.31345e-12
2.08552e-12
-2.17416e-12
1.106e-12
-4.90007e-12
2.58197e-12
-2.70033e-12
1.31718e-12
-5.41416e-12
3.16678e-12
-3.32545e-12
1.58725e-12
-5.77753e-12
3.85243e-12
-4.06747e-12
1.95513e-12
-5.85242e-12
4.64974e-12
-4.94704e-12
2.49626e-12
-5.39626e-12
5.56943e-12
-5.99488e-12
3.35766e-12
-3.97478e-12
6.62901e-12
-7.27303e-12
4.79102e-12
-8.30834e-13
7.86104e-12
-8.92072e-12
6.87594e-12
4.78906e-12
9.23846e-12
-1.10782e-11
1.39782e-11
1.15702e-11
-1.66766e-11
4.28721e-13
-7.51473e-13
4.26943e-13
-4.41037e-13
8.19549e-13
-2.1894e-12
1.25843e-12
-1.30063e-12
1.18893e-12
-3.52465e-12
2.07387e-12
-2.14543e-12
1.55205e-12
-4.80473e-12
2.92745e-12
-3.03243e-12
1.92387e-12
-6.06236e-12
3.86807e-12
-4.0135e-12
2.32036e-12
-7.31375e-12
4.94165e-12
-5.13808e-12
2.76039e-12
-8.55491e-12
6.19244e-12
-6.45495e-12
3.26845e-12
-9.75488e-12
7.66324e-12
-8.0132e-12
3.87941e-12
-1.08441e-11
9.39434e-12
-9.86246e-12
4.64768e-12
-1.16953e-11
1.14208e-11
-1.20528e-11
5.66513e-12
-1.20948e-11
1.37685e-11
-1.4636e-11
7.09626e-12
-1.17045e-11
1.64504e-11
-1.7675e-11
9.22901e-12
-1.00332e-11
1.94649e-11
-2.12692e-11
1.24753e-11
-6.52058e-12
2.27806e-11
-2.55976e-11
1.6728e-11
-1.2204e-12
2.61647e-11
-3.06633e-11
5.10758e-12
2.87684e-11
-3.69778e-11
7.02387e-13
-1.09932e-12
6.99404e-13
-7.22482e-13
1.34222e-12
-3.20399e-12
2.0612e-12
-2.13026e-12
1.94589e-12
-5.16175e-12
3.39577e-12
-3.51279e-12
2.5376e-12
-7.04454e-12
4.7912e-12
-4.96266e-12
3.14111e-12
-8.90379e-12
6.32686e-12
-6.56406e-12
3.78143e-12
-1.07691e-11
8.07734e-12
-8.39722e-12
4.48723e-12
-1.26441e-11
1.01145e-11
-1.05412e-11
5.29402e-12
-1.44997e-11
1.25078e-11
-1.30751e-11
6.24895e-12
-1.62614e-11
1.53222e-11
-1.60781e-11
7.41853e-12
-1.77912e-11
1.86126e-11
-1.96267e-11
8.90167e-12
-1.88637e-11
2.24126e-11
-2.37898e-11
1.085e-11
-1.91455e-11
2.67168e-11
-2.86243e-11
1.34794e-11
-1.82158e-11
3.14517e-11
-3.41675e-11
1.69935e-11
-1.57292e-11
3.64134e-11
-4.0409e-11
2.09643e-11
-1.19979e-11
4.10836e-11
-4.69275e-11
-7.8656e-12
4.47816e-11
-5.4741e-11
9.58537e-13
-1.4136e-12
9.54343e-13
-9.85792e-13
1.83072e-12
-4.12179e-12
2.81188e-12
-2.90593e-12
2.65153e-12
-6.64653e-12
4.63031e-12
-4.78947e-12
3.45285e-12
-9.08432e-12
6.52844e-12
-6.76133e-12
4.26573e-12
-1.15071e-11
8.61323e-12
-8.93485e-12
5.12236e-12
-1.39618e-11
1.09851e-11
-1.14179e-11
6.05848e-12
-1.64679e-11
1.37411e-11
-1.43169e-11
7.11621e-12
-1.90114e-11
1.69752e-11
-1.77383e-11
8.34699e-12
-2.15353e-11
2.07762e-11
-2.17881e-11
9.8146e-12
-2.39244e-11
2.52191e-11
-2.65672e-11
1.15973e-11
-2.59865e-11
3.03489e-11
-3.21599e-11
1.37861e-11
-2.74342e-11
3.61498e-11
-3.86147e-11
1.64618e-11
-2.78931e-11
4.24919e-11
-4.59064e-11
1.96082e-11
-2.69985e-11
4.90326e-11
-5.38607e-11
2.27247e-11
-2.47964e-11
5.50075e-11
-6.17534e-11
-2.16316e-11
5.94033e-11
-7.0251e-11
1.19144e-12
-1.68315e-12
1.18598e-12
-1.22496e-12
2.2739e-12
-4.91026e-12
3.4932e-12
-3.60971e-12
3.28924e-12
-7.92633e-12
5.74843e-12
-5.94534e-12
4.2754e-12
-1.08518e-11
8.09701e-12
-8.38464e-12
5.26902e-12
-1.37796e-11
1.06695e-11
-1.10659e-11
6.30753e-12
-1.67773e-11
1.35884e-11
-1.41205e-11
7.43145e-12
-1.98857e-11
1.6972e-11
-1.76778e-11
8.68668e-12
-2.31165e-11
2.09363e-11
-2.18679e-11
1.01259e-11
-2.64472e-11
2.55919e-11
-2.68213e-11
1.18075e-11
-2.98109e-11
3.10368e-11
-3.26637e-11
1.37902e-11
-3.30828e-11
3.73371e-11
-3.95023e-11
1.61166e-11
-3.60576e-11
4.44914e-11
-4.73994e-11
1.87705e-11
-3.8415e-11
5.23602e-11
-5.63139e-11
2.15887e-11
-3.96799e-11
6.05218e-11
-6.59802e-11
2.40255e-11
-3.9372e-11
6.79668e-11
-7.54014e-11
-3.68627e-11
7.33034e-11
-8.48667e-11
1.39661e-12
-1.89733e-12
1.38965e-12
-1.43517e-12
2.66305e-12
-5.53814e-12
4.09136e-12
-4.22729e-12
3.84617e-12
-8.95004e-12
6.72692e-12
-6.95635e-12
4.98818e-12
-1.22751e-11
9.46318e-12
-9.79767e-12
6.12944e-12
-1.56267e-11
1.24494e-11
-1.29092e-11
7.31072e-12
-1.90929e-11
1.58252e-11
-1.64406e-11
8.57548e-12
-2.27385e-11
1.97254e-11
-2.05388e-11
9.97204e-12
-2.66057e-11
2.42828e-11
-2.5352e-11
1.15548e-11
-3.07143e-11
2.9627e-11
-3.10308e-11
1.33828e-11
-3.506e-11
3.58783e-11
-3.77246e-11
1.5515e-11
-3.96106e-11
4.31331e-11
-4.55721e-11
1.79955e-11
-4.42946e-11
5.14329e-11
-5.46788e-11
2.08142e-11
-4.89591e-11
6.06946e-11
-6.50608e-11
2.38172e-11
-5.32514e-11
7.05385e-11
-7.64995e-11
2.64276e-11
-5.64012e-11
7.98289e-11
-8.78628e-11
-5.64527e-11
8.68684e-11
-9.93035e-11
1.57092e-12
-2.04651e-12
1.5621e-12
-1.61304e-12
2.99227e-12
-5.97707e-12
4.59665e-12
-4.74867e-12
4.31384e-12
-9.67085e-12
7.54961e-12
-7.8058e-12
5.58015e-12
-1.32878e-11
1.06036e-11
-1.09763e-11
6.83339e-12
-1.69583e-11
1.3921e-11
-1.44319e-11
8.11569e-12
-2.07889e-11
1.76526e-11
-1.8334e-11
9.47149e-12
-2.48662e-11
2.19436e-11
-2.28403e-11
1.09501e-11
-2.92604e-11
2.69365e-11
-2.81097e-11
1.26078e-11
-3.40303e-11
3.27724e-11
-3.43044e-11
1.45092e-11
-3.92289e-11
3.95874e-11
-4.15902e-11
1.67292e-11
-4.4913e-11
4.75048e-11
-5.01332e-11
1.93536e-11
-5.11563e-11
5.66182e-11
-6.00923e-11
2.24689e-11
-5.80566e-11
6.69437e-11
-7.15883e-11
2.61029e-11
-6.56841e-11
7.82654e-11
-8.45849e-11
2.97753e-11
-7.3598e-11
8.95352e-11
-9.80481e-11
-8.14075e-11
9.89617e-11
-1.12547e-10
1.71277e-12
1.70156e-12
-1.75677e-12
-2.12266e-12
3.25874e-12
5.00401e-12
-5.16865e-12
-6.20347e-12
4.68852e-12
8.20839e-12
-8.48538e-12
-1.00497e-11
6.04698e-12
1.1507e-11
-1.19089e-11
-1.38336e-11
7.37612e-12
1.50692e-11
-1.56184e-11
-1.76978e-11
8.71728e-12
1.90509e-11
-1.97803e-11
-2.17623e-11
1.01135e-11
2.35998e-11
-2.45552e-11
-2.61293e-11
1.16124e-11
2.88598e-11
-3.01027e-11
-3.0889e-11
1.32688e-11
3.49715e-11
-3.65844e-11
-3.6125e-11
1.51488e-11
4.20717e-11
-4.41657e-11
-4.19223e-11
1.73359e-11
5.02892e-11
-5.30165e-11
-4.83798e-11
1.99426e-11
5.97375e-11
-6.33138e-11
-5.56291e-11
2.31192e-11
7.04885e-11
-7.52337e-11
-6.38535e-11
2.70152e-11
8.24601e-11
-8.88812e-11
-7.32681e-11
3.11896e-11
9.47157e-11
-1.03348e-10
-8.34425e-11
1.06449e-10
-1.20777e-10
-9.65326e-11
1.46018e-13
-3.90101e-13
1.33607e-13
2.79031e-13
-1.13642e-12
3.93672e-13
4.04564e-13
-1.82914e-12
6.48318e-13
5.27667e-13
-2.49284e-12
9.14194e-13
6.53202e-13
-3.14427e-12
1.20616e-12
7.86203e-13
-3.79135e-12
1.53788e-12
9.32437e-13
-4.43112e-12
1.92197e-12
1.09927e-12
-5.04626e-12
2.36978e-12
1.29723e-12
-5.59877e-12
2.89034e-12
1.54335e-12
-6.01963e-12
3.48828e-12
1.86825e-12
-6.19134e-12
4.15984e-12
2.331e-12
-5.91798e-12
4.88593e-12
3.0441e-12
-4.87498e-12
5.61879e-12
4.18346e-12
-2.56112e-12
6.25378e-12
5.75989e-12
1.40124e-12
6.59036e-12
6.63506e-12
6.40889e-12
4.34315e-13
-7.68663e-13
3.97337e-13
8.29818e-13
-2.23971e-12
1.17067e-12
1.20278e-12
-3.60656e-12
1.92762e-12
1.56802e-12
-4.91863e-12
2.71752e-12
1.93975e-12
-6.2104e-12
3.58435e-12
2.3326e-12
-7.49992e-12
4.56853e-12
2.76298e-12
-8.78552e-12
5.70748e-12
3.25117e-12
-1.004e-11
7.03475e-12
3.82474e-12
-1.12009e-11
8.57705e-12
4.52535e-12
-1.21558e-11
1.03476e-11
5.42232e-12
-1.27226e-11
1.23335e-11
6.63821e-12
-1.26313e-11
1.4473e-11
8.38166e-12
-1.15331e-11
1.66131e-11
1.09186e-11
-9.13483e-12
1.84338e-11
1.40853e-11
-5.72e-12
1.93973e-11
-3.0249e-12
1.82452e-11
7.11679e-13
-1.12439e-12
6.50923e-13
1.35934e-12
-3.27736e-12
1.91752e-12
1.96914e-12
-5.28125e-12
3.15645e-12
2.5648e-12
-7.21074e-12
4.44792e-12
3.16893e-12
-9.11977e-12
5.8634e-12
3.80451e-12
-1.10403e-11
7.46857e-12
4.49655e-12
-1.2979e-11
9.3244e-12
5.27425e-12
-1.4911e-11
1.14858e-11
6.17388e-12
-1.67696e-11
1.39971e-11
7.2432e-12
-1.84329e-11
1.68806e-11
8.5489e-12
-1.97079e-11
2.01163e-11
1.01865e-11
-2.03295e-11
2.36039e-11
1.22788e-11
-2.00116e-11
2.7096e-11
1.48961e-11
-1.86414e-11
3.00998e-11
1.76603e-11
-1.66986e-11
3.18706e-11
-1.5634e-11
3.12939e-11
9.71509e-13
-1.44574e-12
8.88256e-13
1.85473e-12
-4.21589e-12
2.61608e-12
2.68446e-12
-6.79982e-12
4.30436e-12
3.49202e-12
-9.29757e-12
6.0614e-12
4.30715e-12
-1.17841e-11
7.98352e-12
5.15963e-12
-1.43092e-11
1.01593e-11
6.08086e-12
-1.68952e-11
1.26714e-11
7.10546e-12
-1.95323e-11
1.55951e-11
8.27198e-12
-2.21699e-11
1.89923e-11
9.62214e-12
-2.47058e-11
2.28985e-11
1.11967e-11
-2.69729e-11
2.72959e-11
1.30234e-11
-2.87361e-11
3.20655e-11
1.50834e-11
-2.97225e-11
3.69051e-11
1.72359e-11
-2.97464e-11
4.12136e-11
1.90637e-11
-2.90011e-11
4.40806e-11
-2.85016e-11
4.42299e-11
1.20805e-12
-1.72133e-12
1.10396e-12
2.30479e-12
-5.02206e-12
3.25032e-12
3.33203e-12
-8.10853e-12
5.34446e-12
4.32721e-12
-1.11053e-11
7.51892e-12
5.3257e-12
-1.41088e-11
9.89139e-12
6.36246e-12
-1.71895e-11
1.25701e-11
7.47361e-12
-2.0391e-11
1.56563e-11
8.69744e-12
-2.37282e-11
1.92434e-11
1.00734e-11
-2.71826e-11
2.34113e-11
1.16376e-11
-3.06945e-11
2.82119e-11
1.34105e-11
-3.41527e-11
3.3641e-11
1.53701e-11
-3.73786e-11
3.95855e-11
1.73979e-11
-4.01039e-11
4.57284e-11
1.92031e-11
-4.19536e-11
5.14016e-11
2.03189e-11
-4.25635e-11
5.55094e-11
-4.21798e-11
5.65062e-11
1.41673e-12
-1.9403e-12
1.29373e-12
2.70067e-12
-5.66399e-12
3.80744e-12
3.89879e-12
-9.1552e-12
6.25519e-12
5.05296e-12
-1.25607e-11
8.78922e-12
6.20251e-12
-1.59975e-11
1.15442e-11
7.38602e-12
-1.95568e-11
1.46436e-11
8.64302e-12
-2.33057e-11
1.82033e-11
1.0015e-11
-2.72884e-11
2.23311e-11
1.15447e-11
-3.15263e-11
2.71221e-11
1.32712e-11
-3.60163e-11
3.26455e-11
1.52196e-11
-4.07282e-11
3.89187e-11
1.73755e-11
-4.55923e-11
4.58551e-11
1.96339e-11
-5.04577e-11
5.31638e-11
2.17133e-11
-5.49748e-11
6.01693e-11
2.30914e-11
-5.84045e-11
6.56253e-11
-5.93918e-11
6.7714e-11
1.59435e-12
-2.09282e-12
1.4545e-12
3.03627e-12
-6.11274e-12
4.27837e-12
4.37589e-12
-9.89212e-12
7.02149e-12
5.65767e-12
-1.35959e-11
9.85055e-12
6.92307e-12
-1.73585e-11
1.29122e-11
8.21255e-12
-2.12895e-11
1.63401e-11
9.56748e-12
-2.54773e-11
2.02591e-11
1.10318e-11
-2.99933e-11
2.47856e-11
1.26525e-11
-3.48954e-11
3.00241e-11
1.4479e-11
-4.0234e-11
3.60561e-11
1.65601e-11
-4.60591e-11
4.2918e-11
1.89365e-11
-5.24305e-11
5.0556e-11
2.16196e-11
-5.94164e-11
5.8729e-11
2.45278e-11
-6.70227e-11
6.68091e-11
2.72211e-11
-7.4769e-11
7.34703e-11
-8.17433e-11
7.66083e-11
1.73919e-12
1.58463e-12
-2.17068e-12
3.30852e-12
4.65838e-12
-6.34423e-12
4.75921e-12
7.63575e-12
-1.02795e-11
6.13633e-12
1.06924e-11
-1.41539e-11
7.48152e-12
1.39813e-11
-1.81141e-11
8.83508e-12
1.7641e-11
-2.22831e-11
1.02379e-11
2.17988e-11
-2.6765e-11
1.17338e-11
2.65723e-11
-3.16499e-11
1.33714e-11
3.20659e-11
-3.70194e-11
1.52061e-11
3.83622e-11
-4.29531e-11
1.73041e-11
4.55022e-11
-4.95389e-11
1.97473e-11
5.34468e-11
-5.68866e-11
2.26335e-11
6.19918e-11
-6.5137e-11
2.60307e-11
7.05803e-11
-7.44184e-11
2.95313e-11
7.79019e-11
-8.42385e-11
8.15982e-11
-9.57341e-11
1.4723e-13
-3.97773e-13
1.1893e-13
2.81143e-13
-1.15892e-12
3.50294e-13
4.07078e-13
-1.86584e-12
5.76417e-13
5.29802e-13
-2.54395e-12
8.11782e-13
6.53714e-13
-3.21087e-12
1.06911e-12
7.83072e-13
-3.87559e-12
1.35976e-12
9.22322e-13
-4.53693e-12
1.69369e-12
1.07654e-12
-5.18071e-12
2.07886e-12
1.25218e-12
-5.77539e-12
2.5197e-12
1.45886e-12
-6.26542e-12
3.01413e-12
1.71299e-12
-6.56237e-12
3.54806e-12
2.04502e-12
-6.53369e-12
4.08587e-12
2.50853e-12
-5.99231e-12
4.55474e-12
3.17014e-12
-4.71134e-12
4.82477e-12
3.96896e-12
-2.63199e-12
4.73175e-12
4.82577e-14
4.29832e-12
4.37972e-13
-7.83721e-13
3.53701e-13
8.36213e-13
-2.28385e-12
1.0417e-12
1.21048e-12
-3.67853e-12
1.71389e-12
1.57477e-12
-5.01879e-12
2.41319e-12
1.94199e-12
-6.34072e-12
3.17726e-12
2.32454e-12
-7.66429e-12
4.03974e-12
2.7351e-12
-8.99079e-12
5.03019e-12
3.18747e-12
-1.02983e-11
6.17231e-12
3.69794e-12
-1.15346e-11
7.47956e-12
4.288e-12
-1.26085e-11
8.94637e-12
4.98984e-12
-1.33816e-11
1.05322e-11
5.85542e-12
-1.36711e-11
1.21345e-11
6.96092e-12
-1.32914e-11
1.35464e-11
8.35937e-12
-1.21944e-11
1.44135e-11
9.82262e-12
-1.07657e-11
1.43302e-11
-1.02047e-11
1.29941e-11
7.17855e-13
-1.1463e-12
5.79469e-13
1.37021e-12
-3.34157e-12
1.70638e-12
1.98249e-12
-5.38588e-12
2.80667e-12
2.57716e-12
-7.35619e-12
3.95015e-12
3.17486e-12
-9.30858e-12
5.19805e-12
3.79522e-12
-1.12774e-11
6.60513e-12
4.45765e-12
-1.32726e-11
8.21972e-12
5.18179e-12
-1.52749e-11
1.00811e-11
5.98757e-12
-1.72287e-11
1.22127e-11
6.89442e-12
-1.90334e-11
1.46088e-11
7.91938e-12
-2.05393e-11
1.72101e-11
9.07077e-12
-2.15635e-11
1.98649e-11
1.03262e-11
-2.1962e-11
2.22726e-11
1.15673e-11
-2.18079e-11
2.39437e-11
1.24658e-11
-2.15981e-11
2.43669e-11
-2.2273e-11
2.34966e-11
9.8032e-13
-1.47376e-12
7.90821e-13
1.87041e-12
-4.29796e-12
2.32824e-12
2.70415e-12
-6.93346e-12
3.82779e-12
3.51144e-12
-9.48308e-12
5.38376e-12
4.31961e-12
-1.20242e-11
7.07874e-12
5.15438e-12
-1.4609e-11
8.98676e-12
6.04048e-12
-1.72629e-11
1.11736e-11
7.00125e-12
-1.99801e-11
1.36937e-11
8.05632e-12
-2.27186e-11
1.65821e-11
9.21547e-12
-2.53918e-11
1.98381e-11
1.04656e-11
-2.78644e-11
2.33962e-11
1.17447e-11
-2.9961e-11
2.70805e-11
1.28961e-11
-3.15132e-11
3.05433e-11
1.36209e-11
-3.24784e-11
3.3228e-11
1.35996e-11
-3.30893e-11
3.45434e-11
-3.40171e-11
3.44169e-11
1.21961e-12
-1.75451e-12
9.82986e-13
2.32559e-12
-5.11921e-12
2.89307e-12
3.35882e-12
-8.2666e-12
4.75342e-12
4.35528e-12
-1.13243e-11
6.67946e-12
5.34776e-12
-1.43916e-11
8.77221e-12
6.367e-12
-1.75407e-11
1.11223e-11
7.44213e-12
-2.08172e-11
1.38105e-11
8.5998e-12
-2.42382e-11
1.69055e-11
9.86024e-12
-2.77884e-11
2.04544e-11
1.12276e-11
-3.14148e-11
2.44658e-11
1.26697e-11
-3.50193e-11
2.88787e-11
1.40782e-11
-3.84498e-11
3.35131e-11
1.5205e-11
-4.1489e-11
3.8002e-11
1.56148e-11
-4.38499e-11
4.1742e-11
1.49426e-11
-4.5246e-11
4.40304e-11
-4.57971e-11
4.46781e-11
1.43111e-12
-1.97751e-12
1.15213e-12
2.72681e-12
-5.77292e-12
3.38948e-12
3.93328e-12
-9.33234e-12
5.56439e-12
5.091e-12
-1.28059e-11
7.8095e-12
6.23688e-12
-1.63132e-11
1.02405e-11
7.40548e-12
-1.99469e-11
1.2961e-11
8.62971e-12
-2.37749e-11
1.60639e-11
9.94021e-12
-2.78408e-11
1.96287e-11
1.13618e-11
-3.2164e-11
2.37133e-11
1.29047e-11
-3.67378e-11
2.83369e-11
1.45455e-11
-4.15251e-11
3.34481e-11
1.61906e-11
-4.64445e-11
3.8874e-11
1.76119e-11
-5.13282e-11
4.42434e-11
1.83825e-11
-5.58134e-11
4.89124e-11
1.80574e-11
-5.91917e-11
5.20538e-11
-6.01382e-11
5.33717e-11
1.61151e-12
-2.13278e-12
1.29552e-12
3.06778e-12
-6.22972e-12
3.80939e-12
4.41834e-12
-1.00823e-11
6.24729e-12
5.70648e-12
-1.3859e-11
8.75455e-12
6.97157e-12
-1.76967e-11
1.14573e-11
8.25053e-12
-2.17059e-11
1.44678e-11
9.57899e-12
-2.59747e-11
1.78865e-11
1.09915e-11
-3.05715e-11
2.17996e-11
1.25199e-11
-3.55482e-11
2.62714e-11
1.41889e-11
-4.09426e-11
3.1328e-11
1.6006e-11
-4.67825e-11
3.69265e-11
1.79418e-11
-5.30853e-11
4.2902e-11
1.98935e-11
-5.98413e-11
4.88819e-11
2.16279e-11
-6.6928e-11
5.4178e-11
2.27382e-11
-7.37618e-11
5.78155e-11
-7.93078e-11
5.93297e-11
1.759e-12
1.41168e-12
-2.21201e-12
3.34521e-12
4.14853e-12
-6.46522e-12
4.80948e-12
6.79527e-12
-1.04762e-11
6.196e-12
9.50511e-12
-1.4426e-11
7.54476e-12
1.241e-11
-1.84636e-11
8.89318e-12
1.56261e-11
-2.27126e-11
1.02775e-11
1.92564e-11
-2.72759e-11
1.17341e-11
2.3388e-11
-3.22394e-11
1.32992e-11
2.80852e-11
-3.76756e-11
1.5009e-11
3.33737e-11
-4.36476e-11
1.68964e-11
3.92116e-11
-5.02133e-11
1.89859e-11
4.54371e-11
-5.74285e-11
2.12775e-11
5.16799e-11
-6.53379e-11
2.36978e-11
5.7238e-11
-7.39152e-11
2.58537e-11
6.10491e-11
-8.25624e-11
6.20688e-11
-9.2046e-11
1.47884e-13
-4.04244e-13
1.00168e-13
2.82146e-13
-1.17789e-12
2.9493e-13
4.07879e-13
-1.89681e-12
4.84964e-13
5.29488e-13
-2.58711e-12
6.82193e-13
6.50808e-13
-3.26717e-12
8.96913e-13
7.75199e-13
-3.94697e-12
1.13803e-12
9.05647e-13
-4.62701e-12
1.41288e-12
1.0448e-12
-5.29626e-12
1.72654e-12
1.19503e-12
-5.92925e-12
2.08017e-12
1.3589e-12
-6.48252e-12
2.46824e-12
1.54049e-12
-6.8912e-12
2.8738e-12
1.74834e-12
-7.06759e-12
3.26192e-12
1.99886e-12
-6.90335e-12
3.57245e-12
2.30982e-12
-6.28137e-12
3.721e-12
2.63913e-12
-5.16323e-12
3.64098e-12
-3.34284e-12
3.54124e-12
4.39988e-13
-7.96414e-13
2.97913e-13
8.39351e-13
-2.32105e-12
8.77098e-13
1.21313e-12
-3.73919e-12
1.44203e-12
1.5743e-12
-5.10318e-12
2.02806e-12
1.93414e-12
-6.45046e-12
2.66567e-12
2.30251e-12
-7.80273e-12
3.38125e-12
2.68793e-12
-9.16404e-12
4.19666e-12
3.09743e-12
-1.05175e-11
5.12708e-12
3.53603e-12
-1.18205e-11
6.17648e-12
4.00632e-12
-1.30004e-11
7.32939e-12
4.50885e-12
-1.39533e-11
8.53773e-12
5.04335e-12
-1.4556e-11
9.70254e-12
5.60791e-12
-1.47089e-11
1.06557e-11
6.18006e-12
-1.44302e-11
1.11682e-11
6.64369e-12
-1.39785e-11
1.10769e-11
-1.39675e-11
1.04292e-11
7.21385e-13
-1.16475e-12
4.88108e-13
1.37584e-12
-3.39562e-12
1.43686e-12
1.9877e-12
-5.47387e-12
2.36167e-12
2.57785e-12
-7.47827e-12
3.32004e-12
3.16451e-12
-9.4666e-12
4.36156e-12
3.76344e-12
-1.14752e-11
5.52928e-12
4.38786e-12
-1.3517e-11
6.85906e-12
5.04749e-12
-1.55777e-11
8.37642e-12
5.74611e-12
-1.76113e-11
1.00896e-11
6.47731e-12
-1.95353e-11
1.19771e-11
7.21748e-12
-2.12322e-11
1.39687e-11
7.91467e-12
-2.25719e-11
1.59199e-11
8.47321e-12
-2.34766e-11
1.75912e-11
8.7458e-12
-2.40468e-11
1.86728e-11
8.61842e-12
-2.46268e-11
1.89664e-11
-2.57111e-11
1.874e-11
9.85584e-13
-1.4973e-12
6.66207e-13
1.87905e-12
-4.36687e-12
1.96071e-12
2.71294e-12
-7.04544e-12
3.22127e-12
3.51522e-12
-9.63795e-12
4.52557e-12
4.31027e-12
-1.22236e-11
5.94056e-12
5.11914e-12
-1.48563e-11
7.52453e-12
5.95918e-12
-1.75636e-11
9.32649e-12
6.84203e-12
-2.03432e-11
1.13824e-11
7.76899e-12
-2.31591e-11
1.37067e-11
8.72156e-12
-2.59365e-11
1.62773e-11
9.6448e-12
-2.85606e-11
1.90134e-11
1.04204e-11
-3.08893e-11
2.17467e-11
1.08357e-11
-3.27941e-11
2.42035e-11
1.06023e-11
-3.42455e-11
2.6041e-11
9.64686e-12
-3.53732e-11
2.70306e-11
-3.65442e-11
2.74261e-11
1.22684e-12
-1.78231e-12
8.28202e-13
2.3378e-12
-5.20051e-12
2.43672e-12
3.37232e-12
-8.39849e-12
4.00083e-12
4.3643e-12
-1.15062e-11
5.61567e-12
5.34337e-12
-1.46244e-11
7.36322e-12
6.33531e-12
-1.78266e-11
9.31493e-12
7.36147e-12
-2.11591e-11
1.15314e-11
8.43645e-12
-2.46394e-11
1.40582e-11
9.56203e-12
-2.8253e-11
1.69172e-11
1.07148e-11
-3.19483e-11
2.00895e-11
1.18236e-11
-3.56305e-11
2.34916e-11
1.27308e-11
-3.91526e-11
2.69453e-11
1.31464e-11
-4.23027e-11
3.01577e-11
1.26636e-11
-4.47888e-11
3.27579e-11
1.11604e-11
-4.62866e-11
3.44588e-11
-4.67575e-11
3.5456e-11
1.4405e-12
-2.00859e-12
9.70861e-13
2.74308e-12
-5.86375e-12
2.85528e-12
3.9525e-12
-9.47948e-12
4.68422e-12
5.10725e-12
-1.30082e-11
6.56705e-12
6.24112e-12
-1.65709e-11
8.59775e-12
7.38384e-12
-2.02606e-11
1.08582e-11
8.56087e-12
-2.41442e-11
1.34181e-11
9.79146e-12
-2.82625e-11
1.63309e-11
1.10833e-11
-3.26295e-11
1.96246e-11
1.24217e-11
-3.72292e-11
2.32847e-11
1.37485e-11
-4.20083e-11
2.7228e-11
1.4927e-11
-4.68593e-11
3.12694e-11
1.56935e-11
-5.15731e-11
3.50955e-11
1.56498e-11
-5.57373e-11
3.82903e-11
1.45755e-11
-5.86373e-11
4.04899e-11
-5.89732e-11
4.18725e-11
1.62317e-12
-2.16606e-12
1.09188e-12
3.08843e-12
-6.32694e-12
3.20957e-12
4.44404e-12
-1.02396e-11
5.2601e-12
5.73147e-12
-1.40749e-11
7.36339e-12
6.98726e-12
-1.79705e-11
9.62198e-12
8.24399e-12
-2.20369e-11
1.21248e-11
9.53061e-12
-2.63594e-11
1.49473e-11
1.08716e-11
-3.10011e-11
1.81477e-11
1.22839e-11
-3.60031e-11
2.17574e-11
1.37707e-11
-4.13855e-11
2.57638e-11
1.53095e-11
-4.71446e-11
3.00829e-11
1.68323e-11
-5.32456e-11
3.45199e-11
1.82012e-11
-5.95963e-11
3.87313e-11
1.91987e-11
-6.59674e-11
4.2226e-11
1.96135e-11
-7.17524e-11
4.4522e-11
-7.59795e-11
4.57734e-11
1.77293e-12
1.18997e-12
-2.24632e-12
3.37031e-12
3.49593e-12
-6.56544e-12
4.84196e-12
5.72265e-12
-1.06384e-11
6.23052e-12
7.99663e-12
-1.46482e-11
7.57358e-12
1.04253e-11
-1.87448e-11
8.90484e-12
1.3101e-11
-2.3051e-11
1.0255e-11
1.6101e-11
-2.7666e-11
1.16517e-11
1.94841e-11
-3.26684e-11
1.31194e-11
2.32813e-11
-3.81176e-11
1.46761e-11
2.74782e-11
-4.40541e-11
1.63299e-11
3.19869e-11
-5.04983e-11
1.80716e-11
3.6604e-11
-5.74454e-11
1.98665e-11
4.09609e-11
-6.48495e-11
2.16407e-11
4.45041e-11
-7.25737e-11
2.3162e-11
4.66411e-11
-8.00284e-11
4.71421e-11
-8.79405e-11
1.48127e-13
-4.09432e-13
7.80647e-14
2.82356e-13
-1.1931e-12
2.29779e-13
4.07522e-13
-1.92163e-12
3.77602e-13
5.27661e-13
-2.62171e-12
5.30643e-13
6.46042e-13
-3.31226e-12
6.96638e-13
7.65178e-13
-4.00407e-12
8.82075e-13
8.86753e-13
-4.6989e-12
1.092e-12
1.01141e-12
-5.3881e-12
1.32933e-12
1.13846e-12
-6.05053e-12
1.59361e-12
1.26577e-12
-6.65044e-12
1.87882e-12
1.39063e-12
-7.1361e-12
2.17052e-12
1.5123e-12
-7.43991e-12
2.44286e-12
1.63733e-12
-7.4778e-12
2.65809e-12
1.78298e-12
-7.14317e-12
2.775e-12
1.94837e-12
-6.34328e-12
2.77635e-12
-4.69469e-12
2.87061e-12
4.40787e-13
-8.06595e-13
2.32182e-13
8.40146e-13
-2.35089e-12
6.83376e-13
1.21236e-12
-3.78781e-12
1.12285e-12
1.56933e-12
-5.17074e-12
1.57761e-12
1.92074e-12
-6.5381e-12
2.07056e-12
2.27404e-12
-7.91291e-12
2.62096e-12
2.63407e-12
-9.30127e-12
3.24384e-12
3.00226e-12
-1.06899e-11
3.94807e-12
3.37521e-12
-1.2043e-11
4.73266e-12
3.74327e-12
-1.32992e-11
5.58065e-12
4.09021e-12
-1.43727e-11
6.45104e-12
4.39611e-12
-1.51645e-11
7.27049e-12
4.64658e-12
-1.55918e-11
7.93229e-12
4.84655e-12
-1.56423e-11
8.32032e-12
5.0087e-12
-1.54396e-11
8.38737e-12
-1.53572e-11
8.16252e-12
7.22939e-13
-1.17955e-12
3.80439e-13
1.37767e-12
-3.43893e-12
1.11959e-12
1.98732e-12
-5.54427e-12
1.83909e-12
2.57116e-12
-7.57567e-12
2.58287e-12
3.14498e-12
-9.59212e-12
3.38821e-12
3.72091e-12
-1.16314e-11
4.28655e-12
4.30672e-12
-1.37083e-11
5.30265e-12
4.90396e-12
-1.58121e-11
6.45167e-12
5.50458e-12
-1.79026e-11
7.73345e-12
6.08601e-12
-1.99074e-11
9.12352e-12
6.60493e-12
-2.1724e-11
1.05613e-11
6.99252e-12
-2.32391e-11
1.19393e-11
7.15982e-12
-2.4377e-11
1.31046e-11
7.03767e-12
-2.5188e-11
1.38977e-11
6.69896e-12
-2.58851e-11
1.42588e-11
-2.6814e-11
1.43575e-11
9.88167e-13
-1.51616e-12
5.19306e-13
1.88251e-12
-4.42199e-12
1.52794e-12
2.7141e-12
-7.13479e-12
2.50878e-12
3.50887e-12
-9.76095e-12
3.52117e-12
4.28824e-12
-1.23809e-11
4.61549e-12
5.0689e-12
-1.50495e-11
5.83438e-12
5.86166e-12
-1.77954e-11
7.21182e-12
6.66869e-12
-2.0618e-11
8.7695e-12
7.47809e-12
-2.34838e-11
1.05099e-11
8.2546e-12
-2.63223e-11
1.24053e-11
8.92571e-12
-2.90248e-11
1.43841e-11
9.365e-12
-3.14526e-11
1.63197e-11
9.38823e-12
-3.34672e-11
1.80364e-11
8.81975e-12
-3.49923e-11
1.93594e-11
7.78232e-12
-3.60745e-11
2.02144e-11
-3.70125e-11
2.07469e-11
1.23074e-12
-1.80452e-12
6.45665e-13
2.34358e-12
-5.26537e-12
1.89914e-12
3.3763e-12
-8.50332e-12
3.11636e-12
4.36061e-12
-1.16498e-11
4.37001e-12
5.32298e-12
-1.48065e-11
5.72185e-12
6.28447e-12
-1.80473e-11
7.22421e-12
7.25958e-12
-2.1418e-11
8.91923e-12
8.25321e-12
-2.49348e-11
1.08348e-11
9.25416e-12
-2.85808e-11
1.2977e-11
1.02237e-11
-3.23007e-11
1.53176e-11
1.10769e-11
-3.59926e-11
1.77795e-11
1.16566e-11
-3.94965e-11
2.02241e-11
1.17156e-11
-4.25765e-11
2.24598e-11
1.09755e-11
-4.49031e-11
2.42943e-11
9.50091e-12
-4.61304e-11
2.56216e-11
-4.62394e-11
2.65516e-11
1.44598e-12
-2.03336e-12
7.56994e-13
2.75178e-12
-5.93598e-12
2.2257e-12
3.96051e-12
-9.59596e-12
3.64925e-12
5.10847e-12
-1.31671e-11
5.11126e-12
6.2263e-12
-1.67709e-11
6.68259e-12
7.33913e-12
-2.04998e-11
8.42332e-12
8.46579e-12
-2.44186e-11
1.0382e-11
9.61638e-12
-2.85637e-11
1.25915e-11
1.07868e-11
-3.29415e-11
1.50608e-11
1.19491e-11
-3.75229e-11
1.77622e-11
1.30349e-11
-4.22346e-11
2.06134e-11
1.39126e-11
-4.69374e-11
2.34635e-11
1.43657e-11
-5.13801e-11
2.60972e-11
1.41241e-11
-5.51126e-11
2.82862e-11
1.31388e-11
-5.74542e-11
2.98846e-11
-5.7264e-11
3.1017e-11
1.63042e-12
-2.1925e-12
8.51481e-13
3.10052e-12
-6.40401e-12
2.50226e-12
4.45704e-12
-1.03637e-11
4.09859e-12
5.7394e-12
-1.42435e-11
5.7322e-12
6.98124e-12
-1.81815e-11
7.48049e-12
8.21089e-12
-2.22866e-11
9.40883e-12
9.4513e-12
-2.66406e-11
1.15698e-11
1.07188e-11
-3.12993e-11
1.39993e-11
1.20201e-11
-3.62922e-11
1.67075e-11
1.33473e-11
-4.16194e-11
1.96654e-11
1.46697e-11
-4.72463e-11
2.27847e-11
1.5925e-11
-5.30927e-11
2.58983e-11
1.70177e-11
-5.90075e-11
2.87541e-11
1.78435e-11
-6.4715e-11
3.10578e-11
1.8345e-11
-6.96721e-11
3.25955e-11
-7.31324e-11
3.35378e-11
1.78203e-12
9.28116e-13
-2.27351e-12
3.38606e-12
2.72594e-12
-6.64468e-12
4.86054e-12
4.45977e-12
-1.07658e-11
6.24634e-12
6.22649e-12
-1.4821e-11
7.57851e-12
8.10727e-12
-1.89602e-11
8.88705e-12
1.01701e-11
-2.3304e-11
1.01975e-11
1.24689e-11
-2.79471e-11
1.15306e-11
1.50398e-11
-3.29597e-11
1.29021e-11
1.7892e-11
-3.83867e-11
1.43209e-11
2.09938e-11
-4.42456e-11
1.57881e-11
2.42505e-11
-5.05221e-11
1.72977e-11
2.74804e-11
-5.71628e-11
1.88468e-11
3.03986e-11
-6.40635e-11
2.04488e-11
3.26452e-11
-7.10486e-11
2.19998e-11
3.39286e-11
-7.76179e-11
3.42283e-11
-8.46839e-11
1.48116e-13
-4.13298e-13
5.34289e-14
2.82116e-13
-1.20444e-12
1.57232e-13
4.06603e-13
-1.94015e-12
2.58266e-13
5.25284e-13
-2.64753e-12
3.62675e-13
6.40954e-13
-3.34586e-12
4.756e-13
7.55442e-13
-4.04641e-12
6.01244e-13
8.69465e-13
-4.7518e-12
7.42721e-13
9.82306e-13
-5.45478e-12
9.0157e-13
1.09146e-12
-6.13657e-12
1.07689e-12
1.19266e-12
-6.76503e-12
1.26408e-12
1.28113e-12
-7.29324e-12
1.45343e-12
1.35554e-12
-7.65793e-12
1.62926e-12
1.42614e-12
-7.77369e-12
1.77145e-12
1.52296e-12
-7.51711e-12
1.86196e-12
1.66743e-12
-6.7574e-12
1.89608e-12
-5.0726e-12
2.02149e-12
4.40838e-13
-8.14204e-13
1.58918e-13
8.39605e-13
-2.37319e-12
4.67641e-13
1.2099e-12
-3.82414e-12
7.68039e-13
1.56268e-12
-5.22113e-12
1.07831e-12
1.90628e-12
-6.60326e-12
1.41368e-12
2.24621e-12
-7.99432e-12
1.78664e-12
2.58457e-12
-9.40169e-12
2.20648e-12
2.91904e-12
-1.08142e-11
2.6779e-12
3.24132e-12
-1.21993e-11
3.19852e-12
3.53635e-12
-1.35005e-11
3.75528e-12
3.78375e-12
-1.46377e-11
4.32043e-12
3.96549e-12
-1.55135e-11
4.84919e-12
4.0848e-12
-1.60321e-11
5.28334e-12
4.19296e-12
-1.61355e-11
5.5683e-12
4.36394e-12
-1.58763e-11
5.68539e-12
-1.55801e-11
5.62063e-12
7.23261e-13
-1.19062e-12
2.60413e-13
1.37728e-12
-3.47132e-12
7.66215e-13
1.98409e-12
-5.59684e-12
1.25807e-12
2.56155e-12
-7.64817e-12
1.76558e-12
3.12336e-12
-9.68504e-12
2.31353e-12
3.67879e-12
-1.1746e-11
2.92235e-12
4.23154e-12
-1.38469e-11
3.60739e-12
4.7777e-12
-1.59787e-11
4.37677e-12
5.3026e-12
-1.81035e-11
5.22764e-12
5.77714e-12
-2.0152e-11
6.14073e-12
6.15542e-12
-2.20239e-11
7.07472e-12
6.37865e-12
-2.36014e-11
7.96316e-12
6.39629e-12
-2.47861e-11
8.72111e-12
6.22063e-12
-2.55727e-11
9.27031e-12
6.00161e-12
-2.61123e-11
9.58147e-12
-2.67503e-11
9.72039e-12
9.89031e-13
-1.53026e-12
3.55504e-13
1.88286e-12
-4.46317e-12
1.04579e-12
2.71117e-12
-7.20136e-12
1.71638e-12
3.49814e-12
-9.85216e-12
2.40725e-12
4.26268e-12
-1.24966e-11
3.15193e-12
5.01797e-12
-1.519e-11
3.97815e-12
5.77001e-12
-1.79612e-11
4.90704e-12
6.51472e-12
-2.08095e-11
5.95041e-12
7.23311e-12
-2.37013e-11
7.10613e-12
7.88419e-12
-2.65648e-11
8.35159e-12
8.39665e-12
-2.92873e-11
9.63703e-12
8.66383e-12
-3.17191e-11
1.0883e-11
8.55813e-12
-3.3695e-11
1.19908e-11
8.00707e-12
-3.50927e-11
1.2873e-11
7.20269e-12
-3.59283e-11
1.34893e-11
-3.65373e-11
1.3884e-11
1.23244e-12
-1.82111e-12
4.42059e-13
2.3453e-12
-5.31372e-12
1.30001e-12
3.37487e-12
-8.58119e-12
2.13231e-12
4.35089e-12
-1.17558e-11
2.98795e-12
5.29714e-12
-1.49397e-11
3.90802e-12
6.23092e-12
-1.82062e-11
4.92665e-12
7.16169e-12
-2.16003e-11
6.07005e-12
8.08802e-12
-2.51357e-11
7.35361e-12
8.99211e-12
-2.87916e-11
8.77656e-12
9.83115e-12
-3.25057e-11
1.03147e-11
1.05253e-11
-3.61647e-11
1.19126e-11
1.09445e-11
-3.95905e-11
1.34814e-11
1.09094e-11
-4.25205e-11
1.49105e-11
1.02539e-11
-4.45979e-11
1.61012e-11
9.09929e-12
-4.5488e-11
1.6994e-11
-4.52477e-11
1.76133e-11
1.44875e-12
-2.05181e-12
5.18347e-13
2.75549e-12
-5.98971e-12
1.52375e-12
3.96173e-12
-9.6822e-12
2.49727e-12
5.10184e-12
-1.32838e-11
3.49527e-12
6.20375e-12
-1.6916e-11
4.56497e-12
7.28891e-12
-2.06703e-11
5.74557e-12
8.37127e-12
-2.46087e-11
7.06731e-12
9.45503e-12
-2.8763e-11
8.54839e-12
1.05304e-11
-3.31314e-11
1.01892e-11
1.15667e-11
-3.76723e-11
1.19639e-11
1.25034e-11
-4.22935e-11
1.38118e-11
1.32388e-11
-4.68305e-11
1.56325e-11
1.36268e-11
-5.1005e-11
1.72967e-11
1.35083e-11
-5.43575e-11
1.86812e-11
1.28823e-11
-5.62625e-11
1.97075e-11
-5.57288e-11
2.0421e-11
1.63448e-12
-2.21216e-12
5.83119e-13
3.10669e-12
-6.46118e-12
1.7133e-12
4.46186e-12
-1.04552e-11
2.80513e-12
5.73758e-12
-1.43668e-11
3.92049e-12
6.96497e-12
-1.83337e-11
5.111e-12
8.16894e-12
-2.24628e-11
6.41935e-12
9.368e-12
-2.68322e-11
7.87835e-12
1.05732e-11
-3.14911e-11
9.50773e-12
1.17866e-11
-3.64575e-11
1.1308e-11
1.29985e-11
-4.17144e-11
1.32512e-11
1.41861e-11
-4.72032e-11
1.527e-11
1.5316e-11
-5.28128e-11
1.72493e-11
1.63571e-11
-5.83638e-11
1.90312e-11
1.7307e-11
-6.35815e-11
2.04482e-11
1.81528e-11
-6.80087e-11
2.13875e-11
-7.10802e-11
2.19488e-11
1.78749e-12
6.35672e-13
-2.29369e-12
3.39499e-12
1.86667e-12
-6.70332e-12
4.86961e-12
3.05274e-12
-1.08595e-11
6.25056e-12
4.25925e-12
-1.49469e-11
7.57065e-12
5.54043e-12
-1.91146e-11
8.85689e-12
6.9407e-12
-2.3481e-11
1.01309e-11
8.49376e-12
-2.81364e-11
1.1409e-11
1.02194e-11
-3.31426e-11
1.27029e-11
1.2117e-11
-3.85319e-11
1.40202e-11
1.41561e-11
-4.43029e-11
1.53686e-11
1.62631e-11
-5.04151e-11
1.6766e-11
1.83101e-11