/*--------------------------------*- C++ -*----------------------------------*\
| =========                 |                                                 |
| \\      /  F ield         | OpenFOAM: The Open Source CFD Toolbox           |
|  \\    /   O peration     | Version:  v1912                                 |
|   \\  /    A nd           | Website:  www.openfoam.com                      |
|    \\/     M anipulation  |                                                 |
\*---------------------------------------------------------------------------*/
FoamFile
{
    version     2.0;
    format      ascii;
    class       surfaceScalarField;
    location    "0.81/fluid";
    object      phi;
}
// * * * * * * * * * * * * * * * * * * * * * * * * * * * * * * * * * * * * * //

dimensions      [0 3 -1 0 0 0 0];
oriented        oriented;


internalField   nonuniform List<scalar> 
41600
(
5.00767e-05
1.26179e-05
3.38816e-07
-5.33383e-07
3.98807e-05
1.05487e-05
5.86635e-07
-9.39415e-07
3.22737e-05
7.99167e-06
5.01397e-07
-8.86025e-07
2.75202e-05
5.09284e-06
1.49997e-07
-4.89383e-07
2.46695e-05
3.10484e-06
-4.19912e-07
1.65852e-07
2.29855e-05
1.84477e-06
-1.14819e-06
9.87379e-07
2.19047e-05
1.15365e-06
-2.02716e-06
1.95433e-06
2.10845e-05
8.07747e-07
-3.08187e-06
3.09425e-06
2.03245e-05
6.57655e-07
-4.37379e-06
4.47621e-06
1.95019e-05
5.9084e-07
-5.9871e-06
6.21887e-06
1.85401e-05
5.38823e-07
-8.07091e-06
8.49383e-06
1.73172e-05
3.98892e-07
-1.07442e-05
1.15682e-05
1.56651e-05
1.53995e-07
-1.43785e-05
1.58766e-05
1.306e-05
-5.41335e-07
-1.85909e-05
2.17373e-05
8.26773e-06
-1.09744e-06
-2.34024e-05
2.92921e-05
-3.52977e-06
-1.88691e-05
3.06666e-05
6.47945e-05
1.05982e-05
4.75237e-07
-7.50085e-07
6.34917e-05
1.23893e-05
8.73184e-07
-1.41092e-06
6.09677e-05
1.11626e-05
8.30322e-07
-1.47733e-06
5.82208e-05
8.47435e-06
3.54238e-07
-9.8884e-07
5.58189e-05
6.04134e-06
-5.36764e-07
2.16539e-09
5.38587e-05
4.19693e-06
-1.77401e-06
1.3821e-06
5.22129e-05
3.03792e-06
-3.33242e-06
3.09389e-06
5.06877e-05
2.41678e-06
-5.23936e-06
5.15561e-06
4.90953e-05
2.17222e-06
-7.58724e-06
7.66505e-06
4.72454e-05
2.15102e-06
-1.05227e-05
1.08124e-05
4.49513e-05
2.23879e-06
-1.42901e-05
1.48842e-05
4.18643e-05
2.29531e-06
-1.91323e-05
2.03229e-05
3.75348e-05
2.26241e-06
-2.55544e-05
2.77755e-05
3.0655e-05
1.68912e-06
-3.30124e-05
3.76617e-05
1.99099e-05
8.33258e-07
-4.04469e-05
4.92613e-05
-2.34877e-06
-3.16889e-05
5.04178e-05
6.63722e-05
7.02277e-06
5.25222e-07
-8.21957e-07
6.87923e-05
1.05659e-05
9.81989e-07
-1.57873e-06
6.987e-05
1.08203e-05
9.67895e-07
-1.70334e-06
6.98133e-05
9.27169e-06
4.82362e-07
-1.22299e-06
6.91176e-05
7.38255e-06
-4.63216e-07
-1.82301e-07
6.80703e-05
5.7393e-06
-1.80889e-06
1.31382e-06
6.68073e-05
4.62586e-06
-3.53229e-06
3.20739e-06
6.53312e-05
4.04149e-06
-5.66317e-06
5.51451e-06
6.3563e-05
3.90358e-06
-8.29878e-06
8.3356e-06
6.13419e-05
4.09706e-06
-1.16022e-05
1.18773e-05
5.84405e-05
4.52452e-06
-1.58382e-05
1.64539e-05
5.44063e-05
5.05669e-06
-2.12995e-05
2.25723e-05
4.86235e-05
5.62272e-06
-2.85208e-05
3.09433e-05
3.94364e-05
5.72181e-06
-3.70292e-05
4.21836e-05
2.52503e-05
5.06705e-06
-4.55038e-05
5.5456e-05
1.04713e-06
-3.60907e-05
5.79451e-05
6.52978e-05
4.52462e-06
5.48105e-07
-8.47711e-07
6.84436e-05
8.03243e-06
1.03754e-06
-1.64991e-06
7.09356e-05
9.08845e-06
1.04401e-06
-1.80407e-06
7.23815e-05
8.5955e-06
5.70203e-07
-1.33988e-06
7.29291e-05
7.51101e-06
-3.66533e-07
-3.09526e-07
7.27772e-05
6.41617e-06
-1.70619e-06
1.18119e-06
7.20994e-05
5.65618e-06
-3.42779e-06
3.0753e-06
7.09739e-05
5.33962e-06
-5.56291e-06
5.39023e-06
6.93865e-05
5.47356e-06
-8.20835e-06
8.22574e-06
6.72089e-05
6.01368e-06
-1.15316e-05
1.17926e-05
6.42058e-05
6.91688e-06
-1.57982e-05
1.6409e-05
5.98732e-05
8.10232e-06
-2.13271e-05
2.2614e-05
5.34929e-05
9.52061e-06
-2.86586e-05
3.1141e-05
4.3243e-05
1.06233e-05
-3.74199e-05
4.27684e-05
2.73052e-05
1.0575e-05
-4.62731e-05
5.6703e-05
5.22673e-06
-3.71355e-05
6.02611e-05
6.43584e-05
2.96313e-06
5.67799e-07
-8.64681e-07
6.71726e-05
5.83044e-06
1.08621e-06
-1.69846e-06
6.98881e-05
7.13434e-06
1.11762e-06
-1.87898e-06
7.19324e-05
7.32169e-06
6.66874e-07
-1.43735e-06
7.31835e-05
6.9359e-06
-2.40747e-07
-4.35329e-07
7.36911e-05
6.43408e-06
-1.53991e-06
1.01443e-06
7.35678e-05
6.13438e-06
-3.206e-06
2.85117e-06
7.28888e-05
6.19637e-06
-5.26793e-06
5.09015e-06
7.16608e-05
6.69276e-06
-7.8167e-06
7.82551e-06
6.9775e-05
7.65193e-06
-1.10173e-05
1.12648e-05
6.70008e-05
9.09963e-06
-1.51236e-05
1.57151e-05
6.28002e-05
1.1042e-05
-2.04708e-05
2.17317e-05
5.63643e-05
1.35019e-05
-2.7583e-05
3.00376e-05
4.56742e-05
1.5963e-05
-3.62229e-05
4.15733e-05
2.85775e-05
1.71603e-05
-4.50693e-05
5.55807e-05
1.03221e-05
-3.65589e-05
6.0041e-05
6.3812e-05
1.94462e-06
5.87983e-07
-8.81437e-07
6.61897e-05
4.06079e-06
1.13693e-06
-1.74501e-06
6.87824e-05
5.2982e-06
1.2002e-06
-1.95674e-06
7.10261e-05
5.84256e-06
7.8276e-07
-1.54731e-06
7.26614e-05
5.96999e-06
-8.34958e-08
-5.85924e-07
7.36253e-05
5.99005e-06
-1.32646e-06
8.06625e-07
7.39589e-05
6.15301e-06
-2.91482e-06
2.56259e-06
7.37096e-05
6.62558e-06
-4.87127e-06
4.69136e-06
7.28832e-05
7.51887e-06
-7.27687e-06
7.27711e-06
7.13787e-05
8.92724e-06
-1.02894e-05
1.05186e-05
6.89686e-05
1.095e-05
-1.41434e-05
1.47032e-05
6.50845e-05
1.37191e-05
-1.91852e-05
2.03922e-05
5.88388e-05
1.73763e-05
-2.59046e-05
2.82758e-05
4.79856e-05
2.15806e-05
-3.42364e-05
3.9472e-05
2.99731e-05
2.48111e-05
-4.28731e-05
5.32348e-05
1.68795e-05
-3.53157e-05
5.87314e-05
6.3559e-05
1.17647e-06
6.11638e-07
-9.02541e-07
6.56574e-05
2.56675e-06
1.19508e-06
-1.79937e-06
6.81225e-05
3.58502e-06
1.29719e-06
-2.04919e-06
7.04458e-05
4.27878e-06
9.22634e-07
-1.68212e-06
7.23178e-05
4.76239e-06
1.08648e-07
-7.73044e-07
7.36162e-05
5.2082e-06
-1.06506e-06
5.48533e-07
7.43381e-05
5.78396e-06
-2.5576e-06
2.20469e-06
7.45159e-05
6.63513e-06
-4.38037e-06
4.19308e-06
7.41667e-05
7.88596e-06
-6.59707e-06
6.57916e-06
7.3221e-05
9.68157e-06
-9.34645e-06
9.53786e-06
7.14999e-05
1.21838e-05
-1.28231e-05
1.33103e-05
6.84703e-05
1.56856e-05
-1.73554e-05
1.84186e-05
6.32528e-05
2.0498e-05
-2.33361e-05
2.54319e-05
5.3204e-05
2.69267e-05
-3.08803e-05
3.55831e-05
3.49929e-05
3.3687e-05
-3.85834e-05
4.79186e-05
2.9899e-05
-3.2367e-05
5.43403e-05
6.34683e-05
6.38227e-07
-9.27984e-07
4.9797e-07
6.54592e-05
1.25953e-06
-1.86208e-06
1.17835e-06
6.78921e-05
1.40497e-06
-2.15503e-06
1.90222e-06
7.02948e-05
1.07947e-06
-1.83712e-06
2.6337e-06
7.23449e-05
3.24526e-07
-9.87775e-07
3.37555e-06
7.38976e-05
-7.72991e-07
2.55401e-07
4.17306e-06
7.49332e-05
-2.16159e-06
1.80389e-06
5.10611e-06
7.54825e-05
-3.83966e-06
3.64111e-06
6.2844e-06
7.55781e-05
-5.85136e-06
5.81148e-06
7.83023e-06
7.51823e-05
-8.31274e-06
8.46197e-06
9.92814e-06
7.4166e-05
-1.13754e-05
1.17851e-05
1.27904e-05
7.20485e-05
-1.53418e-05
1.62527e-05
1.68922e-05
6.80323e-05
-2.05036e-05
2.23147e-05
2.27031e-05
5.9229e-05
-2.71781e-05
3.13293e-05
3.15788e-05
4.2044e-05
-3.39595e-05
4.22663e-05
4.25651e-05
-2.99872e-05
5.07473e-05
5.11829e-05
5.00116e-05
1.26239e-05
2.03315e-07
3.9692e-05
1.0567e-05
3.39292e-07
3.19485e-05
8.01329e-06
2.31577e-07
2.70682e-05
5.11194e-06
-8.16283e-08
2.40993e-05
3.12308e-06
-5.74154e-07
2.22932e-05
1.86568e-06
-1.20769e-06
2.10671e-05
1.18233e-06
-1.98344e-06
2.00603e-05
8.47779e-07
-2.92285e-06
1.90517e-05
7.12735e-07
-4.07792e-06
1.7902e-05
6.64556e-07
-5.50191e-06
1.65043e-05
6.39638e-07
-7.31285e-06
1.47434e-05
5.38642e-07
-9.52201e-06
1.23964e-05
3.58373e-07
-1.23898e-05
9.23014e-06
-2.34978e-07
-1.51896e-05
4.30784e-06
-7.89e-07
-1.76911e-05
-2.69249e-06
-1.18688e-05
6.47029e-05
1.06125e-05
2.83771e-07
6.3221e-05
1.24246e-05
4.97446e-07
6.04734e-05
1.12119e-05
3.79292e-07
5.74885e-05
8.52844e-06
-7.73267e-08
5.48446e-05
6.10022e-06
-8.70077e-07
5.26293e-05
4.2662e-06
-1.9592e-06
5.06904e-05
3.12788e-06
-3.33905e-06
4.88008e-05
2.53759e-06
-5.03957e-06
4.67329e-05
2.33502e-06
-7.14168e-06
4.42571e-05
2.36582e-06
-9.74811e-06
4.11323e-05
2.52144e-06
-1.30472e-05
3.70044e-05
2.65624e-06
-1.7122e-05
3.13784e-05
2.72078e-06
-2.22908e-05
2.34185e-05
2.23145e-06
-2.75189e-05
1.22744e-05
1.31627e-06
-3.1408e-05
-1.79533e-06
-2.03117e-05
6.62797e-05
7.04067e-06
3.17332e-07
6.85124e-05
1.06104e-05
5.63514e-07
6.93499e-05
1.08889e-05
4.53298e-07
6.90283e-05
9.35716e-06
-2.47124e-08
6.80545e-05
7.4847e-06
-8.73937e-07
6.67094e-05
5.8653e-06
-2.06284e-06
6.51052e-05
4.78981e-06
-3.59004e-06
6.32096e-05
4.26037e-06
-5.49034e-06
6.08982e-05
4.198e-06
-7.85042e-06
5.79624e-05
4.4878e-06
-1.07884e-05
5.41117e-05
5.04068e-06
-1.45067e-05
4.88776e-05
5.71648e-06
-1.91257e-05
4.15905e-05
6.45428e-06
-2.49672e-05
3.11115e-05
6.66483e-06
-3.09836e-05
1.64243e-05
5.93295e-06
-3.54333e-05
1.45043e-06
-2.29121e-05
6.52076e-05
4.54431e-06
3.3685e-07
6.81677e-05
8.08214e-06
6.05711e-07
7.04218e-05
9.17022e-06
5.08698e-07
7.16045e-05
8.70615e-06
3.84728e-08
7.18744e-05
7.65208e-06
-8.03797e-07
7.14238e-05
6.59673e-06
-1.98705e-06
7.04036e-05
5.89376e-06
-3.51149e-06
6.88573e-05
5.65789e-06
-5.41419e-06
6.6725e-05
5.90373e-06
-7.7817e-06
6.38272e-05
6.59067e-06
-1.07368e-05
5.98611e-05
7.68963e-06
-1.4481e-05
5.42981e-05
9.10847e-06
-1.91561e-05
4.63546e-05
1.08185e-05
-2.50793e-05
3.47288e-05
1.21294e-05
-3.12588e-05
1.8203e-05
1.20709e-05
-3.58853e-05
5.76796e-06
-2.325e-05
6.42703e-05
2.98481e-06
3.56954e-07
6.69019e-05
5.88542e-06
6.51361e-07
6.93855e-05
7.22763e-06
5.76666e-07
7.11762e-05
7.454e-06
1.28317e-07
7.21624e-05
7.11118e-06
-6.86058e-07
7.23869e-05
6.66349e-06
-1.83118e-06
7.19399e-05
6.43884e-06
-3.30408e-06
7.08633e-05
6.60604e-06
-5.13945e-06
6.91189e-05
7.24979e-06
-7.41843e-06
6.65469e-05
8.4076e-06
-1.02622e-05
6.28466e-05
1.01281e-05
-1.38618e-05
5.74469e-05
1.24119e-05
-1.83744e-05
4.94579e-05
1.53243e-05
-2.40998e-05
3.73559e-05
1.81623e-05
-3.01538e-05
1.95475e-05
1.95385e-05
-3.47285e-05
1.1268e-05
-2.25115e-05
6.37256e-05
1.96899e-06
3.78171e-07
6.59243e-05
4.12179e-06
7.01923e-07
6.82921e-05
5.4024e-06
6.57628e-07
7.02938e-05
5.99354e-06
2.41486e-07
7.16808e-05
6.17405e-06
-5.3333e-07
7.2383e-05
6.26052e-06
-1.62569e-06
7.24195e-05
6.51417e-06
-3.0267e-06
7.18058e-05
7.11387e-06
-4.76536e-06
7.05051e-05
8.18728e-06
-6.91364e-06
6.83657e-05
9.84492e-06
-9.58732e-06
6.50908e-05
1.222e-05
-1.29604e-05
6.00694e-05
1.54516e-05
-1.72037e-05
5.23206e-05
1.9755e-05
-2.25864e-05
4.00512e-05
2.4571e-05
-2.83758e-05
2.11917e-05
2.83106e-05
-3.27856e-05
1.84886e-05
-2.13446e-05
6.34747e-05
1.2037e-06
4.02278e-07
6.53983e-05
2.63362e-06
7.59599e-07
6.76468e-05
3.69853e-06
7.52597e-07
6.97412e-05
4.44428e-06
3.77485e-07
7.1384e-05
4.98776e-06
-3.47919e-07
7.24467e-05
5.5085e-06
-1.37574e-06
7.2906e-05
6.18587e-06
-2.68859e-06
7.27655e-05
7.17963e-06
-4.30564e-06
7.20054e-05
8.63413e-06
-6.28376e-06
7.0511e-05
1.07175e-05
-8.72469e-06
6.80434e-05
1.36349e-05
-1.17704e-05
6.4023e-05
1.7706e-05
-1.55894e-05
5.74783e-05
2.33447e-05
-2.0381e-05
4.61172e-05
3.06577e-05
-2.56059e-05
2.69518e-05
3.83699e-05
-2.94773e-05
3.23661e-05
-1.92928e-05
6.3386e-05
4.28361e-07
5.27607e-07
6.52073e-05
8.22105e-07
1.24969e-06
6.74325e-05
8.56464e-07
2.02181e-06
6.96205e-05
5.2784e-07
2.80793e-06
7.14615e-05
-1.41972e-07
3.61329e-06
7.28055e-05
-1.09886e-06
4.49033e-06
7.3615e-05
-2.31593e-06
5.53077e-06
7.38957e-05
-3.80081e-06
6.8601e-06
7.36488e-05
-5.59346e-06
8.62307e-06
7.27982e-05
-7.77842e-06
1.10338e-05
7.11658e-05
-1.04628e-05
1.43546e-05
6.82228e-05
-1.38065e-05
1.91137e-05
6.30957e-05
-1.79354e-05
2.59036e-05
5.31451e-05
-2.25311e-05
3.59613e-05
3.50168e-05
-2.58807e-05
4.84193e-05
-1.76334e-05
5.50292e-05
4.99616e-05
1.26298e-05
1.1192e-07
3.95441e-05
1.05835e-05
1.73344e-07
3.16851e-05
8.03369e-06
5.68841e-08
2.66882e-05
5.13116e-06
-2.15889e-07
2.36032e-05
3.14152e-06
-6.30719e-07
2.16723e-05
1.88645e-06
-1.16318e-06
2.02973e-05
1.2097e-06
-1.81819e-06
1.91008e-05
8.84771e-07
-2.61114e-06
1.78409e-05
7.6236e-07
-3.58039e-06
1.63604e-05
7.29366e-07
-4.75079e-06
1.45239e-05
7.24994e-07
-6.20126e-06
1.22293e-05
6.51735e-07
-7.8792e-06
9.27232e-06
5.07478e-07
-9.94033e-06
5.78868e-06
-2.60156e-08
-1.168e-05
1.53637e-06
-6.51774e-07
-1.2787e-05
-2.34413e-06
-7.98829e-06
6.4632e-05
1.06269e-05
1.54633e-07
6.3008e-05
1.24586e-05
2.46377e-07
6.00726e-05
1.126e-05
8.83062e-08
5.68745e-05
8.58312e-06
-3.31156e-07
5.40016e-05
6.16029e-06
-1.01602e-06
5.15359e-05
4.33615e-06
-1.94315e-06
4.93062e-05
3.21666e-06
-3.11634e-06
4.70584e-05
2.6544e-06
-4.56139e-06
4.45296e-05
2.49032e-06
-6.34086e-06
4.14574e-05
2.5689e-06
-8.51539e-06
3.75594e-05
2.78632e-06
-1.12105e-05
3.25047e-05
2.99079e-06
-1.44063e-05
2.58503e-05
3.13512e-06
-1.82641e-05
1.73451e-05
2.70414e-06
-2.17438e-05
7.07861e-06
1.69516e-06
-2.34885e-05
-1.48283e-06
-1.40944e-05
6.62085e-05
7.05949e-06
1.76176e-07
6.82929e-05
1.0655e-05
2.82751e-07
6.89293e-05
1.09574e-05
1.19484e-07
6.83719e-05
9.44352e-06
-3.27639e-07
6.71375e-05
7.58793e-06
-1.06717e-06
6.55029e-05
5.99109e-06
-2.08319e-06
6.3563e-05
4.95066e-06
-3.38419e-06
6.12571e-05
4.47172e-06
-5.0017e-06
5.84218e-05
4.47915e-06
-7.00399e-06
5.48093e-05
4.85793e-06
-9.46486e-06
5.00813e-05
5.5263e-06
-1.25187e-05
4.37853e-05
6.33227e-06
-1.61712e-05
3.5302e-05
7.22168e-06
-2.05705e-05
2.41301e-05
7.52362e-06
-2.46312e-05
1.03234e-05
6.71397e-06
-2.66454e-05
1.8145e-06
-1.58861e-05
6.51388e-05
4.56533e-06
1.92169e-07
6.79529e-05
8.13289e-06
3.13844e-07
7.00083e-05
9.25237e-06
1.58274e-07
7.09574e-05
8.81718e-06
-2.84251e-07
7.09675e-05
7.79275e-06
-1.01869e-06
7.02269e-05
6.7746e-06
-2.02997e-06
6.88697e-05
6.12462e-06
-3.32827e-06
6.69114e-05
5.96332e-06
-4.94752e-06
6.42523e-05
6.3127e-06
-6.95612e-06
6.06708e-05
7.135e-06
-9.43231e-06
5.58111e-05
8.41378e-06
-1.25088e-05
4.91518e-05
1.00436e-05
-1.62081e-05
3.99485e-05
1.20142e-05
-2.06685e-05
2.7545e-05
1.35067e-05
-2.48383e-05
1.18408e-05
1.34576e-05
-2.69247e-05
6.41062e-06
-1.60053e-05
6.42037e-05
3.00761e-06
2.10955e-07
6.66925e-05
5.94116e-06
3.54258e-07
6.89833e-05
7.32057e-06
2.1768e-07
7.05493e-05
7.58493e-06
-2.05383e-07
7.12873e-05
7.28329e-06
-9.14645e-07
7.12361e-05
6.88657e-06
-1.89193e-06
7.04694e-05
6.732e-06
-3.14481e-06
6.90017e-05
6.99694e-06
-4.70536e-06
6.67559e-05
7.77753e-06
-6.6374e-06
6.35283e-05
9.11884e-06
-9.01847e-06
5.89624e-05
1.10905e-05
-1.19725e-05
5.24837e-05
1.36838e-05
-1.5536e-05
4.32265e-05
1.70039e-05
-1.98323e-05
3.02959e-05
2.01785e-05
-2.3895e-05
1.31979e-05
2.17578e-05
-2.59307e-05
1.24522e-05
-1.53552e-05
6.36607e-05
1.99381e-06
2.31244e-07
6.57203e-05
4.18242e-06
4.01115e-07
6.79021e-05
5.50456e-06
2.91852e-07
6.96899e-05
6.14053e-06
-1.01967e-07
7.08438e-05
6.37149e-06
-7.75452e-07
7.12899e-05
6.5206e-06
-1.70582e-06
7.10315e-05
6.85925e-06
-2.89551e-06
7.00574e-05
7.57759e-06
-4.3719e-06
6.82934e-05
8.81898e-06
-6.19111e-06
6.55441e-05
1.07078e-05
-8.42705e-06
6.14555e-05
1.34089e-05
-1.11902e-05
5.54032e-05
1.70634e-05
-1.45309e-05
4.6415e-05
2.1956e-05
-1.85503e-05
3.32924e-05
2.73329e-05
-2.24076e-05
1.49993e-05
3.16088e-05
-2.43436e-05
2.053e-05
-1.4423e-05
6.34117e-05
1.23045e-06
2.5396e-07
6.52007e-05
2.69847e-06
4.54576e-07
6.7271e-05
3.80779e-06
3.79065e-07
6.91638e-05
4.60282e-06
2.23272e-08
7.05912e-05
5.20307e-06
-6.06861e-07
7.14217e-05
5.79463e-06
-1.48025e-06
7.16178e-05
6.5676e-06
-2.59304e-06
7.11593e-05
7.69519e-06
-3.96473e-06
6.99932e-05
9.34076e-06
-5.63942e-06
6.79651e-05
1.1693e-05
-7.68173e-06
6.47846e-05
1.49981e-05
-1.01791e-05
5.98511e-05
1.95958e-05
-1.31884e-05
5.21931e-05
2.60006e-05
-1.67676e-05
4.00255e-05
3.41411e-05
-2.02464e-05
2.12277e-05
4.28522e-05
-2.19228e-05
3.5531e-05
-1.30662e-05
6.3325e-05
2.78002e-07
5.55761e-07
6.50166e-05
5.11778e-07
1.31724e-06
6.70723e-05
4.73657e-07
2.13488e-06
6.90718e-05
1.58745e-07
2.97241e-06
7.07159e-05
-4.20902e-07
3.83792e-06
7.18532e-05
-1.23173e-06
4.79016e-06
7.24339e-05
-2.26092e-06
5.93196e-06
7.24432e-05
-3.51867e-06
7.4037e-06
7.18547e-05
-5.0356e-06
9.37142e-06
7.05578e-05
-6.86464e-06
1.20761e-05
6.83323e-05
-9.06793e-06
1.58288e-05
6.46241e-05
-1.17049e-05
2.12024e-05
5.85617e-05
-1.47888e-05
2.89164e-05
4.791e-05
-1.78428e-05
4.01045e-05
3.00462e-05
-1.92923e-05
5.41275e-05
-1.19757e-05
5.99195e-05
4.99235e-05
1.26352e-05
5.33077e-08
3.94294e-05
1.0598e-05
6.93619e-08
3.14768e-05
8.05199e-06
-4.24654e-08
2.63821e-05
5.14896e-06
-2.70183e-07
2.31985e-05
3.15907e-06
-6.06197e-07
2.11641e-05
1.90653e-06
-1.03531e-06
1.96732e-05
1.23627e-06
-1.56352e-06
1.83422e-05
9.21145e-07
-2.20124e-06
1.69244e-05
8.12531e-07
-2.97518e-06
1.52679e-05
7.98277e-07
-3.8925e-06
1.32458e-05
8.2225e-07
-5.0015e-06
1.07986e-05
7.94445e-07
-6.22643e-06
7.78362e-06
7.22109e-07
-7.64743e-06
4.46371e-06
3.22526e-07
-8.68258e-06
8.96095e-07
-2.00087e-07
-9.01927e-06
-1.71745e-06
-5.37474e-06
6.45774e-05
1.06403e-05
7.21329e-08
6.28417e-05
1.24894e-05
9.06176e-08
5.97541e-05
1.13039e-05
-7.59818e-08
5.63777e-05
8.63368e-06
-4.39412e-07
5.33097e-05
6.2164e-06
-1.00537e-06
5.06321e-05
4.40158e-06
-1.76061e-06
4.81653e-05
3.29921e-06
-2.71253e-06
4.56438e-05
2.7627e-06
-3.8814e-06
4.2793e-05
2.635e-06
-5.31254e-06
3.93516e-05
2.76121e-06
-7.03697e-06
3.50492e-05
3.04474e-06
-9.13054e-06
2.96258e-05
3.33636e-06
-1.15248e-05
2.27549e-05
3.60305e-06
-1.42742e-05
1.44955e-05
3.33044e-06
-1.64924e-05
5.38483e-06
2.43866e-06
-1.70165e-05
-7.27856e-07
-9.69917e-06
6.61539e-05
7.07737e-06
8.52081e-08
6.8122e-05
1.06964e-05
1.07708e-07
6.85955e-05
1.10206e-05
-7.07833e-08
6.78409e-05
9.52351e-06
-4.62927e-07
6.63845e-05
7.68367e-06
-1.07798e-06
6.45042e-05
6.10722e-06
-1.90855e-06
6.22878e-05
5.09783e-06
-2.96646e-06
5.96628e-05
4.66357e-06
-4.27753e-06
5.64526e-05
4.73339e-06
-5.89215e-06
5.24077e-05
5.19323e-06
-7.85196e-06
4.72015e-05
5.97014e-06
-1.02379e-05
4.04566e-05
6.90806e-06
-1.2998e-05
3.16873e-05
7.96833e-06
-1.61665e-05
2.07507e-05
8.43641e-06
-1.88006e-05
8.24381e-06
7.72215e-06
-1.94219e-05
2.58079e-06
-1.0951e-05
6.50863e-05
4.58551e-06
9.77206e-08
6.77862e-05
8.18048e-06
1.29794e-07
6.96813e-05
9.32862e-06
-4.47789e-08
7.04354e-05
8.9198e-06
-4.34574e-07
7.02242e-05
7.92227e-06
-1.04618e-06
6.92375e-05
6.93711e-06
-1.87314e-06
6.76027e-05
6.33337e-06
-2.92894e-06
6.53238e-05
6.23661e-06
-4.24167e-06
6.22878e-05
6.67538e-06
-5.86209e-06
5.82703e-05
7.61422e-06
-7.83581e-06
5.29258e-05
9.04792e-06
-1.02422e-05
4.58058e-05
1.08618e-05
-1.30417e-05
3.6299e-05
1.30645e-05
-1.62579e-05
2.41134e-05
1.47503e-05
-1.89666e-05
9.71725e-06
1.47988e-05
-1.96052e-05
7.2684e-06
-1.09757e-05
6.41532e-05
3.02935e-06
1.1396e-07
6.65311e-05
5.99332e-06
1.63468e-07
6.86667e-05
7.40646e-06
4.24471e-09
7.00453e-05
7.70511e-06
-3.69283e-07
7.05722e-05
7.44029e-06
-9.59582e-07
7.02871e-05
7.0883e-06
-1.75798e-06
6.92574e-05
6.99423e-06
-2.77601e-06
6.74867e-05
7.34241e-06
-4.04044e-06
6.4885e-05
8.23806e-06
-5.59844e-06
6.12455e-05
9.73086e-06
-7.49556e-06
5.62199e-05
1.19055e-05
-9.80451e-06
4.93014e-05
1.47419e-05
-1.24977e-05
3.97489e-05
1.83714e-05
-1.55867e-05
2.70192e-05
2.17967e-05
-1.82118e-05
1.1173e-05
2.35237e-05
-1.88095e-05
1.35357e-05
-1.04495e-05
6.36117e-05
2.01706e-06
1.31825e-07
6.55638e-05
4.23847e-06
2.03899e-07
6.75963e-05
5.59804e-06
6.77649e-08
6.92061e-05
6.2742e-06
-2.80899e-07
7.01619e-05
6.54984e-06
-8.4081e-07
7.03908e-05
6.75344e-06
-1.59978e-06
6.98899e-05
7.16486e-06
-2.56528e-06
6.86379e-05
7.98286e-06
-3.76038e-06
6.65487e-05
9.36241e-06
-5.22621e-06
6.34229e-05
1.14356e-05
-7.00608e-06
5.89137e-05
1.43872e-05
-9.16275e-06
5.24575e-05
1.83483e-05
-1.16811e-05
4.31958e-05
2.36408e-05
-1.45581e-05
3.02604e-05
2.93557e-05
-1.70311e-05
1.31288e-05
3.38863e-05
-1.75747e-05
2.19745e-05
-9.73295e-06
6.33644e-05
1.25496e-06
1.5169e-07
6.50498e-05
2.7575e-06
2.50138e-07
6.69775e-05
3.90663e-06
1.42727e-07
6.8703e-05
4.74559e-06
-1.74486e-07
6.99472e-05
5.39576e-06
-6.97001e-07
7.05802e-05
6.04859e-06
-1.4084e-06
7.05595e-05
6.90291e-06
-2.31039e-06
6.98559e-05
8.14179e-06
-3.42005e-06
6.84063e-05
9.94201e-06
-4.76942e-06
6.60531e-05
1.25031e-05
-6.39606e-06
6.25133e-05
1.6095e-05
-8.34709e-06
5.72377e-05
2.10526e-05
-1.06171e-05
4.9355e-05
2.79348e-05
-1.31789e-05
3.73673e-05
3.65018e-05
-1.54048e-05
1.95848e-05
4.55913e-05
-1.58454e-05
3.73224e-05
-8.82928e-06
6.32795e-05
1.72442e-07
5.80997e-07
6.48718e-05
2.99248e-07
1.37774e-06
6.67925e-05
2.23652e-07
2.23595e-06
6.86359e-05
-5.81169e-08
3.11902e-06
7.01125e-05
-5.38927e-07
4.03717e-06
7.10733e-05
-1.19818e-06
5.05427e-06
7.14645e-05
-2.03111e-06
6.2819e-06
7.12641e-05
-3.04769e-06
7.87116e-06
7.04379e-05
-4.26981e-06
1.00024e-05
6.88732e-05
-5.72747e-06
1.29307e-05
6.63582e-05
-7.45066e-06
1.69927e-05
6.23818e-05
-9.44139e-06
2.27655e-05
5.61616e-05
-1.1649e-05
3.10152e-05
4.57003e-05
-1.35992e-05
4.27195e-05
2.8722e-05
-1.39803e-05
5.72576e-05
-8.1199e-06
6.21885e-05
4.9894e-05
1.26397e-05
1.9631e-08
3.93407e-05
1.06099e-05
1.27942e-08
3.13132e-05
8.06709e-06
-8.21259e-08
2.61381e-05
5.16373e-06
-2.58751e-07
2.28711e-05
3.17368e-06
-5.12948e-07
2.07482e-05
1.92308e-06
-8.3543e-07
1.91582e-05
1.2578e-06
-1.23132e-06
1.77135e-05
9.50195e-07
-1.70678e-06
1.6165e-05
8.51992e-07
-2.27863e-06
1.43656e-05
8.51513e-07
-2.94465e-06
1.21999e-05
8.95766e-07
-3.73149e-06
9.64267e-06
8.99519e-07
-4.56877e-06
6.61336e-06
8.75799e-07
-5.49392e-06
3.46531e-06
5.60206e-07
-6.09473e-06
4.58012e-07
9.99539e-08
-6.11193e-06
-1.36303e-06
-3.5537e-06
6.45351e-05
1.06517e-05
2.50265e-08
6.27126e-05
1.25154e-05
7.5884e-09
5.95037e-05
1.13409e-05
-1.40907e-07
5.59815e-05
8.67671e-06
-4.3023e-07
5.27507e-05
6.26443e-06
-8.6532e-07
4.98943e-05
4.45748e-06
-1.43856e-06
4.72275e-05
3.36927e-06
-2.15722e-06
4.44778e-05
2.85394e-06
-3.03545e-06
4.13644e-05
2.75615e-06
-4.1033e-06
3.76309e-05
2.92136e-06
-5.37336e-06
3.30245e-05
3.25866e-06
-6.88703e-06
2.73484e-05
3.6202e-06
-8.56934e-06
2.03893e-05
3.98367e-06
-1.0423e-05
1.24255e-05
3.82983e-06
-1.17982e-05
4.29313e-06
3.01907e-06
-1.18033e-05
-2.10028e-07
-6.55905e-06
6.61115e-05
7.09296e-06
3.2439e-08
6.79892e-05
1.07319e-05
1.34915e-08
6.8333e-05
1.10748e-05
-1.48458e-07
6.74177e-05
9.59227e-06
-4.63225e-07
6.57765e-05
7.7661e-06
-9.38425e-07
6.36893e-05
6.20696e-06
-1.57083e-06
6.12399e-05
5.22355e-06
-2.37138e-06
5.83487e-05
4.82647e-06
-3.35887e-06
5.4832e-05
4.94813e-06
-4.5674e-06
5.04437e-05
5.47512e-06
-6.01744e-06
4.48761e-05
6.34147e-06
-7.75307e-06
3.78201e-05
7.38735e-06
-9.70916e-06
2.89196e-05
8.58626e-06
-1.18685e-05
1.82923e-05
9.18663e-06
-1.35301e-05
6.89878e-06
8.54632e-06
-1.35556e-05
3.17335e-06
-7.43555e-06
6.50458e-05
4.60331e-06
4.16109e-08
6.76572e-05
8.22187e-06
2.83825e-08
6.94248e-05
9.39453e-06
-1.31986e-07
7.00199e-05
9.00837e-06
-4.45818e-07
6.96248e-05
8.03385e-06
-9.18866e-07
6.84308e-05
7.07662e-06
-1.54879e-06
6.65617e-05
6.51162e-06
-2.34794e-06
6.40149e-05
6.46867e-06
-3.33705e-06
6.067e-05
6.98167e-06
-4.55069e-06
5.6305e-05
8.01679e-06
-6.01253e-06
5.05922e-05
9.5776e-06
-7.76542e-06
4.31499e-05
1.15412e-05
-9.75326e-06
3.34972e-05
1.39306e-05
-1.19495e-05
2.16098e-05
1.57712e-05
-1.36638e-05
8.34001e-06
1.58995e-05
-1.36886e-05
7.97913e-06
-7.44147e-06
6.41143e-05
3.04854e-06
5.44402e-08
6.64065e-05
6.03877e-06
5.43232e-08
6.8419e-05
7.48081e-06
-9.45121e-08
6.96452e-05
7.80873e-06
-3.95791e-07
6.99964e-05
7.57523e-06
-8.52241e-07
6.95141e-05
7.261e-06
-1.46003e-06
6.82622e-05
7.21767e-06
-2.23018e-06
6.62377e-05
7.63523e-06
-3.18252e-06
6.33437e-05
8.62634e-06
-4.34908e-06
5.93749e-05
1.02439e-05
-5.75384e-06
5.39988e-05
1.25843e-05
-7.43508e-06
4.67713e-05
1.56168e-05
-9.34585e-06
3.70748e-05
1.94922e-05
-1.14519e-05
2.46266e-05
2.31162e-05
-1.31085e-05
9.86491e-06
2.49611e-05
-1.31094e-05
1.44579e-05
-7.06338e-06
6.35742e-05
2.03741e-06
6.87448e-08
6.54435e-05
4.28709e-06
8.62806e-08
6.7358e-05
5.67866e-06
-4.45646e-08
6.88232e-05
6.389e-06
-3.26379e-07
6.96142e-05
6.70252e-06
-7.59081e-07
6.96596e-05
6.95208e-06
-1.3363e-06
6.89535e-05
7.42452e-06
-2.06607e-06
6.74684e-05
8.32557e-06
-2.96557e-06
6.51114e-05
9.8196e-06
-4.06243e-06
6.16843e-05
1.20443e-05
-5.37939e-06
5.68542e-05
1.51996e-05
-6.94801e-06
5.01145e-05
1.94068e-05
-8.73127e-06
4.07212e-05
2.50139e-05
-1.06865e-05
2.80506e-05
3.09947e-05
-1.2239e-05
1.19324e-05
3.57225e-05
-1.22178e-05
2.3213e-05
-6.55569e-06
6.33283e-05
1.27617e-06
8.45961e-08
6.49344e-05
2.80829e-06
1.22916e-07
6.67499e-05
3.99131e-06
1.45841e-08
6.83394e-05
4.86755e-06
-2.42635e-07
6.94312e-05
5.56001e-06
-6.46252e-07
6.98972e-05
6.2645e-06
-1.18679e-06
6.96923e-05
7.1871e-06
-1.86805e-06
6.87819e-05
8.51885e-06
-2.70296e-06
6.70976e-05
1.04473e-05
-3.7128e-06
6.44826e-05
1.31802e-05
-4.91694e-06
6.06669e-05
1.70052e-05
-6.33707e-06
5.51504e-05
2.22516e-05
-7.94532e-06
4.71633e-05
2.95091e-05
-9.687e-06
3.54242e-05
3.84125e-05
-1.10835e-05
1.85416e-05
4.77958e-05
-1.10361e-05
3.88947e-05
-5.96931e-06
6.3245e-05
1.01027e-07
6.02552e-07
6.47616e-05
1.61667e-07
1.42926e-06
6.65764e-05
7.82955e-08
2.32191e-06
6.82935e-05
-1.51245e-07
3.24361e-06
6.96308e-05
-5.22484e-07
4.20627e-06
7.04419e-05
-1.02286e-06
5.27803e-06
7.06715e-05
-1.65139e-06
6.57776e-06
7.02935e-05
-2.41594e-06
8.26516e-06
6.92695e-05
-3.33067e-06
1.05322e-05
6.74883e-05
-4.41038e-06
1.36442e-05
6.47513e-05
-5.66595e-06
1.79576e-05
6.05886e-05
-7.07729e-06
2.40502e-05
5.43071e-05
-8.57903e-06
3.27207e-05
4.40904e-05
-9.80171e-06
4.48317e-05
2.79005e-05
-9.76652e-06
5.97719e-05
-5.51646e-06
6.41917e-05
4.98729e-05
1.26432e-05
3.58228e-09
3.92766e-05
1.06191e-05
-1.00514e-08
3.11942e-05
8.07877e-06
-7.85304e-08
2.59595e-05
5.1754e-06
-1.99399e-07
2.26311e-05
3.18544e-06
-3.70051e-07
2.04445e-05
1.93658e-06
-5.85406e-07
1.87867e-05
1.27556e-06
-8.49007e-07
1.72695e-05
9.74508e-07
-1.16417e-06
1.56457e-05
8.85666e-07
-1.5405e-06
1.3776e-05
8.9809e-07
-1.97299e-06
1.15575e-05
9.61692e-07
-2.47473e-06
8.98698e-06
9.95291e-07
-2.9935e-06
6.01959e-06
1.0172e-06
-3.54373e-06
3.01841e-06
7.72266e-07
-3.86581e-06
3.13697e-07
3.72088e-07
-3.7793e-06
-1.07935e-06
-2.16065e-06
6.45045e-05
1.06607e-05
2.97567e-09
6.26188e-05
1.25357e-05
-2.33212e-08
5.93204e-05
1.13699e-05
-1.33609e-07
5.56899e-05
8.71056e-06
-3.34814e-07
5.23378e-05
6.30241e-06
-6.30213e-07
4.93497e-05
4.50182e-06
-1.01574e-06
4.654e-05
3.42487e-06
-1.49683e-06
4.36349e-05
2.92647e-06
-2.08231e-06
4.03546e-05
2.85281e-06
-2.79012e-06
3.64528e-05
3.05005e-06
-3.62354e-06
3.16978e-05
3.43216e-06
-4.60246e-06
2.59372e-05
3.85335e-06
-5.66682e-06
1.90317e-05
4.30052e-06
-6.80083e-06
1.13399e-05
4.24922e-06
-7.58331e-06
3.80867e-06
3.51813e-06
-7.4181e-06
2.15594e-07
-4.04533e-06
6.6081e-05
7.10537e-06
6.84911e-09
6.78928e-05
1.076e-05
-2.26354e-08
6.81408e-05
1.11175e-05
-1.44136e-07
6.71059e-05
9.64645e-06
-3.64141e-07
6.53267e-05
7.83111e-06
-6.87926e-07
6.30864e-05
6.28552e-06
-1.11425e-06
6.04688e-05
5.32222e-06
-1.65118e-06
5.73934e-05
4.95391e-06
-2.31085e-06
5.36771e-05
5.11571e-06
-3.11403e-06
4.9084e-05
5.69495e-06
-4.0692e-06
4.33293e-05
6.6313e-06
-5.19754e-06
3.61548e-05
7.76298e-06
-6.44427e-06
2.72915e-05
9.07348e-06
-7.77821e-06
1.69658e-05
9.78483e-06
-8.73995e-06
6.27652e-06
9.21709e-06
-8.56536e-06
3.65868e-06
-4.60213e-06
6.50166e-05
4.61754e-06
1.28259e-08
6.75638e-05
8.25472e-06
-1.34944e-08
6.92373e-05
9.44658e-06
-1.34614e-07
6.97141e-05
9.0782e-06
-3.54396e-07
6.91817e-05
8.12165e-06
-6.7699e-07
6.78343e-05
7.18596e-06
-1.10179e-06
6.57959e-05
6.65057e-06
-1.63794e-06
6.30633e-05
6.64845e-06
-2.29896e-06
5.95168e-05
7.21751e-06
-3.10602e-06
5.49442e-05
8.32495e-06
-4.06989e-06
4.90402e-05
9.98072e-06
-5.21092e-06
4.14741e-05
1.2056e-05
-6.48014e-06
3.18535e-05
1.45843e-05
-7.83977e-06
2.02665e-05
1.65435e-05
-8.83542e-06
7.71223e-06
1.67377e-05
-8.65483e-06
8.53159e-06
-4.60215e-06
6.40864e-05
3.06387e-06
2.16738e-08
6.63165e-05
6.07485e-06
4.09077e-09
6.82384e-05
7.53951e-06
-1.09347e-07
6.93512e-05
7.89026e-06
-3.20607e-07
6.95714e-05
7.68102e-06
-6.31856e-07
6.89432e-05
7.3957e-06
-1.04158e-06
6.75309e-05
7.39078e-06
-1.55809e-06
6.53309e-05
7.86031e-06
-2.19437e-06
6.22473e-05
8.92213e-06
-2.97002e-06
5.80836e-05
1.06309e-05
-3.89613e-06
5.25292e-05
1.30904e-05
-4.99031e-06
4.51875e-05
1.62616e-05
-6.20972e-06
3.55255e-05
2.03065e-05
-7.51208e-06
2.33669e-05
2.40656e-05
-8.47207e-06
9.29116e-06
2.59833e-05
-8.27931e-06
1.51185e-05
-4.3592e-06
6.35474e-05
2.05359e-06
3.16291e-08
6.53568e-05
4.32553e-06
2.6152e-08
6.71846e-05
5.74212e-06
-7.49738e-08
6.85424e-05
6.479e-06
-2.7288e-07
6.92105e-05
6.82171e-06
-5.67846e-07
6.91203e-05
7.10626e-06
-9.56715e-07
6.82664e-05
7.62454e-06
-1.44586e-06
6.66205e-05
8.58712e-06
-2.04655e-06
6.40912e-05
1.01646e-05
-2.77554e-06
6.04885e-05
1.24975e-05
-3.64327e-06
5.54998e-05
1.57944e-05
-4.6633e-06
4.86621e-05
2.01675e-05
-5.79954e-06
3.93096e-05
2.59778e-05
-7.00545e-06
2.69157e-05
3.21211e-05
-7.9005e-06
1.14351e-05
3.69474e-05
-7.70135e-06
2.4032e-05
-4.03412e-06
6.33027e-05
1.29288e-06
4.26454e-08
6.48514e-05
2.84821e-06
5.14918e-08
6.65846e-05
4.05768e-06
-3.41716e-08
6.80734e-05
4.96278e-06
-2.15213e-07
6.90515e-05
5.68769e-06
-4.90301e-07
6.93939e-05
6.43135e-06
-8.54254e-07
6.9056e-05
7.40499e-06
-1.31069e-06
6.80034e-05
8.80498e-06
-1.86814e-06
6.61687e-05
1.08259e-05
-2.5394e-06
6.34031e-05
1.36792e-05
-3.33311e-06
5.94549e-05
1.76626e-05
-4.25713e-06
5.38625e-05
2.30969e-05
-5.28219e-06
4.5925e-05
3.05849e-05
-6.35659e-06
3.44451e-05
3.96782e-05
-7.1608e-06
1.81321e-05
4.91903e-05
-6.96602e-06
3.98784e-05
-3.68352e-06
6.32205e-05
5.40161e-08
6.19388e-07
6.46827e-05
7.82399e-08
1.46946e-06
6.642e-05
9.739e-09
2.38893e-06
6.80434e-05
-1.52329e-07
3.34045e-06
6.92767e-05
-4.05318e-07
4.33718e-06
6.9977e-05
-7.42013e-07
5.45026e-06
7.00898e-05
-1.16289e-06
6.80367e-06
6.95893e-05
-1.67324e-06
8.56276e-06
6.84392e-05
-2.28137e-06
1.09267e-05
6.65355e-05
-2.99338e-06
1.4166e-05
6.36965e-05
-3.81094e-06
1.86467e-05
5.94855e-05
-4.71076e-06
2.49413e-05
5.3269e-05
-5.63732e-06
3.38597e-05
4.32992e-05
-6.34015e-06
4.61865e-05
2.76092e-05
-6.17706e-06
6.12908e-05
-3.41469e-06
6.53858e-05
4.98588e-05
1.26456e-05
-8.15036e-10
3.92342e-05
1.06253e-05