/*--------------------------------*- C++ -*----------------------------------*\
| =========                 |                                                 |
| \\      /  F ield         | OpenFOAM: The Open Source CFD Toolbox           |
|  \\    /   O peration     | Version:  v1912                                 |
|   \\  /    A nd           | Website:  www.openfoam.com                      |
|    \\/     M anipulation  |                                                 |
\*---------------------------------------------------------------------------*/
FoamFile
{
    version     2.0;
    format      ascii;
    class       pointVectorField;
    location    "0.81/fluid";
    object      pointMotionU;
}
// * * * * * * * * * * * * * * * * * * * * * * * * * * * * * * * * * * * * * //

dimensions      [0 1 -1 0 0 0 0];


internalField   nonuniform List<vector> 
16859
(
(0 0 0)
(0 0 0)
(0 0 0)
(0 0 0)
(0 0 0)
(0 0 0)
(0 0 0)
(0 0 0)
(0 0 0)
(0 0 0)
(0 0 0)
(0 0 0)
(0 0 0)
(0 0 0)
(0 0 0)
(0 0 0)
(1.54914e-08 2.67508e-08 1.70819e-08)
(0 0 0)
(4.57729e-10 -1.07158e-09 8.43669e-10)
(8.75343e-10 -2.04961e-09 1.64452e-09)
(1.27073e-09 -2.97219e-09 2.46053e-09)
(1.66057e-09 -3.86695e-09 3.34323e-09)
(2.06141e-09 -4.74995e-09 4.3408e-09)
(2.49139e-09 -5.62346e-09 5.50017e-09)
(2.97254e-09 -6.47168e-09 6.8684e-09)
(3.53465e-09 -7.25283e-09 8.49345e-09)
(4.22204e-09 -7.88484e-09 1.04247e-08)
(5.10737e-09 -8.21995e-09 1.27147e-08)
(6.32024e-09 -7.99792e-09 1.54285e-08)
(8.10842e-09 -6.75314e-09 1.86758e-08)
(1.09505e-08 -3.63323e-09 2.26997e-08)
(1.56788e-08 2.87155e-09 2.80493e-08)
(2.25553e-08 1.3697e-08 3.49736e-08)
(3.25415e-08 3.49518e-08 4.2816e-08)
(0 0 0)
(9.03599e-10 -2.11166e-09 1.66535e-09)
(1.72753e-09 -4.04036e-09 3.24558e-09)
(2.50646e-09 -5.86235e-09 4.85447e-09)
(3.2725e-09 -7.6336e-09 6.59295e-09)
(4.0575e-09 -9.38857e-09 8.55538e-09)
(4.89586e-09 -1.11365e-08 1.08336e-08)
(5.82833e-09 -1.28542e-08 1.35193e-08)
(6.90773e-09 -1.44732e-08 1.6705e-08)
(8.20825e-09 -1.58578e-08 2.04833e-08)
(9.84197e-09 -1.67692e-08 2.49442e-08)
(1.19885e-08 -1.68115e-08 3.01755e-08)
(1.49462e-08 -1.53596e-08 3.62715e-08)
(1.91779e-08 -1.15153e-08 4.33511e-08)
(2.52007e-08 -4.31553e-09 5.15219e-08)
(3.22848e-08 5.36488e-09 5.98955e-08)
(4.4006e-08 1.94144e-08 7.26778e-08)
(0 0 0)
(1.32654e-09 -3.0892e-09 2.44477e-09)
(2.53493e-09 -5.91393e-09 4.76313e-09)
(3.67472e-09 -8.58865e-09 7.12067e-09)
(4.7915e-09 -1.11992e-08 9.66395e-09)
(5.93024e-09 -1.38023e-08 1.253e-08)
(7.13862e-09 -1.64219e-08 1.58519e-08)
(8.47131e-09 -1.90412e-08 1.97626e-08)
(9.99561e-09 -2.15893e-08 2.43958e-08)
(1.17989e-08 -2.39183e-08 2.98826e-08)
(1.39991e-08 -2.57692e-08 3.63437e-08)
(1.67584e-08 -2.67297e-08 4.3874e-08)
(2.02983e-08 -2.62007e-08 5.25193e-08)
(2.48805e-08 -2.34508e-08 6.22333e-08)
(3.06474e-08 -1.79631e-08 7.27761e-08)
(3.66688e-08 -1.09094e-08 8.27717e-08)
(4.57714e-08 -1.2393e-09 9.60708e-08)
(0 0 0)
(1.71651e-09 -3.97241e-09 3.16329e-09)
(3.27795e-09 -7.60992e-09 6.16031e-09)
(4.74623e-09 -1.10647e-08 9.20264e-09)
(6.17793e-09 -1.44535e-08 1.24772e-08)
(7.62835e-09 -1.78593e-08 1.61583e-08)
(9.15513e-09 -2.13288e-08 2.04153e-08)
(1.08223e-08 -2.48664e-08 2.54175e-08)
(1.2705e-08 -2.84231e-08 3.13352e-08)
(1.48937e-08 -3.18788e-08 3.83367e-08)
(1.74959e-08 -3.5014e-08 4.65747e-08)
(2.06339e-08 -3.74766e-08 5.61615e-08)
(2.4426e-08 -3.87528e-08 6.71197e-08)
(2.89242e-08 -3.81919e-08 7.92841e-08)
(3.3955e-08 -3.52137e-08 9.21141e-08)
(3.85325e-08 -3.03516e-08 1.03647e-07)
(4.50941e-08 -2.18202e-08 1.17161e-07)
(0 0 0)
(2.06529e-09 -4.72993e-09 3.80534e-09)
(3.94062e-09 -9.06812e-09 7.40628e-09)
(5.69729e-09 -1.32026e-08 1.10531e-08)
(7.40005e-09 -1.7281e-08 1.49663e-08)
(9.11155e-09 -2.1415e-08 1.93508e-08)
(1.08961e-08 -2.56796e-08 2.44054e-08)
(1.28235e-08 -3.01117e-08 3.03287e-08)
(1.49733e-08 -3.47035e-08 3.73225e-08)
(1.74368e-08 -3.93923e-08 4.5589e-08)
(2.03156e-08 -4.40427e-08 5.53195e-08)
(2.37114e-08 -4.84204e-08 6.66685e-08)
(2.76979e-08 -5.21504e-08 7.96999e-08)
(3.22418e-08 -5.46524e-08 9.42599e-08)
(3.70387e-08 -5.50821e-08 1.09696e-07)
(4.10436e-08 -5.28503e-08 1.23494e-07)
(4.63767e-08 -4.43107e-08 1.38496e-07)
(0 0 0)
(2.36682e-09 -5.33181e-09 4.35916e-09)
(4.5113e-09 -1.02306e-08 8.47782e-09)
(6.51095e-09 -1.49165e-08 1.26367e-08)
(8.43558e-09 -1.9566e-08 1.70817e-08)
(1.03521e-08 -2.43185e-08 2.20404e-08)
(1.23283e-08 -2.92799e-08 2.77322e-08)
(1.44366e-08 -3.4524e-08 3.43765e-08)
(1.67588e-08 -4.00929e-08 4.21969e-08)
(1.93885e-08 -4.5996e-08 5.14221e-08)
(2.24318e-08 -5.22063e-08 6.22803e-08)
(2.60051e-08 -5.86526e-08 7.49862e-08)
(3.02221e-08 -6.51933e-08 8.97069e-08)
(3.51421e-08 -7.15295e-08 1.06457e-07)
(4.06171e-08 -7.69753e-08 1.24784e-07)
(4.55913e-08 -8.00547e-08 1.41868e-07)
(5.2423e-08 -7.51882e-08 1.6107e-07)
(0 0 0)
(2.61738e-09 -5.75097e-09 4.81725e-09)
(4.98312e-09 -1.10447e-08 9.36042e-09)
(7.17757e-09 -1.61276e-08 1.39314e-08)
(9.27247e-09 -2.11998e-08 1.8793e-08)
(1.13357e-08 -2.64253e-08 2.41861e-08)
(1.34352e-08 -3.19374e-08 3.03411e-08)
(1.56426e-08 -3.7844e-08 3.74863e-08)
(1.80385e-08 -4.42334e-08 4.58535e-08)
(2.07164e-08 -5.11807e-08 5.56817e-08)
(2.37885e-08 -5.87581e-08 6.72176e-08)
(2.73954e-08 -6.70507e-08 8.07178e-08)
(3.17197e-08 -7.61771e-08 9.64477e-08)
(3.69944e-08 -8.62888e-08 1.14646e-07)
(4.34332e-08 -9.74412e-08 1.35307e-07)
(5.02571e-08 -1.08255e-07 1.55826e-07)
(6.16772e-08 -1.20273e-07 1.81506e-07)
(0 0 0)
(2.81573e-09 -5.96486e-09 5.17682e-09)
(5.35429e-09 -1.14668e-08 1.00493e-08)
(7.69553e-09 -1.67697e-08 1.49312e-08)
(9.9099e-09 -2.20908e-08 2.00928e-08)
(1.20631e-08 -2.76115e-08 2.57792e-08)
(1.42196e-08 -3.34854e-08 3.22212e-08)
(1.64462e-08 -3.98455e-08 3.96429e-08)
(1.88166e-08 -4.68111e-08 4.82679e-08)
(2.14161e-08 -5.4498e-08 5.83215e-08)
(2.43484e-08 -6.30307e-08 7.00326e-08)
(2.77455e-08 -7.25645e-08 8.36368e-08)
(3.17846e-08 -8.33157e-08 9.9383e-08)
(3.66935e-08 -9.55869e-08 1.17519e-07)
(4.2666e-08 -1.09703e-07 1.38164e-07)
(4.87821e-08 -1.24063e-07 1.58641e-07)
(6.54984e-08 -1.48605e-07 1.91114e-07)
(0 0 0)
(0 0 0)
(0 0 0)
(0 0 0)
(0 0 0)
(0 0 0)
(0 0 0)
(0 0 0)
(0 0 0)
(0 0 0)
(0 0 0)
(0 0 0)
(0 0 0)
(0 0 0)
(0 0 0)
(0 0 0)
(1.02508e-08 1.37057e-08 7.92698e-09)
(0 0 0)
(4.64819e-10 -1.09789e-09 8.16711e-10)
(8.88519e-10 -2.10021e-09 1.59075e-09)
(1.289e-09 -3.04659e-09 2.37734e-09)
(1.6828e-09 -3.96607e-09 3.22533e-09)
(2.08609e-09 -4.87602e-09 4.17988e-09)
(2.51604e-09 -5.77996e-09 5.28417e-09)
(2.99296e-09 -6.66366e-09 6.58014e-09)
(3.54371e-09 -7.48779e-09 8.10843e-09)
(4.2079e-09 -8.17507e-09 9.907e-09)
(5.05099e-09 -8.58789e-09 1.2009e-08)
(6.1926e-09 -8.488e-09 1.44428e-08)
(7.86763e-09 -7.45967e-09 1.72411e-08)
(1.05385e-08 -4.76604e-09 2.04706e-08)
(1.49838e-08 8.0121e-10 2.425e-08)
(2.14508e-08 9.87466e-09 2.83066e-08)
(2.85126e-08 2.09973e-08 2.95878e-08)
(0 0 0)
(9.17669e-10 -2.16339e-09 1.61212e-09)
(1.75372e-09 -4.13987e-09 3.13947e-09)
(2.54295e-09 -6.00877e-09 4.69048e-09)
(3.31726e-09 -7.82887e-09 6.36081e-09)
(4.10774e-09 -9.63707e-09 8.23897e-09)
(4.94703e-09 -1.1445e-08 1.04095e-08)
(5.87267e-09 -1.32322e-08 1.29543e-08)
(6.93195e-09 -1.49348e-08 1.59524e-08)
(8.19001e-09 -1.64249e-08 1.94755e-08)
(9.74475e-09 -1.74811e-08 2.35803e-08)
(1.17554e-08 -1.77443e-08 2.82955e-08)
(1.44938e-08 -1.667e-08 3.36052e-08)
(1.83987e-08 -1.35329e-08 3.94169e-08)
(2.39787e-08 -7.73119e-09 4.54586e-08)
(3.07683e-08 -2.60883e-10 5.08327e-08)
(3.83742e-08 4.53806e-09 5.49332e-08)
(0 0 0)
(1.34746e-09 -3.16472e-09 2.36669e-09)
(2.57402e-09 -6.05928e-09 4.60762e-09)
(3.72952e-09 -8.80276e-09 6.88062e-09)
(4.85938e-09 -1.1485e-08 9.32468e-09)
(6.0076e-09 -1.41662e-08 1.20683e-08)
(7.21962e-09 -1.68736e-08 1.52343e-08)
(8.5459e-09 -1.95942e-08 1.89421e-08)
(1.00464e-08 -2.22622e-08 2.33066e-08)
(1.17961e-08 -2.47392e-08 2.8432e-08)
(1.38927e-08 -2.67855e-08 3.43973e-08)
(1.64682e-08 -2.80289e-08 4.12295e-08)
(1.97015e-08 -2.79571e-08 4.8859e-08)
(2.3811e-08 -2.6019e-08 5.70438e-08)
(2.89317e-08 -2.20487e-08 6.52327e-08)
(3.44498e-08 -1.73336e-08 7.2196e-08)
(3.98383e-08 -1.52644e-08 7.67954e-08)
(0 0 0)
(1.74411e-09 -4.06938e-09 3.06246e-09)
(3.32973e-09 -7.7967e-09 5.95967e-09)
(4.81931e-09 -1.13401e-08 8.89339e-09)
(6.26942e-09 -1.48215e-08 1.20409e-08)
(7.73445e-09 -1.83282e-08 1.55658e-08)
(9.2697e-09 -2.19109e-08 1.96247e-08)
(1.09347e-08 -2.55781e-08 2.43704e-08)
(1.27967e-08 -2.92863e-08 2.99511e-08)
(1.49321e-08 -3.29236e-08 3.65038e-08)
(1.74256e-08 -3.62871e-08 4.41356e-08)
(2.03623e-08 -3.90565e-08 5.28888e-08)
(2.38053e-08 -4.07842e-08 6.2675e-08)
(2.77395e-08 -4.09521e-08 7.31538e-08)
(3.19587e-08 -3.92339e-08 8.35106e-08)
(3.57869e-08 -3.62649e-08 9.19922e-08)
(3.91985e-08 -3.46236e-08 9.69551e-08)
(0 0 0)
(2.09932e-09 -4.84532e-09 3.68442e-09)
(4.00468e-09 -9.29053e-09 7.16589e-09)
(5.78829e-09 -1.35308e-08 1.06832e-08)
(7.51517e-09 -1.772e-08 1.44455e-08)
(9.24737e-09 -2.19748e-08 1.86453e-08)
(1.10472e-08 -2.63748e-08 2.34668e-08)
(1.29806e-08 -3.09612e-08 2.90901e-08)
(1.51197e-08 -3.5731e-08 3.56924e-08)
(1.75431e-08 -4.06281e-08 4.34424e-08)
(2.03308e-08 -4.55276e-08 5.24832e-08)
(2.35494e-08 -5.02136e-08 6.28987e-08)
(2.72169e-08 -5.43437e-08 7.46442e-08)
(3.12258e-08 -5.73922e-08 8.73983e-08)
(3.52152e-08 -5.86078e-08 1.00239e-07)
(3.84002e-08 -5.7443e-08 1.10913e-07)
(4.05539e-08 -5.51043e-08 1.17155e-07)
(0 0 0)
(2.40686e-09 -5.4619e-09 4.22117e-09)
(4.58692e-09 -1.04815e-08 8.20382e-09)
(6.61897e-09 -1.52872e-08 1.22158e-08)
(8.57352e-09 -2.00622e-08 1.64905e-08)
(1.05174e-08 -2.49519e-08 2.12419e-08)
(1.2517e-08 -3.0067e-08 2.66736e-08)
(1.46422e-08 -3.54857e-08 3.29852e-08)
(1.69692e-08 -4.12544e-08 4.03746e-08)
(1.95822e-08 -4.73871e-08 4.90354e-08)
(2.25718e-08 -5.38628e-08 5.91468e-08)
(2.60301e-08 -6.06186e-08 7.08507e-08)
(3.00342e-08 -6.75225e-08 8.42024e-08)
(3.46011e-08 -7.42777e-08 9.90398e-08)
(3.95594e-08 -8.0159e-08 1.14609e-07)
(4.4102e-08 -8.36714e-08 1.28376e-07)
(4.71296e-08 -8.22391e-08 1.3774e-07)
(0 0 0)
(2.66283e-09 -5.8914e-09 4.66546e-09)
(5.06918e-09 -1.13158e-08 9.05938e-09)
(7.30108e-09 -1.65283e-08 1.34699e-08)
(9.43138e-09 -2.1737e-08 1.81465e-08)
(1.15285e-08 -2.71118e-08 2.33159e-08)
(1.36599e-08 -3.27915e-08 2.91922e-08)
(1.5896e-08 -3.88881e-08 3.59834e-08)
(1.83141e-08 -4.54938e-08 4.38957e-08)
(2.10027e-08 -5.26869e-08 5.31329e-08)
(2.40666e-08 -6.05433e-08 6.38929e-08)
(2.76363e-08 -6.9153e-08 7.63593e-08)
(3.18868e-08 -7.86417e-08 9.06824e-08)
(3.70635e-08 -8.91702e-08 1.06911e-07)
(4.34494e-08 -1.00769e-07 1.24685e-07)
(5.06119e-08 -1.12225e-07 1.41687e-07)
(5.8005e-08 -1.22365e-07 1.55179e-07)
(0 0 0)
(2.86582e-09 -6.11071e-09 5.01452e-09)
(5.44933e-09 -1.17485e-08 9.72789e-09)
(7.83237e-09 -1.71868e-08 1.44394e-08)
(1.00869e-08 -2.26506e-08 1.94061e-08)
(1.22798e-08 -2.83281e-08 2.48587e-08)
(1.44758e-08 -3.43781e-08 3.10116e-08)
(1.67417e-08 -4.09378e-08 3.80696e-08)
(1.91502e-08 -4.81299e-08 4.62313e-08)
(2.17851e-08 -5.6072e-08 5.56892e-08)
(2.47485e-08 -6.48905e-08 6.66263e-08)
(2.81728e-08 -7.4742e-08 7.92114e-08)
(3.22418e-08 -8.58458e-08 9.35872e-08)
(3.72113e-08 -9.85074e-08 1.09821e-07)
(4.33489e-08 -1.13017e-07 1.2769e-07)
(4.99633e-08 -1.27913e-07 1.44766e-07)
(6.12608e-08 -1.48584e-07 1.63945e-07)
(0 0 0)
(0 0 0)
(0 0 0)
(0 0 0)
(0 0 0)
(0 0 0)
(0 0 0)
(0 0 0)
(0 0 0)
(0 0 0)
(0 0 0)
(0 0 0)
(0 0 0)
(0 0 0)
(0 0 0)
(0 0 0)
(6.09784e-09 6.62724e-09 2.86656e-09)
(0 0 0)
(4.69695e-10 -1.12135e-09 7.60073e-10)
(8.97278e-10 -2.14552e-09 1.47949e-09)
(1.3002e-09 -3.11344e-09 2.20872e-09)
(1.69426e-09 -4.05536e-09 2.99202e-09)
(2.09439e-09 -4.98996e-09 3.86969e-09)
(2.51565e-09 -5.9226e-09 4.87911e-09)
(2.97463e-09 -6.84194e-09 6.05476e-09)
(3.4916e-09 -7.71421e-09 7.42664e-09)
(4.09437e-09 -8.47372e-09 9.01619e-09)
(4.82642e-09 -9.00835e-09 1.08282e-08)
(5.76419e-09 -9.13762e-09 1.28366e-08)
(7.05076e-09 -8.58146e-09 1.49589e-08)
(8.94377e-09 -6.92608e-09 1.70058e-08)
(1.17903e-08 -3.679e-09 1.85713e-08)
(1.54125e-08 9.74617e-10 1.89205e-08)
(1.77959e-08 5.89955e-09 1.46723e-08)
(0 0 0)
(9.2743e-10 -2.20945e-09 1.50034e-09)
(1.77131e-09 -4.22878e-09 2.91992e-09)
(2.56564e-09 -6.13992e-09 4.35789e-09)
(3.341e-09 -8.00398e-09 5.90102e-09)
(4.1262e-09 -9.86036e-09 7.62824e-09)
(4.94992e-09 -1.17238e-08 9.61284e-09)
(5.84282e-09 -1.35788e-08 1.19225e-08)
(6.84021e-09 -1.53706e-08 1.4616e-08)
(7.98605e-09 -1.69904e-08 1.7735e-08)
(9.34004e-09 -1.82564e-08 2.12868e-08)
(1.09906e-08 -1.88957e-08 2.52121e-08)
(1.30723e-08 -1.8548e-08 2.93274e-08)
(1.57616e-08 -1.68596e-08 3.3218e-08)
(1.91265e-08 -1.38433e-08 3.60724e-08)
(2.25142e-08 -1.07051e-08 3.67848e-08)
(2.45628e-08 -1.07805e-08 3.34172e-08)
(0 0 0)
(1.36218e-09 -3.2318e-09 2.20269e-09)
(2.60069e-09 -6.18874e-09 4.28563e-09)
(3.76441e-09 -8.99365e-09 6.39322e-09)
(4.89706e-09 -1.17397e-08 8.65157e-09)
(6.03961e-09 -1.44904e-08 1.11754e-08)
(7.23227e-09 -1.72768e-08 1.40714e-08)
(8.51649e-09 -2.00915e-08 1.74387e-08)
(9.93665e-09 -2.28788e-08 2.13645e-08)
(1.15407e-08 -2.55203e-08 2.59123e-08)
(1.33789e-08 -2.78175e-08 3.10977e-08)
(1.54986e-08 -2.94842e-08 3.6843e-08)
(1.79262e-08 -3.01823e-08 4.28973e-08)
(2.06131e-08 -2.96852e-08 4.87036e-08)
(2.32984e-08 -2.82963e-08 5.32403e-08)
(2.52938e-08 -2.7318e-08 5.52107e-08)
(2.5177e-08 -2.90243e-08 5.26149e-08)
(0 0 0)
(1.76389e-09 -4.15526e-09 2.8505e-09)
(3.36583e-09 -7.96238e-09 5.54374e-09)
(4.86729e-09 -1.15843e-08 8.26441e-09)
(6.32304e-09 -1.5147e-08 1.11734e-08)
(7.78411e-09 -1.87417e-08 1.4417e-08)
(9.3e-09 -2.24227e-08 1.81316e-08)
(1.09203e-08 -2.62036e-08 2.24447e-08)
(1.26952e-08 -3.00491e-08 2.74707e-08)
(1.46718e-08 -3.38632e-08 3.32977e-08)
(1.68843e-08 -3.74744e-08 3.99595e-08)
(1.93297e-08 -4.06279e-08 4.73832e-08)
(2.19165e-08 -4.30077e-08 5.52937e-08)
(2.437e-08 -4.43441e-08 6.30546e-08)
(2.61212e-08 -4.46942e-08 6.9461e-08)
(2.6477e-08 -4.47912e-08 7.28579e-08)
(2.43396e-08 -4.64629e-08 7.09357e-08)
(0 0 0)
(2.12419e-09 -4.94714e-09 3.42982e-09)
(4.05042e-09 -9.48695e-09 6.66667e-09)
(5.85009e-09 -1.38202e-08 9.92918e-09)
(7.58653e-09 -1.81055e-08 1.34073e-08)
(9.31854e-09 -2.24632e-08 1.72733e-08)
(1.11028e-08 -2.69765e-08 2.1688e-08)
(1.29954e-08 -3.16899e-08 2.68027e-08)
(1.5052e-08 -3.66053e-08 3.27557e-08)
(1.7323e-08 -4.16743e-08 3.96602e-08)
(1.98401e-08 -4.67877e-08 4.75768e-08)
(2.25859e-08 -5.17621e-08 5.64605e-08)
(2.54299e-08 -5.63233e-08 6.60603e-08)
(2.80115e-08 -6.00879e-08 7.5735e-08)
(2.96046e-08 -6.25818e-08 8.41673e-08)
(2.9377e-08 -6.35064e-08 8.93007e-08)
(2.58525e-08 -6.39029e-08 8.83631e-08)
(0 0 0)
(2.43673e-09 -5.57626e-09 3.93006e-09)
(4.64227e-09 -1.07021e-08 7.63352e-09)
(6.69488e-09 -1.56121e-08 1.13557e-08)
(8.66372e-09 -2.04947e-08 1.53087e-08)
(1.06128e-08 -2.5499e-08 1.96842e-08)
(1.26035e-08 -3.07383e-08 2.46604e-08)
(1.4697e-08 -3.62924e-08 3.04055e-08)
(1.69552e-08 -4.22084e-08 3.70753e-08)
(1.94375e-08 -4.84995e-08 4.48031e-08)
(2.21929e-08 -5.51433e-08 5.36765e-08)
(2.52399e-08 -6.20736e-08 6.36904e-08)
(2.85223e-08 -6.91549e-08 7.46534e-08)
(3.18188e-08 -7.60932e-08 8.59944e-08)
(3.45859e-08 -8.22158e-08 9.63999e-08)
(3.59058e-08 -8.62109e-08 1.03467e-07)
(3.3389e-08 -8.57523e-08 1.04087e-07)
(0 0 0)
(2.69744e-09 -6.01441e-09 4.34444e-09)
(5.13373e-09 -1.15531e-08 8.43115e-09)
(7.39075e-09 -1.6878e-08 1.25241e-08)
(9.54045e-09 -2.22022e-08 1.68502e-08)
(1.1649e-08 -2.76996e-08 2.16127e-08)
(1.37799e-08 -3.35106e-08 2.69995e-08)
(1.59966e-08 -3.97475e-08 3.31862e-08)
(1.83648e-08 -4.64991e-08 4.03356e-08)
(2.09536e-08 -5.38365e-08 4.85895e-08)
(2.38342e-08 -6.18199e-08 5.80496e-08)
(2.70784e-08 -7.0509e-08 6.87394e-08)
(3.07499e-08 -7.99679e-08 8.05242e-08)
(3.48822e-08 -9.02334e-08 9.29309e-08)
(3.93831e-08 -1.01112e-07 1.04745e-07)
(4.35958e-08 -1.11246e-07 1.13353e-07)
(4.65406e-08 -1.19193e-07 1.14909e-07)
(0 0 0)
(2.90472e-09 -6.23806e-09 4.67032e-09)
(5.52227e-09 -1.19943e-08 9.05508e-09)
(7.93474e-09 -1.75492e-08 1.34286e-08)
(1.02137e-08 -2.3133e-08 1.80247e-08)
(1.24244e-08 -2.89373e-08 2.30506e-08)
(1.46288e-08 -3.51226e-08 2.86948e-08)
(1.68885e-08 -4.18245e-08 3.51304e-08)
(1.92675e-08 -4.91606e-08 4.25144e-08)
(2.18353e-08 -5.72367e-08 5.09799e-08)
(2.46695e-08 -6.61563e-08 6.0619e-08)
(2.78589e-08 -7.60328e-08 7.14486e-08)
(3.15039e-08 -8.70013e-08 8.3341e-08)
(3.56979e-08 -9.92029e-08 9.58687e-08)
(4.04152e-08 -1.12631e-07 1.0798e-07)
(4.48297e-08 -1.25663e-07 1.17098e-07)
(5.13609e-08 -1.42462e-07 1.18843e-07)
(0 0 0)
(0 0 0)
(0 0 0)
(0 0 0)
(0 0 0)
(0 0 0)
(0 0 0)
(0 0 0)
(0 0 0)
(0 0 0)
(0 0 0)
(0 0 0)
(0 0 0)
(0 0 0)
(0 0 0)
(0 0 0)
(3.30088e-09 3.09742e-09 1.65469e-09)
(0 0 0)
(4.72576e-10 -1.14154e-09 6.76581e-10)
(9.02033e-10 -2.18453e-09 1.3162e-09)
(1.3051e-09 -3.17105e-09 1.96297e-09)
(1.69647e-09 -4.1324e-09 2.65516e-09)
(2.08937e-09 -5.08856e-09 3.42689e-09)
(2.496e-09 -6.0467e-09 4.30865e-09)
(2.92823e-09 -6.99882e-09 5.32658e-09)
(3.39822e-09 -7.91752e-09 6.4998e-09)
(3.91959e-09 -8.75008e-09 7.83447e-09)
(4.51026e-09 -9.41114e-09 9.31257e-09)
(5.19896e-09 -9.77548e-09 1.0872e-08)
(6.03736e-09 -9.6749e-09 1.23721e-08)
(7.11081e-09 -8.90713e-09 1.35393e-08)
(8.49854e-09 -7.29009e-09 1.39083e-08)
(9.98883e-09 -4.97864e-09 1.30101e-08)
(1.04019e-08 -1.621e-09 9.78788e-09)
(0 0 0)
(9.33319e-10 -2.24905e-09 1.33558e-09)
(1.78114e-09 -4.30527e-09 2.59776e-09)
(2.57611e-09 -6.25276e-09 3.87322e-09)
(3.34679e-09 -8.15467e-09 5.23701e-09)
(4.11877e-09 -1.00526e-08 6.75601e-09)
(4.9155e-09 -1.19645e-08 8.4901e-09)
(5.75893e-09 -1.38804e-08 1.04908e-08)
(6.66973e-09 -1.57558e-08 1.27963e-08)
(7.6668e-09 -1.75023e-08 1.54198e-08)
(8.76649e-09 -1.89795e-08 1.83281e-08)
(9.98119e-09 -1.99949e-08 2.1404e-08)
(1.13142e-08 -2.03348e-08 2.43836e-08)
(1.27336e-08 -1.98708e-08 2.67688e-08)
(1.40846e-08 -1.87987e-08 2.77802e-08)
(1.49493e-08 -1.78978e-08 2.68242e-08)
(1.49744e-08 -1.86698e-08 2.42995e-08)
(0 0 0)
(1.37134e-09 -3.28939e-09 1.96095e-09)
(2.61623e-09 -6.29989e-09 3.8131e-09)
(3.78175e-09 -9.15739e-09 5.68273e-09)
(4.90895e-09 -1.19578e-08 7.67897e-09)
(6.03452e-09 -1.47675e-08 9.89912e-09)
(7.19173e-09 -1.7621e-08 1.24306e-08)
(8.41067e-09 -2.05169e-08 1.53495e-08)
(9.71686e-09 -2.341e-08 1.87136e-08)
(1.11269e-08 -2.62029e-08 2.25472e-08)
(1.26388e-08 -2.8738e-08 2.68128e-08)
(1.42136e-08 -3.0806e-08 3.13618e-08)
(1.57402e-08 -3.22002e-08 3.58596e-08)
(1.69794e-08 -3.2872e-08 3.96942e-08)
(1.75213e-08 -3.32093e-08 4.19699e-08)
(1.70237e-08 -3.40457e-08 4.20463e-08)
(1.52705e-08 -3.63206e-08 4.04995e-08)
(0 0 0)
(1.77663e-09 -4.2288e-09 2.53794e-09)
(3.38785e-09 -8.10419e-09 4.93308e-09)
(4.89311e-09 -1.17928e-08 7.34696e-09)
(6.34417e-09 -1.5424e-08 9.91891e-09)
(7.78724e-09 -1.90916e-08 1.27732e-08)
(9.26402e-09 -2.28533e-08 1.60218e-08)
(1.08115e-08 -2.6727e-08 1.97633e-08)
(1.24593e-08 -3.06851e-08 2.40753e-08)
(1.4221e-08 -3.46462e-08 2.89975e-08)
(1.60769e-08 -3.84675e-08 3.4499e-08)
(1.79381e-08 -4.19478e-08 4.04246e-08)
(1.95835e-08 -4.48616e-08 4.64117e-08)
(2.05722e-08 -4.70616e-08 5.17918e-08)
(2.02328e-08 -4.86662e-08 5.55746e-08)
(1.82428e-08 -5.00901e-08 5.69229e-08)
(1.47053e-08 -5.21755e-08 5.63252e-08)
(0 0 0)
(2.1408e-09 -5.03408e-09 3.05416e-09)
(4.07966e-09 -9.65444e-09 5.93319e-09)
(5.88597e-09 -1.40661e-08 8.82841e-09)
(7.62004e-09 -1.84311e-08 1.19044e-08)
(9.33578e-09 -2.28723e-08 1.53077e-08)
(1.1082e-08 -2.74749e-08 1.91707e-08)
(1.29023e-08 -3.22853e-08 2.36109e-08)
(1.48322e-08 -3.73076e-08 2.8724e-08)
(1.68897e-08 -4.24977e-08 3.45659e-08)
(1.90554e-08 -4.77556e-08 4.11207e-08)
(2.12322e-08 -5.29156e-08 4.82435e-08)
(2.31705e-08 -5.77355e-08 5.55722e-08)
(2.43581e-08 -6.18796e-08 6.24135e-08)
(2.39762e-08 -6.49079e-08 6.76857e-08)
(2.1536e-08 -6.64037e-08 7.03009e-08)
(1.67228e-08 -6.67215e-08 7.06201e-08)
(0 0 0)
(2.45738e-09 -5.67359e-09 3.50018e-09)
(4.67923e-09 -1.08895e-08 6.79485e-09)
(6.74202e-09 -1.58869e-08 1.00987e-08)
(8.71212e-09 -2.08575e-08 1.35958e-08)
(1.0649e-08 -2.59526e-08 1.74492e-08)
(1.26068e-08 -3.12859e-08 2.18062e-08)
(1.46353e-08 -3.69362e-08 2.67979e-08)
(1.67779e-08 -4.29465e-08 3.25326e-08)
(1.90653e-08 -4.93233e-08 3.908e-08)
(2.15013e-08 -5.60314e-08 4.64386e-08)
(2.40332e-08 -6.29833e-08 5.44799e-08)
(2.6497e-08 -7.00059e-08 6.28544e-08)
(2.85277e-08 -7.67464e-08 7.08556e-08)
(2.94816e-08 -8.24609e-08 7.73025e-08)
(2.87482e-08 -8.58476e-08 8.08394e-08)
(2.50272e-08 -8.43089e-08 8.18651e-08)
(0 0 0)
(2.72214e-09 -6.11876e-09 3.86991e-09)
(5.17858e-09 -1.17539e-08 7.50628e-09)
(7.44974e-09 -1.71722e-08 1.11403e-08)
(9.6052e-09 -2.259e-08 1.49688e-08)
(1.17073e-08 -2.81825e-08 1.91652e-08)
(1.38132e-08 -3.40896e-08 2.38849e-08)
(1.59765e-08 -4.04194e-08 2.92651e-08)
(1.82475e-08 -4.7252e-08 3.54196e-08)
(2.06709e-08 -5.46419e-08 4.24229e-08)
(2.32803e-08 -6.26198e-08 5.02801e-08)
(2.60867e-08 -7.1192e-08 5.88721e-08)
(2.9058e-08 -8.03276e-08 6.78582e-08)
(3.20899e-08 -8.99015e-08 7.65156e-08)
(3.49681e-08 -9.94992e-08 8.35388e-08)
(3.72748e-08 -1.07765e-07 8.72256e-08)
(3.91602e-08 -1.12969e-07 8.75904e-08)
(0 0 0)
(2.93328e-09 -6.34579e-09 4.16096e-09)
(5.57474e-09 -1.22017e-08 8.06338e-09)
(8.00541e-09 -1.78529e-08 1.19476e-08)
(1.0295e-08 -2.35328e-08 1.60168e-08)
(1.25057e-08 -2.94341e-08 2.0448e-08)
(1.46944e-08 -3.57155e-08 2.53973e-08)
(1.69146e-08 -4.2507e-08 3.10003e-08)
(1.92181e-08 -4.99141e-08 3.73665e-08)
(2.16551e-08 -5.80209e-08 4.45642e-08)
(2.42732e-08 -6.68927e-08 5.2592e-08)
(2.71132e-08 -7.65765e-08 6.13264e-08)
(3.01977e-08 -8.70938e-08 7.04299e-08)
(3.3506e-08 -9.84025e-08 7.91973e-08)
(3.68997e-08 -1.10259e-07 8.63692e-08)
(3.97635e-08 -1.21135e-07 9.01684e-08)
(4.44299e-08 -1.3438e-07 8.81184e-08)
(0 0 0)
(0 0 0)
(0 0 0)
(0 0 0)
(0 0 0)
(0 0 0)
(0 0 0)
(0 0 0)
(0 0 0)
(0 0 0)
(0 0 0)
(0 0 0)
(0 0 0)
(0 0 0)
(0 0 0)
(0 0 0)
(2.00866e-09 1.60123e-09 1.63351e-09)
(0 0 0)
(4.73883e-10 -1.15816e-09 5.69846e-10)
(9.03703e-10 -2.21665e-09 1.10798e-09)
(1.30533e-09 -3.21849e-09 1.65093e-09)
(1.69225e-09 -4.19585e-09 2.22999e-09)
(2.0758e-09 -5.16973e-09 2.87244e-09)
(2.46527e-09 -6.14889e-09 3.60167e-09)
(2.8679e-09 -7.12813e-09 4.43607e-09)
(3.28847e-09 -8.08536e-09 5.38601e-09)
(3.7286e-09 -8.97791e-09 6.44786e-09)
(4.1867e-09 -9.73919e-09 7.59367e-09)
(4.66018e-09 -1.02775e-08 8.75507e-09)
(5.15202e-09 -1.04789e-08 9.8016e-09)
(5.68189e-09 -1.02115e-08 1.05217e-08)
(6.28432e-09 -9.32526e-09 1.06467e-08)
(6.90159e-09 -7.77903e-09 1.00664e-08)
(7.02461e-09 -4.63839e-09 8.44577e-09)
(0 0 0)
(9.36144e-10 -2.28166e-09 1.12495e-09)
(1.78497e-09 -4.36823e-09 2.18694e-09)
(2.57749e-09 -6.34558e-09 3.25774e-09)
(3.33999e-09 -8.27843e-09 4.39875e-09)
(4.09457e-09 -1.02102e-08 5.66349e-09)
(4.8593e-09 -1.21615e-08 7.09796e-09)
(5.6477e-09 -1.41267e-08 8.73864e-09)
(6.46713e-09 -1.60697e-08 1.06067e-08)
(7.31556e-09 -1.79178e-08 1.26968e-08)
(8.177e-09 -1.95584e-08 1.49578e-08)
(9.01625e-09 -2.08459e-08 1.72637e-08)
(9.77382e-09 -2.1632e-08 1.93763e-08)
(1.03643e-08 -2.18395e-08 2.09196e-08)
(1.0685e-08 -2.1583e-08 2.14466e-08)
(1.06799e-08 -2.12429e-08 2.08554e-08)
(1.07293e-08 -2.16489e-08 1.99627e-08)
(0 0 0)
(1.37606e-09 -3.33676e-09 1.65184e-09)
(2.62307e-09 -6.39124e-09 3.21039e-09)
(3.7859e-09 -9.2917e-09 4.78021e-09)
(4.90251e-09 -1.21361e-08 6.45063e-09)
(6.00497e-09 -1.4993e-08 8.29958e-09)
(7.11944e-09 -1.78996e-08 1.03944e-08)
(8.26499e-09 -2.0859e-08 1.27894e-08)
(9.45017e-09 -2.38341e-08 1.55178e-08)
(1.06658e-08 -2.6742e-08 1.85772e-08)
(1.18725e-08 -2.9451e-08 2.19047e-08)
(1.29808e-08 -3.17928e-08 2.53402e-08)
(1.38257e-08 -3.36104e-08 2.85862e-08)
(1.41512e-08 -3.48731e-08 3.11922e-08)
(1.36823e-08 -3.58451e-08 3.26689e-08)
(1.2505e-08 -3.69991e-08 3.29266e-08)
(1.11669e-08 -3.89021e-08 3.28653e-08)
(0 0 0)
(1.7837e-09 -4.28919e-09 2.13813e-09)
(3.39874e-09 -8.22045e-09 4.15387e-09)
(4.90203e-09 -1.19633e-08 6.18099e-09)
(6.34178e-09 -1.56491e-08 8.33361e-09)
(7.75896e-09 -1.93739e-08 1.07114e-08)
(9.18727e-09 -2.31973e-08 1.34008e-08)
(1.06515e-08 -2.71398e-08 1.64727e-08)
(1.21627e-08 -3.11785e-08 1.99733e-08)
(1.37078e-08 -3.524e-08 2.39075e-08)
(1.52297e-08 -3.9196e-08 2.82106e-08)
(1.65942e-08 -4.28669e-08 3.27093e-08)
(1.75411e-08 -4.60495e-08 3.70788e-08)
(1.76455e-08 -4.85895e-08 4.0834e-08)
(1.64181e-08 -5.05019e-08 4.34495e-08)
(1.39684e-08 -5.19763e-08 4.47291e-08)
(1.11097e-08 -5.36543e-08 4.55029e-08)
(0 0 0)
(2.15065e-09 -5.10528e-09 2.57341e-09)
(4.09565e-09 -9.7913e-09 4.99679e-09)
(5.9017e-09 -1.42662e-08 7.4286e-09)
(7.6255e-09 -1.8694e-08 1.00037e-08)
(9.3156e-09 -2.31991e-08 1.28399e-08)
(1.10126e-08 -2.78672e-08 1.60396e-08)
(1.2748e-08 -3.27444e-08 1.96876e-08)
(1.45391e-08 -3.78336e-08 2.38422e-08)
(1.63785e-08 -4.30891e-08 2.85169e-08)
(1.82129e-08 -4.84079e-08 3.36517e-08)
(1.99064e-08 -5.36188e-08 3.90695e-08)
(2.11823e-08 -5.84651e-08 4.44311e-08)
(2.15613e-08 -6.25752e-08 4.92202e-08)
(2.04199e-08 -6.54363e-08 5.28526e-08)
(1.76791e-08 -6.65717e-08 5.50008e-08)
(1.37053e-08 -6.63016e-08 5.64723e-08)
(0 0 0)
(2.47036e-09 -5.75306e-09 2.94971e-09)
(4.70116e-09 -1.10421e-08 5.72345e-09)
(6.76631e-09 -1.61093e-08 8.49915e-09)
(8.72875e-09 -2.11484e-08 1.14277e-08)
(1.06428e-08 -2.63113e-08 1.46403e-08)
(1.25551e-08 -3.17105e-08 1.82513e-08)
(1.45038e-08 -3.7421e-08 2.23554e-08)
(1.65161e-08 -4.34787e-08 2.70193e-08)
(1.85997e-08 -4.98773e-08 3.22635e-08)
(2.07291e-08 -5.65605e-08 3.80317e-08)
(2.28187e-08 -6.34054e-08 4.41442e-08)
(2.46831e-08 -7.01825e-08 5.02433e-08)
(2.59911e-08 -7.64588e-08 5.57596e-08)
(2.62808e-08 -8.14176e-08 5.99969e-08)
(2.53198e-08 -8.38548e-08 6.24925e-08)
(2.24791e-08 -8.14806e-08 6.42425e-08)
(0 0 0)
(2.73843e-09 -6.20371e-09 3.26185e-09)
(5.20696e-09 -1.19168e-08 6.32386e-09)
(7.48375e-09 -1.74092e-08 9.37767e-09)
(9.63532e-09 -2.28989e-08 1.25849e-08)
(1.17194e-08 -2.8561e-08 1.60854e-08)
(1.37865e-08 -3.45324e-08 1.99996e-08)
(1.58802e-08 -4.09147e-08 2.44273e-08)
(1.80366e-08 -4.77756e-08 2.94381e-08)
(2.02809e-08 -5.51483e-08 3.50542e-08)
(2.26217e-08 -6.30274e-08 4.12182e-08)
(2.50419e-08 -7.13611e-08 4.7744e-08)
(2.74887e-08 -8.00279e-08 5.42486e-08)
(2.98792e-08 -8.87797e-08 6.00865e-08)
(3.21411e-08 -9.71009e-08 6.43758e-08)
(3.41833e-08 -1.03826e-07 6.64158e-08)
(3.67931e-08 -1.07678e-07 6.72494e-08)
(0 0 0)
(2.95289e-09 -6.43325e-09 3.50777e-09)
(5.60971e-09 -1.23693e-08 6.79448e-09)
(8.04961e-09 -1.80965e-08 1.00595e-08)
(1.03398e-08 -2.38496e-08 1.34698e-08)
(1.25385e-08 -2.98206e-08 1.71683e-08)
(1.46969e-08 -3.61642e-08 2.12766e-08)
(1.68604e-08 -4.30019e-08 2.58931e-08)
(1.9069e-08 -5.04239e-08 3.10844e-08)
(2.1357e-08 -5.84882e-08 3.68679e-08)
(2.37516e-08 -6.72175e-08 4.31802e-08)
(2.62697e-08 -7.65928e-08 4.98278e-08)
(2.89138e-08 -8.65377e-08 5.6416e-08)
(3.16703e-08 -9.68877e-08 6.22712e-08)
(3.44917e-08 -1.07315e-07 6.64455e-08)
(3.70153e-08 -1.16564e-07 6.80992e-08)
(4.20008e-08 -1.28205e-07 6.64223e-08)
(0 0 0)
(0 0 0)
(0 0 0)
(0 0 0)
(0 0 0)
(0 0 0)
(0 0 0)
(0 0 0)
(0 0 0)
(0 0 0)
(0 0 0)
(0 0 0)
(0 0 0)
(0 0 0)
(0 0 0)
(0 0 0)
(1.51652e-09 1.08294e-09 1.50299e-09)
(0 0 0)
(4.74126e-10 -1.17105e-09 4.44099e-10)
(9.03373e-10 -2.24154e-09 8.63091e-10)
(1.30281e-09 -3.25525e-09 1.28504e-09)
(1.68478e-09 -4.24502e-09 1.73373e-09)
(2.05886e-09 -5.2325e-09 2.22937e-09)
(2.43186e-09 -6.22756e-09 2.78865e-09)
(2.80732e-09 -7.22691e-09 3.42359e-09)
(3.18458e-09 -8.21188e-09 4.13885e-09)
(3.55752e-09 -9.14563e-09 4.92703e-09)
(3.91425e-09 -9.97086e-09 5.76136e-09)
(4.23985e-09 -1.0609e-08 6.58647e-09)
(4.52671e-09 -1.09595e-08 7.31072e-09)
(4.79698e-09 -1.08905e-08 7.81086e-09)
(5.12672e-09 -1.02094e-08 7.97583e-09)
(5.56796e-09 -8.77244e-09 7.81849e-09)
(5.7989e-09 -5.51768e-09 7.00906e-09)
(0 0 0)
(9.36883e-10 -2.30697e-09 8.7676e-10)
(1.78489e-09 -4.41709e-09 1.7037e-09)
(2.57345e-09 -6.41754e-09 2.53595e-09)
(3.32668e-09 -8.3742e-09 3.42012e-09)
(4.06352e-09 -1.03317e-08 4.39597e-09)
(4.79739e-09 -1.23123e-08 5.49636e-09)
(5.53508e-09 -1.43134e-08 6.74522e-09)
(6.27426e-09 -1.6304e-08 8.15248e-09)
(6.99966e-09 -1.82198e-08 9.70519e-09)
(7.679e-09 -1.99614e-08 1.13541e-08)
(8.26105e-09 -2.13989e-08 1.29973e-08)
(8.68251e-09 -2.23925e-08 1.44666e-08)
(8.89489e-09 -2.28362e-08 1.55378e-08)
(8.92189e-09 -2.27288e-08 1.60089e-08)
(8.90625e-09 -2.22792e-08 1.59116e-08)
(9.34921e-09 -2.21945e-08 1.56966e-08)
(0 0 0)
(1.37772e-09 -3.37356e-09 1.28752e-09)
(2.62416e-09 -6.46212e-09 2.50126e-09)
(3.782e-09 -9.39568e-09 3.7215e-09)
(4.88626e-09 -1.22736e-08 5.01608e-09)
(5.96481e-09 -1.51657e-08 6.44297e-09)
(7.0377e-09 -1.81111e-08 8.05041e-09)
(8.11524e-09 -2.11151e-08 9.8742e-09)
(9.19374e-09 -2.41451e-08 1.19309e-08)
(1.02483e-08 -2.7125e-08 1.42061e-08)
(1.12219e-08 -2.99328e-08 1.66372e-08)
(1.20134e-08 -3.24091e-08 1.90935e-08)
(1.24701e-08 -3.43925e-08 2.13641e-08)
(1.24125e-08 -3.58023e-08 2.31819e-08)
(1.1752e-08 -3.67711e-08 2.43338e-08)
(1.07822e-08 -3.7642e-08 2.48623e-08)
(1.01063e-08 -3.8999e-08 2.52076e-08)
(0 0 0)
(1.78678e-09 -4.33606e-09 1.66676e-09)
(3.40211e-09 -8.31051e-09 3.23675e-09)
(4.9003e-09 -1.20948e-08 4.81269e-09)
(6.32621e-09 -1.58218e-08 6.48127e-09)
(7.71602e-09 -1.95885e-08 8.31668e-09)
(9.09655e-09 -2.34553e-08 1.03811e-08)
(1.04829e-08 -2.74436e-08 1.27215e-08)
(1.1873e-08 -3.15314e-08 1.53621e-08)
(1.32379e-08 -3.56467e-08 1.82904e-08)
(1.45053e-08 -3.96619e-08 2.14383e-08)
(1.5536e-08 -4.33938e-08 2.46603e-08)
(1.60992e-08 -4.66202e-08 2.77229e-08)
(1.58755e-08 -4.91321e-08 3.03382e-08)
(1.4594e-08 -5.08439e-08 3.22796e-08)
(1.25512e-08 -5.19017e-08 3.35217e-08)
(1.05422e-08 -5.3028e-08 3.4435e-08)
(0 0 0)
(2.15562e-09 -5.16044e-09 2.00636e-09)
(4.10238e-09 -9.89705e-09 3.89414e-09)
(5.90425e-09 -1.44199e-08 5.78502e-09)
(7.61441e-09 -1.88944e-08 7.78154e-09)
(9.27648e-09 -2.34453e-08 9.97145e-09)
(1.09241e-08 -2.81576e-08 1.24285e-08)
(1.25789e-08 -3.30754e-08 1.52094e-08)
(1.42457e-08 -3.81979e-08 1.83451e-08)
(1.59024e-08 -4.34727e-08 2.18269e-08)
(1.74838e-08 -4.87856e-08 2.55845e-08)
(1.88554e-08 -5.39456e-08 2.94622e-08)
(1.97799e-08 -5.8662e-08 3.32071e-08)
(1.98976e-08 -6.25105e-08 3.65028e-08)
(1.88114e-08 -6.49268e-08 3.90871e-08)