/*--------------------------------*- C++ -*----------------------------------*\
| =========                 |                                                 |
| \\      /  F ield         | OpenFOAM: The Open Source CFD Toolbox           |
|  \\    /   O peration     | Version:  v1912                                 |
|   \\  /    A nd           | Website:  www.openfoam.com                      |
|    \\/     M anipulation  |                                                 |
\*---------------------------------------------------------------------------*/
FoamFile
{
    version     2.0;
    format      ascii;
    class       volScalarField;
    location    "0.81/fluid";
    object      T;
}
// * * * * * * * * * * * * * * * * * * * * * * * * * * * * * * * * * * * * * //

dimensions      [0 0 0 1 0 0 0];


internalField   nonuniform List<scalar> 
14592
(
273.292
273.887
274.506
275.155
275.839
276.564
277.338
278.17
279.067
280.041
281.104
282.271
283.563
285.011
286.673
288.693
273.29
273.882
274.497
275.142
275.822
276.544
277.314
278.141
279.033
280.002
281.059
282.221
283.509
284.952
286.6
288.558
273.288
273.874
274.484
275.123
275.796
276.511
277.273
278.091
278.974
279.933
280.979
282.131
283.409
284.845
286.489
288.446
273.285
273.865
274.468
275.099
275.764
276.469
277.22
278.027
278.896
279.839
280.869
282.003
283.265
284.69
286.336
288.319
273.282
273.854
274.449
275.071
275.726
276.42
277.158
277.949
278.8
279.723
280.729
281.838
283.075
284.48
286.122
288.139
273.278
273.842
274.428
275.041
275.684
276.364
277.087
277.86
278.689
279.586
280.562
281.636
282.833
284.2
285.817
287.858
273.273
273.83
274.406
275.008
275.639
276.304
277.01
277.761
278.566
279.431
280.369
281.396
282.537
283.836
285.381
287.38
273.269
273.816
274.383
274.973
275.591
276.241
276.928
277.657
278.433
279.264
280.157
281.126
282.191
283.385
284.779
286.55
273.297
273.902
274.533
275.194
275.893
276.637
277.434
278.293
279.226
280.244
281.362
282.6
283.981
285.544
287.348
289.517
273.295
273.897
274.523
275.181
275.876
276.616
277.409
278.263
279.19
280.203
281.316
282.548
283.925
285.484
287.279
289.407
273.293
273.889
274.51
275.161
275.849
276.582
277.366
278.212
279.129
280.131
281.233
282.454
283.822
285.375
287.171
289.309
273.29
273.879
274.493
275.136
275.816
276.538
277.312
278.145
279.048
280.033
281.117
282.321
283.674
285.218
287.02
289.195
273.286
273.868
274.474
275.108
275.777
276.487
277.247
278.063
278.947
279.911
280.971
282.148
283.475
285.001
286.805
289.029
273.282
273.856
274.452
275.076
275.733
276.43
277.173
277.97
278.831
279.767
280.794
281.934
283.22
284.707
286.493
288.758
273.278
273.843
274.429
275.042
275.686
276.367
277.092
277.867
278.7
279.603
280.589
281.679
282.903
284.319
286.032
288.271
273.273
273.829
274.405
275.006
275.636
276.301
277.006
277.757
278.56
279.425
280.363
281.389
282.53
283.829
285.375
287.376
273.301
273.916
274.557
275.231
275.944
276.705
277.523
278.407
279.37
280.426
281.59
282.883
284.328
285.957
287.813
289.959
273.3
273.911
274.548
275.217
275.927
276.683
277.496
278.376
279.334
280.384
281.543
282.83
284.271
285.897
287.748
289.867
273.297
273.903
274.534
275.197
275.899
276.648
277.453
278.323
279.271
280.31
281.457
282.733
284.165
285.788
287.643
289.778
273.294
273.893
274.517
275.171
275.864
276.603
277.396
278.253
279.186
280.208
281.337
282.596
284.013
285.628
287.494
289.67
273.29
273.882
274.497
275.142
275.824
276.55
277.329
278.169
279.082
280.081
281.185
282.416
283.807
285.406
287.278
289.509
273.286
273.869
274.475
275.109
275.779
276.49
277.252
278.071
278.96
279.93
281
282.192
283.542
285.103
286.959
289.241
273.282
273.855
274.45
275.073
275.73
276.425
277.167
277.964
278.824
279.759
280.785
281.925
283.211
284.698
286.485
288.752
273.277
273.841
274.425
275.036
275.678
276.357
277.078
277.849
278.677
279.572
280.547
281.62
282.818
284.185
285.803
287.848
273.305
273.929
274.58
275.264
275.99
276.765
277.601
278.506
279.496
280.582
281.782
283.114
284.599
286.26
288.12
290.202
273.304
273.923
274.57
275.25
275.972
276.743
277.574
278.475
279.458
280.539
281.733
283.06
284.541
286.2
288.058
290.118
273.301
273.915
274.555
275.229
275.943
276.707
277.529
278.42
279.394
280.463
281.645
282.961
284.435
286.091
287.955
290.033
273.298
273.905
274.538
275.203
275.908
276.661
277.471
278.349
279.306
280.358
281.522
282.82
284.279
285.93
287.806
289.928
273.294
273.893
274.517
275.173
275.866
276.606
277.401
278.261
279.198
280.227
281.365
282.635
284.068
285.704
287.589
289.768
273.29
273.88
274.494
275.139
275.82
276.545
277.322
278.161
279.072
280.071
281.174
282.404
283.796
285.394
287.268
289.502
273.285
273.866
274.47
275.102
275.769
276.477
277.234
278.049
278.931
279.893
280.952
282.128
283.454
284.98
286.787
289.016
273.28
273.851
274.444
275.064
275.716
276.406
277.142
277.93
278.779
279.699
280.704
281.812
283.048
284.453
286.097
288.121
273.309
273.94
274.598
275.291
276.028
276.816
277.666
278.589
279.598
280.708
281.934
283.293
284.801
286.474
288.321
290.344
273.307
273.934
274.588
275.277
276.009
276.793
277.638
278.557
279.561
280.665
281.885
283.239
284.743
286.415
288.26
290.263
273.305
273.926
274.573
275.256
275.98
276.756
277.593
278.501
279.494
280.587
281.795
283.138
284.635
286.305
288.158
290.181
273.301
273.915
274.556
275.229
275.944
276.709
277.533
278.427
279.405
280.48
281.67
282.994
284.477
286.143
288.009
290.076
273.297
273.903
274.535
275.198
275.902
276.653
277.462
278.338
279.294
280.345
281.509
282.806
284.264
285.914
287.792
289.917
273.293
273.89
274.511
275.164
275.854
276.59
277.38
278.235
279.165
280.185
281.313
282.57
283.986
285.601
287.469
289.652
273.288
273.875
274.486
275.126
275.802
276.521
277.291
278.12
279.02
280.003
281.085
282.287
283.638
285.182
286.987
289.171
273.283
273.86
274.459
275.087
275.747
276.448
277.196
277.998
278.863
279.803
280.83
281.962
283.223
284.648
286.296
288.288
273.312
273.948
274.613
275.313
276.057
276.855
277.716
278.652
279.677
280.803
282.047
283.423
284.944
286.619
288.449
290.428
273.31
273.942
274.603
275.299
276.039
276.832
277.688
278.619
279.638
280.759
281.997
283.368
284.886
286.56
288.389
290.349
273.307
273.934
274.588
275.277
276.009
276.794
277.642
278.563
279.571
280.68
281.907
283.267
284.777
286.45
288.287
290.268
273.304
273.923
274.569
275.25
275.972
276.746
277.581
278.488
279.48
280.571
281.779
283.121
284.617
286.286
288.138
290.163
273.3
273.911
274.548
275.218
275.929
276.69
277.509
278.397
279.368
280.435
281.615
282.93
284.401
286.057
287.921
290.005
273.296
273.898
274.524
275.183
275.881
276.625
277.426
278.292
279.236
280.272
281.416
282.69
284.12
285.741
287.597
289.741
273.291
273.883
274.499
275.145
275.828
276.555
277.334
278.175
279.088
280.086
281.184
282.403
283.768
285.319
287.115
289.263
273.286
273.867
274.472
275.105
275.772
276.481
277.237
278.05
278.928
279.882
280.925
282.073
283.348
284.782
286.426
288.391
273.314
273.954
274.623
275.328
276.077
276.881
277.75
278.695
279.729
280.867
282.122
283.507
285.034
286.708
288.525
290.476
273.312
273.948
274.612
275.313
276.059
276.858
277.722
278.662
279.691
280.822
282.071
283.452
284.976
286.649
288.465
290.398
273.309
273.939
274.597
275.291
276.029
276.82
277.675
278.605
279.623
280.743
281.98
283.35
284.866
286.539
288.364
290.317
273.306
273.929
274.579
275.264
275.992
276.772
277.614
278.529
279.531
280.633
281.851
283.203
284.706
286.375
288.215
290.213
273.302
273.917
274.558
275.232
275.948
276.714
277.54
278.437
279.417
280.494
281.686
283.01
284.489
286.144
287.997
290.056
273.297
273.903
274.534
275.196
275.899
276.649
277.456
278.331
279.284
280.33
281.485
282.769
284.206
285.828
287.674
289.792
273.292
273.888
274.507
275.158
275.845
276.578
277.364
278.212
279.134
280.141
281.25
282.478
283.852
285.405
287.193
289.317
273.287
273.872
274.48
275.117
275.789
276.503
277.266
278.086
278.972
279.935
280.988
282.146
283.429
284.866
286.506
288.452
273.314
273.957
274.628
275.335
276.088
276.895
277.767
278.717
279.756
280.899
282.158
283.548
285.077
286.75
288.561
290.498
273.313
273.951
274.617
275.321
276.069
276.872
277.739
278.683
279.717
280.854
282.108
283.493
285.019
286.691
288.501
290.42
273.31
273.942
274.602
275.299
276.039
276.834
277.692
278.626
279.649
280.774
282.016
283.391
284.91
286.581
288.4
290.34
273.307
273.932
274.584
275.271
276.002
276.785
277.63
278.55
279.556
280.663
281.887
283.243
284.749
286.417
288.251
290.236
273.303
273.919
274.562
275.239
275.958
276.727
277.557
278.457
279.442
280.524
281.721
283.05
284.531
286.186
288.033
290.079
273.298
273.905
274.538
275.203
275.908
276.661
277.472
278.35
279.308
280.359
281.519
282.807
284.248
285.869
287.71
289.816
273.293
273.89
274.512
275.164
275.854
276.59
277.379
278.231
279.157
280.169
281.283
282.516
283.892
285.446
287.229
289.342
273.288
273.875
274.484
275.123
275.798
276.514
277.28
278.103
278.994
279.962
281.019
282.182
283.468
284.907
286.543
288.48
273.266
273.806
274.364
274.941
275.538
276.155
276.794
277.452
278.127
278.815
279.508
280.195
280.862
281.491
282.057
282.538
273.264
273.802
274.358
274.932
275.527
276.142
276.778
277.433
278.105
278.79
279.48
280.164
280.828
281.454
282.018
282.498
273.263
273.797
274.348
274.918
275.508
276.119
276.75
277.4
278.067
278.745
279.429
280.107
280.765
281.385
281.945
282.421
273.26
273.79
274.336
274.901
275.485
276.089
276.713
277.355
278.014
278.684
279.359
280.027
280.676
281.288
281.84
282.31
273.258
273.781
274.322
274.88
275.457
276.053
276.669
277.302
277.95
278.609
279.272
279.928
280.565
281.164
281.706
282.167
273.255
273.772
274.306
274.857
275.426
276.013
276.618
277.241
277.877
278.523
279.171
279.813
280.434
281.019
281.547
281.997
273.251
273.762
274.288
274.832
275.392
275.969
276.564
277.174
277.797
278.428
279.06
279.684
280.288
280.855
281.367
281.804
273.248
273.752
274.271
274.806
275.357
275.924
276.507
277.105
277.713
278.327
278.942
279.547
280.131
280.679
281.172
281.593
273.266
273.807
274.367
274.946
275.545
276.166
276.809
277.473
278.156
278.854
279.56
280.262
280.948
281.597
282.186
282.688
273.265
273.803
274.36
274.936
275.533
276.151
276.792
277.453
278.133
278.828
279.53
280.229
280.912
281.559
282.145
282.645
273.263
273.797
274.349
274.921
275.513
276.127
276.762
277.418
278.093
278.781
279.477
280.17
280.846
281.487
282.069
282.565
273.261
273.79
274.337
274.903
275.489
276.096
276.724
277.373
278.038
278.718
279.404
280.088
280.754
281.386
281.96
282.451
273.258
273.782
274.323
274.882
275.461
276.06
276.679
277.318
277.973
278.641
279.315
279.986
280.64
281.259
281.822
282.303
273.255
273.772
274.306
274.858
275.429
276.019
276.628
277.256
277.899
278.553
279.212
279.867
280.505
281.108
281.657
282.126
273.252
273.762
274.289
274.833
275.395
275.975
276.573
277.188
277.817
278.456
279.098
279.735
280.353
280.938
281.469
281.923
273.248
273.752
274.271
274.807
275.36
275.929
276.516
277.117
277.731
278.353
278.977
279.593
280.191
280.754
281.265
281.702
273.268
273.812
274.375
274.958
275.563
276.191
276.843
277.519
278.218
278.935
279.666
280.4
281.123
281.815
282.45
282.995
273.266
273.807
274.367
274.947
275.549
276.175
276.824
277.497
278.193
278.907
279.634
280.364
281.084
281.773
282.406
282.949
273.264
273.801
274.356
274.931
275.529
276.149
276.793
277.46
278.15
278.857
279.578
280.301
281.014
281.697
282.325
282.865
273.262
273.794
274.343
274.913
275.503
276.117
276.753
277.413
278.093
278.791
279.502
280.215
280.917
281.591
282.21
282.743
273.259
273.785
274.329
274.891
275.474
276.079
276.707
277.356
278.025
278.711
279.408
280.107
280.796
281.456
282.062
282.586
273.256
273.776
274.312
274.867
275.442
276.038
276.655
277.292
277.948
278.619
279.3
279.982
280.653
281.295
281.885
282.395
273.253
273.765
274.294
274.841
275.407
275.993
276.598
277.222
277.863
278.518
279.18
279.842
280.491
281.112
281.681
282.173
273.249
273.755
274.276
274.814
275.371
275.946
276.539
277.149
277.774
278.411
279.053
279.692
280.317
280.913
281.458
281.928
273.27
273.819
274.388
274.978
275.591
276.23
276.896
277.589
278.311
279.057
279.825
280.605
281.385
282.144
282.852
283.469
273.269
273.815
274.38
274.966
275.577
276.213
276.876
277.566
278.284
279.027
279.79
280.567
281.343
282.099
282.806
283.421
273.267
273.808
274.369
274.95
275.555
276.186
276.843
277.527
278.238
278.974
279.731
280.5
281.269
282.018
282.719
283.331
273.264
273.801
274.355
274.931
275.529
276.152
276.801
277.477
278.179
278.905
279.65
280.407
281.165
281.904
282.595
283.201
273.261
273.792
274.34
274.908
275.499
276.113
276.753
277.418
278.107
278.82
279.551
280.293
281.034
281.758
282.435
283.029
273.258
273.782
274.323
274.884
275.465
276.07
276.698
277.351
278.026
278.722
279.435
280.158
280.879
281.582
282.24
282.817
273.255
273.772
274.305
274.857
275.429
276.023
276.639
277.277
277.937
278.615
279.307
280.007
280.703
281.379
282.011
282.566
273.251
273.761
274.286
274.829
275.392
275.974
276.577
277.201
277.843
278.501
279.17
279.844
280.511
281.156
281.757
282.282
273.273
273.83
274.406
275.005
275.629
276.282
276.965
277.681
278.431
279.215
280.03
280.872
281.728
282.581
283.397
284.126
273.272
273.825
274.398
274.993
275.614
276.264
276.944
277.657
278.403
279.183
279.994
280.831
281.684
282.534
283.348
284.075
273.27
273.818
274.386
274.976
275.592
276.236
276.91
277.616
278.355
279.127
279.93
280.759
281.604
282.447
283.255
283.979
273.267
273.81
274.372
274.956
275.565
276.201
276.866
277.563
278.292
279.053
279.844
280.66
281.493
282.323
283.122
283.838
273.264
273.801
274.356
274.933
275.533
276.16
276.815
277.5
278.216
278.963
279.738
280.537
281.351
282.164
282.946
283.65
273.261
273.791
274.339
274.907
275.498
276.115
276.758
277.43
278.13
278.859
279.614
280.39
281.18
281.968
282.727
283.411
273.257
273.78
274.32
274.879
275.461
276.066
276.696
277.352
278.035
278.743
279.475
280.224
280.984
281.74
282.465
283.119
273.254
273.769
274.3
274.851
275.421
276.014
276.631
277.271
277.935
278.62
279.325
280.044
280.769
281.484
282.167
282.779
273.277
273.842
274.428
275.038
275.675
276.344
277.048
277.791
278.575
279.402
280.274
281.19
282.142
283.117
284.084
284.981
273.276
273.837
274.42
275.026
275.66
276.326
277.026
277.765
278.545
279.368
280.236
281.147
282.095
283.067
284.03
284.925
273.274
273.831
274.408
275.008
275.637
276.296
276.99
277.722
278.494
279.309
280.168
281.07
282.01
282.974
283.932
284.823
273.271
273.822
274.393
274.987
275.608
276.26
276.945
277.666
278.428
279.23
280.076
280.964
281.889
282.841
283.788
284.674
273.268
273.813
274.377
274.963
275.575
276.217
276.891
277.6
278.347
279.134
279.961
280.83
281.735
282.666
283.597
284.471
273.265
273.802
274.358
274.936
275.539
276.169
276.831
277.525
278.255
279.022
279.827
280.669
281.547
282.448
283.351
284.203
273.261
273.791
274.339
274.907
275.499
276.118
276.765
277.443
278.153
278.897
279.675
280.486
281.327
282.188
283.048
283.858
273.257
273.779
274.318
274.877
275.458
276.064
276.696
277.356
278.045
278.764
279.511
280.286
281.082
281.891
282.691
283.439
273.282
273.857
274.453
275.075
275.727
276.414
277.141
277.913
278.734
279.609
280.545
281.543
282.607
283.731
284.897
286.048
273.281
273.851
274.444
275.063
275.712
276.395
277.118
277.886
278.702
279.574
280.504
281.498
282.557
283.677
284.839
285.984
273.278
273.844
274.432
275.045
275.687
276.365
277.081
277.841
278.649
279.511
280.432
281.416
282.466
283.578
284.735
285.876
273.276
273.836
274.417
275.023
275.658
276.326
277.033
277.782
278.578
279.427
280.334
281.302
282.337
283.436
284.584
285.724
273.272
273.826
274.4
274.997
275.623
276.281
276.976
277.712
278.493
279.324
280.21
281.157
282.169
283.247
284.379
285.512
273.269
273.815
274.38
274.969
275.585
276.231
276.912
277.632
278.394
279.204
280.065
280.983
281.962
283.007
284.107
285.219
273.265
273.803
274.36
274.939
275.543
276.177
276.843
277.545
278.285
279.069
279.899
280.781
281.717
282.71
283.756
284.816
273.261
273.791
274.339
274.907
275.5
276.12
276.77
277.452
278.17
278.924
279.72
280.557
281.439
282.364
283.325
284.286
273.287
273.872
274.479
275.115
275.783
276.489
277.239
278.041
278.9
279.826
280.826
281.912
283.093
284.383
285.794
287.323
273.285
273.866
274.47
275.102
275.766
276.469
277.216
278.013
278.868
279.788
280.784
281.864
283.04
284.326
285.729
287.236
273.283
273.859
274.458
275.083
275.741
276.437
277.176
277.966
278.812
279.723
280.708
281.777
282.944
284.222
285.62
287.123
273.28
273.85
274.442
275.06
275.71
276.397
277.126
277.904
278.737
279.634
280.603
281.656
282.808
284.073
285.466
286.977
273.277
273.84
274.424
275.034
275.674
276.35
277.067
277.83
278.646
279.524
280.471
281.501
282.628
283.872
285.253
286.772
273.273
273.828
274.404
275.005
275.634
276.297
276.999
277.745
278.542
279.395
280.314
281.312
282.403
283.609
284.96
286.471
273.269
273.816
274.383
274.973
275.591
276.24
276.926
277.652
278.425
279.25
280.135
281.09
282.13
283.277
284.562
286.015
273.265
273.803
274.36
274.94
275.545
276.18
276.848
277.554
278.301
279.094
279.939
280.843
281.817
282.877
284.044
285.34
273.265
273.803
274.359
274.938
275.543
276.178
276.845
277.55
278.297
279.089
279.934
280.838
281.812
282.872
284.039
285.335
273.26
273.79
274.337
274.905
275.497
276.116
276.764
277.446
278.162
278.916
279.711
280.548
281.429
282.354
283.315
284.277
273.256
273.777
274.316
274.873
275.453
276.058
276.689
277.348
278.036
278.753
279.5
280.273
281.069
281.878
282.678
283.427
273.253
273.767
274.297
274.846
275.416
276.007
276.622
277.261
277.923
278.607
279.311
280.029
280.753
281.469
282.152
282.765
273.25
273.758
274.282
274.824
275.385
275.966
276.568
277.189
277.83
278.486
279.155
279.827
280.494
281.139
281.74
282.267
273.248
273.752
274.272
274.809
275.364
275.937
276.528
277.137
277.76
278.395
279.036
279.675
280.299
280.895
281.44
281.912
273.247
273.749
274.267
274.801
275.352
275.92
276.504
277.104
277.716
278.337
278.959
279.575
280.172
280.736
281.247
281.685
273.247
273.749
274.266
274.8
275.349
275.915
276.496
277.091
277.698
278.311
278.924
279.528
280.112
280.66
281.154
281.576
273.269
273.815
274.38
274.969
275.586
276.234
276.919
277.644
278.416
279.24
280.124
281.078
282.118
283.265
284.55
286.005
273.264
273.801
274.357
274.934
275.537
276.169
276.833
277.533
278.273
279.055
279.884
280.765
281.7
282.694
283.74
284.801
273.26
273.788
274.335
274.902
275.492
276.109
276.754
277.43
278.138
278.881
279.657
280.467
281.308
282.168
283.029
283.841
273.257
273.777
274.316
274.873
275.452
276.055
276.683
277.338
278.018
278.725
279.455
280.203
280.963
281.718
282.444
283.099
273.254
273.769
274.3
274.85
275.42
276.012
276.626
277.262
277.919
278.595
279.286
279.984
280.68
281.356
281.989
282.545
273.252
273.762
274.289
274.834
275.398
275.981
276.584
277.205
277.844
278.497
279.158
279.819
280.467
281.088
281.658
282.151
273.251
273.759
274.284
274.826
275.385
275.963
276.558
277.171
277.797
278.434
279.075
279.711
280.329
280.913
281.445
281.901
273.25
273.759
274.283
274.824
275.382
275.957
276.549
277.157
277.777
278.406
279.037
279.66
280.263
280.83
281.343
281.782
273.272
273.826
274.4
274.999
275.626
276.287
276.987
277.731
278.525
279.377
280.295
281.291
282.381
283.588
284.941
286.454
273.268
273.812
274.375
274.962
275.575
276.219
276.898
277.615
278.375
279.182
280.042
280.958
281.937
282.981
284.083
285.197
273.263
273.799
274.353
274.928
275.528
276.156
276.814
277.506
278.233
278.998
279.801
280.642
281.519
282.42
283.324
284.177
273.26
273.787
274.333
274.898
275.487
276.1
276.741
277.409
278.107
278.833
279.586
280.361
281.15
281.938
282.698
283.384
273.257
273.778
274.317
274.874
275.453
276.055
276.68
277.329
278.002
278.696
279.407
280.128
280.848
281.551
282.21
282.789
273.255
273.772
274.305
274.858
275.429
276.022
276.636
277.27
277.923
278.592
279.271
279.951
280.621
281.263
281.855
282.366
273.254
273.768
274.3
274.849
275.416
276.003
276.609
277.233
277.873
278.525
279.182
279.836
280.473
281.077
281.626
282.098
273.253
273.768
274.299
274.847
275.412
275.997
276.599
277.218
277.851
278.495
279.141
279.781
280.402
280.987
281.517
281.969
273.276
273.836
274.418
275.025
275.662
276.334
277.048
277.808
278.621
279.496
280.442
281.469
282.595
283.839
285.222
286.745
273.271
273.822
274.392
274.987
275.609
276.264
276.955
277.687
278.465
279.293
280.177
281.122
282.133
283.211
284.344
285.479
273.267
273.808
274.369
274.952
275.561
276.198
276.868
277.574
278.317
279.101
279.926
280.792
281.696
282.627
283.559
284.435
273.263
273.796
274.348
274.921
275.518
276.14
276.792
277.473
278.185
278.929
279.701
280.498
281.311
282.124
282.907
283.614
273.26
273.787
274.332
274.896
275.483
276.093
276.729
277.39
278.076
278.785
279.513
280.253
280.994
281.717
282.396
282.993
273.257
273.78
274.32
274.879
275.458
276.059
276.682
277.328
277.993
278.676
279.371
280.068
280.756
281.416
282.024
282.55
273.256
273.777
274.314
274.869
275.444
276.039
276.654
277.289
277.941
278.606
279.277
279.946
280.599
281.219
281.784
282.268
273.256
273.776
274.313
274.867
275.44
276.032
276.644
277.273
277.918
278.574
279.234
279.889
280.525
281.125
281.668
282.133
273.278
273.845
274.433
275.047
275.692
276.374
277.099
277.872
278.701
279.594
280.56
281.611
282.761
284.025
285.42
286.935
273.274
273.83
274.407
275.008
275.638
276.302
277.003
277.748
278.54
279.385
280.288
281.254
282.287
283.386
284.534
285.676
273.269
273.816
274.383
274.972
275.588
276.234
276.914
277.631
278.387
279.186
280.029
280.914
281.838
282.789
283.737
284.625
273.265
273.804
274.361
274.94
275.544
276.175
276.835
277.527
278.251
279.008
279.796
280.61
281.441
282.271
283.071
283.79
273.262
273.794
274.344
274.915
275.508
276.126
276.77
277.441
278.138
278.859
279.602
280.357
281.113
281.852
282.546
283.154
273.26
273.787
274.332
274.897
275.482
276.09
276.722
277.376
278.052
278.747
279.454
280.165
280.866
281.54
282.161
282.698
273.258
273.784
274.326
274.887
275.468
276.07
276.693
277.336
277.998
278.674
279.357
280.039
280.705
281.337
281.913
282.407
273.258
273.783
274.325
274.885
275.464
276.063
276.681
277.319
277.974
278.64
279.312
279.979
280.627
281.239
281.794
282.267
273.281
273.852
274.444
275.064
275.716
276.405
277.138
277.921
278.762
279.669
280.65
281.716
282.88
284.156
285.553
287.058
273.276
273.836
274.418
275.024
275.661
276.331
277.041
277.794
278.597
279.455
280.372
281.352
282.4
283.511
284.666
285.808
273.271
273.822
274.393
274.988
275.609
276.262
276.949
277.675
278.442
279.252
280.107
281.005
281.943
282.906
283.864
284.757
273.267
273.81
274.372
274.955
275.564
276.201
276.868
277.568
278.302
279.069
279.869
280.695
281.538
282.38
283.19
283.917
273.264
273.8
274.354
274.929
275.528
276.151
276.802
277.48
278.186
278.917
279.67
280.436
281.204
281.954
282.657
283.273
273.262
273.793
274.342
274.911
275.501
276.115
276.753
277.414
278.098
278.801
279.518
280.239
280.951
281.635
282.265
282.81
273.26
273.789
274.335
274.901
275.487
276.094
276.723
277.373
278.042
278.726
279.419
280.11
280.785
281.427
282.012
282.513
273.26
273.788
274.334
274.898
275.482
276.086
276.711
277.356
278.017
278.692
279.372
280.048
280.706
281.327
281.89
282.37
273.282
273.856
274.452
275.076
275.732
276.426
277.165
277.955
278.804
279.719
280.709
281.785
282.958
284.238
285.635
287.131
273.277
273.841
274.426
275.036
275.676
276.351
277.066
277.826
278.637
279.502
280.428
281.418
282.473
283.591
284.749
285.89
273.273
273.827
274.401
274.998
275.624
276.281
276.974
277.705
278.478
279.296
280.159
281.066
282.012
282.983
283.946
284.841
273.268
273.814
274.379
274.966
275.578
276.219
276.892
277.597
278.337
279.111
279.918
280.752
281.603
282.453
283.268
283.998
273.265
273.804
274.361
274.939
275.541
276.169
276.824
277.507
278.219
278.956
279.716
280.489
281.265
282.021
282.73
283.351
273.263
273.797
274.348
274.92
275.514
276.132
276.774
277.44
278.129
278.839
279.562
280.29
281.009
281.699
282.335
282.884
273.262
273.793
274.342
274.91
275.499
276.11
276.744
277.398
278.073
278.762
279.461
280.158
280.84
281.488
282.078
282.584
273.261
273.792
274.341
274.908
275.495
276.103
276.731
277.38
278.047
278.727
279.414
280.096
280.759
281.386
281.954
282.439
273.283
273.859
274.457
275.082
275.74
276.437
277.179
277.972
278.825
279.744
280.739
281.819
282.996
284.278
285.674
287.166
273.278
273.843
274.43
275.042
275.684
276.361
277.079
277.842
278.656
279.526
280.456
281.45
282.51
283.63
284.79
285.929
273.273
273.829
274.404
275.004
275.632
276.291
276.986
277.72
278.497
279.318
280.185
281.097
282.047
283.02
283.986
284.882
273.269
273.816
274.382
274.971
275.585
276.229
276.903
277.611
278.354
279.132
279.942
280.78
281.635
282.488
283.306
284.039
273.266
273.806
274.364
274.944
275.548
276.178
276.835
277.521
278.235
278.976
279.739
280.516
281.295
282.055
282.767
283.39
273.263
273.799
274.352
274.925
275.521
276.14
276.785
277.453
278.145
278.857
279.584
280.315
281.037
281.731
282.369
282.921
273.262
273.795
274.345
274.915
275.506
276.119
276.754
277.411
278.088
278.781
279.482
280.183
280.868
281.519
282.111
282.619
273.262
273.794
274.344
274.912
275.501
276.111
276.742
277.393
278.062
278.745
279.435
280.12
280.786
281.416
281.987
282.474
273.244
273.741
274.253
274.779
275.321
275.879
276.45
277.034
277.628
278.226
278.822
279.407
279.97
280.497
280.971
281.375
273.241
273.731
274.236
274.754
275.288
275.835
276.395
276.966
277.545
278.126
278.704
279.269
279.811
280.316
280.771
281.157
273.238
273.722
274.22
274.731
275.256
275.794
276.344
276.903
277.467
278.033
278.593
279.139
279.661
280.146
280.581
280.951
273.236
273.714
274.206
274.711
275.229
275.759
276.299
276.847
277.399
277.95
278.494
279.023
279.527
279.993
280.411
280.765
273.233
273.707
274.195
274.695
275.207
275.73
276.262
276.801
277.342
277.881
278.412
278.926
279.414
279.865
280.267
280.608
273.232
273.703
274.187
274.683
275.191
275.709
276.235
276.766
277.3
277.829
278.349
278.852
279.327
279.765
280.155
280.486
273.231
273.7
274.182
274.677
275.182
275.696
276.218
276.745
277.272
277.796
278.308
278.802
279.269
279.698
280.08
280.404
273.231
273.7
274.181
274.675
275.178
275.691
276.211
276.735
277.26
277.78
278.289
278.778
279.241
279.666
280.043
280.363
273.245
273.741
274.253
274.78
275.324
275.883
276.458
277.046
277.644
278.249
278.853
279.449
280.024
280.564
281.053
281.47
273.241
273.731
274.236
274.755
275.29
275.839
276.402
276.976
277.56
278.147
278.732
279.306
279.858
280.376
280.842
281.24
273.238
273.722
274.22
274.732
275.258
275.798
276.35
276.912
277.481
278.052
278.618
279.172
279.703
280.197
280.642
281.022
273.236
273.714
274.206
274.711
275.23
275.762
276.304
276.855
277.411
277.967
278.517
279.052
279.563
280.038
280.463
280.825
273.234
273.707
274.194
274.695
275.208
275.732
276.267
276.808
277.353
277.897
278.432
278.952
279.446
279.903
280.312
280.66
273.232
273.703
274.187
274.683
275.192
275.712
276.24
276.774
277.31
277.844
278.368
278.875
279.356
279.8
280.196
280.532
273.231
273.7
274.183
274.677
275.184
275.7
276.224
276.753
277.284
277.81
278.327
278.825
279.297
279.731
280.118
280.446
273.231
273.7
274.182
274.676
275.181
275.696
276.218
276.745
277.272
277.795
278.308
278.802
279.268
279.698
280.08
280.404
273.246
273.744
274.258
274.788
275.334
275.898
276.479
277.075
277.684
278.302
278.922
279.538
280.137
280.705
281.224
281.67
273.242
273.734
274.24
274.762
275.299
275.853
276.421
277.003
277.596
278.195
278.794
279.386
279.959
280.5
280.99
281.412
273.239
273.724
274.224
274.738
275.267
275.81
276.368
276.936
277.514
278.095
278.674
279.243
279.791
280.305
280.77
281.168
273.237
273.716
274.209
274.717
275.238
275.773
276.321
276.877
277.441
278.006
278.567
279.115
279.64
280.131
280.572
280.949
273.234
273.709
274.198
274.7
275.216
275.744
276.282
276.829
277.381
277.933
278.478
279.008
279.514
279.985
280.407
280.766
273.233
273.705
274.19
274.689
275.2
275.723
276.255
276.794
277.337
277.878
278.41
278.927
279.418
279.873
280.279
280.625
273.232
273.703
274.186
274.683
275.192
275.711
276.239
276.773
277.31
277.843
278.367
278.874
279.355
279.799
280.195
280.531
273.232
273.703
274.186
274.682
275.19
275.708
276.234
276.765
277.299
277.828
278.348
278.85
279.325
279.764
280.154
280.485
273.247
273.75
274.267
274.802
275.354
275.925
276.515
277.123
277.747
278.384
279.03
279.675
280.311
280.922
281.488
281.98
273.244
273.739
274.249
274.775
275.318
275.878
276.455
277.048
277.654
278.27
278.891
279.509
280.113
280.689
281.219
281.677
273.241
273.729
274.232
274.75
275.284
275.834
276.399
276.977
277.567
278.163
278.761
279.352
279.926
280.469
280.964
281.391
273.238
273.721
274.217
274.729
275.255
275.795
276.35
276.916
277.49
278.069
278.645
279.212
279.759
280.273
280.738
281.137
273.236
273.714
274.206
274.711
275.231
275.765
276.31
276.865
277.427
277.99
278.549
279.095
279.619
280.109
280.549
280.926
273.234
273.709
274.198
274.7
275.215
275.743
276.282
276.828
277.38
277.931
278.476
279.007
279.513
279.983
280.405
280.765
273.234
273.707
274.194
274.694
275.207
275.731
276.265
276.807
277.351
277.895
278.43
278.95
279.444
279.901
280.31
280.658
273.233
273.707
274.194
274.694
275.205
275.728
276.26
276.799
277.34
277.879
278.41
278.923
279.411
279.862
280.264
280.606
273.25
273.757
274.281
274.822
275.382
275.963
276.565
277.189
277.832
278.495
279.171
279.857
280.542
281.213
281.847
282.41
273.246
273.746
274.262
274.794
275.344
275.913
276.501
277.108
277.732
278.371
279.019
279.671
280.317
280.942
281.525
282.038
273.243
273.736
274.244
274.768
275.309
275.867
276.442
277.034
277.639
278.255
278.876
279.496
280.104
280.686
281.223
281.691
273.24
273.728
274.229
274.746
275.278
275.827
276.391
276.968
277.556
278.152
278.749
279.34
279.915
280.459
280.957
281.386
273.238
273.72
274.217
274.728
275.254
275.794
276.349
276.914
277.488
278.067
278.643
279.21
279.757
280.271
280.736
281.136
273.236
273.716
274.209
274.716
275.237
275.772
276.319
276.875
277.438
278.003
278.564
279.112
279.637
280.128
280.569
280.946
273.236
273.713
274.205
274.71
275.228
275.759
276.301
276.852
277.408
277.963
278.513
279.048