/*--------------------------------*- C++ -*----------------------------------*\
| =========                 |                                                 |
| \\      /  F ield         | OpenFOAM: The Open Source CFD Toolbox           |
|  \\    /   O peration     | Version:  v1912                                 |
|   \\  /    A nd           | Website:  www.openfoam.com                      |
|    \\/     M anipulation  |                                                 |
\*---------------------------------------------------------------------------*/
FoamFile
{
    version     2.0;
    format      ascii;
    class       volVectorField;
    location    "0.81/fluid";
    object      U;
}
// * * * * * * * * * * * * * * * * * * * * * * * * * * * * * * * * * * * * * //

dimensions      [0 1 -1 0 0 0 0];


internalField   nonuniform List<vector> 
14592
(
(0.0877166 0.017328 0.000597231)
(0.0719462 0.0118892 0.0010438)
(0.0562066 0.00758671 0.00094249)
(0.0470075 0.00383662 0.000414541)
(0.0411318 0.00180782 -0.000453025)
(0.0378186 0.000769604 -0.00155614)
(0.0357487 0.000316257 -0.00287679)
(0.0343545 0.000123761 -0.00445399)
(0.0331083 3.75257e-05 -0.00638412)
(0.0319508 -3.93499e-05 -0.00881796)
(0.0304152 -0.000151048 -0.0120019)
(0.0289909 -0.000401614 -0.0162383)
(0.0262689 -0.000778032 -0.0221983)
(0.0241299 -0.00167589 -0.0299338)
(0.0170933 -0.00214091 -0.0399385)
(0.00977172 -0.0050111 -0.0376237)
(0.103959 0.0181843 0.000838364)
(0.103373 0.0182161 0.00155997)
(0.099762 0.0152059 0.00156475)
(0.0953134 0.0106876 0.000878263)
(0.0910311 0.00704616 -0.000457924)
(0.0875964 0.0044912 -0.00232051)
(0.0847619 0.00297535 -0.00465752)
(0.0823281 0.00218264 -0.00750508)
(0.0798645 0.00184148 -0.0110041)
(0.077262 0.00172769 -0.0154036)
(0.0738814 0.00168939 -0.0211046)
(0.0700435 0.00153793 -0.0286316)
(0.0637518 0.00121249 -0.0389175)
(0.056674 0.00012275 -0.0519812)
(0.0406688 -0.00101522 -0.0669532)
(0.0236071 -0.00503983 -0.0610557)
(0.104003 0.0121983 0.000922788)
(0.108486 0.0168992 0.00175019)
(0.111516 0.016472 0.00181358)
(0.112079 0.0133861 0.00112418)
(0.111325 0.0101196 -0.000287019)
(0.109857 0.00743631 -0.0023092)
(0.107972 0.00565879 -0.00489286)
(0.105819 0.00468776 -0.00807507)
(0.103232 0.00433621 -0.0120026)
(0.100191 0.00439287 -0.0169487)
(0.0960592 0.0046855 -0.0233489)
(0.0910339 0.00500406 -0.0318123)
(0.0828787 0.0052417 -0.0433411)
(0.0730672 0.00471431 -0.0581814)
(0.0522467 0.00343084 -0.0752089)
(0.0292307 -0.00156144 -0.0699228)
(0.102148 0.00783593 0.000957559)
(0.106917 0.0131568 0.00183946)
(0.111974 0.0143203 0.00193795)
(0.115036 0.0129965 0.00126827)
(0.116571 0.0108936 -0.000129)
(0.116805 0.0089027 -0.00214267)
(0.116081 0.00751132 -0.00472488)
(0.114643 0.00681823 -0.00791497)
(0.112463 0.00677685 -0.011859)
(0.109595 0.00727208 -0.0168367)
(0.105427 0.00819965 -0.0232867)
(0.100117 0.00940297 -0.0318626)
(0.0912761 0.0107893 -0.0435889)
(0.0802754 0.0116139 -0.0589194)
(0.0571582 0.0110601 -0.0767708)
(0.0309491 0.00458474 -0.072628)
(0.101099 0.00507456 0.000984512)
(0.104943 0.00968648 0.00190983)
(0.109908 0.011517 0.00204535)
(0.11375 0.0114351 0.00140881)
(0.116414 0.0104566 5.32763e-05)
(0.117774 0.00933645 -0.00190186)
(0.118033 0.00856826 -0.00440302)
(0.117389 0.00836135 -0.00748586)
(0.115843 0.00878219 -0.0112882)
(0.113492 0.00981928 -0.0160854)
(0.109739 0.0114531 -0.0223001)
(0.104751 0.0136084 -0.0306109)
(0.0959957 0.0162343 -0.0420238)
(0.0847619 0.0185116 -0.0572237)
(0.0603987 0.0188846 -0.0751674)
(0.0318277 0.0100855 -0.0722879)
(0.100624 0.00336965 0.00101167)
(0.103652 0.00690371 0.00198065)
(0.108079 0.00877919 0.00216185)
(0.11204 0.00939072 0.00157282)
(0.115224 0.00927248 0.000276715)
(0.117292 0.00896611 -0.001597)
(0.118302 0.00888354 -0.00398438)
(0.118371 0.00926932 -0.00691216)
(0.117487 0.0102648 -0.0105036)
(0.115759 0.0119646 -0.0150228)
(0.1126 0.0144644 -0.0208634)
(0.108188 0.017864 -0.0287181)
(0.0998539 0.0222879 -0.0395427)
(0.0888372 0.0271027 -0.0542913)
(0.0636679 0.0302873 -0.0719256)
(0.0330807 0.0197553 -0.070662)
(0.100446 0.00216839 0.00104426)
(0.10301 0.004649 0.00206224)
(0.107032 0.00628857 0.00229903)
(0.110974 0.00722264 0.00177161)
(0.114434 0.00770254 0.000551115)
(0.116982 0.00806539 -0.00122187)
(0.118582 0.0086104 -0.00346856)
(0.119304 0.009566 -0.00619895)
(0.119135 0.0111052 -0.00950996)
(0.118219 0.0133994 -0.0136341)
(0.116038 0.0166298 -0.0189015)
(0.112856 0.0210626 -0.0259624)
(0.106017 0.0269587 -0.0356059)
(0.0968293 0.0339471 -0.0490109)
(0.0722413 0.0396849 -0.0648489)
(0.0406651 0.0271666 -0.0654622)
(0.100389 0.00118057 0.00108186)
(0.102772 0.00265369 0.00215402)
(0.106643 0.0039092 0.00245311)
(0.110625 0.00494816 0.00199652)
(0.1143 0.00584434 0.000861509)
(0.117203 0.00675046 -0.000800329)
(0.119262 0.007845 -0.0028945)
(0.120528 0.00931403 -0.00541158)
(0.121004 0.0113397 -0.00841865)
(0.120865 0.0141678 -0.012111)
(0.119667 0.0180847 -0.0167506)
(0.117752 0.0236825 -0.0229313)
(0.112548 0.0316118 -0.0312727)
(0.105605 0.043295 -0.0432028)
(0.0824364 0.0574451 -0.0572913)
(0.0533584 0.0618582 -0.0614685)
(0.087685 0.0173309 0.000368907)
(0.0717638 0.0119027 0.000627122)
(0.05579 0.00759902 0.000485105)
(0.0463822 0.00384305 1.26727e-05)
(0.0403115 0.00181182 -0.000741776)
(0.0368142 0.000773868 -0.00171141)
(0.0345376 0.000323651 -0.00289308)
(0.0328848 0.000134997 -0.00432001)
(0.0313008 5.36883e-05 -0.00607267)
(0.029684 -1.64395e-05 -0.00824432)
(0.0275681 -0.000113173 -0.01102)
(0.0253138 -0.000330631 -0.014457)
(0.0217522 -0.000632593 -0.0189679)
(0.0181176 -0.00137377 -0.0235173)
(0.0110939 -0.00178555 -0.0277756)
(0.00288887 -0.00368058 -0.0184376)
(0.103916 0.0181991 0.000515816)
(0.103117 0.0182552 0.000926076)
(0.099157 0.0152562 0.00079847)
(0.0943351 0.0107368 0.00012988)
(0.0896669 0.00709536 -0.00106931)
(0.0858428 0.0045477 -0.00272719)
(0.0825815 0.00305078 -0.00482524)
(0.0796358 0.0022865 -0.00740612)
(0.0765191 0.0019833 -0.0105938)
(0.0730466 0.00191578 -0.0145612)
(0.0685403 0.00193973 -0.0196099)
(0.0631553 0.00186551 -0.0259291)
(0.0551345 0.00164856 -0.0340519)
(0.0455129 0.000690042 -0.0425382)
(0.0290013 -0.00049108 -0.0493366)
(0.0105495 -0.00402052 -0.0320217)
(0.103963 0.0122231 0.000573481)
(0.108224 0.0169594 0.00104528)
(0.110887 0.0165602 0.000940836)
(0.111042 0.0134892 0.000248264)
(0.10985 0.0102365 -0.00103119)
(0.107929 0.00757574 -0.00283782)
(0.105545 0.00583843 -0.00515854)
(0.102799 0.00492697 -0.00804183)
(0.0994631 0.00465697 -0.0116196)
(0.0954314 0.00481539 -0.0160876)
(0.0900101 0.00523869 -0.0217715)
(0.0832237 0.00570266 -0.0289204)
(0.0730465 0.00610957 -0.0380845)
(0.0603135 0.00568826 -0.0478268)
(0.038732 0.00427247 -0.055612)
(0.0141654 -0.00101038 -0.0362036)
(0.102111 0.00786249 0.000603706)
(0.10666 0.0132237 0.00111395)
(0.111353 0.0144277 0.00103286)
(0.114011 0.013137 0.000353953)
(0.11511 0.0110676 -0.000914315)
(0.11489 0.00912188 -0.00271235)
(0.113665 0.00779825 -0.00502941)
(0.111633 0.00720196 -0.00791688)
(0.1087 0.00729421 -0.0115062)
(0.104839 0.00796225 -0.0159997)
(0.0993662 0.0091169 -0.021722)
(0.0922692 0.0105848 -0.0289547)
(0.0813338 0.0122926 -0.0382439)
(0.0672964 0.0133315 -0.0482438)
(0.0432822 0.0126971 -0.056334)
(0.0153391 0.00521041 -0.036759)
(0.101064 0.00510388 0.000632677)
(0.104691 0.00976086 0.00118192)
(0.109299 0.011642 0.00113475)
(0.11275 0.0116092 0.000488311)
(0.114996 0.0106834 -0.000738899)
(0.115924 0.00963043 -0.00248031)
(0.115709 0.00895655 -0.00472045)
(0.114504 0.0088821 -0.00750695)
(0.112247 0.00948711 -0.0109631)
(0.108954 0.0107683 -0.0152881)
(0.103952 0.0127304 -0.0207902)
(0.0972425 0.015283 -0.027773)
(0.0864213 0.0184136 -0.0367555)
(0.0721644 0.0210645 -0.0465552)
(0.0467665 0.0214811 -0.0545555)
(0.0161997 0.0109831 -0.035597)
(0.10059 0.00340214 0.000662858)
(0.103405 0.0069859 0.00125531)
(0.107482 0.00891983 0.00125307)
(0.111067 0.00959328 0.000653899)
(0.113855 0.0095444 -0.000515068)
(0.115523 0.00932497 -0.00217804)
(0.116095 0.00936168 -0.00431077)
(0.115651 0.0099146 -0.00695213)
(0.114114 0.0111458 -0.0102116)
(0.111522 0.0131678 -0.0142793)
(0.107199 0.0161177 -0.0194374)
(0.101179 0.0200956 -0.0260072)
(0.0908564 0.0253102 -0.0344598)
(0.0769158 0.0308344 -0.0438397)
(0.0505801 0.0345087 -0.0515552)
(0.0177042 0.0216068 -0.0337608)
(0.100413 0.00220518 0.000697498)
(0.102768 0.0047403 0.00133908)
(0.106451 0.00644426 0.00139174)
(0.110032 0.00744944 0.000852965)
(0.113122 0.00801087 -0.000242885)
(0.115306 0.00847553 -0.00180959)
(0.116516 0.00915892 -0.00381023)
(0.116787 0.0103084 -0.00626841)
(0.11605 0.0121233 -0.00927033)
(0.114389 0.0148023 -0.012983)
(0.111198 0.0185809 -0.0176377)
(0.106638 0.0237443 -0.0235451)
(0.0980357 0.0306742 -0.0310616)
(0.086296 0.0386734 -0.0395151)
(0.0604339 0.045329 -0.0462802)
(0.0264012 0.02979 -0.030403)
(0.100356 0.00122126 0.000735503)
(0.102536 0.00275262 0.00143059)
(0.106078 0.0040765 0.00154423)
(0.109719 0.00519228 0.00107416)
(0.11305 0.00617727 6.08509e-05)
(0.115626 0.00719481 -0.00140019)
(0.117344 0.00844021 -0.00325745)
(0.118227 0.0101215 -0.00551689)
(0.118226 0.0124518 -0.00823872)
(0.117471 0.0157159 -0.011562)
(0.115433 0.0202697 -0.0156631)
(0.112393 0.026765 -0.0208332)
(0.105686 0.036027 -0.0273082)
(0.0966608 0.0492376 -0.034744)
(0.0722147 0.0652301 -0.0405921)
(0.0407725 0.0661476 -0.0277635)
(0.087661 0.0173337 0.000211557)
(0.0716236 0.011914 0.000340174)
(0.0554604 0.0076098 0.000175543)
(0.0458677 0.00384916 -0.0002429)
(0.0396107 0.00181503 -0.000888939)
(0.0359268 0.000776881 -0.00172021)
(0.0334378 0.000328676 -0.00274279)
(0.0315199 0.000142182 -0.00398365)
(0.0295948 6.29922e-05 -0.00550852)
(0.0275111 -5.12309e-06 -0.00737305)
(0.0248108 -9.72219e-05 -0.00972177)
(0.0217154 -0.000300846 -0.0125215)
(0.0173324 -0.000578851 -0.0160802)
(0.012465 -0.00123955 -0.0193503)
(0.00591269 -0.00173693 -0.0219571)
(-0.000905055 -0.00320004 -0.0144385)
(0.103882 0.0182137 0.000293529)
(0.102919 0.0182917 0.000491132)
(0.0986771 0.0153046 0.000282401)
(0.0935313 0.0107866 -0.000347818)
(0.0885067 0.00714596 -0.00140303)
(0.0843048 0.0046051 -0.00284193)
(0.0806202 0.00312496 -0.00466636)
(0.0771665 0.00238592 -0.00691806)
(0.0734124 0.00211672 -0.00970144)
(0.0690982 0.00209055 -0.0131331)
(0.0635323 0.00216867 -0.0174405)
(0.0567113 0.0021593 -0.0226628)
(0.0472086 0.00202052 -0.0291496)
(0.0356625 0.00114858 -0.0353789)
(0.0196291 -0.000149484 -0.039366)
(0.00316447 -0.00351964 -0.0247384)
(0.103932 0.0122485 0.000331284)
(0.108022 0.0170186 0.000559817)
(0.11039 0.0166473 0.000350497)
(0.110192 0.0135934 -0.000316628)
(0.108601 0.0103553 -0.00145222)
(0.106244 0.00771616 -0.0030262)
(0.103369 0.00601587 -0.00504706)
(0.100039 0.00515904 -0.00756459)
(0.0959747 0.00496454 -0.0106916)
(0.090991 0.0052175 -0.0145653)
(0.0843625 0.00576211 -0.0194294)
(0.0759554 0.00635948 -0.0253677)
(0.0640481 0.00691585 -0.0327214)
(0.0490985 0.00657665 -0.0399233)
(0.0278376 0.00501282 -0.0444894)
(0.00539205 -0.000614917 -0.027839)
(0.102083 0.00789088 0.000356518)
(0.106464 0.0132918 0.000611117)
(0.110865 0.0145358 0.000415993)
(0.113174 0.0132788 -0.00024268)
(0.113877 0.0112427 -0.00136971)
(0.113221 0.00933949 -0.00293616)
(0.111503 0.00807858 -0.00495286)
(0.108885 0.00757144 -0.007473)
(0.105221 0.00778708 -0.0106095)
(0.100403 0.00861426 -0.0145061)
(0.0937038 0.00997717 -0.0194049)
(0.084954 0.0116834 -0.0254172)
(0.0722078 0.0136756 -0.032874)
(0.0558325 0.0148949 -0.0402726)
(0.0319962 0.0141925 -0.0450179)
(0.00611565 0.00586946 -0.0281731)
(0.101038 0.00513513 0.000384655)
(0.1045 0.00983689 0.000672931)
(0.108824 0.0117674 0.000507325)
(0.111937 0.0117829 -0.0001216)
(0.113803 0.0109082 -0.00121039)
(0.114317 0.00991832 -0.00272501)
(0.113633 0.00933232 -0.00467208)
(0.111873 0.00938062 -0.00710175)
(0.10892 0.0101564 -0.0101197)
(0.104716 0.0116629 -0.0138684)
(0.098531 0.0139273 -0.0185758)
(0.0902176 0.01684 -0.0243753)
(0.0775876 0.0204252 -0.0315749)
(0.060973 0.0234091 -0.0388119)
(0.0355974 0.023915 -0.0434918)
(0.00690251 0.0121358 -0.0272015)
(0.100565 0.00343587 0.000414755)
(0.103218 0.00706861 0.000743288)
(0.107019 0.00905903 0.000619199)
(0.110281 0.00979222 3.45981e-05)
(0.112709 0.00980947 -0.000999974)
(0.11399 0.0096719 -0.002443)
(0.11413 0.00982017 -0.00429311)
(0.113174 0.0105286 -0.00659299)
(0.110995 0.0119788 -0.00943617)
(0.107561 0.0142987 -0.0129587)
(0.102131 0.0176629 -0.0173667)
(0.0946013 0.0221653 -0.0228139)
(0.0825202 0.0280926 -0.0295707)
(0.0662805 0.0342522 -0.0364753)
(0.0398039 0.0384394 -0.0409738)
(0.00852451 0.0238848 -0.0257171)
(0.100388 0.002242 0.000448617)
(0.102587 0.00482998 0.000823501)
(0.106002 0.00659557 0.000750552)
(0.109276 0.00766848 0.000222254)
(0.112031 0.00830723 -0.000744976)
(0.11386 0.00886806 -0.00210076)
(0.114681 0.00968143 -0.00383239)
(0.114499 0.0110124 -0.00596987)
(0.113197 0.0130852 -0.00858724)
(0.110801 0.0161225 -0.011804)
(0.106637 0.0204111 -0.0157869)
(0.100763 0.0262472 -0.0206937)
(0.0905712 0.0341288 -0.0267145)
(0.0767982 0.0430715 -0.0329532)
(0.0506088 0.0507036 -0.036901)
(0.0177929 0.0332226 -0.0233145)
(0.100332 0.00126056 0.000484745)
(0.102361 0.00284743 0.000909719)
(0.105646 0.00423609 0.000893423)
(0.108997 0.00542435 0.00042864)
(0.112017 0.00649348 -0.000463096)
(0.114273 0.0076164 -0.00172293)
(0.115649 0.00900398 -0.00332573)
(0.116142 0.0108848 -0.00528647)
(0.115662 0.0135016 -0.00765726)
(0.114293 0.0171739 -0.010537)
(0.111438 0.0223247 -0.0140488)
(0.107316 0.0296538 -0.0183473)
(0.0992472 0.0401623 -0.0235366)
(0.088566 0.0548193 -0.029022)
(0.0636819 0.0727819 -0.0324404)
(0.0333091 0.0719443 -0.0213278)
(0.0876429 0.0173362 0.00010808)
(0.0715163 0.0119235 0.000154139)
(0.0552034 0.00761921 -1.28973e-05)
(0.0454575 0.00385482 -0.000370777)
(0.0390423 0.00181838 -0.000905329)
(0.0352001 0.000780597 -0.00158958)
(0.0325388 0.000335088 -0.00243182)
(0.0304213 0.000152358 -0.00344952)
(0.0282669 7.84918e-05 -0.00468717)
(0.0259042 1.87623e-05 -0.0061621)
(0.0229276 -5.73164e-05 -0.00795759)
(0.0194998 -0.000225231 -0.00996366)
(0.0149952 -0.00043878 -0.012325)
(0.010001 -0.000941379 -0.0140912)
(0.00420137 -0.00132134 -0.0147839)
(-0.00129002 -0.00246398 -0.00874403)
(0.103857 0.0182271 0.000147607)
(0.102766 0.0183241 0.000210938)
(0.0983006 0.0153482 -3.03788e-05)
(0.0928879 0.0108327 -0.000593736)
(0.087561 0.00719373 -0.00148721)
(0.083036 0.00465969 -0.00268652)
(0.0789971 0.00319527 -0.0042009)
(0.0751382 0.0024804 -0.00606274)
(0.070915 0.00224526 -0.00834675)
(0.0660365 0.00226418 -0.0111112)
(0.0598622 0.00240741 -0.014489)
(0.0523394 0.00249199 -0.0183918)
(0.0423963 0.00249452 -0.0229382)
(0.0305262 0.00184511 -0.0267016)
(0.0157283 0.000726618 -0.0278418)
(0.00158357 -0.00246784 -0.0158515)
(0.103909 0.0122724 0.000171094)
(0.107867 0.0170727 0.000245689)
(0.110001 0.0167271 -9.83266e-06)
(0.109512 0.0136898 -0.000614972)
(0.107582 0.0104659 -0.00158356)
(0.104853 0.00784666 -0.00290063)
(0.101565 0.00617957 -0.00458212)
(0.097762 0.00537197 -0.00666874)
(0.0931507 0.00524686 -0.00924302)
(0.0875119 0.00559007 -0.0123802)
(0.0801629 0.00625713 -0.0162224)
(0.070931 0.00700769 -0.0207096)
(0.0584498 0.00776927 -0.025933)
(0.0430857 0.00765658 -0.030384)
(0.0231258 0.00624232 -0.0317276)
(0.00337867 0.00046462 -0.0178936)
(0.102062 0.00791813 0.000191311)
(0.106313 0.0133556 0.00028279)
(0.110485 0.0146362 3.49665e-05)
(0.112507 0.0134102 -0.000565557)
(0.112874 0.0114047 -0.0015282)
(0.111846 0.00953949 -0.00283933)
(0.109713 0.00833368 -0.00451731)
(0.10662 0.0079045 -0.00660628)
(0.102406 0.00822842 -0.00918916)
(0.0969298 0.0091963 -0.0123472)
(0.0895011 0.0107461 -0.0162198)
(0.079916 0.0126753 -0.0207674)
(0.0665673 0.0149497 -0.0260644)
(0.0497516 0.0164163 -0.0306349)
(0.0271858 0.0158386 -0.0320153)
(0.00405796 0.00698263 -0.0179301)
(0.101018 0.00516514 0.00021656)
(0.104354 0.00990831 0.000335885)
(0.108455 0.0118837 0.000112574)
(0.111292 0.0119431 -0.000462349)
(0.112836 0.0111143 -0.0013916)
(0.112995 0.0101802 -0.00265785)
(0.111918 0.00967047 -0.00427626)
(0.109709 0.00982425 -0.00628869)
(0.106236 0.0107457 -0.00877222)
(0.101412 0.0124425 -0.0118077)
(0.0945351 0.01496 -0.0155234)
(0.0854314 0.0181723 -0.019898)
(0.072217 0.0221338 -0.0249864)
(0.0551767 0.0254185 -0.0294164)
(0.0309916 0.0260742 -0.0307224)
(0.00495845 0.0134537 -0.0170658)
(0.100546 0.00346783 0.000244132)
(0.103077 0.00714568 0.000398772)
(0.106661 0.00918716 0.000211659)
(0.109659 0.00997405 -0.000324408)
(0.111784 0.0100501 -0.00120611)
(0.112734 0.00998404 -0.00241044)
(0.112509 0.0102282 -0.003946)
(0.111141 0.0110681 -0.00584872)
(0.108486 0.0127003 -0.00818589)
(0.104486 0.0152613 -0.0110343)
(0.0984217 0.018951 -0.014506)
(0.0901728 0.0238469 -0.0185986)
(0.0775456 0.0302813 -0.0233414)
(0.0609222 0.036857 -0.0275195)
(0.0355339 0.0413225 -0.0287218)
(0.00674293 0.0256703 -0.0158977)
(0.10037 0.00227613 0.000274855)
(0.102451 0.0049123 0.0004706)
(0.105658 0.00673327 0.000328367)
(0.108681 0.00786675 -0.000158516)
(0.111152 0.00857373 -0.000981544)
(0.112678 0.00921796 -0.00211099)
(0.113171 0.0101423 -0.00354616)
(0.112623 0.011625 -0.0053132)
(0.110902 0.0139082 -0.00746461)
(0.108018 0.0172279 -0.0100671)
(0.103305 0.0219018 -0.0132061)
(0.0968259 0.0282141 -0.0168931)
(0.0861632 0.0367209 -0.0211133)
(0.072105 0.0462032 -0.0248716)
(0.0468507 0.0542686 -0.0258649)
(0.0162376 0.0355153 -0.0143895)
(0.100315 0.00129618 0.000307094)
(0.10223 0.00293307 0.000547075)
(0.105316 0.00437962 0.000454547)
(0.108431 0.00563228 2.31479e-05)
(0.111189 0.0067752 -0.000734437)
(0.113171 0.00798906 -0.00178176)
(0.114256 0.00949722 -0.0031078)
(0.114434 0.0115432 -0.00472717)
(0.113598 0.0143899 -0.00667581)
(0.111824 0.018375 -0.00900752)
(0.108518 0.0239578 -0.0117789)
(0.103921 0.0318373 -0.0150114)
(0.0954787 0.0430845 -0.0186467)
(0.0846471 0.0584218 -0.0219408)
(0.0605709 0.0770493 -0.0227955)
(0.0321319 0.0747707 -0.0132265)
(0.0876287 0.0173382 4.48012e-05)
(0.0714338 0.011931 4.44616e-05)
(0.0550037 0.00762655 -0.000106593)
(0.0451333 0.00385896 -0.000396312)
(0.038586 0.00182045 -0.00081721)
(0.0346084 0.000782552 -0.00135287)
(0.0317995 0.000338572 -0.00201183)
(0.0295118 0.000157848 -0.00280586)
(0.0271654 8.64961e-05 -0.00376581)
(0.0245733 3.04449e-05 -0.00489383)
(0.0213756 -3.8301e-05 -0.00624228)
(0.017696 -0.000187806 -0.00770385)
(0.0131178 -0.000367785 -0.00935842)
(0.0081062 -0.000786065 -0.0105007)
(0.00295597 -0.00110346 -0.0107166)
(-0.001484 -0.00210987 -0.00636107)
(0.103837 0.0182385 5.88392e-05)
(0.102648 0.018351 4.81512e-05)
(0.0980072 0.0153846 -0.00018442)
(0.0923791 0.0108716 -0.000654661)
(0.0868025 0.00723429 -0.0013707)
(0.0820054 0.00470585 -0.00231889)
(0.0776667 0.00325411 -0.00351085)
(0.0734668 0.00255866 -0.00497148)
(0.0688559 0.00235082 -0.00675425)
(0.0635219 0.00240551 -0.00888818)
(0.0568749 0.00259969 -0.0114543)
(0.048839 0.00275626 -0.0143443)
(0.0386282 0.00286489 -0.0175902)
(0.0266943 0.00237107 -0.0200968)
(0.012999 0.00136943 -0.0203946)
(0.000775164 -0.00180637 -0.0115334)
(0.10389 0.012293 7.25323e-05)
(0.107748 0.0171189 6.20003e-05)
(0.109697 0.0167951 -0.000190198)
(0.108975 0.0137722 -0.000700325)
(0.106766 0.0105609 -0.0014809)
(0.103723 0.00795864 -0.00252561)
(0.100087 0.00631929 -0.00385194)
(0.0958864 0.00555262 -0.00549224)
(0.0908219 0.00548522 -0.00750659)
(0.0846529 0.00590339 -0.00993724)
(0.0767416 0.00667181 -0.0128704)
(0.0669028 0.00754842 -0.0162159)
(0.0540606 0.00847762 -0.019976)
(0.0385867 0.00854508 -0.0229759)
(0.0198257 0.00724281 -0.0233424)
(0.0023258 0.00126376 -0.0130369)
(0.102045 0.0079421 8.78808e-05)
(0.106198 0.0134109 8.77002e-05)
(0.110189 0.0147227 -0.00016106)
(0.111981 0.0135236 -0.000669125)
(0.112071 0.0115443 -0.00144584)
(0.11073 0.00971137 -0.00248624)
(0.108247 0.0085517 -0.00381007)
(0.104755 0.00818744 -0.00545273)
(0.100084 0.0086013 -0.00747498)
(0.0940735 0.00968552 -0.00992427)
(0.0860725 0.011389 -0.0128848)
(0.0758695 0.0135 -0.0162819)
(0.0621339 0.0160023 -0.0201033)
(0.0451889 0.0176666 -0.0231942)
(0.0238042 0.0171891 -0.0235701)
(0.00298315 0.00787901 -0.0130608)
(0.101003 0.00519165 0.000108787)
(0.104243 0.00997061 0.000130353)
(0.108169 0.0119845 -9.92725e-05)
(0.110785 0.0120814 -0.000586685)
(0.112064 0.0112918 -0.00133619)
(0.111925 0.0104048 -0.00234025)
(0.110515 0.00995906 -0.00361628)
(0.107927 0.0102008 -0.00519813)
(0.104022 0.0112433 -0.00714221)
(0.0986927 0.0130973 -0.00949629)
(0.0912716 0.0158223 -0.0123367)
(0.0815812 0.019278 -0.015604)
(0.067988 0.0235417 -0.0192723)
(0.050822 0.027068 -0.0222651)
(0.0277519 0.0278489 -0.0225981)
(0.00396548 0.0145736 -0.012425)
(0.100531 0.00349597 0.000131988)
(0.10297 0.00721277 0.000182427)
(0.106386 0.00929798 -1.77326e-05)
(0.109171 0.0101306 -0.000473301)
(0.111046 0.0102566 -0.00118394)
(0.111718 0.0102508 -0.00213781)
(0.111185 0.0105754 -0.00334731)
(0.109469 0.0115248 -0.00484179)
(0.106416 0.0133077 -0.00667025)
(0.101956 0.0160669 -0.00887805)
(0.0953911 0.0200213 -0.0115299)
(0.0866084 0.0252332 -0.0145825)
(0.073627 0.032067 -0.0179942)
(0.0569002 0.038969 -0.0208074)
(0.0325391 0.0436504 -0.0210915)
(0.00586611 0.0271904 -0.0115597)
(0.100356 0.00230585 0.000157727)
(0.102347 0.00498345 0.000242073)
(0.105394 0.0068517 7.87221e-05)
(0.108216 0.00803662 -0.000336604)
(0.110454 0.00880142 -0.000999562)
(0.111725 0.00951599 -0.00189307)
(0.111938 0.0105334 -0.00302241)
(0.11108 0.0121426 -0.00440969)
(0.109008 0.0146003 -0.00609298)
(0.105724 0.0181521 -0.00811138)
(0.100576 0.0231395 -0.0105117)
(0.0936446 0.0298345 -0.0132649)
(0.0826758 0.0388337 -0.0163051)
(0.0685663 0.048742 -0.0188383)
(0.0442115 0.0571445 -0.0190438)
(0.0155026 0.0374969 -0.0105152)
(0.100302 0.00132682 0.000184477)
(0.102131 0.00300643 0.000305248)
(0.105064 0.00450215 0.000182678)
(0.107991 0.00580944 -0.000187349)
(0.110534 0.00701479 -0.000797163)
(0.112284 0.00830533 -0.00162453)
(0.113122 0.00991473 -0.00266671)
(0.11303 0.0120984 -0.00393715)
(0.111895 0.0151357 -0.00546166)
(0.109788 0.0193778 -0.00727093)
(0.106124 0.0253115 -0.00939225)
(0.101174 0.0336319 -0.0118079)
(0.0924948 0.0454584 -0.0144291)
(0.0816929 0.0613327 -0.0166482)
(0.0584006 0.0804792 -0.0168317)
(0.0316435 0.0773068 -0.00968871)
(0.0876186 0.0173398 1.17038e-05)
(0.0713746 0.0119367 -7.41139e-06)
(0.0548591 0.00763213 -0.000126543)
(0.0448966 0.00386231 -0.000339449)
(0.0382514 0.0018224 -0.000641981)
(0.0341748 0.00078472 -0.0010242)
(0.0312617 0.000342475 -0.00149233)
(0.0288605 0.000164346 -0.00205239)
(0.0263969 9.67462e-05 -0.00272191)
(0.023679 4.65625e-05 -0.00349314)
(0.0203867 -1.17258e-05 -0.00439065)
(0.0166249 -0.000140333 -0.00532255)
(0.0121015 -0.000284887 -0.00631794)
(0.00720784 -0.000634121 -0.0069061)
(0.00244112 -0.000890182 -0.00677109)
(-0.00144199 -0.0018345 -0.00385332)
(0.103822 0.0182473 1.30257e-05)
(0.102563 0.018372 -2.59131e-05)
(0.0977938 0.0154129 -0.00021591)
(0.0920058 0.0109022 -0.000568869)
(0.0862429 0.00726657 -0.00109081)
(0.0812435 0.00474289 -0.00177379)
(0.0766863 0.00330152 -0.00262705)
(0.0722471 0.00262214 -0.0036663)
(0.0673795 0.0024373 -0.00492397)
(0.0617659 0.002523 -0.00640768)
(0.0548647 0.00276221 -0.00815535)
(0.0465988 0.00298328 -0.0100631)
(0.0363642 0.00318738 -0.0121092)
(0.0245983 0.00282663 -0.0135367)
(0.0116416 0.00193625 -0.013288)
(0.000567955 -0.0012687 -0.00723582)
(0.103877 0.0123093 2.03986e-05)
(0.107661 0.017155 -2.29859e-05)
(0.109477 0.0168483 -0.000231614)
(0.10858 0.0138371 -0.000617067)
(0.106163 0.010636 -0.00118856)
(0.102887 0.00804711 -0.00194333)
(0.0989939 0.00642951 -0.00289516)
(0.0945113 0.00569498 -0.00406552)
(0.0891407 0.00567317 -0.00549181)
(0.0826375 0.00615125 -0.00719088)
(0.0744095 0.00700169 -0.00920308)
(0.0642809 0.0079827 -0.0114345)
(0.0513651 0.00905322 -0.0138367)
(0.0360564 0.00927722 -0.0155866)
(0.018133 0.00808852 -0.0153295)
(0.00201113 0.00192684 -0.00823028)
(0.102033 0.00796124 3.11224e-05)
(0.106114 0.0134547 -6.34889e-06)
(0.109975 0.0147909 -0.000213918)
(0.111596 0.013613 -0.000598774)
(0.111478 0.0116543 -0.00116801)
(0.109904 0.00984646 -0.00192001)
(0.107164 0.00872226 -0.00287037)
(0.103387 0.00840772 -0.004043)
(0.0984067 0.0088903 -0.00547595)
(0.0920594 0.0100634 -0.00719002)
(0.0837352 0.0118842 -0.00922407)
(0.0732369 0.0141353 -0.0114945)
(0.0594151 0.0168144 -0.0139411)
(0.0426326 0.0186386 -0.0157507)
(0.0220823 0.018255 -0.0154834)
(0.00268072 0.00860193 -0.00822694)
(0.100992 0.00521289 4.66857e-05)
(0.104163 0.0100201 2.47634e-05)
(0.107962 0.0120641 -0.000169136)
(0.110413 0.0121904 -0.000538928)
(0.111495 0.0114312 -0.00108815)
(0.111134 0.0105804 -0.00181352)
(0.10948 0.0101834 -0.00272916)
(0.106623 0.0104915 -0.00385799)
(0.102426 0.0116246 -0.00523514)
(0.09678 0.0135953 -0.00688199)
(0.0890554 0.0164726 -0.00883229)
(0.0790918 0.0201056 -0.0110133)
(0.0654192 0.0245869 -0.0133563)
(0.0484197 0.02829 -0.0151005)
(0.0261393 0.0291634 -0.0148083)
(0.00372879 0.0154186 -0.00778753)
(0.100521 0.00351841 6.41538e-05)
(0.102893 0.00726597 6.35746e-05)
(0.106186 0.0093854 -0.000108621)
(0.108815 0.0102536 -0.00045488)
(0.110504 0.0104182 -0.000975403)
(0.110969 0.0104584 -0.00166399)
(0.110209 0.0108435 -0.00253126)
(0.108246 0.0118745 -0.00359707)
(0.104927 0.0137681 -0.00489151)
(0.100181 0.0166703 -0.0064347)
(0.0933425 0.0208116 -0.00825299)
(0.084321 0.0262409 -0.0102857)
(0.0712751 0.0333404 -0.0124558)
(0.0547253 0.0404512 -0.0140831)
(0.0310934 0.0452493 -0.013776)
(0.00570986 0.0282319 -0.00720577)
(0.100346 0.00232938 8.34874e-05)
(0.102273 0.00503954 0.000108126)
(0.105203 0.00694473 -3.68382e-05)
(0.107878 0.00816955 -0.000353366)
(0.109942 0.0089788 -0.000838826)
(0.111022 0.00974679 -0.00148339)
(0.111031 0.0108339 -0.00229275)
(0.109952 0.0125365 -0.00328189)
(0.107646 0.0151207 -0.00447372)
(0.104114 0.0188368 -0.00588502)
(0.098733 0.0240398 -0.00753162)
(0.091609 0.0309884 -0.00936485)
(0.0805962 0.0402986 -0.011297)
(0.0666782 0.0504587 -0.0127584)
(0.0429709 0.0590209 -0.0124507)
(0.0154253 0.038775 -0.0065695)
(0.100292 0.00135086 0.000103464)
(0.10206 0.00306392 0.000155171)
(0.104883 0.00459794 4.0427e-05)
(0.107671 0.00594745 -0.000242661)
(0.110053 0.00720065 -0.000689136)
(0.111632 0.0085492 -0.00128555)
(0.112287 0.0102341 -0.002032)
(0.112004 0.0125187 -0.00293767)
(0.110669 0.0156925 -0.00401742)
(0.108358 0.0201133 -0.00528339)
(0.104506 0.0262823 -0.00674006)
(0.0994169 0.0348841 -0.0083494)
(0.0907256 0.047057 -0.0100156)
(0.0801398 0.063222 -0.0112943)
(0.0574209 0.0825829 -0.0110375)
(0.0316854 0.0788507 -0.00609268)
(0.0876118 0.0173408 -8.75793e-07)
(0.0713354 0.0119405 -2.0634e-05)
(0.0547633 0.00763573 -9.61377e-05)
(0.0447388 0.00386439 -0.000227024)
(0.0380271 0.0018234 -0.000409711)
(0.0338823 0.000785682 -0.000639747)
(0.0308972 0.000344314 -0.000920861)
(0.0284179 0.000167479 -0.00125634)
(0.0258743 0.000101673 -0.00165578)
(0.0230718 5.42395e-05 -0.00211247)
(0.0197168 1.0055e-06 -0.00263867)
(0.0159052 -0.00011699 -0.00317737)
(0.0114223 -0.000243313 -0.00374044)
(0.0066211 -0.000557042 -0.00406011)
(0.00211229 -0.000785151 -0.00394066)
(-0.00142283 -0.00170126 -0.00225186)
(0.103813 0.0182534 -3.99431e-06)
(0.102507 0.0183861 -3.97851e-05)
(0.0976523 0.0154321 -0.000163456)
(0.0917569 0.010923 -0.000382743)
(0.0858678 0.00728854 -0.000700854)
(0.0807301 0.00476804 -0.00111415)
(0.0760232 0.00333359 -0.00162871)
(0.0714203 0.0026649 -0.00225382)
(0.0663788 0.00249534 -0.00300784)
(0.0605791 0.00260151 -0.00389222)
(0.053513 0.00287018 -0.00492523)
(0.0451077 0.00313283 -0.00603945)
(0.0348754 0.00339752 -0.00721158)
(0.0232553 0.00311724 -0.00800043)
(0.0108015 0.00228816 -0.00776974)
(0.000453025 -0.000956276 -0.00422526)
(0.103868 0.0123205 -3.10349e-07)
(0.107604 0.0171799 -4.07739e-05)
(0.10933 0.0168847 -0.000177729)
(0.108317 0.0138816 -0.000417966)
(0.105758 0.0106876 -0.000767277)
(0.102323 0.008108 -0.0012248)
(0.0982547 0.00650526 -0.00179961)
(0.0935789 0.00579264 -0.00250459)
(0.0880006 0.00580189 -0.00336121)
(0.081274 0.00632071 -0.00437646)
(0.0728392 0.00722672 -0.00556978)
(0.0625323 0.00827794 -0.00687881)
(0.0495887 0.00944247 -0.00826316)
(0.0344296 0.00976738 -0.00923886)
(0.0170805 0.00864698 -0.00898939)
(0.00183203 0.00234542 -0.00481148)
(0.102025 0.00797454 5.94098e-06)
(0.106059 0.013485 -3.1404e-05)
(0.109833 0.0148381 -0.000168344)
(0.111339 0.0136748 -0.000408543)
(0.111081 0.0117303 -0.00075673)
(0.109348 0.00993966 -0.0012127)
(0.106431 0.00883973 -0.00178675)
(0.102459 0.00855911 -0.00249329)
(0.0972689 0.00908849 -0.0033543)
(0.0906957 0.010322 -0.00437922)
(0.0821595 0.0122221 -0.00558675)
(0.0714782 0.0145674 -0.0069206)
(0.0576194 0.0173642 -0.00833339)
(0.0409846 0.0192932 -0.0093456)
(0.0210082 0.0189672 -0.00908874)
(0.0025084 0.00907645 -0.00481321)
(0.100985 0.00522769 1.5532e-05)
(0.10411 0.0100545 -1.25166e-05)
(0.107826 0.0121193 -0.000141281)
(0.110166 0.0122658 -0.000372308)
(0.111114 0.0115276 -0.000708251)
(0.110601 0.0107017 -0.00114795)
(0.108779 0.010338 -0.00170089)
(0.105738 0.0106914 -0.00238093)
(0.101342 0.0118862 -0.0032084)
(0.0954842 0.013936 -0.0041932)
(0.0875599 0.0169163 -0.00535127)
(0.0774268 0.0206687 -0.0066329)
(0.0637199 0.0252948 -0.00798647)
(0.0468687 0.0291149 -0.00896265)
(0.0251324 0.0300468 -0.00869601)
(0.00359614 0.0159867 -0.00456151)
(0.100514 0.00353407 2.63623e-05)
(0.102842 0.00730292 1.14042e-05)
(0.106055 0.00944593 -0.000104043)
(0.108579 0.0103387 -0.00032063)
(0.110141 0.0105297 -0.000638966)
(0.110465 0.0106016 -0.00105617)
(0.109549 0.0110282 -0.00157968)
(0.107417 0.0121147 -0.00222153)
(0.103916 0.0140836 -0.0029991)
(0.0989777 0.0170826 -0.00392163)
(0.0919598 0.0213496 -0.00500097)
(0.0827905 0.0269244 -0.00619456)
(0.069719 0.0341991 -0.00744704)
(0.0533216 0.0414474 -0.00835569)
(0.0301924 0.0463186 -0.00808602)
(0.00562819 0.0289356 -0.00422001)
(0.10034 0.00234574 3.8343e-05)
(0.102225 0.00507842 3.89054e-05)