/*--------------------------------*- C++ -*----------------------------------*\
| =========                 |                                                 |
| \\      /  F ield         | OpenFOAM: The Open Source CFD Toolbox           |
|  \\    /   O peration     | Version:  v1912                                 |
|   \\  /    A nd           | Website:  www.openfoam.com                      |
|    \\/     M anipulation  |                                                 |
\*---------------------------------------------------------------------------*/
FoamFile
{
    version     2.0;
    format      ascii;
    class       volVectorField;
    location    "0.93/solid";
    object      DD;
}
// * * * * * * * * * * * * * * * * * * * * * * * * * * * * * * * * * * * * * //

dimensions      [0 1 0 0 0 0 0];


internalField   nonuniform List<vector> 
256
(
(1.78703e-10 1.9602e-10 2.33236e-10)
(4.26936e-11 1.3149e-10 2.28607e-10)
(-6.08387e-11 1.25071e-10 2.19776e-10)
(-1.76484e-10 1.74956e-10 2.06977e-10)
(3.42611e-10 1.82914e-10 5.64497e-10)
(8.79116e-11 1.21708e-10 5.55412e-10)
(-1.31211e-10 1.19909e-10 5.36942e-10)
(-3.56743e-10 1.81352e-10 5.09034e-10)
(3.82907e-10 3.30384e-11 8.07903e-10)
(9.31355e-11 5.50582e-12 7.91706e-10)
(-1.65413e-10 1.11094e-11 7.67508e-10)
(-4.25145e-10 5.47164e-11 7.3506e-10)
(3.74922e-10 -1.48663e-10 1.01052e-09)
(7.70076e-11 -1.57193e-10 9.85166e-10)
(-1.87079e-10 -1.44234e-10 9.56875e-10)
(-4.54476e-10 -1.05806e-10 9.2526e-10)
(3.67381e-10 -3.49629e-10 1.20463e-09)
(5.79031e-11 -3.55928e-10 1.16954e-09)
(-2.15506e-10 -3.35966e-10 1.13779e-09)
(-4.93805e-10 -2.86827e-10 1.10892e-09)
(3.9075e-10 -5.95771e-10 1.40842e-09)
(4.77915e-11 -6.0225e-10 1.36596e-09)
(-2.63369e-10 -5.75219e-10 1.33095e-09)
(-5.74317e-10 -5.1278e-10 1.30289e-09)
(4.53847e-10 -9.43995e-10 1.61463e-09)
(4.88974e-11 -9.35748e-10 1.57496e-09)
(-3.34461e-10 -9.00583e-10 1.53672e-09)
(-7.05312e-10 -8.37655e-10 1.49959e-09)
(5.06252e-10 -1.37413e-09 1.75951e-09)
(4.41185e-11 -1.34209e-09 1.73418e-09)
(-4.13725e-10 -1.29517e-09 1.69331e-09)
(-8.36683e-10 -1.23289e-09 1.63717e-09)
(1.25677e-10 7.408e-11 1.08648e-10)
(2.94604e-11 1.73278e-11 1.17456e-10)
(-3.70254e-11 1.53431e-11 1.1336e-10)
(-1.15703e-10 6.25501e-11 9.65873e-11)
(2.48801e-10 7.13972e-12 3.35411e-10)
(6.37012e-11 -4.55818e-11 3.52541e-10)
(-8.14444e-11 -4.36303e-11 3.41321e-10)
(-2.41779e-10 1.2702e-11 3.02783e-10)
(2.77904e-10 -1.3413e-10 5.4526e-10)
(6.77832e-11 -1.57123e-10 5.6294e-10)
(-1.03485e-10 -1.49233e-10 5.46678e-10)
(-2.88653e-10 -1.08743e-10 4.97766e-10)
(2.67655e-10 -2.99107e-10 7.3352e-10)
(5.38142e-11 -3.06186e-10 7.4774e-10)
(-1.18672e-10 -2.91857e-10 7.27775e-10)
(-3.07567e-10 -2.54489e-10 6.7484e-10)
(2.60041e-10 -4.81994e-10 9.11172e-10)
(3.73102e-11 -4.89461e-10 9.20201e-10)
(-1.42542e-10 -4.68635e-10 8.97104e-10)
(-3.39951e-10 -4.18456e-10 8.42972e-10)
(2.87684e-10 -6.9738e-10 1.08447e-09)
(3.07098e-11 -7.07371e-10 1.08799e-09)
(-1.87704e-10 -6.79907e-10 1.062e-09)
(-4.1859e-10 -6.14577e-10 1.0075e-09)
(3.67053e-10 -9.90717e-10 1.23915e-09)
(3.81921e-11 -9.83236e-10 1.23898e-09)
(-2.59742e-10 -9.48443e-10 1.21053e-09)
(-5.60111e-10 -8.86398e-10 1.1546e-09)
(4.46094e-10 -1.36606e-09 1.32949e-09)
(4.09201e-11 -1.31913e-09 1.32808e-09)
(-3.42077e-10 -1.27407e-09 1.2986e-09)
(-7.1277e-10 -1.23013e-09 1.24137e-09)
(7.43731e-11 2.61056e-11 5.51392e-11)
(1.52067e-11 -1.81016e-11 6.92997e-11)
(-1.77539e-11 -1.96152e-11 6.65196e-11)
(-6.00981e-11 1.40321e-11 4.72091e-11)
(1.53657e-10 -8.1843e-11 2.08984e-10)
(3.59669e-11 -1.23739e-10 2.36503e-10)
(-3.9071e-11 -1.21525e-10 2.28756e-10)
(-1.33363e-10 -7.80528e-11 1.86969e-10)
(1.71655e-10 -2.32461e-10 3.79821e-10)
(3.77873e-11 -2.51397e-10 4.10621e-10)
(-5.0042e-11 -2.43737e-10 3.98906e-10)
(-1.60713e-10 -2.09926e-10 3.46202e-10)
(1.60957e-10 -3.89503e-10 5.46271e-10)
(2.57795e-11 -3.97001e-10 5.75642e-10)
(-5.94924e-11 -3.83344e-10 5.60735e-10)
(-1.71761e-10 -3.48552e-10 5.03033e-10)
(1.55218e-10 -5.51281e-10 7.01679e-10)
(1.19534e-11 -5.61733e-10 7.27741e-10)
(-7.94483e-11 -5.41923e-10 7.10068e-10)
(-1.99562e-10 -4.92018e-10 6.50013e-10)
(1.87615e-10 -7.3047e-10 8.40116e-10)
(8.79367e-12 -7.44956e-10 8.61948e-10)
(-1.22414e-10 -7.18868e-10 8.41824e-10)
(-2.7725e-10 -6.52647e-10 7.80921e-10)
(2.78171e-10 -9.72499e-10 9.43983e-10)
(2.17062e-11 -9.68223e-10 9.61021e-10)
(-1.95012e-10 -9.353e-10 9.39097e-10)
(-4.24774e-10 -8.74217e-10 8.78955e-10)
(3.73397e-10 -1.29673e-09 9.81555e-10)
(3.03773e-11 -1.24622e-09 9.94561e-10)
(-2.78841e-10 -1.20355e-09 9.72394e-10)
(-5.88696e-10 -1.16796e-09 9.14941e-10)
(4.66123e-11 5.80215e-12 4.06457e-11)
(7.55481e-12 -2.84365e-11 5.14966e-11)
(-7.64787e-12 -3.02956e-11 4.94362e-11)
(-2.96998e-11 -8.17462e-12 3.49096e-11)
(1.01725e-10 -1.18564e-10 1.55664e-10)
(2.08347e-11 -1.52399e-10 1.76469e-10)
(-1.56111e-11 -1.51178e-10 1.70889e-10)
(-7.30439e-11 -1.18854e-10 1.40063e-10)
(1.15135e-10 -2.76262e-10 2.90289e-10)
(2.22715e-11 -2.92841e-10 3.13266e-10)
(-1.98144e-11 -2.86521e-10 3.04748e-10)
(-8.96232e-11 -2.58748e-10 2.6613e-10)
(1.07357e-10 -4.29165e-10 4.27144e-10)
(1.30332e-11 -4.37929e-10 4.48642e-10)
(-2.58256e-11 -4.25838e-10 4.37584e-10)
(-9.75266e-11 -3.93707e-10 3.95344e-10)
(1.06196e-10 -5.74754e-10 5.53934e-10)
(2.52022e-12 -5.88154e-10 5.72598e-10)
(-4.34597e-11 -5.70095e-10 5.59265e-10)
(-1.24314e-10 -5.21306e-10 5.15184e-10)
(1.43381e-10 -7.2748e-10 6.59044e-10)
(2.48682e-12 -7.45792e-10 6.74457e-10)
(-8.46019e-11 -7.21637e-10 6.59152e-10)
(-2.01765e-10 -6.55781e-10 6.14164e-10)
(2.38344e-10 -9.36987e-10 7.26381e-10)
(1.8219e-11 -9.37412e-10 7.38445e-10)
(-1.55647e-10 -9.06576e-10 7.21814e-10)
(-3.49145e-10 -8.45096e-10 6.77024e-10)
(3.37566e-10 -1.23238e-09 7.3804e-10)
(2.94285e-11 -1.18767e-09 7.48101e-10)
(-2.37901e-10 -1.1471e-09 7.31475e-10)
(-5.12781e-10 -1.11001e-09 6.87845e-10)
(3.57303e-11 -2.12058e-12 3.39102e-11)
(5.05833e-12 -3.1068e-11 3.97542e-11)
(-3.85109e-12 -3.32822e-11 3.82714e-11)
(-1.71756e-11 -1.76176e-11 2.98486e-11)
(8.22266e-11 -1.30067e-10 1.21651e-10)
(1.63007e-11 -1.59998e-10 1.32434e-10)
(-6.16145e-12 -1.59839e-10 1.28482e-10)
(-4.82653e-11 -1.34031e-10 1.10742e-10)
(9.59245e-11 -2.88608e-10 2.23109e-10)
(1.89605e-11 -3.04792e-10 2.34312e-10)
(-7.19856e-12 -2.99919e-10 2.2827e-10)
(-6.087e-11 -2.7586e-10 2.06147e-10)
(9.23465e-11 -4.37671e-10 3.27247e-10)
(1.26391e-11 -4.48211e-10 3.36716e-10)
(-1.14805e-11 -4.37756e-10 3.28791e-10)
(-6.84174e-11 -4.07468e-10 3.04634e-10)
(9.60749e-11 -5.73068e-10 4.22794e-10)
(5.25553e-12 -5.89019e-10 4.29835e-10)
(-2.77604e-11 -5.72702e-10 4.20176e-10)
(-9.56372e-11 -5.25087e-10 3.94874e-10)
(1.36907e-10 -7.11052e-10 4.98282e-10)
(7.66761e-12 -7.32174e-10 5.02997e-10)
(-6.72426e-11 -7.09819e-10 4.91842e-10)
(-1.72591e-10 -6.44881e-10 4.65661e-10)
(2.32758e-10 -9.04801e-10 5.41753e-10)
(2.46753e-11 -9.09138e-10 5.44625e-10)
(-1.35846e-10 -8.80089e-10 5.32497e-10)
(-3.17057e-10 -8.18324e-10 5.05767e-10)
(3.31368e-10 -1.1871e-09 5.44648e-10)
(3.68042e-11 -1.14906e-09 5.47095e-10)
(-2.15547e-10 -1.11017e-09 5.35019e-10)
(-4.7654e-10 -1.06983e-09 5.08113e-10)
(3.23281e-11 -4.80819e-12 2.61423e-11)
(4.75957e-12 -3.15099e-11 2.86822e-11)
(-2.84293e-12 -3.398e-11 2.76904e-11)
(-1.27795e-11 -2.13353e-11 2.34557e-11)
(7.71623e-11 -1.3128e-10 8.89366e-11)
(1.63668e-11 -1.5997e-10 9.32343e-11)
(-3.31033e-12 -1.60618e-10 9.06049e-11)
(-3.99507e-11 -1.37906e-10 8.17497e-11)
(9.28797e-11 -2.87128e-10 1.5961e-10)
(2.06745e-11 -3.03968e-10 1.63416e-10)
(-3.11693e-12 -3.00244e-10 1.59392e-10)
(-5.17765e-11 -2.7802e-10 1.48409e-10)
(9.30263e-11 -4.32322e-10 2.31706e-10)
(1.67455e-11 -4.44605e-10 2.33953e-10)
(-6.55414e-12 -4.35472e-10 2.28646e-10)
(-5.98739e-11 -4.06246e-10 2.16662e-10)
(1.00539e-10 -5.61953e-10 2.97159e-10)
(1.17534e-11 -5.79858e-10 2.976e-10)
(-2.19367e-11 -5.64938e-10 2.91089e-10)
(-8.76118e-11 -5.18279e-10 2.78423e-10)
(1.43744e-10 -6.93262e-10 3.4743e-10)
(1.58908e-11 -7.16237e-10 3.4637e-10)
(-6.00125e-11 -6.95286e-10 3.38813e-10)
(-1.63793e-10 -6.31375e-10 3.25392e-10)
(2.39436e-10 -8.80802e-10 3.74803e-10)
(3.35821e-11 -8.87636e-10 3.72827e-10)
(-1.26407e-10 -8.59935e-10 3.64596e-10)
(-3.05174e-10 -7.9841e-10 3.50401e-10)
(3.36708e-10 -1.15727e-09 3.75356e-10)
(4.61364e-11 -1.12376e-09 3.7348e-10)
(-2.03861e-10 -1.08611e-09 3.65295e-10)
(-4.6061e-10 -1.04375e-09 3.50578e-10)
(3.1434e-11 -5.48097e-12 1.64858e-11)
(4.97737e-12 -3.13427e-11 1.74231e-11)
(-2.69069e-12 -3.39748e-11 1.6856e-11)
(-1.13245e-11 -2.26397e-11 1.49604e-11)
(7.65437e-11 -1.29437e-10 5.43471e-11)
(1.736e-11 -1.57973e-10 5.57007e-11)
(-2.66855e-12 -1.59138e-10 5.4199e-11)
(-3.74631e-11 -1.37741e-10 5.02688e-11)
(9.40958e-11 -2.82082e-10 9.60049e-11)
(2.29538e-11 -2.99733e-10 9.6782e-11)
(-2.02965e-12 -2.96769e-10 9.44809e-11)
(-4.94367e-11 -2.75342e-10 8.96363e-11)
(9.67725e-11 -4.24176e-10 1.38098e-10)
(2.0617e-11 -4.37756e-10 1.37842e-10)
(-5.0313e-12 -4.29513e-10 1.34797e-10)
(-5.80746e-11 -4.00846e-10 1.29506e-10)
(1.06677e-10 -5.508e-10 1.75983e-10)
(1.71597e-11 -5.6999e-10 1.74644e-10)
(-1.98113e-11 -5.56012e-10 1.70893e-10)
(-8.60842e-11 -5.10017e-10 1.65226e-10)
(1.51273e-10 -6.79571e-10 2.04662e-10)
(2.23898e-11 -7.0364e-10 2.02495e-10)
(-5.68839e-11 -6.83628e-10 1.98127e-10)
(-1.6156e-10 -6.2055e-10 1.9195e-10)
(2.46729e-10 -8.65069e-10 2.19909e-10)
(4.05185e-11 -8.73261e-10 2.17323e-10)
(-1.21751e-10 -8.46448e-10 2.12556e-10)
(-3.00728e-10 -7.85378e-10 2.05791e-10)
(3.43026e-10 -1.13886e-09 2.19945e-10)
(5.33401e-11 -1.10783e-09 2.17502e-10)
(-1.97673e-10 -1.07099e-09 2.12764e-10)
(-4.53366e-10 -1.0278e-09 2.05603e-10)
(3.12298e-11 -5.5474e-12 5.62604e-12)
(5.14257e-12 -3.11369e-11 5.85434e-12)
(-2.69858e-12 -3.38475e-11 5.67005e-12)
(-1.08679e-11 -2.30064e-11 5.13204e-12)
(7.66975e-11 -1.27866e-10 1.82832e-11)
(1.79851e-11 -1.56479e-10 1.85589e-11)
(-2.56087e-12 -1.57894e-10 1.80709e-11)
(-3.67645e-11 -1.36975e-10 1.69622e-11)
(9.52232e-11 -2.78554e-10 3.20413e-11)
(2.42367e-11 -2.96694e-10 3.20855e-11)
(-1.76758e-12 -2.94102e-10 3.13371e-11)
(-4.89186e-11 -2.72968e-10 2.9976e-11)
(9.9133e-11 -4.18959e-10 4.58579e-11)
(2.26741e-11 -4.33211e-10 4.5546e-11)
(-4.56973e-12 -4.2541e-10 4.4554e-11)
(-5.78334e-11 -3.96986e-10 4.30656e-11)
(1.10168e-10 -5.44302e-10 5.82342e-11)
(1.99543e-11 -5.64121e-10 5.75647e-11)
(-1.90384e-11 -5.50613e-10 5.63403e-11)
(-8.59338e-11 -5.04957e-10 5.47291e-11)
(1.5541e-10 -6.72291e-10 6.75476e-11)
(2.57156e-11 -6.96863e-10 6.66148e-11)
(-5.55958e-11 -6.77319e-10 6.51866e-11)
(-1.6101e-10 -6.14697e-10 6.33958e-11)
(2.50751e-10 -8.57248e-10 7.24591e-11)
(4.40751e-11 -8.66024e-10 7.14042e-11)
(-1.19704e-10 -8.39651e-10 6.98443e-11)
(-2.9907e-10 -7.789e-10 6.78413e-11)
(3.46577e-10 -1.12997e-09 7.24405e-11)
(5.70397e-11 -1.09999e-09 7.14397e-11)
(-1.94866e-10 -1.06355e-09 6.9889e-11)
(-4.50324e-10 -1.02013e-09 6.77464e-11)
)
;

boundaryField
{
    interface
    {
        type            calculated;
        value           nonuniform List<vector> 
192
(
(2.27125e-10 3.26349e-10 2.16335e-10)
(3.94572e-10 2.33965e-10 5.34744e-10)
(4.38547e-10 4.11156e-11 7.75604e-10)
(4.34374e-10 -1.52545e-10 9.78988e-10)
(4.28514e-10 -3.45672e-10 1.1747e-09)
(4.50233e-10 -5.74155e-10 1.38114e-09)
(5.15247e-10 -9.1512e-10 1.59231e-09)
(5.65594e-10 -1.362e-09 1.74368e-09)
(1.57001e-10 1.67699e-10 8.2566e-11)
(2.89255e-10 4.51963e-11 2.88174e-10)
(3.21164e-10 -1.29417e-10 4.92448e-10)
(3.12593e-10 -3.03574e-10 6.80029e-10)
(3.05439e-10 -4.76988e-10 8.58131e-10)
(3.32182e-10 -6.70628e-10 1.03369e-09)
(4.19026e-10 -9.51114e-10 1.19524e-09)
(5.08434e-10 -1.34753e-09 1.29628e-09)
(9.20887e-11 8.31134e-11 3.53734e-11)
(1.81407e-10 -5.75227e-11 1.72216e-10)
(2.0268e-10 -2.30637e-10 3.3913e-10)
(1.93775e-10 -3.93614e-10 5.06197e-10)
(1.89196e-10 -5.44617e-10 6.63218e-10)
(2.226e-10 -6.99732e-10 8.0404e-10)
(3.23667e-10 -9.26053e-10 9.11806e-10)
(4.35174e-10 -1.2734e-09 9.54423e-10)
(5.76313e-11 4.28866e-11 3.09852e-11)
(1.24868e-10 -1.01433e-10 1.37807e-10)
(1.42427e-10 -2.74855e-10 2.71357e-10)
(1.3712e-10 -4.314e-10 4.09992e-10)
(1.38202e-10 -5.65749e-10 5.39149e-10)
(1.78274e-10 -6.94444e-10 6.46368e-10)
(2.85977e-10 -8.88441e-10 7.15028e-10)
(4.03091e-10 -1.20676e-09 7.27532e-10)
(4.30284e-11 2.73687e-11 3.03393e-11)
(1.02096e-10 -1.15018e-10 1.15511e-10)
(1.20461e-10 -2.86079e-10 2.17545e-10)
(1.19981e-10 -4.37634e-10 3.23665e-10)
(1.26834e-10 -5.61929e-10 4.2138e-10)
(1.71817e-10 -6.76882e-10 4.98373e-10)
(2.817e-10 -8.56186e-10 5.42026e-10)
(3.98479e-10 -1.16057e-09 5.44433e-10)
(3.77338e-11 2.25645e-11 2.50684e-11)
(9.49268e-11 -1.16142e-10 8.75161e-11)
(1.15583e-10 -2.83163e-10 1.59153e-10)
(1.19295e-10 -4.30408e-10 2.32813e-10)
(1.30559e-10 -5.49275e-10 2.9981e-10)
(1.78691e-10 -6.58538e-10 3.51022e-10)
(2.89076e-10 -8.32561e-10 3.78296e-10)
(4.0431e-10 -1.13043e-09 3.7827e-10)
(3.60275e-11 2.15135e-11 1.62113e-11)
(9.32432e-11 -1.13772e-10 5.4231e-11)
(1.15885e-10 -2.77025e-10 9.65909e-11)
(1.22429e-10 -4.21031e-10 1.39625e-10)
(1.36476e-10 -5.37176e-10 1.78391e-10)
(1.86436e-10 -6.44558e-10 2.07578e-10)
(2.96893e-10 -8.17131e-10 2.22737e-10)
(4.10894e-10 -1.11193e-09 2.22412e-10)
(3.55487e-11 2.14345e-11 5.57503e-12)
(9.29876e-11 -1.11868e-10 1.83217e-11)
(1.16671e-10 -2.72946e-10 3.23232e-11)
(1.24594e-10 -4.15224e-10 4.64481e-11)
(1.39957e-10 -5.30234e-10 5.9107e-11)
(1.90758e-10 -6.37146e-10 6.85817e-11)
(3.0122e-10 -8.09457e-10 7.34645e-11)
(4.14601e-10 -1.10303e-09 7.33282e-11)
(1.85995e-10 3.95453e-10 2.60027e-10)
(3.55214e-10 3.26581e-10 5.91734e-10)
(3.95005e-10 1.44544e-10 8.38787e-10)
(3.84347e-10 -4.94803e-11 1.04596e-09)
(3.73573e-10 -2.50152e-10 1.24195e-09)
(3.93775e-10 -4.93271e-10 1.4427e-09)
(4.55089e-10 -8.56221e-10 1.64708e-09)
(5.07835e-10 -1.32718e-09 1.78574e-09)
(3.93273e-11 3.27495e-10 2.47982e-10)
(8.10207e-11 2.62483e-10 5.73556e-10)
(8.30347e-11 1.12945e-10 8.08802e-10)
(6.35954e-11 -6.27332e-11 1.00237e-09)
(4.11925e-11 -2.60728e-10 1.18523e-09)
(2.84229e-11 -5.00894e-10 1.37666e-09)
(2.94198e-11 -8.43692e-10 1.58697e-09)
(2.75688e-11 -1.29285e-09 1.75124e-09)
(-6.62477e-11 3.1425e-10 2.29049e-10)
(-1.42808e-10 2.56843e-10 5.46701e-10)
(-1.79577e-10 1.16094e-10 7.76171e-10)
(-2.02057e-10 -5.16609e-11 9.65353e-10)
(-2.30662e-10 -2.42447e-10 1.14441e-09)
(-2.79139e-10 -4.75485e-10 1.33232e-09)
(-3.53306e-10 -8.09991e-10 1.53915e-09)
(-4.37979e-10 -1.24649e-09 1.69998e-09)
(-1.90884e-10 3.53959e-10 2.03732e-10)
(-3.85213e-10 3.13374e-10 5.08727e-10)
(-4.58716e-10 1.58774e-10 7.37501e-10)
(-4.89505e-10 -1.23396e-11 9.31183e-10)
(-5.29077e-10 -1.92419e-10 1.11584e-09)
(-6.0963e-10 -4.15112e-10 1.3061e-09)
(-7.41894e-10 -7.54084e-10 1.5004e-09)
(-8.76053e-10 -1.18749e-09 1.63073e-09)
(-1.64971e-10 3.08262e-10 1.8458e-10)
(-3.49187e-10 2.43517e-10 4.66056e-10)
(-4.20099e-10 7.91505e-11 6.84149e-10)
(-4.51807e-10 -8.86397e-11 8.71016e-10)
(-4.9136e-10 -2.56865e-10 1.05282e-09)
(-5.68658e-10 -4.59901e-10 1.2463e-09)
(-6.99019e-10 -7.72062e-10 1.445e-09)
(-8.24348e-10 -1.17872e-09 1.5865e-09)
(-9.0836e-11 1.5192e-10 6.74907e-11)
(-2.2672e-10 5.59397e-11 2.46937e-10)
(-2.75784e-10 -9.22952e-11 4.31657e-10)
(-2.95328e-10 -2.41663e-10 6.0416e-10)
(-3.26941e-10 -3.90699e-10 7.69411e-10)
(-4.03219e-10 -5.59536e-10 9.33237e-10)
(-5.4941e-10 -8.12852e-10 1.08447e-09)
(-7.06929e-10 -1.17192e-09 1.17937e-09)
(-2.32591e-11 6.23971e-11 2.57081e-11)
(-1.07601e-10 -5.2899e-11 1.44785e-10)
(-1.37833e-10 -2.00326e-10 2.96443e-10)
(-1.49769e-10 -3.38839e-10 4.50522e-10)
(-1.77547e-10 -4.65645e-10 5.96102e-10)
(-2.54684e-10 -5.96342e-10 7.26713e-10)
(-4.09742e-10 -7.96354e-10 8.26212e-10)
(-5.84138e-10 -1.10739e-09 8.64942e-10)
(1.3333e-11 1.75112e-11 2.41787e-11)
(-4.33419e-11 -1.03873e-10 1.18788e-10)
(-6.37909e-11 -2.52627e-10 2.41169e-10)
(-7.33496e-11 -3.85034e-10 3.69507e-10)
(-1.01213e-10 -4.95245e-10 4.89202e-10)
(-1.79912e-10 -5.99572e-10 5.87998e-10)
(-3.36933e-10 -7.67341e-10 6.50094e-10)
(-5.1262e-10 -1.04928e-09 6.59805e-10)
(2.94015e-11 -1.25753e-12 2.56182e-11)
(-1.55702e-11 -1.23107e-10 1.02468e-10)
(-3.26354e-11 -2.70821e-10 1.96685e-10)
(-4.2512e-11 -3.98776e-10 2.9522e-10)
(-7.16974e-11 -4.99043e-10 3.85698e-10)
(-1.5112e-10 -5.89525e-10 4.56168e-10)
(-3.06442e-10 -7.42335e-10 4.94774e-10)
(-4.78254e-10 -1.00994e-09 4.95069e-10)
(3.56084e-11 -8.15286e-12 2.19927e-11)
(-5.28864e-12 -1.28156e-10 7.90486e-11)
(-2.18826e-11 -2.73039e-10 1.4555e-10)
(-3.28125e-11 -3.97287e-10 2.14076e-10)
(-6.31475e-11 -4.92298e-10 2.76035e-10)
(-1.4255e-10 -5.76983e-10 3.22634e-10)
(-2.9541e-10 -7.24204e-10 3.46318e-10)
(-4.62962e-10 -9.8487e-10 3.44784e-10)
(3.78396e-11 -1.04429e-11 1.44823e-11)
(-1.7988e-12 -1.28213e-10 4.94719e-11)
(-1.87076e-11 -2.70188e-10 8.89215e-11)
(-3.04961e-11 -3.91683e-10 1.28996e-10)
(-6.14973e-11 -4.84144e-10 1.64806e-10)
(-1.40628e-10 -5.66888e-10 1.91254e-10)
(-2.91612e-10 -7.12425e-10 2.04265e-10)
(-4.56e-10 -9.69721e-10 2.03031e-10)
(3.85575e-11 -1.10985e-11 5.01786e-12)
(-7.14295e-13 -1.27462e-10 1.67874e-11)
(-1.78782e-11 -2.677e-10 2.98463e-11)
(-3.00955e-11 -3.87731e-10 4.30052e-11)
(-6.13741e-11 -4.79162e-10 5.46914e-11)
(-1.40299e-10 -5.61411e-10 6.32582e-11)
(-2.90296e-10 -7.0657e-10 6.74268e-11)
(-4.53137e-10 -9.62472e-10 6.69859e-11)
(5.04309e-10 -1.40137e-09 1.78097e-09)
(4.43626e-10 -1.40035e-09 1.31014e-09)
(3.72434e-10 -1.33425e-09 9.48136e-10)
(3.39198e-10 -1.27543e-09 7.10633e-10)
(3.35121e-10 -1.23232e-09 5.25868e-10)
(3.41751e-10 -1.20306e-09 3.63294e-10)
(3.48732e-10 -1.18488e-09 2.13122e-10)
(3.52555e-10 -1.17612e-09 7.02186e-11)
(2.43796e-11 -1.36012e-09 1.75306e-09)
(1.79221e-11 -1.3329e-09 1.30411e-09)
(7.08142e-12 -1.25989e-09 9.61696e-10)
(8.10794e-12 -1.20823e-09 7.2381e-10)
(1.75709e-11 -1.17364e-09 5.31117e-10)
(2.83467e-11 -1.1503e-09 3.63174e-10)
(3.63719e-11 -1.13538e-09 2.11561e-10)
(4.04339e-11 -1.12799e-09 6.94805e-11)
(-4.41025e-10 -1.3027e-09 1.71238e-09)
(-3.64327e-10 -1.27801e-09 1.27569e-09)
(-2.98407e-10 -1.20746e-09 9.40653e-10)
(-2.57316e-10 -1.15791e-09 7.08131e-10)
(-2.35355e-10 -1.12499e-09 5.1977e-10)
(-2.23865e-10 -1.10286e-09 3.55499e-10)
(-2.17681e-10 -1.08872e-09 2.07125e-10)
(-2.14833e-10 -1.08172e-09 6.80294e-11)
(-8.7934e-10 -1.22719e-09 1.65918e-09)
(-7.52862e-10 -1.23214e-09 1.22514e-09)
(-6.27883e-10 -1.17322e-09 8.84911e-10)
(-5.52422e-10 -1.12073e-09 6.63312e-10)
(-5.16574e-10 -1.08261e-09 4.91546e-10)
(-5.00642e-10 -1.057e-09 3.40071e-10)
(-4.93208e-10 -1.04121e-09 1.99699e-10)
(-4.90013e-10 -1.03362e-09 6.58286e-11)
)
;
    }
    symmetry
    {
        type            symmetry;
    }
    bottom
    {
        type            calculated;
        value           uniform (0 0 0);
    }
}


// ************************************************************************* //
