/*--------------------------------*- C++ -*----------------------------------*\
| =========                 |                                                 |
| \\      /  F ield         | OpenFOAM: The Open Source CFD Toolbox           |
|  \\    /   O peration     | Version:  v1912                                 |
|   \\  /    A nd           | Website:  www.openfoam.com                      |
|    \\/     M anipulation  |                                                 |
\*---------------------------------------------------------------------------*/
FoamFile
{
    version     2.0;
    format      ascii;
    class       volScalarField;
    location    "0.93/solid";
    object      epsilonEq;
}
// * * * * * * * * * * * * * * * * * * * * * * * * * * * * * * * * * * * * * //

dimensions      [0 0 0 0 0 0 0];


internalField   nonuniform List<scalar> 
256
(
3.01999e-06
2.0887e-06
2.05007e-06
2.84964e-06
1.67431e-06
1.37776e-06
1.35103e-06
1.55202e-06
1.61782e-06
1.24947e-06
1.22415e-06
1.49447e-06
1.68616e-06
1.22273e-06
1.19768e-06
1.55966e-06
1.72922e-06
1.22445e-06
1.19951e-06
1.60043e-06
1.67937e-06
1.20461e-06
1.18004e-06
1.54985e-06
1.29754e-06
1.04657e-06
1.02727e-06
1.17947e-06
3.05629e-07
1.18075e-06
1.17114e-06
3.08834e-07
1.7357e-06
4.79168e-07
4.62611e-07
1.56553e-06
1.22311e-06
4.69445e-07
4.55615e-07
1.0752e-06
1.16984e-06
3.53853e-07
3.43397e-07
1.02283e-06
1.16972e-06
2.37466e-07
2.31456e-07
1.02034e-06
1.18983e-06
1.99348e-07
1.98113e-07
1.03735e-06
1.21006e-06
2.31169e-07
2.29901e-07
1.05481e-06
1.11175e-06
2.38963e-07
2.41758e-07
9.58915e-07
1.29884e-06
1.0502e-06
1.03034e-06
1.17906e-06
1.40318e-06
3.06452e-07
2.99166e-07
1.23423e-06
1.15561e-06
2.85357e-07
2.7484e-07
1.00542e-06
1.12439e-06
2.05709e-07
1.98123e-07
9.73575e-07
1.12505e-06
1.56641e-07
1.57182e-07
9.71401e-07
1.15371e-06
1.73025e-07
1.78357e-07
9.96559e-07
1.2038e-06
1.89744e-07
1.92173e-07
1.04318e-06
1.20801e-06
2.28036e-07
2.27107e-07
1.05077e-06
1.68434e-06
1.21172e-06
1.18634e-06
1.55161e-06
1.23949e-06
2.91487e-07
2.89795e-07
1.07633e-06
1.08189e-06
2.77928e-07
2.74718e-07
9.39179e-07
1.05697e-06
2.22938e-07
2.22972e-07
9.11588e-07
1.0566e-06
2.03616e-07
2.09761e-07
9.06886e-07
1.08874e-06
2.09233e-07
2.18306e-07
9.34545e-07
1.14839e-06
1.86786e-07
1.93685e-07
9.89408e-07
1.18395e-06
1.86495e-07
1.87615e-07
1.02729e-06
1.74765e-06
1.23787e-06
1.21183e-06
1.61363e-06
1.14563e-06
2.53866e-07
2.54406e-07
9.85553e-07
1.01263e-06
2.57733e-07
2.57409e-07
8.73813e-07
9.94913e-07
2.18152e-07
2.20472e-07
8.5256e-07
9.99005e-07
1.99592e-07
2.06995e-07
8.51467e-07
1.03804e-06
1.95152e-07
2.05098e-07
8.85636e-07
1.10551e-06
1.56916e-07
1.64605e-07
9.47721e-07
1.15662e-06
1.75979e-07
1.75489e-07
1.00066e-06
1.73798e-06
1.23755e-06
1.21109e-06
1.60356e-06
1.09204e-06
2.16433e-07
2.17991e-07
9.33081e-07
9.63649e-07
2.25519e-07
2.25981e-07
8.25773e-07
9.51408e-07
1.87763e-07
1.90527e-07
8.09619e-07
9.61777e-07
1.62946e-07
1.71011e-07
8.14571e-07
1.00809e-06
1.51919e-07
1.62684e-07
8.56091e-07
1.08257e-06
1.10442e-07
1.17796e-07
9.25178e-07
1.14482e-06
1.89517e-07
1.86087e-07
9.89403e-07
1.72505e-06
1.23598e-06
1.20908e-06
1.59015e-06
1.06258e-06
1.86125e-07
1.88218e-07
9.03849e-07
9.33993e-07
1.94669e-07
1.95263e-07
7.95916e-07
9.25032e-07
1.51634e-07
1.54541e-07
7.82843e-07
9.40322e-07
1.18737e-07
1.28242e-07
7.92743e-07
9.91956e-07
1.04782e-07
1.17697e-07
8.39786e-07
1.07158e-06
6.60055e-08
7.34404e-08
9.14227e-07
1.14156e-06
2.06292e-07
2.01021e-07
9.86546e-07
1.7187e-06
1.23533e-06
1.20813e-06
1.58341e-06
1.04939e-06
1.68281e-07
1.7065e-07
8.90627e-07
9.20159e-07
1.75489e-07
1.76084e-07
7.81772e-07
9.12734e-07
1.26604e-07
1.29709e-07
7.70154e-07
9.30582e-07
8.56972e-08
9.75459e-08
7.82675e-07
9.8491e-07
7.02297e-08
8.6911e-08
8.32551e-07
1.06717e-06
3.09302e-08
4.09932e-08
9.09787e-07
1.1411e-06
2.1576e-07
2.09724e-07
9.86301e-07
1.71667e-06
1.23515e-06
1.20779e-06
1.58118e-06
)
;

boundaryField
{
    interface
    {
        type            calculated;
        value           nonuniform List<scalar> 
192
(
3.7599e-06
2.2856e-06
2.23944e-06
2.3396e-06
2.41401e-06
2.39147e-06
2.03845e-06
1.13407e-06
2.71328e-06
2.04353e-06
1.99821e-06
2.04346e-06
2.10908e-06
2.16199e-06
2.07334e-06
2.04071e-06
2.33647e-06
1.96988e-06
1.95556e-06
2.00113e-06
2.07612e-06
2.16148e-06
2.16376e-06
2.39964e-06
2.10856e-06
1.84874e-06
1.84979e-06
1.89719e-06
1.97751e-06
2.07649e-06
2.11404e-06
2.43954e-06
1.97013e-06
1.74157e-06
1.75224e-06
1.80486e-06
1.89195e-06
2.00013e-06
2.05552e-06
2.40693e-06
1.88952e-06
1.66928e-06
1.68553e-06
1.74377e-06
1.83715e-06
1.95204e-06
2.01821e-06
2.37661e-06
1.84525e-06
1.62714e-06
1.64639e-06
1.70871e-06
1.80648e-06
1.92575e-06
1.9984e-06
2.35924e-06
1.8256e-06
1.60802e-06
1.62861e-06
1.69299e-06
1.79293e-06
1.91432e-06
1.99005e-06
2.35195e-06
3.79061e-06
2.31429e-06
2.27025e-06
2.37364e-06
2.44972e-06
2.42485e-06
2.0646e-06
1.14359e-06
3.11231e-06
2.22688e-06
2.10877e-06
2.12892e-06
2.17557e-06
2.18941e-06
2.04447e-06
1.95308e-06
3.05232e-06
2.18118e-06
2.06334e-06
2.08259e-06
2.12851e-06
2.14198e-06
2.00034e-06
1.92416e-06
3.59202e-06
2.17466e-06
2.12844e-06
2.22722e-06
2.3005e-06
2.27544e-06
1.93056e-06
1.12074e-06
3.48911e-06
2.0542e-06
2.00362e-06
2.09777e-06
2.16686e-06
2.13954e-06
1.78656e-06
9.12664e-07
2.42069e-06
1.77617e-06
1.72867e-06
1.76815e-06
1.82747e-06
1.87432e-06
1.78396e-06
1.78663e-06
2.04898e-06
1.70446e-06
1.68717e-06
1.72686e-06
1.79504e-06
1.87307e-06
1.87305e-06
2.14289e-06
1.82902e-06
1.59177e-06
1.58856e-06
1.62914e-06
1.70184e-06
1.79214e-06
1.82575e-06
2.18423e-06
1.69543e-06
1.48963e-06
1.49552e-06
1.5408e-06
1.61987e-06
1.71863e-06
1.76915e-06
2.15263e-06
1.61737e-06
1.41958e-06
1.43082e-06
1.48156e-06
1.56682e-06
1.67202e-06
1.73305e-06
2.12276e-06
1.57433e-06
1.3783e-06
1.39244e-06
1.44726e-06
1.5369e-06
1.64642e-06
1.71398e-06
2.10558e-06
1.55517e-06
1.35944e-06
1.37489e-06
1.43179e-06
1.52363e-06
1.63527e-06
1.70597e-06
2.09838e-06
1.14815e-06
2.06909e-06
2.43479e-06
2.47765e-06
2.4452e-06
2.414e-06
2.39584e-06
2.38816e-06
1.95618e-06
2.05132e-06
2.20269e-06
2.20138e-06
2.16991e-06
2.14349e-06
2.12669e-06
2.11874e-06
1.9268e-06
2.00629e-06
2.15391e-06
2.15234e-06
2.1207e-06
2.09404e-06
2.07706e-06
2.06901e-06
1.12317e-06
1.93251e-06
2.28124e-06
2.32192e-06
2.28871e-06
2.2568e-06
2.2381e-06
2.23014e-06
)
;
    }
    symmetry
    {
        type            symmetry;
    }
    bottom
    {
        type            calculated;
        value           nonuniform List<scalar> 
32
(
4.39236e-06
2.30685e-06
1.74302e-06
1.52118e-06
1.41056e-06
1.35065e-06
1.3185e-06
1.30428e-06
2.78061e-06
6.07761e-07
2.91369e-07
2.72754e-07
2.384e-07
2.02569e-07
1.72924e-07
1.55183e-07
2.73141e-06
5.84476e-07
2.7429e-07
2.61144e-07
2.27699e-07
1.91257e-07
1.60233e-07
1.4118e-07
4.17299e-06
2.11367e-06
1.55151e-06
1.33406e-06
1.22652e-06
1.16822e-06
1.13677e-06
1.12279e-06
)
;
    }
}


// ************************************************************************* //
