/*--------------------------------*- C++ -*----------------------------------*\
| =========                 |                                                 |
| \\      /  F ield         | OpenFOAM: The Open Source CFD Toolbox           |
|  \\    /   O peration     | Version:  v1912                                 |
|   \\  /    A nd           | Website:  www.openfoam.com                      |
|    \\/     M anipulation  |                                                 |
\*---------------------------------------------------------------------------*/
FoamFile
{
    version     2.0;
    format      ascii;
    class       volSymmTensorField;
    location    "0.93/solid";
    object      sigma;
}
// * * * * * * * * * * * * * * * * * * * * * * * * * * * * * * * * * * * * * //

dimensions      [1 -1 -2 0 0 0 0];


internalField   nonuniform List<symmTensor> 
256
(
(-127802 36941.8 -12817.9 558676 43329.9 -133905)
(107048 -4218.09 -5548.09 367180 42966.4 -182287)
(109491 1391.61 5116.19 362675 42782.6 -176427)
(-94559.1 -36481.3 12491.1 544098 42748.9 -116689)
(-152043 1278.3 -19973.2 233245 7923.28 -150616)
(-6743.37 -5654.63 -9351.3 142403 9651.21 -221597)
(-1840.07 4546.11 8821.11 141907 9701.05 -214799)
(-115791 -1576.5 19503.6 231933 7951.26 -132338)
(-152631 -4956.84 -21741.7 219703 1564.88 -150613)
(-26366.5 -5798.79 -10395.1 96094.8 1774.08 -232451)
(-21422.2 5275.17 9920.91 96112.4 1808.04 -225438)
(-116193 4712.15 21264.2 218361 1584.56 -132125)
(-147981 -3590.98 -22716.7 238270 2672.73 -149557)
(-18544.1 -4598.78 -10919.1 79347 2011.52 -237925)
(-13648.1 4207.49 10487.4 79371.2 2005.15 -230779)
(-111125 3439.54 22247.9 236401 2604.42 -130809)
(-151232 -320.495 -23721.4 243367 6525.66 -155537)
(-16776.7 -2327.98 -11484.4 63581.2 5599.53 -249535)
(-11825.5 1956.72 11063.7 63574.4 5563.37 -242247)
(-113709 193.662 23257.7 241362 6381.64 -136429)
(-169577 6078.01 -24515.9 213292 13703.7 -172499)
(-37809.1 1842.69 -11975.5 29596.2 13138.8 -274125)
(-32766 -2328.98 11539.9 29717.9 13074.2 -266665)
(-131280 -6245.49 24052.4 211701 13484.5 -152906)
(-194271 16674.5 -23986.2 99054.7 23933 -192009)
(-70548 8029.42 -11760.2 -61976.7 25068.2 -302444)
(-65320 -8808.29 11285.7 -60726.6 24964 -294753)
(-154982 -16884.8 23519.3 100596 23623.5 -171781)
(-110524 21248.3 -21210.4 -106904 27420.3 -106504)
(66205.7 10461.4 -10455.5 -200260 30174.6 -199713)
(71051.8 -9981.04 9940.86 -193257 30067.1 -192783)
(-71564.2 -20797.2 20750.5 -88413.5 27136.1 -88234.5)
(-182616 22378.6 -10284.3 274857 10096.2 82869.7)
(-30312.4 -8318.55 -3571.69 66655 25816.1 -35958.4)
(-27669.1 7350.79 3876.04 63498.8 26089.8 -36066.8)
(-149736 -21231.8 10345.6 263132 10746 82314.7)
(-213181 -1503.2 -16204.5 101800 10918.1 8388.62)
(-138358 -6302.12 -7165.79 -36856.5 19317.7 -138759)
(-133077 6212.24 7542.73 -36956.5 19429.6 -137040)
(-177029 1576.53 16237.2 100989 11101.4 11235.6)
(-220365 -5255.14 -17226.6 79364.4 9072.27 -5065.92)
(-168720 -5501.77 -7918.43 -93416.9 11653.1 -172649)
(-163263 5464.92 8378.52 -92600.2 11690.8 -170648)
(-183787 5188.27 17266.2 79493.1 9067.55 -2098.1)
(-221699 -3762.89 -17587.8 77361.1 9448.5 -4717.82)
(-172455 -4311.38 -8049.24 -130643 9594.19 -185690)
(-166981 4203.89 8604.66 -129546 9572.59 -183645)
(-184568 3724.46 17654.8 77579.8 9293.57 -1860.48)
(-230367 -589.11 -18127.1 72531.9 14611.1 -8534.37)
(-180963 -2240.85 -8371.82 -159051 13907.1 -200840)
(-175405 2088.56 8978.34 -157896 13828.3 -198770)
(-192456 563.561 18215.6 72784.9 14302.2 -5687.03)
(-255756 6153.62 -18539.6 47473 23151.7 -24992.5)
(-212711 1910.14 -8719.48 -191303 22250.6 -229897)
(-207044 -2208.32 9324.97 -190054 22121.7 -227783)
(-216930 -6219.69 18639.5 48023.9 22702.8 -22028)
(-289408 18107.2 -18085.3 -41399.1 29659.4 -42575.5)
(-253035 8560.95 -8579.91 -255429 29397.8 -256048)
(-247187 -9223.86 9163.7 -253196 29240 -253849)
(-249456 -18235.7 18199.2 -38040.9 29140.7 -39310.8)
(-194602 24010.8 -16633 -192359 24064.5 98989.9)
(-70339.3 11761.1 -8050.14 -302855 25182.7 -61392.4)
(-65084.2 -11302.7 8717.81 -295053 25081.5 -60183.1)
(-155067 -23541.8 16816 -171807 23765.6 100414)
(-167164 12058.2 -4413.1 177318 19165.9 124476)
(-36416.2 -12910.9 -741.224 -11684.8 34807.4 -3897.03)
(-33756.8 12354 831.004 -14441.8 34870.6 -4639.85)
(-135274 -10792.6 4404.98 166397 19352.3 122040)
(-180360 -3227.83 -6831.03 69356.4 22689.7 94942.5)
(-106352 -7206.84 -2125.09 -68631.2 30745.5 -71240.8)
(-101272 7517.92 2197.48 -68818.7 30755.6 -70517.6)
(-145502 3455.52 6803.34 68210.6 22671.7 95002.2)
(-184618 -5108.22 -6887.77 64974.3 21170.2 78165.1)
(-128468 -5278.52 -2277.01 -104528 23691.2 -110115)
(-123231 5533.12 2356.61 -103853 23666.6 -109080)
(-149318 5153.95 6860.33 64713.7 21032.3 78412.7)
(-186179 -3676.64 -6651.98 68950.2 20125.5 72534.4)
(-131813 -4145.92 -2083.83 -132177 20323.8 -130321)
(-126556 4220.78 2207.93 -131179 20260.6 -129224)
(-150293 3710.81 6640.5 68889.1 19875.7 72710.7)
(-194925 -642.599 -6587.4 70265.3 22436.5 66113.9)
(-140417 -2291.1 -2046.62 -153233 21865.6 -149739)
(-135061 2241.96 2205.81 -152145 21759.1 -148617)
(-158181 665.828 6592.49 70295.6 22064.8 66262.8)
(-220365 6288.17 -6546.03 55589.1 25692.8 51147.9)
(-171461 1873.82 -2122.4 -174819 24855.2 -178750)
(-165964 -2132.6 2290.64 -173635 24715.3 -177588)
(-182546 -6321.76 6564.28 55885.9 25223.3 51373.7)
(-255874 18574.9 -6409.51 -22657.8 24051.8 45198.3)
(-211783 8701.83 -2183.22 -227989 23135.2 -192958)
(-206058 -9386.01 2368.14 -225828 22998.6 -191743)
(-216700 -18688.2 6452.39 -19601.1 23590.1 45620)
(-169877 24552 -6300.59 -172689 14225.1 214130)
(-36412.4 11974.4 -2146.64 -274257 13659.9 31106.6)
(-31288.9 -11548 2467.37 -266621 13596.7 31161.7)
(-131000 -24080.1 6425.93 -152615 14015.9 212321)
(-153319 7738.66 -1184.32 139012 22223.7 119567)
(-31736.7 -14499.4 626.634 -33032.8 31936.6 -3544.39)
(-29120.7 13990.3 -614.433 -35707.8 31934.8 -4271.35)
(-122214 -6492.19 1157.2 128285 22278.9 117108)
(-156918 -3645.7 -1601.48 52162 26865.9 112953)
(-81640.7 -7361.63 682.567 -78791.7 31764.9 -49942.6)
(-76679 7756.84 -721.903 -78995.6 31734.1 -49344.1)
(-122960 3907.09 1545.94 50902.9 26785.5 112622)
(-158824 -4650.27 -1249.29 58262.8 26784.8 97800.9)
(-97417.8 -4932.01 889.713 -102030 28163.4 -86457.8)
(-92304.3 5295.48 -956.927 -101415 28111 -85553.8)
(-124421 4742.86 1185.23 57833.8 26609.2 97647.3)
(-160319 -3301.13 -836.297 71220.3 25343.2 86918.6)
(-99711.6 -3862.86 1175.5 -117870 25200.4 -111340)
(-94570.6 4026.88 -1235.31 -116942 25123.2 -110346)
(-125299 3373.61 776.942 70989.2 25083 86767.7)
(-169109 -433.502 -559.151 80019.4 24512.6 76999.7)
(-108062 -2198.42 1343.9 -130068 23932.4 -134231)
(-102808 2196.27 -1386.08 -129040 23828.5 -133193)
(-133163 480.944 509.495 79895.2 24170.6 76863.6)
(-194225 6335.47 -423.182 70656.7 22592.9 64542.1)
(-138152 1782.06 1353.55 -146173 21952.7 -160842)
(-132730 -2039.37 -1380.08 -145035 21833.3 -159762)
(-157086 -6357.73 385.99 70810.8 22199.6 64469.9)
(-229559 18207.4 -531.996 -5172.78 16389.6 69944.6)
(-177270 8334.15 1177.99 -198251 15632.8 -163753)
(-171586 -9047.9 -1168.43 -196121 15530.2 -162645)
(-190884 -18317.5 520.872 -2247.07 16037.3 69968.3)
(-150025 23829.9 -798.933 -155190 7609.61 248335)
(-11377.8 11499.6 1132.96 -249150 6767.68 66367.5)
(-6284.78 -11090 -994.169 -241603 6726.9 66234.1)
(-111519 -23354.6 858.544 -135403 7465.08 245903)
(-145876 6454.93 -150.252 121761 20205.3 109691)
(-30294.3 -14401.4 777.811 -40020.2 25058.9 -5945.6)
(-27726 13884.4 -782.387 -42687.4 25051.5 -6641.7)
(-115304 -5239.41 128.327 111105 20241.5 107306)
(-146603 -3465.47 61.6478 41780.2 24267.5 109421)
(-73002.9 -7070.94 1241.53 -82946.8 26560.4 -43444.5)
(-68127.1 7459.81 -1293.56 -83174.3 26531.1 -42861.7)
(-113234 3722.7 -109.277 40438.5 24206.1 109038)
(-147760 -4194.53 438.349 51513.8 25311.7 96638.7)
(-86147.2 -4593.06 1515.73 -101046 25743.2 -76000.8)
(-81120.2 4976.48 -1601.01 -100467 25694 -75130.8)
(-113945 4297.74 -497.794 50994.3 25167.2 96385.4)
(-149413 -2928.15 784.524 69443 24179.7 84287)
(-88082.6 -3605.58 1747.12 -110178 23817.8 -101433)
(-83021.8 3799.57 -1841.02 -109292 23749.6 -100466)
(-114958 3015.18 -845.697 69122.5 23965.7 84051.5)
(-158384 -215.937 1029.5 82612.5 21807.5 73439.5)
(-96456.9 -2090.04 1891.06 -117063 21302.6 -124773)
(-91272.4 2106.23 -1978.92 -116073 21218 -123752)
(-122955 274.433 -1086.18 82408.5 21537.4 73237.2)
(-183254 6290.19 1120.05 75268.1 17558.5 63955.9)
(-125954 1667.28 1899.22 -131174 17168.8 -148246)
(-120586 -1927.01 -1972.18 -130062 17078.6 -147181)
(-146551 -6306.91 -1166.93 75362.2 17263.3 63804.5)
(-217994 17680.5 952.789 402.723 10665.9 76104.3)
(-164011 7902.86 1735.78 -183734 10279.9 -144821)
(-158357 -8632.15 -1771.65 -181616 10207.4 -143742)
(-179642 -17787.9 -977.956 3284.83 10413.8 75987.1)
(-142213 23007.8 688.745 -147109 4266.9 254333)
(-4842.16 10994.5 1706.72 -236343 3704.47 81777.9)
(232.813 -10591.4 -1639.56 -228832 3677.3 81588)
(-103935 -22528.5 -660.598 -127448 4167.08 251660)
(-141732 6200.06 33.103 113833 15690.6 102967)
(-30375.4 -13919.8 522.115 -42554.6 17880 -7444.69)
(-27841.2 13390 -528.252 -45225.1 17875.6 -8131.11)
(-111489 -5007.06 -47.0964 103221 15718 100622)
(-142018 -3187.7 273.551 36752.1 18475.6 103666)
(-70928.3 -6739.03 899.126 -84016.8 19369.2 -41198.4)
(-66111.3 7107.46 -939.316 -84271.4 19350.4 -40626.7)
(-109011 3435.1 -305.381 35341.5 18441.5 103273)
(-143155 -3867.93 537.248 47444.4 19656 92693)
(-83335.5 -4351.35 1099.36 -100167 19645.1 -70613.7)
(-78368.6 4726.13 -1166.47 -99620.7 19610.4 -69769.1)
(-109702 3968.99 -579.227 46851.2 19560 92387.1)
(-145015 -2673.75 759.13 67103.6 18911.6 81124.9)
(-85306.1 -3440.86 1241.72 -106598 18547.5 -94606.8)
(-80301.7 3637.73 -1320.81 -105745 18498.3 -93668.4)
(-110908 2763.54 -804.841 66715.3 18762.8 80821.3)
(-154116 -77.2361 912.716 81922.2 16484.9 71217.1)
(-93757.8 -2025.12 1325.91 -111296 16129.3 -116681)
(-88623.3 2045.66 -1404.78 -110336 16069.5 -115687)
(-119003 139.798 -956.985 81661.9 16297.5 70942.5)
(-178770 6223.09 955.608 75257.9 12338 64171.1)
(-122851 1574.64 1324.29 -124792 12147.9 -137654)
(-117523 -1835.69 -1392.58 -123700 12086.3 -136617)
(-142330 -6236.57 -993.367 75313.3 12137.2 63934.5)
(-212988 17286.3 826.192 1444.27 6808.19 79356.5)
(-160166 7605.96 1219.7 -177281 6686.28 -131563)
(-154537 -8340.98 -1259.16 -175172 6638.29 -130517)
(-174833 -17390.8 -848.539 4301.21 6640.28 79121.5)
(-139376 22443.7 638.632 -143206 2522.82 254854)
(-5108.46 10663.4 1205.03 -229689 2248.3 90365.8)
(-49.1157 -10261.5 -1172.21 -222197 2230.82 90135.1)
(-101233 -21960.8 -624.706 -123609 2457.43 252017)
(-139316 6178.68 22.7732 110413 9853.58 99342.4)
(-30611.1 -13556 262.995 -43347 10771 -8279.38)
(-28096.8 13015.8 -267.091 -46020 10769.1 -8964.06)
(-109261 -4999.49 -30.2988 99829 9870.63 97017.1)
(-139697 -2997.44 153.716 34803 11400 99873.1)
(-70590.6 -6522.95 461.408 -83895.5 11701.6 -40551)
(-65807.8 6875.25 -485.337 -84169.5 11691.8 -39988.8)
(-106897 3237.48 -171.244 33347.9 11384.2 99475.6)
(-140966 -3678.85 293.654 45663.5 12185.7 90043.4)
(-82894 -4215 566.771 -99295.5 12080.7 -68059.6)
(-77962.3 4577.86 -607.434 -98773.1 12061.1 -67233.2)
(-107719 3775.83 -317.544 45018.6 12133.3 89708.9)
(-142974 -2532.64 408.76 65624.4 11756.2 79725.4)
(-84982.6 -3356.1 636.948 -104918 11513.4 -90469.6)
(-80011.5 3548.09 -686.574 -104087 11484.7 -89554.1)
(-109064 2621.38 -435.671 65188.8 11671.2 79375.2)
(-152131 -6.04092 486.126 80778.1 10091.9 71140.5)
(-93478.5 -1996.26 675.906 -109006 9892.69 -111088)
(-88373.7 2015.89 -726.986 -108064 9857.77 -110120)
(-117196 69.55 -512.877 80479.8 9983.55 70808.2)
(-176622 6173.86 503.514 74316.4 7308.66 65673.5)
(-122308 1519.01 672.5 -122340 7234.82 -130491)
(-117004 -1780.83 -717.675 -121261 7199.22 -129481)
(-140331 -6185.59 -526.708 74346.5 7193.08 65368.2)
(-210501 17057.2 430.633 1412.67 3880.88 82003.8)
(-159170 7446.43 620.693 -174445 3870.98 -123461)
(-153557 -8183.08 -648.351 -172342 3843.63 -122443)
(-172457 -17159.6 -444.836 4253.63 3784.99 81682.4)
(-138091 22130.2 321.431 -141112 1387.42 255149)
(-6365.99 10488.5 612.568 -226116 1281.27 95218.6)
(-1315.87 -10086.2 -598.017 -218633 1271.46 94958.2)
(-100020 -21644.7 -314.766 -121548 1350.42 252204)
(-138160 6181.93 4.6413 109185 3351.76 97814.1)
(-30709.3 -13386.2 77.1308 -43500.5 3605.26 -8665.74)
(-28204 12840.4 -78.514 -46174.5 3604.76 -9350.4)
(-108190 -5009.3 -7.01007 98615.4 3357.5 95496.9)
(-138633 -2912.38 42.1291 34231.3 3841.12 98161.9)
(-70544.9 -6427.39 135.009 -83620.1 3910.87 -40449.8)
(-65777.5 6771.37 -142.85 -83903.6 3907.89 -39892.8)
(-105925 3148.75 -47.6895 32755.3 3836.6 97762.6)
(-139984 -3596.65 84.2266 45086.4 4104.97 88888.2)
(-82865 -4157.6 166.155 -98763.5 4057.63 -67093.3)
(-77949.2 4513.47 -179.607 -98253.1 4051.4 -66276.1)
(-106830 3691.17 -91.9132 44415.8 4088.48 88541.3)
(-142062 -2472.39 119.024 64993 3962.06 79355.9)
(-85026.6 -3322.35 186.566 -104223 3879.28 -88594.7)
(-80070.6 3510.41 -203.245 -103404 3869.96 -87691.2)
(-108241 2559.97 -127.82 64533.3 3934.65 78983)
(-151236 22.9111 142.069 80118.4 3381.97 71592.4)
(-93537.1 -1986.19 197.484 -108223 3319.14 -108357)
(-88445.7 2004.38 -214.898 -107291 3307.72 -107402)
(-116381 40.6114 -150.924 79800.8 3346.74 71229.8)
(-175642 6150.25 146.734 73702.4 2421.45 66879.9)
(-122237 1494.79 196.152 -121527 2403.67 -127022)
(-116943 -1757.09 -211.71 -120454 2392.05 -126025)
(-139417 -6161.25 -154.474 73719.7 2383.81 66537.9)
(-209358 16956.4 123.909 1296.79 1272.02 83570.7)
(-158886 7380.66 181.122 -173350 1278.7 -119709)
(-153280 -8117.66 -190.87 -171251 1269.82 -118705)
(-171364 -17057.6 -128.711 4129.84 1240.86 83204.4)
(-137487 21995.2 88.123 -140145 448.25 255495)
(-7065.59 10416.5 178.279 -224510 422.505 97417.9)
(-2019.33 -10013.5 -174.207 -217032 419.341 97142)
(-99445.4 -21508.2 -86.1295 -120595 436.276 252497)
)
;

boundaryField
{
    interface
    {
        type            calculated;
        value           nonuniform List<symmTensor> 
192
(
(-38.2361 0.341549 2.61435 968720 43329.9 276138)
(-39.8542 0.37127 4.25159 601157 7923.28 217296)
(-41.5834 0.148301 4.89766 590355 1564.88 220039)
(-42.7886 -0.293489 5.11508 616567 2672.73 228740)
(-43.2662 -0.699787 5.11266 636290 6525.66 237386)
(-44.3057 -1.40733 5.01495 631463 13703.7 245672)
(-42.8117 -1.95265 4.66012 540494 23933 249431)
(-46.4954 -4.45311 4.38924 257116 27420.3 257517)
(-37.2982 0.245904 1.28124 699366 10096.2 507379)
(-38.0039 0.300126 2.22521 510876 10918.1 417464)
(-39.061 0.112513 2.52661 497196 9072.27 412766)
(-39.8735 -0.332063 2.57623 506892 9448.5 424813)
(-40.0535 -0.755617 2.50249 521449 14611.1 440382)
(-40.948 -1.53019 2.37981 529523 23151.7 457057)
(-39.1517 -2.13051 2.14971 476245 29659.4 475069)
(-42.8969 -4.74836 1.9706 249728 24064.5 541077)
(-39.7995 0.210846 1.00169 562595 19165.9 509753)
(-40.4142 0.264347 1.7148 439510 22689.7 465096)
(-41.4513 0.0859115 1.93659 443009 21170.2 456199)
(-42.2766 -0.37462 1.9671 458637 20125.5 462221)
(-42.3873 -0.831147 1.90397 479546 22436.5 475394)
(-43.2117 -1.68482 1.8041 498977 25692.8 494536)
(-40.987 -2.36747 1.6405 460137 24051.8 527994)
(-44.4867 -5.15228 1.50669 246801 14225.1 633620)
(-40.0356 0.157668 0.60472 494457 22223.7 475012)
(-40.4711 0.187426 1.09456 390372 26865.9 451162)
(-41.2926 0.00641566 1.2394 403153 26784.8 442691)
(-41.985 -0.454709 1.24562 427503 25343.2 443202)
(-41.9646 -0.923965 1.1872 455828 24512.6 452809)
(-42.7012 -1.80935 1.1073 480575 22592.9 474460)
(-40.3177 -2.52748 1.00521 445065 16389.6 520183)
(-43.7301 -5.34718 0.928191 239372 7609.61 642897)
(-40.8062 0.131722 0.439034 459171 20205.3 447101)
(-41.1934 0.138459 0.794483 361520 24267.5 429160)
(-41.9172 -0.0531744 0.900805 377472 25311.7 422597)
(-42.5512 -0.519868 0.904886 406732 24179.7 421576)
(-42.4501 -1.00364 0.861556 439439 21807.5 430266)
(-43.1094 -1.91618 0.802096 466075 17558.5 454762)
(-40.558 -2.66655 0.731554 431544 10665.9 507246)
(-43.817 -5.52324 0.676979 232359 4266.9 633802)
(-41.0203 0.11127 0.265084 440486 15690.6 429620)
(-41.3617 0.0985116 0.496645 345989 18475.6 412903)
(-42.0005 -0.103192 0.566795 362822 19656 408071)
(-42.5785 -0.573216 0.567844 393835 18911.6 407857)
(-42.4153 -1.06479 0.537535 428203 16484.9 417497)
(-43.024 -1.99022 0.49726 455362 12338 444275)
(-40.3923 -2.75684 0.454351 421679 6808.19 499591)
(-43.5867 -5.63047 0.423156 227468 2522.82 625529)
(-41.276 0.101166 0.154656 430872 9853.58 419801)
(-41.6017 0.0749334 0.289458 338140 11400 403210)
(-42.1954 -0.13497 0.330658 355165 12185.7 399545)
(-42.7428 -0.608485 0.331371 386510 11756.2 400611)
(-42.5412 -1.10616 0.313876 421205 10091.9 411568)
(-43.113 -2.04052 0.290072 448438 7308.66 439795)
(-40.419 -2.81857 0.26595 415472 3880.88 496063)
(-43.556 -5.70532 0.247249 224486 1387.42 620747)
(-41.3414 0.0949956 0.0453813 426782 3351.76 415411)
(-41.6558 0.061734 0.0882315 334862 3841.12 398792)
(-42.2246 -0.151962 0.101526 351904 4104.97 395705)
(-42.7545 -0.62648 0.101564 383209 3962.06 397571)
(-42.5356 -1.1265 0.0958257 417867 3381.97 409341)
(-43.0895 -2.06393 0.0880189 445074 2421.45 438252)
(-40.3766 -2.84714 0.0809284 412499 1272.02 494773)
(-43.4844 -5.7391 0.0751159 223072 448.25 618712)
(295233 36941.8 -3.6066 981711 -0.883844 -13.1203)
(224344 1278.3 -6.17103 609632 -1.11402 -9.21163)
(226656 -4956.84 -7.32049 598990 -1.00143 -5.1461)
(240591 -3590.98 -7.81056 626842 -0.776132 -3.26633)
(253036 -320.495 -8.01512 647635 -0.673594 -2.61635)
(259206 6078.01 -8.17904 642075 -0.713248 -3.02729)
(255372 16674.5 -8.38108 548698 -0.85988 -4.71535)
(259491 21248.3 -9.26934 263111 -1.06272 -6.10858)
(551857 -4218.09 -2.09344 811989 -0.5276 -16.7281)
(422711 -5654.63 -4.03002 571858 -0.873506 -15.8757)
(413591 -5798.79 -4.83014 536052 -0.838162 -14.4569)
(434895 -4598.78 -5.14165 532786 -0.58116 -13.8654)
(456999 -2327.98 -5.27561 537357 -0.391417 -13.6258)
(468139 1842.69 -5.44597 535544 -0.282254 -13.7856)
(467238 8029.42 -5.8111 475810 -0.299936 -14.3148)
(519948 10461.4 -6.96432 253482 -0.368518 -14.5661)
(542774 1391.61 -2.04633 795958 -0.389192 -13.9648)
(415760 4546.11 -3.9855 559508 -0.735944 -13.332)
(406279 5275.17 -4.81183 523814 -0.72989 -11.995)
(427222 4207.49 -5.13971 520241 -0.445182 -11.392)
(449111 1956.72 -5.27168 524511 -0.193577 -11.1647)
(460061 -2328.98 -5.41921 522545 0.0190559 -11.3189)
(459039 -8808.29 -5.73925 463633 0.131703 -11.9136)
(512241 -9981.04 -6.85857 247932 0.155723 -12.6179)
(294836 -36481.3 -2.17614 933493 -0.318966 -14.1366)
(227567 -1576.5 -4.4384 575291 -0.655732 -13.7891)
(229252 4712.15 -5.47674 563806 -0.653994 -12.603)
(242820 3439.54 -5.90724 590347 -0.343345 -12.1093)
(255214 193.662 -6.07969 610286 -0.0595697 -11.9915)
(261382 -6245.49 -6.27255 604362 0.20411 -12.1631)
(257734 -16884.8 -6.57228 513312 0.39243 -12.6125)
(264108 -20797.2 -7.76582 247258 0.567855 -13.1941)
(-7.01254 0.676522 0.525035 891950 42748.9 231163)
(-4.7667 0.977623 1.07807 535699 7951.26 171428)
(-2.18483 0.823262 1.26713 524027 1584.56 173541)
(-0.714207 0.353963 1.37514 548572 2604.42 181362)
(-0.0572689 0.0778909 1.47299 566886 6381.64 189094)
(1.51161 -0.314597 1.73349 561158 13484.5 196551)
(1.23138 -0.290551 1.96614 471839 23623.5 199462)
(9.59745 -2.44121 2.57858 205223 27136.1 205403)
(-10.5792 0.267453 -0.326891 626300 10746 445483)
(-10.1683 0.454666 -0.372518 446854 11101.4 357100)
(-9.34154 0.401155 -0.472579 433088 9067.55 351497)
(-8.70575 0.136973 -0.494266 441581 9293.57 362141)
(-8.43727 0.0648129 -0.437254 454702 14302.2 376230)
(-6.92513 -0.153333 -0.220698 461469 22702.8 391417)
(-6.88466 0.0871108 0.064664 409203 29140.7 407933)
(1.26617 -1.86267 0.495944 199626 23765.6 471847)
(-10.8447 0.147888 -0.216372 492253 19352.3 447897)
(-10.5548 0.253946 -0.180198 377276 22671.7 404068)
(-9.91771 0.242122 -0.164986 380599 21032.3 394298)
(-9.27711 0.0867798 -0.111923 395081 19875.7 398903)
(-8.93701 0.138366 -0.0200185 414467 22064.8 410434)
(-7.11672 0.0249755 0.165173 432265 25223.3 427753)
(-6.79637 0.37532 0.362851 393966 23590.1 459187)
(1.76759 -1.62471 0.617961 197099 14015.9 562034)
(-12.0571 0.0642572 -0.226586 425778 22278.9 414602)
(-11.9675 0.110908 -0.192879 329576 26785.5 391295)
(-11.6378 0.128648 -0.151718 342126 26609.2 381939)
(-11.0999 0.0662551 -0.0903812 365287 25083 381065)
(-10.7528 0.221972 -0.0100327 391990 24170.6 388958)
(-8.74042 0.202217 0.12258 414904 22199.6 408563)
(-8.12547 0.622728 0.253179 379616 16037.3 451831)
(0.582858 -1.3553 0.407401 189948 7465.08 571255)
(-12.3413 0.0495015 -0.109967 391553 20241.5 387754)
(-12.2443 0.0752701 -0.0408343 301671 24206.1 370271)
(-11.955 0.110401 0.0308192 317383 25167.2 362775)
(-11.3783 0.0956701 0.0992247 345424 23965.7 360354)
(-10.9642 0.304896 0.166027 376439 21537.4 367268)
(-8.81352 0.327222 0.251528 401121 17263.3 389563)
(-8.07373 0.764718 0.319325 366619 10413.8 439321)
(0.695328 -1.24077 0.39153 183175 4167.08 562283)
(-12.7414 0.0445448 -0.0741172 373524 15718 370925)
(-12.6479 0.0643202 -0.0176458 286704 18441.5 354635)
(-12.3865 0.112785 0.0433571 303291 19560 348826)
(-11.7902 0.127529 0.0961006 333067 18762.8 347173)
(-11.3331 0.36997 0.142808 365699 16297.5 354979)
(-9.09734 0.418027 0.195353 390831 12137.2 379452)
(-8.26602 0.861344 0.232962 357065 6640.28 431885)
(0.546955 -1.15683 0.270808 178426 2457.43 554052)
(-12.8617 0.0476959 -0.0285363 364289 9870.63 361477)
(-12.7533 0.0684842 0.0124766 279172 11384.2 345300)
(-12.4819 0.124751 0.054029 295942 12133.3 340632)
(-11.8584 0.153079 0.0874147 326038 11671.2 340225)
(-11.3692 0.410574 0.114887 358974 9983.55 349302)
(-9.08747 0.468751 0.142199 384139 7193.08 375160)
(-8.21294 0.910427 0.159544 351030 3784.99 428459)
(0.615479 -1.12004 0.174401 175518 1350.42 549270)
(-12.9614 0.0484747 -0.0125133 360373 3357.5 357255)
(-12.8503 0.0704439 0.000249908 276037 3836.6 341044)
(-12.5767 0.130849 0.0140882 292817 4088.48 336943)
(-11.9429 0.165732 0.0250953 322868 3934.65 337318)
(-11.4377 0.430185 0.0342032 355755 3346.74 347184)
(-9.1356 0.493541 0.0429403 380877 2383.81 373695)
(-8.23037 0.934034 0.0489432 348133 1240.86 427207)
(0.601776 -1.10024 0.0536131 174134 436.276 547226)
(260361 9.3842 -21210.4 -5.43848 -0.892975 264381)
(256329 8.53939 -16633 -3.71515 -0.689246 549921)
(260750 8.41239 -6300.59 -1.32118 -0.476308 644757)
(256775 8.3696 -798.933 0.107313 -0.318337 655135)
(249469 8.41051 688.745 1.21924 -0.225962 646015)
(243080 8.43646 638.632 1.99226 -0.141502 637311)
(238933 8.46444 321.431 2.48198 -0.0840299 632173)
(236988 8.47615 88.123 2.7164 -0.0258724 629970)
(520790 7.03993 -10455.5 -14.0318 -0.159811 254871)
(468627 5.893 -8050.14 -13.6369 -0.0819163 477574)
(471152 5.54304 -2146.64 -12.6869 0.0243618 538671)
(464640 5.40273 1132.96 -12.0355 0.0524428 542385)
(451767 5.36287 1706.72 -11.4662 0.0559305 538387)
(439939 5.33875 1205.03 -11.0573 0.0472934 535413)
(432021 5.33365 612.568 -10.7885 0.0295698 533606)
(428241 5.3301 178.279 -10.6482 0.0110887 532725)
(512967 6.93378 9940.86 -12.119 0.387589 249132)
(460262 5.8025 8717.81 -11.2679 0.379528 465163)
(462850 5.48742 2467.37 -10.2616 0.363654 525301)
(456434 5.37289 -994.169 -9.61824 0.297678 528953)
(443599 5.34524 -1639.56 -9.04163 0.23625 524954)
(431782 5.32833 -1172.21 -8.66549 0.166277 521966)
(423868 5.32628 -598.017 -8.40527 0.0995234 520142)
(420090 5.32342 -174.207 -8.28688 0.0328092 519251)
(264606 7.80121 20750.5 -12.7532 0.806421 247936)
(258359 6.59264 16816 -12.0726 0.650712 513841)
(262624 6.28958 6425.93 -11.3251 0.554099 605945)
(258651 6.13567 858.544 -10.8084 0.435724 616073)
(251283 6.09587 -660.598 -10.2987 0.340456 606878)
(244842 6.06586 -624.706 -9.98684 0.235612 598093)
(240664 6.05893 -314.766 -9.7583 0.141775 592887)
(238705 6.05346 -86.1295 -9.65601 0.0462527 590648)
)
;
    }
    symmetry
    {
        type            symmetry;
    }
    bottom
    {
        type            calculated;
        value           nonuniform List<symmTensor> 
32
(
(-723826 101208 -12817.9 256813 97523.1 -729929)
(-523970 66226.2 -10284.3 74661.7 1400.41 -258484)
(-438176 42026.5 -4413.1 11645.8 8722.05 -146536)
(-398984 31521.4 -1184.32 -10315.7 16094.3 -126098)
(-379501 27802.4 -150.252 -19796.4 16994.8 -123934)
(-368800 26522.8 33.103 -23883.3 14077.4 -124101)
(-362774 26018.9 22.7732 -25315.5 9113.77 -124116)
(-359989 25817.3 4.6413 -25665.4 3139.47 -124015)
(-257364 -585.722 -5548.09 167749 89858.2 -546699)
(-145777 -8046.96 -3571.69 -13472.4 19620.3 -151423)
(-97731.3 -15406.7 -741.224 -55696.1 27987 -65212.2)
(-79827.9 -18005.3 626.634 -62256 28165.7 -51635.5)
(-74352.1 -18078.7 777.811 -64084.1 23065.8 -50003.5)
(-73027.5 -17558.7 522.115 -65273.8 16846 -50096.8)
(-72720.4 -17148.9 262.995 -65836.9 10289.4 -50388.7)
(-72616.7 -16957.5 77.1308 -65984.6 3467.18 -50573.1)
(-249673 -3812.88 5116.19 165986 89113.6 -535591)
(-141537 5754.48 3876.04 -16127.8 19972.8 -149935)
(-93896.4 13524.1 831.004 -58119.5 28105.5 -64779.5)
(-76131.7 16160.7 -614.433 -64671.2 28184.4 -51282.4)
(-70747.1 16225.1 -782.387 -66525.2 23066 -49662.8)
(-69479.2 15693.2 -528.252 -67729.7 16845.2 -49769.1)
(-69204.3 15274.1 -267.091 -68299.9 10289.3 -50071.6)
(-69115.2 15077.6 -78.514 -68450.5 3467.23 -50261.6)
(-661597 -99245 12491.1 259878 95481.3 -683726)
(-472772 -63441.4 10345.6 73513.2 2260.96 -240721)
(-389570 -39220.3 4404.98 10408.6 9060.7 -132255)
(-351764 -28825 1157.2 -11794.1 16216 -112441)
(-333167 -25190.5 128.327 -21438.2 17061.9 -110557)
(-323002 -23963.1 -47.0964 -25597.5 14121.1 -110891)
(-317280 -23489.1 -30.2988 -27060 9139.15 -111002)
(-314633 -23301.2 -7.01007 -27421.5 3147.82 -110946)
)
;
    }
}


// ************************************************************************* //
