/*--------------------------------*- C++ -*----------------------------------*\
| =========                 |                                                 |
| \\      /  F ield         | OpenFOAM: The Open Source CFD Toolbox           |
|  \\    /   O peration     | Version:  v1912                                 |
|   \\  /    A nd           | Website:  www.openfoam.com                      |
|    \\/     M anipulation  |                                                 |
\*---------------------------------------------------------------------------*/
FoamFile
{
    version     2.0;
    format      ascii;
    class       volScalarField;
    location    "0.93/solid";
    object      T;
}
// * * * * * * * * * * * * * * * * * * * * * * * * * * * * * * * * * * * * * //

dimensions      [0 0 0 1 0 0 0];


internalField   nonuniform List<scalar> 
256
(
291.367
292.024
292.038
291.442
290.833
291.663
291.681
290.926
290.734
291.596
291.615
290.83
290.675
291.56
291.579
290.774
290.593
291.508
291.528
290.693
290.441
291.4
291.421
290.544
290.065
291.068
291.09
290.173
288.952
289.914
289.949
289.094
292.106
292.716
292.721
292.154
291.776
292.575
292.581
291.835
291.714
292.549
292.555
291.775
291.678
292.537
292.544
291.741
291.627
292.52
292.527
291.692
291.52
292.466
292.473
291.587
291.195
292.206
292.215
291.267
290.063
291.067
291.09
290.172
292.3
292.851
292.855
292.344
292.047
292.774
292.779
292.1
291.998
292.76
292.765
292.053
291.967
292.754
292.759
292.024
291.922
292.742
292.748
291.981
291.825
292.699
292.705
291.886
291.519
292.466
292.473
291.587
290.438
291.398
291.419
290.543
292.364
292.876
292.879
292.407
292.134
292.811
292.815
292.186
292.089
292.799
292.803
292.142
292.06
292.793
292.798
292.115
292.016
292.783
292.788
292.073
291.921
292.742
292.747
291.981
291.625
292.519
292.527
291.691
290.587
291.505
291.526
290.691
292.395
292.882
292.885
292.436
292.175
292.821
292.825
292.225
292.131
292.809
292.813
292.183
292.102
292.803
292.808
292.156
292.058
292.793
292.798
292.114
291.964
292.753
292.758
292.023
291.674
292.536
292.544
291.739
290.666
291.555
291.576
290.769
292.412
292.885
292.888
292.453
292.197
292.825
292.829
292.247
292.154
292.813
292.818
292.205
292.125
292.808
292.812
292.178
292.082
292.797
292.802
292.137
291.988
292.758
292.763
292.046
291.702
292.545
292.552
291.767
290.712
291.583
291.604
290.815
292.421
292.886
292.89
292.462
292.21
292.827
292.831
292.259
292.167
292.816
292.82
292.218
292.138
292.81
292.814
292.191
292.095
292.8
292.804
292.149
292.002
292.761
292.766
292.059
291.717
292.549
292.557
291.782
290.739
291.599
291.62
290.842
292.426
292.887
292.89
292.467
292.215
292.828
292.832
292.264
292.173
292.817
292.821
292.223
292.144
292.811
292.815
292.197
292.101
292.801
292.805
292.155
292.008
292.762
292.767
292.065
291.724
292.552
292.559
291.789
290.751
291.606
291.627
290.854
)
;

boundaryField
{
    interface
    {
        type            fixedValue;
        value           nonuniform List<scalar> 
192
(
290.122
289.769
289.66
289.567
289.438
289.225
288.803
287.837
290.892
290.659
290.576
290.502
290.395
290.21
289.809
288.799
291.201
291.018
290.947
290.878
290.777
290.599
290.206
289.218
291.349
291.183
291.117
291.05
290.95
290.773
290.387
289.425
291.431
291.273
291.208
291.142
291.043
290.867
290.486
289.544
291.48
291.325
291.262
291.196
291.097
290.922
290.544
289.617
291.508
291.355
291.292
291.226
291.128
290.953
290.578
289.66
291.521
291.369
291.306
291.24
291.142
290.967
290.594
289.68
290.086
289.738
289.627
289.534
289.405
289.193
288.772
287.811
290.739
290.489
290.4
290.324
290.218
290.034
289.632
288.618
290.786
290.539
290.452
290.378
290.273
290.09
289.69
288.688
290.255
289.921
289.816
289.728
289.603
289.395
288.981
288.048
290.368
290.035
289.932
289.845
289.721
289.514
289.101
288.171
291.108
290.888
290.81
290.741
290.64
290.461
290.071
289.1
291.407
291.236
291.17
291.106
291.012
290.84
290.46
289.512
291.55
291.395
291.333
291.272
291.179
291.01
290.637
289.716
291.629
291.48
291.421
291.36
291.268
291.101
290.734
289.835
291.675
291.53
291.472
291.412
291.32
291.154
290.791
289.907
291.702
291.559
291.5
291.441
291.349
291.184
290.824
289.949
291.714
291.572
291.514
291.454
291.363
291.198
290.84
289.969
287.808
288.766
289.184
289.39
289.51
289.583
289.625
289.645
288.616
289.627
290.027
290.207
290.306
290.365
290.399
290.414
288.686
289.687
290.084
290.264
290.362
290.421
290.455
290.471
288.047
288.978
289.39
289.595
289.714
289.786
289.829
289.848
)
;
    }
    symmetry
    {
        type            symmetry;
    }
    bottom
    {
        type            fixedValue;
        value           uniform 293;
    }
}


// ************************************************************************* //
