/*--------------------------------*- C++ -*----------------------------------*\
| =========                 |                                                 |
| \\      /  F ield         | OpenFOAM: The Open Source CFD Toolbox           |
|  \\    /   O peration     | Version:  v1912                                 |
|   \\  /    A nd           | Website:  www.openfoam.com                      |
|    \\/     M anipulation  |                                                 |
\*---------------------------------------------------------------------------*/
FoamFile
{
    version     2.0;
    format      ascii;
    class       volVectorField;
    location    "0.93/solid";
    object      U;
}
// * * * * * * * * * * * * * * * * * * * * * * * * * * * * * * * * * * * * * //

dimensions      [0 1 -1 0 0 0 0];


internalField   nonuniform List<vector> 
256
(
(1.78703e-08 1.9602e-08 2.33236e-08)
(4.26936e-09 1.3149e-08 2.28607e-08)
(-6.08387e-09 1.25071e-08 2.19776e-08)
(-1.76484e-08 1.74956e-08 2.06977e-08)
(3.42611e-08 1.82914e-08 5.64497e-08)
(8.79116e-09 1.21708e-08 5.55412e-08)
(-1.31211e-08 1.19909e-08 5.36942e-08)
(-3.56743e-08 1.81352e-08 5.09034e-08)
(3.82907e-08 3.30384e-09 8.07903e-08)
(9.31355e-09 5.50582e-10 7.91706e-08)
(-1.65413e-08 1.11094e-09 7.67508e-08)
(-4.25145e-08 5.47164e-09 7.3506e-08)
(3.74922e-08 -1.48663e-08 1.01052e-07)
(7.70076e-09 -1.57193e-08 9.85166e-08)
(-1.87079e-08 -1.44234e-08 9.56875e-08)
(-4.54476e-08 -1.05806e-08 9.2526e-08)
(3.67381e-08 -3.49629e-08 1.20463e-07)
(5.79031e-09 -3.55928e-08 1.16954e-07)
(-2.15506e-08 -3.35966e-08 1.13779e-07)
(-4.93805e-08 -2.86827e-08 1.10892e-07)
(3.9075e-08 -5.95771e-08 1.40842e-07)
(4.77915e-09 -6.0225e-08 1.36596e-07)
(-2.63369e-08 -5.75219e-08 1.33095e-07)
(-5.74317e-08 -5.1278e-08 1.30289e-07)
(4.53847e-08 -9.43995e-08 1.61463e-07)
(4.88974e-09 -9.35748e-08 1.57496e-07)
(-3.34461e-08 -9.00583e-08 1.53672e-07)
(-7.05312e-08 -8.37655e-08 1.49959e-07)
(5.06252e-08 -1.37413e-07 1.75951e-07)
(4.41185e-09 -1.34209e-07 1.73418e-07)
(-4.13725e-08 -1.29517e-07 1.69331e-07)
(-8.36683e-08 -1.23289e-07 1.63717e-07)
(1.25677e-08 7.408e-09 1.08648e-08)
(2.94604e-09 1.73278e-09 1.17456e-08)
(-3.70254e-09 1.53431e-09 1.1336e-08)
(-1.15703e-08 6.25501e-09 9.65873e-09)
(2.48801e-08 7.13972e-10 3.35411e-08)
(6.37012e-09 -4.55818e-09 3.52541e-08)
(-8.14444e-09 -4.36303e-09 3.41321e-08)
(-2.41779e-08 1.2702e-09 3.02783e-08)
(2.77904e-08 -1.3413e-08 5.4526e-08)
(6.77832e-09 -1.57123e-08 5.6294e-08)
(-1.03485e-08 -1.49233e-08 5.46678e-08)
(-2.88653e-08 -1.08743e-08 4.97766e-08)
(2.67655e-08 -2.99107e-08 7.3352e-08)
(5.38142e-09 -3.06186e-08 7.4774e-08)
(-1.18672e-08 -2.91857e-08 7.27775e-08)
(-3.07567e-08 -2.54489e-08 6.7484e-08)
(2.60041e-08 -4.81994e-08 9.11172e-08)
(3.73102e-09 -4.89461e-08 9.20201e-08)
(-1.42542e-08 -4.68635e-08 8.97104e-08)
(-3.39951e-08 -4.18456e-08 8.42972e-08)
(2.87684e-08 -6.9738e-08 1.08447e-07)
(3.07098e-09 -7.07371e-08 1.08799e-07)
(-1.87704e-08 -6.79907e-08 1.062e-07)
(-4.1859e-08 -6.14577e-08 1.0075e-07)
(3.67053e-08 -9.90717e-08 1.23915e-07)
(3.81921e-09 -9.83236e-08 1.23898e-07)
(-2.59742e-08 -9.48443e-08 1.21053e-07)
(-5.60111e-08 -8.86398e-08 1.1546e-07)
(4.46094e-08 -1.36606e-07 1.32949e-07)
(4.09201e-09 -1.31913e-07 1.32808e-07)
(-3.42077e-08 -1.27407e-07 1.2986e-07)
(-7.1277e-08 -1.23013e-07 1.24137e-07)
(7.43731e-09 2.61056e-09 5.51392e-09)
(1.52067e-09 -1.81016e-09 6.92997e-09)
(-1.77539e-09 -1.96152e-09 6.65196e-09)
(-6.00981e-09 1.40321e-09 4.72091e-09)
(1.53657e-08 -8.1843e-09 2.08984e-08)
(3.59669e-09 -1.23739e-08 2.36503e-08)
(-3.9071e-09 -1.21525e-08 2.28756e-08)
(-1.33363e-08 -7.80528e-09 1.86969e-08)
(1.71655e-08 -2.32461e-08 3.79821e-08)
(3.77873e-09 -2.51397e-08 4.10621e-08)
(-5.0042e-09 -2.43737e-08 3.98906e-08)
(-1.60713e-08 -2.09926e-08 3.46202e-08)
(1.60957e-08 -3.89503e-08 5.46271e-08)
(2.57795e-09 -3.97001e-08 5.75642e-08)
(-5.94924e-09 -3.83344e-08 5.60735e-08)
(-1.71761e-08 -3.48552e-08 5.03033e-08)
(1.55218e-08 -5.51281e-08 7.01679e-08)
(1.19534e-09 -5.61733e-08 7.27741e-08)
(-7.94483e-09 -5.41923e-08 7.10068e-08)
(-1.99562e-08 -4.92018e-08 6.50013e-08)
(1.87615e-08 -7.3047e-08 8.40116e-08)
(8.79367e-10 -7.44956e-08 8.61948e-08)
(-1.22414e-08 -7.18868e-08 8.41824e-08)
(-2.7725e-08 -6.52647e-08 7.80921e-08)
(2.78171e-08 -9.72499e-08 9.43983e-08)
(2.17062e-09 -9.68223e-08 9.61021e-08)
(-1.95012e-08 -9.353e-08 9.39097e-08)
(-4.24774e-08 -8.74217e-08 8.78955e-08)
(3.73397e-08 -1.29673e-07 9.81555e-08)
(3.03773e-09 -1.24622e-07 9.94561e-08)
(-2.78841e-08 -1.20355e-07 9.72394e-08)
(-5.88696e-08 -1.16796e-07 9.14941e-08)
(4.66123e-09 5.80215e-10 4.06457e-09)
(7.55481e-10 -2.84365e-09 5.14966e-09)
(-7.64787e-10 -3.02956e-09 4.94362e-09)
(-2.96998e-09 -8.17462e-10 3.49096e-09)
(1.01725e-08 -1.18564e-08 1.55664e-08)
(2.08347e-09 -1.52399e-08 1.76469e-08)
(-1.56111e-09 -1.51178e-08 1.70889e-08)
(-7.30439e-09 -1.18854e-08 1.40063e-08)
(1.15135e-08 -2.76262e-08 2.90289e-08)
(2.22715e-09 -2.92841e-08 3.13266e-08)
(-1.98144e-09 -2.86521e-08 3.04748e-08)
(-8.96232e-09 -2.58748e-08 2.6613e-08)
(1.07357e-08 -4.29165e-08 4.27144e-08)
(1.30332e-09 -4.37929e-08 4.48642e-08)
(-2.58256e-09 -4.25838e-08 4.37584e-08)
(-9.75266e-09 -3.93707e-08 3.95344e-08)
(1.06196e-08 -5.74754e-08 5.53934e-08)
(2.52022e-10 -5.88154e-08 5.72598e-08)
(-4.34597e-09 -5.70095e-08 5.59265e-08)
(-1.24314e-08 -5.21306e-08 5.15184e-08)
(1.43381e-08 -7.2748e-08 6.59044e-08)
(2.48682e-10 -7.45792e-08 6.74457e-08)
(-8.46019e-09 -7.21637e-08 6.59152e-08)
(-2.01765e-08 -6.55781e-08 6.14164e-08)
(2.38344e-08 -9.36987e-08 7.26381e-08)
(1.8219e-09 -9.37412e-08 7.38445e-08)
(-1.55647e-08 -9.06576e-08 7.21814e-08)
(-3.49145e-08 -8.45096e-08 6.77024e-08)
(3.37566e-08 -1.23238e-07 7.3804e-08)
(2.94285e-09 -1.18767e-07 7.48101e-08)
(-2.37901e-08 -1.1471e-07 7.31475e-08)
(-5.12781e-08 -1.11001e-07 6.87845e-08)
(3.57303e-09 -2.12058e-10 3.39102e-09)
(5.05833e-10 -3.1068e-09 3.97542e-09)
(-3.85109e-10 -3.32822e-09 3.82714e-09)
(-1.71756e-09 -1.76176e-09 2.98486e-09)
(8.22266e-09 -1.30067e-08 1.21651e-08)
(1.63007e-09 -1.59998e-08 1.32434e-08)
(-6.16145e-10 -1.59839e-08 1.28482e-08)
(-4.82653e-09 -1.34031e-08 1.10742e-08)
(9.59245e-09 -2.88608e-08 2.23109e-08)
(1.89605e-09 -3.04792e-08 2.34312e-08)
(-7.19856e-10 -2.99919e-08 2.2827e-08)
(-6.087e-09 -2.7586e-08 2.06147e-08)
(9.23465e-09 -4.37671e-08 3.27247e-08)
(1.26391e-09 -4.48211e-08 3.36716e-08)
(-1.14805e-09 -4.37756e-08 3.28791e-08)
(-6.84174e-09 -4.07468e-08 3.04634e-08)
(9.60749e-09 -5.73068e-08 4.22794e-08)
(5.25553e-10 -5.89019e-08 4.29835e-08)
(-2.77604e-09 -5.72702e-08 4.20176e-08)
(-9.56372e-09 -5.25087e-08 3.94874e-08)
(1.36907e-08 -7.11052e-08 4.98282e-08)
(7.66761e-10 -7.32174e-08 5.02997e-08)
(-6.72426e-09 -7.09819e-08 4.91842e-08)
(-1.72591e-08 -6.44881e-08 4.65661e-08)
(2.32758e-08 -9.04801e-08 5.41753e-08)
(2.46753e-09 -9.09138e-08 5.44625e-08)
(-1.35846e-08 -8.80089e-08 5.32497e-08)
(-3.17057e-08 -8.18324e-08 5.05767e-08)
(3.31368e-08 -1.1871e-07 5.44648e-08)
(3.68042e-09 -1.14906e-07 5.47095e-08)
(-2.15547e-08 -1.11017e-07 5.35019e-08)
(-4.7654e-08 -1.06983e-07 5.08113e-08)
(3.23281e-09 -4.80819e-10 2.61423e-09)
(4.75957e-10 -3.15099e-09 2.86822e-09)
(-2.84293e-10 -3.398e-09 2.76904e-09)
(-1.27795e-09 -2.13353e-09 2.34557e-09)
(7.71623e-09 -1.3128e-08 8.89366e-09)
(1.63668e-09 -1.5997e-08 9.32343e-09)
(-3.31033e-10 -1.60618e-08 9.06049e-09)
(-3.99507e-09 -1.37906e-08 8.17497e-09)
(9.28797e-09 -2.87128e-08 1.5961e-08)
(2.06745e-09 -3.03968e-08 1.63416e-08)
(-3.11693e-10 -3.00244e-08 1.59392e-08)
(-5.17765e-09 -2.7802e-08 1.48409e-08)
(9.30263e-09 -4.32322e-08 2.31706e-08)
(1.67455e-09 -4.44605e-08 2.33953e-08)
(-6.55414e-10 -4.35472e-08 2.28646e-08)
(-5.98739e-09 -4.06246e-08 2.16662e-08)
(1.00539e-08 -5.61953e-08 2.97159e-08)
(1.17534e-09 -5.79858e-08 2.976e-08)
(-2.19367e-09 -5.64938e-08 2.91089e-08)
(-8.76118e-09 -5.18279e-08 2.78423e-08)
(1.43744e-08 -6.93262e-08 3.4743e-08)
(1.58908e-09 -7.16237e-08 3.4637e-08)
(-6.00125e-09 -6.95286e-08 3.38813e-08)
(-1.63793e-08 -6.31375e-08 3.25392e-08)
(2.39436e-08 -8.80802e-08 3.74803e-08)
(3.35821e-09 -8.87636e-08 3.72827e-08)
(-1.26407e-08 -8.59935e-08 3.64596e-08)
(-3.05174e-08 -7.9841e-08 3.50401e-08)
(3.36708e-08 -1.15727e-07 3.75356e-08)
(4.61364e-09 -1.12376e-07 3.7348e-08)
(-2.03861e-08 -1.08611e-07 3.65295e-08)
(-4.6061e-08 -1.04375e-07 3.50578e-08)
(3.1434e-09 -5.48097e-10 1.64858e-09)
(4.97737e-10 -3.13427e-09 1.74231e-09)
(-2.69069e-10 -3.39748e-09 1.6856e-09)
(-1.13245e-09 -2.26397e-09 1.49604e-09)
(7.65437e-09 -1.29437e-08 5.43471e-09)
(1.736e-09 -1.57973e-08 5.57007e-09)
(-2.66855e-10 -1.59138e-08 5.4199e-09)
(-3.74631e-09 -1.37741e-08 5.02688e-09)
(9.40958e-09 -2.82082e-08 9.60049e-09)
(2.29538e-09 -2.99733e-08 9.6782e-09)
(-2.02965e-10 -2.96769e-08 9.44809e-09)
(-4.94367e-09 -2.75342e-08 8.96363e-09)
(9.67725e-09 -4.24176e-08 1.38098e-08)
(2.0617e-09 -4.37756e-08 1.37842e-08)
(-5.0313e-10 -4.29513e-08 1.34797e-08)
(-5.80746e-09 -4.00846e-08 1.29506e-08)
(1.06677e-08 -5.508e-08 1.75983e-08)
(1.71597e-09 -5.6999e-08 1.74644e-08)
(-1.98113e-09 -5.56012e-08 1.70893e-08)
(-8.60842e-09 -5.10017e-08 1.65226e-08)
(1.51273e-08 -6.79571e-08 2.04662e-08)
(2.23898e-09 -7.0364e-08 2.02495e-08)
(-5.68839e-09 -6.83628e-08 1.98127e-08)
(-1.6156e-08 -6.2055e-08 1.9195e-08)
(2.46729e-08 -8.65069e-08 2.19909e-08)
(4.05185e-09 -8.73261e-08 2.17323e-08)
(-1.21751e-08 -8.46448e-08 2.12556e-08)
(-3.00728e-08 -7.85378e-08 2.05791e-08)
(3.43026e-08 -1.13886e-07 2.19945e-08)
(5.33401e-09 -1.10783e-07 2.17502e-08)
(-1.97673e-08 -1.07099e-07 2.12764e-08)
(-4.53366e-08 -1.0278e-07 2.05603e-08)
(3.12298e-09 -5.5474e-10 5.62604e-10)
(5.14257e-10 -3.11369e-09 5.85434e-10)
(-2.69858e-10 -3.38475e-09 5.67005e-10)
(-1.08679e-09 -2.30064e-09 5.13204e-10)
(7.66975e-09 -1.27866e-08 1.82832e-09)
(1.79851e-09 -1.56479e-08 1.85589e-09)
(-2.56087e-10 -1.57894e-08 1.80709e-09)
(-3.67645e-09 -1.36975e-08 1.69622e-09)
(9.52232e-09 -2.78554e-08 3.20413e-09)
(2.42367e-09 -2.96694e-08 3.20855e-09)
(-1.76758e-10 -2.94102e-08 3.13371e-09)
(-4.89186e-09 -2.72968e-08 2.9976e-09)
(9.9133e-09 -4.18959e-08 4.58579e-09)
(2.26741e-09 -4.33211e-08 4.5546e-09)
(-4.56973e-10 -4.2541e-08 4.4554e-09)
(-5.78334e-09 -3.96986e-08 4.30656e-09)
(1.10168e-08 -5.44302e-08 5.82342e-09)
(1.99543e-09 -5.64121e-08 5.75647e-09)
(-1.90384e-09 -5.50613e-08 5.63403e-09)
(-8.59338e-09 -5.04957e-08 5.47291e-09)
(1.5541e-08 -6.72291e-08 6.75476e-09)
(2.57156e-09 -6.96863e-08 6.66148e-09)
(-5.55958e-09 -6.77319e-08 6.51866e-09)
(-1.6101e-08 -6.14697e-08 6.33958e-09)
(2.50751e-08 -8.57248e-08 7.24591e-09)
(4.40751e-09 -8.66024e-08 7.14042e-09)
(-1.19704e-08 -8.39651e-08 6.98443e-09)
(-2.9907e-08 -7.789e-08 6.78413e-09)
(3.46577e-08 -1.12997e-07 7.24405e-09)
(5.70397e-09 -1.09999e-07 7.14397e-09)
(-1.94866e-08 -1.06355e-07 6.9889e-09)
(-4.50324e-08 -1.02013e-07 6.77464e-09)
)
;

boundaryField
{
    interface
    {
        type            calculated;
        value           nonuniform List<vector> 
192
(
(2.27125e-08 3.26349e-08 2.16335e-08)
(3.94572e-08 2.33965e-08 5.34744e-08)
(4.38547e-08 4.11156e-09 7.75604e-08)
(4.34374e-08 -1.52545e-08 9.78988e-08)
(4.28514e-08 -3.45672e-08 1.1747e-07)
(4.50233e-08 -5.74155e-08 1.38114e-07)
(5.15247e-08 -9.1512e-08 1.59231e-07)
(5.65594e-08 -1.362e-07 1.74368e-07)
(1.57001e-08 1.67699e-08 8.2566e-09)
(2.89255e-08 4.51963e-09 2.88174e-08)
(3.21164e-08 -1.29417e-08 4.92448e-08)
(3.12593e-08 -3.03574e-08 6.80029e-08)
(3.05439e-08 -4.76988e-08 8.58131e-08)
(3.32182e-08 -6.70628e-08 1.03369e-07)
(4.19026e-08 -9.51114e-08 1.19524e-07)
(5.08434e-08 -1.34753e-07 1.29628e-07)
(9.20887e-09 8.31134e-09 3.53734e-09)
(1.81407e-08 -5.75227e-09 1.72216e-08)
(2.0268e-08 -2.30637e-08 3.3913e-08)
(1.93775e-08 -3.93614e-08 5.06197e-08)
(1.89196e-08 -5.44617e-08 6.63218e-08)
(2.226e-08 -6.99732e-08 8.0404e-08)
(3.23667e-08 -9.26053e-08 9.11806e-08)
(4.35174e-08 -1.2734e-07 9.54423e-08)
(5.76313e-09 4.28866e-09 3.09852e-09)
(1.24868e-08 -1.01433e-08 1.37807e-08)
(1.42427e-08 -2.74855e-08 2.71357e-08)
(1.3712e-08 -4.314e-08 4.09992e-08)
(1.38202e-08 -5.65749e-08 5.39149e-08)
(1.78274e-08 -6.94444e-08 6.46368e-08)
(2.85977e-08 -8.88441e-08 7.15028e-08)
(4.03091e-08 -1.20676e-07 7.27532e-08)
(4.30284e-09 2.73687e-09 3.03393e-09)
(1.02096e-08 -1.15018e-08 1.15511e-08)
(1.20461e-08 -2.86079e-08 2.17545e-08)
(1.19981e-08 -4.37634e-08 3.23665e-08)
(1.26834e-08 -5.61929e-08 4.2138e-08)
(1.71817e-08 -6.76882e-08 4.98373e-08)
(2.817e-08 -8.56186e-08 5.42026e-08)
(3.98479e-08 -1.16057e-07 5.44433e-08)
(3.77338e-09 2.25645e-09 2.50684e-09)
(9.49268e-09 -1.16142e-08 8.75161e-09)
(1.15583e-08 -2.83163e-08 1.59153e-08)
(1.19295e-08 -4.30408e-08 2.32813e-08)
(1.30559e-08 -5.49275e-08 2.9981e-08)
(1.78691e-08 -6.58538e-08 3.51022e-08)
(2.89076e-08 -8.32561e-08 3.78296e-08)
(4.0431e-08 -1.13043e-07 3.7827e-08)
(3.60275e-09 2.15135e-09 1.62113e-09)
(9.32432e-09 -1.13772e-08 5.4231e-09)
(1.15885e-08 -2.77025e-08 9.65909e-09)
(1.22429e-08 -4.21031e-08 1.39625e-08)
(1.36476e-08 -5.37176e-08 1.78391e-08)
(1.86436e-08 -6.44558e-08 2.07578e-08)
(2.96893e-08 -8.17131e-08 2.22737e-08)
(4.10894e-08 -1.11193e-07 2.22412e-08)
(3.55487e-09 2.14345e-09 5.57503e-10)
(9.29876e-09 -1.11868e-08 1.83217e-09)
(1.16671e-08 -2.72946e-08 3.23232e-09)
(1.24594e-08 -4.15224e-08 4.64481e-09)
(1.39957e-08 -5.30234e-08 5.9107e-09)
(1.90758e-08 -6.37146e-08 6.85817e-09)
(3.0122e-08 -8.09457e-08 7.34645e-09)
(4.14601e-08 -1.10303e-07 7.33282e-09)
(1.85995e-08 3.95453e-08 2.60027e-08)
(3.55214e-08 3.26581e-08 5.91734e-08)
(3.95005e-08 1.44544e-08 8.38787e-08)
(3.84347e-08 -4.94803e-09 1.04596e-07)
(3.73573e-08 -2.50152e-08 1.24195e-07)
(3.93775e-08 -4.93271e-08 1.4427e-07)
(4.55089e-08 -8.56221e-08 1.64708e-07)
(5.07835e-08 -1.32718e-07 1.78574e-07)
(3.93273e-09 3.27495e-08 2.47982e-08)
(8.10207e-09 2.62483e-08 5.73556e-08)
(8.30347e-09 1.12945e-08 8.08802e-08)
(6.35954e-09 -6.27332e-09 1.00237e-07)
(4.11925e-09 -2.60728e-08 1.18523e-07)
(2.84229e-09 -5.00894e-08 1.37666e-07)
(2.94198e-09 -8.43692e-08 1.58697e-07)
(2.75688e-09 -1.29285e-07 1.75124e-07)
(-6.62477e-09 3.1425e-08 2.29049e-08)
(-1.42808e-08 2.56843e-08 5.46701e-08)
(-1.79577e-08 1.16094e-08 7.76171e-08)
(-2.02057e-08 -5.16609e-09 9.65353e-08)
(-2.30662e-08 -2.42447e-08 1.14441e-07)
(-2.79139e-08 -4.75485e-08 1.33232e-07)
(-3.53306e-08 -8.09991e-08 1.53915e-07)
(-4.37979e-08 -1.24649e-07 1.69998e-07)
(-1.90884e-08 3.53959e-08 2.03732e-08)
(-3.85213e-08 3.13374e-08 5.08727e-08)
(-4.58716e-08 1.58774e-08 7.37501e-08)
(-4.89505e-08 -1.23396e-09 9.31183e-08)
(-5.29077e-08 -1.92419e-08 1.11584e-07)
(-6.0963e-08 -4.15112e-08 1.3061e-07)
(-7.41894e-08 -7.54084e-08 1.5004e-07)
(-8.76053e-08 -1.18749e-07 1.63073e-07)
(-1.64971e-08 3.08262e-08 1.8458e-08)
(-3.49187e-08 2.43517e-08 4.66056e-08)
(-4.20099e-08 7.91505e-09 6.84149e-08)
(-4.51807e-08 -8.86397e-09 8.71016e-08)
(-4.9136e-08 -2.56865e-08 1.05282e-07)
(-5.68658e-08 -4.59901e-08 1.2463e-07)
(-6.99019e-08 -7.72062e-08 1.445e-07)
(-8.24348e-08 -1.17872e-07 1.5865e-07)
(-9.0836e-09 1.5192e-08 6.74907e-09)
(-2.2672e-08 5.59397e-09 2.46937e-08)
(-2.75784e-08 -9.22952e-09 4.31657e-08)
(-2.95328e-08 -2.41663e-08 6.0416e-08)
(-3.26941e-08 -3.90699e-08 7.69411e-08)
(-4.03219e-08 -5.59536e-08 9.33237e-08)
(-5.4941e-08 -8.12852e-08 1.08447e-07)
(-7.06929e-08 -1.17192e-07 1.17937e-07)
(-2.32591e-09 6.23971e-09 2.57081e-09)
(-1.07601e-08 -5.2899e-09 1.44785e-08)
(-1.37833e-08 -2.00326e-08 2.96443e-08)
(-1.49769e-08 -3.38839e-08 4.50522e-08)
(-1.77547e-08 -4.65645e-08 5.96102e-08)
(-2.54684e-08 -5.96342e-08 7.26713e-08)
(-4.09742e-08 -7.96354e-08 8.26212e-08)
(-5.84138e-08 -1.10739e-07 8.64942e-08)
(1.3333e-09 1.75112e-09 2.41787e-09)
(-4.33419e-09 -1.03873e-08 1.18788e-08)
(-6.37909e-09 -2.52627e-08 2.41169e-08)
(-7.33496e-09 -3.85034e-08 3.69507e-08)
(-1.01213e-08 -4.95245e-08 4.89202e-08)
(-1.79912e-08 -5.99572e-08 5.87998e-08)
(-3.36933e-08 -7.67341e-08 6.50094e-08)
(-5.1262e-08 -1.04928e-07 6.59805e-08)
(2.94015e-09 -1.25753e-10 2.56182e-09)
(-1.55702e-09 -1.23107e-08 1.02468e-08)
(-3.26354e-09 -2.70821e-08 1.96685e-08)
(-4.2512e-09 -3.98776e-08 2.9522e-08)
(-7.16974e-09 -4.99043e-08 3.85698e-08)
(-1.5112e-08 -5.89525e-08 4.56168e-08)
(-3.06442e-08 -7.42335e-08 4.94774e-08)
(-4.78254e-08 -1.00994e-07 4.95069e-08)
(3.56084e-09 -8.15286e-10 2.19927e-09)
(-5.28864e-10 -1.28156e-08 7.90486e-09)
(-2.18826e-09 -2.73039e-08 1.4555e-08)
(-3.28125e-09 -3.97287e-08 2.14076e-08)
(-6.31475e-09 -4.92298e-08 2.76035e-08)
(-1.4255e-08 -5.76983e-08 3.22634e-08)
(-2.9541e-08 -7.24204e-08 3.46318e-08)
(-4.62962e-08 -9.8487e-08 3.44784e-08)
(3.78396e-09 -1.04429e-09 1.44823e-09)
(-1.7988e-10 -1.28213e-08 4.94719e-09)
(-1.87076e-09 -2.70188e-08 8.89215e-09)
(-3.04961e-09 -3.91683e-08 1.28996e-08)
(-6.14973e-09 -4.84144e-08 1.64806e-08)
(-1.40628e-08 -5.66888e-08 1.91254e-08)
(-2.91612e-08 -7.12425e-08 2.04265e-08)
(-4.56e-08 -9.69721e-08 2.03031e-08)
(3.85575e-09 -1.10985e-09 5.01786e-10)
(-7.14295e-11 -1.27462e-08 1.67874e-09)
(-1.78782e-09 -2.677e-08 2.98463e-09)
(-3.00955e-09 -3.87731e-08 4.30052e-09)
(-6.13741e-09 -4.79162e-08 5.46914e-09)
(-1.40299e-08 -5.61411e-08 6.32582e-09)
(-2.90296e-08 -7.0657e-08 6.74268e-09)
(-4.53137e-08 -9.62472e-08 6.69859e-09)
(5.04309e-08 -1.40137e-07 1.78097e-07)
(4.43626e-08 -1.40035e-07 1.31014e-07)
(3.72434e-08 -1.33425e-07 9.48136e-08)
(3.39198e-08 -1.27543e-07 7.10633e-08)
(3.35121e-08 -1.23232e-07 5.25868e-08)
(3.41751e-08 -1.20306e-07 3.63294e-08)
(3.48732e-08 -1.18488e-07 2.13122e-08)
(3.52555e-08 -1.17612e-07 7.02186e-09)
(2.43796e-09 -1.36012e-07 1.75306e-07)
(1.79221e-09 -1.3329e-07 1.30411e-07)
(7.08142e-10 -1.25989e-07 9.61696e-08)
(8.10794e-10 -1.20823e-07 7.2381e-08)
(1.75709e-09 -1.17364e-07 5.31117e-08)
(2.83467e-09 -1.1503e-07 3.63174e-08)
(3.63719e-09 -1.13538e-07 2.11561e-08)
(4.04339e-09 -1.12799e-07 6.94805e-09)
(-4.41025e-08 -1.3027e-07 1.71238e-07)
(-3.64327e-08 -1.27801e-07 1.27569e-07)
(-2.98407e-08 -1.20746e-07 9.40653e-08)
(-2.57316e-08 -1.15791e-07 7.08131e-08)
(-2.35355e-08 -1.12499e-07 5.1977e-08)
(-2.23865e-08 -1.10286e-07 3.55499e-08)
(-2.17681e-08 -1.08872e-07 2.07125e-08)
(-2.14833e-08 -1.08172e-07 6.80294e-09)
(-8.7934e-08 -1.22719e-07 1.65918e-07)
(-7.52862e-08 -1.23214e-07 1.22514e-07)
(-6.27883e-08 -1.17322e-07 8.84911e-08)
(-5.52422e-08 -1.12073e-07 6.63312e-08)
(-5.16574e-08 -1.08261e-07 4.91546e-08)
(-5.00642e-08 -1.057e-07 3.40071e-08)
(-4.93208e-08 -1.04121e-07 1.99699e-08)
(-4.90013e-08 -1.03362e-07 6.58286e-09)
)
;
    }
    symmetry
    {
        type            symmetry;
    }
    bottom
    {
        type            calculated;
        value           uniform (0 0 0);
    }
}


// ************************************************************************* //
