/*--------------------------------*- C++ -*----------------------------------*\
| =========                 |                                                 |
| \\      /  F ield         | OpenFOAM: The Open Source CFD Toolbox           |
|  \\    /   O peration     | Version:  v1912                                 |
|   \\  /    A nd           | Website:  www.openfoam.com                      |
|    \\/     M anipulation  |                                                 |
\*---------------------------------------------------------------------------*/
FoamFile
{
    version     2.0;
    format      ascii;
    class       volVectorField;
    location    "0.76/solid";
    object      D_0;
}
// * * * * * * * * * * * * * * * * * * * * * * * * * * * * * * * * * * * * * //

dimensions      [0 1 0 0 0 0 0];


internalField   nonuniform List<vector> 
256
(
(2.7762e-08 3.94913e-08 3.0369e-08)
(3.60992e-09 2.30619e-08 2.76351e-08)
(-3.45357e-09 2.27099e-08 2.75346e-08)
(-2.67378e-08 3.80244e-08 3.01379e-08)
(4.54629e-08 3.08884e-08 5.866e-08)
(9.27044e-09 2.08459e-08 5.50266e-08)
(-7.98172e-09 2.03108e-08 5.49539e-08)
(-4.30099e-08 2.9108e-08 5.85187e-08)
(4.80311e-08 1.54526e-08 7.4304e-08)
(1.07526e-08 1.14495e-08 7.03819e-08)
(-8.07145e-09 1.08183e-08 7.03721e-08)
(-4.41941e-08 1.34941e-08 7.4335e-08)
(4.75387e-08 1.57539e-09 8.65073e-08)
(1.07527e-08 -6.02234e-10 8.21576e-08)
(-6.5801e-09 -1.30451e-09 8.2194e-08)
(-4.22129e-08 -5.68384e-10 8.66677e-08)
(4.83925e-08 -1.1725e-08 9.85977e-08)
(1.12249e-08 -1.46363e-08 9.37431e-08)
(-5.47804e-09 -1.54054e-08 9.38076e-08)
(-4.14778e-08 -1.40521e-08 9.88395e-08)
(5.29233e-08 -2.65825e-08 1.12339e-07)
(1.32177e-08 -3.09119e-08 1.07018e-07)
(-5.82436e-09 -3.17491e-08 1.07098e-07)
(-4.43521e-08 -2.90886e-08 1.12625e-07)
(6.3476e-08 -4.94708e-08 1.28881e-07)
(1.73455e-08 -5.2871e-08 1.23584e-07)
(-8.27923e-09 -5.37569e-08 1.23667e-07)
(-5.32286e-08 -5.21064e-08 1.2918e-07)
(7.84616e-08 -1.04451e-07 1.45518e-07)
(2.18529e-08 -1.00797e-07 1.41271e-07)
(-1.12296e-08 -1.01485e-07 1.41342e-07)
(-6.65883e-08 -1.06585e-07 1.45792e-07)
(1.92905e-08 1.79249e-08 6.11708e-09)
(1.85684e-09 4.44996e-09 7.47545e-09)
(-1.69803e-09 4.21285e-09 7.54043e-09)
(-1.82893e-08 1.67719e-08 6.30373e-09)
(3.19011e-08 1.20647e-08 2.37946e-08)
(5.86143e-09 3.66754e-09 2.64434e-08)
(-4.62191e-09 3.18003e-09 2.65701e-08)
(-2.95701e-08 1.04248e-08 2.4161e-08)
(3.33959e-08 1.56512e-09 3.85414e-08)
(6.92512e-09 -1.89406e-09 4.16179e-08)
(-4.36746e-09 -2.51709e-09 4.17973e-08)
(-2.97773e-08 -3.56243e-10 3.90592e-08)
(3.25992e-08 -9.69826e-09 5.04627e-08)
(6.86017e-09 -1.16972e-08 5.35744e-08)
(-2.87822e-09 -1.24028e-08 5.37966e-08)
(-2.75642e-08 -1.18385e-08 5.11026e-08)
(3.31834e-08 -2.16434e-08 6.15562e-08)
(7.28551e-09 -2.44902e-08 6.45581e-08)
(-1.78057e-09 -2.52645e-08 6.48094e-08)
(-2.66061e-08 -2.39768e-08 6.2279e-08)
(3.75094e-08 -3.48304e-08 7.30223e-08)
(9.23462e-09 -3.91957e-08 7.58844e-08)
(-2.11763e-09 -4.00384e-08 7.61522e-08)
(-2.9299e-08 -3.73483e-08 7.37914e-08)
(4.82534e-08 -5.31743e-08 8.42098e-08)
(1.3393e-08 -5.65367e-08 8.70187e-08)
(-4.62046e-09 -5.74314e-08 8.72917e-08)
(-3.83702e-08 -5.58329e-08 8.49928e-08)
(6.41226e-08 -9.77676e-08 9.05251e-08)
(1.79798e-08 -9.30857e-08 9.33806e-08)
(-7.647e-09 -9.3791e-08 9.36512e-08)
(-5.26023e-08 -9.9942e-08 9.13002e-08)
(1.34816e-08 1.12217e-08 2.94073e-09)
(3.23019e-10 -3.17967e-11 4.77053e-09)
(-2.15854e-10 -2.35424e-10 4.82257e-09)
(-1.25584e-08 1.01831e-08 3.08949e-09)
(2.22841e-08 2.46822e-09 1.47389e-08)
(2.75221e-09 -4.46736e-09 1.81972e-08)
(-1.65988e-09 -4.91692e-09 1.83082e-08)
(-2.01318e-08 9.48534e-10 1.50588e-08)
(2.30648e-08 -7.7399e-09 2.74189e-08)
(3.41001e-09 -1.06869e-08 3.13948e-08)
(-1.07635e-09 -1.1284e-08 3.15465e-08)
(-1.97038e-08 -9.57738e-09 2.78585e-08)
(2.22055e-08 -1.76188e-08 3.88234e-08)
(3.30044e-09 -1.95167e-08 4.29036e-08)
(3.96814e-10 -2.02076e-08 4.30876e-08)
(-1.74896e-08 -1.97085e-08 3.93574e-08)
(2.27504e-08 -2.76165e-08 4.91094e-08)
(3.70365e-09 -3.04908e-08 5.31683e-08)
(1.47044e-09 -3.12577e-08 5.33761e-08)
(-1.65347e-08 -2.99231e-08 4.97124e-08)
(2.71006e-08 -3.79259e-08 5.8447e-08)
(5.63326e-09 -4.23622e-08 6.24467e-08)
(1.12075e-09 -4.32027e-08 6.26695e-08)
(-1.92752e-08 -4.04352e-08 5.90921e-08)
(3.8041e-08 -5.19788e-08 6.56019e-08)
(9.81672e-09 -5.5405e-08 6.95324e-08)
(-1.42634e-09 -5.63021e-08 6.9762e-08)
(-2.85492e-08 -5.46433e-08 6.62648e-08)
(5.41255e-08 -9.11489e-08 6.75966e-08)
(1.4443e-08 -8.64676e-08 7.14898e-08)
(-4.50047e-09 -8.71776e-08 7.17202e-08)
(-4.29917e-08 -9.33322e-08 6.826e-08)
(1.08638e-08 9.11672e-09 2.72654e-09)
(-3.23489e-10 -8.47901e-10 3.90161e-09)
(3.9107e-10 -1.04151e-09 3.9364e-09)
(-1.00119e-08 8.13051e-09 2.82942e-09)
(1.78412e-08 -1.38594e-09 1.15062e-08)
(1.32094e-09 -7.44685e-09 1.37445e-08)
(-3.5663e-10 -7.874e-09 1.3826e-08)
(-1.58525e-08 -2.82719e-09 1.17462e-08)
(1.83804e-08 -1.24307e-08 2.16126e-08)
(1.78421e-09 -1.50701e-08 2.41805e-08)
(3.48058e-10 -1.56435e-08 2.42941e-08)
(-1.52514e-08 -1.41929e-08 2.19477e-08)
(1.76768e-08 -2.19423e-08 3.1375e-08)
(1.70231e-09 -2.38056e-08 3.3986e-08)
(1.73789e-09 -2.44777e-08 3.41239e-08)
(-1.3246e-08 -2.39736e-08 3.17829e-08)
(1.83868e-08 -3.05397e-08 4.0106e-08)
(2.15017e-09 -3.34613e-08 4.26774e-08)
(2.7258e-09 -3.42155e-08 4.28339e-08)
(-1.24945e-08 -3.28071e-08 4.05689e-08)
(2.28712e-08 -3.87286e-08 4.73089e-08)
(4.10008e-09 -4.32309e-08 4.98267e-08)
(2.32685e-09 -4.4064e-08 4.99959e-08)
(-1.53927e-08 -4.12158e-08 4.78086e-08)
(3.38509e-08 -5.04665e-08 5.19787e-08)
(8.264e-09 -5.40405e-08 5.4456e-08)
(-2.20341e-10 -5.4934e-08 5.46319e-08)
(-2.47162e-08 -5.31208e-08 5.24971e-08)
(4.97756e-08 -8.73359e-08 5.28182e-08)
(1.28555e-08 -8.31158e-08 5.53396e-08)
(-3.27281e-09 -8.3824e-08 5.55166e-08)
(-3.90011e-08 -8.95124e-08 5.3339e-08)
(9.87555e-09 8.26532e-09 2.48172e-09)
(-4.78469e-10 -1.05203e-09 3.07202e-09)
(5.20999e-10 -1.23966e-09 3.09563e-09)
(-9.07373e-09 7.31477e-09 2.55253e-09)
(1.62154e-08 -2.78317e-09 9.14819e-09)
(9.17263e-10 -8.42171e-09 1.02662e-08)
(-4.35355e-11 -8.83412e-09 1.03242e-08)
(-1.43486e-08 -4.16963e-09 9.32012e-09)
(1.67784e-08 -1.42933e-08 1.67429e-08)
(1.34127e-09 -1.68052e-08 1.80081e-08)
(6.40063e-10 -1.73608e-08 1.80903e-08)
(-1.38279e-08 -1.59978e-08 1.69876e-08)
(1.62846e-08 -2.37499e-08 2.42862e-08)
(1.31682e-09 -2.56278e-08 2.55423e-08)
(1.92454e-09 -2.62836e-08 2.56428e-08)
(-1.20771e-08 -2.57307e-08 2.45865e-08)
(1.71922e-08 -3.16502e-08 3.10168e-08)
(1.82442e-09 -3.46186e-08 3.22229e-08)
(2.81689e-09 -3.53601e-08 3.23376e-08)
(-1.15567e-08 -3.38792e-08 3.13597e-08)
(2.17876e-08 -3.88046e-08 3.63011e-08)
(3.79531e-09 -4.33504e-08 3.7466e-08)
(2.37114e-09 -4.41746e-08 3.75908e-08)
(-1.45882e-08 -4.12658e-08 3.6674e-08)
(3.27059e-08 -4.96271e-08 3.94866e-08)
(7.91595e-09 -5.33182e-08 4.06439e-08)
(-1.51383e-10 -5.42057e-08 4.07745e-08)
(-2.38631e-08 -5.22648e-08 3.98764e-08)
(4.84031e-08 -8.54383e-08 4.0113e-08)
(1.24529e-08 -8.16281e-08 4.13409e-08)
(-3.16312e-09 -8.23324e-08 4.14723e-08)
(-3.79272e-08 -8.76027e-08 4.05056e-08)
(9.5075e-09 7.86129e-09 1.95372e-09)
(-4.79862e-10 -1.14394e-09 2.22092e-09)
(5.06968e-10 -1.32711e-09 2.23649e-09)
(-8.73758e-09 6.93569e-09 2.00026e-09)
(1.56849e-08 -3.24283e-09 6.70817e-09)
(8.74372e-10 -8.70196e-09 7.20113e-09)
(-6.01944e-11 -9.10396e-09 7.24002e-09)
(-1.38991e-08 -4.59043e-09 6.82324e-09)
(1.63512e-08 -1.48321e-08 1.1978e-08)
(1.31807e-09 -1.7312e-08 1.25181e-08)
(5.59538e-10 -1.78548e-08 1.2574e-08)
(-1.35236e-08 -1.64947e-08 1.2144e-08)
(1.60292e-08 -2.42539e-08 1.72269e-08)
(1.34503e-09 -2.61638e-08 1.77407e-08)
(1.75527e-09 -2.68073e-08 1.78096e-08)
(-1.19797e-08 -2.61962e-08 1.74325e-08)
(1.70831e-08 -3.18988e-08 2.19007e-08)
(1.8965e-09 -3.49028e-08 2.2374e-08)
(2.57474e-09 -3.5634e-08 2.24529e-08)
(-1.16328e-08 -3.40966e-08 2.21371e-08)
(2.17394e-08 -3.87115e-08 2.55046e-08)
(3.87652e-09 -4.32769e-08 2.59544e-08)
(2.09832e-09 -4.40932e-08 2.60407e-08)
(-1.47445e-08 -4.11495e-08 2.57635e-08)
(3.25767e-08 -4.92748e-08 2.76511e-08)
(7.9555e-09 -5.30225e-08 2.81102e-08)
(-3.98489e-10 -5.39042e-08 2.82008e-08)
(-2.39507e-08 -5.18961e-08 2.79232e-08)
(4.80872e-08 -8.45422e-08 2.81837e-08)
(1.24455e-08 -8.09709e-08 2.87007e-08)
(-3.37548e-09 -8.16709e-08 2.87918e-08)
(-3.78361e-08 -8.66942e-08 2.84581e-08)
(9.35315e-09 7.6707e-09 1.23623e-09)
(-4.60499e-10 -1.18414e-09 1.34879e-09)
(4.78733e-10 -1.36437e-09 1.35772e-09)
(-8.60178e-09 6.76071e-09 1.26271e-09)
(1.54987e-08 -3.36188e-09 4.09597e-09)
(8.98613e-10 -8.74928e-09 4.29589e-09)
(-1.201e-10 -9.14447e-09 4.31834e-09)
(-1.37613e-08 -4.68439e-09 4.16199e-09)
(1.62514e-08 -1.48876e-08 7.19506e-09)
(1.36665e-09 -1.73685e-08 7.40457e-09)
(4.46949e-10 -1.79031e-08 7.43704e-09)
(-1.34992e-08 -1.65228e-08 7.29108e-09)
(1.60385e-08 -2.42647e-08 1.02653e-08)
(1.42657e-09 -2.62021e-08 1.04537e-08)
(1.5845e-09 -2.68375e-08 1.04939e-08)
(-1.20882e-08 -2.61814e-08 1.03851e-08)
(1.71776e-08 -3.18466e-08 1.29934e-08)
(2.00232e-09 -3.4872e-08 1.31579e-08)
(2.35929e-09 -3.55961e-08 1.32042e-08)
(-1.18457e-08 -3.40227e-08 1.31319e-08)
(2.18605e-08 -3.86084e-08 1.509e-08)
(3.98372e-09 -4.31787e-08 1.52442e-08)
(1.86594e-09 -4.39893e-08 1.5295e-08)
(-1.49981e-08 -4.10296e-08 1.52424e-08)
(3.2636e-08 -4.91449e-08 1.63505e-08)
(8.03368e-09 -5.29096e-08 1.65158e-08)
(-6.13563e-10 -5.3787e-08 1.65692e-08)
(-2.41522e-08 -5.17537e-08 1.65113e-08)
(4.80232e-08 -8.41346e-08 1.6717e-08)
(1.24916e-08 -8.06734e-08 1.69169e-08)
(-3.5675e-09 -8.13701e-08 1.69706e-08)
(-3.7921e-08 -8.62769e-08 1.68794e-08)
(9.28977e-09 7.59544e-09 4.21838e-10)
(-4.50123e-10 -1.19655e-09 4.53069e-10)
(4.64322e-10 -1.37532e-09 4.55984e-10)
(-8.54693e-09 6.69289e-09 4.30437e-10)
(1.5428e-08 -3.37783e-09 1.37664e-09)
(9.14269e-10 -8.73954e-09 1.43062e-09)
(-1.52383e-10 -9.13136e-09 1.43797e-09)
(-1.37131e-08 -4.68806e-09 1.39815e-09)
(1.62237e-08 -1.48447e-08 2.39918e-09)
(1.39503e-09 -1.73307e-08 2.45392e-09)
(3.88197e-10 -1.78612e-08 2.46457e-09)
(-1.35071e-08 -1.64664e-08 2.43058e-09)
(1.60614e-08 -2.41921e-08 3.40774e-09)
(1.46999e-09 -2.61439e-08 3.45487e-09)
(1.49807e-09 -2.67753e-08 3.4681e-09)
(-1.21586e-08 -2.60959e-08 3.44705e-09)
(1.7238e-08 -3.17679e-08 4.30272e-09)
(2.05581e-09 -3.48027e-08 4.34219e-09)
(2.25231e-09 -3.55233e-08 4.35745e-09)
(-1.19635e-08 -3.39329e-08 4.34833e-09)
(2.193e-08 -3.85467e-08 4.99092e-09)
(4.03648e-09 -4.31166e-08 5.02771e-09)
(1.75153e-09 -4.39243e-08 5.04449e-09)
(-1.51325e-08 -4.09591e-08 5.04124e-09)
(3.26739e-08 -4.91024e-08 5.40834e-09)
(8.07213e-09 -5.28692e-08 5.44966e-09)
(-7.19863e-10 -5.37443e-08 5.46735e-09)
(-2.42603e-08 -5.17045e-08 5.46154e-09)
(4.80009e-08 -8.39759e-08 5.53884e-09)
(1.2514e-08 -8.05541e-08 5.5914e-09)
(-3.66255e-09 -8.1249e-08 5.60917e-09)
(-3.79726e-08 -8.61129e-08 5.59257e-09)
)
;

boundaryField
{
    interface
    {
        type            solidTraction;
        traction        uniform (0 0 0);
        pressure        uniform 0;
        secondOrder     false;
        setEffectiveTraction false;
        relaxationFactor 1;
        value           nonuniform List<vector> 
192
(
(8.62397e-08 5.77974e-08 2.79998e-08)
(1.0026e-07 3.59556e-08 5.47433e-08)
(1.03971e-07 1.59716e-08 7.00775e-08)
(1.05221e-07 1.66581e-09 8.22504e-08)
(1.08189e-07 -1.03787e-08 9.43351e-08)
(1.15486e-07 -2.28114e-08 1.08085e-07)
(1.29658e-07 -4.30859e-08 1.24687e-07)
(1.51521e-07 -1.00063e-07 1.41444e-07)
(6.78031e-08 3.07227e-08 2.54677e-09)
(7.79267e-08 1.5591e-08 1.79996e-08)
(8.00686e-08 1.73965e-09 3.22994e-08)
(8.05858e-08 -9.75133e-09 4.41289e-08)
(8.3067e-08 -2.04158e-08 5.51453e-08)
(9.02079e-08 -3.10626e-08 6.65662e-08)
(1.05186e-07 -4.65207e-08 7.78507e-08)
(1.30347e-07 -9.32562e-08 8.44408e-08)
(5.58679e-08 2.01631e-08 8.33884e-10)
(6.36055e-08 4.86398e-09 1.12237e-08)
(6.51184e-08 -7.75955e-09 2.36647e-08)
(6.54964e-08 -1.76974e-08 3.50925e-08)
(6.79283e-08 -2.63926e-08 4.541e-08)
(7.52339e-08 -3.41029e-08 5.47871e-08)
(9.07934e-08 -4.52222e-08 6.2001e-08)
(1.16802e-07 -8.65656e-08 6.40096e-08)
(4.95887e-08 1.62929e-08 1.82492e-09)
(5.59953e-08 4.93171e-10 9.98887e-09)
(5.73755e-08 -1.24718e-08 2.00408e-08)
(5.7932e-08 -2.19406e-08 2.98946e-08)
(6.05631e-08 -2.92409e-08 3.87163e-08)
(6.80904e-08 -3.48623e-08 4.59804e-08)
(8.38601e-08 -4.374e-08 5.06447e-08)
(1.09818e-07 -8.2729e-08 5.13874e-08)
(4.64495e-08 1.4788e-08 2.14256e-09)
(5.23522e-08 -1.05747e-09 8.60898e-09)
(5.38171e-08 -1.4276e-08 1.62355e-08)
(5.4625e-08 -2.36464e-08 2.38742e-08)
(5.74955e-08 -3.02742e-08 3.06907e-08)
(6.51849e-08 -3.49259e-08 3.6018e-08)
(8.09518e-08 -4.29728e-08 3.91679e-08)
(1.06618e-07 -8.08388e-08 3.96908e-08)
(4.48275e-08 1.41594e-08 1.82307e-09)
(5.0607e-08 -1.53192e-09 6.52891e-09)
(5.22069e-08 -1.47459e-08 1.18461e-08)
(5.32211e-08 -2.40708e-08 1.71653e-08)
(5.62713e-08 -3.04711e-08 2.18969e-08)
(6.40487e-08 -3.48377e-08 2.55228e-08)
(7.97442e-08 -4.26873e-08 2.76335e-08)
(1.05134e-07 -7.99651e-08 2.80887e-08)
(4.39752e-08 1.38836e-08 1.18177e-09)
(4.97377e-08 -1.63733e-09 4.0317e-09)
(5.14405e-08 -1.47526e-08 7.16313e-09)
(5.25858e-08 -2.40331e-08 1.02733e-08)
(5.57423e-08 -3.0391e-08 1.30321e-08)
(6.35587e-08 -3.47435e-08 1.51376e-08)
(7.9187e-08 -4.26037e-08 1.63748e-08)
(1.04385e-07 -7.95803e-08 1.66954e-08)
(4.35984e-08 1.37749e-08 4.05986e-10)
(4.93595e-08 -1.64435e-09 1.35895e-09)
(5.11124e-08 -1.46864e-08 2.39224e-09)
(5.23188e-08 -2.39385e-08 3.41344e-09)
(5.55224e-08 -3.03005e-08 4.31778e-09)
(6.33526e-08 -3.46873e-08 5.00828e-09)
(7.89438e-08 -4.25842e-08 5.41782e-09)
(1.04046e-07 -7.9435e-08 5.53324e-09)
(2.82637e-08 6.17487e-08 9.03432e-08)
(4.6514e-08 4.18723e-08 1.14649e-07)
(4.9165e-08 2.24146e-08 1.31449e-07)
(4.8581e-08 7.64892e-09 1.45513e-07)
(4.93115e-08 -5.26709e-09 1.59801e-07)
(5.37212e-08 -1.90116e-08 1.76276e-07)
(6.42499e-08 -4.11758e-08 1.96317e-07)
(7.94382e-08 -1.00019e-07 2.19741e-07)
(2.9017e-09 4.37274e-08 8.12619e-08)
(8.34463e-09 3.15328e-08 1.04895e-07)
(9.77039e-09 1.82323e-08 1.20541e-07)
(9.67529e-09 5.23817e-09 1.33603e-07)
(1.00283e-08 -8.42105e-09 1.47051e-07)
(1.19085e-08 -2.34516e-08 1.62925e-07)
(1.60429e-08 -4.43078e-08 1.83391e-07)
(2.081e-08 -9.6187e-08 2.10349e-07)
(-2.82751e-09 4.33322e-08 8.02956e-08)
(-7.10799e-09 3.10203e-08 1.03988e-07)
(-7.08232e-09 1.76284e-08 1.19668e-07)
(-5.45169e-09 4.55443e-09 1.32751e-07)
(-4.20306e-09 -9.17946e-09 1.4621e-07)
(-4.42172e-09 -2.42844e-08 1.62082e-07)
(-6.8793e-09 -4.51958e-08 1.82535e-07)
(-1.00981e-08 -9.68757e-08 2.09497e-07)
(-2.72775e-08 6.01886e-08 8.76454e-08)
(-4.40604e-08 4.01574e-08 1.12151e-07)
(-4.52745e-08 2.05314e-08 1.29033e-07)
(-4.31616e-08 5.55776e-09 1.43155e-07)
(-4.22775e-08 -7.56269e-09 1.57473e-07)
(-4.50168e-08 -2.15035e-08 1.73949e-07)
(-5.38655e-08 -4.38147e-08 1.93969e-07)
(-6.74339e-08 -1.02155e-07 2.17447e-07)
(-8.09757e-08 5.54614e-08 2.7756e-08)
(-9.35101e-08 3.34723e-08 5.46337e-08)
(-9.57488e-08 1.3295e-08 7.01909e-08)
(-9.54158e-08 -1.24744e-09 8.25315e-08)
(-9.67106e-08 -1.35173e-08 9.4722e-08)
(-1.0228e-07 -2.6151e-08 1.0853e-07)
(-1.14726e-07 -4.65474e-08 1.25147e-07)
(-1.34881e-07 -1.02984e-07 1.41874e-07)
(-6.26072e-08 2.87368e-08 2.75884e-09)
(-7.14301e-08 1.32969e-08 1.84415e-08)
(-7.22121e-08 -8.57659e-10 3.29365e-08)
(-7.12164e-08 -1.26313e-08 4.49217e-08)
(-7.20529e-08 -2.35432e-08 5.60432e-08)
(-7.74585e-08 -3.44073e-08 6.75222e-08)
(-9.06782e-08 -5.00071e-08 7.8823e-08)
(-1.14111e-07 -9.62244e-08 8.54012e-08)
(-5.08881e-08 1.83556e-08 1.02011e-09)
(-5.74112e-08 2.73492e-09 1.16294e-08)
(-5.7641e-08 -1.02379e-08 2.4227e-08)
(-5.65643e-08 -2.05008e-08 3.57778e-08)
(-5.7382e-08 -2.94767e-08 4.61845e-08)
(-6.29505e-08 -3.74316e-08 5.56156e-08)
(-7.67207e-08 -4.87141e-08 6.28513e-08)
(-1.0096e-07 -8.95449e-08 6.48598e-08)
(-4.47949e-08 1.45966e-08 1.95822e-09)
(-5.00746e-08 -1.51729e-09 1.03004e-08)
(-5.02375e-08 -1.48446e-08 2.04788e-08)
(-4.93894e-08 -2.46628e-08 3.04298e-08)
(-5.0436e-08 -3.22705e-08 3.93244e-08)
(-5.62329e-08 -3.81604e-08 4.66369e-08)
(-7.0195e-08 -4.72186e-08 5.13257e-08)
(-9.43534e-08 -8.56999e-08 5.2073e-08)
(-4.17851e-08 1.31704e-08 2.23394e-09)
(-4.66312e-08 -2.98107e-09 8.83179e-09)
(-4.69338e-08 -1.65657e-08 1.65557e-08)
(-4.63788e-08 -2.62985e-08 2.42699e-08)
(-4.76921e-08 -3.32514e-08 3.11443e-08)
(-5.36625e-08 -3.81892e-08 3.65121e-08)
(-6.76167e-08 -4.643e-08 3.96851e-08)
(-9.14678e-08 -8.37942e-08 4.02144e-08)
(-4.02443e-08 1.25949e-08 1.88226e-09)
(-4.50158e-08 -3.39392e-09 6.67641e-09)
(-4.5494e-08 -1.69745e-08 1.20618e-08)
(-4.51775e-08 -2.66689e-08 1.74353e-08)
(-4.66933e-08 -3.34054e-08 2.22094e-08)
(-5.27639e-08 -3.807e-08 2.5866e-08)
(-6.66485e-08 -4.6123e-08 2.79955e-08)
(-9.02169e-08 -8.2904e-08 2.84566e-08)
(-3.94393e-08 1.23515e-08 1.21505e-09)
(-4.42231e-08 -3.46003e-09 4.11548e-09)
(-4.48303e-08 -1.69411e-08 7.28697e-09)
(-4.46669e-08 -2.65947e-08 1.04298e-08)
(-4.63053e-08 -3.32952e-08 1.32146e-08)
(-5.24249e-08 -3.79529e-08 1.53394e-08)
(-6.62458e-08 -4.60228e-08 1.65888e-08)
(-8.96213e-08 -8.25062e-08 1.69135e-08)
(-3.90841e-08 1.22579e-08 4.16723e-10)
(-4.38803e-08 -3.44801e-09 1.3861e-09)
(-4.45504e-08 -1.6855e-08 2.43257e-09)
(-4.44589e-08 -2.64818e-08 3.46466e-09)
(-4.61531e-08 -3.31894e-08 4.37778e-09)
(-5.22919e-08 -3.78848e-08 5.07486e-09)
(-6.60782e-08 -4.59943e-08 5.48859e-09)
(-8.93585e-08 -8.23538e-08 5.60548e-09)
(7.97438e-08 -1.78727e-07 1.46063e-07)
(6.52092e-08 -1.65283e-07 8.71994e-08)
(5.52482e-08 -1.55226e-07 6.49887e-08)
(5.10254e-08 -1.48834e-07 5.13905e-08)
(4.97517e-08 -1.45095e-07 3.94145e-08)
(4.94844e-08 -1.42995e-07 2.78578e-08)
(4.94365e-08 -1.41874e-07 1.65755e-08)
(4.94172e-08 -1.41386e-07 5.49915e-09)
(2.11125e-08 -1.69927e-07 1.41648e-07)
(1.69867e-08 -1.52976e-07 8.97981e-08)
(1.34511e-08 -1.42527e-07 6.89974e-08)
(1.19784e-08 -1.36715e-07 5.41297e-08)
(1.16773e-08 -1.33593e-07 4.08047e-08)
(1.17286e-08 -1.31881e-07 2.8462e-08)
(1.18014e-08 -1.30953e-07 1.68127e-08)
(1.18332e-08 -1.3054e-07 5.56159e-09)
(-9.78144e-09 -1.69684e-07 1.41723e-07)
(-5.93196e-09 -1.52732e-07 9.00744e-08)
(-2.7834e-09 -1.42295e-07 6.92285e-08)
(-1.67274e-09 -1.36489e-07 5.43053e-08)
(-1.66856e-09 -1.33366e-07 4.09341e-08)
(-1.94373e-09 -1.31651e-07 2.85513e-08)
(-2.16571e-09 -1.30721e-07 1.68651e-08)
(-2.27196e-09 -1.30305e-07 5.57891e-09)
(-6.71128e-08 -1.78268e-07 1.46347e-07)
(-5.29223e-08 -1.64771e-07 8.79871e-08)
(-4.33456e-08 -1.54737e-07 6.56527e-08)
(-3.94842e-08 -1.48353e-07 5.19067e-08)
(-3.85128e-08 -1.44611e-07 3.98011e-08)
(-3.84743e-08 -1.42502e-07 2.81267e-08)
(-3.85786e-08 -1.41373e-07 1.67341e-08)
(-3.86352e-08 -1.40881e-07 5.55156e-09)
)
;
        gradient        uniform (0 0 0);
    }
    symmetry
    {
        type            solidSymmetry;
        patchType       symmetry;
        secondOrder     false;
        value           nonuniform List<vector> 
32
(
(9.28977e-09 7.59544e-09 0)
(1.5428e-08 -3.37783e-09 0)
(1.62237e-08 -1.48447e-08 0)
(1.60614e-08 -2.41921e-08 0)
(1.7238e-08 -3.17679e-08 0)
(2.193e-08 -3.85467e-08 0)
(3.26739e-08 -4.91024e-08 0)
(4.80009e-08 -8.39759e-08 0)
(-4.50123e-10 -1.19655e-09 0)
(9.14269e-10 -8.73954e-09 0)
(1.39503e-09 -1.73307e-08 0)
(1.46999e-09 -2.61439e-08 0)
(2.05581e-09 -3.48027e-08 0)
(4.03648e-09 -4.31166e-08 0)
(8.07213e-09 -5.28692e-08 0)
(1.2514e-08 -8.05541e-08 0)
(4.64322e-10 -1.37532e-09 0)
(-1.52383e-10 -9.13136e-09 0)
(3.88197e-10 -1.78612e-08 0)
(1.49807e-09 -2.67753e-08 0)
(2.25231e-09 -3.55233e-08 0)
(1.75153e-09 -4.39243e-08 0)
(-7.19863e-10 -5.37443e-08 0)
(-3.66255e-09 -8.1249e-08 0)
(-8.54693e-09 6.69289e-09 0)
(-1.37131e-08 -4.68806e-09 0)
(-1.35071e-08 -1.64664e-08 0)
(-1.21586e-08 -2.60959e-08 0)
(-1.19635e-08 -3.39329e-08 0)
(-1.51325e-08 -4.09591e-08 0)
(-2.42603e-08 -5.17045e-08 0)
(-3.79726e-08 -8.61129e-08 0)
)
;
    }
    bottom
    {
        type            fixedDisplacement;
        value           uniform (0 0 0);
    }
}


// ************************************************************************* //
