/*--------------------------------*- C++ -*----------------------------------*\
| =========                 |                                                 |
| \\      /  F ield         | OpenFOAM: The Open Source CFD Toolbox           |
|  \\    /   O peration     | Version:  v1912                                 |
|   \\  /    A nd           | Website:  www.openfoam.com                      |
|    \\/     M anipulation  |                                                 |
\*---------------------------------------------------------------------------*/
FoamFile
{
    version     2.0;
    format      ascii;
    class       volScalarField;
    location    "0.76/solid";
    object      epsilonEq;
}
// * * * * * * * * * * * * * * * * * * * * * * * * * * * * * * * * * * * * * //

dimensions      [0 0 0 0 0 0 0];


internalField   nonuniform List<scalar> 
256
(
2.87293e-06
2.00605e-06
1.97415e-06
2.73165e-06
1.63816e-06
1.36827e-06
1.34454e-06
1.53242e-06
1.6109e-06
1.26931e-06
1.24647e-06
1.50463e-06
1.68579e-06
1.25992e-06
1.23729e-06
1.5776e-06
1.73937e-06
1.27741e-06
1.2548e-06
1.62963e-06
1.71753e-06
1.28072e-06
1.25821e-06
1.607e-06
1.36556e-06
1.14544e-06
1.12684e-06
1.26406e-06
2.7328e-07
1.29617e-06
1.28549e-06
2.8225e-07
1.68935e-06
4.29187e-07
4.15598e-07
1.54572e-06
1.22016e-06
4.24275e-07
4.12619e-07
1.0932e-06
1.18129e-06
3.19947e-07
3.11067e-07
1.05493e-06
1.18896e-06
2.15213e-07
2.09931e-07
1.06065e-06
1.21674e-06
1.77562e-07
1.76059e-07
1.08581e-06
1.24976e-06
2.01993e-07
2.00532e-07
1.11633e-06
1.1621e-06
1.91254e-07
1.94894e-07
1.03078e-06
1.36615e-06
1.1482e-06
1.12939e-06
1.26386e-06
1.39481e-06
2.62779e-07
2.57564e-07
1.25466e-06
1.16367e-06
2.50811e-07
2.41658e-07
1.03689e-06
1.14296e-06
1.77219e-07
1.69673e-07
1.01483e-06
1.15084e-06
1.20571e-07
1.19459e-07
1.01999e-06
1.18514e-06
1.27564e-07
1.31335e-07
1.05103e-06
1.24284e-06
1.46464e-07
1.47368e-07
1.10547e-06
1.24787e-06
1.98054e-07
1.97103e-07
1.11339e-06
1.72058e-06
1.28631e-06
1.26354e-06
1.60883e-06
1.24139e-06
2.46045e-07
2.44752e-07
1.10713e-06
1.08406e-06
2.31573e-07
2.28158e-07
9.63839e-07
1.06949e-06
1.77675e-07
1.76508e-07
9.46256e-07
1.07761e-06
1.5143e-07
1.55885e-07
9.50466e-07
1.1152e-06
1.53751e-07
1.61037e-07
9.83982e-07
1.18091e-06
1.4134e-07
1.45966e-07
1.04544e-06
1.21149e-06
1.63579e-07
1.64162e-07
1.07821e-06
1.75324e-06
1.28867e-06
1.26578e-06
1.64166e-06
1.15328e-06
2.12916e-07
2.12525e-07
1.02233e-06
1.0162e-06
2.10911e-07
2.09434e-07
8.99529e-07
1.00808e-06
1.70985e-07
1.71559e-07
8.87819e-07
1.02046e-06
1.48194e-07
1.53433e-07
8.95634e-07
1.06372e-06
1.43715e-07
1.51216e-07
9.34422e-07
1.13543e-06
1.19636e-07
1.24102e-07
1.00143e-06
1.17755e-06
1.57674e-07
1.57131e-07
1.04546e-06
1.72897e-06
1.27406e-06
1.25113e-06
1.61799e-06
1.10332e-06
1.82182e-07
1.8179e-07
9.73991e-07
9.71078e-07
1.84595e-07
1.83225e-07
8.5573e-07
9.6778e-07
1.47205e-07
1.47626e-07
8.48626e-07
9.85292e-07
1.19512e-07
1.24708e-07
8.61345e-07
1.03405e-06
1.09902e-07
1.17423e-07
9.05566e-07
1.1107e-06
8.55661e-08
8.84185e-08
9.77443e-07
1.16064e-06
1.70542e-07
1.68103e-07
1.02942e-06
1.70827e-06
1.2632e-06
1.24016e-06
1.59756e-06
1.076e-06
1.58244e-07
1.57587e-07
9.47406e-07
9.44638e-07
1.606e-07
1.58804e-07
8.29653e-07
9.44209e-07
1.19494e-07
1.19304e-07
8.25317e-07
9.65535e-07
8.39227e-08
8.95475e-08
8.41816e-07
1.01814e-06
7.15576e-08
8.02349e-08
8.89923e-07
1.09823e-06
5.41536e-08
5.47086e-08
9.65319e-07
1.1535e-06
1.8443e-07
1.80861e-07
1.02288e-06
1.69716e-06
1.25672e-06
1.23359e-06
1.58659e-06
1.06381e-06
1.44466e-07
1.4358e-07
9.35489e-07
9.32497e-07
1.45942e-07
1.43772e-07
8.17571e-07
9.33398e-07
1.00365e-07
9.96565e-08
8.14525e-07
9.56656e-07
5.56538e-08
6.26592e-08
8.32968e-07
1.01116e-06
4.04814e-08
5.26209e-08
8.83017e-07
1.09297e-06
3.21289e-08
2.98212e-08
9.60198e-07
1.15096e-06
1.91971e-07
1.87947e-07
1.02063e-06
1.69274e-06
1.25372e-06
1.23055e-06
1.58223e-06
)
;

boundaryField
{
    interface
    {
        type            calculated;
        value           nonuniform List<scalar> 
192
(
3.62858e-06
2.27862e-06
2.26509e-06
2.37182e-06
2.45807e-06
2.46925e-06
2.15733e-06
1.19285e-06
2.68844e-06
2.07512e-06
2.04866e-06
2.10181e-06
2.17753e-06
2.25318e-06
2.19315e-06
2.15878e-06
2.33912e-06
1.99866e-06
1.99669e-06
2.04849e-06
2.13077e-06
2.23297e-06
2.25447e-06
2.47501e-06
2.11877e-06
1.868e-06
1.87893e-06
1.93229e-06
2.01851e-06
2.13116e-06
2.18142e-06
2.47795e-06
1.98549e-06
1.76101e-06
1.78002e-06
1.83777e-06
1.9292e-06
2.04856e-06
2.11228e-06
2.42839e-06
1.90806e-06
1.69148e-06
1.71516e-06
1.77738e-06
1.87351e-06
1.99755e-06
2.06889e-06
2.3896e-06
1.86544e-06
1.65152e-06
1.6777e-06
1.74307e-06
1.84239e-06
1.96936e-06
2.04512e-06
2.36725e-06
1.84646e-06
1.63346e-06
1.66075e-06
1.72768e-06
1.82856e-06
1.95691e-06
2.03473e-06
2.35751e-06
3.67499e-06
2.32536e-06
2.31371e-06
2.42362e-06
2.51198e-06
2.52248e-06
2.20916e-06
1.25109e-06
3.07189e-06
2.27416e-06
2.1893e-06
2.22585e-06
2.29006e-06
2.33694e-06
2.23294e-06
2.14347e-06
3.02116e-06
2.23273e-06
2.14757e-06
2.18334e-06
2.24692e-06
2.2933e-06
2.19162e-06
2.1153e-06
3.50859e-06
2.20264e-06
2.18892e-06
2.29549e-06
2.38176e-06
2.3916e-06
2.08962e-06
1.22594e-06
3.40493e-06
2.08206e-06
2.06528e-06
2.16784e-06
2.25026e-06
2.25783e-06
1.94703e-06
1.01381e-06
2.4444e-06
1.84928e-06
1.82065e-06
1.86899e-06
1.93944e-06
2.00994e-06
1.94932e-06
1.94715e-06
2.10132e-06
1.77588e-06
1.77051e-06
1.81701e-06
1.89327e-06
1.98904e-06
2.00915e-06
2.26083e-06
1.88888e-06
1.65297e-06
1.65937e-06
1.70664e-06
1.78609e-06
1.89115e-06
1.93864e-06
2.26556e-06
1.76062e-06
1.55085e-06
1.5649e-06
1.61608e-06
1.70029e-06
1.81143e-06
1.87159e-06
2.2174e-06
1.68609e-06
1.48385e-06
1.5024e-06
1.55782e-06
1.64652e-06
1.76204e-06
1.82955e-06
2.17939e-06
1.64503e-06
1.44513e-06
1.4661e-06
1.52458e-06
1.61639e-06
1.73471e-06
1.80658e-06
2.15751e-06
1.62674e-06
1.42759e-06
1.44962e-06
1.50964e-06
1.60298e-06
1.72264e-06
1.79656e-06
2.14798e-06
1.25449e-06
2.21221e-06
2.52945e-06
2.5336e-06
2.48357e-06
2.44361e-06
2.42034e-06
2.41014e-06
2.14579e-06
2.23813e-06
2.34739e-06
2.31135e-06
2.26182e-06
2.22527e-06
2.20261e-06
2.1919e-06
2.11729e-06
2.19626e-06
2.30296e-06
2.26709e-06
2.21767e-06
2.18112e-06
2.15842e-06
2.1477e-06
1.22768e-06
2.09108e-06
2.39639e-06
2.40022e-06
2.35054e-06
2.3107e-06
2.28745e-06
2.27725e-06
)
;
    }
    symmetry
    {
        type            symmetry;
    }
    bottom
    {
        type            calculated;
        value           nonuniform List<scalar> 
32
(
4.1315e-06
2.20323e-06
1.70456e-06
1.50434e-06
1.4027e-06
1.34699e-06
1.31687e-06
1.30352e-06
2.61931e-06
5.44814e-07
2.58102e-07
2.41494e-07
2.12998e-07
1.84952e-07
1.62924e-07
1.50301e-07
2.58041e-06
5.25801e-07
2.44384e-07
2.31303e-07
2.02555e-07
1.73294e-07
1.49726e-07
1.35911e-07
3.95503e-06
2.04268e-06
1.54795e-06
1.35339e-06
1.25559e-06
1.20213e-06
1.17321e-06
1.16037e-06
)
;
    }
}


// ************************************************************************* //
