/*--------------------------------*- C++ -*----------------------------------*\
| =========                 |                                                 |
| \\      /  F ield         | OpenFOAM: The Open Source CFD Toolbox           |
|  \\    /   O peration     | Version:  v1912                                 |
|   \\  /    A nd           | Website:  www.openfoam.com                      |
|    \\/     M anipulation  |                                                 |
\*---------------------------------------------------------------------------*/
FoamFile
{
    version     2.0;
    format      ascii;
    class       volSymmTensorField;
    location    "0.76/solid";
    object      epsilon;
}
// * * * * * * * * * * * * * * * * * * * * * * * * * * * * * * * * * * * * * //

dimensions      [0 0 0 0 0 0 0];


internalField   nonuniform List<symmTensor> 
256
(
(-2.82722e-06 2.04139e-07 -7.52937e-08 1.41618e-06 2.3252e-07 -2.88769e-06)
(-6.30028e-07 -3.83249e-08 -3.20008e-08 8.83584e-07 2.30208e-07 -2.55086e-06)
(-6.12292e-07 3.38489e-08 3.02939e-08 8.65677e-07 2.30419e-07 -2.51246e-06)
(-2.6375e-06 -1.98055e-07 7.42064e-08 1.35074e-06 2.3355e-07 -2.77926e-06)
(-2.92361e-06 1.33041e-09 -1.15664e-07 -4.8487e-07 3.25497e-08 -2.94283e-06)
(-1.07984e-06 -3.44963e-08 -5.31704e-08 -2.35357e-07 4.3116e-08 -2.57068e-06)
(-1.05603e-06 3.61298e-08 5.1488e-08 -2.40755e-07 4.40183e-08 -2.53289e-06)
(-2.72552e-06 1.09938e-10 1.1429e-07 -4.94013e-07 3.51455e-08 -2.83699e-06)
(-2.99183e-06 -2.98288e-08 -1.24892e-07 -5.93745e-07 8.90278e-10 -3.00778e-06)
(-1.13442e-06 -3.18817e-08 -5.85739e-08 -4.35255e-07 2.7309e-09 -2.58625e-06)
(-1.11076e-06 3.45128e-08 5.73181e-08 -4.38364e-07 3.3387e-09 -2.54748e-06)
(-2.79031e-06 3.07885e-08 1.23596e-07 -6.00303e-07 2.68904e-09 -2.89865e-06)
(-3.05191e-06 -2.01852e-08 -1.29856e-07 -5.51922e-07 9.21239e-09 -3.08828e-06)
(-1.09484e-06 -2.44173e-08 -6.11818e-08 -5.29775e-07 6.25999e-09 -2.63413e-06)
(-1.07122e-06 2.63822e-08 6.01342e-08 -5.32308e-07 6.58002e-09 -2.59441e-06)
(-2.84663e-06 2.10626e-08 1.28631e-07 -5.5864e-07 1.02293e-08 -2.97637e-06)
(-3.14438e-06 -2.19867e-09 -1.35108e-07 -5.72838e-07 3.06906e-08 -3.1965e-06)
(-1.09022e-06 -1.23324e-08 -6.40861e-08 -6.16087e-07 2.63791e-08 -2.72077e-06)
(-1.0663e-06 1.33987e-08 6.30749e-08 -6.18565e-07 2.65242e-08 -2.6803e-06)
(-2.93535e-06 2.77213e-09 1.33926e-07 -5.79455e-07 3.11871e-08 -3.08249e-06)
(-3.30639e-06 3.25748e-08 -1.39636e-07 -7.6799e-07 7.01467e-08 -3.35181e-06)
(-1.18943e-06 9.69462e-09 -6.68158e-08 -7.77564e-07 6.75133e-08 -2.86392e-06)
(-1.1653e-06 -1.00789e-08 6.57563e-08 -7.79661e-07 6.75274e-08 -2.82273e-06)
(-3.09425e-06 -3.2658e-08 1.38496e-07 -7.73482e-07 7.02397e-08 -3.23598e-06)
(-3.58125e-06 9.46761e-08 -1.38113e-07 -1.57564e-06 1.30563e-07 -3.6e-06)
(-1.45313e-06 4.40673e-08 -6.63337e-08 -1.41467e-06 1.36411e-07 -3.12981e-06)
(-1.42889e-06 -4.70955e-08 6.51698e-08 -1.41136e-06 1.36254e-07 -3.08796e-06)
(-3.36689e-06 -9.56897e-08 1.37008e-07 -1.56725e-06 1.30188e-07 -3.4827e-06)
(-4.06813e-06 1.25282e-07 -1.24931e-07 -4.08171e-06 1.57016e-07 -4.07983e-06)
(-1.81576e-06 6.04926e-08 -6.02107e-08 -3.733e-06 1.71124e-07 -3.73019e-06)
(-1.79004e-06 -5.89065e-08 5.8883e-08 -3.69122e-06 1.70906e-07 -3.68869e-06)
(-3.84882e-06 -1.23975e-07 1.2381e-07 -3.96613e-06 1.56514e-07 -3.96527e-06)
(-2.29206e-06 1.226e-07 -5.83934e-08 6.01454e-07 1.91458e-08 -5.52811e-07)
(-4.23396e-07 -5.96375e-08 -1.8919e-08 1.61375e-07 1.11679e-07 -4.60896e-07)
(-4.06221e-07 5.93999e-08 2.09436e-08 1.46857e-07 1.15002e-07 -4.57743e-07)
(-2.10489e-06 -1.15091e-07 5.90924e-08 5.4539e-07 2.86929e-08 -5.44899e-07)
(-2.36683e-06 -1.32739e-08 -9.0409e-08 -3.32042e-07 4.1765e-08 -8.86551e-07)
(-7.37584e-07 -3.83545e-08 -3.79879e-08 -1.30887e-07 9.04453e-08 -7.43551e-07)
(-7.15306e-07 4.09082e-08 4.09341e-08 -1.38459e-07 9.23856e-08 -7.39703e-07)
(-2.17575e-06 1.47856e-08 9.12741e-08 -3.4683e-07 4.74576e-08 -8.76772e-07)
(-2.4018e-06 -3.13083e-08 -9.51813e-08 -4.42079e-07 3.61263e-08 -9.47245e-07)
(-7.6327e-07 -3.11347e-08 -4.15084e-08 -3.13127e-07 5.14387e-08 -7.87874e-07)
(-7.41603e-07 3.30064e-08 4.49871e-08 -3.17297e-07 5.26839e-08 -7.84445e-07)
(-2.20842e-06 3.17975e-08 9.61553e-08 -4.5147e-07 3.98815e-08 -9.38432e-07)
(-2.43975e-06 -2.12742e-08 -9.67113e-08 -4.71821e-07 3.95424e-08 -9.63892e-07)
(-7.17466e-07 -2.37208e-08 -4.18545e-08 -4.59394e-07 4.1547e-08 -7.93711e-07)
(-6.95959e-07 2.46502e-08 4.57157e-08 -4.62216e-07 4.23329e-08 -7.90545e-07)
(-2.24262e-06 2.16852e-08 9.78118e-08 -4.7946e-07 4.19587e-08 -9.55739e-07)
(-2.51891e-06 -3.93746e-09 -9.94078e-08 -5.11323e-07 6.83431e-08 -1.00078e-06)
(-7.07422e-07 -1.26043e-08 -4.33873e-08 -5.58967e-07 6.60943e-08 -8.20758e-07)
(-6.85522e-07 1.28149e-08 4.74047e-08 -5.61502e-07 6.65251e-08 -8.17667e-07)
(-2.31723e-06 4.19812e-09 1.00603e-07 -5.18278e-07 6.96683e-08 -9.92841e-07)
(-2.67962e-06 3.21805e-08 -1.01742e-07 -6.41657e-07 1.1534e-07 -1.09033e-06)
(-8.02306e-07 9.19144e-09 -4.52817e-08 -6.51762e-07 1.12197e-07 -9.02064e-07)
(-7.79973e-07 -1.01726e-08 4.92634e-08 -6.53953e-07 1.12331e-07 -8.9896e-07)
(-2.47336e-06 -3.242e-08 1.03002e-07 -6.47525e-07 1.15737e-07 -1.08242e-06)
(-2.9826e-06 1.00613e-07 -1.00268e-07 -1.27382e-06 1.52564e-07 -1.2807e-06)
(-1.07103e-06 4.55579e-08 -4.51711e-08 -1.09113e-06 1.52176e-07 -1.09441e-06)
(-1.04831e-06 -4.89847e-08 4.89788e-08 -1.0881e-06 1.52043e-07 -1.09121e-06)
(-2.77242e-06 -1.01697e-07 1.01568e-07 -1.26609e-06 1.52178e-07 -1.27263e-06)
(-3.58325e-06 1.38323e-07 -9.41268e-08 -3.60166e-06 1.31369e-07 -1.57669e-06)
(-1.45341e-06 6.64826e-08 -4.3453e-08 -3.13292e-06 1.37078e-07 -1.41257e-06)
(-1.42904e-06 -6.51562e-08 4.71435e-08 -3.09058e-06 1.36917e-07 -1.40908e-06)
(-3.36746e-06 -1.37087e-07 9.54746e-08 -3.48277e-06 1.30967e-07 -1.568e-06)
(-1.96001e-06 6.69333e-08 -2.41186e-08 2.72306e-07 9.07524e-08 -6.92385e-08)
(-2.75808e-07 -8.38949e-08 -3.08236e-09 -9.34679e-08 1.79628e-07 -7.28765e-08)
(-2.59176e-07 8.33047e-08 4.15323e-09 -1.06542e-07 1.81612e-07 -7.34486e-08)
(-1.77897e-06 -5.98391e-08 2.43281e-08 2.20907e-07 9.68566e-08 -7.08145e-08)
(-2.04642e-06 -2.14596e-08 -3.62179e-08 -3.85116e-07 1.12435e-07 -2.49544e-07)
(-4.82638e-07 -4.32433e-08 -9.93673e-09 -2.18383e-07 1.57745e-07 -2.57725e-07)
(-4.61017e-07 4.57913e-08 1.14395e-08 -2.26117e-07 1.59271e-07 -2.58542e-07)
(-1.86103e-06 2.29485e-08 3.65726e-08 -4.00551e-07 1.17087e-07 -2.51806e-07)
(-2.07849e-06 -3.00836e-08 -3.58584e-08 -4.08539e-07 1.03029e-07 -3.43892e-07)
(-4.86981e-07 -3.0229e-08 -1.03871e-08 -3.07084e-07 1.17584e-07 -3.54024e-07)
(-4.6602e-07 3.19312e-08 1.199e-08 -3.11735e-07 1.18743e-07 -3.55222e-07)
(-1.89076e-06 3.04911e-08 3.62646e-08 -4.19358e-07 1.06538e-07 -3.47182e-07)
(-2.11297e-06 -2.07695e-08 -3.43442e-08 -4.04503e-07 9.66005e-08 -3.88112e-07)
(-4.40133e-07 -2.32008e-08 -9.18431e-09 -4.03028e-07 9.8751e-08 -3.98055e-07)
(-4.19353e-07 2.37929e-08 1.09005e-08 -4.06235e-07 9.9584e-08 -3.99604e-07)
(-1.9214e-06 2.10493e-08 3.48026e-08 -4.13311e-07 9.91124e-08 -3.92336e-07)
(-2.19141e-06 -4.29105e-09 -3.39277e-08 -4.13476e-07 1.09565e-07 -4.36452e-07)
(-4.29738e-07 -1.32105e-08 -8.93436e-09 -4.64639e-07 1.07907e-07 -4.44944e-07)
(-4.08494e-07 1.30341e-08 1.07154e-08 -4.67438e-07 1.08434e-07 -4.46691e-07)
(-1.99474e-06 4.43806e-09 3.44358e-08 -4.21293e-07 1.11132e-07 -4.41197e-07)
(-2.35873e-06 3.25909e-08 -3.3725e-08 -4.96145e-07 1.28404e-07 -5.23288e-07)
(-5.25372e-07 8.57164e-09 -9.37296e-09 -5.06982e-07 1.25615e-07 -5.30009e-07)
(-5.03518e-07 -9.92634e-09 1.11203e-08 -5.09385e-07 1.25868e-07 -5.31818e-07)
(-2.15629e-06 -3.28997e-08 3.42737e-08 -5.02698e-07 1.29115e-07 -5.28183e-07)
(-2.68079e-06 1.02106e-07 -3.32255e-08 -1.0769e-06 1.20836e-07 -6.55763e-07)
(-7.99063e-07 4.55801e-08 -9.94093e-09 -8.92675e-07 1.17515e-07 -6.62221e-07)
(-7.76558e-07 -4.93538e-08 1.15557e-08 -8.89801e-07 1.17554e-07 -6.6398e-07)
(-2.47265e-06 -1.03225e-07 3.38074e-08 -1.06956e-06 1.20901e-07 -6.60508e-07)
(-3.31055e-06 1.3985e-07 -3.32943e-08 -3.35458e-06 7.33306e-08 -7.67162e-07)
(-1.18695e-06 6.68959e-08 -1.02397e-08 -2.86871e-06 7.0591e-08 -7.73679e-07)
(-1.16253e-06 -6.57231e-08 1.1708e-08 -2.82676e-06 7.05655e-08 -7.75352e-07)
(-3.09513e-06 -1.3861e-07 3.39128e-08 -3.23634e-06 7.3262e-08 -7.71658e-07)
(-1.77343e-06 4.41872e-08 -6.34972e-09 1.51865e-07 1.14618e-07 -9.57339e-09)
(-2.10457e-07 -9.18341e-08 4.09756e-09 -1.70187e-07 1.6872e-07 -3.46157e-08)
(-1.94456e-07 9.02585e-08 -3.39943e-09 -1.82633e-07 1.69978e-07 -3.51641e-08)
(-1.59764e-06 -3.78139e-08 6.41237e-09 1.02992e-07 1.18734e-07 -1.10725e-08)
(-1.85856e-06 -2.31086e-08 -8.07939e-09 -4.37336e-07 1.38603e-07 -1.13614e-07)
(-3.66034e-07 -4.40779e-08 4.84859e-09 -2.90414e-07 1.65811e-07 -1.6092e-07)
(-3.45125e-07 4.60731e-08 -3.88391e-09 -2.97891e-07 1.66904e-07 -1.61921e-07)
(-1.67831e-06 2.43759e-08 8.21279e-09 -4.52364e-07 1.42054e-07 -1.16399e-07)
(-1.894e-06 -2.7415e-08 -5.86143e-09 -4.17965e-07 1.35567e-07 -2.16812e-07)
(-3.62896e-07 -2.85512e-08 6.13471e-09 -3.33527e-07 1.43709e-07 -2.71615e-07)
(-3.42552e-07 3.00019e-08 -5.24011e-09 -3.3826e-07 1.44623e-07 -2.72915e-07)
(-1.71123e-06 2.77505e-08 5.99985e-09 -4.29207e-07 1.38375e-07 -2.2045e-07)
(-1.93201e-06 -1.87887e-08 -3.57677e-09 -3.68643e-07 1.26053e-07 -2.9538e-07)
(-3.20838e-07 -2.19111e-08 7.68064e-09 -3.74379e-07 1.26232e-07 -3.52472e-07)
(-3.00624e-07 2.23463e-08 -6.84466e-09 -3.77812e-07 1.2695e-07 -3.54032e-07)
(-1.74522e-06 1.90245e-08 3.71201e-09 -3.78186e-07 1.28222e-07 -2.99736e-07)
(-2.01429e-06 -3.24767e-09 -2.13512e-09 -3.42024e-07 1.214e-07 -3.67817e-07)
(-3.1552e-07 -1.28913e-08 8.53015e-09 -3.95243e-07 1.19432e-07 -4.25471e-07)
(-2.94786e-07 1.25577e-08 -7.72028e-09 -3.98275e-07 1.19938e-07 -4.27211e-07)
(-1.82201e-06 3.36077e-09 2.27815e-09 -3.5058e-07 1.22902e-07 -3.72651e-07)
(-2.18752e-06 3.28014e-08 -1.4335e-09 -4.06029e-07 1.1214e-07 -4.50326e-07)
(-4.14877e-07 7.98988e-09 8.53752e-09 -4.18918e-07 1.10001e-07 -5.07593e-07)
(-3.93423e-07 -9.52535e-09 -7.77221e-09 -4.21506e-07 1.10303e-07 -5.09415e-07)
(-1.98868e-06 -3.31277e-08 1.59166e-09 -4.13172e-07 1.13e-07 -4.55357e-07)
(-2.51773e-06 9.99932e-08 -1.96352e-09 -9.83153e-07 8.02568e-08 -5.31098e-07)
(-6.89368e-07 4.35628e-08 7.55769e-09 -8.06933e-07 7.7528e-08 -5.87083e-07)
(-6.67073e-07 -4.75261e-08 -6.90257e-09 -8.04176e-07 7.76608e-08 -5.8891e-07)
(-2.31185e-06 -1.01108e-07 2.13509e-09 -9.76121e-07 8.05997e-08 -5.36105e-07)
(-3.14938e-06 1.35658e-07 -3.48311e-09 -3.20507e-06 3.76764e-08 -5.59152e-07)
(-1.07359e-06 6.42146e-08 7.1185e-09 -2.73042e-06 3.36718e-08 -6.12907e-07)
(-1.04916e-06 -6.31317e-08 -6.64626e-09 -2.68879e-06 3.36969e-08 -6.1473e-07)
(-2.9347e-06 -1.34398e-07 3.64797e-09 -3.08752e-06 3.77452e-08 -5.64099e-07)
(-1.67041e-06 3.74948e-08 -8.74317e-10 1.06486e-07 1.05373e-07 -1.57536e-08)
(-1.87797e-07 -9.09005e-08 4.61427e-09 -1.93955e-07 1.32352e-07 -3.41344e-08)
(-1.72293e-07 8.86184e-08 -4.10281e-09 -2.06008e-07 1.33224e-07 -3.45019e-08)
(-1.49831e-06 -3.16679e-08 9.27151e-10 5.93426e-08 1.0827e-07 -1.68328e-08)
(-1.753e-06 -2.19486e-08 4.18088e-10 -4.57641e-07 1.26037e-07 -9.74056e-08)
(-3.26684e-07 -4.25622e-08 7.3582e-09 -3.21224e-07 1.38936e-07 -1.3275e-07)
(-3.06397e-07 4.40195e-08 -6.61722e-09 -3.28481e-07 1.39723e-07 -1.33556e-07)
(-1.57651e-06 2.29851e-08 -3.11566e-10 -4.72277e-07 1.28562e-07 -9.97714e-08)
(-1.79216e-06 -2.49408e-08 2.54739e-09 -4.2608e-07 1.29563e-07 -1.95549e-07)
(-3.24402e-07 -2.68838e-08 8.89419e-09 -3.50504e-07 1.32534e-07 -2.36615e-07)
(-3.04606e-07 2.80305e-08 -8.23456e-09 -3.55215e-07 1.33215e-07 -2.37698e-07)
(-1.613e-06 2.51775e-08 -2.45157e-09 -4.37434e-07 1.31685e-07 -1.9873e-07)
(-1.83494e-06 -1.68664e-08 4.38992e-09 -3.53241e-07 1.21845e-07 -2.8725e-07)
(-2.88713e-07 -2.06947e-08 1.00936e-08 -3.62522e-07 1.20721e-07 -3.29713e-07)
(-2.68986e-07 2.09788e-08 -9.54467e-09 -3.66063e-07 1.21279e-07 -3.31005e-07)
(-1.65158e-06 1.70596e-08 -4.32051e-09 -3.63184e-07 1.23557e-07 -2.91035e-07)
(-1.92174e-06 -2.15256e-09 5.63225e-09 -3.06785e-07 1.08644e-07 -3.69764e-07)
(-2.89344e-07 -1.24117e-08 1.07866e-08 -3.60598e-07 1.0683e-07 -4.12231e-07)
(-2.69052e-07 1.19836e-08 -1.03126e-08 -3.6378e-07 1.07253e-07 -4.13677e-07)
(-1.7326e-06 2.24802e-09 -5.57881e-09 -3.15836e-07 1.09912e-07 -3.73981e-07)
(-2.0989e-06 3.26078e-08 6.08895e-09 -3.66333e-07 8.66013e-08 -4.42974e-07)
(-3.91902e-07 7.40995e-09 1.07811e-08 -3.80655e-07 8.54143e-08 -4.84812e-07)
(-3.7082e-07 -9.03707e-09 -1.03699e-08 -3.83379e-07 8.56962e-08 -4.8635e-07)
(-1.90269e-06 -3.29365e-08 -6.04008e-09 -3.7391e-07 8.74216e-08 -4.47434e-07)
(-2.43114e-06 9.7326e-08 5.28295e-09 -9.43047e-07 5.11613e-08 -4.94309e-07)
(-6.6462e-07 4.14299e-08 9.90081e-09 -7.74276e-07 4.99865e-08 -5.35111e-07)
(-6.42576e-07 -4.54918e-08 -9.5912e-09 -7.71614e-07 5.01372e-08 -5.36687e-07)
(-2.22705e-06 -9.84307e-08 -5.24033e-09 -9.36285e-07 5.15807e-08 -4.98846e-07)
(-3.05667e-06 1.31333e-07 3.89264e-09 -3.11011e-06 2.06633e-08 -5.00602e-07)
(-1.04337e-06 6.15925e-08 9.6032e-09 -2.64977e-06 1.80613e-08 -5.41097e-07)
(-1.01904e-06 -6.05668e-08 -9.47526e-09 -2.60831e-06 1.80997e-08 -5.42683e-07)
(-2.84276e-06 -1.30064e-07 -3.88492e-09 -2.99295e-06 2.07749e-08 -5.05133e-07)
(-1.61279e-06 3.6112e-08 7.46081e-11 8.91453e-08 8.1933e-08 -2.52939e-08)
(-1.80642e-07 -8.81492e-08 3.03638e-09 -2.01384e-07 9.4284e-08 -3.49738e-08)
(-1.65464e-07 8.54294e-08 -2.67868e-09 -2.13156e-07 9.48709e-08 -3.52531e-08)
(-1.443e-06 -3.06344e-08 -2.38427e-11 4.32213e-08 8.38648e-08 -2.6141e-08)
(-1.6945e-06 -2.04304e-08 1.38192e-09 -4.60224e-07 9.59738e-08 -1.02543e-07)
(-3.16286e-07 -4.08532e-08 5.18472e-09 -3.29471e-07 1.01251e-07 -1.21145e-07)
(-2.96423e-07 4.19326e-08 -4.63918e-09 -3.36577e-07 1.01792e-07 -1.21816e-07)
(-1.52038e-06 2.13011e-08 -1.28088e-09 -4.74563e-07 9.77074e-08 -1.04555e-07)
(-1.73663e-06 -2.32198e-08 2.82043e-09 -4.26798e-07 1.00932e-07 -1.93791e-07)
(-3.17379e-07 -2.57019e-08 6.2807e-09 -3.55511e-07 1.01419e-07 -2.1517e-07)
(-2.97963e-07 2.65897e-08 -5.78739e-09 -3.60193e-07 1.01893e-07 -2.16107e-07)
(-1.55976e-06 2.33665e-08 -2.7276e-09 -4.38183e-07 1.02421e-07 -1.96598e-07)
(-1.78325e-06 -1.55736e-08 3.98004e-09 -3.47196e-07 9.57854e-08 -2.84632e-07)
(-2.86972e-07 -1.99217e-08 7.00331e-09 -3.57851e-07 9.44635e-08 -3.06242e-07)
(-2.67582e-07 2.0058e-08 -6.60919e-09 -3.61444e-07 9.48607e-08 -3.07372e-07)
(-1.60202e-06 1.57203e-08 -3.91489e-09 -3.57361e-07 9.70175e-08 -2.88022e-07)
(-1.87349e-06 -1.45847e-09 4.74705e-09 -2.94544e-07 8.237e-08 -3.65963e-07)
(-2.92056e-07 -1.21253e-08 7.39032e-09 -3.48106e-07 8.11035e-08 -3.87029e-07)
(-2.72064e-07 1.16136e-08 -7.07711e-09 -3.51377e-07 8.14155e-08 -3.88304e-07)
(-1.68627e-06 1.53414e-09 -4.7046e-09 -3.03903e-07 8.33206e-08 -3.69782e-07)
(-2.05282e-06 3.23025e-08 4.95385e-09 -3.54028e-07 6.06867e-08 -4.30747e-07)
(-3.96469e-07 6.95808e-09 7.33649e-09 -3.68785e-07 6.02599e-08 -4.5117e-07)
(-3.75641e-07 -8.64648e-09 -7.08901e-09 -3.71598e-07 6.04805e-08 -4.52544e-07)
(-1.8582e-06 -3.2635e-08 -4.92509e-09 -3.619e-07 6.13426e-08 -4.34847e-07)
(-2.38467e-06 9.53798e-08 4.3193e-09 -9.26728e-07 3.23453e-08 -4.69837e-07)
(-6.66991e-07 4.00032e-08 6.75863e-09 -7.6242e-07 3.22462e-08 -4.89866e-07)
(-6.45129e-07 -4.41233e-08 -6.59828e-09 -7.59828e-07 3.23732e-08 -4.91292e-07)
(-2.18168e-06 -9.64795e-08 -4.30587e-09 -9.20173e-07 3.27146e-08 -4.74075e-07)
(-3.00372e-06 1.28443e-07 3.33089e-09 -3.05095e-06 1.21048e-08 -4.75029e-07)
(-1.04121e-06 5.99176e-08 6.5563e-09 -2.60041e-06 1.09044e-08 -4.95777e-07)
(-1.01698e-06 -5.89291e-08 -6.5486e-09 -2.55904e-06 1.09401e-08 -4.97214e-07)
(-2.79026e-06 -1.27171e-07 -3.35903e-09 -2.93402e-06 1.22125e-08 -4.79285e-07)
(-1.58135e-06 3.59192e-08 4.61026e-11 8.29922e-08 5.14554e-08 -3.10978e-08)
(-1.78108e-07 -8.61544e-08 1.527e-09 -2.03071e-07 5.67574e-08 -3.58764e-08)
(-1.63121e-07 8.31841e-08 -1.31431e-09 -2.14659e-07 5.7097e-08 -3.6117e-08)
(-1.4129e-06 -3.06437e-08 -9.96853e-12 3.78461e-08 5.25598e-08 -3.18224e-08)
(-1.66291e-06 -1.9425e-08 7.36495e-10 -4.57381e-07 5.91781e-08 -1.08219e-07)
(-3.13759e-07 -3.97562e-08 2.65018e-09 -3.29691e-07 6.11242e-08 -1.17101e-07)
(-2.94147e-07 4.06094e-08 -2.31396e-09 -3.367e-07 6.14419e-08 -1.17699e-07)
(-1.49018e-06 2.01968e-08 -6.63409e-10 -4.71512e-07 6.01899e-08 -1.09999e-07)
(-1.70696e-06 -2.22373e-08 1.4897e-09 -4.24479e-07 6.26109e-08 -1.94438e-07)
(-3.17673e-07 -2.50427e-08 3.22441e-09 -3.55204e-07 6.24072e-08 -2.04247e-07)
(-2.98482e-07 2.57565e-08 -2.91315e-09 -3.59866e-07 6.26878e-08 -2.051e-07)
(-1.53141e-06 2.23226e-08 -1.41949e-09 -4.35869e-07 6.3495e-08 -1.96988e-07)
(-1.75602e-06 -1.48636e-08 2.08596e-09 -3.44891e-07 5.96542e-08 -2.80544e-07)
(-2.90662e-07 -1.95326e-08 3.57669e-09 -3.5596e-07 5.87465e-08 -2.89956e-07)
(-2.71469e-07 1.95555e-08 -3.32887e-09 -3.5958e-07 5.89846e-08 -2.91001e-07)
(-1.57601e-06 1.49728e-08 -2.03436e-09 -3.55178e-07 6.03981e-08 -2.83677e-07)
(-1.84836e-06 -1.10666e-09 2.46771e-09 -2.92135e-07 5.05027e-08 -3.57292e-07)
(-2.98385e-07 -1.20078e-08 3.74686e-09 -3.45236e-07 4.98183e-08 -3.66021e-07)
(-2.78566e-07 1.14277e-08 -3.55705e-09 -3.48557e-07 5.0009e-08 -3.67211e-07)
(-1.66222e-06 1.16325e-09 -2.43378e-09 -3.01673e-07 5.10898e-08 -3.60869e-07)
(-2.02872e-06 3.2073e-08 2.54574e-09 -3.52377e-07 3.59399e-08 -4.16496e-07)
(-4.03678e-07 6.68508e-09 3.6971e-09 -3.67048e-07 3.58824e-08 -4.24788e-07)
(-3.82995e-07 -8.41878e-09 -3.55593e-09 -3.69914e-07 3.60212e-08 -4.26082e-07)
(-1.83499e-06 -3.24118e-08 -2.5244e-09 -3.60429e-07 3.63588e-08 -4.20386e-07)
(-2.35969e-06 9.42596e-08 2.18297e-09 -9.20537e-07 1.84115e-08 -4.51536e-07)
(-6.72576e-07 3.92474e-08 3.39844e-09 -7.58373e-07 1.86627e-08 -4.59914e-07)
(-6.50819e-07 -4.34049e-08 -3.31685e-09 -7.55825e-07 1.87452e-08 -4.61267e-07)
(-2.15731e-06 -9.53588e-08 -2.1754e-09 -9.14116e-07 1.86582e-08 -4.55602e-07)
(-2.97413e-06 1.26856e-07 1.60078e-09 -3.01685e-06 6.64048e-09 -4.59536e-07)
(-1.0438e-06 5.90455e-08 3.26841e-09 -2.57154e-06 6.22285e-09 -4.68855e-07)
(-1.01963e-06 -5.80803e-08 -3.28852e-09 -2.53021e-06 6.24712e-09 -4.70217e-07)
(-2.7609e-06 -1.25585e-07 -1.62479e-09 -2.90003e-06 6.71566e-09 -4.63632e-07)
(-1.56733e-06 3.58821e-08 -1.77049e-12 8.12082e-08 1.75016e-08 -3.36595e-08)
(-1.77129e-07 -8.52384e-08 4.49448e-10 -2.03079e-07 1.89933e-08 -3.65673e-08)
(-1.6223e-07 8.21544e-08 -3.78791e-10 -2.14576e-07 1.91044e-08 -3.67924e-08)
(-1.39949e-06 -3.06992e-08 1.46402e-11 3.64395e-08 1.78606e-08 -3.43294e-08)
(-1.64886e-06 -1.89825e-08 1.93066e-10 -4.5493e-07 1.99311e-08 -1.11089e-07)
(-3.13003e-07 -3.92768e-08 7.77818e-10 -3.28615e-07 2.04213e-08 -1.16214e-07)
(-2.93506e-07 4.00256e-08 -6.64098e-10 -3.35575e-07 2.05261e-08 -1.16779e-07)
(-1.47677e-06 1.9709e-08 -1.66692e-10 -4.68952e-07 2.02634e-08 -1.12755e-07)
(-1.69382e-06 -2.18131e-08 4.18705e-10 -4.2262e-07 2.10914e-08 -1.94764e-07)
(-3.18327e-07 -2.47684e-08 9.4788e-10 -3.54159e-07 2.09623e-08 -2.00081e-07)
(-2.99239e-07 2.53972e-08 -8.41096e-10 -3.5881e-07 2.10554e-08 -2.00896e-07)
(-1.51888e-06 2.18683e-08 -3.92752e-10 -4.34007e-07 2.13846e-08 -1.97181e-07)
(-1.74402e-06 -1.45625e-08 5.98332e-10 -3.44101e-07 2.01156e-08 -2.77585e-07)
(-2.92905e-07 -1.93814e-08 1.04986e-09 -3.55261e-07 1.98053e-08 -2.823e-07)
(-2.73802e-07 1.93442e-08 -9.64478e-10 -3.58894e-07 1.98847e-08 -2.83305e-07)
(-1.56457e-06 1.46514e-08 -5.7875e-10 -3.54443e-07 2.03644e-08 -2.80588e-07)
(-1.83732e-06 -9.65527e-10 7.11226e-10 -2.92304e-07 1.69356e-08 -3.51152e-07)
(-3.01807e-07 -1.19717e-08 1.09573e-09 -3.45105e-07 1.67262e-08 -3.5521e-07)
(-2.82067e-07 1.1353e-08 -1.03106e-09 -3.48449e-07 1.67904e-08 -3.56362e-07)
(-1.65167e-06 1.01061e-09 -6.98132e-10 -3.01925e-07 1.7134e-08 -3.54611e-07)
(-2.01808e-06 3.19617e-08 7.30898e-10 -3.53076e-07 1.1912e-08 -4.07667e-07)
(-4.07435e-07 6.56472e-09 1.07735e-09 -3.67596e-07 1.19272e-08 -4.11447e-07)
(-3.86817e-07 -8.32374e-09 -1.03044e-09 -3.70488e-07 1.19744e-08 -4.12708e-07)
(-1.82473e-06 -3.23051e-08 -7.22716e-10 -3.61213e-07 1.20557e-08 -4.11457e-07)
(-2.34848e-06 9.37689e-08 6.16307e-10 -9.18562e-07 6.04018e-09 -4.41634e-07)
(-6.7552e-07 3.89384e-08 9.87796e-10 -7.5721e-07 6.17349e-09 -4.45721e-07)
(-6.53809e-07 -4.31153e-08 -9.62082e-10 -7.54683e-07 6.20198e-09 -4.47045e-07)
(-2.14635e-06 -9.48688e-08 -6.13459e-10 -9.12207e-07 6.12636e-09 -4.45619e-07)
(-2.9606e-06 1.26177e-07 4.24136e-10 -3.00134e-06 2.14506e-09 -4.51524e-07)
(-1.04529e-06 5.86889e-08 9.41647e-10 -2.5582e-06 2.05576e-09 -4.56538e-07)
(-1.02114e-06 -5.77354e-08 -9.5161e-10 -2.51689e-06 2.06428e-09 -4.57869e-07)
(-2.74747e-06 -1.24908e-07 -4.32896e-10 -2.88458e-06 2.17179e-09 -4.55545e-07)
)
;

boundaryField
{
    interface
    {
        type            calculated;
        value           nonuniform List<symmTensor> 
192
(
(-4.68165e-06 2.28416e-12 1.76493e-11 1.41618e-06 2.3252e-07 -2.88769e-06)
(-4.3874e-06 2.15355e-12 2.85795e-11 -4.8487e-07 3.25497e-08 -2.94283e-06)
(-4.47906e-06 4.17429e-13 3.25915e-11 -5.93745e-07 8.90278e-10 -3.00778e-06)
(-4.61874e-06 -2.43304e-12 3.37327e-11 -5.51922e-07 9.21239e-09 -3.08828e-06)
(-4.78798e-06 -4.94385e-12 3.34863e-11 -5.72838e-07 3.06906e-08 -3.1965e-06)
(-5.00893e-06 -9.35967e-12 3.26639e-11 -7.6799e-07 7.01467e-08 -3.35181e-06)
(-5.29834e-06 -1.27264e-11 3.01985e-11 -1.57564e-06 1.30563e-07 -3.6e-06)
(-5.84925e-06 -2.8645e-11 2.82971e-11 -4.08171e-06 1.57016e-07 -4.07983e-06)
(-3.88235e-06 1.64759e-12 8.65139e-12 6.01454e-07 1.91458e-08 -5.52811e-07)
(-3.68386e-06 1.65943e-12 1.50063e-11 -3.32042e-07 4.1765e-08 -8.86551e-07)
(-3.73571e-06 1.37656e-13 1.69032e-11 -4.42079e-07 3.61263e-08 -9.47245e-07)
(-3.84088e-06 -2.75381e-12 1.71078e-11 -4.71821e-07 3.95424e-08 -9.63892e-07)
(-3.99256e-06 -5.39633e-12 1.65284e-11 -5.11323e-07 6.83431e-08 -1.00078e-06)
(-4.2174e-06 -1.02555e-11 1.5644e-11 -6.41657e-07 1.1534e-07 -1.09033e-06)
(-4.55636e-06 -1.3978e-11 1.40521e-11 -1.27382e-06 1.52564e-07 -1.2807e-06)
(-5.30184e-06 -3.0673e-11 1.27924e-11 -3.60166e-06 1.31369e-07 -1.57669e-06)
(-3.39112e-06 1.41266e-12 6.78474e-12 2.72306e-07 9.07524e-08 -6.92385e-08)
(-3.30668e-06 1.41442e-12 1.16153e-11 -3.85116e-07 1.12435e-07 -2.49544e-07)
(-3.3654e-06 -6.32431e-14 1.30254e-11 -4.08539e-07 1.03029e-07 -3.43892e-07)
(-3.46446e-06 -3.08568e-12 1.31404e-11 -4.04503e-07 9.66005e-08 -3.88112e-07)
(-3.61542e-06 -5.96304e-12 1.26586e-11 -4.13476e-07 1.09565e-07 -4.36452e-07)
(-3.8517e-06 -1.13451e-11 1.19429e-11 -4.96145e-07 1.28404e-07 -5.23288e-07)
(-4.22179e-06 -1.56002e-11 1.07959e-11 -1.0769e-06 1.20836e-07 -6.55763e-07)
(-5.01817e-06 -3.33936e-11 9.84004e-12 -3.35458e-06 7.33306e-08 -7.67162e-07)
(-3.09773e-06 1.06461e-12 4.11797e-12 1.51865e-07 1.14618e-07 -9.57339e-09)
(-3.05306e-06 9.2546e-13 7.46006e-12 -4.37336e-07 1.38603e-07 -1.13614e-07)
(-3.12058e-06 -5.62517e-13 8.39024e-12 -4.17965e-07 1.35567e-07 -2.16812e-07)
(-3.22152e-06 -3.60757e-12 8.38031e-12 -3.68643e-07 1.26053e-07 -2.9538e-07)
(-3.3753e-06 -6.58549e-12 7.9588e-12 -3.42024e-07 1.214e-07 -3.67817e-07)
(-3.61878e-06 -1.21886e-11 7.39754e-12 -4.06029e-07 1.1214e-07 -4.50326e-07)
(-4.00277e-06 -1.66796e-11 6.67102e-12 -9.83153e-07 8.02568e-08 -5.31098e-07)
(-4.80797e-06 -3.47315e-11 6.10185e-12 -3.20507e-06 3.76764e-08 -5.59152e-07)
(-2.92538e-06 8.96175e-13 2.99945e-12 1.06486e-07 1.05373e-07 -1.57536e-08)
(-2.89145e-06 6.17963e-13 5.43558e-12 -4.57641e-07 1.26037e-07 -9.74056e-08)
(-2.96389e-06 -9.30752e-13 6.11983e-12 -4.2608e-07 1.29563e-07 -1.95549e-07)
(-3.06822e-06 -4.02727e-12 6.11066e-12 -3.53241e-07 1.21845e-07 -2.8725e-07)
(-3.22543e-06 -7.11315e-12 5.79947e-12 -3.06785e-07 1.08644e-07 -3.69764e-07)
(-3.47312e-06 -1.29057e-11 5.38211e-12 -3.66333e-07 8.66013e-08 -4.42974e-07)
(-3.86192e-06 -1.76117e-11 4.87521e-12 -9.43047e-07 5.11613e-08 -4.94309e-07)
(-4.66193e-06 -3.5929e-11 4.46712e-12 -3.11011e-06 2.06633e-08 -5.00602e-07)
(-2.82493e-06 7.65244e-13 1.82047e-12 8.91453e-08 8.1933e-08 -2.52939e-08)
(-2.79413e-06 3.6927e-13 3.41559e-12 -4.60224e-07 9.59738e-08 -1.02543e-07)
(-2.86914e-06 -1.23532e-12 3.86776e-12 -4.26798e-07 1.00932e-07 -1.93791e-07)
(-2.97627e-06 -4.36356e-12 3.85205e-12 -3.47196e-07 9.57854e-08 -2.84632e-07)
(-3.13621e-06 -7.50927e-12 3.6364e-12 -2.94544e-07 8.237e-08 -3.65963e-07)
(-3.38613e-06 -1.33962e-11 3.35469e-12 -3.54028e-07 6.06867e-08 -4.30747e-07)
(-3.77578e-06 -1.82135e-11 3.04272e-12 -9.26728e-07 3.23453e-08 -4.69837e-07)
(-4.5685e-06 -3.66609e-11 2.80271e-12 -3.05095e-06 1.21048e-08 -4.75029e-07)
(-2.76905e-06 7.0089e-13 1.06466e-12 8.29922e-08 5.14554e-08 -3.10978e-08)
(-2.73942e-06 2.24498e-13 1.99568e-12 -4.57381e-07 5.91781e-08 -1.08219e-07)
(-2.81576e-06 -1.42827e-12 2.26181e-12 -4.24479e-07 6.26109e-08 -1.94438e-07)
(-2.92469e-06 -4.58485e-12 2.25362e-12 -3.44891e-07 5.96542e-08 -2.80544e-07)
(-3.08634e-06 -7.77624e-12 2.12904e-12 -2.92135e-07 5.05027e-08 -3.57292e-07)
(-3.3373e-06 -1.37285e-11 1.96268e-12 -3.52377e-07 3.59399e-08 -4.16496e-07)
(-3.72654e-06 -1.86241e-11 1.78636e-12 -9.20537e-07 1.84115e-08 -4.51536e-07)
(-4.51375e-06 -3.717e-11 1.64267e-12 -3.01685e-06 6.64048e-09 -4.59536e-07)
(-2.74397e-06 6.61287e-13 3.13774e-13 8.12082e-08 1.75016e-08 -3.36595e-08)
(-2.71479e-06 1.43417e-13 6.10708e-13 -4.5493e-07 1.99311e-08 -1.11089e-07)
(-2.79172e-06 -1.53108e-12 6.96801e-13 -4.2262e-07 2.10914e-08 -1.94764e-07)
(-2.90149e-06 -4.69645e-12 6.92937e-13 -3.44101e-07 2.01156e-08 -2.77585e-07)
(-3.06394e-06 -7.90612e-12 6.52199e-13 -2.92304e-07 1.69356e-08 -3.51152e-07)
(-3.31529e-06 -1.3882e-11 5.97772e-13 -3.53076e-07 1.1912e-08 -4.07667e-07)
(-3.7041e-06 -1.88134e-11 5.45327e-13 -9.18562e-07 6.04018e-09 -4.41634e-07)
(-4.4885e-06 -3.73997e-11 5.00272e-13 -3.00134e-06 2.14506e-09 -4.51524e-07)
(-2.82722e-06 2.04139e-07 -2.46569e-11 1.41618e-06 -5.92978e-12 -4.79913e-06)
(-2.92361e-06 1.33041e-09 -4.19904e-11 -4.8487e-07 -7.19034e-12 -4.48018e-06)
(-2.99183e-06 -2.98288e-08 -4.91315e-11 -5.93745e-07 -6.16826e-12 -4.57291e-06)
(-3.05191e-06 -2.01852e-08 -5.17882e-11 -5.51922e-07 -4.58111e-12 -4.72213e-06)
(-3.14438e-06 -2.19867e-09 -5.26899e-11 -5.72838e-07 -3.88133e-12 -4.89801e-06)
(-3.30639e-06 3.25748e-08 -5.3423e-11 -7.6799e-07 -4.12439e-12 -5.11627e-06)
(-3.58125e-06 9.46761e-08 -5.44152e-11 -1.57564e-06 -5.02554e-12 -5.39573e-06)
(-4.06813e-06 1.25282e-07 -5.98175e-11 -4.08171e-06 -6.38619e-12 -5.93893e-06)
(-6.30028e-07 -3.83249e-08 -1.45771e-11 8.83584e-07 -3.54125e-12 -4.29018e-06)
(-1.07984e-06 -3.44963e-08 -2.79807e-11 -2.35357e-07 -5.48258e-12 -3.98899e-06)
(-1.13442e-06 -3.18817e-08 -3.30628e-11 -4.35255e-07 -4.88794e-12 -4.012e-06)
(-1.09484e-06 -2.44173e-08 -3.47341e-11 -5.29775e-07 -3.11019e-12 -4.11475e-06)
(-1.09022e-06 -1.23324e-08 -3.53097e-11 -6.16087e-07 -1.90048e-12 -4.26354e-06)
(-1.18943e-06 9.69462e-09 -3.61771e-11 -7.77564e-07 -1.24478e-12 -4.47068e-06)
(-1.45313e-06 4.40673e-08 -3.82547e-11 -1.41467e-06 -1.36291e-12 -4.78227e-06)
(-1.81576e-06 6.04926e-08 -4.53662e-11 -3.733e-06 -1.87458e-12 -5.52568e-06)
(-6.12292e-07 3.38489e-08 -1.44942e-11 8.65677e-07 -2.57787e-12 -4.22014e-06)
(-1.05603e-06 3.61298e-08 -2.81229e-11 -2.40755e-07 -4.44531e-12 -3.92162e-06)
(-1.11076e-06 3.45128e-08 -3.34877e-11 -4.38364e-07 -4.00978e-12 -3.94229e-06)
(-1.07122e-06 2.63822e-08 -3.53068e-11 -5.32308e-07 -2.08631e-12 -4.04303e-06)
(-1.0663e-06 1.33987e-08 -3.58692e-11 -6.18565e-07 -5.34752e-13 -4.19035e-06)
(-1.1653e-06 -1.00789e-08 -3.65472e-11 -7.79661e-07 7.31592e-13 -4.39613e-06)
(-1.42889e-06 -4.70955e-08 -3.82652e-11 -1.41136e-06 1.40603e-12 -4.70651e-06)
(-1.79004e-06 -5.89065e-08 -4.50997e-11 -3.69122e-06 1.49411e-12 -5.45104e-06)
(-2.6375e-06 -1.98055e-07 -1.59097e-11 1.35074e-06 -2.09802e-12 -4.59949e-06)
(-2.72552e-06 1.09938e-10 -3.20042e-11 -4.94013e-07 -3.81378e-12 -4.28958e-06)
(-2.79031e-06 3.07885e-08 -3.87923e-11 -6.00303e-07 -3.36861e-12 -4.37498e-06)
(-2.84663e-06 2.10626e-08 -4.12135e-11 -5.5864e-07 -1.30645e-12 -4.51838e-06)
(-2.93535e-06 2.77213e-09 -4.19384e-11 -5.79455e-07 3.9772e-13 -4.69016e-06)
(-3.09425e-06 -3.2658e-08 -4.27979e-11 -7.73482e-07 1.94744e-12 -4.90485e-06)
(-3.36689e-06 -9.56897e-08 -4.42369e-11 -1.56725e-06 3.0763e-12 -5.1815e-06)
(-3.84882e-06 -1.23975e-07 -5.14136e-11 -3.96613e-06 4.12619e-12 -5.73099e-06)
(-4.33769e-06 4.97746e-12 4.38092e-12 1.35074e-06 2.3355e-07 -2.77926e-06)
(-4.03885e-06 6.4021e-12 8.77357e-12 -4.94013e-07 3.51455e-08 -2.83699e-06)
(-4.12335e-06 4.60604e-12 1.02278e-11 -6.00303e-07 2.68904e-09 -2.89865e-06)
(-4.25539e-06 1.1576e-12 1.09136e-11 -5.5864e-07 1.02293e-08 -2.97637e-06)
(-4.41775e-06 -7.21376e-13 1.14172e-11 -5.79455e-07 3.11871e-08 -3.08249e-06)
(-4.63291e-06 -3.31894e-12 1.29521e-11 -7.73482e-07 7.02397e-08 -3.23598e-06)
(-4.91809e-06 -3.12009e-12 1.42219e-11 -1.56725e-06 1.30188e-07 -3.4827e-06)
(-5.46205e-06 -1.73074e-11 1.80465e-11 -3.96613e-06 1.56514e-07 -3.96527e-06)
(-3.54235e-06 2.00169e-12 -1.96237e-12 5.4539e-07 2.86929e-08 -5.44899e-07)
(-3.34626e-06 2.86736e-12 -1.805e-12 -3.4683e-07 4.74576e-08 -8.76772e-07)
(-3.39228e-06 1.99178e-12 -2.28976e-12 -4.5147e-07 3.98815e-08 -9.38432e-07)
(-3.48963e-06 -3.3435e-14 -2.37851e-12 -4.7946e-07 4.19587e-08 -9.55739e-07)
(-3.63301e-06 -6.06715e-13 -2.00278e-12 -5.18278e-07 6.96683e-08 -9.92841e-07)
(-3.84955e-06 -2.13463e-12 -5.35181e-13 -6.47525e-07 1.15737e-07 -1.08242e-06)
(-4.18142e-06 -4.67183e-13 1.32208e-12 -1.26609e-06 1.52178e-07 -1.27263e-06)
(-4.919e-06 -1.36416e-11 4.22564e-12 -3.48277e-06 1.30967e-07 -1.568e-06)
(-3.06232e-06 1.10787e-12 -1.05592e-12 2.20907e-07 9.68566e-08 -7.08145e-08)
(-2.97914e-06 1.49298e-12 -3.06997e-13 -4.00551e-07 1.17087e-07 -2.51806e-07)
(-3.03188e-06 1.01811e-12 -2.29092e-14 -4.19358e-07 1.06538e-07 -3.47182e-07)
(-3.12286e-06 -2.65877e-13 3.25039e-13 -4.13311e-07 9.91124e-08 -3.92336e-07)
(-3.26457e-06 -5.76462e-14 8.71912e-13 -4.21293e-07 1.11132e-07 -4.41197e-07)
(-3.49053e-06 -9.74051e-13 2.06614e-12 -5.02698e-07 1.29115e-07 -5.28183e-07)
(-3.85053e-06 1.43155e-12 3.32212e-12 -1.06956e-06 1.20901e-07 -6.60508e-07)