/*--------------------------------*- C++ -*----------------------------------*\
| =========                 |                                                 |
| \\      /  F ield         | OpenFOAM: The Open Source CFD Toolbox           |
|  \\    /   O peration     | Version:  v1912                                 |
|   \\  /    A nd           | Website:  www.openfoam.com                      |
|    \\/     M anipulation  |                                                 |
\*---------------------------------------------------------------------------*/
FoamFile
{
    version     2.0;
    format      ascii;
    class       volVectorField;
    location    "0.76/solid";
    object      heatFlux;
}
// * * * * * * * * * * * * * * * * * * * * * * * * * * * * * * * * * * * * * //

dimensions      [1 0 -3 0 0 0 0];


internalField   nonuniform List<vector> 
256
(
(-65117.3 71306.9 -68672)
(-13295.7 41963.6 -67342.9)
(11996.4 41503.9 -66094.6)
(58614.1 68893.2 -64984.3)
(-62162.4 10412.8 -66058.8)
(-16507.3 6705.82 -67620.5)
(14933.2 6641.71 -66321.8)
(55339.7 10136 -62312.1)
(-63296.6 2456.13 -67307.7)
(-17066.7 1509.25 -69206.4)
(15426.5 1488.31 -67854)
(56331.8 2368.06 -63427.8)
(-65141.1 2363.58 -69178.6)
(-17475.1 1397.99 -71223.9)
(15792 1385.06 -69834)
(58030.9 2301.11 -65199.4)
(-67737.6 3973.6 -71777.4)
(-18045.3 2565.39 -74113)
(16329.7 2554.75 -72696.1)
(60491.4 3923.59 -67725.3)
(-71433.2 9177.92 -75496)
(-18894 7306.85 -78518.2)
(17150.2 7276.84 -77076)
(64063.2 9089.43 -71375.1)
(-75226.6 28816 -79439.5)
(-19946.3 28056.4 -83893.5)
(18112.2 27833.1 -82422.8)
(67714.1 28210.4 -75246.5)
(-69968.2 74711.9 -74616.1)
(-19876.9 80790.9 -80714.9)
(17304.1 79371.9 -79309.3)
(62081.4 70692.7 -70644.5)
(-62029.1 38310.1 -18133.2)
(-11961.5 11190.4 -15749)
(11243 11069.7 -15581.7)
(55871.3 36861.5 -17644.4)
(-62228.1 6152.27 -22947.4)
(-15279 2269.24 -20469.8)
(14428.1 2253.1 -20258.1)
(55856 6005.12 -22334.9)
(-63722.7 1439.07 -23726.6)
(-15860.6 452.254 -21251.3)
(14978.8 446.017 -21028.3)
(57215.3 1387.17 -23085.4)
(-65722.7 1384.3 -24211.4)
(-16272.1 374.453 -21731.7)
(15363 368.806 -21503.5)
(59064.1 1336.21 -23559.3)
(-68629.3 2541.76 -24873.9)
(-16876.1 966.987 -22425.5)
(15940.6 960.31 -22194.9)
(61814.3 2493.68 -24221.1)
(-73058.4 7169.29 -25885.6)
(-17853.5 4806.64 -23583.1)
(16889.7 4778.54 -23351.6)
(66083 7073.68 -25240.8)
(-78419.2 27402.1 -27369.3)
(-19266.9 25532.3 -25517.7)
(18207.6 25297.4 -25287)
(71259.6 26749.7 -26740.7)
(-75293.6 79585.4 -28775.3)
(-19958.3 84012.7 -28035.5)
(18107.1 82520.9 -27817.8)
(67724.9 75322.7 -28197.8)
(-55745.8 30226.3 -4570.19)
(-10744.1 5744.84 -2608.92)
(10100.9 5664.16 -2589.27)
(49798.3 28913.9 -4491.22)
(-56520.6 4819.42 -6066.08)
(-13818 1203.51 -3685.46)
(13068.1 1195.08 -3658.29)
(50381.7 4694.98 -5962)
(-57988.7 1192.16 -6283.16)
(-14368.5 247.4 -3850.03)
(13592.4 242.89 -3821.34)
(51714 1143.62 -6175.06)
(-59937.2 1216.23 -6371.95)
(-14767.3 223.798 -3919.84)
(13964.3 218.439 -3890.78)
(53505.8 1165.39 -6264.38)
(-62833.5 2299.37 -6478.67)
(-15366.3 714.008 -4017.53)
(14534 706.643 -3988.74)
(56227.7 2242.09 -6375.85)
(-67358.2 6682.51 -6656.97)
(-16360 4214.64 -4210.96)
(15492.4 4184.76 -4183.17)
(60555.3 6569.84 -6564.79)
(-73145.1 25926.3 -7142.12)
(-17864 23604 -4802.02)
(16889.2 23366.9 -4776.25)
(66102.5 25253.4 -7068.09)
(-71588.4 75720 -9129.94)
(-18919.4 78704.1 -7285.11)
(17141.8 77228.4 -7261.07)
(64092.5 71494 -9073.73)
(-51444 27673.9 -1645.56)
(-9980.53 4895.98 -437.415)
(9360.66 4822.1 -433.193)
(45648.2 26408.2 -1611.71)
(-52230 4439.3 -2124)
(-12871.2 1028.13 -626.078)
(12151.6 1021.03 -620.155)
(46252.6 4321.28 -2080.76)
(-53641.7 1133.2 -2186.06)
(-13398.8 217.875 -653.006)
(12653.8 213.524 -646.832)
(47529.5 1084.78 -2141.71)
(-55550.9 1188.8 -2203.37)
(-13790.9 206.957 -660.977)
(13018.5 201.405 -654.852)
(49278.5 1135.42 -2159.99)
(-58425 2256.73 -2219.85)
(-14386.2 675.868 -671.947)
(13582.3 667.918 -666.095)
(51965.4 2193.28 -2179.67)
(-62949.9 6505.83 -2261.33)
(-15379.7 4022.15 -709.791)
(14535.9 3991.03 -704.582)
(56267.5 6381.44 -2227.82)
(-68837.4 24929.2 -2498.06)
(-16901 22458.1 -959.428)
(15941.6 22219.5 -955.54)
(61872.7 24240.7 -2476.68)
(-68017.8 72117.9 -3893.49)
(-18089.4 74401.6 -2526.25)
(16318.5 72934.7 -2523.74)
(60557.8 67912.5 -3886.21)
(-48834.2 26456.7 -842.429)
(-9531.76 4681.35 -131.482)
(8926.65 4610.81 -129.203)
(43141 25221.4 -820.639)
(-49592.3 4278.93 -1063.49)
(-12314.1 987.918 -182.543)
(11613.4 981.445 -179.35)
(43723.4 4164.98 -1035.66)
(-50972.5 1112.8 -1088.73)
(-12829.2 212.5 -188.802)
(12103.7 208.193 -185.489)
(44969.7 1064.39 -1060.19)
(-52863.1 1182.44 -1093.36)
(-13218.7 204.858 -189.772)
(12465.3 199.176 -186.504)
(46697 1127.43 -1065.54)
(-55725.1 2241.41 -1097.56)
(-13812.5 665.194 -191.422)
(13026.3 656.913 -188.317)
(49362.9 2174.26 -1071.74)
(-60235.5 6404.3 -1118.38)
(-14803.2 3927.16 -205.877)
(13974.4 3895.31 -203.133)
(53634.1 6272.84 -1096.51)
(-66125.7 24294.1 -1265.14)
(-16321.5 21787.6 -341.298)
(15372 21547.8 -339.335)
(59215.7 23595 -1250.61)
(-65618.1 69711.4 -2154.8)
(-17549.6 71691.7 -1277.37)
(15781.8 70227.7 -1276.55)
(58183.1 65510.9 -2150.42)
(-47266.3 25767.9 -477.392)
(-9267.3 4581.96 -64.7083)
(8671.51 4513.55 -63.2959)
(41635.8 24551.9 -464.089)
(-48008.1 4193 -597.727)
(-11987.1 970.81 -88.1915)
(11298.5 964.747 -86.195)
(42205.4 4081.72 -580.59)
(-49372.7 1103.33 -610.332)
(-12495.6 210.646 -90.7563)
(11782.4 206.369 -88.6806)
(43436.6 1054.9 -592.755)
(-51254.5 1179.96 -611.982)
(-12884.1 204.337 -90.9297)
(12142.7 198.577 -88.8813)
(45152.1 1123.87 -594.888)
(-54108.9 2231.71 -614.153)
(-13476.9 659.763 -91.5187)
(12702 651.289 -89.5655)
(47804.3 2162.3 -598.295)
(-58602.6 6338.26 -628.121)
(-14464.5 3872.28 -99.4606)
(13645.3 3840.01 -97.7129)
(52048.5 6202.57 -614.584)
(-64468.5 23892.7 -720.916)
(-15975.2 21386.6 -177.705)
(15032.3 21146.1 -176.403)
(57590.2 23186.8 -711.685)
(-64093.1 68176 -1268.54)
(-17211.2 70021.8 -731.334)
(15445.5 68558.7 -730.78)
(56670.9 63976.1 -1265.74)
(-46367.7 25381.6 -249.86)
(-9117.66 4528.45 -32.8995)
(8527.27 4461.32 -32.1278)
(40772.9 24176.8 -242.76)
(-47101.1 4145.99 -311.755)
(-11802.6 961.87 -44.5813)
(11121 956.06 -43.482)
(41336.3 4036.31 -302.547)
(-48458 1098.54 -317.943)
(-12307.6 209.762 -45.797)
(11601.7 205.507 -44.651)
(42559.7 1050.09 -308.488)
(-50335.4 1178.62 -318.626)
(-12695.6 204.095 -45.843)
(11961.4 198.291 -44.7108)
(44268.7 1121.89 -309.431)
(-53184.7 2225.27 -319.951)
(-13287.9 656.663 -46.1495)
(12519.5 648.081 -45.0679)
(46912.1 2154.56 -311.426)
(-57664.6 6297.53 -328.338)
(-14272.8 3840.97 -50.3843)
(13459.3 3808.48 -49.4101)
(51136.6 6159.45 -321.046)
(-63505.9 23653.7 -380.183)
(-15777 21155.7 -91.8223)
(14838 20914.7 -91.0785)
(56644.8 22943.8 -375.174)
(-63186.6 67258.3 -679.491)
(-17011.8 69043 -387.752)
(15247.4 67580.1 -387.424)
(55770.4 63057.6 -678.014)
(-45955.7 25206.3 -78.0338)
(-9049.57 4504.48 -10.19)
(8461.65 4437.94 -9.94504)
(40377.2 24006.6 -75.8094)
(-46685.6 4124.92 -97.2195)
(-11718.8 957.912 -13.781)
(11040.5 952.224 -13.4304)
(40937.9 4016 -94.323)
(-48039.2 1096.46 -99.1004)
(-12222.3 209.384 -14.1481)
(11519.7 205.14 -13.782)
(42158 1048.01 -96.1225)
(-49914.7 1177.96 -99.2984)
(-12610.1 203.984 -14.1589)
(11879.1 198.16 -13.7971)
(43864.1 1120.93 -96.4026)
(-52761.2 2222 -99.7604)
(-13202.1 655.221 -14.2591)
(12436.7 646.59 -13.9133)
(46502.9 2150.69 -97.0782)
(-57233.6 6278.02 -102.567)
(-14185.5 3826.6 -15.6004)
(13374.6 3794 -15.2884)
(50717.1 6138.83 -100.276)
(-63060.8 23541.6 -119.273)
(-15686.1 21049.3 -28.6268)
(14748.9 20808 -28.3866)
(56207 22829.9 -117.702)
(-62762.2 66826.7 -214.691)
(-16919.1 68587.2 -122.044)
(15155.2 67124.4 -121.936)
(55348.3 62625.6 -214.249)
)
;

boundaryField
{
    interface
    {
        type            calculated;
        value           nonuniform List<vector> 
192
(
(-104052 71306.9 -68672)
(-91820.7 10412.8 -66058.8)
(-92996.8 2456.13 -67307.7)
(-95884.3 2363.58 -69178.6)
(-99947.6 3973.6 -71777.4)
(-105652 9177.92 -75496)
(-111183 28816 -79439.5)
(-101203 74711.9 -74616.1)
(-100243 38310.1 -18133.2)
(-94031.6 6152.27 -22947.4)
(-95864.4 1439.07 -23726.6)
(-99047.2 1384.3 -24211.4)
(-103658 2541.76 -24873.9)
(-110569 7169.29 -25885.6)
(-118512 27402.1 -27369.3)
(-111300 79585.4 -28775.3)
(-90077.6 30226.3 -4570.19)
(-85492.3 4819.42 -6066.08)
(-87331.6 1192.16 -6283.16)
(-90436.1 1216.23 -6371.95)
(-95036.4 2299.37 -6478.67)
(-102107 6682.51 -6656.97)
(-110724 25926.3 -7142.12)
(-105923 75720 -9129.94)
(-82995.6 27673.9 -1645.56)
(-78796.6 4439.3 -2124)
(-80568.6 1133.2 -2186.06)
(-83607.9 1188.8 -2203.37)
(-88171.6 2256.73 -2219.85)
(-95244.1 6505.83 -2261.33)
(-104029 24929.2 -2498.06)
(-100438 72117.9 -3893.49)
(-78670.7 26456.7 -842.429)
(-74631.6 4278.93 -1063.49)
(-76365.2 1112.8 -1088.73)
(-79372.5 1182.44 -1093.36)
(-83915.3 2241.41 -1097.56)
(-90965.1 6404.3 -1118.38)
(-99762.3 24294.1 -1265.14)
(-96717 69711.4 -2154.8)
(-76062.1 25767.9 -477.392)
(-72114.8 4193 -597.727)
(-73830.4 1103.33 -610.332)
(-76822.2 1179.96 -611.982)
(-81351.7 2231.71 -614.153)
(-88374.6 6338.26 -628.121)
(-97138.8 23892.7 -720.916)
(-94343.3 68176 -1268.54)
(-74563 25381.6 -249.86)
(-70668.3 4145.99 -311.755)
(-72375.5 1098.54 -317.943)
(-75359.4 1178.62 -318.626)
(-79879.7 2225.27 -319.951)
(-86880.6 6297.53 -328.338)
(-95609.1 23653.7 -380.183)
(-92928.4 67258.3 -679.491)
(-73874.8 25206.3 -78.0338)
(-70004.2 4124.92 -97.2195)
(-71707.8 1096.46 -99.1004)
(-74688.2 1177.96 -99.2984)
(-79203.8 2222 -99.7604)
(-86192.5 6278.02 -102.567)
(-94900.2 23541.6 -119.273)
(-92265 66826.7 -214.691)
(-65117.3 71306.9 -108001)
(-62162.4 10412.8 -95467.6)
(-63296.6 2456.13 -96751)
(-65141.1 2363.58 -99672.9)
(-67737.6 3973.6 -103732)
(-71433.2 9177.92 -109444)
(-75226.6 28816 -115039)
(-69968.2 74711.9 -104857)
(-13295.7 41963.6 -107710)
(-16507.3 6705.82 -100670)
(-17066.7 1509.25 -102564)
(-17475.1 1397.99 -105763)
(-18045.3 2565.39 -110330)
(-18894 7306.85 -117155)
(-19946.3 28056.4 -124890)
(-19876.9 80790.9 -116500)
(11996.4 41503.9 -105514)
(14933.2 6641.71 -98450)
(15426.5 1488.31 -100256)
(15792 1385.06 -103390)
(16329.7 2554.75 -107908)
(17150.2 7276.84 -114685)
(18112.2 27833.1 -122364)
(17304.1 79371.9 -114080)
(58614.1 68893.2 -101486)
(55339.7 10136 -89043.5)
(56331.8 2368.06 -90111)
(58030.9 2301.11 -92856.4)
(60491.4 3923.59 -96776.3)
(64063.2 9089.43 -102348)
(67714.1 28210.4 -107787)
(62081.4 70692.7 -97965.3)
(92826.4 68893.2 -64984.3)
(80302.6 10136 -62312.1)
(81273.4 2368.06 -63427.8)
(83925.3 2301.11 -65199.4)
(87760.5 3923.59 -67725.3)
(93252.4 9089.43 -71375.1)
(98580.7 28210.4 -75246.5)
(88534.1 70692.7 -70644.5)
(89148.7 36861.5 -17644.4)
(82722.2 6005.12 -22334.9)
(84332.6 1387.17 -23085.4)
(87256.1 1336.21 -23559.3)
(91595.9 2493.68 -24221.1)
(98227.2 7073.68 -25240.8)
(105896 26749.7 -26740.7)
(98606.4 75322.7 -28197.8)
(79320.5 28913.9 -4491.22)
(74540 4694.98 -5962)
(76152.1 1143.62 -6175.06)
(78986.8 1165.39 -6264.38)
(83285.6 2242.09 -6375.85)
(90014.8 6569.84 -6564.79)
(98264.9 25253.4 -7068.09)
(93316.2 71494 -9073.73)
(72506.5 26408.2 -1611.71)
(68123 4321.28 -2080.76)
(69668.5 1084.78 -2141.71)
(72432.1 1135.42 -2159.99)
(76672.4 2193.28 -2179.67)
(83359.5 6381.44 -2227.82)
(91706.1 24240.7 -2476.68)
(87897.4 67912.5 -3886.21)
(68362.8 25221.4 -820.639)
(64144.6 4164.98 -1035.66)
(65653.3 1064.39 -1060.19)
(68379.4 1127.43 -1065.54)
(72583.1 2174.26 -1071.74)
(79219 6272.84 -1096.51)
(87533.7 23595 -1250.61)
(84222.4 65510.9 -2150.42)
(65864.6 24551.9 -464.089)
(61741.1 4081.72 -580.59)
(63232.1 1054.9 -592.755)
(65937.4 1123.87 -594.888)
(70117 2162.3 -598.295)
(76708.2 6202.57 -614.584)
(84963.7 23186.8 -711.685)
(81871.4 63976.1 -1265.74)
(64428.3 24176.8 -242.76)
(60359.2 4036.31 -302.547)
(61841.4 1050.09 -308.488)
(64535 1121.89 -309.431)
(68698.9 2154.56 -311.426)
(75257.6 6159.45 -321.046)
(83462.4 22943.8 -375.174)
(80467.1 63057.6 -678.014)
(63768.5 24006.6 -75.8094)
(59724.2 4016 -94.323)
(61202.7 1048.01 -96.1225)
(63890.9 1120.93 -96.4026)
(68046.9 2150.69 -97.0782)
(74588.6 6138.83 -100.276)
(82765.5 22829.9 -117.702)
(79807.4 62625.6 -214.249)
(-69968.2 105006 -74616.1)
(-75293.6 115288 -28775.3)
(-71588.4 109834 -9129.94)
(-68017.8 104329 -3893.49)
(-65618.1 100608 -2154.8)
(-64093.1 98224.5 -1268.54)
(-63186.6 96796.8 -679.491)
(-62762.2 96124.5 -214.691)
(-19876.9 116628 -80714.9)
(-19958.3 125104 -28035.5)
(-18919.4 117490 -7285.11)
(-18089.4 110848 -2526.25)
(-17549.6 106598 -1277.37)
(-17211.2 103961 -731.334)
(-17011.8 102408 -387.752)
(-16919.1 101683 -122.044)
(17304.1 114187 -79309.3)
(18107.1 122542 -27817.8)
(17141.8 114962 -7261.07)
(16318.5 108339 -2523.74)
(15781.8 104097 -1276.55)
(15445.5 101462 -730.78)
(15247.4 99910.2 -387.424)
(15155.2 99185.9 -121.936)
(62081.4 98047.3 -70644.5)
(67724.9 107925 -28197.8)
(64092.5 102564 -9073.73)
(60557.8 97116.2 -3886.21)
(58183.1 93417.1 -2150.42)
(56670.9 91042.9 -1265.74)
(55770.4 89618.6 -678.014)
(55348.3 88947.5 -214.249)
)
;
    }
    symmetry
    {
        type            symmetry;
    }
    bottom
    {
        type            calculated;
        value           nonuniform List<vector> 
32
(
(-65117.3 124779 -68672)
(-62029.1 66091.9 -18133.2)
(-55745.8 52245.9 -4570.19)
(-51444 47811.1 -1645.56)
(-48834.2 45663.7 -842.429)
(-47266.3 44441.4 -477.392)
(-46367.7 43754.1 -249.86)
(-45955.7 43442 -78.0338)
(-13295.7 72413.9 -67342.9)
(-11961.5 18461.9 -15749)
(-10744.1 9417.97 -2608.92)
(-9980.53 8026.24 -437.415)
(-9531.76 7668.31 -131.482)
(-9267.3 7500.31 -64.7083)
(-9117.66 7409.48 -32.8995)
(-9049.57 7368.71 -10.19)
(11996.4 71596 -66094.6)
(11243 18246.1 -15581.7)
(10100.9 9269.44 -2589.27)
(9360.66 7889.02 -433.193)
(8926.65 7536.66 -129.203)
(8671.51 7372.21 -63.2959)
(8527.27 7283.48 -32.1278)
(8461.65 7243.7 -9.94504)
(58614.1 120399 -64984.3)
(55871.3 63433.8 -17644.4)
(49798.3 49821.7 -4491.22)
(45648.2 45468.9 -1611.71)
(43141 43374.9 -820.639)
(41635.8 42186.3 -464.089)
(40772.9 41518.5 -242.76)
(40377.2 41215.3 -75.8094)
)
;
    }
}


// ************************************************************************* //
