/*--------------------------------*- C++ -*----------------------------------*\
| =========                 |                                                 |
| \\      /  F ield         | OpenFOAM: The Open Source CFD Toolbox           |
|  \\    /   O peration     | Version:  v1912                                 |
|   \\  /    A nd           | Website:  www.openfoam.com                      |
|    \\/     M anipulation  |                                                 |
\*---------------------------------------------------------------------------*/
FoamFile
{
    version     2.0;
    format      ascii;
    class       volScalarField;
    location    "0.76/solid";
    object      sigmaHyd;
}
// * * * * * * * * * * * * * * * * * * * * * * * * * * * * * * * * * * * * * //

dimensions      [1 -1 -2 0 0 0 0];


internalField   nonuniform List<scalar> 
256
(
-716454
-382885
-376512
-677672
-1.05855e+06
-647647
-638278
-1.00942e+06
-1.09889e+06
-692654
-682766
-1.04821e+06
-1.11535e+06
-709790
-699658
-1.06361e+06
-1.15229e+06
-737847
-727528
-1.09955e+06
-1.2377e+06
-805153
-794616
-1.18395e+06
-1.45948e+06
-999601
-988034
-1.40281e+06
-2.03828e+06
-1.54649e+06
-1.52833e+06
-1.96337e+06
-373903
-120486
-119518
-350733
-597570
-268670
-265578
-566558
-631855
-310712
-307224
-599720
-645911
-328428
-324787
-612970
-671834
-347858
-344115
-638059
-735268
-392689
-388814
-700550
-922854
-542761
-537936
-885189
-1.46027e+06
-999816
-988118
-1.40304e+06
-292824
-73692.1
-73194.4
-271480
-446847
-159791
-157613
-418898
-471820
-191348
-188830
-442884
-484265
-206869
-204199
-454508
-506889
-223220
-220437
-476205
-563026
-260394
-257453
-531194
-735575
-392326
-388390
-700453
-1.23872e+06
-804890
-794106
-1.18386e+06
-271856
-69209.9
-68708.8
-250954
-401585
-136228
-134156
-374512
-421463
-161340
-158955
-393481
-432672
-174615
-172078
-403856
-454023
-189372
-186712
-424207
-507313
-223565
-220724
-476201
-671997
-347231
-343360
-637347
-1.15227e+06
-736154
-725446
-1.09772e+06
-263280
-69314.4
-68800.6
-242633
-384675
-130110
-128072
-358093
-402299
-151920
-149587
-374861
-412572
-163491
-161009
-384300
-433048
-177029
-174418
-403736
-484701
-209562
-206758
-454005
-644749
-329001
-325146
-610364
-1.11123e+06
-705706
-695005
-1.05681e+06
-258156
-69500
-68978.9
-237653
-376211
-127817
-125803
-349917
-392869
-148010
-145711
-365756
-402512
-158511
-156066
-374567
-422333
-171198
-168624
-393326
-472933
-202737
-199964
-442491
-630206
-319879
-316042
-595988
-1.08828e+06
-689566
-678872
-1.03393e+06
-254910
-69509.3
-68982.9
-234479
-371418
-126759
-124758
-345282
-387646
-146187
-143908
-360712
-396909
-156096
-153675
-369145
-416299
-168274
-165722
-387461
-466266
-199252
-196498
-435967
-621961
-315144
-311319
-587837
-1.07508e+06
-680700
-670010
-1.02076e+06
-253297
-69462.5
-68933
-232896
-369146
-126305
-124310
-343079
-385200
-145428
-143158
-358344
-394285
-155078
-152667
-366601
-413463
-167020
-164480
-384701
-463137
-197746
-195002
-432901
-618112
-313075
-309256
-584030
-1.06891e+06
-676670
-665982
-1.0146e+06
)
;

boundaryField
{
    interface
    {
        type            zeroGradient;
    }
    symmetry
    {
        type            symmetry;
    }
    bottom
    {
        type            zeroGradient;
    }
}


// ************************************************************************* //
