/*--------------------------------*- C++ -*----------------------------------*\
| =========                 |                                                 |
| \\      /  F ield         | OpenFOAM: The Open Source CFD Toolbox           |
|  \\    /   O peration     | Version:  v1912                                 |
|   \\  /    A nd           | Website:  www.openfoam.com                      |
|    \\/     M anipulation  |                                                 |
\*---------------------------------------------------------------------------*/
FoamFile
{
    version     2.0;
    format      ascii;
    class       volSymmTensorField;
    location    "0.76/solid";
    object      sigma;
}
// * * * * * * * * * * * * * * * * * * * * * * * * * * * * * * * * * * * * * //

dimensions      [1 -1 -2 0 0 0 0];


internalField   nonuniform List<symmTensor> 
256
(
(-151097 31406.1 -11583.6 501734 35772.3 -160399)
(90585.5 -5896.14 -4923.2 323449 35416.7 -204928)
(92614.6 5207.53 4660.6 319994 35449.1 -199718)
(-122430 -30470 11416.4 491145 35930.8 -144240)
(-179824 204.678 -17794.5 195367 5007.65 -182781)
(-17996.6 -5307.13 -8180.06 111924 6633.24 -247356)
(-14228.2 5558.42 7921.23 111198 6772.04 -241437)
(-148305 16.9135 17583.1 195003 5407.01 -165455)
(-180865 -4589.05 -19214.1 188070 136.966 -183319)
(-33822.8 -4904.88 -9011.37 73740.7 420.139 -257182)
(-30052.1 5309.65 8818.16 73393 513.646 -251086)
(-149067 4736.7 19014.7 187857 413.699 -165735)
(-177484 -3105.42 -19977.9 207130 1417.29 -183079)
(-25593.9 -3756.5 -9412.59 61338.7 963.075 -262408)
(-21852.4 4058.8 9251.41 61057.7 1012.31 -256189)
(-145251 3240.4 19789.4 206747 1573.74 -165212)
(-182210 -338.256 -20785.8 213411 4721.63 -190229)
(-23361.1 -1897.29 -9859.4 49582.5 4058.33 -274215)
(-19574.8 2061.34 9703.83 49307.6 4080.65 -267882)
(-149395 426.482 20604 213050 4798.01 -172033)
(-201997 5011.51 -21482.5 188527 10791.8 -208984)
(-42032.2 1491.48 -10279.4 21331.8 10386.7 -299646)
(-38196.8 -1550.6 10116.4 21132 10388.8 -293187)
(-168573 -5024.31 21307 188468 10806.1 -190378)
(-232648 14565.6 -21248.2 75908.9 20086.6 -235532)
(-77736.3 6779.59 -10205.2 -71818.8 20986.3 -335687)
(-73787.1 -7245.46 10026.1 -71089.6 20962.2 -329028)
(-198498 -14721.5 21078.1 78369.8 20029 -216315)
(-153036 19274.2 -19220.2 -155126 24156.3 -154836)
(49786.3 9306.56 -9263.18 -245173 26326.7 -244742)
(53561.6 -9062.54 9058.93 -238927 26293.2 -238538)
(-118998 -19073.1 19047.7 -137046 24079.1 -136913)
(-198406 18861.5 -8983.59 246750 2945.5 69170.5)
(-33164.3 -9175 -2910.61 56800.5 17181.3 -38933.6)
(-31200.5 9138.44 3222.1 53888.5 17692.7 -39127.1)
(-170183 -17706.3 9091.14 237552 4414.29 69815.6)
(-233150 -2042.14 -13909.1 79893.3 6425.39 -5415.81)
(-135105 -5900.7 -5844.29 -41766.7 13914.7 -136023)
(-131205 6293.56 6297.56 -42459.8 14213.2 -134959)
(-201887 2274.71 14042.2 79484.2 7301.17 -2045.28)
(-240065 -4816.66 -14643.3 61431.1 5557.89 -16286.7)
(-160416 -4789.96 -6385.9 -91163.7 7913.65 -164202)
(-156421 5077.91 6921.09 -91143.1 8105.21 -163012)
(-208359 4891.93 14793.1 61941.2 6135.61 -12976)
(-241860 -3272.96 -14878.7 60898.8 6083.44 -14804.4)
(-162074 -3649.36 -6439.16 -122371 6391.85 -173804)
(-158069 3792.34 7033.18 -122109 6512.75 -172621)
(-209628 3336.18 15048 61627.6 6455.18 -11646.1)
(-251151 -605.764 -15293.5 57707.9 10514.3 -17592.5)
(-168179 -1939.13 -6674.97 -145340 10168.4 -185616)
(-164113 1971.53 7293.04 -145033 10234.6 -184443)
(-218236 645.865 15477.4 58526.2 10718.2 -14483.6)
(-277081 4950.85 -15652.6 36451.8 17744.7 -32575.2)
(-195440 1414.07 -6966.41 -172279 17261.1 -210787)
(-191313 -1565.02 7578.99 -171926 17281.7 -209619)
(-243416 -4987.68 15846.4 37481.1 17805.7 -29425.4)
(-317040 15478.9 -15425.9 -54150.3 23471.4 -55209.5)
(-238886 7008.91 -6949.39 -241978 23411.7 -242482)
(-234646 -7536.1 7535.2 -240768 23391.3 -241246)
(-282512 -15645.6 15625.8 -50770.4 23412 -51775.3)
(-232970 21280.5 -14481.1 -235802 20210.6 75732.3)
(-77622 10228.1 -6685.07 -336008 21088.9 -71338.7)
(-73638.1 -10024 7252.85 -329260 21064.2 -70567.5)
(-198566 -21090.3 14688.4 -216306 20148.7 78274.1)
(-177727 10297.4 -3710.56 165706 13961.9 113161)
(-34587.4 -12906.9 -474.209 -6535 27635 -3367.09)
(-32612.3 12816.1 638.958 -9130.16 27940.3 -4038.86)
(-150250 -9206.02 3742.79 157424 14901 112543)
(-195069 -3301.48 -5571.98 60515.6 17297.7 81372.8)
(-100118 -6652.81 -1528.73 -59463.2 24268.5 -65515.9)
(-96372.2 7044.82 1759.93 -60233.8 24503.2 -65222.2)
(-164857 3530.54 5626.55 59832.5 18013.3 82716.3)
(-199389 -4628.24 -5516.68 57526.2 15850.7 67471.9)
(-118442 -4650.61 -1598.01 -90765.6 18089.8 -97987.1)
(-114613 4912.48 1844.62 -90876.3 18268.1 -97566.7)
(-168739 4690.94 5579.16 57631.7 16390.4 68735.6)
(-201410 -3195.3 -5283.73 61432.2 14861.6 63953.9)
(-119986 -3569.35 -1412.97 -114278 15192.5 -113513)
(-116142 3660.44 1677.01 -114124 15320.6 -113104)
(-170206 3238.35 5354.24 61807 15248.1 65033.9)
(-210635 -660.161 -5219.65 62893.2 16856.2 59358.5)
(-126106 -2032.38 -1374.52 -131475 16601.1 -128445)
(-122183 2005.25 1648.52 -131252 16682.2 -128060)
(-178668 682.779 5297.81 63400.3 17097.2 60338.1)
(-236261 5013.98 -5188.46 50290.3 19754.4 46114.5)
(-152305 1318.71 -1441.99 -149476 19325.4 -153018)
(-148293 -1527.13 1710.82 -149196 19364.3 -152647)
(-203382 -5061.5 5272.87 51016.6 19863.9 47095.8)
(-277182 15708.6 -5111.62 -30429.5 18590.2 34360.5)
(-194632 7012.32 -1529.37 -209034 18079.2 -173580)
(-190465 -7592.89 1777.8 -207887 18085.2 -173145)
(-243196 -15880.7 5201.14 -27335.5 18600.1 35595.2)
(-202323 21515.3 -5122.2 -209098 11281.6 188968)
(-40944.5 10291.7 -1575.35 -299677 10860.2 22635.9)
(-37035.3 -10111.2 1801.23 -293070 10856.2 22530.4)
(-168327 -21324.6 5217.35 -190051 11271.1 189131)
(-162223 6798.03 -976.879 133976 17633.5 109139)
(-30128.4 -14128.3 630.393 -23933.1 25956.9 -3076.02)
(-28177.6 13885.9 -522.99 -26358.6 26150.5 -3671.12)
(-135348 -5817.52 986.519 126288 18266.8 108740)
(-170925 -3555.16 -1242.98 47724.4 21323.5 97527.8)
(-78388.9 -6781.22 745.937 -66755.1 25509.4 -46832.9)
(-74727.4 7088.17 -597.525 -67460.5 25677.6 -46542.1)
(-141454 3750.13 1263.51 47152.9 21854.5 98839.8)
(-173365 -4217.69 -901.758 53717.6 20856.4 84664.3)
(-91659.5 -4392.49 943.802 -87141.2 22109 -77616.4)
(-87913.5 4615.68 -806.171 -87253.2 22249.7 -77200.2)
(-143463 4269.31 923.054 53770.8 21288.4 85887.2)
(-175417 -2890.56 -550.272 65100.7 19392.8 76371.8)
(-92564.5 -3370.93 1181.64 -100802 19420.3 -97431.3)
(-88796.4 3437.89 -1053.02 -100672 19530.7 -97013.1)
(-144943 2926.85 571.079 65369.6 19726.4 77438.9)
(-184693 -499.641 -328.48 72579.7 18677 68611.5)
(-98604.3 -1983.28 1312.33 -110870 18374.1 -115520)
(-94746.3 1931.96 -1187.74 -110668 18452 -115119)
(-153394 517.041 350.485 72980.7 18908 69585.1)
(-209983 5046.37 -220.539 64092.8 17252.3 57278)
(-124024 1229.21 1313.46 -124645 16923.2 -138288)
(-120053 -1465.44 -1195.73 -124374 16969.7 -137898)
(-177652 -5096.56 244.871 64734 17384.6 58244)
(-250404 15383.6 -302.08 -14315 12347.2 55231.9)
(-164852 6701.96 1162.72 -182939 11927.4 -149116)
(-160694 -7311.7 -1061.93 -181787 11947.8 -148669)
(-216776 -15555.1 328.476 -11278.2 12399.9 56416.4)
(-181239 20870.4 -535.863 -189807 5796.37 217257)
(-18780.2 9879.17 1095.15 -273678 5180.28 52094.4)
(-14871.4 -9712.56 -1022.5 -267123 5184.15 51963.5)
(-147457 -20676.6 561.226 -170968 5806.96 217251)
(-153859 5768.44 -134.51 119510 16211.2 100704)
(-28951.7 -13984.7 709.887 -29899.2 20361.8 -5311.38)
(-27033.7 13633.6 -631.202 -32220.6 20496.1 -5834.99)
(-127392 -4871.99 142.639 112246 16656.9 100527)
(-159987 -3376.71 64.3212 39299.8 19390.3 94720.6)
(-71228 -6548.03 1132.03 -70388.1 21374.7 -41392.1)
(-67637.5 6772.23 -1018.03 -71035 21495.9 -41046.6)
(-131007 3536.16 -47.9333 38874.4 19778.8 96183)
(-161861 -3837.05 391.906 48305.8 19932.8 83772.2)
(-82458.7 -4135.97 1368.34 -86474.3 20389.9 -68953)
(-78782.1 4312.38 -1266.86 -86568.1 20494.6 -68488.6)
(-132456 3873.46 -377.164 48400.7 20259.3 85124.4)
(-164086 -2594.84 675.373 63867.8 18745.4 74020.3)
(-83184.4 -3183.79 1552.86 -94539.7 18572.4 -89492.1)
(-79479.5 3227.5 -1468.41 -94414.4 18658.3 -89020.9)
(-134091 2624.55 -664.694 64124.1 19008.7 75224)
(-173523 -331.163 866.5 74931.7 16714.5 65242.5)
(-89326.6 -1909.49 1659.48 -100289 16435.4 -108232)
(-85523.9 1843.63 -1586.56 -100097 16500.4 -107774)
(-142661 345.849 -858.279 75303.1 16909.6 66357.8)
(-198596 5016.58 936.762 67953.1 13323.3 56162.2)
(-114325 1139.99 1658.64 -112594 13140.7 -128618)
(-110396 -1390.32 -1595.37 -112328 13184 -128170)
(-166623 -5067.15 -929.244 68573.2 13449.5 57261.9)
(-238346 14973.2 812.761 -9408.91 7870.97 59627.6)
(-154094 6373.84 1523.2 -170964 7690.23 -134170)
(-149956 -6998.73 -1475.57 -169808 7713.42 -133666)
(-204959 -15143.2 -806.205 -6379.37 7935.5 60918.9)
(-172343 20205.1 598.868 -180565 3178.97 220898)
(-13344.7 9475.77 1477.42 -260483 2778.65 63927.6)
(-9444.96 -9317.97 -1457.73 -253948 2784.58 63840.7)
(-138699 -20009.8 -597.681 -161806 3196.14 220936)
(-149086 5555.69 11.4782 112750 12605.1 95144.1)
(-29029.5 -13561.4 467.136 -32220.6 14505.2 -6619.03)
(-27134.4 13143 -412.105 -34471.6 14595.5 -7101.88)
(-122863 -4712.98 -3.66811 105785 12902.3 95114.3)
(-154706 -3143.14 212.603 35182.4 14765.2 90210.2)
(-69475.9 -6285.11 797.649 -71504.4 15577 -39454.2)
(-65935.3 6451.18 -713.721 -72112.8 15660.3 -39072.6)
(-126022 3277.09 -197.059 34873.7 15031.9 91798.1)
(-156576 -3572.27 433.912 44936.4 15528 80783.6)
(-80148.8 -3954.14 966.261 -86015.3 15603 -64424.4)
(-76522.1 4090.72 -890.368 -86096 15675.8 -63928.8)
(-127471 3594.85 -419.63 45079.1 15757 82246)
(-158985 -2395.93 612.315 61945.8 14736.2 71571)
(-80949.7 -3064.87 1077.43 -91854.1 14532.9 -83914.2)
(-77290.9 3085.85 -1016.8 -91731.1 14594 -83412.4)
(-129274 2418.51 -602.291 62211.9 14925.8 72879.4)
(-168531 -224.379 730.315 74383.9 12672.3 63396.3)
(-87198 -1865.43 1136.97 -95821 12477.5 -101809)
(-83436.4 1786.72 -1088.79 -95638.4 12525.5 -101319)
(-137924 236.021 -723.785 74747.8 12818.6 64612.6)
(-193418 4969.62 762.132 67934.8 9336.42 56131.8)
(-111919 1070.47 1128.69 -107660 9270.76 -120335)
(-108023 -1330.23 -1090.62 -107401 9304.7 -119855)
(-161653 -5020.76 -757.706 68547.2 9437.33 57324.5)
(-232629 14673.8 664.508 -8330.54 4976.2 61960.4)
(-151006 6154.34 1039.79 -165688 4960.96 -123756)
(-146889 -6788.21 -1015.12 -164535 4980.5 -123222)
(-199382 -14843 -662.442 -5303.32 5033.02 63327.1)
(-168402 19760.4 512.444 -175670 1862.28 220626)
(-13480.4 9218.1 1008.66 -253357 1677.6 70432.7)
(-9591.76 -9066.01 -1007.48 -246831 1683.09 70372.7)
(-134831 -19564.8 -516.774 -156948 1878.84 220703)
(-146298 5526.03 7.09271 109755 7916.21 92203)
(-29213.9 -13254.5 234.923 -33054.4 8731.91 -7332.08)
(-27331.2 12797.5 -202.201 -35260.1 8784.15 -7792.09)
(-120210 -4714.42 -1.53362 102982 8086.13 92263.3)
(-151891 -2988.46 113.307 33574.9 9104.33 87292)
(-69124.7 -6116.35 407.72 -71575.8 9403.72 -38869.6)
(-65612.9 6247.6 -355.994 -72159.5 9452.59 -38467)
(-123371 3107.2 -102.063 33346.8 9259.98 88964.3)
(-153866 -3421.13 229.185 43438.1 9632.44 78829)
(-79723.4 -3852.73 496.063 -85497.4 9601.11 -62273.3)
(-76125.7 3962.54 -448.177 -85569.4 9644.28 -61759.3)
(-124927 3434.24 -218.383 43618.4 9768.47 80369.4)
(-156400 -2286.71 320.917 60696.5 9177.57 70596)
(-80637.8 -3005.02 550.26 -90683.7 9037.93 -80529.3)
(-77006 3008.54 -512.134 -90561.6 9074.55 -80010.9)
(-126845 2303.51 -312.978 60976 9292.02 71976.1)
(-165992 -170.255 379.647 73427.8 7769.65 63403.6)
(-86944.2 -1847.35 576.44 -94152 7664.35 -97349.8)
(-83206.7 1758.11 -547.238 -93974.5 7693.69 -96844.3)
(-135523 178.962 -374.428 73792.5 7859.97 64685.4)
(-190739 4934.31 391.653 67159.9 5529.22 57295.5)
(-111485 1028.47 568.784 -105850 5520.37 -114733)
(-107609 -1295.2 -547.067 -105596 5541.72 -114238)
(-159084 -4986.43 -388.37 67770.8 5593.67 58546.7)
(-229602 14501.5 335.842 -8192.92 2832.54 63961)
(-150167 6038.06 522.837 -163367 2871.18 -117450)
(-146062 -6677.67 -510.285 -162217 2883.88 -116900)
(-196426 -14670.6 -334.677 -5165.46 2870.49 65375.1)
(-166333 19516.3 246.273 -172905 1021.61 220527)
(-14383.8 9083.92 502.832 -249420 957.361 74070)
(-10501.6 -8935.43 -505.926 -242899 961.095 74023.9)
(-132794 -19320.8 -249.968 -154199 1033.18 220632)
(-144974 5520.33 -0.272384 108647 2692.56 90974.9)
(-29285.6 -13113.6 69.1459 -33277.9 2922.05 -7660.71)
(-27408.2 12639.1 -58.2756 -35461.4 2939.14 -8110.1)
(-118946 -4722.95 2.25235 101966 2747.79 91078.2)
(-150588 -2920.39 29.7024 33093.6 3066.33 85992.2)
(-69038.9 -6042.58 119.664 -71440.7 3141.74 -38763.7)
(-65540.1 6157.79 -102.169 -72012.1 3157.86 -38351.2)
(-122142 3032.15 -25.6449 32907.1 3117.44 87706.7)
(-152629 -3355.86 64.4162 42940 3244.83 77994.7)
(-79651.9 -3810.52 145.828 -85164.4 3224.97 -61460.2)
(-76067.2 3907.26 -129.399 -85231.9 3239.29 -60937.4)
(-123762 3364.35 -60.4233 43140.9 3289.94 79575.7)
(-155221 -2240.39 92.0511 60152.3 3094.7 70385.5)
(-80631.6 -2981.76 161.517 -90224.8 3046.98 -79000.1)
(-77011.8 2976.03 -148.381 -90102.9 3059.19 -78473.9)
(-125733 2254.06 -89.0384 60440.4 3132.99 71802.8)
(-164825 -148.543 109.419 72870.6 2605.48 63816.9)
(-86959.4 -1841.81 168.574 -93620.5 2573.27 -95175.1)
(-83232.6 1746.62 -158.624 -93445.3 2583.13 -94662.7)
(-134416 155.478 -107.405 73237.3 2636 65131.7)
(-189499 4917.18 112.446 66654.9 1832.62 58256.3)
(-111411 1009.96 165.746 -105282 1834.95 -112028)
(-107543 -1280.57 -158.529 -105031 1842.21 -111526)
(-157891 -4970.01 -111.187 67266 1854.72 59536.3)
(-228194 14426 94.8165 -8206.4 929.259 65167.2)
(-149904 5990.53 151.969 -162471 949.768 -114550)
(-145804 -6633.12 -148.013 -161323 954.151 -113994)
(-195047 -14595.2 -94.3783 -5178.16 942.517 66604.6)
(-165345 19411.8 65.2517 -171612 330.009 220667)
(-14872.7 9029.07 144.869 -247628 316.271 75703.8)
(-10993.1 -8882.37 -146.401 -241108 317.581 75663.7)
(-131818 -19216.6 -66.5994 -152912 334.121 220786)
)
;

boundaryField
{
    interface
    {
        type            calculated;
        value           nonuniform List<symmTensor> 
192
(
(-40.6151 0.351409 2.71527 938088 35772.3 275954)
(-42.3208 0.331315 4.39684 600347 5007.65 222199)
(-43.9462 0.0642198 5.01407 597697 136.966 226307)
(-45.0036 -0.374314 5.18965 625619 1417.29 235410)
(-45.3508 -0.760593 5.15174 648438 4721.63 244798)
(-46.29 -1.43995 5.02522 652406 10791.8 254895)
(-44.7414 -1.95791 4.64593 572680 20086.6 261239)
(-48.341 -4.40693 4.3534 271881 24156.3 272171)
(-39.5862 0.253476 1.33098 689776 2945.5 512197)
(-40.3573 0.255297 2.30867 515625 6425.39 430316)
(-41.3419 0.0211779 2.6005 506671 5557.89 428954)
(-42.0518 -0.423664 2.63196 518275 6083.44 442572)
(-42.1332 -0.830205 2.54284 535532 10514.3 460232)
(-42.9519 -1.57777 2.40677 550072 17744.7 481045)
(-41.1159 -2.15047 2.16186 504965 23471.4 503906)
(-44.8029 -4.71892 1.96805 261522 20210.6 573056)
(-42.1358 0.217332 1.04381 563562 13961.9 511017)
(-42.8112 0.217603 1.78697 449428 17297.7 470285)
(-43.7804 -0.00972971 2.00391 454858 15850.7 464804)
(-44.5033 -0.47472 2.0216 470718 14861.6 473239)
(-44.5075 -0.91739 1.94748 492562 16856.2 489027)
(-45.2466 -1.7454 1.83738 516194 19754.4 512018)
(-42.9708 -2.40002 1.66091 483786 18590.2 548576)
(-46.4175 -5.13748 1.51385 255890 11281.6 653955)
(-42.3567 0.163787 0.633534 499895 17633.5 475058)
(-42.8486 0.142378 1.1477 402376 21323.5 452180)
(-43.6143 -0.0865411 1.29081 415743 20856.4 446690)
(-44.2189 -0.555011 1.28928 438860 19392.8 450131)
(-44.1015 -1.01315 1.22443 466613 18677 462645)
(-44.7601 -1.87517 1.13808 494224 17252.3 487409)
(-42.3251 -2.5661 1.02631 464515 12347.2 534062)
(-45.6973 -5.3433 0.938746 246553 5796.37 653618)
(-43.135 0.137873 0.461454 466398 16211.2 447592)
(-43.5737 0.0950712 0.836243 374388 19390.3 429809)
(-44.2481 -0.143193 0.941512 390389 19932.8 425855)
(-44.8005 -0.61958 0.940102 417645 18745.4 427797)
(-44.6058 -1.09433 0.892225 448977 16714.5 439288)
(-45.1886 -1.98549 0.828017 477922 13323.3 466131)
(-42.5826 -2.70949 0.750032 449015 7870.97 518051)
(-45.8091 -5.52754 0.687249 238695 3178.97 640158)
(-43.3457 0.11773 0.280072 448276 12605.1 430670)
(-43.7364 0.0568108 0.525476 359019 14765.2 414047)
(-44.3314 -0.190049 0.59504 375701 15528 411549)
(-44.8325 -0.671317 0.592623 404428 14736.2 414053)
(-44.5803 -1.15527 0.559447 437134 12672.3 426147)
(-45.1155 -2.06096 0.516107 466433 9336.42 454630)
(-42.428 -2.80207 0.46811 438274 4976.2 508565)
(-45.5958 -5.64014 0.431187 233423 1862.28 629719)
(-43.6023 0.107829 0.163793 438732 7916.21 421180)
(-43.9761 0.0345381 0.307028 351039 9104.33 404756)
(-44.5294 -0.219734 0.347971 367846 9632.44 403236)
(-45.0021 -0.705362 0.346711 396847 9177.57 406746)
(-44.7138 -1.19634 0.327545 429833 7769.65 419809)
(-45.2136 -2.11208 0.30195 459174 5529.22 449309)
(-42.4626 -2.86525 0.274824 431651 2832.54 503805)
(-45.5763 -5.71846 0.252719 230248 1021.61 623680)
(-43.6666 0.101736 0.048273 434598 2692.56 416927)
(-44.0283 0.0220642 0.093955 347627 3066.33 400526)
(-44.5585 -0.23555 0.1072 364433 3244.83 399487)
(-45.0153 -0.722531 0.106606 393400 3094.7 403633)
(-44.7111 -1.21633 0.100338 426361 2605.48 417308)
(-45.1941 -2.1357 0.0919649 455680 1832.62 447281)
(-42.4237 -2.89437 0.0838964 428502 929.259 501875)
(-45.5099 -5.7538 0.0769649 228748 330.009 621027)
(303356 31406.1 -3.79337 956187 -0.912274 -14.5564)
(239462 204.678 -6.46006 614653 -1.10621 -10.4595)
(243236 -4589.05 -7.5587 612172 -0.948962 -6.49722)
(256951 -3105.42 -7.96741 641565 -0.704787 -4.86382)
(269785 -338.256 -8.10613 665407 -0.597127 -4.46971)
(278438 5011.51 -8.21893 668962 -0.634522 -5.10197)
(279144 14565.6 -8.37157 587701 -0.77316 -6.95769)
(287806 19274.2 -9.20269 285717 -0.982492 -8.51742)
(563081 -5896.14 -2.24264 795945 -0.544808 -18.4909)
(447543 -5307.13 -4.30472 577464 -0.843474 -17.5794)
(442689 -4904.88 -5.08659 550253 -0.751991 -16.2263)
(464586 -3756.5 -5.34371 551518 -0.478491 -15.7442)
(488188 -1897.29 -5.43226 561132 -0.292382 -15.6112)
(504791 1491.48 -5.56571 568155 -0.191505 -15.8702)
(512160 6779.59 -5.88534 518077 -0.209679 -16.4742)
(570741 9306.56 -6.97941 275781 -0.288396 -16.8231)
(555038 5207.53 -2.22988 782418 -0.396595 -15.6747)
(440846 5558.42 -4.3266 566272 -0.683894 -14.9846)
(435606 5309.65 -5.15195 539052 -0.616889 -13.7166)
(457187 4058.8 -5.43181 540097 -0.320971 -13.2232)
(480610 2061.34 -5.51834 549493 -0.0822695 -13.11)
(497038 -1550.6 -5.62265 556367 0.112553 -13.3616)
(504235 -7245.46 -5.88696 506932 0.216312 -14.0342)
(563215 -9062.54 -6.93841 270726 0.229862 -14.8261)
(301829 -30470 -2.44765 915404 -0.322772 -15.9703)
(240610 16.9135 -4.92372 583918 -0.586735 -15.5719)
(243781 4736.7 -5.96804 580705 -0.518247 -14.4686)
(257179 3240.4 -6.34054 609176 -0.200993 -14.0933)
(269958 426.482 -6.45206 632402 0.0611876 -14.0822)
(278540 -5024.31 -6.58429 635581 0.299606 -14.3186)
(279156 -14721.5 -6.80568 556024 0.473277 -14.8166)
(289548 -19073.1 -7.90978 271501 0.634798 -15.4513)
(-7.86457 0.765764 0.673988 875135 35930.8 239750)
(-5.22142 0.984939 1.34978 545355 5407.01 184897)
(-2.51962 0.708621 1.57351 542004 413.699 188412)
(-1.14209 0.178092 1.67902 568730 1573.74 196771)
(-0.659976 -0.110981 1.75649 590506 4798.01 205423)
(0.771359 -0.510605 1.99263 593758 10806.1 214912)
(0.2253 -0.480014 2.18798 515514 20029 220829)
(8.75333 -2.66268 2.77638 230151 24079.1 230283)
(-12.0139 0.307953 -0.301904 628871 4414.29 461134)
(-11.4947 0.441132 -0.277692 461439 7301.17 379909)
(-10.6608 0.306427 -0.35227 452421 6135.61 377504)
(-10.0689 -0.00514384 -0.365925 463093 6455.18 389819)
(-9.87122 -0.0933407 -0.308119 479180 10718.2 406170)
(-8.34662 -0.328404 -0.0823355 492610 17805.7 425704)
(-8.39983 -0.0718743 0.203397 448504 23412 447499)
(0.262418 -2.09871 0.650098 220960 20148.7 515540)
(-12.2945 0.170441 -0.162449 505099 14901 460219)
(-11.9233 0.229689 -0.0472303 396694 18013.3 419578)
(-11.2779 0.156633 -0.00352449 401915 16390.4 413019)
(-10.648 -0.0409042 0.050006 416844 15248.1 420071)
(-10.3604 -0.00886864 0.13414 437417 17097.2 434354)
(-8.47738 -0.149854 0.317868 459658 19863.9 455737)
(-8.21424 0.220238 0.511096 427834 18600.1 490765)
(1.01417 -1.8985 0.764769 215362 11271.1 594544)
(-13.6453 0.0775088 -0.183627 443241 18266.8 425692)
(-13.4956 0.0836386 -0.0821545 351067 21854.5 402754)
(-13.1629 0.0531128 -0.0205291 364065 21288.4 396182)
(-12.6082 -0.0503545 0.0384751 386169 19726.4 398238)
(-12.2889 0.0831564 0.110449 412546 18908 409150)
(-10.1603 0.028457 0.24321 438579 17384.6 432089)
(-9.56578 0.474012 0.371177 409143 12399.9 476838)
(-0.0446122 -1.65611 0.523972 206147 5806.96 594366)
(-13.9318 0.0616804 -0.0663065 410990 16656.9 399271)
(-13.7763 0.0497997 0.0584462 324103 19778.8 381411)
(-13.4748 0.0389533 0.143775 339638 20259.3 376362)
(-12.8713 -0.0214595 0.206692 365798 19008.7 376898)
(-12.4754 0.162002 0.264281 395664 16909.6 386718)
(-10.1879 0.144556 0.347511 422904 13449.5 411593)
(-9.45967 0.610133 0.411466 394077 7935.5 461375)
(0.213584 -1.56903 0.480305 198431 3196.14 581172)
(-14.3607 0.0562784 -0.0446872 393666 12902.3 382995)
(-14.211 0.0391096 0.0501492 309381 15031.9 366305)
(-13.9324 0.0414258 0.119659 325532 15757 362699)
(-13.3002 0.00739283 0.167064 353100 14925.8 363767)
(-12.8553 0.222516 0.206791 384270 12818.6 374135)
(-10.4616 0.228518 0.258325 411780 9437.33 400558)
(-9.63222 0.702464 0.293981 383583 5033.02 452214)
(0.153779 -1.50342 0.33036 193235 1878.84 570886)
(-14.4818 0.0593779 -0.0100054 384595 8086.13 373877)
(-14.3164 0.0426282 0.0535697 301783 9259.98 357400)
(-14.0262 0.0517555 0.0994456 318015 9768.47 354766)
(-13.3622 0.0290464 0.12906 345814 9292.02 356814)
(-12.8835 0.25847 0.152164 377221 7859.97 368114)
(-10.4311 0.27346 0.178912 404722 5593.67 395498)
(-9.56003 0.748361 0.19508 377093 2870.49 447633)
(0.286393 -1.47933 0.209143 190096 1033.18 564926)
(-14.5879 0.0599693 -0.00698926 380681 2747.79 369794)
(-14.4203 0.0440447 0.0130579 298548 3117.44 353347)
(-14.127 0.0568836 0.0282746 314757 3289.94 351192)
(-13.45 0.0397547 0.0380251 342502 3132.99 353864)
(-12.9538 0.276012 0.0457707 373863 2636 365758)
(-10.4729 0.295752 0.0544785 401317 1854.72 393587)
(-9.57308 0.77119 0.060232 374000 942.517 445783)
(0.30034 -1.46557 0.0647874 188608 334.121 562306)
(288464 9.29252 -19220.2 -7.94956 -0.840751 286665)
(279829 8.49597 -14481.1 -6.10648 -0.628263 588532)
(279554 8.40241 -5122.2 -3.64768 -0.430191 670844)
(272710 8.38337 -535.863 -2.13588 -0.282342 671206)
(264355 8.43933 598.868 -0.961245 -0.200785 657596)
(257686 8.47499 512.444 -0.139086 -0.124392 646715)
(253472 8.50887 246.273 0.382655 -0.0743617 640332)
(251505 8.5234 65.2517 0.633112 -0.0226182 637517)
(571380 7.03583 -9263.18 -16.3678 -0.117172 276852)
(513175 5.94544 -6685.07 -15.8851 -0.030095 519459)
(507087 5.63534 -1575.35 -14.9144 0.0623596 570668)
(494391 5.51781 1095.15 -14.222 0.0825639 565265)
(478994 5.49105 1477.42 -13.625 0.0769125 556266)
(466384 5.47442 1008.66 -13.1923 0.0616016 550297)
(458248 5.47367 502.832 -12.908 0.0376632 546702)
(454403 5.47211 144.869 -12.7596 0.0137998 544980)
(563763 6.99323 9058.93 -14.3978 0.418106 271663)
(505118 5.93088 7252.85 -13.4693 0.416632 508189)
(499138 5.66761 1801.23 -12.4365 0.390916 558704)
(486531 5.58346 -1022.5 -11.7538 0.319564 553366)
(471158 5.57421 -1457.73 -11.1468 0.251727 544444)
(458552 5.56777 -1007.48 -10.7452 0.17693 538516)
(450416 5.57189 -505.926 -10.4676 0.105588 534941)
(446570 5.57184 -146.401 -10.3404 0.0348293 533227)
(289898 7.93139 19047.7 -15.0724 0.826407 271983)
(279577 6.81343 14688.4 -14.3405 0.678406 556417)
(279418 6.58685 5217.35 -13.5821 0.575802 636876)
(272653 6.48055 561.226 -13.0502 0.452811 637361)
(264274 6.47259 -597.681 -12.5286 0.352584 623908)
(257581 6.46175 -516.774 -12.2069 0.243793 613115)
(253352 6.46659 -249.968 -11.9703 0.146459 606778)
(251380 6.46652 -66.5994 -11.8635 0.0477982 603984)
)
;
    }
    symmetry
    {
        type            symmetry;
    }
    bottom
    {
        type            calculated;
        value           nonuniform List<symmTensor> 
32
(
(-727710 89979 -11583.6 196127 85962.4 -737012)
(-514651 59053.7 -8983.59 59611.3 -5450.91 -247074)
(-431860 38356.1 -3710.56 8113.34 4776.36 -140972)
(-394380 29553.5 -976.879 -9298.7 12454.7 -123018)
(-375295 26442.4 -134.51 -16644.7 13555.9 -120733)
(-364637 25339.2 11.4782 -19858.3 11283.5 -120408)
(-358609 24880.5 7.09271 -21019 7311.85 -120108)
(-355823 24689.8 -0.272384 -21317.6 2519.15 -119874)
(-249719 -3421.42 -4923.2 132855 78553.5 -545232)
(-125971 -9580.63 -2910.61 -5898.63 10999.5 -131740)
(-83200.1 -15637.9 -474.209 -41481.7 21607.4 -51979.9)
(-68817.1 -17654.6 630.393 -47321.4 22782.5 -41764.7)
(-64565.2 -17609.2 709.887 -49094.7 18724.4 -40924.8)
(-63585.7 -17127.2 467.136 -50349.1 13665.1 -41175.2)
(-63375.3 -16768.4 234.923 -51018.8 8342.44 -41493.5)
(-63302.9 -16603.7 69.1459 -51245.7 2810.57 -41678)
(-243815 1454.41 4660.6 131627 78223.2 -536148)
(-123190 8361.08 3222.1 -8703.36 11614.5 -131117)
(-80682.2 14352.8 638.958 -44048 21981.5 -52108.8)
(-66376.5 16231 -522.99 -49747.6 23010.4 -41870.1)
(-62184.8 16099.4 -631.202 -51434.4 18877.9 -40986.1)
(-61243.5 15569.5 -412.105 -52624.5 13767.1 -41211)
(-61054 15185.4 -202.201 -53251 8401.13 -41514.9)
(-60990.8 15009.9 -58.2756 -53456.6 2829.74 -41692.7)
(-677851 -88060.6 11416.4 198493 85239.6 -699660)
(-474097 -56831.7 9091.14 57033 -3688.63 -234099)
(-392999 -36284 3742.79 6190.61 5907.95 -130206)
(-356455 -27670.2 986.519 -10720.1 13191.8 -112367)
(-337994 -24687.5 142.639 -17699.2 14062.4 -110074)
(-327708 -23661 -3.66811 -20632 11617.5 -109730)
(-321886 -23244.9 -1.53362 -21607.3 7501.82 -109412)
(-319193 -23073.4 2.25235 -21815 2580.78 -109168)
)
;
    }
}


// ************************************************************************* //
