/*--------------------------------*- C++ -*----------------------------------*\
| =========                 |                                                 |
| \\      /  F ield         | OpenFOAM: The Open Source CFD Toolbox           |
|  \\    /   O peration     | Version:  v1912                                 |
|   \\  /    A nd           | Website:  www.openfoam.com                      |
|    \\/     M anipulation  |                                                 |
\*---------------------------------------------------------------------------*/
FoamFile
{
    version     2.0;
    format      ascii;
    class       volVectorField;
    location    "0.78/solid";
    object      D_0;
}
// * * * * * * * * * * * * * * * * * * * * * * * * * * * * * * * * * * * * * //

dimensions      [0 1 0 0 0 0 0];


internalField   nonuniform List<vector> 
256
(
(2.81979e-08 3.99493e-08 3.09059e-08)
(3.7128e-09 2.33546e-08 2.81487e-08)
(-3.58605e-09 2.29909e-08 2.80336e-08)
(-2.71654e-08 3.84414e-08 3.06306e-08)
(4.6276e-08 3.12859e-08 5.99205e-08)
(9.48117e-09 2.10948e-08 5.6249e-08)
(-8.25868e-09 2.05549e-08 5.61464e-08)
(-4.38359e-08 2.94964e-08 5.96886e-08)
(4.89277e-08 1.55039e-08 7.60808e-08)
(1.09796e-08 1.14333e-08 7.21068e-08)
(-8.4068e-09 1.08092e-08 7.20584e-08)
(-4.51444e-08 1.35739e-08 7.59944e-08)
(4.84171e-08 1.22733e-09 8.87165e-08)
(1.09518e-08 -9.80008e-10 8.42965e-08)
(-6.94369e-09 -1.66354e-09 8.42879e-08)
(-4.32005e-08 -8.53943e-10 8.87404e-08)
(4.92633e-08 -1.25081e-08 1.0123e-07)
(1.13949e-08 -1.54555e-08 9.62829e-08)
(-5.8843e-09 -1.61948e-08 9.62971e-08)
(-4.25284e-08 -1.4741e-08 1.01319e-07)
(5.38717e-08 -2.7896e-08 1.15427e-07)
(1.33877e-08 -3.22755e-08 1.09996e-07)
(-6.31896e-09 -3.30718e-08 1.1002e-07)
(-4.55674e-08 -3.02761e-08 1.15545e-07)
(6.46283e-08 -5.15572e-08 1.32457e-07)
(1.75554e-08 -5.49728e-08 1.27054e-07)
(-8.92164e-09 -5.58049e-08 1.27076e-07)
(-5.47517e-08 -5.40302e-08 1.32573e-07)
(7.98334e-08 -1.07581e-07 1.49469e-07)
(2.20986e-08 -1.03849e-07 1.45153e-07)
(-1.2039e-08 -1.04464e-07 1.45159e-07)
(-6.84523e-08 -1.09494e-07 1.49547e-07)
(1.95753e-08 1.80907e-08 6.34779e-09)
(1.92118e-09 4.47717e-09 7.73198e-09)
(-1.77446e-09 4.23603e-09 7.79051e-09)
(-1.85535e-08 1.69139e-08 6.51541e-09)
(3.24485e-08 1.20652e-08 2.45149e-08)
(6.0001e-09 3.54434e-09 2.72152e-08)
(-4.78517e-09 3.05836e-09 2.73243e-08)
(-3.00971e-08 1.04284e-08 2.48298e-08)
(3.39969e-08 1.2486e-09 3.9714e-08)
(7.07395e-09 -2.26571e-09 4.28474e-08)
(-4.56552e-09 -2.87804e-09 4.30013e-08)
(-3.03826e-08 -6.38049e-10 4.01572e-08)
(3.3175e-08 -1.03773e-08 5.2042e-08)
(6.98361e-09 -1.24015e-08 5.52055e-08)
(-3.09357e-09 -1.30862e-08 5.53965e-08)
(-2.81871e-08 -1.24523e-08 5.259e-08)
(3.37473e-08 -2.27224e-08 6.35247e-08)
(7.38313e-09 -2.56061e-08 6.65688e-08)
(-2.03064e-09 -2.63492e-08 6.67841e-08)
(-2.7277e-08 -2.49606e-08 6.41407e-08)
(3.81523e-08 -3.63749e-08 7.53786e-08)
(9.33643e-09 -4.07962e-08 7.82729e-08)
(-2.45044e-09 -4.15973e-08 7.85001e-08)
(-3.01262e-08 -3.87673e-08 7.6027e-08)
(4.91241e-08 -5.53542e-08 8.69192e-08)
(1.35442e-08 -5.87324e-08 8.97544e-08)
(-5.1016e-09 -5.95741e-08 8.99828e-08)
(-3.95199e-08 -5.78536e-08 8.75691e-08)
(6.52641e-08 -1.00814e-07 9.34323e-08)
(1.81787e-08 -9.60154e-08 9.63128e-08)
(-8.29973e-09 -9.66509e-08 9.65371e-08)
(-5.41353e-08 -1.02776e-07 9.40684e-08)
(1.36362e-08 1.12737e-08 3.0554e-09)
(3.50214e-10 -8.35977e-11 4.92507e-09)
(-2.47145e-10 -2.90342e-10 4.97274e-09)
(-1.26859e-08 1.02109e-08 3.19174e-09)
(2.25935e-08 2.2684e-09 1.519e-08)
(2.81766e-09 -4.76177e-09 1.87252e-08)
(-1.72672e-09 -5.2092e-09 1.8824e-08)
(-2.04003e-08 7.49659e-10 1.54752e-08)
(2.34016e-08 -8.27383e-09 2.82448e-08)
(3.47791e-09 -1.12647e-08 3.23081e-08)
(-1.15638e-09 -1.18513e-08 3.24413e-08)
(-2.00112e-08 -1.00808e-08 2.86315e-08)
(2.25153e-08 -1.84962e-08 4.00144e-08)
(3.34552e-09 -2.04186e-08 4.41809e-08)
(3.0907e-10 -2.10897e-08 4.43414e-08)
(-1.78011e-08 -2.05263e-08 4.04805e-08)
(2.30503e-08 -2.88454e-08 5.06436e-08)
(3.72673e-09 -3.1761e-08 5.47834e-08)
(1.35459e-09 -3.24983e-08 5.49634e-08)
(-1.6886e-08 -3.10636e-08 5.11653e-08)
(2.74854e-08 -3.95348e-08 6.02892e-08)
(5.66507e-09 -4.40343e-08 6.43632e-08)
(9.26588e-10 -4.48354e-08 6.45544e-08)
(-1.97795e-08 -4.19267e-08 6.08412e-08)
(3.86695e-08 -5.40959e-08 6.76716e-08)
(9.90548e-09 -5.7543e-08 7.16689e-08)
(-1.76863e-09 -5.83902e-08 7.18638e-08)
(-2.93834e-08 -5.6611e-08 6.82318e-08)
(5.50487e-08 -9.39977e-08 6.97312e-08)
(1.45881e-08 -8.91946e-08 7.36845e-08)
(-5.01572e-09 -8.98387e-08 7.38798e-08)
(-4.42252e-08 -9.5981e-08 7.02893e-08)
(1.09547e-08 9.12357e-09 2.8147e-09)
(-3.14206e-10 -9.199e-10 4.01843e-09)
(3.81488e-10 -1.11715e-09 4.04997e-09)
(-1.00717e-08 8.11042e-09 2.90855e-09)
(1.80325e-08 -1.66612e-09 1.18495e-08)
(1.34996e-09 -7.80169e-09 1.41424e-08)
(-3.74096e-10 -8.22821e-09 1.42151e-08)
(-1.599e-08 -3.11268e-09 1.20649e-08)
(1.85887e-08 -1.306e-08 2.22543e-08)
(1.81329e-09 -1.57368e-08 2.48833e-08)
(3.29847e-10 -1.63018e-08 2.49834e-08)
(-1.54077e-08 -1.47995e-08 2.25514e-08)
(1.78641e-08 -2.2904e-08 3.23194e-08)
(1.71329e-09 -2.47934e-08 3.49894e-08)
(1.71708e-09 -2.54481e-08 3.51099e-08)
(-1.34027e-08 -2.48843e-08 3.26772e-08)
(1.85734e-08 -3.18134e-08 4.13308e-08)
(2.14493e-09 -3.47811e-08 4.39564e-08)
(2.68006e-09 -3.55085e-08 4.40919e-08)
(-1.26912e-08 -3.40017e-08 4.17326e-08)
(2.31511e-08 -4.03188e-08 4.8765e-08)
(4.10852e-09 -4.48903e-08 5.13318e-08)
(2.20576e-09 -4.56871e-08 5.14769e-08)
(-1.57428e-08 -4.26984e-08 4.91938e-08)
(3.43794e-08 -5.24887e-08 5.35772e-08)
(8.33277e-09 -5.60924e-08 5.60984e-08)
(-4.85966e-10 -5.69393e-08 5.62481e-08)
(-2.5394e-08 -5.50039e-08 5.40175e-08)
(5.05995e-08 -9.00237e-08 5.44271e-08)
(1.29831e-08 -8.56975e-08 5.69903e-08)
(-3.70741e-09 -8.63431e-08 5.7141e-08)
(-4.0072e-08 -9.20101e-08 5.48684e-08)
(9.94376e-09 8.25535e-09 2.55699e-09)
(-4.74104e-10 -1.12841e-09 3.16222e-09)
(5.18334e-10 -1.32022e-09 3.18349e-09)
(-9.10839e-09 7.27552e-09 2.6214e-09)
(1.63665e-08 -3.0871e-09 9.41955e-09)
(9.3675e-10 -8.79108e-09 1.0565e-08)
(-4.3854e-11 -9.20451e-09 1.06167e-08)
(-1.44379e-08 -4.48459e-09 9.57429e-09)
(1.69474e-08 -1.49475e-08 1.72402e-08)
(1.36268e-09 -1.74953e-08 1.85346e-08)
(6.44043e-10 -1.80447e-08 1.86073e-08)
(-1.393e-08 -1.66367e-08 1.74582e-08)
(1.64412e-08 -2.47263e-08 2.50145e-08)
(1.32545e-09 -2.66332e-08 2.62967e-08)
(1.92797e-09 -2.72742e-08 2.63847e-08)
(-1.21811e-08 -2.66644e-08 2.5279e-08)
(1.73581e-08 -3.29132e-08 3.19559e-08)
(1.82256e-09 -3.59321e-08 3.31838e-08)
(2.7968e-09 -3.66495e-08 3.32832e-08)
(-1.17036e-08 -3.50718e-08 3.22547e-08)
(2.20537e-08 -4.03492e-08 3.74045e-08)
(3.81123e-09 -4.49686e-08 3.85874e-08)
(2.27814e-09 -4.57594e-08 3.86946e-08)
(-1.48888e-08 -4.27115e-08 3.7726e-08)
(3.32202e-08 -5.15689e-08 4.06798e-08)
(7.99332e-09 -5.5297e-08 4.18525e-08)
(-3.84114e-10 -5.61407e-08 4.19639e-08)
(-2.44847e-08 -5.40761e-08 4.10127e-08)
(4.92071e-08 -8.80172e-08 4.13023e-08)
(1.25893e-08 -8.41172e-08 4.25462e-08)
(-3.55957e-09 -8.47615e-08 4.26584e-08)
(-3.89306e-08 -8.99996e-08 4.16368e-08)
(9.56941e-09 7.84582e-09 2.0122e-09)
(-4.75558e-10 -1.22066e-09 2.28592e-09)
(5.05457e-10 -1.40842e-09 2.29993e-09)
(-8.76443e-09 6.88937e-09 2.05451e-09)
(1.58274e-08 -3.54796e-09 6.90745e-09)
(8.94772e-10 -9.06963e-09 7.41149e-09)
(-5.69067e-11 -9.47392e-09 7.44622e-09)
(-1.39747e-08 -4.91076e-09 7.0112e-09)
(1.65161e-08 -1.54807e-08 1.23349e-08)
(1.34352e-09 -1.79975e-08 1.28855e-08)
(5.68527e-10 -1.8536e-08 1.2935e-08)
(-1.36123e-08 -1.71338e-08 1.24833e-08)
(1.61894e-08 -2.52147e-08 1.77438e-08)
(1.36215e-09 -2.71569e-08 1.82652e-08)
(1.76439e-09 -2.77877e-08 1.83256e-08)
(-1.20729e-08 -2.71209e-08 1.79256e-08)
(1.72603e-08 -3.31321e-08 2.25616e-08)
(1.90753e-09 -3.61899e-08 2.30391e-08)
(2.56118e-09 -3.68993e-08 2.31077e-08)
(-1.17713e-08 -3.52662e-08 2.27684e-08)
(2.20212e-08 -4.02108e-08 2.62742e-08)
(3.90822e-09 -4.48528e-08 2.67257e-08)
(2.01396e-09 -4.56379e-08 2.68e-08)
(-1.50361e-08 -4.25568e-08 2.64982e-08)
(3.3105e-08 -5.11585e-08 2.84764e-08)
(8.04906e-09 -5.49478e-08 2.89361e-08)
(-6.18416e-10 -5.57878e-08 2.90137e-08)
(-2.4557e-08 -5.36557e-08 2.87098e-08)
(4.88998e-08 -8.705e-08 2.90037e-08)
(1.2598e-08 -8.33995e-08 2.95224e-08)
(-3.75475e-09 -8.40415e-08 2.96005e-08)
(-3.88145e-08 -8.90258e-08 2.92387e-08)
(9.41366e-09 7.65401e-09 1.27321e-09)
(-4.55406e-10 -1.26014e-09 1.38829e-09)
(4.77004e-10 -1.44521e-09 1.39633e-09)
(-8.62639e-09 6.71218e-09 1.29728e-09)
(1.56411e-08 -3.66189e-09 4.21797e-09)
(9.21575e-10 -9.11142e-09 4.42165e-09)
(-1.16835e-10 -9.50971e-09 4.44172e-09)
(-1.38338e-08 -5.00224e-09 4.27755e-09)
(1.64202e-08 -1.55233e-08 7.41008e-09)
(1.39716e-09 -1.80427e-08 7.62231e-09)
(4.56134e-10 -1.85741e-08 7.65114e-09)
(-1.35862e-08 -1.71528e-08 7.49605e-09)
(1.62078e-08 -2.52051e-08 1.05737e-08)
(1.45173e-09 -2.71771e-08 1.07628e-08)
(1.59405e-09 -2.78012e-08 1.07982e-08)
(-1.21818e-08 -2.70899e-08 1.06799e-08)
(1.73687e-08 -3.30521e-08 1.33849e-08)
(2.02418e-09 -3.61335e-08 1.35481e-08)
(2.34678e-09 -3.68373e-08 1.35885e-08)
(-1.1986e-08 -3.51691e-08 1.35064e-08)
(2.21587e-08 -4.00742e-08 1.55432e-08)
(4.02804e-09 -4.47227e-08 1.56947e-08)
(1.78417e-09 -4.55036e-08 1.57386e-08)
(-1.52907e-08 -4.24078e-08 1.56755e-08)
(3.31793e-08 -5.09911e-08 1.68346e-08)
(8.14015e-09 -5.47997e-08 1.69968e-08)
(-8.28067e-10 -5.56368e-08 1.70427e-08)
(-2.4755e-08 -5.348e-08 1.6973e-08)
(4.88473e-08 -8.65988e-08 1.71975e-08)
(1.26569e-08 -8.30639e-08 1.7395e-08)
(-3.93844e-09 -8.37038e-08 1.74412e-08)
(-3.88895e-08 -8.85686e-08 1.7337e-08)
(9.35003e-09 7.57872e-09 4.34472e-10)
(-4.44552e-10 -1.27191e-09 4.6635e-10)
(4.62358e-10 -1.45565e-09 4.68972e-10)
(-8.5709e-09 6.64388e-09 4.42289e-10)
(1.55712e-08 -3.67382e-09 1.41771e-09)
(9.38718e-10 -9.0978e-09 1.47255e-09)
(-1.49464e-10 -9.49311e-09 1.47912e-09)
(-1.37851e-08 -5.00316e-09 1.43713e-09)
(1.63954e-08 -1.54717e-08 2.47098e-09)
(1.42831e-09 -1.79971e-08 2.52614e-09)
(3.97035e-10 -1.8525e-08 2.53561e-09)
(-1.35945e-08 -1.70894e-08 2.49912e-09)
(1.62361e-08 -2.51197e-08 3.51015e-09)
(1.49936e-09 -2.71074e-08 3.55703e-09)
(1.50738e-09 -2.77282e-08 3.56869e-09)
(-1.22535e-08 -2.69938e-08 3.54506e-09)
(1.74366e-08 -3.29575e-08 4.43227e-09)
(2.08321e-09 -3.60495e-08 4.47081e-09)
(2.2399e-09 -3.67504e-08 4.48414e-09)
(-1.21057e-08 -3.50657e-08 4.47234e-09)
(2.2237e-08 -3.99949e-08 5.14048e-09)
(4.08721e-09 -4.46438e-08 5.1759e-09)
(1.67066e-09 -4.54225e-08 5.19042e-09)
(-1.54265e-08 -4.2322e-08 5.18422e-09)
(3.32254e-08 -5.09301e-08 5.5678e-09)
(8.18517e-09 -5.47418e-08 5.60766e-09)
(-9.32071e-10 -5.55772e-08 5.62287e-09)
(-2.48623e-08 -5.34144e-08 5.61368e-09)
(4.88313e-08 -8.6419e-08 5.69705e-09)
(1.26858e-08 -8.2926e-08 5.74842e-09)
(-4.02975e-09 -8.35646e-08 5.76372e-09)
(-3.89371e-08 -8.83854e-08 5.74331e-09)
)
;

boundaryField
{
    interface
    {
        type            solidTraction;
        traction        uniform (0 0 0);
        pressure        uniform 0;
        secondOrder     false;
        setEffectiveTraction false;
        relaxationFactor 1;
        value           nonuniform List<vector> 
192
(
(8.67619e-08 5.85677e-08 2.84902e-08)
(1.01164e-07 3.64682e-08 5.59216e-08)
(1.04964e-07 1.60391e-08 7.17643e-08)
(1.06204e-07 1.31129e-09 8.43705e-08)
(1.09166e-07 -1.11443e-08 9.688e-08)
(1.16533e-07 -2.40545e-08 1.1109e-07)
(1.30906e-07 -4.50665e-08 1.28188e-07)
(1.53006e-07 -1.03133e-07 1.4533e-07)
(6.81226e-08 3.10966e-08 2.70714e-09)
(7.85209e-08 1.56705e-08 1.85939e-08)
(8.07186e-08 1.43021e-09 3.3332e-08)
(8.1212e-08 -1.04397e-08 4.55661e-08)
(8.36793e-08 -2.14779e-08 5.6971e-08)
(9.08908e-08 -3.25304e-08 6.87816e-08)
(1.06103e-07 -4.85759e-08 8.04292e-08)
(1.31586e-07 -9.62316e-08 8.72358e-08)
(5.60291e-08 2.0331e-08 9.00078e-10)
(6.39403e-08 4.70971e-09 1.15857e-08)
(6.54844e-08 -8.29339e-09 2.43924e-08)
(6.58372e-08 -1.85839e-08 3.61863e-08)
(6.82592e-08 -2.76027e-08 4.68498e-08)
(7.56463e-08 -3.56298e-08 5.65385e-08)
(9.14638e-08 -4.72047e-08 6.39852e-08)
(1.17828e-07 -8.93365e-08 6.60648e-08)
(4.9674e-08 1.63703e-08 1.89149e-09)
(5.62059e-08 2.42355e-10 1.02926e-08)
(5.76092e-08 -1.31021e-08 2.06406e-08)
(5.81481e-08 -2.29077e-08 3.08006e-08)
(6.07808e-08 -3.04915e-08 3.99075e-08)
(6.84028e-08 -3.6367e-08 4.74069e-08)
(8.44412e-08 -4.56262e-08 5.22147e-08)
(1.10757e-07 -8.5336e-08 5.29666e-08)
(4.65053e-08 1.48329e-08 2.21059e-09)
(5.2517e-08 -1.3362e-09 8.86815e-09)
(5.40072e-08 -1.49288e-08 1.67219e-08)
(5.48075e-08 -2.46235e-08 2.45957e-08)
(5.76917e-08 -3.15099e-08 3.16275e-08)
(6.54857e-08 -3.63833e-08 3.7122e-08)
(8.1524e-08 -4.47801e-08 4.03611e-08)
(1.07541e-07 -8.33361e-08 4.08772e-08)
(4.48737e-08 1.4195e-08 1.87963e-09)
(5.07596e-08 -1.8113e-09 6.726e-09)
(5.239e-08 -1.53901e-08 1.2203e-08)
(5.34054e-08 -2.50286e-08 1.76854e-08)
(5.64785e-08 -3.1674e-08 2.25641e-08)
(6.43666e-08 -3.62493e-08 2.63004e-08)
(8.03335e-08 -4.44384e-08 2.84661e-08)
(1.06067e-07 -8.23913e-08 2.89137e-08)
(4.40188e-08 1.39177e-08 1.21834e-09)
(4.98885e-08 -1.91026e-09 4.15386e-09)
(5.16263e-08 -1.53816e-08 7.37985e-09)
(5.27787e-08 -2.49678e-08 1.05853e-08)
(5.59637e-08 -3.15642e-08 1.34289e-08)
(6.38944e-08 -3.61212e-08 1.55971e-08)
(7.97934e-08 -4.43185e-08 1.68646e-08)
(1.0533e-07 -8.19631e-08 1.71803e-08)
(4.36415e-08 1.3809e-08 4.18557e-10)
(4.95105e-08 -1.91249e-09 1.40022e-09)
(5.13007e-08 -1.53055e-08 2.46476e-09)
(5.25171e-08 -2.48592e-08 3.5172e-09)
(5.57519e-08 -3.14571e-08 4.44924e-09)
(6.36979e-08 -3.60473e-08 5.16003e-09)
(7.95595e-08 -4.4281e-08 5.57931e-09)
(1.04999e-07 -8.1797e-08 5.69305e-09)
(2.87171e-08 6.2656e-08 9.09107e-08)
(4.73587e-08 4.25798e-08 1.15937e-07)
(5.00936e-08 2.2703e-08 1.33259e-07)
(4.94864e-08 7.51463e-09 1.47765e-07)
(5.02027e-08 -5.83039e-09 1.62478e-07)
(5.46837e-08 -2.0089e-08 1.79398e-07)
(6.54137e-08 -4.30466e-08 1.99916e-07)
(8.08254e-08 -1.03039e-07 2.2372e-07)
(2.99508e-09 4.44541e-08 8.17778e-08)
(8.53835e-09 3.20845e-08 1.06107e-07)
(9.97487e-09 1.84453e-08 1.22249e-07)
(9.84555e-09 5.06409e-09 1.35722e-07)
(1.01626e-08 -9.03057e-09 1.49565e-07)
(1.20368e-08 -2.45827e-08 1.65859e-07)
(1.62111e-08 -4.61836e-08 1.86807e-07)
(2.10221e-08 -9.9122e-08 2.14219e-07)
(-2.9652e-09 4.40359e-08 8.07776e-08)
(-7.39807e-09 3.15612e-08 1.05155e-07)
(-7.43407e-09 1.78447e-08 1.21321e-07)
(-5.83183e-09 4.39618e-09 1.34809e-07)
(-4.62449e-09 -9.76174e-09 1.48656e-07)
(-4.93072e-09 -2.53771e-08 1.64942e-07)
(-7.54103e-09 -4.70203e-08 1.85873e-07)
(-1.09394e-08 -9.97385e-08 2.13281e-07)
(-2.77344e-08 6.10213e-08 8.81112e-08)
(-4.49437e-08 4.08375e-08 1.13296e-07)
(-4.62913e-08 2.08369e-08 1.30672e-07)
(-4.42171e-08 5.47714e-09 1.45214e-07)
(-4.33949e-08 -8.03972e-09 1.5994e-07)
(-4.62975e-08 -2.24626e-08 1.76844e-07)
(-5.54563e-08 -4.55299e-08 1.97323e-07)
(-6.93737e-08 -1.04956e-07 2.21167e-07)
(-8.13699e-08 5.61919e-08 2.81933e-08)
(-9.43075e-08 3.39914e-08 5.57002e-08)
(-9.66741e-08 1.34152e-08 7.17308e-08)
(-9.63831e-08 -1.50791e-09 8.44791e-08)
(-9.774e-08 -1.41493e-08 9.70728e-08)
(-1.03463e-07 -2.72204e-08 1.1132e-07)
(-1.16208e-07 -4.8309e-08 1.28413e-07)
(-1.36711e-07 -1.05767e-07 1.45507e-07)
(-6.27952e-08 2.90766e-08 2.89548e-09)
(-7.18948e-08 1.33858e-08 1.89709e-08)
(-7.27561e-08 -1.11549e-09 3.38738e-08)
(-7.17771e-08 -1.32287e-08 4.62401e-08)
(-7.2657e-08 -2.44758e-08 5.773e-08)
(-7.82073e-08 -3.57066e-08 6.958e-08)
(-9.17497e-08 -5.18513e-08 8.12271e-08)
(-1.15603e-07 -9.89268e-08 8.80117e-08)
(-5.09151e-08 1.84825e-08 1.07126e-09)
(-5.76004e-08 2.58102e-09 1.19484e-08)
(-5.78721e-08 -1.07306e-08 2.48878e-08)
(-5.67993e-08 -2.13076e-08 3.67844e-08)
(-5.76542e-08 -3.0569e-08 4.75189e-08)
(-6.3369e-08 -3.88023e-08 5.72454e-08)
(-7.74771e-08 -5.04996e-08 6.47004e-08)
(-1.02163e-07 -9.20586e-08 6.67736e-08)
(-4.47435e-08 1.46258e-08 2.01415e-09)
(-5.01284e-08 -1.77866e-09 1.05743e-08)
(-5.03156e-08 -1.54463e-08 2.10311e-08)
(-4.94694e-08 -2.55635e-08 3.12722e-08)
(-5.05559e-08 -3.34167e-08 4.0437e-08)
(-5.65039e-08 -3.95227e-08 4.79712e-08)
(-7.08071e-08 -4.89215e-08 5.27929e-08)
(-9.54072e-08 -8.8063e-08 5.35448e-08)
(-4.17024e-08 1.31621e-08 2.29458e-09)
(-4.6632e-08 -3.27916e-09 9.07049e-09)
(-4.69543e-08 -1.72009e-08 1.70094e-08)
(-4.64043e-08 -2.7221e-08 2.49466e-08)
(-4.77624e-08 -3.43948e-08 3.20247e-08)
(-5.3887e-08 -3.95162e-08 3.75493e-08)
(-6.81787e-08 -4.80656e-08 4.08035e-08)
(-9.24593e-08 -8.60583e-08 4.13226e-08)
(-4.0151e-08 1.25742e-08 1.934e-09)
(-4.49997e-08 -3.6988e-09 6.8602e-09)
(-4.54986e-08 -1.76092e-08 1.23974e-08)
(-4.5191e-08 -2.75812e-08 1.79259e-08)
(-4.67555e-08 -3.45254e-08 2.2839e-08)
(-5.29814e-08 -3.93603e-08 2.65987e-08)
(-6.71987e-08 -4.7711e-08 2.87774e-08)
(-9.11854e-08 -8.51051e-08 2.92285e-08)
(-3.93427e-08 1.23272e-08 1.2489e-09)
(-4.42026e-08 -3.76227e-09 4.23015e-09)
(-4.48324e-08 -1.75658e-08 7.49162e-09)
(-4.46805e-08 -2.749e-08 1.07251e-08)
(-4.63699e-08 -3.43918e-08 1.359e-08)
(-5.2645e-08 -3.92156e-08 1.57731e-08)
(-6.67948e-08 -4.75802e-08 1.70493e-08)
(-9.05811e-08 -8.46689e-08 1.73677e-08)
(-3.89866e-08 1.22329e-08 4.28416e-10)
(-4.38588e-08 -3.74726e-09 1.42494e-09)
(-4.45525e-08 -1.74723e-08 2.50118e-09)
(-4.4474e-08 -2.7366e-08 3.563e-09)
(-4.62201e-08 -3.42724e-08 4.50226e-09)
(-5.25143e-08 -3.91328e-08 5.21818e-09)
(-6.66275e-08 -4.75367e-08 5.6405e-09)
(-9.03149e-08 -8.44983e-08 5.75521e-09)
(8.1126e-08 -1.81887e-07 1.50048e-07)
(6.6357e-08 -1.68355e-07 9.00362e-08)
(5.61799e-08 -1.58114e-07 6.70336e-08)
(5.18632e-08 -1.51577e-07 5.29319e-08)
(5.05741e-08 -1.47736e-07 4.05588e-08)
(5.03179e-08 -1.45566e-07 2.86491e-08)
(5.02828e-08 -1.44403e-07 1.70397e-08)
(5.02704e-08 -1.43894e-07 5.6521e-09)
(2.13204e-08 -1.72968e-07 1.45558e-07)
(1.7139e-08 -1.55856e-07 9.26492e-08)
(1.35492e-08 -1.45216e-07 7.1105e-08)
(1.20639e-08 -1.39281e-07 5.5721e-08)
(1.17763e-08 -1.36077e-07 4.19717e-08)
(1.18467e-08 -1.34311e-07 2.92591e-08)
(1.1934e-08 -1.33348e-07 1.72767e-08)
(1.19731e-08 -1.32917e-07 5.71392e-09)
(-1.06266e-08 -1.72632e-07 1.45568e-07)
(-6.60849e-09 -1.55523e-07 9.28808e-08)
(-3.3182e-09 -1.44899e-07 7.1303e-08)
(-2.12833e-09 -1.38973e-07 5.58717e-08)
(-2.08808e-09 -1.35772e-07 4.2083e-08)
(-2.34727e-09 -1.34004e-07 2.93361e-08)
(-2.56136e-09 -1.3304e-07 1.7322e-08)
(-2.66398e-09 -1.32608e-07 5.72893e-09)
(-6.90569e-08 -1.81144e-07 1.50137e-07)
(-5.45277e-08 -1.67569e-07 9.06902e-08)
(-4.46498e-08 -1.57364e-07 6.75978e-08)
(-4.06277e-08 -1.50846e-07 5.33731e-08)
(-3.95907e-08 -1.47008e-07 4.08908e-08)
(-3.95278e-08 -1.44835e-07 2.8881e-08)
(-3.96221e-08 -1.43667e-07 1.71769e-08)
(-3.96744e-08 -1.43156e-07 5.69751e-09)
)
;
        gradient        uniform (0 0 0);
    }
    symmetry
    {
        type            solidSymmetry;
        patchType       symmetry;
        secondOrder     false;
        value           nonuniform List<vector> 
32
(
(9.35003e-09 7.57872e-09 0)
(1.55712e-08 -3.67382e-09 0)
(1.63954e-08 -1.54717e-08 0)
(1.62361e-08 -2.51197e-08 0)
(1.74366e-08 -3.29575e-08 0)
(2.2237e-08 -3.99949e-08 0)
(3.32254e-08 -5.09301e-08 0)
(4.88313e-08 -8.6419e-08 0)
(-4.44552e-10 -1.27191e-09 0)
(9.38718e-10 -9.0978e-09 0)
(1.42831e-09 -1.79971e-08 0)
(1.49936e-09 -2.71074e-08 0)
(2.08321e-09 -3.60495e-08 0)
(4.08721e-09 -4.46438e-08 0)
(8.18517e-09 -5.47418e-08 0)
(1.26858e-08 -8.2926e-08 0)
(4.62358e-10 -1.45565e-09 0)
(-1.49464e-10 -9.49311e-09 0)
(3.97035e-10 -1.8525e-08 0)
(1.50738e-09 -2.77282e-08 0)
(2.2399e-09 -3.67504e-08 0)
(1.67066e-09 -4.54225e-08 0)
(-9.32071e-10 -5.55772e-08 0)
(-4.02975e-09 -8.35646e-08 0)
(-8.5709e-09 6.64388e-09 0)
(-1.37851e-08 -5.00316e-09 0)
(-1.35945e-08 -1.70894e-08 0)
(-1.22535e-08 -2.69938e-08 0)
(-1.21057e-08 -3.50657e-08 0)
(-1.54265e-08 -4.2322e-08 0)
(-2.48623e-08 -5.34144e-08 0)
(-3.89371e-08 -8.83854e-08 0)
)
;
    }
    bottom
    {
        type            fixedDisplacement;
        value           uniform (0 0 0);
    }
}


// ************************************************************************* //
