/*--------------------------------*- C++ -*----------------------------------*\
| =========                 |                                                 |
| \\      /  F ield         | OpenFOAM: The Open Source CFD Toolbox           |
|  \\    /   O peration     | Version:  v1912                                 |
|   \\  /    A nd           | Website:  www.openfoam.com                      |
|    \\/     M anipulation  |                                                 |
\*---------------------------------------------------------------------------*/
FoamFile
{
    version     2.0;
    format      ascii;
    class       volVectorField;
    location    "0.78/solid";
    object      DD;
}
// * * * * * * * * * * * * * * * * * * * * * * * * * * * * * * * * * * * * * //

dimensions      [0 1 0 0 0 0 0];


internalField   nonuniform List<vector> 
256
(
(2.13769e-10 2.25453e-10 2.64609e-10)
(5.05853e-11 1.448e-10 2.53829e-10)
(-6.56662e-11 1.38869e-10 2.46356e-10)
(-2.09751e-10 2.049e-10 2.42166e-10)
(3.99903e-10 1.97192e-10 6.2319e-10)
(1.0368e-10 1.2421e-10 6.0534e-10)
(-1.37651e-10 1.21864e-10 5.90088e-10)
(-4.06941e-10 1.92855e-10 5.77007e-10)
(4.41628e-10 2.65346e-11 8.79745e-10)
(1.11643e-10 -6.58755e-12 8.55039e-10)
(-1.67293e-10 -2.92113e-12 8.35279e-10)
(-4.69735e-10 4.14191e-11 8.19814e-10)
(4.32745e-10 -1.71191e-10 1.09449e-09)
(9.75272e-11 -1.85476e-10 1.06051e-09)
(-1.82107e-10 -1.75811e-10 1.03753e-09)
(-4.8941e-10 -1.38978e-10 1.02474e-09)
(4.28661e-10 -3.86894e-10 1.30395e-09)
(8.26098e-11 -4.03839e-10 1.25922e-09)
(-2.04069e-10 -3.88489e-10 1.23348e-09)
(-5.21633e-10 -3.38476e-10 1.22586e-09)
(4.66047e-10 -6.50006e-10 1.52965e-09)
(8.16678e-11 -6.73245e-10 1.47587e-09)
(-2.48496e-10 -6.52204e-10 1.4475e-09)
(-6.03667e-10 -5.85327e-10 1.44364e-09)
(5.64064e-10 -1.03249e-09 1.76964e-09)
(9.98675e-11 -1.03861e-09 1.71809e-09)
(-3.21957e-10 -1.01105e-09 1.68703e-09)
(-7.55014e-10 -9.4902e-10 1.67574e-09)
(6.67713e-10 -1.54447e-09 1.95214e-09)
(1.15538e-10 -1.50648e-09 1.91894e-09)
(-4.04841e-10 -1.46899e-09 1.88555e-09)
(-9.20969e-10 -1.43122e-09 1.85181e-09)
(1.40674e-10 8.20054e-11 1.14648e-10)
(3.19328e-11 1.40491e-11 1.27115e-10)
(-3.81044e-11 1.20266e-11 1.2382e-10)
(-1.30391e-10 7.01151e-11 1.04915e-10)
(2.71228e-10 1.05334e-12 3.57451e-10)
(6.88391e-11 -5.98718e-11 3.82335e-10)
(-8.15817e-11 -5.90214e-11 3.73288e-10)
(-2.61265e-10 2.94987e-12 3.31106e-10)
(2.98337e-10 -1.55587e-10 5.81844e-10)
(7.38746e-11 -1.82755e-10 6.09189e-10)
(-9.93959e-11 -1.772e-10 5.96128e-10)
(-3.012e-10 -1.37579e-10 5.43654e-10)
(2.86018e-10 -3.35101e-10 7.8357e-10)
(6.11256e-11 -3.47237e-10 8.08277e-10)
(-1.08638e-10 -3.36471e-10 7.92286e-10)
(-3.10921e-10 -3.01471e-10 7.36502e-10)
(2.80022e-10 -5.33176e-10 9.7629e-10)
(4.79395e-11 -5.50595e-10 9.96235e-10)
(-1.26571e-10 -5.34563e-10 9.77745e-10)
(-3.35702e-10 -4.84209e-10 9.21606e-10)
(3.18448e-10 -7.64014e-10 1.16801e-09)
(4.92531e-11 -7.9027e-10 1.18287e-09)
(-1.68213e-10 -7.68893e-10 1.16203e-09)
(-4.13782e-10 -6.99537e-10 1.1062e-09)
(4.28939e-10 -1.07917e-09 1.34222e-09)
(7.22818e-11 -1.08559e-09 1.35406e-09)
(-2.4202e-10 -1.05837e-09 1.33118e-09)
(-5.72863e-10 -9.97457e-10 1.27413e-09)
(5.58474e-10 -1.50624e-09 1.44021e-09)
(9.41365e-11 -1.44948e-09 1.45138e-09)
(-3.27311e-10 -1.41368e-09 1.42762e-09)
(-7.60167e-10 -1.39777e-09 1.36909e-09)
(7.70128e-11 2.60088e-11 5.70663e-11)
(1.38003e-11 -2.50563e-11 7.63857e-11)
(-1.58905e-11 -2.66166e-11 7.41522e-11)
(-6.33807e-11 1.39428e-11 5.07122e-11)
(1.54694e-10 -9.79139e-11 2.23657e-10)
(3.31254e-11 -1.44709e-10 2.61024e-10)
(-3.40078e-11 -1.43555e-10 2.54776e-10)
(-1.34202e-10 -9.7195e-11 2.05939e-10)
(1.68848e-10 -2.63214e-10 4.09287e-10)
(3.44502e-11 -2.84899e-10 4.51674e-10)
(-4.09984e-11 -2.79478e-10 4.42238e-10)
(-1.54408e-10 -2.47372e-10 3.82246e-10)
(1.55698e-10 -4.33321e-10 5.90093e-10)
(2.30396e-11 -4.45191e-10 6.31819e-10)
(-4.53625e-11 -4.34953e-10 6.19829e-10)
(-1.57317e-10 -4.02623e-10 5.55345e-10)
(1.50788e-10 -6.07536e-10 7.59913e-10)
(1.18299e-11 -6.2725e-10 7.98958e-10)
(-5.99351e-11 -6.12049e-10 7.84745e-10)
(-1.77951e-10 -5.62065e-10 7.18375e-10)
(1.92294e-10 -7.96346e-10 9.1226e-10)
(1.55295e-11 -8.26242e-10 9.47878e-10)
(-9.93768e-11 -8.06007e-10 9.31671e-10)
(-2.54449e-10 -7.35993e-10 8.64586e-10)
(3.11068e-10 -1.04914e-09 1.02494e-09)
(4.2527e-11 -1.05819e-09 1.05669e-09)
(-1.73161e-10 -1.03254e-09 1.03899e-09)
(-4.17541e-10 -9.7247e-10 9.72439e-10)
(4.53023e-10 -1.41062e-09 1.05791e-09)
(6.88495e-11 -1.35103e-09 1.08623e-09)
(-2.59239e-10 -1.31723e-09 1.06831e-09)
(-6.1319e-10 -1.30811e-09 1.00406e-09)
(4.55756e-11 3.68821e-12 4.36859e-11)
(4.97302e-12 -3.51865e-11 5.76584e-11)
(-5.11598e-12 -3.70148e-11 5.59959e-11)
(-2.99014e-11 -9.85105e-12 3.90735e-11)
(9.63425e-11 -1.37744e-10 1.69881e-10)
(1.52164e-11 -1.74759e-10 1.96518e-10)
(-9.463e-12 -1.74375e-10 1.92012e-10)
(-6.92261e-11 -1.40232e-10 1.57316e-10)
(1.05389e-10 -3.10505e-10 3.17522e-10)
(1.542e-11 -3.29025e-10 3.47301e-10)
(-1.01894e-11 -3.24657e-10 3.40425e-10)
(-7.93394e-11 -2.98647e-10 2.98059e-10)
(9.51908e-11 -4.75222e-10 4.67282e-10)
(6.39438e-12 -4.87908e-10 4.96026e-10)
(-1.19103e-11 -4.78923e-10 4.87106e-10)
(-8.02869e-11 -4.48937e-10 4.4166e-10)
(9.4807e-11 -6.30072e-10 6.06037e-10)
(-1.89018e-12 -6.52211e-10 6.32348e-10)
(-2.48271e-11 -6.3843e-10 6.21591e-10)
(-1.00897e-10 -5.89329e-10 5.74792e-10)
(1.40599e-10 -7.87653e-10 7.20562e-10)
(4.33968e-12 -8.20635e-10 7.44171e-10)
(-6.27624e-11 -8.01983e-10 7.3181e-10)
(-1.7757e-10 -7.32323e-10 6.84318e-10)
(2.62048e-10 -1.00295e-09 7.91318e-10)
(3.31414e-11 -1.0164e-09 8.12323e-10)
(-1.34783e-10 -9.9245e-10 7.9887e-10)
(-3.39598e-10 -9.3152e-10 7.51383e-10)
(4.04749e-10 -1.33176e-09 7.97201e-10)
(6.0857e-11 -1.27986e-09 8.17017e-10)
(-2.18912e-10 -1.24776e-09 8.03542e-10)
(-5.32492e-10 -1.23441e-09 7.56512e-10)
(3.42838e-11 -4.67314e-12 3.72259e-11)
(2.50508e-12 -3.74188e-11 4.45249e-11)
(-1.62237e-12 -3.9531e-11 4.33268e-11)
(-1.73359e-11 -1.94086e-11 3.39536e-11)
(7.63247e-11 -1.49583e-10 1.34149e-10)
(1.04601e-11 -1.82054e-10 1.47574e-10)
(-8.06781e-13 -1.82518e-10 1.44382e-10)
(-4.50446e-11 -1.55002e-10 1.2536e-10)
(8.57493e-11 -3.2296e-10 2.45888e-10)
(1.16174e-11 -3.40744e-10 2.60149e-10)
(1.0444e-12 -3.37534e-10 2.55269e-10)
(-5.2103e-11 -3.14924e-10 2.32217e-10)
(7.98684e-11 -4.82685e-10 3.60134e-10)
(5.27383e-12 -4.96895e-10 3.72876e-10)
(4.08773e-13 -4.89226e-10 3.66476e-10)
(-5.36732e-11 -4.60641e-10 3.41891e-10)
(8.44656e-11 -6.25122e-10 4.6449e-10)
(-1.2172e-13 -6.4946e-10 4.75027e-10)
(-1.17457e-11 -6.37089e-10 4.67224e-10)
(-7.56314e-11 -5.88816e-10 4.41942e-10)
(1.3373e-10 -7.655e-10 5.45959e-10)
(8.19236e-12 -8.00776e-10 5.54508e-10)
(-4.8416e-11 -7.83585e-10 5.45486e-10)
(-1.52386e-10 -7.1467e-10 5.19581e-10)
(2.55034e-10 -9.63607e-10 5.90665e-10)
(3.76133e-11 -9.80744e-10 5.97887e-10)
(-1.18034e-10 -9.58244e-10 5.88063e-10)
(-3.11161e-10 -8.96563e-10 5.61513e-10)
(3.95106e-10 -1.27828e-09 5.89194e-10)
(6.55077e-11 -1.23434e-09 5.96635e-10)
(-1.99544e-10 -1.20359e-09 5.86828e-10)
(-4.98552e-10 -1.18499e-09 5.59528e-10)
(3.11065e-11 -7.41533e-12 2.89054e-11)
(2.44354e-12 -3.76174e-11 3.20928e-11)
(-1.00086e-12 -3.9934e-11 3.12909e-11)
(-1.33853e-11 -2.29619e-11 2.67388e-11)
(7.19204e-11 -1.50252e-10 9.84821e-11)
(1.08697e-11 -1.81294e-10 1.03898e-10)
(1.09916e-12 -1.82405e-10 1.01774e-10)
(-3.80752e-11 -1.57803e-10 9.26895e-11)
(8.35969e-11 -3.20291e-10 1.76456e-10)
(1.35928e-11 -3.38613e-10 1.81532e-10)
(3.69997e-12 -3.36329e-10 1.78281e-10)
(-4.51335e-11 -3.15191e-10 1.67423e-10)
(8.15402e-11 -4.75202e-10 2.55567e-10)
(9.48993e-12 -4.91012e-10 2.59185e-10)
(3.44919e-12 -4.84411e-10 2.54896e-10)
(-4.79526e-11 -4.56498e-10 2.43419e-10)
(8.99627e-11 -6.10651e-10 3.26859e-10)
(6.30552e-12 -6.36707e-10 3.28804e-10)
(-8.23763e-12 -6.25466e-10 3.23538e-10)
(-7.10744e-11 -5.77837e-10 3.11714e-10)
(1.41462e-10 -7.43408e-10 3.80749e-10)
(1.60875e-11 -7.80183e-10 3.81407e-10)
(-4.38238e-11 -7.64128e-10 3.75291e-10)
(-1.47496e-10 -6.96051e-10 3.62915e-10)
(2.61959e-10 -9.35098e-10 4.08558e-10)
(4.57639e-11 -9.54525e-10 4.08639e-10)
(-1.1135e-10 -9.33107e-10 4.01965e-10)
(-3.03079e-10 -8.71348e-10 3.88777e-10)
(3.99471e-10 -1.24337e-09 4.0621e-10)
(7.36153e-11 -1.20464e-09 4.068e-10)
(-1.90672e-10 -1.17486e-09 4.00144e-10)
(-4.85721e-10 -1.15306e-09 3.86067e-10)
(3.03888e-11 -8.03757e-12 1.8275e-11)
(2.81881e-12 -3.72773e-11 1.9501e-11)
(-1.08373e-12 -3.97234e-11 1.90423e-11)
(-1.22297e-11 -2.40832e-11 1.70438e-11)
(7.17942e-11 -1.47771e-10 6.0282e-11)
(1.21175e-11 -1.78607e-10 6.21096e-11)
(1.15159e-12 -1.80136e-10 6.08959e-11)
(-3.6471e-11 -1.56669e-10 5.69923e-11)
(8.54763e-11 -3.13988e-10 1.06273e-10)
(1.60941e-11 -3.33082e-10 1.07577e-10)
(3.89285e-12 -3.31411e-10 1.05717e-10)
(-4.41771e-11 -3.10801e-10 1.01132e-10)
(8.60072e-11 -4.65158e-10 1.5244e-10)
(1.34861e-11 -4.82184e-10 1.52758e-10)
(3.79123e-12 -4.76302e-10 1.50296e-10)
(-4.79699e-11 -4.48678e-10 1.45498e-10)
(9.68163e-11 -5.97018e-10 1.93616e-10)
(1.17068e-11 -6.24207e-10 1.92927e-10)
(-7.56127e-12 -6.13727e-10 1.89892e-10)
(-7.17514e-11 -5.66545e-10 1.84916e-10)
(1.49587e-10 -7.26952e-10 2.24237e-10)
(2.24028e-11 -7.64587e-10 2.22846e-10)
(-4.23561e-11 -7.49289e-10 2.19309e-10)
(-1.47736e-10 -6.81912e-10 2.13945e-10)
(2.69442e-10 -9.16656e-10 2.39629e-10)
(5.22464e-11 -9.37268e-10 2.38014e-10)
(-1.08458e-10 -9.16563e-10 2.34148e-10)
(-3.0107e-10 -8.55082e-10 2.2818e-10)
(4.05244e-10 -1.22189e-09 2.3801e-10)
(8.00746e-11 -1.18592e-09 2.3676e-10)
(-1.86314e-10 -1.15678e-09 2.32904e-10)
(-4.80533e-10 -1.13353e-09 2.26342e-10)
(3.02544e-11 -8.05547e-12 6.24245e-12)
(3.04963e-12 -3.69719e-11 6.55599e-12)
(-1.19009e-12 -3.94808e-11 6.40688e-12)
(-1.18976e-11 -2.43391e-11 5.84332e-12)
(7.21497e-11 -1.45811e-10 2.02928e-11)
(1.28468e-11 -1.76711e-10 2.0705e-11)
(1.00605e-12 -1.78441e-10 2.03104e-11)
(-3.6151e-11 -1.55357e-10 1.92263e-11)
(8.68816e-11 -3.09723e-10 3.54846e-11)
(1.74642e-11 -3.29291e-10 3.5679e-11)
(3.76076e-12 -3.2792e-10 3.50739e-11)
(-4.42683e-11 -3.07468e-10 3.38167e-11)
(8.8668e-11 -4.58889e-10 5.06326e-11)
(1.55812e-11 -4.76547e-10 5.04855e-11)
(3.72316e-12 -4.71022e-10 4.96831e-11)
(-4.85411e-11 -4.43506e-10 4.83755e-11)
(1.00594e-10 -5.8924e-10 6.40688e-11)
(1.44709e-11 -6.1698e-10 6.35894e-11)
(-7.44564e-12 -6.0688e-10 6.25986e-11)
(-7.2593e-11 -5.59931e-10 6.12332e-11)
(1.53939e-10 -7.18325e-10 7.39949e-11)
(2.56052e-11 -7.56345e-10 7.32943e-11)
(-4.18284e-11 -7.41424e-10 7.21375e-11)
(-1.48301e-10 -6.74438e-10 7.06326e-11)
(2.73478e-10 -9.07546e-10 7.89398e-11)
(5.5546e-11 -9.28642e-10 7.81816e-11)
(-1.07228e-10 -9.0829e-10 7.6916e-11)
(-3.00514e-10 -8.4705e-10 7.51939e-11)
(4.08454e-10 -1.21154e-09 7.83818e-11)
(8.33737e-11 -1.17671e-09 7.7748e-11)
(-1.8436e-10 -1.14789e-09 7.64854e-11)
(-4.78416e-10 -1.12414e-09 7.4562e-11)
)
;

boundaryField
{
    interface
    {
        type            calculated;
        value           nonuniform List<vector> 
192
(
(2.57458e-10 3.78871e-10 2.42043e-10)
(4.4604e-10 2.54156e-10 5.83278e-10)
(4.90786e-10 3.47441e-11 8.36102e-10)
(4.85699e-10 -1.74434e-10 1.05125e-09)
(4.82794e-10 -3.78569e-10 1.26186e-09)
(5.165e-10 -6.16156e-10 1.48941e-09)
(6.13555e-10 -9.8207e-10 1.73319e-09)
(7.24887e-10 -1.51625e-09 1.92126e-09)
(1.59689e-10 1.84981e-10 8.04593e-11)
(2.96713e-10 4.04686e-11 2.96149e-10)
(3.25055e-10 -1.51891e-10 5.1365e-10)
(3.13558e-10 -3.39681e-10 7.14308e-10)
(3.0672e-10 -5.2507e-10 9.06822e-10)
(3.41287e-10 -7.26785e-10 1.09957e-09)
(4.55399e-10 -1.01916e-09 1.27897e-09)
(6.08842e-10 -1.47252e-09 1.38654e-09)
(8.19683e-11 8.39354e-11 3.32921e-11)
(1.6912e-10 -7.49558e-11 1.79936e-10)
(1.85374e-10 -2.62964e-10 3.61051e-10)
(1.7321e-10 -4.37837e-10 5.42387e-10)
(1.68382e-10 -5.98388e-10 7.1361e-10)
(2.08525e-10 -7.56277e-10 8.67799e-10)
(3.3484e-10 -9.83956e-10 9.83213e-10)
(5.05632e-10 -1.37323e-09 1.01947e-09)
(4.43621e-11 3.91678e-11 3.3004e-11)
(1.07556e-10 -1.22791e-10 1.5029e-10)
(1.198e-10 -3.10794e-10 2.96748e-10)
(1.11358e-10 -4.77868e-10 4.48325e-10)
(1.12313e-10 -6.1872e-10 5.89457e-10)
(1.58993e-10 -7.45844e-10 7.05921e-10)
(2.90821e-10 -9.36915e-10 7.7731e-10)
(4.63058e-10 -1.29284e-09 7.82722e-10)
(2.96129e-11 2.2979e-11 3.36089e-11)
(8.46866e-11 -1.36718e-10 1.28044e-10)
(9.79407e-11 -3.22076e-10 2.4044e-10)
(9.45285e-11 -4.83007e-10 3.56722e-10)
(1.01463e-10 -6.11658e-10 4.63279e-10)
(1.53069e-10 -7.22859e-10 5.46175e-10)
(2.86331e-10 -8.98263e-10 5.90643e-10)
(4.55539e-10 -1.23891e-09 5.87875e-10)
(2.47759e-11 1.83414e-11 2.79318e-11)
(7.84522e-11 -1.3713e-10 9.73498e-11)
(9.42991e-11 -3.17887e-10 1.76388e-10)
(9.52518e-11 -4.73611e-10 2.57102e-10)
(1.06721e-10 -5.95671e-10 3.29946e-10)
(1.61446e-10 -7.0041e-10 3.84714e-10)
(2.947e-10 -8.70596e-10 4.1216e-10)
(4.60669e-10 -1.20399e-09 4.08745e-10)
(2.34351e-11 1.75082e-11 1.80621e-11)
(7.74769e-11 -1.33999e-10 6.03396e-11)
(9.55196e-11 -3.10436e-10 1.07094e-10)
(9.94098e-11 -4.62324e-10 1.54222e-10)
(1.13708e-10 -5.81124e-10 1.96274e-10)
(1.702e-10 -6.83796e-10 2.27356e-10)
(3.03193e-10 -8.52743e-10 2.42509e-10)
(4.66905e-10 -1.18262e-09 2.40255e-10)
(2.31292e-11 1.75456e-11 6.20889e-12)
(7.75394e-11 -1.31655e-10 2.03817e-11)
(9.67203e-11 -3.05594e-10 3.5836e-11)
(1.02036e-10 -4.55462e-10 5.12978e-11)
(1.17659e-10 -5.72923e-10 6.50132e-11)
(1.74947e-10 -6.75104e-10 7.50828e-11)
(3.07776e-10 -8.43917e-10 7.99489e-11)
(4.70378e-10 -1.17235e-09 7.91843e-11)
(2.22354e-10 4.47403e-10 2.81195e-10)
(4.15394e-10 3.50976e-10 6.38431e-10)
(4.5727e-10 1.44361e-10 8.97939e-10)
(4.45871e-10 -6.51402e-11 1.11736e-09)
(4.38524e-10 -2.78104e-10 1.32824e-09)
(4.72722e-10 -5.33581e-10 1.5486e-09)
(5.69399e-10 -9.26863e-10 1.78307e-09)
(6.74856e-10 -1.49001e-09 1.96764e-09)
(4.60203e-11 3.59592e-10 2.57078e-10)
(9.54012e-11 2.74513e-10 6.02974e-10)
(1.00523e-10 1.07207e-10 8.49474e-10)
(8.32836e-11 -8.44295e-11 1.05406e-09)
(6.49923e-11 -2.99998e-10 1.24966e-09)
(6.11295e-11 -5.58527e-10 1.45751e-09)
(7.92127e-11 -9.2784e-10 1.69593e-09)
(9.88914e-11 -1.44903e-09 1.91538e-09)
(-6.85841e-11 3.4798e-10 2.39944e-10)
(-1.44738e-10 2.69095e-10 5.79716e-10)
(-1.76103e-10 1.0894e-10 8.21633e-10)
(-1.91054e-10 -7.62585e-11 1.02265e-09)
(-2.12413e-10 -2.85994e-10 1.21518e-09)
(-2.56558e-10 -5.38817e-10 1.42013e-09)
(-3.32546e-10 -9.01532e-10 1.6556e-09)
(-4.21626e-10 -1.41203e-09 1.87191e-09)
(-2.2438e-10 4.09693e-10 2.29798e-10)
(-4.35589e-10 3.37268e-10 5.65997e-10)
(-5.02989e-10 1.53354e-10 8.10898e-10)
(-5.23428e-10 -3.74659e-11 1.01943e-09)
(-5.55171e-10 -2.33752e-10 1.22109e-09)
(-6.3661e-10 -4.72855e-10 1.43284e-09)
(-7.89139e-10 -8.46977e-10 1.65887e-09)
(-9.59022e-10 -1.37811e-09 1.83598e-09)
(-1.93547e-10 3.59072e-10 2.1501e-10)
(-3.93431e-10 2.57851e-10 5.26261e-10)
(-4.58085e-10 6.20376e-11 7.61049e-10)
(-4.8007e-10 -1.26002e-10 9.63106e-10)
(-5.11942e-10 -3.0991e-10 1.1626e-09)
(-5.88608e-10 -5.2698e-10 1.37969e-09)
(-7.36116e-10 -8.69693e-10 1.61314e-09)
(-9.04553e-10 -1.36961e-09 1.79258e-09)
(-9.37383e-11 1.68029e-10 6.83222e-11)
(-2.31936e-10 4.56522e-11 2.6292e-10)
(-2.72499e-10 -1.25164e-10 4.6482e-10)
(-2.81923e-10 -2.92844e-10 6.53478e-10)
(-3.04574e-10 -4.58492e-10 8.35684e-10)
(-3.7726e-10 -6.40244e-10 1.0189e-09)
(-5.37e-10 -9.10859e-10 1.18976e-09)
(-7.41642e-10 -1.33268e-09 1.29214e-09)
(-1.45974e-11 6.33384e-11 2.5589e-11)
(-9.60718e-11 -7.44379e-11 1.57928e-10)
(-1.17932e-10 -2.41593e-10 3.26779e-10)
(-1.20866e-10 -3.96736e-10 4.97685e-10)
(-1.4031e-10 -5.3778e-10 6.59672e-10)
(-2.13788e-10 -6.76094e-10 8.05531e-10)
(-3.81288e-10 -8.82783e-10 9.14121e-10)
(-5.99077e-10 -1.24137e-09 9.47135e-10)
(2.43354e-11 1.49307e-11 2.75617e-11)
(-2.87259e-11 -1.27872e-10 1.35025e-10)
(-4.1715e-11 -2.95881e-10 2.72482e-10)
(-4.34855e-11 -4.43546e-10 4.15748e-10)
(-6.41527e-11 -5.65006e-10 5.49211e-10)
(-1.39965e-10 -6.72645e-10 6.58801e-10)
(-3.09092e-10 -8.42787e-10 7.24786e-10)
(-5.24864e-10 -1.16788e-09 7.27852e-10)
(4.00149e-11 -3.81358e-12 2.98241e-11)
(-2.11538e-12 -1.4631e-10 1.17571e-10)
(-1.27312e-11 -3.12766e-10 2.23664e-10)
(-1.58981e-11 -4.54758e-10 3.33806e-10)
(-3.89066e-11 -5.64136e-10 4.34485e-10)
(-1.16186e-10 -6.55786e-10 5.12062e-10)
(-2.83542e-10 -8.1002e-10 5.52383e-10)
(-4.93434e-10 -1.11942e-09 5.47834e-10)
(4.54419e-11 -1.00968e-11 2.54618e-11)
(6.48509e-12 -1.49866e-10 9.05453e-11)
(-4.49468e-12 -3.12721e-10 1.6544e-10)
(-9.52083e-12 -4.50011e-10 2.41993e-10)
(-3.44008e-11 -5.52949e-10 3.10743e-10)
(-1.12191e-10 -6.38048e-10 3.61751e-10)
(-2.77103e-10 -7.86789e-10 3.86254e-10)
(-4.81589e-10 -1.08854e-09 3.81562e-10)
(4.71343e-11 -1.19081e-11 1.66716e-11)
(8.83637e-12 -1.48682e-10 5.65108e-11)
(-3.01214e-12 -3.07925e-10 1.00916e-10)
(-9.37736e-12 -4.41783e-10 1.45644e-10)
(-3.53541e-11 -5.41602e-10 1.85295e-10)
(-1.13181e-10 -6.2458e-10 2.14145e-10)
(-2.76202e-10 -7.7188e-10 2.27539e-10)
(-4.7698e-10 -1.06983e-09 2.24515e-10)
(4.75972e-11 -1.2327e-11 5.76024e-12)
(9.39881e-12 -1.47264e-10 1.91462e-11)
(-2.9573e-12 -3.0437e-10 3.38393e-11)
(-9.97389e-12 -4.36424e-10 4.85182e-11)
(-3.64267e-11 -5.34989e-10 6.14435e-11)
(-1.14189e-10 -6.17455e-10 7.07739e-11)
(-2.76234e-10 -7.64519e-10 7.50549e-11)
(-4.75175e-10 -1.06087e-09 7.40326e-11)
(6.72327e-10 -1.56097e-09 1.96981e-09)
(5.61145e-10 -1.52141e-09 1.40675e-09)
(4.5682e-10 -1.43261e-09 1.01429e-09)
(4.11231e-10 -1.36152e-09 7.64117e-10)
(4.03805e-10 -1.31076e-09 5.67097e-10)
(4.09477e-10 -1.27665e-09 3.92114e-10)
(4.15885e-10 -1.25556e-09 2.30052e-10)
(4.19339e-10 -1.24543e-09 7.57934e-11)
(9.66666e-11 -1.50388e-09 1.93342e-09)
(7.09953e-11 -1.42903e-09 1.41252e-09)
(4.55008e-11 -1.33551e-09 1.04382e-09)
(3.98558e-11 -1.27503e-09 7.87846e-10)
(4.68336e-11 -1.23518e-09 5.7783e-10)
(5.6486e-11 -1.20828e-09 3.94694e-10)
(6.37953e-11 -1.19104e-09 2.29779e-10)
(6.74601e-11 -1.18251e-09 7.54465e-11)
(-4.23657e-10 -1.45618e-09 1.9002e-09)
(-3.40241e-10 -1.38369e-09 1.38968e-09)
(-2.69971e-10 -1.2923e-09 1.02683e-09)
(-2.30276e-10 -1.23356e-09 7.75132e-10)
(-2.11885e-10 -1.19505e-09 5.68603e-10)
(-2.03568e-10 -1.16911e-09 3.88443e-10)
(-1.99414e-10 -1.1525e-09 2.26162e-10)
(-1.97506e-10 -1.14427e-09 7.42627e-11)
(-9.61219e-10 -1.41607e-09 1.87e-09)
(-7.96692e-10 -1.38198e-09 1.33831e-09)
(-6.48843e-10 -1.29919e-09 9.63215e-10)
(-5.69099e-10 -1.23324e-09 7.25732e-10)
(-5.35991e-10 -1.18649e-09 5.3919e-10)
(-5.23437e-10 -1.15527e-09 3.73203e-10)
(-5.18203e-10 -1.13606e-09 2.19111e-10)
(-5.15993e-10 -1.12685e-09 7.22139e-11)
)
;
    }
    symmetry
    {
        type            symmetry;
    }
    bottom
    {
        type            calculated;
        value           uniform (0 0 0);
    }
}


// ************************************************************************* //
