/*--------------------------------*- C++ -*----------------------------------*\
| =========                 |                                                 |
| \\      /  F ield         | OpenFOAM: The Open Source CFD Toolbox           |
|  \\    /   O peration     | Version:  v1912                                 |
|   \\  /    A nd           | Website:  www.openfoam.com                      |
|    \\/     M anipulation  |                                                 |
\*---------------------------------------------------------------------------*/
FoamFile
{
    version     2.0;
    format      ascii;
    class       volVectorField;
    location    "0.78/solid";
    object      DD_0_0;
}
// * * * * * * * * * * * * * * * * * * * * * * * * * * * * * * * * * * * * * //

dimensions      [0 1 0 0 0 0 0];


internalField   nonuniform List<vector> 
256
(
(2.19395e-10 2.30199e-10 2.69742e-10)
(5.17309e-11 1.46865e-10 2.57795e-10)
(-6.64307e-11 1.41009e-10 2.50498e-10)
(-2.15182e-10 2.09761e-10 2.47788e-10)
(4.08795e-10 1.99275e-10 6.32633e-10)
(1.05929e-10 1.24508e-10 6.13153e-10)
(-1.3876e-10 1.22114e-10 5.98315e-10)
(-4.15013e-10 1.94654e-10 5.87636e-10)
(4.50544e-10 2.53069e-11 8.91304e-10)
(1.14179e-10 -8.56489e-12 8.65013e-10)
(-1.67806e-10 -5.12052e-12 8.45821e-10)
(-4.76985e-10 3.9402e-11 8.33022e-10)
(4.41364e-10 -1.74999e-10 1.10805e-09)
(1.00222e-10 -1.90042e-10 1.07246e-09)
(-1.81699e-10 -1.8077e-10 1.05015e-09)
(-4.95295e-10 -1.44061e-10 1.04028e-09)
(4.37639e-10 -3.93138e-10 1.32e-09)
(8.57782e-11 -4.11585e-10 1.27349e-09)
(-2.02826e-10 -3.96795e-10 1.24852e-09)
(-5.26582e-10 -3.46469e-10 1.24417e-09)
(4.76973e-10 -6.59027e-10 1.54918e-09)
(8.60543e-11 -6.8473e-10 1.49333e-09)
(-2.46911e-10 -6.64424e-10 1.46581e-09)
(-6.09021e-10 -5.96597e-10 1.46568e-09)
(5.80221e-10 -1.04683e-09 1.79452e-09)
(1.06692e-10 -1.05502e-09 1.74072e-09)
(-3.20975e-10 -1.0284e-09 1.71059e-09)
(-7.63786e-10 -9.66208e-10 1.70335e-09)
(6.91985e-10 -1.57204e-09 1.98326e-09)
(1.25297e-10 -1.53253e-09 1.94832e-09)
(-4.04681e-10 -1.49622e-09 1.9159e-09)
(-9.35763e-10 -1.46233e-09 1.88578e-09)
(1.42965e-10 8.31884e-11 1.15597e-10)
(3.2254e-11 1.34573e-11 1.28651e-10)
(-3.82529e-11 1.14404e-11 1.25455e-10)
(-1.3268e-10 7.12959e-11 1.06151e-10)
(2.7452e-10 -7.79843e-14 3.61048e-10)
(6.95022e-11 -6.2183e-11 3.87135e-10)
(-8.165e-11 -6.1454e-11 3.7836e-10)
(-2.64269e-10 1.41585e-12 3.35487e-10)
(3.01211e-10 -1.59165e-10 5.87827e-10)
(7.45941e-11 -1.86861e-10 6.16644e-10)
(-9.89087e-11 -1.81581e-10 6.03984e-10)
(-3.03203e-10 -1.42025e-10 5.50803e-10)
(2.88464e-10 -3.41045e-10 7.91755e-10)
(6.1915e-11 -3.53831e-10 8.18039e-10)
(-1.07359e-10 -3.43492e-10 8.02549e-10)
(-3.11637e-10 -3.08737e-10 7.4615e-10)
(2.82571e-10 -5.41634e-10 9.8692e-10)
(4.90923e-11 -5.60435e-10 1.00849e-09)
(-1.24527e-10 -5.44987e-10 9.90585e-10)
(-3.354e-10 -4.94443e-10 9.33946e-10)
(3.22455e-10 -7.75042e-10 1.1816e-09)
(5.14467e-11 -8.03656e-10 1.19814e-09)
(-1.65805e-10 -7.83028e-10 1.17795e-09)
(-4.13545e-10 -7.12819e-10 1.12172e-09)
(4.37521e-10 -1.09359e-09 1.35893e-09)
(7.66684e-11 -1.102e-09 1.37254e-09)
(-2.40096e-10 -1.07573e-09 1.35037e-09)
(-5.75522e-10 -1.01469e-09 1.29293e-09)
(5.74885e-10 -1.5288e-09 1.4581e-09)
(1.01225e-10 -1.47004e-09 1.47114e-09)
(-3.26065e-10 -1.43541e-09 1.4481e-09)
(-7.68672e-10 -1.4238e-09 1.38915e-09)
(7.7367e-11 2.59514e-11 5.74283e-11)
(1.35273e-11 -2.61865e-11 7.75689e-11)
(-1.55624e-11 -2.77437e-11 7.54023e-11)
(-6.38506e-11 1.39251e-11 5.12664e-11)
(1.54703e-10 -1.00582e-10 2.26152e-10)
(3.25859e-11 -1.48048e-10 2.65041e-10)
(-3.32228e-11 -1.47011e-10 2.58979e-10)
(-1.34268e-10 -1.00195e-10 2.08966e-10)
(1.68206e-10 -2.68237e-10 4.14196e-10)
(3.37756e-11 -2.90244e-10 4.58343e-10)
(-3.96811e-11 -2.85086e-10 4.4919e-10)
(-1.53446e-10 -2.53179e-10 3.87975e-10)
(1.54605e-10 -4.40486e-10 5.97329e-10)
(2.23663e-11 -4.52912e-10 6.4091e-10)
(-4.33733e-11 -4.43085e-10 6.29285e-10)
(-1.55229e-10 -4.11017e-10 5.63644e-10)
(1.49707e-10 -6.16785e-10 7.69483e-10)
(1.14327e-11 -6.3778e-10 8.10461e-10)
(-5.72562e-11 -6.23139e-10 7.96684e-10)
(-1.74909e-10 -5.72989e-10 7.29218e-10)
(1.92434e-10 -8.07254e-10 9.24084e-10)
(1.60237e-11 -8.39373e-10 9.61748e-10)
(-9.632e-11 -8.19857e-10 9.46036e-10)
(-2.51371e-10 -7.49045e-10 8.77866e-10)
(3.15324e-10 -1.06172e-09 1.0382e-09)
(4.49877e-11 -1.07269e-09 1.07215e-09)
(-1.70476e-10 -1.04794e-09 1.05499e-09)
(-4.17019e-10 -9.87733e-10 9.87295e-10)
(4.64455e-10 -1.42908e-09 1.07045e-09)
(7.37758e-11 -1.36768e-09 1.10109e-09)
(-2.57099e-10 -1.33499e-09 1.08372e-09)
(-6.17973e-10 -1.32988e-09 1.01822e-09)
(4.53823e-11 3.33536e-12 4.42109e-11)
(4.52889e-12 -3.62751e-11 5.86681e-11)
(-4.68034e-12 -3.80908e-11 5.70547e-11)
(-2.98966e-11 -1.01122e-11 3.97366e-11)
(9.54053e-11 -1.40883e-10 1.72248e-10)
(1.42738e-11 -1.7832e-10 1.99765e-10)
(-8.48639e-12 -1.78027e-10 1.95392e-10)
(-6.85633e-11 -1.43594e-10 1.60059e-10)
(1.03736e-10 -3.16067e-10 3.21997e-10)
(1.42458e-11 -3.34799e-10 3.52785e-10)
(-8.74e-12 -3.30659e-10 3.46114e-10)
(-7.7736e-11 -3.04863e-10 3.03119e-10)
(9.31089e-11 -4.82729e-10 4.7384e-10)
(5.17943e-12 -4.95916e-10 5.03645e-10)
(-9.89605e-12 -4.87302e-10 4.94992e-10)
(-7.77248e-11 -4.57537e-10 4.4899e-10)
(9.27457e-11 -6.39163e-10 6.14528e-10)
(-2.87348e-12 -6.62515e-10 6.41948e-10)
(-2.2213e-11 -6.49252e-10 6.31515e-10)
(-9.75226e-11 -5.99956e-10 5.84226e-10)
(1.39699e-10 -7.97652e-10 7.30587e-10)
(4.16875e-12 -8.32753e-10 7.55378e-10)
(-5.98085e-11 -8.14773e-10 7.4339e-10)
(-1.74217e-10 -7.4432e-10 6.95433e-10)
(2.65015e-10 -1.01386e-09 8.01935e-10)
(3.47906e-11 -1.02918e-09 8.24234e-10)
(-1.3216e-10 -1.00608e-09 8.11183e-10)
(-3.38658e-10 -9.44955e-10 7.63192e-10)
(4.14394e-10 -1.34799e-09 8.06942e-10)
(6.48064e-11 -1.29458e-09 8.28192e-10)
(-2.16771e-10 -1.26355e-09 8.15115e-10)
(-5.36464e-10 -1.25378e-09 7.67454e-10)
(3.40385e-11 -5.09001e-12 3.77745e-11)
(2.07319e-12 -3.84471e-11 4.52964e-11)
(-1.23351e-12 -4.05379e-11 4.41336e-11)
(-1.73241e-11 -1.9694e-11 3.46002e-11)
(7.53295e-11 -1.52768e-10 1.36194e-10)
(9.50052e-12 -1.85573e-10 1.5001e-10)
(6.01227e-14 -1.86101e-10 1.46912e-10)
(-4.44615e-11 -1.58318e-10 1.27669e-10)
(8.40584e-11 -3.28534e-10 2.49594e-10)
(1.03948e-11 -3.46488e-10 2.64297e-10)
(2.30865e-12 -3.43469e-10 2.59563e-10)
(-5.07029e-11 -3.21033e-10 2.36332e-10)
(7.77743e-11 -4.90022e-10 3.6547e-10)
(3.98527e-12 -5.04703e-10 3.78677e-10)
(2.15263e-12 -4.97364e-10 3.72468e-10)
(-5.1449e-11 -4.68942e-10 3.47772e-10)
(8.24166e-11 -6.33691e-10 4.71251e-10)
(-1.20458e-12 -6.59198e-10 4.82278e-10)
(-9.48127e-12 -6.47302e-10 4.74708e-10)
(-7.27242e-11 -5.98788e-10 4.49377e-10)
(1.32828e-10 -7.74588e-10 5.53702e-10)
(7.87727e-12 -8.11913e-10 5.62783e-10)
(-4.5864e-11 -7.95351e-10 5.5403e-10)
(-1.49583e-10 -7.25622e-10 5.2811e-10)
(2.57861e-10 -9.73388e-10 5.98643e-10)
(3.90295e-11 -9.92367e-10 6.06472e-10)
(-1.15814e-10 -9.70672e-10 5.96939e-10)
(-3.10723e-10 -9.08734e-10 5.70355e-10)
(4.04316e-10 -1.29322e-09 5.9651e-10)
(6.91235e-11 -1.248e-09 6.04662e-10)
(-1.97794e-10 -1.21826e-09 5.95141e-10)
(-5.02817e-10 -1.20293e-09 5.6771e-10)
(3.08999e-11 -7.8395e-12 2.93556e-11)
(2.05238e-12 -3.86087e-11 3.26418e-11)
(-6.71333e-13 -4.08976e-11 3.18633e-11)
(-1.34391e-11 -2.32277e-11 2.72525e-11)
(7.10374e-11 -1.53347e-10 1.00033e-10)
(9.97294e-12 -1.84701e-10 1.05611e-10)
(1.82876e-12 -1.85857e-10 1.03549e-10)
(-3.76886e-11 -1.60964e-10 9.44117e-11)
(8.20583e-11 -3.25673e-10 1.79184e-10)
(1.24271e-11 -3.44154e-10 1.84438e-10)
(4.76293e-12 -3.42033e-10 1.81284e-10)
(-4.40384e-11 -3.2102e-10 1.7042e-10)
(7.96193e-11 -4.82197e-10 2.59427e-10)
(8.24224e-12 -4.98464e-10 2.63233e-10)
(4.93088e-12 -4.9216e-10 2.59071e-10)
(-4.61295e-11 -4.64357e-10 2.47642e-10)
(8.81005e-11 -6.18684e-10 3.31666e-10)
(5.24374e-12 -6.45882e-10 3.33812e-10)
(-6.29271e-12 -6.35081e-10 3.28703e-10)
(-6.86584e-11 -5.87169e-10 3.16972e-10)
(1.40736e-10 -7.51809e-10 3.86156e-10)
(1.57624e-11 -7.90587e-10 3.8704e-10)
(-4.16341e-11 -7.75126e-10 3.81105e-10)
(-1.45247e-10 -7.06211e-10 3.6885e-10)
(2.64875e-10 -9.44159e-10 4.14061e-10)
(4.71134e-11 -9.65403e-10 4.14416e-10)
(-1.09506e-10 -9.44756e-10 4.07939e-10)
(-3.03178e-10 -8.82695e-10 3.94862e-10)
(4.08594e-10 -1.25751e-09 4.11269e-10)
(7.71023e-11 -1.21759e-09 4.122e-10)
(-1.89305e-10 -1.1888e-09 4.05736e-10)
(-4.90413e-10 -1.1701e-09 3.91711e-10)
(3.0211e-11 -8.45291e-12 1.8565e-11)
(2.45406e-12 -3.82415e-11 1.9835e-11)
(-7.89771e-13 -4.06557e-11 1.93894e-11)
(-1.23271e-11 -2.43237e-11 1.73683e-11)
(7.09926e-11 -1.50762e-10 6.1243e-11)
(1.12654e-11 -1.81907e-10 6.31381e-11)
(1.79579e-12 -1.83466e-10 6.19597e-11)
(-3.62137e-11 -1.59683e-10 5.80486e-11)
(8.4049e-11 -3.19169e-10 1.07933e-10)
(1.49721e-11 -3.3842e-10 1.09308e-10)
(4.8289e-12 -3.36892e-10 1.07503e-10)
(-4.3282e-11 -3.16369e-10 1.02944e-10)
(8.42105e-11 -4.7185e-10 1.54758e-10)
(1.22719e-11 -4.89325e-10 1.55151e-10)
(5.10773e-12 -4.83719e-10 1.52762e-10)
(-4.64068e-11 -4.56167e-10 1.48022e-10)
(9.50823e-11 -6.04655e-10 1.96469e-10)
(1.0664e-11 -6.32967e-10 1.95863e-10)
(-5.81705e-12 -6.22905e-10 1.92918e-10)
(-6.96495e-11 -5.75411e-10 1.88027e-10)
(1.48977e-10 -7.34908e-10 2.27413e-10)
(2.20748e-11 -7.74517e-10 2.2612e-10)
(-4.03947e-11 -7.5979e-10 2.22688e-10)
(-1.45838e-10 -6.91558e-10 2.17425e-10)
(2.72419e-10 -9.25282e-10 2.42844e-10)
(5.35574e-11 -9.47688e-10 2.41355e-10)
(-1.06855e-10 -9.27732e-10 2.37602e-10)
(-3.01513e-10 -8.65925e-10 2.31731e-10)
(4.1432e-10 -1.23554e-09 2.4097e-10)
(8.34844e-11 -1.19844e-09 2.39881e-10)
(-1.85196e-10 -1.17026e-09 2.36136e-10)
(-4.85507e-10 -1.15001e-09 2.29639e-10)
(3.0088e-11 -8.46266e-12 6.34214e-12)
(2.696e-12 -3.79201e-11 6.66869e-12)
(-9.10858e-13 -4.03952e-11 6.52376e-12)
(-1.20131e-11 -2.45635e-11 5.95403e-12)
(7.13816e-11 -1.4874e-10 2.06177e-11)
(1.20133e-11 -1.79947e-10 2.10493e-11)
(1.61387e-12 -1.81702e-10 2.06661e-11)
(-3.59488e-11 -1.58288e-10 1.9582e-11)
(8.55015e-11 -3.14786e-10 3.60409e-11)
(1.63602e-11 -3.34511e-10 3.62553e-11)
(4.64099e-12 -3.33275e-10 3.5668e-11)
(-4.34612e-11 -3.12889e-10 3.44222e-11)
(8.69242e-11 -4.65413e-10 5.1404e-11)
(1.43798e-11 -4.83516e-10 5.12779e-11)
(4.96559e-12 -4.78256e-10 5.04994e-11)
(-4.70945e-11 -4.50794e-10 4.92145e-11)
(9.8913e-11 -5.96672e-10 6.50128e-11)
(1.34329e-11 -6.25527e-10 6.4557e-11)
(-5.79227e-12 -6.15833e-10 6.35956e-11)
(-7.06324e-11 -5.68558e-10 6.22614e-11)
(1.53374e-10 -7.26064e-10 7.50411e-11)
(2.52707e-11 -7.66043e-10 7.43693e-11)
(-3.99711e-11 -7.51681e-10 7.32468e-11)
(-1.46561e-10 -6.83832e-10 7.17781e-11)
(2.76474e-10 -9.15963e-10 7.99965e-11)
(5.68327e-11 -9.3884e-10 7.92761e-11)
(-1.05735e-10 -9.19226e-10 7.80476e-11)
(-3.01112e-10 -8.57651e-10 7.63603e-11)
(4.17496e-10 -1.22495e-09 7.93553e-11)
(8.674e-11 -1.18901e-09 7.87706e-11)
(-1.83356e-10 -1.16114e-09 7.75443e-11)
(-4.83516e-10 -1.14035e-09 7.56456e-11)
)
;

boundaryField
{
    interface
    {
        type            calculated;
        value           nonuniform List<vector> 
192
(
(2.62274e-10 3.87246e-10 2.4626e-10)
(4.53797e-10 2.57062e-10 5.91126e-10)
(4.98459e-10 3.34483e-11 8.45912e-10)
(4.93071e-10 -1.78226e-10 1.06302e-09)
(4.90442e-10 -3.84236e-10 1.27607e-09)
(5.25769e-10 -6.23382e-10 1.50698e-09)
(6.27493e-10 -9.93079e-10 1.75592e-09)
(7.48751e-10 -1.54137e-09 1.95005e-09)
(1.59768e-10 1.8756e-10 8.00903e-11)
(2.97276e-10 3.9483e-11 2.97526e-10)
(3.24958e-10 -1.5568e-10 5.17244e-10)
(3.12893e-10 -3.45706e-10 7.20065e-10)
(3.05947e-10 -5.33137e-10 9.14937e-10)
(3.41494e-10 -7.36305e-10 1.11046e-09)
(4.59435e-10 -1.03048e-09 1.29271e-09)
(6.23025e-10 -1.49281e-09 1.40122e-09)
(8.01137e-11 8.39689e-11 3.30331e-11)
(1.66775e-10 -7.78732e-11 1.81374e-10)
(1.82193e-10 -2.68262e-10 3.64828e-10)
(1.69449e-10 -4.45112e-10 5.48491e-10)
(1.64457e-10 -6.07329e-10 7.22027e-10)
(2.05439e-10 -7.6585e-10 8.78395e-10)
(3.35286e-10 -9.93719e-10 9.95076e-10)
(5.15387e-10 -1.38961e-09 1.03033e-09)
(4.20637e-11 3.85323e-11 3.33792e-11)
(1.04504e-10 -1.26295e-10 1.52405e-10)
(1.15878e-10 -3.16643e-10 3.00961e-10)
(1.06889e-10 -4.85478e-10 4.54633e-10)
(1.07715e-10 -6.27516e-10 5.97706e-10)
(1.55231e-10 -7.54586e-10 7.15686e-10)
(2.90442e-10 -9.4519e-10 7.87569e-10)
(4.71342e-10 -1.3071e-09 7.91907e-10)
(2.73122e-11 2.2252e-11 3.41542e-11)
(8.16528e-11 -1.40264e-10 1.30103e-10)
(9.40726e-11 -3.27924e-10 2.44175e-10)
(9.01534e-11 -4.90433e-10 3.62098e-10)
(9.70015e-11 -6.19929e-10 4.7009e-10)
(1.49458e-10 -7.30728e-10 5.53962e-10)
(2.86011e-10 -9.05517e-10 5.98608e-10)
(4.63475e-10 -1.25194e-09 5.9506e-10)
(2.25556e-11 1.76448e-11 2.8399e-11)
(7.55818e-11 -1.40558e-10 9.89487e-11)
(9.06451e-11 -3.23529e-10 1.79182e-10)
(9.11224e-11 -4.80688e-10 2.61037e-10)
(1.02531e-10 -6.03406e-10 3.34833e-10)
(1.58112e-10 -7.07616e-10 3.90193e-10)
(2.94594e-10 -8.77195e-10 4.177e-10)
(4.68565e-10 -1.21626e-09 4.13771e-10)
(2.12761e-11 1.6848e-11 1.83621e-11)
(7.47258e-11 -1.37303e-10 6.13292e-11)
(9.20213e-11 -3.15866e-10 1.08794e-10)
(9.54562e-11 -4.69093e-10 1.56584e-10)
(1.09706e-10 -5.88465e-10 1.99172e-10)
(1.6705e-10 -6.90575e-10 2.30572e-10)
(3.03229e-10 -8.58947e-10 2.45744e-10)
(4.74788e-10 -1.19442e-09 2.43196e-10)
(2.09989e-11 1.69048e-11 6.31143e-12)
(7.48422e-11 -1.34887e-10 2.07151e-11)
(9.32925e-11 -3.10901e-10 3.64041e-11)
(9.81614e-11 -4.62061e-10 5.20825e-11)
(1.13741e-10 -5.80061e-10 6.59705e-11)
(1.71877e-10 -6.81675e-10 7.61404e-11)
(3.07871e-10 -8.49933e-10 8.10102e-11)
(4.78244e-10 -1.18393e-09 8.01492e-11)
(2.28147e-10 4.55792e-10 2.84624e-10)
(4.24675e-10 3.54665e-10 6.45732e-10)
(4.66665e-10 1.44163e-10 9.07241e-10)
(4.5498e-10 -6.78243e-11 1.12868e-09)
(4.47976e-10 -2.82856e-10 1.34198e-09)
(4.84108e-10 -5.40397e-10 1.56545e-09)
(5.86071e-10 -9.3831e-10 1.80458e-09)
(6.99855e-10 -1.51633e-09 1.99698e-09)
(4.6918e-11 3.64602e-10 2.58234e-10)
(9.73459e-11 2.76313e-10 6.07167e-10)
(1.02805e-10 1.06263e-10 8.55491e-10)
(8.5744e-11 -8.79231e-11 1.0619e-09)
(6.79054e-11 -3.06368e-10 1.25956e-09)
(6.52102e-11 -5.67921e-10 1.46999e-09)
(8.5708e-11 -9.4127e-10 1.71265e-09)
(1.08457e-10 -1.47374e-09 1.94118e-09)
(-6.89347e-11 3.53213e-10 2.41371e-10)
(-1.45143e-10 2.70945e-10 5.84403e-10)
(-1.75808e-10 1.0784e-10 8.28289e-10)
(-1.89747e-10 -8.00942e-11 1.03124e-09)
(-2.10158e-10 -2.9288e-10 1.22591e-09)
(-2.53826e-10 -5.48906e-10 1.43354e-09)
(-3.30319e-10 -9.15878e-10 1.67331e-09)
(-4.20316e-10 -1.43792e-09 1.89876e-09)
(-2.29842e-10 4.18617e-10 2.33954e-10)
(-4.43707e-10 3.40963e-10 5.74749e-10)
(-5.10225e-10 1.52566e-10 8.22113e-10)
(-5.29203e-10 -4.12731e-11 1.033e-09)
(-5.59903e-10 -2.4012e-10 1.23736e-09)
(-6.41651e-10 -4.81801e-10 1.45248e-09)
(-7.97582e-10 -8.6118e-10 1.6834e-09)
(-9.73654e-10 -1.40794e-09 1.86844e-09)
(-1.98315e-10 3.67309e-10 2.1983e-10)
(-4.00487e-10 2.60105e-10 5.356e-10)
(-4.64208e-10 5.94738e-11 7.72953e-10)
(-4.84816e-10 -1.3166e-10 9.77413e-10)
(-5.15663e-10 -3.18035e-10 1.17971e-09)
(-5.92389e-10 -5.37294e-10 1.40049e-09)
(-7.42711e-10 -8.8452e-10 1.63938e-09)
(-9.18778e-10 -1.39936e-09 1.82506e-09)
(-9.40486e-11 1.70533e-10 6.83178e-11)
(-2.32465e-10 4.4047e-11 2.65299e-10)
(-2.71782e-10 -1.30182e-10 4.69917e-10)
(-2.79772e-10 -3.00687e-10 6.61132e-10)
(-3.01186e-10 -4.68965e-10 8.46026e-10)
(-3.73445e-10 -6.52787e-10 1.0323e-09)
(-5.35323e-10 -9.25909e-10 1.20624e-09)
(-7.47956e-10 -1.35748e-09 1.3097e-09)
(-1.31282e-11 6.34545e-11 2.55699e-11)
(-9.40696e-11 -7.7796e-11 1.60038e-10)
(-1.1471e-10 -2.47938e-10 3.31606e-10)
(-1.16374e-10 -4.0565e-10 5.05164e-10)
(-1.3467e-10 -5.48952e-10 6.69747e-10)
(-2.07703e-10 -6.88516e-10 8.18032e-10)
(-3.77198e-10 -8.96081e-10 9.28078e-10)
(-6.02265e-10 -1.26203e-09 9.60167e-10)
(2.61515e-11 1.45027e-11 2.81044e-11)
(-2.62576e-11 -1.31634e-10 1.37606e-10)
(-3.81382e-11 -3.02571e-10 2.77431e-10)
(-3.88184e-11 -4.52589e-10 4.23044e-10)
(-5.85092e-11 -5.75831e-10 5.58678e-10)
(-1.33999e-10 -6.84034e-10 6.69984e-10)
(-3.05036e-10 -8.54392e-10 7.36616e-10)
(-5.27569e-10 -1.1862e-09 7.38664e-10)
(4.17748e-11 -4.24772e-12 3.04852e-11)
(1.92082e-13 -1.49973e-10 1.19949e-10)
(-9.46608e-12 -3.19286e-10 2.27907e-10)
(-1.16916e-11 -4.63435e-10 3.39872e-10)
(-3.3869e-11 -5.74253e-10 4.4216e-10)
(-1.10937e-10 -6.6612e-10 5.20867e-10)
(-2.80193e-10 -8.20423e-10 5.61484e-10)
(-4.9653e-10 -1.13634e-09 5.56197e-10)
(4.70917e-11 -1.04458e-11 2.60029e-11)
(8.5462e-12 -1.53314e-10 9.23489e-11)
(-1.6042e-12 -3.18909e-10 1.68564e-10)
(-5.79788e-12 -4.58201e-10 2.4638e-10)
(-2.99484e-11 -5.62387e-10 3.16203e-10)
(-1.07604e-10 -6.47579e-10 3.67913e-10)
(-2.74421e-10 -7.96401e-10 3.92559e-10)
(-4.85166e-10 -1.10456e-09 3.87383e-10)
(4.86894e-11 -1.21886e-11 1.70116e-11)
(1.07068e-11 -1.51944e-10 5.76132e-11)
(-3.74174e-13 -3.1382e-10 1.028e-10)
(-5.96872e-12 -4.49573e-10 1.48263e-10)
(-3.12791e-11 -5.50551e-10 1.8852e-10)
(-1.09017e-10 -6.3359e-10 2.17753e-10)
(-2.73949e-10 -7.81005e-10 2.31214e-10)
(-4.80876e-10 -1.08529e-09 2.27915e-10)
(4.91089e-11 -1.25731e-11 5.87545e-12)
(1.11871e-11 -1.50426e-10 1.95156e-11)
(-4.32431e-13 -3.10102e-10 3.44668e-11)
(-6.69922e-12 -4.44e-10 4.93862e-11)
(-3.25233e-11 -5.43689e-10 6.2507e-11)
(-1.1022e-10 -6.2621e-10 7.1959e-11)
(-2.74177e-10 -7.7341e-10 7.626e-11)
(-4.79216e-10 -1.07607e-09 7.51475e-11)
(6.97442e-10 -1.58676e-09 2.0003e-09)
(5.78192e-10 -1.5406e-09 1.42236e-09)
(4.68842e-10 -1.44837e-09 1.02525e-09)
(4.21489e-10 -1.3754e-09 7.72977e-10)
(4.13649e-10 -1.32345e-09 5.7389e-10)
(4.1924e-10 -1.28856e-09 3.96848e-10)
(4.25601e-10 -1.26701e-09 2.3283e-10)
(4.29019e-10 -1.25666e-09 7.67079e-11)
(1.06342e-10 -1.52634e-09 1.96209e-09)
(7.7874e-11 -1.44366e-09 1.42993e-09)
(5.02522e-11 -1.34717e-09 1.05722e-09)
(4.36949e-11 -1.28538e-09 7.98272e-10)
(5.03807e-11 -1.24472e-09 5.85414e-10)
(5.99239e-11 -1.21726e-09 3.99809e-10)
(6.7163e-11 -1.19966e-09 2.32736e-10)
(7.07863e-11 -1.19094e-09 7.64147e-11)
(-4.22229e-10 -1.47991e-09 1.92985e-09)
(-3.37627e-10 -1.39957e-09 1.4078e-09)
(-2.66552e-10 -1.30516e-09 1.04075e-09)
(-2.26976e-10 -1.24505e-09 7.85931e-10)
(-2.09063e-10 -1.20568e-09 5.76454e-10)
(-2.01182e-10 -1.17916e-09 3.93737e-10)
(-1.97306e-10 -1.16216e-09 2.29221e-10)
(-1.95525e-10 -1.15374e-09 7.52645e-11)
(-9.75725e-10 -1.44567e-09 1.90335e-09)
(-8.04737e-10 -1.40491e-09 1.35604e-09)
(-6.53178e-10 -1.31852e-09 9.75714e-10)
(-5.72698e-10 -1.25054e-09 7.35718e-10)
(-5.39949e-10 -1.20246e-09 5.4679e-10)
(-5.27863e-10 -1.17037e-09 3.78479e-10)
(-5.22934e-10 -1.15063e-09 2.22202e-10)
(-5.20858e-10 -1.14117e-09 7.32303e-11)
)
;
    }
    symmetry
    {
        type            symmetry;
    }
    bottom
    {
        type            calculated;
        value           uniform (0 0 0);
    }
}


// ************************************************************************* //
