/*--------------------------------*- C++ -*----------------------------------*\
| =========                 |                                                 |
| \\      /  F ield         | OpenFOAM: The Open Source CFD Toolbox           |
|  \\    /   O peration     | Version:  v1912                                 |
|   \\  /    A nd           | Website:  www.openfoam.com                      |
|    \\/     M anipulation  |                                                 |
\*---------------------------------------------------------------------------*/
FoamFile
{
    version     2.0;
    format      ascii;
    class       volScalarField;
    location    "0.78/solid";
    object      epsilonEq;
}
// * * * * * * * * * * * * * * * * * * * * * * * * * * * * * * * * * * * * * //

dimensions      [0 0 0 0 0 0 0];


internalField   nonuniform List<scalar> 
256
(
2.89101e-06
2.01552e-06
1.98285e-06
2.74633e-06
1.64218e-06
1.36845e-06
1.34437e-06
1.53447e-06
1.61146e-06
1.2659e-06
1.24278e-06
1.50315e-06
1.68563e-06
1.25441e-06
1.23151e-06
1.57526e-06
1.73794e-06
1.26996e-06
1.24708e-06
1.62593e-06
1.71253e-06
1.27032e-06
1.24756e-06
1.59973e-06
1.35628e-06
1.13185e-06
1.11317e-06
1.25278e-06
2.77834e-07
1.28075e-06
1.27019e-06
2.86142e-07
1.69447e-06
4.34822e-07
4.20893e-07
1.5477e-06
1.21979e-06
4.29558e-07
4.17665e-07
1.09032e-06
1.17915e-06
3.23796e-07
3.14752e-07
1.05032e-06
1.18584e-06
2.17526e-07
2.12196e-07
1.05501e-06
1.21264e-06
1.79819e-07
1.78407e-07
1.07912e-06
1.24401e-06
2.05311e-07
2.03922e-07
1.10794e-06
1.15475e-06
1.97404e-07
2.00958e-07
1.02081e-06
1.35695e-06
1.13471e-06
1.11578e-06
1.25255e-06
1.39527e-06
2.67905e-07
2.62494e-07
1.25176e-06
1.16206e-06
2.54625e-07
2.45366e-07
1.03255e-06
1.14004e-06
1.80156e-07
1.72671e-07
1.00924e-06
1.14702e-06
1.24628e-07
1.23852e-07
1.01347e-06
1.18059e-06
1.33165e-07
1.37244e-07
1.04375e-06
1.23731e-06
1.51719e-07
1.52912e-07
1.09717e-06
1.24209e-06
2.01491e-07
2.00587e-07
1.10488e-06
1.71579e-06
1.27608e-06
1.25302e-06
1.60155e-06
1.24063e-06
2.51504e-07
2.50205e-07
1.103e-06
1.08316e-06
2.36895e-07
2.33572e-07
9.60313e-07
1.06727e-06
1.82858e-07
1.81929e-07
9.4144e-07
1.07436e-06
1.57829e-07
1.62586e-07
9.44555e-07
1.11129e-06
1.60803e-07
1.68381e-07
9.77347e-07
1.17624e-06
1.47041e-07
1.52034e-07
1.03798e-06
1.20729e-06
1.66045e-07
1.66746e-07
1.07123e-06
1.75232e-06
1.28149e-06
1.25824e-06
1.63811e-06
1.15182e-06
2.17794e-07
2.17542e-07
1.01749e-06
1.01511e-06
2.16298e-07
2.15019e-07
8.95852e-07
1.00578e-06
1.76453e-07
1.77319e-07
8.82923e-07
1.01717e-06
1.54506e-07
1.60088e-07
8.89672e-07
1.05994e-06
1.50234e-07
1.58097e-07
9.27911e-07
1.13113e-06
1.24263e-07
1.29213e-07
9.94314e-07
1.1742e-06
1.5957e-07
1.59077e-07
1.03928e-06
1.72983e-06
1.26866e-06
1.24534e-06
1.6161e-06
1.10145e-06
1.862e-07
1.86058e-07
9.68679e-07
9.69551e-07
1.89216e-07
1.88115e-07
8.51565e-07
9.65131e-07
1.51791e-07
1.52572e-07
8.43321e-07
9.81805e-07
1.24759e-07
1.30392e-07
8.55128e-07
1.03029e-06
1.1518e-07
1.23173e-07
8.99036e-07
1.10667e-06
8.84764e-08
9.19956e-08
9.7056e-07
1.15796e-06
1.7256e-07
1.70041e-07
1.02387e-06
1.71007e-06
1.25895e-06
1.23548e-06
1.59655e-06
1.07389e-06
1.61446e-07
1.61123e-07
9.41804e-07
9.42756e-07
1.64319e-07
1.6285e-07
8.2507e-07
9.41264e-07
1.22925e-07
1.23188e-07
8.19647e-07
9.61892e-07
8.79956e-08
9.42181e-08
8.3538e-07
1.0144e-06
7.56996e-08
8.50051e-08
8.83367e-07
1.09442e-06
5.51887e-08
5.6747e-08
9.58621e-07
1.15132e-06
1.86832e-07
1.83097e-07
1.01781e-06
1.69956e-06
1.25318e-06
1.2296e-06
1.58611e-06
1.06159e-06
1.47145e-07
1.46646e-07
9.29748e-07
9.3043e-07
1.49057e-07
1.47254e-07
8.12763e-07
9.30299e-07
1.02953e-07
1.0279e-07
8.0866e-07
9.52936e-07
5.90379e-08
6.6836e-08
8.26419e-07
1.00744e-06
4.42943e-08
5.71107e-08
8.76449e-07
1.08928e-06
3.12282e-08
3.05529e-08
9.53603e-07
1.14904e-06
1.9462e-07
1.90393e-07
1.01582e-06
1.69543e-06
1.25052e-06
1.22689e-06
1.58202e-06
)
;

boundaryField
{
    interface
    {
        type            calculated;
        value           nonuniform List<scalar> 
192
(
3.6444e-06
2.27869e-06
2.2613e-06
2.36733e-06
2.45214e-06
2.45901e-06
2.1413e-06
1.185e-06
2.69047e-06
2.06999e-06
2.04124e-06
2.09342e-06
2.16786e-06
2.24057e-06
2.1765e-06
2.14284e-06
2.3379e-06
1.99419e-06
1.99071e-06
2.04175e-06
2.12311e-06
2.22315e-06
2.24191e-06
2.46505e-06
2.11669e-06
1.86476e-06
1.87446e-06
1.9271e-06
2.01259e-06
2.12349e-06
2.17187e-06
2.47268e-06
1.98279e-06
1.75775e-06
1.77572e-06
1.83287e-06
1.92376e-06
2.0417e-06
2.10407e-06
2.42518e-06
1.90501e-06
1.68791e-06
1.71067e-06
1.77243e-06
1.86822e-06
1.99109e-06
2.06147e-06
2.38742e-06
1.86221e-06
1.64772e-06
1.67304e-06
1.73806e-06
1.8372e-06
1.96316e-06
2.03821e-06
2.36569e-06
1.84316e-06
1.62955e-06
1.65601e-06
1.72265e-06
1.82342e-06
1.95085e-06
2.02808e-06
2.35626e-06
3.68874e-06
2.32301e-06
2.30752e-06
2.41674e-06
2.50363e-06
2.50962e-06
2.18978e-06
1.23681e-06
3.07563e-06
2.26676e-06
2.17784e-06
2.21243e-06
2.27446e-06
2.3171e-06
2.20745e-06
2.11817e-06
3.02383e-06
2.22482e-06
2.13568e-06
2.16946e-06
2.23085e-06
2.273e-06
2.16578e-06
2.0899e-06
3.51858e-06
2.19829e-06
2.18072e-06
2.28646e-06
2.37116e-06
2.37653e-06
2.06849e-06
1.21198e-06
3.41521e-06
2.07794e-06
2.05715e-06
2.1588e-06
2.23961e-06
2.24272e-06
1.92597e-06
1.00075e-06
2.44071e-06
1.83922e-06
1.80829e-06
1.85555e-06
1.9246e-06
1.99204e-06
1.92721e-06
1.92608e-06
2.09429e-06
1.76641e-06
1.75956e-06
1.80522e-06
1.88046e-06
1.97394e-06
1.9912e-06
2.24576e-06
1.88101e-06
1.64482e-06
1.65001e-06
1.69646e-06
1.77506e-06
1.87825e-06
1.92369e-06
2.25517e-06
1.75213e-06
1.5427e-06
1.55573e-06
1.6062e-06
1.68977e-06
1.79933e-06
1.85798e-06
2.20904e-06
1.6772e-06
1.47536e-06
1.493e-06
1.54786e-06
1.63614e-06
1.75032e-06
1.81671e-06
2.17204e-06
1.63594e-06
1.43637e-06
1.45649e-06
1.51454e-06
1.60608e-06
1.72324e-06
1.79424e-06
2.15074e-06
1.61756e-06
1.41869e-06
1.43991e-06
1.49956e-06
1.59271e-06
1.7113e-06
1.78449e-06
2.1415e-06
1.24034e-06
2.19299e-06
2.51692e-06
2.52597e-06
2.47808e-06
2.43918e-06
2.41654e-06
2.40666e-06
2.12059e-06
2.21283e-06
2.32788e-06
2.2963e-06
2.24902e-06
2.21374e-06
2.1918e-06
2.18144e-06
2.09196e-06
2.17057e-06
2.28293e-06
2.25147e-06
2.20428e-06
2.16897e-06
2.14699e-06
2.1366e-06
1.2138e-06
2.07001e-06
2.38145e-06
2.38998e-06
2.34232e-06
2.30346e-06
2.28078e-06
2.27086e-06
)
;
    }
    symmetry
    {
        type            symmetry;
    }
    bottom
    {
        type            calculated;
        value           nonuniform List<scalar> 
32
(
4.16419e-06
2.21558e-06
1.70873e-06
1.50589e-06
1.40319e-06
1.34698e-06
1.31664e-06
1.30319e-06
2.63868e-06
5.52009e-07
2.61869e-07
2.45189e-07
2.15956e-07
1.86939e-07
1.63983e-07
1.50749e-07
2.59862e-06
5.32503e-07
2.47791e-07
2.34856e-07
2.05484e-07
1.75296e-07
1.50792e-07
1.36334e-07
3.98275e-06
2.05121e-06
1.54806e-06
1.35076e-06
1.25182e-06
1.19781e-06
1.16861e-06
1.15564e-06
)
;
    }
}


// ************************************************************************* //
