/*--------------------------------*- C++ -*----------------------------------*\
| =========                 |                                                 |
| \\      /  F ield         | OpenFOAM: The Open Source CFD Toolbox           |
|  \\    /   O peration     | Version:  v1912                                 |
|   \\  /    A nd           | Website:  www.openfoam.com                      |
|    \\/     M anipulation  |                                                 |
\*---------------------------------------------------------------------------*/
FoamFile
{
    version     2.0;
    format      ascii;
    class       volSymmTensorField;
    location    "0.78/solid";
    object      epsilon;
}
// * * * * * * * * * * * * * * * * * * * * * * * * * * * * * * * * * * * * * //

dimensions      [0 0 0 0 0 0 0];


internalField   nonuniform List<symmTensor> 
256
(
(-2.83727e-06 2.08686e-07 -7.64268e-08 1.43316e-06 2.38547e-07 -2.89502e-06)
(-6.41268e-07 -3.69672e-08 -3.25628e-08 8.94368e-07 2.36201e-07 -2.55616e-06)
(-6.2277e-07 3.09891e-08 3.07357e-08 8.7613e-07 2.36264e-07 -2.51682e-06)
(-2.642e-06 -2.02921e-07 7.52239e-08 1.36671e-06 2.39068e-07 -2.78378e-06)
(-2.93919e-06 2.14874e-09 -1.17642e-07 -4.92886e-07 3.47783e-08 -2.95469e-06)
(-1.10145e-06 -3.47839e-08 -5.42089e-08 -2.41453e-07 4.54484e-08 -2.57937e-06)
(-1.07655e-06 3.54788e-08 5.23384e-08 -2.4647e-07 4.62923e-08 -2.54069e-06)
(-2.73526e-06 -1.06692e-09 1.16083e-07 -5.0062e-07 3.71262e-08 -2.84597e-06)
(-3.009e-06 -3.01672e-08 -1.27157e-07 -6.08538e-07 1.95938e-09 -3.02116e-06)
(-1.15887e-06 -3.25964e-08 -5.97853e-08 -4.4769e-07 3.75893e-09 -2.59559e-06)
(-1.13411e-06 3.45911e-08 5.83368e-08 -4.50322e-07 4.32754e-09 -2.5559e-06)
(-2.80152e-06 3.0857e-08 1.25663e-07 -6.13644e-07 3.58651e-09 -2.90901e-06)
(-3.06959e-06 -2.06042e-08 -1.32291e-07 -5.68508e-07 1.01767e-08 -3.10256e-06)
(-1.11951e-06 -2.50929e-08 -6.24912e-08 -5.45722e-07 7.06712e-09 -2.64364e-06)
(-1.09479e-06 2.65828e-08 6.12592e-08 -5.47791e-07 7.34972e-09 -2.60298e-06)
(-2.85821e-06 2.12854e-08 1.30867e-07 -5.73895e-07 1.10417e-08 -2.9875e-06)
(-3.16258e-06 -2.20623e-09 -1.37713e-07 -5.92042e-07 3.21203e-08 -3.21156e-06)
(-1.11561e-06 -1.26833e-08 -6.54966e-08 -6.35666e-07 2.76008e-08 -2.73046e-06)
(-1.09055e-06 1.33828e-08 6.43053e-08 -6.37693e-07 2.7706e-08 -2.689e-06)
(-2.94731e-06 2.63275e-09 1.36331e-07 -5.9737e-07 3.24663e-08 -3.0943e-06)
(-3.32584e-06 3.34697e-08 -1.42351e-07 -7.93893e-07 7.25354e-08 -3.3678e-06)
(-1.2181e-06 9.9981e-09 -6.82994e-08 -8.0304e-07 6.97727e-08 -2.8741e-06)
(-1.19281e-06 -1.06786e-08 6.70551e-08 -8.04653e-07 6.97407e-08 -2.83189e-06)
(-3.10729e-06 -3.3659e-08 1.41007e-07 -7.97995e-07 7.24674e-08 -3.24863e-06)
(-3.60383e-06 9.65931e-08 -1.40635e-07 -1.6116e-06 1.33883e-07 -3.61818e-06)
(-1.48872e-06 4.51853e-08 -6.77268e-08 -1.44814e-06 1.39932e-07 -3.14252e-06)
(-1.46324e-06 -4.84415e-08 6.63621e-08 -1.44418e-06 1.39718e-07 -3.0996e-06)
(-3.38275e-06 -9.76446e-08 1.39319e-07 -1.60128e-06 1.33331e-07 -3.49745e-06)
(-4.09493e-06 1.27202e-07 -1.26862e-07 -4.10361e-06 1.59996e-07 -4.10164e-06)
(-1.8589e-06 6.15762e-08 -6.13196e-08 -3.75153e-06 1.74602e-07 -3.74864e-06)
(-1.83175e-06 -5.98282e-08 5.97791e-08 -3.70854e-06 1.74331e-07 -3.70595e-06)
(-3.86829e-06 -1.25717e-07 1.25537e-07 -3.98431e-06 1.59345e-07 -3.98342e-06)
(-2.29791e-06 1.25365e-07 -5.95217e-08 6.04777e-07 2.45976e-08 -5.6116e-07)
(-4.30571e-07 -5.90254e-08 -1.94748e-08 1.59514e-07 1.18486e-07 -4.68021e-07)
(-4.1274e-07 5.81352e-08 2.14991e-08 1.44948e-07 1.21652e-07 -4.6466e-07)
(-2.10563e-06 -1.1785e-07 6.01883e-08 5.48309e-07 3.35979e-08 -5.52607e-07)
(-2.37693e-06 -1.29202e-08 -9.23795e-08 -3.41593e-07 4.52082e-08 -9.02601e-07)
(-7.51729e-07 -3.87216e-08 -3.90888e-08 -1.38794e-07 9.47196e-08 -7.57361e-07)
(-7.28546e-07 4.09458e-08 4.19898e-08 -1.46066e-07 9.65358e-08 -7.53155e-07)
(-2.18057e-06 1.43222e-08 9.31741e-08 -3.55194e-07 5.04368e-08 -8.9169e-07)
(-2.41288e-06 -3.17084e-08 -9.73786e-08 -4.55573e-07 3.88575e-08 -9.66129e-07)
(-7.79204e-07 -3.17246e-08 -4.27732e-08 -3.24664e-07 5.43992e-08 -8.04042e-07)
(-7.56633e-07 3.33738e-08 4.62098e-08 -3.28441e-07 5.55415e-08 -8.00202e-07)
(-2.21417e-06 3.20988e-08 9.82758e-08 -4.63704e-07 4.22209e-08 -9.56008e-07)
(-2.45091e-06 -2.17041e-08 -9.90038e-08 -4.86972e-07 4.2195e-08 -9.8413e-07)
(-7.33264e-07 -2.42701e-08 -4.31764e-08 -4.74164e-07 4.41018e-08 -8.10887e-07)
(-7.10856e-07 2.50264e-08 4.70224e-08 -4.76571e-07 4.47913e-08 -8.07285e-07)
(-2.24835e-06 2.20447e-08 1.00034e-07 -4.93383e-07 4.42541e-08 -9.74587e-07)
(-2.53027e-06 -3.96449e-09 -1.01804e-07 -5.28529e-07 7.16309e-08 -1.0226e-06)
(-7.2369e-07 -1.28723e-08 -4.47805e-08 -5.76755e-07 6.91313e-08 -8.39196e-07)
(-7.00876e-07 1.29548e-08 4.88024e-08 -5.7887e-07 6.94629e-08 -8.35647e-07)
(-2.32307e-06 4.17995e-09 1.02934e-07 -5.3426e-07 7.26051e-08 -1.01321e-06)
(-2.69216e-06 3.31479e-08 -1.04201e-07 -6.63555e-07 1.19753e-07 -1.1151e-06)
(-8.21789e-07 9.58135e-09 -4.67318e-08 -6.73226e-07 1.16316e-07 -9.23219e-07)
(-7.98514e-07 -1.06671e-08 5.07211e-08 -6.74973e-07 1.16347e-07 -9.19632e-07)
(-2.48021e-06 -3.34075e-08 1.05396e-07 -6.68125e-07 1.19798e-07 -1.10567e-06)
(-2.99894e-06 1.02906e-07 -1.02582e-07 -1.30362e-06 1.57705e-07 -1.31061e-06)
(-1.09793e-06 4.68813e-08 -4.65481e-08 -1.11757e-06 1.57186e-07 -1.12093e-06)
(-1.07419e-06 -5.04139e-08 5.03662e-08 -1.11397e-06 1.56958e-07 -1.1172e-06)
(-2.78274e-06 -1.03963e-07 1.03823e-07 -1.29415e-06 1.56999e-07 -1.30088e-06)
(-3.6059e-06 1.40839e-07 -9.60729e-08 -3.61997e-06 1.34695e-07 -1.61264e-06)
(-1.48899e-06 6.78607e-08 -4.46497e-08 -3.14576e-06 1.40608e-07 -1.44602e-06)
(-1.46337e-06 -6.63619e-08 4.84211e-08 -3.10233e-06 1.40393e-07 -1.44192e-06)
(-3.38335e-06 -1.39406e-07 9.74044e-08 -3.49754e-06 1.34126e-07 -1.6021e-06)
(-1.9629e-06 6.82247e-08 -2.46854e-08 2.69403e-07 9.4807e-08 -7.20812e-08)
(-2.79525e-07 -8.40182e-08 -3.27923e-09 -1.00303e-07 1.85414e-07 -7.566e-08)
(-2.62265e-07 8.30977e-08 4.29932e-09 -1.13394e-07 1.87234e-07 -7.61673e-08)
(-1.77694e-06 -6.09996e-08 2.48665e-08 2.17547e-07 1.00401e-07 -7.34539e-08)
(-2.05239e-06 -2.14829e-08 -3.72223e-08 -3.96734e-07 1.16716e-07 -2.57059e-07)
(-4.90179e-07 -4.3749e-08 -1.03863e-08 -2.28818e-07 1.62974e-07 -2.65173e-07)
(-4.67705e-07 4.6246e-08 1.17805e-08 -2.36276e-07 1.64348e-07 -2.6581e-07)
(-1.86196e-06 2.29713e-08 3.75195e-08 -4.11061e-07 1.2087e-07 -2.58774e-07)
(-2.08513e-06 -3.05115e-08 -3.69427e-08 -4.22e-07 1.07273e-07 -3.5448e-07)
(-4.95356e-07 -3.07596e-08 -1.08964e-08 -3.19147e-07 1.22091e-07 -3.64519e-07)
(-4.73559e-07 3.24583e-08 1.23857e-08 -3.23437e-07 1.23113e-07 -3.65472e-07)
(-1.89234e-06 3.09065e-08 3.72861e-08 -4.31629e-07 1.10322e-07 -3.57027e-07)
(-2.11962e-06 -2.11913e-08 -3.54201e-08 -4.18317e-07 1.00826e-07 -4.00779e-07)
(-4.48145e-07 -2.36892e-08 -9.68315e-09 -4.16773e-07 1.029e-07 -4.10566e-07)
(-4.2654e-07 2.42689e-08 1.13054e-08 -4.19592e-07 1.03603e-07 -4.11835e-07)
(-1.92291e-06 2.14644e-08 3.58216e-08 -4.2595e-07 1.02904e-07 -4.04153e-07)
(-2.19831e-06 -4.32262e-09 -3.50008e-08 -4.28034e-07 1.1409e-07 -4.51283e-07)
(-4.38129e-07 -1.34543e-08 -9.43317e-09 -4.79934e-07 1.12217e-07 -4.59526e-07)
(-4.16051e-07 1.32609e-08 1.11382e-08 -4.82336e-07 1.12616e-07 -4.60966e-07)
(-1.99639e-06 4.46977e-09 3.54585e-08 -4.34674e-07 1.15237e-07 -4.55099e-07)
(-2.36703e-06 3.3598e-08 -3.47932e-08 -5.13842e-07 1.33255e-07 -5.41221e-07)
(-5.3701e-07 8.99195e-09 -9.88214e-09 -5.24259e-07 1.30188e-07 -5.47597e-07)
(-5.14291e-07 -1.03855e-08 1.15633e-08 -5.26247e-07 1.30318e-07 -5.49069e-07)
(-2.15918e-06 -3.38976e-08 3.52964e-08 -5.19157e-07 1.33567e-07 -5.45102e-07)
(-2.69337e-06 1.04551e-07 -3.42625e-08 -1.10154e-06 1.25294e-07 -6.77859e-07)
(-8.18447e-07 4.69865e-08 -1.04426e-08 -9.13701e-07 1.21688e-07 -6.83955e-07)
(-7.9498e-07 -5.08449e-08 1.2016e-08 -9.10289e-07 1.21628e-07 -6.8534e-07)
(-2.47948e-06 -1.05629e-07 3.48122e-08 -1.09253e-06 1.25032e-07 -6.81487e-07)
(-3.33016e-06 1.42567e-07 -3.42705e-08 -3.37081e-06 7.5747e-08 -7.92963e-07)
(-1.21553e-06 6.83702e-08 -1.06986e-08 -2.87911e-06 7.28895e-08 -7.99138e-07)
(-1.18991e-06 -6.70309e-08 1.22335e-08 -2.83608e-06 7.28229e-08 -8.00403e-07)
(-3.1082e-06 -1.41127e-07 3.49094e-08 -3.24907e-06 7.5541e-08 -7.96251e-07)
(-1.77491e-06 4.48225e-08 -6.49666e-09 1.46468e-07 1.18288e-07 -1.03651e-08)
(-2.12478e-07 -9.22547e-08 4.11971e-09 -1.78631e-07 1.73578e-07 -3.58942e-08)
(-1.95847e-07 9.04847e-08 -3.48717e-09 -1.91135e-07 1.74703e-07 -3.64015e-08)
(-1.59426e-06 -3.82562e-08 6.53359e-09 9.69532e-08 1.22011e-07 -1.17419e-08)
(-1.86266e-06 -2.32564e-08 -8.32849e-09 -4.49955e-07 1.43063e-07 -1.17199e-07)
(-3.70247e-07 -4.46078e-08 4.84085e-09 -3.02214e-07 1.70879e-07 -1.65473e-07)
(-3.48487e-07 4.66682e-08 -4.00602e-09 -3.09445e-07 1.71836e-07 -1.66353e-07)
(-1.67743e-06 2.45698e-08 8.40885e-09 -4.63975e-07 1.46098e-07 -1.1963e-07)
(-1.8987e-06 -2.78008e-08 -6.09446e-09 -4.31507e-07 1.40338e-07 -2.2336e-07)
(-3.67488e-07 -2.90142e-08 6.13942e-09 -3.46096e-07 1.48601e-07 -2.79301e-07)
(-3.46315e-07 3.05635e-08 -5.38644e-09 -3.50488e-07 1.49384e-07 -2.8042e-07)
(-1.71094e-06 2.81638e-08 6.17349e-09 -4.41607e-07 1.42732e-07 -2.26468e-07)
(-1.9368e-06 -1.91517e-08 -3.75742e-09 -3.8146e-07 1.30855e-07 -3.04598e-07)
(-3.25082e-07 -2.23347e-08 7.72534e-09 -3.87351e-07 1.30919e-07 -3.62863e-07)
(-3.04053e-07 2.28358e-08 -7.01919e-09 -3.90411e-07 1.31508e-07 -3.64201e-07)
(-1.74496e-06 1.9412e-08 3.83707e-09 -3.89857e-07 1.32618e-07 -3.08298e-07)
(-2.0195e-06 -3.23941e-09 -2.26905e-09 -3.54546e-07 1.26135e-07 -3.79662e-07)
(-3.20259e-07 -1.3103e-08 8.60591e-09 -4.08593e-07 1.23972e-07 -4.38471e-07)
(-2.98703e-07 1.28014e-08 -7.91048e-09 -4.11241e-07 1.24354e-07 -4.39955e-07)
(-1.82207e-06 3.37295e-09 2.36255e-09 -3.61949e-07 1.27244e-07 -3.83742e-07)
(-2.19438e-06 3.38162e-08 -1.54371e-09 -4.20963e-07 1.16482e-07 -4.65018e-07)
(-4.22974e-07 8.40314e-09 8.61944e-09 -4.3351e-07 1.14131e-07 -5.23383e-07)
(-4.00665e-07 -9.9576e-09 -7.95301e-09 -4.35695e-07 1.14319e-07 -5.2492e-07)
(-1.99021e-06 -3.41235e-08 1.65942e-09 -4.26888e-07 1.1698e-07 -4.69204e-07)
(-2.52913e-06 1.02383e-07 -2.1009e-09 -1.00498e-06 8.35126e-08 -5.48521e-07)
(-7.05244e-07 4.49101e-08 7.61368e-09 -8.25328e-07 8.05479e-08 -6.05502e-07)
(-6.81989e-07 -4.89588e-08 -7.02165e-09 -8.22037e-07 8.0596e-08 -6.07017e-07)
(-2.31756e-06 -1.03456e-07 2.2464e-09 -9.96277e-07 8.35761e-08 -5.52602e-07)
(-3.16783e-06 1.3828e-07 -3.66437e-09 -3.22061e-06 3.91218e-08 -5.77953e-07)
(-1.09861e-06 6.56213e-08 7.18105e-09 -2.74051e-06 3.49363e-08 -6.32558e-07)
(-1.07297e-06 -6.43737e-08 -6.66553e-09 -2.6978e-06 3.49307e-08 -6.34059e-07)
(-2.94667e-06 -1.3682e-07 3.85188e-09 -3.09956e-06 3.90842e-08 -5.8194e-07)
(-1.67127e-06 3.79399e-08 -8.71969e-10 1.0028e-07 1.08591e-07 -1.63456e-08)
(-1.89227e-07 -9.13482e-08 4.68724e-09 -2.02779e-07 1.36162e-07 -3.51615e-08)
(-1.73083e-07 8.89399e-08 -4.23308e-09 -2.14936e-07 1.36937e-07 -3.54949e-08)
(-1.49432e-06 -3.18843e-08 9.03892e-10 5.23305e-08 1.11208e-07 -1.73277e-08)
(-1.75627e-06 -2.20886e-08 4.4442e-10 -4.70423e-07 1.29976e-07 -1.0027e-07)
(-3.2975e-07 -4.30445e-08 7.47856e-09 -3.33404e-07 1.43135e-07 -1.3647e-07)
(-3.08602e-07 4.46192e-08 -6.8521e-09 -3.4045e-07 1.4382e-07 -1.37182e-07)
(-1.57481e-06 2.31925e-08 -3.82316e-10 -4.84156e-07 1.32194e-07 -1.02367e-07)
(-1.79606e-06 -2.52646e-08 2.61714e-09 -4.39445e-07 1.33904e-07 -2.01209e-07)
(-3.27761e-07 -2.72824e-08 9.04823e-09 -3.6314e-07 1.36867e-07 -2.43271e-07)
(-3.07129e-07 2.85737e-08 -8.51747e-09 -3.67528e-07 1.37442e-07 -2.44211e-07)
(-1.61194e-06 2.55467e-08 -2.57274e-09 -4.49709e-07 1.35705e-07 -2.03976e-07)
(-1.83905e-06 -1.71666e-08 4.51094e-09 -3.65357e-07 1.26235e-07 -2.95745e-07)
(-2.91853e-07 -2.10635e-08 1.02854e-08 -3.7491e-07 1.24974e-07 -3.39222e-07)
(-2.7131e-07 2.14505e-08 -9.85942e-09 -3.78088e-07 1.25427e-07 -3.4033e-07)
(-1.65068e-06 1.7399e-08 -4.49129e-09 -3.74178e-07 1.2762e-07 -2.98996e-07)
(-1.92643e-06 -2.1035e-09 5.79746e-09 -3.18115e-07 1.12766e-07 -3.80968e-07)
(-2.9315e-07 -1.2596e-08 1.10084e-08 -3.72786e-07 1.10791e-07 -4.24418e-07)
(-2.72033e-07 1.22228e-08 -1.06449e-08 -3.7559e-07 1.11111e-07 -4.25646e-07)
(-1.73217e-06 2.22905e-09 -5.78888e-09 -3.26024e-07 1.13716e-07 -3.84546e-07)
(-2.10541e-06 3.36099e-08 6.27161e-09 -3.79884e-07 9.00236e-08 -4.56612e-07)
(-3.99154e-07 7.80207e-09 1.10098e-08 -3.93925e-07 8.86956e-08 -4.99377e-07)
(-3.77212e-07 -9.44003e-09 -1.06922e-08 -3.96247e-07 8.88858e-08 -5.00668e-07)
(-1.9039e-06 -3.39155e-08 -6.2603e-09 -3.86242e-07 9.05545e-08 -4.60341e-07)
(-2.44229e-06 9.9613e-08 5.42939e-09 -9.63616e-07 5.33901e-08 -5.0967e-07)
(-6.79548e-07 4.26899e-08 1.01042e-08 -7.91643e-07 5.20746e-08 -5.51319e-07)
(-6.56537e-07 -4.68374e-08 -9.8526e-09 -7.88443e-07 5.21596e-08 -5.52626e-07)
(-2.23253e-06 -1.00675e-07 -5.40893e-09 -9.55167e-07 5.35917e-08 -5.13407e-07)
(-3.07472e-06 1.33812e-07 3.9909e-09 -3.1253e-06 2.15197e-08 -5.16288e-07)
(-1.06723e-06 6.29088e-08 9.81369e-09 -2.65992e-06 1.879e-08 -5.57563e-07)
(-1.04168e-06 -6.17165e-08 -9.65566e-09 -2.61738e-06 1.88058e-08 -5.58878e-07)
(-2.85434e-06 -1.32341e-07 -3.96568e-09 -3.00463e-06 2.15512e-08 -5.20003e-07)
(-1.61339e-06 3.65327e-08 1.00054e-10 8.28039e-08 8.44233e-08 -2.60545e-08)
(-1.81921e-07 -8.85423e-08 3.09131e-09 -2.10184e-07 9.70181e-08 -3.59791e-08)
(-1.66094e-07 8.57333e-08 -2.77563e-09 -2.22094e-07 9.75404e-08 -3.6229e-08)
(-1.43876e-06 -3.08053e-08 -6.4397e-11 3.59568e-08 8.61712e-08 -2.68205e-08)
(-1.69742e-06 -2.05311e-08 1.4462e-09 -4.72788e-07 9.89732e-08 -1.05509e-07)
(-3.19103e-07 -4.12789e-08 5.28535e-09 -3.41556e-07 1.04321e-07 -1.24577e-07)
(-2.98369e-07 4.25013e-08 -4.82524e-09 -3.4848e-07 1.04793e-07 -1.2517e-07)
(-1.51836e-06 2.14799e-08 -1.37793e-09 -4.86308e-07 1.00501e-07 -1.07302e-07)
(-1.74024e-06 -2.34933e-08 2.92074e-09 -4.39834e-07 1.04266e-07 -1.99395e-07)
(-3.20549e-07 -2.60536e-08 6.4086e-09 -3.6794e-07 1.04692e-07 -2.21297e-07)
(-3.0029e-07 2.71074e-08 -6.01377e-09 -3.72316e-07 1.05092e-07 -2.22114e-07)
(-1.55842e-06 2.36935e-08 -2.86681e-09 -4.50178e-07 1.05533e-07 -2.01865e-07)
(-1.78718e-06 -1.58291e-08 4.11545e-09 -3.58836e-07 9.91575e-08 -2.9297e-07)
(-2.90062e-07 -2.02548e-08 7.15606e-09 -3.69811e-07 9.77169e-08 -3.1508e-07)
(-2.6985e-07 2.05119e-08 -6.85811e-09 -3.73048e-07 9.80386e-08 -3.16054e-07)
(-1.60096e-06 1.60219e-08 -4.08883e-09 -3.67902e-07 1.00158e-07 -2.95911e-07)
(-1.87813e-06 -1.38303e-09 4.91123e-09 -3.05286e-07 8.5448e-08 -3.76837e-07)
(-2.95946e-07 -1.22929e-08 7.56246e-09 -3.59701e-07 8.40657e-08 -3.98355e-07)
(-2.75125e-07 1.18483e-08 -7.33655e-09 -3.62598e-07 8.43039e-08 -3.99441e-07)
(-1.6858e-06 1.49381e-09 -4.90385e-09 -3.13508e-07 8.61699e-08 -3.80106e-07)
(-2.05938e-06 3.32889e-08 5.12743e-09 -3.67016e-07 6.31007e-08 -4.43661e-07)
(-4.03851e-07 7.33193e-09 7.51349e-09 -3.81514e-07 6.25902e-08 -4.64486e-07)
(-3.82159e-07 -9.02539e-09 -7.3391e-09 -3.83923e-07 6.27453e-08 -4.65642e-07)
(-1.85947e-06 -3.35955e-08 -5.12779e-09 -3.7366e-07 6.35496e-08 -4.47122e-07)
(-2.39589e-06 9.75868e-08 4.46672e-09 -9.46783e-07 3.37975e-08 -4.83925e-07)
(-6.81934e-07 4.11997e-08 6.92126e-09 -7.79423e-07 3.36284e-08 -5.04313e-07)
(-6.59098e-07 -4.54032e-08 -6.80553e-09 -7.76287e-07 3.3709e-08 -5.05502e-07)
(-2.18724e-06 -9.86422e-08 -4.47038e-09 -9.38521e-07 3.40124e-08 -4.87461e-07)
(-3.02168e-06 1.30817e-07 3.44542e-09 -3.06595e-06 1.26227e-08 -4.8912e-07)
(-1.06489e-06 6.11708e-08 6.72793e-09 -2.61065e-06 1.13528e-08 -5.10221e-07)
(-1.03944e-06 -6.00123e-08 -6.70059e-09 -2.56819e-06 1.13728e-08 -5.11421e-07)
(-2.80177e-06 -1.29341e-07 -3.4619e-09 -2.94548e-06 1.26743e-08 -4.92661e-07)
(-1.58186e-06 3.63511e-08 6.24139e-11 7.67262e-08 5.302e-08 -3.20078e-08)
(-1.79363e-07 -8.64979e-08 1.55494e-09 -2.11749e-07 5.84095e-08 -3.69022e-08)
(-1.63721e-07 8.34575e-08 -1.36753e-09 -2.23496e-07 5.8712e-08 -3.71169e-08)
(-1.40857e-06 -3.08141e-08 -3.5334e-11 3.05839e-08 5.402e-08 -3.26622e-08)
(-1.66571e-06 -1.94955e-08 7.75951e-10 -4.69666e-07 6.10345e-08 -1.11359e-07)
(-3.16571e-07 -4.01435e-08 2.70283e-09 -3.41567e-07 6.29851e-08 -1.20443e-07)
(-2.9608e-07 4.11523e-08 -2.41864e-09 -3.48412e-07 6.32627e-08 -1.20971e-07)
(-1.48803e-06 2.03507e-08 -7.22754e-10 -4.83033e-07 6.19291e-08 -1.12951e-07)
(-1.71049e-06 -2.24803e-08 1.54937e-09 -4.37211e-07 6.46737e-08 -2.00099e-07)
(-3.20913e-07 -2.53671e-08 3.29165e-09 -3.67385e-07 6.44149e-08 -2.10104e-07)
(-3.00873e-07 2.62571e-08 -3.04133e-09 -3.71753e-07 6.46527e-08 -2.10852e-07)
(-1.53001e-06 2.26226e-08 -1.50314e-09 -4.47594e-07 6.54289e-08 -2.02355e-07)
(-1.75995e-06 -1.50937e-08 2.16441e-09 -3.56236e-07 6.17355e-08 -2.88772e-07)
(-2.9392e-07 -1.98464e-08 3.6566e-09 -3.67639e-07 6.07512e-08 -2.98336e-07)
(-2.739e-07 1.99988e-08 -3.46913e-09 -3.7091e-07 6.09445e-08 -2.99242e-07)
(-1.57496e-06 1.52522e-08 -2.13687e-09 -3.65441e-07 6.23429e-08 -2.91513e-07)
(-1.85307e-06 -1.01722e-09 2.56109e-09 -3.02619e-07 5.23741e-08 -3.67842e-07)
(-3.02526e-07 -1.21669e-08 3.83667e-09 -3.56559e-07 5.16221e-08 -3.7667e-07)
(-2.81874e-07 1.16607e-08 -3.702e-09 -3.59507e-07 5.17688e-08 -3.7769e-07)
(-1.66184e-06 1.11168e-09 -2.54922e-09 -3.11023e-07 5.28251e-08 -3.7093e-07)
(-2.03541e-06 3.30485e-08 2.64358e-09 -3.65173e-07 3.73669e-08 -4.2881e-07)
(-4.1133e-07 7.04817e-09 3.78986e-09 -3.79587e-07 3.72664e-08 -4.37158e-07)
(-3.89779e-07 -8.78253e-09 -3.69468e-09 -3.82047e-07 3.73661e-08 -4.38254e-07)
(-1.83639e-06 -3.33594e-08 -2.64051e-09 -3.7199e-07 3.76624e-08 -4.32124e-07)
(-2.37104e-06 9.64191e-08 2.26669e-09 -9.40391e-07 1.92401e-08 -4.64765e-07)
(-6.87706e-07 4.04086e-08 3.48535e-09 -7.75252e-07 1.94612e-08 -4.73178e-07)
(-6.64969e-07 -4.46466e-08 -3.43178e-09 -7.72155e-07 1.95163e-08 -4.74317e-07)
(-2.16299e-06 -9.74724e-08 -2.26988e-09 -9.32248e-07 1.93949e-08 -4.68194e-07)
(-2.9921e-06 1.2917e-07 1.6662e-09 -3.03176e-06 6.92694e-09 -4.7269e-07)
(-1.06755e-06 6.02639e-08 3.36221e-09 -2.58184e-06 6.47752e-09 -4.8206e-07)
(-1.04214e-06 -5.91258e-08 -3.37156e-09 -2.53943e-06 6.49251e-09 -4.83208e-07)
(-2.77243e-06 -1.27693e-07 -1.68369e-09 -2.91139e-06 6.96889e-09 -4.76137e-07)
(-1.56781e-06 3.63229e-08 3.24748e-12 7.50206e-08 1.80341e-08 -3.4644e-08)
(-1.78382e-07 -8.55573e-08 4.57494e-10 -2.11668e-07 1.9547e-08 -3.76139e-08)
(-1.62826e-07 8.24113e-08 -3.95254e-10 -2.23334e-07 1.96461e-08 -3.78149e-08)
(-1.39513e-06 -3.08732e-08 6.61226e-12 2.92205e-08 1.83593e-08 -3.52492e-08)
(-1.65163e-06 -1.90388e-08 2.05041e-10 -4.67043e-07 2.05577e-08 -1.14325e-07)
(-3.15835e-07 -3.96464e-08 7.93003e-10 -3.4035e-07 2.10443e-08 -1.1954e-07)
(-2.95456e-07 4.05562e-08 -6.96706e-10 -3.47156e-07 2.1136e-08 -1.20041e-07)
(-1.47458e-06 1.98509e-08 -1.85317e-10 -4.80329e-07 2.0852e-08 -1.15818e-07)
(-1.69734e-06 -2.20425e-08 4.36859e-10 -4.35178e-07 2.17863e-08 -2.00456e-07)
(-3.21629e-07 -2.50809e-08 9.67346e-10 -3.66189e-07 2.16365e-08 -2.05834e-07)
(-3.0169e-07 2.58901e-08 -8.81116e-10 -3.70552e-07 2.17155e-08 -2.06551e-07)
(-1.51746e-06 2.21562e-08 -4.18977e-10 -4.45576e-07 2.20373e-08 -2.02602e-07)
(-1.74797e-06 -1.47815e-08 6.22231e-10 -3.55305e-07 2.08154e-08 -2.85738e-07)
(-2.96273e-07 -1.96872e-08 1.07306e-09 -3.66801e-07 2.04791e-08 -2.90461e-07)
(-2.7634e-07 1.97831e-08 -1.00818e-09 -3.70088e-07 2.05437e-08 -2.91337e-07)
(-1.56354e-06 1.49211e-08 -6.10798e-10 -3.64574e-07 2.10192e-08 -2.88376e-07)
(-1.84208e-06 -8.70193e-10 7.39657e-10 -3.02693e-07 1.75608e-08 -3.61497e-07)
(-3.06096e-07 -1.21273e-08 1.1219e-09 -3.56323e-07 1.73294e-08 -3.65509e-07)
(-2.85519e-07 1.15857e-08 -1.07602e-09 -3.59295e-07 1.7379e-08 -3.66502e-07)
(-1.65134e-06 9.54412e-10 -7.34056e-10 -3.11183e-07 1.77142e-08 -3.64498e-07)
(-2.02484e-06 3.2932e-08 7.60658e-10 -3.65818e-07 1.23836e-08 -4.19638e-07)
(-4.15242e-07 6.92328e-09 1.10453e-09 -3.80079e-07 1.23856e-08 -4.23336e-07)
(-3.93753e-07 -8.68053e-09 -1.07329e-09 -3.82564e-07 1.24199e-08 -4.2441e-07)
(-1.82622e-06 -3.32465e-08 -7.58686e-10 -3.72718e-07 1.24863e-08 -4.22885e-07)
(-2.3599e-06 9.59071e-08 6.41738e-10 -9.38347e-07 6.3108e-09 -4.54419e-07)
(-6.90763e-07 4.00848e-08 1.01356e-09 -7.74051e-07 6.43592e-09 -4.58413e-07)
(-6.6807e-07 -4.43403e-08 -9.97408e-10 -7.70972e-07 6.4553e-09 -4.59533e-07)
(-2.15211e-06 -9.69604e-08 -6.42561e-10 -9.30262e-07 6.36647e-09 -4.57801e-07)
(-2.97859e-06 1.28465e-07 4.43716e-10 -3.01622e-06 2.2376e-09 -4.64219e-07)
(-1.06908e-06 5.98926e-08 9.69908e-10 -2.56853e-06 2.13933e-09 -4.69159e-07)
(-1.04369e-06 -5.87645e-08 -9.76501e-10 -2.52613e-06 2.14477e-09 -4.70287e-07)
(-2.75901e-06 -1.26988e-07 -4.50385e-10 -2.8959e-06 2.25332e-09 -4.67624e-07)
)
;

boundaryField
{
    interface
    {
        type            calculated;
        value           nonuniform List<symmTensor> 
192
(
(-4.68861e-06 2.27885e-12 1.75537e-11 1.43316e-06 2.38547e-07 -2.89502e-06)
(-4.39474e-06 2.19075e-12 2.84453e-11 -4.92886e-07 3.47783e-08 -2.95469e-06)
(-4.48688e-06 4.88846e-13 3.24859e-11 -6.08538e-07 1.95938e-09 -3.02116e-06)
(-4.62716e-06 -2.36649e-12 3.36636e-11 -5.68508e-07 1.01767e-08 -3.10256e-06)
(-4.79659e-06 -4.89315e-12 3.34469e-11 -5.92042e-07 3.21203e-08 -3.21156e-06)
(-5.01694e-06 -9.32945e-12 3.26481e-11 -7.93893e-07 7.25354e-08 -3.3678e-06)
(-5.30618e-06 -1.27167e-11 3.02037e-11 -1.6116e-06 1.33883e-07 -3.61818e-06)
(-5.85838e-06 -2.86739e-11 2.83213e-11 -4.10361e-06 1.59996e-07 -4.10164e-06)
(-3.8853e-06 1.64478e-12 8.6027e-12 6.04777e-07 2.45976e-08 -5.6116e-07)
(-3.68784e-06 1.70145e-12 1.49276e-11 -3.41593e-07 4.52082e-08 -9.02601e-07)
(-3.73987e-06 2.15866e-13 1.68352e-11 -4.55573e-07 3.88575e-08 -9.66129e-07)
(-3.84517e-06 -2.6775e-12 1.70562e-11 -4.86972e-07 4.2195e-08 -9.8413e-07)
(-3.9967e-06 -5.33344e-12 1.64902e-11 -5.28529e-07 7.16309e-08 -1.0226e-06)
(-4.22091e-06 -1.0212e-11 1.5617e-11 -6.63555e-07 1.19753e-07 -1.1151e-06)
(-4.56041e-06 -1.39553e-11 1.40381e-11 -1.30362e-06 1.57705e-07 -1.31061e-06)
(-5.30981e-06 -3.06865e-11 1.27914e-11 -3.61997e-06 1.34695e-07 -1.61264e-06)
(-3.39183e-06 1.41083e-12 6.74345e-12 2.69403e-07 9.4807e-08 -7.20812e-08)
(-3.30889e-06 1.45838e-12 1.1547e-11 -3.96734e-07 1.16716e-07 -2.57059e-07)
(-3.36795e-06 1.91326e-14 1.29634e-11 -4.22e-07 1.07273e-07 -3.5448e-07)
(-3.46715e-06 -3.00156e-12 1.30901e-11 -4.18317e-07 1.00826e-07 -4.00779e-07)
(-3.61812e-06 -5.88971e-12 1.2618e-11 -4.28034e-07 1.1409e-07 -4.51283e-07)
(-3.85417e-06 -1.129e-11 1.19111e-11 -5.13842e-07 1.33255e-07 -5.41221e-07)
(-4.22544e-06 -1.55661e-11 1.07754e-11 -1.10154e-06 1.25294e-07 -6.77859e-07)
(-5.02652e-06 -3.33937e-11 9.83144e-12 -3.37081e-06 7.5747e-08 -7.92963e-07)
(-3.09745e-06 1.06309e-12 4.08955e-12 1.46468e-07 1.18288e-07 -1.03651e-08)
(-3.05477e-06 9.68176e-13 7.40977e-12 -4.49955e-07 1.43063e-07 -1.17199e-07)
(-3.1228e-06 -4.82102e-13 8.3431e-12 -4.31507e-07 1.40338e-07 -2.2336e-07)
(-3.22401e-06 -3.52269e-12 8.34057e-12 -3.8146e-07 1.30855e-07 -3.04598e-07)
(-3.378e-06 -6.50918e-12 7.92484e-12 -3.54546e-07 1.26135e-07 -3.79662e-07)
(-3.62161e-06 -1.21286e-11 7.36926e-12 -4.20963e-07 1.16482e-07 -4.65018e-07)
(-4.00725e-06 -1.66402e-11 6.65139e-12 -1.00498e-06 8.35126e-08 -5.48521e-07)
(-4.81724e-06 -3.47222e-11 6.09168e-12 -3.22061e-06 3.91218e-08 -5.77953e-07)
(-2.92455e-06 8.94429e-13 2.97744e-12 1.0028e-07 1.08591e-07 -1.63456e-08)
(-2.89271e-06 6.59482e-13 5.39613e-12 -4.70423e-07 1.29976e-07 -1.0027e-07)
(-2.96576e-06 -8.52625e-13 6.08271e-12 -4.39445e-07 1.33904e-07 -2.01209e-07)
(-3.07048e-06 -3.94232e-12 6.07875e-12 -3.65357e-07 1.26235e-07 -2.95745e-07)
(-3.22805e-06 -7.03509e-12 5.77174e-12 -3.18115e-07 1.12766e-07 -3.80968e-07)
(-3.4761e-06 -1.28424e-11 5.35865e-12 -3.79884e-07 9.00236e-08 -4.56612e-07)
(-3.8668e-06 -1.75683e-11 4.85842e-12 -9.63616e-07 5.33901e-08 -5.0967e-07)
(-4.67155e-06 -3.59126e-11 4.45773e-12 -3.1253e-06 2.15197e-08 -5.16288e-07)
(-2.82384e-06 7.63383e-13 1.80574e-12 8.28039e-08 8.44233e-08 -2.60545e-08)
(-2.7951e-06 4.09273e-13 3.38861e-12 -4.72788e-07 9.89732e-08 -1.05509e-07)
(-2.87077e-06 -1.15938e-12 3.84214e-12 -4.39834e-07 1.04266e-07 -1.99395e-07)
(-2.97838e-06 -4.27954e-12 3.82981e-12 -3.58836e-07 9.91575e-08 -2.9297e-07)
(-3.1388e-06 -7.43098e-12 3.61688e-12 -3.05286e-07 8.5448e-08 -3.76837e-07)
(-3.38923e-06 -1.33314e-11 3.33798e-12 -3.67016e-07 6.31007e-08 -4.43661e-07)
(-3.7809e-06 -1.81679e-11 3.03058e-12 -9.46783e-07 3.37975e-08 -4.83925e-07)
(-4.57825e-06 -3.664e-11 2.79576e-12 -3.06595e-06 1.26227e-08 -4.8912e-07)
(-2.76786e-06 6.98897e-13 1.05569e-12 7.67262e-08 5.302e-08 -3.20078e-08)
(-2.74025e-06 2.63448e-13 1.97926e-12 -4.69666e-07 6.10345e-08 -1.11359e-07)
(-2.81729e-06 -1.35381e-12 2.24613e-12 -4.37211e-07 6.46737e-08 -2.00099e-07)
(-2.92675e-06 -4.50155e-12 2.23991e-12 -3.56236e-07 6.17355e-08 -2.88772e-07)
(-3.08895e-06 -7.69788e-12 2.11693e-12 -3.02619e-07 5.23741e-08 -3.67842e-07)
(-3.3405e-06 -1.36628e-11 1.95224e-12 -3.65173e-07 3.73669e-08 -4.2881e-07)
(-3.73183e-06 -1.85772e-11 1.77866e-12 -9.40391e-07 1.92401e-08 -4.64765e-07)
(-4.52357e-06 -3.7146e-11 1.63808e-12 -3.03176e-06 6.92694e-09 -4.7269e-07)
(-2.74275e-06 6.59277e-13 3.10947e-13 7.50206e-08 1.80341e-08 -3.4644e-08)
(-2.71558e-06 1.8182e-13 6.05387e-13 -4.67043e-07 2.05577e-08 -1.14325e-07)
(-2.79321e-06 -1.45747e-12 6.91703e-13 -4.35178e-07 2.17863e-08 -2.00456e-07)
(-2.90355e-06 -4.61367e-12 6.88482e-13 -3.55305e-07 2.08154e-08 -2.85738e-07)
(-3.06659e-06 -7.82789e-12 6.48261e-13 -3.02693e-07 1.75608e-08 -3.61497e-07)
(-3.31855e-06 -1.3816e-11 5.94372e-13 -3.65818e-07 1.23836e-08 -4.19638e-07)
(-3.70947e-06 -1.87659e-11 5.42824e-13 -9.38347e-07 6.3108e-09 -4.54419e-07)
(-4.49836e-06 -3.73744e-11 4.98798e-13 -3.01622e-06 2.2376e-09 -4.64219e-07)
(-2.83727e-06 2.08686e-07 -2.44821e-11 1.43316e-06 -5.90558e-12 -4.80172e-06)
(-2.93919e-06 2.14874e-09 -4.17278e-11 -4.92886e-07 -7.20196e-12 -4.48253e-06)
(-3.009e-06 -3.01672e-08 -4.89185e-11 -6.08538e-07 -6.21967e-12 -4.57573e-06)
(-3.06959e-06 -2.06042e-08 -5.16437e-11 -5.68508e-07 -4.64466e-12 -4.7257e-06)
(-3.16258e-06 -2.20623e-09 -5.25979e-11 -5.92042e-07 -3.94594e-12 -4.90181e-06)
(-3.32584e-06 3.34697e-08 -5.33716e-11 -7.93893e-07 -4.1889e-12 -5.1192e-06)
(-3.60383e-06 9.65931e-08 -5.44052e-11 -1.6116e-06 -5.09683e-12 -5.39775e-06)
(-4.09493e-06 1.27202e-07 -5.98575e-11 -4.10361e-06 -6.45231e-12 -5.94134e-06)
(-6.41268e-07 -3.69672e-08 -1.44345e-11 8.94368e-07 -3.5286e-12 -4.29059e-06)
(-1.10145e-06 -3.47839e-08 -2.77266e-11 -2.41453e-07 -5.51448e-12 -3.98847e-06)
(-1.15887e-06 -3.25964e-08 -3.283e-11 -4.4769e-07 -4.96686e-12 -4.01096e-06)
(-1.11951e-06 -2.50929e-08 -3.45482e-11 -5.45722e-07 -3.19695e-12 -4.11355e-06)
(-1.11561e-06 -1.26833e-08 -3.51596e-11 -6.35666e-07 -1.98025e-12 -4.26184e-06)
(-1.2181e-06 9.9981e-09 -3.60559e-11 -8.0304e-07 -1.31564e-12 -4.46754e-06)
(-1.48872e-06 4.51853e-08 -3.8172e-11 -1.44814e-06 -1.43354e-12 -4.7785e-06)
(-1.8589e-06 6.15762e-08 -4.53357e-11 -3.75153e-06 -1.93802e-12 -5.52497e-06)
(-6.2277e-07 3.09891e-08 -1.43177e-11 8.7613e-07 -2.57557e-12 -4.21901e-06)
(-1.07655e-06 3.54788e-08 -2.78062e-11 -2.4647e-07 -4.49689e-12 -3.91982e-06)
(-1.13411e-06 3.45911e-08 -3.31781e-11 -4.50322e-07 -4.10986e-12 -3.93995e-06)
(-1.09479e-06 2.65828e-08 -3.50396e-11 -5.47791e-07 -2.18766e-12 -4.04049e-06)
(-1.09055e-06 1.33828e-08 -3.56401e-11 -6.37693e-07 -6.20859e-13 -4.18726e-06)
(-1.19281e-06 -1.06786e-08 -3.63531e-11 -8.04653e-07 6.62437e-13 -4.39156e-06)
(-1.46324e-06 -4.84415e-08 -3.81188e-11 -1.44418e-06 1.34395e-12 -4.70125e-06)
(-1.83175e-06 -5.98282e-08 -4.50139e-11 -3.70854e-06 1.43885e-12 -5.44872e-06)
(-2.642e-06 -2.02921e-07 -1.56523e-11 1.36671e-06 -2.09986e-12 -4.59746e-06)
(-2.73526e-06 -1.06692e-09 -3.15613e-11 -5.0062e-07 -3.87954e-12 -4.28774e-06)
(-2.80152e-06 3.0857e-08 -3.83552e-11 -6.13644e-07 -3.48525e-12 -4.37348e-06)
(-2.85821e-06 2.12854e-08 -4.08301e-11 -5.73895e-07 -1.41895e-12 -4.51745e-06)
(-2.94731e-06 2.63275e-09 -4.16059e-11 -5.9737e-07 3.08224e-13 -4.68932e-06)
(-3.10729e-06 -3.3659e-08 -4.25148e-11 -7.97995e-07 1.87968e-12 -4.90303e-06)
(-3.38275e-06 -9.76446e-08 -4.40207e-11 -1.60128e-06 3.02026e-12 -5.17868e-06)
(-3.86829e-06 -1.25717e-07 -5.12762e-11 -3.98431e-06 4.07929e-12 -5.72839e-06)
(-4.33507e-06 4.90497e-12 4.23845e-12 1.36671e-06 2.39068e-07 -2.78378e-06)
(-4.03665e-06 6.40653e-12 8.52222e-12 -5.0062e-07 3.71262e-08 -2.84597e-06)
(-4.12144e-06 4.71265e-12 9.95013e-12 -6.13644e-07 3.58651e-09 -2.90901e-06)
(-4.25385e-06 1.30742e-12 1.06419e-11 -5.73895e-07 1.10417e-08 -2.9875e-06)
(-4.41615e-06 -5.6393e-13 1.11661e-11 -5.9737e-07 3.24663e-08 -3.0943e-06)
(-4.63044e-06 -3.15268e-12 1.2724e-11 -7.97995e-07 7.24674e-08 -3.24863e-06)
(-4.91498e-06 -2.95812e-12 1.40292e-11 -1.60128e-06 1.33331e-07 -3.49745e-06)
(-5.4594e-06 -1.71158e-11 1.7877e-11 -3.98431e-06 1.59345e-07 -3.98342e-06)
(-3.53641e-06 1.97159e-12 -1.99353e-12 5.48309e-07 3.35979e-08 -5.52607e-07)
(-3.34147e-06 2.88776e-12 -1.90307e-12 -3.55194e-07 5.04368e-08 -8.9169e-07)
(-3.38758e-06 2.07977e-12 -2.41088e-12 -4.63704e-07 4.22209e-08 -9.56008e-07)
(-3.48487e-06 8.99857e-14 -2.50484e-12 -4.93383e-07 4.42541e-08 -9.74587e-07)
(-3.62791e-06 -4.69977e-13 -2.12739e-12 -5.3426e-07 7.26051e-08 -1.01321e-06)
(-3.84356e-06 -1.97996e-12 -6.6271e-13 -6.68125e-07 1.19798e-07 -1.10567e-06)
(-4.17551e-06 -3.24981e-13 1.19998e-12 -1.29415e-06 1.56999e-07 -1.30088e-06)
(-4.91595e-06 -1.34335e-11 4.09451e-12 -3.49754e-06 1.34126e-07 -1.6021e-06)
(-3.05443e-06 1.09268e-12 -1.11381e-12 2.17547e-07 1.00401e-07 -7.34539e-08)
(-2.97296e-06 1.52034e-12 -4.38121e-13 -4.11061e-07 1.2087e-07 -2.58774e-07)
(-3.02596e-06 1.09698e-12 -1.78197e-13 -4.31629e-07 1.10322e-07 -3.57027e-07)
(-3.11694e-06 -1.53522e-13 1.72243e-13 -4.2595e-07 1.02904e-07 -4.04153e-07)
(-3.25844e-06 7.42006e-14 7.29263e-13 -4.34674e-07 1.15237e-07 -4.55099e-07)
(-3.4839e-06 -8.1538e-13 1.92828e-12 -5.19157e-07 1.33567e-07 -5.45102e-07)
(-3.84459e-06 1.57734e-12 3.19281e-12 -1.09253e-06 1.25032e-07 -6.81487e-07)