/*--------------------------------*- C++ -*----------------------------------*\
| =========                 |                                                 |
| \\      /  F ield         | OpenFOAM: The Open Source CFD Toolbox           |
|  \\    /   O peration     | Version:  v1912                                 |
|   \\  /    A nd           | Website:  www.openfoam.com                      |
|    \\/     M anipulation  |                                                 |
\*---------------------------------------------------------------------------*/
FoamFile
{
    version     2.0;
    format      ascii;
    class       pointVectorField;
    location    "0.78/solid";
    object      pointD;
}
// * * * * * * * * * * * * * * * * * * * * * * * * * * * * * * * * * * * * * //

dimensions      [0 1 0 0 0 0 0];


internalField   nonuniform List<vector> 
405
(
(3.86529e-08 4.06833e-08 3.99747e-08)
(7.99514e-09 2.69793e-08 4.33067e-08)
(1.82955e-12 2.22994e-08 4.07631e-08)
(-7.74814e-09 2.64537e-08 4.23396e-08)
(-3.65074e-08 3.93273e-08 3.89164e-08)
(6.63357e-08 5.04258e-08 7.32511e-08)
(2.20971e-08 4.58017e-08 9.91281e-08)
(2.74564e-10 3.83467e-08 9.38742e-08)
(-2.09787e-08 4.4705e-08 9.72388e-08)
(-6.24006e-08 4.83515e-08 7.17096e-08)
(7.63476e-08 2.96436e-08 9.49595e-08)
(2.92585e-08 2.91724e-08 1.20135e-07)
(8.89038e-10 2.51739e-08 1.14422e-07)
(-2.68316e-08 2.79872e-08 1.18306e-07)
(-7.10017e-08 2.74729e-08 9.35159e-08)
(7.81569e-08 1.18769e-08 1.10265e-07)
(3.01218e-08 1.34573e-08 1.35729e-07)
(1.59279e-09 1.14514e-08 1.29462e-07)
(-2.6292e-08 1.21759e-08 1.33923e-07)
(-7.13825e-08 9.56832e-09 1.08912e-07)
(7.9228e-08 -2.26126e-09 1.24063e-07)
(3.01825e-08 -7.52477e-10 1.5007e-07)
(2.32417e-09 -2.51968e-09 1.43324e-07)
(-2.48876e-08 -2.1404e-09 1.48274e-07)
(-7.09514e-08 -4.73172e-09 1.22768e-07)
(8.31241e-08 -1.57311e-08 1.38869e-07)
(3.20308e-08 -1.53007e-08 1.65721e-07)
(3.07535e-09 -1.76089e-08 1.58591e-07)
(-2.52271e-08 -1.67931e-08 1.63918e-07)
(-7.32969e-08 -1.83539e-08 1.37593e-07)
(9.24271e-08 -3.38288e-08 1.56287e-07)
(3.73819e-08 -3.42122e-08 1.84616e-07)
(3.83185e-09 -3.65226e-08 1.77428e-07)
(-2.90601e-08 -3.57875e-08 1.82787e-07)
(-8.10438e-08 -3.65596e-08 1.54996e-07)
(1.08183e-07 -7.48e-08 1.7614e-07)
(4.62237e-08 -7.40461e-08 2.08006e-07)
(4.54419e-09 -7.41887e-08 2.0183e-07)
(-3.64532e-08 -7.54458e-08 2.06167e-07)
(-9.52845e-08 -7.72566e-08 1.74828e-07)
(1.05676e-07 -1.30875e-07 1.74986e-07)
(5.14592e-08 -1.40755e-07 1.85333e-07)
(5.03171e-09 -1.3757e-07 1.81562e-07)
(-4.06905e-08 -1.41033e-07 1.84408e-07)
(-9.26556e-08 -1.3201e-07 1.74103e-07)
(3.88254e-08 2.2557e-08 7.87996e-09)
(0 0 0)
(0 0 0)
(0 0 0)
(-3.61131e-08 2.14489e-08 7.84302e-09)
(8.39324e-08 3.56654e-08 2.67287e-08)
(1.86117e-08 1.93238e-08 3.04703e-08)
(3.30366e-10 1.29685e-08 3.01677e-08)
(-1.74234e-08 1.83506e-08 3.04435e-08)
(-7.782e-08 3.33691e-08 2.67081e-08)
(9.17317e-08 1.74464e-08 4.54603e-08)
(2.46191e-08 1.17318e-08 5.04428e-08)
(9.23851e-10 8.13861e-09 5.02244e-08)
(-2.21752e-08 1.05484e-08 5.04833e-08)
(-8.42471e-08 1.49793e-08 4.55727e-08)
(9.36784e-08 1.92742e-09 5.95371e-08)
(2.52886e-08 2.53897e-10 6.47103e-08)
(1.59577e-09 -1.55587e-09 6.44743e-08)
(-2.15066e-08 -1.05225e-09 6.48265e-08)
(-8.47707e-08 -7.29728e-10 5.97916e-08)
(9.54625e-08 -1.07921e-08 7.19305e-08)
(2.53791e-08 -1.27171e-08 7.70186e-08)
(2.30363e-09 -1.43324e-08 7.66606e-08)
(-2.01781e-08 -1.4125e-08 7.71881e-08)
(-8.50339e-08 -1.36372e-08 7.22842e-08)
(1.00479e-07 -2.28634e-08 8.46202e-08)
(2.72864e-08 -2.72984e-08 8.95716e-08)
(3.04148e-09 -2.95136e-08 8.90571e-08)
(-2.06007e-08 -2.88012e-08 8.97689e-08)
(-8.84624e-08 -2.58719e-08 8.5025e-08)
(1.1159e-07 -3.83929e-08 9.85225e-08)
(3.27101e-08 -4.56341e-08 1.0335e-07)
(3.79418e-09 -4.79879e-08 1.02752e-07)
(-2.45105e-08 -4.72121e-08 1.03553e-07)
(-9.79667e-08 -4.15088e-08 9.89355e-08)
(1.31001e-07 -7.44992e-08 1.11876e-07)
(4.16035e-08 -7.98899e-08 1.16687e-07)
(4.51259e-09 -8.0012e-08 1.16225e-07)
(-3.19408e-08 -8.1297e-08 1.16877e-07)
(-1.15798e-07 -7.73343e-08 1.12262e-07)
(1.08661e-07 -1.38919e-07 1.19834e-07)
(4.68359e-08 -1.7127e-07 1.21254e-07)
(5.15701e-09 -1.65688e-07 1.20823e-07)
(-3.58354e-08 -1.70627e-07 1.21443e-07)
(-9.48258e-08 -1.39727e-07 1.2016e-07)
(3.10983e-08 1.29241e-08 9.30243e-10)
(0 0 0)
(0 0 0)
(0 0 0)
(-2.84546e-08 1.19476e-08 1.01516e-09)
(6.68301e-08 1.80106e-08 8.59416e-09)
(1.25167e-08 5.8337e-09 1.36632e-08)
(3.16722e-10 5.6728e-10 1.48977e-08)
(-1.13786e-08 4.98381e-09 1.38053e-08)
(-6.09105e-08 1.59321e-08 8.85019e-09)
(7.24101e-08 3.26693e-09 2.23137e-08)
(1.66142e-08 -1.07842e-09 2.90045e-08)
(8.86267e-10 -4.11994e-09 3.07572e-08)
(-1.4279e-08 -2.19492e-09 2.92267e-08)
(-6.52105e-08 9.3131e-10 2.27233e-08)
(7.35623e-08 -9.26978e-09 3.54021e-08)
(1.68839e-08 -1.05871e-08 4.24279e-08)
(1.53409e-09 -1.2218e-08 4.43342e-08)
(-1.32633e-08 -1.1865e-08 4.27135e-08)
(-6.49994e-08 -1.18597e-08 3.59322e-08)
(7.49874e-08 -2.00013e-08 4.71126e-08)
(1.68679e-08 -2.18135e-08 5.41635e-08)
(2.22273e-09 -2.33874e-08 5.60792e-08)
(-1.18668e-08 -2.32118e-08 5.4496e-08)
(-6.49338e-08 -2.28168e-08 4.773e-08)
(7.98752e-08 -2.99618e-08 5.81822e-08)
(1.87016e-08 -3.43963e-08 6.51958e-08)
(2.94774e-09 -3.66242e-08 6.70716e-08)
(-1.22381e-08 -3.59002e-08 6.55554e-08)
(-6.82309e-08 -3.29666e-08 5.88485e-08)
(9.13609e-08 -4.18567e-08 6.8491e-08)
(2.41641e-08 -4.92393e-08 7.54134e-08)
(3.69424e-09 -5.16161e-08 7.72457e-08)
(-1.61931e-08 -5.08283e-08 7.57814e-08)
(-7.80781e-08 -4.49924e-08 6.91703e-08)
(1.12221e-07 -7.15494e-08 7.55958e-08)
(3.3294e-08 -7.69671e-08 8.23736e-08)
(4.41336e-09 -7.69632e-08 8.41873e-08)
(-2.38519e-08 -7.83967e-08 8.27385e-08)
(-9.73129e-08 -7.4426e-08 7.6264e-08)
(9.35208e-08 -1.29459e-07 7.87994e-08)
(3.85899e-08 -1.58315e-07 8.14253e-08)
(5.06696e-09 -1.51734e-07 8.32027e-08)
(-2.779e-08 -1.57678e-07 8.17975e-08)
(-7.99324e-08 -1.30293e-07 7.94035e-08)
(2.64574e-08 9.20612e-09 7.14465e-10)
(0 0 0)
(0 0 0)
(0 0 0)
(-2.39122e-08 8.29665e-09 7.84642e-10)
(5.65631e-08 1.03947e-08 6.26659e-09)
(8.73266e-09 8.5586e-10 9.47582e-09)
(2.79975e-10 -3.64664e-09 1.06302e-08)
(-7.68443e-09 6.23183e-11 9.59151e-09)
(-5.08756e-08 8.44667e-09 6.48855e-09)
(6.09554e-08 -4.30373e-09 1.69748e-08)
(1.15873e-08 -7.7549e-09 2.12468e-08)
(8.1688e-10 -1.03764e-08 2.28761e-08)
(-9.40853e-09 -8.81742e-09 2.14325e-08)
(-5.40502e-08 -6.52858e-09 1.73335e-08)
(6.19171e-08 -1.60941e-08 2.84171e-08)
(1.16655e-08 -1.72471e-08 3.28632e-08)
(1.44006e-09 -1.87462e-08 3.46318e-08)
(-8.25036e-09 -1.84872e-08 3.3098e-08)
(-5.36951e-08 -1.86064e-08 2.88721e-08)
(6.33976e-08 -2.54297e-08 3.90095e-08)
(1.16837e-08 -2.72715e-08 4.34001e-08)
(2.11108e-09 -2.88345e-08 4.51861e-08)
(-6.92234e-09 -2.86485e-08 4.36707e-08)
(-5.37119e-08 -2.82e-08 3.95337e-08)
(6.84343e-08 -3.32026e-08 4.83949e-08)
(1.35642e-08 -3.77159e-08 5.26982e-08)
(2.82439e-09 -3.99726e-08 5.44643e-08)
(-7.36129e-09 -3.92122e-08 5.29914e-08)
(-5.71603e-08 -3.61905e-08 4.89614e-08)
(8.02368e-08 -4.20627e-08 5.58699e-08)
(1.90873e-08 -4.95445e-08 6.00969e-08)
(3.56438e-09 -5.19708e-08 6.18335e-08)
(-1.13852e-08 -5.11371e-08 6.04002e-08)
(-6.73003e-08 -4.52051e-08 5.64533e-08)
(1.01521e-07 -6.80226e-08 5.96985e-08)
(2.82679e-08 -7.35792e-08 6.39116e-08)
(4.28138e-09 -7.36668e-08 6.56321e-08)
(-1.90927e-08 -7.50192e-08 6.42167e-08)
(-8.69171e-08 -7.09194e-08 6.02814e-08)
(8.46161e-08 -1.22456e-07 6.06444e-08)
(3.36524e-08 -1.49898e-07 6.26004e-08)
(4.93792e-09 -1.43376e-07 6.44086e-08)
(-2.31106e-08 -1.49285e-07 6.29091e-08)
(-7.12973e-08 -1.23318e-07 6.11633e-08)
(2.40633e-08 7.81635e-09 1.04217e-09)
(0 0 0)
(0 0 0)
(0 0 0)
(-2.15954e-08 6.94976e-09 1.09153e-09)
(5.12921e-08 7.47801e-09 5.90194e-09)
(7.13519e-09 -8.41637e-10 7.42e-09)
(2.49553e-10 -4.92175e-09 8.10441e-09)
(-6.16306e-09 -1.60492e-09 7.50322e-09)
(-4.57932e-08 5.61676e-09 6.06587e-09)
(5.51873e-08 -7.50429e-09 1.43347e-08)
(9.47679e-09 -1.05666e-08 1.63385e-08)
(7.56491e-10 -1.29562e-08 1.73039e-08)
(-7.43434e-09 -1.15926e-08 1.6477e-08)
(-4.85289e-08 -9.64698e-09 1.46085e-08)
(5.62489e-08 -1.9289e-08 2.35253e-08)
(9.55762e-09 -2.04428e-08 2.55499e-08)
(1.35646e-09 -2.18765e-08 2.65894e-08)
(-6.32358e-09 -2.16509e-08 2.57268e-08)
(-4.83144e-08 -2.17347e-08 2.38763e-08)
(5.79619e-08 -2.7931e-08 3.21973e-08)
(9.70086e-09 -2.98745e-08 3.41151e-08)
(2.01122e-09 -3.14438e-08 3.51518e-08)
(-5.1519e-09 -3.12292e-08 3.43195e-08)
(-4.85886e-08 -3.06558e-08 3.26034e-08)
(6.32217e-08 -3.43627e-08 3.95922e-08)
(1.16859e-08 -3.89623e-08 4.14073e-08)
(2.71384e-09 -4.12451e-08 4.24223e-08)
(-5.71498e-09 -4.04468e-08 4.163e-08)
(-5.22671e-08 -3.7327e-08 4.00342e-08)
(7.51857e-08 -4.16151e-08 4.49312e-08)
(1.72406e-08 -4.9139e-08 4.67067e-08)
(3.44737e-09 -5.16162e-08 4.77033e-08)
(-9.78015e-09 -5.07285e-08 4.69393e-08)
(-6.25564e-08 -4.47518e-08 4.53912e-08)
(9.64397e-08 -6.58613e-08 4.72895e-08)
(2.63524e-08 -7.15488e-08 4.91333e-08)
(4.16092e-09 -7.17878e-08 5.01375e-08)
(-1.74214e-08 -7.29905e-08 4.93691e-08)
(-8.21158e-08 -6.87621e-08 4.77542e-08)
(8.06172e-08 -1.18297e-07 4.75091e-08)
(3.17948e-08 -1.44963e-07 4.84701e-08)
(4.81707e-09 -1.3876e-07 4.95892e-08)
(-2.14955e-08 -1.44362e-07 4.87068e-08)
(-6.75521e-08 -1.1917e-07 4.7918e-08)
(2.28584e-08 7.26731e-09 1.03794e-09)
(0 0 0)
(0 0 0)
(0 0 0)
(-2.0442e-08 6.43059e-09 1.07097e-09)
(4.87183e-08 6.41197e-09 4.99283e-09)
(6.60361e-09 -1.43675e-09 5.61846e-09)
(2.28605e-10 -5.31245e-09 5.95248e-09)
(-5.68482e-09 -2.17964e-09 5.67591e-09)
(-4.33488e-08 4.61205e-09 5.10567e-09)
(5.25073e-08 -8.59508e-09 1.12903e-08)
(8.81991e-09 -1.15503e-08 1.20809e-08)
(7.12638e-10 -1.38368e-08 1.25468e-08)
(-6.8773e-09 -1.25508e-08 1.21787e-08)
(-4.60244e-08 -1.06774e-08 1.14837e-08)
(5.3748e-08 -2.03919e-08 1.80592e-08)
(8.98233e-09 -2.16151e-08 1.88034e-08)
(1.29341e-09 -2.303e-08 1.92954e-08)
(-5.8852e-09 -2.27992e-08 1.89298e-08)
(-4.60227e-08 -2.27856e-08 1.8311e-08)
(5.56953e-08 -2.875e-08 2.44699e-08)
(9.25293e-09 -3.07958e-08 2.51129e-08)
(1.93411e-09 -3.23791e-08 2.55917e-08)
(-4.86788e-09 -3.21318e-08 2.526e-08)
(-4.6553e-08 -3.14361e-08 2.47643e-08)
(6.11363e-08 -3.46118e-08 2.98345e-08)
(1.13279e-08 -3.92701e-08 3.03987e-08)
(2.62723e-09 -4.15709e-08 3.08591e-08)
(-5.53857e-09 -4.07425e-08 3.056e-08)
(-5.0422e-08 -3.75519e-08 3.01577e-08)
(7.31513e-08 -4.12608e-08 3.35458e-08)
(1.68827e-08 -4.87847e-08 3.41006e-08)
(3.35468e-09 -5.12934e-08 3.45534e-08)
(-9.6141e-09 -5.0368e-08 3.42703e-08)
(-6.07587e-08 -4.43859e-08 3.38853e-08)
(9.42406e-08 -6.47894e-08 3.51544e-08)
(2.58995e-08 -7.05438e-08 3.57905e-08)
(4.06447e-09 -7.08921e-08 3.62601e-08)
(-1.71652e-08 -7.19831e-08 3.59634e-08)
(-8.01395e-08 -6.76862e-08 3.55e-08)
(7.90573e-08 -1.16015e-07 3.52387e-08)
(3.13579e-08 -1.4218e-07 3.55926e-08)
(4.71889e-09 -1.36243e-07 3.61448e-08)
(-2.12572e-08 -1.41581e-07 3.57651e-08)
(-6.61994e-08 -1.16889e-07 3.55412e-08)
(2.22352e-08 7.03713e-09 7.85991e-10)
(0 0 0)
(0 0 0)
(0 0 0)
(-1.98503e-08 6.21985e-09 8.06257e-10)
(4.74362e-08 6.03896e-09 3.54538e-09)
(6.4463e-09 -1.64002e-09 3.79272e-09)
(2.15315e-10 -5.42201e-09 3.94027e-09)
(-5.56133e-09 -2.36905e-09 3.8289e-09)
(-4.2147e-08 4.27995e-09 3.61561e-09)
(5.12526e-08 -8.84819e-09 7.72598e-09)
(8.6659e-09 -1.17999e-08 8.0135e-09)
(6.83808e-10 -1.40471e-08 8.2146e-09)
(-6.78876e-09 -1.2783e-08 8.07589e-09)
(-4.48814e-08 -1.08888e-08 7.84818e-09)
(5.26462e-08 -2.05831e-08 1.21371e-08)
(8.90967e-09 -2.18772e-08 1.23738e-08)
(1.25065e-09 -2.32933e-08 1.25795e-08)
(-5.90506e-09 -2.30445e-08 1.24552e-08)
(-4.50572e-08 -2.29396e-08 1.22985e-08)
(5.47604e-08 -2.88368e-08 1.63003e-08)
(9.27089e-09 -3.09554e-08 1.64677e-08)
(1.88055e-09 -3.25521e-08 1.66609e-08)
(-4.99912e-09 -3.22776e-08 1.6563e-08)
(-4.57714e-08 -3.14937e-08 1.64909e-08)
(6.03138e-08 -3.45424e-08 1.97572e-08)
(1.14014e-08 -3.92315e-08 1.98779e-08)
(2.56607e-09 -4.15419e-08 2.00595e-08)
(-5.73978e-09 -4.06941e-08 1.99831e-08)
(-4.97617e-08 -3.74626e-08 1.99682e-08)
(7.23294e-08 -4.10587e-08 2.21237e-08)
(1.69436e-08 -4.85645e-08 2.22482e-08)
(3.28845e-09 -5.10861e-08 2.24287e-08)
(-9.81157e-09 -5.01417e-08 2.23595e-08)
(-6.00997e-08 -4.41721e-08 2.23471e-08)
(9.32624e-08 -6.43053e-08 2.31821e-08)
(2.58829e-08 -7.00761e-08 2.33681e-08)
(3.99492e-09 -7.04806e-08 2.35635e-08)
(-1.72904e-08 -7.15118e-08 2.34819e-08)
(-7.9318e-08 -6.71956e-08 2.34107e-08)
(7.84377e-08 -1.1481e-07 2.32635e-08)
(3.13318e-08 -1.4064e-07 2.33678e-08)
(4.64736e-09 -1.34856e-07 2.36082e-08)
(-2.13758e-08 -1.4004e-07 2.34807e-08)
(-6.57291e-08 -1.15681e-07 2.34631e-08)
(2.19267e-08 6.94043e-09 4.15292e-10)
(0 0 0)
(0 0 0)
(0 0 0)
(-1.95586e-08 6.13397e-09 4.24936e-10)
(4.68153e-08 5.91833e-09 1.82399e-09)
(6.39646e-09 -1.69794e-09 1.91327e-09)
(2.08014e-10 -5.43904e-09 1.96881e-09)
(-5.53e-09 -2.41891e-09 1.93077e-09)
(-4.15695e-08 4.1826e-09 1.85762e-09)
(5.06683e-08 -8.84788e-09 3.90559e-09)
(8.63605e-09 -1.18143e-08 4.00097e-09)
(6.67621e-10 -1.40483e-08 4.07479e-09)
(-6.7955e-09 -1.27872e-08 4.03133e-09)
(-4.43585e-08 -1.0864e-08 3.96458e-09)
(5.21541e-08 -2.0512e-08 6.07389e-09)
(8.93071e-09 -2.18516e-08 6.14056e-09)
(1.22612e-09 -2.32726e-08 6.21364e-09)
(-5.9789e-09 -2.30089e-08 6.18042e-09)
(-4.46412e-08 -2.28461e-08 6.15244e-09)
(5.43611e-08 -2.873e-08 8.11187e-09)
(9.34188e-09 -3.0889e-08 8.14503e-09)
(1.84929e-09 -3.2494e-08 8.2113e-09)
(-5.13592e-09 -3.22028e-08 8.19195e-09)
(-4.54589e-08 -3.13687e-08 8.20531e-09)
(5.99711e-08 -3.44257e-08 9.79976e-09)
(1.14999e-08 -3.91277e-08 9.81238e-09)
(2.52989e-09 -4.14421e-08 9.87347e-09)
(-5.91339e-09 -4.05841e-08 9.86434e-09)
(-4.95121e-08 -3.73328e-08 9.90381e-09)
(7.19753e-08 -4.09559e-08 1.09565e-08)
(1.70304e-08 -4.84443e-08 1.09738e-08)
(3.2489e-09 -5.09688e-08 1.10356e-08)
(-9.97966e-09 -5.00173e-08 1.10289e-08)
(-5.98404e-08 -4.40609e-08 1.10672e-08)
(9.28076e-08 -6.41028e-08 1.14898e-08)
(2.59224e-08 -6.98696e-08 1.15388e-08)
(3.95307e-09 -7.02965e-08 1.16087e-08)
(-1.74149e-08 -7.13025e-08 1.15953e-08)
(-7.89557e-08 -6.69878e-08 1.16035e-08)
(7.81637e-08 -1.14228e-07 1.15476e-08)
(3.13567e-08 -1.39859e-07 1.15734e-08)
(4.60403e-09 -1.34146e-07 1.16618e-08)
(-2.14882e-08 -1.39258e-07 1.16293e-08)
(-6.55447e-08 -1.15096e-07 1.16468e-08)
(1.76816e-08 7.1324e-09 0)
(2.2347e-09 1.56545e-09 0)
(4.91646e-12 -7.01002e-10 0)
(-2.03041e-09 1.2811e-09 0)
(-1.58406e-08 6.28003e-09 0)
(2.95691e-08 3.88336e-09 0)
(6.38341e-09 -1.70809e-09 0)
(2.05693e-10 -5.43752e-09 0)
(-5.52283e-09 -2.42642e-09 0)
(-2.62981e-08 2.44676e-09 0)
(3.32778e-08 -9.31408e-09 0)
(8.63073e-09 -1.18005e-08 0)
(6.62419e-10 -1.40313e-08 0)
(-6.8019e-09 -1.277e-08 0)
(-2.89662e-08 -1.10567e-08 0)
(3.42059e-08 -2.05714e-08 0)
(8.94193e-09 -2.18176e-08 0)
(1.21815e-09 -2.32406e-08 0)
(-6.00723e-09 -2.29716e-08 0)
(-2.87451e-08 -2.26033e-08 0)
(3.55877e-08 -2.91175e-08 0)
(9.36865e-09 -3.08439e-08 0)
(1.83904e-09 -3.24517e-08 0)
(-5.18421e-09 -3.21548e-08 0)
(-2.88052e-08 -3.14182e-08 0)
(3.99176e-08 -3.57531e-08 0)
(1.15347e-08 -3.90816e-08 0)
(2.51794e-09 -4.13969e-08 0)
(-5.97296e-09 -4.05358e-08 0)
(-3.16595e-08 -3.82949e-08 0)
(4.99075e-08 -4.35996e-08 0)
(1.70608e-08 -4.84053e-08 0)
(3.23576e-09 -5.093e-08 0)
(-1.0037e-08 -4.99768e-08 0)
(-4.00675e-08 -4.63273e-08 0)
(6.70188e-08 -6.68906e-08 0)
(2.59371e-08 -6.98103e-08 0)
(3.93912e-09 -7.02428e-08 0)
(-1.74579e-08 -7.12423e-08 0)
(-5.5568e-08 -6.94078e-08 0)
(6.84663e-08 -1.05246e-07 0)
(3.11848e-08 -1.12743e-07 0)
(4.43353e-09 -1.09167e-07 0)
(-2.16704e-08 -1.13064e-07 0)
(-5.67987e-08 -1.06451e-07 0)
)
;

boundaryField
{
    interface
    {
        type            calculated;
    }
    symmetry
    {
        type            symmetry;
    }
    bottom
    {
        type            calculated;
    }
}


// ************************************************************************* //
