/*--------------------------------*- C++ -*----------------------------------*\
| =========                 |                                                 |
| \\      /  F ield         | OpenFOAM: The Open Source CFD Toolbox           |
|  \\    /   O peration     | Version:  v1912                                 |
|   \\  /    A nd           | Website:  www.openfoam.com                      |
|    \\/     M anipulation  |                                                 |
\*---------------------------------------------------------------------------*/
FoamFile
{
    version     2.0;
    format      ascii;
    class       volScalarField;
    location    "0.78/solid";
    object      sigmaHyd;
}
// * * * * * * * * * * * * * * * * * * * * * * * * * * * * * * * * * * * * * //

dimensions      [1 -1 -2 0 0 0 0];


internalField   nonuniform List<scalar> 
256
(
-716522
-383844
-377243
-676512
-1.06446e+06
-653711
-643952
-1.01364e+06
-1.10645e+06
-700357
-690056
-1.05403e+06
-1.12344e+06
-718146
-707593
-1.06993e+06
-1.16103e+06
-746956
-736208
-1.1065e+06
-1.24792e+06
-815874
-804892
-1.19232e+06
-1.47227e+06
-1.01323e+06
-1.00117e+06
-1.41358e+06
-2.05003e+06
-1.55984e+06
-1.54104e+06
-1.97267e+06
-375715
-123180
-122075
-351654
-603521
-274647
-271295
-571242
-639098
-317985
-314213
-605647
-653668
-336386
-332452
-619387
-680234
-356607
-352565
-645090
-745136
-403039
-398853
-709000
-935528
-556072
-550893
-896296
-1.47309e+06
-1.01346e+06
-1.00127e+06
-1.41383e+06
-294263
-75914.6
-75304.4
-272141
-451031
-164028
-161632
-421965
-476936
-196504
-193745
-446833
-489787
-212581
-209661
-458836
-512938
-229598
-226559
-481028
-570348
-268144
-264935
-537239
-745463
-402684
-398435
-708916
-1.24899e+06
-815630
-804398
-1.19225e+06
-273135
-71167.1
-70563.9
-251509
-404969
-139656
-137381
-376839
-425595
-165481
-162871
-396503
-437143
-179216
-176444
-407186
-458952
-194554
-191650
-427959
-513393
-229978
-226880
-481050
-680439
-356012
-351841
-644407
-1.16107e+06
-745280
-734139
-1.10469e+06
-264556
-71194.5
-70585.5
-243219
-387827
-133271
-131039
-360223
-406119
-155695
-153145
-377604
-416691
-167664
-164955
-387309
-437585
-181726
-178878
-407123
-490318
-215409
-212354
-458414
-652596
-337085
-332934
-616851
-1.11939e+06
-714118
-702990
-1.06316e+06
-259440
-71347.4
-70736.1
-238270
-379287
-130873
-128670
-351995
-396578
-151631
-149120
-368411
-406497
-162492
-159825
-377462
-426708
-175667
-172861
-396570
-478343
-208309
-205287
-446709
-637767
-327612
-323481
-602203
-1.09613e+06
-697627
-686508
-1.03998e+06
-256191
-71335.6
-70722.2
-235108
-374456
-129763
-127577
-347336
-391301
-149734
-147246
-363326
-400825
-159982
-157342
-371985
-420588
-172626
-169845
-390632
-471565
-204679
-201680
-440085
-629366
-322689
-318573
-593905
-1.08276e+06
-688574
-677462
-1.02666e+06
-254572
-71277.3
-70662.4
-233526
-372166
-129288
-127109
-345122
-388829
-148942
-146466
-360940
-398169
-158923
-156294
-369415
-417712
-171321
-168553
-387837
-468382
-203109
-200121
-436971
-625444
-320538
-316429
-590029
-1.0765e+06
-684461
-673352
-1.02042e+06
)
;

boundaryField
{
    interface
    {
        type            zeroGradient;
    }
    symmetry
    {
        type            symmetry;
    }
    bottom
    {
        type            zeroGradient;
    }
}


// ************************************************************************* //
