/*--------------------------------*- C++ -*----------------------------------*\
| =========                 |                                                 |
| \\      /  F ield         | OpenFOAM: The Open Source CFD Toolbox           |
|  \\    /   O peration     | Version:  v1912                                 |
|   \\  /    A nd           | Website:  www.openfoam.com                      |
|    \\/     M anipulation  |                                                 |
\*---------------------------------------------------------------------------*/
FoamFile
{
    version     2.0;
    format      ascii;
    class       volScalarField;
    location    "0.78/solid";
    object      T;
}
// * * * * * * * * * * * * * * * * * * * * * * * * * * * * * * * * * * * * * //

dimensions      [0 0 0 1 0 0 0];


internalField   nonuniform List<scalar> 
256
(
291.43
292.086
292.096
291.487
290.974
291.789
291.802
291.043
290.896
291.739
291.753
290.968
290.847
291.71
291.725
290.92
290.775
291.667
291.682
290.85
290.644
291.578
291.594
290.72
290.307
291.293
291.309
290.387
289.195
290.164
290.191
289.303
292.165
292.763
292.766
292.2
291.894
292.66
292.664
291.935
291.848
292.643
292.647
291.89
291.819
292.636
292.64
291.863
291.776
292.624
292.628
291.822
291.688
292.585
292.589
291.735
291.409
292.375
292.38
291.459
290.306
291.292
291.309
290.387
292.341
292.879
292.881
292.373
292.13
292.824
292.826
292.167
292.093
292.815
292.818
292.131
292.068
292.811
292.813
292.108
292.03
292.803
292.806
292.072
291.95
292.773
292.776
291.993
291.688
292.585
292.589
291.735
290.642
291.577
291.593
290.719
292.398
292.897
292.899
292.428
292.204
292.85
292.853
292.24
292.169
292.843
292.845
292.206
292.145
292.839
292.841
292.184
292.108
292.832
292.834
292.148
292.03
292.803
292.806
292.071
291.775
292.623
292.628
291.821
290.771
291.666
291.681
290.849
292.425
292.901
292.903
292.455
292.239
292.857
292.859
292.274
292.205
292.849
292.852
292.241
292.181
292.846
292.848
292.219
292.144
292.839
292.841
292.183
292.066
292.811
292.813
292.107
291.816
292.635
292.639
291.862
290.84
291.707
291.722
290.918
292.44
292.904
292.905
292.47
292.258
292.86
292.862
292.293
292.225
292.853
292.855
292.261
292.201
292.849
292.851
292.238
292.164
292.842
292.844
292.203
292.087
292.814
292.817
292.127
291.84
292.641
292.645
291.885
290.881
291.731
291.746
290.958
292.449
292.905
292.907
292.478
292.269
292.862
292.864
292.304
292.236
292.854
292.856
292.271
292.213
292.85
292.853
292.249
292.176
292.843
292.846
292.214
292.098
292.816
292.819
292.139
291.853
292.645
292.649
291.899
290.905
291.745
291.76
290.982
292.453
292.905
292.907
292.482
292.274
292.862
292.864
292.308
292.241
292.855
292.857
292.276
292.218
292.851
292.853
292.254
292.181
292.844
292.847
292.219
292.104
292.817
292.819
292.144
291.859
292.646
292.65
291.905
290.916
291.751
291.766
290.993
)
;

boundaryField
{
    interface
    {
        type            fixedValue;
        value           nonuniform List<scalar> 
192
(
290.137
289.834
289.741
289.656
289.533
289.331
288.928
287.945
290.917
290.723
290.653
290.585
290.484
290.31
289.933
288.925
291.218
291.065
291.004
290.94
290.845
290.676
290.308
289.326
291.363
291.222
291.164
291.102
291.008
290.841
290.478
289.523
291.444
291.309
291.253
291.191
291.097
290.931
290.572
289.638
291.492
291.359
291.304
291.243
291.149
290.984
290.629
289.708
291.519
291.388
291.333
291.272
291.179
291.014
290.661
289.75
291.532
291.402
291.347
291.286
291.192
291.028
290.676
289.769
290.09
289.791
289.697
289.611
289.489
289.287
288.883
287.903
290.748
290.539
290.465
290.396
290.296
290.123
289.742
288.723
290.787
290.581
290.509
290.441
290.342
290.169
289.791
288.781
290.232
289.943
289.855
289.773
289.654
289.455
289.056
288.1
290.341
290.053
289.966
289.885
289.767
289.569
289.172
288.218
291.096
290.912
290.846
290.782
290.687
290.518
290.148
289.171
291.39
291.244
291.188
291.129
291.039
290.876
290.517
289.568
291.53
291.397
291.343
291.286
291.197
291.037
290.685
289.764
291.608
291.48
291.428
291.371
291.283
291.125
290.777
289.878
291.654
291.529
291.477
291.421
291.334
291.176
290.833
289.948
291.681
291.557
291.506
291.45
291.362
291.206
290.864
289.989
291.693
291.569
291.518
291.463
291.375
291.219
290.879
290.008
287.901
288.878
289.279
289.477
289.592
289.663
289.704
289.723
288.722
289.739
290.117
290.288
290.382
290.439
290.472
290.487
288.78
289.788
290.165
290.335
290.43
290.486
290.519
290.534
288.099
289.054
289.451
289.648
289.762
289.833
289.874
289.893
)
;
    }
    symmetry
    {
        type            symmetry;
    }
    bottom
    {
        type            fixedValue;
        value           uniform 293;
    }
}


// ************************************************************************* //
