/*--------------------------------*- C++ -*----------------------------------*\
| =========                 |                                                 |
| \\      /  F ield         | OpenFOAM: The Open Source CFD Toolbox           |
|  \\    /   O peration     | Version:  v1912                                 |
|   \\  /    A nd           | Website:  www.openfoam.com                      |
|    \\/     M anipulation  |                                                 |
\*---------------------------------------------------------------------------*/
FoamFile
{
    version     2.0;
    format      ascii;
    class       volVectorField;
    location    "0.17/fluid";
    object      cellMotionU;
}
// * * * * * * * * * * * * * * * * * * * * * * * * * * * * * * * * * * * * * //

dimensions      [0 1 -1 0 0 0 0];


internalField   nonuniform List<vector> 
14592
(
(1.97825e-10 -9.04092e-10 7.06202e-10)
(5.44281e-10 -2.52958e-09 1.98861e-09)
(8.45621e-10 -4.03764e-09 3.22351e-09)
(1.09964e-09 -5.49214e-09 4.48629e-09)
(1.30448e-09 -6.94843e-09 5.85296e-09)
(1.46388e-09 -8.44312e-09 7.4021e-09)
(1.56764e-09 -9.93636e-09 9.14827e-09)
(1.61431e-09 -1.13868e-08 1.11278e-08)
(1.6017e-09 -1.27432e-08 1.33941e-08)
(1.52209e-09 -1.39029e-08 1.59987e-08)
(1.40962e-09 -1.46546e-08 1.90125e-08)
(1.34549e-09 -1.45402e-08 2.25131e-08)
(1.71555e-09 -1.24202e-08 2.67927e-08)
(3.55055e-09 -5.30292e-09 3.27519e-08)
(9.55278e-09 1.47849e-08 4.31563e-08)
(2.39877e-08 5.87433e-08 6.02807e-08)
(5.94805e-10 -2.69806e-09 2.10837e-09)
(1.63839e-09 -7.54556e-09 5.93382e-09)
(2.54943e-09 -1.20476e-08 9.6199e-09)
(3.31682e-09 -1.64059e-08 1.33919e-08)
(3.95113e-09 -2.07716e-08 1.74853e-08)
(4.43765e-09 -2.51814e-08 2.2041e-08)
(4.77155e-09 -2.96164e-08 2.71949e-08)
(4.94791e-09 -3.39854e-08 3.30671e-08)
(4.95359e-09 -3.81321e-08 3.97812e-08)
(4.798e-09 -4.17815e-08 4.74798e-08)
(4.53518e-09 -4.44174e-08 5.62594e-08)
(4.36527e-09 -4.50543e-08 6.61915e-08)
(5.31381e-09 -4.17187e-08 7.74505e-08)
(9.26685e-09 -3.1058e-08 9.05805e-08)
(2.04738e-08 -8.25755e-09 1.06722e-07)
(4.21117e-08 2.42507e-08 1.24291e-07)
(9.96062e-10 -4.42666e-09 3.4708e-09)
(2.75518e-09 -1.23772e-08 9.77338e-09)
(4.27947e-09 -1.97863e-08 1.58313e-08)
(5.59088e-09 -2.69522e-08 2.20388e-08)
(6.68189e-09 -3.40902e-08 2.87128e-08)
(7.55646e-09 -4.1335e-08 3.61513e-08)
(8.20729e-09 -4.86749e-08 4.45673e-08)
(8.63311e-09 -5.60139e-08 5.41681e-08)
(8.84263e-09 -6.31525e-08 6.51668e-08)
(8.84595e-09 -6.9735e-08 7.7743e-08)
(8.66865e-09 -7.51542e-08 9.19928e-08)
(8.70595e-09 -7.83194e-08 1.07955e-07)
(9.95684e-09 -7.74528e-08 1.25432e-07)
(1.45335e-08 -7.05006e-08 1.44478e-07)
(2.67752e-08 -5.64646e-08 1.6539e-07)
(4.94212e-08 -4.10265e-08 1.8645e-07)
(1.40517e-09 -6.02295e-09 4.75801e-09)
(3.88404e-09 -1.6847e-08 1.33857e-08)
(6.05285e-09 -2.69585e-08 2.16959e-08)
(7.93389e-09 -3.67428e-08 3.01821e-08)
(9.54108e-09 -4.65078e-08 3.92944e-08)
(1.08793e-08 -5.6423e-08 4.9393e-08)
(1.19667e-08 -6.65649e-08 6.08178e-08)
(1.28292e-08 -7.68824e-08 7.38779e-08)
(1.34966e-08 -8.71926e-08 8.8853e-08)
(1.40177e-08 -9.71532e-08 1.05984e-07)
(1.43928e-08 -1.06228e-07 1.25372e-07)
(1.50352e-08 -1.13369e-07 1.4696e-07)
(1.66724e-08 -1.17125e-07 1.70385e-07)
(2.07494e-08 -1.15865e-07 1.94961e-07)
(3.04298e-08 -1.08764e-07 2.1962e-07)
(4.80278e-08 -9.89254e-08 2.41032e-07)
(1.82026e-09 -7.42314e-09 5.93507e-09)
(5.02551e-09 -2.07875e-08 1.66923e-08)
(7.8549e-09 -3.32848e-08 2.70562e-08)
(1.03381e-08 -4.53992e-08 3.76183e-08)
(1.25041e-08 -5.74955e-08 4.89009e-08)
(1.43943e-08 -6.98501e-08 6.13823e-08)
(1.605e-08 -8.26092e-08 7.54798e-08)
(1.75396e-08 -9.58001e-08 9.15955e-08)
(1.89632e-08 -1.09319e-07 1.1011e-07)
(2.03687e-08 -1.22955e-07 1.31302e-07)
(2.19552e-08 -1.36254e-07 1.55425e-07)
(2.39454e-08 -1.48419e-07 1.82373e-07)
(2.68554e-08 -1.58138e-07 2.11847e-07)
(3.12173e-08 -1.63465e-07 2.42681e-07)
(3.86504e-08 -1.61877e-07 2.72474e-07)
(5.12195e-08 -1.53325e-07 2.95598e-07)
(2.22776e-09 -8.57283e-09 6.96927e-09)
(6.16603e-09 -2.4018e-08 1.96144e-08)
(9.66062e-09 -3.84887e-08 3.17878e-08)
(1.27632e-08 -5.25447e-08 4.41669e-08)
(1.5533e-08 -6.66319e-08 5.73487e-08)
(1.80276e-08 -8.10836e-08 7.185e-08)
(2.03404e-08 -9.61478e-08 8.81822e-08)
(2.26025e-08 -1.11952e-07 1.06841e-07)
(2.49851e-08 -1.28513e-07 1.28284e-07)
(2.7664e-08 -1.45774e-07 1.52914e-07)
(3.09714e-08 -1.63516e-07 1.81053e-07)
(3.53149e-08 -1.81303e-07 2.12949e-07)
(4.12281e-08 -1.9823e-07 2.48616e-07)
(4.88891e-08 -2.1226e-07 2.87191e-07)
(5.84175e-08 -2.1871e-07 3.25772e-07)
(6.91006e-08 -2.11346e-07 3.55403e-07)
(2.62687e-09 -9.42268e-09 7.85274e-09)
(7.28072e-09 -2.64082e-08 2.21073e-08)
(1.14272e-08 -4.23481e-08 3.58127e-08)
(1.51457e-08 -5.78692e-08 4.97098e-08)
(1.85121e-08 -7.34732e-08 6.44272e-08)
(2.16286e-08 -8.95769e-08 8.05393e-08)
(2.46265e-08 -1.06502e-07 9.86016e-08)
(2.77029e-08 -1.24472e-07 1.19179e-07)
(3.11074e-08 -1.43631e-07 1.42797e-07)
(3.51951e-08 -1.64092e-07 1.69959e-07)
(4.04794e-08 -1.85935e-07 2.01139e-07)
(4.77958e-08 -2.09269e-07 2.3697e-07)
(5.83331e-08 -2.34186e-07 2.78188e-07)
(7.34198e-08 -2.6039e-07 3.25274e-07)
(9.45499e-08 -2.85625e-07 3.77296e-07)
(1.18251e-07 -3.01378e-07 4.23759e-07)
(3.00432e-09 -9.92631e-09 8.57249e-09)
(8.33141e-09 -2.7833e-08 2.41308e-08)
(1.30971e-08 -4.46667e-08 3.90693e-08)
(1.73985e-08 -6.11048e-08 5.41635e-08)
(2.13373e-08 -7.77017e-08 7.00599e-08)
(2.5031e-08 -9.49191e-08 8.7334e-08)
(2.8656e-08 -1.13138e-07 1.06572e-07)
(3.24625e-08 -1.3265e-07 1.28376e-07)
(3.6757e-08 -1.537e-07 1.53295e-07)
(4.20005e-08 -1.76519e-07 1.81865e-07)
(4.89423e-08 -2.01394e-07 2.14688e-07)
(5.8682e-08 -2.28898e-07 2.52548e-07)
(7.32115e-08 -2.60016e-07 2.96803e-07)
(9.58189e-08 -2.96762e-07 3.49466e-07)
(1.32925e-07 -3.42749e-07 4.13732e-07)
(1.8609e-07 -3.95795e-07 4.83951e-07)
(1.75989e-10 -9.24547e-10 6.72461e-10)
(4.83318e-10 -2.58592e-09 1.89389e-09)
(7.42289e-10 -4.13211e-09 3.07023e-09)
(9.47374e-10 -5.62719e-09 4.27278e-09)
(1.09282e-09 -7.12869e-09 5.57484e-09)
(1.16688e-09 -8.66057e-09 7.0292e-09)
(1.15591e-09 -1.02042e-08 8.66944e-09)
(1.03988e-09 -1.17274e-08 1.05306e-08)
(7.86027e-10 -1.31797e-08 1.26491e-08)
(3.35417e-10 -1.44924e-08 1.50737e-08)
(-4.16904e-10 -1.55131e-08 1.7824e-08)
(-1.53883e-09 -1.59056e-08 2.09272e-08)
(-3.28771e-09 -1.50006e-08 2.44045e-08)
(-6.28945e-09 -1.12579e-08 2.84589e-08)
(-1.28541e-08 -1.71508e-09 3.34447e-08)
(-2.67712e-08 1.46214e-08 3.80139e-08)
(5.31074e-10 -2.75727e-09 2.00679e-09)
(1.45937e-09 -7.7117e-09 5.65145e-09)
(2.24094e-09 -1.23238e-08 9.15146e-09)
(2.86964e-09 -1.6788e-08 1.27377e-08)
(3.32235e-09 -2.12597e-08 1.66053e-08)
(3.57079e-09 -2.57996e-08 2.09047e-08)
(3.57862e-09 -3.03933e-08 2.57587e-08)
(3.29196e-09 -3.49611e-08 3.12714e-08)
(2.62292e-09 -3.93814e-08 3.75576e-08)
(1.41334e-09 -4.34409e-08 4.47016e-08)
(-5.39543e-10 -4.6764e-08 5.27428e-08)
(-3.36238e-09 -4.86064e-08 6.16067e-08)
(-7.26376e-09 -4.77962e-08 7.09926e-08)
(-1.2528e-08 -4.2647e-08 8.03758e-08)
(-1.99326e-08 -3.21335e-08 8.82507e-08)
(-2.99271e-08 -2.09334e-08 9.11504e-08)
(8.96114e-10 -4.52272e-09 3.30727e-09)
(2.45867e-09 -1.26495e-08 9.29381e-09)
(3.79219e-09 -2.02231e-08 1.50611e-08)
(4.87537e-09 -2.75568e-08 2.09446e-08)
(5.68695e-09 -3.48834e-08 2.72668e-08)
(6.19195e-09 -4.23345e-08 3.42881e-08)
(6.34097e-09 -4.992e-08 4.22125e-08)
(6.06693e-09 -5.75624e-08 5.12313e-08)
(5.25184e-09 -6.50967e-08 6.1514e-08)
(3.6881e-09 -7.22623e-08 7.31974e-08)
(1.20211e-09 -7.85535e-08 8.63127e-08)
(-2.46623e-09 -8.32283e-08 1.00608e-07)
(-7.29232e-09 -8.51799e-08 1.15605e-07)
(-1.32779e-08 -8.36481e-08 1.30183e-07)
(-2.01188e-08 -7.97092e-08 1.42237e-07)
(-2.73861e-08 -7.84906e-08 1.4841e-07)
(1.2712e-09 -6.1538e-09 4.5305e-09)
(3.49577e-09 -1.72172e-08 1.27344e-08)
(5.40854e-09 -2.75463e-08 2.06297e-08)
(6.99805e-09 -3.75531e-08 2.86779e-08)
(8.2465e-09 -4.75548e-08 3.72992e-08)
(9.12241e-09 -5.77444e-08 4.68365e-08)
(9.58905e-09 -6.82007e-08 5.75972e-08)
(9.58914e-09 -7.88839e-08 6.98542e-08)
(9.01871e-09 -8.96547e-08 8.38567e-08)
(7.68806e-09 -1.00249e-07 9.97617e-08)
(5.42163e-09 -1.10199e-07 1.17642e-07)
(1.97054e-09 -1.18773e-07 1.37153e-07)
(-2.9343e-09 -1.25053e-07 1.57622e-07)
(-9.6404e-09 -1.28409e-07 1.77418e-07)
(-1.83932e-08 -1.29662e-07 1.93493e-07)
(-2.86629e-08 -1.31768e-07 2.01373e-07)
(1.65628e-09 -7.58637e-09 5.64564e-09)
(4.56918e-09 -2.12344e-08 1.58848e-08)
(7.09423e-09 -3.39993e-08 2.57233e-08)
(9.24076e-09 -4.63821e-08 3.57415e-08)
(1.10022e-08 -5.87722e-08 4.6426e-08)
(1.23732e-08 -7.14466e-08 5.82106e-08)
(1.33432e-08 -8.45585e-08 7.148e-08)
(1.39007e-08 -9.81457e-08 8.66022e-08)
(1.39787e-08 -1.1214e-07 1.03884e-07)
(1.3544e-08 -1.26327e-07 1.23625e-07)
(1.23492e-08 -1.40384e-07 1.45779e-07)
(1.02649e-08 -1.53622e-07 1.70263e-07)
(6.60786e-09 -1.6516e-07 1.96246e-07)
(2.36797e-10 -1.7385e-07 2.2178e-07)
(-1.05203e-08 -1.78987e-07 2.42801e-07)
(-2.50532e-08 -1.81789e-07 2.5309e-07)
(2.04999e-09 -8.75934e-09 6.63537e-09)
(5.6621e-09 -2.45321e-08 1.86637e-08)
(8.82597e-09 -3.93062e-08 3.02255e-08)
(1.15667e-08 -5.36659e-08 4.1966e-08)
(1.39063e-08 -6.80731e-08 5.44401e-08)
(1.58656e-08 -8.28744e-08 6.81291e-08)
(1.74863e-08 -9.83115e-08 8.3498e-08)
(1.88173e-08 -1.14513e-07 1.00991e-07)
(1.99204e-08 -1.315e-07 1.21016e-07)
(2.08187e-08 -1.49219e-07 1.4388e-07)
(2.15887e-08 -1.67455e-07 1.69784e-07)
(2.21072e-08 -1.85816e-07 1.98694e-07)
(2.17881e-08 -2.03549e-07 2.30102e-07)
(1.89412e-08 -2.19055e-07 2.6215e-07)
(9.9321e-09 -2.29329e-07 2.90255e-07)
(-7.66406e-09 -2.31094e-07 3.05963e-07)
(2.44223e-09 -9.62407e-09 7.4802e-09)
(6.75246e-09 -2.69647e-08 2.10356e-08)
(1.05576e-08 -4.32326e-08 3.4053e-08)
(1.39076e-08 -5.90805e-08 4.72338e-08)
(1.68479e-08 -7.50305e-08 6.1164e-08)
(1.94425e-08 -9.14985e-08 7.63671e-08)
(2.17825e-08 -1.08799e-07 9.33561e-08)
(2.3998e-08 -1.27147e-07 1.12636e-07)
(2.62601e-08 -1.46669e-07 1.34681e-07)
(2.87909e-08 -1.6745e-07 1.59875e-07)
(3.19045e-08 -1.89516e-07 1.88531e-07)
(3.59338e-08 -2.1288e-07 2.2088e-07)
(4.10175e-08 -2.3746e-07 2.56861e-07)
(4.65069e-08 -2.6268e-07 2.95284e-07)
(4.92458e-08 -2.86301e-07 3.31901e-07)
(4.23299e-08 -3.01574e-07 3.55657e-07)
(2.8181e-09 -1.01371e-08 8.16526e-09)
(7.8019e-09 -2.84133e-08 2.29645e-08)
(1.22272e-08 -4.55886e-08 3.71531e-08)
(1.61668e-08 -6.23654e-08 5.14647e-08)
(1.96948e-08 -7.93133e-08 6.65006e-08)
(2.29042e-08 -9.6896e-08 8.27962e-08)
(2.59372e-08 -1.1548e-07 1.00886e-07)
(2.89868e-08 -1.35343e-07 1.21306e-07)
(3.23232e-08 -1.56692e-07 1.44565e-07)
(3.63126e-08 -1.79709e-07 1.71068e-07)
(4.1494e-08 -2.04602e-07 2.01148e-07)
(4.86831e-08 -2.31679e-07 2.35246e-07)
(5.89735e-08 -2.61521e-07 2.73591e-07)
(7.39652e-08 -2.95056e-07 3.15786e-07)
(9.53245e-08 -3.33033e-07 3.5872e-07)
(1.19609e-07 -3.69482e-07 3.90259e-07)
(1.53426e-10 -9.40986e-10 6.11936e-10)
(4.17223e-10 -2.63427e-09 1.72198e-09)
(6.31601e-10 -4.21196e-09 2.79396e-09)
(7.85052e-10 -5.74027e-09 3.88709e-09)
(8.64282e-10 -7.27957e-09 5.06919e-09)
(8.5099e-10 -8.8499e-09 6.38437e-09)
(7.1895e-10 -1.04457e-08 7.86443e-09)
(4.32342e-10 -1.20355e-08 9.53578e-09)
(-7.52142e-11 -1.35942e-08 1.14297e-08)
(-9.14476e-10 -1.50687e-08 1.3567e-08)
(-2.25746e-09 -1.63802e-08 1.59603e-08)
(-4.43835e-09 -1.73752e-08 1.85154e-08)
(-8.08922e-09 -1.77885e-08 2.11043e-08)
(-1.50276e-08 -1.73002e-08 2.33679e-08)
(-2.97013e-08 -1.57096e-08 2.44361e-08)
(-5.6023e-08 -1.38959e-08 2.21443e-08)
(4.63928e-10 -2.80738e-09 1.82609e-09)
(1.26405e-09 -7.85482e-09 5.13764e-09)
(1.91868e-09 -1.25561e-08 8.32902e-09)
(2.39504e-09 -1.7117e-08 1.15877e-08)
(2.65784e-09 -2.16882e-08 1.50939e-08)
(2.65562e-09 -2.63492e-08 1.89872e-08)
(2.31945e-09 -3.1088e-08 2.33662e-08)
(1.54524e-09 -3.5852e-08 2.83217e-08)
(1.60917e-10 -4.05447e-08 3.393e-08)
(-2.10924e-09 -4.50405e-08 4.02598e-08)
(-5.68703e-09 -4.91001e-08 4.72483e-08)
(-1.12141e-08 -5.23622e-08 5.4603e-08)
(-1.96104e-08 -5.43224e-08 6.17833e-08)
(-3.26656e-08 -5.46983e-08 6.74181e-08)
(-5.23788e-08 -5.40485e-08 6.8793e-08)
(-7.50844e-08 -5.45669e-08 6.29304e-08)
(7.85766e-10 -4.60535e-09 3.00543e-09)
(2.15026e-09 -1.288e-08 8.45934e-09)
(3.27253e-09 -2.0601e-08 1.36978e-08)
(4.11965e-09 -2.80815e-08 1.90498e-08)
(4.6372e-09 -3.55734e-08 2.47917e-08)
(4.75321e-09 -4.32083e-08 3.11461e-08)
(4.37357e-09 -5.10153e-08 3.82965e-08)
(3.35591e-09 -5.89343e-08 4.63961e-08)
(1.4739e-09 -6.68548e-08 5.55877e-08)
(-1.63177e-09 -7.45827e-08 6.59414e-08)
(-6.51825e-09 -8.184e-08 7.73265e-08)
(-1.3781e-08 -8.81574e-08 8.94191e-08)
(-2.43831e-08 -9.3151e-08 1.01246e-07)
(-3.9349e-08 -9.69436e-08 1.11099e-07)
(-5.86443e-08 -1.00936e-07 1.15983e-07)
(-7.68624e-08 -1.06837e-07 1.13503e-07)
(1.12574e-09 -6.26587e-09 4.11941e-09)
(3.08821e-09 -1.753e-08 1.15927e-08)
(4.72772e-09 -2.80509e-08 1.87704e-08)
(6.01237e-09 -3.82546e-08 2.60914e-08)
(6.88249e-09 -4.84655e-08 3.39143e-08)
(7.26919e-09 -5.88904e-08 4.25487e-08)
(7.07539e-09 -6.96118e-08 5.2253e-08)
(6.16324e-09 -8.06143e-08 6.32629e-08)
(4.30233e-09 -9.17894e-08 7.57675e-08)
(1.13827e-09 -1.0295e-07 8.98839e-08)
(-3.88274e-09 -1.13795e-07 1.05426e-07)
(-1.13952e-08 -1.23839e-07 1.22032e-07)
(-2.24613e-08 -1.32685e-07 1.38613e-07)
(-3.82002e-08 -1.40374e-07 1.5311e-07)
(-5.86038e-08 -1.47921e-07 1.62166e-07)
(-7.82893e-08 -1.55819e-07 1.62748e-07)
(1.48692e-09 -7.72217e-09 5.14425e-09)
(4.08204e-09 -2.16171e-08 1.44533e-08)
(6.29233e-09 -3.4613e-08 2.34147e-08)
(8.08234e-09 -4.72284e-08 3.25234e-08)
(9.41432e-09 -5.98664e-08 4.22241e-08)
(1.02323e-08 -7.28027e-08 5.28868e-08)
(1.04707e-08 -8.61979e-08 6.48496e-08)
(1.00295e-08 -1.00095e-07 7.84216e-08)
(8.75329e-09 -1.14439e-07 9.388e-08)
(6.31002e-09 -1.29098e-07 1.1128e-07)
(2.3531e-09 -1.43751e-07 1.30685e-07)
(-3.90769e-09 -1.57952e-07 1.51491e-07)
(-1.37188e-08 -1.71097e-07 1.7274e-07)
(-2.89374e-08 -1.8261e-07 1.92103e-07)
(-5.08614e-08 -1.92274e-07 2.057e-07)
(-7.42268e-08 -2.00043e-07 2.09396e-07)
(1.86096e-09 -8.91602e-09 6.04369e-09)
(5.1272e-09 -2.49679e-08 1.69966e-08)
(7.94261e-09 -4.00029e-08 2.75198e-08)
(1.03008e-08 -5.46227e-08 3.81977e-08)
(1.21806e-08 -6.92963e-08 4.95169e-08)
(1.35654e-08 -8.43724e-08 6.18991e-08)
(1.4437e-08 -1.00085e-07 7.57472e-08)
(1.47746e-08 -1.16558e-07 9.14457e-08)
(1.45114e-08 -1.3381e-07 1.09304e-07)
(1.35283e-08 -1.51774e-07 1.29521e-07)
(1.15843e-08 -1.70242e-07 1.52055e-07)
(8.12299e-09 -1.88816e-07 1.76578e-07)
(1.8719e-09 -2.06807e-07 2.02115e-07)
(-9.65024e-09 -2.22886e-07 2.26275e-07)
(-2.98815e-08 -2.3464e-07 2.44741e-07)
(-5.64962e-08 -2.39039e-07 2.52199e-07)
(2.24225e-09 -9.79438e-09 6.81225e-09)
(6.19082e-09 -2.74362e-08 1.91622e-08)
(9.63473e-09 -4.39849e-08 3.10124e-08)
(1.25892e-08 -6.0108e-08 4.29976e-08)
(1.50696e-08 -7.63347e-08 5.56339e-08)
(1.70974e-08 -9.30749e-08 6.93817e-08)
(1.87176e-08 -1.10632e-07 8.46831e-08)
(1.99972e-08 -1.29194e-07 1.01979e-07)
(2.10025e-08 -1.4887e-07 1.21625e-07)
(2.1812e-08 -1.69681e-07 1.43856e-07)
(2.24833e-08 -1.91563e-07 1.6871e-07)
(2.29176e-08 -2.14338e-07 1.95969e-07)
(2.25284e-08 -2.37643e-07 2.24781e-07)
(1.96435e-08 -2.60509e-07 2.52746e-07)
(1.07588e-08 -2.80442e-07 2.7495e-07)
(-6.49152e-09 -2.91912e-07 2.84237e-07)
(2.61704e-09 -1.03139e-08 7.44159e-09)
(7.23501e-09 -2.89038e-08 2.09246e-08)
(1.12964e-08 -4.6369e-08 3.38397e-08)
(1.48467e-08 -6.34262e-08 4.68458e-08)
(1.79288e-08 -8.06496e-08 6.04832e-08)
(2.06054e-08 -9.84941e-08 7.52102e-08)
(2.29777e-08 -1.17306e-07 9.15018e-08)
(2.51912e-08 -1.37334e-07 1.09824e-07)
(2.74226e-08 -1.58735e-07 1.30535e-07)
(2.99244e-08 -1.8161e-07 1.53892e-07)
(3.30556e-08 -2.05974e-07 1.79985e-07)
(3.7186e-08 -2.31849e-07 2.08541e-07)
(4.27637e-08 -2.59212e-07 2.38874e-07)
(5.02047e-08 -2.87907e-07 2.68584e-07)
(6.00304e-08 -3.16998e-07 2.92112e-07)
(7.16529e-08 -3.4111e-07 2.99656e-07)
(1.30761e-10 -9.54604e-10 5.27048e-10)
(3.54261e-10 -2.67246e-09 1.48781e-09)
(5.25375e-10 -4.27502e-09 2.41099e-09)
(6.29787e-10 -5.83126e-09 3.35687e-09)
(6.48267e-10 -7.39848e-09 4.37812e-09)
(5.525e-10 -9.00708e-09 5.51e-09)
(3.0971e-10 -1.06466e-08 6.78082e-09)
(-1.33433e-10 -1.22986e-08 8.20901e-09)
(-8.64319e-10 -1.39463e-08 9.81712e-09)
(-2.02681e-09 -1.55635e-08 1.16193e-08)
(-3.87635e-09 -1.71338e-08 1.35808e-08)
(-6.80494e-09 -1.85868e-08 1.5645e-08)
(-1.16772e-08 -1.9906e-08 1.76199e-08)
(-2.05433e-08 -2.11708e-08 1.93143e-08)
(-3.79889e-08 -2.2723e-08 2.04842e-08)
(-6.65479e-08 -2.45526e-08 2.08847e-08)
(3.98239e-10 -2.84745e-09 1.57581e-09)
(1.07939e-09 -7.96822e-09 4.43883e-09)
(1.60542e-09 -1.27463e-08 7.18736e-09)
(1.94017e-09 -1.73839e-08 1.00067e-08)
(2.02362e-09 -2.20456e-08 1.30335e-08)
(1.78633e-09 -2.68064e-08 1.63867e-08)
(1.12986e-09 -3.16713e-08 2.0146e-08)
(-9.0224e-11 -3.66009e-08 2.43803e-08)
(-2.10374e-09 -4.15327e-08 2.91498e-08)
(-5.29478e-09 -4.64112e-08 3.44609e-08)
(-1.02262e-08 -5.11102e-08 4.02242e-08)
(-1.7685e-08 -5.54647e-08 4.62078e-08)
(-2.89684e-08 -5.93558e-08 5.17376e-08)
(-4.58419e-08 -6.28329e-08 5.59422e-08)
(-6.92974e-08 -6.61265e-08 5.74256e-08)
(-9.23112e-08 -6.87499e-08 5.57532e-08)
(6.81957e-10 -4.67057e-09 2.59758e-09)
(1.84964e-09 -1.30682e-08 7.29988e-09)
(2.7759e-09 -2.09062e-08 1.18362e-08)
(3.39563e-09 -2.85153e-08 1.64576e-08)
(3.63203e-09 -3.6143e-08 2.14139e-08)
(3.38232e-09 -4.39329e-08 2.68867e-08)
(2.50861e-09 -5.19209e-08 3.30224e-08)
(8.12317e-10 -6.00718e-08 3.99451e-08)
(-2.0267e-09 -6.83181e-08 4.77455e-08)
(-6.50397e-09 -7.65433e-08 5.64362e-08)
(-1.32743e-08 -8.45729e-08 6.59287e-08)
(-2.32572e-08 -9.2181e-08 7.568e-08)
(-3.74982e-08 -9.92508e-08 8.50136e-08)
(-5.67524e-08 -1.06042e-07 9.26437e-08)
(-7.92843e-08 -1.13246e-07 9.71535e-08)
(-9.63097e-08 -1.20312e-07 9.85377e-08)
(9.88511e-10 -6.35433e-09 3.56211e-09)
(2.69257e-09 -1.77826e-08 1.00102e-08)
(4.07483e-09 -2.84642e-08 1.62222e-08)
(5.0643e-09 -3.88316e-08 2.25502e-08)
(5.57494e-09 -4.92182e-08 2.9305e-08)
(5.49671e-09 -5.98291e-08 3.67384e-08)
(4.68479e-09 -7.07595e-08 4.50624e-08)
(2.92901e-09 -8.20123e-08 5.44625e-08)
(-9.88025e-11 -9.35141e-08 6.50742e-08)
(-4.89618e-09 -1.05144e-07 7.69127e-08)
(-1.21078e-08 -1.16657e-07 8.98909e-08)
(-2.26516e-08 -1.27769e-07 1.03361e-07)
(-3.75663e-08 -1.38246e-07 1.16542e-07)
(-5.74153e-08 -1.48173e-07 1.28039e-07)
(-8.02077e-08 -1.58003e-07 1.36266e-07)
(-9.75141e-08 -1.66718e-07 1.40658e-07)
(1.32017e-09 -7.83233e-09 4.4398e-09)
(3.61778e-09 -2.19252e-08 1.25019e-08)
(5.51927e-09 -3.51126e-08 2.02452e-08)
(6.96745e-09 -4.79229e-08 2.81231e-08)
(7.88489e-09 -6.07576e-08 3.64981e-08)
(8.17645e-09 -7.38959e-08 4.56737e-08)
(7.72352e-09 -8.74985e-08 5.59282e-08)
(6.35538e-09 -1.01619e-07 6.75101e-08)
(3.79652e-09 -1.16227e-07 8.05811e-08)
(-3.22199e-10 -1.31177e-07 9.53e-08)
(-6.62891e-09 -1.46231e-07 1.11291e-07)
(-1.59455e-08 -1.6096e-07 1.28222e-07)
(-2.95455e-08 -1.74867e-07 1.45086e-07)
(-4.85855e-08 -1.87363e-07 1.60403e-07)
(-7.23017e-08 -1.9791e-07 1.72313e-07)
(-9.26025e-08 -2.05523e-07 1.79501e-07)
(1.67861e-09 -9.04102e-09 5.2267e-09)
(4.61118e-09 -2.53188e-08 1.47023e-08)
(7.09063e-09 -4.05699e-08 2.3807e-08)
(9.07548e-09 -5.54013e-08 3.30416e-08)
(1.05124e-08 -7.02835e-08 4.28098e-08)
(1.13438e-08 -8.55583e-08 5.34605e-08)
(1.1502e-08 -1.01457e-07 6.53245e-08)
(1.08936e-08 -1.18097e-07 7.87034e-08)
(9.36951e-09 -1.35485e-07 9.38316e-08)
(6.69644e-09 -1.53528e-07 1.10787e-07)
(2.50169e-09 -1.71973e-07 1.29415e-07)
(-3.9125e-09 -1.90364e-07 1.49198e-07)
(-1.37937e-08 -2.07941e-07 1.69198e-07)
(-2.89553e-08 -2.23274e-07 1.87772e-07)
(-5.07765e-08 -2.33804e-07 2.02737e-07)
(-7.40006e-08 -2.36308e-07 2.12206e-07)
(2.05123e-09 -9.92938e-09 5.89912e-09)
(5.64789e-09 -2.78165e-08 1.65833e-08)
(8.73826e-09 -4.4595e-08 2.68373e-08)
(1.1308e-08 -6.09385e-08 3.71984e-08)
(1.33389e-08 -7.73734e-08 4.80998e-08)
(1.48174e-08 -9.43006e-08 5.99189e-08)
(1.57434e-08 -1.12009e-07 7.3025e-08)
(1.61168e-08 -1.30671e-07 8.77568e-08)
(1.59363e-08 -1.50349e-07 1.04385e-07)
(1.51781e-08 -1.70998e-07 1.23005e-07)
(1.37771e-08 -1.92428e-07 1.43468e-07)
(1.14834e-08 -2.14281e-07 1.65264e-07)
(7.68434e-09 -2.35926e-07 1.87389e-07)
(1.22182e-09 -2.56093e-07 2.07955e-07)
(-9.52984e-09 -2.72207e-07 2.24134e-07)
(-2.37495e-08 -2.79716e-07 2.33454e-07)
(2.42252e-09 -1.04548e-08 6.44384e-09)
(6.68274e-09 -2.92989e-08 1.81138e-08)
(1.03885e-08 -4.69994e-08 2.92862e-08)
(1.35555e-08 -6.42784e-08 4.05263e-08)
(1.61996e-08 -8.17035e-08 5.2282e-08)
(1.83543e-08 -9.9716e-08 6.49411e-08)
(2.00815e-08 -1.18645e-07 7.8897e-08)
(2.14678e-08 -1.38707e-07 9.45001e-08)
(2.26369e-08 -1.59999e-07 1.12042e-07)
(2.37613e-08 -1.8251e-07 1.31607e-07)
(2.50495e-08 -2.06101e-07 1.52965e-07)
(2.67914e-08 -2.30493e-07 1.75708e-07)
(2.92814e-08 -2.55284e-07 1.98633e-07)
(3.32302e-08 -2.79834e-07 2.19599e-07)
(4.05768e-08 -3.03152e-07 2.34874e-07)
(5.38385e-08 -3.2208e-07 2.40828e-07)
(1.11168e-10 -9.64571e-10 4.25242e-10)
(2.96743e-10 -2.70151e-09 1.19588e-09)
(4.29383e-10 -4.32285e-09 1.93924e-09)
(4.90223e-10 -5.90001e-09 2.70186e-09)
(4.52334e-10 -7.49553e-09 3.52207e-09)
(2.87602e-10 -9.12989e-09 4.4373e-09)
(-4.9285e-11 -1.08046e-08 5.45822e-09)
(-6.21384e-10 -1.25099e-08 6.60394e-09)
(-1.52417e-09 -1.42202e-08 7.88525e-09)
(-2.92757e-09 -1.59535e-08 9.31031e-09)
(-5.0752e-09 -1.76788e-08 1.08748e-08)
(-8.41978e-09 -1.94083e-08 1.24837e-08)
(-1.38376e-08 -2.11647e-08 1.4046e-08)
(-2.33885e-08 -2.30951e-08 1.55057e-08)
(-4.15704e-08 -2.54822e-08 1.70172e-08)
(-7.05394e-08 -2.77785e-08 1.86588e-08)
(3.39604e-10 -2.87779e-09 1.26893e-09)
(9.09433e-10 -8.05672e-09 3.56848e-09)
(1.32572e-09 -1.28922e-08 5.7939e-09)
(1.52985e-09 -1.75938e-08 8.05906e-09)
(1.45649e-09 -2.23261e-08 1.05047e-08)
(1.01331e-09 -2.71781e-08 1.32086e-08)
(8.38979e-11 -3.21489e-08 1.62333e-08)
(-1.50175e-09 -3.72053e-08 1.96247e-08)
(-4.01602e-09 -4.23351e-08 2.34243e-08)
(-7.8585e-09 -4.74818e-08 2.76504e-08)
(-1.36242e-08 -5.26014e-08 3.22393e-08)
(-2.21805e-08 -5.76013e-08 3.6846e-08)
(-3.47157e-08 -6.24119e-08 4.11961e-08)
(-5.28165e-08 -6.70538e-08 4.47086e-08)
(-7.67193e-08 -7.11943e-08 4.68134e-08)
(-9.85449e-08 -7.33236e-08 4.72026e-08)
(5.85971e-10 -4.72124e-09 2.08779e-09)
(1.58102e-09 -1.32109e-08 5.88653e-09)
(2.32503e-09 -2.11493e-08 9.53253e-09)
(2.74264e-09 -2.88638e-08 1.32713e-08)
(2.73101e-09 -3.66047e-08 1.72739e-08)
(2.16406e-09 -4.45115e-08 2.16868e-08)
(8.72292e-10 -5.26357e-08 2.66175e-08)
(-1.38639e-09 -6.09703e-08 3.21597e-08)
(-4.97173e-09 -6.94559e-08 3.83847e-08)
(-1.04017e-08 -7.80289e-08 4.5323e-08)
(-1.84066e-08 -8.65583e-08 5.27667e-08)
(-2.98505e-08 -9.48852e-08 6.04043e-08)
(-4.56677e-08 -1.0292e-07 6.76463e-08)
(-6.61047e-08 -1.10756e-07 7.38326e-08)
(-8.83664e-08 -1.18448e-07 7.83504e-08)
(-1.03081e-07 -1.24757e-07 8.10709e-08)
(8.61613e-10 -6.42252e-09 2.8653e-09)
(2.33814e-09 -1.79794e-08 8.07455e-09)
(3.48381e-09 -2.87881e-08 1.30847e-08)
(4.2093e-09 -3.92918e-08 1.81992e-08)
(4.40192e-09 -4.98157e-08 2.36574e-08)
(3.91892e-09 -6.0573e-08 2.96474e-08)
(2.57955e-09 -7.16607e-08 3.63342e-08)
(1.26442e-10 -8.3094e-08 4.38583e-08)
(-3.80727e-09 -9.48329e-08 5.23286e-08)
(-9.74495e-09 -1.06753e-07 6.17952e-08)
(-1.83966e-08 -1.18669e-07 7.19266e-08)
(-3.05648e-08 -1.30286e-07 8.24201e-08)
(-4.70748e-08 -1.41388e-07 9.26238e-08)
(-6.78122e-08 -1.51872e-07 1.01752e-07)
(-8.96384e-08 -1.61692e-07 1.0911e-07)
(-1.03919e-07 -1.69535e-07 1.14046e-07)
(1.17251e-09 -7.91588e-09 3.58563e-09)
(3.19378e-09 -2.21654e-08 1.00798e-08)
(4.81976e-09 -3.55094e-08 1.63435e-08)
(5.9609e-09 -4.84756e-08 2.2716e-08)
(6.50894e-09 -6.14635e-08 2.948e-08)
(6.34048e-09 -7.47434e-08 3.68704e-08)
(5.29457e-09 -8.84869e-08 4.51016e-08)
(3.15825e-09 -1.02758e-07 5.43683e-08)
(-3.73354e-10 -1.17511e-07 6.48424e-08)
(-5.74836e-09 -1.32623e-07 7.64244e-08)
(-1.35164e-08 -1.47811e-07 8.90471e-08)
(-2.44959e-08 -1.62644e-07 1.021e-07)
(-3.959e-08 -1.76569e-07 1.1503e-07)
(-5.92272e-08 -1.8884e-07 1.26904e-07)
(-8.14847e-08 -1.98603e-07 1.36873e-07)
(-9.83185e-08 -2.0487e-07 1.43733e-07)
(1.51266e-09 -9.137e-09 4.21745e-09)
(4.1421e-09 -2.55926e-08 1.18692e-08)
(6.31676e-09 -4.10153e-08 1.92328e-08)
(7.96415e-09 -5.60136e-08 2.67013e-08)
(9.0061e-09 -7.10499e-08 3.45875e-08)
(9.35126e-09 -8.64637e-08 4.31623e-08)
(8.89551e-09 -1.02479e-07 5.26824e-08)
(7.5026e-09 -1.19203e-07 6.33881e-08)
(4.98893e-09 -1.36628e-07 7.54398e-08)
(1.09321e-09 -1.54616e-07 8.88628e-08)
(-4.56365e-09 -1.72855e-07 1.03399e-07)
(-1.25701e-08 -1.9082e-07 1.18573e-07)
(-2.38369e-08 -2.07645e-07 1.3367e-07)
(-3.94284e-08 -2.21785e-07 1.47615e-07)
(-5.95694e-08 -2.30602e-07 1.59369e-07)
(-7.90882e-08 -2.31284e-07 1.67448e-07)
(1.87501e-09 -1.00344e-08 4.75892e-09)
(5.15197e-09 -2.81137e-08 1.33968e-08)
(7.92178e-09 -4.5074e-08 2.16903e-08)
(1.01431e-08 -6.15884e-08 3.00656e-08)
(1.17697e-08 -7.81734e-08 3.88639e-08)
(1.27608e-08 -9.52175e-08 4.83727e-08)
(1.30819e-08 -1.13002e-07 5.88876e-08)
(1.27015e-08 -1.31679e-07 7.06772e-08)
(1.15731e-08 -1.51265e-07 8.39066e-08)
(9.65525e-09 -1.71646e-07 9.85972e-08)
(6.88571e-09 -1.92534e-07 1.14503e-07)
(3.10264e-09 -2.13432e-07 1.31091e-07)
(-1.99804e-09 -2.33561e-07 1.47496e-07)
(-8.897e-09 -2.51584e-07 1.62383e-07)
(-1.80754e-08 -2.65168e-07 1.74365e-07)
(-2.87345e-08 -2.70867e-07 1.81964e-07)
(2.24249e-09 -1.05641e-08 5.20423e-09)
(6.17676e-09 -2.96059e-08 1.46387e-08)
(9.5571e-09 -4.74929e-08 2.36711e-08)
(1.23742e-08 -6.49403e-08 3.27543e-08)
(1.46228e-08 -8.25047e-08 4.22301e-08)
(1.63134e-08 -1.00616e-07 5.24187e-08)
(1.74745e-08 -1.19586e-07 6.36177e-08)
(1.81631e-08 -1.39598e-07 7.61119e-08)
(1.84677e-08 -1.60694e-07 9.00513e-08)
(1.85305e-08 -1.82771e-07 1.05435e-07)
(1.85916e-08 -2.0555e-07 1.22076e-07)
(1.8964e-08 -2.28603e-07 1.3922e-07)
(2.0213e-08 -2.51341e-07 1.55978e-07)
(2.36106e-08 -2.73091e-07 1.70674e-07)
(3.22245e-08 -2.93334e-07 1.81362e-07)
(4.89656e-08 -3.10498e-07 1.86286e-07)
(9.47794e-11 -9.7133e-10 3.08092e-10)
(2.51068e-10 -2.72136e-09 8.70496e-10)
(3.52982e-10 -4.35603e-09 1.41017e-09)
(3.79337e-10 -5.942e-09 1.96184e-09)
(3.02746e-10 -7.5458e-09 2.56345e-09)
(7.93833e-11 -9.22246e-09 3.23206e-09)
(-3.29495e-10 -1.09297e-08 3.97822e-09)
(-9.93433e-10 -1.26673e-08 4.81086e-09)
(-2.0169e-09 -1.44339e-08 5.74074e-09)
(-3.55752e-09 -1.62317e-08 6.7771e-09)
(-5.86254e-09 -1.8058e-08 7.8989e-09)
(-9.3729e-09 -1.99302e-08 9.0683e-09)
(-1.48844e-08 -2.18089e-08 1.02176e-08)
(-2.45159e-08 -2.38842e-08 1.13846e-08)
(-4.27933e-08 -2.63145e-08 1.2758e-08)
(-7.20584e-08 -2.8426e-08 1.43254e-08)
(2.9184e-10 -2.89932e-09 9.22496e-10)
(7.75485e-10 -8.11736e-09 2.60281e-09)
(1.09996e-09 -1.29901e-08 4.20812e-09)
(1.20263e-09 -1.77486e-08 5.86752e-09)
(9.99743e-10 -2.25566e-08 7.65483e-09)
(3.99788e-10 -2.7453e-08 9.62979e-09)
(-7.33951e-10 -3.2493e-08 1.18345e-08)
(-2.5883e-09 -3.76495e-08 1.43012e-08)
(-5.43648e-09 -4.29052e-08 1.70633e-08)
(-9.6725e-09 -4.8231e-08 2.01238e-08)
(-1.58656e-08 -5.35896e-08 2.34047e-08)
(-2.47704e-08 -5.88591e-08 2.67671e-08)
(-3.75443e-08 -6.39823e-08 2.99445e-08)
(-5.56019e-08 -6.87976e-08 3.26939e-08)
(-7.90947e-08 -7.26954e-08 3.4646e-08)
(-1.00489e-07 -7.40479e-08 3.53153e-08)
(5.10522e-10 -4.75509e-09 1.52387e-09)
(1.36325e-09 -1.33159e-08 4.2809e-09)
(1.96334e-09 -2.1327e-08 6.94625e-09)
(2.21691e-09 -2.91187e-08 9.67134e-09)
(2.01008e-09 -3.69333e-08 1.25969e-08)
(1.19384e-09 -4.49487e-08 1.58208e-08)
(-4.15797e-10 -5.31762e-08 1.94142e-08)
(-3.08214e-09 -6.16334e-08 2.3446e-08)
(-7.16978e-09 -7.02879e-08 2.7965e-08)
(-1.31862e-08 -7.90754e-08 3.29667e-08)
(-2.17918e-08 -8.78827e-08 3.836e-08)
(-3.37325e-08 -9.64734e-08 4.38333e-08)
(-4.97524e-08 -1.04745e-07 4.91065e-08)
(-6.98739e-08 -1.12598e-07 5.37743e-08)
(-9.11377e-08 -1.19756e-07 5.74138e-08)
(-1.04784e-07 -1.25046e-07 5.96122e-08)
(7.62047e-10 -6.4707e-09 2.09125e-09)
(2.05083e-09 -1.81167e-08 5.87746e-09)
(3.00754e-09 -2.90289e-08 9.53836e-09)
(3.51993e-09 -3.96417e-08 1.32774e-08)
(3.45594e-09 -5.02824e-08 1.72688e-08)
(2.65767e-09 -6.11223e-08 2.164e-08)
(9.16844e-10 -7.23121e-08 2.65097e-08)
(-2.04082e-09 -8.38694e-08 3.19798e-08)
(-6.59153e-09 -9.57508e-08 3.81303e-08)
(-1.32304e-08 -1.07837e-07 4.49307e-08)
(-2.2558e-08 -1.19912e-07 5.22621e-08)
(-3.52772e-08 -1.31668e-07 5.9777e-08)
(-5.18967e-08 -1.42791e-07 6.71191e-08)
(-7.20253e-08 -1.53003e-07 7.38148e-08)
(-9.23828e-08 -1.62019e-07 7.93408e-08)
(-1.05227e-07 -1.68742e-07 8.29093e-08)
(1.05144e-09 -7.97597e-09 2.60686e-09)
(2.8537e-09 -2.23411e-08 7.35285e-09)
(4.25375e-09 -3.58035e-08 1.19245e-08)
(5.1428e-09 -4.88874e-08 1.65852e-08)
(5.39588e-09 -6.19744e-08 2.15287e-08)
(4.86855e-09 -7.53652e-08 2.69208e-08)
(3.37359e-09 -8.92003e-08 3.29131e-08)
(6.75722e-10 -1.03557e-07 3.96487e-08)
(-3.5335e-09 -1.1839e-07 4.71954e-08)
(-9.63477e-09 -1.33555e-07 5.56141e-08)
(-1.81496e-08 -1.48706e-07 6.46362e-08)
(-2.96495e-08 -1.63401e-07 7.39713e-08)
(-4.47525e-08 -1.77004e-07 8.31544e-08)
(-6.35428e-08 -1.8863e-07 9.16532e-08)
(-8.40106e-08 -1.97295e-07 9.88149e-08)
(-9.91771e-08 -2.02325e-07 1.03501e-07)
(1.37873e-09 -9.20506e-09 3.07333e-09)
(3.76299e-09 -2.57934e-08 8.65988e-09)
(5.68808e-09 -4.13471e-08 1.40419e-08)
(7.06288e-09 -5.64714e-08 1.95047e-08)
(7.78838e-09 -7.16236e-08 2.52676e-08)
(7.74765e-09 -8.71134e-08 3.15178e-08)
(6.82032e-09 -1.0319e-07 3.84447e-08)
(4.85026e-09 -1.19948e-07 4.62089e-08)
(1.65419e-09 -1.3735e-07 5.49263e-08)
(-2.99914e-09 -1.5521e-07 6.45944e-08)
(-9.37012e-09 -1.73197e-07 7.50184e-08)
(-1.7877e-08 -1.90701e-07 8.57879e-08)
(-2.90799e-08 -2.0681e-07 9.63532e-08)
(-4.371e-08 -2.19918e-07 1.06098e-07)
(-6.18919e-08 -2.27437e-07 1.1424e-07)
(-7.96092e-08 -2.26995e-07 1.19524e-07)
(1.7335e-09 -1.01108e-08 3.4741e-09)
(4.74919e-09 -2.83328e-08 9.77986e-09)
(7.25641e-09 -4.54315e-08 1.58422e-08)
(9.19114e-09 -6.20701e-08 2.19659e-08)
(1.04895e-08 -7.87501e-08 2.83869e-08)
(1.11012e-08 -9.58673e-08 3.53191e-08)
(1.09586e-08 -1.1368e-07 4.29703e-08)
(1.00116e-08 -1.32328e-07 5.1513e-08)
(8.22296e-09 -1.5179e-07 6.10706e-08)
(5.59003e-09 -1.71895e-07 7.16598e-08)
(2.11312e-09 -1.9228e-07 8.30443e-08)
(-2.14628e-09 -2.12405e-07 9.47206e-08)