/*--------------------------------*- C++ -*----------------------------------*\
| =========                 |                                                 |
| \\      /  F ield         | OpenFOAM: The Open Source CFD Toolbox           |
|  \\    /   O peration     | Version:  v1912                                 |
|   \\  /    A nd           | Website:  www.openfoam.com                      |
|    \\/     M anipulation  |                                                 |
\*---------------------------------------------------------------------------*/
FoamFile
{
    version     2.0;
    format      ascii;
    class       surfaceScalarField;
    location    "0.17/fluid";
    object      meshPhi;
}
// * * * * * * * * * * * * * * * * * * * * * * * * * * * * * * * * * * * * * //

dimensions      [0 3 -1 0 0 0 0];
oriented        oriented;


internalField   nonuniform List<scalar> 
41600
(
2.31731e-13
-1.2016e-12
4.60581e-13
-4.73678e-13
4.34164e-13
-3.50041e-12
1.3512e-12
-1.39015e-12
6.0768e-13
-5.63746e-12
2.20796e-12
-2.27347e-12
7.52027e-13
-7.70013e-12
3.0841e-12
-3.1791e-12
8.66398e-13
-9.75258e-12
4.02764e-12
-4.15658e-12
9.48632e-13
-1.18206e-11
5.07665e-12
-5.24522e-12
9.96588e-13
-1.38911e-11
6.26037e-12
-6.47595e-12
1.00758e-12
-1.59201e-11
7.60577e-12
-7.87837e-12
9.78086e-13
-1.78299e-11
9.14095e-12
-9.48404e-12
9.08747e-13
-1.94788e-11
1.08925e-11
-1.13252e-11
8.20059e-13
-2.05954e-11
1.28797e-11
-1.34312e-11
8.07248e-13
-2.06391e-11
1.51162e-11
-1.58379e-11
1.10502e-12
-1.85385e-11
1.76372e-11
-1.86358e-11
2.19378e-12
-1.22551e-11
2.05565e-11
-2.20806e-11
4.61801e-12
6.68179e-13
2.39294e-11
-2.64346e-11
2.53252e-11
3.15199e-11
-3.81546e-11
6.9769e-13
-2.37589e-12
1.37345e-12
-1.4125e-12
1.30763e-12
-6.92316e-12
4.02883e-12
-4.14531e-12
1.83204e-12
-1.11545e-11
6.58256e-12
-6.77884e-12
2.27133e-12
-1.52379e-11
9.19162e-12
-9.47606e-12
2.62367e-12
-1.92948e-11
1.19958e-11
-1.23808e-11
2.88466e-12
-2.3385e-11
1.51088e-11
-1.56108e-11
3.04987e-12
-2.75041e-11
1.8622e-11
-1.9263e-11
3.1138e-12
-3.15895e-11
2.26181e-11
-2.34281e-11
3.06919e-12
-3.55127e-11
2.71783e-11
-2.81972e-11
2.91753e-12
-3.90428e-11
3.23723e-11
-3.3655e-11
2.71621e-12
-4.17658e-11
3.82383e-11
-3.9865e-11
2.71249e-12
-4.29476e-11
4.47686e-11
-4.68709e-11
3.48339e-12
-4.1423e-11
5.19351e-11
-5.47607e-11
6.15696e-12
-3.57326e-11
5.97407e-11
-6.37906e-11
1.18261e-11
-2.56032e-11
6.78992e-11
-7.38761e-11
-1.35135e-11
7.65797e-11
-8.63657e-11
1.1698e-12
-3.48477e-12
2.25878e-12
-2.32301e-12
2.19447e-12
-1.01583e-11
6.62522e-12
-6.81732e-12
3.08079e-12
-1.63755e-11
1.08229e-11
-1.11468e-11
3.83256e-12
-2.23777e-11
1.51049e-11
-1.55734e-11
4.44977e-12
-2.83423e-11
1.9694e-11
-2.03264e-11
4.93099e-12
-3.4374e-11
2.47781e-11
-2.56007e-11
5.27549e-12
-4.04997e-11
3.05152e-11
-3.15645e-11
5.48263e-12
-4.66697e-11
3.70476e-11
-3.83729e-11
5.54994e-12
-5.27492e-11
4.45056e-11
-4.61718e-11
5.48038e-12
-5.84904e-11
5.29904e-11
-5.50825e-11
5.3546e-12
-6.34612e-11
6.25364e-11
-6.51708e-11
5.46843e-12
-6.69528e-11
7.30641e-11
-7.64146e-11
6.45764e-12
-6.79973e-11
8.43474e-11
-8.86952e-11
9.51957e-12
-6.57076e-11
9.59585e-11
-1.01769e-10
1.56594e-11
-6.04544e-11
1.06939e-10
-1.14595e-10
-5.37427e-11
1.17862e-10
-1.29648e-10
1.64873e-12
-4.4864e-12
3.0942e-12
-3.18231e-12
3.0974e-12
-1.30833e-11
9.07533e-12
-9.33895e-12
4.36084e-12
-2.11028e-11
1.48226e-11
-1.52667e-11
5.44926e-12
-2.88548e-11
2.0675e-11
-2.13156e-11
6.37005e-12
-3.6572e-11
2.69284e-11
-2.77908e-11
7.13144e-12
-4.44108e-11
3.38389e-11
-3.49597e-11
7.74555e-12
-5.24481e-11
4.16314e-11
-4.30614e-11
8.22847e-12
-6.06767e-11
5.05105e-11
-5.2317e-11
8.59482e-12
-6.90001e-11
6.06579e-11
-6.2928e-11
8.86206e-12
-7.72149e-11
7.22098e-11
-7.50539e-11
9.11902e-12
-8.49501e-11
8.52068e-11
-8.87688e-11
9.6063e-12
-9.15909e-11
9.95258e-11
-1.04002e-10
1.07595e-11
-9.62665e-11
1.14776e-10
-1.20449e-10
1.33805e-11
-9.80083e-11
1.30123e-10
-1.37397e-10
1.81792e-11
-9.64813e-11
1.43932e-10
-1.53023e-10
-9.19158e-11
1.55839e-10
-1.68813e-10
2.13177e-12
-5.33996e-12
3.85855e-12
-3.96879e-12
4.01181e-12
-1.55783e-11
1.13172e-11
-1.16466e-11
5.66615e-12
-2.51429e-11
1.84803e-11
-1.90339e-11
7.11491e-12
-3.44058e-11
2.57598e-11
-2.6556e-11
8.3783e-12
-4.36538e-11
3.35122e-11
-3.45821e-11
9.48112e-12
-5.30989e-11
4.20522e-11
-4.34422e-11
1.04584e-11
-6.28767e-11
5.16661e-11
-5.34404e-11
1.13568e-11
-7.30423e-11
6.26206e-11
-6.48631e-11
1.22256e-11
-8.35718e-11
7.51542e-11
-7.79707e-11
1.31286e-11
-9.43529e-11
8.94517e-11
-9.29762e-11
1.41813e-11
-1.05142e-10
1.05599e-10
-1.10005e-10
1.55639e-11
-1.15492e-10
1.23513e-10
-1.29025e-10
1.74494e-11
-1.24626e-10
1.42767e-10
-1.49692e-10
2.00264e-11
-1.31236e-10
1.62243e-10
-1.70992e-10
2.33745e-11
-1.33618e-10
1.79542e-10
-1.9026e-10
-1.30124e-10
1.93165e-10
-2.0775e-10
2.61255e-12
-6.00896e-12
4.53514e-12
-4.66523e-12
4.92507e-12
-1.75362e-11
1.33011e-11
-1.36892e-11
6.97665e-12
-2.83212e-11
2.17131e-11
-2.23635e-11
8.80066e-12
-3.87908e-11
3.02411e-11
-3.11736e-11
1.04333e-11
-4.92812e-11
3.92875e-11
-4.05386e-11
1.1921e-11
-6.0056e-11
4.92119e-11
-5.08369e-11
1.33295e-11
-7.13098e-11
6.03521e-11
-6.24266e-11
1.47469e-11
-8.31672e-11
7.30306e-11
-7.56521e-11
1.62789e-11
-9.56902e-11
8.75428e-11
-9.0834e-11
1.80719e-11
-1.08887e-10
1.04135e-10
-1.08253e-10
2.03374e-11
-1.22704e-10
1.22986e-10
-1.28136e-10
2.33348e-11
-1.36996e-10
1.44155e-10
-1.50619e-10
2.72276e-11
-1.51394e-10
1.67401e-10
-1.75572e-10
3.1907e-11
-1.64918e-10
1.91701e-10
-2.02128e-10
3.65417e-11
-1.75197e-10
2.14181e-10
-2.27131e-10
-1.748e-10
2.32051e-10
-2.49379e-10
3.08081e-12
-6.46257e-12
5.11232e-12
-5.25947e-12
5.81614e-12
-1.88666e-11
1.49918e-11
-1.54302e-11
8.25916e-12
-3.0491e-11
2.44609e-11
-2.51936e-11
1.04573e-11
-4.18057e-11
3.40312e-11
-3.50791e-11
1.24634e-11
-5.31874e-11
4.4135e-11
-4.55388e-11
1.43469e-11
-6.49429e-11
5.51608e-11
-5.69826e-11
1.62058e-11
-7.73151e-11
6.74818e-11
-6.98059e-11
1.81711e-11
-9.04871e-11
8.14627e-11
-8.43963e-11
2.04153e-11
-1.04598e-10
9.74437e-11
-1.01122e-10
2.31874e-11
-1.19766e-10
1.15728e-10
-1.20327e-10
2.68553e-11
-1.3613e-10
1.36594e-10
-1.42358e-10
3.19327e-11
-1.53894e-10
1.60301e-10
-1.67583e-10
3.90125e-11
-1.73363e-10
1.86971e-10
-1.96304e-10
4.86309e-11
-1.94844e-10
2.16156e-10
-2.28397e-10
5.98671e-11
-2.17341e-10
2.453e-10
-2.61198e-10
-2.40944e-10
2.70799e-10
-2.95407e-10
3.52315e-12
5.58285e-12
-5.74402e-12
-6.67688e-12
6.65829e-12
1.63676e-11
-1.68472e-11
-1.95008e-11
9.47198e-12
2.66867e-11
-2.74865e-11
-3.1542e-11
1.20241e-11
3.70766e-11
-3.82183e-11
-4.32988e-11
1.43816e-11
4.79832e-11
-4.95098e-11
-5.51744e-11
1.66333e-11
5.9806e-11
-6.17837e-11
-6.75024e-11
1.89027e-11
7.29343e-11
-7.54526e-11
-8.05571e-11
2.13532e-11
8.77521e-11
-9.09226e-11
-9.45591e-11
2.42083e-11
1.04618e-10
-1.08581e-10
-1.09691e-10
2.77929e-11
1.23858e-10
-1.28802e-10
-1.26131e-10
3.25974e-11
1.45791e-10
-1.51987e-10
-1.44097e-10
3.93536e-11
1.70785e-10
-1.78639e-10
-1.63918e-10
4.90854e-11
1.99213e-10
-2.09369e-10
-1.86111e-10
6.31395e-11
2.3116e-10
-2.44742e-10
-2.11389e-10
8.08386e-11
2.64522e-10
-2.82802e-10
-2.38883e-10
2.98503e-10
-3.33278e-10
-2.78065e-10
2.06512e-13
-1.22769e-12
4.28957e-13
3.84006e-13
-3.57711e-12
1.25842e-12
5.30125e-13
-5.76288e-12
2.05619e-12
6.41381e-13
-7.87502e-12
2.87091e-12
7.12728e-13
-9.98127e-12
3.74583e-12
7.36919e-13
-1.21121e-11
4.71562e-12
7.04106e-13
-1.4259e-11
5.80699e-12
5.98877e-13
-1.63848e-11
7.04321e-12
3.95566e-13
-1.84256e-11
8.44617e-12
5.6281e-14
-2.02712e-11
1.00315e-11
-4.62038e-13
-2.1714e-11
1.1795e-11
-1.20151e-12
-2.23607e-11
1.3697e-11
-2.2321e-12
-2.14939e-11
1.56411e-11
-3.71362e-12
-1.79101e-11
1.74123e-11
-5.78186e-12
-1.04616e-11
1.85385e-11
3.56129e-13
1.74994e-11
6.23288e-13
-2.42748e-12
1.27903e-12
1.15999e-12
-7.07393e-12
3.75164e-12
1.60432e-12
-1.13993e-11
6.12862e-12
1.94722e-12
-1.55783e-11
8.55385e-12
2.17514e-12
-1.97404e-11
1.11542e-11
2.26894e-12
-2.39527e-11
1.4033e-11
2.20237e-12
-2.82177e-11
1.72727e-11
1.93444e-12
-3.24828e-11
2.09445e-11
1.39726e-12
-3.66429e-11
2.51124e-11
4.94369e-13
-4.05149e-11
2.98162e-11
-8.77208e-13
-4.37784e-11
3.50333e-11
-2.79165e-12
-4.5898e-11
4.06295e-11
-5.3114e-12
-4.61107e-11
4.62834e-11
-8.47344e-12
-4.36722e-11
5.1317e-11
-1.20107e-11
-3.88829e-11
5.4477e-11
-3.59366e-11
5.12011e-11
1.05025e-12
-3.56048e-12
2.10346e-12
1.95803e-12
-1.03787e-11
6.16886e-12
2.71751e-12
-1.6732e-11
1.00745e-11
3.31782e-12
-2.28724e-11
1.40536e-11
3.74164e-12
-2.89884e-11
1.83096e-11
3.96503e-12
-3.51925e-11
2.30123e-11
3.95485e-12
-4.15188e-11
2.83029e-11
3.65882e-12
-4.79284e-11
3.43046e-11
2.98958e-12
-5.43113e-11
4.11214e-11
1.82542e-12
-6.04666e-11
4.88105e-11
4.3473e-14
-6.60537e-11
5.73268e-11
-2.43182e-12
-7.05493e-11
6.64441e-11
-5.59435e-12
-7.33281e-11
7.56246e-11
-9.15765e-12
-7.40324e-11
8.37956e-11
-1.22224e-11
-7.33134e-11
8.92354e-11
-7.36646e-11
8.80483e-11
1.49095e-12
-4.58348e-12
2.88167e-12
2.7864e-12
-1.33656e-11
8.45047e-12
3.88507e-12
-2.15591e-11
1.37975e-11
4.77924e-12
-2.94868e-11
1.92355e-11
5.45512e-12
-3.73936e-11
2.5035e-11
5.89383e-12
-4.54436e-11
3.1427e-11
6.06926e-12
-5.37188e-11
3.86118e-11
5.93755e-12
-6.22207e-11
4.67671e-11
5.42167e-12
-7.0871e-11
5.60402e-11
4.40803e-12
-7.95002e-11
6.65118e-11
2.77328e-12
-8.78042e-11
7.81339e-11
3.85758e-13
-9.53042e-11
9.06338e-11
-2.89165e-12
-1.01385e-10
1.03337e-10
-6.97966e-12
-1.05497e-10
1.1489e-10
-1.10504e-11
-1.07629e-10
1.23155e-10
-1.09497e-10
1.23919e-10
1.94482e-12
-5.45469e-12
3.59412e-12
3.64448e-12
-1.5912e-11
1.05393e-11
5.1068e-12
-2.5682e-11
1.72039e-11
6.33266e-12
-3.51511e-11
2.39682e-11
7.31938e-12
-4.46178e-11
3.11575e-11
8.06346e-12
-5.43002e-11
3.90551e-11
8.56072e-12
-6.43367e-11
4.79162e-11
8.79777e-12
-7.47858e-11
5.79733e-11
8.73864e-12
-8.56304e-11
6.94205e-11
8.32026e-12
-9.67717e-11
8.2376e-11
7.45059e-12
-1.07994e-10
9.68223e-11
5.93934e-12
-1.18913e-10
1.12504e-10
3.39106e-12
-1.28887e-10
1.28705e-10
-7.25891e-13
-1.36887e-10
1.43866e-10
-6.24223e-12
-1.4161e-10
1.55331e-10
-1.43941e-10
1.58279e-10
2.40641e-12
-6.13689e-12
4.22528e-12
4.5211e-12
-1.79082e-11
1.23892e-11
6.36466e-12
-2.89219e-11
2.02163e-11
7.95117e-12
-3.96194e-11
2.81405e-11
9.29464e-12
-5.03477e-11
3.65285e-11
1.0415e-11
-6.13749e-11
4.57037e-11
1.13419e-11
-7.28948e-11
5.59673e-11
1.21107e-11
-8.50284e-11
6.76009e-11
1.27538e-11
-9.78328e-11
8.08456e-11
1.33059e-11
-1.11306e-10
9.5866e-11
1.37832e-11
-1.2538e-10
1.12705e-10
1.40831e-11
-1.39885e-10
1.31193e-10
1.37827e-11
-1.54433e-10
1.50689e-10
1.19223e-11
-1.6806e-10
1.69584e-10
7.52355e-12
-1.78635e-10
1.8475e-10
-1.81437e-10
1.90753e-10
2.86512e-12
-6.59876e-12
4.76402e-12
5.39449e-12
-1.92627e-11
1.39665e-11
7.62371e-12
-3.113e-11
2.27773e-11
9.58231e-12
-4.26854e-11
3.16688e-11
1.13033e-11
-5.43153e-11
4.10349e-11
1.28334e-11
-6.63287e-11
5.12251e-11
1.42404e-11
-7.89644e-11
6.25727e-11
1.56144e-11
-9.23962e-11
7.53956e-11
1.707e-11
-1.06747e-10
8.99711e-11
1.87661e-11
-1.22106e-10
1.06504e-10
2.09045e-11
-1.38557e-10
1.25101e-10
2.36805e-11
-1.56205e-10
1.45699e-10
2.7141e-11
-1.75178e-10
1.67817e-10
3.09147e-11
-1.95459e-10
1.89958e-10
3.37241e-11
-2.15822e-10
2.08648e-10
-2.34875e-10
2.17208e-10
3.30625e-12
5.20331e-12
-6.8163e-12
6.23531e-12
1.52499e-11
-1.99062e-11
8.83781e-12
2.48509e-11
-3.21957e-11
1.1158e-11
3.45016e-11
-4.41973e-11
1.32466e-11
4.46088e-11
-5.63229e-11
1.51742e-11
5.55327e-11
-6.8907e-11
1.70414e-11
6.76214e-11
-8.22169e-11
1.89828e-11
8.12095e-11
-9.64595e-11
2.1181e-11
9.65883e-11
-1.11795e-10
2.38959e-11
1.13974e-10
-1.28357e-10
2.74953e-11
1.33494e-10
-1.46286e-10
3.24739e-11
1.55139e-10
-1.65767e-10
3.94436e-11
1.78548e-10
-1.87053e-10
4.90362e-11
2.02411e-10
-2.10337e-10
6.04069e-11
2.23167e-10
-2.34238e-10
2.32487e-10
-2.60779e-10
1.79876e-13
-1.25018e-12
3.80723e-13
3.31123e-13
-3.64366e-12
1.11697e-12
4.48472e-13
-5.87302e-12
1.82521e-12
5.2497e-13
-8.03037e-12
2.54823e-12
5.51194e-13
-1.01855e-11
3.3235e-12
5.14467e-13
-1.23727e-11
4.18071e-12
3.96766e-13
-1.45899e-11
5.14226e-12
1.6945e-13
-1.68097e-11
6.22656e-12
-2.14996e-13
-1.89871e-11
7.44889e-12
-8.31403e-13
-2.1051e-11
8.81443e-12
-1.78992e-12
-2.28763e-11
1.03031e-11
-3.26742e-12
-2.42543e-11
1.18477e-11
-5.60908e-12
-2.48841e-11
1.33045e-11
-9.46918e-12
-2.44403e-11
1.44024e-11
-1.52735e-11
-2.29147e-11
1.47224e-11
-2.06966e-11
1.48143e-11
5.44768e-13
-2.47172e-12
1.13528e-12
1.00442e-12
-7.20421e-12
3.33021e-12
1.36463e-12
-1.16133e-11
5.44055e-12
1.60633e-12
-1.58785e-11
7.59286e-12
1.70362e-12
-2.01344e-11
9.89716e-12
1.62176e-12
-2.44543e-11
1.24419e-11
1.31137e-12
-2.88497e-11
1.52961e-11
6.94793e-13
-3.32837e-11
1.85165e-11
-3.54936e-13
-3.76815e-11
2.21479e-11
-2.03115e-12
-4.19198e-11
2.62022e-11
-4.60259e-12
-4.57951e-11
3.0616e-11
-8.45824e-12
-4.90089e-11
3.51899e-11
-1.42309e-11
-5.12409e-11
3.95086e-11
-2.28111e-11
-5.23964e-11
4.28206e-11
-3.40334e-11
-5.30006e-11
4.40897e-11
-5.52711e-11
4.27787e-11
9.24157e-13
-3.62508e-12
1.86739e-12
1.70895e-12
-1.0568e-11
5.47695e-12
2.33509e-12
-1.7041e-11
8.94512e-12
2.77622e-12
-2.33037e-11
1.24769e-11
2.99653e-12
-2.95515e-11
1.62486e-11
2.9483e-12
-3.59035e-11
2.04055e-11
2.56416e-12
-4.24023e-11
2.50657e-11
1.73889e-12
-4.9025e-11
3.03283e-11
3.03167e-13
-5.56927e-11
3.62672e-11
-1.99214e-12
-6.22629e-11
4.29001e-11
-5.4751e-12
-6.85045e-11
5.01256e-11
-1.05763e-11
-7.41037e-11
5.76408e-11
-1.78243e-11
-7.87863e-11
6.48366e-11
-2.74959e-11
-8.26072e-11
7.06664e-11
-3.81481e-11
-8.61366e-11
7.38284e-11
-9.04559e-11
7.45573e-11
1.32445e-12
-4.66604e-12
2.55916e-12
2.45856e-12
-1.36068e-11
7.50519e-12
3.38372e-12
-2.19509e-11
1.22545e-11
4.07304e-12
-3.00307e-11
1.7082e-11
4.49008e-12
-3.80982e-11
2.22218e-11
4.5872e-12
-4.63229e-11
2.78708e-11
4.29786e-12
-5.47923e-11
3.41971e-11
3.51758e-12
-6.35183e-11
4.13449e-11
2.07821e-12
-7.24452e-11
4.94216e-11
-2.67278e-13
-8.14426e-11
5.8457e-11
-3.85367e-12
-9.02819e-11
6.83323e-11
-9.1504e-12
-9.86323e-11
7.8694e-11
-1.67313e-11
-1.06133e-10
8.8834e-11
-2.68499e-11
-1.12574e-10
9.75476e-11
-3.79276e-11
-1.18019e-10
1.03322e-10
-1.2333e-10
1.06231e-10
1.7472e-12
-5.55196e-12
3.19333e-12
3.25648e-12
-1.61955e-11
9.36438e-12
4.51589e-12
-2.61407e-11
1.52856e-11
5.50536e-12
-3.57842e-11
2.1291e-11
6.19774e-12
-4.54312e-11
2.76619e-11
6.55918e-12
-5.5302e-11
3.46392e-11
6.54373e-12
-6.55355e-11
4.24378e-11
6.07689e-12
-7.61925e-11
5.12472e-11
5.03371e-12
-8.72617e-11
6.12115e-11
3.22238e-12
-9.86544e-11
7.23816e-11
3.44521e-13
-1.10179e-10
8.46461e-11
-4.11047e-12
-1.21508e-10
9.76476e-11
-1.09307e-11
-1.32132e-10
1.10633e-10
-2.09125e-11
-1.4129e-10
1.22266e-10
-3.31081e-11
-1.47989e-10
1.3073e-10
-1.52879e-10
1.35784e-10
2.18785e-12
-6.24495e-12
3.75589e-12
4.09288e-12
-1.82227e-11
1.10126e-11
5.71527e-12
-2.9429e-11
1.79681e-11
7.04797e-12
-4.03154e-11
2.5003e-11
8.08108e-12
-5.12341e-11
3.24343e-11
8.80555e-12
-6.24526e-11
4.05373e-11
9.21171e-12
-7.41595e-11
4.9566e-11
9.27841e-12
-8.64676e-11
5.97503e-11
8.95876e-12
-9.94211e-11
7.12685e-11
8.16744e-12
-1.12996e-10
8.41981e-11
6.72329e-12
-1.27084e-10
9.84538e-11
4.20897e-12
-1.41461e-10
1.13702e-10
-2.14371e-13
-1.55678e-10
1.29178e-10
-7.85864e-12
-1.6878e-10
1.43422e-10
-1.90303e-11
-1.78903e-10
1.54266e-10
-1.81949e-10
1.6129e-10
2.6353e-12
-6.71342e-12
4.23648e-12
4.94506e-12
-1.95959e-11
1.24187e-11
6.94509e-12
-3.16659e-11
2.02486e-11
8.64515e-12
-4.34174e-11
2.81408e-11
1.00567e-11
-5.52406e-11
3.64358e-11
1.12008e-11
-6.74406e-11
4.54322e-11
1.21108e-11
-8.02462e-11
5.54113e-11
1.28289e-11
-9.3814e-11
6.66323e-11
1.34024e-11
-1.08238e-10
7.9298e-11
1.38846e-11
-1.23555e-10
9.35061e-11
1.42969e-11
-1.39755e-10
1.09195e-10
1.45279e-11
-1.56776e-10
1.26055e-10
1.41672e-11
-1.74463e-10
1.43315e-10
1.23075e-11
-1.92359e-10
1.59369e-10
8.02951e-12
-2.08928e-10
1.71588e-10
-2.23053e-10
1.79088e-10
3.07357e-12
4.62833e-12
-6.93338e-12
5.78107e-12
1.35623e-11
-2.02461e-11
8.15493e-12
2.20935e-11
-3.27414e-11
1.02221e-11
3.06567e-11
-4.49398e-11
1.20151e-11
3.96047e-11
-5.72554e-11
1.35833e-11
4.92469e-11
-7.00172e-11
1.49988e-11
5.98775e-11
-8.34787e-11
1.63582e-11
7.17685e-11
-9.78241e-11
1.77904e-11
8.513e-11
-1.13174e-10
1.94698e-11
1.00059e-10
-1.29593e-10
2.1613e-11
1.16493e-10
-1.47095e-10
2.44449e-11
1.34123e-10
-1.65649e-10
2.81437e-11
1.5217e-10
-1.85129e-10
3.27466e-11
1.68957e-10
-2.05101e-10
3.75808e-11
1.81542e-10
-2.23709e-10
1.87436e-10
-2.41229e-10
1.53923e-13
-1.26834e-12
3.1834e-13
2.79722e-13
-3.69751e-12
9.34069e-13
3.69279e-13
-5.96253e-12
1.52663e-12
4.124e-13
-8.1577e-12
2.13176e-12
3.95702e-13
-1.03551e-11
2.78051e-12
3.01512e-13
-1.25918e-11
3.49677e-12
1.04674e-13
-1.48707e-11
4.29779e-12
-2.3405e-13
-1.71734e-11
5.1972e-12
-7.78193e-13
-1.94722e-11
6.20534e-12
-1.62699e-12
-2.17285e-11
7.323e-12
-2.93127e-12
-2.38808e-11
8.52675e-12
-4.93704e-12
-2.58434e-11
9.75331e-12
-8.09009e-12
-2.75411e-11
1.08952e-11
-1.31174e-11
-2.89743e-11
1.18055e-11
-2.01729e-11
-3.02034e-11
1.23366e-11
-3.01285e-11
1.34294e-11
4.68347e-13
-2.50759e-12
9.4948e-13
8.53304e-13
-7.31035e-12
2.78565e-12
1.13224e-12
-1.17891e-11
4.552e-12
1.27671e-12
-1.61275e-11
6.35415e-12
1.24956e-12
-2.04636e-11
8.28281e-12
1.0017e-12
-2.48751e-11
1.0409e-11
4.63729e-13
-2.93813e-11
1.27862e-11
-4.71477e-13
-3.39605e-11
1.54572e-11
-1.97374e-12
-3.8565e-11
1.84527e-11
-4.29955e-12
-4.31201e-11
2.17723e-11
-7.81695e-12
-4.75109e-11
2.5343e-11
-1.30663e-11
-5.15936e-11
2.898e-11
-2.08525e-11
-5.5273e-11
3.23724e-11
-3.20509e-11
-5.86185e-11
3.50875e-11
-4.56433e-11
-6.17773e-11
3.67082e-11
-6.5261e-11
3.70607e-11
8.01574e-13
-3.67749e-12
1.56243e-12
1.46719e-12
-1.07226e-11
4.58346e-12
1.96441e-12
-1.72957e-11
7.48804e-12
2.25241e-12
-2.3662e-11
1.04468e-11
2.27827e-12
-3.00203e-11
1.36045e-11
1.97268e-12
-3.64939e-11
1.70769e-11
1.23854e-12
-4.31336e-11
2.0957e-11
-7.16383e-14
-4.99316e-11
2.53205e-11
-2.18566e-12
-5.68359e-11
3.022e-11
-5.43444e-12
-6.37492e-11
3.56525e-11
-1.02641e-11
-7.05191e-11
4.14994e-11
-1.72528e-11
-7.69614e-11
4.7485e-11
-2.70108e-11
-8.29626e-11
5.3157e-11
-3.95202e-11
-8.86241e-11
5.78942e-11
-5.21118e-11
-9.40951e-11
6.11173e-11
-9.93907e-11
6.31629e-11
1.16268e-12
-4.73308e-12
2.1424e-12
2.14038e-12
-1.38039e-11
6.28444e-12
2.89755e-12
-2.22736e-11
1.02645e-11
3.38919e-12
-3.04804e-11
1.43107e-11
3.55791e-12
-3.86794e-11
1.86139e-11
3.32999e-12
-4.70425e-11
2.33313e-11
2.60378e-12
-5.56618e-11
2.85961e-11
1.22668e-12
-6.45596e-11
3.45206e-11
-1.03329e-12
-7.36963e-11
4.11821e-11
-4.50792e-12
-8.29685e-11
4.85777e-11
-9.6455e-12
-9.2194e-11
5.65621e-11
-1.70263e-11
-1.01121e-10
6.4813e-11
-2.72024e-11
-1.09487e-10
7.28074e-11
-3.99575e-11
-1.1711e-10
7.98328e-11
-5.24342e-11
-1.23797e-10
8.51769e-11
-1.29664e-10
8.89855e-11
1.55509e-12
-5.63091e-12
2.675e-12
2.87947e-12
-1.64269e-11
7.84612e-12
3.94191e-12
-2.65173e-11
1.28109e-11
4.70224e-12
-3.63041e-11
1.78458e-11
5.11073e-12
-4.60942e-11
2.31789e-11
5.10593e-12
-5.61072e-11
2.90033e-11
4.60539e-12
-6.64818e-11
3.54901e-11
3.48619e-12
-7.72794e-11
4.27879e-11
1.56121e-12
-8.84882e-11
5.09989e-11
-1.44261e-12
-1.00018e-10
6.01269e-11
-5.92648e-12
-1.11677e-10
7.00185e-11
-1.24833e-11
-1.23147e-10
8.03313e-11
-2.18266e-11
-1.3394e-10
9.04948e-11
-3.422e-11
-1.43307e-10
9.97054e-11
-4.74586e-11
-1.50192e-10
1.07058e-10
-1.54711e-10
1.12469e-10
1.97489e-12
-6.3326e-12
3.14817e-12
3.67575e-12
-1.84788e-11
9.23241e-12
5.08249e-12
-2.98434e-11
1.50663e-11
6.16781e-12
-4.08823e-11
2.09643e-11
6.89963e-12
-5.19476e-11
2.71833e-11
7.24218e-12
-6.3303e-11
3.39446e-11
7.15102e-12
-7.51305e-11
4.14512e-11
6.55978e-12
-8.75327e-11
4.98824e-11
5.36467e-12
-1.00534e-10
5.93622e-11
3.40472e-12
-1.14077e-10
6.99049e-11
4.04299e-13
-1.28001e-10
8.13586e-11
-4.13e-12
-1.42004e-10
9.33643e-11
-1.09713e-11
-1.55544e-10
1.05295e-10
-2.09269e-11
-1.67591e-10
1.16224e-10
-3.3066e-11
-1.76361e-10
1.25028e-10
-1.77698e-10
1.31559e-10
2.41056e-12
-6.80637e-12
3.55282e-12
4.50553e-12
-1.98669e-11
1.04157e-11
6.28089e-12
-3.21022e-11
1.69836e-11
7.72736e-12
-4.40095e-11
2.35985e-11
8.83623e-12
-5.59768e-11
3.05374e-11
9.60436e-12
-6.83025e-11
3.80416e-11
1.00341e-11
-8.12036e-11
4.63366e-11
1.01274e-11
-9.48167e-11
5.56224e-11
9.88165e-12
-1.092e-10
6.60359e-11
9.28236e-12
-1.2433e-10
7.75973e-11
8.26275e-12
-1.40094e-10
9.01516e-11
6.62541e-12
-1.56278e-10
1.03312e-10
3.97367e-12
-1.72509e-10
1.16372e-10
-2.08639e-13
-1.88102e-10
1.28216e-10
-5.68534e-12
-2.01626e-10
1.37431e-10
-2.12614e-10
1.4383e-10
2.84493e-12
3.88273e-12
-7.02815e-12
5.33462e-12
1.13776e-11
-2.05221e-11
7.48304e-12
1.85324e-11
-3.31839e-11
9.30036e-12
2.57065e-11
-4.55363e-11
1.08019e-11
3.31885e-11
-5.79898e-11
1.20162e-11
4.12303e-11
-7.08644e-11
1.29889e-11
5.00681e-11
-8.43985e-11
1.37828e-11
5.99094e-11
-9.87499e-11
1.44844e-11
7.08914e-11
-1.13994e-10
1.52112e-11
8.30269e-11
-1.30117e-10
1.61008e-11
9.61449e-11
-1.47011e-10
1.72856e-11
1.09823e-10
-1.6446e-10
1.89048e-11
1.23279e-10
-1.82076e-10
2.12331e-11
1.35237e-10
-1.99157e-10
2.45505e-11
1.44014e-10
-2.14033e-10
1.4875e-10
-2.27969e-10
1.30659e-13
-1.28218e-12
2.45268e-13
2.33721e-13
-3.73858e-12
7.19638e-13
2.98556e-13
-6.03115e-12
1.17621e-12
3.1219e-13
-8.25675e-12
1.64305e-12
2.58045e-13
-1.04893e-11
2.14427e-12
1.14556e-13
-1.27672e-11
2.69747e-12
-1.48559e-13
-1.50962e-11
3.31473e-12
-5.77214e-13
-1.74654e-11
4.0056e-12
-1.24268e-12
-1.98592e-11
4.7775e-12
-2.25299e-12
-2.22582e-11
5.6306e-12
-3.77076e-12
-2.46329e-11
6.54483e-12
-6.05497e-12
-2.69468e-11
7.47405e-12
-9.5526e-12
-2.91853e-11
8.35546e-12
-1.49349e-11
-3.13635e-11
9.12359e-12
-2.21744e-11
-3.33411e-11
9.71772e-12
-3.34034e-11
1.09176e-11
3.99846e-13
-2.53511e-12
7.31783e-13
7.17995e-13
-7.39233e-12
2.14701e-12
9.24464e-13
-1.19266e-11
3.50904e-12
9.82911e-13
-1.63247e-11
4.90049e-12
8.47062e-13
-2.07264e-11
6.39106e-12
4.5671e-13
-2.52117e-11
8.03292e-12
-2.7206e-13
-2.98057e-11
9.86426e-12
-1.46465e-12
-3.44986e-11
1.19158e-11
-3.31084e-12
-3.92616e-11
1.42097e-11
-6.08887e-12
-4.40478e-11
1.6743e-11
-1.01912e-11
-4.87833e-11
1.94528e-11
-1.61729e-11
-5.33798e-11
2.22038e-11
-2.47956e-11
-5.77845e-11
2.48052e-11
-3.67102e-11
-6.19824e-11
2.70343e-11
-5.04191e-11
-6.57515e-11
2.86726e-11
-6.90105e-11
2.93888e-11
6.91704e-13
-3.71783e-12
1.20475e-12
1.25056e-12
-1.08428e-11
3.53475e-12
1.63255e-12
-1.74965e-11
5.77688e-12
1.78478e-12
-2.3947e-11
8.06368e-12
1.64049e-12
-3.03938e-11
1.05048e-11
1.11354e-12
-3.6962e-11
1.31855e-11
8.54235e-14
-4.37089e-11
1.61733e-11
-1.61685e-12
-5.06391e-11
1.95243e-11
-4.24696e-12
-5.77172e-11
2.32767e-11
-8.16103e-12
-6.48688e-11
2.74195e-11
-1.38245e-11
-7.19726e-11
3.18502e-11
-2.17965e-11
-7.88817e-11
3.63658e-11
-3.25496e-11
-8.54913e-11
4.06768e-11
-4.56605e-11
-9.17819e-11
4.4433e-11
-5.78708e-11
-9.75824e-11
4.72829e-11
-1.02604e-10
4.92063e-11
1.01762e-12
-4.78489e-12
1.65281e-12
1.85499e-12
-1.39576e-11
4.84977e-12
2.46167e-12
-2.25282e-11
7.92525e-12
2.7775e-12
-3.08371e-11
1.10549e-11
2.72827e-12
-3.91387e-11
1.43819e-11
2.21993e-12
-4.76048e-11
1.80223e-11
1.12564e-12
-5.63322e-11
2.20746e-11
-7.3526e-13
-6.53502e-11
2.66229e-11
-3.62134e-12
-7.46272e-11
3.17217e-11
-7.88648e-12
-8.40666e-11
3.73547e-11
-1.39844e-11
-9.34948e-11
4.33929e-11
-2.24352e-11
-1.0267e-10
4.95927e-11
-3.3571e-11
-1.11311e-10
5.56094e-11
-4.66742e-11
-1.19132e-10
6.10262e-11
-5.83398e-11
-1.25735e-10
6.53869e-11
-1.31092e-10
6.84999e-11
1.38254e-12
-5.69212e-12
2.06496e-12
2.54069e-12
-1.66076e-11
6.05915e-12
3.42619e-12
-2.68137e-11
9.89865e-12
3.98201e-12
-3.67135e-11
1.37945e-11
4.14031e-12
-4.66115e-11
1.79172e-11
3.81807e-12
-5.67254e-11
2.24099e-11
2.90689e-12
-6.71934e-11
2.74003e-11
1.25617e-12
-7.80753e-11
3.29994e-11
-1.34589e-12
-8.9353e-11
3.92768e-11
-5.18977e-12
-1.00922e-10
4.62171e-11
-1.06687e-11
-1.1257e-10
5.36771e-11
-1.82866e-11
-1.23952e-10
6.13808e-11
-2.84935e-11
-1.34536e-10
6.89362e-11
-4.10154e-11
-1.43499e-10
7.58575e-11
-5.3153e-11
-1.49713e-10
8.1555e-11
-1.5328e-10
8.56797e-11
1.78308e-12
-6.4007e-12
2.43181e-12
3.29985e-12
-1.86789e-11
7.13434e-12
4.51223e-12
-3.01685e-11
1.1648e-11
5.37585e-12
-4.13255e-11
1.62116e-11
5.84076e-12
-5.2498e-11
2.10174e-11
5.85027e-12
-6.39443e-11
2.62306e-11
5.33509e-12
-7.58409e-11
3.20031e-11
4.20319e-12
-8.82789e-11
3.8467e-11
2.32849e-12
-1.01261e-10
4.57054e-11
-4.63813e-13
-1.14691e-10
5.37063e-11
-4.43445e-12
-1.28358e-10
6.23132e-11
-9.98012e-12
-1.41893e-10
7.12143e-11
-1.76061e-11
-1.54676e-10
7.99528e-11
-2.75844e-11
-1.65633e-10
8.79465e-11
-3.85046e-11
-1.7309e-10
9.44847e-11
-1.73178e-10
9.92006e-11
2.20738e-12
-6.87868e-12
2.74593e-12
4.10801e-12
-2.00785e-11
8.0526e-12
5.6801e-12
-3.24433e-11
1.31344e-11
6.89823e-12
-4.44689e-11
1.8251e-11
7.73734e-12
-5.65379e-11
2.36107e-11
8.17517e-12
-6.8941e-11
2.9395e-11
8.19135e-12
-8.18842e-11
3.57728e-11
7.76469e-12
-9.54847e-11
4.28885e-11
6.87263e-12
-1.09765e-10
5.08326e-11
5.48898e-12
-1.24645e-10
5.95916e-11
3.56149e-12
-1.39935e-10
6.89914e-11
9.77743e-13
-1.55318e-10
7.86746e-11
-2.42051e-12
-1.70317e-10
8.80959e-11
-6.64668e-12
-1.84224e-10
9.6531e-11
-1.0965e-11
-1.95895e-10
1.03131e-10
-2.05619e-10
1.07641e-10
2.63733e-12
3.00202e-12
-7.10184e-12
4.92918e-12
8.7984e-12
-2.07372e-11
6.87284e-12
1.4333e-11
-3.35287e-11
8.46413e-12
1.98792e-11
-4.59965e-11
9.70423e-12
2.5656e-11
-5.85442e-11
1.0605e-11
3.18544e-11
-7.14822e-11
1.11918e-11
3.86508e-11
-8.5035e-11
1.15072e-11
4.61924e-11
-9.93356e-11
1.16198e-11
5.45668e-11
-1.14415e-10
1.16367e-11
6.37509e-11
-1.30195e-10
1.1706e-11
7.35502e-11
-1.46477e-10
1.20219e-11
8.35613e-11
-1.62932e-10
1.29087e-11
9.31543e-11
-1.79071e-10
1.50632e-11
1.01475e-10
-1.94191e-10
1.92459e-11
1.07537e-10
-2.06996e-10
1.1086e-10
-2.19495e-10
1.11837e-13
-1.29189e-12
1.65319e-13
1.96509e-13
-3.76737e-12
4.84749e-13
2.41306e-13
-6.08008e-12
7.92062e-13
2.31152e-13
-8.32941e-12
1.10715e-12
1.47271e-13
-1.05896e-11
1.44643e-12
-3.44441e-14
-1.28991e-11
1.82102e-12
-3.47336e-13
-1.52656e-11
2.23843e-12
-8.40096e-13
-1.76832e-11
2.7048e-12
-1.58426e-12
-2.0143e-11
3.22531e-12
-2.68498e-12
-2.26342e-11
3.80003e-12
-4.29653e-12
-2.5134e-11
4.41711e-12
-6.66211e-12
-2.76085e-11
5.05007e-12
-1.02046e-11
-3.00354e-11
5.66329e-12
-1.55831e-11
-3.23789e-11
6.22232e-12
-2.28547e-11
-3.4382e-11
6.6847e-12
-3.41962e-11
7.57947e-12
3.44368e-13
-2.55469e-12
4.93282e-13
6.08304e-13
-7.45137e-12
1.44692e-12
7.55867e-13
-1.20277e-11
2.36513e-12
7.44839e-13
-1.64727e-11
3.30547e-12
5.22634e-13
-2.09258e-11
4.31487e-12
2.17397e-14
-2.54665e-11
5.4267e-12
-8.50326e-13
-3.01243e-11
6.66507e-12
-2.22599e-12
-3.4898e-11
8.05007e-12
-4.29517e-12
-3.97691e-11
9.59709e-12
-7.32616e-12
-4.46999e-11
1.13038e-11
-1.16847e-11
-4.96206e-11
1.31319e-11
-1.78753e-11
-5.44394e-11
1.5001e-11
-2.65768e-11
-5.9074e-11
1.67976e-11
-3.83803e-11
-6.34017e-11
1.83892e-11
-5.19818e-11
-6.70302e-11
1.96146e-11
-6.97865e-11
2.01579e-11
6.02582e-13
-3.74689e-12
8.12249e-13
1.0745e-12
-1.09308e-11
2.38368e-12
1.36257e-12
-1.76465e-11
3.89802e-12
1.40493e-12
-2.41628e-11
5.44569e-12
1.12533e-12
-3.06769e-11
7.09955e-12
4.26569e-13
-3.73137e-11
8.91465e-12
-8.22253e-13
-4.41356e-11
1.09347e-11
-2.80286e-12
-5.11556e-11
1.31973e-11
-5.76724e-12
-5.83463e-11
1.57273e-11
-1.00535e-11
-6.56366e-11
1.85178e-11
-1.60812e-11
-7.29012e-11
2.15049e-11
-2.43202e-11
-7.99799e-11
2.45607e-11
-3.50964e-11
-8.67235e-11
2.75046e-11
-4.78725e-11
-9.29936e-11
3.01141e-11
-5.96455e-11
-9.84809e-11
3.212e-11
-1.02918e-10
3.3396e-11
8.99705e-13
-4.82261e-12
1.11479e-12
1.6225e-12
-1.40711e-11
3.27285e-12
2.10619e-12
-2.27192e-11
5.35291e-12
2.27954e-12
-3.11064e-11
7.47306e-12
2.05685e-12
-3.94832e-11
9.72757e-12
1.33064e-12
-4.80209e-11
1.21918e-11
-4.00333e-14
-5.68196e-11
1.49309e-11
-2.24432e-12
-6.59131e-11
1.8001e-11
-5.53613e-12
-7.52695e-11
2.14376e-11
-1.02443e-11
-8.47848e-11
2.52307e-11
-1.67607e-11
-9.42721e-11
2.92964e-11
-2.54812e-11
-1.03468e-10
3.34715e-11
-3.65428e-11
-1.12045e-10
3.75321e-11
-4.90893e-11
-1.19615e-10
4.12053e-11
-6.00463e-11
-1.25704e-10
4.41435e-11
-1.30368e-10
4.61073e-11
1.2419e-12
-5.73721e-12
1.39361e-12
2.26404e-12
-1.6742e-11
4.09213e-12
3.00464e-12
-2.70357e-11
6.69136e-12
3.39448e-12
-3.70199e-11
9.33176e-12
3.35327e-12
-4.69948e-11
1.21252e-11
2.78384e-12
-5.71753e-11
1.51654e-11
1.56355e-12
-6.7699e-11
1.85374e-11
-4.65658e-13
-7.86231e-11
2.23149e-11
-3.50871e-12
-8.99188e-11
2.65449e-11
-7.82612e-12
-1.01462e-10
3.12172e-11
-1.3738e-11
-1.13017e-10
3.62292e-11
-2.16012e-11
-1.24209e-10
4.13864e-11
-3.1642e-11
-1.34464e-10
4.64248e-11
-4.34403e-11
-1.42903e-10
5.10228e-11
-5.46851e-11
-1.48393e-10
5.47464e-11
-1.51171e-10
5.72652e-11
1.62624e-12
-6.45123e-12
1.64229e-12
2.99202e-12
-1.88282e-11
4.82156e-12
4.045e-12
-3.04118e-11
7.87871e-12
4.72835e-12
-4.16552e-11
1.09718e-11
4.97982e-12
-5.2901e-11
1.42269e-11
4.72889e-12
-6.44029e-11
1.77535e-11
3.89286e-12
-7.63325e-11
2.16529e-11
2.37308e-12
-8.877e-11
2.60127e-11
5.08732e-14
-1.01696e-10
3.08895e-11
-3.21699e-12
-1.14986e-10
3.6272e-11
-7.61327e-12
-1.28391e-10
4.20395e-11
-1.33799e-11
-1.41506e-10
4.79597e-11
-2.07904e-11
-1.53684e-10
5.37189e-11
-2.9964e-11
-1.63856e-10
5.89357e-11
-3.98964e-11
-1.7045e-10
6.31111e-11
-1.69873e-10
6.59188e-11
2.04065e-12
-6.93252e-12
1.85555e-12
3.78151e-12
-2.02365e-11
5.44491e-12
5.1866e-12
-3.26977e-11
8.88716e-12
6.21869e-12
-4.48084e-11
1.23538e-11
6.84131e-12
-5.69448e-11
1.59826e-11
7.01932e-12
-6.93907e-11
1.98949e-11
6.71997e-12
-8.23431e-11
2.42028e-11
5.91569e-12
-9.59021e-11
2.90021e-11
4.5904e-12
-1.1006e-10
3.43531e-11
2.74768e-12
-1.24696e-10
4.02394e-11
4.10328e-13
-1.39576e-10
4.65206e-11
-2.38805e-12
-1.54342e-10
5.29245e-11
-5.58345e-12
-1.68505e-10
5.90739e-11
-9.02132e-12
-1.81418e-10
6.45033e-11
-1.23109e-11
-1.92134e-10
6.86515e-11
-2.01436e-10
7.13065e-11
2.46639e-12
2.02938e-12
-7.15681e-12
4.59522e-12
5.95078e-12
-2.08978e-11
6.37043e-12
9.6989e-12
-3.37853e-11
7.7772e-12
1.34548e-11
-4.63348e-11
8.80655e-12
1.73648e-11
-5.89426e-11
9.4588e-12
2.15572e-11