/*--------------------------------*- C++ -*----------------------------------*\
| =========                 |                                                 |
| \\      /  F ield         | OpenFOAM: The Open Source CFD Toolbox           |
|  \\    /   O peration     | Version:  v1912                                 |
|   \\  /    A nd           | Website:  www.openfoam.com                      |
|    \\/     M anipulation  |                                                 |
\*---------------------------------------------------------------------------*/
FoamFile
{
    version     2.0;
    format      ascii;
    class       volVectorField;
    location    "0.17/fluid";
    object      U;
}
// * * * * * * * * * * * * * * * * * * * * * * * * * * * * * * * * * * * * * //

dimensions      [0 1 -1 0 0 0 0];


internalField   nonuniform List<vector> 
14592
(
(0.0895029 0.0137741 3.05137e-05)
(0.0805387 0.0071836 -0.000392872)
(0.073349 0.00366124 -0.00092696)
(0.07026 0.0016011 -0.00154117)
(0.0684025 0.000823007 -0.00234431)
(0.0671087 0.000516508 -0.00337232)
(0.065977 0.000418412 -0.00468749)
(0.0647912 0.000404373 -0.00637798)
(0.0633849 0.000432855 -0.00857577)
(0.0617811 0.000472223 -0.0114919)
(0.0594482 0.000526383 -0.0154228)
(0.0570315 0.000504047 -0.0209076)
(0.0521941 0.0004919 -0.0287918)
(0.0477717 5.81142e-05 -0.0404543)
(0.0343583 -0.000201448 -0.0579876)
(0.0203522 -0.0025379 -0.065353)
(0.103869 0.0124416 -0.000145417)
(0.10454 0.0087836 -0.000795168)
(0.103844 0.005608 -0.00153986)
(0.102469 0.00333065 -0.00238084)
(0.10111 0.00226857 -0.00347166)
(0.0997307 0.00181208 -0.0048778)
(0.098304 0.00170155 -0.00668761)
(0.0966893 0.00178785 -0.0090244)
(0.094721 0.00200927 -0.012071)
(0.0924064 0.00232322 -0.0161165)
(0.0890955 0.0027214 -0.0215696)
(0.0854424 0.00311019 -0.0291587)
(0.0785568 0.00354089 -0.040002)
(0.0715686 0.00359738 -0.0559559)
(0.0521902 0.00363403 -0.0793378)
(0.0314624 0.00100766 -0.0890223)
(0.103143 0.00766439 -0.000156041)
(0.10508 0.00787562 -0.000820951)
(0.106152 0.00616775 -0.00157629)
(0.10575 0.0044958 -0.00242659)
(0.105058 0.00355619 -0.0035287)
(0.104044 0.00314087 -0.0049492)
(0.102845 0.0031162 -0.00677676)
(0.101373 0.00337232 -0.00913598)
(0.0994937 0.00385531 -0.0122117)
(0.0972252 0.00452766 -0.0162994)
(0.093891 0.00537503 -0.021814)
(0.0901367 0.00632065 -0.0295143)
(0.0829385 0.00736555 -0.0405341)
(0.075444 0.00817018 -0.0568602)
(0.0548908 0.00869572 -0.0808115)
(0.0326127 0.00591857 -0.0911869)
(0.10163 0.00547203 -0.000122301)
(0.103325 0.00674486 -0.000761085)
(0.104904 0.00590321 -0.00149677)
(0.105133 0.00484954 -0.00232567)
(0.104993 0.00421348 -0.00339806)
(0.104375 0.00399815 -0.00477618)
(0.103479 0.0041559 -0.00654419)
(0.102251 0.00463085 -0.00882157)
(0.100583 0.00539832 -0.011786)
(0.0985075 0.00644783 -0.0157268)
(0.0953292 0.00778505 -0.0210462)
(0.0916861 0.00937637 -0.0285114)
(0.0844536 0.0112204 -0.0392259)
(0.076781 0.0130216 -0.0552852)
(0.0556804 0.0144695 -0.0789479)
(0.0325441 0.0110349 -0.089827)
(0.100995 0.00401598 -6.98482e-05)
(0.102389 0.00561746 -0.000666528)
(0.104017 0.00542169 -0.00137242)
(0.104555 0.00490814 -0.00216948)
(0.104775 0.00461474 -0.00319697)
(0.104491 0.00465077 -0.00451051)
(0.103905 0.00503224 -0.006187)
(0.102972 0.00575291 -0.00833686)
(0.1016 0.00682055 -0.0111245)
(0.0998327 0.00825713 -0.0148243)
(0.096973 0.0100903 -0.0198101)
(0.0936475 0.0123364 -0.0268409)
(0.0866368 0.0149874 -0.0369476)
(0.0790242 0.0177901 -0.0523451)
(0.0573394 0.0201919 -0.0751208)
(0.0330456 0.0157729 -0.0865154)
(0.100716 0.00310819 -7.49042e-06)
(0.101919 0.00467085 -0.000553223)
(0.103534 0.00482835 -0.00122355)
(0.104276 0.00469143 -0.00198267)
(0.104771 0.00469762 -0.00295616)
(0.104781 0.00498158 -0.00419161)
(0.104499 0.00559078 -0.00575681)
(0.103882 0.00655633 -0.00775057)
(0.10285 0.00792278 -0.0103204)
(0.101453 0.00976571 -0.0137208)
(0.0989917 0.0121743 -0.0182902)
(0.0960596 0.0153096 -0.0247734)
(0.0893459 0.01929 -0.034107)
(0.0818383 0.0241991 -0.0486506)
(0.0595199 0.0294615 -0.0702459)
(0.033892 0.0253922 -0.082367)
(0.100613 0.00236286 6.3479e-05)
(0.101745 0.00377343 -0.000424419)
(0.103382 0.00416132 -0.00105441)
(0.104284 0.00431122 -0.00177029)
(0.105004 0.00457542 -0.00268174)
(0.105282 0.00508209 -0.00382659)
(0.105307 0.00589373 -0.00526084)
(0.105047 0.00706551 -0.00706654)
(0.104454 0.00866725 -0.00936497)
(0.10361 0.0108154 -0.0123717)
(0.101894 0.0136333 -0.0163547)
(0.0999404 0.0174017 -0.0219776)
(0.0945281 0.0222818 -0.0299547)
(0.0885877 0.0287094 -0.0426538)
(0.0668506 0.036028 -0.0612919)
(0.0404479 0.031631 -0.0736873)
(0.100585 0.00168445 0.000139385)
(0.101734 0.00287674 -0.000286725)
(0.10345 0.00340165 -0.000873691)
(0.104506 0.00376508 -0.00154351)
(0.105427 0.0042401 -0.00238877)
(0.105948 0.0049315 -0.00343702)
(0.106261 0.00590589 -0.00473188)
(0.106347 0.0072354 -0.00633825)
(0.106183 0.00901544 -0.00835171)
(0.105864 0.0114204 -0.0109497)
(0.104841 0.0146532 -0.0143377)
(0.103723 0.019296 -0.0191014)
(0.0994274 0.0258742 -0.0257631)
(0.0948904 0.0367451 -0.0366846)
(0.074073 0.0526374 -0.0525787)
(0.0501838 0.0663797 -0.0662998)
(0.089459 0.0137772 -0.000164844)
(0.0803468 0.00719389 -0.000643013)
(0.0729556 0.00367126 -0.00113451)
(0.0696843 0.00161211 -0.00168231)
(0.0676251 0.00083703 -0.00240967)
(0.0661018 0.000535095 -0.00335759)
(0.0646847 0.000443614 -0.00458362)
(0.0631333 0.000438933 -0.00616271)
(0.0612495 0.000481347 -0.00820373)
(0.0590233 0.000541546 -0.0108568)
(0.0558923 0.000630562 -0.0143305)
(0.0524342 0.000666231 -0.0188512)
(0.046465 0.000761576 -0.0248607)
(0.0403575 0.000543418 -0.0320637)
(0.0267217 0.000591093 -0.0408408)
(0.0111387 -0.000971335 -0.0343898)
(0.103811 0.0124587 -0.000375954)
(0.104289 0.00881788 -0.00109489)
(0.103324 0.00564973 -0.00179088)
(0.101692 0.00338106 -0.00254889)
(0.100048 0.00233308 -0.0035424)
(0.0983409 0.00189701 -0.00484388)
(0.096508 0.00181518 -0.00653624)
(0.0943719 0.00194083 -0.00872621)
(0.0917203 0.00221622 -0.0115666)
(0.0885094 0.00260286 -0.0152693)
(0.0840337 0.00310236 -0.0201266)
(0.0788547 0.00362599 -0.0264733)
(0.0702307 0.00425424 -0.0348957)
(0.0607975 0.00457934 -0.0451261)
(0.0408053 0.00494673 -0.0573388)
(0.0180282 0.00261336 -0.0485795)
(0.103085 0.00769795 -0.000390258)
(0.104828 0.00793775 -0.00112637)
(0.105629 0.00624696 -0.0018325)
(0.104966 0.00459315 -0.00259859)
(0.103988 0.00368044 -0.00360198)
(0.102644 0.00330403 -0.00491641)
(0.101038 0.0033341 -0.00662516)
(0.0990422 0.00366525 -0.00883605)
(0.0964753 0.00425006 -0.0117035)
(0.0933039 0.00505698 -0.0154442)
(0.0887896 0.00608449 -0.0203544)
(0.0834887 0.00725307 -0.0267878)
(0.0745065 0.00859545 -0.035333)
(0.0645106 0.0097087 -0.0457699)
(0.0432765 0.0105655 -0.0582288)
(0.0188606 0.00741886 -0.0493214)
(0.101574 0.0055178 -0.000357546)
(0.103077 0.00682905 -0.0010688)
(0.104393 0.00601242 -0.00175571)
(0.104372 0.00498512 -0.00250104)
(0.103955 0.00438721 -0.00347579)
(0.103022 0.00422701 -0.00474945)
(0.101736 0.00446264 -0.00640103)
(0.100008 0.0050452 -0.00853356)
(0.0976828 0.00596006 -0.0112948)
(0.0947425 0.00720669 -0.0148961)
(0.0904264 0.0088104 -0.0196221)
(0.0852913 0.0107355 -0.0258341)
(0.0763117 0.013027 -0.0340933)
(0.0661841 0.0152799 -0.0442604)
(0.0443673 0.0172242 -0.056425)
(0.0190008 0.0130583 -0.0478575)
(0.10094 0.00407362 -0.000306393)
(0.10215 0.00572287 -0.000977)
(0.103526 0.00555919 -0.00163504)
(0.103825 0.00507957 -0.00234969)
(0.103785 0.00483493 -0.00328128)
(0.103207 0.00494153 -0.00449296)
(0.102258 0.0054231 -0.00605696)
(0.100862 0.00628301 -0.00806805)
(0.0988803 0.00754269 -0.0106621)
(0.0963135 0.00923839 -0.0140383)
(0.0923928 0.0114244 -0.0184576)
(0.0876797 0.0141168 -0.0242814)
(0.079006 0.0173715 -0.0320154)
(0.0690507 0.0207825 -0.0416418)
(0.0465661 0.0238776 -0.0531645)
(0.0198811 0.018381 -0.0451956)
(0.100663 0.00317472 -0.000245707)
(0.10169 0.00479227 -0.000867047)
(0.103065 0.0049872 -0.00149073)
(0.103584 0.00489004 -0.00216884)
(0.103838 0.00495343 -0.00304853)
(0.10358 0.00532052 -0.00418533)
(0.102969 0.00604862 -0.00564298)
(0.101934 0.00718166 -0.00750577)
(0.100351 0.00878306 -0.00989458)
(0.0982328 0.0109513 -0.0129928)
(0.0948026 0.0138167 -0.0170319)
(0.0906073 0.0175593 -0.022373)
(0.0823249 0.0224048 -0.0294499)
(0.0726165 0.0282742 -0.0384058)
(0.0494062 0.0347708 -0.0491124)
(0.021195 0.0293663 -0.0419975)
(0.100562 0.00243602 -0.000176804)
(0.101527 0.00390654 -0.000742211)
(0.102938 0.00433563 -0.00132697)
(0.103635 0.00452947 -0.00196349)
(0.104138 0.0048569 -0.00278361)
(0.104177 0.0054557 -0.00383375)
(0.103915 0.00639965 -0.00516679)
(0.103295 0.00775898 -0.00685233)
(0.102233 0.00962563 -0.00898881)
(0.100787 0.012145 -0.01173)
(0.0982636 0.0154888 -0.0152534)
(0.0952921 0.0199721 -0.0198811)
(0.0885751 0.0258865 -0.0259003)
(0.08086 0.033507 -0.0335963)
(0.0582001 0.0424411 -0.0425561)
(0.0290816 0.0363306 -0.0364265)
(0.100537 0.00176094 -0.000103254)
(0.101528 0.00301565 -0.000608914)
(0.103035 0.00358363 -0.0011522)
(0.103903 0.00399307 -0.00174439)
(0.104632 0.00453437 -0.00250096)
(0.104946 0.00532259 -0.00345866)
(0.105015 0.00643673 -0.00465901)
(0.104801 0.00796612 -0.00615651)
(0.104249 0.0100319 -0.00802746)
(0.103443 0.0128467 -0.0103968)
(0.10176 0.0166762 -0.0133933)
(0.0998392 0.022181 -0.0173051)
(0.094457 0.0300792 -0.0222892)
(0.0885497 0.0427355 -0.0287919)
(0.0668414 0.0613867 -0.0361353)
(0.0404591 0.0738174 -0.0317217)
(0.0894238 0.0137801 -0.000277076)
(0.0801845 0.0072033 -0.000765143)
(0.0726147 0.00368064 -0.0012065)
(0.0691733 0.00162246 -0.00168472)
(0.0669216 0.000850069 -0.00232441)
(0.0651765 0.000552099 -0.00316712)
(0.0634822 0.000466046 -0.00426388)
(0.061571 0.000468335 -0.00567717)
(0.0592088 0.000519488 -0.00749711)
(0.05633 0.000589902 -0.00983604)
(0.0523302 0.000690478 -0.012863)
(0.047657 0.000738419 -0.0166928)
(0.0403166 0.000844003 -0.0216822)
(0.032357 0.00065349 -0.027324)
(0.0188358 0.000667519 -0.0338274)
(0.00479867 -0.000728789 -0.0282498)
(0.103763 0.0124749 -0.000498747)
(0.104074 0.00885019 -0.00122384)
(0.102871 0.00568927 -0.00185546)
(0.100999 0.00342884 -0.00252258)
(0.0990833 0.00239399 -0.00340036)
(0.0970619 0.00197687 -0.00456092)
(0.0948373 0.00192139 -0.00607844)
(0.0921948 0.00208255 -0.00804257)
(0.0888723 0.00240512 -0.0105797)
(0.0847528 0.00285243 -0.0138502)
(0.0790695 0.00342988 -0.0180859)
(0.07223 0.00404601 -0.0234686)
(0.0617062 0.00478732 -0.0304462)
(0.0498149 0.00523043 -0.0384402)
(0.0298417 0.00567062 -0.0474118)
(0.00905986 0.00326787 -0.0395804)
(0.103037 0.00772993 -0.00051465)
(0.104612 0.00799671 -0.00125731)
(0.105173 0.00632215 -0.0018983)
(0.104268 0.00468547 -0.00257238)
(0.103017 0.00379802 -0.00345871)
(0.101356 0.00345808 -0.0046307)
(0.099356 0.00353932 -0.00616297)
(0.0968514 0.00394028 -0.0081461)
(0.0936084 0.00461913 -0.0107079)
(0.0895198 0.00554892 -0.0140125)
(0.083779 0.0067377 -0.0182949)
(0.0767891 0.00810002 -0.0237508)
(0.0658501 0.00968905 -0.0308287)
(0.0533243 0.0110356 -0.0389804)
(0.032038 0.0121152 -0.0481264)
(0.00961716 0.0085928 -0.040162)
(0.101528 0.00556141 -0.000484419)
(0.102867 0.00690903 -0.00120438)
(0.103949 0.00611608 -0.0018275)
(0.103694 0.00511364 -0.00248241)
(0.103015 0.00455162 -0.00334243)
(0.101777 0.00444324 -0.00447712)
(0.100115 0.00475201 -0.00595726)
(0.0978999 0.0054355 -0.00786928)
(0.0949254 0.00648842 -0.0103353)
(0.0911022 0.0079192 -0.0135152)
(0.0855954 0.00977098 -0.0176347)
(0.078814 0.0120044 -0.0228975)
(0.0678952 0.014705 -0.0297317)
(0.0552499 0.0173626 -0.0376613)
(0.0333064 0.01975 -0.0465823)
(0.00982863 0.0150021 -0.0389472)
(0.100896 0.00412847 -0.000436881)
(0.101947 0.00582293 -0.00111931)
(0.1031 0.00568958 -0.00171575)
(0.103177 0.00524195 -0.00234244)
(0.102889 0.00504322 -0.0031629)
(0.102027 0.00521625 -0.00424096)
(0.100728 0.0057921 -0.00564138)
(0.0988787 0.00678325 -0.00744347)
(0.0962926 0.00822441 -0.00975936)
(0.0929035 0.0101658 -0.0127393)
(0.0878626 0.0126888 -0.0165901)
(0.0815964 0.0158101 -0.02152)
(0.0710492 0.01965 -0.0279147)
(0.0586521 0.0236604 -0.0354107)
(0.0359199 0.0274601 -0.0438498)
(0.0109044 0.0211795 -0.0367654)
(0.100621 0.00323793 -0.00038054)
(0.101497 0.00490741 -0.00101742)
(0.10266 0.00513769 -0.00158216)
(0.102972 0.00507803 -0.00217528)
(0.102997 0.00519529 -0.00294819)
(0.102479 0.00564068 -0.00395785)
(0.101548 0.00648086 -0.00526149)
(0.100103 0.00777204 -0.00692938)
(0.0979733 0.00959626 -0.00906081)
(0.0951104 0.0120746 -0.0117934)
(0.0906523 0.0153801 -0.0153095)
(0.0850301 0.0197127 -0.0198221)
(0.0749686 0.0254089 -0.0256589)
(0.0629431 0.032236 -0.0326051)
(0.0393484 0.0399831 -0.0404111)
(0.0125088 0.0336893 -0.0340724)
(0.100522 0.00250541 -0.000316656)
(0.101344 0.00403262 -0.000901823)
(0.102558 0.00450063 -0.0014307)
(0.103064 0.00473591 -0.00198565)
(0.103359 0.00512294 -0.00270406)
(0.103167 0.00580858 -0.00363473)
(0.102625 0.00687746 -0.00482541)
(0.101651 0.00841446 -0.00633396)
(0.100119 0.010534 -0.00824092)
(0.0980442 0.013411 -0.0106611)
(0.0946497 0.0172713 -0.0137339)
(0.0904892 0.0224686 -0.017652)
(0.0822384 0.0294411 -0.0226317)
(0.0725676 0.0383211 -0.0286118)
(0.0493922 0.0490025 -0.0351554)
(0.0211969 0.0419042 -0.0297043)
(0.100499 0.0018334 -0.000248547)
(0.101357 0.0031471 -0.000778487)
(0.10268 0.00375576 -0.00126915)
(0.103376 0.00420859 -0.00178342)
(0.10392 0.00481236 -0.00244365)
(0.104033 0.00569189 -0.00329002)
(0.103864 0.00693806 -0.00436026)
(0.103353 0.008657 -0.00569928)
(0.102415 0.0109963 -0.00736865)
(0.101099 0.0142077 -0.00946022)
(0.0987065 0.0186276 -0.0120724)
(0.0958415 0.0249987 -0.0153788)
(0.0891889 0.0342622 -0.0194886)
(0.0817521 0.0487772 -0.0245046)
(0.0594969 0.0704129 -0.0298081)
(0.0339083 0.0825941 -0.0257011)
(0.0893955 0.0137827 -0.000320073)
(0.0800493 0.00721164 -0.000777639)
(0.0723269 0.00368907 -0.0011581)
(0.0687361 0.00163183 -0.00156037)
(0.0663152 0.000861918 -0.0020994)
(0.064378 0.000567705 -0.00281247)
(0.0624523 0.000487026 -0.00374021)
(0.0602574 0.000496846 -0.00492755)
(0.0575501 0.000558736 -0.00643581)
(0.0542509 0.000645027 -0.00832635)
(0.0497923 0.000769545 -0.0106923)
(0.0445959 0.000856896 -0.0135157)
(0.0369425 0.00102236 -0.0169569)
(0.0287176 0.000944628 -0.0203621)
(0.0160849 0.00107787 -0.0236809)
(0.00364947 -0.000138956 -0.0183142)
(0.103724 0.0124896 -0.000531127)
(0.103894 0.00887928 -0.00120588)
(0.102486 0.00572497 -0.00175438)
(0.100403 0.00347199 -0.00231913)
(0.0982486 0.00244893 -0.00306174)
(0.0959534 0.00204886 -0.00404685)
(0.0933987 0.00201721 -0.00533446)
(0.0903498 0.00221078 -0.00699066)
(0.0865291 0.00257708 -0.00910322)
(0.0817996 0.0030825 -0.011765)
(0.0754327 0.00373764 -0.0151062)
(0.0678147 0.00445459 -0.019133)
(0.0567536 0.00532951 -0.0240352)
(0.0444399 0.00594083 -0.0290204)
(0.0256283 0.00655123 -0.0337722)
(0.00708746 0.00414672 -0.0262375)
(0.102999 0.00775891 -0.000546781)
(0.104431 0.00804998 -0.00123803)
(0.104785 0.00639007 -0.00179482)
(0.103668 0.00476876 -0.0023654)
(0.102176 0.00390388 -0.00311519)
(0.10024 0.00359644 -0.00411001)
(0.0979082 0.00372315 -0.00541027)
(0.0949954 0.0041859 -0.00708277)
(0.0912512 0.00494758 -0.00921622)
(0.0865486 0.00598523 -0.011906)
(0.0801163 0.00731483 -0.0152839)
(0.0723395 0.00884724 -0.0193639)
(0.060847 0.0106521 -0.0243324)
(0.0478888 0.0122144 -0.0294084)
(0.0277611 0.0135084 -0.0342356)
(0.00762031 0.0097255 -0.0265471)
(0.101491 0.00560092 -0.000520285)
(0.102691 0.00698132 -0.00119179)
(0.103573 0.00620968 -0.00173286)
(0.103112 0.00522951 -0.00228669)
(0.102201 0.00469946 -0.00301362)
(0.1007 0.00463705 -0.00397616)
(0.0987206 0.00501028 -0.00523157)
(0.0961159 0.0057819 -0.00684327)
(0.092663 0.00695374 -0.00889558)
(0.0882544 0.00854031 -0.0114808)
(0.0820851 0.0105969 -0.0147238)
(0.0745514 0.0130772 -0.0186459)
(0.0630958 0.016093 -0.0234187)
(0.0500324 0.0190498 -0.0283161)
(0.0291967 0.0217428 -0.0329672)
(0.00792265 0.0165493 -0.0255488)
(0.10086 0.00417812 -0.000478425)
(0.101778 0.00591334 -0.00111702)
(0.102739 0.00580724 -0.00163473)
(0.102621 0.0053882 -0.00216399)
(0.102116 0.00523032 -0.00285661)
(0.101007 0.00546208 -0.00377028)
(0.0994125 0.00612055 -0.0049573)
(0.0972022 0.00722522 -0.00647553)
(0.0941736 0.00882046 -0.00840172)
(0.0902447 0.0109649 -0.0108216)
(0.0845909 0.0137567 -0.0138474)
(0.0776334 0.0172032 -0.0175077)
(0.0665827 0.0214627 -0.0219464)
(0.0537993 0.0258665 -0.0265288)
(0.0320815 0.030083 -0.0308548)
(0.0091168 0.0231863 -0.023902)
(0.100586 0.00329508 -0.000428845)
(0.101336 0.00501137 -0.00102747)
(0.102318 0.00527339 -0.00151745)
(0.102448 0.0052472 -0.0020175)
(0.102271 0.00541228 -0.00266894)
(0.101527 0.00592665 -0.00352364)
(0.100328 0.00686446 -0.00462783)
(0.0985572 0.00829107 -0.00603229)
(0.0960288 0.0103015 -0.00780413)
(0.0926826 0.0130295 -0.0100209)
(0.087672 0.0166731 -0.0127779)
(0.0814336 0.0214277 -0.016114)
(0.0709078 0.0276889 -0.020135)
(0.0585407 0.0350749 -0.0243285)
(0.0358523 0.043469 -0.0282431)
(0.0108616 0.0364308 -0.0219117)
(0.100489 0.00256809 -0.000372675)
(0.101193 0.00414639 -0.00092592)
(0.102238 0.00464931 -0.00138456)
(0.102576 0.00492154 -0.00185145)
(0.102688 0.00536139 -0.00245577)
(0.102295 0.00612336 -0.00324261)
(0.101516 0.00730062 -0.00425062)
(0.10026 0.0089887 -0.00552119)
(0.0983882 0.0113172 -0.00710787)
(0.0959089 0.0144771 -0.00907368)
(0.0920562 0.018724 -0.0114864)
(0.0874086 0.0244122 -0.0143832)
(0.0787918 0.0320528 -0.0178035)
(0.0689098 0.0416159 -0.0213774)
(0.0465036 0.0531328 -0.0245566)
(0.019855 0.0451768 -0.0190056)
(0.100468 0.00189878 -0.000312839)
(0.101217 0.00326563 -0.000817622)
(0.102384 0.00391078 -0.00124289)
(0.102927 0.00440227 -0.00167444)
(0.103308 0.00506135 -0.00222848)
(0.103245 0.00602092 -0.00294289)
(0.102875 0.00738114 -0.00384833)
(0.102128 0.00926006 -0.00497639)
(0.100908 0.0118224 -0.00636679)
(0.0992673 0.0153405 -0.00806813)
(0.09651 0.0201868 -0.0101217)
(0.0932834 0.0271198 -0.0125651)
(0.0863594 0.0371779 -0.0153744)
(0.0788556 0.0525796 -0.0183351)
(0.0572749 0.075456 -0.0208127)
(0.0330436 0.0869577 -0.0163609)
(0.0893732 0.0137849 -0.000306992)
(0.0799405 0.00721863 -0.000699826)
(0.072093 0.00369618 -0.00100858)
(0.068378 0.00163974 -0.0013288)
(0.0658156 0.000871863 -0.00175773)
(0.0637182 0.000580685 -0.00232634)
(0.061601 0.000504202 -0.00306574)
(0.0591733 0.000519587 -0.00400808)
(0.0561854 0.000588672 -0.00519625)
(0.0525442 0.000684346 -0.00666727)
(0.0477129 0.00082032 -0.0084821)
(0.0420865 0.000923767 -0.0105989)
(0.0341695 0.00110675 -0.0131214)
(0.0257526 0.00106616 -0.0155221)
(0.0138946 0.00121486 -0.0177315)
(0.00276895 6.06867e-05 -0.0136933)
(0.103692 0.0125022 -0.000489863)
(0.103749 0.00890399 -0.00106634)
(0.102172 0.00575531 -0.00151378)
(0.0999133 0.00350864 -0.00196544)
(0.0975591 0.00249548 -0.00255816)
(0.0950356 0.00210963 -0.00334553)
(0.0922078 0.00209767 -0.00437389)
(0.0888265 0.00231768 -0.00569104)
(0.0846034 0.0027188 -0.00735858)
(0.0793842 0.00326902 -0.009434)
(0.0724753 0.00398091 -0.0120009)
(0.0642427 0.00476658 -0.0150243)
(0.0527714 0.0057236 -0.0186168)
(0.0401879 0.00642671 -0.0221264)
(0.0224103 0.00710792 -0.0252725)
(0.00569316 0.00464279 -0.0195421)
(0.102968 0.00778363 -0.000503682)
(0.104285 0.00809534 -0.00109436)
(0.10447 0.00644788 -0.00154871)
(0.103175 0.00483957 -0.00200502)
(0.101482 0.00399367 -0.00260349)
(0.0993162 0.00371347 -0.00339869)
(0.0967096 0.00387806 -0.00443734)
(0.0934624 0.00439195 -0.0057678)
(0.0893129 0.00522144 -0.00745241)
(0.0841166 0.00634624 -0.00955046)
(0.0771347 0.00778727 -0.0121467)
(0.0687343 0.00945093 -0.0152112)
(0.0568162 0.0114162 -0.0188537)
(0.043578 0.0131304 -0.0224284)
(0.0244846 0.0145626 -0.0256243)
(0.00620364 0.0105527 -0.0197795)
(0.101461 0.00563463 -0.00048199)
(0.102549 0.00704293 -0.00105655)
(0.103266 0.00628937 -0.001498)
(0.102634 0.005328 -0.00194062)
(0.10153 0.00482486 -0.00252053)
(0.0998084 0.00480097 -0.00328962)
(0.0975662 0.00522798 -0.00429218)
(0.0946422 0.0060727 -0.00557402)
(0.0908022 0.00734241 -0.00719427)
(0.0859218 0.00905601 -0.00921013)
(0.0792245 0.0112776 -0.0117018)
(0.0710912 0.0139539 -0.0146456)
(0.059218 0.0172146 -0.0181417)
(0.0458777 0.020399 -0.021586)
(0.0260313 0.0233138 -0.02466)
(0.00656099 0.0177628 -0.0190311)
(0.100832 0.00422047 -0.000447551)
(0.101642 0.00599037 -0.000995123)
(0.102445 0.00590738 -0.00141746)
(0.102166 0.00551247 -0.00184007)
(0.101478 0.00538893 -0.00239216)
(0.100163 0.00566991 -0.00312176)
(0.0983239 0.00639732 -0.00406937)
(0.0958173 0.00759621 -0.00527659)
(0.0924301 0.00931856 -0.00679708)
(0.0880655 0.0116294 -0.00868367)
(0.0819213 0.0146398 -0.0110078)
(0.0744089 0.0183491 -0.0137533)
(0.0629616 0.0229437 -0.0170021)
(0.049917 0.0276612 -0.0202193)
(0.0291093 0.0322015 -0.0230709)
(0.0078353 0.0248281 -0.0178048)
(0.100559 0.0033438 -0.000406792)
(0.101207 0.00509991 -0.000921554)
(0.102041 0.00538884 -0.00132121)
(0.10202 0.00539087 -0.00172005)
(0.101674 0.00559613 -0.00223875)
(0.10074 0.00616825 -0.00292074)
(0.0993192 0.00718741 -0.0038018)
(0.0972805 0.00872621 -0.00491825)
(0.0944292 0.0108899 -0.00631661)
(0.0906928 0.0138221 -0.00804402)
(0.0852405 0.01774 -0.0101602)
(0.0785068 0.0228349 -0.0126581)
(0.067615 0.0295462 -0.0155941)
(0.0550163 0.0373767 -0.018525)
(0.0331432 0.046272 -0.0210867)
(0.00968815 0.0386737 -0.0162939)
(0.100464 0.00262148 -0.000360632)
(0.101072 0.00424325 -0.000838148)
(0.101979 0.00477575 -0.0012122)
(0.102178 0.00507913 -0.00158409)
(0.102137 0.00556335 -0.00206464)
(0.101574 0.00638917 -0.00269197)
(0.1006 0.0076567 -0.00349607)
(0.0991115 0.00946993 -0.00450633)
(0.0969629 0.0119706 -0.00575948)
(0.0941557 0.0153623 -0.00729307)
(0.0899346 0.0199247 -0.00914805)
(0.0848896 0.0260125 -0.0113203)
(0.0759778 0.0341937 -0.0138224)
(0.0659499 0.0443137 -0.0163202)
(0.0442387 0.0564994 -0.018392)
(0.0188994 0.0479271 -0.0141859)
(0.100445 0.00195445 -0.000311488)
(0.101104 0.0033665 -0.000749231)
(0.102144 0.00404255 -0.001096)
(0.102562 0.00456663 -0.00143918)
(0.102806 0.00527213 -0.00187903)
(0.102596 0.00629862 -0.002448)
(0.102057 0.00775373 -0.00316993)
(0.101116 0.00976495 -0.00406692)
(0.0996684 0.0125108 -0.00516551)
(0.0977651 0.0162795 -0.00649329)
(0.094717 0.0214728 -0.00807242)
(0.0911976 0.0288607 -0.0099021)
(0.0840611 0.0395584 -0.0119514)
(0.076525 0.0556749 -0.0140035)
(0.0555494 0.0795397 -0.0155877)
(0.0324709 0.0906185 -0.0121813)
(0.0893565 0.0137865 -0.000250367)
(0.0798583 0.00722411 -0.000551098)
(0.0719156 0.00370171 -0.000778706)
(0.068105 0.00164597 -0.00101141)
(0.0654343 0.000879694 -0.00132251)
(0.0632154 0.000590942 -0.0017349)
(0.0609565 0.000517855 -0.00226978)
(0.0583623 0.000537898 -0.00294722)
(0.0551847 0.000613313 -0.00379258)
(0.0513286 0.000717972 -0.00482184)
(0.0462948 0.000866241 -0.00606373)
(0.0404716 0.000988823 -0.00746254)
(0.0325231 0.00119687 -0.00906271)
(0.0241665 0.00120013 -0.0104795)
(0.0128461 0.00138537 -0.0116413)
(0.00250347 0.000265773 -0.00878121)
(0.103669 0.012512 -0.000391135)
(0.103638 0.00892343 -0.000831055)
(0.101933 0.00577911 -0.00116215)
(0.099539 0.00353741 -0.00149147)
(0.0970314 0.00253194 -0.00192243)
(0.0943343 0.00215719 -0.00249467)
(0.0913032 0.00216055 -0.00324024)
(0.0876818 0.00240115 -0.00418965)
(0.0831819 0.00282948 -0.00538007)
(0.0776474 0.00341501 -0.00683908)
(0.0704291 0.00417219 -0.00860662)
(0.0618958 0.00501421 -0.0106235)
(0.050334 0.0060403 -0.0129298)
(0.0378168 0.00682271 -0.0150434)
(0.020787 0.00757274 -0.0167401)
(0.00519513 0.0050554 -0.0126622)
(0.102945 0.00780308 -0.000401876)
(0.104174 0.00813102 -0.000852699)
(0.104229 0.00649327 -0.00118902)
(0.102798 0.00489512 -0.00152172)
(0.10095 0.00406397 -0.0019569)
(0.0986101 0.00380488 -0.00253489)
(0.0957989 0.00399871 -0.00328804)
(0.0923104 0.00455189 -0.00424724)
(0.0878824 0.00543317 -0.00545012)
(0.0823686 0.00662415 -0.00692532)
(0.0750736 0.00814914 -0.00871325)
(0.0663697 0.00991134 -0.0107575)
(0.0543557 0.0119958 -0.0130952)
(0.0411844 0.0138237 -0.0152469)
(0.0228413 0.0153587 -0.0169665)
(0.00570642 0.0111808 -0.0128062)
(0.101439 0.00566113 -0.000385818)
(0.102441 0.00709136 -0.000824701)
(0.103033 0.00635194 -0.00115145)
(0.102269 0.00540523 -0.00147401)
(0.101016 0.00492296 -0.00189554)
(0.0991273 0.00492886 -0.00245438)
(0.0966897 0.00539721 -0.0031812)
(0.0935355 0.0062977 -0.0041051)
(0.0894302 0.00764133 -0.0052616)
(0.0842482 0.0094497 -0.00667802)
(0.0772532 0.0117922 -0.008392)
(0.0688329 0.0146098 -0.0103517)
(0.0568689 0.0180427 -0.0125884)
(0.0435969 0.0213832 -0.0146508)
(0.0244679 0.0244444 -0.0162893)
(0.00610318 0.0186326 -0.0122835)
(0.100811 0.00425378 -0.000360189)
(0.101538 0.00605093 -0.000779039)
(0.102222 0.005986 -0.00109164)
(0.101818 0.00560987 -0.00139945)
(0.10099 0.00551295 -0.00180054)
(0.0995183 0.00583189 -0.00233049)
(0.0974974 0.00661212 -0.00301728)
(0.0947777 0.00788256 -0.00388721)
(0.0911457 0.00970022 -0.00497221)
(0.0865042 0.0121338 -0.00629706)
(0.0800869 0.015302 -0.0078942)
(0.0723151 0.0191958 -0.00971804)
(0.0607864 0.0240181 -0.0117892)
(0.0478144 0.0289401 -0.0137037)
(0.0276696 0.0336804 -0.0152041)
(0.00742752 0.0259626 -0.0114555)
(0.100539 0.0033821 -0.00032989)
(0.101109 0.00516949 -0.000724368)
(0.10183 0.00547945 -0.00102017)
(0.101693 0.00550343 -0.00131046)
(0.101217 0.00573979 -0.00168703)
(0.10014 0.00635635 -0.00218216)
(0.0985533 0.00743761 -0.00282055)
(0.0963222 0.00906112 -0.00362493)
(0.0932513 0.0113387 -0.0046226)
(0.0892691 0.0144195 -0.00583499)
(0.0835745 0.0185314 -0.0072876)
(0.0766169 0.0238579 -0.00894268)
(0.0656566 0.0308631 -0.0108057)
(0.0531404 0.0389667 -0.0125351)
(0.0318658 0.0481505 -0.0138575)
(0.00934508 0.0401497 -0.0104409)
(0.100445 0.00266345 -0.000295577)
(0.100981 0.00431933 -0.000662391)
(0.101783 0.00487496 -0.000939254)
(0.101875 0.00520254 -0.00120971)
(0.101716 0.00572106 -0.00155832)
(0.101025 0.00659596 -0.00201356)
(0.0999041 0.00793224 -0.00259619)
(0.0982486 0.00983961 -0.00332435)
(0.0959121 0.0124675 -0.00421914)
(0.0928997 0.0160264 -0.00529658)
(0.0884801 0.0208091 -0.00657132)
(0.0832656 0.0271637 -0.00801106)
(0.0743154 0.0356888 -0.00959669)
(0.0644033 0.0461391 -0.0110612)
(0.0432134 0.0586957 -0.0121011)
(0.0186778 0.0496842 -0.00909283)
(0.100427 0.00199817 -0.000259062)
(0.101019 0.00344572 -0.000596335)
(0.101963 0.00414591 -0.000853021)
(0.102284 0.0046953 -0.00110234)
(0.102423 0.00543667 -0.00142111)
(0.1021 0.00651451 -0.00183378)
(0.101436 0.00804174 -0.00235686)
(0.100354 0.0101521 -0.00300367)
(0.0987527 0.0130326 -0.00378881)
(0.0966868 0.01698 -0.00472269)
(0.0934863 0.0224118 -0.00580899)
(0.089855 0.0300955 -0.00702137)
(0.0827157 0.0411858 -0.00831615)
(0.0753425 0.0577058 -0.0095074)
(0.0548311 0.0820918 -0.0102697)
(0.032463 0.0928781 -0.00780857)
(0.0893455 0.0137876 -0.000162389)
(0.0798031 0.00722788 -0.000351661)
(0.071796 0.00370547 -0.000490385)
(0.0679206 0.00165024 -0.000631819)
(0.0651766 0.000885039 -0.000820126)
(0.0628759 0.000597924 -0.00106977)
(0.0605224 0.000527088 -0.00139303)
(0.0578185 0.000550152 -0.00180097)
(0.0545177 0.000629505 -0.0023074)
(0.050524 0.000739459 -0.00291911)
(0.0453631 0.000894303 -0.00365096)
(0.0394189 0.00102633 -0.00446462)
(0.0314561 0.00124489 -0.00538435)
(0.0231512 0.00126664 -0.00618405)
(0.0121855 0.00146222 -0.00681708)
(0.00233556 0.000354905 -0.00514432)
(0.103654 0.0125188 -0.000251481)
(0.103564 0.00893681 -0.000526754)
(0.101772 0.00579546 -0.000729801)
(0.0992857 0.0035572 -0.000930028)
(0.096674 0.00255696 -0.00119142)
(0.0938598 0.00218976 -0.00153834)
(0.0906929 0.00220349 -0.00198965)
(0.0869129 0.00245792 -0.00256234)
(0.0822331 0.00290431 -0.00327681)
(0.0764967 0.00351291 -0.00414575)
(0.0690853 0.00429885 -0.00518936)
(0.0603699 0.00517545 -0.00636491)
(0.0487642 0.00624179 -0.00769187)
(0.036314 0.00706748 -0.00888479)
(0.0197805 0.00785051 -0.00980712)
(0.00489604 0.00529036 -0.00740932)
(0.10293 0.00781649 -0.000257878)
(0.104099 0.00815558 -0.000540232)
(0.104067 0.00652448 -0.000746817)
(0.102543 0.00493332 -0.000949032)
(0.10059 0.00411222 -0.00121306)
(0.0981322 0.00386751 -0.00156348)
(0.0951844 0.00408117 -0.00201945)
(0.0915363 0.00466086 -0.00259816)
(0.086927 0.00557685 -0.00332031)
(0.0812099 0.00681179 -0.00419917)
(0.0737191 0.00839183 -0.00525526)
(0.0648307 0.0102177 -0.00644732)
(0.052769 0.0123775 -0.00779319)
(0.0396647 0.0142749 -0.00900836)
(0.0218206 0.0158699 -0.00994395)
(0.00540698 0.0115778 -0.00749797)
(0.101425 0.0056794 -0.000248234)
(0.102368 0.00712472 -0.000523064)
(0.102875 0.006395 -0.000723757)
(0.102022 0.00545833 -0.000919676)
(0.100669 0.0049903 -0.00117536)
(0.0986664 0.00501646 -0.00151409)
(0.0960981 0.00551283 -0.00195406)
(0.0927918 0.00645094 -0.00251141)
(0.088514 0.00784413 -0.00320562)
(0.0831387 0.00971557 -0.00404927)
(0.0759575 0.0121378 -0.00506143)
(0.0673624 0.0150474 -0.00620355)
(0.0553528 0.0185909 -0.00749061)
(0.0421471 0.0220303 -0.00865419)
(0.0234954 0.0251809 -0.00954442)
(0.00582668 0.0191969 -0.00719147)
(0.100797 0.00427674 -0.000232372)
(0.101469 0.00609263 -0.000494903)
(0.102072 0.00604011 -0.000686971)
(0.101583 0.00567681 -0.000873882)
(0.10066 0.00559804 -0.00111712)
(0.0990823 0.0059428 -0.00143827)
(0.0969397 0.00675881 -0.00185398)
(0.0940791 0.00807748 -0.00237875)
(0.0902878 0.00995901 -0.00303009)
(0.085469 0.0124743 -0.0038192)
(0.0788808 0.0157467 -0.00476248)
(0.0709509 0.0197615 -0.00582525)
(0.0593812 0.0247315 -0.00701719)
(0.0464761 0.0297855 -0.00809671)
(0.0267727 0.0346516 -0.00891142)
(0.00718127 0.0267095 -0.00671143)
(0.100526 0.00340849 -0.000213757)
(0.101043 0.0052174 -0.00046128)
(0.101688 0.00554179 -0.000643)
(0.101472 0.00558077 -0.000819182)
(0.100908 0.00583833 -0.00104746)
(0.0997337 0.00648506 -0.00134741)
(0.0980364 0.00760834 -0.00173377)
(0.0956783 0.00928883 -0.00221896)
(0.0924647 0.0116425 -0.00281783)
(0.0883252 0.0148219 -0.00353974)
(0.0824796 0.0190615 -0.00439728)
(0.0753863 0.0245392 -0.00536045)