/*--------------------------------*- C++ -*----------------------------------*\
| =========                 |                                                 |
| \\      /  F ield         | OpenFOAM: The Open Source CFD Toolbox           |
|  \\    /   O peration     | Version:  v1912                                 |
|   \\  /    A nd           | Website:  www.openfoam.com                      |
|    \\/     M anipulation  |                                                 |
\*---------------------------------------------------------------------------*/
FoamFile
{
    version     2.0;
    format      ascii;
    class       volVectorField;
    location    "0.3/solid";
    object      D_0;
}
// * * * * * * * * * * * * * * * * * * * * * * * * * * * * * * * * * * * * * //

dimensions      [0 1 0 0 0 0 0];


internalField   nonuniform List<vector> 
256
(
(1.27015e-08 2.47896e-08 1.32049e-08)
(4.33831e-10 1.47154e-08 1.24272e-08)
(2.32761e-10 1.45842e-08 1.25726e-08)
(-1.19444e-08 2.41689e-08 1.37465e-08)
(1.93511e-08 2.04441e-08 2.10751e-08)
(2.83615e-09 1.51832e-08 2.01434e-08)
(-5.30475e-10 1.47604e-08 2.05473e-08)
(-1.69372e-08 1.89422e-08 2.2418e-08)
(2.02707e-08 1.59106e-08 2.28414e-08)
(3.88846e-09 1.38749e-08 2.18533e-08)
(3.89814e-10 1.3166e-08 2.24449e-08)
(-1.59011e-08 1.36028e-08 2.47386e-08)
(2.06722e-08 1.36277e-08 2.3143e-08)
(4.61405e-09 1.25327e-08 2.21892e-08)
(1.96786e-09 1.15636e-08 2.29146e-08)
(-1.40105e-08 1.05865e-08 2.54382e-08)
(2.16818e-08 1.27176e-08 2.31959e-08)
(5.61932e-09 1.16048e-08 2.23975e-08)
(3.59373e-09 1.03937e-08 2.32253e-08)
(-1.23917e-08 8.99291e-09 2.57983e-08)
(2.32091e-08 1.27152e-08 2.33969e-08)
(6.91549e-09 1.12946e-08 2.2811e-08)
(5.25488e-09 9.84691e-09 2.37251e-08)
(-1.09728e-08 8.32813e-09 2.62562e-08)
(2.5201e-08 1.19839e-08 2.41682e-08)
(8.4623e-09 1.03737e-08 2.37579e-08)
(6.99123e-09 8.69447e-09 2.47525e-08)
(-9.74918e-09 6.93589e-09 2.72594e-08)
(2.83095e-08 -7.4634e-09 2.63509e-08)
(1.01714e-08 -7.85495e-09 2.60081e-08)
(8.83972e-09 -9.64305e-09 2.70715e-08)
(-9.44853e-09 -1.29413e-08 2.96282e-08)
(1.09556e-08 1.33216e-08 -9.69654e-11)
(2.15351e-10 4.52334e-09 1.34497e-10)
(1.46039e-10 4.3665e-09 3.01694e-10)
(-1.03986e-08 1.26813e-08 3.97365e-10)
(1.69206e-08 1.34937e-08 3.67521e-09)
(2.29281e-09 8.72775e-09 4.13363e-09)
(-7.31455e-10 8.24684e-09 4.53783e-09)
(-1.51176e-08 1.19152e-08 4.8548e-09)
(1.76465e-08 1.24992e-08 5.70827e-09)
(3.18737e-09 1.05592e-08 6.29021e-09)
(9.50853e-12 9.80138e-09 6.86228e-09)
(-1.42229e-08 1.01322e-08 7.37947e-09)
(1.79155e-08 1.18241e-08 6.16997e-09)
(3.80501e-09 1.07324e-08 6.85382e-09)
(1.42912e-09 9.73041e-09 7.54924e-09)
(-1.24594e-08 8.75155e-09 8.21002e-09)
(1.88806e-08 1.15105e-08 6.03832e-09)
(4.7303e-09 1.03792e-08 6.82179e-09)
(2.92127e-09 9.1472e-09 7.61464e-09)
(-1.10011e-08 7.77486e-09 8.37216e-09)
(2.04945e-08 1.1544e-08 5.90492e-09)
(5.98846e-09 1.01028e-08 6.76746e-09)
(4.44524e-09 8.64435e-09 7.64212e-09)
(-9.83572e-09 7.1638e-09 8.48504e-09)
(2.26877e-08 1.06908e-08 6.17427e-09)
(7.53528e-09 9.06692e-09 7.07256e-09)
(6.0368e-09 7.39426e-09 8.01244e-09)
(-8.95598e-09 5.68518e-09 8.95235e-09)
(2.60003e-08 -7.26287e-09 6.89443e-09)
(9.25179e-09 -7.61282e-09 7.79469e-09)
(7.76555e-09 -9.35452e-09 8.76137e-09)
(-8.98926e-09 -1.26123e-08 9.76251e-09)
(9.77853e-09 1.02268e-08 -2.0643e-10)
(2.97209e-11 2.23254e-09 -2.53033e-12)
(1.52751e-10 2.09021e-09 1.20488e-10)
(-9.39206e-09 9.69054e-09 1.4486e-10)
(1.54553e-08 9.76262e-09 1.69593e-09)
(1.83668e-09 5.38357e-09 2.15063e-09)
(-7.86831e-10 4.92571e-09 2.45704e-09)
(-1.41358e-08 8.32354e-09 2.56916e-09)
(1.61869e-08 9.41496e-09 3.46483e-09)
(2.61133e-09 7.58654e-09 4.05262e-09)
(-2.15856e-10 6.85568e-09 4.49418e-09)
(-1.35274e-08 7.18835e-09 4.73383e-09)
(1.63864e-08 9.50199e-09 4.30058e-09)
(3.13724e-09 8.44989e-09 4.97994e-09)
(1.05106e-09 7.4778e-09 5.52646e-09)
(-1.19327e-08 6.56559e-09 5.88518e-09)
(1.72807e-08 9.65903e-09 4.53484e-09)
(3.98585e-09 8.54752e-09 5.28452e-09)
(2.41748e-09 7.34838e-09 5.91728e-09)
(-1.06002e-08 6.05583e-09 6.38128e-09)
(1.89161e-08 9.8444e-09 4.69218e-09)
(5.2091e-09 8.40572e-09 5.48197e-09)
(3.81037e-09 6.98458e-09 6.1863e-09)
(-9.61765e-09 5.5986e-09 6.75697e-09)
(2.12667e-08 8.96082e-09 5.18711e-09)
(6.77071e-09 7.35195e-09 5.98306e-09)
(5.25153e-09 5.72456e-09 6.73811e-09)
(-9.02934e-09 4.10131e-09 7.41291e-09)
(2.48047e-08 -8.43331e-09 6.12817e-09)
(8.50679e-09 -8.64501e-09 6.90925e-09)
(6.8471e-09 -1.03323e-08 7.67467e-09)
(-9.40407e-09 -1.36237e-08 8.40375e-09)
(9.04644e-09 9.37409e-09 1.06973e-10)
(-7.36118e-11 1.83765e-09 2.27645e-10)
(1.59536e-10 1.71284e-09 3.15523e-10)
(-8.78965e-09 8.9326e-09 3.57511e-10)
(1.44645e-08 8.14407e-09 1.21706e-09)
(1.55265e-09 4.0048e-09 1.51969e-09)
(-8.27859e-10 3.59024e-09 1.74282e-09)
(-1.35034e-08 6.87396e-09 1.85132e-09)
(1.52341e-08 7.38277e-09 2.48734e-09)
(2.24528e-09 5.64489e-09 2.89557e-09)
(-4.03197e-10 4.96681e-09 3.22189e-09)
(-1.31514e-08 5.34467e-09 3.42385e-09)
(1.54136e-08 7.42191e-09 3.36426e-09)
(2.70067e-09 6.4187e-09 3.84363e-09)
(7.27255e-10 5.50092e-09 4.25374e-09)
(-1.17372e-08 4.67139e-09 4.55368e-09)
(1.62307e-08 7.65413e-09 3.85428e-09)
(3.47364e-09 6.57794e-09 4.39116e-09)
(1.99088e-09 5.43241e-09 4.87236e-09)
(-1.05021e-08 4.22776e-09 5.26106e-09)
(1.78201e-08 7.86936e-09 4.27267e-09)
(4.64436e-09 6.4511e-09 4.84701e-09)
(3.28683e-09 5.08301e-09 5.38698e-09)
(-9.62045e-09 3.79188e-09 5.86121e-09)
(2.0238e-08 6.93632e-09 4.97264e-09)
(6.19913e-09 5.37005e-09 5.55556e-09)
(4.61063e-09 3.79475e-09 6.13497e-09)
(-9.2213e-09 2.2366e-09 6.69048e-09)
(2.39298e-08 -1.00614e-08 6.12007e-09)
(7.94129e-09 -1.01064e-08 6.67894e-09)
(6.09414e-09 -1.17461e-08 7.26338e-09)
(-9.85353e-09 -1.51092e-08 7.87201e-09)
(8.60734e-09 8.95905e-09 1.90484e-10)
(-1.35246e-10 1.69153e-09 2.62224e-10)
(1.66181e-10 1.58113e-09 3.24027e-10)
(-8.43784e-09 8.58854e-09 3.66019e-10)
(1.37888e-08 7.33334e-09 9.10863e-10)
(1.36402e-09 3.35021e-09 1.11045e-09)
(-8.45546e-10 2.97499e-09 1.26866e-09)
(-1.3073e-08 6.2039e-09 1.35883e-09)
(1.45489e-08 6.11612e-09 1.76177e-09)
(1.98962e-09 4.45013e-09 2.04312e-09)
(-5.21024e-10 3.82305e-09 2.27659e-09)
(-1.28716e-08 4.24683e-09 2.4298e-09)
(1.47116e-08 5.82729e-09 2.48651e-09)
(2.38743e-09 4.87117e-09 2.82357e-09)
(5.04802e-10 4.00729e-09 3.12001e-09)
(-1.15972e-08 3.25003e-09 3.34495e-09)
(1.54649e-08 5.88317e-09 3.03492e-09)
(3.09481e-09 4.84636e-09 3.41886e-09)
(1.6876e-09 3.75375e-09 3.77002e-09)
(-1.04418e-08 2.62332e-09 4.0615e-09)
(1.6996e-08 6.0028e-09 3.56873e-09)
(4.21097e-09 4.61533e-09 3.98745e-09)
(2.9117e-09 3.29757e-09 4.38407e-09)
(-9.62607e-09 2.08045e-09 4.73737e-09)
(1.94295e-08 5.01322e-09 4.32995e-09)
(5.74397e-09 3.49745e-09 4.76059e-09)
(4.15021e-09 1.96825e-09 5.18725e-09)
(-9.34748e-09 4.53597e-10 5.59909e-09)
(2.32012e-08 -1.16853e-08 5.45673e-09)
(7.47712e-09 -1.15916e-08 5.86594e-09)
(5.55155e-09 -1.31918e-08 6.29553e-09)
(-1.0149e-08 -1.66139e-08 6.75112e-09)
(8.34701e-09 8.68734e-09 1.6537e-10)
(-1.73777e-10 1.58081e-09 2.07304e-10)
(1.72681e-10 1.4809e-09 2.48407e-10)
(-8.2323e-09 8.36584e-09 2.81307e-10)
(1.3354e-08 6.82902e-09 6.35577e-10)
(1.23762e-09 2.94992e-09 7.62687e-10)
(-8.48103e-10 2.60412e-09 8.68276e-10)
(-1.27958e-08 5.80142e-09 9.32717e-10)
(1.40777e-08 5.29834e-09 1.18099e-09)
(1.80856e-09 3.68821e-09 1.36767e-09)
(-5.83322e-10 3.1007e-09 1.52434e-09)
(-1.2668e-08 3.5568e-09 1.627e-09)
(1.42152e-08 4.69733e-09 1.70027e-09)
(2.15963e-09 3.78108e-09 1.92871e-09)
(3.72031e-10 2.96017e-09 2.12896e-09)
(-1.14818e-08 2.25552e-09 2.27804e-09)
(1.49205e-08 4.52083e-09 2.16556e-09)
(2.8162e-09 3.51865e-09 2.42903e-09)
(1.49535e-09 2.4686e-09 2.66779e-09)
(-1.03862e-08 1.39313e-09 2.86203e-09)
(1.64045e-08 4.49842e-09 2.65935e-09)
(3.88784e-09 3.14055e-09 2.9499e-09)
(2.66584e-09 1.86283e-09 3.22093e-09)
(-9.61982e-09 6.98811e-10 3.45734e-09)
(1.88354e-08 3.44576e-09 3.3247e-09)
(5.39731e-09 1.97329e-09 3.62615e-09)
(3.84332e-09 4.80058e-10 3.91847e-09)
(-9.4215e-09 -1.00447e-09 4.19483e-09)
(2.2647e-08 -1.30677e-08 4.25126e-09)
(7.11627e-09 -1.28729e-08 4.53764e-09)
(5.18699e-09 -1.44424e-08 4.83172e-09)
(-1.0334e-08 -1.79039e-08 5.13922e-09)
(8.19905e-09 8.51738e-09 1.04488e-10)
(-1.96484e-10 1.50303e-09 1.2647e-10)
(1.7772e-10 1.40989e-09 1.49993e-10)
(-8.11606e-09 8.22639e-09 1.70443e-10)
(1.30979e-08 6.50741e-09 3.73952e-10)
(1.16055e-09 2.69273e-09 4.44565e-10)
(-8.46038e-10 2.36599e-09 5.05108e-10)
(-1.26326e-08 5.54476e-09 5.43417e-10)
(1.37872e-08 4.78473e-09 6.8178e-10)
(1.69361e-09 3.21303e-09 7.88625e-10)
(-6.14096e-10 2.65166e-09 8.78751e-10)
(-1.25387e-08 3.12673e-09 9.37198e-10)
(1.39004e-08 3.97133e-09 9.91447e-10)
(2.01155e-09 3.08375e-09 1.12446e-09)
(2.99124e-10 2.29176e-09 1.24014e-09)
(-1.1401e-08 1.62002e-09 1.32405e-09)
(1.45727e-08 3.61321e-09 1.29523e-09)
(2.63368e-09 2.63592e-09 1.44993e-09)
(1.38378e-09 1.61479e-09 1.58844e-09)
(-1.03438e-08 5.74998e-10 1.69829e-09)
(1.60257e-08 3.46876e-09 1.63446e-09)
(3.67505e-09 2.13245e-09 1.80595e-09)
(2.5179e-09 8.8196e-10 1.96372e-09)
(-9.61187e-09 -2.47356e-10 2.09837e-09)
(1.84515e-08 2.35888e-09 2.08221e-09)
(5.16682e-09 9.16171e-10 2.26081e-09)
(3.65489e-09 -5.5264e-10 2.43132e-09)
(-9.46556e-09 -2.0169e-09 2.58959e-09)
(2.22845e-08 -1.40575e-08 2.68546e-09)
(6.87394e-09 -1.37977e-08 2.85521e-09)
(4.9609e-09 -1.53463e-08 3.02667e-09)
(-1.04486e-08 -1.88308e-08 3.20352e-09)
(8.13134e-09 8.43562e-09 3.51738e-11)
(-2.07033e-10 1.46347e-09 4.20192e-11)
(1.80455e-10 1.37364e-09 4.96747e-11)
(-8.0629e-09 8.15922e-09 5.65703e-11)
(1.29793e-08 6.34762e-09 1.23179e-10)
(1.12433e-09 2.56374e-09 1.45802e-10)
(-8.44219e-10 2.24631e-09 1.65524e-10)
(-1.2557e-08 5.41643e-09 1.78223e-10)
(1.36497e-08 4.53217e-09 2.23147e-10)
(1.63839e-09 2.97996e-09 2.57896e-10)
(-6.26952e-10 2.43148e-09 2.87303e-10)
(-1.24767e-08 2.91516e-09 3.06278e-10)
(1.37487e-08 3.61445e-09 3.26023e-10)
(1.93929e-09 2.7418e-09 3.6969e-10)
(2.66667e-10 1.96419e-09 4.07512e-10)
(-1.13603e-08 1.30809e-09 4.34556e-10)
(1.44039e-08 3.16176e-09 4.30952e-10)
(2.54404e-09 2.19732e-09 4.81962e-10)
(1.3324e-09 1.19068e-09 5.27344e-10)
(-1.03215e-08 1.68381e-10 5.6283e-10)
(1.58417e-08 2.94997e-09 5.50866e-10)
(3.57024e-09 1.62473e-09 6.07528e-10)
(2.44811e-09 3.87937e-10 6.59317e-10)
(-9.60739e-09 -7.24093e-10 7.0301e-10)
(1.82646e-08 1.80625e-09 7.08093e-10)
(5.05284e-09 3.78362e-10 7.6717e-10)
(3.56466e-09 -1.07813e-09 8.23199e-10)
(-9.48725e-09 -2.53192e-09 8.74759e-10)
(2.21078e-08 -1.457e-08 9.1688e-10)
(6.75365e-09 -1.42787e-08 9.73022e-10)
(4.85178e-09 -1.58168e-08 1.02935e-09)
(-1.05054e-08 -1.93115e-08 1.0871e-09)
)
;

boundaryField
{
    interface
    {
        type            solidTraction;
        traction        uniform (0 0 0);
        pressure        uniform 0;
        secondOrder     false;
        setEffectiveTraction false;
        relaxationFactor 1;
        value           nonuniform List<vector> 
192
(
(7.04248e-08 3.28028e-08 1.27511e-08)
(7.39353e-08 2.23363e-08 2.0418e-08)
(7.59175e-08 1.62409e-08 2.2129e-08)
(7.78629e-08 1.39806e-08 2.23807e-08)
(8.09731e-08 1.3352e-08 2.2393e-08)
(8.56765e-08 1.35953e-08 2.25875e-08)
(9.20126e-08 1.32593e-08 2.33968e-08)
(9.94734e-08 -6.35997e-09 2.56363e-08)
(6.16039e-08 2.02906e-08 -8.28017e-10)
(6.53977e-08 1.51664e-08 2.70077e-09)
(6.6876e-08 1.2748e-08 4.68682e-09)
(6.85155e-08 1.21327e-08 5.09802e-09)
(7.15745e-08 1.21554e-08 4.93757e-09)
(7.6556e-08 1.2496e-08 4.83121e-09)
(8.36814e-08 1.20677e-08 5.19029e-09)
(9.28202e-08 -6.09828e-09 6.01789e-09)
(5.47419e-08 1.65352e-08 -6.83982e-10)
(5.91617e-08 1.13647e-08 1.08152e-09)
(6.06614e-08 9.64781e-09 2.86132e-09)
(6.21476e-08 9.77558e-09 3.67471e-09)
(6.50589e-08 1.02917e-08 3.87198e-09)
(7.00141e-08 1.08412e-08 4.02323e-09)
(7.73461e-08 1.04334e-08 4.57436e-09)
(8.72995e-08 -7.21648e-09 5.61027e-09)
(5.05159e-08 1.52518e-08 -1.85986e-10)
(5.49263e-08 9.691e-09 8.00156e-10)
(5.65081e-08 7.62014e-09 2.07755e-09)
(5.79574e-08 7.67122e-09 2.94528e-09)
(6.07549e-08 8.25598e-09 3.40008e-09)
(6.56169e-08 8.87156e-09 3.79241e-09)
(7.29808e-08 8.46422e-09 4.51314e-09)
(8.32971e-08 -8.821e-09 5.719e-09)
(4.80407e-08 1.45581e-08 1.55082e-11)
(5.22919e-08 8.81876e-09 6.33059e-10)
(5.38873e-08 6.34691e-09 1.47247e-09)
(5.53213e-08 6.05647e-09 2.18672e-09)
(5.80415e-08 6.45452e-09 2.70719e-09)
(6.28146e-08 6.99432e-09 3.21465e-09)
(7.01475e-08 6.56502e-09 3.97915e-09)
(8.0601e-08 -1.04414e-08 5.1359e-09)
(4.65716e-08 1.41126e-08 6.32238e-11)
(5.0683e-08 8.26172e-09 4.62741e-10)
(5.2252e-08 5.51373e-09 9.90438e-10)
(5.3664e-08 4.90821e-09 1.49737e-09)
(5.63301e-08 5.06841e-09 1.94237e-09)
(6.10353e-08 5.47755e-09 2.41667e-09)
(6.83238e-08 5.00691e-09 3.08011e-09)
(7.88283e-08 -1.18272e-08 4.02201e-09)
(4.57328e-08 1.38416e-08 5.05261e-11)
(4.97542e-08 7.90449e-09 2.80199e-10)
(5.12927e-08 4.98546e-09 5.74693e-10)
(5.26822e-08 4.16787e-09 8.74742e-10)
(5.5312e-08 4.14479e-09 1.16601e-09)
(5.99725e-08 4.43888e-09 1.4937e-09)
(6.72261e-08 3.92413e-09 1.93947e-09)
(7.77511e-08 -1.28207e-08 2.5506e-09)
(4.53487e-08 1.37133e-08 1.82326e-11)
(4.93272e-08 7.72724e-09 9.35061e-11)
(5.08481e-08 4.72462e-09 1.88736e-10)
(5.22241e-08 3.8032e-09 2.88063e-10)
(5.48352e-08 3.68529e-09 3.88741e-10)
(5.94737e-08 3.91558e-09 5.04854e-10)
(6.67092e-08 3.37331e-09 6.61367e-10)
(7.72423e-08 -1.33351e-08 8.72677e-10)
(1.27349e-08 3.33598e-08 7.46148e-08)
(1.94481e-08 2.28533e-08 7.93097e-08)
(2.03813e-08 1.64277e-08 8.21466e-08)
(2.08164e-08 1.37164e-08 8.40271e-08)
(2.18852e-08 1.27811e-08 8.62148e-08)
(2.34688e-08 1.29584e-08 8.96376e-08)
(2.54857e-08 1.27225e-08 9.48997e-08)
(2.85826e-08 -6.76918e-09 1.01782e-07)
(2.76414e-10 2.28581e-08 6.95225e-08)
(2.70528e-09 1.75398e-08 7.46511e-08)
(3.7905e-09 1.43864e-08 7.70221e-08)
(4.55812e-09 1.26687e-08 7.87632e-08)
(5.62784e-09 1.17603e-08 8.11358e-08)
(6.99869e-09 1.16347e-08 8.49944e-08)
(8.60953e-09 1.1173e-08 9.10068e-08)
(1.03528e-08 -7.14523e-09 9.92296e-08)
(5.63279e-10 2.28642e-08 6.91535e-08)
(3.93373e-11 1.72285e-08 7.45052e-08)
(1.11236e-09 1.37578e-08 7.70439e-08)
(2.78135e-09 1.17587e-08 7.89113e-08)
(4.44517e-09 1.05963e-08 8.1383e-08)
(6.11741e-09 1.02287e-08 8.53249e-08)
(7.86781e-09 9.53102e-09 9.14184e-08)
(9.74606e-09 -8.91816e-09 9.9767e-08)
(-1.18095e-08 3.32101e-08 7.37791e-08)
(-1.66147e-08 2.16902e-08 7.92412e-08)
(-1.54139e-08 1.43578e-08 8.25868e-08)
(-1.34254e-08 1.08514e-08 8.48432e-08)
(-1.17635e-08 9.19738e-09 8.73257e-08)
(-1.03163e-08 8.69332e-09 9.09934e-08)
(-9.04347e-09 7.77879e-09 9.64765e-08)
(-8.67041e-09 -1.22066e-08 1.03675e-07)
(-6.80622e-08 3.13895e-08 1.34279e-08)
(-6.98671e-08 1.99315e-08 2.21249e-08)
(-6.98645e-08 1.28711e-08 2.45632e-08)
(-6.94957e-08 9.70902e-09 2.53436e-08)
(-6.99658e-08 8.23336e-09 2.57654e-08)
(-7.17377e-08 7.66727e-09 2.63008e-08)
(-7.49636e-08 6.55458e-09 2.74145e-08)
(-7.93717e-08 -1.35931e-08 2.99031e-08)
(-5.91723e-08 1.90604e-08 -2.40658e-10)
(-6.16978e-08 1.28713e-08 4.15461e-09)
(-6.1518e-08 9.46761e-09 6.78622e-09)
(-6.10853e-08 7.94601e-09 7.69073e-09)
(-6.16827e-08 7.11879e-09 7.92446e-09)
(-6.38608e-08 6.6523e-09 8.14643e-09)
(-6.79734e-08 5.47338e-09 8.77259e-09)
(-7.42064e-08 -1.31459e-08 9.75165e-09)
(-5.2506e-08 1.55725e-08 -2.57271e-10)
(-5.59476e-08 9.35738e-09 2.16583e-09)
(-5.60618e-08 6.63751e-09 4.46618e-09)
(-5.57068e-08 5.83368e-09 5.70484e-09)
(-5.63426e-08 5.47694e-09 6.25676e-09)
(-5.86385e-08 5.20566e-09 6.70339e-09)
(-6.30635e-08 4.04774e-09 7.47947e-09)
(-7.01842e-08 -1.40491e-08 8.62007e-09)
(-4.84771e-08 1.45059e-08 1.19024e-10)
(-5.21267e-08 7.96436e-09 1.58577e-09)
(-5.25346e-08 4.90304e-09 3.26004e-09)
(-5.23381e-08 4.00896e-09 4.46999e-09)
(-5.3029e-08 3.69845e-09 5.22161e-09)
(-5.53697e-08 3.47147e-09 5.86348e-09)
(-5.99315e-08 2.29472e-09 6.77018e-09)
(-6.74826e-08 -1.54607e-08 8.05841e-09)
(-4.61423e-08 1.39663e-08 2.26748e-10)
(-4.97852e-08 7.3123e-09 1.18206e-09)
(-5.03626e-08 3.87782e-09 2.30911e-09)
(-5.03039e-08 2.64247e-09 3.28126e-09)
(-5.10572e-08 2.1304e-09 4.03265e-09)
(-5.34283e-08 1.80665e-09 4.73736e-09)
(-5.80537e-08 5.84176e-10 5.64927e-09)
(-6.5808e-08 -1.69189e-08 6.87138e-09)
(-4.47628e-08 1.36229e-08 2.00907e-10)
(-4.83659e-08 6.91032e-09 8.22704e-10)
(-4.90245e-08 3.22822e-09 1.54387e-09)
(-4.90548e-08 1.68493e-09 2.22908e-09)
(-4.98595e-08 9.27491e-10 2.83761e-09)
(-5.22557e-08 4.57438e-10 3.45388e-09)
(-5.69132e-08 -8.26074e-10 4.22444e-09)
(-6.47746e-08 -1.81785e-08 5.21421e-09)
(-4.39768e-08 1.34136e-08 1.28121e-10)
(-4.75495e-08 6.65038e-09 4.83757e-10)
(-4.82448e-08 2.81876e-09 8.89411e-10)
(-4.83241e-08 1.07117e-09 1.29373e-09)
(-4.91624e-08 1.27575e-10 1.6822e-09)
(-5.15774e-08 -4.67117e-10 2.09532e-09)
(-5.62532e-08 -1.80787e-09 2.60608e-09)
(-6.41755e-08 -1.90857e-08 3.24643e-09)
(-4.3617e-08 1.33142e-08 4.3287e-11)
(-4.71749e-08 6.51984e-09 1.59338e-10)
(-4.78846e-08 2.61592e-09 2.90793e-10)
(-4.79853e-08 7.69186e-10 4.24397e-10)
(-4.88398e-08 -2.69987e-10 5.57293e-10)
(-5.12646e-08 -9.32875e-10 7.01907e-10)
(-5.59495e-08 -2.30756e-09 8.80201e-10)
(-6.39009e-08 -1.95563e-08 1.10133e-09)
(2.89606e-08 -8.2905e-08 2.66478e-08)
(2.66716e-08 -7.80055e-08 7.13684e-09)
(2.54676e-08 -7.46955e-08 6.82774e-09)
(2.45628e-08 -7.31512e-08 6.93304e-09)
(2.38013e-08 -7.27926e-08 6.20827e-09)
(2.32201e-08 -7.29484e-08 4.84427e-09)
(2.28396e-08 -7.3219e-08 3.06102e-09)
(2.2654e-08 -7.33972e-08 1.045e-09)
(1.07175e-08 -8.10873e-08 2.63024e-08)
(9.77588e-09 -7.4878e-08 7.99221e-09)
(8.9827e-09 -7.08629e-08 7.53267e-09)
(8.36364e-09 -6.893e-08 7.41561e-09)
(7.8549e-09 -6.83567e-08 6.55755e-09)
(7.46111e-09 -6.83838e-08 5.08916e-09)
(7.19733e-09 -6.85794e-08 3.20667e-09)
(7.06653e-09 -6.87229e-08 1.09327e-09)
(1.01126e-08 -8.2349e-08 2.73619e-08)
(9.01664e-09 -7.60366e-08 8.93374e-09)
(8.09299e-09 -7.19663e-08 8.27263e-09)
(7.34605e-09 -6.99885e-08 7.97829e-09)
(6.80837e-09 -6.93776e-08 6.96961e-09)
(6.44601e-09 -6.93756e-08 5.37038e-09)
(6.22043e-09 -6.95514e-08 3.37029e-09)
(6.11123e-09 -6.96848e-08 1.14697e-09)
(-8.2966e-09 -8.69935e-08 2.99134e-08)
(-7.90662e-09 -8.18364e-08 9.9332e-09)
(-8.36709e-09 -7.83794e-08 9.02805e-09)
(-8.83557e-09 -7.67054e-08 8.61964e-09)
(-9.13948e-09 -7.62369e-08 7.44987e-09)
(-9.32982e-09 -7.6308e-08 5.69347e-09)
(-9.44853e-09 -7.65209e-08 3.55542e-09)
(-9.50782e-09 -7.667e-08 1.20728e-09)
)
;
        gradient        uniform (0 0 0);
    }
    symmetry
    {
        type            solidSymmetry;
        patchType       symmetry;
        secondOrder     false;
        value           nonuniform List<vector> 
32
(
(8.13134e-09 8.43562e-09 0)
(1.29793e-08 6.34762e-09 0)
(1.36497e-08 4.53217e-09 0)
(1.37487e-08 3.61445e-09 0)
(1.44039e-08 3.16176e-09 0)
(1.58417e-08 2.94997e-09 0)
(1.82646e-08 1.80625e-09 0)
(2.21078e-08 -1.457e-08 0)
(-2.07033e-10 1.46347e-09 0)
(1.12433e-09 2.56374e-09 0)
(1.63839e-09 2.97996e-09 0)
(1.93929e-09 2.7418e-09 0)
(2.54404e-09 2.19732e-09 0)
(3.57024e-09 1.62473e-09 0)
(5.05284e-09 3.78362e-10 0)
(6.75365e-09 -1.42787e-08 0)
(1.80455e-10 1.37364e-09 0)
(-8.44219e-10 2.24631e-09 0)
(-6.26952e-10 2.43148e-09 0)
(2.66667e-10 1.96419e-09 0)
(1.3324e-09 1.19068e-09 0)
(2.44811e-09 3.87937e-10 0)
(3.56466e-09 -1.07813e-09 0)
(4.85178e-09 -1.58168e-08 0)
(-8.0629e-09 8.15922e-09 0)
(-1.2557e-08 5.41643e-09 0)
(-1.24767e-08 2.91516e-09 0)
(-1.13603e-08 1.30809e-09 0)
(-1.03215e-08 1.68381e-10 0)
(-9.60739e-09 -7.24093e-10 0)
(-9.48725e-09 -2.53192e-09 0)
(-1.05054e-08 -1.93115e-08 0)
)
;
    }
    bottom
    {
        type            fixedDisplacement;
        value           uniform (0 0 0);
    }
}


// ************************************************************************* //
