/*--------------------------------*- C++ -*----------------------------------*\
| =========                 |                                                 |
| \\      /  F ield         | OpenFOAM: The Open Source CFD Toolbox           |
|  \\    /   O peration     | Version:  v1912                                 |
|   \\  /    A nd           | Website:  www.openfoam.com                      |
|    \\/     M anipulation  |                                                 |
\*---------------------------------------------------------------------------*/
FoamFile
{
    version     2.0;
    format      ascii;
    class       volSymmTensorField;
    location    "0.3/solid";
    object      epsilon;
}
// * * * * * * * * * * * * * * * * * * * * * * * * * * * * * * * * * * * * * //

dimensions      [0 0 0 0 0 0 0];


internalField   nonuniform List<symmTensor> 
256
(
(-2.55994e-06 6.37858e-08 -1.92536e-08 9.18761e-07 6.16701e-08 -2.72421e-06)
(-2.61325e-07 -6.88356e-08 -6.4152e-09 6.04652e-07 6.55217e-08 -2.52454e-06)
(-2.59203e-07 9.06653e-08 6.74792e-09 5.93437e-07 6.79923e-08 -2.50327e-06)
(-2.49116e-06 -5.28575e-08 2.05085e-08 8.75792e-07 7.08176e-08 -2.66924e-06)
(-2.52195e-06 -1.45362e-08 -2.60346e-08 -1.884e-07 -2.00396e-08 -2.68059e-06)
(-4.17751e-07 -2.27071e-08 -9.76433e-09 -2.41566e-08 -1.5839e-08 -2.49521e-06)
(-4.15181e-07 3.94102e-08 1.09861e-08 -3.56504e-08 -1.419e-08 -2.47299e-06)
(-2.45075e-06 2.17484e-08 2.81498e-08 -2.21827e-07 -1.40412e-08 -2.62669e-06)
(-2.56216e-06 -1.43469e-08 -2.78445e-08 -1.49921e-07 -2.31862e-08 -2.71849e-06)
(-4.18448e-07 -1.03015e-08 -1.07753e-08 -6.43646e-08 -2.2251e-08 -2.5123e-06)
(-4.16222e-07 2.27999e-08 1.23383e-08 -7.52028e-08 -2.11337e-08 -2.48968e-06)
(-2.49008e-06 1.95517e-08 3.01711e-08 -1.80428e-07 -1.90263e-08 -2.66398e-06)
(-2.61737e-06 -4.43837e-09 -2.85778e-08 -7.78416e-08 -1.55669e-08 -2.779e-06)
(-3.93877e-07 -3.93559e-09 -1.10547e-08 -5.96212e-08 -1.46808e-08 -2.5638e-06)
(-3.91881e-07 1.31159e-08 1.26171e-08 -6.95848e-08 -1.38321e-08 -2.54107e-06)
(-2.54459e-06 8.28835e-09 3.09359e-08 -1.05946e-07 -1.2367e-08 -2.72414e-06)
(-2.70161e-06 1.36103e-09 -2.80057e-08 -3.38148e-08 -9.61741e-09 -2.86867e-06)
(-3.81385e-07 -5.92028e-10 -1.06575e-08 -4.19306e-08 -8.12727e-09 -2.65501e-06)
(-3.79442e-07 7.077e-09 1.21341e-08 -5.14345e-08 -7.39579e-09 -2.63223e-06)
(-2.62836e-06 1.35442e-09 3.03643e-08 -6.05309e-08 -6.92019e-09 -2.81355e-06)
(-2.83402e-06 4.22997e-09 -2.62435e-08 -3.54913e-08 -4.53439e-09 -3.00474e-06)
(-3.81525e-07 4.58794e-11 -9.67667e-09 -4.57401e-08 -2.93998e-09 -2.80183e-06)
(-3.798e-07 3.97948e-09 1.1119e-08 -5.50438e-08 -2.21845e-09 -2.77901e-06)
(-2.76151e-06 -2.83155e-09 2.86297e-08 -6.17836e-08 -2.03613e-09 -2.94933e-06)
(-3.019e-06 1.24443e-08 -2.39123e-08 -4.3876e-07 6.18898e-09 -3.19576e-06)
(-3.94912e-07 1.12406e-09 -8.49882e-09 -4.12417e-07 7.32459e-09 -3.01799e-06)
(-3.94519e-07 -4.20773e-11 1.00541e-08 -4.19134e-07 8.12696e-09 -2.99547e-06)
(-2.95189e-06 -1.30166e-08 2.63597e-08 -4.6031e-07 8.67983e-09 -3.14058e-06)
(-3.23364e-06 2.24406e-08 -2.20046e-08 -3.4252e-06 2.12134e-08 -3.42496e-06)
(-4.32212e-07 8.29764e-09 -7.69752e-09 -3.30186e-06 2.21853e-08 -3.30108e-06)
(-4.34701e-07 -8.98793e-09 9.39475e-09 -3.28262e-06 2.29425e-08 -3.28162e-06)
(-3.18305e-06 -2.42509e-08 2.43686e-08 -3.37727e-06 2.32902e-08 -3.37683e-06)
(-2.23688e-06 5.30614e-08 -1.39615e-08 5.36688e-07 -1.06802e-07 -2.77228e-07)
(-2.21706e-07 -6.4687e-08 -6.42092e-10 2.60451e-07 -7.65953e-08 -2.54424e-07)
(-2.17546e-07 7.578e-08 2.42746e-09 2.47632e-07 -7.10079e-08 -2.54828e-07)
(-2.15578e-06 -4.60692e-08 1.53709e-08 4.91972e-07 -8.92785e-08 -2.80872e-07)
(-2.22887e-06 -1.43889e-08 -1.74778e-08 -2.64349e-08 -4.62459e-08 -4.02128e-07)
(-3.62716e-07 -2.3251e-08 -2.50224e-09 1.12921e-07 -3.26275e-08 -3.69753e-07)
(-3.57578e-07 3.09564e-08 5.79086e-09 1.00931e-07 -2.89393e-08 -3.71642e-07)
(-2.14595e-06 1.77248e-08 1.97452e-08 -6.07475e-08 -3.38941e-08 -4.11303e-07)
(-2.25542e-06 -1.49912e-08 -1.72597e-08 -4.53781e-08 -3.78231e-08 -4.0319e-07)
(-3.62493e-07 -1.24106e-08 -2.4281e-09 2.9559e-08 -3.31153e-08 -3.66777e-07)
(-3.57664e-07 1.78497e-08 6.04861e-09 1.91984e-08 -3.04304e-08 -3.69715e-07)
(-2.17128e-06 1.71413e-08 1.96881e-08 -7.50396e-08 -2.8443e-08 -4.15533e-07)
(-2.3028e-06 -5.27582e-09 -1.72465e-08 -3.28802e-08 -3.56819e-08 -3.92975e-07)
(-3.38413e-07 -6.03889e-09 -2.15275e-09 -1.71463e-08 -3.32242e-08 -3.5519e-07)
(-3.33682e-07 9.80581e-09 5.59713e-09 -2.65609e-08 -3.10554e-08 -3.58705e-07)
(-2.21712e-06 6.83163e-09 1.96437e-08 -6.0048e-08 -2.80434e-08 -4.06965e-07)
(-2.38702e-06 1.33304e-09 -1.68988e-08 -2.00364e-08 -3.01742e-08 -3.90314e-07)
(-3.27571e-07 -2.14102e-09 -1.78947e-09 -2.86712e-08 -2.8444e-08 -3.53891e-07)
(-3.22716e-07 4.43605e-09 4.9922e-09 -3.77354e-08 -2.65423e-08 -3.5773e-07)
(-2.29964e-06 -3.69809e-10 1.92545e-08 -4.60029e-08 -2.35974e-08 -4.0521e-07)
(-2.5291e-06 5.35705e-09 -1.56942e-08 -3.35018e-08 -2.29627e-08 -3.9363e-07)
(-3.31875e-07 -6.75853e-10 -1.00259e-09 -4.36829e-08 -2.20379e-08 -3.60247e-07)
(-3.27069e-07 1.47234e-09 4.07743e-09 -5.24448e-08 -2.03147e-08 -3.6438e-07)
(-2.44073e-06 -5.32435e-09 1.80555e-08 -5.87416e-08 -1.7151e-08 -4.093e-07)
(-2.74121e-06 1.42687e-08 -1.36662e-08 -4.01368e-07 -1.49738e-08 -4.0496e-07)
(-3.51799e-07 1.0729e-09 5.80273e-11 -3.73483e-07 -1.45652e-08 -3.74719e-07)
(-3.48274e-07 -2.06981e-09 2.84357e-09 -3.79075e-07 -1.3142e-08 -3.79442e-07)
(-2.6564e-06 -1.58395e-08 1.59732e-08 -4.20514e-07 -1.02562e-08 -4.22047e-07)
(-3.01956e-06 2.41739e-08 -1.15628e-08 -3.19542e-06 6.71131e-09 -4.39662e-07)
(-3.95411e-07 8.85598e-09 5.61724e-10 -3.01857e-06 7.68679e-09 -4.11368e-07)
(-3.95108e-07 -9.80472e-09 1.25006e-09 -2.99632e-06 8.44955e-09 -4.17245e-07)
(-2.95229e-06 -2.63023e-08 1.32777e-08 -3.14064e-06 9.02726e-09 -4.5945e-07)
(-1.98758e-06 4.63051e-08 -7.96347e-09 3.94634e-07 -2.11279e-08 2.28471e-09)
(-1.93992e-07 -6.37652e-08 3.31019e-10 1.43952e-07 4.61648e-10 -7.40868e-11)
(-1.89681e-07 6.92024e-08 1.64329e-09 1.31898e-07 5.0489e-09 -1.65087e-09)
(-1.90747e-06 -4.16695e-08 8.74095e-09 3.54807e-07 -6.98001e-09 -2.55468e-09)
(-2.01537e-06 -1.22124e-08 -8.50511e-09 -2.75704e-08 -1.28786e-08 -5.43488e-08)
(-3.27361e-07 -2.32209e-08 -2.70792e-11 9.71701e-08 -1.64621e-09 -5.78015e-08)
(-3.21689e-07 2.6378e-08 3.43033e-09 8.54236e-08 2.18293e-09 -6.13966e-08)
(-1.93216e-06 1.37626e-08 9.95598e-09 -6.11736e-08 -6.8341e-10 -6.51688e-08)
(-2.04494e-06 -1.41454e-08 -6.96363e-09 -1.6967e-08 -2.13235e-08 -7.15872e-08)
(-3.30067e-07 -1.30913e-08 6.17116e-10 5.03401e-08 -1.67351e-08 -7.54974e-08)
(-3.24522e-07 1.48959e-08 2.91445e-09 4.01088e-08 -1.35516e-08 -8.03808e-08)
(-1.96e-06 1.48491e-08 8.52649e-09 -4.67145e-08 -1.09735e-08 -8.61779e-08)
(-2.08943e-06 -5.5391e-09 -6.44596e-09 -6.96119e-09 -2.9458e-08 -6.45717e-08)
(-3.07707e-07 -6.98661e-09 9.97765e-10 6.67712e-09 -2.69506e-08 -6.90967e-08)
(-3.02137e-07 7.96804e-09 2.2334e-09 -2.62656e-09 -2.4209e-08 -7.47705e-08)
(-2.00254e-06 5.99092e-09 7.92458e-09 -3.43015e-08 -2.05101e-08 -8.14766e-08)
(-2.17078e-06 1.27999e-09 -6.46005e-09 -5.04167e-09 -3.02672e-08 -5.37774e-08)
(-2.97996e-07 -2.74264e-09 1.05113e-09 -1.44569e-08 -2.86729e-08 -5.90881e-08)
(-2.92187e-07 3.01855e-09 1.86035e-09 -2.33793e-08 -2.62435e-08 -6.52878e-08)
(-2.08164e-06 -1.1056e-09 7.84113e-09 -3.10526e-08 -2.24178e-08 -7.22084e-08)
(-2.31228e-06 6.23467e-09 -6.18579e-09 -2.66801e-08 -2.53186e-08 -4.56147e-08)
(-3.05266e-07 -5.35712e-10 1.26653e-09 -3.69813e-08 -2.46604e-08 -5.1688e-08)
(-2.99411e-07 3.77693e-11 1.39495e-09 -4.54979e-08 -2.25477e-08 -5.83473e-08)
(-2.22135e-06 -6.70526e-09 7.49629e-09 -5.16529e-08 -1.85435e-08 -6.53321e-08)
(-2.52961e-06 1.62113e-08 -5.04563e-09 -3.84934e-07 -1.87672e-08 -4.13384e-08)
(-3.31132e-07 1.92242e-09 1.85333e-09 -3.54579e-07 -1.83101e-08 -4.79222e-08)
(-3.26521e-07 -3.49868e-09 3.30206e-10 -3.5983e-07 -1.67381e-08 -5.50935e-08)
(-2.44106e-06 -1.80221e-08 6.1812e-09 -4.03581e-07 -1.36413e-08 -6.24203e-08)
(-2.83525e-06 2.64174e-08 -3.40586e-09 -3.00368e-06 -2.24047e-09 -3.62999e-08)
(-3.81534e-07 9.91177e-09 2.02965e-09 -2.80235e-06 -9.98729e-10 -4.33715e-08)
(-3.80186e-07 -1.09295e-08 -1.43737e-09 -2.7799e-06 -3.89481e-10 -5.09738e-08)
(-2.76257e-06 -2.86185e-08 3.84063e-09 -2.94913e-06 -2.46458e-10 -5.84887e-08)
(-1.83448e-06 4.17589e-08 -4.62999e-09 3.43303e-07 4.12531e-09 7.50796e-09)
(-1.77795e-07 -6.31442e-08 6.0411e-10 1.07467e-07 1.69694e-08 4.02852e-09)
(-1.74147e-07 6.55085e-08 1.24822e-09 9.66271e-08 2.03753e-08 2.81249e-09)
(-1.75778e-06 -3.87842e-08 5.16853e-09 3.08731e-07 1.45613e-08 4.01877e-09)
(-1.87049e-06 -1.09924e-08 -5.27983e-09 -5.19748e-08 3.739e-09 -1.84445e-08)
(-3.05637e-07 -2.3062e-08 7.4072e-10 6.50364e-08 1.11813e-08 -2.50567e-08)
(-3.00636e-07 2.37944e-08 2.48835e-09 5.39921e-08 1.43727e-08 -2.79986e-08)
(-1.79026e-06 1.15714e-08 6.3661e-09 -8.37121e-08 1.36353e-08 -2.68842e-08)
(-1.90421e-06 -1.30976e-08 -4.04739e-09 -2.61754e-08 -7.14935e-09 -3.91742e-08)
(-3.11758e-07 -1.31413e-08 1.35897e-09 3.69306e-08 -3.60994e-09 -4.7015e-08)
(-3.06684e-07 1.30248e-08 1.96839e-09 2.69165e-08 -7.18199e-10 -5.11472e-08)
(-1.82178e-06 1.30718e-08 5.23191e-09 -5.5591e-08 1.92423e-09 -5.11057e-08)
(-1.94912e-06 -5.47815e-09 -3.47052e-09 -5.3094e-09 -1.86564e-08 -4.35086e-08)
(-2.91846e-07 -7.37411e-09 1.66163e-09 7.05643e-09 -1.64527e-08 -5.21113e-08)
(-2.8662e-07 6.91785e-09 1.34621e-09 -2.23281e-09 -1.38355e-08 -5.70798e-08)
(-1.86441e-06 5.37561e-09 4.5621e-09 -3.28879e-08 -1.04082e-08 -5.79325e-08)
(-2.02912e-06 1.05435e-09 -3.55611e-09 -8.08617e-10 -2.41675e-08 -3.94785e-08)
(-2.82808e-07 -3.12234e-09 1.56055e-09 -1.08198e-08 -2.25513e-08 -4.85548e-08)
(-2.77266e-07 2.43345e-09 1.09011e-09 -1.97687e-08 -2.02e-08 -5.41519e-08)
(-1.94185e-06 -1.25111e-09 4.52306e-09 -2.71734e-08 -1.67856e-08 -5.57692e-08)
(-2.16905e-06 6.5384e-09 -3.67874e-09 -2.43728e-08 -2.29903e-08 -3.46247e-08)
(-2.91182e-07 -4.25824e-10 1.45152e-09 -3.45871e-08 -2.2069e-08 -4.38082e-08)
(-2.85541e-07 -5.90064e-10 8.51571e-10 -4.31346e-08 -2.0065e-08 -4.99251e-08)
(-2.07958e-06 -7.19745e-09 4.52213e-09 -4.96862e-08 -1.66851e-08 -5.24339e-08)
(-2.38668e-06 1.76136e-08 -3.20487e-09 -3.75579e-07 -1.79536e-08 -3.18564e-08)
(-3.20626e-07 2.76175e-09 1.60752e-09 -3.42693e-07 -1.72259e-08 -4.09263e-08)
(-3.16181e-07 -4.52037e-09 7.44202e-11 -3.48053e-07 -1.58089e-08 -4.74544e-08)
(-2.29882e-06 -1.94737e-08 3.81495e-09 -3.94732e-07 -1.3354e-08 -5.08676e-08)
(-2.70318e-06 2.8323e-08 -2.34841e-09 -2.86843e-06 -3.5728e-09 -2.88432e-08)
(-3.76012e-07 1.09091e-08 1.38643e-09 -2.65658e-06 -2.43194e-09 -3.80366e-08)
(-3.74778e-07 -1.20343e-08 -1.28025e-09 -2.63434e-06 -1.94882e-09 -4.4711e-08)
(-2.6297e-06 -3.05792e-08 2.28679e-09 -2.81474e-06 -1.93249e-09 -4.83373e-08)
(-1.74517e-06 3.88103e-08 -2.68272e-09 3.18267e-07 7.28947e-09 6.41065e-10)
(-1.68592e-07 -6.27664e-08 4.99594e-10 9.12975e-08 1.48992e-08 -1.49692e-09)
(-1.65589e-07 6.33808e-08 9.91079e-10 8.15267e-08 1.73317e-08 -2.42534e-09)
(-1.67128e-06 -3.69278e-08 3.10812e-09 2.87907e-07 1.46766e-08 -2.03021e-09)
(-1.78206e-06 -1.06304e-08 -3.37394e-09 -6.90894e-08 6.30312e-09 -1.42176e-08)
(-2.91924e-07 -2.30087e-08 6.89226e-10 4.37977e-08 1.12315e-08 -1.87643e-08)
(-2.87701e-07 2.23655e-08 1.9954e-09 3.3482e-08 1.36207e-08 -2.10973e-08)
(-1.70454e-06 1.06356e-08 4.25344e-09 -9.88813e-08 1.36086e-08 -2.09092e-08)
(-1.81791e-06 -1.24618e-08 -2.74169e-09 -4.16139e-08 -1.09116e-09 -3.11407e-08)
(-2.99854e-07 -1.31202e-08 1.07585e-09 1.91376e-08 1.57954e-09 -3.6751e-08)
(-2.95418e-07 1.19181e-08 1.74452e-09 9.41329e-09 3.85448e-09 -4.01191e-08)
(-1.73788e-06 1.20335e-08 3.7177e-09 -7.03819e-08 5.93796e-09 -4.08791e-08)
(-1.86379e-06 -5.363e-09 -2.3577e-09 -1.45948e-08 -1.04871e-08 -4.072e-08)
(-2.81832e-07 -7.56347e-09 1.24397e-09 -2.95389e-09 -8.65903e-09 -4.6941e-08)
(-2.77134e-07 6.30178e-09 1.31932e-09 -1.22055e-08 -6.52516e-09 -5.11088e-08)
(-1.78123e-06 4.95733e-09 3.25922e-09 -4.22206e-08 -3.85272e-09 -5.28676e-08)
(-1.94341e-06 8.72427e-10 -2.41436e-09 -5.00388e-09 -1.66746e-08 -4.35906e-08)
(-2.73301e-07 -3.38421e-09 1.11495e-09 -1.5345e-08 -1.51944e-08 -5.02509e-08)
(-2.68226e-07 2.1685e-09 1.11478e-09 -2.43658e-08 -1.32486e-08 -5.50675e-08)
(-1.85808e-06 -1.26887e-09 3.19605e-09 -3.17315e-08 -1.06216e-08 -5.77013e-08)
(-2.08218e-06 6.62735e-09 -2.57607e-09 -2.61998e-08 -1.75452e-08 -4.42743e-08)
(-2.82041e-07 -3.95811e-10 9.28987e-10 -3.62369e-08 -1.65189e-08 -5.1128e-08)
(-2.76824e-07 -8.96146e-10 9.35341e-10 -4.49205e-08 -1.48701e-08 -5.6472e-08)
(-1.99438e-06 -7.38298e-09 3.22178e-09 -5.20402e-08 -1.23734e-08 -5.99813e-08)
(-2.29877e-06 1.84946e-08 -2.4131e-09 -3.69829e-07 -1.40355e-08 -4.64297e-08)
(-3.1342e-07 3.34572e-09 8.72256e-10 -3.35089e-07 -1.32242e-08 -5.32316e-08)
(-3.09355e-07 -5.22369e-09 3.8527e-10 -3.40662e-07 -1.20815e-08 -5.89363e-08)
(-2.21213e-06 -2.03856e-08 2.82611e-09 -3.89695e-07 -1.03096e-08 -6.32719e-08)
(-2.61896e-06 2.96048e-08 -2.071e-09 -2.78276e-06 -3.0691e-09 -5.07888e-08)
(-3.71813e-07 1.16091e-08 4.64977e-10 -2.56675e-06 -2.1811e-09 -5.74477e-08)
(-3.70922e-07 -1.28512e-08 -5.50407e-10 -2.54472e-06 -1.80298e-09 -6.32159e-08)
(-2.54572e-06 -3.1925e-08 1.9079e-09 -2.72984e-06 -1.76711e-09 -6.79498e-08)
(-1.69227e-06 3.69868e-08 -1.5536e-09 3.02735e-07 6.0101e-09 -2.46078e-09)
(-1.63271e-07 -6.26016e-08 3.21352e-10 8.11857e-08 1.0468e-08 -3.72827e-09)
(-1.60722e-07 6.22062e-08 7.43704e-10 7.22089e-08 1.20969e-08 -4.48821e-09)
(-1.62024e-06 -3.57782e-08 1.86841e-09 2.75377e-07 1.09057e-08 -4.63633e-09)
(-1.72885e-06 -1.05956e-08 -2.04803e-09 -7.97572e-08 4.73933e-09 -1.35467e-08)
(-2.83365e-07 -2.30493e-08 4.65919e-10 3.0932e-08 7.92643e-09 -1.66155e-08)
(-2.79713e-07 2.16099e-08 1.50523e-09 2.11946e-08 9.55668e-09 -1.85547e-08)
(-1.65319e-06 1.02625e-08 2.70869e-09 -1.07984e-07 9.67843e-09 -1.90773e-08)
(-1.76552e-06 -1.21739e-08 -1.77229e-09 -5.37722e-08 4.0576e-10 -2.67772e-08)
(-2.91858e-07 -1.31513e-08 6.72739e-10 5.62609e-09 2.32808e-09 -3.08125e-08)
(-2.87907e-07 1.13113e-08 1.44475e-09 -3.8284e-09 3.92241e-09 -3.36592e-08)
(-1.68718e-06 1.15124e-08 2.5187e-09 -8.18725e-08 5.29617e-09 -3.49725e-08)
(-1.81205e-06 -5.30059e-09 -1.578e-09 -2.49662e-08 -5.63698e-09 -3.74803e-08)
(-2.74861e-07 -7.69096e-09 7.42504e-10 -1.37707e-08 -4.2469e-09 -4.21003e-08)
(-2.7057e-07 5.94381e-09 1.20557e-09 -2.2963e-08 -2.71595e-09 -4.5691e-08)
(-1.731e-06 4.71586e-09 2.27619e-09 -5.25053e-08 -9.00771e-10 -4.79265e-08)
(-1.89157e-06 7.63849e-10 -1.61425e-09 -1.19021e-08 -1.02955e-08 -4.45926e-08)
(-2.66673e-07 -3.5559e-09 6.35329e-10 -2.24367e-08 -9.13529e-09 -4.96921e-08)
(-2.61957e-07 2.00749e-09 1.05382e-09 -3.15163e-08 -7.72099e-09 -5.39171e-08)
(-1.8076e-06 -1.28408e-09 2.21876e-09 -3.88836e-08 -5.90342e-09 -5.69812e-08)
(-2.02953e-06 6.6682e-09 -1.72507e-09 -2.98629e-08 -1.15469e-08 -5.02546e-08)
(-2.75604e-07 -3.91786e-10 4.81198e-10 -3.97449e-08 -1.06823e-08 -5.56913e-08)
(-2.70712e-07 -1.09636e-09 9.01389e-10 -4.85601e-08 -9.48142e-09 -6.04373e-08)
(-1.94292e-06 -7.49226e-09 2.21412e-09 -5.61577e-08 -7.77211e-09 -6.4258e-08)
(-2.24489e-06 1.90477e-08 -1.67011e-09 -3.67058e-07 -9.36244e-09 -5.74691e-08)
(-3.08085e-07 3.71577e-09 3.7739e-10 -3.31067e-07 -8.68349e-09 -6.29973e-08)
(-3.0431e-07 -5.7036e-09 5.15316e-10 -3.36827e-07 -7.85471e-09 -6.8087e-08)
(-2.15914e-06 -2.09736e-08 1.96906e-09 -3.87528e-07 -6.64381e-09 -7.26049e-08)
(-2.56633e-06 3.0436e-08 -1.54025e-09 -2.72968e-06 -2.1743e-09 -6.77512e-08)
(-3.68277e-07 1.20648e-08 -7.06838e-12 -2.51181e-06 -1.54454e-09 -7.30729e-08)
(-3.67657e-07 -1.341e-08 -1.12172e-10 -2.48994e-06 -1.27103e-09 -7.8201e-08)
(-2.49336e-06 -3.28176e-08 1.40179e-09 -2.67741e-06 -1.22585e-09 -8.31738e-08)
(-1.6621e-06 3.59267e-08 -8.24479e-10 2.9303e-07 3.77965e-09 -3.48982e-09)
(-1.60256e-07 -6.25424e-08 1.72863e-10 7.46457e-08 6.13691e-09 -4.31509e-09)
(-1.57987e-07 6.15955e-08 4.62354e-10 6.61827e-08 7.07235e-09 -4.97944e-09)
(-1.59119e-06 -3.51022e-08 1.01707e-09 2.67571e-07 6.5681e-09 -5.36796e-09)
(-1.69835e-06 -1.06313e-08 -1.09955e-09 -8.6342e-08 2.71534e-09 -1.3245e-08)
(-2.7834e-07 -2.31044e-08 2.64044e-10 2.32196e-08 4.51719e-09 -1.55329e-08)
(-2.75044e-07 2.12266e-08 9.32474e-10 1.38673e-08 5.4612e-09 -1.72387e-08)
(-1.62384e-06 1.01109e-08 1.50815e-09 -1.13515e-07 5.5574e-09 -1.80552e-08)
(-1.73531e-06 -1.206e-08 -9.85093e-10 -6.15544e-08 4.13159e-10 -2.44493e-08)
(-2.86892e-07 -1.31988e-08 3.67108e-10 -2.89768e-09 1.58168e-09 -2.76874e-08)
(-2.83249e-07 1.09984e-08 9.39592e-10 -1.21564e-08 2.51777e-09 -3.02157e-08)
(-1.65802e-06 1.1268e-08 1.45308e-09 -8.91472e-08 3.27306e-09 -3.16602e-08)
(-1.78214e-06 -5.28377e-09 -9.0303e-10 -3.25426e-08 -2.80361e-09 -3.50547e-08)
(-2.70335e-07 -7.78076e-09 3.90086e-10 -2.16185e-08 -1.93089e-09 -3.89261e-08)
(-2.66303e-07 5.74674e-09 8.2571e-10 -3.07558e-08 -1.01946e-09 -4.21536e-08)
(-1.70204e-06 4.59437e-09 1.34585e-09 -5.99641e-08 1.0543e-11 -4.438e-08)
(-1.86161e-06 7.02695e-10 -9.27016e-10 -1.7729e-08 -5.46978e-09 -4.4285e-08)
(-2.62327e-07 -3.66103e-09 3.21428e-10 -2.83906e-08 -4.73995e-09 -4.86815e-08)
(-2.57837e-07 1.90166e-09 7.34788e-10 -3.75038e-08 -3.88999e-09 -5.25243e-08)
(-1.77849e-06 -1.30072e-09 1.31197e-09 -4.48508e-08 -2.82969e-09 -5.55058e-08)
(-1.99904e-06 6.69776e-09 -9.86923e-10 -3.3321e-08 -6.33482e-09 -5.32649e-08)
(-2.71394e-07 -3.9098e-10 2.26988e-10 -4.31071e-08 -5.78155e-09 -5.80699e-08)
(-2.66703e-07 -1.23665e-09 6.30066e-10 -5.20122e-08 -5.05682e-09 -6.24269e-08)
(-1.91318e-06 -7.5711e-09 1.29653e-09 -5.99165e-08 -4.05114e-09 -6.61007e-08)
(-2.21346e-06 1.93889e-08 -9.64533e-10 -3.6614e-07 -5.17419e-09 -6.41544e-08)
(-3.04537e-07 3.93815e-09 1.50045e-10 -3.29372e-07 -4.74474e-09 -6.91301e-08)
(-3.00941e-07 -6.01385e-09 3.93258e-10 -3.35259e-07 -4.24402e-09 -7.38258e-08)
(-2.12827e-06 -2.13455e-08 1.15168e-09 -3.87021e-07 -3.52428e-09 -7.81346e-08)
(-2.53536e-06 3.09519e-08 -9.10744e-10 -2.69878e-06 -1.24568e-09 -7.83271e-08)
(-3.65812e-07 1.23437e-08 -1.05343e-10 -2.48e-06 -8.72472e-10 -8.31013e-08)
(-3.65364e-07 -1.37644e-08 2.2206e-11 -2.45824e-06 -7.0697e-10 -8.78257e-08)
(-2.46259e-06 -3.33803e-08 8.25958e-10 -2.64694e-06 -6.69093e-10 -9.25896e-08)
(-1.64829e-06 3.5435e-08 -2.60257e-10 2.88295e-07 1.27972e-09 -3.7479e-09)
(-1.5887e-07 -6.25251e-08 5.4139e-11 7.13789e-08 2.01903e-09 -4.39502e-09)
(-1.56735e-07 6.13359e-08 1.56706e-10 6.31669e-08 2.32394e-09 -5.01455e-09)
(-1.5779e-06 -3.47847e-08 3.24806e-10 2.63753e-07 2.18473e-09 -5.48399e-09)
(-1.68437e-06 -1.06581e-08 -3.47265e-10 -8.95853e-08 8.74197e-10 -1.30335e-08)
(-2.76002e-07 -2.31358e-08 8.57644e-11 1.94975e-08 1.45772e-09 -1.49917e-08)
(-2.72877e-07 2.10642e-08 3.14785e-10 1.03358e-08 1.7665e-09 -1.65867e-08)
(-1.61041e-06 1.00546e-08 4.85081e-10 -1.16233e-07 1.8008e-09 -1.74959e-08)
(-1.72141e-06 -1.20206e-08 -3.15098e-10 -6.53275e-08 1.4251e-10 -2.34385e-08)
(-2.84515e-07 -1.32282e-08 1.17922e-10 -6.99807e-09 5.34538e-10 -2.63437e-08)
(-2.8102e-07 1.08645e-08 3.23206e-10 -1.61559e-08 8.42583e-10 -2.87192e-08)
(-1.64462e-06 1.11698e-08 4.74098e-10 -9.26526e-08 1.08184e-09 -3.01679e-08)
(-1.76836e-06 -5.28339e-09 -2.9298e-10 -3.63812e-08 -8.56527e-10 -3.38789e-08)
(-2.68106e-07 -7.82785e-09 1.22994e-10 -2.55872e-08 -5.59063e-10 -3.74556e-08)
(-2.642e-07 5.6589e-09 2.90071e-10 -3.46926e-08 -2.57195e-10 -4.05064e-08)
(-1.68871e-06 4.54499e-09 4.4439e-10 -6.37268e-08 7.48327e-11 -4.26477e-08)
(-1.84779e-06 6.74037e-10 -3.01786e-10 -2.08807e-08 -1.70433e-09 -4.39581e-08)
(-2.60167e-07 -3.71177e-09 9.947e-11 -3.16097e-08 -1.45622e-09 -4.80873e-08)
(-2.55787e-07 1.8479e-09 2.60165e-10 -4.07369e-08 -1.17333e-09 -5.17422e-08)
(-1.76508e-06 -1.31047e-09 4.33807e-10 -4.80608e-08 -8.25324e-10 -5.45917e-08)
(-1.98496e-06 6.71495e-09 -3.20574e-10 -3.53179e-08 -1.99663e-09 -5.45184e-08)
(-2.69308e-07 -3.90167e-10 6.80464e-11 -4.5062e-08 -1.80848e-09 -5.908e-08)
(-2.64715e-07 -1.31117e-09 2.23039e-10 -5.40107e-08 -1.56658e-09 -6.32452e-08)
(-1.89945e-06 -7.61451e-09 4.26628e-10 -6.20581e-08 -1.23333e-09 -6.67639e-08)
(-2.19889e-06 1.95562e-08 -3.13616e-10 -3.65977e-07 -1.63516e-09 -6.72655e-08)
(-3.02779e-07 4.04464e-09 4.09344e-11 -3.28835e-07 -1.49051e-09 -7.20228e-08)
(-2.99269e-07 -6.16898e-09 1.42537e-10 -3.34785e-07 -1.32315e-09 -7.65253e-08)
(-2.11396e-06 -2.15305e-08 3.77595e-10 -3.87062e-07 -1.08242e-09 -8.06629e-08)
(-2.52096e-06 3.12034e-08 -2.9757e-10 -2.68452e-06 -3.99324e-10 -8.33391e-08)
(-3.64586e-07 1.24776e-08 -4.69768e-11 -2.46535e-06 -2.76343e-10 -8.7898e-08)
(-3.6422e-07 -1.39382e-08 1.8571e-11 -2.44365e-06 -2.20978e-10 -9.24254e-08)
(-2.44829e-06 -3.36568e-08 2.69438e-10 -2.6329e-06 -2.0596e-10 -9.70187e-08)
)
;

boundaryField
{
    interface
    {
        type            calculated;
        value           nonuniform List<symmTensor> 
192
(
(-4.61301e-06 1.85224e-12 2.40358e-11 9.18761e-07 6.16701e-08 -2.72421e-06)
(-4.35854e-06 4.60143e-13 3.58744e-11 -1.884e-07 -2.00396e-08 -2.68059e-06)
(-4.44373e-06 -1.81436e-12 3.80758e-11 -1.49921e-07 -2.31862e-08 -2.71849e-06)
(-4.56781e-06 -4.32812e-12 3.79774e-11 -7.78416e-08 -1.55669e-08 -2.779e-06)
(-4.73599e-06 -6.4951e-12 3.68285e-11 -3.38148e-08 -9.61741e-09 -2.86867e-06)
(-4.98905e-06 -1.07322e-11 3.53032e-11 -3.54913e-08 -4.53439e-09 -3.00474e-06)
(-5.33347e-06 -1.36832e-11 3.19441e-11 -4.3876e-07 6.18898e-09 -3.19576e-06)
(-5.69252e-06 -2.91628e-11 2.91653e-11 -3.4252e-06 2.12134e-08 -3.42496e-06)
(-4.03635e-06 1.14651e-12 1.23032e-11 5.36688e-07 -1.06802e-07 -2.77228e-07)
(-3.86041e-06 -2.15411e-13 1.94672e-11 -2.64349e-08 -4.62459e-08 -4.02128e-07)
(-3.92022e-06 -2.35527e-12 2.04738e-11 -4.53781e-08 -3.78231e-08 -4.0319e-07)
(-4.02972e-06 -5.03825e-12 2.00766e-11 -3.28802e-08 -3.56819e-08 -3.92975e-07)
(-4.19672e-06 -7.42133e-12 1.90592e-11 -2.00364e-08 -3.01742e-08 -3.90314e-07)
(-4.46455e-06 -1.21951e-11 1.78164e-11 -3.35018e-08 -2.29627e-08 -3.9363e-07)
(-4.85562e-06 -1.54991e-11 1.56455e-11 -4.01368e-07 -1.49738e-08 -4.0496e-07)
(-5.33419e-06 -3.19858e-11 1.38272e-11 -3.19542e-06 6.71131e-09 -4.39662e-07)
(-3.58177e-06 9.65699e-13 9.91564e-12 3.94634e-07 -2.11279e-08 2.28471e-09)
(-3.48074e-06 -5.00815e-13 1.5556e-11 -2.75704e-08 -1.28786e-08 -5.43488e-08)
(-3.54195e-06 -2.74522e-12 1.63383e-11 -1.6967e-08 -2.13235e-08 -7.15872e-08)
(-3.64471e-06 -5.71113e-12 1.60099e-11 -6.96119e-09 -2.9458e-08 -6.45717e-08)
(-3.80569e-06 -8.42872e-12 1.51917e-11 -5.04167e-09 -3.02672e-08 -5.37774e-08)
(-4.07012e-06 -1.38148e-11 1.4172e-11 -2.66801e-08 -2.53186e-08 -4.56147e-08)
(-4.46603e-06 -1.76712e-11 1.25167e-11 -3.84934e-07 -1.87672e-08 -4.13384e-08)
(-4.99137e-06 -3.54274e-11 1.10333e-11 -3.00368e-06 -2.24047e-09 -3.62999e-08)
(-3.30222e-06 6.66934e-13 6.29954e-12 3.43303e-07 4.12531e-09 7.50796e-09)
(-3.22181e-06 -9.15332e-13 1.02639e-11 -5.19748e-08 3.739e-09 -1.84445e-08)
(-3.28666e-06 -3.21265e-12 1.07776e-11 -2.61754e-08 -7.14935e-09 -3.91742e-08)
(-3.38812e-06 -6.31491e-12 1.04799e-11 -5.3094e-09 -1.86564e-08 -4.35086e-08)
(-3.54628e-06 -9.20379e-12 9.84951e-12 -8.08617e-10 -2.41675e-08 -3.94785e-08)
(-3.80718e-06 -1.4877e-11 9.08821e-12 -2.43728e-08 -2.29903e-08 -3.46247e-08)
(-4.20072e-06 -1.89774e-11 7.99427e-12 -3.75579e-07 -1.79536e-08 -3.18564e-08)
(-4.74231e-06 -3.71353e-11 7.03121e-12 -2.86843e-06 -3.5728e-09 -2.88432e-08)
(-3.13916e-06 5.51833e-13 4.69071e-12 3.18267e-07 7.28947e-09 6.41065e-10)
(-3.06511e-06 -1.14742e-12 7.62001e-12 -6.90894e-08 6.30312e-09 -1.42176e-08)
(-3.13188e-06 -3.54641e-12 8.00779e-12 -4.16139e-08 -1.09116e-09 -3.11407e-08)
(-3.23353e-06 -6.78731e-12 7.78865e-12 -1.45948e-08 -1.04871e-08 -4.072e-08)
(-3.3907e-06 -9.84461e-12 7.324e-12 -5.00388e-09 -1.66746e-08 -4.35906e-08)
(-3.6493e-06 -1.57623e-11 6.75214e-12 -2.61998e-08 -1.75452e-08 -4.42743e-08)
(-4.03932e-06 -2.00939e-11 5.96593e-12 -3.69829e-07 -1.40355e-08 -4.64297e-08)
(-4.58504e-06 -3.86127e-11 5.24825e-12 -2.78276e-06 -3.0691e-09 -5.07888e-08)
(-3.04236e-06 4.47963e-13 2.94415e-12 3.02735e-07 6.0101e-09 -2.46078e-09)
(-2.97113e-06 -1.33822e-12 4.8808e-12 -7.97572e-08 4.73933e-09 -1.35467e-08)
(-3.03874e-06 -3.8055e-12 5.13841e-12 -5.37722e-08 4.0576e-10 -2.67772e-08)
(-3.14071e-06 -7.12933e-12 4.9846e-12 -2.49662e-08 -5.63698e-09 -3.74803e-08)
(-3.29746e-06 -1.0285e-11 4.67227e-12 -1.19021e-08 -1.02955e-08 -4.45926e-08)
(-3.55446e-06 -1.63349e-11 4.29083e-12 -2.98629e-08 -1.15469e-08 -5.02546e-08)
(-3.94123e-06 -2.07907e-11 3.79443e-12 -3.67058e-07 -9.36244e-09 -5.74691e-08)
(-4.4875e-06 -3.95027e-11 3.34477e-12 -2.72968e-06 -2.1743e-09 -6.77512e-08)
(-2.98707e-06 4.05603e-13 1.74276e-12 2.9303e-07 3.77965e-09 -3.48982e-09)
(-2.91729e-06 -1.44103e-12 2.88025e-12 -8.6342e-08 2.71534e-09 -1.3245e-08)
(-2.98524e-06 -3.96549e-12 3.03527e-12 -6.15544e-08 4.13159e-10 -2.44493e-08)
(-3.08739e-06 -7.3515e-12 2.94679e-12 -3.25426e-08 -2.80361e-09 -3.50547e-08)
(-3.24393e-06 -1.058e-11 2.76655e-12 -1.7729e-08 -5.46978e-09 -4.4285e-08)
(-3.49986e-06 -1.67214e-11 2.54063e-12 -3.3321e-08 -6.33482e-09 -5.32649e-08)
(-3.88427e-06 -2.12664e-11 2.25562e-12 -3.6614e-07 -5.17419e-09 -6.41544e-08)
(-4.43027e-06 -4.01147e-11 1.9851e-12 -2.69878e-06 -1.24568e-09 -7.83271e-08)
(-2.96174e-06 3.73652e-13 5.32663e-13 2.88295e-07 1.27972e-09 -3.7479e-09)
(-2.89261e-06 -1.5001e-12 9.01366e-13 -8.95853e-08 8.74197e-10 -1.30335e-08)
(-2.96068e-06 -4.04717e-12 9.51713e-13 -6.53275e-08 1.4251e-10 -2.34385e-08)
(-3.06291e-06 -7.45774e-12 9.21631e-13 -3.63812e-08 -8.56527e-10 -3.38789e-08)
(-3.21933e-06 -1.07181e-11 8.63508e-13 -2.08807e-08 -1.70433e-09 -4.39581e-08)
(-3.47473e-06 -1.6896e-11 7.90071e-13 -3.53179e-08 -1.99663e-09 -5.45184e-08)
(-3.85793e-06 -2.14831e-11 7.02673e-13 -3.65977e-07 -1.63516e-09 -6.72655e-08)
(-4.40367e-06 -4.03901e-11 6.16056e-13 -2.68452e-06 -3.99324e-10 -8.33391e-08)
(-2.55994e-06 6.37858e-08 -3.62327e-11 9.18761e-07 -5.73363e-12 -4.90148e-06)
(-2.52195e-06 -1.45362e-08 -5.59184e-11 -1.884e-07 -5.4165e-12 -4.64346e-06)
(-2.56216e-06 -1.43469e-08 -6.00713e-11 -1.49921e-07 -3.48438e-12 -4.72938e-06)
(-2.61737e-06 -4.43837e-09 -6.06224e-11 -7.78416e-08 -2.44466e-12 -4.85661e-06)
(-2.70161e-06 1.36103e-09 -6.01974e-11 -3.38148e-08 -2.08864e-12 -5.02782e-06)
(-2.83402e-06 4.22997e-09 -5.98512e-11 -3.54913e-08 -2.48837e-12 -5.28455e-06)
(-3.019e-06 1.24443e-08 -5.92624e-11 -4.3876e-07 -2.97542e-12 -5.64028e-06)
(-3.23364e-06 2.24406e-08 -6.2193e-11 -3.4252e-06 -4.31121e-12 -6.02611e-06)
(-2.61325e-07 -6.88356e-08 -2.54874e-11 6.04652e-07 -2.9356e-12 -4.5482e-06)
(-4.17751e-07 -2.27071e-08 -4.27932e-11 -2.41566e-08 -3.13972e-12 -4.33663e-06)
(-4.18448e-07 -1.03015e-08 -4.59565e-11 -6.43646e-08 -1.81696e-12 -4.38861e-06)
(-3.93877e-07 -3.93559e-09 -4.61499e-11 -5.96212e-08 -8.30799e-13 -4.50093e-06)
(-3.81385e-07 -5.92028e-10 -4.59045e-11 -4.19306e-08 -2.24468e-13 -4.67354e-06)
(-3.81525e-07 4.58794e-11 -4.60118e-11 -4.57401e-08 1.76981e-14 -4.94709e-06)
(-3.94912e-07 1.12406e-09 -4.65206e-11 -4.12417e-07 1.74109e-14 -5.34794e-06)
(-4.32212e-07 8.29764e-09 -5.08046e-11 -3.30186e-06 -4.34074e-13 -5.8383e-06)
(-2.59203e-07 9.06653e-08 -2.72279e-11 5.93437e-07 -1.72536e-12 -4.50661e-06)
(-4.15181e-07 3.94102e-08 -4.55286e-11 -3.56504e-08 -1.81917e-12 -4.2923e-06)
(-4.16222e-07 2.27999e-08 -4.91046e-11 -7.52028e-08 -8.14748e-13 -4.34267e-06)
(-3.91881e-07 1.31159e-08 -4.93529e-11 -6.95848e-08 1.94622e-13 -4.45436e-06)
(-3.79442e-07 7.077e-09 -4.89443e-11 -5.14345e-08 9.88886e-13 -4.62668e-06)
(-3.798e-07 3.97948e-09 -4.86751e-11 -5.50438e-08 1.68334e-12 -4.89996e-06)
(-3.94519e-07 -4.20773e-11 -4.85582e-11 -4.19134e-07 2.16923e-12 -5.30082e-06)
(-4.34701e-07 -8.98793e-09 -5.21972e-11 -3.28262e-06 2.28531e-12 -5.79565e-06)
(-2.49116e-06 -5.28575e-08 -3.20264e-11 8.75792e-07 -1.22081e-12 -4.78993e-06)
(-2.45075e-06 2.17484e-08 -5.32509e-11 -2.21827e-07 -1.1012e-12 -4.52947e-06)
(-2.49008e-06 1.95517e-08 -5.76042e-11 -1.80428e-07 -1.45353e-13 -4.61164e-06)
(-2.54459e-06 8.28835e-09 -5.79895e-11 -1.05946e-07 9.43725e-13 -4.73701e-06)
(-2.62836e-06 1.35442e-09 -5.73783e-11 -6.05309e-08 1.82922e-12 -4.90718e-06)
(-2.76151e-06 -2.83155e-09 -5.68807e-11 -6.17836e-08 2.80168e-12 -5.16288e-06)
(-2.95189e-06 -1.30166e-08 -5.59101e-11 -4.6031e-07 3.58755e-12 -5.51771e-06)
(-3.18305e-06 -2.42509e-08 -5.93856e-11 -3.37727e-06 4.55748e-12 -5.91385e-06)
(-4.47969e-06 5.86936e-12 1.40319e-11 8.75792e-07 7.08176e-08 -2.66924e-06)
(-4.22128e-06 4.19453e-12 2.2726e-11 -2.21827e-07 -1.40412e-08 -2.62669e-06)
(-4.30403e-06 8.41703e-14 2.42165e-11 -1.80428e-07 -1.90263e-08 -2.66398e-06)
(-4.42624e-06 -3.39317e-12 2.42446e-11 -1.05946e-07 -1.2367e-08 -2.72414e-06)
(-4.59338e-06 -5.5209e-12 2.38148e-11 -6.05309e-08 -6.92019e-09 -2.81355e-06)
(-4.84749e-06 -8.99442e-12 2.40928e-11 -6.17836e-08 -2.03613e-09 -2.94933e-06)
(-5.20004e-06 -9.2759e-12 2.32961e-11 -4.6031e-07 8.67983e-09 -3.14058e-06)
(-5.58635e-06 -2.49852e-11 2.54207e-11 -3.37727e-06 2.32902e-08 -3.37683e-06)
(-3.88247e-06 1.9708e-12 2.55709e-12 4.91972e-07 -8.92785e-08 -2.80872e-07)
(-3.70484e-06 8.37191e-13 6.37907e-12 -6.07475e-08 -3.38941e-08 -4.11303e-07)
(-3.76159e-06 -1.54502e-12 6.57906e-12 -7.50396e-08 -2.8443e-08 -4.15533e-07)
(-3.86782e-06 -4.02757e-12 6.36063e-12 -6.0048e-08 -2.80434e-08 -4.06965e-07)
(-4.03167e-06 -5.37336e-12 6.29165e-12 -4.60029e-08 -2.35974e-08 -4.0521e-07)
(-4.29742e-06 -8.38008e-12 7.05425e-12 -5.87416e-08 -1.7151e-08 -4.093e-07)
(-4.69304e-06 -7.05795e-12 7.59723e-12 -4.20514e-07 -1.02562e-08 -4.22047e-07)
(-5.20026e-06 -2.29029e-11 9.8695e-12 -3.14064e-06 9.02726e-09 -4.5945e-07)
(-3.43016e-06 9.87119e-13 4.1316e-12 3.54807e-07 -6.98001e-09 -2.55468e-09)
(-3.32566e-06 -2.57412e-13 8.19207e-12 -6.11736e-08 -6.8341e-10 -6.51688e-08)
(-3.38315e-06 -2.11419e-12 8.83243e-12 -4.67145e-08 -1.09735e-08 -8.61779e-08)
(-3.48207e-06 -4.35278e-12 8.81007e-12 -3.43015e-08 -2.05101e-08 -8.14766e-08)
(-3.63903e-06 -5.42312e-12 8.71807e-12 -3.10526e-08 -2.24178e-08 -7.22084e-08)