/*--------------------------------*- C++ -*----------------------------------*\
| =========                 |                                                 |
| \\      /  F ield         | OpenFOAM: The Open Source CFD Toolbox           |
|  \\    /   O peration     | Version:  v1912                                 |
|   \\  /    A nd           | Website:  www.openfoam.com                      |
|    \\/     M anipulation  |                                                 |
\*---------------------------------------------------------------------------*/
FoamFile
{
    version     2.0;
    format      ascii;
    class       pointVectorField;
    location    "0.3/solid";
    object      pointDD;
}
// * * * * * * * * * * * * * * * * * * * * * * * * * * * * * * * * * * * * * //

dimensions      [0 1 0 0 0 0 0];


internalField   nonuniform List<vector> 
405
(
(3.14808e-10 5.49556e-10 2.91955e-10)
(1.43742e-10 3.63814e-10 1.50935e-10)
(-2.64472e-12 2.91505e-10 9.8384e-11)
(-1.44936e-10 3.56355e-10 1.41902e-10)
(-2.89741e-10 5.34313e-10 2.78656e-10)
(6.20869e-10 6.18225e-10 7.02263e-10)
(3.9099e-10 5.7076e-10 5.56188e-10)
(-6.42428e-12 4.59691e-10 4.42003e-10)
(-3.94427e-10 5.59579e-10 5.37135e-10)
(-5.82468e-10 6.01793e-10 6.79508e-10)
(7.82586e-10 2.05562e-10 1.15428e-09)
(5.03555e-10 2.37832e-10 9.97037e-10)
(-8.40712e-12 1.85e-10 8.69714e-10)
(-5.09811e-10 2.33247e-10 9.75704e-10)
(-7.44649e-10 2.00185e-10 1.12681e-09)
(7.77984e-10 -1.75239e-10 1.51096e-09)
(4.96794e-10 -1.08818e-10 1.3493e-09)
(-1.06965e-11 -1.3252e-10 1.2119e-09)
(-5.07731e-10 -1.08336e-10 1.32573e-09)
(-7.43762e-10 -1.72481e-10 1.48024e-09)
(7.56112e-10 -5.16305e-10 1.85345e-09)
(4.74412e-10 -4.59304e-10 1.68184e-09)
(-1.41844e-11 -4.86834e-10 1.53049e-09)
(-4.92333e-10 -4.54739e-10 1.6566e-09)
(-7.27942e-10 -5.06997e-10 1.82037e-09)
(7.95814e-10 -8.64895e-10 2.22184e-09)
(4.9781e-10 -8.42441e-10 2.03173e-09)
(-1.88495e-11 -8.89459e-10 1.86349e-09)
(-5.25008e-10 -8.34424e-10 2.00514e-09)
(-7.75902e-10 -8.4993e-10 2.18692e-09)
(9.78145e-10 -1.3265e-09 2.64993e-09)
(6.2675e-10 -1.33089e-09 2.43189e-09)
(-2.48169e-11 -1.37804e-09 2.2486e-09)
(-6.65587e-10 -1.32005e-09 2.40398e-09)
(-9.68056e-10 -1.30674e-09 2.61337e-09)
(1.38812e-09 -2.2234e-09 3.16915e-09)
(8.75339e-10 -2.18482e-09 2.97988e-09)
(-3.27558e-11 -2.15587e-09 2.80309e-09)
(-9.28656e-10 -2.16946e-09 2.94999e-09)
(-1.38605e-09 -2.19641e-09 3.13036e-09)
(1.66419e-09 -2.84757e-09 3.49075e-09)
(1.02474e-09 -2.72935e-09 3.39196e-09)
(-3.74434e-11 -2.59985e-09 3.26326e-09)
(-1.08632e-09 -2.70387e-09 3.36742e-09)
(-1.68088e-09 -2.81026e-09 3.45497e-09)
(1.19162e-10 2.63146e-10 1.35281e-10)
(0 0 0)
(0 0 0)
(0 0 0)
(-8.71594e-11 2.53377e-10 1.31204e-10)
(3.38575e-10 3.32726e-10 4.88337e-10)
(0 0 0)
(0 0 0)
(0 0 0)
(-2.72975e-10 3.19049e-10 4.76547e-10)
(4.4459e-10 -5.13148e-11 8.86988e-10)
(0 0 0)
(0 0 0)
(0 0 0)
(-3.77689e-10 -5.47893e-11 8.697e-10)
(4.32756e-10 -4.0802e-10 1.23289e-09)
(0 0 0)
(0 0 0)
(0 0 0)
(-3.67763e-10 -4.03598e-10 1.21249e-09)
(4.09185e-10 -7.33368e-10 1.5652e-09)
(0 0 0)
(0 0 0)
(0 0 0)
(-3.48662e-10 -7.22195e-10 1.54257e-09)
(4.40329e-10 -1.05488e-09 1.91687e-09)
(0 0 0)
(0 0 0)
(0 0 0)
(-3.86515e-10 -1.0377e-09 1.89242e-09)
(6.01667e-10 -1.44407e-09 2.30523e-09)
(0 0 0)
(0 0 0)
(0 0 0)
(-5.55647e-10 -1.42175e-09 2.27908e-09)
(1.03387e-09 -2.18388e-09 2.67554e-09)
(0 0 0)
(0 0 0)
(0 0 0)
(-9.90331e-10 -2.15419e-09 2.64745e-09)
(1.38775e-09 -2.67709e-09 2.88537e-09)
(8.74652e-10 -2.48765e-09 2.90449e-09)
(-3.32641e-11 -2.31011e-09 2.87648e-09)
(-9.28999e-10 -2.45652e-09 2.88976e-09)
(-1.38634e-09 -2.63649e-09 2.85967e-09)
(-1.79774e-11 8.32938e-11 2.7494e-11)
(0 0 0)
(0 0 0)
(0 0 0)
(4.66072e-11 7.46211e-11 2.57758e-11)
(8.3799e-12 5.06699e-12 2.0511e-10)
(0 0 0)
(0 0 0)
(0 0 0)
(5.10548e-11 -7.17837e-12 1.98953e-10)
(4.73407e-11 -3.19287e-10 5.22292e-10)
(0 0 0)
(0 0 0)
(0 0 0)
(1.48161e-11 -3.22664e-10 5.11639e-10)
(2.25076e-11 -6.34472e-10 8.48711e-10)
(0 0 0)
(0 0 0)
(0 0 0)
(3.9316e-11 -6.30782e-10 8.35049e-10)
(-5.56967e-12 -9.31892e-10 1.16356e-09)
(0 0 0)
(0 0 0)
(0 0 0)
(6.43451e-11 -9.21833e-10 1.14766e-09)
(1.89239e-11 -1.20952e-09 1.47319e-09)
(0 0 0)
(0 0 0)
(0 0 0)
(3.45031e-11 -1.19368e-09 1.4554e-09)
(1.72659e-10 -1.49872e-09 1.75895e-09)
(0 0 0)
(0 0 0)
(0 0 0)
(-1.25718e-10 -1.47798e-09 1.73936e-09)
(6.00667e-10 -2.04047e-09 1.93282e-09)
(0 0 0)
(0 0 0)
(0 0 0)
(-5.55127e-10 -2.01262e-09 1.91164e-09)
(9.76545e-10 -2.38462e-09 1.98754e-09)
(6.24689e-10 -2.16688e-09 2.05115e-09)
(-2.60365e-11 -1.98292e-09 2.09972e-09)
(-6.6589e-10 -2.13741e-09 2.04053e-09)
(-9.67986e-10 -2.34594e-09 1.96856e-09)
(-6.96258e-11 1.20079e-11 2.70063e-11)
(0 0 0)
(0 0 0)
(0 0 0)
(9.73197e-11 3.06673e-12 2.58017e-11)
(-1.25887e-10 -1.35011e-10 1.74584e-10)
(0 0 0)
(0 0 0)
(0 0 0)
(1.84146e-10 -1.47994e-10 1.70233e-10)
(-1.23643e-10 -4.51749e-10 4.39444e-10)
(0 0 0)
(0 0 0)
(0 0 0)
(1.86102e-10 -4.56242e-10 4.31679e-10)
(-1.52072e-10 -7.51401e-10 7.27542e-10)
(0 0 0)
(0 0 0)
(0 0 0)
(2.1573e-10 -7.49107e-10 7.17167e-10)
(-1.75078e-10 -1.01737e-09 1.00744e-09)
(0 0 0)
(0 0 0)
(0 0 0)
(2.37176e-10 -1.00885e-09 9.94986e-10)
(-1.44887e-10 -1.23799e-09 1.26322e-09)
(0 0 0)
(0 0 0)
(0 0 0)
(2.03134e-10 -1.22376e-09 1.24898e-09)
(1.36693e-11 -1.44156e-09 1.4613e-09)
(0 0 0)
(0 0 0)
(0 0 0)
(3.96101e-11 -1.42247e-09 1.44547e-09)
(4.34122e-10 -1.88052e-09 1.53782e-09)
(0 0 0)
(0 0 0)
(0 0 0)
(-3.81061e-10 -1.85405e-09 1.52073e-09)
(7.88488e-10 -2.18553e-09 1.52524e-09)
(4.90751e-10 -1.99617e-09 1.56534e-09)
(-2.09028e-11 -1.82689e-09 1.61406e-09)
(-5.21833e-10 -1.96745e-09 1.55677e-09)
(-7.70972e-10 -2.14787e-09 1.50997e-09)
(-8.70115e-11 -1.09188e-11 3.38045e-11)
(0 0 0)
(0 0 0)
(0 0 0)
(1.14344e-10 -2.02556e-11 3.29609e-11)
(-1.71561e-10 -1.80904e-10 1.68505e-10)
(0 0 0)
(0 0 0)
(0 0 0)
(2.29557e-10 -1.94902e-10 1.6549e-10)
(-1.81401e-10 -4.96875e-10 3.85984e-10)
(0 0 0)
(0 0 0)
(0 0 0)
(2.44637e-10 -5.02711e-10 3.80553e-10)
(-2.07935e-10 -7.87925e-10 6.20069e-10)
(0 0 0)
(0 0 0)
(0 0 0)
(2.73582e-10 -7.87119e-10 6.12628e-10)
(-2.23852e-10 -1.0289e-09 8.45665e-10)
(0 0 0)
(0 0 0)
(0 0 0)
(2.89217e-10 -1.02191e-09 8.36499e-10)
(-1.86249e-10 -1.2086e-09 1.04028e-09)
(0 0 0)
(0 0 0)
(0 0 0)
(2.49064e-10 -1.19588e-09 1.0296e-09)
(-2.34306e-11 -1.36635e-09 1.17351e-09)
(0 0 0)
(0 0 0)
(0 0 0)
(8.25683e-11 -1.34869e-09 1.16153e-09)
(3.89274e-10 -1.76446e-09 1.21036e-09)
(0 0 0)
(0 0 0)
(0 0 0)
(-3.29313e-10 -1.73914e-09 1.1974e-09)
(7.33264e-10 -2.05397e-09 1.18104e-09)
(4.54582e-10 -1.88307e-09 1.19003e-09)
(-1.70742e-11 -1.72916e-09 1.21689e-09)
(-4.77886e-10 -1.85485e-09 1.18357e-09)
(-7.08145e-10 -2.0171e-09 1.1695e-09)
(-9.13086e-11 -1.66642e-11 3.13746e-11)
(0 0 0)
(0 0 0)
(0 0 0)
(1.18515e-10 -2.62814e-11 3.08227e-11)
(-1.81215e-10 -1.89861e-10 1.4159e-10)
(0 0 0)
(0 0 0)
(0 0 0)
(2.39256e-10 -2.04634e-10 1.39617e-10)
(-1.90594e-10 -5.00598e-10 3.07593e-10)
(0 0 0)
(0 0 0)
(0 0 0)
(2.54576e-10 -5.07539e-10 3.04008e-10)
(-2.12644e-10 -7.82737e-10 4.81748e-10)
(0 0 0)
(0 0 0)
(0 0 0)
(2.79914e-10 -7.83186e-10 4.76748e-10)
(-2.22262e-10 -1.00699e-09 6.4676e-10)
(0 0 0)
(0 0 0)
(0 0 0)
(2.90226e-10 -1.00129e-09 6.40477e-10)
(-1.7888e-10 -1.16492e-09 7.83608e-10)
(0 0 0)
(0 0 0)
(0 0 0)
(2.45304e-10 -1.15345e-09 7.76164e-10)
(-1.37268e-11 -1.30438e-09 8.7097e-10)
(0 0 0)
(0 0 0)
(0 0 0)
(7.74589e-11 -1.28789e-09 8.62525e-10)
(3.92473e-10 -1.68752e-09 8.91152e-10)
(0 0 0)
(0 0 0)
(0 0 0)
(-3.27103e-10 -1.6632e-09 8.81986e-10)
(7.31426e-10 -1.96795e-09 8.64804e-10)
(4.57811e-10 -1.80661e-09 8.58717e-10)
(-1.42476e-11 -1.66353e-09 8.69506e-10)
(-4.75353e-10 -1.77877e-09 8.5421e-10)
(-7.005e-10 -1.93179e-09 8.56701e-10)
(-9.18185e-11 -1.72562e-11 2.30471e-11)
(0 0 0)
(0 0 0)
(0 0 0)
(1.19007e-10 -2.70491e-11 2.27197e-11)
(-1.80728e-10 -1.87367e-10 9.98128e-11)
(0 0 0)
(0 0 0)
(0 0 0)
(2.38918e-10 -2.0265e-10 9.86363e-11)
(-1.86564e-10 -4.90657e-10 2.11114e-10)
(0 0 0)
(0 0 0)
(0 0 0)
(2.5114e-10 -4.98362e-10 2.08958e-10)
(-2.04293e-10 -7.64373e-10 3.2533e-10)
(0 0 0)
(0 0 0)
(0 0 0)
(2.72738e-10 -7.65725e-10 3.22284e-10)
(-2.09427e-10 -9.78561e-10 4.31778e-10)
(0 0 0)
(0 0 0)
(0 0 0)
(2.79235e-10 -9.73803e-10 4.27894e-10)
(-1.62479e-10 -1.12695e-09 5.17966e-10)
(0 0 0)
(0 0 0)
(0 0 0)
(2.31451e-10 -1.11642e-09 5.13303e-10)
(3.58239e-12 -1.26089e-09 5.71183e-10)
(0 0 0)
(0 0 0)
(0 0 0)
(6.33867e-11 -1.2453e-09 5.65845e-10)
(4.05075e-10 -1.63867e-09 5.82653e-10)
(0 0 0)
(0 0 0)
(0 0 0)
(-3.35884e-10 -1.61517e-09 5.76843e-10)
(7.40967e-10 -1.91343e-09 5.64918e-10)
(4.67945e-10 -1.75643e-09 5.56568e-10)
(-1.23053e-11 -1.61944e-09 5.59877e-10)
(-4.81529e-10 -1.72887e-09 5.5375e-10)
(-7.05992e-10 -1.87786e-09 5.59813e-10)
(-9.16782e-11 -1.68199e-11 1.2027e-11)
(0 0 0)
(0 0 0)
(0 0 0)
(1.18883e-10 -2.67093e-11 1.18757e-11)
(-1.7922e-10 -1.8354e-10 5.11481e-11)
(0 0 0)
(0 0 0)
(0 0 0)
(2.37542e-10 -1.99107e-10 5.06015e-11)
(-1.8243e-10 -4.80875e-10 1.06784e-10)
(0 0 0)
(0 0 0)
(0 0 0)
(2.47384e-10 -4.8902e-10 1.05776e-10)
(-1.97385e-10 -7.48723e-10 1.63095e-10)
(0 0 0)
(0 0 0)
(0 0 0)
(2.66536e-10 -7.5061e-10 1.61659e-10)
(-1.99951e-10 -9.57625e-10 2.15006e-10)
(0 0 0)
(0 0 0)
(0 0 0)
(2.70852e-10 -9.53441e-10 2.13157e-10)
(-1.5118e-10 -1.10242e-09 2.56518e-10)
(0 0 0)
(0 0 0)
(0 0 0)
(2.21657e-10 -1.09246e-09 2.54281e-10)
(1.51146e-11 -1.23531e-09 2.81806e-10)
(0 0 0)
(0 0 0)
(0 0 0)
(5.37684e-11 -1.22028e-09 2.79228e-10)
(4.13788e-10 -1.61129e-09 2.87152e-10)
(0 0 0)
(0 0 0)
(0 0 0)
(-3.42328e-10 -1.58832e-09 2.8434e-10)
(7.47881e-10 -1.88298e-09 2.78537e-10)
(4.74688e-10 -1.72762e-09 2.73568e-10)
(-1.11691e-11 -1.59348e-09 2.74307e-10)
(-4.85958e-10 -1.70025e-09 2.72219e-10)
(-7.10516e-10 -1.84781e-09 2.76078e-10)
(-5.69433e-11 -2.44957e-11 0)
(-1.91012e-12 -3.36379e-11 0)
(-5.9772e-14 -4.75004e-11 0)
(4.71597e-12 -3.69326e-11 0)
(7.89073e-11 -3.49984e-11 0)
(-8.22041e-11 -1.83111e-10 0)
(-5.96743e-12 -2.0669e-10 0)
(1.74e-12 -2.29969e-10 0)
(1.58809e-11 -2.12402e-10 0)
(1.19565e-10 -1.95818e-10 0)
(-8.59567e-11 -4.74623e-10 0)
(-1.35621e-11 -4.86047e-10 0)
(5.01483e-12 -5.00636e-10 0)
(3.03895e-11 -4.89568e-10 0)
(1.30311e-10 -4.81596e-10 0)
(-1.00277e-10 -7.40811e-10 0)
(-2.49657e-11 -7.51338e-10 0)
(6.93601e-12 -7.64044e-10 0)
(4.53467e-11 -7.52057e-10 0)
(1.48414e-10 -7.4244e-10 0)
(-1.02068e-10 -9.56604e-10 0)
(-2.78977e-11 -9.87683e-10 0)
(7.06983e-12 -1.01168e-09 0)
(4.8529e-11 -9.85405e-10 0)
(1.51261e-10 -9.5293e-10 0)
(-5.05678e-11 -1.12344e-09 0)
(7.64971e-12 -1.19843e-09 0)
(5.4911e-12 -1.24268e-09 0)
(1.00233e-11 -1.19327e-09 0)
(9.82366e-11 -1.11471e-09 0)
(1.23424e-10 -1.29245e-09 0)
(1.29824e-10 -1.40956e-09 0)
(2.13936e-12 -1.45915e-09 0)
(-1.18225e-10 -1.40185e-09 0)
(-7.92058e-11 -1.27924e-09 0)
(4.93855e-10 -1.67496e-09 0)
(3.49549e-10 -1.73885e-09 0)
(-3.51578e-12 -1.72735e-09 0)
(-3.4734e-10 -1.72691e-09 0)
(-4.52024e-10 -1.65448e-09 0)
(7.60245e-10 -1.92206e-09 0)
(4.78228e-10 -1.83749e-09 0)
(-8.9101e-12 -1.73751e-09 0)
(-4.85168e-10 -1.81633e-09 0)
(-7.32373e-10 -1.89105e-09 0)
)
;

boundaryField
{
    interface
    {
        type            calculated;
    }
    symmetry
    {
        type            symmetry;
    }
    bottom
    {
        type            calculated;
    }
}


// ************************************************************************* //
