/*--------------------------------*- C++ -*----------------------------------*\
| =========                 |                                                 |
| \\      /  F ield         | OpenFOAM: The Open Source CFD Toolbox           |
|  \\    /   O peration     | Version:  v1912                                 |
|   \\  /    A nd           | Website:  www.openfoam.com                      |
|    \\/     M anipulation  |                                                 |
\*---------------------------------------------------------------------------*/
FoamFile
{
    version     2.0;
    format      ascii;
    class       volScalarField;
    location    "0.3/solid";
    object      sigmaHyd;
}
// * * * * * * * * * * * * * * * * * * * * * * * * * * * * * * * * * * * * * //

dimensions      [1 -1 -2 0 0 0 0];


internalField   nonuniform List<scalar> 
256
(
-727566
-363535
-361505
-714102
-898489
-489519
-487304
-883211
-905095
-499186
-496850
-889081
-912369
-502884
-500423
-895779
-934015
-513054
-510517
-917073
-979043
-538182
-535642
-962105
-1.10892e+06
-637553
-634855
-1.09213e+06
-1.68063e+06
-1.17252e+06
-1.16649e+06
-1.65619e+06
-329569
-35946.4
-37456.9
-324113
-442906
-103258
-104715
-436334
-450665
-116618
-118030
-443641
-454775
-118458
-119825
-447355
-466229
-118355
-119697
-458476
-492705
-122634
-123982
-484795
-591257
-183334
-184465
-583160
-1.10911e+06
-637558
-634779
-1.09206e+06
-265111
-8352.31
-9905.63
-259203
-349549
-47998.7
-49610.3
-343083
-355583
-59204
-60798.9
-348815
-360160
-61687.8
-63255.7
-353053
-371599
-61923.5
-63475.6
-364150
-397429
-65655.9
-67209.3
-389723
-492648
-122272
-123574
-484510
-979205
-537876
-535177
-961698
-247277
-11049.8
-12451.3
-240839
-323486
-44276.2
-45773.7
-316809
-328261
-53640.3
-55152.5
-321414
-332990
-56150.2
-57655.4
-325872
-344901
-57030.5
-58531.2
-337465
-371342
-61596.3
-63100.1
-363616
-465686
-117374
-118615
-457403
-933409
-511772
-508971
-915463
-237710
-13131.9
-14414.6
-230900
-310894
-44481.8
-45886
-304054
-315110
-52911.2
-54354
-308191
-319851
-55287.9
-56741.4
-312720
-332000
-56482.9
-57943.3
-324585
-358775
-61567.6
-63036.1
-351068
-452505
-116957
-118159
-444183
-908750
-499336
-496476
-890586
-232000
-14302.2
-15500.2
-224916
-303692
-44841.4
-46178.8
-296708
-307679
-52840.7
-54232.5
-300671
-312417
-55122.1
-56537.4
-305239
-324678
-56467
-57898.4
-317245
-351608
-61840
-63284.9
-343890
-444903
-117025
-118204
-436545
-893961
-492194
-489300
-875657
-228760
-14987.5
-16130.7
-221497
-299657
-45108.9
-46402.6
-292568
-303552
-52912.9
-54270.2
-296471
-308290
-55146.6
-56535.4
-301063
-320604
-56566.6
-57977.6
-313142
-347605
-62095.1
-63523.7
-339866
-440626
-117173
-118338
-432237
-885411
-488152
-485238
-867020
-227290
-15314.3
-16430.5
-219939
-297832
-45249.3
-46521.4
-290689
-301695
-52976.1
-54315.9
-294574
-306436
-55191.5
-56566.5
-299180
-318772
-56644
-58044.4
-311289
-345799
-62241.6
-63661.7
-338046
-438689
-117273
-118430
-430281
-881468
-486306
-483383
-863035
)
;

boundaryField
{
    interface
    {
        type            zeroGradient;
    }
    symmetry
    {
        type            symmetry;
    }
    bottom
    {
        type            zeroGradient;
    }
}


// ************************************************************************* //
