/*--------------------------------*- C++ -*----------------------------------*\
| =========                 |                                                 |
| \\      /  F ield         | OpenFOAM: The Open Source CFD Toolbox           |
|  \\    /   O peration     | Version:  v1912                                 |
|   \\  /    A nd           | Website:  www.openfoam.com                      |
|    \\/     M anipulation  |                                                 |
\*---------------------------------------------------------------------------*/
FoamFile
{
    version     2.0;
    format      ascii;
    class       volScalarField;
    location    "0.3/solid";
    object      sigmaEq;
}
// * * * * * * * * * * * * * * * * * * * * * * * * * * * * * * * * * * * * * //

dimensions      [1 -1 -2 0 0 0 0];


internalField   nonuniform List<scalar> 
256
(
548792
431295
427318
532769
371935
353880
349649
357360
383846
352611
348316
369594
403800
362329
358073
389830
423939
378628
374397
410123
444316
400698
396471
430587
411298
402222
398282
398712
31137
441474
438121
31831.9
381244
81331.6
79569.1
363824
314253
74494.3
72547.1
297745
316318
61379.1
59694.6
299935
325253
51559.9
50067.5
308791
339400
48735.8
47335
322753
359532
47042.2
45729.2
342759
359761
5190.83
5988.95
343927
411169
402353
398510
398877
340629
48278.2
46854.5
324274
303822
57580.1
55397.7
287573
307962
51951.4
49799.8
291414
316147
44345.5
42207.5
299305
329608
41345.4
39178.7
312422
350256
40726.4
38586
332800
359373
45748.2
44774.5
342786
444188
400994
396952
431149
312635
42242.9
40947.8
297479
282407
51965.5
50028.2
267072
287964
48631.5
46629.2
272094
296200
42452
40414.9
279886
309184
39732.9
37646.5
292427
329228
39231.7
37169.7
312119
339016
45067.2
44217.2
322720
424788
379548
375612
412186
296247
39078.9
37786
281971
267876
48060.1
46327
253279
274106
45528.7
43719.5
258864
282522
40071.6
38197.9
266731
295327
37522.8
35574.1
279016
314963
36988
35049.4
298239
324570
41954.1
41295.5
308625
408364
364294
360455
396211
286523
37145.9
35857.6
272840
258969
45607.6
44013.5
244879
265467
43383.8
41724
250680
273987
38247.9
36514
258587
286712
35759.6
33928.9
270735
306106
35239.2
33399
289666
315472
39672.3
39170
299789
397642
354685
350915
385835
280938
35986
34708.1
267621
253828
44166.6
42661.3
240058
260421
42064.4
40501.6
245926
268981
37066.4
35428.7
253837
281658
34572.4
32824
265900
300906
34063.6
32288.4
284652
310101
38305.4
37908.7
294590
391269
349060
345335
379696
278366
35434.6
34164.6
265222
251464
43495.2
42034.2
237848
258084
41437.7
39923
243732
266654
36491.9
34902.9
251637
279305
33982.8
32276.8
263657
298485
33476.8
31734.2
282322
307595
37683.1
37339.5
292170
388301
346461
342758
376845
)
;

boundaryField
{
    interface
    {
        type            calculated;
        value           nonuniform List<scalar> 
192
(
749455
559152
575784
602336
630903
664322
653885
348883
650668
563306
570690
589232
616115
655783
685005
653848
583945
529221
538182
555331
581058
620653
655909
664474
536888
490268
500620
517543
542545
581215
616646
632377
509244
465207
476233
493232
517953
556034
590998
608338
492837
450007
461316
478387
502983
540693
575173
592957
483439
441261
452679
469784
494310
531789
565915
583848
479124
437242
448696
465812
490304
527670
561614
579603
780561
593805
610446
637117
665893
699869
693039
415702
735471
635377
639779
659073
687932
729597
760661
720738
728355
627803
631966
651215
680060
721689
752929
714733
759460
574073
590592
617313
646124
680031
673854
406061
726150
536512
553248
579920
608558
642148
633304
339949
622577
535780
542922
561081
587534
626898
657199
633452
556856
501921
510298
526863
551968
591022
627066
642761
511246
464082
473631
489825
514088
552087
588120
610851
484683
439924
450032
466198
490094
527417
562871
587135
468997
425339
435668
451841
475551
512440
547336
572011
460040
416976
427383
443554
467155
503772
538268
563082
455934
413142
423572
439737
463285
499769
534061
558929
415852
693049
700010
667360
643223
627798
618661
614401
720855
760918
730250
689728
663192
646734
637098
632629
714843
753238
722450
682033
655575
639172
629572
625121
406157
674046
680686
648530
624813
609709
600789
596638
)
;
    }
    symmetry
    {
        type            symmetry;
    }
    bottom
    {
        type            calculated;
        value           nonuniform List<scalar> 
32
(
723922
449158
388022
357191
339775
329310
323250
320452
504070
99264.1
53641
47646.1
45142.9
43424.5
42321.8
41787.3
500151
97078.2
51653.9
45823.3
43359.7
41671.2
40594.9
40075.8
706843
430777
371078
341802
325504
315781
310174
307590
)
;
    }
}


// ************************************************************************* //
