/*--------------------------------*- C++ -*----------------------------------*\
| =========                 |                                                 |
| \\      /  F ield         | OpenFOAM: The Open Source CFD Toolbox           |
|  \\    /   O peration     | Version:  v1912                                 |
|   \\  /    A nd           | Website:  www.openfoam.com                      |
|    \\/     M anipulation  |                                                 |
\*---------------------------------------------------------------------------*/
FoamFile
{
    version     2.0;
    format      ascii;
    class       volScalarField;
    location    "0.3/solid";
    object      T;
}
// * * * * * * * * * * * * * * * * * * * * * * * * * * * * * * * * * * * * * //

dimensions      [0 0 0 1 0 0 0];


internalField   nonuniform List<scalar> 
256
(
291.861
292.408
292.41
291.868
291.705
292.322
292.325
291.713
291.688
292.313
292.316
291.696
291.671
292.305
292.308
291.68
291.642
292.291
292.293
291.652
291.59
292.262
292.265
291.599
291.449
292.162
292.165
291.458
290.597
291.368
291.374
290.614
292.46
292.926
292.925
292.46
292.381
292.912
292.911
292.379
292.372
292.91
292.91
292.371
292.363
292.91
292.909
292.363
292.349
292.908
292.908
292.348
292.32
292.903
292.903
292.32
292.221
292.85
292.85
292.221
291.449
292.162
292.165
291.458
292.54
292.964
292.964
292.539
292.472
292.957
292.956
292.47
292.464
292.957
292.956
292.463
292.456
292.956
292.956
292.455
292.442
292.955
292.955
292.442
292.415
292.952
292.951
292.415
292.32
292.903
292.903
292.32
291.59
292.262
292.265
291.599
292.565
292.967
292.966
292.564
292.499
292.961
292.96
292.497
292.492
292.96
292.959
292.49
292.484
292.96
292.959
292.482
292.47
292.959
292.958
292.469
292.442
292.955
292.955
292.442
292.349
292.908
292.908
292.348
291.642
292.29
292.293
291.652
292.577
292.968
292.967
292.576
292.513
292.961
292.961
292.511
292.506
292.961
292.96
292.504
292.498
292.96
292.96
292.496
292.484
292.96
292.959
292.482
292.456
292.956
292.956
292.455
292.363
292.91
292.909
292.363
291.67
292.305
292.308
291.68
292.584
292.968
292.967
292.583
292.521
292.962
292.961
292.519
292.514
292.961
292.96
292.511
292.505
292.961
292.96
292.503
292.491
292.96
292.959
292.49
292.464
292.957
292.956
292.463
292.371
292.91
292.91
292.371
291.687
292.313
292.316
291.696
292.588
292.968
292.968
292.587
292.525
292.962
292.961
292.523
292.518
292.962
292.961
292.515
292.51
292.961
292.96
292.508
292.496
292.96
292.96
292.494
292.468
292.957
292.956
292.467
292.376
292.911
292.91
292.375
291.696
292.317
292.32
291.705
292.59
292.968
292.968
292.588
292.527
292.962
292.961
292.524
292.52
292.962
292.961
292.517
292.512
292.961
292.96
292.509
292.498
292.96
292.96
292.496
292.47
292.957
292.956
292.469
292.378
292.911
292.91
292.377
291.7
292.319
292.322
291.709
)
;

boundaryField
{
    interface
    {
        type            fixedValue;
        value           nonuniform List<scalar> 
192
(
290.104
289.992
289.945
289.881
289.779
289.61
289.286
288.346
290.892
290.826
290.788
290.734
290.648
290.499
290.2
289.285
291.169
291.111
291.076
291.025
290.941
290.795
290.499
289.609
291.309
291.253
291.219
291.168
291.085
290.94
290.646
289.777
291.389
291.335
291.301
291.25
291.167
291.022
290.731
289.876
291.437
291.383
291.349
291.298
291.215
291.071
290.782
289.938
291.464
291.411
291.377
291.326
291.243
291.099
290.812
289.973
291.477
291.423
291.389
291.338
291.255
291.112
290.825
289.99
289.989
289.877
289.83
289.765
289.663
289.493
289.164
288.213
290.639
290.569
290.531
290.477
290.39
290.242
289.937
288.993
290.659
290.591
290.554
290.5
290.414
290.266
289.961
289.02
290.057
289.949
289.904
289.841
289.74
289.57
289.242
288.298
290.182
290.073
290.029
289.966
289.865
289.696
289.368
288.429
290.966
290.902
290.866
290.814
290.73
290.582
290.282
289.368
291.242
291.186
291.153
291.104
291.022
290.878
290.582
289.696
291.381
291.327
291.295
291.246
291.165
291.022
290.73
289.865
291.46
291.407
291.375
291.326
291.246
291.104
290.814
289.966
291.507
291.454
291.423
291.374
291.293
291.152
290.865
290.027
291.534
291.482
291.45
291.401
291.32
291.179
290.894
290.063
291.546
291.494
291.462
291.413
291.333
291.192
290.907
290.08
288.213
289.163
289.491
289.66
289.76
289.822
289.858
289.875
288.993
289.936
290.241
290.389
290.474
290.525
290.555
290.569
289.02
289.961
290.265
290.413
290.498
290.549
290.579
290.593
288.298
289.241
289.57
289.739
289.84
289.901
289.937
289.954
)
;
    }
    symmetry
    {
        type            symmetry;
    }
    bottom
    {
        type            fixedValue;
        value           uniform 293;
    }
}


// ************************************************************************* //
