/*--------------------------------*- C++ -*----------------------------------*\
| =========                 |                                                 |
| \\      /  F ield         | OpenFOAM: The Open Source CFD Toolbox           |
|  \\    /   O peration     | Version:  v1912                                 |
|   \\  /    A nd           | Website:  www.openfoam.com                      |
|    \\/     M anipulation  |                                                 |
\*---------------------------------------------------------------------------*/
FoamFile
{
    version     2.0;
    format      ascii;
    class       volVectorField;
    location    "0.3/solid";
    object      U;
}
// * * * * * * * * * * * * * * * * * * * * * * * * * * * * * * * * * * * * * //

dimensions      [0 1 -1 0 0 0 0];


internalField   nonuniform List<vector> 
256
(
(4.97353e-08 4.53116e-08 5.44219e-08)
(9.30537e-09 2.27034e-08 4.43864e-08)
(-1.00183e-08 2.23199e-08 4.40772e-08)
(-4.88809e-08 4.36141e-08 5.33653e-08)
(8.07719e-08 2.51225e-08 1.12045e-07)
(1.88751e-08 1.06994e-08 9.91866e-08)
(-1.98223e-08 1.04089e-08 9.86628e-08)
(-7.96902e-08 2.42333e-08 1.10326e-07)
(8.31051e-08 -8.78495e-09 1.49764e-07)
(1.98554e-08 -1.40289e-08 1.36869e-07)
(-2.10527e-08 -1.41066e-08 1.36258e-07)
(-8.22975e-08 -8.90389e-09 1.47773e-07)
(7.9381e-08 -4.28424e-08 1.82922e-07)
(1.7856e-08 -4.60692e-08 1.6898e-07)
(-1.95712e-08 -4.59334e-08 1.68312e-07)
(-7.90959e-08 -4.23357e-08 1.80752e-07)
(7.87214e-08 -7.86918e-08 2.17296e-07)
(1.69077e-08 -8.51287e-08 2.01457e-07)
(-1.93961e-08 -8.4805e-08 2.00745e-07)
(-7.91944e-08 -7.76469e-08 2.14989e-07)
(8.84053e-08 -1.20669e-07 2.56935e-07)
(2.02937e-08 -1.31916e-07 2.38889e-07)
(-2.37945e-08 -1.31433e-07 2.38139e-07)
(-8.98742e-08 -1.19158e-07 2.54525e-07)
(1.1812e-07 -1.82779e-07 3.05916e-07)
(3.06616e-08 -1.90718e-07 2.86631e-07)
(-3.54621e-08 -1.901e-07 2.8583e-07)
(-1.20784e-07 -1.80862e-07 3.03397e-07)
(1.65311e-07 -2.96606e-07 3.5719e-07)
(4.22122e-08 -2.79045e-07 3.39735e-07)
(-4.8774e-08 -2.78107e-07 3.38834e-07)
(-1.69303e-07 -2.93764e-07 3.54469e-07)
(2.33842e-08 1.16135e-08 1.72483e-08)
(3.91526e-09 -3.17411e-09 2.14721e-08)
(-4.18421e-09 -3.34018e-09 2.13609e-08)
(-2.24182e-08 1.04922e-08 1.68857e-08)
(3.94414e-08 -9.70139e-09 5.77463e-08)
(8.86237e-09 -1.96773e-08 6.56943e-08)
(-8.93618e-09 -1.98331e-08 6.54028e-08)
(-3.79884e-08 -1.02838e-08 5.68671e-08)
(3.96597e-08 -3.83183e-08 9.40612e-08)
(9.01904e-09 -4.21501e-08 1.03196e-07)
(-9.10621e-09 -4.21708e-08 1.02811e-07)
(-3.82768e-08 -3.83352e-08 9.29041e-08)
(3.58136e-08 -6.96345e-08 1.26731e-07)
(7.1692e-09 -7.23528e-08 1.35821e-07)
(-7.61401e-09 -7.21983e-08 1.35383e-07)
(-3.4799e-08 -6.91169e-08 1.25403e-07)
(3.45522e-08 -1.03851e-07 1.59264e-07)
(6.26932e-09 -1.0988e-07 1.67842e-07)
(-7.37061e-09 -1.09557e-07 1.67364e-07)
(-3.41707e-08 -1.02841e-07 1.578e-07)
(4.29722e-08 -1.41802e-07 1.93785e-07)
(9.44992e-09 -1.52739e-07 2.01824e-07)
(-1.14752e-08 -1.52269e-07 2.01307e-07)
(-4.3476e-08 -1.40355e-07 1.92195e-07)
(7.1217e-08 -1.89393e-07 2.27203e-07)
(1.944e-08 -1.97072e-07 2.35065e-07)
(-2.26882e-08 -1.96487e-07 2.34504e-07)
(-7.28028e-08 -1.87581e-07 2.25481e-07)
(1.18058e-07 -2.67961e-07 2.4333e-07)
(3.05962e-08 -2.48596e-07 2.51463e-07)
(-3.55203e-08 -2.47756e-07 2.50866e-07)
(-1.20837e-07 -2.65317e-07 2.415e-07)
(7.938e-09 7.57675e-10 9.41516e-09)
(-6.831e-10 -8.9448e-09 1.52356e-08)
(5.56789e-10 -9.07415e-09 1.51506e-08)
(-6.91063e-09 -3.0205e-10 9.16375e-09)
(1.30219e-08 -2.65283e-08 3.93201e-08)
(-1.18978e-10 -3.29057e-08 4.96924e-08)
(4.32186e-10 -3.30264e-08 4.94718e-08)
(-1.13153e-08 -2.70722e-08 3.86904e-08)
(1.14194e-08 -5.59129e-08 7.14639e-08)
(-8.63635e-10 -5.84941e-08 8.30564e-08)
(1.36644e-09 -5.85038e-08 8.27496e-08)
(-9.5953e-09 -5.5951e-08 7.05828e-08)
(7.87921e-09 -8.53006e-08 1.02285e-07)
(-2.56946e-09 -8.78371e-08 1.13958e-07)
(2.87823e-09 -8.76924e-08 1.13597e-07)
(-6.26539e-09 -8.48494e-08 1.01232e-07)
(6.80931e-09 -1.15125e-07 1.31831e-07)
(-3.37155e-09 -1.21207e-07 1.43301e-07)
(3.15482e-09 -1.20906e-07 1.42899e-07)
(-5.69581e-09 -1.14207e-07 1.30643e-07)
(1.50605e-08 -1.4475e-07 1.59263e-07)
(-3.35144e-10 -1.55705e-07 1.70559e-07)
(-6.98391e-10 -1.55266e-07 1.70121e-07)
(-1.47136e-08 -1.43413e-07 1.57953e-07)
(4.26953e-08 -1.78705e-07 1.79226e-07)
(9.28396e-09 -1.86556e-07 1.90525e-07)
(-1.14516e-08 -1.86014e-07 1.90053e-07)
(-4.33178e-08 -1.77019e-07 1.77805e-07)
(8.80763e-08 -2.41647e-07 1.81158e-07)
(2.00544e-08 -2.23527e-07 1.92784e-07)
(-2.38317e-08 -2.22731e-07 1.92294e-07)
(-8.97885e-08 -2.39093e-07 1.79664e-07)
(2.51433e-09 -2.60012e-09 8.278e-09)
(-2.30552e-09 -9.72666e-09 1.17868e-08)
(2.23181e-09 -9.86042e-09 1.17237e-08)
(-1.43812e-09 -3.69368e-09 8.0977e-09)
(3.10845e-09 -3.27015e-08 3.18174e-08)
(-3.65571e-09 -3.71803e-08 3.80804e-08)
(4.15715e-09 -3.7312e-08 3.79208e-08)
(-1.22551e-09 -3.3309e-08 3.13709e-08)
(7.22521e-10 -6.33424e-08 5.82181e-08)
(-4.82126e-09 -6.52697e-08 6.51729e-08)
(5.66189e-09 -6.52968e-08 6.49459e-08)
(1.42069e-09 -6.34616e-08 5.75765e-08)
(-2.2948e-09 -9.13633e-08 8.44441e-08)
(-6.31966e-09 -9.39181e-08 9.13561e-08)
(7.10813e-09 -9.37976e-08 9.10811e-08)
(4.36502e-09 -9.10071e-08 8.36537e-08)
(-2.68484e-09 -1.17025e-07 1.08781e-07)
(-6.86534e-09 -1.23292e-07 1.15465e-07)
(7.25292e-09 -1.2302e-07 1.15153e-07)
(4.37836e-09 -1.1621e-07 1.07869e-07)
(6.005e-09 -1.40151e-07 1.28936e-07)
(-3.74408e-09 -1.51256e-07 1.35429e-07)
(3.42079e-09 -1.5085e-07 1.35085e-07)
(-4.96782e-09 -1.38923e-07 1.27918e-07)
(3.33658e-08 -1.67108e-07 1.40674e-07)
(5.66123e-09 -1.75438e-07 1.47154e-07)
(-7.03366e-09 -1.74928e-07 1.46783e-07)
(-3.31998e-08 -1.65525e-07 1.39566e-07)
(7.74103e-08 -2.24972e-07 1.39267e-07)
(1.61571e-08 -2.08969e-07 1.46179e-07)
(-1.90821e-08 -2.08197e-07 1.45797e-07)
(-7.82522e-08 -2.22478e-07 1.38106e-07)
(1.24217e-09 -3.71499e-09 7.26353e-09)
(-2.44597e-09 -9.75113e-09 8.90278e-09)
(2.39861e-09 -9.89204e-09 8.85914e-09)
(-1.32922e-10 -4.84008e-09 7.14168e-09)
(9.2565e-10 -3.41873e-08 2.56048e-08)
(-4.12573e-09 -3.79352e-08 2.84272e-08)
(4.73415e-09 -3.80863e-08 2.83173e-08)
(1.07054e-09 -3.48663e-08 2.53023e-08)
(-1.38666e-09 -6.48685e-08 4.58989e-08)
(-5.28599e-09 -6.66225e-08 4.89312e-08)
(6.33612e-09 -6.66742e-08 4.87729e-08)
(3.74157e-09 -6.50754e-08 4.54571e-08)
(-3.84995e-09 -9.16513e-08 6.61484e-08)
(-6.55656e-09 -9.43434e-08 6.90388e-08)
(7.66348e-09 -9.42499e-08 6.88431e-08)
(6.23744e-09 -9.13888e-08 6.5592e-08)
(-3.5769e-09 -1.14548e-07 8.44304e-08)
(-6.84157e-09 -1.21015e-07 8.70924e-08)
(7.65074e-09 -1.20772e-07 8.68658e-08)
(5.6895e-09 -1.13828e-07 8.37753e-08)
(5.55265e-09 -1.34222e-07 9.84848e-08)
(-3.58706e-09 -1.45485e-07 1.00971e-07)
(3.77581e-09 -1.45107e-07 1.00718e-07)
(-4.00403e-09 -1.33088e-07 9.77435e-08)
(3.26948e-08 -1.58552e-07 1.0566e-07)
(5.69276e-09 -1.67309e-07 1.0814e-07)
(-6.48004e-09 -1.66824e-07 1.07867e-07)
(-3.19367e-08 -1.57057e-07 1.04849e-07)
(7.57924e-08 -2.14556e-07 1.04085e-07)
(1.60246e-08 -2.00235e-07 1.06932e-07)
(-1.83122e-08 -1.99484e-07 1.06652e-07)
(-7.5975e-08 -2.12126e-07 1.0324e-07)
(1.1291e-09 -4.03361e-09 5.64362e-09)
(-2.243e-09 -9.64895e-09 6.33636e-09)
(2.20963e-09 -9.79508e-09 6.3085e-09)
(5.07926e-13 -5.1803e-09 5.56705e-09)
(1.03493e-09 -3.39295e-08 1.88772e-08)
(-3.75227e-09 -3.74952e-08 1.99596e-08)
(4.42315e-09 -3.76622e-08 1.98891e-08)
(1.0307e-09 -3.46625e-08 1.86853e-08)
(-8.8788e-10 -6.39194e-08 3.31498e-08)
(-4.74685e-09 -6.57287e-08 3.4208e-08)
(5.92591e-09 -6.58016e-08 3.41053e-08)
(3.37622e-09 -6.41967e-08 3.2866e-08)
(-2.87999e-09 -8.96222e-08 4.72429e-08)
(-5.82016e-09 -9.24804e-08 4.81433e-08)
(7.13193e-09 -9.241e-08 4.80145e-08)
(5.47464e-09 -8.94358e-08 4.68797e-08)
(-2.13894e-09 -1.11e-07 5.96996e-08)
(-5.91702e-09 -1.17627e-07 6.04235e-08)
(7.007e-09 -1.17407e-07 6.02721e-08)
(4.53373e-09 -1.10356e-07 5.92652e-08)
(7.2632e-09 -1.29241e-07 6.88962e-08)
(-2.56952e-09 -1.40611e-07 6.95006e-08)
(3.108e-09 -1.40257e-07 6.93298e-08)
(-5.36239e-09 -1.28183e-07 6.83985e-08)
(3.42148e-08 -1.52807e-07 7.33198e-08)
(6.62855e-09 -1.61815e-07 7.39367e-08)
(-7.00848e-09 -1.61353e-07 7.37517e-08)
(-3.30426e-08 -1.51385e-07 7.27719e-08)
(7.66824e-08 -2.07921e-07 7.22035e-08)
(1.68619e-08 -1.94606e-07 7.30713e-08)
(-1.86971e-08 -1.93875e-07 7.28835e-08)
(-7.63973e-08 -2.05552e-07 7.1636e-08)
(1.19657e-09 -4.06259e-09 3.55925e-09)
(-2.07726e-09 -9.51565e-09 3.83682e-09)
(2.05069e-09 -9.66512e-09 3.82152e-09)
(-5.54923e-11 -5.22278e-09 3.51765e-09)
(1.41439e-09 -3.32692e-08 1.15622e-08)
(-3.40203e-09 -3.68319e-08 1.19382e-08)
(4.107e-09 -3.70094e-08 1.18992e-08)
(6.90789e-10 -3.40366e-08 1.14568e-08)
(-1.68525e-10 -6.25067e-08 2.00121e-08)
(-4.24755e-09 -6.44177e-08 2.03182e-08)
(5.50021e-09 -6.45051e-08 2.02608e-08)
(2.73457e-09 -6.28307e-08 1.98547e-08)
(-1.83799e-09 -8.74326e-08 2.82537e-08)
(-5.18521e-09 -9.04223e-08 2.84474e-08)
(6.6177e-09 -9.0368e-08 2.83747e-08)
(4.55625e-09 -8.72981e-08 2.805e-08)
(-8.20497e-10 -1.08068e-07 3.54363e-08)
(-5.16986e-09 -1.148e-07 3.55243e-08)
(6.42956e-09 -1.14597e-07 3.5438e-08)
(3.38738e-09 -1.07478e-07 3.51898e-08)
(8.71794e-09 -1.25821e-07 4.0639e-08)
(-1.77329e-09 -1.37245e-07 4.06641e-08)
(2.52738e-09 -1.36907e-07 4.05659e-08)
(-6.59852e-09 -1.24815e-07 4.0354e-08)
(3.55299e-08 -1.4924e-07 4.30888e-08)
(7.37313e-09 -1.5836e-07 4.31317e-08)
(-7.4976e-09 -1.57915e-07 4.30251e-08)
(-3.40968e-08 -1.47871e-07 4.27738e-08)
(7.7606e-08 -2.039e-07 4.24562e-08)
(1.7546e-08 -1.91087e-07 4.26405e-08)
(-1.90924e-08 -1.90371e-07 4.25331e-08)
(-7.7022e-08 -2.01578e-07 4.21314e-08)
(1.23747e-09 -4.03064e-09 1.21409e-09)
(-2.00152e-09 -9.42452e-09 1.28937e-09)
(1.97761e-09 -9.57565e-09 1.28451e-09)
(-9.12243e-11 -5.19739e-09 1.20095e-09)
(1.61283e-09 -3.28186e-08 3.89206e-09)
(-3.23575e-09 -3.64025e-08 3.98343e-09)
(3.95566e-09 -3.65851e-08 3.97097e-09)
(5.10312e-10 -3.36027e-08 3.85857e-09)
(2.03062e-10 -6.16115e-08 6.68745e-09)
(-4.00499e-09 -6.35861e-08 6.74846e-09)
(5.29102e-09 -6.36809e-08 6.73006e-09)
(2.39883e-09 -6.19586e-08 6.63712e-09)
(-1.30825e-09 -8.61394e-08 9.39374e-09)
(-4.87611e-09 -8.91983e-08 9.4152e-09)
(6.36449e-09 -8.91523e-08 9.39175e-09)
(4.08435e-09 -8.60312e-08 9.32822e-09)
(-1.65181e-10 -1.06477e-07 1.1736e-08)
(-4.80955e-09 -1.13258e-07 1.17228e-08)
(6.1491e-09 -1.13064e-07 1.16948e-08)
(2.81366e-09 -1.05915e-07 1.16563e-08)
(9.42742e-09 -1.24095e-07 1.34203e-08)
(-1.3928e-09 -1.3554e-07 1.33881e-08)
(2.24969e-09 -1.35211e-07 1.33561e-08)
(-7.20314e-09 -1.23117e-07 1.33276e-08)
(3.61666e-08 -1.47515e-07 1.42087e-08)
(7.72851e-09 -1.56672e-07 1.41844e-08)
(-7.72965e-09 -1.56236e-07 1.41496e-08)
(-3.4607e-08 -1.46175e-07 1.4106e-08)
(7.8053e-08 -2.01985e-07 1.40055e-08)
(1.78714e-08 -1.89369e-07 1.40265e-08)
(-1.92765e-08 -1.88662e-07 1.39916e-08)
(-7.73226e-08 -1.99689e-07 1.38999e-08)
)
;

boundaryField
{
    interface
    {
        type            calculated;
        value           nonuniform List<vector> 
192
(
(4.36633e-08 7.79384e-08 4.7313e-08)
(7.05336e-08 3.34648e-08 1.00413e-07)
(7.30838e-08 -9.13276e-09 1.37433e-07)
(7.00715e-08 -4.39384e-08 1.70725e-07)
(6.95792e-08 -7.64358e-08 2.05214e-07)
(7.79844e-08 -1.1082e-07 2.44799e-07)
(1.03806e-07 -1.63552e-07 2.93497e-07)
(1.64567e-07 -2.83803e-07 3.44349e-07)
(4.00159e-09 2.73199e-08 6.79945e-09)
(1.72313e-08 -5.63261e-09 4.08093e-08)
(1.69872e-08 -3.92254e-08 7.61402e-08)
(1.29599e-08 -7.09114e-08 1.08856e-07)
(1.10634e-08 -1.02062e-07 1.41286e-07)
(1.75045e-08 -1.32636e-07 1.75449e-07)
(4.13724e-08 -1.70622e-07 2.08347e-07)
(1.03804e-07 -2.55575e-07 2.24021e-07)
(-1.11925e-08 5.99761e-09 4.19815e-09)
(-6.68842e-09 -2.56581e-08 3.02373e-08)
(-8.59385e-09 -5.71987e-08 6.17299e-08)
(-1.23502e-08 -8.64532e-08 9.2758e-08)
(-1.3901e-08 -1.1333e-07 1.22522e-07)
(-7.0974e-09 -1.35778e-07 1.50021e-07)
(1.72841e-08 -1.60451e-07 1.69763e-07)
(7.78068e-08 -2.29541e-07 1.70996e-07)
(-1.66578e-08 -1.19445e-09 6.60435e-09)
(-1.58161e-08 -3.31496e-08 2.87936e-08)
(-1.83589e-08 -6.46933e-08 5.50168e-08)
(-2.1526e-08 -9.22153e-08 8.1512e-08)
(-2.2254e-08 -1.1495e-07 1.06185e-07)
(-1.47024e-08 -1.31138e-07 1.26559e-07)
(9.98339e-09 -1.49257e-07 1.38174e-07)
(6.85746e-08 -2.12958e-07 1.36196e-07)
(-1.81468e-08 -3.17305e-09 6.91746e-09)
(-1.80036e-08 -3.48446e-08 2.50867e-08)
(-2.03818e-08 -6.60625e-08 4.54965e-08)
(-2.29072e-08 -9.2199e-08 6.60023e-08)
(-2.28536e-08 -1.12198e-07 8.45671e-08)
(-1.46895e-08 -1.25154e-07 9.87995e-08)
(1.00363e-08 -1.40992e-07 1.05872e-07)
(6.71154e-08 -2.02578e-07 1.03903e-07)
(-1.83766e-08 -3.49262e-09 5.63238e-09)
(-1.79588e-08 -3.44339e-08 1.89995e-08)
(-1.98934e-08 -6.48983e-08 3.34544e-08)
(-2.18752e-08 -8.99351e-08 4.7746e-08)
(-2.12689e-08 -1.08464e-07 6.03888e-08)
(-1.27401e-08 -1.20153e-07 6.96876e-08)
(1.19026e-08 -1.35452e-07 7.40286e-08)
(6.79347e-08 -1.95986e-07 7.26569e-08)
(-1.83508e-08 -3.40987e-09 3.58644e-09)
(-1.76051e-08 -3.36106e-08 1.17067e-08)
(-1.91683e-08 -6.332e-08 2.02849e-08)
(-2.07803e-08 -8.75957e-08 2.86467e-08)
(-1.98463e-08 -1.05429e-07 3.59298e-08)
(-1.11365e-08 -1.16733e-07 4.11801e-08)
(1.34069e-08 -1.32018e-07 4.35768e-08)
(6.87857e-08 -1.92011e-07 4.27989e-08)
(-1.83205e-08 -3.31808e-09 1.22434e-09)
(-1.74115e-08 -3.30773e-08 3.94171e-09)
(-1.87871e-08 -6.2342e-08 6.78037e-09)
(-2.02184e-08 -8.62316e-08 9.5262e-09)
(-1.91355e-08 -1.03793e-07 1.18998e-08)
(-1.03539e-08 -1.15012e-07 1.35977e-08)
(1.41293e-08 -1.30359e-07 1.43679e-08)
(6.91932e-08 -1.90126e-07 1.41173e-08)
(5.07792e-08 8.69285e-08 4.02733e-08)
(8.33715e-08 4.89582e-08 9.29054e-08)
(8.60456e-08 8.93468e-09 1.30962e-07)
(8.19927e-08 -2.59593e-08 1.65266e-07)
(8.08015e-08 -6.01886e-08 2.00177e-07)
(8.99605e-08 -9.8514e-08 2.38546e-07)
(1.19507e-07 -1.57715e-07 2.83128e-07)
(1.67367e-07 -2.84289e-07 3.46688e-07)
(6.71754e-09 5.85969e-08 2.01006e-08)
(1.55277e-08 3.38203e-08 6.91957e-08)
(1.64773e-08 3.41959e-09 1.05752e-07)
(1.4202e-08 -2.99221e-08 1.3774e-07)
(1.27686e-08 -6.76515e-08 1.69553e-07)
(1.55933e-08 -1.10622e-07 2.04415e-07)
(2.56388e-08 -1.65506e-07 2.46666e-07)
(3.76224e-08 -2.66418e-07 3.15471e-07)
(-7.77543e-09 5.80051e-08 1.9253e-08)
(-1.70396e-08 3.34543e-08 6.82518e-08)
(-1.83283e-08 3.30597e-09 1.04686e-07)
(-1.66296e-08 -2.98115e-08 1.36581e-07)
(-1.60147e-08 -6.73484e-08 1.6832e-07)
(-1.9887e-08 -1.10161e-07 2.03106e-07)
(-3.12719e-08 -1.64927e-07 2.45255e-07)
(-4.50916e-08 -2.65498e-07 3.13845e-07)
(-5.0199e-08 8.4537e-08 3.75078e-08)
(-8.2757e-08 4.78355e-08 8.98413e-08)
(-8.57993e-08 8.70298e-09 1.27502e-07)
(-8.23352e-08 -2.55318e-08 1.61521e-07)
(-8.19535e-08 -5.92038e-08 1.96217e-07)
(-9.21481e-08 -9.70559e-08 2.34411e-07)
(-1.22928e-07 -1.55877e-07 2.78822e-07)
(-1.72171e-07 -2.81482e-07 3.42076e-07)
(-3.67234e-08 7.5757e-08 4.60892e-08)
(-6.33077e-08 3.25877e-08 9.83651e-08)
(-6.59958e-08 -9.05218e-09 1.35015e-07)
(-6.33746e-08 -4.31113e-08 1.68057e-07)
(-6.35133e-08 -7.49521e-08 2.02352e-07)
(-7.27459e-08 -1.0876e-07 2.41787e-07)
(-9.94004e-08 -1.61005e-07 2.90329e-07)
(-1.59919e-07 -2.80199e-07 3.40917e-07)
(1.85967e-09 2.5594e-08 6.39237e-09)
(-1.10188e-08 -6.31893e-09 3.97722e-08)
(-1.07534e-08 -3.91323e-08 7.47274e-08)
(-6.98162e-09 -7.01432e-08 1.07194e-07)
(-5.5951e-09 -1.00671e-07 1.39425e-07)
(-1.27515e-08 -1.30697e-07 1.73404e-07)
(-3.7361e-08 -1.6824e-07 2.06113e-07)
(-9.94519e-08 -2.5223e-07 2.21621e-07)
(1.67832e-08 4.25445e-09 3.91795e-09)
(1.27978e-08 -2.64008e-08 2.94986e-08)
(1.49008e-08 -5.72133e-08 6.06574e-08)
(1.85607e-08 -8.5824e-08 9.14403e-08)
(1.97541e-08 -1.12095e-07 1.21005e-07)
(1.23938e-08 -1.34007e-07 1.48326e-07)
(-1.25686e-08 -1.58249e-07 1.67903e-07)
(-7.26692e-08 -2.26327e-07 1.69017e-07)
(2.21447e-08 -3.02776e-09 6.40274e-09)
(2.19329e-08 -3.40236e-08 2.82738e-08)
(2.48092e-08 -6.4859e-08 5.42416e-08)
(2.80213e-08 -9.17462e-08 8.05275e-08)
(2.85345e-08 -1.13876e-07 1.05022e-07)
(2.05714e-08 -1.29528e-07 1.2524e-07)
(-4.55248e-09 -1.47203e-07 1.36721e-07)
(-6.2634e-08 -2.09838e-07 1.34653e-07)
(2.3593e-08 -5.07447e-09 6.78163e-09)
(2.41523e-08 -3.58348e-08 2.47378e-08)
(2.69606e-08 -6.63669e-08 4.49678e-08)
(2.96417e-08 -9.18755e-08 6.53142e-08)
(2.94893e-08 -1.11267e-07 8.37361e-08)
(2.10306e-08 -1.2368e-07 9.78418e-08)
(-4.02217e-09 -1.39063e-07 1.04809e-07)
(-6.05165e-08 -1.9955e-07 1.02776e-07)
(2.3813e-08 -5.43808e-09 5.54744e-09)
(2.41441e-08 -3.55063e-08 1.87799e-08)
(2.65736e-08 -6.53074e-08 3.31175e-08)
(2.87897e-08 -8.97248e-08 4.72998e-08)
(2.81697e-08 -1.07647e-07 5.98405e-08)
(1.94319e-08 -1.18788e-07 6.9047e-08)
(-5.45673e-09 -1.33625e-07 7.33119e-08)
(-6.08457e-08 -1.93043e-07 7.18977e-08)
(2.37898e-08 -5.38158e-09 3.54044e-09)
(2.38203e-08 -3.4734e-08 1.15867e-08)
(2.5918e-08 -6.37968e-08 2.00989e-08)
(2.78137e-08 -8.74609e-08 2.83974e-08)
(2.69209e-08 -1.04689e-07 3.56197e-08)
(1.80578e-08 -1.15443e-07 4.08141e-08)
(-6.6782e-09 -1.30264e-07 4.31649e-08)
(-6.13732e-08 -1.89134e-07 4.23627e-08)
(2.37634e-08 -5.30213e-09 1.20983e-09)
(2.36433e-08 -3.4225e-08 3.90363e-09)
(2.55719e-08 -6.28519e-08 6.72101e-09)
(2.73106e-08 -8.61345e-08 9.44615e-09)
(2.62957e-08 -1.03092e-07 1.17996e-08)
(1.73884e-08 -1.13761e-07 1.34787e-08)
(-7.26057e-09 -1.28644e-07 1.42336e-08)
(-6.16195e-08 -1.87285e-07 1.3975e-08)
(1.67321e-07 -2.86179e-07 3.56187e-07)
(1.19409e-07 -2.4528e-07 2.2959e-07)
(8.95984e-08 -2.23451e-07 1.7041e-07)
(7.94154e-08 -2.08261e-07 1.32494e-07)
(7.82e-08 -1.97789e-07 9.98222e-08)
(7.93204e-08 -1.90826e-07 6.95394e-08)
(8.03461e-08 -1.86548e-07 4.0972e-08)
(8.08274e-08 -1.84506e-07 1.35267e-08)
(3.75867e-08 -2.54852e-07 3.38437e-07)
(2.55439e-08 -2.08748e-07 2.37583e-07)
(1.53242e-08 -1.89274e-07 1.82877e-07)
(1.19622e-08 -1.77483e-07 1.40356e-07)
(1.22552e-08 -1.69694e-07 1.03341e-07)
(1.33489e-08 -1.64336e-07 7.07844e-08)
(1.41624e-08 -1.6086e-07 4.13313e-08)
(1.45393e-08 -1.59134e-07 1.35972e-08)
(-4.50949e-08 -2.53173e-07 3.37551e-07)
(-3.13414e-08 -2.07271e-07 2.37022e-07)
(-1.99414e-08 -1.87875e-07 1.82404e-07)
(-1.57062e-08 -1.76125e-07 1.39985e-07)
(-1.53409e-08 -1.68362e-07 1.03072e-07)
(-1.59623e-08 -1.63022e-07 7.06054e-08)
(-1.64712e-08 -1.59558e-07 4.12299e-08)
(-1.66982e-08 -1.57839e-07 1.35644e-08)
(-1.72172e-07 -2.81395e-07 3.53498e-07)
(-1.22991e-07 -2.4077e-07 2.27832e-07)
(-9.20823e-08 -2.19049e-07 1.68954e-07)
(-8.10035e-08 -2.03933e-07 1.31365e-07)
(-7.91038e-08 -1.93519e-07 9.90079e-08)
(-7.97341e-08 -1.86604e-07 6.8999e-08)
(-8.0444e-08 -1.82363e-07 4.06657e-08)
(-8.07697e-08 -1.80341e-07 1.34277e-08)
)
;
    }
    symmetry
    {
        type            symmetry;
    }
    bottom
    {
        type            calculated;
        value           uniform (0 0 0);
    }
}


// ************************************************************************* //
