/*--------------------------------*- C++ -*----------------------------------*\
| =========                 |                                                 |
| \\      /  F ield         | OpenFOAM: The Open Source CFD Toolbox           |
|  \\    /   O peration     | Version:  v1912                                 |
|   \\  /    A nd           | Website:  www.openfoam.com                      |
|    \\/     M anipulation  |                                                 |
\*---------------------------------------------------------------------------*/
FoamFile
{
    version     2.0;
    format      ascii;
    class       surfaceScalarField;
    location    "0.24/fluid";
    object      meshPhi;
}
// * * * * * * * * * * * * * * * * * * * * * * * * * * * * * * * * * * * * * //

dimensions      [0 3 -1 0 0 0 0];
oriented        oriented;


internalField   nonuniform List<scalar> 
41600
(
2.39226e-13
-8.20362e-13
3.0087e-13
-3.10067e-13
4.53318e-13
-2.3911e-12
8.85888e-13
-9.1342e-13
6.47714e-13
-3.85322e-12
1.45709e-12
-1.50374e-12
8.2699e-13
-5.262e-12
2.05137e-12
-2.11957e-12
9.95242e-13
-6.65552e-12
2.701e-12
-2.79467e-12
1.15631e-12
-8.05137e-12
3.43416e-12
-3.55885e-12
1.31413e-12
-9.44541e-12
4.27616e-12
-4.43944e-12
1.47375e-12
-1.08086e-11
5.25045e-12
-5.46264e-12
1.64413e-12
-1.20749e-11
6.3781e-12
-6.65355e-12
1.84529e-12
-1.31171e-11
7.67561e-12
-8.03577e-12
2.12532e-12
-1.37003e-11
9.15344e-12
-9.63288e-12
2.60449e-12
-1.33849e-11
1.0819e-11
-1.14805e-11
3.5527e-12
-1.13253e-11
1.26945e-11
-1.36688e-11
5.49751e-12
-5.92508e-12
1.48522e-11
-1.64396e-11
8.85178e-12
4.68585e-12
1.73123e-11
-2.00781e-11
2.40938e-11
2.2272e-11
-3.05656e-11
7.14693e-13
-1.61743e-12
8.95501e-13
-9.23051e-13
1.35441e-12
-4.71572e-12
2.63675e-12
-2.71923e-12
1.93564e-12
-7.60264e-12
4.33667e-12
-4.47627e-12
2.47242e-12
-1.03864e-11
6.10408e-12
-6.30775e-12
2.97724e-12
-1.31427e-11
8.03405e-12
-8.31318e-12
3.46181e-12
-1.59122e-11
1.02106e-11
-1.05815e-11
3.93798e-12
-1.8697e-11
1.27098e-11
-1.31949e-11
4.42024e-12
-2.14538e-11
1.56016e-11
-1.62313e-11
4.93227e-12
-2.40752e-11
1.89476e-11
-1.97638e-11
5.52274e-12
-2.63561e-11
2.27932e-11
-2.38568e-11
6.30519e-12
-2.79398e-11
2.71578e-11
-2.85637e-11
7.55288e-12
-2.82326e-11
3.2028e-11
-3.39386e-11
9.84212e-12
-2.63277e-11
3.73667e-11
-4.00927e-11
1.41996e-11
-2.11201e-11
4.3132e-11
-4.73063e-11
2.1162e-11
-1.25218e-11
4.9046e-11
-5.565e-11
-2.55451e-12
5.44533e-11
-6.6833e-11
1.18142e-12
-2.36652e-12
1.46907e-12
-1.51459e-12
2.23935e-12
-6.90199e-12
4.32543e-12
-4.46165e-12
3.20185e-12
-1.11334e-11
7.11282e-12
-7.34302e-12
4.09299e-12
-1.52204e-11
1.00075e-11
-1.03425e-11
4.93442e-12
-1.92786e-11
1.31634e-11
-1.36213e-11
5.74659e-12
-2.33788e-11
1.67185e-11
-1.73257e-11
6.55002e-12
-2.75433e-11
2.0799e-11
-2.15919e-11
7.36822e-12
-3.17367e-11
2.55212e-11
-2.65487e-11
8.23403e-12
-3.58473e-11
3.09856e-11
-3.23143e-11
9.20338e-12
-3.96565e-11
3.72632e-11
-3.89866e-11
1.03966e-11
-4.27935e-11
4.43719e-11
-4.66271e-11
1.20809e-11
-4.46868e-11
5.22412e-11
-5.52444e-11
1.47709e-11
-4.45875e-11
6.06705e-11
-6.47887e-11
1.92921e-11
-4.18522e-11
6.92678e-11
-7.51374e-11
2.58148e-11
-3.69198e-11
7.72209e-11
-8.55738e-11
-3.1165e-11
8.41744e-11
-9.85269e-11
1.63353e-12
-3.04181e-12
2.0082e-12
-2.0707e-12
3.09726e-12
-8.87448e-12
5.91202e-12
-6.09889e-12
4.43127e-12
-1.43243e-11
9.71845e-12
-1.00337e-11
5.67037e-12
-1.96013e-11
1.3665e-11
-1.41229e-11
6.84654e-12
-2.48627e-11
1.79593e-11
-1.85841e-11
7.99064e-12
-3.02159e-11
2.27894e-11
-2.36166e-11
9.1342e-12
-3.5716e-11
2.83297e-11
-2.9408e-11
1.03121e-11
-4.13582e-11
3.47416e-11
-3.61366e-11
1.15657e-11
-4.70628e-11
4.21667e-11
-4.39662e-11
1.29497e-11
-5.26516e-11
5.07084e-11
-5.30316e-11
1.45563e-11
-5.78096e-11
6.03956e-11
-6.3409e-11
1.65529e-11
-6.20397e-11
7.11235e-11
-7.5071e-11
1.92101e-11
-6.46575e-11
8.25593e-11
-8.78153e-11
2.29372e-11
-6.49374e-11
9.3999e-11
-1.01148e-10
2.77406e-11
-6.27563e-11
1.04119e-10
-1.13734e-10
-5.8474e-11
1.11903e-10
-1.27252e-10
2.0645e-12
-3.61818e-12
2.50072e-12
-2.57871e-12
3.91569e-12
-1.05598e-11
7.36015e-12
-7.59312e-12
5.60574e-12
-1.70569e-11
1.20923e-11
-1.24848e-11
7.18072e-12
-2.33671e-11
1.69882e-11
-1.75574e-11
8.68399e-12
-2.96894e-11
2.23023e-11
-2.30776e-11
1.01588e-11
-3.61711e-11
2.82665e-11
-2.92912e-11
1.16513e-11
-4.29092e-11
3.50983e-11
-3.64321e-11
1.32131e-11
-4.9946e-11
4.30024e-11
-4.4725e-11
1.49031e-11
-5.72615e-11
5.21641e-11
-5.43812e-11
1.67883e-11
-6.47599e-11
6.27304e-11
-6.55831e-11
1.89499e-11
-7.22391e-11
7.4772e-11
-7.84525e-11
2.14755e-11
-7.93334e-11
8.82135e-11
-9.29919e-11
2.44075e-11
-8.54135e-11
1.02695e-10
-1.08963e-10
2.77019e-11
-8.9447e-11
1.17318e-10
-1.2565e-10
3.1021e-11
-9.01893e-11
1.30201e-10
-1.41088e-10
-8.64284e-11
1.39499e-10
-1.56046e-10
2.46722e-12
-4.07226e-12
2.93652e-12
-3.02811e-12
4.68076e-12
-1.18897e-11
8.63969e-12
-8.9131e-12
6.70438e-12
-1.92205e-11
1.41839e-11
-1.4644e-11
8.59518e-12
-2.63647e-11
1.99042e-11
-2.05703e-11
1.04081e-11
-3.35593e-11
2.60928e-11
-2.69986e-11
1.22002e-11
-4.09909e-11
3.30169e-11
-3.42121e-11
1.40348e-11
-4.88005e-11
4.09294e-11
-4.24823e-11
1.59869e-11
-5.70846e-11
5.00724e-11
-5.20742e-11
1.8146e-11
-6.58971e-11
6.0673e-11
-6.32442e-11
2.06204e-11
-7.52503e-11
7.29292e-11
-7.62304e-11
2.35434e-11
-8.51068e-11
8.6984e-11
-9.1235e-11
2.7055e-11
-9.53453e-11
1.0287e-10
-1.08382e-10
3.12121e-11
-1.05652e-10
1.20369e-10
-1.27595e-10
3.58303e-11
-1.1522e-10
1.38673e-10
-1.48286e-10
4.00321e-11
-1.22203e-10
1.5558e-10
-1.68146e-10
-1.2086e-10
1.68352e-10
-1.86982e-10
2.83433e-12
-4.38375e-12
3.308e-12
-3.41108e-12
5.37798e-12
-1.28048e-11
9.72824e-12
-1.00357e-11
7.7049e-12
-2.07183e-11
1.59561e-11
-1.64729e-11
9.88191e-12
-2.84576e-11
2.23593e-11
-2.31063e-11
1.19745e-11
-3.62912e-11
2.92574e-11
-3.02712e-11
1.40523e-11
-4.4439e-11
3.69418e-11
-3.82764e-11
1.6196e-11
-5.30806e-11
4.56894e-11
-4.74195e-11
1.85052e-11
-6.23618e-11
5.57683e-11
-5.79933e-11
2.11064e-11
-7.24039e-11
6.7436e-11
-7.02871e-11
2.41701e-11
-8.33206e-11
8.09336e-11
-8.45872e-11
2.79364e-11
-9.52399e-11
9.64785e-11
-1.01182e-10
3.27384e-11
-1.08336e-10
1.14248e-10
-1.20363e-10
3.89872e-11
-1.22853e-10
1.34296e-10
-1.42376e-10
4.70584e-11
-1.39027e-10
1.5625e-10
-1.67192e-10
5.613e-11
-1.56089e-10
1.78151e-10
-1.92876e-10
-1.73671e-10
1.96771e-10
-2.2078e-10
3.15893e-12
3.6106e-12
-3.72293e-12
-4.5366e-12
5.99382e-12
1.06126e-11
-1.09474e-11
-1.32581e-11
8.58646e-12
1.73874e-11
-1.79493e-11
-2.14732e-11
1.10109e-11
2.43236e-11
-2.51341e-11
-2.95369e-11
1.33402e-11
3.17559e-11
-3.28531e-11
-3.7739e-11
1.56531e-11
3.9987e-11
-4.14275e-11
-4.63221e-11
1.80426e-11
4.93037e-11
-5.11654e-11
-5.54932e-11
2.06255e-11
5.99827e-11
-6.23692e-11
-6.5431e-11
2.35561e-11
7.22905e-11
-7.53377e-11
-7.62987e-11
2.70523e-11
8.64808e-11
-9.03731e-11
-8.82649e-11
3.14388e-11
1.02801e-10
-1.07801e-10
-1.01536e-10
3.72115e-11
1.21508e-10
-1.28009e-10
-1.16408e-10
4.51066e-11
1.42838e-10
-1.51462e-10
-1.33331e-10
5.61006e-11
1.66803e-10
-1.78624e-10
-1.52931e-10
6.95656e-11
1.91774e-10
-2.08056e-10
-1.7461e-10
2.16674e-10
-2.47579e-10
-2.06126e-10
2.30689e-13
-8.36583e-13
2.80404e-13
4.35884e-13
-2.43842e-12
8.2536e-13
6.19635e-13
-3.92985e-12
1.35665e-12
7.84887e-13
-5.36791e-12
1.908e-12
9.33632e-13
-6.79272e-12
2.50865e-12
1.06673e-12
-8.22432e-12
3.1839e-12
1.18354e-12
-9.66185e-12
3.95597e-12
1.28165e-12
-1.10816e-11
4.84419e-12
1.35742e-12
-1.24284e-11
5.86341e-12
1.40868e-12
-1.35975e-11
7.01957e-12
1.44399e-12
-1.44023e-11
8.30182e-12
1.50077e-12
-1.45139e-11
9.66993e-12
1.66605e-12
-1.33492e-11
1.103e-11
2.0734e-12
-9.9317e-12
1.21773e-11
2.72221e-12
-3.35276e-12
1.27071e-11
5.94021e-12
1.13387e-11
6.89693e-13
-1.64902e-12
8.34527e-13
1.3034e-12
-4.80771e-12
2.45635e-12
1.85359e-12
-7.75143e-12
4.03718e-12
2.3496e-12
-1.05922e-11
5.67669e-12
2.79794e-12
-1.34098e-11
7.46125e-12
3.20185e-12
-1.62486e-11
9.46624e-12
3.56017e-12
-1.91162e-11
1.17582e-11
3.86655e-12
-2.19779e-11
1.43951e-11
4.10972e-12
-2.47437e-11
1.74208e-11
4.27967e-12
-2.72441e-11
2.08515e-11
4.38795e-12
-2.91946e-11
2.46518e-11
4.50927e-12
-3.01546e-11
2.8694e-11
4.82613e-12
-2.95254e-11
3.26819e-11
5.63041e-12
-2.6755e-11
3.60067e-11
6.96157e-12
-2.21955e-11
3.76322e-11
-1.92471e-11
3.43109e-11
1.14175e-12
-2.41222e-12
1.36896e-12
2.15852e-12
-7.03507e-12
4.02913e-12
3.07208e-12
-1.13486e-11
6.62079e-12
3.89941e-12
-1.55181e-11
9.30568e-12
4.65308e-12
-1.96642e-11
1.2224e-11
5.34078e-12
-2.38625e-11
1.54994e-11
5.96368e-12
-2.81408e-11
1.92424e-11
6.51464e-12
-3.24734e-11
2.35494e-11
6.97639e-12
-3.67668e-11
2.84938e-11
7.3247e-12
-4.08386e-11
3.4104e-11
7.54543e-12
-4.43912e-11
4.03254e-11
7.66745e-12
-4.69991e-11
4.69515e-11
7.79778e-12
-4.81858e-11
5.35073e-11
8.15492e-12
-4.77392e-11
5.90714e-11
8.86268e-12
-4.63364e-11
6.22637e-11
-4.61386e-11
6.03109e-11
1.58196e-12
-3.10006e-12
1.87136e-12
2.99236e-12
-9.04409e-12
5.50693e-12
4.26336e-12
-1.45985e-11
9.04584e-12
5.42109e-12
-1.99799e-11
1.27062e-11
6.4865e-12
-2.53514e-11
1.66774e-11
7.47505e-12
-3.08247e-11
2.1128e-11
8.39533e-12
-3.64601e-11
2.62106e-11
9.24623e-12
-4.226e-11
3.20599e-11
1.00122e-11
-4.81586e-11
3.87818e-11
1.06578e-11
-5.4005e-11
4.64268e-11
1.1129e-11
-5.95393e-11
5.49412e-11
1.13458e-11
-6.43744e-11
6.40803e-11
1.11913e-11
-6.80341e-11
7.32608e-11
1.05696e-11
-7.01442e-11
8.1354e-11
9.60133e-12
-7.08587e-11
8.66754e-11
-7.17339e-11
8.62053e-11
2.00445e-12
-3.68696e-12
2.33042e-12
3.79377e-12
-1.076e-11
6.85607e-12
5.41138e-12
-1.73803e-11
1.12557e-11
6.89392e-12
-2.38127e-11
1.57967e-11
8.27295e-12
-3.02618e-11
2.07109e-11
9.57555e-12
-3.68792e-11
2.62067e-11
1.0824e-11
-4.37647e-11
3.24744e-11
1.20335e-11
-5.09641e-11
3.96856e-11
1.32055e-11
-5.84634e-11
4.79814e-11
1.43167e-11
-6.61786e-11
5.74451e-11
1.53002e-11
-7.39329e-11
6.80505e-11
1.59931e-11
-8.1413e-11
7.95661e-11
1.60441e-11
-8.81023e-11
9.13783e-11
1.48983e-11
-9.32052e-11
1.02217e-10
1.23304e-11
-9.58072e-11
1.10024e-10
-9.67642e-11
1.11291e-10
2.40234e-12
-4.14911e-12
2.73672e-12
4.54936e-12
-1.21133e-11
8.04846e-12
6.4959e-12
-1.95813e-11
1.32033e-11
8.28972e-12
-2.68605e-11
1.85091e-11
9.97433e-12
-3.41937e-11
2.42323e-11
1.15913e-11
-4.17705e-11
3.06128e-11
1.31818e-11
-4.97323e-11
3.7872e-11
1.47873e-11
-5.81748e-11
4.62132e-11
1.64454e-11
-6.71486e-11
5.58111e-11
1.81817e-11
-7.66606e-11
6.6787e-11
1.99895e-11
-8.66645e-11
7.91619e-11
2.17629e-11
-9.70253e-11
9.27656e-11
2.31483e-11
-1.07416e-10
1.07041e-10
2.33625e-11
-1.17049e-10
1.20688e-10
2.14912e-11
-1.24256e-10
1.31304e-10
-1.25493e-10
1.34911e-10
2.76812e-12
-4.46587e-12
3.08316e-12
5.24424e-12
-1.30437e-11
9.0632e-12
7.49386e-12
-2.11033e-11
1.4854e-11
9.57514e-12
-2.89857e-11
2.07938e-11
1.15432e-11
-3.69646e-11
2.71736e-11
1.34544e-11
-4.5262e-11
3.42552e-11
1.53704e-11
-5.40559e-11
4.22808e-11
1.73625e-11
-6.34867e-11
5.14755e-11
1.95154e-11
-7.36647e-11
6.20379e-11
2.19308e-11
-8.46835e-11
7.4119e-11
2.47295e-11
-9.66337e-11
8.7786e-11
2.80266e-11
-1.09619e-10
1.02946e-10
3.18451e-11
-1.23752e-10
1.19151e-10
3.59196e-11
-1.39024e-10
1.35167e-10
3.92415e-11
-1.54484e-10
1.48311e-10
-1.68512e-10
1.53641e-10
3.09439e-12
3.36547e-12
-4.62096e-12
5.86384e-12
9.88796e-12
-1.35035e-11
8.38252e-12
1.61881e-11
-2.18685e-11
1.0717e-11
2.26231e-11
-3.00785e-11
1.29316e-11
2.94979e-11
-3.84281e-11
1.50942e-11
3.70843e-11
-4.71613e-11
1.72827e-11
4.5633e-11
-5.64818e-11
1.95928e-11
5.53764e-11
-6.656e-11
2.21478e-11
6.6519e-11
-7.75428e-11
2.51148e-11
7.92185e-11
-8.95693e-11
2.87292e-11
9.35579e-11
-1.02792e-10
3.33199e-11
1.09484e-10
-1.17405e-10
3.93201e-11
1.26629e-10
-1.33669e-10
4.71794e-11
1.43881e-10
-1.51831e-10
5.61672e-11
1.58474e-10
-1.70933e-10
1.63969e-10
-1.93327e-10
2.21191e-13
-8.50182e-13
2.49687e-13
4.16514e-13
-2.47816e-12
7.34714e-13
5.88441e-13
-3.9944e-12
1.20693e-12
7.38089e-13
-5.45737e-12
1.69586e-12
8.65078e-13
-6.9088e-12
2.22684e-12
9.6693e-13
-8.37119e-12
2.82139e-12
1.03788e-12
-9.84764e-12
3.49775e-12
1.0673e-12
-1.13216e-11
4.27068e-12
1.03775e-12
-1.27522e-11
5.14904e-12
9.2291e-13
-1.40645e-11
6.13015e-12
6.86261e-13
-1.51359e-11
7.19011e-12
2.74411e-13
-1.5779e-11
8.26691e-12
-4.12876e-13
-1.57262e-11
9.23243e-12
-1.58824e-12
-1.46616e-11
9.85044e-12
-3.47581e-12
-1.25258e-11
9.79379e-12
-9.71659e-12
9.27732e-12
6.6185e-13
-1.67559e-12
7.43127e-13
1.24666e-12
-4.88522e-12
2.18663e-12
1.76231e-12
-7.87695e-12
3.59165e-12
2.21287e-12
-1.07658e-11
5.04553e-12
2.59811e-12
-1.36346e-11
6.62314e-12
2.91173e-12
-1.65318e-11
8.3886e-12
3.13812e-12
-1.9471e-11
1.03967e-11
3.24789e-12
-2.2429e-11
1.26917e-11
3.19201e-12
-2.53386e-11
1.53e-11
2.89612e-12
-2.80761e-11
1.82145e-11
2.25785e-12
-3.04497e-11
2.1366e-11
1.13697e-12
-3.22036e-11
2.45759e-11
-6.81368e-13
-3.30809e-11
2.74832e-11
-3.52728e-12
-3.30333e-11
2.94556e-11
-7.50027e-12
-3.25917e-11
2.97119e-11
-3.37161e-11
2.79752e-11
1.09744e-12
-2.45075e-12
1.21913e-12
2.06832e-12
-7.14728e-12
3.58696e-12
2.92727e-12
-1.15298e-11
5.89041e-12
3.68318e-12
-1.57678e-11
8.2713e-12
4.33838e-12
-1.99859e-11
1.08512e-11
4.88617e-12
-2.42638e-11
1.37355e-11
5.30617e-12
-2.86356e-11
1.70152e-11
5.55755e-12
-3.30873e-11
2.07644e-11
5.56923e-12
-3.75483e-11
2.50288e-11
5.22956e-12
-4.18817e-11
2.98019e-11
4.37911e-12
-4.58783e-11
3.49829e-11
2.79823e-12
-4.92795e-11
4.03087e-11
2.0393e-13
-5.18869e-11
4.52605e-11
-3.64039e-12
-5.38226e-11
4.89843e-11
-8.32064e-12
-5.5716e-11
5.05316e-11
-5.86387e-11
5.02201e-11
1.52409e-12
-3.14914e-12
1.66676e-12
2.87473e-12
-9.18682e-12
4.90313e-12
4.07504e-12
-1.48283e-11
8.04865e-12
5.14114e-12
-2.02951e-11
1.12946e-11
6.08139e-12
-2.57541e-11
1.48054e-11
6.89379e-12
-3.13206e-11
1.87247e-11
7.56115e-12
-3.70592e-11
2.31783e-11
8.04288e-12
-4.29802e-11
2.82704e-11
8.26185e-12
-4.90334e-11
3.40694e-11
8.08675e-12
-5.50993e-11
4.05796e-11
7.31024e-12
-6.09803e-11
4.76912e-11
5.6105e-12
-6.64087e-11
5.51015e-11
2.53603e-12
-7.11152e-11
6.22137e-11
-2.31395e-12
-7.50064e-11
6.80661e-11
-8.36467e-12
-7.83093e-11
7.15717e-11
-8.19048e-11
7.29555e-11
1.93659e-12
-3.74473e-12
2.07592e-12
3.65613e-12
-1.09278e-11
6.10512e-12
5.19183e-12
-1.76497e-11
1.0016e-11
6.56935e-12
-2.41801e-11
1.4043e-11
7.80654e-12
-3.07272e-11
1.83877e-11
8.9118e-12
-3.74442e-11
2.32274e-11
9.88031e-12
-4.4432e-11
2.87194e-11
1.06863e-11
-5.17375e-11
3.49966e-11
1.12687e-11
-5.93502e-11
4.21525e-11
1.15081e-11
-6.71947e-11
5.02108e-11
1.11864e-11
-7.51145e-11
5.9072e-11
9.90761e-12
-8.28451e-11
6.84289e-11
7.01201e-12
-8.99795e-11
7.76513e-11
1.69165e-12
-9.59431e-11
8.56913e-11
-5.7807e-12
-1.00083e-10
9.12523e-11
-1.03075e-10
9.43417e-11
2.32837e-12
-4.21338e-12
2.43817e-12
4.39967e-12
-1.22998e-11
7.1678e-12
6.25819e-12
-1.98798e-11
1.17505e-11
7.94052e-12
-2.72655e-11
1.64561e-11
9.47654e-12
-3.47022e-11
2.15163e-11
1.08895e-11
-4.23793e-11
2.71354e-11
1.21946e-11
-5.04354e-11
3.3496e-11
1.33943e-11
-5.89595e-11
4.07557e-11
1.44675e-11
-6.79917e-11
4.90312e-11
1.53488e-11
-7.75211e-11
5.83679e-11
1.58859e-11
-8.74727e-11
6.86859e-11
1.57406e-11
-9.76696e-11
7.96909e-11
1.42337e-11
-1.07739e-10
9.07382e-11
1.02723e-11
-1.169e-10
1.00685e-10
3.38477e-12
-1.23702e-10
1.07976e-10
-1.25116e-10
1.12542e-10
2.69177e-12
-4.53421e-12
2.74716e-12
5.09016e-12
-1.32417e-11
8.07252e-12
7.25037e-12
-2.14196e-11
1.32212e-11
9.21999e-12
-2.94129e-11
1.84899e-11
1.10415e-11
-3.74972e-11
2.41314e-11
1.27543e-11
-4.58921e-11
3.03684e-11
1.43969e-11
-5.47693e-11
3.74008e-11
1.60064e-11
-6.42558e-11
4.54025e-11
1.76155e-11
-7.44391e-11
5.45059e-11
1.92452e-11
-8.53721e-11
6.47708e-11
2.08806e-11
-9.70736e-11
7.61312e-11
2.24073e-11
-1.09519e-10
8.83037e-11
2.34884e-11
-1.22599e-10
1.00621e-10
2.3413e-11
-1.35954e-10
1.11795e-10
2.13912e-11
-1.48387e-10
1.19889e-10
-1.58393e-10
1.245e-10
3.01893e-12
2.99908e-12
-4.69081e-12
5.712e-12
8.80828e-12
-1.37059e-11
8.14387e-12
1.44107e-11
-2.21912e-11
1.03715e-11
2.01199e-11
-3.0513e-11
1.2448e-11
2.62003e-11
-3.89667e-11
1.44271e-11
3.28832e-11
-4.77931e-11
1.63667e-11
4.03754e-11
-5.71867e-11
1.83345e-11
4.88561e-11
-6.73001e-11
2.04113e-11
5.84605e-11
-7.82498e-11
2.26969e-11
6.9247e-11
-9.01214e-11
2.53104e-11
8.11469e-11
-1.02973e-10
2.83744e-11
9.38732e-11
-1.16833e-10
3.19743e-11
1.06739e-10
-1.31667e-10
3.60625e-11
1.18363e-10
-1.47238e-10
3.99846e-11
1.26527e-10
-1.62222e-10
1.29355e-10
-1.77534e-10
2.11621e-13
-8.60879e-13
2.1008e-13
3.97013e-13
-2.5094e-12
6.18005e-13
5.5705e-13
-4.04515e-12
1.01466e-12
6.91031e-13
-5.52796e-12
1.42456e-12
7.96291e-13
-7.00106e-12
1.86849e-12
8.67248e-13
-8.48892e-12
2.36373e-12
8.9356e-13
-9.9979e-12
2.92436e-12
8.57614e-13
-1.15179e-11
3.56097e-12
7.31075e-13
-1.30211e-11
4.27829e-12
4.70272e-13
-1.4458e-11
5.07027e-12
9.76345e-15
-1.57561e-11
5.91181e-12
-7.52377e-13
-1.68236e-11
6.74772e-12
-1.98932e-12
-1.7566e-11
7.48387e-12
-3.97632e-12
-1.79164e-11
7.99031e-12
-6.7754e-12
-1.78741e-11
8.15583e-12
-1.67521e-11
8.54886e-12
6.33764e-13
-1.69665e-12
6.25329e-13
1.18944e-12
-4.94671e-12
1.8395e-12
1.6703e-12
-7.97665e-12
3.01981e-12
2.07517e-12
-1.09039e-11
4.23875e-12
2.39731e-12
-1.38137e-11
5.55777e-12
2.62154e-12
-1.67576e-11
7.02835e-12
2.7193e-12
-1.97544e-11
8.69288e-12
2.64172e-12
-2.27914e-11
1.05832e-11
2.31011e-12
-2.58215e-11
1.27138e-11
1.6045e-12
-2.87595e-11
1.50676e-11
3.50982e-13
-3.14847e-11
1.75725e-11
-1.69894e-12
-3.38631e-11
2.00719e-11
-4.89148e-12
-3.58126e-11
2.23006e-11
-9.5818e-12
-3.74138e-11
2.38986e-11
-1.5336e-11
-3.8915e-11
2.4578e-11
-4.09699e-11
2.43497e-11
1.05263e-12
-2.4815e-12
1.02607e-12
1.97713e-12
-7.23688e-12
3.01806e-12
2.78089e-12
-1.16745e-11
4.95339e-12
3.46481e-12
-1.59668e-11
6.94971e-12
4.02129e-12
-2.02409e-11
9.10682e-12
4.43016e-12
-2.45798e-11
1.15093e-11
4.65172e-12
-2.90227e-11
1.42279e-11
4.61669e-12
-3.35656e-11
1.73162e-11
4.21236e-12
-3.81574e-11
2.07999e-11
3.26647e-12
-4.26973e-11
2.46562e-11
1.53291e-12
-4.70405e-11
2.878e-11
-1.31755e-12
-5.10319e-11
3.29434e-11
-5.6457e-12
-5.45999e-11
3.67686e-11
-1.15309e-11
-5.79059e-11
3.97651e-11
-1.77617e-11
-6.12578e-11
4.1562e-11
-6.48893e-11
4.25588e-11
1.46535e-12
-3.18839e-12
1.4031e-12
2.75537e-12
-9.30099e-12
4.1263e-12
3.88398e-12
-1.50118e-11
6.76952e-12
4.85734e-12
-2.05452e-11
9.49144e-12
5.67153e-12
-2.60702e-11
1.24269e-11
6.30811e-12
-3.17044e-11
1.56914e-11
6.7267e-12
-3.75149e-11
1.93829e-11
6.8535e-12
-4.35176e-11
2.3577e-11
6.56434e-12
-4.96736e-11
2.83134e-11
5.66327e-12
-5.5885e-11
3.35721e-11
3.85834e-12
-6.1993e-11
3.92337e-11
7.4094e-13
-6.77933e-11
4.5035e-11
-4.14936e-12
-7.30952e-11
5.05448e-11
-1.09292e-11
-7.78312e-11
5.52198e-11
-1.81683e-11
-8.20315e-11
5.86139e-11
-8.59864e-11
6.10047e-11
1.86741e-12
-3.79092e-12
1.74788e-12
3.51581e-12
-1.10619e-11
5.13882e-12
4.96803e-12
-1.7864e-11
8.42568e-12
6.23861e-12
-2.44696e-11
1.18029e-11
7.33197e-12
-3.10879e-11
1.54357e-11
8.23874e-12
-3.78722e-11
1.94669e-11
8.92947e-12
-4.4922e-11
2.40187e-11
9.34393e-12
-5.22826e-11
2.91876e-11
9.37354e-12
-5.99417e-11
3.50292e-11
8.83573e-12
-6.78224e-11
4.15312e-11
7.43467e-12
-7.5769e-11
4.85724e-11
4.70643e-12
-8.35239e-11
5.58731e-11
2.13663e-14
-9.06958e-11
6.29673e-11
-7.08683e-12
-9.67247e-11
6.92579e-11
-1.54828e-11
-1.00916e-10
7.4177e-11
-1.03535e-10
7.78525e-11
2.25252e-12
-4.26462e-12
2.05325e-12
4.24618e-12
-1.24482e-11
6.03436e-12
6.01439e-12
-2.0116e-11
9.88643e-12
7.58236e-12
-2.75818e-11
1.38333e-11
8.96636e-12
-3.50908e-11
1.80647e-11
1.01719e-11
-4.28299e-11
2.27452e-11
1.11903e-11
-5.0932e-11
2.80166e-11
1.19908e-11
-5.9476e-11
3.39927e-11
1.25072e-11
-6.84854e-11
4.07431e-11
1.26149e-11
-7.79218e-11
4.82635e-11
1.20884e-11
-8.76674e-11
5.64314e-11
1.05248e-11
-9.74826e-11
6.495e-11
7.2722e-12
-1.06916e-10
7.33052e-11
1.57175e-12
-1.15123e-10
8.08022e-11
-6.17672e-12
-1.20722e-10
8.67246e-11
-1.20699e-10
9.12151e-11
2.61293e-12
-4.58848e-12
2.31383e-12
4.93105e-12
-1.33986e-11
6.79712e-12
6.99883e-12
-2.16683e-11
1.11258e-11
8.85283e-12
-2.97435e-11
1.55456e-11
1.05226e-11
-3.78984e-11
2.02639e-11
1.20311e-11
-4.63478e-11
2.54596e-11
1.33947e-11
-5.52537e-11
3.12878e-11
1.46206e-11
-6.47257e-11
3.78737e-11
1.5701e-11
-7.48218e-11
4.52948e-11
1.66023e-11
-8.55456e-11
5.35483e-11
1.7239e-11
-9.68359e-11
6.25036e-11
1.74231e-11
-1.08542e-10
7.18346e-11
1.68072e-11
-1.20374e-10
8.0948e-11
1.49338e-11
-1.31777e-10
8.89713e-11
1.18382e-11
-1.41625e-10
9.49416e-11
-1.48878e-10
9.90203e-11
2.94037e-12
2.5264e-12
-4.74607e-12
5.55391e-12
7.41785e-12
-1.38654e-11
7.89518e-12
1.21289e-11
-2.24433e-11
1.0011e-11
1.69194e-11
-3.08462e-11
1.19428e-11
2.20058e-11
-3.93674e-11
1.37296e-11
2.75742e-11
-4.82411e-11
1.54105e-11
3.37848e-11
-5.76491e-11
1.70272e-11
4.07664e-11
-6.77224e-11
1.8626e-11
4.85954e-11
-7.854e-11
2.02588e-11
5.72619e-11
-9.01266e-11
2.19788e-11
6.66187e-11
-1.02443e-10
2.38285e-11
7.63064e-11
-1.15367e-10
2.58434e-11
8.56571e-11
-1.28652e-10
2.81124e-11
9.36346e-11
-1.41836e-10
3.06646e-11
9.90275e-11
-1.5373e-10
1.01297e-10
-1.65915e-10
2.02826e-13
-8.68717e-13
1.63321e-13
3.79098e-13
-2.53228e-12
4.80303e-13
5.28231e-13
-4.08241e-12
7.8817e-13
6.47901e-13
-5.58029e-12
1.10586e-12
7.33536e-13
-7.07025e-12
1.44923e-12
7.77104e-13
-8.57783e-12
1.8311e-12
7.64887e-13
-1.01116e-11
2.2616e-12
6.7465e-13
-1.16661e-11
2.74793e-12
4.72015e-13
-1.32224e-11
3.29264e-12
1.05777e-13
-1.4747e-11
3.89003e-12
-4.98569e-13
-1.61937e-11
4.52033e-12
-1.45122e-12
-1.75106e-11
5.14526e-12
-2.92247e-12
-1.86494e-11
5.71017e-12
-5.14182e-12
-1.95544e-11
6.15663e-12
-8.03901e-12
-2.00778e-11
6.44444e-12
-1.90819e-11
7.06117e-12
6.07906e-13
-1.7123e-12
4.86211e-13
1.13677e-12
-4.99252e-12
1.42985e-12
1.58563e-12
-8.05127e-12
2.34617e-12
1.94873e-12
-1.10077e-11
3.29106e-12
2.21385e-12
-1.39486e-11
4.3113e-12
2.35876e-12
-1.69274e-11
5.44519e-12
2.34536e-12
-1.99665e-11
6.72331e-12
2.11194e-12
-2.30604e-11
8.16741e-12
1.56368e-12
-2.61757e-11
9.78523e-12
5.61659e-13
-2.92502e-11
1.15602e-11
-1.08745e-12
-3.21986e-11
1.34356e-11
-3.64082e-12
-3.49326e-11
1.5302e-11
-7.40639e-12
-3.74007e-11
1.69997e-11
-1.25691e-11
-3.96155e-11
1.83493e-11
-1.83507e-11
-4.15437e-11
1.92187e-11
-4.33774e-11
1.94563e-11
1.01126e-12
-2.50463e-12
7.97962e-13
1.89291e-12
-7.30446e-12
2.3465e-12
2.6458e-12
-1.17839e-11
3.8494e-12
3.26377e-12
-1.6117e-11
5.39716e-12
3.73089e-12
-2.04324e-11
7.06567e-12
4.01623e-12
-2.48147e-11
8.91802e-12
4.06581e-12
-2.93064e-11
1.10054e-11
3.79191e-12
-3.39101e-11
1.33643e-11
3.05985e-12
-3.85864e-11
1.60089e-11
1.67445e-12
-4.32541e-11
1.89151e-11
-6.26681e-13
-4.77965e-11
2.2e-11
-4.15788e-12
-5.20888e-11
2.51025e-11
-9.17388e-12
-5.60625e-11
2.79877e-11
-1.54549e-11
-5.97796e-11
3.03946e-11
-2.13665e-11
-6.33007e-11
3.2122e-11
-6.66244e-11
3.32437e-11
1.41092e-12
-3.21811e-12
1.09141e-12
2.64474e-12
-9.38753e-12
3.2089e-12
3.70706e-12
-1.51507e-11
5.26204e-12
4.59523e-12
-2.07335e-11
7.37266e-12
5.29494e-12
-2.63054e-11
9.64324e-12
5.77457e-12
-3.19845e-11
1.21601e-11
5.97661e-12
-3.78389e-11
1.49941e-11
5.806e-12
-4.38869e-11
1.81969e-11
5.11484e-12
-5.00941e-11
2.17903e-11
3.68596e-12
-5.63693e-11
2.57493e-11
1.22153e-12
-6.25631e-11
2.99771e-11
-2.64243e-12
-6.84773e-11
3.42833e-11
-8.19999e-12
-7.39027e-11
3.83938e-11
-1.51927e-11
-7.86849e-11
4.20128e-11
-2.17884e-11
-8.27007e-11
4.48795e-11
-8.6134e-11
4.69482e-11
1.80304e-12
-3.82594e-12
1.35989e-12
3.38526e-12
-1.11635e-11
3.99721e-12
4.76001e-12
-1.80259e-11
6.55083e-12
5.93197e-12
-2.4686e-11
9.16991e-12
6.89407e-12
-3.13526e-11
1.198e-11
7.62258e-12
-3.81773e-11
1.50878e-11
8.06989e-12
-4.52569e-11
1.85819e-11
8.15393e-12
-5.26327e-11
2.25277e-11
7.74313e-12
-6.02853e-11
2.69558e-11
6.63732e-12
-6.81267e-11
3.18429e-11
4.54464e-12
-7.59847e-11
3.70842e-11
1.06706e-12
-8.35766e-11
4.24678e-11
-4.22278e-12
-9.04712e-11
4.76859e-11
-1.13788e-11
-9.60466e-11
5.2402e-11
-1.88906e-11
-9.95696e-11
5.62752e-11
-1.01308e-10
5.9157e-11
2.18161e-12
-4.30343e-12
1.59779e-12
4.10274e-12
-1.25604e-11
4.69475e-12
5.78679e-12
-2.02935e-11
7.68808e-12
7.24872e-12
-2.78162e-11
1.07494e-11
8.49304e-12
-3.53717e-11
1.40229e-11
9.51092e-12
-4.31429e-11
1.76313e-11
1.02757e-11
-5.12559e-11
2.16771e-11
1.07358e-11
-5.9778e-11
2.62375e-11
1.08038e-11
-6.87131e-11
3.13497e-11
1.03403e-11
-7.79927e-11
3.69904e-11
9.12789e-12
-8.74541e-11
4.30443e-11
6.83532e-12
-9.67979e-11
4.92704e-11
3.01955e-12
-1.05504e-10
5.53074e-11
-2.65714e-12
-1.12688e-10
6.07424e-11
-9.41682e-12
-1.1707e-10
6.51574e-11
-1.15921e-10
6.84451e-11
2.53884e-12
-4.62948e-12
1.80089e-12
4.78159e-12
-1.35169e-11
5.28916e-12
6.76274e-12
-2.18543e-11
8.65352e-12
8.50881e-12
-2.99863e-11
1.20824e-11
1.0038e-11
-3.8184e-11
1.5733e-11
1.13597e-11
-4.66562e-11
1.97389e-11
1.24737e-11
-5.55539e-11
2.42121e-11
1.33681e-11
-6.49688e-11
2.92366e-11
1.40158e-11
-7.49292e-11
3.48524e-11
1.43696e-11
-8.53923e-11
4.10314e-11
1.43501e-11
-9.62298e-11
4.76403e-11
1.38306e-11
-1.07202e-10
5.43964e-11
1.26504e-11
-1.17924e-10
6.08559e-11
1.07475e-11
-1.2781e-10
6.64692e-11
8.55671e-12
-1.35966e-10
7.06979e-11
-1.41943e-10
7.3566e-11
2.8661e-12
1.96666e-12
-4.78772e-12
5.40451e-12
5.77319e-12
-1.39853e-11
7.66032e-12
9.43552e-12
-2.26309e-11
9.67091e-12
1.31526e-11
-3.10891e-11
1.14674e-11
1.70889e-11
-3.96489e-11
1.30765e-11
2.1383e-11
-4.8537e-11
1.45226e-11
2.61507e-11
-5.79221e-11
1.58307e-11
3.14777e-11
-6.79126e-11
1.70299e-11
3.74012e-11
-7.85522e-11
1.81586e-11
4.38836e-11
-8.9811e-11
1.9271e-11
5.07698e-11
-1.01574e-10
2.04522e-11
5.77356e-11
-1.13622e-10
2.18796e-11
6.42587e-11
-1.25614e-10
2.39669e-11
6.96543e-11
-1.37077e-10
2.71209e-11
7.32482e-11
-1.47131e-10
7.47688e-11
-1.57952e-10
1.95556e-13
-8.73873e-13
1.11309e-13
3.64276e-13
-2.54743e-12
3.27246e-13
5.0436e-13
-4.10758e-12
5.3681e-13
6.12235e-13
-5.61644e-12
7.52902e-13
6.8196e-13
-7.11876e-12
9.86155e-13
7.03831e-13
-8.64042e-12
1.24498e-12
6.62079e-13
-1.01912e-11
1.53586e-12
5.32244e-13
-1.17683e-11
1.86332e-12
2.78336e-13
-1.33578e-11
2.22882e-12
-1.50671e-13
-1.49333e-11
2.62841e-12
-8.24932e-13
-1.64569e-11
3.05001e-12
-1.84277e-12
-1.78813e-11
3.47175e-12
-3.35107e-12
-1.91509e-11
3.8643e-12
-5.55044e-12
-2.01671e-11
4.19915e-12
-8.38658e-12
-2.06936e-11
4.44978e-12
-1.95072e-11
4.94963e-12
5.86465e-13
-1.72301e-12
3.3142e-13
1.09304e-12
-5.02415e-12
9.74446e-13
1.51532e-12
-8.10342e-12
1.59844e-12
1.84399e-12
-1.1081e-11
2.24132e-12
2.06285e-12
-1.40442e-11
2.93445e-12
2.1449e-12
-1.70471e-11
3.70299e-12
2.0462e-12
-2.0114e-11
4.56665e-12
1.69902e-12
-2.32438e-11
5.53903e-12
1.00455e-12
-2.64097e-11
6.62439e-12
-1.74096e-13
-2.95588e-11
7.81136e-12
-2.01514e-12
-3.26142e-11
9.06511e-12
-4.73719e-12
-3.54873e-11
1.03213e-11
-8.57363e-12
-3.80984e-11
1.14901e-11
-1.36196e-11
-4.03697e-11
1.24737e-11
-1.91413e-11
-4.21373e-11
1.31751e-11
-4.35288e-11
1.34131e-11
9.76795e-13
-2.52087e-12
5.44058e-13
1.8227e-12
-7.35219e-12
1.59967e-12
2.53324e-12
-1.18616e-11
2.62358e-12
3.09684e-12
-1.62239e-11
3.67695e-12
3.49141e-12
-2.05679e-11
4.81058e-12
3.67868e-12
-2.49785e-11
6.0661e-12
3.59603e-12
-2.94999e-11
7.47654e-12
3.14737e-12
-3.41379e-11
9.0648e-12
2.19361e-12
-3.88578e-11
1.08384e-11
5.45928e-13
-4.35835e-11
1.27811e-11
-2.02941e-12
-4.82002e-11
1.48409e-11
-5.77835e-12
-5.25728e-11
1.69197e-11
-1.08303e-11
-5.65895e-11
1.88801e-11
-1.68261e-11
-6.02113e-11
2.05682e-11
-2.22152e-11
-6.33961e-11
2.18252e-11
-6.61736e-11
2.26011e-11
1.36539e-12
-3.23925e-12
7.4433e-13
2.55219e-12
-9.44929e-12
2.18827e-12
3.55925e-12
-1.52501e-11
3.5875e-12
4.37707e-12
-2.08673e-11
5.02422e-12
4.98369e-12
-2.64702e-11
6.56702e-12
5.33837e-12
-3.21762e-11
8.27288e-12
5.37336e-12
-3.80531e-11
1.01877e-11
4.98436e-12
-4.41191e-11
1.23435e-11
4.02031e-12
-5.03384e-11
1.47524e-11
2.27577e-12
-5.66163e-11
1.73965e-11
-5.05265e-13
-6.27945e-11
2.02133e-11
-4.59164e-12
-6.86541e-11
2.30828e-11
-1.01132e-11
-7.39395e-11
2.58386e-11
-1.66467e-11
-7.84141e-11
2.82991e-11
-2.24989e-11
-8.1904e-11
3.02576e-11
-8.46799e-11
3.15815e-11
1.749e-12
-3.851e-12
9.27655e-13
3.27569e-12
-1.12362e-11
2.72653e-12
4.58574e-12
-1.81414e-11
4.46731e-12
5.6761e-12
-2.48387e-11
6.25043e-12
6.53111e-12
-3.15355e-11
8.15995e-12
7.11711e-12
-3.83811e-11
1.02663e-11
7.37567e-12
-4.54692e-11
1.26268e-11
7.21567e-12
-5.28355e-11
1.52819e-11
6.50404e-12
-6.04514e-11
1.82482e-11
5.05684e-12
-6.82136e-11
2.15075e-11
2.63365e-12
-7.59281e-11
2.49889e-11
-1.05058e-12
-8.32822e-11
2.85524e-11
-6.23487e-12
-8.98041e-11
3.20036e-11
-1.27959e-11
-9.48276e-11
3.51303e-11
-1.94036e-11
-9.76363e-11
3.76731e-11
-9.86316e-11
3.94417e-11
2.12187e-12
-4.3312e-12
1.09017e-12
3.98198e-12
-1.26406e-11
3.20303e-12
5.59555e-12
-2.04196e-11
5.244e-12
6.96942e-12
-2.79802e-11
7.32855e-12
8.09925e-12
-3.55628e-11
9.55312e-12
8.96617e-12
-4.33463e-11
1.19988e-11
9.53294e-12
-5.145e-11
1.47318e-11
9.73955e-12
-5.99303e-11
1.77994e-11
9.49817e-12
-6.87731e-11
2.1221e-11
8.6876e-12
-7.78831e-11
2.49765e-11
7.1452e-12
-8.7063e-11
2.89829e-11
4.65833e-12
-9.59748e-11
3.30733e-11
9.80366e-13
-1.04068e-10
3.70112e-11
-4.041e-12
-1.10462e-10
4.05339e-11
-9.81773e-12
-1.13989e-10
4.33439e-11
-1.12191e-10
4.52931e-11
2.4762e-12
-4.65885e-12
1.22898e-12
4.65532e-12
-1.36013e-11
3.60928e-12
6.56366e-12
-2.19857e-11
5.90368e-12
8.21968e-12
-3.01548e-11
8.23889e-12
9.63293e-12
-3.83755e-11
1.072e-11
1.08033e-11
-4.68509e-11
1.34353e-11
1.17206e-11
-5.57223e-11
1.6457e-11
1.23653e-11
-6.50655e-11
1.9836e-11
1.27102e-11
-7.48837e-11
2.35923e-11
1.27246e-11
-8.50984e-11
2.76997e-11
1.23804e-11
-9.55373e-11
3.20579e-11
1.16621e-11
-1.05917e-10
3.64651e-11
1.05962e-11
-1.15829e-10
4.06247e-11
9.31078e-12
-1.24738e-10
4.41893e-11
8.0887e-12
-1.31936e-10
4.68068e-11
-1.37369e-10
4.84521e-11
2.80304e-12
1.34233e-12
-4.81749e-12
5.27778e-12
3.94025e-12
-1.40707e-11
7.46142e-12
6.43831e-12
-2.2763e-11
9.38373e-12
8.97023e-12
-3.12564e-11
1.10678e-11
1.16459e-11
-3.98352e-11
1.25316e-11
1.45571e-11
-4.87189e-11
1.37908e-11
1.77782e-11
-5.80646e-11
1.48631e-11
2.13608e-11
-6.79617e-11
1.57767e-11
2.53222e-11
-7.84248e-11
1.65833e-11
2.96273e-11