/*--------------------------------*- C++ -*----------------------------------*\
| =========                 |                                                 |
| \\      /  F ield         | OpenFOAM: The Open Source CFD Toolbox           |
|  \\    /   O peration     | Version:  v1912                                 |
|   \\  /    A nd           | Website:  www.openfoam.com                      |
|    \\/     M anipulation  |                                                 |
\*---------------------------------------------------------------------------*/
FoamFile
{
    version     2.0;
    format      ascii;
    class       surfaceScalarField;
    location    "0.24/fluid";
    object      phi;
}
// * * * * * * * * * * * * * * * * * * * * * * * * * * * * * * * * * * * * * //

dimensions      [0 3 -1 0 0 0 0];
oriented        oriented;


internalField   nonuniform List<scalar> 
41600
(
5.19921e-05
1.06998e-05
1.70425e-07
-3.62289e-07
4.52003e-05
7.0688e-06
-1.14455e-08
-2.65502e-07
4.11517e-05
4.30079e-06
-3.66886e-07
1.14649e-07
3.90779e-05
2.27045e-06
-7.91862e-07
5.95221e-07
3.78831e-05
1.33061e-06
-1.3368e-06
1.20097e-06
3.70514e-05
9.10989e-07
-2.02519e-06
1.94593e-06
3.63127e-05
7.64822e-07
-2.8968e-06
2.87067e-06
3.55329e-05
7.48269e-07
-4.00441e-06
4.03594e-06
3.46233e-05
8.06415e-07
-5.42416e-06
5.52738e-06
3.34997e-05
8.9989e-07
-7.27343e-06
7.49709e-06
3.20554e-05
1.02319e-06
-9.71351e-06
1.01346e-05
3.00886e-05
1.10209e-06
-1.29748e-05
1.38396e-05
2.72479e-05
1.17642e-06
-1.74871e-05
1.91514e-05
2.26193e-05
9.28332e-07
-2.34062e-05
2.71065e-05
1.45229e-05
7.1606e-07
-3.12562e-05
3.86365e-05
-1.42074e-06
-2.88783e-05
4.48219e-05
6.52806e-05
8.16064e-06
1.0597e-07
-3.4746e-07
6.52242e-05
7.48464e-06
-2.26078e-07
-1.33397e-07
6.43922e-05
5.47204e-06
-7.58671e-07
4.19461e-07
6.33526e-05
3.58082e-06
-1.38465e-06
1.11393e-06
6.23523e-05
2.52098e-06
-2.17799e-06
1.98789e-06
6.13788e-05
1.99716e-06
-3.18724e-06
3.07456e-06
6.03524e-05
1.83074e-06
-4.47484e-06
4.43532e-06
5.91806e-05
1.88148e-06
-6.12177e-06
6.1603e-06
5.77682e-05
2.0849e-06
-8.24293e-06
8.37691e-06
5.59823e-05
2.39571e-06
-1.10132e-05
1.13033e-05
5.36596e-05
2.79805e-06
-1.46735e-05
1.52214e-05
5.04193e-05
3.22123e-06
-1.95723e-05
2.06934e-05
4.57408e-05
3.67658e-06
-2.63035e-05
2.84818e-05
3.79339e-05
3.87195e-06
-3.51672e-05
4.00306e-05
2.49758e-05
3.89382e-06
-4.64867e-05
5.62669e-05
1.56252e-06
-4.2886e-05
6.48786e-05
6.55764e-05
5.33219e-06
9.56334e-08
-3.43609e-07
6.70395e-05
6.39258e-06
-2.57913e-07
-1.13111e-07
6.74385e-05
5.42416e-06
-8.09704e-07
4.58594e-07
6.71641e-05
4.13619e-06
-1.454e-06
1.17307e-06
6.65967e-05
3.2863e-06
-2.2696e-06
2.07163e-06
6.58562e-05
2.85581e-06
-3.30809e-06
3.18995e-06
6.49547e-05
2.77501e-06
-4.63372e-06
4.591e-06
6.38439e-05
2.95475e-06
-6.33035e-06
6.36785e-06
6.24451e-05
3.3481e-06
-8.51622e-06
8.65177e-06
6.06222e-05
3.92281e-06
-1.13743e-05
1.16701e-05
5.81904e-05
4.66755e-06
-1.51532e-05
1.57155e-05
5.47216e-05
5.53302e-06
-2.02262e-05
2.13832e-05
4.96209e-05
6.51586e-06
-2.72022e-05
2.94636e-05
4.10535e-05
7.35755e-06
-3.64459e-05
4.15277e-05
2.68337e-05
7.85167e-06
-4.82483e-05
5.85103e-05
5.09218e-06
-4.4681e-05
6.7985e-05
6.43935e-05
3.68686e-06
1.13212e-07
-3.61353e-07
6.59506e-05
5.20774e-06
-2.24815e-07
-1.47519e-07
6.68056e-05
4.92144e-06
-7.63564e-07
4.11359e-07
6.70279e-05
4.1958e-06
-1.39357e-06
1.11167e-06
6.68535e-05
3.65981e-06
-2.1905e-06
1.99138e-06
6.63993e-05
3.42966e-06
-3.20299e-06
3.08333e-06
6.5709e-05
3.51013e-06
-4.49229e-06
4.44747e-06
6.4763e-05
3.86616e-06
-6.13942e-06
6.17403e-06
6.34994e-05
4.47997e-06
-8.25823e-06
8.38987e-06
6.17851e-05
5.34653e-06
-1.10297e-05
1.13204e-05
5.94245e-05
6.47184e-06
-1.46945e-05
1.52508e-05
5.59609e-05
7.8446e-06
-1.96359e-05
2.07879e-05
5.07512e-05
9.46333e-06
-2.64461e-05
2.87083e-05
4.19077e-05
1.10899e-05
-3.556e-05
4.06712e-05
2.71373e-05
1.22796e-05
-4.726e-05
5.76024e-05
8.72948e-06
-4.40153e-05
6.75152e-05
6.37633e-05
2.67128e-06
1.43694e-07
-3.91409e-07
6.51634e-05
4.18003e-06
-1.6415e-07
-2.08223e-07
6.61412e-05
4.29594e-06
-6.79483e-07
3.27161e-07
6.66261e-05
3.99319e-06
-1.28581e-06
1.00352e-06
6.6727e-05
3.75909e-06
-2.05142e-06
1.8513e-06
6.65247e-05
3.75356e-06
-3.01958e-06
2.89797e-06
6.60612e-05
4.02169e-06
-4.24605e-06
4.19792e-06
6.53283e-05
4.56989e-06
-5.80594e-06
5.83511e-06
6.42759e-05
5.40941e-06
-7.80387e-06
7.92683e-06
6.27759e-05
6.57038e-06
-1.04125e-05
1.06886e-05
6.0628e-05
8.08746e-06
-1.38535e-05
1.43859e-05
5.73441e-05
1.00186e-05
-1.85117e-05
1.96216e-05
5.2213e-05
1.24044e-05
-2.49366e-05
2.71266e-05
4.31959e-05
1.5117e-05
-3.366e-05
3.86499e-05
2.77885e-05
1.75623e-05
-4.49168e-05
5.50416e-05
1.33634e-05
-4.21849e-05
6.53395e-05
6.34596e-05
1.95911e-06
1.8027e-07
-4.27708e-07
6.47245e-05
3.28762e-06
-9.01163e-08
-2.82368e-07
6.57494e-05
3.6237e-06
-5.76826e-07
2.24104e-07
6.64045e-05
3.62125e-06
-1.1547e-06
8.71579e-07
6.67173e-05
3.64798e-06
-1.88241e-06
1.68075e-06
6.67364e-05
3.85877e-06
-2.79665e-06
2.67236e-06
6.6495e-05
4.31559e-06
-3.94648e-06
3.89397e-06
6.59889e-05
5.05395e-06
-5.39952e-06
5.42155e-06
6.51748e-05
6.11206e-06
-7.24911e-06
7.36059e-06
6.39263e-05
7.56228e-06
-9.65695e-06
9.91352e-06
6.20356e-05
9.47859e-06
-1.28214e-05
1.33209e-05
5.89786e-05
1.20251e-05
-1.71263e-05
1.81768e-05
5.39761e-05
1.53212e-05
-2.30642e-05
2.51499e-05
4.48102e-05
1.94795e-05
-3.12857e-05
3.60891e-05
2.87266e-05
2.38625e-05
-4.19461e-05
5.17295e-05
1.94681e-05
-3.99258e-05
6.25476e-05
6.33403e-05
1.36629e-06
2.22322e-07
-4.6975e-07
6.45476e-05
2.45318e-06
-5.07271e-09
-3.67854e-07
6.56179e-05
2.90707e-06
-4.58939e-07
1.05334e-07
6.64017e-05
3.12192e-06
-1.00412e-06
7.19569e-07
6.6889e-05
3.36467e-06
-1.68786e-06
1.48389e-06
6.71124e-05
3.76343e-06
-2.53871e-06
2.41068e-06
6.7104e-05
4.38259e-06
-3.59694e-06
3.53832e-06
6.68719e-05
5.27448e-06
-4.91898e-06
4.93052e-06
6.63951e-05
6.49577e-06
-6.58045e-06
6.6736e-06
6.5579e-05
8.15656e-06
-8.72019e-06
8.94201e-06
6.42571e-05
1.0367e-05
-1.14922e-05
1.19257e-05
6.19347e-05
1.34337e-05
-1.52456e-05
1.61594e-05
5.78338e-05
1.76117e-05
-2.03481e-05
2.21584e-05
4.9362e-05
2.37171e-05
-2.7538e-05
3.17723e-05
3.31032e-05
3.14976e-05
-3.6738e-05
4.53617e-05
3.17672e-05
-3.55314e-05
5.63355e-05
6.33121e-05
2.67418e-07
-5.15099e-07
8.01825e-07
6.45286e-05
8.61259e-08
-4.59837e-07
1.61046e-06
6.56657e-05
-3.32622e-07
-2.22822e-08
2.12482e-06
6.65659e-05
-8.43022e-07
5.56585e-07
2.50816e-06
6.72041e-05
-1.48002e-06
1.27328e-06
2.93322e-06
6.76084e-05
-2.26361e-06
2.13136e-06
3.49143e-06
6.78139e-05
-3.22507e-06
3.15983e-06
4.24226e-06
6.78396e-05
-4.40935e-06
4.40991e-06
5.24828e-06
6.76807e-05
-5.87501e-06
5.94958e-06
6.58014e-06
6.72667e-05
-7.73794e-06
7.92538e-06
8.38311e-06
6.64623e-05
-1.01113e-05
1.04818e-05
1.08009e-05
6.48063e-05
-1.33081e-05
1.40928e-05
1.4305e-05
6.15836e-05
-1.75776e-05
1.91358e-05
1.92762e-05
5.40448e-05
-2.37444e-05
2.74502e-05
2.755e-05
3.87723e-05
-3.1534e-05
3.90992e-05
3.92049e-05
-3.17788e-05
5.10947e-05
5.12235e-05
5.19241e-05
1.07055e-05
4.07495e-08
4.50179e-05
7.08399e-06
-1.89234e-07
4.08496e-05
4.31827e-06
-5.16768e-07
3.86568e-05
2.29028e-06
-8.89429e-07
3.73348e-05
1.35576e-06
-1.37052e-06
3.63541e-05
9.44228e-07
-1.98876e-06
3.54292e-05
8.09634e-07
-2.78152e-06
3.44092e-05
8.08874e-07
-3.79325e-06
3.31849e-05
8.89153e-07
-5.08904e-06
3.16524e-05
1.01277e-06
-6.75373e-06
2.9674e-05
1.18042e-06
-8.91548e-06
2.70503e-05
1.32217e-06
-1.16732e-05
2.3384e-05
1.49707e-06
-1.53179e-05
1.80365e-05
1.41725e-06
-1.9476e-05
9.5684e-06
1.40158e-06
-2.41896e-05
-2.98618e-07
-1.90113e-05
6.51877e-05
8.17613e-06
-5.23379e-08
6.4975e-05
7.51764e-06
-4.47002e-07
6.39675e-05
5.51464e-06
-9.47543e-07
6.27455e-05
3.63232e-06
-1.50468e-06
6.15472e-05
2.58624e-06
-2.21022e-06
6.03418e-05
2.08259e-06
-3.12015e-06
5.90259e-05
1.94483e-06
-4.29417e-06
5.74803e-05
2.03465e-06
-5.80188e-06
5.55762e-05
2.29147e-06
-7.74119e-06
5.31452e-05
2.67266e-06
-1.02421e-05
4.99735e-05
3.17115e-06
-1.34925e-05
4.567e-05
3.7153e-06
-1.76619e-05
3.96599e-05
4.33848e-06
-2.31348e-05
3.06732e-05
4.72834e-06
-2.94916e-05
1.70733e-05
4.94085e-06
-3.6426e-05
2.55389e-06
-2.86653e-05
6.54823e-05
5.3559e-06
-6.64771e-08
6.67853e-05
6.44173e-06
-4.8499e-07
6.70041e-05
5.49036e-06
-1.00425e-06
6.6542e-05
4.21839e-06
-1.57793e-06
6.5771e-05
3.39096e-06
-2.30331e-06
6.47921e-05
2.99296e-06
-3.2396e-06
6.35934e-05
2.95823e-06
-4.44843e-06
6.20985e-05
3.20125e-06
-6.00198e-06
6.01937e-05
3.68108e-06
-8.00104e-06
5.77042e-05
4.36999e-06
-1.05822e-05
5.43919e-05
5.26894e-06
-1.39386e-05
4.98136e-05
6.32477e-06
-1.82574e-05
4.33163e-05
7.56169e-06
-2.3928e-05
3.34963e-05
8.6575e-06
-3.05551e-05
1.85761e-05
9.3852e-06
-3.77724e-05
6.15425e-06
-2.97053e-05
6.43012e-05
3.71782e-06
-4.99244e-08
6.57012e-05
5.27138e-06
-4.54424e-07
6.63805e-05
5.00861e-06
-9.6116e-07
6.64211e-05
4.30545e-06
-1.52117e-06
6.60503e-05
3.80009e-06
-2.22891e-06
6.53671e-05
3.61401e-06
-3.1408e-06
6.43915e-05
3.75715e-06
-4.31563e-06
6.30764e-05
4.19999e-06
-5.82306e-06
6.13257e-05
4.93346e-06
-7.75985e-06
5.8967e-05
5.96005e-06
-1.02611e-05
5.57508e-05
7.30347e-06
-1.35128e-05
5.12018e-05
8.94916e-06
-1.77113e-05
4.46119e-05
1.09357e-05
-2.32303e-05
3.45139e-05
1.29247e-05
-2.97292e-05
1.90015e-05
1.44703e-05
-3.68327e-05
1.01402e-05
-2.89998e-05
6.36738e-05
2.7084e-06
-2.06467e-08
6.49216e-05
4.25609e-06
-3.96689e-07
6.57311e-05
4.40079e-06
-8.81171e-07
6.60437e-05
4.1259e-06
-1.41882e-06
6.59601e-05
3.92942e-06
-2.09717e-06
6.55441e-05
3.97799e-06
-2.96759e-06
6.48157e-05
4.32337e-06
-4.08383e-06
6.37404e-05
4.9796e-06
-5.51028e-06
6.22359e-05
5.96963e-06
-7.33557e-06
6.01364e-05
7.33543e-06
-9.68835e-06
5.71882e-05
9.13676e-06
-1.27386e-05
5.28785e-05
1.14349e-05
-1.66878e-05
4.64207e-05
1.43322e-05
-2.18753e-05
3.61599e-05
1.75767e-05
-2.80511e-05
1.99205e-05
2.06088e-05
-3.48159e-05
1.53436e-05
-2.74677e-05
6.33731e-05
2.00113e-06
1.43925e-08
6.4492e-05
3.37331e-06
-3.26192e-07
6.53574e-05
3.74214e-06
-7.83576e-07
6.58514e-05
3.77166e-06
-1.29441e-06
6.5994e-05
3.84152e-06
-1.9372e-06
6.5818e-05
4.11452e-06
-2.75715e-06
6.53361e-05
4.6607e-06
-3.80184e-06
6.45198e-05
5.5254e-06
-5.12905e-06
6.32958e-05
6.7618e-06
-6.81733e-06
6.15014e-05
8.45984e-06
-8.98687e-06
5.88768e-05
1.07275e-05
-1.17875e-05
5.48662e-05
1.37452e-05
-1.54261e-05
4.86067e-05
1.77223e-05
-2.01948e-05
3.82205e-05
2.2638e-05
-2.59609e-05
2.12011e-05
2.79606e-05
-3.22785e-05
2.22207e-05
-2.56018e-05
6.32574e-05
1.41152e-06
5.45087e-08
6.4326e-05
2.54504e-06
-2.45374e-07
6.52468e-05
3.0341e-06
-6.71731e-07
6.58827e-05
3.28344e-06
-1.15183e-06
6.62171e-05
3.57272e-06
-1.7534e-06
6.62684e-05
4.03864e-06
-2.51416e-06
6.60513e-05
4.75457e-06
-3.47372e-06
6.55537e-05
5.78426e-06
-4.68018e-06
6.47304e-05
7.20149e-06
-6.19687e-06
6.34573e-05
9.13935e-06
-8.12664e-06
6.15273e-05
1.17489e-05
-1.05837e-05
5.84131e-05
1.53734e-05
-1.37596e-05
5.3256e-05
2.03863e-05
-1.7855e-05
4.37006e-05
2.75186e-05
-2.28632e-05
2.64244e-05
3.67164e-05
-2.82176e-05
3.55413e-05
-2.24277e-05
6.32332e-05
9.7376e-08
8.48371e-07
6.43186e-05
-1.5888e-07
1.70462e-06
6.53172e-05
-5.5208e-07
2.25501e-06
6.60833e-05
-9.9946e-07
2.67377e-06
6.65866e-05
-1.55718e-06
3.1466e-06
6.68428e-05
-2.25505e-06
3.77386e-06
6.68722e-05
-3.12443e-06
4.62445e-06
6.66771e-05
-4.20348e-06
5.77351e-06
6.6234e-05
-5.54049e-06
7.31011e-06
6.54484e-05
-7.22066e-06
9.40766e-06
6.41547e-05
-9.3243e-06
1.22556e-05
6.18598e-05
-1.20265e-05
1.63867e-05
5.77862e-05
-1.54384e-05
2.23207e-05
4.93431e-05
-1.96872e-05
3.19045e-05
3.3106e-05
-2.40989e-05
4.55184e-05
-1.96617e-05
5.65302e-05
5.18685e-05
1.0711e-05
-3.8695e-08
4.48647e-05
7.09797e-06
-2.83445e-07
4.05882e-05
4.33471e-06
-5.74991e-07
3.82828e-05
2.30902e-06
-8.93073e-07
3.68365e-05
1.37932e-06
-1.30348e-06
3.57079e-05
9.75013e-07
-1.83515e-06
3.45955e-05
8.50503e-07
-2.51972e-06
3.33295e-05
8.63008e-07
-3.39023e-06
3.17746e-05
9.60789e-07
-4.49494e-06
2.9799e-05
1.10636e-06
-5.88441e-06
2.72255e-05
1.30269e-06
-7.64473e-06
2.38596e-05
1.47914e-06
-9.78652e-06
1.93319e-05
1.6983e-06
-1.24884e-05
1.34586e-05
1.67925e-06
-1.52819e-05
5.6433e-06
1.67347e-06
-1.80478e-05
5.91337e-08
-1.34272e-05
6.51106e-05
8.19095e-06
-1.42924e-07
6.47634e-05
7.54886e-06
-5.50703e-07
6.35976e-05
5.55515e-06
-1.0022e-06
6.22041e-05
3.68132e-06
-1.48342e-06
6.08145e-05
2.64807e-06
-2.08942e-06
5.93819e-05
2.16314e-06
-2.87559e-06
5.77802e-05
2.05179e-06
-3.89378e-06
5.58617e-05
2.17735e-06
-5.19777e-06
5.34605e-05
2.48226e-06
-6.86144e-06
5.03671e-05
2.92538e-06
-8.96768e-06
4.63149e-05
3.50544e-06
-1.16431e-05
4.09198e-05
4.14633e-06
-1.4934e-05
3.36553e-05
4.89256e-06
-1.90645e-05
2.38997e-05
5.40182e-06
-2.34586e-05
1.11028e-05
5.68981e-06
-2.76455e-05
3.12564e-06
-2.0629e-05
6.54043e-05
5.3787e-06
-1.58492e-07
6.65696e-05
6.48858e-06
-5.90058e-07
6.6626e-05
5.55345e-06
-1.05889e-06
6.59873e-05
4.29663e-06
-1.5546e-06
6.50196e-05
3.4903e-06
-2.17777e-06
6.38072e-05
3.12275e-06
-2.98689e-06
6.2315e-05
3.13119e-06
-4.03561e-06
6.0437e-05
3.43333e-06
-5.37992e-06
5.80204e-05
3.99374e-06
-7.09592e-06
5.48468e-05
4.78821e-06
-9.27149e-06
5.06218e-05
5.82819e-06
-1.20364e-05
4.4905e-05
7.05416e-06
-1.54485e-05
3.70888e-05
8.51185e-06
-1.97311e-05
2.6437e-05
9.81409e-06
-2.43155e-05
1.23046e-05
1.07189e-05
-2.86691e-05
7.07334e-06
-2.13484e-05
6.42249e-05
3.74755e-06
-1.43675e-07
6.549e-05
5.33209e-06
-5.6305e-07
6.60112e-05
5.09162e-06
-1.02051e-06
6.58808e-05
4.40972e-06
-1.50385e-06
6.53202e-05
3.93321e-06
-2.11121e-06
6.44121e-05
3.78864e-06
-2.8986e-06
6.3154e-05
3.99087e-06
-3.91721e-06
6.14696e-05
4.5156e-06
-5.2209e-06
5.92237e-05
5.36215e-06
-6.88243e-06
5.61997e-05
6.53975e-06
-8.98863e-06
5.20895e-05
8.08897e-06
-1.16634e-05
4.64148e-05
9.99021e-06
-1.49726e-05
3.85041e-05
1.23191e-05
-1.91268e-05
2.75495e-05
1.46405e-05
-2.36011e-05
1.27726e-05
1.65204e-05
-2.78573e-05
1.15861e-05
-2.07399e-05
6.36e-05
2.74394e-06
-1.17038e-07
6.47177e-05
4.32852e-06
-5.10826e-07
6.53759e-05
4.50049e-06
-9.48201e-07
6.55263e-05
4.25194e-06
-1.41148e-06
6.5264e-05
4.09097e-06
-1.99265e-06
6.46377e-05
4.19065e-06
-2.74328e-06
6.36458e-05
4.60918e-06
-3.71022e-06
6.22263e-05
5.36793e-06
-4.94305e-06
6.02593e-05
6.50146e-06
-6.50794e-06
5.7535e-05
8.06301e-06
-8.48729e-06
5.37405e-05
1.01376e-05
-1.09927e-05
4.83519e-05
1.27882e-05
-1.40973e-05
4.06048e-05
1.61774e-05
-1.79865e-05
2.94726e-05
1.99341e-05
-2.22125e-05
1.38569e-05
2.35488e-05
-2.62287e-05
1.7511e-05
-1.95357e-05
6.33023e-05
2.04123e-06
-8.51975e-08
6.42969e-05
3.45475e-06
-4.47002e-07
6.50192e-05
3.85455e-06
-8.59975e-07
6.53617e-05
3.9143e-06
-1.29925e-06
6.53393e-05
4.02494e-06
-1.84877e-06
6.49706e-05
4.35682e-06
-2.55467e-06
6.42487e-05
4.98784e-06
-3.45856e-06
6.31193e-05
5.97292e-06
-4.60465e-06
6.1474e-05
7.38039e-06
-6.05095e-06
5.91068e-05
9.3174e-06
-7.87409e-06
5.56997e-05
1.19274e-05
-1.01701e-05
5.06768e-05
1.54059e-05
-1.30208e-05
4.3183e-05
2.00533e-05
-1.65769e-05
3.19248e-05
2.57227e-05
-2.04912e-05
1.53883e-05
3.20035e-05
-2.41967e-05
2.5376e-05
-1.80785e-05
6.319e-05
1.45453e-06
-4.8836e-08
6.41412e-05
2.63216e-06
-3.73915e-07
6.49285e-05
3.15447e-06
-7.59004e-07
6.54254e-05
3.43645e-06
-1.17083e-06
6.56109e-05
3.76977e-06
-1.68374e-06
6.54916e-05
4.29939e-06
-2.33741e-06
6.5065e-05
5.10746e-06
-3.16675e-06
6.42971e-05
6.26901e-06
-4.20837e-06
6.31135e-05
7.87552e-06
-5.5084e-06
6.13529e-05
1.00831e-05
-7.13182e-06
5.87582e-05
1.30872e-05
-9.1489e-06
5.47773e-05
1.72663e-05
-1.16391e-05
4.85479e-05
2.31191e-05
-1.46914e-05
3.81962e-05
3.12894e-05
-1.80781e-05
2.11994e-05
4.19608e-05
-2.11782e-05
3.99797e-05
-1.58319e-05
6.31695e-05
-1.00684e-08
8.92499e-07
6.41448e-05
-2.95796e-07
1.79375e-06
6.50201e-05
-6.51099e-07
2.37819e-06
6.56603e-05
-1.03371e-06
2.83048e-06
6.6032e-05
-1.50766e-06
3.34856e-06
6.61408e-05
-2.10576e-06
4.04136e-06
6.59927e-05
-2.85602e-06
4.98708e-06
6.55721e-05
-3.78714e-06
6.27328e-06
6.48322e-05
-4.9334e-06
8.00837e-06
6.36482e-05
-6.34775e-06
1.03942e-05
6.18154e-05
-8.07539e-06
1.36711e-05
5.88153e-05
-1.01923e-05
1.84322e-05
5.38699e-05
-1.2726e-05
2.53521e-05
4.47671e-05
-1.55747e-05
3.62797e-05
2.87287e-05
-1.80782e-05
5.19785e-05
-1.38162e-05
6.28629e-05
5.18234e-05
1.07159e-05
-7.7967e-08
4.47384e-05
7.11048e-06
-3.08989e-07
4.03695e-05
4.34957e-06
-5.55624e-07
3.79664e-05
2.32607e-06
-8.16013e-07
3.64131e-05
1.40078e-06
-1.15097e-06
3.51615e-05
1.00318e-06
-1.58677e-06
3.39025e-05
8.88231e-07
-2.14892e-06
3.24595e-05
9.13803e-07
-2.86105e-06
3.06923e-05
1.02965e-06
-3.75743e-06
2.84734e-05
1.19985e-06
-4.86528e-06
2.56363e-05
1.43099e-06
-6.23862e-06
2.20367e-05
1.65635e-06
-7.84331e-06
1.73805e-05
1.94527e-06
-9.77748e-06
1.16639e-05
2.03293e-06
-1.15983e-05
4.62511e-06
2.13162e-06
-1.31406e-05
6.05527e-07
-9.40756e-06
6.50474e-05
8.20444e-06
-1.78851e-07
6.45875e-05
7.57706e-06
-5.5741e-07
6.32858e-05
5.59182e-06
-9.42756e-07
6.17429e-05
3.72569e-06
-1.34015e-06
6.01877e-05
2.70392e-06
-1.83731e-06
5.85634e-05
2.23576e-06
-2.48393e-06
5.67322e-05
2.14813e-06
-3.32242e-06
5.45347e-05
2.3059e-06
-4.39242e-06
5.17953e-05
2.65441e-06
-5.74679e-06
4.83069e-05
3.15449e-06
-7.43391e-06
4.38165e-05
3.8107e-06
-9.53231e-06
3.80125e-05
4.54613e-06
-1.20199e-05
3.04846e-05
5.41688e-06
-1.50082e-05
2.09253e-05
6.06638e-06
-1.79328e-05
9.25224e-06
6.48447e-06
-2.03253e-05
3.82006e-06
-1.45913e-05
6.53403e-05
5.39947e-06
-1.93814e-07
6.63903e-05
6.53101e-06
-5.94016e-07
6.63071e-05
5.61054e-06
-9.94446e-07
6.55149e-05
4.36733e-06
-1.40396e-06
6.43766e-05
3.57977e-06
-1.91534e-06
6.29673e-05
3.23919e-06
-2.581e-06
6.12391e-05
3.28568e-06
-3.44497e-06
5.9074e-05
3.63963e-06
-4.54863e-06
5.6309e-05
4.27003e-06
-5.94651e-06
5.27273e-05
5.1553e-06
-7.69057e-06
4.80474e-05
6.31519e-06
-9.86105e-06
4.19032e-05
7.68481e-06
-1.24429e-05
3.38063e-05
9.32674e-06
-1.55441e-05
2.3349e-05
1.08074e-05
-1.85992e-05
1.03761e-05
1.18733e-05
-2.10851e-05
7.93851e-06
-1.50907e-05
6.41625e-05
3.7746e-06
-1.81309e-07
6.53148e-05
5.38708e-06
-5.71414e-07
6.57003e-05
5.16667e-06
-9.62147e-07
6.54212e-05
4.50376e-06
-1.36113e-06
6.46961e-05
4.05282e-06
-1.85917e-06
6.35985e-05
3.94478e-06
-2.50661e-06
6.21139e-05
4.19856e-06
-3.34547e-06
6.01542e-05
4.79384e-06
-4.41548e-06
5.75742e-05
5.73622e-06
-5.76857e-06
5.41581e-05
7.03884e-06
-7.45612e-06
4.961e-05
8.7539e-06
-9.55398e-06
4.35225e-05
1.08536e-05
-1.20538e-05
3.53383e-05
1.3438e-05
-1.50539e-05
2.45701e-05
1.59965e-05
-1.80221e-05
1.09202e-05
1.80978e-05
-2.04318e-05
1.27213e-05
-1.46025e-05
6.35399e-05
2.7762e-06
-1.58519e-07
6.4549e-05
4.39406e-06
-5.26905e-07
6.50775e-05
4.59049e-06
-9.00556e-07
6.5087e-05
4.3654e-06
-1.28257e-06
6.46699e-05
4.23581e-06
-1.7586e-06
6.38664e-05
4.38025e-06
-2.37528e-06
6.26638e-05
4.8621e-06
-3.17114e-06
6.09892e-05
5.70805e-06
-4.18261e-06
5.87132e-05
6.96091e-06
-5.45664e-06
5.56267e-05
8.67983e-06
-7.04179e-06
5.14273e-05
1.09657e-05
-9.00508e-06
4.56562e-05
1.38732e-05
-1.13459e-05
3.76523e-05
1.76004e-05
-1.4145e-05
2.66912e-05
2.1676e-05
-1.69308e-05
1.21248e-05
2.56112e-05
-1.91758e-05
1.89994e-05
-1.36891e-05
6.32448e-05
2.07754e-06
-1.31296e-07
6.4136e-05
3.52832e-06
-4.72464e-07
6.4736e-05
3.95589e-06
-8.25391e-07
6.49468e-05
4.04251e-06
-1.18713e-06
6.47813e-05
4.1891e-06
-1.63655e-06
6.42503e-05
4.5723e-06
-2.21581e-06
6.33368e-05
5.27624e-06
-2.95918e-06
6.19767e-05
6.36254e-06
-3.89897e-06
6.00527e-05
7.90979e-06
-5.07591e-06
5.73594e-05
1.00339e-05
-6.53484e-06
5.35876e-05
1.28989e-05
-8.3316e-06
4.82193e-05
1.66956e-05
-1.04749e-05
4.04917e-05
2.17728e-05
-1.30217e-05
2.93909e-05
2.78653e-05
-1.55798e-05
1.38062e-05
3.46139e-05
-1.76146e-05
2.7312e-05
-1.25848e-05
6.31356e-05
1.49339e-06
-1.00252e-07
6.39894e-05
2.71074e-06
-4.10161e-07
6.46629e-05
3.26285e-06
-7.3944e-07
6.50388e-05
3.57381e-06
-1.07804e-06
6.5095e-05
3.94588e-06
-1.49676e-06
6.48315e-05
4.53085e-06
-2.03246e-06
6.42374e-05
5.41771e-06
-2.7141e-06
6.32707e-05
6.6892e-06
-3.5683e-06
6.18507e-05
8.44835e-06
-4.627e-06
5.98178e-05
1.08628e-05
-5.92771e-06
5.69247e-05
1.41518e-05
-7.50866e-06
5.26683e-05
1.86957e-05
-9.38276e-06
4.62647e-05
2.50526e-05
-1.15676e-05
3.60734e-05
3.37481e-05
-1.37696e-05
1.98848e-05
4.50564e-05
-1.54321e-05
4.2376e-05
-1.10112e-05
6.31182e-05
-6.72015e-08
9.32279e-07
6.40028e-05
-3.43619e-07
1.87402e-06
6.47732e-05
-6.47642e-07
2.48897e-06
6.53039e-05
-9.61614e-07
2.97101e-06
6.55609e-05
-1.34763e-06
3.52884e-06
6.55445e-05
-1.83694e-06
4.27847e-06
6.5254e-05
-2.45298e-06
5.3052e-06
6.46675e-05
-3.21639e-06
6.70497e-06
6.37343e-05
-4.15024e-06
8.59835e-06
6.23324e-05
-5.28428e-06
1.12012e-05
6.02688e-05
-6.63936e-06
1.47793e-05
5.70666e-05
-8.23189e-06
1.99376e-05
5.20181e-05
-1.00402e-05
2.74153e-05
4.31001e-05
-1.18759e-05
3.89673e-05
2.77653e-05
-1.31756e-05
5.54886e-05
-9.57975e-06
6.59048e-05
5.17876e-05
1.07201e-05
-8.56337e-08
4.46372e-05
7.121e-06
-2.79657e-07
4.01922e-05
4.36214e-06
-4.72754e-07
3.77073e-05
2.34048e-06
-6.7161e-07
3.60638e-05
1.41882e-06
-9.26211e-07
3.47081e-05
1.02665e-06
-1.25779e-06
3.33249e-05
9.19289e-07
-1.685e-06
3.1732e-05
9.54907e-07
-2.2231e-06
2.97847e-05
1.08398e-06
-2.8941e-06
2.73581e-05
1.27114e-06
-3.70975e-06
2.42963e-05
1.52426e-06
-4.70106e-06
2.04982e-05
1.77784e-06
-5.8231e-06
1.57477e-05
2.10266e-06
-7.12961e-06
1.01967e-05
2.24216e-06
-8.28945e-06
3.8336e-06
2.37691e-06
-9.1544e-06
8.67884e-07
-6.44183e-06
6.49969e-05
8.21594e-06
-1.71565e-07
6.44458e-05
7.60103e-06
-4.86326e-07
6.30321e-05
5.623e-06
-7.89923e-07
6.13644e-05
3.7634e-06
-1.09542e-06
5.96697e-05
2.75126e-06
-1.47502e-06
5.78841e-05
2.29706e-06
-1.96871e-06
5.58601e-05
2.22901e-06
-2.60817e-06
5.34296e-05
2.41311e-06
-3.4201e-06
5.04092e-05
2.79668e-06
-4.43913e-06
4.65948e-05
3.34156e-06
-5.68994e-06
4.17483e-05
4.05587e-06
-7.2174e-06
3.56231e-05
4.8605e-06
-8.97736e-06
2.79231e-05
5.81783e-06
-1.10232e-05
1.85985e-05
6.55735e-06
-1.29234e-05
7.90301e-06
7.04727e-06
-1.43001e-05
4.27277e-06
-1.00931e-05
6.52891e-05
5.41722e-06
-1.84247e-07
6.62458e-05
6.5672e-06
-5.168e-07
6.60476e-05
5.65918e-06
-8.3248e-07
6.5127e-05
4.42749e-06
-1.1474e-06
6.38451e-05
3.65572e-06
-1.53796e-06
6.22698e-05
3.33775e-06
-2.04635e-06
6.03433e-05
3.41599e-06
-2.70551e-06
5.79384e-05
3.81292e-06
-3.54346e-06
5.48835e-05
4.50093e-06
-4.59595e-06
5.09645e-05
5.46015e-06
-5.89011e-06
4.59146e-05
6.71629e-06
-7.47163e-06
3.94339e-05
8.19894e-06
-9.30059e-06
3.11519e-05
9.9821e-06
-1.14264e-05
2.09308e-05
1.1594e-05
-1.34146e-05
8.96826e-06
1.27704e-05
-1.48457e-05
8.59478e-06
-1.04445e-05
6.41127e-05
3.79773e-06
-1.74509e-07
6.51737e-05
5.434e-06
-4.99276e-07
6.54475e-05
5.23062e-06
-8.07342e-07
6.50441e-05
4.58378e-06
-1.11399e-06
6.41804e-05
4.15438e-06
-1.49418e-06
6.2923e-05
4.07702e-06
-1.98845e-06
6.12478e-05
4.37395e-06
-2.62827e-06
5.90577e-05
5.02808e-06
-3.44045e-06
5.61989e-05
6.04999e-06
-4.45891e-06
5.24577e-05
7.45571e-06
-5.71046e-06
4.75514e-05
9.30639e-06
-7.23779e-06
4.11361e-05
1.15666e-05
-9.00616e-06
3.27681e-05
1.43546e-05
-1.10584e-05
2.22257e-05
1.70986e-05
-1.29842e-05
9.55996e-06
1.93669e-05
-1.43625e-05
1.36398e-05
-1.00875e-05
6.3492e-05
2.80378e-06
-1.56544e-07
6.44134e-05
4.44996e-06
-4.64284e-07
6.48353e-05
4.66717e-06
-7.5896e-07
6.47269e-05
4.46191e-06
-1.05237e-06
6.41794e-05
4.35877e-06
-1.41548e-06
6.32263e-05
4.54083e-06
-1.886e-06
6.18461e-05
5.07577e-06
-2.49278e-06
5.99573e-05
5.99463e-06
-3.26031e-06
5.74227e-05
7.34691e-06
-4.219e-06
5.40343e-05
9.19637e-06
-5.39406e-06
4.95015e-05
1.16565e-05
-6.8223e-06
4.34233e-05
1.47745e-05
-8.47563e-06
3.52437e-05
1.87749e-05
-1.03856e-05
2.44909e-05
2.31062e-05
-1.21856e-05
1.08477e-05
2.72917e-05
-1.34574e-05
2.02368e-05
-9.43839e-06
6.31991e-05
2.10854e-06
-1.35106e-07
6.4007e-05
3.59103e-06
-4.21468e-07
6.45065e-05
4.04216e-06
-6.99902e-07
6.46073e-05
4.1515e-06
-9.77505e-07
6.43211e-05
4.32838e-06
-1.31998e-06
6.3653e-05
4.75473e-06
-1.7616e-06
6.25779e-05
5.51982e-06
-2.32807e-06
6.10237e-05
6.69078e-06
-3.04095e-06
5.88663e-05
8.35466e-06
-3.92626e-06
5.59005e-05
1.06343e-05
-5.00704e-06
5.18276e-05
1.37105e-05
-6.3126e-06
4.6181e-05
1.77691e-05
-7.82293e-06
3.82922e-05
2.31961e-05
-9.55409e-06
2.73832e-05
2.96321e-05
-1.11966e-05
1.26419e-05
3.67508e-05
-1.23324e-05
2.89444e-05
-8.65047e-06
6.30924e-05
1.52652e-06
-1.10674e-07
6.38681e-05
2.77766e-06
-3.7248e-07
6.44482e-05
3.35505e-06
-6.32407e-07
6.47232e-05
3.69051e-06
-8.9201e-07
6.46703e-05
4.09523e-06
-1.21073e-06
6.42846e-05
4.72677e-06
-1.61883e-06
6.35487e-05
5.67977e-06
-2.13815e-06
6.24141e-05
7.04332e-06
-2.78627e-06
6.07949e-05
8.9301e-06
-3.58325e-06
5.85325e-05
1.15169e-05
-4.54781e-06
5.53895e-05
1.50428e-05
-5.69799e-06
5.09066e-05
1.98889e-05
-7.01959e-06
4.43806e-05
2.6659e-05
-8.50446e-06
3.43727e-05
3.57842e-05
-9.91381e-06
1.8912e-05
4.76035e-05
-1.08241e-05
4.44287e-05
-7.58357e-06
6.30779e-05
-8.46899e-08
9.66145e-07
6.38898e-05
-3.2019e-07
1.94233e-06
6.45744e-05
-5.60351e-07
2.58315e-06
6.50137e-05
-8.00792e-07
3.09033e-06
6.51739e-05
-1.0942e-06
3.68167e-06
6.50512e-05
-1.46658e-06
4.47909e-06
6.46399e-05
-1.93571e-06
5.57381e-06
6.39132e-05
-2.51502e-06
7.06864e-06
6.28171e-05
-3.21841e-06
9.09437e-06
6.12316e-05
-4.05999e-06
1.18781e-05
5.89746e-05
-5.04645e-06
1.5707e-05
5.56065e-05
-6.16882e-06
2.11939e-05
5.04905e-05
-7.39472e-06
2.91295e-05
4.17672e-05
-8.56066e-06
4.11922e-05
2.70682e-05
-9.25105e-06
5.83779e-05
-6.59735e-06
6.85145e-05
5.17609e-05
1.07234e-05
-6.98937e-08
4.45614e-05
7.12925e-06
-2.09416e-07
4.00586e-05
4.37198e-06
-3.41947e-07
3.75116e-05
2.35184e-06
-4.764e-07
3.58e-05
1.43304e-06
-6.47713e-07
3.4368e-05
1.04521e-06
-8.7092e-07
3.28972e-05
9.43967e-07
-1.15818e-06
3.12047e-05
9.87864e-07
-1.51852e-06
2.91474e-05
1.12812e-06
-1.9649e-06
2.66086e-05
1.33022e-06
-2.50116e-06
2.34475e-05
1.60354e-06
-3.1435e-06
1.95935e-05
1.88428e-06
-3.85342e-06
1.48762e-05
2.24494e-06
-4.65719e-06
9.49017e-06
2.43305e-06
-5.33652e-06
3.51176e-06
2.60931e-06
-5.78531e-06
1.09745e-06
-4.0275e-06
6.4959e-05
8.225e-06
-1.32238e-07
6.4339e-05
7.61987e-06
-3.56896e-07
6.28399e-05
5.64749e-06
-5.66378e-07
6.10771e-05
3.79303e-06
-7.73742e-07
5.92767e-05
2.78837e-06
-1.02999e-06
5.73713e-05
2.34505e-06
-1.36311e-06
5.52089e-05
2.29224e-06
-1.79406e-06
5.2619e-05
2.49683e-06
-2.33917e-06
4.94193e-05
2.90769e-06
-3.01905e-06
4.54166e-05
3.48761e-06
-3.84459e-06
4.03941e-05
4.24747e-06
-4.83884e-06
3.41538e-05
5.107e-06
-5.95975e-06
2.64706e-05
6.13327e-06
-7.22845e-06
1.73915e-05
6.94513e-06
-8.35638e-06
7.29056e-06
7.49588e-06
-9.08574e-06
4.63315e-06
-6.33822e-06
6.52508e-05
5.43121e-06
-1.41288e-07
6.61369e-05
6.59566e-06
-3.78616e-07
6.58511e-05
5.69739e-06
-5.9662e-07
6.48324e-05
4.4747e-06
-8.10397e-07
6.34418e-05
3.71517e-06
-1.07414e-06
6.17431e-05
3.41467e-06
-1.41725e-06
5.96742e-05
3.51732e-06
-1.86164e-06
5.71049e-05
3.94709e-06
-2.42448e-06
5.38649e-05
4.67879e-06
-3.12709e-06
4.97507e-05
5.69358e-06
-3.98185e-06
4.45175e-05
7.02122e-06
-5.01214e-06
3.7915e-05
8.58704e-06
-6.1782e-06
2.96471e-05
1.04727e-05
-7.49793e-06
1.9678e-05
1.21794e-05
-8.67986e-06
8.33197e-06
1.34346e-05
-9.43839e-06
9.0827e-06
-6.56204e-06
6.40754e-05
3.81596e-06
-1.34684e-07
6.50676e-05
5.47091e-06
-3.66671e-07
6.52562e-05
5.28086e-06
-5.79443e-07
6.47579e-05
4.64651e-06
-7.87511e-07
6.37893e-05
4.23377e-06
-1.04417e-06
6.24132e-05
4.17999e-06
-1.37766e-06
6.06013e-05
4.50987e-06
-1.80895e-06
5.82539e-05
5.20849e-06
-2.35439e-06
5.52181e-05
6.28977e-06
-3.03416e-06
5.12906e-05
7.7712e-06
-3.86051e-06
4.62094e-05
9.71953e-06
-4.85499e-06
3.96789e-05
1.20927e-05
-5.98129e-06
3.13265e-05
1.502e-05
-7.25332e-06
2.1029e-05
1.78877e-05
-8.39497e-06
8.95979e-06
2.02617e-05
-9.12037e-06
1.42838e-05
-6.32878e-06
6.34562e-05
2.82549e-06
-1.22271e-07
6.43115e-05
4.4939e-06
-3.42554e-07
6.46522e-05
4.72736e-06
-5.46139e-07
6.44539e-05
4.53751e-06
-7.45145e-07
6.38076e-05
4.45477e-06
-9.90165e-07
6.27434e-05
4.66567e-06
-1.30752e-06
6.12361e-05
5.24093e-06
-1.71645e-06
5.92016e-05
6.21446e-06
-2.23183e-06
5.65039e-05
7.6401e-06
-2.87167e-06
5.29447e-05
9.58375e-06
-3.64734e-06
4.82525e-05
1.21663e-05
-4.57694e-06
4.20713e-05
1.54271e-05
-5.62889e-06
3.39099e-05
1.96063e-05
-6.81055e-06
2.33887e-05
2.40971e-05
-7.87379e-06
1.03019e-05
2.84273e-05
-8.53612e-06
2.10611e-05
-5.91374e-06
6.3165e-05
2.13291e-06
-1.07502e-07
6.39102e-05
3.64029e-06
-3.13068e-07
6.43333e-05
4.10984e-06
-5.05481e-07
6.43501e-05
4.2368e-06
-6.93666e-07
6.39725e-05
4.437e-06
-9.2461e-07
6.32026e-05
4.89632e-06
-1.22232e-06
6.20118e-05
5.70763e-06
-1.60396e-06
6.03262e-05
6.94162e-06
-2.08253e-06
5.80227e-05
8.69063e-06
-2.67327e-06
5.49051e-05
1.10808e-05
-3.38638e-06
5.06922e-05
1.4302e-05
-4.23544e-06
4.49581e-05
1.8533e-05
-5.19465e-06
3.70929e-05
2.41798e-05
-6.26233e-06
2.64015e-05
3.08185e-05
-7.22674e-06
1.21662e-05
3.81381e-05
-7.80801e-06
2.99832e-05
-5.40638e-06
6.30604e-05
1.55255e-06
-9.06602e-08
6.37773e-05
2.8302e-06
-2.79323e-07
6.42864e-05
3.42734e-06
-4.5903e-07
6.44843e-05
3.78179e-06
-6.34919e-07
6.43487e-05
4.21164e-06
-8.49702e-07
6.38722e-05
4.87867e-06
-1.12469e-06
6.30347e-05
5.8815e-06
-1.47454e-06
6.17865e-05
7.31326e-06
-1.90976e-06
6.00433e-05
9.29249e-06
-2.44191e-06
5.76549e-05
1.20003e-05
-3.07891e-06
5.44004e-05
1.56863e-05
-3.82779e-06
4.98555e-05
2.07261e-05
-4.66775e-06
4.33671e-05
2.77473e-05
-5.58359e-06
3.35654e-05
3.71147e-05
-6.40835e-06
1.85456e-05
4.91969e-05
-6.8631e-06
4.56919e-05
-4.74656e-06
6.30479e-05
-7.27652e-08
9.92725e-07
6.38053e-05
-2.43318e-07
1.99592e-06
6.44248e-05
-4.09452e-07
2.65695e-06
6.47944e-05
-5.72243e-07
3.1836e-06
6.4881e-05
-7.69788e-07
3.8007e-06
6.46791e-05
-1.02055e-06
4.6345e-06
6.41811e-05
-1.3365e-06
5.78033e-06
6.33595e-05
-1.72555e-06
7.3453e-06
6.21627e-05
-2.19542e-06
9.46629e-06
6.04789e-05
-2.75149e-06
1.23756e-05
5.81414e-05
-3.3941e-06
1.63715e-05
5.47412e-05
-4.10706e-06
2.20645e-05
4.9685e-05
-4.86163e-06
3.02704e-05
4.11674e-05
-5.53857e-06
4.26103e-05
2.68567e-05
-5.86965e-06
6.01262e-05
-4.12661e-06