/*--------------------------------*- C++ -*----------------------------------*\
| =========                 |                                                 |
| \\      /  F ield         | OpenFOAM: The Open Source CFD Toolbox           |
|  \\    /   O peration     | Version:  v1912                                 |
|   \\  /    A nd           | Website:  www.openfoam.com                      |
|    \\/     M anipulation  |                                                 |
\*---------------------------------------------------------------------------*/
FoamFile
{
    version     2.0;
    format      ascii;
    class       volScalarField;
    location    "0.29/solid";
    object      epsilonEq;
}
// * * * * * * * * * * * * * * * * * * * * * * * * * * * * * * * * * * * * * //

dimensions      [0 0 0 0 0 0 0];


internalField   nonuniform List<scalar> 
256
(
2.366e-06
1.8709e-06
1.85388e-06
2.29806e-06
1.61522e-06
1.54496e-06
1.52667e-06
1.55297e-06
1.66838e-06
1.54166e-06
1.52308e-06
1.60759e-06
1.75492e-06
1.58483e-06
1.56641e-06
1.69541e-06
1.843e-06
1.65672e-06
1.63843e-06
1.78421e-06
1.93439e-06
1.75492e-06
1.73666e-06
1.87602e-06
1.79965e-06
1.76677e-06
1.74971e-06
1.74621e-06
1.35909e-07
1.93619e-06
1.92155e-06
1.36753e-07
1.65591e-06
3.53347e-07
3.45783e-07
1.58195e-06
1.37131e-06
3.21981e-07
3.13569e-07
1.30106e-06
1.38147e-06
2.66551e-07
2.59254e-07
1.31178e-06
1.42109e-06
2.26235e-07
2.19742e-07
1.35109e-06
1.48342e-06
2.15593e-07
2.09478e-07
1.41266e-06
1.57225e-06
2.07806e-07
2.02079e-07
1.501e-06
1.57689e-06
2.73275e-08
2.94625e-08
1.50981e-06
1.79909e-06
1.76729e-06
1.75067e-06
1.74696e-06
1.48261e-06
2.12445e-07
2.06161e-07
1.41317e-06
1.32566e-06
2.53668e-07
2.44233e-07
1.25643e-06
1.34464e-06
2.30731e-07
2.21469e-07
1.27415e-06
1.38089e-06
1.99589e-07
1.90414e-07
1.30917e-06
1.43994e-06
1.87689e-07
1.78411e-07
1.36678e-06
1.5303e-06
1.84027e-07
1.74877e-07
1.45605e-06
1.5716e-06
2.02291e-07
1.9805e-07
1.50119e-06
1.9338e-06
1.75611e-06
1.73867e-06
1.87849e-06
1.3622e-06
1.86508e-07
1.80784e-07
1.29792e-06
1.23278e-06
2.30847e-07
2.22464e-07
1.16744e-06
1.25787e-06
2.1798e-07
2.09363e-07
1.19026e-06
1.29424e-06
1.92704e-07
1.83969e-07
1.22476e-06
1.35099e-06
1.81714e-07
1.72795e-07
1.27965e-06
1.43836e-06
1.78394e-07
1.69608e-07
1.36558e-06
1.48189e-06
1.9994e-07
1.9624e-07
1.41271e-06
1.84652e-06
1.66052e-06
1.64353e-06
1.7931e-06
1.29162e-06
1.73054e-07
1.6742e-07
1.23116e-06
1.16994e-06
2.14109e-07
2.06636e-07
1.10779e-06
1.19784e-06
2.04495e-07
1.96723e-07
1.13293e-06
1.23484e-06
1.82049e-07
1.7403e-07
1.16762e-06
1.29062e-06
1.71498e-07
1.6319e-07
1.22122e-06
1.376e-06
1.6782e-07
1.59584e-07
1.30489e-06
1.41844e-06
1.85344e-07
1.82486e-07
1.35079e-06
1.77423e-06
1.59312e-06
1.57655e-06
1.72277e-06
1.24962e-06
1.64743e-07
1.59196e-07
1.19174e-06
1.13136e-06
2.03272e-07
1.96433e-07
1.07143e-06
1.16031e-06
1.94718e-07
1.87609e-07
1.09738e-06
1.19764e-06
1.73431e-07
1.6603e-07
1.13212e-06
1.25294e-06
1.62955e-07
1.55171e-07
1.18499e-06
1.33713e-06
1.59202e-07
1.514e-07
1.26727e-06
1.37836e-06
1.74178e-07
1.72012e-07
1.31185e-06
1.72716e-06
1.55082e-06
1.53455e-06
1.67722e-06
1.22543e-06
1.59698e-07
1.54241e-07
1.16915e-06
1.10905e-06
1.96816e-07
1.90386e-07
1.05051e-06
1.13833e-06
1.88608e-07
1.81936e-07
1.07668e-06
1.17576e-06
1.67769e-07
1.60796e-07
1.11136e-06
1.23076e-06
1.57173e-07
1.49754e-07
1.16378e-06
1.31426e-06
1.53409e-07
1.45894e-07
1.24521e-06
1.35464e-06
1.6739e-07
1.65693e-07
1.28889e-06
1.69916e-06
1.52612e-06
1.51004e-06
1.65024e-06
1.21427e-06
1.57286e-07
1.51885e-07
1.15875e-06
1.09877e-06
1.93796e-07
1.87571e-07
1.04091e-06
1.12813e-06
1.857e-07
1.79246e-07
1.06712e-06
1.16557e-06
1.65016e-07
1.58261e-07
1.10173e-06
1.22043e-06
1.54315e-07
1.47084e-07
1.15392e-06
1.30359e-06
1.50545e-07
1.43173e-07
1.23495e-06
1.34357e-06
1.64287e-07
1.62826e-07
1.27818e-06
1.68609e-06
1.51472e-06
1.49874e-06
1.63769e-06
)
;

boundaryField
{
    interface
    {
        type            calculated;
        value           nonuniform List<scalar> 
192
(
3.24093e-06
2.43377e-06
2.50741e-06
2.62235e-06
2.74699e-06
2.89553e-06
2.8606e-06
1.52452e-06
2.83184e-06
2.46077e-06
2.49409e-06
2.5751e-06
2.69272e-06
2.86741e-06
3.00117e-06
2.86043e-06
2.54311e-06
2.30937e-06
2.34919e-06
2.42408e-06
2.53638e-06
2.70994e-06
2.86795e-06
2.89612e-06
2.33951e-06
2.1395e-06
2.18518e-06
2.259e-06
2.36795e-06
2.53709e-06
2.69503e-06
2.75314e-06
2.22005e-06
2.03084e-06
2.07931e-06
2.15334e-06
2.26089e-06
2.42724e-06
2.58277e-06
2.64771e-06
2.14908e-06
1.96498e-06
2.01459e-06
2.08882e-06
2.19571e-06
2.36032e-06
2.51355e-06
2.58044e-06
2.10838e-06
1.92706e-06
1.97708e-06
2.0514e-06
2.15791e-06
2.32145e-06
2.47304e-06
2.5406e-06
2.08967e-06
1.90962e-06
1.95977e-06
2.03411e-06
2.14044e-06
2.30345e-06
2.45421e-06
2.52201e-06
3.37939e-06
2.58805e-06
2.6616e-06
2.77685e-06
2.90222e-06
3.0531e-06
3.034e-06
1.82138e-06
3.19992e-06
2.77777e-06
2.79923e-06
2.88371e-06
3.01016e-06
3.19438e-06
3.33756e-06
3.15919e-06
3.16937e-06
2.74505e-06
2.76547e-06
2.84977e-06
2.97619e-06
3.16028e-06
3.30421e-06
3.1332e-06
3.28926e-06
2.50307e-06
2.57616e-06
2.69171e-06
2.81728e-06
2.96791e-06
2.95154e-06
1.77885e-06
3.14279e-06
2.33815e-06
2.41231e-06
2.52785e-06
2.65287e-06
2.80226e-06
2.77442e-06
1.48977e-06
2.71278e-06
2.34386e-06
2.37618e-06
2.4556e-06
2.57142e-06
2.74489e-06
2.8835e-06
2.77508e-06
2.42823e-06
2.19327e-06
2.23062e-06
2.30305e-06
2.41273e-06
2.58407e-06
2.74567e-06
2.80494e-06
2.23082e-06
2.02814e-06
2.0704e-06
2.14113e-06
2.24697e-06
2.41334e-06
2.57409e-06
2.66273e-06
2.11603e-06
1.92335e-06
1.9679e-06
2.03839e-06
2.14248e-06
2.3057e-06
2.46355e-06
2.5587e-06
2.04819e-06
1.86016e-06
1.90557e-06
1.976e-06
2.07915e-06
2.24037e-06
2.3956e-06
2.49257e-06
2.0094e-06
1.8239e-06
1.8696e-06
1.93995e-06
2.04256e-06
2.20253e-06
2.35592e-06
2.45352e-06
1.9916e-06
1.80727e-06
1.85304e-06
1.92333e-06
2.02569e-06
2.18504e-06
2.33751e-06
2.43534e-06
1.82199e-06
3.03401e-06
3.05362e-06
2.9083e-06
2.80257e-06
2.73525e-06
2.69538e-06
2.67678e-06
3.15966e-06
3.3386e-06
3.19705e-06
3.01763e-06
2.90106e-06
2.82904e-06
2.78697e-06
2.76747e-06
3.13365e-06
3.30549e-06
3.16344e-06
2.98446e-06
2.86823e-06
2.79644e-06
2.75453e-06
2.73511e-06
1.77926e-06
2.95238e-06
2.97073e-06
2.82755e-06
2.72365e-06
2.65774e-06
2.61881e-06
2.60069e-06
)
;
    }
    symmetry
    {
        type            symmetry;
    }
    bottom
    {
        type            calculated;
        value           nonuniform List<scalar> 
32
(
3.10838e-06
1.94392e-06
1.68509e-06
1.55316e-06
1.47834e-06
1.43322e-06
1.40701e-06
1.3949e-06
2.17782e-06
4.30188e-07
2.35552e-07
2.09288e-07
1.98491e-07
1.91087e-07
1.8631e-07
1.83984e-07
2.16117e-06
4.20872e-07
2.27e-07
2.01479e-07
1.90931e-07
1.83715e-07
1.79088e-07
1.76848e-07
3.03641e-06
1.86602e-06
1.61337e-06
1.48815e-06
1.41818e-06
1.37628e-06
1.35205e-06
1.34087e-06
)
;
    }
}


// ************************************************************************* //
