/*--------------------------------*- C++ -*----------------------------------*\
| =========                 |                                                 |
| \\      /  F ield         | OpenFOAM: The Open Source CFD Toolbox           |
|  \\    /   O peration     | Version:  v1912                                 |
|   \\  /    A nd           | Website:  www.openfoam.com                      |
|    \\/     M anipulation  |                                                 |
\*---------------------------------------------------------------------------*/
FoamFile
{
    version     2.0;
    format      ascii;
    class       volSymmTensorField;
    location    "0.29/solid";
    object      epsilon;
}
// * * * * * * * * * * * * * * * * * * * * * * * * * * * * * * * * * * * * * //

dimensions      [0 0 0 0 0 0 0];


internalField   nonuniform List<symmTensor> 
256
(
(-2.55429e-06 5.95213e-08 -1.68279e-08 9.04674e-07 5.67166e-08 -2.72244e-06)
(-2.49374e-07 -6.93545e-08 -5.35928e-09 5.97972e-07 6.09308e-08 -2.52967e-06)
(-2.47565e-07 9.15583e-08 5.7152e-09 5.86892e-07 6.34213e-08 -2.50865e-06)
(-2.48825e-06 -4.85584e-08 1.8125e-08 8.62222e-07 6.59453e-08 -2.66829e-06)
(-2.51367e-06 -1.47624e-08 -2.24222e-08 -1.77581e-07 -2.13242e-08 -2.67738e-06)
(-3.97632e-07 -2.22907e-08 -8.09433e-09 -1.68102e-08 -1.74254e-08 -2.50051e-06)
(-3.95468e-07 3.91602e-08 9.34012e-09 -2.83651e-08 -1.57748e-08 -2.4785e-06)
(-2.44533e-06 2.20368e-08 2.45921e-08 -2.11323e-07 -1.53099e-08 -2.62419e-06)
(-2.55352e-06 -1.3753e-08 -2.40886e-08 -1.36328e-07 -2.37767e-08 -2.71487e-06)
(-3.97617e-07 -9.6674e-09 -9.01665e-09 -5.30109e-08 -2.29285e-08 -2.51801e-06)
(-3.95792e-07 2.22623e-08 1.05981e-08 -6.39344e-08 -2.18097e-08 -2.49561e-06)
(-2.48435e-06 1.90017e-08 2.64687e-08 -1.67115e-07 -1.96045e-08 -2.66111e-06)
(-2.60879e-06 -3.89651e-09 -2.47439e-08 -6.38602e-08 -1.62643e-08 -2.77482e-06)
(-3.74087e-07 -3.33172e-09 -9.25577e-09 -4.54012e-08 -1.52818e-08 -2.56967e-06)
(-3.72491e-07 1.25769e-08 1.08324e-08 -5.54451e-08 -1.443e-08 -2.54718e-06)
(-2.53898e-06 7.77339e-09 2.71535e-08 -9.2197e-08 -1.30497e-08 -2.72076e-06)
(-2.6929e-06 1.5535e-09 -2.40053e-08 -1.82495e-08 -1.08021e-08 -2.86391e-06)
(-3.61762e-07 -2.2448e-10 -8.7664e-09 -2.47613e-08 -9.14757e-09 -2.66105e-06)
(-3.60221e-07 6.75115e-09 1.02547e-08 -3.43347e-08 -8.4119e-09 -2.63852e-06)
(-2.62267e-06 1.17748e-09 2.64131e-08 -4.51664e-08 -8.0894e-09 -2.80962e-06)
(-2.82457e-06 3.38472e-09 -2.20117e-08 -1.46739e-08 -6.85212e-09 -2.99947e-06)
(-3.59085e-07 -2.53153e-10 -7.65275e-09 -2.46222e-08 -5.11639e-09 -2.8082e-06)
(-3.57766e-07 4.31028e-09 9.10503e-09 -3.39848e-08 -4.38907e-09 -2.78565e-06)
(-2.75515e-06 -1.97958e-09 2.4444e-08 -4.11405e-08 -4.33681e-09 -2.94491e-06)
(-3.00724e-06 9.39294e-09 -1.94998e-08 -4.03572e-07 1.83768e-09 -3.18914e-06)
(-3.64196e-07 -3.3561e-10 -6.37257e-09 -3.82991e-07 2.91761e-09 -3.02366e-06)
(-3.6423e-07 1.47033e-09 7.93818e-09 -3.89799e-07 3.73087e-09 -3.00144e-06)
(-2.94338e-06 -9.96906e-09 2.19898e-08 -4.25389e-07 4.35448e-09 -3.13483e-06)
(-3.20932e-06 1.81238e-08 -1.76908e-08 -3.40661e-06 1.58854e-08 -3.40638e-06)
(-3.89395e-07 6.21776e-09 -5.61827e-09 -3.29387e-06 1.66151e-08 -3.29313e-06)
(-3.92398e-07 -6.92059e-09 7.33254e-09 -3.27499e-06 1.73855e-08 -3.27402e-06)
(-3.16269e-06 -1.99725e-08 2.00952e-08 -3.35963e-06 1.79889e-08 -3.3592e-06)
(-2.24074e-06 5.13989e-08 -1.22939e-08 5.36306e-07 -1.09846e-07 -2.68226e-07)
(-2.16192e-07 -6.44694e-08 -5.45091e-11 2.65022e-07 -8.21471e-08 -2.48594e-07)
(-2.12279e-07 7.57254e-08 1.82858e-09 2.52267e-07 -7.65449e-08 -2.49042e-07)
(-2.16184e-06 -4.44321e-08 1.37201e-08 4.9193e-07 -9.22622e-08 -2.72032e-07)
(-2.23164e-06 -1.42051e-08 -1.4885e-08 -1.64486e-08 -4.87621e-08 -3.87583e-07)
(-3.5304e-07 -2.27482e-08 -1.36848e-09 1.20717e-07 -3.64394e-08 -3.59854e-07)
(-3.48208e-07 3.05093e-08 4.64814e-09 1.08697e-07 -3.27407e-08 -3.61804e-07)
(-2.15093e-06 1.75628e-08 1.71802e-08 -5.0982e-08 -3.63654e-08 -3.96976e-07)
(-2.25836e-06 -1.44266e-08 -1.45888e-08 -3.33915e-08 -4.00088e-08 -3.8753e-07)
(-3.5274e-07 -1.1856e-08 -1.23113e-09 4.00941e-08 -3.56815e-08 -3.56014e-07)
(-3.48205e-07 1.7336e-08 4.83588e-09 2.96715e-08 -3.29888e-08 -3.59014e-07)
(-2.17645e-06 1.65983e-08 1.70439e-08 -6.3273e-08 -3.05919e-08 -4.00095e-07)
(-2.30621e-06 -4.74862e-09 -1.45804e-08 -1.97736e-08 -3.79564e-08 -3.76848e-07)
(-3.29727e-07 -5.50754e-09 -9.75408e-10 -3.6003e-09 -3.5512e-08 -3.44186e-07)
(-3.25289e-07 9.30866e-09 4.39402e-09 -1.30836e-08 -3.33348e-08 -3.47762e-07)
(-2.22281e-06 6.31814e-09 1.70004e-08 -4.71468e-08 -3.02817e-08 -3.91061e-07)
(-2.39076e-06 1.57799e-09 -1.4161e-08 -5.60297e-09 -3.32362e-08 -3.73221e-07)
(-3.19186e-07 -1.7985e-09 -5.71515e-10 -1.2594e-08 -3.14365e-08 -3.4226e-07)
(-3.14628e-07 4.11824e-09 3.7413e-09 -2.17213e-08 -2.95245e-08 -3.4616e-07)
(-2.30571e-06 -6.07646e-10 1.65361e-08 -3.17552e-08 -2.66206e-08 -3.88341e-07)
(-2.53258e-06 4.6175e-09 -1.28308e-08 -1.63934e-08 -2.73486e-08 -3.74095e-07)
(-3.20985e-07 -9.46221e-10 3.08053e-10 -2.62446e-08 -2.63812e-08 -3.46582e-07)
(-3.16483e-07 1.76575e-09 2.73075e-09 -3.50588e-08 -2.46454e-08 -3.50776e-07)
(-2.44662e-06 -4.58418e-09 1.52088e-08 -4.17936e-08 -2.14934e-08 -3.89986e-07)
(-2.7428e-06 1.12823e-08 -1.06811e-08 -3.76136e-07 -2.03357e-08 -3.79622e-07)
(-3.33018e-07 -3.32302e-10 1.46576e-09 -3.54311e-07 -1.99452e-08 -3.55498e-07)
(-3.29825e-07 -6.14355e-10 1.40095e-09 -3.59977e-07 -1.85066e-08 -3.60287e-07)
(-2.66055e-06 -1.28622e-08 1.30023e-08 -3.95522e-07 -1.55711e-08 -3.96929e-07)
(-3.00777e-06 1.97603e-08 -8.51428e-09 -3.18878e-06 2.35068e-09 -4.04455e-07)
(-3.64695e-07 6.73034e-09 2.02387e-09 -3.0242e-06 3.2711e-09 -3.81977e-07)
(-3.64821e-07 -7.68525e-09 -2.47887e-10 -3.00226e-06 4.04447e-09 -3.87937e-07)
(-2.94378e-06 -2.19293e-08 1.02387e-08 -3.13491e-06 4.69176e-09 -4.24489e-07)
(-1.99351e-06 4.62273e-08 -7.50193e-09 3.99788e-07 -2.45801e-08 4.07876e-09)
(-1.92516e-07 -6.27018e-08 3.79549e-10 1.52322e-07 -5.3759e-09 1.86297e-09)
(-1.88436e-07 6.82392e-08 1.60888e-09 1.40318e-07 -7.61317e-10 2.76582e-10)
(-1.91545e-06 -4.16354e-08 8.29079e-09 3.60282e-07 -1.03468e-08 -7.97077e-10)
(-2.02063e-06 -1.17487e-08 -7.72561e-09 -1.62363e-08 -1.67834e-08 -4.91631e-08)
(-3.24843e-07 -2.25531e-08 2.09555e-10 1.0708e-07 -6.67799e-09 -5.22787e-08)
(-3.19449e-07 2.57137e-08 3.22121e-09 9.53095e-08 -2.82908e-09 -5.59002e-08)
(-1.93945e-06 1.33013e-08 9.19618e-09 -5.00438e-08 -4.52279e-09 -6.00696e-08)
(-2.05049e-06 -1.36302e-08 -6.17595e-09 -5.21257e-09 -2.51176e-08 -6.44185e-08)
(-3.28056e-07 -1.25872e-08 8.72575e-10 6.13264e-08 -2.08497e-08 -6.78927e-08)
(-3.22775e-07 1.4397e-08 2.685e-09 5.1042e-08 -1.76515e-08 -7.28079e-08)
(-1.96761e-06 1.43413e-08 7.75849e-09 -3.51591e-08 -1.4715e-08 -7.91124e-08)
(-2.09543e-06 -5.05497e-09 -5.70783e-09 4.88133e-09 -3.33218e-08 -5.61143e-08)
(-3.06707e-07 -6.49663e-09 1.2154e-09 1.92197e-08 -3.08185e-08 -6.02036e-08)
(-3.01398e-07 7.49044e-09 2.0338e-09 9.85393e-09 -2.8064e-08 -6.59101e-08)
(-2.01064e-06 5.5116e-09 7.20307e-09 -2.26503e-08 -2.43271e-08 -7.31268e-08)
(-2.17702e-06 1.52905e-09 -5.74515e-09 6.84814e-09 -3.46477e-08 -4.36808e-08)
(-2.97265e-07 -2.38799e-09 1.2578e-09 -8.83335e-10 -3.29919e-08 -4.86127e-08)
(-2.91722e-07 2.67622e-09 1.66378e-09 -9.86455e-09 -3.05495e-08 -5.48456e-08)
(-2.09005e-06 -1.35321e-09 7.13942e-09 -1.93397e-08 -2.6753e-08 -6.22221e-08)
(-2.31806e-06 5.53584e-09 -5.46704e-09 -1.39642e-08 -3.02232e-08 -3.2645e-08)
(-3.02114e-07 -7.49623e-10 1.50014e-09 -2.39114e-08 -2.95311e-08 -3.8409e-08)
(-2.96535e-07 2.69287e-10 1.16594e-09 -3.24765e-08 -2.74051e-08 -4.51028e-08)
(-2.22939e-06 -6.00955e-09 6.78775e-09 -3.90906e-08 -2.34029e-08 -5.24766e-08)
(-2.5331e-06 1.33456e-08 -4.28296e-09 -3.65554e-07 -2.31852e-08 -2.40326e-08)
(-3.20302e-07 6.14361e-10 2.14849e-09 -3.41015e-07 -2.26959e-08 -3.034e-08)
(-3.16001e-07 -2.13911e-09 3.68105e-11 -3.46337e-07 -2.11114e-08 -3.75493e-08)
(-2.44699e-06 -1.5168e-08 5.426e-09 -3.84445e-07 -1.80179e-08 -4.52374e-08)
(-2.82575e-06 2.2184e-08 -2.53608e-09 -2.99837e-06 -4.58308e-09 -1.54873e-08)
(-3.59152e-07 7.88921e-09 2.35994e-09 -2.80866e-06 -3.20598e-09 -2.23149e-08)
(-3.58217e-07 -8.91289e-09 -1.76918e-09 -2.7865e-06 -2.5915e-09 -2.996e-08)
(-2.75623e-06 -2.44296e-08 2.97447e-09 -2.94473e-06 -2.5743e-09 -3.78101e-08)
(-1.84118e-06 4.21904e-08 -4.64602e-09 3.50363e-07 5.63036e-10 7.93829e-09)
(-1.77738e-07 -6.18221e-08 4.35831e-10 1.16849e-07 1.20633e-08 5.29508e-09)
(-1.74321e-07 6.42663e-08 1.43295e-09 1.06062e-07 1.54927e-08 4.07079e-09)
(-1.76648e-06 -3.92677e-08 5.19235e-09 3.16131e-07 1.10683e-08 4.42318e-09)
(-1.87671e-06 -1.0455e-08 -5.30126e-09 -3.98264e-08 -4.8911e-10 -1.57014e-08)
(-3.05847e-07 -2.23494e-08 5.31052e-10 7.6145e-08 6.34567e-09 -2.08036e-08)
(-3.01122e-07 2.30643e-08 2.7291e-09 6.50794e-08 9.55649e-09 -2.37677e-08)
(-1.79844e-06 1.10281e-08 6.40193e-09 -7.17585e-08 9.46687e-09 -2.42066e-08)
(-1.91074e-06 -1.26348e-08 -4.10252e-09 -1.44431e-08 -1.15165e-08 -3.40612e-08)
(-3.12745e-07 -1.26794e-08 1.12843e-09 4.82782e-08 -8.12467e-09 -4.019e-08)
(-3.07933e-07 1.25489e-08 2.23107e-09 3.82137e-08 -5.21719e-09 -4.43519e-08)
(-1.83029e-06 1.26087e-08 5.30214e-09 -4.40514e-08 -2.39161e-09 -4.60806e-08)
(-1.95601e-06 -5.05233e-09 -3.57522e-09 5.4271e-09 -2.30776e-08 -3.62813e-08)
(-2.93727e-07 -6.92627e-09 1.39664e-09 1.86609e-08 -2.08313e-08 -4.31274e-08)
(-2.88757e-07 6.46765e-09 1.63792e-09 9.31191e-09 -1.82004e-08 -4.81289e-08)
(-1.87332e-06 4.94862e-09 4.67981e-09 -2.23383e-08 -1.47835e-08 -5.08045e-08)
(-2.03611e-06 1.26603e-09 -3.70519e-09 8.9489e-09 -2.86744e-08 -2.99985e-08)
(-2.84796e-07 -2.78035e-09 1.27038e-09 6.4784e-10 -2.69779e-08 -3.73132e-08)
(-2.79515e-07 2.09399e-09 1.40016e-09 -8.35826e-09 -2.46139e-08 -4.29453e-08)
(-1.95094e-06 -1.46561e-09 4.68229e-09 -1.75902e-08 -2.12499e-08 -4.63957e-08)
(-2.17539e-06 5.84635e-09 -3.85265e-09 -1.43562e-08 -2.72324e-08 -2.24691e-08)
(-2.90665e-07 -6.08606e-10 1.16185e-09 -2.41578e-08 -2.62599e-08 -2.98904e-08)
(-2.85296e-07 -3.94727e-10 1.15532e-09 -3.27532e-08 -2.42439e-08 -3.60445e-08)
(-2.08811e-06 -6.51137e-09 4.70344e-09 -3.98231e-08 -2.08874e-08 -4.03919e-08)
(-2.39049e-06 1.48764e-08 -3.35273e-09 -3.58615e-07 -2.1002e-08 -1.71433e-08)
(-3.12547e-07 1.5536e-09 1.3558e-09 -3.31151e-07 -2.02256e-08 -2.44493e-08)
(-3.08409e-07 -3.26137e-09 3.36001e-10 -3.36583e-07 -1.8799e-08 -3.10173e-08)
(-2.30504e-06 -1.67499e-08 3.96763e-09 -3.78021e-07 -1.63691e-08 -3.62765e-08)
(-2.69446e-06 2.432e-08 -2.42546e-09 -2.86355e-06 -4.78655e-09 -1.34287e-08)
(-3.56714e-07 9.02101e-09 1.13639e-09 -2.66247e-06 -3.49913e-09 -2.08662e-08)
(-3.55896e-07 -1.01536e-08 -1.02488e-09 -2.64051e-06 -3.0126e-09 -2.75828e-08)
(-2.62412e-06 -2.66236e-08 2.36523e-09 -2.81077e-06 -3.13487e-09 -3.30525e-08)
(-1.75219e-06 3.93055e-08 -2.77733e-09 3.25848e-07 4.14598e-09 1.16794e-09)
(-1.68823e-07 -6.14916e-08 3.33781e-10 1.00835e-07 1.11584e-08 -4.06826e-10)
(-1.66052e-07 6.21764e-08 1.16941e-09 9.11223e-08 1.36075e-08 -1.34232e-09)
(-1.68026e-06 -3.74799e-08 3.20801e-09 2.95849e-07 1.15809e-08 -1.52408e-09)
(-1.78862e-06 -1.01242e-08 -3.55245e-09 -5.68587e-08 2.56238e-09 -1.16296e-08)
(-2.92686e-07 -2.23348e-08 4.27634e-10 5.5172e-08 7.26018e-09 -1.51402e-08)
(-2.8874e-07 2.16648e-08 2.28129e-09 4.48384e-08 9.66439e-09 -1.74909e-08)
(-1.71304e-06 1.01198e-08 4.44223e-09 -8.68342e-08 9.91236e-09 -1.83721e-08)
(-1.82472e-06 -1.20477e-08 -2.96436e-09 -3.01211e-08 -5.08781e-09 -2.6127e-08)
(-3.01398e-07 -1.26966e-08 7.81007e-10 3.04193e-08 -2.43573e-09 -3.0558e-08)
(-2.97224e-07 1.14704e-08 2.06553e-09 2.0646e-08 -1.47619e-10 -3.3951e-08)
(-1.74665e-06 1.16153e-08 3.95159e-09 -5.90773e-08 1.9825e-09 -3.5937e-08)
(-1.87087e-06 -4.9843e-09 -2.61745e-09 -4.65885e-09 -1.45144e-08 -3.32797e-08)
(-2.84135e-07 -7.14805e-09 9.24548e-10 7.92455e-09 -1.26189e-08 -3.82984e-08)
(-2.79693e-07 5.87485e-09 1.66162e-09 -1.38601e-09 -1.04732e-08 -4.24955e-08)
(-1.79031e-06 4.57375e-09 3.52893e-09 -3.24701e-08 -7.84168e-09 -4.55128e-08)
(-1.95046e-06 1.04893e-09 -2.70782e-09 3.51027e-09 -2.05108e-08 -3.37743e-08)
(-2.75547e-07 -3.05881e-09 7.76582e-10 -5.11669e-09 -1.8954e-08 -3.92426e-08)
(-2.70733e-07 1.83861e-09 1.47108e-09 -1.41944e-08 -1.69974e-08 -4.40914e-08)
(-1.8672e-06 -1.45124e-09 3.4974e-09 -2.33917e-08 -1.44221e-08 -4.79806e-08)
(-2.08845e-06 5.94001e-09 -2.88754e-09 -1.73991e-08 -2.07591e-08 -3.22664e-08)
(-2.81685e-07 -5.60752e-10 5.88226e-10 -2.69781e-08 -1.96881e-08 -3.79422e-08)
(-2.76741e-07 -7.22775e-10 1.28935e-09 -3.57099e-08 -1.80295e-08 -4.3321e-08)
(-2.00284e-06 -6.70375e-09 3.539e-09 -4.33945e-08 -1.55548e-08 -4.80774e-08)
(-2.30243e-06 1.58583e-08 -2.70353e-09 -3.53763e-07 -1.60256e-08 -3.29588e-08)
(-3.05585e-07 2.21185e-09 5.54812e-10 -3.2414e-07 -1.51826e-08 -3.85882e-08)
(-3.01829e-07 -4.0401e-09 7.11881e-10 -3.29787e-07 -1.40323e-08 -4.43301e-08)
(-2.2182e-06 -1.77641e-08 3.12013e-09 -3.73888e-07 -1.22733e-08 -4.9913e-08)
(-2.61047e-06 2.57769e-08 -2.31929e-09 -2.77826e-06 -3.76408e-09 -3.73762e-08)
(-3.52992e-07 9.82263e-09 1.37752e-10 -2.57238e-06 -2.7784e-09 -4.28261e-08)
(-3.52522e-07 -1.10731e-08 -2.19696e-10 -2.55063e-06 -2.39759e-09 -4.86332e-08)
(-2.54037e-06 -2.81463e-08 2.15645e-09 -2.72627e-06 -2.45253e-09 -5.46558e-08)
(-1.6994e-06 3.74401e-08 -1.62056e-09 3.10327e-07 3.59278e-09 -1.71993e-09)
(-1.63487e-07 -6.1426e-08 2.17992e-10 9.06146e-08 7.81488e-09 -2.71508e-09)
(-1.6117e-07 6.10961e-08 8.55426e-10 8.17004e-08 9.45448e-09 -3.48069e-09)
(-1.62932e-06 -3.62912e-08 1.93873e-09 2.83345e-07 8.51877e-09 -3.91152e-09)
(-1.73549e-06 -1.01383e-08 -2.18068e-09 -6.77801e-08 1.89691e-09 -1.07382e-08)
(-2.84043e-07 -2.24257e-08 2.92358e-10 4.2148e-08 5.02893e-09 -1.33177e-08)
(-2.80669e-07 2.0955e-08 1.69538e-09 3.23959e-08 6.66931e-09 -1.52711e-08)
(-1.66176e-06 9.7937e-09 2.84813e-09 -9.61809e-08 6.86557e-09 -1.63082e-08)
(-1.77235e-06 -1.17973e-08 -1.93899e-09 -4.26337e-08 -2.66698e-09 -2.15998e-08)
(-2.9322e-07 -1.27563e-08 4.73346e-10 1.66231e-08 -7.10776e-10 -2.50899e-08)
(-2.89532e-07 1.08872e-08 1.66254e-09 7.12116e-09 8.92958e-10 -2.79568e-08)
(-1.69595e-06 1.11297e-08 2.69302e-09 -7.09179e-08 2.25225e-09 -2.9852e-08)
(-1.81906e-06 -4.95225e-09 -1.76862e-09 -1.55501e-08 -8.71383e-09 -2.99013e-08)
(-2.76864e-07 -7.29516e-09 5.2821e-10 -3.3911e-09 -7.26056e-09 -3.39821e-08)
(-2.72829e-07 5.53123e-09 1.4365e-09 -1.26419e-08 -5.72083e-09 -3.75974e-08)
(-1.73999e-06 4.36048e-09 2.47377e-09 -4.32733e-08 -3.94976e-09 -4.04181e-08)
(-1.89847e-06 9.19378e-10 -1.82443e-09 -3.97824e-09 -1.31088e-08 -3.47938e-08)
(-2.68503e-07 -3.24021e-09 4.10914e-10 -1.28105e-08 -1.18925e-08 -3.93785e-08)
(-2.64047e-07 1.68284e-09 1.29176e-09 -2.19469e-08 -1.047e-08 -4.36316e-08)
(-1.81656e-06 -1.44742e-09 2.4346e-09 -3.11342e-08 -8.69029e-09 -4.72641e-08)
(-2.03557e-06 5.98745e-09 -1.94375e-09 -2.15015e-08 -1.3749e-08 -3.86854e-08)
(-2.74773e-07 -5.4482e-10 2.56469e-10 -3.09073e-08 -1.28576e-08 -4.36299e-08)
(-2.70153e-07 -9.37672e-10 1.13644e-09 -3.97709e-08 -1.16494e-08 -4.8407e-08)
(-1.95115e-06 -6.82103e-09 2.437e-09 -4.79521e-08 -9.95006e-09 -5.27801e-08)
(-2.2483e-06 1.64776e-08 -1.87355e-09 -3.51322e-07 -1.06243e-08 -4.49548e-08)
(-2.99841e-07 2.62729e-09 1.66156e-10 -3.20268e-07 -9.93542e-09 -4.99957e-08)
(-2.96376e-07 -4.56613e-09 7.33547e-10 -3.26104e-07 -9.10101e-09 -5.51186e-08)
(-2.16496e-06 -1.8419e-08 2.17507e-09 -3.72055e-07 -7.88608e-09 -6.01899e-08)
(-2.55787e-06 2.67173e-08 -1.71771e-09 -2.7255e-06 -2.59549e-09 -5.54255e-08)
(-3.49201e-07 1.03395e-08 -2.27216e-10 -2.51736e-06 -1.9154e-09 -6.02147e-08)
(-3.49005e-07 -1.16936e-08 1.09381e-10 -2.49578e-06 -1.63985e-09 -6.53772e-08)
(-2.48805e-06 -2.91489e-08 1.57891e-09 -2.67415e-06 -1.63966e-09 -7.09521e-08)
(-1.66926e-06 3.63414e-08 -8.57635e-10 3.00496e-07 2.26721e-09 -2.60392e-09)
(-1.60427e-07 -6.14342e-08 1.22489e-10 8.39152e-08 4.53696e-09 -3.3057e-09)
(-1.58392e-07 6.05504e-08 5.17473e-10 7.55176e-08 5.47833e-09 -3.97464e-09)
(-1.6003e-06 -3.55782e-08 1.05207e-09 2.75423e-07 5.07237e-09 -4.49474e-09)
(-1.705e-06 -1.02068e-08 -1.16603e-09 -7.46531e-08 9.58954e-10 -1.0248e-08)
(-2.78879e-07 -2.25133e-08 1.78692e-10 3.42e-08 2.75978e-09 -1.23377e-08)
(-2.75863e-07 2.06022e-08 1.02737e-09 2.48353e-08 3.70956e-09 -1.4055e-08)
(-1.63241e-06 9.67409e-09 1.57844e-09 -1.01993e-07 3.81771e-09 -1.50899e-08)
(-1.74209e-06 -1.17063e-08 -1.07023e-09 -5.07217e-08 -1.48678e-09 -1.91568e-08)
(-2.88026e-07 -1.28207e-08 2.68056e-10 7.8204e-09 -2.83493e-10 -2.21955e-08)
(-2.84646e-07 1.05886e-08 1.04943e-09 -1.48466e-09 6.58137e-10 -2.47407e-08)
(-1.66674e-06 1.09072e-08 1.54258e-09 -7.84949e-08 1.38994e-09 -2.64144e-08)
(-1.78905e-06 -4.95224e-09 -1.00098e-09 -2.34303e-08 -4.69431e-09 -2.74849e-08)
(-2.72026e-07 -7.39499e-09 2.83574e-10 -1.15421e-08 -3.77972e-09 -3.11805e-08)
(-2.68251e-07 5.34139e-09 9.42201e-10 -2.07375e-08 -2.86296e-09 -3.4429e-08)
(-1.71093e-06 4.25466e-09 1.44787e-09 -5.10346e-08 -1.86343e-09 -3.68697e-08)
(-1.86835e-06 8.48013e-10 -1.03449e-09 -1.00514e-08 -7.16056e-09 -3.46922e-08)
(-2.63777e-07 -3.34938e-09 2.1051e-10 -1.9026e-08 -6.39846e-09 -3.89414e-08)
(-2.59549e-07 1.57855e-09 8.54026e-10 -2.8196e-08 -5.54343e-09 -4.28089e-08)
(-1.7873e-06 -1.45494e-09 1.42281e-09 -3.73474e-08 -4.50429e-09 -4.59841e-08)
(-2.00488e-06 6.02265e-09 -1.09764e-09 -2.50866e-08 -7.61473e-09 -4.21697e-08)
(-2.70156e-07 -5.36605e-10 1.16622e-10 -3.43951e-08 -7.04941e-09 -4.68474e-08)
(-2.65738e-07 -1.08694e-09 7.46905e-10 -4.33485e-08 -6.32009e-09 -5.12322e-08)
(-1.92122e-06 -6.9063e-09 1.40977e-09 -5.18379e-08 -5.31609e-09 -5.50865e-08)
(-2.21668e-06 1.68564e-08 -1.06641e-09 -3.50524e-07 -5.88506e-09 -5.23322e-08)
(-2.95932e-07 2.87372e-09 4.64151e-11 -3.18603e-07 -5.45667e-09 -5.71796e-08)
(-2.92648e-07 -4.90075e-09 5.01167e-10 -3.24566e-07 -4.95245e-09 -6.19053e-08)
(-2.13391e-06 -1.8829e-08 1.25505e-09 -3.71669e-07 -4.223e-09 -6.64014e-08)
(-2.52687e-06 2.72928e-08 -9.97699e-10 -2.69479e-06 -1.47925e-09 -6.66875e-08)
(-3.46473e-07 1.06503e-08 -2.13978e-10 -2.48554e-06 -1.08518e-09 -7.12923e-08)
(-3.4645e-07 -1.208e-08 1.31058e-10 -2.46407e-06 -9.18396e-10 -7.60473e-08)
(-2.45727e-06 -2.97715e-08 9.12401e-10 -2.64388e-06 -8.9798e-10 -8.10424e-08)
(-1.65546e-06 3.58319e-08 -2.69824e-10 2.95665e-07 7.65905e-10 -2.79323e-09)
(-1.59018e-07 -6.14468e-08 3.95231e-11 8.05443e-08 1.48263e-09 -3.36978e-09)
(-1.57117e-07 6.03198e-08 1.72855e-10 7.2399e-08 1.78945e-09 -3.99335e-09)
(-1.58703e-06 -3.52435e-08 3.34958e-10 2.71513e-07 1.67624e-09 -4.54027e-09)
(-1.69101e-06 -1.0248e-08 -3.66317e-10 -7.80691e-08 2.81794e-10 -9.94263e-09)
(-2.7647e-07 -2.25588e-08 6.12461e-11 3.03298e-08 8.68869e-10 -1.18073e-08)
(-2.73626e-07 2.04529e-08 3.42406e-10 2.11568e-08 1.17952e-09 -1.34126e-08)
(-1.61897e-06 9.63178e-09 5.05357e-10 -1.04881e-07 1.21378e-09 -1.44328e-08)
(-1.72816e-06 -1.16771e-08 -3.39773e-10 -5.46634e-08 -4.97177e-10 -1.80985e-08)
(-2.85532e-07 -1.28573e-08 8.94054e-11 3.56109e-09 -9.17913e-11 -2.09304e-08)
(-2.82301e-07 1.04609e-08 3.5526e-10 -5.64244e-09 2.18079e-10 -2.33211e-08)
(-1.65331e-06 1.08188e-08 5.00189e-10 -8.21669e-08 4.47665e-10 -2.48695e-08)
(-1.77521e-06 -4.95913e-09 -3.21608e-10 -2.74081e-08 -1.4907e-09 -2.63494e-08)
(-2.69641e-07 -7.44611e-09 9.22826e-11 -1.56528e-08 -1.1789e-09 -2.9883e-08)
(-2.65992e-07 5.25638e-09 3.2409e-10 -2.4816e-08 -8.75245e-10 -3.29531e-08)
(-1.69754e-06 4.21205e-09 4.74347e-10 -5.49356e-08 -5.53777e-10 -3.51721e-08)
(-1.85445e-06 8.15341e-10 -3.33228e-10 -1.32897e-08 -2.26609e-09 -3.45236e-08)
(-2.6143e-07 -3.40142e-09 6.7557e-11 -2.23413e-08 -2.00764e-09 -3.86379e-08)
(-2.57312e-07 1.52499e-09 2.94866e-10 -3.15251e-08 -1.72304e-09 -4.23156e-08)
(-1.77381e-06 -1.46117e-09 4.66357e-10 -4.06436e-08 -1.38164e-09 -4.52225e-08)
(-1.99071e-06 6.04285e-09 -3.52825e-10 -2.71102e-08 -2.41647e-09 -4.37065e-08)
(-2.67872e-07 -5.32339e-10 3.6414e-11 -3.63792e-08 -2.22513e-09 -4.82695e-08)
(-2.63552e-07 -1.16559e-09 2.56854e-10 -4.53762e-08 -1.98168e-09 -5.24608e-08)
(-1.9074e-06 -6.95307e-09 4.59714e-10 -5.4006e-08 -1.64809e-09 -5.60276e-08)
(-2.20202e-06 1.70406e-08 -3.43018e-10 -3.50399e-07 -1.86617e-09 -5.5806e-08)
(-2.94e-07 2.99031e-09 1.13032e-11 -3.18069e-07 -1.72315e-09 -6.05596e-08)
(-2.90802e-07 -5.06608e-09 1.73577e-10 -3.24095e-07 -1.55459e-09 -6.50903e-08)
(-2.11953e-06 -1.90309e-08 4.07469e-10 -3.71747e-07 -1.30929e-09 -6.92869e-08)
(-2.51246e-06 2.75701e-08 -3.22021e-10 -2.68061e-06 -4.74752e-10 -7.20467e-08)
(-3.4512e-07 1.07975e-08 -7.81298e-11 -2.47091e-06 -3.4642e-10 -7.65646e-08)
(-3.45181e-07 -1.22672e-08 4.96471e-11 -2.4495e-06 -2.90617e-10 -8.11205e-08)
(-2.44296e-06 -3.0074e-08 2.93644e-10 -2.62993e-06 -2.79783e-10 -8.58124e-08)
)
;

boundaryField
{
    interface
    {
        type            calculated;
        value           nonuniform List<symmTensor> 
192
(
(-4.61787e-06 1.83748e-12 2.43931e-11 9.04674e-07 5.67166e-08 -2.72244e-06)
(-4.36673e-06 4.22264e-13 3.62137e-11 -1.77581e-07 -2.13242e-08 -2.67738e-06)
(-4.45175e-06 -1.84699e-12 3.83301e-11 -1.36328e-07 -2.37767e-08 -2.71487e-06)
(-4.57525e-06 -4.34421e-12 3.81905e-11 -6.38602e-08 -1.62643e-08 -2.77482e-06)
(-4.7433e-06 -6.50426e-12 3.7011e-11 -1.82495e-08 -1.08021e-08 -2.86391e-06)
(-4.99739e-06 -1.07508e-11 3.54589e-11 -1.46739e-08 -6.85212e-09 -2.99947e-06)
(-5.34492e-06 -1.3695e-11 3.20569e-11 -4.03572e-07 1.83768e-09 -3.18914e-06)
(-5.69311e-06 -2.91967e-11 2.92372e-11 -3.40661e-06 1.58854e-08 -3.40638e-06)
(-4.05186e-06 1.13085e-12 1.25134e-11 5.36306e-07 -1.09846e-07 -2.68226e-07)
(-3.87817e-06 -2.59446e-13 1.96677e-11 -1.64486e-08 -4.87621e-08 -3.87583e-07)
(-3.93836e-06 -2.39979e-12 2.06278e-11 -3.33915e-08 -4.00088e-08 -3.8753e-07)
(-4.048e-06 -5.07183e-12 2.02086e-11 -1.97736e-08 -3.79564e-08 -3.76848e-07)
(-4.21552e-06 -7.45124e-12 1.91739e-11 -5.60297e-09 -3.32362e-08 -3.73221e-07)
(-4.48492e-06 -1.22398e-11 1.79149e-11 -1.63934e-08 -2.73486e-08 -3.74095e-07)
(-4.8795e-06 -1.55358e-11 1.57157e-11 -3.76136e-07 -2.03357e-08 -3.79622e-07)
(-5.34559e-06 -3.20588e-11 1.38728e-11 -3.18878e-06 2.35068e-09 -4.04455e-07)
(-3.59707e-06 9.54484e-13 1.00983e-11 3.99788e-07 -2.45801e-08 4.07876e-09)
(-3.49651e-06 -5.46538e-13 1.57365e-11 -1.62363e-08 -1.67834e-08 -4.91631e-08)
(-3.55796e-06 -2.80049e-12 1.64837e-11 -5.21257e-09 -2.51176e-08 -6.44185e-08)
(-3.6609e-06 -5.76148e-12 1.61376e-11 4.88133e-09 -3.33218e-08 -5.61143e-08)
(-3.82225e-06 -8.47952e-12 1.53047e-11 6.84814e-09 -3.46477e-08 -4.36808e-08)
(-4.08784e-06 -1.38859e-11 1.42701e-11 -1.39642e-08 -3.02232e-08 -3.2645e-08)
(-4.48635e-06 -1.77359e-11 1.25895e-11 -3.65554e-07 -2.31852e-08 -2.40326e-08)
(-4.99958e-06 -3.55394e-11 1.10812e-11 -2.99837e-06 -4.58308e-09 -1.54873e-08)
(-3.31756e-06 6.57464e-13 6.42548e-12 3.50363e-07 5.63036e-10 7.93829e-09)
(-3.23695e-06 -9.60401e-13 1.03865e-11 -3.98264e-08 -4.8911e-10 -1.57014e-08)
(-3.30192e-06 -3.2715e-12 1.08752e-11 -1.44431e-08 -1.15165e-08 -3.40612e-08)
(-3.4035e-06 -6.37291e-12 1.0565e-11 5.4271e-09 -2.30776e-08 -3.62813e-08)
(-3.56194e-06 -9.26474e-12 9.9245e-12 8.9489e-09 -2.86744e-08 -2.99985e-08)
(-3.82374e-06 -1.49613e-11 9.15265e-12 -1.43562e-08 -2.72324e-08 -2.24691e-08)
(-4.21943e-06 -1.90554e-11 8.04086e-12 -3.58615e-07 -2.1002e-08 -1.71433e-08)
(-4.74938e-06 -3.72664e-11 7.05961e-12 -2.86355e-06 -4.78655e-09 -1.34287e-08)
(-3.15467e-06 5.4436e-13 4.788e-12 3.25848e-07 4.14598e-09 1.16794e-09)
(-3.08025e-06 -1.19204e-12 7.7154e-12 -5.68587e-08 2.56238e-09 -1.16296e-08)
(-3.14708e-06 -3.60833e-12 8.08435e-12 -3.01211e-08 -5.08781e-09 -2.6127e-08)
(-3.24878e-06 -6.85162e-12 7.85545e-12 -4.65885e-09 -1.45144e-08 -3.32797e-08)
(-3.40612e-06 -9.91398e-12 7.38294e-12 3.51027e-09 -2.05108e-08 -3.37743e-08)
(-3.66549e-06 -1.58573e-11 6.80254e-12 -1.73991e-08 -2.07591e-08 -3.22664e-08)
(-4.05745e-06 -2.01832e-11 6.00264e-12 -3.53763e-07 -1.60256e-08 -3.29588e-08)
(-4.59198e-06 -3.87589e-11 5.27024e-12 -2.77826e-06 -3.76408e-09 -3.73762e-08)
(-3.05797e-06 4.40919e-13 3.00894e-12 3.10327e-07 3.59278e-09 -1.71993e-09)
(-2.98632e-06 -1.38309e-12 4.94457e-12 -6.77801e-08 1.89691e-09 -1.07382e-08)
(-3.05394e-06 -3.86947e-12 5.18917e-12 -4.26337e-08 -2.66698e-09 -2.15998e-08)
(-3.1559e-06 -7.19768e-12 5.02852e-12 -1.55501e-08 -8.71383e-09 -2.99013e-08)
(-3.31277e-06 -1.03597e-11 4.71087e-12 -3.97824e-09 -1.31088e-08 -3.47938e-08)
(-3.57046e-06 -1.64368e-11 4.32365e-12 -2.15015e-08 -1.3749e-08 -3.86854e-08)
(-3.95908e-06 -2.08871e-11 3.81827e-12 -3.51322e-07 -1.06243e-08 -4.49548e-08)
(-4.4945e-06 -3.96583e-11 3.35877e-12 -2.7255e-06 -2.59549e-09 -5.54255e-08)
(-3.0027e-06 3.99021e-13 1.78103e-12 3.00496e-07 2.26721e-09 -2.60392e-09)
(-2.9325e-06 -1.48618e-12 2.91773e-12 -7.46531e-08 9.58954e-10 -1.0248e-08)
(-3.00044e-06 -4.03099e-12 3.06497e-12 -5.07217e-08 -1.48678e-09 -1.91568e-08)
(-3.10254e-06 -7.42258e-12 2.9723e-12 -2.34303e-08 -4.69431e-09 -2.74849e-08)
(-3.25915e-06 -1.06583e-11 2.78885e-12 -1.00514e-08 -7.16056e-09 -3.46922e-08)
(-3.51574e-06 -1.68274e-11 2.55944e-12 -2.50866e-08 -7.61473e-09 -4.21697e-08)
(-3.90197e-06 -2.13671e-11 2.26925e-12 -3.50524e-07 -5.88506e-09 -5.23322e-08)
(-4.43732e-06 -4.02758e-11 1.99294e-12 -2.69479e-06 -1.47925e-09 -6.66875e-08)
(-2.97739e-06 3.67489e-13 5.45916e-13 2.95665e-07 7.65905e-10 -2.79323e-09)
(-2.90783e-06 -1.54531e-12 9.14723e-13 -7.80691e-08 2.81794e-10 -9.94263e-09)
(-2.97587e-06 -4.11341e-12 9.62482e-13 -5.46634e-08 -4.97177e-10 -1.80985e-08)
(-3.07804e-06 -7.53019e-12 9.30963e-13 -2.74081e-08 -1.4907e-09 -2.63494e-08)
(-3.23451e-06 -1.07981e-11 8.71755e-13 -1.32897e-08 -2.26609e-09 -3.45236e-08)
(-3.49056e-06 -1.70042e-11 7.97104e-13 -2.71102e-08 -2.41647e-09 -4.37065e-08)
(-3.87556e-06 -2.15859e-11 7.07985e-13 -3.50399e-07 -1.86617e-09 -5.5806e-08)
(-4.41076e-06 -4.0554e-11 6.19405e-13 -2.68061e-06 -4.74752e-10 -7.20467e-08)
(-2.55429e-06 5.95213e-08 -3.68908e-11 9.04674e-07 -5.65002e-12 -4.9128e-06)
(-2.51367e-06 -1.47624e-08 -5.65795e-11 -1.77581e-07 -5.305e-12 -4.65877e-06)
(-2.55352e-06 -1.3753e-08 -6.05954e-11 -1.36328e-07 -3.38831e-12 -4.74442e-06)
(-2.60879e-06 -3.89651e-09 -6.10854e-11 -6.38602e-08 -2.39742e-12 -4.87073e-06)
(-2.6929e-06 1.5535e-09 -6.06229e-11 -1.82495e-08 -2.0625e-12 -5.04152e-06)
(-2.82457e-06 3.38472e-09 -6.02398e-11 -1.46739e-08 -2.47042e-12 -5.29926e-06)
(-3.00724e-06 9.39294e-09 -5.95843e-11 -4.03572e-07 -2.93917e-12 -5.65852e-06)
(-3.20932e-06 1.81238e-08 -6.2396e-11 -3.40661e-06 -4.26534e-12 -6.03451e-06)
(-2.49374e-07 -6.93545e-08 -2.61534e-11 5.97972e-07 -2.85747e-12 -4.56763e-06)
(-3.97632e-07 -2.22907e-08 -4.35272e-11 -1.68102e-08 -3.02881e-12 -4.36062e-06)
(-3.97617e-07 -9.6674e-09 -4.65894e-11 -5.30109e-08 -1.73122e-12 -4.4135e-06)
(-3.74087e-07 -3.33172e-09 -4.67409e-11 -4.54012e-08 -7.9446e-13 -4.52592e-06)
(-3.61762e-07 -2.2448e-10 -4.64718e-11 -2.47613e-08 -2.14797e-13 -4.69907e-06)
(-3.59085e-07 -2.53153e-10 -4.65489e-11 -2.46222e-08 1.07948e-14 -4.97467e-06)
(-3.64196e-07 -3.3561e-10 -4.69914e-11 -3.82991e-07 1.37365e-14 -5.37991e-06)
(-3.89395e-07 6.21776e-09 -5.11357e-11 -3.29387e-06 -4.29852e-13 -5.85772e-06)
(-2.47565e-07 9.15583e-08 -2.79521e-11 5.86892e-07 -1.65878e-12 -4.52647e-06)
(-3.95468e-07 3.91602e-08 -4.63213e-11 -2.83651e-08 -1.7212e-12 -4.31663e-06)
(-3.95792e-07 2.22623e-08 -4.9786e-11 -6.39344e-08 -7.38563e-13 -4.36793e-06)
(-3.72491e-07 1.25769e-08 -4.99854e-11 -5.54451e-08 2.28517e-13 -4.47974e-06)
(-3.60221e-07 6.75115e-09 -4.95499e-11 -3.43347e-08 9.96667e-13 -4.65262e-06)
(-3.57766e-07 4.31028e-09 -4.9249e-11 -3.39848e-08 1.67172e-12 -4.92799e-06)
(-3.6423e-07 1.47033e-09 -4.90655e-11 -3.89799e-07 2.14789e-12 -5.33328e-06)
(-3.92398e-07 -6.92059e-09 -5.25566e-11 -3.27499e-06 2.26427e-12 -5.81564e-06)
(-2.48825e-06 -4.85584e-08 -3.28654e-11 8.62222e-07 -1.16095e-12 -4.80261e-06)
(-2.44533e-06 2.20368e-08 -5.41283e-11 -2.11323e-07 -1.01022e-12 -4.54586e-06)
(-2.48435e-06 1.90017e-08 -5.83372e-11 -1.67115e-07 -7.28186e-14 -4.62786e-06)
(-2.53898e-06 7.77339e-09 -5.86609e-11 -9.2197e-08 9.7861e-13 -4.7524e-06)
(-2.62267e-06 1.17748e-09 -5.80136e-11 -4.51664e-08 1.84035e-12 -4.92219e-06)
(-2.75515e-06 -1.97958e-09 -5.74731e-11 -4.11405e-08 2.79468e-12 -5.17897e-06)
(-2.94338e-06 -9.96906e-09 -5.64209e-11 -4.25389e-07 3.56456e-12 -5.53737e-06)
(-3.16269e-06 -1.99725e-08 -5.97348e-11 -3.35963e-06 4.52786e-12 -5.92376e-06)
(-4.48942e-06 5.83034e-12 1.45845e-11 8.62222e-07 6.59453e-08 -2.66829e-06)
(-4.23439e-06 4.08163e-12 2.34058e-11 -2.11323e-07 -1.53099e-08 -2.62419e-06)
(-4.31707e-06 -3.76633e-14 2.48577e-11 -1.67115e-07 -1.96045e-08 -2.66111e-06)
(-4.43882e-06 -3.47923e-12 2.48506e-11 -9.2197e-08 -1.30497e-08 -2.72076e-06)
(-4.60593e-06 -5.61844e-12 2.43797e-11 -4.51664e-08 -8.0894e-09 -2.80962e-06)
(-4.86119e-06 -9.13829e-12 2.45946e-11 -4.11405e-08 -4.33681e-09 -2.94491e-06)
(-5.21715e-06 -9.46644e-12 2.36932e-11 -4.25389e-07 4.35448e-09 -3.13483e-06)
(-5.59386e-06 -2.52569e-11 2.57137e-11 -3.35963e-06 1.79889e-08 -3.3592e-06)
(-3.90189e-06 1.9441e-12 2.87669e-12 4.9193e-07 -9.22622e-08 -2.72032e-07)
(-3.72642e-06 7.61849e-13 6.83307e-12 -5.0982e-08 -3.63654e-08 -3.96976e-07)
(-3.78361e-06 -1.63023e-12 7.03279e-12 -6.3273e-08 -3.05919e-08 -4.00095e-07)
(-3.89007e-06 -4.11203e-12 6.79707e-12 -4.71468e-08 -3.02817e-08 -3.91061e-07)
(-4.05453e-06 -5.49245e-12 6.69747e-12 -3.17552e-08 -2.66206e-08 -3.88341e-07)
(-4.322e-06 -8.5745e-12 7.40738e-12 -4.17936e-08 -2.14934e-08 -3.89986e-07)
(-4.72139e-06 -7.30669e-12 7.8662e-12 -3.95522e-07 -1.55711e-08 -3.96929e-07)
(-5.21737e-06 -2.32767e-11 1.00773e-11 -3.13491e-06 4.69176e-09 -4.24489e-07)
(-3.44912e-06 9.73928e-13 4.43872e-12 3.60282e-07 -1.03468e-08 -7.97077e-10)
(-3.34495e-06 -3.12032e-13 8.59502e-12 -5.00438e-08 -4.52279e-09 -6.00696e-08)
(-3.40275e-06 -2.1957e-12 9.21941e-12 -3.51591e-08 -1.4715e-08 -7.91124e-08)
(-3.50193e-06 -4.45793e-12 9.17337e-12 -2.26503e-08 -2.43271e-08 -7.31268e-08)