/*--------------------------------*- C++ -*----------------------------------*\
| =========                 |                                                 |
| \\      /  F ield         | OpenFOAM: The Open Source CFD Toolbox           |
|  \\    /   O peration     | Version:  v1912                                 |
|   \\  /    A nd           | Website:  www.openfoam.com                      |
|    \\/     M anipulation  |                                                 |
\*---------------------------------------------------------------------------*/
FoamFile
{
    version     2.0;
    format      ascii;
    class       volVectorField;
    location    "0.29/solid";
    object      heatFlux;
}
// * * * * * * * * * * * * * * * * * * * * * * * * * * * * * * * * * * * * * //

dimensions      [1 0 -3 0 0 0 0];


internalField   nonuniform List<vector> 
256
(
(-82133.8 47891.7 -87961.9)
(-10860.7 24916.5 -82094.2)
(10688.7 24820.9 -81328.5)
(79434.9 47629.2 -85477.1)
(-81695.7 3295.23 -87621.6)
(-12210.1 1795.4 -82791.2)
(12024 1786.33 -81969.6)
(78856.2 3276.47 -84965.3)
(-83004.4 650.92 -88968.5)
(-12369.6 325.461 -84078)
(12169.7 321.451 -83222.4)
(80095.9 631.024 -86214.5)
(-85060.2 876.018 -91036.3)
(-12539.6 434.283 -86037.2)
(12329.5 432.104 -85164.5)
(82098.8 861.213 -88231.3)
(-88259.4 1552.47 -94239.7)
(-12813.5 818.907 -89161.1)
(12596.7 817.982 -88279.9)
(85269.3 1545.56 -91409.8)
(-93400.5 3725.63 -99414.1)
(-13274.1 2470.02 -94436.1)
(13056.2 2467.93 -93550.7)
(90430.2 3730.73 -96573.3)
(-101581 19485.1 -107805)
(-14071.2 17507.3 -103583)
(13857.4 17443.6 -102693)
(98747 19338.4 -104950)
(-106459 113581 -113563)
(-15315.5 111907 -111894)
(14887.2 111029 -111019)
(103886 110785 -110780)
(-72751.8 22747.4 -13389.2)
(-9186.54 3101.63 -10958.5)
(9217.25 3123.31 -10901.7)
(69938.7 22807.9 -13234.5)
(-73445.5 1674.4 -15060.9)
(-10437.6 278.816 -12460.9)
(10489.1 281.005 -12394.6)
(70533.9 1687.8 -14878.9)
(-74713.9 328.272 -15236.7)
(-10579.9 35.3938 -12615.6)
(10626.2 34.7438 -12546.9)
(71729.4 316.354 -15048.4)
(-76671.2 448.352 -15410.9)
(-10731.1 41.4275 -12768)
(10770 40.5527 -12698.3)
(73617.7 434.077 -15221.1)
(-79805 837.177 -15690.7)
(-10987.7 117.128 -13027.2)
(11018.9 116.185 -12957.2)
(76690.5 824.379 -15502.9)
(-85070.8 2456.5 -16165.7)
(-11452.1 1101.29 -13506)
(11477.3 1097.83 -13436.4)
(81921.2 2448.76 -15984.4)
(-94027.8 17063.1 -17060.5)
(-12346.4 14511.5 -14510.6)
(12366.3 14442.8 -14442.3)
(90944.4 16890.8 -16891)
(-101597 107836 -19481.6)
(-14072.4 103606 -17505.9)
(13856.6 102708 -17442.8)
(98743.7 104958 -19338.5)
(-63987.6 19441.7 -2022.23)
(-8373.16 1497.15 -790.796)
(8412.64 1524.65 -787.673)
(61174.2 19515.7 -2010.23)
(-64724.4 1447.76 -2283.18)
(-9543.87 138.23 -930.686)
(9605.91 141.056 -926.944)
(61814 1462.54 -2269.13)
(-65929.8 300.894 -2302.36)
(-9679.86 18.3466 -941.507)
(9736.94 17.8265 -937.66)
(62945.2 288.846 -2288.2)
(-67814.9 422.03 -2313.77)
(-9826.93 22.716 -948.537)
(9876.41 21.8503 -944.663)
(64756.3 406.756 -2299.92)
(-70874.8 797.614 -2329.08)
(-10080 80.9192 -960.762)
(10121 79.8646 -956.917)
(67742.4 782.322 -2316.21)
(-76089.5 2355.82 -2353.58)
(-10544.7 986.659 -986.55)
(10577.8 982.83 -982.821)
(72895.8 2342.66 -2343.05)
(-85092.4 16169.2 -2454.17)
(-11453 13507.4 -1101.15)
(11477 13437.2 -1097.8)
(81917.8 15984.3 -2449.14)
(-93440.2 99465.2 -3721.02)
(-13276.7 94473.6 -2468.34)
(13054.6 93575.9 -2466.94)
(90423.4 96584.9 -3730.78)
(-58916.1 18442 -717.692)
(-7951.98 1380.15 -66.5433)
(7997.82 1408.69 -65.7141)
(56151.1 18528.6 -706.4)
(-59631.2 1394.28 -791.714)
(-9081.37 128.105 -77.8991)
(9150.63 131.018 -76.9238)
(56770.3 1409.83 -778.845)
(-60812 297.676 -795.071)
(-9215.24 17.5429 -78.5584)
(9279.54 17.0243 -77.576)
(57877 285.559 -782.135)
(-62675.5 421.623 -794.922)
(-9362.02 22.1717 -78.7158)
(9418.64 21.2959 -77.7364)
(59664.7 406.066 -782.056)
(-65715 797.366 -793.801)
(-9615.57 79.1147 -78.9925)
(9663.43 78.027 -78.0236)
(62625.2 781.256 -781.202)
(-70905.4 2331.41 -793.987)
(-10081.4 960.903 -80.7931)
(10120.8 956.944 -79.8589)
(67741.8 2315.83 -782.242)
(-79858.5 15695.6 -833.235)
(-10990 13029.7 -116.898)
(11018.4 12958.7 -116.113)
(76686.6 15503 -824.263)
(-88333.6 94323.1 -1544.42)
(-12818.3 89222.7 -815.752)
(12594.1 88322 -815.915)
(85261.4 91430.5 -1544.54)
(-55952.4 17932.3 -380.15)
(-7721.18 1352.71 -19.1971)
(7772.78 1382.01 -18.5959)
(53226.7 18030.5 -370.903)
(-56656.9 1370.38 -415.795)
(-8829.08 126.215 -21.8668)
(8904.97 129.194 -21.1575)
(53837.1 1386.8 -405.123)
(-57830.1 297.686 -416.514)
(-8962.37 17.53 -21.9354)
(9033.37 17.0139 -21.2196)
(54936.8 285.634 -405.706)
(-59689.5 423.3 -415.21)
(-9109.75 22.2819 -21.8456)
(9173.07 21.4027 -21.1312)
(56719.8 407.69 -404.389)
(-62724.1 798.55 -413.416)
(-9364.26 78.8418 -21.7296)
(9418.77 77.7421 -21.0193)
(59673.1 782.137 -402.672)
(-67895.7 2316.38 -413.51)
(-9830.56 948.753 -22.2428)
(9876.37 944.74 -21.5469)
(64764.8 2299.6 -403.144)
(-76778 15418.8 -438.816)
(-10735.9 12772.5 -40.5034)
(10769.6 12701.2 -39.8708)
(73623.3 15222 -429.921)
(-85191.7 91175.7 -856.643)
(-12548.1 86143.1 -425.444)
(12325.8 85240 -425.156)
(82098.9 88272.7 -852.713)
(-54182.8 17646.1 -212.008)
(-7590.43 1339.09 -9.76987)
(7646.11 1368.94 -9.36562)
(51480.5 17752.6 -205.748)
(-54882.9 1357.91 -230.931)
(-8686.73 125.367 -11.0371)
(8767.37 128.394 -10.5583)
(52088 1375.02 -223.645)
(-56054.4 298.262 -230.967)
(-8819.95 17.564 -11.0466)
(8895.77 17.0505 -10.5623)
(53186.7 286.293 -223.556)
(-57914.3 424.721 -229.861)
(-8967.95 22.3775 -10.9749)
(9036.1 21.4961 -10.4915)
(54970.1 409.101 -222.427)
(-60947 799.065 -228.673)
(-9223.17 78.7175 -10.8936)
(9282.49 77.6114 -10.4131)
(57920.3 782.5 -221.274)
(-66101.6 2306.01 -229.273)
(-9689.4 942.129 -11.1697)
(9739.88 938.093 -10.6968)
(62991.4 2288.58 -222.076)
(-74919.6 15252.5 -245.623)
(-10591.1 12626.5 -21.0932)
(10628.9 12555.1 -20.6458)
(71776.4 15053.5 -239.228)
(-83239.4 89216.1 -490.904)
(-12386.8 84274.9 -238.062)
(12166.9 83370.6 -237.685)
(80134.3 86306.5 -487.093)
(-53169.9 17489.3 -108.617)
(-7518.54 1331.9 -4.85392)
(7576.8 1362.09 -4.62253)
(50480.7 17601.1 -105.019)
(-53868 1351.42 -118.005)
(-8608.7 124.938 -5.46573)
(8692.36 127.997 -5.1912)
(51087.5 1368.99 -113.798)
(-55039.5 298.756 -117.916)
(-8741.96 17.5922 -5.46441)
(8820.86 17.0807 -5.18626)
(52186.7 286.853 -113.623)
(-56900.4 425.593 -117.254)
(-8890.38 22.4349 -5.42305)
(8961.62 21.5519 -5.14553)
(53971.1 409.971 -112.944)
(-59931.7 799.137 -116.646)
(-9146 78.647 -5.38089)
(9208.39 77.5369 -5.10529)
(56919.3 782.488 -112.356)
(-65073.2 2299.43 -117.23)
(-9611.98 938.554 -5.52693)
(9665.46 934.508 -5.25531)
(61975.4 2281.65 -113.045)
(-73845 15157.1 -126.42)
(-10510.9 12545.6 -10.5376)
(10551.5 12474.2 -10.2754)
(70709 14956.9 -122.639)
(-82089.6 88058.5 -256.299)
(-12294.9 83187.4 -122.779)
(12076.8 82282.4 -122.506)
(78977.7 85145 -253.752)
(-52706 17419.5 -33.5038)
(-7486.43 1328.77 -1.47527)
(7545.94 1359.12 -1.39998)
(50022.7 17533.7 -32.3309)
(-53403.4 1348.62 -36.3526)
(-8573.92 124.756 -1.65865)
(8659.04 127.83 -1.56926)
(50629.3 1366.42 -34.9782)
(-54575 299.013 -36.3108)
(-8707.22 17.6067 -1.65743)
(8787.61 17.0962 -1.56676)
(51729 287.147 -34.9055)
(-56436.5 425.991 -36.0952)
(-8855.84 22.461 -1.64416)
(8928.58 21.5771 -1.55371)
(53514.1 410.367 -34.6843)
(-59466.9 799.09 -35.9136)
(-9111.63 78.6136 -1.63136)
(9175.51 77.5016 -1.54162)
(56461.1 782.399 -34.5099)
(-64601.3 2296.24 -36.1426)
(-9577.43 936.972 -1.67746)
(9632.36 932.923 -1.589)
(61509.3 2278.3 -34.7734)
(-73349.4 15113.4 -39.1059)
(-10474.9 12509.2 -3.21275)
(10516.8 12437.8 -3.12662)
(70216.7 14912.8 -37.8611)
(-81553.9 87517.9 -79.8364)
(-12253 82683.3 -38.0421)
(12035.9 81778 -37.9447)
(78438.7 84602.5 -78.9582)
)
;

boundaryField
{
    interface
    {
        type            calculated;
        value           nonuniform List<vector> 
192
(
(-142635 47891.7 -87961.9)
(-139073 3295.23 -87621.6)
(-141377 650.92 -88968.5)
(-145151 876.018 -91036.3)
(-151003 1552.47 -94239.7)
(-160365 3725.63 -99414.1)
(-175135 19485.1 -107805)
(-182527 113581 -113563)
(-127111 22747.4 -13389.2)
(-125992 1674.4 -15060.9)
(-128244 328.272 -15236.7)
(-131857 448.352 -15410.9)
(-137613 837.177 -15690.7)
(-147216 2456.5 -16165.7)
(-163348 17063.1 -17060.5)
(-175167 107836 -19481.6)
(-111204 19441.7 -2022.23)
(-110331 1447.76 -2283.18)
(-112470 300.894 -2302.36)
(-115947 422.03 -2313.77)
(-121561 797.614 -2329.08)
(-131062 2355.82 -2353.58)
(-147258 16169.2 -2454.17)
(-160440 99465.2 -3721.02)
(-101903 18442 -717.692)
(-101068 1394.28 -791.714)
(-103162 297.676 -795.071)
(-106596 421.623 -794.922)
(-112169 797.366 -793.801)
(-121620 2331.41 -793.987)
(-137715 15695.6 -833.235)
(-151144 94323.1 -1544.42)
(-96436.3 17932.3 -380.15)
(-95623.2 1370.38 -415.795)
(-97703.3 297.686 -416.514)
(-101128 423.3 -415.21)
(-106689 798.55 -413.416)
(-116101 2316.38 -413.51)
(-132062 15418.8 -438.816)
(-145400 91175.7 -856.643)
(-93158.1 17646.1 -212.008)
(-92359.3 1357.91 -230.931)
(-94436.1 298.262 -230.967)
(-97860.7 424.721 -229.861)
(-103417 799.065 -228.673)
(-112795 2306.01 -229.273)
(-128634 15252.5 -245.623)
(-141818 89216.1 -490.904)
(-91275.8 17489.3 -108.617)
(-90485.3 1351.42 -118.005)
(-92561.9 298.756 -117.916)
(-95987.7 425.593 -117.254)
(-101540 799.137 -116.646)
(-110892 2299.43 -117.23)
(-126645 15157.1 -126.42)
(-139702 88058.5 -256.299)
(-90412.1 17419.5 -33.5038)
(-89625.4 1348.62 -36.3526)
(-91702.3 299.013 -36.3108)
(-95128.8 425.991 -36.0952)
(-100679 799.09 -35.9136)
(-110017 2296.24 -36.1426)
(-125726 15113.4 -39.1059)
(-138714 87517.9 -79.8364)
(-82133.8 47891.7 -152241)
(-81695.7 3295.23 -148637)
(-83004.4 650.92 -151013)
(-85060.2 876.018 -154822)
(-88259.4 1552.47 -160700)
(-93400.5 3725.63 -170146)
(-101581 19485.1 -185292)
(-106459 113581 -193601)
(-10860.7 24916.5 -143746)
(-12210.1 1795.4 -142395)
(-12369.6 325.461 -144680)
(-12539.6 434.283 -148307)
(-12813.5 818.907 -154060)
(-13274.1 2470.02 -163702)
(-14071.2 17507.3 -180167)
(-15315.5 111907 -192626)
(10688.7 24820.9 -142323)
(12024 1786.33 -140878)
(12169.7 321.451 -143100)
(12329.5 432.104 -146695)
(12596.7 817.982 -152432)
(13056.2 2467.93 -162064)
(13857.4 17443.6 -178517)
(14887.2 111029 -191000)
(79434.9 47629.2 -147568)
(78856.2 3276.47 -143674)
(80095.9 631.024 -145866)
(82098.8 861.213 -149577)
(85269.3 1545.56 -155402)
(90430.2 3730.73 -164818)
(98747 19338.4 -179920)
(103886 110785 -188336)
(137403 47629.2 -85477.1)
(133562 3276.47 -84965.3)
(135745 631.024 -86214.5)
(139428 861.213 -88231.3)
(145234 1545.56 -91409.8)
(154636 3730.73 -96573.3)
(169663 19338.4 -104950)
(177758 110785 -110780)
(121462 22807.9 -13234.5)
(120114 1687.8 -14878.9)
(122230 316.354 -15048.4)
(125718 434.077 -15221.1)
(131365 824.379 -15502.9)
(140909 2448.76 -15984.4)
(157171 16890.8 -16891)
(169658 104958 -19338.5)
(105548 19515.7 -2010.23)
(104447 1462.54 -2269.13)
(106447 288.846 -2288.2)
(109789 406.756 -2299.92)
(115271 782.322 -2316.21)
(124663 2342.66 -2343.05)
(140903 15984.3 -2449.14)
(154624 96584.9 -3730.78)
(96332.1 18528.6 -706.4)
(95271 1409.83 -778.845)
(97226.3 285.559 -782.135)
(100523 406.066 -782.056)
(105953 781.256 -781.202)
(115270 2315.83 -782.242)
(131358 15503 -824.263)
(145221 91430.5 -1544.54)
(90934 18030.5 -370.903)
(89896.6 1386.8 -405.123)
(91839 285.634 -405.706)
(95124.9 407.69 -404.389)
(100539 782.137 -402.672)
(109806 2299.6 -403.144)
(125730 15222 -429.921)
(139433 88272.7 -852.713)
(87695.4 17752.6 -205.748)
(86674.3 1375.02 -223.645)
(88614.6 286.293 -223.556)
(91900 409.101 -222.427)
(97306.6 782.5 -221.274)
(106533 2288.58 -222.076)
(122318 15053.5 -239.228)
(135822 86306.5 -487.093)
(85834.8 17601.1 -105.019)
(84823.6 1368.99 -113.798)
(86764.8 286.853 -113.623)
(90051.4 409.971 -112.944)
(95453.1 782.488 -112.356)
(104650 2281.65 -113.045)
(120338 14956.9 -122.639)
(133689 85145 -253.752)
(84980.6 17533.7 -32.3309)
(83974.2 1366.42 -34.9782)
(85916.2 287.147 -34.9055)
(89203.6 410.367 -34.6843)
(94602.6 782.399 -34.5099)
(103784 2278.3 -34.7734)
(119423 14912.8 -37.8611)
(132693 84602.5 -78.9582)
(-106459 193632 -113563)
(-101597 185350 -19481.6)
(-93440.2 170244 -3721.02)
(-88333.6 160859 -1544.42)
(-85191.7 155087 -856.643)
(-83239.4 151480 -490.904)
(-82089.6 149343 -256.299)
(-81553.9 148344 -79.8364)
(-15315.5 192650 -111894)
(-14072.4 180211 -17505.9)
(-13276.7 163774 -2468.34)
(-12818.3 154179 -815.752)
(-12548.1 148511 -425.444)
(-12386.8 145053 -238.062)
(-12294.9 143033 -122.779)
(-12253 142094 -38.0421)
(14887.2 191018 -111019)
(13856.6 178547 -17442.8)
(13054.6 162112 -2466.94)
(12594.1 152513 -815.915)
(12325.8 146840 -425.156)
(12166.9 143381 -237.685)
(12076.8 141359 -122.506)
(12035.9 140420 -37.9447)
(103886 188346 -110780)
(98743.7 179934 -19338.5)
(90423.4 164841 -3730.78)
(85261.4 155443 -1544.54)
(82098.9 149657 -852.713)
(80134.3 146041 -487.093)
(78977.7 143898 -253.752)
(78438.7 142895 -78.9582)
)
;
    }
    symmetry
    {
        type            symmetry;
    }
    bottom
    {
        type            calculated;
        value           nonuniform List<vector> 
32
(
(-82133.8 89837.6 -87961.9)
(-72751.8 42472 -13389.2)
(-63987.6 36280.8 -2022.23)
(-58916.1 34383.1 -717.692)
(-55952.4 33410.1 -380.15)
(-54182.8 32862.5 -212.008)
(-53169.9 32562 -108.617)
(-52706 32428 -33.5038)
(-10860.7 46573 -82094.2)
(-9186.54 5687.34 -10958.5)
(-8373.16 2739.11 -790.796)
(-7951.98 2524.16 -66.5433)
(-7721.18 2472.94 -19.1971)
(-7590.43 2447.37 -9.76987)
(-7518.54 2433.86 -4.85392)
(-7486.43 2427.96 -1.47527)
(10688.7 46394.8 -81328.5)
(9217.25 5725.85 -10901.7)
(8412.64 2788.2 -787.673)
(7997.82 2575.16 -65.7141)
(7772.78 2525.35 -18.5959)
(7646.11 2500.77 -9.36562)
(7576.8 2487.88 -4.62253)
(7545.94 2482.28 -1.39998)
(79434.9 89327.7 -85477.1)
(69938.7 42556.3 -13234.5)
(61174.2 36389.7 -2010.23)
(56151.1 34515.4 -706.4)
(53226.7 33564.1 -370.903)
(51480.5 33031.8 -205.748)
(50480.7 32741.1 -105.019)
(50022.7 32611.7 -32.3309)
)
;
    }
}


// ************************************************************************* //
