/*--------------------------------*- C++ -*----------------------------------*\
| =========                 |                                                 |
| \\      /  F ield         | OpenFOAM: The Open Source CFD Toolbox           |
|  \\    /   O peration     | Version:  v1912                                 |
|   \\  /    A nd           | Website:  www.openfoam.com                      |
|    \\/     M anipulation  |                                                 |
\*---------------------------------------------------------------------------*/
FoamFile
{
    version     2.0;
    format      ascii;
    class       volScalarField;
    location    "0.29/solid";
    object      sigmaEq;
}
// * * * * * * * * * * * * * * * * * * * * * * * * * * * * * * * * * * * * * //

dimensions      [1 -1 -2 0 0 0 0];


internalField   nonuniform List<scalar> 
256
(
546001
431746
427818
530321
372742
356529
352308
358377
385011
355769
351480
370982
404983
365729
361480
391249
425308
382320
378098
411740
446397
404982
400767
432927
415304
407715
403779
402971
31363.6
446812
443434
31558.4
382133
81541.7
79796.1
365066
316456
74303.4
72362.1
300245
318800
61511.8
59827.8
302718
327945
52208.1
50709.7
311791
342329
49752.2
48341.2
325998
362826
47955.2
46633.6
346384
363898
6306.34
6799.03
348417
415175
407837
404000
403145
342141
49025.7
47575.7
326116
305922
58538.8
56361.6
289945
310302
53245.5
51108.2
294035
318667
46059
43941.8
302116
332294
43312.9
41171.7
315411
353146
42467.8
40356.3
336011
362677
46682.4
45703.9
346428
446261
405257
401231
433497
314354
43040.2
41719.5
299520
284489
53272.4
51337.9
269410
290278
50303.2
48314.5
274675
298671
44470.2
42454.4
282636
311767
41934
39875.7
295304
331928
41168
39140.3
315134
341974
46140
45286.1
326011
426121
383197
379276
413793
298067
39935.5
38635.3
284114
269987
49409.7
47685.3
255645
276423
47191.2
45397.6
261446
284964
42011.3
40160.8
269451
297836
39576.5
37659.1
281819
317538
38727.7
36827.2
301129
327332
42771.6
42112.2
311720
409438
367644
363819
397562
288374
38017.6
36737.5
275017
261084
46909
45330.7
247253
267763
44934.9
43294.5
253242
276379
40022.5
38314.6
261259
289141
37605
35808.6
273460
308569
36738.9
34938.5
292447
318083
40194.9
39695.2
302735
398576
357881
354126
387050
282791
36853.5
35594.2
269803
255935
45419.2
43935.3
242426
262691
43525
41985.3
248466
271329
38715.9
37106.8
256468
284023
36270.6
34558.5
268564
303290
35402.1
33667.8
287357
312610
38628.4
38236.9
297436
392113
352181
348471
380824
280215
36296.8
35050.4
267403
253563
44722.2
43285.5
240211
260338
42853.9
41364.4
246257
268977
38080.7
36521.9
254245
281637
35611.1
33942.5
266290
300828
34741.2
33039.8
284988
310054
37912.4
37575.3
294965
389098
349550
345863
377928
)
;

boundaryField
{
    interface
    {
        type            calculated;
        value           nonuniform List<scalar> 
192
(
747907
561640
578632
605157
633920
668199
660139
351813
653501
567869
575559
594254
621397
661709
692578
660098
586872
532931
542121
559403
585317
625371
661835
668335
539886
493731
504273
521309
546449
585481
621930
635339
512319
468656
479841
496924
521743
560132
596024
611009
495942
453458
464905
482036
506703
544690
580051
595487
486548
444706
456250
473400
497980
535719
570701
586291
482231
440682
452256
469409
493947
531566
566356
582003
779859
597243
614216
640812
669743
704562
700155
420319
738442
641023
645976
665470
694653
737165
770207
729043
731393
633472
638186
657640
686813
729295
762510
723045
759060
577631
594498
621163
650141
684902
681124
410505
725260
539572
556688
583351
612202
646675
640250
343794
626026
540891
548350
566677
593406
633437
665423
640403
560362
506140
514758
531474
556784
596325
633616
647293
514806
468032
477784
494107
518531
556925
594020
614476
488315
443851
454130
470398
494417
532084
568512
590469
472659
429268
439747
456000
479805
517008
552831
575208
463707
420901
431446
447681
471361
508276
543674
566196
459600
417062
427625
443846
467466
504241
539425
562001
420458
700156
704682
671146
646747
631212
622011
617718
729152
770446
737782
696376
669476
652855
643146
638648
723149
762805
730025
688721
661899
645333
635661
631180
410599
681317
685553
652512
628536
613324
604342
600159
)
;
    }
    symmetry
    {
        type            symmetry;
    }
    bottom
    {
        type            calculated;
        value           nonuniform List<scalar> 
32
(
717319
448597
388867
358422
341156
330743
324696
321900
502574
99274.1
54358.1
48297.2
45805.6
44097
42994.5
42457.8
498731
97124.3
52384.6
46495.1
44061.1
42395.9
41328.1
40811
700710
430621
372315
343420
327273
317604
312012
309432
)
;
    }
}


// ************************************************************************* //
