/*--------------------------------*- C++ -*----------------------------------*\
| =========                 |                                                 |
| \\      /  F ield         | OpenFOAM: The Open Source CFD Toolbox           |
|  \\    /   O peration     | Version:  v1912                                 |
|   \\  /    A nd           | Website:  www.openfoam.com                      |
|    \\/     M anipulation  |                                                 |
\*---------------------------------------------------------------------------*/
FoamFile
{
    version     2.0;
    format      ascii;
    class       volVectorField;
    location    "0.29/solid";
    object      U;
}
// * * * * * * * * * * * * * * * * * * * * * * * * * * * * * * * * * * * * * //

dimensions      [0 1 -1 0 0 0 0];


internalField   nonuniform List<vector> 
256
(
(5.10783e-08 4.6271e-08 5.58992e-08)
(9.4927e-09 2.29803e-08 4.53243e-08)
(-1.01692e-08 2.2601e-08 4.50357e-08)
(-5.01864e-08 4.45723e-08 5.49071e-08)
(8.26279e-08 2.51101e-08 1.14714e-07)
(1.92705e-08 1.041e-08 1.0123e-07)
(-2.00984e-08 1.01099e-08 1.00753e-07)
(-8.14296e-08 2.41784e-08 1.1314e-07)
(8.48571e-08 -9.69101e-09 1.53157e-07)
(2.02619e-08 -1.49849e-08 1.39692e-07)
(-2.12455e-08 -1.50891e-08 1.39143e-07)
(-8.38405e-08 -9.90109e-09 1.51358e-07)
(8.09904e-08 -4.45691e-08 1.86984e-07)
(1.82365e-08 -4.78354e-08 1.7248e-07)
(-1.96274e-08 -4.7742e-08 1.71885e-07)
(-8.03875e-08 -4.41982e-08 1.85035e-07)
(8.02913e-08 -8.12422e-08 2.22063e-07)
(1.73076e-08 -8.78299e-08 2.0564e-07)
(-1.93422e-08 -8.75634e-08 2.05009e-07)
(-8.03185e-08 -8.03749e-08 2.20002e-07)
(9.01757e-08 -1.24085e-07 2.62536e-07)
(2.08309e-08 -1.35647e-07 2.43864e-07)
(-2.37264e-08 -1.35236e-07 2.43201e-07)
(-9.10489e-08 -1.22794e-07 2.60394e-07)
(1.20636e-07 -1.87293e-07 3.12658e-07)
(3.15383e-08 -1.95487e-07 2.92686e-07)
(-3.55559e-08 -1.9496e-07 2.9198e-07)
(-1.22531e-07 -1.85648e-07 3.10432e-07)
(1.69339e-07 -3.03769e-07 3.65487e-07)
(4.34589e-08 -2.85482e-07 3.47295e-07)
(-4.90311e-08 -2.84657e-07 3.46495e-07)
(-1.72359e-07 -3.01276e-07 3.63078e-07)
(2.37366e-08 1.16209e-08 1.76647e-08)
(3.93725e-09 -3.48808e-09 2.20154e-08)
(-4.19303e-09 -3.65748e-09 2.19161e-08)
(-2.27594e-08 1.04847e-08 1.73357e-08)
(3.99021e-08 -1.04459e-08 5.91586e-08)
(8.95286e-09 -2.05482e-08 6.73343e-08)
(-8.96969e-09 -2.07216e-08 6.70741e-08)
(-3.8398e-08 -1.10843e-08 5.83696e-08)
(4.0023e-08 -3.97912e-08 9.6287e-08)
(9.10279e-09 -4.3649e-08 1.05691e-07)
(-9.06821e-09 -4.37012e-08 1.05351e-07)
(-3.85248e-08 -3.99064e-08 9.52611e-08)
(3.60739e-08 -7.18729e-08 1.29664e-07)
(7.23535e-09 -7.46329e-08 1.3903e-07)
(-7.47046e-09 -7.45236e-08 1.38647e-07)
(-3.48566e-08 -7.1494e-08 1.28497e-07)
(3.47909e-08 -1.06896e-07 1.62907e-07)
(6.35967e-09 -1.13073e-07 1.71753e-07)
(-7.13995e-09 -1.12809e-07 1.71337e-07)
(-3.40959e-08 -1.06064e-07 1.61629e-07)
(4.34039e-08 -1.45666e-07 1.98214e-07)
(9.67407e-09 -1.56906e-07 2.06508e-07)
(-1.12428e-08 -1.56509e-07 2.06061e-07)
(-4.34592e-08 -1.4444e-07 1.96832e-07)
(7.234e-08 -1.94058e-07 2.32451e-07)
(1.99868e-08 -2.01989e-07 2.40555e-07)
(-2.26153e-08 -2.01495e-07 2.4007e-07)
(-7.33165e-08 -1.92513e-07 2.30955e-07)
(1.20591e-07 -2.74114e-07 2.48976e-07)
(3.1489e-08 -2.54078e-07 2.57355e-07)
(-3.55999e-08 -2.53346e-07 2.56837e-07)
(-1.2257e-07 -2.71805e-07 2.47381e-07)
(7.85761e-09 5.44901e-10 9.72737e-09)
(-8.04208e-10 -9.32745e-09 1.57169e-08)
(6.78071e-10 -9.46011e-09 1.56401e-08)
(-6.83337e-09 -5.24463e-10 9.49863e-09)
(1.27764e-08 -2.76041e-08 4.04437e-08)
(-3.0196e-10 -3.40124e-08 5.11005e-08)
(6.32761e-10 -3.41499e-08 5.09021e-08)
(-1.10597e-08 -2.81951e-08 3.98766e-08)
(1.1057e-08 -5.77298e-08 7.33603e-08)
(-1.07611e-09 -6.03115e-08 8.52667e-08)
(1.63673e-09 -6.03511e-08 8.49933e-08)
(-9.18235e-09 -5.78559e-08 7.25746e-08)
(7.44402e-09 -8.78406e-08 1.04883e-07)
(-2.79415e-09 -9.04224e-08 1.16872e-07)
(3.22744e-09 -9.03205e-08 1.16553e-07)
(-5.71257e-09 -8.75167e-08 1.03952e-07)
(6.37457e-09 -1.18381e-07 1.35101e-07)
(-3.56904e-09 -1.24618e-07 1.46881e-07)
(3.5702e-09 -1.24373e-07 1.46528e-07)
(-5.04997e-09 -1.17629e-07 1.34058e-07)
(1.48276e-08 -1.48647e-07 1.63184e-07)
(-4.0339e-10 -1.5991e-07 1.74783e-07)
(-2.91758e-10 -1.59541e-07 1.744e-07)
(-1.41494e-08 -1.47517e-07 1.6204e-07)
(4.31411e-08 -1.83101e-07 1.83665e-07)
(9.52382e-09 -1.91218e-07 1.95263e-07)
(-1.1203e-08 -1.90761e-07 1.94852e-07)
(-4.32841e-08 -1.81666e-07 1.82425e-07)
(8.98783e-08 -2.47207e-07 1.85701e-07)
(2.06245e-08 -2.28477e-07 1.9764e-07)
(-2.37317e-08 -2.27785e-07 1.97212e-07)
(-9.09325e-08 -2.44969e-07 1.84393e-07)
(2.32572e-09 -2.86134e-09 8.56119e-09)
(-2.4675e-09 -1.01023e-08 1.21563e-08)
(2.38674e-09 -1.02381e-08 1.20995e-08)
(-1.26136e-09 -3.95805e-09 8.39868e-09)
(2.65463e-09 -3.38946e-08 3.27579e-08)
(-3.93456e-09 -3.83641e-08 3.91707e-08)
(4.42893e-09 -3.85093e-08 3.90279e-08)
(-7.87972e-10 -3.4536e-08 3.23588e-08)
(1.29342e-10 -6.53147e-08 5.98139e-08)
(-5.14755e-09 -6.72281e-08 6.69364e-08)
(6.00249e-09 -6.72808e-08 6.67347e-08)
(2.01971e-09 -6.55063e-08 5.92447e-08)
(-2.95232e-09 -9.40323e-08 8.66548e-08)
(-6.66045e-09 -9.66339e-08 9.37361e-08)
(7.51183e-09 -9.65515e-08 9.34937e-08)
(5.07798e-09 -9.37871e-08 8.59588e-08)
(-3.32916e-09 -1.2032e-07 1.11558e-07)
(-7.17928e-09 -1.2675e-07 1.18408e-07)
(7.70694e-09 -1.26529e-07 1.18134e-07)
(5.15574e-09 -1.19655e-07 1.1076e-07)
(5.57338e-09 -1.43948e-07 1.32205e-07)
(-3.93103e-09 -1.55369e-07 1.38857e-07)
(3.85444e-09 -1.55027e-07 1.38557e-07)
(-4.29669e-09 -1.4291e-07 1.31318e-07)
(3.36191e-08 -1.71273e-07 1.44278e-07)
(5.77735e-09 -1.79882e-07 1.50911e-07)
(-6.76469e-09 -1.79451e-07 1.50589e-07)
(-3.30771e-08 -1.69926e-07 1.43314e-07)
(7.90114e-08 -2.30254e-07 1.42937e-07)
(1.66008e-08 -2.13684e-07 1.50011e-07)
(-1.89695e-08 -2.13011e-07 1.49677e-07)
(-7.93091e-08 -2.28062e-07 1.41924e-07)
(1.04491e-09 -3.99179e-09 7.50168e-09)
(-2.60616e-09 -1.01232e-08 9.17374e-09)
(2.54729e-09 -1.02651e-08 9.13506e-09)
(4.67039e-11 -5.11504e-09 7.39384e-09)
(4.51538e-10 -3.54119e-08 2.6358e-08)
(-4.41292e-09 -3.91376e-08 2.92366e-08)
(4.99792e-09 -3.92989e-08 2.91395e-08)
(1.51054e-09 -3.61133e-08 2.60915e-08)
(-2.0077e-09 -6.68855e-08 4.71653e-08)
(-5.62904e-09 -6.86199e-08 5.02617e-08)
(6.66324e-09 -6.86929e-08 5.01225e-08)
(4.33721e-09 -6.71504e-08 4.67781e-08)
(-4.53601e-09 -9.43449e-08 6.78999e-08)
(-6.91907e-09 -9.70842e-08 7.08558e-08)
(8.04433e-09 -9.70241e-08 7.06847e-08)
(6.93379e-09 -9.41779e-08 6.74147e-08)
(-4.24584e-09 -1.17812e-07 8.66167e-08)
(-7.18025e-09 -1.24445e-07 8.93423e-08)
(8.07141e-09 -1.24248e-07 8.91453e-08)
(6.43309e-09 -1.17226e-07 8.60482e-08)
(5.10306e-09 -1.3792e-07 1.01025e-07)
(-3.80079e-09 -1.49505e-07 1.0357e-07)
(4.16616e-09 -1.49187e-07 1.03351e-07)
(-3.38521e-09 -1.36961e-07 1.00384e-07)
(3.29388e-08 -1.62583e-07 1.08431e-07)
(5.78093e-09 -1.71629e-07 1.10965e-07)
(-6.26335e-09 -1.71221e-07 1.10729e-07)
(-3.18852e-08 -1.61311e-07 1.0773e-07)
(7.73901e-08 -2.19703e-07 1.06919e-07)
(1.64422e-08 -2.0484e-07 1.09823e-07)
(-1.82622e-08 -2.04184e-07 1.09581e-07)
(-7.71175e-08 -2.17564e-07 1.06188e-07)
(9.39804e-10 -4.31542e-09 5.82246e-09)
(-2.39551e-09 -1.00198e-08 6.52557e-09)
(2.34768e-09 -1.0166e-08 6.50132e-09)
(1.68226e-10 -5.45681e-09 5.75615e-09)
(5.79713e-10 -3.51548e-08 1.94271e-08)
(-4.02936e-09 -3.86958e-08 2.05257e-08)
(4.66571e-09 -3.88705e-08 2.04643e-08)
(1.43962e-09 -3.59019e-08 1.9261e-08)
(-1.48824e-09 -6.59333e-08 3.40652e-08)
(-5.08244e-09 -6.77216e-08 3.51416e-08)
(6.22458e-09 -6.78124e-08 3.50524e-08)
(3.92949e-09 -6.62574e-08 3.382e-08)
(-3.54671e-09 -9.22974e-08 4.85016e-08)
(-6.1793e-09 -9.52028e-08 4.94211e-08)
(7.47781e-09 -9.51619e-08 4.93096e-08)
(6.11967e-09 -9.21941e-08 4.81888e-08)
(-2.78876e-09 -1.14219e-07 6.12606e-08)
(-6.25595e-09 -1.21015e-07 6.20029e-08)
(7.38594e-09 -1.20837e-07 6.18724e-08)
(5.21606e-09 -1.13697e-07 6.08874e-08)
(6.83524e-09 -1.32872e-07 7.0697e-08)
(-2.78585e-09 -1.44568e-07 7.13175e-08)
(3.44951e-09 -1.44269e-07 7.11705e-08)
(-4.81668e-09 -1.31976e-07 7.02703e-08)
(3.44868e-08 -1.56769e-07 7.52775e-08)
(6.71364e-09 -1.66072e-07 7.59071e-08)
(-6.8482e-09 -1.65683e-07 7.57482e-08)
(-3.30786e-08 -1.5556e-07 7.4808e-08)
(7.8316e-08 -2.13002e-07 7.42175e-08)
(1.72786e-08 -1.99157e-07 7.50978e-08)
(-1.87119e-08 -1.98518e-07 7.49366e-08)
(-7.76416e-08 -2.10917e-07 7.3731e-08)
(1.01262e-09 -4.34516e-09 3.66977e-09)
(-2.22519e-09 -9.88503e-09 3.95019e-09)
(2.18227e-09 -1.00341e-08 3.93708e-09)
(1.04329e-10 -5.49778e-09 3.63443e-09)
(9.73465e-10 -3.44871e-08 1.18967e-08)
(-3.67202e-09 -3.80253e-08 1.22761e-08)
(4.3353e-09 -3.8209e-08 1.22425e-08)
(1.07752e-09 -3.52631e-08 1.18068e-08)
(-7.51358e-10 -6.45055e-08 2.05646e-08)
(-4.57681e-09 -6.63955e-08 2.08742e-08)
(5.77893e-09 -6.64985e-08 2.08249e-08)
(3.25624e-09 -6.48688e-08 2.04303e-08)
(-2.48765e-09 -9.00828e-08 2.90094e-08)
(-5.54057e-09 -9.31197e-08 2.92071e-08)
(6.93912e-09 -9.30923e-08 2.91447e-08)
(5.16332e-09 -9.00231e-08 2.88358e-08)
(-1.45438e-09 -1.11252e-07 3.63692e-08)
(-5.50786e-09 -1.18153e-07 3.6461e-08)
(6.77981e-09 -1.17989e-07 3.63871e-08)
(4.02595e-09 -1.10776e-07 3.61594e-08)
(8.30628e-09 -1.29411e-07 4.17114e-08)
(-1.99074e-09 -1.41164e-07 4.17392e-08)
(2.83568e-09 -1.40879e-07 4.16553e-08)
(-6.10337e-09 -1.28561e-07 4.14689e-08)
(3.58219e-08 -1.53168e-07 4.42542e-08)
(7.45666e-09 -1.62585e-07 4.42979e-08)
(-7.37566e-09 -1.62211e-07 4.42069e-08)
(-3.41925e-08 -1.52006e-07 4.39861e-08)
(7.92657e-08 -2.08949e-07 4.36598e-08)
(1.79625e-08 -1.9561e-07 4.38443e-08)
(-1.91511e-08 -1.94985e-07 4.37529e-08)
(-7.83367e-08 -2.06907e-07 4.33838e-08)
(1.05541e-09 -4.31285e-09 1.25144e-09)
(-2.14773e-09 -9.79275e-09 1.32728e-09)
(2.10652e-09 -9.94325e-09 1.32317e-09)
(6.53979e-11 -5.4709e-09 1.24042e-09)
(1.1775e-09 -3.40307e-08 4.0043e-09)
(-3.50312e-09 -3.75907e-08 4.09605e-09)
(4.1777e-09 -3.77787e-08 4.08543e-09)
(8.87446e-10 -3.48207e-08 3.97603e-09)
(-3.72504e-10 -6.35996e-08 6.87211e-09)
(-4.33199e-09 -6.55536e-08 6.93342e-09)
(5.56057e-09 -6.56627e-08 6.91771e-09)
(2.90608e-09 -6.39824e-08 6.82947e-09)
(-1.95076e-09 -8.87743e-08 9.64557e-09)
(-5.23045e-09 -9.18804e-08 9.6674e-09)
(6.67439e-09 -9.18598e-08 9.64739e-09)
(4.67362e-09 -8.87365e-08 9.59004e-09)
(-7.92685e-10 -1.09643e-07 1.20461e-08)
(-5.14808e-09 -1.16593e-07 1.20333e-08)
(6.4857e-09 -1.16437e-07 1.20095e-08)
(3.43164e-09 -1.09189e-07 1.19786e-08)
(9.02195e-09 -1.27667e-07 1.37763e-08)
(-1.61196e-09 -1.39441e-07 1.37442e-08)
(2.54212e-09 -1.39164e-07 1.37169e-08)
(-6.73174e-09 -1.26841e-07 1.36978e-08)
(3.64664e-08 -1.51429e-07 1.45956e-08)
(7.81001e-09 -1.60884e-07 1.45708e-08)
(-7.62619e-09 -1.60518e-07 1.45412e-08)
(-3.4731e-08 -1.50293e-07 1.45086e-08)
(7.97236e-08 -2.07022e-07 1.44059e-08)
(1.82865e-08 -1.93881e-07 1.44262e-08)
(-1.93565e-08 -1.93264e-07 1.43966e-08)
(-7.86711e-08 -2.05005e-07 1.43166e-08)
)
;

boundaryField
{
    interface
    {
        type            calculated;
        value           nonuniform List<vector> 
192
(
(4.38593e-08 7.96975e-08 4.85501e-08)
(7.09687e-08 3.35547e-08 1.02722e-07)
(7.34419e-08 -1.01005e-08 1.40458e-07)
(7.03353e-08 -4.57105e-08 1.7443e-07)
(6.98493e-08 -7.89459e-08 2.09635e-07)
(7.84709e-08 -1.13999e-07 2.50058e-07)
(1.04886e-07 -1.67502e-07 2.99888e-07)
(1.67839e-07 -2.90583e-07 3.5227e-07)
(2.54803e-09 2.75305e-08 6.86005e-09)
(1.57277e-08 -6.37446e-09 4.16962e-08)
(1.53965e-08 -4.07483e-08 7.78374e-08)
(1.12938e-08 -7.31811e-08 1.11278e-07)
(9.40037e-09 -1.05064e-07 1.44428e-07)
(1.60258e-08 -1.36279e-07 1.79377e-07)
(4.03991e-08 -1.74761e-07 2.13077e-07)
(1.04899e-07 -2.61371e-07 2.29111e-07)
(-1.29644e-08 5.70337e-09 4.37512e-09)
(-8.70587e-09 -2.68044e-08 3.11323e-08)
(-1.07228e-08 -5.90631e-08 6.33872e-08)
(-1.4533e-08 -8.90114e-08 9.51266e-08)
(-1.60655e-08 -1.16535e-07 1.25571e-07)
(-9.07086e-09 -1.39455e-07 1.53727e-07)
(1.58171e-08 -1.64338e-07 1.73985e-07)
(7.83219e-08 -2.34751e-07 1.75307e-07)
(-1.85336e-08 -1.61629e-09 6.85835e-09)
(-1.80185e-08 -3.44439e-08 2.9677e-08)
(-2.06967e-08 -6.67166e-08 5.65479e-08)
(-2.39134e-08 -9.48971e-08 8.36599e-08)
(-2.46151e-08 -1.18189e-07 1.08903e-07)
(-1.68672e-08 -1.34711e-07 1.29774e-07)
(8.32971e-09 -1.52913e-07 1.41728e-07)
(6.88716e-08 -2.17886e-07 1.39815e-07)
(-2.00531e-08 -3.61772e-09 7.15546e-09)
(-2.02421e-08 -3.61752e-08 2.58395e-08)
(-2.27641e-08 -6.81326e-08 4.67611e-08)
(-2.53413e-08 -9.49047e-08 6.77514e-08)
(-2.526e-08 -1.15403e-07 8.67519e-08)
(-1.68976e-08 -1.28624e-07 1.0134e-07)
(8.34282e-09 -1.44512e-07 1.08648e-07)
(6.73607e-08 -2.07364e-07 1.06746e-07)
(-2.0299e-08 -3.93558e-09 5.81456e-09)
(-2.01996e-08 -3.57619e-08 1.95578e-08)
(-2.22764e-08 -6.69651e-08 3.43794e-08)
(-2.43122e-08 -9.26228e-08 4.90138e-08)
(-2.36803e-08 -1.11624e-07 6.19586e-08)
(-1.49543e-08 -1.23553e-07 7.14979e-08)
(1.02035e-08 -1.38899e-07 7.59983e-08)
(6.81719e-08 -2.00701e-07 7.46863e-08)
(-2.02865e-08 -3.84868e-09 3.69877e-09)
(-1.98484e-08 -3.49282e-08 1.20462e-08)
(-2.15503e-08 -6.5371e-08 2.08437e-08)
(-2.3217e-08 -9.02588e-08 2.94085e-08)
(-2.22597e-08 -1.08554e-07 3.68683e-08)
(-1.33551e-08 -1.20092e-07 4.22581e-08)
(1.17027e-08 -1.35429e-07 4.47491e-08)
(6.90181e-08 -1.96692e-07 4.40117e-08)
(-2.02643e-08 -3.75466e-09 1.26217e-09)
(-1.96596e-08 -3.43878e-08 4.05535e-09)
(-2.11724e-08 -6.43819e-08 6.96685e-09)
(-2.26586e-08 -8.88796e-08 9.77981e-09)
(-2.15537e-08 -1.069e-07 1.22116e-08)
(-1.2579e-08 -1.18352e-07 1.39552e-08)
(1.24178e-08 -1.33754e-07 1.47567e-08)
(6.9419e-08 -1.94795e-07 1.45204e-08)
(5.21074e-08 8.89246e-08 4.0387e-08)
(8.52514e-08 4.9425e-08 9.39253e-08)
(8.78389e-08 8.37654e-09 1.32749e-07)
(8.36401e-08 -2.73424e-08 1.67798e-07)
(8.23986e-08 -6.23542e-08 2.03493e-07)
(9.17454e-08 -1.01437e-07 2.42741e-07)
(1.22027e-07 -1.61555e-07 2.88339e-07)
(1.71399e-07 -2.91102e-07 3.54132e-07)
(6.77507e-09 5.96192e-08 1.91545e-08)
(1.57782e-08 3.40023e-08 6.91138e-08)
(1.67568e-08 2.82781e-09 1.06461e-07)
(1.44603e-08 -3.13483e-08 1.39181e-07)
(1.30424e-08 -6.99841e-08 1.71733e-07)
(1.5996e-08 -1.13885e-07 2.07404e-07)
(2.63677e-08 -1.69629e-07 2.50571e-07)
(3.871e-08 -2.72514e-07 3.21591e-07)
(-7.77544e-09 5.90484e-08 1.83391e-08)
(-1.7123e-08 3.3637e-08 6.82256e-08)
(-1.83308e-08 2.69409e-09 1.05466e-07)
(-1.64902e-08 -3.12755e-08 1.38103e-07)
(-1.57533e-08 -6.97343e-08 1.70589e-07)
(-1.95952e-08 -1.13493e-07 2.06192e-07)
(-3.11208e-08 -1.69137e-07 2.49263e-07)
(-4.50863e-08 -2.71705e-07 3.2007e-07)
(-5.1471e-08 8.65842e-08 3.77327e-08)
(-8.44766e-08 4.82914e-08 9.10539e-08)
(-8.7325e-08 8.07298e-09 1.29527e-07)
(-8.35958e-08 -2.70372e-08 1.64322e-07)
(-8.30276e-08 -6.15352e-08 1.99827e-07)
(-9.32525e-08 -1.00187e-07 2.38922e-07)
(-1.24585e-07 -1.59977e-07 2.8437e-07)
(-1.75131e-07 -2.88639e-07 3.4988e-07)
(-3.67706e-08 7.74763e-08 4.74066e-08)
(-6.35158e-08 3.25922e-08 1.00857e-07)
(-6.60345e-08 -1.01613e-08 1.38285e-07)
(-6.32184e-08 -4.50785e-08 1.72047e-07)
(-6.32438e-08 -7.77093e-08 2.0709e-07)
(-7.25498e-08 -1.12241e-07 2.47394e-07)
(-9.96276e-08 -1.6532e-07 2.971e-07)
(-1.62095e-07 -2.87435e-07 3.49244e-07)
(3.38805e-09 2.57741e-08 6.49655e-09)
(-9.40121e-09 -7.14278e-09 4.0776e-08)
(-8.98683e-09 -4.07915e-08 7.65954e-08)
(-5.05697e-09 -7.2601e-08 1.09827e-07)
(-3.56944e-09 -1.03913e-07 1.42811e-07)
(-1.07797e-08 -1.34634e-07 1.77606e-07)
(-3.57348e-08 -1.72734e-07 2.11143e-07)
(-9.96668e-08 -2.58461e-07 2.27024e-07)
(1.86088e-08 3.94885e-09 4.12331e-09)
(1.48793e-08 -2.76077e-08 3.04731e-08)
(1.71346e-08 -5.91925e-08 6.24375e-08)
(2.09111e-08 -8.85495e-08 9.39679e-08)
(2.21745e-08 -1.15519e-07 1.24245e-07)
(1.47416e-08 -1.37957e-07 1.52249e-07)
(-1.05766e-08 -1.6247e-07 1.72365e-07)
(-7.24405e-08 -2.31948e-07 1.73578e-07)
(2.40642e-08 -3.44566e-09 6.67811e-09)
(2.41717e-08 -3.53561e-08 2.92156e-08)
(2.72069e-08 -6.69726e-08 5.58642e-08)
(3.05148e-08 -9.45707e-08 8.27966e-08)
(3.10753e-08 -1.17311e-07 1.07889e-07)
(2.30222e-08 -1.3335e-07 1.28626e-07)
(-2.47152e-09 -1.51172e-07 1.40464e-07)
(-6.22927e-08 -2.15156e-07 1.3847e-07)
(2.5539e-08 -5.50428e-09 7.03604e-09)
(2.64121e-08 -3.71858e-08 2.55341e-08)
(2.93742e-08 -6.8506e-08 4.63002e-08)
(3.214e-08 -9.47015e-08 6.71539e-08)
(3.20211e-08 -1.14646e-07 8.60328e-08)
(2.34593e-08 -1.2738e-07 1.00514e-07)
(-1.97557e-09 -1.42877e-07 1.0773e-07)
(-6.0205e-08 -2.04713e-07 1.05771e-07)
(2.57754e-08 -5.85869e-09 5.74148e-09)
(2.63982e-08 -3.6842e-08 1.93689e-08)
(2.89708e-08 -6.74271e-08 3.40899e-08)
(3.12639e-08 -9.25153e-08 4.86312e-08)
(3.06695e-08 -1.10963e-07 6.14891e-08)
(2.1821e-08 -1.22401e-07 7.09497e-08)
(-3.4572e-09 -1.37353e-07 7.53848e-08)
(-6.05842e-08 -1.98125e-07 7.40358e-08)
(2.57659e-08 -5.79314e-09 3.65999e-09)
(2.60728e-08 -3.60509e-08 1.19447e-08)
(2.83041e-08 -6.589e-08 2.06861e-08)
(3.02713e-08 -9.02151e-08 2.91972e-08)
(2.93999e-08 -1.07958e-07 3.66054e-08)
(2.04221e-08 -1.19005e-07 4.19476e-08)
(-4.70755e-09 -1.33947e-07 4.43992e-08)
(-6.11448e-08 -1.94176e-07 4.36411e-08)
(2.57482e-08 -5.709e-09 1.25011e-09)
(2.58988e-08 -3.55307e-08 4.02349e-09)
(2.79554e-08 -6.49286e-08 6.91696e-09)
(2.97626e-08 -8.88674e-08 9.71242e-09)
(2.87672e-08 -1.06337e-07 1.21271e-08)
(1.97436e-08 -1.17299e-07 1.38548e-08)
(-5.30087e-09 -1.32306e-07 1.46432e-08)
(-6.14049e-08 -1.92311e-07 1.44002e-08)
(1.71359e-07 -2.92489e-07 3.64406e-07)
(1.21952e-07 -2.499e-07 2.34836e-07)
(9.14231e-08 -2.27602e-07 1.74736e-07)
(8.10519e-08 -2.12088e-07 1.3606e-07)
(7.98426e-08 -2.01404e-07 1.02606e-07)
(8.10041e-08 -1.94307e-07 7.15289e-08)
(8.2058e-08 -1.89951e-07 4.21649e-08)
(8.25509e-08 -1.87872e-07 1.39241e-08)
(3.86802e-08 -2.59847e-07 3.45928e-07)
(2.62958e-08 -2.12077e-07 2.43103e-07)
(1.57677e-08 -1.92236e-07 1.87542e-07)
(1.22886e-08 -1.80192e-07 1.44102e-07)
(1.2561e-08 -1.72238e-07 1.06191e-07)
(1.36562e-08 -1.66768e-07 7.27902e-08)
(1.44701e-08 -1.6322e-07 4.25253e-08)
(1.48454e-08 -1.61458e-07 1.39939e-08)
(-4.50835e-08 -2.58287e-07 3.45143e-07)
(-3.11693e-08 -2.10717e-07 2.42619e-07)
(-1.96101e-08 -1.90949e-07 1.87128e-07)
(-1.53765e-08 -1.78942e-07 1.43777e-07)
(-1.50828e-08 -1.7101e-07 1.05958e-07)
(-1.57736e-08 -1.65554e-07 7.26369e-08)
(-1.63283e-08 -1.62017e-07 4.24393e-08)
(-1.65772e-08 -1.60261e-07 1.39663e-08)
(-1.75126e-07 -2.881e-07 3.62028e-07)
(-1.24629e-07 -2.45769e-07 2.33305e-07)
(-9.31487e-08 -2.23562e-07 1.73457e-07)
(-8.20005e-08 -2.08107e-07 1.35072e-07)
(-8.01996e-08 -1.97472e-07 1.01901e-07)
(-8.09395e-08 -1.90416e-07 7.10669e-08)
(-8.17235e-08 -1.86091e-07 4.19057e-08)
(-8.20845e-08 -1.8403e-07 1.38408e-08)
)
;
    }
    symmetry
    {
        type            symmetry;
    }
    bottom
    {
        type            calculated;
        value           uniform (0 0 0);
    }
}


// ************************************************************************* //
