/*--------------------------------*- C++ -*----------------------------------*\
| =========                 |                                                 |
| \\      /  F ield         | OpenFOAM: The Open Source CFD Toolbox           |
|  \\    /   O peration     | Version:  v1912                                 |
|   \\  /    A nd           | Website:  www.openfoam.com                      |
|    \\/     M anipulation  |                                                 |
\*---------------------------------------------------------------------------*/
FoamFile
{
    version     2.0;
    format      ascii;
    class       volVectorField;
    location    "0.09/solid";
    object      heatFlux;
}
// * * * * * * * * * * * * * * * * * * * * * * * * * * * * * * * * * * * * * //

dimensions      [1 0 -3 0 0 0 0];


internalField   nonuniform List<vector> 
256
(
(-125023 25177.7 -131947)
(-6201.49 12534.7 -118603)
(6386.03 12522.3 -117997)
(125949 25566.5 -129918)
(-125065 547.555 -132020)
(-6453.97 281.365 -118863)
(6645.82 280.555 -118220)
(125942 553.481 -129864)
(-125758 63.7498 -132682)
(-6468.49 28.3064 -119443)
(6658.14 27.9289 -118784)
(126569 59.4861 -130475)
(-127065 115.67 -133915)
(-6489.79 52.1748 -120555)
(6677 51.9972 -119888)
(127797 110.513 -131681)
(-129512 250.518 -136248)
(-6532.17 120.553 -122734)
(6716.48 120.566 -122064)
(130160 244.742 -134003)
(-134213 714.776 -140820)
(-6619.75 434.969 -127195)
(6801.19 435.266 -126531)
(134813 711.855 -138582)
(-143621 8382.41 -150247)
(-6811.67 7614.11 -136908)
(6993.37 7603.72 -136261)
(144366 8359.58 -148053)
(-158118 165612 -165612)
(-7398.43 154237 -154237)
(7546.66 153621 -153620)
(159698 163522 -163522)
(-108004 11748.1 -6924.05)
(-5488.13 521.122 -6010.03)
(5715.44 532.736 -5998.24)
(108354 12202.2 -6889.02)
(-108293 267.44 -7204.29)
(-5727.26 15.5275 -6272.15)
(5965.59 15.8569 -6259.45)
(108586 276.834 -7166.4)
(-108941 31.7606 -7217.86)
(-5739.71 0.841592 -6283.77)
(5976.75 0.796927 -6270.82)
(109161 28.3331 -7179.33)
(-110177 58.8626 -7236.74)
(-5758.22 1.31224 -6300.01)
(5993.08 1.23588 -6286.97)
(110302 53.5633 -7198.09)
(-112551 131.575 -7274.71)
(-5797.34 5.17334 -6335.21)
(6029 5.05869 -6322.17)
(112562 124.291 -7236.46)
(-117270 447.563 -7354.83)
(-5884.74 149.574 -6416.81)
(6112.2 149.289 -6403.91)
(117180 440.545 -7318.02)
(-127117 7541.49 -7541.46)
(-6095.61 6626.98 -6626.97)
(6319.97 6614.54 -6614.54)
(127099 7508.13 -7508.15)
(-143622 150248 -8382.36)
(-6811.69 136909 -7614.09)
(6993.34 136261 -7603.72)
(144365 148053 -8359.61)
(-97913.8 11049.4 -434.953)
(-5275.68 252.499 -133.52)
(5507.04 264.578 -133.223)
(98239.1 11511.1 -426.735)
(-98203.2 253.749 -450.727)
(-5509.14 7.62677 -141.388)
(5751.57 7.97413 -141.071)
(98462.8 263.162 -442.35)
(-98843.8 31.2937 -450.972)
(-5521.46 0.44806 -141.607)
(5762.58 0.406324 -141.288)
(99026.9 27.805 -442.643)
(-100077 58.822 -450.778)
(-5540.02 0.731762 -141.782)
(5778.93 0.654686 -141.463)
(100162 53.3905 -442.516)
(-102466 132.431 -450.016)
(-5579.62 3.74719 -142.18)
(5815.23 3.62604 -141.863)
(102433 124.811 -441.899)
(-107251 448.023 -447.982)
(-5668.83 143.207 -143.206)
(5899.99 142.896 -142.896)
(107109 440.157 -440.185)
(-117271 7354.88 -447.52)
(-5884.75 6416.83 -149.573)
(6112.18 6403.92 -149.289)
(117179 7317.99 -440.573)
(-134215 140823 -714.677)
(-6619.79 127197 -434.936)
(6801.14 126531 -435.256)
(134811 138582 -711.9)
(-93015.2 10862.4 -132.876)
(-5186.39 246.214 -3.5592)
(5422.23 258.443 -3.43904)
(93452.1 11333.1 -125.275)
(-93304.5 251.422 -136.246)
(-5417.6 7.44128 -3.76291)
(5664.63 7.79153 -3.63741)
(93673.3 260.926 -128.431)
(-93951.6 31.7099 -136.027)
(-5430.02 0.447792 -3.76448)
(5675.71 0.405245 -3.63955)
(94242.9 28.1679 -128.251)
(-95201.5 59.818 -135.432)
(-5448.91 0.739163 -3.75864)
(5692.35 0.660714 -3.63483)
(95394.4 54.3073 -127.72)
(-97624.5 134.371 -134.278)
(-5489.18 3.74874 -3.74777)
(5729.28 3.6253 -3.62558)
(97698.4 126.621 -126.656)
(-102468 450.059 -132.337)
(-5579.65 142.18 -3.74629)
(5815.22 141.863 -3.6264)
(102431 441.871 -124.845)
(-112555 7274.8 -131.477)
(-5797.38 6335.25 -5.17183)
(6028.97 6322.18 -5.05891)
(112559 7236.42 -124.326)
(-129517 136255 -250.293)
(-6532.27 122738 -120.472)
(6716.38 122066 -120.532)
(130157 134002 -244.806)
(-90544.7 10780.3 -59.6386)
(-5146.24 245.177 -0.723145)
(5385.32 257.502 -0.647665)
(91094.2 11257.4 -54.3763)
(-90835.6 250.598 -60.9915)
(-5376.53 7.42149 -0.752066)
(5626.9 7.77362 -0.673066)
(91317.3 260.187 -55.5589)
(-91490.9 32.1079 -60.7785)
(-5389.07 0.452327 -0.749886)
(5638.09 0.408898 -0.671404)
(91894.8 28.5159 -55.3745)
(-92757.4 60.5717 -60.318)
(-5408.23 0.748476 -0.744331)
(5654.96 0.668655 -0.666946)
(93062.4 54.9848 -54.977)
(-95207.3 135.527 -59.5597)
(-5448.97 3.75954 -0.734986)
(5692.33 3.63447 -0.658993)
(95392.9 127.686 -54.2968)
(-100085 450.824 -58.5562)
(-5540.12 141.783 -0.727623)
(5778.89 141.463 -0.653001)
(100159 442.488 -53.3727)
(-110188 7236.92 -58.5833)
(-5758.33 6300.11 -1.30453)
(5993.03 6287.01 -1.23177)
(110298 7198.03 -53.5371)
(-127077 133928 -115.035)
(-6490.03 120564 -51.9163)
(6676.81 119892 -51.853)
(127791 131680 -110.489)
(-89270.9 10741.8 -27.9289)
(-5127.4 244.739 -0.311439)
(5368.57 257.122 -0.266908)
(89906.1 11223.1 -24.6512)
(-89563.4 250.282 -28.5153)
(-5357.28 7.41454 -0.32277)
(5609.82 7.76779 -0.276127)
(90131.6 259.927 -25.127)
(-90225.1 32.3835 -28.3674)
(-5369.92 0.455527 -0.321116)
(5621.09 0.411364 -0.274865)
(90715.4 28.7498 -25.0003)
(-91503.3 61.0368 -28.0777)
(-5389.26 0.754063 -0.317697)
(5638.11 0.673125 -0.272292)
(91894.3 55.385 -24.7608)
(-93970.2 136.133 -27.6483)
(-5430.28 3.76545 -0.312546)
(5675.72 3.63924 -0.268165)
(94241.1 128.225 -24.3915)
(-98865.7 451.035 -27.1766)
(-5521.75 141.611 -0.308902)
(5762.57 141.29 -0.265341)
(99024.3 442.631 -23.9702)
(-108966 7218.32 -27.4089)
(-5740.03 6284.06 -0.560175)
(5976.74 6270.98 -0.516766)
(109157 7179.3 -24.2486)
(-125784 132713 -54.7862)
(-6469.09 119465 -23.7213)
(6657.81 118794 -23.6476)
(126564 130473 -51.6954)
(-88630.5 10723.8 -12.4579)
(-5118.58 244.543 -0.133554)
(5360.98 256.959 -0.110156)
(89321.5 11207.6 -10.6786)
(-88924.1 250.16 -12.7036)
(-5348.29 7.41181 -0.138165)
(5602.1 7.76566 -0.113653)
(89548.8 259.838 -10.8636)
(-89589.8 32.5454 -12.6213)
(-5360.98 0.4574 -0.137228)
(5613.41 0.412732 -0.112957)
(90136.6 28.8822 -10.7943)
(-90875.1 61.2909 -12.4684)
(-5380.42 0.757047 -0.135452)
(5630.52 0.675355 -0.1117)
(91322 55.5936 -10.673)
(-93351.2 136.428 -12.2568)
(-5421.59 3.76833 -0.132966)
(5668.25 3.64142 -0.109825)
(93677.6 128.476 -10.4986)
(-98254.8 451.063 -12.0551)
(-5513.21 141.535 -0.131402)
(5755.23 141.214 -0.108688)
(98468.4 442.631 -10.3244)
(-108349 7209.31 -12.2377)
(-5731.44 6276.7 -0.237789)
(5969.34 6263.63 -0.214848)
(108594 7170.3 -10.5173)
(-125120 132096 -24.7275)
(-6458.89 118918 -10.4076)
(6648.83 118249 -10.3588)
(125944 129863 -22.9688)
(-88362.4 10716.6 -3.55716)
(-5115.06 244.467 -0.0373403)
(5358.03 256.898 -0.0300342)
(89080.8 11201.6 -2.99324)
(-88656.6 250.119 -3.62426)
(-5344.69 7.41087 -0.0385803)
(5599.09 7.76499 -0.0309251)
(89309 259.812 -3.041)
(-89324.2 32.6187 -3.59827)
(-5357.41 0.458239 -0.0382844)
(5610.43 0.413318 -0.0307098)
(89898.7 28.9404 -3.01938)
(-90612.7 61.4013 -3.55103)
(-5376.9 0.758325 -0.0377409)
(5627.58 0.676258 -0.0303397)
(91087 55.6808 -2.98283)
(-93092.9 136.546 -3.48791)
(-5418.13 3.7695 -0.0370065)
(5665.35 3.64226 -0.0298071)
(93446.4 128.574 -2.93219)
(-97999.6 451.054 -3.43235)
(-5509.8 141.506 -0.0365775)
(5752.38 141.185 -0.0295074)
(98239.9 442.612 -2.88533)
(-108090 7205.65 -3.49697)
(-5728 6273.79 -0.0660581)
(5966.46 6260.73 -0.0588744)
(108362 7166.65 -2.95079)
(-124839 131835 -7.10105)
(-6454.72 118690 -2.94388)
(6645.25 118023 -2.92743)
(125685 129606 -6.53169)
)
;

boundaryField
{
    interface
    {
        type            calculated;
        value           nonuniform List<vector> 
192
(
(-237656 25177.7 -131947)
(-237235 547.555 -132020)
(-238592 63.7498 -132682)
(-241164 115.67 -133915)
(-245974 250.518 -136248)
(-255200 714.776 -140820)
(-273633 8382.41 -150247)
(-301473 165612 -165612)
(-205020 11748.1 -6924.05)
(-205120 267.44 -7204.29)
(-206392 31.7606 -7217.86)
(-208826 58.8626 -7236.74)
(-213495 131.575 -7274.71)
(-222758 447.563 -7354.83)
(-242031 7541.49 -7541.46)
(-273634 150248 -8382.36)
(-185265 11049.4 -434.953)
(-185376 253.749 -450.727)
(-186632 31.2937 -450.972)
(-189061 58.822 -450.778)
(-193760 132.431 -450.016)
(-203152 448.023 -447.982)
(-222761 7354.88 -447.52)
(-255205 140823 -714.677)
(-175646 10862.4 -132.876)
(-175761 251.422 -136.246)
(-177031 31.7099 -136.027)
(-179493 59.818 -135.432)
(-184258 134.371 -134.278)
(-193765 450.059 -132.337)
(-213504 7274.8 -131.477)
(-245984 136255 -250.293)
(-170785 10780.3 -59.6386)
(-170906 250.598 -60.9915)
(-172191 32.1079 -60.7785)
(-174686 60.5717 -60.318)
(-179504 135.527 -59.5597)
(-189078 450.824 -58.5562)
(-208847 7236.92 -58.5833)
(-241187 133928 -115.035)
(-168275 10741.8 -27.9289)
(-168399 250.282 -28.5153)
(-169698 32.3835 -28.3674)
(-172216 61.0368 -28.0777)
(-177067 136.133 -27.6483)
(-186675 451.035 -27.1766)
(-206439 7218.32 -27.4089)
(-238644 132713 -54.7862)
(-167012 10723.8 -12.4579)
(-167139 250.16 -12.7036)
(-168445 32.5454 -12.6213)
(-170977 61.2909 -12.4684)
(-175847 136.428 -12.2568)
(-185471 451.063 -12.0551)
(-205224 7209.31 -12.2377)
(-237337 132096 -24.7275)
(-166483 10716.6 -3.55716)
(-166611 250.119 -3.62426)
(-167921 32.6187 -3.59827)
(-170459 61.4013 -3.55103)
(-175337 136.546 -3.48791)
(-184967 451.054 -3.43235)
(-204713 7205.65 -3.49697)
(-236782 131835 -7.10105)
(-125023 25177.7 -250730)
(-125065 547.555 -250344)
(-125758 63.7498 -251641)
(-127065 115.67 -254069)
(-129512 250.518 -258660)
(-134213 714.776 -267642)
(-143621 8382.41 -286122)
(-158118 165612 -315543)
(-6201.49 12534.7 -225446)
(-6453.97 281.365 -225458)
(-6468.49 28.3064 -226595)
(-6489.79 52.1748 -228787)
(-6532.17 120.553 -233075)
(-6619.75 434.969 -241836)
(-6811.67 7614.11 -260852)
(-7398.43 154237 -293946)
(6386.03 12522.3 -224259)
(6645.82 280.555 -224197)
(6658.14 27.9289 -225302)
(6677 51.9972 -227479)
(6716.48 120.566 -231762)
(6801.19 435.266 -240533)
(6993.37 7603.72 -259582)
(7546.66 153621 -292734)
(125949 25566.5 -246736)
(125942 553.481 -246100)
(126569 59.4861 -247296)
(127797 110.513 -249672)
(130160 244.742 -254238)
(134813 711.855 -263233)
(144366 8359.58 -281795)
(159698 163522 -311410)
(239114 25566.5 -129918)
(238579 553.481 -129864)
(239808 59.4861 -130475)
(242226 110.513 -131681)
(246874 244.742 -134003)
(256009 711.855 -138582)
(274732 8359.58 -148053)
(304268 163522 -163522)
(205287 12202.2 -6889.02)
(205253 276.834 -7166.4)
(206380 28.3331 -7179.33)
(208629 53.5633 -7198.09)
(213077 124.291 -7236.46)
(222148 440.545 -7318.02)
(241569 7508.13 -7508.15)
(274731 148053 -8359.61)
(185476 11511.1 -426.735)
(185435 263.162 -442.35)
(186541 27.805 -442.643)
(188779 53.3905 -442.516)
(193247 124.811 -441.899)
(202429 440.157 -440.185)
(222146 7317.99 -440.573)
(256006 138582 -711.9)
(176072 11333.1 -125.275)
(176030 260.926 -128.431)
(177147 28.1679 -128.251)
(179417 54.3073 -127.72)
(183951 126.621 -126.656)
(193244 441.871 -124.845)
(213073 7236.42 -124.326)
(246867 134002 -244.806)
(171430 11257.4 -54.3763)
(171394 260.187 -55.5589)
(172526 28.5159 -55.3745)
(174828 54.9848 -54.977)
(179414 127.686 -54.2968)
(188773 442.488 -53.3727)
(208621 7198.03 -53.5371)
(242216 131680 -110.489)
(169087 11223.1 -24.6512)
(169056 259.927 -25.127)
(170201 28.7498 -25.0003)
(172525 55.385 -24.7608)
(177143 128.225 -24.3915)
(186536 442.631 -23.9702)
(206373 7179.3 -24.2486)
(239798 130473 -51.6954)
(167933 11207.6 -10.6786)
(167906 259.838 -10.8636)
(169059 28.8822 -10.7943)
(171396 55.5936 -10.673)
(176031 128.476 -10.4986)
(185439 442.631 -10.3244)
(205262 7170.3 -10.5173)
(238577 129863 -22.9688)
(167458 11201.6 -2.99324)
(167433 259.812 -3.041)
(168589 28.9404 -3.01938)
(170932 55.6808 -2.98283)
(175575 128.574 -2.93219)
(184988 442.612 -2.88533)
(204802 7166.65 -2.95079)
(238066 129606 -6.53169)
(-158118 315545 -165612)
(-143622 286125 -8382.36)
(-134215 267648 -714.677)
(-129517 258673 -250.293)
(-127077 254096 -115.035)
(-125784 251703 -54.7862)
(-125120 250485 -24.7275)
(-124839 249972 -7.10105)
(-7398.43 293947 -154237)
(-6811.69 260854 -7614.09)
(-6619.79 241840 -434.936)
(-6532.27 233083 -120.472)
(-6490.03 228805 -51.9163)
(-6469.09 226638 -23.7213)
(-6458.89 225558 -10.4076)
(-6454.72 225109 -2.94388)
(7546.66 292735 -153620)
(6993.34 259583 -7603.72)
(6801.14 240535 -435.256)
(6716.38 231765 -120.532)
(6676.81 227487 -51.853)
(6657.81 225323 -23.6476)
(6648.83 224247 -10.3588)
(6645.25 223800 -2.92743)
(159698 311410 -163522)
(144365 281795 -8359.61)
(134811 263232 -711.9)
(130157 254236 -244.806)
(127791 249669 -110.489)
(126564 247293 -51.6954)
(125944 246090 -22.9688)
(125685 245584 -6.53169)
)
;
    }
    symmetry
    {
        type            symmetry;
    }
    bottom
    {
        type            calculated;
        value           nonuniform List<vector> 
32
(
(-125023 49312.6 -131947)
(-108004 22987.1 -6924.05)
(-97913.8 21616.4 -434.953)
(-93015.2 21247.3 -132.876)
(-90544.7 21084.9 -59.6386)
(-89270.9 21008.8 -27.9289)
(-88630.5 20973.2 -12.4579)
(-88362.4 20958.9 -3.55716)
(-6201.49 24530.3 -118603)
(-5488.13 1012.08 -6010.03)
(-5275.68 490.206 -133.52)
(-5186.39 478.001 -3.5592)
(-5146.24 475.969 -0.723145)
(-5127.4 475.108 -0.311439)
(-5118.58 474.724 -0.133554)
(-5115.06 474.574 -0.0373403)
(6386.03 24506.6 -117997)
(5715.44 1034.62 -5998.24)
(5507.04 513.645 -133.223)
(5422.23 501.733 -3.43904)
(5385.32 499.889 -0.647665)
(5368.57 499.142 -0.266908)
(5360.98 498.821 -0.110156)
(5358.03 498.701 -0.0300342)
(125949 50074.4 -129918)
(108354 23873.8 -6889.02)
(98239.1 22518.4 -426.735)
(93452.1 22166.9 -125.275)
(91094.2 22017.3 -54.3763)
(89906.1 21949.4 -24.6512)
(89321.5 21918.7 -10.6786)
(89080.8 21906.7 -2.99324)
)
;
    }
}


// ************************************************************************* //
