/*--------------------------------*- C++ -*----------------------------------*\
| =========                 |                                                 |
| \\      /  F ield         | OpenFOAM: The Open Source CFD Toolbox           |
|  \\    /   O peration     | Version:  v1912                                 |
|   \\  /    A nd           | Website:  www.openfoam.com                      |
|    \\/     M anipulation  |                                                 |
\*---------------------------------------------------------------------------*/
FoamFile
{
    version     2.0;
    format      ascii;
    class       pointVectorField;
    location    "0.09/solid";
    object      pointDD;
}
// * * * * * * * * * * * * * * * * * * * * * * * * * * * * * * * * * * * * * //

dimensions      [0 1 0 0 0 0 0];


internalField   nonuniform List<vector> 
405
(
(4.03886e-11 1.62843e-09 3.99267e-10)
(4.76353e-10 1.1187e-09 -9.08907e-10)
(4.62394e-11 8.30196e-10 -1.3432e-09)
(-3.706e-10 1.12792e-09 -8.61255e-10)
(2.58918e-10 1.5326e-09 5.22752e-10)
(4.61861e-10 1.39142e-09 1.76134e-09)
(1.29805e-09 1.38594e-09 -7.08028e-10)
(1.9685e-10 9.76289e-10 -1.58968e-09)
(-8.73662e-10 1.32206e-09 -5.44972e-10)
(1.88706e-10 1.13337e-09 2.06384e-09)
(9.23299e-10 -5.85228e-10 3.77596e-09)
(1.73045e-09 -3.38042e-10 1.28516e-09)
(4.16657e-10 -5.31236e-10 4.16081e-10)
(-8.63826e-10 -5.55293e-10 1.55664e-09)
(1.46257e-10 -1.06085e-09 4.26629e-09)
(1.01237e-09 -2.35571e-09 5.36215e-09)
(1.86567e-09 -2.08848e-09 2.93312e-09)
(6.59645e-10 -2.25409e-09 2.10348e-09)
(-5.16009e-10 -2.43664e-09 3.27033e-09)
(5.1903e-10 -3.02606e-09 5.96693e-09)
(1.15044e-09 -4.01401e-09 6.80159e-09)
(2.01241e-09 -3.84484e-09 4.43376e-09)
(9.28354e-10 -4.08239e-09 3.62226e-09)
(-1.2758e-10 -4.30495e-09 4.81152e-09)
(8.99307e-10 -4.85804e-09 7.47764e-09)
(1.53455e-09 -5.61817e-09 8.2661e-09)
(2.33126e-09 -5.58906e-09 5.95995e-09)
(1.22519e-09 -5.93018e-09 5.15563e-09)
(1.45652e-10 -6.14774e-09 6.36214e-09)
(1.09173e-09 -6.61937e-09 8.98569e-09)
(2.37779e-09 -7.31323e-09 9.92471e-09)
(2.99243e-09 -7.37401e-09 7.66941e-09)
(1.55141e-09 -7.74996e-09 6.88121e-09)
(1.3468e-10 -8.02127e-09 8.08562e-09)
(8.81656e-10 -8.45826e-09 1.06697e-08)
(4.069e-09 -9.91917e-09 1.20783e-08)
(4.06e-09 -9.81044e-09 1.01362e-08)
(1.90644e-09 -9.94844e-09 9.43559e-09)
(-2.27153e-10 -1.05377e-08 1.05636e-08)
(-1.18999e-10 -1.11969e-08 1.28404e-08)
(5.60245e-09 -1.1041e-08 1.38129e-08)
(4.72766e-09 -1.02826e-08 1.30538e-08)
(2.13157e-09 -1.00098e-08 1.262e-08)
(-4.46303e-10 -1.10448e-08 1.34924e-08)
(-1.26808e-09 -1.23218e-08 1.45497e-08)
(-1.45303e-09 5.03984e-10 7.04898e-10)
(0 0 0)
(0 0 0)
(0 0 0)
(1.76917e-09 3.5986e-10 7.90934e-10)
(-2.70044e-09 9.81477e-11 2.47351e-09)
(0 0 0)
(0 0 0)
(0 0 0)
(3.49146e-09 -2.97479e-10 2.76279e-09)
(-2.44514e-09 -1.64065e-09 4.3836e-09)
(0 0 0)
(0 0 0)
(0 0 0)
(3.58357e-09 -2.2459e-09 4.86588e-09)
(-2.33945e-09 -3.2529e-09 5.95322e-09)
(0 0 0)
(0 0 0)
(0 0 0)
(3.89085e-09 -4.05524e-09 6.56051e-09)
(-2.13363e-09 -4.79595e-09 7.35453e-09)
(0 0 0)
(0 0 0)
(0 0 0)
(4.16807e-09 -5.78109e-09 8.04314e-09)
(-1.65652e-09 -6.2727e-09 8.74627e-09)
(0 0 0)
(0 0 0)
(0 0 0)
(4.23965e-09 -7.42761e-09 9.48735e-09)
(-7.13299e-10 -7.73841e-09 1.02645e-08)
(0 0 0)
(0 0 0)
(0 0 0)
(3.90563e-09 -9.0511e-09 1.10386e-08)
(1.34056e-09 -9.87416e-09 1.18321e-08)
(0 0 0)
(0 0 0)
(0 0 0)
(2.52463e-09 -1.13316e-08 1.26265e-08)
(4.19734e-09 -1.01579e-08 1.28103e-08)
(4.2294e-09 -8.34044e-09 1.2905e-08)
(2.07495e-09 -7.80445e-09 1.28854e-08)
(-5.80658e-11 -9.09743e-09 1.33131e-08)
(8.4457e-12 -1.14999e-08 1.35185e-08)
(-2.32437e-09 -2.2098e-10 3.31694e-10)
(0 0 0)
(0 0 0)
(0 0 0)
(2.61966e-09 -3.4237e-10 3.91803e-10)
(-4.66748e-09 -1.19373e-09 1.52586e-09)
(0 0 0)
(0 0 0)
(0 0 0)
(5.37167e-09 -1.54718e-09 1.73591e-09)
(-4.6629e-09 -2.68335e-09 3.20347e-09)
(0 0 0)
(0 0 0)
(0 0 0)
(5.63588e-09 -3.2517e-09 3.56741e-09)
(-4.56925e-09 -4.15407e-09 4.7352e-09)
(0 0 0)
(0 0 0)
(0 0 0)
(5.89743e-09 -4.92381e-09 5.2083e-09)
(-4.33102e-09 -5.58767e-09 6.11018e-09)
(0 0 0)
(0 0 0)
(0 0 0)
(6.10066e-09 -6.54551e-09 6.65991e-09)
(-3.80511e-09 -6.89863e-09 7.41578e-09)
(0 0 0)
(0 0 0)
(0 0 0)
(6.09433e-09 -8.03262e-09 8.01848e-09)
(-2.77427e-09 -8.04458e-09 8.67817e-09)
(0 0 0)
(0 0 0)
(0 0 0)
(5.65305e-09 -9.34298e-09 9.31599e-09)
(-5.43545e-10 -9.60843e-09 9.67817e-09)
(0 0 0)
(0 0 0)
(0 0 0)
(4.08183e-09 -1.10574e-08 1.03364e-08)
(2.67871e-09 -9.30363e-09 1.01937e-08)
(3.33716e-09 -7.17616e-09 1.0466e-08)
(1.89728e-09 -6.55818e-09 1.0692e-08)
(4.81482e-10 -7.93133e-09 1.08029e-08)
(1.18583e-09 -1.06425e-08 1.07787e-08)
(-2.63447e-09 -4.86492e-10 3.21607e-10)
(0 0 0)
(0 0 0)
(0 0 0)
(2.91811e-09 -5.81075e-10 3.64725e-10)
(-5.44544e-09 -1.74119e-09 1.36941e-09)
(0 0 0)
(0 0 0)
(0 0 0)
(6.09658e-09 -2.03781e-09 1.52094e-09)
(-5.63283e-09 -3.25152e-09 2.80788e-09)
(0 0 0)
(0 0 0)
(0 0 0)
(6.49631e-09 -3.7617e-09 3.07448e-09)
(-5.56748e-09 -4.70725e-09 4.16848e-09)
(0 0 0)
(0 0 0)
(0 0 0)
(6.73735e-09 -5.42473e-09 4.52293e-09)
(-5.30996e-09 -6.06193e-09 5.40372e-09)
(0 0 0)
(0 0 0)
(0 0 0)
(6.88194e-09 -6.97658e-09 5.82486e-09)
(-4.74814e-09 -7.20139e-09 6.52287e-09)
(0 0 0)
(0 0 0)
(0 0 0)
(6.80994e-09 -8.30241e-09 6.99324e-09)
(-3.65583e-09 -8.08739e-09 7.49395e-09)
(0 0 0)
(0 0 0)
(0 0 0)
(6.28635e-09 -9.36312e-09 7.99843e-09)
(-1.33385e-09 -9.4011e-09 8.17193e-09)
(0 0 0)
(0 0 0)
(0 0 0)
(4.61086e-09 -1.08376e-08 8.69641e-09)
(1.99422e-09 -8.95621e-09 8.47756e-09)
(2.84352e-09 -6.78255e-09 8.6836e-09)
(1.75309e-09 -6.15568e-09 8.89042e-09)
(6.86843e-10 -7.53753e-09 8.95149e-09)
(1.59324e-09 -1.02918e-08 8.94365e-09)
(-2.78456e-09 -5.73628e-10 2.98581e-10)
(0 0 0)
(0 0 0)
(0 0 0)
(3.06002e-09 -6.48565e-10 3.28831e-10)
(-5.80766e-09 -1.95211e-09 1.20068e-09)
(0 0 0)
(0 0 0)
(0 0 0)
(6.42237e-09 -2.20289e-09 1.3073e-09)
(-6.07983e-09 -3.52633e-09 2.38606e-09)
(0 0 0)
(0 0 0)
(0 0 0)
(6.86704e-09 -3.9833e-09 2.57538e-09)
(-6.03865e-09 -5.00717e-09 3.50346e-09)
(0 0 0)
(0 0 0)
(0 0 0)
(7.09431e-09 -5.67326e-09 3.75913e-09)
(-5.77595e-09 -6.32191e-09 4.51709e-09)
(0 0 0)
(0 0 0)
(0 0 0)
(7.20038e-09 -7.19217e-09 4.82635e-09)
(-5.19505e-09 -7.35865e-09 5.40481e-09)
(0 0 0)
(0 0 0)
(0 0 0)
(7.08242e-09 -8.42466e-09 5.75588e-09)
(-4.07087e-09 -8.12078e-09 6.12932e-09)
(0 0 0)
(0 0 0)
(0 0 0)
(6.5073e-09 -9.37162e-09 6.51061e-09)
(-1.70056e-09 -9.36251e-09 6.62546e-09)
(0 0 0)
(0 0 0)
(0 0 0)
(4.77104e-09 -1.07842e-08 7.02491e-09)
(1.72582e-09 -8.84504e-09 6.84138e-09)
(2.66334e-09 -6.61558e-09 6.95027e-09)
(1.64067e-09 -5.9917e-09 7.07568e-09)
(6.4124e-10 -7.36875e-09 7.15383e-09)
(1.64277e-09 -1.01748e-08 7.19646e-09)
(-2.86013e-09 -5.99662e-10 2.38714e-10)
(0 0 0)
(0 0 0)
(0 0 0)
(3.12929e-09 -6.61517e-10 2.58863e-10)
(-5.97134e-09 -2.02891e-09 9.41459e-10)
(0 0 0)
(0 0 0)
(0 0 0)
(6.56026e-09 -2.24742e-09 1.01287e-09)
(-6.26427e-09 -3.64903e-09 1.84598e-09)
(0 0 0)
(0 0 0)
(0 0 0)
(6.99863e-09 -4.06549e-09 1.97385e-09)
(-6.23409e-09 -5.15529e-09 2.69079e-09)
(0 0 0)
(0 0 0)
(0 0 0)
(7.20939e-09 -5.77976e-09 2.86556e-09)
(-5.97293e-09 -6.45922e-09 3.45167e-09)
(0 0 0)
(0 0 0)
(0 0 0)
(7.29124e-09 -7.29182e-09 3.66604e-09)
(-5.38639e-09 -7.45714e-09 4.10508e-09)
(0 0 0)
(0 0 0)
(0 0 0)
(7.14583e-09 -8.49228e-09 4.35169e-09)
(-4.25067e-09 -8.18261e-09 4.6262e-09)
(0 0 0)
(0 0 0)
(0 0 0)
(6.54259e-09 -9.41049e-09 4.89694e-09)
(-1.85808e-09 -9.41684e-09 4.9907e-09)
(0 0 0)
(0 0 0)
(0 0 0)
(4.77311e-09 -1.08236e-08 5.27622e-09)
(1.63833e-09 -8.85329e-09 5.1542e-09)
(2.6144e-09 -6.57404e-09 5.20608e-09)
(1.55731e-09 -5.95088e-09 5.27122e-09)
(5.22313e-10 -7.32416e-09 5.35119e-09)
(1.566e-09 -1.01754e-08 5.40797e-09)
(-2.90165e-09 -6.07113e-10 1.62417e-10)
(0 0 0)
(0 0 0)
(0 0 0)
(3.16626e-09 -6.60778e-10 1.74612e-10)
(-6.05274e-09 -2.05642e-09 6.36858e-10)
(0 0 0)
(0 0 0)
(0 0 0)
(6.62435e-09 -2.25408e-09 6.80327e-10)
(-6.34479e-09 -3.70095e-09 1.24309e-09)
(0 0 0)
(0 0 0)
(0 0 0)
(7.04464e-09 -4.09001e-09 1.32151e-09)
(-6.31696e-09 -5.22428e-09 1.80606e-09)
(0 0 0)
(0 0 0)
(0 0 0)
(7.23943e-09 -5.8194e-09 1.91423e-09)
(-6.05819e-09 -6.53165e-09 2.30988e-09)
(0 0 0)
(0 0 0)
(0 0 0)
(7.3058e-09 -7.33667e-09 2.44391e-09)
(-5.47214e-09 -7.52448e-09 2.73858e-09)
(0 0 0)
(0 0 0)
(0 0 0)
(7.14515e-09 -8.53621e-09 2.89429e-09)
(-4.33428e-09 -8.2491e-09 3.07912e-09)
(0 0 0)
(0 0 0)
(0 0 0)
(6.52744e-09 -9.45882e-09 3.25147e-09)
(-1.93201e-09 -9.49278e-09 3.32317e-09)
(0 0 0)
(0 0 0)
(0 0 0)
(4.7398e-09 -1.08867e-08 3.50582e-09)
(1.60772e-09 -8.90098e-09 3.43776e-09)
(2.60087e-09 -6.58403e-09 3.46353e-09)
(1.50038e-09 -5.95759e-09 3.4952e-09)
(4.21008e-10 -7.33101e-09 3.55621e-09)
(1.48346e-09 -1.02157e-08 3.60009e-09)
(-2.92369e-09 -6.09493e-10 8.15619e-11)
(0 0 0)
(0 0 0)
(0 0 0)
(3.18554e-09 -6.58695e-10 8.72818e-11)
(-6.09431e-09 -2.06638e-09 3.19257e-10)
(0 0 0)
(0 0 0)
(0 0 0)
(6.656e-09 -2.25247e-09 3.39731e-10)
(-6.38295e-09 -3.72154e-09 6.22293e-10)
(0 0 0)
(0 0 0)
(0 0 0)
(7.06343e-09 -4.095e-09 6.59414e-10)
(-6.35469e-09 -5.25416e-09 9.03002e-10)
(0 0 0)
(0 0 0)
(0 0 0)
(7.24745e-09 -5.83213e-09 9.54504e-10)
(-6.09734e-09 -6.56766e-09 1.15336e-09)
(0 0 0)
(0 0 0)
(0 0 0)
(7.30486e-09 -7.35619e-09 1.21757e-09)
(-5.51288e-09 -7.5653e-09 1.36567e-09)
(0 0 0)
(0 0 0)
(0 0 0)
(7.13646e-09 -8.5627e-09 1.44072e-09)
(-4.37555e-09 -8.29691e-09 1.53462e-09)
(0 0 0)
(0 0 0)
(0 0 0)
(6.51179e-09 -9.49518e-09 1.61811e-09)
(-1.96935e-09 -9.55011e-09 1.65757e-09)
(0 0 0)
(0 0 0)
(0 0 0)
(4.71493e-09 -1.09357e-08 1.74631e-09)
(1.59325e-09 -8.94369e-09 1.71724e-09)
(2.59426e-09 -6.60376e-09 1.72887e-09)
(1.46758e-09 -5.97349e-09 1.74197e-09)
(3.61388e-10 -7.34854e-09 1.77391e-09)
(1.43236e-09 -1.02534e-08 1.79613e-09)
(-2.13554e-09 -6.83203e-10 0)
(-1.99186e-10 -4.12419e-10 0)
(-4.95997e-12 -4.15887e-10 0)
(1.97898e-10 -4.35961e-10 0)
(2.3144e-09 -7.38812e-10 0)
(-3.44465e-09 -1.93393e-09 0)
(-5.63909e-10 -1.78326e-09 0)
(2.91844e-12 -1.79179e-09 0)
(5.91126e-10 -1.87865e-09 0)
(3.74819e-09 -2.09637e-09 0)
(-3.73767e-09 -3.68534e-09 0)
(-7.63445e-10 -3.6401e-09 0)
(5.32583e-11 -3.68614e-09 0)
(8.96411e-10 -3.83423e-09 0)
(4.15452e-09 -4.01407e-09 0)
(-3.74076e-09 -5.27664e-09 0)
(-7.59989e-10 -5.34554e-09 0)
(1.54849e-10 -5.47561e-09 0)
(1.09779e-09 -5.64185e-09 0)
(4.36533e-09 -5.78388e-09 0)
(-3.53859e-09 -6.6517e-09 0)
(-6.10488e-10 -6.86311e-09 0)
(3.10717e-10 -7.10254e-09 0)
(1.26136e-09 -7.26334e-09 0)
(4.47605e-09 -7.34244e-09 0)
(-3.02844e-09 -7.76008e-09 0)
(-2.37143e-10 -8.17842e-09 0)
(5.21815e-10 -8.54242e-09 0)
(1.31114e-09 -8.6822e-09 0)
(4.38443e-09 -8.63349e-09 0)
(-1.95424e-09 -8.66276e-09 0)
(5.51448e-10 -9.26978e-09 0)
(7.86746e-10 -9.67956e-09 0)
(1.0521e-09 -9.87443e-09 0)
(3.82992e-09 -9.71307e-09 0)
(1.38754e-10 -9.94722e-09 0)
(1.81523e-09 -1.02783e-08 0)
(1.1016e-09 -1.0406e-08 0)
(4.14847e-10 -1.09776e-08 0)
(2.35239e-09 -1.11648e-08 0)
(2.17306e-09 -9.67979e-09 0)
(2.57173e-09 -8.70631e-09 0)
(1.3639e-09 -8.32203e-09 0)
(1.78347e-10 -9.45054e-09 0)
(6.93235e-10 -1.09264e-08 0)
)
;

boundaryField
{
    interface
    {
        type            calculated;
    }
    symmetry
    {
        type            symmetry;
    }
    bottom
    {
        type            calculated;
    }
}


// ************************************************************************* //
