/*--------------------------------*- C++ -*----------------------------------*\
| =========                 |                                                 |
| \\      /  F ield         | OpenFOAM: The Open Source CFD Toolbox           |
|  \\    /   O peration     | Version:  v1912                                 |
|   \\  /    A nd           | Website:  www.openfoam.com                      |
|    \\/     M anipulation  |                                                 |
\*---------------------------------------------------------------------------*/
FoamFile
{
    version     2.0;
    format      ascii;
    class       volSymmTensorField;
    location    "0.09/solid";
    object      sigma;
}
// * * * * * * * * * * * * * * * * * * * * * * * * * * * * * * * * * * * * * //

dimensions      [1 -1 -2 0 0 0 0];


internalField   nonuniform List<symmTensor> 
256
(
(-727034 -10597.6 12789.4 -205681 -18029.1 -764062)
(-121432 -13350.1 5992.3 -61192.4 -13707.6 -626540)
(-121810 15541.2 -6074.34 -61033.8 -13572.3 -623339)
(-728732 11129.8 -12642.1 -202683 -17521.5 -752048)
(-730470 -2942.08 18073.7 -274744 -10735 -771134)
(-123682 -2589.46 8843.97 -108772 -11955.2 -640567)
(-124645 3919.07 -8942.62 -109120 -11862.6 -637318)
(-732472 3471.78 -17866.1 -273051 -10391.9 -758691)
(-730786 538.709 17857.1 -253870 -7266.96 -769862)
(-118007 474.94 8798.11 -90469.2 -7932.31 -638117)
(-118956 525.1 -8882.72 -90869.3 -7853.43 -634813)
(-732294 -95.981 -17636.7 -251668 -6964.42 -757090)
(-738899 1621.72 17589.5 -241528 -6274.95 -775152)
(-117944 1383.16 8665.74 -73183.4 -5887.25 -640810)
(-118839 -585.347 -8736.83 -73553.2 -5810.67 -637485)
(-739870 -1265.78 -17358.3 -238946 -5984.37 -762207)
(-753178 929.62 18000.2 -233023 -7450.86 -787509)
(-116230 858.142 8922.71 -56489.3 -6582.29 -649739)
(-117090 -259.139 -8979.75 -56862 -6502.98 -646424)
(-753647 -664.608 -17756.3 -230265 -7161.14 -774487)
(-772281 -3436.06 18849.9 -218500 -12012.9 -807609)
(-100702 -2152.06 9435.36 -40066.3 -11168.2 -665424)
(-101591 2540.89 -9474.81 -40470.6 -11077.8 -662170)
(-772545 3558.45 -18594.8 -215763 -11708.9 -794678)
(-805272 -13413.3 19604.3 -234392 -20828.3 -845102)
(-71855.8 -7378.53 9862.8 -73586.4 -20773.1 -699249)
(-73000.6 7557.73 -9873.57 -73801.7 -20654.1 -696157)
(-806671 13293.5 -19346.5 -231451 -20485.6 -832678)
(-943927 -19311.4 19332 -987662 -24085.4 -987584)
(-216323 -9675.32 9708.72 -860097 -24787.4 -860053)
(-217240 9719.93 -9682.1 -856798 -24664.3 -856729)
(-949290 19117.2 -19098.5 -975393 -23783 -975272)
(-561738 2366 8154.72 -11667.8 -39111.7 -110760)
(32340.9 -8860.88 3853.44 125670 -47316.6 30579)
(31150.2 10126 -3803.32 124389 -46934.2 29898.3)
(-561392 -1986.83 -7971.35 -10934.6 -37958.3 -108469)
(-583235 -1177.55 12655.3 -81345.2 -24499.6 -128549)
(9776.82 -1989.33 6759.32 97871.9 -29229.9 14198.3)
(8172.51 2681.54 -6651.98 96140.2 -28985.4 13216)
(-582996 1466.04 -12383.2 -81852.3 -23701.4 -126806)
(-585182 38.8321 12668.9 -74290.8 -19198.9 -122146)
(8433.18 9.3404 6869.49 97404.1 -20515.5 18855.7)
(6828.66 475.841 -6747.44 95655.4 -20320.4 17799)
(-584427 180.4 -12386.9 -74255.4 -18517 -120332)
(-591217 1242.38 12255.5 -65875.1 -18096.1 -117539)
(10639.4 889.621 6579.62 107695 -17717.9 26187)
(9066.51 -537.197 -6456.36 105966 -17530.2 25078.3)
(-589857 -1078.81 -11972 -65463 -17439.9 -115665)
(-602945 936.356 12318.3 -59323.6 -20574.8 -113631)
(17954.5 573.354 6643.46 123475 -19728.2 36726.8)
(16410.8 -358.141 -6510.84 121739 -19533.7 35566.5)
(-600909 -837.122 -12028.2 -58664.4 -19912.2 -111696)
(-619679 -3112.66 12729.6 -52940.1 -25911.1 -103504)
(41240.3 -2194.04 6991.67 135163 -25179.8 57443.2)
(39680.3 2271.67 -6838.65 133442 -24976.8 56222)
(-617124 3092.87 -12430.4 -52094.4 -25237.2 -101572)
(-651736 -13164.9 13201.4 -89116.2 -29427.1 -88984.9)
(80210.3 -7296.42 7360.94 85603.9 -29065.5 85719.2)
(78429.2 7287.89 -7202.79 84240.4 -28872.5 84424.9)
(-649893 12931.4 -12910 -87662.5 -28802.6 -87369)
(-805305 -19591.2 13463.4 -845212 -20795.5 -234255)
(-71948.6 -9842.16 7478.57 -699360 -20755.6 -73557.3)
(-73081.7 9898.74 -7445.52 -696283 -20639.6 -73686.5)
(-806681 19357.9 -13259.9 -832815 -20464.9 -231128)
(-513516 9946.21 1503.72 13911.2 -28968.6 -82627.6)
(16944.3 -3402.34 821.745 127486 -37275.2 57741.8)
(15895.6 4216.9 -706.311 126273 -36963.8 56954)
(-512714 -9694.8 -1434.82 15200.6 -28037.3 -80270.7)
(-543863 641.26 3295.37 -54022.1 -26277.9 -97832.8)
(-16652.6 -798.291 2030.16 113332 -30285 56203.3)
(-18037.9 1153.16 -1833.11 111633 -30021.9 54995.6)
(-543089 -471.632 -3171.77 -54279.4 -25452.4 -96346.8)
(-547437 -171.246 3541.73 -51235.2 -24455.3 -88476.3)
(-21985.7 -241.047 2216.27 108719 -25477.7 63468.2)
(-23358.7 466.406 -2009 106999 -25239.3 62152)
(-546131 287.049 -3408.41 -51014.9 -23686.5 -87010.4)
(-553143 886.67 3286.87 -48867 -24562.9 -79798.7)
(-20103.9 584.464 2043.51 110829 -24175.9 74208.5)
(-21446.3 -435.812 -1841.67 109127 -23941.1 72825.8)
(-551221 -805.903 -3154.51 -48283.6 -23808 -78304)
(-565130 821.818 3094.08 -51211.6 -26522.8 -71618.7)
(-13262.6 527.026 1966.15 116607 -25749.7 89653.4)
(-14575.8 -464.786 -1762.92 114905 -25511.2 88205.6)
(-562502 -785.126 -2960.6 -50351.6 -25766.7 -70081.2)
(-583619 -3010.97 3044.5 -57321 -28349 -59101.6)
(7627.49 -2015.4 2062.18 115814 -27654 114177)
(6296.72 1998.76 -1856.91 114148 -27420.4 112656)
(-580421 2949.26 -2910.55 -56206.3 -27609.4 -57585.4)
(-619620 -12705 3186.34 -102711 -25307 -52630.9)
(41358.8 -6942.57 2291.53 58156.9 -24683 135484)
(39796.6 6913.57 -2130.27 56865.6 -24489.6 133907)
(-617043 12452.2 -3073.97 -100949 -24676.5 -51398.4)
(-772367 -18848 3555.46 -807524 -11743.3 -218136)
(-100937 -9422.58 2328.72 -665406 -10964.9 -39900)
(-101817 9495.34 -2375.05 -662162 -10882.5 -40130.1)
(-772585 18608.7 -3542.79 -794608 -11473.5 -214963)
(-488416 11946.4 -649.149 23407.2 -23811.8 -79537.5)
(7596.6 -1496.99 -508.534 122227 -27988.7 51870.5)
(6557.24 2107.25 616.324 121153 -27770.9 51165.3)
(-488129 -11803.3 673.132 25108.6 -23152.2 -77007.4)
(-522533 1363.98 -626.841 -45976.5 -24298.9 -95677)
(-32382.1 -265.289 -547.372 110110 -26243.7 52632.6)
(-33759.4 452.965 737.208 108515 -26022.7 51505.6)
(-522308 -1259.46 682.578 -46112.9 -23617.1 -94074.3)
(-527346 -187.776 -527.943 -45500.6 -24484.1 -84509.1)
(-40115.3 -311.165 -497.645 103849 -24902.4 61840.3)
(-41473.1 409.244 699.184 102200 -24681.8 60593.5)
(-526587 255.361 592.672 -45268.8 -23799.5 -82966.8)
(-533191 652.125 -633.278 -47365 -25126.2 -73450.6)
(-38702.7 411.841 -564.161 100909 -24722.3 74627.5)
(-40027.8 -351.197 759.265 99265 -24498.7 73307)
(-531813 -606.047 697.374 -46809.6 -24434.9 -71901.2)
(-545354 617.803 -818.654 -55282.2 -25717.9 -63784.5)
(-32146 454.743 -646.543 100340 -25034.7 91511.4)
(-33441.8 -443.151 836.505 98696.4 -24809.3 90122)
(-543267 -601.829 880.948 -54449.1 -25024.8 -62201.4)
(-564733 -3031.77 -953.95 -66093 -24295.6 -53948.8)
(-12516.2 -1899.42 -645.996 94850.2 -23645.1 113545)
(-13830.2 1869.21 822.719 93246.3 -23431.6 112085)
(-562065 2963.78 1010.54 -64985.2 -23631.7 -52375.3)
(-602674 -12243.3 -892.198 -110952 -18163.1 -58275.1)
(18523 -6549.2 -518.049 39234.7 -17531.5 124372)
(16975.6 6537.11 627.045 37996.5 -17365.8 122881)
(-600576 11996.4 920.532 -109197 -17620.5 -56916.5)
(-753358 -17973.6 -711.275 -786928 -6498.31 -231562)
(-116645 -8893.2 -613.086 -649293 -5731.22 -55368.4)
(-117497 8976.86 500.8 -645983 -5668.26 -55448.5)
(-753736 17739.6 641.871 -773893 -6277.09 -228019)
(-473735 11822 -757.814 27823.7 -19441.6 -75012)
(5671.89 -1476.77 -602.419 119017 -20744.3 47736.1)
(4621.28 1988.4 680.961 118069 -20598.3 47110.7)
(-474038 -11750.8 769.954 29802 -19000.6 -72418.5)
(-508017 1367.33 -1201.63 -41791.6 -20447.4 -90387.6)
(-35453.6 -283.071 -987.76 106432 -20896.9 47706)
(-36863.2 389.553 1134.28 104937 -20732.1 46682.3)
(-508437 -1298.04 1235.85 -41857.1 -19944.8 -88700.5)
(-513257 -226.724 -1262.55 -42908.4 -21165.1 -78220.9)
(-44002.2 -364.195 -1048.84 98845.3 -21098.6 57589.1)
(-45389.8 401.022 1209.6 97265.1 -20923.2 56448.6)
(-513145 271.722 1304.99 -42697.7 -20630.2 -76591.3)
(-519323 526.142 -1317.97 -47119.4 -21623.9 -66519.3)
(-42928.1 331.918 -1076.85 93386.2 -21231.7 70900.4)
(-44280.4 -309.104 1233.71 91795.4 -21049.2 69684.8)
(-518589 -494.41 1360.53 -46628.1 -21068.2 -64887.3)
(-531641 475.544 -1425.69 -57188.6 -21091.3 -57626.5)
(-36544.8 405.906 -1119.34 90347.9 -20566.1 86897.5)
(-37867.3 -408.412 1268.5 88753 -20381.6 85613.4)
(-530196 -465.361 1465.47 -56432.1 -20529.5 -55961.4)
(-551441 -3040.47 -1510.11 -68551.8 -18261 -51585.3)
(-17478.9 -1820.89 -1124.72 84392.4 -17768.5 105066)
(-18819.5 1797.62 1254.08 82836 -17596.1 103717)
(-549411 2975.19 1541.71 -67516.9 -17726.4 -49914.8)
(-590220 -11900.4 -1466.05 -111637 -12207.4 -62617.3)
(12400.9 -6255.73 -1059.39 31687.4 -11750 109377)
(10827 6262.51 1118.54 30488.4 -11619.7 108011)
(-588726 11662.4 1469.07 -109951 -11777.4 -61116)
(-739028 -17352.7 -1403.75 -773518 -3936.3 -236417)
(-118078 -8509.97 -1188.43 -639227 -3429.03 -68734.9)
(-118957 8603.24 1047.52 -635895 -3380.32 -68671.3)
(-739822 17126.5 1319.98 -760509 -3760.6 -232610)
(-465748 11343.7 -456.055 28786.8 -14460 -71982.7)
(5658.43 -1836.78 -352.879 116604 -14588.9 45691.7)
(4602.55 2299.55 404.617 115753 -14495.9 45120.9)
(-466510 -11314 463.953 30946.7 -14183.1 -69374.8)
(-499238 1184.31 -804.254 -40478.3 -15320 -86214.7)
(-34712 -445.933 -644.646 103390 -15155.3 44906.6)
(-36144.1 514 745.873 101972 -15043.8 43957.1)
(-500157 -1132.76 828.272 -40489.4 -14983.5 -84478.9)
(-504420 -297.561 -898.923 -42426.5 -15940.3 -73635)
(-43185.2 -423.204 -719.876 94950.6 -15679.6 54698.9)
(-44594.4 431.425 834.778 93427 -15556 53639.7)
(-504808 332.289 929.846 -42223.2 -15566.8 -71937.2)
(-510596 457.746 -941.268 -47599.3 -16070.1 -62265.9)
(-42212.8 297.553 -738.168 88535.7 -15742.6 67587.8)
(-43584.9 -291.246 851.816 86988.8 -15611.2 66455.4)
(-510359 -431.958 972.784 -47149.7 -15672.4 -60559.5)
(-523050 407.138 -993.782 -58070.3 -15106.6 -54915.4)
(-35952.7 391.405 -753.186 85028.8 -14754.2 82023.4)
(-37294.4 -397.36 859.685 83472.5 -14620.5 80824.2)
(-522099 -398.298 1022.68 -57369.7 -14700 -53172.2)
(-543092 -3027.63 -1029.68 -68886.6 -12389.3 -51871.3)
(-17186 -1763.93 -750.671 79732.9 -12081.2 97213.3)
(-18545.7 1748.51 838.008 78213 -11956.6 95953.6)
(-541551 2965.6 1050.76 -67908 -12001.7 -50113)
(-582236 -11692.2 -1000.12 -110878 -7828.54 -66271.7)
(12170.8 -6082.43 -722.307 28784.9 -7569.09 98331.7)
(10578 6102.58 750.477 27617.4 -7475.73 97061.5)
(-581211 11461 997.17 -109244 -7517.97 -64658.9)
(-729771 -17001.6 -980.217 -765789 -2460.66 -239029)
(-115692 -8295.81 -825.571 -633501 -2195.35 -77765.7)
(-116594 8396.56 696.644 -630163 -2160.34 -77601.7)
(-730930 16782.1 909.421 -752833 -2332.9 -235051)
(-461760 11011.6 -211.592 28307.5 -8894.83 -70468.4)
(5783.79 -2089.07 -150.966 114774 -8761.36 44832.3)
(4726.89 2528.99 180.351 113986 -8709.77 44294.5)
(-462822 -11003.8 216.256 30576.1 -8743.33 -67863)
(-494605 1045.62 -383.957 -40634.6 -9428.61 -83927.8)
(-33738.5 -563.752 -289.32 101184 -9191.61 43803.4)
(-35182 614.795 348.518 99819.1 -9127.57 42899.2)
(-495847 -1002.23 398.578 -40607.6 -9236.88 -82167.5)
(-499636 -355.821 -444.892 -42901.7 -9793.95 -71309.1)
(-41936.3 -465.556 -333.768 92346 -9566.91 53304.7)
(-43356.5 461.172 402.455 90861.7 -9494.13 52296.9)
(-500347 386.197 464.073 -42696.3 -9575.04 -69567.7)
(-505838 419.562 -472.959 -48313.9 -9753.81 -60520.8)
(-40937.9 282.419 -345.236 85712.7 -9539.81 65543.5)
(-42320 -283.326 413.744 84196.8 -9461.24 64465.2)
(-505921 -396.235 492.647 -47884.3 -9516.49 -58762.2)
(-518379 379.105 -496.892 -58630.4 -8955.11 -54474.7)
(-34749.3 391.933 -349.772 82368 -8756.86 78693.9)
(-36100.6 -398.868 413.192 80838.8 -8676.34 77550.1)
(-517746 -370.592 514.67 -57960.4 -8710.09 -52675.4)
(-538561 -3012.2 -509.7 -68916.6 -7134.32 -53254.5)
(-16154.8 -1728.52 -346.244 77684.2 -6975.39 92121.4)
(-17524 1717.77 395.896 76189.9 -6900.28 90919.2)
(-537335 2952.15 521.862 -67970 -6899.76 -51435.6)
(-577866 -11583.5 -494.083 -110372 -4405.44 -69201.3)
(12947.2 -5995.97 -337.13 27594.8 -4286.84 91815.7)
(11344.9 6023.69 347.373 26449.7 -4230.63 90606.4)
(-577145 11356.3 490.224 -108768 -4217.33 -67516.8)
(-724665 -16831 -485.75 -761798 -1379.08 -241087)
(-113623 -8195.23 -398.052 -630551 -1266.08 -83048.6)
(-114538 8300.73 308.179 -627212 -1244.94 -82823.5)
(-726077 16615.9 438.709 -748887 -1301.35 -237009)
(-460134 10864.4 -59.3528 27756.9 -2999.35 -69884.2)
(5808.32 -2195.7 -39.1013 113758 -2931.57 44532.3)
(4751.52 2626.74 48.632 113001 -2915.05 44010.2)
(-461344 -10866.1 60.8882 30076.6 -2951.17 -67282.8)
(-492675 984.424 -107.298 -41028 -3176.34 -82997.5)
(-33268.6 -613.761 -75.9846 100015 -3081.39 43497.8)
(-34716.9 658.42 95.4147 98676.1 -3060.54 42615)
(-494075 -944.187 112.175 -40981.2 -3114.13 -81227.3)
(-497620 -384.284 -126.328 -43381.4 -3292.5 -70445.2)
(-41295.4 -484.681 -89.1203 91044.5 -3207.61 52805.7)
(-42720.1 475.522 111.848 89580.4 -3183.61 51822.7)
(-498489 413.071 132.764 -43172.6 -3220.45 -68683.2)
(-503821 402.067 -135.963 -48799.2 -3256.87 -60042.5)
(-40259 276.467 -92.9492 84415.1 -3183.04 64627)
(-41645 -280.241 115.634 82915.3 -3156.92 63575)
(-504059 -379.689 142.556 -48376.8 -3178 -58258)
(-516401 368.962 -143.067 -58947.7 -2956.95 -54688.6)
(-34099.6 394.137 -94.0504 81249.5 -2893.26 77100.3)
(-35454.8 -401.566 114.813 79734.4 -2866.37 75983.7)
(-515922 -360.616 148.922 -58290.6 -2875.04 -52861.4)
(-536647 -3003.71 -146.267 -68958.8 -2327.45 -54295.6)
(-15584.9 -1712.54 -92.8366 76879.1 -2279.29 89741.1)
(-16958.1 1703.6 108.521 75398.2 -2254.16 88566.9)
(-535573 2944.43 150.045 -68026.3 -2248.79 -52447.3)
(-576014 -11538.6 -141.595 -110193 -1426.48 -70845.4)
(13407.4 -5961.95 -91.2346 27134.7 -1393.69 88890.6)
(11801.3 5992.75 93.0091 26001.3 -1374.88 87710.5)
(-575440 11313.1 139.71 -108602 -1363.31 -69127.5)
(-722483 -16764.2 -138.833 -760135 -446.147 -242302)
(-112643 -8157.57 -110.935 -629319 -416.392 -85436.5)
(-113564 8265.2 78.2276 -625979 -409.301 -85182.6)
(-724022 16551.3 122.078 -747248 -419.978 -238180)
)
;

boundaryField
{
    interface
    {
        type            calculated;
        value           nonuniform List<symmTensor> 
192
(
(-88.443 0.235095 6.19851 954636 -18029.1 396256)
(-90.1018 0.0719585 7.4782 885543 -10735 389154)
(-90.5243 -0.167357 7.48399 911401 -7266.96 395409)
(-90.9011 -0.406752 7.32506 936404 -6274.95 402781)
(-90.4545 -0.724209 7.04619 968206 -7450.86 413720)
(-91.3458 -1.37436 6.65629 1.02387e+06 -12012.9 434760)
(-87.4754 -1.84137 5.93252 1.08795e+06 -20828.3 477236)
(-92.2872 -4.48923 5.24207 493527 -24085.4 493605)
(-82.4893 0.197149 3.3294 961256 -39111.7 862164)
(-83.3019 -0.00194473 4.09151 901149 -24499.6 853945)
(-83.5567 -0.275666 4.07413 913579 -19198.9 865723)
(-83.9598 -0.575302 3.95053 933276 -18096.1 881612)
(-83.5403 -0.962649 3.74738 961529 -20574.8 907221)
(-84.94 -1.73645 3.46987 1.00816e+06 -25911.1 957601)
(-81.0844 -2.26141 3.02345 1.05456e+06 -29427.1 1.05469e+06)
(-87.4835 -5.17683 2.60579 477145 -20795.5 1.0881e+06)
(-87.392 0.225811 2.729 895611 -28968.6 799072)
(-88.3106 -0.0216672 3.3343 841081 -26277.9 797270)
(-88.5717 -0.359633 3.32334 849886 -24455.3 812645)
(-88.96 -0.725267 3.22664 863374 -24562.9 832442)
(-88.3614 -1.1904 3.06446 882948 -26522.8 862540)
(-89.6662 -2.08287 2.83708 918307 -28349 916526)
(-84.976 -2.70542 2.49116 958378 -25307 1.00846e+06)
(-91.3895 -5.89522 2.13473 434896 -11743.3 1.02428e+06)
(-86.4056 0.222777 1.84419 859998 -23811.8 757053)
(-87.131 -0.0528906 2.27083 805647 -24298.9 755947)
(-87.315 -0.427206 2.25981 812719 -24484.1 773711)
(-87.6944 -0.834706 2.18913 822153 -25126.2 796067)
(-87.0723 -1.35022 2.07341 836469 -25717.9 827967)
(-88.4965 -2.30977 1.91335 867916 -24295.6 880060)
(-83.6894 -2.97922 1.68556 909814 -18163.1 962491)
(-90.6045 -6.28012 1.45372 414415 -6498.31 969781)
(-87.2068 0.229244 1.33887 840762 -19441.6 737926)
(-87.9361 -0.0695919 1.64959 786269 -20447.4 737673)
(-88.102 -0.474294 1.6439 791989 -21165.1 756677)
(-88.4775 -0.913117 1.59541 799287 -21623.9 779887)
(-87.8124 -1.46626 1.51514 811706 -21091.3 811268)
(-89.2261 -2.47284 1.40314 843021 -18261 859988)
(-84.2108 -3.17968 1.24776 887160 -12207.4 936179)
(-91.1705 -6.55778 1.08434 404552 -3936.3 941653)
(-87.3421 0.234504 0.891299 829337 -14460 728568)
(-88.044 -0.0803135 1.10165 774870 -15320 729133)
(-88.1848 -0.505556 1.09981 779779 -15940.3 748570)
(-88.5547 -0.9651 1.0699 786245 -16070.1 771579)
(-87.8677 -1.54332 1.01965 798439 -15106.6 801594)
(-89.2823 -2.57959 0.948905 830527 -12389.3 847542)
(-84.1752 -3.30993 0.852627 875899 -7828.54 920505)
(-91.2175 -6.73493 0.750888 399231 -2460.66 925991)
(-87.4679 0.240544 0.513501 822637 -8894.83 723862)
(-88.1654 -0.0844336 0.637061 768225 -9428.61 724932)
(-88.295 -0.52256 0.638443 772779 -9793.95 744372)
(-88.6637 -0.994613 0.623966 779067 -9753.81 766860)
(-87.9657 -1.5881 0.598561 791518 -8955.11 795674)
(-89.3777 -2.64183 0.56127 824253 -7134.32 839915)
(-84.2135 -3.38625 0.51163 870190 -4405.44 911361)
(-91.2901 -6.8393 0.456781 396365 -1379.08 917076)
(-87.5145 0.245176 0.168637 819501 -2999.35 721860)
(-88.2086 -0.0843685 0.210031 765120 -3176.34 723150)
(-88.3337 -0.528279 0.211253 769564 -3292.5 742500)
(-88.7017 -1.00582 0.207312 775867 -3256.87 764624)
(-88.0039 -1.60659 0.200049 788532 -2956.95 792792)
(-89.4101 -2.66771 0.188675 821591 -2327.45 836254)
(-84.2289 -3.41957 0.174179 867751 -1426.48 907099)
(-91.3098 -6.88538 0.15671 395110 -446.147 912943)
(495872 -10597.6 -10.3116 1.01723e+06 -0.181788 -34.1781)
(494088 -2942.08 -12.5323 949814 -0.231061 -30.3762)
(497859 538.709 -12.6107 974775 -0.198808 -30.017)
(500685 1621.72 -12.4875 998056 -0.231325 -30.8752)
(508099 929.62 -12.2744 1.02825e+06 -0.277755 -32.599)
(529687 -3436.06 -12.0006 1.08347e+06 -0.357265 -35.5041)
(578762 -13413.3 -11.5806 1.14964e+06 -0.384661 -39.2042)
(606244 -19311.4 -11.3542 562510 -0.491581 -43.8085)
(952229 -13350.1 -8.67311 1.01247e+06 -0.0510776 -50.3489)
(956033 -2589.46 -10.7315 970943 -0.0761828 -49.8018)
(964719 474.94 -10.7934 992257 -0.0612537 -49.8246)
(973765 1383.16 -10.6951 1.01853e+06 -0.0607165 -50.09)
(994617 858.142 -10.5511 1.05436e+06 -0.0634887 -50.5924)
(1.04816e+06 -2152.06 -10.3821 1.10879e+06 -0.0780836 -51.3982)
(1.15941e+06 -7378.53 -10.1629 1.15768e+06 -0.0850846 -52.2729)
(1.20205e+06 -9675.32 -10.1013 558280 -0.10743 -53.3091)
(946240 15541.2 -8.88929 1.00702e+06 -0.0762634 -45.1)
(949176 3919.07 -10.9846 964702 -0.021416 -44.7334)
(957737 525.1 -11.0569 985823 0.0448635 -44.7734)
(966774 -585.347 -10.9537 1.01206e+06 0.0968784 -45.0422)
(987649 -259.139 -10.7957 1.04788e+06 0.149163 -45.5969)
(1.04122e+06 2540.89 -10.5989 1.10234e+06 0.201685 -46.4029)
(1.15241e+06 7557.73 -10.3432 1.15161e+06 0.249171 -47.5367)
(1.19539e+06 9719.93 -10.2127 555828 0.271086 -48.732)
(474753 11129.8 -10.2483 1.0008e+06 -0.103906 -47.8413)
(471590 3471.78 -12.5732 931011 0.0244807 -47.7435)
(475352 -95.981 -12.6512 955979 0.134866 -47.7459)
(478455 -1265.78 -12.5174 979379 0.22814 -47.802)
(486248 -664.608 -12.2943 1.00963e+06 0.320396 -48.0291)
(508128 3558.45 -12.0003 1.06491e+06 0.422091 -48.1914)
(556581 13293.5 -11.5551 1.1318e+06 0.499551 -48.7314)
(580841 19117.2 -11.2935 554738 0.598764 -48.9657)
(-9.02314 0.44984 6.19258 963607 -17521.5 414242)
(-4.41467 0.195985 7.55023 892931 -10391.9 407290)
(-3.81515 -0.185201 7.5446 918629 -6964.42 413207)
(-4.09211 -0.483792 7.38906 943231 -5984.37 419971)
(-5.58886 -0.85058 7.13163 974417 -7161.14 430195)
(-6.19728 -1.51207 6.78569 1.02964e+06 -11708.9 450729)
(-11.4205 -1.90416 6.12825 1.09545e+06 -20485.6 494219)
(-0.697905 -4.90542 5.67457 518119 -23783 518240)
(-31.0713 0.22615 2.87653 962818 -37958.3 865283)
(-30.1516 0.00340435 3.65716 901037 -23701.4 856083)
(-29.9453 -0.310409 3.6255 913271 -18517 867195)
(-29.6143 -0.624918 3.51446 932424 -17439.9 882221)
(-29.796 -1.02001 3.35445 959846 -19912.2 906815)
(-27.7048 -1.75902 3.15348 1.00576e+06 -25237.2 956283)
(-30.0728 -2.0439 2.82215 1.0536e+06 -28802.6 1.05389e+06)
(-11.3336 -5.35625 2.68556 494081 -20464.9 1.09577e+06)
(-29.761 0.214891 2.59843 897336 -28037.3 801865)
(-28.9036 -0.0452773 3.24467 840728 -25452.4 798661)
(-28.5934 -0.395939 3.23389 849247 -23686.5 813251)
(-28.0795 -0.758567 3.14565 862151 -23808 832131)
(-28.0195 -1.21386 3.00701 880876 -25766.7 861147)
(-25.3311 -2.0459 2.81582 915497 -27609.4 914118)
(-27.5777 -2.37217 2.53042 956865 -24676.5 1.00642e+06)
(-5.96513 -6.00717 2.29152 450804 -11473.5 1.03045e+06)
(-33.2067 0.208946 1.80109 863119 -23152.2 761003)
(-32.5664 -0.0802877 2.26871 806398 -23617.1 758436)
(-32.2487 -0.462491 2.25936 813065 -23799.5 775367)
(-31.5644 -0.858862 2.19372 821870 -24434.9 796779)
(-31.1778 -1.35552 2.09134 835333 -25024.8 827580)
(-27.8123 -2.23562 1.95049 866046 -23631.7 878656)
(-29.465 -2.56666 1.7603 909155 -17620.5 961435)
(-5.10746 -6.34579 1.60375 430803 -6277.09 976677)
(-33.8662 0.216552 1.32757 845196 -19000.6 742975)
(-33.2148 -0.0962273 1.66638 788150 -19944.8 741307)
(-32.8282 -0.505924 1.66317 793372 -20630.2 759479)
(-32.0066 -0.928326 1.61917 799995 -21068.2 781735)
(-31.4099 -1.45716 1.54841 811544 -20529.5 812015)
(-27.6875 -2.37138 1.4485 842124 -17726.4 859726)
(-29.0855 -2.7163 1.31772 887424 -11777.4 936259)
(-3.26668 -6.59631 1.19772 421611 -3760.6 949510)
(-34.412 0.225241 0.899118 834747 -14183.1 734425)
(-33.7521 -0.10443 1.12895 777622 -14983.5 733632)
(-33.3224 -0.534182 1.12903 781971 -15566.8 752257)
(-32.4134 -0.974882 1.10194 787722 -15672.4 774312)
(-31.6792 -1.52631 1.05718 799028 -14700 803226)
(-27.7347 -2.46193 0.992789 830373 -12001.7 848168)
(-28.9341 -2.81579 0.911202 876882 -7517.97 921467)
(-2.09513 -6.7591 0.834538 416843 -2332.9 934625)
(-34.7044 0.233368 0.520898 828675 -8743.33 730236)
(-34.0305 -0.106883 0.655383 771549 -9236.88 729989)
(-33.5674 -0.549101 0.657909 775507 -9575.04 748635)
(-32.5981 -1.00088 0.645143 781052 -9516.49 770175)
(-31.7711 -1.56622 0.62286 792601 -8710.09 797886)
(-27.6903 -2.51406 0.588953 824585 -6899.76 841120)
(-28.7625 -2.87333 0.547936 871646 -4217.33 912897)
(-1.30766 -6.85482 0.506337 414350 -1301.35 926228)
(-34.8329 0.239065 0.171687 825844 -2951.17 728484)
(-34.1517 -0.105909 0.216648 768724 -3114.13 728478)
(-33.671 -0.55369 0.218263 772556 -3220.45 747045)
(-32.6725 -1.0103 0.214914 778105 -3178 768223)
(-31.7957 -1.58243 0.208676 789858 -2875.04 795287)
(-27.6595 -2.53477 0.198338 822163 -2248.79 837742)
(-28.655 -2.89762 0.18684 869440 -1363.31 908915)
(-0.926408 -6.89688 0.173372 413283 -419.978 922351)
(606283 10.6137 19332 -43.7261 -0.461909 562626)
(578787 10.8351 13463.4 -39.0687 -0.356018 1.14984e+06)
(529586 11.2487 3555.46 -35.2868 -0.325211 1.08382e+06)
(507714 11.5164 -711.275 -32.2591 -0.237601 1.02951e+06)
(499953 11.7255 -1403.75 -30.2637 -0.17922 1.00256e+06)
(497351 11.8652 -980.217 -28.8112 -0.116065 988093)
(496398 11.9493 -485.75 -27.9089 -0.0632966 979976)
(496033 11.9868 -138.833 -27.4824 -0.019755 976214)
(1.20208e+06 9.38346 9708.72 -53.2178 -0.0875051 558347)
(1.15938e+06 9.43307 7478.57 -52.1248 -0.0666717 1.15777e+06)
(1.04793e+06 9.64 2328.72 -51.1697 -0.0575268 1.10897e+06)
(994040 9.79516 -613.086 -50.2641 -0.0379912 1.05532e+06)
(973017 9.92171 -1188.43 -49.608 -0.0276565 1.02236e+06)
(965208 10.0083 -825.571 -49.0958 -0.0159036 1.00313e+06)
(962158 10.0599 -398.052 -48.7643 -0.00673607 992732)
(961005 10.0821 -110.935 -48.5875 -0.00127516 988211)
(1.19542e+06 9.49411 -9682.1 -48.632 0.276856 555930)
(1.15239e+06 9.61199 -7445.52 -47.3681 0.253864 1.15178e+06)
(1.041e+06 9.85496 -2375.05 -46.1412 0.20826 1.10269e+06)
(987066 10.0376 500.8 -45.2183 0.158897 1.04911e+06)
(966005 10.1793 1047.52 -44.5073 0.114336 1.01629e+06)
(958184 10.2762 696.644 -43.9917 0.0756731 997175)
(955132 10.3338 308.179 -43.6608 0.0415062 986846)
(953979 10.3581 78.2276 -43.5045 0.0127661 982360)
(580895 10.5478 -19098.5 -48.8614 0.593352 554913)
(556630 10.8024 -13259.9 -48.5508 0.492958 1.13218e+06)
(508054 11.2388 -3542.79 -47.9107 0.415952 1.06568e+06)
(485897 11.5236 641.871 -47.6238 0.315273 1.01161e+06)
(477764 11.7384 1319.98 -47.2612 0.2311 984976)
(474881 11.8832 909.421 -47.0004 0.15223 970761)
(473747 11.9702 438.709 -46.8195 0.0834151 962814)
(473293 12.0085 122.078 -46.72 0.0259424 959135)
)
;
    }
    symmetry
    {
        type            symmetry;
    }
    bottom
    {
        type            calculated;
        value           nonuniform List<symmTensor> 
32
(
(-987691 -16786.1 12789.4 -402944 -18270 -1.02472e+06)
(-669841 15009.3 8154.72 -72348.2 -44042.6 -218863)
(-616083 29905.9 1503.72 -45276 -28990 -185195)
(-588985 32909.5 -649.149 -34191.1 -23143.2 -180106)
(-573410 32363.5 -757.814 -29044.9 -19012.5 -174687)
(-565068 31464 -456.055 -27887.1 -14297.8 -171303)
(-560925 30892.7 -211.592 -28300.9 -8870.73 -169633)
(-559234 30643.2 -59.3528 -28818 -3004.64 -168984)
(-244582 -19866.1 5992.3 -144121 -2334.76 -749689)
(33448.7 -12054.5 3853.44 136689 -53515.7 31686.7)
(14228.7 -3929.63 821.745 125234 -40243.2 55026.3)
(3405.51 -1353.02 -508.534 116431 -28933.2 47679.4)
(1318.3 -1388.48 -602.419 112825 -20966.9 43382.5)
(1460.65 -1868.95 -352.879 110769 -14661.2 41493.9)
(1760.19 -2183.71 -150.966 109342 -8817.81 40808.7)
(1883.01 -2312.23 -39.1013 108554 -2956.64 40607)
(-244659 22270.4 -6074.34 -143458 -2176.57 -746187)
(32248.2 13282.1 -3803.32 135572 -53052.8 30996.3)
(13178.2 4662.86 -706.311 124213 -39887.8 54236.6)
(2370.16 1912.33 616.324 115564 -28696.1 46978.2)
(274.777 1885.55 680.961 112093 -20812.6 42764.2)
(413.791 2345.22 404.617 110139 -14564.8 40932.1)
(713.484 2655.61 180.351 108779 -8764.88 40281.1)
(836.94 2784.42 48.632 108023 -2939.77 40095.6)
(-993249 16681 -12642.1 -402602 -17547.8 -1.01656e+06)
(-674237 -15100.5 -7971.35 -75290.6 -42632.3 -221314)
(-620002 -30099.5 -1434.82 -47484.7 -27940.1 -187559)
(-593415 -33229.2 673.132 -35835.8 -22436.2 -182294)
(-578434 -32767.5 769.954 -30310.5 -18555.1 -176814)
(-570553 -31913.9 463.953 -28910 -14017 -173418)
(-566714 -31365.1 216.256 -29182.2 -8719.25 -171755)
(-565173 -31124.8 60.8882 -29634.1 -2956.82 -171111)
)
;
    }
}


// ************************************************************************* //
