/*--------------------------------*- C++ -*----------------------------------*\
| =========                 |                                                 |
| \\      /  F ield         | OpenFOAM: The Open Source CFD Toolbox           |
|  \\    /   O peration     | Version:  v1912                                 |
|   \\  /    A nd           | Website:  www.openfoam.com                      |
|    \\/     M anipulation  |                                                 |
\*---------------------------------------------------------------------------*/
FoamFile
{
    version     2.0;
    format      ascii;
    class       volScalarField;
    location    "0.09/solid";
    object      T;
}
// * * * * * * * * * * * * * * * * * * * * * * * * * * * * * * * * * * * * * //

dimensions      [0 0 0 1 0 0 0];


internalField   nonuniform List<scalar> 
256
(
292.384
292.693
292.694
292.374
292.358
292.68
292.68
292.348
292.356
292.679
292.68
292.346
292.354
292.678
292.679
292.345
292.35
292.677
292.677
292.341
292.342
292.672
292.673
292.332
292.315
292.655
292.655
292.305
291.923
292.292
292.293
291.914
292.713
292.987
292.987
292.702
292.7
292.987
292.986
292.688
292.699
292.987
292.986
292.688
292.698
292.987
292.986
292.687
292.696
292.987
292.986
292.685
292.692
292.986
292.986
292.681
292.674
292.979
292.979
292.663
292.315
292.655
292.655
292.305
292.73
292.994
292.994
292.719
292.718
292.994
292.993
292.706
292.717
292.993
292.993
292.705
292.716
292.993
292.993
292.705
292.714
292.993
292.993
292.703
292.71
292.993
292.993
292.698
292.692
292.986
292.986
292.681
292.342
292.672
292.673
292.332
292.734
292.994
292.994
292.723
292.722
292.994
292.993
292.71
292.722
292.994
292.993
292.71
292.721
292.994
292.993
292.709
292.719
292.994
292.993
292.707
292.714
292.993
292.993
292.703
292.696
292.987
292.986
292.685
292.35
292.677
292.677
292.341
292.736
292.994
292.994
292.725
292.725
292.994
292.993
292.712
292.724
292.994
292.993
292.712
292.723
292.994
292.993
292.711
292.721
292.994
292.993
292.709
292.716
292.993
292.993
292.705
292.698
292.987
292.986
292.687
292.354
292.678
292.679
292.345
292.737
292.994
292.994
292.726
292.726
292.994
292.993
292.713
292.725
292.994
292.993
292.713
292.724
292.994
292.993
292.712
292.722
292.994
292.993
292.71
292.717
292.993
292.993
292.705
292.699
292.987
292.986
292.688
292.356
292.679
292.68
292.346
292.738
292.994
292.994
292.726
292.726
292.994
292.993
292.714
292.725
292.994
292.993
292.713
292.724
292.994
292.993
292.712
292.722
292.994
292.993
292.71
292.718
292.993
292.993
292.706
292.7
292.987
292.986
292.688
292.357
292.68
292.68
292.347
292.738
292.994
292.994
292.726
292.726
292.994
292.993
292.714
292.726
292.994
292.993
292.713
292.725
292.994
292.993
292.712
292.722
292.994
292.993
292.71
292.718
292.993
292.993
292.706
292.7
292.987
292.986
292.688
292.357
292.68
292.68
292.348
)
;

boundaryField
{
    interface
    {
        type            fixedValue;
        value           nonuniform List<scalar> 
192
(
289.542
289.517
289.496
289.458
289.388
289.258
288.992
288.233
290.286
290.27
290.251
290.216
290.151
290.025
289.76
288.992
290.555
290.539
290.52
290.486
290.42
290.293
290.025
289.257
290.685
290.669
290.65
290.615
290.549
290.42
290.151
289.388
290.752
290.736
290.717
290.682
290.615
290.485
290.216
289.458
290.788
290.772
290.753
290.717
290.65
290.52
290.25
289.495
290.806
290.79
290.771
290.735
290.667
290.537
290.268
289.515
290.814
290.798
290.779
290.742
290.675
290.545
290.275
289.523
289.379
289.354
289.333
289.297
289.23
289.102
288.835
288.057
290.005
289.989
289.972
289.94
289.88
289.76
289.498
288.706
290.021
290.006
289.989
289.957
289.897
289.777
289.515
288.723
289.421
289.399
289.38
289.345
289.278
289.15
288.882
288.103
289.528
289.504
289.485
289.449
289.381
289.251
288.981
288.203
290.285
290.27
290.253
290.22
290.158
290.034
289.767
288.981
290.555
290.54
290.524
290.491
290.429
290.304
290.034
289.251
290.682
290.668
290.651
290.619
290.555
290.429
290.158
289.381
290.747
290.733
290.716
290.683
290.619
290.491
290.22
289.449
290.781
290.766
290.749
290.716
290.651
290.524
290.253
289.485
290.798
290.783
290.766
290.732
290.668
290.54
290.269
289.504
290.805
290.791
290.773
290.739
290.675
290.547
290.276
289.512
288.057
288.835
289.102
289.23
289.297
289.332
289.351
289.359
288.706
289.498
289.76
289.88
289.94
289.971
289.987
289.994
288.723
289.515
289.777
289.897
289.957
289.989
290.005
290.011
288.103
288.882
289.15
289.278
289.345
289.38
289.398
289.406
)
;
    }
    symmetry
    {
        type            symmetry;
    }
    bottom
    {
        type            fixedValue;
        value           uniform 293;
    }
}


// ************************************************************************* //
