/*--------------------------------*- C++ -*----------------------------------*\
| =========                 |                                                 |
| \\      /  F ield         | OpenFOAM: The Open Source CFD Toolbox           |
|  \\    /   O peration     | Version:  v1912                                 |
|   \\  /    A nd           | Website:  www.openfoam.com                      |
|    \\/     M anipulation  |                                                 |
\*---------------------------------------------------------------------------*/
FoamFile
{
    version     2.0;
    format      ascii;
    class       volVectorField;
    location    "0.09/solid";
    object      U;
}
// * * * * * * * * * * * * * * * * * * * * * * * * * * * * * * * * * * * * * //

dimensions      [0 1 -1 0 0 0 0];


internalField   nonuniform List<vector> 
256
(
(1.74578e-07 9.60372e-08 2.45232e-07)
(3.93141e-08 2.26677e-08 1.64525e-07)
(-2.60304e-08 2.08117e-08 1.69088e-07)
(-1.55746e-07 8.4373e-08 2.61578e-07)
(2.65459e-07 -3.16019e-08 5.00543e-07)
(8.33906e-08 -7.27847e-08 4.04785e-07)
(-3.51202e-08 -8.14082e-08 4.15996e-07)
(-2.09552e-07 -6.30718e-08 5.37272e-07)
(2.74246e-07 -1.91263e-07 6.70512e-07)
(1.02217e-07 -2.10205e-07 5.84377e-07)
(-1.18699e-08 -2.25313e-07 5.99755e-07)
(-1.76709e-07 -2.40424e-07 7.19462e-07)
(2.75457e-07 -3.56684e-07 8.12133e-07)
(1.17613e-07 -3.75649e-07 7.30609e-07)
(2.12439e-08 -3.96422e-07 7.48517e-07)
(-1.29996e-07 -4.21578e-07 8.68597e-07)
(2.9154e-07 -5.25566e-07 9.4604e-07)
(1.40857e-07 -5.58058e-07 8.65063e-07)
(5.291e-08 -5.83867e-07 8.84526e-07)
(-9.15729e-08 -6.04686e-07 1.00716e-06)
(3.40418e-07 -7.00822e-07 1.0899e-06)
(1.80866e-07 -7.50339e-07 1.00871e-06)
(7.42332e-08 -7.80731e-07 1.02913e-06)
(-7.94895e-08 -7.92994e-07 1.15381e-06)
(4.51707e-07 -9.05185e-07 1.26515e-06)
(2.45871e-07 -9.45621e-07 1.18674e-06)
(7.68562e-08 -9.80207e-07 1.20783e-06)
(-1.23749e-07 -1.00953e-06 1.33076e-06)
(6.30036e-07 -1.21519e-06 1.46787e-06)
(3.14987e-07 -1.16295e-06 1.39941e-06)
(8.10574e-08 -1.20076e-06 1.42109e-06)
(-2.29789e-07 -1.33099e-06 1.53476e-06)
(3.89274e-08 -3.11968e-08 1.19421e-07)
(9.95226e-09 -6.20997e-08 1.24328e-07)
(-3.48032e-09 -6.55773e-08 1.28019e-07)
(-2.65498e-08 -4.56529e-08 1.30723e-07)
(6.80376e-08 -1.64302e-07 3.35524e-07)
(2.98292e-08 -1.86231e-07 3.52276e-07)
(1.27118e-09 -1.96647e-07 3.61528e-07)
(-2.90554e-08 -1.98566e-07 3.63057e-07)
(7.35236e-08 -3.07834e-07 5.09542e-07)
(4.33733e-08 -3.23708e-07 5.345e-07)
(2.22091e-08 -3.39993e-07 5.47439e-07)
(-4.08433e-10 -3.58564e-07 5.47887e-07)
(7.87122e-08 -4.61101e-07 6.55018e-07)
(5.83074e-08 -4.81345e-07 6.82964e-07)
(5.03842e-08 -5.02755e-07 6.98252e-07)
(3.71218e-08 -5.26608e-07 7.00448e-07)
(9.84077e-08 -6.20317e-07 7.89465e-07)
(8.17588e-08 -6.54966e-07 8.17293e-07)
(7.81233e-08 -6.81085e-07 8.34093e-07)
(6.83709e-08 -6.99548e-07 8.39564e-07)
(1.52664e-07 -7.81137e-07 9.26606e-07)
(1.22894e-07 -8.3335e-07 9.53086e-07)
(9.5848e-08 -8.63887e-07 9.7087e-07)
(7.27218e-08 -8.7326e-07 9.79745e-07)
(2.74322e-07 -9.43753e-07 1.06531e-06)
(1.90742e-07 -9.85043e-07 1.09059e-06)
(9.40546e-08 -1.01967e-06 1.10901e-06)
(1.66176e-08 -1.04804e-06 1.12035e-06)
(4.69026e-07 -1.14239e-06 1.15719e-06)
(2.63179e-07 -1.08061e-06 1.18191e-06)
(9.40537e-08 -1.11824e-06 1.20066e-06)
(-1.06659e-07 -1.25795e-06 1.21316e-06)
(-2.91876e-08 -6.4222e-08 8.65497e-08)
(-1.5118e-08 -7.6024e-08 1.02839e-07)
(1.77551e-08 -7.93715e-08 1.05649e-07)
(3.72799e-08 -7.66441e-08 9.48432e-08)
(-4.96833e-08 -2.27793e-07 2.61155e-07)
(-1.85759e-08 -2.35188e-07 2.94093e-07)
(3.83894e-08 -2.45314e-07 3.0112e-07)
(7.69161e-08 -2.59407e-07 2.81531e-07)
(-5.18181e-08 -3.80489e-07 4.19494e-07)
(-1.1008e-08 -3.9149e-07 4.59255e-07)
(5.88724e-08 -4.0737e-07 4.69221e-07)
(1.06931e-07 -4.28628e-07 4.48491e-07)
(-4.40479e-08 -5.30242e-07 5.58396e-07)
(3.34722e-09 -5.5058e-07 6.00145e-07)
(8.25281e-08 -5.71534e-07 6.12135e-07)
(1.36967e-07 -5.93412e-07 5.93548e-07)
(-2.09134e-08 -6.76498e-07 6.84253e-07)
(2.71011e-08 -7.13102e-07 7.25739e-07)
(1.06152e-07 -7.38788e-07 7.39133e-07)
(1.61119e-07 -7.53795e-07 7.23782e-07)
(3.85217e-08 -8.12192e-07 8.01292e-07)
(6.945e-08 -8.67037e-07 8.41248e-07)
(1.19965e-07 -8.97218e-07 8.55605e-07)
(1.5771e-07 -9.02878e-07 8.43856e-07)
(1.69362e-07 -9.35483e-07 9.00206e-07)
(1.40161e-07 -9.78259e-07 9.37786e-07)
(1.13553e-07 -1.01263e-06 9.52754e-07)
(9.07454e-08 -1.03886e-06 9.44696e-07)
(3.74841e-07 -1.09735e-06 9.51317e-07)
(2.15763e-07 -1.03327e-06 9.86545e-07)
(1.09442e-07 -1.07072e-06 1.00177e-06)
(-4.42345e-08 -1.2126e-06 9.96655e-07)
(-5.04965e-08 -7.4815e-08 7.08258e-08)
(-2.41721e-08 -7.83735e-08 7.92264e-08)
(2.46426e-08 -8.13644e-08 8.13104e-08)
(5.57737e-08 -8.52313e-08 7.68598e-08)
(-9.28873e-08 -2.55636e-07 2.11449e-07)
(-3.90326e-08 -2.553e-07 2.29959e-07)
(5.16497e-08 -2.64574e-07 2.35147e-07)
(1.12233e-07 -2.83776e-07 2.26278e-07)
(-1.01683e-07 -4.19371e-07 3.44024e-07)
(-3.6098e-08 -4.26783e-07 3.67209e-07)
(7.17989e-08 -4.41688e-07 3.74617e-07)
(1.44149e-07 -4.63865e-07 3.65345e-07)
(-9.4022e-08 -5.69787e-07 4.64107e-07)
(-2.31345e-08 -5.89563e-07 4.88901e-07)
(9.25051e-08 -6.09609e-07 4.97929e-07)
(1.70121e-07 -6.29686e-07 4.90378e-07)
(-6.91739e-08 -7.06596e-07 5.71248e-07)
(2.78559e-10 -7.44204e-07 5.9609e-07)
(1.12979e-07 -7.69128e-07 6.0632e-07)
(1.89187e-07 -7.81221e-07 6.01287e-07)
(-6.65486e-09 -8.24947e-07 6.63986e-07)
(4.30561e-08 -8.81568e-07 6.87868e-07)
(1.23758e-07 -9.11169e-07 6.98968e-07)
(1.80178e-07 -9.1364e-07 6.96784e-07)
(1.29273e-07 -9.30414e-07 7.3524e-07)
(1.15152e-07 -9.74903e-07 7.57398e-07)
(1.14196e-07 -1.00889e-06 7.69059e-07)
(1.06423e-07 -1.03252e-06 7.69846e-07)
(3.4057e-07 -1.08579e-06 7.73439e-07)
(1.92392e-07 -1.02248e-06 7.94041e-07)
(1.0745e-07 -1.05976e-06 8.05923e-07)
(-3.53708e-08 -1.20056e-06 8.08824e-07)
(-5.47072e-08 -7.94426e-08 5.60703e-08)
(-2.57234e-08 -7.98942e-08 5.85238e-08)
(2.49516e-08 -8.25927e-08 5.9997e-08)
(5.81887e-08 -8.84172e-08 6.02646e-08)
(-1.02701e-07 -2.68e-07 1.65176e-07)
(-4.40376e-08 -2.64319e-07 1.71775e-07)
(5.21411e-08 -2.72809e-07 1.75451e-07)
(1.16897e-07 -2.93284e-07 1.75547e-07)
(-1.14567e-07 -4.3819e-07 2.68727e-07)
(-4.35869e-08 -4.43592e-07 2.77838e-07)
(7.12064e-08 -4.57538e-07 2.83116e-07)
(1.48478e-07 -4.79419e-07 2.83768e-07)
(-1.07897e-07 -5.90009e-07 3.63563e-07)
(-3.20949e-08 -6.09093e-07 3.73866e-07)
(9.00043e-08 -6.28215e-07 3.80362e-07)
(1.72197e-07 -6.46824e-07 3.82325e-07)
(-8.28339e-08 -7.2246e-07 4.47227e-07)
(-9.50038e-09 -7.60301e-07 4.57855e-07)
(1.08402e-07 -7.84436e-07 4.65302e-07)
(1.88245e-07 -7.94476e-07 4.68972e-07)
(-1.92026e-08 -8.3352e-07 5.16994e-07)
(3.3004e-08 -8.90991e-07 5.27302e-07)
(1.17186e-07 -9.19978e-07 5.35468e-07)
(1.75924e-07 -9.20203e-07 5.41026e-07)
(1.18863e-07 -9.3436e-07 5.69178e-07)
(1.05398e-07 -9.79906e-07 5.78644e-07)
(1.05718e-07 -1.01347e-06 5.87284e-07)
(9.84714e-08 -1.0351e-06 5.94759e-07)
(3.331e-07 -1.09019e-06 6.00185e-07)
(1.8324e-07 -1.02754e-06 6.08802e-07)
(9.73884e-08 -1.06459e-06 6.17611e-07)
(-4.72549e-08 -1.20428e-06 6.26403e-07)
(-5.48414e-08 -8.1609e-08 4.04731e-08)
(-2.55021e-08 -8.1071e-08 4.06112e-08)
(2.40337e-08 -8.35615e-08 4.1577e-08)
(5.72188e-08 -8.96126e-08 4.31847e-08)
(-1.03022e-07 -2.73551e-07 1.1833e-07)
(-4.43981e-08 -2.68672e-07 1.19696e-07)
(4.97635e-08 -2.76584e-07 1.22119e-07)
(1.13985e-07 -2.96807e-07 1.25095e-07)
(-1.15603e-07 -4.46767e-07 1.92085e-07)
(-4.49997e-08 -4.51221e-07 1.94568e-07)
(6.74873e-08 -4.64426e-07 1.98069e-07)
(1.43989e-07 -4.85549e-07 2.01977e-07)
(-1.0967e-07 -5.99781e-07 2.59681e-07)
(-3.4576e-08 -6.18309e-07 2.62908e-07)
(8.4944e-08 -6.36687e-07 2.67253e-07)
(1.66132e-07 -6.54176e-07 2.72141e-07)
(-8.50099e-08 -7.31295e-07 3.18895e-07)
(-1.284e-08 -7.68994e-07 3.22504e-07)
(1.02029e-07 -7.92471e-07 3.27531e-07)
(1.80481e-07 -8.01183e-07 3.33489e-07)
(-2.13213e-08 -8.409e-07 3.6762e-07)
(2.91235e-08 -8.98595e-07 3.71271e-07)
(1.09581e-07 -9.27052e-07 3.7683e-07)
(1.6638e-07 -9.25877e-07 3.83907e-07)
(1.17461e-07 -9.42021e-07 4.04202e-07)
(1.01369e-07 -9.87891e-07 4.07566e-07)
(9.69523e-08 -1.02107e-06 4.13481e-07)
(8.69339e-08 -1.04152e-06 4.21662e-07)
(3.33172e-07 -1.09928e-06 4.27636e-07)
(1.7933e-07 -1.03644e-06 4.30543e-07)
(8.76431e-08 -1.07324e-06 4.36571e-07)
(-6.11393e-08 -1.21262e-06 4.45554e-07)
(-5.46003e-08 -8.2574e-08 2.43864e-08)
(-2.52441e-08 -8.17497e-08 2.40704e-08)
(2.34122e-08 -8.41073e-08 2.46133e-08)
(5.63502e-08 -8.99804e-08 2.58953e-08)
(-1.02204e-07 -2.75956e-07 7.10248e-08)
(-4.41515e-08 -2.70711e-07 7.09554e-08)
(4.79816e-08 -2.78253e-07 7.23249e-08)
(1.113e-07 -2.97938e-07 7.48183e-08)
(-1.14732e-07 -4.50498e-07 1.15078e-07)
(-4.5172e-08 -4.54553e-07 1.15442e-07)
(6.4676e-08 -4.67272e-07 1.17432e-07)
(1.39858e-07 -4.87697e-07 1.20663e-07)
(-1.09148e-07 -6.04385e-07 1.55375e-07)
(-3.53744e-08 -6.22558e-07 1.56124e-07)
(8.12383e-08 -6.40433e-07 1.58609e-07)
(1.60887e-07 -6.57164e-07 1.6246e-07)
(-8.49068e-08 -7.36328e-07 1.90551e-07)
(-1.42642e-08 -7.73811e-07 1.91575e-07)
(9.75299e-08 -7.9683e-07 1.94468e-07)
(1.74279e-07 -8.04753e-07 1.98911e-07)
(-2.14563e-08 -8.46518e-07 2.19428e-07)
(2.72269e-08 -9.04169e-07 2.2058e-07)
(1.04358e-07 -9.32245e-07 2.23798e-07)
(1.59253e-07 -9.30283e-07 2.28822e-07)
(1.17517e-07 -9.48916e-07 2.41324e-07)
(9.92566e-08 -9.94732e-07 2.4242e-07)
(9.10321e-08 -1.02762e-06 2.45859e-07)
(7.87254e-08 -1.04749e-06 2.51442e-07)
(3.33948e-07 -1.10739e-06 2.55942e-07)
(1.77172e-07 -1.04397e-06 2.56803e-07)
(8.11368e-08 -1.08058e-06 2.60305e-07)
(-7.07061e-08 -1.22011e-06 2.66332e-07)
(-5.45229e-08 -8.29367e-08 8.13888e-09)
(-2.51515e-08 -8.20308e-08 7.9926e-09)
(2.31675e-08 -8.43239e-08 8.16728e-09)
(5.59917e-08 -9.00606e-08 8.62177e-09)
(-1.01837e-07 -2.7684e-07 2.36652e-08)
(-4.40518e-08 -2.71498e-07 2.35444e-08)
(4.72032e-08 -2.78862e-07 2.39865e-08)
(1.10088e-07 -2.98214e-07 2.48846e-08)
(-1.14258e-07 -4.51894e-07 3.83055e-08)
(-4.52308e-08 -4.55806e-07 3.82963e-08)
(6.33828e-08 -4.68288e-07 3.89409e-08)
(1.37891e-07 -4.88327e-07 4.01072e-08)
(-1.08795e-07 -6.06254e-07 5.16786e-08)
(-3.57122e-08 -6.24262e-07 5.17868e-08)
(7.94997e-08 -6.41888e-07 5.25943e-08)
(1.58343e-07 -6.58239e-07 5.39731e-08)
(-8.47753e-08 -7.38688e-07 6.33369e-08)
(-1.4913e-08 -7.76038e-07 6.35422e-08)
(9.54121e-08 -7.98828e-07 6.44856e-08)
(1.71288e-07 -8.06382e-07 6.60547e-08)
(-2.14945e-08 -8.49531e-07 7.29126e-08)
(2.63257e-08 -9.0711e-07 7.31753e-08)
(1.01901e-07 -9.34991e-07 7.42281e-08)
(1.55856e-07 -9.32679e-07 7.5977e-08)
(1.1752e-07 -9.52781e-07 8.02186e-08)
(9.82281e-08 -9.98492e-07 8.04806e-08)
(8.82433e-08 -1.03123e-06 8.16074e-08)
(7.48387e-08 -1.05087e-06 8.35274e-08)
(3.34249e-07 -1.11194e-06 8.51831e-08)
(1.76094e-07 -1.0481e-06 8.53708e-08)
(7.80741e-08 -1.0846e-06 8.6518e-08)
(-7.52175e-08 -1.22433e-06 8.8581e-08)
)
;

boundaryField
{
    interface
    {
        type            calculated;
        value           nonuniform List<vector> 
192
(
(-1.58154e-07 2.06048e-07 2.13477e-07)
(-9.38053e-08 -6.68326e-09 4.50704e-07)
(-8.22867e-08 -1.88761e-07 6.17968e-07)
(-7.28057e-08 -3.52357e-07 7.60147e-07)
(-4.48067e-08 -5.09322e-07 8.95166e-07)
(1.72628e-08 -6.60776e-07 1.04085e-06)
(1.34087e-07 -8.32776e-07 1.21909e-06)
(4.04339e-07 -1.16445e-06 1.42561e-06)
(-4.23058e-07 -4.454e-09 6.84823e-08)
(-4.05157e-07 -1.55651e-07 2.5674e-07)
(-3.96809e-07 -3.05163e-07 4.28028e-07)
(-3.8388e-07 -4.54876e-07 5.75144e-07)
(-3.51958e-07 -6.01826e-07 7.11354e-07)
(-2.83106e-07 -7.37154e-07 8.51134e-07)
(-1.53564e-07 -8.64658e-07 9.94724e-07)
(1.51361e-07 -1.08778e-06 1.0934e-06)
(-5.06689e-07 -8.39379e-08 6.41955e-08)
(-5.32089e-07 -2.33449e-07 2.20925e-07)
(-5.31106e-07 -3.79078e-07 3.75693e-07)
(-5.15907e-07 -5.22513e-07 5.15214e-07)
(-4.80663e-07 -6.55852e-07 6.42359e-07)
(-4.06316e-07 -7.6462e-07 7.61464e-07)
(-2.66722e-07 -8.514e-07 8.63945e-07)
(5.15068e-08 -1.03953e-06 9.19204e-07)
(-5.47099e-07 -1.10659e-07 6.44474e-08)
(-5.923e-07 -2.6843e-07 1.98196e-07)
(-5.97636e-07 -4.19652e-07 3.28338e-07)
(-5.82345e-07 -5.61657e-07 4.48146e-07)
(-5.45071e-07 -6.84751e-07 5.5577e-07)
(-4.67205e-07 -7.75332e-07 6.49557e-07)
(-3.2209e-07 -8.43605e-07 7.22616e-07)
(3.76661e-09 -1.0259e-06 7.63005e-07)
(-5.66725e-07 -1.18792e-07 5.4985e-08)
(-6.1694e-07 -2.82962e-07 1.62643e-07)
(-6.25055e-07 -4.39487e-07 2.65248e-07)
(-6.10424e-07 -5.82072e-07 3.59652e-07)
(-5.72542e-07 -7.00283e-07 4.43269e-07)
(-4.93202e-07 -7.83092e-07 5.13329e-07)
(-3.45852e-07 -8.46281e-07 5.66226e-07)
(-1.60485e-08 -1.02922e-06 5.98337e-07)
(-5.77326e-07 -1.21072e-07 4.05006e-08)
(-6.27546e-07 -2.88739e-07 1.18455e-07)
(-6.36166e-07 -4.48426e-07 1.92045e-07)
(-6.21992e-07 -5.9213e-07 2.59369e-07)
(-5.84212e-07 -7.09204e-07 3.18377e-07)
(-5.04599e-07 -7.90278e-07 3.67058e-07)
(-3.56613e-07 -8.53394e-07 4.03866e-07)
(-2.47205e-08 -1.03784e-06 4.27849e-07)
(-5.83334e-07 -1.21773e-07 2.44664e-08)
(-6.32888e-07 -2.90986e-07 7.13211e-08)
(-6.41316e-07 -4.52231e-07 1.15415e-07)
(-6.27308e-07 -5.96925e-07 1.55595e-07)
(-5.89762e-07 -7.14401e-07 1.9061e-07)
(-5.10281e-07 -7.95908e-07 2.19386e-07)
(-3.62218e-07 -8.60061e-07 2.41339e-07)
(-2.92535e-08 -1.04581e-06 2.56212e-07)
(-5.86141e-07 -1.22024e-07 8.15838e-09)
(-6.35361e-07 -2.91771e-07 2.3757e-08)
(-6.43614e-07 -4.5363e-07 3.8424e-08)
(-6.29638e-07 -5.9888e-07 5.17671e-08)
(-5.92229e-07 -7.1686e-07 6.337e-08)
(-5.12878e-07 -7.98953e-07 7.29033e-08)
(-3.64844e-07 -8.63842e-07 8.02196e-08)
(-3.14228e-08 -1.05033e-06 8.52585e-08)
(1.70271e-07 2.82483e-07 -9.36969e-08)
(2.66433e-07 7.47191e-08 1.34054e-07)
(2.78979e-07 -1.13365e-07 3.0766e-07)
(2.81063e-07 -2.87802e-07 4.59083e-07)
(2.96727e-07 -4.56124e-07 6.06239e-07)
(3.44637e-07 -6.21046e-07 7.64179e-07)
(4.55128e-07 -8.10693e-07 9.4576e-07)
(6.34045e-07 -1.15975e-06 1.24087e-06)
(2.02703e-08 1.64996e-07 -2.69866e-07)
(6.22479e-08 3.21788e-08 -5.37018e-08)
(8.45225e-08 -1.28749e-07 1.26054e-07)
(1.01703e-07 -3.05478e-07 2.8045e-07)
(1.25473e-07 -4.88534e-07 4.27733e-07)
(1.65668e-07 -6.6992e-07 5.85827e-07)
(2.31538e-07 -8.47945e-07 7.71997e-07)
(3.0329e-07 -1.10579e-06 1.09587e-06)
(-1.77457e-09 1.67083e-07 -2.67416e-07)
(-2.00376e-09 2.62585e-08 -4.48893e-08)
(2.18964e-08 -1.42182e-07 1.3897e-07)
(5.57359e-08 -3.25229e-07 2.9592e-07)
(8.84296e-08 -5.13714e-07 4.448e-07)
(1.10504e-07 -6.99904e-07 6.03892e-07)
(1.12856e-07 -8.82216e-07 7.90767e-07)
(1.14891e-07 -1.14343e-06 1.1156e-06)
(-1.46465e-07 2.84084e-07 -7.70863e-08)
(-1.99221e-07 5.13991e-08 1.71403e-07)
(-1.66202e-07 -1.57593e-07 3.57171e-07)
(-1.17834e-07 -3.49653e-07 5.16073e-07)
(-7.73632e-08 -5.33383e-07 6.67817e-07)
(-6.33093e-08 -7.12094e-07 8.28346e-07)
(-1.06179e-07 -9.14295e-07 1.01124e-06)
(-2.1243e-07 -1.27516e-06 1.30783e-06)
(2.24141e-07 1.75697e-07 2.33912e-07)
(1.97028e-07 -5.78323e-08 4.97307e-07)
(2.26898e-07 -2.60315e-07 6.80635e-07)
(2.6475e-07 -4.42865e-07 8.32892e-07)
(2.9017e-07 -6.17316e-07 9.74274e-07)
(2.87196e-07 -7.84953e-07 1.12384e-06)
(2.34955e-07 -9.71961e-07 1.30445e-06)
(3.60544e-08 -1.31735e-06 1.51265e-06)
(4.83526e-07 -3.17531e-08 8.24616e-08)
(4.9189e-07 -2.05103e-07 2.91436e-07)
(5.17613e-07 -3.75111e-07 4.76973e-07)
(5.47078e-07 -5.43806e-07 6.33703e-07)
(5.65231e-07 -7.08451e-07 7.76387e-07)
(5.53263e-07 -8.60325e-07 9.20441e-07)
(4.86838e-07 -1.0032e-06 1.06672e-06)
(2.52007e-07 -1.24015e-06 1.16677e-06)
(5.64339e-07 -1.05195e-07 7.42595e-08)
(6.08913e-07 -2.76822e-07 2.46206e-07)
(6.35934e-07 -4.43644e-07 4.12349e-07)
(6.58346e-07 -6.06962e-07 5.60296e-07)
(6.69611e-07 -7.58984e-07 6.93576e-07)
(6.49627e-07 -8.85288e-07 8.1699e-07)
(5.71491e-07 -9.88377e-07 9.22242e-07)
(3.22397e-07 -1.19125e-06 9.78831e-07)
(6.02907e-07 -1.27235e-07 7.16304e-08)
(6.62471e-07 -3.05873e-07 2.16281e-07)
(6.91207e-07 -4.7834e-07 3.54957e-07)
(7.09451e-07 -6.40949e-07 4.81568e-07)
(7.15367e-07 -7.83738e-07 5.94503e-07)
(6.89372e-07 -8.92952e-07 6.92228e-07)
(6.04048e-07 -9.78631e-07 7.67913e-07)
(3.46408e-07 -1.17677e-06 8.09577e-07)
(6.21101e-07 -1.32191e-07 5.99019e-08)
(6.82467e-07 -3.15859e-07 1.75108e-07)
(7.10671e-07 -4.93247e-07 2.83806e-07)
(7.26395e-07 -6.56769e-07 3.83321e-07)
(7.28938e-07 -7.95411e-07 4.71147e-07)
(6.99289e-07 -8.97762e-07 5.44475e-07)
(6.10212e-07 -9.79303e-07 5.9963e-07)
(3.47747e-07 -1.17899e-06 6.32844e-07)
(6.30614e-07 -1.32416e-07 4.36434e-08)
(6.89922e-07 -3.18502e-07 1.26494e-07)
(7.16391e-07 -4.98588e-07 2.04131e-07)
(7.30298e-07 -6.63302e-07 2.74968e-07)
(7.30864e-07 -8.01248e-07 3.36979e-07)
(6.9924e-07 -9.02493e-07 3.88074e-07)
(6.08295e-07 -9.84639e-07 4.26598e-07)
(3.42989e-07 -1.18649e-06 4.51415e-07)
(6.35888e-07 -1.31895e-07 2.62015e-08)
(6.93316e-07 -3.18817e-07 7.57922e-08)
(7.18225e-07 -5.00097e-07 1.22187e-07)
(7.30858e-07 -6.65772e-07 1.64407e-07)
(7.30298e-07 -8.04348e-07 2.01209e-07)
(6.97659e-07 -9.06397e-07 2.31452e-07)
(6.05781e-07 -9.9e-07 2.54465e-07)
(3.38856e-07 -1.19356e-06 2.6985e-07)
(6.38329e-07 -1.31583e-07 8.71122e-09)
(6.94868e-07 -3.18692e-07 2.51874e-08)
(7.1896e-07 -5.00393e-07 4.05989e-08)
(7.30936e-07 -6.66591e-07 5.4609e-08)
(7.29852e-07 -8.05764e-07 6.68024e-08)
(6.96776e-07 -9.0857e-07 7.68261e-08)
(6.04498e-07 -9.93106e-07 8.44988e-08)
(3.36838e-07 -1.1976e-06 8.97086e-08)
(6.42349e-07 -9.88114e-07 1.47739e-06)
(4.80887e-07 -8.22808e-07 1.12773e-06)
(3.87729e-07 -7.71332e-07 9.37166e-07)
(3.54687e-07 -7.45717e-07 7.7165e-07)
(3.47924e-07 -7.3718e-07 6.03558e-07)
(3.48178e-07 -7.37075e-07 4.31935e-07)
(3.48882e-07 -7.39661e-07 2.59107e-07)
(3.49093e-07 -7.41673e-07 8.63197e-08)
(3.1138e-07 -8.59405e-07 1.40741e-06)
(2.57141e-07 -6.65849e-07 1.14949e-06)
(2.09106e-07 -6.10477e-07 9.72013e-07)
(1.85885e-07 -5.85493e-07 7.9261e-07)
(1.76839e-07 -5.77842e-07 6.12289e-07)
(1.7282e-07 -5.77518e-07 4.3465e-07)
(1.70469e-07 -5.79356e-07 2.59719e-07)
(1.69259e-07 -5.80815e-07 8.64026e-08)
(1.23067e-07 -8.95291e-07 1.42913e-06)
(1.38389e-07 -7.01234e-07 1.16815e-06)
(1.54275e-07 -6.45713e-07 9.87153e-07)
(1.5197e-07 -6.2059e-07 8.04391e-07)
(1.41574e-07 -6.12755e-07 6.20981e-07)
(1.31689e-07 -6.12239e-07 4.40568e-07)
(1.25173e-07 -6.13923e-07 2.63145e-07)
(1.22132e-07 -6.15301e-07 8.75232e-08)
(-2.0405e-07 -1.10404e-06 1.54441e-06)
(-8.0633e-08 -9.38403e-07 1.18356e-06)
(-1.94386e-08 -8.87182e-07 9.82308e-07)
(-1.20692e-08 -8.61526e-07 8.06745e-07)
(-2.49789e-08 -8.5263e-07 6.29417e-07)
(-3.93591e-08 -8.5204e-07 4.49511e-07)
(-4.90995e-08 -8.54204e-07 2.6926e-07)
(-5.36498e-08 -8.55987e-07 8.9635e-08)
)
;
    }
    symmetry
    {
        type            symmetry;
    }
    bottom
    {
        type            calculated;
        value           uniform (0 0 0);
    }
}


// ************************************************************************* //
