/*--------------------------------*- C++ -*----------------------------------*\
| =========                 |                                                 |
| \\      /  F ield         | OpenFOAM: The Open Source CFD Toolbox           |
|  \\    /   O peration     | Version:  v1912                                 |
|   \\  /    A nd           | Website:  www.openfoam.com                      |
|    \\/     M anipulation  |                                                 |
\*---------------------------------------------------------------------------*/
FoamFile
{
    version     2.0;
    format      ascii;
    class       volVectorField;
    location    "0.97/solid";
    object      D;
}
// * * * * * * * * * * * * * * * * * * * * * * * * * * * * * * * * * * * * * //

dimensions      [0 1 0 0 0 0 0];


internalField   nonuniform List<vector> 
256
(
(3.2019e-08 4.40768e-08 3.57906e-08)
(4.62353e-09 2.60789e-08 3.28994e-08)
(-4.83693e-09 2.55903e-08 3.26176e-08)
(-3.09284e-08 4.21509e-08 3.50183e-08)
(5.35351e-08 3.50469e-08 7.16237e-08)
(1.13535e-08 2.35477e-08 6.77111e-08)
(-1.09275e-08 2.29675e-08 6.72628e-08)
(-5.13241e-08 3.32049e-08 7.03511e-08)
(5.70049e-08 1.61208e-08 9.27447e-08)
(1.29774e-08 1.14586e-08 8.83892e-08)
(-1.17261e-08 1.0932e-08 8.78895e-08)
(-5.39605e-08 1.45733e-08 9.12968e-08)
(5.63299e-08 -1.90264e-09 1.09518e-07)
(1.26429e-08 -4.32287e-09 1.04532e-07)
(-1.06461e-08 -4.77189e-09 1.03997e-07)
(-5.25332e-08 -3.20639e-09 1.07951e-07)
(5.70517e-08 -1.97605e-08 1.26021e-07)
(1.27355e-08 -2.29111e-08 1.20307e-07)
(-1.01076e-08 -2.32855e-08 1.19731e-07)
(-5.25954e-08 -2.08446e-08 1.24326e-07)
(6.22295e-08 -4.01902e-08 1.44449e-07)
(1.45933e-08 -4.48198e-08 1.38092e-07)
(-1.1473e-08 -4.512e-08 1.37464e-07)
(-5.72536e-08 -4.10469e-08 1.426e-07)
(7.44979e-08 -7.1059e-08 1.65842e-07)
(1.89069e-08 -7.44134e-08 1.59565e-07)
(-1.55118e-08 -7.45988e-08 1.58875e-07)
(-6.91994e-08 -7.15751e-08 1.63812e-07)
(9.11132e-08 -1.36261e-07 1.86014e-07)
(2.35021e-08 -1.31853e-07 1.81141e-07)
(-2.02374e-08 -1.31599e-07 1.80384e-07)
(-8.5766e-08 -1.35557e-07 1.83807e-07)
(2.21957e-08 1.9629e-08 8.56318e-09)
(2.52861e-09 4.80132e-09 1.01493e-08)
(-2.52283e-09 4.52009e-09 1.01319e-08)
(-2.09717e-08 1.82185e-08 8.50688e-09)
(3.75858e-08 1.21667e-08 3.13778e-08)
(7.31206e-09 2.53222e-09 3.44758e-08)
(-6.41454e-09 2.07691e-09 3.43766e-08)
(-3.50712e-08 1.06134e-08 3.10867e-08)
(3.97033e-08 -1.58374e-09 5.08758e-08)
(8.47532e-09 -5.58883e-09 5.44317e-08)
(-6.60462e-09 -6.0609e-09 5.42841e-08)
(-3.62442e-08 -3.01803e-09 5.0438e-08)
(3.86628e-08 -1.66113e-08 6.70635e-08)
(8.11555e-09 -1.88144e-08 7.05863e-08)
(-5.3928e-09 -1.92392e-08 7.04074e-08)
(-3.43602e-08 -1.78761e-08 6.65238e-08)
(3.90959e-08 -3.27203e-08 8.2205e-08)
(8.21017e-09 -3.58257e-08 8.5508e-08)
(-4.76342e-09 -3.61881e-08 8.52954e-08)
(-3.4042e-08 -3.37964e-08 8.15571e-08)
(4.41327e-08 -5.07885e-08 9.76547e-08)
(1.00897e-08 -5.55268e-08 1.00701e-07)
(-6.05951e-09 -5.58239e-08 1.00446e-07)
(-3.84584e-08 -5.16612e-08 9.68759e-08)
(5.69155e-08 -7.57893e-08 1.12427e-07)
(1.45598e-08 -7.91184e-08 1.15345e-07)
(-1.01618e-08 -7.93204e-08 1.15045e-07)
(-5.08053e-08 -7.63702e-08 1.11507e-07)
(7.49949e-08 -1.29122e-07 1.20801e-07)
(1.93875e-08 -1.2332e-07 1.23743e-07)
(-1.50252e-08 -1.23123e-07 1.2342e-07)
(-6.87149e-08 -1.28569e-07 1.198e-07)
(1.5143e-08 1.17955e-08 4.17123e-09)
(6.44943e-10 -4.94474e-10 6.36052e-09)
(-5.89397e-10 -7.31937e-10 6.35665e-09)
(-1.39115e-08 1.0491e-08 4.1607e-09)
(2.56757e-08 5.19267e-10 1.94716e-08)
(3.5179e-09 -7.38456e-09 2.36272e-08)
(-2.47216e-09 -7.79574e-09 2.35821e-08)
(-2.30741e-08 -9.47056e-10 1.93484e-08)
(2.6817e-08 -1.31388e-08 3.6047e-08)
(4.21168e-09 -1.6529e-08 4.08089e-08)
(-2.09206e-09 -1.69792e-08 4.07248e-08)
(-2.31804e-08 -1.45453e-08 3.58101e-08)
(2.57001e-08 -2.65935e-08 5.12465e-08)
(3.84437e-09 -2.86983e-08 5.60887e-08)
(-7.78236e-10 -2.91218e-08 5.59727e-08)
(-2.11321e-08 -2.78814e-08 5.09107e-08)
(2.61275e-08 -4.0265e-08 6.50851e-08)
(3.96904e-09 -4.34571e-08 6.98392e-08)
(-9.20475e-11 -4.38326e-08 6.96914e-08)
(-2.07204e-08 -4.14008e-08 6.46486e-08)
(3.12773e-08 -5.46048e-08 7.75972e-08)
(5.89476e-09 -5.95052e-08 8.22067e-08)
(-1.35253e-09 -5.98281e-08 8.20244e-08)
(-2.51577e-08 -5.55703e-08 7.70506e-08)
(4.44757e-08 -7.40828e-08 8.71188e-08)
(1.04958e-08 -7.75408e-08 9.15622e-08)
(-5.50611e-09 -7.77835e-08 9.13499e-08)
(-3.78211e-08 -7.4793e-08 8.64711e-08)
(6.3092e-08 -1.20733e-07 8.98972e-08)
(1.548e-08 -1.14859e-07 9.422e-08)
(-1.04437e-08 -1.14716e-07 9.40034e-08)
(-5.61624e-08 -1.20335e-07 8.92174e-08)
(1.18799e-08 9.22487e-09 3.64865e-09)
(-1.80979e-10 -1.53613e-09 5.09156e-09)
(2.46067e-10 -1.77043e-09 5.08485e-09)
(-1.06674e-08 7.935e-09 3.63614e-09)
(2.00299e-08 -4.17187e-09 1.50621e-08)
(1.72755e-09 -1.10075e-08 1.78127e-08)
(-6.42875e-10 -1.1416e-08 1.77818e-08)
(-1.74244e-08 -5.64114e-09 1.4988e-08)
(2.08237e-08 -1.88258e-08 2.82509e-08)
(2.21132e-09 -2.18489e-08 3.13882e-08)
(2.42313e-12 -2.23022e-08 3.13301e-08)
(-1.71271e-08 -2.02576e-08 2.80997e-08)
(1.9927e-08 -3.18105e-08 4.11438e-08)
(1.92887e-09 -3.39042e-08 4.42959e-08)
(1.30099e-09 -3.43404e-08 4.42111e-08)
(-1.52295e-08 -3.31504e-08 4.09115e-08)
(2.06197e-08 -4.3696e-08 5.27752e-08)
(2.16731e-09 -4.69953e-08 5.58292e-08)
(1.94621e-09 -4.73934e-08 5.57171e-08)
(-1.50083e-08 -4.49102e-08 5.24576e-08)
(2.60041e-08 -5.52888e-08 6.23777e-08)
(4.17643e-09 -6.03323e-08 6.53119e-08)
(6.73518e-10 -6.0687e-08 6.51726e-08)
(-1.96019e-08 -5.63564e-08 6.19728e-08)
(3.93223e-08 -7.16898e-08 6.85603e-08)
(8.81035e-09 -7.53961e-08 7.13872e-08)
(-3.44411e-09 -7.56775e-08 7.12278e-08)
(-3.23032e-08 -7.25194e-08 6.80832e-08)
(5.78363e-08 -1.15368e-07 6.96022e-08)
(1.38048e-08 -1.10101e-07 7.24367e-08)
(-8.32189e-09 -1.09998e-07 7.22781e-08)
(-5.04577e-08 -1.15093e-07 6.91099e-08)
(1.06483e-08 8.19503e-09 3.25838e-09)
(-3.90687e-10 -1.79441e-09 3.99086e-09)
(4.56694e-10 -2.02985e-09 3.98458e-09)
(-9.45339e-09 6.91049e-09 3.24742e-09)
(1.797e-08 -5.82537e-09 1.19402e-08)
(1.22189e-09 -1.21466e-08 1.33203e-08)
(-1.2941e-10 -1.25617e-08 1.32986e-08)
(-1.53811e-08 -7.31352e-09 1.18925e-08)
(1.87949e-08 -2.09611e-08 2.18624e-08)
(1.6907e-09 -2.38447e-08 2.34028e-08)
(5.58821e-10 -2.43092e-08 2.33633e-08)
(-1.50855e-08 -2.24309e-08 2.17655e-08)
(1.82013e-08 -3.37956e-08 3.17905e-08)
(1.52758e-09 -3.59405e-08 3.32858e-08)
(1.78394e-09 -3.63933e-08 3.32266e-08)
(-1.34439e-08 -3.51909e-08 3.16352e-08)
(1.91999e-08 -4.4739e-08 4.07048e-08)
(1.89225e-09 -4.81379e-08 4.20989e-08)
(2.35775e-09 -4.85585e-08 4.20189e-08)
(-1.3472e-08 -4.60252e-08 4.0485e-08)
(2.47738e-08 -5.49501e-08 4.77051e-08)
(3.97268e-09 -6.00941e-08 4.90102e-08)
(1.07102e-09 -6.04763e-08 4.891e-08)
(-1.81935e-08 -5.61036e-08 4.74204e-08)
(3.80404e-08 -7.00756e-08 5.18581e-08)
(8.58515e-09 -7.39829e-08 5.31199e-08)
(-2.96864e-09 -7.42944e-08 5.30058e-08)
(-3.07788e-08 -7.0998e-08 5.15219e-08)
(5.62945e-08 -1.12398e-07 5.25074e-08)
(1.35383e-08 -1.077e-07 5.38364e-08)
(-7.74892e-09 -1.07627e-07 5.37238e-08)
(-4.86085e-08 -1.12213e-07 5.21621e-08)
(1.02075e-08 7.73135e-09 2.55444e-09)
(-3.96473e-10 -1.89377e-09 2.88358e-09)
(4.6123e-10 -2.12989e-09 2.87916e-09)
(-9.02472e-09 6.45122e-09 2.54687e-09)
(1.73342e-08 -6.30669e-09 8.75325e-09)
(1.18358e-09 -1.24194e-08 9.35129e-09)
(-9.22454e-11 -1.28403e-08 9.33718e-09)
(-1.47614e-08 -7.80946e-09 8.72359e-09)
(1.83089e-08 -2.14562e-08 1.56456e-08)
(1.7075e-09 -2.43211e-08 1.62815e-08)
(5.54606e-10 -2.47961e-08 1.62562e-08)
(-1.46012e-08 -2.29575e-08 1.5586e-08)
(1.79699e-08 -3.41621e-08 2.25457e-08)
(1.64694e-09 -3.63759e-08 2.3122e-08)
(1.70518e-09 -3.68431e-08 2.30839e-08)
(-1.31853e-08 -3.56021e-08 2.24482e-08)
(1.91984e-08 -4.4712e-08 2.87136e-08)
(2.10634e-09 -4.81871e-08 2.92109e-08)
(2.22175e-09 -4.86256e-08 2.91585e-08)
(-1.34044e-08 -4.60539e-08 2.85723e-08)
(2.4884e-08 -5.44256e-08 3.3457e-08)
(4.23137e-09 -5.96266e-08 3.38998e-08)
(9.32215e-10 -6.00292e-08 3.38337e-08)
(-1.81932e-08 -5.56424e-08 3.32713e-08)
(3.80599e-08 -6.91534e-08 3.62094e-08)
(8.81314e-09 -7.31703e-08 3.66447e-08)
(-3.03426e-09 -7.35031e-08 3.65691e-08)
(-3.06409e-08 -7.01417e-08 3.5989e-08)
(5.60864e-08 -1.10799e-07 3.67271e-08)
(1.37243e-08 -1.06445e-07 3.72262e-08)
(-7.73093e-09 -1.06392e-07 3.71519e-08)
(-4.81964e-08 -1.10676e-07 3.65008e-08)
(1.00351e-08 7.52643e-09 1.61551e-09)
(-3.70864e-10 -1.92868e-09 1.75139e-09)
(4.34146e-10 -2.1651e-09 1.74888e-09)
(-8.85972e-09 6.24929e-09 1.61125e-09)
(1.71389e-08 -6.37927e-09 5.34664e-09)
(1.232e-09 -1.24164e-08 5.58082e-09)
(-1.43585e-10 -1.28408e-08 5.57299e-09)
(-1.45771e-08 -7.89068e-09 5.33052e-09)
(1.82419e-08 -2.13891e-08 9.4024e-09)
(1.80821e-09 -2.42724e-08 9.63402e-09)
(4.5748e-10 -2.47544e-08 9.62011e-09)
(-1.45383e-08 -2.29107e-08 9.37014e-09)
(1.80683e-08 -3.39761e-08 1.34365e-08)
(1.81467e-09 -3.62451e-08 1.36247e-08)
(1.55672e-09 -3.67221e-08 1.36035e-08)
(-1.32714e-08 -3.54458e-08 1.33831e-08)
(1.94345e-08 -4.43914e-08 1.70286e-08)
(2.33088e-09 -4.79147e-08 1.71698e-08)
(2.03932e-09 -4.83651e-08 1.71404e-08)
(-1.36045e-08 -4.57699e-08 1.69502e-08)
(2.51761e-08 -5.39957e-08 1.9774e-08)
(4.4796e-09 -5.92233e-08 1.98879e-08)
(7.529e-10 -5.96392e-08 1.98506e-08)
(-1.8421e-08 -5.52534e-08 1.967e-08)
(3.82812e-08 -6.86523e-08 2.13712e-08)
(9.0394e-09 -7.27144e-08 2.14888e-08)
(-3.16367e-09 -7.30608e-08 2.14461e-08)
(-3.07676e-08 -6.96824e-08 2.1247e-08)
(5.6156e-08 -1.09958e-07 2.1723e-08)
(1.39216e-08 -1.05771e-07 2.18805e-08)
(-7.80421e-09 -1.05731e-07 2.18384e-08)
(-4.81415e-08 -1.09875e-07 2.15955e-08)
(9.96787e-09 7.45016e-09 5.51328e-10)
(-3.56249e-10 -1.93563e-09 5.88379e-10)
(4.18639e-10 -2.17218e-09 5.87578e-10)
(-8.796e-09 6.17446e-09 5.49972e-10)
(1.70735e-08 -6.35705e-09 1.79751e-09)
(1.26236e-09 -1.237e-08 1.85885e-09)
(-1.75888e-10 -1.27961e-08 1.85635e-09)
(-1.45171e-08 -7.87237e-09 1.79241e-09)
(1.82416e-08 -2.12618e-08 3.13603e-09)
(1.86559e-09 -2.41607e-08 3.19317e-09)
(4.00763e-10 -2.46461e-08 3.18874e-09)
(-1.45406e-08 -2.27931e-08 3.12582e-09)
(1.81458e-08 -3.37789e-08 4.4609e-09)
(1.90364e-09 -3.60768e-08 4.50275e-09)
(1.47543e-09 -3.65586e-08 4.49598e-09)
(-1.33441e-08 -3.52632e-08 4.44393e-09)
(1.95742e-08 -4.41578e-08 5.63798e-09)
(2.44547e-09 -4.77036e-08 5.66455e-09)
(1.94311e-09 -4.816e-08 5.65512e-09)
(-1.37283e-08 -4.55543e-08 5.61291e-09)
(2.53385e-08 -5.37613e-08 6.53674e-09)
(4.60427e-09 -5.89985e-08 6.55523e-09)
(6.59605e-10 -5.94209e-08 6.5432e-09)
(-1.85539e-08 -5.5039e-08 6.5033e-09)
(3.84076e-08 -6.84258e-08 7.06248e-09)
(9.15356e-09 -7.25019e-08 7.08342e-09)
(-3.2327e-09 -7.28548e-08 7.06962e-09)
(-3.08498e-08 -6.94763e-08 7.02246e-09)
(5.62084e-08 -1.0959e-07 7.18753e-09)
(1.40215e-08 -1.05467e-07 7.22156e-09)
(-7.84562e-09 -1.05433e-07 7.20798e-09)
(-4.8135e-08 -1.09526e-07 7.14637e-09)
)
;

boundaryField
{
    interface
    {
        type            solidTraction;
        traction        nonuniform List<vector> 
192
(
(37.6924 -0.348618 -2.59518)
(39.289 -0.39509 -4.22455)
(41.042 -0.190247 -4.87765)
(42.289 0.246468 -5.10592)
(42.8049 0.654861 -5.11304)
(43.8751 1.36913 -5.02326)
(42.3961 1.92193 -4.67474)
(46.1041 4.43782 -4.40925)
(36.7753 -0.256474 -1.27278)
(37.4654 -0.326923 -2.2112)
(38.5397 -0.157227 -2.51554)
(39.3821 0.281837 -2.57028)
(39.5915 0.706917 -2.50101)
(40.5102 1.48809 -2.38232)
(38.725 2.09599 -2.15628)
(42.4892 4.72893 -1.98112)
(39.2655 -0.223762 -0.994219)
(39.8664 -0.293212 -1.70215)
(40.9197 -0.132853 -1.92582)
(41.7748 0.321448 -1.96036)
(41.9167 0.778893 -1.90087)
(42.7679 1.63897 -1.8044)
(40.5571 2.32938 -1.64462)
(44.0748 5.1289 -1.51464)
(39.505 -0.172169 -0.599704)
(39.928 -0.217198 -1.08526)
(40.763 -0.0538599 -1.23117)
(41.4813 0.400543 -1.24022)
(41.4894 0.870132 -1.1844)
(42.2509 1.76139 -1.10707)
(39.8814 2.48709 -1.00822)
(43.3086 5.32025 -0.934589)
(40.274 -0.14735 -0.435054)
(40.6498 -0.16888 -0.787115)
(41.3857 0.00536268 -0.894269)
(42.0439 0.464883 -0.900599)
(41.9704 0.948483 -0.859416)
(42.6539 1.86642 -0.802142)
(40.1173 2.62414 -0.734382)
(43.3893 5.49327 -0.682737)
(40.4885 -0.127723 -0.262465)
(40.8196 -0.129406 -0.491645)
(41.4692 0.0552391 -0.562456)
(42.0698 0.517734 -0.565181)
(41.9331 1.00876 -0.536494)
(42.5651 1.93915 -0.49792)
(39.9485 2.71288 -0.45719)
(43.1544 5.59806 -0.428325)
(40.7439 -0.118199 -0.153099)
(41.0596 -0.106269 -0.286495)
(41.6636 0.0868514 -0.328211)
(42.2329 0.552531 -0.330043)
(42.0571 1.04939 -0.313666)
(42.6519 1.98839 -0.291049)
(39.9733 2.77334 -0.268418)
(43.1208 5.67106 -0.251317)
(40.8094 -0.112419 -0.0449037)
(41.114 -0.0933553 -0.0873099)
(41.6927 0.103659 -0.100803)
(42.2443 0.570197 -0.101249)
(42.0508 1.06926 -0.0959292)
(42.6274 2.01114 -0.0885665)
(39.93 2.80114 -0.0820283)
(43.0477 5.70375 -0.0768104)
(3.56859 0.869729 12.7877)
(6.1107 1.11091 8.92326)
(7.27168 1.01035 4.84028)
(7.78315 0.791892 2.90146)
(8.00598 0.692364 2.18733)
(8.18434 0.733763 2.54041)
(8.3992 0.882764 4.18654)
(9.30146 1.08418 5.53875)
(2.06515 0.520226 16.3286)
(3.97532 0.877431 15.4903)
(4.77899 0.856929 14.0598)
(5.10431 0.606555 13.4359)
(5.25082 0.417643 13.1757)
(5.43165 0.307525 13.3094)
(5.80827 0.325186 13.8192)
(6.97559 0.390787 14.0446)
(2.01137 0.388349 13.5791)
(3.91685 0.746952 12.9601)
(4.74231 0.756484 11.6109)
(5.08403 0.477859 10.9816)
(5.22562 0.224968 10.7255)
(5.38466 0.00875798 10.8524)
(5.71848 -0.106333 11.4264)
(6.85362 -0.133918 12.1058)
(2.1214 0.323229 13.7234)
(4.33492 0.672923 13.3882)
(5.36891 0.687949 12.1869)
(5.81271 0.382755 11.6694)
(6.00074 0.095903 11.5153)
(6.2098 -0.174025 11.6651)
(6.52917 -0.366534 12.0996)
(7.74413 -0.546928 12.6631)
(-6.80671 0.663788 0.496466)
(-4.65319 0.986544 1.02342)
(-2.10997 0.868569 1.20404)
(-0.620472 0.423222 1.31177)
(0.0786311 0.155555 1.41361)
(1.68151 -0.234054 1.67935)
(1.46445 -0.211412 1.92002)
(9.79293 -2.35527 2.53744)
(-10.2423 0.26962 -0.327764)
(-9.85653 0.471606 -0.385703)
(-9.03481 0.443508 -0.490036)
(-8.38964 0.197595 -0.513387)
(-8.10212 0.132787 -0.456911)
(-6.59267 -0.0804718 -0.244127)
(-6.53148 0.156173 0.0394161)
(1.50005 -1.77455 0.465446)
(-10.5001 0.156671 -0.224131)
(-10.2287 0.276005 -0.20359)
(-9.59587 0.284094 -0.193717)
(-8.95223 0.144443 -0.141043)
(-8.59898 0.202903 -0.0476414)
(-6.79453 0.0964889 0.13705)
(-6.46425 0.441399 0.334928)
(1.94357 -1.52808 0.589099)
(-11.678 0.0770146 -0.233216)
(-11.6009 0.135906 -0.213678)
(-11.2733 0.170114 -0.176693)
(-10.7379 0.121938 -0.114785)
(-10.3843 0.284138 -0.0323392)
(-8.4027 0.272438 0.100033)
(-7.78613 0.686384 0.231419)
(0.728091 -1.25225 0.385086)
(-11.9594 0.0637063 -0.11797)
(-11.8747 0.101093 -0.061061)
(-11.5884 0.151805 0.00752239)
(-11.0174 0.151823 0.0775286)
(-10.5996 0.368056 0.146936)
(-8.48719 0.399333 0.23316)
(-7.74643 0.829695 0.302744)
(0.804571 -1.13043 0.375471)
(-12.352 0.0596411 -0.0796836)
(-12.2704 0.0908623 -0.0316568)
(-12.0124 0.154784 0.0275617)
(-11.4247 0.184831 0.0818305)
(-10.9655 0.434439 0.130756)
(-8.77699 0.492137 0.183831)
(-7.93741 0.926795 0.223275)
(0.634259 -1.04021 0.261351)
(-12.4717 0.0633615 -0.0321362)
(-12.3754 0.0957229 0.00396498)
(-12.1082 0.16774 0.0446893)
(-11.4943 0.211881 0.0793003)
(-11.0029 0.476557 0.108352)
(-8.77425 0.544925 0.136108)
(-7.88601 0.976287 0.154932)
(0.685811 -0.99853 0.170054)
(-12.5697 0.0645533 -0.0135546)
(-12.4708 0.0982167 -0.00233716)
(-12.2015 0.174536 0.0112795)
(-11.5778 0.22546 0.0227431)
(-11.0706 0.49707 0.0324129)
(-8.82403 0.570838 0.0413145)
(-7.90487 1.00032 0.047824)
(0.664338 -0.976326 0.0526166)
(9.38628 -4.84134 -0.906174)
(8.52972 -3.1462 -0.704872)
(8.39407 -0.766292 -0.488307)
(8.34429 0.64101 -0.32756)
(8.38015 1.73663 -0.232149)
(8.40232 2.49634 -0.14534)
(8.42766 2.97718 -0.0858889)
(8.43788 3.20705 -0.0264033)
(7.02102 -13.4887 -0.171552)
(5.86028 -13.1174 -0.0967186)
(5.50016 -12.1725 0.0128556)
(5.35295 -11.5326 0.0430859)
(5.30848 -10.9714 0.0492666)
(5.28113 -10.5696 0.0427775)
(5.27379 -10.3054 0.0270671)
(5.26897 -10.1675 0.0102831)
(6.89919 -11.5873 0.377571)
(5.75142 -10.7579 0.366804)
(5.42333 -9.75875 0.353338)
(5.3001 -9.12672 0.288842)
(5.26649 -8.55897 0.229487)
(5.2456 -8.19053 0.161341)
(5.24084 -7.93566 0.0965184)
(5.2365 -7.8199 0.0317761)
(7.74691 -12.2043 0.798011)
(6.51652 -11.5407 0.639057)
(6.19426 -10.7969 0.543892)
(6.02728 -10.2863 0.426712)
(5.97804 -9.78087 0.333166)
(5.9417 -9.47299 0.230037)
(5.9305 -9.24715 0.138147)
(5.92281 -9.14613 0.0449491)
)
;
        pressure        uniform 0;
        secondOrder     false;
        setEffectiveTraction false;
        relaxationFactor 1;
        value           nonuniform List<vector> 
192
(
(9.15186e-08 6.54653e-08 3.29971e-08)
(1.09423e-07 4.12933e-08 6.69578e-08)
(1.14111e-07 1.68194e-08 8.77016e-08)
(1.15262e-07 -1.89088e-09 1.04458e-07)
(1.1813e-07 -1.82855e-08 1.20986e-07)
(1.26019e-07 -3.58284e-08 1.39474e-07)
(1.41923e-07 -6.38378e-08 1.61025e-07)
(1.65458e-07 -1.31456e-07 1.81451e-07)
(7.12852e-08 3.45743e-08 4.34396e-09)
(8.43652e-08 1.65435e-08 2.44126e-08)
(8.71769e-08 -1.3145e-09 4.33284e-08)
(8.74793e-08 -1.67631e-08 5.94056e-08)
(8.98075e-08 -3.13527e-08 7.44736e-08)
(9.76119e-08 -4.63333e-08 8.99163e-08)
(1.14759e-07 -6.80734e-08 1.04921e-07)
(1.42483e-07 -1.2406e-07 1.13795e-07)
(5.7802e-08 2.20001e-08 1.59212e-09)
(6.74857e-08 3.43772e-09 1.50823e-08)
(6.94203e-08 -1.31327e-08 3.13268e-08)
(6.95727e-08 -2.67658e-08 4.65622e-08)
(7.19028e-08 -3.88706e-08 6.04657e-08)
(8.0008e-08 -5.00175e-08 7.30648e-08)
(9.80302e-08 -6.61287e-08 8.27202e-08)
(1.27044e-07 -1.15504e-07 8.56073e-08)
(5.07349e-08 1.72023e-08 2.52488e-09)
(5.85841e-08 -1.93595e-09 1.31355e-08)
(6.03014e-08 -1.88515e-08 2.62452e-08)
(6.07125e-08 -3.18615e-08 3.92689e-08)
(6.33672e-08 -4.21766e-08 5.10431e-08)
(7.18396e-08 -5.06128e-08 6.07516e-08)
(9.02072e-08 -6.37313e-08 6.69513e-08)
(1.19255e-07 -1.10073e-07 6.79027e-08)
(4.72729e-08 1.53496e-08 2.8402e-09)
(5.44388e-08 -3.78875e-09 1.12662e-08)
(5.62604e-08 -2.09033e-08 2.12335e-08)
(5.70309e-08 -3.36943e-08 3.13011e-08)
(6.00539e-08 -4.30958e-08 4.03494e-08)
(6.87964e-08 -5.02397e-08 4.7425e-08)
(8.7202e-08 -6.2195e-08 5.15424e-08)
(1.15926e-07 -1.07095e-07 5.20698e-08)
(4.55385e-08 1.46168e-08 2.4011e-09)
(5.25444e-08 -4.28136e-09 8.5454e-09)
(5.45543e-08 -2.12973e-08 1.55072e-08)
(5.56248e-08 -3.39396e-08 2.25124e-08)
(5.89256e-08 -4.29833e-08 2.87721e-08)
(6.7825e-08 -4.97099e-08 3.35575e-08)
(8.61654e-08 -6.13524e-08 3.62695e-08)
(1.14562e-07 -1.05513e-07 3.66924e-08)
(4.46521e-08 1.43199e-08 1.55558e-09)
(5.16446e-08 -4.32758e-09 5.28143e-09)
(5.38029e-08 -2.11567e-08 9.38553e-09)
(5.50679e-08 -3.36778e-08 1.34804e-08)
(5.85366e-08 -4.26143e-08 1.71225e-08)
(6.75146e-08 -4.92837e-08 1.98876e-08)
(8.57861e-08 -6.09068e-08 2.1458e-08)
(1.13955e-07 -1.04695e-07 2.17535e-08)
(4.42664e-08 1.42105e-08 5.34515e-10)
(5.12637e-08 -4.28863e-09 1.78114e-09)
(5.3496e-08 -2.09937e-08 3.13593e-09)
(5.48527e-08 -3.34457e-08 4.48027e-09)
(5.83976e-08 -4.23594e-08 5.67289e-09)
(6.74074e-08 -4.90526e-08 6.57732e-09)
(8.56403e-08 -6.07078e-08 7.09407e-09)
(1.13695e-07 -1.04341e-07 7.20062e-09)
(3.26936e-08 7.09305e-08 9.626e-08)
(5.48909e-08 4.92856e-08 1.28103e-07)
(5.84387e-08 2.55944e-08 1.50454e-07)
(5.76149e-08 6.41649e-09 1.69188e-07)
(5.8142e-08 -1.10276e-08 1.87926e-07)
(6.31289e-08 -3.02348e-08 2.09e-07)
(7.53384e-08 -6.06676e-08 2.33818e-07)
(9.21777e-08 -1.30727e-07 2.60715e-07)
(3.83062e-09 5.12316e-08 8.68045e-08)
(1.02639e-08 3.74203e-08 1.17791e-07)
(1.17643e-08 2.0664e-08 1.38717e-07)
(1.12636e-08 3.65667e-09 1.56139e-07)
(1.11638e-08 -1.45211e-08 1.73729e-07)
(1.28482e-08 -3.50052e-08 1.93967e-07)
(1.71661e-08 -6.36511e-08 2.19323e-07)
(2.20959e-08 -1.26083e-07 2.50405e-07)
(-4.30687e-09 5.05604e-08 8.54385e-08)
(-1.02668e-08 3.67856e-08 1.16327e-07)
(-1.09984e-08 2.01156e-08 1.37172e-07)
(-9.79063e-09 3.18843e-09 1.54526e-07)
(-9.10206e-09 -1.49186e-08 1.72049e-07)
(-1.0345e-08 -3.53338e-08 1.92214e-07)
(-1.44491e-08 -6.38688e-08 2.17486e-07)
(-1.95697e-08 -1.25842e-07 2.485e-07)
(-3.17871e-08 6.84933e-08 9.23696e-08)
(-5.30025e-08 4.72746e-08 1.23879e-07)
(-5.57762e-08 2.39733e-08 1.45945e-07)
(-5.42427e-08 5.05086e-09 1.64465e-07)
(-5.41545e-08 -1.21822e-08 1.83004e-07)
(-5.86726e-08 -3.11752e-08 2.03866e-07)
(-7.06178e-08 -6.12736e-08 2.28457e-07)
(-8.74651e-08 -1.30057e-07 2.55233e-07)
(-8.48686e-08 6.27141e-08 3.20999e-08)
(-1.01603e-07 3.89631e-08 6.54488e-08)
(-1.05343e-07 1.48757e-08 8.59601e-08)
(-1.05616e-07 -3.54758e-09 1.02553e-07)
(-1.07708e-07 -1.96645e-08 1.18908e-07)
(-1.1497e-07 -3.68959e-08 1.37192e-07)
(-1.30442e-07 -6.44471e-08 1.58505e-07)
(-1.53749e-07 -1.30696e-07 1.78695e-07)
(-6.46338e-08 3.22293e-08 4.2526e-09)
(-7.6469e-08 1.44316e-08 2.40242e-08)
(-7.82504e-08 -3.19572e-09 4.2743e-08)
(-7.75891e-08 -1.84266e-08 5.86735e-08)
(-7.9036e-08 -3.27718e-08 7.35883e-08)
(-8.60848e-08 -4.74704e-08 8.88519e-08)
(-1.02647e-07 -6.88061e-08 1.03663e-07)
(-1.29978e-07 -1.23508e-07 1.12399e-07)
(-5.13199e-08 1.97374e-08 1.5846e-09)
(-5.96726e-08 1.37021e-09 1.49367e-08)
(-6.04886e-08 -1.50308e-08 3.10308e-08)
(-5.95893e-08 -2.84963e-08 4.6128e-08)
(-6.09391e-08 -4.03944e-08 5.98901e-08)
(-6.81691e-08 -5.12951e-08 7.23365e-08)
(-8.54663e-08 -6.70418e-08 8.18456e-08)
(-1.13942e-07 -1.15159e-07 8.46532e-08)
(-4.43998e-08 1.4958e-08 2.52157e-09)
(-5.08934e-08 -4.0262e-09 1.30647e-08)
(-5.1436e-08 -2.08063e-08 2.60759e-08)
(-5.07245e-08 -3.36801e-08 3.89894e-08)
(-5.23156e-08 -4.3817e-08 5.06455e-08)
(-5.98157e-08 -5.20326e-08 6.02318e-08)
(-7.7345e-08 -6.48053e-08 6.63227e-08)
(-1.05738e-07 -1.09892e-07 6.72215e-08)
(-4.10401e-08 1.31191e-08 2.83672e-09)
(-4.68499e-08 -5.90548e-09 1.12267e-08)
(-4.74674e-08 -2.29152e-08 2.1134e-08)
(-4.70661e-08 -3.55942e-08 3.11242e-08)
(-4.89627e-08 -4.48378e-08 4.0084e-08)
(-5.66593e-08 -5.17768e-08 4.70682e-08)
(-7.41425e-08 -6.33941e-08 5.11064e-08)
(-1.02124e-07 -1.07035e-07 5.15968e-08)
(-3.93701e-08 1.23977e-08 2.39844e-09)
(-4.50242e-08 -6.41533e-09 8.52258e-09)
(-4.58148e-08 -2.33515e-08 1.54492e-08)
(-4.56828e-08 -3.59013e-08 2.2405e-08)
(-4.78139e-08 -4.48018e-08 2.86054e-08)
(-5.56153e-08 -5.13332e-08 3.33282e-08)
(-7.2975e-08 -6.26407e-08 3.59863e-08)
(-1.00569e-07 -1.05539e-07 3.63841e-08)
(-3.85211e-08 1.21085e-08 1.55407e-09)
(-4.41654e-08 -6.47101e-09 5.26945e-09)
(-4.5097e-08 -2.32371e-08 9.355e-09)
(-4.51416e-08 -3.56793e-08 1.34228e-08)
(-4.74141e-08 -4.44824e-08 1.70312e-08)
(-5.52613e-08 -5.09625e-08 1.97602e-08)
(-7.25155e-08 -6.22522e-08 2.12993e-08)
(-9.98432e-08 -1.04775e-07 2.15802e-08)
(-3.81525e-08 1.20027e-08 5.34039e-10)
(-4.38035e-08 -6.43621e-09 1.77741e-09)
(-4.4806e-08 -2.30863e-08 3.12639e-09)
(-4.49342e-08 -3.54662e-08 4.46213e-09)
(-4.72704e-08 -4.42518e-08 5.64388e-09)
(-5.51337e-08 -5.07585e-08 6.53652e-09)
(-7.23316e-08 -6.20808e-08 7.04299e-09)
(-9.95275e-08 -1.04447e-07 7.14475e-09)
(9.24153e-08 -2.11037e-07 1.86996e-07)
(7.60766e-08 -1.97217e-07 1.16919e-07)
(6.42393e-08 -1.85492e-07 8.64588e-08)
(5.91686e-08 -1.77692e-07 6.75185e-08)
(5.7773e-08 -1.72934e-07 5.13649e-08)
(5.7642e-08 -1.70144e-07 3.61169e-08)
(5.7742e-08 -1.68597e-07 2.14208e-08)
(5.78033e-08 -1.67904e-07 7.09555e-09)
(2.23376e-08 -2.01189e-07 1.81893e-07)
(1.78888e-08 -1.832e-07 1.19495e-07)
(1.39767e-08 -1.70951e-07 9.09152e-08)
(1.24632e-08 -1.6392e-07 7.06468e-08)
(1.23463e-08 -1.59987e-07 5.29223e-08)
(1.26236e-08 -1.57729e-07 3.6744e-08)
(1.28658e-08 -1.56451e-07 2.16359e-08)
(1.29831e-08 -1.55864e-07 7.14546e-09)
(-1.93102e-08 -1.99776e-07 1.81144e-07)
(-1.3712e-08 -1.81839e-07 1.192e-07)
(-9.07375e-09 -1.69654e-07 9.07223e-08)
(-7.073e-09 -1.62671e-07 7.05059e-08)
(-6.61967e-09 -1.58771e-07 5.28223e-08)
(-6.67217e-09 -1.56534e-07 3.66781e-08)
(-6.77737e-09 -1.5527e-07 2.15986e-08)
(-6.82989e-09 -1.54689e-07 7.13343e-09)
(-8.72058e-08 -2.07026e-07 1.8481e-07)
(-6.98827e-08 -1.93279e-07 1.15995e-07)
(-5.73446e-08 -1.81725e-07 8.58485e-08)
(-5.17837e-08 -1.74061e-07 6.70795e-08)
(-5.00498e-08 -1.69399e-07 5.10579e-08)
(-4.96929e-08 -1.66674e-07 3.59163e-08)
(-4.96545e-08 -1.65167e-07 2.13079e-08)
(-4.96501e-08 -1.64492e-07 7.05917e-09)
)
;
        gradient        nonuniform List<vector> 
192
(
(4.75996e-06 1.71108e-06 -2.23482e-07)
(4.47106e-06 4.99711e-07 -3.73273e-07)
(4.56848e-06 5.58946e-08 -4.03449e-07)
(4.71455e-06 9.40667e-10 -4.04807e-07)
(4.88629e-06 1.18001e-07 -4.02796e-07)
(5.10316e-06 3.48942e-07 -3.9798e-07)
(5.394e-06 5.77699e-07 -3.85328e-07)
(5.94758e-06 3.8445e-07 -3.65003e-07)
(3.92716e-06 1.19563e-06 -3.37538e-07)
(3.74235e-06 3.50147e-07 -5.57217e-07)
(3.79789e-06 2.15392e-08 -6.0379e-07)
(3.90532e-06 -1.21433e-08 -6.12629e-07)
(4.05693e-06 1.09407e-07 -6.18516e-07)
(4.27834e-06 3.56412e-07 -6.19075e-07)
(4.62745e-06 6.17272e-07 -6.00473e-07)
(5.39903e-06 4.04918e-07 -5.60449e-07)
(3.41272e-06 8.1637e-07 -2.06329e-07)
(3.34481e-06 2.33476e-07 -3.5114e-07)
(3.40827e-06 4.87231e-10 -3.77617e-07)
(3.50981e-06 -1.37842e-08 -3.74742e-07)
(3.66202e-06 1.11555e-07 -3.6955e-07)
(3.89846e-06 3.66984e-07 -3.62596e-07)
(4.28436e-06 6.36324e-07 -3.51886e-07)
(5.11616e-06 4.18285e-07 -3.43191e-07)
(3.1084e-06 6.38194e-07 -8.99011e-08)
(3.08434e-06 1.78873e-07 -1.54127e-07)
(3.15822e-06 -2.05807e-09 -1.60458e-07)
(3.26285e-06 -4.0756e-09 -1.49993e-07)
(3.41981e-06 1.21554e-07 -1.38568e-07)
(3.66684e-06 3.74076e-07 -1.30085e-07)
(4.07079e-06 6.36678e-07 -1.28718e-07)
(4.91352e-06 4.2364e-07 -1.35962e-07)
(2.92997e-06 5.72365e-07 -3.34546e-08)
(2.9175e-06 1.6293e-07 -5.39235e-08)
(2.99724e-06 4.62517e-09 -5.03088e-08)
(3.10637e-06 8.10656e-09 -3.91521e-08)
(3.26832e-06 1.31463e-07 -2.84354e-08)
(3.52181e-06 3.76835e-07 -2.24113e-08)
(3.93292e-06 6.30449e-07 -2.52568e-08)
(4.77049e-06 4.24295e-07 -3.50067e-08)
(2.82648e-06 5.50832e-07 -1.22679e-08)
(2.81682e-06 1.62026e-07 -1.66283e-08)
(2.89963e-06 1.27162e-08 -1.10668e-08)
(3.01239e-06 1.77988e-08 -2.6674e-09)
(3.17818e-06 1.38295e-07 4.68506e-09)
(3.43528e-06 3.77256e-07 8.04008e-09)
(3.84844e-06 6.24084e-07 4.80908e-09)
(4.67807e-06 4.22826e-07 -2.77548e-09)
(2.76936e-06 5.43479e-07 -4.79433e-09)
(2.76045e-06 1.64136e-07 -5.21738e-09)
(2.84488e-06 1.8588e-08 -1.34975e-09)
(2.95997e-06 2.38592e-08 3.5128e-09)
(3.12816e-06 1.42171e-07 7.5114e-09)
(3.38708e-06 3.7696e-07 9.08524e-09)
(3.80039e-06 6.19634e-07 6.95003e-09)
(4.62389e-06 4.21011e-07 2.43653e-09)
(2.74388e-06 5.40826e-07 -1.34503e-09)
(2.73522e-06 1.65473e-07 -1.30966e-09)
(2.82035e-06 2.14476e-08 -7.98471e-12)
(2.93655e-06 2.66604e-08 1.54945e-09)
(3.10587e-06 1.43868e-07 2.79301e-09)
(3.36551e-06 3.76695e-07 3.24674e-09)
(3.77862e-06 6.17436e-07 2.52771e-09)
(4.59896e-06 4.19885e-07 1.0476e-09)
(5.39629e-08 2.1483e-06 4.83755e-06)
(1.08464e-07 1.1391e-06 4.51831e-06)
(1.14709e-07 7.57891e-07 4.61671e-06)
(1.02798e-07 6.6553e-07 4.77366e-06)
(8.72267e-08 6.98631e-07 4.95241e-06)
(7.19571e-08 7.96434e-07 5.16407e-06)
(6.72395e-08 8.31317e-07 5.43812e-06)
(8.51616e-08 4.42735e-07 5.97606e-06)
(-6.34332e-08 2.01222e-06 4.31241e-06)
(-8.71655e-08 1.10981e-06 4.00639e-06)
(-9.7041e-08 7.36435e-07 4.02624e-06)
(-1.10345e-07 6.38363e-07 4.12852e-06)
(-1.25735e-07 6.71195e-07 4.27374e-06)
(-1.39614e-07 7.85171e-07 4.47e-06)
(-1.39259e-07 8.60988e-07 4.78058e-06)
(-1.12501e-07 4.61588e-07 5.54114e-06)
(4.24053e-08 1.99761e-06 4.22568e-06)
(5.28506e-08 1.10545e-06 3.92517e-06)
(5.82136e-08 7.34693e-07 3.94257e-06)
(6.84384e-08 6.36826e-07 4.0423e-06)
(8.04399e-08 6.69352e-07 4.1855e-06)
(9.02451e-08 7.82895e-07 4.37998e-06)
(8.50159e-08 8.58398e-07 4.6889e-06)
(5.34114e-08 4.60568e-07 5.44923e-06)
(-6.86957e-08 2.10739e-06 4.58811e-06)
(-1.34269e-07 1.12558e-06 4.28222e-06)
(-1.45254e-07 7.52005e-07 4.37182e-06)
(-1.36758e-07 6.6058e-07 4.52114e-06)
(-1.24728e-07 6.92994e-07 4.69431e-06)
(-1.13519e-07 7.89734e-07 4.90126e-06)
(-1.13469e-07 8.24126e-07 5.17157e-06)
(-1.35923e-07 4.40021e-07 5.71406e-06)
(-4.31522e-06 1.64506e-06 -2.33476e-07)
(-4.02233e-06 4.60653e-07 -3.92179e-07)
(-4.11062e-06 2.41924e-08 -4.26937e-07)
(-4.24662e-06 -2.72956e-08 -4.31822e-07)
(-4.40898e-06 9.441e-08 -4.33414e-07)
(-4.61733e-06 3.32076e-07 -4.32642e-07)
(-4.89944e-06 5.70245e-07 -4.24591e-07)
(-5.4386e-06 3.88891e-07 -4.08952e-07)
(-3.49297e-06 1.12086e-06 -3.40343e-07)
(-3.31182e-06 3.05456e-07 -5.65005e-07)
(-3.3605e-06 -1.42153e-08 -6.15608e-07)
(-3.45831e-06 -4.40406e-08 -6.28028e-07)
(-3.59952e-06 8.1966e-08 -6.37506e-07)
(-3.81011e-06 3.35264e-07 -6.41923e-07)
(-4.14732e-06 6.0513e-07 -6.27567e-07)
(-4.90106e-06 4.04881e-07 -5.92066e-07)
(-2.99267e-06 7.39715e-07 -2.06088e-07)
(-2.92788e-06 1.85381e-07 -3.52939e-07)
(-2.98466e-06 -3.88369e-08 -3.82343e-07)
(-3.07658e-06 -4.91983e-08 -3.82615e-07)
(-3.21749e-06 8.0513e-08 -3.80675e-07)
(-3.44091e-06 3.42013e-07 -3.77128e-07)
(-3.81162e-06 6.20101e-07 -3.70039e-07)
(-4.62236e-06 4.14093e-07 -3.65136e-07)
(-2.69858e-06 5.61838e-07 -8.91656e-08)
(-2.67752e-06 1.29195e-07 -1.53863e-07)
(-2.74471e-06 -4.38959e-08 -1.619e-07)
(-2.8396e-06 -4.23748e-08 -1.53765e-07)
(-2.98458e-06 8.74515e-08 -1.44968e-07)
(-3.2171e-06 3.45899e-07 -1.39283e-07)
(-3.60334e-06 6.17123e-07 -1.40842e-07)
(-4.4224e-06 4.16113e-07 -1.51074e-07)
(-2.52693e-06 4.96691e-07 -3.28561e-08)
(-2.51751e-06 1.12644e-07 -5.32619e-08)
(-2.59055e-06 -3.87416e-08 -5.05186e-08)
(-2.68977e-06 -3.22684e-08 -4.0883e-08)
(-2.83926e-06 9.49946e-08 -3.20768e-08)
(-3.07727e-06 3.4614e-07 -2.81724e-08)
(-3.4691e-06 6.08311e-07 -3.32412e-08)
(-4.28124e-06 4.14231e-07 -4.52206e-08)
(-2.42763e-06 4.75722e-07 -1.18744e-08)
(-2.42103e-06 1.1153e-07 -1.6081e-08)
(-2.49709e-06 -3.15191e-08 -1.09432e-08)
(-2.5998e-06 -2.39339e-08 -3.45058e-09)
(-2.75276e-06 1.00162e-07 2.65113e-09)
(-2.99377e-06 3.44736e-07 4.55307e-09)
(-3.38673e-06 6.00076e-07 -2.20251e-10)
(-4.18982e-06 4.10954e-07 -9.33652e-09)
(-2.37291e-06 4.68737e-07 -4.57465e-09)
(-2.36707e-06 1.13573e-07 -4.88555e-09)
(-2.44469e-06 -2.61124e-08 -1.21116e-09)
(-2.54962e-06 -1.86745e-08 3.17759e-09)
(-2.70476e-06 1.02998e-07 6.47999e-09)