/*--------------------------------*- C++ -*----------------------------------*\
| =========                 |                                                 |
| \\      /  F ield         | OpenFOAM: The Open Source CFD Toolbox           |
|  \\    /   O peration     | Version:  v1912                                 |
|   \\  /    A nd           | Website:  www.openfoam.com                      |
|    \\/     M anipulation  |                                                 |
\*---------------------------------------------------------------------------*/
FoamFile
{
    version     2.0;
    format      ascii;
    class       volVectorField;
    location    "0.97/solid";
    object      D_0_0;
}
// * * * * * * * * * * * * * * * * * * * * * * * * * * * * * * * * * * * * * //

dimensions      [0 1 0 0 0 0 0];


internalField   nonuniform List<vector> 
256
(
(3.1675e-08 4.36959e-08 3.53358e-08)
(4.54149e-09 2.58212e-08 3.2452e-08)
(-4.71713e-09 2.53456e-08 3.21885e-08)
(-3.05879e-08 4.18122e-08 3.46178e-08)
(5.28726e-08 3.46871e-08 7.0517e-08)
(1.11845e-08 2.33055e-08 6.66199e-08)
(-1.06673e-08 2.27286e-08 6.62101e-08)
(-5.06297e-08 3.28467e-08 6.93597e-08)
(5.62629e-08 1.60527e-08 9.11562e-08)
(1.27994e-08 1.14431e-08 8.68305e-08)
(-1.13953e-08 1.09042e-08 8.63814e-08)
(-5.31269e-08 1.44584e-08 8.98601e-08)
(5.56041e-08 -1.61336e-09 1.07528e-07)
(1.24985e-08 -4.01922e-09 1.02591e-07)
(-1.02689e-08 -4.49581e-09 1.02115e-07)
(-5.16367e-08 -3.00817e-09 1.06139e-07)
(5.63428e-08 -1.90747e-08 1.23649e-07)
(1.26315e-08 -2.22173e-08 1.18003e-07)
(-9.67047e-09 -2.2634e-08 1.17492e-07)
(-5.1617e-08 -2.02916e-08 1.22154e-07)
(6.14801e-08 -3.90185e-08 1.41678e-07)
(1.45138e-08 -4.36421e-08 1.35402e-07)
(-1.09383e-08 -4.39994e-08 1.34848e-07)
(-5.61143e-08 -4.00501e-08 1.4005e-07)
(7.36367e-08 -6.92044e-08 1.62672e-07)
(1.88325e-08 -7.25815e-08 1.56471e-07)
(-1.48352e-08 -7.28409e-08 1.55861e-07)
(-6.78053e-08 -6.99444e-08 1.60882e-07)
(9.01669e-08 -1.33577e-07 1.82568e-07)
(2.34461e-08 -1.29232e-07 1.77744e-07)
(-1.94028e-08 -1.29077e-07 1.77073e-07)
(-8.4121e-08 -1.33169e-07 1.80616e-07)
(2.19504e-08 1.94841e-08 8.34822e-09)
(2.47085e-09 4.7656e-09 9.91814e-09)
(-2.44926e-09 4.48829e-09 9.90928e-09)
(-2.07461e-08 1.80964e-08 8.31718e-09)
(3.70976e-08 1.21505e-08 3.07153e-08)
(7.18712e-09 2.618e-09 3.3782e-08)
(-6.25158e-09 2.1582e-09 3.37063e-08)
(-3.45954e-08 1.05842e-08 3.04925e-08)
(3.91565e-08 -1.32328e-09 4.9799e-08)
(8.34287e-09 -5.2844e-09 5.33234e-08)
(-6.3956e-09 -5.77343e-09 5.32099e-08)
(-3.56717e-08 -2.81209e-09 4.94607e-08)
(3.8136e-08 -1.60263e-08 6.56151e-08)
(8.01188e-09 -1.82177e-08 6.91139e-08)
(-5.15067e-09 -1.86729e-08 6.89768e-08)
(-3.37458e-08 -1.73858e-08 6.51984e-08)
(3.85854e-08 -3.17752e-08 8.04071e-08)
(8.14128e-09 -3.487e-08 8.36965e-08)
(-4.47073e-09 -3.52764e-08 8.35323e-08)
(-3.33594e-08 -3.29855e-08 7.9902e-08)
(4.35719e-08 -4.94182e-08 9.55171e-08)
(1.00377e-08 -5.41435e-08 9.85608e-08)
(-5.67457e-09 -5.44985e-08 9.83607e-08)
(-3.76178e-08 -5.04655e-08 9.48995e-08)
(5.6209e-08 -7.38409e-08 1.09987e-07)
(1.44996e-08 -7.7191e-08 1.12911e-07)
(-9.63283e-09 -7.74663e-08 1.12671e-07)
(-4.96882e-08 -7.46416e-08 1.09245e-07)
(7.41503e-08 -1.26443e-07 1.18184e-07)
(1.93303e-08 -1.20733e-07 1.21134e-07)
(-1.43321e-08 -1.2063e-07 1.20873e-07)
(-6.73047e-08 -1.26176e-07 1.17367e-07)
(1.49955e-08 1.17434e-08 4.06155e-09)
(6.14136e-10 -4.60876e-10 6.22449e-09)
(-5.53265e-10 -6.95362e-10 6.22646e-09)
(-1.37927e-08 1.04628e-08 4.06765e-09)
(2.53692e-08 6.77082e-10 1.90588e-08)
(3.44516e-09 -7.14516e-09 2.31633e-08)
(-2.39201e-09 -7.56133e-09 2.31345e-08)
(-2.28079e-08 -7.98483e-10 1.89818e-08)
(2.64732e-08 -1.26853e-08 3.52981e-08)
(4.13529e-09 -1.60391e-08 4.00031e-08)
(-1.98813e-09 -1.65058e-08 3.99435e-08)
(-2.28564e-08 -1.41404e-08 3.51316e-08)
(2.5377e-08 -2.58309e-08 5.01701e-08)
(3.7925e-09 -2.79227e-08 5.49586e-08)
(-6.53037e-10 -2.83752e-08 5.48739e-08)
(-2.07824e-08 -2.72057e-08 4.99249e-08)
(2.58166e-08 -3.91833e-08 6.37034e-08)
(3.94625e-09 -4.23586e-08 6.84106e-08)
(7.56295e-11 -4.2776e-08 6.82999e-08)
(-2.03118e-08 -4.04445e-08 6.3375e-08)
(3.09057e-08 -5.31681e-08 7.59438e-08)
(5.88153e-09 -5.80461e-08 8.05154e-08)
(-1.09703e-09 -5.84241e-08 8.03751e-08)
(-2.45928e-08 -5.42978e-08 7.55211e-08)
(4.3935e-08 -7.21662e-08 8.52609e-08)
(1.04629e-08 -7.56385e-08 8.96763e-08)
(-5.10534e-09 -7.59507e-08 8.95099e-08)
(-3.69669e-08 -7.30836e-08 8.47493e-08)
(6.23795e-08 -1.18182e-07 8.79624e-08)
(1.54377e-08 -1.12407e-07 9.22654e-08)
(-9.87553e-09 -1.12353e-07 9.20952e-08)
(-5.49918e-08 -1.18055e-07 8.74219e-08)
(1.17864e-08 9.21249e-09 3.56841e-09)
(-1.96982e-10 -1.48181e-09 4.99086e-09)
(2.62243e-10 -1.71241e-09 4.98846e-09)
(-1.06082e-08 7.95066e-09 3.56793e-09)
(1.98246e-08 -3.94188e-09 1.4756e-08)
(1.68389e-09 -1.07113e-08 1.74673e-08)
(-6.09275e-10 -1.11227e-08 1.74481e-08)
(-1.7277e-08 -5.41181e-09 1.47145e-08)
(2.059e-08 -1.82861e-08 2.76804e-08)
(2.16442e-09 -2.12771e-08 3.07746e-08)
(4.60161e-11 -2.1744e-08 3.07343e-08)
(-1.69438e-08 -1.97559e-08 2.75798e-08)
(1.9708e-08 -3.09695e-08 4.03045e-08)
(1.90076e-09 -3.30475e-08 4.34167e-08)
(1.35862e-09 -3.35094e-08 4.3355e-08)
(-1.50273e-08 -3.23849e-08 4.01387e-08)
(2.04037e-08 -4.2567e-08 5.16868e-08)
(2.16145e-09 -4.58433e-08 5.47068e-08)
(2.04136e-09 -4.62798e-08 5.46226e-08)
(-1.47496e-08 -4.38944e-08 5.14503e-08)
(2.57177e-08 -5.38558e-08 6.10826e-08)
(4.17361e-09 -5.8869e-08 6.39895e-08)
(8.52696e-10 -5.92747e-08 6.38823e-08)
(-1.91876e-08 -5.50749e-08 6.07717e-08)
(3.88572e-08 -6.984e-08 6.71317e-08)
(8.78187e-09 -7.35511e-08 6.99384e-08)
(-3.12271e-09 -7.38976e-08 6.98137e-08)
(-3.15994e-08 -7.08635e-08 6.67579e-08)
(5.71902e-08 -1.12941e-07 6.8148e-08)
(1.37613e-08 -1.07761e-07 7.09664e-08)
(-7.83616e-09 -1.07744e-07 7.08427e-08)
(-4.94372e-08 -1.12922e-07 6.77607e-08)
(1.05763e-08 8.19832e-09 3.19178e-09)
(-4.0171e-10 -1.73467e-09 3.91315e-09)
(4.65156e-10 -1.96566e-09 3.90998e-09)
(-9.41919e-09 6.94501e-09 3.18933e-09)
(1.78035e-08 -5.57253e-09 1.17016e-08)
(1.18715e-09 -1.18351e-08 1.30612e-08)
(-1.1506e-10 -1.22508e-08 1.30477e-08)
(-1.52835e-08 -7.05364e-09 1.16767e-08)
(1.85994e-08 -2.03968e-08 2.14247e-08)
(1.65015e-09 -2.32489e-08 2.29441e-08)
(5.76555e-10 -2.3724e-08 2.29172e-08)
(-1.49604e-08 -2.18946e-08 2.13634e-08)
(1.80121e-08 -3.29371e-08 3.11484e-08)
(1.49986e-09 -3.50627e-08 3.26262e-08)
(1.81195e-09 -3.55378e-08 3.25836e-08)
(-1.3301e-08 -3.43969e-08 3.10404e-08)
(1.90039e-08 -4.36121e-08 3.98749e-08)
(1.8804e-09 -4.69828e-08 4.12565e-08)
(2.42032e-09 -4.7438e-08 4.11967e-08)
(-1.32722e-08 -4.50002e-08 3.97135e-08)
(2.45e-08 -5.35478e-08 4.67265e-08)
(3.95879e-09 -5.86556e-08 4.80238e-08)
(1.2141e-09 -5.9085e-08 4.7947e-08)
(-1.78392e-08 -5.48412e-08 4.651e-08)
(3.75857e-08 -6.82875e-08 5.07929e-08)
(8.54276e-09 -7.21917e-08 5.20509e-08)
(-2.68824e-09 -7.25644e-08 5.19621e-08)
(-3.01409e-08 -6.93924e-08 5.05319e-08)
(5.56591e-08 -1.10058e-07 5.14346e-08)
(1.34787e-08 -1.05434e-07 5.27609e-08)
(-7.30928e-09 -1.05443e-07 5.26736e-08)
(-4.76616e-08 -1.10119e-07 5.11657e-08)
(1.01424e-08 7.73999e-09 2.5032e-09)
(-4.06815e-10 -1.83305e-09 2.82751e-09)
(4.67521e-10 -2.06418e-09 2.82517e-09)
(-8.99949e-09 6.49325e-09 2.50125e-09)
(1.7178e-08 -6.05123e-09 8.57897e-09)
(1.14882e-09 -1.21077e-08 9.16889e-09)
(-8.3997e-11 -1.25275e-08 9.16028e-09)
(-1.4681e-08 -7.54138e-09 8.56436e-09)
(1.81197e-08 -2.08945e-08 1.53327e-08)
(1.66358e-09 -2.37265e-08 1.59615e-08)
(5.63557e-10 -2.42096e-08 1.59447e-08)
(-1.44952e-08 -2.24161e-08 1.52966e-08)
(1.77798e-08 -3.33135e-08 2.20913e-08)
(1.61098e-09 -3.55044e-08 2.26637e-08)
(1.72251e-09 -3.59912e-08 2.26367e-08)
(-1.30607e-08 -3.48094e-08 2.20253e-08)
(1.89939e-08 -4.3606e-08 2.81305e-08)
(2.08138e-09 -4.70489e-08 2.86276e-08)
(2.27164e-09 -4.75191e-08 2.85889e-08)
(-1.32221e-08 -4.50407e-08 2.80284e-08)
(2.45968e-08 -5.30573e-08 3.27746e-08)
(4.20079e-09 -5.82181e-08 3.32204e-08)
(1.05966e-09 -5.86651e-08 3.31701e-08)
(-1.78582e-08 -5.4405e-08 3.26351e-08)
(3.75918e-08 -6.74116e-08 3.54725e-08)
(8.7525e-09 -7.14202e-08 3.59126e-08)
(-2.77397e-09 -7.18115e-08 3.58543e-08)
(-3.00284e-08 -6.85738e-08 3.53031e-08)
(5.54398e-08 -1.08516e-07 3.59879e-08)
(1.36453e-08 -1.04228e-07 3.64918e-08)
(-7.31592e-09 -1.04255e-07 3.64346e-08)
(-4.72827e-08 -1.08632e-07 3.58134e-08)
(9.97186e-09 7.53643e-09 1.58321e-09)
(-3.81585e-10 -1.86822e-09 1.71733e-09)
(4.40039e-10 -2.09932e-09 1.71602e-09)
(-8.83754e-09 6.29402e-09 1.58215e-09)
(1.69842e-08 -6.12725e-09 5.24019e-09)
(1.19534e-09 -1.21083e-08 5.47186e-09)
(-1.36869e-10 -1.25307e-08 5.46718e-09)
(-1.4502e-08 -7.62252e-09 5.23261e-09)
(1.80506e-08 -2.08369e-08 9.21428e-09)
(1.75979e-09 -2.36858e-08 9.44457e-09)
(4.63869e-10 -2.41743e-08 9.43548e-09)
(-1.44376e-08 -2.2374e-08 9.19534e-09)
(1.78709e-08 -3.3143e-08 1.31658e-08)
(1.77099e-09 -3.53865e-08 1.33547e-08)
(1.57048e-09 -3.58812e-08 1.33399e-08)
(-1.31511e-08 -3.4663e-08 1.31303e-08)
(1.92179e-08 -4.33068e-08 1.66833e-08)
(2.29504e-09 -4.67952e-08 1.68275e-08)
(2.08432e-09 -4.72754e-08 1.6806e-08)
(-1.34262e-08 -4.47721e-08 1.66274e-08)
(2.4874e-08 -5.26537e-08 1.93721e-08)
(4.43588e-09 -5.78389e-08 1.94907e-08)
(8.73352e-10 -5.82971e-08 1.94625e-08)
(-1.80916e-08 -5.40364e-08 1.92946e-08)
(3.77984e-08 -6.69409e-08 2.09387e-08)
(8.96462e-09 -7.09919e-08 2.1062e-08)
(-2.91349e-09 -7.13949e-08 2.10292e-08)
(-3.01651e-08 -6.81394e-08 2.08441e-08)
(5.54964e-08 -1.07711e-07 2.12899e-08)
(1.38278e-08 -1.03585e-07 2.14527e-08)
(-7.4024e-09 -1.03623e-07 2.14206e-08)
(-4.72432e-08 -1.07861e-07 2.11923e-08)
(9.90507e-09 7.46031e-09 5.4031e-10)
(-3.67275e-10 -1.87554e-09 5.76938e-10)
(4.24508e-10 -2.10661e-09 5.76522e-10)
(-8.77479e-09 6.21997e-09 5.39987e-10)
(1.69185e-08 -6.10802e-09 1.7617e-09)
(1.22449e-09 -1.20648e-08 1.82255e-09)
(-1.69495e-10 -1.24883e-08 1.82108e-09)
(-1.44436e-08 -7.60552e-09 1.75936e-09)
(1.80481e-08 -2.07164e-08 3.07325e-09)
(1.81463e-09 -2.35798e-08 3.13037e-09)
(4.06456e-10 -2.4071e-08 3.12751e-09)
(-1.44411e-08 -2.22607e-08 3.06737e-09)
(1.79438e-08 -3.29559e-08 4.37099e-09)
(1.85583e-09 -3.52269e-08 4.41355e-09)
(1.48804e-09 -3.57255e-08 4.40885e-09)
(-1.32247e-08 -3.44875e-08 4.35987e-09)
(1.93507e-08 -4.30857e-08 5.52372e-09)
(2.40401e-09 -4.65954e-08 5.55171e-09)
(1.98627e-09 -4.70805e-08 5.54484e-09)
(-1.35508e-08 -4.45659e-08 5.50598e-09)
(2.50282e-08 -5.24333e-08 6.40407e-09)
(4.55382e-09 -5.76271e-08 6.42454e-09)
(7.77143e-10 -5.80909e-08 6.41549e-09)
(-1.8226e-08 -5.3833e-08 6.37931e-09)
(3.79168e-08 -6.67295e-08 6.91999e-09)
(9.07152e-09 -7.07934e-08 6.94318e-09)
(-2.98697e-09 -7.1202e-08 6.93264e-09)
(-3.0251e-08 -6.79455e-08 6.88962e-09)
(5.55416e-08 -1.0736e-07 7.04486e-09)
(1.39201e-08 -1.03296e-07 7.08106e-09)
(-7.4498e-09 -1.03339e-07 7.07072e-09)
(-4.72432e-08 -1.07527e-07 7.01351e-09)
)
;

boundaryField
{
    interface
    {
        type            solidTraction;
        traction        uniform (0 0 0);
        pressure        uniform 0;
        secondOrder     false;
        setEffectiveTraction false;
        relaxationFactor 1;
        value           nonuniform List<vector> 
192
(
(9.1076e-08 6.48327e-08 3.25739e-08)
(1.08655e-07 4.0834e-08 6.59066e-08)
(1.13256e-07 1.67356e-08 8.61732e-08)
(1.14415e-07 -1.59333e-09 1.02527e-07)
(1.17297e-07 -1.76056e-08 1.18669e-07)
(1.25148e-07 -3.46948e-08 1.36752e-07)
(1.40935e-07 -6.20324e-08 1.57894e-07)
(1.64392e-07 -1.2879e-07 1.78031e-07)
(7.09732e-08 3.42461e-08 4.17813e-09)
(8.37914e-08 1.6452e-08 2.38391e-08)
(8.65382e-08 -1.0637e-09 4.23511e-08)
(8.68569e-08 -1.61691e-08 5.8058e-08)
(8.92e-08 -3.04161e-08 7.27751e-08)
(9.69548e-08 -4.5012e-08 8.78732e-08)
(1.1394e-07 -6.6196e-08 1.02562e-07)
(1.4151e-07 -1.21412e-07 1.11237e-07)
(5.76146e-08 2.18345e-08 1.52038e-09)
(6.71193e-08 3.54648e-09 1.47403e-08)
(6.90096e-08 -1.26834e-08 3.06562e-08)
(6.91787e-08 -2.5995e-08 4.55628e-08)
(7.15182e-08 -3.78009e-08 5.91576e-08)
(7.956e-08 -4.86382e-08 7.148e-08)
(9.73911e-08 -6.42974e-08 8.09227e-08)
(1.26205e-07 -1.12994e-07 8.37221e-08)
(5.0615e-08 1.71152e-08 2.46354e-09)
(5.83286e-08 -1.74101e-09 1.28643e-08)
(6.00088e-08 -1.83153e-08 2.57117e-08)
(6.04295e-08 -3.1016e-08 3.84631e-08)
(6.30823e-08 -4.10644e-08 4.99835e-08)
(7.14777e-08 -4.92421e-08 5.9481e-08)
(8.96405e-08 -6.19715e-08 6.55443e-08)
(1.18476e-07 -1.07691e-07 6.64677e-08)
(4.71821e-08 1.52933e-08 2.78071e-09)
(5.42286e-08 -3.5668e-09 1.10398e-08)
(5.60117e-08 -2.03446e-08 2.0807e-08)
(5.67821e-08 -3.28359e-08 3.06662e-08)
(5.97917e-08 -4.199e-08 3.95224e-08)
(6.84474e-08 -4.89021e-08 4.64462e-08)
(8.66435e-08 -6.04973e-08 5.04765e-08)
(1.15154e-07 -1.04802e-07 5.09969e-08)
(4.54585e-08 1.45701e-08 2.35203e-09)
(5.23489e-08 -4.05691e-09 8.37406e-09)
(5.43157e-08 -2.0744e-08 1.51954e-08)
(5.53779e-08 -3.30948e-08 2.20559e-08)
(5.86565e-08 -4.19016e-08 2.81839e-08)
(6.74628e-08 -4.84074e-08 3.28681e-08)
(8.55924e-08 -5.97004e-08 3.55256e-08)
(1.13779e-07 -1.03279e-07 3.59471e-08)
(4.45756e-08 1.42754e-08 1.52386e-09)
(5.14527e-08 -4.10758e-09 5.17527e-09)
(5.35641e-08 -2.06152e-08 9.19632e-09)
(5.48151e-08 -3.28511e-08 1.32067e-08)
(5.8256e-08 -4.15558e-08 1.67724e-08)
(6.71372e-08 -4.80082e-08 1.94798e-08)
(8.51976e-08 -5.92848e-08 2.102e-08)
(1.13157e-07 -1.02497e-07 2.13153e-08)
(4.41909e-08 1.41662e-08 5.23606e-10)
(5.10725e-08 -4.07227e-09 1.74527e-09)
(5.32557e-08 -2.046e-08 3.07261e-09)
(5.45957e-08 -3.26302e-08 4.38921e-09)
(5.81102e-08 -4.13144e-08 5.55691e-09)
(6.70215e-08 -4.77915e-08 6.4426e-09)
(8.50433e-08 -5.91007e-08 6.94956e-09)
(1.12891e-07 -1.0216e-07 7.05613e-09)
(3.23356e-08 7.01592e-08 9.57479e-08)
(5.42045e-08 4.86424e-08 1.26937e-07)
(5.76742e-08 2.53057e-08 1.48799e-07)
(5.68719e-08 6.50996e-09 1.67124e-07)
(5.74225e-08 -1.05372e-08 1.85475e-07)
(6.23753e-08 -2.92627e-08 2.06155e-07)
(7.44767e-08 -5.89818e-08 2.30577e-07)
(9.12308e-08 -1.28134e-07 2.57212e-07)
(3.75501e-09 5.05892e-08 8.63129e-08)
(1.01084e-08 3.69003e-08 1.16657e-07)
(1.16065e-08 2.0436e-08 1.37117e-07)
(1.1146e-08 3.77388e-09 1.54155e-07)
(1.10932e-08 -1.40145e-08 1.71384e-07)
(1.28072e-08 -3.4025e-08 1.91246e-07)
(1.71307e-08 -6.19961e-08 2.16192e-07)
(2.20734e-08 -1.23558e-07 2.46967e-07)
(-4.17534e-09 4.99453e-08 8.49854e-08)
(-9.98172e-09 3.6277e-08 1.15248e-07)
(-1.06372e-08 1.98806e-08 1.35638e-07)
(-9.38101e-09 3.28202e-09 1.52619e-07)
(-8.63184e-09 -1.44507e-08 1.69789e-07)
(-9.7755e-09 -3.44073e-08 1.89585e-07)
(-1.37314e-08 -6.22848e-08 2.14455e-07)
(-1.86837e-08 -1.23414e-07 2.45168e-07)
(-3.14179e-08 6.78066e-08 9.19721e-08)
(-5.22512e-08 4.66574e-08 1.22884e-07)
(-5.48752e-08 2.36534e-08 1.44499e-07)
(-5.32756e-08 5.06527e-09 1.62638e-07)
(-5.31047e-08 -1.18139e-08 1.80815e-07)
(-5.74616e-08 -3.0368e-08 2.01304e-07)
(-6.91494e-08 -5.9803e-08 2.25519e-07)
(-8.57406e-08 -1.27756e-07 2.52051e-07)
(-8.4549e-08 6.21167e-08 3.17425e-08)
(-1.00922e-07 3.84816e-08 6.45406e-08)
(-1.04517e-07 1.47103e-08 8.46223e-08)
(-1.04722e-07 -3.38558e-09 1.00848e-07)
(-1.06731e-07 -1.91722e-08 1.16846e-07)
(-1.13839e-07 -3.60031e-08 1.34752e-07)
(-1.29056e-07 -6.29427e-08 1.55681e-07)
(-1.52126e-07 -1.28414e-07 1.75602e-07)
(-6.44535e-08 3.19318e-08 4.11834e-09)
(-7.60183e-08 1.43157e-08 2.3537e-08)
(-7.76981e-08 -3.02443e-09 4.1893e-08)
(-7.69932e-08 -1.79639e-08 5.74848e-08)
(-7.83729e-08 -3.20175e-08 7.20756e-08)
(-8.52674e-08 -4.63833e-08 8.70191e-08)
(-1.01542e-07 -6.72199e-08 1.01535e-07)
(-1.28575e-07 -1.21229e-07 1.10085e-07)
(-5.12702e-08 1.9613e-08 1.53315e-09)
(-5.94534e-08 1.46749e-09 1.46521e-08)
(-6.02054e-08 -1.46467e-08 3.04496e-08)
(-5.92782e-08 -2.78419e-08 4.52452e-08)
(-6.05687e-08 -3.94919e-08 5.87225e-08)
(-6.76426e-08 -5.0134e-08 7.09135e-08)
(-8.46346e-08 -6.54838e-08 8.02272e-08)
(-1.12777e-07 -1.12998e-07 8.29552e-08)
(-4.44223e-08 1.4922e-08 2.47451e-09)
(-5.08014e-08 -3.82789e-09 1.28334e-08)
(-5.13e-08 -2.03183e-08 2.56057e-08)
(-5.0566e-08 -3.29334e-08 3.82684e-08)
(-5.2098e-08 -4.28542e-08 4.96904e-08)
(-5.94393e-08 -5.08624e-08 5.90833e-08)
(-7.66592e-08 -6.3301e-08 6.50514e-08)
(-1.04715e-07 -1.07841e-07 6.59282e-08)
(-4.10948e-08 1.31207e-08 2.78713e-09)
(-4.68139e-08 -5.66833e-09 1.10277e-08)
(-4.73946e-08 -2.23902e-08 2.07512e-08)
(-4.69706e-08 -3.4819e-08 3.05488e-08)
(-4.8806e-08 -4.38656e-08 3.93317e-08)
(-5.63425e-08 -5.0624e-08 4.61777e-08)
(-7.35198e-08 -6.19367e-08 5.01392e-08)
(-1.01171e-07 -1.05059e-07 5.06271e-08)
(-3.94376e-08 1.24134e-08 2.35582e-09)
(-4.50095e-08 -6.16745e-09 8.36898e-09)
(-4.57646e-08 -2.28212e-08 1.51659e-08)
(-4.56081e-08 -3.51277e-08 2.19878e-08)
(-4.7676e-08 -4.38413e-08 2.80669e-08)
(-5.53176e-08 -5.02033e-08 3.26982e-08)
(-7.23762e-08 -6.12175e-08 3.53091e-08)
(-9.96485e-08 -1.03611e-07 3.57088e-08)
(-3.85933e-08 1.21289e-08 1.52597e-09)
(-4.41581e-08 -6.2225e-09 5.17326e-09)
(-4.50539e-08 -2.27117e-08 9.18184e-09)
(-4.50724e-08 -3.49158e-08 1.31714e-08)
(-4.72806e-08 -4.35369e-08 1.67096e-08)
(-5.49687e-08 -4.98516e-08 1.93866e-08)
(-7.19256e-08 -6.08513e-08 2.08998e-08)
(-9.89374e-08 -1.02876e-07 2.11824e-08)
(-3.82262e-08 1.20246e-08 5.24296e-10)
(-4.37987e-08 -6.18892e-09 1.74475e-09)
(-4.47648e-08 -2.25654e-08 3.06826e-09)
(-4.48663e-08 -3.47101e-08 4.37828e-09)
(-4.71377e-08 -4.33156e-08 5.53713e-09)
(-5.48423e-08 -4.96579e-08 6.41293e-09)
(-7.1745e-08 -6.06911e-08 6.9111e-09)
(-9.86279e-08 -1.02562e-07 7.01352e-09)
(9.14761e-08 -2.08294e-07 1.83505e-07)
(7.52395e-08 -1.94463e-07 1.14335e-07)
(6.35311e-08 -1.82862e-07 8.45868e-08)
(5.85215e-08 -1.75173e-07 6.61169e-08)
(5.71325e-08 -1.70499e-07 5.03284e-08)
(5.69877e-08 -1.67766e-07 3.5401e-08)
(5.70734e-08 -1.66254e-07 2.10009e-08)
(5.71268e-08 -1.65577e-07 6.95719e-09)
(2.2322e-08 -1.98526e-07 1.78456e-07)
(1.7878e-08 -1.80573e-07 1.16928e-07)
(1.39814e-08 -1.68462e-07 8.90225e-08)
(1.24628e-08 -1.6153e-07 6.92232e-08)
(1.23257e-08 -1.57665e-07 5.18776e-08)
(1.25809e-08 -1.55451e-07 3.60296e-08)
(1.28067e-08 -1.54203e-07 2.12197e-08)
(1.29156e-08 -1.5363e-07 7.00875e-09)
(-1.84175e-08 -1.97232e-07 1.77792e-07)
(-1.29705e-08 -1.79327e-07 1.16692e-07)
(-8.46274e-09 -1.67274e-07 8.88736e-08)
(-6.54499e-09 -1.60386e-07 6.91151e-08)
(-6.1372e-09 -1.5655e-07 5.18014e-08)
(-6.21409e-09 -1.54356e-07 3.59797e-08)
(-6.33257e-09 -1.53118e-07 2.11917e-08)
(-6.3912e-09 -1.52551e-07 6.99975e-09)
(-8.54742e-08 -2.04646e-07 1.81574e-07)
(-6.83906e-08 -1.90875e-07 1.13589e-07)
(-5.60939e-08 -1.79429e-07 8.41087e-08)
(-5.06824e-08 -1.71865e-07 6.57768e-08)
(-4.90215e-08 -1.67276e-07 5.00932e-08)
(-4.86979e-08 -1.64599e-07 3.52489e-08)
(-4.86754e-08 -1.63122e-07 2.0916e-08)
(-4.86778e-08 -1.62462e-07 6.92998e-09)
)
;
        gradient        uniform (0 0 0);
    }
    symmetry
    {
        type            solidSymmetry;
        patchType       symmetry;
        secondOrder     false;
        value           nonuniform List<vector> 
32
(
(9.90507e-09 7.46031e-09 0)
(1.69185e-08 -6.10802e-09 0)
(1.80481e-08 -2.07164e-08 0)
(1.79438e-08 -3.29559e-08 0)
(1.93507e-08 -4.30857e-08 0)
(2.50282e-08 -5.24333e-08 0)
(3.79168e-08 -6.67295e-08 0)
(5.55416e-08 -1.0736e-07 0)
(-3.67275e-10 -1.87554e-09 0)
(1.22449e-09 -1.20648e-08 0)
(1.81463e-09 -2.35798e-08 0)
(1.85583e-09 -3.52269e-08 0)
(2.40401e-09 -4.65954e-08 0)
(4.55382e-09 -5.76271e-08 0)
(9.07152e-09 -7.07934e-08 0)
(1.39201e-08 -1.03296e-07 0)
(4.24508e-10 -2.10661e-09 0)
(-1.69495e-10 -1.24883e-08 0)
(4.06456e-10 -2.4071e-08 0)
(1.48804e-09 -3.57255e-08 0)
(1.98627e-09 -4.70805e-08 0)
(7.77143e-10 -5.80909e-08 0)
(-2.98697e-09 -7.1202e-08 0)
(-7.4498e-09 -1.03339e-07 0)
(-8.77479e-09 6.21997e-09 0)
(-1.44436e-08 -7.60552e-09 0)
(-1.44411e-08 -2.22607e-08 0)
(-1.32247e-08 -3.44875e-08 0)
(-1.35508e-08 -4.45659e-08 0)
(-1.8226e-08 -5.3833e-08 0)
(-3.0251e-08 -6.79455e-08 0)
(-4.72432e-08 -1.07527e-07 0)
)
;
    }
    bottom
    {
        type            fixedDisplacement;
        value           uniform (0 0 0);
    }
}


// ************************************************************************* //
