/*--------------------------------*- C++ -*----------------------------------*\
| =========                 |                                                 |
| \\      /  F ield         | OpenFOAM: The Open Source CFD Toolbox           |
|  \\    /   O peration     | Version:  v1912                                 |
|   \\  /    A nd           | Website:  www.openfoam.com                      |
|    \\/     M anipulation  |                                                 |
\*---------------------------------------------------------------------------*/
FoamFile
{
    version     2.0;
    format      ascii;
    class       volSymmTensorField;
    location    "0.97/solid";
    object      epsilon;
}
// * * * * * * * * * * * * * * * * * * * * * * * * * * * * * * * * * * * * * //

dimensions      [0 0 0 0 0 0 0];


internalField   nonuniform List<symmTensor> 
256
(
(-2.92789e-06 2.47792e-07 -8.47658e-08 1.58247e-06 2.92591e-07 -2.96333e-06)
(-7.3712e-07 -2.50953e-08 -3.6821e-08 9.92531e-07 2.90275e-07 -2.61121e-06)
(-7.11039e-07 3.07585e-09 3.37293e-08 9.71155e-07 2.88699e-07 -2.56255e-06)
(-2.67944e-06 -2.45655e-07 8.23797e-08 1.50712e-06 2.87523e-07 -2.82428e-06)
(-3.07916e-06 9.93812e-09 -1.32417e-07 -5.5912e-07 5.59648e-08 -3.06407e-06)
(-1.28925e-06 -3.72557e-08 -6.22314e-08 -2.92405e-07 6.72916e-08 -2.6679e-06)
(-1.25355e-06 2.76812e-08 5.83165e-08 -2.93166e-07 6.74514e-08 -2.62031e-06)
(-2.8191e-06 -1.27829e-08 1.28934e-07 -5.51552e-07 5.54749e-08 -2.9264e-06)
(-3.16479e-06 -3.26468e-08 -1.44386e-07 -7.38991e-07 1.24211e-08 -3.14573e-06)
(-1.37462e-06 -3.89936e-08 -6.93117e-08 -5.57411e-07 1.36286e-08 -2.69227e-06)
(-1.33876e-06 3.39601e-08 6.5737e-08 -5.54788e-07 1.37399e-08 -2.64339e-06)
(-2.9e-06 3.03704e-08 1.40814e-07 -7.28226e-07 1.2084e-08 -3.00308e-06)
(-3.23102e-06 -2.39689e-08 -1.51022e-07 -7.17625e-07 1.92908e-08 -3.23591e-06)
(-1.33952e-06 -3.11111e-08 -7.28933e-08 -6.87393e-07 1.46716e-08 -2.74318e-06)
(-1.30352e-06 2.73498e-08 6.96096e-08 -6.8435e-07 1.45305e-08 -2.69294e-06)
(-2.96105e-06 2.24814e-08 1.47503e-07 -7.08357e-07 1.8446e-08 -3.08911e-06)
(-3.32947e-06 -2.01e-09 -1.57803e-07 -7.65752e-07 4.50547e-08 -3.35252e-06)
(-1.34319e-06 -1.57465e-08 -7.67212e-08 -8.09939e-07 3.86493e-08 -2.83285e-06)
(-1.30662e-06 1.23952e-08 7.35174e-08 -8.06963e-07 3.83112e-08 -2.78145e-06)
(-3.05425e-06 8.07484e-10 1.54313e-07 -7.5681e-07 4.37303e-08 -3.20252e-06)
(-3.5043e-06 4.09306e-08 -1.63032e-07 -1.02597e-06 9.31215e-08 -3.51792e-06)
(-1.47405e-06 1.24157e-08 -7.99755e-08 -1.03005e-06 8.92204e-08 -2.98282e-06)
(-1.43694e-06 -1.63135e-08 7.66614e-08 -1.02626e-06 8.86848e-08 -2.93035e-06)
(-3.22428e-06 -4.22892e-08 1.59532e-07 -1.01461e-06 9.12916e-08 -3.36512e-06)
(-3.80882e-06 1.10868e-07 -1.59068e-07 -1.92142e-06 1.60521e-07 -3.78736e-06)
(-1.8002e-06 5.36908e-08 -7.83231e-08 -1.74066e-06 1.68196e-07 -3.2747e-06)
(-1.76213e-06 -5.92604e-08 7.47177e-08 -1.72957e-06 1.67384e-07 -3.22105e-06)
(-3.52347e-06 -1.12327e-07 1.55531e-07 -1.8902e-06 1.58083e-07 -3.63188e-06)
(-4.32601e-06 1.40171e-07 -1.39953e-07 -4.29507e-06 1.82074e-07 -4.29229e-06)
(-2.22701e-06 6.92895e-08 -6.93166e-08 -3.92225e-06 2.0072e-07 -3.91852e-06)
(-2.18536e-06 -6.57533e-08 6.54297e-08 -3.86711e-06 1.999e-07 -3.8639e-06)
(-4.02987e-06 -1.36821e-07 1.36481e-07 -4.1384e-06 1.79885e-07 -4.13717e-06)
(-2.35692e-06 1.50631e-07 -6.85148e-08 6.35914e-07 7.65975e-08 -6.32387e-07)
(-4.94371e-07 -5.26825e-08 -2.4099e-08 1.46671e-07 1.80518e-07 -5.30777e-07)
(-4.70006e-07 4.47986e-08 2.6051e-08 1.3194e-07 1.81862e-07 -5.25219e-07)
(-2.11546e-06 -1.43229e-07 6.88336e-08 5.76639e-07 7.9337e-08 -6.17152e-07)
(-2.47665e-06 -8.80582e-09 -1.0831e-07 -4.24255e-07 7.78498e-08 -1.04304e-06)
(-8.80006e-07 -4.14307e-08 -4.83684e-08 -2.07803e-07 1.33501e-07 -8.81677e-07)
(-8.47666e-07 3.99939e-08 5.06627e-08 -2.1162e-07 1.3389e-07 -8.73614e-07)
(-2.22904e-06 9.004e-09 1.08351e-07 -4.24731e-07 7.77918e-08 -1.02005e-06)
(-2.5235e-06 -3.46653e-08 -1.15372e-07 -5.7556e-07 6.4261e-08 -1.13395e-06)
(-9.26158e-07 -3.67366e-08 -5.35736e-08 -4.26932e-07 8.12295e-08 -9.51605e-07)
(-8.9439e-07 3.59254e-08 5.64035e-08 -4.26322e-07 8.11972e-08 -9.43296e-07)
(-2.27304e-06 3.39852e-08 1.15438e-07 -5.69789e-07 6.31852e-08 -1.10973e-06)
(-2.56361e-06 -2.50688e-08 -1.17912e-07 -6.22732e-07 6.63835e-08 -1.16542e-06)
(-8.81112e-07 -2.89301e-08 -5.45459e-08 -6.04738e-07 6.70087e-08 -9.68871e-07)
(-8.49515e-07 2.77953e-08 5.80538e-08 -6.02543e-07 6.66141e-08 -9.60486e-07)
(-2.3085e-06 2.46424e-08 1.18168e-07 -6.15567e-07 6.44406e-08 -1.1408e-06)
(-2.64618e-06 -3.70688e-09 -1.21583e-07 -6.83543e-07 1.00867e-07 -1.21871e-06)
(-8.77187e-07 -1.49363e-08 -5.6761e-08 -7.34249e-07 9.56833e-08 -1.00936e-06)
(-8.45044e-07 1.36265e-08 6.06458e-08 -7.31695e-07 9.49166e-08 -1.00078e-06)
(-2.38533e-06 3.42625e-09 1.2199e-07 -6.75702e-07 9.79584e-08 -1.19354e-06)
(-2.82003e-06 4.17094e-08 -1.24293e-07 -8.61379e-07 1.58071e-07 -1.33703e-06)
(-1.00384e-06 1.31415e-08 -5.90711e-08 -8.65853e-07 1.51512e-07 -1.1177e-06)
(-9.70962e-07 -1.53268e-08 6.29571e-08 -8.62647e-07 1.50416e-07 -1.1088e-06)
(-2.55303e-06 -4.21894e-08 1.24777e-07 -8.51478e-07 1.54268e-07 -1.311e-06)
(-3.16084e-06 1.21013e-07 -1.20925e-07 -1.56667e-06 2.01225e-07 -1.57446e-06)
(-1.34155e-06 5.76672e-08 -5.7928e-08 -1.35587e-06 1.99154e-07 -1.36006e-06)
(-1.3073e-06 -6.21759e-08 6.16838e-08 -1.34598e-06 1.97894e-07 -1.35051e-06)
(-2.88653e-06 -1.2178e-07 1.21514e-07 -1.53816e-06 1.97064e-07 -1.54682e-06)
(-3.81166e-06 1.59215e-07 -1.10674e-07 -3.79045e-06 1.61383e-07 -1.92234e-06)
(-1.8004e-06 7.82905e-08 -5.40272e-08 -3.27923e-06 1.68956e-07 -1.73842e-06)
(-1.76205e-06 -7.48617e-08 5.85044e-08 -3.2247e-06 1.68169e-07 -1.72762e-06)
(-3.52432e-06 -1.55696e-07 1.11819e-07 -3.63238e-06 1.59039e-07 -1.89179e-06)
(-1.99632e-06 8.1194e-08 -2.96828e-08 2.46296e-07 1.32387e-07 -9.82906e-08)
(-3.14648e-07 -8.36461e-08 -5.24167e-09 -1.57581e-07 2.36503e-07 -1.01155e-07)
(-2.91129e-07 7.92387e-08 5.69076e-09 -1.70554e-07 2.36483e-07 -1.0094e-07)
(-1.76278e-06 -7.26989e-08 2.9561e-08 1.90878e-07 1.32256e-07 -9.74148e-08)
(-2.11556e-06 -2.06674e-08 -4.62177e-08 -4.98686e-07 1.55372e-07 -3.26315e-07)
(-5.62957e-07 -4.74827e-08 -1.47395e-08 -3.2069e-07 2.09087e-07 -3.33262e-07)
(-5.31841e-07 4.93485e-08 1.49287e-08 -3.24945e-07 2.08752e-07 -3.31896e-07)
(-1.87598e-06 2.21432e-08 4.58962e-08 -5.00726e-07 1.53949e-07 -3.21975e-07)
(-2.15624e-06 -3.37796e-08 -4.67721e-08 -5.42256e-07 1.45328e-07 -4.52498e-07)
(-5.78181e-07 -3.51395e-08 -1.58622e-08 -4.26275e-07 1.62015e-07 -4.60871e-07)
(-5.47842e-07 3.67758e-08 1.60822e-08 -4.2652e-07 1.61493e-07 -4.5908e-07)
(-1.9141e-06 3.40496e-08 4.64382e-08 -5.38686e-07 1.43227e-07 -4.46768e-07)
(-2.19202e-06 -2.44961e-08 -4.52503e-08 -5.42524e-07 1.38389e-07 -5.18393e-07)
(-5.29567e-07 -2.77086e-08 -1.46042e-08 -5.38562e-07 1.39404e-07 -5.25808e-07)
(-4.9953e-07 2.81695e-08 1.51581e-08 -5.37068e-07 1.38654e-07 -5.23927e-07)
(-1.94537e-06 2.47043e-08 4.50329e-08 -5.3711e-07 1.35641e-07 -5.12248e-07)
(-2.27418e-06 -4.03753e-09 -4.48348e-08 -5.60226e-07 1.53751e-07 -5.88597e-07)
(-5.24392e-07 -1.51722e-08 -1.4366e-08 -6.16138e-07 1.49485e-07 -5.93576e-07)
(-4.93789e-07 1.48194e-08 1.51902e-08 -6.14128e-07 1.48463e-07 -5.91565e-07)
(-2.02131e-06 4.19038e-09 4.47399e-08 -5.53779e-07 1.5026e-07 -5.8199e-07)
(-2.45688e-06 4.27315e-08 -4.45423e-08 -6.76356e-07 1.75333e-07 -7.0554e-07)
(-6.52597e-07 1.3034e-08 -1.48607e-08 -6.81674e-07 1.69175e-07 -7.07777e-07)
(-6.21048e-07 -1.47915e-08 1.57689e-08 -6.79019e-07 1.67955e-07 -7.0547e-07)
(-2.19656e-06 -4.29244e-08 4.45448e-08 -6.67844e-07 1.71274e-07 -6.98061e-07)
(-2.82178e-06 1.24486e-07 -4.35267e-08 -1.32256e-06 1.63995e-07 -8.7733e-07)
(-9.99636e-07 5.88455e-08 -1.51826e-08 -1.10708e-06 1.57355e-07 -8.79149e-07)
(-9.66336e-07 -6.34337e-08 1.6266e-08 -1.09775e-06 1.5622e-07 -8.76346e-07)
(-2.55211e-06 -1.25118e-07 4.37237e-08 -1.2953e-06 1.60177e-07 -8.68482e-07)
(-3.51032e-06 1.63272e-07 -4.25603e-08 -3.52339e-06 9.65489e-08 -1.02397e-06)
(-1.47071e-06 7.99462e-08 -1.47642e-08 -2.99004e-06 9.26733e-08 -1.02614e-06)
(-1.43285e-06 -7.6738e-08 1.70078e-08 -2.93617e-06 9.21596e-08 -1.02284e-06)
(-3.22556e-06 -1.59731e-07 4.34276e-08 -3.36643e-06 9.48456e-08 -1.01381e-06)
(-1.79542e-06 5.19395e-08 -8.04225e-09 1.0106e-07 1.51103e-07 -1.82569e-08)
(-2.32677e-07 -9.44872e-08 4.00568e-09 -2.50872e-07 2.16043e-07 -4.73932e-08)
(-2.09729e-07 9.07432e-08 -4.0933e-09 -2.63728e-07 2.15687e-07 -4.74414e-08)
(-1.56756e-06 -4.34048e-08 7.80282e-09 4.58772e-08 1.50437e-07 -1.82655e-08)
(-1.90822e-06 -2.36366e-08 -1.10188e-08 -5.61013e-07 1.82576e-07 -1.50627e-07)
(-4.13455e-07 -4.8518e-08 4.23651e-09 -4.06255e-07 2.15345e-07 -2.06138e-07)
(-3.83039e-07 5.12271e-08 -4.81952e-09 -4.10634e-07 2.14793e-07 -2.05671e-07)
(-1.67439e-06 2.54502e-08 1.05266e-08 -5.63852e-07 1.8097e-07 -1.49119e-07)
(-1.95136e-06 -3.07451e-08 -8.73342e-09 -5.52774e-07 1.82594e-07 -2.83692e-07)
(-4.16426e-07 -3.27506e-08 5.58244e-09 -4.57934e-07 1.91676e-07 -3.48122e-07)
(-3.86769e-07 3.53512e-08 -6.37643e-09 -4.58488e-07 1.90993e-07 -3.47229e-07)
(-1.71495e-06 3.14204e-08 8.16943e-09 -5.50185e-07 1.80379e-07 -2.80892e-07)
(-1.99138e-06 -2.19583e-08 -5.96885e-09 -4.97404e-07 1.73222e-07 -3.89119e-07)
(-3.7252e-07 -2.57383e-08 7.50488e-09 -5.02928e-07 1.71989e-07 -4.56058e-07)
(-3.43168e-07 2.69758e-08 -8.22317e-09 -5.01826e-07 1.71155e-07 -4.54922e-07)
(-1.75041e-06 2.24938e-08 5.44394e-09 -4.93051e-07 1.70484e-07 -3.8551e-07)
(-2.07895e-06 -2.61018e-09 -4.09383e-09 -4.69565e-07 1.67598e-07 -4.87606e-07)
(-3.73469e-07 -1.44991e-08 8.65163e-09 -5.28562e-07 1.63351e-07 -5.54805e-07)
(-3.43513e-07 1.45763e-08 -9.21862e-09 -5.26933e-07 1.62356e-07 -5.5345e-07)
(-1.83138e-06 2.97168e-09 3.64627e-09 -4.64119e-07 1.6437e-07 -4.83271e-07)
(-2.26997e-06 4.30723e-08 -3.17243e-09 -5.59876e-07 1.54398e-07 -5.97841e-07)
(-5.06611e-07 1.24483e-08 8.72868e-09 -5.68017e-07 1.49691e-07 -6.63931e-07)
(-4.75567e-07 -1.41437e-08 -9.15461e-09 -5.6568e-07 1.48625e-07 -6.62287e-07)
(-2.01406e-06 -4.31669e-08 2.82336e-09 -5.52184e-07 1.50924e-07 -5.92604e-07)
(-2.64564e-06 1.2209e-07 -3.90347e-09 -1.20159e-06 1.12317e-07 -7.05212e-07)
(-8.55328e-07 5.64071e-08 7.56893e-09 -9.95375e-07 1.06827e-07 -7.68845e-07)
(-8.2227e-07 -6.11867e-08 -7.66558e-09 -9.86225e-07 1.05946e-07 -7.66883e-07)
(-2.37885e-06 -1.22695e-07 3.7662e-09 -1.17474e-06 1.09321e-07 -6.98985e-07)
(-3.33739e-06 1.58549e-07 -5.63959e-09 -3.3665e-06 5.20899e-08 -7.47796e-07)
(-1.32316e-06 7.68138e-08 7.34241e-09 -2.84685e-06 4.62926e-08 -8.07672e-07)
(-1.28525e-06 -7.37209e-08 -6.32007e-09 -2.79332e-06 4.59496e-08 -8.05592e-07)
(-3.05391e-06 -1.54986e-07 6.08898e-09 -3.21019e-06 5.08791e-08 -7.41106e-07)
(-1.68576e-06 4.31977e-08 -1.03609e-09 4.73932e-08 1.37051e-07 -2.18841e-08)
(-2.03832e-07 -9.39368e-08 5.10705e-09 -2.78821e-07 1.69535e-07 -4.41596e-08)
(-1.81254e-07 9.03219e-08 -5.28272e-09 -2.91831e-07 1.69237e-07 -4.41137e-08)
(-1.46167e-06 -3.47689e-08 8.41662e-10 -8.06064e-09 1.36561e-07 -2.17854e-08)
(-1.79371e-06 -2.24792e-08 3.25255e-10 -5.83122e-07 1.64692e-07 -1.26177e-07)
(-3.61989e-07 -4.65492e-08 8.14388e-09 -4.41005e-07 1.80001e-07 -1.69228e-07)
(-3.3206e-07 4.93523e-08 -8.77192e-09 -4.45587e-07 1.79544e-07 -1.68892e-07)
(-1.56379e-06 2.43212e-08 -7.4573e-10 -5.86828e-07 1.63498e-07 -1.25288e-07)
(-1.84071e-06 -2.768e-08 2.8332e-09 -5.59405e-07 1.72198e-07 -2.52106e-07)
(-3.64721e-07 -3.04245e-08 9.97122e-09 -4.75877e-07 1.74932e-07 -3.02134e-07)
(-3.35524e-07 3.32712e-08 -1.08514e-08 -4.76632e-07 1.74341e-07 -3.01477e-07)
(-1.60816e-06 2.84692e-08 -3.34827e-09 -5.57547e-07 1.70428e-07 -2.50273e-07)
(-1.88666e-06 -1.94254e-08 5.1704e-09 -4.75559e-07 1.64909e-07 -3.71962e-07)
(-3.28346e-07 -2.3961e-08 1.15418e-08 -4.85864e-07 1.62243e-07 -4.23479e-07)
(-2.9943e-07 2.54856e-08 -1.24637e-08 -4.84986e-07 1.61528e-07 -4.22545e-07)
(-1.64945e-06 2.00919e-08 -5.69282e-09 -4.71887e-07 1.62678e-07 -3.69266e-07)
(-1.98031e-06 -1.129e-09 6.8374e-09 -4.23091e-07 1.48986e-07 -4.81232e-07)
(-3.36843e-07 -1.37437e-08 1.25311e-08 -4.83072e-07 1.45326e-07 -5.32366e-07)
(-3.07286e-07 1.39969e-08 -1.33835e-08 -4.8166e-07 1.44513e-07 -5.31172e-07)
(-1.73622e-06 1.58604e-09 -7.31877e-09 -4.18254e-07 1.46414e-07 -4.77706e-07)
(-2.17693e-06 4.2757e-08 7.45246e-09 -5.06732e-07 1.20165e-07 -5.78415e-07)
(-4.74055e-07 1.16678e-08 1.25982e-08 -5.16901e-07 1.17267e-07 -6.28241e-07)
(-4.43323e-07 -1.33586e-08 -1.33109e-08 -5.14718e-07 1.16447e-07 -6.26779e-07)
(-1.92392e-06 -4.28056e-08 -7.85195e-09 -4.99455e-07 1.17509e-07 -5.74031e-07)
(-2.55557e-06 1.18522e-07 6.30844e-09 -1.14896e-06 7.33857e-08 -6.47017e-07)
(-8.20182e-07 5.34688e-08 1.15043e-08 -9.52111e-07 7.05198e-08 -6.94851e-07)
(-7.87279e-07 -5.83499e-08 -1.1882e-08 -9.43006e-07 6.98815e-08 -6.93173e-07)
(-2.29075e-06 -1.19108e-07 -6.52667e-09 -1.12219e-06 7.11941e-08 -6.41884e-07)
(-3.24037e-06 1.53024e-07 4.54252e-09 -3.26787e-06 2.93412e-08 -6.57502e-07)
(-1.28087e-06 7.34077e-08 1.13589e-08 -2.76585e-06 2.54461e-08 -7.04209e-07)
(-1.24294e-06 -7.03535e-08 -1.08331e-08 -2.71243e-06 2.52115e-08 -7.02524e-07)
(-2.95781e-06 -1.49432e-07 -4.30972e-09 -3.11175e-06 2.84873e-08 -6.52182e-07)
(-1.62532e-06 4.14575e-08 2.26059e-10 2.84933e-08 1.06391e-07 -3.28576e-08)
(-1.94925e-07 -9.07414e-08 3.44538e-09 -2.86264e-07 1.21006e-07 -4.47894e-08)
(-1.72565e-07 8.71397e-08 -3.59256e-09 -2.99403e-07 1.20811e-07 -4.4714e-08)
(-1.40353e-06 -3.31192e-08 -3.54807e-10 -2.7165e-08 1.06093e-07 -3.27234e-08)
(-1.73142e-06 -2.06201e-08 1.82653e-09 -5.83752e-07 1.25372e-07 -1.31871e-07)
(-3.48529e-07 -4.4296e-08 5.94033e-09 -4.48547e-07 1.31281e-07 -1.5479e-07)
(-3.18899e-07 4.70333e-08 -6.41873e-09 -4.53324e-07 1.30979e-07 -1.54512e-07)
(-1.5039e-06 2.24259e-08 -2.11577e-09 -5.88175e-07 1.2462e-07 -1.31239e-07)
(-1.78184e-06 -2.54701e-08 3.59578e-09 -5.57107e-07 1.33644e-07 -2.492e-07)
(-3.55085e-07 -2.87646e-08 7.2818e-09 -4.7913e-07 1.33429e-07 -2.75376e-07)
(-3.26174e-07 3.16099e-08 -7.96807e-09 -4.80056e-07 1.33015e-07 -2.74864e-07)
(-1.55166e-06 2.62658e-08 -3.96652e-09 -5.55853e-07 1.32447e-07 -2.47908e-07)
(-1.83266e-06 -1.76926e-08 5.09963e-09 -4.65115e-07 1.28875e-07 -3.6708e-07)
(-3.25295e-07 -2.28219e-08 8.25225e-09 -4.77319e-07 1.26249e-07 -3.93221e-07)
(-2.96645e-07 2.44095e-08 -9.01069e-09 -4.7659e-07 1.25735e-07 -3.92462e-07)
(-1.59771e-06 1.83941e-08 -5.49374e-09 -4.61926e-07 1.27313e-07 -3.65042e-07)
(-1.93093e-06 -1.83533e-10 6.14838e-09 -4.05272e-07 1.12589e-07 -4.73525e-07)
(-3.39534e-07 -1.32913e-08 8.83585e-09 -4.65014e-07 1.1001e-07 -4.98582e-07)
(-3.10215e-07 1.36023e-08 -9.57105e-09 -4.63723e-07 1.09432e-07 -4.97569e-07)
(-1.6889e-06 6.79106e-10 -6.52463e-09 -4.00805e-07 1.10785e-07 -4.70696e-07)
(-2.13069e-06 4.22914e-08 6.44198e-09 -4.88828e-07 8.45028e-08 -5.58623e-07)
(-4.79036e-07 1.10322e-08 8.83645e-09 -4.99665e-07 8.30452e-08 -5.82444e-07)
(-4.48491e-07 -1.27177e-08 -9.46651e-09 -4.97551e-07 8.24768e-08 -5.81188e-07)
(-1.87939e-06 -4.23126e-08 -6.7609e-09 -4.81756e-07 8.2669e-08 -5.55008e-07)
(-2.50916e-06 1.15834e-07 5.55758e-09 -1.12746e-06 4.69352e-08 -6.09739e-07)
(-8.21884e-07 5.14322e-08 8.13955e-09 -9.36363e-07 4.5949e-08 -6.32622e-07)
(-7.89081e-07 -5.63451e-08 -8.50688e-09 -9.2726e-07 4.5519e-08 -6.31194e-07)
(-2.2455e-06 -1.16399e-07 -5.74478e-09 -1.10068e-06 4.54509e-08 -6.05497e-07)
(-3.18628e-06 1.49208e-07 4.29992e-09 -3.20672e-06 1.73796e-08 -6.15687e-07)
(-1.27635e-06 7.11607e-08 8.08078e-09 -2.71686e-06 1.5459e-08 -6.39118e-07)
(-1.23841e-06 -6.81075e-08 -7.80671e-09 -2.66347e-06 1.53052e-08 -6.37708e-07)
(-2.90422e-06 -1.45587e-07 -4.1751e-09 -3.0506e-06 1.68107e-08 -6.11332e-07)
(-1.5928e-06 4.13194e-08 1.61229e-10 2.29432e-08 6.68095e-08 -4.00623e-08)
(-1.92019e-07 -8.8304e-08 1.73603e-09 -2.86901e-07 7.29035e-08 -4.5904e-08)
(-1.69777e-07 8.46852e-08 -1.82726e-09 -3.00119e-07 7.27958e-08 -4.58316e-08)
(-1.37233e-06 -3.304e-08 -2.32869e-10 -3.28278e-08 6.66501e-08 -3.9938e-08)
(-1.69837e-06 -1.93366e-08 1.03924e-09 -5.78311e-07 7.73654e-08 -1.39115e-07)
(-3.4565e-07 -4.28248e-08 3.05131e-09 -4.46875e-07 7.93203e-08 -1.49849e-07)
(-3.16181e-07 4.54903e-08 -3.33938e-09 -4.51786e-07 7.91536e-08 -1.49616e-07)
(-1.4722e-06 2.11086e-08 -1.20329e-09 -5.832e-07 7.69598e-08 -1.38624e-07)
(-1.75111e-06 -2.41872e-08 1.98086e-09 -5.51936e-07 8.28435e-08 -2.50191e-07)
(-3.55689e-07 -2.78263e-08 3.7579e-09 -4.76575e-07 8.20428e-08 -2.61766e-07)
(-3.26931e-07 3.06203e-08 -4.17722e-09 -4.77625e-07 8.18053e-08 -2.6135e-07)
(-1.52226e-06 2.49658e-08 -2.19662e-09 -5.51103e-07 8.21706e-08 -2.49203e-07)
(-1.80506e-06 -1.67294e-08 2.76244e-09 -4.60046e-07 8.0093e-08 -3.61697e-07)
(-3.30231e-07 -2.22335e-08 4.23733e-09 -4.72844e-07 7.83489e-08 -3.72385e-07)
(-3.01721e-07 2.38111e-08 -4.71351e-09 -4.72214e-07 7.80478e-08 -3.71757e-07)
(-1.57137e-06 1.74323e-08 -2.9981e-09 -4.57183e-07 7.91898e-08 -3.60085e-07)
(-1.90615e-06 3.03013e-10 3.29208e-09 -4.00393e-07 6.89169e-08 -4.61512e-07)
(-3.47904e-07 -1.30878e-08 4.50985e-09 -4.59564e-07 6.74664e-08 -4.70928e-07)
(-3.18708e-07 1.34094e-08 -4.9825e-09 -4.58342e-07 6.71265e-08 -4.70068e-07)
(-1.66526e-06 2.05315e-10 -3.52171e-09 -3.96151e-07 6.78644e-08 -4.59187e-07)
(-2.10747e-06 4.1951e-08 3.41259e-09 -4.85218e-07 5.00692e-08 -5.38404e-07)
(-4.88464e-07 1.06507e-08 4.49513e-09 -4.95995e-07 4.94711e-08 -5.46892e-07)
(-4.58012e-07 -1.23308e-08 -4.90582e-09 -4.93913e-07 4.91398e-08 -5.4581e-07)
(-1.85709e-06 -4.19562e-08 -3.60948e-09 -4.78251e-07 4.90024e-08 -5.3536e-07)
(-2.48503e-06 1.14269e-07 2.91581e-09 -1.11924e-06 2.67667e-08 -5.82939e-07)
(-8.28897e-07 5.0335e-08 4.15339e-09 -9.30952e-07 2.66094e-08 -5.91225e-07)
(-7.96141e-07 -5.52513e-08 -4.40249e-09 -9.2184e-07 2.63615e-08 -5.8999e-07)
(-2.22199e-06 -1.14816e-07 -3.03446e-09 -1.09243e-06 2.59091e-08 -5.79331e-07)
(-3.15663e-06 1.47083e-07 2.18488e-09 -3.17168e-06 9.56263e-09 -5.90792e-07)
(-1.2792e-06 6.99712e-08 4.12561e-09 -2.68835e-06 8.80744e-09 -6.00093e-07)
(-1.24126e-06 -6.69079e-08 -3.99665e-09 -2.63495e-06 8.71996e-09 -5.98879e-07)
(-2.87481e-06 -1.43439e-07 -2.12193e-09 -3.01551e-06 9.23674e-09 -5.87089e-07)
(-1.57842e-06 4.13494e-08 3.4543e-11 2.18622e-08 2.27256e-08 -4.33367e-08)
(-1.90985e-07 -8.71622e-08 5.08649e-10 -2.86113e-07 2.44028e-08 -4.67953e-08)
(-1.68795e-07 8.35283e-08 -5.3914e-10 -2.99366e-07 2.43685e-08 -4.67292e-08)
(-1.35855e-06 -3.30989e-08 -5.74974e-11 -3.39583e-08 2.26755e-08 -4.32245e-08)
(-1.68383e-06 -1.87609e-08 2.86566e-10 -5.74238e-07 2.60692e-08 -1.42883e-07)
(-3.44988e-07 -4.21725e-08 8.9208e-10 -4.44502e-07 2.65115e-08 -1.48793e-07)
(-3.15589e-07 4.47977e-08 -9.8745e-10 -4.49478e-07 2.64585e-08 -1.48587e-07)
(-1.45828e-06 2.05149e-08 -3.39479e-10 -5.79351e-07 2.59416e-08 -1.42459e-07)
(-1.7377e-06 -2.36287e-08 5.70097e-10 -5.48438e-07 2.79073e-08 -2.50769e-07)
(-3.56816e-07 -2.74304e-08 1.10087e-09 -4.74136e-07 2.75561e-08 -2.56544e-07)
(-3.28124e-07 3.01897e-08 -1.24064e-09 -4.7525e-07 2.74794e-08 -2.56177e-07)
(-1.50944e-06 2.43951e-08 -6.40438e-10 -5.47816e-07 2.76916e-08 -2.49919e-07)
(-1.79312e-06 -1.63176e-08 8.06541e-10 -4.57921e-07 2.6991e-08 -3.57948e-07)
(-3.33407e-07 -2.19981e-08 1.24045e-09 -4.70858e-07 2.63969e-08 -3.6255e-07)
(-3.04956e-07 2.35596e-08 -1.40107e-09 -4.70278e-07 2.62984e-08 -3.61991e-07)
(-1.55999e-06 1.70164e-08 -8.84315e-10 -4.55224e-07 2.66974e-08 -3.56541e-07)
(-1.89551e-06 5.01387e-10 9.64534e-10 -3.99648e-07 2.30943e-08 -4.53331e-07)
(-3.52622e-07 -1.30156e-08 1.31731e-09 -4.58435e-07 2.26349e-08 -4.56687e-07)
(-3.23476e-07 1.33354e-08 -1.47844e-09 -4.57245e-07 2.25233e-08 -4.55911e-07)
(-1.65511e-06 1.00769e-11 -1.04106e-09 -3.95516e-07 2.27499e-08 -4.51262e-07)
(-2.09744e-06 4.17881e-08 9.97199e-10 -4.8536e-07 1.65891e-08 -5.26215e-07)
(-4.93578e-07 1.04851e-08 1.31131e-09 -4.95965e-07 1.64364e-08 -5.28864e-07)
(-4.63163e-07 -1.21624e-08 -1.45227e-09 -4.93896e-07 1.63278e-08 -5.27876e-07)
(-1.84746e-06 -4.17862e-08 -1.06318e-09 -4.7844e-07 1.62397e-08 -5.23465e-07)
(-2.47439e-06 1.13579e-07 8.41903e-10 -1.11657e-06 8.77278e-09 -5.68673e-07)
(-8.32806e-07 4.9882e-08 1.21302e-09 -9.2936e-07 8.78866e-09 -5.71445e-07)
(-8.00067e-07 -5.47961e-08 -1.29997e-09 -9.20241e-07 8.70768e-09 -5.70314e-07)
(-2.21162e-06 -1.14117e-07 -8.82074e-10 -1.08974e-06 8.49239e-09 -5.6539e-07)
(-3.14322e-06 1.46166e-07 6.02732e-10 -3.15583e-06 3.08973e-09 -5.78211e-07)
(-1.28108e-06 6.94802e-08 1.20339e-09 -2.6752e-06 2.90334e-09 -5.8204e-07)
(-1.24313e-06 -6.64094e-08 -1.16589e-09 -2.6218e-06 2.87492e-09 -5.80928e-07)
(-2.86149e-06 -1.42511e-07 -5.83412e-10 -2.99964e-06 2.98356e-09 -5.74837e-07)
)
;

boundaryField
{
    interface
    {
        type            calculated;
        value           nonuniform List<symmTensor> 
192
(
(-4.75996e-06 2.20157e-12 1.68799e-11 1.58247e-06 2.92591e-07 -2.96333e-06)
(-4.47106e-06 2.46014e-12 2.74666e-11 -5.5912e-07 5.59648e-08 -3.06407e-06)
(-4.56848e-06 1.07664e-12 3.16958e-11 -7.38991e-07 1.24211e-08 -3.14573e-06)
(-4.71455e-06 -1.79338e-12 3.31618e-11 -7.17625e-07 1.92908e-08 -3.23591e-06)
(-4.88629e-06 -4.46247e-12 3.31936e-11 -7.65752e-07 4.50547e-08 -3.35252e-06)
(-5.10316e-06 -9.10611e-12 3.25983e-11 -1.02597e-06 9.31215e-08 -3.51792e-06)
(-5.394e-06 -1.2693e-11 3.03239e-11 -1.92142e-06 1.60521e-07 -3.78736e-06)
(-5.94758e-06 -2.9026e-11 2.85907e-11 -4.29507e-06 1.82074e-07 -4.29229e-06)
(-3.92716e-06 1.58188e-12 8.27535e-12 6.35914e-07 7.65975e-08 -6.32387e-07)
(-3.74235e-06 2.00279e-12 1.43704e-11 -4.24255e-07 7.78498e-08 -1.04304e-06)
(-3.79789e-06 8.52166e-13 1.63371e-11 -5.7556e-07 6.4261e-08 -1.13395e-06)
(-3.90532e-06 -2.03128e-12 1.6681e-11 -6.22732e-07 6.63835e-08 -1.16542e-06)
(-4.05693e-06 -4.80826e-12 1.62212e-11 -6.83543e-07 1.00867e-07 -1.21871e-06)
(-4.27834e-06 -9.88621e-12 1.54416e-11 -8.61379e-07 1.58071e-07 -1.33703e-06)
(-4.62745e-06 -1.38309e-11 1.39646e-11 -1.56667e-06 2.01225e-07 -1.57446e-06)
(-5.39903e-06 -3.09252e-11 1.28187e-11 -3.79045e-06 1.61383e-07 -1.92234e-06)
(-3.41272e-06 1.35523e-12 6.46642e-12 2.46296e-07 1.32387e-07 -9.82906e-08)
(-3.34481e-06 1.7721e-12 1.10657e-11 -4.98686e-07 1.55372e-07 -3.26315e-07)
(-3.40827e-06 6.83876e-13 1.25097e-11 -5.42256e-07 1.45328e-07 -4.52498e-07)
(-3.50981e-06 -2.29794e-12 1.27228e-11 -5.42524e-07 1.38389e-07 -5.18393e-07)
(-3.66202e-06 -5.28492e-12 1.23262e-11 -5.60226e-07 1.53751e-07 -5.88597e-07)
(-3.89846e-06 -1.08753e-11 1.16903e-11 -6.76356e-07 1.75333e-07 -7.0554e-07)
(-4.28436e-06 -1.53557e-11 1.06429e-11 -1.32256e-06 1.63995e-07 -8.7733e-07)
(-5.11616e-06 -3.35333e-11 9.78931e-12 -3.52339e-06 9.65489e-08 -1.02397e-06)
(-3.1084e-06 1.01015e-12 3.90067e-12 1.0106e-07 1.51103e-07 -1.82569e-08)
(-3.08434e-06 1.26956e-12 7.05546e-12 -5.61013e-07 1.82576e-07 -1.50627e-07)
(-3.15822e-06 1.62886e-13 7.99594e-12 -5.52774e-07 1.82594e-07 -2.83692e-07)
(-3.26285e-06 -2.81953e-12 8.04472e-12 -4.97404e-07 1.73222e-07 -3.89119e-07)
(-3.41981e-06 -5.88545e-12 7.67265e-12 -4.69565e-07 1.67598e-07 -4.87606e-07)
(-3.66684e-06 -1.16786e-11 7.16128e-12 -5.59876e-07 1.54398e-07 -5.97841e-07)
(-4.07079e-06 -1.63883e-11 6.50966e-12 -1.20159e-06 1.12317e-07 -7.05212e-07)
(-4.91352e-06 -3.47861e-11 6.02188e-12 -3.3665e-06 5.20899e-08 -7.47796e-07)
(-2.92997e-06 8.41609e-13 2.83008e-12 4.73932e-08 1.37051e-07 -2.18841e-08)
(-2.9175e-06 9.48676e-13 5.11745e-12 -5.83122e-07 1.64692e-07 -1.26177e-07)
(-2.99724e-06 -2.2882e-13 5.80724e-12 -5.59405e-07 1.72198e-07 -2.52106e-07)
(-3.10637e-06 -3.24499e-12 5.83956e-12 -4.75559e-07 1.64909e-07 -3.71962e-07)
(-3.26832e-06 -6.40231e-12 5.56321e-12 -4.23091e-07 1.48986e-07 -4.81232e-07)
(-3.52181e-06 -1.23691e-11 5.18246e-12 -5.06732e-07 1.20165e-07 -5.78415e-07)
(-3.93292e-06 -1.72871e-11 4.73304e-12 -1.14896e-06 7.33857e-08 -6.47017e-07)
(-4.77049e-06 -3.59199e-11 4.38827e-12 -3.26787e-06 2.93412e-08 -6.57502e-07)
(-2.82648e-06 7.08399e-13 1.7072e-12 2.84933e-08 1.06391e-07 -3.28576e-08)
(-2.81682e-06 6.86565e-13 3.19568e-12 -5.83752e-07 1.25372e-07 -1.31871e-07)
(-2.89963e-06 -5.58668e-13 3.65046e-12 -5.57107e-07 1.33644e-07 -2.492e-07)
(-3.01239e-06 -3.59488e-12 3.6609e-12 -4.65115e-07 1.28875e-07 -3.6708e-07)
(-3.17818e-06 -6.80092e-12 3.46704e-12 -4.05272e-07 1.12589e-07 -4.73525e-07)
(-3.43528e-06 -1.28491e-11 3.20886e-12 -4.88828e-07 8.45028e-08 -5.58623e-07)
(-3.84844e-06 -1.78713e-11 2.93612e-12 -1.12746e-06 4.69352e-08 -6.09739e-07)
(-4.67807e-06 -3.66097e-11 2.74027e-12 -3.20672e-06 1.73796e-08 -6.15687e-07)
(-2.76936e-06 6.42228e-13 9.95616e-13 2.29432e-08 6.68095e-08 -4.00623e-08)
(-2.76045e-06 5.31736e-13 1.86147e-12 -5.78311e-07 7.73654e-08 -1.39115e-07)
(-2.84488e-06 -7.68792e-13 2.12857e-12 -5.51936e-07 8.28435e-08 -2.50191e-07)
(-2.95997e-06 -3.82643e-12 2.1352e-12 -4.60046e-07 8.0093e-08 -3.61697e-07)
(-3.12816e-06 -7.07086e-12 2.02324e-12 -4.00393e-07 6.89169e-08 -4.61512e-07)
(-3.38708e-06 -1.31755e-11 1.87056e-12 -4.85218e-07 5.00692e-08 -5.38404e-07)
(-3.80039e-06 -1.8271e-11 1.71737e-12 -1.11924e-06 2.67667e-08 -5.82939e-07)
(-4.62389e-06 -3.70917e-11 1.59986e-12 -3.17168e-06 9.56263e-09 -5.90792e-07)
(-2.74388e-06 6.01937e-13 2.91904e-13 2.18622e-08 2.27256e-08 -4.33367e-08)
(-2.73522e-06 4.44905e-13 5.66949e-13 -5.74238e-07 2.60692e-08 -1.42883e-07)
(-2.82035e-06 -8.81129e-13 6.53061e-13 -5.48438e-07 2.79073e-08 -2.50769e-07)
(-2.93655e-06 -3.94485e-12 6.5391e-13 -4.57921e-07 2.6991e-08 -3.57948e-07)
(-3.10587e-06 -7.20398e-12 6.17159e-13 -3.99648e-07 2.30943e-08 -4.53331e-07)
(-3.36551e-06 -1.33276e-11 5.67044e-13 -4.8536e-07 1.65891e-08 -5.26215e-07)
(-3.77862e-06 -1.84562e-11 5.22116e-13 -1.11657e-06 8.77278e-09 -5.68673e-07)
(-4.59896e-06 -3.73092e-11 4.85654e-13 -3.15583e-06 3.08973e-09 -5.78211e-07)
(-2.92789e-06 2.47792e-07 -2.32281e-11 1.58247e-06 -5.70862e-12 -4.83755e-06)
(-3.07916e-06 9.93812e-09 -3.97652e-11 -5.5912e-07 -7.24148e-12 -4.51831e-06)
(-3.16479e-06 -3.26468e-08 -4.72907e-11 -7.38991e-07 -6.56297e-12 -4.61671e-06)
(-3.23102e-06 -2.39689e-08 -5.05848e-11 -7.17625e-07 -5.13012e-12 -4.77366e-06)
(-3.32947e-06 -2.01e-09 -5.20081e-11 -7.65752e-07 -4.47745e-12 -4.95241e-06)
(-3.5043e-06 4.09306e-08 -5.31479e-11 -1.02597e-06 -4.74318e-12 -5.16407e-06)
(-3.80882e-06 1.10868e-07 -5.45278e-11 -1.92142e-06 -5.70762e-12 -5.43812e-06)
(-4.32601e-06 1.40171e-07 -6.03749e-11 -4.29507e-06 -7.01745e-12 -5.97606e-06)
(-7.3712e-07 -2.50953e-08 -1.34408e-11 9.92531e-07 -3.40381e-12 -4.31241e-06)
(-1.28925e-06 -3.72557e-08 -2.58742e-11 -2.92405e-07 -5.7044e-12 -4.00639e-06)
(-1.37462e-06 -3.89936e-08 -3.10878e-11 -5.57411e-07 -5.54886e-12 -4.02624e-06)
(-1.33952e-06 -3.11111e-08 -3.31828e-11 -6.87393e-07 -3.91126e-12 -4.12852e-06)
(-1.34319e-06 -1.57465e-08 -3.41184e-11 -8.09939e-07 -2.68139e-12 -4.27374e-06)
(-1.47405e-06 1.24157e-08 -3.52803e-11 -1.03005e-06 -1.96624e-12 -4.47e-06)
(-1.8002e-06 5.36908e-08 -3.77143e-11 -1.74066e-06 -2.08066e-12 -4.78058e-06)
(-2.22701e-06 6.92895e-08 -4.52854e-11 -3.92225e-06 -2.51056e-12 -5.54114e-06)
(-7.11039e-07 3.07585e-09 -1.30993e-11 9.71155e-07 -2.5127e-12 -4.22568e-06)
(-1.25355e-06 2.76812e-08 -2.55112e-11 -2.93166e-07 -4.83636e-12 -3.92517e-06)
(-1.33876e-06 3.39601e-08 -3.0872e-11 -5.54788e-07 -4.88207e-12 -3.94257e-06)
(-1.30352e-06 2.73498e-08 -3.30732e-11 -6.8435e-07 -3.06403e-12 -4.0423e-06)
(-1.30662e-06 1.23952e-08 -3.39811e-11 -8.06963e-07 -1.42191e-12 -4.1855e-06)
(-1.43694e-06 -1.63135e-08 -3.50002e-11 -1.02626e-06 -2.11487e-14 -4.37998e-06)
(-1.76213e-06 -5.92604e-08 -3.71532e-11 -1.72957e-06 7.23471e-13 -4.6889e-06)
(-2.18536e-06 -6.57533e-08 -4.45132e-11 -3.86711e-06 8.97735e-13 -5.44923e-06)
(-2.67944e-06 -2.45655e-07 -1.38415e-11 1.50712e-06 -2.05839e-12 -4.58811e-06)
(-2.8191e-06 -1.27829e-08 -2.82758e-11 -5.51552e-07 -4.33672e-12 -4.28222e-06)
(-2.9e-06 3.03704e-08 -3.49961e-11 -7.28226e-07 -4.42286e-12 -4.37182e-06)
(-2.96105e-06 2.24814e-08 -3.78611e-11 -7.08357e-07 -2.43525e-12 -4.52114e-06)
(-3.05425e-06 8.07484e-10 -3.90621e-11 -7.5681e-07 -5.75563e-13 -4.69431e-06)
(-3.22428e-06 -4.22892e-08 -4.03995e-11 -1.01461e-06 1.17025e-12 -4.90126e-06)
(-3.52347e-06 -1.12327e-07 -4.24502e-11 -1.8902e-06 2.41522e-12 -5.17157e-06)
(-4.02987e-06 -1.36821e-07 -5.03206e-11 -4.1384e-06 3.58005e-12 -5.71406e-06)
(-4.31522e-06 4.27513e-12 3.24954e-12 1.50712e-06 2.87523e-07 -2.82428e-06)
(-4.02233e-06 6.32401e-12 6.69331e-12 -5.51552e-07 5.54749e-08 -2.9264e-06)
(-4.11062e-06 5.48244e-12 7.87078e-12 -7.28226e-07 1.2084e-08 -3.00308e-06)
(-4.24662e-06 2.53196e-12 8.56765e-12 -7.08357e-07 1.8446e-08 -3.08911e-06)
(-4.40898e-06 7.63837e-13 9.22253e-12 -7.5681e-07 4.37303e-08 -3.20252e-06)
(-4.61733e-06 -1.7819e-12 1.09419e-11 -1.01461e-06 9.12916e-08 -3.36512e-06)
(-4.89944e-06 -1.63636e-12 1.24954e-11 -1.8902e-06 1.58083e-07 -3.63188e-06)
(-5.4386e-06 -1.55795e-11 1.65018e-11 -4.1384e-06 1.79885e-07 -4.13717e-06)
(-3.49297e-06 1.67795e-12 -2.13802e-12 5.76639e-07 7.9337e-08 -6.17152e-07)
(-3.31182e-06 2.95606e-12 -2.51121e-12 -4.24731e-07 7.77918e-08 -1.02005e-06)
(-3.3605e-06 2.7167e-12 -3.19206e-12 -5.69789e-07 6.31852e-08 -1.10973e-06)
(-3.45831e-06 1.07247e-12 -3.3471e-12 -6.15567e-07 6.44406e-08 -1.1408e-06)
(-3.59952e-06 6.25979e-13 -2.98314e-12 -6.75702e-07 9.79584e-08 -1.19354e-06)
(-3.81011e-06 -7.75323e-13 -1.59783e-12 -8.51478e-07 1.54268e-07 -1.311e-06)
(-4.14732e-06 7.64604e-13 2.453e-13 -1.53816e-06 1.97064e-07 -1.54682e-06)
(-4.90106e-06 -1.18091e-11 3.01907e-12 -3.63238e-06 1.59039e-07 -1.89179e-06)
(-2.99267e-06 9.2438e-13 -1.45301e-12 1.90878e-07 1.32256e-07 -9.74148e-08)
(-2.92788e-06 1.66911e-12 -1.30895e-12 -5.00726e-07 1.53949e-07 -3.21975e-07)
(-2.98466e-06 1.67375e-12 -1.24569e-12 -5.38686e-07 1.43227e-07 -4.46768e-07)
(-3.07658e-06 7.25273e-13 -9.08957e-13 -5.3711e-07 1.35641e-07 -5.12248e-07)
(-3.21749e-06 1.08193e-12 -3.08775e-13 -5.53779e-07 1.5026e-07 -5.8199e-07)
(-3.44091e-06 3.73466e-13 8.88206e-13 -6.67844e-07 1.71274e-07 -6.98061e-07)