/*--------------------------------*- C++ -*----------------------------------*\
| =========                 |                                                 |
| \\      /  F ield         | OpenFOAM: The Open Source CFD Toolbox           |
|  \\    /   O peration     | Version:  v1912                                 |
|   \\  /    A nd           | Website:  www.openfoam.com                      |
|    \\/     M anipulation  |                                                 |
\*---------------------------------------------------------------------------*/
FoamFile
{
    version     2.0;
    format      ascii;
    class       volScalarField;
    location    "0.97/solid";
    object      epsilonEq;
}
// * * * * * * * * * * * * * * * * * * * * * * * * * * * * * * * * * * * * * //

dimensions      [0 0 0 0 0 0 0];


internalField   nonuniform List<scalar> 
256
(
3.05265e-06
2.10862e-06
2.06838e-06
2.87549e-06
1.68326e-06
1.38212e-06
1.35468e-06
1.55723e-06
1.61999e-06
1.24728e-06
1.22138e-06
1.49277e-06
1.68664e-06
1.21662e-06
1.191e-06
1.55597e-06
1.72731e-06
1.21485e-06
1.18936e-06
1.59416e-06
1.67157e-06
1.19014e-06
1.1651e-06
1.53773e-06
1.28449e-06
1.02793e-06
1.00849e-06
1.16271e-06
3.11418e-07
1.15801e-06
1.14864e-06
3.13236e-07
1.74733e-06
4.9145e-07
4.74178e-07
1.57104e-06
1.22544e-06
4.80101e-07
4.65718e-07
1.07278e-06
1.16895e-06
3.62112e-07
3.5123e-07
1.01727e-06
1.16715e-06
2.43352e-07
2.37072e-07
1.013e-06
1.18564e-06
2.05039e-07
2.03714e-07
1.0283e-06
1.20323e-06
2.38113e-07
2.36767e-07
1.04307e-06
1.10319e-06
2.48832e-07
2.51387e-07
9.45583e-07
1.28597e-06
1.03177e-06
1.01167e-06
1.16225e-06
1.40638e-06
3.16642e-07
3.08749e-07
1.23065e-06
1.15524e-06
2.93919e-07
2.82939e-07
9.99554e-07
1.12175e-06
2.13148e-07
2.05375e-07
9.65659e-07
1.12084e-06
1.65156e-07
1.65776e-07
9.61925e-07
1.1483e-06
1.82821e-07
1.88267e-07
9.85866e-07
1.19681e-06
1.99242e-07
2.01795e-07
1.03089e-06
1.20116e-06
2.35107e-07
2.34068e-07
1.03877e-06
1.67703e-06
1.1976e-06
1.1716e-06
1.53947e-06
1.24032e-06
3.01764e-07
2.99876e-07
1.07031e-06
1.08285e-06
2.88888e-07
2.85553e-07
9.34856e-07
1.05575e-06
2.33575e-07
2.33666e-07
9.052e-07
1.05347e-06
2.14981e-07
2.21308e-07
8.98526e-07
1.08438e-06
2.20825e-07
2.3015e-07
9.24892e-07
1.14272e-06
1.96384e-07
2.0361e-07
9.78338e-07
1.17965e-06
1.92247e-07
1.93346e-07
1.01766e-06
1.74685e-06
1.22875e-06
1.20194e-06
1.6076e-06
1.14514e-06
2.63202e-07
2.63886e-07
9.78159e-07
1.01333e-06
2.68768e-07
2.68562e-07
8.69315e-07
9.93576e-07
2.29113e-07
2.31645e-07
8.46072e-07
9.9575e-07
2.10784e-07
2.18512e-07
8.42936e-07
1.03377e-06
2.05932e-07
2.16301e-07
8.76027e-07
1.10029e-06
1.64846e-07
1.73079e-07
9.37027e-07
1.15373e-06
1.80789e-07
1.80185e-07
9.92279e-07
1.74048e-06
1.23153e-06
1.2042e-06
1.60056e-06
1.09067e-06
2.24362e-07
2.26328e-07
9.24681e-07
9.63418e-07
2.35336e-07
2.36096e-07
8.20264e-07
9.49259e-07
1.97405e-07
2.00527e-07
8.02181e-07
9.57935e-07
1.72539e-07
1.81081e-07
8.05304e-07
1.00362e-06
1.60769e-07
1.72127e-07
8.46169e-07
1.07763e-06
1.15997e-07
1.24127e-07
9.14666e-07
1.14298e-06
1.94434e-07
1.90666e-07
9.81982e-07
1.72931e-06
1.23201e-06
1.20415e-06
1.58869e-06
1.06067e-06
1.92714e-07
1.95424e-07
8.94774e-07
9.32957e-07
2.03098e-07
2.04132e-07
7.89462e-07
9.22143e-07
1.59649e-07
1.63073e-07
7.7449e-07
9.35977e-07
1.2659e-07
1.36747e-07
7.82809e-07
9.87321e-07
1.11746e-07
1.25441e-07
8.29581e-07
1.06689e-06
6.91973e-08
7.77968e-08
9.03877e-07
1.14053e-06
2.11803e-07
2.06034e-07
9.79876e-07
1.72402e-06
1.23267e-06
1.20444e-06
1.58288e-06
1.04722e-06
1.74018e-07
1.77138e-07
8.81209e-07
9.18692e-07
1.83019e-07
1.84149e-07
7.74791e-07
9.09446e-07
1.33535e-07
1.37294e-07
7.61292e-07
9.25976e-07
9.25757e-08
1.05201e-07
7.7238e-07
9.80201e-07
7.62011e-08
9.37596e-08
8.222e-07
1.06263e-06
3.20555e-08
4.41887e-08
8.9954e-07
1.14052e-06
2.21679e-07
2.15075e-07
9.80044e-07
1.72252e-06
1.23312e-06
1.20471e-06
1.5811e-06
)
;

boundaryField
{
    interface
    {
        type            calculated;
        value           nonuniform List<scalar> 
192
(
3.78982e-06
2.28893e-06
2.2352e-06
2.33361e-06
2.40531e-06
2.37572e-06
2.0153e-06
1.12247e-06
2.72115e-06
2.03935e-06
1.98978e-06
2.03324e-06
2.0967e-06
2.14492e-06
2.05113e-06
2.01776e-06
2.33798e-06
1.96561e-06
1.94852e-06
1.9927e-06
2.06611e-06
2.14797e-06
2.14682e-06
2.38448e-06
2.10823e-06
1.84646e-06
1.84533e-06
1.89137e-06
1.97037e-06
2.06648e-06
2.10193e-06
2.43221e-06
1.96859e-06
1.73924e-06
1.74809e-06
1.79951e-06
1.8856e-06
1.99143e-06
2.04569e-06
2.40341e-06
1.8872e-06
1.66627e-06
1.68089e-06
1.73817e-06
1.8309e-06
1.94391e-06
2.00965e-06
2.37501e-06
1.84251e-06
1.62357e-06
1.64129e-06
1.70286e-06
1.80025e-06
1.91796e-06
1.99067e-06
2.35873e-06
1.82267e-06
1.60417e-06
1.62328e-06
1.68702e-06
1.78672e-06
1.90673e-06
1.98275e-06
2.35199e-06
3.81737e-06
2.31409e-06
2.26253e-06
2.36417e-06
2.43743e-06
2.40513e-06
2.03621e-06
1.12222e-06
3.12412e-06
2.22004e-06
2.09448e-06
2.11087e-06
2.15365e-06
2.16061e-06
2.00802e-06
1.91526e-06
3.06194e-06
2.17337e-06
2.04822e-06
2.06368e-06
2.10571e-06
2.11235e-06
1.96331e-06
1.88622e-06
3.61122e-06
2.17058e-06
2.11682e-06
2.21354e-06
2.28385e-06
2.2515e-06
1.89894e-06
1.09983e-06
3.50807e-06
2.0497e-06
1.99126e-06
2.08322e-06
2.14926e-06
2.11463e-06
1.75408e-06
8.91737e-07
2.4173e-06
1.76246e-06
1.71072e-06
1.74819e-06
1.80513e-06
1.8471e-06
1.7514e-06
1.75415e-06
2.03882e-06
1.69023e-06
1.67034e-06
1.70852e-06
1.77498e-06
1.84933e-06
1.84572e-06
2.11806e-06
1.81696e-06
1.57966e-06
1.57438e-06
1.61347e-06
1.68469e-06
1.77189e-06
1.80318e-06
2.16709e-06
1.6821e-06
1.47751e-06
1.48164e-06
1.52557e-06
1.60349e-06
1.69965e-06
1.74879e-06
2.13916e-06
1.60315e-06
1.40669e-06
1.41636e-06
1.466e-06
1.55049e-06
1.65356e-06
1.71392e-06
2.11109e-06
1.55959e-06
1.36474e-06
1.3774e-06
1.43135e-06
1.52052e-06
1.62826e-06
1.69565e-06
2.09493e-06
1.54018e-06
1.34554e-06
1.35954e-06
1.4157e-06
1.50722e-06
1.61727e-06
1.68805e-06
2.08822e-06
1.12707e-06
2.04107e-06
2.4158e-06
2.46688e-06
2.43841e-06
2.40919e-06
2.39217e-06
2.38505e-06
1.91854e-06
2.01527e-06
2.17455e-06
2.18048e-06
2.15293e-06
2.12873e-06
2.11322e-06
2.10588e-06
1.88902e-06
1.96956e-06
2.1248e-06
2.13035e-06
2.10255e-06
2.07804e-06
2.06231e-06
2.05485e-06
1.10243e-06
1.901e-06
2.25753e-06
2.30592e-06
2.27638e-06
2.24624e-06
2.22852e-06
2.22104e-06
)
;
    }
    symmetry
    {
        type            symmetry;
    }
    bottom
    {
        type            calculated;
        value           nonuniform List<scalar> 
32
(
4.44885e-06
2.3307e-06
1.75288e-06
1.52614e-06
1.41344e-06
1.35253e-06
1.31988e-06
1.30544e-06
2.8174e-06
6.22987e-07
2.99473e-07
2.79959e-07
2.44339e-07
2.06819e-07
1.75476e-07
1.56563e-07
2.76569e-06
5.98678e-07
2.81516e-07
2.67948e-07
2.33567e-07
1.95644e-07
1.63031e-07
1.42832e-07
4.21924e-06
2.12987e-06
1.55309e-06
1.33037e-06
1.22053e-06
1.16106e-06
1.12897e-06
1.11469e-06
)
;
    }
}


// ************************************************************************* //
