/*--------------------------------*- C++ -*----------------------------------*\
| =========                 |                                                 |
| \\      /  F ield         | OpenFOAM: The Open Source CFD Toolbox           |
|  \\    /   O peration     | Version:  v1912                                 |
|   \\  /    A nd           | Website:  www.openfoam.com                      |
|    \\/     M anipulation  |                                                 |
\*---------------------------------------------------------------------------*/
FoamFile
{
    version     2.0;
    format      ascii;
    class       volVectorField;
    location    "0.97/solid";
    object      heatFlux;
}
// * * * * * * * * * * * * * * * * * * * * * * * * * * * * * * * * * * * * * //

dimensions      [1 0 -3 0 0 0 0];


internalField   nonuniform List<vector> 
256
(
(-62488.5 76958.6 -65479.2)
(-13440 47192.1 -64784.8)
(11535.5 46492.4 -63287.1)
(54228.4 73380.3 -61146.9)
(-58367.9 13157.5 -61824.8)
(-17026.3 8987.37 -64554.5)
(14652.8 8877.65 -63020.7)
(49738.4 12694.8 -57529.2)
(-59331.8 3335.89 -62950.9)
(-17719.8 2201.74 -66204.7)
(15242.9 2168.68 -64614.1)
(50534.1 3202.12 -58522.9)
(-61123.9 2926.64 -64776.1)
(-18193.5 1848.17 -68273.8)
(15653.2 1827.5 -66640.2)
(52148.3 2832.42 -60237.3)
(-63557.8 4826.81 -67204.7)
(-18818.9 3345.2 -71100.9)
(16227.1 3325.87 -69432.8)
(54405.4 4740.68 -62578.4)
(-66771 10844.4 -70423.5)
(-19694.4 9126.58 -75136.4)
(17048.6 9074.57 -73435.5)
(57441.2 10681 -65714.3)
(-69203.8 29930.5 -72950.6)
(-20588.7 30014.9 -79080.3)
(17781.5 29709.7 -77349.6)
(59639.2 29101 -68173.5)
(-62337.4 66416.8 -66277.7)
(-19915.2 73483.1 -73370.9)
(16134.8 71837.6 -71742.5)
(52281.6 61901.8 -61823)
(-60455 43249.9 -18753)
(-12367.2 14882.7 -16706.1)
(11219.7 14630.7 -16482.2)
(52659.4 40929.8 -18101.5)
(-60107.7 8230.51 -24516.3)
(-16252 3620.95 -22587.5)
(14827.5 3577.7 -22299.5)
(52053.6 7940.7 -23691.4)
(-61631.8 2078.14 -25574.6)
(-17020 819.547 -23704.1)
(15539.4 806.948 -23399.9)
(53417.3 1993.61 -24709.8)
(-63681.7 1817.34 -26169.5)
(-17523.2 627.189 -24325)
(16001.6 617.333 -24013.3)
(55284.5 1745.77 -25288.4)
(-66545.6 3303.5 -26927.2)
(-18220 1552.02 -25160.8)
(16658 1539.54 -24845.1)
(57953.6 3226.2 -26042.2)
(-70647.3 8963.57 -28024.6)
(-19287.1 6620.49 -26488.9)
(17675.7 6572.08 -26171.3)
(61844.8 8796.68 -27145.7)
(-74685.6 29465.3 -29408.7)
(-20611.5 28469 -28441.8)
(18834.2 28145.1 -28124.9)
(65606 28568 -28547.4)
(-69291.2 73153.7 -29861.2)
(-20607.4 79250.7 -29976.8)
(17774.7 77494.4 -29680.6)
(59660.7 68293.6 -29073.4)
(-54817.3 33689.3 -5296.32)
(-11169.1 7898.46 -3316.62)
(10140.1 7710.69 -3285.29)
(47305 31587.5 -5173.12)
(-55384.4 6335.9 -7411.54)
(-14809.5 1989.34 -4974.62)
(13548.9 1959.89 -4929.63)
(47646.2 6086.41 -7244.02)
(-56944.7 1682.71 -7776.56)
(-15545.1 464.252 -5276.59)
(14237.1 454.854 -5228.73)
(49045.4 1605.03 -7601.51)
(-58968.9 1574.04 -7914.88)
(-16037.4 391.508 -5395.29)
(14689.7 382.334 -5346.71)
(50881.3 1500.02 -7739.85)
(-61866.7 2971.65 -8068.04)
(-16736.8 1181.26 -5547.16)
(15345.6 1167.95 -5498.94)
(53565.6 2883.42 -7899)
(-66149.7 8362.89 -8318.02)
(-17841.1 5845.55 -5837.23)
(16391.9 5794.82 -5790.5)
(57599.3 8175.84 -8162.58)
(-70764.7 28093.9 -8915.56)
(-19304.9 26527.1 -6610.09)
(17675.9 26200.3 -6566.12)
(61881.1 27173.3 -8782.03)
(-66975.7 70730.7 -10762.8)
(-19734.6 75399.9 -9086.92)
(17038.2 73659.2 -9044.51)
(57497.5 65899.4 -10647.1)
(-50701.1 30542 -1947.83)
(-10356.1 6591.43 -651.282)
(9363.16 6415.78 -644.179)
(43379 28512.7 -1897.87)
(-51345.8 5750.27 -2660.53)
(-13770.1 1660.98 -999.089)
(12558.1 1634.25 -988.672)
(43810 5512.32 -2594.73)
(-52848.3 1574.8 -2774.7)
(-14472.2 398.877 -1060.11)
(13214.5 389.875 -1049.14)
(45152.4 1497.77 -2706.83)
(-54831 1525.86 -2806.79)
(-14955 356.623 -1078.16)
(13657 347.126 -1067.26)
(46941.9 1448.28 -2740.26)
(-57714.3 2900.36 -2835.71)
(-15650.9 1110.08 -1100.78)
(14306.2 1095.75 -1090.39)
(49597.1 2803.47 -2773.89)
(-62025.3 8116.05 -2904.61)
(-16759.6 5557.56 -1171.1)
(15350.4 5504.9 -1161.84)
(53631.2 7913.65 -2852.24)
(-66827.9 27020.5 -3225.2)
(-18262 25219.3 -1534.2)
(16662.2 24891.1 -1526.93)
(58056.7 26083.5 -3188.43)
(-63928.3 67667.2 -4689.25)
(-18889 71507.4 -3272.69)
(16214.5 69779.5 -3266.25)
(54523.8 62864.6 -4665.27)
(-48149.4 29081 -977.389)
(-9865.47 6248.09 -199.034)
(8893.46 6077.84 -195.5)
(40953.9 27094.9 -946.929)
(-48772.4 5509.03 -1298.83)
(-13137.6 1580.51 -297.075)
(11953.3 1554.93 -291.929)
(41369.8 5277.46 -1259.13)
(-50235.1 1536.44 -1345.34)
(-13819.6 385.175 -312.513)
(12590.4 376.267 -307.13)
(42673 1459.5 -1304.53)
(-52194.5 1513.02 -1355.27)
(-14297.8 350.838 -315.593)
(13027.6 341.081 -310.306)
(44435.6 1432.96 -1315.55)
(-55066.5 2873.84 -1363.65)
(-14991.5 1088.32 -320.058)
(13672.5 1073.36 -315.104)
(47069.4 2771.44 -1327.01)
(-59373.8 7973.4 -1397.83)
(-16098.3 5412.13 -348.326)
(14710.7 5358.27 -344.056)
(51081.6 7761.29 -1367.05)
(-64226.3 26309.2 -1598.38)
(-17606.6 24425.5 -549.883)
(16021.7 24095.9 -546.855)
(55529.3 25360.3 -1577.33)
(-61751.1 65491.8 -2563.93)
(-18311.6 68928.4 -1621.73)
(15645.6 67206 -1619.7)
(52392.7 60700.3 -2552.73)
(-46610.1 28265.8 -549.333)
(-9574.25 6095.32 -95.1086)
(8615.27 5928.35 -92.9899)
(39493.2 26306.6 -530.909)
(-47216.4 5382.31 -721.934)
(-12763.2 1547.5 -138.854)
(11596 1522.62 -135.753)
(39896.1 5154.71 -697.851)
(-48658.3 1518.37 -745.197)
(-13433.9 380.358 -145.118)
(12222.5 371.498 -141.874)
(41178.4 1441.36 -720.469)
(-50605.9 1507.55 -749.342)
(-13910 349.078 -145.987)
(12657 339.152 -142.809)
(42926.5 1425.8 -725.385)
(-53470.1 2857.8 -753.655)
(-14602.3 1077.35 -147.735)
(13299.2 1062 -144.759)
(45545.6 2751.97 -731.644)
(-57766.1 7881.32 -775.667)
(-15705.9 5327.73 -163.195)
(14331.7 5273.15 -160.618)
(49534.8 7663.33 -757.157)
(-62621.4 25854.4 -902.278)
(-17210.5 23945.9 -280.502)
(15634.8 23615.5 -278.658)
(53968.8 24897.8 -889.522)
(-60348.4 64084.5 -1502.58)
(-17944.8 67323.8 -919.959)
(15283.5 65603.9 -918.869)
(51015.8 59297.3 -1496.33)
(-45728.1 27809.7 -287.179)
(-9409.12 6014.13 -47.9886)
(8457.66 5849.09 -46.8475)
(38656.5 25866.1 -277.367)
(-46325.7 5313.17 -375.827)
(-12551.5 1530.5 -69.5457)
(11394.3 1506.05 -67.8653)
(39052.7 5087.9 -362.949)
(-47757.1 1509.03 -387.342)
(-13216.2 378.042 -72.5103)
(12015.1 369.211 -70.7493)
(40324.5 1431.96 -374.12)
(-49698.7 1504.56 -389.252)
(-13691.3 348.221 -72.8634)
(12448.2 338.196 -71.1387)
(42064.5 1421.78 -376.477)
(-52557.6 2847.51 -391.748)
(-14382.6 1071.12 -73.7563)
(13088.6 1055.55 -72.1406)
(44674.1 2739.67 -380.043)
(-56842.8 7824.78 -404.671)
(-15483.2 5279.36 -81.9855)
(14116.8 5224.38 -80.5804)
(48645.7 7603.42 -394.837)
(-61688.8 25582.3 -475.347)
(-16983 23668.7 -144.401)
(15412.7 23337.7 -143.383)
(53061.1 24621.1 -468.569)
(-59512.4 63240.7 -804.717)
(-17727.9 66382.8 -487.264)
(15069.2 64663.9 -486.692)
(50193.5 58455.1 -801.587)
(-45324.1 27602.8 -89.703)
(-9333.92 5977.79 -14.8602)
(8385.89 5813.64 -14.5005)
(38273.1 25666.3 -86.6315)
(-45918 5282.15 -117.203)
(-12455.2 1522.98 -21.4866)
(11302.6 1498.72 -20.9549)
(38666.6 5057.96 -113.161)
(-47344.9 1504.94 -120.722)
(-13117.3 377.04 -22.3853)
(11920.9 368.224 -21.8274)
(39933.8 1427.83 -116.57)
(-49283.9 1503.15 -121.297)
(-13591.9 347.832 -22.4885)
(12353.4 337.761 -21.942)
(41670.2 1419.88 -117.291)
(-52140 2842.38 -122.14)
(-14282.7 1068.22 -22.7745)
(12992.9 1052.56 -22.2627)
(44274.9 2733.61 -118.476)
(-56418.9 7797.72 -126.424)
(-15381.8 5257.09 -25.3812)
(14018.8 5201.91 -24.9357)
(48237.1 7574.81 -123.353)
(-61257.7 25454.4 -149.193)
(-16878.5 23540.7 -45.0517)
(15310.6 23209.3 -44.7276)
(52641.1 24491 -147.086)
(-59121 62843.6 -254.367)
(-17626.8 65944.8 -153.426)
(14969.2 64226.5 -153.248)
(49807.8 58058.6 -253.436)
)
;

boundaryField
{
    interface
    {
        type            calculated;
        value           nonuniform List<vector> 
192
(
(-98708.2 76958.6 -65479.2)
(-83471.4 13157.5 -61824.8)
(-84054.6 3335.89 -62950.9)
(-86715 2926.64 -64776.1)
(-90349.8 4826.81 -67204.7)
(-95046 10844.4 -70423.5)
(-98206.2 29930.5 -72950.6)
(-86347.8 66416.8 -66277.7)
(-96391.9 43249.9 -18753)
(-87999.1 8230.51 -24516.3)
(-89526.4 2078.14 -25574.6)
(-92629.8 1817.34 -26169.5)
(-96973.8 3303.5 -26927.2)
(-103058 8963.57 -28024.6)
(-108568 29465.3 -29408.7)
(-98353.4 73153.7 -29861.2)
(-87459.8 33689.3 -5296.32)
(-81361.9 6335.9 -7411.54)
(-83021.4 1682.71 -7776.56)
(-86094 1574.04 -7914.88)
(-90500.4 2971.65 -8068.04)
(-96874.8 8362.89 -8318.02)
(-103262 28093.9 -8915.56)
(-95393.2 70730.7 -10762.8)
(-80843.5 30542 -1947.83)
(-75349.2 5750.27 -2660.53)
(-76959.4 1574.8 -2774.7)
(-79967.7 1525.86 -2806.79)
(-84352.8 2900.36 -2835.71)
(-90775.6 8116.05 -2904.61)
(-97463.1 27020.5 -3225.2)
(-90979.5 67667.2 -4689.25)
(-76717 29081 -977.389)
(-71460.8 5509.03 -1298.83)
(-73031.5 1536.44 -1345.34)
(-76002.5 1513.02 -1355.27)
(-80369.8 2873.84 -1363.65)
(-86790 7973.4 -1397.83)
(-93567 26309.2 -1598.38)
(-87777.1 65491.8 -2563.93)
(-74218.1 28265.8 -549.333)
(-69093.8 5382.31 -721.934)
(-70645 1518.37 -745.197)
(-73596.9 1507.55 -749.342)
(-77951.7 2857.8 -753.655)
(-84356.3 7881.32 -775.667)
(-91147 25854.4 -902.278)
(-85703.9 64084.5 -1502.58)
(-72782.8 27809.7 -287.179)
(-67733.5 5313.17 -375.827)
(-69275.7 1509.03 -387.342)
(-72217.6 1504.56 -389.252)
(-76564 2847.51 -391.748)
(-82953 7824.78 -404.671)
(-89735.4 25582.3 -475.347)
(-84465 63240.7 -804.717)
(-72124.5 27602.8 -89.703)
(-67109.5 5282.15 -117.203)
(-68648 1504.94 -120.722)
(-71585.6 1503.15 -121.297)
(-75927.4 2842.38 -122.14)
(-82307.3 7797.72 -126.424)
(-89081.5 25454.4 -149.193)
(-83884 62843.6 -254.367)
(-62488.5 76958.6 -101400)
(-58367.9 13157.5 -85790)
(-59331.8 3335.89 -86490)
(-61123.9 2926.64 -89177.1)
(-63557.8 4826.81 -92779)
(-66771 10844.4 -97425.5)
(-69203.8 29930.5 -100509)
(-62337.4 66416.8 -88203.6)
(-13440 47192.1 -101762)
(-17026.3 8987.37 -92297.6)
(-17719.8 2201.74 -93869.1)
(-18193.5 1848.17 -96971.8)
(-18818.9 3345.2 -101220)
(-19694.4 9126.58 -107111)
(-20588.7 30014.9 -112166)
(-19915.2 73483.1 -100488)
(11535.5 46492.4 -99161.7)
(14652.8 8877.65 -89730.4)
(15242.9 2168.68 -91215.9)
(15653.2 1827.5 -94246)
(16227.1 3325.87 -98433)
(17048.6 9074.57 -104264)
(17781.5 29709.7 -109262)
(16134.8 71837.6 -97748.9)
(54228.4 73380.3 -93854.8)
(49738.4 12694.8 -78596.3)
(50534.1 3202.12 -79098.8)
(52148.3 2832.42 -81595.6)
(54405.4 4740.68 -85036.3)
(57441.2 10681 -89520.6)
(59639.2 29101 -92458)
(52281.6 61901.8 -80671.9)
(84774.7 73380.3 -61146.9)
(69383.1 12694.8 -57529.2)
(69751.8 3202.12 -58522.9)
(72136 2832.42 -60237.3)
(75484.5 4740.68 -62578.4)
(79892.3 10681 -65714.3)
(82739.3 29101 -68173.5)
(70790.2 61901.8 -61823)
(82663.2 40929.8 -18101.5)
(74164.5 7940.7 -23691.4)
(75452.9 1993.61 -24709.8)
(78253 1745.77 -25288.4)
(82268.7 3226.2 -26042.2)
(88000.2 8796.68 -27145.7)
(93124.3 28568 -28547.4)
(82786.4 68293.6 -29073.4)
(74166.5 31587.5 -5173.12)
(67982.3 6086.41 -7244.02)
(69394.3 1605.03 -7601.51)
(72152.2 1500.02 -7739.85)
(76199.2 2883.42 -7899)
(82157.3 8175.84 -8162.58)
(88068.2 27173.3 -8782.03)
(80007.6 65899.4 -10647.1)
(67878.1 28512.7 -1897.87)
(62306.1 5512.32 -2594.73)
(63668.7 1497.77 -2706.83)
(66354.2 1448.28 -2740.26)
(70355.9 2803.47 -2773.89)
(76317.4 7913.65 -2852.24)
(82457.6 26083.5 -3188.43)
(75717.7 62864.6 -4665.27)
(63971.7 27094.9 -946.929)
(58641.7 5277.46 -1259.13)
(59964.8 1459.5 -1304.53)
(62606.9 1432.96 -1315.55)
(66573.9 2771.44 -1327.01)
(72502.7 7761.29 -1367.05)
(78687.6 25360.3 -1577.33)
(72596 60700.3 -2552.73)
(61609.3 26306.6 -530.909)
(56412.7 5154.71 -697.851)
(57715.6 1441.36 -720.469)
(60333.7 1425.8 -725.385)
(64276.7 2751.97 -731.644)
(70170.5 7663.33 -757.157)
(76342.6 24897.8 -889.522)
(70567.8 59297.3 -1496.33)
(60252.6 25866.1 -277.367)
(55131.7 5087.9 -362.949)
(56425 1431.96 -374.12)
(59029.8 1421.78 -376.477)
(62957 2739.67 -380.043)
(68823.9 7603.42 -394.837)
(74972.9 24621.1 -468.569)
(69352.6 58455.1 -801.587)
(59630.1 25666.3 -86.6315)
(54543.9 5057.96 -113.161)
(55833.1 1427.83 -116.57)
(58431.8 1419.88 -117.291)
(62351.1 2733.61 -118.476)
(68203.6 7574.81 -123.353)
(74337.6 24491 -147.086)
(68781.5 58058.6 -253.436)
(-62337.4 88409.9 -66277.7)
(-69291.2 100843 -29861.2)
(-66975.7 97942.9 -10762.8)
(-63928.3 93565 -4689.25)
(-61751.1 90393.1 -2563.93)
(-60348.4 88330.6 -1502.58)
(-59512.4 87091.5 -804.717)
(-59121 86507.7 -254.367)
(-19915.2 100668 -73370.9)
(-20607.4 112463 -29976.8)
(-19734.6 107572 -9086.92)
(-18889 101930 -3272.69)
(-18311.6 98105.6 -1621.73)
(-17944.8 95706.5 -919.959)
(-17727.9 94293.4 -487.264)
(-17626.8 93634.2 -153.426)
(16134.8 97904.6 -71742.5)
(17774.7 109517 -29680.6)
(17038.2 104659 -9044.51)
(16214.5 99043.7 -3266.25)
(15645.6 95231.4 -1619.7)
(15283.5 92838.1 -918.869)
(15069.2 91427.8 -486.692)
(14969.2 90769.8 -153.248)
(52281.6 80798.9 -61823)
(59660.7 92667.7 -29073.4)
(57497.5 89846.2 -10647.1)
(54523.8 85539.9 -4665.27)
(52392.7 82401.8 -2552.73)
(51015.8 80356 -1496.33)
(50193.5 79125 -801.587)
(49807.8 78544.7 -253.436)
)
;
    }
    symmetry
    {
        type            symmetry;
    }
    bottom
    {
        type            calculated;
        value           nonuniform List<vector> 
32
(
(-62488.5 131823 -65479.2)
(-60455 72706.9 -18753)
(-54817.3 56810.8 -5296.32)
(-50701.1 51521.6 -1947.83)
(-48149.4 49019.5 -977.389)
(-46610.1 47612.1 -549.333)
(-45728.1 46822.2 -287.179)
(-45324.1 46463.4 -89.703)
(-13440 79285.5 -64784.8)
(-12367.2 23670.8 -16706.1)
(-11169.1 12461.2 -3316.62)
(-10356.1 10404.3 -651.282)
(-9865.47 9856.05 -199.034)
(-9574.25 9608.13 -95.1086)
(-9409.12 9475.62 -47.9886)
(-9333.92 9416.18 -14.8602)
(11535.5 78063.1 -63287.1)
(11219.7 23238.2 -16482.2)
(10140.1 12134.3 -3285.29)
(9363.16 10097.1 -644.179)
(8893.46 9557.63 -195.5)
(8615.27 9315.06 -92.9899)
(8457.66 9185.67 -46.8475)
(8385.89 9127.67 -14.5005)
(54228.4 125427 -61146.9)
(52659.4 68549.4 -18101.5)
(47305 53021.4 -5173.12)
(43379 47856.9 -1897.87)
(40953.9 45429.9 -946.929)
(39493.2 44069.2 -530.909)
(38656.5 43306.3 -277.367)
(38273.1 42959.7 -86.6315)
)
;
    }
}


// ************************************************************************* //
