/*--------------------------------*- C++ -*----------------------------------*\
| =========                 |                                                 |
| \\      /  F ield         | OpenFOAM: The Open Source CFD Toolbox           |
|  \\    /   O peration     | Version:  v1912                                 |
|   \\  /    A nd           | Website:  www.openfoam.com                      |
|    \\/     M anipulation  |                                                 |
\*---------------------------------------------------------------------------*/
FoamFile
{
    version     2.0;
    format      ascii;
    class       pointVectorField;
    location    "0.97/solid";
    object      pointDD;
}
// * * * * * * * * * * * * * * * * * * * * * * * * * * * * * * * * * * * * * //

dimensions      [0 1 0 0 0 0 0];


internalField   nonuniform List<vector> 
405
(
(1.32838e-10 2.33048e-10 1.55465e-10)
(5.39072e-11 1.76143e-10 1.25257e-10)
(-7.02765e-12 1.56734e-10 1.17933e-10)
(-6.23681e-11 1.62127e-10 1.06069e-10)
(-1.14303e-10 2.13094e-10 1.25324e-10)
(2.80659e-10 3.1227e-10 3.93001e-10)
(1.58609e-10 3.21281e-10 4.12159e-10)
(-2.33408e-11 2.8514e-10 3.94145e-10)
(-1.9159e-10 3.02618e-10 3.64617e-10)
(-2.6422e-10 2.96904e-10 3.31023e-10)
(3.82658e-10 1.84066e-10 6.73469e-10)
(2.19405e-10 2.09749e-10 6.93092e-10)
(-4.19179e-11 1.86376e-10 6.67305e-10)
(-2.86745e-10 2.09949e-10 6.30033e-10)
(-3.93821e-10 1.97905e-10 5.83887e-10)
(3.99496e-10 -2.07412e-12 8.95521e-10)
(2.21656e-10 3.85118e-11 9.11339e-10)
(-6.23752e-11 3.19317e-11 8.76649e-10)
(-3.295e-10 5.63067e-11 8.37227e-10)
(-4.47531e-10 3.92154e-11 7.87193e-10)
(3.91059e-10 -1.94579e-10 1.09325e-09)
(2.05024e-10 -1.50307e-10 1.10353e-09)
(-8.70889e-11 -1.47318e-10 1.06018e-09)
(-3.61998e-10 -1.17096e-10 1.02074e-09)
(-4.85207e-10 -1.28515e-10 9.70372e-10)
(3.95189e-10 -4.08645e-10 1.28915e-09)
(1.96516e-10 -3.67627e-10 1.29281e-09)
(-1.1687e-10 -3.58829e-10 1.2422e-09)
(-4.1265e-10 -3.19838e-10 1.20238e-09)
(-5.45595e-10 -3.18537e-10 1.15348e-09)
(4.3158e-10 -6.98228e-10 1.48909e-09)
(2.0933e-10 -6.59994e-10 1.48919e-09)
(-1.52452e-10 -6.41239e-10 1.43613e-09)
(-4.95831e-10 -5.9644e-10 1.39157e-09)
(-6.48919e-10 -5.8215e-10 1.34141e-09)
(4.78791e-10 -1.09084e-09 1.65779e-09)
(2.30271e-10 -1.05421e-09 1.66008e-09)
(-1.94608e-10 -1.02064e-09 1.61261e-09)
(-5.99235e-10 -9.69129e-10 1.55594e-09)
(-7.73767e-10 -9.40704e-10 1.49955e-09)
(4.87212e-10 -1.32947e-09 1.73084e-09)
(2.36946e-10 -1.31138e-09 1.72877e-09)
(-2.19123e-10 -1.26591e-09 1.69012e-09)
(-6.53807e-10 -1.20182e-09 1.63261e-09)
(-8.44581e-10 -1.15526e-09 1.57968e-09)
(9.40786e-11 1.19624e-10 7.3467e-11)
(0 0 0)
(0 0 0)
(0 0 0)
(-6.22915e-11 1.11432e-10 6.12408e-11)
(2.6137e-10 1.88337e-10 2.76187e-10)
(0 0 0)
(0 0 0)
(0 0 0)
(-2.03481e-10 1.86086e-10 2.35144e-10)
(3.53569e-10 4.80081e-11 5.1541e-10)
(0 0 0)
(0 0 0)
(0 0 0)
(-3.13242e-10 7.42707e-11 4.46604e-10)
(3.69467e-10 -1.31801e-10 7.21832e-10)
(0 0 0)
(0 0 0)
(0 0 0)
(-3.58151e-10 -7.78446e-11 6.33512e-10)
(3.62791e-10 -3.12674e-10 9.10185e-10)
(0 0 0)
(0 0 0)
(0 0 0)
(-3.91068e-10 -2.32448e-10 8.06477e-10)
(3.69993e-10 -5.07853e-10 1.0955e-09)
(0 0 0)
(0 0 0)
(0 0 0)
(-4.48683e-10 -4.01442e-10 9.78263e-10)
(4.1511e-10 -7.65768e-10 1.27931e-09)
(0 0 0)
(0 0 0)
(0 0 0)
(-5.54929e-10 -6.31401e-10 1.14965e-09)
(4.77624e-10 -1.12198e-09 1.4305e-09)
(0 0 0)
(0 0 0)
(0 0 0)
(-6.8876e-10 -9.52742e-10 1.29075e-09)
(4.72868e-10 -1.34768e-09 1.50306e-09)
(2.22225e-10 -1.34484e-09 1.50592e-09)
(-2.02434e-10 -1.28993e-09 1.47887e-09)
(-6.06973e-10 -1.22599e-09 1.43348e-09)
(-7.79822e-10 -1.16351e-09 1.37683e-09)
(6.24369e-11 6.15964e-11 2.97255e-11)
(0 0 0)
(0 0 0)
(0 0 0)
(-2.87727e-11 5.26161e-11 2.32e-11)
(1.7994e-10 5.95668e-11 1.44085e-10)
(0 0 0)
(0 0 0)
(0 0 0)
(-1.12533e-10 5.51691e-11 1.19467e-10)
(2.48707e-10 -8.91948e-11 3.20092e-10)
(0 0 0)
(0 0 0)
(0 0 0)
(-1.88354e-10 -6.6347e-11 2.7473e-10)
(2.58306e-10 -2.57273e-10 4.98686e-10)
(0 0 0)
(0 0 0)
(0 0 0)
(-2.18251e-10 -2.07782e-10 4.36749e-10)
(2.5114e-10 -4.20262e-10 6.68168e-10)
(0 0 0)
(0 0 0)
(0 0 0)
(-2.43276e-10 -3.45024e-10 5.92439e-10)
(2.62095e-10 -5.87048e-10 8.27886e-10)
(0 0 0)
(0 0 0)
(0 0 0)
(-2.98099e-10 -4.86059e-10 7.40009e-10)
(3.19791e-10 -7.99703e-10 9.71287e-10)
(0 0 0)
(0 0 0)
(0 0 0)
(-4.1084e-10 -6.71657e-10 8.72799e-10)
(4.06891e-10 -1.10609e-09 1.07309e-09)
(0 0 0)
(0 0 0)
(0 0 0)
(-5.63139e-10 -9.44798e-10 9.67139e-10)
(4.16799e-10 -1.31492e-09 1.11039e-09)
(1.91617e-10 -1.30996e-09 1.11211e-09)
(-1.69575e-10 -1.24856e-09 1.09938e-09)
(-5.12085e-10 -1.19578e-09 1.06008e-09)
(-6.63315e-10 -1.13861e-09 1.01709e-09)
(3.85359e-11 3.15962e-11 1.66427e-11)
(0 0 0)
(0 0 0)
(0 0 0)
(-3.52027e-12 2.00542e-11 1.2292e-11)
(1.16439e-10 -6.12338e-12 9.31797e-11)
(0 0 0)
(0 0 0)
(0 0 0)
(-4.25892e-11 -1.65813e-11 7.65798e-11)
(1.66048e-10 -1.60469e-10 2.26755e-10)
(0 0 0)
(0 0 0)
(0 0 0)
(-9.17522e-11 -1.45055e-10 1.95299e-10)
(1.73039e-10 -3.24219e-10 3.75409e-10)
(0 0 0)
(0 0 0)
(0 0 0)
(-1.11797e-10 -2.82755e-10 3.30864e-10)
(1.6883e-10 -4.73526e-10 5.20527e-10)
(0 0 0)
(0 0 0)
(0 0 0)
(-1.33142e-10 -4.06522e-10 4.64358e-10)
(1.85309e-10 -6.15159e-10 6.51484e-10)
(0 0 0)
(0 0 0)
(0 0 0)
(-1.87491e-10 -5.22558e-10 5.84934e-10)
(2.5183e-10 -7.91347e-10 7.55874e-10)
(0 0 0)
(0 0 0)
(0 0 0)
(-3.03584e-10 -6.72033e-10 6.80556e-10)
(3.51712e-10 -1.05853e-09 8.13986e-10)
(0 0 0)
(0 0 0)
(0 0 0)
(-4.63534e-10 -9.06464e-10 7.33044e-10)
(3.69459e-10 -1.25271e-09 8.22708e-10)
(1.67038e-10 -1.25136e-09 8.22047e-10)
(-1.44039e-10 -1.19095e-09 8.17537e-10)
(-4.36728e-10 -1.14189e-09 7.83309e-10)
(-5.67268e-10 -1.08467e-09 7.52288e-10)
(2.64857e-11 1.7976e-11 1.50735e-11)
(0 0 0)
(0 0 0)
(0 0 0)
(9.52365e-12 4.33658e-12 1.20307e-11)
(8.48982e-11 -3.38613e-11 7.71119e-11)
(0 0 0)
(0 0 0)
(0 0 0)
(-6.65331e-12 -4.97739e-11 6.56151e-11)
(1.26353e-10 -1.88231e-10 1.81726e-10)
(0 0 0)
(0 0 0)
(0 0 0)
(-4.25529e-11 -1.80142e-10 1.59819e-10)
(1.34727e-10 -3.48793e-10 2.99321e-10)
(0 0 0)
(0 0 0)
(0 0 0)
(-5.85233e-11 -3.15483e-10 2.67713e-10)
(1.35465e-10 -4.88993e-10 4.14871e-10)
(0 0 0)
(0 0 0)
(0 0 0)
(-7.94307e-11 -4.30399e-10 3.74171e-10)
(1.57708e-10 -6.14553e-10 5.1573e-10)
(0 0 0)
(0 0 0)
(0 0 0)
(-1.34482e-10 -5.30378e-10 4.66722e-10)
(2.29473e-10 -7.69609e-10 5.88913e-10)
(0 0 0)
(0 0 0)
(0 0 0)
(-2.5115e-10 -6.58651e-10 5.32943e-10)
(3.33391e-10 -1.01494e-09 6.21277e-10)
(0 0 0)
(0 0 0)
(0 0 0)
(-4.1083e-10 -8.71069e-10 5.60988e-10)
(3.52815e-10 -1.20137e-09 6.17023e-10)
(1.6193e-10 -1.20628e-09 6.11985e-10)
(-1.24699e-10 -1.15047e-09 6.08533e-10)
(-3.92823e-10 -1.10077e-09 5.8342e-10)
(-5.1294e-10 -1.04034e-09 5.64779e-10)
(2.15068e-11 1.29314e-11 1.35301e-11)
(0 0 0)
(0 0 0)
(0 0 0)
(1.51573e-11 -2.12282e-12 1.14739e-11)
(7.24092e-11 -4.2596e-11 6.31003e-11)
(0 0 0)
(0 0 0)
(0 0 0)
(8.66158e-12 -6.24488e-11 5.53743e-11)
(1.12082e-10 -1.9406e-10 1.41602e-10)
(0 0 0)
(0 0 0)
(0 0 0)
(-2.21095e-11 -1.91683e-10 1.26853e-10)
(1.23443e-10 -3.50856e-10 2.28082e-10)
(0 0 0)
(0 0 0)
(0 0 0)
(-3.72271e-11 -3.24216e-10 2.06578e-10)
(1.28954e-10 -4.85153e-10 3.12492e-10)
(0 0 0)
(0 0 0)
(0 0 0)
(-5.88739e-11 -4.33594e-10 2.84418e-10)
(1.55756e-10 -6.02325e-10 3.84443e-10)
(0 0 0)
(0 0 0)
(0 0 0)
(-1.14537e-10 -5.25197e-10 3.50223e-10)
(2.30305e-10 -7.47743e-10 4.33714e-10)
(0 0 0)
(0 0 0)
(0 0 0)
(-2.30284e-10 -6.43625e-10 3.94308e-10)
(3.34766e-10 -9.83136e-10 4.52516e-10)
(0 0 0)
(0 0 0)
(0 0 0)
(-3.87053e-10 -8.45754e-10 4.09903e-10)
(3.54348e-10 -1.16558e-09 4.45405e-10)
(1.68212e-10 -1.1749e-09 4.37985e-10)
(-1.10576e-10 -1.12327e-09 4.33769e-10)
(-3.70691e-10 -1.07242e-09 4.17867e-10)
(-4.86771e-10 -1.00996e-09 4.08506e-10)
(1.97164e-11 1.14487e-11 1.00674e-11)
(0 0 0)
(0 0 0)
(0 0 0)
(1.7346e-11 -4.48734e-12 8.8015e-12)
(6.8325e-11 -4.38444e-11 4.46499e-11)
(0 0 0)
(0 0 0)
(0 0 0)
(1.44617e-11 -6.6254e-11 3.98993e-11)
(1.08536e-10 -1.91701e-10 9.70289e-11)
(0 0 0)
(0 0 0)
(0 0 0)
(-1.47628e-11 -1.93216e-10 8.79415e-11)
(1.22683e-10 -3.44801e-10 1.53467e-10)
(0 0 0)
(0 0 0)
(0 0 0)
(-3.0156e-11 -3.22878e-10 1.40133e-10)
(1.31731e-10 -4.75346e-10 2.07995e-10)
(0 0 0)
(0 0 0)
(0 0 0)
(-5.25844e-11 -4.28876e-10 1.90432e-10)
(1.61583e-10 -5.8873e-10 2.53767e-10)
(0 0 0)
(0 0 0)
(0 0 0)
(-1.08505e-10 -5.16734e-10 2.32176e-10)
(2.37591e-10 -7.30605e-10 2.84207e-10)
(0 0 0)
(0 0 0)
(0 0 0)
(-2.23041e-10 -6.31435e-10 2.59182e-10)
(3.41717e-10 -9.61969e-10 2.95045e-10)
(0 0 0)
(0 0 0)
(0 0 0)
(-3.7697e-10 -8.29211e-10 2.67885e-10)
(3.61089e-10 -1.14239e-09 2.89318e-10)
(1.76593e-10 -1.15422e-09 2.82705e-10)
(-1.00979e-10 -1.10531e-09 2.78855e-10)
(-3.5975e-10 -1.05386e-09 2.69896e-10)
(-4.74661e-10 -9.90581e-10 2.65794e-10)
(1.91457e-11 1.11489e-11 5.31243e-12)
(0 0 0)
(0 0 0)
(0 0 0)
(1.81306e-11 -5.26778e-12 4.71062e-12)
(6.72179e-11 -4.31393e-11 2.30112e-11)
(0 0 0)
(0 0 0)
(0 0 0)
(1.64891e-11 -6.69736e-11 2.07521e-11)
(1.08204e-10 -1.88254e-10 4.9173e-11)
(0 0 0)
(0 0 0)
(0 0 0)
(-1.23729e-11 -1.91997e-10 4.4844e-11)
(1.24138e-10 -3.38724e-10 7.69466e-11)
(0 0 0)
(0 0 0)
(0 0 0)
(-2.814e-11 -3.19564e-10 7.05709e-11)
(1.35258e-10 -4.67151e-10 1.0357e-10)
(0 0 0)
(0 0 0)
(0 0 0)
(-5.10421e-11 -4.23711e-10 9.51301e-11)
(1.66811e-10 -5.79031e-10 1.25733e-10)
(0 0 0)
(0 0 0)
(0 0 0)
(-1.07008e-10 -5.10114e-10 1.15304e-10)
(2.4355e-10 -7.19879e-10 1.40293e-10)
(0 0 0)
(0 0 0)
(0 0 0)
(-2.20665e-10 -6.23677e-10 1.28157e-10)
(3.47355e-10 -9.49758e-10 1.45346e-10)
(0 0 0)
(0 0 0)
(0 0 0)
(-3.72768e-10 -8.19758e-10 1.32141e-10)
(3.665e-10 -1.12927e-09 1.42332e-10)
(1.82482e-10 -1.14233e-09 1.38608e-10)
(-9.54219e-11 -1.09484e-09 1.36382e-10)
(-3.54443e-10 -1.04321e-09 1.32382e-10)
(-4.69152e-10 -9.79711e-10 1.30891e-10)
(2.31534e-11 5.74551e-12 0)
(9.24612e-12 -8.72511e-12 0)
(6.49454e-13 -1.56328e-11 0)
(-3.38447e-12 -1.38403e-11 0)
(8.69275e-12 -1.12043e-11 0)
(6.07623e-11 -5.3621e-11 0)
(3.34141e-11 -7.77545e-11 0)
(4.59551e-12 -9.19917e-11 0)
(-1.33907e-11 -8.54159e-11 0)
(-3.33531e-12 -7.24155e-11 0)
(9.77855e-11 -1.92395e-10 0)
(5.48146e-11 -2.09398e-10 0)
(9.60947e-12 -2.20412e-10 0)
(-2.3218e-11 -2.09548e-10 0)
(-2.75567e-11 -1.95195e-10 0)
(1.11966e-10 -3.38767e-10 0)
(6.19793e-11 -3.48943e-10 0)
(1.00448e-11 -3.53843e-10 0)
(-2.98381e-11 -3.3845e-10 0)
(-4.13167e-11 -3.22006e-10 0)
(1.21618e-10 -4.68393e-10 0)
(6.45296e-11 -4.80488e-10 0)
(4.10431e-12 -4.82537e-10 0)
(-4.44052e-11 -4.58204e-10 0)
(-6.26741e-11 -4.30632e-10 0)
(1.51128e-10 -5.87237e-10 0)
(7.8261e-11 -6.08681e-10 0)
(-8.79566e-12 -6.09628e-10 0)
(-8.36633e-11 -5.739e-10 0)
(-1.16744e-10 -5.27348e-10 0)
(2.22784e-10 -7.35559e-10 0)
(1.16371e-10 -7.61651e-10 0)
(-2.9203e-11 -7.56187e-10 0)
(-1.61571e-10 -7.1319e-10 0)
(-2.25981e-10 -6.51724e-10 0)
(3.18749e-10 -9.62791e-10 0)
(1.66654e-10 -9.73899e-10 0)
(-5.78209e-11 -9.51305e-10 0)
(-2.666e-10 -9.07374e-10 0)
(-3.71972e-10 -8.48382e-10 0)
(3.56152e-10 -1.12093e-09 0)
(1.87604e-10 -1.11823e-09 0)
(-8.39382e-11 -1.07769e-09 0)
(-3.37319e-10 -1.03022e-09 0)
(-4.6011e-10 -9.83029e-10 0)
)
;

boundaryField
{
    interface
    {
        type            calculated;
    }
    symmetry
    {
        type            symmetry;
    }
    bottom
    {
        type            calculated;
    }
}


// ************************************************************************* //
