/*--------------------------------*- C++ -*----------------------------------*\
| =========                 |                                                 |
| \\      /  F ield         | OpenFOAM: The Open Source CFD Toolbox           |
|  \\    /   O peration     | Version:  v1912                                 |
|   \\  /    A nd           | Website:  www.openfoam.com                      |
|    \\/     M anipulation  |                                                 |
\*---------------------------------------------------------------------------*/
FoamFile
{
    version     2.0;
    format      ascii;
    class       pointVectorField;
    location    "0.97/solid";
    object      pointD;
}
// * * * * * * * * * * * * * * * * * * * * * * * * * * * * * * * * * * * * * //

dimensions      [0 1 0 0 0 0 0];


internalField   nonuniform List<vector> 
405
(
(4.14041e-08 4.54653e-08 4.30857e-08)
(9.13105e-09 3.05405e-08 4.57661e-08)
(-1.19063e-10 2.5448e-08 4.30608e-08)
(-9.0235e-09 2.97634e-08 4.4452e-08)
(-3.88853e-08 4.37358e-08 4.14898e-08)
(7.21316e-08 5.67437e-08 8.10793e-08)
(2.54197e-08 5.2217e-08 1.0724e-07)
(-1.19798e-10 4.39995e-08 1.0159e-07)
(-2.48408e-08 5.07785e-08 1.04504e-07)
(-6.78154e-08 5.43613e-08 7.84493e-08)
(8.42159e-08 3.32482e-08 1.08304e-07)
(3.38395e-08 3.32411e-08 1.33766e-07)
(1.90753e-10 2.87464e-08 1.27502e-07)
(-3.2511e-08 3.20373e-08 1.30831e-07)
(-7.89313e-08 3.12717e-08 1.05308e-07)
(8.63566e-08 1.17349e-08 1.2795e-07)
(3.47704e-08 1.40829e-08 1.53624e-07)
(5.59732e-10 1.19062e-08 1.46638e-07)
(-3.2702e-08 1.30821e-08 1.50527e-07)
(-8.02445e-08 1.00881e-08 1.24731e-07)
(8.72873e-08 -6.19686e-09 1.45639e-07)
(3.45461e-08 -3.86889e-09 1.71745e-07)
(8.83679e-10 -5.64866e-09 1.64111e-07)
(-3.18225e-08 -4.71538e-09 1.68511e-07)
(-8.04302e-08 -7.58585e-09 1.42233e-07)
(9.13551e-08 -2.38441e-08 1.64346e-07)
(3.63207e-08 -2.26972e-08 1.91155e-07)
(1.14123e-09 -2.49447e-08 1.8299e-07)
(-3.30685e-08 -2.34025e-08 1.87784e-07)
(-8.38763e-08 -2.49794e-08 1.60743e-07)
(1.01602e-07 -4.76422e-08 1.85829e-07)
(4.21204e-08 -4.73897e-08 2.14027e-07)
(1.30505e-09 -4.94647e-08 2.05747e-07)
(-3.85211e-08 -4.79129e-08 2.10506e-07)
(-9.36758e-08 -4.84479e-08 1.82005e-07)
(1.18724e-07 -9.66721e-08 2.09252e-07)
(5.16945e-08 -9.52822e-08 2.41065e-07)
(1.31079e-09 -9.48611e-08 2.33929e-07)
(-4.80254e-08 -9.52601e-08 2.37419e-07)
(-1.10568e-07 -9.66183e-08 2.05222e-07)
(1.16684e-07 -1.5774e-07 2.09721e-07)
(5.72566e-08 -1.67259e-07 2.20002e-07)
(1.38839e-09 -1.63223e-07 2.15485e-07)
(-5.33877e-08 -1.65675e-07 2.17422e-07)
(-1.09473e-07 -1.55926e-07 2.06246e-07)
(4.07009e-08 2.50099e-08 9.33526e-09)
(0 0 0)
(0 0 0)
(0 0 0)
(-3.73756e-08 2.37359e-08 9.08812e-09)
(8.91481e-08 3.94691e-08 3.21779e-08)
(2.13942e-08 2.09849e-08 3.65739e-08)
(1.39487e-10 1.40144e-08 3.6203e-08)
(-2.03747e-08 1.99178e-08 3.6169e-08)
(-8.18937e-08 3.70845e-08 3.14564e-08)
(9.87691e-08 1.83354e-08 5.56001e-08)
(2.84934e-08 1.17125e-08 6.14537e-08)
(5.55689e-10 7.73315e-09 6.11026e-08)
(-2.65341e-08 1.06611e-08 6.08732e-08)
(-9.04165e-08 1.62687e-08 5.4544e-08)
(1.01007e-07 -7.87258e-10 7.37233e-08)
(2.9239e-08 -2.65555e-09 7.97676e-08)
(9.80195e-10 -4.55094e-09 7.93147e-08)
(-2.64335e-08 -3.5834e-09 7.90985e-08)
(-9.16997e-08 -2.57355e-09 7.24824e-08)
(1.0267e-07 -1.7073e-08 8.98306e-08)
(2.91056e-08 -1.91086e-08 9.57175e-08)
(1.34928e-09 -2.06698e-08 9.50455e-08)
(-2.55551e-08 -1.9901e-08 9.49735e-08)
(-9.24872e-08 -1.86026e-08 8.84307e-08)
(1.07892e-07 -3.295e-08 1.06212e-07)
(3.10173e-08 -3.78179e-08 1.11867e-07)
(1.65314e-09 -3.99376e-08 1.10943e-07)
(-2.68441e-08 -3.84708e-08 1.11037e-07)
(-9.69497e-08 -3.42006e-08 1.04635e-07)
(1.20078e-07 -5.35182e-08 1.23834e-07)
(3.69907e-08 -6.14632e-08 1.29259e-07)
(1.86794e-09 -6.35927e-08 1.28192e-07)
(-3.23654e-08 -6.19396e-08 1.28328e-07)
(-1.08536e-07 -5.44049e-08 1.22053e-07)
(1.41156e-07 -9.68568e-08 1.40298e-07)
(4.67347e-08 -1.02617e-07 1.4561e-07)
(1.92752e-09 -1.02168e-07 1.4469e-07)
(-4.19277e-08 -1.02589e-07 1.44581e-07)
(-1.29204e-07 -9.68643e-08 1.38316e-07)
(1.19108e-07 -1.65942e-07 1.4979e-07)
(5.21796e-08 -1.98161e-07 1.51326e-07)
(1.80105e-09 -1.91501e-07 1.50433e-07)
(-4.75277e-08 -1.9548e-07 1.50287e-07)
(-1.10204e-07 -1.63627e-07 1.47975e-07)
(3.22718e-08 1.41436e-08 1.48402e-09)
(0 0 0)
(0 0 0)
(0 0 0)
(-2.89884e-08 1.29917e-08 1.4593e-09)
(7.02345e-08 1.91389e-08 1.13578e-08)
(1.43255e-08 5.44562e-09 1.72746e-08)
(2.50573e-10 -3.09522e-10 1.86325e-08)
(-1.31284e-08 4.55565e-09 1.71937e-08)
(-6.30238e-08 1.69421e-08 1.11995e-08)
(7.7112e-08 1.38352e-09 2.85375e-08)
(1.91623e-08 -3.62584e-09 3.63895e-08)
(7.41698e-10 -6.96614e-09 3.82889e-08)
(-1.68942e-08 -4.58199e-09 3.62064e-08)
(-6.87202e-08 -6.06176e-10 2.81837e-08)
(7.84123e-08 -1.4494e-08 4.51558e-08)
(1.94413e-08 -1.59447e-08 5.33936e-08)
(1.2224e-09 -1.76289e-08 5.54131e-08)
(-1.62231e-08 -1.68402e-08 5.3134e-08)
(-6.89794e-08 -1.62874e-08 4.46438e-08)
(7.96906e-08 -2.84381e-08 6.02268e-08)
(1.92157e-08 -3.03732e-08 6.84528e-08)
(1.63908e-09 -3.18971e-08 7.04236e-08)
(-1.51602e-08 -3.1167e-08 6.81259e-08)
(-6.92884e-08 -3.00223e-08 5.957e-08)
(8.48326e-08 -4.16435e-08 7.44801e-08)
(2.10996e-08 -4.65867e-08 8.25996e-08)
(1.98701e-09 -4.87484e-08 8.4464e-08)
(-1.63308e-08 -4.72627e-08 8.21987e-08)
(-7.35572e-08 -4.29829e-08 7.36667e-08)
(9.76022e-08 -5.76382e-08 8.76555e-08)
(2.72301e-08 -6.58696e-08 9.55765e-08)
(2.24501e-09 -6.80559e-08 9.7335e-08)
(-2.19153e-08 -6.63938e-08 9.50963e-08)
(-8.55918e-08 -5.86533e-08 8.66742e-08)
(1.20579e-07 -9.34416e-08 9.67609e-08)
(3.74252e-08 -9.93206e-08 1.04389e-07)
(2.3483e-09 -9.87226e-08 1.06086e-07)
(-3.18301e-08 -9.93763e-08 1.03852e-07)
(-1.08008e-07 -9.36288e-08 9.56402e-08)
(1.02461e-07 -1.55568e-07 1.00695e-07)
(4.30453e-08 -1.84215e-07 1.03447e-07)
(2.26993e-09 -1.76411e-07 1.05083e-07)
(-3.75033e-08 -1.81624e-07 1.02941e-07)
(-9.27868e-08 -1.53418e-07 9.9724e-08)
(2.71342e-08 9.80061e-09 1.02925e-09)
(0 0 0)
(0 0 0)
(0 0 0)
(-2.39299e-08 8.67384e-09 1.02654e-09)
(5.86517e-08 1.01761e-08 8.08372e-09)
(9.80473e-09 -3.81858e-10 1.19057e-08)
(2.81381e-10 -5.26709e-09 1.32122e-08)
(-8.56698e-09 -1.23454e-09 1.18673e-08)
(-5.15714e-08 8.00984e-09 8.02689e-09)
(6.39479e-08 -7.62061e-09 2.14474e-08)
(1.31268e-08 -1.15484e-08 2.65586e-08)
(8.07973e-10 -1.44079e-08 2.8382e-08)
(-1.07513e-08 -1.24855e-08 2.64581e-08)
(-5.56227e-08 -9.62327e-09 2.1277e-08)
(6.50018e-08 -2.26529e-08 3.58508e-08)
(1.3183e-08 -2.39186e-08 4.11587e-08)
(1.32867e-09 -2.54655e-08 4.31026e-08)
(-9.77951e-09 -2.48223e-08 4.09963e-08)
(-5.55596e-08 -2.45034e-08 3.5556e-08)
(6.63888e-08 -3.49186e-08 4.9335e-08)
(1.30355e-08 -3.69275e-08 5.4538e-08)
(1.78581e-09 -3.84679e-08 5.64557e-08)
(-8.71419e-09 -3.77539e-08 5.43151e-08)
(-5.58921e-08 -3.6597e-08 4.89133e-08)
(7.17794e-08 -4.54194e-08 6.13313e-08)
(1.50295e-08 -5.05181e-08 6.63778e-08)
(2.17283e-09 -5.27539e-08 6.82241e-08)
(-9.91415e-09 -5.12474e-08 6.60919e-08)
(-6.03099e-08 -4.68848e-08 6.0776e-08)
(8.50212e-08 -5.76226e-08 7.0872e-08)
(2.13071e-08 -6.60551e-08 7.57652e-08)
(2.46851e-09 -6.83438e-08 7.75303e-08)
(-1.55641e-08 -6.66519e-08 7.54191e-08)
(-7.2699e-08 -5.87937e-08 7.01841e-08)
(1.08634e-07 -8.88593e-08 7.57954e-08)
(3.16647e-08 -9.49714e-08 8.05981e-08)
(2.6094e-09 -9.4509e-08 8.23082e-08)
(-2.55575e-08 -9.51145e-08 8.02176e-08)
(-9.56227e-08 -8.92245e-08 7.50108e-08)
(9.24268e-08 -1.4719e-07 7.68718e-08)
(3.74619e-08 -1.74514e-07 7.88848e-08)
(2.57327e-09 -1.66799e-07 8.06976e-08)
(-3.13188e-08 -1.72028e-07 7.85391e-08)
(-8.2202e-08 -1.45209e-07 7.62007e-08)
(2.45019e-08 8.13797e-09 1.34127e-09)
(0 0 0)
(0 0 0)
(0 0 0)
(-2.136e-08 7.01927e-09 1.33957e-09)
(5.27577e-08 6.7068e-09 7.4417e-09)
(7.86324e-09 -2.38275e-09 9.2656e-09)
(2.88532e-10 -6.78282e-09 1.00457e-08)
(-6.62449e-09 -3.23589e-09 9.23923e-09)
(-4.57958e-08 4.53636e-09 7.41243e-09)
(5.73962e-08 -1.13699e-08 1.79701e-08)
(1.05587e-08 -1.4829e-08 2.038e-08)
(8.30052e-10 -1.74296e-08 2.14622e-08)
(-8.15365e-09 -1.5779e-08 2.03149e-08)
(-4.91617e-08 -1.34133e-08 1.78753e-08)
(5.85763e-08 -2.63276e-08 2.95122e-08)
(1.06382e-08 -2.76164e-08 3.19275e-08)
(1.37558e-09 -2.91104e-08 3.3063e-08)
(-7.15499e-09 -2.85468e-08 3.18179e-08)
(-4.91735e-08 -2.82489e-08 2.93309e-08)
(6.02911e-08 -3.7707e-08 4.04906e-08)
(1.0683e-08 -3.98774e-08 4.27405e-08)
(1.86311e-09 -4.14579e-08 4.38355e-08)
(-6.22062e-09 -4.07453e-08 4.25829e-08)
(-4.97672e-08 -3.94823e-08 4.02108e-08)
(6.60143e-08 -4.65312e-08 4.98923e-08)
(1.28508e-08 -5.17792e-08 5.19766e-08)
(2.28214e-09 -5.40843e-08 5.30086e-08)
(-7.52841e-09 -5.25638e-08 5.17693e-08)
(-5.44383e-08 -4.81161e-08 4.95074e-08)
(7.95113e-08 -5.66947e-08 5.66676e-08)
(1.92106e-08 -6.52262e-08 5.86663e-08)
(2.60955e-09 -6.76176e-08 5.96432e-08)
(-1.31932e-08 -6.58891e-08 5.84143e-08)
(-6.69906e-08 -5.80022e-08 5.61823e-08)
(1.03148e-07 -8.57735e-08 5.96165e-08)
(2.9529e-08 -9.2089e-08 6.16635e-08)
(2.78189e-09 -9.18471e-08 6.2627e-08)
(-2.3079e-08 -9.23026e-08 6.13891e-08)
(-8.98373e-08 -8.62816e-08 5.90618e-08)
(8.80306e-08 -1.41948e-07 5.9714e-08)
(3.54378e-08 -1.68633e-07 6.06131e-08)
(2.77919e-09 -1.61337e-07 6.17243e-08)
(-2.88815e-08 -1.66226e-07 6.03664e-08)
(-7.74238e-08 -1.40097e-07 5.92389e-08)
(2.32028e-08 7.49159e-09 1.31032e-09)
(0 0 0)
(0 0 0)
(0 0 0)
(-2.01025e-08 6.37922e-09 1.30879e-09)
(4.99486e-08 5.47406e-09 6.26322e-09)
(7.22229e-09 -3.05749e-09 7.00654e-09)
(2.89322e-10 -7.22699e-09 7.38069e-09)
(-5.99054e-09 -3.91537e-09 6.98873e-09)
(-4.30711e-08 3.29901e-09 6.24612e-09)
(5.44495e-08 -1.25677e-08 1.41381e-08)
(9.77646e-09 -1.59101e-08 1.50697e-08)
(8.36931e-10 -1.84049e-08 1.55764e-08)
(-7.36718e-09 -1.68773e-08 1.50279e-08)
(-4.62891e-08 -1.46469e-08 1.40831e-08)
(5.58676e-08 -2.74586e-08 2.26386e-08)
(9.98096e-09 -2.88571e-08 2.3492e-08)
(1.39691e-09 -3.0353e-08 2.40028e-08)
(-6.46418e-09 -2.98154e-08 2.34206e-08)
(-4.65078e-08 -2.94406e-08 2.25281e-08)
(5.79088e-08 -3.84282e-08 3.07338e-08)
(1.02178e-08 -4.07563e-08 3.1434e-08)
(1.90522e-09 -4.23827e-08 3.19007e-08)
(-5.67963e-09 -4.16616e-08 3.13286e-08)
(-4.73814e-08 -4.02838e-08 3.05547e-08)
(6.39002e-08 -4.65072e-08 3.7526e-08)
(1.25323e-08 -5.18591e-08 3.81e-08)
(2.34817e-09 -5.42169e-08 3.85176e-08)
(-7.08504e-09 -5.26893e-08 3.79588e-08)
(-5.22628e-08 -4.81874e-08 3.72715e-08)
(7.74972e-08 -5.58743e-08 4.21986e-08)
(1.89201e-08 -6.44349e-08 4.2738e-08)
(2.70033e-09 -6.68971e-08 4.31241e-08)
(-1.27257e-08 -6.51486e-08 4.25651e-08)
(-6.4848e-08 -5.72862e-08 4.18723e-08)
(1.00964e-07 -8.40388e-08 4.41435e-08)
(2.91428e-08 -9.04654e-08 4.47662e-08)
(2.89727e-09 -9.03892e-08 4.51597e-08)
(-2.24634e-08 -9.07307e-08 4.45781e-08)
(-8.74527e-08 -8.46524e-08 4.37684e-08)
(8.64757e-08 -1.38921e-07 4.4061e-08)
(3.50962e-08 -1.65199e-07 4.4287e-08)
(2.9195e-09 -1.58256e-07 4.47917e-08)
(-2.82586e-08 -1.62845e-07 4.41187e-08)
(-7.56089e-08 -1.37162e-07 4.37388e-08)
(2.25476e-08 7.23417e-09 9.89168e-10)
(0 0 0)
(0 0 0)
(0 0 0)
(-1.94728e-08 6.12656e-09 9.88127e-10)
(4.85949e-08 5.08193e-09 4.44587e-09)
(7.04549e-09 -3.2608e-09 4.72961e-09)
(2.88473e-10 -7.32929e-09 4.88816e-09)
(-5.82042e-09 -4.12197e-09 4.71881e-09)
(-4.17702e-08 2.90497e-09 4.43614e-09)
(5.31366e-08 -1.27657e-08 9.6799e-09)
(9.6194e-09 -1.61201e-08 9.99943e-09)
(8.38443e-10 -1.85826e-08 1.02043e-08)
(-7.21271e-09 -1.71e-08 9.9746e-09)
(-4.50254e-08 -1.48688e-08 9.64906e-09)
(5.47625e-08 -2.75179e-08 1.52214e-08)
(9.94579e-09 -2.90248e-08 1.54616e-08)
(1.40641e-09 -3.05413e-08 1.56532e-08)
(-6.41528e-09 -3.0004e-08 1.54189e-08)
(-4.5434e-08 -2.95423e-08 1.5158e-08)
(5.70387e-08 -3.83037e-08 2.04719e-08)
(1.03212e-08 -4.07455e-08 2.06065e-08)
(1.92772e-09 -4.24098e-08 2.07642e-08)
(-5.74283e-09 -4.16784e-08 2.05425e-08)
(-4.65131e-08 -4.02162e-08 2.03661e-08)
(6.32005e-08 -4.61478e-08 2.48349e-08)
(1.27302e-08 -5.15595e-08 2.48927e-08)
(2.3868e-09 -5.39513e-08 2.5019e-08)
(-7.20961e-09 -5.24223e-08 2.48059e-08)
(-5.15261e-08 -4.7895e-08 2.46812e-08)
(7.68228e-08 -5.53132e-08 2.77932e-08)
(1.91206e-08 -6.38702e-08 2.78416e-08)
(2.75634e-09 -6.63709e-08 2.79526e-08)
(-1.28169e-08 -6.4619e-08 2.77346e-08)
(-6.40918e-08 -5.67971e-08 2.75935e-08)
(1.00117e-07 -8.31169e-08 2.90434e-08)
(2.92602e-08 -8.95828e-08 2.91589e-08)
(2.97067e-09 -8.95985e-08 2.92807e-08)
(-2.24349e-08 -8.98828e-08 2.90422e-08)
(-8.64757e-08 -8.38018e-08 2.88125e-08)
(8.59752e-08 -1.37237e-07 2.89959e-08)
(3.52184e-08 -1.6323e-07 2.89794e-08)
(3.00997e-09 -1.56496e-07 2.91642e-08)
(-2.81992e-08 -1.60911e-07 2.88752e-08)
(-7.49399e-08 -1.35539e-07 2.87971e-08)
(2.22296e-08 7.1326e-09 5.22523e-10)
(0 0 0)
(0 0 0)
(0 0 0)
(-1.91684e-08 6.02781e-09 5.22027e-10)
(4.79567e-08 4.97855e-09 2.28816e-09)
(6.99783e-09 -3.3013e-09 2.3863e-09)
(2.8757e-10 -7.32812e-09 2.44315e-09)
(-5.77707e-09 -4.16419e-09 2.38125e-09)
(-4.11606e-08 2.801e-09 2.28374e-09)
(5.25518e-08 -1.26917e-08 4.896e-09)
(9.60801e-09 -1.60758e-08 4.99368e-09)
(8.38366e-10 -1.85321e-08 5.06313e-09)
(-7.20429e-09 -1.7063e-08 4.98214e-09)
(-4.4468e-08 -1.48077e-08 4.88206e-09)
(5.43049e-08 -2.73185e-08 7.62054e-09)
(1.00112e-08 -2.88951e-08 7.67381e-09)
(1.41031e-09 -3.04295e-08 7.73288e-09)
(-6.47551e-09 -2.98868e-08 7.65392e-09)
(-4.49947e-08 -2.93672e-08 7.59159e-09)
(5.67137e-08 -3.80243e-08 1.0189e-08)
(1.04647e-08 -4.05306e-08 1.01907e-08)
(1.93865e-09 -4.22183e-08 1.02321e-08)
(-5.86672e-09 -4.14799e-08 1.01607e-08)
(-4.61901e-08 -3.99699e-08 1.014e-08)
(6.2964e-08 -4.58275e-08 1.23151e-08)
(1.29229e-08 -5.12683e-08 1.22819e-08)
(2.40689e-09 -5.36782e-08 1.23084e-08)
(-7.36409e-09 -5.21502e-08 1.22407e-08)
(-5.12698e-08 -4.76138e-08 1.22429e-08)
(7.65871e-08 -5.49878e-08 1.37543e-08)
(1.931e-08 -6.35342e-08 1.372e-08)
(2.78662e-09 -6.60517e-08 1.37406e-08)
(-1.2947e-08 -6.43033e-08 1.3669e-08)
(-6.38105e-08 -5.65135e-08 1.36597e-08)
(9.97691e-08 -8.26627e-08 1.43766e-08)
(2.93987e-08 -8.91349e-08 1.43773e-08)
(3.01123e-09 -8.91917e-08 1.44046e-08)
(-2.24925e-08 -8.94549e-08 1.43217e-08)
(-8.60545e-08 -8.33888e-08 1.42668e-08)
(8.57988e-08 -1.36384e-07 1.43676e-08)
(3.53486e-08 -1.62204e-07 1.43244e-08)
(3.06043e-09 -1.55569e-07 1.43784e-08)
(-2.8228e-08 -1.59904e-07 1.42748e-08)
(-7.46688e-08 -1.3472e-07 1.4273e-08)
(1.80781e-08 7.22021e-09 0)
(2.4029e-09 1.37863e-09 0)
(1.55976e-11 -1.02695e-09 0)
(-2.09434e-09 1.00057e-09 0)
(-1.56495e-08 6.05906e-09 0)
(3.06429e-08 2.75374e-09 0)
(6.98687e-09 -3.30313e-09 0)
(2.87215e-10 -7.31849e-09 0)
(-5.76758e-09 -4.16656e-09 0)
(-2.63173e-08 9.67153e-10 0)
(3.50187e-08 -1.32253e-08 0)
(9.61076e-09 -1.60374e-08 0)
(8.38205e-10 -1.84932e-08 0)
(-7.2082e-09 -1.70269e-08 0)
(-2.94168e-08 -1.5047e-08 0)
(3.6184e-08 -2.737e-08 0)
(1.00392e-08 -2.88196e-08 0)
(1.41135e-09 -3.03606e-08 0)
(-6.50214e-09 -2.98153e-08 0)
(-2.94062e-08 -2.91522e-08 0)
(3.77426e-08 -3.84355e-08 0)
(1.05173e-08 -4.04293e-08 0)
(1.94191e-09 -4.21248e-08 0)
(-5.91349e-09 -4.1384e-08 0)
(-2.98193e-08 -4.01339e-08 0)
(4.26794e-08 -4.73328e-08 0)
(1.29906e-08 -5.11553e-08 0)
(2.41311e-09 -5.35708e-08 0)
(-7.41987e-09 -5.20435e-08 0)
(-3.36716e-08 -4.89009e-08 0)
(5.41985e-08 -5.79869e-08 0)
(1.9376e-08 -6.34219e-08 0)
(2.79618e-09 -6.5944e-08 0)
(-1.29942e-08 -6.41977e-08 0)
(-4.42172e-08 -5.93387e-08 0)
(7.3488e-08 -8.57661e-08 0)
(2.94478e-08 -8.8996e-08 0)
(3.02418e-09 -8.9064e-08 0)
(-2.25158e-08 -8.93225e-08 0)
(-6.2711e-08 -8.63826e-08 0)
(7.59024e-08 -1.27278e-07 0)
(3.52541e-08 -1.34706e-07 0)
(3.08228e-09 -1.30363e-07 0)
(-2.81152e-08 -1.33535e-07 0)
(-6.57709e-08 -1.26155e-07 0)
)
;

boundaryField
{
    interface
    {
        type            calculated;
    }
    symmetry
    {
        type            symmetry;
    }
    bottom
    {
        type            calculated;
    }
}


// ************************************************************************* //
