/*--------------------------------*- C++ -*----------------------------------*\
| =========                 |                                                 |
| \\      /  F ield         | OpenFOAM: The Open Source CFD Toolbox           |
|  \\    /   O peration     | Version:  v1912                                 |
|   \\  /    A nd           | Website:  www.openfoam.com                      |
|    \\/     M anipulation  |                                                 |
\*---------------------------------------------------------------------------*/
FoamFile
{
    version     2.0;
    format      ascii;
    class       volSymmTensorField;
    location    "0.97/solid";
    object      sigma;
}
// * * * * * * * * * * * * * * * * * * * * * * * * * * * * * * * * * * * * * //

dimensions      [1 -1 -2 0 0 0 0];


internalField   nonuniform List<symmTensor> 
256
(
(-123714 38121.9 -13040.9 570188 45014 -129165)
(110309 -3860.82 -5664.76 376409 44657.7 -178013)
(112838 473.207 5189.12 371637 44415.3 -172010)
(-89446.9 -37793 12673.8 554638 44234.2 -111730)
(-146994 1528.94 -20371.8 240705 8609.97 -144672)
(-4412.64 -5731.64 -9574.06 148948 10352.6 -216513)
(750.296 4258.64 8971.77 148502 10377.1 -209520)
(-109703 -1966.6 19836 239150 8534.59 -126211)
(-147466 -5022.58 -22213.2 225733 1910.94 -144535)
(-24834.3 -5999.01 -10663.3 100890 2096.71 -227550)
(-19619.7 5224.63 10113.4 100991 2113.83 -220333)
(-110015 4672.36 21663.8 224104 1859.08 -125874)
(-142597 -3687.53 -23234.2 244079 2967.81 -143351)
(-17164.3 -4786.33 -11214.3 83162.9 2257.17 -233111)
(-12003.3 4207.67 10709.2 83254.1 2235.46 -225760)
(-104736 3458.68 22692.7 241832 2837.84 -124438)
(-145585 -309.231 -24277.4 248833 6931.49 -149131)
(-15525.4 -2422.54 -11803.3 66512.5 5946.05 -244704)
(-10306.8 1906.96 11310.4 66563.3 5894.02 -237204)
(-107043 124.228 23740.4 246409 6727.75 -129854)
(-163621 6297.01 -25081.8 217661 14326.4 -165716)
(-36942.1 1910.1 -12303.9 31365.9 13726.2 -269061)
(-31621.9 -2509.77 11794.1 31558.8 13643.8 -261378)
(-124272 -6506.03 24543.3 215677 14044.9 -145940)
(-187053 17056.6 -24472.1 103316 24695.6 -183751)
(-68776.5 8260.12 -12049.7 -59617.1 25876.3 -295624)
(-63257.4 -9116.98 11495 -58249.3 25751.4 -287708)
(-146666 -17281 23927.9 104606 24320.5 -163345)
(-103143 21564.7 -21531.2 -98382.4 28011.3 -97955.3)
(69029 10659.9 -10664.1 -191777 30880.1 -191203)
(74114.1 -10115.9 10066.1 -184616 30753.9 -184122)
(-63156.9 -21049.3 20997.1 -79854.1 27674.5 -79663.8)
(-179730 23174 -10540.7 280706 11784.2 85582.4)
(-29477.6 -8105 -3707.53 69144.2 27771.9 -35078.6)
(-26679.5 6892.09 4007.84 65927.6 27978.8 -35173.7)
(-145788 -22035.3 10589.8 268381 12205.7 84721)
(-209266 -1354.74 -16663.1 106488 11976.9 11289.5)
(-138510 -6373.96 -7441.3 -35093.7 20538.7 -138767)
(-132908 6152.91 7794.26 -35054.9 20598.4 -136900)
(-172021 1385.23 16669.3 105565 11968 13977.4)
(-216475 -5333.12 -17749.6 83208.1 9886.31 -2698.66)
(-169946 -5651.79 -8242.1 -93142.3 12496.8 -173861)
(-164149 5526.99 8677.46 -92138.3 12491.9 -171673)
(-178812 5228.5 17759.7 83226.5 9720.8 158.285)
(-217745 -3856.73 -18140.3 80851.1 10212.8 -2639.84)
(-174180 -4450.79 -8391.67 -131661 10309 -187681)
(-168363 4276.21 8931.36 -130367 10248.3 -185435)
(-179526 3791.14 18179.7 80925.7 9913.93 120.169)
(-226309 -570.29 -18705.1 75634.8 15518 -6698.88)
(-183205 -2297.89 -8732.45 -161215 14720.5 -203539)
(-177298 2096.39 9330.12 -159860 14602.5 -201258)
(-187291 527.115 18767.8 75729.2 15070.5 -3938.15)
(-251532 6416.83 -19122 49799.2 24318.6 -23377.9)
(-215724 2021.78 -9087.86 -194494 23309.6 -233240)
(-209697 -2357.97 9685.7 -193033 23140.9 -230903)
(-211564 -6490.68 19196.4 50213.4 23733.5 -20482.1)
(-283730 18617.4 -18603.9 -38472.4 30957.6 -39672.1)
(-254904 8871.88 -8911.99 -257107 30639.1 -257753)
(-248683 -9565.53 9489.81 -254633 30445.2 -255329)
(-242591 -18735.4 18694.5 -35149.4 30317.6 -36481.9)
(-187382 24494.6 -17026.8 -184119 24828.2 103284)
(-68543.7 12044.7 -8311.88 -296056 25993.2 -59007.8)
(-62999.8 -11517.2 9000.68 -288023 25872.2 -57703.1)
(-146754 -23953.2 17202.9 -163379 24467.6 104405)
(-165325 12491.4 -4566.59 179692 20367.2 126679)
(-36684.6 -12868.6 -806.411 -12520.4 36385.1 -3839.57)
(-33867.6 12190.6 875.501 -15317.5 36382 -4607.75)
(-132426 -11184.4 4547.84 168136 20347 123784)
(-177601 -3179.6 -7110.42 71149 23903.4 97667.7)
(-107442 -7305.03 -2267.61 -70170.3 32167.3 -72104.3)
(-102050 7592.07 2296.73 -70219.6 32115.7 -71288.9)
(-141696 3406.65 7060.95 69881.9 23684.4 97382.1)
(-181840 -5196.86 -7195.71 66464.8 22358.2 80273.7)
(-130411 -5406.08 -2440.34 -107041 24925.3 -112363)
(-124844 5657.81 2474.19 -106179 24845.1 -111188)
(-145496 5238.4 7144.34 66105.7 22035 80247)
(-183340 -3768.63 -6961.59 70428.7 21290.6 74141.1)
(-134202 -4262.87 -2246.8 -135586 21446.8 -133624)
(-128612 4333.77 2332.02 -134387 21331.4 -132366)
(-146403 3800.66 6928.14 70251.3 20867.8 74076.2)
(-192020 -621.158 -6897.66 71665.4 23654 67300.6)
(-143361 -2334.19 -2210.15 -157476 22997.6 -154005)
(-137666 2279.91 2336.96 -156180 22840.4 -152709)
(-154206 644.673 6883.07 71569.1 23117 67228.9)
(-217393 6574.07 -6852.66 56533.6 26974.3 52043.8)
(-175303 2005.23 -2286.26 -179777 26027 -183793)
(-169456 -2275.61 2425.98 -178375 25839.2 -182445)
(-178472 -6603.75 6853.04 56715.4 26349.8 52066.5)
(-251654 19151.7 -6696.42 -21004.7 25230 47491.7)
(-214770 9053.16 -2335.78 -231300 24208.5 -196234)
(-208682 -9759.03 2502.46 -228899 24033.8 -194837)
(-211333 -19248.9 6726.73 -17977.7 24642.7 47686.5)
(-163910 25118.8 -6547.73 -165922 14853.7 218604)
(-35472.8 12299.4 -2271.41 -269216 14257.4 32923.7)
(-30071.4 -11805.8 2616.58 -261352 14178.4 33006.5)
(-123983 -24573.9 6681.16 -145657 14591.6 216286)
(-151817 7990.69 -1237.27 139949 23246.6 121592)
(-32032.5 -14536.5 616.258 -34831.7 33237.4 -3527.22)
(-29263.1 13960.5 -629.738 -37570.6 33182.6 -4295.76)
(-119744 -6677.67 1200.43 128477 23144.1 118609)
(-154323 -3636.4 -1695.2 52939.1 28088.6 116075)
(-82216.4 -7464.31 651.77 -81108.7 33130.1 -50321.5)
(-76950.3 7881.09 -741.465 -81195.7 33045.1 -49662.9)
(-119352 3915.42 1619.47 51500.2 27841.6 115305)
(-156114 -4730.02 -1343.6 59053 28091.4 100450)
(-98570 -5038.55 858.837 -104956 29488.6 -88061.7)
(-93134.5 5438.64 -980.989 -104168 29383.6 -87051.4)
(-120696 4833.9 1256.83 58497.8 27750.6 99927.5)
(-157523 -3378.21 -918.285 72320.1 26649.6 88979.4)
(-101215 -3959.74 1154.6 -121278 26459.8 -114067)
(-95750.5 4150.12 -1265.1 -120159 26331.6 -112943)
(-121481 3460.58 837.529 71958.9 26228.3 88503.7)
(-166247 -401.566 -629.82 81350.8 25784.3 78575.3)
(-110087 -2230.64 1331.02 -133947 25130.9 -137984)
(-104503 2242.5 -1418.25 -132721 24977.9 -136801)
(-129258 457.182 560.964 81090.2 25287.7 78143.7)
(-191310 6626.5 -488.066 71781.6 23753.5 65940.7)
(-141060 1915.12 1342.87 -150507 23029.4 -165263)
(-135297 -2175.96 -1408.4 -149161 22865.4 -164024)
(-153096 -6641.06 434.363 71808.5 23219 65590.1)
(-225488 18783 -600.534 -3327.85 17279.5 73038.6)
(-179439 8678.01 1164.45 -200985 16434.9 -166134)
(-173398 -9413.35 -1179.32 -198622 16299.4 -164877)
(-185697 -18876.2 579.415 -448.375 16818.7 72744.2)
(-144322 24392.2 -867.629 -148801 8013.83 254077)
(-9946 11817.5 1129.6 -244360 7121.94 69360.5)
(-4582.18 -11341.7 -972.318 -236593 7069.16 69211.4)
(-104797 -23844 936.766 -128840 7827.56 251019)
(-144544 6645.8 -159.399 122095 21084.8 111437)
(-30544.6 -14451.8 785.7 -42081.3 26082.4 -5979.57)
(-27826.8 13895.7 -812.727 -44838.6 26036.5 -6728.31)
(-113033 -5349.06 129.487 110599 21009.4 108488)
(-144113 -3458.35 50.0392 42131.8 25337.2 112431)
(-73268 -7161.42 1252.9 -85424.4 27692.4 -43612.5)
(-68091.4 7592.67 -1349.53 -85557.1 27622.2 -42988.6)
(-109752 3741.72 -114.728 40549.3 25153.5 111555)
(-145113 -4258.46 435.877 52010.3 26492.1 99287.1)
(-86851.7 -4680.69 1534.03 -103953 26912.6 -77222.9)
(-81506.8 5118.65 -1669.45 -103216 26821.8 -76268.8)
(-110303 4379.87 -515.118 51329.8 26219.7 98602.7)
(-146674 -2988.52 795.447 70417.7 25370.6 86355.8)
(-89093.7 -3686.31 1775.66 -113327 24960.5 -103729)
(-83713.6 3920.86 -1917.49 -112261 24850.5 -102654)
(-111215 3091.06 -875.819 69947.4 25027.3 85735.3)
(-155583 -173.692 1051.91 83989.9 22920.9 75045)
(-97970.3 -2114.41 1927.85 -120467 22357.8 -128051)
(-92460.5 2153.37 -2059 -119287 22232.7 -126905)
(-119128 244.006 -1125.96 83637.1 22525.3 74490.5)
(-180396 6578 1146.53 76556.9 18486.9 65528.8)
(-128322 1795.05 1938.18 -134914 18041.1 -152043)
(-122616 -2055.16 -2047.83 -133600 17914.9 -150840)
(-142635 -6585.48 -1207.99 76514.1 18078.3 65040.9)
(-214007 18234.2 970.528 2393.24 11290.1 79615.6)
(-165665 8225.96 1769.89 -185961 10849.2 -146383)
(-159657 -8976.9 -1828 -183615 10751 -145179)
(-174558 -18324.4 -1004.1 5219.8 10952.9 79113.5)
(-136695 23542.2 698.849 -140926 4514.03 260669)
(-3164.18 11293.5 1747.53 -231623 3914.78 85552.6)
(2179.16 -10823.6 -1666.63 -223897 3878.69 85319.5)
(-97417.1 -22989.5 -663.034 -121100 4382.66 257295)
(-140514 6378.08 34.7782 113919 16367.8 104480)
(-30627.4 -13960.2 530.058 -44679.5 18616.3 -7529.63)
(-27946.5 13406.1 -552.702 -47460.1 18586.3 -8277.12)
(-109352 -5095.26 -54.5857 102397 16321.9 101542)
(-139655 -3172.32 281.005 36909.8 19288 106430)
(-71118.3 -6814.78 913.897 -86505.7 20197.1 -41312.3)
(-66002.5 7235.89 -987.496 -86683.2 20150.7 -40712.2)
(-105671 3450.14 -325.503 35208.8 19172.3 105507)
(-140629 -3918.48 553.197 47791.7 20560.7 95162.1)
(-83920 -4425.33 1120.28 -103004 20527.6 -71657.1)
(-78637.6 4863.06 -1225.86 -102312 20463.8 -70743.8)
(-106196 4040.89 -610.234 47005.1 20376.5 94381.3)
(-142402 -2721.93 784.558 67989.4 19827 83071.6)
(-86185.3 -3511.06 1269.58 -109574 19422.9 -96635.5)
(-80864 3755.3 -1386.26 -108548 19343.8 -95605.1)
(-107304 2829.87 -845.191 67431.2 19586.6 82336.5)
(-151443 -28.2358 945.904 83273.3 17321.3 72772.8)
(-95131.8 -2044.82 1359.36 -114436 16924.7 -119601)
(-89674.2 2092.66 -1472.47 -113291 16835.7 -118498)
(-115317 104.478 -1003.79 82851.7 17043.8 72099.2)
(-176035 6506.37 991.074 76560 13000.4 65822.4)
(-125055 1697.26 1359.45 -128229 12776.2 -140964)
(-119390 -1956.57 -1456.39 -126938 12688.7 -139805)
(-138550 -6509.62 -1040.14 76470.5 12718.3 65201)
(-209133 17820.6 855.012 3436.04 7220.81 83085.2)
(-161655 7912.65 1252.24 -179267 7069.08 -132537)
(-155674 -8668.47 -1308.75 -176932 7002.92 -131384)
(-169895 -17907.5 -883.813 6230.95 6992.44 82412.9)
(-134057 22955.1 661.526 -137202 2673.78 261419)
(-3436.9 10947.8 1243.2 -225054 2378.31 94598.4)
(1889.63 -10478.1 -1201.03 -217349 2354.64 94306)
(-94924.9 -22398 -642.323 -117445 2586.26 257827)
(-138167 6356.83 24.8044 110408 10278.4 100715)
(-30875.4 -13585.2 267.081 -45472.6 11215.9 -8396.14)
(-28216.2 13028.5 -281.117 -48268.7 11199.4 -9147.61)
(-107206 -5083.07 -35.8261 98871.8 10253.9 97778)
(-137429 -2974.87 159.884 34887.5 11902.4 102456)
(-70781.8 -6588.43 469.432 -86354.9 12203.1 -40658.5)
(-65701.5 6998.51 -513.75 -86563.7 12177.5 -40076.1)
(-103661 3247.48 -185.122 33108.4 11840 101505)
(-138539 -3721.11 304.748 45949.8 12745.2 92372.1)
(-83470.3 -4280.97 578.138 -102068 12622 -69020.6)
(-78224.6 4710.81 -642.649 -101408 12585.4 -68135.3)
(-104322 3840.9 -337.942 45087.7 12641.6 91533.8)
(-140464 -2573.75 424.991 66460.8 12322 81591.5)
(-85853 -3420.54 651.897 -107794 12053.7 -92338.3)
(-80566.6 3663.25 -725.155 -106796 12007.3 -91341.5)
(-105574 2681.9 -461.246 65839.5 12183 80777.8)
(-149564 46.6174 506.474 82091.4 10602.6 72688.5)
(-94840.1 -2013.51 693.823 -112019 10379.4 -113767)
(-89413.6 2062.98 -766.539 -110896 10327.2 -112700)
(-113625 31.5869 -541.802 81621.7 10440.7 71923.9)
(-173989 6454 525.014 75588.6 7702.96 67406)
(-124483 1638.57 691.558 -125642 7610.93 -133472)
(-118843 -1897.04 -754.741 -124366 7559.97 -132350)
(-136661 -6454.81 -555.304 75467.6 7538.82 66681.6)
(-206751 17579.8 448.586 3371.43 4117.96 85878.9)
(-160626 7743.84 638.983 -176326 4093.75 -124061)
(-154662 -8500.2 -677.307 -174000 4055.61 -122946)
(-167633 -17664 -466.841 6146.15 3986.01 85084.3)
(-132919 22628.1 336.136 -135233 1471.17 261826)
(-4759.46 10764.8 634.71 -221551 1354.99 99719.1)
(557.13 -10293.5 -614.869 -213857 1341.53 99385.3)
(-93866.3 -22067.6 -326.45 -115512 1421.04 258091)
(-137042 6361.44 5.3143 109156 3496.25 99125.2)
(-30980.3 -13409.6 78.2537 -45615.4 3754.27 -8797.33)
(-28331 12850.5 -82.9447 -48418.9 3749.01 -9551.67)
(-106171 -5092.13 -8.84575 97612.3 3488.54 96186.8)
(-136410 -2886.29 44.087 34296.1 4010.65 100659)
(-70745 -6488.08 137.243 -86054.9 4078.69 -40561.2)
(-65680.6 6891.96 -151.915 -86279 4070.54 -39988.1)
(-102741 3156.14 -52.2275 32479.4 3991.02 99693.6)
(-137607 -3635.19 87.7072 45355.3 4293.43 91150.5)
(-83449.6 -4220.07 169.365 -101499 4239.4 -68023)
(-78220.5 4644.57 -190.868 -100855 4227.6 -67151.7)
(-103487 3753.1 -98.5289 44455 4260.25 90285.4)
(-139605 -2510.4 124.083 65810.5 4152.46 81190.9)
(-85906.4 -3384.33 190.839 -107053 4061.06 -90389.8)
(-80635.8 3624.55 -215.549 -106070 4045.91 -89410.4)
(-104808 2617.91 -136.048 65156.4 4107.29 80338.3)
(-148722 77.1365 148.39 81410.7 3552.98 73151.7)
(-94906.3 -2002.4 202.663 -111185 3482.3 -110916)
(-89493.9 2051.6 -227.452 -110074 3465.13 -109868)
(-112868 1.5503 -160.163 80916.1 3499.99 72339.8)
(-173059 6428.94 153.415 74953.3 2552.16 68667.9)
(-124411 1613.09 201.741 -124778 2528.68 -129839)
(-118782 -1871.14 -223.427 -123510 2511.98 -128738)
(-135802 -6428.64 -163.566 74816.2 2498.41 67889.2)
(-205661 17473.8 129.524 3234.2 1349.66 87525.8)
(-160338 7674.16 186.618 -175193 1352.1 -120129)
(-154382 -8430.17 -199.995 -172870 1339.64 -119035)
(-166597 -17556.5 -135.704 5998.88 1306.52 86668.3)
(-132387 22487.1 92.728 -134327 475.343 262230)
(-5500.61 10689.3 185.136 -219981 446.668 102044)
(-188.231 -10216.8 -179.368 -212292 442.295 101689)
(-93368.9 -21924.8 -89.7557 -114623 459.01 258424)
)
;

boundaryField
{
    interface
    {
        type            calculated;
        value           nonuniform List<symmTensor> 
192
(
(-37.8 0.338702 2.5969 975722 45014 276368)
(-39.3997 0.378484 4.22563 601798 8609.97 216421)
(-41.1476 0.165636 4.87627 589111 1910.94 218843)
(-42.3859 -0.275905 5.10182 614870 2967.81 227441)
(-42.8937 -0.686533 5.10671 633886 6931.49 235922)
(-43.9574 -1.40094 5.01513 627215 14326.4 243839)
(-42.4751 -1.95277 4.66522 534200 24695.6 247132)
(-46.1781 -4.46554 4.39857 254187 28011.3 254614)
(-36.8792 0.243365 1.27313 701974 11784.2 506851)
(-37.5713 0.308121 2.21083 510439 11976.9 415241)
(-38.6416 0.131102 2.5134 495704 9886.31 409797)
(-39.4776 -0.312505 2.56631 504974 10212.8 421483)
(-39.6806 -0.739732 2.49556 518942 15518 436609)
(-40.594 -1.52096 2.37563 525646 24318.6 452469)
(-38.8063 -2.12783 2.1484 470851 30957.6 469651)
(-42.5664 -4.75773 1.9721 247432 24828.2 534834)
(-39.372 0.208496 0.994834 562886 20367.2 509872)
(-39.9743 0.272631 1.70241 437825 23903.4 464343)
(-41.0238 0.105212 1.92457 440884 22358.2 454693)
(-41.8723 -0.35353 1.95735 456464 21290.6 460176)
(-42.0075 -0.813065 1.89633 477157 23654 472792)
(-42.8528 -1.67312 1.79851 495665 26974.3 491175)
(-40.6389 -2.36242 1.63736 455621 25230 524118)
(-44.1527 -5.15897 1.50605 244997 14853.7 629522)
(-39.6112 0.155408 0.600103 493723 23246.6 475366)
(-40.0352 0.195316 1.08545 388165 28088.6 451301)
(-40.8668 0.0250593 1.23014 400796 28091.4 442194)
(-41.5792 -0.433773 1.23765 425411 26649.6 442070)
(-41.581 -0.905454 1.18041 453842 25784.3 451066)
(-42.337 -1.79671 1.10174 477952 23753.5 472111)
(-39.9643 -2.52128 1.00149 441375 17279.5 517742)
(-43.3883 -5.3517 0.926443 237959 8013.83 640837)
(-40.3807 0.129478 0.435397 458015 21084.8 447357)
(-40.7573 0.14595 0.7873 359094 25337.2 429394)
(-41.4899 -0.035203 0.893422 375011 26492.1 422287)
(-42.1425 -0.49923 0.898394 404698 25370.6 420636)
(-42.0629 -0.984971 0.855878 437685 22920.9 428740)
(-42.741 -1.90294 0.797302 463816 18486.9 452787)
(-40.201 -2.65955 0.728161 428261 11290.1 505484)
(-43.4701 -5.52613 0.675118 231129 4514.03 632724)
(-40.5953 0.108984 0.262646 439186 16367.8 429748)
(-40.927 0.105625 0.491643 343508 19288 413028)
(-41.5735 -0.085949 0.561609 360347 20560.7 407717)
(-42.1687 -0.553058 0.563215 391846 19827 406929)
(-42.026 -1.0463 0.533392 426559 17321.3 416058)
(-42.6527 -1.97678 0.49367 453258 13000.4 442520)
(-40.0327 -2.74944 0.451711 418572 7220.81 498222)
(-43.236 -5.63225 0.42158 226317 2673.78 624938)
(-40.8509 0.0988043 0.153172 429544 10278.4 419851)
(-41.167 0.0818056 0.28638 335673 11902.4 403242)
(-41.768 -0.118276 0.327472 352719 12745.2 399141)
(-42.332 -0.588681 0.328493 384562 12322 399692)
(-42.1503 -1.08782 0.311268 419615 10602.6 410212)
(-42.7398 -2.02699 0.287779 446397 7702.96 438215)
(-40.0578 -2.81092 0.26421 412445 4117.96 494953)
(-43.2029 -5.70641 0.246133 223374 1471.17 620434)
(-40.9165 0.0926057 0.0449083 425458 3496.25 415428)
(-41.2214 0.068447 0.0872229 332417 4010.65 398779)
(-41.7971 -0.135558 0.100471 349483 4293.43 395279)
(-42.3434 -0.6069 0.100602 381286 4152.46 396666)
(-42.1441 -1.1083 0.0949476 416300 3552.98 408041)
(-42.7155 -2.0504 0.0872376 443058 2552.16 436772)
(-40.0145 -2.83941 0.0803256 409506 1349.66 493798)
(-43.1299 -5.73987 0.074716 221977 475.343 618534)
(293781 38121.9 -3.57355 987684 -0.878249 -12.8549)
(221398 1528.94 -6.11773 609097 -1.11407 -8.98102)
(223368 -5022.58 -7.27549 596568 -1.00969 -4.90073)
(237327 -3687.53 -7.78228 624003 -0.789249 -2.97283)
(249681 -309.231 -8.00125 644099 -0.688838 -2.27078)
(255347 6297.01 -8.17661 636629 -0.72972 -2.63479)
(250657 17056.6 -8.3889 541025 -0.878096 -4.28877)
(253848 21564.7 -9.28845 258609 -1.07961 -5.64872)
(550029 -3860.82 -2.06781 816129 -0.523663 -16.4061)
(418006 -5731.64 -3.98065 571367 -0.8776 -15.5647)
(407928 -5999.01 -4.78274 533652 -0.853671 -14.1363)
(429063 -4786.33 -5.10504 529390 -0.601732 -13.5184)
(450841 -2422.54 -5.24898 532879 -0.412521 -13.2622)
(460902 1910.1 -5.42774 529210 -0.302499 -13.4009)
(458507 8260.12 -5.8022 467667 -0.320102 -13.9144)
(509853 10659.9 -6.96699 249047 -0.386241 -14.1448)
(540700 473.207 -2.01527 799499 -0.38657 -13.6519)
(411005 4258.64 -3.92479 558756 -0.744055 -13.0305)
(400575 5224.63 -4.74953 521185 -0.751088 -11.6837)
(421339 4207.67 -5.08818 516596 -0.471389 -11.0596)
(442894 1906.96 -5.22787 519764 -0.218755 -10.8091)
(452764 -2509.77 -5.38465 515945 -0.00325364 -10.9416)
(450261 -9116.98 -5.71588 455269 0.111303 -11.5197)
(502122 -10115.9 -6.84818 243392 0.138113 -12.2042)
(293627 -37793 -2.12947 937713 -0.316676 -13.7991)
(225083 -1966.6 -4.35013 573936 -0.667187 -13.4625)
(226422 4672.36 -5.38402 560541 -0.680439 -12.2645)
(240002 3458.68 -5.82479 586571 -0.374654 -11.752)
(252305 124.228 -6.00955 605757 -0.0885481 -11.6055)
(257985 -6506.03 -6.2153 597934 0.180039 -11.76)
(253541 -17281 -6.5308 504813 0.371572 -12.1978)
(259093 -21049.3 -7.74163 242396 0.550777 -12.7652)
(-6.84328 0.657712 0.499929 895737 44234.2 229368)
(-4.67306 0.972925 1.02974 533961 8534.59 168600)
(-2.12262 0.843452 1.21089 520366 1859.08 170388)
(-0.637066 0.389533 1.3181 544347 2837.84 178077)
(0.0535124 0.117513 1.41885 561872 6727.75 185609)
(1.64947 -0.274138 1.68337 554267 14044.9 192650)
(1.41993 -0.251748 1.92237 462961 24320.5 195010)
(9.75544 -2.39685 2.53874 200040 27674.5 200230)
(-10.3036 0.258146 -0.328926 626083 12205.7 442423)
(-9.91397 0.454779 -0.386341 444158 11968 352570)
(-9.09184 0.417954 -0.491086 429331 9720.8 346263)
(-8.44895 0.164995 -0.514939 437337 9913.93 356531)
(-8.16566 0.0963045 -0.458945 449810 15070.5 370142)
(-6.65613 -0.11928 -0.24582 455168 23733.5 384472)
(-6.59914 0.117631 0.0377385 401402 30317.6 400070)
(1.45508 -1.81678 0.464473 195182 24467.6 462965)
(-10.5625 0.142212 -0.22354 489766 20347 445414)
(-10.2888 0.256786 -0.201377 373398 23684.4 400898)
(-9.65582 0.2575 -0.191644 376294 22035 390435)
(-9.01341 0.11158 -0.13984 390678 20867.8 394503)
(-8.6632 0.16645 -0.0475038 409793 23117 405453)
(-6.85613 0.0574563 0.136647 426619 26349.8 421971)
(-6.52801 0.402999 0.333906 387120 24642.7 452784)
(1.90965 -1.57242 0.587731 193221 14591.6 555164)
(-11.7468 0.0605922 -0.232564 422213 23144.1 412345)
(-11.6687 0.114967 -0.211335 325168 27841.6 388973)
(-11.3415 0.142531 -0.174562 337608 27750.6 379038)
(-10.8063 0.0885079 -0.11373 360997 26228.3 377542)
(-10.4545 0.247341 -0.0325793 387753 25287.7 384806)
(-8.46736 0.232956 0.0990436 409979 23219 403761)
(-7.85141 0.647799 0.229514 373624 16818.7 446817)
(0.700043 -1.2985 0.382599 186494 7827.56 566353)
(-12.0286 0.04611 -0.116887 387507 21009.4 385395)
(-11.9429 0.0790631 -0.0584251 297015 25153.5 368022)
(-11.6569 0.123266 0.0098958 312758 26219.7 360031)
(-11.0857 0.117362 0.0786947 341202 25027.3 356990)
(-10.6692 0.33019 0.146699 372451 22525.3 363305)
(-8.54972 0.358665 0.231945 396578 18078.3 385105)
(-7.80947 0.79007 0.30031 361054 10952.9 434948)
(0.783466 -1.17889 0.37217 179922 4382.66 558317)
(-12.4224 0.0411709 -0.0789514 369290 16321.9 368435)
(-12.34 0.0679355 -0.0299263 281965 19172.3 352263)
(-12.0824 0.1253 0.028933 298640 20376.5 346016)
(-11.4938 0.149283 0.0821344 328891 19586.6 343797)
(-11.0359 0.395475 0.12982 361828 17043.8 351076)
(-8.83822 0.450232 0.182006 386454 12718.3 375185)
(-8.00129 0.886385 0.220251 351692 6992.44 427874)
(0.617378 -1.09085 0.257526 175265 2586.26 550537)
(-12.5421 0.0442428 -0.0316759 360000 10253.9 358906)
(-12.4451 0.0720701 0.0049236 274428 11840 342825)
(-12.1781 0.137395 0.0452912 291309 12641.6 337756)
(-11.5632 0.175317 0.0790843 321901 12183 336839)
(-11.0731 0.436558 0.107204 355160 10440.7 345462)
(-8.83443 0.501876 0.134241 379833 7538.82 371047)
(-7.94925 0.934997 0.152128 345746 3986.01 424684)
(0.672183 -1.05087 0.166542 172404 1421.04 546008)
(-12.6404 0.0450141 -0.0134424 356074 3488.54 354648)
(-12.5408 0.0740784 -0.00210214 271305 3991.02 338520)
(-12.2717 0.143614 0.0113529 288205 4260.25 334036)
(-11.647 0.188229 0.022496 318754 4107.29 333936)
(-11.141 0.456383 0.0318045 351966 3499.99 343389)
(-8.88403 0.527046 0.0404133 376598 2498.41 369671)
(-7.96792 0.958378 0.0465572 342886 1306.52 423555)
(0.652099 -1.0297 0.0510434 171041 459.01 544087)
(254768 9.41015 -21531.2 -4.95647 -0.904046 259956)
(251679 8.55617 -17026.8 -3.25583 -0.702458 542345)
(256994 8.42271 -6547.73 -0.873177 -0.486822 639509)
(253611 8.37498 -867.629 0.538344 -0.326823 652009)
(246535 8.41265 698.849 1.63727 -0.232132 643899)
(240212 8.43643 661.526 2.39974 -0.145786 635687)
(236081 8.46309 336.136 2.88249 -0.0865139 630826)
(234139 8.47416 92.728 3.11339 -0.0267089 628756)
(510742 7.0483 -10664.1 -13.593 -0.169404 250510)
(459985 5.89059 -8311.88 -13.2171 -0.094001 469520)
(464085 5.53295 -2271.41 -12.2712 0.0148691 532482)
(458810 5.38777 1129.6 -11.6289 0.044613 538117)
(446475 5.345 1747.53 -11.0661 0.0502206 535192)
(434819 5.31914 1243.2 -10.6629 0.0433021 532854)
(426948 5.31303 634.71 -10.3978 0.0272527 531427)
(423180 5.30901 185.136 -10.2594 0.0103125 530725)
(502889 6.92951 10066.1 -11.6896 0.379761 244653)
(451565 5.78528 9000.68 -10.8559 0.369605 456862)
(455716 5.46022 2616.58 -9.85542 0.355744 518793)
(450538 5.33936 -972.318 -9.22118 0.291022 524332)
(438243 5.30772 -1666.63 -8.65171 0.231291 521384)
(426600 5.28846 -1201.03 -8.28175 0.162768 519017)
(418734 5.28503 -614.869 -8.02586 0.0974703 517563)
(414968 5.28153 -179.368 -7.90961 0.0321244 516846)
(259629 7.78176 20997.1 -12.3102 0.800201 243122)
(254217 6.5559 17202.9 -11.6432 0.642118 505375)
(259316 6.23787 6681.16 -10.8988 0.546905 599585)
(255915 6.07413 936.766 -10.387 0.429695 611732)
(248771 6.02756 -663.034 -9.88086 0.335919 603482)
(242390 5.99333 -642.323 -9.57227 0.232424 595142)
(238224 5.98377 -326.45 -9.34606 0.139908 590182)
(236268 5.97709 -89.7557 -9.2449 0.0456364 588060)
)
;
    }
    symmetry
    {
        type            symmetry;
    }
    bottom
    {
        type            calculated;
        value           nonuniform List<symmTensor> 
32
(
(-723338 103540 -13040.9 269590 100011 -728789)
(-526332 67791.6 -10540.7 77858.6 3033 -261020)
(-439930 42881 -4566.59 12371.6 9662.74 -147926)
(-400335 32006 -1237.27 -10580.6 16914 -126926)
(-380738 28145.7 -159.399 -20527.8 17753.9 -124757)
(-370011 26821.6 34.7782 -24806.7 14691 -125017)
(-363978 26305 24.8044 -26299.4 9508.96 -125096)
(-361190 26100.1 5.3143 -26661.3 3275.44 -125023)
(-259020 11.6644 -5664.76 175353 92330 -547342)
(-150024 -7683.83 -3707.53 -14873.4 21575.3 -155624)
(-100949 -15304.1 -806.411 -58627.4 29391.7 -68103.9)
(-82292 -18029.6 616.258 -65401.7 29332.8 -53786.7)
(-76537.1 -18134.8 785.7 -67263.4 24008.9 -51972.1)
(-75128.8 -17611 530.058 -68448.2 17538.5 -52031)
(-74797.2 -17192.3 267.081 -68993.4 10713.4 -52318)
(-74685.7 -16995.9 78.2537 -69126.5 3610.1 -52502.7)
(-250895 -5039.6 5189.12 173453 91476.7 -535743)
(-145418 5116.8 4007.84 -17477.9 21854.3 -153913)
(-96784.3 13273.6 875.501 -61003.6 29440.1 -67524.5)
(-78282 16085.2 -629.738 -67805.8 29294.6 -53314.6)
(-72626.3 16202.6 -812.727 -69723.9 23967.5 -51527.8)
(-71279.6 15676.8 -552.702 -70945.1 17509.8 -51610.2)
(-70983.1 15253.1 -281.117 -71510.9 10697.3 -51914.5)
(-70887.6 15053.3 -82.9447 -71653.6 3604.97 -52108.2)
(-658181 -101579 12673.8 272820 97624.9 -680465)
(-472586 -64872 10589.8 77097.7 3642.47 -242077)
(-388995 -39892.8 4547.84 11321.3 9783.46 -132785)
(-350897 -29105.2 1200.43 -12072.5 16867.8 -112544)
(-332251 -25316.9 129.487 -22326.3 17701.4 -110730)
(-322101 -24038 -54.5857 -26772.8 14655.8 -111207)
(-316396 -23547.8 -35.8261 -28354.1 9489.61 -111413)
(-313756 -23355.1 -8.84575 -28755.2 3269.32 -111398)
)
;
    }
}


// ************************************************************************* //
